G3.5ncore-PETIM in water
164620
    1aaa     N1    1   1.578   2.036   1.910 -0.1064  0.5183 -0.0402
    1aaa     C1    2   1.691   2.108   1.849  0.7311  0.2400 -0.0870
    1aaa     H1    3   1.672   2.216   1.857  3.3570  0.6808  0.9840
    1aaa     H2    4   1.788   2.098   1.897  0.1310  4.1228  2.4367
    1aaa     C2    5   1.612   1.886   1.906 -0.3333  0.0806  0.5333
    1aaa     H3    6   1.635   1.854   1.804 -3.9636 -1.0055 -0.1060
    1aaa     H4    7   1.702   1.878   1.966 -0.6717  1.4369  1.2536
    1aaa     C3    8   1.561   2.075   2.052 -0.0132 -0.3926  0.5922
    1aaa     H5    9   1.497   1.997   2.094  1.9085 -2.1700  0.3518
    1aaa     H6   10   1.661   2.073   2.095  0.4835  3.2679  0.0041
    1aaa     C4   11   1.501   2.221   2.073 -0.0239  0.5060 -0.5635
    1aaa     H7   12   1.484   2.225   2.181 -0.0093 -0.3210 -0.5214
    1aaa     H8   13   1.566   2.297   2.029  0.0465 -1.5153 -4.3912
    1aaa     C5   14   1.715   2.079   1.700  0.1961 -0.3701 -0.2158
    1aaa     H9   15   1.770   1.985   1.691  2.2490  0.8150 -0.8044
    1aaa    H10   16   1.615   2.065   1.657 -0.4264  1.4449  0.5344
    1aaa     C6   17   1.511   1.780   1.949 -0.7255 -0.8827 -0.3097
    1aaa    H11   18   1.449   1.821   2.029 -0.4581  1.1015 -1.0598
    1aaa    H12   19   1.440   1.776   1.866 -2.7658  0.6257  1.2629
    1aaa     C7   20   1.572   1.641   1.995  0.5515  0.2856  0.3672
    1aaa    H13   21   1.622   1.591   1.910 -0.9213 -2.7396  1.1203
    1aaa    H14   22   1.646   1.651   2.076 -1.5347 -0.3645  2.4571
    1aaa     C8   23   1.363   2.234   2.006  0.2023 -0.0349 -0.2414
    1aaa    H15   24   1.370   2.238   1.896  2.3069  0.9610 -0.1088
    1aaa    H16   25   1.289   2.159   2.037 -1.5236  2.3758  1.8803
    1aaa     C9   26   1.791   2.196   1.637 -1.0576  0.2567  0.2994
    1aaa    H17   27   1.716   2.274   1.617 -1.7963 -0.9422 -1.9221
    1aaa    H18   28   1.851   2.237   1.720  1.3950  0.9975 -1.6990
    1aaa    H19   29   1.485   2.051   1.869 -2.1300 -3.9060  2.2754
    2bbb     N1   30   1.170   1.248   2.090  0.4749 -0.3486 -0.3092
    2bbb     C1   31   1.096   1.209   1.968  0.0554 -0.2431 -0.1436
    2bbb     H1   32   1.162   1.127   1.938  0.3765  0.9760 -3.1599
    2bbb     H2   33   1.091   1.283   1.888  1.1071  1.0287  0.9392
    2bbb     C2   34   1.206   1.125   2.172  0.0376  0.1115 -0.0547
    2bbb     H3   35   1.107   1.088   2.197 -2.0876  3.9703 -1.8926
    2bbb     H4   36   1.253   1.159   2.264  0.3530  1.2253 -0.6080
    2bbb     C3   37   1.294   1.315   2.042 -0.1057  0.4518 -0.3238
    2bbb     H5   38   1.271   1.404   1.983 -2.1659 -0.1533 -0.5066
    2bbb     H6   39   1.328   1.238   1.973  0.5792  1.8016 -1.5528
    2bbb     C4   40   1.403   1.341   2.151 -0.4967 -0.0378 -0.6787
    2bbb     H7   41   1.442   1.246   2.191  0.5554  1.4992  2.2193
    2bbb     H8   42   1.355   1.391   2.236  1.2889 -3.2302  2.5215
    2bbb     C5   43   0.948   1.160   1.973 -0.1861  0.5136 -0.0986
    2bbb     H9   44   0.883   1.239   2.012  1.8952  3.0814 -1.5398
    2bbb    H10   45   0.939   1.077   2.044 -1.5352 -1.9482 -2.9035
    2bbb     C6   46   1.302   1.014   2.122  0.4059 -0.0394  0.6808
    2bbb    H11   47   1.394   1.045   2.071 -0.6339  0.7951 -0.7868
    2bbb    H12   48   1.250   0.945   2.054  1.3928  0.5108 -0.6798
    2bbb     C7   49   1.520   1.431   2.099  0.3289 -0.5165  0.1090
    2bbb    H13   50   1.564   1.367   2.022 -1.8146 -0.9280 -0.8505
    2bbb    H14   51   1.598   1.443   2.175 -0.2127 -0.9886  0.7573
    2bbb     C8   52   1.337   0.904   2.228 -0.1449  0.2761  0.6324
    2bbb    H15   53   1.245   0.849   2.249 -1.3636  1.1022 -2.1267
    2bbb    H16   54   1.399   0.829   2.178 -0.2193  0.6904 -0.0863
    2bbb     C9   55   0.912   1.113   1.834  0.1257  0.7271 -0.0984
    2bbb    H17   56   0.998   1.062   1.789  0.7899  1.4949  0.2725
    2bbb    H18   57   0.890   1.199   1.770 -1.1222 -0.0003 -0.6791
    2bbb     O1   58   1.468   1.558   2.042  0.6687  0.9278 -0.0986
    2bbb    H19   59   1.118   1.321   2.141 -1.7135 -1.0263 -1.4488
    3bbb     N1   60   1.060   2.702   2.226 -0.3883  0.6185  0.0094
    3bbb     C1   61   0.931   2.730   2.161 -0.2146  0.0291  0.0085
    3bbb     H1   62   0.866   2.653   2.202 -0.0777  1.0140  2.1954
    3bbb     H2   63   0.935   2.711   2.053 -0.8462  0.4126 -0.0893
    3bbb     C2   64   1.067   2.730   2.376 -0.4751  0.1759 -0.3673
    3bbb     H3   65   1.075   2.835   2.402  1.2472 -0.0459  0.1480
    3bbb     H4   66   1.160   2.688   2.415 -0.9322  1.0980  1.8458
    3bbb     C3   67   1.103   2.562   2.190 -0.1791  0.0214  0.5341
    3bbb     H5   68   1.034   2.487   2.227  0.4491 -0.4165  0.8508
    3bbb     H6   69   1.190   2.539   2.252 -0.2320  2.6796  1.7502
    3bbb     C4   70   1.134   2.529   2.041 -0.1260  0.8407 -1.0305
    3bbb     H7   71   1.203   2.601   1.995  0.1828 -0.2102 -2.2699
    3bbb     H8   72   1.050   2.555   1.976 -0.2875  2.3491 -0.2791
    3bbb     C5   73   0.873   2.873   2.177 -0.7936 -0.7791 -0.2193
    3bbb     H9   74   0.945   2.954   2.161  0.3143 -1.2860  1.8389
    3bbb    H10   75   0.832   2.876   2.279 -2.3388  1.0974 -0.8248
    3bbb     C6   76   0.956   2.680   2.472 -0.0655  0.5461  0.7971
    3bbb    H11   77   0.968   2.572   2.488  0.4252  0.4686 -0.0584
    3bbb    H12   78   0.854   2.702   2.438  0.0171  0.7883  0.7042
    3bbb     C7   79   1.169   2.379   2.026  0.1970  0.6729 -0.6040
    3bbb    H13   80   1.148   2.351   1.922 -0.5275 -1.7005  0.1126
    3bbb    H14   81   1.104   2.314   2.086  1.1252  1.5590  1.4576
    3bbb     C8   82   0.969   2.753   2.608 -0.0372  0.2883 -0.2063
    3bbb    H15   83   1.057   2.715   2.662  0.6289  0.1216 -1.3686
    3bbb    H16   84   0.982   2.862   2.603  1.2421  0.1202 -0.8949
    3bbb     C9   85   0.753   2.889   2.078  0.3040 -0.1068  0.6242
    3bbb    H17   86   0.676   2.928   2.145  1.4677 -1.1138  2.6332
    3bbb    H18   87   0.711   2.794   2.041 -0.6326 -0.0137  1.4136
    3bbb     O1   88   1.311   2.363   2.049  0.1313 -0.1603 -0.7630
    3bbb    H19   89   1.123   2.772   2.186  0.4133 -0.1343 -0.0797
    4bbb     N1   90   2.220   2.293   1.178 -0.0380 -0.2264  0.4105
    4bbb     C1   91   2.325   2.186   1.204 -0.9052 -0.1697  0.0099
    4bbb     H1   92   2.359   2.158   1.104  0.3944 -3.3484  1.1975
    4bbb     H2   93   2.283   2.096   1.249  0.4565 -0.3540  0.9780
    4bbb     C2   94   2.123   2.251   1.072  0.7099  0.8261 -0.2556
    4bbb     H3   95   2.043   2.325   1.071  1.1099  1.2682 -0.2898
    4bbb     H4   96   2.085   2.160   1.119 -0.1276  0.8514 -0.8639
    4bbb     C3   97   2.133   2.331   1.297  0.6987  0.8004 -0.0929
    4bbb     H5   98   2.060   2.400   1.254  1.9310  0.6325 -2.6349
    4bbb     H6   99   2.195   2.398   1.355  0.9237 -0.9976  1.8823
    4bbb     C4  100   2.080   2.217   1.395 -0.2704  0.0151  0.2941
    4bbb     H7  101   2.162   2.210   1.468  0.2604 -1.5435 -0.4071
    4bbb     H8  102   2.064   2.124   1.340 -1.6663  1.0018 -1.0372
    4bbb     C5  103   2.448   2.235   1.291  0.2802  0.1868  0.1387
    4bbb     H9  104   2.407   2.266   1.388  1.7173 -1.5392  1.3733
    4bbb    H10  105   2.479   2.333   1.252 -0.4063  1.0748  1.7164
    4bbb     C6  106   2.175   2.228   0.928 -0.1783 -0.1038  0.5713
    4bbb    H11  107   2.238   2.140   0.946  0.3859  0.0655 -0.4806
    4bbb    H12  108   2.256   2.296   0.899 -0.8368  0.6821  0.5370
    4bbb     C7  109   1.945   2.266   1.457 -0.3612  0.1979 -0.5302
    4bbb    H13  110   1.874   2.293   1.378 -0.8156  1.0897  0.1758
    4bbb    H14  111   1.964   2.352   1.523 -0.6739 -0.0853 -0.0650
    4bbb     C8  112   2.079   2.191   0.813  0.5472 -0.5168 -0.0115
    4bbb    H15  113   2.040   2.091   0.833 -0.1815  0.4062  3.9020
    4bbb    H16  114   1.999   2.267   0.809 -0.1352 -1.1898  0.5357
    4bbb     C9  115   2.562   2.129   1.297 -0.5029  0.6438 -0.2984
    4bbb    H17  116   2.586   2.096   1.195  1.7902  0.7501  0.1440
    4bbb    H18  117   2.531   2.042   1.357  0.5532  0.3187 -0.2030
    4bbb     O1  118   1.888   2.157   1.534  0.3889 -0.0566 -0.1123
    4bbb    H19  119   2.274   2.374   1.143 -0.1965 -0.0178  0.6415
    5bbb     N1  120   1.648   0.574   2.569  0.4140  0.4306  0.3258
    5bbb     C1  121   1.650   0.473   2.460  0.2849 -0.5583  0.6239
    5bbb     H1  122   1.725   0.499   2.385 -1.7603 -0.7870 -1.6484
    5bbb     H2  123   1.557   0.493   2.405  0.5111  0.1905  0.5062
    5bbb     C2  124   1.768   0.569   2.650  0.1602  0.2589 -0.8291
    5bbb     H3  125   1.857   0.570   2.587  0.4735 -3.0830 -0.6003
    5bbb     H4  126   1.758   0.474   2.702 -1.5582  0.7562 -0.2038
    5bbb     C3  127   1.639   0.710   2.496  0.2430 -0.2450 -0.6976
    5bbb     H5  128   1.731   0.726   2.438  2.0477 -0.1262  2.0048
    5bbb     H6  129   1.648   0.790   2.569 -0.0377 -0.5944 -0.2738
    5bbb     C4  130   1.511   0.748   2.423 -0.6719  0.2921 -0.3621
    5bbb     H7  131   1.427   0.715   2.485 -0.1701  1.2430  0.8596
    5bbb     H8  132   1.507   0.691   2.329  0.6778 -1.9484  0.8490
    5bbb     C5  133   1.656   0.323   2.493 -0.1536 -0.3267  0.3030
    5bbb     H9  134   1.583   0.304   2.573 -0.8795  1.4431  0.0887
    5bbb    H10  135   1.755   0.296   2.532 -0.0733 -0.0703  0.2773
    5bbb     C6  136   1.790   0.674   2.765 -0.6550 -1.0438  0.2061
    5bbb    H11  137   1.700   0.692   2.825 -1.2032  0.7496 -1.0803
    5bbb    H12  138   1.823   0.772   2.729  0.2122 -1.0202  1.0432
    5bbb     C7  139   1.516   0.907   2.395  0.4896 -0.0013 -0.2759
    5bbb    H13  140   1.590   0.946   2.325 -1.2449 -0.0595 -2.2278
    5bbb    H14  141   1.532   0.959   2.491  0.8438 -0.3148 -0.1639
    5bbb     C8  142   1.901   0.624   2.864  0.2687 -0.2309 -0.1875
    5bbb    H15  143   1.992   0.628   2.803  0.1839  1.2251 -0.2648
    5bbb    H16  144   1.918   0.705   2.937  0.8780 -0.5143 -0.0042
    5bbb     C9  145   1.617   0.237   2.373 -0.4619  0.8272  0.4565
    5bbb    H17  146   1.667   0.278   2.285  0.1649 -0.2563  0.2842
    5bbb    H18  147   1.510   0.235   2.350  0.1127  2.0160 -2.8542
    5bbb     O1  148   1.389   0.959   2.353  0.5607 -0.5535  0.5053
    5bbb    H19  149   1.569   0.560   2.634  0.4051  4.6127  1.4981
    6bbb     N1  150   0.438   0.765   1.771 -0.0380 -0.3040 -0.3430
    6bbb     C1  151   0.404   0.726   1.634  0.4549 -0.1938  1.0659
    6bbb     H1  152   0.316   0.664   1.643  0.5856 -1.2794 -2.9886
    6bbb     H2  153   0.478   0.669   1.578  0.9581  4.9758 -4.6866
    6bbb     C2  154   0.506   0.647   1.845  0.9721  0.2087  0.2518
    6bbb     H3  155   0.602   0.631   1.794 -0.0627 -0.3552 -1.6034
    6bbb     H4  156   0.465   0.550   1.817  0.5123  0.4652  0.0286
    6bbb     C3  157   0.537   0.878   1.766  0.0224 -0.6750 -0.0891
    6bbb     H5  158   0.548   0.908   1.871 -1.0389 -0.8224  0.0726
    6bbb     H6  159   0.490   0.965   1.719  0.5430 -0.8049 -0.8633
    6bbb     C4  160   0.677   0.848   1.709 -0.1851  0.2218 -0.5066
    6bbb     H7  161   0.674   0.801   1.610  0.8811 -1.8892  0.4260
    6bbb     H8  162   0.717   0.770   1.774 -0.6908  0.0955 -0.3438
    6bbb     C5  163   0.354   0.837   1.542  0.2000 -0.0846  0.1607
    6bbb     H9  164   0.439   0.866   1.478  0.3673 -2.5944 -0.8879
    6bbb    H10  165   0.326   0.926   1.599 -0.8973 -0.0805 -0.3614
    6bbb     C6  166   0.521   0.644   1.999 -0.2864 -0.5498  0.4171
    6bbb    H11  167   0.601   0.712   2.030  0.3694 -1.0760 -0.0955
    6bbb    H12  168   0.565   0.547   2.023 -0.4283 -0.5447  0.7014
    6bbb     C7  169   0.761   0.980   1.708  0.7068 -0.3135  1.2254
    6bbb    H13  170   0.703   1.056   1.654  3.4713  0.4330 -1.0080
    6bbb    H14  171   0.849   0.964   1.644  0.2746  0.1245  0.5057
    6bbb     C8  172   0.397   0.660   2.084  0.5273 -0.1147 -0.1956
    6bbb    H15  173   0.417   0.630   2.187 -1.3649  0.2390  0.3285
    6bbb    H16  174   0.382   0.769   2.089 -1.0485 -0.1990 -1.9230
    6bbb     C9  175   0.237   0.795   1.447 -0.1210  0.2186  0.0551
    6bbb    H17  176   0.264   0.704   1.391  1.5298  1.5474 -1.4175
    6bbb    H18  177   0.216   0.869   1.369 -1.1854 -0.6590 -0.5357
    6bbb     O1  178   0.803   1.017   1.840 -0.6010 -0.5182  0.1967
    6bbb    H19  179   0.359   0.802   1.826 -1.9198 -3.8414 -0.3376
    7bbb     N1  180   0.662   2.561   3.066 -0.7601 -0.0357  0.1566
    7bbb     C1  181   0.652   2.412   3.053  0.7400 -0.5502 -0.4193
    7bbb     H1  182   0.752   2.373   3.073  1.7913  0.4965 -3.1773
    7bbb     H2  183   0.626   2.392   2.949 -2.8014 -0.0787  0.2585
    7bbb     C2  184   0.689   2.619   3.200  0.7361 -0.2809  0.9596
    7bbb     H3  185   0.594   2.617   3.254  0.5414 -0.8450  0.6089
    7bbb     H4  186   0.717   2.723   3.184 -1.7119  0.3897  0.5028
    7bbb     C3  187   0.762   2.595   2.962  0.1001 -0.5292  0.1732
    7bbb     H5  188   0.747   2.517   2.888  0.1896  1.6423 -2.2564
    7bbb     H6  189   0.865   2.593   2.997  0.5841  1.3348 -0.9758
    7bbb     C4  190   0.732   2.737   2.896 -0.3034 -0.1815 -0.1077
    7bbb     H7  191   0.703   2.797   2.984  0.2328 -0.8578  0.5414
    7bbb     H8  192   0.642   2.731   2.834  0.8419  0.1667 -1.8827
    7bbb     C5  193   0.539   2.346   3.138  0.6614  0.0498 -0.2540
    7bbb     H9  194   0.443   2.396   3.126  0.8400  0.4651  0.0170
    7bbb    H10  195   0.570   2.348   3.243  1.5781 -1.8238 -0.4421
    7bbb     C6  196   0.793   2.553   3.290  0.4767 -0.2590  0.3602
    7bbb    H11  197   0.890   2.573   3.243 -0.8040  0.8866 -1.9288
    7bbb    H12  198   0.775   2.445   3.302  0.1177 -0.4438 -1.6165
    7bbb     C7  199   0.849   2.799   2.812 -0.3698 -0.7114 -0.2488
    7bbb    H13  200   0.942   2.789   2.871  0.6306 -0.2023 -1.6867
    7bbb    H14  201   0.826   2.907   2.810 -0.6354 -0.5495  3.3685
    7bbb     C8  202   0.823   2.627   3.423 -0.8562  0.9503 -0.4002
    7bbb    H15  203   0.728   2.622   3.478 -0.7792  1.9526 -0.1529
    7bbb    H16  204   0.895   2.577   3.489  0.8667  2.7354 -0.8239
    7bbb     C9  205   0.511   2.197   3.106 -0.1144 -0.8636  0.2816
    7bbb    H17  206   0.604   2.147   3.136  0.9129  0.8044 -0.0238
    7bbb    H18  207   0.495   2.184   2.998 -1.8182 -1.3004  0.5450
    7bbb     O1  208   0.852   2.725   2.686  0.4357 -0.3864  0.0613
    7bbb    H19  209   0.575   2.606   3.034 -0.7475 -0.0042  0.1674
    8bbb     N1  210   0.851   3.142   1.562  0.7886 -0.5679 -0.8150
    8bbb     C1  211   0.921   3.269   1.589 -0.1091  0.0019 -1.1150
    8bbb     H1  212   0.977   3.306   1.503  0.1945 -0.2089 -1.0105
    8bbb     H2  213   0.998   3.255   1.666 -1.9183  0.4470  0.8655
    8bbb     C2  214   0.941   3.052   1.482 -0.7145 -0.3047  0.7024
    8bbb     H3  215   0.913   2.948   1.499  2.9355 -1.4463  0.4132
    8bbb     H4  216   1.042   3.062   1.521 -1.1144 -2.3205  2.4773
    8bbb     C3  217   0.818   3.058   1.685  0.7053  0.6366  0.1204
    8bbb     H5  218   0.904   3.057   1.752 -0.3529 -1.9208  1.6291
    8bbb     H6  219   0.802   2.955   1.655 -2.8140  0.3732  2.2772
    8bbb     C4  220   0.694   3.095   1.762 -0.6713  0.1845  0.7769
    8bbb     H7  221   0.604   3.100   1.699 -1.6169 -0.7418  1.9910
    8bbb     H8  222   0.710   3.194   1.805  0.0477  0.6918 -0.6019
    8bbb     C5  223   0.827   3.393   1.626 -0.5612 -0.0688 -0.1479
    8bbb     H9  224   0.810   3.395   1.735  0.3873 -1.0444  0.0351
    8bbb    H10  225   0.731   3.387   1.574 -1.9580 -0.3634  2.2978
    8bbb     C6  226   0.941   3.072   1.328  1.0702  0.0712  0.4747
    8bbb    H11  227   1.007   2.996   1.283  1.8536  0.8769  0.2445
    8bbb    H12  228   0.979   3.169   1.295  0.0894 -0.3056 -2.0276
    8bbb     C7  229   0.663   2.994   1.877 -0.1595  0.3371 -0.6363
    8bbb    H13  230   0.629   2.896   1.842 -2.4525  1.1945 -0.9837
    8bbb    H14  231   0.587   3.052   1.931 -1.7452 -0.9098 -1.4253
    8bbb     C8  232   0.802   3.040   1.278  0.0745  0.1799 -0.0839
    8bbb    H15  233   0.803   3.025   1.169  1.3871  1.1762 -0.2345
    8bbb    H16  234   0.761   2.944   1.313 -1.3515  1.1894  1.1215
    8bbb     C9  235   0.888   3.531   1.586  0.1964 -0.4570  0.8115
    8bbb    H17  236   0.816   3.611   1.606  0.7329  0.1187  0.4744
    8bbb    H18  237   0.931   3.533   1.485 -0.7845  0.8109  0.3977
    8bbb     O1  238   0.778   2.980   1.968 -0.5427  0.5698  0.2513
    8bbb    H19  239   0.767   3.168   1.507  0.0367  2.5968  1.5307
    9bbb     N1  240   2.251   2.127   0.266  0.3901  0.1419  0.4077
    9bbb     C1  241   2.265   1.987   0.211 -0.0729  0.5670  0.1697
    9bbb     H1  242   2.168   1.939   0.196  0.4521 -1.0147  1.4920
    9bbb     H2  243   2.317   1.921   0.281 -1.1950  0.0694  0.5563
    9bbb     C2  244   2.158   2.207   0.174  0.0961  0.1221  0.1383
    9bbb     H3  245   2.220   2.243   0.091 -2.0390  1.1239 -1.1148
    9bbb     H4  246   2.135   2.295   0.234  0.5388  0.3843 -0.0745
    9bbb     C3  247   2.201   2.135   0.408 -0.4350 -0.0168  0.3647
    9bbb     H5  248   2.122   2.061   0.424  0.3211 -0.9845 -0.2257
    9bbb     H6  249   2.164   2.235   0.429 -1.2947 -0.4653  1.0495
    9bbb     C4  250   2.312   2.123   0.515  0.3788  0.1883  0.1106
    9bbb     H7  251   2.379   2.209   0.509  0.5601  0.0369 -0.0859
    9bbb     H8  252   2.359   2.024   0.500 -1.7245 -0.8865  0.2536
    9bbb     C5  253   2.342   1.981   0.080  0.3639 -0.6829 -0.4260
    9bbb     H9  254   2.448   2.003   0.098  1.0173 -1.8496 -2.4799
    9bbb    H10  255   2.319   2.060   0.008 -0.9165 -1.6259 -1.0928
    9bbb     C6  256   2.026   2.150   0.133  0.0669 -0.7231  0.1096
    9bbb    H11  257   1.979   2.092   0.213 -0.3144 -1.8354 -0.9077
    9bbb    H12  258   2.044   2.074   0.056  0.8137  1.1391 -1.6579
    9bbb     C7  259   2.266   2.119   0.665  0.4567  0.0959 -0.1646
    9bbb    H13  260   2.351   2.146   0.729  0.2294 -0.4112  0.3564
    9bbb    H14  261   2.241   2.015   0.688  0.5802  0.5048  1.9918
    9bbb     C8  262   1.917   2.248   0.081  0.3668 -0.1483  0.4998
    9bbb    H15  263   1.843   2.182   0.035 -0.3568 -1.5699  3.5097
    9bbb    H16  264   1.854   2.294   0.157  0.0943  1.1970 -0.5072
    9bbb     C9  265   2.308   1.844   0.019 -0.0335  0.3150 -0.0984
    9bbb    H17  266   2.294   1.773   0.102 -0.3009 -3.0546 -2.8106
    9bbb    H18  267   2.391   1.804  -0.040  0.8934  0.8863  0.7725
    9bbb     O1  268   2.138   2.197   0.682  0.6926 -0.3440  0.4586
    9bbb    H19  269   2.339   2.179   0.257  0.5587  0.3600  2.6076
   10bbb     N1  270   3.083   2.359   1.254 -0.3440  0.0226  0.7814
   10bbb     C1  271   3.095   2.454   1.138 -0.9720 -0.1891  0.0096
   10bbb     H1  272   3.174   2.525   1.160  1.3188 -2.8260  0.7959
   10bbb     H2  273   3.008   2.519   1.124 -2.3665 -2.0054 -0.2936
   10bbb     C2  274   3.099   2.433   1.390 -0.5506  0.3826 -0.3136
   10bbb     H3  275   3.067   2.357   1.462  1.4114 -0.8462 -0.6563
   10bbb     H4  276   3.036   2.522   1.387  0.5563  1.1773 -0.5039
   10bbb     C3  277   2.943   2.296   1.260 -0.5137  0.1649 -0.4217
   10bbb     H5  278   2.915   2.243   1.169 -1.9255 -1.1041  0.6922
   10bbb     H6  279   2.867   2.374   1.265 -0.2790  0.3389  0.7790
   10bbb     C4  280   2.922   2.193   1.373 -0.2156 -0.2669 -0.2469
   10bbb     H7  281   2.910   2.250   1.466 -0.3485  2.4187 -1.7970
   10bbb     H8  282   3.012   2.131   1.376 -0.1884 -0.6476 -3.8996
   10bbb     C5  283   3.131   2.392   1.004 -0.1523  0.3439  0.1699
   10bbb     H9  284   3.068   2.437   0.926 -0.7215  0.4568  0.6827
   10bbb    H10  285   3.109   2.284   1.004 -2.6194  0.7745 -0.8518
   10bbb     C6  286   3.242   2.472   1.418 -0.5197 -0.7582 -0.2421
   10bbb    H11  287   3.255   2.530   1.510 -1.6004  0.2540 -0.7006
   10bbb    H12  288   3.273   2.543   1.341  0.5604 -0.7124  0.2206
   10bbb     C7  289   2.799   2.105   1.361 -0.0812  0.4311 -0.0585
   10bbb    H13  290   2.788   2.031   1.441 -0.7097 -2.0175 -2.2626
   10bbb    H14  291   2.818   2.050   1.268 -1.8457 -0.0016 -0.1888
   10bbb     C8  292   3.346   2.356   1.432 -0.4174 -0.7556 -0.1067
   10bbb    H15  293   3.354   2.307   1.530  0.5118 -4.4617 -1.8500
   10bbb    H16  294   3.335   2.284   1.350 -2.2527 -0.4396 -0.1785
   10bbb     C9  295   3.281   2.415   0.976  0.3793  0.7872 -0.4196
   10bbb    H17  296   3.311   2.367   0.882  1.3691 -0.1082  0.3219
   10bbb    H18  297   3.345   2.371   1.054  2.2375  1.4125 -1.5061
   10bbb     O1  298   2.685   2.193   1.355 -0.7661 -0.2504  0.8351
   10bbb    H19  299   3.150   2.283   1.234 -0.9702  0.3848 -3.4164
   11bbb     N1  300   2.010   0.371   3.338 -0.0370 -0.1992 -0.2767
   11bbb     C1  301   1.895   0.316   3.431  0.2345 -0.2121  0.1634
   11bbb     H1  302   1.935   0.226   3.477  1.2582  0.5876  0.9093
   11bbb     H2  303   1.812   0.284   3.368 -0.4070 -0.4853  1.1422
   11bbb     C2  304   2.149   0.348   3.393 -0.0478 -0.8312 -0.4828
   11bbb     H3  305   2.183   0.246   3.376  0.5650 -1.0430  1.6718
   11bbb     H4  306   2.151   0.361   3.502  1.9170  4.4324 -0.8192
   11bbb     C3  307   2.010   0.288   3.211 -0.1175 -0.3597  0.2465
   11bbb     H5  308   1.981   0.187   3.239  0.4454 -0.5395  0.2075
   11bbb     H6  309   2.112   0.279   3.171 -0.9503  0.6363 -2.2911
   11bbb     C4  310   1.918   0.323   3.096 -0.4079  0.8229  0.7730
   11bbb     H7  311   1.813   0.322   3.128 -1.0689 -1.3534 -1.1517
   11bbb     H8  312   1.928   0.246   3.018 -0.0112  1.0068  0.6391
   11bbb     C5  313   1.835   0.404   3.540 -0.1843  0.5440 -0.0287
   11bbb     H9  314   1.768   0.338   3.597  0.8462  0.0508  0.6475
   11bbb    H10  315   1.765   0.476   3.497  0.1141  0.9367  0.1331
   11bbb     C6  316   2.257   0.441   3.328 -0.4193 -0.2458  0.0503
   11bbb    H11  317   2.246   0.545   3.362  1.7343 -0.5747  1.9790
   11bbb    H12  318   2.249   0.448   3.219 -1.6495  2.4511  0.2266
   11bbb     C7  319   1.952   0.462   3.040  0.2960  0.3747 -0.0864
   11bbb    H13  320   2.056   0.469   3.006  0.2655  1.5907  0.0011
   11bbb    H14  321   1.950   0.534   3.123  2.1317 -1.0216  1.2481
   11bbb     C8  322   2.403   0.409   3.367  0.0720  0.3812 -0.0755
   11bbb    H15  323   2.424   0.301   3.365  2.3885  0.7805 -0.1119
   11bbb    H16  324   2.469   0.449   3.289  1.1013  1.2108  1.1850
   11bbb     C9  325   1.930   0.459   3.642 -0.5530  0.2649  0.2198
   11bbb    H17  326   2.009   0.385   3.660 -0.6345  0.0829 -0.1522
   11bbb    H18  327   1.879   0.480   3.736  0.1176 -2.4883  1.3003
   11bbb     O1  328   1.867   0.499   2.921 -0.4308  0.1930  0.1675
   11bbb    H19  329   1.994   0.471   3.320 -2.0081 -0.5111 -0.4054
   12bbb     N1  330   1.616  -0.328   2.330  0.0324  0.0121  0.4969
   12bbb     C1  331   1.521  -0.424   2.253 -0.0262 -0.8736  0.1417
   12bbb     H1  332   1.589  -0.504   2.223  1.6867  0.0131  1.5144
   12bbb     H2  333   1.472  -0.365   2.175 -1.5793  0.2793  1.9250
   12bbb     C2  334   1.733  -0.299   2.231  0.4032 -0.5476 -0.0757
   12bbb     H3  335   1.789  -0.215   2.271 -1.4728  0.6227  0.1982
   12bbb     H4  336   1.685  -0.263   2.140  1.3135 -0.2994 -0.4702
   12bbb     C3  337   1.548  -0.200   2.374 -0.8200 -0.4117 -0.2755
   12bbb     H5  338   1.452  -0.234   2.415 -0.2961 -1.3830  0.1757
   12bbb     H6  339   1.530  -0.142   2.283 -3.2122 -1.9873 -0.8970
   12bbb     C4  340   1.621  -0.121   2.485 -0.6576 -0.1540 -0.1754
   12bbb     H7  341   1.729  -0.128   2.468 -1.0056 -0.8978 -2.5587
   12bbb     H8  342   1.596  -0.167   2.581  0.8890  0.9892  0.8065
   12bbb     C5  343   1.411  -0.487   2.337 -0.1364 -0.1244 -0.2743
   12bbb     H9  344   1.348  -0.549   2.273  1.2852 -2.9079  0.8148
   12bbb    H10  345   1.339  -0.412   2.371  0.3400  0.2017  0.0252
   12bbb     C6  346   1.833  -0.419   2.220 -0.0462  0.4606 -0.0613
   12bbb    H11  347   1.797  -0.518   2.189 -0.7830  0.9130 -0.6856
   12bbb    H12  348   1.871  -0.450   2.318 -1.0915 -0.8519 -0.0339
   12bbb     C7  349   1.592   0.026   2.495  0.2249 -0.0464 -0.6048
   12bbb    H13  350   1.614   0.064   2.595 -0.5248  0.4140 -0.6072
   12bbb    H14  351   1.484   0.045   2.493 -0.1939 -1.8190  1.3599
   12bbb     C8  352   1.955  -0.379   2.137 -0.2314 -0.3004  0.3052
   12bbb    H15  353   1.982  -0.275   2.159 -0.6377 -0.2409  0.5334
   12bbb    H16  354   2.041  -0.438   2.172 -0.1105  0.7744  1.9375
   12bbb     C9  355   1.465  -0.580   2.447 -0.4147  0.1004  0.1438
   12bbb    H17  356   1.378  -0.643   2.469 -2.1741  1.5240 -2.1780
   12bbb    H18  357   1.478  -0.519   2.537  1.1029 -1.0514  0.7301
   12bbb     O1  358   1.673   0.102   2.399 -0.1219 -0.1359 -0.3264
   12bbb    H19  359   1.650  -0.379   2.413  0.5105  2.4228  1.8745
   13bbb     N1  360  -0.081   0.393   2.143 -0.0141 -0.2421 -0.5598
   13bbb     C1  361  -0.159   0.461   2.028  0.0155  0.1664 -0.3356
   13bbb     H1  362  -0.221   0.385   1.979 -1.2586  0.0280  1.4096
   13bbb     H2  363  -0.083   0.481   1.952  0.5633  0.7403  0.3487
   13bbb     C2  364  -0.099   0.241   2.129 -0.2018  0.2025 -0.5472
   13bbb     H3  365  -0.017   0.200   2.187  0.0412  0.3135 -0.8132
   13bbb     H4  366  -0.086   0.218   2.023 -1.0698 -0.4748 -0.5160
   13bbb     C3  367   0.067   0.430   2.140  0.0522 -0.7422 -0.3115
   13bbb     H5  368   0.102   0.398   2.239 -2.1756 -0.7110  0.5684
   13bbb     H6  369   0.067   0.538   2.132 -0.5226 -0.7553 -0.5136
   13bbb     C4  370   0.160   0.377   2.024  1.0558 -0.0416 -0.3179
   13bbb     H7  371   0.125   0.392   1.922  1.0226 -3.2778 -0.8820
   13bbb     H8  372   0.185   0.270   2.023  0.8685 -0.0990  0.4704
   13bbb     C5  373  -0.231   0.584   2.073  0.4763 -0.4350  0.3177
   13bbb     H9  374  -0.282   0.629   1.987 -0.0765  1.2378  1.4593
   13bbb    H10  375  -0.152   0.654   2.103  0.7825 -0.5918 -0.0994
   13bbb     C6  376  -0.239   0.186   2.176  0.2267 -0.1164 -0.1983
   13bbb    H11  377  -0.321   0.226   2.114  0.0547 -0.9688 -0.5351
   13bbb    H12  378  -0.254   0.217   2.280 -0.7354  1.2592 -0.7100
   13bbb     C7  379   0.296   0.448   2.031 -0.1306  0.2945  0.0263
   13bbb    H13  380   0.351   0.409   1.944  0.8731  0.2474  0.6744
   13bbb    H14  381   0.348   0.419   2.122  2.1299  2.6361 -0.3923
   13bbb     C8  382  -0.241   0.029   2.162 -0.5525  0.5393  0.1737
   13bbb    H15  383  -0.240   0.009   2.054  1.3662  3.6334 -0.5037
   13bbb    H16  384  -0.155  -0.008   2.218  1.3236 -0.3910 -3.0644
   13bbb     C9  385  -0.344   0.554   2.185  0.0867  0.1613  0.1475
   13bbb    H17  386  -0.412   0.477   2.148  0.1083  0.2000  0.0266
   13bbb    H18  387  -0.412   0.639   2.189 -1.6303 -1.1626  0.3019
   13bbb     O1  388   0.291   0.586   2.017 -0.2910 -0.1984  0.2322
   13bbb    H19  389  -0.132   0.426   2.226 -1.8085  0.0774 -1.7269
   14bbb     N1  390  -0.189   0.807   1.368  0.1483  0.2614  0.3352
   14bbb     C1  391  -0.190   0.718   1.244  0.4886 -0.1085  0.6194
   14bbb     H1  392  -0.232   0.775   1.161  0.9096 -0.9096 -0.1506
   14bbb     H2  393  -0.250   0.628   1.257  1.3232 -0.7165  0.3523
   14bbb     C2  394  -0.307   0.897   1.387  0.3532  0.2220  0.1842
   14bbb     H3  395  -0.299   0.969   1.305 -2.4490  0.3756 -0.0387
   14bbb     H4  396  -0.303   0.945   1.485  3.4709  1.9053 -0.6153
   14bbb     C3  397  -0.157   0.721   1.490 -0.2379 -0.3200 -0.0009
   14bbb     H5  398  -0.092   0.638   1.461  0.5014  1.1478 -2.9454
   14bbb     H6  399  -0.256   0.686   1.518 -1.4989  3.4090  0.7333
   14bbb     C4  400  -0.092   0.799   1.610  0.0053 -0.5957 -0.5296
   14bbb     H7  401  -0.064   0.732   1.693  1.2342  1.8111  1.1208
   14bbb     H8  402  -0.158   0.879   1.646 -0.0270 -0.8258 -0.0612
   14bbb     C5  403  -0.053   0.661   1.199  0.3809 -0.2116 -0.5591
   14bbb     H9  404  -0.072   0.598   1.111 -0.2581  0.2585 -0.7645
   14bbb    H10  405  -0.004   0.607   1.281  0.9664 -0.1105 -0.8356
   14bbb     C6  406  -0.452   0.848   1.371  0.6987 -0.4038 -0.5965
   14bbb    H11  407  -0.469   0.751   1.419  1.2586  0.4630  1.4665
   14bbb    H12  408  -0.468   0.844   1.263 -0.2492  0.0083 -0.4806
   14bbb     C7  409   0.042   0.864   1.571 -0.4291 -0.5348 -0.2628
   14bbb    H13  410   0.089   0.923   1.651 -1.2814  1.1170 -0.9337
   14bbb    H14  411   0.032   0.923   1.479 -0.3812  0.8097  0.5625
   14bbb     C8  412  -0.560   0.942   1.427  0.3246  0.2029 -0.2656
   14bbb    H15  413  -0.582   0.917   1.531 -1.9074  1.9813 -0.2161
   14bbb    H16  414  -0.526   1.046   1.432  1.4517 -0.2112  1.2103
   14bbb     C9  415   0.037   0.779   1.157  0.7087  1.1150  0.2160
   14bbb    H17  416   0.058   0.848   1.240 -1.3187  1.8716  0.1762
   14bbb    H18  417  -0.015   0.843   1.085  3.6242  0.5843 -2.5731
   14bbb     O1  418   0.135   0.759   1.539  0.4398  0.3838  0.4916
   14bbb    H19  419  -0.103   0.863   1.361  0.4641 -0.3924 -3.8700
   15bbb     N1  420   0.999   3.186   3.639  0.6106 -0.4583 -0.4558
   15bbb     C1  421   0.914   3.261   3.745 -0.0724 -0.5813 -0.1844
   15bbb     H1  422   0.809   3.263   3.718 -0.8656  2.3712  2.5313
   15bbb     H2  423   0.952   3.364   3.747  1.6779 -1.2028  0.8942
   15bbb     C2  424   1.148   3.201   3.680  0.4678  0.0194 -0.2030
   15bbb     H3  425   1.208   3.124   3.631 -2.2647 -2.1846 -0.3761
   15bbb     H4  426   1.163   3.189   3.787 -1.9164 -1.1098  0.0810
   15bbb     C3  427   0.952   3.040   3.642  0.1881  0.2491  0.3458
   15bbb     H5  428   0.854   3.045   3.688 -0.0109  0.2625 -0.0789
   15bbb     H6  429   1.019   2.986   3.709  1.9663  1.3239 -0.4781
   15bbb     C4  430   0.937   2.962   3.504 -0.0048 -0.6014  0.0652
   15bbb     H7  431   1.035   2.959   3.454  0.5025 -1.1125  1.0698
   15bbb     H8  432   0.874   3.033   3.449  1.7291 -0.1712 -1.4644
   15bbb     C5  433   0.926   3.215   3.886  0.2316  0.8123  0.1299
   15bbb     H9  434   1.029   3.199   3.920 -0.2075 -1.2089  0.6323
   15bbb    H10  435   0.867   3.123   3.894 -3.0145  2.5511 -1.7670
   15bbb     C6  436   1.202   3.337   3.644  0.4840  0.0235 -0.5120
   15bbb    H11  437   1.146   3.414   3.699  1.2574  1.3288 -1.5046
   15bbb    H12  438   1.175   3.354   3.539  0.5178  1.2095 -0.3433
   15bbb     C7  439   0.871   2.828   3.519 -1.1932  0.2399 -0.6056
   15bbb    H13  440   0.771   2.844   3.561 -1.3123 -3.4142  0.8645
   15bbb    H14  441   0.927   2.765   3.589  1.5340 -0.6293 -3.3109
   15bbb     C8  442   1.352   3.360   3.673 -0.0199  0.8613  0.1633
   15bbb    H15  443   1.370   3.466   3.649 -1.4603  1.0267 -0.2583
   15bbb    H16  444   1.373   3.337   3.778  1.9672 -3.4383 -0.9461
   15bbb     C9  445   0.855   3.312   3.980  0.1185 -0.2204 -0.7521
   15bbb    H17  446   0.847   3.269   4.080 -0.3608  0.1108 -0.6465
   15bbb    H18  447   0.751   3.322   3.946 -0.0437  1.3373  0.1079
   15bbb     O1  448   0.870   2.754   3.393 -0.2360  0.2855 -0.3734
   15bbb    H19  449   0.980   3.229   3.548  0.1647 -1.4517 -0.8377
   16bbb     N1  450   0.057   2.188   3.416  0.2609  0.1038 -0.1562
   16bbb     C1  451   0.092   2.048   3.463 -0.4151  0.2160 -0.3922
   16bbb     H1  452   0.197   2.041   3.492 -0.7182 -1.8945  0.3560
   16bbb     H2  453   0.073   1.996   3.369 -1.3590 -0.6161  0.2384
   16bbb     C2  454   0.063   2.271   3.539 -0.3340 -0.4630 -0.5026
   16bbb     H3  455   0.164   2.266   3.580  0.3587  1.6382 -1.7979
   16bbb     H4  456   0.001   2.219   3.612  1.0759 -0.5309  0.6963
   16bbb     C3  457   0.153   2.241   3.307  0.0557 -0.1761 -0.7014
   16bbb     H5  458   0.254   2.236   3.348 -0.8570 -0.2538  1.7242
   16bbb     H6  459   0.128   2.346   3.288 -0.3107  0.0943  1.1283
   16bbb     C4  460   0.144   2.161   3.175  0.5616 -0.6724  0.1836
   16bbb     H7  461   0.052   2.193   3.125  1.2790  0.3000 -0.5300
   16bbb     H8  462   0.151   2.052   3.187  0.1347 -0.6824  0.3682
   16bbb     C5  463   0.005   1.996   3.584  0.0110  0.3137  0.3574
   16bbb     H9  464  -0.099   2.032   3.584  1.1798  4.1912 -1.2415
   16bbb    H10  465   0.041   2.042   3.677 -0.0016  2.0450 -0.4700
   16bbb     C6  466   0.013   2.412   3.519  0.4160  0.5315 -0.0761
   16bbb    H11  467  -0.074   2.417   3.453 -0.7237  0.0430  1.3163
   16bbb    H12  468   0.094   2.473   3.479  0.8362  0.6903  0.9818
   16bbb     C7  469   0.269   2.196   3.087 -0.4637 -0.6404  0.6572
   16bbb    H13  470   0.279   2.300   3.054 -3.1036 -0.8792 -1.2574
   16bbb    H14  471   0.260   2.136   2.995 -0.4099  0.6249 -0.1899
   16bbb     C8  472  -0.032   2.462   3.658  0.6458 -0.5701  0.5864
   16bbb    H15  473  -0.106   2.398   3.706  0.1022 -0.7946 -0.5129
   16bbb    H16  474   0.055   2.470   3.724  1.6199  0.3680 -0.7512
   16bbb     C9  475   0.019   1.840   3.598 -0.2447  0.0628  0.5184
   16bbb    H17  476   0.119   1.803   3.574  0.3263  1.4648  0.6371
   16bbb    H18  477  -0.050   1.787   3.531  1.1883 -1.2185  0.0040
   16bbb     O1  478   0.385   2.156   3.163  0.1723  0.1765  0.6395
   16bbb    H19  479  -0.038   2.187   3.375  0.6749 -0.5862 -1.1448
   17bbb     N1  480   0.273   3.396   1.301  0.2925 -0.4855  0.0451
   17bbb     C1  481   0.270   3.378   1.451 -1.0187 -0.2989  0.4549
   17bbb     H1  482   0.315   3.466   1.497  1.3903 -0.7324 -0.9150
   17bbb     H2  483   0.336   3.292   1.466 -0.6541 -0.3144 -1.0517
   17bbb     C2  484   0.330   3.533   1.274  0.4311 -0.4874  0.1672
   17bbb     H3  485   0.431   3.531   1.316  0.0876 -1.1972  0.9787
   17bbb     H4  486   0.267   3.597   1.336  0.5662 -0.8703  0.7080
   17bbb     C3  487   0.359   3.285   1.243  0.2631  0.0560 -0.4134
   17bbb     H5  488   0.358   3.287   1.134  0.2727  0.2834 -0.4097
   17bbb     H6  489   0.310   3.194   1.277  2.0458  0.0543  2.5072
   17bbb     C4  490   0.511   3.286   1.293  0.5730 -0.4290 -0.2706
   17bbb     H7  491   0.525   3.307   1.400 -1.6586  0.2849 -0.0653
   17bbb     H8  492   0.551   3.366   1.230  1.7328 -0.7008  0.0972
   17bbb     C5  493   0.122   3.351   1.495 -0.0407  0.1014 -0.5422
   17bbb     H9  494   0.125   3.332   1.603  1.7372  0.5044 -0.4942
   17bbb    H10  495   0.087   3.257   1.450 -0.3516  0.5837 -1.3308
   17bbb     C6  496   0.327   3.569   1.122  0.3461  0.5789  0.2833
   17bbb    H11  497   0.226   3.588   1.081  0.8619 -0.2499 -1.4675
   17bbb    H12  498   0.365   3.482   1.067  1.0194  0.5709  0.7568
   17bbb     C7  499   0.575   3.147   1.253 -0.4823 -0.3429 -0.2202
   17bbb    H13  500   0.572   3.125   1.146  1.4151 -1.1539 -0.1490
   17bbb    H14  501   0.518   3.067   1.302  1.5918 -0.2145  2.6785
   17bbb     C8  502   0.430   3.677   1.086 -0.0747 -0.3486  0.2361
   17bbb    H15  503   0.416   3.765   1.149 -2.2528 -0.0324 -0.6163
   17bbb    H16  504   0.538   3.663   1.103  0.2443  0.5160 -0.9305
   17bbb     C9  505   0.015   3.457   1.464 -0.4276  0.3037 -0.9989
   17bbb    H17  506   0.028   3.550   1.521 -1.8383 -0.4963  0.7277
   17bbb    H18  507  -0.076   3.421   1.514  1.6574 -2.0822  1.3709
   17bbb     O1  508   0.712   3.145   1.305  0.0287 -0.1579  0.1796
   17bbb    H19  509   0.176   3.402   1.267  0.0696  1.4419  0.8480
   18bbb     N1  510   1.359   3.864   1.852  0.0003 -0.2294 -0.0404
   18bbb     C1  511   1.455   3.832   1.735 -0.6908 -0.3992 -0.2769
   18bbb     H1  512   1.459   3.922   1.674  1.0774  0.2041  0.6642
   18bbb     H2  513   1.421   3.747   1.675  2.3719  0.3037 -3.2980
   18bbb     C2  514   1.367   4.013   1.897  0.4189  0.2954  0.1402
   18bbb     H3  515   1.345   4.064   1.803  0.1677  1.0400  0.5923
   18bbb     H4  516   1.473   4.027   1.918  0.7961 -0.1923 -1.3005
   18bbb     C3  517   1.224   3.845   1.793 -0.3678 -0.2378  0.5978
   18bbb     H5  518   1.240   3.887   1.693 -0.5060  0.6801  0.9505
   18bbb     H6  519   1.152   3.917   1.831 -0.8351 -0.3437 -0.0648
   18bbb     C4  520   1.157   3.704   1.793 -0.1882  0.0428 -0.8011
   18bbb     H7  521   1.113   3.677   1.890 -1.4509 -1.7566 -1.8154
   18bbb     H8  522   1.232   3.626   1.775  0.3425  0.6383 -1.2084
   18bbb     C5  523   1.600   3.796   1.778  0.7681 -0.6500 -0.4130
   18bbb     H9  524   1.590   3.694   1.817 -2.5986 -0.4195 -0.3394
   18bbb    H10  525   1.629   3.866   1.857  0.1464 -1.0943  0.2232
   18bbb     C6  526   1.264   4.063   2.004  0.0870  0.5588  0.0423
   18bbb    H11  527   1.281   4.023   2.104  0.8848  2.1839  0.6029
   18bbb    H12  528   1.161   4.037   1.976 -0.7298  1.4202  2.0807
   18bbb     C7  529   1.044   3.698   1.682 -0.8508 -0.0672 -0.4557
   18bbb    H13  530   1.083   3.729   1.584  0.6546  0.7516  0.3588
   18bbb    H14  531   0.965   3.767   1.714 -0.3186 -0.4035  1.7460
   18bbb     C8  532   1.268   4.214   2.011 -0.0905  0.1025 -0.0544
   18bbb    H15  533   1.369   4.257   2.020 -0.7573  1.4431  1.6187
   18bbb    H16  534   1.231   4.247   1.913 -0.8110  3.8454  1.3264
   18bbb     C9  535   1.696   3.796   1.653 -0.5054 -0.9313  0.6495
   18bbb    H17  536   1.648   3.749   1.566 -0.3633  1.1486 -0.6399
   18bbb    H18  537   1.783   3.732   1.667 -0.0419 -0.8141 -1.3210
   18bbb     O1  538   0.994   3.563   1.683  0.2583 -0.1694  0.2232
   18bbb    H19  539   1.359   3.797   1.931 -0.2843 -0.5348 -0.2974
   19bbb     N1  540   1.971   2.649  -0.337 -0.5489  0.5332  0.4220
   19bbb     C1  541   1.829   2.705  -0.350 -0.1757  0.7220  0.9609
   19bbb     H1  542   1.798   2.730  -0.248  0.7075 -1.5076  1.8351
   19bbb     H2  543   1.771   2.618  -0.380 -0.2447  0.2822  2.2783
   19bbb     C2  544   2.055   2.744  -0.258 -1.1267 -0.7729 -0.1822
   19bbb     H3  545   2.027   2.746  -0.152  2.1757 -0.9788  0.8111
   19bbb     H4  546   2.027   2.842  -0.298  3.7884  2.1060  2.3972
   19bbb     C3  547   1.945   2.517  -0.258  0.0344  0.0389  0.4359
   19bbb     H5  548   1.874   2.456  -0.315  1.2732  1.1477 -2.4126
   19bbb     H6  549   1.897   2.555  -0.167 -1.7251  0.1747 -0.5104
   19bbb     C4  550   2.066   2.427  -0.209 -0.2913 -0.2060  0.7887
   19bbb     H7  551   2.143   2.487  -0.160 -0.6184  2.1334 -1.3158
   19bbb     H8  552   2.118   2.402  -0.303  1.7511 -1.1081  2.0960
   19bbb     C5  553   1.811   2.825  -0.444 -0.2928 -0.4568 -0.3769
   19bbb     H9  554   1.898   2.839  -0.509  0.4896  0.5244  0.8175
   19bbb    H10  555   1.801   2.913  -0.378  0.1990 -0.8791  0.2695
   19bbb     C6  556   2.209   2.741  -0.276 -0.0392  0.8408 -0.9641
   19bbb    H11  557   2.240   2.646  -0.230 -1.3766  0.9419  0.2485
   19bbb    H12  558   2.247   2.822  -0.213  0.2996  0.1965 -0.3304
   19bbb     C7  559   2.040   2.303  -0.122  0.6218  0.0849  0.3351
   19bbb    H13  560   2.134   2.256  -0.094  0.9440  0.3105 -0.3490
   19bbb    H14  561   1.969   2.230  -0.163  1.3419 -0.7747  0.5903
   19bbb     C8  562   2.264   2.764  -0.419 -0.1243  0.2993 -0.2047
   19bbb    H15  563   2.239   2.863  -0.460  0.0377  0.9269  1.1388
   19bbb    H16  564   2.373   2.761  -0.428 -0.1635 -1.8026 -0.2808
   19bbb     C9  565   1.694   2.808  -0.540  0.4870  0.6726 -0.0825
   19bbb    H17  566   1.601   2.786  -0.486 -1.0229 -0.4470 -2.9436
   19bbb    H18  567   1.703   2.709  -0.587 -2.4956 -0.5872  1.6932
   19bbb     O1  568   1.971   2.346  -0.005  0.0626 -0.4395 -0.0706
   19bbb    H19  569   2.010   2.629  -0.430 -0.6143 -0.4708  0.5939
   20bbb     N1  570   1.855   1.566  -0.320  0.1057  0.0987  0.6898
   20bbb     C1  571   1.814   1.419  -0.315  0.1768 -0.1124  0.4039
   20bbb     H1  572   1.728   1.402  -0.380  0.5827  1.3063 -0.5514
   20bbb     H2  573   1.784   1.409  -0.211  1.9995  1.0062  1.0838
   20bbb     C2  574   1.736   1.661  -0.302  0.5769  0.3276 -1.0096
   20bbb     H3  575   1.774   1.757  -0.336 -0.1680  1.9435  2.3167
   20bbb     H4  576   1.720   1.667  -0.194  0.7158 -1.6045 -0.8486
   20bbb     C3  577   1.956   1.587  -0.212  0.2645  0.0583 -0.2665
   20bbb     H5  578   2.047   1.535  -0.243 -0.9023 -1.9083 -0.5335
   20bbb     H6  579   1.915   1.554  -0.117 -1.1147  0.6942 -0.6102
   20bbb     C4  580   1.998   1.731  -0.173 -0.0211 -0.3986  0.4898
   20bbb     H7  581   1.919   1.799  -0.137  0.8711 -0.7086  3.2560
   20bbb     H8  582   2.026   1.772  -0.271  1.7525 -0.6700  0.8505
   20bbb     C5  583   1.929   1.319  -0.347 -0.4910 -0.0589 -0.3702
   20bbb     H9  584   2.021   1.336  -0.291 -0.0682 -1.0350 -0.7530
   20bbb    H10  585   1.957   1.322  -0.453  0.5554  0.6246 -0.0844
   20bbb     C6  586   1.602   1.628  -0.372 -0.5313 -0.1405 -0.2234
   20bbb    H11  587   1.556   1.533  -0.342 -0.4028  0.0990  0.7790
   20bbb    H12  588   1.621   1.614  -0.479 -0.0051 -0.2362 -0.1213
   20bbb     C7  589   2.125   1.725  -0.082 -0.1612  0.2283 -0.5813
   20bbb    H13  590   2.191   1.661  -0.141 -3.0648 -0.9006 -2.8909
   20bbb    H14  591   2.091   1.677   0.011  1.8440 -0.6186 -0.2465
   20bbb     C8  592   1.502   1.740  -0.349  0.1723 -0.8734  0.3203
   20bbb    H15  593   1.475   1.739  -0.242  0.2314  1.5172  0.4198
   20bbb    H16  594   1.546   1.841  -0.359 -0.8410 -0.2887  1.5077
   20bbb     C9  595   1.891   1.170  -0.318  0.2866  0.0575 -1.2724
   20bbb    H17  596   1.793   1.146  -0.360 -0.0064 -1.1040  0.0054
   20bbb    H18  597   1.881   1.149  -0.211 -3.1277  2.1621 -1.0462
   20bbb     O1  598   2.183   1.852  -0.052  0.5182  0.3967  0.6070
   20bbb    H19  599   1.904   1.584  -0.409 -2.1878 -0.0827 -0.6823
   21bbb     N1  600   3.879   2.567   1.520  0.0740  0.6045  0.2385
   21bbb     C1  601   3.871   2.663   1.406 -0.3215 -0.9764  0.6206
   21bbb     H1  602   3.777   2.715   1.422  1.0173  1.6905  0.5196
   21bbb     H2  603   3.874   2.608   1.312  1.4971  1.0531 -0.6352
   21bbb     C2  604   3.881   2.641   1.659  0.3117 -0.0691 -0.0524
   21bbb     H3  605   3.787   2.694   1.671  1.1885  1.1742  1.7541
   21bbb     H4  606   3.961   2.715   1.662  0.3139 -0.0546 -0.3961
   21bbb     C3  607   3.746   2.481   1.514 -0.3391 -0.3338  0.1566
   21bbb     H5  608   3.662   2.549   1.499 -0.8572 -0.9868  0.1199
   21bbb     H6  609   3.736   2.428   1.608  0.6131  3.3588  2.5549
   21bbb     C4  610   3.731   2.386   1.399 -0.4345 -0.7333 -0.3772
   21bbb     H7  611   3.810   2.310   1.391  0.9459  0.5229  0.8192
   21bbb     H8  612   3.733   2.442   1.305  1.1481 -0.3620 -0.1583
   21bbb     C5  613   3.993   2.764   1.386 -0.2220 -0.0106 -0.4077
   21bbb     H9  614   4.001   2.833   1.470  0.5101  1.1136 -1.3710
   21bbb    H10  615   3.948   2.835   1.315 -1.8712 -1.2037 -0.6244
   21bbb     C6  616   3.904   2.549   1.781 -0.0988 -0.4031 -0.0169
   21bbb    H11  617   3.980   2.598   1.843 -1.4461  0.7773  0.7499
   21bbb    H12  618   3.949   2.452   1.756 -2.0664 -1.5051  0.4895
   21bbb     C7  619   3.586   2.325   1.414  0.4568 -0.4216 -1.1280
   21bbb    H13  620   3.581   2.268   1.508  0.3641  0.8688 -0.3293
   21bbb    H14  621   3.566   2.257   1.330 -1.4464  1.4243 -2.2759
   21bbb     C8  622   3.781   2.529   1.874  0.6036  0.0459 -0.6489
   21bbb    H15  623   3.785   2.617   1.939  0.5233  0.8126 -1.6586
   21bbb    H16  624   3.682   2.527   1.826  0.5254 -0.6209 -0.4775
   21bbb     C9  625   4.125   2.698   1.338 -0.3567  0.5950 -0.1435
   21bbb    H17  626   4.103   2.651   1.242 -1.0512  0.5744  0.0187
   21bbb    H18  627   4.150   2.630   1.421 -0.9821 -0.4629 -0.7992
   21bbb     O1  628   3.478   2.423   1.430  0.7915  0.3060  0.3536
   21bbb    H19  629   3.959   2.503   1.515  0.7589  1.4417  0.2173
   22bbb     N1  630   3.439   2.951   1.103 -0.1469  0.1489  0.3012
   22bbb     C1  631   3.383   3.000   1.234  0.4901 -0.7319 -0.4504
   22bbb     H1  632   3.281   2.963   1.243 -0.5667  2.0668  0.1221
   22bbb     H2  633   3.374   3.108   1.223 -2.7839 -0.6311  1.7382
   22bbb     C2  634   3.588   2.996   1.081  0.2674 -0.0579 -0.4647
   22bbb     H3  635   3.651   2.918   1.123 -0.1711 -0.1256  0.0955
   22bbb     H4  636   3.605   3.084   1.143  1.7435  0.3191 -1.3651
   22bbb     C3  637   3.421   2.794   1.099 -0.0339 -0.5255  0.2781
   22bbb     H5  638   3.314   2.776   1.098 -0.0387 -0.5085 -0.4484
   22bbb     H6  639   3.464   2.752   1.190  0.7139 -2.3787 -0.8535
   22bbb     C4  640   3.473   2.724   0.967 -0.3953  0.2117 -0.0207
   22bbb     H7  641   3.582   2.724   0.974 -0.2854 -1.0416 -1.2452
   22bbb     H8  642   3.444   2.776   0.875 -0.6053  0.0736 -0.0343
   22bbb     C5  643   3.448   2.971   1.366  0.1362 -0.3853 -0.1896
   22bbb     H9  644   3.548   3.016   1.366  0.1665 -0.3279  2.2279
   22bbb    H10  645   3.451   2.862   1.379 -0.1584 -0.1194  3.1111
   22bbb     C6  646   3.626   3.034   0.945  0.0988 -0.7536  0.8559
   22bbb    H11  647   3.541   3.080   0.893  0.7134  0.2687  0.7209
   22bbb    H12  648   3.667   2.950   0.889  0.0770 -0.8545  0.9888
   22bbb     C7  649   3.445   2.576   0.948 -0.1815  0.8076 -0.3473
   22bbb    H13  650   3.515   2.518   1.010  0.5972  2.9329  0.8943
   22bbb    H14  651   3.464   2.557   0.842 -0.1878  0.7107 -0.3308
   22bbb     C8  652   3.733   3.149   0.952  0.1995 -0.4014 -0.0211
   22bbb    H15  653   3.677   3.234   0.992  0.6717  0.0569 -0.3314
   22bbb    H16  654   3.811   3.136   1.028 -0.8545  1.6324  1.4873
   22bbb     C9  655   3.371   3.039   1.489 -0.5016 -0.9917 -0.3277
   22bbb    H17  656   3.420   3.009   1.582 -0.8046 -0.5453 -0.0213
   22bbb    H18  657   3.263   3.023   1.494 -0.3703 -1.6290  0.8126
   22bbb     O1  658   3.303   2.555   0.969  0.3999  0.6087  0.1622
   22bbb    H19  659   3.385   3.002   1.032  0.7365  2.4293  1.1809
   23bbb     N1  660   2.814   0.646   3.620 -0.0147  0.5364 -0.2199
   23bbb     C1  661   2.743   0.784   3.616 -0.1061 -0.1020  0.1704
   23bbb     H1  662   2.726   0.822   3.717 -0.4776 -2.5890  1.1275
   23bbb     H2  663   2.639   0.769   3.584 -0.1297 -1.8168  0.9223
   23bbb     C2  664   2.954   0.656   3.679 -0.3682  0.0230 -0.3801
   23bbb     H3  665   2.938   0.663   3.787  0.1318  0.3752 -0.3264
   23bbb     H4  666   2.991   0.751   3.640 -0.0042  0.0177 -0.0553
   23bbb     C3  667   2.735   0.542   3.711 -0.0276 -0.2612  0.1329
   23bbb     H5  668   2.726   0.595   3.806 -0.1953  1.3194 -0.7447
   23bbb     H6  669   2.796   0.451   3.718 -1.8984 -1.6707 -0.9737
   23bbb     C4  670   2.588   0.513   3.676 -0.9251 -0.1357  0.0988
   23bbb     H7  671   2.531   0.606   3.676 -3.0173 -1.3221  1.6367
   23bbb     H8  672   2.548   0.454   3.759  0.6829 -1.3434  0.0612
   23bbb     C5  673   2.804   0.895   3.526  0.5761 -0.2747  0.4603
   23bbb     H9  674   2.907   0.919   3.556  1.6491 -1.6770 -1.8574
   23bbb    H10  675   2.753   0.991   3.542 -0.1410 -0.0123 -2.7822
   23bbb     C6  676   3.045   0.529   3.640  0.0062  0.0266 -1.1257
   23bbb    H11  677   3.072   0.524   3.534 -0.7316  0.0230 -1.3198
   23bbb    H12  678   2.988   0.437   3.659  1.1189 -0.5289 -0.4124
   23bbb     C7  679   2.562   0.439   3.541 -0.6960 -0.3675 -0.2230
   23bbb    H13  680   2.575   0.330   3.542  1.6382 -0.1680 -1.2877
   23bbb    H14  681   2.629   0.479   3.464 -1.0654 -1.1607 -0.9723
   23bbb     C8  682   3.169   0.524   3.735 -0.5594  0.0864  0.6641
   23bbb    H15  683   3.240   0.598   3.696 -0.7997  0.1674  0.3700
   23bbb    H16  684   3.149   0.553   3.839  1.4935 -1.2630  1.5005
   23bbb     C9  685   2.804   0.875   3.371 -0.1715  0.0108 -0.5701
   23bbb    H17  686   2.787   0.978   3.336 -1.7649 -0.1893 -0.4356
   23bbb    H18  687   2.714   0.820   3.342  1.7168 -3.4976 -0.2671
   23bbb     O1  688   2.426   0.464   3.497 -0.1636 -0.7532  0.4378
   23bbb    H19  689   2.808   0.610   3.524 -2.7710  0.9537 -0.2714
   24bbb     N1  690   1.802   0.909   3.778 -0.0847  0.8226 -0.4635
   24bbb     C1  691   1.699   0.791   3.793  0.7395 -0.0885 -0.4075
   24bbb     H1  692   1.616   0.820   3.858  0.4703 -2.7545  0.5348
   24bbb     H2  693   1.751   0.708   3.840  0.6767  0.3224  0.3955
   24bbb     C2  694   1.830   0.968   3.918  0.2649  0.5467  0.4461
   24bbb     H3  695   1.916   1.033   3.903  1.0125 -0.5181  0.0339
   24bbb     H4  696   1.869   0.887   3.980 -2.7238 -3.5614 -2.4358
   24bbb     C3  697   1.920   0.857   3.698  0.0946 -0.6732  0.2063
   24bbb     H5  698   1.982   0.946   3.683 -0.8377  0.0291  0.3898
   24bbb     H6  699   1.883   0.826   3.600  0.3156  1.5645 -0.6609
   24bbb     C4  700   2.008   0.742   3.760  0.0439 -0.0458  0.1446
   24bbb     H7  701   1.949   0.677   3.826 -1.8873  1.8490  0.3853
   24bbb     H8  702   2.083   0.800   3.814 -0.3289 -0.2049  0.8484
   24bbb     C5  703   1.624   0.742   3.664 -0.4889  0.1721 -0.1323
   24bbb     H9  704   1.698   0.703   3.593 -0.3479  1.6755 -0.8475
   24bbb    H10  705   1.581   0.832   3.618 -2.8987 -0.6436  0.3740
   24bbb     C6  706   1.708   1.043   3.990 -0.8415 -0.3092  0.5891
   24bbb    H11  707   1.616   0.984   3.994  0.0942 -2.2148 -2.4487
   24bbb    H12  708   1.678   1.138   3.945  2.9050  0.6894 -0.1745
   24bbb     C7  709   2.086   0.659   3.654 -0.2244  0.0490 -0.1997
   24bbb    H13  710   2.150   0.588   3.708 -1.3691 -0.5268  0.4640
   24bbb    H14  711   2.137   0.719   3.578 -2.1500  0.9300 -0.8648
   24bbb     C8  712   1.754   1.100   4.123 -0.3135  0.6702  0.3467
   24bbb    H15  713   1.841   1.165   4.107  0.3874 -0.6151 -1.4024
   24bbb    H16  714   1.671   1.150   4.174 -3.1834 -1.8989 -1.4803
   24bbb     C9  715   1.499   0.658   3.686 -0.0278  0.3427  0.0548
   24bbb    H17  716   1.521   0.560   3.731 -1.2461 -0.1440 -0.3680
   24bbb    H18  717   1.451   0.637   3.590 -1.8306  0.9169  0.7795
   24bbb     O1  718   1.987   0.578   3.573 -0.3512 -0.0151 -0.0498
   24bbb    H19  719   1.746   0.973   3.720  0.1330  1.2172 -0.2353
   25bbb     N1  720   1.898  -0.169   1.613  0.2954  0.5783 -0.6250
   25bbb     C1  721   1.749  -0.147   1.601 -0.6493 -0.1418  0.3897
   25bbb     H1  722   1.737  -0.082   1.514 -3.2151 -0.8262  0.1571
   25bbb     H2  723   1.714  -0.102   1.694 -0.9848  0.0044  0.1931
   25bbb     C2  724   1.974  -0.047   1.595 -0.1068  0.0146  0.6211
   25bbb     H3  725   1.938   0.026   1.668  0.1079  1.7473 -0.9303
   25bbb     H4  726   1.947  -0.009   1.496  2.9053  1.1322  0.1349
   25bbb     C3  727   1.926  -0.221   1.753  0.9753  0.0861  0.7253
   25bbb     H5  728   1.827  -0.242   1.793  1.3271 -1.0497  1.0499
   25bbb     H6  729   1.964  -0.141   1.816 -0.3348 -0.2068  1.9441
   25bbb     C4  730   2.012  -0.349   1.768 -0.1695  0.8347  0.0705
   25bbb     H7  731   2.104  -0.333   1.710  1.3617 -0.8368  1.9064
   25bbb     H8  732   1.960  -0.431   1.718  1.2218 -0.2656  0.3766
   25bbb     C5  733   1.669  -0.270   1.573 -0.4532  0.1095 -0.3050
   25bbb     H9  734   1.563  -0.242   1.570 -0.6038  0.6216  3.8000
   25bbb    H10  735   1.677  -0.341   1.656 -1.1152  1.0311  0.5731
   25bbb     C6  736   2.130  -0.064   1.606  0.4298  0.5296  0.4049
   25bbb    H11  737   2.145  -0.161   1.559 -1.1123 -1.0963  3.0368
   25bbb    H12  738   2.168  -0.082   1.707 -1.9758 -0.1066  1.2409
   25bbb     C7  739   2.048  -0.376   1.914 -0.4584  0.1829 -0.7181
   25bbb    H13  740   2.103  -0.289   1.951  1.5008 -0.2868 -2.3225
   25bbb    H14  741   2.109  -0.467   1.919 -1.7008 -0.6728 -0.6650
   25bbb     C8  742   2.202   0.049   1.531  0.1880 -0.0632  0.8237
   25bbb    H15  743   2.208   0.141   1.592  4.1481  0.1353  0.4120
   25bbb    H16  744   2.304   0.013   1.510  0.2194  0.4306  0.0935
   25bbb     C9  745   1.703  -0.340   1.439  0.2605  0.3713  0.0233
   25bbb    H17  746   1.675  -0.271   1.359  2.1033  2.7777  1.3066
   25bbb    H18  747   1.634  -0.424   1.426  2.3751 -1.3752 -0.6928
   25bbb     O1  748   1.932  -0.396   1.994  0.5078 -0.5767  0.2857
   25bbb    H19  749   1.924  -0.241   1.544 -1.8237 -0.4859 -0.4130
   26bbb     N1  750   1.802  -0.787   2.532 -0.0906 -0.2084  0.4570
   26bbb     C1  751   1.830  -0.834   2.675  0.6418  0.2829  0.9310
   26bbb     H1  752   1.921  -0.893   2.681  0.2733 -0.5313 -0.8282
   26bbb     H2  753   1.744  -0.895   2.704 -0.0747  1.9337  2.4659
   26bbb     C2  754   1.925  -0.714   2.486 -0.2612  0.2073 -0.0368
   26bbb     H3  755   1.945  -0.630   2.554  2.2023  0.0795 -0.4897
   26bbb     H4  756   1.888  -0.663   2.397  0.6165  3.9620  1.5268
   26bbb     C3  757   1.768  -0.899   2.435 -0.0291 -0.3400  0.0606
   26bbb     H5  758   1.701  -0.970   2.484  0.0981 -0.0778  0.6236
   26bbb     H6  759   1.857  -0.958   2.412  0.7700  0.2767  1.4175
   26bbb     C4  760   1.683  -0.853   2.306 -0.2793 -0.2373 -0.3565
   26bbb     H7  761   1.652  -0.941   2.249 -3.6214  0.2785  0.4805
   26bbb     H8  762   1.749  -0.784   2.252 -1.1726  0.2128 -0.8920
   26bbb     C5  763   1.838  -0.717   2.775  0.0408  0.2962 -0.9020
   26bbb     H9  764   1.748  -0.657   2.755 -0.3144 -0.0669 -0.4191
   26bbb    H10  765   1.925  -0.653   2.753  0.9910 -0.1154  1.4101
   26bbb     C6  766   2.057  -0.797   2.461 -0.0531  0.7821 -0.4655
   26bbb    H11  767   2.064  -0.846   2.363  4.1566  0.4914 -0.1942
   26bbb    H12  768   2.065  -0.880   2.533 -0.1347 -0.2548 -1.6221
   26bbb     C7  769   1.550  -0.784   2.339 -0.0915 -0.2158 -0.2941
   26bbb    H13  770   1.475  -0.848   2.387  0.4974 -0.4554  0.3192
   26bbb    H14  771   1.503  -0.768   2.241 -1.9846 -0.7962  0.4783
   26bbb     C8  772   2.177  -0.699   2.480  0.2661  0.3075  0.0372
   26bbb    H15  773   2.273  -0.752   2.489 -0.4081 -0.7083  1.6598
   26bbb    H16  774   2.185  -0.631   2.395 -1.5560 -2.0004 -2.1328
   26bbb     C9  775   1.843  -0.772   2.923  0.1955  0.5873 -0.4623
   26bbb    H17  776   1.832  -0.693   2.998  1.8381  0.5145 -0.0947
   26bbb    H18  777   1.936  -0.825   2.947 -0.3415 -0.0831  0.1833
   26bbb     O1  778   1.575  -0.658   2.406  0.2629  0.1778  0.5074
   26bbb    H19  779   1.722  -0.723   2.538 -0.2977 -0.5043  0.9861
   27bbb     N1  780  -0.574  -0.266   2.015 -0.1774  0.7930  0.0414
   27bbb     C1  781  -0.449  -0.350   2.000 -0.2848  0.8830 -0.4436
   27bbb     H1  782  -0.370  -0.280   1.974 -0.9257  1.6653 -0.3086
   27bbb     H2  783  -0.466  -0.417   1.915  1.4850 -1.3143  0.8012
   27bbb     C2  784  -0.696  -0.333   1.957  0.1551  0.4112  0.5695
   27bbb     H3  785  -0.712  -0.418   2.024  2.7587 -2.3574 -1.9980
   27bbb     H4  786  -0.679  -0.380   1.860 -0.4482  1.9192 -0.2962
   27bbb     C3  787  -0.601  -0.213   2.160 -0.2615 -0.1855  0.9418
   27bbb     H5  788  -0.518  -0.241   2.224  2.5307  5.5872  0.4435
   27bbb     H6  789  -0.694  -0.253   2.200 -1.6125  2.2831  0.4818
   27bbb     C4  790  -0.618  -0.065   2.164  0.7826 -0.2668 -0.5796
   27bbb     H7  791  -0.652  -0.025   2.260 -1.1037 -0.2424 -1.2156
   27bbb     H8  792  -0.700  -0.034   2.099  0.6217  3.6694  1.2198
   27bbb     C5  793  -0.390  -0.433   2.119 -0.4902 -0.1360 -0.1579
   27bbb     H9  794  -0.462  -0.509   2.152  1.7031 -2.3929 -0.2355
   27bbb    H10  795  -0.376  -0.373   2.210  1.1225  1.4842 -1.3919
   27bbb     C6  796  -0.812  -0.238   1.945  0.1525  0.0845  0.5756
   27bbb    H11  797  -0.782  -0.140   1.905 -0.4456 -1.0605 -3.1010
   27bbb    H12  798  -0.852  -0.214   2.044 -0.4335  0.2279  0.3133
   27bbb     C7  799  -0.482   0.003   2.127 -0.1972 -0.8796  0.4348
   27bbb    H13  800  -0.509   0.109   2.121 -0.8176 -1.0850 -0.5108
   27bbb    H14  801  -0.452  -0.028   2.026 -0.4594  0.1364  0.0324
   27bbb     C8  802  -0.924  -0.291   1.852 -0.7239 -0.5380 -0.0982
   27bbb    H15  803  -0.978  -0.373   1.902 -0.5416  0.7209  2.3254
   27bbb    H16  804  -1.002  -0.217   1.828  1.1105  0.4121 -3.7705
   27bbb     C9  805  -0.255  -0.503   2.079  0.7252  0.6054  0.5973
   27bbb    H17  806  -0.187  -0.498   2.164 -0.4547  1.2726  1.5274
   27bbb    H18  807  -0.205  -0.441   2.003 -0.7490 -0.6301 -1.5093
   27bbb     O1  808  -0.367  -0.026   2.215  0.5774 -0.3540  0.0227
   27bbb    H19  809  -0.563  -0.181   1.958 -0.8530  0.5723 -0.4225
   28bbb     N1  810  -0.182   0.474   2.733  0.4515 -0.2006  0.1135
   28bbb     C1  811  -0.065   0.399   2.692  0.9912 -0.2535  0.1544
   28bbb     H1  812   0.001   0.479   2.656  0.8300  0.4100  1.2739
   28bbb     H2  813  -0.068   0.330   2.608 -0.2117  0.2304 -0.2215
   28bbb     C2  814  -0.150   0.589   2.828  0.3034 -0.5871 -0.4377
   28bbb     H3  815  -0.101   0.679   2.790 -1.1246 -0.5625 -2.3579
   28bbb     H4  816  -0.078   0.543   2.897  1.5030 -0.3538 -1.5109
   28bbb     C3  817  -0.249   0.539   2.611 -0.1434 -0.1565 -0.1478
   28bbb     H5  818  -0.170   0.576   2.545 -0.2367  0.8051  0.2699
   28bbb     H6  819  -0.306   0.625   2.644 -0.4497 -0.8421  1.1817
   28bbb     C4  820  -0.348   0.445   2.536 -0.7255  0.1691 -0.6406
   28bbb     H7  821  -0.438   0.427   2.596 -0.1190  2.1141  0.9969
   28bbb     H8  822  -0.294   0.352   2.517 -0.3441  0.5660 -1.5762
   28bbb     C5  823   0.015   0.325   2.801  0.1109 -0.2419 -0.5823
   28bbb     H9  824  -0.054   0.291   2.880 -0.7650  0.4741 -1.0176
   28bbb    H10  825   0.072   0.406   2.848 -2.2984  1.8898 -1.1317
   28bbb     C6  826  -0.268   0.634   2.915 -0.4659 -0.0052  0.1109
   28bbb    H11  827  -0.350   0.659   2.847 -0.3137  0.2791  0.0292
   28bbb    H12  828  -0.243   0.727   2.968  0.6042  0.0497 -0.4484
   28bbb     C7  829  -0.394   0.516   2.408  0.5555  0.1137  0.4916
   28bbb    H13  830  -0.438   0.613   2.434 -1.1153 -0.4336 -0.1810
   28bbb    H14  831  -0.474   0.456   2.363  0.5396  0.3533  0.2031
   28bbb     C8  832  -0.302   0.527   3.022  0.0311  0.4983 -0.2628
   28bbb    H15  833  -0.206   0.502   3.069  0.3009  0.4885 -0.8056
   28bbb    H16  834  -0.368   0.566   3.100 -1.6687 -0.2474 -1.2759
   28bbb     C9  835   0.120   0.221   2.750  0.2274 -0.2199  0.1679
   28bbb    H17  836   0.188   0.265   2.677  0.6703 -1.2888 -0.0790
   28bbb    H18  837   0.071   0.133   2.707  1.3006 -1.2258  0.9297
   28bbb     O1  838  -0.284   0.527   2.314  0.4230 -0.2325  0.1148
   28bbb    H19  839  -0.244   0.409   2.783 -0.0116  1.1381  1.3657
   29bbb     N1  840  -1.045   0.910   1.113 -0.4139 -0.4376 -0.3178
   29bbb     C1  841  -0.966   0.862   0.992  0.2608  0.8142  0.4432
   29bbb     H1  842  -0.996   0.762   0.959  1.2615  0.9025 -0.8333
   29bbb     H2  843  -0.865   0.855   1.034  0.6544 -4.4609 -0.6455
   29bbb     C2  844  -1.165   0.822   1.120 -0.3689  0.4857  0.0513
   29bbb     H3  845  -1.224   0.837   1.030  0.9249  1.6841 -0.6343
   29bbb     H4  846  -1.218   0.858   1.208  0.3917 -0.7991  1.0764
   29bbb     C3  847  -0.970   0.902   1.247 -0.4536 -0.8730 -0.8659
   29bbb     H5  848  -0.919   0.806   1.249  0.9668 -0.1584  2.3870
   29bbb     H6  849  -1.030   0.912   1.337  0.7143  1.8279 -0.2838
   29bbb     C4  850  -0.875   1.027   1.261 -0.2742  0.3745 -0.5146
   29bbb     H7  851  -0.933   1.121   1.268 -0.6964  0.0539  0.4689
   29bbb     H8  852  -0.815   1.028   1.169  1.4410 -1.0270  0.5427
   29bbb     C5  853  -0.980   0.953   0.864 -0.0162  0.3546  0.3814
   29bbb     H9  854  -1.087   0.967   0.845 -0.4468  0.1375  2.4003
   29bbb    H10  855  -0.938   0.905   0.775  1.2162  1.0674  0.5454
   29bbb     C6  856  -1.148   0.670   1.157 -0.6299 -0.0852  0.1907
   29bbb    H11  857  -1.086   0.645   1.245 -2.1764 -1.1211  1.0221
   29bbb    H12  858  -1.100   0.613   1.076  0.5426  1.4190 -0.2179
   29bbb     C7  859  -0.778   1.023   1.381 -0.5942  0.0776  0.2169
   29bbb    H13  860  -0.826   1.008   1.479  2.5874  1.8275  2.2297
   29bbb    H14  861  -0.738   1.123   1.399 -2.2607  0.4927  2.0543
   29bbb     C8  862  -1.282   0.602   1.189 -0.1343  0.1066  0.5764
   29bbb    H15  863  -1.349   0.617   1.104 -0.2865 -0.3308  0.6141
   29bbb    H16  864  -1.270   0.494   1.202 -0.3985  0.0890  0.6953
   29bbb     C9  865  -0.916   1.097   0.869  0.1950  0.1921 -0.6821
   29bbb    H17  866  -0.933   1.146   0.772 -0.8737 -2.6394 -2.0504
   29bbb    H18  867  -0.809   1.080   0.887 -0.0940  0.3306  1.4658
   29bbb     O1  868  -0.676   0.927   1.351  0.5860 -0.7957 -0.0063
   29bbb    H19  869  -1.074   1.007   1.092 -1.0886 -0.2428  1.3424
   30bbb     N1  870   0.223   0.878   0.701  0.4602 -0.0851  0.1868
   30bbb     C1  871   0.095   0.895   0.626 -0.3010 -0.0252 -0.2850
   30bbb     H1  872   0.043   0.984   0.660 -0.0087 -0.0302  0.1941
   30bbb     H2  873   0.021   0.819   0.650 -0.9040  0.9624  1.1697
   30bbb     C2  874   0.320   0.991   0.662  0.0714 -0.4253  0.1073
   30bbb     H3  875   0.318   1.066   0.741  1.1216  1.7549 -1.8229
   30bbb     H4  876   0.287   1.054   0.580  0.8979  0.5263  0.4907
   30bbb     C3  877   0.194   0.874   0.845  0.3349 -0.0771 -0.2936
   30bbb     H5  878   0.119   0.797   0.861  0.1111  0.0746 -0.6256
   30bbb     H6  879   0.154   0.973   0.871 -1.1378 -1.3998  3.1314
   30bbb     C4  880   0.312   0.837   0.938 -0.8751 -0.3594  0.0746
   30bbb     H7  881   0.382   0.921   0.931 -1.2041 -0.0234  0.7931
   30bbb     H8  882   0.360   0.742   0.910  1.2070  0.8354 -0.6307
   30bbb     C5  883   0.094   0.895   0.480 -0.3739 -0.0103 -0.6055
   30bbb     H9  884   0.144   0.802   0.450 -0.2609 -0.2696  0.3719
   30bbb    H10  885   0.137   0.990   0.445  2.7882 -1.4997 -1.1217
   30bbb     C6  886   0.465   0.949   0.627  0.4602 -1.0215  0.5243
   30bbb    H11  887   0.518   0.895   0.706 -0.9577 -1.9104  0.9104
   30bbb    H12  888   0.522   1.040   0.607  1.4955 -1.5482  1.0141
   30bbb     C7  889   0.269   0.824   1.090  0.1273  0.2540 -0.1441
   30bbb    H13  890   0.233   0.922   1.122  1.2504  0.1075  1.7196
   30bbb    H14  891   0.347   0.804   1.165 -1.2970  2.1446  1.9742
   30bbb     C8  892   0.453   0.864   0.505  0.0087  0.0633  0.2261
   30bbb    H15  893   0.369   0.895   0.443 -0.3950 -0.6211  0.4179
   30bbb    H16  894   0.545   0.865   0.444 -0.3826 -0.8891 -0.4143
   30bbb     C9  895  -0.051   0.891   0.419 -0.9554  0.2511 -0.2583
   30bbb    H17  896  -0.101   0.989   0.416 -2.1506 -0.2377  1.6672
   30bbb    H18  897  -0.125   0.829   0.472 -1.6540  1.1525 -0.1617
   30bbb     O1  898   0.157   0.729   1.095 -0.2298 -0.0681  0.2595
   30bbb    H19  899   0.280   0.801   0.663  0.2766 -0.7911  1.2975
   31bbb     N1  900   1.862   3.222   3.374  0.3581 -0.3351 -0.7415
   31bbb     C1  901   1.954   3.279   3.480 -0.3641  0.7225 -0.3049
   31bbb     H1  902   2.053   3.249   3.445 -0.1318  1.7596 -0.5925
   31bbb     H2  903   1.935   3.223   3.571  1.7855 -1.7723 -1.2474
   31bbb     C2  904   1.896   3.069   3.372 -0.2074  0.0441  0.0108
   31bbb     H3  905   1.882   3.015   3.466  0.5882 -0.5132 -0.1760
   31bbb     H4  906   2.003   3.055   3.355  0.2391  3.0041 -0.1602
   31bbb     C3  907   1.715   3.244   3.412 -0.3701  0.5587  0.1936
   31bbb     H5  908   1.661   3.200   3.328  1.0962 -1.1377  0.0762
   31bbb     H6  909   1.691   3.350   3.412 -2.3527  0.1700 -1.1707
   31bbb     C4  910   1.658   3.171   3.542 -0.4151 -1.0815 -0.3455
   31bbb     H7  911   1.744   3.137   3.601 -0.5347  0.8434  1.0143
   31bbb     H8  912   1.614   3.078   3.504 -2.2334 -0.0646 -0.8521
   31bbb     C5  913   1.945   3.428   3.507 -0.4276 -0.6059  0.4056
   31bbb     H9  914   1.841   3.458   3.521 -1.2171 -3.0703  0.2248
   31bbb    H10  915   1.976   3.481   3.416  0.1049  0.1933  1.0306
   31bbb     C6  916   1.810   2.978   3.283  0.0276  0.4497  0.7958
   31bbb    H11  917   1.832   2.997   3.177 -0.5586  0.6658  0.7125
   31bbb    H12  918   1.705   3.007   3.294 -0.1880  0.4962 -1.1181
   31bbb     C7  919   1.563   3.260   3.626  0.1153  0.3637 -0.2697
   31bbb    H13  920   1.603   3.360   3.646 -1.9490  0.8503  1.9251
   31bbb    H14  921   1.577   3.210   3.723  2.9099  1.0196 -0.2480
   31bbb     C8  922   1.833   2.829   3.314  0.3753  0.4595 -0.1883
   31bbb    H15  923   1.792   2.815   3.415 -0.8149  1.6681 -0.4779
   31bbb    H16  924   1.780   2.759   3.248 -1.2252 -3.1149  4.3419
   31bbb     C9  925   2.034   3.481   3.620  0.4541 -0.6647  0.1887
   31bbb    H17  926   2.034   3.587   3.593 -0.4974 -1.0155 -1.3440
   31bbb    H18  927   2.131   3.433   3.599 -0.1533 -1.2024 -1.6237
   31bbb     O1  928   1.427   3.265   3.589 -0.3185  0.2690  0.2802
   31bbb    H19  929   1.880   3.263   3.281  0.2483 -1.8040 -1.4334
   32bbb     N1  930   0.797   3.606   4.454 -0.0068  0.5759 -0.1057
   32bbb     C1  931   0.716   3.490   4.510 -0.7434  0.2461  0.0729
   32bbb     H1  932   0.724   3.498   4.619 -1.4077 -0.3808  0.1718
   32bbb     H2  933   0.763   3.398   4.476  0.0897  0.3319  0.9358
   32bbb     C2  934   0.942   3.608   4.505 -0.0632  0.0850  0.4490
   32bbb     H3  935   0.989   3.514   4.475 -1.6197 -0.4823 -0.3304
   32bbb     H4  936   0.918   3.593   4.610 -1.0607 -3.6347 -0.1682
   32bbb     C3  937   0.779   3.616   4.302 -0.1728 -0.0084  0.1527
   32bbb     H5  938   0.822   3.716   4.291  0.4270  0.0189  2.4267
   32bbb     H6  939   0.672   3.619   4.283 -0.1515 -0.6356 -0.0684
   32bbb     C4  940   0.851   3.508   4.220  0.2973  0.2728 -0.2537
   32bbb     H7  941   0.813   3.411   4.253  1.7838  0.1997  1.3915
   32bbb     H8  942   0.955   3.497   4.252 -0.5505 -0.2577  2.6358
   32bbb     C5  943   0.567   3.470   4.478  0.9650  0.4167  0.1950
   32bbb     H9  944   0.552   3.417   4.383  1.0091 -2.2801  1.5893
   32bbb    H10  945   0.509   3.562   4.469 -1.8509 -1.1682  0.9409
   32bbb     C6  946   1.015   3.746   4.485  0.5586 -0.2745 -0.2154
   32bbb    H11  947   1.023   3.769   4.378 -0.3140 -0.5881 -0.3561
   32bbb    H12  948   1.121   3.744   4.513  0.4792  0.1971  0.1324
   32bbb     C7  949   0.831   3.537   4.065  0.1318 -0.2782  0.0730
   32bbb    H13  950   0.861   3.640   4.040 -1.3436 -0.0033 -0.6823
   32bbb    H14  951   0.725   3.528   4.038 -0.5120  2.4053  1.3482
   32bbb     C8  952   0.945   3.859   4.571  0.1547  0.1288 -0.1235
   32bbb    H15  953   0.956   3.835   4.677  1.6238 -2.9487 -0.8633
   32bbb    H16  954   1.000   3.950   4.543  1.0612 -0.5137 -0.4703
   32bbb     C9  955   0.486   3.388   4.581  0.0298 -0.1586 -0.1749
   32bbb    H17  956   0.529   3.287   4.583 -0.6681 -0.4904 -1.2792
   32bbb    H18  957   0.381   3.374   4.555  0.3971 -1.7478 -0.9143
   32bbb     O1  958   0.910   3.444   3.984 -0.0926  0.0662 -0.0146
   32bbb    H19  959   0.750   3.687   4.498 -2.0462 -0.7444  0.3287
   33bbb     N1  960  -0.286   2.955   3.501 -0.2844 -0.0026 -0.3896
   33bbb     C1  961  -0.433   2.921   3.523 -0.0002 -0.3174  0.0054
   33bbb     H1  962  -0.490   3.014   3.523 -3.1921 -2.1141  1.5075
   33bbb     H2  963  -0.446   2.881   3.624 -3.0517  0.6483  0.0992
   33bbb     C2  964  -0.246   3.080   3.579 -0.3312  0.0984  0.0423
   33bbb     H3  965  -0.138   3.090   3.576 -0.3083  1.2190  2.6192
   33bbb     H4  966  -0.269   3.051   3.682  0.3019 -0.4502  0.0381
   33bbb     C3  967  -0.204   2.831   3.548  0.2202 -0.3304  0.7732
   33bbb     H5  968  -0.105   2.829   3.502 -0.3656  0.5455 -0.6203
   33bbb     H6  969  -0.249   2.747   3.494  0.7120 -0.2687  0.2654
   33bbb     C4  970  -0.182   2.808   3.698  0.0739  0.3058  0.6595
   33bbb     H7  971  -0.277   2.826   3.750  0.0479  1.6514  0.1820
   33bbb     H8  972  -0.112   2.878   3.745  0.3916 -0.1089  0.8114
   33bbb     C5  973  -0.496   2.809   3.426 -0.4414  0.5095  0.1944
   33bbb     H9  974  -0.443   2.714   3.440  1.1480  1.5106  1.3158
   33bbb    H10  975  -0.490   2.832   3.319  1.0690  1.5619  0.4571
   33bbb     C6  976  -0.302   3.211   3.533  0.1275  0.1230 -0.1436
   33bbb    H11  977  -0.262   3.298   3.587 -0.1929  0.9470 -1.1937
   33bbb    H12  978  -0.409   3.221   3.553  0.5809  0.1636  2.5263
   33bbb     C7  979  -0.155   2.661   3.736  0.7557 -0.4221 -0.6202
   33bbb    H13  980  -0.248   2.611   3.765  0.9614 -0.3357  0.2178
   33bbb    H14  981  -0.095   2.660   3.828  0.1761  2.4751 -0.1208
   33bbb     C8  982  -0.274   3.242   3.382  0.2842  0.1798 -0.7616
   33bbb    H15  983  -0.293   3.349   3.370 -1.3774  0.0253  0.1891
   33bbb    H16  984  -0.169   3.219   3.360  0.4030 -0.2614  0.2180
   33bbb     C9  985  -0.648   2.781   3.440 -0.0287 -0.1588  0.4582
   33bbb    H17  986  -0.667   2.687   3.387  1.0920  0.0742 -0.3996
   33bbb    H18  987  -0.701   2.866   3.396  1.6492 -0.4699 -2.4609
   33bbb     O1  988  -0.093   2.592   3.627 -0.1782 -0.3998 -0.0430
   33bbb    H19  989  -0.274   2.979   3.402 -0.0043  3.2541  0.3222
   34bbb     N1  990  -0.246   1.761   3.943 -0.6206 -0.0552 -0.4160
   34bbb     C1  991  -0.325   1.637   3.964  0.2943 -0.1442 -0.0032
   34bbb     H1  992  -0.329   1.622   4.072  1.7670  1.4828  0.3363
   34bbb     H2  993  -0.268   1.554   3.922 -3.3093 -2.7903 -0.0758
   34bbb     C2  994  -0.299   1.893   4.021 -0.4038  0.4658  0.1356
   34bbb     H3  995  -0.209   1.951   4.041  0.7702 -0.8948 -0.9333
   34bbb     H4  996  -0.332   1.839   4.110  1.4815 -1.2081 -0.0902
   34bbb     C3  997  -0.110   1.731   4.011 -0.0990 -0.6713  0.3731
   34bbb     H5  998  -0.135   1.686   4.108  1.1438  0.5073  1.2716
   34bbb     H6  999  -0.057   1.824   4.031  0.6646 -0.7913 -1.0308
   34bbb     C4 1000  -0.015   1.649   3.929 -0.4990  0.2837 -0.3313
   34bbb     H7 1001  -0.035   1.541   3.938  0.4190  0.0920 -0.5279
   34bbb     H8 1002   0.087   1.664   3.964 -0.3343  0.7146 -0.9716
   34bbb     C5 1003  -0.462   1.629   3.899  0.3425  0.2721  0.4805
   34bbb     H9 1004  -0.432   1.632   3.793  2.7248 -0.1163  1.0822
   34bbb    H10 1005  -0.526   1.717   3.910  0.0702  0.0775  0.4835
   34bbb     C6 1006  -0.409   1.982   3.958  0.0426 -0.0973  0.2716
   34bbb    H11 1007  -0.390   2.081   4.001  1.3078  0.1124 -0.7211
   34bbb    H12 1008  -0.511   1.948   3.978 -1.2335  3.1478 -0.0472
   34bbb     C7 1009  -0.008   1.674   3.777 -0.1572 -0.9747  0.2049
   34bbb    H13 1010  -0.092   1.623   3.728 -1.6342  1.3205  0.1867
   34bbb    H14 1011   0.077   1.610   3.750  0.2217 -0.4389  0.0868
   34bbb     C8 1012  -0.399   2.014   3.811  0.4106  0.2478 -0.2011
   34bbb    H15 1013  -0.462   2.100   3.784  0.4830  0.7113  1.0379
   34bbb    H16 1014  -0.294   2.042   3.794  1.3343 -2.2715  0.8323
   34bbb     C9 1015  -0.537   1.498   3.919  0.4473  0.1774  0.0967
   34bbb    H17 1016  -0.469   1.421   3.955  1.5567 -0.1389 -2.4569
   34bbb    H18 1017  -0.575   1.461   3.823 -0.0267 -0.2215  0.4257
   34bbb     O1 1018  -0.002   1.818   3.738 -0.2152 -0.4055  0.1707
   34bbb    H19 1019  -0.228   1.791   3.846  0.3595  0.3373 -0.1249
   35bbb     N1 1020   0.361   3.978   0.569 -0.9718  0.3589  0.6088
   35bbb     C1 1021   0.305   3.878   0.473 -0.3206 -0.6755 -0.0777
   35bbb     H1 1022   0.286   3.950   0.393  0.0521  1.6239  1.7677
   35bbb     H2 1023   0.212   3.836   0.511 -0.3236  0.1745  0.8961
   35bbb     C2 1024   0.278   4.101   0.586 -0.7450  0.7045 -0.8680
   35bbb     H3 1025   0.315   4.143   0.680  2.5162 -1.5935 -1.0012
   35bbb     H4 1026   0.174   4.069   0.595 -1.2515  2.6057  0.8268
   35bbb     C3 1027   0.362   3.898   0.702  0.9064  0.4375  0.3596
   35bbb     H5 1028   0.347   3.791   0.690 -1.0049  0.3750  2.5748
   35bbb     H6 1029   0.284   3.946   0.761 -0.4363 -1.8813  0.5894
   35bbb     C4 1030   0.490   3.904   0.787  0.2197 -0.0479 -0.3353
   35bbb     H7 1031   0.512   4.012   0.790  0.3526 -0.0252 -1.5959
   35bbb     H8 1032   0.577   3.852   0.745 -0.5545 -1.9545  0.3080
   35bbb     C5 1033   0.393   3.767   0.421  0.1972 -0.3823  0.0293
   35bbb     H9 1034   0.433   3.710   0.506  2.7224  3.1156  1.4390
   35bbb    H10 1035   0.481   3.808   0.370 -0.2281 -0.2931 -0.6432
   35bbb     C6 1036   0.303   4.210   0.480  0.7369 -0.2841  0.0108
   35bbb    H11 1037   0.264   4.171   0.385 -2.1387  1.7486  0.2279
   35bbb    H12 1038   0.409   4.230   0.459  0.5054  0.9858 -0.0464
   35bbb     C7 1039   0.469   3.861   0.939  0.9722 -0.0429 -0.1711
   35bbb    H13 1040   0.399   3.935   0.979 -0.8488 -1.1494 -1.1998
   35bbb    H14 1041   0.571   3.869   0.979  1.5005 -0.1012 -1.4603
   35bbb     C8 1042   0.225   4.347   0.505  0.1194  1.1091 -0.0642
   35bbb    H15 1043   0.268   4.426   0.443  0.6016  0.9488  0.0654
   35bbb    H16 1044   0.119   4.329   0.481  0.0126  0.4905  0.8042
   35bbb     C9 1045   0.323   3.664   0.325  0.5645 -0.6522 -0.0740
   35bbb    H17 1046   0.257   3.593   0.377  0.5620 -0.2908  0.4358
   35bbb    H18 1047   0.400   3.604   0.276  0.6830 -0.4282 -0.1662
   35bbb     O1 1048   0.412   3.731   0.951  0.0467  0.3432 -0.1972
   35bbb    H19 1049   0.459   4.002   0.551 -1.1428  1.5779  1.2222
   36bbb     N1 1050  -0.383   3.446   1.067 -0.4037  0.1454 -0.4800
   36bbb     C1 1051  -0.328   3.367   0.951  0.1805 -0.0792  0.9916
   36bbb     H1 1052  -0.407   3.301   0.915 -0.1923  0.2883  1.1294
   36bbb     H2 1053  -0.243   3.303   0.975 -0.0899 -1.0787 -0.5678
   36bbb     C2 1054  -0.510   3.386   1.128 -0.1526 -1.3486 -0.2272
   36bbb     H3 1055  -0.585   3.383   1.048 -0.6399  2.6847 -0.1278
   36bbb     H4 1056  -0.545   3.465   1.194  2.5716 -1.4665  1.5211
   36bbb     C3 1057  -0.279   3.451   1.180 -0.2094 -0.0421 -0.0079
   36bbb     H5 1058  -0.222   3.359   1.192  1.2104  0.6750 -0.9806
   36bbb     H6 1059  -0.334   3.469   1.273 -1.2778 -0.9204 -0.4472
   36bbb     C4 1060  -0.176   3.570   1.170  0.2172 -0.4676  0.6557
   36bbb     H7 1061  -0.240   3.657   1.151  0.9841 -0.0747 -0.1937
   36bbb     H8 1062  -0.107   3.556   1.086 -0.9876 -3.7102  0.0479
   36bbb     C5 1063  -0.276   3.442   0.826  0.8021 -0.5981 -0.0899
   36bbb     H9 1064  -0.200   3.515   0.858  0.7184  0.1229 -1.4334
   36bbb    H10 1065  -0.350   3.508   0.778  2.5528  1.9371  0.5196
   36bbb     C6 1066  -0.497   3.247   1.196  0.3053 -0.3215 -1.0002
   36bbb    H11 1067  -0.444   3.263   1.291  0.0961  1.1357 -1.0971
   36bbb    H12 1068  -0.448   3.180   1.126  1.6367  0.7520 -1.1295
   36bbb     C7 1069  -0.092   3.593   1.297 -0.6182  0.3980  0.4623
   36bbb    H13 1070  -0.164   3.608   1.378 -1.7511  1.1855 -0.6553
   36bbb    H14 1071  -0.032   3.684   1.288 -0.0101  0.1166  1.4213
   36bbb     C8 1072  -0.629   3.188   1.239 -0.0986 -0.9148 -0.3699
   36bbb    H15 1073  -0.689   3.169   1.149  1.8220  0.8548 -2.1326
   36bbb    H16 1074  -0.620   3.095   1.297  1.7150  0.7527  2.2058
   36bbb     C9 1075  -0.212   3.356   0.714  0.3701  0.0052 -0.6202
   36bbb    H17 1076  -0.127   3.294   0.745 -1.5987 -1.0945  3.3759
   36bbb    H18 1077  -0.173   3.429   0.642 -0.3735  0.2149 -0.8201
   36bbb     O1 1078  -0.003   3.474   1.321 -0.7722  0.0862 -0.7625
   36bbb    H19 1079  -0.400   3.541   1.032  3.2277  0.1284 -2.7489
   37bbb     N1 1080   1.005   4.445   2.452  0.0836  0.1202 -0.2487
   37bbb     C1 1081   1.105   4.369   2.552  0.3897 -0.1786 -0.3020
   37bbb     H1 1082   1.195   4.431   2.555  0.2416  0.0346 -0.2511
   37bbb     H2 1083   1.136   4.279   2.498 -1.6615 -2.2829  1.8270
   37bbb     C2 1084   1.002   4.585   2.486  0.0844  0.0274  0.3235
   37bbb     H3 1085   1.098   4.631   2.465 -0.8790  2.0720  0.1695
   37bbb     H4 1086   1.001   4.578   2.595 -0.7533 -0.6790  0.2808
   37bbb     C3 1087   1.024   4.413   2.309 -0.1513 -0.7636 -0.4981
   37bbb     H5 1088   0.940   4.456   2.255  1.0548  1.7707 -0.4985
   37bbb     H6 1089   1.033   4.304   2.313 -1.6507 -0.8879 -0.1455
   37bbb     C4 1090   1.147   4.471   2.247 -0.0965 -0.0889 -0.8090
   37bbb     H7 1091   1.230   4.468   2.319 -1.0635  1.7314  0.4510
   37bbb     H8 1092   1.127   4.577   2.225  1.1764  0.0192 -1.5209
   37bbb     C5 1093   1.054   4.334   2.693  0.3433  0.5524 -0.1065
   37bbb     H9 1094   1.065   4.423   2.756 -1.2758  0.4269  0.3992
   37bbb    H10 1095   1.116   4.249   2.727 -1.2473 -0.4305  0.4535
   37bbb     C6 1096   0.889   4.676   2.444 -0.3613  1.0467  0.2197
   37bbb    H11 1097   0.798   4.617   2.464  1.0859 -0.6356  2.2929
   37bbb    H12 1098   0.909   4.702   2.339  1.6098 -1.3676 -0.0670
   37bbb     C7 1099   1.190   4.415   2.113 -0.0284  0.5517 -0.5711
   37bbb    H13 1100   1.291   4.450   2.090  0.2376  3.0025  3.3617
   37bbb    H14 1101   1.126   4.446   2.030 -0.0211 -0.1554 -0.8485
   37bbb     C8 1102   0.883   4.803   2.533  0.0021 -0.3228 -0.6915
   37bbb    H15 1103   0.805   4.873   2.499  0.0940  0.5241  0.7963
   37bbb    H16 1104   0.844   4.775   2.631 -0.2903 -1.6392 -1.1584
   37bbb     C9 1105   0.917   4.266   2.702 -0.1434 -0.1048 -0.1366
   37bbb    H17 1106   0.908   4.216   2.799  1.7116 -2.1614 -0.9574
   37bbb    H18 1107   0.908   4.184   2.629  1.0191 -1.8663  1.6034
   37bbb     O1 1108   1.187   4.269   2.115  0.0001 -0.0783 -0.5266
   37bbb    H19 1109   0.908   4.421   2.478  0.2585  0.5084  0.7953
   38bbb     N1 1110   1.766   4.136   1.215 -0.0964 -0.2532 -0.0699
   38bbb     C1 1111   1.665   4.237   1.270  0.8148 -0.4553 -0.2761
   38bbb     H1 1112   1.631   4.195   1.365  5.3304  0.4459  1.9853
   38bbb     H2 1113   1.577   4.244   1.206 -0.3196  0.0681  1.2872
   38bbb     C2 1114   1.814   4.183   1.079 -0.1115  0.0516 -0.6768
   38bbb     H3 1115   1.896   4.252   1.100 -0.6778 -0.2382  3.1531
   38bbb     H4 1116   1.733   4.243   1.037 -0.5180 -0.7536 -1.0752
   38bbb     C3 1117   1.892   4.121   1.305  0.0018  0.4864  0.4088
   38bbb     H5 1118   1.939   4.219   1.311 -1.6041  1.4049 -0.9486
   38bbb     H6 1119   1.962   4.057   1.252 -0.5274  0.4292 -0.2423
   38bbb     C4 1120   1.867   4.073   1.453 -0.4243 -0.1373 -0.1079
   38bbb     H7 1121   1.816   4.160   1.497  0.2915  1.4657 -2.2750
   38bbb     H8 1122   1.964   4.059   1.502 -0.5585  1.2943  0.6397
   38bbb     C5 1123   1.720   4.376   1.313  0.0583 -0.3776 -0.1973
   38bbb     H9 1124   1.742   4.442   1.228  1.1983  0.8358  0.9974
   38bbb    H10 1125   1.809   4.360   1.375 -0.4232 -0.6739  0.4293
   38bbb     C6 1126   1.857   4.071   0.989 -0.5656 -0.4843  0.1203
   38bbb    H11 1127   1.955   4.033   1.022 -1.2029 -0.8058  1.7580
   38bbb    H12 1128   1.873   4.103   0.886 -1.7700 -0.9612 -0.2267
   38bbb     C7 1129   1.777   3.949   1.473 -0.0849 -0.3208 -0.7370
   38bbb    H13 1130   1.840   3.866   1.440  0.0809 -0.1182 -0.9360
   38bbb    H14 1131   1.686   3.964   1.413  0.0075  0.7627 -0.6372
   38bbb     C8 1132   1.743   3.969   0.968 -0.3230 -0.3350 -0.8712
   38bbb    H15 1133   1.650   4.023   0.943 -0.1947  1.6136  2.3218
   38bbb    H16 1134   1.777   3.899   0.891 -1.0503 -0.8578 -0.7214
   38bbb     C9 1135   1.629   4.437   1.416  0.1813 -0.1616  0.0198
   38bbb    H17 1136   1.687   4.516   1.464  1.4009 -1.1803  0.2842
   38bbb    H18 1137   1.601   4.361   1.491 -1.3765  0.0064 -0.3640
   38bbb     O1 1138   1.741   3.931   1.620 -0.4330  0.3795  0.3706
   38bbb    H19 1139   1.716   4.047   1.204 -2.0089  0.7791 -0.0644
   39bbb     N1 1140   2.505   2.720  -0.826  0.7457 -0.2588 -0.6402
   39bbb     C1 1141   2.618   2.614  -0.808 -0.2635  0.1975  0.0136
   39bbb     H1 1142   2.693   2.639  -0.883  0.6032 -0.2587  0.7127
   39bbb     H2 1143   2.573   2.520  -0.843  0.7997  0.8541 -3.5698
   39bbb     C2 1144   2.484   2.766  -0.967 -0.3788  0.0314  1.2746
   39bbb     H3 1145   2.388   2.817  -0.968 -0.2217  0.3266  0.5165
   39bbb     H4 1146   2.470   2.671  -1.019  1.5977 -0.1820  1.0469
   39bbb     C3 1147   2.378   2.659  -0.766 -0.9783  0.1943  0.4403
   39bbb     H5 1148   2.390   2.601  -0.675 -1.7861 -1.8691 -0.6774
   39bbb     H6 1149   2.339   2.585  -0.837  0.6166  0.6555 -0.9942
   39bbb     C4 1150   2.268   2.759  -0.728 -0.4044 -0.4078 -0.5999
   39bbb     H7 1151   2.216   2.790  -0.820  0.0009  0.0786 -0.6733
   39bbb     H8 1152   2.321   2.846  -0.685  3.3748 -2.1048 -1.4351
   39bbb     C5 1153   2.701   2.592  -0.678 -0.0885 -0.2627  0.0992
   39bbb     H9 1154   2.649   2.546  -0.594  1.6435 -1.7093  0.4151
   39bbb    H10 1155   2.735   2.692  -0.647 -0.0764  0.1434 -1.1432
   39bbb     C6 1156   2.598   2.855  -1.039  0.1202  0.0822 -0.3670
   39bbb    H11 1157   2.696   2.842  -0.991 -0.7076  0.9624  1.6645
   39bbb    H12 1158   2.566   2.960  -1.037  2.1861  0.7357  0.3455
   39bbb     C7 1159   2.160   2.701  -0.634 -0.3068 -0.2018  0.3401
   39bbb    H13 1160   2.124   2.611  -0.686  0.4358 -2.2787  3.1946
   39bbb    H14 1161   2.077   2.772  -0.627 -0.4131 -0.3539  0.6674
   39bbb     C8 1162   2.604   2.815  -1.181  0.0111  0.8705 -0.5297
   39bbb    H15 1163   2.687   2.855  -1.241  0.2383  0.4796 -0.4754
   39bbb    H16 1164   2.611   2.706  -1.185 -0.8155  0.7528  0.6436
   39bbb     C9 1165   2.830   2.505  -0.707  0.4901 -0.1874 -0.0836
   39bbb    H17 1166   2.903   2.546  -0.778  0.9632  1.4524  1.2926
   39bbb    H18 1167   2.793   2.410  -0.747 -0.6134 -0.3000  1.1409
   39bbb     O1 1168   2.211   2.665  -0.509  0.1002  0.2354 -0.2462
   39bbb    H19 1169   2.529   2.803  -0.769  0.1043 -0.0453 -0.6715
   40bbb     N1 1170   1.697   3.385  -0.701 -0.3863 -0.1495  0.3217
   40bbb     C1 1171   1.834   3.454  -0.699 -0.2530  0.5715  0.1798
   40bbb     H1 1172   1.888   3.419  -0.610 -1.0650 -0.9357  0.1184
   40bbb     H2 1173   1.835   3.563  -0.695  1.2268  0.7083 -2.0141
   40bbb     C2 1174   1.627   3.412  -0.835  0.1567  0.8633 -0.0502
   40bbb     H3 1175   1.683   3.347  -0.903  0.1526  2.1079 -1.2702
   40bbb     H4 1176   1.638   3.515  -0.868  1.1568  0.3536 -1.3657
   40bbb     C3 1177   1.726   3.239  -0.680 -0.1079 -0.2940 -0.0541
   40bbb     H5 1178   1.777   3.243  -0.584 -3.5672  1.2114  1.9101
   40bbb     H6 1179   1.779   3.188  -0.761  1.2804  0.7019  0.1997
   40bbb     C4 1180   1.597   3.150  -0.650 -0.6182 -0.2964  0.3348
   40bbb     H7 1181   1.562   3.104  -0.743  0.9255 -4.2867  1.4930
   40bbb     H8 1182   1.520   3.217  -0.611 -0.1837  0.6416 -0.3725
   40bbb     C5 1183   1.932   3.416  -0.808  0.6081  0.4558  0.2421
   40bbb     H9 1184   1.875   3.410  -0.901 -0.2329  1.6207  0.6662
   40bbb    H10 1185   1.980   3.317  -0.795 -1.0381 -0.4649 -0.4143
   40bbb     C6 1186   1.475   3.372  -0.846 -0.2158 -0.3936 -0.0786
   40bbb    H11 1187   1.433   3.391  -0.747  1.0593  1.7071  0.1189
   40bbb    H12 1188   1.457   3.268  -0.874  1.5789 -0.6189 -0.5251
   40bbb     C7 1189   1.619   3.035  -0.556  0.0078  0.2222  0.5906
   40bbb    H13 1190   1.524   2.992  -0.521 -0.6597 -0.8773 -2.3276
   40bbb    H14 1191   1.678   3.076  -0.473 -1.3795  0.7708  1.3381
   40bbb     C8 1192   1.403   3.457  -0.949  0.4808 -0.0948 -0.3529
   40bbb    H15 1193   1.300   3.420  -0.940  1.0403 -1.9661 -1.1962
   40bbb    H16 1194   1.419   3.564  -0.933  1.8797 -0.5561  1.8439
   40bbb     C9 1195   2.037   3.519  -0.830 -0.2137  0.2809  0.4316
   40bbb    H17 1196   2.069   3.557  -0.732 -2.1242 -0.8896  1.5890
   40bbb    H18 1197   1.985   3.599  -0.883  0.7884  2.0510  2.0059
   40bbb     O1 1198   1.679   2.921  -0.627 -0.6263 -0.4805  0.2870
   40bbb    H19 1199   1.646   3.421  -0.619  1.2340  0.2888  1.1770
   41bbb     N1 1200   0.914   1.830  -0.561 -0.1468  0.1033 -0.0711
   41bbb     C1 1201   0.840   1.713  -0.498  0.1514  0.1010  0.5556
   41bbb     H1 1202   0.772   1.764  -0.429 -0.4543  1.0798 -0.7308
   41bbb     H2 1203   0.910   1.651  -0.442 -0.3827 -2.7132 -1.6838
   41bbb     C2 1204   0.813   1.947  -0.586 -0.1785 -0.1050 -0.3666
   41bbb     H3 1205   0.779   1.980  -0.487 -3.5684  0.7933 -1.7102
   41bbb     H4 1206   0.721   1.912  -0.633  0.5282 -1.9872 -0.4212
   41bbb     C3 1207   1.042   1.875  -0.486  0.5278  0.1706 -0.4591
   41bbb     H5 1208   1.021   1.918  -0.388  2.0225 -0.0543  0.0002
   41bbb     H6 1209   1.096   1.951  -0.541  0.3837  1.1145  0.6549
   41bbb     C4 1210   1.144   1.761  -0.472 -0.0850 -0.5628  0.2360
   41bbb     H7 1211   1.187   1.747  -0.571  0.8475  1.3293  0.3339
   41bbb     H8 1212   1.118   1.661  -0.435  2.2681 -1.0763  0.6968
   41bbb     C5 1213   0.762   1.624  -0.597 -0.5998  0.5225 -0.3130
   41bbb     H9 1214   0.686   1.673  -0.660 -2.2064 -1.7421 -0.2716
   41bbb    H10 1215   0.691   1.564  -0.538 -0.4918 -1.7529 -2.3508
   41bbb     C6 1216   0.882   2.069  -0.662  0.1283 -0.5732 -0.5353
   41bbb    H11 1217   0.963   2.034  -0.728  0.3988 -1.6718  0.3436
   41bbb    H12 1218   0.937   2.127  -0.587 -0.2267 -0.9997  0.0635
   41bbb     C7 1219   1.274   1.813  -0.399  0.1412 -0.0996 -0.1046
   41bbb    H13 1220   1.256   1.812  -0.291  0.3301 -1.3718 -0.0635
   41bbb    H14 1221   1.298   1.916  -0.430  1.5047 -0.3553  0.0293
   41bbb     C8 1222   0.788   2.170  -0.735 -0.0304  0.6227  0.1471
   41bbb    H15 1223   0.848   2.253  -0.774  2.9954 -2.2420 -1.7338
   41bbb    H16 1224   0.744   2.115  -0.818  0.0483  0.7694  0.0082
   41bbb     C9 1225   0.856   1.541  -0.680 -0.6108 -0.5179 -0.7148
   41bbb    H17 1226   0.795   1.467  -0.733 -1.4142 -0.8307  0.6058
   41bbb    H18 1227   0.931   1.493  -0.616 -2.0555 -1.2674  0.4467
   41bbb     O1 1228   1.387   1.720  -0.431  0.3266  0.0652 -0.2817
   41bbb    H19 1229   0.944   1.802  -0.656 -2.0489  1.3201 -1.1013
   42bbb     N1 1230   2.293   0.753  -0.430 -0.0222 -0.0137 -0.1208
   42bbb     C1 1231   2.376   0.855  -0.512 -0.1322  0.5867  0.0618
   42bbb     H1 1232   2.444   0.907  -0.445 -1.5625  2.0501  0.4565
   42bbb     H2 1233   2.301   0.926  -0.549 -0.6264 -0.0810 -0.2379
   42bbb     C2 1234   2.389   0.697  -0.327 -0.7134 -0.5655 -0.3131
   42bbb     H3 1235   2.349   0.725  -0.229 -3.9111  0.7520 -1.8242
   42bbb     H4 1236   2.483   0.753  -0.330  0.4088 -2.1700  2.1297
   42bbb     C3 1237   2.167   0.818  -0.367 -0.1194  0.2020  0.1619
   42bbb     H5 1238   2.190   0.887  -0.286 -0.0376 -1.2320  1.4225
   42bbb     H6 1239   2.128   0.726  -0.323  3.2026 -1.8759 -0.8380
   42bbb     C4 1240   2.066   0.872  -0.467  0.1281 -0.0144 -0.5733
   42bbb     H7 1241   2.019   0.785  -0.515  1.5381 -1.2426  0.1881
   42bbb     H8 1242   2.115   0.944  -0.534 -0.4749  3.3116  2.2777
   42bbb     C5 1243   2.456   0.796  -0.626 -0.2337 -0.3915 -0.0536
   42bbb     H9 1244   2.400   0.772  -0.717 -1.3146 -0.0109  0.4921
   42bbb    H10 1245   2.509   0.705  -0.595  0.4381  1.1827  4.0183
   42bbb     C6 1246   2.420   0.551  -0.335 -0.2052 -0.0956 -1.3455
   42bbb    H11 1247   2.486   0.516  -0.415 -0.1783 -0.0169 -1.3575
   42bbb    H12 1248   2.321   0.506  -0.329 -0.6462  1.0290  1.7174
   42bbb     C7 1249   1.944   0.947  -0.409 -0.2149 -0.2672 -0.2579
   42bbb    H13 1250   1.910   0.900  -0.315 -2.6453  1.2638 -0.2665
   42bbb    H14 1251   1.858   0.955  -0.478 -1.3768  0.1115  1.1706
   42bbb     C8 1252   2.493   0.496  -0.210 -0.0562 -0.3564  0.1468
   42bbb    H15 1253   2.427   0.520  -0.126 -0.9760 -0.0305 -0.6584
   42bbb    H16 1254   2.498   0.387  -0.222 -0.5180 -0.2483 -1.1981
   42bbb     C9 1255   2.566   0.900  -0.660  0.1245  0.2337 -0.2934
   42bbb    H17 1256   2.638   0.875  -0.739 -0.9428  0.4539 -1.3535
   42bbb    H18 1257   2.632   0.895  -0.572 -1.0514 -0.2705  0.5919
   42bbb     O1 1258   1.993   1.083  -0.380  0.3740  0.1270 -0.2556
   42bbb    H19 1259   2.258   0.673  -0.485 -2.9654  0.8866  0.2986
   43bbb     N1 1260   3.999   2.036   2.121  0.1095 -0.5169  0.1304
   43bbb     C1 1261   4.061   2.051   2.260 -0.7508  0.1365 -0.9422
   43bbb     H1 1262   4.076   1.947   2.289 -0.9244  0.2442 -0.4449
   43bbb     H2 1263   3.996   2.084   2.342  0.2049  0.6412 -0.3748
   43bbb     C2 1264   3.884   1.943   2.139  0.0670  0.0597 -0.0757
   43bbb     H3 1265   3.795   1.989   2.184 -0.0273 -1.3269  1.2438
   43bbb     H4 1266   3.918   1.865   2.208 -0.7392  0.1606  0.4571
   43bbb     C3 1267   3.962   2.176   2.064 -0.4772 -0.1259  0.3155
   43bbb     H5 1268   3.907   2.167   1.970  0.4378 -0.2025 -0.2345
   43bbb     H6 1269   4.060   2.221   2.047 -0.2629 -0.2213  1.2515
   43bbb     C4 1270   3.882   2.282   2.151  0.7701  0.7286  0.6859
   43bbb     H7 1271   3.941   2.292   2.243  1.1066  3.2257  0.2593
   43bbb     H8 1272   3.780   2.243   2.160  0.5876  0.5534 -1.5470
   43bbb     C5 1273   4.202   2.119   2.262 -0.0677 -0.4972  0.6126
   43bbb     H9 1274   4.184   2.226   2.249 -0.6362 -0.6312  0.2333
   43bbb    H10 1275   4.262   2.081   2.178 -0.1275  1.6382 -0.4686
   43bbb     C6 1276   3.842   1.873   2.007  0.2227 -0.4658 -0.2340
   43bbb    H11 1277   3.919   1.872   1.929  0.1750  1.2793 -0.3621
   43bbb    H12 1278   3.761   1.939   1.972 -0.2851 -1.8820 -1.8477
   43bbb     C7 1279   3.873   2.411   2.071 -0.1204 -0.1866  0.6171
   43bbb    H13 1280   3.970   2.458   2.052 -1.2711  3.1645  2.2378
   43bbb    H14 1281   3.824   2.486   2.135  0.5353  0.9060 -0.1347
   43bbb     C8 1282   3.786   1.737   2.036  0.0968  0.3629 -0.3949
   43bbb    H15 1283   3.721   1.739   2.124  1.3362 -3.2264  0.7556
   43bbb    H16 1284   3.735   1.688   1.953  1.2965  0.4041 -1.1835
   43bbb     C9 1285   4.297   2.101   2.379 -0.0115  0.3732 -0.0306
   43bbb    H17 1286   4.379   2.173   2.369 -0.5986  1.1319  0.5174
   43bbb    H18 1287   4.340   2.001   2.366 -1.5348 -0.2693 -0.3619
   43bbb     O1 1288   3.797   2.404   1.943  0.2866  0.2551  0.1084
   43bbb    H19 1289   4.062   1.985   2.058 -0.4103 -0.0818 -0.7655
   44bbb     N1 1290   4.516   3.070   1.185  0.3208 -0.4437  0.3028
   44bbb     C1 1291   4.640   3.046   1.092 -0.7480 -0.0884 -0.4833
   44bbb     H1 1292   4.604   3.033   0.989  0.0378  0.9486 -0.9149
   44bbb     H2 1293   4.673   2.948   1.126 -1.8069 -0.4437 -0.4434
   44bbb     C2 1294   4.428   3.176   1.115  0.0564  0.0599 -0.1831
   44bbb     H3 1295   4.396   3.121   1.027  0.7073 -0.6260  0.0001
   44bbb     H4 1296   4.490   3.257   1.076  0.2406  0.1209  0.2327
   44bbb     C3 1297   4.429   2.947   1.185 -0.5828 -0.1567  0.6004
   44bbb     H5 1298   4.417   2.917   1.081 -2.1098  1.3199  0.2975
   44bbb     H6 1299   4.332   2.975   1.227 -1.4577 -0.3608 -1.1931
   44bbb     C4 1300   4.470   2.833   1.281 -0.7515 -0.4319 -0.0389
   44bbb     H7 1301   4.503   2.879   1.375  2.5723 -1.7535 -0.4283
   44bbb     H8 1302   4.560   2.785   1.241 -0.3959 -0.8876  1.2679
   44bbb     C5 1303   4.753   3.155   1.102 -0.2932 -0.3457 -0.0187
   44bbb     H9 1304   4.805   3.149   1.198 -0.7817 -1.9424  0.1676
   44bbb    H10 1305   4.713   3.257   1.092  0.8615  0.0117 -1.3532
   44bbb     C6 1306   4.322   3.235   1.203 -0.1161  0.0786 -0.6778
   44bbb    H11 1307   4.239   3.164   1.211  0.1054 -0.6547 -3.7085
   44bbb    H12 1308   4.280   3.321   1.150 -0.8721 -0.8467 -1.6087
   44bbb     C7 1309   4.363   2.729   1.308 -0.3103  0.1601  0.6469
   44bbb    H13 1310   4.391   2.666   1.393  1.3272 -2.6734 -1.7666
   44bbb    H14 1311   4.360   2.662   1.220 -1.2471 -0.4636  1.1338
   44bbb     C8 1312   4.370   3.286   1.347 -0.1812  0.1340  0.4111
   44bbb    H15 1313   4.286   3.331   1.403 -2.2716 -2.9143 -0.0381
   44bbb    H16 1314   4.399   3.200   1.410 -1.5610 -0.4288  0.3106
   44bbb     C9 1315   4.853   3.133   0.989  0.1366 -1.1007 -0.1812
   44bbb    H17 1316   4.946   3.191   0.990  0.0584 -0.9260  2.2626
   44bbb    H18 1317   4.807   3.149   0.891  2.9799 -3.3462 -2.0808
   44bbb     O1 1318   4.234   2.794   1.327  0.8586 -0.4284  0.7595
   44bbb    H19 1319   4.547   3.090   1.281  1.5732 -0.0085 -0.1687
   45bbb     N1 1320   3.849   3.484   0.474  0.2618  0.0364 -0.0073
   45bbb     C1 1321   3.938   3.403   0.378 -0.4552  0.6288  0.1697
   45bbb     H1 1322   3.877   3.326   0.331  1.2641 -1.5103  1.2031
   45bbb     H2 1323   4.009   3.356   0.447  1.5119  1.8169 -0.9577
   45bbb     C2 1324   3.728   3.539   0.402  0.7852 -0.1357  0.3966
   45bbb     H3 1325   3.662   3.460   0.366 -1.1088  0.7453  1.7519
   45bbb     H4 1326   3.769   3.594   0.317  1.4415  2.5851  2.3438
   45bbb     C3 1327   3.806   3.400   0.589 -0.1576  0.9695  0.2598
   45bbb     H5 1328   3.749   3.316   0.550  0.8913  1.2217 -1.9391
   45bbb     H6 1329   3.748   3.466   0.655  0.8545  0.5822  1.5813
   45bbb     C4 1330   3.923   3.341   0.681  0.2705  0.2112  0.5098
   45bbb     H7 1331   4.012   3.405   0.678  0.0990  0.5368 -3.9769
   45bbb     H8 1332   3.962   3.254   0.627  0.0638  0.0423  0.6290
   45bbb     C5 1333   4.023   3.487   0.284  0.2233  0.0167  0.2657
   45bbb     H9 1334   4.080   3.559   0.342  0.1114  0.3666 -0.0557
   45bbb    H10 1335   3.948   3.545   0.230  0.2819 -0.2793 -0.1445
   45bbb     C6 1336   3.641   3.633   0.490 -0.0483 -0.3051 -0.4843
   45bbb    H11 1337   3.705   3.711   0.532 -1.0762  0.5514 -0.4605
   45bbb    H12 1338   3.600   3.581   0.578 -0.0622  2.9558  1.5815
   45bbb     C7 1339   3.877   3.296   0.818  0.0415  0.1639  0.0455
   45bbb    H13 1340   3.828   3.380   0.869  0.3974  0.6972 -0.4746
   45bbb    H14 1341   3.966   3.285   0.882  1.4535 -1.6121 -2.1014
   45bbb     C8 1342   3.516   3.695   0.422 -0.0040  0.7273  0.3719
   45bbb    H15 1343   3.434   3.626   0.399 -2.2099  2.3999  2.5605
   45bbb    H16 1344   3.462   3.752   0.498  0.6177  1.6219  0.1546
   45bbb     C9 1345   4.110   3.413   0.184  0.4173 -0.1035  0.0196
   45bbb    H17 1346   4.049   3.348   0.118  1.8047 -2.0690  0.5786
   45bbb    H18 1347   4.170   3.332   0.227  0.6272  0.5002  0.8848
   45bbb     O1 1348   3.790   3.179   0.819 -0.2468  0.1151 -0.1865
   45bbb    H19 1349   3.907   3.562   0.509  0.6776 -0.2106 -0.1414
   46bbb     N1 1350   3.655   3.543   1.514  0.4775 -0.2614  0.4749
   46bbb     C1 1351   3.651   3.639   1.635 -0.3451  0.0749  0.3097
   46bbb     H1 1352   3.548   3.676   1.641 -1.1489 -1.5217 -2.1629
   46bbb     H2 1353   3.709   3.722   1.596  0.0863  0.1485  1.0931
   46bbb     C2 1354   3.794   3.518   1.456 -0.3842  0.1439  0.2433
   46bbb     H3 1355   3.850   3.462   1.531 -1.2630  0.3064  1.0457
   46bbb     H4 1356   3.843   3.615   1.450  1.1045 -0.5187  1.2734
   46bbb     C3 1357   3.595   3.407   1.548  0.0735 -0.4493  0.9759
   46bbb     H5 1358   3.634   3.372   1.644 -2.5810 -0.6981  2.0627
   46bbb     H6 1359   3.628   3.332   1.476  0.0029 -0.3400  0.8302
   46bbb     C4 1360   3.441   3.404   1.546  0.0471  0.2466 -0.4392
   46bbb     H7 1361   3.400   3.432   1.448 -1.2829 -0.4393 -0.1082
   46bbb     H8 1362   3.404   3.480   1.615  1.3970 -0.5560  1.2398
   46bbb     C5 1363   3.718   3.599   1.772  0.5483 -0.1672  0.3200
   46bbb     H9 1364   3.805   3.535   1.755  0.2160 -1.0691  1.8271
   46bbb    H10 1365   3.644   3.535   1.822  0.0032  0.9079  0.9077
   46bbb     C6 1366   3.799   3.449   1.320  0.4051  0.8808  0.1842
   46bbb    H11 1367   3.765   3.345   1.320  1.7772  0.3489  2.3016
   46bbb    H12 1368   3.907   3.433   1.308  0.4210  0.4791  0.7849
   46bbb     C7 1369   3.380   3.269   1.596  0.3151  0.0488  0.4886
   46bbb    H13 1370   3.273   3.286   1.616  0.0145  0.4887 -1.2786
   46bbb    H14 1371   3.427   3.228   1.685 -1.4605 -1.4748  0.7816
   46bbb     C8 1372   3.748   3.531   1.201  0.2990 -1.2926 -0.0586
   46bbb    H15 1373   3.807   3.622   1.185 -0.3443 -1.0354 -1.0682
   46bbb    H16 1374   3.750   3.467   1.112  0.9026 -2.3335  0.6837
   46bbb     C9 1375   3.741   3.726   1.852  0.9428  0.3444 -0.0904
   46bbb    H17 1376   3.759   3.687   1.953 -2.2486 -0.1091  0.4273
   46bbb    H18 1377   3.648   3.785   1.857  0.1846 -0.6948 -1.3321
   46bbb     O1 1378   3.396   3.181   1.471  0.6324 -0.6181 -0.2622
   46bbb    H19 1379   3.600   3.586   1.439  0.0074 -0.9052  0.4367
   47bbb     N1 1380   3.407   0.029   3.860  0.7390 -0.2287 -1.4313
   47bbb     C1 1381   3.537   0.015   3.935 -0.3550 -1.0847 -0.9420
   47bbb     H1 1382   3.516   0.050   4.037  2.0997  0.0917 -0.7628
   47bbb     H2 1383   3.603   0.095   3.900 -0.9564  0.7754  1.7969
   47bbb     C2 1384   3.310  -0.077   3.913 -0.2729 -0.4498 -0.3336
   47bbb     H3 1385   3.312  -0.067   4.022  4.8657 -1.9622  0.0145
   47bbb     H4 1386   3.360  -0.170   3.885 -0.8165  0.0075 -3.1452
   47bbb     C3 1387   3.358   0.171   3.881  0.2226  0.5790  0.6341
   47bbb     H5 1388   3.353   0.193   3.988  1.3290  2.7540  0.2844
   47bbb     H6 1389   3.255   0.173   3.843 -0.4154 -1.3465  2.1131
   47bbb     C4 1390   3.435   0.282   3.812  0.2020 -0.2653 -0.4817
   47bbb     H7 1391   3.466   0.252   3.711  0.9348  1.8019 -0.9257
   47bbb     H8 1392   3.523   0.306   3.873  1.3173 -1.8301 -1.3984
   47bbb     C5 1393   3.637  -0.109   3.930  0.5617  0.0246 -0.0839
   47bbb     H9 1394   3.662  -0.123   3.824  0.7021 -0.4210  0.0063
   47bbb    H10 1395   3.584  -0.203   3.949 -0.4948 -0.5848 -4.7684
   47bbb     C6 1396   3.169  -0.070   3.862 -0.2357 -0.2714 -0.1846
   47bbb    H11 1397   3.177  -0.048   3.754 -0.1223 -0.3974 -0.2021
   47bbb    H12 1398   3.117   0.009   3.916 -1.9420 -1.2005 -0.3996
   47bbb     C7 1399   3.358   0.409   3.805  0.0991  0.3583  1.0033
   47bbb    H13 1400   3.428   0.482   3.763  1.1524 -0.7124  0.8166
   47bbb    H14 1401   3.344   0.437   3.910 -0.0955 -2.1682  1.7231
   47bbb     C8 1402   3.102  -0.204   3.875 -0.1238  0.2574 -0.7070
   47bbb    H15 1403   3.003  -0.196   3.829 -0.1440  1.6297 -0.4701
   47bbb    H16 1404   3.161  -0.287   3.835  1.2360  0.5813  0.5286
   47bbb     C9 1405   3.753  -0.094   4.012  0.5336  0.2989 -0.1425
   47bbb    H17 1406   3.794  -0.000   3.973  2.9785 -0.4970  0.3340
   47bbb    H18 1407   3.827  -0.174   3.995 -0.4516 -0.0837 -3.3364
   47bbb     O1 1408   3.230   0.395   3.734 -0.7925 -0.0983  0.2155
   47bbb    H19 1409   3.427   0.008   3.761 -1.4654  1.2779 -2.2540
   48bbb     N1 1410   3.324   0.758   3.167  0.5251  0.3398  0.1594
   48bbb     C1 1411   3.405   0.676   3.269 -0.1165 -0.1285 -0.4583
   48bbb     H1 1412   3.508   0.704   3.245 -0.6360  1.5065 -0.9332
   48bbb     H2 1413   3.383   0.571   3.254 -1.9326 -0.0647  1.4154
   48bbb     C2 1414   3.361   0.723   3.019 -0.2211 -0.1398  0.3751
   48bbb     H3 1415   3.466   0.751   3.008 -0.2791  1.2546  2.6851
   48bbb     H4 1416   3.298   0.789   2.959 -2.9108 -0.4890  2.6469
   48bbb     C3 1417   3.169   0.739   3.193 -0.1931 -0.7144  0.0955
   48bbb     H5 1418   3.149   0.754   3.299  1.7685  2.0215  0.1937
   48bbb     H6 1419   3.149   0.635   3.166 -1.3203  0.2437 -3.3043
   48bbb     C4 1420   3.064   0.827   3.120 -0.1469  1.0719 -0.7951
   48bbb     H7 1421   3.054   0.792   3.016  0.8688  1.6287 -1.0995
   48bbb     H8 1422   3.105   0.929   3.115  0.9375  0.6209 -1.5749
   48bbb     C5 1423   3.379   0.719   3.417  0.3135 -0.0299  0.3535
   48bbb     H9 1424   3.299   0.655   3.456  0.6707 -1.7291 -1.5378
   48bbb    H10 1425   3.343   0.822   3.427  0.5629 -0.0489  1.5515
   48bbb     C6 1426   3.351   0.576   2.971 -0.4589  0.9524 -0.0227
   48bbb    H11 1427   3.252   0.536   2.998  0.2995 -1.6695 -0.8371
   48bbb    H12 1428   3.414   0.500   3.019 -0.2716 -0.6779 -2.6422
   48bbb     C7 1429   2.926   0.826   3.182 -0.0808  0.1284 -0.2412
   48bbb    H13 1430   2.861   0.743   3.152 -1.1786  0.4651  1.1026
   48bbb    H14 1431   2.870   0.917   3.158 -0.8284 -0.2205  0.1620
   48bbb     C8 1432   3.365   0.559   2.818 -0.3472  0.1610 -0.6758
   48bbb    H15 1433   3.464   0.589   2.780 -0.5347  1.6128 -0.0686
   48bbb    H16 1434   3.354   0.452   2.799  0.5743 -0.2784  1.0929
   48bbb     C9 1435   3.510   0.705   3.500 -0.2738  0.6307 -0.4678
   48bbb    H17 1436   3.527   0.599   3.522 -0.0739  0.9599  1.0658
   48bbb    H18 1437   3.508   0.749   3.600  0.5771  0.3763 -0.3318
   48bbb     O1 1438   2.925   0.821   3.324 -0.4576  0.2645  0.5713
   48bbb    H19 1439   3.349   0.858   3.180  1.8643  0.4580 -2.4813
   49bbb     N1 1440   1.983   0.650   4.381 -0.4176  0.4264 -0.2160
   49bbb     C1 1441   1.935   0.550   4.274  0.1006  0.2737  0.9797
   49bbb     H1 1442   2.000   0.571   4.189  0.0935  0.6287  1.0594
   49bbb     H2 1443   1.833   0.577   4.249  0.8259  3.2310  0.9153
   49bbb     C2 1444   2.124   0.637   4.442  0.8201 -0.2145 -0.2504
   49bbb     H3 1445   2.189   0.658   4.357  0.8967  2.0973  0.2968
   49bbb     H4 1446   2.133   0.531   4.467  0.7829 -0.0585  0.4411
   49bbb     C3 1447   1.963   0.788   4.338 -0.4947  0.1370 -0.3651
   49bbb     H5 1448   1.931   0.798   4.235  1.3897  3.3149 -0.7728
   49bbb     H6 1449   2.057   0.843   4.342 -0.1816 -0.2574 -1.7377
   49bbb     C4 1450   1.875   0.886   4.423  0.1569  0.3365  0.5344
   49bbb     H7 1451   1.940   0.906   4.509  3.7963  2.0245 -2.3018
   49bbb     H8 1452   1.782   0.836   4.452 -1.2572  1.1799 -2.1368
   49bbb     C5 1453   1.945   0.398   4.313  0.2315  0.3735 -0.1696
   49bbb     H9 1454   1.948   0.390   4.422 -0.0878 -0.1055 -0.1949
   49bbb    H10 1455   2.040   0.350   4.285 -0.5014 -2.7246  2.1205
   49bbb     C6 1456   2.165   0.728   4.562  0.3176  0.3604  0.7553
   49bbb    H11 1457   2.125   0.830   4.555  1.2517  0.7780  1.3085
   49bbb    H12 1458   2.274   0.733   4.565  0.6565 -2.0391 -2.5156
   49bbb     C7 1459   1.853   1.011   4.333 -0.1201 -0.1779 -0.0753
   49bbb    H13 1460   1.950   1.062   4.332 -0.3941  0.4787  1.7082
   49bbb    H14 1461   1.788   1.077   4.392  1.1981  1.2717 -0.1816
   49bbb     C8 1462   2.115   0.666   4.695  0.6260  0.0520 -0.1122
   49bbb    H15 1463   2.116   0.735   4.780 -3.0962 -0.4442  0.4930
   49bbb    H16 1464   2.010   0.635   4.690  0.2535  1.1554  0.6677
   49bbb     C9 1465   1.833   0.320   4.246 -0.2201  0.3063 -0.8635
   49bbb    H17 1466   1.823   0.334   4.138 -2.2461  0.4841 -0.6855
   49bbb    H18 1467   1.735   0.354   4.283  0.3593  2.2225 -0.9961
   49bbb     O1 1468   1.801   0.985   4.202  0.1731  0.5643 -0.1231
   49bbb    H19 1469   1.913   0.628   4.453 -0.0535  0.2774  0.0935
   50bbb     N1 1470   1.334   0.780   4.122 -0.1511  0.0126  0.4589
   50bbb     C1 1471   1.340   0.899   4.215 -0.3050 -0.7340 -0.2905
   50bbb     H1 1472   1.238   0.931   4.237 -0.4552 -1.8816  0.7443
   50bbb     H2 1473   1.399   0.973   4.161  1.0799 -1.2677  0.4596
   50bbb     C2 1474   1.239   0.688   4.197  0.2763  0.4466  0.6088
   50bbb     H3 1475   1.140   0.730   4.176 -1.8917 -3.5782  1.9116
   50bbb     H4 1476   1.249   0.711   4.303 -1.1699  1.0237  0.6363
   50bbb     C3 1477   1.262   0.829   3.998 -0.8132  0.5959  0.2085
   50bbb     H5 1478   1.345   0.883   3.952  0.3252 -1.1907  0.0643
   50bbb     H6 1479   1.189   0.906   4.024 -0.8386  1.8043 -3.1123
   50bbb     C4 1480   1.205   0.727   3.894  0.0600 -0.0056  0.3325
   50bbb     H7 1481   1.160   0.785   3.813 -1.8395 -0.3993  1.0498
   50bbb     H8 1482   1.125   0.671   3.945 -1.4490 -0.1563 -2.0726
   50bbb     C5 1483   1.410   0.869   4.351 -0.0854 -0.0002  0.4915
   50bbb     H9 1484   1.507   0.820   4.338 -0.7666 -1.9337  2.2862
   50bbb    H10 1485   1.357   0.789   4.403  0.1152 -2.6391 -2.9685
   50bbb     C6 1486   1.230   0.542   4.161 -0.5027  0.1070 -0.7244
   50bbb    H11 1487   1.214   0.525   4.054 -0.6931  4.2158 -1.5234
   50bbb    H12 1488   1.146   0.499   4.217  0.6106 -1.8705 -0.4866
   50bbb     C7 1489   1.304   0.637   3.815 -0.1811 -0.6495  0.5262
   50bbb    H13 1490   1.259   0.576   3.735  0.2381  1.9127 -1.8395
   50bbb    H14 1491   1.360   0.565   3.876 -0.2163 -0.4614  0.7839
   50bbb     C8 1492   1.355   0.472   4.229 -0.7278 -0.1583  0.3115
   50bbb    H15 1493   1.353   0.365   4.205 -1.0513  0.2119 -1.4017
   50bbb    H16 1494   1.443   0.514   4.179  0.6554 -2.2258  0.9052
   50bbb     C9 1495   1.419   0.989   4.440 -0.1201 -0.0142 -0.2951
   50bbb    H17 1496   1.418   1.082   4.381 -3.7004 -0.5442 -1.3167
   50bbb    H18 1497   1.509   0.980   4.501 -0.9387 -2.5025  0.6521
   50bbb     O1 1498   1.406   0.732   3.766 -0.0465  0.5771  0.3508
   50bbb    H19 1499   1.420   0.729   4.098 -0.3503  0.3872 -1.1134
   51bbb     N1 1500   1.954   0.394   1.259  0.3027 -0.5774  0.0974
   51bbb     C1 1501   1.805   0.415   1.263  0.6261 -0.7888  0.0933
   51bbb     H1 1502   1.782   0.480   1.348 -1.6806  0.4736 -1.3912
   51bbb     H2 1503   1.764   0.314   1.273  0.1688 -0.6107  0.0225
   51bbb     C2 1504   2.013   0.439   1.393 -0.1380 -0.7052 -0.1522
   51bbb     H3 1505   1.999   0.546   1.409 -0.1284 -0.8245  0.7397
   51bbb     H4 1506   2.122   0.439   1.388 -0.0331 -0.4180  1.4422
   51bbb     C3 1507   1.984   0.252   1.229 -0.5701 -0.7263  0.2843
   51bbb     H5 1508   1.927   0.232   1.138  0.5141  2.9716 -1.3766
   51bbb     H6 1509   1.944   0.194   1.312 -0.8478 -0.9141  0.0224
   51bbb     C4 1510   2.133   0.211   1.196  0.7119  0.3547  0.0080
   51bbb     H7 1511   2.176   0.278   1.120 -0.4086 -1.3829 -2.3078
   51bbb     H8 1512   2.119   0.115   1.144  1.9600  0.5226 -0.6813
   51bbb     C5 1513   1.753   0.474   1.133 -0.0776  0.1346 -0.4814
   51bbb     H9 1514   1.796   0.411   1.054  1.2394  0.4803 -0.0712
   51bbb    H10 1515   1.778   0.578   1.107 -0.0165 -0.1149 -1.4535
   51bbb     C6 1516   1.974   0.364   1.526 -0.1226 -0.2629 -0.1306
   51bbb    H11 1517   2.008   0.261   1.513  2.6385  0.3853  1.2917
   51bbb    H12 1518   1.864   0.357   1.528 -0.0802 -0.8656  0.5403
   51bbb     C7 1519   2.212   0.172   1.320  0.1704 -0.0004 -0.4053
   51bbb    H13 1520   2.236   0.260   1.381 -3.6591 -0.4714  2.1496
   51bbb    H14 1521   2.303   0.118   1.293 -1.0944 -1.8986 -1.0789
   51bbb     C8 1522   2.038   0.435   1.651 -0.3824 -0.6478 -0.2108
   51bbb    H15 1523   1.997   0.537   1.659  0.9067 -0.1128 -0.1911
   51bbb    H16 1524   2.013   0.380   1.743 -2.7895  1.3309  0.4470
   51bbb     C9 1525   1.604   0.460   1.129  0.0377 -0.0182 -0.5351
   51bbb    H17 1526   1.576   0.365   1.176 -1.9209  0.7253 -0.1168
   51bbb    H18 1527   1.572   0.460   1.024  1.8139 -1.1759 -1.1202
   51bbb     O1 1528   2.138   0.081   1.406  0.2313  0.9398  0.0845
   51bbb    H19 1529   2.003   0.451   1.188 -2.3117 -0.5850 -1.8695
   52bbb     N1 1530   1.995  -0.711   1.367 -0.8076 -0.1772 -0.5518
   52bbb     C1 1531   2.108  -0.806   1.344 -0.2557 -0.2406 -0.1911
   52bbb     H1 1532   2.130  -0.872   1.429  1.8457 -0.7372 -1.0503
   52bbb     H2 1533   2.187  -0.734   1.326 -0.7078  0.3288  0.0795
   52bbb     C2 1534   1.890  -0.771   1.459 -0.7669  1.3431 -0.8162
   52bbb     H3 1535   1.943  -0.787   1.553  2.1617 -0.7602 -2.6578
   52bbb     H4 1536   1.856  -0.871   1.433  0.3085 -0.8060  4.6780
   52bbb     C3 1537   2.051  -0.582   1.435 -0.1417  0.2776  0.1852
   52bbb     H5 1538   2.148  -0.600   1.483  1.0686 -1.3800 -2.5724
   52bbb     H6 1539   1.976  -0.553   1.508 -1.5217 -1.6793 -0.3610
   52bbb     C4 1540   2.053  -0.468   1.339 -0.0675 -0.2078  0.8019
   52bbb     H7 1541   2.090  -0.508   1.244 -2.3461 -1.4191  0.3505
   52bbb     H8 1542   2.118  -0.391   1.382  1.9727 -0.3815 -1.7541
   52bbb     C5 1543   2.077  -0.901   1.226  0.3022  0.6391  0.0984
   52bbb     H9 1544   2.082  -0.850   1.128 -0.7323 -0.5649 -0.6129
   52bbb    H10 1545   1.975  -0.939   1.236  0.8372 -1.6612 -2.0024
   52bbb     C6 1546   1.768  -0.693   1.489  0.4690  0.6584 -0.0275
   52bbb    H11 1547   1.718  -0.670   1.394  1.2699 -0.8628 -0.8611
   52bbb    H12 1548   1.787  -0.600   1.543  0.0403  0.4417  0.5016
   52bbb     C7 1549   1.907  -0.409   1.318  0.2295 -0.1466  0.1875
   52bbb    H13 1550   1.844  -0.471   1.254 -2.2714  0.9002  1.5013
   52bbb    H14 1551   1.919  -0.313   1.268  0.2046 -0.2605 -0.0362
   52bbb     C8 1552   1.678  -0.775   1.574  0.4686 -0.3020  0.2326
   52bbb    H15 1553   1.712  -0.778   1.679  0.3665 -1.6311  0.2429
   52bbb    H16 1554   1.584  -0.719   1.582 -0.9082 -2.4361 -0.1162
   52bbb     C9 1555   2.178  -1.021   1.227  0.0769  0.9328  0.4870
   52bbb    H17 1556   2.281  -0.989   1.212  0.3696 -0.4649 -0.6440
   52bbb    H18 1557   2.159  -1.092   1.146  1.0234  0.3824  0.7444
   52bbb     O1 1558   1.844  -0.387   1.446  0.5646  0.0873  0.1761
   52bbb    H19 1559   1.953  -0.692   1.275  0.5046  1.9287 -0.7682
   53bbb     N1 1560   2.592  -0.439   2.642  0.6526  0.1761  0.6526
   53bbb     C1 1561   2.713  -0.523   2.605 -0.5652 -0.4278 -0.0256
   53bbb     H1 1562   2.793  -0.454   2.577 -0.8020  0.9184  2.4217
   53bbb     H2 1563   2.693  -0.580   2.513 -1.0587  1.3848 -1.0851
   53bbb     C2 1564   2.580  -0.317   2.552  0.0710 -0.5577  0.1396
   53bbb     H3 1565   2.482  -0.277   2.579 -0.6591 -0.2198 -2.6897
   53bbb     H4 1566   2.583  -0.339   2.446  1.1797 -1.6294  0.3661
   53bbb     C3 1567   2.465  -0.523   2.607  0.4953  0.4874  0.2945
   53bbb     H5 1568   2.482  -0.622   2.651  0.3576  0.3236 -0.0192
   53bbb     H6 1569   2.443  -0.533   2.501  0.3114  0.3206  0.3468
   53bbb     C4 1570   2.338  -0.477   2.679  0.2368 -0.0203  0.0664
   53bbb     H7 1571   2.345  -0.368   2.666 -0.3853 -0.2193 -2.5391
   53bbb     H8 1572   2.328  -0.488   2.787 -0.9002  0.4148  0.0146
   53bbb     C5 1573   2.762  -0.613   2.715  0.3669 -0.2728 -0.2056
   53bbb     H9 1574   2.689  -0.694   2.732  0.2988  0.1588  1.7427
   53bbb    H10 1575   2.766  -0.555   2.807  1.8379  0.7276 -0.8671
   53bbb     C6 1576   2.688  -0.203   2.583  0.6093  0.6289  0.2447
   53bbb    H11 1577   2.790  -0.240   2.568  0.6898  0.4654  1.1601
   53bbb    H12 1578   2.675  -0.168   2.686  0.6645 -0.0138  0.4757
   53bbb     C7 1579   2.207  -0.496   2.610 -0.0037  0.4936  0.4088
   53bbb    H13 1580   2.216  -0.452   2.509  2.0071 -1.6919 -0.4684
   53bbb    H14 1581   2.133  -0.437   2.665 -1.2700 -1.7632  1.2176
   53bbb     C8 1582   2.665  -0.085   2.493  1.1029  0.0732 -0.4749
   53bbb    H15 1583   2.558  -0.060   2.502  1.5267  1.3890  1.5542
   53bbb    H16 1584   2.728  -0.005   2.535  1.2412 -0.3138  0.0624
   53bbb     C9 1585   2.892  -0.680   2.684  0.8677 -0.1762  0.1418
   53bbb    H17 1586   2.911  -0.737   2.775  1.3201  1.6954  1.2592
   53bbb    H18 1587   2.974  -0.607   2.673 -0.1923  1.2885  1.5229
   53bbb     O1 1588   2.166  -0.632   2.603  0.5571 -0.1452 -0.3438
   53bbb    H19 1589   2.595  -0.414   2.742  0.4710  1.1949  0.4054
   54bbb     N1 1590   1.508  -1.229   2.971 -0.0673  0.5329  0.5518
   54bbb     C1 1591   1.431  -1.181   2.858 -0.0247 -0.0603  0.4215
   54bbb     H1 1592   1.464  -1.231   2.766 -0.4631  0.8315 -0.2380
   54bbb     H2 1593   1.456  -1.077   2.841 -1.0392 -0.2144 -2.6122
   54bbb     C2 1594   1.571  -1.359   2.923  0.1119  0.6130  0.3395
   54bbb     H3 1595   1.596  -1.354   2.817  0.7793  1.5231  0.5379
   54bbb     H4 1596   1.492  -1.435   2.935  1.2728 -0.3196  2.6357
   54bbb     C3 1597   1.623  -1.130   2.997  0.3564  0.3082 -0.1436
   54bbb     H5 1598   1.679  -1.111   2.905  0.7840 -0.0039  0.0528
   54bbb     H6 1599   1.691  -1.180   3.066 -0.3565 -0.2077  0.1982
   54bbb     C4 1600   1.576  -1.001   3.069 -0.0171  0.0492 -0.7159
   54bbb     H7 1601   1.539  -1.019   3.171 -1.9717 -0.8012 -1.5393
   54bbb     H8 1602   1.491  -0.955   3.017 -1.8201 -0.2383  1.7737
   54bbb     C5 1603   1.276  -1.177   2.866 -0.1513 -0.5545 -0.4425
   54bbb     H9 1604   1.251  -1.111   2.782 -1.0247 -1.4603 -0.9099
   54bbb    H10 1605   1.243  -1.106   2.943 -0.1043  1.2279 -1.9714
   54bbb     C6 1606   1.686  -1.430   2.998 -0.2882  0.5838 -0.0827
   54bbb    H11 1607   1.653  -1.469   3.096 -0.1654 -1.2986 -0.7488
   54bbb    H12 1608   1.763  -1.356   3.020 -0.1951  0.8547 -1.2841
   54bbb     C7 1609   1.687  -0.891   3.073  0.6214 -0.5082 -0.3361
   54bbb    H13 1610   1.769  -0.918   3.141  0.7431  1.5277  0.4023
   54bbb    H14 1611   1.645  -0.797   3.111  0.8143 -0.1203 -1.0657
   54bbb     C8 1612   1.740  -1.556   2.924 -0.4127 -0.6745  0.6369
   54bbb    H15 1613   1.810  -1.616   2.983  1.5045  1.1533  0.3505
   54bbb    H16 1614   1.655  -1.615   2.888  0.6251 -1.9533  0.2174
   54bbb     C9 1615   1.208  -1.316   2.874  0.8660 -0.4746  0.2564
   54bbb    H17 1616   1.100  -1.298   2.861  1.1666  1.0330 -0.3170
   54bbb    H18 1617   1.222  -1.353   2.976 -1.3585  0.1768  0.8488
   54bbb     O1 1618   1.733  -0.871   2.937 -0.8406 -0.2240 -0.1969
   54bbb    H19 1619   1.452  -1.242   3.056 -2.1454 -1.0734 -0.9658
   55bbb     N1 1620  -1.209  -0.243   1.459  0.3701  0.9048 -0.2218
   55bbb     C1 1621  -1.264  -0.156   1.570  0.3192  0.5277 -0.8123
   55bbb     H1 1622  -1.211  -0.063   1.551 -0.1169  0.8348 -0.5435
   55bbb     H2 1623  -1.236  -0.204   1.664  2.7393  0.5054 -1.4922
   55bbb     C2 1624  -1.202  -0.155   1.335 -0.7987 -0.3033 -0.4639
   55bbb     H3 1625  -1.141  -0.066   1.354 -0.3872 -0.8363  0.8510
   55bbb     H4 1626  -1.301  -0.117   1.308  0.7094  2.5476 -2.6054
   55bbb     C3 1627  -1.070  -0.294   1.506  0.2093 -0.1401  0.0221
   55bbb     H5 1628  -1.020  -0.201   1.532 -1.8715  1.4002 -1.1330
   55bbb     H6 1629  -1.020  -0.333   1.417 -2.4139 -0.9391 -1.2055
   55bbb     C4 1630  -1.070  -0.403   1.620  0.0039  0.6703 -0.0703
   55bbb     H7 1631  -1.128  -0.493   1.596  0.6233 -0.0534  1.0499
   55bbb     H8 1632  -1.122  -0.359   1.705  0.2883  0.4646  0.2140
   55bbb     C5 1633  -1.419  -0.134   1.577 -0.0165 -0.1270 -0.5419
   55bbb     H9 1634  -1.446  -0.094   1.479  1.8771 -1.5488 -1.7246
   55bbb    H10 1635  -1.435  -0.051   1.647  0.9766  0.4627 -1.0001
   55bbb     C6 1636  -1.144  -0.226   1.215  0.4211  0.1585  0.4652
   55bbb    H11 1637  -1.183  -0.328   1.207 -0.1736  0.4347 -0.3027
   55bbb    H12 1638  -1.036  -0.235   1.233  0.5902  0.6907 -0.2268
   55bbb     C7 1639  -0.932  -0.445   1.669 -0.1613  0.0277 -0.4689
   55bbb    H13 1640  -0.873  -0.477   1.582  2.7112  3.0845  0.1329
   55bbb    H14 1641  -0.937  -0.513   1.754 -0.9629  0.0759 -0.4705
   55bbb     C8 1642  -1.166  -0.151   1.078 -0.0058  0.3365  0.2114
   55bbb    H15 1643  -1.100  -0.064   1.068  1.3354 -0.5947  0.6608
   55bbb    H16 1644  -1.127  -0.225   1.007  1.5057  0.6197  0.7122
   55bbb     C9 1645  -1.509  -0.257   1.620 -0.3808  0.7047 -0.1160
   55bbb    H17 1646  -1.615  -0.246   1.593 -0.4044  0.9238  0.0641
   55bbb    H18 1647  -1.508  -0.271   1.729  1.7321 -0.4617 -0.2376
   55bbb     O1 1648  -0.867  -0.332   1.731  0.7384 -0.2578  0.5196
   55bbb    H19 1649  -1.273  -0.317   1.429  1.1407  1.0216 -2.2749
   56bbb     N1 1650  -0.335  -1.020   1.858 -0.6812 -0.7129  0.7090
   56bbb     C1 1651  -0.245  -1.141   1.826  0.0038 -0.7737 -0.0073
   56bbb     H1 1652  -0.321  -1.210   1.790 -2.0050  1.4655 -0.3460
   56bbb     H2 1653  -0.191  -1.191   1.906 -0.9664 -2.7238 -0.5125
   56bbb     C2 1654  -0.450  -1.065   1.948 -1.2775  0.2709  0.0965
   56bbb     H3 1655  -0.488  -0.981   2.006 -4.1178 -1.2842  0.6625
   56bbb     H4 1656  -0.411  -1.134   2.023 -0.8972  0.8435  0.4333
   56bbb     C3 1657  -0.270  -0.912   1.944 -0.3087  0.9516 -0.6715
   56bbb     H5 1658  -0.209  -0.972   2.012 -0.2859  1.2732 -0.4062
   56bbb     H6 1659  -0.339  -0.852   2.004  0.2804  1.9973 -1.0162
   56bbb     C4 1660  -0.165  -0.820   1.881 -0.6303  0.2215 -0.6777
   56bbb     H7 1661  -0.206  -0.794   1.783 -0.8209  2.1082 -0.1334
   56bbb     H8 1662  -0.065  -0.865   1.876 -0.6741 -0.3560  2.2308
   56bbb     C5 1663  -0.163  -1.126   1.703  0.4427  0.2463  0.3920
   56bbb     H9 1664  -0.118  -1.225   1.688 -2.0518 -0.9186  0.1278
   56bbb    H10 1665  -0.084  -1.051   1.716  0.9077 -0.1787  0.0510
   56bbb     C6 1666  -0.569  -1.121   1.865 -0.0714  0.2397 -0.7440
   56bbb    H11 1667  -0.537  -1.197   1.792 -1.5296 -1.4953  0.3226
   56bbb    H12 1668  -0.610  -1.032   1.816 -1.9216 -1.0427 -1.6309
   56bbb     C7 1669  -0.151  -0.691   1.964  0.4054 -0.2117 -0.2292
   56bbb    H13 1670  -0.109  -0.614   1.898 -1.9786  0.7931 -0.6757
   56bbb    H14 1671  -0.086  -0.699   2.052  1.1891 -1.1493 -0.8773
   56bbb     C8 1672  -0.679  -1.193   1.957  0.4996  0.6522  0.5006
   56bbb    H15 1673  -0.747  -1.118   1.999 -0.0353  1.8966 -2.4109
   56bbb    H16 1674  -0.742  -1.263   1.900  3.3468 -1.0821 -0.7393
   56bbb     C9 1675  -0.251  -1.108   1.575 -0.4127  0.2842  0.4720
   56bbb    H17 1676  -0.198  -1.149   1.489 -0.7711  0.0740  0.3478
   56bbb    H18 1677  -0.273  -1.001   1.566 -1.5688  0.1775  1.6163
   56bbb     O1 1678  -0.274  -0.634   2.025  0.0583  0.2301 -0.3777
   56bbb    H19 1679  -0.371  -0.987   1.767  2.9106 -0.9695 -1.0001
   57bbb     N1 1680  -0.480  -0.058   3.031  0.6253 -0.5044  0.0781
   57bbb     C1 1681  -0.421  -0.165   3.113  0.1301 -0.0895 -0.1622
   57bbb     H1 1682  -0.500  -0.241   3.118 -0.9067  0.9392 -0.5249
   57bbb     H2 1683  -0.407  -0.138   3.218  0.0050 -1.1509  0.1360
   57bbb     C2 1684  -0.629  -0.072   3.055 -0.2930 -0.1920 -0.1164
   57bbb     H3 1685  -0.664  -0.169   3.021  1.7428 -2.0168  2.5830
   57bbb     H4 1686  -0.676   0.005   2.993  0.0928 -0.3294 -0.5877
   57bbb     C3 1687  -0.419   0.067   3.092  0.4235 -0.3917  0.5644
   57bbb     H5 1688  -0.313   0.065   3.117  1.0538  3.1486 -1.1318
   57bbb     H6 1689  -0.456   0.096   3.191  0.6468 -0.3834  0.6481
   57bbb     C4 1690  -0.434   0.190   2.999 -0.6074  0.3583  0.2095
   57bbb     H7 1691  -0.542   0.200   2.980 -1.0894 -0.9673  1.9614
   57bbb     H8 1692  -0.385   0.172   2.903 -1.7561 -0.7636 -0.1953
   57bbb     C5 1693  -0.280  -0.219   3.069 -0.9317  0.4577 -0.2777
   57bbb     H9 1694  -0.207  -0.137   3.064 -0.2377 -0.2031 -1.6020
   57bbb    H10 1695  -0.267  -0.262   2.969  1.5762  1.8967 -0.6612
   57bbb     C6 1696  -0.676  -0.045   3.202  0.5213 -0.6050  0.3248
   57bbb    H11 1697  -0.675   0.058   3.240 -2.2939 -0.5491  0.4730
   57bbb    H12 1698  -0.617  -0.110   3.268  0.9584 -0.8589 -0.3029
   57bbb     C7 1699  -0.370   0.314   3.054  0.3098 -0.1269  0.3014
   57bbb    H13 1700  -0.272   0.288   3.096 -0.2687 -0.1480  1.6609
   57bbb    H14 1701  -0.438   0.346   3.133 -2.1082 -1.9224 -0.9273
   57bbb     C8 1702  -0.832  -0.083   3.226  0.0536  0.1357  0.3399
   57bbb    H15 1703  -0.854  -0.082   3.333  0.9129  0.8153  0.5222
   57bbb    H16 1704  -0.893  -0.009   3.172  0.9730  0.3003 -0.4922
   57bbb     C9 1705  -0.232  -0.320   3.174  0.5008  0.4187  0.4525
   57bbb    H17 1706  -0.141  -0.370   3.140  0.3617  0.5394 -0.1104
   57bbb    H18 1707  -0.306  -0.399   3.190  0.0947  0.3661 -1.3742
   57bbb     O1 1708  -0.363   0.420   2.953 -0.3022  0.1905  0.2254
   57bbb    H19 1709  -0.465  -0.062   2.929 -0.2625 -0.4766 -0.0610
   58bbb     N1 1710   0.482   0.247   3.013  0.4326 -0.4094  0.0924
   58bbb     C1 1711   0.615   0.188   3.045  0.1143 -0.0810 -0.2132
   58bbb     H1 1712   0.690   0.265   3.058  0.1994 -0.2702  0.4961
   58bbb     H2 1713   0.649   0.133   2.958  3.2461  0.2308  0.6907
   58bbb     C2 1714   0.475   0.383   3.078 -0.1031 -0.7190  0.1034
   58bbb     H3 1715   0.387   0.428   3.032 -1.7058 -3.5878  0.1407
   58bbb     H4 1716   0.562   0.440   3.044 -1.2864  1.6389  0.8191
   58bbb     C3 1717   0.469   0.266   2.866 -0.0042  0.6506  0.6488
   58bbb     H5 1718   0.565   0.311   2.840 -0.1189  1.2116  1.1651
   58bbb     H6 1719   0.381   0.327   2.847 -0.4292 -0.3342 -0.6402
   58bbb     C4 1720   0.435   0.135   2.796  0.4109 -0.5143  0.2572
   58bbb     H7 1721   0.512   0.056   2.796  1.2674  0.2659  1.4589
   58bbb     H8 1722   0.429   0.160   2.690  3.3585  0.7190  0.2761
   58bbb     C5 1723   0.624   0.093   3.166  0.2746  0.2784 -0.3045
   58bbb     H9 1724   0.551   0.115   3.245  1.0466  1.5479  0.0790
   58bbb    H10 1725   0.712   0.110   3.230  0.7578 -0.5863 -0.7106
   58bbb     C6 1726   0.467   0.395   3.232  0.1664  0.1743 -0.2726
   58bbb    H11 1727   0.570   0.388   3.270 -0.0683 -0.9359  0.1888
   58bbb    H12 1728   0.410   0.311   3.272  1.5217 -0.1098  1.1814
   58bbb     C7 1729   0.300   0.072   2.845  0.0070 -0.2223  0.1627
   58bbb    H13 1730   0.307   0.004   2.931  1.4468  0.4050  0.5798
   58bbb    H14 1731   0.265   0.007   2.764  0.1524  0.5205 -0.5033
   58bbb     C8 1732   0.398   0.526   3.276 -0.1693  0.1741  0.2155
   58bbb    H15 1733   0.294   0.524   3.239  0.3547  0.2021 -1.3643
   58bbb    H16 1734   0.387   0.544   3.383  0.5189  3.5735 -0.1749
   58bbb     C9 1735   0.629  -0.054   3.117  0.2404  0.2291 -0.6455
   58bbb    H17 1736   0.542  -0.084   3.057 -0.6768  0.1060  0.6992
   58bbb    H18 1737   0.622  -0.128   3.198 -0.8026  2.4799  1.4521
   58bbb     O1 1738   0.200   0.178   2.868 -0.2845  0.4537  0.2463
   58bbb    H19 1739   0.402   0.191   3.047  0.4692 -0.6818 -0.2622
   59bbb     N1 1740  -1.564   0.874   1.628 -0.6724 -0.0647 -0.1304
   59bbb     C1 1741  -1.495   0.809   1.756 -0.2042 -0.3625 -0.0856
   59bbb     H1 1742  -1.554   0.718   1.770 -0.3736 -0.2983 -0.3730
   59bbb     H2 1743  -1.518   0.875   1.840 -0.8560 -2.0107  1.0695
   59bbb     C2 1744  -1.559   1.029   1.636 -0.5677 -0.1594  0.1096
   59bbb     H3 1745  -1.616   1.062   1.549  0.4624  0.3538 -0.3859
   59bbb     H4 1746  -1.460   1.070   1.618 -1.2430  1.3071 -0.3835
   59bbb     C3 1747  -1.506   0.833   1.491  0.0299 -0.0459  0.3542
   59bbb     H5 1748  -1.401   0.862   1.484  0.2654 -0.6215  1.3030
   59bbb     H6 1749  -1.565   0.885   1.416 -4.0460 -0.5828  2.9093
   59bbb     C4 1750  -1.517   0.681   1.457 -0.1165  0.0410  0.0352
   59bbb     H7 1751  -1.624   0.657   1.470 -0.4658  0.6639 -1.5237
   59bbb     H8 1752  -1.457   0.629   1.533  0.5643 -1.0810 -1.2240
   59bbb     C5 1753  -1.340   0.793   1.758  0.0020 -0.1611  0.4574
   59bbb     H9 1754  -1.291   0.888   1.733  0.8089 -0.3795  1.2013
   59bbb    H10 1755  -1.317   0.719   1.680 -2.1817  0.8312 -1.2373
   59bbb     C6 1756  -1.629   1.081   1.769 -0.0612 -0.3920 -0.2396
   59bbb    H11 1757  -1.632   1.190   1.759 -3.1931 -0.4450 -0.9373
   59bbb    H12 1758  -1.565   1.066   1.856  0.2305 -0.2593 -0.4313
   59bbb     C7 1759  -1.475   0.641   1.318  0.2054  0.2567 -0.5877
   59bbb    H13 1760  -1.538   0.704   1.253 -3.0761 -1.5071  0.6407
   59bbb    H14 1761  -1.499   0.536   1.300 -2.0215  1.1688 -3.8594
   59bbb     C8 1762  -1.773   1.031   1.792  0.5793  0.3298 -1.0063
   59bbb    H15 1763  -1.814   1.085   1.878 -0.2303 -0.2310 -1.0206
   59bbb    H16 1764  -1.841   1.035   1.706  0.4667  0.9176 -0.8905
   59bbb     C9 1765  -1.281   0.733   1.894  0.4753  0.3040 -0.0695
   59bbb    H17 1766  -1.303   0.625   1.899  0.8733  0.2420  0.4672
   59bbb    H18 1767  -1.330   0.794   1.970  0.1629 -0.6803  0.5303
   59bbb     O1 1768  -1.335   0.662   1.305 -0.1825  0.1465 -0.1217
   59bbb    H19 1769  -1.664   0.850   1.625 -0.4261 -1.6398  1.8442
   60bbb     N1 1770  -0.808   1.541   0.761 -0.1638  0.6359  0.0121
   60bbb     C1 1771  -0.671   1.543   0.684  0.9676  0.2583 -0.2365
   60bbb     H1 1772  -0.588   1.537   0.754  0.3860  1.3316  0.5708
   60bbb     H2 1773  -0.667   1.643   0.641  0.6426  1.1678  1.7697
   60bbb     C2 1774  -0.926   1.548   0.660  0.1268 -0.3461 -0.3607
   60bbb     H3 1775  -1.016   1.530   0.719  0.5012 -1.6093 -0.1408
   60bbb     H4 1776  -0.909   1.463   0.594  0.3658 -0.3227 -0.3300
   60bbb     C3 1777  -0.811   1.413   0.841 -0.7990 -0.3436  0.0841
   60bbb     H5 1778  -0.712   1.379   0.871 -1.2041 -1.7684 -0.1173
   60bbb     H6 1779  -0.838   1.339   0.766 -0.8510  1.8494 -2.2244
   60bbb     C4 1780  -0.909   1.410   0.958 -0.2777 -0.0689  0.2470
   60bbb     H7 1781  -1.011   1.428   0.923 -0.6874 -0.9735  0.9335
   60bbb     H8 1782  -0.895   1.491   1.030  0.2508 -0.3801  0.4968
   60bbb     C5 1783  -0.657   1.441   0.573  0.5371 -0.2954 -0.2580
   60bbb     H9 1784  -0.706   1.481   0.483  0.6700  0.4206 -0.0150
   60bbb    H10 1785  -0.698   1.343   0.600  1.4060  0.0297  2.4816
   60bbb     C6 1786  -0.938   1.685   0.588  0.0110 -0.2153 -1.0972
   60bbb    H11 1787  -0.861   1.688   0.510  1.2108 -0.3480  0.0677
   60bbb    H12 1788  -0.915   1.758   0.667 -1.6077 -0.0186 -0.7571
   60bbb     C7 1789  -0.893   1.276   1.039 -0.3377  0.3605  1.0470
   60bbb    H13 1790  -0.936   1.302   1.136  1.7278  2.2265  1.5388
   60bbb    H14 1791  -0.787   1.250   1.051  0.0842  1.3569 -0.2463
   60bbb     C8 1792  -1.084   1.693   0.542  0.2334 -0.2546  0.3094
   60bbb    H15 1793  -1.099   1.777   0.473 -1.5859 -0.2088  0.7138
   60bbb    H16 1794  -1.097   1.595   0.496 -4.2134 -1.0917  2.7846
   60bbb     C9 1795  -0.510   1.438   0.526 -0.2669  0.4912 -0.0912
   60bbb    H17 1796  -0.504   1.367   0.443 -0.6978 -1.3644  1.4044
   60bbb    H18 1797  -0.441   1.393   0.599  1.2137  0.0634 -1.6789
   60bbb     O1 1798  -0.970   1.163   0.982  0.1279  0.1161  0.4206
   60bbb    H19 1799  -0.808   1.625   0.820  0.0709  0.4703  0.2529
   61bbb     N1 1800   0.244   0.256   0.453  0.4724 -0.2091 -0.6643
   61bbb     C1 1801   0.200   0.180   0.335  0.5421  0.5114 -0.0376
   61bbb     H1 1802   0.193   0.075   0.365  0.2110  0.9778  1.6274
   61bbb     H2 1803   0.274   0.187   0.256  0.6600  1.1432  0.1238
   61bbb     C2 1804   0.357   0.188   0.532 -0.2070  0.2607  0.3258
   61bbb     H3 1805   0.330   0.088   0.569  0.8282 -0.1370  0.0195
   61bbb     H4 1806   0.371   0.250   0.621 -0.9946  1.0810 -0.0976
   61bbb     C3 1807   0.298   0.392   0.404 -0.4212  0.5260  0.0228
   61bbb     H5 1808   0.223   0.432   0.336  0.6551  1.8708 -0.4343
   61bbb     H6 1809   0.392   0.384   0.350  0.0599  3.5614  0.2073
   61bbb     C4 1810   0.317   0.504   0.510 -0.2099 -0.2534  0.0888
   61bbb     H7 1811   0.381   0.466   0.591  2.4295  1.3695 -1.0833
   61bbb     H8 1812   0.218   0.538   0.544 -1.3410 -0.4060 -2.7531
   61bbb     C5 1813   0.052   0.218   0.296  0.7522  0.6565 -0.2062
   61bbb     H9 1814   0.059   0.295   0.217 -1.2063 -0.9026 -2.0452
   61bbb    H10 1815  -0.013   0.260   0.374  0.9295  3.0927 -1.2756
   61bbb     C6 1816   0.497   0.175   0.468 -0.3086  0.3623  0.7087
   61bbb    H11 1817   0.547   0.273   0.467 -0.9890  0.7180  0.2543
   61bbb    H12 1818   0.486   0.164   0.359 -0.0226 -1.6233  0.8514
   61bbb     C7 1819   0.402   0.624   0.453 -0.1369  0.1784  0.6094
   61bbb    H13 1820   0.341   0.670   0.374  0.8374 -0.4003 -0.5071
   61bbb    H14 1821   0.492   0.591   0.399 -0.7431  0.0099 -0.3374
   61bbb     C8 1822   0.588   0.071   0.540  0.6357  0.0185  0.8406
   61bbb    H15 1823   0.691   0.069   0.502  0.6503  0.2251  0.8712
   61bbb    H16 1824   0.593   0.099   0.646 -0.1443  2.4713  0.2971
   61bbb     C9 1825  -0.033   0.108   0.234 -0.5096  0.3174  1.3950
   61bbb    H17 1826  -0.005   0.090   0.129 -0.9426 -0.7325  1.4462
   61bbb    H18 1827  -0.136   0.142   0.218  0.2186  1.7933 -0.5343
   61bbb     O1 1828   0.417   0.727   0.557  0.0933 -0.6034  0.6981
   61bbb    H19 1829   0.155   0.271   0.505 -0.4409 -1.6241 -1.7536
   62bbb     N1 1830  -0.060   1.019  -0.144 -0.5105  0.6187  0.2066
   62bbb     C1 1831  -0.193   1.011  -0.208  0.4419  0.3202  0.1911
   62bbb     H1 1832  -0.252   1.088  -0.158  3.0124  2.3302  0.3379
   62bbb     H2 1833  -0.237   0.913  -0.186  0.3947  0.5838  1.3522
   62bbb     C2 1834   0.018   1.141  -0.191 -0.0830 -0.3448  0.4118
   62bbb     H3 1835   0.036   1.140  -0.299 -1.4498 -1.1652  0.1600
   62bbb     H4 1836   0.118   1.132  -0.148  0.4497  0.4461 -0.6022
   62bbb     C3 1837  -0.076   1.009   0.006 -0.3454 -0.8123 -0.5192
   62bbb     H5 1838  -0.143   1.088   0.039  1.6982  0.5225  0.6945
   62bbb     H6 1839   0.020   1.036   0.052 -0.3791  0.1452 -0.9766
   62bbb     C4 1840  -0.136   0.872   0.061  0.4104 -0.5048 -0.1319
   62bbb     H7 1841  -0.074   0.790   0.024  0.6394 -0.1827 -0.4819
   62bbb     H8 1842  -0.236   0.868   0.017  1.2008  3.5761 -2.9065
   62bbb     C5 1843  -0.190   1.038  -0.362  0.6520  0.3506 -0.3248
   62bbb     H9 1844  -0.122   0.961  -0.401  0.0077  0.0898 -0.9570
   62bbb    H10 1845  -0.155   1.139  -0.382  0.3869  1.2870  3.1862
   62bbb     C6 1846  -0.044   1.285  -0.168 -0.2268  0.3902 -0.2685
   62bbb    H11 1847  -0.013   1.320  -0.068 -0.0023 -2.8091  0.9026
   62bbb    H12 1848  -0.153   1.278  -0.165 -0.3509  2.0217  1.4199
   62bbb     C7 1849  -0.157   0.856   0.209 -0.0974  0.1820 -0.4435
   62bbb    H13 1850  -0.218   0.764   0.212  1.1731 -0.7307 -1.7077
   62bbb    H14 1851  -0.224   0.936   0.243 -0.0065  0.2881 -0.5146
   62bbb     C8 1852  -0.006   1.394  -0.273 -1.0666 -0.1043  0.7307
   62bbb    H15 1853  -0.038   1.494  -0.242  0.4368  0.0767  1.7702
   62bbb    H16 1854   0.103   1.389  -0.275 -1.0849 -0.5606 -1.6003
   62bbb     C9 1855  -0.322   1.018  -0.429 -0.2212 -0.8646  0.5049
   62bbb    H17 1856  -0.341   0.910  -0.439  1.6221 -1.1400 -0.4133
   62bbb    H18 1857  -0.309   1.058  -0.530 -1.0913  0.2269  0.8096
   62bbb     O1 1858  -0.035   0.850   0.287  0.3079  0.1251  0.2171
   62bbb    H19 1859   0.000   0.943  -0.177  0.9742  1.0611  1.7290
   63bbb     N1 1860   2.387   2.732   3.428  0.0815 -0.8739 -0.0961
   63bbb     C1 1861   2.447   2.787   3.302 -0.1684  0.2095  0.3506
   63bbb     H1 1862   2.448   2.895   3.311  0.1265  0.1916  0.5425
   63bbb     H2 1863   2.376   2.767   3.221  1.4481 -1.0262 -0.8348
   63bbb     C2 1864   2.461   2.802   3.545  1.2020 -0.1792  0.1752
   63bbb     H3 1865   2.410   2.899   3.547  1.9349  0.3051 -1.8406
   63bbb     H4 1866   2.565   2.811   3.516  1.3652 -1.1519  0.4239
   63bbb     C3 1867   2.235   2.757   3.433 -0.5108  0.1030 -0.1791
   63bbb     H5 1868   2.210   2.862   3.421  1.1060  0.8828  2.3659
   63bbb     H6 1869   2.201   2.740   3.535 -0.5536  1.6446  0.0813
   63bbb     C4 1870   2.157   2.655   3.359  0.0147 -0.0320  0.3536
   63bbb     H7 1871   2.159   2.556   3.406 -2.6622  0.1462  0.9982
   63bbb     H8 1872   2.198   2.643   3.258  0.0162  0.4807  0.2901
   63bbb     C5 1873   2.583   2.726   3.256 -0.0551  0.1745  1.1299
   63bbb     H9 1874   2.671   2.738   3.320  1.1358  1.3966 -0.6518
   63bbb    H10 1875   2.600   2.778   3.161 -0.0226  0.4390  1.2795
   63bbb     C6 1876   2.451   2.725   3.684  1.0029 -0.0788 -0.1149
   63bbb    H11 1877   2.350   2.689   3.706  1.6725 -0.6857  2.3188
   63bbb    H12 1878   2.463   2.796   3.767  0.3266  0.3736 -0.3937
   63bbb     C7 1879   2.009   2.679   3.362  0.1660 -0.3050  0.4302
   63bbb    H13 1880   1.979   2.663   3.467  2.2322 -1.4571  0.8900
   63bbb    H14 1881   1.969   2.602   3.295  1.3969 -1.7057  1.2443
   63bbb     C8 1882   2.550   2.606   3.675 -0.5509  0.4755 -0.0131
   63bbb    H15 1883   2.539   2.539   3.761 -2.1344 -1.3240 -1.5486
   63bbb    H16 1884   2.525   2.554   3.582 -1.8080  0.2750  0.4096
   63bbb     C9 1885   2.574   2.579   3.217 -0.1689  0.1885  0.4738
   63bbb    H17 1886   2.672   2.553   3.174  0.0395  1.0939  0.3880
   63bbb    H18 1887   2.492   2.564   3.147 -0.2742  1.0516  0.4000
   63bbb     O1 1888   1.977   2.811   3.319  0.1398 -0.0893  0.0286
   63bbb    H19 1889   2.415   2.633   3.435 -1.6451 -1.4197 -0.5220
   64bbb     N1 1890   2.241   3.176   4.014 -0.4834 -0.3320  0.2075
   64bbb     C1 1891   2.374   3.240   4.047 -0.3359 -0.0572  0.0429
   64bbb     H1 1892   2.401   3.289   3.953 -1.1733  0.8501  0.2574
   64bbb     H2 1893   2.450   3.164   4.068 -2.0003 -1.5946  0.6982
   64bbb     C2 1894   2.178   3.091   4.123 -0.1702  0.0423  1.0140
   64bbb     H3 1895   2.074   3.074   4.094  1.2225 -3.2679 -3.1156
   64bbb     H4 1896   2.175   3.149   4.215 -2.3823 -0.3602  1.2537
   64bbb     C3 1897   2.137   3.268   3.973 -0.1603 -0.2556  0.2783
   64bbb     H5 1898   2.090   3.327   4.053 -1.3861  1.2585 -1.4721
   64bbb     H6 1899   2.056   3.207   3.932 -1.3262  1.1329  0.4061
   64bbb     C4 1900   2.172   3.375   3.868  0.1253 -0.3102  0.0760
   64bbb     H7 1901   2.183   3.324   3.771 -0.3902  2.5953 -1.6271
   64bbb     H8 1902   2.264   3.424   3.905 -1.1099  1.8268  0.4836
   64bbb     C5 1903   2.360   3.343   4.165 -0.5818 -0.2578 -0.2769
   64bbb     H9 1904   2.323   3.282   4.248 -1.7142  0.1953 -0.4287
   64bbb    H10 1905   2.299   3.432   4.142  1.4228  0.9534 -1.2204
   64bbb     C6 1906   2.241   2.950   4.137  0.4045  0.2846  0.1022
   64bbb    H11 1907   2.342   2.969   4.177 -0.9692  1.2455  3.4264
   64bbb    H12 1908   2.246   2.895   4.041  0.2024  1.8979 -0.8689
   64bbb     C7 1909   2.063   3.479   3.855  0.2350 -0.4572 -0.5279
   64bbb    H13 1910   2.109   3.578   3.839  1.5081 -0.9598 -0.0810
   64bbb    H14 1911   2.010   3.487   3.951 -2.7867 -4.2921 -1.6053
   64bbb     C8 1912   2.168   2.845   4.222  0.1437  0.4406  0.0878
   64bbb    H15 1913   2.229   2.755   4.207  0.6436  0.7506  0.2519
   64bbb    H16 1914   2.149   2.876   4.326 -0.3741 -1.2156  0.5262
   64bbb     C9 1915   2.498   3.401   4.207 -0.0768 -0.0801 -1.1143
   64bbb    H17 1916   2.471   3.482   4.276  1.0098 -0.2206 -0.4999
   64bbb    H18 1917   2.555   3.447   4.125  0.8334  0.3071 -0.2836
   64bbb     O1 1918   1.974   3.448   3.745  0.0228 -0.2474  0.1997
   64bbb    H19 1919   2.255   3.111   3.936  1.3058 -1.4750  1.4054
   65bbb     N1 1920   0.375   3.916   4.449 -0.6490  0.4242 -0.2272
   65bbb     C1 1921   0.380   4.013   4.336  0.0386 -0.4606  0.1065
   65bbb     H1 1922   0.428   3.964   4.251 -1.2907 -0.6025 -0.5904
   65bbb     H2 1923   0.444   4.095   4.368  1.1561 -1.5569  0.7680
   65bbb     C2 1924   0.298   3.796   4.408  0.2129  0.5667 -0.5453
   65bbb     H3 1925   0.370   3.727   4.363 -0.6067 -1.5330  1.1800
   65bbb     H4 1926   0.229   3.819   4.327  0.9517  1.2932 -0.9880
   65bbb     C3 1927   0.517   3.867   4.496 -0.2083 -0.0811 -0.2411
   65bbb     H5 1928   0.567   3.817   4.413 -0.4664  0.6763 -0.8537
   65bbb     H6 1929   0.503   3.787   4.570 -0.1315 -0.2807 -0.4410
   65bbb     C4 1930   0.591   3.985   4.559 -0.3737 -0.3488  0.0388
   65bbb     H7 1931   0.521   4.038   4.623 -1.3327 -1.0851 -0.3771
   65bbb     H8 1932   0.618   4.051   4.476  0.5523 -2.6333 -1.5934
   65bbb     C5 1933   0.259   4.088   4.280  0.1006  0.5649  0.0415
   65bbb     H9 1934   0.228   4.171   4.344  0.3569 -1.2212  2.6414
   65bbb    H10 1935   0.171   4.023   4.269  0.5863  0.0115 -0.6731
   65bbb     C6 1936   0.220   3.722   4.513  0.4777  0.1058 -0.5894
   65bbb    H11 1937   0.280   3.645   4.563  0.5164  1.0455  0.8896
   65bbb    H12 1938   0.145   3.667   4.455  0.9236  1.2814 -2.3412
   65bbb     C7 1939   0.727   3.950   4.621  0.2652 -0.2872  0.1933
   65bbb    H13 1940   0.710   3.877   4.701  1.4855  0.1983  0.9208
   65bbb    H14 1941   0.776   4.040   4.659  0.0200  0.6472 -1.5721
   65bbb     C8 1942   0.144   3.830   4.596  0.3434 -0.1459 -0.7726
   65bbb    H15 1943   0.087   3.904   4.538 -0.6822  1.0789  1.6115
   65bbb    H16 1944   0.059   3.784   4.648 -0.2834 -0.5536 -2.1261
   65bbb     C9 1945   0.289   4.156   4.147 -0.4951  0.3277  0.0266
   65bbb    H17 1946   0.382   4.210   4.167 -0.4723 -0.7017  3.4474
   65bbb    H18 1947   0.206   4.223   4.123 -1.3635 -0.7954 -0.1911
   65bbb     O1 1948   0.808   3.872   4.528  0.0159 -0.4899 -0.2601
   65bbb    H19 1949   0.332   3.953   4.536 -1.2797 -0.0896 -0.3131
   66bbb     N1 1950   0.632   3.219   5.055  0.3772  0.6601 -0.5203
   66bbb     C1 1951   0.661   3.103   4.967 -0.0591 -0.0465 -0.6458
   66bbb     H1 1952   0.737   3.131   4.894 -1.4500  1.1707 -1.6806
   66bbb     H2 1953   0.578   3.075   4.902  0.6659 -0.7607 -1.2907
   66bbb     C2 1954   0.764   3.255   5.119 -0.6466  0.0751 -0.2838
   66bbb     H3 1955   0.811   3.303   5.033 -0.9223 -0.8910 -0.9949
   66bbb     H4 1956   0.814   3.161   5.145 -0.0853  0.9298  1.9312
   66bbb     C3 1957   0.575   3.327   4.963  0.0305 -0.1687 -0.1723
   66bbb     H5 1958   0.657   3.347   4.895  0.1686  1.1893  0.3487
   66bbb     H6 1959   0.555   3.418   5.020 -0.0064 -1.3754  1.8391
   66bbb     C4 1960   0.436   3.300   4.896  0.2183 -0.7345  0.3065
   66bbb     H7 1961   0.362   3.294   4.976 -0.2781 -0.6021 -0.1395
   66bbb     H8 1962   0.425   3.202   4.848 -1.7385  0.0445 -0.9819
   66bbb     C5 1963   0.690   2.971   5.051 -0.2902  0.2195  0.2866
   66bbb     H9 1964   0.777   2.980   5.117  1.4675  2.4178 -2.1163
   66bbb    H10 1965   0.725   2.887   4.990  1.1462  1.4260 -0.6284
   66bbb     C6 1966   0.747   3.346   5.233  0.0057  0.2163 -0.0635
   66bbb    H11 1967   0.699   3.436   5.194  0.8934  1.0546  0.7377
   66bbb    H12 1968   0.849   3.376   5.261 -0.1911  1.2055 -0.3786
   66bbb     C7 1969   0.392   3.410   4.803 -0.3403 -0.4452 -0.1785
   66bbb    H13 1970   0.368   3.497   4.866 -0.0146  1.1506 -2.1314
   66bbb    H14 1971   0.300   3.369   4.759  0.2453 -2.0959  0.1017
   66bbb     C8 1972   0.660   3.278   5.344  0.4015  0.7120  0.4596
   66bbb    H15 1973   0.668   3.326   5.442 -2.8417  1.1641  0.5954
   66bbb    H16 1974   0.553   3.276   5.321  0.5908  1.1860 -0.5507
   66bbb     C9 1975   0.579   2.925   5.131  0.6518  0.3758 -0.6410
   66bbb    H17 1976   0.494   2.916   5.063  0.0405  1.7276 -0.0883
   66bbb    H18 1977   0.552   3.001   5.205  0.9319  0.4353 -0.5987
   66bbb     O1 1978   0.493   3.457   4.709  1.0267 -0.2568  0.3566
   66bbb    H19 1979   0.567   3.201   5.133  0.8626 -3.1236 -0.8260
   67bbb     N1 1980  -0.475   2.983   2.861 -0.2214  0.4401 -0.0076
   67bbb     C1 1981  -0.623   3.034   2.858 -0.3522  0.4959 -0.2783
   67bbb     H1 1982  -0.657   3.027   2.961 -1.5962 -1.7714 -0.7819
   67bbb     H2 1983  -0.674   2.950   2.811 -1.4098 -0.1847  1.9764
   67bbb     C2 1984  -0.410   2.996   2.721 -0.4014 -0.0610  0.5159
   67bbb     H3 1985  -0.306   2.964   2.723 -0.3618  0.0675  0.5225
   67bbb     H4 1986  -0.421   3.102   2.696 -1.4204 -0.6166 -1.6584
   67bbb     C3 1987  -0.382   3.069   2.948  0.5070 -0.4386 -0.1614
   67bbb     H5 1988  -0.384   3.163   2.893  0.3180 -0.2350  0.1905
   67bbb     H6 1989  -0.286   3.016   2.943 -0.9026 -3.3152  0.6513
   67bbb     C4 1990  -0.424   3.091   3.097  0.7160 -0.4987  0.4699
   67bbb     H7 1991  -0.444   2.990   3.137  0.4903 -2.0093 -3.0452
   67bbb     H8 1992  -0.520   3.142   3.102  0.0212 -1.3838 -2.2030
   67bbb     C5 1993  -0.658   3.170   2.793 -0.1146  0.0452  0.3166
   67bbb     H9 1994  -0.754   3.161   2.741  0.7826  1.9095 -1.8434
   67bbb    H10 1995  -0.592   3.193   2.708 -2.5244  0.0349 -1.6566
   67bbb     C6 1996  -0.483   2.928   2.604  0.7110 -0.3086 -0.0494
   67bbb    H11 1997  -0.454   2.963   2.504 -1.0567  0.4514 -0.3162
   67bbb    H12 1998  -0.588   2.957   2.606  0.5384 -0.9583  1.5459
   67bbb     C7 1999  -0.317   3.166   3.175  0.7419 -0.1757  0.1900
   67bbb    H13 2000  -0.302   3.267   3.134 -1.9866  0.0932 -0.3198
   67bbb    H14 2001  -0.221   3.112   3.174 -0.0993 -1.7012 -0.3975
   67bbb     C8 2002  -0.491   2.776   2.612 -0.1786 -0.5045 -0.5015
   67bbb    H15 2003  -0.532   2.736   2.519 -0.5283  1.1280 -1.0961
   67bbb    H16 2004  -0.387   2.742   2.626  0.1758  0.6635 -0.1257
   67bbb     C9 2005  -0.661   3.289   2.894 -0.4877  0.2314  0.6629
   67bbb    H17 2006  -0.704   3.379   2.848  1.8634  1.1415  0.1341
   67bbb    H18 2007  -0.563   3.322   2.930 -1.1524  1.3568  1.5056
   67bbb     O1 2008  -0.368   3.168   3.309 -0.0502 -0.5297  0.3379
   67bbb    H19 2009  -0.475   2.884   2.887 -2.0923  0.1591 -0.9291
   68bbb     N1 2010  -0.754   2.985   3.951 -0.1378 -0.0004  0.3323
   68bbb     C1 2011  -0.895   3.009   4.000  0.4767 -0.5143  0.7173
   68bbb     H1 2012  -0.884   3.054   4.098 -0.3138 -0.4486  0.7872
   68bbb     H2 2013  -0.942   2.911   3.998  0.5368 -0.5330 -0.2570
   68bbb     C2 2014  -0.680   2.897   4.050 -0.3113  0.3395  0.5302
   68bbb     H3 2015  -0.706   2.793   4.027 -2.4033  1.2795 -1.7731
   68bbb     H4 2016  -0.721   2.921   4.148 -2.2057  0.4726 -0.2578
   68bbb     C3 2017  -0.750   2.939   3.809  0.0889 -0.1150  0.6024
   68bbb     H5 2018  -0.645   2.939   3.777 -0.2330  1.1179 -0.5634
   68bbb     H6 2019  -0.797   3.015   3.747  0.4845 -0.4236 -0.0939
   68bbb     C4 2020  -0.821   2.804   3.775 -0.0573 -0.2403 -0.2979
   68bbb     H7 2021  -0.926   2.816   3.807 -0.0067  2.1249 -0.8342
   68bbb     H8 2022  -0.765   2.729   3.832  0.0978 -0.5976 -0.9200
   68bbb     C5 2023  -0.979   3.105   3.917  0.3477 -0.2983 -0.0853
   68bbb     H9 2024  -0.979   3.071   3.813 -1.9762 -1.2601  0.1795
   68bbb    H10 2025  -0.936   3.206   3.926  1.3090 -0.7588  0.7621
   68bbb     C6 2026  -0.524   2.898   4.035  0.1807  0.0322  0.0954
   68bbb    H11 2027  -0.489   2.876   3.934  0.5530  0.7121  0.0698
   68bbb    H12 2028  -0.486   2.836   4.118 -1.1289  0.1757  0.8225
   68bbb     C7 2029  -0.811   2.768   3.619 -0.3692 -0.2881  0.1214
   68bbb    H13 2030  -0.871   2.836   3.557  1.3727  3.1496  1.8807
   68bbb    H14 2031  -0.856   2.669   3.611  1.9331 -1.2457 -2.8824
   68bbb     C8 2032  -0.464   3.037   4.051  0.0196 -0.7014  0.8591
   68bbb    H15 2033  -0.492   3.082   4.147  0.9835  0.7889  0.4788
   68bbb    H16 2034  -0.355   3.026   4.055 -0.0198 -1.4685  6.0492
   68bbb     C9 2035  -1.125   3.116   3.972 -0.1568  0.1062 -0.0138
   68bbb    H17 2036  -1.159   3.012   3.983  0.8229 -0.3395 -0.9540
   68bbb    H18 2037  -1.181   3.171   3.896  1.8895  1.8142 -0.4012
   68bbb     O1 2038  -0.675   2.775   3.578 -0.1818  0.0003 -0.3826
   68bbb    H19 2039  -0.711   3.079   3.953  0.3355 -0.2179  0.3292
   69bbb     N1 2040  -0.645   1.659   3.433 -0.3683 -0.3625 -0.0602
   69bbb     C1 2041  -0.792   1.685   3.451  0.0124 -0.5210 -0.7407
   69bbb     H1 2042  -0.845   1.629   3.374 -1.7785 -0.4713  0.3924
   69bbb     H2 2043  -0.820   1.791   3.447  0.7747 -0.3093 -0.7003
   69bbb     C2 2044  -0.613   1.667   3.283 -0.0057  0.0148  0.3149
   69bbb     H3 2045  -0.504   1.672   3.277 -0.0026 -0.5366 -0.1509
   69bbb     H4 2046  -0.659   1.763   3.258 -0.7902 -0.0611  1.3737
   69bbb     C3 2047  -0.570   1.757   3.525 -0.0977  0.5101  0.2241
   69bbb     H5 2048  -0.609   1.751   3.626 -0.7277 -0.7189 -0.0657
   69bbb     H6 2049  -0.596   1.855   3.485 -0.5952 -0.3984 -1.8359
   69bbb     C4 2050  -0.417   1.758   3.530  0.3002 -0.2330  0.2146
   69bbb     H7 2051  -0.375   1.751   3.429  0.5449  1.0821  0.2108
   69bbb     H8 2052  -0.391   1.666   3.586 -1.5836 -0.5303  0.6491
   69bbb     C5 2053  -0.847   1.618   3.578 -0.1489  0.1732  0.5343
   69bbb     H9 2054  -0.772   1.618   3.658 -0.3884  1.1138  0.7754
   69bbb    H10 2055  -0.856   1.512   3.551  2.0283  0.2394 -0.6367
   69bbb     C6 2056  -0.673   1.562   3.199 -0.6504 -0.1240 -0.2826
   69bbb    H11 2057  -0.783   1.567   3.205 -0.7335  1.8059 -2.0810
   69bbb    H12 2058  -0.642   1.467   3.243 -0.9352 -0.1914 -0.2233
   69bbb     C7 2059  -0.373   1.882   3.607  0.0416  0.6995  0.5766
   69bbb    H13 2060  -0.398   1.968   3.544 -0.5047  1.1892  1.4544
   69bbb    H14 2061  -0.264   1.886   3.618  0.3055 -0.7705 -1.0085
   69bbb     C8 2062  -0.645   1.578   3.051 -0.0327  0.2141 -0.1399
   69bbb    H15 2063  -0.701   1.505   2.992 -0.7179  0.9770 -0.4639
   69bbb    H16 2064  -0.691   1.674   3.022  0.1369  0.3394  0.0059
   69bbb     C9 2065  -0.983   1.670   3.629  0.5261 -0.5249 -0.1442
   69bbb    H17 2066  -0.969   1.778   3.641  0.6773 -0.6383  0.6962
   69bbb    H18 2067  -1.008   1.633   3.729 -1.0244 -2.2644 -1.1086
   69bbb     O1 2068  -0.440   1.894   3.737 -0.0846 -0.3393  0.0187
   69bbb    H19 2069  -0.624   1.563   3.467  0.3294  0.6444  2.6117
   70bbb     N1 2070  -0.842   1.471   4.411  1.0764 -0.4615  0.4356
   70bbb     C1 2071  -0.759   1.475   4.538  0.0918 -0.4876  0.5708
   70bbb     H1 2072  -0.823   1.513   4.618  0.6813 -1.5068  1.5596
   70bbb     H2 2073  -0.687   1.555   4.518 -1.5882  0.7730 -0.6950
   70bbb     C2 2074  -0.921   1.600   4.405 -0.4135 -0.8508 -0.5556
   70bbb     H3 2075  -0.936   1.617   4.298  1.4360 -1.4496 -0.9439
   70bbb     H4 2076  -0.854   1.682   4.430 -1.2482 -0.1869 -0.4176
   70bbb     C3 2077  -0.754   1.459   4.291 -0.2107  0.7980  0.3010
   70bbb     H5 2078  -0.670   1.391   4.306  0.1684  1.2661  0.3351
   70bbb     H6 2079  -0.701   1.554   4.284  0.8561  0.2123  0.1062
   70bbb     C4 2080  -0.821   1.435   4.153 -0.4380  0.2521 -0.8128
   70bbb     H7 2081  -0.894   1.511   4.124 -0.9114 -0.5335 -1.7491
   70bbb     H8 2082  -0.874   1.339   4.155 -0.9146  0.5153  0.5662
   70bbb     C5 2083  -0.706   1.343   4.600  0.0053  0.0892  0.4665
   70bbb     H9 2084  -0.634   1.295   4.533 -0.1144  1.5111 -0.7394
   70bbb    H10 2085  -0.793   1.276   4.608  0.4566 -0.4882  0.5653
   70bbb     C6 2086  -1.044   1.607   4.486  0.7810  0.3175  0.3631
   70bbb    H11 2087  -1.065   1.714   4.502  2.5267  0.8238 -0.4165
   70bbb    H12 2088  -1.035   1.554   4.581 -0.4749 -0.6209 -0.0095
   70bbb     C7 2089  -0.715   1.407   4.046  0.2239  0.3828 -0.0649
   70bbb    H13 2090  -0.771   1.374   3.957  0.0317  0.4215  0.0413
   70bbb    H14 2091  -0.640   1.335   4.082 -0.4635 -0.3557 -0.0719
   70bbb     C8 2092  -1.168   1.534   4.418 -0.1285 -0.4343 -0.1257
   70bbb    H15 2093  -1.253   1.537   4.486 -0.9302  2.3921 -1.1048
   70bbb    H16 2094  -1.200   1.593   4.331 -2.1790  0.2272  1.0014
   70bbb     C9 2095  -0.647   1.359   4.740  0.3511 -0.6225  0.2337
   70bbb    H17 2096  -0.580   1.446   4.741 -2.2850  1.6345 -1.7072
   70bbb    H18 2097  -0.586   1.277   4.779  0.6363 -0.5630 -0.0817
   70bbb     O1 2098  -0.650   1.525   4.003 -0.6301  0.1874  0.5901
   70bbb    H19 2099  -0.911   1.394   4.419  2.2862 -1.9417 -2.1998
   71bbb     N1 2100   0.315   4.808   0.526  0.2396  0.0852 -0.0074
   71bbb     C1 2101   0.249   4.909   0.616 -0.6742  0.0749 -0.0924
   71bbb     H1 2102   0.143   4.887   0.630 -0.3687  0.0010  2.6367
   71bbb     H2 2103   0.244   5.004   0.562 -1.1448  0.5375  0.7415
   71bbb     C2 2104   0.456   4.834   0.489  0.0342 -0.1935  1.0874
   71bbb     H3 2105   0.487   4.752   0.425  0.2051  0.7579 -0.1006
   71bbb     H4 2106   0.518   4.842   0.578  1.3715  2.1293  0.0692
   71bbb     C3 2107   0.312   4.675   0.593 -0.2232 -0.8854  0.3053
   71bbb     H5 2108   0.369   4.678   0.686  2.2980 -0.4418 -1.1796
   71bbb     H6 2109   0.367   4.606   0.528 -0.4859 -0.9470  0.1470
   71bbb     C4 2110   0.168   4.623   0.614 -0.4287  0.6377  0.5974
   71bbb     H7 2111   0.120   4.616   0.515 -0.0457 -2.2244  0.5094
   71bbb     H8 2112   0.107   4.692   0.672 -0.4766  0.0356  1.2762
   71bbb     C5 2113   0.316   4.934   0.752 -0.1473 -0.2415  0.2423
   71bbb     H9 2114   0.421   4.959   0.732 -1.0488  2.1980 -1.8740
   71bbb    H10 2115   0.317   4.844   0.815  1.4315 -0.0551  0.5280
   71bbb     C6 2116   0.477   4.964   0.409  0.2819  0.3633 -0.0972
   71bbb    H11 2117   0.445   5.052   0.467  1.0320  0.1261  0.6930
   71bbb    H12 2118   0.402   4.956   0.329 -1.0316 -0.0846  1.1307
   71bbb     C7 2119   0.166   4.491   0.698  0.5127  0.1637  0.3748
   71bbb    H13 2120   0.068   4.442   0.696  0.7054 -0.2136 -1.1996
   71bbb    H14 2121   0.189   4.520   0.802 -1.7984  2.0932  0.4554
   71bbb     C8 2122   0.622   4.978   0.357 -0.4055  0.7819 -0.2340
   71bbb    H15 2123   0.637   4.888   0.296 -1.2747  0.4039  0.1026
   71bbb    H16 2124   0.623   5.068   0.293 -1.3320  1.2469  0.3893
   71bbb     C9 2125   0.251   5.037   0.848 -0.2115  0.4243 -0.2797
   71bbb    H17 2126   0.319   5.038   0.934 -1.4716 -0.9854  0.7774
   71bbb    H18 2127   0.158   4.998   0.892  0.8028  0.6715  2.2627
   71bbb     O1 2128   0.248   4.383   0.645  0.1750 -0.0441 -0.5453
   71bbb    H19 2129   0.268   4.809   0.434  2.7585  0.8277 -1.3834
   72bbb     N1 2130   0.202   3.893  -0.206 -0.4176  0.3971 -0.2843
   72bbb     C1 2131   0.065   3.857  -0.263 -0.6255 -0.8810 -0.3018
   72bbb     H1 2132  -0.013   3.864  -0.186 -0.5388 -2.8962  0.0327
   72bbb     H2 2133   0.078   3.751  -0.283 -0.5310 -0.7866 -0.7483
   72bbb     C2 2134   0.199   4.034  -0.142 -0.6052 -0.0509  0.0935
   72bbb     H3 2135   0.142   4.024  -0.050 -3.0029 -4.5832 -1.6020
   72bbb     H4 2136   0.146   4.099  -0.212 -1.0815  1.3065  1.6391
   72bbb     C3 2137   0.236   3.807  -0.084  0.1628  0.5638 -0.2400
   72bbb     H5 2138   0.310   3.865  -0.028 -1.6944  2.8204  0.0029
   72bbb     H6 2139   0.291   3.720  -0.122  1.6867  2.0013 -1.4603
   72bbb     C4 2140   0.127   3.759   0.013  0.4445 -0.3368 -0.3264
   72bbb     H7 2141   0.045   3.705  -0.037  0.1185 -0.7269  0.6002
   72bbb     H8 2142   0.080   3.846   0.059 -0.9269 -0.1038 -2.0781
   72bbb     C5 2143   0.027   3.941  -0.382  0.1677 -0.1037 -0.2322
   72bbb     H9 2144   0.053   4.045  -0.362 -2.1704  0.6697 -0.8485
   72bbb    H10 2145  -0.083   3.940  -0.390  0.1302  0.9410 -0.0079
   72bbb     C6 2146   0.343   4.109  -0.126  0.0782 -0.2413  0.4438
   72bbb    H11 2147   0.423   4.048  -0.081  0.9096  0.2115 -0.3692
   72bbb    H12 2148   0.329   4.195  -0.060  0.7381 -0.0905  0.3950
   72bbb     C7 2149   0.173   3.669   0.129 -0.0880 -0.3946  0.3090
   72bbb    H13 2150   0.234   3.583   0.097  1.7283  0.6032  0.9822
   72bbb    H14 2151   0.087   3.626   0.182  1.7870 -1.6326  2.5111
   72bbb     C8 2152   0.398   4.156  -0.265 -0.3696  0.2142 -0.1823
   72bbb    H15 2153   0.506   4.179  -0.266  0.3808 -2.0826  3.9997
   72bbb    H16 2154   0.391   4.070  -0.333  0.7034  2.0735 -2.8143
   72bbb     C9 2155   0.098   3.894  -0.509  0.8185 -0.4568  0.2015
   72bbb    H17 2156   0.097   3.786  -0.524  0.8118 -0.3146 -0.8759
   72bbb    H18 2157   0.204   3.918  -0.524  0.3571  0.5015 -2.0034
   72bbb     O1 2158   0.249   3.743   0.225 -0.0177  0.5206 -0.5980
   72bbb    H19 2159   0.277   3.895  -0.277 -0.4221  0.8320 -0.2772
   73bbb     N1 2160  -0.928   3.606   1.475  0.0583  0.2641  0.0442
   73bbb     C1 2161  -0.841   3.721   1.425  0.0069 -0.0183 -0.0658
   73bbb     H1 2162  -0.860   3.751   1.322 -1.5608 -0.3971  0.0962
   73bbb     H2 2163  -0.739   3.682   1.424 -0.3860 -1.0782  0.4324
   73bbb     C2 2164  -1.082   3.633   1.478 -0.3822  0.2334 -0.4685
   73bbb     H3 2165  -1.120   3.603   1.380 -1.0746 -0.9295  0.1317
   73bbb     H4 2166  -1.096   3.740   1.491 -0.0406  0.1082  1.1255
   73bbb     C3 2167  -0.892   3.491   1.376 -0.5968 -0.4757  0.3698
   73bbb     H5 2168  -0.787   3.498   1.346 -0.8670  1.8559 -0.2160
   73bbb     H6 2169  -0.943   3.513   1.282  0.1387 -0.0744  0.0478
   73bbb     C4 2170  -0.919   3.341   1.412 -0.2739 -0.2777  0.1694
   73bbb     H7 2171  -1.024   3.312   1.403  0.3197 -2.1868 -1.2487
   73bbb     H8 2172  -0.887   3.322   1.515 -1.9319  1.0856  0.9895
   73bbb     C5 2173  -0.831   3.839   1.525  0.4920 -0.2276 -0.5616
   73bbb     H9 2174  -0.795   3.814   1.626  0.3361  0.1281 -0.4144
   73bbb    H10 2175  -0.927   3.890   1.538  0.0382 -1.2736  0.2843
   73bbb     C6 2176  -1.148   3.558   1.596 -0.2453 -0.1122  0.5228
   73bbb    H11 2177  -1.142   3.449   1.581 -1.6644  0.0091 -1.1635
   73bbb    H12 2178  -1.255   3.577   1.587  0.0716  2.1779  1.0777
   73bbb     C7 2179  -0.837   3.244   1.329  0.2822 -0.5885 -1.0117
   73bbb    H13 2180  -0.886   3.253   1.232  0.0689  1.3086 -0.7693
   73bbb    H14 2181  -0.841   3.139   1.363 -1.4510 -0.3113 -0.2487
   73bbb     C8 2182  -1.104   3.603   1.739 -0.0466  0.0062 -0.5927
   73bbb    H15 2183  -1.175   3.571   1.817 -0.1156  1.0125 -0.2285
   73bbb    H16 2184  -1.011   3.553   1.766  1.1023  1.2998 -1.9826
   73bbb     C9 2185  -0.734   3.949   1.474 -0.2248 -0.0091 -0.3249
   73bbb    H17 2186  -0.641   3.899   1.447  0.2518 -1.5176  3.4395
   73bbb    H18 2187  -0.715   4.008   1.565 -1.0769  0.8118 -0.6568
   73bbb     O1 2188  -0.695   3.285   1.327  0.7634  0.3999  0.6927
   73bbb    H19 2189  -0.897   3.570   1.567  4.5753  2.6471 -0.2569
   74bbb     N1 2190  -0.544   2.912   0.533 -0.2344 -0.2442 -0.0892
   74bbb     C1 2191  -0.549   2.799   0.629 -0.1941 -0.3082  0.0224
   74bbb     H1 2192  -0.653   2.764   0.632  0.0623 -1.2879 -1.2661
   74bbb     H2 2193  -0.514   2.838   0.724 -0.3475 -1.2725  0.4869
   74bbb     C2 2194  -0.686   2.949   0.498 -0.0053 -0.2894  0.4092
   74bbb     H3 2195  -0.745   2.860   0.475  0.1179 -0.0443 -0.9420
   74bbb     H4 2196  -0.679   3.014   0.411  0.2203 -2.0411 -0.9504
   74bbb     C3 2197  -0.456   3.021   0.598 -0.0492  0.4066  0.2118
   74bbb     H5 2198  -0.380   2.968   0.656  0.8809  1.7198  0.2275
   74bbb     H6 2199  -0.504   3.088   0.669 -1.1521  1.9836 -1.9246
   74bbb     C4 2200  -0.384   3.106   0.495  0.2105  0.3718  0.7186
   74bbb     H7 2201  -0.460   3.163   0.441  0.5469  3.1205  2.9243
   74bbb     H8 2202  -0.335   3.038   0.424  2.1461  1.8781  0.5311
   74bbb     C5 2203  -0.452   2.683   0.584  0.4405  0.5008 -0.5839
   74bbb     H9 2204  -0.347   2.715   0.583  0.1223  1.7324  0.8497
   74bbb    H10 2205  -0.493   2.640   0.492  1.2920 -1.9729  0.1001
   74bbb     C6 2206  -0.757   3.030   0.602  0.2932  0.0288 -0.3109
   74bbb    H11 2207  -0.713   3.131   0.612  0.4812 -0.0197 -0.6077
   74bbb    H12 2208  -0.749   2.981   0.699  2.1451 -0.1952 -0.5313
   74bbb     C7 2209  -0.273   3.189   0.562 -0.4292 -0.5763 -0.1892
   74bbb    H13 2210  -0.237   3.249   0.478 -2.2221  0.0106 -0.5877
   74bbb    H14 2211  -0.198   3.119   0.599  0.6369 -0.5212 -2.1386
   74bbb     C8 2212  -0.910   3.034   0.560 -0.0482 -0.4389  0.1963
   74bbb    H15 2213  -0.961   2.937   0.551  1.8164 -1.4253 -0.1973
   74bbb    H16 2214  -0.974   3.094   0.627 -2.5430 -1.7594 -0.8734
   74bbb     C9 2215  -0.461   2.567   0.694 -0.1285 -0.2499  0.3074
   74bbb    H17 2216  -0.391   2.488   0.664  0.8327  1.3259 -1.8558
   74bbb    H18 2217  -0.561   2.523   0.692 -0.1215 -0.2342 -0.7197
   74bbb     O1 2218  -0.319   3.272   0.672  0.1250 -0.2498  0.0461
   74bbb    H19 2219  -0.504   2.879   0.444 -0.0362  1.6526 -0.7649
   75bbb     N1 2220   1.354   5.118   2.606 -0.5153 -0.6346  0.3486
   75bbb     C1 2221   1.393   5.236   2.511 -0.3908 -0.5517  0.1723
   75bbb     H1 2222   1.394   5.200   2.408 -0.4246 -0.2149  0.0533
   75bbb     H2 2223   1.500   5.248   2.530 -0.5854  1.1594  0.3204
   75bbb     C2 2224   1.375   5.153   2.747  0.0615  0.1203 -0.2354
   75bbb     H3 2225   1.321   5.245   2.769  2.1613  0.9530  1.9884
   75bbb     H4 2226   1.477   5.188   2.763  0.4244 -0.8840 -0.2999
   75bbb     C3 2227   1.211   5.072   2.584 -0.3854  0.3099  0.1955
   75bbb     H5 2228   1.135   5.148   2.601 -0.5099  0.5248 -1.2035
   75bbb     H6 2229   1.180   4.988   2.646 -0.6410  0.6694  0.5575
   75bbb     C4 2230   1.183   5.021   2.435 -0.0291  0.2234 -0.6496
   75bbb     H7 2231   1.266   4.953   2.412 -0.2510 -0.7514  1.2170
   75bbb     H8 2232   1.182   5.104   2.363 -0.7897  1.0013  0.2369
   75bbb     C5 2233   1.312   5.367   2.517 -0.2378 -0.2700  0.1202
   75bbb     H9 2234   1.309   5.402   2.622  2.3231 -2.7581  1.1467
   75bbb    H10 2235   1.206   5.359   2.487 -0.6285 -0.7276  1.5290
   75bbb     C6 2236   1.350   5.045   2.855 -0.4574 -0.4149  0.3993
   75bbb    H11 2237   1.377   4.945   2.817 -2.6252 -0.3732 -1.4435
   75bbb    H12 2238   1.244   5.033   2.876 -0.4506 -1.3869 -0.0723
   75bbb     C7 2239   1.043   4.951   2.419  0.7573  0.3737 -0.8383
   75bbb    H13 2240   1.047   4.882   2.334 -1.0886 -0.3504 -0.3858
   75bbb    H14 2241   0.968   5.028   2.397 -0.2371  0.6989  2.9681
   75bbb     C8 2242   1.420   5.077   2.987  0.8265  0.1297  0.1316
   75bbb    H15 2243   1.394   4.998   3.058 -0.5334  0.5641  0.1355
   75bbb    H16 2244   1.530   5.076   2.985  0.8312 -1.0989 -1.4343
   75bbb     C9 2245   1.382   5.478   2.434 -0.0150  0.4625 -0.5355
   75bbb    H17 2246   1.314   5.563   2.416  0.4052  0.7693 -0.6926
   75bbb    H18 2247   1.396   5.438   2.333 -0.7429  0.8387 -0.7942
   75bbb     O1 2248   1.013   4.872   2.541  0.0228  0.2738  0.0331
   75bbb    H19 2249   1.414   5.038   2.582 -0.5291 -0.9072  1.1874
   76bbb     N1 2250   0.587   4.542   2.870 -0.6115  0.2058  0.1077
   76bbb     C1 2251   0.718   4.484   2.928 -0.0963 -0.0339 -0.0443
   76bbb     H1 2252   0.751   4.407   2.858  1.6845  1.7328 -1.2676
   76bbb     H2 2253   0.682   4.450   3.025 -1.3105 -3.2770 -1.5162
   76bbb     C2 2254   0.557   4.680   2.926 -0.2064  0.2782 -0.7011
   76bbb     H3 2255   0.632   4.750   2.887  0.7855  0.4411  1.3601
   76bbb     H4 2256   0.572   4.679   3.034 -0.8321  2.6877 -0.5372
   76bbb     C3 2257   0.610   4.553   2.721 -0.7548  0.5584  0.2872
   76bbb     H5 2258   0.715   4.580   2.706 -0.6016 -0.0021  0.3584
   76bbb     H6 2259   0.538   4.629   2.688 -0.9229 -0.1774 -1.1036
   76bbb     C4 2260   0.583   4.427   2.637  0.1715 -0.4427  0.1204
   76bbb     H7 2261   0.594   4.467   2.535 -0.6013  3.8023  1.4688
   76bbb     H8 2262   0.479   4.393   2.644  0.0554  0.0939  1.2942
   76bbb     C5 2263   0.837   4.582   2.949  0.3380  0.0033 -0.1918
   76bbb     H9 2264   0.798   4.654   3.021 -3.0304 -0.9460 -0.8652
   76bbb    H10 2265   0.858   4.635   2.855  0.6098 -0.5621 -0.4609
   76bbb     C6 2266   0.419   4.733   2.908  0.1695  0.4302 -0.0058
   76bbb    H11 2267   0.350   4.672   2.968  0.1690  0.1710 -0.2691
   76bbb    H12 2268   0.378   4.712   2.809 -1.2052  0.4737  0.5206
   76bbb     C7 2269   0.686   4.312   2.662  1.0467  0.0292 -0.4626
   76bbb    H13 2270   0.680   4.231   2.588 -0.0377 -1.0809  0.7748
   76bbb    H14 2271   0.670   4.267   2.761 -1.0827  0.0942 -0.7375
   76bbb     C8 2272   0.399   4.879   2.951 -0.3649  0.1909  0.6409
   76bbb    H15 2273   0.291   4.899   2.947 -0.0871  1.6979 -0.2857
   76bbb    H16 2274   0.448   4.902   3.046  0.3076  1.1636  0.0857
   76bbb     C9 2275   0.959   4.514   3.012  0.0948 -0.7765 -0.2997
   76bbb    H17 2276   1.035   4.593   3.019 -1.5571  0.6939  2.9353
   76bbb    H18 2277   0.982   4.420   2.960 -2.3330 -1.0717 -0.9593
   76bbb     O1 2278   0.822   4.368   2.663  0.8040  0.1865  0.8226
   76bbb    H19 2279   0.511   4.477   2.893 -0.3100 -0.5764 -1.0434
   77bbb     N1 2280   1.777   3.531   1.070 -0.4230  0.7257 -0.1567
   77bbb     C1 2281   1.837   3.597   0.951 -0.5687 -0.2561 -0.0284
   77bbb     H1 2282   1.944   3.601   0.973 -0.5631  0.8015 -0.1887
   77bbb     H2 2283   1.798   3.698   0.960  0.9929  0.4372 -0.7533
   77bbb     C2 2284   1.863   3.410   1.112 -0.1350  0.4021  0.2890
   77bbb     H3 2285   1.955   3.452   1.154 -0.7223  1.3663  0.6683
   77bbb     H4 2286   1.891   3.360   1.020 -2.0647 -1.0830  0.4312
   77bbb     C3 2287   1.768   3.635   1.181 -0.2863  0.1116 -0.0038
   77bbb     H5 2288   1.843   3.713   1.168  0.0174 -0.0684  0.6355
   77bbb     H6 2289   1.789   3.580   1.273  2.7830  0.0881 -0.6067
   77bbb     C4 2290   1.632   3.705   1.203 -0.1764  0.7377 -0.0599
   77bbb     H7 2291   1.629   3.752   1.302 -1.8024  1.2653 -0.3250
   77bbb     H8 2292   1.556   3.626   1.198 -0.2133  0.7407  0.4037
   77bbb     C5 2293   1.792   3.540   0.814  0.3092 -0.7088  0.0910
   77bbb     H9 2294   1.823   3.436   0.801  3.7137  0.3462 -1.5716
   77bbb    H10 2295   1.851   3.592   0.737 -1.8075  2.4108  0.3581
   77bbb     C6 2296   1.785   3.319   1.200  0.6712  0.1394 -0.3981
   77bbb    H11 2297   1.746   3.372   1.287 -1.0901 -0.1163 -1.0020
   77bbb    H12 2298   1.860   3.247   1.236  0.3445  0.3679  0.7842
   77bbb     C7 2299   1.611   3.813   1.097  0.0269  0.2403 -0.6275
   77bbb    H13 2300   1.526   3.879   1.121  2.4136  3.6614 -0.9108
   77bbb    H14 2301   1.587   3.767   1.000 -1.8617 -2.7633  1.0807
   77bbb     C8 2302   1.664   3.252   1.133 -0.1187 -0.1738  0.1966
   77bbb    H15 2303   1.624   3.178   1.203 -1.5254  0.8066  0.4780
   77bbb    H16 2304   1.584   3.326   1.119 -1.2955 -1.4041  0.3028
   77bbb     C9 2305   1.639   3.574   0.794  0.2872  0.2851 -0.7420
   77bbb    H17 2306   1.600   3.515   0.710  0.5494 -0.6591 -0.2142
   77bbb    H18 2307   1.626   3.678   0.763 -0.3929  0.6513  0.7036
   77bbb     O1 2308   1.724   3.902   1.094  0.0560  0.3907 -0.4431
   77bbb    H19 2309   1.682   3.505   1.037  0.1368  0.1140 -1.3298
   78bbb     N1 2310   1.527   4.843   1.295 -0.4818  0.2045 -0.9803
   78bbb     C1 2311   1.641   4.860   1.199  0.1469 -0.1614 -0.1161
   78bbb     H1 2312   1.690   4.954   1.226  0.3902 -0.5480  0.8474
   78bbb     H2 2313   1.613   4.868   1.094  0.0609 -0.0109 -0.0823
   78bbb     C2 2314   1.437   4.975   1.301 -0.5874  0.4629 -0.2840
   78bbb     H3 2315   1.364   4.943   1.375  2.3056  1.6828  3.4856
   78bbb     H4 2316   1.405   4.976   1.197  3.5230 -1.7390 -1.7981
   78bbb     C3 2317   1.435   4.741   1.235 -0.1370 -0.1461 -0.6747
   78bbb     H5 2318   1.505   4.664   1.202  1.1655  0.3844  0.7120
   78bbb     H6 2319   1.378   4.788   1.155 -0.1774  2.1675  0.6276
   78bbb     C4 2320   1.346   4.666   1.340 -0.2058 -0.5740  0.5651
   78bbb     H7 2321   1.278   4.596   1.289 -1.5833  1.9965 -1.3456
   78bbb     H8 2322   1.289   4.737   1.400  0.2075 -0.3898  0.7460
   78bbb     C5 2323   1.745   4.752   1.215  0.0922  0.0677  0.2296
   78bbb     H9 2324   1.701   4.661   1.172 -1.3545 -0.9454  3.5188
   78bbb    H10 2325   1.771   4.736   1.321 -0.3020  2.1663  0.6826
   78bbb     C6 2326   1.516   5.108   1.337  0.0617 -0.4297 -0.3519
   78bbb    H11 2327   1.591   5.135   1.262  1.0635 -1.4647  0.2489
   78bbb    H12 2328   1.575   5.077   1.424 -0.9906 -0.7726  0.2548
   78bbb     C7 2329   1.424   4.571   1.431 -0.4477 -0.0076 -0.8790
   78bbb    H13 2330   1.348   4.508   1.478  0.1963  0.5486  0.9961
   78bbb    H14 2331   1.482   4.620   1.511 -1.2347 -3.0542  1.7690
   78bbb     C8 2332   1.414   5.226   1.379  0.5451 -0.6923  0.1592
   78bbb    H15 2333   1.353   5.250   1.290 -2.3454 -2.3222  1.5506
   78bbb    H16 2334   1.337   5.183   1.444 -1.2093  2.4653  0.3520
   78bbb     C9 2335   1.881   4.797   1.152 -0.1395  0.1717 -0.2287
   78bbb    H17 2336   1.889   4.762   1.049  1.8815 -1.1406  0.3145
   78bbb    H18 2337   1.965   4.749   1.204  1.2571  0.0439 -2.4563
   78bbb     O1 2338   1.512   4.491   1.346  0.4303  0.0091 -0.1913
   78bbb    H19 2339   1.557   4.825   1.392  1.0086  1.4698 -1.1817
   79bbb     N1 2340   2.738   3.019  -1.607  0.2917 -0.7705 -0.1914
   79bbb     C1 2341   2.724   3.166  -1.607 -0.6402  0.7374  0.0037
   79bbb     H1 2342   2.815   3.211  -1.646 -0.6704  1.5394  0.8278
   79bbb     H2 2343   2.705   3.213  -1.511 -1.3220  1.3776 -0.4370
   79bbb     C2 2344   2.877   2.982  -1.582  0.0298  0.7236  0.1632
   79bbb     H3 2345   2.879   2.873  -1.591  1.7429  0.7844 -0.5246
   79bbb     H4 2346   2.902   3.010  -1.480 -0.0737 -0.7026  0.5976
   79bbb     C3 2347   2.665   2.953  -1.487  0.9166  0.3230 -0.2355
   79bbb     H5 2348   2.673   3.022  -1.403  0.6882  2.2468 -1.7239
   79bbb     H6 2349   2.729   2.868  -1.461  0.8867  0.6200  0.8813
   79bbb     C4 2350   2.517   2.909  -1.493 -0.1455 -0.0486  0.1718
   79bbb     H7 2351   2.501   2.861  -1.590  2.8827  1.3761 -1.1724
   79bbb     H8 2352   2.464   3.005  -1.500 -1.3357 -0.7066 -0.2089
   79bbb     C5 2353   2.619   3.213  -1.706  0.2813  0.8606  0.0978
   79bbb     H9 2354   2.521   3.187  -1.665  0.5145 -0.7439 -0.3111
   79bbb    H10 2355   2.633   3.177  -1.809  1.1965 -0.9559  0.8246
   79bbb     C6 2356   2.991   3.036  -1.676 -0.0673 -0.6298  0.2289
   79bbb    H11 2357   3.009   3.145  -1.679 -0.6233 -0.5540 -1.7529
   79bbb    H12 2358   2.958   3.017  -1.779 -1.2875 -0.7324  0.6181
   79bbb     C7 2359   2.467   2.812  -1.380 -0.2809 -0.6174  0.0063
   79bbb    H13 2360   2.524   2.719  -1.391 -0.1413 -0.6249  0.7744
   79bbb    H14 2361   2.362   2.785  -1.396  0.1256 -2.3513  0.0565
   79bbb     C8 2362   3.124   2.962  -1.658 -0.4565 -0.0524 -0.0959
   79bbb    H15 2363   3.212   3.001  -1.711 -1.4868 -0.4658 -2.1898
   79bbb    H16 2364   3.161   2.950  -1.555 -0.2876 -2.4376 -0.3854
   79bbb     C9 2365   2.609   3.366  -1.718  0.7445  0.2657  0.2075
   79bbb    H17 2366   2.697   3.398  -1.775 -1.1341  0.3953 -2.8708
   79bbb    H18 2367   2.602   3.414  -1.620  1.0402  1.0945 -0.1680
   79bbb     O1 2368   2.486   2.855  -1.242 -0.5490  0.1513  0.3221
   79bbb    H19 2369   2.717   2.981  -1.700  0.1543 -0.4417 -0.2938
   80bbb     N1 2370   2.990   2.335  -0.185 -0.2341  0.0021 -0.3583
   80bbb     C1 2371   3.066   2.427  -0.093 -0.9557  0.2715 -0.3759
   80bbb     H1 2372   3.057   2.393   0.011  0.1831  0.5585 -0.1700
   80bbb     H2 2373   3.027   2.529  -0.098 -0.9496  0.2019 -2.8229
   80bbb     C2 2374   2.843   2.336  -0.155  0.1597 -0.2005 -0.2217
   80bbb     H3 2375   2.788   2.278  -0.229 -3.0936 -0.6946  2.3837
   80bbb     H4 2376   2.815   2.441  -0.158 -1.5258 -0.6154  0.2114
   80bbb     C3 2377   3.009   2.382  -0.328 -0.0018  0.2579  0.8175
   80bbb     H5 2378   2.963   2.315  -0.400 -1.1583  0.7396  1.0880
   80bbb     H6 2379   3.115   2.380  -0.356 -0.0797  1.5520  0.3534
   80bbb     C4 2380   2.967   2.533  -0.360  0.5809  0.5453 -0.5572
   80bbb     H7 2381   3.033   2.600  -0.303  0.2463  0.5396 -0.1618
   80bbb     H8 2382   2.867   2.543  -0.318  1.3595  1.6461  1.1539
   80bbb     C5 2383   3.222   2.433  -0.113 -0.0476  0.1733  0.0212
   80bbb     H9 2384   3.216   2.476  -0.213 -2.2938 -1.5077 -0.6549
   80bbb    H10 2385   3.261   2.331  -0.119  1.1182  0.3090  3.1048
   80bbb     C6 2386   2.803   2.279  -0.020  0.1587 -0.2267  0.8809
   80bbb    H11 2387   2.705   2.318   0.011  0.4442 -0.8883  2.7253
   80bbb    H12 2388   2.865   2.312   0.064  0.5975 -1.3879  1.0430
   80bbb     C7 2389   2.955   2.580  -0.508 -0.4911 -0.3150  0.1563
   80bbb    H13 2390   3.057   2.592  -0.546 -0.4170  2.2196  0.9546
   80bbb    H14 2391   2.904   2.677  -0.509  3.4304  1.9952  1.7745
   80bbb     C8 2392   2.795   2.124  -0.014 -0.1369 -0.1806 -0.2212
   80bbb    H15 2393   2.893   2.081   0.012 -0.0866  1.0714  1.9160
   80bbb    H16 2394   2.722   2.085   0.058  1.6267  0.0458  1.7692
   80bbb     C9 2395   3.299   2.519  -0.014  0.4346  0.3534  0.4102
   80bbb    H17 2396   3.313   2.467   0.081  0.8576  0.5232  0.4409
   80bbb    H18 2397   3.248   2.616  -0.003  1.0228  0.7308 -0.1152
   80bbb     O1 2398   2.890   2.471  -0.582  0.6280 -0.2557  1.0458
   80bbb    H19 2399   3.037   2.244  -0.170  2.0038  1.0579 -0.6894
   81bbb     N1 2400   1.493   3.214  -1.453  0.6134 -0.0226  0.8808
   81bbb     C1 2401   1.495   3.062  -1.432 -0.3186 -0.9428  1.1360
   81bbb     H1 2402   1.476   3.019  -1.530  1.7412 -0.5428  0.5211
   81bbb     H2 2403   1.410   3.029  -1.371 -2.1910 -0.2208 -0.9657
   81bbb     C2 2404   1.416   3.258  -1.575  0.4744  0.3860 -0.2288
   81bbb     H3 2405   1.471   3.216  -1.659  1.1582 -1.5329  1.1099
   81bbb     H4 2406   1.421   3.367  -1.582  1.2581  0.4049  0.5209
   81bbb     C3 2407   1.446   3.272  -1.323 -0.2214 -0.0734 -0.3484
   81bbb     H5 2408   1.507   3.227  -1.244  0.1028  1.4276  0.2935
   81bbb     H6 2409   1.342   3.248  -1.299 -0.0147 -1.0199 -0.3810
   81bbb     C4 2410   1.442   3.428  -1.315  0.0728 -0.0182 -0.3611
   81bbb     H7 2411   1.377   3.469  -1.394  1.3946 -0.6740 -1.8546
   81bbb     H8 2412   1.540   3.474  -1.335 -0.5178  0.6293 -1.9290
   81bbb     C5 2413   1.629   2.994  -1.384  0.0105 -0.3495 -0.0585
   81bbb     H9 2414   1.652   3.031  -1.284  0.0609 -0.3933 -0.0529
   81bbb    H10 2415   1.715   3.026  -1.445 -0.5351 -0.1179 -0.7220
   81bbb     C6 2416   1.267   3.217  -1.576  0.1987  0.5708  0.3424
   81bbb    H11 2417   1.213   3.243  -1.484 -2.1786 -0.5877 -0.6292
   81bbb    H12 2418   1.250   3.109  -1.583  2.0163  0.3540 -2.2557
   81bbb     C7 2419   1.383   3.472  -1.184 -1.0971  0.2004  0.1109
   81bbb    H13 2420   1.281   3.432  -1.184 -0.4153 -1.6990 -0.9290
   81bbb    H14 2421   1.381   3.582  -1.186  1.2328  0.3001 -0.5976
   81bbb     C8 2422   1.191   3.281  -1.700  0.3462  0.6622 -0.3279
   81bbb    H15 2423   1.086   3.252  -1.688  0.5993 -0.9841 -1.7203
   81bbb    H16 2424   1.204   3.390  -1.700  0.1902  0.6832 -0.5621
   81bbb     C9 2425   1.606   2.840  -1.377 -0.1541  0.3467 -0.2428
   81bbb    H17 2426   1.504   2.819  -1.343  0.1965  0.0567  0.6439
   81bbb    H18 2427   1.679   2.800  -1.306  1.4438 -0.9741 -2.5049
   81bbb     O1 2428   1.457   3.418  -1.071 -0.1200  0.0862  0.0251
   81bbb    H19 2429   1.591   3.245  -1.465  0.5673 -0.1407  0.1425
   82bbb     N1 2430   2.549   3.415  -0.901 -0.4361  0.1892  0.3927
   82bbb     C1 2431   2.523   3.504  -0.776 -0.1717 -0.0029 -0.7956
   82bbb     H1 2432   2.437   3.568  -0.799 -0.0956 -0.7704 -3.5927
   82bbb     H2 2433   2.612   3.563  -0.756  0.4820 -1.5658  1.1347
   82bbb     C2 2434   2.647   3.307  -0.866 -0.2500  0.5894 -0.1895
   82bbb     H3 2435   2.597   3.228  -0.811 -0.2342 -0.7429 -1.9763
   82bbb     H4 2436   2.727   3.348  -0.804  1.7111  1.1691 -2.8989
   82bbb     C3 2437   2.410   3.368  -0.946  0.6141 -0.1796  0.4109
   82bbb     H5 2438   2.345   3.352  -0.860 -1.4042 -0.7360 -1.1345
   82bbb     H6 2439   2.420   3.274  -1.000 -1.2695  0.7545 -1.7708
   82bbb     C4 2440   2.336   3.468  -1.045  0.0501 -0.0609  0.1660
   82bbb     H7 2441   2.288   3.414  -1.127 -0.3182  0.6682 -0.1019
   82bbb     H8 2442   2.404   3.525  -1.110  1.3004 -2.7151 -1.0214
   82bbb     C5 2443   2.473   3.429  -0.645 -0.5612 -0.2041  0.4379
   82bbb     H9 2444   2.542   3.348  -0.616 -0.5443  0.1615  1.4328
   82bbb    H10 2445   2.385   3.365  -0.658 -1.8958  0.8655  3.3847
   82bbb     C6 2446   2.717   3.225  -0.982  0.5738 -1.0753  0.3552
   82bbb    H11 2447   2.710   3.290  -1.071 -3.3263 -1.5140  0.1626
   82bbb    H12 2448   2.650   3.154  -1.031  0.2215  0.1934 -1.0710
   82bbb     C7 2449   2.231   3.552  -0.976  0.2563  0.0445  0.2628
   82bbb    H13 2450   2.182   3.597  -1.063 -0.1317 -2.7200 -1.0790
   82bbb    H14 2451   2.277   3.619  -0.903 -0.8162  1.4293 -0.2930
   82bbb     C8 2452   2.852   3.173  -0.953  0.2904  0.2242  0.1912
   82bbb    H15 2453   2.886   3.201  -0.853  0.5572 -2.1362  0.8144
   82bbb    H16 2454   2.861   3.065  -0.968 -0.7359 -0.2958  2.8080
   82bbb     C9 2455   2.449   3.521  -0.526 -0.8955 -0.3297  0.5867
   82bbb    H17 2456   2.422   3.465  -0.435  0.8070 -1.4078  0.4701
   82bbb    H18 2457   2.366   3.586  -0.558  0.4297  1.8346  1.3316
   82bbb     O1 2458   2.136   3.465  -0.920  0.8113 -0.0187  0.3600
   82bbb    H19 2459   2.582   3.474  -0.979  1.7187 -1.5787 -0.1218
   83bbb     N1 2460   0.578   2.564  -0.581 -0.5077 -0.3056 -0.8726
   83bbb     C1 2461   0.458   2.625  -0.651  0.1496  0.9439 -0.2091
   83bbb     H1 2462   0.379   2.656  -0.583  0.0648 -0.8416  0.5436
   83bbb     H2 2463   0.398   2.554  -0.709 -1.3969  1.2793  0.9332
   83bbb     C2 2464   0.631   2.672  -0.490  0.6064  0.1257 -0.2084
   83bbb     H3 2465   0.542   2.705  -0.436 -1.3687 -0.2584 -3.0122
   83bbb     H4 2466   0.653   2.762  -0.547  0.4016 -0.0451 -0.5628
   83bbb     C3 2467   0.535   2.450  -0.502 -0.4750  0.9259  0.0873
   83bbb     H5 2468   0.445   2.476  -0.446 -0.6096 -3.5623  2.4146
   83bbb     H6 2469   0.621   2.423  -0.442  1.2977  1.3708 -2.1201
   83bbb     C4 2470   0.493   2.326  -0.594  0.7060 -0.1125 -0.1671
   83bbb     H7 2471   0.399   2.353  -0.643  1.6497  2.8263 -0.5526
   83bbb     H8 2472   0.474   2.242  -0.526  0.7568 -0.3363 -0.4291
   83bbb     C5 2473   0.479   2.743  -0.746 -0.6066  0.1506  0.9468
   83bbb     H9 2474   0.518   2.828  -0.690 -1.2836  1.8792 -1.0628
   83bbb    H10 2475   0.386   2.775  -0.793 -0.3374  1.4179  1.2534
   83bbb     C6 2476   0.747   2.642  -0.398 -0.6846  0.2487 -1.0955
   83bbb    H11 2477   0.845   2.644  -0.448 -0.4160  0.4877 -0.5670
   83bbb    H12 2478   0.735   2.548  -0.342  2.2419  0.4423  0.0743
   83bbb     C7 2479   0.588   2.279  -0.701  0.0508  0.5654  0.3238
   83bbb    H13 2480   0.624   2.374  -0.744  1.6985 -0.1843 -0.0166
   83bbb    H14 2481   0.540   2.212  -0.774  1.3619 -1.3134  1.1167
   83bbb     C8 2482   0.758   2.758  -0.297  0.6046 -0.6271  0.3463
   83bbb    H15 2483   0.665   2.778  -0.241  0.8321  0.0810  0.4862
   83bbb    H16 2484   0.833   2.738  -0.220  1.8313  0.8544 -0.4104
   83bbb     C9 2485   0.587   2.710  -0.857 -0.3394  0.6309 -0.2471
   83bbb    H17 2486   0.689   2.732  -0.823 -0.9126  3.3415 -0.0728
   83bbb    H18 2487   0.580   2.782  -0.940 -1.0889  0.9023  0.0410
   83bbb     O1 2488   0.693   2.203  -0.637 -0.5542 -0.0320 -0.2086
   83bbb    H19 2489   0.657   2.536  -0.641  2.0979  1.0450  1.6901
   84bbb     N1 2490   0.783   1.488  -1.175 -0.6538  0.2527  0.2326
   84bbb     C1 2491   0.789   1.350  -1.245  0.3471 -1.0448  1.2906
   84bbb     H1 2492   0.707   1.286  -1.213  0.2046 -1.1423  0.7527
   84bbb     H2 2493   0.883   1.297  -1.226  1.1267  0.1144  0.8135
   84bbb     C2 2494   0.638   1.523  -1.165  0.0376 -0.5450 -0.0128
   84bbb     H3 2495   0.587   1.439  -1.116 -2.1803  0.5060 -0.3831
   84bbb     H4 2496   0.601   1.534  -1.267 -1.8490  1.2142  0.7807
   84bbb     C3 2497   0.852   1.474  -1.039  0.6577 -0.0211 -0.2259
   84bbb     H5 2498   0.887   1.370  -1.034  0.4752 -0.0465  1.1014
   84bbb     H6 2499   0.775   1.473  -0.962  2.2969  0.9358  1.5155
   84bbb     C4 2500   0.970   1.564  -1.007  0.2673 -0.2454  0.1995
   84bbb     H7 2501   0.942   1.669  -1.028 -0.9170 -0.6618 -0.4488
   84bbb     H8 2502   1.059   1.536  -1.064  1.1030 -0.9122  1.7902
   84bbb     C5 2503   0.775   1.357  -1.405 -0.6212 -0.0942  0.1414
   84bbb     H9 2504   0.868   1.407  -1.434  0.0760 -0.5069  1.6044
   84bbb    H10 2505   0.701   1.425  -1.448 -0.8570  0.4002  1.3035
   84bbb     C6 2506   0.602   1.652  -1.086 -0.1666 -0.2681 -0.0876
   84bbb    H11 2507   0.658   1.741  -1.117  1.0526 -1.3118 -0.9886
   84bbb    H12 2508   0.624   1.626  -0.981 -0.8861 -0.4753  0.0199
   84bbb     C7 2509   1.015   1.574  -0.860 -0.4861 -0.0518 -0.2253
   84bbb    H13 2510   1.104   1.637  -0.845  0.0336 -0.2205 -2.3922
   84bbb    H14 2511   1.043   1.471  -0.833  0.0954 -0.1167 -1.0637
   84bbb     C8 2512   0.447   1.683  -1.097 -0.1400 -0.1710  0.1908
   84bbb    H15 2513   0.388   1.594  -1.071  0.3849 -0.6275 -0.1419
   84bbb    H16 2514   0.425   1.771  -1.036 -1.9126  0.0520 -0.7246
   84bbb     C9 2515   0.780   1.214  -1.468 -0.5912  0.1251 -0.0817
   84bbb    H17 2516   0.877   1.169  -1.448 -0.8395 -0.5011 -0.2595
   84bbb    H18 2517   0.765   1.224  -1.576 -0.6215  3.1840  0.1089
   84bbb     O1 2518   0.919   1.629  -0.773  0.4404 -0.0477 -0.6768
   84bbb    H19 2519   0.833   1.549  -1.242  2.9498 -1.4306  1.1326
   85bbb     N1 2520   2.929   0.254   0.075 -0.4881  0.4956  0.2620
   85bbb     C1 2521   2.993   0.243   0.209 -0.8077 -0.1002 -0.5371
   85bbb     H1 2522   3.009   0.137   0.229  0.2644  0.1587  0.0820
   85bbb     H2 2523   2.931   0.271   0.294  1.1712  0.9225  0.6505
   85bbb     C2 2524   2.833   0.142   0.060  0.0593 -0.2205 -0.4044
   85bbb     H3 2525   2.792   0.159  -0.039 -1.0272 -0.9444 -0.0923
   85bbb     H4 2526   2.754   0.146   0.135  2.5765 -2.3118  2.6752
   85bbb     C3 2527   2.848   0.386   0.069  1.0684  0.4358  0.0159
   85bbb     H5 2528   2.911   0.474   0.080  0.3090  1.3900 -2.4521
   85bbb     H6 2529   2.784   0.378   0.156 -0.4508  1.7274 -0.9293
   85bbb     C4 2530   2.749   0.405  -0.048  0.4290  0.0614 -0.5176
   85bbb     H7 2531   2.680   0.321  -0.064  2.3086 -2.1239  2.0093
   85bbb     H8 2532   2.812   0.400  -0.137  1.3646  3.7017 -0.2492
   85bbb     C5 2533   3.121   0.334   0.222  0.4655  0.4070  0.5456
   85bbb     H9 2534   3.088   0.435   0.197 -0.8271  0.3116  1.7764
   85bbb    H10 2535   3.208   0.302   0.163  0.8334  2.0620  0.1581
   85bbb     C6 2536   2.880  -0.004   0.066  0.1062 -0.5040  0.0237
   85bbb    H11 2537   2.795  -0.072   0.049  0.1927 -0.4450 -0.6977
   85bbb    H12 2538   2.925  -0.028   0.163 -1.4882  2.4784  1.6256
   85bbb     C7 2539   2.689   0.557  -0.065  0.6605 -0.4470 -0.5994
   85bbb    H13 2540   2.769   0.630  -0.051 -0.7070  1.0029 -0.0375
   85bbb    H14 2541   2.614   0.574   0.013  1.2230  0.2425 -0.1958
   85bbb     C8 2542   2.987  -0.033  -0.050 -0.1132 -0.1003 -0.3295
   85bbb    H15 2543   3.088  -0.012  -0.011  0.9739 -1.9313 -1.9877
   85bbb    H16 2544   2.985  -0.138  -0.081 -0.4595 -0.2093  0.0471
   85bbb     C9 2545   3.156   0.348   0.370  0.3601  0.2937  0.3591
   85bbb    H17 2546   3.166   0.258   0.431  1.9987 -0.0203 -0.3009
   85bbb    H18 2547   3.073   0.405   0.413  0.6499 -0.5584  2.1120
   85bbb     O1 2548   2.624   0.564  -0.199 -0.4761 -0.5914 -0.5736
   85bbb    H19 2549   3.001   0.248   0.003 -0.5445  0.9816  0.1619
   86bbb     N1 2550   2.571   1.369  -1.009 -0.6315  0.1504 -0.1411
   86bbb     C1 2551   2.720   1.365  -1.047  0.9908 -1.0542  0.2869
   86bbb     H1 2552   2.783   1.370  -0.958  0.9631  0.4051  0.2515
   86bbb     H2 2553   2.743   1.456  -1.102  1.9164 -1.4131  0.0502
   86bbb     C2 2554   2.483   1.372  -1.126 -0.1212 -0.2229 -0.0590
   86bbb     H3 2555   2.472   1.275  -1.175 -0.4433  0.1899 -0.8189
   86bbb     H4 2556   2.530   1.442  -1.195 -0.9277  0.4092  0.0278
   86bbb     C3 2557   2.541   1.242  -0.920 -0.0867 -0.7543 -0.0942
   86bbb     H5 2558   2.582   1.154  -0.970  1.7127 -0.1231  0.2047
   86bbb     H6 2559   2.436   1.212  -0.928 -0.2008 -1.2002  2.3746
   86bbb     C4 2560   2.588   1.251  -0.777 -0.0255 -0.2967 -0.0794
   86bbb     H7 2561   2.512   1.302  -0.716 -2.4375 -0.6850 -2.5061
   86bbb     H8 2562   2.678   1.313  -0.781 -0.1148 -0.0905  0.8787
   86bbb     C5 2563   2.765   1.251  -1.143  0.4582 -0.2670 -0.3753
   86bbb     H9 2564   2.725   1.265  -1.244 -2.8146 -1.1851  0.6690
   86bbb    H10 2565   2.718   1.157  -1.111  0.5747  0.4515  2.1827
   86bbb     C6 2566   2.342   1.430  -1.101  0.7487 -0.3611 -1.3085
   86bbb    H11 2567   2.356   1.538  -1.081 -0.0332 -0.4237 -0.3616
   86bbb    H12 2568   2.304   1.398  -1.003  2.1436  0.5645 -0.4205
   86bbb     C7 2569   2.628   1.129  -0.704 -0.4218  0.0709  0.8953
   86bbb    H13 2570   2.683   1.145  -0.610  0.2534 -1.7787  0.8572
   86bbb    H14 2571   2.706   1.078  -0.763 -2.4863 -0.4497 -1.5464
   86bbb     C8 2572   2.239   1.397  -1.215  0.4648  0.6507 -0.7559
   86bbb    H15 2573   2.240   1.289  -1.236 -1.5243  0.2830  0.7526
   86bbb    H16 2574   2.138   1.428  -1.186  0.8668  2.2078 -0.9866
   86bbb     C9 2575   2.915   1.226  -1.149  0.2368  0.4735 -0.1082
   86bbb    H17 2576   2.932   1.134  -1.207 -0.4210  0.2243  0.0833
   86bbb    H18 2577   2.942   1.198  -1.047 -0.6079 -1.3228 -0.3371
   86bbb     O1 2578   2.513   1.035  -0.684  0.0808  0.2074  0.0725
   86bbb    H19 2579   2.550   1.449  -0.948 -1.1056 -0.7876  0.9879
   87bbb     N1 2580   4.267   1.500   2.177  0.3389 -0.5640 -0.0887
   87bbb     C1 2581   4.294   1.462   2.028 -0.7100  0.3873  0.6515
   87bbb     H1 2582   4.219   1.384   2.013  0.1322 -0.9419  2.9973
   87bbb     H2 2583   4.392   1.415   2.027 -0.7764  0.2345 -0.6425
   87bbb     C2 2584   4.387   1.575   2.224  0.1416 -0.2396  1.5014
   87bbb     H3 2585   4.430   1.615   2.132  1.1150 -0.5440  1.8106
   87bbb     H4 2586   4.451   1.489   2.244  0.2408 -0.4043  0.5158
   87bbb     C3 2587   4.139   1.574   2.196  0.4104 -0.1979  0.1354
   87bbb     H5 2588   4.152   1.660   2.130  0.4215  0.5095  1.0374
   87bbb     H6 2589   4.135   1.613   2.298 -2.0924  1.3896 -0.4918
   87bbb     C4 2590   4.021   1.480   2.168  0.3375  0.1710  0.2965
   87bbb     H7 2591   4.007   1.407   2.249 -3.5536  0.3176 -0.0355
   87bbb     H8 2592   4.032   1.426   2.073  1.1544  0.1917  0.3686
   87bbb     C5 2593   4.268   1.570   1.914 -0.0979  0.1819  0.1353
   87bbb     H9 2594   4.340   1.648   1.939 -0.0338 -0.1797  1.1064
   87bbb    H10 2595   4.166   1.611   1.902 -1.4729 -2.9274  0.2073
   87bbb     C6 2596   4.373   1.672   2.347  0.9260 -0.2039 -0.3549
   87bbb    H11 2597   4.336   1.617   2.434  0.0794  0.3463 -0.3563
   87bbb    H12 2598   4.290   1.743   2.333  1.0429  0.3889  1.6797
   87bbb     C7 2599   3.892   1.561   2.155 -0.3138  0.7334  0.3938
   87bbb    H13 2600   3.863   1.598   2.254 -1.5880  0.3427  0.1823
   87bbb    H14 2601   3.813   1.490   2.128  0.5734  0.5289 -1.8687
   87bbb     C8 2602   4.496   1.743   2.391 -0.6359  0.0897 -0.5486
   87bbb    H15 2603   4.497   1.773   2.496 -1.1022  2.5917 -1.1842
   87bbb    H16 2604   4.582   1.676   2.374 -0.3847  0.4395 -0.6778
   87bbb     C9 2605   4.307   1.517   1.768 -1.5713 -0.2051 -0.6598
   87bbb    H17 2606   4.312   1.606   1.706  0.2884 -1.1470 -1.9422
   87bbb    H18 2607   4.239   1.440   1.729 -2.0170 -1.5815  2.4667
   87bbb     O1 2608   3.908   1.668   2.064  0.3035  0.2454  0.8578
   87bbb    H19 2609   4.264   1.410   2.227  0.9776 -1.2704 -1.2762
   88bbb     N1 2610   4.077   2.189   2.904 -0.5980 -0.1600 -0.4949
   88bbb     C1 2611   3.946   2.118   2.952 -0.4784 -1.0614  0.3649
   88bbb     H1 2612   3.934   2.147   3.057  1.0540  0.4545  0.1582
   88bbb     H2 2613   3.973   2.013   2.950  2.6001 -0.4781  3.0315
   88bbb     C2 2614   4.167   2.210   3.026  0.6135  0.5733 -0.3097
   88bbb     H3 2615   4.112   2.276   3.094  0.4785  1.1177 -0.9465
   88bbb     H4 2616   4.254   2.269   2.998 -0.5452  2.0244 -0.9738
   88bbb     C3 2617   4.153   2.122   2.792  0.0532 -0.1068  0.2845
   88bbb     H5 2618   4.086   2.115   2.707  0.4060  2.1945 -0.2497
   88bbb     H6 2619   4.191   2.023   2.820  0.7734 -0.2507 -1.1227
   88bbb     C4 2620   4.274   2.201   2.746 -0.1256 -0.8154  0.3525
   88bbb     H7 2621   4.344   2.198   2.830 -1.6917 -0.2303  1.7381
   88bbb     H8 2622   4.253   2.308   2.738  1.9694 -0.3630  0.3223
   88bbb     C5 2623   3.834   2.156   2.863 -0.5419  0.2342 -0.8190
   88bbb     H9 2624   3.857   2.168   2.756 -3.7849  2.1852 -1.4629
   88bbb    H10 2625   3.788   2.253   2.888 -0.4478 -0.0612  0.5522
   88bbb     C6 2626   4.235   2.079   3.079 -0.1308 -0.1706  0.9145
   88bbb    H11 2627   4.336   2.064   3.039 -0.0437 -2.5937  1.9075
   88bbb    H12 2628   4.177   1.989   3.056  2.4193 -1.4407 -1.1851
   88bbb     C7 2629   4.338   2.146   2.620  0.1853  0.5080 -0.0480
   88bbb    H13 2630   4.384   2.052   2.652 -3.6626 -1.7975 -0.6272
   88bbb    H14 2631   4.414   2.221   2.594  0.3824  1.5650  3.1228
   88bbb     C8 2632   4.253   2.090   3.227 -0.1642 -0.2896 -0.4860
   88bbb    H15 2633   4.325   2.016   3.264  3.1643  1.3870 -3.0596
   88bbb    H16 2634   4.294   2.191   3.241 -0.4206 -0.2383 -0.1056
   88bbb     C9 2635   3.722   2.046   2.870 -0.0378 -0.1283 -0.5351
   88bbb    H17 2636   3.642   2.069   2.798  0.0955  0.4028 -0.5203
   88bbb    H18 2637   3.677   2.065   2.968  1.8600 -1.3943  0.6452
   88bbb     O1 2638   4.241   2.128   2.512 -0.3307  0.0986 -0.5394
   88bbb    H19 2639   4.043   2.276   2.860 -0.5077 -0.0194 -0.2878
   89bbb     N1 2640   4.701   3.724   1.278 -0.3406  0.0222  0.2890
   89bbb     C1 2641   4.617   3.854   1.262  0.1506 -0.3275  0.9159
   89bbb     H1 2642   4.674   3.923   1.200  0.8975 -0.1138  1.8209
   89bbb     H2 2643   4.607   3.895   1.362  2.1683  2.9002 -0.0797
   89bbb     C2 2644   4.823   3.757   1.353 -0.3702  0.0680  0.0882
   89bbb     H3 2645   4.873   3.662   1.372  0.3571  0.2559 -0.8545
   89bbb     H4 2646   4.788   3.796   1.449 -0.6951  0.3150 -0.1260
   89bbb     C3 2647   4.616   3.633   1.366 -0.4250 -0.1866  0.2653
   89bbb     H5 2648   4.514   3.635   1.327  0.1740  0.1177 -1.3637
   89bbb     H6 2649   4.604   3.683   1.463 -0.2399  0.4582 -0.0400
   89bbb     C4 2650   4.676   3.493   1.394  0.2031  0.1327  0.5499
   89bbb     H7 2651   4.763   3.503   1.461  0.2903 -0.1132  0.4740
   89bbb     H8 2652   4.712   3.456   1.298 -2.3165  2.2681 -1.3849
   89bbb     C5 2653   4.470   3.840   1.210  0.3352  0.4218  0.0437
   89bbb     H9 2654   4.397   3.795   1.280 -0.4331  1.2452 -0.2083
   89bbb    H10 2655   4.465   3.765   1.130 -0.8514  1.5251 -0.9593
   89bbb     C6 2656   4.920   3.860   1.290  0.3696 -0.6208 -0.2663
   89bbb    H11 2657   4.873   3.957   1.311  1.4195 -0.8111  3.8841
   89bbb    H12 2658   4.939   3.850   1.182  0.7953 -0.5918 -0.1935
   89bbb     C7 2659   4.569   3.395   1.434  0.7806  0.2623 -0.6654
   89bbb    H13 2660   4.515   3.442   1.517 -0.5570 -0.2626 -1.2020
   89bbb    H14 2661   4.606   3.304   1.482 -0.1422  1.0043  1.5982
   89bbb     C8 2662   5.054   3.855   1.360  0.4383 -0.3064  0.0902
   89bbb    H15 2663   5.110   3.938   1.314 -0.5416  1.0857  1.3176
   89bbb    H16 2664   5.036   3.876   1.466 -1.0648 -0.2919 -0.1414
   89bbb     C9 2665   4.418   3.978   1.157 -0.4229  0.0767 -0.3975
   89bbb    H17 2666   4.403   4.043   1.244 -2.1544 -1.3754  0.4504
   89bbb    H18 2667   4.323   3.951   1.109  0.1468 -2.5006 -0.2335
   89bbb     O1 2668   4.477   3.371   1.321 -0.0800 -0.2480 -0.1339
   89bbb    H19 2669   4.724   3.682   1.187  2.3136  2.4274 -0.2847
   90bbb     N1 2670   4.882   2.579   0.975  0.4000  0.1685 -0.0635
   90bbb     C1 2671   4.935   2.482   1.080 -0.6039 -0.0672 -0.0076
   90bbb     H1 2672   4.842   2.446   1.126 -0.2428  0.9532  1.6111
   90bbb     H2 2673   4.994   2.537   1.154 -0.7304  0.9091 -0.6164
   90bbb     C2 2674   4.735   2.554   0.935  0.2564  0.0470 -0.4798
   90bbb     H3 2675   4.696   2.639   0.880  1.5512  1.4612  0.6851
   90bbb     H4 2676   4.678   2.549   1.028 -0.8326 -2.1243 -1.1925
   90bbb     C3 2677   4.876   2.723   1.035  0.2438 -0.2502  0.4558
   90bbb     H5 2678   4.821   2.721   1.129  0.7806  0.2532  0.7885
   90bbb     H6 2679   4.831   2.785   0.958 -0.8602  1.2036  2.2005
   90bbb     C4 2680   5.007   2.787   1.064  0.0473 -0.1331  1.2199
   90bbb     H7 2681   5.081   2.751   0.991  0.6629 -0.4695  1.9911
   90bbb     H8 2682   5.037   2.754   1.165  0.9241 -0.3650  0.8889
   90bbb     C5 2683   5.017   2.353   1.053  0.0278  0.6085 -0.2321
   90bbb     H9 2684   4.974   2.298   0.970  0.9122 -1.0255  0.3522
   90bbb    H10 2685   4.990   2.277   1.127 -2.3358  0.2267 -1.4080
   90bbb     C6 2686   4.713   2.430   0.840  0.1835 -0.9349 -0.0916
   90bbb    H11 2687   4.606   2.419   0.820  0.2407  0.0406 -1.0816
   90bbb    H12 2688   4.731   2.340   0.899 -1.3332  0.3272  2.4651
   90bbb     C7 2689   4.991   2.938   1.083 -0.1037 -0.8799 -0.1866
   90bbb    H13 2690   5.086   2.987   1.058 -1.5820  1.2718 -1.9706
   90bbb    H14 2691   4.959   2.963   1.184 -2.9988  3.4251 -1.8829
   90bbb     C8 2692   4.793   2.440   0.711  0.0198 -0.1380  0.4140
   90bbb    H15 2693   4.896   2.462   0.744  0.3282  1.2246 -1.2825
   90bbb    H16 2694   4.785   2.341   0.664 -2.1515  0.7759 -1.3028
   90bbb     C9 2695   5.165   2.377   1.030 -1.1478  0.1853  0.1868
   90bbb    H17 2696   5.181   2.425   0.933  1.7015  0.0442  0.5055
   90bbb    H18 2697   5.209   2.276   1.034 -2.9201 -0.6014  1.3586
   90bbb     O1 2698   4.892   2.990   0.984 -0.4295  0.2740  0.1357
   90bbb    H19 2699   4.939   2.577   0.889 -2.6697 -3.3485 -2.3257
   91bbb     N1 2700   3.648   4.135   0.077  0.6963  0.3696 -0.2146
   91bbb     C1 2701   3.533   4.211   0.000 -0.0924 -0.6859 -0.0643
   91bbb     H1 2702   3.460   4.253   0.070  0.1838  1.1565 -0.8195
   91bbb     H2 2703   3.479   4.143  -0.066 -1.4024 -0.3480  0.6091
   91bbb     C2 2704   3.734   4.223   0.169 -0.6557 -0.9377 -0.0146
   91bbb     H3 2705   3.668   4.245   0.254  0.7086  0.1715  0.8073
   91bbb     H4 2706   3.747   4.314   0.110  0.5380  0.2699  1.9715
   91bbb     C3 2707   3.576   4.039   0.163  0.7211 -0.0177  0.0024
   91bbb     H5 2708   3.480   4.074   0.203 -0.1586  0.4022 -2.2835
   91bbb     H6 2709   3.636   4.011   0.249 -0.8293 -0.9014  0.8448
   91bbb     C4 2710   3.541   3.905   0.100  0.2670 -0.6934 -0.2054
   91bbb     H7 2711   3.637   3.859   0.073  1.2218  0.7098  0.6618
   91bbb     H8 2712   3.488   3.918   0.004 -0.4571  4.5076  0.5944
   91bbb     C5 2713   3.582   4.331  -0.075 -0.0503  0.1412  0.5756
   91bbb     H9 2714   3.678   4.309  -0.123 -1.8309 -2.7323 -2.0277
   91bbb    H10 2715   3.603   4.405   0.004  0.9247  1.4136 -0.8127
   91bbb     C6 2716   3.867   4.183   0.230 -0.7038 -0.4366  0.5087
   91bbb    H11 2717   3.854   4.091   0.289  2.9064 -1.4442 -0.0086
   91bbb    H12 2718   3.889   4.256   0.309 -1.0521  0.2017  0.0237
   91bbb     C7 2719   3.469   3.809   0.201 -0.2303 -0.8270 -0.0564
   91bbb    H13 2720   3.443   3.722   0.140 -2.6370 -0.2855  0.1012
   91bbb    H14 2721   3.374   3.858   0.227  0.1665  0.3748 -0.7833
   91bbb     C8 2722   3.986   4.161   0.132  0.2108 -0.3611  0.5342
   91bbb    H15 2723   4.066   4.110   0.186  1.0513 -0.3116 -0.6146
   91bbb    H16 2724   3.958   4.099   0.046  1.0173 -0.3227  0.2341
   91bbb     C9 2725   3.488   4.393  -0.181  0.4476 -0.3888  0.1373
   91bbb    H17 2726   3.537   4.473  -0.238 -0.4137 -1.1852 -1.8131
   91bbb    H18 2727   3.400   4.427  -0.127 -0.5572 -0.2155 -1.5317
   91bbb     O1 2728   3.564   3.774   0.307 -0.2975  0.2179  0.5519
   91bbb    H19 2729   3.708   4.086   0.009  1.4899  1.0193 -0.0046
   92bbb     N1 2730   4.483   3.549  -0.258 -0.1229  0.2880 -0.3973
   92bbb     C1 2731   4.485   3.707  -0.272 -0.1576  0.0028 -0.0515
   92bbb     H1 2732   4.590   3.737  -0.270 -0.7859  2.4614  0.6343
   92bbb     H2 2733   4.438   3.744  -0.180 -0.4594 -2.7008  0.9662
   92bbb     C2 2734   4.561   3.514  -0.128  0.1694  0.3008  0.4704
   92bbb     H3 2735   4.520   3.420  -0.091  1.4256  0.2955  1.9180
   92bbb     H4 2736   4.536   3.591  -0.054 -1.8554 -2.5568  3.0004
   92bbb     C3 2737   4.336   3.501  -0.261 -0.4278 -0.0657  0.4297
   92bbb     H5 2738   4.336   3.392  -0.273 -0.7734  0.0746 -1.0170
   92bbb     H6 2739   4.291   3.542  -0.352  1.1869 -0.6578 -0.6957
   92bbb     C4 2740   4.246   3.548  -0.143  0.5659 -0.4805 -0.2127
   92bbb     H7 2741   4.148   3.580  -0.180  0.1718 -1.0598  0.3148
   92bbb     H8 2742   4.292   3.636  -0.097 -0.0369 -0.5667  0.5635
   92bbb     C5 2743   4.428   3.777  -0.399  0.6023  0.3370  0.1302
   92bbb     H9 2744   4.425   3.886  -0.391 -2.6717  0.4383 -0.9684
   92bbb    H10 2745   4.321   3.757  -0.415  0.5942  1.4237 -1.3762
   92bbb     C6 2746   4.708   3.510  -0.154 -0.5120  0.5747 -0.7984
   92bbb    H11 2747   4.732   3.597  -0.216 -2.0504  2.3846  0.9913
   92bbb    H12 2748   4.746   3.422  -0.208  0.3854  0.6743 -0.3549
   92bbb     C7 2749   4.215   3.439  -0.037  0.6298  1.0892  0.3589
   92bbb    H13 2750   4.311   3.390  -0.014 -0.4576 -0.3428  2.0652
   92bbb    H14 2751   4.132   3.377  -0.074 -1.5807  2.0877  3.2910
   92bbb     C8 2752   4.790   3.522  -0.026 -0.1524  0.6305 -0.0318
   92bbb    H15 2753   4.749   3.447   0.043  0.0236  1.1825  0.6890
   92bbb    H16 2754   4.895   3.490  -0.029 -0.4513 -0.3093 -1.0301
   92bbb     C9 2755   4.503   3.735  -0.527  0.0521 -0.4467 -0.3060
   92bbb    H17 2756   4.612   3.745  -0.517  0.4971 -1.6505 -3.1316
   92bbb    H18 2757   4.471   3.807  -0.604  1.0438  0.0987 -0.2242
   92bbb     O1 2758   4.175   3.505   0.090  0.2648 -0.3612  0.3274
   92bbb    H19 2759   4.531   3.520  -0.344 -0.8024  0.7233 -0.9295
   93bbb     N1 2760   3.153   3.765   1.128 -0.4858 -0.0349  0.1045
   93bbb     C1 2761   3.079   3.637   1.127  0.2430  0.5157 -0.3669
   93bbb     H1 2762   2.984   3.653   1.178  0.2748  2.0731 -0.7353
   93bbb     H2 2763   3.142   3.565   1.177  2.9426  2.3616 -0.8589
   93bbb     C2 2764   3.142   3.828   1.268 -0.6354 -0.3463 -0.5030
   93bbb     H3 2765   3.211   3.913   1.268  1.1847 -1.7493  0.2157
   93bbb     H4 2766   3.160   3.753   1.345  1.1074  2.0943  1.6522
   93bbb     C3 2767   3.301   3.746   1.090 -0.2428  0.8051  0.2158
   93bbb     H5 2768   3.340   3.845   1.067 -0.7711  0.3759 -2.9586
   93bbb     H6 2769   3.292   3.685   1.000  1.2852  0.2570  0.4113
   93bbb     C4 2770   3.388   3.677   1.192  0.2036 -0.3228  0.5122
   93bbb     H7 2771   3.341   3.590   1.239  0.4338 -0.2300  0.9177
   93bbb     H8 2772   3.415   3.744   1.275 -1.4616  1.3346 -0.2289
   93bbb     C5 2773   3.037   3.589   0.986 -0.5026  0.0401 -0.5745
   93bbb     H9 2774   3.024   3.481   0.993 -2.8106  0.1129 -2.5412
   93bbb    H10 2775   3.122   3.605   0.918  0.2615  1.4953  0.6575
   93bbb     C6 2776   3.006   3.893   1.301  0.5479 -1.2309 -0.6315
   93bbb    H11 2777   2.926   3.825   1.272  0.1195 -1.1951  0.4269
   93bbb    H12 2778   2.997   3.989   1.248  1.5260  0.2339  1.6706
   93bbb     C7 2779   3.523   3.627   1.131 -0.2591  0.4369 -0.2340
   93bbb    H13 2780   3.581   3.708   1.085  0.2499 -0.5242 -1.3532
   93bbb    H14 2781   3.497   3.555   1.052 -1.3424 -0.3518  0.8157
   93bbb     C8 2782   2.991   3.946   1.449  0.0217 -0.0454 -0.2024
   93bbb    H15 2783   3.065   4.024   1.472  0.5382 -0.4096 -0.6002
   93bbb    H16 2784   2.891   3.985   1.474 -0.4687 -1.5781  0.3413
   93bbb     C9 2785   2.908   3.658   0.941 -0.5843 -0.8238  0.0272
   93bbb    H17 2786   2.823   3.627   1.003 -0.7802 -1.2660 -0.4594
   93bbb    H18 2787   2.873   3.615   0.846 -1.5179  0.9652 -0.4809
   93bbb     O1 2788   3.608   3.570   1.235  1.2207 -0.0622  0.1421
   93bbb    H19 2789   3.104   3.817   1.054  1.6419  1.0802 -0.5859
   94bbb     N1 2790   3.967   3.915   2.183 -0.2854 -0.2035  0.2704
   94bbb     C1 2791   4.081   3.846   2.264 -0.2529 -0.3769  0.2914
   94bbb     H1 2792   4.095   3.741   2.237  3.9727  0.3207 -0.9252
   94bbb     H2 2793   4.046   3.851   2.367 -0.4363 -0.0018  0.2115
   94bbb     C2 2794   3.957   4.062   2.228  0.1896  0.1993 -0.2021
   94bbb     H3 2795   3.944   4.133   2.147  0.2229  0.0726 -0.3184
   94bbb     H4 2796   4.041   4.096   2.289  0.7346  0.8635 -1.2912
   94bbb     C3 2797   4.004   3.908   2.033  0.2791 -0.3140 -0.4965
   94bbb     H5 2798   4.096   3.966   2.024 -0.3783  0.7980 -0.3762
   94bbb     H6 2799   3.930   3.967   1.978  0.1832  1.5534  1.4541
   94bbb     C4 2800   4.017   3.763   1.979  0.1664 -0.5935 -0.6867
   94bbb     H7 2801   3.945   3.705   2.037 -0.6759 -0.3868 -1.5059
   94bbb     H8 2802   4.118   3.728   2.002  0.2060 -0.8841 -1.2617
   94bbb     C5 2803   4.226   3.913   2.254  0.2722  0.1334  0.2265
   94bbb     H9 2804   4.229   4.021   2.269  1.3507  0.4205 -1.7912
   94bbb    H10 2805   4.267   3.881   2.157 -0.1311 -0.2841  0.1830
   94bbb     C6 2806   3.836   4.081   2.319 -0.1645 -0.5670  0.2513
   94bbb    H11 2807   3.748   4.028   2.280 -2.3222  1.3172  2.1998
   94bbb    H12 2808   3.799   4.185   2.316 -2.6055 -1.3748  0.0322
   94bbb     C7 2809   3.990   3.748   1.828 -1.1084 -0.0713  0.3312
   94bbb    H13 2810   3.993   3.643   1.796  0.0481  0.3548 -1.0659
   94bbb    H14 2811   4.064   3.799   1.766 -3.4783  1.9492 -1.0442
   94bbb     C8 2812   3.858   4.037   2.463 -0.1494  0.2684 -0.3203
   94bbb    H15 2813   3.950   4.071   2.513  0.1370 -2.5475  1.2244
   94bbb    H16 2814   3.777   4.085   2.521  0.0357  1.8792 -1.3115
   94bbb     C9 2815   4.321   3.841   2.357  0.2673  0.7076 -0.3247
   94bbb    H17 2816   4.290   3.868   2.458 -0.4373 -1.0116 -0.0531
   94bbb    H18 2817   4.422   3.875   2.330  0.7681 -0.6698 -0.2427
   94bbb     O1 2818   3.856   3.798   1.791  0.1566 -0.0210  0.7448
   94bbb    H19 2819   3.884   3.861   2.209  1.3176 -1.7063  2.7225
   95ccc     C1 2820   2.991  -0.337   4.048 -0.6848  0.2105  0.4069
   95ccc     H1 2821   2.894  -0.312   4.002  0.1969  0.7571 -1.2458
   95ccc     H2 2822   3.029  -0.434   4.016  0.0986  0.5902  0.1778
   95ccc     C2 2823   2.963  -0.337   4.191  0.6264 -0.5609 -0.4412
   95ccc     H3 2824   3.055  -0.317   4.248  0.5088 -0.9740 -0.1080
   95ccc     H4 2825   2.907  -0.424   4.227  0.5360  0.3071  1.6146
   95ccc     C3 2826   2.870  -0.220   4.225  0.3425 -1.1430 -0.3981
   95ccc     H5 2827   2.776  -0.234   4.171 -0.2678 -2.2617  0.8925
   95ccc     H6 2828   2.919  -0.128   4.192 -0.0550 -0.2057  1.4334
   95ccc     N1 2829   2.843  -0.220   4.376 -0.0504  0.7421  0.1773
   95ccc     C4 2830   2.969  -0.181   4.455  0.1139 -0.1698  0.1534
   95ccc     H7 2831   2.991  -0.075   4.442 -1.1073 -0.2097 -2.8953
   95ccc     H8 2832   3.055  -0.231   4.411 -0.9875 -0.6088 -1.5567
   95ccc     C5 2833   2.966  -0.200   4.610 -0.7332 -0.1800  0.0490
   95ccc     H9 2834   2.891  -0.131   4.652 -0.7328  0.2664 -0.6602
   95ccc    H10 2835   2.930  -0.302   4.626 -0.9912  0.0231  0.8066
   95ccc     C6 2836   3.106  -0.189   4.669  0.5526  0.8001 -0.2623
   95ccc     O1 2837   3.194  -0.119   4.627  0.0250  0.1205  0.2365
   95ccc     O2 2838   3.102  -0.187   4.804 -0.5185  0.4392  0.3628
   95ccc    H11 2839   3.010  -0.208   4.831 -0.1183 -1.0609  0.6978
   95ccc     C7 2840   2.731  -0.123   4.410 -0.3155 -0.3960  0.5978
   95ccc    H12 2841   2.739  -0.107   4.518  0.1629  0.4233  0.4501
   95ccc    H13 2842   2.746  -0.025   4.363  1.7792  0.2182  2.3986
   95ccc     C8 2843   2.595  -0.201   4.376 -0.1378 -1.1346 -0.4798
   95ccc    H14 2844   2.582  -0.240   4.274  1.7592 -1.5842 -0.5784
   95ccc    H15 2845   2.594  -0.292   4.437 -0.0990 -2.2699 -2.1066
   95ccc     C9 2846   2.472  -0.119   4.411  0.2022  0.4624 -0.9217
   95ccc     O3 2847   2.397  -0.149   4.504  0.7282 -0.2163  0.0555
   95ccc     O4 2848   2.432  -0.034   4.318  0.5622  0.3303 -0.1617
   95ccc    H16 2849   2.503  -0.022   4.252  1.1953 -2.2350 -0.0379
   95ccc     O5 2850   3.086  -0.228   4.020 -0.0055 -0.0370 -0.2119
   95ccc    H17 2851   2.825  -0.319   4.400  2.0190  0.2207 -0.2661
   96ccc     C1 2852   3.815  -0.056   4.245 -0.0930  0.1155 -0.3774
   96ccc     H1 2853   3.887  -0.133   4.278  1.4073  0.4964 -2.5675
   96ccc     H2 2854   3.888   0.017   4.207  0.8045 -1.3152 -1.5107
   96ccc     C2 2855   3.752  -0.004   4.375  0.4764  0.0325  0.5771
   96ccc     H3 2856   3.695   0.082   4.340 -2.1926 -2.2067 -0.9936
   96ccc     H4 2857   3.833   0.023   4.445  0.1762  1.3204  0.4409
   96ccc     C3 2858   3.658  -0.114   4.439  0.8283 -0.0075 -0.2317
   96ccc     H5 2859   3.711  -0.191   4.495  0.1213 -1.1134 -1.0635
   96ccc     H6 2860   3.606  -0.163   4.357  2.8224 -0.8515 -1.0590
   96ccc     N1 2861   3.558  -0.045   4.537 -0.7270  0.4066 -0.1485
   96ccc     C4 2862   3.444   0.038   4.470  0.5987 -0.1231 -0.4181
   96ccc     H7 2863   3.485   0.135   4.442 -0.4714  0.6075  0.4501
   96ccc     H8 2864   3.369   0.059   4.547  1.3334  4.5748 -0.6834
   96ccc     C5 2865   3.389  -0.025   4.346 -0.2436  0.5995 -0.2380
   96ccc     H9 2866   3.466  -0.020   4.267  0.5072 -0.0284  0.4405
   96ccc    H10 2867   3.360  -0.128   4.367 -0.6932  1.3000  3.1998
   96ccc     C6 2868   3.262   0.054   4.306  0.9008 -0.3444 -0.5492
   96ccc     O1 2869   3.155   0.051   4.368  0.0508 -0.5131  0.0540
   96ccc     O2 2870   3.248   0.072   4.171  0.2407  0.2064 -0.3561
   96ccc    H11 2871   3.154   0.099   4.176 -0.1852 -1.1678 -0.3341
   96ccc     C7 2872   3.499  -0.162   4.623  0.1142  0.3168 -0.6145
   96ccc    H12 2873   3.422  -0.215   4.567 -1.2717  2.0366 -0.4354
   96ccc    H13 2874   3.568  -0.245   4.638  0.0974  0.7187  2.1433
   96ccc     C8 2875   3.464  -0.125   4.767  0.2920  0.1339  0.5919
   96ccc    H14 2876   3.543  -0.068   4.817  0.6552 -1.6364  2.1858
   96ccc    H15 2877   3.377  -0.058   4.763  0.4481  0.3217  0.3516
   96ccc     C9 2878   3.430  -0.249   4.848  0.1732 -0.1679 -0.0541
   96ccc     O3 2879   3.373  -0.344   4.801  0.1968 -0.3872  0.2460
   96ccc     O4 2880   3.468  -0.248   4.980  0.2384 -0.0295  0.0308
   96ccc    H16 2881   3.496  -0.155   4.986 -1.4579  0.5514 -0.5367
   96ccc     O5 2882   3.712  -0.086   4.152  0.2027 -0.5453  1.2324
   96ccc    H17 2883   3.623   0.014   4.592  0.1804  0.8842 -1.6917
   97ccc     C1 2884   3.223   0.604   2.617  0.0153 -0.1693  1.2628
   97ccc     H1 2885   3.307   0.580   2.551 -2.5483  0.6364 -2.6298
   97ccc     H2 2886   3.166   0.511   2.608 -0.9095  0.4262  0.8884
   97ccc     C2 2887   3.163   0.730   2.553 -0.1560 -0.7127 -0.7103
   97ccc     H3 2888   3.109   0.710   2.459 -2.0346 -5.1921  1.0204
   97ccc     H4 2889   3.240   0.807   2.537 -0.5160 -0.1860  0.0515
   97ccc     C3 2890   3.059   0.788   2.648 -0.5017 -0.0861  0.4993
   97ccc     H5 2891   3.110   0.825   2.737 -1.4540  0.2767  0.9037
   97ccc     H6 2892   3.000   0.701   2.675  2.4330 -2.1759  0.7287
   97ccc     N1 2893   2.972   0.898   2.586 -0.1858  0.1837 -0.2253
   97ccc     C4 2894   3.047   0.994   2.495  0.5859  0.4846 -0.0580
   97ccc     H7 2895   2.971   1.054   2.444  0.2479 -1.1578 -1.5723
   97ccc     H8 2896   3.097   0.931   2.422 -0.2625  0.9642 -1.0750
   97ccc     C5 2897   3.141   1.091   2.564  0.5495 -0.0626  0.7064
   97ccc     H9 2898   3.085   1.150   2.638  0.1000  0.6979 -0.2180
   97ccc    H10 2899   3.223   1.050   2.624  1.8312  0.5375 -0.5575
   97ccc     C6 2900   3.217   1.183   2.464  0.2227 -0.0092 -0.4235
   97ccc     O1 2901   3.329   1.160   2.411  0.2704 -0.0832  0.4134
   97ccc     O2 2902   3.159   1.300   2.443 -0.4549 -0.0580 -1.0008
   97ccc    H11 2903   3.066   1.290   2.470 -0.5839  1.1088 -0.9695
   97ccc     C7 2904   2.859   0.832   2.516  0.3993  0.2088 -0.0722
   97ccc    H12 2905   2.890   0.781   2.425  0.0165 -1.0062  0.4562
   97ccc    H13 2906   2.837   0.740   2.571  1.6438 -1.3320 -2.0081
   97ccc     C8 2907   2.725   0.913   2.509  0.1686 -0.6980  0.1740
   97ccc    H14 2908   2.667   0.925   2.602 -1.4261 -3.1741 -0.4071
   97ccc    H15 2909   2.744   1.014   2.471 -0.1305 -0.7432 -0.0951
   97ccc     C9 2910   2.627   0.838   2.420  0.8884  0.3133 -0.2860
   97ccc     O3 2911   2.625   0.715   2.413 -0.3100 -0.3791  0.1755
   97ccc     O4 2912   2.581   0.906   2.314  0.2486 -0.4421 -0.4131
   97ccc    H16 2913   2.616   0.996   2.329 -1.6251  0.4445 -1.1236
   97ccc     O5 2914   3.262   0.641   2.753 -0.3776  0.2404  0.6791
   97ccc    H17 2915   2.933   0.960   2.659 -0.5300  0.6493 -0.7937
   98ccc     C1 2916   3.737   0.780   3.516  0.5556 -0.3510 -0.7177
   98ccc     H1 2917   3.714   0.828   3.612  1.9556  1.1213 -1.0630
   98ccc     H2 2918   3.774   0.679   3.535 -0.9730 -0.6000  1.2966
   98ccc     C2 2919   3.841   0.866   3.444 -0.6637 -0.6072 -0.0854
   98ccc     H3 2920   3.798   0.964   3.422  1.7448  0.9670  1.6860
   98ccc     H4 2921   3.866   0.829   3.344  3.1786  1.3450 -0.0394
   98ccc     C3 2922   3.970   0.886   3.536  0.4850 -0.4441  0.0277
   98ccc     H5 2923   4.027   0.797   3.562  0.5460 -0.1650  0.8813
   98ccc     H6 2924   3.937   0.930   3.631  1.4886  1.6518 -0.5247
   98ccc     N1 2925   4.074   0.984   3.488  0.2101 -0.5401  0.6432
   98ccc     C4 2926   4.171   1.027   3.603 -0.6458 -0.0610  0.1492
   98ccc     H7 2927   4.251   1.083   3.553  0.5621 -0.8709  1.1116
   98ccc     H8 2928   4.214   0.936   3.645 -0.7146  0.3248  1.0927
   98ccc     C5 2929   4.110   1.121   3.707  0.4310  0.4599  0.2123
   98ccc     H9 2930   4.044   1.186   3.649 -1.7411 -0.8890  1.0304
   98ccc    H10 2931   4.040   1.065   3.771  2.5955 -0.4669  1.8993
   98ccc     C6 2932   4.227   1.185   3.776  0.0880 -0.1646 -0.8954
   98ccc     O1 2933   4.346   1.145   3.774 -0.2265  0.3221 -0.2153
   98ccc     O2 2934   4.198   1.301   3.836  0.1104  0.2636 -0.3224
   98ccc    H11 2935   4.104   1.284   3.849  0.5237 -1.6125  0.5534
   98ccc     C7 2936   4.148   0.921   3.372 -0.3066 -0.0176  0.1014
   98ccc    H12 2937   4.200   0.830   3.402  0.1782  0.2707  0.1531
   98ccc    H13 2938   4.072   0.884   3.304  0.8815 -2.1771 -0.1373
   98ccc     C8 2939   4.230   1.021   3.296  0.1288 -0.1343  0.3857
   98ccc    H14 2940   4.162   1.062   3.221  0.2296  0.4017  0.5834
   98ccc    H15 2941   4.279   1.097   3.359 -0.5325  0.3033  0.3729
   98ccc     C9 2942   4.352   0.956   3.220 -0.4935  0.0937 -0.4766
   98ccc     O3 2943   4.385   0.839   3.215  0.4015  0.1280 -0.0952
   98ccc     O4 2944   4.389   1.030   3.110  0.3796  0.0583 -0.5446
   98ccc    H16 2945   4.414   0.961   3.047 -0.5225 -1.8933  1.1217
   98ccc     O5 2946   3.620   0.763   3.435 -0.4345  0.4482 -0.3531
   98ccc    H17 2947   4.035   1.071   3.450  3.3740 -0.1608 -2.1480
   99ccc     C1 2948   2.189   0.473   4.824 -0.0196 -0.8800  0.7347
   99ccc     H1 2949   2.178   0.538   4.912 -0.2552 -0.0197  0.0804
   99ccc     H2 2950   2.108   0.400   4.828  0.3603 -1.4042 -0.6839
   99ccc     C2 2951   2.322   0.390   4.832  0.0288  0.0881 -0.5313
   99ccc     H3 2952   2.407   0.431   4.776 -0.3053  0.4216 -0.8038
   99ccc     H4 2953   2.288   0.296   4.786 -0.3431 -0.1521  0.2089
   99ccc     C3 2954   2.356   0.343   4.976  0.1806  0.0614  0.7246
   99ccc     H5 2955   2.379   0.237   4.973  0.0692  0.0415  0.5917
   99ccc     H6 2956   2.268   0.358   5.039 -0.3025  1.2332 -0.1881
   99ccc     N1 2957   2.472   0.419   5.048 -0.1770 -0.2049 -0.3518
   99ccc     C4 2958   2.607   0.389   4.976 -0.1101  0.4648 -0.0557
   99ccc     H7 2959   2.682   0.456   5.019 -1.7467  1.0708  2.0195
   99ccc     H8 2960   2.600   0.417   4.871  0.5883 -1.4693 -0.6581
   99ccc     C5 2961   2.663   0.242   5.001 -0.7840  0.2234  1.0462
   99ccc     H9 2962   2.698   0.225   5.104  0.6339  0.3040  0.5970
   99ccc    H10 2963   2.598   0.156   4.981  1.7628 -1.4091 -0.8052
   99ccc     C6 2964   2.793   0.225   4.922  0.3590  0.0583  0.4986
   99ccc     O1 2965   2.833   0.308   4.846 -0.3244 -0.9485  0.3018
   99ccc     O2 2966   2.848   0.099   4.915  0.4204 -0.4027  0.4250
   99ccc    H11 2967   2.796   0.045   4.977  0.1188 -0.4717  0.1144
   99ccc     C7 2968   2.438   0.566   5.052  0.6601  0.7839 -0.3064
   99ccc    H12 2969   2.404   0.592   4.951  1.0475  0.9951 -0.3827
   99ccc    H13 2970   2.349   0.554   5.114  0.4244 -1.0282 -0.9088
   99ccc     C8 2971   2.545   0.662   5.094  0.0740 -0.2706 -0.9751
   99ccc    H14 2972   2.562   0.640   5.200 -3.5926 -0.3548 -0.2628
   99ccc    H15 2973   2.633   0.647   5.031 -0.2827 -0.0797 -1.5338
   99ccc     C9 2974   2.487   0.804   5.070 -0.2922 -0.0993 -0.0550
   99ccc     O3 2975   2.372   0.828   5.042 -0.3643  0.1041 -0.7504
   99ccc     O4 2976   2.571   0.914   5.077  0.0378  0.0388  0.4420
   99ccc    H16 2977   2.511   0.989   5.062  1.7744  1.8121  1.8816
   99ccc     O5 2978   2.202   0.556   4.706 -0.5935  0.0728  0.3319
   99ccc    H17 2979   2.481   0.400   5.149  0.8307  4.6325  0.7415
  100ccc     C1 2980   1.782   0.087   4.204  0.3094 -0.5096 -0.1249
  100ccc     H1 2981   1.674   0.106   4.202  0.1543 -1.2253  0.8334
  100ccc     H2 2982   1.818   0.078   4.101 -2.2426 -1.5227 -0.9763
  100ccc     C2 2983   1.788  -0.055   4.280 -0.1233  0.2618  0.3897
  100ccc     H3 2984   1.740  -0.136   4.223 -1.5861 -0.2587  2.2634
  100ccc     H4 2985   1.727  -0.040   4.370  0.1279  1.2153  0.4130
  100ccc     C3 2986   1.932  -0.095   4.320  0.1271  0.2875  0.3732
  100ccc     H5 2987   1.959  -0.033   4.406 -2.1239 -0.2724  1.5838
  100ccc     H6 2988   2.001  -0.075   4.238  1.0659  1.7183  1.4676
  100ccc     N1 2989   1.940  -0.244   4.366  0.3705  0.4087  0.5807
  100ccc     C4 2990   2.090  -0.274   4.394  0.9805  0.9529  0.8073
  100ccc     H7 2991   2.101  -0.366   4.451  0.5874  0.8259  0.6833
  100ccc     H8 2992   2.118  -0.192   4.460 -0.8261  2.6975 -0.4959
  100ccc     C5 2993   2.174  -0.285   4.268 -0.4354 -0.5732  0.3205
  100ccc     H9 2994   2.121  -0.322   4.179  0.4241 -2.4008  0.5372
  100ccc    H10 2995   2.216  -0.188   4.240 -1.5843 -0.5167 -1.4349
  100ccc     C6 2996   2.300  -0.376   4.286 -0.1850  0.1268  0.3645
  100ccc     O1 2997   2.318  -0.446   4.383  0.3592 -0.2806  0.0544
  100ccc     O2 2998   2.374  -0.380   4.168 -0.4095 -0.6573  0.5790
  100ccc    H11 2999   2.335  -0.311   4.113 -0.3041 -0.5365  0.6554
  100ccc     C7 3000   1.863  -0.271   4.497  0.7722 -1.0462 -0.2395
  100ccc    H12 3001   1.906  -0.216   4.581 -0.7838  0.8110 -0.6072
  100ccc    H13 3002   1.764  -0.229   4.482  0.8152 -0.7603  0.2375
  100ccc     C8 3003   1.854  -0.415   4.538  0.6730 -0.1940 -0.3300
  100ccc    H14 3004   1.809  -0.470   4.455 -1.7847 -1.4048  1.6638
  100ccc    H15 3005   1.949  -0.468   4.556  0.5483 -0.6545 -0.9722
  100ccc     C9 3006   1.759  -0.433   4.651 -0.9609  0.0847  0.0256
  100ccc     O3 3007   1.726  -0.350   4.725 -0.2808 -0.5056  0.0450
  100ccc     O4 3008   1.733  -0.561   4.685  0.0787 -0.3371 -0.1865
  100ccc    H16 3009   1.673  -0.539   4.758  0.8738  2.0365 -0.1498
  100ccc     O5 3010   1.854   0.182   4.281  0.8274 -0.3824  0.0669
  100ccc    H17 3011   1.897  -0.301   4.292  2.5987  0.6658 -1.0140
  101ccc     C1 3012   1.469   0.428   4.438  0.6716 -0.3858 -0.0895
  101ccc     H1 3013   1.470   0.319   4.427  2.7662 -0.4161 -0.0643
  101ccc     H2 3014   1.570   0.449   4.399 -0.0145 -0.2927 -1.9123
  101ccc     C2 3015   1.447   0.471   4.583 -0.2242 -0.5495  0.0123
  101ccc     H3 3016   1.429   0.579   4.588 -1.7083 -0.7900  0.2469
  101ccc     H4 3017   1.537   0.444   4.639  1.3296 -0.1726 -2.1695
  101ccc     C3 3018   1.324   0.395   4.637  0.5071  0.3308 -0.1655
  101ccc     H5 3019   1.372   0.301   4.665  1.6178  1.3915  1.7036
  101ccc     H6 3020   1.256   0.388   4.552  0.8276  1.7413 -0.5596
  101ccc     N1 3021   1.267   0.465   4.759  0.0294 -0.1394  0.3981
  101ccc     C4 3022   1.146   0.550   4.714  0.6521 -0.1037 -0.3066
  101ccc     H7 3023   1.092   0.600   4.794  0.0867  0.2719 -0.9132
  101ccc     H8 3024   1.072   0.486   4.666  0.6972  0.2566 -0.8747
  101ccc     C5 3025   1.175   0.659   4.611 -0.1270 -0.1503  0.6392
  101ccc     H9 3026   1.221   0.741   4.667  0.4164  0.7578 -1.0620
  101ccc    H10 3027   1.223   0.624   4.519  1.3058 -2.2865  2.1175
  101ccc     C6 3028   1.048   0.736   4.567 -0.3371 -0.6404 -0.0375
  101ccc     O1 3029   0.952   0.766   4.634 -0.0738 -0.2449  0.6284
  101ccc     O2 3030   1.073   0.790   4.450  0.2077 -0.4406 -0.0081
  101ccc    H11 3031   0.994   0.846   4.442 -0.8821 -1.4892  2.4895
  101ccc     C7 3032   1.225   0.364   4.872 -1.0159 -0.5170  0.8352
  101ccc    H12 3033   1.155   0.295   4.824 -0.3078  0.0818 -1.1957
  101ccc    H13 3034   1.316   0.312   4.901  0.1026 -0.4371 -2.1138
  101ccc     C8 3035   1.158   0.423   4.993 -0.3459 -0.2224 -0.3208
  101ccc    H14 3036   1.220   0.507   5.027 -2.3663  0.5750  1.6541
  101ccc    H15 3037   1.056   0.460   4.975 -0.2371  0.5581  0.5850
  101ccc     C9 3038   1.159   0.319   5.099  0.2410  0.5808 -0.2963
  101ccc     O3 3039   1.154   0.197   5.069  0.0136 -0.0613 -0.0642
  101ccc     O4 3040   1.117   0.354   5.224  0.1743 -0.6834 -0.1891
  101ccc    H16 3041   1.136   0.449   5.230  0.4309 -0.6985 -0.6533
  101ccc     O5 3042   1.365   0.495   4.366  0.3934 -0.1324 -0.0414
  101ccc    H17 3043   1.344   0.524   4.792  3.0422 -1.9465 -2.7449
  102ccc     C1 3044   1.280   1.091   4.611 -0.2448  0.2799 -0.0752
  102ccc     H1 3045   1.356   1.099   4.689  0.1964 -1.9413 -0.2201
  102ccc     H2 3046   1.268   1.187   4.559 -2.6035 -0.5115 -1.1674
  102ccc     C2 3047   1.147   1.064   4.679  0.7023 -0.0734 -0.8039
  102ccc     H3 3048   1.158   0.965   4.725  1.5103 -0.0882 -1.0069
  102ccc     H4 3049   1.063   1.063   4.609 -0.9976 -0.2414  1.1346
  102ccc     C3 3050   1.116   1.177   4.781 -0.3572  0.3543 -0.2484
  102ccc     H5 3051   1.090   1.270   4.730  1.7987  0.2723 -1.6325
  102ccc     H6 3052   1.204   1.199   4.842  0.3650 -2.1464 -0.2895
  102ccc     N1 3053   1.013   1.146   4.884  0.3515  0.3660  0.2381
  102ccc     C4 3054   1.091   1.074   4.996  0.6352 -0.4144  0.1991
  102ccc     H7 3055   1.112   1.140   5.080  1.2267  0.1275 -0.3649
  102ccc     H8 3056   1.189   1.042   4.962  0.2410 -1.3856 -0.0723
  102ccc     C5 3057   1.021   0.950   5.064 -0.6938  0.1177  0.1171
  102ccc     H9 3058   1.045   0.950   5.172  1.9072 -1.6858 -0.3589
  102ccc    H10 3059   0.913   0.968   5.059 -0.9764 -1.5008  0.1192
  102ccc     C6 3060   1.069   0.818   5.017 -0.6537 -0.1330 -0.1298
  102ccc     O1 3061   1.147   0.795   4.925 -0.1487  0.0622  0.2152
  102ccc     O2 3062   0.993   0.723   5.067 -0.6905  0.2521  0.5458
  102ccc    H11 3063   0.936   0.767   5.132  1.5302  0.0557  2.8020
  102ccc     C7 3064   0.949   1.267   4.931 -0.2257 -0.9865  0.0006
  102ccc    H12 3065   0.880   1.250   5.014 -0.7204  0.9229  0.0356
  102ccc    H13 3066   1.023   1.332   4.979 -1.4181  0.9776 -0.6973
  102ccc     C8 3067   0.876   1.348   4.820  0.5301 -0.1791  0.3654
  102ccc    H14 3068   0.937   1.383   4.736 -0.4256 -1.5522 -0.9584
  102ccc    H15 3069   0.797   1.282   4.781 -0.3090  2.2624 -2.4055
  102ccc     C9 3070   0.809   1.473   4.878  0.7924 -0.1878  0.4399
  102ccc     O3 3071   0.791   1.481   4.996 -0.5762  0.6637 -0.0423
  102ccc     O4 3072   0.734   1.537   4.786 -0.2581  0.3998  0.4809
  102ccc    H16 3073   0.700   1.610   4.840  0.0022 -0.1911  1.4726
  102ccc     O5 3074   1.303   0.978   4.522  0.1384 -0.3799  0.2218
  102ccc    H17 3075   0.942   1.083   4.845 -0.8714  0.2747  2.4606
  103ccc     C1 3076   2.260   0.398   1.728 -0.2716  0.0854  0.1321
  103ccc     H1 3077   2.207   0.383   1.823  1.1308 -0.7342  0.8182
  103ccc     H2 3078   2.307   0.303   1.698 -0.3323 -0.5719  2.0010
  103ccc     C2 3079   2.377   0.493   1.753 -0.0600 -0.0487 -0.2391
  103ccc     H3 3080   2.426   0.459   1.845  0.0916  1.6488  0.3467
  103ccc     H4 3081   2.340   0.594   1.774 -0.7973 -0.5255  0.8064
  103ccc     C3 3082   2.461   0.513   1.630 -0.0319 -0.1654 -0.5859
  103ccc     H5 3083   2.403   0.564   1.554  0.6011  0.4612 -0.6598
  103ccc     H6 3084   2.496   0.415   1.598  1.4626 -0.0444  0.5517
  103ccc     N1 3085   2.592   0.595   1.655 -0.1055 -0.5540 -0.2482
  103ccc     C4 3086   2.692   0.588   1.532  0.7110  0.0557 -0.9052
  103ccc     H7 3087   2.771   0.662   1.545  1.0528 -0.5309  0.6490
  103ccc     H8 3088   2.626   0.609   1.448 -0.2987  2.0892  0.3308
  103ccc     C5 3089   2.740   0.445   1.512 -0.7824 -0.4662  0.5936
  103ccc     H9 3090   2.801   0.414   1.597  2.7008  1.2890 -1.0617
  103ccc    H10 3091   2.657   0.374   1.499 -0.7014 -0.3952 -0.4618
  103ccc     C6 3092   2.829   0.434   1.384 -0.0226 -0.5560 -0.1685
  103ccc     O1 3093   2.803   0.382   1.278 -0.1410  0.0413  0.1908
  103ccc     O2 3094   2.932   0.517   1.402  0.2285 -0.0359  0.1212
  103ccc    H11 3095   2.979   0.505   1.318 -1.4516 -0.3457 -0.8202
  103ccc     C7 3096   2.539   0.737   1.669 -0.2285  0.4325 -0.1621
  103ccc    H12 3097   2.485   0.763   1.577  1.5841  0.4385 -1.2720
  103ccc    H13 3098   2.475   0.738   1.757 -0.1898 -3.2587  0.0840
  103ccc     C8 3099   2.654   0.840   1.697  0.1579  0.0994  0.2285
  103ccc    H14 3100   2.702   0.823   1.794 -3.0137 -0.1982  1.8690
  103ccc    H15 3101   2.735   0.839   1.622  0.1158  0.7747  0.1632
  103ccc     C9 3102   2.606   0.987   1.695 -0.2810 -0.0865  0.5674
  103ccc     O3 3103   2.492   1.014   1.693  0.5564 -0.3614  0.1599
  103ccc     O4 3104   2.707   1.078   1.685  0.5016 -0.0112  0.2759
  103ccc    H16 3105   2.794   1.033   1.684 -0.0200 -1.0387  0.4082
  103ccc     O5 3106   2.176   0.452   1.618 -0.4629 -0.2703 -0.2585
  103ccc    H17 3107   2.641   0.577   1.744  0.3480  0.4867 -0.2701
  104ccc     C1 3108   1.483   0.550   1.319 -0.4139  0.5949 -0.1241
  104ccc     H1 3109   1.410   0.468   1.326 -1.8439  1.8196 -0.2459
  104ccc     H2 3110   1.565   0.533   1.390 -0.7025  1.2292  0.3742
  104ccc     C2 3111   1.414   0.671   1.372  0.0768  0.0686  0.1626
  104ccc     H3 3112   1.385   0.658   1.478  0.2155 -0.2577  0.1629
  104ccc     H4 3113   1.312   0.669   1.332  0.6793  0.5833 -1.4573
  104ccc     C3 3114   1.493   0.799   1.354 -0.2388 -0.2889 -0.4134
  104ccc     H5 3115   1.522   0.821   1.251 -3.2568  2.9197 -0.7470
  104ccc     H6 3116   1.590   0.786   1.402  1.1679  1.6668 -2.4784
  104ccc     N1 3117   1.425   0.933   1.396 -0.2232  0.3613 -0.2830
  104ccc     C4 3118   1.523   1.045   1.384 -0.1680  0.8622  0.1313
  104ccc     H7 3119   1.470   1.137   1.411 -0.0229  0.6855  1.0508
  104ccc     H8 3120   1.543   1.048   1.277  0.7412 -1.2185  0.2076
  104ccc     C5 3121   1.644   1.040   1.470 -0.3870  0.7925  0.0524
  104ccc     H9 3122   1.626   1.039   1.578  0.2745 -1.3052  0.1771
  104ccc    H10 3123   1.702   0.948   1.455  1.3403  1.5465  1.6847
  104ccc     C6 3124   1.732   1.158   1.436  0.2230  0.5946  0.3325
  104ccc     O1 3125   1.704   1.251   1.367  0.3331  0.6006  0.3490
  104ccc     O2 3126   1.844   1.155   1.496  0.0224  0.3259 -0.5486
  104ccc    H11 3127   1.900   1.210   1.438 -1.3348  0.9524 -1.3046
  104ccc     C7 3128   1.300   0.953   1.309 -0.4741 -0.6667 -0.1139
  104ccc    H12 3129   1.318   0.955   1.201 -0.3795  1.3237 -0.0950
  104ccc    H13 3130   1.242   0.862   1.326  1.6700 -2.2627 -0.9404
  104ccc     C8 3131   1.216   1.073   1.343  0.3045 -0.4840 -0.1794
  104ccc    H14 3132   1.198   1.072   1.451 -1.4853  1.0131 -0.4149
  104ccc    H15 3133   1.260   1.168   1.310 -0.9973 -0.7239 -2.9545
  104ccc     C9 3134   1.084   1.065   1.272  0.2886 -0.1709  0.0127
  104ccc     O3 3135   1.055   0.987   1.182  0.1199  0.1092  0.2254
  104ccc     O4 3136   0.992   1.150   1.325 -0.1605  0.0683 -0.3271
  104ccc    H16 3137   1.036   1.212   1.386  0.5285 -0.9757  0.2768
  104ccc     O5 3138   1.540   0.576   1.192  0.2196 -0.0660 -0.1143
  104ccc    H17 3139   1.396   0.919   1.494 -2.0949  1.3620 -0.6379
  105ccc     C1 3140   1.557  -0.982   1.588  0.0073 -0.2931 -0.0741
  105ccc     H1 3141   1.591  -0.996   1.691 -0.7139 -0.6367  0.1243
  105ccc     H2 3142   1.454  -0.945   1.590 -0.4136 -1.4207 -0.0094
  105ccc     C2 3143   1.552  -1.121   1.514  0.0315 -0.1409 -0.0576
  105ccc     H3 3144   1.511  -1.100   1.415 -1.7908 -2.6574  0.0721
  105ccc     H4 3145   1.482  -1.185   1.570  0.1652 -0.2988 -0.0677
  105ccc     C3 3146   1.677  -1.199   1.496 -1.0561  0.0172 -0.4316
  105ccc     H5 3147   1.718  -1.207   1.597  0.3140 -0.7576 -1.0164
  105ccc     H6 3148   1.752  -1.146   1.436 -1.3626  0.5035 -0.3920
  105ccc     N1 3149   1.669  -1.340   1.435 -0.2872 -0.2467 -0.2520
  105ccc     C4 3150   1.798  -1.387   1.378 -0.1932  0.0208  0.4292
  105ccc     H7 3151   1.773  -1.490   1.349 -0.8731 -0.0471  1.2258
  105ccc     H8 3152   1.870  -1.387   1.460 -1.4954  0.3949  1.6085
  105ccc     C5 3153   1.843  -1.304   1.251 -0.4131 -0.0855  0.2152
  105ccc     H9 3154   1.768  -1.294   1.172  1.2054 -1.8859 -1.6717
  105ccc    H10 3155   1.880  -1.203   1.273  0.1866  0.1112 -1.5735
  105ccc     C6 3156   1.963  -1.370   1.182  0.4249 -0.6326  0.1425
  105ccc     O1 3157   2.033  -1.448   1.239 -0.0831  0.4346 -0.4302
  105ccc     O2 3158   2.022  -1.294   1.086  0.0427  0.2499  0.5026
  105ccc    H11 3159   1.950  -1.246   1.042  1.1865  0.6001 -1.1051
  105ccc     C7 3160   1.623  -1.434   1.550 -0.4120  0.0285 -0.1204
  105ccc    H12 3161   1.699  -1.440   1.629 -0.9629 -0.7446  0.3632
  105ccc    H13 3162   1.547  -1.386   1.611 -0.1661 -1.4605  1.4489
  105ccc     C8 3163   1.567  -1.573   1.507  0.4719 -1.2607 -0.2281
  105ccc    H14 3164   1.483  -1.557   1.438  0.7551 -3.0158 -1.0429
  105ccc    H15 3165   1.644  -1.636   1.463  1.1498  0.2671 -1.3299
  105ccc     C9 3166   1.527  -1.647   1.634 -1.0563 -0.4291 -0.2959
  105ccc     O3 3167   1.576  -1.622   1.747  0.5042  0.6664  0.1570
  105ccc     O4 3168   1.429  -1.734   1.623 -0.2913  0.8349  0.3841
  105ccc    H16 3169   1.416  -1.729   1.527 -0.8370  2.0203  0.4934
  105ccc     O5 3170   1.648  -0.906   1.517 -0.4229 -0.7668 -0.2627
  105ccc    H17 3171   1.597  -1.342   1.361  0.3923  0.1668 -0.9416
  106ccc     C1 3172   2.267  -1.191   1.368 -0.2448  0.7049  0.2891
  106ccc     H1 3173   2.283  -1.250   1.277 -0.2609 -1.6810  1.7169
  106ccc     H2 3174   2.362  -1.149   1.404  0.9767 -2.0118  0.5454
  106ccc     C2 3175   2.204  -1.286   1.479 -0.2689  0.4318  0.8060
  106ccc     H3 3176   2.108  -1.325   1.442  1.0281 -0.7946 -1.5101
  106ccc     H4 3177   2.175  -1.233   1.571  0.4829  1.2424  0.5930
  106ccc     C3 3178   2.299  -1.411   1.513  0.2612 -0.2963  1.0959
  106ccc     H5 3179   2.402  -1.383   1.538 -0.1936  0.7819  1.8350
  106ccc     H6 3180   2.294  -1.477   1.426 -1.4626  2.8371 -1.3706
  106ccc     N1 3181   2.271  -1.500   1.636  0.4215 -0.1057  0.3868
  106ccc     C4 3182   2.261  -1.412   1.765 -0.2386 -0.0906 -0.2456
  106ccc     H7 3183   2.164  -1.363   1.771  1.4647  3.4270  1.4915
  106ccc     H8 3184   2.342  -1.340   1.754  0.3762 -1.0683 -2.6942
  106ccc     C5 3185   2.288  -1.486   1.897 -0.1612  0.4742  0.3129
  106ccc     H9 3186   2.248  -1.587   1.885  1.7708 -0.2266 -0.6305
  106ccc    H10 3187   2.394  -1.503   1.920 -0.7221  0.9861  3.9922
  106ccc     C6 3188   2.213  -1.424   2.008 -0.4503  0.5254 -0.7530
  106ccc     O1 3189   2.133  -1.335   2.002  1.0071 -0.2268 -0.0822
  106ccc     O2 3190   2.241  -1.475   2.129 -0.6728 -0.6356 -0.6750
  106ccc    H11 3191   2.288  -1.558   2.109 -0.6135 -0.9716  0.7486
  106ccc     C7 3192   2.132  -1.569   1.628 -0.4207 -0.3863 -0.1009
  106ccc    H12 3193   2.119  -1.628   1.719  0.3147  0.8926  0.8573
  106ccc    H13 3194   2.058  -1.491   1.612  1.4932  1.6887  0.7389
  106ccc     C8 3195   2.118  -1.677   1.509  0.0312  0.1315  0.5927
  106ccc    H14 3196   2.142  -1.634   1.411 -1.1832 -0.1902  0.1254
  106ccc    H15 3197   2.171  -1.773   1.521 -0.7547 -0.6475 -1.6971
  106ccc     C9 3198   1.970  -1.712   1.500  1.2927  1.2384 -0.2317
  106ccc     O3 3199   1.890  -1.647   1.561  0.2811  0.5312 -0.4889
  106ccc     O4 3200   1.916  -1.773   1.383 -0.4704  0.7979 -0.1249
  106ccc    H16 3201   1.999  -1.808   1.347  0.4519  3.7156 -1.0971
  106ccc     O5 3202   2.166  -1.086   1.355  0.2652  0.6976  0.8164
  106ccc    H17 3203   2.352  -1.562   1.630  1.2313  1.0241 -1.6370
  107ccc     C1 3204   2.694   0.011   2.271 -0.9089  0.3951  0.2976
  107ccc     H1 3205   2.587   0.037   2.268 -0.7876  1.4943  2.7080
  107ccc     H2 3206   2.753   0.093   2.315 -1.2746  0.6929  0.2357
  107ccc     C2 3207   2.751  -0.022   2.136  0.6098  0.2426  1.0770
  107ccc     H3 3208   2.861  -0.021   2.142  0.9720 -2.7586 -2.2018
  107ccc     H4 3209   2.721   0.053   2.062 -0.7186 -1.0573  0.2501
  107ccc     C3 3210   2.703  -0.156   2.075 -0.0011  0.0841  0.1970
  107ccc     H5 3211   2.597  -0.142   2.052 -0.0252 -2.3350 -1.4983
  107ccc     H6 3212   2.710  -0.233   2.152  2.2236  0.2185  0.1872
  107ccc     N1 3213   2.774  -0.202   1.944  0.1779 -0.1189 -0.6768
  107ccc     C4 3214   2.761  -0.101   1.832 -0.0884 -0.5461 -0.2116
  107ccc     H7 3215   2.801  -0.150   1.742 -1.2388 -0.6970 -0.6588
  107ccc     H8 3216   2.832  -0.019   1.843  1.4340 -1.6742 -1.0921
  107ccc     C5 3217   2.621  -0.048   1.809  0.2563 -0.2869  0.7206
  107ccc     H9 3218   2.545  -0.128   1.810 -0.1953  0.1385  1.9028
  107ccc    H10 3219   2.600   0.027   1.887 -0.2407 -1.8558  2.1703
  107ccc     C6 3220   2.596   0.025   1.678 -0.9851 -0.4204  0.6424
  107ccc     O1 3221   2.648   0.003   1.574  0.1679 -0.0866 -0.2704
  107ccc     O2 3222   2.481   0.101   1.667  0.0785  0.0317 -0.7727
  107ccc    H11 3223   2.442   0.098   1.756  2.1550  1.8159  0.2909
  107ccc     C7 3224   2.924  -0.230   1.975 -0.4402  0.5600  0.0672
  107ccc    H12 3225   2.971  -0.204   1.880 -1.6174  0.9524 -0.4353
  107ccc    H13 3226   2.958  -0.148   2.039 -1.8168  1.4251 -0.2525
  107ccc     C8 3227   2.955  -0.366   2.034  0.0462 -0.0376 -0.1651
  107ccc    H14 3228   2.913  -0.364   2.135 -1.6706 -0.0382 -0.8546
  107ccc    H15 3229   2.900  -0.440   1.976 -0.3319  0.9869 -1.1483
  107ccc     C9 3230   3.103  -0.403   2.052 -0.3194  0.1220  0.3806
  107ccc     O3 3231   3.196  -0.318   2.051 -0.9617 -0.0692  0.3645
  107ccc     O4 3232   3.133  -0.533   2.039 -0.6951  0.3333  0.2888
  107ccc    H16 3233   3.230  -0.534   2.037 -0.6218  2.5634 -2.1894
  107ccc     O5 3234   2.703  -0.107   2.361  0.0890  0.4510  0.4831
  107ccc    H17 3235   2.736  -0.291   1.908  1.6175 -1.7723  1.5651
  108ccc     C1 3236   2.957  -0.872   2.558 -0.5829  0.0188 -0.3891
  108ccc     H1 3237   3.054  -0.831   2.526 -0.3400  3.4416  3.8417
  108ccc     H2 3238   2.974  -0.912   2.659 -1.8862  1.2174  0.3351
  108ccc     C2 3239   2.916  -0.986   2.458  0.1342 -0.5253 -0.3380
  108ccc     H3 3240   2.821  -1.027   2.493  0.2989 -0.5831  0.0464
  108ccc     H4 3241   2.984  -1.071   2.473  0.3004 -0.1057  1.5299
  108ccc     C3 3242   2.915  -0.932   2.314  0.7034  0.1652 -0.2304
  108ccc     H5 3243   3.022  -0.917   2.295  0.7727 -1.2990 -1.1381
  108ccc     H6 3244   2.873  -0.832   2.305  0.6981  0.1171 -0.7944
  108ccc     N1 3245   2.869  -1.029   2.206  0.1535  0.6657  0.8463
  108ccc     C4 3246   2.723  -1.056   2.215 -0.2261 -0.1589 -0.0297
  108ccc     H7 3247   2.670  -0.961   2.209  1.2427  0.6712 -0.6180
  108ccc     H8 3248   2.709  -1.093   2.316  0.8852 -0.1187  0.1546
  108ccc     C5 3249   2.668  -1.159   2.117  0.1296  0.4196 -0.5782
  108ccc     H9 3250   2.709  -1.151   2.016 -1.7268  4.1374 -1.2041
  108ccc    H10 3251   2.683  -1.262   2.153  3.3352 -0.3444 -3.5640
  108ccc     C6 3252   2.518  -1.151   2.086 -0.2151 -0.2384  0.4671
  108ccc     O1 3253   2.454  -1.048   2.103  0.4453 -0.0664 -0.0516
  108ccc     O2 3254   2.477  -1.245   2.002  0.3332 -0.3272 -0.2332
  108ccc    H11 3255   2.548  -1.309   1.987 -0.7383 -1.0869 -2.6660
  108ccc     C7 3256   2.908  -0.969   2.073  0.4417 -0.3420  0.0164
  108ccc    H12 3257   2.856  -1.025   1.994  3.8586 -0.5143 -2.3323
  108ccc    H13 3258   2.860  -0.871   2.082  0.6026 -0.2350 -0.2788
  108ccc     C8 3259   3.057  -0.960   2.033 -0.5999 -0.1493  0.3498
  108ccc    H14 3260   3.110  -0.905   2.111  0.2852 -0.0593 -0.3001
  108ccc    H15 3261   3.109  -1.056   2.051  0.4139  0.5261  1.1793
  108ccc     C9 3262   3.089  -0.897   1.896 -0.0149  0.0826 -0.7170
  108ccc     O3 3263   2.994  -0.875   1.817 -0.4362  0.2794 -0.3199
  108ccc     O4 3264   3.221  -0.860   1.877  0.5745 -0.8301 -0.5984
  108ccc    H16 3265   3.280  -0.903   1.941  1.8796  2.4946  0.6496
  108ccc     O5 3266   2.863  -0.766   2.570  0.1989 -0.1961  0.3731
  108ccc    H17 3267   2.918  -1.119   2.219  0.8018  0.6733 -1.1928
  109ccc     C1 3268   1.866  -1.609   2.737  0.4553 -0.3013  0.1945
  109ccc     H1 3269   1.958  -1.629   2.794  0.6172 -0.2781 -0.0579
  109ccc     H2 3270   1.812  -1.704   2.740 -0.1304  0.0293  0.3758
  109ccc     C2 3271   1.901  -1.574   2.588 -0.8243 -0.0815  0.5044
  109ccc     H3 3272   1.806  -1.549   2.539 -0.6716 -0.1778  0.1566
  109ccc     H4 3273   1.938  -1.660   2.530  0.1908  0.5255  0.2204
  109ccc     C3 3274   1.984  -1.447   2.582 -0.3292 -0.2185 -0.8437
  109ccc     H5 3275   2.070  -1.457   2.649  2.2385  0.9829 -3.6867
  109ccc     H6 3276   1.929  -1.363   2.625 -0.5340 -0.0689 -1.3994
  109ccc     N1 3277   2.030  -1.407   2.444 -0.3373 -0.2273  0.9821
  109ccc     C4 3278   1.933  -1.306   2.391  0.4205 -0.5932  0.4417
  109ccc     H7 3279   1.966  -1.202   2.396 -0.8121 -0.2153  1.3682
  109ccc     H8 3280   1.850  -1.300   2.462 -2.1586 -0.8673 -2.3170
  109ccc     C5 3281   1.870  -1.340   2.252 -0.1393  0.6380 -0.1971
  109ccc     H9 3282   1.942  -1.386   2.183 -1.5789 -1.8214 -0.1866
  109ccc    H10 3283   1.798  -1.420   2.274  0.7980 -0.1065  0.2747
  109ccc     C6 3284   1.806  -1.218   2.191  0.1574 -0.4714  0.8206
  109ccc     O1 3285   1.839  -1.101   2.212  0.2064  0.4716 -0.0641
  109ccc     O2 3286   1.682  -1.248   2.148 -0.5623  0.1398  0.0487
  109ccc    H11 3287   1.647  -1.165   2.110 -2.0776 -0.1706  0.6823
  109ccc     C7 3288   2.172  -1.353   2.423 -0.4540 -0.2017 -0.2152
  109ccc    H12 3289   2.178  -1.298   2.329 -3.1418 -0.1951 -0.4486
  109ccc    H13 3290   2.189  -1.285   2.507 -0.9067 -0.1844 -0.1374
  109ccc     C8 3291   2.272  -1.466   2.431 -0.0162  0.2395 -0.0118
  109ccc    H14 3292   2.267  -1.502   2.534  1.1366  0.8620  0.2853
  109ccc    H15 3293   2.263  -1.545   2.355  2.2548  0.3820 -0.4938
  109ccc     C9 3294   2.413  -1.416   2.406 -0.3229 -0.5428 -0.1835
  109ccc     O3 3295   2.437  -1.316   2.340 -0.2146  0.5793  0.5437
  109ccc     O4 3296   2.502  -1.510   2.428 -0.7358  0.1955 -0.3361
  109ccc    H16 3297   2.586  -1.472   2.398  1.4746  0.2730  4.9019
  109ccc     O5 3298   1.790  -1.505   2.798 -0.8339  0.4745 -0.7836
  109ccc    H17 3299   2.020  -1.489   2.383 -1.3766  1.2452 -0.9595
  110ccc     C1 3300   1.189  -1.532   2.769 -0.4086  0.2047  0.7619
  110ccc     H1 3301   1.175  -1.579   2.867 -1.9650 -0.1021  0.4085
  110ccc     H2 3302   1.092  -1.516   2.722  0.1278 -0.0848 -0.4697
  110ccc     C2 3303   1.268  -1.636   2.697 -0.1230  0.4910 -0.2384
  110ccc     H3 3304   1.204  -1.724   2.704  0.7414 -0.0430  1.3625
  110ccc     H4 3305   1.360  -1.657   2.753  0.5994 -0.5950 -1.7402
  110ccc     C3 3306   1.298  -1.599   2.554  0.5066  0.1281 -0.1611
  110ccc     H5 3307   1.372  -1.519   2.548  1.6237 -0.9339 -0.7109
  110ccc     H6 3308   1.209  -1.557   2.507  0.2517 -1.6394 -1.3539
  110ccc     N1 3309   1.335  -1.698   2.455  0.2513  0.2002 -0.4769
  110ccc     C4 3310   1.228  -1.809   2.443 -0.2625 -0.3240  0.3704
  110ccc     H7 3311   1.146  -1.746   2.408  0.5179 -0.0058 -0.9462
  110ccc     H8 3312   1.218  -1.831   2.550 -1.5615  1.8042  0.7368
  110ccc     C5 3313   1.273  -1.932   2.355 -0.5908  0.3610 -0.0668
  110ccc     H9 3314   1.291  -1.897   2.253 -0.9445 -2.0321 -1.0091
  110ccc    H10 3315   1.370  -1.961   2.397 -1.2760 -0.9568  0.6746
  110ccc     C6 3316   1.179  -2.047   2.376 -0.3812  0.9879  0.1995
  110ccc     O1 3317   1.115  -2.102   2.290 -0.2842 -0.2048 -0.0810
  110ccc     O2 3318   1.178  -2.096   2.495 -0.3660 -0.0732 -0.1401
  110ccc    H11 3319   1.101  -2.154   2.489  0.0502 -0.7788  0.9568
  110ccc     C7 3320   1.348  -1.624   2.325  0.4920  0.2117 -0.7329
  110ccc    H12 3321   1.273  -1.662   2.255 -0.9128  0.4762  0.5719
  110ccc    H13 3322   1.332  -1.518   2.346  0.1038  0.3630 -1.7338
  110ccc     C8 3323   1.484  -1.624   2.252 -0.2311 -0.5425 -0.1657
  110ccc    H14 3324   1.561  -1.614   2.329  0.4816 -0.6098 -0.8527
  110ccc    H15 3325   1.484  -1.718   2.195 -3.1042 -0.8281  0.1598
  110ccc     C9 3326   1.487  -1.510   2.152  0.4085 -0.6150  0.0174
  110ccc     O3 3327   1.405  -1.419   2.152 -0.1795  0.6647  0.2009
  110ccc     O4 3328   1.569  -1.536   2.050 -0.3077 -0.2725  0.0274
  110ccc    H16 3329   1.552  -1.456   1.998 -0.0443  1.7338  2.8354
  110ccc     O5 3330   1.261  -1.405   2.775  0.7715  0.1159  0.4909
  110ccc    H17 3331   1.420  -1.744   2.491 -0.1095 -1.6359 -1.7934
  111ccc     C1 3332  -1.336  -0.053   0.930  0.0910  0.0368 -0.5664
  111ccc     H1 3333  -1.317   0.054   0.942  0.7643 -0.0706 -0.6504
  111ccc     H2 3334  -1.275  -0.079   0.842  1.0612  2.4487 -0.6821
  111ccc     C2 3335  -1.483  -0.085   0.903  0.4038  0.4088  0.0491
  111ccc     H3 3336  -1.515  -0.026   0.816  0.8790  1.0278  0.2902
  111ccc     H4 3337  -1.534  -0.030   0.983 -0.7638  1.5029 -1.4064
  111ccc     C3 3338  -1.518  -0.239   0.886  0.4536  0.0618 -0.3413
  111ccc     H5 3339  -1.481  -0.307   0.964  1.1963 -1.7728 -2.2042
  111ccc     H6 3340  -1.468  -0.272   0.795  3.3843  1.2673  0.7215
  111ccc     N1 3341  -1.672  -0.266   0.871 -0.5320 -0.3748 -0.1062
  111ccc     C4 3342  -1.713  -0.411   0.842 -0.0579 -0.3513 -0.2851
  111ccc     H7 3343  -1.822  -0.410   0.852 -0.0102  1.5543  0.5125
  111ccc     H8 3344  -1.659  -0.476   0.910  1.5678 -0.6763 -1.8214
  111ccc     C5 3345  -1.678  -0.442   0.702 -0.0063 -0.0210 -0.4034
  111ccc     H9 3346  -1.735  -0.379   0.632  1.5694  1.2057 -0.6478
  111ccc    H10 3347  -1.579  -0.406   0.671 -1.3260  1.6315 -3.1695
  111ccc     C6 3348  -1.704  -0.583   0.666  0.2425  0.7514 -0.5532
  111ccc     O1 3349  -1.753  -0.670   0.737  0.5277 -0.2034 -0.6696
  111ccc     O2 3350  -1.664  -0.614   0.544  0.0860  0.3716 -0.4350
  111ccc    H11 3351  -1.676  -0.710   0.533 -0.9269  0.3274  0.8488
  111ccc     C7 3352  -1.755  -0.204   0.978  0.5452 -0.0249 -0.7102
  111ccc    H12 3353  -1.778  -0.283   1.049  1.0720 -1.6528 -2.2651
  111ccc    H13 3354  -1.698  -0.124   1.026 -0.8075 -0.6999  2.2513
  111ccc     C8 3355  -1.889  -0.142   0.940 -0.1068 -0.5411  0.9891
  111ccc    H14 3356  -1.871  -0.073   0.857 -0.1838  0.2894  1.6408
  111ccc    H15 3357  -1.959  -0.220   0.907 -0.0937 -0.1971  0.1324
  111ccc     C9 3358  -1.965  -0.071   1.059 -0.7226  0.3283 -0.4143
  111ccc     O3 3359  -1.915  -0.050   1.167  0.7601  0.4926 -0.4821
  111ccc     O4 3360  -2.091  -0.032   1.037  0.1059  0.5205  0.7969
  111ccc    H16 3361  -2.100  -0.039   0.940 -0.2356  0.7834  0.8064
  111ccc     O5 3362  -1.306  -0.130   1.047 -0.4413 -0.4274 -0.0588
  111ccc    H17 3363  -1.693  -0.217   0.783  0.4943 -2.6332 -1.7136
  112ccc     C1 3364  -1.464  -0.504   1.640 -0.2895 -0.4070  0.8153
  112ccc     H1 3365  -1.408  -0.584   1.590  1.6194  0.2142  1.8881
  112ccc     H2 3366  -1.411  -0.490   1.735  0.9905 -2.5338  0.4834
  112ccc     C2 3367  -1.610  -0.538   1.667 -0.2472 -0.2657  0.2459
  112ccc     H3 3368  -1.662  -0.449   1.706  2.6836  1.0740  1.5168
  112ccc     H4 3369  -1.623  -0.614   1.745 -1.4344 -0.3852 -0.0580
  112ccc     C3 3370  -1.671  -0.603   1.540  1.0143 -0.7280 -0.2058
  112ccc     H5 3371  -1.612  -0.690   1.509  2.0690  0.9166 -3.2504
  112ccc     H6 3372  -1.659  -0.532   1.459 -1.0544 -0.9211 -0.7410
  112ccc     N1 3373  -1.824  -0.632   1.547 -0.2556  0.1807  0.0169
  112ccc     C4 3374  -1.870  -0.709   1.678  0.8843 -0.3460  0.1359
  112ccc     H7 3375  -1.884  -0.637   1.758  1.5522 -0.6833  0.5650
  112ccc     H8 3376  -1.789  -0.770   1.719 -2.2497 -2.3323  3.9687
  112ccc     C5 3377  -1.988  -0.802   1.666  0.1612 -0.6844  0.3433
  112ccc     H9 3378  -2.087  -0.757   1.652 -1.0291 -1.9075  3.7717
  112ccc    H10 3379  -1.968  -0.881   1.593  1.1061 -0.0315 -0.1241
  112ccc     C6 3380  -2.009  -0.879   1.792 -0.2085 -0.6733 -0.9055
  112ccc     O1 3381  -1.960  -0.845   1.895  0.1736  0.0870  0.3747
  112ccc     O2 3382  -2.101  -0.971   1.795  0.0993  0.2507  0.6478
  112ccc    H11 3383  -2.136  -0.955   1.705  4.0600  1.1438 -0.9455
  112ccc     C7 3384  -1.909  -0.511   1.503  0.6975 -0.4795  0.4895
  112ccc    H12 3385  -2.000  -0.503   1.564  0.9793  3.3923  0.6078
  112ccc    H13 3386  -1.849  -0.424   1.530  1.6549 -0.4722 -1.5296
  112ccc     C8 3387  -1.945  -0.511   1.352  0.2011 -0.4862 -0.2900
  112ccc    H14 3388  -1.849  -0.518   1.299  0.2074 -2.7755 -0.1009
  112ccc    H15 3389  -2.008  -0.597   1.325 -0.2870 -0.7034  1.4216
  112ccc     C9 3390  -2.013  -0.386   1.293 -0.0726 -0.1635 -0.8327
  112ccc     O3 3391  -1.985  -0.270   1.344  0.1455  0.3654 -0.2592
  112ccc     O4 3392  -2.065  -0.394   1.167 -0.2311 -0.3750 -0.1535
  112ccc    H16 3393  -2.031  -0.480   1.136 -0.6426 -0.4825 -0.3076
  112ccc     O5 3394  -1.454  -0.379   1.563  0.4736 -0.0981 -0.6771
  112ccc    H17 3395  -1.841  -0.701   1.472 -0.0034 -1.2945  1.2570
  113ccc     C1 3396  -0.687  -1.362   2.152 -0.0798  0.3398  0.2656
  113ccc     H1 3397  -0.751  -1.306   2.222  0.3922 -1.1434  1.9265
  113ccc     H2 3398  -0.742  -1.440   2.099 -1.7196  1.2606  0.5265
  113ccc     C2 3399  -0.576  -1.429   2.235 -0.1496  0.4373 -0.2632
  113ccc     H3 3400  -0.527  -1.504   2.173  1.6941  0.0341  1.5621
  113ccc     H4 3401  -0.625  -1.488   2.313 -0.2748 -0.0357 -0.6983
  113ccc     C3 3402  -0.476  -1.328   2.289  0.0551  0.0812 -0.7627
  113ccc     H5 3403  -0.529  -1.243   2.334 -1.5395 -0.2423 -1.9500
  113ccc     H6 3404  -0.412  -1.286   2.212  0.8467 -0.4701 -0.4212
  113ccc     N1 3405  -0.379  -1.394   2.389 -0.6171  0.3503 -0.3888
  113ccc     C4 3406  -0.264  -1.473   2.317  0.2149 -0.3585 -0.7967
  113ccc     H7 3407  -0.201  -1.402   2.264  1.4341 -0.1696  0.8127
  113ccc     H8 3408  -0.321  -1.523   2.239  0.2038  0.8505 -1.5764
  113ccc     C5 3409  -0.190  -1.570   2.410 -0.4837 -0.0402  0.2616
  113ccc     H9 3410  -0.130  -1.518   2.485  0.9138  1.2725 -1.6721
  113ccc    H10 3411  -0.262  -1.638   2.458  0.9781 -1.5541  0.4164
  113ccc     C6 3412  -0.101  -1.653   2.324 -0.0115 -0.7936 -0.3186
  113ccc     O1 3413  -0.148  -1.754   2.278  0.1324 -0.1608  0.2500
  113ccc     O2 3414   0.003  -1.587   2.289 -0.0787  0.0495 -0.2488
  113ccc    H11 3415   0.032  -1.634   2.209 -0.4995 -0.3876 -0.1446
  113ccc     C7 3416  -0.316  -1.289   2.477 -0.9784  0.2232  0.3489
  113ccc    H12 3417  -0.221  -1.331   2.511 -1.3339 -1.2249 -0.3669
  113ccc    H13 3418  -0.294  -1.199   2.420  0.7594 -0.4051 -0.0517
  113ccc     C8 3419  -0.406  -1.259   2.596 -0.2921 -0.5243 -0.1395
  113ccc    H14 3420  -0.495  -1.220   2.546  0.7684  0.1638 -1.5336
  113ccc    H15 3421  -0.450  -1.345   2.648 -3.1572  0.7089 -0.3370
  113ccc     C9 3422  -0.351  -1.147   2.683  0.3773 -0.5743 -0.1783
  113ccc     O3 3423  -0.230  -1.115   2.686 -0.4311 -0.4530 -0.4911
  113ccc     O4 3424  -0.426  -1.133   2.794 -0.1600  0.7950 -0.6824
  113ccc    H16 3425  -0.490  -1.206   2.798 -1.1399  1.6662  0.1942
  113ccc     O5 3426  -0.608  -1.277   2.062  0.7769  0.1710  0.3330
  113ccc    H17 3427  -0.430  -1.458   2.452 -0.1403  0.8214  0.4915
  114ccc     C1 3428  -0.471  -1.159   1.473 -0.4188  0.1500 -0.4185
  114ccc     H1 3429  -0.505  -1.055   1.462 -1.4850 -0.2611 -1.1721
  114ccc     H2 3430  -0.410  -1.185   1.385  0.2971  2.0183 -0.5279
  114ccc     C2 3431  -0.587  -1.254   1.487 -0.4503 -0.4032  0.1509
  114ccc     H3 3432  -0.624  -1.254   1.384 -1.9133  2.9628  0.5522
  114ccc     H4 3433  -0.661  -1.203   1.550 -0.4769  1.1567 -1.0790
  114ccc     C3 3434  -0.561  -1.396   1.534  0.3023 -0.2030 -0.1054
  114ccc     H5 3435  -0.513  -1.397   1.631  0.2879  1.6510 -0.0549
  114ccc     H6 3436  -0.500  -1.439   1.454 -0.8653 -0.5005 -0.8750
  114ccc     N1 3437  -0.680  -1.494   1.543  0.4954 -0.0936 -0.1078
  114ccc     C4 3438  -0.761  -1.458   1.663 -0.1917  0.2998 -0.8500
  114ccc     H7 3439  -0.844  -1.393   1.636 -0.1051 -0.3401 -2.7511
  114ccc     H8 3440  -0.699  -1.402   1.733  0.6032  0.1096 -1.3934
  114ccc     C5 3441  -0.823  -1.576   1.739 -0.6461 -0.0664  0.4023
  114ccc     H9 3442  -0.873  -1.649   1.673 -0.8838  0.0737  0.4266
  114ccc    H10 3443  -0.745  -1.629   1.794 -1.2798  0.0156  1.4053
  114ccc     C6 3444  -0.908  -1.522   1.861  0.0855  0.1742 -0.3827
  114ccc     O1 3445  -0.939  -1.407   1.888  0.4471  0.4010 -0.0407
  114ccc     O2 3446  -0.925  -1.622   1.952  0.2093  0.3334  0.2211
  114ccc    H11 3447  -0.905  -1.706   1.908  1.8715 -0.7775  2.8276
  114ccc     C7 3448  -0.761  -1.510   1.413 -0.3878 -0.0290  0.8011
  114ccc    H12 3449  -0.850  -1.566   1.442 -0.2412 -0.6845  0.0278
  114ccc    H13 3450  -0.785  -1.413   1.368 -0.6463 -0.8055 -0.8189
  114ccc     C8 3451  -0.696  -1.601   1.305 -0.0850  0.2663  0.2795
  114ccc    H14 3452  -0.597  -1.558   1.289  0.3967 -0.2070  1.7688
  114ccc    H15 3453  -0.675  -1.700   1.346 -1.9261 -0.2280  0.1160
  114ccc     C9 3454  -0.777  -1.626   1.176  0.7983  0.3056  0.3577
  114ccc     O3 3455  -0.893  -1.596   1.165  0.1041  0.0620  0.3254
  114ccc     O4 3456  -0.704  -1.684   1.084  0.4737  0.2014  0.2270
  114ccc    H16 3457  -0.616  -1.710   1.115  1.2937  0.6997 -1.5458
  114ccc     O5 3458  -0.380  -1.185   1.583 -0.2426 -0.6430 -0.0884
  114ccc    H17 3459  -0.641  -1.587   1.562  0.9679 -0.0240 -0.7202
  115ccc     C1 3460  -0.982  -0.270   3.191 -0.7304  0.2037 -0.3612
  115ccc     H1 3461  -1.012  -0.262   3.297  0.5772  1.9111 -0.0672
  115ccc     H2 3462  -1.042  -0.199   3.134 -0.3541  0.8037 -0.0255
  115ccc     C2 3463  -0.985  -0.411   3.131  0.6630 -0.2241 -0.5766
  115ccc     H3 3464  -0.970  -0.412   3.023  1.2061 -1.1500 -0.5003
  115ccc     H4 3465  -1.082  -0.457   3.153  0.4580  0.4257 -0.0751
  115ccc     C3 3466  -0.864  -0.494   3.190  0.1519  0.3089  0.8286
  115ccc     H5 3467  -0.872  -0.487   3.299  3.1411 -0.5770  1.1847
  115ccc     H6 3468  -0.770  -0.448   3.159 -0.5599  1.6928  0.6239
  115ccc     N1 3469  -0.871  -0.639   3.143  0.5561 -0.0823 -0.0927
  115ccc     C4 3470  -0.985  -0.715   3.209 -0.4651  0.5287  0.0898
  115ccc     H7 3471  -1.074  -0.654   3.192  0.4513  1.7035 -0.6471
  115ccc     H8 3472  -0.971  -0.729   3.316 -0.8681  0.6966  0.1667
  115ccc     C5 3473  -1.014  -0.852   3.150  0.1404 -0.3888 -0.1661
  115ccc     H9 3474  -1.056  -0.850   3.048  1.9729  1.3021 -0.9591
  115ccc    H10 3475  -0.923  -0.907   3.123 -0.2199 -0.0641 -2.2984
  115ccc     C6 3476  -1.101  -0.936   3.242  0.1574  0.2055 -1.0037
  115ccc     O1 3477  -1.185  -0.890   3.315 -0.3681 -0.4160  0.4601
  115ccc     O2 3478  -1.079  -1.069   3.239 -0.2351  0.6652 -0.0666
  115ccc    H11 3479  -1.006  -1.080   3.175  1.0149  0.9289  1.2519
  115ccc     C7 3480  -0.846  -0.660   2.994 -0.2109  0.0521  0.5294
  115ccc    H12 3481  -0.830  -0.766   2.973  0.9013  0.2227  0.4646
  115ccc    H13 3482  -0.938  -0.630   2.944 -0.2282 -0.9925 -0.1082
  115ccc     C8 3483  -0.729  -0.583   2.938 -0.3744 -0.5552 -0.1252
  115ccc    H14 3484  -0.731  -0.481   2.979  0.5610  0.6997 -2.9088
  115ccc    H15 3485  -0.636  -0.634   2.969  1.4571  2.8071  0.4241
  115ccc     C9 3486  -0.725  -0.573   2.787  0.2248  0.8025  0.2555
  115ccc     O3 3487  -0.824  -0.574   2.713  0.2376 -0.0258 -0.6445
  115ccc     O4 3488  -0.612  -0.608   2.729  0.3352  0.1892 -0.0708
  115ccc    H16 3489  -0.638  -0.607   2.636  1.0389 -0.3881 -0.2846
  115ccc     O5 3490  -0.849  -0.217   3.175  0.2128 -0.3139  0.4763
  115ccc    H17 3491  -0.788  -0.679   3.189  0.3558  0.0330  0.3771
  116ccc     C1 3492  -0.209  -0.337   3.408  0.4251  0.1481 -0.4530
  116ccc     H1 3493  -0.309  -0.382   3.417  1.0342 -0.8624  1.8590
  116ccc     H2 3494  -0.132  -0.415   3.405  1.0784  0.7469  0.3069
  116ccc     C2 3495  -0.173  -0.243   3.524 -0.0051 -0.1976 -0.2048
  116ccc     H3 3496  -0.070  -0.206   3.527 -0.2918  0.6002  2.0837
  116ccc     H4 3497  -0.193  -0.298   3.617 -1.9745  2.9544  1.4149
  116ccc     C3 3498  -0.263  -0.112   3.528  0.4630 -0.1761 -0.2205
  116ccc     H5 3499  -0.365  -0.132   3.563 -0.5213  1.0156 -2.2718
  116ccc     H6 3500  -0.282  -0.092   3.423 -2.2158  0.9313  0.3743
  116ccc     N1 3501  -0.207   0.009   3.597 -0.9755  0.0683  0.3914
  116ccc     C4 3502  -0.154  -0.016   3.736  0.6057  0.1499  0.4073
  116ccc     H7 3503  -0.105   0.071   3.779 -0.4126  0.9272  0.0523
  116ccc     H8 3504  -0.078  -0.094   3.741  0.7729  0.1418 -1.4812
  116ccc     C5 3505  -0.272  -0.052   3.830 -0.5649  0.6246 -0.0061
  116ccc     H9 3506  -0.357   0.013   3.806 -0.1810  1.6996  1.4000
  116ccc    H10 3507  -0.288  -0.157   3.801  3.0770  0.4125 -1.8941
  116ccc     C6 3508  -0.238  -0.032   3.984 -0.3159  0.2613  0.0860
  116ccc     O1 3509  -0.156   0.054   4.013  0.2373  0.2196 -0.5454
  116ccc     O2 3510  -0.295  -0.117   4.075  0.3668 -0.8924 -0.2899
  116ccc    H11 3511  -0.353  -0.170   4.018 -1.6431  0.6260  0.2287
  116ccc     C7 3512  -0.089   0.062   3.518 -0.2630  0.2093  0.4290
  116ccc    H12 3513  -0.035   0.135   3.579 -0.6934  0.1546  0.8771
  116ccc    H13 3514  -0.029  -0.019   3.477 -1.0011 -2.0365  3.4365
  116ccc     C8 3515  -0.139   0.143   3.396  0.1090  0.1537  0.0252
  116ccc    H14 3516  -0.191   0.078   3.326  0.8359  1.1400 -1.4778
  116ccc    H15 3517  -0.207   0.223   3.427  0.8949  0.7890  0.1494
  116ccc     C9 3518  -0.021   0.196   3.320 -0.1317 -0.1122 -0.0555
  116ccc     O3 3519   0.098   0.174   3.340  0.1383  0.0074 -0.6723
  116ccc     O4 3520  -0.053   0.281   3.220  0.2773  0.0075  0.7133
  116ccc    H16 3521   0.038   0.294   3.189  0.3767 -1.8900  0.1184
  116ccc     O5 3522  -0.210  -0.243   3.291 -0.0597  0.9325  0.0106
  116ccc    H17 3523  -0.279   0.081   3.605  0.5943  1.5702  1.6412
  117ccc     C1 3524   0.394   0.760   3.248 -0.2797 -0.2343 -0.8948
  117ccc     H1 3525   0.293   0.752   3.205 -1.8124  3.6829  1.4128
  117ccc     H2 3526   0.407   0.785   3.354  1.1835  1.8200 -1.5090
  117ccc     C2 3527   0.456   0.874   3.174  0.3853 -0.0725 -0.1227
  117ccc     H3 3528   0.409   0.971   3.195  0.5969  0.0349 -0.1418
  117ccc     H4 3529   0.439   0.858   3.067  0.8290  2.7369 -0.6877
  117ccc     C3 3530   0.610   0.885   3.209 -0.2947 -0.1562  1.1452
  117ccc     H5 3531   0.657   0.794   3.171  2.1864  0.8064  1.7451
  117ccc     H6 3532   0.618   0.884   3.318 -1.3234 -1.7877  1.2455
  117ccc     N1 3533   0.687   1.006   3.160 -0.0989 -0.0877  0.2256
  117ccc     C4 3534   0.821   1.029   3.230 -0.4607  0.3075 -0.8185
  117ccc     H7 3535   0.865   1.123   3.196  1.0676  0.0311  0.2858
  117ccc     H8 3536   0.896   0.954   3.206  0.4212  1.1530 -0.8003
  117ccc     C5 3537   0.813   1.036   3.383 -0.1811 -0.0281 -1.0928
  117ccc     H9 3538   0.779   0.950   3.442  0.5375  0.3551 -0.0962
  117ccc    H10 3539   0.915   1.039   3.423 -0.8964  0.2495  0.8282
  117ccc     C6 3540   0.750   1.167   3.439  0.6329  0.1435 -0.0901
  117ccc     O1 3541   0.794   1.273   3.400  0.3779 -0.0382  0.5058
  117ccc     O2 3542   0.627   1.162   3.492  0.0995 -0.7544 -0.0948
  117ccc    H11 3543   0.607   1.258   3.493 -1.5804 -1.0513  1.9157
  117ccc     C7 3544   0.708   1.001   3.009 -0.0318 -0.5307  0.2254
  117ccc    H12 3545   0.800   0.945   2.993  0.0429 -0.4664  0.4229
  117ccc    H13 3546   0.625   0.945   2.965 -0.2598 -0.5254  0.6498
  117ccc     C8 3547   0.719   1.140   2.945 -0.1457  0.1447  0.6346
  117ccc    H14 3548   0.619   1.185   2.943 -0.9135 -1.4682 -0.2152
  117ccc    H15 3549   0.777   1.205   3.010 -0.8921  1.0208  0.4459
  117ccc     C9 3550   0.780   1.137   2.804 -0.2177  0.1496  0.0487
  117ccc     O3 3551   0.811   1.028   2.752  0.0613  0.2031 -0.1492
  117ccc     O4 3552   0.838   1.256   2.777 -0.4458  0.9307  0.1370
  117ccc    H16 3553   0.810   1.328   2.836 -1.3285 -0.0555  0.9506
  117ccc     O5 3554   0.468   0.639   3.226  0.0735  0.1615  0.6396
  117ccc    H17 3555   0.631   1.090   3.179 -1.0691 -1.0213  1.6722
  118ccc     C1 3556   0.749  -0.197   2.971  0.5299  0.1652  0.4033
  118ccc     H1 3557   0.737  -0.280   3.042 -1.9616 -1.9670 -2.2739
  118ccc     H2 3558   0.669  -0.209   2.897  1.9325 -1.9027 -0.8987
  118ccc     C2 3559   0.881  -0.214   2.894 -0.4234  0.4540 -0.4768
  118ccc     H3 3560   0.893  -0.133   2.821  0.5904  0.9519  0.2136
  118ccc     H4 3561   0.874  -0.314   2.848  0.2282  0.0347  0.2935
  118ccc     C3 3562   0.993  -0.208   3.001 -0.6395 -0.6927  0.2294
  118ccc     H5 3563   1.051  -0.299   2.988 -0.5950 -0.6129 -0.1754
  118ccc     H6 3564   0.948  -0.201   3.100 -0.5032 -1.9950  0.3917
  118ccc     N1 3565   1.100  -0.093   2.979 -0.6187 -0.5318 -0.1604
  118ccc     C4 3566   1.175  -0.104   2.848 -0.0321  0.3180 -0.4226
  118ccc     H7 3567   1.256  -0.031   2.848 -0.7676  1.1440 -0.2926
  118ccc     H8 3568   1.104  -0.082   2.769 -0.1989 -1.2165 -0.7311
  118ccc     C5 3569   1.246  -0.243   2.833  0.1684 -0.4551 -0.0102
  118ccc     H9 3570   1.317  -0.257   2.915  2.0087  2.1796 -1.0217
  118ccc    H10 3571   1.166  -0.317   2.820 -0.1797 -0.1274  0.2650
  118ccc     C6 3572   1.321  -0.250   2.702  0.1820 -0.4423 -0.2127
  118ccc     O1 3573   1.330  -0.165   2.618 -0.0777  0.4090  0.5167
  118ccc     O2 3574   1.416  -0.347   2.697 -0.0693 -0.1088 -0.1924
  118ccc    H11 3575   1.391  -0.400   2.774 -1.0890 -0.5381 -0.7948
  118ccc     C7 3576   1.028   0.041   2.997 -0.4451  0.0103 -0.3109
  118ccc    H12 3577   0.960   0.066   2.915  2.5683  0.4256 -2.8783
  118ccc    H13 3578   0.976   0.035   3.093  0.7530  0.8156  0.4255
  118ccc     C8 3579   1.124   0.163   2.998 -0.3005  0.2502  0.1430
  118ccc    H14 3580   1.212   0.149   3.062 -0.9269  0.4644  1.0682
  118ccc    H15 3581   1.171   0.188   2.902  0.8358 -0.7757  0.4110
  118ccc     C9 3582   1.051   0.291   3.032  0.0478  0.0369  0.0428
  118ccc     O3 3583   0.933   0.297   3.055 -0.5149  0.2620 -0.3577
  118ccc     O4 3584   1.125   0.401   3.025 -0.0315  0.2564  0.5163
  118ccc    H16 3585   1.219   0.376   3.028  0.0653 -0.1372 -2.7464
  118ccc     O5 3586   0.744  -0.073   3.037  0.1589 -0.4791  0.0050
  118ccc    H17 3587   1.170  -0.091   3.055  0.8516  1.6626 -1.4548
  119ccc     C1 3588  -1.892   0.833   1.821  0.3496 -0.4544  0.3103
  119ccc     H1 3589  -1.971   0.880   1.881 -0.2113  0.6237 -1.2133
  119ccc     H2 3590  -1.925   0.831   1.716 -0.0257 -0.1717  0.4198
  119ccc     C2 3591  -1.865   0.689   1.873 -0.4145 -0.3918  0.3094
  119ccc     H3 3592  -1.844   0.702   1.980 -3.2850  1.5335  0.7550
  119ccc     H4 3593  -1.771   0.652   1.829  0.0254 -0.5564  1.3623
  119ccc     C3 3594  -1.975   0.592   1.842  0.3398  0.9612 -0.5362
  119ccc     H5 3595  -1.985   0.567   1.736 -0.4182  3.7572 -1.2107
  119ccc     H6 3596  -2.060   0.644   1.885  1.9426  1.8245  1.7704
  119ccc     N1 3597  -1.956   0.466   1.916 -0.2426 -0.5682  0.0047
  119ccc     C4 3598  -2.095   0.407   1.947 -0.1976  0.0641 -0.3107
  119ccc     H7 3599  -2.132   0.348   1.863 -2.4374  1.1011 -0.1473
  119ccc     H8 3600  -2.172   0.484   1.957 -2.7230 -2.4112  0.5356
  119ccc     C5 3601  -2.092   0.338   2.084  0.1934  0.1650 -0.1691
  119ccc     H9 3602  -2.027   0.250   2.086  0.0150  0.0384  0.7029
  119ccc    H10 3603  -2.067   0.409   2.165 -1.0069  0.2496  0.1446
  119ccc     C6 3604  -2.233   0.287   2.121 -0.7688  0.1099 -0.2621
  119ccc     O1 3605  -2.331   0.309   2.055 -0.0791  0.0375 -0.4686
  119ccc     O2 3606  -2.236   0.196   2.221 -0.5312  0.3529  0.0136
  119ccc    H11 3607  -2.148   0.192   2.263 -0.4007  2.9903  0.1446
  119ccc     C7 3608  -1.878   0.381   1.824 -0.1705 -0.2668 -0.8563
  119ccc    H12 3609  -1.932   0.364   1.731 -0.4304  0.4158 -0.8365
  119ccc    H13 3610  -1.786   0.432   1.796 -0.8884  1.9787  0.6354
  119ccc     C8 3611  -1.823   0.240   1.878 -0.9016 -0.2455  0.3466
  119ccc    H14 3612  -1.783   0.245   1.980  1.3599 -1.2488 -0.4216
  119ccc    H15 3613  -1.896   0.159   1.888 -1.5241  0.4021  1.0514
  119ccc     C9 3614  -1.715   0.179   1.785 -0.0567  0.4652 -0.4296
  119ccc     O3 3615  -1.677   0.234   1.683 -0.4258  0.1341 -0.0431
  119ccc     O4 3616  -1.666   0.067   1.831  0.4154 -0.1412 -0.0937
  119ccc    H16 3617  -1.718   0.055   1.912 -2.1176  0.8604 -1.4776
  119ccc     O5 3618  -1.766   0.897   1.848 -0.1578 -0.5538 -0.0799
  119ccc    H17 3619  -1.912   0.482   2.008 -0.3814 -0.5612  0.0710
  120ccc     C1 3620  -1.092   0.702   2.032  0.2557 -0.7372 -0.4698
  120ccc     H1 3621  -1.137   0.761   2.112 -1.4563 -0.5216 -1.5490
  120ccc     H2 3622  -1.110   0.596   2.055  0.4608 -1.2264 -2.4005
  120ccc     C2 3623  -0.939   0.726   2.037 -0.1272  0.3017  0.5487
  120ccc     H3 3624  -0.890   0.683   1.949  1.0740  0.4601  1.1287
  120ccc     H4 3625  -0.898   0.671   2.122 -0.3001 -2.2083 -0.8582
  120ccc     C3 3626  -0.900   0.875   2.058  0.3079 -0.0968 -0.4688
  120ccc     H5 3627  -0.837   0.869   2.147 -0.1205  0.3469 -0.1326
  120ccc     H6 3628  -0.993   0.926   2.084 -0.0308 -1.5178  1.3420
  120ccc     N1 3629  -0.819   0.931   1.945 -0.8780 -0.6109 -0.1219
  120ccc     C4 3630  -0.679   0.861   1.944 -0.0865  0.9671 -0.3823
  120ccc     H7 3631  -0.701   0.759   1.912  0.5695  1.3121 -2.0923
  120ccc     H8 3632  -0.633   0.851   2.042  1.0151  0.0004 -0.9704
  120ccc     C5 3633  -0.565   0.920   1.852 -0.1373 -0.0193  0.3654
  120ccc     H9 3634  -0.579   0.898   1.746 -0.2020 -2.6248  0.8429
  120ccc    H10 3635  -0.570   1.029   1.865 -1.2533 -0.3223  3.5260
  120ccc     C6 3636  -0.422   0.880   1.881 -0.5469 -1.0624 -0.1914
  120ccc     O1 3637  -0.383   0.837   1.987  0.3172  0.4782  0.4117
  120ccc     O2 3638  -0.334   0.944   1.804  0.1822 -0.2395  0.3958
  120ccc    H11 3639  -0.252   0.925   1.853  0.0694 -2.7916 -0.2695
  120ccc     C7 3640  -0.876   0.920   1.815 -0.8049 -0.2133  0.1866
  120ccc    H12 3641  -0.800   0.954   1.744 -0.8570 -1.6910 -0.6184
  120ccc    H13 3642  -0.890   0.814   1.795  1.2114 -0.5933  0.5397
  120ccc     C8 3643  -1.002   1.010   1.797  0.4548  0.2307  0.3207
  120ccc    H14 3644  -1.087   0.974   1.857 -1.0724  3.6553  0.4206
  120ccc    H15 3645  -0.972   1.109   1.833 -2.0010  1.0686  0.2937
  120ccc     C9 3646  -1.048   1.005   1.663 -0.1036  0.3307 -0.2497
  120ccc     O3 3647  -1.052   0.907   1.590  0.2031 -0.0387 -0.3044
  120ccc     O4 3648  -1.042   1.119   1.597 -0.0647 -0.1204 -0.3273
  120ccc    H16 3649  -1.064   1.108   1.503  4.6055  1.9852 -1.9490
  120ccc     O5 3650  -1.138   0.739   1.903  0.0695 -0.6987  0.2057
  120ccc    H17 3651  -0.806   1.030   1.972  1.7827 -0.6139 -1.0746
  121ccc     C1 3652  -1.317   1.678   0.618  0.0134  1.2192 -0.1378
  121ccc     H1 3653  -1.350   1.756   0.550 -1.3018  0.4891 -0.3574
  121ccc     H2 3654  -1.324   1.584   0.562  0.4257  0.4276  1.0721
  121ccc     C2 3655  -1.410   1.672   0.744  0.3793 -0.3806 -0.3332
  121ccc     H3 3656  -1.501   1.622   0.706 -0.0468 -0.4741  0.7759
  121ccc     H4 3657  -1.446   1.769   0.779 -1.3859 -0.7048 -1.0972
  121ccc     C3 3658  -1.357   1.590   0.854 -0.0755  0.0758  0.6623
  121ccc     H5 3659  -1.253   1.620   0.867  0.0158  0.7391 -1.2784
  121ccc     H6 3660  -1.341   1.486   0.825 -0.2000 -0.6342  2.8886
  121ccc     N1 3661  -1.431   1.602   0.988  0.3533 -0.3745  0.3912
  121ccc     C4 3662  -1.583   1.568   0.968 -0.1484 -0.2384 -0.2315
  121ccc     H7 3663  -1.588   1.461   0.945  0.7936 -0.7979  1.8309
  121ccc     H8 3664  -1.611   1.629   0.882  0.9292  2.0429  0.9509
  121ccc     C5 3665  -1.688   1.594   1.077 -0.2290  0.1380 -0.6974
  121ccc     H9 3666  -1.648   1.551   1.170  2.1746  1.7062 -0.9255
  121ccc    H10 3667  -1.699   1.702   1.097 -1.4400  0.2840 -2.0037
  121ccc     C6 3668  -1.825   1.544   1.048 -0.5404 -1.0464  0.4326
  121ccc     O1 3669  -1.853   1.437   1.102  0.0447 -0.0002  0.1180
  121ccc     O2 3670  -1.894   1.600   0.943  0.4652  0.2702  0.1194
  121ccc    H11 3671  -1.846   1.681   0.917 -0.4579  0.5679 -0.6968
  121ccc     C7 3672  -1.364   1.511   1.094 -0.0729 -0.2888 -0.0238
  121ccc    H12 3673  -1.439   1.496   1.171  0.7193 -2.7412  0.3841
  121ccc    H13 3674  -1.347   1.418   1.039  0.8081  0.6783 -1.4555
  121ccc     C8 3675  -1.237   1.569   1.154 -0.1606 -0.8291 -0.0167
  121ccc    H14 3676  -1.165   1.616   1.085 -0.0943  0.9807  1.2111
  121ccc    H15 3677  -1.265   1.642   1.231 -1.3954 -0.5429 -0.7096
  121ccc     C9 3678  -1.154   1.469   1.229 -0.7228 -0.5002  0.4742
  121ccc     O3 3679  -1.165   1.352   1.231  0.7664  0.1966  0.5060
  121ccc     O4 3680  -1.044   1.525   1.280 -0.1641  0.3199 -0.4171
  121ccc    H16 3681  -1.061   1.620   1.263 -1.4599  0.0266 -0.8586
  121ccc     O5 3682  -1.177   1.701   0.656 -0.0515 -0.0546  0.4976
  121ccc    H17 3683  -1.421   1.699   1.021  2.9094  0.2154 -1.7336
  122ccc     C1 3684  -0.358   1.583   0.406  0.0901  0.5105  0.2752
  122ccc     H1 3685  -0.268   1.544   0.455 -1.0670 -0.7762  1.5115
  122ccc     H2 3686  -0.367   1.527   0.312  2.6086 -0.3650  0.4871
  122ccc     C2 3687  -0.331   1.730   0.365 -0.0582  0.9839 -0.9624
  122ccc     H3 3688  -0.424   1.780   0.335 -1.1731  0.2560  1.0932
  122ccc     H4 3689  -0.271   1.726   0.274  0.7382  0.7543 -0.4343
  122ccc     C3 3690  -0.278   1.809   0.482  0.1060 -0.3981 -0.5082
  122ccc     H5 3691  -0.292   1.750   0.572  0.8248 -0.4031 -0.3958
  122ccc     H6 3692  -0.331   1.905   0.484 -0.0250 -0.4826  0.2421
  122ccc     N1 3693  -0.136   1.850   0.485  0.5480 -0.1732 -0.0768
  122ccc     C4 3694  -0.110   1.980   0.563 -0.8225  0.2700 -0.2921
  122ccc     H7 3695  -0.003   1.994   0.574 -0.5503 -1.4196 -0.4688
  122ccc     H8 3696  -0.168   1.977   0.655 -0.1912  1.6094  0.1737
  122ccc     C5 3697  -0.164   2.096   0.484  0.2929 -0.2778 -0.2187
  122ccc     H9 3698  -0.111   2.095   0.388 -0.0990  1.2104 -0.4753
  122ccc    H10 3699  -0.270   2.080   0.462 -0.0277  0.8455  0.4838
  122ccc     C6 3700  -0.156   2.234   0.553 -0.0773 -0.4892  0.3986
  122ccc     O1 3701  -0.108   2.256   0.669 -0.2864 -0.5399 -0.5354
  122ccc     O2 3702  -0.207   2.335   0.489  0.4419 -0.3291  0.3842
  122ccc    H11 3703  -0.239   2.286   0.411 -0.8409 -0.7249  1.1429
  122ccc     C7 3704  -0.048   1.739   0.528 -0.6050 -0.0309 -0.0789
  122ccc    H12 3705  -0.061   1.656   0.458 -1.6335 -0.3492  0.4691
  122ccc    H13 3706   0.053   1.781   0.532 -0.3843 -0.5478 -0.1148
  122ccc     C8 3707  -0.077   1.689   0.663 -0.2320 -0.5515 -0.1714
  122ccc    H14 3708  -0.105   1.775   0.725 -0.6781  0.8586 -2.2108
  122ccc    H15 3709  -0.164   1.624   0.654  0.6546 -1.8178  0.0947
  122ccc     C9 3710   0.050   1.621   0.717  0.1012  0.2781  0.0097
  122ccc     O3 3711   0.121   1.561   0.642 -0.5863 -0.3043 -0.3294
  122ccc     O4 3712   0.077   1.652   0.843  0.1172  0.1178 -0.0908
  122ccc    H16 3713   0.160   1.605   0.863 -0.3472 -0.1294  1.3421
  122ccc     O5 3714  -0.467   1.569   0.494  0.2814  0.2458 -0.6618
  122ccc    H17 3715  -0.109   1.863   0.387 -0.0948 -0.8237 -0.3455
  123ccc     C1 3716   0.631  -0.158   0.577  0.4817 -0.1838  0.1128
  123ccc     H1 3717   0.733  -0.124   0.600  1.3495 -0.9785 -2.2731
  123ccc     H2 3718   0.588  -0.197   0.670 -1.1741  1.1518 -0.0409
  123ccc     C2 3719   0.650  -0.288   0.487 -0.1905 -0.3899  0.0152
  123ccc     H3 3720   0.668  -0.257   0.383  2.2261  1.2762  0.8322
  123ccc     H4 3721   0.567  -0.358   0.479 -0.6665  0.2209 -0.4787
  123ccc     C3 3722   0.782  -0.366   0.523 -0.2181  0.0230 -0.4622
  123ccc     H5 3723   0.751  -0.422   0.612 -3.7593  2.0401 -0.2028
  123ccc     H6 3724   0.858  -0.294   0.554 -1.1147  0.2791  1.2645
  123ccc     N1 3725   0.845  -0.461   0.423 -0.5947 -0.0342 -0.1271
  123ccc     C4 3726   0.993  -0.484   0.468 -0.2338 -0.1842  0.6447
  123ccc     H7 3727   1.043  -0.387   0.474  1.3166 -0.5867 -2.9891
  123ccc     H8 3728   1.027  -0.535   0.378 -0.2660 -0.6596  0.8994
  123ccc     C5 3729   1.023  -0.579   0.593  0.1137  0.2038  0.4531
  123ccc     H9 3730   0.966  -0.543   0.679 -0.6589  1.9703 -0.7478
  123ccc    H10 3731   0.982  -0.678   0.570  0.2582 -0.4543  2.7288
  123ccc     C6 3732   1.175  -0.597   0.617  0.0894 -0.4065 -0.4110
  123ccc     O1 3733   1.267  -0.550   0.547 -0.2903  0.3373 -0.0500
  123ccc     O2 3734   1.196  -0.618   0.749 -0.0954  0.0313  0.5763
  123ccc    H11 3735   1.111  -0.642   0.789  0.0014 -0.0679  0.7243
  123ccc     C7 3736   0.757  -0.587   0.418  0.1652 -0.8005 -0.1628
  123ccc    H12 3737   0.789  -0.664   0.488  0.4988 -0.7192 -0.2245
  123ccc    H13 3738   0.654  -0.554   0.433  0.6875  0.6102  0.5072
  123ccc     C8 3739   0.757  -0.652   0.280  0.2149  0.6175 -0.0022
  123ccc    H14 3740   0.724  -0.579   0.205 -1.1328 -0.3524 -0.3939
  123ccc    H15 3741   0.860  -0.678   0.256  0.0732  1.0321 -1.0954
  123ccc     C9 3742   0.675  -0.779   0.275 -1.1781  0.0599 -0.9055
  123ccc     O3 3743   0.596  -0.818   0.360  0.2267 -0.8321 -0.0322
  123ccc     O4 3744   0.659  -0.826   0.153 -0.1483  0.2954 -0.4419
  123ccc    H16 3745   0.725  -0.777   0.101  1.0420  0.0917  0.8049
  123ccc     O5 3746   0.543  -0.063   0.518 -0.6591  0.0183 -0.1293
  123ccc    H17 3747   0.845  -0.408   0.335 -0.2243  1.2688  0.6381
  124ccc     C1 3748  -0.131  -0.058   0.382  0.5955 -0.0108  0.1440
  124ccc     H1 3749  -0.166   0.031   0.434 -1.0319 -0.9219  0.6785
  124ccc     H2 3750  -0.199  -0.109   0.312  2.1146 -1.8482 -0.0840
  124ccc     C2 3751  -0.081  -0.162   0.476 -0.3289  0.3176  0.4341
  124ccc     H3 3752  -0.010  -0.225   0.421  1.7676  2.2766  0.7660
  124ccc     H4 3753  -0.165  -0.221   0.514 -0.0533  0.0552  0.6480
  124ccc     C3 3754   0.014  -0.105   0.588  0.3778  0.3078  0.1573
  124ccc     H5 3755  -0.034  -0.017   0.631  0.0227  0.4714 -0.5488
  124ccc     H6 3756   0.109  -0.081   0.541  0.3987 -1.7305 -0.9967
  124ccc     N1 3757   0.048  -0.200   0.698  0.1078  0.4115  0.1400
  124ccc     C4 3758   0.144  -0.123   0.788  0.7833  0.0408  0.2382
  124ccc     H7 3759   0.124  -0.150   0.892 -0.8950 -1.0299 -0.3231
  124ccc     H8 3760   0.132  -0.016   0.769 -0.4587 -0.3928 -1.6763
  124ccc     C5 3761   0.294  -0.162   0.764 -0.9163  0.3228 -0.1198
  124ccc     H9 3762   0.303  -0.267   0.795  2.4874  0.4074 -0.4617
  124ccc    H10 3763   0.336  -0.150   0.663 -0.4621 -2.4256 -0.3175
  124ccc     C6 3764   0.398  -0.072   0.838  0.3489  0.1417 -1.0874
  124ccc     O1 3765   0.397   0.049   0.820  0.1965  0.3073  0.2344
  124ccc     O2 3766   0.494  -0.131   0.911 -0.0250 -0.5086  0.0432
  124ccc    H11 3767   0.493  -0.227   0.898 -0.2020 -0.3830 -0.9482
  124ccc     C7 3768  -0.074  -0.233   0.783  0.3375  0.2145 -0.3187
  124ccc    H12 3769  -0.092  -0.138   0.833  0.7365 -0.1789  0.6008
  124ccc    H13 3770  -0.162  -0.257   0.724  0.3339 -2.4643  0.6234
  124ccc     C8 3771  -0.065  -0.328   0.899  0.4678  1.3692 -0.7713
  124ccc    H14 3772  -0.041  -0.422   0.847 -1.0435  0.3560  0.2674
  124ccc    H15 3773  -0.002  -0.308   0.987 -1.1069 -0.1008  0.7658
  124ccc     C9 3774  -0.202  -0.347   0.956  0.1708 -0.2606 -0.1555
  124ccc     O3 3775  -0.297  -0.278   0.928 -0.3069  0.4347 -0.0015
  124ccc     O4 3776  -0.204  -0.444   1.045 -0.0050  0.4645  0.1638
  124ccc    H16 3777  -0.300  -0.456   1.052 -0.0777  1.0008  0.1666
  124ccc     O5 3778  -0.013  -0.011   0.315 -0.7586 -0.4450  0.6129
  124ccc    H17 3779   0.097  -0.286   0.669  0.6133  1.0495 -0.9946
  125ccc     C1 3780  -0.193   1.407  -0.426 -0.5189  0.4989  0.2771
  125ccc     H1 3781  -0.263   1.364  -0.353 -0.3618  1.1033  0.7942
  125ccc     H2 3782  -0.195   1.516  -0.417 -1.1134  0.5760 -0.6102
  125ccc     C2 3783  -0.226   1.365  -0.574  0.7115 -0.3951 -0.6867
  125ccc     H3 3784  -0.330   1.389  -0.599  1.0620  2.2595  0.1164
  125ccc     H4 3785  -0.219   1.256  -0.589 -0.7855 -0.5868 -0.1757
  125ccc     C3 3786  -0.119   1.430  -0.667 -0.1765  0.2079 -0.0278
  125ccc     H5 3787  -0.024   1.376  -0.665 -0.0815  0.3377 -0.9184
  125ccc     H6 3788  -0.103   1.534  -0.641  2.5191  0.1332 -1.0315
  125ccc     N1 3789  -0.165   1.417  -0.815  0.7316 -0.2302  0.2080
  125ccc     C4 3790  -0.078   1.519  -0.901  0.0593  0.3467 -0.3141
  125ccc     H7 3791  -0.124   1.522  -0.999 -1.8207  4.6111  0.5126
  125ccc     H8 3792   0.021   1.473  -0.912 -0.8116 -1.1479 -2.4802
  125ccc     C5 3793  -0.076   1.671  -0.861  0.0455 -0.0082 -0.2170
  125ccc     H9 3794  -0.166   1.718  -0.901  0.7065  0.7555 -0.8302
  125ccc    H10 3795  -0.080   1.679  -0.751  0.7367 -1.4184 -0.0611
  125ccc     C6 3796   0.054   1.731  -0.930 -0.0264  0.4987  1.3007
  125ccc     O1 3797   0.155   1.667  -0.962 -0.0815  0.4376 -0.0806
  125ccc     O2 3798   0.062   1.865  -0.922  0.3181 -0.5885 -0.8310
  125ccc    H11 3799  -0.011   1.901  -0.869 -0.8177 -1.4320 -1.7728
  125ccc     C7 3800  -0.147   1.280  -0.872 -0.1199  0.3095  0.6727
  125ccc    H12 3801  -0.040   1.261  -0.873 -0.2686 -0.9831 -2.1283
  125ccc    H13 3802  -0.201   1.208  -0.810  1.0303  0.8340  2.3326
  125ccc     C8 3803  -0.207   1.260  -1.017 -0.2875 -0.6099  0.7677
  125ccc    H14 3804  -0.316   1.271  -1.013 -0.2484 -0.0391  0.3746
  125ccc    H15 3805  -0.163   1.332  -1.088  1.0094 -0.6257  1.5355
  125ccc     C9 3806  -0.162   1.115  -1.059  0.2866  0.0812 -0.0870
  125ccc     O3 3807  -0.098   1.048  -0.983 -0.1294  0.0105 -0.0073
  125ccc     O4 3808  -0.210   1.076  -1.177 -0.2141 -0.4119 -0.3304
  125ccc    H16 3809  -0.157   0.997  -1.197  1.7209  0.6801  0.2552
  125ccc     O5 3810  -0.057   1.362  -0.401  0.0106  0.6354  0.3298
  125ccc    H17 3811  -0.266   1.437  -0.810  0.1551 -3.1432  2.0131
  126ccc     C1 3812  -0.525   1.131  -0.456  0.0996  0.0677 -0.8735
  126ccc     H1 3813  -0.492   1.207  -0.527  0.9662  0.0933 -0.4507
  126ccc     H2 3814  -0.550   1.045  -0.519  1.1325 -1.3818  0.5930
  126ccc     C2 3815  -0.650   1.175  -0.370 -0.1672 -1.0048 -0.6666
  126ccc     H3 3816  -0.671   1.091  -0.303 -0.5962  0.7065  1.4504
  126ccc     H4 3817  -0.738   1.178  -0.435  0.8017  2.4963 -2.0267
  126ccc     C3 3818  -0.640   1.310  -0.294 -0.3438  0.8034  0.0357
  126ccc     H5 3819  -0.708   1.382  -0.340 -2.2534 -0.5985  0.5424
  126ccc     H6 3820  -0.536   1.343  -0.293  0.4018 -1.3689  0.0303
  126ccc     N1 3821  -0.689   1.313  -0.147 -0.5332  0.3807 -0.3415
  126ccc     C4 3822  -0.838   1.287  -0.132 -0.3772 -0.2898  0.0348
  126ccc     H7 3823  -0.858   1.256  -0.029  0.4739 -2.8298 -0.5014
  126ccc     H8 3824  -0.860   1.200  -0.194  2.3266 -2.7292  2.1925
  126ccc     C5 3825  -0.932   1.414  -0.150 -0.3008  0.0986 -0.4675
  126ccc     H9 3826  -0.905   1.492  -0.077 -2.1289 -0.0457  0.4150
  126ccc    H10 3827  -0.925   1.450  -0.253 -0.4192  2.3403  0.2426
  126ccc     C6 3828  -1.076   1.383  -0.126 -0.4655  0.1815 -0.3538
  126ccc     O1 3829  -1.137   1.298  -0.187 -0.2285 -0.0796 -0.1795
  126ccc     O2 3830  -1.140   1.454  -0.042 -0.0503 -0.4400 -0.0718
  126ccc    H11 3831  -1.224   1.404  -0.048 -1.4881  1.8758 -0.4793
  126ccc     C7 3832  -0.620   1.218  -0.051  0.5205 -0.2613 -0.1449
  126ccc    H12 3833  -0.678   1.215   0.042  1.1106 -0.8250  0.2209
  126ccc    H13 3834  -0.617   1.114  -0.085  1.8205 -0.7784  1.3866
  126ccc     C8 3835  -0.477   1.251  -0.010  0.3531 -0.8796 -0.1909
  126ccc    H14 3836  -0.409   1.268  -0.095 -0.6058  2.7069 -0.3785
  126ccc    H15 3837  -0.484   1.345   0.046  0.9899 -1.0613  0.2096
  126ccc     C9 3838  -0.414   1.144   0.080 -0.1026 -0.0716 -0.8228
  126ccc     O3 3839  -0.447   1.026   0.079  0.4199 -0.2665 -0.1606
  126ccc     O4 3840  -0.322   1.184   0.167  0.5570  0.5308 -0.2445
  126ccc    H16 3841  -0.305   1.276   0.142 -0.3259  1.0319  0.8856
  126ccc     O5 3842  -0.417   1.101  -0.367 -0.2936  0.0869 -0.0065
  126ccc    H17 3843  -0.674   1.408  -0.110 -1.9168 -0.1202  1.7054
  127ccc     C1 3844   2.783   2.568   3.621  0.0131 -0.1482 -0.1475
  127ccc     H1 3845   2.771   2.471   3.672  0.4421  0.1079  0.4485
  127ccc     H2 3846   2.765   2.560   3.514  0.9674 -0.9516 -0.2625
  127ccc     C2 3847   2.925   2.622   3.641  0.0562  0.7942  0.3404
  127ccc     H3 3848   2.943   2.699   3.565  0.6027 -0.5923 -1.0127
  127ccc     H4 3849   2.995   2.548   3.598 -0.1130  1.0449 -0.3831
  127ccc     C3 3850   2.976   2.634   3.786  0.3164  0.3677  0.5181
  127ccc     H5 3851   3.078   2.671   3.778  0.5133 -0.1094  0.7863
  127ccc     H6 3852   2.976   2.539   3.840 -0.0585  0.4078  0.5928
  127ccc     N1 3853   2.897   2.727   3.877 -0.5721 -0.3104  0.0747
  127ccc     C4 3854   2.974   2.733   4.006 -0.0705 -0.1537 -0.0931
  127ccc     H7 3855   3.063   2.796   3.994 -0.3431  0.2509  0.0069
  127ccc     H8 3856   3.011   2.635   4.036  1.5034  0.3996 -0.1022
  127ccc     C5 3857   2.900   2.801   4.122 -0.4245 -0.0692  0.3661
  127ccc     H9 3858   2.864   2.899   4.087  2.0303  0.1400 -1.8828
  127ccc    H10 3859   2.806   2.747   4.138 -0.8283 -0.0933 -1.8072
  127ccc     C6 3860   2.981   2.811   4.248  0.3508  0.4245  0.0117
  127ccc     O1 3861   3.103   2.807   4.244 -0.0382  0.0690 -0.7160
  127ccc     O2 3862   2.907   2.830   4.358 -0.8487  0.1581  0.3286
  127ccc    H11 3863   2.968   2.836   4.434  0.0705 -1.5849 -0.2326
  127ccc     C7 3864   2.889   2.865   3.808  0.4219 -0.3245 -0.1961
  127ccc    H12 3865   2.820   2.852   3.724 -1.2351 -0.1836  1.0846
  127ccc    H13 3866   2.838   2.931   3.877  0.5419 -0.5301  0.0911
  127ccc     C8 3867   3.013   2.938   3.761 -0.4615 -0.1577 -0.6784
  127ccc    H14 3868   3.092   2.947   3.836  1.2420 -0.0075 -2.4043
  127ccc    H15 3869   3.048   2.886   3.670  0.7099 -1.0528  0.2568
  127ccc     C9 3870   2.984   3.082   3.725  0.5875  0.0738  0.1409
  127ccc     O3 3871   2.874   3.112   3.678  0.1052 -0.3025 -0.0676
  127ccc     O4 3872   3.090   3.166   3.717  0.4833  0.3049  0.0817
  127ccc    H16 3873   3.054   3.254   3.697 -1.1897 -0.6914 -1.6262
  127ccc     O5 3874   2.683   2.664   3.665  0.5263 -0.4406 -0.4548
  127ccc    H17 3875   2.803   2.688   3.891 -0.5615  0.1733  1.7216
  128ccc     C1 3876   2.554   2.364   3.338 -0.3496  0.3430  0.5489
  128ccc     H1 3877   2.655   2.330   3.311  0.4849  0.9014  2.7145
  128ccc     H2 3878   2.542   2.327   3.441  3.5589  1.0044  1.3926
  128ccc     C2 3879   2.438   2.302   3.258  0.0373 -0.1387  0.6270
  128ccc     H3 3880   2.443   2.337   3.154 -0.8844  1.0353  0.9498
  128ccc     H4 3881   2.335   2.320   3.293 -0.4215  1.9736 -1.5416
  128ccc     C3 3882   2.451   2.149   3.259  0.4984 -0.2092  0.2979
  128ccc     H5 3883   2.384   2.113   3.336 -0.0835  1.2063  0.4908
  128ccc     H6 3884   2.553   2.119   3.286  0.2814  0.2382  1.6773
  128ccc     N1 3885   2.409   2.084   3.133  0.0836  0.4261  0.1746
  128ccc     C4 3886   2.438   1.935   3.140  0.4087  0.5469 -0.1829
  128ccc     H7 3887   2.428   1.891   3.239 -0.0394  0.6221 -0.1934
  128ccc     H8 3888   2.542   1.919   3.110  0.4000  0.7255 -0.3063
  128ccc     C5 3889   2.361   1.845   3.035 -0.7658 -0.1053  0.1033
  128ccc     H9 3890   2.254   1.848   3.056 -0.6059 -1.2838  1.2056
  128ccc    H10 3891   2.362   1.884   2.932  2.0680  2.2409  0.8810
  128ccc     C6 3892   2.425   1.709   3.051 -0.6152  1.1075  0.1232
  128ccc     O1 3893   2.543   1.685   3.058  0.0195 -0.2990  0.0286
  128ccc     O2 3894   2.335   1.607   3.066  0.0557 -0.3615 -0.4195
  128ccc    H11 3895   2.395   1.531   3.073  1.2835  0.6852  2.7227
  128ccc     C7 3896   2.259   2.112   3.114  0.2831 -0.1063  0.4281
  128ccc    H12 3897   2.194   2.030   3.145 -3.0261  1.5564 -1.6201
  128ccc    H13 3898   2.233   2.199   3.174 -0.9815  0.1366 -0.4271
  128ccc     C8 3899   2.229   2.159   2.970  0.4153 -0.0068 -0.6782
  128ccc    H14 3900   2.260   2.264   2.959  0.3644  0.2528  1.3316
  128ccc    H15 3901   2.270   2.087   2.898 -0.3841  0.3320 -1.4956
  128ccc     C9 3902   2.083   2.169   2.945  0.2292  0.0654 -0.0353
  128ccc     O3 3903   1.997   2.152   3.029 -0.2043  0.5047 -0.0657
  128ccc     O4 3904   2.054   2.205   2.818 -0.3722 -0.2710  0.5747
  128ccc    H16 3905   2.136   2.197   2.767  0.6882 -0.1157  2.1641
  128ccc     O5 3906   2.544   2.505   3.336  0.0403 -0.1212 -0.0650
  128ccc    H17 3907   2.460   2.119   3.051  1.4431 -1.1073  0.3261
  129ccc     C1 3908   1.955   2.724   4.236 -0.7556  0.3479  0.5445
  129ccc     H1 3909   2.022   2.638   4.247 -2.4500 -1.0099  0.7383
  129ccc     H2 3910   1.927   2.754   4.337  0.4522  1.1530  0.6669
  129ccc     C2 3911   1.828   2.683   4.153 -0.4566 -0.0272 -0.1807
  129ccc     H3 3912   1.769   2.620   4.221 -0.7293  0.0847 -0.3121
  129ccc     H4 3913   1.866   2.621   4.071 -1.4077 -2.6258  1.2328
  129ccc     C3 3914   1.736   2.792   4.107  0.3140 -0.4978 -0.0429
  129ccc     H5 3915   1.764   2.884   4.159  0.0160 -0.6636  0.4161
  129ccc     H6 3916   1.635   2.773   4.144  0.8386  0.7411  2.2276
  129ccc     N1 3917   1.733   2.820   3.952  0.1544  0.2470 -0.1596
  129ccc     C4 3918   1.624   2.903   3.898  1.1661  0.5493  0.0738
  129ccc     H7 3919   1.620   2.877   3.792 -2.1338 -1.7867  0.6214
  129ccc     H8 3920   1.643   3.008   3.918  1.1620  0.9407 -1.8319
  129ccc     C5 3921   1.487   2.859   3.962 -0.8779  0.4627 -0.6396
  129ccc     H9 3922   1.479   2.750   3.962 -0.6604  0.4426 -1.4237
  129ccc    H10 3923   1.482   2.883   4.069  0.8663  0.0725 -0.4566
  129ccc     C6 3924   1.368   2.924   3.891  0.5438 -0.6045  0.3519
  129ccc     O1 3925   1.399   2.999   3.804 -0.6312  0.2139 -0.1502
  129ccc     O2 3926   1.256   2.856   3.890  0.1580 -0.5641 -0.2951
  129ccc    H11 3927   1.278   2.785   3.954  0.8245 -1.1983 -1.1961
  129ccc     C7 3928   1.868   2.883   3.911 -0.2399 -0.7795 -0.3700
  129ccc    H12 3929   1.873   2.984   3.951  0.7265 -1.9728  2.8332
  129ccc    H13 3930   1.944   2.817   3.952  1.6632  0.4417 -1.7428
  129ccc     C8 3931   1.903   2.884   3.764 -0.1796  0.0411  0.5235
  129ccc    H14 3932   1.890   2.783   3.725  1.3747  0.2317 -0.5770
  129ccc    H15 3933   1.834   2.948   3.708  0.3688 -2.4733 -3.4192
  129ccc     C9 3934   2.042   2.937   3.754 -0.6128  0.5397  0.1941
  129ccc     O3 3935   2.114   2.966   3.843  0.3361 -0.0124 -0.7622
  129ccc     O4 3936   2.070   2.992   3.635 -0.4170 -0.4263 -0.3001
  129ccc    H16 3937   2.157   3.036   3.646 -0.5929  0.8641 -3.1118
  129ccc     O5 3938   2.031   2.827   4.166  0.1744 -0.6341 -0.5792
  129ccc    H17 3939   1.732   2.726   3.908  0.3729 -0.4609  1.2866
  130ccc     C1 3940   2.702   3.364   4.328 -0.1069 -0.4857 -0.3618
  130ccc     H1 3941   2.745   3.434   4.255 -0.9087 -1.1932 -1.5555
  130ccc     H2 3942   2.676   3.428   4.413  3.4109 -0.4844  0.8817
  130ccc     C2 3943   2.807   3.261   4.365 -0.1999  0.2974 -0.3215
  130ccc     H3 3944   2.832   3.203   4.275  1.5171  0.0318  0.2933
  130ccc     H4 3945   2.759   3.191   4.434 -2.8765  0.8287 -1.5359
  130ccc     C3 3946   2.931   3.327   4.428  0.6069 -0.1092 -0.0022
  130ccc     H5 3947   2.897   3.385   4.514 -1.2273  0.5163 -1.0943
  130ccc     H6 3948   2.969   3.396   4.352 -0.9951  0.5190 -0.2758
  130ccc     N1 3949   3.031   3.231   4.475  0.3219 -0.8568  0.5874
  130ccc     C4 3950   3.103   3.151   4.353  0.0178 -0.2946 -0.4126
  130ccc     H7 3951   3.026   3.117   4.284 -1.2140 -0.5380  1.0204
  130ccc     H8 3952   3.152   3.063   4.394  0.9092 -0.3440 -1.5407
  130ccc     C5 3953   3.216   3.229   4.277 -0.0654  0.0652  0.0407
  130ccc     H9 3954   3.195   3.335   4.258 -1.1326  0.0011  0.7380
  130ccc    H10 3955   3.316   3.233   4.321  1.0189 -0.1915 -2.2959
  130ccc     C6 3956   3.221   3.163   4.139 -0.0522  0.3111  0.4093
  130ccc     O1 3957   3.162   3.056   4.115 -0.2228 -0.5771  0.6792
  130ccc     O2 3958   3.281   3.226   4.036 -0.3461  0.5320  0.0344
  130ccc    H11 3959   3.321   3.310   4.063  1.0674  0.0994 -0.6488
  130ccc     C7 3960   3.134   3.304   4.566 -0.0152 -0.0055 -0.2041
  130ccc    H12 3961   3.187   3.225   4.619  2.8938  2.3346  0.6516
  130ccc    H13 3962   3.200   3.351   4.493 -3.1714  1.2254 -2.4974
  130ccc     C8 3963   3.077   3.415   4.661  0.0099  0.1629 -0.5180
  130ccc    H14 3964   3.034   3.499   4.605 -2.3827 -0.4285  0.3298
  130ccc    H15 3965   3.002   3.383   4.734  2.4633 -1.2915  1.5745
  130ccc     C9 3966   3.198   3.470   4.734  0.2121  0.3532 -0.0043
  130ccc     O3 3967   3.301   3.492   4.680  0.3342 -0.0738 -0.1815
  130ccc     O4 3968   3.193   3.452   4.862  0.1183  0.1408 -0.5408
  130ccc    H16 3969   3.284   3.472   4.892 -0.3262 -1.0196  1.7191
  130ccc     O5 3970   2.583   3.305   4.271 -0.1586 -0.4829 -0.2956
  130ccc    H17 3971   2.985   3.164   4.539 -1.3511  1.6065  2.1098
  131ccc     C1 3972   0.273   3.801   4.803 -0.3454 -0.4089  0.0383
  131ccc     H1 3973   0.187   3.762   4.859 -0.1663 -1.3486 -0.3202
  131ccc     H2 3974   0.334   3.715   4.773 -1.3056 -1.3666  0.7793
  131ccc     C2 3975   0.356   3.890   4.901  0.4539 -0.5048 -0.0725
  131ccc     H3 3976   0.451   3.919   4.856 -0.1727 -1.3812 -2.1093
  131ccc     H4 3977   0.381   3.839   4.995  0.8286 -0.7097 -0.2819
  131ccc     C3 3978   0.279   4.022   4.927 -0.2198  0.6432 -0.1278
  131ccc     H5 3979   0.189   4.000   4.984  0.2321  1.2480  0.8495
  131ccc     H6 3980   0.247   4.073   4.836 -1.9012 -2.0365 -1.1379
  131ccc     N1 3981   0.362   4.118   5.009  0.0389 -0.7439  0.3787
  131ccc     C4 3982   0.346   4.262   4.953  1.1264  0.0143  0.0818
  131ccc     H7 3983   0.323   4.321   5.042 -1.0632  0.0820 -0.4622
  131ccc     H8 3984   0.260   4.264   4.884 -0.0606 -0.1488  1.5097
  131ccc     C5 3985   0.476   4.319   4.892  0.1183 -0.1332  0.1056
  131ccc     H9 3986   0.551   4.319   4.972  0.1758 -0.3046  0.0529
  131ccc    H10 3987   0.512   4.257   4.809 -0.1907 -2.4204  1.6128
  131ccc     C6 3988   0.466   4.468   4.850 -0.6522  0.2880 -0.0106
  131ccc     O1 3989   0.365   4.528   4.828  0.3701  0.0729 -0.4337
  131ccc     O2 3990   0.582   4.525   4.808 -0.0854 -0.5841  0.6880
  131ccc    H11 3991   0.657   4.464   4.812 -0.2301 -0.8344 -0.1787
  131ccc     C7 3992   0.301   4.111   5.144  1.1055  0.3621  0.0710
  131ccc    H12 3993   0.234   4.197   5.144  0.4809 -0.0787  1.9358
  131ccc    H13 3994   0.244   4.018   5.154  0.7155  0.5193 -0.6020
  131ccc     C8 3995   0.400   4.129   5.254 -0.1171  0.2295 -0.3056
  131ccc    H14 3996   0.470   4.045   5.247 -2.7060 -2.0345 -0.7897
  131ccc    H15 3997   0.458   4.221   5.239  1.1978 -0.2100  1.7462
  131ccc     C9 3998   0.339   4.125   5.400  0.8031  0.6082  0.2238
  131ccc     O3 3999   0.254   4.044   5.439 -0.2148 -0.1465  0.5475
  131ccc     O4 4000   0.404   4.201   5.486 -0.6510  0.4145  0.0621
  131ccc    H16 4001   0.368   4.203   5.576 -0.9894  0.6407 -0.0763
  131ccc     O5 4002   0.237   3.882   4.694 -0.7708 -0.3439 -0.2783
  131ccc    H17 4003   0.460   4.088   5.018  0.6676 -0.2046 -3.1381
  132ccc     C1 4004   0.369   4.087   3.927 -0.0092  0.3734 -0.0407
  132ccc     H1 4005   0.297   4.127   3.855 -0.6456 -0.8361 -0.0985
  132ccc     H2 4006   0.455   4.154   3.945  0.4136  0.2671 -1.5587
  132ccc     C2 4007   0.444   3.964   3.862 -0.1417 -0.2257  0.0384
  132ccc     H3 4008   0.502   3.905   3.934  1.6121 -1.1689 -2.0367
  132ccc     H4 4009   0.507   4.002   3.781  0.8561  0.4272  1.0802
  132ccc     C3 4010   0.335   3.868   3.802  0.1817  0.6296  0.1280
  132ccc     H5 4011   0.391   3.792   3.748 -0.5433 -0.4854  0.8971
  132ccc     H6 4012   0.274   3.925   3.731 -1.2081 -2.0614 -0.9981
  132ccc     N1 4013   0.229   3.800   3.884 -0.4162 -0.1697  0.5281
  132ccc     C4 4014   0.141   3.707   3.797 -1.0288  0.6013  0.2597
  132ccc     H7 4015   0.198   3.623   3.758 -0.1422  1.0080  0.6617
  132ccc     H8 4016   0.112   3.763   3.708  0.0346  0.8839  0.0799
  132ccc     C5 4017   0.021   3.654   3.871  0.4936 -0.1483  0.9564
  132ccc     H9 4018   0.055   3.593   3.956 -3.1724 -0.6105  2.2777
  132ccc    H10 4019  -0.045   3.732   3.913 -0.2198 -0.5702  0.6322
  132ccc     C6 4020  -0.060   3.552   3.791 -0.2004  0.2359  0.8925
  132ccc     O1 4021  -0.032   3.492   3.688 -0.0567  0.5498  0.1402
  132ccc     O2 4022  -0.184   3.532   3.840  0.2359  0.4576 -0.7002
  132ccc    H11 4023  -0.196   3.582   3.922 -0.6404  2.3801 -1.9311
  132ccc     C7 4024   0.285   3.733   4.006  0.0379 -0.1867 -0.5908
  132ccc    H12 4025   0.342   3.797   4.073  0.7187  0.4588 -1.7670
  132ccc    H13 4026   0.196   3.692   4.054 -0.0632 -1.4928 -1.8227
  132ccc     C8 4027   0.378   3.622   3.967 -0.1653 -0.0705 -0.3735
  132ccc    H14 4028   0.326   3.548   3.904 -1.5418  1.7587 -1.4749
  132ccc    H15 4029   0.461   3.649   3.900  1.2560 -0.3959  1.1880
  132ccc     C9 4030   0.453   3.562   4.088  0.3670  0.0188 -0.3315
  132ccc     O3 4031   0.455   3.621   4.200 -0.7100  0.5501  0.3964
  132ccc     O4 4032   0.494   3.427   4.080 -0.2047  0.2753  0.1575
  132ccc    H16 4033   0.464   3.390   3.996  0.5035 -0.5267  0.2497
  132ccc     O5 4034   0.312   4.045   4.054 -0.0985 -0.3154 -0.4400
  132ccc    H17 4035   0.173   3.877   3.923 -2.4070 -0.8004 -0.9042
  133ccc     C1 4036   0.625   3.074   5.468 -0.3982 -0.0515 -0.0403
  133ccc     H1 4037   0.597   3.139   5.551  0.4220 -0.2347  0.3896
  133ccc     H2 4038   0.526   3.042   5.434 -1.6518  2.1447  1.3453
  133ccc     C2 4039   0.714   2.957   5.521  0.3278  0.1279 -0.2737
  133ccc     H3 4040   0.736   2.896   5.433  2.8360 -0.7957  0.9136
  133ccc     H4 4041   0.658   2.887   5.585 -0.6936  0.4264 -0.8154
  133ccc     C3 4042   0.833   3.018   5.591 -0.6904  0.3103 -0.0448
  133ccc     H5 4043   0.801   3.045   5.692  1.1987 -0.7131  0.8893
  133ccc     H6 4044   0.864   3.109   5.539  0.1211  0.0997  0.0551
  133ccc     N1 4045   0.955   2.922   5.601 -0.1403 -0.1587 -0.0114
  133ccc     C4 4046   1.021   2.887   5.463  0.1402 -0.2949 -0.2026
  133ccc     H7 4047   0.944   2.846   5.397  0.9100 -0.7307 -0.8500
  133ccc     H8 4048   1.106   2.818   5.464 -1.1848 -2.0529 -1.5718
  133ccc     C5 4049   1.074   3.015   5.398 -0.5011 -0.1937  0.4964
  133ccc     H9 4050   1.008   3.098   5.428  1.2386  1.4368  0.0545
  133ccc    H10 4051   1.175   3.041   5.432 -0.5499  3.9950 -1.8519
  133ccc     C6 4052   1.068   3.013   5.243  0.1551  0.0568  0.1018
  133ccc     O1 4053   1.007   2.921   5.181 -0.2004 -0.1320 -0.4880
  133ccc     O2 4054   1.121   3.122   5.193 -0.2204  0.1896  0.3617
  133ccc    H11 4055   1.140   3.181   5.268  1.7784  0.2806 -0.1646
  133ccc     C7 4056   1.051   2.993   5.700 -0.0824  0.9632 -0.1481
  133ccc    H12 4057   1.077   3.092   5.659  2.0927  0.7804  0.6586
  133ccc    H13 4058   1.012   3.009   5.800  1.4370 -0.3810  0.6968
  133ccc     C8 4059   1.183   2.907   5.730  0.0896 -0.9622  0.2995
  133ccc    H14 4060   1.161   2.806   5.768 -1.5374 -0.0453  1.9572
  133ccc    H15 4061   1.232   2.885   5.634 -1.3743 -0.9126 -0.4915
  133ccc     C9 4062   1.278   2.982   5.820  0.4784 -0.4657  0.0959
  133ccc     O3 4063   1.256   3.082   5.884 -0.0149 -0.5725 -0.5145
  133ccc     O4 4064   1.404   2.937   5.827  0.3391 -0.3257 -0.1722
  133ccc    H16 4065   1.401   2.857   5.772 -0.2430 -0.3342 -0.1251
  133ccc     O5 4066   0.703   3.138   5.365  0.2651 -0.1879 -0.2093
  133ccc    H17 4067   0.928   2.834   5.647  1.8745 -1.6191 -1.4374
  134ccc     C1 4068   0.515   2.725   5.249 -0.6227  0.4958  0.0834
  134ccc     H1 4069   0.461   2.784   5.324 -1.7340 -1.1024  0.6083
  134ccc     H2 4070   0.450   2.690   5.168  0.2511  1.2691 -0.9691
  134ccc     C2 4071   0.578   2.607   5.326  0.0387 -0.4777 -0.1550
  134ccc     H3 4072   0.502   2.582   5.402 -3.0259  1.8387 -2.2150
  134ccc     H4 4073   0.669   2.632   5.381 -0.3260  0.9392 -0.1720
  134ccc     C3 4074   0.602   2.486   5.238  0.9812 -0.2936 -0.4436
  134ccc     H5 4075   0.522   2.468   5.166  0.5891 -1.8577  0.3402
  134ccc     H6 4076   0.602   2.400   5.305  3.0296  1.2509  1.7212
  134ccc     N1 4077   0.743   2.482   5.172 -0.5501 -0.4746  0.2222
  134ccc     C4 4078   0.787   2.336   5.155 -0.0603 -0.4488  0.0244
  134ccc     H7 4079   0.776   2.293   5.255  0.7106  0.4212  0.4974
  134ccc     H8 4080   0.888   2.322   5.116 -0.3021  0.9674 -1.2073
  134ccc     C5 4081   0.701   2.233   5.070 -0.2643 -0.2413  1.0568
  134ccc     H9 4082   0.593   2.238   5.090 -0.4527 -2.0068  0.5875
  134ccc    H10 4083   0.714   2.259   4.964  1.9457 -1.4546  0.9794
  134ccc     C6 4084   0.740   2.091   5.081  0.3115 -0.4565 -0.3113
  134ccc     O1 4085   0.847   2.044   5.085  0.0424 -0.2581  0.3190
  134ccc     O2 4086   0.637   2.008   5.076 -0.1995  0.1381 -0.7375
  134ccc    H11 4087   0.554   2.054   5.097  0.8681  2.0036 -0.3996
  134ccc     C7 4088   0.734   2.563   5.038 -0.4893  0.5478 -1.2016
  134ccc    H12 4089   0.725   2.493   4.955 -0.4197 -1.4554  0.3858
  134ccc    H13 4090   0.647   2.629   5.048 -1.2993 -0.7118  1.0163
  134ccc     C8 4091   0.867   2.632   5.004  0.1672  0.0583 -0.8218
  134ccc    H14 4092   0.879   2.727   5.058  0.4906 -0.1881 -0.4647
  134ccc    H15 4093   0.953   2.566   5.016 -0.8260 -1.0987  0.2304
  134ccc     C9 4094   0.873   2.671   4.856  0.2583 -0.0463  0.2267
  134ccc     O3 4095   0.781   2.663   4.781 -0.0362  0.3549 -0.0559
  134ccc     O4 4096   0.967   2.761   4.821 -0.1971  0.0267 -0.6466
  134ccc    H16 4097   1.030   2.754   4.894 -1.2477  0.2910  0.3142
  134ccc     O5 4098   0.628   2.802   5.191  0.1207 -0.0852  0.2307
  134ccc    H17 4099   0.802   2.534   5.237  0.6691  0.3024 -1.4210
  135ccc     C1 4100  -0.583   2.610   2.756 -0.8752  0.7233 -0.9510
  135ccc     H1 4101  -0.587   2.532   2.679  1.0432 -0.8998  0.4925
  135ccc     H2 4102  -0.504   2.590   2.829 -1.0636  1.6991 -0.4652
  135ccc     C2 4103  -0.712   2.586   2.837  0.3766 -0.4328 -0.7319
  135ccc     H3 4104  -0.709   2.638   2.933 -3.6635 -2.3210  0.6072
  135ccc     H4 4105  -0.702   2.481   2.865  1.0309  0.2383  1.8302
  135ccc     C3 4106  -0.839   2.617   2.756  0.2710 -0.7423  1.2716
  135ccc     H5 4107  -0.826   2.577   2.656  1.6984  0.5210  0.9173
  135ccc     H6 4108  -0.826   2.725   2.748  1.8092 -0.7482  2.9447
  135ccc     N1 4109  -0.975   2.587   2.815 -0.6041  0.2061  0.8331
  135ccc     C4 4110  -0.986   2.437   2.865  0.0792 -0.1999 -0.1063
  135ccc     H7 4111  -1.080   2.434   2.920  0.6992 -1.7806  0.9505
  135ccc     H8 4112  -0.907   2.414   2.937  0.8875 -1.2355 -1.2702
  135ccc     C5 4113  -0.979   2.329   2.759  0.5038 -0.1197  0.8369
  135ccc     H9 4114  -1.054   2.350   2.683  2.0404  1.4899 -0.3035
  135ccc    H10 4115  -0.892   2.348   2.695 -0.9959  3.2204 -0.4223
  135ccc     C6 4116  -0.978   2.184   2.810 -0.6377 -0.2842 -0.0492
  135ccc     O1 4117  -0.978   2.161   2.930 -0.3763 -0.3080 -0.0227
  135ccc     O2 4118  -0.914   2.094   2.729 -0.0485 -0.3893 -1.0658
  135ccc    H11 4119  -0.903   2.124   2.637  1.4889 -0.7494 -1.0236
  135ccc     C7 4120  -0.998   2.675   2.940 -0.3093  0.6099  0.2039
  135ccc    H12 4121  -1.097   2.647   2.977  0.1906 -0.7179  0.5873
  135ccc    H13 4122  -0.924   2.650   3.017  0.6416 -0.7085 -1.0793
  135ccc     C8 4123  -1.007   2.823   2.914  0.0611 -0.1479 -0.3505
  135ccc    H14 4124  -0.914   2.854   2.865  0.8427 -0.3929  0.9525
  135ccc    H15 4125  -1.086   2.845   2.840 -0.0741 -0.3447 -0.2665
  135ccc     C9 4126  -1.014   2.897   3.047  0.2727 -0.4919  0.4091
  135ccc     O3 4127  -0.911   2.926   3.104 -0.1612  0.4866 -0.0138
  135ccc     O4 4128  -1.132   2.914   3.114  0.9417  0.3698 -0.1358
  135ccc    H16 4129  -1.188   2.858   3.058  0.0645 -0.6237  1.6151
  135ccc     O5 4130  -0.568   2.749   2.732  0.1873  0.3500 -0.3052
  135ccc    H17 4131  -1.052   2.603   2.748  0.1116  1.5025  0.3078
  136ccc     C1 4132  -0.762   3.349   3.106 -0.0452 -0.0087 -0.1049
  136ccc     H1 4133  -0.666   3.382   3.148 -0.4014  1.8999 -0.7099
  136ccc     H2 4134  -0.804   3.436   3.055 -0.5135 -1.0026 -1.4795
  136ccc     C2 4135  -0.850   3.280   3.210 -0.4451  0.5049  0.6293
  136ccc     H3 4136  -0.859   3.350   3.293 -0.7693  0.1779  0.8721
  136ccc     H4 4137  -0.812   3.185   3.250 -3.4653 -0.2774  1.8933
  136ccc     C3 4138  -0.992   3.248   3.157 -0.0237 -0.5991  0.5367
  136ccc     H5 4139  -0.991   3.159   3.095  0.1595 -0.0850 -0.2060
  136ccc     H6 4140  -1.014   3.332   3.091  2.5377 -0.2526 -0.0066
  136ccc     N1 4141  -1.111   3.232   3.259 -0.7479  0.5297  0.5746
  136ccc     C4 4142  -1.071   3.120   3.353  0.5177  0.5183 -0.2903
  136ccc     H7 4143  -1.025   3.164   3.442 -1.6422 -1.4640  1.9782
  136ccc     H8 4144  -1.003   3.045   3.313  0.3831  0.6628 -0.7962
  136ccc     C5 4145  -1.196   3.048   3.409  0.4826  0.3599 -0.1211
  136ccc     H9 4146  -1.277   3.115   3.441 -0.7500 -0.6389 -1.0077
  136ccc    H10 4147  -1.247   2.980   3.339 -0.8514 -0.5994  1.6987
  136ccc     C6 4148  -1.152   2.954   3.521  0.7225  0.1556 -0.3184
  136ccc     O1 4149  -1.106   2.844   3.493  0.8814  0.6825 -0.1817
  136ccc     O2 4150  -1.179   2.983   3.651 -0.1656 -0.7545  0.3193
  136ccc    H11 4151  -1.208   3.076   3.650 -0.1613 -0.6644  2.7390
  136ccc     C7 4152  -1.153   3.358   3.333  0.4133  0.0418 -0.4489
  136ccc    H12 4153  -1.249   3.339   3.383  0.6387 -0.2291 -0.1075
  136ccc    H13 4154  -1.086   3.380   3.417 -0.1373  1.0146 -0.2523
  136ccc     C8 4155  -1.165   3.482   3.244  0.5405  0.1649  0.9672
  136ccc    H14 4156  -1.065   3.503   3.202  1.1733 -0.5048  2.0912
  136ccc    H15 4157  -1.235   3.449   3.167 -0.8567  2.4340  1.1619
  136ccc     C9 4158  -1.229   3.603   3.311  0.1773 -0.5416  0.5330
  136ccc     O3 4159  -1.257   3.599   3.428  0.0855  0.0491 -0.1039
  136ccc     O4 4160  -1.230   3.719   3.239  0.2210 -0.4779  0.0476
  136ccc    H16 4161  -1.172   3.700   3.163  0.4986 -0.4866  0.2630
  136ccc     O5 4162  -0.743   3.249   3.003 -0.5152  0.5744 -0.4557
  136ccc    H17 4163  -1.196   3.205   3.207 -0.0311 -0.7715  0.0199
  137ccc     C1 4164  -0.437   3.248   3.937  0.7104  0.3621  0.1499
  137ccc     H1 4165  -0.406   3.298   4.030  0.8778 -0.0438  0.3163
  137ccc     H2 4166  -0.342   3.231   3.885  0.7095  3.5000 -1.1192
  137ccc     C2 4167  -0.499   3.342   3.840 -0.7147 -1.1182 -0.2166
  137ccc     H3 4168  -0.574   3.292   3.777  0.2744 -1.9789 -0.7433
  137ccc     H4 4169  -0.424   3.384   3.772 -1.7531 -1.5065 -1.6401
  137ccc     C3 4170  -0.569   3.466   3.905  0.0644 -0.7076  1.2832
  137ccc     H5 4171  -0.501   3.514   3.975  0.4720 -0.4864  0.7492
  137ccc     H6 4172  -0.649   3.434   3.971 -0.4230  0.7845  1.4486
  137ccc     N1 4173  -0.628   3.580   3.823  0.2124  0.5627  0.2524
  137ccc     C4 4174  -0.747   3.515   3.748  0.2361 -0.8229 -0.1052
  137ccc     H7 4175  -0.819   3.476   3.820  0.3855  0.8232  0.9795
  137ccc     H8 4176  -0.700   3.430   3.698  0.4048  0.3506 -2.0692
  137ccc     C5 4177  -0.817   3.597   3.641 -0.3459 -0.1032 -0.3687
  137ccc     H9 4178  -0.883   3.672   3.686 -0.4155 -0.6951  0.5385
  137ccc    H10 4179  -0.740   3.649   3.583  0.0555 -0.9561 -0.6130
  137ccc     C6 4180  -0.904   3.509   3.548 -0.5503  0.0391  0.0067
  137ccc     O1 4181  -0.896   3.386   3.537 -0.0128 -0.1259 -0.2753
  137ccc     O2 4182  -0.956   3.576   3.446  0.1781 -0.4100  0.1143
  137ccc    H11 4183  -0.937   3.670   3.461  0.1410 -0.1451 -1.3545
  137ccc     C7 4184  -0.679   3.694   3.906 -0.4131 -0.2278 -0.6385
  137ccc    H12 4185  -0.754   3.747   3.846 -0.8302 -1.5315 -1.2903
  137ccc    H13 4186  -0.735   3.661   3.993  1.0275 -1.8043 -0.2704
  137ccc     C8 4187  -0.567   3.789   3.951  1.0482 -0.3302  0.1115
  137ccc    H14 4188  -0.537   3.755   4.051 -1.9803 -0.6630  1.0065
  137ccc    H15 4189  -0.486   3.805   3.879 -0.0355  1.5275 -0.7673
  137ccc     C9 4190  -0.623   3.930   3.971  0.1107  1.2986  0.6059
  137ccc     O3 4191  -0.687   3.989   3.888  0.0191 -0.3576 -0.1009
  137ccc     O4 4192  -0.625   3.978   4.101 -0.4431 -0.1187  0.1442
  137ccc    H16 4193  -0.556   3.930   4.149  1.1281 -0.4689 -2.2898
  137ccc     O5 4194  -0.514   3.128   3.951  0.2093  0.1596 -0.6824
  137ccc    H17 4195  -0.552   3.602   3.756  0.4086  2.5238  1.0723
  138ccc     C1 4196  -1.235   3.191   4.182 -0.0328 -0.1932  0.1227
  138ccc     H1 4197  -1.320   3.238   4.132  0.3921 -0.0578 -0.4814
  138ccc     H2 4198  -1.264   3.092   4.220  1.2642 -1.2866 -1.5501
  138ccc     C2 4199  -1.210   3.281   4.307 -0.2111 -0.2511  0.1996
  138ccc     H3 4200  -1.286   3.269   4.385 -0.6519 -0.2248 -0.2190
  138ccc     H4 4201  -1.222   3.387   4.282  1.1421  0.2215  1.4294
  138ccc     C3 4202  -1.068   3.255   4.354  0.4147 -0.0998  0.3504
  138ccc     H5 4203  -1.050   3.335   4.425  0.6714  0.1981 -0.0431
  138ccc     H6 4204  -0.992   3.265   4.276  0.3338  0.6266  0.3573
  138ccc     N1 4205  -1.049   3.130   4.446  0.0750 -0.2923 -0.2774
  138ccc     C4 4206  -1.024   3.007   4.362 -0.0613  0.3290 -0.0922
  138ccc     H7 4207  -0.924   3.002   4.320 -0.6214 -1.8245 -1.3525
  138ccc     H8 4208  -1.094   3.013   4.278 -0.4310  1.7497  0.3035
  138ccc     C5 4209  -1.053   2.876   4.437  0.3195  0.0992 -0.6139
  138ccc     H9 4210  -0.974   2.846   4.507  0.6383 -2.6531 -1.9917
  138ccc    H10 4211  -1.142   2.887   4.500  0.5422  3.0358 -0.7036
  138ccc     C6 4212  -1.057   2.755   4.336  0.2401  0.6197  0.4058
  138ccc     O1 4213  -1.033   2.767   4.219 -0.3457 -0.4536 -0.7798
  138ccc     O2 4214  -1.086   2.644   4.397  1.0909  0.6937  0.0232
  138ccc    H11 4215  -1.095   2.673   4.489 -0.7782 -0.1603  0.1743
  138ccc     C7 4216  -0.938   3.147   4.551 -0.1650 -0.7634 -0.7083
  138ccc    H12 4217  -0.901   3.054   4.595 -1.0022  0.1452  2.1611
  138ccc    H13 4218  -0.853   3.195   4.502 -0.8950 -0.2447 -1.4787
  138ccc     C8 4219  -0.984   3.235   4.667 -0.2070  0.8340  0.7239
  138ccc    H14 4220  -1.026   3.330   4.632  3.4610  2.4251  0.1014
  138ccc    H15 4221  -1.067   3.183   4.715 -0.8441 -0.5466 -1.7203
  138ccc     C9 4222  -0.868   3.273   4.749 -0.2014 -0.3835 -0.2092
  138ccc     O3 4223  -0.818   3.199   4.831  0.3573 -0.2554  0.2462
  138ccc     O4 4224  -0.821   3.397   4.732 -0.0319 -0.3014  0.1090
  138ccc    H16 4225  -0.761   3.405   4.809 -0.0300 -0.4981  0.1267
  138ccc     O5 4226  -1.121   3.185   4.098 -0.0008  0.1971 -0.2599
  138ccc    H17 4227  -1.139   3.118   4.495  0.4814  0.9440  0.8568
  139ccc     C1 4228  -0.461   1.586   2.889  0.2600  0.4535  0.2054
  139ccc     H1 4229  -0.543   1.560   2.823  1.3297 -1.0288 -0.5913
  139ccc     H2 4230  -0.423   1.684   2.856 -1.1038  1.4867  1.5878
  139ccc     C2 4231  -0.341   1.492   2.869  0.0968 -0.0540  0.0140
  139ccc     H3 4232  -0.317   1.494   2.762 -1.2159  1.4851 -0.2954
  139ccc     H4 4233  -0.358   1.390   2.903 -1.4770  1.5749  5.0032
  139ccc     C3 4234  -0.225   1.560   2.944  0.1046 -0.1143  0.3430
  139ccc     H5 4235  -0.244   1.562   3.052 -1.9235 -0.6201  0.0309
  139ccc     H6 4236  -0.212   1.660   2.905 -0.1250  0.2110  1.0767
  139ccc     N1 4237  -0.095   1.482   2.911  0.4321 -0.1852 -0.2479
  139ccc     C4 4238   0.015   1.560   2.978  0.7966  0.6889 -0.1230
  139ccc     H7 4239   0.009   1.541   3.086  2.6760  0.1222 -0.0909
  139ccc     H8 4240   0.008   1.665   2.950  3.9900  1.3277  1.0078
  139ccc     C5 4241   0.154   1.508   2.925 -0.0162  0.3466 -0.0545
  139ccc     H9 4242   0.180   1.402   2.936  1.1982  0.4820 -1.3135
  139ccc    H10 4243   0.154   1.529   2.817 -1.8479 -0.9147 -0.3328
  139ccc     C6 4244   0.275   1.582   2.996 -0.2317 -0.0924 -0.0207
  139ccc     O1 4245   0.268   1.696   3.028 -0.0710  0.2283  0.1763
  139ccc     O2 4246   0.381   1.498   3.009 -0.1060  0.7918  0.2693
  139ccc    H11 4247   0.361   1.416   2.962  0.1027  1.0205 -0.2254
  139ccc     C7 4248  -0.093   1.335   2.951  0.3159 -0.3350  0.5829
  139ccc    H12 4249  -0.172   1.289   2.891 -0.8123  0.4931  1.3939
  139ccc    H13 4250   0.005   1.302   2.915 -0.2945 -0.9236 -0.6001
  139ccc     C8 4251  -0.117   1.305   3.097  0.1028  0.2764  0.3064
  139ccc    H14 4252  -0.052   1.363   3.165 -0.2557 -0.3959  1.2482
  139ccc    H15 4253  -0.217   1.341   3.124 -0.5907 -0.8669 -0.6239
  139ccc     C9 4254  -0.118   1.162   3.139  0.1952  0.5197  0.4061
  139ccc     O3 4255  -0.069   1.076   3.066  0.1031 -0.1761  0.5253
  139ccc     O4 4256  -0.173   1.134   3.260  0.1802  0.1042  0.0314
  139ccc    H16 4257  -0.188   1.038   3.264 -0.0272  0.0394 -1.5658
  139ccc     O5 4258  -0.505   1.574   3.026  0.8156  0.1651  0.3766
  139ccc    H17 4259  -0.082   1.484   2.809 -1.3511  0.4261 -0.4945
  140ccc     C1 4260  -1.211   1.674   3.550 -0.3560  0.4759  0.7142
  140ccc     H1 4261  -1.204   1.748   3.631 -0.1255  0.6614  0.5270
  140ccc     H2 4262  -1.239   1.725   3.457  0.4127 -0.3625  0.0076
  140ccc     C2 4263  -1.310   1.565   3.568  0.0891  0.6410  0.0300
  140ccc     H3 4264  -1.412   1.605   3.566 -2.1196 -4.2532 -0.2927
  140ccc     H4 4265  -1.307   1.511   3.664  1.2046 -0.3177 -0.5157
  140ccc     C3 4266  -1.297   1.463   3.451  0.6482 -0.5827  0.1090
  140ccc     H5 4267  -1.224   1.499   3.379  0.1758 -0.2452 -0.2074
  140ccc     H6 4268  -1.388   1.455   3.391  0.4757 -0.7568  0.3898
  140ccc     N1 4269  -1.262   1.317   3.487  0.3925 -0.3123  0.0566
  140ccc     C4 4270  -1.127   1.302   3.560 -0.5661 -0.1814 -0.2591
  140ccc     H7 4271  -1.135   1.333   3.665  0.9578 -0.7373  0.0522
  140ccc     H8 4272  -1.059   1.378   3.522  0.4016 -0.1236  1.4965
  140ccc     C5 4273  -1.068   1.164   3.555 -0.4220 -0.0969 -0.0247
  140ccc     H9 4274  -1.143   1.090   3.589  0.9460 -0.8641  1.4815
  140ccc    H10 4275  -1.045   1.150   3.449  0.1083  1.6481 -0.1567
  140ccc     C6 4276  -0.937   1.139   3.621 -0.2249  0.1106  0.4434
  140ccc     O1 4277  -0.849   1.217   3.634  0.9829  0.0267 -0.4858
  140ccc     O2 4278  -0.936   1.021   3.695 -0.2628 -0.5187  0.8258
  140ccc    H11 4279  -1.007   0.964   3.661  0.5328 -0.1795 -1.5266
  140ccc     C7 4280  -1.378   1.253   3.561 -0.4145 -0.6702 -0.1047
  140ccc    H12 4281  -1.332   1.164   3.604  0.7397 -0.1368 -0.2140
  140ccc    H13 4282  -1.395   1.322   3.644  2.5864 -1.0117  0.8880
  140ccc     C8 4283  -1.504   1.215   3.480 -0.6343 -0.5923 -0.4610
  140ccc    H14 4284  -1.543   1.305   3.432  0.3951  0.4463  0.5821
  140ccc    H15 4285  -1.478   1.157   3.390  0.0270 -0.5306 -0.3155
  140ccc     C9 4286  -1.611   1.155   3.567  0.5345  0.2892  0.0204
  140ccc     O3 4287  -1.653   1.046   3.547  0.4612  0.0047  0.5563
  140ccc     O4 4288  -1.675   1.229   3.655  0.4341  0.6492 -0.0669
  140ccc    H16 4289  -1.756   1.178   3.673  0.9621 -0.1441  0.1182
  140ccc     O5 4290  -1.079   1.624   3.529  0.3180 -0.4633 -0.1198
  140ccc    H17 4291  -1.253   1.263   3.399 -0.2240 -1.7255  0.8309
  141ccc     C1 4292  -1.233   1.336   4.291 -0.4146  1.1244  0.7338
  141ccc     H1 4293  -1.329   1.344   4.344 -0.5372  2.3710  0.3683
  141ccc     H2 4294  -1.238   1.369   4.187 -0.2994 -0.0743  0.3406
  141ccc     C2 4295  -1.192   1.184   4.274  0.1371  0.0156 -0.0923
  141ccc     H3 4296  -1.091   1.178   4.231  0.8051  1.0563  1.2741
  141ccc     H4 4297  -1.272   1.128   4.223  0.7059 -1.0515  0.1491
  141ccc     C3 4298  -1.174   1.119   4.406 -0.2723 -0.6288 -0.5779
  141ccc     H5 4299  -1.257   1.151   4.468 -1.7182 -1.0276 -2.2324
  141ccc     H6 4300  -1.082   1.161   4.447 -0.5814  0.1805 -0.7013
  141ccc     N1 4301  -1.173   0.971   4.415 -0.6822  0.2550 -0.0988
  141ccc     C4 4302  -1.053   0.915   4.332  0.6976 -0.2898 -0.0377
  141ccc     H7 4303  -0.971   0.920   4.404  0.2607 -0.4091  0.4755
  141ccc     H8 4304  -1.035   0.975   4.243 -1.1749 -1.9692 -1.6461
  141ccc     C5 4305  -1.078   0.770   4.280  0.5966 -0.3343  0.3991
  141ccc     H9 4306  -1.108   0.704   4.362  1.7362 -0.4265  0.7455
  141ccc    H10 4307  -1.161   0.770   4.208  0.7966  1.7970  0.1098
  141ccc     C6 4308  -0.959   0.718   4.208  0.0271 -0.6780 -0.2619
  141ccc     O1 4309  -0.851   0.776   4.219 -0.1609  0.1639 -0.6166
  141ccc     O2 4310  -0.963   0.595   4.157  0.0661  0.0782 -0.4468
  141ccc    H11 4311  -1.054   0.560   4.156  0.5564 -1.2700 -0.1339
  141ccc     C7 4312  -1.169   0.919   4.561 -0.3570 -0.1391 -0.1145
  141ccc    H12 4313  -1.162   0.810   4.556  2.6961 -0.0812  0.8361
  141ccc    H13 4314  -1.076   0.957   4.603  0.0234 -2.4194  1.2872
  141ccc     C8 4315  -1.290   0.952   4.642  0.0322  0.3316 -0.0983
  141ccc    H14 4316  -1.310   1.059   4.652  1.1815  0.8729 -2.6963
  141ccc    H15 4317  -1.382   0.906   4.604 -0.0053  0.5323 -0.2519
  141ccc     C9 4318  -1.264   0.903   4.788  0.2475 -0.1256  0.5851
  141ccc     O3 4319  -1.225   0.790   4.821  0.3501  0.0726  0.0708
  141ccc     O4 4320  -1.252   1.003   4.877 -0.7396  0.2362  0.5932
  141ccc    H16 4321  -1.234   0.941   4.950 -1.4782 -1.2928 -0.4598
  141ccc     O5 4322  -1.128   1.407   4.369 -0.6221 -0.1816 -0.3898
  141ccc    H17 4323  -1.262   0.936   4.377 -1.0338 -1.4948  2.1412
  142ccc     C1 4324  -0.733   1.414   4.957 -1.2212 -0.3078 -0.4198
  142ccc     H1 4325  -0.688   1.320   4.989  1.5245  0.9526 -0.3378
  142ccc     H2 4326  -0.669   1.500   4.978 -0.0280 -1.5837  1.4476
  142ccc     C2 4327  -0.867   1.437   5.028 -0.4410 -1.3254 -0.1714
  142ccc     H3 4328  -0.904   1.537   5.005 -1.8062 -2.1635 -1.8020
  142ccc     H4 4329  -0.855   1.427   5.137 -1.7798 -2.0749 -0.0692
  142ccc     C3 4330  -0.962   1.337   4.982 -0.4210  0.1410 -0.2668
  142ccc     H5 4331  -0.905   1.244   4.987  2.2951  1.5109 -2.7166
  142ccc     H6 4332  -0.970   1.347   4.874  0.2859 -0.0209 -0.3411
  142ccc     N1 4333  -1.104   1.335   5.049  0.0011  0.4034  0.0759
  142ccc     C4 4334  -1.201   1.321   4.934  0.6547 -0.0017 -0.3069
  142ccc     H7 4335  -1.303   1.308   4.972 -0.3136 -1.4359 -3.1156
  142ccc     H8 4336  -1.176   1.223   4.894 -0.2030 -1.3996  2.3712
  142ccc     C5 4337  -1.215   1.435   4.835 -0.0216  1.2995  0.6696
  142ccc     H9 4338  -1.244   1.527   4.888 -0.2171  1.2693  0.6182
  142ccc    H10 4339  -1.134   1.449   4.763  1.1260 -1.6251  1.2355
  142ccc     C6 4340  -1.328   1.382   4.748  0.5547 -0.4261 -0.8467
  142ccc     O1 4341  -1.316   1.283   4.689  0.1790  0.7850 -0.3576
  142ccc     O2 4342  -1.428   1.471   4.734  0.1029 -0.2134  0.4463
  142ccc    H11 4343  -1.487   1.422   4.673  0.3985 -0.5594  0.4367
  142ccc     C7 4344  -1.138   1.227   5.154  0.3717  0.3011  0.5008
  142ccc    H12 4345  -1.242   1.231   5.187 -0.2854 -0.7005 -1.3301
  142ccc    H13 4346  -1.123   1.124   5.122  1.4793  0.2248  1.1889
  142ccc     C8 4347  -1.042   1.243   5.271 -0.6200  0.1326 -0.2792
  142ccc    H14 4348  -0.936   1.225   5.251 -0.6293 -2.4925  1.4931
  142ccc    H15 4349  -1.064   1.346   5.302 -2.1325 -0.9635  2.7653
  142ccc     C9 4350  -1.068   1.162   5.397 -0.5149 -0.3637 -0.6954
  142ccc     O3 4351  -1.105   1.051   5.398 -0.1094 -0.1038  0.3886
  142ccc     O4 4352  -1.054   1.229   5.514 -0.0478 -0.5218  0.5198
  142ccc    H16 4353  -1.104   1.169   5.572 -0.0925 -1.0528 -0.0586
  142ccc     O5 4354  -0.758   1.396   4.816  0.3881 -0.4032  0.4842
  142ccc    H17 4355  -1.119   1.423   5.101 -1.1468 -1.1229  2.4724
  143ccc     C1 4356   0.834   5.056   0.449  0.1180  0.1889 -0.1865
  143ccc     H1 4357   0.903   4.987   0.399 -1.2976 -1.4176 -0.0086
  143ccc     H2 4358   0.819   5.144   0.386  1.6613  1.6547  1.3673
  143ccc     C2 4359   0.890   5.109   0.585  0.2367  0.7989  0.3035
  143ccc     H3 4360   0.826   5.187   0.628 -0.2111  0.5448  0.1021
  143ccc     H4 4361   0.985   5.162   0.568  0.4566  0.2829 -0.1175
  143ccc     C3 4362   0.915   4.995   0.687  0.0357  0.3819  0.3558
  143ccc     H5 4363   1.015   4.954   0.668  0.2701  1.3000 -0.4753
  143ccc     H6 4364   0.845   4.913   0.669  1.2667 -0.1463 -2.7634
  143ccc     N1 4365   0.911   5.040   0.833 -0.2377 -0.3377 -0.5385
  143ccc     C4 4366   0.760   5.030   0.882  0.4221 -0.2599  0.5800
  143ccc     H7 4367   0.760   4.968   0.972  0.8615 -0.3711  0.5088
  143ccc     H8 4368   0.711   4.979   0.799  2.5273 -0.7612 -0.4236
  143ccc     C5 4369   0.698   5.168   0.911  1.0760  0.6069  0.0119
  143ccc     H9 4370   0.669   5.169   1.017  0.5978  3.4359 -0.0649
  143ccc    H10 4371   0.765   5.255   0.905  0.0032  1.4549  0.0423
  143ccc     C6 4372   0.574   5.199   0.825 -0.7737  0.4199 -0.4479
  143ccc     O1 4373   0.568   5.152   0.709 -0.0586  0.1199 -0.2082
  143ccc     O2 4374   0.523   5.324   0.841  0.2677  0.3587  0.1748
  143ccc    H11 4375   0.546   5.360   0.928 -0.8117  0.4559  0.4305
  143ccc     C7 4376   1.000   4.957   0.928  0.3669  0.4241 -0.4318
  143ccc    H12 4377   0.963   4.855   0.919  2.5696 -0.7571  2.2103
  143ccc    H13 4378   1.106   4.960   0.904  0.6479 -2.2982  0.1445
  143ccc     C8 4379   0.997   4.998   1.077  0.6879  0.2535 -0.2835
  143ccc    H14 4380   0.995   5.108   1.083 -1.0832  0.2941 -1.0301
  143ccc    H15 4381   0.901   4.964   1.118 -0.3877 -0.0658 -2.8839
  143ccc     C9 4382   1.104   4.936   1.169  0.5425 -0.1906  0.0158
  143ccc     O3 4383   1.161   4.834   1.144  0.2561  0.7057  0.2856
  143ccc     O4 4384   1.099   4.973   1.293 -0.7395  0.2530 -0.3428
  143ccc    H16 4385   1.052   5.057   1.307  0.7308  0.7828  1.8373
  143ccc     O5 4386   0.712   4.983   0.472 -0.5438 -0.1209 -0.0228
  143ccc    H17 4387   0.941   5.139   0.840  2.0287 -1.0570  0.6600
  144ccc     C1 4388   0.205   5.267   0.879 -0.5682  0.8561 -0.5164
  144ccc     H1 4389   0.120   5.232   0.938 -0.9485  3.0826  0.3496
  144ccc     H2 4390   0.282   5.277   0.957 -1.7764 -0.9914  1.0049
  144ccc     C2 4391   0.172   5.396   0.807 -0.2002  0.1274 -0.3453
  144ccc     H3 4392   0.180   5.467   0.891 -0.3891  2.3663 -2.1024
  144ccc     H4 4393   0.068   5.395   0.772 -0.9377  3.3750  1.3852
  144ccc     C3 4394   0.280   5.440   0.703  0.5038 -0.2052 -0.5477
  144ccc     H5 4395   0.291   5.360   0.630  2.2662 -1.8877  1.4187
  144ccc     H6 4396   0.369   5.450   0.765  0.1305  1.8201 -0.2786
  144ccc     N1 4397   0.253   5.578   0.633 -0.1899  0.5585 -0.1450
  144ccc     C4 4398   0.380   5.635   0.569 -0.4611 -0.9652  0.0766
  144ccc     H7 4399   0.360   5.738   0.540 -0.1157 -0.7849  0.4740
  144ccc     H8 4400   0.406   5.573   0.483 -1.6018  2.2693 -2.8336
  144ccc     C5 4401   0.502   5.648   0.663  0.3626 -0.7419 -0.4238
  144ccc     H9 4402   0.476   5.698   0.757 -0.4618  0.7765 -1.4228
  144ccc    H10 4403   0.535   5.546   0.685  0.7249 -0.9966 -2.0140
  144ccc     C6 4404   0.621   5.718   0.603 -0.0324 -0.0461  0.0491
  144ccc     O1 4405   0.622   5.749   0.486 -0.7578 -0.3612 -0.2359
  144ccc     O2 4406   0.711   5.764   0.686 -0.5594 -0.6804  0.7843
  144ccc    H11 4407   0.758   5.823   0.625  0.6924 -1.7493  0.6879
  144ccc     C7 4408   0.141   5.561   0.538 -0.4574 -0.8659 -0.1340
  144ccc    H12 4409   0.161   5.472   0.480 -0.4760 -1.2935  0.5056
  144ccc    H13 4410   0.044   5.556   0.588 -0.8250 -1.6707 -0.9008
  144ccc     C8 4411   0.127   5.673   0.427  0.5806  0.5387  0.7460
  144ccc    H14 4412   0.128   5.769   0.479 -0.1532  0.2970  1.2173
  144ccc    H15 4413   0.196   5.670   0.341  0.0877 -0.6821  0.3657
  144ccc     C9 4414  -0.019   5.667   0.374 -0.1087 -0.0176  0.4823
  144ccc     O3 4415  -0.102   5.588   0.423 -0.2352 -0.2411 -0.3090
  144ccc     O4 4416  -0.051   5.743   0.270 -0.9022 -0.0669  0.1265
  144ccc    H16 4417   0.034   5.770   0.232  0.3202 -1.2871  1.8814
  144ccc     O5 4418   0.235   5.160   0.785  0.2541  0.6033  0.2693
  144ccc    H17 4419   0.217   5.650   0.697 -2.4374 -0.1514 -0.5291
  145ccc     C1 4420   0.328   4.297  -0.457 -0.1005 -0.1344 -0.5216
  145ccc     H1 4421   0.380   4.392  -0.473 -1.4975  0.4842 -1.5449
  145ccc     H2 4422   0.378   4.213  -0.506  0.6139  1.0900 -1.9478
  145ccc     C2 4423   0.187   4.307  -0.511  0.7525 -0.2661 -0.3925
  145ccc     H3 4424   0.145   4.206  -0.521 -1.1789  0.3136  1.2858
  145ccc     H4 4425   0.198   4.347  -0.613  0.2707  3.6362  0.9230
  145ccc     C3 4426   0.094   4.408  -0.444 -0.2106 -0.0229 -0.4925
  145ccc     H5 4427   0.164   4.483  -0.405 -1.0357 -0.4733  2.0789
  145ccc     H6 4428   0.052   4.356  -0.358  0.0794  0.5653  0.0151
  145ccc     N1 4429  -0.015   4.467  -0.520  0.1508 -0.0495 -0.2395
  145ccc     C4 4430  -0.124   4.359  -0.544 -0.2751  0.0707  0.3146
  145ccc     H7 4431  -0.172   4.323  -0.453 -2.5755  1.5220 -0.2343
  145ccc     H8 4432  -0.072   4.271  -0.581 -0.2368 -0.3642  1.3608
  145ccc     C5 4433  -0.233   4.410  -0.645  0.3275  0.8211 -1.0254
  145ccc     H9 4434  -0.305   4.479  -0.600 -0.5656  0.0482 -1.2454
  145ccc    H10 4435  -0.182   4.475  -0.717  2.3069 -0.5990 -0.9988
  145ccc     C6 4436  -0.308   4.302  -0.716  1.0609 -0.3872 -0.3866
  145ccc     O1 4437  -0.292   4.182  -0.713 -0.2919 -0.4891 -0.2751
  145ccc     O2 4438  -0.404   4.346  -0.797  0.0776  0.2562 -0.6176
  145ccc    H11 4439  -0.406   4.443  -0.792 -1.3614  0.2040  0.4394
  145ccc     C7 4440  -0.075   4.583  -0.443  0.1107 -0.7034 -0.7469
  145ccc    H12 4441  -0.172   4.603  -0.489 -0.3477  0.9019  0.7995
  145ccc    H13 4442  -0.105   4.553  -0.342 -0.9178  1.4785 -0.3418
  145ccc     C8 4443   0.008   4.713  -0.442  0.5249 -0.0637  1.1084
  145ccc    H14 4444   0.110   4.692  -0.406  0.9338 -1.4116 -0.7090
  145ccc    H15 4445   0.016   4.751  -0.544  2.3331  2.3291  2.0096
  145ccc     C9 4446  -0.057   4.829  -0.369 -0.0503 -0.0236  0.2719
  145ccc     O3 4447   0.005   4.916  -0.324 -0.8775 -0.3288 -0.8406
  145ccc     O4 4448  -0.192   4.851  -0.375  0.3034  0.7381  0.0210
  145ccc    H16 4449  -0.192   4.944  -0.347  2.7263  0.8827 -0.2515
  145ccc     O5 4450   0.327   4.270  -0.318  0.1106  0.2396  0.7177
  145ccc    H17 4451   0.025   4.495  -0.611 -0.2736 -1.4473 -0.8805
  146ccc     C1 4452   0.047   3.906  -0.757  0.4987  0.0533  0.6378
  146ccc     H1 4453   0.095   3.981  -0.821  0.1556  0.4723  0.8678
  146ccc     H2 4454   0.111   3.817  -0.772  1.3240  0.6467  0.5704
  146ccc     C2 4455  -0.091   3.871  -0.800  0.1780  0.1532 -0.0684
  146ccc     H3 4456  -0.084   3.804  -0.886  1.9530 -0.6733  0.6838
  146ccc     H4 4457  -0.137   3.961  -0.844  0.7380  1.2128  1.4539
  146ccc     C3 4458  -0.175   3.802  -0.682 -0.2768 -0.4807  0.7075
  146ccc     H5 4459  -0.201   3.875  -0.605  1.9427 -0.3173  1.3544
  146ccc     H6 4460  -0.115   3.725  -0.634  2.3825 -0.0700 -1.6958
  146ccc     N1 4461  -0.299   3.716  -0.716  0.1031  0.2920 -0.2316
  146ccc     C4 4462  -0.258   3.592  -0.794 -0.2249  0.0968  0.3297
  146ccc     H7 4463  -0.210   3.516  -0.731  1.9270 -1.1342 -2.5697
  146ccc     H8 4464  -0.179   3.616  -0.865 -0.4076  0.5552  0.2770
  146ccc     C5 4465  -0.376   3.524  -0.876 -0.6135  0.1244 -0.1366
  146ccc     H9 4466  -0.468   3.518  -0.817 -0.7993  0.7559 -0.3465
  146ccc    H10 4467  -0.410   3.572  -0.968  2.1902 -1.3290 -2.0740
  146ccc     C6 4468  -0.323   3.383  -0.926 -0.6134  0.3150 -1.0923
  146ccc     O1 4469  -0.202   3.349  -0.931  0.2380 -0.2368  0.3593
  146ccc     O2 4470  -0.414   3.295  -0.967  0.0982 -0.2348  1.0222
  146ccc    H11 4471  -0.502   3.333  -0.953 -0.0034  0.7152 -1.6090
  146ccc     C7 4472  -0.380   3.692  -0.578 -0.7587  0.3156  0.0775
  146ccc    H12 4473  -0.473   3.640  -0.603 -1.5828  1.4798  0.6734
  146ccc    H13 4474  -0.319   3.640  -0.504  1.1310 -0.8686 -2.1586
  146ccc     C8 4475  -0.432   3.816  -0.505  0.1193  0.2312 -0.9639
  146ccc    H14 4476  -0.347   3.855  -0.448 -0.7230  0.3579  0.2427
  146ccc    H15 4477  -0.453   3.890  -0.584  3.4934  0.3192 -1.9322
  146ccc     C9 4478  -0.561   3.782  -0.424  0.7553 -0.1753 -0.4112
  146ccc     O3 4479  -0.600   3.669  -0.394 -0.2148  0.5319  0.3215
  146ccc     O4 4480  -0.606   3.885  -0.350 -0.3421  0.0999  0.8692
  146ccc    H16 4481  -0.562   3.970  -0.370  2.8029 -1.9263 -1.9245
  146ccc     O5 4482   0.030   3.957  -0.618  0.1651  0.4967  0.4801
  146ccc    H17 4483  -0.359   3.780  -0.770  1.1175  0.7831 -0.8298
  147ccc     C1 4484  -1.089   3.805   1.872  0.3385  0.0634  1.0012
  147ccc     H1 4485  -1.172   3.768   1.935  0.4429 -0.0037  1.0995
  147ccc     H2 4486  -0.995   3.771   1.917 -0.1073  0.8149  2.5772
  147ccc     C2 4487  -1.080   3.958   1.879 -0.3262 -0.4705  1.1398
  147ccc     H3 4488  -1.029   3.995   1.789 -0.6076 -1.8320  0.3987
  147ccc     H4 4489  -1.020   3.982   1.967  0.8258  1.6393 -0.1358
  147ccc     C3 4490  -1.219   4.022   1.889  0.3151 -0.0862  0.8358
  147ccc     H5 4491  -1.271   3.987   1.978  0.8683  2.0096  2.0752
  147ccc     H6 4492  -1.279   3.994   1.802  1.4800 -0.2243  0.0602
  147ccc     N1 4493  -1.224   4.174   1.898 -0.6948 -0.2844 -0.2365
  147ccc     C4 4494  -1.208   4.234   1.763 -0.2802 -0.5375 -0.6309
  147ccc     H7 4495  -1.272   4.190   1.687  0.8425 -1.6603 -0.9659
  147ccc     H8 4496  -1.109   4.204   1.726 -0.0417 -0.8176  0.2147
  147ccc     C5 4497  -1.192   4.385   1.753  1.0125 -0.9745 -0.4661
  147ccc     H9 4498  -1.292   4.429   1.760  0.6974 -1.4694 -1.7036
  147ccc    H10 4499  -1.147   4.415   1.849 -0.5877  0.1537 -0.0296
  147ccc     C6 4500  -1.131   4.437   1.625 -0.2053 -0.4691 -0.0783
  147ccc     O1 4501  -1.168   4.399   1.515 -0.0549  0.4145  0.0779
  147ccc     O2 4502  -1.012   4.515   1.639 -0.0152  0.0274 -0.0420
  147ccc    H11 4503  -1.023   4.542   1.732  0.7957 -0.8540  0.3241
  147ccc     C7 4504  -1.359   4.220   1.951  0.0671 -0.4701  0.7258
  147ccc    H12 4505  -1.353   4.329   1.947 -3.5413  0.0639  3.6066
  147ccc    H13 4506  -1.449   4.182   1.901 -1.7736  3.2952  0.7770
  147ccc     C8 4507  -1.382   4.200   2.100  0.3125  0.2789  0.0051
  147ccc    H14 4508  -1.387   4.096   2.131  3.2862  0.4456  1.3907
  147ccc    H15 4509  -1.299   4.243   2.157 -1.0016  0.9202  1.5275
  147ccc     C9 4510  -1.504   4.269   2.155  0.7815  0.4091 -0.2144
  147ccc     O3 4511  -1.593   4.305   2.087  0.5024 -0.2534 -0.0274
  147ccc     O4 4512  -1.496   4.316   2.283  0.4371  0.0948 -0.1726
  147ccc    H16 4513  -1.409   4.290   2.317 -0.0037 -1.2556 -0.0529
  147ccc     O5 4514  -1.100   3.749   1.737  0.6461 -0.8127 -0.1298
  147ccc    H17 4515  -1.146   4.203   1.958  0.6469 -0.8597 -1.6150
  148ccc     C1 4516  -0.741   4.138   1.315  0.4156  0.4696  0.2450
  148ccc     H1 4517  -0.686   4.179   1.400  0.0835  0.9260  0.2450
  148ccc     H2 4518  -0.675   4.112   1.232 -0.1163 -1.0460  0.2678
  148ccc     C2 4519  -0.857   4.237   1.293  0.4803  0.1987  0.1910
  148ccc     H3 4520  -0.814   4.337   1.280  0.6120  0.5142  2.6433
  148ccc     H4 4521  -0.919   4.240   1.383  2.1178  0.8076  1.3577
  148ccc     C3 4522  -0.939   4.195   1.166  0.1455  0.0442 -0.5465
  148ccc     H5 4523  -0.948   4.087   1.150  0.3416 -0.1621  0.6679
  148ccc     H6 4524  -0.880   4.223   1.078  1.1479 -2.7905 -0.8901
  148ccc     N1 4525  -1.086   4.241   1.168 -0.2317 -0.1994 -0.2781
  148ccc     C4 4526  -1.157   4.187   1.294  0.0082  0.0695 -0.1558
  148ccc     H7 4527  -1.250   4.243   1.287  0.8885  2.0727  2.3737
  148ccc     H8 4528  -1.109   4.208   1.390  0.4500 -0.2564 -0.3001
  148ccc     C5 4529  -1.193   4.034   1.284 -0.4697  0.3905 -0.0127
  148ccc     H9 4530  -1.262   4.018   1.200  1.2314 -0.2280 -1.3412
  148ccc    H10 4531  -1.106   3.970   1.267 -1.2564 -0.4422 -1.0656
  148ccc     C6 4532  -1.245   3.973   1.421 -0.4548 -0.6445 -0.4441
  148ccc     O1 4533  -1.210   4.014   1.532 -0.5063  0.2426  0.2918
  148ccc     O2 4534  -1.314   3.857   1.415 -0.3834 -0.4170 -0.1770
  148ccc    H11 4535  -1.326   3.835   1.321 -3.0460  0.2274 -0.0552
  148ccc     C7 4536  -1.103   4.394   1.173  0.0549  0.0043 -0.1176
  148ccc    H12 4537  -1.210   4.416   1.175  0.1333  0.3826  0.0174
  148ccc    H13 4538  -1.063   4.426   1.269 -1.1118  0.4049  0.2591
  148ccc     C8 4539  -1.031   4.481   1.066 -0.4918  0.1198  0.2174
  148ccc    H14 4540  -1.040   4.589   1.084 -0.6499 -0.0615  1.2702
  148ccc    H15 4541  -0.924   4.467   1.087 -0.6010  1.0224  1.4454
  148ccc     C9 4542  -1.055   4.432   0.924  0.2199 -0.4887  1.2825
  148ccc     O3 4543  -1.116   4.331   0.887 -0.5086 -0.5627 -0.1489
  148ccc     O4 4544  -0.968   4.485   0.842 -0.1904 -0.2889 -0.1811
  148ccc    H16 4545  -0.984   4.461   0.749  1.7983 -0.3608 -0.5656
  148ccc     O5 4546  -0.806   4.021   1.372 -0.5208  0.0766  0.2459
  148ccc    H17 4547  -1.124   4.204   1.080 -1.3813 -0.6088  0.3597
  149ccc     C1 4548  -1.050   3.099   0.384 -0.5429 -0.0268 -0.5990
  149ccc     H1 4549  -1.082   2.995   0.369 -1.0602  0.2177 -1.2372
  149ccc     H2 4550  -1.118   3.153   0.451 -0.0027 -1.0495  0.8222
  149ccc     C2 4551  -1.047   3.159   0.244  0.1451 -1.3796 -0.1732
  149ccc     H3 4552  -0.978   3.109   0.175 -0.6267  0.4657 -2.4294
  149ccc     H4 4553  -1.022   3.265   0.251 -0.3635 -1.1085 -1.9196
  149ccc     C3 4554  -1.181   3.164   0.176  0.8181  0.4618  0.3927
  149ccc     H5 4555  -1.246   3.236   0.226  0.2990 -0.7172  1.4697
  149ccc     H6 4556  -1.220   3.063   0.186  0.2982  0.4611 -1.3196
  149ccc     N1 4557  -1.180   3.193   0.020  0.2134  0.3546 -0.5427
  149ccc     C4 4558  -1.325   3.178  -0.029  0.1177 -0.1148 -0.2847
  149ccc     H7 4559  -1.328   3.230  -0.125 -1.7974  0.8562  0.2375
  149ccc     H8 4560  -1.395   3.229   0.037  0.2248 -0.7497  0.3285
  149ccc     C5 4561  -1.389   3.032  -0.036  0.2856 -0.0352 -0.5374
  149ccc     H9 4562  -1.314   2.966  -0.080  0.0447 -1.7359  1.4704
  149ccc    H10 4563  -1.410   3.007   0.068  0.9311  0.8523 -0.1822
  149ccc     C6 4564  -1.513   3.018  -0.121 -0.1548  0.1857  0.2890
  149ccc     O1 4565  -1.530   3.100  -0.206  0.3723  0.2918  0.0264
  149ccc     O2 4566  -1.599   2.923  -0.089 -0.0863 -0.1656 -0.8904
  149ccc    H11 4567  -1.556   2.853  -0.037 -2.9151 -0.5401  1.1565
  149ccc     C7 4568  -1.139   3.337  -0.008  0.1902 -0.1474  0.3578
  149ccc    H12 4569  -1.215   3.412   0.010  1.1657  0.9798 -0.0845
  149ccc    H13 4570  -1.055   3.362   0.057  0.7143 -1.6615  0.3051
  149ccc     C8 4571  -1.091   3.348  -0.157 -0.0244  0.5966 -0.4886
  149ccc    H14 4572  -1.011   3.282  -0.194  0.0295 -0.0707  0.7675
  149ccc    H15 4573  -1.183   3.318  -0.209 -0.4348 -0.0452  0.5669
  149ccc     C9 4574  -1.040   3.486  -0.182  0.0533  0.1097 -0.0944
  149ccc     O3 4575  -1.056   3.576  -0.104  0.5369 -0.3334  0.2182
  149ccc     O4 4576  -0.962   3.503  -0.287  0.5396  0.1664 -0.2753
  149ccc    H16 4577  -0.929   3.594  -0.282  1.2799  0.0427 -2.0481
  149ccc     O5 4578  -0.913   3.096   0.429 -0.3541  0.1547  0.0997
  149ccc    H17 4579  -1.116   3.123  -0.021 -2.0786 -1.4637 -1.3159
  150ccc     C1 4580  -0.415   2.521   0.927 -0.1719  0.6335 -0.1194
  150ccc     H1 4581  -0.516   2.489   0.956 -0.6827  1.2899 -1.1559
  150ccc     H2 4582  -0.358   2.430   0.900  2.9112  2.2405  0.5041
  150ccc     C2 4583  -0.356   2.584   1.055  0.3936  0.5155 -0.7403
  150ccc     H3 4584  -0.351   2.510   1.135 -4.8788  2.2024  1.6578
  150ccc     H4 4585  -0.428   2.661   1.085 -0.4894  0.0341 -1.5648
  150ccc     C3 4586  -0.216   2.639   1.024 -0.1951  0.3991 -0.1928
  150ccc     H5 4587  -0.231   2.720   0.951 -0.0814  0.9073  0.3400
  150ccc     H6 4588  -0.160   2.566   0.966 -0.9623  0.6915 -1.3545
  150ccc     N1 4589  -0.129   2.684   1.139 -0.0054 -0.1535 -0.0950
  150ccc     C4 4590  -0.012   2.764   1.088 -0.4596 -0.2056  0.0894
  150ccc     H7 4591  -0.049   2.846   1.026 -1.1876 -0.5556  0.0530
  150ccc     H8 4592   0.039   2.709   1.010 -0.1371  1.2321 -0.7491
  150ccc     C5 4593   0.101   2.803   1.184  0.9125 -0.5477 -0.1878
  150ccc     H9 4594   0.060   2.865   1.264 -0.4555 -0.4821 -0.9099
  150ccc    H10 4595   0.150   2.714   1.225  2.4006  0.6061  0.6397
  150ccc     C6 4596   0.203   2.886   1.102  0.0642  0.1508 -0.2282
  150ccc     O1 4597   0.195   2.918   0.986 -0.0419  0.4283  0.0057
  150ccc     O2 4598   0.320   2.902   1.170  0.2690 -0.1001 -0.2210
  150ccc    H11 4599   0.304   2.851   1.251  0.7953  0.1948  0.0804
  150ccc     C7 4600  -0.208   2.758   1.247 -0.5741  0.2337  0.2213
  150ccc    H12 4601  -0.293   2.700   1.283 -0.4397  0.7637  1.4657
  150ccc    H13 4602  -0.149   2.771   1.338 -0.0890 -1.3746  0.1526
  150ccc     C8 4603  -0.261   2.896   1.214  0.2388 -0.1733  0.1722
  150ccc    H14 4604  -0.174   2.962   1.206  0.2128  0.0931  1.7125
  150ccc    H15 4605  -0.321   2.892   1.123 -1.6583 -1.9257  1.3988
  150ccc     C9 4606  -0.360   2.940   1.325  1.4598  0.0388  0.0195
  150ccc     O3 4607  -0.456   2.874   1.365  0.5372 -0.1737  0.2497
  150ccc     O4 4608  -0.316   3.037   1.399 -0.2516 -0.2572  0.1520
  150ccc    H16 4609  -0.376   3.048   1.475  2.9091 -1.3307  3.0478
  150ccc     O5 4610  -0.421   2.623   0.823 -0.0902  0.0990 -0.1884
  150ccc    H17 4611  -0.088   2.605   1.191  2.6284  1.5493  0.5909
  151ccc     C1 4612   1.355   5.220   3.183 -0.0925  0.3738 -0.5522
  151ccc     H1 4613   1.373   5.122   3.228  2.0270  0.8106 -0.3783
  151ccc     H2 4614   1.434   5.278   3.232 -2.3921  2.3955  1.0061
  151ccc     C2 4615   1.204   5.275   3.207  0.6466  0.0821  0.3306
  151ccc     H3 4616   1.188   5.365   3.146  1.2374 -0.2684 -0.3637
  151ccc     H4 4617   1.201   5.307   3.312 -0.4330  0.5559  0.1724
  151ccc     C3 4618   1.096   5.163   3.182  0.3358 -0.1287 -0.2884
  151ccc     H5 4619   1.111   5.096   3.267  2.2387  1.0862  0.4291
  151ccc     H6 4620   1.115   5.104   3.093 -0.8143 -0.5534 -0.2697
  151ccc     N1 4621   0.950   5.207   3.171 -0.3607  0.0325 -0.5526
  151ccc     C4 4622   0.943   5.280   3.037  1.0160  0.2036 -0.5330
  151ccc     H7 4623   0.955   5.213   2.953  0.0473  0.6012 -1.0058
  151ccc     H8 4624   1.027   5.349   3.025  1.8650 -0.2581  2.0808
  151ccc     C5 4625   0.807   5.356   3.025 -0.5708  0.0778  0.2192
  151ccc     H9 4626   0.723   5.286   3.028 -0.8180  0.4115  1.4886
  151ccc    H10 4627   0.795   5.422   3.112  1.8557  0.5802  0.2391
  151ccc     C6 4628   0.794   5.432   2.892 -0.0827  0.8434  0.3140
  151ccc     O1 4629   0.763   5.384   2.782  0.0059 -0.3679  0.4212
  151ccc     O2 4630   0.851   5.550   2.893 -0.7551  0.6377 -0.0738
  151ccc    H11 4631   0.864   5.564   2.988 -0.2988  0.9360 -0.1767
  151ccc     C7 4632   0.852   5.088   3.173 -0.0537  0.3039 -0.2658
  151ccc    H12 4633   0.750   5.128   3.170 -0.9693 -1.9309 -2.4126
  151ccc    H13 4634   0.863   5.019   3.089 -0.6441 -0.3080  0.1515
  151ccc     C8 4635   0.863   4.996   3.296 -0.6528 -0.0496  0.2672
  151ccc    H14 4636   0.965   4.958   3.289 -0.9173 -0.5116 -1.6182
  151ccc    H15 4637   0.841   5.047   3.390 -2.1678 -0.9554  0.4362
  151ccc     C9 4638   0.772   4.876   3.266  0.2214 -0.1203  0.5156
  151ccc     O3 4639   0.656   4.888   3.227 -0.1932  0.5866  0.2798
  151ccc     O4 4640   0.816   4.757   3.315  0.2591  0.0598  0.2884
  151ccc    H16 4641   0.903   4.772   3.356  1.3742 -2.5922 -0.8754
  151ccc     O5 4642   1.377   5.204   3.041 -0.8396  0.2458  0.6687
  151ccc    H17 4643   0.932   5.275   3.245  0.7251  0.9254 -1.0794
  152ccc     C1 4644   1.543   5.650   2.459 -0.9750 -0.0898 -0.2216
  152ccc     H1 4645   1.457   5.710   2.427 -1.1701 -0.5347 -0.5411
  152ccc     H2 4646   1.599   5.701   2.539  0.9989 -0.0149 -1.5823
  152ccc     C2 4647   1.645   5.633   2.345 -0.2513  0.3184  0.2279
  152ccc     H3 4648   1.677   5.734   2.314 -1.1495  0.1376 -1.3983
  152ccc     H4 4649   1.592   5.583   2.263 -1.0929 -1.2202  1.6676
  152ccc     C3 4650   1.777   5.560   2.393  0.3666  0.1485 -0.3858
  152ccc     H5 4651   1.740   5.475   2.452 -0.9202  0.7396 -0.2975
  152ccc     H6 4652   1.834   5.617   2.466 -0.4688 -0.0424  0.4384
  152ccc     N1 4653   1.864   5.506   2.283 -0.1987  0.2115  0.6250
  152ccc     C4 4654   1.795   5.402   2.196  0.4740 -0.8875 -0.2335
  152ccc     H7 4655   1.860   5.368   2.115 -0.8054 -1.9342 -0.8549
  152ccc     H8 4656   1.706   5.456   2.162 -0.3110 -0.3344  2.5074
  152ccc     C5 4657   1.742   5.277   2.256 -0.3544 -0.0253 -0.0926
  152ccc     H9 4658   1.823   5.213   2.292 -0.9845 -0.7352  0.0795
  152ccc    H10 4659   1.680   5.309   2.341  1.2092  2.4821  0.2083
  152ccc     C6 4660   1.645   5.208   2.155 -0.5554 -0.3982  0.7460
  152ccc     O1 4661   1.547   5.263   2.112  0.0963 -0.0792  0.5382
  152ccc     O2 4662   1.705   5.106   2.089 -0.4497 -0.1625 -0.0621
  152ccc    H11 4663   1.796   5.091   2.120  0.0765  0.6826 -1.1378
  152ccc     C7 4664   1.923   5.616   2.201 -0.2945 -0.3806  0.9946
  152ccc    H12 4665   2.004   5.576   2.138 -0.3687  1.4570 -0.3532
  152ccc    H13 4666   1.847   5.643   2.128  1.4816  0.3402 -0.6954
  152ccc     C8 4667   1.977   5.747   2.261  0.4569  0.3648 -0.3418
  152ccc    H14 4668   1.898   5.799   2.318 -1.3994 -2.6938  0.1150
  152ccc    H15 4669   2.057   5.726   2.333 -0.9804 -1.9297  0.6959
  152ccc     C9 4670   2.026   5.835   2.142  0.1913  0.2394 -0.0781
  152ccc     O3 4671   2.015   5.814   2.020  0.5156 -0.5211  0.0902
  152ccc     O4 4672   2.062   5.959   2.187  0.5321 -0.3112  0.7077
  152ccc    H16 4673   2.049   5.962   2.284 -2.3071  1.3838  0.3848
  152ccc     O5 4674   1.503   5.521   2.498 -0.6448  0.1816  0.1745
  152ccc    H17 4675   1.950   5.469   2.327 -0.1293  1.9138  2.0408
  153ccc     C1 4676   0.468   5.085   2.851  0.5293 -0.2824  0.4656
  153ccc     H1 4677   0.374   5.126   2.889  0.6988 -0.4846  1.1248
  153ccc     H2 4678   0.555   5.115   2.911  1.4260 -2.1494  0.1771
  153ccc     C2 4679   0.482   5.142   2.709 -0.8231 -0.0263 -0.4101
  153ccc     H3 4680   0.578   5.119   2.661  0.2003  1.3293  0.8719
  153ccc     H4 4681   0.473   5.251   2.717  1.5190  0.1544  0.6098
  153ccc     C3 4682   0.356   5.107   2.630 -0.0603 -0.5266 -0.1682
  153ccc     H5 4683   0.266   5.139   2.683  0.1388  3.8529 -2.0663
  153ccc     H6 4684   0.355   4.998   2.616  0.2179 -0.4392 -0.9336
  153ccc     N1 4685   0.341   5.174   2.493  0.9371 -0.3226  0.1833
  153ccc     C4 4686   0.445   5.121   2.408 -0.5353 -0.0608 -0.3677
  153ccc     H7 4687   0.417   5.017   2.394 -2.3462  0.3888 -0.2854
  153ccc     H8 4688   0.538   5.117   2.465 -0.5827 -2.5680 -0.3466
  153ccc     C5 4689   0.469   5.191   2.279  0.0470 -0.8321  0.9316
  153ccc     H9 4690   0.377   5.228   2.232  0.0688 -0.4713  1.1697
  153ccc    H10 4691   0.538   5.274   2.300 -0.7288  0.4229 -1.1252
  153ccc     C6 4692   0.553   5.107   2.186  0.0938  0.4651  0.9399
  153ccc     O1 4693   0.642   5.034   2.221  0.4924  0.4131  0.5514
  153ccc     O2 4694   0.523   5.120   2.053  0.1926 -0.2814  0.4611
  153ccc    H11 4695   0.474   5.203   2.043  0.5045 -0.1811 -0.3640
  153ccc     C7 4696   0.204   5.145   2.427  0.2238  0.6169  0.5716
  153ccc    H12 4697   0.208   5.160   2.319 -0.4140 -2.1360  0.0753
  153ccc    H13 4698   0.187   5.037   2.428 -3.6377  1.0722 -0.0995
  153ccc     C8 4699   0.088   5.224   2.482  0.4130  0.0493 -0.1767
  153ccc    H14 4700   0.055   5.181   2.577  1.0132  2.2803  1.1170
  153ccc    H15 4701   0.118   5.328   2.496 -1.3772  0.8782 -2.0468
  153ccc     C9 4702  -0.034   5.217   2.382  0.5798 -0.5644 -0.1326
  153ccc     O3 4703  -0.022   5.161   2.271  0.3399 -0.0874 -0.4427
  153ccc     O4 4704  -0.137   5.302   2.419  0.2383  0.1670  0.6423
  153ccc    H16 4705  -0.111   5.332   2.508 -0.4426  0.1667  0.8465
  153ccc     O5 4706   0.464   4.945   2.848 -0.3248 -0.2217 -0.1453
  153ccc    H17 4707   0.348   5.277   2.496 -0.5901 -0.1948  0.1225
  154ccc     C1 4708   1.028   4.415   3.221 -0.2477  0.6415  0.2036
  154ccc     H1 4709   1.064   4.320   3.179  1.4087  1.8417 -1.2433
  154ccc     H2 4710   1.118   4.478   3.221 -0.6696  1.4903  3.9637
  154ccc     C2 4711   0.985   4.398   3.372  0.1416  0.1355 -0.5006
  154ccc     H3 4712   0.938   4.491   3.406  1.1995  0.4778  0.0691
  154ccc     H4 4713   1.066   4.372   3.440  0.6410  2.4433 -0.1116
  154ccc     C3 4714   0.874   4.289   3.393 -0.5372  0.3869  0.9245
  154ccc     H5 4715   0.910   4.191   3.363 -4.0316 -0.2348 -1.8859
  154ccc     H6 4716   0.808   4.315   3.309  0.9114  1.8564  0.1690
  154ccc     N1 4717   0.789   4.280   3.521  0.4840 -0.2025  0.7463
  154ccc     C4 4718   0.713   4.406   3.545 -0.1223  0.3533  0.3559
  154ccc     H7 4719   0.789   4.480   3.569  0.0162  0.0596  0.8445
  154ccc     H8 4720   0.650   4.394   3.634  0.1490  2.5901  0.9101
  154ccc     C5 4721   0.636   4.472   3.429  0.8198 -0.2547 -0.2161
  154ccc     H9 4722   0.694   4.490   3.337 -0.3882  0.7100 -0.8265
  154ccc    H10 4723   0.559   4.395   3.417  0.5520 -0.1779  0.9074
  154ccc     C6 4724   0.564   4.601   3.471 -0.7192 -0.2535 -0.2202
  154ccc     O1 4725   0.585   4.654   3.580  0.2339  0.0417 -0.3600
  154ccc     O2 4726   0.484   4.655   3.377  0.2944  0.0751 -0.2864
  154ccc    H11 4727   0.481   4.580   3.315  0.2683 -0.7742  0.7000
  154ccc     C7 4728   0.681   4.171   3.523  0.2722 -0.8190 -0.0377
  154ccc    H12 4729   0.611   4.191   3.604 -1.2663 -0.2309 -1.4317
  154ccc    H13 4730   0.624   4.172   3.429  0.3948  3.2997 -0.2783
  154ccc     C8 4731   0.734   4.033   3.542 -0.2234  1.0892  0.5412
  154ccc    H14 4732   0.835   4.016   3.501  0.2001  3.1624  0.5974
  154ccc    H15 4733   0.738   4.012   3.649 -1.2227  0.1883  0.4123
  154ccc     C9 4734   0.647   3.915   3.487 -0.3957 -0.0695  0.1662
  154ccc     O3 4735   0.607   3.913   3.371 -0.5218 -0.0232 -0.2066
  154ccc     O4 4736   0.623   3.817   3.579  0.3693  0.7874  0.4058
  154ccc    H16 4737   0.562   3.766   3.523  2.0491 -0.1163 -0.6910
  154ccc     O5 4738   0.928   4.480   3.144  0.1891 -0.3455  0.5177
  154ccc    H17 4739   0.846   4.265   3.607  0.2625  1.4364  1.2086
  155ccc     C1 4740   1.591   3.161   0.926  0.2063  0.6262 -0.3522
  155ccc     H1 4741   1.516   3.094   0.972  1.1995  1.3441  2.5315
  155ccc     H2 4742   1.539   3.249   0.889  1.2153  1.1673 -0.5120
  155ccc     C2 4743   1.658   3.108   0.796  0.2126  0.6720 -0.1975
  155ccc     H3 4744   1.733   3.175   0.754 -0.8429  3.3012  1.8445
  155ccc     H4 4745   1.586   3.098   0.713  0.3491  1.4268 -0.4057
  155ccc     C3 4746   1.723   2.966   0.801  0.6272  0.2735 -0.1189
  155ccc     H5 4747   1.735   2.926   0.700  1.4695  0.0076  0.0799
  155ccc     H6 4748   1.661   2.887   0.845  0.7502  1.3738  2.1824
  155ccc     N1 4749   1.853   2.949   0.883 -0.3028 -0.0069 -0.0677
  155ccc     C4 4750   1.810   2.923   1.031 -0.2123  0.0265  0.5575
  155ccc     H7 4751   1.785   2.817   1.033 -0.4271  0.0843  0.9373
  155ccc     H8 4752   1.719   2.980   1.047 -1.4614 -2.0135  1.0653
  155ccc     C5 4753   1.916   2.963   1.132  0.1889  0.1684  0.6313
  155ccc     H9 4754   2.012   2.911   1.116  0.3869  0.8549 -0.5025
  155ccc    H10 4755   1.945   3.068   1.122  4.0185 -0.7767 -0.0181
  155ccc     C6 4756   1.867   2.938   1.274  0.5969 -0.5234  0.4225
  155ccc     O1 4757   1.785   3.010   1.324  0.7754 -0.3716 -0.3665
  155ccc     O2 4758   1.898   2.823   1.339  0.2372  0.3175  0.3703
  155ccc    H11 4759   1.958   2.767   1.287 -0.1363  0.1040  0.1614
  155ccc     C7 4760   1.914   2.819   0.847  0.0065  0.5013 -0.0693
  155ccc    H12 4761   1.984   2.791   0.925 -1.8743 -1.8527  0.8948
  155ccc    H13 4762   1.833   2.746   0.847 -0.6872  1.2562 -0.1747
  155ccc     C8 4763   1.996   2.822   0.722  0.5047  0.2139  0.2180
  155ccc    H14 4764   1.939   2.859   0.636 -0.6457  0.4183  1.0457
  155ccc    H15 4765   2.078   2.891   0.746  1.9846 -2.0723  2.1699
  155ccc     C9 4766   2.051   2.686   0.688  0.4291  0.3385 -0.4032
  155ccc     O3 4767   1.987   2.597   0.640 -0.3599  0.4973  0.2961
  155ccc     O4 4768   2.160   2.662   0.755  0.5226 -0.4536 -0.5032
  155ccc    H16 4769   2.172   2.569   0.726 -0.5441 -0.5573 -0.6710
  155ccc     O5 4770   1.699   3.195   1.010  0.1364  0.0424  0.3356
  155ccc    H17 4771   1.912   3.031   0.862 -0.2239 -0.5512 -2.0739
  156ccc     C1 4772   1.430   3.499   0.886 -0.0234  0.2360 -0.8039
  156ccc     H1 4773   1.413   3.414   0.817  1.2258 -2.5249  2.0353
  156ccc     H2 4774   1.385   3.471   0.982 -1.1412  2.4620 -0.6047
  156ccc     C2 4775   1.359   3.624   0.837  0.4566 -0.2592  0.3467
  156ccc     H3 4776   1.405   3.654   0.742  1.6440  2.5419  1.6683
  156ccc     H4 4777   1.369   3.699   0.916 -1.1115  1.0598 -0.6387
  156ccc     C3 4778   1.208   3.590   0.817 -0.2807 -0.2459  0.3878
  156ccc     H5 4779   1.163   3.565   0.913  2.2166 -2.2811  1.1331
  156ccc     H6 4780   1.193   3.521   0.734 -0.0389  0.9919 -0.7303
  156ccc     N1 4781   1.131   3.711   0.769 -0.6484 -0.3355 -0.1337
  156ccc     C4 4782   1.106   3.711   0.620  0.5908 -0.2535 -0.0771
  156ccc     H7 4783   1.051   3.800   0.589 -1.5572 -1.2873  0.5184
  156ccc     H8 4784   1.044   3.622   0.609  1.5644 -1.1773  1.5211
  156ccc     C5 4785   1.240   3.695   0.538  0.5159  0.0497  0.0594
  156ccc     H9 4786   1.316   3.762   0.580  1.8466 -1.5519  0.3267
  156ccc    H10 4787   1.273   3.591   0.550  2.1017  0.6677  1.5123
  156ccc     C6 4788   1.217   3.717   0.388 -0.0095  0.0034 -0.4993
  156ccc     O1 4789   1.121   3.778   0.348  0.0001 -0.8701  0.1382
  156ccc     O2 4790   1.321   3.682   0.313 -0.6094  0.2824  0.2906
  156ccc    H11 4791   1.379   3.625   0.367 -0.6870  2.0584  2.3978
  156ccc     C7 4792   0.995   3.737   0.830 -0.9851 -0.3694  0.4521
  156ccc    H12 4793   0.950   3.821   0.778  2.0408  0.1121 -1.6887
  156ccc    H13 4794   0.935   3.647   0.814  1.3846 -1.6397 -2.3133
  156ccc     C8 4795   1.009   3.789   0.971 -0.7378  0.4825  0.1595
  156ccc    H14 4796   1.073   3.710   1.013 -1.0489 -0.9384 -1.8565
  156ccc    H15 4797   1.066   3.882   0.980  0.7574 -0.4890  1.3726
  156ccc     C9 4798   0.872   3.803   1.040 -0.3958 -1.0918  0.7009
  156ccc     O3 4799   0.782   3.725   1.024  0.1815 -0.2185 -0.2326
  156ccc     O4 4800   0.848   3.925   1.095 -0.0734 -0.0406 -0.5857
  156ccc    H16 4801   0.927   3.980   1.081 -0.5465  0.4045 -1.6267
  156ccc     O5 4802   1.564   3.533   0.910  0.2325  0.9587  0.6487
  156ccc    H17 4803   1.195   3.789   0.792  0.8223 -2.1876  2.4899
  157ccc     C1 4804   1.413   5.464   1.457 -0.8681  0.3567 -0.2082
  157ccc     H1 4805   1.372   5.504   1.364 -2.0126 -2.0337 -0.7936
  157ccc     H2 4806   1.336   5.451   1.534  2.1089 -1.7510  2.7313
  157ccc     C2 4807   1.512   5.561   1.516 -0.4341 -0.4368  0.1481
  157ccc     H3 4808   1.600   5.573   1.451  0.9520 -0.3695  1.9608
  157ccc     H4 4809   1.543   5.514   1.610  1.1334 -0.8315 -0.5280
  157ccc     C3 4810   1.447   5.701   1.545 -0.0949  0.2469  0.3432
  157ccc     H5 4811   1.395   5.694   1.640 -2.4674  0.2239 -0.9007
  157ccc     H6 4812   1.369   5.728   1.474 -0.4041  2.5033  1.4814
  157ccc     N1 4813   1.551   5.816   1.564 -0.1906 -0.1730  0.0767
  157ccc     C4 4814   1.654   5.779   1.677  0.9589  0.2696  0.3258
  157ccc     H7 4815   1.747   5.836   1.680 -0.3368  2.5589 -0.8938
  157ccc     H8 4816   1.675   5.675   1.648 -0.9661  0.1644 -0.9009
  157ccc     C5 4817   1.600   5.762   1.820  0.2597 -0.4930  0.7844
  157ccc     H9 4818   1.572   5.858   1.864  0.1960 -0.7746  1.3776
  157ccc    H10 4819   1.512   5.696   1.819  2.3542 -3.5240  0.2781
  157ccc     C6 4820   1.691   5.693   1.918  0.1871 -0.7620 -0.3029
  157ccc     O1 4821   1.792   5.642   1.884  0.3184  0.5922  0.3482
  157ccc     O2 4822   1.640   5.662   2.045 -0.1658 -0.7491 -0.2498
  157ccc    H11 4823   1.552   5.702   2.036  1.3233  2.5016 -1.7334
  157ccc     C7 4824   1.621   5.864   1.438  0.0557 -0.2915  0.1623
  157ccc    H12 4825   1.723   5.886   1.470  0.8881 -1.3790 -1.5561
  157ccc    H13 4826   1.631   5.780   1.369  0.7948  0.1612 -0.3010
  157ccc     C8 4827   1.554   5.984   1.374  0.7543  0.6368  0.6115
  157ccc    H14 4828   1.444   5.982   1.370  0.6053 -0.3827  3.2026
  157ccc    H15 4829   1.579   6.071   1.437  0.7157  0.7974  0.4051
  157ccc     C9 4830   1.614   6.014   1.239 -0.4542  0.4346  0.6399
  157ccc     O3 4831   1.719   5.964   1.205 -0.6773  0.8256  0.1217
  157ccc     O4 4832   1.546   6.096   1.155  0.0968  0.3113 -0.2986
  157ccc    H16 4833   1.464   6.123   1.200  0.2708 -0.8241  0.7656
  157ccc     O5 4834   1.481   5.340   1.438 -0.5309 -0.3645 -0.0933
  157ccc    H17 4835   1.497   5.898   1.594 -0.0943 -0.1810  0.2704
  158ccc     C1 4836   2.019   4.998   1.117 -1.3104 -0.6976  0.2953
  158ccc     H1 4837   2.105   4.954   1.169  0.8368  1.8406 -0.7916
  158ccc     H2 4838   2.037   4.994   1.009  2.3886 -1.7435  0.7981
  158ccc     C2 4839   2.032   5.145   1.147  0.1544 -0.1230 -0.5123
  158ccc     H3 4840   2.107   5.200   1.089  0.3107 -2.6207 -2.8841
  158ccc     H4 4841   2.058   5.144   1.254  1.3294 -0.4202 -0.7854
  158ccc     C3 4842   1.893   5.221   1.135 -0.1270  0.5316 -0.3366
  158ccc     H5 4843   1.827   5.171   1.206  0.8876  1.0491  1.0090
  158ccc     H6 4844   1.852   5.211   1.035  1.0992  2.1046 -1.0386
  158ccc     N1 4845   1.897   5.362   1.175 -0.4510 -0.4341 -0.0740
  158ccc     C4 4846   1.768   5.436   1.137  0.2275 -0.3118 -0.0748
  158ccc     H7 4847   1.687   5.412   1.206  0.0109  0.5102 -0.0267
  158ccc     H8 4848   1.740   5.401   1.037  0.4641  1.7773 -0.9342
  158ccc     C5 4849   1.785   5.586   1.128  0.3900 -0.7135 -0.2378
  158ccc     H9 4850   1.823   5.628   1.222  0.7652 -0.6181 -0.4310
  158ccc    H10 4851   1.853   5.598   1.042 -1.3916  1.1900 -1.4636
  158ccc     C6 4852   1.655   5.658   1.089 -0.9340  0.2082 -0.5199
  158ccc     O1 4853   1.547   5.634   1.146 -0.5885 -0.2512 -0.6871
  158ccc     O2 4854   1.668   5.761   1.001  0.2223  0.2384  0.2360
  158ccc    H11 4855   1.757   5.760   0.962  0.2792  1.8253  0.2747
  158ccc     C7 4856   1.942   5.388   1.323  0.4057 -0.3413 -0.2190
  158ccc    H12 4857   2.042   5.352   1.347 -0.5584 -2.5959  0.7956
  158ccc    H13 4858   1.942   5.496   1.338 -2.3336 -0.0229 -1.7537
  158ccc     C8 4859   1.846   5.326   1.436 -0.4952 -0.2100  0.6476
  158ccc    H14 4860   1.745   5.300   1.402 -0.4088 -1.4761  1.2853
  158ccc    H15 4861   1.888   5.227   1.460  0.7137 -0.2227 -1.2610
  158ccc     C9 4862   1.833   5.407   1.562 -0.3011 -0.1338 -0.0085
  158ccc     O3 4863   1.830   5.527   1.568  0.5286  0.2408  0.3016
  158ccc     O4 4864   1.819   5.337   1.671 -0.8233  0.7930  0.2004
  158ccc    H16 4865   1.794   5.245   1.653  2.2697 -0.5128  1.8439
  158ccc     O5 4866   1.896   4.941   1.168  0.1112 -0.1271 -0.2114
  158ccc    H17 4867   1.968   5.407   1.117  0.7826  0.0783  1.7460
  159ccc     C1 4868   3.167   2.766  -1.794 -0.6905  0.3294  0.1978
  159ccc     H1 4869   3.167   2.828  -1.885 -0.8896  0.8427  0.5424
  159ccc     H2 4870   3.274   2.758  -1.769  0.0849  0.0579 -2.8223
  159ccc     C2 4871   3.104   2.630  -1.815  0.3579 -0.0906 -0.1834
  159ccc     H3 4872   3.139   2.578  -1.904 -1.7119 -1.0727 -0.4923
  159ccc     H4 4873   2.995   2.639  -1.823  0.2177 -2.6793 -2.5310
  159ccc     C3 4874   3.134   2.531  -1.697  0.3327 -0.1367 -0.4737
  159ccc     H5 4875   3.110   2.580  -1.603 -0.2053  1.3339 -1.3479
  159ccc     H6 4876   3.241   2.508  -1.692  0.9302  2.5890  2.6242
  159ccc     N1 4877   3.045   2.403  -1.709 -0.4587  0.1044  0.1584
  159ccc     C4 4878   3.087   2.289  -1.619 -0.5048 -0.3207  0.1613
  159ccc     H7 4879   3.024   2.292  -1.530 -1.5844 -1.4886 -0.5296
  159ccc     H8 4880   3.193   2.306  -1.598 -1.2570  3.6088  1.4850
  159ccc     C5 4881   3.068   2.149  -1.676 -0.6152  0.2661  0.1320
  159ccc     H9 4882   2.975   2.139  -1.733  0.8054  0.6891 -2.4602
  159ccc    H10 4883   3.150   2.134  -1.748 -1.4509 -0.1920 -0.7463
  159ccc     C6 4884   3.091   2.041  -1.573  0.1232  0.4965  1.0412
  159ccc     O1 4885   3.153   2.055  -1.471 -0.9774  0.0441 -0.0299
  159ccc     O2 4886   3.078   1.919  -1.620 -0.0262  0.6000 -0.1078
  159ccc    H11 4887   3.129   1.875  -1.550 -0.2882 -0.4114 -0.5371
  159ccc     C7 4888   2.903   2.434  -1.670 -0.3525 -0.5100  0.5281
  159ccc    H12 4889   2.851   2.478  -1.755  1.7710  1.1226 -0.0068
  159ccc    H13 4890   2.851   2.338  -1.662  1.6124 -1.6039  0.9332
  159ccc     C8 4891   2.887   2.519  -1.542  0.1186 -1.0613  0.0394
  159ccc    H14 4892   2.952   2.486  -1.459 -0.7388 -2.7033  0.1057
  159ccc    H15 4893   2.916   2.621  -1.569 -3.6860  0.0917 -0.3222
  159ccc     C9 4894   2.745   2.542  -1.490 -0.0294 -0.1725 -0.6398
  159ccc     O3 4895   2.641   2.497  -1.538 -0.1958  0.9457 -0.4414
  159ccc     O4 4896   2.735   2.636  -1.393  0.0598  0.1953 -0.4090
  159ccc    H16 4897   2.823   2.671  -1.372  0.8981 -1.8402 -0.2143
  159ccc     O5 4898   3.093   2.827  -1.693  0.6884  0.2806  0.4398
  159ccc    H17 4899   3.046   2.369  -1.806  0.7924 -1.8783  0.8036
  160ccc     C1 4900   2.488   3.524  -1.877 -0.1219  0.3791 -0.5548
  160ccc     H1 4901   2.502   3.610  -1.811 -1.5823 -0.4523  0.9197
  160ccc     H2 4902   2.558   3.522  -1.961  0.9471 -0.9200  0.3063
  160ccc     C2 4903   2.343   3.534  -1.935 -0.5188 -0.1984  0.4787
  160ccc     H3 4904   2.339   3.637  -1.972 -0.4605 -0.2605  0.2986
  160ccc     H4 4905   2.268   3.512  -1.858 -0.8220 -0.4313  0.1206
  160ccc     C3 4906   2.327   3.442  -2.054 -0.3445  0.0069  0.1155
  160ccc     H5 4907   2.332   3.336  -2.030  0.0302 -0.3173 -1.2748
  160ccc     H6 4908   2.410   3.462  -2.121  1.7645 -1.1938  2.2130
  160ccc     N1 4909   2.200   3.466  -2.143  0.2840  0.5114 -0.9128
  160ccc     C4 4910   2.077   3.405  -2.079  0.1335 -0.3081  0.2479
  160ccc     H7 4911   1.989   3.451  -2.125  0.3928  0.2352  0.2914
  160ccc     H8 4912   2.068   3.442  -1.977 -2.6000  0.7802 -0.2807
  160ccc     C5 4913   2.078   3.252  -2.095  0.3022 -0.1250  0.5657
  160ccc     H9 4914   2.083   3.218  -2.199 -0.0493  3.0623 -0.6100
  160ccc    H10 4915   2.158   3.199  -2.042 -1.0959 -2.0623  0.8399
  160ccc     C6 4916   1.948   3.198  -2.038 -0.2663  0.4999  0.5153
  160ccc     O1 4917   1.897   3.243  -1.935  0.4340 -0.0097  0.5178
  160ccc     O2 4918   1.864   3.137  -2.123  0.1214  0.7886 -0.0171
  160ccc    H11 4919   1.914   3.112  -2.202 -1.2461 -0.6255 -0.4784
  160ccc     C7 4920   2.180   3.617  -2.175  0.2964 -0.1864 -0.2693
  160ccc    H12 4921   2.157   3.670  -2.082 -1.8641 -0.2448 -0.7052
  160ccc    H13 4922   2.272   3.653  -2.221  0.8892  2.9925  2.9773
  160ccc     C8 4923   2.064   3.646  -2.268  0.2881 -0.3093  0.2432
  160ccc    H14 4924   2.070   3.584  -2.358  0.2326 -0.5029  0.3736
  160ccc    H15 4925   1.968   3.627  -2.218 -0.0024 -0.0842 -0.2188
  160ccc     C9 4926   2.069   3.784  -2.320 -0.2189  0.1675 -0.5489
  160ccc     O3 4927   2.066   3.814  -2.440 -0.4092  0.5363 -0.2306
  160ccc     O4 4928   2.026   3.879  -2.242 -0.3217 -0.2462 -0.4973
  160ccc    H16 4929   2.032   3.952  -2.306  1.1937 -0.2158 -0.3386
  160ccc     O5 4930   2.493   3.401  -1.805 -0.3407  0.0804  0.4731
  160ccc    H17 4931   2.209   3.425  -2.237 -0.4777 -0.0228 -0.7572
  161ccc     C1 4932   2.738   1.939  -0.165 -0.0184  0.1643 -1.1783
  161ccc     H1 4933   2.816   1.878  -0.118  0.5387  0.5240 -1.6278
  161ccc     H2 4934   2.644   1.912  -0.114  1.4699  0.3028  1.8290
  161ccc     C2 4935   2.738   1.909  -0.318  0.8311 -0.3385 -0.0570
  161ccc     H3 4936   2.708   1.805  -0.336 -0.5075 -0.2160  1.2867
  161ccc     H4 4937   2.841   1.909  -0.354  0.8612  1.8079 -0.0662
  161ccc     C3 4938   2.656   2.004  -0.402  0.2691 -0.0507  0.1775
  161ccc     H5 4939   2.707   2.100  -0.395  2.0880 -0.8210 -1.3613
  161ccc     H6 4940   2.550   2.008  -0.377  0.1558  0.3859 -0.3517
  161ccc     N1 4941   2.664   1.969  -0.553  0.0196  0.1763  0.0911
  161ccc     C4 4942   2.580   1.854  -0.583  0.4407  0.0692 -0.4083
  161ccc     H7 4943   2.482   1.887  -0.545 -0.0779 -0.6220 -1.1132
  161ccc     H8 4944   2.597   1.764  -0.524  2.0152 -1.2998 -2.8051
  161ccc     C5 4945   2.579   1.805  -0.729  0.0412 -0.2222 -0.2845
  161ccc     H9 4946   2.533   1.880  -0.795 -0.3434  0.0747  0.3077
  161ccc    H10 4947   2.682   1.789  -0.762 -0.6847 -2.0567 -1.8249
  161ccc     C6 4948   2.517   1.670  -0.744 -0.6067 -0.2248 -0.4616
  161ccc     O1 4949   2.587   1.573  -0.753  0.5252  0.3014  1.1411
  161ccc     O2 4950   2.385   1.650  -0.754  0.0857  0.3459  0.3222
  161ccc    H11 4951   2.353   1.742  -0.748 -1.7873 -0.3169  1.1501
  161ccc     C7 4952   2.629   2.090  -0.642  0.2780 -0.3290 -0.0330
  161ccc    H12 4953   2.714   2.157  -0.631  0.2094 -0.3976  0.9914
  161ccc    H13 4954   2.626   2.055  -0.745  0.9815  0.5282 -0.3508
  161ccc     C8 4955   2.495   2.150  -0.616  0.2099 -0.1973  0.1119
  161ccc    H14 4956   2.412   2.081  -0.635  0.5267 -1.7636  3.6109
  161ccc    H15 4957   2.481   2.190  -0.515 -1.7169 -0.2461 -0.0808
  161ccc     C9 4958   2.473   2.278  -0.696 -0.4009 -1.0240  0.2474
  161ccc     O3 4959   2.540   2.309  -0.792  0.1027  0.6965  0.1008
  161ccc     O4 4960   2.359   2.353  -0.661  0.0274 -0.5084 -0.1208
  161ccc    H16 4961   2.321   2.313  -0.580 -2.7674 -1.3415 -1.7033
  161ccc     O5 4962   2.766   2.075  -0.143  0.0418  0.3907 -0.4621
  161ccc    H17 4963   2.758   1.943  -0.585 -0.6591 -1.1772 -0.9017
  162ccc     C1 4964   3.521   2.616  -0.011  0.0610  0.6326 -0.4303
  162ccc     H1 4965   3.482   2.717   0.003 -1.3088 -0.1603  2.3449
  162ccc     H2 4966   3.529   2.579   0.092 -0.8827 -1.1612 -0.9608
  162ccc     C2 4967   3.657   2.623  -0.086 -0.2239 -0.0148 -0.3589
  162ccc     H3 4968   3.725   2.662  -0.009 -1.1614  0.9707 -0.0145
  162ccc     H4 4969   3.655   2.700  -0.165 -2.0482  1.0200  0.6300
  162ccc     C3 4970   3.711   2.484  -0.135 -0.0490 -0.4436  0.6973
  162ccc     H5 4971   3.676   2.464  -0.236 -0.1828 -1.0433  0.8633
  162ccc     H6 4972   3.667   2.401  -0.081 -1.5435  0.5932  1.1277
  162ccc     N1 4973   3.861   2.464  -0.126  0.1342  0.1189 -0.1937
  162ccc     C4 4974   3.900   2.324  -0.156 -0.1201  0.7278 -0.3472
  162ccc     H7 4975   4.009   2.319  -0.151  0.0146  1.7423 -1.8177
  162ccc     H8 4976   3.868   2.303  -0.258  2.9404  0.2999 -1.3255
  162ccc     C5 4977   3.855   2.214  -0.058 -0.4903  0.3284  0.4717
  162ccc     H9 4978   3.885   2.244   0.043 -0.0857  0.7981  0.2146
  162ccc    H10 4979   3.745   2.221  -0.068 -0.8185 -3.6875 -0.2455
  162ccc     C6 4980   3.892   2.072  -0.103  0.2116 -0.1104 -0.0737
  162ccc     O1 4981   3.937   2.047  -0.216  0.4334  0.1799 -0.0072
  162ccc     O2 4982   3.821   1.978  -0.033 -0.2639 -0.8219  0.5747
  162ccc    H11 4983   3.857   1.894  -0.066  0.0512 -1.7934  3.2050
  162ccc     C7 4984   3.921   2.564  -0.223  0.1931  0.2463  0.3909
  162ccc    H12 4985   3.893   2.525  -0.321 -1.6606 -0.3932  1.1252
  162ccc    H13 4986   3.876   2.662  -0.207 -1.1555  0.0770 -1.8762
  162ccc     C8 4987   4.072   2.580  -0.207 -0.3671 -0.2692  0.1162
  162ccc    H14 4988   4.094   2.604  -0.103 -0.1390  0.8465 -0.1814
  162ccc    H15 4989   4.123   2.485  -0.231 -0.7310 -0.5695  0.5177
  162ccc     C9 4990   4.111   2.692  -0.305 -0.9274 -0.2172 -0.3586
  162ccc     O3 4991   4.035   2.720  -0.398 -0.1051 -0.2758  0.5443
  162ccc     O4 4992   4.249   2.702  -0.320  0.4551 -0.7747 -0.5846
  162ccc    H16 4993   4.295   2.667  -0.242 -0.7139  0.0891  0.5351
  162ccc     O5 4994   3.432   2.531  -0.083  0.8140  0.1879 -0.2370
  162ccc    H17 4995   3.891   2.483  -0.029 -1.2552 -1.7057  0.6613
  163ccc     C1 4996   1.135   3.240  -1.933  0.1866  0.1784  0.5550
  163ccc     H1 4997   1.039   3.208  -1.890  0.5730 -0.4356  0.9826
  163ccc     H2 4998   1.123   3.343  -1.969  1.9671  0.3728  0.4176
  163ccc     C2 4999   1.174   3.157  -2.057  0.0807 -0.2717 -0.2059
  163ccc     H3 5000   1.194   3.051  -2.034 -0.9958 -0.1982  1.1973
  163ccc     H4 5001   1.270   3.198  -2.092  1.6895 -3.1057  0.5054
  163ccc     C3 5002   1.068   3.161  -2.165  0.5034 -0.5421  1.0411
  163ccc     H5 5003   1.049   3.265  -2.191 -3.0358 -1.2841 -0.0018
  163ccc     H6 5004   0.973   3.113  -2.138 -1.7664  1.5587 -2.3953
  163ccc     N1 5005   1.100   3.093  -2.300 -0.4654  0.5809  0.2966
  163ccc     C4 5006   1.124   2.947  -2.280 -0.3886  0.4599  0.2739
  163ccc     H7 5007   1.025   2.900  -2.282 -0.4656  0.6549 -0.9267
  163ccc     H8 5008   1.155   2.930  -2.176 -0.8153  0.5857  0.4245
  163ccc     C5 5009   1.233   2.880  -2.375  0.3403  0.8239 -0.4138
  163ccc     H9 5010   1.196   2.880  -2.478 -1.4954 -2.7940  0.0676
  163ccc    H10 5011   1.326   2.936  -2.359 -0.6395  1.9465  1.8900
  163ccc     C6 5012   1.260   2.733  -2.334 -0.3974  0.6302  0.3512
  163ccc     O1 5013   1.186   2.663  -2.280 -0.0939  0.3728 -0.1254
  163ccc     O2 5014   1.377   2.690  -2.382  0.1506  0.3984 -0.2844
  163ccc    H11 5015   1.372   2.594  -2.372  1.7468  0.2191 -0.9873
  163ccc     C7 5016   0.975   3.108  -2.381  0.5956  0.5761  0.0012
  163ccc    H12 5017   0.987   3.043  -2.468 -0.1772  0.3741  0.0384
  163ccc    H13 5018   0.890   3.076  -2.321  1.5788  0.6398  1.5079
  163ccc     C8 5019   0.950   3.253  -2.426  0.4195 -0.1825  0.4167
  163ccc    H14 5020   0.965   3.332  -2.351 -0.7677 -0.0087  0.4992
  163ccc    H15 5021   1.017   3.278  -2.509 -1.7314  1.2148 -1.0222
  163ccc     C9 5022   0.811   3.280  -2.480 -0.0247 -0.5215 -0.6875
  163ccc     O3 5023   0.728   3.198  -2.498  0.1546 -0.2870 -0.0818
  163ccc     O4 5024   0.792   3.404  -2.513 -0.2020 -0.3370 -0.1554
  163ccc    H16 5025   0.863   3.465  -2.486 -2.0289  1.3810  1.0947
  163ccc     O5 5026   1.237   3.219  -1.823 -0.8250  0.2356  0.4547
  163ccc    H17 5027   1.185   3.136  -2.339 -0.2737  0.4334  0.5497
  164ccc     C1 5028   1.667   2.642  -1.504  0.5898 -0.3756  0.1061
  164ccc     H1 5029   1.762   2.631  -1.450  1.2697 -0.5738 -1.0846
  164ccc     H2 5030   1.590   2.579  -1.460  1.2377 -1.0721  0.2558
  164ccc     C2 5031   1.696   2.601  -1.650  0.3534  0.0755 -0.6948
  164ccc     H3 5032   1.600   2.570  -1.694  0.0499 -2.6589  1.6041
  164ccc     H4 5033   1.759   2.512  -1.645  1.0948  0.5978 -0.5218
  164ccc     C3 5034   1.781   2.711  -1.716 -0.3544  0.2616  0.6656
  164ccc     H5 5035   1.880   2.698  -1.673  0.4963 -0.3030 -1.3829
  164ccc     H6 5036   1.750   2.813  -1.694 -0.6280  0.2116  0.5164
  164ccc     N1 5037   1.820   2.682  -1.860 -0.4292 -0.0227  0.1336
  164ccc     C4 5038   1.693   2.662  -1.942  0.1144 -0.4297  0.6393
  164ccc     H7 5039   1.641   2.574  -1.904 -1.7182  0.5633  0.5880
  164ccc     H8 5040   1.715   2.633  -2.045  2.3886  1.1309  0.6185
  164ccc     C5 5041   1.596   2.784  -1.965  0.6239  0.0031 -0.1640
  164ccc     H9 5042   1.561   2.807  -1.864 -0.7200 -1.7514 -0.1975
  164ccc    H10 5043   1.646   2.869  -2.014 -0.2214 -1.1443 -3.2135
  164ccc     C6 5044   1.470   2.740  -2.043  0.5248  0.2744  0.1246
  164ccc     O1 5045   1.448   2.635  -2.102 -0.7217  0.0373 -0.5247
  164ccc     O2 5046   1.378   2.834  -2.039 -0.4168 -0.1632 -0.1095
  164ccc    H11 5047   1.420   2.913  -2.001  2.0035 -1.6463  0.5041
  164ccc     C7 5048   1.898   2.791  -1.920 -0.3192  0.2321  0.3528
  164ccc    H12 5049   1.834   2.875  -1.947 -0.2326 -0.0392 -0.7525
  164ccc    H13 5050   1.967   2.833  -1.847  1.1834 -2.0166  0.3187
  164ccc     C8 5051   1.981   2.748  -2.049  0.4177  0.2565  0.1234
  164ccc    H14 5052   2.017   2.646  -2.033  1.0665  0.6828  1.4747
  164ccc    H15 5053   1.923   2.736  -2.142  3.1400 -1.8136 -1.4380
  164ccc     C9 5054   2.097   2.842  -2.079  0.4556 -0.1621  0.2102
  164ccc     O3 5055   2.078   2.950  -2.137 -0.3303  0.0082 -0.2582
  164ccc     O4 5056   2.187   2.818  -1.991 -0.1009 -0.5009  0.8995
  164ccc    H16 5057   2.147   2.750  -1.934 -3.1961  0.5716  0.2537
  164ccc     O5 5058   1.622   2.783  -1.512 -0.1904  0.3708 -0.6888
  164ccc    H17 5059   1.877   2.597  -1.849  0.5868  0.7781  1.4030
  165ccc     C1 5060   3.087   3.248  -0.989  0.2676 -0.1489  0.5981
  165ccc     H1 5061   3.097   3.271  -0.882  0.0579  0.1330  0.5572
  165ccc     H2 5062   3.144   3.155  -1.003  0.6959  0.2572 -0.4480
  165ccc     C2 5063   3.150   3.359  -1.073 -0.0523  0.3274 -0.2952
  165ccc     H3 5064   3.100   3.452  -1.044 -1.8022 -1.3448  2.5413
  165ccc     H4 5065   3.134   3.339  -1.179  1.2745  0.4063 -0.5252
  165ccc     C3 5066   3.298   3.376  -1.041 -0.4910 -0.0799  0.6722
  165ccc     H5 5067   3.347   3.279  -1.051  0.7785  0.6519 -0.7196
  165ccc     H6 5068   3.303   3.412  -0.939  0.1778 -0.5108  0.7989
  165ccc     N1 5069   3.365   3.474  -1.129 -0.3284 -0.1713  0.1550
  165ccc     C4 5070   3.328   3.616  -1.100  0.8544  0.5199  0.1961
  165ccc     H7 5071   3.342   3.632  -0.993  0.7256  1.7828  0.0426
  165ccc     H8 5072   3.221   3.626  -1.115  1.1350 -0.0739 -3.2330
  165ccc     C5 5073   3.393   3.724  -1.181 -0.2392  0.7825 -0.8019
  165ccc     H9 5074   3.499   3.712  -1.158 -0.5375 -1.2374 -0.2281
  165ccc    H10 5075   3.375   3.723  -1.290 -0.8092 -0.9431 -0.7200
  165ccc     C6 5076   3.351   3.858  -1.127 -0.6176 -0.1927 -0.3688
  165ccc     O1 5077   3.261   3.877  -1.048  0.1781  0.2743 -0.8665
  165ccc     O2 5078   3.422   3.967  -1.166  0.2250  0.0435 -0.3711
  165ccc    H11 5079   3.471   3.931  -1.242 -0.1321  0.7323 -0.9341
  165ccc     C7 5080   3.511   3.442  -1.136  0.0540  0.6901 -0.0059
  165ccc    H12 5081   3.519   3.335  -1.155  2.7348  0.8631 -0.1371
  165ccc    H13 5082   3.549   3.497  -1.222 -1.1240 -0.3020 -1.2073
  165ccc     C8 5083   3.606   3.469  -1.020  0.2896 -0.4648 -0.4677
  165ccc    H14 5084   3.612   3.577  -1.001 -3.0417 -0.0209 -1.2479
  165ccc    H15 5085   3.556   3.440  -0.926  0.2579  3.0840  0.7489
  165ccc     C9 5086   3.744   3.401  -1.040 -0.5421 -0.3105 -0.3506
  165ccc     O3 5087   3.771   3.287  -1.016  0.1235  0.6590  0.5814
  165ccc     O4 5088   3.842   3.496  -1.030 -0.1175  0.1556  0.1752
  165ccc    H16 5089   3.916   3.434  -1.023  1.0430  1.5149  0.2153
  165ccc     O5 5090   2.948   3.245  -1.035 -0.0572  0.8172 -0.1823
  165ccc    H17 5091   3.322   3.455  -1.221  0.9751  0.4612 -0.6056
  166ccc     C1 5092   2.560   3.711  -0.418  0.2998 -0.3759  0.1779
  166ccc     H1 5093   2.502   3.787  -0.470  0.0597 -0.3539  0.4769
  166ccc     H2 5094   2.503   3.699  -0.325 -0.6203  2.0603 -0.0052
  166ccc     C2 5095   2.703   3.759  -0.375 -0.3074 -0.0343  0.3336
  166ccc     H3 5096   2.750   3.672  -0.327  0.5355  0.5389  0.5713
  166ccc     H4 5097   2.691   3.835  -0.297  0.0196  2.5779 -1.9885
  166ccc     C3 5098   2.778   3.819  -0.494 -0.2318 -0.0820 -0.5314
  166ccc     H5 5099   2.732   3.914  -0.524 -0.9592 -0.3153 -0.1915
  166ccc     H6 5100   2.760   3.755  -0.581  0.3089  1.9284 -2.2148
  166ccc     N1 5101   2.930   3.841  -0.480  0.1581 -0.1460  0.3403
  166ccc     C4 5102   3.001   3.801  -0.613  0.3091  0.0626 -0.5730
  166ccc     H7 5103   3.094   3.857  -0.625 -0.2958  1.1497 -0.3376
  166ccc     H8 5104   2.937   3.840  -0.692 -0.0010  0.4319 -0.1489
  166ccc     C5 5105   3.015   3.646  -0.638  0.0060  0.0118 -0.1387
  166ccc     H9 5106   3.044   3.597  -0.544  1.1226 -0.3266 -0.6395
  166ccc    H10 5107   2.920   3.603  -0.672 -0.1930  1.1683 -1.1190
  166ccc     C6 5108   3.122   3.625  -0.739 -0.4587  0.0837  0.5816
  166ccc     O1 5109   3.187   3.704  -0.805  0.1215 -0.2235  0.3200
  166ccc     O2 5110   3.160   3.501  -0.747  0.2062 -0.1264 -0.2752
  166ccc    H11 5111   3.088   3.445  -0.712  0.2392 -1.7101 -2.5072
  166ccc     C7 5112   2.964   3.990  -0.443  0.4351  0.5529 -0.1177
  166ccc    H12 5113   2.911   4.018  -0.352 -1.5927 -0.1420 -1.0363
  166ccc    H13 5114   3.072   3.989  -0.428  0.5317 -2.5497 -0.3625
  166ccc     C8 5115   2.932   4.099  -0.549 -0.5281 -0.0755 -0.1636
  166ccc    H14 5116   3.005   4.099  -0.631 -0.0162  1.1628  0.2664
  166ccc    H15 5117   2.836   4.085  -0.600  0.5757  1.9237 -3.0778
  166ccc     C9 5118   2.926   4.234  -0.495  0.1045 -0.2400  0.5351
  166ccc     O3 5119   2.838   4.284  -0.430  0.4337  0.2102 -0.4439
  166ccc     O4 5120   3.048   4.281  -0.471  0.1600 -0.8301 -0.1072
  166ccc    H16 5121   3.034   4.376  -0.457  0.1223 -1.0564  1.5718
  166ccc     O5 5122   2.566   3.598  -0.508 -0.3016  0.0125 -0.2517
  166ccc    H17 5123   2.968   3.783  -0.404  0.7660  0.9708  0.9114
  167ccc     C1 5124   0.845   2.983  -0.317 -0.1000  0.0713  0.0225
  167ccc     H1 5125   0.803   3.001  -0.217  1.0264  0.8517  0.3714
  167ccc     H2 5126   0.950   2.962  -0.295 -0.5219 -1.9495  0.2559
  167ccc     C2 5127   0.830   3.101  -0.415 -0.1378  0.0078 -0.3934
  167ccc     H3 5128   0.884   3.093  -0.510  1.0749  1.8593  0.0893
  167ccc     H4 5129   0.878   3.188  -0.370 -0.3199  0.5399 -1.2041
  167ccc     C3 5130   0.684   3.143  -0.434  0.0060 -0.4783 -0.2094
  167ccc     H5 5131   0.641   3.164  -0.336  0.4042  0.9157 -0.3026
  167ccc     H6 5132   0.618   3.070  -0.481  0.9477 -0.9884 -0.7577
  167ccc     N1 5133   0.661   3.277  -0.508  0.5703 -0.5648  0.5607
  167ccc     C4 5134   0.746   3.278  -0.639  0.1696  0.5461 -0.3197
  167ccc     H7 5135   0.728   3.186  -0.695  2.7224 -0.6956  0.7657
  167ccc     H8 5136   0.849   3.271  -0.604 -0.2709  1.0178  1.1370
  167ccc     C5 5137   0.737   3.398  -0.740  0.6708 -0.3662 -0.3090
  167ccc     H9 5138   0.634   3.412  -0.773  1.1795  1.0069 -1.4164
  167ccc    H10 5139   0.771   3.492  -0.694  1.1367 -1.8201  2.4971
  167ccc     C6 5140   0.827   3.373  -0.860  0.1558 -0.0742 -1.1140
  167ccc     O1 5141   0.884   3.266  -0.880 -0.2478 -0.1258 -0.7744
  167ccc     O2 5142   0.828   3.471  -0.954  0.1390  0.2768  0.3728
  167ccc    H11 5143   0.759   3.538  -0.938  0.0057  0.7836 -1.9322
  167ccc     C7 5144   0.515   3.315  -0.527 -0.4212 -0.3476 -0.5311
  167ccc    H12 5145   0.520   3.395  -0.601 -0.2423 -0.3670 -0.5415
  167ccc    H13 5146   0.461   3.226  -0.558  0.1054 -2.1079  3.0924
  167ccc     C8 5147   0.449   3.357  -0.399  0.4382 -0.2845 -0.0799
  167ccc    H14 5148   0.455   3.282  -0.320 -0.6709  0.5081  0.7921
  167ccc    H15 5149   0.501   3.448  -0.366 -0.4676  0.0555  0.4490
  167ccc     C9 5150   0.309   3.405  -0.416  0.3675  0.2951  0.4712
  167ccc     O3 5151   0.227   3.372  -0.502  0.3000  0.4974 -0.0133
  167ccc     O4 5152   0.259   3.466  -0.305  0.2523 -0.1481 -0.1980
  167ccc    H16 5153   0.328   3.460  -0.237 -0.1097 -0.3659  0.1600
  167ccc     O5 5154   0.780   2.872  -0.378  0.0026 -0.3754  0.6827
  167ccc    H17 5155   0.704   3.348  -0.446  1.9971  0.1562 -1.1605
  168ccc     C1 5156   0.660   2.532  -1.007 -0.7518 -0.4296 -0.0643
  168ccc     H1 5157   0.728   2.614  -1.033 -1.1242  0.2710  1.1108
  168ccc     H2 5158   0.729   2.464  -0.958  0.5216 -0.1190 -1.3556
  168ccc     C2 5159   0.584   2.456  -1.119 -1.1480  0.2210 -0.2805
  168ccc     H3 5160   0.529   2.377  -1.066 -0.3363  1.2550  2.2682
  168ccc     H4 5161   0.651   2.412  -1.194 -1.2864 -2.0621  0.8462
  168ccc     C3 5162   0.483   2.531  -1.200 -0.2990  0.5986 -0.9515
  168ccc     H5 5163   0.516   2.515  -1.303  1.7358 -1.6991 -0.0555
  168ccc     H6 5164   0.493   2.639  -1.191 -0.7735  0.7327 -1.8560
  168ccc     N1 5165   0.336   2.484  -1.198 -0.2236  0.9359  0.1477
  168ccc     C4 5166   0.325   2.331  -1.241  0.7736  0.0573  0.1549
  168ccc     H7 5167   0.217   2.313  -1.243  0.8869 -0.7024  0.4944
  168ccc     H8 5168   0.364   2.270  -1.159  0.1484  1.1304  1.2981
  168ccc     C5 5169   0.394   2.291  -1.372 -0.3057  0.0476  0.6093
  168ccc     H9 5170   0.373   2.364  -1.452  0.3497 -0.4614 -0.0390
  168ccc    H10 5171   0.502   2.294  -1.356 -0.1941  0.4335 -0.1432
  168ccc     C6 5172   0.356   2.149  -1.425 -1.0548  0.1599 -0.3530
  168ccc     O1 5173   0.273   2.081  -1.372  0.1886 -0.3877  0.5357
  168ccc     O2 5174   0.423   2.111  -1.533  0.5615  0.3792  0.5684
  168ccc    H11 5175   0.456   2.196  -1.569 -1.2357  1.0377  0.3903
  168ccc     C7 5176   0.273   2.499  -1.063 -0.0558  1.1256 -0.1097
  168ccc    H12 5177   0.192   2.426  -1.070  1.1529 -0.3026  0.1550
  168ccc    H13 5178   0.340   2.470  -0.982 -0.8505 -3.7342 -0.8624
  168ccc     C8 5179   0.210   2.632  -1.047 -0.6229  0.1831 -0.3079
  168ccc    H14 5180   0.285   2.710  -1.067 -0.0028 -0.6432 -1.3117
  168ccc    H15 5181   0.131   2.648  -1.120 -2.7864 -2.0061  1.3827
  168ccc     C9 5182   0.151   2.649  -0.905  0.3727  0.2999  0.4391
  168ccc     O3 5183   0.182   2.577  -0.817  0.0784  0.5054 -0.2728
  168ccc     O4 5184   0.065   2.743  -0.891 -0.1437  0.4474  0.3617
  168ccc    H16 5185   0.049   2.764  -0.985 -1.6812 -0.6515  0.3318
  168ccc     O5 5186   0.568   2.576  -0.904 -0.1437 -0.5456 -0.1671
  168ccc    H17 5187   0.283   2.533  -1.271  2.3200  3.1592 -0.3664
  169ccc     C1 5188   0.287   1.723  -1.281 -0.5443 -0.2154  0.4184
  169ccc     H1 5189   0.223   1.652  -1.228  0.2135  0.3805  2.2023
  169ccc     H2 5190   0.265   1.824  -1.243 -0.5431  0.1967 -0.6398
  169ccc     C2 5191   0.270   1.733  -1.434  0.1407 -0.1198 -0.6689
  169ccc     H3 5192   0.347   1.805  -1.463  2.5741 -1.5080  1.8294
  169ccc     H4 5193   0.173   1.779  -1.454 -1.6239 -3.3960 -0.3298
  169ccc     C3 5194   0.281   1.593  -1.500  0.6746 -0.4790  1.1234
  169ccc     H5 5195   0.215   1.519  -1.454  0.6059 -1.5414 -0.6147
  169ccc     H6 5196   0.384   1.565  -1.479  1.2859  0.9257  0.1725
  169ccc     N1 5197   0.267   1.597  -1.649 -0.5065  0.1879  0.5020
  169ccc     C4 5198   0.409   1.613  -1.707 -0.0988 -0.6980  0.8072
  169ccc     H7 5199   0.446   1.516  -1.741 -1.3678  0.0378 -3.2763
  169ccc     H8 5200   0.481   1.651  -1.635 -0.4404  2.3909 -0.3257
  169ccc     C5 5201   0.403   1.722  -1.822 -0.1914  0.3277 -0.4474
  169ccc     H9 5202   0.324   1.702  -1.895  0.7270  0.0393 -1.3842
  169ccc    H10 5203   0.390   1.822  -1.779  2.2100 -0.2514  1.8988
  169ccc     C6 5204   0.534   1.735  -1.901  0.6100  1.0461 -0.1812
  169ccc     O1 5205   0.623   1.650  -1.900  0.8460 -0.2186 -0.1447
  169ccc     O2 5206   0.550   1.856  -1.951  0.5095 -0.3532  0.1790
  169ccc    H11 5207   0.461   1.895  -1.949 -0.7318 -3.0015  0.9293
  169ccc     C7 5208   0.206   1.461  -1.697  0.4827  0.1483  0.2514
  169ccc    H12 5209   0.194   1.450  -1.805 -1.4623 -0.2548  0.4621
  169ccc    H13 5210   0.259   1.374  -1.658  0.3524 -0.4245 -0.8094
  169ccc     C8 5211   0.066   1.447  -1.638 -0.1388  0.1476  0.0818
  169ccc    H14 5212   0.076   1.421  -1.532 -0.1201 -0.2813 -0.0220
  169ccc    H15 5213   0.009   1.540  -1.647 -1.3724 -0.6288 -0.4415
  169ccc     C9 5214  -0.011   1.342  -1.718 -0.7517 -0.3758 -0.7041
  169ccc     O3 5215  -0.052   1.353  -1.836  0.3457  0.1373 -0.5121
  169ccc     O4 5216  -0.011   1.217  -1.668 -0.5452 -0.6581 -0.7982
  169ccc    H16 5217  -0.072   1.173  -1.729 -1.1449 -0.0307 -0.6733
  169ccc     O5 5218   0.424   1.698  -1.241  0.0530 -0.3819  0.1850
  169ccc    H17 5219   0.214   1.683  -1.667 -1.6471 -0.0760  2.3293
  170ccc     C1 5220   0.664   1.013  -1.493  0.2333  0.0125  0.0248
  170ccc     H1 5221   0.627   1.046  -1.591 -0.6272 -0.2230  0.2538
  170ccc     H2 5222   0.753   0.949  -1.499  1.9667  2.3555 -0.4562
  170ccc     C2 5223   0.549   0.928  -1.432 -0.4827 -0.5917  0.6873
  170ccc     H3 5224   0.517   0.851  -1.503 -1.5946 -0.5010  1.0807
  170ccc     H4 5225   0.461   0.992  -1.423  0.7236  0.8735  2.8160
  170ccc     C3 5226   0.595   0.861  -1.304  0.7636  0.1910  0.4211
  170ccc     H5 5227   0.623   0.937  -1.231 -0.3331 -1.1947  2.3764
  170ccc     H6 5228   0.680   0.794  -1.317 -0.5072 -1.7689  1.7468
  170ccc     N1 5229   0.485   0.787  -1.216 -0.5682 -0.0640  0.3846
  170ccc     C4 5230   0.374   0.898  -1.182  0.5906  0.2679 -0.1992
  170ccc     H7 5231   0.292   0.894  -1.253 -0.6999  1.2328  1.1655
  170ccc     H8 5232   0.412   1.000  -1.191  1.9565 -0.2726 -0.7066
  170ccc     C5 5233   0.319   0.875  -1.041 -0.0301 -0.1023  0.4891
  170ccc     H9 5234   0.295   0.770  -1.020 -2.5625  0.8107  2.8378
  170ccc    H10 5235   0.403   0.911  -0.980  0.3302  1.0139 -0.6308
  170ccc     C6 5236   0.199   0.969  -1.010 -0.6579  1.0426  0.1427
  170ccc     O1 5237   0.157   1.052  -1.084  0.5456 -0.6514 -0.1334
  170ccc     O2 5238   0.130   0.928  -0.906 -0.1524 -0.0465  0.2583
  170ccc    H11 5239   0.056   0.986  -0.930 -0.6566 -1.0552 -0.6953
  170ccc     C7 5240   0.425   0.672  -1.297  0.3873 -0.4273  0.4857
  170ccc    H12 5241   0.323   0.666  -1.258  0.2619  2.8073  0.9687
  170ccc    H13 5242   0.426   0.688  -1.405  0.4444 -1.9368  0.2386
  170ccc     C8 5243   0.503   0.543  -1.289  0.1692  0.5775  0.0376
  170ccc    H14 5244   0.609   0.568  -1.280  0.2528  0.5889 -0.8876
  170ccc    H15 5245   0.470   0.488  -1.200 -0.1490 -0.1215 -0.5021
  170ccc     C9 5246   0.468   0.452  -1.402  0.3412  0.2035 -0.9101
  170ccc     O3 5247   0.409   0.344  -1.384  0.0909 -0.7736 -0.8556
  170ccc     O4 5248   0.527   0.486  -1.521 -0.7638 -0.5846  0.0696
  170ccc    H16 5249   0.570   0.572  -1.505 -2.0928  0.2005 -0.4167
  170ccc     O5 5250   0.676   1.132  -1.408  0.1230  0.2033 -0.1872
  170ccc    H17 5251   0.525   0.750  -1.129 -0.2060 -1.7475 -0.4577
  171ccc     C1 5252   3.040   0.033  -0.279  0.0332  0.4029 -0.9597
  171ccc     H1 5253   3.139   0.077  -0.265  0.6448 -1.2881  0.4619
  171ccc     H2 5254   3.064  -0.073  -0.293 -1.9149 -0.5727  2.0778
  171ccc     C2 5255   2.978   0.086  -0.406 -0.0287 -1.1303  0.2330
  171ccc     H3 5256   2.874   0.057  -0.426 -0.9951  2.8903 -1.7657
  171ccc     H4 5257   3.027   0.044  -0.495  1.4426  0.5671  0.1873
  171ccc     C3 5258   2.987   0.250  -0.413  0.0115 -0.2901  0.2884
  171ccc     H5 5259   3.094   0.270  -0.419  0.4157 -1.2746  2.7388
  171ccc     H6 5260   2.951   0.299  -0.322  1.9941 -0.7222  1.3805
  171ccc     N1 5261   2.922   0.316  -0.530  0.6524 -0.3450  0.2177
  171ccc     C4 5262   2.932   0.464  -0.531 -0.0880 -0.2332 -0.0429
  171ccc     H7 5263   2.891   0.487  -0.629  1.9671  1.0934 -0.6514
  171ccc     H8 5264   3.036   0.496  -0.524 -0.0430 -0.5984  1.2325
  171ccc     C5 5265   2.846   0.528  -0.420 -0.0095  0.4501  0.6848
  171ccc     H9 5266   2.746   0.483  -0.426  0.6777 -1.3716  2.1379
  171ccc    H10 5267   2.879   0.517  -0.316  2.0785 -0.1793  0.0053
  171ccc     C6 5268   2.819   0.672  -0.446 -0.3909 -0.4175 -0.1289
  171ccc     O1 5269   2.875   0.740  -0.530 -0.0012  0.4448  0.2353
  171ccc     O2 5270   2.720   0.723  -0.374  0.3194  0.1081  0.5668
  171ccc    H11 5271   2.691   0.657  -0.309  0.0953 -0.7736 -0.4154
  171ccc     C7 5272   2.962   0.248  -0.663 -0.1393 -0.4897  0.3041
  171ccc    H12 5273   2.964   0.335  -0.729  1.7165 -0.0541  0.8533
  171ccc    H13 5274   3.064   0.210  -0.652  0.1031 -0.3713 -1.2213
  171ccc     C8 5275   2.861   0.156  -0.732  0.2350  0.3775 -0.4193
  171ccc    H14 5276   2.877   0.056  -0.692  2.5157  1.2530  1.0529
  171ccc    H15 5277   2.758   0.190  -0.716 -1.0599 -2.6050 -1.6469
  171ccc     C9 5278   2.904   0.145  -0.880 -0.5599 -0.4845  0.3096
  171ccc     O3 5279   3.014   0.189  -0.925  0.2243 -0.4354  0.3794
  171ccc     O4 5280   2.795   0.145  -0.959 -0.0852  0.4604 -0.3343
  171ccc    H16 5281   2.827   0.182  -1.043 -1.5246  0.6524 -0.8313
  171ccc     O5 5282   2.955   0.054  -0.159 -0.7465 -0.4196  0.0287
  171ccc    H17 5283   2.822   0.296  -0.514  0.6970  0.7704  2.2436
  172ccc     C1 5284   3.323   0.462   0.508  0.0123 -0.3222  0.2043
  172ccc     H1 5285   3.250   0.507   0.576 -1.4128 -0.4235 -1.2070
  172ccc     H2 5286   3.354   0.361   0.535 -0.8402 -0.3895  0.9580
  172ccc     C2 5287   3.445   0.544   0.487 -0.2032  0.5334 -0.3245
  172ccc     H3 5288   3.506   0.500   0.408  0.4708  0.4786  0.2110
  172ccc     H4 5289   3.507   0.543   0.578  1.9538  0.3141 -1.7180
  172ccc     C3 5290   3.408   0.679   0.440 -0.2098  0.4278  0.3693
  172ccc     H5 5291   3.347   0.739   0.508 -0.2364  0.3741  0.3921
  172ccc     H6 5292   3.364   0.665   0.341 -0.2365 -3.2105  0.7862
  172ccc     N1 5293   3.538   0.749   0.410  0.1419 -0.9100 -0.1122
  172ccc     C4 5294   3.516   0.842   0.300 -0.2827 -0.0631  0.4592
  172ccc     H7 5295   3.487   0.939   0.341 -1.8565  1.0604 -2.9417
  172ccc     H8 5296   3.423   0.816   0.249 -0.2376  1.8230 -0.6407
  172ccc     C5 5297   3.629   0.861   0.199 -0.0291 -0.7059 -0.2335
  172ccc     H9 5298   3.697   0.776   0.200  1.1448  0.2064 -0.1544
  172ccc    H10 5299   3.604   0.870   0.092 -0.5838 -0.4971 -0.0891
  172ccc     C6 5300   3.713   0.980   0.223  0.4136 -1.0539  0.1815
  172ccc     O1 5301   3.695   1.055   0.316  0.1620 -0.2273  0.1541
  172ccc     O2 5302   3.829   0.985   0.158 -0.3432  0.0982  0.3011
  172ccc    H11 5303   3.859   1.075   0.181 -0.5316  0.2084  0.1280
  172ccc     C7 5304   3.589   0.808   0.544  0.5034 -0.1603 -0.3818
  172ccc    H12 5305   3.599   0.719   0.606  0.6077 -0.0939 -0.3036
  172ccc    H13 5306   3.684   0.856   0.518  0.0565 -0.1591 -2.1412
  172ccc     C8 5307   3.497   0.915   0.606 -0.3277 -1.3328 -0.2027
  172ccc    H14 5308   3.465   0.989   0.531  1.2369 -0.0874  0.2989
  172ccc    H15 5309   3.409   0.864   0.647 -1.3478 -1.5779 -2.5213
  172ccc     C9 5310   3.572   0.985   0.721  0.2326  0.2016 -0.2386
  172ccc     O3 5311   3.675   0.943   0.765  0.1940  0.0610 -0.5861
  172ccc     O4 5312   3.521   1.098   0.763 -0.1542 -0.3006  0.2180
  172ccc    H16 5313   3.437   1.095   0.714  0.8977 -0.0724 -1.7194
  172ccc     O5 5314   3.267   0.439   0.384 -0.4079 -0.2549  0.1530
  172ccc    H17 5315   3.610   0.683   0.378 -0.5164 -0.4449 -2.7551
  173ccc     C1 5316   2.281   1.610  -1.336  0.2395  0.1411 -0.0852
  173ccc     H1 5317   2.194   1.651  -1.284 -0.5740 -0.8497 -0.6373
  173ccc     H2 5318   2.372   1.646  -1.286  0.1707  2.4114 -1.4402
  173ccc     C2 5319   2.270   1.657  -1.485 -0.3235 -0.1878 -0.3008
  173ccc     H3 5320   2.241   1.762  -1.473 -1.4235 -0.3845 -1.0010
  173ccc     H4 5321   2.179   1.614  -1.529 -1.2455  0.5068  0.8765
  173ccc     C3 5322   2.410   1.642  -1.554  0.0452 -0.1554  0.9534
  173ccc     H5 5323   2.448   1.540  -1.553 -0.4739 -0.3820 -0.2516
  173ccc     H6 5324   2.486   1.709  -1.513 -1.4214  1.9762  0.3706
  173ccc     N1 5325   2.407   1.671  -1.704 -0.6182 -0.3333  0.6307
  173ccc     C4 5326   2.398   1.824  -1.739 -0.6715  0.1809  0.4566
  173ccc     H7 5327   2.498   1.867  -1.729 -0.7659  0.9107 -1.3299
  173ccc     H8 5328   2.337   1.881  -1.670  0.6939  2.3963 -0.0390
  173ccc     C5 5329   2.355   1.851  -1.885  0.4897  0.9645 -0.5927
  173ccc     H9 5330   2.360   1.959  -1.901 -1.0092  1.0721 -0.4750
  173ccc    H10 5331   2.427   1.809  -1.956  0.5317  0.9403 -0.5364
  173ccc     C6 5332   2.217   1.812  -1.922  0.0279 -0.4391  0.0193
  173ccc     O1 5333   2.191   1.747  -2.021  0.2201  0.2477 -0.5247
  173ccc     O2 5334   2.129   1.805  -1.816  0.0123  0.0874 -0.6733
  173ccc    H11 5335   2.060   1.746  -1.852 -0.3041  0.1572 -0.1856
  173ccc     C7 5336   2.540   1.625  -1.766  0.0642 -0.0505  0.1575
  173ccc    H12 5337   2.557   1.681  -1.858  1.3771  1.8769  1.5177
  173ccc    H13 5338   2.620   1.664  -1.704 -1.6100  3.9170  0.1055
  173ccc     C8 5339   2.554   1.469  -1.775  0.1427 -0.0380  0.0476
  173ccc    H14 5340   2.562   1.427  -1.674  1.6831 -1.9105 -0.7900
  173ccc    H15 5341   2.463   1.431  -1.822  0.8024 -1.0461 -0.4423
  173ccc     C9 5342   2.670   1.426  -1.853  0.1761  0.3538 -0.2073
  173ccc     O3 5343   2.769   1.496  -1.881  0.5168 -0.4734 -1.0575
  173ccc     O4 5344   2.659   1.305  -1.915 -0.7049  0.4543  0.2790
  173ccc    H16 5345   2.575   1.265  -1.887 -0.4888 -2.1179 -2.2564
  173ccc     O5 5346   2.277   1.468  -1.333  0.1292  0.4816  0.4677
  173ccc    H17 5347   2.325   1.636  -1.755  0.1137 -1.0266 -0.1180
  174ccc     C1 5348   3.122   1.310  -1.249  0.0077 -0.9420  0.2182
  174ccc     H1 5349   3.191   1.328  -1.166 -0.1183  0.4649  0.0326
  174ccc     H2 5350   3.136   1.205  -1.278 -0.8138 -1.8192  2.7198
  174ccc     C2 5351   3.158   1.412  -1.361  0.5079 -0.0437  0.3847
  174ccc     H3 5352   3.261   1.404  -1.398  0.0496  3.0713 -2.0243
  174ccc     H4 5353   3.156   1.512  -1.318 -0.3563  0.1116 -0.0003
  174ccc     C3 5354   3.058   1.412  -1.476  0.3273  0.1383  0.2689
  174ccc     H5 5355   3.019   1.514  -1.475  0.4319  0.1875 -0.3511
  174ccc     H6 5356   2.978   1.341  -1.453 -2.0002  2.0259 -1.5536
  174ccc     N1 5357   3.105   1.372  -1.617 -0.3179  0.1487 -0.7215
  174ccc     C4 5358   3.059   1.227  -1.639 -0.9500 -0.0053  0.5618
  174ccc     H7 5359   3.056   1.219  -1.747  2.1358  0.9911  0.3040
  174ccc     H8 5360   2.959   1.219  -1.595 -1.6135  2.2408 -0.4160
  174ccc     C5 5361   3.148   1.122  -1.573  0.1064 -0.3765  0.4924
  174ccc     H9 5362   3.251   1.141  -1.607  0.5977  0.5697  2.3634
  174ccc    H10 5363   3.135   1.132  -1.464 -0.1016 -0.6936  0.4964
  174ccc     C6 5364   3.120   0.985  -1.623 -0.1656  1.0517  0.0327
  174ccc     O1 5365   3.060   0.946  -1.722 -0.5137  0.1773 -0.0076
  174ccc     O2 5366   3.213   0.901  -1.575 -0.0358 -0.2474  0.3362
  174ccc    H11 5367   3.211   0.837  -1.648  4.7748 -0.3653  0.0049
  174ccc     C7 5368   3.044   1.468  -1.711 -0.7337 -0.0874  0.0514
  174ccc    H12 5369   2.936   1.471  -1.697 -0.7330  1.5261 -0.0938
  174ccc    H13 5370   3.092   1.562  -1.683 -1.8887  0.3516  0.6187
  174ccc     C8 5371   3.075   1.443  -1.854 -0.0757 -0.0600  0.5518
  174ccc    H14 5372   3.179   1.413  -1.871  0.0030  1.2267 -1.6847
  174ccc    H15 5373   3.019   1.357  -1.893  1.9873 -0.9141 -0.7296
  174ccc     C9 5374   3.064   1.563  -1.941  0.4698  0.3310 -0.2958
  174ccc     O3 5375   3.073   1.672  -1.903 -0.7235 -0.8984  0.5718
  174ccc     O4 5376   3.030   1.544  -2.070  0.0198  0.2413 -0.0038
  174ccc    H16 5377   3.035   1.449  -2.091 -1.0589 -0.1382  1.2972
  174ccc     O5 5378   2.987   1.339  -1.201 -0.2033  0.4473  0.3269
  174ccc    H17 5379   3.205   1.392  -1.627 -0.1887  0.5382  1.0303
  175ccc     C1 5380   4.631   1.941   2.320 -0.6547  0.3106  0.0827
  175ccc     H1 5381   4.591   2.043   2.313 -2.7826 -0.4537  0.3967
  175ccc     H2 5382   4.676   1.935   2.420  0.5344 -0.5307 -0.4681
  175ccc     C2 5383   4.737   1.894   2.208 -0.1040  0.0234 -0.1884
  175ccc     H3 5384   4.739   1.784   2.210 -0.9568 -0.2063 -4.2324
  175ccc     H4 5385   4.840   1.915   2.240 -0.6054 -0.2761  1.7757
  175ccc     C3 5386   4.713   1.935   2.066  0.6963  0.3080 -0.7558
  175ccc     H5 5387   4.712   2.044   2.063 -0.1051  0.3771  0.8785
  175ccc     H6 5388   4.615   1.901   2.034  0.2330  1.1587 -0.2806
  175ccc     N1 5389   4.813   1.880   1.965 -0.0771 -0.0679  0.0571
  175ccc     C4 5390   4.752   1.896   1.828 -0.2966 -0.1991 -0.0110
  175ccc     H7 5391   4.830   1.885   1.752  1.9690 -1.1376  2.3065
  175ccc     H8 5392   4.708   1.996   1.821  2.8633  1.4741  1.6005
  175ccc     C5 5393   4.652   1.788   1.795  0.3856  0.2692 -0.0498
  175ccc     H9 5394   4.689   1.685   1.806  0.0253  0.0098 -1.1508
  175ccc    H10 5395   4.564   1.802   1.859 -0.4789 -1.9169 -0.6766
  175ccc     C6 5396   4.605   1.812   1.650  0.7451  0.1321 -0.0217
  175ccc     O1 5397   4.668   1.823   1.547  0.5264 -0.1612  0.2246
  175ccc     O2 5398   4.472   1.797   1.648  0.0456 -0.6346 -0.2777
  175ccc    H11 5399   4.447   1.817   1.556  1.8089 -0.5055 -0.7763
  175ccc     C7 5400   4.946   1.956   1.970 -0.1580 -0.5014 -0.0391
  175ccc    H12 5401   5.002   1.922   2.057 -0.1193 -0.3367 -0.0011
  175ccc    H13 5402   4.999   1.917   1.883 -2.1807  0.0616 -1.5924
  175ccc     C8 5403   4.944   2.108   1.974 -0.2099 -0.2022 -0.0092
  175ccc    H14 5404   4.855   2.141   1.920 -1.8820 -0.3249  2.4847
  175ccc    H15 5405   4.920   2.142   2.075 -1.1605  1.7819 -0.8463
  175ccc     C9 5406   5.063   2.171   1.903  0.1150 -0.5226  0.1762
  175ccc     O3 5407   5.131   2.100   1.834 -0.7951  0.1479  0.1494
  175ccc     O4 5408   5.100   2.297   1.933  0.0447 -0.2942  0.1117
  175ccc    H16 5409   5.044   2.335   2.003 -3.4738 -1.8267 -1.6022
  175ccc     O5 5410   4.512   1.860   2.304 -0.0436  1.1773 -0.1997
  175ccc    H17 5411   4.829   1.779   1.970  0.9351  0.0685 -0.0544
  176ccc     C1 5412   4.511   1.408   1.669  0.0763  0.4486 -0.0674
  176ccc     H1 5413   4.439   1.372   1.594 -1.5789  1.2925  1.0366
  176ccc     H2 5414   4.579   1.484   1.628  1.3476  0.7555  2.4078
  176ccc     C2 5415   4.607   1.294   1.715 -0.3460  1.1015  0.0006
  176ccc     H3 5416   4.557   1.200   1.744  2.0928 -0.3692 -0.2415
  176ccc     H4 5417   4.656   1.327   1.807  3.5827 -1.6998 -0.8008
  176ccc     C3 5418   4.732   1.250   1.625  0.2589  0.2908 -0.0818
  176ccc     H5 5419   4.747   1.318   1.541 -0.1636 -1.1145 -1.3378
  176ccc     H6 5420   4.712   1.153   1.580  1.6691 -0.3927  0.6940
  176ccc     N1 5421   4.871   1.235   1.695  0.1681  0.1225  0.7681
  176ccc     C4 5422   4.918   1.366   1.757 -0.3817 -0.2438 -0.1275
  176ccc     H7 5423   5.011   1.343   1.809 -0.3014  0.3055 -0.0168
  176ccc     H8 5424   4.848   1.406   1.831 -0.2990  2.2767 -1.3049
  176ccc     C5 5425   4.949   1.478   1.663 -0.3749  0.2208  0.0586
  176ccc     H9 5426   5.022   1.440   1.591 -0.5737 -0.4906  0.2169
  176ccc    H10 5427   4.861   1.514   1.609 -0.6811 -0.8513 -0.1874
  176ccc     C6 5428   5.021   1.601   1.724 -0.3986  0.1623  0.1396
  176ccc     O1 5429   4.961   1.686   1.786 -0.0825 -0.0206 -0.0099
  176ccc     O2 5430   5.149   1.575   1.745  0.3499  0.8577 -0.0381
  176ccc    H11 5431   5.191   1.657   1.774 -1.0888  1.0330  1.6719
  176ccc     C7 5432   4.883   1.106   1.789 -0.7606  0.1149 -0.2706
  176ccc    H12 5433   4.862   1.139   1.891  1.0715  0.5209  0.0259
  176ccc    H13 5434   4.805   1.038   1.755 -0.3761 -0.4424 -0.0483
  176ccc     C8 5435   5.019   1.041   1.797  0.2325 -0.3456  0.8414
  176ccc    H14 5436   5.059   1.018   1.697  0.9664  2.2426  0.4740
  176ccc    H15 5437   5.084   1.113   1.848 -0.6429  1.3630 -0.3872
  176ccc     C9 5438   5.011   0.912   1.879 -1.2173  0.0947  0.0410
  176ccc     O3 5439   4.908   0.841   1.883 -0.6090  0.9674  0.5812
  176ccc     O4 5440   5.126   0.866   1.931  0.0357  0.3560 -0.4226
  176ccc    H16 5441   5.197   0.922   1.896 -0.2737 -0.0128 -1.7251
  176ccc     O5 5442   4.440   1.459   1.787 -0.1231  0.4984  0.8651
  176ccc    H17 5443   4.927   1.219   1.610 -0.8661  0.0862  0.0755
  177ccc     C1 5444   4.121   2.122   3.438 -0.1048  0.0344  0.4707
  177ccc     H1 5445   4.179   2.050   3.497  0.0665 -0.5332 -0.3638
  177ccc     H2 5446   4.170   2.219   3.452 -1.2538  0.6807  0.1773
  177ccc     C2 5447   3.977   2.119   3.484  0.9214  0.7768 -0.6556
  177ccc     H3 5448   3.929   2.206   3.437  0.3540  0.1496 -1.2609
  177ccc     H4 5449   3.979   2.144   3.591 -0.2101  3.4986 -1.1969
  177ccc     C3 5450   3.888   1.995   3.460 -0.4846 -0.1491  0.0793
  177ccc     H5 5451   3.871   1.976   3.354 -0.4161  0.4234 -0.0363
  177ccc     H6 5452   3.789   2.015   3.501 -1.4795 -0.8460 -1.8469
  177ccc     N1 5453   3.948   1.863   3.514  0.2342  0.5152  0.4833
  177ccc     C4 5454   4.069   1.802   3.434 -0.3781  0.6249  0.0378
  177ccc     H7 5455   4.114   1.718   3.486  2.2127  1.7933 -0.1628
  177ccc     H8 5456   4.145   1.880   3.425  0.9309 -0.3413  1.9598
  177ccc     C5 5457   4.033   1.760   3.294 -0.0668  0.0252 -0.3213
  177ccc     H9 5458   3.947   1.693   3.310  1.4447 -1.9465 -0.1090
  177ccc    H10 5459   4.004   1.842   3.227 -0.2287 -0.7804 -1.2694
  177ccc     C6 5460   4.144   1.685   3.229  0.2387  0.5873  0.0357
  177ccc     O1 5461   4.258   1.722   3.230 -0.2856 -0.3790 -0.0452
  177ccc     O2 5462   4.114   1.559   3.195 -0.1129 -0.3105  0.0945
  177ccc    H11 5463   4.204   1.527   3.174  0.4525  1.1982  0.1132
  177ccc     C7 5464   3.991   1.869   3.661 -0.0428 -0.8453  0.1446
  177ccc    H12 5465   4.058   1.786   3.683 -0.7044 -1.4248  0.0135
  177ccc    H13 5466   4.059   1.952   3.678  0.5525 -1.6746  2.1414
  177ccc     C8 5467   3.872   1.852   3.757  0.3402 -0.1264 -0.4327
  177ccc    H14 5468   3.785   1.905   3.719 -0.4399 -1.1289 -0.0955
  177ccc    H15 5469   3.842   1.747   3.772  0.0127  0.0846  0.3964
  177ccc     C9 5470   3.901   1.914   3.893 -0.2304  0.1003 -0.2139
  177ccc     O3 5471   3.999   1.892   3.964 -0.0316 -0.0586 -0.3490
  177ccc     O4 5472   3.821   2.020   3.914  0.0596  0.1502  0.4322
  177ccc    H16 5473   3.823   2.024   4.011  0.1743  0.4392  0.4185
  177ccc     O5 5474   4.126   2.084   3.297 -0.0530 -0.9374  0.3546
  177ccc    H17 5475   3.880   1.786   3.517  1.1939 -0.5941 -2.7299
  178ccc     C1 5476   3.826   1.868   2.740  0.4107  0.4535  0.0378
  178ccc     H1 5477   3.763   1.891   2.653 -0.5305  0.4153  0.6933
  178ccc     H2 5478   3.930   1.901   2.734  0.3087  0.7697 -0.0217
  178ccc     C2 5479   3.830   1.716   2.745 -0.1363  0.8073 -0.4721
  178ccc     H3 5480   3.873   1.683   2.840 -0.3260 -0.3130 -0.7486
  178ccc     H4 5481   3.900   1.677   2.669  0.3416  2.3714 -0.8654
  178ccc     C3 5482   3.687   1.656   2.742  0.0692  0.4166  0.5429
  178ccc     H5 5483   3.636   1.695   2.653  0.4171  1.6902  0.8864
  178ccc     H6 5484   3.633   1.692   2.829 -0.5765  0.1419  0.2637
  178ccc     N1 5485   3.673   1.501   2.739  0.6031 -0.7606 -0.4835
  178ccc     C4 5486   3.691   1.451   2.599  0.1281  0.0028 -0.0259
  178ccc     H7 5487   3.790   1.475   2.561  0.7083 -0.9300  0.8495
  178ccc     H8 5488   3.623   1.513   2.540 -0.1340 -1.0399 -0.8555
  178ccc     C5 5489   3.658   1.308   2.574 -0.1844  0.4360  0.1861
  178ccc     H9 5490   3.743   1.249   2.612  1.0752  1.2271 -1.2942
  178ccc    H10 5491   3.563   1.267   2.610  0.2960 -1.2082 -0.3112
  178ccc     C6 5492   3.667   1.269   2.424 -0.2827  0.0094 -0.3110
  178ccc     O1 5493   3.634   1.348   2.334 -0.1032 -0.1841 -0.1497
  178ccc     O2 5494   3.755   1.171   2.396  0.1668  0.4311 -0.0714
  178ccc    H11 5495   3.789   1.124   2.474  0.4731 -1.3688 -1.2428
  178ccc     C7 5496   3.754   1.424   2.842  0.8711 -0.3529 -0.0906
  178ccc    H12 5497   3.729   1.319   2.825 -1.6072  0.1767 -0.1926
  178ccc    H13 5498   3.862   1.421   2.826  0.6793 -1.6388 -1.3762
  178ccc     C8 5499   3.726   1.457   2.989 -0.3669  0.5792  0.6589
  178ccc    H14 5500   3.735   1.564   3.013  0.9973  0.7745 -0.5717
  178ccc    H15 5501   3.623   1.429   3.015 -0.1545  0.0447  0.9398
  178ccc     C9 5502   3.819   1.377   3.079 -0.1212 -0.0646  0.4286
  178ccc     O3 5503   3.915   1.313   3.043  0.4920 -0.2823  0.0741
  178ccc     O4 5504   3.814   1.412   3.209  0.0032  0.8248  0.1620
  178ccc    H16 5505   3.745   1.480   3.213 -0.7215  0.0515  2.1274
  178ccc     O5 5506   3.770   1.910   2.870 -0.0454 -0.0026  0.0446
  178ccc    H17 5507   3.572   1.495   2.756  0.5638 -0.4078 -0.5958
  179ccc     C1 5508   5.228   3.710   1.437 -0.0486  0.0708 -0.0960
  179ccc     H1 5509   5.290   3.797   1.412 -1.1124  1.2913  1.2774
  179ccc     H2 5510   5.191   3.731   1.538 -0.8015 -1.2692 -0.0786
  179ccc     C2 5511   5.288   3.568   1.432  0.1160  0.8846  0.1170
  179ccc     H3 5512   5.307   3.526   1.332 -0.1102 -0.5809  0.6699
  179ccc     H4 5513   5.219   3.502   1.486  1.2137  0.1404  0.6413
  179ccc     C3 5514   5.422   3.567   1.518  0.9043  0.1738 -0.7245
  179ccc     H5 5515   5.411   3.626   1.609  0.4482 -0.3581 -0.4205
  179ccc     H6 5516   5.501   3.613   1.459  0.6381 -0.5209 -1.6474
  179ccc     N1 5517   5.484   3.427   1.558 -0.0476 -0.5489  0.1264
  179ccc     C4 5518   5.388   3.356   1.650 -0.8456  0.2013 -0.5269
  179ccc     H7 5519   5.312   3.301   1.594 -1.8011 -0.4921  1.3493
  179ccc     H8 5520   5.334   3.432   1.707 -0.8788  0.9294 -1.5046
  179ccc     C5 5521   5.457   3.251   1.745 -0.0041 -0.1239 -0.6629
  179ccc     H9 5522   5.505   3.162   1.702 -0.9002 -0.7283 -0.4292
  179ccc    H10 5523   5.530   3.306   1.807  0.2333 -0.9630 -0.1769
  179ccc     C6 5524   5.349   3.194   1.839  0.9177  0.6503  0.3213
  179ccc     O1 5525   5.249   3.135   1.804  0.5791 -0.4736 -0.2194
  179ccc     O2 5526   5.343   3.257   1.957  0.5263 -0.0709 -0.0512
  179ccc    H11 5527   5.267   3.222   2.007  0.3259  0.9482  0.3845
  179ccc     C7 5528   5.523   3.340   1.445 -0.2665  0.4530 -0.1695
  179ccc    H12 5529   5.555   3.240   1.475 -2.4538 -0.4855 -0.7675
  179ccc    H13 5530   5.431   3.334   1.387  0.2238 -0.3026 -0.8934
  179ccc     C8 5531   5.637   3.397   1.364 -0.0046  0.3941 -0.3522
  179ccc    H14 5532   5.710   3.439   1.433 -1.4020  0.2653  1.2647
  179ccc    H15 5533   5.682   3.306   1.322 -1.1536 -1.3294  1.9361
  179ccc     C9 5534   5.594   3.483   1.244 -1.0132 -0.1081 -0.1959
  179ccc     O3 5535   5.487   3.473   1.188 -0.6594  0.1320  0.1929
  179ccc     O4 5536   5.687   3.546   1.177 -0.3838 -0.8038 -0.5927
  179ccc    H16 5537   5.772   3.533   1.221 -0.0528 -0.1865 -1.0332
  179ccc     O5 5538   5.113   3.723   1.344 -0.3888 -0.4217  0.5111
  179ccc    H17 5539   5.563   3.450   1.619 -0.3033  1.0595 -0.1121
  180ccc     C1 5540   4.481   4.178   1.029 -0.0359  0.1528 -0.4959
  180ccc     H1 5541   4.373   4.189   1.016  0.2807  0.3425 -3.9481
  180ccc     H2 5542   4.507   4.243   1.114 -1.3648  1.4372 -1.0383
  180ccc     C2 5543   4.561   4.227   0.909  0.0627  0.8573  0.4905
  180ccc     H3 5544   4.561   4.157   0.825 -2.7282  1.1077  0.1805
  180ccc     H4 5545   4.662   4.252   0.943  1.2634 -0.3655 -1.9497
  180ccc     C3 5546   4.499   4.359   0.851 -0.0616 -0.2503  0.0146
  180ccc     H5 5547   4.483   4.429   0.934  4.6060 -0.3735  1.3313
  180ccc     H6 5548   4.400   4.342   0.808 -0.9957  0.8579  1.6058
  180ccc     N1 5549   4.568   4.437   0.738  0.7621  0.5617  0.0739
  180ccc     C4 5550   4.720   4.460   0.769  0.2826 -0.2174 -0.2999
  180ccc     H7 5551   4.764   4.367   0.731 -1.4042 -0.9228 -0.6031
  180ccc     H8 5552   4.743   4.468   0.875  1.1376 -2.8965 -0.1904
  180ccc     C5 5553   4.767   4.585   0.689  0.2339 -0.0346 -0.4463
  180ccc     H9 5554   4.752   4.575   0.581 -0.8523  1.7701 -0.5022
  180ccc    H10 5555   4.706   4.671   0.718 -0.5488 -0.8679  0.4533
  180ccc     C6 5556   4.913   4.609   0.723 -0.8760 -0.2713  0.1649
  180ccc     O1 5557   4.984   4.516   0.754  0.4507  0.4004  0.1491
  180ccc     O2 5558   4.958   4.737   0.733 -0.0775  0.3751  0.2260
  180ccc    H11 5559   5.051   4.725   0.758  0.0005 -1.1064 -0.6871
  180ccc     C7 5560   4.566   4.348   0.614 -0.6840 -0.7019  0.5267
  180ccc    H12 5561   4.612   4.408   0.536 -1.2243  1.6038  1.8889
  180ccc    H13 5562   4.632   4.262   0.626 -0.1321 -0.6217 -1.6251
  180ccc     C8 5563   4.429   4.308   0.559  0.3365  0.0078 -0.0034
  180ccc    H14 5564   4.403   4.217   0.613  0.1101  1.3403  2.2241
  180ccc    H15 5565   4.353   4.385   0.571 -0.2142 -0.5759  0.2744
  180ccc     C9 5566   4.426   4.282   0.414 -0.3193  0.0895  0.5163
  180ccc     O3 5567   4.522   4.303   0.341  0.0162 -0.2282 -0.3277
  180ccc     O4 5568   4.312   4.246   0.362  0.6498  0.2579 -0.1410
  180ccc    H16 5569   4.250   4.240   0.437  2.5105  1.1660  1.5888
  180ccc     O5 5570   4.514   4.042   1.067 -0.0392 -0.8291 -0.0606
  180ccc    H17 5571   4.515   4.519   0.707  1.9290  0.3240 -2.8701
  181ccc     C1 5572   4.810   2.539   0.492  0.5260  1.2531  0.2555
  181ccc     H1 5573   4.920   2.535   0.496  0.4555  0.3487  2.0716
  181ccc     H2 5574   4.777   2.442   0.453  1.1236  0.5215  1.5008
  181ccc     C2 5575   4.750   2.645   0.400 -0.2053  0.6529 -0.1761
  181ccc     H3 5576   4.803   2.649   0.304 -0.7938 -0.2386 -0.5441
  181ccc     H4 5577   4.774   2.744   0.442  0.7571  0.4645 -0.2617
  181ccc     C3 5578   4.597   2.634   0.367  0.4503  0.5801  0.0564
  181ccc     H5 5579   4.578   2.551   0.298  0.9750  0.2951  0.2451
  181ccc     H6 5580   4.572   2.724   0.311  1.6576  0.8203 -0.1262
  181ccc     N1 5581   4.498   2.614   0.483 -0.2454  0.0585  0.2652
  181ccc     C4 5582   4.517   2.734   0.578 -0.9543 -0.8259 -0.0632
  181ccc     H7 5583   4.486   2.827   0.530 -3.4198 -2.0321 -0.9916
  181ccc     H8 5584   4.623   2.754   0.594 -0.9797 -0.8060  0.0788
  181ccc     C5 5585   4.448   2.727   0.720  0.5635  0.1556  0.1981
  181ccc     H9 5586   4.341   2.706   0.714  1.0253 -2.1039 -3.2836
  181ccc    H10 5587   4.490   2.635   0.762 -1.1814 -1.0020 -0.4824
  181ccc     C6 5588   4.481   2.842   0.802  0.0325  1.1579  0.1252
  181ccc     O1 5589   4.600   2.864   0.827 -0.3947 -0.6327 -0.1562
  181ccc     O2 5590   4.403   2.946   0.779 -0.3215 -0.4257  0.2837
  181ccc    H11 5591   4.344   2.932   0.703 -0.6933  0.4399  0.3890
  181ccc     C7 5592   4.351   2.616   0.436 -0.0233  1.2165  0.0208
  181ccc    H12 5593   4.292   2.609   0.528  1.6846 -2.1390  0.9911
  181ccc    H13 5594   4.339   2.708   0.378  0.5977  0.8426 -0.7150
  181ccc     C8 5595   4.314   2.492   0.354 -0.4127 -0.3078 -0.5043
  181ccc    H14 5596   4.382   2.482   0.269 -1.1304  2.7227 -1.5535
  181ccc    H15 5597   4.326   2.400   0.414  0.5738 -0.2197 -0.5654
  181ccc     C9 5598   4.179   2.504   0.290 -0.1483 -0.2123  0.4860
  181ccc     O3 5599   4.135   2.612   0.253  0.0940 -0.4558  0.2948
  181ccc     O4 5600   4.133   2.392   0.237  0.6639  0.1687 -0.2844
  181ccc    H16 5601   4.155   2.320   0.298  1.3524  1.7513  1.4130
  181ccc     O5 5602   4.757   2.551   0.625  0.1350  0.0360 -0.2245
  181ccc    H17 5603   4.517   2.521   0.523 -1.4343  0.4167  1.7507
  182ccc     C1 5604   5.245   2.381   1.253 -0.0337  0.6588 -0.8774
  182ccc     H1 5605   5.148   2.371   1.302  0.4787  0.2765  0.0835
  182ccc     H2 5606   5.276   2.276   1.237  0.4076  0.6167  0.1704
  182ccc     C2 5607   5.358   2.447   1.336 -0.1654 -0.5274 -0.2840
  182ccc     H3 5608   5.450   2.429   1.278  0.6372  2.2492 -0.0562
  182ccc     H4 5609   5.368   2.404   1.436  1.4299  1.7925  0.6768
  182ccc     C3 5610   5.331   2.600   1.350  1.3698  0.0809 -0.2598
  182ccc     H5 5611   5.238   2.629   1.398 -0.7032 -4.7888 -0.7409
  182ccc     H6 5612   5.329   2.642   1.249 -0.2684 -0.2288 -0.3731
  182ccc     N1 5613   5.440   2.673   1.428  0.6088  0.4673  0.5800
  182ccc     C4 5614   5.430   2.823   1.418  0.0647 -0.0497  0.4407
  182ccc     H7 5615   5.418   2.842   1.311  0.7798 -2.0353 -0.0518
  182ccc     H8 5616   5.524   2.865   1.455  0.0695  1.0437 -0.7428
  182ccc     C5 5617   5.309   2.886   1.494 -0.7824 -0.1448  0.2604
  182ccc     H9 5618   5.214   2.831   1.495  0.0565 -1.6895 -1.1289
  182ccc    H10 5619   5.343   2.892   1.598  0.2682  1.7958 -0.1502
  182ccc     C6 5620   5.278   3.023   1.448  0.3182 -0.9830 -0.2918
  182ccc     O1 5621   5.364   3.109   1.450  0.3859 -0.9844  0.4202
  182ccc     O2 5622   5.175   3.035   1.365  0.1178 -0.0096  0.3517
  182ccc    H11 5623   5.187   3.130   1.350  0.4290  0.4024  2.7428
  182ccc     C7 5624   5.457   2.624   1.572 -0.3319  1.0234 -1.2284
  182ccc    H12 5625   5.365   2.646   1.627 -1.5354  1.3946 -3.2880
  182ccc    H13 5626   5.463   2.515   1.559  1.5694  0.9641 -0.1256
  182ccc     C8 5627   5.584   2.673   1.648  0.2740 -0.0719 -0.3161
  182ccc    H14 5628   5.659   2.665   1.569 -1.5192 -0.6291 -2.0478
  182ccc    H15 5629   5.566   2.779   1.671  0.8990 -0.3094  1.4367
  182ccc     C9 5630   5.621   2.601   1.776  0.5087 -0.5098 -0.8183
  182ccc     O3 5631   5.594   2.487   1.804 -0.4809 -0.0491  0.2156
  182ccc     O4 5632   5.732   2.652   1.822  0.4341 -0.2867  0.5254
  182ccc    H16 5633   5.767   2.586   1.884  1.0257 -2.1727 -1.6987
  182ccc     O5 5634   5.232   2.451   1.131 -0.6479  0.2471 -0.1126
  182ccc    H17 5635   5.522   2.645   1.373  0.5366  2.8213 -0.8505
  183ccc     C1 5636   4.131   4.275  -0.018 -0.8820 -0.1832 -0.0217
  183ccc     H1 5637   4.217   4.213   0.010 -0.2286  0.3626 -0.7879
  183ccc     H2 5638   4.089   4.241  -0.114 -2.0159  2.0481 -0.3952
  183ccc     C2 5639   4.200   4.411  -0.032  0.1522 -0.3726 -0.3169
  183ccc     H3 5640   4.121   4.473  -0.076 -3.6539 -3.7135  1.1512
  183ccc     H4 5641   4.279   4.413  -0.108 -0.5372 -1.0533 -1.0697
  183ccc     C3 5642   4.243   4.472   0.099  0.6742 -0.2939 -0.3897
  183ccc     H5 5643   4.272   4.388   0.163 -1.1732 -0.9311 -0.3444
  183ccc     H6 5644   4.156   4.525   0.137  0.7313  0.0887 -0.7785
  183ccc     N1 5645   4.368   4.565   0.082  0.2425 -0.1066 -0.0337
  183ccc     C4 5646   4.354   4.678   0.179 -0.4298  0.4338 -0.3387
  183ccc     H7 5647   4.444   4.740   0.178 -1.1329  1.4821 -0.1611
  183ccc     H8 5648   4.338   4.636   0.278 -0.1895 -1.3157 -1.0191
  183ccc     C5 5649   4.239   4.781   0.152 -0.5753  0.8157 -0.2112
  183ccc     H9 5650   4.238   4.809   0.046 -0.4571  0.3468 -0.3354
  183ccc    H10 5651   4.144   4.729   0.174  1.1319 -2.1226  0.7783
  183ccc     C6 5652   4.252   4.906   0.246  0.9025 -0.0621 -0.0561
  183ccc     O1 5653   4.235   4.898   0.364 -0.1468  0.2189 -0.4453
  183ccc     O2 5654   4.274   5.027   0.185 -0.0383  0.0759 -0.1693
  183ccc    H11 5655   4.294   5.093   0.253  0.7462  0.3786 -0.6785
  183ccc     C7 5656   4.496   4.489   0.087 -0.5484  0.4212 -0.2283
  183ccc    H12 5657   4.496   4.442   0.186  1.1824 -0.1141 -0.4510
  183ccc    H13 5658   4.499   4.414   0.008  3.7869 -0.6084  0.6696
  183ccc     C8 5659   4.626   4.566   0.070 -0.4698 -0.3280 -0.2766
  183ccc    H14 5660   4.614   4.644  -0.005 -1.1211 -0.4641 -0.3176
  183ccc    H15 5661   4.638   4.623   0.163 -2.0933 -1.5959  0.7703
  183ccc     C9 5662   4.740   4.463   0.051 -0.2266  0.1385 -0.6287
  183ccc     O3 5663   4.738   4.347   0.086  0.0651 -0.5478  0.1938
  183ccc     O4 5664   4.826   4.499  -0.044  0.3341  0.2085  0.5692
  183ccc    H16 5665   4.820   4.596  -0.036 -0.1207  0.2616 -0.3511
  183ccc     O5 5666   4.029   4.285   0.082 -0.5830 -0.3881  0.2429
  183ccc    H17 5667   4.367   4.602  -0.014  0.5807  0.3071  0.1192
  184ccc     C1 5668   3.375   4.341  -0.382  0.2578 -0.7495 -0.2210
  184ccc     H1 5669   3.269   4.334  -0.355  0.5321  0.0479  1.1257
  184ccc     H2 5670   3.397   4.443  -0.417 -2.3384 -0.3728 -0.9247
  184ccc     C2 5671   3.397   4.241  -0.501 -0.1718 -0.5730  0.1591
  184ccc     H3 5672   3.319   4.248  -0.579 -0.4896 -0.9839  0.4414
  184ccc     H4 5673   3.380   4.141  -0.459  0.6731 -0.5602  0.5395
  184ccc     C3 5674   3.540   4.246  -0.558 -0.5908  0.2998  0.5032
  184ccc     H5 5675   3.593   4.323  -0.502 -0.8813  0.1036  1.0592
  184ccc     H6 5676   3.515   4.270  -0.662 -1.1765 -1.6294  0.1556
  184ccc     N1 5677   3.622   4.115  -0.549  0.0764  0.2286 -0.1840
  184ccc     C4 5678   3.653   4.079  -0.407 -0.0597 -0.0519 -0.1663
  184ccc     H7 5679   3.589   4.002  -0.363  0.8284 -0.0140  1.2667
  184ccc     H8 5680   3.634   4.174  -0.356  0.5651  0.4205 -0.7948
  184ccc     C5 5681   3.792   4.026  -0.390  0.3676 -0.9174  0.1978
  184ccc     H9 5682   3.791   3.930  -0.444  0.0668 -1.5126  1.2412
  184ccc    H10 5683   3.853   4.100  -0.444  0.2390 -1.0475 -0.1308
  184ccc     C6 5684   3.843   4.008  -0.253 -0.2072 -0.5808 -0.2955
  184ccc     O1 5685   3.786   4.055  -0.152 -0.1018  0.3931 -0.1747
  184ccc     O2 5686   3.949   3.920  -0.243  0.5333  0.2313  0.0334
  184ccc    H11 5687   3.984   3.899  -0.331 -1.3263  1.8448 -1.1814
  184ccc     C7 5688   3.543   4.015  -0.645 -0.3676  0.1640 -0.4865
  184ccc    H12 5689   3.459   3.976  -0.587  0.4852  0.8015  1.2252
  184ccc    H13 5690   3.505   4.067  -0.733  1.0984  1.6201 -0.2999
  184ccc     C8 5691   3.640   3.898  -0.694  0.5297  0.0074  0.5074
  184ccc    H14 5692   3.740   3.937  -0.714  0.5174 -0.1912  0.0204
  184ccc    H15 5693   3.660   3.815  -0.625 -1.7981 -2.6385 -1.6988
  184ccc     C9 5694   3.586   3.818  -0.810  1.0215 -0.4084  0.7924
  184ccc     O3 5695   3.624   3.832  -0.928  0.4836  0.8236 -0.1820
  184ccc     O4 5696   3.501   3.722  -0.781 -0.2382 -0.2269  0.4575
  184ccc    H16 5697   3.466   3.731  -0.690 -1.0178 -1.1883  0.2756
  184ccc     O5 5698   3.452   4.296  -0.263 -0.0809  0.6152  0.3856
  184ccc    H17 5699   3.705   4.142  -0.603 -1.2165 -0.3616 -2.6270
  185ccc     C1 5700   4.785   3.635   0.185 -0.2000 -0.5109 -0.0118
  185ccc     H1 5701   4.717   3.555   0.215 -1.1307 -0.0122 -0.7475
  185ccc     H2 5702   4.882   3.598   0.221 -0.2086 -0.1869  0.3483
  185ccc     C2 5703   4.743   3.768   0.245 -0.5682 -0.2282  0.2806
  185ccc     H3 5704   4.730   3.757   0.353 -0.9042  1.1821  0.4121
  185ccc     H4 5705   4.648   3.788   0.193  0.2743 -0.4139 -1.3866
  185ccc     C3 5706   4.837   3.878   0.210 -0.3151 -0.1814 -0.0088
  185ccc     H5 5707   4.845   3.875   0.102  0.1742 -3.2178  0.0049
  185ccc     H6 5708   4.933   3.860   0.259 -0.3604  1.6070  0.7917
  185ccc     N1 5709   4.776   4.018   0.245  0.4694  0.6651 -1.2259
  185ccc     C4 5710   4.880   4.130   0.238 -0.2413  0.5134 -0.3612
  185ccc     H7 5711   4.876   4.180   0.141  0.6830 -0.8089 -1.1083
  185ccc     H8 5712   4.979   4.083   0.241 -1.1878 -1.5254  0.9793
  185ccc     C5 5713   4.864   4.233   0.346  0.1126 -0.5685  0.2688
  185ccc     H9 5714   4.763   4.274   0.349 -0.2352 -1.4292  0.5609
  185ccc    H10 5715   4.883   4.181   0.441 -1.8615  1.4213  1.8783
  185ccc     C6 5716   4.962   4.355   0.349  0.2164  0.0550  0.7115
  185ccc     O1 5717   5.041   4.377   0.258 -0.5497  0.0667  0.3256
  185ccc     O2 5718   4.935   4.437   0.443  0.0197  0.1084 -0.3335
  185ccc    H11 5719   4.984   4.518   0.419 -1.7512  1.0473 -0.9651
  185ccc     C7 5720   4.644   4.050   0.177 -0.4141  0.2387 -0.2717
  185ccc    H12 5721   4.561   3.987   0.207 -0.3956 -1.1622 -2.9596
  185ccc    H13 5722   4.623   4.155   0.202  0.8276  0.2482  0.9003
  185ccc     C8 5723   4.660   4.039   0.024  0.1702  0.6468  0.9794
  185ccc    H14 5724   4.750   4.093  -0.009  1.9953 -1.9397  1.3639
  185ccc    H15 5725   4.675   3.932   0.001  0.5501  1.0551 -0.8080
  185ccc     C9 5726   4.521   4.076  -0.053 -1.1925 -0.2257 -0.6070
  185ccc     O3 5727   4.463   4.180  -0.028 -0.2266 -0.4219 -0.1018
  185ccc     O4 5728   4.499   4.008  -0.168  0.1083  0.0393 -0.6203
  185ccc    H16 5729   4.440   4.074  -0.208  0.2361  0.8865  0.5458
  185ccc     O5 5730   4.789   3.649   0.042  0.1650  0.0303  0.2531
  185ccc    H17 5731   4.745   4.015   0.343  0.3510 -0.5119 -1.2883
  186ccc     C1 5732   4.479   3.571  -0.687 -0.0741 -0.9094  0.5145
  186ccc     H1 5733   4.419   3.644  -0.742  0.9388 -0.9007 -0.6389
  186ccc     H2 5734   4.584   3.580  -0.719 -0.8852  0.8961 -2.0460
  186ccc     C2 5735   4.438   3.428  -0.722  0.4372 -0.3942  0.3475
  186ccc     H3 5736   4.509   3.353  -0.685  0.0883 -1.0959 -0.3713
  186ccc     H4 5737   4.436   3.411  -0.831  0.5304  1.0245  0.1068
  186ccc     C3 5738   4.300   3.393  -0.664  0.1014 -0.1116 -0.2291
  186ccc     H5 5739   4.216   3.441  -0.715 -1.5355 -1.7880  0.7549
  186ccc     H6 5740   4.300   3.426  -0.560 -0.3389  0.2049 -0.3232
  186ccc     N1 5741   4.273   3.239  -0.655  0.5521  0.0254 -0.5938
  186ccc     C4 5742   4.360   3.165  -0.553 -0.0292 -0.1524  0.0453
  186ccc     H7 5743   4.351   3.203  -0.451  0.0393 -2.0618  0.7965
  186ccc     H8 5744   4.461   3.182  -0.592 -0.5748  0.8792 -0.9728
  186ccc     C5 5745   4.356   3.015  -0.555  0.2361  0.4824 -0.0172
  186ccc     H9 5746   4.262   2.977  -0.513  1.3200 -1.0414  1.1778
  186ccc    H10 5747   4.357   2.976  -0.658 -0.9781 -0.7903  0.4198
  186ccc     C6 5748   4.465   2.950  -0.465 -0.3596 -0.3497 -0.0547
  186ccc     O1 5749   4.551   3.015  -0.406  0.7654 -0.8122 -0.0218
  186ccc     O2 5750   4.474   2.819  -0.471  0.0331  0.4507  0.1444
  186ccc    H11 5751   4.522   2.795  -0.390 -0.7828 -1.5434  0.0891
  186ccc     C7 5752   4.124   3.224  -0.620  0.0253 -0.1209 -0.4448
  186ccc    H12 5753   4.106   3.118  -0.604  0.4585  0.1131  2.0970
  186ccc    H13 5754   4.105   3.263  -0.519  0.4210 -0.4229 -0.2494
  186ccc     C8 5755   4.023   3.277  -0.720 -0.3145 -0.0544  0.5874
  186ccc    H14 5756   4.051   3.380  -0.747  2.1148 -0.4878  1.2159
  186ccc    H15 5757   4.014   3.223  -0.815 -2.2044 -0.4418  0.9383
  186ccc     C9 5758   3.882   3.297  -0.658 -0.6577  0.1491  0.3457
  186ccc     O3 5759   3.816   3.214  -0.601  0.3249 -0.1215 -0.0073
  186ccc     O4 5760   3.858   3.427  -0.651  0.6515  0.3465  0.1925
  186ccc    H16 5761   3.768   3.435  -0.616  1.4675  3.6376  1.9066
  186ccc     O5 5762   4.462   3.602  -0.548  0.1342  0.5023  0.5563
  186ccc    H17 5763   4.285   3.201  -0.750  2.8097 -1.5190  0.2278
  187ccc     C1 5764   2.971   3.831   1.666 -0.2030  0.0627  0.1517
  187ccc     H1 5765   3.030   3.908   1.717  1.8027 -0.0052 -1.9040
  187ccc     H2 5766   2.867   3.861   1.685  0.0466  0.7555  0.4549
  187ccc     C2 5767   2.999   3.693   1.726 -0.3899  1.3758 -0.5671
  187ccc     H3 5768   2.996   3.694   1.835 -0.0128  0.6838 -0.5477
  187ccc     H4 5769   3.100   3.663   1.695 -0.7120 -0.0565 -0.2841
  187ccc     C3 5770   2.899   3.590   1.673  0.1248  0.9224 -0.1814
  187ccc     H5 5771   2.873   3.604   1.568 -0.3521 -0.4114 -0.2617
  187ccc     H6 5772   2.801   3.619   1.711 -0.0689  0.8775 -0.6345
  187ccc     N1 5773   2.910   3.442   1.711 -0.1526  0.8880  0.0299
  187ccc     C4 5774   3.022   3.371   1.632  0.0746  0.0088 -0.4263
  187ccc     H7 5775   3.026   3.270   1.674 -1.7147 -0.7903 -1.9917
  187ccc     H8 5776   3.116   3.425   1.642 -0.2023  0.4233 -0.0542
  187ccc     C5 5777   2.972   3.359   1.487 -0.8352  0.2061 -0.5333
  187ccc     H9 5778   2.931   3.258   1.469  3.0710 -1.3948 -1.4993
  187ccc    H10 5779   2.897   3.432   1.455  0.4638  2.3708  1.1725
  187ccc     C6 5780   3.095   3.378   1.404 -0.3026  0.0553  0.2958
  187ccc     O1 5781   3.153   3.487   1.394  0.3725 -0.0616  0.3887
  187ccc     O2 5782   3.127   3.274   1.326  0.1190 -0.8426 -0.3742
  187ccc    H11 5783   3.181   3.305   1.251 -0.3250 -1.4011 -0.9396
  187ccc     C7 5784   2.940   3.413   1.858 -0.0167  0.5772 -0.3265
  187ccc    H12 5785   2.953   3.305   1.869 -0.2652  0.7729  3.1327
  187ccc    H13 5786   3.029   3.472   1.884 -2.3486  2.8654  3.4038
  187ccc     C8 5787   2.814   3.444   1.952 -0.4405 -0.1144  0.2328
  187ccc    H14 5788   2.786   3.550   1.958 -1.9003 -0.4146 -0.7873
  187ccc    H15 5789   2.731   3.376   1.928 -1.8751  1.7178 -0.1944
  187ccc     C9 5790   2.844   3.392   2.091 -0.6190 -0.4950  0.1793
  187ccc     O3 5791   2.944   3.332   2.134  0.0858  0.6467 -0.3968
  187ccc     O4 5792   2.778   3.452   2.188 -0.1022  0.5005  0.6205
  187ccc    H16 5793   2.702   3.500   2.150 -2.2482 -0.8755  2.8599
  187ccc     O5 5794   3.001   3.824   1.527 -0.2882  0.1761  0.4318
  187ccc    H17 5795   2.826   3.396   1.675  0.5345 -0.1486 -0.2992
  188ccc     C1 5796   2.803   3.865   0.937  0.1332 -0.2600  0.0509
  188ccc     H1 5797   2.720   3.817   0.883  1.2917 -2.5072  0.1663
  188ccc     H2 5798   2.773   3.877   1.042 -0.5787  2.8866 -0.3850
  188ccc     C2 5799   2.832   4.005   0.871 -0.6213  0.5132 -0.2130
  188ccc     H3 5800   2.921   4.053   0.915  0.6364 -1.9684  0.1650
  188ccc     H4 5801   2.750   4.076   0.883 -0.3978  0.6813  0.3304
  188ccc     C3 5802   2.851   3.979   0.719  0.1474  0.0131 -0.0945
  188ccc     H5 5803   2.758   3.951   0.670  1.2207  1.2430 -3.0295
  188ccc     H6 5804   2.918   3.893   0.713  1.0424  0.5312  1.6532
  188ccc     N1 5805   2.912   4.090   0.644 -0.4619  0.1861 -0.6936
  188ccc     C4 5806   2.924   4.041   0.512  0.0339 -0.0001  0.3065
  188ccc     H7 5807   2.828   4.066   0.466 -0.9489  0.9902  2.7422
  188ccc     H8 5808   2.934   3.932   0.517  0.5995 -0.0251 -1.1403
  188ccc     C5 5809   3.037   4.101   0.425  0.2545  0.3741 -0.3489
  188ccc     H9 5810   3.019   4.208   0.410  1.0347  0.7286  0.9891
  188ccc    H10 5811   3.130   4.087   0.483 -0.9636  1.3482  1.9565
  188ccc     C6 5812   3.046   4.020   0.296  0.3163  0.2525  0.5603
  188ccc     O1 5813   2.956   3.952   0.250 -0.3593  0.2569 -0.5088
  188ccc     O2 5814   3.163   4.013   0.235 -0.8054 -0.2826  0.0024
  188ccc    H11 5815   3.142   3.940   0.175  0.7316 -0.4870 -0.3185
  188ccc     C7 5816   2.817   4.207   0.650  0.1478  0.2832 -0.5465
  188ccc    H12 5817   2.810   4.248   0.550 -0.3579 -0.0401 -0.6449
  188ccc    H13 5818   2.721   4.166   0.681  1.1750 -0.0966  2.5529
  188ccc     C8 5819   2.862   4.323   0.735  0.3993  0.1486 -0.5546
  188ccc    H14 5820   2.863   4.291   0.840 -1.5416  1.0925 -0.1960
  188ccc    H15 5821   2.954   4.374   0.704  0.1294  2.4516  1.9909
  188ccc     C9 5822   2.742   4.425   0.727  0.3236  0.4677 -0.3729
  188ccc     O3 5823   2.623   4.397   0.707 -0.1467  0.0977 -0.1966
  188ccc     O4 5824   2.779   4.550   0.746  0.2264  0.1281  0.3024
  188ccc    H16 5825   2.688   4.583   0.755  1.3354  3.1111  1.6363
  188ccc     O5 5826   2.934   3.801   0.927 -0.0794 -0.5690 -0.1818
  188ccc    H17 5827   3.000   4.108   0.695 -0.8590 -1.2098  0.5568
  189ccc     C1 5828   3.828   3.835   2.590  0.0046  0.0464  0.4006
  189ccc     H1 5829   3.896   3.876   2.666  0.1087 -0.2512  0.4710
  189ccc     H2 5830   3.724   3.846   2.623 -0.6183  0.4258 -1.5495
  189ccc     C2 5831   3.856   3.681   2.582  0.8063 -0.1836 -0.0083
  189ccc     H3 5832   3.855   3.631   2.680  0.9337 -0.5473 -0.1904
  189ccc     H4 5833   3.950   3.659   2.529  1.0614 -0.9995  0.7592
  189ccc     C3 5834   3.735   3.625   2.506  0.4618  0.6612  0.3936
  189ccc     H5 5835   3.731   3.676   2.409 -2.4313  1.8675  1.0447
  189ccc     H6 5836   3.638   3.652   2.547 -0.8086  2.2704 -3.2346
  189ccc     N1 5837   3.733   3.467   2.473  0.2793 -0.0078 -0.0298
  189ccc     C4 5838   3.857   3.417   2.393  0.1065  0.8320 -0.0660
  189ccc     H7 5839   3.849   3.308   2.398 -1.1508  0.5114 -4.5155
  189ccc     H8 5840   3.943   3.448   2.452  1.8886 -3.5081  0.0146
  189ccc     C5 5841   3.872   3.467   2.248  1.0135 -0.4282  0.2069
  189ccc     H9 5842   3.793   3.438   2.177  1.8545  1.3609 -1.5687
  189ccc    H10 5843   3.873   3.577   2.243  2.1490 -0.4716 -1.2915
  189ccc     C6 5844   3.999   3.429   2.179 -0.3439  0.0515 -0.2521
  189ccc     O1 5845   4.109   3.443   2.234  0.5466 -0.0961 -0.2769
  189ccc     O2 5846   3.993   3.419   2.040 -0.3750 -0.0886 -0.2439
  189ccc    H11 5847   4.088   3.418   2.019 -0.2638 -2.2524  0.1286
  189ccc     C7 5848   3.739   3.400   2.609 -0.6027  0.2051  0.0212
  189ccc    H12 5849   3.839   3.406   2.652 -1.1376  2.4711  1.0913
  189ccc    H13 5850   3.671   3.452   2.677 -2.1324  0.2670 -1.4992
  189ccc     C8 5851   3.698   3.252   2.609 -0.7243 -0.7439  0.1110
  189ccc    H14 5852   3.721   3.201   2.515  0.4370  0.1678 -0.1153
  189ccc    H15 5853   3.753   3.199   2.689 -2.9368 -1.1571  1.4482
  189ccc     C9 5854   3.548   3.235   2.618  0.5544  0.1845  0.1655
  189ccc     O3 5855   3.475   3.326   2.648  0.1150 -0.6735  0.5478
  189ccc     O4 5856   3.511   3.122   2.674  0.0325 -0.0312 -0.3224
  189ccc    H16 5857   3.419   3.148   2.692 -0.1534 -1.1424  0.4203
  189ccc     O5 5858   3.852   3.893   2.468 -0.0759 -0.4012  0.1878
  189ccc    H17 5859   3.652   3.443   2.414  0.3145  0.0901 -0.1198
  190ccc     C1 5860   4.392   3.639   2.461  0.0792  0.6163 -0.1586
  190ccc     H1 5861   4.499   3.663   2.451 -0.2169  1.5978 -1.1196
  190ccc     H2 5862   4.354   3.662   2.561 -2.0958  0.9544 -1.0154
  190ccc     C2 5863   4.385   3.489   2.450 -0.1983  0.3776 -0.2158
  190ccc     H3 5864   4.281   3.455   2.436 -0.1233 -0.4928  1.1937
  190ccc     H4 5865   4.423   3.441   2.541  0.2704  1.2998  0.0763
  190ccc     C3 5866   4.467   3.442   2.328 -0.3236  0.0006  0.0884
  190ccc     H5 5867   4.551   3.511   2.317 -0.2197 -0.2964 -1.0950
  190ccc     H6 5868   4.413   3.453   2.234 -0.0527  2.1157  0.1295
  190ccc     N1 5869   4.536   3.311   2.340 -0.0195 -0.5362  0.3636
  190ccc     C4 5870   4.427   3.207   2.347  0.2703  0.5473  0.1661
  190ccc     H7 5871   4.353   3.234   2.423 -1.3503  2.3804 -1.9281
  190ccc     H8 5872   4.483   3.117   2.371 -1.4134 -0.4441  0.5014
  190ccc     C5 5873   4.351   3.175   2.216 -0.2622  0.2260  0.6116
  190ccc     H9 5874   4.294   3.262   2.179  0.4662 -0.1642 -1.5810
  190ccc    H10 5875   4.425   3.156   2.137  0.3471  0.1222  1.2052
  190ccc     C6 5876   4.248   3.065   2.229  0.1376 -0.2235 -1.0280
  190ccc     O1 5877   4.229   2.996   2.332  0.3615  0.3859 -0.0761
  190ccc     O2 5878   4.151   3.067   2.138 -0.0599 -0.1918  0.1838
  190ccc    H11 5879   4.201   3.107   2.064 -1.9796 -0.4284 -1.3271
  190ccc     C7 5880   4.635   3.285   2.228  0.6420 -0.2453 -0.1292
  190ccc    H12 5881   4.657   3.178   2.218 -0.7367 -0.5631 -0.0026
  190ccc    H13 5882   4.591   3.319   2.134 -2.6598  1.7263  1.9199
  190ccc     C8 5883   4.770   3.349   2.244 -0.8659  0.0471 -0.6155
  190ccc    H14 5884   4.752   3.456   2.235  1.0148  0.5232  0.5752
  190ccc    H15 5885   4.819   3.319   2.338  0.6716  0.4212 -1.2773
  190ccc     C9 5886   4.861   3.298   2.138 -0.0876  0.2013  0.7777
  190ccc     O3 5887   4.839   3.196   2.076  0.1233  0.1627  0.5514
  190ccc     O4 5888   4.962   3.382   2.098 -0.5178  0.1331 -0.6417
  190ccc    H16 5889   4.973   3.460   2.155  0.0186  0.4257 -1.1301
  190ccc     O5 5890   4.318   3.695   2.350 -0.0505 -0.1291 -0.4577
  190ccc    H17 5891   4.581   3.303   2.433 -3.0076 -0.7215  1.8967
  191SOL     OW 5892   9.394   1.174   9.413  1.1997  0.0666  0.3333
  191SOL    HW1 5893   9.441   1.094   9.389 -0.5443 -0.9191  0.0388
  191SOL    HW2 5894   9.413   1.187   9.506 -0.8021 -2.3972  1.1858
  192SOL     OW 5895  11.287   4.256   4.320  0.4463 -0.1099 -0.4992
  192SOL    HW1 5896  11.285   4.321   4.249 -0.7462 -0.1122 -0.4955
  192SOL    HW2 5897  11.196   4.225   4.326  0.3877  0.3026  1.3928
  193SOL     OW 5898   2.530   9.388  11.496 -0.2552  0.3220 -0.0665
  193SOL    HW1 5899   2.603   9.446  11.517 -1.1151  2.1086 -1.7170
  193SOL    HW2 5900   2.489   9.427  11.419 -2.7212 -0.8441  0.5456
  194SOL     OW 5901   3.652   9.371   7.848 -0.6306  0.2223  0.0099
  194SOL    HW1 5902   3.596   9.294   7.858  0.0357 -0.2744 -0.0233
  194SOL    HW2 5903   3.675   9.372   7.755 -0.4147  0.3036  0.0636
  195SOL     OW 5904   8.689   6.878   9.738 -0.2505 -0.3931 -0.2033
  195SOL    HW1 5905   8.620   6.867   9.802 -0.3769  4.0753  0.7403
  195SOL    HW2 5906   8.770   6.862   9.786 -0.4482  0.5015  0.4497
  196SOL     OW 5907   4.869   8.746   6.487  0.2614 -0.2444  0.0998
  196SOL    HW1 5908   4.852   8.758   6.394 -0.2901 -1.6972 -0.0023
  196SOL    HW2 5909   4.902   8.831   6.516 -2.5579  1.2743 -0.7395
  197SOL     OW 5910   2.935   7.496   3.781  0.0068  0.0077  0.0219
  197SOL    HW1 5911   2.850   7.523   3.747  0.2034 -0.1656 -0.6166
  197SOL    HW2 5912   2.928   7.509   3.876 -1.3547 -1.6699  0.2078
  198SOL     OW 5913   9.497   8.149   9.018  0.1252 -0.0796  0.6114
  198SOL    HW1 5914   9.473   8.060   9.042 -0.9624 -0.8460 -2.8274
  198SOL    HW2 5915   9.423   8.202   9.046  0.1986 -0.4301  1.5033
  199SOL     OW 5916   2.717   5.720   4.733  0.0552 -0.1954  0.1128
  199SOL    HW1 5917   2.790   5.756   4.784  1.1616  2.1362 -2.7657
  199SOL    HW2 5918   2.667   5.797   4.706 -1.5773 -1.4886 -0.6699
  200SOL     OW 5919   8.243   7.398   9.454 -0.3237  0.5471 -0.0284
  200SOL    HW1 5920   8.324   7.360   9.486 -0.7102  1.3996  2.0891
  200SOL    HW2 5921   8.255   7.493   9.463 -1.3544  0.7098 -0.1945
  201SOL     OW 5922   6.222   9.809   6.794 -0.5135  0.6214  0.4108
  201SOL    HW1 5923   6.282   9.741   6.763 -1.1489  0.8651 -1.5367
  201SOL    HW2 5924   6.238   9.883   6.735  0.1148  2.1795  2.4304
  202SOL     OW 5925   6.819  11.121   0.016  0.5167 -0.1713  0.0746
  202SOL    HW1 5926   6.909  11.146  -0.003  0.0698  0.1260 -1.8016
  202SOL    HW2 5927   6.775  11.204   0.036 -0.0946  0.1622 -2.4128
  203SOL     OW 5928   7.762  10.776   5.962 -0.2981 -0.0115 -0.1899
  203SOL    HW1 5929   7.684  10.831   5.951 -0.1391  0.7844  2.0856
  203SOL    HW2 5930   7.834  10.839   5.975  0.5471 -0.7519 -1.1372
  204SOL     OW 5931  10.784   2.334   6.615 -0.2920  0.5878  0.0749
  204SOL    HW1 5932  10.782   2.242   6.640  0.5481  1.0117  1.8273
  204SOL    HW2 5933  10.692   2.356   6.597 -0.5108 -0.5459 -0.2793
  205SOL     OW 5934   9.925   8.849   7.440 -0.3490  0.4985 -0.3099
  205SOL    HW1 5935   9.896   8.849   7.348 -2.8731  1.9003  0.3860
  205SOL    HW2 5936   9.875   8.920   7.481 -1.0895 -1.5388  2.6491
  206SOL     OW 5937   3.727  10.407   9.173  0.6199 -0.0515 -0.2533
  206SOL    HW1 5938   3.743  10.409   9.079  1.4052 -2.8188 -0.2618
  206SOL    HW2 5939   3.651  10.350   9.184  1.3220 -0.8178  0.8356
  207SOL     OW 5940  10.478   5.436  10.556 -0.7417 -0.0093  0.1466
  207SOL    HW1 5941  10.537   5.499  10.596 -0.0336 -1.0850  0.8516
  207SOL    HW2 5942  10.390   5.470  10.575 -0.5023  3.0757 -3.2477
  208SOL     OW 5943   1.614   2.549   1.716  0.1880 -0.0234 -0.3335
  208SOL    HW1 5944   1.677   2.513   1.778 -0.7395 -0.5100  0.3500
  208SOL    HW2 5945   1.529   2.524   1.751 -0.3513 -1.6900 -2.6148
  209SOL     OW 5946   8.236   7.880   3.117 -0.3670  0.0563  0.0171
  209SOL    HW1 5947   8.271   7.968   3.127  1.2982 -0.2444 -2.4132
  209SOL    HW2 5948   8.163   7.890   3.056  0.3086 -0.3353 -0.8630
  210SOL     OW 5949  10.355   7.146   6.984 -0.4467 -0.2028  0.4520
  210SOL    HW1 5950  10.450   7.157   6.973 -0.4863 -0.6297 -0.4943
  210SOL    HW2 5951  10.323   7.133   6.895 -1.3649 -0.3082  0.7916
  211SOL     OW 5952   4.919   5.049   6.553 -0.5301 -0.1652  0.2105
  211SOL    HW1 5953   4.885   5.116   6.612 -3.1625 -1.7403  0.6311
  211SOL    HW2 5954   4.894   4.966   6.594  0.4550 -1.3791 -1.5138
  212SOL     OW 5955   5.905   3.254   6.124 -0.5214 -0.4434 -0.3500
  212SOL    HW1 5956   5.911   3.340   6.083 -6.0199  1.3304  1.5649
  212SOL    HW2 5957   5.857   3.200   6.061  0.1611 -1.1047 -0.3159
  213SOL     OW 5958   9.391   2.310   3.540 -0.2444 -0.5622 -0.4083
  213SOL    HW1 5959   9.348   2.267   3.466 -1.0056  1.9067 -1.5011
  213SOL    HW2 5960   9.323   2.313   3.608 -0.0877 -1.2914 -0.2038
  214SOL     OW 5961   8.101   7.738  11.439  0.3024  0.0802 -0.2763
  214SOL    HW1 5962   8.141   7.814  11.483 -3.1441  3.0370 -1.7421
  214SOL    HW2 5963   8.153   7.726  11.360  1.3225  0.3812  0.3208
  215SOL     OW 5964   6.126   8.872   2.308 -0.6239 -0.0662  0.2507
  215SOL    HW1 5965   6.149   8.789   2.266 -1.5913  0.1422 -0.7431
  215SOL    HW2 5966   6.087   8.848   2.392  0.4505 -0.5417  0.6240
  216SOL     OW 5967   1.111   6.344   3.207 -0.5144 -0.1572  0.1262
  216SOL    HW1 5968   1.136   6.436   3.201 -0.9190 -0.0898 -0.7478
  216SOL    HW2 5969   1.179   6.304   3.261 -0.8483  0.8340  1.3280
  217SOL     OW 5970   5.955   3.581   6.875  0.3796  0.1718  0.5073
  217SOL    HW1 5971   5.962   3.555   6.783 -0.5358  1.0334  0.1829
  217SOL    HW2 5972   5.967   3.676   6.874 -1.7844  0.4973  0.9971
  218SOL     OW 5973   6.902   6.970  11.822 -0.1519 -0.1327  0.0286
  218SOL    HW1 5974   6.901   6.906  11.751 -1.0930 -1.0018  0.7999
  218SOL    HW2 5975   6.994   6.981  11.844  0.0702 -0.6434 -0.6267
  219SOL     OW 5976   7.633   0.533   3.934 -0.1875 -0.1102 -0.6117
  219SOL    HW1 5977   7.689   0.602   3.967 -0.9167  0.4605 -0.5481
  219SOL    HW2 5978   7.669   0.453   3.972 -0.2688  0.3954  0.5618
  220SOL     OW 5979   6.740   9.604   4.443  0.5583  0.0450 -0.2693
  220SOL    HW1 5980   6.718   9.549   4.368  2.2763 -1.3035  0.1440
  220SOL    HW2 5981   6.799   9.670   4.408 -0.8354  1.1387 -0.6048
  221SOL     OW 5982   3.840   5.462   9.657  0.2831  0.3551  0.2751
  221SOL    HW1 5983   3.896   5.539   9.662  0.7118 -0.0200  1.6882
  221SOL    HW2 5984   3.859   5.424   9.572  1.0202  1.0947  0.0954
  222SOL     OW 5985   7.925   6.830   0.920 -0.2562  0.1498 -0.4101
  222SOL    HW1 5986   7.945   6.916   0.883 -1.6869 -0.1753 -2.0563
  222SOL    HW2 5987   7.929   6.843   1.015  0.8261  1.6981 -0.6307
  223SOL     OW 5988   5.549   6.384   6.214  0.2836 -0.3801  0.0540
  223SOL    HW1 5989   5.503   6.457   6.172 -0.4796 -0.4178  0.7932
  223SOL    HW2 5990   5.622   6.425   6.261 -1.6942  0.3351  2.7543
  224SOL     OW 5991   2.628   4.228   7.883 -0.1513  0.7254  0.4084
  224SOL    HW1 5992   2.629   4.286   7.807  0.0600 -0.1651 -0.2939
  224SOL    HW2 5993   2.720   4.221   7.908 -0.3015  1.6392  1.2473
  225SOL     OW 5994   8.466   7.018   2.843 -0.2381  0.4646 -0.2884
  225SOL    HW1 5995   8.439   7.003   2.933 -0.5115 -1.7234 -0.6767
  225SOL    HW2 5996   8.528   6.948   2.825  1.9379  2.4543 -0.9931
  226SOL     OW 5997   3.838   3.126   4.641 -0.0584  0.7132 -0.0357
  226SOL    HW1 5998   3.932   3.111   4.625 -0.1324  1.8174 -1.7855
  226SOL    HW2 5999   3.812   3.055   4.699  2.0689  0.9313  1.2833
  227SOL     OW 6000   4.648  11.622   2.650  0.6677 -0.5768 -0.3681
  227SOL    HW1 6001   4.594  11.700   2.663  1.1187 -0.2472 -0.4628
  227SOL    HW2 6002   4.619  11.586   2.566  1.1517  0.0604 -0.8180
  228SOL     OW 6003   0.724   1.983   1.541  0.1424  0.0943 -0.0936
  228SOL    HW1 6004   0.672   1.922   1.594  1.9654 -0.1222  1.5160
  228SOL    HW2 6005   0.673   2.064   1.543  0.2042  0.1373  2.1301
  229SOL     OW 6006   6.977   4.029  10.203  0.6978  0.2069  0.1339
  229SOL    HW1 6007   7.054   4.005  10.256 -0.8865 -1.6123  1.7550
  229SOL    HW2 6008   6.971   3.960  10.137  1.3516  1.2569 -1.0825
  230SOL     OW 6009  10.109   7.903   3.994  0.0525  0.1374  0.0080
  230SOL    HW1 6010  10.135   7.830   4.051  1.5719  1.0311  0.5081
  230SOL    HW2 6011  10.071   7.967   4.054  2.1367  1.3060  0.1594
  231SOL     OW 6012   5.819   9.653   0.510  0.2730  0.1962 -0.0484
  231SOL    HW1 6013   5.805   9.737   0.466 -3.8531  0.4183  1.1745
  231SOL    HW2 6014   5.804   9.588   0.442 -1.2668  0.5261 -0.0646
  232SOL     OW 6015   5.417   5.256   3.860 -0.5762 -0.2434  0.4888
  232SOL    HW1 6016   5.402   5.348   3.879 -0.3270  0.1861 -1.2239
  232SOL    HW2 6017   5.511   5.250   3.842 -1.2183  0.3072 -4.5076
  233SOL     OW 6018   9.110   6.239   8.771 -0.3401 -0.0580  0.0018
  233SOL    HW1 6019   9.015   6.244   8.770 -0.2961  2.9931 -1.7450
  233SOL    HW2 6020   9.132   6.189   8.693 -0.5624  2.1485 -1.5592
  234SOL     OW 6021   2.180  10.665   6.938 -0.8109  0.5029 -0.0869
  234SOL    HW1 6022   2.189  10.587   6.883 -2.0387 -0.1580  0.5904
  234SOL    HW2 6023   2.153  10.734   6.877  0.8190  0.5618 -0.7819
  235SOL     OW 6024   6.522   0.715  11.372  0.4088  1.0042 -0.0151
  235SOL    HW1 6025   6.527   0.641  11.431  0.6420  1.6524  0.7957
  235SOL    HW2 6026   6.596   0.704  11.312  0.7259  0.8458  0.4061
  236SOL     OW 6027   2.504   6.412  10.505 -0.1202 -0.9181 -0.5579
  236SOL    HW1 6028   2.432   6.438  10.448 -0.7515  0.3381  0.7529
  236SOL    HW2 6029   2.548   6.341  10.458 -0.4793  0.1929 -2.6886
  237SOL     OW 6030   2.377   4.546   9.323 -0.0526 -0.0833 -0.2887
  237SOL    HW1 6031   2.392   4.603   9.248 -0.0480 -0.4999 -0.6062
  237SOL    HW2 6032   2.457   4.552   9.375 -0.0626  0.2159 -0.3057
  238SOL     OW 6033   4.401  10.588   7.407 -0.3540 -0.4249  0.4153
  238SOL    HW1 6034   4.492  10.559   7.407  0.4114  1.7149  1.7817
  238SOL    HW2 6035   4.357  10.528   7.347  2.0328 -1.2180 -0.6844
  239SOL     OW 6036   5.472   0.512   4.835  0.4909 -0.6659 -0.5163
  239SOL    HW1 6037   5.380   0.525   4.809  0.3760 -0.2127  0.0916
  239SOL    HW2 6038   5.523   0.544   4.760  0.1697  0.7157 -0.1758
  240SOL     OW 6039  10.636   8.905   5.055 -0.2591  0.1252 -0.2774
  240SOL    HW1 6040  10.647   9.000   5.063 -1.6067  0.1669  2.4784
  240SOL    HW2 6041  10.589   8.893   4.973 -0.6582  1.9105 -0.3586
  241SOL     OW 6042   0.319   2.537  10.065  0.3730 -0.6066 -0.3382
  241SOL    HW1 6043   0.363   2.584  10.136 -0.0553  0.7799 -0.9566
  241SOL    HW2 6044   0.358   2.572   9.985  1.4746 -2.7710 -0.8292
  242SOL     OW 6045   3.293   2.373   7.605  0.3200  0.1722  0.0341
  242SOL    HW1 6046   3.206   2.345   7.633  0.5598 -0.0162  0.6182
  242SOL    HW2 6047   3.281   2.464   7.577 -0.3714 -0.3486 -1.4580
  243SOL     OW 6048   6.584   1.804   5.254  0.3016 -0.4838 -0.0306
  243SOL    HW1 6049   6.553   1.852   5.331 -2.6026  0.0171 -1.3798
  243SOL    HW2 6050   6.603   1.873   5.190  1.3030 -0.9504 -0.2463
  244SOL     OW 6051   0.944   0.955   2.504  0.2158 -0.0779 -0.1451
  244SOL    HW1 6052   0.901   1.013   2.441 -1.0884 -0.4746  0.3637
  244SOL    HW2 6053   0.904   0.976   2.588  1.6613  0.1649  0.5116
  245SOL     OW 6054   2.775   4.157   9.807 -0.5541  0.3723  0.2282
  245SOL    HW1 6055   2.857   4.133   9.851 -1.0414 -2.1028 -0.0388
  245SOL    HW2 6056   2.794   4.145   9.714 -1.0816  0.2380  0.1347
  246SOL     OW 6057   0.330   4.884   3.535  0.1287  0.7460 -0.2579
  246SOL    HW1 6058   0.257   4.827   3.559 -0.0387  1.3057  0.6229
  246SOL    HW2 6059   0.400   4.824   3.510 -0.6815  0.1995 -1.2998
  247SOL     OW 6060   5.360  10.381   0.050  0.7444 -0.5603  0.0898
  247SOL    HW1 6061   5.368  10.475   0.038 -2.7193  0.3297  3.0218
  247SOL    HW2 6062   5.332  10.348  -0.035  0.1049  1.4087 -0.5155
  248SOL     OW 6063  10.441  10.874  11.675 -0.0111 -0.3135  0.1142
  248SOL    HW1 6064  10.355  10.879  11.631 -1.1135  0.6813  2.2587
  248SOL    HW2 6065  10.468  10.783  11.661 -0.5976 -0.2356 -1.9941
  249SOL     OW 6066   1.810   9.670   4.685 -0.1971 -0.1657  0.3539
  249SOL    HW1 6067   1.716   9.683   4.672 -0.1841 -0.7043 -0.3513
  249SOL    HW2 6068   1.819   9.576   4.702  0.3772 -0.4276 -1.2764
  250SOL     OW 6069   7.809  10.525   5.886 -0.4468  0.3287 -0.2302
  250SOL    HW1 6070   7.804  10.620   5.901  0.0776  0.5492 -1.4092
  250SOL    HW2 6071   7.808  10.515   5.791  1.9880 -0.6920 -0.2146
  251SOL     OW 6072   4.644  10.942   0.946  0.1143  0.3976  0.0806
  251SOL    HW1 6073   4.662  10.856   0.984 -0.2522  0.1578 -0.2760
  251SOL    HW2 6074   4.699  10.945   0.867  1.1746  1.0532  0.8272
  252SOL     OW 6075   7.375   7.336   8.765  0.3019  0.1649 -0.3749
  252SOL    HW1 6076   7.381   7.279   8.688 -2.4584 -1.0615  0.2296
  252SOL    HW2 6077   7.322   7.410   8.735 -1.7308 -0.8448  0.5382
  253SOL     OW 6078   3.773   1.490   4.039  0.2304 -0.2023 -0.4367
  253SOL    HW1 6079   3.857   1.511   4.080 -0.0688 -1.2181  0.7699
  253SOL    HW2 6080   3.708   1.506   4.109 -0.7768  1.8801 -1.7346
  254SOL     OW 6081   5.512   4.644   9.826 -0.0265 -0.4410  0.1604
  254SOL    HW1 6082   5.476   4.732   9.830 -0.2130 -0.5042 -0.1753
  254SOL    HW2 6083   5.607   4.657   9.823  0.1029 -0.2999  2.6576
  255SOL     OW 6084  10.307   2.125   3.352 -0.3643  0.2655  0.2487
  255SOL    HW1 6085  10.312   2.209   3.398  0.4600 -0.2858  1.2094
  255SOL    HW2 6086  10.265   2.146   3.269  2.3401  2.1442 -0.7729
  256SOL     OW 6087  10.990   9.800   3.146  0.6219  0.1466 -0.2448
  256SOL    HW1 6088  10.943   9.806   3.063  0.0757 -0.6218  0.0061
  256SOL    HW2 6089  10.971   9.712   3.179  0.8697  0.4238  0.6710
  257SOL     OW 6090   4.178  10.472   0.436 -0.4412 -0.2317  0.5327
  257SOL    HW1 6091   4.150  10.551   0.389 -0.5163  0.5631  1.8401
  257SOL    HW2 6092   4.268  10.491   0.463 -0.8569 -0.0708  1.8827
  258SOL     OW 6093   0.144   0.926   4.738  0.4823  0.4046  0.4024
  258SOL    HW1 6094   0.207   0.987   4.700  1.3987 -0.1015  1.0624
  258SOL    HW2 6095   0.197   0.851   4.767 -0.8114 -1.9216 -2.6013
  259SOL     OW 6096   9.869   5.077   8.692  0.2182 -0.0105 -0.3732
  259SOL    HW1 6097   9.945   5.043   8.740  1.1052  1.0884 -0.9487
  259SOL    HW2 6098   9.849   5.008   8.629  2.3845  0.6678 -1.9473
  260SOL     OW 6099   3.171   4.631   9.934  0.2695 -0.2273  0.0725
  260SOL    HW1 6100   3.100   4.689   9.961  0.6121 -0.2570  1.0762
  260SOL    HW2 6101   3.229   4.686   9.882  0.1901  0.1271  0.3615
  261SOL     OW 6102   9.072   6.285  11.500  0.0749 -0.2218 -0.0989
  261SOL    HW1 6103   9.118   6.308  11.580 -0.0938 -1.5249  0.3986
  261SOL    HW2 6104   8.982   6.312  11.515  0.0385 -0.4887  0.1640
  262SOL     OW 6105   1.428   5.208   1.757 -0.0517  0.2547  0.3416
  262SOL    HW1 6106   1.444   5.294   1.795 -0.9684  0.0071  1.3582
  262SOL    HW2 6107   1.339   5.213   1.722  0.2032 -0.0234 -0.3711
  263SOL     OW 6108   4.385  10.439   6.983 -0.0321  0.1394  0.4083
  263SOL    HW1 6109   4.386  10.365   6.922  2.4249  0.1392  0.3794
  263SOL    HW2 6110   4.443  10.504   6.944 -3.2356  2.8340 -0.3223
  264SOL     OW 6111   3.424   0.531   8.794 -0.1757 -0.6561 -0.1722
  264SOL    HW1 6112   3.429   0.477   8.872 -1.0363  1.2519  1.2888
  264SOL    HW2 6113   3.512   0.569   8.785 -0.7398  1.2740  1.5882
  265SOL     OW 6114  10.248   5.292  10.910  0.1355 -0.1951  0.0763
  265SOL    HW1 6115  10.253   5.375  10.958 -0.9887 -0.4091  0.6046
  265SOL    HW2 6116  10.209   5.316  10.826  1.7907  0.1260 -0.6392
  266SOL     OW 6117   6.952   2.467  10.871  0.3439 -0.2934 -0.2921
  266SOL    HW1 6118   6.998   2.500  10.948 -0.0957  1.1300 -0.5933
  266SOL    HW2 6119   7.021   2.443  10.810  0.6980 -1.5967  0.5904
  267SOL     OW 6120   4.373   2.749   5.676 -0.1052 -0.0277 -0.2786
  267SOL    HW1 6121   4.293   2.796   5.701  0.7674  0.6521  1.4140
  267SOL    HW2 6122   4.342   2.676   5.622 -1.5661  2.2156 -2.7512
  268SOL     OW 6123   2.978  11.740   3.481 -0.2118 -0.3009  0.1493
  268SOL    HW1 6124   3.041  11.807   3.454 -0.2253 -0.1130  0.5725
  268SOL    HW2 6125   3.027  11.658   3.478 -0.2788 -0.3178 -0.6708
  269SOL     OW 6126   9.008   2.598   8.698  0.8355 -0.1907 -0.3924
  269SOL    HW1 6127   8.984   2.542   8.772 -1.5396  2.6993  1.2771
  269SOL    HW2 6128   8.986   2.546   8.621 -2.0045 -1.3774  1.0271
  270SOL     OW 6129  11.823   1.321   7.733 -0.4918 -0.0113 -0.4875
  270SOL    HW1 6130  11.844   1.318   7.826 -0.1844  0.5420 -0.5351
  270SOL    HW2 6131  11.900   1.359   7.691 -0.3844 -0.8262 -1.0516
  271SOL     OW 6132  11.467   8.561   2.627  0.0919  0.3396  0.0264
  271SOL    HW1 6133  11.561   8.576   2.618  0.5595 -0.9560  2.1456
  271SOL    HW2 6134  11.445   8.500   2.556  0.9366  0.2784 -0.1892
  272SOL     OW 6135   2.591   1.905  10.444 -0.1037  0.2395 -0.2460
  272SOL    HW1 6136   2.686   1.905  10.430  0.0415 -2.1237  0.2771
  272SOL    HW2 6137   2.580   1.868  10.531 -1.5357 -2.2825 -1.3946
  273SOL     OW 6138   3.698   7.081   0.332  0.3991 -0.5315  0.2346
  273SOL    HW1 6139   3.657   7.134   0.400  1.1975  1.1541 -0.5287
  273SOL    HW2 6140   3.784   7.121   0.319  0.3484 -0.9115 -1.6031
  274SOL     OW 6141   6.795   5.802   8.519  0.9550  0.3346 -0.0551
  274SOL    HW1 6142   6.852   5.736   8.480  1.0187  0.8302 -0.8384
  274SOL    HW2 6143   6.843   5.833   8.595  1.4600  0.3134 -0.3575
  275SOL     OW 6144   7.659  10.957   5.183  0.3025  0.3684  0.4533
  275SOL    HW1 6145   7.707  10.937   5.263 -0.4022 -2.1350  0.3506
  275SOL    HW2 6146   7.727  10.966   5.116  0.8300  1.3065  1.0951
  276SOL     OW 6147   7.219  11.140   7.712 -0.6045 -0.0896 -0.1313
  276SOL    HW1 6148   7.275  11.211   7.678 -1.1215  0.5413  0.3152
  276SOL    HW2 6149   7.162  11.118   7.638 -2.0591  1.6175  0.4348
  277SOL     OW 6150   2.670  10.551  10.335 -0.4541 -0.6858 -0.0154
  277SOL    HW1 6151   2.578  10.544  10.310 -0.2536 -4.1131 -0.3139
  277SOL    HW2 6152   2.673  10.625  10.395 -2.8813  1.1510 -1.9754
  278SOL     OW 6153   6.249   0.104   8.975  0.2849 -0.1362  0.3243
  278SOL    HW1 6154   6.237   0.011   8.957  1.5448  0.1342 -2.4384
  278SOL    HW2 6155   6.320   0.107   9.039 -1.0374 -1.0669  1.9145
  279SOL     OW 6156   0.981   3.623   3.760  0.1547  0.1637  0.0891
  279SOL    HW1 6157   0.960   3.555   3.824 -0.3511 -0.4032 -0.6698
  279SOL    HW2 6158   0.982   3.704   3.811 -1.7035 -0.0689  0.5714
  280SOL     OW 6159  11.193  11.111   6.384  0.0052 -0.1608 -0.1647
  280SOL    HW1 6160  11.152  11.156   6.310  0.4117 -1.1007 -0.9904
  280SOL    HW2 6161  11.281  11.149   6.388 -0.9850  2.1961  1.9024
  281SOL     OW 6162   0.749   4.287   0.249 -0.0615  0.0637 -0.2959
  281SOL    HW1 6163   0.820   4.325   0.198 -0.5374  0.8774 -0.3633
  281SOL    HW2 6164   0.784   4.204   0.280  0.2814 -0.4073 -1.8466
  282SOL     OW 6165   0.272  11.193  10.523  0.1419  0.0043  0.3890
  282SOL    HW1 6166   0.305  11.133  10.456  0.8681 -0.6186  1.2935
  282SOL    HW2 6167   0.227  11.136  10.586 -0.7322  0.6098  0.3348
  283SOL     OW 6168   6.624   4.585   3.023  0.3223 -0.6682 -0.2412
  283SOL    HW1 6169   6.577   4.516   3.069 -0.1875 -1.0378 -1.2730
  283SOL    HW2 6170   6.555   4.643   2.990  0.5641 -1.1071 -1.5988
  284SOL     OW 6171   9.150   3.608   9.658  0.0219 -0.1303  0.3748
  284SOL    HW1 6172   9.095   3.686   9.665  0.8311  0.4125  0.8466
  284SOL    HW2 6173   9.088   3.535   9.663 -0.7457  0.4754 -0.0505
  285SOL     OW 6174   0.017   4.569  10.771 -0.1960 -0.0398 -0.1539
  285SOL    HW1 6175  -0.065   4.579  10.722 -1.0395 -0.6189  1.1010
  285SOL    HW2 6176   0.049   4.482  10.746  0.6505  0.6143 -1.4895
  286SOL     OW 6177   7.164   6.226  11.564  0.5508  0.1064  0.5857
  286SOL    HW1 6178   7.150   6.193  11.475  1.1090  0.3053  0.4200
  286SOL    HW2 6179   7.121   6.311  11.566  0.3369 -0.0007  0.5790
  287SOL     OW 6180   6.866   1.188   9.665 -0.2715 -0.5015  0.0716
  287SOL    HW1 6181   6.906   1.214   9.748  0.0087 -0.4064 -0.0935
  287SOL    HW2 6182   6.937   1.148   9.616 -0.2901  0.0022 -0.3709
  288SOL     OW 6183  11.231   4.286   2.279 -0.2374 -0.3299  0.2872
  288SOL    HW1 6184  11.165   4.218   2.264 -1.4694  0.7702  0.5389
  288SOL    HW2 6185  11.286   4.251   2.349 -1.6099 -0.5831  1.2890
  289SOL     OW 6186   7.980   5.235  10.895  0.0980  0.4239 -0.1534
  289SOL    HW1 6187   7.896   5.200  10.867  0.3175 -0.0729 -0.2014
  289SOL    HW2 6188   7.960   5.282  10.976  0.3897 -3.2404  2.2816
  290SOL     OW 6189  10.239   6.547   3.174 -0.0020  0.1684 -0.0986
  290SOL    HW1 6190  10.331   6.570   3.188  0.0390 -0.8557  1.5814
  290SOL    HW2 6191  10.228   6.465   3.222 -1.5168 -0.3303 -1.2515
  291SOL     OW 6192   6.791   9.362   5.254  0.0358 -0.4943  0.0529
  291SOL    HW1 6193   6.797   9.427   5.184  0.4200  0.7984  1.2498
  291SOL    HW2 6194   6.697   9.347   5.264 -0.0305 -0.5287 -0.5819
  292SOL     OW 6195   7.729   3.601   7.691  0.4747  0.7090 -0.2355
  292SOL    HW1 6196   7.706   3.602   7.598 -0.0836  0.1606 -0.1081
  292SOL    HW2 6197   7.672   3.667   7.730 -0.0829  0.1579 -0.1064
  293SOL     OW 6198  10.494   5.361   1.674  0.2307 -0.5844 -0.0254
  293SOL    HW1 6199  10.462   5.301   1.741  0.8491 -0.8707  0.0276
  293SOL    HW2 6200  10.484   5.448   1.712  3.0090 -0.8504  1.5730
  294SOL     OW 6201   6.142   1.955   0.398 -0.4302 -0.3117  0.3942
  294SOL    HW1 6202   6.077   2.016   0.363  0.1221  0.1474  0.1508
  294SOL    HW2 6203   6.108   1.929   0.484 -0.7768  0.1781  0.4068
  295SOL     OW 6204   6.216   8.624   3.662 -0.1053 -0.0917  0.2950
  295SOL    HW1 6205   6.167   8.560   3.714 -0.1311 -2.7893 -2.7464
  295SOL    HW2 6206   6.307   8.595   3.668 -0.0855 -0.3310 -0.9475
  296SOL     OW 6207   8.767   2.018   2.476  0.5207 -0.1535  0.2056
  296SOL    HW1 6208   8.779   2.025   2.381 -0.7133 -0.4917  0.0128
  296SOL    HW2 6209   8.673   2.027   2.489  0.5696 -1.0866  1.3186
  297SOL     OW 6210   5.367   7.465  11.597 -0.1047  0.2052  0.2881
  297SOL    HW1 6211   5.455   7.493  11.573 -0.8820  2.5004 -0.1794
  297SOL    HW2 6212   5.329   7.431  11.517  0.8050 -2.2949  0.8315
  298SOL     OW 6213   3.924  10.720   3.208 -0.1260 -0.1950  0.1473
  298SOL    HW1 6214   4.014  10.740   3.233 -0.4016  1.1003  0.2002
  298SOL    HW2 6215   3.931  10.668   3.128  0.6738 -0.5704  0.4594
  299SOL     OW 6216  10.218  11.730   8.464 -0.1408  0.8843 -0.4289
  299SOL    HW1 6217  10.145  11.785   8.490 -1.0086 -1.0500  1.4844
  299SOL    HW2 6218  10.199  11.644   8.502  1.9931 -0.3054 -1.8198
  300SOL     OW 6219   3.560   1.534   9.587 -0.2448 -0.4122  0.5209
  300SOL    HW1 6220   3.641   1.513   9.542  1.2351 -0.0253  2.8340
  300SOL    HW2 6221   3.509   1.585   9.524  1.6381 -0.0241 -0.7464
  301SOL     OW 6222  11.696   9.395   1.135 -0.2255  0.1111 -0.2217
  301SOL    HW1 6223  11.692   9.314   1.185  0.5259 -0.0017 -0.3311
  301SOL    HW2 6224  11.754   9.375   1.061 -0.4042  0.6091 -0.5048
  302SOL     OW 6225   9.565   5.175   0.336  0.4509 -0.4915 -0.2598
  302SOL    HW1 6226   9.481   5.140   0.365  0.3093 -0.3432 -0.4929
  302SOL    HW2 6227   9.630   5.130   0.391  0.0738  1.4661  1.9208
  303SOL     OW 6228   7.791   3.122  10.727  0.7060  0.0384 -0.2289
  303SOL    HW1 6229   7.834   3.201  10.759  0.2534  0.5947 -0.9693
  303SOL    HW2 6230   7.758   3.146  10.640  0.1045 -0.7989 -0.2427
  304SOL     OW 6231   3.670   1.985   4.576 -0.0628 -0.0490  0.1171
  304SOL    HW1 6232   3.755   2.018   4.605 -0.1345 -1.2615  1.8260
  304SOL    HW2 6233   3.688   1.898   4.542 -0.3484  0.4729 -1.4634
  305SOL     OW 6234   0.914   4.509   9.295 -0.0083 -0.3834  0.1419
  305SOL    HW1 6235   0.975   4.577   9.269 -0.3916  0.2860  0.9477
  305SOL    HW2 6236   0.847   4.555   9.346 -0.5069 -1.2927  0.3288
  306SOL     OW 6237   5.391   6.312   1.806  0.1407 -0.1879  0.4773
  306SOL    HW1 6238   5.359   6.273   1.725  1.7867 -1.2234  0.2879
  306SOL    HW2 6239   5.327   6.382   1.826 -0.5039 -0.1691 -1.4746
  307SOL     OW 6240  10.176   2.165   2.847  0.0344  0.0167  0.1426
  307SOL    HW1 6241  10.241   2.161   2.777  0.2341 -0.6178  0.3573
  307SOL    HW2 6242  10.097   2.126   2.810  0.1766 -0.4336  0.3028
  308SOL     OW 6243   8.545   4.733   7.055 -0.4953  0.5807 -0.5366
  308SOL    HW1 6244   8.504   4.790   7.119  0.7664  0.3629  0.5008
  308SOL    HW2 6245   8.528   4.644   7.087 -2.9181  0.2809 -2.4236
  309SOL     OW 6246   2.546   5.490  11.428 -0.4748 -0.2271  0.3548
  309SOL    HW1 6247   2.468   5.454  11.386 -0.9771  0.3805  0.7618
  309SOL    HW2 6248   2.574   5.560  11.369 -0.1899 -0.4778  0.1820
  310SOL     OW 6249   4.611   5.393   8.147 -0.1624  0.2381  0.0066
  310SOL    HW1 6250   4.588   5.470   8.095  0.8134  1.8428  1.7875
  310SOL    HW2 6251   4.704   5.404   8.168  0.7433 -2.8032 -1.7579
  311SOL     OW 6252   7.534  10.256  10.920 -0.0854 -0.1786 -0.2936
  311SOL    HW1 6253   7.615  10.219  10.884 -1.3690 -1.2459 -2.3344
  311SOL    HW2 6254   7.481  10.179  10.943 -1.5448  0.3990 -1.5652
  312SOL     OW 6255   7.932   9.721   2.880 -0.0255 -0.5805  0.2936
  312SOL    HW1 6256   7.914   9.732   2.787  2.1704 -3.1337 -0.5602
  312SOL    HW2 6257   7.943   9.627   2.892  0.6398 -0.2560  2.9641
  313SOL     OW 6258   6.353   7.727   6.136 -0.6495  0.1982  0.0729
  313SOL    HW1 6259   6.345   7.677   6.217 -0.4796  0.2581  0.1274
  313SOL    HW2 6260   6.418   7.678   6.085  1.0301  1.4198  0.9351
  314SOL     OW 6261   8.722  10.504   8.733  0.3381  0.2364  0.1091
  314SOL    HW1 6262   8.800  10.553   8.707  1.2519 -1.2767 -0.1218
  314SOL    HW2 6263   8.743  10.413   8.714 -0.5707 -0.4947  2.2537
  315SOL     OW 6264   4.498  10.590   3.997  0.3723 -0.5419 -0.3968
  315SOL    HW1 6265   4.545  10.556   4.073  0.4544  0.6397  0.1073
  315SOL    HW2 6266   4.417  10.539   3.995  1.3651 -2.1634 -0.9000
  316SOL     OW 6267   5.977   0.669  11.088  0.3513 -0.1606  0.0777
  316SOL    HW1 6268   6.031   0.731  11.136 -0.5225  0.1684  0.6669
  316SOL    HW2 6269   5.942   0.611  11.155 -2.0821  1.2168  0.1142
  317SOL     OW 6270   1.396   7.595   8.852  0.2877 -0.1178 -0.3344
  317SOL    HW1 6271   1.340   7.555   8.919  0.2508 -0.2565 -0.4485
  317SOL    HW2 6272   1.346   7.588   8.771  0.7575 -0.8714 -0.5705
  318SOL     OW 6273   1.759   1.410   6.425 -0.0463  0.3986  0.2135
  318SOL    HW1 6274   1.842   1.379   6.461  0.1995  1.1928  0.3667
  318SOL    HW2 6275   1.778   1.429   6.334 -0.1931  0.0996  0.1208
  319SOL     OW 6276   1.622   2.206   0.595  0.2498 -0.2939  0.2257
  319SOL    HW1 6277   1.711   2.177   0.578 -0.5448 -1.9106 -1.5017
  319SOL    HW2 6278   1.573   2.125   0.610 -1.1488  0.4729 -0.0448
  320SOL     OW 6279   9.088   9.567   9.595  0.0013  0.9865  0.1479
  320SOL    HW1 6280   9.134   9.484   9.580  0.5666  1.4803 -1.0558
  320SOL    HW2 6281   9.034   9.578   9.516 -2.2920  0.4012  1.5318
  321SOL     OW 6282   9.460   7.933   3.080  0.4257 -0.3039 -0.1344
  321SOL    HW1 6283   9.503   8.001   3.131  0.0838 -0.7428  0.7570
  321SOL    HW2 6284   9.383   7.976   3.042  2.0353  0.7168 -2.4452
  322SOL     OW 6285   2.581   7.337   5.769  0.0632 -0.1771  0.5258
  322SOL    HW1 6286   2.634   7.261   5.792  1.4282  0.4664 -0.3780
  322SOL    HW2 6287   2.559   7.324   5.676  0.9288  0.8578  0.1554
  323SOL     OW 6288   0.558   6.923   4.105  0.1335  0.0726  0.1331
  323SOL    HW1 6289   0.578   6.993   4.167  0.0637  1.1809 -1.0377
  323SOL    HW2 6290   0.629   6.927   4.041 -1.4187  1.1317 -1.6321
  324SOL     OW 6291   2.619   2.783   2.622 -0.9433  0.1970 -0.2175
  324SOL    HW1 6292   2.530   2.819   2.621 -0.6912  0.8301 -1.4274
  324SOL    HW2 6293   2.631   2.747   2.534 -0.0341  0.0361 -0.0347
  325SOL     OW 6294   0.132   5.673   1.891  0.2101 -0.2454  0.1636
  325SOL    HW1 6295   0.128   5.760   1.852 -0.0819 -0.2161  0.2584
  325SOL    HW2 6296   0.224   5.647   1.883  0.4701  0.4130  0.8793
  326SOL     OW 6297   3.127   7.170   1.594 -0.3823 -0.2409 -0.6172
  326SOL    HW1 6298   3.046   7.180   1.643 -1.2173 -2.5546 -1.3799
  326SOL    HW2 6299   3.185   7.121   1.653 -0.9887 -2.0213 -1.4052
  327SOL     OW 6300   9.932   3.881  10.133 -0.0066 -0.2733 -1.1498
  327SOL    HW1 6301   9.974   3.947  10.077 -1.2646  1.8192  0.2245
  327SOL    HW2 6302   9.976   3.889  10.217  0.2320 -1.6691 -1.1198
  328SOL     OW 6303   9.366   5.346   2.143  0.6150 -0.2188 -0.5456
  328SOL    HW1 6304   9.455   5.316   2.160  0.8433  1.4682  1.7079
  328SOL    HW2 6305   9.365   5.437   2.171 -2.0450 -0.4200  0.3162
  329SOL     OW 6306   5.540  10.383   8.648 -0.0586  0.1579  0.1073
  329SOL    HW1 6307   5.551  10.477   8.657  2.0727  0.1961 -1.9350
  329SOL    HW2 6308   5.586  10.346   8.722 -1.5812  0.6718  1.3686
  330SOL     OW 6309  11.022   8.446   5.077  0.0268  0.2241  0.0464
  330SOL    HW1 6310  10.997   8.377   5.015 -0.1227  0.2472  0.0794
  330SOL    HW2 6311  10.981   8.525   5.043 -0.7320  0.0854  0.6024
  331SOL     OW 6312   1.651   5.503   0.321 -0.2549 -0.1792  0.2392
  331SOL    HW1 6313   1.670   5.411   0.302  0.1152 -0.0668  0.0619
  331SOL    HW2 6314   1.570   5.521   0.273  0.8762  0.2096 -1.6110
  332SOL     OW 6315   5.490   3.516   3.474  0.5860  0.3799  0.0292
  332SOL    HW1 6316   5.569   3.462   3.479  0.7442  0.6197  0.1453
  332SOL    HW2 6317   5.428   3.475   3.535  0.2543 -0.4026 -0.8086
  333SOL     OW 6318   8.538   3.089   1.464 -0.0626  0.5655 -0.4936
  333SOL    HW1 6319   8.466   3.125   1.516  1.0262 -0.6020  1.9755
  333SOL    HW2 6320   8.615   3.136   1.495  0.4363  1.0633 -2.3609
  334SOL     OW 6321   4.426   9.899   1.640  0.0285 -1.0219  0.0846
  334SOL    HW1 6322   4.409   9.805   1.636  1.9752 -1.3734 -2.1398
  334SOL    HW2 6323   4.426   9.928   1.549  2.2747  0.5301  0.4928
  335SOL     OW 6324   9.572  11.602   7.415 -0.1395 -0.3188  0.2681
  335SOL    HW1 6325   9.647  11.544   7.428  0.3967  0.7058  2.2236
  335SOL    HW2 6326   9.609  11.683   7.381 -0.9207 -1.1227 -2.7357
  336SOL     OW 6327  10.469   6.923   2.415  0.2344  0.5439  1.0195
  336SOL    HW1 6328  10.553   6.964   2.436 -0.1311  1.4656  0.7492
  336SOL    HW2 6329  10.444   6.878   2.495  1.6869 -1.0321  0.6565
  337SOL     OW 6330   7.135   6.005   6.930  0.6525 -0.3107  0.5730
  337SOL    HW1 6331   7.073   5.993   6.858  1.1267 -0.0594  0.1109
  337SOL    HW2 6332   7.140   5.920   6.973  0.1265 -0.3787  0.5073
  338SOL     OW 6333   1.226   1.290   0.214 -0.5354  0.0304 -0.2174
  338SOL    HW1 6334   1.169   1.284   0.137  1.5604  0.8561 -1.9519
  338SOL    HW2 6335   1.258   1.201   0.227  0.9190  0.2574 -1.8581
  339SOL     OW 6336   2.506  10.292   3.726 -0.2402 -0.5246 -0.0208
  339SOL    HW1 6337   2.442  10.274   3.657 -0.4884  0.4725 -0.0681
  339SOL    HW2 6338   2.460  10.271   3.807 -0.6502  0.1852 -0.0537
  340SOL     OW 6339   9.182   4.835   2.477 -0.1856  0.1519 -0.5621
  340SOL    HW1 6340   9.090   4.832   2.449  0.0566  1.8799 -1.6666
  340SOL    HW2 6341   9.179   4.876   2.563 -0.4763 -0.2474 -0.3761
  341SOL     OW 6342   3.944  11.006   1.061  0.0920  0.1082 -0.3161
  341SOL    HW1 6343   4.036  11.028   1.076 -0.2047  1.7594 -0.6893
  341SOL    HW2 6344   3.943  10.911   1.057  1.2939 -0.1439  2.7303
  342SOL     OW 6345  11.282   8.115   7.575 -0.0618  0.2561 -0.4420
  342SOL    HW1 6346  11.240   8.177   7.635 -1.1602 -0.2656 -0.6466
  342SOL    HW2 6347  11.304   8.166   7.498 -1.7711  0.2306 -0.9754
  343SOL     OW 6348   3.569   8.992   5.823 -0.0158 -0.6137 -0.0038
  343SOL    HW1 6349   3.498   8.927   5.819 -1.8124  1.1328  1.1184
  343SOL    HW2 6350   3.574   9.015   5.916  0.5998  0.7747 -0.3598
  344SOL     OW 6351   0.170   0.789   3.605 -0.4897  0.0045  0.2403
  344SOL    HW1 6352   0.234   0.855   3.578  0.3703 -0.5699  0.8554
  344SOL    HW2 6353   0.221   0.710   3.619 -1.3752 -0.5379  0.4859
  345SOL     OW 6354  11.817   2.823  11.320  0.1464  0.0984 -0.0151
  345SOL    HW1 6355  11.913   2.820  11.323  0.4784  3.1653 -2.3093
  345SOL    HW2 6356  11.790   2.834  11.411  2.2587  2.1144  0.4745
  346SOL     OW 6357   9.940   0.451   8.962 -0.4844  0.2738  0.1252
  346SOL    HW1 6358   9.855   0.421   8.993 -0.3142 -0.9378 -0.5212
  346SOL    HW2 6359   9.950   0.410   8.876  0.7227  0.4480  0.1646
  347SOL     OW 6360  11.132   5.591   1.715  0.4028 -0.4071 -0.3118
  347SOL    HW1 6361  11.175   5.665   1.757  0.4710 -0.5681 -0.0934
  347SOL    HW2 6362  11.200   5.523   1.711 -0.4299 -1.5083  2.1624
  348SOL     OW 6363   0.499   2.600   1.723  0.1508  0.3750 -0.0706
  348SOL    HW1 6364   0.497   2.542   1.647 -1.6265 -0.2783  0.4259
  348SOL    HW2 6365   0.475   2.545   1.797  1.4503  1.0969  0.9406
  349SOL     OW 6366   8.099   1.000   0.712 -0.2265  0.2188  0.1881
  349SOL    HW1 6367   8.122   1.032   0.625 -0.7620  0.3146  0.0815
  349SOL    HW2 6368   8.119   1.074   0.770  0.3131  0.0879  0.1742
  350SOL     OW 6369   0.322   1.763   1.239 -0.8262  0.2947 -0.2532
  350SOL    HW1 6370   0.228   1.755   1.250 -0.8481 -1.5220 -1.3248
  350SOL    HW2 6371   0.332   1.802   1.152 -0.5756  0.2110 -0.2616
  351SOL     OW 6372   2.475   3.065   9.661 -0.1278 -0.1603 -0.2947
  351SOL    HW1 6373   2.493   3.154   9.630 -2.1744  0.3675 -0.1666
  351SOL    HW2 6374   2.560   3.031   9.688  0.6779  1.8568 -0.0957
  352SOL     OW 6375  10.769  10.917   0.199  0.5886  0.4846 -0.0899
  352SOL    HW1 6376  10.807  10.962   0.274 -0.1838  0.3823  0.3732
  352SOL    HW2 6377  10.839  10.859   0.168  0.3541 -0.8734  1.7197
  353SOL     OW 6378   6.315   7.377   9.220 -0.1879 -0.1850 -0.1979
  353SOL    HW1 6379   6.260   7.368   9.142  1.8524 -0.3461 -1.6924
  353SOL    HW2 6380   6.315   7.471   9.239 -1.0427 -0.1989 -0.1131
  354SOL     OW 6381  11.048   8.235   1.537 -0.2771  0.0277 -0.3068
  354SOL    HW1 6382  11.087   8.299   1.477 -1.3143  1.8053  0.8140
  354SOL    HW2 6383  11.123   8.195   1.581  0.4038  0.6565 -0.8601
  355SOL     OW 6384   9.946   5.615   0.293  0.2713  0.1358  0.1694
  355SOL    HW1 6385   9.942   5.703   0.331 -2.2983  0.6423 -1.0290
  355SOL    HW2 6386  10.038   5.592   0.296  0.7409  1.8562  2.7336
  356SOL     OW 6387   4.948   1.146   4.359 -0.1674  0.1528  0.3748
  356SOL    HW1 6388   4.856   1.159   4.381 -0.3313 -1.4319  0.7038
  356SOL    HW2 6389   4.992   1.138   4.444  0.0850 -0.2779  0.2062
  357SOL     OW 6390   0.006   1.293   2.403  0.4512 -0.0530 -1.0082
  357SOL    HW1 6391  -0.049   1.350   2.349  2.0410  0.4702 -2.1395
  357SOL    HW2 6392   0.045   1.231   2.341  2.5511  0.7488 -0.5571
  358SOL     OW 6393   9.474   0.294   8.063 -0.1182 -0.1804  0.2221
  358SOL    HW1 6394   9.451   0.206   8.031  1.8770 -0.8411  0.4647
  358SOL    HW2 6395   9.487   0.283   8.157  0.2146  0.3691  0.2420
  359SOL     OW 6396   0.372   7.781   3.775  0.1979  0.3030  0.3162
  359SOL    HW1 6397   0.284   7.810   3.799 -1.1190 -2.8243 -0.2473
  359SOL    HW2 6398   0.370   7.769   3.680  0.5078 -1.6859  0.5005
  360SOL     OW 6399   0.286  10.553   6.874  0.0538 -0.0825  0.5688
  360SOL    HW1 6400   0.311  10.462   6.859 -0.3057  0.1027 -1.4095
  360SOL    HW2 6401   0.320  10.600   6.798  0.7309  1.5689  1.8226
  361SOL     OW 6402   8.299   4.444   7.666 -0.4359 -0.3128  0.1237
  361SOL    HW1 6403   8.222   4.487   7.703 -1.0101 -0.2614 -1.0729
  361SOL    HW2 6404   8.263   4.372   7.613  0.4391 -1.4107  0.9865
  362SOL     OW 6405   9.644   3.649   5.103 -0.4241  0.0165  0.0056
  362SOL    HW1 6406   9.598   3.672   5.022 -0.5965  0.3503  0.1961
  362SOL    HW2 6407   9.736   3.671   5.086 -0.1700 -1.3893 -0.6636
  363SOL     OW 6408   3.794   6.116   2.632 -0.2442 -0.0319 -0.2712
  363SOL    HW1 6409   3.728   6.108   2.701 -0.9909 -0.6809 -1.0300
  363SOL    HW2 6410   3.756   6.070   2.557  1.1726 -0.6242 -0.6701
  364SOL     OW 6411   9.106   0.491   7.687 -0.7093 -0.5382 -0.1398
  364SOL    HW1 6412   9.144   0.527   7.767  0.3018  1.4540 -1.4290
  364SOL    HW2 6413   9.032   0.439   7.716 -0.0102 -0.3515  2.1147
  365SOL     OW 6414   3.799   7.998   7.998  0.3244 -0.5893 -0.1974
  365SOL    HW1 6415   3.838   8.085   8.007 -0.6241 -0.2304  0.5554
  365SOL    HW2 6416   3.728   8.010   7.934 -0.2595 -0.6441  0.4286
  366SOL     OW 6417  11.360   5.398   2.462 -0.8790 -0.1497  0.2058
  366SOL    HW1 6418  11.329   5.407   2.552  0.9656  1.4161  0.7436
  366SOL    HW2 6419  11.301   5.454   2.411 -1.3110 -0.2599  0.5697
  367SOL     OW 6420   3.636  10.826   8.867  0.0937  0.0616 -0.1863
  367SOL    HW1 6421   3.589  10.863   8.792  2.0395  0.7199 -1.1538
  367SOL    HW2 6422   3.572  10.829   8.939 -1.6834 -0.1477 -1.6741
  368SOL     OW 6423  11.054   9.652  11.729  0.0818 -0.1828  0.3801
  368SOL    HW1 6424  11.087   9.695  11.807  1.5079 -0.3243 -0.1228
  368SOL    HW2 6425  10.970   9.695  11.712 -0.3132 -0.2319  2.0293
  369SOL     OW 6426   4.527   0.411   5.315  1.2553  0.2028  0.0612
  369SOL    HW1 6427   4.517   0.316   5.311 -1.3504  0.3880  0.6071
  369SOL    HW2 6428   4.545   0.429   5.407 -2.8723  0.4406  1.0215
  370SOL     OW 6429   0.031   6.914   2.127  0.4263  0.3027  0.1518
  370SOL    HW1 6430   0.116   6.910   2.083  0.2545 -0.4588 -0.1245
  370SOL    HW2 6431  -0.007   6.996   2.098  0.7610  0.2995 -0.3042
  371SOL     OW 6432   0.736   0.809   5.125 -0.2293 -0.2645 -0.3856
  371SOL    HW1 6433   0.666   0.847   5.178 -0.3889  0.9180 -1.3816
  371SOL    HW2 6434   0.695   0.788   5.041 -0.2310 -3.1021  0.2307
  372SOL     OW 6435   4.465  11.587   3.714 -0.6295 -0.3479 -0.0539
  372SOL    HW1 6436   4.496  11.615   3.628 -0.5874 -1.4083 -0.3902
  372SOL    HW2 6437   4.545  11.571   3.765 -0.6481  1.0609  0.4632
  373SOL     OW 6438   7.136   4.237   0.819  0.4303  0.0928  0.6988
  373SOL    HW1 6439   7.075   4.211   0.888  0.3760  0.3718  0.7561
  373SOL    HW2 6440   7.127   4.332   0.814  0.9387  0.1455  0.7779
  374SOL     OW 6441   6.911   4.778   1.873  0.0738  0.1830 -0.7280
  374SOL    HW1 6442   6.841   4.770   1.808  0.5920  3.2828 -1.8430
  374SOL    HW2 6443   6.988   4.805   1.824  1.3982 -0.6432  0.7951
  375SOL     OW 6444   2.682   7.368   8.757  0.5063  0.1853  0.2330
  375SOL    HW1 6445   2.635   7.436   8.805  0.6032  0.0571  0.5128
  375SOL    HW2 6446   2.726   7.415   8.686  0.4603  0.3929  0.3409
  376SOL     OW 6447   4.192  11.813   5.306  0.2333 -0.0449 -0.6920
  376SOL    HW1 6448   4.104  11.797   5.272 -0.4228  2.3117 -0.3027
  376SOL    HW2 6449   4.245  11.742   5.269 -2.1495 -2.7676  0.6900
  377SOL     OW 6450   4.240  10.003   2.304  0.0065 -0.0636  0.5273
  377SOL    HW1 6451   4.152  10.013   2.341  0.4715  0.7059  1.4517
  377SOL    HW2 6452   4.230  10.031   2.213 -0.4474  1.2431  0.9633
  378SOL     OW 6453  10.633   6.141   6.250 -0.7893  0.0872  0.4660
  378SOL    HW1 6454  10.617   6.220   6.198  0.7044 -0.0737 -0.3058
  378SOL    HW2 6455  10.716   6.159   6.295 -0.4034 -1.0478  0.2398
  379SOL     OW 6456  10.930   7.315   0.281 -0.1604 -0.0460 -0.5160
  379SOL    HW1 6457  10.868   7.242   0.283 -0.7601  0.4651  0.0296
  379SOL    HW2 6458  10.877   7.392   0.302  0.4813  0.5370 -0.9865
  380SOL     OW 6459   3.201   6.551   5.294  0.4635  0.7238  0.2131
  380SOL    HW1 6460   3.221   6.480   5.233  0.5417  1.0424 -0.1393
  380SOL    HW2 6461   3.286   6.594   5.308  0.1621  1.6999 -0.7994
  381SOL     OW 6462   7.019   0.359   5.235 -0.3590  0.0620 -0.2609
  381SOL    HW1 6463   7.044   0.425   5.170  0.9560 -0.8829 -0.7755
  381SOL    HW2 6464   6.988   0.410   5.310  0.4124  1.2594 -0.7139
  382SOL     OW 6465  10.555   1.972  11.291 -0.2580 -0.5965 -0.2919
  382SOL    HW1 6466  10.491   1.950  11.359  0.2291  1.2371  0.8176
  382SOL    HW2 6467  10.503   1.987  11.213 -1.0445 -0.5929  0.2226
  383SOL     OW 6468   5.903   1.470   5.916 -0.4833  0.6579 -0.0153
  383SOL    HW1 6469   5.938   1.441   6.000  0.8491  0.6262 -0.5485
  383SOL    HW2 6470   5.816   1.429   5.910  0.0988 -0.7314  0.5917
  384SOL     OW 6471   9.474   8.772   8.744  0.1815  0.7204 -0.2427
  384SOL    HW1 6472   9.410   8.701   8.744  0.0650  0.8258 -0.9704
  384SOL    HW2 6473   9.456   8.821   8.665  0.7014  1.1745 -0.0856
  385SOL     OW 6474   9.042   3.033   4.821  0.7611 -0.4842 -0.1737
  385SOL    HW1 6475   9.114   3.057   4.879  0.2354 -0.5273  0.5127
  385SOL    HW2 6476   8.996   3.116   4.805  0.9308 -0.4646 -0.5700
  386SOL     OW 6477   2.096   1.603   9.308  0.0269  0.3668 -0.1559
  386SOL    HW1 6478   2.083   1.605   9.403  2.0403 -0.8757  0.2152
  386SOL    HW2 6479   2.126   1.691   9.286  3.6137 -0.3353  1.1610
  387SOL     OW 6480   7.085  11.088  10.519 -0.4809 -0.4697 -0.3846
  387SOL    HW1 6481   7.006  11.099  10.572  0.5850 -1.2677  1.4815
  387SOL    HW2 6482   7.059  11.112  10.431 -2.8180 -0.7938  0.1644
  388SOL     OW 6483   2.637   0.615   2.711  0.4792 -0.1980 -0.4267
  388SOL    HW1 6484   2.573   0.686   2.702 -0.0947 -0.9220 -2.9782
  388SOL    HW2 6485   2.587   0.543   2.751  1.1726  0.8672  2.5667
  389SOL     OW 6486   3.717   9.670   7.539 -0.6027 -0.3454 -0.4870
  389SOL    HW1 6487   3.745   9.743   7.485  3.0928 -0.6945  0.6649
  389SOL    HW2 6488   3.690   9.710   7.622  0.0676 -0.1833 -0.3434
  390SOL     OW 6489   2.965   3.222   1.030 -0.3906  0.1041 -0.4128
  390SOL    HW1 6490   3.019   3.242   0.953 -0.6888  2.0337 -0.1642
  390SOL    HW2 6491   3.021   3.166   1.084 -0.4449 -1.9704 -2.3291
  391SOL     OW 6492   6.498  10.629   7.325 -0.7018  0.0079 -0.1878
  391SOL    HW1 6493   6.507  10.721   7.301  0.2194  0.1419  0.5802
  391SOL    HW2 6494   6.407  10.608   7.307 -1.7446  1.8764  2.3014
  392SOL     OW 6495  11.140   1.841   4.433  0.4023 -0.3648 -0.2663
  392SOL    HW1 6496  11.192   1.804   4.362  1.5750  0.4292  0.1418
  392SOL    HW2 6497  11.058   1.866   4.392  1.1183  0.2197 -1.3968
  393SOL     OW 6498   3.932   6.601   5.310  0.2842  0.0712 -0.6497
  393SOL    HW1 6499   3.999   6.602   5.241  0.8763 -0.5737 -0.0999
  393SOL    HW2 6500   3.970   6.652   5.381  0.7755 -1.3712  0.1696
  394SOL     OW 6501   3.471   0.411   0.997  0.2655 -0.2493 -0.0252
  394SOL    HW1 6502   3.532   0.341   1.020  0.8054  0.2278  0.0212
  394SOL    HW2 6503   3.390   0.389   1.044 -0.1256 -1.7159 -1.2882
  395SOL     OW 6504   1.713   4.418   8.573 -0.0238  0.1635 -0.0487
  395SOL    HW1 6505   1.707   4.347   8.509  0.7161 -2.2766  2.4142
  395SOL    HW2 6506   1.807   4.425   8.592 -0.0267  2.1684 -0.5363
  396SOL     OW 6507  11.082   8.737   2.041 -0.0479 -0.9974 -0.1457
  396SOL    HW1 6508  11.004   8.754   1.989 -0.8768 -1.5387  0.8881
  396SOL    HW2 6509  11.051   8.734   2.131  1.6420  1.7692  0.6474
  397SOL     OW 6510   3.475   3.755   8.376  0.0519  0.3387 -0.0289
  397SOL    HW1 6511   3.530   3.825   8.340 -0.8887  1.3912  0.5175
  397SOL    HW2 6512   3.478   3.768   8.471  0.0888 -0.5510  0.1000
  398SOL     OW 6513   6.613   7.855   5.867  0.0524  0.2222 -0.1800
  398SOL    HW1 6514   6.663   7.889   5.793  0.8696  1.1622  0.7688
  398SOL    HW2 6515   6.672   7.863   5.942 -1.2703  0.7089  0.8587
  399SOL     OW 6516   0.729   8.615   6.940  0.1122 -0.4988  0.6135
  399SOL    HW1 6517   0.753   8.564   7.017 -0.5037  0.4916  1.4894
  399SOL    HW2 6518   0.656   8.670   6.969  0.3259  0.3986 -0.4725
  400SOL     OW 6519   9.922   8.256   5.335  0.2251  0.0984  0.2489
  400SOL    HW1 6520   9.897   8.164   5.343 -0.9732  0.4201  0.4895
  400SOL    HW2 6521   9.952   8.266   5.245 -1.1290 -0.2122 -0.2685
  401SOL     OW 6522   2.925   5.248   3.442  0.2117  1.0503  0.2283
  401SOL    HW1 6523   2.908   5.249   3.347 -0.0131  0.3135  0.2560
  401SOL    HW2 6524   2.950   5.158   3.461 -1.9425  0.6075  1.2511
  402SOL     OW 6525   8.374   4.415  11.707 -0.1430  0.4789 -0.0864
  402SOL    HW1 6526   8.444   4.368  11.660  0.6380  1.8459 -0.3421
  402SOL    HW2 6527   8.323   4.457  11.637 -0.5193  0.4500  0.1690
  403SOL     OW 6528   7.995  11.057   1.274  0.1385 -0.1418  0.4688
  403SOL    HW1 6529   8.037  11.122   1.330 -1.9876 -0.6892  2.9173
  403SOL    HW2 6530   8.065  10.998   1.249  1.3552  0.6271  1.8969
  404SOL     OW 6531   3.902   8.703   5.820 -0.0944  0.3268 -0.1218
  404SOL    HW1 6532   3.933   8.789   5.848  1.7829 -0.5588  0.7214
  404SOL    HW2 6533   3.854   8.669   5.896  1.2245 -0.3063  0.4519
  405SOL     OW 6534   9.019   0.213  10.864 -0.1942 -0.8492  0.0028
  405SOL    HW1 6535   9.015   0.214  10.959 -0.1303 -0.9920  0.0073
  405SOL    HW2 6536   8.964   0.139  10.838 -2.0141  0.5162 -0.1678
  406SOL     OW 6537   0.580   9.534   0.929 -0.4036 -0.3822 -0.2840
  406SOL    HW1 6538   0.564   9.444   0.899 -1.1010 -1.3001  2.4628
  406SOL    HW2 6539   0.493   9.572   0.936 -0.1516  0.3055 -0.7902
  407SOL     OW 6540  10.279   2.131   1.133 -0.7245  0.3175 -0.1256
  407SOL    HW1 6541  10.254   2.149   1.042 -0.2605 -0.0281 -0.3274
  407SOL    HW2 6542  10.363   2.176   1.144 -1.9434  2.4883  0.9110
  408SOL     OW 6543  11.030   3.777   7.160  0.0622 -0.1170  0.0327
  408SOL    HW1 6544  11.031   3.769   7.064 -0.6413  1.8527 -0.1887
  408SOL    HW2 6545  10.969   3.710   7.190 -0.8147  0.1855 -1.0294
  409SOL     OW 6546   9.609   6.966   1.451 -0.0440  0.1856  0.3248
  409SOL    HW1 6547   9.533   6.911   1.437 -0.6063  0.8139  0.8333
  409SOL    HW2 6548   9.625   7.009   1.367 -0.3497  0.1727  0.2607
  410SOL     OW 6549   5.077  11.527   0.189 -0.5590  0.3614  0.1227
  410SOL    HW1 6550   5.171  11.540   0.199 -0.1694 -1.4711 -0.6602
  410SOL    HW2 6551   5.052  11.471   0.263 -0.5541 -0.9649 -0.8314
  411SOL     OW 6552   8.041   8.827   3.648 -0.6339 -0.3821 -0.2392
  411SOL    HW1 6553   7.996   8.863   3.571 -2.2224  0.0203  0.8231
  411SOL    HW2 6554   8.041   8.733   3.634 -1.5189 -0.3633 -0.4309
  412SOL     OW 6555   7.054   7.673   9.498  0.3012 -0.1601  0.2137
  412SOL    HW1 6556   7.137   7.625   9.503 -0.9161 -2.6128 -0.9107
  412SOL    HW2 6557   7.059   7.720   9.415  0.6621 -0.1475  0.2411
  413SOL     OW 6558   7.390   9.881   0.542 -0.0753 -0.3575  0.3665
  413SOL    HW1 6559   7.311   9.838   0.508 -0.3829  0.6549 -0.2355
  413SOL    HW2 6560   7.376   9.886   0.636 -0.2848 -1.0486  0.3806
  414SOL     OW 6561   9.882   3.156   3.751 -0.3584 -0.4040  0.3920
  414SOL    HW1 6562   9.920   3.075   3.718 -0.6292 -0.1763 -0.5189
  414SOL    HW2 6563   9.934   3.178   3.828  1.6086  0.0866 -0.9976
  415SOL     OW 6564   2.623   8.345   9.910  0.3292 -0.3049  0.8402
  415SOL    HW1 6565   2.541   8.375   9.870  0.8504 -1.3750 -1.1802
  415SOL    HW2 6566   2.605   8.346  10.004 -3.4686 -4.3299  0.4926
  416SOL     OW 6567   4.019   6.812  10.315 -0.0132 -0.5806  0.0033
  416SOL    HW1 6568   3.969   6.779  10.389 -3.4428  2.4815 -0.6734
  416SOL    HW2 6569   3.957   6.812  10.242  1.3931  2.0072 -1.3337
  417SOL     OW 6570   5.140   0.912  10.286 -0.6173 -0.3013 -0.3351
  417SOL    HW1 6571   5.182   0.911  10.372 -0.4405  2.0565 -0.3263
  417SOL    HW2 6572   5.179   0.987  10.242 -3.0360  0.5056 -1.2448
  418SOL     OW 6573  10.871   2.992   7.715 -0.6860 -0.0946 -0.3171
  418SOL    HW1 6574  10.912   3.066   7.671 -1.9524  0.6505 -0.2719
  418SOL    HW2 6575  10.777   3.007   7.705 -0.9771 -2.0334 -0.8756
  419SOL     OW 6576   4.889   8.277   2.310  0.0039 -0.0840  0.2658
  419SOL    HW1 6577   4.806   8.239   2.281  0.5860 -2.1483  1.0586
  419SOL    HW2 6578   4.905   8.350   2.252 -1.9469 -0.1957 -0.4538
  420SOL     OW 6579   1.521  10.284   6.368 -0.0375 -0.5278  0.3055
  420SOL    HW1 6580   1.581  10.340   6.418 -0.7772 -0.4382  1.0965
  420SOL    HW2 6581   1.573  10.257   6.292  0.6059  0.5640  0.3282
  421SOL     OW 6582   8.980  10.639   5.807  0.1888  1.1672  0.1923
  421SOL    HW1 6583   8.885  10.634   5.796  0.2850 -0.0594 -0.1871
  421SOL    HW2 6584   9.009  10.694   5.734 -0.0560  0.0235 -0.7994
  422SOL     OW 6585   9.500   0.151   8.678  0.2431  0.5472 -0.0434
  422SOL    HW1 6586   9.530   0.064   8.650 -0.3635 -0.5388  2.3669
  422SOL    HW2 6587   9.533   0.159   8.767 -2.4920  1.3265  0.9968
  423SOL     OW 6588   1.208   8.745   4.811  0.5698 -0.1535  0.3513
  423SOL    HW1 6589   1.227   8.651   4.810 -2.5863 -0.8763 -0.3586
  423SOL    HW2 6590   1.193   8.765   4.903  2.7128  0.0729  0.7085
  424SOL     OW 6591   3.262   8.227   7.422 -0.2492  0.2515  0.5043
  424SOL    HW1 6592   3.285   8.220   7.329 -0.6894 -0.3987  0.4408
  424SOL    HW2 6593   3.333   8.277   7.460  0.0197  0.3848 -0.1567
  425SOL     OW 6594   0.370   8.923   9.381  0.2932 -0.0263  0.2434
  425SOL    HW1 6595   0.331   8.875   9.308 -0.3375 -1.3479  1.4051
  425SOL    HW2 6596   0.307   8.993   9.399  0.8089  0.7742 -0.9132
  426SOL     OW 6597   8.609   6.287  10.927 -0.1880  0.1026 -0.4548
  426SOL    HW1 6598   8.536   6.278  10.865  0.3826  0.1301 -1.1441
  426SOL    HW2 6599   8.570   6.271  11.013 -0.6066 -1.9718 -0.9890
  427SOL     OW 6600   7.138   2.169   3.827 -0.2119  0.5029  0.4168
  427SOL    HW1 6601   7.172   2.091   3.782 -0.6039  0.7400 -0.3008
  427SOL    HW2 6602   7.069   2.135   3.884 -1.2893  0.4721 -0.8687
  428SOL     OW 6603   3.724   3.541   8.062  0.2076 -0.1407 -0.1014
  428SOL    HW1 6604   3.639   3.582   8.050 -0.6851 -1.3399  1.6488
  428SOL    HW2 6605   3.720   3.462   8.008  0.0638 -0.3851  0.2653
  429SOL     OW 6606   8.250   5.355  11.131  0.5815 -0.0652 -0.1950
  429SOL    HW1 6607   8.261   5.363  11.036  1.1318  0.0387 -0.1298
  429SOL    HW2 6608   8.331   5.312  11.160 -0.2603 -1.5619  0.0407
  430SOL     OW 6609  11.433   3.981   1.724  0.2554  0.3699  0.4280
  430SOL    HW1 6610  11.371   4.053   1.711 -0.4076  0.0569  1.7285
  430SOL    HW2 6611  11.488   3.983   1.645 -0.4629  1.5786 -0.0784
  431SOL     OW 6612   4.058   9.237   8.657 -0.3118  0.2704  0.0624
  431SOL    HW1 6613   3.990   9.276   8.712 -0.5087 -1.1511  0.8775
  431SOL    HW2 6614   4.013   9.169   8.607  0.5681 -1.1895  1.1317
  432SOL     OW 6615   7.767   3.820  10.786  0.2933  0.4465  0.0931
  432SOL    HW1 6616   7.726   3.906  10.795  0.6795  0.7433 -0.8282
  432SOL    HW2 6617   7.755   3.797  10.693  1.1193 -0.0094  0.0858
  433SOL     OW 6618   4.048   3.391   3.686 -0.0311  0.1108  0.3800
  433SOL    HW1 6619   4.035   3.369   3.778 -1.2159 -0.5342  0.0750
  433SOL    HW2 6620   4.123   3.338   3.659  0.8025  0.8712  1.1564
  434SOL     OW 6621  10.618   5.929   2.583 -0.4301  0.3951  0.1703
  434SOL    HW1 6622  10.674   5.912   2.659 -0.0630  1.0852  0.0660
  434SOL    HW2 6623  10.658   6.005   2.541 -2.0358  1.5627  0.6745
  435SOL     OW 6624   7.428   1.229   7.210 -0.1743 -0.3660  0.1344
  435SOL    HW1 6625   7.492   1.202   7.145  0.4976  0.2751  0.5114
  435SOL    HW2 6626   7.462   1.195   7.293 -0.6046 -0.4874  0.2639
  436SOL     OW 6627   0.418  10.698   9.405  0.2120 -0.9355  0.0290
  436SOL    HW1 6628   0.486  10.708   9.338  0.5174 -1.2974  0.2839
  436SOL    HW2 6629   0.461  10.650   9.476 -0.7402 -2.5436 -0.4453
  437SOL     OW 6630   7.246   9.024   9.304 -0.6728  0.0128 -0.2336
  437SOL    HW1 6631   7.251   9.114   9.336 -3.3138  0.1626 -0.0122
  437SOL    HW2 6632   7.164   9.020   9.255 -1.1317 -2.5068  0.5842
  438SOL     OW 6633  10.792   6.913  10.949  0.1820  0.0710 -0.2451
  438SOL    HW1 6634  10.803   6.984  11.013 -0.3852  0.4948 -0.6113
  438SOL    HW2 6635  10.813   6.833  10.998 -0.9588  0.3173  0.6781
  439SOL     OW 6636  10.079  11.823   9.532 -0.0282 -0.4386 -0.0204
  439SOL    HW1 6637  10.008  11.857   9.586 -0.1118 -0.8226  0.1099
  439SOL    HW2 6638  10.097  11.894   9.470  0.7002  0.3851  1.0850
  440SOL     OW 6639   5.318   7.683   4.177 -0.3675  0.4905  0.1127
  440SOL    HW1 6640   5.351   7.717   4.261 -0.0279 -0.6629  0.4650
  440SOL    HW2 6641   5.394   7.684   4.119 -0.7846  2.0481 -0.4546
  441SOL     OW 6642   0.093   2.319   7.312  0.3382 -0.4135 -0.3441
  441SOL    HW1 6643   0.120   2.386   7.249  0.7958 -0.3648 -0.0995
  441SOL    HW2 6644   0.169   2.307   7.369 -0.5479  0.6179  1.1447
  442SOL     OW 6645   6.317   7.671  11.074  0.2725  0.4681  0.4460
  442SOL    HW1 6646   6.327   7.765  11.059 -1.5354  0.6202 -0.1322
  442SOL    HW2 6647   6.290   7.636  10.989  1.2922 -0.6492  0.5614
  443SOL     OW 6648   4.567   1.986   3.089  0.4259 -0.5657 -0.6525
  443SOL    HW1 6649   4.565   2.082   3.092 -1.0215 -0.5320  3.2866
  443SOL    HW2 6650   4.660   1.963   3.100  0.7981  0.3494 -1.7495
  444SOL     OW 6651   7.488  11.280   0.679  0.2874 -0.1306 -0.0214
  444SOL    HW1 6652   7.536  11.218   0.624  1.2402  0.4664  0.1198
  444SOL    HW2 6653   7.515  11.258   0.769  0.3114  0.2178  0.0571
  445SOL     OW 6654   9.302  10.513   5.792  0.1267  0.2270 -0.0082
  445SOL    HW1 6655   9.362  10.497   5.864  1.1549  1.6777 -0.4950
  445SOL    HW2 6656   9.244  10.582   5.824 -0.6449 -0.4422  0.0826
  446SOL     OW 6657   2.967  10.607   8.689  0.7122 -0.0161 -0.2860
  446SOL    HW1 6658   2.990  10.585   8.779 -0.3706 -0.9357 -0.2028
  446SOL    HW2 6659   3.018  10.546   8.636 -0.7731 -1.4500 -0.1418
  447SOL     OW 6660  11.013  11.308   2.239  0.2678 -0.1242 -0.0163
  447SOL    HW1 6661  11.018  11.218   2.209  0.4229 -1.0441  2.5034
  447SOL    HW2 6662  11.047  11.305   2.329 -2.6832  1.8002  1.3197
  448SOL     OW 6663   2.838   0.016   6.418  0.4194 -0.0250  0.2835
  448SOL    HW1 6664   2.855   0.097   6.370  0.3123  0.4473  1.0225
  448SOL    HW2 6665   2.855   0.039   6.509  2.4688 -1.3996  0.3073
  449SOL     OW 6666  11.354  11.561   4.493 -0.2458  0.4027  0.0501
  449SOL    HW1 6667  11.342  11.647   4.534 -0.6183  0.5103 -0.2713
  449SOL    HW2 6668  11.294  11.562   4.418  1.0403  0.5521 -1.0205
  450SOL     OW 6669   2.938  11.455  11.785  0.2171 -0.0832 -0.0999
  450SOL    HW1 6670   2.948  11.379  11.843  0.6327  1.4628  1.9734
  450SOL    HW2 6671   3.027  11.483  11.766  0.0540  0.4606 -0.0626
  451SOL     OW 6672   0.845   0.056   8.711 -0.4884 -0.4663 -0.5822
  451SOL    HW1 6673   0.893   0.001   8.773 -2.5508 -0.6421  0.9515
  451SOL    HW2 6674   0.903   0.132   8.696  0.1933 -0.5668  1.3276
  452SOL     OW 6675   9.043   0.132   3.893 -0.0589  0.2773  0.3812
  452SOL    HW1 6676   9.132   0.134   3.856  0.9244 -0.0249  2.5708
  452SOL    HW2 6677   9.020   0.224   3.904  0.8874  0.3704  1.7705
  453SOL     OW 6678   0.225   9.592   0.622 -0.3762 -0.8644 -0.9969
  453SOL    HW1 6679   0.171   9.648   0.567 -0.8041  0.3515  0.5903
  453SOL    HW2 6680   0.293   9.559   0.564  0.4621  2.0640 -1.8047
  454SOL     OW 6681   8.503   0.653   9.157 -0.2049  0.3460 -0.0939
  454SOL    HW1 6682   8.446   0.586   9.121  0.1175  0.7503 -1.4266
  454SOL    HW2 6683   8.449   0.700   9.220 -1.0821  0.1897 -0.7136
  455SOL     OW 6684   3.918   9.157   3.964 -0.1128  0.0985  0.2098
  455SOL    HW1 6685   3.899   9.063   3.959 -1.0801  0.3279 -1.1339
  455SOL    HW2 6686   3.838   9.199   3.933 -0.7877  1.5372  3.4934
  456SOL     OW 6687   7.279   8.976   6.402 -0.3712  0.0474  0.0407
  456SOL    HW1 6688   7.354   8.989   6.344 -0.9275  1.0401 -0.4754
  456SOL    HW2 6689   7.314   8.994   6.490  0.4200 -1.2611  0.0249
  457SOL     OW 6690   1.917   3.534   6.147  0.4699  0.1082 -0.1070
  457SOL    HW1 6691   1.866   3.567   6.221  2.4420 -1.5297  2.1364
  457SOL    HW2 6692   1.965   3.611   6.115  1.0519  0.5014  1.6247
  458SOL     OW 6693   1.127  11.574   6.101  0.0629  0.5450 -0.3475
  458SOL    HW1 6694   1.208  11.584   6.051 -0.1526 -2.5637 -1.4796
  458SOL    HW2 6695   1.059  11.561   6.036 -0.5510 -1.6082  0.6367
  459SOL     OW 6696   7.767   3.566   5.535 -0.3207 -0.0136  0.2961
  459SOL    HW1 6697   7.778   3.473   5.516  1.6133  0.3006 -0.2558
  459SOL    HW2 6698   7.821   3.611   5.471 -0.2622  1.4540  1.3127
  460SOL     OW 6699   2.738   0.755   4.283  0.1767 -0.4469 -0.9317
  460SOL    HW1 6700   2.771   0.669   4.310 -3.1783 -1.3608  0.7512
  460SOL    HW2 6701   2.709   0.796   4.365 -2.6552  0.2637 -2.1774
  461SOL     OW 6702   0.157   7.512   8.048  0.2702  0.1748 -0.1670
  461SOL    HW1 6703   0.078   7.517   7.993 -0.1849  2.6619  0.5655
  461SOL    HW2 6704   0.165   7.420   8.071 -4.1513  0.0670  2.0818
  462SOL     OW 6705   1.425   9.048   9.636  0.1621 -0.4652  0.1359
  462SOL    HW1 6706   1.376   8.999   9.703 -0.4589 -0.5812 -0.3863
  462SOL    HW2 6707   1.359   9.102   9.594  0.7122  0.2604  0.1923
  463SOL     OW 6708   0.652   3.282   2.804  0.3155 -0.0260  0.0843
  463SOL    HW1 6709   0.725   3.343   2.791  1.6150 -0.9284  2.6097
  463SOL    HW2 6710   0.680   3.203   2.758  0.6889 -0.1779  0.5620
  464SOL     OW 6711   9.011   2.552   4.646 -0.2461  0.3803  0.3783
  464SOL    HW1 6712   8.932   2.500   4.636  0.0292 -0.3706  1.8659
  464SOL    HW2 6713   9.039   2.570   4.556 -0.7976 -1.3593 -0.1797
  465SOL     OW 6714   4.351  11.199   8.301  0.4286  0.6783 -0.5502
  465SOL    HW1 6715   4.403  11.227   8.227  1.0183  0.4416 -0.2274
  465SOL    HW2 6716   4.342  11.278   8.355  1.0981  0.5414 -0.2284
  466SOL     OW 6717   4.631   7.693   2.511  0.3374 -0.9727 -0.2880
  466SOL    HW1 6718   4.684   7.756   2.462  2.5965 -3.2913 -1.0145
  466SOL    HW2 6719   4.605   7.627   2.447 -1.5575 -1.1104  0.5447
  467SOL     OW 6720  10.181   8.036   6.263  0.3271 -0.0152  0.3530
  467SOL    HW1 6721  10.160   8.097   6.334  0.0213  0.7625 -0.3821
  467SOL    HW2 6722  10.276   8.026   6.267  0.1092 -2.0039  2.4588
  468SOL     OW 6723   0.288   5.596   3.327 -0.0206  0.0193  0.7444
  468SOL    HW1 6724   0.268   5.666   3.390  0.5517 -0.3585  1.3552
  468SOL    HW2 6725   0.310   5.520   3.381 -0.8446 -0.7064  0.0825
  469SOL     OW 6726   9.377   8.232   6.925  0.5604  0.6033  0.8282
  469SOL    HW1 6727   9.339   8.186   7.000 -0.7189  0.7903  0.3297
  469SOL    HW2 6728   9.328   8.314   6.920 -0.4501 -0.0546 -1.0888
  470SOL     OW 6729  10.117   7.204   9.098 -0.5870  0.1393 -0.0037
  470SOL    HW1 6730  10.207   7.176   9.080 -1.0395 -0.0216 -2.4218
  470SOL    HW2 6731  10.104   7.186   9.191  1.7088 -0.2835  0.2953
  471SOL     OW 6732   8.789   8.001   3.902 -0.1896 -0.6416 -0.3581
  471SOL    HW1 6733   8.715   8.048   3.863  0.5537  0.3885 -0.5677
  471SOL    HW2 6734   8.844   7.979   3.827  0.3894 -0.1930 -0.0660
  472SOL     OW 6735   2.528   6.430   2.796 -0.1267  0.4220 -0.3096
  472SOL    HW1 6736   2.621   6.444   2.781 -0.3134  0.7283 -1.2084
  472SOL    HW2 6737   2.498   6.379   2.721 -0.8665  1.0810 -0.4737
  473SOL     OW 6738   4.527   6.984  10.295  0.4780 -0.1288 -1.8014
  473SOL    HW1 6739   4.508   6.986  10.202  0.9855  1.1945 -1.9114
  473SOL    HW2 6740   4.580   7.063  10.310 -1.7947  1.1663  0.0620
  474SOL     OW 6741   9.307   9.713   1.060 -0.3683 -0.2342  0.0400
  474SOL    HW1 6742   9.279   9.740   1.147  0.9654 -1.3182  0.8546
  474SOL    HW2 6743   9.260   9.630   1.045 -0.2681 -0.2693 -0.0776
  475SOL     OW 6744   7.379   0.387   9.956  0.2209  0.3283 -0.0528
  475SOL    HW1 6745   7.292   0.363   9.922 -0.8859  1.4489  1.7888
  475SOL    HW2 6746   7.375   0.483   9.964  0.7630  0.2190  2.1302
  476SOL     OW 6747   2.778   6.471   9.010 -0.2294  0.1063 -0.4652
  476SOL    HW1 6748   2.784   6.393   8.956 -1.7213  0.2235 -0.8296
  476SOL    HW2 6749   2.866   6.481   9.047 -0.4869 -2.9591  1.3107
  477SOL     OW 6750   0.003   4.078   2.273 -0.6043  0.1744 -0.0191
  477SOL    HW1 6751   0.074   4.041   2.222 -0.5146 -0.0377  0.2587
  477SOL    HW2 6752  -0.046   4.003   2.305 -1.8420  0.3142 -1.4266
  478SOL     OW 6753   5.643   9.877   9.228  0.5578 -0.2019 -0.0750
  478SOL    HW1 6754   5.726   9.888   9.273  0.3456  1.2867 -0.0261
  478SOL    HW2 6755   5.667   9.858   9.137  1.0074  2.5078 -0.6069
  479SOL     OW 6756   3.451   2.158   7.707  0.1428  0.3297  0.1165
  479SOL    HW1 6757   3.401   2.089   7.752 -1.0580  1.3943  0.4646
  479SOL    HW2 6758   3.386   2.225   7.685  1.6520  2.7543  2.4274
  480SOL     OW 6759   4.402   7.517   1.500  0.0001 -0.0341  0.2586
  480SOL    HW1 6760   4.321   7.511   1.449 -0.5205  0.7965  0.9669
  480SOL    HW2 6761   4.402   7.438   1.554  0.3756 -0.7385 -0.7468
  481SOL     OW 6762   4.226   3.875   7.132  0.0393  0.9671  0.1751
  481SOL    HW1 6763   4.152   3.817   7.114  1.1714 -0.4885  0.0231
  481SOL    HW2 6764   4.202   3.920   7.213 -0.4860 -0.4234  0.8177
  482SOL     OW 6765  11.247  10.928   2.590 -0.6259  0.0295  0.1463
  482SOL    HW1 6766  11.186  10.887   2.650 -0.8059  0.1384  0.0415
  482SOL    HW2 6767  11.314  10.967   2.646 -1.4107  1.1449  0.3622
  483SOL     OW 6768  10.009   4.563  10.374 -0.0286  0.2409 -0.5424
  483SOL    HW1 6769  10.063   4.537  10.449  1.2446  2.4442 -0.5992
  483SOL    HW2 6770   9.945   4.624  10.410  0.4734  1.1732 -1.1968
  484SOL     OW 6771   1.983   4.999  10.082 -0.2390 -0.0532  0.6073
  484SOL    HW1 6772   2.042   4.946  10.135 -0.7051 -2.3386 -1.0059
  484SOL    HW2 6773   2.014   5.088  10.093  1.8894 -0.8718  1.8339
  485SOL     OW 6774   5.647  10.194   5.479  0.0107  0.0615 -0.5016
  485SOL    HW1 6775   5.560  10.187   5.519  0.6777  0.4987  1.0819
  485SOL    HW2 6776   5.654  10.286   5.454 -0.7511 -0.3854 -2.5225
  486SOL     OW 6777   4.653   4.696  10.440 -0.4429  0.1795  0.3261
  486SOL    HW1 6778   4.689   4.666  10.524  2.8607 -0.4621 -1.1536
  486SOL    HW2 6779   4.690   4.783  10.428  2.1354 -1.0711 -1.9262
  487SOL     OW 6780   8.498   1.002   8.361 -0.0326  0.1263  0.3541
  487SOL    HW1 6781   8.558   1.005   8.435 -0.4835 -0.4749  0.7559
  487SOL    HW2 6782   8.426   1.059   8.386 -0.7475 -0.9786  0.9034
  488SOL     OW 6783  10.746   3.499   8.246  0.3983 -0.5125 -0.1695
  488SOL    HW1 6784  10.714   3.472   8.160  1.6004  2.5815 -1.7464
  488SOL    HW2 6785  10.667   3.522   8.295 -0.1841  1.2135 -1.8207
  489SOL     OW 6786   5.257   5.899   0.640 -0.0121  0.0498 -0.0818
  489SOL    HW1 6787   5.341   5.872   0.677 -0.2780 -1.6347 -0.6046
  489SOL    HW2 6788   5.245   5.842   0.564 -1.0592  1.1091 -0.7371
  490SOL     OW 6789   1.465   4.755   8.940  0.3103 -0.5687  0.1991
  490SOL    HW1 6790   1.505   4.723   9.022  0.1028 -0.8895  0.1775
  490SOL    HW2 6791   1.448   4.848   8.956  1.7436 -0.2434 -0.0539
  491SOL     OW 6792   2.797  11.627  10.878  0.0625  0.2613  0.1509
  491SOL    HW1 6793   2.764  11.667  10.798 -1.2738  0.4016  0.7354
  491SOL    HW2 6794   2.891  11.616  10.863 -0.0249  1.0301 -1.1031
  492SOL     OW 6795   0.623  10.752  11.554 -0.6443 -0.9181  0.1027
  492SOL    HW1 6796   0.676  10.735  11.632  0.9289  1.8284 -0.2176
  492SOL    HW2 6797   0.547  10.800  11.587 -0.0931  0.0397  0.0365
  493SOL     OW 6798  11.514   0.421   7.674 -0.3390 -0.4539 -0.2259
  493SOL    HW1 6799  11.474   0.424   7.587  1.1638 -1.4445 -1.0074
  493SOL    HW2 6800  11.444   0.393   7.732 -0.9552 -1.5758 -1.4508
  494SOL     OW 6801  10.497  11.196  10.872  0.1112  0.0037  0.6150
  494SOL    HW1 6802  10.420  11.178  10.818  0.7297 -2.4018  0.4404
  494SOL    HW2 6803  10.534  11.110  10.892  4.2551  1.0163 -1.4836
  495SOL     OW 6804   3.022  11.210   6.440  0.1097 -0.5956  0.2127
  495SOL    HW1 6805   2.991  11.300   6.432 -1.5024 -1.2281 -1.3780
  495SOL    HW2 6806   3.110  11.218   6.476  1.1414  1.8422 -2.4983
  496SOL     OW 6807   0.419  11.183   9.817 -0.4041  0.5134 -0.2370
  496SOL    HW1 6808   0.496  11.196   9.872 -0.8992 -0.2232  0.6623
  496SOL    HW2 6809   0.448  11.207   9.729  0.6749  0.8146  0.1825
  497SOL     OW 6810   2.776   9.596  11.183 -0.1509 -0.2844  0.1783
  497SOL    HW1 6811   2.734   9.513  11.161 -1.9234  0.5020  0.4541
  497SOL    HW2 6812   2.797   9.589  11.276  0.0949 -0.5881  0.0988
  498SOL     OW 6813   1.682   2.701  10.890 -0.2968  0.1375  0.2397
  498SOL    HW1 6814   1.752   2.754  10.928 -2.1246  2.0354  1.2277
  498SOL    HW2 6815   1.675   2.625  10.947  0.7470  0.0814  0.3005
  499SOL     OW 6816   5.473   5.818   9.514  0.1633 -0.8360 -0.1399
  499SOL    HW1 6817   5.512   5.859   9.590  0.5605 -1.9926  0.3028
  499SOL    HW2 6818   5.489   5.879   9.442 -0.9716  0.6786  0.8413
  500SOL     OW 6819  10.171   4.690   7.076 -0.3246  0.4892 -0.7917
  500SOL    HW1 6820  10.193   4.782   7.092 -1.7838  0.7281  0.0483
  500SOL    HW2 6821  10.252   4.651   7.042  0.7684  1.7265  0.2805
  501SOL     OW 6822   0.257   8.878   8.503  0.7621  0.4455  0.3121
  501SOL    HW1 6823   0.228   8.787   8.510  0.3590  0.6011  0.7463
  501SOL    HW2 6824   0.188   8.928   8.546  0.3822  1.0696 -0.9537
  502SOL     OW 6825   7.833   3.966   2.300 -0.0947  0.3325 -0.0846
  502SOL    HW1 6826   7.787   3.925   2.372  0.0874 -2.2030 -1.3116
  502SOL    HW2 6827   7.884   4.037   2.341 -0.9479 -0.2115  2.0417
  503SOL     OW 6828   7.958   5.187   4.046  0.2230 -0.1387  0.3932
  503SOL    HW1 6829   8.044   5.146   4.061  0.3655 -0.5495 -1.2943
  503SOL    HW2 6830   7.907   5.119   4.002 -0.4521  0.6127 -0.0114
  504SOL     OW 6831  10.924   8.366   2.881  0.0413  0.1636  0.0909
  504SOL    HW1 6832  10.935   8.296   2.816 -0.2751 -1.6251  1.8882
  504SOL    HW2 6833  10.901   8.321   2.962  1.8363  2.1829  1.8584
  505SOL     OW 6834   8.308   2.706   4.746 -0.5115  0.6052 -0.5590
  505SOL    HW1 6835   8.339   2.788   4.785  0.7578  0.5710 -1.4409
  505SOL    HW2 6836   8.287   2.651   4.821 -0.3315  1.3471  0.0589
  506SOL     OW 6837   8.306   7.401   3.440 -0.2990  0.0396  0.5155
  506SOL    HW1 6838   8.359   7.409   3.520  1.9350 -0.3708 -0.8224
  506SOL    HW2 6839   8.273   7.489   3.424 -3.6254 -0.4443  3.5910
  507SOL     OW 6840   0.367   6.802   8.728  0.1538 -0.0181  0.3848
  507SOL    HW1 6841   0.457   6.772   8.745  0.0112 -1.6352 -1.3613
  507SOL    HW2 6842   0.370   6.839   8.640 -1.0145 -0.8016 -0.0118
  508SOL     OW 6843   4.138   5.964  10.343  0.5120  0.2862 -0.7905
  508SOL    HW1 6844   4.151   5.909  10.421  0.3926 -0.6272 -1.3912
  508SOL    HW2 6845   4.044   5.963  10.330  0.5137  0.6228 -0.8219
  509SOL     OW 6846  10.186   5.034   7.426  0.6214 -0.3347  0.0396
  509SOL    HW1 6847  10.188   5.118   7.380 -0.8357  0.6118  1.5662
  509SOL    HW2 6848  10.252   4.980   7.382  1.7674  1.6810 -0.8244
  510SOL     OW 6849  10.049   8.186   8.306 -0.2282  0.0160  0.5580
  510SOL    HW1 6850  10.139   8.215   8.294 -0.5710  1.5741  1.4442
  510SOL    HW2 6851  10.047   8.098   8.269  0.7820  1.2130 -2.6813
  511SOL     OW 6852   6.695   2.249   4.743  0.0794  0.1673  0.3309
  511SOL    HW1 6853   6.668   2.327   4.695  1.0012  1.3919  1.7342
  511SOL    HW2 6854   6.617   2.194   4.745 -1.3911  2.1648  1.4544
  512SOL     OW 6855   2.912   4.168   4.789  0.2265  0.3186 -0.3137
  512SOL    HW1 6856   2.926   4.134   4.700  1.8951  1.8268 -0.6907
  512SOL    HW2 6857   2.958   4.106   4.846  2.4945  1.3333 -0.9110
  513SOL     OW 6858   9.731  11.650   2.460 -0.1606  0.2304  0.2939
  513SOL    HW1 6859   9.812  11.641   2.410  1.4331  1.6678  2.4461
  513SOL    HW2 6860   9.699  11.561   2.472  0.3715 -0.2711 -1.6452
  514SOL     OW 6861   0.579   6.591   9.091 -0.3074 -0.1332 -0.3703
  514SOL    HW1 6862   0.631   6.653   9.040  0.5092 -0.4852  0.0117
  514SOL    HW2 6863   0.629   6.579   9.172 -1.6625  0.5470  0.5943
  515SOL     OW 6864   9.054  11.790   9.456 -0.2365  0.1758  0.2438
  515SOL    HW1 6865   9.097  11.803   9.540 -2.4939 -0.0383  1.5203
  515SOL    HW2 6866   8.962  11.774   9.479 -0.2481 -4.2620 -1.9087
  516SOL     OW 6867  10.288  10.192   7.447  0.1354 -0.1063  1.0637
  516SOL    HW1 6868  10.194  10.171   7.440 -0.0180  0.4558  1.3328
  516SOL    HW2 6869  10.331  10.107   7.455 -0.2418 -0.4307 -0.2288
  517SOL     OW 6870   7.820  10.678   7.097 -0.3154  0.0184 -0.7511
  517SOL    HW1 6871   7.838  10.591   7.064 -0.1625  0.2293 -1.2377
  517SOL    HW2 6872   7.784  10.725   7.022  2.5866  1.3358 -1.4473
  518SOL     OW 6873   7.068   1.543   0.905 -0.2105  0.1093  0.2482
  518SOL    HW1 6874   6.995   1.593   0.942 -1.0737 -0.7382 -0.2438
  518SOL    HW2 6875   7.028   1.460   0.877  0.8678 -0.2145 -0.3959
  519SOL     OW 6876  10.077   9.339  10.048  0.1106  0.1963  0.0590
  519SOL    HW1 6877  10.011   9.349  10.116 -1.0417 -1.7662 -0.6958
  519SOL    HW2 6878  10.038   9.377   9.969  0.6686  0.7593  0.0465
  520SOL     OW 6879   3.524  11.464   0.272 -0.1478 -0.5514  0.3227
  520SOL    HW1 6880   3.503  11.546   0.227 -0.4831 -0.8443 -0.0553
  520SOL    HW2 6881   3.580  11.416   0.211  0.6604 -0.2910  0.8441
  521SOL     OW 6882   1.035   1.878   6.523  0.2649  0.2258 -0.4281
  521SOL    HW1 6883   1.045   1.968   6.493 -0.4430  0.9294  1.3128
  521SOL    HW2 6884   0.979   1.836   6.458  2.1808  0.4231 -2.3292
  522SOL     OW 6885   5.304  11.370   7.381 -0.0096 -0.1208 -0.1009
  522SOL    HW1 6886   5.254  11.302   7.427  0.4145 -1.1552 -1.1242
  522SOL    HW2 6887   5.372  11.396   7.443 -0.1822 -0.6186  0.3097
  523SOL     OW 6888   1.121   6.782   4.152 -0.5648 -0.3014 -0.2423
  523SOL    HW1 6889   1.025   6.783   4.150 -0.5793 -1.0600 -1.5934
  523SOL    HW2 6890   1.146   6.852   4.091 -0.2530 -0.2343 -0.0396
  524SOL     OW 6891  11.684   3.424   5.147  0.3725  0.1407 -0.6102
  524SOL    HW1 6892  11.600   3.432   5.101  1.3752 -2.3297 -3.1875
  524SOL    HW2 6893  11.662   3.376   5.227 -0.9260  1.4055 -0.1582
  525SOL     OW 6894   7.227   3.662   6.759  0.3864 -0.4674 -0.0007
  525SOL    HW1 6895   7.242   3.750   6.726  2.0300 -1.3241 -1.7380
  525SOL    HW2 6896   7.301   3.611   6.726 -1.2070 -2.8042 -0.2365
  526SOL     OW 6897   6.832   1.893   5.889  0.0659  0.4712 -0.0609
  526SOL    HW1 6898   6.817   1.820   5.829  1.8721 -0.2127  0.2582
  526SOL    HW2 6899   6.858   1.966   5.831  1.5807 -0.1228 -0.1767
  527SOL     OW 6900   0.562   5.606   4.081  0.1491  0.5661 -0.1074
  527SOL    HW1 6901   0.495   5.621   4.014 -1.1077 -1.2248  0.6757
  527SOL    HW2 6902   0.574   5.692   4.121 -2.6127  0.7755  0.5216
  528SOL     OW 6903  10.911   2.968   2.173 -0.1189 -0.1428 -0.3415
  528SOL    HW1 6904  10.840   2.906   2.152  0.1245 -0.8749  0.8783
  528SOL    HW2 6905  10.868   3.053   2.176 -0.5630 -0.3101 -1.5572
  529SOL     OW 6906  10.294  10.122   2.407 -0.1486  0.1882  0.0317
  529SOL    HW1 6907  10.321  10.204   2.447  0.6172 -0.7359  1.4916
  529SOL    HW2 6908  10.207  10.140   2.370  0.7831  2.1449 -1.3349
  530SOL     OW 6909  11.161  11.120   3.319 -0.8789 -0.7234  0.2275
  530SOL    HW1 6910  11.152  11.172   3.400 -0.3400 -0.4855  0.1388
  530SOL    HW2 6911  11.241  11.070   3.332 -0.0459  0.3294 -0.7098
  531SOL     OW 6912   8.779   5.788  10.508 -0.1360 -0.4559 -0.1198
  531SOL    HW1 6913   8.723   5.756  10.579 -0.1322 -0.8423 -0.2859
  531SOL    HW2 6914   8.719   5.831  10.447 -0.2477 -0.8275 -0.2745
  532SOL     OW 6915   2.446   3.556   4.585  0.0571  0.0988  0.3285
  532SOL    HW1 6916   2.360   3.514   4.591  0.5346 -0.7791  1.3509
  532SOL    HW2 6917   2.438   3.616   4.511 -1.0252 -0.9313 -0.4292
  533SOL     OW 6918  10.184  11.089   5.205 -0.3330 -0.0456  0.1539
  533SOL    HW1 6919  10.213  11.009   5.160  0.2833  0.2875 -0.0569
  533SOL    HW2 6920  10.244  11.156   5.174  0.3929  0.1132  1.8020
  534SOL     OW 6921   4.788   8.797  10.505 -0.1158  0.0372  0.2945
  534SOL    HW1 6922   4.733   8.739  10.556 -1.2413 -1.1459 -2.0812
  534SOL    HW2 6923   4.878   8.774  10.530 -0.6113 -0.0133  2.1443
  535SOL     OW 6924   3.093   6.621  11.774  0.5464 -0.0184 -0.0332
  535SOL    HW1 6925   3.057   6.533  11.783 -3.1698  1.4490  1.1595
  535SOL    HW2 6926   3.026   6.670  11.727  1.0745  2.8948  1.9908
  536SOL     OW 6927   7.331   0.990  11.518  0.8527 -0.1981  0.0754
  536SOL    HW1 6928   7.396   0.953  11.459  0.1995 -0.2199 -0.6583
  536SOL    HW2 6929   7.263   0.923  11.524  1.5661 -0.8234  2.0530
  537SOL     OW 6930  11.637   5.369   5.660  0.0283  0.1817  0.1861
  537SOL    HW1 6931  11.673   5.293   5.616  0.4309  0.7020 -0.4042
  537SOL    HW2 6932  11.713   5.418   5.690 -0.2353 -0.3255  1.7837
  538SOL     OW 6933   5.274   5.305   8.928  0.3296  0.6922  0.0579
  538SOL    HW1 6934   5.295   5.379   8.986 -0.2013  0.2240  0.8804
  538SOL    HW2 6935   5.358   5.265   8.909  0.5851  1.2852 -0.0875
  539SOL     OW 6936   7.821  11.471   8.059  0.5801  0.1998 -0.1439
  539SOL    HW1 6937   7.805  11.538   7.992  0.7401 -0.0436 -0.4254
  539SOL    HW2 6938   7.914  11.452   8.052  0.6740  0.4445  0.4026
  540SOL     OW 6939   9.213   6.143   3.068  1.1246  0.1653  0.4015
  540SOL    HW1 6940   9.231   6.052   3.089  1.7526  0.5833  1.8247
  540SOL    HW2 6941   9.121   6.156   3.090  0.7973 -0.3203 -0.6199
  541SOL     OW 6942  10.021  11.061   7.511  0.0187  0.0563 -0.4716
  541SOL    HW1 6943  10.040  10.980   7.558 -0.3993 -0.1486 -0.6517
  541SOL    HW2 6944  10.107  11.099   7.493  0.1614  1.1707  2.2147
  542SOL     OW 6945   7.471   9.336   0.035  0.5417 -0.4491 -0.0918
  542SOL    HW1 6946   7.445   9.319   0.125 -0.0707  0.6298 -0.0472
  542SOL    HW2 6947   7.388   9.353  -0.011  0.9086 -0.1632 -0.6652
  543SOL     OW 6948   0.094   9.070   8.178 -0.1637  0.1436 -0.0128
  543SOL    HW1 6949   0.112   8.977   8.168  0.7054  0.1713  1.0695
  543SOL    HW2 6950  -0.002   9.075   8.182 -0.2085 -0.7568  0.3430
  544SOL     OW 6951  10.728   6.761   8.005  0.3222  0.1779 -0.2222
  544SOL    HW1 6952  10.653   6.707   8.031  0.2798  0.9101  1.2862
  544SOL    HW2 6953  10.769   6.712   7.933 -1.0915 -0.6573 -0.4934
  545SOL     OW 6954   5.281   8.567   7.985  0.0451 -0.3934  0.0171
  545SOL    HW1 6955   5.266   8.655   7.951 -0.4721 -0.8209 -0.8958
  545SOL    HW2 6956   5.196   8.540   8.021  0.6725  0.1988  2.0615
  546SOL     OW 6957   9.732   3.188  11.622 -0.5216 -0.8678 -0.6040
  546SOL    HW1 6958   9.768   3.126  11.558  0.3140  1.0569 -2.0977
  546SOL    HW2 6959   9.739   3.273  11.580 -2.5425  0.1804  0.9845
  547SOL     OW 6960   8.637  10.882   2.534  0.0211  0.5900 -0.1106
  547SOL    HW1 6961   8.680  10.849   2.613 -2.4699  0.8238  1.4235
  547SOL    HW2 6962   8.619  10.804   2.482  0.5564  0.2994  0.1353
  548SOL     OW 6963   7.248  10.419  10.266 -0.4055 -0.8502 -0.0036
  548SOL    HW1 6964   7.270  10.344  10.321  0.4597 -0.4247  0.2423
  548SOL    HW2 6965   7.208  10.482  10.325 -1.1887 -1.1331 -0.2212
  549SOL     OW 6966   9.893   6.331   9.784 -0.0792 -0.0525 -0.0218
  549SOL    HW1 6967   9.827   6.396   9.757  0.5728  1.1178  1.0899
  549SOL    HW2 6968   9.958   6.382   9.833  0.5880 -1.5162  0.6701
  550SOL     OW 6969  10.975   6.764   3.106  0.8689 -0.1703 -0.0413
  550SOL    HW1 6970  11.034   6.779   3.032 -0.2306  3.5208 -0.3183
  550SOL    HW2 6971  10.933   6.848   3.122 -2.6682 -2.0083  1.6327
  551SOL     OW 6972   2.900   0.626   0.240  0.2605 -0.0657  0.3479
  551SOL    HW1 6973   2.809   0.652   0.228  0.1909  1.8895  3.6052
  551SOL    HW2 6974   2.896   0.554   0.304  0.9370  2.0417  2.9576
  552SOL     OW 6975   3.393   8.607  10.621  0.4485 -0.0874 -0.1375
  552SOL    HW1 6976   3.356   8.534  10.571 -1.0351  0.7581 -0.3383
  552SOL    HW2 6977   3.410   8.675  10.556  0.8974  0.1022  0.1769
  553SOL     OW 6978   0.277   9.669  11.096 -0.5679 -0.0443 -0.2224
  553SOL    HW1 6979   0.202   9.611  11.106 -0.5452  0.1132  1.1002
  553SOL    HW2 6980   0.343   9.633  11.155  0.0010  0.4469 -0.5442
  554SOL     OW 6981   0.551   5.358   0.493  0.2254  0.7157  0.3681
  554SOL    HW1 6982   0.558   5.296   0.565  3.7914  0.0950 -0.3217
  554SOL    HW2 6983   0.494   5.316   0.429 -0.6773  0.0176  1.6032
  555SOL     OW 6984   2.213   0.803   0.917  0.6919  1.0063  0.3882
  555SOL    HW1 6985   2.248   0.719   0.887 -1.8558  0.9090 -2.9468
  555SOL    HW2 6986   2.269   0.868   0.875  0.7376  0.9436  0.3507
  556SOL     OW 6987  10.980   4.860   7.612 -0.1464  0.4229 -0.1863
  556SOL    HW1 6988  10.990   4.846   7.518 -2.3458  3.7828 -1.1261
  556SOL    HW2 6989  10.925   4.788   7.642  1.5859 -1.3807 -1.1008
  557SOL     OW 6990   1.094   3.850  11.369 -0.5504  0.3957 -0.5338
  557SOL    HW1 6991   1.169   3.904  11.344  0.8029 -0.1515  2.0456
  557SOL    HW2 6992   1.053   3.897  11.441 -0.3535 -1.1770  0.6410
  558SOL     OW 6993   1.376   1.893   5.491 -0.4286 -0.3331 -0.4048
  558SOL    HW1 6994   1.397   1.905   5.584  0.7788  0.0318 -0.7091
  558SOL    HW2 6995   1.357   1.800   5.483 -1.9122 -0.1433  0.4540
  559SOL     OW 6996   0.311   0.122   3.503  0.4681  0.0252 -0.0428
  559SOL    HW1 6997   0.247   0.167   3.448  2.7775  2.1276 -1.2383
  559SOL    HW2 6998   0.294   0.029   3.489 -2.0350  0.4776 -0.5576
  560SOL     OW 6999  10.525   2.048   3.497  0.2366  0.2502 -0.0431
  560SOL    HW1 7000  10.501   1.980   3.561  0.3645  0.2638  0.0195
  560SOL    HW2 7001  10.441   2.075   3.459 -0.0913  1.6332  1.5086
  561SOL     OW 7002   5.210   4.338   5.883  0.1623 -0.0600 -0.3909
  561SOL    HW1 7003   5.181   4.283   5.810  0.5098 -1.4248  0.4562
  561SOL    HW2 7004   5.180   4.291   5.961  0.8305  0.7551  0.3723
  562SOL     OW 7005   9.753   4.233   7.795 -0.7146 -0.1265  0.0178
  562SOL    HW1 7006   9.795   4.230   7.709 -1.2945 -0.3825 -0.2614
  562SOL    HW2 7007   9.823   4.214   7.857 -0.6304 -1.6971 -0.5129
  563SOL     OW 7008   5.309   6.961   8.807 -0.3944  0.3239  0.2076
  563SOL    HW1 7009   5.287   6.965   8.900  0.4976  1.2663  0.4029
  563SOL    HW2 7010   5.361   7.040   8.792  0.0794 -0.1891 -0.9276
  564SOL     OW 7011   2.597   3.454   9.034  0.2179  0.4190 -0.4560
  564SOL    HW1 7012   2.650   3.534   9.038  1.4121 -0.3864  0.8036
  564SOL    HW2 7013   2.582   3.440   8.941  1.3942  1.2261 -0.7977
  565SOL     OW 7014  10.340   7.786   4.876 -0.5982 -0.4337 -0.0385
  565SOL    HW1 7015  10.323   7.692   4.873 -2.3447 -0.1297 -1.8425
  565SOL    HW2 7016  10.350   7.813   4.785 -0.9168  1.2339  0.3679
  566SOL     OW 7017  11.700   6.400   1.111  0.0884  0.1854 -0.5333
  566SOL    HW1 7018  11.649   6.481   1.112 -2.3851 -1.2728 -0.3985
  566SOL    HW2 7019  11.788   6.428   1.089 -0.8951  2.7952 -1.5653
  567SOL     OW 7020   2.938   3.061   1.267  0.0630  0.7577  0.1460
  567SOL    HW1 7021   2.926   3.009   1.188  1.2701  1.7373 -0.7293
  567SOL    HW2 7022   2.873   3.027   1.329  0.7294 -1.7060 -0.3835
  568SOL     OW 7023   3.397   7.415   4.040  0.7617  0.1994  0.3449
  568SOL    HW1 7024   3.424   7.496   4.082 -0.6734  0.8586  0.0434
  568SOL    HW2 7025   3.340   7.442   3.968 -0.5550 -1.0868  0.8476
  569SOL     OW 7026   7.533   9.082  11.823 -0.8740  0.5943 -0.0574
  569SOL    HW1 7027   7.527   9.177  11.835 -4.0639  0.3048  1.5678
  569SOL    HW2 7028   7.553   9.049  11.911 -1.5891 -0.3424 -0.2421
  570SOL     OW 7029   9.854  10.041   3.479  0.2937  0.1016  0.5641
  570SOL    HW1 7030   9.784  10.101   3.452  0.3352 -0.2951 -0.4584
  570SOL    HW2 7031   9.933  10.077   3.439  0.3087 -0.6646 -0.1045
  571SOL     OW 7032   2.627   5.906   0.509 -0.0775 -0.4238  0.3541
  571SOL    HW1 7033   2.557   5.842   0.519 -0.6965  0.2340  0.2916
  571SOL    HW2 7034   2.676   5.900   0.591 -0.5245 -0.5107  0.6186
  572SOL     OW 7035   5.224  11.598   6.481 -0.2832  0.3029  0.2765
  572SOL    HW1 7036   5.199  11.506   6.484  0.5163  0.0876  0.5660
  572SOL    HW2 7037   5.143  11.644   6.459 -0.3686 -0.6017 -1.5083
  573SOL     OW 7038  11.506   6.961   2.942 -0.2548  0.4180  0.1306
  573SOL    HW1 7039  11.559   7.000   2.872 -0.3862  0.3717  0.0063
  573SOL    HW2 7040  11.424   7.011   2.940  0.0377  0.9466  0.7686
  574SOL     OW 7041   6.718  10.396   0.600  0.0352  0.1022  0.1235
  574SOL    HW1 7042   6.712  10.343   0.520  2.7654 -0.0213 -0.1129
  574SOL    HW2 7043   6.678  10.341   0.668 -1.3861 -0.2311 -0.9341
  575SOL     OW 7044   7.351   1.583   8.827  0.7548  0.6213  0.2930
  575SOL    HW1 7045   7.360   1.552   8.736  2.1564  1.4790  0.1099
  575SOL    HW2 7046   7.295   1.518   8.869  1.0073 -0.4034 -0.9048
  576SOL     OW 7047   8.745   7.278   5.703 -0.0604  0.0853  0.6324
  576SOL    HW1 7048   8.677   7.257   5.767 -0.8367 -1.3527 -0.6062
  576SOL    HW2 7049   8.714   7.357   5.659 -1.8375 -1.4146 -1.0254
  577SOL     OW 7050   8.095  10.778   1.571 -0.7517  0.6547 -0.0540
  577SOL    HW1 7051   8.187  10.777   1.600 -1.0772  0.3564  1.0359
  577SOL    HW2 7052   8.099  10.809   1.481  0.5962 -1.2251 -0.7093
  578SOL     OW 7053  10.050   4.000   4.312  0.2333  0.0811  0.2000
  578SOL    HW1 7054  10.027   4.084   4.353 -0.2991 -0.6001  1.3437
  578SOL    HW2 7055   9.973   3.977   4.260  0.5733  0.5198 -0.5264
  579SOL     OW 7056   5.314   8.226  10.130  0.0560  0.2054 -0.5732
  579SOL    HW1 7057   5.384   8.192  10.186  2.3204  0.8060 -2.8348
  579SOL    HW2 7058   5.285   8.150  10.079 -1.7416 -0.2615  1.0449
  580SOL     OW 7059   4.642   2.797   4.923 -0.2442 -0.3451  0.0026
  580SOL    HW1 7060   4.670   2.737   4.993  0.9031  0.4439  0.2579
  580SOL    HW2 7061   4.577   2.748   4.873 -1.2146 -0.8784  1.7153
  581SOL     OW 7062   2.071  10.141   3.063 -0.1136 -0.4243 -0.2483
  581SOL    HW1 7063   2.080  10.076   2.992 -0.8782 -0.1271 -0.6266
  581SOL    HW2 7064   2.051  10.089   3.141  0.9888 -0.7769 -0.1877
  582SOL     OW 7065   6.439   8.701   0.199 -0.2446 -0.1342  0.4316
  582SOL    HW1 7066   6.503   8.673   0.264 -0.4969  1.8560  1.6562
  582SOL    HW2 7067   6.381   8.761   0.247 -0.6448  1.1832 -1.5412
  583SOL     OW 7068   5.210   6.543   0.432  0.5499 -0.2573  0.0501
  583SOL    HW1 7069   5.127   6.501   0.410  0.7506 -0.6548  0.0396
  583SOL    HW2 7070   5.261   6.474   0.474  0.4445  0.2987  1.1269
  584SOL     OW 7071   5.576   4.061   9.621 -0.1614 -0.1919 -0.4111
  584SOL    HW1 7072   5.538   4.023   9.542 -1.0457 -1.3509  0.5274
  584SOL    HW2 7073   5.589   4.153   9.600 -3.4593  0.2875 -0.8387
  585SOL     OW 7074   5.965   8.877   6.016  1.1512 -0.0943  0.1031
  585SOL    HW1 7075   6.014   8.882   5.933 -0.6164 -0.1971 -0.9889
  585SOL    HW2 7076   5.970   8.785   6.041  2.5367  0.1132  0.6734
  586SOL     OW 7077   7.629   0.912   7.012  0.1628 -0.2290  0.7910
  586SOL    HW1 7078   7.645   0.981   7.077  0.2430  0.0370  0.4914
  586SOL    HW2 7079   7.656   0.831   7.055 -1.2981 -0.2751  1.6922
  587SOL     OW 7080   7.259   5.334   7.534  0.2769 -0.0773  0.5368
  587SOL    HW1 7081   7.310   5.323   7.614 -0.5220  0.6243  1.1655
  587SOL    HW2 7082   7.221   5.248   7.518 -1.5860  0.3123  2.3640
  588SOL     OW 7083   2.297  11.785   6.821  0.4452  0.1690  0.3244
  588SOL    HW1 7084   2.338  11.700   6.805  1.0560  0.3381  0.9390
  588SOL    HW2 7085   2.293  11.826   6.735 -3.1143 -1.8529 -0.6915
  589SOL     OW 7086   2.723   5.240   7.451 -0.2953 -0.0546  0.0062
  589SOL    HW1 7087   2.704   5.146   7.456 -1.0359  0.0933  0.0393
  589SOL    HW2 7088   2.722   5.269   7.542 -0.5352  0.0731 -0.0362
  590SOL     OW 7089   0.737   0.238   3.576  0.1450  0.3554 -0.2427
  590SOL    HW1 7090   0.784   0.268   3.654  0.2257 -0.9608  0.2352
  590SOL    HW2 7091   0.790   0.268   3.503  0.5353  0.8471  0.2325
  591SOL     OW 7092   6.883   6.214   5.649 -0.2299  0.7385  0.2438
  591SOL    HW1 7093   6.893   6.310   5.653 -0.9189  0.8959 -1.2322
  591SOL    HW2 7094   6.959   6.180   5.696 -1.5063  2.0003  3.5509
  592SOL     OW 7095   6.447   5.049   7.203  0.1585  0.1118  0.1312
  592SOL    HW1 7096   6.358   5.053   7.237  0.7280  2.4754  1.6221
  592SOL    HW2 7097   6.477   4.961   7.226 -1.1107 -0.0021  1.5549
  593SOL     OW 7098   0.562   7.346   8.388  0.3484 -0.0010 -0.3764
  593SOL    HW1 7099   0.640   7.302   8.354 -1.3426 -3.6642 -0.0283
  593SOL    HW2 7100   0.509   7.364   8.310  0.1370 -0.5492 -0.3612
  594SOL     OW 7101   6.454  11.293   8.224 -0.3927  0.2238  0.4851
  594SOL    HW1 7102   6.497  11.304   8.309  0.1940  0.5814  0.1517
  594SOL    HW2 7103   6.420  11.204   8.226 -0.7350  0.3603  1.2504
  595SOL     OW 7104   1.732   8.050   7.023 -0.1622  0.4771 -0.3611
  595SOL    HW1 7105   1.820   8.055   7.061 -0.6636  0.1677  0.8821
  595SOL    HW2 7106   1.704   7.960   7.038 -1.7083  1.2048  1.7028
  596SOL     OW 7107   0.281   0.096   1.748  0.1832  0.5909 -0.5559
  596SOL    HW1 7108   0.196   0.052   1.758 -0.6495  1.4690 -3.0915
  596SOL    HW2 7109   0.344   0.034   1.783 -1.2428 -1.3794 -1.2997
  597SOL     OW 7110   1.034   7.916   7.180  0.3795 -0.1599 -0.0515
  597SOL    HW1 7111   1.101   7.853   7.151  1.1402  0.5804  0.0627
  597SOL    HW2 7112   0.970   7.916   7.110  0.2058 -1.2830  0.0767
  598SOL     OW 7113   5.677   9.762   8.692  0.9612  0.2992 -0.0899
  598SOL    HW1 7114   5.767   9.731   8.685  1.1698  1.0952 -1.3503
  598SOL    HW2 7115   5.634   9.728   8.613 -0.3980 -1.6915  1.3978
  599SOL     OW 7116   2.404   0.216   8.495  0.2640 -0.5990  0.1061
  599SOL    HW1 7117   2.390   0.159   8.419 -2.5331  2.2157 -1.7992
  599SOL    HW2 7118   2.472   0.277   8.466  0.2090 -0.3850  0.4251
  600SOL     OW 7119   9.568   1.201   6.991 -0.0578  0.0464  0.5360
  600SOL    HW1 7120   9.568   1.215   7.086  1.8885  0.6386  0.4919
  600SOL    HW2 7121   9.538   1.284   6.954 -0.1299  0.0533  0.6109
  601SOL     OW 7122   2.409  10.858   0.432  0.7658 -0.7148 -0.1905
  601SOL    HW1 7123   2.433  10.909   0.509  0.6935 -0.5733 -0.2615
  601SOL    HW2 7124   2.313  10.853   0.435  0.7291 -0.2623 -0.5546
  602SOL     OW 7125   5.987   5.612   4.477 -0.2727 -0.0872  0.4062
  602SOL    HW1 7126   5.991   5.573   4.390 -0.2940 -0.4135  0.5475
  602SOL    HW2 7127   5.952   5.542   4.533  0.9337 -0.3003  0.9222
  603SOL     OW 7128   7.127   4.639  11.501  0.0389 -0.3468  0.2121
  603SOL    HW1 7129   7.156   4.657  11.411 -0.8208  0.8323  0.1410
  603SOL    HW2 7130   7.041   4.681  11.507  1.0648  1.7061  2.2706
  604SOL     OW 7131   0.471   7.130   7.252 -0.4652 -0.2118 -0.6198
  604SOL    HW1 7132   0.452   7.038   7.233  2.8244 -1.1049 -0.2695
  604SOL    HW2 7133   0.453   7.176   7.170 -1.2178 -1.3450 -1.1115
  605SOL     OW 7134   9.760   6.257   9.181  0.1055 -0.2945 -0.0353
  605SOL    HW1 7135   9.842   6.294   9.147  0.2461  0.7095  1.3024
  605SOL    HW2 7136   9.746   6.179   9.128  2.4416 -1.0490  0.3310
  606SOL     OW 7137   3.240  11.265   5.020 -0.1646  0.6870 -0.2286
  606SOL    HW1 7138   3.304  11.221   4.965  1.1762 -0.5219  2.1211
  606SOL    HW2 7139   3.279  11.265   5.108 -2.4238  1.9353  0.8888
  607SOL     OW 7140   5.688   4.384  11.396  0.3383 -0.1391 -0.3443
  607SOL    HW1 7141   5.672   4.348  11.309  0.3074 -0.9373 -0.0233
  607SOL    HW2 7142   5.620   4.450  11.408 -1.1067 -1.6076 -0.0475
  608SOL     OW 7143   9.692   5.522  11.379 -0.6694 -0.0411 -0.0296
  608SOL    HW1 7144   9.685   5.439  11.331  1.4478 -0.2965 -0.0051
  608SOL    HW2 7145   9.781   5.552  11.362 -0.8101  1.3338  1.4200
  609SOL     OW 7146   5.381   6.792   5.494  0.3738  0.4340  0.3171
  609SOL    HW1 7147   5.456   6.848   5.472  0.4275  0.3031  0.1677
  609SOL    HW2 7148   5.420   6.720   5.543  0.2931  0.5709  0.5836
  610SOL     OW 7149   9.313   5.483  11.374  0.2458  0.8992 -0.3175
  610SOL    HW1 7150   9.302   5.550  11.307  0.3574  1.7855  0.5223
  610SOL    HW2 7151   9.263   5.516  11.449 -1.5822 -1.0248 -0.5841
  611SOL     OW 7152   9.448  11.745   9.852  0.6674  0.5827 -0.0664
  611SOL    HW1 7153   9.510  11.776   9.786  1.1082  1.8544  0.8982
  611SOL    HW2 7154   9.400  11.823   9.879  0.3223  0.0469  0.9315
  612SOL     OW 7155   0.838   0.538   4.244  0.5409  0.4563  0.4070
  612SOL    HW1 7156   0.905   0.491   4.294  1.1775  0.5030 -0.3769
  612SOL    HW2 7157   0.850   0.507   4.154 -0.6988  0.2327  0.2954
  613SOL     OW 7158   5.463   4.078   6.748 -0.0040  0.0605 -0.2534
  613SOL    HW1 7159   5.515   3.999   6.767  1.6509  1.3874  1.0834
  613SOL    HW2 7160   5.392   4.076   6.812 -1.2738 -1.3969 -1.6226
  614SOL     OW 7161   8.156   2.487   3.106 -0.1541  0.0849 -0.4053
  614SOL    HW1 7162   8.144   2.495   3.201  1.0210 -0.5106 -0.1801
  614SOL    HW2 7163   8.195   2.571   3.080  1.9015 -0.6544  0.0975
  615SOL     OW 7164  11.817   1.969   4.929  0.3068 -0.2997  0.0349
  615SOL    HW1 7165  11.848   1.903   4.992  2.0369 -0.3036 -0.7815
  615SOL    HW2 7166  11.752   1.922   4.877 -0.0151 -0.7383  0.8008
  616SOL     OW 7167   6.826   0.791  11.306 -0.5800  0.1003 -0.1474
  616SOL    HW1 7168   6.825   0.844  11.386 -0.8784 -0.9815  0.5840
  616SOL    HW2 7169   6.802   0.852  11.236  0.3106  1.2122  0.4798
  617SOL     OW 7170   8.899   9.808  11.493 -0.2861  0.5507 -0.4622
  617SOL    HW1 7171   8.885   9.894  11.535  1.8998  0.3552  0.8074
  617SOL    HW2 7172   8.994   9.799  11.488 -0.3118 -2.8583  1.7829
  618SOL     OW 7173  11.691   2.483   4.127  0.0277 -0.7361 -0.1969
  618SOL    HW1 7174  11.651   2.412   4.077 -1.1535 -0.2073 -0.0429
  618SOL    HW2 7175  11.694   2.449   4.217  2.1651 -1.6915 -0.5832
  619SOL     OW 7176   6.153   0.936   6.746 -0.3630 -0.0060  0.4073
  619SOL    HW1 7177   6.160   0.901   6.834 -0.4092 -1.5737 -0.1819
  619SOL    HW2 7178   6.141   0.859   6.690  1.4295  0.7628 -1.1660
  620SOL     OW 7179   5.325   2.976  10.737  0.2328 -0.0111  0.6132
  620SOL    HW1 7180   5.381   3.021  10.800  0.2591 -0.8951  1.2497
  620SOL    HW2 7181   5.380   2.906  10.702 -0.1953 -0.3530  0.6078
  621SOL     OW 7182   1.548   2.807   1.284 -0.2230 -0.0106  0.0250
  621SOL    HW1 7183   1.539   2.851   1.368 -2.8912  0.1530 -0.2638
  621SOL    HW2 7184   1.608   2.734   1.301 -1.2239 -0.3866  2.2639
  622SOL     OW 7185   6.332  10.997   7.611 -0.2425 -0.2483 -0.1670
  622SOL    HW1 7186   6.289  10.918   7.579  0.0812  0.0505 -1.3665
  622SOL    HW2 7187   6.385  10.967   7.685 -1.9507 -0.7287  0.9060
  623SOL     OW 7188   9.693   4.872   9.680 -0.1323 -0.2597 -0.0651
  623SOL    HW1 7189   9.734   4.940   9.627 -1.2408 -0.9618 -1.9429
  623SOL    HW2 7190   9.738   4.876   9.765  1.6900  0.9571 -1.0302
  624SOL     OW 7191   9.792   6.590  10.597 -0.3151 -0.2790  0.5266
  624SOL    HW1 7192   9.803   6.685  10.603 -1.1094 -0.1361 -0.0775
  624SOL    HW2 7193   9.719   6.570  10.656 -0.4526 -0.4420  0.3076
  625SOL     OW 7194   0.466   7.962   5.123 -0.1887 -0.2752  0.2970
  625SOL    HW1 7195   0.477   8.000   5.036  1.8676 -0.5321  0.4047
  625SOL    HW2 7196   0.379   7.922   5.120 -0.3747  0.1504 -1.4563
  626SOL     OW 7197   5.661   2.211   1.487  0.3209 -0.1083 -0.1444
  626SOL    HW1 7198   5.635   2.176   1.402  0.5910  0.3543 -0.4213
  626SOL    HW2 7199   5.603   2.168   1.550 -0.1319 -0.1651 -0.6024
  627SOL     OW 7200   8.846  11.071   2.892 -0.1796  0.1792  0.6659
  627SOL    HW1 7201   8.763  11.044   2.852 -0.3139 -0.0428  1.0894
  627SOL    HW2 7202   8.821  11.140   2.953 -0.0724  0.0093  0.9013
  628SOL     OW 7203   8.273   8.779   2.531 -0.2857 -0.4039 -0.1913
  628SOL    HW1 7204   8.222   8.790   2.450  0.9528 -2.1934 -1.2782
  628SOL    HW2 7205   8.314   8.693   2.522  1.7140  0.3148  1.3256
  629SOL     OW 7206   2.111   2.918   9.316 -0.2302  0.6446  0.4707
  629SOL    HW1 7207   2.138   2.858   9.247 -0.0111 -0.2572  1.3170
  629SOL    HW2 7208   2.193   2.950   9.354 -0.2168 -1.9481  2.9190
  630SOL     OW 7209   0.810  10.082  10.781  0.1991  0.4951  0.8058
  630SOL    HW1 7210   0.831  10.059  10.871  0.3474 -1.7780  0.2449
  630SOL    HW2 7211   0.824  10.002  10.731  0.9704  1.8987 -1.4127
  631SOL     OW 7212   6.014   9.473   2.813 -0.4673 -0.0377 -0.0326
  631SOL    HW1 7213   5.957   9.550   2.809 -1.9250 -1.1130 -0.9198
  631SOL    HW2 7214   6.103   9.508   2.806 -1.0250  1.6391  0.7320
  632SOL     OW 7215   6.614   5.034   2.079  0.1262  0.4456 -0.6168
  632SOL    HW1 7216   6.695   5.069   2.118 -0.1318  0.5567 -0.1725
  632SOL    HW2 7217   6.576   5.108   2.033  0.5778  0.2434 -1.3468
  633SOL     OW 7218   3.896   5.763  10.586  0.2110  0.0134  0.3372
  633SOL    HW1 7219   3.991   5.768  10.573  0.1256 -0.1187 -0.3823
  633SOL    HW2 7220   3.878   5.822  10.659  0.9164 -0.3880  0.8531
  634SOL     OW 7221   1.828   4.458   5.161  0.1515  0.2400 -0.0150
  634SOL    HW1 7222   1.869   4.529   5.211  0.3498 -0.6670  1.1606
  634SOL    HW2 7223   1.888   4.384   5.171 -0.0644 -0.1238 -1.1979
  635SOL     OW 7224   8.909   7.413   2.260 -0.0630  0.1640 -0.2729
  635SOL    HW1 7225   8.997   7.445   2.240  0.0539 -0.1969 -0.3420
  635SOL    HW2 7226   8.923   7.343   2.323 -0.4214  1.3185  1.1702
  636SOL     OW 7227   0.223   9.568   6.044  0.3191 -0.1793  0.3903
  636SOL    HW1 7228   0.185   9.486   6.076 -1.0729  0.1361 -0.3984
  636SOL    HW2 7229   0.162   9.599   5.978 -0.0872  2.3421  1.8031
  637SOL     OW 7230   6.335   7.709   2.542 -0.3054  0.1989  0.4383
  637SOL    HW1 7231   6.256   7.680   2.495  0.2000 -2.8444  1.2880
  637SOL    HW2 7232   6.308   7.713   2.633  0.8254 -2.5026  0.9766
  638SOL     OW 7233   3.869  10.455   5.618 -0.0708 -0.3697  0.0963
  638SOL    HW1 7234   3.847  10.376   5.570 -1.9726  2.2806 -3.9507
  638SOL    HW2 7235   3.791  10.510   5.612  1.3279  2.0802  2.1798
  639SOL     OW 7236   9.746  10.986   9.454  0.1355  0.3695 -0.1476
  639SOL    HW1 7237   9.746  11.041   9.533 -1.4430 -1.1401  0.9836
  639SOL    HW2 7238   9.812  10.919   9.472  0.1772  0.3493 -0.3743
  640SOL     OW 7239   4.407   1.809   8.857 -0.2418 -0.1523 -0.9143
  640SOL    HW1 7240   4.424   1.902   8.869  0.0471 -0.2606 -0.4771
  640SOL    HW2 7241   4.311   1.801   8.864 -0.6182  0.5428 -3.9587
  641SOL     OW 7242   6.346   4.084   2.973  0.0907 -0.2323  0.2734
  641SOL    HW1 7243   6.442   4.082   2.964  0.5091  4.0875  1.2208
  641SOL    HW2 7244   6.331   4.076   3.067 -0.4489 -0.4562  0.1691
  642SOL     OW 7245   6.732   9.974   0.932  0.6685  0.2253  0.2723
  642SOL    HW1 7246   6.784   9.908   0.979  0.0724  0.0269  0.6669
  642SOL    HW2 7247   6.679   9.924   0.871  0.2833  0.3437  0.5064
  643SOL     OW 7248   7.439   6.150   3.956  0.0071  0.0134 -0.0055
  643SOL    HW1 7249   7.427   6.119   4.046 -1.1643  0.9999  0.1968
  643SOL    HW2 7250   7.397   6.236   3.954  0.6918  0.3419 -1.3049
  644SOL     OW 7251   9.409   5.657   6.884 -0.5192  0.3238  0.4323
  644SOL    HW1 7252   9.453   5.732   6.924 -0.0617 -0.1074  0.7549
  644SOL    HW2 7253   9.316   5.679   6.886 -0.2512  1.8516 -1.4965
  645SOL     OW 7254  10.687   2.503   1.190  0.4594 -0.5845  0.6874
  645SOL    HW1 7255  10.721   2.589   1.214  0.6838 -1.1783  2.6297
  645SOL    HW2 7256  10.592   2.514   1.185  0.3168 -0.5968  2.7383
  646SOL     OW 7257   3.026   9.718  10.143 -0.7844 -0.0874  0.3115
  646SOL    HW1 7258   2.941   9.675  10.151 -0.6061 -0.4268  0.4015
  646SOL    HW2 7259   3.083   9.669  10.202 -0.5123  0.1005  0.2043
  647SOL     OW 7260   7.605   7.458   7.961 -0.0370 -0.3790 -0.0597
  647SOL    HW1 7261   7.605   7.499   7.875 -2.2690  0.4030  0.2431
  647SOL    HW2 7262   7.554   7.378   7.951  0.2342 -0.6165  0.3952
  648SOL     OW 7263   7.167   6.485   6.290  0.4307 -0.4778 -0.0096
  648SOL    HW1 7264   7.230   6.418   6.317  0.0055 -0.9144 -0.1039
  648SOL    HW2 7265   7.216   6.567   6.296  1.2023 -0.8779 -0.6887
  649SOL     OW 7266   3.092  10.584   4.843 -0.4447 -0.4871  0.5522
  649SOL    HW1 7267   3.182  10.610   4.822 -0.8613 -0.8155 -1.9719
  649SOL    HW2 7268   3.100  10.495   4.877  0.1949 -0.4849  0.4219
  650SOL     OW 7269   0.425   9.550  11.309  0.2564  0.1812 -0.2788
  650SOL    HW1 7270   0.476   9.556  11.389  2.5873  1.6196 -1.7719
  650SOL    HW2 7271   0.434   9.459  11.281  0.1188 -0.1170  0.6334
  651SOL     OW 7272   0.790   5.883  11.028  0.8277 -0.7617 -0.3207
  651SOL    HW1 7273   0.812   5.926  11.110 -0.7821 -0.2620 -0.1188
  651SOL    HW2 7274   0.819   5.944  10.960  0.2603 -0.2119 -0.0710
  652SOL     OW 7275   2.410  10.187   4.353  0.3412 -0.4229 -0.0073
  652SOL    HW1 7276   2.333  10.130   4.349  1.0034 -1.3102 -0.2613
  652SOL    HW2 7277   2.397  10.239   4.433 -0.0252 -1.2981  0.5129
  653SOL     OW 7278   3.088   9.292  10.819 -0.6007 -1.0187  0.7916
  653SOL    HW1 7279   3.109   9.272  10.728 -1.4272 -3.0379  0.9669
  653SOL    HW2 7280   3.118   9.381  10.833 -1.5661 -0.1960 -1.8214
  654SOL     OW 7281   0.681   9.196   3.073 -0.4014 -0.1437 -0.5553
  654SOL    HW1 7282   0.591   9.223   3.055 -0.7730  0.3207  1.6628
  654SOL    HW2 7283   0.672   9.120   3.131  0.6422 -0.2199 -0.4718
  655SOL     OW 7284   6.967   8.638   3.805  0.0761  0.2843  0.0753
  655SOL    HW1 7285   6.986   8.545   3.792  0.9850  0.4144  0.3685
  655SOL    HW2 7286   6.889   8.655   3.752 -0.9981 -0.9875  1.1772
  656SOL     OW 7287   3.091   8.984   1.253 -0.1527  0.1158  0.5968
  656SOL    HW1 7288   3.186   8.984   1.237  0.4139  1.0648  3.3412
  656SOL    HW2 7289   3.069   8.892   1.264  0.7976 -0.0356  1.4505
  657SOL     OW 7290   8.880  11.281   2.400  0.3699  0.1956 -0.4567
  657SOL    HW1 7291   8.923  11.316   2.478 -0.1389  0.2408 -0.1892
  657SOL    HW2 7292   8.920  11.327   2.327  1.3867 -0.3887 -0.2832
  658SOL     OW 7293   3.877   2.891   3.365 -0.3112 -0.3207 -0.0055
  658SOL    HW1 7294   3.799   2.875   3.312 -0.3579 -2.0812  0.5141
  658SOL    HW2 7295   3.856   2.853   3.450  0.5802  0.4894  0.5982
  659SOL     OW 7296   7.207   4.730  10.172  0.8153 -0.0448  0.0102
  659SOL    HW1 7297   7.255   4.813  10.171  0.1418  0.4057  1.3779
  659SOL    HW2 7298   7.202   4.707  10.265  0.2828 -1.2001 -0.2891
  660SOL     OW 7299   7.172   3.505   6.329 -0.2376 -0.2552 -0.1641
  660SOL    HW1 7300   7.169   3.485   6.423 -2.2207 -2.8199 -0.6459
  660SOL    HW2 7301   7.114   3.580   6.319  1.8914  1.6367  0.8888
  661SOL     OW 7302   0.960   3.895   5.451  1.1877  0.2402 -0.0665
  661SOL    HW1 7303   1.051   3.880   5.477  0.5527 -0.5357  1.8789
  661SOL    HW2 7304   0.946   3.989   5.467  1.4275  0.2036  0.3791
  662SOL     OW 7305   4.419  10.250   0.665 -0.5458  0.4315 -0.2678
  662SOL    HW1 7306   4.442  10.342   0.657  0.0836  0.4763  1.5833
  662SOL    HW2 7307   4.423  10.216   0.575 -0.2972  2.0628 -0.9113
  663SOL     OW 7308   0.953  10.066   6.717  0.3391 -0.1572  0.8549
  663SOL    HW1 7309   0.874  10.059   6.663  2.7717  0.2115 -3.1550
  663SOL    HW2 7310   0.972   9.976   6.744 -1.4746 -0.2218  2.0756
  664SOL     OW 7311   6.579   5.588   6.843  0.4670  0.7477  0.0088
  664SOL    HW1 7312   6.509   5.553   6.789 -0.4943  2.2881  0.2066
  664SOL    HW2 7313   6.630   5.511   6.869 -0.5462 -0.2832 -0.9650
  665SOL     OW 7314   8.569   0.470   5.964  0.5587 -0.2498 -0.0415
  665SOL    HW1 7315   8.622   0.394   5.986  1.1124  0.0627 -0.2625
  665SOL    HW2 7316   8.545   0.507   6.049  0.6619 -0.4203  0.0628
  666SOL     OW 7317   3.920   4.245   9.232 -0.1833 -0.2448 -0.0612
  666SOL    HW1 7318   3.901   4.206   9.318 -0.8332 -0.8944 -0.4852
  666SOL    HW2 7319   4.015   4.253   9.230 -0.1336 -0.5707  0.5719
  667SOL     OW 7320   3.355  10.514   5.096  0.2750  0.7559 -0.2217
  667SOL    HW1 7321   3.313  10.454   5.157 -2.7827  0.9593 -1.8925
  667SOL    HW2 7322   3.444  10.527   5.130 -0.4191 -1.1822  2.5978
  668SOL     OW 7323   5.969   2.281   4.895  0.0751  0.2508  0.0959
  668SOL    HW1 7324   5.919   2.348   4.849  0.2790  0.8944  0.8052
  668SOL    HW2 7325   6.058   2.316   4.901  1.2190 -1.7212 -2.9330
  669SOL     OW 7326   1.867   8.227  10.256 -0.3019 -0.2994  0.1504
  669SOL    HW1 7327   1.937   8.247  10.319 -1.1859 -2.2295  1.8380
  669SOL    HW2 7328   1.826   8.312  10.239 -1.2195  0.1362  3.7007
  670SOL     OW 7329   0.453   8.590   8.513 -0.3543 -0.6630 -0.1206
  670SOL    HW1 7330   0.522   8.524   8.502 -0.0898 -0.2082 -1.4333
  670SOL    HW2 7331   0.418   8.603   8.425 -0.6976  0.6192  0.1750
  671SOL     OW 7332   1.010   9.882   8.597  0.0654  0.2045 -0.2958
  671SOL    HW1 7333   1.105   9.877   8.604  0.0843 -0.7251 -0.9620
  671SOL    HW2 7334   0.992   9.969   8.562  0.6823  0.3085 -0.3590
  672SOL     OW 7335   5.355   9.411   6.942  0.1930  0.1805  0.5714
  672SOL    HW1 7336   5.330   9.497   6.906  1.2863  0.2673 -0.0284
  672SOL    HW2 7337   5.450   9.418   6.955 -0.0020 -0.2313  2.4911
  673SOL     OW 7338   4.604   7.332  11.571  0.2136 -0.2244  0.0875
  673SOL    HW1 7339   4.592   7.285  11.488 -0.6198 -0.4431  0.3287
  673SOL    HW2 7340   4.678   7.287  11.612  1.6169  0.8088 -1.1713
  674SOL     OW 7341   1.740   8.917   8.033 -0.0063  0.0566  0.0721
  674SOL    HW1 7342   1.751   8.896   7.940 -2.0938  0.6937 -0.3768
  674SOL    HW2 7343   1.679   8.850   8.065 -0.4346  0.7050  0.6167
  675SOL     OW 7344   4.034  11.650   9.983  0.3669 -0.0102  0.8500
  675SOL    HW1 7345   3.944  11.675   9.961  0.4570 -0.9533 -0.7335
  675SOL    HW2 7346   4.051  11.694  10.067 -2.3416 -1.5874  2.3825
  676SOL     OW 7347   4.677   9.443   6.195  0.7726  0.2591 -0.4141
  676SOL    HW1 7348   4.694   9.507   6.264  0.9376 -0.7136  0.4728
  676SOL    HW2 7349   4.612   9.383   6.233  2.7257 -1.7957 -0.0636
  677SOL     OW 7350   4.730   5.626   4.649  0.1009 -0.8989  0.1381
  677SOL    HW1 7351   4.824   5.639   4.658  0.1767  0.1277 -1.6404
  677SOL    HW2 7352   4.693   5.715   4.650 -1.1364 -1.3400  2.9239
  678SOL     OW 7353   2.859   2.553   6.512 -0.3221  0.0281 -0.2730
  678SOL    HW1 7354   2.810   2.635   6.517 -1.0180 -0.4076  0.0937
  678SOL    HW2 7355   2.820   2.506   6.438 -0.6822 -0.4535  0.2125
  679SOL     OW 7356   6.262   4.774   6.941 -0.3274  0.1753 -0.2552
  679SOL    HW1 7357   6.347   4.762   6.984 -0.5819 -0.4632  0.0868
  679SOL    HW2 7358   6.279   4.761   6.848 -0.2710 -1.2316 -0.0677
  680SOL     OW 7359  10.095   9.792   7.088  0.4674 -0.0313 -0.2195
  680SOL    HW1 7360  10.183   9.770   7.058  0.0178 -0.3456 -1.3471
  680SOL    HW2 7361  10.060   9.709   7.122  0.5770  0.0789  0.1668
  681SOL     OW 7362   3.226   3.831   4.890 -0.1795 -0.3649  0.9304
  681SOL    HW1 7363   3.227   3.783   4.973  0.3676 -2.2113 -0.0837
  681SOL    HW2 7364   3.316   3.863   4.880  0.2431 -1.6835  0.2474
  682SOL     OW 7365   2.463   1.328   9.196  0.1254  0.2428 -0.1288
  682SOL    HW1 7366   2.511   1.282   9.265 -0.6086  0.9655  0.9085
  682SOL    HW2 7367   2.529   1.351   9.131  0.6606 -1.3985 -0.2055
  683SOL     OW 7368   8.015   9.382   5.703 -0.5437 -0.5988  0.4625
  683SOL    HW1 7369   7.925   9.405   5.677 -0.7441  0.7213  2.1468
  683SOL    HW2 7370   8.020   9.288   5.690 -1.9057 -0.5777 -0.4394
  684SOL     OW 7371  11.284   9.067   1.810 -0.8318 -0.0086  0.7172
  684SOL    HW1 7372  11.228   9.066   1.733 -0.5171 -0.2009  0.4899
  684SOL    HW2 7373  11.371   9.089   1.777 -0.2418 -2.1429  0.6942
  685SOL     OW 7374  11.365   9.890   2.423 -0.5532  0.5471 -0.0325
  685SOL    HW1 7375  11.447   9.911   2.468 -0.0438  0.5834 -0.9495
  685SOL    HW2 7376  11.318   9.834   2.485 -0.5128  1.7385  1.1169
  686SOL     OW 7377   2.737   1.298   2.724 -0.1014 -0.1184 -0.1953
  686SOL    HW1 7378   2.728   1.348   2.806 -0.5163  0.9407 -0.8691
  686SOL    HW2 7379   2.669   1.230   2.730 -0.6698  0.4548 -0.0153
  687SOL     OW 7380   6.933   7.738   0.434  0.3088 -0.1709  0.3320
  687SOL    HW1 7381   6.886   7.738   0.350  0.3876  1.5485  0.2570
  687SOL    HW2 7382   7.022   7.763   0.411  0.3990  0.0435  0.9117
  688SOL     OW 7383   0.751   3.373   0.434  0.2720  0.1536  0.2455
  688SOL    HW1 7384   0.783   3.301   0.488 -0.5219 -0.2854  0.1434
  688SOL    HW2 7385   0.667   3.342   0.400 -0.4364  1.4092  0.7939
  689SOL     OW 7386   0.728   7.440   5.411 -0.1507  0.3385 -0.4466
  689SOL    HW1 7387   0.655   7.378   5.403  0.0024  0.2806 -1.5503
  689SOL    HW2 7388   0.698   7.519   5.366 -0.0461  0.8011  0.2804
  690SOL     OW 7389   5.202   8.241   6.832  0.1892  0.3225 -0.4978
  690SOL    HW1 7390   5.192   8.148   6.812  1.5867  0.3497 -1.4871
  690SOL    HW2 7391   5.147   8.285   6.767 -0.4515  0.2079 -0.0472
  691SOL     OW 7392   4.599   5.401   3.186  0.0348 -0.0767  0.1603
  691SOL    HW1 7393   4.630   5.408   3.276 -0.0957  1.4431  0.1178
  691SOL    HW2 7394   4.679   5.394   3.134  0.0978 -1.6713  0.4033
  692SOL     OW 7395   1.849   1.726   7.915  0.1579 -0.0092  0.1899
  692SOL    HW1 7396   1.770   1.756   7.960 -0.1882  0.5146 -0.7598
  692SOL    HW2 7397   1.826   1.725   7.822  1.2311  0.0301 -0.0895
  693SOL     OW 7398   6.195   2.578  11.612  0.4205  0.4177  0.3112
  693SOL    HW1 7399   6.213   2.611  11.700 -1.8111 -2.2685  1.9465
  693SOL    HW2 7400   6.175   2.485  11.624  1.1157 -0.3729 -3.2335
  694SOL     OW 7401   3.292   4.066   2.006 -0.5129  0.3874  0.3292
  694SOL    HW1 7402   3.292   4.089   1.913 -2.4502 -0.8714 -0.0569
  694SOL    HW2 7403   3.200   4.045   2.025  0.1217 -1.0071  2.1081
  695SOL     OW 7404   9.971   2.548  10.809 -0.0490 -0.0329 -0.3630
  695SOL    HW1 7405  10.016   2.620  10.853 -0.3751  0.3173 -0.5982
  695SOL    HW2 7406  10.010   2.545  10.721 -1.9104  1.6503 -1.3189
  696SOL     OW 7407  11.347   4.045   1.065 -0.3828  0.1591 -0.2202
  696SOL    HW1 7408  11.321   4.135   1.086  2.9696  1.3888 -0.7085
  696SOL    HW2 7409  11.441   4.042   1.084 -0.0757 -2.8289 -1.6291
  697SOL     OW 7410   0.240   8.569   1.837 -0.0610 -0.5086 -0.7532
  697SOL    HW1 7411   0.172   8.627   1.801 -0.7537 -1.1965 -0.5850
  697SOL    HW2 7412   0.209   8.549   1.926  1.6697  1.2482  0.3153
  698SOL     OW 7413   4.190   3.646   5.550 -0.5944 -0.0586  0.2710
  698SOL    HW1 7414   4.173   3.663   5.458  0.9707  0.8248  0.1105
  698SOL    HW2 7415   4.199   3.733   5.589  3.5082 -0.2898  0.2654
  699SOL     OW 7416   8.367   6.291   4.888 -0.3887  0.4304 -0.6195
  699SOL    HW1 7417   8.317   6.320   4.964  1.4784 -0.1632  0.9150
  699SOL    HW2 7418   8.379   6.370   4.836  1.3646  1.7192  1.5717
  700SOL     OW 7419   0.237   2.577   2.772  0.1069 -0.2564  0.1752
  700SOL    HW1 7420   0.326   2.546   2.786  0.0294  0.0032  1.3477
  700SOL    HW2 7421   0.227   2.652   2.830 -1.0624 -0.6363  0.5063
  701SOL     OW 7422  11.021   7.030   2.714 -0.5787  0.1767 -0.2211
  701SOL    HW1 7423  11.091   6.967   2.693 -1.3201 -0.9434  0.5400
  701SOL    HW2 7424  11.061   7.115   2.698 -0.0803 -0.4717 -2.9957
  702SOL     OW 7425  11.556  11.108   4.952 -0.1254 -0.4003 -0.8088
  702SOL    HW1 7426  11.541  11.200   4.928  0.1453  0.0913  0.8044
  702SOL    HW2 7427  11.628  11.111   5.014 -1.7746 -1.3886  1.2880
  703SOL     OW 7428   5.749   6.195   0.969  0.3601 -0.7741  0.5549
  703SOL    HW1 7429   5.825   6.189   1.027 -0.1747  0.5896  1.4304
  703SOL    HW2 7430   5.786   6.188   0.881  1.8070  1.9080  0.8465
  704SOL     OW 7431   9.640   9.335  10.035 -0.6175  0.2847 -0.7534
  704SOL    HW1 7432   9.552   9.310  10.008  0.0361 -1.8646 -1.1379
  704SOL    HW2 7433   9.689   9.341   9.953 -0.0167 -0.3062 -0.4504
  705SOL     OW 7434  11.730   7.930   9.944  0.2288 -0.3015 -0.3520
  705SOL    HW1 7435  11.814   7.893   9.918 -0.7021 -1.5736 -1.7776
  705SOL    HW2 7436  11.717   8.005   9.886  1.1399  1.0078  1.0733
  706SOL     OW 7437   5.274   3.126  11.102  0.3601 -0.0175 -0.0882
  706SOL    HW1 7438   5.260   3.221  11.104  2.4562  0.3305  1.0056
  706SOL    HW2 7439   5.368   3.116  11.089  0.4194 -1.9150  1.3585
  707SOL     OW 7440   2.207   6.406   4.508 -0.4336 -0.2545  0.0218
  707SOL    HW1 7441   2.250   6.398   4.423 -0.7657  0.1756 -0.1887
  707SOL    HW2 7442   2.136   6.342   4.505  0.7100 -1.6358  0.7158
  708SOL     OW 7443   6.526   6.934   3.229 -0.4651 -0.5738 -0.7507
  708SOL    HW1 7444   6.435   6.964   3.228 -0.4741 -0.5166 -2.6894
  708SOL    HW2 7445   6.564   6.971   3.149  1.7823  0.8476  0.8844
  709SOL     OW 7446   6.023  11.507   5.423 -0.2108  0.5828 -0.1389
  709SOL    HW1 7447   6.106  11.510   5.471  0.0514  1.3375 -0.6213
  709SOL    HW2 7448   5.966  11.566   5.472 -0.0594  1.0601 -0.5286
  710SOL     OW 7449   9.130   9.459   0.684 -0.0371 -0.3303 -0.0774
  710SOL    HW1 7450   9.112   9.367   0.704 -0.4382 -0.2929 -0.2473
  710SOL    HW2 7451   9.180   9.456   0.602  1.3281 -0.4654  0.7232
  711SOL     OW 7452   9.048   0.960   9.643 -0.4729  0.0749 -0.0408
  711SOL    HW1 7453   9.046   0.956   9.739 -0.5720 -0.7975 -0.0713
  711SOL    HW2 7454   9.113   1.027   9.623  1.1115 -1.1856  0.6326
  712SOL     OW 7455   5.739   5.492  10.315  0.3273 -0.1276 -0.2039
  712SOL    HW1 7456   5.663   5.504  10.372  0.9999  1.6484  0.3904
  712SOL    HW2 7457   5.792   5.571  10.328  1.5736 -0.6582 -1.6847
  713SOL     OW 7458   4.080  11.564  10.506  0.5374  0.3096  0.3156
  713SOL    HW1 7459   4.072  11.486  10.451  0.7714  0.2423  0.3745
  713SOL    HW2 7460   4.016  11.626  10.470 -1.0246 -0.5948  1.4487
  714SOL     OW 7461   7.867   3.131   5.328  0.3523  0.3520  0.3667
  714SOL    HW1 7462   7.957   3.160   5.334  0.3061  0.3606  1.0959
  714SOL    HW2 7463   7.871   3.036   5.334  0.3283  0.3415  0.2170
  715SOL     OW 7464  11.665   2.990   2.455 -0.1590 -0.4806  0.2605
  715SOL    HW1 7465  11.675   2.921   2.521  0.2689 -1.2980 -0.6305
  715SOL    HW2 7466  11.722   2.962   2.383  0.9638  1.4254  0.3582
  716SOL     OW 7467   6.810  11.635   3.885  0.0165  0.0172 -0.6739
  716SOL    HW1 7468   6.842  11.602   3.800  0.4734  0.1339 -0.5488
  716SOL    HW2 7469   6.864  11.590   3.950  0.2870  0.6194 -0.4797
  717SOL     OW 7470   7.306   1.407   9.342 -0.4620  0.6597 -0.5081
  717SOL    HW1 7471   7.245   1.437   9.409  0.9663  0.1195  1.1114
  717SOL    HW2 7472   7.319   1.314   9.363  2.6774  1.2639  0.7386
  718SOL     OW 7473   5.209   2.661   5.854  0.5568 -0.4511  0.1027
  718SOL    HW1 7474   5.303   2.676   5.865  0.4718 -0.1108  0.4113
  718SOL    HW2 7475   5.192   2.581   5.904  0.6914 -0.5292  0.0216
  719SOL     OW 7476   6.388   8.266   7.147  0.2629  0.0830 -0.2333
  719SOL    HW1 7477   6.366   8.358   7.130  0.6420  0.3077  0.4864
  719SOL    HW2 7478   6.458   8.247   7.085 -1.3669 -0.4211 -2.0319
  720SOL     OW 7479   5.515   1.687   0.691  0.4131  0.4562 -0.2702
  720SOL    HW1 7480   5.594   1.695   0.639  1.2051 -0.4378  0.7584
  720SOL    HW2 7481   5.468   1.769   0.675  0.5796  0.1983 -2.4040
  721SOL     OW 7482   8.100  10.932   7.244  0.7510  0.0408 -0.2037
  721SOL    HW1 7483   8.094  10.934   7.340 -1.3023 -0.2240 -0.2890
  721SOL    HW2 7484   8.180  10.882   7.226  1.1578  0.0737  1.3517
  722SOL     OW 7485  11.794   8.266   0.164  0.1624 -0.3542 -0.2907
  722SOL    HW1 7486  11.797   8.269   0.068  1.0218 -0.2015 -0.2720
  722SOL    HW2 7487  11.750   8.184   0.185 -0.4558 -0.1627 -0.8156
  723SOL     OW 7488  11.382   7.229   9.779  0.7694 -0.4114 -0.0109
  723SOL    HW1 7489  11.365   7.202   9.689  1.8479  0.6247 -0.5482
  723SOL    HW2 7490  11.473   7.205   9.795  0.5712 -0.6453  0.8367
  724SOL     OW 7491   0.840  11.370   0.991 -0.2990  0.2153 -0.5197
  724SOL    HW1 7492   0.934  11.368   1.005 -0.2333 -1.7832 -0.8771
  724SOL    HW2 7493   0.808  11.439   1.050  1.3644  0.9460 -0.4204
  725SOL     OW 7494   7.718   2.497   8.851  0.9658  0.5467 -0.5718
  725SOL    HW1 7495   7.799   2.489   8.902  1.8153 -1.1057 -2.0626
  725SOL    HW2 7496   7.744   2.476   8.761 -1.2949 -1.1299 -0.9168
  726SOL     OW 7497   0.599   9.016  11.129  0.1279  0.2901 -0.2003
  726SOL    HW1 7498   0.611   9.068  11.208 -0.7731 -0.4353  0.4462
  726SOL    HW2 7499   0.584   8.927  11.161  1.3032 -0.3136 -1.2551
  727SOL     OW 7500   3.413   8.168   6.290 -0.2937 -0.5034 -0.0497
  727SOL    HW1 7501   3.455   8.213   6.363 -0.5217  0.6067 -0.5843
  727SOL    HW2 7502   3.334   8.130   6.328 -0.3742  0.0042  0.3003
  728SOL     OW 7503   8.088   1.624   6.392  0.4710  0.4884 -0.1403
  728SOL    HW1 7504   8.071   1.626   6.298  0.1725  1.0809 -0.0794
  728SOL    HW2 7505   8.149   1.696   6.407  1.8443 -0.6395 -0.1141
  729SOL     OW 7506   4.822   5.529   5.466 -0.5700  0.3510 -0.3947
  729SOL    HW1 7507   4.772   5.605   5.495 -0.6271  0.5730 -1.0575
  729SOL    HW2 7508   4.908   5.540   5.506 -1.0693 -0.1117  0.8844
  730SOL     OW 7509  10.899   0.174   4.374 -0.7821 -0.4153 -0.4347
  730SOL    HW1 7510  10.987   0.197   4.407 -1.4769  0.8608  0.6516
  730SOL    HW2 7511  10.888   0.082   4.397 -0.1068 -0.3211  0.3347
  731SOL     OW 7512   5.748   5.320   5.402  0.0672 -0.3813  0.0448
  731SOL    HW1 7513   5.682   5.269   5.448 -0.1115 -1.0669 -0.9522
  731SOL    HW2 7514   5.762   5.397   5.458 -1.4559 -0.2950  0.3512
  732SOL     OW 7515   6.934   5.396  10.159  0.0155 -0.0504 -0.2246
  732SOL    HW1 7516   7.000   5.344  10.113  1.5639 -1.3415  3.1284
  732SOL    HW2 7517   6.983   5.451  10.220 -1.8916  0.2693  1.1431
  733SOL     OW 7518   9.200   6.663   6.250 -0.2886  0.6616 -0.4923
  733SOL    HW1 7519   9.191   6.641   6.158 -0.1188  0.1730 -0.3978
  733SOL    HW2 7520   9.233   6.753   6.251  0.8441  0.2663 -0.9332
  734SOL     OW 7521   3.456  10.033   4.592 -0.2372  0.3589 -0.4914
  734SOL    HW1 7522   3.434   9.964   4.530  0.0261  0.9200 -1.2184
  734SOL    HW2 7523   3.497  10.102   4.539 -0.6517  1.1531  0.1866
  735SOL     OW 7524   6.471   0.905   4.470 -0.0147 -0.1371 -0.0882
  735SOL    HW1 7525   6.400   0.885   4.408  0.6465  0.8896 -1.2358
  735SOL    HW2 7526   6.485   0.999   4.461  0.9789 -0.1914  0.6731
  736SOL     OW 7527  10.410  10.217   1.011 -0.3534  1.1831  0.2113
  736SOL    HW1 7528  10.484  10.168   1.046  0.1434  2.3179  0.8331
  736SOL    HW2 7529  10.412  10.200   0.917 -0.7807 -0.7027  0.5070
  737SOL     OW 7530   9.142  11.227   4.682 -0.4556 -0.2253  0.2766
  737SOL    HW1 7531   9.083  11.161   4.718 -1.5196 -1.4306 -3.3086
  737SOL    HW2 7532   9.094  11.309   4.689 -2.0376 -0.9644 -1.2369
  738SOL     OW 7533   7.844   1.845   6.989 -0.7412  0.0574 -0.4770
  738SOL    HW1 7534   7.881   1.923   7.032 -0.9004  0.5712 -1.2524
  738SOL    HW2 7535   7.907   1.822   6.921 -0.5840 -0.6408 -0.1032
  739SOL     OW 7536   5.397   3.609   7.723 -0.6049 -0.2310  0.1946
  739SOL    HW1 7537   5.317   3.659   7.708 -1.5926 -1.3049  1.6391
  739SOL    HW2 7538   5.398   3.544   7.653 -0.1060  0.7882 -0.7860
  740SOL     OW 7539   8.198   0.784   3.930 -0.5896  0.0648 -0.1370
  740SOL    HW1 7540   8.261   0.712   3.936 -0.6208  0.0033 -0.5044
  740SOL    HW2 7541   8.122   0.746   3.887 -1.2664 -0.1140  1.1675
  741SOL     OW 7542   0.286   0.340  10.168  0.2373 -0.4328  0.2137
  741SOL    HW1 7543   0.366   0.292  10.146 -0.7445 -1.5038 -1.2345
  741SOL    HW2 7544   0.300   0.427  10.131  0.8235 -0.5321  0.1794
  742SOL     OW 7545   7.254   4.313  10.097  0.5938 -0.0427  0.4758
  742SOL    HW1 7546   7.253   4.226  10.058 -0.4270 -0.7208  1.9066
  742SOL    HW2 7547   7.162   4.340  10.097  1.0149  1.5165 -0.9275
  743SOL     OW 7548   3.403   2.627   3.026  0.4064  0.6708  0.4419
  743SOL    HW1 7549   3.394   2.713   2.984 -1.3103  1.1100  1.5854
  743SOL    HW2 7550   3.312   2.598   3.039  0.9496 -0.8286  1.0525
  744SOL     OW 7551   0.869   6.228   5.379 -0.2459  0.5298  0.2197
  744SOL    HW1 7552   0.778   6.204   5.395 -0.1644  0.4131  0.5043
  744SOL    HW2 7553   0.891   6.287   5.451 -0.0468  0.4304  0.2405
  745SOL     OW 7554   4.563   2.650  10.550 -0.1505  0.3020 -0.0140
  745SOL    HW1 7555   4.536   2.707  10.479  1.0839 -1.0328 -1.6283
  745SOL    HW2 7556   4.481   2.621  10.590 -0.8327  1.8138 -0.2519
  746SOL     OW 7557   6.872   5.097   4.537  0.2657 -0.1655 -0.1405
  746SOL    HW1 7558   6.859   5.002   4.533  0.4481 -0.2527  1.1028
  746SOL    HW2 7559   6.809   5.132   4.473  0.2140 -1.1182 -0.6317
  747SOL     OW 7560   7.497   8.948   3.912 -0.0873 -0.9633 -0.1172
  747SOL    HW1 7561   7.541   8.863   3.908  1.1787 -0.3536  0.0493
  747SOL    HW2 7562   7.568   9.011   3.900 -1.0712  0.0618 -0.7183
  748SOL     OW 7563  10.445   7.985   7.044 -0.3386  0.4864 -0.3230
  748SOL    HW1 7564  10.411   7.972   7.133  1.2475  0.9085  0.3779
  748SOL    HW2 7565  10.383   8.046   7.004 -1.8817 -0.8083 -0.0374
  749SOL     OW 7566   7.229  11.014  11.639  0.0629  0.1633  0.2354
  749SOL    HW1 7567   7.317  11.021  11.677 -0.0236 -0.3138  0.5226
  749SOL    HW2 7568   7.209  10.921  11.642  0.9714 -0.2611 -3.0250
  750SOL     OW 7569   9.031   1.675   5.820 -0.3951  0.0429 -0.3567
  750SOL    HW1 7570   9.085   1.748   5.849 -1.2763  0.3088  0.7303
  750SOL    HW2 7571   9.012   1.626   5.901 -2.7884  0.6890 -0.4378
  751SOL     OW 7572   6.290   6.332   2.591  0.4853 -0.1821 -0.5069
  751SOL    HW1 7573   6.384   6.338   2.575  0.3570 -1.7396 -2.1524
  751SOL    HW2 7574   6.251   6.323   2.504 -1.2973  1.3449  0.0809
  752SOL     OW 7575   1.509   7.034   5.776 -0.7626  0.0310  0.1915
  752SOL    HW1 7576   1.565   6.992   5.841 -0.1813 -0.0482 -0.3552
  752SOL    HW2 7577   1.421   7.006   5.799 -0.9424  2.1637  2.6353
  753SOL     OW 7578   5.535  11.242   0.163  0.1481 -0.3460  0.0418
  753SOL    HW1 7579   5.574  11.185   0.229 -0.6198  0.7562  1.5316
  753SOL    HW2 7580   5.609  11.277   0.114  0.9509  0.4394  1.7264
  754SOL     OW 7581   3.402   7.226   1.497 -0.2652  0.1073 -0.4156
  754SOL    HW1 7582   3.394   7.166   1.423 -0.3085  0.8008 -0.9717
  754SOL    HW2 7583   3.335   7.197   1.558 -0.3069 -0.3945 -0.6934
  755SOL     OW 7584   2.265   7.802   0.772  0.8439 -0.1024  0.6321
  755SOL    HW1 7585   2.202   7.777   0.840  0.9293 -2.5519 -0.0801
  755SOL    HW2 7586   2.216   7.794   0.690  1.8058 -1.1952  0.1337
  756SOL     OW 7587   3.797  10.885   1.831 -0.3200  0.1163  0.0917
  756SOL    HW1 7588   3.825  10.895   1.740 -1.7691 -0.8652 -0.5033
  756SOL    HW2 7589   3.789  10.974   1.864 -1.5638  0.5667 -1.3422
  757SOL     OW 7590  11.148   4.399   5.674 -0.4522  0.6169 -0.2149
  757SOL    HW1 7591  11.101   4.449   5.607 -1.4495  1.9413  1.3919
  757SOL    HW2 7592  11.081   4.375   5.738  0.2256 -1.8182 -0.3332
  758SOL     OW 7593   9.354   3.827   6.178 -0.4324  0.1961  0.4507
  758SOL    HW1 7594   9.271   3.780   6.183 -0.4060  0.2791  2.7001
  758SOL    HW2 7595   9.344   3.886   6.103 -1.1588 -2.0051 -1.2875
  759SOL     OW 7596   5.441   5.143   4.928 -0.4041 -0.5803  0.2561
  759SOL    HW1 7597   5.492   5.078   4.878 -2.8108 -1.1215 -1.7112
  759SOL    HW2 7598   5.442   5.221   4.873 -0.2033  0.0227  1.0926
  760SOL     OW 7599   6.206  11.768   2.236 -0.7517 -0.3113  0.6681
  760SOL    HW1 7600   6.199  11.699   2.303  0.6538 -0.0268  1.1356
  760SOL    HW2 7601   6.184  11.724   2.154 -0.6933 -1.1239  1.0801
  761SOL     OW 7602   4.292   9.631  10.797  0.6043  0.7293  0.0837
  761SOL    HW1 7603   4.350   9.616  10.722  0.9908  0.5368  0.4162
  761SOL    HW2 7604   4.205   9.606  10.766  0.8910 -0.1043 -0.0547
  762SOL     OW 7605  11.056   5.699   7.546  0.1281  0.1750 -0.5309
  762SOL    HW1 7606  11.081   5.780   7.590 -1.7785 -0.1271  1.2309
  762SOL    HW2 7607  10.974   5.721   7.501 -2.4659 -1.5227  2.9164
  763SOL     OW 7608   6.028   6.696   9.131 -0.2556  0.1668  0.1114
  763SOL    HW1 7609   5.998   6.618   9.085  0.3086 -0.1910  0.3255
  763SOL    HW2 7610   6.064   6.752   9.063  0.4205 -0.2851  0.0854
  764SOL     OW 7611   7.316   4.926  10.525  0.1173 -0.7729  0.1511
  764SOL    HW1 7612   7.328   5.020  10.510  0.5051 -0.6552  1.1456
  764SOL    HW2 7613   7.398   4.897  10.565 -0.5161 -1.2454  1.1481
  765SOL     OW 7614   0.870   5.256   4.030 -0.0134  0.1193  0.5832
  765SOL    HW1 7615   0.926   5.305   3.970 -0.9357  0.2264 -0.2201
  765SOL    HW2 7616   0.888   5.294   4.116  0.1060  1.1209  0.1329
  766SOL     OW 7617   9.334   1.551  10.442 -0.2333 -0.2339  0.3213
  766SOL    HW1 7618   9.267   1.619  10.432 -0.3296 -0.4046 -0.2367
  766SOL    HW2 7619   9.417   1.599  10.441 -0.2833 -0.1483 -0.4180
  767SOL     OW 7620  11.577   0.927   3.695  0.0372  0.2425  0.3217
  767SOL    HW1 7621  11.637   0.854   3.707  0.6243  1.0696  3.3579
  767SOL    HW2 7622  11.629   1.005   3.716 -0.3735  1.7709 -3.3765
  768SOL     OW 7623  11.713   4.202  11.631  0.6759 -0.2418 -0.1273
  768SOL    HW1 7624  11.664   4.282  11.608  1.7703  0.6149  0.4292
  768SOL    HW2 7625  11.645   4.136  11.644 -0.2999  0.7294 -0.0678
  769SOL     OW 7626   1.191   1.311  10.853 -0.0248  0.4702 -0.1991
  769SOL    HW1 7627   1.217   1.403  10.850 -1.7987  0.9839 -1.0962
  769SOL    HW2 7628   1.206   1.286  10.945 -0.7793  2.0517  0.3982
  770SOL     OW 7629   4.477   6.913   8.424  0.5144 -0.2120  0.2019
  770SOL    HW1 7630   4.520   6.939   8.506  0.9245  0.9507 -0.3594
  770SOL    HW2 7631   4.498   6.820   8.414 -1.6193 -1.0952  2.6795
  771SOL     OW 7632  10.771  10.555   4.184  0.2026 -0.0034 -0.1890
  771SOL    HW1 7633  10.695  10.530   4.236  0.2023 -0.4757 -0.4049
  771SOL    HW2 7634  10.777  10.650   4.193 -0.3777  0.0304 -0.1203
  772SOL     OW 7635   4.455   4.755   4.500  0.3901 -0.1326  0.2284
  772SOL    HW1 7636   4.490   4.822   4.441 -0.2577  0.3275  0.3550
  772SOL    HW2 7637   4.413   4.804   4.570  0.1772 -0.6786  0.4896
  773SOL     OW 7638   6.701   4.594   3.991  0.2049  0.0737 -0.4745
  773SOL    HW1 7639   6.721   4.500   3.994  1.1040  0.1640 -2.0630
  773SOL    HW2 7640   6.608   4.598   3.969  0.4172 -0.4963 -1.5898
  774SOL     OW 7641   9.924   3.283   4.240 -0.2821 -0.1343  0.0768
  774SOL    HW1 7642   9.933   3.288   4.145 -1.4460  0.2169 -0.0309
  774SOL    HW2 7643   9.983   3.350   4.273  0.1927 -0.3149 -0.3843
  775SOL     OW 7644  11.274  11.397   6.570  0.5839  0.2251  0.5012
  775SOL    HW1 7645  11.334  11.444   6.628 -0.3086  1.3600  0.5382
  775SOL    HW2 7646  11.290  11.435   6.483 -0.6137  1.1158  0.6476
  776SOL     OW 7647  10.711   5.709   5.222  0.4966  0.7908  0.6200
  776SOL    HW1 7648  10.804   5.706   5.245  0.2992  1.6143  1.5905
  776SOL    HW2 7649  10.678   5.788   5.265 -0.2786  1.4880 -1.1832
  777SOL     OW 7650   0.620   4.101   6.005 -0.9958 -0.1173 -0.3181
  777SOL    HW1 7651   0.652   4.063   6.087 -0.1640  1.7750  0.2976
  777SOL    HW2 7652   0.693   4.092   5.944 -1.3798 -0.9317 -0.6701
  778SOL     OW 7653   0.039  10.430   4.401  0.0460  0.4413  0.2834
  778SOL    HW1 7654  -0.039  10.483   4.381 -1.3391 -0.5387  2.6805
  778SOL    HW2 7655   0.088  10.482   4.465  0.3476  0.2010  0.2486
  779SOL     OW 7656   4.920   0.178   6.860  0.1917 -0.3755 -0.4666
  779SOL    HW1 7657   4.928   0.242   6.790  2.9521  0.4671  0.5046
  779SOL    HW2 7658   4.975   0.104   6.832 -0.1636 -0.8171 -0.0289
  780SOL     OW 7659   6.585   8.403   3.195 -0.5037  0.4009  0.0612
  780SOL    HW1 7660   6.655   8.386   3.259  0.6355  1.7154 -0.7726
  780SOL    HW2 7661   6.518   8.338   3.216  0.1369  0.3196  2.1126
  781SOL     OW 7662  11.280  10.212  11.721  0.4125  0.2138 -0.1770
  781SOL    HW1 7663  11.352  10.268  11.691  1.4229 -0.9355  0.0239
  781SOL    HW2 7664  11.268  10.235  11.813 -0.5629  1.5180 -0.6096
  782SOL     OW 7665   7.129   3.835   9.176 -0.0202  0.2663  0.4704
  782SOL    HW1 7666   7.197   3.898   9.200  0.4243 -0.3582  0.8814
  782SOL    HW2 7667   7.155   3.804   9.089 -0.2562  0.6690  0.2552
  783SOL     OW 7668   7.563   4.667   5.946 -0.2144 -0.5821  0.3858
  783SOL    HW1 7669   7.527   4.584   5.912 -0.7971 -0.2647  0.2121
  783SOL    HW2 7670   7.650   4.673   5.907  0.0988 -1.4334  0.9184
  784SOL     OW 7671   2.085   2.129   9.954  0.7424  0.7247 -0.1265
  784SOL    HW1 7672   2.160   2.120  10.012 -1.2320 -0.8433  2.4200
  784SOL    HW2 7673   2.014   2.157  10.011 -1.1501 -0.1371 -1.9266
  785SOL     OW 7674   3.732   0.025  11.219  0.2017 -0.2605  0.0461
  785SOL    HW1 7675   3.783   0.097  11.257 -0.4855  0.4076 -0.2634
  785SOL    HW2 7676   3.700  -0.024  11.295 -1.2567  1.1303  0.3970
  786SOL     OW 7677   0.050  10.181   1.620 -0.0819  0.3296 -0.2128
  786SOL    HW1 7678   0.140  10.196   1.589  0.5178 -0.2308  1.1870
  786SOL    HW2 7679  -0.001  10.251   1.579  0.9562  0.5550 -1.1753
  787SOL     OW 7680   9.807   9.467   7.615 -0.4311  0.0023  0.2317
  787SOL    HW1 7681   9.772   9.406   7.680 -1.4095  1.1742  0.8670
  787SOL    HW2 7682   9.729   9.504   7.573  0.1767 -0.4658 -1.3825
  788SOL     OW 7683   3.557   7.119   2.955  0.6671 -0.5547 -0.0218
  788SOL    HW1 7684   3.593   7.208   2.956  0.5951 -0.4754 -1.4456
  788SOL    HW2 7685   3.464   7.131   2.935  0.7691 -0.9504 -0.8135
  789SOL     OW 7686   0.447   9.273  11.370  0.2789 -0.6738 -0.5235
  789SOL    HW1 7687   0.537   9.240  11.375  0.4576  0.0072  2.5527
  789SOL    HW2 7688   0.397   9.219  11.431 -1.2133 -0.4252 -1.4661
  790SOL     OW 7689   9.443   0.838   2.607 -0.0842 -0.2652  0.1623
  790SOL    HW1 7690   9.449   0.786   2.687  0.5223 -0.1641  0.1879
  790SOL    HW2 7691   9.514   0.902   2.614  0.5445 -0.8210 -0.8485
  791SOL     OW 7692   8.601   7.401   6.592  0.5105  0.0033  0.3076
  791SOL    HW1 7693   8.687   7.360   6.603 -0.2695 -2.1018 -0.8231
  791SOL    HW2 7694   8.580   7.436   6.679  1.9701 -0.5196  0.9120
  792SOL     OW 7695   4.153   7.721   2.330  0.2992  0.3280 -0.3617
  792SOL    HW1 7696   4.204   7.748   2.254 -0.3353  0.1372 -0.8667
  792SOL    HW2 7697   4.098   7.797   2.350 -1.7511 -0.6159 -2.0078
  793SOL     OW 7698   9.014  10.988   7.333 -0.0344 -0.2370  0.0816
  793SOL    HW1 7699   9.058  10.957   7.412 -0.2709  0.5776  0.5504
  793SOL    HW2 7700   8.930  10.944   7.333 -1.1514  1.7390  1.7576
  794SOL     OW 7701   0.208   9.121   6.949 -0.4557  0.1431 -0.3029
  794SOL    HW1 7702   0.221   9.026   6.937  3.4379  0.3904  0.3897
  794SOL    HW2 7703   0.120   9.129   6.984 -0.5755 -3.3633  0.6117
  795SOL     OW 7704   0.913   8.776   0.791  0.1349 -0.6721  0.0295
  795SOL    HW1 7705   0.826   8.805   0.818  1.0147  1.2249  1.0830
  795SOL    HW2 7706   0.933   8.701   0.848  0.3965  0.8585  2.0774
  796SOL     OW 7707   5.765   9.761   7.565  0.5119 -0.1733  0.8144
  796SOL    HW1 7708   5.754   9.742   7.658 -0.0651 -1.2534  0.5422
  796SOL    HW2 7709   5.729   9.684   7.520 -1.9333  1.5427 -0.3699
  797SOL     OW 7710   4.026   5.998   5.377 -0.5046  0.1556  0.1295
  797SOL    HW1 7711   4.004   6.033   5.291 -1.0923  1.1604  0.6791
  797SOL    HW2 7712   3.950   6.017   5.431  0.3938  0.7351  1.2175
  798SOL     OW 7713   1.409   8.255   2.735 -1.2456 -0.2119  0.2273
  798SOL    HW1 7714   1.367   8.259   2.649  0.6194  0.2423 -0.7130
  798SOL    HW2 7715   1.418   8.161   2.752  0.2593 -0.3632 -1.1014
  799SOL     OW 7716   8.466   0.817   2.779  0.4979  0.3555 -0.4716
  799SOL    HW1 7717   8.482   0.809   2.873 -0.9993  1.9055 -0.0487
  799SOL    HW2 7718   8.414   0.740   2.757 -1.1167  1.1407  0.4721
  800SOL     OW 7719  10.152   4.933   9.252 -0.0720 -0.7537 -0.6854
  800SOL    HW1 7720  10.243   4.946   9.277 -0.3190 -0.9984  0.3685
  800SOL    HW2 7721  10.118   5.022   9.239 -0.1027 -0.5868  0.4684
  801SOL     OW 7722   0.784   3.802   8.871 -0.0412 -0.1389  0.4139
  801SOL    HW1 7723   0.703   3.852   8.866 -0.0958 -0.3083 -0.6699
  801SOL    HW2 7724   0.759   3.713   8.845  0.4808 -0.1874  0.0569
  802SOL     OW 7725   0.576   7.137   4.373 -0.3083 -0.8065 -0.4563
  802SOL    HW1 7726   0.663   7.171   4.395 -1.0004  1.0577 -0.3530
  802SOL    HW2 7727   0.537   7.206   4.318 -2.0334 -1.1908  0.2209
  803SOL     OW 7728   1.891  11.305   5.356  0.7857 -0.7076  0.0321
  803SOL    HW1 7729   1.866  11.235   5.295 -0.3842  0.4188 -0.8397
  803SOL    HW2 7730   1.815  11.363   5.358  1.1280 -0.2653  1.9487
  804SOL     OW 7731   4.089   8.098  11.360  0.6339 -0.1005  0.5957
  804SOL    HW1 7732   4.148   8.033  11.400  1.8762  1.0549  0.7020
  804SOL    HW2 7733   4.093   8.079  11.266  1.8122  0.4490  0.5206
  805SOL     OW 7734   3.034   3.130  11.646 -0.4353 -0.9021  0.2231
  805SOL    HW1 7735   3.000   3.219  11.642  0.0356 -0.7379 -2.3544
  805SOL    HW2 7736   2.956   3.075  11.643 -0.6698 -0.5418 -0.7758
  806SOL     OW 7737   2.797   4.085   7.274 -0.1614 -0.2016  0.9077
  806SOL    HW1 7738   2.766   4.171   7.304 -0.4423 -0.1855  0.5802
  806SOL    HW2 7739   2.729   4.055   7.213  1.6309  0.9922 -1.9068
  807SOL     OW 7740   3.870   4.341   5.671 -0.1683 -0.1552 -0.4362
  807SOL    HW1 7741   3.827   4.329   5.756 -0.3311 -1.2647 -0.6525
  807SOL    HW2 7742   3.816   4.291   5.610 -0.6633  1.4970 -1.4104
  808SOL     OW 7743   8.897   7.908   4.790  0.2508 -0.4559 -0.7220
  808SOL    HW1 7744   8.859   7.849   4.855 -2.1313 -1.0141 -2.4722
  808SOL    HW2 7745   8.893   7.994   4.830 -1.0190 -0.8095 -0.0455
  809SOL     OW 7746   4.185   5.394   1.516  0.2211 -0.4376 -0.3230
  809SOL    HW1 7747   4.203   5.435   1.601  0.4136  1.7271 -1.3430
  809SOL    HW2 7748   4.095   5.362   1.525 -0.6100  1.7588  0.0462
  810SOL     OW 7749  10.458   7.102   1.229 -0.2224 -0.2889 -0.1358
  810SOL    HW1 7750  10.491   7.191   1.242 -1.3863 -0.0475  1.4898
  810SOL    HW2 7751  10.536   7.047   1.234  0.3077  0.4999  0.6467
  811SOL     OW 7752   6.925   0.796   9.724 -0.3265 -0.2533 -0.0941
  811SOL    HW1 7753   6.884   0.844   9.652 -1.1115 -1.5010 -0.5151
  811SOL    HW2 7754   6.851   0.759   9.772  0.2055  0.2605  1.1613
  812SOL     OW 7755   7.854   8.568  11.557 -0.0031 -0.5658  0.6889
  812SOL    HW1 7756   7.760   8.586  11.553  0.1841  0.3256 -0.0965
  812SOL    HW2 7757   7.880   8.594  11.645  0.0032  1.8631  0.0396
  813SOL     OW 7758   5.319  11.701   7.861 -0.4719 -0.8852  0.2338
  813SOL    HW1 7759   5.269  11.729   7.784 -0.9878  0.5178  1.0328
  813SOL    HW2 7760   5.256  11.700   7.932  0.2627 -0.8877  0.9017
  814SOL     OW 7761  11.176  10.137   8.407  0.5235 -0.0674 -0.4547
  814SOL    HW1 7762  11.243  10.075   8.438  0.6914  0.3585  0.0361
  814SOL    HW2 7763  11.154  10.189   8.484  1.6033  1.6047 -1.2290
  815SOL     OW 7764   4.300   7.487   2.901  0.4350 -0.0330  0.2766
  815SOL    HW1 7765   4.206   7.498   2.918  0.4767  0.9830 -0.0923
  815SOL    HW2 7766   4.341   7.505   2.986  0.4046  1.4827  0.0048
  816SOL     OW 7767   6.408   2.687   6.508  0.6436 -0.3735  0.3127
  816SOL    HW1 7768   6.332   2.664   6.562 -0.9038 -1.0684 -1.9959
  816SOL    HW2 7769   6.448   2.603   6.487  2.7328  0.0278  2.2669
  817SOL     OW 7770   8.011   1.467   1.262 -0.1616 -0.1540 -0.2940
  817SOL    HW1 7771   8.002   1.485   1.169 -0.2873 -0.1665 -0.2850
  817SOL    HW2 7772   8.076   1.397   1.267 -1.6645 -1.6404 -0.5341
  818SOL     OW 7773   9.466   3.007   6.717 -0.2549  0.0626 -0.0819
  818SOL    HW1 7774   9.386   2.994   6.666  0.0752  0.1979 -0.6371
  818SOL    HW2 7775   9.513   2.925   6.710 -0.3217 -0.0037  0.2150
  819SOL     OW 7776  11.346  11.471  10.287  0.6196 -0.0423  0.0821
  819SOL    HW1 7777  11.311  11.384  10.269  0.8019 -0.3768  1.2596
  819SOL    HW2 7778  11.422  11.479  10.230  0.8327 -0.8151  0.2541
  820SOL     OW 7779   4.376  10.050  10.912  0.3753 -0.3196 -0.1605
  820SOL    HW1 7780   4.315   9.985  10.945 -1.2077  0.3220 -1.6471
  820SOL    HW2 7781   4.379  10.117  10.980  3.3861 -2.5703  2.2252
  821SOL     OW 7782   2.448   0.175   4.570  0.2588 -0.2790 -0.3694
  821SOL    HW1 7783   2.404   0.097   4.605  0.6571  0.1977  1.2975
  821SOL    HW2 7784   2.539   0.165   4.599  0.5000  0.3803 -0.8939
  822SOL     OW 7785   6.730  11.245   5.844  0.4947  0.1124  0.2591
  822SOL    HW1 7786   6.780  11.291   5.776 -1.2127  0.4193 -0.8401
  822SOL    HW2 7787   6.711  11.159   5.807  1.6743 -0.6792  1.3849
  823SOL     OW 7788  10.256   4.245   0.516  0.2210  0.6405 -0.3188
  823SOL    HW1 7789  10.339   4.235   0.469 -0.6046 -0.0712 -1.6721
  823SOL    HW2 7790  10.227   4.334   0.496  0.4245  0.7342 -0.2056
  824SOL     OW 7791   3.863   5.044   4.709 -0.1761  0.0699 -0.2934
  824SOL    HW1 7792   3.786   5.065   4.761 -0.8599  0.9640 -1.6056
  824SOL    HW2 7793   3.849   4.953   4.681  0.0474 -0.3059  0.7838
  825SOL     OW 7794   5.445   4.567   8.596  0.0863 -0.5100  0.1725
  825SOL    HW1 7795   5.480   4.478   8.595  0.2764 -0.4460  0.7563
  825SOL    HW2 7796   5.354   4.557   8.624 -0.0019 -0.5561 -0.1282
  826SOL     OW 7797   5.875   3.812   4.645  0.1712 -0.2538  0.1436
  826SOL    HW1 7798   5.885   3.776   4.557  0.1949  1.0713 -0.4167
  826SOL    HW2 7799   5.868   3.906   4.632  2.4985  0.2365  1.7057
  827SOL     OW 7800   9.349   0.958   6.621  0.0905 -0.2206 -0.3073
  827SOL    HW1 7801   9.328   0.869   6.594 -0.6638 -0.2591  0.3656
  827SOL    HW2 7802   9.281   1.012   6.581  0.9197  0.1589 -1.2617
  828SOL     OW 7803   7.384  11.207   2.668  0.8918  0.1604  0.1723
  828SOL    HW1 7804   7.331  11.131   2.693 -0.4204  0.0796 -2.5155
  828SOL    HW2 7805   7.333  11.250   2.599  2.6649  2.2071  0.0458
  829SOL     OW 7806   3.613   5.026   3.920 -0.5142  0.7468 -0.2756
  829SOL    HW1 7807   3.584   5.050   3.832 -0.6249 -1.1262 -0.7988
  829SOL    HW2 7808   3.704   5.057   3.924 -0.6347  1.2057 -0.8966
  830SOL     OW 7809   2.264   4.060   7.127 -0.0100 -0.4481  0.3088
  830SOL    HW1 7810   2.295   4.092   7.042  1.9200 -0.9163  0.7757
  830SOL    HW2 7811   2.182   4.015   7.108  1.5770 -2.7514 -1.7819
  831SOL     OW 7812   9.600   1.070   0.908  0.4265  0.0147 -0.0666
  831SOL    HW1 7813   9.684   1.071   0.861 -0.0341 -0.1239 -0.9100
  831SOL    HW2 7814   9.547   1.006   0.861 -0.1612  0.1123  0.4541
  832SOL     OW 7815   5.595   3.640  10.739 -0.5503  0.0207  0.0917
  832SOL    HW1 7816   5.688   3.617  10.737 -0.1525  1.4465  0.7980
  832SOL    HW2 7817   5.557   3.582  10.805 -0.1605 -0.5344 -0.1697
  833SOL     OW 7818   5.542   6.230   9.704 -0.3262  0.0208  0.1394
  833SOL    HW1 7819   5.583   6.304   9.659 -1.0274  0.0842 -0.3995
  833SOL    HW2 7820   5.486   6.190   9.638  0.6070 -1.4542  0.1980
  834SOL     OW 7821   1.062   7.438   9.724 -0.1380  0.3215  0.6754
  834SOL    HW1 7822   1.062   7.366   9.661  1.1568  1.1712 -0.3644
  834SOL    HW2 7823   1.019   7.403   9.802 -1.7378 -0.7986 -0.6419
  835SOL     OW 7824   0.640   7.595   4.658  0.1196  0.1396  0.5997
  835SOL    HW1 7825   0.697   7.653   4.708 -0.0722 -0.5426  1.6546
  835SOL    HW2 7826   0.616   7.646   4.580  0.6052  1.1556  1.0899
  836SOL     OW 7827   7.441   8.505   8.224  0.2785 -0.3341  0.5107
  836SOL    HW1 7828   7.452   8.513   8.130  1.2697  0.6419  0.6884
  836SOL    HW2 7829   7.490   8.426   8.248 -1.0695 -1.3511  0.0677
  837SOL     OW 7830  11.305   4.952   6.888 -0.4113  0.4415 -0.2655
  837SOL    HW1 7831  11.308   4.972   6.795 -1.5015  0.2789 -0.3424
  837SOL    HW2 7832  11.230   5.001   6.922 -0.2792  0.1751  0.4408
  838SOL     OW 7833   8.969   4.587  10.136  0.0769 -0.3263 -0.4765
  838SOL    HW1 7834   8.940   4.496  10.128  0.7340 -0.5488 -0.3530
  838SOL    HW2 7835   8.905   4.627  10.195 -0.6372 -0.5132 -1.1004
  839SOL     OW 7836  10.670   9.322   5.674  0.1574  0.2642  0.0514
  839SOL    HW1 7837  10.617   9.250   5.709  0.1739  0.7157  1.0258
  839SOL    HW2 7838  10.628   9.344   5.591  0.2946 -1.0216 -0.3854
  840SOL     OW 7839   3.522   7.200   3.917 -0.0493 -0.0340 -0.1567
  840SOL    HW1 7840   3.476   7.271   3.962 -0.5807 -0.3977 -0.1121
  840SOL    HW2 7841   3.452   7.147   3.879  0.3859  0.8125 -2.2955
  841SOL     OW 7842   5.682   7.572  10.170 -0.2317  0.2535  0.1482
  841SOL    HW1 7843   5.700   7.630  10.244  0.8218 -0.0056  0.1113
  841SOL    HW2 7844   5.587   7.573  10.161 -0.2766  1.4178  0.5898
  842SOL     OW 7845   2.966   7.482   4.913  0.2655 -0.3241 -1.2433
  842SOL    HW1 7846   2.997   7.540   4.844 -2.7280  0.0977 -2.4050
  842SOL    HW2 7847   2.873   7.504   4.923  0.4797 -0.4819  2.8570
  843SOL     OW 7848   6.282   0.152   7.034  0.4465  0.0240 -0.2127
  843SOL    HW1 7849   6.314   0.228   7.082  2.4339  0.1338 -1.6180
  843SOL    HW2 7850   6.282   0.179   6.942  1.0063 -1.6003 -0.7271
  844SOL     OW 7851   9.859   7.891   8.499  0.0437 -0.0146  0.2004
  844SOL    HW1 7852   9.899   7.856   8.420 -1.4479 -0.7734 -0.2452
  844SOL    HW2 7853   9.875   7.825   8.566  0.2446  0.0669  0.2344
  845SOL     OW 7854   5.652   9.177   2.765  0.1953 -0.0730 -0.2026
  845SOL    HW1 7855   5.704   9.127   2.701 -0.6982 -1.0152 -0.2032
  845SOL    HW2 7856   5.617   9.112   2.825 -1.2601  0.4967 -0.3918
  846SOL     OW 7857   9.024   9.555   0.100 -0.1645  0.4893  0.2628
  846SOL    HW1 7858   9.106   9.573   0.054 -2.0479 -1.2098 -4.3674
  846SOL    HW2 7859   9.028   9.461   0.120 -0.5727  0.6009  0.8827
  847SOL     OW 7860   8.607   5.029   1.925 -0.1638  0.7808  0.2228
  847SOL    HW1 7861   8.694   5.031   1.884  0.0061  1.7952  0.5938
  847SOL    HW2 7862   8.555   5.089   1.872 -0.8794 -0.4296 -0.4760
  848SOL     OW 7863  10.761   6.493   6.366 -0.2184 -0.6583 -0.2318
  848SOL    HW1 7864  10.775   6.585   6.388  1.1408 -1.1509  1.0848
  848SOL    HW2 7865  10.848   6.458   6.350 -0.2866 -2.5391  2.8309
  849SOL     OW 7866   9.493  10.662   3.544  0.2917  0.3520 -0.2018
  849SOL    HW1 7867   9.463  10.585   3.593  0.6999  0.9196  0.9949
  849SOL    HW2 7868   9.588  10.661   3.555  0.2075  1.8047  1.0939
  850SOL     OW 7869   3.437  11.615   3.666  0.3804 -0.6581 -0.2554
  850SOL    HW1 7870   3.454  11.691   3.611  0.1135 -0.3683  0.0583
  850SOL    HW2 7871   3.517  11.563   3.661  0.7730 -0.0814 -0.0341
  851SOL     OW 7872   4.539   4.274   4.253  0.0798 -0.3960 -0.1478
  851SOL    HW1 7873   4.459   4.228   4.282 -0.1334 -0.4086 -0.7426
  851SOL    HW2 7874   4.584   4.210   4.198  0.5333 -0.4033  0.2231
  852SOL     OW 7875   3.531   5.292   5.883  0.5217  0.1614  0.8661
  852SOL    HW1 7876   3.458   5.351   5.865  0.1378 -0.5751 -0.0552
  852SOL    HW2 7877   3.588   5.342   5.942 -0.8405  0.6665  1.8246
  853SOL     OW 7878   6.823   2.715  11.498 -0.1003 -0.6840  0.0704
  853SOL    HW1 7879   6.916   2.730  11.513  0.0172 -1.6162  0.3342
  853SOL    HW2 7880   6.817   2.679  11.410 -0.5939  2.7977 -1.4644
  854SOL     OW 7881   3.767   4.280   7.553 -0.3173 -0.4935  0.0327
  854SOL    HW1 7882   3.678   4.312   7.566 -0.3206 -1.2163  2.0279
  854SOL    HW2 7883   3.764   4.237   7.467 -1.4400  0.8686 -0.6584
  855SOL     OW 7884   4.952   2.774   7.501  0.4560  0.0239 -0.3345
  855SOL    HW1 7885   5.021   2.749   7.563 -0.1058 -0.2093  0.2165
  855SOL    HW2 7886   4.920   2.858   7.533 -0.4543 -0.5253  0.2410
  856SOL     OW 7887   2.738   8.417   4.702  0.2463 -0.4445 -0.1019
  856SOL    HW1 7888   2.675   8.430   4.773  1.1603 -0.0354  0.6597
  856SOL    HW2 7889   2.762   8.505   4.674  0.8205 -0.5769 -0.0524
  857SOL     OW 7890   3.625   2.099   5.734  0.1059 -0.4303  0.3948
  857SOL    HW1 7891   3.578   2.016   5.746  0.9325 -1.1339 -0.9902
  857SOL    HW2 7892   3.711   2.073   5.700 -0.7444  1.0792 -3.3377
  858SOL     OW 7893   5.083   2.673   1.695  0.3512  0.4286  0.5003
  858SOL    HW1 7894   5.100   2.766   1.706  0.9835  0.4189 -0.3369
  858SOL    HW2 7895   5.011   2.655   1.756  0.6456  1.3211  1.1363
  859SOL     OW 7896   2.457   8.014   3.594  0.0506  0.5698  0.0884
  859SOL    HW1 7897   2.536   7.963   3.579  0.0450  0.9635 -1.3973
  859SOL    HW2 7898   2.487   8.104   3.605 -0.1986  0.7873 -0.8973
  860SOL     OW 7899   2.840   4.076   8.898 -0.4937 -0.5600  0.2556
  860SOL    HW1 7900   2.842   4.172   8.895 -1.1090 -0.5182  1.0016
  860SOL    HW2 7901   2.767   4.052   8.840 -2.1329 -0.4362  2.1768
  861SOL     OW 7902   5.205   0.228   1.239  0.0954  0.7660  0.1473
  861SOL    HW1 7903   5.194   0.246   1.146  1.3153  1.1665  0.0663
  861SOL    HW2 7904   5.180   0.310   1.283 -1.3155  0.3124  0.2562
  862SOL     OW 7905   5.071   0.351   6.072  0.3819  0.1739 -0.1250
  862SOL    HW1 7906   5.158   0.362   6.034  0.2640  0.2985 -0.3553
  862SOL    HW2 7907   5.088   0.337   6.165  0.7648 -1.5749 -0.4205
  863SOL     OW 7908   0.264   1.791   0.401 -0.4016 -0.3059 -0.0273
  863SOL    HW1 7909   0.277   1.882   0.428 -0.9367 -0.1928 -0.1434
  863SOL    HW2 7910   0.244   1.797   0.307  0.0163 -0.5830 -0.1404
  864SOL     OW 7911  10.050  10.003  11.232 -0.0494 -0.2370  0.1338
  864SOL    HW1 7912  10.035  10.081  11.285  2.5316 -0.2206  0.9761
  864SOL    HW2 7913  10.009  10.023  11.148 -2.3816  0.6112  1.3958
  865SOL     OW 7914   4.447  11.414   2.121  0.1210 -0.8964 -0.1647
  865SOL    HW1 7915   4.393  11.491   2.138  0.6441 -0.7643  0.9953
  865SOL    HW2 7916   4.402  11.368   2.050 -0.5896  0.0843 -0.3688
  866SOL     OW 7917   6.561   3.526   0.919 -0.0239  0.0943 -0.2381
  866SOL    HW1 7918   6.638   3.469   0.923 -1.0263 -1.2886 -0.0924
  866SOL    HW2 7919   6.492   3.471   0.882 -1.3452  0.8422  1.0010
  867SOL     OW 7920   7.659   7.693   4.229  0.2416 -0.2896 -0.0134
  867SOL    HW1 7921   7.703   7.609   4.224  1.8336  0.5061 -0.0983
  867SOL    HW2 7922   7.688   7.731   4.312  1.6324  1.2258 -1.1122
  868SOL     OW 7923   8.005   1.123   1.180 -0.0249 -0.7233  0.0407
  868SOL    HW1 7924   7.933   1.085   1.231 -0.3671  0.1977  0.2513
  868SOL    HW2 7925   8.074   1.140   1.245 -0.2749 -0.0077  0.1246
  869SOL     OW 7926   2.377   7.765   2.201  0.3230 -0.7297  0.7071
  869SOL    HW1 7927   2.381   7.846   2.150  0.0355 -1.6804 -0.9146
  869SOL    HW2 7928   2.308   7.714   2.159 -0.4628 -1.2763  2.5652
  870SOL     OW 7929   4.092   1.041   7.888  0.1331 -0.4849 -0.1965
  870SOL    HW1 7930   4.147   1.098   7.833  0.8155 -0.4998  0.4545
  870SOL    HW2 7931   4.025   1.099   7.924  0.5524 -0.1749  0.0992
  871SOL     OW 7932   2.688   0.783   0.563 -0.7085 -0.3458  0.6586
  871SOL    HW1 7933   2.681   0.741   0.478 -0.0067  0.2205  0.3103
  871SOL    HW2 7934   2.637   0.727   0.622 -0.4125 -1.2588  0.0677
  872SOL     OW 7935   9.848   7.612  11.255 -0.4213 -0.4496  0.7327
  872SOL    HW1 7936   9.910   7.686  11.249  0.9205 -1.6678 -1.7346
  872SOL    HW2 7937   9.860   7.580  11.344 -0.2363  1.6002  1.5190
  873SOL     OW 7938   3.070   7.325   2.504  0.4162  0.1220 -0.0690
  873SOL    HW1 7939   3.150   7.372   2.483 -0.9954  2.3314 -0.9227
  873SOL    HW2 7940   3.084   7.293   2.593  1.7175  1.7384  0.3708
  874SOL     OW 7941   3.023   9.186   3.134 -0.0012  0.1310 -0.4608
  874SOL    HW1 7942   2.928   9.193   3.146  0.0638  0.2762 -0.0146
  874SOL    HW2 7943   3.059   9.184   3.223  0.3452 -1.0606 -0.6135
  875SOL     OW 7944   1.558   6.441   0.382 -0.0837  0.3829  0.1889
  875SOL    HW1 7945   1.517   6.355   0.384 -0.9840  0.7689 -0.4396
  875SOL    HW2 7946   1.590   6.455   0.471 -0.0764 -0.5209  0.3383
  876SOL     OW 7947   4.384   3.085   3.065 -0.4330 -0.0827 -0.0496
  876SOL    HW1 7948   4.294   3.058   3.043 -0.4401 -0.7947  0.7785
  876SOL    HW2 7949   4.379   3.180   3.076 -0.8546  0.0226 -1.0293
  877SOL     OW 7950   6.769   0.740   5.999 -0.3058 -0.6224  0.3552
  877SOL    HW1 7951   6.772   0.701   6.087  0.4147 -2.2537 -0.3563
  877SOL    HW2 7952   6.726   0.825   6.012 -0.8513 -1.1295  2.1672
  878SOL     OW 7953   9.211   6.428   0.436 -0.3475  0.4880  0.6742
  878SOL    HW1 7954   9.194   6.341   0.471  0.5240  1.1763  3.0066
  878SOL    HW2 7955   9.176   6.488   0.503  1.9351  1.8953  0.7232
  879SOL     OW 7956   6.573   3.242   2.172  0.1612  0.1775  0.2022
  879SOL    HW1 7957   6.638   3.312   2.175 -0.8249  1.1007  1.0613
  879SOL    HW2 7958   6.599   3.189   2.097  1.5222  0.8817  0.1387
  880SOL     OW 7959   8.732   3.188   9.820 -0.1411 -0.0562 -0.1300
  880SOL    HW1 7960   8.708   3.201   9.912  0.4260  0.2321 -0.0251
  880SOL    HW2 7961   8.717   3.273   9.779 -0.2523 -0.1463 -0.2789
  881SOL     OW 7962   3.318   8.606   6.684 -0.5485  0.0387 -0.3238
  881SOL    HW1 7963   3.355   8.608   6.596 -1.8811  0.5061 -0.8920
  881SOL    HW2 7964   3.355   8.527   6.724  2.3105  1.2916 -0.2665
  882SOL     OW 7965   7.460   4.505   5.459  0.0298  0.0428 -0.4869
  882SOL    HW1 7966   7.523   4.438   5.487 -0.9450 -0.8464 -0.3453
  882SOL    HW2 7967   7.398   4.457   5.405  0.8883  1.4002 -2.7985
  883SOL     OW 7968   3.110   2.364   0.651 -0.8431  0.3087  0.0805
  883SOL    HW1 7969   3.135   2.455   0.640 -2.3774  0.6782 -0.5774
  883SOL    HW2 7970   3.132   2.322   0.568 -0.2735  0.1029  0.3306
  884SOL     OW 7971   9.646   2.176   1.641 -0.6527  1.1122  0.2962
  884SOL    HW1 7972   9.648   2.159   1.547 -0.8831 -0.9391  0.6059
  884SOL    HW2 7973   9.723   2.231   1.658  1.2139 -1.0190 -0.6976
  885SOL     OW 7974   3.565  11.507  11.345 -0.0059 -0.1406  0.2679
  885SOL    HW1 7975   3.647  11.556  11.353 -1.3723  2.1020  1.3232
  885SOL    HW2 7976   3.564  11.477  11.254  2.0864 -0.4768  0.2998
  886SOL     OW 7977   7.382  11.804   3.084  0.2943 -0.1104 -0.8757
  886SOL    HW1 7978   7.392  11.709   3.089  0.8982 -0.0208 -0.2508
  886SOL    HW2 7979   7.471  11.837   3.073  0.1832  0.4315 -0.2119
  887SOL     OW 7980  10.054  11.368   7.291 -0.3860 -0.4129  0.7497
  887SOL    HW1 7981  10.007  11.349   7.210  1.8540  0.4361 -0.8275
  887SOL    HW2 7982  10.093  11.285   7.317 -2.1255 -0.9808  1.7316
  888SOL     OW 7983   8.580   7.756   9.377 -0.0900 -0.1889 -0.2478
  888SOL    HW1 7984   8.598   7.850   9.372  2.2789 -0.4865  1.0549
  888SOL    HW2 7985   8.568   7.729   9.286  1.0058  1.0898 -0.8068
  889SOL     OW 7986   1.726   0.885   8.378 -0.2555  0.2990  0.0646
  889SOL    HW1 7987   1.796   0.886   8.443 -1.3794  0.7350  1.3241
  889SOL    HW2 7988   1.733   0.799   8.337  1.6028  0.6894 -0.5483
  890SOL     OW 7989   0.437   3.689   8.997 -0.7027  0.5188  0.3521
  890SOL    HW1 7990   0.418   3.741   9.075  0.1206  3.0698 -1.0324
  890SOL    HW2 7991   0.490   3.747   8.942 -2.0895 -0.7801 -2.5500
  891SOL     OW 7992   6.559   2.235   6.190  0.3996  0.5925  0.3477
  891SOL    HW1 7993   6.499   2.308   6.200  1.5631  1.7059 -0.4992
  891SOL    HW2 7994   6.643   2.268   6.221  0.5087 -1.1182  2.1045
  892SOL     OW 7995   6.294   8.245   5.927  0.2299 -0.5010 -0.4734
  892SOL    HW1 7996   6.334   8.163   5.900  0.4856 -0.9292  1.1265
  892SOL    HW2 7997   6.344   8.312   5.880  1.3955 -1.1479 -0.2008
  893SOL     OW 7998   1.359   5.805   7.178 -0.0030  0.3819 -0.6388
  893SOL    HW1 7999   1.289   5.741   7.181 -0.1695  0.4762 -1.9196
  893SOL    HW2 8000   1.345   5.853   7.096  1.4828  0.4799 -0.8722
  894SOL     OW 8001   8.117   9.549  10.758  0.0089  0.5137  0.7803
  894SOL    HW1 8002   8.048   9.569  10.821  0.7062  0.4266  1.5902
  894SOL    HW2 8003   8.159   9.633  10.739 -0.2978  0.5655  0.2951
  895SOL     OW 8004  10.664   8.558   8.257 -0.0700  0.3508  0.0025
  895SOL    HW1 8005  10.625   8.634   8.299  2.3287  1.7633 -0.0979
  895SOL    HW2 8006  10.607   8.484   8.280 -1.5932  1.8997  1.4308
  896SOL     OW 8007   1.683   9.227   8.678  0.0780  0.3357  0.2124
  896SOL    HW1 8008   1.700   9.229   8.583  1.9010 -1.2365  0.4379
  896SOL    HW2 8009   1.624   9.153   8.690  0.3426  0.1495  0.3643
  897SOL     OW 8010   6.789   7.571  10.514 -0.1457 -0.2401 -0.2469
  897SOL    HW1 8011   6.793   7.488  10.562 -1.3520  0.1064  0.4828
  897SOL    HW2 8012   6.749   7.550  10.431 -0.2241 -0.4301 -0.1596
  898SOL     OW 8013  10.677  10.324   5.616 -1.1437  0.2729 -1.0495
  898SOL    HW1 8014  10.642  10.236   5.632  0.5602 -0.2892 -0.1892
  898SOL    HW2 8015  10.613  10.382   5.658 -2.8589 -0.4392 -2.5687
  899SOL     OW 8016   8.003   3.229   4.751 -0.7248  0.3114 -0.0487
  899SOL    HW1 8017   7.924   3.277   4.726 -0.2975  0.8126 -0.4706
  899SOL    HW2 8018   8.014   3.249   4.844 -0.3360  1.3804 -0.3029
  900SOL     OW 8019   3.318   7.060   3.780 -0.7415 -0.3251 -0.1697
  900SOL    HW1 8020   3.391   7.071   3.719 -0.8716  0.9097 -0.1423
  900SOL    HW2 8021   3.245   7.108   3.740 -1.0612 -0.1829  0.5608
  901SOL     OW 8022   3.408   7.904   4.472  0.0465 -0.1257 -0.4199
  901SOL    HW1 8023   3.356   7.883   4.394 -0.9605  1.9169 -0.3663
  901SOL    HW2 8024   3.458   7.824   4.490 -1.9438 -1.6691 -1.3764
  902SOL     OW 8025   2.613   6.488   2.187 -0.8793  0.2766 -0.3400
  902SOL    HW1 8026   2.564   6.432   2.247 -2.5194 -1.2068 -2.8773
  902SOL    HW2 8027   2.585   6.577   2.209 -2.2834 -0.3191  0.3799
  903SOL     OW 8028  11.096  10.120   0.659 -0.1653  0.6052  0.1180
  903SOL    HW1 8029  11.095  10.051   0.592 -0.5023 -0.5262  1.2379
  903SOL    HW2 8030  11.013  10.107   0.706  0.3386  1.0004  1.1184
  904SOL     OW 8031   6.546   6.786   8.123 -0.2074  0.4496 -0.0137
  904SOL    HW1 8032   6.631   6.774   8.166  0.5730  1.8317 -1.0720
  904SOL    HW2 8033   6.501   6.851   8.176 -0.6971 -0.4070  0.6429
  905SOL     OW 8034   2.123   1.365   4.406 -0.1594 -0.6383  0.8972
  905SOL    HW1 8035   2.216   1.376   4.424 -0.1543 -0.0264  0.5079
  905SOL    HW2 8036   2.099   1.285   4.452  0.8051 -1.4014  0.1280
  906SOL     OW 8037   0.508  10.443   4.901  0.2252 -0.3946 -0.2821
  906SOL    HW1 8038   0.412  10.446   4.897  0.1445 -2.4256 -0.5469
  906SOL    HW2 8039   0.535  10.528   4.865 -1.4653  0.8766  1.2245
  907SOL     OW 8040   2.824   2.720   7.533  0.1511 -0.4243 -0.2959
  907SOL    HW1 8041   2.894   2.665   7.566  0.6892  0.0421 -0.6477
  907SOL    HW2 8042   2.867   2.800   7.503 -0.7815  0.9613  1.8055
  908SOL     OW 8043   4.435   3.713   9.357 -0.9754  0.3615  0.3347
  908SOL    HW1 8044   4.407   3.752   9.275  0.8315  2.3587  0.5906
  908SOL    HW2 8045   4.367   3.648   9.377 -2.7891  1.5987 -1.4168
  909SOL     OW 8046   9.135   3.723  11.023 -0.5300  0.6785  0.0264
  909SOL    HW1 8047   9.171   3.797  10.973 -0.5925  0.0400 -0.9933
  909SOL    HW2 8048   9.042   3.721  11.000 -0.9936  1.5246  1.6516
  910SOL     OW 8049  10.856   7.443   4.393  0.0955  0.3116 -0.3263
  910SOL    HW1 8050  10.926   7.392   4.354  1.3675  0.6773  1.3562
  910SOL    HW2 8051  10.826   7.501   4.323  0.0837 -1.2159 -1.6296
  911SOL     OW 8052   0.521   6.758   6.496 -0.7861 -0.4293  0.4338
  911SOL    HW1 8053   0.480   6.842   6.514  0.0427 -0.4537  2.7635
  911SOL    HW2 8054   0.615   6.776   6.495 -0.6590 -0.8934 -1.8735
  912SOL     OW 8055   0.495   1.280   6.779  0.3320  0.5288  0.6240
  912SOL    HW1 8056   0.544   1.351   6.737  1.5674 -0.6877 -0.0567
  912SOL    HW2 8057   0.481   1.310   6.869  2.9513  0.6686  1.0576
  913SOL     OW 8058   9.530   8.305   2.953 -0.2828 -0.4535  0.4818
  913SOL    HW1 8059   9.517   8.366   2.881 -1.0563  0.4628  1.3654
  913SOL    HW2 8060   9.607   8.253   2.928 -0.5411 -0.1680 -0.9890
  914SOL     OW 8061   7.636  10.987   9.864 -0.2246  0.5727 -0.3747
  914SOL    HW1 8062   7.724  11.023   9.869  0.0179  0.2385 -1.7895
  914SOL    HW2 8063   7.634  10.939   9.781 -2.0187  1.3332 -0.8223
  915SOL     OW 8064   4.621   7.732   2.101  0.7324  0.1897  0.3599
  915SOL    HW1 8065   4.634   7.806   2.042  0.7618 -0.0310  0.0850
  915SOL    HW2 8066   4.637   7.655   2.046 -0.1937 -0.0467  0.4053
  916SOL     OW 8067  10.363   4.644  11.141  0.1899  0.3770  0.1788
  916SOL    HW1 8068  10.292   4.607  11.194  2.0974 -1.3085  1.7247
  916SOL    HW2 8069  10.394   4.720  11.191  2.4236 -1.5942  2.0122
  917SOL     OW 8070   3.695   9.236   7.253 -0.1057 -0.0681  0.4062
  917SOL    HW1 8071   3.636   9.311   7.252  0.9170  0.7595 -0.2449
  917SOL    HW2 8072   3.751   9.248   7.176  1.0782 -0.6598  1.1351
  918SOL     OW 8073   9.097   0.256   6.512 -0.2752 -0.2279  0.0693
  918SOL    HW1 8074   9.017   0.243   6.563  0.0431 -1.2347  0.3497
  918SOL    HW2 8075   9.083   0.206   6.432  0.8014 -2.0468  0.9539
  919SOL     OW 8076  10.493   4.472   3.756  0.0719  0.1430 -0.3363
  919SOL    HW1 8077  10.491   4.393   3.809 -0.5052  0.3982  0.0388
  919SOL    HW2 8078  10.532   4.445   3.673  0.7885 -0.3038  0.1413
  920SOL     OW 8079   3.747   6.714   3.796 -0.3080 -0.0647 -0.2127
  920SOL    HW1 8080   3.689   6.639   3.803 -0.8598  0.4038  0.3226
  920SOL    HW2 8081   3.762   6.741   3.887  0.0186  0.3719 -0.3915
  921SOL     OW 8082   6.749   6.757   1.733  0.1724 -1.2586  0.0295
  921SOL    HW1 8083   6.808   6.832   1.721 -3.1234  1.7599  0.7383
  921SOL    HW2 8084   6.760   6.734   1.826 -0.8367  0.4621  0.6402
  922SOL     OW 8085   8.595   5.305  10.907 -0.1616  0.4935 -0.2969
  922SOL    HW1 8086   8.585   5.282  10.999  1.9907  1.9484  0.3677
  922SOL    HW2 8087   8.604   5.220  10.862 -2.3085 -0.2799  0.6250
  923SOL     OW 8088   8.186  10.617   9.295 -0.0451 -0.4505  0.8426
  923SOL    HW1 8089   8.254  10.583   9.237  0.0220  1.3043 -0.1683
  923SOL    HW2 8090   8.233  10.642   9.374  0.2945 -0.4190  0.6356
  924SOL     OW 8091   6.977   2.932   3.363  0.0999 -0.3299 -0.1365
  924SOL    HW1 8092   7.036   2.874   3.316  1.2212  0.2962  0.4580
  924SOL    HW2 8093   6.907   2.874   3.395  1.6450 -1.5502  1.2187
  925SOL     OW 8094   6.786   0.276   0.356 -0.1093 -0.1372 -0.6943
  925SOL    HW1 8095   6.851   0.291   0.425  1.5814 -1.7620 -1.8355
  925SOL    HW2 8096   6.799   0.348   0.294  0.4384 -0.3129 -0.7864
  926SOL     OW 8097  10.117   7.723   8.327  0.0298 -0.0404  0.0464
  926SOL    HW1 8098  10.108   7.631   8.354 -0.9813  0.1403  0.3423
  926SOL    HW2 8099  10.210   7.742   8.342  0.1566 -0.8775  0.4289
  927SOL     OW 8100   5.709   5.701   9.241  0.2993  0.2382  0.3827
  927SOL    HW1 8101   5.645   5.672   9.176 -1.5392  0.0009  2.1989
  927SOL    HW2 8102   5.674   5.670   9.324  2.5619  0.5517  1.5168
  928SOL     OW 8103   0.056   7.626   1.777  0.1700 -0.1012  0.7834
  928SOL    HW1 8104  -0.006   7.568   1.733  1.1097 -1.2489  0.9089
  928SOL    HW2 8105   0.141   7.585   1.761  0.7999  0.9571  1.3550
  929SOL     OW 8106   3.345  10.154   5.098 -0.2783  0.1988 -0.0609
  929SOL    HW1 8107   3.282  10.086   5.074 -1.2900  0.9667  0.3618
  929SOL    HW2 8108   3.430  10.109   5.095 -0.4560 -0.1782 -3.4383
  930SOL     OW 8109   0.705   7.296   9.858 -0.6486  0.0514  0.1589
  930SOL    HW1 8110   0.765   7.278   9.785  0.7851  0.9124  1.0647
  930SOL    HW2 8111   0.762   7.301   9.935 -2.0435 -0.2068  1.2526
  931SOL     OW 8112   0.643   0.220   6.880  0.3492 -0.2279  0.2167
  931SOL    HW1 8113   0.700   0.257   6.948  1.6315  1.4340 -1.6285
  931SOL    HW2 8114   0.558   0.261   6.895  0.2738 -0.8384  1.5383
  932SOL     OW 8115   0.274  10.429   4.209 -0.3308  0.0072 -0.3195
  932SOL    HW1 8116   0.274  10.342   4.169  1.3379 -0.2741  0.1997
  932SOL    HW2 8117   0.213  10.421   4.283 -0.1328 -0.7417 -0.2278
  933SOL     OW 8118  10.641   5.947   9.840  0.1344 -0.0551  0.2795
  933SOL    HW1 8119  10.657   5.858   9.871 -0.9743 -0.3781 -0.0280
  933SOL    HW2 8120  10.554   5.943   9.799 -0.0426  1.2161  0.4773
  934SOL     OW 8121   2.309   5.118   2.587 -0.3251 -0.2465 -0.2038
  934SOL    HW1 8122   2.239   5.168   2.630 -0.7454 -0.9168 -0.1012
  934SOL    HW2 8123   2.293   5.132   2.493 -0.6220 -0.4310 -0.1817
  935SOL     OW 8124   0.294   9.726   8.206 -0.2906 -0.1870 -0.0020
  935SOL    HW1 8125   0.272   9.761   8.293 -3.4638 -1.7242 -0.0519
  935SOL    HW2 8126   0.360   9.658   8.223 -1.5925 -1.1629  1.3879
  936SOL     OW 8127   9.987   0.186   7.076 -0.3335 -0.0439  0.2231
  936SOL    HW1 8128  10.042   0.255   7.037  0.5629 -1.4039 -1.0624
  936SOL    HW2 8129  10.026   0.171   7.162  1.4515 -1.0353 -0.6887
  937SOL     OW 8130   0.153   6.952  11.209 -0.3508  0.2467 -0.2664
  937SOL    HW1 8131   0.180   7.020  11.270 -0.3484  0.8161 -0.8830
  937SOL    HW2 8132   0.088   6.900  11.257  0.0338  0.3676  0.3854
  938SOL     OW 8133   4.198   7.813   7.043 -0.5109  0.8417 -0.3833
  938SOL    HW1 8134   4.144   7.840   7.118 -0.7670 -0.3654 -0.1170
  938SOL    HW2 8135   4.283   7.792   7.082 -1.0529 -1.1890 -0.1617
  939SOL     OW 8136   5.719   7.077   8.791  0.8234  0.1283 -0.0885
  939SOL    HW1 8137   5.737   7.149   8.851  2.1924 -0.4902  0.3029
  939SOL    HW2 8138   5.704   7.002   8.848  1.0831 -0.2416 -0.5012
  940SOL     OW 8139   7.219   5.659  10.541  0.3723  0.4246 -0.1312
  940SOL    HW1 8140   7.277   5.701  10.605  0.8419 -0.1925 -0.1408
  940SOL    HW2 8141   7.132   5.690  10.564  0.5340  0.2108  0.8176
  941SOL     OW 8142   5.506   2.175   7.489  0.6264  0.1929 -0.7560
  941SOL    HW1 8143   5.431   2.233   7.495  0.2804 -0.3987  1.5775
  941SOL    HW2 8144   5.513   2.153   7.396 -1.3144  1.2345 -1.1866
  942SOL     OW 8145   5.053  11.421   5.581  0.6629 -0.3253  0.3202
  942SOL    HW1 8146   5.083  11.464   5.501  0.1651 -0.8769 -0.1717
  942SOL    HW2 8147   5.027  11.493   5.639 -0.2732  0.0488 -0.5413
  943SOL     OW 8148   5.019   0.635   6.110  0.4188  0.3201  0.2080
  943SOL    HW1 8149   5.043   0.542   6.100 -0.9833 -0.0633  0.2766
  943SOL    HW2 8150   4.925   0.634   6.129  0.4297  1.7530  0.4318
  944SOL     OW 8151  10.466   1.710   5.163 -0.6129 -0.6007 -0.1405
  944SOL    HW1 8152  10.447   1.617   5.175 -1.0361 -0.2539  2.4380
  944SOL    HW2 8153  10.439   1.729   5.073 -2.1983 -2.5941 -0.1559
  945SOL     OW 8154   5.622   2.287   9.535  0.3860  0.4850 -0.2270
  945SOL    HW1 8155   5.562   2.360   9.548 -0.0453 -0.3262  3.1172
  945SOL    HW2 8156   5.591   2.246   9.454 -1.7328  1.8004 -0.1747
  946SOL     OW 8157   9.353   1.140   1.314  0.5252 -0.1101 -0.1952
  946SOL    HW1 8158   9.285   1.203   1.291 -0.1712 -0.9812 -0.5995
  946SOL    HW2 8159   9.427   1.194   1.341  0.6541  0.9455 -2.4206
  947SOL     OW 8160   7.425  10.355   2.641  0.1084  0.2221  0.0049
  947SOL    HW1 8161   7.436  10.335   2.548  1.0614  4.5986 -1.0250
  947SOL    HW2 8162   7.512  10.341   2.679  0.3561  0.7609 -0.3454
  948SOL     OW 8163   5.178   0.441   7.402  0.0654 -0.7472  0.3465
  948SOL    HW1 8164   5.186   0.345   7.398  2.2944 -0.7020  1.8667
  948SOL    HW2 8165   5.088   0.456   7.432  0.1296 -2.4356  1.5615
  949SOL     OW 8166   1.522   6.126   4.585 -0.2165 -0.3527 -0.4437
  949SOL    HW1 8167   1.542   6.149   4.494 -0.7236 -0.9711 -0.7229
  949SOL    HW2 8168   1.542   6.205   4.635 -2.1227  0.8286 -1.3947
  950SOL     OW 8169   6.622   9.242   3.182  0.9574  0.0269 -0.3159
  950SOL    HW1 8170   6.543   9.188   3.179  0.5895  0.2874  2.2268
  950SOL    HW2 8171   6.689   9.190   3.139  0.1594 -1.6774  0.4085
  951SOL     OW 8172   4.477   1.388   2.532  0.2361 -0.1462 -1.1828
  951SOL    HW1 8173   4.493   1.294   2.526 -0.9334 -0.2617 -3.1158
  951SOL    HW2 8174   4.564   1.428   2.525  0.6440 -1.0401 -1.3290
  952SOL     OW 8175   1.751  11.397   7.658  0.2071 -0.2622  0.4261
  952SOL    HW1 8176   1.809  11.382   7.584 -0.3325  0.0693 -0.0713
  952SOL    HW2 8177   1.706  11.479   7.638 -0.7327 -0.7151  0.6020
  953SOL     OW 8178   6.836  10.926   5.323  0.4188 -0.3673  0.2298
  953SOL    HW1 8179   6.778  10.854   5.347  0.3179 -0.3008  0.1887
  953SOL    HW2 8180   6.829  10.932   5.228  1.6556 -1.3296  0.0621
  954SOL     OW 8181   4.622   5.032  10.233  0.4318 -0.4793  0.0263
  954SOL    HW1 8182   4.535   4.994  10.224 -0.0491  0.3679  0.8775
  954SOL    HW2 8183   4.633   5.047  10.328  0.5882  1.4418 -0.2516
  955SOL     OW 8184   4.740  11.365  10.077  0.6322 -0.3576  0.0128
  955SOL    HW1 8185   4.798  11.290  10.090 -0.6780 -1.3288  0.4805
  955SOL    HW2 8186   4.713  11.359   9.985 -0.7337 -1.4437  0.4502
  956SOL     OW 8187  10.936   3.107   6.928 -0.1673  0.2341 -0.8671
  956SOL    HW1 8188  11.015   3.113   6.983 -0.3906  1.6213 -0.6581
  956SOL    HW2 8189  10.912   3.015   6.930 -0.9283  0.3664  2.4921
  957SOL     OW 8190  11.648  10.637   8.598 -0.4593 -0.1341  0.3167
  957SOL    HW1 8191  11.584  10.681   8.542 -0.0057  1.2026  0.8099
  957SOL    HW2 8192  11.604  10.629   8.683 -0.1235  0.4379  0.5498
  958SOL     OW 8193   6.195   5.949   7.475  0.5751 -0.4545  0.0288
  958SOL    HW1 8194   6.102   5.929   7.476  0.7228 -1.1460  0.5826
  958SOL    HW2 8195   6.204   6.021   7.411 -0.6787  1.4766  1.9080
  959SOL     OW 8196   8.700   5.125   3.352 -0.0054 -0.6838 -0.3826
  959SOL    HW1 8197   8.657   5.051   3.310  0.0648 -0.4078 -0.9439
  959SOL    HW2 8198   8.713   5.096   3.443 -0.2679 -1.2332 -0.5137
  960SOL     OW 8199   4.240   1.033   1.274 -0.2000 -0.3744 -0.4107
  960SOL    HW1 8200   4.274   0.946   1.295 -1.1702 -0.7084 -0.1767
  960SOL    HW2 8201   4.178   1.019   1.203  0.1194  0.2237 -0.8169
  961SOL     OW 8202   2.480   9.352   6.719 -0.2747  0.2607  0.2981
  961SOL    HW1 8203   2.571   9.356   6.747 -0.5323 -1.5100  1.5740
  961SOL    HW2 8204   2.431   9.394   6.790 -0.6351 -1.0470  0.8522
  962SOL     OW 8205  10.735   7.278   2.187 -0.3208  0.1312 -0.1038
  962SOL    HW1 8206  10.786   7.359   2.190  0.4039 -0.3207  0.0962
  962SOL    HW2 8207  10.780   7.219   2.248 -1.8850  0.1685  1.1528
  963SOL     OW 8208   8.357   1.439   0.395  0.3962  0.0066  0.1048
  963SOL    HW1 8209   8.323   1.528   0.394 -0.3969 -0.2617  1.3809
  963SOL    HW2 8210   8.313   1.397   0.468  1.2878 -1.2341 -0.0376
  964SOL     OW 8211  10.112   3.222  10.891  0.2398  0.2924  0.3444
  964SOL    HW1 8212  10.052   3.149  10.906  1.2239 -0.4510  0.7894
  964SOL    HW2 8213  10.064   3.281  10.833 -1.5709  0.5397  1.9569
  965SOL     OW 8214   2.459   8.218   8.564  0.3528  0.4234  0.6737
  965SOL    HW1 8215   2.448   8.239   8.657 -0.4392  0.4605  0.5853
  965SOL    HW2 8216   2.464   8.304   8.522 -2.3034  0.5215  0.3752
  966SOL     OW 8217   6.363   0.678   1.516  0.0509 -0.1718 -0.8612
  966SOL    HW1 8218   6.458   0.684   1.524  0.1202 -1.8878 -0.0423
  966SOL    HW2 8219   6.331   0.707   1.602 -0.2107  0.8615 -1.2924
  967SOL     OW 8220  11.304   6.059  10.241  0.2836  0.3003 -0.0597
  967SOL    HW1 8221  11.399   6.050  10.251  0.0112 -2.1159  0.7865
  967SOL    HW2 8222  11.294   6.115  10.164  2.3843  0.8783  0.0188
  968SOL     OW 8223   4.683   4.678   5.228 -0.5562  0.2433 -0.2256
  968SOL    HW1 8224   4.762   4.707   5.183  0.9480 -0.0904  2.0512
  968SOL    HW2 8225   4.616   4.742   5.203  0.3704  0.4835 -2.2771
  969SOL     OW 8226   6.457   9.932   6.227  0.0251  0.6232 -0.1991
  969SOL    HW1 8227   6.419  10.018   6.212 -1.4686  0.1343  0.5492
  969SOL    HW2 8228   6.431   9.910   6.317  2.3896  0.3803  0.4964
  970SOL     OW 8229  11.630   2.473   8.031 -0.1156 -0.6803 -0.4347
  970SOL    HW1 8230  11.635   2.423   7.950  0.8976 -0.0326 -0.7792
  970SOL    HW2 8231  11.720   2.478   8.062 -0.3157  0.2155  0.0340
  971SOL     OW 8232   2.670   7.490   6.146 -0.4500  0.7019 -0.1879
  971SOL    HW1 8233   2.642   7.452   6.229  0.5147  0.7318  0.1578
  971SOL    HW2 8234   2.703   7.416   6.096 -0.1935  0.8223 -0.1964
  972SOL     OW 8235   0.961   9.499   4.746 -0.0106 -0.2980  0.0347
  972SOL    HW1 8236   1.023   9.441   4.790  0.2703 -0.2374 -0.2753
  972SOL    HW2 8237   0.903   9.530   4.816  0.7137  0.1677  0.4394
  973SOL     OW 8238   7.021   2.265  11.100  0.3991 -0.2284 -0.1075
  973SOL    HW1 8239   7.080   2.197  11.068  0.9527 -0.7493  1.8891
  973SOL    HW2 8240   6.980   2.300  11.021  2.6403 -0.5171 -1.4710
  974SOL     OW 8241   4.128   4.294  11.198  0.3457 -0.3598 -0.4720
  974SOL    HW1 8242   4.198   4.285  11.133  1.1209 -0.5716  0.3708
  974SOL    HW2 8243   4.109   4.388  11.199  0.0434 -0.4007 -1.2803
  975SOL     OW 8244   1.479   6.308   7.166  0.0036  0.4350  0.0256
  975SOL    HW1 8245   1.415   6.364   7.122  0.5199  0.2034 -1.0660
  975SOL    HW2 8246   1.506   6.246   7.098  1.2762  0.4452  0.5086
  976SOL     OW 8247   9.933   3.129   2.469  0.9723  0.3307  0.2895
  976SOL    HW1 8248   9.902   3.201   2.414 -0.5427 -0.4051  0.1348
  976SOL    HW2 8249  10.025   3.149   2.484  0.6270  2.2440  0.1661
  977SOL     OW 8250   4.650   8.359   1.186  0.1847 -0.1786  0.1806
  977SOL    HW1 8251   4.728   8.316   1.150 -0.0026 -0.0389 -0.3938
  977SOL    HW2 8252   4.679   8.395   1.270  0.4947 -0.9209  0.3974
  978SOL     OW 8253   4.803   1.768   4.613 -0.2163  0.3824 -0.0391
  978SOL    HW1 8254   4.781   1.856   4.581 -0.2182 -0.3500 -2.2335
  978SOL    HW2 8255   4.719   1.728   4.634 -0.5082 -0.0547 -1.8521
  979SOL     OW 8256   4.419  10.809   1.679  0.1644 -0.0075  0.2627
  979SOL    HW1 8257   4.487  10.856   1.631 -0.4164  0.2230 -0.3567
  979SOL    HW2 8258   4.462  10.780   1.760  1.4778 -1.2930 -0.8219
  980SOL     OW 8259   9.353   4.917  11.437  0.4732 -0.1724 -0.9331
  980SOL    HW1 8260   9.440   4.958  11.439  0.3019  0.2281  1.5278
  980SOL    HW2 8261   9.370   4.828  11.406  1.8849 -0.2710 -0.0209
  981SOL     OW 8262   4.941   8.741   8.530  0.3899  0.1194 -0.0894
  981SOL    HW1 8263   4.873   8.806   8.511  0.5496  0.2251 -0.3129
  981SOL    HW2 8264   4.899   8.679   8.589  0.2984  0.5354  0.2838
  982SOL     OW 8265   7.705   7.804   5.389  0.2427 -0.2456 -0.1830
  982SOL    HW1 8266   7.775   7.865   5.366  1.3578 -1.2631  0.3590
  982SOL    HW2 8267   7.711   7.795   5.484  0.0257 -1.1024 -0.2386
  983SOL     OW 8268   9.201  10.681   3.985  0.0147 -0.1074  0.0257
  983SOL    HW1 8269   9.237  10.726   3.908 -0.9341 -1.0068 -0.9736
  983SOL    HW2 8270   9.262  10.609   4.001 -0.3705 -0.5775 -0.5787
  984SOL     OW 8271  11.667   1.339  10.403 -0.7428 -0.0221  0.0435
  984SOL    HW1 8272  11.732   1.277  10.368 -0.3384 -0.1774  1.0394
  984SOL    HW2 8273  11.583   1.304  10.373 -0.3529  0.9425 -2.4593
  985SOL     OW 8274   5.950   6.107  11.211 -0.1572  0.2634  0.1498
  985SOL    HW1 8275   6.014   6.053  11.165  0.3375  0.6163  0.4129
  985SOL    HW2 8276   5.931   6.179  11.151 -0.7569 -0.1494 -0.1685
  986SOL     OW 8277  11.694   6.319   6.719  0.2542 -0.1839  0.0712
  986SOL    HW1 8278  11.641   6.241   6.701 -1.9289  0.9332  1.3293
  986SOL    HW2 8279  11.644   6.392   6.683  0.8679  0.9321  1.3843
  987SOL     OW 8280   4.855   0.047   8.354 -0.0647  0.0757  0.4719
  987SOL    HW1 8281   4.815   0.132   8.340 -0.6152  0.1514  2.2150
  987SOL    HW2 8282   4.889   0.050   8.443 -1.3010 -1.9637  1.0938
  988SOL     OW 8283   7.441   1.690   4.226 -0.1633 -0.0025  0.3930
  988SOL    HW1 8284   7.505   1.726   4.165  1.6545  0.7790  2.5953
  988SOL    HW2 8285   7.379   1.762   4.240  0.7652  0.6694  1.2023
  989SOL     OW 8286  11.576   9.776   7.311  0.1179 -0.6417  0.0130
  989SOL    HW1 8287  11.634   9.843   7.274 -0.6671 -0.5510 -1.1060
  989SOL    HW2 8288  11.531   9.821   7.382 -1.6273  0.5949 -1.7596
  990SOL     OW 8289   2.370   6.692  11.443 -0.0281  0.6748  0.0820
  990SOL    HW1 8290   2.350   6.726  11.530 -1.1111  1.2455 -0.3704
  990SOL    HW2 8291   2.308   6.736  11.385 -0.2470 -0.7340 -0.7974
  991SOL     OW 8292   6.430  10.693   5.067  0.3142  0.1238  0.0489
  991SOL    HW1 8293   6.414  10.743   5.147  0.9864 -1.6012  1.3217
  991SOL    HW2 8294   6.368  10.621   5.070  2.3595 -1.7243  0.6522
  992SOL     OW 8295   6.772   9.727   1.918  0.0668  0.3465 -0.0814
  992SOL    HW1 8296   6.712   9.705   1.847  0.3254 -1.2204  0.1464
  992SOL    HW2 8297   6.723   9.788   1.973 -0.2493  1.3316 -1.4163
  993SOL     OW 8298   1.394   6.391   3.965  0.6066 -0.1139  0.3376
  993SOL    HW1 8299   1.447   6.314   3.982  0.3626  0.0386  1.8598
  993SOL    HW2 8300   1.315   6.379   4.017  0.5164  1.0988  0.5277
  994SOL     OW 8301   7.380   4.230  11.714 -0.1574  0.5182  0.7337
  994SOL    HW1 8302   7.421   4.156  11.669  0.6992  1.4508 -0.0722
  994SOL    HW2 8303   7.310   4.258  11.655  0.0192  0.8191  0.6625
  995SOL     OW 8304   4.541   4.906   5.192  0.3905 -0.2369  0.1402
  995SOL    HW1 8305   4.496   4.875   5.113  2.3530 -2.4069 -0.2433
  995SOL    HW2 8306   4.593   4.980   5.163 -1.0359  0.7907  0.0807
  996SOL     OW 8307   6.558  10.133   5.460  0.2019 -0.1743 -0.0615
  996SOL    HW1 8308   6.605  10.053   5.438  2.3677  0.1974  2.5914
  996SOL    HW2 8309   6.479  10.103   5.504  0.5784 -0.8947  0.1459
  997SOL     OW 8310   2.649   4.847   5.582  0.1377 -0.0317 -0.2735
  997SOL    HW1 8311   2.641   4.842   5.487  0.3521 -0.7607 -0.2604
  997SOL    HW2 8312   2.726   4.903   5.596 -0.5072  0.9331 -0.5025
  998SOL     OW 8313   6.347   2.591   4.624 -0.0109  0.5124 -0.4935
  998SOL    HW1 8314   6.255   2.565   4.624 -0.0431  0.4147  1.5979
  998SOL    HW2 8315   6.345   2.686   4.639  0.2256  0.6503 -1.3002
  999SOL     OW 8316  10.226   6.049   7.444  0.7724  0.3730 -0.4024
  999SOL    HW1 8317  10.219   5.972   7.501 -1.8593 -0.4491 -1.6872
  999SOL    HW2 8318  10.156   6.107   7.475 -0.4710  0.0638 -2.4541
 1000SOL     OW 8319   9.528   9.049   7.363  0.1737 -0.3980  0.6300
 1000SOL    HW1 8320   9.537   9.046   7.267  4.2025 -0.3573  0.8492
 1000SOL    HW2 8321   9.457   8.988   7.382  0.6693 -2.0638 -2.2883
 1001SOL     OW 8322   4.796   8.922   4.750 -0.4400 -0.4480  0.5194
 1001SOL    HW1 8323   4.758   8.838   4.776  0.0999 -1.4866 -1.7934
 1001SOL    HW2 8324   4.764   8.937   4.661  3.2245 -0.6446 -0.9842
 1002SOL     OW 8325   1.229   1.605   4.296  0.0964  0.4973 -0.1443
 1002SOL    HW1 8326   1.300   1.663   4.267  1.5877 -0.4565  1.4265
 1002SOL    HW2 8327   1.207   1.554   4.218  0.2217  1.7064 -0.9973
 1003SOL     OW 8328   1.385   4.527   5.069  0.1553 -0.7233 -0.5047
 1003SOL    HW1 8329   1.474   4.541   5.039  0.6001 -0.3388  0.8975
 1003SOL    HW2 8330   1.370   4.433   5.057  1.5175 -1.2050  1.1129
 1004SOL     OW 8331   5.952   8.607   9.795 -0.4618  0.0945  1.0037
 1004SOL    HW1 8332   5.886   8.538   9.800 -0.2923 -0.3656 -1.6227
 1004SOL    HW2 8333   6.034   8.560   9.780  0.0044  0.7956  1.2919
 1005SOL     OW 8334   8.432   3.036   4.646  0.3999  0.1618  0.6341
 1005SOL    HW1 8335   8.411   2.999   4.561  1.6576  0.4495  0.1727
 1005SOL    HW2 8336   8.525   3.013   4.660  0.5160  1.0450  1.4325
 1006SOL     OW 8337   0.620   5.281   7.338  0.2432 -0.2548 -0.2916
 1006SOL    HW1 8338   0.680   5.305   7.409  0.9896 -1.7279 -0.3792
 1006SOL    HW2 8339   0.579   5.200   7.369 -0.7236  0.0283 -0.8102
 1007SOL     OW 8340   5.451   8.940   2.676  0.7089  0.5741  0.2421
 1007SOL    HW1 8341   5.535   8.918   2.717  0.4536  1.4658  1.2841
 1007SOL    HW2 8342   5.472   8.949   2.583  1.4128 -0.9602  0.2110
 1008SOL     OW 8343   2.959   9.673  11.001 -0.2054  0.1641 -0.3640
 1008SOL    HW1 8344   3.017   9.610  11.044 -1.1000 -0.6088 -0.2557
 1008SOL    HW2 8345   2.874   9.660  11.044 -0.7773  0.3588 -1.4103
 1009SOL     OW 8346   7.176   5.942   8.515 -0.0638  0.3357  0.0227
 1009SOL    HW1 8347   7.260   5.921   8.474 -0.3845 -2.3902  0.5801
 1009SOL    HW2 8348   7.123   5.864   8.502 -2.4094  1.8391  0.0618
 1010SOL     OW 8349   2.246   1.273   7.753  1.0067  0.4726  0.1380
 1010SOL    HW1 8350   2.190   1.204   7.716  1.5127  0.4729 -0.6481
 1010SOL    HW2 8351   2.184   1.332   7.797  0.3151  0.7198 -1.1063
 1011SOL     OW 8352  10.943   6.847   8.176 -0.1854  0.2215  0.1870
 1011SOL    HW1 8353  10.867   6.814   8.128  0.7635  0.4773 -1.5703
 1011SOL    HW2 8354  10.946   6.794   8.256 -2.0515  0.0552  0.1761
 1012SOL     OW 8355   0.750   4.671   9.447 -0.1802  0.6061  0.0839
 1012SOL    HW1 8356   0.657   4.650   9.459  0.3554 -1.6128  0.8478
 1012SOL    HW2 8357   0.775   4.717   9.527 -0.3990  0.3369  0.3088
 1013SOL     OW 8358   2.849   1.522  11.703  0.4007 -0.4743  0.4595
 1013SOL    HW1 8359   2.924   1.565  11.743  0.1774 -0.3687  0.7698
 1013SOL    HW2 8360   2.882   1.488  11.620  0.7242 -0.2053  0.4771
 1014SOL     OW 8361  10.163   8.373   0.984 -0.7230  0.9336  0.1866
 1014SOL    HW1 8362  10.165   8.278   0.997 -0.9292  0.6930 -1.2872
 1014SOL    HW2 8363  10.121   8.408   1.063 -0.2176 -0.1471  0.9587
 1015SOL     OW 8364   1.971   9.583   5.593 -0.1401 -0.1657  0.2891
 1015SOL    HW1 8365   1.937   9.503   5.552 -0.1677  0.5971 -1.2608
 1015SOL    HW2 8366   2.065   9.567   5.601 -0.0487 -0.1241 -0.5993
 1016SOL     OW 8367   0.712  10.418  10.981 -1.1175 -0.2959  0.1737
 1016SOL    HW1 8368   0.732  10.344  11.037 -1.3121  0.2655  1.0050
 1016SOL    HW2 8369   0.781  10.417  10.914  2.1817  1.7878  3.1428
 1017SOL     OW 8370   8.520   6.585   1.399 -0.0861  0.5774  0.1300
 1017SOL    HW1 8371   8.614   6.570   1.399 -0.0544  0.2692  3.1803
 1017SOL    HW2 8372   8.509   6.669   1.443 -1.2650  0.4603  0.0915
 1018SOL     OW 8373   8.051   1.064   9.804  0.5505  0.4880  0.3194
 1018SOL    HW1 8374   8.000   1.142   9.825  0.1460 -0.1691  1.8803
 1018SOL    HW2 8375   8.137   1.099   9.779  0.8262  1.4254  2.3427
 1019SOL     OW 8376   8.344   7.721   8.605 -0.0498  0.2923 -0.3272
 1019SOL    HW1 8377   8.284   7.649   8.625 -0.4478  0.6754 -0.1168
 1019SOL    HW2 8378   8.302   7.769   8.533  0.0424  0.5094 -0.2400
 1020SOL     OW 8379  10.200   6.004   1.988  0.0908  0.0518  0.3148
 1020SOL    HW1 8380  10.229   6.054   1.912  2.6078 -3.8309 -1.5834
 1020SOL    HW2 8381  10.117   5.964   1.961  0.1149  0.0273  0.2789
 1021SOL     OW 8382   9.959   3.712   9.629 -0.2309  0.5531  0.7139
 1021SOL    HW1 8383   9.955   3.718   9.724 -2.6875  0.4759  0.6646
 1021SOL    HW2 8384   9.946   3.802   9.599 -0.2803  0.4539  0.4350
 1022SOL     OW 8385   3.146   9.240   2.093 -0.2964  0.6973 -0.2795
 1022SOL    HW1 8386   3.215   9.231   2.159 -1.4256 -0.5455  0.8100
 1022SOL    HW2 8387   3.086   9.305   2.130 -1.0341 -0.1434  0.0770
 1023SOL     OW 8388   3.628   7.519   9.624 -0.1356  0.1436 -0.5788
 1023SOL    HW1 8389   3.559   7.558   9.677  0.5538  1.6859 -0.7621
 1023SOL    HW2 8390   3.602   7.537   9.534 -1.0315 -1.9948 -0.7881
 1024SOL     OW 8391  10.796  10.170   7.446  0.1478 -0.4198 -0.5583
 1024SOL    HW1 8392  10.723  10.210   7.400 -1.2542 -2.9304 -0.6889
 1024SOL    HW2 8393  10.770  10.170   7.538  0.4692 -0.3667 -0.4660
 1025SOL     OW 8394   6.569   8.043  11.064 -0.4348  0.0622  0.2582
 1025SOL    HW1 8395   6.635   7.986  11.023 -0.7367  0.5139 -0.9069
 1025SOL    HW2 8396   6.563   8.012  11.154  2.0147  0.5533  0.6741
 1026SOL     OW 8397   3.202   2.171   5.034  0.0970  0.1263 -0.1004
 1026SOL    HW1 8398   3.248   2.182   4.950  2.3911  1.2243  1.1950
 1026SOL    HW2 8399   3.214   2.079   5.055  0.6697  0.1273 -0.3835
 1027SOL     OW 8400   2.497   9.139   4.767  0.8567  0.0585 -0.2357
 1027SOL    HW1 8401   2.427   9.159   4.706 -1.6545 -1.1717  2.0401
 1027SOL    HW2 8402   2.577   9.165   4.722 -0.9533  0.6286 -3.3577
 1028SOL     OW 8403   2.845   0.328   5.906 -0.1463  0.1794 -0.0403
 1028SOL    HW1 8404   2.824   0.354   5.817  0.1978 -0.8841 -0.4473
 1028SOL    HW2 8405   2.930   0.368   5.924  0.1192 -0.1886 -0.4574
 1029SOL     OW 8406   6.849  10.936   9.868 -0.3465  0.7092  0.2604
 1029SOL    HW1 8407   6.871  10.876   9.939  0.4206  1.2338  0.4760
 1029SOL    HW2 8408   6.786  10.888   9.815 -0.8757  0.2864  1.2511
 1030SOL     OW 8409   8.239   0.816   8.954  0.5549 -0.0376 -0.4341
 1030SOL    HW1 8410   8.315   0.857   8.994 -0.3751 -0.0294  1.4581
 1030SOL    HW2 8411   8.274   0.746   8.900  1.8849 -0.7189  1.2365
 1031SOL     OW 8412  10.808  10.227   5.404 -0.2722 -0.1122 -0.2112
 1031SOL    HW1 8413  10.823  10.298   5.342 -1.1661  0.6968  0.4612
 1031SOL    HW2 8414  10.771  10.270   5.482  2.1554 -0.8708  1.4928
 1032SOL     OW 8415   7.712   1.475   6.212  0.2551 -0.6333  0.3504
 1032SOL    HW1 8416   7.621   1.454   6.191  0.8032 -0.2298 -3.0094
 1032SOL    HW2 8417   7.716   1.571   6.212  0.8516 -0.6321 -0.7753
 1033SOL     OW 8418   1.854   2.335   4.535 -0.0261 -0.1274  0.2748
 1033SOL    HW1 8419   1.784   2.392   4.568 -2.1308 -2.5449  0.2990
 1033SOL    HW2 8420   1.830   2.319   4.444 -0.7300 -2.5977  0.8221
 1034SOL     OW 8421  11.009   2.875   2.414 -0.2586 -0.6310  0.0900
 1034SOL    HW1 8422  11.038   2.787   2.393 -0.6439 -0.8003  0.2555
 1034SOL    HW2 8423  10.961   2.904   2.336 -1.2280 -1.0563  0.5130
 1035SOL     OW 8424  11.149   4.433   7.335 -0.3079  0.1110 -0.2884
 1035SOL    HW1 8425  11.083   4.424   7.267 -0.7847 -2.0953  0.3860
 1035SOL    HW2 8426  11.112   4.497   7.396  0.5616  2.9248 -2.4689
 1036SOL     OW 8427   0.557   7.880  10.137  0.4513 -0.3335  0.0406
 1036SOL    HW1 8428   0.494   7.950  10.156 -1.2979 -1.4382 -1.2892
 1036SOL    HW2 8429   0.640   7.914  10.168 -0.1367  2.7335 -1.2584
 1037SOL     OW 8430   7.212   3.048  10.643  0.1189 -0.1868  0.6396
 1037SOL    HW1 8431   7.191   2.960  10.612 -2.7538  0.3577  0.7413
 1037SOL    HW2 8432   7.267   3.034  10.720 -0.1073 -1.8813  0.5331
 1038SOL     OW 8433   6.463   4.176   2.451 -0.2037 -0.4506 -0.2828
 1038SOL    HW1 8434   6.437   4.117   2.522 -1.2582  0.5903  0.2346
 1038SOL    HW2 8435   6.393   4.241   2.447  0.4945  0.2702 -1.4163
 1039SOL     OW 8436   6.581   1.648   1.610 -0.0468 -0.0440  0.7816
 1039SOL    HW1 8437   6.491   1.681   1.617  0.1321  0.8789 -0.7954
 1039SOL    HW2 8438   6.615   1.653   1.699 -1.1801  0.7147  1.1974
 1040SOL     OW 8439   4.036   7.727   8.610 -0.6326  0.2609  0.4868
 1040SOL    HW1 8440   4.058   7.738   8.702 -0.5580  0.1700  0.4802
 1040SOL    HW2 8441   3.970   7.658   8.609 -0.2589 -0.0981  0.4285
 1041SOL     OW 8442   3.442   7.950   4.105  0.2492 -0.3904  0.2851
 1041SOL    HW1 8443   3.505   7.946   4.176  0.5268 -0.2305  0.0464
 1041SOL    HW2 8444   3.375   8.011   4.135  0.8069  0.3462  0.0538
 1042SOL     OW 8445   6.620   9.337   7.995 -0.3383 -0.0676 -0.2052
 1042SOL    HW1 8446   6.603   9.256   7.946  0.1818 -0.7185  0.6589
 1042SOL    HW2 8447   6.672   9.309   8.070  1.5093  1.3399 -0.8814
 1043SOL     OW 8448   5.243  10.286  10.226 -0.2148  0.1294  0.1563
 1043SOL    HW1 8449   5.242  10.193  10.203  1.2129  0.1187  0.0088
 1043SOL    HW2 8450   5.290  10.327  10.153 -0.0342  0.8214  0.6631
 1044SOL     OW 8451   8.470   2.443   1.058  0.3018 -0.4048  0.0638
 1044SOL    HW1 8452   8.403   2.451   1.125 -0.6506  1.0230 -0.9949
 1044SOL    HW2 8453   8.524   2.521   1.068  2.7294 -2.1789  1.7772
 1045SOL     OW 8454   8.942   7.100   1.333  0.8314  0.1933 -0.4243
 1045SOL    HW1 8455   9.012   7.078   1.270 -0.2214  0.5888 -1.7813
 1045SOL    HW2 8456   8.905   7.016   1.359  3.7452 -0.3350  2.7638
 1046SOL     OW 8457   8.164  10.215   9.117 -0.1380  0.2927  0.3092
 1046SOL    HW1 8458   8.137  10.307   9.108  0.8879  0.5280 -0.4641
 1046SOL    HW2 8459   8.236  10.217   9.180  0.1224  0.0636  0.0189
 1047SOL     OW 8460  11.726   3.273   1.942  0.3961  0.0991  0.1526
 1047SOL    HW1 8461  11.784   3.277   1.867 -0.1545  1.7409 -0.2111
 1047SOL    HW2 8462  11.659   3.209   1.917  0.4293  0.3514 -0.5944
 1048SOL     OW 8463   7.640   5.782   5.639 -0.1146  0.5779  0.7878
 1048SOL    HW1 8464   7.611   5.863   5.681  1.2366  1.1284  0.6822
 1048SOL    HW2 8465   7.701   5.743   5.702 -0.1603  0.0362  0.4956
 1049SOL     OW 8466   1.580   2.221   7.226 -0.4119  0.4593  0.0401
 1049SOL    HW1 8467   1.628   2.191   7.149  0.3948  1.4352  0.1423
 1049SOL    HW2 8468   1.593   2.153   7.291 -0.9280 -0.2754 -0.6156
 1050SOL     OW 8469   7.217  11.273   3.338  0.2790 -0.0429  0.4047
 1050SOL    HW1 8470   7.282  11.302   3.274 -0.6641  0.4810 -0.3465
 1050SOL    HW2 8471   7.183  11.192   3.302 -1.1097  0.8591 -0.4193
 1051SOL     OW 8472   3.881  10.625   7.089 -0.1414 -0.0399  0.2479
 1051SOL    HW1 8473   3.828  10.550   7.115 -1.1838  0.3077 -0.7450
 1051SOL    HW2 8474   3.947  10.589   7.029  1.0585 -0.5393  1.8143
 1052SOL     OW 8475   9.117   2.772  11.825  0.3874  0.5062 -0.7793
 1052SOL    HW1 8476   9.049   2.707  11.843 -0.8049  2.3707  2.0212
 1052SOL    HW2 8477   9.076   2.856  11.842  3.7604  1.7131  2.9300
 1053SOL     OW 8478   2.466   9.481   0.823  0.4551 -0.1079 -0.1297
 1053SOL    HW1 8479   2.550   9.436   0.819  0.8104  0.4164  0.9840
 1053SOL    HW2 8480   2.402   9.414   0.797  1.1498 -0.6957 -0.3693
 1054SOL     OW 8481   9.829   7.193   8.916  0.1691 -0.2769  0.2458
 1054SOL    HW1 8482   9.873   7.163   8.836 -0.5300 -1.6482  0.3366
 1054SOL    HW2 8483   9.896   7.242   8.963  2.1045 -3.3366  1.0036
 1055SOL     OW 8484   6.421   5.674   3.899  0.6581  0.2746 -0.5639
 1055SOL    HW1 8485   6.504   5.708   3.864  1.4538  0.1140  1.0673
 1055SOL    HW2 8486   6.447   5.601   3.955 -0.6093  0.1081 -0.1672
 1056SOL     OW 8487   9.757   1.772  11.765 -0.1064 -0.1178  0.0761
 1056SOL    HW1 8488   9.755   1.810  11.677  0.2345  1.1664  0.6056
 1056SOL    HW2 8489   9.711   1.835  11.820 -0.8937 -1.2245  0.7241
 1057SOL     OW 8490   6.839   0.170   2.318  0.2688  0.0511 -0.2761
 1057SOL    HW1 8491   6.826   0.228   2.393  0.9877  1.0485 -0.8941
 1057SOL    HW2 8492   6.924   0.129   2.334 -0.6764 -1.6604  0.6614
 1058SOL     OW 8493   4.698   3.082   1.430  0.2689 -0.1924  0.0080
 1058SOL    HW1 8494   4.753   3.004   1.441  1.3487  0.6845  1.0413
 1058SOL    HW2 8495   4.710   3.131   1.511  0.3285  1.5205 -1.0079
 1059SOL     OW 8496   6.200   2.881   2.201  0.0175  0.6877 -0.2819
 1059SOL    HW1 8497   6.216   2.892   2.295  0.5247 -1.3685 -0.0699
 1059SOL    HW2 8498   6.190   2.787   2.190 -0.3032  0.9208 -2.2683
 1060SOL     OW 8499   2.432   1.082   6.736  0.2165 -0.4450 -0.2308
 1060SOL    HW1 8500   2.492   1.065   6.663 -1.2083 -0.2496 -1.5171
 1060SOL    HW2 8501   2.468   1.032   6.809  2.1172 -0.0425 -0.8297
 1061SOL     OW 8502   6.747   4.263   3.706  0.2850 -0.2345 -0.2136
 1061SOL    HW1 8503   6.686   4.241   3.636  0.7854  0.0576 -0.7436
 1061SOL    HW2 8504   6.833   4.234   3.674  0.7473  1.1986 -0.3388
 1062SOL     OW 8505  11.798   2.574   8.741  0.6830 -0.2178  0.1311
 1062SOL    HW1 8506  11.833   2.660   8.718 -0.7220  0.8280  1.6698
 1062SOL    HW2 8507  11.871   2.527   8.781  2.1227 -0.6958 -2.7532
 1063SOL     OW 8508  10.691   8.587   9.795  0.2197 -0.5014 -0.5986
 1063SOL    HW1 8509  10.772   8.570   9.844  1.4847  0.3977 -2.2519
 1063SOL    HW2 8510  10.645   8.653   9.846  0.3183 -1.3061  0.5693
 1064SOL     OW 8511   9.542   7.902   1.216 -0.1188 -0.0929 -0.0304
 1064SOL    HW1 8512   9.506   7.987   1.239 -0.0535 -0.2481  0.6713
 1064SOL    HW2 8513   9.512   7.843   1.285  2.3593 -0.0145  1.2307
 1065SOL     OW 8514   1.321   0.902   6.855  0.6284  0.4426  0.3730
 1065SOL    HW1 8515   1.318   0.996   6.834  2.0481  0.4320  0.0610
 1065SOL    HW2 8516   1.405   0.872   6.821  0.1141 -1.0027  0.3034
 1066SOL     OW 8517   9.639   9.018   7.758 -0.3311 -0.5216  0.3478
 1066SOL    HW1 8518   9.610   8.929   7.740  0.3637 -0.9012  1.0573
 1066SOL    HW2 8519   9.656   9.020   7.852  2.1809 -0.4165 -0.0463
 1067SOL     OW 8520   5.122   0.877   0.899 -0.1327  0.5261  0.1280
 1067SOL    HW1 8521   5.211   0.908   0.887  0.5584 -1.4510 -0.2174
 1067SOL    HW2 8522   5.088   0.864   0.811 -0.5589  0.7216  0.2608
 1068SOL     OW 8523   3.284  11.344  11.104  0.3602 -0.0899 -0.0180
 1068SOL    HW1 8524   3.269  11.271  11.164 -0.6245 -1.1488 -1.4864
 1068SOL    HW2 8525   3.289  11.303  11.017  0.5320  1.5159 -0.7969
 1069SOL     OW 8526   3.839   9.355   5.335  0.1662  0.5938 -0.0090
 1069SOL    HW1 8527   3.788   9.382   5.411  0.9590  0.9297  0.4164
 1069SOL    HW2 8528   3.773   9.327   5.271 -0.7286  3.2108 -0.3772
 1070SOL     OW 8529  10.248   3.812   0.664  0.1265 -0.2420  0.5014
 1070SOL    HW1 8530  10.208   3.731   0.634 -0.1089  0.0418  0.0394
 1070SOL    HW2 8531  10.247   3.870   0.587 -2.2362  1.1762  1.4828
 1071SOL     OW 8532   9.292   3.735   3.570  0.1883 -0.0306  0.1222
 1071SOL    HW1 8533   9.273   3.775   3.655 -0.7514 -0.6928  0.2468
 1071SOL    HW2 8534   9.211   3.689   3.548  0.4758  0.0087 -1.0648
 1072SOL     OW 8535  11.612   9.717   5.356 -0.0393 -0.1662  0.1206
 1072SOL    HW1 8536  11.567   9.757   5.431  0.3762  0.2074  0.1727
 1072SOL    HW2 8537  11.551   9.729   5.283 -0.1832  0.0181  0.2689
 1073SOL     OW 8538   0.377   8.994   6.643 -0.1126 -0.4924 -0.3946
 1073SOL    HW1 8539   0.304   9.002   6.704  0.9103 -0.2296  0.8281
 1073SOL    HW2 8540   0.368   9.070   6.585 -2.1857 -1.7423 -1.8753
 1074SOL     OW 8541   6.760   7.761   3.546  0.5610  0.2744 -0.6528
 1074SOL    HW1 8542   6.686   7.822   3.538  0.1459 -0.1783 -0.3166
 1074SOL    HW2 8543   6.754   7.707   3.467 -1.0898 -1.5099  0.5880
 1075SOL     OW 8544   5.549   4.142   1.026  0.0489 -0.6300 -0.3622
 1075SOL    HW1 8545   5.513   4.146   0.937  0.1997 -0.8804 -0.4347
 1075SOL    HW2 8546   5.554   4.049   1.046  0.1361 -0.5772 -0.1395
 1076SOL     OW 8547   8.285   6.016   2.600  0.7071 -0.1952  0.7359
 1076SOL    HW1 8548   8.372   5.977   2.605  0.5165 -0.6932  0.1671
 1076SOL    HW2 8549   8.287   6.071   2.522  0.4332 -0.3905  0.5920
 1077SOL     OW 8550   2.997   8.147   5.259 -0.0604  0.1639  0.2067
 1077SOL    HW1 8551   2.914   8.132   5.215 -0.0347 -1.5089  0.6787
 1077SOL    HW2 8552   3.063   8.110   5.200  0.0495 -1.3340  1.2363
 1078SOL     OW 8553   8.673  11.027   3.276 -0.1130 -0.6218 -0.0518
 1078SOL    HW1 8554   8.747  11.071   3.234 -0.5268  0.2514  0.1136
 1078SOL    HW2 8555   8.602  11.032   3.212 -0.6316  0.3724  0.5913
 1079SOL     OW 8556   6.383   0.133   3.514  0.0138 -0.3858 -0.0546
 1079SOL    HW1 8557   6.393   0.213   3.566 -0.9695  0.6800 -1.4199
 1079SOL    HW2 8558   6.306   0.090   3.552 -0.5297  0.2433 -0.4159
 1080SOL     OW 8559   1.370   5.993   5.221 -0.4259  0.2970 -0.2472
 1080SOL    HW1 8560   1.427   5.921   5.195 -1.3621  0.2619 -2.5182
 1080SOL    HW2 8561   1.293   5.950   5.260  0.5749  0.2954  1.8159
 1081SOL     OW 8562   5.747   3.372   8.391  0.3293  0.5734  0.0738
 1081SOL    HW1 8563   5.801   3.385   8.469  1.3964 -0.3355 -0.4794
 1081SOL    HW2 8564   5.658   3.393   8.420  0.6629  0.0769  1.5929
 1082SOL     OW 8565   4.717   4.259   8.443  0.5341 -0.1373  0.1328
 1082SOL    HW1 8566   4.774   4.182   8.434  0.6785 -0.0434  0.2512
 1082SOL    HW2 8567   4.698   4.286   8.353  1.0441  0.1058  0.0975
 1083SOL     OW 8568   3.076  10.122   7.744  0.0905 -0.3962  0.1133
 1083SOL    HW1 8569   3.021  10.050   7.773 -1.0641  1.0322  1.5759
 1083SOL    HW2 8570   3.157  10.113   7.795 -0.3350 -0.2371  0.8136
 1084SOL     OW 8571   7.906   7.041  10.651 -0.1308  0.2361  0.2142
 1084SOL    HW1 8572   7.939   7.023  10.563 -0.3234 -0.4611  0.2774
 1084SOL    HW2 8573   7.813   7.057  10.639 -0.1634  0.1081  0.2938
 1085SOL     OW 8574   5.817  11.247   4.950  0.1264 -0.1223 -0.2816
 1085SOL    HW1 8575   5.783  11.219   4.865 -1.6187  1.6705 -0.2343
 1085SOL    HW2 8576   5.768  11.326   4.971  0.1402 -0.7631  2.6247
 1086SOL     OW 8577   1.183   8.728  11.444  0.1142  0.1583  0.0409
 1086SOL    HW1 8578   1.223   8.809  11.413 -0.7408  0.3983 -0.4605
 1086SOL    HW2 8579   1.212   8.721  11.535  0.9267  0.5490 -0.1765
 1087SOL     OW 8580   2.185   7.607   2.043 -0.2357 -0.1596  0.3513
 1087SOL    HW1 8581   2.121   7.536   2.044  0.3457 -0.6884  1.3113
 1087SOL    HW2 8582   2.160   7.660   1.968 -0.4723 -1.5678 -0.5991
 1088SOL     OW 8583  10.536   4.578   8.945 -0.1725  0.3705 -0.2633
 1088SOL    HW1 8584  10.459   4.567   9.001 -0.9218  0.8139 -1.1886
 1088SOL    HW2 8585  10.578   4.658   8.978 -0.8729  0.8950 -0.6204
 1089SOL     OW 8586   9.747   3.407   3.346  0.1612  0.0569  0.2520
 1089SOL    HW1 8587   9.721   3.335   3.289 -3.0348  0.7920  0.6040
 1089SOL    HW2 8588   9.802   3.367   3.413  2.2159 -1.1885 -2.0372
 1090SOL     OW 8589   4.988   6.703   0.773 -0.0095  0.0284 -0.2102
 1090SOL    HW1 8590   5.006   6.609   0.783  0.6546  0.1269 -0.3787
 1090SOL    HW2 8591   5.056   6.733   0.712 -0.2259  0.6159 -0.1655
 1091SOL     OW 8592   9.507   0.618   3.662 -0.1935  0.5103 -0.0726
 1091SOL    HW1 8593   9.435   0.636   3.722  0.3149  1.9863  0.1482
 1091SOL    HW2 8594   9.469   0.630   3.575 -0.6442 -0.4864 -0.0205
 1092SOL     OW 8595   6.023   3.550   4.657  0.0390 -0.0227  0.1179
 1092SOL    HW1 8596   5.996   3.614   4.723  1.9189  0.3106  0.6058
 1092SOL    HW2 8597   6.059   3.603   4.586 -0.4179 -0.4599 -0.4498
 1093SOL     OW 8598   9.590   9.262   3.789  0.9070  0.1946 -0.3960
 1093SOL    HW1 8599   9.615   9.289   3.701  0.4771  1.8672 -0.0463
 1093SOL    HW2 8600   9.571   9.344   3.835 -1.3887 -0.7574  0.4963
 1094SOL     OW 8601   2.181   4.950   7.166  0.4857 -0.0869  0.0928
 1094SOL    HW1 8602   2.121   5.021   7.141  0.3688 -0.1580  0.1698
 1094SOL    HW2 8603   2.268   4.985   7.149  0.4729  0.4433  1.0578
 1095SOL     OW 8604   6.870  10.952   9.445  0.2254  0.1837  0.0802
 1095SOL    HW1 8605   6.898  10.971   9.355  1.2744 -1.3117  0.0668
 1095SOL    HW2 8606   6.952  10.941   9.494 -0.3333 -0.5465  0.8786
 1096SOL     OW 8607   4.455   9.267   6.924 -0.1963  0.4172 -0.4253
 1096SOL    HW1 8608   4.421   9.352   6.897  0.4583  0.1148 -2.3649
 1096SOL    HW2 8609   4.399   9.240   6.997  0.0442  2.8073  0.7192
 1097SOL     OW 8610   5.474   1.194   0.102  0.3261 -1.0211 -0.2562
 1097SOL    HW1 8611   5.551   1.242   0.073 -0.2477 -0.5995 -1.1528
 1097SOL    HW2 8612   5.439   1.246   0.174  0.5536 -0.8954 -0.2362
 1098SOL     OW 8613  11.438   1.253   1.187  0.5450 -0.5119 -0.0524
 1098SOL    HW1 8614  11.389   1.171   1.178  2.3354 -1.5248 -1.2061
 1098SOL    HW2 8615  11.528   1.230   1.164  1.4157  1.4665  1.0585
 1099SOL     OW 8616  10.810   2.994   1.463 -0.9636 -0.9026 -0.0449
 1099SOL    HW1 8617  10.849   3.025   1.545 -1.5812 -2.2186  0.7739
 1099SOL    HW2 8618  10.717   3.016   1.471 -1.0923 -1.3768 -0.2252
 1100SOL     OW 8619   4.102   0.170   1.870  0.0271  0.2903 -0.0304
 1100SOL    HW1 8620   4.045   0.098   1.896 -0.4088  1.1941  1.6830
 1100SOL    HW2 8621   4.046   0.227   1.818  0.1882 -0.2586 -0.8184
 1101SOL     OW 8622   9.091  11.705  10.291  0.0169 -0.2481 -0.1464
 1101SOL    HW1 8623   9.095  11.648  10.215  0.5334 -0.3758 -0.0249
 1101SOL    HW2 8624   9.107  11.793  10.256  0.9226 -0.3843 -0.0993
 1102SOL     OW 8625   4.732   3.553   1.803  0.3911 -0.0084 -0.1434
 1102SOL    HW1 8626   4.674   3.478   1.794 -0.0972  0.2839  0.4743
 1102SOL    HW2 8627   4.799   3.540   1.735 -0.1177 -0.5956 -0.5470
 1103SOL     OW 8628   0.538   6.856  11.727  0.0831  0.2425  0.0970
 1103SOL    HW1 8629   0.505   6.865  11.816  1.5051  2.0329  0.4975
 1103SOL    HW2 8630   0.478   6.909  11.674 -0.1735  0.0081  0.1539
 1104SOL     OW 8631  10.307   1.162   6.690  0.2205 -0.0776 -0.1723
 1104SOL    HW1 8632  10.238   1.220   6.722  0.0434 -1.1149  1.4416
 1104SOL    HW2 8633  10.351   1.213   6.621 -1.7387  0.8274 -0.8310
 1105SOL     OW 8634   2.987   5.772   1.344 -0.3794  0.5044  0.1819
 1105SOL    HW1 8635   2.906   5.822   1.354 -0.7911 -0.1821  0.3185
 1105SOL    HW2 8636   3.002   5.771   1.249 -0.7188  0.3459  0.1261
 1106SOL     OW 8637  10.196  11.648   5.835 -0.6147  0.0097 -0.5007
 1106SOL    HW1 8638  10.245  11.614   5.761 -0.9103 -1.6439  0.0192
 1106SOL    HW2 8639  10.166  11.735   5.807 -1.0006 -0.7060 -2.4275
 1107SOL     OW 8640   1.598   5.987  11.664 -0.1868 -0.2854 -0.3814
 1107SOL    HW1 8641   1.627   6.078  11.674 -1.1030  0.2025 -1.7398
 1107SOL    HW2 8642   1.608   5.949  11.751  0.4198  1.0466  0.1741
 1108SOL     OW 8643   4.864   2.882   7.108  0.0253 -0.5111 -0.0794
 1108SOL    HW1 8644   4.915   2.825   7.167  0.8751 -1.3264 -1.5485
 1108SOL    HW2 8645   4.930   2.930   7.059 -0.6861  0.9605  0.3589
 1109SOL     OW 8646  10.236   2.291  10.601  0.3024 -1.1258  0.9440
 1109SOL    HW1 8647  10.265   2.382  10.600  0.9756 -1.3285 -0.0801
 1109SOL    HW2 8648  10.182   2.284  10.679  1.8646 -0.3570  2.1670
 1110SOL     OW 8649   1.479   2.778  11.086 -0.1379  0.1529 -0.6301
 1110SOL    HW1 8650   1.516   2.755  11.000 -1.0386 -0.1475 -0.9524
 1110SOL    HW2 8651   1.543   2.838  11.124 -0.8774  2.3637 -2.5996
 1111SOL     OW 8652  10.398   2.536  11.567 -0.0492  0.4686 -0.3905
 1111SOL    HW1 8653  10.328   2.476  11.595 -0.1256  0.8206  0.1820
 1111SOL    HW2 8654  10.364   2.576  11.487  0.0578 -0.3435 -0.8586
 1112SOL     OW 8655   9.513   7.965   2.816  0.3793 -0.4043 -0.3765
 1112SOL    HW1 8656   9.463   7.898   2.770  0.4887  0.1774 -1.3736
 1112SOL    HW2 8657   9.521   7.932   2.906 -2.0950 -0.3585 -0.0701
 1113SOL     OW 8658  10.089   6.699   2.285  0.0562  0.1023 -0.4819
 1113SOL    HW1 8659  10.126   6.714   2.373  1.0667 -0.3574 -0.8064
 1113SOL    HW2 8660  10.159   6.654   2.238  0.3421  2.1719 -2.1808
 1114SOL     OW 8661   0.790   3.606   2.035  0.6708  0.4761 -0.3898
 1114SOL    HW1 8662   0.867   3.560   2.001  2.1369  0.6726  2.3593
 1114SOL    HW2 8663   0.824   3.690   2.065 -1.4371  2.2784 -2.6894
 1115SOL     OW 8664   6.810   2.519   2.910  0.3749  0.1701 -0.2243
 1115SOL    HW1 8665   6.836   2.445   2.856  0.8267 -0.3108  0.6387
 1115SOL    HW2 8666   6.892   2.560   2.936  0.1903  0.0702  0.5413
 1116SOL     OW 8667   9.070   3.916   1.091  0.0881  0.1493 -0.6220
 1116SOL    HW1 8668   8.995   3.940   1.147 -0.4256 -2.5052 -0.0268
 1116SOL    HW2 8669   9.060   3.971   1.013 -1.3390  1.2712  0.2913
 1117SOL     OW 8670   0.519   2.532   4.256  1.0012 -0.1368  0.5348
 1117SOL    HW1 8671   0.510   2.445   4.216  0.7873  0.3613 -0.5195
 1117SOL    HW2 8672   0.496   2.518   4.348  0.3751 -1.0835  0.2540
 1118SOL     OW 8673   8.438   2.465   5.962  0.0412 -0.1576  0.0921
 1118SOL    HW1 8674   8.503   2.518   6.008  0.0455 -0.3372  0.2967
 1118SOL    HW2 8675   8.464   2.470   5.870 -1.1434  1.8825 -0.1933
 1119SOL     OW 8676   3.339   0.451   7.339  0.4542  0.3377  0.3095
 1119SOL    HW1 8677   3.274   0.519   7.356 -0.0778 -0.3734  1.1934
 1119SOL    HW2 8678   3.417   0.480   7.386 -0.0934 -0.1420  1.5817
 1120SOL     OW 8679  10.482  10.971   9.965 -0.4369  0.1009  0.1266
 1120SOL    HW1 8680  10.455  10.992  10.054 -0.1897 -1.0312  0.4917
 1120SOL    HW2 8681  10.416  11.012   9.909  0.5815  2.6888  0.6888
 1121SOL     OW 8682  11.778   1.005   2.530  0.2742  0.5222 -0.0765
 1121SOL    HW1 8683  11.707   1.069   2.536 -1.0037 -0.7704 -0.7214
 1121SOL    HW2 8684  11.779   0.978   2.438  1.1692  0.0558  0.0593
 1122SOL     OW 8685   3.354   2.876   7.880 -0.5245  0.7518  0.1640
 1122SOL    HW1 8686   3.391   2.885   7.967  0.0335  0.7346 -0.0700
 1122SOL    HW2 8687   3.281   2.814   7.891  0.1080  0.0444  0.4505
 1123SOL     OW 8688  11.607   5.227   8.518 -0.4689 -0.2110  0.7539
 1123SOL    HW1 8689  11.668   5.265   8.581 -0.4326  0.1721  0.4991
 1123SOL    HW2 8690  11.659   5.165   8.468 -0.1000  0.6235  0.0743
 1124SOL     OW 8691   4.128   1.894   1.744 -0.2547 -0.1882 -0.1305
 1124SOL    HW1 8692   4.091   1.839   1.675 -0.2135  0.3981 -0.6263
 1124SOL    HW2 8693   4.095   1.982   1.726  1.6133  0.4245 -0.7945
 1125SOL     OW 8694   8.592   4.906   4.819  0.0489  0.4187  0.2565
 1125SOL    HW1 8695   8.665   4.853   4.788 -1.7306 -0.5303 -2.7422
 1125SOL    HW2 8696   8.608   4.915   4.913  3.3993 -0.6103 -0.0625
 1126SOL     OW 8697   6.660   1.859   2.302 -0.2813 -0.1673 -0.4119
 1126SOL    HW1 8698   6.570   1.835   2.324 -0.2309 -0.9237 -1.0004
 1126SOL    HW2 8699   6.674   1.943   2.346 -1.2781 -0.0352 -0.3347
 1127SOL     OW 8700   5.005   6.000   6.714  0.0185  0.1200 -0.0115
 1127SOL    HW1 8701   5.059   5.944   6.770  1.4973 -0.8410 -2.2725
 1127SOL    HW2 8702   4.936   5.943   6.681  1.3902 -0.4326 -2.1322
 1128SOL     OW 8703  10.908   6.119   9.027  0.2866  0.0192  0.3050
 1128SOL    HW1 8704  10.838   6.183   9.037  0.0284 -0.5281  2.4477
 1128SOL    HW2 8705  10.980   6.168   8.987 -0.3923  1.2940  0.6014
 1129SOL     OW 8706   5.454   1.280   4.800 -0.4576  0.4879 -0.3177
 1129SOL    HW1 8707   5.507   1.347   4.843  0.0068  0.0953 -0.2630
 1129SOL    HW2 8708   5.491   1.274   4.712 -0.6128  0.4319 -0.3777
 1130SOL     OW 8709   9.344   2.195   4.536 -0.0399  0.0109  0.2999
 1130SOL    HW1 8710   9.354   2.115   4.485  0.4050  0.0581  0.3163
 1130SOL    HW2 8711   9.295   2.254   4.479  1.1621  0.3584 -0.3855
 1131SOL     OW 8712  11.782   8.309   6.972 -0.1931  0.5480 -0.0407
 1131SOL    HW1 8713  11.876   8.321   6.988 -0.0083  1.2903 -1.4776
 1131SOL    HW2 8714  11.776   8.222   6.931  0.1841  1.3497 -1.9258
 1132SOL     OW 8715   6.551   8.612   4.409  0.8418  0.2494 -0.3150
 1132SOL    HW1 8716   6.591   8.527   4.429  0.0466 -0.0673  0.0043
 1132SOL    HW2 8717   6.489   8.592   4.338  1.6806  0.8464 -1.2382
 1133SOL     OW 8718   8.335   3.380   8.603  0.0129 -0.1429  0.0234
 1133SOL    HW1 8719   8.406   3.325   8.569  0.6205  0.5681  0.1243
 1133SOL    HW2 8720   8.377   3.462   8.626 -1.1480  0.9787 -1.6423
 1134SOL     OW 8721   6.759  10.660   2.589  0.3083  0.2236 -0.2236
 1134SOL    HW1 8722   6.845  10.644   2.550  0.6472  1.0663  0.1396
 1134SOL    HW2 8723   6.778  10.697   2.675 -0.4153  0.6306 -0.2301
 1135SOL     OW 8724   8.289   2.940   5.386  0.6017 -0.4335 -0.3085
 1135SOL    HW1 8725   8.361   3.002   5.376 -0.5442  0.7994 -1.4658
 1135SOL    HW2 8726   8.232   2.959   5.312 -1.6745 -0.3018  1.3701
 1136SOL     OW 8727   9.204   5.035   7.408 -0.2198 -0.1557  0.1816
 1136SOL    HW1 8728   9.231   5.080   7.328 -0.7015 -3.2513 -1.8975
 1136SOL    HW2 8729   9.110   5.052   7.413 -0.2572 -0.2551 -0.1354
 1137SOL     OW 8730   4.604   9.103   7.659  0.4948 -0.0346  0.1199
 1137SOL    HW1 8731   4.627   9.102   7.752  0.5522  1.6919  0.1694
 1137SOL    HW2 8732   4.519   9.060   7.654  0.6832 -0.5058  0.9116
 1138SOL     OW 8733   7.895   1.508   7.813  0.0859  0.4524 -0.3523
 1138SOL    HW1 8734   7.968   1.451   7.791  1.1548  0.7424  2.2217
 1138SOL    HW2 8735   7.921   1.594   7.781  1.0089  0.6078  0.7890
 1139SOL     OW 8736   4.392   6.551  10.138 -0.1656  0.7104 -0.4838
 1139SOL    HW1 8737   4.369   6.621  10.199 -1.1371 -0.8658  1.0100
 1139SOL    HW2 8738   4.375   6.470  10.185  3.0280 -0.6194 -1.3342
 1140SOL     OW 8739   2.597   9.501   4.098 -0.4481 -0.0690 -0.3343
 1140SOL    HW1 8740   2.550   9.531   4.176  2.2534 -0.4098  1.5414
 1140SOL    HW2 8741   2.674   9.557   4.093  0.8141 -1.7818 -1.1809
 1141SOL     OW 8742  10.973  10.504   9.143  0.0812  0.6544  0.0143
 1141SOL    HW1 8743  11.020  10.429   9.178  1.0075  1.9170  1.6176
 1141SOL    HW2 8744  11.041  10.563   9.112 -0.4963  1.8000  0.8443
 1142SOL     OW 8745  11.015   8.195   3.314  0.3815 -0.5779 -0.1225
 1142SOL    HW1 8746  10.942   8.186   3.253  0.6449  1.0751 -0.7437
 1142SOL    HW2 8747  11.073   8.259   3.272  2.7318 -2.5752 -0.1704
 1143SOL     OW 8748   4.472   6.990   1.369 -0.4646  0.0901  0.3467
 1143SOL    HW1 8749   4.504   7.051   1.435 -0.6561 -1.5404  2.0283
 1143SOL    HW2 8750   4.418   7.043   1.311  1.0185  1.8775  0.5365
 1144SOL     OW 8751   7.107   0.467   9.349  0.1589 -0.2556  0.4015
 1144SOL    HW1 8752   7.129   0.375   9.333  0.0846 -0.5163  1.6590
 1144SOL    HW2 8753   7.099   0.473   9.445 -0.4430  0.9203  0.2956
 1145SOL     OW 8754  11.470   8.120   5.768 -0.5992 -0.3376  0.3536
 1145SOL    HW1 8755  11.490   8.027   5.776  0.7898 -0.2096 -1.1274
 1145SOL    HW2 8756  11.527   8.151   5.698  0.8764  2.1549  2.4563
 1146SOL     OW 8757   7.733  10.164  10.762  0.8568  0.2816  0.0656
 1146SOL    HW1 8758   7.761  10.215  10.686  0.4378  1.0671  0.4258
 1146SOL    HW2 8759   7.683  10.092  10.725 -0.4867  1.3865 -0.3746
 1147SOL     OW 8760   4.678   2.546   5.659 -0.2420 -0.3608 -0.3376
 1147SOL    HW1 8761   4.616   2.482   5.623  0.7034 -1.4337 -0.1175
 1147SOL    HW2 8762   4.763   2.520   5.623  0.1867  0.6976 -0.1266
 1148SOL     OW 8763   9.514   1.749   2.106 -0.1040 -0.0000 -0.2527
 1148SOL    HW1 8764   9.433   1.714   2.144  0.4538 -1.1052 -0.0531
 1148SOL    HW2 8765   9.580   1.738   2.174  0.4810 -0.2217 -0.8414
 1149SOL     OW 8766  10.433   4.246   5.150  0.3260  0.1301 -0.1527
 1149SOL    HW1 8767  10.408   4.206   5.234  0.8663 -0.5555 -0.3129
 1149SOL    HW2 8768  10.388   4.194   5.084  1.3399 -0.4813 -0.3843
 1150SOL     OW 8769   5.973   0.398  11.551 -0.0490 -0.1994 -0.4073
 1150SOL    HW1 8770   5.965   0.358  11.638  1.2225 -2.3351 -1.1824
 1150SOL    HW2 8771   5.898   0.363  11.502  0.3640 -0.6590 -0.7259
 1151SOL     OW 8772   1.018   5.369   5.745 -0.0500  0.0790 -0.1682
 1151SOL    HW1 8773   1.094   5.384   5.688  0.3914 -0.3840  0.2884
 1151SOL    HW2 8774   1.023   5.276   5.768 -0.7096  0.0638 -0.0633
 1152SOL     OW 8775  11.388   7.725   0.319  0.0320  0.3490 -0.0077
 1152SOL    HW1 8776  11.456   7.658   0.330 -0.4382 -0.1952 -0.4016
 1152SOL    HW2 8777  11.337   7.721   0.399  0.6288  0.9673  0.4230
 1153SOL     OW 8778   2.497  10.619   5.957  0.4814  0.1282  0.6013
 1153SOL    HW1 8779   2.421  10.583   5.911  1.4658  0.3227 -1.3047
 1153SOL    HW2 8780   2.463  10.652   6.040 -1.3074 -0.7151  0.2375
 1154SOL     OW 8781   9.429   8.938   1.280 -0.0801 -0.0336 -0.0781
 1154SOL    HW1 8782   9.409   8.976   1.194 -0.8563  0.0980  0.1528
 1154SOL    HW2 8783   9.416   9.010   1.342 -0.1683 -0.3014  0.2154
 1155SOL     OW 8784   8.626  10.513   0.808  0.3126 -0.6446  0.3270
 1155SOL    HW1 8785   8.540  10.512   0.850 -0.9132 -2.8887 -1.9445
 1155SOL    HW2 8786   8.611  10.555   0.723  1.6095 -0.5511  0.1199
 1156SOL     OW 8787   9.247   8.932   7.345  0.0422 -0.0300  0.2574
 1156SOL    HW1 8788   9.257   8.849   7.299  1.0569 -0.7441  1.6586
 1156SOL    HW2 8789   9.282   8.997   7.285 -3.7629 -0.0268 -2.2775
 1157SOL     OW 8790   4.693   9.083   9.038  0.0211 -0.1336  0.1069
 1157SOL    HW1 8791   4.670   9.000   8.997  1.3426 -0.3495 -0.2184
 1157SOL    HW2 8792   4.697   9.064   9.131  1.3165 -0.6860 -0.0527
 1158SOL     OW 8793   7.484   9.265   3.265 -0.1439  0.0209 -0.5972
 1158SOL    HW1 8794   7.498   9.192   3.325 -2.2485 -0.4166 -0.5462
 1158SOL    HW2 8795   7.518   9.341   3.312  1.9807 -0.8679 -0.6077
 1159SOL     OW 8796   7.434   6.683  10.573  0.1396  0.1139  0.0077
 1159SOL    HW1 8797   7.483   6.727  10.641 -0.8458  1.9229 -0.4035
 1159SOL    HW2 8798   7.419   6.750  10.506 -1.4172 -0.8267 -0.6426
 1160SOL     OW 8799   3.010   5.315   6.874  0.0359  0.4327  0.2465
 1160SOL    HW1 8800   2.950   5.374   6.829 -0.0622 -0.3422 -0.6713
 1160SOL    HW2 8801   2.964   5.231   6.874  0.7863  0.0206  0.2542
 1161SOL     OW 8802   9.117   2.877  11.562  0.2413  0.0010 -0.4973
 1161SOL    HW1 8803   9.213   2.883  11.556  0.3678  0.9760  1.6278
 1161SOL    HW2 8804   9.102   2.811  11.630 -0.5646  0.5733 -0.1068
 1162SOL     OW 8805   2.562   1.553   0.561 -0.5548  0.3470 -0.2452
 1162SOL    HW1 8806   2.477   1.553   0.605 -0.3213 -0.2837  0.2081
 1162SOL    HW2 8807   2.616   1.611   0.615 -0.5422  0.3186 -0.2270
 1163SOL     OW 8808   7.216   6.430   1.294  0.1673  0.5004 -0.5354
 1163SOL    HW1 8809   7.120   6.437   1.299 -0.1808 -0.4744 -3.3413
 1163SOL    HW2 8810   7.242   6.502   1.237  0.9362  0.0359 -0.7818
 1164SOL     OW 8811   6.811   4.107  11.441  0.0506  0.5098 -0.3673
 1164SOL    HW1 8812   6.828   4.028  11.390 -2.9517  0.2634 -1.1334
 1164SOL    HW2 8813   6.842   4.086  11.529  0.0675 -1.1993 -0.7532
 1165SOL     OW 8814   9.515   8.785   0.089  0.4509  0.0537  0.0043
 1165SOL    HW1 8815   9.496   8.876   0.110  1.8117  0.0858  1.2878
 1165SOL    HW2 8816   9.469   8.769   0.007 -0.6221  1.5929  0.2638
 1166SOL     OW 8817   7.216   1.598   5.922 -0.2090  0.0623  0.4114
 1166SOL    HW1 8818   7.218   1.687   5.957 -0.7509  0.2861 -0.0919
 1166SOL    HW2 8819   7.301   1.560   5.944  0.1085  0.7837  0.4323
 1167SOL     OW 8820   6.058   1.614   5.263  0.1377  0.2233  0.2099
 1167SOL    HW1 8821   6.119   1.687   5.255  0.5799 -0.2141 -0.4547
 1167SOL    HW2 8822   6.111   1.542   5.296  0.2854 -0.5204 -1.5688
 1168SOL     OW 8823   4.744   5.909   3.626  0.0086  0.1523  0.0004
 1168SOL    HW1 8824   4.822   5.908   3.680  0.0930 -2.8575 -0.0310
 1168SOL    HW2 8825   4.765   5.969   3.554  1.7428  0.4431  0.7179
 1169SOL     OW 8826   5.648   8.376   6.814 -0.2495 -0.2695  0.1089
 1169SOL    HW1 8827   5.655   8.422   6.730  1.1440 -1.8737 -0.7160
 1169SOL    HW2 8828   5.576   8.314   6.800 -0.5654  0.0320  0.3942
 1170SOL     OW 8829   2.737  10.906  11.226  0.3967  0.0231 -0.0287
 1170SOL    HW1 8830   2.807  10.962  11.194  0.5792 -1.0459 -1.6164
 1170SOL    HW2 8831   2.680  10.892  11.150 -0.4177 -0.7969  0.6945
 1171SOL     OW 8832   5.953   1.280  10.812  0.3281 -0.2690 -0.5734
 1171SOL    HW1 8833   6.040   1.320  10.809  0.0009  0.6519  1.0055
 1171SOL    HW2 8834   5.893   1.353  10.824 -0.2782 -1.1560  2.5870
 1172SOL     OW 8835   1.886  11.362   0.225 -0.3192  0.2849 -0.0884
 1172SOL    HW1 8836   1.888  11.278   0.181  0.5649  1.0114 -1.5174
 1172SOL    HW2 8837   1.863  11.425   0.156  2.2916  1.6196  0.1145
 1173SOL     OW 8838   1.089   6.424   9.747  0.2888  0.2474 -0.0641
 1173SOL    HW1 8839   1.092   6.449   9.654 -0.7630  1.3462  0.1640
 1173SOL    HW2 8840   1.114   6.332   9.748  2.2832  0.7078 -1.2043
 1174SOL     OW 8841   0.528   5.114   8.765  0.0247  0.3209  0.1410
 1174SOL    HW1 8842   0.587   5.053   8.810  0.1822 -0.3374 -0.9377
 1174SOL    HW2 8843   0.445   5.105   8.812  0.2718 -0.1301  0.5049
 1175SOL     OW 8844   6.542   9.065   6.459 -0.1154  0.3356 -0.6212
 1175SOL    HW1 8845   6.458   9.069   6.504  0.1694  1.5515 -0.1414
 1175SOL    HW2 8846   6.523   9.024   6.375 -1.1995  0.6595 -0.5498
 1176SOL     OW 8847   2.440   3.993   6.835  0.4039 -0.2467 -0.2097
 1176SOL    HW1 8848   2.366   3.950   6.877 -0.1229  1.7772  1.0419
 1176SOL    HW2 8849   2.487   3.922   6.791 -0.5681 -2.0432  1.5114
 1177SOL     OW 8850   3.858   6.548   6.565 -0.2310 -0.3306 -0.4725
 1177SOL    HW1 8851   3.790   6.606   6.531  0.0925  1.1156  1.1878
 1177SOL    HW2 8852   3.825   6.459   6.547 -2.4357  0.3115  0.0128
 1178SOL     OW 8853   7.432   6.571   1.504  0.4372 -0.2835  0.4862
 1178SOL    HW1 8854   7.426   6.666   1.498 -0.3391 -0.3900 -0.7672
 1178SOL    HW2 8855   7.525   6.553   1.489  0.5276  0.2516  0.3647
 1179SOL     OW 8856   6.792   4.265   7.670  0.2494 -0.2884 -0.3052
 1179SOL    HW1 8857   6.864   4.300   7.617  1.2287 -1.8882 -0.1028
 1179SOL    HW2 8858   6.819   4.176   7.691 -0.4952 -0.0115  2.1749
 1180SOL     OW 8859   8.243   5.409   3.143  0.7664 -0.2040  0.4396
 1180SOL    HW1 8860   8.169   5.446   3.192  0.5611 -0.6688  0.4826
 1180SOL    HW2 8861   8.221   5.423   3.051  0.1892 -1.1604  0.4222
 1181SOL     OW 8862   4.154   8.818   7.245 -0.3250  0.5043 -0.1399
 1181SOL    HW1 8863   4.084   8.769   7.287 -0.2325 -0.8321 -1.4730
 1181SOL    HW2 8864   4.124   8.909   7.246 -1.8129  0.0275 -0.1978
 1182SOL     OW 8865   6.202   3.347   4.617 -0.3153 -0.3969  0.0054
 1182SOL    HW1 8866   6.219   3.394   4.535  1.4405  0.2886  0.7164
 1182SOL    HW2 8867   6.138   3.401   4.663 -0.3170 -0.1019 -0.3400
 1183SOL     OW 8868  11.114  10.209   6.869 -0.2292 -0.2900 -0.1624
 1183SOL    HW1 8869  11.187  10.247   6.917  1.4322  0.2158 -2.9199
 1183SOL    HW2 8870  11.037  10.229   6.924  1.3554  1.3220  1.6255
 1184SOL     OW 8871   8.061   1.623   4.411  0.4040  0.3877  0.4738
 1184SOL    HW1 8872   8.126   1.602   4.345  0.2895  0.3067  0.3866
 1184SOL    HW2 8873   8.091   1.579   4.491  0.7677  0.8357  0.5877
 1185SOL     OW 8874   5.315   6.430   3.856  0.0622 -0.4389  0.3467
 1185SOL    HW1 8875   5.253   6.408   3.925  0.1037  1.2803  0.9827
 1185SOL    HW2 8876   5.401   6.410   3.893  0.0485 -0.0827  0.5748
 1186SOL     OW 8877   8.763   6.855   1.200  0.4079 -0.4610  0.3059
 1186SOL    HW1 8878   8.694   6.891   1.256  1.1646  1.8021 -0.1350
 1186SOL    HW2 8879   8.818   6.805   1.260  0.2247  0.4763  1.2941
 1187SOL     OW 8880   8.592   9.735  11.280  0.0305 -0.0179 -0.0034
 1187SOL    HW1 8881   8.615   9.789  11.355 -0.7192 -1.3832  1.2707
 1187SOL    HW2 8882   8.622   9.647  11.304 -1.8071 -0.8356 -0.4899
 1188SOL     OW 8883   2.100   2.475   1.855 -0.9201  0.2737 -0.3187
 1188SOL    HW1 8884   2.134   2.399   1.807 -1.6046  0.5989 -1.3611
 1188SOL    HW2 8885   2.152   2.549   1.823 -0.1556  0.2514  0.8027
 1189SOL     OW 8886   9.804   1.799   0.419 -0.3407 -0.0337  0.4346
 1189SOL    HW1 8887   9.726   1.748   0.435 -1.1793  1.4448  1.2585
 1189SOL    HW2 8888   9.830   1.833   0.505  0.3447  0.6892 -0.0346
 1190SOL     OW 8889   0.579  10.094   8.442  0.3279  0.2104 -0.0954
 1190SOL    HW1 8890   0.597  10.182   8.475  0.1656 -0.1349  0.9464
 1190SOL    HW2 8891   0.608  10.035   8.511 -2.2355 -0.4697  0.5363
 1191SOL     OW 8892  11.176  11.656   6.113 -0.5744 -0.3753 -0.1512
 1191SOL    HW1 8893  11.266  11.681   6.135 -1.6468  3.2097  0.9302
 1191SOL    HW2 8894  11.175  11.652   6.017  0.6743 -0.2312 -0.1871
 1192SOL     OW 8895   0.085   7.666   3.573  0.5726  0.0964 -0.3328
 1192SOL    HW1 8896   0.040   7.582   3.562  1.2185 -0.3361  0.2499
 1192SOL    HW2 8897   0.163   7.659   3.518  2.0040 -0.7336  1.6774
 1193SOL     OW 8898   2.840   3.226   7.121  0.2179  0.2853  0.3687
 1193SOL    HW1 8899   2.778   3.168   7.077  1.9431 -0.2580 -1.4973
 1193SOL    HW2 8900   2.833   3.309   7.074  0.6532  0.3103  0.3368
 1194SOL     OW 8901   8.868   9.526   8.881  0.2712  0.3368 -0.0889
 1194SOL    HW1 8902   8.773   9.521   8.874  0.3108 -0.0867 -0.3957
 1194SOL    HW2 8903   8.897   9.558   8.796  0.3794  0.8066  0.1243
 1195SOL     OW 8904   5.744   3.946  11.455 -0.3838  0.1632 -0.2523
 1195SOL    HW1 8905   5.814   3.922  11.395 -0.4263 -0.5465 -0.0234
 1195SOL    HW2 8906   5.704   4.024  11.416  0.8377  0.8771 -0.1413
 1196SOL     OW 8907   3.078   0.473   8.179 -0.2325  0.0448  0.2792
 1196SOL    HW1 8908   3.150   0.425   8.219 -0.1760  0.1387  0.2908
 1196SOL    HW2 8909   3.054   0.538   8.245 -1.0890 -0.7310  0.7584
 1197SOL     OW 8910   7.276   8.956   3.483 -0.2565  0.0966 -0.0102
 1197SOL    HW1 8911   7.205   8.896   3.508 -0.2307 -0.5365 -1.3599
 1197SOL    HW2 8912   7.235   9.042   3.479 -0.6507 -0.0670  0.4785
 1198SOL     OW 8913   4.420   7.204   7.713 -0.2391 -0.1844  0.0246
 1198SOL    HW1 8914   4.460   7.117   7.709 -0.1934 -0.1699  0.1668
 1198SOL    HW2 8915   4.451   7.248   7.634  0.7239  0.1257  0.5654
 1199SOL     OW 8916   9.960  10.917   9.845  0.3240  0.4315 -0.0830
 1199SOL    HW1 8917   9.896  10.976   9.804 -1.3216  0.2296  2.0241
 1199SOL    HW2 8918  10.018  10.976   9.894 -0.2083  0.4383  0.5534
 1200SOL     OW 8919   8.491   5.774   5.215  0.4663  0.5192 -0.0376
 1200SOL    HW1 8920   8.436   5.720   5.159 -0.2487  1.5465 -0.3499
 1200SOL    HW2 8921   8.567   5.720   5.233  0.0958 -0.3226 -0.9245
 1201SOL     OW 8922   1.380   8.348   3.181 -0.0883 -0.5126  0.2111
 1201SOL    HW1 8923   1.331   8.302   3.250  0.6711 -1.9751 -0.1664
 1201SOL    HW2 8924   1.340   8.434   3.176 -1.8560 -1.2636  0.6975
 1202SOL     OW 8925   6.389   1.025   5.747 -0.2150 -0.1680  0.4169
 1202SOL    HW1 8926   6.427   1.016   5.660 -1.5385 -0.8511 -0.1150
 1202SOL    HW2 8927   6.428   1.105   5.783 -0.1746  0.5000 -1.0741
 1203SOL     OW 8928   1.175   1.845   3.737  0.1925 -0.0220 -0.0240
 1203SOL    HW1 8929   1.101   1.868   3.792 -1.8599 -1.2237 -2.1026
 1203SOL    HW2 8930   1.162   1.752   3.716  1.1788  0.2308 -2.0281
 1204SOL     OW 8931   0.940   7.945  10.673 -0.0656  0.0991  0.0820
 1204SOL    HW1 8932   0.995   7.873  10.644  0.6974  1.0008 -0.7770
 1204SOL    HW2 8933   0.981   8.023  10.637 -1.9458  0.8058 -0.6929
 1205SOL     OW 8934   6.788  10.654   0.562  0.0409 -0.2316 -0.2143
 1205SOL    HW1 8935   6.732  10.576   0.565 -0.4995  0.1656  0.2843
 1205SOL    HW2 8936   6.755  10.704   0.487  0.5277 -0.5708 -0.6692
 1206SOL     OW 8937   5.272  10.873   3.892  0.2825  0.2172 -0.2433
 1206SOL    HW1 8938   5.349  10.919   3.860 -0.1428  1.2077  0.1319
 1206SOL    HW2 8939   5.199  10.932   3.874 -0.0803  0.4504  1.7110
 1207SOL     OW 8940   1.225   5.549  10.495  0.0011  0.2262 -0.0212
 1207SOL    HW1 8941   1.158   5.524  10.558  0.1919  1.3386  0.6609
 1207SOL    HW2 8942   1.252   5.467  10.454 -1.7084 -0.2482 -0.2651
 1208SOL     OW 8943  10.982   1.919   6.636 -0.4438 -0.9110  0.3297
 1208SOL    HW1 8944  10.937   1.894   6.718  0.8986  0.5285  1.5581
 1208SOL    HW2 8945  10.986   2.015   6.639  0.6026 -0.8924 -0.9014
 1209SOL     OW 8946   8.256  11.303   9.029  0.6591 -0.5176 -0.0639
 1209SOL    HW1 8947   8.251  11.348   9.113  1.2860 -0.2941 -0.1464
 1209SOL    HW2 8948   8.335  11.337   8.987  0.4466 -0.7525 -0.6729
 1210SOL     OW 8949   8.837   3.655   6.143 -0.2050 -0.1601  0.1913
 1210SOL    HW1 8950   8.813   3.665   6.235  1.5677 -0.8203  0.7458
 1210SOL    HW2 8951   8.927   3.686   6.138 -0.2873 -0.0926 -1.3489
 1211SOL     OW 8952   0.957  10.609   3.081  0.0799  0.4538  0.1500
 1211SOL    HW1 8953   0.905  10.539   3.041  0.8029 -0.1586  0.2674
 1211SOL    HW2 8954   0.910  10.690   3.058 -0.1803  0.0191 -0.8803
 1212SOL     OW 8955   8.826   1.010   3.480 -0.4001  0.5744  0.0554
 1212SOL    HW1 8956   8.756   1.048   3.428 -0.1293  2.6622  1.1224
 1212SOL    HW2 8957   8.906   1.046   3.442  0.0514 -0.7747 -0.3427
 1213SOL     OW 8958   0.079   0.100   4.332 -0.0480  0.3058  0.2701
 1213SOL    HW1 8959   0.079   0.095   4.428 -0.0952  0.7279  0.2962
 1213SOL    HW2 8960   0.127   0.180   4.313  3.1315 -1.5696 -0.1903
 1214SOL     OW 8961   4.903   9.843   4.729  0.0988 -0.1792 -0.0548
 1214SOL    HW1 8962   4.965   9.771   4.717  2.2023  1.6704 -0.9461
 1214SOL    HW2 8963   4.873   9.833   4.820  0.3082 -2.1448 -0.1533
 1215SOL     OW 8964   5.424  10.964   5.071 -0.2425 -0.3509 -0.0622
 1215SOL    HW1 8965   5.518  10.960   5.051 -0.4978 -0.0531 -1.4223
 1215SOL    HW2 8966   5.392  11.036   5.016 -1.4983 -1.2843 -0.5833
 1216SOL     OW 8967   2.657   8.094   3.911 -0.1128 -0.0206 -0.2542
 1216SOL    HW1 8968   2.660   8.074   4.005  0.5042  2.9611  0.4705
 1216SOL    HW2 8969   2.748   8.099   3.884 -0.2834 -0.5540 -0.9617
 1217SOL     OW 8970   3.665   8.283   4.930 -0.0629  0.5423 -0.5972
 1217SOL    HW1 8971   3.704   8.247   4.851  2.3432  0.5344  0.4966
 1217SOL    HW2 8972   3.601   8.217   4.958  1.3349 -0.9813 -0.8531
 1218SOL     OW 8973   3.435  11.128   8.619 -0.0244 -0.1543  0.5064
 1218SOL    HW1 8974   3.410  11.185   8.546  3.5518  2.1973  0.8229
 1218SOL    HW2 8975   3.437  11.186   8.695 -0.3416 -1.7490  1.7789
 1219SOL     OW 8976   1.637   9.716   7.705 -0.3888  0.2099  0.6304
 1219SOL    HW1 8977   1.597   9.791   7.660 -1.4558  0.3174  1.6853
 1219SOL    HW2 8978   1.623   9.643   7.646 -0.2907  0.6469  0.0567
 1220SOL     OW 8979   7.808   4.029   7.485  0.2459  0.6069 -0.5903
 1220SOL    HW1 8980   7.821   3.949   7.434  0.8856  1.3988 -1.7196
 1220SOL    HW2 8981   7.732   4.010   7.540  1.7637 -1.6042  0.8988
 1221SOL     OW 8982   2.616   3.102   1.226 -0.0570  0.0176  0.1816
 1221SOL    HW1 8983   2.541   3.159   1.209 -1.4275 -1.1862  1.9247
 1221SOL    HW2 8984   2.586   3.015   1.199  1.2207 -0.2621 -0.3836
 1222SOL     OW 8985   8.538   2.740  10.970 -0.0424 -0.0751  0.0945
 1222SOL    HW1 8986   8.627   2.707  10.957  0.4611  0.9152  0.8337
 1222SOL    HW2 8987   8.530   2.811  10.906 -1.4463 -2.1184 -2.1456
 1223SOL     OW 8988   8.611   4.594   1.402 -0.1046  1.0216  0.0010
 1223SOL    HW1 8989   8.569   4.678   1.418 -2.2159 -0.3805  2.4104
 1223SOL    HW2 8990   8.546   4.542   1.355  0.5852  0.2066 -0.0971
 1224SOL     OW 8991   9.352  11.728  11.426  0.4547 -0.1697  0.4650
 1224SOL    HW1 8992   9.308  11.762  11.504 -0.3607  0.6816 -0.3346
 1224SOL    HW2 8993   9.445  11.741  11.443  0.3233 -0.5773  1.5491
 1225SOL     OW 8994   1.630   0.762   4.143 -0.2424 -0.1874 -0.3592
 1225SOL    HW1 8995   1.690   0.707   4.093  0.7788 -1.0490  1.7056
 1225SOL    HW2 8996   1.685   0.835   4.174  0.4726 -2.0974  3.3909
 1226SOL     OW 8997   2.116   9.691   2.065  0.3774 -0.0081  0.4870
 1226SOL    HW1 8998   2.168   9.652   2.135  1.3455  0.0223 -0.2025
 1226SOL    HW2 8999   2.025   9.676   2.092  0.5589 -4.7135 -0.7180
 1227SOL     OW 9000   3.351   2.067   0.284  0.4643  0.0883  0.0650
 1227SOL    HW1 9001   3.391   2.012   0.351  1.7469  1.3396  0.3612
 1227SOL    HW2 9002   3.423   2.094   0.228 -0.3331  0.4693 -0.8178
 1228SOL     OW 9003   4.774   9.792  11.462 -0.2215 -0.6101 -0.0008
 1228SOL    HW1 9004   4.735   9.720  11.511  0.3409 -1.0424 -0.1778
 1228SOL    HW2 9005   4.824   9.750  11.393  0.0479 -0.0470 -0.1531
 1229SOL     OW 9006   6.156   2.211  10.664 -0.0847 -0.0697  0.1273
 1229SOL    HW1 9007   6.131   2.192  10.574  1.1541 -0.5015 -0.1457
 1229SOL    HW2 9008   6.222   2.279  10.657  0.4051 -0.4842  0.6709
 1230SOL     OW 9009   3.585   9.295   4.522  0.1132  0.0078 -0.0878
 1230SOL    HW1 9010   3.566   9.379   4.479 -0.0335 -0.5032 -1.0443
 1230SOL    HW2 9011   3.642   9.249   4.461  1.2772 -0.0764  1.0214
 1231SOL     OW 9012  11.118   0.343   2.642 -0.3836  0.0589  0.0151
 1231SOL    HW1 9013  11.036   0.299   2.666 -0.9413  1.0668  0.0220
 1231SOL    HW2 9014  11.140   0.395   2.719 -1.4472  2.2538 -1.0731
 1232SOL     OW 9015   6.553   7.125   0.475 -0.0379 -0.7356 -0.0257
 1232SOL    HW1 9016   6.648   7.112   0.481 -0.1346 -0.8514  1.7486
 1232SOL    HW2 9017   6.539   7.155   0.385  1.7519 -0.0938 -0.1381
 1233SOL     OW 9018   8.895   6.174   0.989 -0.0695  0.1279  0.2887
 1233SOL    HW1 9019   8.806   6.202   1.011  0.5976  2.3660  0.3991
 1233SOL    HW2 9020   8.886   6.082   0.964 -2.2308  0.0054  1.3196
 1234SOL     OW 9021   7.593   9.418   8.681 -0.0955 -0.7756  0.2125
 1234SOL    HW1 9022   7.618   9.330   8.708 -0.9950 -1.3213 -0.6891
 1234SOL    HW2 9023   7.508   9.408   8.639  0.4835  0.2786 -1.3089
 1235SOL     OW 9024   5.226   4.525   4.793  0.3274  0.3076 -0.4552
 1235SOL    HW1 9025   5.221   4.430   4.778  0.1796  0.0609  1.0161
 1235SOL    HW2 9026   5.135   4.554   4.792  0.0906 -0.1369  2.2923
 1236SOL     OW 9027   8.619   4.221   6.985  0.2099 -0.6552 -0.2714
 1236SOL    HW1 9028   8.656   4.247   7.070 -1.1208  0.3638  0.0318
 1236SOL    HW2 9029   8.686   4.164   6.946  1.6074  0.2657  0.6914
 1237SOL     OW 9030   6.895  11.088   0.778 -0.4609 -0.2353  0.5039
 1237SOL    HW1 9031   6.909  11.106   0.685  1.4894 -0.6470  0.6565
 1237SOL    HW2 9032   6.945  11.156   0.823  0.0922 -1.0662  1.1938
 1238SOL     OW 9033   7.782   6.397   5.700 -0.6426 -0.7048  0.0554
 1238SOL    HW1 9034   7.747   6.365   5.783 -0.7776 -0.9890 -0.1115
 1238SOL    HW2 9035   7.780   6.321   5.642 -1.8115 -0.1886 -0.6207
 1239SOL     OW 9036   8.053  10.574   7.263 -0.2215 -0.2702 -0.4612
 1239SOL    HW1 9037   8.119  10.643   7.254 -1.5795  1.1232 -0.2327
 1239SOL    HW2 9038   7.982  10.602   7.205 -2.3932  0.5350  2.3704
 1240SOL     OW 9039  11.137   9.366   5.815  0.3110 -0.2720 -0.3934
 1240SOL    HW1 9040  11.108   9.403   5.898  0.6959 -0.5434 -0.1426
 1240SOL    HW2 9041  11.055   9.348   5.768  0.0980  1.7546 -0.9123
 1241SOL     OW 9042   6.479   8.665   8.997 -0.2120  0.2590 -0.4882
 1241SOL    HW1 9043   6.456   8.717   9.074  0.2246  1.0049 -0.8528
 1241SOL    HW2 9044   6.575   8.664   8.997 -0.2069  0.6098 -1.2554
 1242SOL     OW 9045   3.708   3.761   2.209  0.2906  0.7820 -0.0155
 1242SOL    HW1 9046   3.650   3.837   2.200 -0.6129  0.1928  0.6608
 1242SOL    HW2 9047   3.660   3.689   2.171  0.3692  0.1886  0.9733
 1243SOL     OW 9048   4.010   1.214   0.189  0.4266 -0.6878 -0.4067
 1243SOL    HW1 9049   4.091   1.165   0.201 -0.2162 -1.5177  0.7941
 1243SOL    HW2 9050   4.035   1.306   0.202  1.0456 -0.9977  0.7262
 1244SOL     OW 9051   9.277   3.035  11.011  0.4192  0.0442 -0.2190
 1244SOL    HW1 9052   9.329   3.102  10.967  0.7732 -0.2677 -0.2807
 1244SOL    HW2 9053   9.337   2.995  11.074  0.5892 -1.0591 -1.0507
 1245SOL     OW 9054   2.062   7.447   5.551 -0.1619 -0.5735 -0.1727
 1245SOL    HW1 9055   1.973   7.472   5.526 -0.0348  0.2384  0.1629
 1245SOL    HW2 9056   2.051   7.393   5.629 -0.3744 -0.7434 -0.3175
 1246SOL     OW 9057   9.256   8.957   0.623  0.0935 -0.2682 -0.5768
 1246SOL    HW1 9058   9.281   8.964   0.715  0.4420  2.0405 -0.7665
 1246SOL    HW2 9059   9.168   8.919   0.625 -0.4097  0.8667  0.8225
 1247SOL     OW 9060   2.055   3.858   8.707  0.2059  0.4353 -0.2452
 1247SOL    HW1 9061   2.070   3.878   8.614  0.1887 -1.3046 -0.6596
 1247SOL    HW2 9062   1.979   3.910   8.731  0.4384  1.1952 -1.1051
 1248SOL     OW 9063   3.779   4.241   6.253  0.0488  0.4744 -0.0995
 1248SOL    HW1 9064   3.828   4.324   6.252  1.7524 -0.4734 -2.5847
 1248SOL    HW2 9065   3.821   4.187   6.187 -2.9765 -1.2821 -0.7704
 1249SOL     OW 9066   9.968   0.106  10.359 -0.1324 -0.3305 -0.4199
 1249SOL    HW1 9067   9.911   0.150  10.422  1.8891  0.5792  0.8559
 1249SOL    HW2 9068  10.008   0.034  10.409 -0.4807 -1.2601 -1.4318
 1250SOL     OW 9069   3.914   5.125   3.923  0.4799  0.3180 -0.3460
 1250SOL    HW1 9070   3.988   5.085   3.969  0.8663 -1.0053 -2.0181
 1250SOL    HW2 9071   3.882   5.192   3.983  2.5037  0.3597  0.7769
 1251SOL     OW 9072   2.398   3.706   4.964  0.9137  0.1620 -0.0708
 1251SOL    HW1 9073   2.412   3.779   4.904  0.0130 -0.6705 -1.3344
 1251SOL    HW2 9074   2.354   3.745   5.039 -2.2494  0.5601 -1.9587
 1252SOL     OW 9075  11.685   9.245   9.951  0.5544  0.7723 -0.1282
 1252SOL    HW1 9076  11.632   9.314   9.913 -2.1533 -0.6415  0.8051
 1252SOL    HW2 9077  11.694   9.268  10.043 -0.2044  0.0235  0.1495
 1253SOL     OW 9078   1.794   4.222   3.426 -0.7602 -0.0990  0.4205
 1253SOL    HW1 9079   1.854   4.283   3.469 -0.5120 -0.1046  0.0842
 1253SOL    HW2 9080   1.713   4.228   3.478 -0.6683  0.3569  0.5168
 1254SOL     OW 9081   3.492   0.717   7.235  0.7963 -0.0437  0.1415
 1254SOL    HW1 9082   3.509   0.806   7.204 -0.9838 -0.1958 -1.4858
 1254SOL    HW2 9083   3.490   0.664   7.155  0.2080 -1.2527  0.9228
 1255SOL     OW 9084   4.271   7.388   3.261  0.2685  0.1959  0.2783
 1255SOL    HW1 9085   4.184   7.425   3.267  0.9621  1.7935  1.0789
 1255SOL    HW2 9086   4.260   7.296   3.287 -1.3734 -0.0215 -1.0729
 1256SOL     OW 9087   0.485   6.688   3.451  0.0487 -0.1798  0.4953
 1256SOL    HW1 9088   0.501   6.743   3.528  0.1020 -2.6891  2.3839
 1256SOL    HW2 9089   0.410   6.634   3.475 -0.8269 -0.1400 -1.8056
 1257SOL     OW 9090   8.067   7.382   1.378 -0.3659  0.1604  0.7218
 1257SOL    HW1 9091   8.034   7.472   1.379 -2.5222 -0.5113 -0.8854
 1257SOL    HW2 9092   8.133   7.381   1.309 -1.5948  0.1910 -0.5090
 1258SOL     OW 9093   4.953   9.192  11.808  0.1180  0.3865  0.3682
 1258SOL    HW1 9094   4.921   9.239  11.884  1.5548  2.9733 -0.4784
 1258SOL    HW2 9095   4.907   9.232  11.734  0.3294 -0.5475 -0.2875
 1259SOL     OW 9096   7.501   4.825  11.046 -0.5176 -0.4957 -0.4743
 1259SOL    HW1 9097   7.407   4.826  11.028 -0.4913  1.2979 -0.7166
 1259SOL    HW2 9098   7.531   4.740  11.013 -1.9321 -0.7995 -1.0437
 1260SOL     OW 9099   7.196  10.825  10.994 -0.1831 -0.1519  0.2564
 1260SOL    HW1 9100   7.271  10.797  10.941 -0.8359  1.0645 -1.4278
 1260SOL    HW2 9101   7.226  10.902  11.040 -0.5694  0.8080 -1.0302
 1261SOL     OW 9102   2.327   2.227   6.724  0.0111 -0.1428  0.3587
 1261SOL    HW1 9103   2.420   2.205   6.733  0.6184  1.2608 -1.8063
 1261SOL    HW2 9104   2.291   2.159   6.667  0.3033  0.5894 -0.7368
 1262SOL     OW 9105   5.404  11.209   4.508  0.1239  0.8249  0.3386
 1262SOL    HW1 9106   5.311  11.207   4.484  0.6647  2.5673 -2.2798
 1262SOL    HW2 9107   5.444  11.138   4.458  0.5123  1.4349 -0.2374
 1263SOL     OW 9108   5.973   8.962   9.600 -0.0821 -0.5901  0.5128
 1263SOL    HW1 9109   5.959   8.920   9.685  0.0173 -0.4618  0.5933
 1263SOL    HW2 9110   6.067   8.975   9.595 -0.1139 -0.3638  0.4943
 1264SOL     OW 9111  10.796   4.536   3.814 -0.4858 -0.5647 -0.0119
 1264SOL    HW1 9112  10.806   4.576   3.900  0.6482  3.2801 -1.7000
 1264SOL    HW2 9113  10.703   4.547   3.793 -0.2745  0.9797 -0.2696
 1265SOL     OW 9114   0.391   2.609   8.066 -0.2967  0.0237 -0.1108
 1265SOL    HW1 9115   0.376   2.642   8.154  3.3424 -1.0253  1.0750
 1265SOL    HW2 9116   0.416   2.517   8.078  1.9422  0.2931 -1.9996
 1266SOL     OW 9117  10.665   2.960  10.740  0.1639 -0.6483  0.0595
 1266SOL    HW1 9118  10.601   2.909  10.789  0.7111  0.3557  1.9260
 1266SOL    HW2 9119  10.617   2.993  10.665 -1.8682  0.8956  1.9087
 1267SOL     OW 9120   3.779   8.147   9.760  0.6788  0.6346 -0.1961
 1267SOL    HW1 9121   3.732   8.224   9.729  1.2908  1.2539  0.3767
 1267SOL    HW2 9122   3.825   8.113   9.683 -0.6020  0.0755 -0.7413
 1268SOL     OW 9123   6.392   0.588   5.069  0.2801 -0.3445 -0.7573
 1268SOL    HW1 9124   6.382   0.683   5.074  0.6144 -0.3457  0.1097
 1268SOL    HW2 9125   6.484   0.572   5.092 -0.3607 -1.0291  1.6346
 1269SOL     OW 9126  10.484   9.916  10.179 -0.1492 -0.5567 -0.4546
 1269SOL    HW1 9127  10.439   9.835  10.155 -1.6963  0.2190 -0.3351
 1269SOL    HW2 9128  10.510   9.956  10.096 -0.1470 -0.7665 -0.5533
 1270SOL     OW 9129   6.973   9.991   2.933  0.3221  0.4535  0.4398
 1270SOL    HW1 9130   7.028  10.068   2.917 -0.2426  1.1818  1.8060
 1270SOL    HW2 9131   7.033   9.926   2.969  0.8018  0.2356 -0.7074
 1271SOL     OW 9132   0.642   8.941   8.866 -0.6134 -0.0083  0.4514
 1271SOL    HW1 9133   0.684   8.856   8.854 -0.5734 -0.2044  1.8067
 1271SOL    HW2 9134   0.639   8.979   8.778 -1.2071 -1.6570 -0.2805
 1272SOL     OW 9135   0.952   9.692   6.417 -0.1288 -0.7944  0.0925
 1272SOL    HW1 9136   0.887   9.633   6.454  1.0966 -3.3289 -1.5295
 1272SOL    HW2 9137   0.921   9.710   6.329  0.9668 -1.4813 -0.4555
 1273SOL     OW 9138   8.358   8.881   6.630 -0.5324  0.6504 -0.0991
 1273SOL    HW1 9139   8.374   8.868   6.536  0.3178 -1.4548  0.2770
 1273SOL    HW2 9140   8.297   8.954   6.634  0.1481  1.4204 -2.2379
 1274SOL     OW 9141  11.506   7.454   2.294 -0.3130 -0.6468 -0.1010
 1274SOL    HW1 9142  11.541   7.392   2.230  1.1079 -0.0364  0.0463
 1274SOL    HW2 9143  11.567   7.528   2.293 -1.5453  0.4340  0.2725
 1275SOL     OW 9144   6.220   4.799   3.124  0.5992  0.7141 -0.1614
 1275SOL    HW1 9145   6.150   4.864   3.130 -0.4605 -0.1876 -1.9174
 1275SOL    HW2 9146   6.176   4.714   3.133  1.3995  0.1146 -1.5949
 1276SOL     OW 9147   3.034  10.574   2.191 -0.0523 -0.0288 -0.8822
 1276SOL    HW1 9148   3.127  10.568   2.167  0.1034 -1.0642 -0.0941
 1276SOL    HW2 9149   2.991  10.510   2.134 -0.9274  2.9701 -3.9229
 1277SOL     OW 9150   9.186   3.445   4.646 -0.0096 -0.0533 -0.0781
 1277SOL    HW1 9151   9.122   3.382   4.615 -0.0397  0.7825 -1.8675
 1277SOL    HW2 9152   9.180   3.441   4.742 -0.3386 -2.3626 -0.1465
 1278SOL     OW 9153   4.021   0.920  10.506  0.4887  0.2217 -0.0395
 1278SOL    HW1 9154   3.960   0.932  10.433  0.3324  0.1122  0.0727
 1278SOL    HW2 9155   3.970   0.875  10.573  0.2004  1.6363  0.7197
 1279SOL     OW 9156   9.874   9.956   7.065 -0.5260  0.1961  0.1313
 1279SOL    HW1 9157   9.839   9.893   7.002  0.4454 -0.0800 -0.1530
 1279SOL    HW2 9158   9.961   9.922   7.087 -0.3471  0.9634  0.6608
 1280SOL     OW 9159   2.920   1.367   1.664 -0.1612 -0.4618  0.2047
 1280SOL    HW1 9160   2.831   1.386   1.634 -0.0624 -0.8395 -0.3348
 1280SOL    HW2 9161   2.959   1.316   1.593  0.1787 -1.1038  0.8389
 1281SOL     OW 9162   3.913   3.281   1.741 -0.3346  0.0361 -0.3786
 1281SOL    HW1 9163   3.833   3.267   1.793 -1.4645  0.9374 -1.7900
 1281SOL    HW2 9164   3.935   3.194   1.708  0.7266 -0.6583  1.9635
 1282SOL     OW 9165   2.851   2.625   1.271 -0.5903 -0.3449 -0.6274
 1282SOL    HW1 9166   2.826   2.575   1.349  1.1943  0.6931  0.6841
 1282SOL    HW2 9167   2.771   2.669   1.245 -0.6353  2.0315  2.7750
 1283SOL     OW 9168   3.250   3.488   3.827 -0.1675  0.4003  0.0545
 1283SOL    HW1 9169   3.231   3.494   3.921 -0.1674  0.2859  0.0625
 1283SOL    HW2 9170   3.164   3.487   3.785 -0.1976 -0.4063  0.1081
 1284SOL     OW 9171   2.387  10.505   4.899 -0.2161  0.1781  0.0462
 1284SOL    HW1 9172   2.412  10.540   4.984  0.6657 -1.9844  0.7430
 1284SOL    HW2 9173   2.385  10.582   4.841  1.1694  1.4172  1.5518
 1285SOL     OW 9174   5.611   5.502   5.805  0.8523 -0.0820  0.2014
 1285SOL    HW1 9175   5.518   5.482   5.806  0.5807  1.0948 -0.0077
 1285SOL    HW2 9176   5.631   5.526   5.896  0.5557  1.3396 -0.0970
 1286SOL     OW 9177  10.520   3.374   2.072 -0.1852 -0.6179  0.3309
 1286SOL    HW1 9178  10.425   3.379   2.082 -0.1433 -2.5023  2.6137
 1286SOL    HW2 9179  10.554   3.446   2.125 -0.3043 -0.0566 -0.3390
 1287SOL     OW 9180   8.187  10.412   8.172 -0.4287 -0.0419  0.2133
 1287SOL    HW1 9181   8.261  10.466   8.145 -0.6291  0.0913 -0.0726
 1287SOL    HW2 9182   8.140  10.393   8.091 -0.3095 -0.7204  0.2957
 1288SOL     OW 9183   8.917   3.077  11.625 -0.4887 -0.4555  0.5121
 1288SOL    HW1 9184   8.832   3.036  11.606 -1.1386  0.0764  2.1286
 1288SOL    HW2 9185   8.981   3.006  11.614 -1.2422 -1.1054  0.2158
 1289SOL     OW 9186   5.866   3.804   0.111 -0.0797 -0.6705 -0.6987
 1289SOL    HW1 9187   5.842   3.854   0.033  0.0039 -2.1580 -1.7102
 1289SOL    HW2 9188   5.957   3.828   0.128 -0.7981  1.5363  0.4613
 1290SOL     OW 9189   4.706   1.166   6.265  0.1767  0.3203  0.4360
 1290SOL    HW1 9190   4.770   1.098   6.287  1.5539  1.2663 -0.4700
 1290SOL    HW2 9191   4.684   1.206   6.349  0.7251 -0.0724  0.7742
 1291SOL     OW 9192   6.815  10.451   6.027 -0.0983  0.1057  0.4063
 1291SOL    HW1 9193   6.742  10.504   5.996 -0.2297 -0.1030  0.3650
 1291SOL    HW2 9194   6.848  10.406   5.949 -0.6767 -0.7255  0.6320
 1292SOL     OW 9195   4.020   3.872   1.001 -0.4065 -0.3452 -0.0371
 1292SOL    HW1 9196   4.089   3.894   0.939  1.6793  0.2855  2.3544
 1292SOL    HW2 9197   3.958   3.945   0.995 -0.7606 -0.7369 -1.9433
 1293SOL     OW 9198   3.531   4.454   6.507  0.2942  0.2794  0.1979
 1293SOL    HW1 9199   3.613   4.487   6.470 -0.7122  2.1762 -0.4851
 1293SOL    HW2 9200   3.472   4.448   6.432  0.3913 -3.3220  0.2515
 1294SOL     OW 9201   5.704   2.358   8.259 -0.7404  0.3131  0.4664
 1294SOL    HW1 9202   5.767   2.304   8.211 -1.9828 -1.1787  0.4456
 1294SOL    HW2 9203   5.669   2.417   8.193 -1.4348 -0.7953 -0.1997
 1295SOL     OW 9204   4.770  10.798   7.996 -0.0008  0.4709 -0.2140
 1295SOL    HW1 9205   4.813  10.736   7.937 -1.5176  0.4801 -1.3539
 1295SOL    HW2 9206   4.695  10.831   7.947 -0.0100  2.1956  0.8862
 1296SOL     OW 9207   3.723   3.726   7.348  0.5458  0.4752 -0.1725
 1296SOL    HW1 9208   3.662   3.778   7.295  0.8639  0.7874 -0.2332
 1296SOL    HW2 9209   3.732   3.643   7.300  1.2599  0.9602 -0.9049
 1297SOL     OW 9210  10.758  10.274  10.987  0.0163 -0.4168  0.0936
 1297SOL    HW1 9211  10.783  10.344  11.048 -0.6919  1.4668 -1.6745
 1297SOL    HW2 9212  10.837  10.221  10.979  0.0433 -0.8973  2.8169
 1298SOL     OW 9213   7.179   4.979   2.821  0.2992  0.1939  0.6521
 1298SOL    HW1 9214   7.173   5.075   2.819  0.9088  0.2341  0.4842
 1298SOL    HW2 9215   7.193   4.959   2.914  1.8870  0.3965  0.4809
 1299SOL     OW 9216   0.995   4.874   2.954  0.2976  0.1753  0.2820
 1299SOL    HW1 9217   1.052   4.813   2.909 -0.9486  0.2404 -1.4991
 1299SOL    HW2 9218   0.971   4.939   2.888 -0.1346  1.3790  1.5446
 1300SOL     OW 9219   5.103   8.919   2.111  0.2083 -0.6853  0.1340
 1300SOL    HW1 9220   5.144   8.904   2.026  0.7864 -0.4990  0.3713
 1300SOL    HW2 9221   5.126   8.842   2.163  1.9714  0.3060  0.8990
 1301SOL     OW 9222  10.466   8.918  10.266 -0.4055 -0.2593  0.4758
 1301SOL    HW1 9223  10.407   8.887  10.198  0.1118  0.5700 -0.3754
 1301SOL    HW2 9224  10.553   8.913  10.226  0.0276 -0.7527  1.4430
 1302SOL     OW 9225  10.380   1.064   1.256  0.3669  0.1374  0.7748
 1302SOL    HW1 9226  10.316   1.009   1.210  1.3274 -0.8658  0.5843
 1302SOL    HW2 9227  10.340   1.151   1.257 -1.6638 -0.7330  1.9795
 1303SOL     OW 9228   7.919   2.649  10.504 -0.5952  0.4636 -0.0713
 1303SOL    HW1 9229   7.860   2.715  10.541  0.3958  2.0274 -1.1591
 1303SOL    HW2 9230   8.004   2.692  10.500  0.5088 -1.4974  0.7803
 1304SOL     OW 9231   7.607   1.292   4.697 -0.5775  0.1058  0.0789
 1304SOL    HW1 9232   7.559   1.249   4.626 -0.3816 -2.5784  1.4493
 1304SOL    HW2 9233   7.690   1.245   4.703 -1.3605 -1.1583  3.2759
 1305SOL     OW 9234  11.362  11.520   2.560  0.2098  0.4679 -0.0411
 1305SOL    HW1 9235  11.292  11.557   2.506 -1.6270  1.1202  2.6066
 1305SOL    HW2 9236  11.442  11.535   2.509 -1.3458  1.3724 -2.3613
 1306SOL     OW 9237   4.910   4.335   6.188 -0.2801  0.7581 -0.6971
 1306SOL    HW1 9238   4.923   4.261   6.248  1.0363 -0.4203 -2.3440
 1306SOL    HW2 9239   4.988   4.390   6.200 -1.7807  2.6184  1.3752
 1307SOL     OW 9240   0.515   6.258   4.060  0.1075  0.4633 -0.3610
 1307SOL    HW1 9241   0.582   6.307   4.012 -0.8825  1.8601 -0.3728
 1307SOL    HW2 9242   0.544   6.259   4.151  0.1732  0.9671 -0.3848
 1308SOL     OW 9243  11.626   9.822   8.696 -0.0827  0.0466  0.1142
 1308SOL    HW1 9244  11.602   9.900   8.746  0.4637  0.6200 -0.4869
 1308SOL    HW2 9245  11.544   9.790   8.660 -0.6616 -0.9947  2.1942
 1309SOL     OW 9246   5.035   6.851   4.650  0.2940 -0.2342  0.2233
 1309SOL    HW1 9247   5.029   6.850   4.554  2.0625  0.4414  0.0688
 1309SOL    HW2 9248   5.010   6.940   4.674 -0.4891 -0.5057  0.4281
 1310SOL     OW 9249   4.110   0.715   5.943 -0.3230 -0.6832  0.8441
 1310SOL    HW1 9250   4.094   0.797   5.989 -1.0067 -0.0361 -0.5015
 1310SOL    HW2 9251   4.190   0.731   5.893 -0.7021 -0.6637  0.2295
 1311SOL     OW 9252   0.082   1.458   1.646 -0.6295  0.5085  0.1809
 1311SOL    HW1 9253   0.166   1.499   1.624 -0.7968 -0.1695 -1.9965
 1311SOL    HW2 9254   0.017   1.507   1.596 -1.4640  0.5950  1.3142
 1312SOL     OW 9255   7.441   6.880   6.949 -0.3314  0.1315  0.3836
 1312SOL    HW1 9256   7.435   6.963   6.902 -2.5651  0.5882  1.3468
 1312SOL    HW2 9257   7.350   6.857   6.970  0.3956 -1.3127  2.2988
 1313SOL     OW 9258   4.536   8.518   1.659  0.5756  0.5734 -0.4625
 1313SOL    HW1 9259   4.451   8.496   1.623 -0.1520 -2.0467  2.3853
 1313SOL    HW2 9260   4.521   8.596   1.712  0.3176  0.9741 -1.1162
 1314SOL     OW 9261  11.155   7.261   9.131 -0.0178 -0.0258 -0.7533
 1314SOL    HW1 9262  11.147   7.169   9.154  0.2361  0.1508  0.0707
 1314SOL    HW2 9263  11.065   7.293   9.127 -0.2589 -0.7898 -3.1845
 1315SOL     OW 9264   8.672   0.900   4.376 -0.2233 -0.2280 -0.4399
 1315SOL    HW1 9265   8.702   0.818   4.415 -1.3034  0.6626  2.5234
 1315SOL    HW2 9266   8.588   0.919   4.419  0.3620  2.8197 -0.3768
 1316SOL     OW 9267   2.542   0.130   3.281 -0.1155  0.0797 -0.1768
 1316SOL    HW1 9268   2.475   0.143   3.214  0.5137 -0.5570 -0.9507
 1316SOL    HW2 9269   2.622   0.110   3.232  0.9090  1.8439  0.6861
 1317SOL     OW 9270  11.685   2.185   3.916 -0.6366  0.1276  0.2611
 1317SOL    HW1 9271  11.612   2.248   3.915 -0.9124 -0.1846 -0.4376
 1317SOL    HW2 9272  11.730   2.202   3.998 -0.4945  1.4834 -0.0722
 1318SOL     OW 9273  10.506   2.489  10.445 -0.5733  0.3929 -0.0673
 1318SOL    HW1 9274  10.538   2.436  10.373 -0.5843  1.2773 -0.7354
 1318SOL    HW2 9275  10.547   2.451  10.523  0.6385  0.3586 -0.7038
 1319SOL     OW 9276   0.333  11.771   8.553 -0.1490 -0.6343 -0.2368
 1319SOL    HW1 9277   0.319  11.755   8.646 -1.0151 -0.2872 -0.3059
 1319SOL    HW2 9278   0.337  11.684   8.514  1.8523 -0.8596  0.3315
 1320SOL     OW 9279   1.104   2.807   7.345 -0.0257 -0.2871 -0.1160
 1320SOL    HW1 9280   1.179   2.761   7.381  0.3022  1.1701  1.1688
 1320SOL    HW2 9281   1.141   2.863   7.276  0.3112  1.2889  1.2810
 1321SOL     OW 9282   1.289   2.764   8.793 -0.3619  0.4140 -0.6280
 1321SOL    HW1 9283   1.289   2.743   8.700  1.5149  0.3644 -0.6428
 1321SOL    HW2 9284   1.351   2.702   8.832 -3.6821 -2.0959  1.3140
 1322SOL     OW 9285   8.233  10.358   2.844 -0.3847  0.1250 -0.2465
 1322SOL    HW1 9286   8.213  10.264   2.838  0.7594 -0.1536 -0.0455
 1322SOL    HW2 9287   8.148  10.401   2.834 -1.1020 -0.9713  0.8237
 1323SOL     OW 9288   4.897  11.420  10.414  0.1360 -0.3879  0.0907
 1323SOL    HW1 9289   4.802  11.405  10.408 -0.2981  0.2818  3.3827
 1323SOL    HW2 9290   4.932  11.336  10.443  0.3587 -0.2795  0.1318
 1324SOL     OW 9291   5.179   3.781   5.968 -0.1264 -0.2823 -0.3848
 1324SOL    HW1 9292   5.212   3.711   6.025 -0.2870 -0.1381 -0.1124
 1324SOL    HW2 9293   5.087   3.759   5.953 -1.1659  1.6272  2.4754
 1325SOL     OW 9294   1.659   2.618   5.484 -0.5732  0.7273 -0.1907
 1325SOL    HW1 9295   1.734   2.580   5.438 -0.2965  0.6182  0.3481
 1325SOL    HW2 9296   1.596   2.638   5.414 -1.2006 -1.7010 -0.4456
 1326SOL     OW 9297   6.404   6.543   4.340 -0.5441 -0.3646  0.0097
 1326SOL    HW1 9298   6.399   6.592   4.421  1.6735  0.2666 -0.1770
 1326SOL    HW2 9299   6.497   6.522   4.330 -0.9952 -1.9036 -1.5113
 1327SOL     OW 9300   9.310   2.904   4.181  0.3291 -0.1667  0.0558
 1327SOL    HW1 9301   9.401   2.928   4.165  0.2529 -0.7470 -1.4327
 1327SOL    HW2 9302   9.295   2.925   4.273  1.9228  0.0488  0.2898
 1328SOL     OW 9303   3.109  11.684   5.357  0.2917 -0.3440  0.3371
 1328SOL    HW1 9304   3.118  11.607   5.301  0.2250 -0.9163  1.0959
 1328SOL    HW2 9305   3.159  11.752   5.312 -1.4882 -0.1541 -1.5266
 1329SOL     OW 9306  11.787   1.355   9.686  0.7706  0.1027 -0.7822
 1329SOL    HW1 9307  11.826   1.286   9.632  0.2565 -0.6600 -0.1962
 1329SOL    HW2 9308  11.810   1.331   9.776  0.5158  0.6598 -0.5640
 1330SOL     OW 9309   9.274   8.178   8.685  0.7796  0.4933  0.7853
 1330SOL    HW1 9310   9.326   8.239   8.738  0.5260  2.6196 -1.2251
 1330SOL    HW2 9311   9.195   8.227   8.663  0.9698 -0.1628 -1.6815
 1331SOL     OW 9312   4.529  11.303   1.738 -0.1761 -0.1165  0.0528
 1331SOL    HW1 9313   4.527  11.398   1.743  1.7800  0.1620 -2.3064
 1331SOL    HW2 9314   4.438  11.276   1.750 -0.7977  2.0520  0.6252
 1332SOL     OW 9315   9.450   9.564   5.716 -0.3745  0.3413 -0.4288
 1332SOL    HW1 9316   9.499   9.490   5.751 -1.8631 -0.0569  0.9477
 1332SOL    HW2 9317   9.508   9.602   5.650  1.7861 -0.0759  1.0978
 1333SOL     OW 9318   1.098   5.691   7.118  0.2204 -0.8065 -0.9375
 1333SOL    HW1 9319   1.074   5.601   7.140  1.2350 -0.4506  2.0014
 1333SOL    HW2 9320   1.026   5.744   7.152  0.4496 -0.3972 -1.0885
 1334SOL     OW 9321   4.673  11.295   3.351  0.2124  0.0948 -0.9132
 1334SOL    HW1 9322   4.694  11.229   3.285 -1.1974 -0.5950 -0.7231
 1334SOL    HW2 9323   4.583  11.274   3.377 -0.5598  2.5184 -1.3713
 1335SOL     OW 9324   3.231   3.134   3.094 -0.1836 -0.6288 -0.0557
 1335SOL    HW1 9325   3.208   3.192   3.167 -1.7039 -2.1196  0.7365
 1335SOL    HW2 9326   3.318   3.101   3.116 -0.7320 -1.2708  1.2543
 1336SOL     OW 9327   7.865   2.579   5.314 -0.2387 -0.4693  0.1157
 1336SOL    HW1 9328   7.897   2.567   5.403  1.3645 -1.4386 -0.5433
 1336SOL    HW2 9329   7.899   2.503   5.266  1.0094  1.2072 -1.8468
 1337SOL     OW 9330   7.655   6.532   8.761  0.4967 -0.5225  0.3773
 1337SOL    HW1 9331   7.716   6.480   8.812 -0.4303  0.2766  2.3963
 1337SOL    HW2 9332   7.700   6.614   8.745  0.6463 -0.6390  0.1842
 1338SOL     OW 9333   2.813   7.301   2.027 -0.2969 -0.4407 -0.4622
 1338SOL    HW1 9334   2.733   7.250   2.014 -0.0074 -1.5195  1.4676
 1338SOL    HW2 9335   2.827   7.297   2.122  3.5723 -2.7392 -0.9528
 1339SOL     OW 9336   9.587   9.417  10.827  0.2338  0.3296 -0.2065
 1339SOL    HW1 9337   9.656   9.362  10.866 -0.3763  0.4009  1.0153
 1339SOL    HW2 9338   9.550   9.362  10.758 -0.0816 -0.6559  0.7094
 1340SOL     OW 9339   7.154   0.263   5.006 -0.4962  0.2627 -0.3015
 1340SOL    HW1 9340   7.116   0.299   5.086  1.1606 -0.3314  0.8123
 1340SOL    HW2 9341   7.172   0.171   5.026 -0.4176 -0.0037 -1.4969
 1341SOL     OW 9342   7.762  10.949   1.468 -0.2269 -0.2802 -0.0192
 1341SOL    HW1 9343   7.747  10.856   1.448 -0.6005 -0.0270 -1.0046
 1341SOL    HW2 9344   7.842  10.971   1.421  0.6962 -0.4617  1.4270
 1342SOL     OW 9345   0.073  11.679   5.358  0.1815  1.0576  0.1593
 1342SOL    HW1 9346   0.023  11.760   5.368 -0.9432  0.5276 -0.9340
 1342SOL    HW2 9347   0.125  11.693   5.278 -2.2416 -0.3472 -1.7800
 1343SOL     OW 9348   7.890   9.407   1.808 -0.0867  0.1689  0.1144
 1343SOL    HW1 9349   7.946   9.382   1.881 -0.3523  1.1128  0.6608
 1343SOL    HW2 9350   7.864   9.324   1.768 -0.1539 -0.3755  1.2484
 1344SOL     OW 9351  10.375   1.722   8.757 -0.2523 -1.0114 -0.4107
 1344SOL    HW1 9352  10.415   1.797   8.713  0.6590 -0.2617  1.5855
 1344SOL    HW2 9353  10.282   1.742   8.760 -0.1963 -0.6150 -1.0733
 1345SOL     OW 9354  10.229   6.723   7.915 -0.5173  0.4475  0.1832
 1345SOL    HW1 9355  10.189   6.646   7.955  0.7527 -0.2149  0.2365
 1345SOL    HW2 9356  10.248   6.696   7.825  1.4241  0.0740  0.6459
 1346SOL     OW 9357   3.113  11.544   1.694  0.1000  0.6495 -0.3602
 1346SOL    HW1 9358   3.204  11.569   1.712 -0.3024  1.3596  0.8322
 1346SOL    HW2 9359   3.116  11.450   1.677  1.0316  0.6306 -0.1099
 1347SOL     OW 9360   4.101   7.717   1.437 -0.0841 -0.4003  0.2291
 1347SOL    HW1 9361   4.175   7.773   1.415  0.0828 -1.1547 -1.2339
 1347SOL    HW2 9362   4.026   7.759   1.395 -0.3627 -0.0918  1.0077
 1348SOL     OW 9363   7.242   9.680   8.753 -0.3158 -0.5411  0.1391
 1348SOL    HW1 9364   7.336   9.694   8.748 -0.4034 -0.1144 -0.4219
 1348SOL    HW2 9365   7.206   9.734   8.682 -1.2324  1.7080  2.1917
 1349SOL     OW 9366   8.905  11.308   0.434 -0.6942  0.3452 -0.2253
 1349SOL    HW1 9367   8.814  11.334   0.449 -0.5470  1.1187 -0.6843
 1349SOL    HW2 9368   8.921  11.241   0.501 -1.2666  0.9646  0.5475
 1350SOL     OW 9369   5.624   8.398   8.576  0.1506  0.0660  0.2023
 1350SOL    HW1 9370   5.647   8.309   8.601  1.7438  0.0126 -1.2715
 1350SOL    HW2 9371   5.707   8.446   8.580 -0.6008  1.3960  0.5347
 1351SOL     OW 9372   1.344   6.907   2.654 -0.0018 -0.1207 -0.6312
 1351SOL    HW1 9373   1.338   6.978   2.590  0.4465  0.5601  0.0833
 1351SOL    HW2 9374   1.415   6.851   2.622  1.1889  0.9818  0.0098
 1352SOL     OW 9375   9.794   3.071   9.083 -0.2757 -0.5459 -0.1684
 1352SOL    HW1 9376   9.783   3.164   9.103 -0.6371 -0.4416 -0.8278
 1352SOL    HW2 9377   9.888   3.061   9.071 -0.1726 -0.3846  0.4466
 1353SOL     OW 9378  11.128   7.775   3.152  0.5833 -0.2417  0.2091
 1353SOL    HW1 9379  11.105   7.832   3.079  0.1841  0.0065  0.5239
 1353SOL    HW2 9380  11.152   7.835   3.223  3.2635 -0.4641 -0.3892
 1354SOL     OW 9381   5.576   1.852   1.201  0.0773 -0.1578 -0.2240
 1354SOL    HW1 9382   5.545   1.829   1.113 -1.4073  2.1684 -0.3831
 1354SOL    HW2 9383   5.503   1.827   1.259 -0.3578  1.3760 -0.0819
 1355SOL     OW 9384   9.400   6.030   7.283  0.1001  0.0445  0.2454
 1355SOL    HW1 9385   9.311   6.005   7.260  0.0777  1.5626 -1.6257
 1355SOL    HW2 9386   9.389   6.108   7.338  0.2406  0.3290 -0.1192
 1356SOL     OW 9387   8.517   5.306  11.203 -0.7946 -0.1279 -0.4059
 1356SOL    HW1 9388   8.552   5.331  11.289 -1.5713  1.2381 -0.4562
 1356SOL    HW2 9389   8.500   5.212  11.211  1.5799 -0.5951  0.0386
 1357SOL     OW 9390   4.828   2.564  11.485  0.2504 -0.1444  0.8133
 1357SOL    HW1 9391   4.817   2.469  11.479  1.1634 -0.2897  1.3723
 1357SOL    HW2 9392   4.916   2.577  11.520  0.3639  0.9244  0.1795
 1358SOL     OW 9393   3.995  11.196   8.117 -0.0660 -1.2971 -0.0547
 1358SOL    HW1 9394   4.026  11.144   8.191  2.3618 -0.6944 -0.5310
 1358SOL    HW2 9395   3.951  11.271   8.158  2.2883 -0.3381  0.9350
 1359SOL     OW 9396   1.312   5.530   7.361 -0.5286 -0.0377 -0.1692
 1359SOL    HW1 9397   1.301   5.475   7.283 -0.1185 -3.2696  1.8709
 1359SOL    HW2 9398   1.404   5.559   7.357 -0.4406 -0.3818 -0.7397
 1360SOL     OW 9399   0.266  10.674   1.242 -0.0023 -0.8163  0.4127
 1360SOL    HW1 9400   0.317  10.677   1.161  0.8028 -0.8912  0.9049
 1360SOL    HW2 9401   0.193  10.616   1.223 -0.6193  0.2857 -0.7056
 1361SOL     OW 9402   1.706   7.900   5.105  0.1343  0.3376  0.0899
 1361SOL    HW1 9403   1.793   7.898   5.144  0.2284  1.0423 -0.0783
 1361SOL    HW2 9404   1.647   7.873   5.176  0.6356 -1.9798 -0.2855
 1362SOL     OW 9405   8.843   7.822   5.248  0.1777 -0.3632 -0.3508
 1362SOL    HW1 9406   8.920   7.867   5.212 -0.0726  0.1561 -0.2458
 1362SOL    HW2 9407   8.769   7.875   5.219 -0.1250 -0.7352 -0.2592
 1363SOL     OW 9408   9.227   5.820   0.119  0.4653 -0.1154  0.2809
 1363SOL    HW1 9409   9.144   5.845   0.078  0.2264  0.3818  1.0443
 1363SOL    HW2 9410   9.239   5.728   0.095 -0.0557 -0.0449 -0.2542
 1364SOL     OW 9411   7.987   5.437   8.105  0.6636  0.4497  0.1898
 1364SOL    HW1 9412   8.012   5.492   8.179 -0.4750 -0.7540  1.5405
 1364SOL    HW2 9413   8.036   5.356   8.117 -1.4089 -0.7560  1.1707
 1365SOL     OW 9414   8.163   4.315   0.013  0.1759  0.3621 -0.1778
 1365SOL    HW1 9415   8.228   4.375  -0.024 -1.4181  0.6990 -2.6190
 1365SOL    HW2 9416   8.085   4.370   0.027  0.2019 -0.1283  2.2720
 1366SOL     OW 9417   2.002   1.645   2.546  0.0731  0.4452  0.4665
 1366SOL    HW1 9418   2.061   1.636   2.621 -0.0370  0.8765  0.6061
 1366SOL    HW2 9419   1.916   1.660   2.585 -0.1597 -0.2942  0.2660
 1367SOL     OW 9420   4.920   0.581   4.160 -0.5770  0.1364 -0.2907
 1367SOL    HW1 9421   4.831   0.550   4.172 -1.0626  1.5034 -0.2083
 1367SOL    HW2 9422   4.916   0.674   4.181  1.2873 -0.1466  1.7537
 1368SOL     OW 9423   1.143   0.975   9.959  0.6543  0.5123 -0.6339
 1368SOL    HW1 9424   1.237   0.977   9.944  0.6728  1.0638 -0.4522
 1368SOL    HW2 9425   1.117   1.067   9.964  0.4036  0.3904  1.0850
 1369SOL     OW 9426   1.620   1.139  11.256 -0.0575  0.0820  0.0076
 1369SOL    HW1 9427   1.644   1.065  11.200  0.7918  1.2078 -1.1978
 1369SOL    HW2 9428   1.564   1.101  11.324 -0.1612 -1.5474 -0.9280
 1370SOL     OW 9429   4.326   0.260   4.095 -0.0316  0.3646 -0.1518
 1370SOL    HW1 9430   4.379   0.319   4.149 -1.9650 -0.2637  2.6499
 1370SOL    HW2 9431   4.390   0.205   4.050  1.7693  0.5424  1.9949
 1371SOL     OW 9432   4.394   5.833   1.992  0.5045 -0.3376  0.6460
 1371SOL    HW1 9433   4.395   5.779   1.913 -2.9113  1.1512 -0.6206
 1371SOL    HW2 9434   4.357   5.775   2.059 -2.1772 -0.0514 -0.4448
 1372SOL     OW 9435   4.283   9.935   4.398  0.2293 -0.3217  0.1812
 1372SOL    HW1 9436   4.364   9.885   4.411 -0.4018 -1.4248 -0.0565
 1372SOL    HW2 9437   4.221   9.897   4.460 -0.8769 -1.2616 -1.4427
 1373SOL     OW 9438   9.022   5.196  11.068 -0.0980  0.2773  0.0693
 1373SOL    HW1 9439   9.085   5.153  11.126  1.7551  1.1152 -1.2532
 1373SOL    HW2 9440   8.969   5.250  11.127  0.2207 -0.6417  1.2421
 1374SOL     OW 9441   0.796  11.041   6.117  0.1277  0.1843 -0.7219
 1374SOL    HW1 9442   0.889  11.028   6.137 -0.0601 -0.3451 -0.1427
 1374SOL    HW2 9443   0.769  10.959   6.076 -0.2743  0.0187 -0.1365
 1375SOL     OW 9444   6.457   7.434   0.667  0.1271 -0.2393  0.2938
 1375SOL    HW1 9445   6.535   7.395   0.627 -1.7793 -0.7568 -3.3674
 1375SOL    HW2 9446   6.395   7.362   0.673 -1.0791  0.7507  0.1744
 1376SOL     OW 9447  10.584   7.426   5.186  0.5273  0.2581 -0.0788
 1376SOL    HW1 9448  10.583   7.498   5.123  0.4388 -0.7116 -1.2358
 1376SOL    HW2 9449  10.637   7.457   5.258  0.9999  1.2540 -0.8384
 1377SOL     OW 9450   8.538  10.134   0.684  0.7028  0.5215  0.1966
 1377SOL    HW1 9451   8.462  10.182   0.717  0.7597  2.3361 -2.0349
 1377SOL    HW2 9452   8.595  10.123   0.760 -1.5549 -0.5673  1.8506
 1378SOL     OW 9453   5.093   4.014   4.429 -0.2928  0.3314  0.2170
 1378SOL    HW1 9454   5.124   4.077   4.494 -0.9266  0.6895  0.1703
 1378SOL    HW2 9455   5.133   4.043   4.347 -0.9743  0.9718  0.1002
 1379SOL     OW 9456   4.004   4.513   6.283  0.4339  0.1695  0.2832
 1379SOL    HW1 9457   3.995   4.487   6.191 -1.5388 -2.9507  1.2198
 1379SOL    HW2 9458   3.992   4.608   6.282 -2.3134 -0.0539 -2.4114
 1380SOL     OW 9459   9.077   4.050   8.973  0.4211  0.3590 -0.1756
 1380SOL    HW1 9460   9.015   4.061   8.901  0.0180  0.3387  0.1604
 1380SOL    HW2 9461   9.131   3.975   8.947  1.0700  1.1044 -0.9991
 1381SOL     OW 9462   4.069   1.092   2.702  0.3262 -0.4079 -0.2310
 1381SOL    HW1 9463   4.143   1.043   2.666  0.5856  1.0367 -1.7430
 1381SOL    HW2 9464   4.078   1.081   2.797  3.0872  0.5506 -0.2912
 1382SOL     OW 9465   1.228   6.941   2.210  0.0272 -0.6629 -0.3863
 1382SOL    HW1 9466   1.203   6.986   2.129 -3.3393  0.1448  0.9194
 1382SOL    HW2 9467   1.270   7.009   2.262 -0.3009 -0.4221 -0.4282
 1383SOL     OW 9468   4.709   7.995   1.056  0.5564 -0.1549 -0.3483
 1383SOL    HW1 9469   4.763   8.073   1.044  0.5655  0.1066  1.2551
 1383SOL    HW2 9470   4.768   7.931   1.095  1.0002 -1.5893 -3.0889
 1384SOL     OW 9471  11.017   6.720  10.456 -0.3179  0.6278 -0.2088
 1384SOL    HW1 9472  11.015   6.625  10.473  1.1464  0.3859 -1.2274
 1384SOL    HW2 9473  10.926   6.748  10.468 -1.0051 -1.1114 -1.0084
 1385SOL     OW 9474  10.650   2.037   0.607  0.1268 -0.4690 -0.0634
 1385SOL    HW1 9475  10.597   1.968   0.566 -0.3022 -0.2587  0.1356
 1385SOL    HW2 9476  10.588   2.105   0.630  0.6930  0.5489 -1.3720
 1386SOL     OW 9477   8.699   3.399   3.110  0.0393  0.7527  0.3236
 1386SOL    HW1 9478   8.766   3.464   3.130  0.5817  0.0023  1.0685
 1386SOL    HW2 9479   8.671   3.367   3.196 -1.7447  1.4992  0.0545
 1387SOL     OW 9480   8.010   5.350   0.246 -0.1965  0.6673  0.2237
 1387SOL    HW1 9481   7.991   5.437   0.211 -0.6639  0.4163 -0.1623
 1387SOL    HW2 9482   8.078   5.364   0.312 -1.5573  1.5784  1.4838
 1388SOL     OW 9483   6.353   2.570  11.146  0.3629 -0.3146 -0.2355
 1388SOL    HW1 9484   6.433   2.591  11.194  0.5646 -1.0433 -0.2416
 1388SOL    HW2 9485   6.283   2.605  11.201  0.6554 -0.2011  0.0691
 1389SOL     OW 9486   5.276   3.998   8.898  0.0841 -0.5376  0.0315
 1389SOL    HW1 9487   5.228   4.081   8.902 -1.4499 -1.4282  1.1927
 1389SOL    HW2 9488   5.368   4.023   8.886 -0.4791  1.2785 -0.7711
 1390SOL     OW 9489   1.942   9.044   1.084  0.2109 -0.5305 -0.1382
 1390SOL    HW1 9490   1.857   9.077   1.114  0.3054 -1.1170  0.8181
 1390SOL    HW2 9491   1.985   9.120   1.047  0.8388  0.7708  2.9342
 1391SOL     OW 9492   9.833   0.698   1.334  0.1175 -0.4338  0.2104
 1391SOL    HW1 9493   9.805   0.714   1.244  1.5317 -0.3229 -0.2334
 1391SOL    HW2 9494   9.777   0.626   1.363  0.6066 -1.4734 -1.2652
 1392SOL     OW 9495   1.310  11.113   1.025 -0.1968 -0.0623  0.4000
 1392SOL    HW1 9496   1.218  11.104   1.049 -0.2420 -0.2053  0.1741
 1392SOL    HW2 9497   1.310  11.116   0.929 -0.0763  1.0832  0.4127
 1393SOL     OW 9498   1.647   3.484   3.176  0.3834 -0.4609  0.1108
 1393SOL    HW1 9499   1.639   3.414   3.111  3.2349  0.5221 -1.4991
 1393SOL    HW2 9500   1.728   3.530   3.152 -0.1412  1.9799  2.4691
 1394SOL     OW 9501   1.601   3.168  10.784 -0.3981  0.4318  0.4793
 1394SOL    HW1 9502   1.546   3.245  10.766 -0.2586 -0.0498 -2.4631
 1394SOL    HW2 9503   1.541   3.094  10.779  0.2607 -0.0266 -1.9611
 1395SOL     OW 9504  10.539   6.019   1.110  0.1314 -0.4563  0.3299
 1395SOL    HW1 9505  10.619   5.984   1.149 -0.0225 -1.8513 -0.5023
 1395SOL    HW2 9506  10.540   6.112   1.130  1.6732 -0.5592  0.8247
 1396SOL     OW 9507  11.546   1.971   7.972  0.6094 -0.6266 -0.9693
 1396SOL    HW1 9508  11.608   1.982   7.900  0.3520  0.6155 -1.0114
 1396SOL    HW2 9509  11.460   1.983   7.933  0.5338  2.0868 -0.1339
 1397SOL     OW 9510   2.462   0.983   3.162 -0.4733 -0.2732 -0.5692
 1397SOL    HW1 9511   2.506   1.011   3.082 -1.0133  0.2446 -0.6959
 1397SOL    HW2 9512   2.374   1.021   3.156  0.1764  1.7331  1.3166
 1398SOL     OW 9513   3.917   0.610   5.386  0.0859  0.1450 -0.2751
 1398SOL    HW1 9514   3.859   0.686   5.378  0.5834  0.5962  0.3113
 1398SOL    HW2 9515   3.984   0.623   5.319  1.4907  1.4404  1.2836
 1399SOL     OW 9516   6.278   8.437   2.679  0.2181 -0.3717 -0.5039
 1399SOL    HW1 9517   6.349   8.398   2.729 -0.4708 -0.0618  0.7616
 1399SOL    HW2 9518   6.199   8.415   2.729 -0.3656  1.0271 -0.7622
 1400SOL     OW 9519   5.941   5.031   9.297  0.7157 -0.4509  0.5723
 1400SOL    HW1 9520   5.882   5.090   9.344  1.3809  0.3781  0.3987
 1400SOL    HW2 9521   5.889   4.994   9.227  0.1634 -0.4231  0.9643
 1401SOL     OW 9522   9.116   7.728  10.611 -0.2420 -0.6061  0.1692
 1401SOL    HW1 9523   9.137   7.742  10.519  0.3999 -0.9324  0.2573
 1401SOL    HW2 9524   9.158   7.644  10.632  0.6233  0.0247  1.0583
 1402SOL     OW 9525  10.029   9.382  11.322  0.4452  0.1517 -0.1257
 1402SOL    HW1 9526   9.937   9.407  11.315  0.3946  0.4020  1.1649
 1402SOL    HW2 9527  10.075   9.465  11.335  0.6669 -0.0944  0.7446
 1403SOL     OW 9528   4.788   9.758   4.496  0.0952  0.4964  0.0406
 1403SOL    HW1 9529   4.758   9.676   4.536  2.1930 -0.5085 -0.3048
 1403SOL    HW2 9530   4.800   9.818   4.569 -1.5660  0.5546  0.2876
 1404SOL     OW 9531   6.659   9.722  11.381  0.4017 -0.2565  0.1160
 1404SOL    HW1 9532   6.688   9.633  11.403  1.5856  0.4721  1.6838
 1404SOL    HW2 9533   6.566   9.712  11.358  1.0565 -2.2005 -1.9825
 1405SOL     OW 9534   8.908   0.370   1.632 -0.4090  0.2619  0.5110
 1405SOL    HW1 9535   8.891   0.295   1.689 -1.1220  0.7963  1.0240
 1405SOL    HW2 9536   8.917   0.444   1.692  1.2083  0.4570  0.0740
 1406SOL     OW 9537   3.956   0.384   5.570  0.2092 -0.0454 -0.3333
 1406SOL    HW1 9538   3.948   0.464   5.517 -3.0116  0.4763  0.7109
 1406SOL    HW2 9539   4.048   0.381   5.595  1.8234  0.0539 -5.2065
 1407SOL     OW 9540   7.276  11.151   3.835 -0.1622 -0.3528  0.4734
 1407SOL    HW1 9541   7.291  11.062   3.868  1.3158  0.1676  1.3204
 1407SOL    HW2 9542   7.334  11.158   3.760 -1.0221 -0.4125 -0.2103
 1408SOL     OW 9543   2.706   7.534   4.814  0.1008 -0.2582  0.1357
 1408SOL    HW1 9544   2.693   7.593   4.741 -0.6151 -0.7628 -0.1612
 1408SOL    HW2 9545   2.657   7.573   4.886 -1.9548 -1.3895 -0.5679
 1409SOL     OW 9546   0.129   8.211   5.134 -0.0114 -0.9157 -0.2105
 1409SOL    HW1 9547   0.118   8.281   5.199 -2.3179 -2.4627  1.2046
 1409SOL    HW2 9548   0.101   8.251   5.052 -1.7412 -0.2375  0.6432
 1410SOL     OW 9549   5.718   7.090   1.066 -0.2323 -0.1239  0.1717
 1410SOL    HW1 9550   5.710   7.103   1.160  1.7067  0.3067  0.3135
 1410SOL    HW2 9551   5.811   7.075   1.051 -0.3356  0.8410 -1.8118
 1411SOL     OW 9552   3.955   0.879   5.180 -0.8041 -0.5584 -0.2524
 1411SOL    HW1 9553   3.962   0.936   5.103 -1.1841 -2.1848 -1.5586
 1411SOL    HW2 9554   4.022   0.912   5.241 -0.5528  0.8266 -1.2297
 1412SOL     OW 9555   6.935  10.538   3.158 -0.6563  0.4875  0.4170
 1412SOL    HW1 9556   6.849  10.532   3.116 -0.5880 -1.6352  0.4703
 1412SOL    HW2 9557   6.977  10.613   3.116 -1.5704  0.0148 -1.4671
 1413SOL     OW 9558   2.536   6.206   2.969  0.0488  0.0944 -0.1075
 1413SOL    HW1 9559   2.452   6.161   2.975  0.9028 -1.5655 -0.2250
 1413SOL    HW2 9560   2.517   6.282   2.913 -1.8334  0.9905  1.6038
 1414SOL     OW 9561  10.145   1.231   1.047 -0.1937  0.0557 -0.2444
 1414SOL    HW1 9562  10.100   1.260   0.968 -3.8190 -2.3869  0.7076
 1414SOL    HW2 9563  10.159   1.137   1.035  1.1225  0.0091  1.2041
 1415SOL     OW 9564   3.730  11.520   0.693  0.5521  0.5732  0.3663
 1415SOL    HW1 9565   3.774  11.591   0.740  0.1913  0.6207  0.6326
 1415SOL    HW2 9566   3.714  11.453   0.759  0.3021  0.5162  0.2497
 1416SOL     OW 9567   5.794   1.122   8.889 -1.0676 -0.0678  0.9524
 1416SOL    HW1 9568   5.771   1.085   8.974  0.5452 -2.3517  0.5074
 1416SOL    HW2 9569   5.841   1.202   8.909 -2.0722  0.2641  2.1126
 1417SOL     OW 9570  10.753   2.140   9.152  0.3816  0.0426 -0.0952
 1417SOL    HW1 9571  10.841   2.139   9.113  1.1636 -1.8971  1.5786
 1417SOL    HW2 9572  10.743   2.054   9.192 -2.5904 -0.0356 -0.7941
 1418SOL     OW 9573   2.490   8.918   9.069  0.6857  0.2720  0.1376
 1418SOL    HW1 9574   2.584   8.918   9.050  1.2580 -1.1403  2.5520
 1418SOL    HW2 9575   2.470   9.009   9.089  1.2496  0.7906 -1.4498
 1419SOL     OW 9576   3.666   5.255   9.058  0.3653 -0.3103 -0.3157
 1419SOL    HW1 9577   3.722   5.190   9.101  0.1343 -1.0944 -1.1684
 1419SOL    HW2 9578   3.720   5.289   8.986 -0.0101 -0.5652 -0.7192
 1420SOL     OW 9579  10.721   2.769   2.128 -0.4677  0.3830  0.0135
 1420SOL    HW1 9580  10.627   2.773   2.107 -0.9109 -2.1430  1.1272
 1420SOL    HW2 9581  10.758   2.718   2.056  0.1499  1.7227 -0.6329
 1421SOL     OW 9582   1.752   8.251   3.528  0.1669 -0.3370  1.0769
 1421SOL    HW1 9583   1.784   8.314   3.464 -1.2640  1.6467  2.2307
 1421SOL    HW2 9584   1.820   8.249   3.596  1.7697 -2.5702 -0.4396
 1422SOL     OW 9585  10.380   9.596   9.567 -0.1729 -1.1552  0.2194
 1422SOL    HW1 9586  10.432   9.625   9.643 -0.1555 -2.2307  0.6379
 1422SOL    HW2 9587  10.446   9.572   9.502 -0.1891  0.0193 -0.2522
 1423SOL     OW 9588   7.155   7.189   9.695  0.6743 -0.6742  0.2177
 1423SOL    HW1 9589   7.090   7.188   9.766 -1.6032 -1.6553 -1.7200
 1423SOL    HW2 9590   7.183   7.280   9.689 -1.9654  0.2184 -0.0170
 1424SOL     OW 9591   2.553  10.131   8.097 -0.7247  0.0986  0.0561
 1424SOL    HW1 9592   2.576  10.224   8.107  0.7447 -0.1735 -0.5892
 1424SOL    HW2 9593   2.574  10.092   8.182  0.0387  0.0969 -0.1260
 1425SOL     OW 9594   9.258   6.813  10.399 -0.2277 -0.2772 -0.7972
 1425SOL    HW1 9595   9.183   6.867  10.426 -1.2208 -1.3692 -1.2539
 1425SOL    HW2 9596   9.326   6.833  10.462 -1.2949 -0.0856  0.3382
 1426SOL     OW 9597   9.786   8.455  11.467  0.3160  0.0184 -0.1572
 1426SOL    HW1 9598   9.744   8.540  11.456  1.0846  0.9087  2.8107
 1426SOL    HW2 9599   9.879   8.476  11.477  0.3798 -0.9862  1.8475
 1427SOL     OW 9600   0.067   6.599   7.643  0.0609  0.6155 -0.6779
 1427SOL    HW1 9601   0.011   6.522   7.647  0.4799  0.3442  1.1181
 1427SOL    HW2 9602   0.116   6.589   7.561 -0.4154 -0.6472 -0.8316
 1428SOL     OW 9603   2.469   2.849   7.907  0.0820  0.2758 -0.3768
 1428SOL    HW1 9604   2.548   2.803   7.877  0.5055  1.2126 -0.7252
 1428SOL    HW2 9605   2.400   2.783   7.901  0.0871  0.3938 -3.6244
 1429SOL     OW 9606   5.014   1.493   0.356  0.0434 -0.4515 -0.1029
 1429SOL    HW1 9607   5.032   1.541   0.275  1.9591  1.8749  1.5585
 1429SOL    HW2 9608   5.016   1.401   0.330 -1.6612  0.2219 -3.0545
 1430SOL     OW 9609   3.857   4.319  10.357  0.2411  0.2650 -0.0054
 1430SOL    HW1 9610   3.814   4.306  10.273 -1.2864  1.6253  0.5158
 1430SOL    HW2 9611   3.933   4.373  10.337 -0.6514  1.3981 -0.3961
 1431SOL     OW 9612  11.492   4.616   0.289 -0.3704  0.2444 -0.7902
 1431SOL    HW1 9613  11.478   4.544   0.227 -2.3957  0.1370 -0.3048
 1431SOL    HW2 9614  11.586   4.619   0.302 -0.2021 -2.2462 -0.9189
 1432SOL     OW 9615   4.869   1.341  10.717  0.1248  0.4811 -0.4781
 1432SOL    HW1 9616   4.884   1.252  10.685 -1.0954  0.0237  0.1399
 1432SOL    HW2 9617   4.906   1.398  10.650 -0.8846 -0.4630 -1.8876
 1433SOL     OW 9618   7.331  11.628   8.239  0.5686  0.4531 -0.1291
 1433SOL    HW1 9619   7.267  11.566   8.276  0.5024  0.6368  0.0630
 1433SOL    HW2 9620   7.278  11.690   8.188  0.5683  0.7635  0.2501
 1434SOL     OW 9621   5.127   1.889   4.552 -0.2501  0.1771 -0.5857
 1434SOL    HW1 9622   5.122   1.800   4.587 -2.4015  1.2545  2.2058
 1434SOL    HW2 9623   5.212   1.922   4.583 -1.2065  0.3845  1.9925
 1435SOL     OW 9624   1.347   7.820   9.726 -0.4472 -0.4879  0.0318
 1435SOL    HW1 9625   1.428   7.797   9.771 -0.1559 -1.0679 -0.7753
 1435SOL    HW2 9626   1.328   7.744   9.670  1.0154  1.4274 -3.4056
 1436SOL     OW 9627   4.399   2.274   0.815 -0.5700  0.8362  0.5539
 1436SOL    HW1 9628   4.426   2.196   0.766 -2.3738  0.5002  0.0124
 1436SOL    HW2 9629   4.358   2.240   0.894 -1.0588  1.2459  0.4831
 1437SOL     OW 9630   3.248   7.715   4.346  0.0280  0.3260 -0.6520
 1437SOL    HW1 9631   3.197   7.793   4.322 -0.1208 -0.1220 -1.8628
 1437SOL    HW2 9632   3.199   7.642   4.309 -0.0076 -0.3894  0.7570
 1438SOL     OW 9633   7.907   2.751   0.364  0.4498  0.4634  0.2124
 1438SOL    HW1 9634   7.901   2.682   0.298  1.0451 -0.2972  0.9415
 1438SOL    HW2 9635   7.824   2.744   0.412  0.6089  0.1033  0.4352
 1439SOL     OW 9636   8.436   3.612   2.166  0.0764 -0.1567 -0.4272
 1439SOL    HW1 9637   8.467   3.694   2.126 -0.1559 -0.8700 -2.1884
 1439SOL    HW2 9638   8.350   3.633   2.201  0.4185  0.5850 -0.0059
 1440SOL     OW 9639  11.686   4.538   9.663  0.0557 -0.0745 -0.7344
 1440SOL    HW1 9640  11.632   4.616   9.653  1.3517  0.9255 -0.3470
 1440SOL    HW2 9641  11.759   4.551   9.602  0.5350 -0.7465 -0.3287
 1441SOL     OW 9642   4.430   5.503   6.895 -0.2402 -0.0450  0.0324
 1441SOL    HW1 9643   4.407   5.480   6.985 -1.2958  1.5780  0.2058
 1441SOL    HW2 9644   4.455   5.419   6.855  0.2774 -0.7947  1.8143
 1442SOL     OW 9645   4.197  10.784   1.160  0.5015 -0.2032 -0.2175
 1442SOL    HW1 9646   4.211  10.845   1.088  0.9964  0.7487  0.6597
 1442SOL    HW2 9647   4.284  10.771   1.198  0.2252 -0.5653  0.3079
 1443SOL     OW 9648   9.282  11.220   2.620  0.0794  0.3435 -0.1003
 1443SOL    HW1 9649   9.367  11.201   2.660  0.3925  0.5097 -0.6731
 1443SOL    HW2 9650   9.304  11.252   2.533 -0.6297 -1.0079 -0.7916
 1444SOL     OW 9651   3.930   6.694  10.543  0.0174  0.2165 -0.0556
 1444SOL    HW1 9652   3.891   6.639  10.475 -0.7758 -0.8462  1.1830
 1444SOL    HW2 9653   3.867   6.688  10.616  1.8218 -0.4235  1.5267
 1445SOL     OW 9654   2.135   3.098  11.253 -0.2442 -0.0374 -0.0484
 1445SOL    HW1 9655   2.215   3.072  11.298 -0.1478  0.4842  0.0876
 1445SOL    HW2 9656   2.069   3.103  11.321 -0.3370 -0.2292 -0.1227
 1446SOL     OW 9657   7.820   5.810  10.813  0.0016  0.0765  0.3661
 1446SOL    HW1 9658   7.894   5.763  10.775  0.3609  0.0304  1.1104
 1446SOL    HW2 9659   7.788   5.865  10.742  1.4648  0.9540  0.3360
 1447SOL     OW 9660   5.461   5.753   3.903  0.4913 -0.9484 -0.2091
 1447SOL    HW1 9661   5.408   5.748   3.982  0.9269  0.5890  0.2271
 1447SOL    HW2 9662   5.551   5.748   3.934  0.7583  1.8064 -0.3011
 1448SOL     OW 9663   8.539   3.250   9.291 -0.0242 -0.3579 -0.0575
 1448SOL    HW1 9664   8.454   3.287   9.266 -0.1637 -1.7976 -2.0250
 1448SOL    HW2 9665   8.603   3.300   9.240  0.0296 -0.9685 -0.6128
 1449SOL     OW 9666   5.289   5.562   3.783 -0.1876  0.1753  0.0263
 1449SOL    HW1 9667   5.311   5.541   3.692 -1.8720 -2.3418  0.1125
 1449SOL    HW2 9668   5.349   5.633   3.806  1.8786 -0.6737 -2.2944
 1450SOL     OW 9669   9.062  10.998   9.705 -0.2855 -0.1750  0.1698
 1450SOL    HW1 9670   9.055  10.903   9.705  0.9229 -0.3069  1.4875
 1450SOL    HW2 9671   9.138  11.016   9.761  0.4159  1.5070 -1.2363
 1451SOL     OW 9672   3.828   2.404   6.324  0.4462 -0.1886  0.7186
 1451SOL    HW1 9673   3.748   2.456   6.324 -0.5348 -1.6009  1.8018
 1451SOL    HW2 9674   3.887   2.450   6.384  1.0933  1.6779 -1.2291
 1452SOL     OW 9675   5.144  10.623   6.061  0.0006 -0.7277  0.9362
 1452SOL    HW1 9676   5.151  10.536   6.100  1.4446 -0.7801  0.6392
 1452SOL    HW2 9677   5.232  10.659   6.069 -0.8904  1.2953  2.3490
 1453SOL     OW 9678   6.486   9.251   9.577  0.2428 -0.2226  0.3486
 1453SOL    HW1 9679   6.392   9.254   9.564  0.1329 -0.7495  1.0090
 1453SOL    HW2 9680   6.521   9.306   9.507 -0.5302 -0.2965 -0.1078
 1454SOL     OW 9681   6.997   7.177   7.346  0.4541 -0.7042  0.1130
 1454SOL    HW1 9682   7.087   7.183   7.315  0.0055  0.4211 -1.0728
 1454SOL    HW2 9683   6.946   7.225   7.281 -0.6916  0.8947  2.0847
 1455SOL     OW 9684   9.598   8.913   5.643 -0.0401 -0.3784  0.4067
 1455SOL    HW1 9685   9.534   8.871   5.701 -0.3062  0.1249  0.4772
 1455SOL    HW2 9686   9.588   8.868   5.559  2.1797 -3.0123  1.3733
 1456SOL     OW 9687   1.403  11.186   6.046  0.4815 -0.9334  0.5015
 1456SOL    HW1 9688   1.321  11.193   5.998  1.5467 -0.9041 -1.4253
 1456SOL    HW2 9689   1.447  11.109   6.008  2.4692  0.5579 -0.4161
 1457SOL     OW 9690  11.083   3.726  10.116 -0.5306 -0.3190  0.1964
 1457SOL    HW1 9691  11.045   3.747  10.031 -1.8449 -2.1673  0.2701
 1457SOL    HW2 9692  11.135   3.803  10.138  1.3489 -0.4660 -3.0761
 1458SOL     OW 9693   6.784   6.358   7.125 -0.2022 -0.0206  0.2092
 1458SOL    HW1 9694   6.706   6.310   7.154 -0.1371  0.0856  0.5625
 1458SOL    HW2 9695   6.795   6.427   7.190 -0.8988  1.1337 -0.8489
 1459SOL     OW 9696   7.014   3.994   9.527 -0.6427 -0.0217  0.5664
 1459SOL    HW1 9697   6.955   4.068   9.541 -0.7624  0.1788 -0.8434
 1459SOL    HW2 9698   7.081   4.029   9.468 -2.3934 -1.7716 -2.7654
 1460SOL     OW 9699   2.635   3.097   0.411  0.0423 -0.8303 -0.4988
 1460SOL    HW1 9700   2.550   3.122   0.446 -0.9564  0.2465 -3.4739
 1460SOL    HW2 9701   2.698   3.135   0.473 -1.4899 -2.5255  2.3523
 1461SOL     OW 9702   5.223   5.656   6.154 -0.4678  0.2269  0.2439
 1461SOL    HW1 9703   5.206   5.610   6.072  2.2669 -1.0373  0.2880
 1461SOL    HW2 9704   5.172   5.608   6.220 -3.1938  1.6347 -0.6871
 1462SOL     OW 9705   2.120   6.133   6.980  0.0007  0.1232  0.4954
 1462SOL    HW1 9706   2.055   6.095   7.039 -0.4230  0.4809  0.2565
 1462SOL    HW2 9707   2.203   6.120   7.026 -0.4692  1.7594  1.9176
 1463SOL     OW 9708   3.133   0.330   9.368 -0.1109 -0.1532  0.3387
 1463SOL    HW1 9709   3.209   0.292   9.412 -0.0414  0.3308  0.6406
 1463SOL    HW2 9710   3.087   0.377   9.436  0.4396  1.3025 -0.2527
 1464SOL     OW 9711  11.511   9.467   9.384  0.4003  0.6408  0.3396
 1464SOL    HW1 9712  11.540   9.382   9.416  1.3071  0.3842 -1.0824
 1464SOL    HW2 9713  11.446   9.496   9.449  1.3716 -0.3080  1.7967
 1465SOL     OW 9714   2.667   2.781   2.213 -0.4085 -0.9003  0.0517
 1465SOL    HW1 9715   2.758   2.751   2.202  0.0478  0.5157 -0.1920
 1465SOL    HW2 9716   2.634   2.730   2.287  1.6160  0.7670  2.2486
 1466SOL     OW 9717   5.359   4.338   2.460 -0.3821 -0.2092  0.0658
 1466SOL    HW1 9718   5.360   4.286   2.540 -2.1561  1.0602  0.9965
 1466SOL    HW2 9719   5.367   4.274   2.390  0.5099 -1.4191  1.2281
 1467SOL     OW 9720   3.748   3.510   5.118 -0.1164  0.4351  0.0853
 1467SOL    HW1 9721   3.661   3.511   5.158 -0.7057  1.7183 -1.1305
 1467SOL    HW2 9722   3.739   3.454   5.041 -0.2503  1.5979 -0.7747
 1468SOL     OW 9723   4.435  11.622   7.780  0.1103  0.3592 -0.2458
 1468SOL    HW1 9724   4.413  11.585   7.866  0.9559  0.4348  0.0077
 1468SOL    HW2 9725   4.530  11.618   7.776  0.0696  0.2040 -1.2554
 1469SOL     OW 9726   1.638   3.268   8.775  0.0069 -0.0616 -0.0516
 1469SOL    HW1 9727   1.704   3.270   8.706 -1.2436 -0.3708 -1.3168
 1469SOL    HW2 9728   1.557   3.293   8.731 -0.8415 -0.2922  1.3189
 1470SOL     OW 9729   8.631   7.666   9.629  0.3857  0.4003  0.5106
 1470SOL    HW1 9730   8.607   7.707   9.546  0.6497 -0.4620 -0.0023
 1470SOL    HW2 9731   8.714   7.623   9.611  0.6140  0.4967  1.3207
 1471SOL     OW 9732   0.065   4.604  11.080  0.3031  0.2274 -0.2179
 1471SOL    HW1 9733   0.042   4.601  10.987  2.2295  1.0989 -0.7715
 1471SOL    HW2 9734   0.159   4.583  11.082  0.2756  0.1393  1.5506
 1472SOL     OW 9735   4.109  10.738   9.863 -0.2504  0.0530  0.2291
 1472SOL    HW1 9736   4.042  10.784   9.913  0.7791  1.7193  0.1749
 1472SOL    HW2 9737   4.191  10.781   9.889  0.6220 -0.9634 -0.7601
 1473SOL     OW 9738   7.080   1.174   6.113 -0.2808 -0.1660  0.0932
 1473SOL    HW1 9739   7.114   1.148   6.199 -0.7205  1.0354  0.6513
 1473SOL    HW2 9740   7.054   1.092   6.072  2.1661 -1.0481  0.1064
 1474SOL     OW 9741   3.225   4.400   1.464 -0.1801  0.0603  0.1221
 1474SOL    HW1 9742   3.215   4.495   1.452 -0.9754 -0.2520 -2.5204
 1474SOL    HW2 9743   3.141   4.372   1.499  0.3361  0.3951  1.6863
 1475SOL     OW 9744   7.545   9.354   9.808 -0.2012  0.1595  0.9081
 1475SOL    HW1 9745   7.513   9.406   9.734 -1.7316  1.1065  2.1629
 1475SOL    HW2 9746   7.501   9.269   9.798 -0.5155  0.3333  0.8002
 1476SOL     OW 9747   2.355   4.045   4.409  0.0705 -0.1228  0.0270
 1476SOL    HW1 9748   2.396   4.098   4.477  0.5459 -0.6434  0.1508
 1476SOL    HW2 9749   2.349   4.103   4.333 -1.7181  0.9099  0.8987
 1477SOL     OW 9750   9.892  11.689   8.558 -0.3276 -0.1619  0.3892
 1477SOL    HW1 9751   9.806  11.732   8.558  0.6598  1.9349  0.7858
 1477SOL    HW2 9752   9.935  11.720   8.638  1.2247 -0.2550 -0.3647
 1478SOL     OW 9753   0.202   6.925   7.202 -0.1926 -0.3514  0.0400
 1478SOL    HW1 9754   0.167   6.837   7.191 -2.6447  0.5400  0.0759
 1478SOL    HW2 9755   0.217   6.956   7.112  0.6288 -0.7542  0.0270
 1479SOL     OW 9756  10.720   5.943   0.536 -0.1333  0.2080 -0.1193
 1479SOL    HW1 9757  10.678   5.874   0.588  1.0875  0.3168  1.0767
 1479SOL    HW2 9758  10.667   6.021   0.552 -1.9757 -0.5532 -2.0812
 1480SOL     OW 9759   0.279   5.695   1.046 -0.1817  0.1342  0.0783
 1480SOL    HW1 9760   0.184   5.696   1.032 -0.1624  0.4287 -0.0426
 1480SOL    HW2 9761   0.290   5.663   1.135 -0.4590  1.2835  0.5496
 1481SOL     OW 9762  10.800   7.003   3.033  0.2463  0.5270  0.0208
 1481SOL    HW1 9763  10.812   7.000   2.938  1.3036  0.0535  0.1522
 1481SOL    HW2 9764  10.812   7.096   3.055  0.0092  0.6365 -0.3066
 1482SOL     OW 9765   2.053   6.425   7.782 -0.4052 -0.0494  0.5385
 1482SOL    HW1 9766   2.148   6.429   7.793 -0.3685  0.1016  0.1710
 1482SOL    HW2 9767   2.040   6.388   7.695 -0.6920 -0.6119  0.8117
 1483SOL     OW 9768   4.915   9.001   6.553 -0.1700  0.3334 -0.2728
 1483SOL    HW1 9769   4.977   9.049   6.608  0.6775 -0.5426 -0.4303
 1483SOL    HW2 9770   4.831   9.012   6.597 -0.0178  1.9895 -0.3482
 1484SOL     OW 9771   0.642  11.459  10.993  0.2639  0.4285 -0.1985
 1484SOL    HW1 9772   0.697  11.401  11.044 -0.1821  0.3860  0.2512
 1484SOL    HW2 9773   0.629  11.415  10.909 -1.9837 -1.2867  0.9431
 1485SOL     OW 9774   0.358   8.326   5.745  0.0246 -0.2844  0.1841
 1485SOL    HW1 9775   0.449   8.351   5.756  0.3144 -1.2997  0.2345
 1485SOL    HW2 9776   0.338   8.349   5.654  0.4512 -0.3949  0.0584
 1486SOL     OW 9777   9.559  10.137   0.601 -0.0405 -0.1824  0.1761
 1486SOL    HW1 9778   9.477  10.130   0.551 -0.3847 -0.8971  0.8338
 1486SOL    HW2 9779   9.543  10.208   0.663 -0.7838 -1.4139  1.4356
 1487SOL     OW 9780   2.596   8.116   6.938 -0.8216  0.0631  0.2050
 1487SOL    HW1 9781   2.611   8.031   6.979  0.3755 -0.4081 -1.1288
 1487SOL    HW2 9782   2.572   8.174   7.011  0.4560 -0.9171  1.4592
 1488SOL     OW 9783   8.285   9.476   4.212 -0.0496 -0.0707  0.3049
 1488SOL    HW1 9784   8.282   9.499   4.119 -0.6725 -1.8755 -0.1538
 1488SOL    HW2 9785   8.200   9.438   4.230  0.2063 -0.1036  1.5333
 1489SOL     OW 9786   2.801   3.852   9.616  0.1669 -0.0179  0.0980
 1489SOL    HW1 9787   2.893   3.876   9.603  0.1489 -0.3581 -0.7498
 1489SOL    HW2 9788   2.754   3.903   9.550 -0.0656 -1.0332 -0.5388
 1490SOL     OW 9789   1.054  10.149   2.114 -0.4095 -0.5112  0.0511
 1490SOL    HW1 9790   0.981  10.130   2.174 -1.3964  1.9165 -0.2732
 1490SOL    HW2 9791   1.030  10.232   2.073  1.5848 -0.7046 -1.6378
 1491SOL     OW 9792   7.969   2.980   9.024 -0.1702 -0.3934 -0.1452
 1491SOL    HW1 9793   7.962   3.007   8.932 -1.1758  2.9999  0.7901
 1491SOL    HW2 9794   7.904   2.910   9.033 -2.3997  1.3705 -1.3882
 1492SOL     OW 9795   7.286   8.431  10.136 -0.0076  0.1481 -0.0359
 1492SOL    HW1 9796   7.260   8.500  10.075 -1.6506 -0.8251 -0.5054
 1492SOL    HW2 9797   7.220   8.434  10.205  1.6868  1.0754  1.6501
 1493SOL     OW 9798   4.907   3.009   3.262  0.3018 -0.2047 -0.5007
 1493SOL    HW1 9799   4.828   3.051   3.298  0.6173 -0.6960  0.8441
 1493SOL    HW2 9800   4.968   3.081   3.247 -0.5102  0.2255 -1.9092
 1494SOL     OW 9801  10.949   8.380   8.402  0.3552  0.1537  0.1225
 1494SOL    HW1 9802  10.870   8.327   8.415  0.7936 -0.2362  1.2717
 1494SOL    HW2 9803  10.916   8.470   8.401  0.0141  0.0809  1.8787
 1495SOL     OW 9804   4.619   0.698   0.102 -0.2602  0.4716  0.0929
 1495SOL    HW1 9805   4.616   0.703   0.197 -0.5345 -0.4752  0.1439
 1495SOL    HW2 9806   4.527   0.708   0.075 -0.5598 -1.8478  0.0944
 1496SOL     OW 9807   7.867   6.339   0.194  0.7249  0.3171  0.4160
 1496SOL    HW1 9808   7.833   6.425   0.169 -1.8195 -0.4852  0.8525
 1496SOL    HW2 9809   7.843   6.281   0.122  1.1750 -0.3179  0.7630
 1497SOL     OW 9810   3.657   0.150   4.706 -0.5140 -0.3876  0.0881
 1497SOL    HW1 9811   3.739   0.159   4.756 -2.0056 -0.4242  2.7264
 1497SOL    HW2 9812   3.628   0.240   4.690  0.4570 -0.3502 -1.7097
 1498SOL     OW 9813   7.082   9.251   6.068  0.2861  0.2398  0.2183
 1498SOL    HW1 9814   7.144   9.295   6.126 -0.4592  1.6134  0.0034
 1498SOL    HW2 9815   7.009   9.226   6.124 -0.4859  1.6685 -0.0936
 1499SOL     OW 9816   2.175   2.680   5.526 -0.2728 -0.1264  0.1636
 1499SOL    HW1 9817   2.200   2.603   5.577 -0.1320  0.8555  1.6523
 1499SOL    HW2 9818   2.079   2.683   5.532 -0.2845 -0.2338  0.0300
 1500SOL     OW 9819  10.151   1.935   9.039 -0.0139 -0.3763  0.2618
 1500SOL    HW1 9820  10.134   2.026   9.065  0.0145  0.7005 -3.0921
 1500SOL    HW2 9821  10.247   1.929   9.033 -0.0056 -0.7037  0.6729
 1501SOL     OW 9822   1.631  11.362   5.245 -0.2690 -0.0805 -0.8152
 1501SOL    HW1 9823   1.612  11.453   5.220  1.3788 -0.2355 -2.9483
 1501SOL    HW2 9824   1.652  11.318   5.162  0.3470 -2.0631  0.3130
 1502SOL     OW 9825   2.073   6.407   4.908  0.0855  0.1102  0.2245
 1502SOL    HW1 9826   2.019   6.470   4.956 -0.7844 -0.2560 -0.2469
 1502SOL    HW2 9827   2.108   6.456   4.834 -1.1386 -0.0959 -0.5287
 1503SOL     OW 9828   4.562  10.147   4.385 -0.2270  0.2676 -0.0123
 1503SOL    HW1 9829   4.543  10.054   4.388 -1.2547  0.4570  0.0201
 1503SOL    HW2 9830   4.495  10.187   4.441  0.1515  1.0199 -0.0809
 1504SOL     OW 9831   7.249   0.620   6.740 -0.1127 -0.1364  0.1710
 1504SOL    HW1 9832   7.158   0.636   6.712 -0.1899 -1.3059 -0.2992
 1504SOL    HW2 9833   7.241   0.593   6.832 -0.2930 -0.6535  0.0092
 1505SOL     OW 9834   3.341   4.209   5.953  0.1434 -0.3737 -0.2746
 1505SOL    HW1 9835   3.251   4.240   5.956  0.4290  0.4098  0.5118
 1505SOL    HW2 9836   3.380   4.240   6.035  1.6551  0.9223 -1.4222
 1506SOL     OW 9837   8.819   8.519   4.708 -1.0014  0.4607  0.6649
 1506SOL    HW1 9838   8.796   8.503   4.800 -1.9858  1.2164  0.5620
 1506SOL    HW2 9839   8.743   8.565   4.672 -1.7557 -2.1087 -1.2365
 1507SOL     OW 9840   7.369   8.979   6.665 -0.2565 -0.0757  0.6300
 1507SOL    HW1 9841   7.393   8.893   6.699 -0.9045  0.0859  1.5380
 1507SOL    HW2 9842   7.288   9.001   6.711  0.3324  1.3756  1.0237
 1508SOL     OW 9843   6.921   8.481   8.120 -0.3016  0.3831 -0.2512
 1508SOL    HW1 9844   6.951   8.407   8.173 -1.3259 -0.7481 -1.1820
 1508SOL    HW2 9845   6.873   8.441   8.047 -2.6146  1.9816  0.2586
 1509SOL     OW 9846   0.272   2.710   4.989  0.2902 -0.4332  0.2617
 1509SOL    HW1 9847   0.265   2.786   4.931 -0.0011  0.7379  1.7567
 1509SOL    HW2 9848   0.346   2.660   4.955 -0.4218 -0.2747 -1.6244
 1510SOL     OW 9849   7.149   3.059   3.157 -0.2754  0.1057  0.2047
 1510SOL    HW1 9850   7.236   3.082   3.188  0.2022 -0.3073 -0.8150
 1510SOL    HW2 9851   7.096   3.054   3.237  0.2944  1.7163  0.7318
 1511SOL     OW 9852  10.636  10.414   7.829  0.1939  0.1286  0.1830
 1511SOL    HW1 9853  10.677  10.477   7.888  0.0342 -0.4251  0.9115
 1511SOL    HW2 9854  10.616  10.463   7.750  1.5080  0.6106  0.1237
 1512SOL     OW 9855   0.592   4.439   6.080 -0.6334  0.2617 -0.1500
 1512SOL    HW1 9856   0.574   4.365   6.138 -0.5916  1.1576  1.0290
 1512SOL    HW2 9857   0.667   4.484   6.120  1.3307 -0.7231 -2.4473
 1513SOL     OW 9858  10.322   9.863   7.923  0.0708  0.0535  0.2890
 1513SOL    HW1 9859  10.244   9.831   7.877 -0.1768  0.3209  0.5173
 1513SOL    HW2 9860  10.293   9.945   7.964  0.0674 -0.5557  1.5545
 1514SOL     OW 9861   7.208   6.091   4.963  0.0170  0.5190 -0.3245
 1514SOL    HW1 9862   7.113   6.104   4.953 -0.1050 -0.2812 -0.2584
 1514SOL    HW2 9863   7.224   6.004   4.927  0.3458 -0.3675  1.8222
 1515SOL     OW 9864   0.763   8.860   4.145  0.9603 -0.3705  0.1375
 1515SOL    HW1 9865   0.829   8.928   4.132  1.1203 -0.6627 -0.5996
 1515SOL    HW2 9866   0.804   8.780   4.112  0.3574 -0.6109 -0.0431
 1516SOL     OW 9867  10.088   4.518   4.711 -0.4163 -0.2334 -0.1743
 1516SOL    HW1 9868  10.006   4.490   4.672 -1.1849 -0.2270  1.3749
 1516SOL    HW2 9869  10.065   4.593   4.765  0.2753 -1.2624  1.6242
 1517SOL     OW 9870   9.170   3.366   1.893  0.2513 -0.0938 -0.2691
 1517SOL    HW1 9871   9.121   3.284   1.886  0.3276 -0.2091  0.4294
 1517SOL    HW2 9872   9.258   3.339   1.918  0.3610  0.1806 -0.3557
 1518SOL     OW 9873   6.749  10.116  11.599  0.8241 -0.3281  0.2976
 1518SOL    HW1 9874   6.826  10.144  11.647  0.2848 -1.7276  2.1039
 1518SOL    HW2 9875   6.777  10.039  11.550  0.6367 -0.7347  0.8189
 1519SOL     OW 9876   0.767   8.111   6.274  0.3001  0.2483 -0.1053
 1519SOL    HW1 9877   0.727   8.179   6.220  0.3904  0.0522 -0.4192
 1519SOL    HW2 9878   0.839   8.157   6.320 -0.3282  0.6212  0.5325
 1520SOL     OW 9879   0.533  11.388   2.881  0.3879  0.2861 -0.5727
 1520SOL    HW1 9880   0.518  11.459   2.819  0.1981  0.0847 -0.7600
 1520SOL    HW2 9881   0.450  11.380   2.929  0.2526 -0.0960 -0.8546
 1521SOL     OW 9882   2.799  10.757   8.298  0.3789 -0.2178 -0.0612
 1521SOL    HW1 9883   2.742  10.833   8.306 -0.6234 -0.9605  0.0395
 1521SOL    HW2 9884   2.867  10.784   8.236  1.4143  1.5390  1.7171
 1522SOL     OW 9885  10.440   4.491   0.745 -0.3044 -0.0113 -0.3610
 1522SOL    HW1 9886  10.444   4.568   0.802 -0.3853  0.1131 -0.5233
 1522SOL    HW2 9887  10.478   4.520   0.662  0.3797 -0.3659 -0.1779
 1523SOL     OW 9888   0.755   0.254   8.924 -0.4225 -0.8032  0.0623
 1523SOL    HW1 9889   0.844   0.285   8.939 -1.0863  0.3064  1.9989
 1523SOL    HW2 9890   0.725   0.304   8.848 -0.4437  1.2198  1.3328
 1524SOL     OW 9891   3.395   4.303   4.409 -0.1192  0.6249 -0.5838
 1524SOL    HW1 9892   3.474   4.312   4.356  1.3475  1.1988  1.5722
 1524SOL    HW2 9893   3.382   4.389   4.449 -1.3183  0.2859 -0.1877
 1525SOL     OW 9894   4.461   3.532   1.120 -0.0836  0.1181  0.3570
 1525SOL    HW1 9895   4.476   3.464   1.185 -0.1873 -1.5526 -1.2800
 1525SOL    HW2 9896   4.367   3.551   1.126 -0.5605 -1.6749 -0.7839
 1526SOL     OW 9897   2.646   6.068   3.341 -0.0583 -0.6692  0.2644
 1526SOL    HW1 9898   2.724   6.116   3.311  0.5446 -0.8937  1.4313
 1526SOL    HW2 9899   2.621   6.014   3.266  1.6325 -1.4883  0.2480
 1527SOL     OW 9900   8.530   2.656   1.739 -0.9984 -0.4512  0.1405
 1527SOL    HW1 9901   8.521   2.751   1.743 -2.7122 -0.3780 -2.6654
 1527SOL    HW2 9902   8.623   2.640   1.757 -0.2265  1.9602 -1.2121
 1528SOL     OW 9903  11.518  10.943   5.505 -0.7639 -0.4653 -0.3748
 1528SOL    HW1 9904  11.478  10.876   5.561 -1.2843 -1.5817 -2.0206
 1528SOL    HW2 9905  11.504  11.025   5.553  2.3328 -1.6860  3.0982
 1529SOL     OW 9906   8.078   4.021   1.759 -0.0329 -0.0724  0.4379
 1529SOL    HW1 9907   8.061   4.097   1.703  0.6407  0.0912  0.4554
 1529SOL    HW2 9908   8.140   3.968   1.709  1.5843  0.6959  1.5639
 1530SOL     OW 9909   4.133   2.361   7.888  0.3821 -0.2516  0.5783
 1530SOL    HW1 9910   4.200   2.293   7.882  1.0899  0.3979  0.9492
 1530SOL    HW2 9911   4.056   2.316   7.922  0.7095 -0.9509  0.4247
 1531SOL     OW 9912   3.604   9.951   8.307  0.3232 -0.4098 -0.0666
 1531SOL    HW1 9913   3.553   9.980   8.231  1.4214 -0.3915 -0.8197
 1531SOL    HW2 9914   3.553   9.981   8.382 -0.3430  0.3720 -0.7973
 1532SOL     OW 9915   3.404   9.420   3.252 -0.2864  0.1298  0.3732
 1532SOL    HW1 9916   3.449   9.486   3.305 -0.6260 -0.5398  1.5394
 1532SOL    HW2 9917   3.405   9.341   3.307  0.1722 -0.8654 -1.0011
 1533SOL     OW 9918  11.092   3.180   4.186  0.2256 -0.1137 -1.0635
 1533SOL    HW1 9919  11.136   3.209   4.266 -2.2180  0.0868  0.3123
 1533SOL    HW2 9920  11.033   3.253   4.164 -1.5622 -1.5020 -1.0767
 1534SOL     OW 9921   5.048   5.845   1.511 -0.1468 -0.0104  0.3709
 1534SOL    HW1 9922   4.969   5.899   1.504  0.0366  0.2805  0.5446
 1534SOL    HW2 9923   5.056   5.804   1.424 -0.4498  0.0079  0.3313
 1535SOL     OW 9924   2.550   7.617  10.963  0.8882  0.6474  0.2093
 1535SOL    HW1 9925   2.477   7.580  10.914  1.9147  0.0080 -0.8916
 1535SOL    HW2 9926   2.577   7.693  10.912  0.3582  1.4819  1.1535
 1536SOL     OW 9927  10.801   6.094   4.329 -0.0209 -0.4343  0.2377
 1536SOL    HW1 9928  10.761   6.023   4.379 -0.0496 -0.5685  0.0286
 1536SOL    HW2 9929  10.803   6.061   4.239  0.4969 -0.3972  0.2342
 1537SOL     OW 9930   4.856   2.948  10.829 -0.3120 -0.1543  0.5868
 1537SOL    HW1 9931   4.853   3.003  10.751 -0.2171  0.9463  1.3291
 1537SOL    HW2 9932   4.771   2.905  10.832 -0.2920 -0.2558 -0.1536
 1538SOL     OW 9933   6.863  11.549   3.628  0.1195 -0.0852  0.4373
 1538SOL    HW1 9934   6.917  11.563   3.550 -0.8895 -0.7403 -0.4061
 1538SOL    HW2 9935   6.823  11.463   3.614 -0.1055 -0.2007  1.6744
 1539SOL     OW 9936   7.400   5.508   3.945  0.1794  0.4968  0.5630
 1539SOL    HW1 9937   7.412   5.423   3.904 -0.6389  0.4036  0.5012
 1539SOL    HW2 9938   7.454   5.505   4.023 -1.5233 -0.9233  1.7726
 1540SOL     OW 9939   4.814  11.680   2.341 -0.2008  0.1185 -0.0832
 1540SOL    HW1 9940   4.809  11.680   2.246 -1.9768 -0.5814 -0.0324
 1540SOL    HW2 9941   4.728  11.711   2.370  0.1272 -0.1716  1.2931
 1541SOL     OW 9942   3.785   8.538   5.036  0.5226 -0.3229 -0.3847
 1541SOL    HW1 9943   3.731   8.460   5.040  0.2435 -0.1140  0.1265
 1541SOL    HW2 9944   3.799   8.562   5.128  0.8057  0.0861 -0.5290
 1542SOL     OW 9945   3.089   2.536   9.670 -0.4222 -0.4964  0.3642
 1542SOL    HW1 9946   3.015   2.480   9.691 -0.8743 -0.5127 -1.1615
 1542SOL    HW2 9947   3.144   2.483   9.612 -0.2357  0.1923 -0.1042
 1543SOL     OW 9948  11.464   0.550   1.640 -0.1900  0.3727  0.4246
 1543SOL    HW1 9949  11.410   0.524   1.715 -2.0330 -0.3761 -1.0688
 1543SOL    HW2 9950  11.542   0.494   1.646 -0.6893 -0.2564  1.3291
 1544SOL     OW 9951  10.509   9.761  11.208 -0.1572 -0.1697  0.0968
 1544SOL    HW1 9952  10.515   9.667  11.189 -1.1900 -0.0886 -0.7181
 1544SOL    HW2 9953  10.593   9.796  11.180  0.4839 -0.9352  0.9885
 1545SOL     OW 9954  11.713   6.296   4.606  0.5187  0.0494 -0.3421
 1545SOL    HW1 9955  11.669   6.268   4.525  0.1467 -1.4849  0.3571
 1545SOL    HW2 9956  11.643   6.309   4.669  0.9171 -0.3515  0.1915
 1546SOL     OW 9957   2.347  11.155   0.228 -0.3195 -0.3159 -0.2122
 1546SOL    HW1 9958   2.338  11.080   0.169  0.0464  0.7263 -1.6533
 1546SOL    HW2 9959   2.265  11.157   0.277 -0.3995 -1.5419 -0.2527
 1547SOL     OW 9960  10.957   7.275   4.178  0.0425 -0.5237 -0.1941
 1547SOL    HW1 9961  10.984   7.185   4.197 -0.5457 -0.7905 -0.5681
 1547SOL    HW2 9962  10.865   7.267   4.153 -0.2793  0.3045  0.6739
 1548SOL     OW 9963   1.246  11.476   5.341  0.1094 -0.0203 -0.0435
 1548SOL    HW1 9964   1.264  11.418   5.267 -1.7050 -0.0089 -0.5383
 1548SOL    HW2 9965   1.210  11.555   5.302 -1.6987 -0.3457  0.8506
 1549SOL     OW 9966   7.549   8.873   0.247 -0.2266  0.3542 -0.1660
 1549SOL    HW1 9967   7.540   8.804   0.313  0.8185  1.2842  0.9887
 1549SOL    HW2 9968   7.469   8.866   0.194 -1.5110  0.1044  1.6929
 1550SOL     OW 9969   1.810   2.290   2.722  0.4671  0.6205 -0.4870
 1550SOL    HW1 9970   1.875   2.328   2.662  1.1109  0.4024  0.0551
 1550SOL    HW2 9971   1.862   2.242   2.786 -0.2659  0.0310 -0.3211
 1551SOL     OW 9972   6.867   7.310   6.220 -0.0415  0.5380 -0.3402
 1551SOL    HW1 9973   6.830   7.267   6.298  1.2281  0.8091  0.4456
 1551SOL    HW2 9974   6.912   7.240   6.173 -2.0598  0.0663 -1.6643
 1552SOL     OW 9975   8.287   0.281   3.935  0.5648 -0.2063  0.1966
 1552SOL    HW1 9976   8.310   0.366   3.973 -0.6568 -0.3857  1.4350
 1552SOL    HW2 9977   8.243   0.303   3.852  1.1308  0.3189  0.0326
 1553SOL     OW 9978   7.878   0.599   7.907 -0.2081 -0.0424  0.5525
 1553SOL    HW1 9979   7.926   0.530   7.953  0.1745  0.2665  0.6222
 1553SOL    HW2 9980   7.945   0.661   7.880 -0.5293  0.2068  0.3202
 1554SOL     OW 9981   6.691   7.141   8.903 -0.8383 -0.3180 -0.3279
 1554SOL    HW1 9982   6.721   7.187   8.981  2.0936 -0.8709 -1.0043
 1554SOL    HW2 9983   6.618   7.194   8.870  0.1205  1.8607  0.8737
 1555SOL     OW 9984  10.445   5.636   7.461  0.3754  0.1130 -0.2571
 1555SOL    HW1 9985  10.474   5.561   7.512  0.8118 -1.1914 -2.2821
 1555SOL    HW2 9986  10.378   5.601   7.402 -1.3419  1.9098  0.5127
 1556SOL     OW 9987   2.319  10.004   1.064 -0.4754 -0.2745 -0.5712
 1556SOL    HW1 9988   2.396   9.990   1.010  1.3770 -1.1955  2.0922
 1556SOL    HW2 9989   2.246  10.009   1.002  1.4386 -1.5036 -3.0822
 1557SOL     OW 9990   6.033   8.200   9.818  0.9457 -0.2799 -0.1985
 1557SOL    HW1 9991   6.104   8.137   9.830  0.7234 -0.2244  1.5959
 1557SOL    HW2 9992   6.003   8.220   9.906 -0.7111  0.3890 -0.8777
 1558SOL     OW 9993   7.840   9.730  10.107  0.0971  0.4296  0.1371
 1558SOL    HW1 9994   7.833   9.757  10.015  1.3753  0.5559  0.0655
 1558SOL    HW2 9995   7.821   9.636  10.105  1.8203  0.0465 -0.5449
 1559SOL     OW 9996   9.261  10.290   4.289 -0.1502  0.1888  0.4242
 1559SOL    HW1 9997   9.251  10.249   4.375 -2.1723 -2.1518 -0.7772
 1559SOL    HW2 9998   9.189  10.353   4.285  0.1008  0.4812  0.5537
 1560SOL     OW 9999   9.898   2.234   8.077 -0.2541  0.4383 -0.1743
 1560SOL    HW110000   9.835   2.228   8.005 -0.6679  0.7482  0.1548
 1560SOL    HW210001   9.892   2.324   8.106 -0.7340  0.1021  0.8144
 1561SOL     OW10002   9.629   1.994   4.894 -0.3217  0.0772 -0.2165
 1561SOL    HW110003   9.586   2.078   4.874  1.9212  0.9977 -1.6391
 1561SOL    HW210004   9.687   2.014   4.967 -0.4226 -0.4788  0.0200
 1562SOL     OW10005   0.180   1.943   0.706 -0.2165 -0.0368 -0.2928
 1562SOL    HW110006   0.250   1.975   0.649  0.3843  3.1824  1.9813
 1562SOL    HW210007   0.225   1.914   0.785 -1.1983 -2.1801 -0.4512
 1563SOL     OW10008   5.916   5.417   0.823 -0.1615  0.0448  0.5943
 1563SOL    HW110009   5.984   5.466   0.869 -0.3637  0.4886  0.4207
 1563SOL    HW210010   5.901   5.466   0.742  0.9762 -1.3029 -0.5037
 1564SOL     OW10011   4.215   8.709   6.507 -0.6015 -0.1868 -0.3437
 1564SOL    HW110012   4.293   8.728   6.560 -0.5890  1.4635 -0.8788
 1564SOL    HW210013   4.210   8.783   6.446 -2.1586 -0.6656 -0.8284
 1565SOL     OW10014   5.543   5.886  10.161 -0.1696 -0.4847 -0.5875
 1565SOL    HW110015   5.519   5.798  10.192  0.6759 -0.0413  1.5542
 1565SOL    HW210016   5.630   5.874  10.121 -0.4037 -0.7476 -1.0227
 1566SOL     OW10017   9.541   6.363   6.185  0.5498  0.1546  0.2025
 1566SOL    HW110018   9.617   6.307   6.168  1.2143  1.1015 -0.0331
 1566SOL    HW210019   9.469   6.302   6.201  0.9508 -0.7858 -1.3834
 1567SOL     OW10020   5.254   8.687   7.125  0.5417 -0.2277 -0.2133
 1567SOL    HW110021   5.185   8.632   7.089 -0.4320  0.0416  1.1698
 1567SOL    HW210022   5.280   8.642   7.206  1.2775  0.2187 -0.1874
 1568SOL     OW10023   6.260  11.592   2.469  0.3160 -0.4369  0.4718
 1568SOL    HW110024   6.269  11.553   2.556  0.5910 -0.4448  0.4382
 1568SOL    HW210025   6.349  11.610   2.440  0.1783  1.0662  0.8766
 1569SOL     OW10026   7.182   1.752   7.421  0.2967  0.2133 -0.8589
 1569SOL    HW110027   7.240   1.804   7.365  1.9134 -0.2550  0.2840
 1569SOL    HW210028   7.240   1.717   7.489 -1.3099 -0.5075  0.2060
 1570SOL     OW10029   3.510   0.150   9.895  0.0924 -0.2662 -0.0097
 1570SOL    HW110030   3.536   0.084   9.831  1.9267 -2.0956  2.4296
 1570SOL    HW210031   3.459   0.101   9.960 -0.5392  1.2280  0.6688
 1571SOL     OW10032   6.346   1.919   1.124  0.0381  0.7491 -0.0541
 1571SOL    HW110033   6.288   1.977   1.172  0.3115  0.6419  0.4157
 1571SOL    HW210034   6.350   1.839   1.178 -1.5302 -0.3176 -1.4187
 1572SOL     OW10035   8.413   2.470   0.355 -0.5094 -0.1666  0.4637
 1572SOL    HW110036   8.383   2.517   0.432 -2.9301 -0.6022 -0.1425
 1572SOL    HW210037   8.416   2.378   0.383 -0.5506 -0.2222  0.2864
 1573SOL     OW10038   7.767   3.549   7.119 -0.7818 -0.2439 -0.2025
 1573SOL    HW110039   7.731   3.521   7.035 -0.4690  1.0286 -0.7888
 1573SOL    HW210040   7.857   3.576   7.098 -0.8141  0.4147  0.4766
 1574SOL     OW10041  10.887   7.557  11.537 -0.2735 -0.3796 -0.0244
 1574SOL    HW110042  10.909   7.483  11.480 -1.0078 -0.8977  0.3445
 1574SOL    HW210043  10.792   7.553  11.546 -0.1567 -0.4837  1.4547
 1575SOL     OW10044   3.919  11.812   5.887  0.0013  0.3131  0.2295
 1575SOL    HW110045   3.855  11.817   5.958  0.9517  1.2527  1.0605
 1575SOL    HW210046   3.977  11.887   5.903 -1.0509  1.9702 -2.8236
 1576SOL     OW10047   7.001   8.094   6.537  0.2671 -0.1445 -0.4234
 1576SOL    HW110048   7.077   8.046   6.504  0.5502  0.4100 -0.5897
 1576SOL    HW210049   6.925   8.045   6.505  0.5491 -0.1715 -1.0598
 1577SOL     OW10050   5.479  10.165   9.880 -0.1697  0.3562  0.2176
 1577SOL    HW110051   5.555  10.175   9.823 -0.6749  0.4278 -0.4575
 1577SOL    HW210052   5.467  10.070   9.887  0.5488  0.3164  1.1110
 1578SOL     OW10053   4.705   4.509   4.707  0.0786 -0.1364  0.1166
 1578SOL    HW110054   4.640   4.503   4.637 -0.0409 -0.5253  0.2552
 1578SOL    HW210055   4.683   4.590   4.753 -0.2225 -0.1908  0.0729
 1579SOL     OW10056  10.039   4.318  11.757 -0.5102 -0.2233 -0.0524
 1579SOL    HW110057  10.062   4.411  11.753  0.1958 -0.1830  2.5485
 1579SOL    HW210058  10.104   4.275  11.701 -0.8651  0.8321 -1.3102
 1580SOL     OW10059   7.406   0.099   0.209  0.1228  0.2287  0.1995
 1580SOL    HW110060   7.468   0.072   0.142  1.0722 -1.5765  1.7161
 1580SOL    HW210061   7.320   0.075   0.174  0.6016 -0.6956 -0.3769
 1581SOL     OW10062   5.558   7.011   5.141  0.1279 -0.2490 -0.9362
 1581SOL    HW110063   5.577   7.094   5.185 -1.4647 -0.2689 -0.1508
 1581SOL    HW210064   5.470   7.023   5.105 -0.1559 -1.6236 -0.7289
 1582SOL     OW10065   6.099   0.582   3.180  0.6383 -0.1301  0.0650
 1582SOL    HW110066   6.030   0.599   3.244 -0.3247 -2.0765 -0.3618
 1582SOL    HW210067   6.171   0.547   3.232  0.0840 -1.1249  0.1970
 1583SOL     OW10068   6.624  10.464   9.828  0.1361 -0.0691  0.2604
 1583SOL    HW110069   6.713  10.452   9.862 -0.1176 -1.4315  0.4877
 1583SOL    HW210070   6.621  10.411   9.749 -0.3970  0.1746  0.1145
 1584SOL     OW10071   7.648   3.263   1.594  0.1463  0.0915 -0.0988
 1584SOL    HW110072   7.605   3.279   1.678  1.1351  1.2196  0.2246
 1584SOL    HW210073   7.742   3.264   1.614  0.3756 -1.2109 -0.9650
 1585SOL     OW10074  10.679   9.335   4.808  1.0188 -0.4489  0.8077
 1585SOL    HW110075  10.654   9.337   4.716  3.9193 -2.6957 -0.1792
 1585SOL    HW210076  10.748   9.400   4.815  0.9003 -0.3820  1.4026
 1586SOL     OW10077   2.216  11.773   2.332  0.3470 -0.7571  0.0312
 1586SOL    HW110078   2.228  11.868   2.328  2.1992 -0.9638 -0.5097
 1586SOL    HW210079   2.225  11.752   2.425  1.7481 -0.5511 -0.0278
 1587SOL     OW10080  10.562   1.254   0.910  0.9752  0.1020  0.1355
 1587SOL    HW110081  10.642   1.202   0.909  0.5673 -0.5445 -1.8070
 1587SOL    HW210082  10.527   1.247   0.822 -2.0722 -0.9794  1.2914
 1588SOL     OW10083   5.264   9.819   5.668  0.1900  0.2123  0.3365
 1588SOL    HW110084   5.293   9.730   5.689 -0.1828 -0.2794 -1.0998
 1588SOL    HW210085   5.276   9.868   5.750  1.4662 -0.8691  0.8398
 1589SOL     OW10086   6.850   7.732   3.789 -1.0243 -0.3036 -0.3516
 1589SOL    HW110087   6.818   7.821   3.777  1.2933  0.3891 -2.1718
 1589SOL    HW210088   6.834   7.689   3.705  0.8573 -0.5101 -0.6551
 1590SOL     OW10089   2.304   7.357   0.155 -0.4315  0.1262  0.0424
 1590SOL    HW110090   2.378   7.352   0.215  0.2689 -1.0011 -0.8740
 1590SOL    HW210091   2.299   7.270   0.116 -1.3039  0.6247 -1.0195
 1591SOL     OW10092   9.348   1.211   6.720  0.2961  0.0088 -0.0093
 1591SOL    HW110093   9.265   1.194   6.763  0.1398 -1.3191 -0.7713
 1591SOL    HW210094   9.374   1.126   6.684  1.0072  0.8081 -1.4716
 1592SOL     OW10095   1.834   9.415   4.792 -0.5193  0.6445 -0.2235
 1592SOL    HW110096   1.907   9.394   4.850  0.5106  2.4592 -0.7845
 1592SOL    HW210097   1.816   9.333   4.746  1.4687  0.2421 -0.3797
 1593SOL     OW10098  11.304   5.217   5.987  0.8217 -0.0397 -0.5242
 1593SOL    HW110099  11.290   5.289   5.927  1.9683 -0.5020 -1.3811
 1593SOL    HW210100  11.392   5.232   6.023  1.2680 -1.2392 -1.0675
 1594SOL     OW10101   4.131   2.104   4.122 -0.2658  0.4301 -0.2476
 1594SOL    HW110102   4.148   2.164   4.194 -0.7814 -0.3201  0.5244
 1594SOL    HW210103   4.127   2.018   4.163  2.3167 -0.4068 -1.5613
 1595SOL     OW10104   3.438   6.512   8.998 -0.3105  0.3700 -0.7678
 1595SOL    HW110105   3.375   6.531   9.068  0.9720  1.1604  0.2386
 1595SOL    HW210106   3.417   6.423   8.970 -1.4836  0.4002 -0.0610
 1596SOL     OW10107   5.124   3.500   0.368 -0.3351 -0.7177  0.8316
 1596SOL    HW110108   5.219   3.488   0.367 -0.2802 -0.4046 -0.8897
 1596SOL    HW210109   5.088   3.412   0.358 -0.1575 -0.6786 -0.3818
 1597SOL     OW10110   5.540   9.292   8.158  0.3463 -0.4587  0.1626
 1597SOL    HW110111   5.499   9.290   8.071  0.6360  1.2650 -0.0486
 1597SOL    HW210112   5.472   9.326   8.216  0.8896  0.7410  0.1324
 1598SOL     OW10113   5.769  10.354  11.017 -0.1490 -0.1974  0.0477
 1598SOL    HW110114   5.703  10.378  11.082 -0.0873  1.4795 -0.4780
 1598SOL    HW210115   5.801  10.437  10.983  0.6264 -1.0287 -1.3320
 1599SOL     OW10116   1.479   5.834   4.430 -0.3539  0.0847  0.3139
 1599SOL    HW110117   1.512   5.851   4.518  2.3797 -0.1926 -0.5784
 1599SOL    HW210118   1.557   5.822   4.377 -1.9355 -0.1842 -2.0947
 1600SOL     OW10119   1.539   8.062   8.901 -0.0286 -0.2080  0.1315
 1600SOL    HW110120   1.585   8.093   8.823  2.0536 -1.2973  0.8568
 1600SOL    HW210121   1.461   8.018   8.867 -0.7124  1.8406 -1.1311
 1601SOL     OW10122   5.465   2.000   1.457  0.5864  0.1589  0.2234
 1601SOL    HW110123   5.431   1.912   1.439  1.5609 -0.1823 -0.0320
 1601SOL    HW210124   5.475   2.040   1.371  0.4731  0.3967  0.3209
 1602SOL     OW10125   2.861   7.775   4.567  0.0960  0.3304  0.7059
 1602SOL    HW110126   2.778   7.731   4.588  0.8514 -1.9188 -0.6310
 1602SOL    HW210127   2.853   7.797   4.474  1.0762 -0.0982  0.5112
 1603SOL     OW10128   3.278   2.824   9.021  0.0521 -0.5532  0.3395
 1603SOL    HW110129   3.334   2.846   8.947 -0.4203  1.2105  0.4604
 1603SOL    HW210130   3.321   2.862   9.097 -1.1740  0.6919  0.4560
 1604SOL     OW10131   0.433   9.859  10.630  0.3845  0.5137  0.0560
 1604SOL    HW110132   0.480   9.934  10.668  1.2674 -0.4877  1.0090
 1604SOL    HW210133   0.388   9.895  10.554  0.2458  2.1589  0.8729
 1605SOL     OW10134   2.571  11.529   9.096  0.2184 -0.6799  0.0083
 1605SOL    HW110135   2.545  11.479   9.018 -0.7445 -0.4562  0.1783
 1605SOL    HW210136   2.505  11.507   9.161 -0.6858  1.3843 -0.1311
 1606SOL     OW10137   2.793   5.288   7.732  0.1323 -0.2460  0.0218
 1606SOL    HW110138   2.852   5.355   7.766 -1.2601  0.1449  1.8053
 1606SOL    HW210139   2.851   5.215   7.709  1.3053 -0.5199  3.2313
 1607SOL     OW10140   9.693  10.150   3.926 -0.3611 -0.1975 -0.2810
 1607SOL    HW110141   9.656  10.087   3.988 -0.7479  0.5624  0.2731
 1607SOL    HW210142   9.779  10.114   3.903 -1.2277 -1.7731 -1.2476
 1608SOL     OW10143   4.345   4.223  10.980  0.1823  0.5630  0.2875
 1608SOL    HW110144   4.372   4.289  10.917  0.2150  0.8599  0.6155
 1608SOL    HW210145   4.340   4.142  10.929  0.6737  0.7092  0.0081
 1609SOL     OW10146   9.959   9.235   3.293  0.1683 -0.1011  0.2639
 1609SOL    HW110147   9.960   9.248   3.387 -0.3951  1.2826  0.1079
 1609SOL    HW210148   9.886   9.174   3.278  0.5352 -0.6712  0.7375
 1610SOL     OW10149   7.718   4.403   2.293 -0.2889 -0.1390 -0.0542
 1610SOL    HW110150   7.632   4.422   2.331  0.2885 -0.5328  1.5081
 1610SOL    HW210151   7.780   4.449   2.349  0.5517  0.0601 -1.1104
 1611SOL     OW10152   7.486   1.098   7.817  0.6199 -0.0069  0.1473
 1611SOL    HW110153   7.529   1.178   7.787  1.8888 -0.3748  0.9107
 1611SOL    HW210154   7.546   1.028   7.794  0.6534 -0.5017  1.6245
 1612SOL     OW10155   9.359   9.261   9.998  0.0464 -0.1234  0.1776
 1612SOL    HW110156   9.321   9.316   9.930  1.0512 -0.0691 -0.3631
 1612SOL    HW210157   9.322   9.295  10.080  0.9634  1.6732 -0.1038
 1613SOL     OW10158   2.517   4.486   0.335  0.4593 -0.3363  0.7262
 1613SOL    HW110159   2.484   4.564   0.380 -0.2204 -0.5531  0.6114
 1613SOL    HW210160   2.441   4.430   0.323  0.7645 -0.6195 -0.0236
 1614SOL     OW10161   3.066   0.705   4.900  0.3551  0.0689  0.3257
 1614SOL    HW110162   2.990   0.746   4.941  0.1740 -0.0906  0.1517
 1614SOL    HW210163   3.141   0.744   4.944  0.1777  0.4025  0.3371
 1615SOL     OW10164   0.278  11.661   1.397  0.0940  0.3178  1.0930
 1615SOL    HW110165   0.368  11.687   1.378  0.9529 -3.1878 -0.4425
 1615SOL    HW210166   0.286  11.602   1.473 -0.6375 -1.0581  0.1460
 1616SOL     OW10167   5.408   1.523   9.988 -0.1846 -0.3407  0.4392
 1616SOL    HW110168   5.476   1.501   9.925 -0.7806  0.7124 -0.6125
 1616SOL    HW210169   5.336   1.463   9.967 -0.4070  0.0526  0.0489
 1617SOL     OW10170   5.015   3.585   4.300  0.4225 -0.2072 -0.5502
 1617SOL    HW110171   5.026   3.503   4.347 -0.0611  0.4222  0.7044
 1617SOL    HW210172   5.093   3.591   4.244  0.7174 -1.2584 -0.2848
 1618SOL     OW10173   4.536  10.978   7.578  0.3971  0.0716 -0.2027
 1618SOL    HW110174   4.468  10.916   7.551  1.4113 -0.6300 -1.1993
 1618SOL    HW210175   4.488  11.045   7.627 -1.0038 -0.4659 -0.7812
 1619SOL     OW10176   0.593   3.673   4.793  0.1369 -0.1969 -0.0158
 1619SOL    HW110177   0.571   3.584   4.764  0.7287 -0.7127  1.0316
 1619SOL    HW210178   0.582   3.670   4.888 -1.6555  1.4033 -0.1166
 1620SOL     OW10179   9.707   9.690   3.177  0.0667 -0.1892 -0.2058
 1620SOL    HW110180   9.788   9.648   3.147 -0.6655 -0.1332 -2.4331
 1620SOL    HW210181   9.724   9.783   3.167  0.2337 -0.1030  0.7851
 1621SOL     OW10182  10.549   7.312  11.056 -0.0499  0.2355  0.1774
 1621SOL    HW110183  10.489   7.346  10.989 -0.1164  0.1220  0.1778
 1621SOL    HW210184  10.520   7.222  11.070  0.9464 -0.2630 -0.7862
 1622SOL     OW10185   7.573  11.559   1.044 -0.3366 -0.1429 -0.5730
 1622SOL    HW110186   7.481  11.550   1.019 -1.4616 -1.6934  3.2545
 1622SOL    HW210187   7.602  11.469   1.060  1.5871  0.3921 -0.7448
 1623SOL     OW10188   8.863  11.586   2.028 -0.1133  0.2014  0.4135
 1623SOL    HW110189   8.857  11.667   2.078  0.6764  1.3022 -1.2265
 1623SOL    HW210190   8.830  11.607   1.941 -0.9196 -1.5274  0.2488
 1624SOL     OW10191   8.326   4.239   8.374 -0.1815 -0.5261  0.4107
 1624SOL    HW110192   8.271   4.307   8.412 -0.3141 -1.3275  1.7400
 1624SOL    HW210193   8.264   4.174   8.340 -0.0614  0.1593 -1.1805
 1625SOL     OW10194   6.647   0.219  11.762 -0.8442 -0.2851 -0.2971
 1625SOL    HW110195   6.574   0.271  11.795 -0.1028  0.1386  0.7509
 1625SOL    HW210196   6.669   0.258  11.678  0.2349  1.6926  0.8344
 1626SOL     OW10197   9.498   0.576   7.276  0.5937 -0.0120 -0.4134
 1626SOL    HW110198   9.493   0.524   7.356 -0.2930 -1.9101 -1.6228
 1626SOL    HW210199   9.588   0.609   7.275  0.8720 -0.6637  0.9340
 1627SOL     OW10200   8.276   1.862   6.347 -0.8352 -0.4352 -0.1740
 1627SOL    HW110201   8.248   1.943   6.303 -0.2831 -0.6220 -0.8846
 1627SOL    HW210202   8.325   1.814   6.281 -0.4609 -0.9864  0.4854
 1628SOL     OW10203   8.658   9.789   1.937 -0.3801  0.4394 -0.7329
 1628SOL    HW110204   8.740   9.782   1.889 -0.7495 -3.5567 -1.1251
 1628SOL    HW210205   8.685   9.795   2.029  0.4616 -2.1672 -0.7438
 1629SOL     OW10206   7.759   0.548  10.658  0.0280  0.3760  0.1361
 1629SOL    HW110207   7.725   0.542  10.569  1.1161  0.4499 -0.3034
 1629SOL    HW210208   7.691   0.510  10.713  0.1821 -1.5405 -0.9267
 1630SOL     OW10209   2.779   3.355   9.647 -0.0949  0.0280  1.0012
 1630SOL    HW110210   2.806   3.439   9.608  0.7492 -0.2357  1.0046
 1630SOL    HW210211   2.696   3.335   9.605  1.2192 -0.7298 -1.4702
 1631SOL     OW10212   2.486   4.839   8.491  0.0761  0.3514 -0.1980
 1631SOL    HW110213   2.474   4.810   8.581 -0.7697 -1.9095 -0.9570
 1631SOL    HW210214   2.485   4.934   8.496 -0.3554  0.2849  2.1166
 1632SOL     OW10215   7.129   0.349   7.121 -0.3377  0.0505  0.0191
 1632SOL    HW110216   7.146   0.375   7.211 -1.9224  0.7642  0.1510
 1632SOL    HW210217   7.056   0.405   7.093  0.0394 -0.2409 -1.6637
 1633SOL     OW10218   0.621   4.685  11.086 -0.6070  0.2687  0.0795
 1633SOL    HW110219   0.568   4.736  11.025 -0.1220  1.4754  0.6444
 1633SOL    HW210220   0.701   4.737  11.099  0.0464 -0.7880  0.4178
 1634SOL     OW10221   1.782   2.305   8.646  0.0972 -0.5739 -0.6039
 1634SOL    HW110222   1.721   2.233   8.655  2.8018 -3.0006 -0.2692
 1634SOL    HW210223   1.789   2.343   8.733  0.3203 -1.4090 -0.2506
 1635SOL     OW10224   6.900   1.857   3.611  0.3039 -0.0938 -0.1412
 1635SOL    HW110225   6.828   1.877   3.671 -0.1748  0.3237 -0.8338
 1635SOL    HW210226   6.976   1.845   3.668 -0.4315 -1.1458  0.6545
 1636SOL     OW10227   6.684   9.044   4.889  0.2885  0.3084  0.2456
 1636SOL    HW110228   6.736   9.121   4.914 -1.4269  0.9080  2.2322
 1636SOL    HW210229   6.657   9.062   4.799 -0.2061  2.1602  0.7200
 1637SOL     OW10230  11.091   9.479   9.854 -0.0411 -0.0237 -0.1029
 1637SOL    HW110231  11.043   9.524   9.924  0.5930  2.0776 -0.9306
 1637SOL    HW210232  11.076   9.386   9.871 -0.7149  0.4263  2.2347
 1638SOL     OW10233   5.099   0.592   0.262  0.0440  0.2635  0.0953
 1638SOL    HW110234   5.158   0.650   0.311  0.0289  1.8469 -1.6439
 1638SOL    HW210235   5.157   0.526   0.224  0.6371  1.3419 -0.9423
 1639SOL     OW10236  10.440  10.964   4.784 -0.0558 -0.0177  0.5126
 1639SOL    HW110237  10.372  11.024   4.815 -1.4135 -1.8357  1.1860
 1639SOL    HW210238  10.489  10.940   4.863 -0.3473 -0.7855  0.4672
 1640SOL     OW10239   3.459   9.004   3.634 -0.4547  0.1948 -0.0092
 1640SOL    HW110240   3.517   9.038   3.701 -0.9008 -0.6704  0.8340
 1640SOL    HW210241   3.505   8.928   3.598 -0.7421 -0.0670  0.1683
 1641SOL     OW10242   8.940   2.510   8.135  0.0159  0.5908 -0.2773
 1641SOL    HW110243   8.959   2.565   8.211  0.7789 -1.9793  1.5269
 1641SOL    HW210244   8.861   2.461   8.160  0.5756 -0.6841 -0.9116
 1642SOL     OW10245   1.843   7.503   9.845 -0.0772 -0.0690 -0.3736
 1642SOL    HW110246   1.774   7.455   9.892  0.7046 -0.6451  0.2135
 1642SOL    HW210247   1.908   7.522   9.912  0.1539  0.8275 -0.8468
 1643SOL     OW10248   0.985   3.868   1.399 -0.0776  0.1371  0.1501
 1643SOL    HW110249   1.014   3.934   1.337 -0.3765  2.4505  2.2903
 1643SOL    HW210250   0.896   3.894   1.423 -0.4489 -1.4221  0.6119
 1644SOL     OW10251   9.172   5.143   1.508  0.4567  0.2005 -0.7176
 1644SOL    HW110252   9.151   5.202   1.580  0.6954  1.2193 -1.4575
 1644SOL    HW210253   9.211   5.066   1.551 -0.4243  0.3020  0.3030
 1645SOL     OW10254   6.658   6.119   8.617 -0.5793  0.1917  0.2075
 1645SOL    HW110255   6.675   6.080   8.531  0.2237  0.7684  0.0848
 1645SOL    HW210256   6.565   6.104   8.633 -0.6746 -0.1653 -0.6401
 1646SOL     OW10257  10.766   2.691   7.941  0.2963  0.1386 -0.2405
 1646SOL    HW110258  10.764   2.765   8.001  0.9399 -1.2203  1.5669
 1646SOL    HW210259  10.784   2.615   7.997  1.0043 -1.2095 -2.1655
 1647SOL     OW10260  10.116   0.782   0.191  0.1623 -0.2851 -0.0644
 1647SOL    HW110261  10.093   0.803   0.281 -0.9753 -0.5238 -0.2867
 1647SOL    HW210262  10.037   0.802   0.140  0.0225 -2.1803 -0.6944
 1648SOL     OW10263   3.251   3.409   2.455  0.0169  0.0894  0.5062
 1648SOL    HW110264   3.250   3.349   2.529 -0.6679  0.2803  0.6645
 1648SOL    HW210265   3.185   3.475   2.477  1.8210  1.7997  1.0683
 1649SOL     OW10266  10.247   2.742   9.837  0.3443 -0.1277 -0.2890
 1649SOL    HW110267  10.270   2.662   9.884 -0.7006 -0.0832  0.3484
 1649SOL    HW210268  10.302   2.742   9.759  1.9741 -0.3213  0.8250
 1650SOL     OW10269   7.159  10.690  11.769 -0.3515 -0.0218 -0.2199
 1650SOL    HW110270   7.158  10.647  11.855 -0.4920 -0.2269 -0.3214
 1650SOL    HW210271   7.082  10.746  11.769  1.2409  2.3004  0.9307
 1651SOL     OW10272  10.763   3.970   3.213  0.8303  0.0277 -0.1702
 1651SOL    HW110273  10.827   3.904   3.185  0.9966  0.7427 -1.5603
 1651SOL    HW210274  10.793   4.052   3.173 -0.5554  0.5237 -0.2716
 1652SOL     OW10275   9.213   1.115   5.206 -0.0425 -0.0946  0.0904
 1652SOL    HW110276   9.185   1.121   5.297 -1.7800 -0.6250 -0.3762
 1652SOL    HW210277   9.233   1.205   5.181 -1.3184  0.3162  0.4808
 1653SOL     OW10278   5.583   7.480   3.096 -0.3426 -0.1751  0.5105
 1653SOL    HW110279   5.644   7.418   3.135  0.1764 -0.0858 -0.1462
 1653SOL    HW210280   5.561   7.443   3.011 -1.1914 -0.1943  0.7256
 1654SOL     OW10281  11.520   9.264   5.015 -0.3736 -0.6265  0.6580
 1654SOL    HW110282  11.473   9.224   4.942 -0.0833 -0.0659  0.1590
 1654SOL    HW210283  11.453   9.312   5.064 -0.8503 -2.2095  1.6286
 1655SOL     OW10284   0.450   4.508   5.646 -0.0504  0.2858  1.1370
 1655SOL    HW110285   0.383   4.526   5.712 -0.6176 -3.8154  1.9203
 1655SOL    HW210286   0.529   4.489   5.696 -0.1442 -1.5910  0.6218
 1656SOL     OW10287   5.622   3.619   2.750  0.1481 -0.2541  0.1901
 1656SOL    HW110288   5.557   3.659   2.808 -0.5682 -1.9301  0.5997
 1656SOL    HW210289   5.675   3.563   2.807  0.4053 -0.7557 -0.5196
 1657SOL     OW10290   6.878   2.805  10.114 -0.1899  0.7737  0.3877
 1657SOL    HW110291   6.968   2.774  10.106  0.5030  3.1761 -2.8726
 1657SOL    HW210292   6.884   2.884  10.167 -0.0150  1.9179 -1.2637
 1658SOL     OW10293   4.585   8.184   5.957 -0.2918  0.2924  0.1644
 1658SOL    HW110294   4.622   8.127   6.024  0.3462  0.4513 -0.0457
 1658SOL    HW210295   4.519   8.129   5.913  0.1104 -0.1863  0.1532
 1659SOL     OW10296   3.031   8.345   7.214 -0.1759  0.0238 -0.3809
 1659SOL    HW110297   3.018   8.266   7.161  0.4637 -0.9980  0.9315
 1659SOL    HW210298   2.954   8.399   7.195 -0.9392 -1.1802 -0.8536
 1660SOL     OW10299   7.534   8.286  11.011 -0.0387  0.3370  0.0786
 1660SOL    HW110300   7.598   8.216  11.000  0.4441  0.3832  2.1397
 1660SOL    HW210301   7.584   8.366  10.992  0.7071  0.4057  2.0729
 1661SOL     OW10302   0.926   9.321   2.915 -0.2899 -0.0573  0.1165
 1661SOL    HW110303   0.982   9.392   2.946 -0.3218  0.3422 -0.7111
 1661SOL    HW210304   0.843   9.333   2.961  0.2343 -0.5659  1.2436
 1662SOL     OW10305   7.077   3.903  10.874  0.1112  0.7766  0.0114
 1662SOL    HW110306   7.171   3.916  10.863  0.0661  0.7538 -0.4096
 1662SOL    HW210307   7.069   3.815  10.911  0.1677 -0.0050 -1.7390
 1663SOL     OW10308   3.361   5.567  10.535  0.4034 -0.4825  0.0353
 1663SOL    HW110309   3.397   5.607  10.456  0.8828 -1.5664 -0.3101
 1663SOL    HW210310   3.383   5.628  10.605  1.9894 -0.5844 -0.3276
 1664SOL     OW10311   6.973  10.274   3.306 -0.2738 -0.0214 -0.1780
 1664SOL    HW110312   6.903  10.302   3.366  0.4044  1.0366  0.1470
 1664SOL    HW210313   6.992  10.351   3.253  2.1058  0.4363  1.1869
 1665SOL     OW10314   4.230   4.065   9.898  0.5855 -0.1466  0.5309
 1665SOL    HW110315   4.271   4.051   9.812  1.0214 -0.4079  0.7754
 1665SOL    HW210316   4.160   4.128   9.881  0.5361 -0.3491 -0.0519
 1666SOL     OW10317   4.531   4.818   7.225  0.1238 -0.6372 -0.6177
 1666SOL    HW110318   4.627   4.816   7.226  0.1852 -2.1586  2.7136
 1666SOL    HW210319   4.506   4.727   7.216 -0.8518 -0.7282  2.1519
 1667SOL     OW10320   4.053   9.951   0.688  0.2521  0.0497  0.3593
 1667SOL    HW110321   4.141   9.943   0.650  0.2393  0.4758  0.2387
 1667SOL    HW210322   3.995   9.925   0.617  0.3214 -1.3894  0.7990
 1668SOL     OW10323   6.132   3.664   8.677 -0.1617  0.0772 -0.6791
 1668SOL    HW110324   6.176   3.699   8.755 -0.4277  1.2612 -1.0348
 1668SOL    HW210325   6.204   3.629   8.623  0.1294  0.1806 -0.3633
 1669SOL     OW10326   4.960  10.612   5.850  0.2855  0.0225  0.3298
 1669SOL    HW110327   5.003  10.626   5.934 -0.9015 -1.8353  1.3117
 1669SOL    HW210328   4.999  10.532   5.815 -0.5804 -0.2984  0.0606
 1670SOL     OW10329   9.902   5.919   8.826  0.1229  0.4542 -0.0782
 1670SOL    HW110330   9.928   5.873   8.746  0.0535 -0.3875  0.3691
 1670SOL    HW210331   9.984   5.959   8.858  0.3323  0.0368 -0.0876
 1671SOL     OW10332   4.300   9.971   3.341 -0.3793  0.1020 -0.1023
 1671SOL    HW110333   4.305  10.064   3.364 -2.4786  0.3774 -0.5431
 1671SOL    HW210334   4.238   9.968   3.268 -1.2432 -1.7665  0.6506
 1672SOL     OW10335   2.131   9.619   3.693  0.1994 -0.7127  0.4810
 1672SOL    HW110336   2.209   9.569   3.668 -0.7192 -1.0409 -1.9488
 1672SOL    HW210337   2.057   9.565   3.666 -0.8340  0.8763 -0.0287
 1673SOL     OW10338   7.955   2.424   1.395 -0.3322  0.1619  0.1807
 1673SOL    HW110339   7.969   2.343   1.346 -0.9781  0.3352 -0.3175
 1673SOL    HW210340   7.926   2.395   1.482 -0.5487 -0.1438  0.0089
 1674SOL     OW10341   1.346   9.248   6.828  0.2147  0.0888 -0.5301
 1674SOL    HW110342   1.333   9.288   6.743  0.0392 -2.8725 -2.0341
 1674SOL    HW210343   1.439   9.263   6.848  0.7684 -0.8788 -2.2364
 1675SOL     OW10344   1.479   1.323  10.379  0.3322 -0.6027 -0.6546
 1675SOL    HW110345   1.555   1.274  10.345  0.6975 -1.1771  0.9027
 1675SOL    HW210346   1.517   1.392  10.433 -0.2409  0.1737 -1.2175
 1676SOL     OW10347   8.813  11.773   9.566 -0.3724 -0.5924 -0.3210
 1676SOL    HW110348   8.816  11.725   9.648 -0.3080 -0.3455 -0.1775
 1676SOL    HW210349   8.795  11.863   9.592  4.2578  0.5364 -0.0971
 1677SOL     OW10350   9.995  11.425   8.405  0.0901  0.2196  0.2883
 1677SOL    HW110351  10.049  11.486   8.455  1.3190 -0.9302  0.4179
 1677SOL    HW210352   9.946  11.481   8.345  1.3602  1.3307  0.2245
 1678SOL     OW10353   2.186   3.596   0.992  0.5277  0.2274  0.1687
 1678SOL    HW110354   2.233   3.678   1.008  0.9642  0.1216 -0.5455
 1678SOL    HW210355   2.200   3.545   1.072  1.0693  0.4582  0.2221
 1679SOL     OW10356   5.648   1.344   3.282  0.4532 -0.4465  0.6565
 1679SOL    HW110357   5.651   1.370   3.374 -1.3775 -0.8506  0.8685
 1679SOL    HW210358   5.637   1.248   3.284 -1.0977 -0.3126  0.0888
 1680SOL     OW10359   0.199   8.624   5.397 -0.4280  0.0033 -0.6390
 1680SOL    HW110360   0.264   8.555   5.393  0.1165  0.5433 -1.4302
 1680SOL    HW210361   0.161   8.617   5.485  0.2117 -0.7498 -0.4180
 1681SOL     OW10362   6.034  11.314   0.110  0.2383  0.1002 -0.5143
 1681SOL    HW110363   6.106  11.287   0.053 -0.6135  1.0754 -2.1381
 1681SOL    HW210364   6.056  11.277   0.196  1.1010 -2.2838 -1.6544
 1682SOL     OW10365   4.732   4.258   2.868  0.4261  0.0312 -0.6463
 1682SOL    HW110366   4.733   4.346   2.905 -1.7269  0.0752 -0.5838
 1682SOL    HW210367   4.679   4.207   2.929  0.8618 -1.0809 -1.1713
 1683SOL     OW10368   4.366  11.152   9.015  0.7157 -0.4378  0.3299
 1683SOL    HW110369   4.408  11.196   9.089 -2.3111 -0.3094  2.1280
 1683SOL    HW210370   4.364  11.218   8.946  0.7014  0.5830  1.2668
 1684SOL     OW10371   1.235   6.159  10.580  0.3218  0.1238 -0.0202
 1684SOL    HW110372   1.260   6.146  10.488 -0.7301  1.2496 -0.4989
 1684SOL    HW210373   1.144   6.130  10.584  0.3191  0.2132  0.6276
 1685SOL     OW10374   7.879   2.308   2.594 -0.1225  0.5547 -0.2764
 1685SOL    HW110375   7.959   2.262   2.569  0.0949  0.2529  0.9274
 1685SOL    HW210376   7.872   2.379   2.530  1.7738  1.3363  0.3111
 1686SOL     OW10377   0.257   2.333   1.335 -0.5202  0.5337  0.0918
 1686SOL    HW110378   0.307   2.257   1.365 -0.9887 -0.0153 -0.4812
 1686SOL    HW210379   0.178   2.295   1.296  0.1208  1.1877 -1.9602
 1687SOL     OW10380   4.580   1.944   4.755  0.2701 -0.5866 -0.8686
 1687SOL    HW110381   4.585   2.010   4.824 -0.3572 -0.3425 -1.0530
 1687SOL    HW210382   4.632   1.979   4.683 -1.7992  0.7557 -1.8109
 1688SOL     OW10383   7.568  10.221   6.141  0.0095 -0.1361 -0.1588
 1688SOL    HW110384   7.477  10.192   6.140  0.0387 -0.3780  1.3494
 1688SOL    HW210385   7.609  10.178   6.066 -1.4125  1.0592 -1.6893
 1689SOL     OW10386   0.094   1.843   7.989  0.2239 -0.1556 -0.3450
 1689SOL    HW110387   0.047   1.793   8.056 -0.0282  0.1845 -0.2616
 1689SOL    HW210388   0.094   1.786   7.912  2.6499 -1.5914  0.6186
 1690SOL     OW10389   3.042  10.558   0.019 -0.2431 -0.2197 -0.4635
 1690SOL    HW110390   3.019  10.504   0.094 -2.2632  0.8612 -0.2454
 1690SOL    HW210391   3.095  10.501  -0.037  1.6830 -0.9190  1.9327
 1691SOL     OW10392   0.322   7.862   6.553 -0.2556  0.2662  0.6279
 1691SOL    HW110393   0.332   7.834   6.644 -0.5064  2.7396  1.4940
 1691SOL    HW210394   0.412   7.873   6.522 -0.1662 -0.7124  0.4888
 1692SOL     OW10395   8.222   7.047   7.890 -0.3473  0.1272 -0.2722
 1692SOL    HW110396   8.155   6.993   7.849 -1.7810  2.2452 -0.8845
 1692SOL    HW210397   8.294   6.986   7.909 -1.6530 -1.8536 -1.3416
 1693SOL     OW10398   5.468   5.212   2.076  0.1405  0.3599 -0.0410
 1693SOL    HW110399   5.542   5.269   2.097 -1.1176  2.2328 -0.4100
 1693SOL    HW210400   5.417   5.262   2.013 -0.9952 -1.2586 -0.4598
 1694SOL     OW10401   4.067   9.613  10.311  0.5159 -0.0280 -0.7431
 1694SOL    HW110402   4.069   9.678  10.241 -0.1009  1.6372  0.7175
 1694SOL    HW210403   4.137   9.551  10.288  1.1824  1.1851 -2.1333
 1695SOL     OW10404   1.221   8.115   6.229 -0.0089  0.7054 -0.0507
 1695SOL    HW110405   1.147   8.151   6.278 -2.4939 -2.9681 -0.7121
 1695SOL    HW210406   1.288   8.097   6.296 -1.0864  0.9182  1.1149
 1696SOL     OW10407   6.626   7.212   3.760 -0.2898  0.3828 -0.3884
 1696SOL    HW110408   6.656   7.175   3.677 -2.0619  0.4500 -1.0857
 1696SOL    HW210409   6.618   7.136   3.818 -1.7159 -0.0796 -1.1375
 1697SOL     OW10410   0.159   2.728   3.471  0.7331  0.1869  0.5259
 1697SOL    HW110411   0.158   2.817   3.506  0.1040 -0.0771  1.2038
 1697SOL    HW210412   0.122   2.674   3.541  1.2157 -0.6283  0.1670
 1698SOL     OW10413   8.043   7.116   2.610 -0.4950 -0.2501  0.1342
 1698SOL    HW110414   8.077   7.200   2.642 -0.7129  0.5495 -1.6259
 1698SOL    HW210415   7.952   7.114   2.640 -0.9519  0.8790 -1.0945
 1699SOL     OW10416   3.547  11.658   9.425 -0.3371 -0.3489  0.3838
 1699SOL    HW110417   3.588  11.577   9.394 -0.1132  0.7764 -2.5486
 1699SOL    HW210418   3.456  11.651   9.397 -0.5278  0.0872  0.8779
 1700SOL     OW10419   0.468   4.484   4.228 -0.7743 -0.2768 -0.3181
 1700SOL    HW110420   0.378   4.514   4.241 -0.9978 -1.5291  1.2334
 1700SOL    HW210421   0.521   4.546   4.277 -0.5440  1.5835 -2.7404
 1701SOL     OW10422  11.249   2.058   8.020 -0.0543  0.2939 -0.0150
 1701SOL    HW110423  11.179   2.107   8.063  0.7503  2.2701 -0.8266
 1701SOL    HW210424  11.328   2.111   8.036  1.0353 -1.2256 -0.1787
 1702SOL     OW10425   0.021   9.817   9.689 -0.2158 -0.0069 -0.1811
 1702SOL    HW110426   0.022   9.873   9.611  0.2165  0.9688  0.4979
 1702SOL    HW210427   0.113   9.809   9.714 -0.4563  1.3102  1.3193
 1703SOL     OW10428   7.170   9.532  10.406  0.1478 -0.5304 -0.5927
 1703SOL    HW110429   7.190   9.511  10.315  0.6653  0.8552 -0.8209
 1703SOL    HW210430   7.255   9.533  10.450  0.0241 -0.0620 -0.3538
 1704SOL     OW10431   7.402   0.985   0.462 -0.1632 -0.5252  0.5744
 1704SOL    HW110432   7.462   0.915   0.486 -1.7477 -1.6065  1.6356
 1704SOL    HW210433   7.352   1.002   0.542 -0.4357  1.2134  0.0874
 1705SOL     OW10434   6.021   9.819   7.384 -0.4048 -0.4907 -0.4400
 1705SOL    HW110435   6.036   9.725   7.373 -0.3655 -0.7345  1.3206
 1705SOL    HW210436   5.933   9.826   7.420 -0.0488  0.0528  0.3732
 1706SOL     OW10437   1.618   7.164  10.042  0.2242 -0.7909 -0.2850
 1706SOL    HW110438   1.649   7.252  10.064  0.2133 -0.5201 -1.3031
 1706SOL    HW210439   1.529   7.161  10.076 -0.1754 -0.0012 -1.1951
 1707SOL     OW10440  10.698   4.498   5.815  0.1836 -0.2329  0.4030
 1707SOL    HW110441  10.647   4.536   5.743  0.0365  0.6830  0.9733
 1707SOL    HW210442  10.719   4.572   5.871 -1.3306 -1.1910  2.3310
 1708SOL     OW10443   9.097   2.913   6.994 -0.2250 -0.2382 -0.0255
 1708SOL    HW110444   9.142   2.834   7.022 -1.0791 -0.0634  2.0310
 1708SOL    HW210445   9.153   2.985   7.024  1.3154  0.0178 -3.2098
 1709SOL     OW10446   0.705   8.814   5.736 -0.2185 -0.3731  0.6462
 1709SOL    HW110447   0.655   8.795   5.815  1.0989  0.1023  1.6200
 1709SOL    HW210448   0.643   8.860   5.679 -0.7913  0.5642  1.9895
 1710SOL     OW10449  10.188   4.455   6.718  0.4372 -0.1457 -0.3384
 1710SOL    HW110450  10.134   4.532   6.735 -0.5953 -1.4454  3.0668
 1710SOL    HW210451  10.275   4.480   6.748  0.2360 -0.0995  0.2162
 1711SOL     OW10452   0.279  11.330  10.008 -0.2575 -0.0348 -0.7379
 1711SOL    HW110453   0.338  11.370  10.073  0.5060 -0.5367 -1.1222
 1711SOL    HW210454   0.336  11.281   9.950 -0.8249  1.1516 -2.3731
 1712SOL     OW10455   9.458   7.139   3.526  0.0483 -0.3736 -0.1325
 1712SOL    HW110456   9.424   7.086   3.598  1.9361 -1.3199  0.1277
 1712SOL    HW210457   9.549   7.110   3.516  0.4996  1.3293 -1.4144
 1713SOL     OW10458   0.678   8.786   0.392 -0.0922 -0.6323  0.5498
 1713SOL    HW110459   0.634   8.703   0.374  1.4642 -1.0638 -1.6511
 1713SOL    HW210460   0.722   8.809   0.310 -1.2011  2.8818  0.7468
 1714SOL     OW10461   6.505   4.304   4.469  0.0070 -0.1931  0.3382
 1714SOL    HW110462   6.415   4.273   4.460 -0.5561  1.1761  0.9693
 1714SOL    HW210463   6.523   4.300   4.563 -0.4342  2.1824  0.5859
 1715SOL     OW10464   4.441   7.121   5.360 -0.1359 -0.2954  0.2878
 1715SOL    HW110465   4.391   7.193   5.323  1.0888 -0.2918 -1.5073
 1715SOL    HW210466   4.429   7.049   5.298  0.0886 -1.0626  1.1191
 1716SOL     OW10467   6.104  11.188   8.496 -0.3668 -1.1931 -0.2106
 1716SOL    HW110468   6.187  11.165   8.455 -0.8626 -1.2523 -1.2179
 1716SOL    HW210469   6.127  11.255   8.560  0.3834 -0.7917 -0.8785
 1717SOL     OW10470   8.329  10.524   0.923 -0.1110  0.1182  0.0768
 1717SOL    HW110471   8.354  10.514   1.015  0.6225  0.0310 -0.1195
 1717SOL    HW210472   8.245  10.569   0.926  1.3655  3.1118  0.7784
 1718SOL     OW10473   9.324   6.920   1.800 -0.0933  0.2469  0.4109
 1718SOL    HW110474   9.267   6.966   1.738  0.1567 -0.8916 -0.7127
 1718SOL    HW210475   9.410   6.960   1.788  0.4235 -1.2807 -1.5087
 1719SOL     OW10476   2.049   6.804   4.541 -0.1894 -0.5010 -0.4428
 1719SOL    HW110477   1.969   6.850   4.567 -1.0208 -1.2556 -1.5710
 1719SOL    HW210478   2.117   6.870   4.548 -1.1860  0.6405 -1.0598
 1720SOL     OW10479   7.554   1.110  10.188  0.0952  0.1532  0.3641
 1720SOL    HW110480   7.593   1.046  10.127  0.3922  0.4559  0.2289
 1720SOL    HW210481   7.545   1.190  10.135 -1.7825 -0.2155  0.0544
 1721SOL     OW10482  10.232  10.764   8.296  0.2199  0.5892  0.0866
 1721SOL    HW110483  10.263  10.719   8.374  2.6667 -0.3952 -1.3732
 1721SOL    HW210484  10.307  10.814   8.265 -0.9153  1.5640 -1.2479
 1722SOL     OW10485   0.313   8.438  10.990 -0.1400  0.3622  0.1257
 1722SOL    HW110486   0.281   8.460  11.078  0.1538  0.0869  0.3015
 1722SOL    HW210487   0.358   8.354  11.001  2.4033  1.6566  0.2757
 1723SOL     OW10488   9.722  10.437   9.009 -0.4388 -0.0439 -0.2169
 1723SOL    HW110489   9.766  10.355   9.032  0.6726  0.2124 -1.3084
 1723SOL    HW210490   9.630  10.413   9.002 -0.1377 -1.1986 -0.4703
 1724SOL     OW10491   8.931   0.611   3.197 -0.3006 -0.3405  0.2609
 1724SOL    HW110492   8.930   0.704   3.174 -0.7599 -0.3458  0.2508
 1724SOL    HW210493   8.910   0.610   3.291 -2.5957 -0.5599 -0.2165
 1725SOL     OW10494   2.249   4.862   8.708  0.1265 -0.1593  0.3988
 1725SOL    HW110495   2.155   4.846   8.722 -0.0217 -0.1427 -0.4721
 1725SOL    HW210496   2.254   4.955   8.688 -0.0154 -0.5647 -1.8661
 1726SOL     OW10497   3.683   0.033   2.621 -0.4950 -0.1478  0.4803
 1726SOL    HW110498   3.739   0.047   2.698  1.3845  0.6544 -0.9404
 1726SOL    HW210499   3.731  -0.033   2.570 -2.0942 -1.2236  0.3103
 1727SOL     OW10500  10.926  10.817   9.712  0.1370  0.3798 -0.0758
 1727SOL    HW110501  10.901  10.725   9.707  2.3098 -0.2762 -0.2494
 1727SOL    HW210502  10.871  10.854   9.780 -0.3771 -1.2028  0.4051
 1728SOL     OW10503   4.348   8.983   3.904 -0.1041  0.6090  0.5030
 1728SOL    HW110504   4.271   8.964   3.850 -0.7527  1.7313  0.9724
 1728SOL    HW210505   4.409   8.912   3.886 -0.9058  0.1597 -0.5483
 1729SOL     OW10506   9.347   9.112  11.117 -0.0991 -0.1080  0.2014
 1729SOL    HW110507   9.418   9.065  11.161  0.1375  1.1311  1.2063
 1729SOL    HW210508   9.342   9.196  11.163 -0.0834  1.1338 -1.9330
 1730SOL     OW10509   3.052   6.411   8.739  0.3260 -0.2327 -0.5555
 1730SOL    HW110510   2.961   6.432   8.719  0.6267  1.5109 -0.2194
 1730SOL    HW210511   3.102   6.486   8.707  1.7129 -1.3242 -1.0814
 1731SOL     OW10512  10.183   7.487  10.899 -0.2637 -0.2875 -0.2482
 1731SOL    HW110513  10.137   7.497  10.816 -0.8977  0.1024  0.1396
 1731SOL    HW210514  10.269   7.452  10.876 -1.1149 -2.0415 -0.9144
 1732SOL     OW10515   6.675  11.353   2.759  0.2899  0.0532 -0.3799
 1732SOL    HW110516   6.730  11.429   2.775 -1.4073  1.7331 -1.9755
 1732SOL    HW210517   6.699  11.323   2.672  2.3076 -2.5865  0.9341
 1733SOL     OW10518   6.236   1.465   7.269  0.1478  0.4263 -0.0627
 1733SOL    HW110519   6.248   1.380   7.226 -0.0973  1.2703 -1.8859
 1733SOL    HW210520   6.180   1.446   7.344  1.2372 -1.2345  0.3874
 1734SOL     OW10521   2.443  10.375   0.860  0.6980  0.0315 -0.3757
 1734SOL    HW110522   2.380  10.357   0.930  3.0840 -1.7749  1.4836
 1734SOL    HW210523   2.414  10.320   0.787 -0.7113  0.4124 -0.1349
 1735SOL     OW10524   1.649   9.219   8.416  0.1846  0.1549  0.3702
 1735SOL    HW110525   1.620   9.309   8.403 -2.0366 -0.4360  0.7521
 1735SOL    HW210526   1.604   9.169   8.347  1.2239 -0.7026  0.2804
 1736SOL     OW10527   6.250   1.637  10.248  0.3587 -0.2899  0.8045
 1736SOL    HW110528   6.279   1.724  10.276  0.7453 -0.0305 -0.3306
 1736SOL    HW210529   6.314   1.576  10.284 -0.0653 -0.1388  1.8327
 1737SOL     OW10530   1.491  11.075   1.252  0.3333 -0.2359 -0.2485
 1737SOL    HW110531   1.432  11.058   1.326  1.5648 -2.5738  0.3226
 1737SOL    HW210532   1.438  11.056   1.175 -0.0253 -1.0978  0.1931
 1738SOL     OW10533   9.362   4.665   9.697 -0.6689 -0.3315 -0.7215
 1738SOL    HW110534   9.404   4.593   9.744  0.5701  1.0839  0.4335
 1738SOL    HW210535   9.388   4.652   9.606 -1.9512 -2.3132 -0.8713
 1739SOL     OW10536   6.905   4.829   8.777  0.6508 -0.2097 -0.0972
 1739SOL    HW110537   6.998   4.849   8.772  0.9612 -1.8265 -2.8022
 1739SOL    HW210538   6.901   4.734   8.788 -0.5997 -0.3676 -1.4530
 1740SOL     OW10539   4.421  11.560   1.330 -0.8952 -0.1418 -0.0331
 1740SOL    HW110540   4.461  11.490   1.280 -3.0395 -1.4314 -0.0892
 1740SOL    HW210541   4.414  11.633   1.268  2.7083  0.7773  0.4412
 1741SOL     OW10542   4.486   9.199   3.329 -0.3412  0.8559  0.7787
 1741SOL    HW110543   4.528   9.284   3.334  0.0936  0.7513 -0.5271
 1741SOL    HW210544   4.476   9.171   3.419 -1.3744  2.7103  1.2905
 1742SOL     OW10545  11.481   2.744   2.963 -0.1541  0.1727 -0.0585
 1742SOL    HW110546  11.506   2.680   2.896 -0.7963  0.7706 -0.8899
 1742SOL    HW210547  11.418   2.697   3.018 -1.0338  0.2375 -0.9875
 1743SOL     OW10548   7.172   5.633   3.850 -0.0481  0.7376  0.1496
 1743SOL    HW110549   7.245   5.578   3.880  1.2720  2.1317 -0.3874
 1743SOL    HW210550   7.183   5.715   3.898 -0.0910  1.6702 -1.3882
 1744SOL     OW10551   4.450   9.624   5.251 -0.3955  0.2811 -0.4943
 1744SOL    HW110552   4.536   9.651   5.284 -0.6583  0.7762 -0.2165
 1744SOL    HW210553   4.466   9.538   5.211  0.1100  0.1015  0.0896
 1745SOL     OW10554  11.534  10.906  10.085 -0.3546  0.8289 -0.1844
 1745SOL    HW110555  11.461  10.949  10.041 -1.2205 -1.8744 -1.6429
 1745SOL    HW210556  11.543  10.822  10.040  2.2403  0.1239  1.4191
 1746SOL     OW10557   5.283  10.041   6.225  0.0896 -0.1753 -0.1285
 1746SOL    HW110558   5.282  10.016   6.317  1.8713  1.9425  0.5534
 1746SOL    HW210559   5.369  10.015   6.193 -0.1475 -0.0018 -0.9328
 1747SOL     OW10560   2.191   3.526   7.509  0.2217 -0.7250  0.0928
 1747SOL    HW110561   2.251   3.453   7.524 -0.4409 -1.2175  0.4347
 1747SOL    HW210562   2.155   3.546   7.596  0.3414 -0.0403 -0.0102
 1748SOL     OW10563   3.954  10.779   9.371 -0.1969 -0.6222  0.1802
 1748SOL    HW110564   3.986  10.824   9.293 -0.7130 -0.0204  0.3015
 1748SOL    HW210565   4.021  10.795   9.438 -0.8888  0.9660  0.5473
 1749SOL     OW10566   6.641   1.292  10.454  0.0509 -0.2220 -0.1590
 1749SOL    HW110567   6.726   1.274  10.495  0.4812 -1.1335 -1.3562
 1749SOL    HW210568   6.651   1.257  10.365 -1.5479 -0.2397 -0.3502
 1750SOL     OW10569   8.945   1.128   3.693  0.9352  0.1738  0.6401
 1750SOL    HW110570   8.916   1.108   3.604  0.6937 -1.4787  1.0612
 1750SOL    HW210571   9.017   1.068   3.709  0.5532 -0.0144  1.7805
 1751SOL     OW10572   8.888   9.771   2.564  0.2581  0.2205 -0.8318
 1751SOL    HW110573   8.850   9.684   2.572 -0.2823  0.6067  1.2841
 1751SOL    HW210574   8.977   9.761   2.597  0.0315  0.5441 -0.0923
 1752SOL     OW10575   0.932  11.762   1.715 -0.2277 -0.0869  0.5020
 1752SOL    HW110576   0.906  11.811   1.637 -0.8621  1.5133  1.6771
 1752SOL    HW210577   1.005  11.812   1.752  0.2701 -0.9958  0.7971
 1753SOL     OW10578   8.406   0.023   7.300  0.1676 -0.6327 -0.3278
 1753SOL    HW110579   8.364  -0.063   7.300  1.3083 -1.2349  1.0959
 1753SOL    HW210580   8.363   0.071   7.371  1.4116 -1.0599  0.7692
 1754SOL     OW10581   4.920   1.505   8.525 -0.1403 -0.5057 -0.5099
 1754SOL    HW110582   4.927   1.438   8.458 -1.1622 -0.8264 -0.3146
 1754SOL    HW210583   4.990   1.485   8.587 -0.5652 -1.5259 -0.3456
 1755SOL     OW10584   4.718   0.214   9.391 -0.1025 -0.3176 -0.0180
 1755SOL    HW110585   4.752   0.292   9.347  0.2866 -0.8680 -0.7108
 1755SOL    HW210586   4.796   0.170   9.426 -0.3527 -0.2143  0.7009
 1756SOL     OW10587   7.182   4.916   8.633 -0.2034  0.1657  0.1745
 1756SOL    HW110588   7.271   4.887   8.654  0.1509  2.0064  1.3323
 1756SOL    HW210589   7.194   4.998   8.585 -1.2896  1.0020  1.2817
 1757SOL     OW10590   8.957   5.570   5.998  0.2191 -0.1153 -0.0657
 1757SOL    HW110591   8.884   5.550   6.056 -1.0704  0.9883 -1.2262
 1757SOL    HW210592   9.006   5.488   5.992 -2.5967 -1.8473 -1.5411
 1758SOL     OW10593   3.544   8.882   9.821  0.2956 -0.2345  0.3043
 1758SOL    HW110594   3.474   8.817   9.817  1.0214 -1.0705  0.9316
 1758SOL    HW210595   3.498   8.966   9.818 -0.6364 -0.7582 -0.7678
 1759SOL     OW10596   9.244  11.598   7.372  0.6184  0.4670  0.2716
 1759SOL    HW110597   9.186  11.525   7.394 -0.3796  1.0201 -0.4185
 1759SOL    HW210598   9.320  11.558   7.330  0.1567 -0.1899  0.0549
 1760SOL     OW10599   0.359   5.247   4.947 -0.0795  0.0562 -0.2942
 1760SOL    HW110600   0.273   5.285   4.964  0.4429  0.5382  1.5187
 1760SOL    HW210601   0.418   5.322   4.943  0.6235 -0.4037  1.0084
 1761SOL     OW10602  10.520   1.839   7.787 -0.1499 -0.5941 -0.6575
 1761SOL    HW110603  10.493   1.884   7.867 -0.7661 -1.3563 -0.4164
 1761SOL    HW210604  10.469   1.880   7.718  0.6997  0.3626 -0.7432
 1762SOL     OW10605   7.375   8.122   9.343  0.5141 -0.1017 -0.0897
 1762SOL    HW110606   7.409   8.071   9.270  0.5787  1.6427 -1.3335
 1762SOL    HW210607   7.443   8.187   9.361 -0.3318  0.7247  0.2098
 1763SOL     OW10608   2.873   8.520   4.091  0.6762  0.3629 -0.8658
 1763SOL    HW110609   2.779   8.518   4.110  0.8398  0.2227 -0.0213
 1763SOL    HW210610   2.907   8.439   4.128  0.9489 -0.1946 -2.2702
 1764SOL     OW10611   7.373   2.023   1.714  0.4866  0.2080  0.3358
 1764SOL    HW110612   7.301   1.978   1.671  0.6717 -0.2669  0.5216
 1764SOL    HW210613   7.334   2.064   1.791  0.5967 -0.8659  0.9782
 1765SOL     OW10614   9.917  10.240   3.008 -0.0970  0.7509 -0.2340
 1765SOL    HW110615   9.833  10.273   3.040 -0.1430 -0.5650  1.1202
 1765SOL    HW210616   9.970  10.319   2.994 -0.2420  1.4956  2.7327
 1766SOL     OW10617  11.528  11.731  10.278 -0.2228  0.6549 -0.7295
 1766SOL    HW110618  11.595  11.770  10.222 -0.0561 -1.0949 -1.8515
 1766SOL    HW210619  11.553  11.638  10.284 -1.0526  0.5002  1.0828
 1767SOL     OW10620   0.921   0.820  11.699  0.0947 -0.7347  0.5604
 1767SOL    HW110621   0.964   0.864  11.625  1.5419 -0.1966  1.6699
 1767SOL    HW210622   0.881   0.742  11.661 -0.2634  0.1707 -0.9977
 1768SOL     OW10623   7.844   8.665   6.908 -0.1148 -0.9310 -0.5366
 1768SOL    HW110624   7.851   8.604   6.982 -1.8049 -0.8533 -0.2739
 1768SOL    HW210625   7.867   8.750   6.945  0.5784 -1.1364 -0.4877
 1769SOL     OW10626   6.504   8.628  10.104 -0.1711  0.0582 -0.1219
 1769SOL    HW110627   6.536   8.673  10.026 -0.6325 -0.2437 -0.4895
 1769SOL    HW210628   6.410   8.619  10.090 -0.4784  1.1638  1.0577
 1770SOL     OW10629   4.284   5.476   5.203 -0.0624  0.2448 -0.8441
 1770SOL    HW110630   4.321   5.546   5.148  1.7041  0.6983  0.8050
 1770SOL    HW210631   4.351   5.408   5.202  0.0396  0.2783  0.7082
 1771SOL     OW10632  10.010   5.818   7.724 -0.7625  0.6518  0.1219
 1771SOL    HW110633   9.940   5.797   7.663 -0.3508 -0.3888 -0.0138
 1771SOL    HW210634  10.032   5.734   7.765  1.2181  0.7155 -0.7210
 1772SOL     OW10635   5.511   7.338   9.009 -0.2882 -0.2425 -0.1369
 1772SOL    HW110636   5.605   7.332   8.991 -0.1005  1.5037  0.1006
 1772SOL    HW210637   5.494   7.264   9.067  1.1778 -0.0229  0.6461
 1773SOL     OW10638   2.968   3.745   6.008 -0.3088  0.3050 -0.2501
 1773SOL    HW110639   2.983   3.659   5.967  1.6702  0.4518  0.0874
 1773SOL    HW210640   2.968   3.727   6.102  0.1274  0.6735 -0.1792
 1774SOL     OW10641  11.627   7.402   4.247  0.2994 -0.5158 -0.1481
 1774SOL    HW110642  11.663   7.362   4.168  1.9097  1.0317 -0.2407
 1774SOL    HW210643  11.551   7.452   4.215  0.8665  0.0045 -0.7029
 1775SOL     OW10644   2.877   8.017   9.246 -0.2008  0.3307  0.5127
 1775SOL    HW110645   2.785   7.992   9.252  0.2169 -1.0677  1.6911
 1775SOL    HW210646   2.920   7.968   9.317  1.5718  0.3499 -0.4920
 1776SOL     OW10647   4.354   6.385   4.986  0.7424 -0.0525 -0.4816
 1776SOL    HW110648   4.375   6.449   4.918 -0.3317  0.1700 -0.6240
 1776SOL    HW210649   4.439   6.356   5.019  1.2686  2.4036  0.5292
 1777SOL     OW10650   6.915   6.817  11.604 -0.0348  0.4400 -0.8867
 1777SOL    HW110651   6.966   6.833  11.525  0.0363  0.2696 -0.8769
 1777SOL    HW210652   6.835   6.776  11.573  0.3818 -0.4590 -0.7986
 1778SOL     OW10653  11.318   1.694   7.742  0.3777  0.3166 -0.2498
 1778SOL    HW110654  11.383   1.672   7.809  0.7253  0.0787 -0.6570
 1778SOL    HW210655  11.259   1.618   7.740 -0.4098  0.8711  0.6867
 1779SOL     OW10656   2.636   2.437   5.996  0.3875 -0.2527  0.3145
 1779SOL    HW110657   2.661   2.501   5.929  1.2735 -0.2244  0.6699
 1779SOL    HW210658   2.703   2.369   5.992 -0.8846 -1.5111 -0.4930
 1780SOL     OW10659   9.671   0.613   7.746 -0.0927  0.2127  0.0135
 1780SOL    HW110660   9.724   0.685   7.711  1.6845 -1.1264 -0.2214
 1780SOL    HW210661   9.735   0.553   7.785 -1.7750  0.6665  3.9985
 1781SOL     OW10662   1.116   5.092  11.529 -0.4362  0.0391  0.1904
 1781SOL    HW110663   1.125   5.032  11.455 -0.4280 -0.6506  0.7457
 1781SOL    HW210664   1.044   5.150  11.504 -0.8949 -0.6291 -0.0651
 1782SOL     OW10665   0.966  10.254   8.133 -0.3231 -0.4260 -0.2099
 1782SOL    HW110666   0.875  10.283   8.132 -0.3248 -0.4095  0.5414
 1782SOL    HW210667   0.980  10.219   8.044 -0.6221  0.8907 -0.7990
 1783SOL     OW10668   2.093   1.149   5.169 -0.3174  1.2518 -0.4486
 1783SOL    HW110669   2.080   1.208   5.095 -0.9640  1.3911 -0.2323
 1783SOL    HW210670   2.180   1.171   5.202  0.0889  0.9951 -1.3307
 1784SOL     OW10671   2.742   6.508   3.734 -0.1543 -0.1137  0.3599
 1784SOL    HW110672   2.782   6.595   3.746 -1.0219  0.5206 -1.0479
 1784SOL    HW210673   2.671   6.523   3.671 -0.4304 -1.8266  0.2195
 1785SOL     OW10674   9.158   9.108   4.608  0.8221  0.2516 -0.1199
 1785SOL    HW110675   9.159   9.177   4.542  0.9517  1.2369  0.8841
 1785SOL    HW210676   9.078   9.124   4.658  1.0638 -0.0830  0.3789
 1786SOL     OW10677   6.804   0.908   6.718  0.7885 -0.1065  0.7100
 1786SOL    HW110678   6.877   0.964   6.692  1.6811 -1.9336 -0.9637
 1786SOL    HW210679   6.726   0.962   6.704  1.5125  0.3719 -2.1244
 1787SOL     OW10680  10.687   1.524   3.930  0.0438 -0.1398 -0.1269
 1787SOL    HW110681  10.608   1.578   3.919 -0.6845 -1.3814 -1.3659
 1787SOL    HW210682  10.758   1.587   3.942 -1.4030  1.0316  3.7051
 1788SOL     OW10683  10.226   9.634   8.146  0.5929 -0.0788 -0.1779
 1788SOL    HW110684  10.252   9.717   8.105 -1.4107  0.7271  0.0913
 1788SOL    HW210685  10.226   9.653   8.240  1.9706 -0.9795  0.0386
 1789SOL     OW10686  10.115  11.174   5.786  0.5838  0.0738 -0.2299
 1789SOL    HW110687  10.082  11.257   5.821  0.8053 -0.4893  1.4168
 1789SOL    HW210688  10.179  11.145   5.851 -1.6189 -2.8376  0.8578
 1790SOL     OW10689   1.181   0.502   5.763 -0.1898  0.5434 -0.3584
 1790SOL    HW110690   1.095   0.541   5.779 -0.3111  0.3451 -0.5070
 1790SOL    HW210691   1.186   0.429   5.826 -0.3176  0.2805 -0.6501
 1791SOL     OW10692   3.128   3.649   0.400 -0.2266  0.1822  0.4593
 1791SOL    HW110693   3.153   3.567   0.357 -0.8031  0.3630 -0.2287
 1791SOL    HW210694   3.042   3.670   0.364 -0.1529  1.0116  0.7512
 1792SOL     OW10695   3.395   7.155  11.312  0.0656  0.5433  0.0410
 1792SOL    HW110696   3.311   7.188  11.280 -0.3645 -1.5591 -1.1502
 1792SOL    HW210697   3.457   7.225  11.293 -1.0688  1.3490 -0.8460
 1793SOL     OW10698   0.519   5.705   5.994 -0.1529  0.2976 -0.8482
 1793SOL    HW110699   0.426   5.686   6.004 -0.0975 -0.5191 -1.7590
 1793SOL    HW210700   0.524   5.760   5.916  0.2642 -1.1215 -1.8710
 1794SOL     OW10701  10.420   6.777  11.601 -0.1243  0.0053  0.2076
 1794SOL    HW110702  10.383   6.790  11.513  0.5926  1.6490  0.1027
 1794SOL    HW210703  10.390   6.853  11.651 -1.6909 -1.5995  1.8520
 1795SOL     OW10704   6.522   1.056   8.155 -0.2128 -0.4931 -0.0984
 1795SOL    HW110705   6.501   1.014   8.072  1.3883  1.7092 -1.7355
 1795SOL    HW210706   6.616   1.040   8.168  0.0692  1.0853  0.0573
 1796SOL     OW10707   6.685   2.010   7.119  0.4867 -0.6478 -0.0512
 1796SOL    HW110708   6.593   2.034   7.112  0.6784  0.3487  0.6347
 1796SOL    HW210709   6.699   1.949   7.047 -0.2859  0.5643 -1.2841
 1797SOL     OW10710   6.823   5.624   9.635 -0.3059 -0.1281 -0.1373
 1797SOL    HW110711   6.822   5.667   9.550 -1.0802 -2.3889 -1.3604
 1797SOL    HW210712   6.863   5.538   9.619 -0.6965 -0.7171  1.7131
 1798SOL     OW10713   4.468   6.842   2.461  0.0941  0.2857  0.4046
 1798SOL    HW110714   4.542   6.828   2.520  1.0182  0.5629 -0.6767
 1798SOL    HW210715   4.503   6.895   2.389 -1.0873  0.2023 -0.2589
 1799SOL     OW10716   6.850  10.822  11.222  0.3023  0.2232  0.3874
 1799SOL    HW110717   6.755  10.822  11.228  0.3614 -0.8127  1.7923
 1799SOL    HW210718   6.880  10.872  11.298  0.8795  1.4162 -0.5965
 1800SOL     OW10719   3.840   2.564   7.453  0.0260 -0.5005  0.0320
 1800SOL    HW110720   3.798   2.492   7.405  1.6569 -0.9589 -0.7900
 1800SOL    HW210721   3.926   2.573   7.411 -0.1672  2.0237  0.0242
 1801SOL     OW10722  10.041   5.892   1.164 -0.1366 -0.4307 -0.8708
 1801SOL    HW110723   9.982   5.885   1.089 -2.2568 -0.3219  0.7123
 1801SOL    HW210724  10.050   5.986   1.179 -0.3022 -0.4604 -0.5686
 1802SOL     OW10725   2.815   0.647   8.210 -0.2629  0.1443  0.0614
 1802SOL    HW110726   2.822   0.731   8.165  1.2405 -0.1308 -0.2953
 1802SOL    HW210727   2.870   0.588   8.158 -0.4742 -0.8001  0.8803
 1803SOL     OW10728  11.259   6.699   8.545 -0.1780 -0.0731  0.8928
 1803SOL    HW110729  11.198   6.664   8.609 -0.4196 -0.1107  0.6435
 1803SOL    HW210730  11.341   6.651   8.560 -0.5453 -0.8436  0.4703
 1804SOL     OW10731   3.514   4.539  11.073 -0.3296 -0.3158  0.0987
 1804SOL    HW110732   3.527   4.590  10.994 -0.5729 -1.3399 -0.6189
 1804SOL    HW210733   3.589   4.561  11.129 -0.0900  0.3084 -0.4637
 1805SOL     OW10734   4.397   8.982  10.918 -0.0476 -0.7606 -0.3669
 1805SOL    HW110735   4.491   8.989  10.902  0.1547  1.0885  1.3245
 1805SOL    HW210736   4.385   8.893  10.951  1.3958 -0.4765  1.0168
 1806SOL     OW10737   7.887   8.763  10.222  0.3569  0.2016 -0.4243
 1806SOL    HW110738   7.863   8.770  10.130 -1.2733 -0.2883 -0.0711
 1806SOL    HW210739   7.876   8.670  10.242  1.3238  0.1947  0.1108
 1807SOL     OW10740   3.218   7.148   2.246  0.0836 -0.4174  0.0138
 1807SOL    HW110741   3.174   7.185   2.322 -1.7769 -0.8596 -0.8074
 1807SOL    HW210742   3.225   7.221   2.185  0.9887 -0.2260  0.3246
 1808SOL     OW10743   5.902   3.025   6.825  0.1773 -0.2093  0.1743
 1808SOL    HW110744   5.880   2.992   6.738 -0.4722 -1.3292  0.7527
 1808SOL    HW210745   5.821   3.019   6.875  0.5700  0.3210  0.9006
 1809SOL     OW10746   6.227  10.212  10.891 -0.0813 -0.3629  0.8099
 1809SOL    HW110747   6.255  10.156  10.818 -1.5957  0.0924 -0.1728
 1809SOL    HW210748   6.150  10.169  10.926  1.0820 -1.0085  2.7405
 1810SOL     OW10749   2.693   9.279   8.441  0.2774  0.3227 -0.2428
 1810SOL    HW110750   2.607   9.299   8.478 -0.5560  0.1993 -1.9938
 1810SOL    HW210751   2.754   9.292   8.513 -1.0074  2.1940  0.5833
 1811SOL     OW10752   0.862   3.696   5.084 -0.0932 -0.1340  0.1503
 1811SOL    HW110753   0.815   3.754   5.144  0.2262 -0.9152  1.1777
 1811SOL    HW210754   0.940   3.669   5.132  0.2658 -0.6350 -0.6907
 1812SOL     OW10755   5.740   9.522   8.224 -0.5282  0.1987 -0.4870
 1812SOL    HW110756   5.813   9.498   8.282  0.5100  1.3531 -1.2561
 1812SOL    HW210757   5.670   9.462   8.247 -0.1483  0.5864  1.9487
 1813SOL     OW10758   7.592   2.735   8.940  0.5296 -0.4154 -0.0388
 1813SOL    HW110759   7.602   2.646   8.908 -1.3336 -0.8110  0.3218
 1813SOL    HW210760   7.498   2.753   8.933  0.7524  1.2494  0.5947
 1814SOL     OW10761   0.138  11.040  11.611  0.7795 -0.3294 -0.1234
 1814SOL    HW110762   0.141  11.135  11.622 -0.9615 -0.3015  0.3608
 1814SOL    HW210763   0.073  11.025  11.543 -1.3740 -1.2366  1.9694
 1815SOL     OW10764   3.323  11.767   2.147 -0.2165  0.3836 -0.1170
 1815SOL    HW110765   3.276  11.690   2.116 -0.1774 -0.2793  1.3756
 1815SOL    HW210766   3.377  11.794   2.073 -0.0889 -1.1359 -0.6090
 1816SOL     OW10767   5.262   4.084   1.500  0.0696  0.7312 -0.4968
 1816SOL    HW110768   5.343   4.122   1.468 -0.3317  0.3947 -1.9972
 1816SOL    HW210769   5.192   4.137   1.461 -0.4575 -0.3066 -1.0131
 1817SOL     OW10770   9.937   8.521   2.606 -0.3306 -0.2714 -0.4617
 1817SOL    HW110771   9.899   8.453   2.550 -0.1102  0.4096 -1.4679
 1817SOL    HW210772   9.932   8.601   2.553  1.6988  0.0162 -0.2878
 1818SOL     OW10773   9.105   5.233   2.405  0.3412 -0.0517  0.2545
 1818SOL    HW110774   9.065   5.234   2.318 -0.4991  0.1332  0.6288
 1818SOL    HW210775   9.190   5.191   2.392 -1.0270 -2.9373 -0.1500
 1819SOL     OW10776   2.943   1.270   4.021  0.0380  0.1325  0.0218
 1819SOL    HW110777   2.879   1.338   3.999  0.4331  0.2284 -0.8848
 1819SOL    HW210778   2.950   1.275   4.116 -1.7423 -0.2933  0.2148
 1820SOL     OW10779  10.284   6.447   3.980  0.6885  0.1038  0.2796
 1820SOL    HW110780  10.370   6.484   3.961  0.3417  0.1683 -1.2433
 1820SOL    HW210781  10.254   6.410   3.897 -0.4932 -0.4650  0.9306
 1821SOL     OW10782  10.696   1.414   8.903 -0.1429  0.3183  0.4958
 1821SOL    HW110783  10.640   1.340   8.926 -0.1191 -0.5833 -1.9861
 1821SOL    HW210784  10.638   1.490   8.902 -0.9148 -0.2659 -0.1059
 1822SOL     OW10785   6.938   0.033   8.809  0.0993  0.1788  0.1331
 1822SOL    HW110786   6.888   0.097   8.758 -0.5914  0.1476  0.7617
 1822SOL    HW210787   6.950   0.074   8.894 -1.1017 -0.8626  0.8357
 1823SOL     OW10788   0.707   7.270  11.670 -0.3234 -0.5552 -1.0447
 1823SOL    HW110789   0.801   7.253  11.668  0.5706  3.2842  0.2250
 1823SOL    HW210790   0.684   7.290  11.579  0.9350  1.6989 -0.9476
 1824SOL     OW10791   3.470   3.178  11.399  0.4527  0.3264  0.1392
 1824SOL    HW110792   3.375   3.189  11.405  0.4528  0.1529  0.4949
 1824SOL    HW210793   3.487   3.163  11.306  0.4448  3.2125 -0.4240
 1825SOL     OW10794   0.528   1.620   1.039 -0.3967 -0.1230  0.5357
 1825SOL    HW110795   0.578   1.574   1.106  0.5460 -1.3368 -0.9182
 1825SOL    HW210796   0.567   1.708   1.037 -0.4096 -0.0837  1.5253
 1826SOL     OW10797   8.714   3.933   5.607  0.6678  0.0267  0.1591
 1826SOL    HW110798   8.748   4.022   5.594  0.5614 -0.1661 -1.7842
 1826SOL    HW210799   8.631   3.946   5.652 -0.3721  1.1339 -1.9227
 1827SOL     OW10800   4.737   9.684   5.251  0.5394  0.3172  0.7799
 1827SOL    HW110801   4.770   9.616   5.309 -0.1230  0.1739  1.0000
 1827SOL    HW210802   4.813   9.711   5.199  0.7740 -0.6862  0.5907
 1828SOL     OW10803   9.430   7.729   1.434 -0.8384 -0.1597  0.5652
 1828SOL    HW110804   9.469   7.649   1.399  2.3001  1.3924  0.1691
 1828SOL    HW210805   9.368   7.699   1.500 -1.2571 -2.9323 -0.9409
 1829SOL     OW10806   3.588   4.338   2.149  0.2580  0.3348 -0.3394
 1829SOL    HW110807   3.527   4.389   2.096  0.2773 -1.0865 -1.8020
 1829SOL    HW210808   3.537   4.312   2.225  0.0046  1.7803  0.0284
 1830SOL     OW10809   7.775   2.219   2.916 -0.7123 -0.3469 -0.2624
 1830SOL    HW110810   7.795   2.247   2.827  0.5941  0.6601  0.3173
 1830SOL    HW210811   7.807   2.128   2.920  1.1415  0.2641 -0.2461
 1831SOL     OW10812  10.919   0.303   0.061 -0.3905 -0.1203 -0.7128
 1831SOL    HW110813  10.829   0.271   0.068 -0.2069 -0.6637 -0.7163
 1831SOL    HW210814  10.972   0.229   0.091  0.1258 -0.4020 -2.2257
 1832SOL     OW10815   8.976   7.021   8.131 -0.2035  0.0912 -0.3437
 1832SOL    HW110816   8.884   7.003   8.112  0.0871 -1.0741 -0.7173
 1832SOL    HW210817   9.024   6.950   8.089  0.7631 -0.2051  1.1758
 1833SOL     OW10818   5.398   8.156   0.258  0.0908  0.0961 -0.0727
 1833SOL    HW110819   5.335   8.136   0.188  0.4041  0.6793 -0.5290
 1833SOL    HW210820   5.392   8.251   0.268 -0.9299 -0.1051  1.6361
 1834SOL     OW10821  11.338   2.688  11.107 -0.1857 -0.5979 -0.3358
 1834SOL    HW110822  11.422   2.680  11.153 -0.6477 -1.6396  0.3826
 1834SOL    HW210823  11.352   2.756  11.042  0.2670  1.5571  1.8868
 1835SOL     OW10824   1.590   2.782   6.059  0.1510  0.5873  0.1255
 1835SOL    HW110825   1.500   2.777   6.026  0.1738  2.5182 -0.3093
 1835SOL    HW210826   1.624   2.864   6.024  1.5039  0.7679  1.7543
 1836SOL     OW10827   2.694   9.340  11.113  0.3333 -0.4942 -0.7606
 1836SOL    HW110828   2.723   9.315  11.201 -0.2362  0.9994 -0.1107
 1836SOL    HW210829   2.598   9.342  11.119  0.2948  3.1832 -0.2617
 1837SOL     OW10830   0.019   6.542   9.205 -0.1550 -0.1403 -0.5254
 1837SOL    HW110831   0.097   6.567   9.156  0.2027 -0.8560 -0.3267
 1837SOL    HW210832  -0.002   6.454   9.174  0.4158 -0.8512  1.0172
 1838SOL     OW10833   9.094   8.332   4.861 -0.1748  0.2202 -0.0245
 1838SOL    HW110834   9.083   8.379   4.778  2.3387  0.3257 -0.3811
 1838SOL    HW210835   9.095   8.401   4.927 -1.2966  0.2074  0.0300
 1839SOL     OW10836  10.081   3.551  11.555 -0.1563 -0.1425  0.3470
 1839SOL    HW110837  10.097   3.540  11.461  0.3849 -1.8982  0.6027
 1839SOL    HW210838   9.986   3.559  11.562 -0.1107  1.4006 -0.4451
 1840SOL     OW10839   2.263   0.774   1.593 -0.0451  0.0239  0.1549
 1840SOL    HW110840   2.169   0.788   1.588 -0.2224 -0.8777  0.6461
 1840SOL    HW210841   2.289   0.749   1.504 -0.5517 -1.2467  0.3435
 1841SOL     OW10842   8.747  10.616   2.375  0.3074  0.5297 -0.5619
 1841SOL    HW110843   8.651  10.607   2.378  0.4488 -1.3175  2.0406
 1841SOL    HW210844   8.772  10.582   2.289 -1.2326 -1.1389 -0.3989
 1842SOL     OW10845   6.959   1.682   5.250  0.2871  0.3352  0.3094
 1842SOL    HW110846   7.021   1.620   5.289  0.0643  0.0640  0.2385
 1842SOL    HW210847   6.882   1.629   5.230  0.2057  0.5790 -0.0257
 1843SOL     OW10848  10.722   1.438   1.640  0.2872  0.5208  0.0660
 1843SOL    HW110849  10.685   1.363   1.594  0.6890  1.2426 -1.5112
 1843SOL    HW210850  10.647   1.482   1.679 -0.0963  0.0030 -0.0786
 1844SOL     OW10851   0.374   6.679   7.981  0.0821  0.4148 -0.1610
 1844SOL    HW110852   0.344   6.609   8.039  3.6655 -0.9959  0.2739
 1844SOL    HW210853   0.445   6.722   8.030 -0.1663  2.5372 -1.5455
 1845SOL     OW10854  10.906   1.350  11.156  0.1824  1.0937  0.0811
 1845SOL    HW110855  10.948   1.357  11.070  1.6531 -1.4858  0.4906
 1845SOL    HW210856  10.840   1.282  11.145 -1.5285  2.6134  0.3862
 1846SOL     OW10857   2.208   3.413   4.655  0.2551  0.0505  0.2297
 1846SOL    HW110858   2.172   3.332   4.620  0.3089  0.6755 -1.3617
 1846SOL    HW210859   2.138   3.477   4.646  0.7482  0.5607 -0.1190
 1847SOL     OW10860   6.083   9.662   5.061  0.6489  0.0845  0.2260
 1847SOL    HW110861   6.161   9.667   5.116  0.8937 -1.8075  0.1338
 1847SOL    HW210862   6.010   9.656   5.122  0.9533 -2.4765  0.4647
 1848SOL     OW10863   0.375   7.561  11.359 -0.2405  0.8224  0.5527
 1848SOL    HW110864   0.296   7.541  11.410  0.5601 -0.0433  1.4836
 1848SOL    HW210865   0.364   7.653  11.334 -2.7403  0.0830 -1.5441
 1849SOL     OW10866   8.836   6.687   5.046 -0.1439 -0.8067  0.7201
 1849SOL    HW110867   8.840   6.712   4.954 -1.3371 -1.2754  0.5211
 1849SOL    HW210868   8.862   6.766   5.094  0.2374 -0.4861 -0.0041
 1850SOL     OW10869  10.917   9.903   3.968 -0.3184  0.1113  0.1569
 1850SOL    HW110870  10.961   9.829   4.009  0.2615  0.4885  0.2148
 1850SOL    HW210871  10.882   9.867   3.886 -2.3240 -0.9032  1.3568
 1851SOL     OW10872  11.631   6.720   2.983 -0.0682  0.0300 -0.8255
 1851SOL    HW110873  11.714   6.759   3.010  0.2955 -0.1890 -1.5847
 1851SOL    HW210874  11.574   6.794   2.964  0.3983  0.2052 -1.6066
 1852SOL     OW10875   3.506   2.937  10.058 -0.0324  0.3612 -0.3354
 1852SOL    HW110876   3.560   2.947  10.136  0.4549 -0.2847 -0.5836
 1852SOL    HW210877   3.564   2.899   9.993 -0.8415 -0.5696 -0.5359
 1853SOL     OW10878   9.491   5.927   4.708 -0.1208 -0.3439  0.1498
 1853SOL    HW110879   9.564   5.987   4.725  0.9043 -1.4052 -0.2901
 1853SOL    HW210880   9.476   5.883   4.791  0.9353 -1.3494 -0.1603
 1854SOL     OW10881   8.239   8.569  10.471  0.1350  0.5909  0.1561
 1854SOL    HW110882   8.267   8.660  10.472 -0.2472  0.7029  0.7588
 1854SOL    HW210883   8.317   8.520  10.444  0.2556  1.1177 -0.4821
 1855SOL     OW10884   7.598   4.212   8.707 -0.0267  0.1881  0.3858
 1855SOL    HW110885   7.660   4.173   8.769 -0.5965 -0.0262  0.8357
 1855SOL    HW210886   7.554   4.138   8.666  0.4653  0.3268 -0.4127
 1856SOL     OW10887   9.468   0.824   2.314 -0.4473 -0.2634  0.0724
 1856SOL    HW110888   9.437   0.815   2.404 -0.7032  0.8581  0.1091
 1856SOL    HW210889   9.520   0.905   2.315 -0.7259 -0.0613 -0.8537
 1857SOL     OW10890   6.572   5.424   5.140  0.1129  0.1741 -0.3207
 1857SOL    HW110891   6.589   5.368   5.216 -0.8614  0.3067  0.0059
 1857SOL    HW210892   6.633   5.392   5.073  0.5217 -0.3771  0.2961
 1858SOL     OW10893   8.488   0.274   7.209  0.6055  0.1300  0.2849
 1858SOL    HW110894   8.483   0.195   7.263 -1.5722 -0.5548 -0.7780
 1858SOL    HW210895   8.397   0.294   7.187  1.3129  0.6101 -2.7316
 1859SOL     OW10896   0.847   5.303   7.586 -0.4585 -0.1048  0.1501
 1859SOL    HW110897   0.903   5.374   7.554  0.1680 -0.8174 -0.3555
 1859SOL    HW210898   0.879   5.285   7.674 -0.3011 -0.0889  0.0961
 1860SOL     OW10899   1.414   8.681   0.711  0.5114 -0.2733 -0.0606
 1860SOL    HW110900   1.337   8.626   0.695 -0.6026  1.4751 -0.9604
 1860SOL    HW210901   1.423   8.683   0.806 -0.6449 -0.3658  0.0616
 1861SOL     OW10902   8.219   3.734   6.627  0.4069 -0.3060  0.1106
 1861SOL    HW110903   8.160   3.794   6.673  1.0090 -0.9671  1.8146
 1861SOL    HW210904   8.307   3.762   6.653  0.9911  1.0646 -2.8644
 1862SOL     OW10905   5.424   0.639   2.283 -0.0918  0.4869 -0.2407
 1862SOL    HW110906   5.430   0.701   2.356 -0.1049 -0.5637  0.6749
 1862SOL    HW210907   5.341   0.660   2.241 -0.8323  0.1295  0.9843
 1863SOL     OW10908   4.457   7.245   7.449 -0.2791  0.2705  0.1607
 1863SOL    HW110909   4.448   7.292   7.366  2.1623 -0.4818 -0.6166
 1863SOL    HW210910   4.367   7.231   7.479 -1.2357  0.4302 -2.4309
 1864SOL     OW10911   3.142   8.620   4.827 -0.2898 -0.0566  0.1341
 1864SOL    HW110912   3.146   8.569   4.746  0.3156 -0.2989  0.3069
 1864SOL    HW210913   3.120   8.556   4.895  0.4592 -0.0938  0.3505
 1865SOL     OW10914   9.120   8.123   9.834  0.2636  0.6318 -0.1248
 1865SOL    HW110915   9.215   8.134   9.839  0.2168  1.6902 -1.1507
 1865SOL    HW210916   9.105   8.080   9.750 -0.1836  0.8596 -0.1682
 1866SOL     OW10917   7.084   5.427   0.282  0.0222  0.1988  0.0507
 1866SOL    HW110918   6.990   5.443   0.292  0.1451 -0.3164  3.1192
 1866SOL    HW210919   7.122   5.513   0.268 -0.8174  0.5536 -0.0898
 1867SOL     OW10920   7.307   2.771   7.451 -0.5179 -0.4772 -0.5854
 1867SOL    HW110921   7.214   2.749   7.457 -0.8230  0.5146 -1.4646
 1867SOL    HW210922   7.310   2.847   7.393  0.8330 -0.4175 -0.4592
 1868SOL     OW10923   7.079  11.352   4.562 -0.0920 -0.4052 -0.1811
 1868SOL    HW110924   7.145  11.309   4.509 -0.0101  0.1585 -0.5468
 1868SOL    HW210925   7.024  11.399   4.499 -3.4429 -4.1145 -0.3851
 1869SOL     OW10926   4.891   4.550   7.225  0.7435  0.0187  0.2448
 1869SOL    HW110927   4.797   4.545   7.209  0.8399  1.7128 -1.1171
 1869SOL    HW210928   4.899   4.551   7.320 -0.5409 -0.9004  0.3858
 1870SOL     OW10929   6.562   0.452   2.806 -0.5539 -0.0468  0.5748
 1870SOL    HW110930   6.507   0.388   2.762 -2.4983  1.0159  1.3136
 1870SOL    HW210931   6.598   0.506   2.736 -1.3634 -0.0976  0.1118
 1871SOL     OW10932   5.543   6.357   7.235  0.3248  0.4366  0.0100
 1871SOL    HW110933   5.525   6.285   7.296 -1.9760 -0.0717 -1.1921
 1871SOL    HW210934   5.457   6.387   7.207  1.2416 -0.0615 -3.8203
 1872SOL     OW10935  11.386   3.367   6.477  0.1272 -0.2102  0.0320
 1872SOL    HW110936  11.394   3.454   6.516  0.8616 -0.4251  0.3792
 1872SOL    HW210937  11.298   3.337   6.502 -0.1507  0.4474 -0.1433
 1873SOL     OW10938   7.012   9.631   7.486 -0.1088 -0.1565 -0.0491
 1873SOL    HW110939   7.097   9.588   7.495 -0.1342 -0.2648 -0.3170
 1873SOL    HW210940   7.012   9.699   7.553 -0.3562 -1.0384  0.8531
 1874SOL     OW10941  10.803   2.949   9.891 -0.6220  0.0812  0.3338
 1874SOL    HW110942  10.864   2.922   9.822 -1.8763 -1.5415 -0.1971
 1874SOL    HW210943  10.851   2.935   9.972  0.4858  0.9843 -0.1305
 1875SOL     OW10944   7.543   2.242   5.512 -0.0994 -0.6293  0.0578
 1875SOL    HW110945   7.560   2.265   5.421  0.1832 -0.6787  0.0980
 1875SOL    HW210946   7.495   2.317   5.547  0.9950  0.0009  0.2484
 1876SOL     OW10947   2.430   7.475  10.729 -0.1610  0.1908 -0.5864
 1876SOL    HW110948   2.419   7.400  10.670 -1.5365 -0.7305  0.7329
 1876SOL    HW210949   2.354   7.530  10.712 -0.2894  0.1803 -0.0910
 1877SOL     OW10950   2.735   9.341   2.811 -0.0746  0.8795 -0.0583
 1877SOL    HW110951   2.816   9.302   2.844  1.0286  0.0138 -3.4172
 1877SOL    HW210952   2.666   9.287   2.848  1.2772 -2.5570 -2.1232
 1878SOL     OW10953   4.187   8.663   5.933 -0.3727  0.2930 -0.3216
 1878SOL    HW110954   4.189   8.672   5.837  0.4571 -0.3056 -0.3748
 1878SOL    HW210955   4.113   8.605   5.950 -0.5840  0.4800 -0.5947
 1879SOL     OW10956   6.142  11.668   0.957 -0.4337  0.3667  0.6031
 1879SOL    HW110957   6.230  11.701   0.972 -0.7194  1.9838 -0.8518
 1879SOL    HW210958   6.154  11.577   0.930  0.9148  0.8657 -0.6359
 1880SOL     OW10959   2.703   5.678   2.254  0.0939  0.6094  0.0235
 1880SOL    HW110960   2.668   5.650   2.170  0.4046  2.4798 -0.7705
 1880SOL    HW210961   2.789   5.713   2.235  1.2529 -1.1854  1.5359
 1881SOL     OW10962   9.785   2.558   1.157  0.2975  0.3944  0.1861
 1881SOL    HW110963   9.738   2.599   1.230  0.2273 -1.0471  0.9775
 1881SOL    HW210964   9.732   2.580   1.080 -1.6301 -1.0035  1.0206
 1882SOL     OW10965   0.407  10.941  11.595 -0.2819 -0.1223  0.1620
 1882SOL    HW110966   0.420  11.001  11.522 -0.0588 -2.3732 -1.7903
 1882SOL    HW210967   0.326  10.971  11.637  0.2625  1.9775 -0.1817
 1883SOL     OW10968   0.599   7.669   6.809  0.1177  0.1052 -0.4816
 1883SOL    HW110969   0.540   7.621   6.750  1.4155 -0.2360 -1.5572
 1883SOL    HW210970   0.596   7.620   6.891 -0.7887 -0.1232 -0.6373
 1884SOL     OW10971   4.668   6.038  11.727  0.3988 -0.1981  0.2751
 1884SOL    HW110972   4.591   6.074  11.683  0.6006 -0.5087 -0.3484
 1884SOL    HW210973   4.678   5.950  11.689  0.8075 -0.3257  0.6652
 1885SOL     OW10974   8.439   5.652   2.962 -0.1428  0.2807 -0.2875
 1885SOL    HW110975   8.485   5.620   3.040  0.0762  0.9978 -0.1151
 1885SOL    HW210976   8.460   5.588   2.894 -1.3672 -1.0883  0.5378
 1886SOL     OW10977   7.927   8.151   3.525 -0.5493 -0.0615  0.2706
 1886SOL    HW110978   8.012   8.192   3.512 -1.3859  2.0616  1.0172
 1886SOL    HW210979   7.936   8.063   3.489  1.6666  0.4305 -0.4829
 1887SOL     OW10980  10.303   6.736   9.225  0.3112  0.1609  0.3041
 1887SOL    HW110981  10.294   6.642   9.238  0.4992  0.0843 -0.0950
 1887SOL    HW210982  10.235   6.758   9.161  1.6227 -0.0874 -1.2475
 1888SOL     OW10983   0.480   6.280   1.795 -0.7023  0.1101  0.2649
 1888SOL    HW110984   0.401   6.334   1.784 -0.3589  0.5958  0.1589
 1888SOL    HW210985   0.455   6.195   1.759 -1.2834  0.1619  0.5202
 1889SOL     OW10986   9.073   5.586  10.712 -1.1122  0.1239 -0.0598
 1889SOL    HW110987   9.159   5.573  10.751 -0.6770 -0.1377 -1.0631
 1889SOL    HW210988   9.091   5.606  10.620 -2.1028  0.6202 -0.1591
 1890SOL     OW10989   7.407   8.225   1.705 -0.1585  0.5378 -0.0732
 1890SOL    HW110990   7.486   8.195   1.659  0.5324  0.4149  1.1430
 1890SOL    HW210991   7.404   8.170   1.784 -3.3395 -1.8881 -1.6237
 1891SOL     OW10992  11.332   5.946   6.901 -0.6008  0.0113  0.6205
 1891SOL    HW110993  11.306   5.995   6.980 -1.2884 -0.2491  0.5664
 1891SOL    HW210994  11.366   5.863   6.934 -0.7531 -0.0392  0.6519
 1892SOL     OW10995   1.573   4.200   3.638 -0.6635  0.8175 -0.2287
 1892SOL    HW110996   1.551   4.120   3.685  0.6594 -0.2301 -1.2901
 1892SOL    HW210997   1.490   4.248   3.631 -1.6743 -0.8782 -0.3563
 1893SOL     OW10998   3.425   4.794   2.178  0.1842 -0.2686 -0.3709
 1893SOL    HW110999   3.506   4.750   2.203  0.5613 -0.5926 -2.0062
 1893SOL    HW211000   3.358   4.727   2.186 -0.1270  0.2257  1.8145
 1894SOL     OW11001  10.561  11.433   4.724 -0.2133 -0.5144 -0.0061
 1894SOL    HW111002  10.577  11.460   4.633 -1.5258 -1.3822 -0.5277
 1894SOL    HW211003  10.543  11.514   4.771  3.5734  0.3529  0.2484
 1895SOL     OW11004  11.365   6.209   2.143  0.2002 -0.3357  0.1401
 1895SOL    HW111005  11.361   6.271   2.215 -0.3326 -0.8332  0.5444
 1895SOL    HW211006  11.456   6.177   2.143  0.9481  1.6047 -1.0838
 1896SOL     OW11007  10.830   3.278   7.130  0.0079  0.3622 -0.2034
 1896SOL    HW111008  10.737   3.256   7.138  0.3454 -0.5582  1.7189
 1896SOL    HW211009  10.865   3.212   7.070 -0.1509 -0.7841  0.9279
 1897SOL     OW11010   0.135  11.671   5.046  0.2635  0.1471  0.4124
 1897SOL    HW111011   0.076  11.659   4.971 -0.9325  1.8607  1.0218
 1897SOL    HW211012   0.215  11.706   5.007  0.1216 -0.1841 -0.1952
 1898SOL     OW11013   0.652   8.621  11.770 -0.4575 -0.2746 -0.9648
 1898SOL    HW111014   0.648   8.606  11.676 -0.0549  0.9227 -1.1820
 1898SOL    HW211015   0.566   8.593  11.802 -0.9631  0.2702 -1.8276
 1899SOL     OW11016   1.903   2.966  11.708 -0.6185  0.2179  0.7155
 1899SOL    HW111017   1.814   2.940  11.734 -0.6886 -2.2853 -1.5366
 1899SOL    HW211018   1.890   3.015  11.627  0.0210 -0.0622  0.4355
 1900SOL     OW11019   1.652   9.611   3.414 -0.2286  0.2207  0.9428
 1900SOL    HW111020   1.627   9.565   3.334 -1.2672 -0.2283  1.5016
 1900SOL    HW211021   1.608   9.562   3.484  0.5459  0.6917  1.7721
 1901SOL     OW11022   3.606   6.506   0.365 -0.0643  0.1196 -0.1578
 1901SOL    HW111023   3.635   6.456   0.441  0.7406 -0.5708 -0.9032
 1901SOL    HW211024   3.565   6.441   0.307 -0.2272  0.5497 -0.5363
 1902SOL     OW11025   3.974   4.809   5.384  0.3571 -0.1178  0.0306
 1902SOL    HW111026   3.962   4.762   5.466 -1.7615  1.5314  0.7633
 1902SOL    HW211027   3.894   4.860   5.374  1.0441  0.5854 -2.5134
 1903SOL     OW11028   2.705   7.415   1.286 -0.1149 -0.1217  0.0815
 1903SOL    HW111029   2.754   7.398   1.366 -0.9196 -2.9288  0.0667
 1903SOL    HW211030   2.644   7.485   1.310  1.2028  0.7170  1.1813
 1904SOL     OW11031   5.601   5.176   5.579  0.0067  0.5528  0.1014
 1904SOL    HW111032   5.631   5.196   5.668  1.0787  0.2618 -0.1723
 1904SOL    HW211033   5.542   5.102   5.590  0.5853  0.1405  0.5331
 1905SOL     OW11034   3.364   8.597   1.890 -0.0045  0.2197  0.1162
 1905SOL    HW111035   3.390   8.658   1.821 -0.1734  1.8887  1.4441
 1905SOL    HW211036   3.429   8.527   1.886  0.9113  1.0875 -0.7053
 1906SOL     OW11037   0.081  10.651  11.522 -0.2869 -0.2947 -0.3635
 1906SOL    HW111038   0.153  10.694  11.477 -0.2302  0.1374  0.1351
 1906SOL    HW211039   0.123  10.582  11.574 -0.1240  0.5355  0.6320
 1907SOL     OW11040   9.299   7.821   3.442  0.0888 -0.2845  0.2127
 1907SOL    HW111041   9.267   7.745   3.490 -0.5217  1.3892  2.6707
 1907SOL    HW211042   9.225   7.882   3.442  0.2820  0.0629 -2.4266
 1908SOL     OW11043   1.630  10.834   4.602 -0.8597  0.2596  0.5778
 1908SOL    HW111044   1.687  10.779   4.656 -0.2841  0.7252  0.4425
 1908SOL    HW211045   1.679  10.848   4.521 -0.6804  1.5608  0.8831
 1909SOL     OW11046   8.128   2.454   7.305 -0.0557 -0.0512 -0.7138
 1909SOL    HW111047   8.045   2.469   7.350 -0.1555  2.3346 -1.5583
 1909SOL    HW211048   8.115   2.493   7.218  1.4413 -1.0497 -1.4257
 1910SOL     OW11049   2.793   1.275  11.803  0.3285 -0.6489 -0.3929
 1910SOL    HW111050   2.759   1.298  11.889 -2.0306  0.9450 -1.6479
 1910SOL    HW211051   2.817   1.359  11.763 -1.4920 -0.9746 -2.3538
 1911SOL     OW11052   2.489   6.607   5.649 -0.1976 -0.3083  0.1369
 1911SOL    HW111053   2.581   6.621   5.670 -0.5002  1.9922  0.1890
 1911SOL    HW211054   2.443   6.617   5.732 -0.6747  0.8927 -0.2462
 1912SOL     OW11055   0.881   6.170   5.107 -0.3572 -0.1769  0.1111
 1912SOL    HW111056   0.894   6.212   5.192 -0.7429  0.7971 -0.2959
 1912SOL    HW211057   0.825   6.095   5.125 -1.2512  0.5910  0.5775
 1913SOL     OW11058   7.508   0.759   2.209  0.0463  0.1658  0.5072
 1913SOL    HW111059   7.575   0.755   2.141  0.7891  0.0397  1.2173
 1913SOL    HW211060   7.425   0.745   2.164  0.4730  0.6387 -0.4364
 1914SOL     OW11061   8.395  11.299   3.450 -0.2744  0.0384  0.4605
 1914SOL    HW111062   8.426  11.291   3.360 -1.6649  0.6752 -0.1103
 1914SOL    HW211063   8.438  11.228   3.497  0.9280  0.0581 -0.5727
 1915SOL     OW11064   1.811   9.804   3.960 -0.1853  0.4351 -0.8366
 1915SOL    HW111065   1.815   9.813   3.865 -1.2485  1.2893 -0.8304
 1915SOL    HW211066   1.751   9.731   3.975 -0.8308  0.9497 -0.8372
 1916SOL     OW11067  11.766  11.589   1.280  0.0015  0.3381  0.0105
 1916SOL    HW111068  11.808  11.507   1.305 -0.1767 -0.1502 -1.2258
 1916SOL    HW211069  11.681  11.563   1.245  0.0146  1.0393 -0.5659
 1917SOL     OW11070   2.774  10.657   7.288  0.1462 -0.2357 -0.2144
 1917SOL    HW111071   2.757  10.573   7.329  0.3964 -0.7899 -1.2150
 1917SOL    HW211072   2.866  10.677   7.309  0.3415 -0.6266 -0.6666
 1918SOL     OW11073   2.710   6.157   0.088 -0.1825  0.4075 -0.4176
 1918SOL    HW111074   2.791   6.204   0.071 -0.5664  2.8420  3.3407
 1918SOL    HW211075   2.690   6.175   0.180 -3.2856 -2.8194 -0.2167
 1919SOL     OW11076   5.334  11.388   7.053 -0.2133 -0.5773  0.4789
 1919SOL    HW111077   5.374  11.305   7.029 -0.6547 -0.1045 -2.2739
 1919SOL    HW211078   5.368  11.408   7.140  2.5424 -1.9950 -0.1723
 1920SOL     OW11079   6.815   6.597   7.277  0.0642  0.1470  0.0775
 1920SOL    HW111080   6.863   6.645   7.345 -0.9252 -1.3499  1.9281
 1920SOL    HW211081   6.725   6.631   7.283 -0.5129 -1.4016  1.0138
 1921SOL     OW11082  10.886   1.906   9.262 -0.2391  0.2306  0.4611
 1921SOL    HW111083  10.883   1.831   9.321  0.0074 -0.3508 -0.2592
 1921SOL    HW211084  10.963   1.892   9.208  0.3121  1.4574  0.8978
 1922SOL     OW11085   3.604   2.352   7.835  0.0770  0.5637 -0.1263
 1922SOL    HW111086   3.542   2.302   7.782 -1.9051  0.2766  2.2332
 1922SOL    HW211087   3.601   2.440   7.799  1.6593 -0.3534 -2.7345
 1923SOL     OW11088   0.021   5.643   2.609 -0.0834 -0.6446  0.3186
 1923SOL    HW111089   0.046   5.561   2.653 -0.4327 -1.0559 -0.2348
 1923SOL    HW211090  -0.062   5.667   2.650 -0.9893 -1.6321 -0.8619
 1924SOL     OW11091   7.838   2.553  10.919  0.2396 -0.4605  0.4131
 1924SOL    HW111092   7.925   2.524  10.944  0.7343  3.1703  3.9143
 1924SOL    HW211093   7.784   2.537  10.997 -0.7432  2.4156  0.4421
 1925SOL     OW11094   8.634  10.838   8.244  0.1485 -0.1632 -0.1358
 1925SOL    HW111095   8.699  10.864   8.180 -0.0721  0.9191  0.0646
 1925SOL    HW211096   8.644  10.743   8.252  0.3456 -0.2751 -1.5699
 1926SOL     OW11097   9.198   3.896  10.072  0.3239 -0.1704  0.4226
 1926SOL    HW111098   9.150   3.924   9.994  0.3731  0.5005  0.6340
 1926SOL    HW211099   9.129   3.871  10.134  0.2303  0.8367  0.7424
 1927SOL     OW11100  10.956   0.075  10.009  0.3636  0.1646  0.3339
 1927SOL    HW111101  10.893   0.081  10.081  1.4212 -0.0468  1.3016
 1927SOL    HW211102  11.030   0.129  10.037  0.4333  0.7894 -0.9999
 1928SOL     OW11103  10.224   1.048   5.692  0.0401  0.7276 -0.3263
 1928SOL    HW111104  10.237   1.105   5.768  1.4590 -1.0035  0.7985
 1928SOL    HW211105  10.288   1.079   5.627  0.2066  0.9343 -0.0638
 1929SOL     OW11106   3.309   1.451   0.676  0.6468  0.4218 -0.0279
 1929SOL    HW111107   3.321   1.474   0.583 -0.9653 -1.9253 -0.9060
 1929SOL    HW211108   3.295   1.356   0.675 -1.0182  0.5750  2.4697
 1930SOL     OW11109   4.953   7.321   1.712  0.3429  0.1378 -0.0351
 1930SOL    HW111110   5.003   7.281   1.782  0.2824 -0.2640 -0.2201
 1930SOL    HW211111   4.896   7.384   1.756  1.6543  1.2879  0.0937
 1931SOL     OW11112  11.769   6.930  10.326  0.2029  0.2519 -0.8092
 1931SOL    HW111113  11.797   6.970  10.408  1.0880  0.0246 -0.9840
 1931SOL    HW211114  11.714   6.856  10.352 -1.2664  1.4177 -0.4788
 1932SOL     OW11115   5.982  10.538   8.964 -0.2711  0.0997  0.1252
 1932SOL    HW111116   6.027  10.616   8.930 -1.2303  0.4462 -0.3872
 1932SOL    HW211117   6.044  10.500   9.027 -0.0697  1.6940  0.9467
 1933SOL     OW11118   0.968   7.065   0.744  0.7334  0.7900  0.0449
 1933SOL    HW111119   0.940   7.077   0.835  1.1092  0.8857  0.1534
 1933SOL    HW211120   1.057   7.102   0.742  0.9784  0.2011 -0.2007
 1934SOL     OW11121  10.416   2.704   9.223 -0.0421  0.2174  0.0504
 1934SOL    HW111122  10.507   2.681   9.244 -0.4913 -0.9607  0.8333
 1934SOL    HW211123  10.365   2.631   9.258 -0.9739 -1.4498 -4.1527
 1935SOL     OW11124   7.857   8.487   3.330  0.0126  0.2141  0.4101
 1935SOL    HW111125   7.904   8.404   3.332 -0.7280 -0.2184  0.1836
 1935SOL    HW211126   7.888   8.533   3.408 -0.0687 -0.5583  0.9147
 1936SOL     OW11127   5.844   5.154   0.838  0.4637  0.2240 -0.1956
 1936SOL    HW111128   5.760   5.186   0.869 -1.1127 -0.6935 -3.1238
 1936SOL    HW211129   5.893   5.233   0.813 -0.0857  0.6918  0.1955
 1937SOL     OW11130   3.234  11.305   0.985  0.1321  0.1215 -0.0558
 1937SOL    HW111131   3.290  11.254   1.044 -1.0314  0.1045  1.1055
 1937SOL    HW211132   3.197  11.240   0.926  1.9584  0.2508 -1.4105
 1938SOL     OW11133   4.664   8.098  11.730 -0.0715 -0.1090  0.1978
 1938SOL    HW111134   4.703   8.183  11.707  0.7496 -0.5844 -0.2120
 1938SOL    HW211135   4.621   8.069  11.649 -1.4625  0.4856  0.6894
 1939SOL     OW11136   1.031   1.619   6.365 -0.0789  0.0942  0.7176
 1939SOL    HW111137   1.126   1.616   6.369 -0.1584 -0.6181  3.7532
 1939SOL    HW211138   1.002   1.532   6.389 -1.5379  0.5334  0.6754
 1940SOL     OW11139   3.789   1.701   5.923 -0.1940 -0.0301  0.2071
 1940SOL    HW111140   3.744   1.672   6.003 -0.4603 -2.1148 -0.6235
 1940SOL    HW211141   3.872   1.654   5.925 -0.0400  0.2120 -0.5502
 1941SOL     OW11142   6.702   8.516  10.729  0.4073  0.6561 -0.2211
 1941SOL    HW111143   6.781   8.549  10.772 -0.0464  1.0948  0.2975
 1941SOL    HW211144   6.716   8.422  10.719  1.0403  0.7514 -0.2382
 1942SOL     OW11145   2.197   1.737   3.372  0.1750  0.0633 -0.4497
 1942SOL    HW111146   2.124   1.798   3.380 -1.3522 -1.4840 -1.7632
 1942SOL    HW211147   2.265   1.772   3.431  0.4732  4.4383 -2.9593
 1943SOL     OW11148   9.501   9.590   7.334  0.3028 -0.1231 -0.1510
 1943SOL    HW111149   9.497   9.592   7.429  0.8053  0.8329 -0.1329
 1943SOL    HW211150   9.522   9.499   7.312 -2.8928 -1.1368  0.4763
 1944SOL     OW11151   7.210   6.582   7.747 -0.6492  0.0881 -0.3197
 1944SOL    HW111152   7.187   6.582   7.840  0.6723  0.9554  0.0391
 1944SOL    HW211153   7.301   6.612   7.745 -0.9844  1.1136 -1.9765
 1945SOL     OW11154   5.802   4.263   8.748  0.4596 -0.4463 -0.3009
 1945SOL    HW111155   5.840   4.177   8.766  0.1652 -0.7064 -0.8779
 1945SOL    HW211156   5.872   4.313   8.706  1.0296  0.0362  1.1840
 1946SOL     OW11157  11.599  11.588   9.243  0.1126 -0.5395  0.3705
 1946SOL    HW111158  11.541  11.637   9.185  0.0983  0.8135  1.4852
 1946SOL    HW211159  11.662  11.546   9.184 -0.2432  0.3341 -0.6490
 1947SOL     OW11160   3.793   5.617   7.211  0.0368 -0.1138  0.1572
 1947SOL    HW111161   3.760   5.706   7.229 -1.1760 -0.3904 -0.5178
 1947SOL    HW211162   3.728   5.559   7.251  0.6879 -0.7016  0.3708
 1948SOL     OW11163   0.265   8.741   9.608  1.0845 -0.6603  0.1351
 1948SOL    HW111164   0.240   8.827   9.640  1.5532 -1.2503  2.2181
 1948SOL    HW211165   0.254   8.747   9.513 -0.2838  1.2124  0.3560
 1949SOL     OW11166   5.526   8.396   2.639 -0.4061  0.5470 -0.3361
 1949SOL    HW111167   5.492   8.437   2.719 -2.9420 -1.1137 -0.4412
 1949SOL    HW211168   5.613   8.364   2.664 -0.1751  2.1073  1.0268
 1950SOL     OW11169   1.111   9.196   0.755 -0.0941 -0.8945 -0.3296
 1950SOL    HW111170   1.171   9.122   0.746  1.7749  0.3751  0.9567
 1950SOL    HW211171   1.119   9.222   0.847  0.4398  1.8003 -1.0609
 1951SOL     OW11172  10.175   4.850   1.434 -0.5413  0.1025  0.4322
 1951SOL    HW111173  10.097   4.862   1.488  1.1063 -0.4727  3.0927
 1951SOL    HW211174  10.156   4.770   1.383 -1.5889 -0.1521  1.1761
 1952SOL     OW11175   8.839   9.849   6.539 -0.2772  0.0457  0.0469
 1952SOL    HW111176   8.751   9.862   6.503  0.5567  1.2710 -1.6703
 1952SOL    HW211177   8.880   9.935   6.533  0.7013 -0.2463  1.8797
 1953SOL     OW11178  11.088   6.496   7.670  0.4499  0.2361  0.2756
 1953SOL    HW111179  11.037   6.576   7.672 -1.0857 -0.6414  3.6408
 1953SOL    HW211180  11.173   6.521   7.707  0.1686  0.4346  0.7917
 1954SOL     OW11181   7.284   3.464   7.971 -0.0817  0.3099  0.3049
 1954SOL    HW111182   7.290   3.370   7.986 -0.6820 -0.0014 -1.1853
 1954SOL    HW211183   7.374   3.495   7.977  0.2179 -0.4932  0.0915
 1955SOL     OW11184   4.791   8.303   3.661  0.3917  0.2983 -0.3463
 1955SOL    HW111185   4.747   8.275   3.742  1.0311 -0.0393 -0.1101
 1955SOL    HW211186   4.719   8.333   3.604  0.0439  1.9695  0.8842
 1956SOL     OW11187   5.234   0.977   8.465  0.6021 -0.5505 -0.2862
 1956SOL    HW111188   5.252   1.018   8.549  0.9226  0.4855 -0.8433
 1956SOL    HW211189   5.144   0.944   8.473  0.4763 -0.0766  0.3077
 1957SOL     OW11190   2.289   4.021   6.414  0.2638 -0.7191 -0.5052
 1957SOL    HW111191   2.259   4.102   6.455  0.1453 -1.9662  2.0455
 1957SOL    HW211192   2.209   3.973   6.395  0.3907 -1.4978  0.8117
 1958SOL     OW11193  11.134   8.834   9.732  0.2345  0.0471 -0.6987
 1958SOL    HW111194  11.111   8.870   9.818  0.3472  1.4889 -1.2439
 1958SOL    HW211195  11.159   8.743   9.750 -3.8978 -1.1438  0.2360
 1959SOL     OW11196   2.968   7.349   7.385 -0.2605 -0.2574  0.6934
 1959SOL    HW111197   3.043   7.291   7.378 -0.3608 -0.2183 -1.3335
 1959SOL    HW211198   2.914   7.312   7.455  0.2600 -1.9155  0.2423
 1960SOL     OW11199   5.458   2.138   8.175  0.3172 -0.2564  0.0309
 1960SOL    HW111200   5.424   2.216   8.219  0.9621 -0.5668  1.1038
 1960SOL    HW211201   5.552   2.141   8.192  0.1319 -2.2952  1.7898
 1961SOL     OW11202   4.518   9.801  11.239 -0.6510  0.8273 -0.0070
 1961SOL    HW111203   4.553   9.820  11.327 -1.4769  2.0882  0.0675
 1961SOL    HW211204   4.425   9.822  11.245 -0.9854 -0.3234 -0.8407
 1962SOL     OW11205   8.769   6.358   6.970  0.4294  0.0596 -0.2640
 1962SOL    HW111206   8.795   6.398   6.887 -1.0849  0.5125 -0.5516
 1962SOL    HW211207   8.742   6.269   6.948 -0.3068  0.2908 -0.3340
 1963SOL     OW11208   1.849   8.577   1.689  0.2883 -0.1485 -0.2639
 1963SOL    HW111209   1.838   8.537   1.775  0.9844  0.8305  0.3078
 1963SOL    HW211210   1.781   8.537   1.635 -0.7034 -0.1809  0.9499
 1964SOL     OW11211   0.296  10.984   4.697  0.5480 -0.4145  0.3357
 1964SOL    HW111212   0.311  10.908   4.641  1.0946 -1.0256  1.2846
 1964SOL    HW211213   0.201  10.996   4.695  0.6122  0.0120 -1.2563
 1965SOL     OW11214  10.389   4.831   8.742  0.2618 -0.2910 -0.4601
 1965SOL    HW111215  10.416   4.815   8.832 -0.8857  1.6208  0.2742
 1965SOL    HW211216  10.345   4.750   8.715 -1.6757 -0.0241  1.6167
 1966SOL     OW11217   5.972   9.694   4.101 -0.0357  0.0900  0.6640
 1966SOL    HW111218   5.937   9.619   4.053 -0.0144  0.1753  0.5151
 1966SOL    HW211219   6.050   9.660   4.145 -0.9887 -0.4164  2.0079
 1967SOL     OW11220   9.308   4.784   2.241  0.1732  0.0424  0.1324
 1967SOL    HW111221   9.337   4.875   2.232  1.7703 -0.1810  2.3647
 1967SOL    HW211222   9.266   4.781   2.327 -2.3243 -0.7939 -1.0021
 1968SOL     OW11223   5.734   3.270   9.897 -0.6684 -0.6906  0.0063
 1968SOL    HW111224   5.715   3.247   9.988 -1.5169 -0.5401 -0.1258
 1968SOL    HW211225   5.676   3.214   9.846 -1.9025  0.8434 -0.3545
 1969SOL     OW11226  11.359   2.580   8.093  0.2756  0.2798 -0.0426
 1969SOL    HW111227  11.285   2.523   8.116 -1.6583  2.5805 -0.1932
 1969SOL    HW211228  11.435   2.521   8.092 -1.1929 -1.8206  2.0610
 1970SOL     OW11229   6.773   7.508   0.848 -0.0809  0.0084  0.1644
 1970SOL    HW111230   6.788   7.554   0.766 -0.1139  0.5624  0.4601
 1970SOL    HW211231   6.796   7.417   0.830 -1.9448 -0.2681 -0.9862
 1971SOL     OW11232   4.443   2.917  11.717  0.1929  0.0973  0.0992
 1971SOL    HW111233   4.355   2.939  11.687  0.4116 -0.0806 -0.6930
 1971SOL    HW211234   4.448   2.821  11.708  0.8327  0.2121 -0.9054
 1972SOL     OW11235   4.333   9.393   0.862 -0.2845  0.4256 -0.0356
 1972SOL    HW111236   4.315   9.310   0.906 -0.8112  0.2765 -0.5230
 1972SOL    HW211237   4.376   9.446   0.929  0.2441 -0.3070  0.2207
 1973SOL     OW11238   8.513   7.813   4.320  0.5438 -0.6896  0.4225
 1973SOL    HW111239   8.581   7.839   4.382  0.2701 -1.2313  0.9575
 1973SOL    HW211240   8.530   7.866   4.242  0.1201  0.9716  1.4046
 1974SOL     OW11241   2.920  11.271   7.302  0.2801  0.2333 -0.6037
 1974SOL    HW111242   2.904  11.358   7.339  0.1988  0.5548 -1.3619
 1974SOL    HW211243   2.984  11.231   7.360 -0.6715  0.2817  0.5157
 1975SOL     OW11244   6.665   2.370   9.080 -0.5612  0.2732 -0.4212
 1975SOL    HW111245   6.745   2.328   9.111 -1.1859  0.4397  1.5743
 1975SOL    HW211246   6.618   2.300   9.034  0.3436 -0.0399 -0.8872
 1976SOL     OW11247   0.102   1.380  10.716  0.2828 -0.0705  0.2079
 1976SOL    HW111248   0.063   1.448  10.662 -1.7187 -0.8341  0.5933
 1976SOL    HW211249   0.079   1.298  10.672 -0.4996 -0.6494  1.6306
 1977SOL     OW11250   3.615   3.372  11.513 -0.5437 -0.2561  0.1748
 1977SOL    HW111251   3.546   3.438  11.522  0.0622  0.3707  0.3439
 1977SOL    HW211252   3.570   3.294  11.482 -1.0007  0.8049 -2.0186
 1978SOL     OW11253   1.884   9.350   5.849  0.1161  0.3614  0.1127
 1978SOL    HW111254   1.892   9.356   5.944 -1.0356  1.7154  0.1557
 1978SOL    HW211255   1.850   9.436   5.822 -2.8701 -1.0708 -1.1329
 1979SOL     OW11256   4.516   8.781   0.977  0.1988 -0.2128 -0.1336
 1979SOL    HW111257   4.504   8.748   0.888 -0.7010 -0.2270 -0.0084
 1979SOL    HW211258   4.587   8.726   1.012  1.6840  0.8228 -1.3399
 1980SOL     OW11259   7.909   0.516   4.741 -0.7795 -0.2256 -0.2813
 1980SOL    HW111260   7.968   0.492   4.670 -1.5042 -0.6259 -0.7628
 1980SOL    HW211261   7.962   0.572   4.798  0.5080 -1.7322  0.0729
 1981SOL     OW11262   4.813   5.763   9.904 -0.7852 -0.3953  0.7886
 1981SOL    HW111263   4.887   5.732   9.853  1.0550  2.7933  1.2982
 1981SOL    HW211264   4.799   5.853   9.876 -2.1014  0.2827  3.2817
 1982SOL     OW11265   8.391   6.558   7.610  0.8679 -0.2335 -0.1277
 1982SOL    HW111266   8.315   6.597   7.653  1.2565 -1.4450  1.7314
 1982SOL    HW211267   8.442   6.633   7.579 -0.7040  0.6126 -0.8223
 1983SOL     OW11268   4.833   3.911   9.291  0.0425  0.8862 -0.3330
 1983SOL    HW111269   4.751   3.913   9.243 -1.1042  1.6374  1.5812
 1983SOL    HW211270   4.831   3.988   9.347  1.2561  0.0059  1.0069
 1984SOL     OW11271   6.773   7.778  11.244 -0.0407  0.2512 -0.2578
 1984SOL    HW111272   6.797   7.870  11.244  0.6473  0.0791 -0.1831
 1984SOL    HW211273   6.800   7.746  11.331  0.0036 -0.0851 -0.3920
 1985SOL     OW11274   8.408   6.476   6.765 -0.0937 -0.0469 -0.3077
 1985SOL    HW111275   8.455   6.559   6.759 -0.9104  0.6569  2.0262
 1985SOL    HW211276   8.362   6.468   6.681 -0.4043  2.1185 -0.3896
 1986SOL     OW11277   4.600   6.620   2.919  0.1817 -0.1628  0.6808
 1986SOL    HW111278   4.557   6.560   2.858  0.2582 -2.1853  2.4920
 1986SOL    HW211279   4.619   6.698   2.867 -3.5291 -0.0639 -0.8415
 1987SOL     OW11280   1.099   0.483  10.617  0.5003 -0.1209  0.6010
 1987SOL    HW111281   1.106   0.578  10.621 -2.0075  0.1000  1.0754
 1987SOL    HW211282   1.035   0.461  10.685  2.1753 -2.3306  1.6016
 1988SOL     OW11283   4.133   5.544   9.389  0.2731  0.5341  0.4878
 1988SOL    HW111284   4.113   5.590   9.470 -0.9390  0.6697  0.1308
 1988SOL    HW211285   4.175   5.609   9.333 -1.4898  1.2953 -0.0418
 1989SOL     OW11286   8.916   5.459   2.398 -0.1727 -0.0257 -0.1973
 1989SOL    HW111287   8.860   5.390   2.363  1.4712 -0.4392 -2.2161
 1989SOL    HW211288   8.961   5.420   2.473 -1.1831 -0.2644  0.2955
 1990SOL     OW11289   7.755  10.664   6.478  0.4788  0.1243 -0.2483
 1990SOL    HW111290   7.685  10.721   6.509 -0.0034  0.9986 -2.6950
 1990SOL    HW211291   7.765  10.686   6.385  2.3854 -1.6509 -0.5525
 1991SOL     OW11292   9.685   9.665   8.548 -0.8708 -0.0042  0.1535
 1991SOL    HW111293   9.641   9.745   8.521 -0.1744  0.1386 -0.5831
 1991SOL    HW211294   9.716   9.625   8.467 -0.2416 -0.4429  0.5963
 1992SOL     OW11295   8.217   1.426   4.608 -0.0214 -0.0714  0.0506
 1992SOL    HW111296   8.202   1.467   4.693  2.1977 -0.5252  0.7263
 1992SOL    HW211297   8.280   1.485   4.565 -1.8331  0.6786 -1.7307
 1993SOL     OW11298   2.175   2.788   1.276 -0.6891 -0.1016 -0.5232
 1993SOL    HW111299   2.199   2.881   1.277  0.5990 -0.4201 -0.6696
 1993SOL    HW211300   2.192   2.757   1.365  1.0170 -0.7039 -1.0318
 1994SOL     OW11301   6.756   4.516  11.202 -0.3725  0.0038 -0.0673
 1994SOL    HW111302   6.842   4.485  11.231 -0.6858 -0.9314 -0.1020
 1994SOL    HW211303   6.772   4.555  11.116 -0.0930 -0.8128 -0.3919
 1995SOL     OW11304   1.705   3.114   7.245 -0.2241 -0.4320 -0.2216
 1995SOL    HW111305   1.670   3.102   7.156 -0.2757 -1.6967 -0.0566
 1995SOL    HW211306   1.782   3.168   7.234 -0.4505 -0.2570 -0.9966
 1996SOL     OW11307   1.792   0.885  10.305 -0.1927  0.0627 -0.3355
 1996SOL    HW111308   1.784   0.976  10.278 -0.7357 -0.4332 -1.9624
 1996SOL    HW211309   1.718   0.841  10.262 -1.2036 -0.8049  2.1021
 1997SOL     OW11310   0.699  11.581  10.666  0.4108 -0.8417 -0.2565
 1997SOL    HW111311   0.668  11.636  10.738 -0.1012 -0.2025 -0.9485
 1997SOL    HW211312   0.682  11.633  10.587 -0.9265 -2.3371 -1.0208
 1998SOL     OW11313   1.670  10.712   6.498 -0.4381  0.7136 -0.4280
 1998SOL    HW111314   1.665  10.623   6.533 -1.0233  1.1135  0.5268
 1998SOL    HW211315   1.732  10.757   6.555  1.6339  0.3574 -2.2329
 1999SOL     OW11316   5.909  10.580   1.023  0.5861 -0.0094 -0.4211
 1999SOL    HW111317   5.970  10.534   1.080  0.8931  1.2150  0.2688
 1999SOL    HW211318   5.905  10.525   0.944  0.6452 -1.3948  0.4900
 2000SOL     OW11319   3.571  10.569   8.843 -0.0363  0.5180 -0.5441
 2000SOL    HW111320   3.608  10.656   8.827  0.4736  0.4791  0.3669
 2000SOL    HW211321   3.646  10.510   8.839 -0.3658  0.1237 -1.0433
 2001SOL     OW11322   0.253  10.240   1.870  0.2822  0.4879  0.5030
 2001SOL    HW111323   0.306  10.289   1.932 -0.8600  1.8846  0.4248
 2001SOL    HW211324   0.315  10.204   1.807  1.7850 -2.8256  3.5464
 2002SOL     OW11325   0.246   7.275   3.068  0.1907  0.5951 -0.1649
 2002SOL    HW111326   0.231   7.363   3.101  0.9837  0.8863 -0.5569
 2002SOL    HW211327   0.213   7.277   2.978 -1.7609 -0.1332  0.4709
 2003SOL     OW11328   5.857   4.748   1.909  0.6761  0.7846 -0.0474
 2003SOL    HW111329   5.862   4.809   1.982 -0.5564  0.8377  0.0202
 2003SOL    HW211330   5.809   4.796   1.841 -0.3313 -0.0904  0.0172
 2004SOL     OW11331  11.072  11.625   1.133  0.7462  0.1202  0.4934
 2004SOL    HW111332  11.032  11.656   1.215  0.4854  0.7851  0.1308
 2004SOL    HW211333  11.135  11.559   1.160 -0.0817 -0.4323  1.1499
 2005SOL     OW11334   9.656   1.465  10.783 -0.0293  0.2661 -0.5677
 2005SOL    HW111335   9.749   1.482  10.775 -0.0450  0.0044 -1.3710
 2005SOL    HW211336   9.651   1.387  10.838  0.2509  0.0322 -0.8699
 2006SOL     OW11337   1.993   4.255   8.562  0.4723  0.6965 -0.1053
 2006SOL    HW111338   1.984   4.208   8.480  0.0033  1.4449 -0.4917
 2006SOL    HW211339   2.061   4.207   8.610 -0.9578 -1.2048  0.1234
 2007SOL     OW11340   7.030  10.788   0.510  0.7398 -0.0630 -0.0258
 2007SOL    HW111341   7.059  10.834   0.589  0.7190 -0.2550  0.0955
 2007SOL    HW211342   6.948  10.747   0.535 -0.1915  1.3373 -0.6791
 2008SOL     OW11343   6.977   9.564   4.797  0.4570 -0.4749  0.2267
 2008SOL    HW111344   7.016   9.542   4.713 -2.6715 -1.0649 -1.2164
 2008SOL    HW211345   6.992   9.486   4.851  1.2813 -0.6478 -0.2358
 2009SOL     OW11346  10.711  11.194   6.496  0.2799  0.3513 -0.0058
 2009SOL    HW111347  10.754  11.171   6.579 -1.0301  0.7635  0.8122
 2009SOL    HW211348  10.744  11.281   6.475  0.0073  0.5871  0.5199
 2010SOL     OW11349   3.714   6.647   9.284  0.0656  0.2686 -0.3707
 2010SOL    HW111350   3.652   6.676   9.217 -0.6420  0.6808  0.4466
 2010SOL    HW211351   3.690   6.556   9.301  0.0641  0.2500 -0.4690
 2011SOL     OW11352   5.820   8.161   4.914 -0.0552 -0.5003  0.0686
 2011SOL    HW111353   5.822   8.066   4.910  1.5997 -0.6578  2.4316
 2011SOL    HW211354   5.737   8.182   4.956 -1.1900 -0.7194 -1.9117
 2012SOL     OW11355   2.022   7.588   5.954  0.2840 -0.0605 -0.0008
 2012SOL    HW111356   1.969   7.653   6.000  1.3091  0.5376  0.3690
 2012SOL    HW211357   2.088   7.640   5.907 -0.1359 -0.7212 -1.3728
 2013SOL     OW11358   5.351   9.194   4.831 -0.7114 -0.1067 -0.9596
 2013SOL    HW111359   5.323   9.286   4.837  2.7539  1.0376 -0.1905
 2013SOL    HW211360   5.329   9.169   4.741  0.0528  2.1821 -1.8711
 2014SOL     OW11361   1.369   4.585   4.200 -0.0184 -0.3228 -0.2322
 2014SOL    HW111362   1.336   4.674   4.211  2.3534  0.4878  0.8329
 2014SOL    HW211363   1.373   4.550   4.289 -0.2323 -1.2456 -0.5740
 2015SOL     OW11364   1.932  11.642  10.376  0.3343  0.3103 -0.1218
 2015SOL    HW111365   1.873  11.573  10.343 -0.7753  1.3417 -0.3730
 2015SOL    HW211366   1.970  11.680  10.297  0.8204  0.1099  0.0103
 2016SOL     OW11367   1.768  10.870  11.083  0.0419  0.4535  0.6532
 2016SOL    HW111368   1.802  10.832  11.002  0.9837  0.9514  0.7993
 2016SOL    HW211369   1.814  10.821  11.152 -2.6395 -1.7893  1.0124
 2017SOL     OW11370   7.782   9.904  10.512  0.3677  0.2635 -0.2947
 2017SOL    HW111371   7.836   9.903  10.591 -0.0841  0.1089  0.0119
 2017SOL    HW211372   7.703   9.951  10.537 -0.2418 -0.7026 -0.3418
 2018SOL     OW11373   4.702   0.000   5.345 -0.0808  0.3073  0.0864
 2018SOL    HW111374   4.715   0.049   5.264 -0.0466  1.2158  0.6291
 2018SOL    HW211375   4.758  -0.077   5.335  0.1221  0.5379 -0.6435
 2019SOL     OW11376   1.939   3.070   9.455  0.3688  0.4801 -0.5896
 2019SOL    HW111377   1.928   3.131   9.382  0.8582  0.3153 -0.8045
 2019SOL    HW211378   1.996   3.001   9.421 -0.4646 -0.2935 -0.4616
 2020SOL     OW11379   1.641   2.772   9.324 -0.0259 -0.0184 -0.0820
 2020SOL    HW111380   1.691   2.803   9.400 -0.5090  0.2781  0.1249
 2020SOL    HW211381   1.550   2.771   9.355 -0.3345  0.9074 -0.9048
 2021SOL     OW11382   4.503   0.999   7.599  0.0590  0.0012  0.3683
 2021SOL    HW111383   4.568   1.008   7.669  0.2576 -0.8623  0.3038
 2021SOL    HW211384   4.479   0.907   7.600 -0.9326  0.2437  0.1715
 2022SOL     OW11385   9.522   2.404  10.890  0.0123 -0.3675 -0.8794
 2022SOL    HW111386   9.433   2.399  10.856 -0.0693  0.8334 -0.8954
 2022SOL    HW211387   9.514   2.454  10.971  0.5059 -1.3897 -0.1724
 2023SOL     OW11388   6.168   6.161   1.420  0.0603 -0.1500 -0.5464
 2023SOL    HW111389   6.250   6.124   1.387  0.3157  0.4652 -0.6171
 2023SOL    HW211390   6.155   6.119   1.505  1.0675  0.6072  0.0048
 2024SOL     OW11391   2.799   9.859  11.232  0.8058 -0.0929  0.3554
 2024SOL    HW111392   2.889   9.886  11.212  1.6086 -1.9349  1.2792
 2024SOL    HW211393   2.789   9.774  11.190 -0.2762 -0.2348  0.8627
 2025SOL     OW11394   3.059  11.201   5.371  0.0756 -0.2799 -0.2370
 2025SOL    HW111395   3.045  11.159   5.456  1.5358 -1.0271 -0.3392
 2025SOL    HW211396   3.023  11.289   5.382  0.5937 -0.2239  1.2944
 2026SOL     OW11397   0.252   3.554   3.382 -0.0253  0.1459  0.1098
 2026SOL    HW111398   0.278   3.551   3.290 -0.1537  0.9711  0.0423
 2026SOL    HW211399   0.158   3.534   3.380  0.0153 -0.0486  0.0860
 2027SOL     OW11400   9.419   0.007  11.715 -0.0033  0.3848  0.3795
 2027SOL    HW111401   9.395   0.099  11.716 -1.7522 -0.0464  0.6169
 2027SOL    HW211402   9.474  -0.002  11.636 -0.4820  1.4568 -0.1006
 2028SOL     OW11403   1.562   7.362  11.739  0.4707 -0.3092 -0.0705
 2028SOL    HW111404   1.580   7.316  11.821  2.5485 -0.4234 -0.5307
 2028SOL    HW211405   1.626   7.325  11.677 -1.5086 -0.7428 -1.9586
 2029SOL     OW11406   2.123   8.823   8.398  0.1445 -0.0923 -0.5089
 2029SOL    HW111407   2.109   8.917   8.389  0.0030  0.2426  2.3520
 2029SOL    HW211408   2.167   8.813   8.482 -0.7911 -2.6661 -0.2361
 2030SOL     OW11409   4.768  10.769   9.849 -0.2950 -1.1218 -0.2140
 2030SOL    HW111410   4.803  10.858   9.852 -1.2840 -0.7309  2.4020
 2030SOL    HW211411   4.785  10.733   9.936 -4.0586 -1.7484  0.4562
 2031SOL     OW11412   2.407   4.701  10.193 -0.3849  0.1164  0.0937
 2031SOL    HW111413   2.379   4.649  10.269 -0.4167 -0.9202 -0.5976
 2031SOL    HW211414   2.471   4.645  10.149 -0.8004  0.4526 -0.9579
 2032SOL     OW11415   2.060   7.058   6.042 -0.1863 -0.3881  0.4928
 2032SOL    HW111416   2.136   7.115   6.056 -0.5443 -0.2329  1.9786
 2032SOL    HW211417   1.992   7.118   6.010 -0.2468 -0.1669  1.0238
 2033SOL     OW11418  11.003   5.734   5.197 -0.6360 -0.1901  0.3205
 2033SOL    HW111419  11.098   5.746   5.187 -0.6574 -0.5698 -0.4138
 2033SOL    HW211420  10.990   5.640   5.185 -1.0089 -0.2773  1.3304
 2034SOL     OW11421   6.599   8.337   0.148  0.0815  0.0258  0.0192
 2034SOL    HW111422   6.561   8.249   0.144 -1.5515  0.5835  1.8839
 2034SOL    HW211423   6.625   8.347   0.240 -0.1912  1.6605 -0.0584
 2035SOL     OW11424  11.719   5.378   2.688 -0.0982  0.1731  0.1943
 2035SOL    HW111425  11.791   5.404   2.745  0.1985  0.7183 -0.4093
 2035SOL    HW211426  11.643   5.428   2.720 -0.8138 -2.0535  2.2550
 2036SOL     OW11427  10.072   7.635   6.635  0.0434 -0.2305  0.1083
 2036SOL    HW111428  10.114   7.679   6.560  1.8392  0.3796  1.4106
 2036SOL    HW211429  10.144   7.617   6.695 -1.5051  0.4053  2.2404
 2037SOL     OW11430   6.279  11.383   2.973  0.2038 -0.1565 -0.1078
 2037SOL    HW111431   6.220  11.455   2.950  1.7805  1.7210  1.3266
 2037SOL    HW211432   6.344  11.423   3.031  2.2025 -2.3594 -0.6550
 2038SOL     OW11433  10.998   5.155   5.206 -0.5656  0.3068 -0.5222
 2038SOL    HW111434  11.044   5.192   5.131  0.3132 -0.2249 -0.2469
 2038SOL    HW211435  10.910   5.194   5.201 -0.3904  0.5863 -1.5869
 2039SOL     OW11436   8.774  10.336   1.070  0.1414 -0.0505  0.3414
 2039SOL    HW111437   8.811  10.322   0.983 -0.7243  0.0532 -0.0460
 2039SOL    HW211438   8.693  10.286   1.071  0.0082  0.1629  0.9986
 2040SOL     OW11439   1.961   4.487  11.219  0.0600  0.4218  0.2049
 2040SOL    HW111440   2.043   4.498  11.172  0.5980  1.6679  1.4073
 2040SOL    HW211441   1.959   4.557  11.283 -1.7796  0.1989  0.4592
 2041SOL     OW11442   8.492  11.162  10.692  0.3054  0.1677  0.3713
 2041SOL    HW111443   8.528  11.148  10.605  0.0041 -0.8995  0.4134
 2041SOL    HW211444   8.419  11.100  10.699 -0.6983  1.3394  0.7936
 2042SOL     OW11445   4.828   7.361  10.887 -0.1284  0.1191  0.9670
 2042SOL    HW111446   4.831   7.284  10.944  1.2692  0.7541  1.8217
 2042SOL    HW211447   4.792   7.430  10.943  0.9608  0.6729  1.0134
 2043SOL     OW11448   8.496  10.999   6.502 -0.6290  0.2868 -0.8562
 2043SOL    HW111449   8.408  10.980   6.470 -1.1479  0.6544  0.2907
 2043SOL    HW211450   8.500  11.095   6.503 -0.8305  0.3015  0.6461
 2044SOL     OW11451   3.061   1.309   5.676 -0.1942  0.4045 -0.5836
 2044SOL    HW111452   3.045   1.215   5.675 -0.7630  0.4977 -0.1380
 2044SOL    HW211453   2.982   1.348   5.639 -0.5305  0.7925  0.5259
 2045SOL     OW11454   0.062   8.180   4.601  0.2061  0.3457  0.2925
 2045SOL    HW111455   0.003   8.253   4.584  0.3654  0.1787 -1.1040
 2045SOL    HW211456   0.065   8.131   4.519  1.7402 -0.0464  0.5403
 2046SOL     OW11457   9.260   2.992   0.057  0.3235  0.5771  0.6275
 2046SOL    HW111458   9.264   2.917  -0.002  0.0657  0.5629  0.6264
 2046SOL    HW211459   9.254   2.953   0.144  0.8076  0.5979  0.6717
 2047SOL     OW11460   6.374  10.290  10.531  0.1943  0.4608 -0.0520
 2047SOL    HW111461   6.433  10.326  10.465  1.1320  0.5304  0.8100
 2047SOL    HW211462   6.376  10.354  10.603 -0.5347  0.2127  0.2040
 2048SOL     OW11463   4.204   8.739   1.033  0.4884  0.8044  0.0935
 2048SOL    HW111464   4.299   8.750   1.042  0.3732  1.3574  0.7198
 2048SOL    HW211465   4.192   8.645   1.016  1.1405  0.7125  0.1311
 2049SOL     OW11466   6.745   0.773   1.167  0.2047  0.0875  0.4445
 2049SOL    HW111467   6.792   0.800   1.246  0.3464  0.1445  0.3401
 2049SOL    HW211468   6.658   0.813   1.176  1.0392  2.3624 -0.6897
 2050SOL     OW11469   7.967   9.089   6.094 -0.5485 -0.4979 -0.0966
 2050SOL    HW111470   8.056   9.071   6.064  0.0593  1.2697  0.4978
 2050SOL    HW211471   7.910   9.055   6.024  0.6860  0.6604 -1.7349
 2051SOL     OW11472   0.824   2.062   0.330  0.1777  0.1865 -0.3298
 2051SOL    HW111473   0.884   2.018   0.271  1.5312 -0.3646  1.3542
 2051SOL    HW211474   0.825   2.008   0.410 -1.2942  1.0690  0.3285
 2052SOL     OW11475  10.888   1.616  10.185 -0.4292 -0.5481 -0.0437
 2052SOL    HW111476  10.826   1.674  10.229  4.4368  3.8880  2.1560
 2052SOL    HW211477  10.928   1.671  10.117  1.3971 -2.9254 -1.0397
 2053SOL     OW11478  11.578   8.224   2.792  0.1015 -0.1203  0.3527
 2053SOL    HW111479  11.608   8.303   2.836  0.8559 -0.9737  1.4287
 2053SOL    HW211480  11.552   8.165   2.863 -0.1787 -0.9437 -0.4122
 2054SOL     OW11481  11.047   1.424   5.522 -0.3064 -0.0426  0.2364
 2054SOL    HW111482  11.054   1.331   5.499 -0.0137  0.3391 -1.2678
 2054SOL    HW211483  11.132   1.461   5.500 -0.7092  0.7622  0.0108
 2055SOL     OW11484   4.247   7.408  10.194  0.0186 -0.1267  0.1346
 2055SOL    HW111485   4.253   7.476  10.262  1.0450  0.4913 -0.5484
 2055SOL    HW211486   4.184   7.345  10.229 -0.8850  1.1125  0.8355
 2056SOL     OW11487   7.752   6.633   9.358 -0.3971  0.2702 -0.1340
 2056SOL    HW111488   7.719   6.697   9.295 -2.9632 -0.4093  0.4209
 2056SOL    HW211489   7.753   6.551   9.310  0.7770  0.2914 -0.1894
 2057SOL     OW11490   1.978   1.458   0.093 -0.2903 -0.7158 -0.3676
 2057SOL    HW111491   2.021   1.464   0.178  0.3726 -0.5152 -0.7186
 2057SOL    HW211492   2.031   1.397   0.043 -0.1994 -0.1841 -0.9305
 2058SOL     OW11493   2.865   6.188   2.012 -0.8062  0.1888  0.1388
 2058SOL    HW111494   2.816   6.242   1.950 -0.5262  2.1515  1.5461
 2058SOL    HW211495   2.944   6.162   1.965 -0.7624  1.3485 -0.4563
 2059SOL     OW11496   4.510  11.251   6.378  0.5829  0.1994 -0.2017
 2059SOL    HW111497   4.440  11.280   6.437  0.7644  1.6787 -0.6798
 2059SOL    HW211498   4.523  11.323   6.317  3.5728  0.6826  0.8029
 2060SOL     OW11499   9.828   9.149   8.437  0.2890 -0.0818  0.3548
 2060SOL    HW111500   9.753   9.193   8.475  0.6525 -0.2098  1.2295
 2060SOL    HW211501   9.898   9.215   8.437 -0.1774  0.5220 -1.8008
 2061SOL     OW11502   7.646   7.396   4.747 -0.3769  0.4134  0.0040
 2061SOL    HW111503   7.737   7.426   4.742  0.1075 -0.3811  2.5775
 2061SOL    HW211504   7.626   7.365   4.659  2.4048 -0.8543 -0.2690
 2062SOL     OW11505   4.385   5.729   3.960 -0.1549 -0.7258 -0.7042
 2062SOL    HW111506   4.418   5.650   4.002  0.7390  0.2288  0.4870
 2062SOL    HW211507   4.461   5.767   3.917  0.1605  0.9716  1.2027
 2063SOL     OW11508   0.216   2.119  11.287  0.5465  0.1553  0.3758
 2063SOL    HW111509   0.236   2.135  11.380 -0.7034  1.0233  0.5182
 2063SOL    HW211510   0.126   2.087  11.288  1.3427 -2.3490 -0.3534
 2064SOL     OW11511   8.171   6.533  10.165  0.1623 -0.1030 -0.1877
 2064SOL    HW111512   8.148   6.622  10.137 -1.0765 -0.5328 -0.6180
 2064SOL    HW211513   8.135   6.526  10.253 -1.0580 -0.6350 -0.7005
 2065SOL     OW11514   7.531   9.017   4.943 -0.2238  0.0798 -0.0592
 2065SOL    HW111515   7.437   9.016   4.923  0.0802  1.5740 -1.7885
 2065SOL    HW211516   7.563   9.099   4.905  1.3739  0.8181  2.6132
 2066SOL     OW11517   9.510   6.663   2.077 -0.0947 -0.1398 -0.0144
 2066SOL    HW111518   9.545   6.653   1.989  0.9177  0.5940  0.2845
 2066SOL    HW211519   9.510   6.758   2.092 -1.4416 -0.1725  0.3125
 2067SOL     OW11520   5.378   2.508   5.556  0.4176  0.1869  0.2421
 2067SOL    HW111521   5.457   2.470   5.595  1.0951 -1.2572 -2.2990
 2067SOL    HW211522   5.307   2.449   5.584  0.6645 -0.0324  0.4149
 2068SOL     OW11523   9.726   2.235   8.638  0.3582 -0.4303  0.3828
 2068SOL    HW111524   9.710   2.176   8.564 -0.4535  1.3670 -0.9203
 2068SOL    HW211525   9.693   2.186   8.714 -1.1138 -1.3149 -0.7652
 2069SOL     OW11526   0.678   7.169   9.012  0.5577 -0.4667  0.4176
 2069SOL    HW111527   0.684   7.243   9.072 -1.2249  0.5901 -0.6223
 2069SOL    HW211528   0.743   7.187   8.944  1.0684 -0.5636  0.8738
 2070SOL     OW11529  11.458   2.084   9.231 -0.2359  0.5635 -0.5002
 2070SOL    HW111530  11.550   2.104   9.214 -0.4973  0.8568 -1.7102
 2070SOL    HW211531  11.435   2.020   9.164 -0.4603 -0.8699  0.8998
 2071SOL     OW11532  10.007   7.859   9.418 -0.3192  0.2362  0.5801
 2071SOL    HW111533  10.026   7.952   9.418  0.0239  0.1986 -0.9243
 2071SOL    HW211534   9.916   7.853   9.387 -0.1994  0.0560  0.2570
 2072SOL     OW11535   0.493   5.272   1.746 -0.5881  0.0406  0.1479
 2072SOL    HW111536   0.411   5.319   1.727 -1.7321 -1.1046  1.9387
 2072SOL    HW211537   0.469   5.180   1.740  0.4390 -0.3201  1.2225
 2073SOL     OW11538   9.540   7.980   4.324 -0.4587  0.3709  0.1562
 2073SOL    HW111539   9.579   7.990   4.410 -2.6054 -1.3674  1.4493
 2073SOL    HW211540   9.446   7.995   4.338 -0.9812 -0.7637 -1.6750
 2074SOL     OW11541   6.549   1.697   6.735  0.9587  0.1793 -0.2504
 2074SOL    HW111542   6.545   1.692   6.640  0.2195  2.0406 -0.3576
 2074SOL    HW211543   6.459   1.714   6.763  1.1955 -0.1439  0.7808
 2075SOL     OW11544   0.427  11.387   1.202  0.2429  0.4663 -0.6732
 2075SOL    HW111545   0.442  11.297   1.172  3.2924  0.6211  0.0536
 2075SOL    HW211546   0.403  11.377   1.294  1.7943  0.3685 -0.2454
 2076SOL     OW11547   8.988   5.251   5.645  0.2631  0.0513  0.7984
 2076SOL    HW111548   8.901   5.212   5.649 -0.2030  0.9370 -0.2283
 2076SOL    HW211549   9.043   5.183   5.608 -0.0209 -0.4507  1.2750
 2077SOL     OW11550   4.669   2.004   6.649 -0.6260  0.6624  0.7999
 2077SOL    HW111551   4.723   2.083   6.645 -1.3275  1.1400  0.5902
 2077SOL    HW211552   4.608   2.021   6.721  1.4627 -1.1582  3.1881
 2078SOL     OW11553   7.330   4.854   9.213  0.2068  0.0663  0.2693
 2078SOL    HW111554   7.243   4.821   9.190  0.6350 -1.4940  0.7747
 2078SOL    HW211555   7.390   4.795   9.167  1.0461  2.4617 -1.9080
 2079SOL     OW11556  11.625   3.651   4.846  0.0499  0.0378  0.1428
 2079SOL    HW111557  11.664   3.645   4.759  0.7150  0.5333  0.3912
 2079SOL    HW211558  11.592   3.563   4.864  0.4391 -0.2186 -0.3666
 2080SOL     OW11559   6.545   6.647  10.434 -0.0313 -0.0307  0.0035
 2080SOL    HW111560   6.522   6.580  10.369  0.0559  0.3202 -0.3888
 2080SOL    HW211561   6.465   6.660  10.485 -0.3918  0.4061 -0.6644
 2081SOL     OW11562  11.467   2.111   2.055 -0.2606  0.3007 -0.8602
 2081SOL    HW111563  11.542   2.080   2.004 -0.5841 -0.1233 -1.0763
 2081SOL    HW211564  11.429   2.181   2.002 -1.6711 -1.3107 -2.0922
 2082SOL     OW11565   5.969   5.167   9.907  0.0458 -0.0697 -0.2268
 2082SOL    HW111566   6.048   5.116   9.891  0.5656  0.1135  1.5296
 2082SOL    HW211567   5.999   5.244   9.956 -1.1150  0.4416 -0.2806
 2083SOL     OW11568   8.810   8.113  11.676  0.8888  0.4244 -0.0389
 2083SOL    HW111569   8.856   8.153  11.750  0.9848 -1.3064  0.8877
 2083SOL    HW211570   8.795   8.185  11.615  1.0269  1.8578  1.5520
 2084SOL     OW11571   9.705  11.143   3.662 -0.5482 -0.3534 -0.1222
 2084SOL    HW111572   9.748  11.135   3.576  0.3903  1.5254  0.1058
 2084SOL    HW211573   9.774  11.177   3.719 -0.8836 -2.5019  1.6683
 2085SOL     OW11574   2.378   5.082   3.866 -0.0656  0.0352 -0.1375
 2085SOL    HW111575   2.283   5.090   3.874  0.0878  1.4982  0.6204
 2085SOL    HW211576   2.400   5.139   3.792  0.3103  0.4149  0.2638
 2086SOL     OW11577   7.380   7.275   8.033 -0.1269 -0.0418  0.4850
 2086SOL    HW111578   7.301   7.329   8.027  1.1770  1.8307 -1.0539
 2086SOL    HW211579   7.382   7.225   7.952  1.4716  1.8121 -0.7148
 2087SOL     OW11580   6.808   8.627   6.290  0.0604 -1.0447 -0.2412
 2087SOL    HW111581   6.761   8.581   6.359 -0.0649 -1.3421 -0.5261
 2087SOL    HW211582   6.876   8.566   6.262  0.4491 -0.7217 -0.0219
 2088SOL     OW11583   9.482   4.930   0.893 -0.0769  0.2144  0.1732
 2088SOL    HW111584   9.545   5.001   0.881  0.4001 -0.2558 -0.1379
 2088SOL    HW211585   9.519   4.856   0.845 -0.6217 -0.2158  0.4006
 2089SOL     OW11586   9.221   5.941   3.845  0.0899  0.2594 -0.0204
 2089SOL    HW111587   9.276   5.879   3.891 -0.6550 -0.7026 -0.3931
 2089SOL    HW211588   9.132   5.922   3.875  0.0052  2.5616  1.4934
 2090SOL     OW11589   9.750   0.217  11.360 -0.5005  0.1083  0.6956
 2090SOL    HW111590   9.781   0.305  11.380  0.9228 -0.1052 -0.4155
 2090SOL    HW211591   9.765   0.207  11.266 -2.8830 -0.4833  0.3099
 2091SOL     OW11592   1.558   1.818   9.025 -0.2315  0.4311 -0.0253
 2091SOL    HW111593   1.565   1.723   9.016  3.6455  0.1911  3.0923
 2091SOL    HW211594   1.502   1.831   9.102 -2.1450  0.8806 -1.4041
 2092SOL     OW11595  10.307   1.540   7.388 -0.1829  0.3677  0.0409
 2092SOL    HW111596  10.300   1.447   7.407  0.0617  0.4255  0.4293
 2092SOL    HW211597  10.328   1.580   7.472  0.0583  0.7316 -0.1876
 2093SOL     OW11598   7.509   0.139   3.835  0.6373 -0.1637  0.1027
 2093SOL    HW111599   7.487   0.063   3.782  0.2447 -0.2532  0.3914
 2093SOL    HW211600   7.542   0.204   3.773 -0.0856 -0.1652 -0.2836
 2094SOL     OW11601   9.665   8.989   9.394 -0.1303  0.3489 -0.4443
 2094SOL    HW111602   9.753   9.012   9.366 -0.6877  2.9199 -0.3442
 2094SOL    HW211603   9.618   8.969   9.312  0.6030 -1.5094 -0.4585
 2095SOL     OW11604   8.622   1.646   3.012  0.4946 -0.1299 -0.0686
 2095SOL    HW111605   8.669   1.563   3.026 -1.5109 -1.8867 -2.7927
 2095SOL    HW211606   8.557   1.647   3.082  0.1302 -1.2097 -0.3669
 2096SOL     OW11607   6.761   5.145   2.759  0.7653 -0.2510  0.4413
 2096SOL    HW111608   6.816   5.072   2.787  0.4131 -0.4590  0.5859
 2096SOL    HW211609   6.809   5.223   2.788  0.6333 -0.4499  1.2211
 2097SOL     OW11610   9.598   6.595   0.679 -0.2749  0.3565 -0.0656
 2097SOL    HW111611   9.638   6.661   0.735  0.2319  0.3655 -0.4291
 2097SOL    HW211612   9.607   6.631   0.590 -0.7868  0.1997 -0.1828
 2098SOL     OW11613   0.984   1.144  10.764  0.1612 -0.5408 -1.2135
 2098SOL    HW111614   1.053   1.198  10.804 -0.8660 -0.0235 -0.0762
 2098SOL    HW211615   0.919   1.133  10.833 -1.9852  0.8744 -2.8880
 2099SOL     OW11616  11.803   7.199  11.117 -0.2283  0.4501 -0.7143
 2099SOL    HW111617  11.778   7.287  11.090  0.2505  0.6893 -0.3800
 2099SOL    HW211618  11.898   7.201  11.123 -0.3379  0.8491  2.4306
 2100SOL     OW11619   5.909   6.368   3.362  0.0649 -0.2486 -0.2184
 2100SOL    HW111620   5.884   6.454   3.394 -0.5417 -0.3770 -0.3385
 2100SOL    HW211621   5.996   6.380   3.324 -0.4326  0.5143 -1.1313
 2101SOL     OW11622   6.159   8.876   5.799  0.5969 -0.2141 -0.2242
 2101SOL    HW111623   6.211   8.797   5.811  0.3404 -0.1197  1.7595
 2101SOL    HW211624   6.191   8.937   5.865 -2.7442 -0.5724  1.9694
 2102SOL     OW11625   7.907   4.102   3.594  0.0551  0.0126 -0.2497
 2102SOL    HW111626   7.876   4.045   3.523 -0.0620 -0.0727 -0.1299
 2102SOL    HW211627   7.829   4.151   3.621 -0.1259 -0.6838  0.5069
 2103SOL     OW11628   9.541   8.210   2.634  0.3703  0.1541 -0.2102
 2103SOL    HW111629   9.495   8.288   2.665  1.9778  1.2495 -0.5146
 2103SOL    HW211630   9.515   8.142   2.697 -0.7678  0.9911  0.2797
 2104SOL     OW11631   5.077   6.976   0.365  0.3599 -0.1506  0.2014
 2104SOL    HW111632   5.057   7.063   0.331 -1.7778 -1.1602 -1.3483
 2104SOL    HW211633   5.010   6.960   0.431  1.6676 -0.0672  1.5905
 2105SOL     OW11634   3.412   4.493   6.775  0.0197 -0.2254 -0.1941
 2105SOL    HW111635   3.438   4.446   6.696  0.1748  1.4413 -1.1809
 2105SOL    HW211636   3.439   4.584   6.759 -0.4146  0.2468  1.5592
 2106SOL     OW11637   0.138   0.156  10.009 -0.2531 -0.5409 -0.3885
 2106SOL    HW111638   0.176   0.226  10.063 -0.6929 -0.8525  0.3273
 2106SOL    HW211639   0.191   0.079  10.029 -0.3982 -0.6499 -0.4243
 2107SOL     OW11640   9.362   9.123   3.824  0.3829  0.2474  0.0093
 2107SOL    HW111641   9.390   9.131   3.916  1.3221 -1.8837 -0.0291
 2107SOL    HW211642   9.429   9.169   3.774  0.1808  0.9094  0.3314
 2108SOL     OW11643   9.414   4.188   2.226  0.1850  0.1991  0.0820
 2108SOL    HW111644   9.330   4.161   2.191 -1.4813  2.5770  1.9041
 2108SOL    HW211645   9.418   4.283   2.211  0.6227  0.8581  3.4779
 2109SOL     OW11646   5.157   1.393   3.837  0.0993  0.6617 -0.1319
 2109SOL    HW111647   5.237   1.351   3.804 -0.9943  0.0151 -2.1439
 2109SOL    HW211648   5.104   1.320   3.870 -0.1796  0.9320  0.0187
 2110SOL     OW11649   7.260   7.527   2.221 -0.4288  0.0190 -0.4000
 2110SOL    HW111650   7.176   7.510   2.180 -0.7820 -0.3095  0.4490
 2110SOL    HW211651   7.325   7.494   2.158 -0.9934 -1.5180 -0.2106
 2111SOL     OW11652   4.686   9.097   1.335  0.5382  0.0388  0.6577
 2111SOL    HW111653   4.660   9.025   1.393  1.0728 -0.7306 -0.0530
 2111SOL    HW211654   4.621   9.096   1.265 -0.6152  1.5045  1.6253
 2112SOL     OW11655   7.762   5.924   6.584 -0.2972 -0.3061 -0.0989
 2112SOL    HW111656   7.764   5.986   6.657 -0.7176 -0.6228  0.1776
 2112SOL    HW211657   7.721   5.845   6.619 -0.1712 -0.5885 -0.5759
 2113SOL     OW11658   2.295   1.420   8.874 -0.0057 -0.3175 -0.3387
 2113SOL    HW111659   2.289   1.487   8.942  0.2153 -0.6040 -0.0365
 2113SOL    HW211660   2.389   1.409   8.860 -0.0241  1.4660 -2.4038
 2114SOL     OW11661   3.801   0.011  10.968  0.7250 -1.0464  0.3459
 2114SOL    HW111662   3.779  -0.007  11.059 -0.5049  0.8932  0.4988
 2114SOL    HW211663   3.884   0.058  10.972  0.2798 -0.2540  0.5652
 2115SOL     OW11664  10.430   2.947   7.847  0.0364  0.4354  0.0674
 2115SOL    HW111665  10.470   2.887   7.909  1.0762 -0.1715 -1.1479
 2115SOL    HW211666  10.389   3.014   7.901 -0.2731 -0.8119  1.4222
 2116SOL     OW11667   3.131   6.845   7.898  0.6091  0.3582 -0.2148
 2116SOL    HW111668   3.137   6.822   7.805 -1.2929 -1.5761  0.0651
 2116SOL    HW211669   3.198   6.792   7.940 -1.9420 -2.8982  0.0724
 2117SOL     OW11670   0.986   1.110   3.779 -0.1140  0.0530 -0.3612
 2117SOL    HW111671   1.070   1.128   3.736 -0.6327 -1.1193 -1.9681
 2117SOL    HW211672   0.936   1.190   3.767  1.1064  1.1862  1.5910
 2118SOL     OW11673  11.100   3.991   8.001 -0.5059  0.1000  0.1971
 2118SOL    HW111674  11.036   4.045   7.955  0.2580  1.3776  0.5669
 2118SOL    HW211675  11.183   4.038   7.990 -0.0940 -0.1853  1.8510
 2119SOL     OW11676   2.219   7.292   2.699  1.0854  0.1070 -0.2761
 2119SOL    HW111677   2.184   7.320   2.615  2.1975  1.7829 -0.2185
 2119SOL    HW211678   2.208   7.367   2.757  0.0518 -1.1150  1.2077
 2120SOL     OW11679   9.144   2.365   1.926  0.2444 -0.2735  0.2821
 2120SOL    HW111680   9.081   2.386   1.858 -0.1783 -1.0311  0.4281
 2120SOL    HW211681   9.091   2.336   2.001  0.6216  1.7788  1.4284
 2121SOL     OW11682   1.139   0.536   9.605 -0.1945  0.1028 -0.6229
 2121SOL    HW111683   1.217   0.585   9.580  0.5172 -1.1948 -1.0310
 2121SOL    HW211684   1.115   0.571   9.691 -0.6656  2.2436 -1.5733
 2122SOL     OW11685   5.266   2.311   9.838 -0.1297 -0.7637  0.0825
 2122SOL    HW111686   5.238   2.265   9.759 -0.5642  0.3930 -0.4627
 2122SOL    HW211687   5.230   2.260   9.910  1.1389 -2.4246 -0.3994
 2123SOL     OW11688  10.736   5.895  10.453 -0.5515  0.9600 -0.2070
 2123SOL    HW111689  10.790   5.825  10.490 -0.4643  1.4395  0.6108
 2123SOL    HW211690  10.664   5.850  10.410  0.1267  0.3335 -0.7038
 2124SOL     OW11691   2.028  11.286   7.513 -0.2691  0.1530 -0.2339
 2124SOL    HW111692   1.995  11.252   7.596 -1.6955 -0.8225 -1.1694
 2124SOL    HW211693   2.122  11.271   7.517 -0.1107  1.2444  1.6955
 2125SOL     OW11694   1.622   4.944   8.632  0.4080 -0.3173  0.1777
 2125SOL    HW111695   1.551   4.880   8.624 -0.2739  0.3994  0.3673
 2125SOL    HW211696   1.699   4.898   8.599  0.0189 -1.3704  0.6780
 2126SOL     OW11697   1.576   0.514   9.773 -0.2274 -0.6660  0.2991
 2126SOL    HW111698   1.589   0.576   9.845  0.0833 -1.9065  1.3427
 2126SOL    HW211699   1.499   0.463   9.797  1.3827 -2.8944  1.1635
 2127SOL     OW11700   4.772  10.458   6.843  0.1334  0.4777  0.6711
 2127SOL    HW111701   4.849  10.424   6.798  0.7338 -0.5425  2.3791
 2127SOL    HW211702   4.712  10.482   6.773  1.3969 -0.1370 -0.6748
 2128SOL     OW11703   5.050   0.809   5.227  0.5720  0.3772 -0.8244
 2128SOL    HW111704   5.025   0.834   5.138  1.2786  1.2607 -0.7815
 2128SOL    HW211705   4.994   0.862   5.283 -1.3387 -1.6450 -0.6981
 2129SOL     OW11706   4.048   5.496   5.348 -0.3505  0.0716 -0.4548
 2129SOL    HW111707   4.024   5.403   5.348  0.4852 -0.1867 -1.9799
 2129SOL    HW211708   4.131   5.499   5.301  0.2259  1.4745  0.6116
 2130SOL     OW11709  11.293  11.214  10.154  0.4161 -0.2576 -0.2940
 2130SOL    HW111710  11.332  11.165  10.082 -0.3293  0.5878 -1.3252
 2130SOL    HW211711  11.202  11.184  10.157  0.9307 -1.8435  1.7449
 2131SOL     OW11712   3.397   6.869   6.097  0.3256 -0.0351 -0.3349
 2131SOL    HW111713   3.393   6.903   6.007  1.3223  1.4014  0.1205
 2131SOL    HW211714   3.342   6.929   6.147 -0.8446 -1.2764 -0.0791
 2132SOL     OW11715   8.799  10.520   2.046  0.1054  0.4845  0.2393
 2132SOL    HW111716   8.816  10.496   1.955  0.6620 -1.6678  0.8499
 2132SOL    HW211717   8.885  10.545   2.081  0.2280 -0.4627  0.6384
 2133SOL     OW11718   6.547   7.012   2.744 -0.1110  0.7770  0.0250
 2133SOL    HW111719   6.456   7.035   2.724  0.3300  0.7364 -2.3425
 2133SOL    HW211720   6.592   7.018   2.660  1.7393 -0.8220  0.8254
 2134SOL     OW11721   4.678  11.448   8.181  0.6200  0.2955  0.5264
 2134SOL    HW111722   4.687  11.362   8.223  0.3948  0.7278  1.4964
 2134SOL    HW211723   4.732  11.442   8.102  0.7934 -0.6574  0.7027
 2135SOL     OW11724   0.928   4.028  10.968  0.2998 -0.2075  0.0676
 2135SOL    HW111725   0.856   4.071  10.921  1.1089  1.7270  0.4786
 2135SOL    HW211726   0.889   3.951  11.008 -1.5972  0.8737  0.4142
 2136SOL     OW11727   5.621  10.023   0.982  0.0943  0.1206  0.6276
 2136SOL    HW111728   5.676  10.101   0.991  0.8092 -0.4599  1.6647
 2136SOL    HW211729   5.672   9.964   0.927 -0.8642  0.7203 -0.9479
 2137SOL     OW11730  10.748   9.660   9.047 -0.2422 -0.4365  0.1337
 2137SOL    HW111731  10.728   9.593   8.982 -0.0264 -1.2342  0.8671
 2137SOL    HW211732  10.667   9.709   9.058 -0.2899 -0.3265 -0.6999
 2138SOL     OW11733   8.302   1.408   5.212  0.2837 -0.1648  0.2451
 2138SOL    HW111734   8.368   1.471   5.242 -1.1376  0.6301  1.8727
 2138SOL    HW211735   8.224   1.461   5.195 -1.2418 -1.5036  2.5127
 2139SOL     OW11736  11.502  10.420   2.997 -0.0396  0.2231  0.5225
 2139SOL    HW111737  11.514  10.326   3.012  2.7183  0.1171 -1.5424
 2139SOL    HW211738  11.408  10.433   3.004 -0.5261 -2.6879  0.9281
 2140SOL     OW11739   3.499   8.816   6.524  0.0794  0.1045 -0.2326
 2140SOL    HW111740   3.499   8.910   6.510  0.9086  0.1411 -0.0461
 2140SOL    HW211741   3.559   8.782   6.457 -0.3336 -0.3042 -0.3993
 2141SOL     OW11742   6.682   6.171   9.032 -0.1672 -0.0713 -0.3017
 2141SOL    HW111743   6.661   6.081   9.006  0.3584 -0.6615  1.2067
 2141SOL    HW211744   6.650   6.224   8.960 -0.9997 -1.4251 -0.9834
 2142SOL     OW11745   7.664   5.883   2.134 -0.2224  0.1330 -0.1094
 2142SOL    HW111746   7.757   5.861   2.136 -0.2909 -0.1377  1.4081
 2142SOL    HW211747   7.661   5.977   2.151 -0.1941  0.2609 -0.8199
 2143SOL     OW11748   2.441   0.719   6.542  0.9087 -0.2042  0.2367
 2143SOL    HW111749   2.519   0.664   6.531  0.4112 -1.0406  0.7863
 2143SOL    HW211750   2.475   0.808   6.544  1.5982 -0.2838 -2.5529
 2144SOL     OW11751   9.021   6.860   7.521  0.1007 -0.4746  0.5913
 2144SOL    HW111752   8.965   6.937   7.515  0.5437 -0.1591  0.5131
 2144SOL    HW211753   9.107   6.893   7.546  0.3452 -0.9147  0.3625
 2145SOL     OW11754   2.627   5.728  10.167 -0.5498  0.1304 -0.8690
 2145SOL    HW111755   2.580   5.708  10.248 -0.4996  1.8666 -0.3704
 2145SOL    HW211756   2.607   5.655  10.109 -1.3794 -0.6658  0.3715
 2146SOL     OW11757   7.660  10.036   6.623 -0.8573  0.2917 -0.3703
 2146SOL    HW111758   7.635   9.954   6.581  0.2021 -0.1460 -0.1746
 2146SOL    HW211759   7.647  10.103   6.556 -1.2798 -0.0914 -0.6773
 2147SOL     OW11760   7.493   3.308   2.473  0.2823  0.0066  0.6555
 2147SOL    HW111761   7.514   3.237   2.414  0.7494 -0.3225  1.2003
 2147SOL    HW211762   7.414   3.280   2.519 -0.3773  0.4826 -0.1528
 2148SOL     OW11763   8.814   6.543  11.194  0.1133  0.0572  0.0661
 2148SOL    HW111764   8.897   6.496  11.203  0.4715 -0.0618 -2.8906
 2148SOL    HW211765   8.747   6.475  11.189  0.1054  0.0566  0.1818
 2149SOL     OW11766  10.422   7.093   8.790 -0.0823  0.1485  0.2132
 2149SOL    HW111767  10.480   7.031   8.835  0.8097  0.1957 -0.8137
 2149SOL    HW211768  10.416   7.058   8.701 -1.3574  0.3547  0.2099
 2150SOL     OW11769   6.268   6.715  10.364 -0.2011 -0.7022  0.2831
 2150SOL    HW111770   6.283   6.688  10.455 -1.7642 -0.0477  0.7828
 2150SOL    HW211771   6.285   6.810  10.365 -1.9627 -0.3536  0.3607
 2151SOL     OW11772   7.494   4.703   5.244  0.1299  0.3820 -0.4212
 2151SOL    HW111773   7.472   4.672   5.332 -1.6114  2.7101  0.0811
 2151SOL    HW211774   7.409   4.710   5.199  1.0263 -1.4745 -2.6290
 2152SOL     OW11775   1.670  10.331   7.692 -0.4711 -0.0405  0.2269
 2152SOL    HW111776   1.746  10.306   7.638 -1.8634 -0.1861 -1.7741
 2152SOL    HW211777   1.654  10.422   7.670 -1.4042 -0.2639 -0.0753
 2153SOL     OW11778   5.406   7.177   2.163  0.7800 -0.2825  0.5568
 2153SOL    HW111779   5.487   7.128   2.148  0.8550 -0.0659  0.2395
 2153SOL    HW211780   5.434   7.268   2.168  0.3019  0.1054 -2.0713
 2154SOL     OW11781   3.688   9.716   1.073  0.1579  0.0928 -0.2662
 2154SOL    HW111782   3.762   9.766   1.107  1.1426 -0.9655 -0.8056
 2154SOL    HW211783   3.666   9.760   0.991  1.0287 -0.3293 -0.7448
 2155SOL     OW11784   3.928  10.707   1.134 -0.0611  0.4886  0.0517
 2155SOL    HW111785   4.015  10.744   1.146 -0.7275  1.7828  1.0891
 2155SOL    HW211786   3.940  10.613   1.150  0.9859  0.7651  1.0478
 2156SOL     OW11787   0.390  11.522   0.158 -0.3468 -0.0970 -0.0238
 2156SOL    HW111788   0.304  11.493   0.129  0.0518 -1.2449 -0.1201
 2156SOL    HW211789   0.436  11.441   0.182  0.6818  0.4967  0.0897
 2157SOL     OW11790   0.951   5.345   4.292  0.0466  0.2305  0.2093
 2157SOL    HW111791   1.038   5.384   4.290  0.0590  0.2121 -2.1438
 2157SOL    HW211792   0.892   5.417   4.270 -0.5693  0.2342  1.7509
 2158SOL     OW11793   7.073   3.218   0.230 -0.2869 -0.3913  0.1420
 2158SOL    HW111794   7.059   3.182   0.317 -1.2448 -0.4320 -0.0174
 2158SOL    HW211795   7.067   3.313   0.242  2.7605 -0.1654  0.6562
 2159SOL     OW11796  11.366   0.190   8.501 -0.0185 -0.0249  0.1671
 2159SOL    HW111797  11.406   0.149   8.578  0.5852 -1.3789 -0.8284
 2159SOL    HW211798  11.278   0.153   8.496 -0.3467  0.6666  0.6348
 2160SOL     OW11799   7.055   4.771   7.629 -0.4157 -0.2684  0.1460
 2160SOL    HW111800   7.075   4.837   7.695 -1.5958  0.3923 -0.1365
 2160SOL    HW211801   7.099   4.802   7.550  0.7700 -0.9207  0.5165
 2161SOL     OW11802   2.821   9.688   5.968 -0.0077  0.3526 -0.7676
 2161SOL    HW111803   2.750   9.672   6.030  1.0002 -0.7132  0.1418
 2161SOL    HW211804   2.787   9.656   5.884 -0.5855 -0.1834 -0.3332
 2162SOL     OW11805  10.893   0.499   0.481 -0.3407 -0.5938  0.1919
 2162SOL    HW111806  10.875   0.412   0.516 -0.2863 -0.5707  0.2790
 2162SOL    HW211807  10.907   0.486   0.388  1.3411 -0.9192  0.4594
 2163SOL     OW11808   6.762   4.977   4.846 -0.1013 -0.1098 -0.0948
 2163SOL    HW111809   6.759   5.020   4.932 -1.6725 -1.4275  0.5553
 2163SOL    HW211810   6.856   4.971   4.827  0.2412  1.3702  0.9110
 2164SOL     OW11811   1.394   3.044   8.659 -0.2995  0.0639 -0.8183
 2164SOL    HW111812   1.355   3.010   8.578 -0.5768  0.9774 -1.0803
 2164SOL    HW211813   1.487   3.027   8.649 -0.4118 -0.4577 -1.0226
 2165SOL     OW11814   0.689   2.417   2.457 -0.0015  0.6027  0.3240
 2165SOL    HW111815   0.766   2.415   2.513 -0.5788  1.9634  1.2237
 2165SOL    HW211816   0.659   2.508   2.461 -1.1114  0.3069 -0.7497
 2166SOL     OW11817   8.524   1.996   5.997  0.9182  0.1518 -0.5176
 2166SOL    HW111818   8.607   2.024   6.034  1.0290  0.1270 -0.7430
 2166SOL    HW211819   8.527   2.028   5.906  0.7001  0.1161 -0.5373
 2167SOL     OW11820   7.100   8.658  11.218  0.1896  0.2228  0.7210
 2167SOL    HW111821   7.060   8.656  11.306  0.6353 -2.2362  0.9364
 2167SOL    HW211822   7.190   8.629  11.232 -0.2675 -2.2424 -0.7125
 2168SOL     OW11823   6.225   1.096   1.603  0.0608  0.5434  0.6964
 2168SOL    HW111824   6.285   1.088   1.529 -0.8136 -0.4195  0.0603
 2168SOL    HW211825   6.276   1.139   1.671  0.7177  1.9983 -0.6446
 2169SOL     OW11826   0.552  10.516   0.174 -0.0264 -0.1685 -0.4229
 2169SOL    HW111827   0.527  10.568   0.250  0.2055 -0.4288 -0.1652
 2169SOL    HW211828   0.587  10.435   0.211  1.0021  0.0999 -0.7886
 2170SOL     OW11829   7.662   2.677  10.159  0.2556  0.0520  0.1568
 2170SOL    HW111830   7.610   2.714  10.230  1.9924  2.4109  0.3509
 2170SOL    HW211831   7.601   2.624  10.108 -1.9399  1.4472  1.2098
 2171SOL     OW11832   8.613   1.529   5.579 -0.7401 -0.7392 -0.5788
 2171SOL    HW111833   8.567   1.511   5.661 -0.1455  0.7962  0.1091
 2171SOL    HW211834   8.701   1.494   5.592 -0.4028  0.2121 -0.2477
 2172SOL     OW11835   7.537  10.205   1.682  0.5231  0.1741 -0.2384
 2172SOL    HW111836   7.559  10.142   1.751  0.8803 -2.8900 -2.9300
 2172SOL    HW211837   7.591  10.282   1.702 -2.1762  1.1476  4.9500
 2173SOL     OW11838   6.848   2.852   2.789 -0.0095 -0.4944  0.0037
 2173SOL    HW111839   6.791   2.929   2.781  1.0477  0.5688  1.9768
 2173SOL    HW211840   6.807   2.799   2.857  0.1370 -0.8529 -0.1884
 2174SOL     OW11841   9.944   9.117  11.148  0.2285  0.1067  0.3692
 2174SOL    HW111842  10.029   9.131  11.192  0.1685  0.7165  0.2925
 2174SOL    HW211843   9.913   9.205  11.127 -0.2442 -0.1361  0.0456
 2175SOL     OW11844   1.354   6.674   3.473 -0.6193  0.2296 -0.0747
 2175SOL    HW111845   1.371   6.622   3.552 -0.5559 -0.3135 -0.4478
 2175SOL    HW211846   1.402   6.756   3.489  3.2104 -1.5293 -1.4288
 2176SOL     OW11847   3.765   0.205   3.225 -0.2000 -0.1051  0.8849
 2176SOL    HW111848   3.771   0.124   3.275 -0.0520 -1.2926 -0.9720
 2176SOL    HW211849   3.753   0.273   3.292 -1.0466 -1.7025  2.4507
 2177SOL     OW11850   7.246   4.098  11.162  0.2309  0.7457 -0.0795
 2177SOL    HW111851   7.152   4.116  11.168  0.5796  2.2379  1.8476
 2177SOL    HW211852   7.265   4.104  11.068 -1.9598 -1.9448 -0.8224
 2178SOL     OW11853  11.745   0.936   1.922  0.1362 -0.1422  0.0303
 2178SOL    HW111854  11.784   0.970   2.002  0.2338  1.3548 -0.6191
 2178SOL    HW211855  11.818   0.902   1.872  0.1625 -0.4364  0.2648
 2179SOL     OW11856   4.238   7.902   6.769 -0.0918 -0.0770  0.4815
 2179SOL    HW111857   4.305   7.884   6.704 -0.6975 -0.3562 -0.0777
 2179SOL    HW211858   4.264   7.852   6.846  0.8110  0.5227  0.5737
 2180SOL     OW11859   6.078   4.095  11.382  0.4454 -0.4944 -0.0570
 2180SOL    HW111860   6.136   4.042  11.437 -0.0188 -1.7074 -0.6838
 2180SOL    HW211861   6.015   4.032  11.347 -0.5680  0.6093 -0.2801
 2181SOL     OW11862   5.381   3.320   4.969  0.2092  0.5511 -0.3653
 2181SOL    HW111863   5.349   3.404   5.001  0.1849  1.1010 -1.7980
 2181SOL    HW211864   5.419   3.278   5.047  0.3572  1.9407  0.3409
 2182SOL     OW11865   9.258   8.071   1.475 -0.2205  0.2257 -0.2214
 2182SOL    HW111866   9.278   8.164   1.487 -1.0710  0.2095  1.7266
 2182SOL    HW211867   9.282   8.031   1.558  1.6894 -1.6392 -1.5769
 2183SOL     OW11868  10.917   9.269  10.929  0.0062  0.4132  0.0715
 2183SOL    HW111869  10.856   9.197  10.914 -1.0596  0.8601  1.9981
 2183SOL    HW211870  10.987   9.232  10.982 -0.4376  0.7129  0.8876
 2184SOL     OW11871  11.157   3.047   7.088 -0.5444 -0.1408 -0.2979
 2184SOL    HW111872  11.247   3.054   7.056 -0.7314  0.5399 -0.6918
 2184SOL    HW211873  11.158   2.971   7.146  0.6847  0.8708  1.0822
 2185SOL     OW11874   2.144   8.491   0.407  0.4713 -0.1896  0.1578
 2185SOL    HW111875   2.199   8.529   0.339  1.1863  0.8879  1.3014
 2185SOL    HW211876   2.087   8.429   0.360 -0.7496  2.2378 -1.7997
 2186SOL     OW11877   7.385  10.418   6.723 -0.1194  0.1447  0.0009
 2186SOL    HW111878   7.325  10.488   6.698  0.5841  0.9273  0.4825
 2186SOL    HW211879   7.459  10.427   6.663 -0.0188 -0.1879  0.0723
 2187SOL     OW11880  10.664   3.972   6.773 -0.2632 -0.1436  0.4388
 2187SOL    HW111881  10.733   4.038   6.763 -0.9563  0.3234 -2.0285
 2187SOL    HW211882  10.701   3.894   6.732 -0.7393 -0.2543  0.2218
 2188SOL     OW11883   5.723   5.780   0.728  0.2187 -0.1485 -0.4829
 2188SOL    HW111884   5.732   5.823   0.642 -1.8924  0.6323 -0.3665
 2188SOL    HW211885   5.711   5.688   0.707  1.3726 -0.2188 -0.9205
 2189SOL     OW11886   7.214   3.572   1.686  0.2108  0.9129 -0.7928
 2189SOL    HW111887   7.287   3.525   1.725 -2.2207 -0.7742  2.0985
 2189SOL    HW211888   7.235   3.665   1.700  1.7166  0.4665  0.0727
 2190SOL     OW11889   2.205   7.612   6.952  0.2976 -0.1299  0.0129
 2190SOL    HW111890   2.175   7.619   7.042  0.1914  3.2087 -0.1402
 2190SOL    HW211891   2.275   7.678   6.945  1.5043 -1.4944 -1.9343
 2191SOL     OW11892  10.026   1.698   3.112  0.0082  0.2102  0.3082
 2191SOL    HW111893   9.995   1.706   3.202 -0.8926  0.9977 -0.0489
 2191SOL    HW211894   9.953   1.658   3.065  0.5837 -0.4710 -0.0196
 2192SOL     OW11895   0.445   5.605   4.517  0.1614 -0.1432 -0.7027
 2192SOL    HW111896   0.461   5.514   4.495 -0.3105 -0.1678 -0.9757
 2192SOL    HW211897   0.528   5.650   4.501  0.5926 -0.6432  0.1108
 2193SOL     OW11898   7.425   3.778   5.179  0.2234  0.5258  0.2554
 2193SOL    HW111899   7.398   3.832   5.105 -1.6876  1.1564  1.3402
 2193SOL    HW211900   7.383   3.693   5.165 -1.9992  1.3158  1.6334
 2194SOL     OW11901   6.524   4.423   0.049  0.1436  0.3645  0.2529
 2194SOL    HW111902   6.508   4.436   0.143  0.9289  0.4622  0.3798
 2194SOL    HW211903   6.553   4.508   0.017  0.1578  0.2591 -0.0199
 2195SOL     OW11904  11.541   9.587   4.201  0.2109  0.0016  1.2509
 2195SOL    HW111905  11.613   9.606   4.141 -1.4541 -0.3148 -0.9964
 2195SOL    HW211906  11.496   9.671   4.213 -1.1393 -0.4410 -0.3607
 2196SOL     OW11907   0.548   2.178   0.730 -0.5126  0.7465  0.3605
 2196SOL    HW111908   0.497   2.132   0.662 -0.1619 -0.1426  0.6820
 2196SOL    HW211909   0.611   2.230   0.681 -0.6734  0.5963 -0.0144
 2197SOL     OW11910   2.117   4.062   9.864  0.1254  0.2565  0.6283
 2197SOL    HW111911   2.091   3.970   9.872  0.2316  0.3464  2.5957
 2197SOL    HW211912   2.181   4.074   9.934  1.1996  1.4886 -0.5264
 2198SOL     OW11913   1.359   7.245   7.753  0.3880  0.2953 -0.6634
 2198SOL    HW111914   1.353   7.331   7.711 -0.8843 -0.3781 -1.9440
 2198SOL    HW211915   1.453   7.233   7.767  1.1552  0.0333 -4.6681
 2199SOL     OW11916   5.028   4.169   8.144  0.4484 -0.4880  0.0088
 2199SOL    HW111917   4.956   4.110   8.124  1.4072 -1.1057 -1.8424
 2199SOL    HW211918   4.988   4.255   8.152 -1.0657 -1.3592  3.3319
 2200SOL     OW11919   6.954   6.100   9.080  0.8979  0.3206 -0.1652
 2200SOL    HW111920   6.866   6.137   9.093  0.2612 -1.4610  1.0064
 2200SOL    HW211921   6.965   6.099   8.985 -0.5210  0.2592 -0.3534
 2201SOL     OW11922   3.257   6.051   2.771 -0.4743  0.2682 -0.0891
 2201SOL    HW111923   3.281   5.968   2.811 -0.9959 -0.7991 -1.8700
 2201SOL    HW211924   3.169   6.069   2.803 -1.4910 -1.3367 -1.7684
 2202SOL     OW11925   9.825   4.331   1.212  0.6078 -0.3859 -0.0285
 2202SOL    HW111926   9.813   4.263   1.279  0.5930  0.5527  0.9476
 2202SOL    HW211927   9.782   4.408   1.249 -0.1871 -0.0902 -1.5288
 2203SOL     OW11928  10.436   0.170   3.392  0.4420 -0.0407 -0.2309
 2203SOL    HW111929  10.431   0.095   3.332 -0.3099  0.3592 -0.6749
 2203SOL    HW211930  10.384   0.238   3.350 -1.0050 -0.0887  1.3550
 2204SOL     OW11931   8.969  10.791  10.253 -0.3331  0.4346 -0.1066
 2204SOL    HW111932   8.949  10.759  10.341 -3.1257 -0.8464 -1.1123
 2204SOL    HW211933   8.914  10.739  10.195  0.3681  2.2102 -2.5281
 2205SOL     OW11934   6.775   9.518   0.818 -0.1555 -0.5015  0.5354
 2205SOL    HW111935   6.686   9.552   0.808 -0.2853 -0.7422  0.8846
 2205SOL    HW211936   6.770   9.454   0.888  0.7153  1.0199  2.0714
 2206SOL     OW11937  10.429   1.911  11.540  0.0336  0.0402  0.2932
 2206SOL    HW111938  10.422   1.849  11.612 -0.0483 -0.2585  0.0296
 2206SOL    HW211939  10.339   1.924  11.510  0.2393 -1.4850 -1.1372
 2207SOL     OW11940   1.675   1.888   0.018 -0.1732 -0.1249 -0.0683
 2207SOL    HW111941   1.622   1.932   0.084  1.4294  0.3907  0.9323
 2207SOL    HW211942   1.720   1.818   0.066  0.2257 -0.4038 -0.8353
 2208SOL     OW11943   0.504   3.221   0.929 -0.2616 -0.0619  0.0906
 2208SOL    HW111944   0.538   3.132   0.917  0.2613 -0.0806  1.5346
 2208SOL    HW211945   0.494   3.255   0.840  2.0026 -0.6468 -0.4441
 2209SOL     OW11946  11.654   9.547   6.436  0.0428  0.2122 -0.4364
 2209SOL    HW111947  11.605   9.596   6.502 -0.0047  0.2429 -0.4937
 2209SOL    HW211948  11.742   9.584   6.439  0.6025 -1.1276  1.0192
 2210SOL     OW11949  11.702   8.417   5.502 -0.4562 -0.0366 -0.2803
 2210SOL    HW111950  11.762   8.444   5.571 -0.1418 -0.3672 -0.4207
 2210SOL    HW211951  11.617   8.450   5.530 -0.5139 -1.0563  0.7707
 2211SOL     OW11952   1.365   4.495   0.057 -0.2707 -0.4865 -0.0629
 2211SOL    HW111953   1.309   4.563   0.022 -0.5033 -0.1701  0.9134
 2211SOL    HW211954   1.433   4.542   0.106 -0.9778 -0.9575  1.4248
 2212SOL     OW11955  11.714   7.509   8.654  0.2779 -0.0365  0.2097
 2212SOL    HW111956  11.682   7.477   8.570  1.1150 -0.3238 -0.0106
 2212SOL    HW211957  11.676   7.596   8.663 -0.5030 -0.3448 -0.0615
 2213SOL     OW11958   5.802   5.590   4.731  0.2125 -0.0304  0.0344
 2213SOL    HW111959   5.742   5.558   4.799  1.2552  1.3060  1.6717
 2213SOL    HW211960   5.848   5.512   4.701  0.3659 -0.5723  1.5609
 2214SOL     OW11961   2.644   6.960   0.494 -0.1230 -0.2833 -0.0581
 2214SOL    HW111962   2.570   6.966   0.434 -0.4618  2.1009  0.5061
 2214SOL    HW211963   2.718   6.937   0.438 -1.2995 -3.4051 -0.5398
 2215SOL     OW11964   7.654   7.428  10.095  0.9227  0.0861  0.4707
 2215SOL    HW111965   7.590   7.357  10.089  0.1613  0.8516 -0.8640
 2215SOL    HW211966   7.732   7.396  10.050  0.1854  0.4831 -1.1534
 2216SOL     OW11967  10.650   6.484   3.615  0.2984 -0.0511 -0.0214
 2216SOL    HW111968  10.554   6.483   3.611  0.2516  1.3059  0.2048
 2216SOL    HW211969  10.671   6.455   3.703  0.1483 -1.3858 -0.4122
 2217SOL     OW11970   8.541   3.511   7.747 -0.4148  0.2790 -0.4338
 2217SOL    HW111971   8.458   3.496   7.792  0.0879 -1.3273  0.0165
 2217SOL    HW211972   8.518   3.512   7.654 -1.2362  2.0794 -0.2491
 2218SOL     OW11973   6.511   6.008   4.080 -0.4154 -0.9720 -0.6452
 2218SOL    HW111974   6.486   6.016   3.988 -2.2266 -3.8393 -0.5311
 2218SOL    HW211975   6.596   5.963   4.078  0.4648  0.6479 -0.8980
 2219SOL     OW11976   3.123   7.875  11.484  0.1006 -0.5291  1.0513
 2219SOL    HW111977   3.212   7.839  11.489  0.4505 -0.3907 -2.0385
 2219SOL    HW211978   3.068   7.800  11.464  0.1121 -0.1262 -0.6230
 2220SOL     OW11979   9.710   1.992   8.493  0.0679 -0.2870  0.4141
 2220SOL    HW111980   9.801   1.969   8.477  0.2336 -0.2838  1.2990
 2220SOL    HW211981   9.683   1.937   8.567 -0.7229 -0.4671  0.0078
 2221SOL     OW11982  10.957   2.054   9.889  0.2564  0.4986  0.5318
 2221SOL    HW111983  11.047   2.033   9.862  0.3785 -0.9908  1.9640
 2221SOL    HW211984  10.957   2.149   9.901  0.2948  1.3180 -4.0612
 2222SOL     OW11985   3.287   5.940   3.841 -0.0696  0.1794 -0.8060
 2222SOL    HW111986   3.352   5.877   3.810  0.9726 -0.0074  1.4918
 2222SOL    HW211987   3.212   5.927   3.784  0.6267 -2.1516 -1.3077
 2223SOL     OW11988   3.748   9.235   3.501  0.1087  0.3632 -0.3943
 2223SOL    HW111989   3.724   9.313   3.451  0.1130  1.0253  0.6026
 2223SOL    HW211990   3.820   9.196   3.451  0.1456  1.0338 -0.8805
 2224SOL     OW11991   6.552   9.863   4.411 -0.6097  0.3225  0.0303
 2224SOL    HW111992   6.604   9.937   4.378  0.2052 -0.4004 -0.3443
 2224SOL    HW211993   6.502   9.833   4.335  1.3767 -1.4347 -0.6853
 2225SOL     OW11994   7.679   3.172   4.253  0.0104  0.1690 -0.9155
 2225SOL    HW111995   7.694   3.256   4.296  0.1082 -0.2336 -0.1343
 2225SOL    HW211996   7.651   3.114   4.324  3.5532 -1.4831 -0.6374
 2226SOL     OW11997   0.640   9.068   6.093  0.1877 -0.0072  0.4783
 2226SOL    HW111998   0.696   9.145   6.109  0.7688 -0.6883  1.9350
 2226SOL    HW211999   0.690   9.016   6.030  1.1452 -0.4972  1.5907
 2227SOL     OW12000   8.347   3.511  11.583 -0.0191 -0.7538  0.5261
 2227SOL    HW112001   8.300   3.428  11.588  0.6748 -1.1759  0.2017
 2227SOL    HW212002   8.316   3.551  11.502  1.0514 -1.5954 -0.3360
 2228SOL     OW12003   2.250   3.522   5.306  0.3086 -0.0701 -0.0067
 2228SOL    HW112004   2.329   3.570   5.282 -0.5106  1.7578  0.7510
 2228SOL    HW212005   2.196   3.525   5.227  0.1704  0.4731  0.1040
 2229SOL     OW12006  10.729   9.801   3.405 -0.5676  0.2285  0.3851
 2229SOL    HW112007  10.728   9.731   3.340 -0.1242 -3.2719  3.8156
 2229SOL    HW212008  10.658   9.859   3.379 -0.3131 -0.8418 -3.2043
 2230SOL     OW12009   5.293   6.498   0.829 -0.3765 -0.5335 -0.3671
 2230SOL    HW112010   5.280   6.574   0.886  0.2668 -0.3425 -0.4745
 2230SOL    HW212011   5.350   6.439   0.879  0.4495 -0.2274 -0.9280
 2231SOL     OW12012   0.642   6.495   0.600  0.6427  0.3469 -0.0638
 2231SOL    HW112013   0.672   6.554   0.531  3.4328 -0.8889 -0.0257
 2231SOL    HW212014   0.622   6.413   0.554 -0.2277  0.3539  0.2741
 2232SOL     OW12015  11.128   6.911   2.332 -0.3752 -0.0193 -0.3084
 2232SOL    HW112016  11.134   6.908   2.428  0.3410  0.9578 -0.3072
 2232SOL    HW212017  11.101   6.823   2.307 -0.0245 -0.4454  0.7619
 2233SOL     OW12018  10.411   2.859   0.361  0.0725 -0.1821  0.2293
 2233SOL    HW112019  10.457   2.830   0.440 -0.0509  0.8957  0.7141
 2233SOL    HW212020  10.480   2.866   0.294  0.3235 -0.2603  0.4763
 2234SOL     OW12021   5.469   9.199   6.059  0.1925 -0.4797 -0.3753
 2234SOL    HW112022   5.417   9.132   6.015  0.1292 -2.1000  1.9812
 2234SOL    HW212023   5.557   9.189   6.024  0.0506 -1.3980 -0.4873
 2235SOL     OW12024   3.948   4.208   4.100 -0.1349  0.4405  0.2629
 2235SOL    HW112025   3.931   4.155   4.022 -1.8476  0.8146  0.3309
 2235SOL    HW212026   3.932   4.298   4.071 -1.3409  0.5388  1.1543
 2236SOL     OW12027   5.082   1.772   2.325 -0.3289  0.3314  0.1735
 2236SOL    HW112028   5.077   1.681   2.355  1.4137 -0.2607 -1.0993
 2236SOL    HW212029   5.072   1.825   2.404  0.2606 -1.0176  1.1893
 2237SOL     OW12030   4.282   0.852  11.318  0.2475  0.2678  0.3704
 2237SOL    HW112031   4.360   0.883  11.363 -0.0455 -0.2826  1.2918
 2237SOL    HW212032   4.249   0.929  11.271  2.2635  0.1008 -1.4605
 2238SOL     OW12033   5.386   1.942   9.147 -0.3227  0.1957  0.3289
 2238SOL    HW112034   5.469   1.907   9.115  0.8574  1.8437  1.4441
 2238SOL    HW212035   5.338   1.865   9.178  1.6475 -0.5954  1.5530
 2239SOL     OW12036   8.984   4.606   2.362  0.3280 -1.0981 -0.8062
 2239SOL    HW112037   8.944   4.580   2.279 -1.5498 -2.0562  0.3271
 2239SOL    HW212038   8.966   4.699   2.370  0.9627 -0.8884 -1.6863
 2240SOL     OW12039   3.023   8.129   7.494  0.5973 -0.0343  0.2247
 2240SOL    HW112040   3.111   8.160   7.474  0.6807 -0.5141 -0.1752
 2240SOL    HW212041   3.016   8.044   7.449  0.3986 -0.6200  1.3314
 2241SOL     OW12042   1.630   8.548   3.120 -0.2312  0.3567 -0.4095
 2241SOL    HW112043   1.564   8.601   3.076 -1.6748 -0.8559  0.1894
 2241SOL    HW212044   1.599   8.458   3.109 -0.0066 -0.0817  1.9984
 2242SOL     OW12045   6.651   2.818   3.012 -0.0052 -0.3885  0.0935
 2242SOL    HW112046   6.689   2.769   3.085  0.1489 -0.6156 -0.1394
 2242SOL    HW212047   6.592   2.756   2.969  0.1657 -0.3595 -0.1822
 2243SOL     OW12048   8.026   6.905   7.737  0.0584  0.0457 -0.0751
 2243SOL    HW112049   7.940   6.895   7.778 -0.1681 -0.8822 -0.7216
 2243SOL    HW212050   8.007   6.941   7.650  0.3069 -0.2837 -0.2684
 2244SOL     OW12051  11.695   7.485   1.224 -0.0970  0.1570  0.4159
 2244SOL    HW112052  11.706   7.553   1.157  0.3969  0.9135  1.2350
 2244SOL    HW212053  11.655   7.412   1.178  0.3612  0.6094 -0.7351
 2245SOL     OW12054   3.961   1.684   9.487 -0.1735 -0.5525 -0.1538
 2245SOL    HW112055   3.892   1.690   9.422 -0.3670 -0.3055  0.0675
 2245SOL    HW212056   3.977   1.590   9.498 -0.5822 -0.6169 -0.0961
 2246SOL     OW12057   3.594   4.865   0.084  0.3566  0.1117 -0.3770
 2246SOL    HW112058   3.513   4.837   0.126  0.5001  3.8781  3.0098
 2246SOL    HW212059   3.566   4.893  -0.004 -1.5516 -0.7628 -0.1119
 2247SOL     OW12060   7.166   2.384   7.541  0.1349  0.1855 -0.0846
 2247SOL    HW112061   7.173   2.370   7.635 -2.2362 -1.1721 -0.0420
 2247SOL    HW212062   7.156   2.297   7.504 -0.8938  0.8136 -1.3754
 2248SOL     OW12063   7.791   1.583  10.983  0.3282 -0.0367 -0.2657
 2248SOL    HW112064   7.784   1.572  10.888 -1.6958  1.3692 -0.3512
 2248SOL    HW212065   7.783   1.495  11.018  2.0141 -0.6935 -1.3849
 2249SOL     OW12066  10.308  11.688   5.553  0.5347 -0.5552 -0.3599
 2249SOL    HW112067  10.263  11.622   5.501 -1.2982 -0.1232  0.5873
 2249SOL    HW212068  10.256  11.768   5.541  0.4189 -0.2913  1.5797
 2250SOL     OW12069   7.446   3.084   5.878 -0.4580 -0.3660  0.6448
 2250SOL    HW112070   7.489   3.048   5.801 -1.0084  3.8764 -1.9589
 2250SOL    HW212071   7.517   3.105   5.938  0.2783 -0.8244 -0.0478
 2251SOL     OW12072  11.407   4.641   4.012  0.0627 -0.5950 -0.0854
 2251SOL    HW112073  11.432   4.687   3.932 -1.4546 -0.2997 -0.4161
 2251SOL    HW212074  11.323   4.679   4.036 -0.9358 -2.7428  0.0030
 2252SOL     OW12075   5.272  10.739  11.288 -0.1603  0.2957  0.3562
 2252SOL    HW112076   5.230  10.784  11.362 -0.3219  2.5439 -1.0186
 2252SOL    HW212077   5.217  10.760  11.213 -0.0359 -1.9924 -0.4709
 2253SOL     OW12078   2.574   6.357   4.040 -0.1291 -0.2982 -0.6734
 2253SOL    HW112079   2.644   6.418   4.017  0.3123 -0.4155  0.3160
 2253SOL    HW212080   2.494   6.409   4.034  0.3053  0.6091  0.8836
 2254SOL     OW12081   7.466   2.073   9.730 -0.0378 -0.8552 -0.0952
 2254SOL    HW112082   7.465   2.097   9.637 -0.2371  0.2308  0.1803
 2254SOL    HW212083   7.422   1.988   9.733  3.6436 -3.0354 -1.5382
 2255SOL     OW12084   4.323   5.734   9.257  0.3429 -0.6414  0.2098
 2255SOL    HW112085   4.386   5.726   9.185 -0.4611  0.9990 -0.7344
 2255SOL    HW212086   4.378   5.742   9.336  1.4631  2.0504 -0.7081
 2256SOL     OW12087  11.397   6.001   7.168 -0.0762  0.0255  0.0404
 2256SOL    HW112088  11.426   6.053   7.242 -0.4916 -0.1418  0.3230
 2256SOL    HW212089  11.339   5.935   7.206 -1.0599  0.5286 -0.5372
 2257SOL     OW12090   7.665   0.690   4.878 -0.1672  0.0433  0.3430
 2257SOL    HW112091   7.655   0.747   4.801 -0.8539  0.2410  0.5758
 2257SOL    HW212092   7.749   0.646   4.864 -1.0107 -1.1143 -1.3020
 2258SOL     OW12093  11.188   8.616   1.042  0.2830  0.1843  0.2151
 2258SOL    HW112094  11.126   8.643   1.109  3.0329 -0.0872  3.1009
 2258SOL    HW212095  11.229   8.698   1.013  2.1613  0.0632  2.2398
 2259SOL     OW12096  10.482   2.960   0.898 -0.1395  0.0165 -0.1968
 2259SOL    HW112097  10.438   2.968   0.983 -0.1241 -0.3063 -0.1604
 2259SOL    HW212098  10.413   2.934   0.838 -0.3250  1.0280 -0.4481
 2260SOL     OW12099   0.213   6.163  10.324 -0.6322  0.6701  0.6160
 2260SOL    HW112100   0.274   6.102  10.366  0.5104  0.2253 -1.5456
 2260SOL    HW212101   0.194   6.228  10.392  0.2698 -0.5576  2.1301
 2261SOL     OW12102   3.599   7.843   0.858 -0.3049 -0.0271  0.2291
 2261SOL    HW112103   3.549   7.838   0.777 -1.9559 -1.0645  1.2461
 2261SOL    HW212104   3.649   7.924   0.850  0.8595 -0.9109 -2.4776
 2262SOL     OW12105   0.110   3.110   1.751 -0.2603  0.1410 -0.4527
 2262SOL    HW112106   0.019   3.107   1.720 -0.1007 -1.6477 -0.8665
 2262SOL    HW212107   0.131   3.018   1.769  0.3215  0.8496  3.0898
 2263SOL     OW12108  10.149  10.215   2.821 -0.1217 -0.2190  0.4431
 2263SOL    HW112109  10.217  10.155   2.789 -0.8251  0.3751 -2.4472
 2263SOL    HW212110  10.067  10.168   2.806 -0.5727  0.7147 -0.0803
 2264SOL     OW12111   2.838   1.034   7.374  0.2323 -0.4012 -0.2158
 2264SOL    HW112112   2.802   1.116   7.340  0.5599 -0.8025 -1.6117
 2264SOL    HW212113   2.767   0.996   7.425  0.4456  1.2570  1.4139
 2265SOL     OW12114   5.299   9.724  11.823  0.3443 -0.3358 -0.1971
 2265SOL    HW112115   5.259   9.797  11.871  1.8770  1.1195 -0.9958
 2265SOL    HW212116   5.285   9.648  11.878 -0.4650  0.7449  1.1581
 2266SOL     OW12117   8.988   8.242   9.479  0.9339 -0.1633  0.2013
 2266SOL    HW112118   9.019   8.169   9.532  0.1178 -0.7113 -0.0520
 2266SOL    HW212119   8.918   8.282   9.531  0.1712 -0.6665 -0.4047
 2267SOL     OW12120   6.369   1.394  10.046  0.6260 -0.0302 -0.4380
 2267SOL    HW112121   6.384   1.343  10.126  0.2529 -2.1317 -1.6411
 2267SOL    HW212122   6.318   1.336   9.990 -0.5884  2.0254 -1.5841
 2268SOL     OW12123   2.145   7.203   9.652 -0.0874 -0.5473  0.3120
 2268SOL    HW112124   2.080   7.134   9.661  1.1712 -2.0303 -1.3133
 2268SOL    HW212125   2.221   7.160   9.614  0.7432  1.7434 -0.8139
 2269SOL     OW12126   8.238   2.854   7.404 -0.1254 -0.1417  0.0811
 2269SOL    HW112127   8.317   2.847   7.351 -0.7120  0.1346 -0.8797
 2269SOL    HW212128   8.170   2.813   7.350 -1.0724  1.6005 -0.1299
 2270SOL     OW12129   2.230   4.675   6.798  0.2887  0.0040  0.3178
 2270SOL    HW112130   2.166   4.702   6.732  0.6828  0.4020  0.0943
 2270SOL    HW212131   2.295   4.624   6.750 -0.0141 -0.6509  0.5973
 2271SOL     OW12132   6.926   9.457   2.255  0.0536 -0.2227  0.0826
 2271SOL    HW112133   6.831   9.471   2.251 -0.3194 -1.8975  1.7153
 2271SOL    HW212134   6.936   9.370   2.292  2.2318  1.3351  3.7105
 2272SOL     OW12135   5.429   2.787   7.544 -0.0889 -0.0259  0.0612
 2272SOL    HW112136   5.455   2.705   7.501  1.2819  0.6585 -0.4780
 2272SOL    HW212137   5.334   2.781   7.551 -0.0502 -1.4867 -0.3340
 2273SOL     OW12138   1.844  10.458   9.290  0.0408 -0.0482  0.1733
 2273SOL    HW112139   1.757  10.440   9.324  0.1000 -1.0586 -0.1790
 2273SOL    HW212140   1.851  10.554   9.289 -1.0522  0.0375  0.2100
 2274SOL     OW12141   7.288   1.353  11.161 -0.0949 -0.3239  0.2449
 2274SOL    HW112142   7.372   1.397  11.172  0.1929 -1.0650  1.1535
 2274SOL    HW212143   7.223   1.419  11.184  0.1810  0.4353 -1.0105
 2275SOL     OW12144  10.192   4.639   3.164 -0.0218 -0.3308  0.0298
 2275SOL    HW112145  10.201   4.569   3.099  2.4835 -0.1843  0.1250
 2275SOL    HW212146  10.154   4.596   3.240 -1.3958 -0.8747 -0.9174
 2276SOL     OW12147   5.124   4.837   8.515  0.5311 -0.6863  0.6774
 2276SOL    HW112148   5.170   4.892   8.451 -1.7672  0.6780  0.0547
 2276SOL    HW212149   5.180   4.839   8.593  1.9131  0.1534 -0.2816
 2277SOL     OW12150   0.312   6.207   2.734  0.6579  0.3444 -0.4562
 2277SOL    HW112151   0.224   6.199   2.700 -0.2320  1.8690  1.2530
 2277SOL    HW212152   0.361   6.251   2.664 -0.5828  1.6334 -0.5684
 2278SOL     OW12153  10.638   7.114   0.719  0.4304  0.7671  0.4415
 2278SOL    HW112154  10.625   7.162   0.637 -1.3009  1.1818  0.9129
 2278SOL    HW212155  10.581   7.037   0.712  1.0278  0.2773  0.8479
 2279SOL     OW12156   4.020   8.137   8.286  0.4180 -0.3917  0.3517
 2279SOL    HW112157   4.019   8.185   8.203  0.3287 -1.4902 -0.3092
 2279SOL    HW212158   3.929   8.133   8.313  0.1980 -1.5472 -0.4429
 2280SOL     OW12159   8.150   0.342   1.013  0.2418 -0.5397  0.1312
 2280SOL    HW112160   8.165   0.416   1.072  0.0816 -1.4056  1.3024
 2280SOL    HW212161   8.133   0.382   0.928 -1.5173  0.8371  1.0667
 2281SOL     OW12162   1.832   2.710   2.296 -1.0240 -0.4417 -0.2144
 2281SOL    HW112163   1.764   2.745   2.239 -0.4491  1.1274  0.0234
 2281SOL    HW212164   1.909   2.702   2.239 -0.3465  1.4714  0.3844
 2282SOL     OW12165  10.129   8.526   9.747  0.4037 -0.0237 -0.1614
 2282SOL    HW112166  10.054   8.516   9.806  1.2582  0.5851  1.0799
 2282SOL    HW212167  10.197   8.470   9.786  1.0711  0.5955 -0.4072
 2283SOL     OW12168   4.756   3.868   3.395 -0.0188  0.8037  0.5153
 2283SOL    HW112169   4.819   3.800   3.418  1.7298  1.6656 -1.3971
 2283SOL    HW212170   4.736   3.911   3.478  1.5640  0.2066  1.2440
 2284SOL     OW12171   0.141   0.155   8.794 -0.1089  0.0580  0.4644
 2284SOL    HW112172   0.196   0.197   8.728 -0.4460  1.6269  1.1452
 2284SOL    HW212173   0.116   0.225   8.854 -2.0775 -0.7822  0.7245
 2285SOL     OW12174   8.778   4.063  11.304 -0.0283 -0.3018  0.3821
 2285SOL    HW112175   8.826   4.144  11.287 -0.2673  0.0294  1.2125
 2285SOL    HW212176   8.686   4.087  11.295 -0.0973 -0.4975  0.5445
 2286SOL     OW12177   3.099   1.571   1.713 -0.4084 -0.2258 -0.7026
 2286SOL    HW112178   3.047   1.491   1.702 -0.8220 -0.2291  1.0939
 2286SOL    HW212179   3.182   1.541   1.751 -0.3477  0.1398 -0.5442
 2287SOL     OW12180   0.162   7.352   4.858  0.3022 -0.4929 -0.5921
 2287SOL    HW112181   0.094   7.318   4.800 -0.3791 -1.6331  0.8288
 2287SOL    HW212182   0.165   7.290   4.930  1.9130  0.2912  0.0504
 2288SOL     OW12183  10.361   7.154   5.983  0.1463 -0.1439  0.3162
 2288SOL    HW112184  10.356   7.183   6.074  0.6356 -0.8973  0.5880
 2288SOL    HW212185  10.343   7.233   5.932 -4.7845 -0.5130  1.0222
 2289SOL     OW12186   5.105   8.887  11.691 -0.3921  0.8702 -0.4020
 2289SOL    HW112187   5.177   8.846  11.738 -1.6138 -1.7825 -0.6793
 2289SOL    HW212188   5.094   8.972  11.734  1.7748  0.6679  0.7162
 2290SOL     OW12189  10.552   7.606   4.145  0.5455 -0.3897 -0.3715
 2290SOL    HW112190  10.647   7.598   4.151  0.4933 -0.1122  1.0906
 2290SOL    HW212191  10.519   7.564   4.224 -0.4427  1.1958  0.0988
 2291SOL     OW12192   3.048   3.412   8.235 -0.5047 -0.1021 -0.9472
 2291SOL    HW112193   3.086   3.333   8.274 -0.8756  1.2559  2.5134
 2291SOL    HW212194   2.979   3.379   8.177 -0.4000 -2.3547  0.0991
 2292SOL     OW12195   0.526   8.685   6.419  0.2223 -0.3213  0.0945
 2292SOL    HW112196   0.508   8.639   6.337  0.7188 -0.6813  0.1821
 2292SOL    HW212197   0.534   8.777   6.395  1.5103 -0.5645 -0.4419
 2293SOL     OW12198  11.281   6.475  11.317  0.0889  0.1699  0.3889
 2293SOL    HW112199  11.202   6.529  11.319 -1.9655 -2.6716  1.0777
 2293SOL    HW212200  11.250   6.387  11.300  3.0646 -1.1776  1.2969
 2294SOL     OW12201   5.942   6.442   2.090 -0.1474  0.2589  0.2470
 2294SOL    HW112202   5.911   6.380   2.025  0.4781  0.0376  0.1543
 2294SOL    HW212203   6.036   6.427   2.096  0.4094  2.5882 -1.2779
 2295SOL     OW12204   0.280   4.781   8.998  0.7228 -0.8422  0.1721
 2295SOL    HW112205   0.300   4.691   9.021  0.9700 -0.4457  1.6622
 2295SOL    HW212206   0.219   4.810   9.067 -0.3453 -0.2429 -0.9742
 2296SOL     OW12207   0.541   2.987   9.672  0.2935  0.2186 -0.2365
 2296SOL    HW112208   0.545   3.056   9.738 -0.6671 -1.7609  2.0157
 2296SOL    HW212209   0.461   3.006   9.622 -1.4519 -0.5906  2.0628
 2297SOL     OW12210   2.660   8.780  10.387  0.1612  0.6055 -0.3200
 2297SOL    HW112211   2.729   8.719  10.412 -1.3304 -1.2330 -0.4162
 2297SOL    HW212212   2.622   8.742  10.308 -0.1188  2.2729 -1.0160
 2298SOL     OW12213   1.278   7.793   6.809  0.6689  0.5826  0.1104
 2298SOL    HW112214   1.224   7.721   6.841 -0.9839  0.2167 -3.1118
 2298SOL    HW212215   1.356   7.751   6.773  0.8002  0.6241  0.3485
 2299SOL     OW12216   9.416   4.453   4.660  0.1246 -0.3844  0.6562
 2299SOL    HW112217   9.461   4.537   4.655 -2.2135  0.8663 -1.2376
 2299SOL    HW212218   9.365   4.458   4.741  0.1406 -0.0668  0.6472
 2300SOL     OW12219   0.419   3.642   9.758 -0.9720  0.6501  0.8279
 2300SOL    HW112220   0.481   3.581   9.799 -0.7732 -1.0689 -1.7797
 2300SOL    HW212221   0.472   3.692   9.696 -1.6322  1.6352  1.0253
 2301SOL     OW12222   0.827   6.657  10.219 -0.2411  0.0349  0.1651
 2301SOL    HW112223   0.738   6.671  10.252  0.1011 -0.5399  1.4066
 2301SOL    HW212224   0.815   6.612  10.136 -1.1332  1.1007 -0.2990
 2302SOL     OW12225   9.189   4.268   1.514 -0.4532 -0.2237 -0.1718
 2302SOL    HW112226   9.222   4.323   1.443 -0.5253 -0.2600 -0.2339
 2302SOL    HW212227   9.226   4.182   1.497 -0.1261 -0.1309  0.0748
 2303SOL     OW12228   8.046   7.941   6.270  0.0545 -0.2126 -0.0077
 2303SOL    HW112229   8.066   7.924   6.178  2.0595 -0.1373  0.3690
 2303SOL    HW212230   8.107   7.885   6.319  0.6660  1.4683  1.2528
 2304SOL     OW12231   4.589   3.292   0.828 -1.0366  0.1297  0.4635
 2304SOL    HW112232   4.511   3.274   0.879  1.0579 -0.8260  3.6102
 2304SOL    HW212233   4.612   3.382   0.850 -1.4913  0.6222 -0.9267
 2305SOL     OW12234   2.638   6.610   3.056  0.5179 -0.0685 -0.9448
 2305SOL    HW112235   2.548   6.586   3.037 -0.0922 -1.2291  2.5839
 2305SOL    HW212236   2.691   6.548   3.006 -0.8437 -2.4846  0.4071
 2306SOL     OW12237   6.211   6.005   4.785 -0.2740 -0.3556  0.3159
 2306SOL    HW112238   6.260   5.926   4.807  1.7300  0.7447  0.0210
 2306SOL    HW212239   6.134   5.974   4.737  1.4348 -2.0375 -1.4636
 2307SOL     OW12240   9.478   7.861   2.420 -0.4182 -0.0600  0.3357
 2307SOL    HW112241   9.565   7.836   2.387  0.5026 -2.3802  3.9613
 2307SOL    HW212242   9.469   7.953   2.394  2.3447 -0.2257 -1.6716
 2308SOL     OW12243   8.612   1.234   0.013 -0.1546 -0.0105 -0.0700
 2308SOL    HW112244   8.599   1.328   0.025  3.0922  0.2555  2.8755
 2308SOL    HW212245   8.549   1.193   0.073 -0.8941  0.2786 -0.6318
 2309SOL     OW12246   3.055  10.474   3.453  0.3101 -0.7086  0.4352
 2309SOL    HW112247   3.138  10.515   3.427  0.3930 -0.1237  1.5207
 2309SOL    HW212248   2.995  10.493   3.381  0.8844 -0.3544  0.0403
 2310SOL     OW12249   0.546  10.146   5.662 -0.0764  0.4722 -0.2673
 2310SOL    HW112250   0.635  10.117   5.644 -0.1661  0.2355 -0.3346
 2310SOL    HW212251   0.531  10.219   5.602  0.6275  1.5571  0.8306
 2311SOL     OW12252   2.313   6.048  11.606 -0.2883  0.2215 -0.1666
 2311SOL    HW112253   2.271   6.006  11.682  1.1128 -1.6869 -0.3418
 2311SOL    HW212254   2.337   5.974  11.550  2.6728  1.2056 -0.3362
 2312SOL     OW12255   6.879   9.810   4.321 -0.2963 -0.3854  0.2246
 2312SOL    HW112256   6.831   9.843   4.245 -1.9731 -0.7925  1.0449
 2312SOL    HW212257   6.969   9.803   4.291 -0.6663  0.7653 -1.2950
 2313SOL     OW12258   3.475   9.790   9.446 -0.3734  0.1154  0.2821
 2313SOL    HW112259   3.404   9.730   9.423  0.0643  0.2167 -1.4305
 2313SOL    HW212260   3.493   9.838   9.365  1.7080  0.0427  0.6531
 2314SOL     OW12261   6.715   5.276  10.050 -0.2803  0.0258  0.0375
 2314SOL    HW112262   6.771   5.343  10.087 -1.1178  0.5632  0.3658
 2314SOL    HW212263   6.753   5.193  10.080  1.5814  0.2390 -1.5202
 2315SOL     OW12264   6.098   4.196   8.907 -0.1715 -0.1772 -0.2750
 2315SOL    HW112265   6.048   4.145   8.843  0.6570 -1.1875 -0.1411
 2315SOL    HW212266   6.051   4.184   8.990 -1.4782  1.4618 -0.7185
 2316SOL     OW12267   2.025   9.101   6.734 -0.0330  0.2489  0.8120
 2316SOL    HW112268   2.059   9.172   6.789  0.1792  0.2192  0.7179
 2316SOL    HW212269   1.930   9.105   6.747 -0.1836  1.6551 -0.5277
 2317SOL     OW12270   5.417   6.400   4.901 -0.5029 -0.4313  0.1907
 2317SOL    HW112271   5.414   6.482   4.950  1.3026 -1.0531  1.4366
 2317SOL    HW212272   5.408   6.427   4.809 -0.2870  1.1102  0.5873
 2318SOL     OW12273   5.379   9.674  10.840 -0.1449 -0.9551  0.1923
 2318SOL    HW112274   5.416   9.608  10.781 -0.7642  0.3556 -1.7664
 2318SOL    HW212275   5.394   9.757  10.795 -0.8790  0.0956  1.7969
 2319SOL     OW12276  10.131   2.943   4.621 -0.0464  0.0116 -0.3439
 2319SOL    HW112277  10.120   2.987   4.537 -0.6717  1.8030  0.6314
 2319SOL    HW212278  10.066   2.872   4.620 -0.9272  0.8008 -0.8971
 2320SOL     OW12279   5.050  11.375   8.194 -0.0452 -0.3788  0.2101
 2320SOL    HW112280   4.989  11.432   8.241  1.9159  3.0361 -0.9888
 2320SOL    HW212281   5.131  11.378   8.246  0.7189 -0.3798 -0.9438
 2321SOL     OW12282   8.992   3.223   0.037 -0.0805  0.4726  0.0459
 2321SOL    HW112283   8.978   3.203  -0.055 -0.9852  2.5416 -0.3266
 2321SOL    HW212284   8.977   3.140   0.083  0.9106 -0.7203 -1.6635
 2322SOL     OW12285   2.305   8.102   7.206  0.4570 -0.5302 -0.4578
 2322SOL    HW112286   2.241   8.168   7.182  0.6432 -0.4918 -0.8582
 2322SOL    HW212287   2.387   8.150   7.215  0.0776 -0.2170  2.1046
 2323SOL     OW12288   3.887   9.412   2.419 -0.0766 -0.3642  0.3915
 2323SOL    HW112289   3.814   9.457   2.462  0.9619  0.8488  0.9661
 2323SOL    HW212290   3.880   9.321   2.448 -1.2578 -0.2376  0.5562
 2324SOL     OW12291  10.726   3.859   0.516  0.3283 -0.2587  0.3394
 2324SOL    HW112292  10.690   3.811   0.443 -2.2352  1.0248  0.6523
 2324SOL    HW212293  10.701   3.808   0.594  2.1998 -1.1091  0.4387
 2325SOL     OW12294   0.253   2.731   8.295  0.2151 -0.3828 -0.3044
 2325SOL    HW112295   0.207   2.746   8.377  1.2247 -0.6759  0.3244
 2325SOL    HW212296   0.330   2.788   8.299  0.8140 -1.1408 -0.5833
 2326SOL     OW12297  10.269  10.520   7.547  0.0243 -0.5071 -0.6806
 2326SOL    HW112298  10.249  10.437   7.589  0.5238 -0.1528  0.2805
 2326SOL    HW212299  10.188  10.546   7.505 -1.1054  0.1043  1.7319
 2327SOL     OW12300   6.980   9.958   3.472 -0.0554 -0.4259  0.3573
 2327SOL    HW112301   6.953   9.952   3.380  3.2604  0.2114 -0.7976
 2327SOL    HW212302   7.057   9.903   3.478  0.7271  0.7766  2.3719
 2328SOL     OW12303   1.291   8.270   0.773  0.4254  0.2021 -0.7963
 2328SOL    HW112304   1.237   8.242   0.847  0.3944  0.9110 -0.5377
 2328SOL    HW212305   1.370   8.217   0.779 -0.1807 -0.7749 -1.1139
 2329SOL     OW12306   9.285   6.337   5.887 -0.0982 -0.1135  0.0846
 2329SOL    HW112307   9.374   6.339   5.922 -0.1160 -0.1019  0.1311
 2329SOL    HW212308   9.254   6.427   5.895 -0.2758 -0.2094  0.4987
 2330SOL     OW12309   6.673   7.946   0.930  0.3637  0.5539 -0.2317
 2330SOL    HW112310   6.733   7.908   0.994  1.8423  2.3662 -0.4662
 2330SOL    HW212311   6.678   8.040   0.945  1.1753  1.1052 -3.3432
 2331SOL     OW12312   3.239   2.243   3.985 -0.1362 -0.2293  0.4873
 2331SOL    HW112313   3.188   2.168   3.953  1.0226 -1.0245  0.4301
 2331SOL    HW212314   3.249   2.227   4.079  0.2133 -0.2130  0.4540
 2332SOL     OW12315   4.295   1.550   5.353 -0.1425 -0.0697  0.2403
 2332SOL    HW112316   4.376   1.599   5.338 -0.5069  0.0947 -1.3689
 2332SOL    HW212317   4.231   1.589   5.294  0.1916 -3.9911 -3.1355
 2333SOL     OW12318  10.250   4.936  11.372  0.3560  0.2170 -0.7864
 2333SOL    HW112319  10.333   4.983  11.361  2.1269 -2.7108 -1.0362
 2333SOL    HW212320  10.218   4.965  11.457  3.1930 -0.6349  0.7110
 2334SOL     OW12321   5.024   9.621   7.661 -0.2776 -0.1235 -0.5339
 2334SOL    HW112322   5.038   9.529   7.682  0.7479  0.0146 -0.5644
 2334SOL    HW212323   4.960   9.620   7.590  0.1902 -0.8407 -0.9577
 2335SOL     OW12324   1.329   8.260   3.452  0.5135 -0.0763 -0.4281
 2335SOL    HW112325   1.413   8.307   3.448  1.4338 -1.5114  0.8385
 2335SOL    HW212326   1.269   8.323   3.492  1.5004  0.3342  0.4820
 2336SOL     OW12327  11.081   6.117   1.180  0.0930  0.2434 -0.0246
 2336SOL    HW112328  11.026   6.122   1.259 -0.4272  0.2018 -0.3772
 2336SOL    HW212329  11.040   6.050   1.126  1.0001 -0.4076  0.0771
 2337SOL     OW12330   7.011   2.466   1.468  0.1390 -0.0561 -0.0835
 2337SOL    HW112331   7.100   2.490   1.493 -0.1263 -0.3972  1.2815
 2337SOL    HW212332   7.020   2.421   1.384  1.6341 -2.6774  1.3358
 2338SOL     OW12333   8.187   5.755   2.657  0.0483 -0.1216 -0.2173
 2338SOL    HW112334   8.122   5.747   2.588  1.5749  1.4272 -1.9601
 2338SOL    HW212335   8.224   5.843   2.644  1.4768 -0.4026  1.6029
 2339SOL     OW12336   0.521  10.142   6.097 -0.3594 -0.0053  0.5948
 2339SOL    HW112337   0.529  10.207   6.027  3.3675  0.3961  1.1860
 2339SOL    HW212338   0.565  10.064   6.063 -0.3448 -0.5128  1.7217
 2340SOL     OW12339   6.476   0.887  10.328 -0.2967 -0.5284 -0.2725
 2340SOL    HW112340   6.447   0.895  10.419 -1.7848 -1.9823 -0.5579
 2340SOL    HW212341   6.395   0.867  10.279  0.8914 -2.9135 -1.4199
 2341SOL     OW12342   5.068  10.756   6.975 -0.2763 -0.3770  0.0111
 2341SOL    HW112343   5.102  10.832   7.022 -1.3537  2.7212 -3.6828
 2341SOL    HW212344   4.984  10.785   6.940 -1.0364 -3.5446 -1.0963
 2342SOL     OW12345   8.350   8.530   8.883 -0.0293  0.1406  0.6808
 2342SOL    HW112346   8.271   8.542   8.935 -0.4507 -1.9681  0.6273
 2342SOL    HW212347   8.339   8.444   8.841  0.4726  1.4987 -2.5713
 2343SOL     OW12348   0.288   8.826   5.847 -0.4466 -0.3908 -0.2534
 2343SOL    HW112349   0.308   8.809   5.939 -0.7911  0.1357 -0.0804
 2343SOL    HW212350   0.346   8.767   5.799  1.0646  0.6286  0.2467
 2344SOL     OW12351   4.943  11.700   6.020 -0.2756 -0.0900 -0.0582
 2344SOL    HW112352   5.030  11.727   5.990 -0.7005 -1.0858 -2.4678
 2344SOL    HW212353   4.915  11.770   6.078  1.6269  0.8777 -0.2219
 2345SOL     OW12354   1.988   2.782   6.064  0.5717  0.1279 -0.2812
 2345SOL    HW112355   1.930   2.844   6.109  2.5703  1.9417 -0.0298
 2345SOL    HW212356   1.997   2.709   6.126 -0.4289  0.3874  0.2018
 2346SOL     OW12357   4.613   8.432   8.028 -0.3900 -0.2103  0.3513
 2346SOL    HW112358   4.606   8.344   8.064 -1.3704 -0.2012  0.2220
 2346SOL    HW212359   4.611   8.489   8.104 -0.0178 -0.2848  0.4193
 2347SOL     OW12360   2.842   0.366   8.344  0.1238 -0.3772  0.3408
 2347SOL    HW112361   2.837   0.381   8.250 -1.1006 -2.3033  0.0209
 2347SOL    HW212362   2.906   0.429   8.376  2.5151 -1.3416 -2.1615
 2348SOL     OW12363   2.291  11.343  11.372 -0.4423 -0.5969  0.2418
 2348SOL    HW112364   2.345  11.397  11.430 -0.4934 -1.2370  0.9031
 2348SOL    HW212365   2.231  11.405  11.330 -0.8369 -0.1912  1.3597
 2349SOL     OW12366   5.756   7.277   9.623  0.4639  0.2054  0.6409
 2349SOL    HW112367   5.691   7.222   9.665 -1.0991  0.4907 -1.2383
 2349SOL    HW212368   5.758   7.357   9.674  0.3612 -0.3306  1.4966
 2350SOL     OW12369   4.001   4.133   7.657 -0.3968  0.4270  0.4339
 2350SOL    HW112370   3.928   4.187   7.628 -1.9131 -1.6153  0.2811
 2350SOL    HW212371   3.962   4.068   7.716  1.4831 -0.0184  1.2791
 2351SOL     OW12372   0.558   6.856   7.057 -0.1265 -0.2805 -0.5560
 2351SOL    HW112373   0.470   6.893   7.046 -0.1206 -0.7227 -2.3490
 2351SOL    HW212374   0.609   6.893   6.985  1.0299 -0.4511  0.1526
 2352SOL     OW12375   3.577  11.756   0.463  0.3592  0.2900  0.4725
 2352SOL    HW112376   3.574  11.848   0.437  0.1947  0.5359  1.3425
 2352SOL    HW212377   3.662  11.745   0.504  1.0467 -0.3536 -1.0311
 2353SOL     OW12378   4.974   1.439   4.872 -0.0299  0.0858 -0.4256
 2353SOL    HW112379   4.952   1.530   4.888 -2.2220 -0.7773  2.0458
 2353SOL    HW212380   5.066   1.441   4.845  0.5580  2.8670  1.4090
 2354SOL     OW12381   4.634   5.601   2.171 -0.3636  0.2283 -0.2216
 2354SOL    HW112382   4.664   5.689   2.193 -2.5072  1.1769 -0.8763
 2354SOL    HW212383   4.566   5.581   2.236  1.6412 -1.9879  1.4134
 2355SOL     OW12384   6.950   5.672   4.090 -0.1539 -0.1646 -0.4465
 2355SOL    HW112385   6.885   5.626   4.143 -0.2437 -0.5282 -0.8619
 2355SOL    HW212386   6.980   5.743   4.145  0.1190 -0.8271  0.2768
 2356SOL     OW12387   0.054  10.721   3.570  0.0852  0.1140  0.1048
 2356SOL    HW112388  -0.037  10.707   3.543  0.1378  0.9251 -0.5590
 2356SOL    HW212389   0.052  10.807   3.613  0.6196  0.3720 -0.3750
 2357SOL     OW12390   5.796   9.943   9.567 -0.5323  0.4900 -0.3957
 2357SOL    HW112391   5.826   9.856   9.538  0.2748 -0.2096  2.2042
 2357SOL    HW212392   5.874   9.998   9.559 -0.7301  0.6907 -0.9694
 2358SOL     OW12393   5.764  10.922   9.032 -0.1194  0.2783  0.0577
 2358SOL    HW112394   5.780  11.009   8.996 -0.2230  0.4646  0.4552
 2358SOL    HW212395   5.832  10.910   9.099  0.0841 -0.0724 -0.2088
 2359SOL     OW12396   0.558   9.749   2.143  0.1119  0.0603  0.2243
 2359SOL    HW112397   0.566   9.814   2.212  1.6736 -0.2799  0.4130
 2359SOL    HW212398   0.642   9.703   2.144 -0.6639 -1.4451 -0.4132
 2360SOL     OW12399  10.370  11.016   1.705 -0.2922  0.1980  0.0167
 2360SOL    HW112400  10.458  11.011   1.743 -0.4487  0.5924  0.4491
 2360SOL    HW212401  10.376  10.970   1.622  0.2812  0.0707  0.1288
 2361SOL     OW12402   5.775   8.560   0.419 -0.0025  0.8543  0.3093
 2361SOL    HW112403   5.708   8.620   0.386 -0.7722  0.9309  1.9050
 2361SOL    HW212404   5.793   8.590   0.508  1.9301  0.6131  0.0437
 2362SOL     OW12405   6.975   3.991   3.515 -0.0034  0.0514 -0.0475
 2362SOL    HW112406   7.048   3.980   3.455  1.7649  0.4424  1.9333
 2362SOL    HW212407   6.982   4.082   3.545 -0.5946 -0.2432  1.0377
 2363SOL     OW12408   6.664   4.680   4.756 -0.9900 -0.2407 -0.5145
 2363SOL    HW112409   6.681   4.710   4.667  1.3023 -2.9143 -1.1411
 2363SOL    HW212410   6.666   4.760   4.809 -0.5404  1.2346 -2.6183
 2364SOL     OW12411   1.574   5.896   3.157 -0.0111  0.5399  0.2323
 2364SOL    HW112412   1.645   5.943   3.114  0.0397  0.5656  0.3459
 2364SOL    HW212413   1.615   5.818   3.194 -0.1391  0.2696 -0.1778
 2365SOL     OW12414   6.407   1.262   3.397  0.1350  0.2826 -0.0512
 2365SOL    HW112415   6.388   1.315   3.474 -0.5551  0.6023 -0.4318
 2365SOL    HW212416   6.469   1.314   3.346  1.2751 -0.3071  0.6914
 2366SOL     OW12417   7.931   5.753  11.083 -0.2337 -0.1002  0.3572
 2366SOL    HW112418   7.910   5.821  11.148  0.3345  0.3291  0.0952
 2366SOL    HW212419   7.869   5.769  11.012  1.3971  1.6416 -0.7502
 2367SOL     OW12420   4.907   3.540   6.262  0.0201 -0.3854  0.0883
 2367SOL    HW112421   4.997   3.530   6.291  0.0563 -0.5863 -0.0931
 2367SOL    HW212422   4.860   3.568   6.341  0.5171  1.2943 -0.1679
 2368SOL     OW12423   1.180   4.088   8.723 -0.5599 -0.6067 -0.3252
 2368SOL    HW112424   1.164   4.027   8.651  0.1127  0.1449 -1.1359
 2368SOL    HW212425   1.134   4.168   8.698 -1.9286 -0.9363  1.0092
 2369SOL     OW12426   1.659   4.399  11.289  0.6412 -0.2591 -0.0648
 2369SOL    HW112427   1.669   4.493  11.271 -0.9723 -0.4306 -2.3967
 2369SOL    HW212428   1.574   4.392  11.333  0.2213 -0.6759 -0.9075
 2370SOL     OW12429   4.067   5.888   2.689 -0.0732 -0.6252  0.0753
 2370SOL    HW112430   4.070   5.983   2.704 -1.2052 -0.5071 -0.3586
 2370SOL    HW212431   3.975   5.864   2.702 -0.2700 -1.2596 -2.0309
 2371SOL     OW12432   2.284   4.042   5.843  0.5426 -0.8683 -0.6777
 2371SOL    HW112433   2.329   4.021   5.925  0.1899 -1.2043 -0.5678
 2371SOL    HW212434   2.286   4.138   5.839 -0.5833 -0.7619  0.3942
 2372SOL     OW12435   2.053   9.429   0.224  0.1030 -0.0608 -0.4100
 2372SOL    HW112436   1.965   9.462   0.209  0.1145  0.2660  0.2143
 2372SOL    HW212437   2.046   9.377   0.304  0.5049  0.0732 -0.2862
 2373SOL     OW12438   9.278   7.855   6.902 -0.3795  0.3938  0.5554
 2373SOL    HW112439   9.264   7.760   6.907 -0.2119  0.4123  1.4698
 2373SOL    HW212440   9.229   7.882   6.825  2.5731 -0.9701 -2.0188
 2374SOL     OW12441   3.286   5.589   3.254 -0.2699  0.3050  0.6002
 2374SOL    HW112442   3.240   5.554   3.178  0.7806 -0.8486  0.4606
 2374SOL    HW212443   3.305   5.680   3.231  1.2376 -0.3885 -1.1498
 2375SOL     OW12444   7.626   0.330  10.044 -0.1934 -0.3541  0.4039
 2375SOL    HW112445   7.534   0.334  10.019  0.1708 -0.6274 -1.1179
 2375SOL    HW212446   7.646   0.236  10.046  0.1745 -0.2842  0.1810
 2376SOL     OW12447   7.603   0.857   9.177 -0.4399 -0.0251 -0.0304
 2376SOL    HW112448   7.635   0.766   9.172  0.5239  0.3075 -0.1712
 2376SOL    HW212449   7.511   0.852   9.152 -0.2280 -0.8728 -0.6677
 2377SOL     OW12450  11.711   8.430   3.673 -0.1736  0.3987  0.2465
 2377SOL    HW112451  11.659   8.361   3.632  0.5836  0.4341 -0.8283
 2377SOL    HW212452  11.740   8.393   3.756 -3.4823  1.0617  1.8466
 2378SOL     OW12453   4.483  10.505   8.725 -0.7289 -0.2979 -0.5588
 2378SOL    HW112454   4.479  10.598   8.702 -2.7742  0.0073  0.7496
 2378SOL    HW212455   4.394  10.473   8.713 -1.1162 -1.0114  2.9620
 2379SOL     OW12456   5.825   2.765   8.669 -0.4006 -0.4594  0.0545
 2379SOL    HW112457   5.730   2.761   8.673 -0.4474  0.9208  1.8793
 2379SOL    HW212458   5.854   2.745   8.759  0.9120  0.8706 -0.0325
 2380SOL     OW12459   7.675   4.993   9.759  0.0707 -0.5208  0.1008
 2380SOL    HW112460   7.604   4.935   9.785 -0.3542  0.0588  0.2654
 2380SOL    HW212461   7.750   4.965   9.811 -0.4653 -0.1077  1.1362
 2381SOL     OW12462  10.847   0.323   8.966  0.3105  0.0934 -0.5203
 2381SOL    HW112463  10.825   0.334   8.874  0.3998  0.5523 -0.4867
 2381SOL    HW212464  10.937   0.289   8.965  0.5649  0.7531 -0.5881
 2382SOL     OW12465   5.371   5.028   4.126  0.1267  0.3051  0.0284
 2382SOL    HW112466   5.300   5.092   4.126  1.5712  2.0386 -0.6173
 2382SOL    HW212467   5.363   4.983   4.042  0.3279  1.1984 -0.4897
 2383SOL     OW12468   2.188   4.325   3.763 -0.0782 -0.9260  0.2939
 2383SOL    HW112469   2.282   4.341   3.753  0.1042 -1.8874  0.3778
 2383SOL    HW212470   2.166   4.363   3.848  0.0564  0.0560 -0.1064
 2384SOL     OW12471   2.575   8.750   4.744  0.2607  0.5140 -0.5842
 2384SOL    HW112472   2.656   8.792   4.774 -0.1404  0.9520 -0.0959
 2384SOL    HW212473   2.526   8.733   4.825 -0.1935  0.3755 -0.8874
 2385SOL     OW12474   4.167   6.606   0.767 -0.3554 -0.1966 -0.2170
 2385SOL    HW112475   4.133   6.680   0.817  0.4004  0.5374 -0.7709
 2385SOL    HW212476   4.185   6.642   0.680  0.9177 -0.7961 -0.2197
 2386SOL     OW12477   0.811   8.994   3.864  0.3477 -0.2633  0.1497
 2386SOL    HW112478   0.750   9.066   3.853 -1.6188 -1.6529  1.2357
 2386SOL    HW212479   0.845   9.004   3.953  2.2162  0.8061 -0.6266
 2387SOL     OW12480   9.156   9.348   6.233  0.4722 -0.5881 -0.1561
 2387SOL    HW112481   9.161   9.439   6.205 -0.5427 -0.3391  0.4404
 2387SOL    HW212482   9.096   9.306   6.171 -1.4756 -0.1233  1.3071
 2388SOL     OW12483   3.139   5.325   5.663  0.4143  0.0521 -0.0968
 2388SOL    HW112484   3.194   5.269   5.609  0.2328  0.9878 -1.2869
 2388SOL    HW212485   3.061   5.273   5.680  0.0613  0.0770 -1.5462
 2389SOL     OW12486   3.229   9.450   8.718 -0.2462  0.1459 -0.1209
 2389SOL    HW112487   3.174   9.501   8.777  0.1360 -1.2315  1.4757
 2389SOL    HW212488   3.316   9.451   8.759 -0.0373 -1.0743 -0.4882
 2390SOL     OW12489   5.211   9.692   9.230 -0.3412  0.2140 -0.9291
 2390SOL    HW112490   5.121   9.663   9.212 -0.6683 -1.0499  2.1337
 2390SOL    HW212491   5.221   9.680   9.324  3.5962 -1.2354 -1.3746
 2391SOL     OW12492   9.067   0.901   4.229  0.6665  0.4626  0.3964
 2391SOL    HW112493   9.098   0.991   4.217 -0.8634  1.3041  2.0939
 2391SOL    HW212494   9.122   0.866   4.299 -1.0188  1.4145  2.3064
 2392SOL     OW12495   1.914   2.414   9.981  0.1997 -0.3707  0.0835
 2392SOL    HW112496   1.880   2.344  10.036  0.5642 -1.3467 -0.8935
 2392SOL    HW212497   1.918   2.376   9.893  0.1770  0.9579 -0.5190
 2393SOL     OW12498   0.920   1.689   7.952  0.2235 -0.7601  0.3452
 2393SOL    HW112499   0.889   1.745   8.024 -0.7489  0.2302 -0.7915
 2393SOL    HW212500   0.841   1.651   7.915  0.4974  0.1681 -1.3137
 2394SOL     OW12501  11.289   9.410   1.719 -0.2995 -0.2058  0.1870
 2394SOL    HW112502  11.382   9.431   1.729  0.0066 -1.8150  1.0193
 2394SOL    HW212503  11.249   9.494   1.695  1.2236  0.7128  0.6351
 2395SOL     OW12504   0.578  10.053   8.172 -0.2802 -0.1800  0.1025
 2395SOL    HW112505   0.646  10.113   8.143  0.2532 -0.4511  0.7516
 2395SOL    HW212506   0.576  10.064   8.267 -1.0562 -0.2654  0.0965
 2396SOL     OW12507   9.283   9.378  11.201  0.2298  0.8363 -0.4032
 2396SOL    HW112508   9.343   9.420  11.138  1.2235 -0.1218 -0.1130
 2396SOL    HW212509   9.314   9.408  11.287  0.3636  0.2589 -0.2473
 2397SOL     OW12510   0.932   7.339   1.482 -0.0636  0.0590  0.0155
 2397SOL    HW112511   0.931   7.326   1.577 -1.0166  0.1856  0.0287
 2397SOL    HW212512   1.000   7.280   1.450 -1.8479 -2.3635  0.4426
 2398SOL     OW12513   4.541   4.526  11.568 -0.0261 -0.0032  0.2865
 2398SOL    HW112514   4.539   4.460  11.498  2.1748 -0.4892  0.6143
 2398SOL    HW212515   4.451   4.560  11.571 -0.6929 -1.4497 -1.3442
 2399SOL     OW12516   2.979   5.381   2.201 -0.9467 -0.4691  1.1723
 2399SOL    HW112517   2.959   5.441   2.130 -1.3698  0.3457  1.9608
 2399SOL    HW212518   3.015   5.304   2.158  0.4503  0.6785  0.1906
 2400SOL     OW12519  11.328   4.762  10.508 -0.3629 -0.0970 -0.0848
 2400SOL    HW112520  11.373   4.686  10.544 -1.8813 -0.5280  0.9808
 2400SOL    HW212521  11.341   4.831  10.573 -0.1141  0.1642 -0.4109
 2401SOL     OW12522   2.125   2.592   2.365 -0.1399  0.1445 -0.0547
 2401SOL    HW112523   2.217   2.566   2.362 -0.1714 -0.5605  2.6225
 2401SOL    HW212524   2.124   2.681   2.330  1.5587  0.1637 -0.1275
 2402SOL     OW12525   5.108   3.337   4.846 -0.1744 -0.3998 -0.3129
 2402SOL    HW112526   5.034   3.382   4.804 -0.1167  2.5505  2.3638
 2402SOL    HW212527   5.068   3.282   4.913 -0.0529 -0.2914 -0.1493
 2403SOL     OW12528  11.810  10.753   9.839 -0.0997  0.2535 -0.3479
 2403SOL    HW112529  11.786  10.845   9.847  1.9097  0.8664 -0.8457
 2403SOL    HW212530  11.758  10.721   9.765 -1.4884  0.7079  0.4005
 2404SOL     OW12531   9.477   2.578   3.634  0.5333 -0.2835 -0.3424
 2404SOL    HW112532   9.470   2.498   3.582 -0.1357  1.2047 -2.6658
 2404SOL    HW212533   9.387   2.607   3.648  0.7959  0.9582 -1.0424
 2405SOL     OW12534   7.211   4.292   8.672 -0.3977  0.1919 -0.2598
 2405SOL    HW112535   7.243   4.203   8.683 -1.9836 -0.2197  1.6839
 2405SOL    HW212536   7.117   4.282   8.655 -0.6197  1.4843  0.0643
 2406SOL     OW12537   0.677   7.146   3.278 -0.4395  0.6035  0.2957
 2406SOL    HW112538   0.679   7.242   3.280 -0.5521  0.6146  2.4791
 2406SOL    HW212539   0.584   7.123   3.279 -0.4298  0.4399 -0.9333
 2407SOL     OW12540   6.854   6.083   8.810  0.0917 -0.1103  0.1339
 2407SOL    HW112541   6.779   6.094   8.752  0.1450  2.0356  0.4049
 2407SOL    HW212542   6.925   6.130   8.766  0.0381  1.9179  2.0188
 2408SOL     OW12543   7.829   3.776   7.356  0.4430  0.2969 -0.3490
 2408SOL    HW112544   7.922   3.765   7.375 -0.2089 -1.3751  2.3567
 2408SOL    HW212545   7.805   3.695   7.311  0.0806  0.3108 -0.1761
 2409SOL     OW12546   8.380   4.391   4.055 -0.0741  0.0353 -0.2162
 2409SOL    HW112547   8.370   4.470   4.002 -0.0344 -0.1418 -0.4865
 2409SOL    HW212548   8.404   4.423   4.142 -1.0256  0.3713 -0.0719
 2410SOL     OW12549   0.098  10.529   3.827  0.2238  0.0922 -0.4021
 2410SOL    HW112550   0.059  10.549   3.741 -0.3315 -0.8658 -0.3892
 2410SOL    HW212551   0.112  10.615   3.867 -0.0259  0.5339 -1.2268
 2411SOL     OW12552   2.266   0.189   9.430  0.0706 -0.3743 -0.1426
 2411SOL    HW112553   2.253   0.239   9.349 -0.1876 -0.4735 -0.1623
 2411SOL    HW212554   2.295   0.102   9.400  0.8877 -0.1233 -0.0969
 2412SOL     OW12555   4.165   7.209   2.957  0.2752 -0.4373 -0.4343
 2412SOL    HW112556   4.112   7.211   3.037  1.4717 -1.0347  0.4095
 2412SOL    HW212557   4.191   7.300   2.944 -0.2859 -0.2665 -0.3989
 2413SOL     OW12558   9.406   1.028  10.225 -0.5574 -0.2557  0.0804
 2413SOL    HW112559   9.426   1.020  10.131 -2.0070 -1.3723 -0.1616
 2413SOL    HW212560   9.492   1.023  10.267  0.0348 -0.9692 -1.1337
 2414SOL     OW12561  10.960   6.784   1.087  0.0171  0.0433 -0.2498
 2414SOL    HW112562  10.992   6.873   1.072 -1.0867  0.6941  1.0297
 2414SOL    HW212563  10.982   6.736   1.007  0.1172  1.6085 -1.1941
 2415SOL     OW12564   6.838  11.611   7.181  0.5436 -0.5903 -0.0353
 2415SOL    HW112565   6.745  11.625   7.202  0.3936  0.2010 -1.1235
 2415SOL    HW212566   6.873  11.699   7.165  1.1082 -0.9729 -1.0541
 2416SOL     OW12567   6.960   7.578   7.586  0.4804 -0.1060 -0.2132
 2416SOL    HW112568   7.045   7.593   7.545  0.1922 -0.8952 -1.1304
 2416SOL    HW212569   6.981   7.546   7.674  1.1429 -0.6569 -0.5660
 2417SOL     OW12570   9.133   6.710   6.888 -0.1225 -0.3763 -0.0638
 2417SOL    HW112571   9.169   6.776   6.829 -0.3121 -0.6962 -0.5399
 2417SOL    HW212572   9.055   6.751   6.925 -0.0110 -0.1809 -0.0434
 2418SOL     OW12573   2.775   7.226   6.079  0.2717 -0.3828  0.1684
 2418SOL    HW112574   2.752   7.194   5.992  0.9864 -1.2531  0.2929
 2418SOL    HW212575   2.777   7.148   6.134  0.0072  0.1376  0.9372
 2419SOL     OW12576   5.317  10.802   0.957  0.3227 -0.3789  0.3429
 2419SOL    HW112577   5.373  10.764   0.890  0.3476 -1.6062  1.0274
 2419SOL    HW212578   5.377  10.848   1.016  0.4275 -0.3024  0.1760
 2420SOL     OW12579   7.212   0.852  11.168 -0.9435 -0.7832 -0.0485
 2420SOL    HW112580   7.136   0.794  11.179 -2.5000  1.3287  1.0320
 2420SOL    HW212581   7.177   0.940  11.182  1.6792  0.3106  0.1409
 2421SOL     OW12582  10.184   9.518   7.413 -0.4593 -0.3135  0.3580
 2421SOL    HW112583  10.260   9.487   7.364  0.8374  2.9399  0.0441
 2421SOL    HW212584  10.110   9.470   7.375  1.0035 -0.9539 -1.8993
 2422SOL     OW12585   7.102   6.998  11.016 -0.3343 -0.1807  0.3067
 2422SOL    HW112586   7.056   7.025  11.096 -0.5989 -1.7186  0.7144
 2422SOL    HW212587   7.187   7.042  11.021 -0.9521  1.0209  0.6034
 2423SOL     OW12588  11.057   0.867   8.246 -0.2331 -0.1482  0.3062
 2423SOL    HW112589  11.110   0.873   8.166 -0.3928 -0.5841  0.1653
 2423SOL    HW212590  11.039   0.958   8.270  0.2491 -0.0038  0.1356
 2424SOL     OW12591   3.840   0.160   7.123  0.4974 -0.0058 -0.1616
 2424SOL    HW112592   3.820   0.237   7.177 -0.3784 -1.1186  1.1889
 2424SOL    HW212593   3.933   0.168   7.105  0.3517  1.5778 -0.4190
 2425SOL     OW12594   7.241   9.580   9.645  0.2398  0.2647  0.4514
 2425SOL    HW112595   7.162   9.551   9.692  1.0064 -0.5935  1.2387
 2425SOL    HW212596   7.254   9.670   9.673  0.3964 -0.0746  1.5033
 2426SOL     OW12597  10.221   8.788   9.005  0.0807  0.3199  0.5494
 2426SOL    HW112598  10.163   8.842   9.059 -0.0018  1.1210 -0.3170
 2426SOL    HW212599  10.231   8.706   9.055 -0.3632  0.8527  1.5442
 2427SOL     OW12600   7.865   0.457  10.994 -0.0398  0.2609 -0.0840
 2427SOL    HW112601   7.829   0.465  11.083 -0.8839 -0.3300 -0.3613
 2427SOL    HW212602   7.788   0.442  10.939  0.3243  1.9728 -1.1166
 2428SOL     OW12603   5.604   3.658   4.858 -0.1062 -0.2309 -0.2258
 2428SOL    HW112604   5.555   3.714   4.797 -1.2941 -3.2622 -2.2818
 2428SOL    HW212605   5.538   3.628   4.921  0.4875  0.5118  0.7701
 2429SOL     OW12606   1.682   4.374   0.208  0.3201  0.3420 -0.1833
 2429SOL    HW112607   1.729   4.406   0.285  0.0785  0.1014  0.0690
 2429SOL    HW212608   1.623   4.445   0.183  0.5326  0.4904 -0.2576
 2430SOL     OW12609  11.057   2.766   8.133 -0.6626  0.3455  0.4163
 2430SOL    HW112610  11.105   2.741   8.055  0.3639  1.1030  0.7853
 2430SOL    HW212611  11.053   2.686   8.186 -3.8202 -0.9970 -1.5430
 2431SOL     OW12612  11.706   5.248   4.097  0.5147  0.1116  0.1120
 2431SOL    HW112613  11.657   5.330   4.097 -0.3628 -0.3661 -1.5785
 2431SOL    HW212614  11.639   5.180   4.095  1.2363 -0.6058 -0.3684
 2432SOL     OW12615   7.899   0.033   0.316  0.1556  0.1730  0.4924
 2432SOL    HW112616   7.909   0.068   0.404  0.2740 -0.1959  0.6258
 2432SOL    HW212617   7.837  -0.039   0.325 -0.0631  0.3258  0.2228
 2433SOL     OW12618   4.189   2.105   1.370 -0.2366 -0.1218 -0.0278
 2433SOL    HW112619   4.222   2.125   1.283  0.0022  0.3550  0.1678
 2433SOL    HW212620   4.190   2.189   1.416  1.1976 -0.6438  0.9536
 2434SOL     OW12621   7.084   1.732   3.795  0.2244 -0.3891  0.1532
 2434SOL    HW112622   7.078   1.706   3.887  0.8907  0.7156  0.5371
 2434SOL    HW212623   7.077   1.650   3.747 -0.4200 -0.9604  1.1729
 2435SOL     OW12624   8.403   6.220   6.333 -0.0393  0.7663  0.0480
 2435SOL    HW112625   8.474   6.273   6.369  0.3389 -0.4979  1.2164
 2435SOL    HW212626   8.414   6.228   6.238  1.3610  0.9828  0.2027
 2436SOL     OW12627   7.681   9.279   1.396  0.4343 -0.0598 -0.4705
 2436SOL    HW112628   7.668   9.188   1.423 -0.5831  0.0477 -0.5820
 2436SOL    HW212629   7.697   9.274   1.301  4.8216 -0.5196  0.0780
 2437SOL     OW12630   9.555   5.660   9.691 -0.4693 -0.3379  0.2220
 2437SOL    HW112631   9.617   5.720   9.651 -0.0352 -1.7762 -1.3895
 2437SOL    HW212632   9.469   5.689   9.660 -0.3400 -0.0354  0.1506
 2438SOL     OW12633   4.261   6.164   7.545  0.0565 -1.0298  0.4452
 2438SOL    HW112634   4.309   6.148   7.464  4.3015  0.0492  2.4438
 2438SOL    HW212635   4.176   6.197   7.517  0.8399 -1.8513 -3.4959
 2439SOL     OW12636  11.032   0.206   5.114  0.4380  0.4427 -0.5232
 2439SOL    HW112637  11.108   0.170   5.159  0.9354  1.7794 -0.2444
 2439SOL    HW212638  11.068   0.266   5.049 -0.3222 -0.5304 -1.9020
 2440SOL     OW12639   2.668   5.958  11.738  0.1640 -0.0519  0.1484
 2440SOL    HW112640   2.655   5.999  11.653 -0.7795  1.3947  0.9577
 2440SOL    HW212641   2.695   6.029  11.795  1.9524 -1.2097  0.8303
 2441SOL     OW12642   5.174  11.690  10.758  0.1663  0.7499  0.0310
 2441SOL    HW112643   5.117  11.656  10.689 -0.2040  0.2996  0.5562
 2441SOL    HW212644   5.261  11.689  10.719  0.0009  0.2154 -0.3335
 2442SOL     OW12645  10.061   4.665   3.772 -0.2314 -0.5116  0.0051
 2442SOL    HW112646  10.149   4.665   3.810 -0.2048  1.7163  0.0842
 2442SOL    HW212647  10.002   4.673   3.846 -0.5669 -2.2943 -0.0254
 2443SOL     OW12648   5.511  11.383   1.144 -0.5413 -0.0722 -0.3720
 2443SOL    HW112649   5.567  11.459   1.159  0.2203 -0.6769 -0.1017
 2443SOL    HW212650   5.566  11.307   1.164 -1.0957 -0.7247 -1.2206
 2444SOL     OW12651   3.149   0.073   6.828 -0.3818  0.2688 -0.2102
 2444SOL    HW112652   3.090  -0.002   6.838  0.5111 -0.4192  0.0423
 2444SOL    HW212653   3.181   0.090   6.916 -0.2541  0.6719 -0.3345
 2445SOL     OW12654   0.474   9.236   1.341  0.5270 -0.5328  0.4378
 2445SOL    HW112655   0.384   9.217   1.369  0.2399 -0.7962 -0.6228
 2445SOL    HW212656   0.504   9.302   1.403 -0.6835  0.1523  0.3459
 2446SOL     OW12657   7.501   4.028   0.350 -0.6063 -0.6619 -0.2363
 2446SOL    HW112658   7.475   4.061   0.436 -1.1882  0.1892 -0.7260
 2446SOL    HW212659   7.434   3.964   0.327 -0.4752 -0.8560 -0.0915
 2447SOL     OW12660   0.049   0.691   2.489 -0.5164 -0.1706 -1.0606
 2447SOL    HW112661   0.072   0.732   2.405 -0.9140  0.3333 -0.9310
 2447SOL    HW212662   0.009   0.762   2.539  1.8054  0.1874  0.4545
 2448SOL     OW12663  10.204   6.940   7.093  0.1683  0.1705 -0.1666
 2448SOL    HW112664  10.132   6.997   7.120  1.0567  0.6230  1.3369
 2448SOL    HW212665  10.279   6.998   7.082  1.5161 -0.7653  2.9409
 2449SOL     OW12666   1.743  10.482   3.292  0.0703 -0.1396 -0.0808
 2449SOL    HW112667   1.787  10.546   3.237  1.2160 -0.6083  0.2523
 2449SOL    HW212668   1.812  10.448   3.349 -0.7090 -0.9801  0.3953
 2450SOL     OW12669   2.073   6.487   2.672  0.4595  0.0311 -0.0467
 2450SOL    HW112670   2.100   6.566   2.625 -1.4571  0.8407  0.1171
 2450SOL    HW212671   2.084   6.417   2.608  1.2594  0.5700 -0.5223
 2451SOL     OW12672   5.823   0.951   4.737  0.1370 -0.2396  0.3472
 2451SOL    HW112673   5.812   0.900   4.817  0.0230 -0.8393 -0.0480
 2451SOL    HW212674   5.783   1.036   4.758  1.0452 -0.0124  1.2760
 2452SOL     OW12675   4.033   1.122   7.246 -0.2538  0.4873 -0.1539
 2452SOL    HW112676   3.992   1.191   7.298  0.3566 -0.5878  1.8324
 2452SOL    HW212677   3.978   1.115   7.168 -1.7129  1.5579  0.7329
 2453SOL     OW12678   6.369   5.034   3.306  0.3669 -0.3031  0.3794
 2453SOL    HW112679   6.307   4.968   3.337 -0.5250 -0.1778 -1.0301
 2453SOL    HW212680   6.315   5.112   3.291  1.1497  0.2953  0.6053
 2454SOL     OW12681  10.813   5.335   4.354  0.4105  0.3694  0.1496
 2454SOL    HW112682  10.800   5.400   4.423  2.5591  0.1191  0.8876
 2454SOL    HW212683  10.862   5.264   4.397 -0.9730 -1.2900 -0.8781
 2455SOL     OW12684   0.391  10.621   3.966  0.1459 -0.4131  0.3150
 2455SOL    HW112685   0.369  10.528   3.961 -1.0377 -0.1387  0.1858
 2455SOL    HW212686   0.316  10.662   4.007  0.3278  0.6001 -0.3103
 2456SOL     OW12687   8.261   0.401   9.825 -0.0438  0.0468  0.4838
 2456SOL    HW112688   8.346   0.432   9.792  0.9030 -2.0021  0.7990
 2456SOL    HW212689   8.270   0.404   9.920 -0.6343  0.5536  0.5274
 2457SOL     OW12690   3.500   7.714   1.372  1.0331  0.1262 -0.2997
 2457SOL    HW112691   3.473   7.699   1.282  1.4173 -0.9235 -0.2597
 2457SOL    HW212692   3.528   7.627   1.403  0.0896  0.2949  1.0990
 2458SOL     OW12693   7.921   3.689   5.040 -0.2016  0.0953 -0.4670
 2458SOL    HW112694   7.911   3.784   5.044  0.8778  0.2003  0.0929
 2458SOL    HW212695   7.843   3.655   5.084 -0.4612  0.7282 -0.4271
 2459SOL     OW12696   8.428   4.381   6.513 -0.4110  0.2167  0.1150
 2459SOL    HW112697   8.372   4.416   6.582 -0.7778  0.1130 -0.1284
 2459SOL    HW212698   8.441   4.289   6.536 -0.7698  0.1099 -0.1073
 2460SOL     OW12699   2.983   5.963   9.429  0.2572 -0.0350  0.7315
 2460SOL    HW112700   2.910   5.954   9.489 -0.2214 -0.7954  0.0569
 2460SOL    HW212701   2.951   6.022   9.361  0.3206 -0.2425  0.5197
 2461SOL     OW12702   5.150   5.407   5.303 -0.2504  0.2545 -0.2759
 2461SOL    HW112703   5.149   5.454   5.219 -2.0593 -0.1137 -0.5207
 2461SOL    HW212704   5.211   5.334   5.289  0.1770  0.7287 -0.9499
 2462SOL     OW12705   3.048   3.726   8.926 -0.2034  0.5691 -0.3150
 2462SOL    HW112706   3.139   3.696   8.923 -0.6666 -0.8970 -1.1774
 2462SOL    HW212707   3.032   3.764   8.840 -0.8441 -0.6687 -0.7673
 2463SOL     OW12708   5.128   6.018   0.318  0.3059  0.8334 -0.4086
 2463SOL    HW112709   5.041   5.989   0.345 -0.0874  2.2982 -0.0497
 2463SOL    HW212710   5.180   5.937   0.318 -0.8445  0.0550  0.1239
 2464SOL     OW12711   9.685   3.364   8.308  0.5186  0.2907  0.2315
 2464SOL    HW112712   9.744   3.431   8.273  3.0334 -1.0838  1.5276
 2464SOL    HW212713   9.604   3.411   8.327  0.6041  2.0159 -2.9224
 2465SOL     OW12714   5.202   6.545   9.885  0.2836  0.5075  0.5176
 2465SOL    HW112715   5.256   6.549   9.806 -1.3271  0.5475 -0.6533
 2465SOL    HW212716   5.236   6.614   9.941  1.9859 -0.0442  0.2237
 2466SOL     OW12717   5.918   9.052   5.478 -0.5927  0.4302  0.5295
 2466SOL    HW112718   5.949   9.049   5.388  2.1758 -1.3117  1.4204
 2466SOL    HW212719   5.975   9.115   5.521  0.6628 -1.4831  1.8167
 2467SOL     OW12720   7.858   7.148  10.376  0.3314  0.1950  0.1320
 2467SOL    HW112721   7.953   7.156  10.380  0.1167  2.9901  2.6605
 2467SOL    HW212722   7.826   7.238  10.383 -2.5103 -0.8556  2.6565
 2468SOL     OW12723   3.781   0.152   5.620  0.1017 -0.2083 -0.0184
 2468SOL    HW112724   3.761   0.094   5.547 -0.2351  1.6991 -1.5138
 2468SOL    HW212725   3.863   0.195   5.595  0.1765  0.2118  0.8972
 2469SOL     OW12726   0.577   4.655   0.105  0.5463 -0.3456 -0.1308
 2469SOL    HW112727   0.607   4.742   0.079  0.7073 -0.4494 -0.2973
 2469SOL    HW212728   0.610   4.597   0.036 -0.2458 -0.4305 -0.4494
 2470SOL     OW12729   1.470   5.059   8.974  0.1476 -0.1436 -0.4922
 2470SOL    HW112730   1.560   5.080   8.997  0.0441  1.9374 -1.6848
 2470SOL    HW212731   1.418   5.085   9.050  0.5412 -1.6708  0.3332
 2471SOL     OW12732   0.101   6.403   7.434  0.0134  0.4861  0.3969
 2471SOL    HW112733   0.093   6.347   7.357 -1.1236  0.8361  0.2368
 2471SOL    HW212734   0.091   6.344   7.508  1.6920  0.0542  0.3248
 2472SOL     OW12735   0.236  10.675   7.933  0.5230  0.4989 -0.4505
 2472SOL    HW112736   0.227  10.770   7.928  0.2785  0.5484  0.6850
 2472SOL    HW212737   0.148  10.643   7.950  1.0038  0.3333  2.2122
 2473SOL     OW12738  11.075   4.107   7.025 -0.1030  0.1619 -0.1874
 2473SOL    HW112739  11.003   4.053   7.059  1.3682 -1.0928  1.0824
 2473SOL    HW212740  11.073   4.091   6.930 -1.8782  0.6773 -0.2676
 2474SOL     OW12741   6.061   3.940   5.535 -0.2237 -0.1128  0.4435
 2474SOL    HW112742   5.974   3.977   5.546  0.2134  0.5814  1.6836
 2474SOL    HW212743   6.060   3.860   5.588 -1.0767 -1.8589 -2.0063
 2475SOL     OW12744   1.065   6.968  11.201 -0.1036  0.2036  0.0495
 2475SOL    HW112745   1.060   6.968  11.296  0.2092 -2.5833  0.1475
 2475SOL    HW212746   0.981   6.931  11.172 -0.2643  1.1729 -0.7955
 2476SOL     OW12747   7.511   4.223  11.337 -0.2602 -0.1624  0.1332
 2476SOL    HW112748   7.455   4.169  11.394  1.1214 -0.0240  1.6980
 2476SOL    HW212749   7.449   4.274  11.285 -1.5921 -1.4822  0.3327
 2477SOL     OW12750   2.207   0.095   0.594  0.1884 -0.2336 -0.0857
 2477SOL    HW112751   2.175   0.005   0.590 -2.1096  0.5561 -0.8442
 2477SOL    HW212752   2.258   0.106   0.513  1.9659 -1.2948  0.8125
 2478SOL     OW12753   1.851  11.016   3.360 -0.1622 -1.0658 -0.1580
 2478SOL    HW112754   1.756  11.018   3.366 -0.0906 -1.7011  2.0049
 2478SOL    HW212755   1.876  11.108   3.349 -1.0083 -0.8013  0.0227
 2479SOL     OW12756   9.600   9.623   4.817 -0.1200  0.2690  0.2064
 2479SOL    HW112757   9.559   9.564   4.753 -0.3420 -0.4551  0.9914
 2479SOL    HW212758   9.530   9.684   4.840 -0.0092  0.5993 -0.3068
 2480SOL     OW12759   7.630   4.007   2.088  0.5692 -0.4443  0.3725
 2480SOL    HW112760   7.698   4.030   2.025 -0.3864  1.0391 -0.1667
 2480SOL    HW212761   7.673   4.018   2.174  0.5491  2.3670  0.1188
 2481SOL     OW12762   0.903  10.738   6.279 -0.2051 -0.4424 -0.5046
 2481SOL    HW112763   0.959  10.686   6.221  2.2036  2.0202 -0.5702
 2481SOL    HW212764   0.931  10.828   6.266 -2.5242  0.6743  1.3873
 2482SOL     OW12765  10.175   9.871   9.702  0.2986  0.2122  0.3210
 2482SOL    HW112766  10.165   9.872   9.797 -0.9277  1.5500  0.2250
 2482SOL    HW212767  10.268   9.859   9.687  0.6122  0.7574  1.7095
 2483SOL     OW12768   6.252  10.777   9.196  1.1207 -0.8217 -0.3215
 2483SOL    HW112769   6.310  10.853   9.196  1.5843 -1.1485 -1.6665
 2483SOL    HW212770   6.284  10.722   9.267  0.6429  0.3235  0.8094
 2484SOL     OW12771   7.973  11.365   2.555 -0.5523  0.7743 -0.1701
 2484SOL    HW112772   8.027  11.442   2.573  0.3826  0.3969 -1.2475
 2484SOL    HW212773   7.914  11.359   2.630  0.0182  1.9662  0.4006
 2485SOL     OW12774   5.233   6.806   7.487 -0.4404 -0.3586  0.4841
 2485SOL    HW112775   5.242   6.791   7.393  1.0844 -0.0501  0.5423
 2485SOL    HW212776   5.306   6.864   7.509 -1.3461  0.3698  1.7030
 2486SOL     OW12777   9.083   7.885   1.994 -0.3917  0.3475  0.2554
 2486SOL    HW112778   9.080   7.977   1.967 -1.9548  0.3249  0.2384
 2486SOL    HW212779   9.075   7.836   1.913 -3.6048  0.2734  0.4730
 2487SOL     OW12780  11.321  11.476   2.810  0.0873 -0.4153  0.4273
 2487SOL    HW112781  11.241  11.526   2.825  0.7030  0.2741  1.5769
 2487SOL    HW212782  11.338  11.485   2.716  0.1178  1.4660  0.5742
 2488SOL     OW12783   1.207  10.550   6.977  0.2953 -0.0455 -0.1333
 2488SOL    HW112784   1.169  10.635   6.997  0.8785  0.7615 -2.2470
 2488SOL    HW212785   1.197  10.500   7.058 -0.5246  1.8414  0.9908
 2489SOL     OW12786   2.030   9.930  10.290 -0.7863  0.6182  0.3358
 2489SOL    HW112787   2.045   9.847  10.244  0.1537  0.0021  1.7004
 2489SOL    HW212788   2.052   9.912  10.381 -2.6261  1.7991  1.0791
 2490SOL     OW12789   5.816   2.100   7.040  0.2594 -0.3911  0.3355
 2490SOL    HW112790   5.911   2.116   7.040  0.3070 -0.6473 -0.1351
 2490SOL    HW212791   5.782   2.155   6.970  0.1264 -0.6540  0.1899
 2491SOL     OW12792   0.623   4.415   8.250  0.0185 -0.4481  0.2463
 2491SOL    HW112793   0.619   4.505   8.219 -0.9187 -0.4598  0.2961
 2491SOL    HW212794   0.702   4.411   8.303  0.9106 -0.0798 -1.0315
 2492SOL     OW12795   7.782   1.510   9.944  0.1340  0.1092  0.7036
 2492SOL    HW112796   7.781   1.573   9.872  0.8664 -1.3391 -0.6437
 2492SOL    HW212797   7.770   1.563  10.023 -2.4013  1.6128 -0.5530
 2493SOL     OW12798   9.300   0.779   9.041  0.1198 -0.5246 -0.5486
 2493SOL    HW112799   9.224   0.759   8.986  0.1665 -1.7866 -0.1845
 2493SOL    HW212800   9.266   0.838   9.108 -0.1841  0.1501 -1.2828
 2494SOL     OW12801   5.569   1.589   6.091 -0.2226  0.6013  0.4952
 2494SOL    HW112802   5.483   1.554   6.113  0.3847 -0.3690  1.4197
 2494SOL    HW212803   5.606   1.616   6.175  0.6923  0.2755  0.2025
 2495SOL     OW12804   3.009   7.825  10.110  0.0276 -0.4859 -0.0978
 2495SOL    HW112805   2.958   7.816  10.190  1.2175  0.9659  0.8855
 2495SOL    HW212806   3.047   7.738  10.096 -0.1469 -0.7472  0.9594
 2496SOL     OW12807   4.724   5.118   5.106  0.6810  0.2197 -0.8246
 2496SOL    HW112808   4.805   5.073   5.083  1.5460  0.4721  1.4985
 2496SOL    HW212809   4.751   5.208   5.124 -0.3677  0.6567 -1.3148
 2497SOL     OW12810   8.329   6.172  11.311  0.5369 -0.1431  0.3601
 2497SOL    HW112811   8.382   6.100  11.347  0.5909  0.3094  1.2181
 2497SOL    HW212812   8.302   6.222  11.388 -2.1873 -1.0403  0.0976
 2498SOL     OW12813   0.221   5.796   8.572  0.7642 -0.3629  0.6202
 2498SOL    HW112814   0.308   5.814   8.607  0.7649 -0.1889  0.5294
 2498SOL    HW212815   0.162   5.802   8.648  0.6209  1.0527  0.4237
 2499SOL     OW12816   8.938   0.024   3.599 -0.1618  0.2993 -0.0828
 2499SOL    HW112817   8.886   0.102   3.579 -1.6952 -0.4108  0.9740
 2499SOL    HW212818   8.962   0.034   3.691  0.0086 -0.2830 -0.0590
 2500SOL     OW12819   5.259   4.754   1.524  0.2841 -0.4403  0.3600
 2500SOL    HW112820   5.311   4.687   1.569 -0.2910 -0.8485  0.4207
 2500SOL    HW212821   5.322   4.797   1.465  0.1763 -2.7259 -1.6072
 2501SOL     OW12822   0.871   6.692  10.481  0.3952 -0.6735 -0.0128
 2501SOL    HW112823   0.807   6.621  10.488  1.1657 -1.3374  0.4451
 2501SOL    HW212824   0.887   6.701  10.387 -0.5556 -0.3158 -0.1560
 2502SOL     OW12825   9.173   3.630   7.905  0.1186 -0.0641 -0.0753
 2502SOL    HW112826   9.087   3.596   7.882  0.0082  0.7027 -0.8576
 2502SOL    HW212827   9.205   3.572   7.974 -0.1147 -1.6541 -1.2459
 2503SOL     OW12828   6.033   4.675  10.039 -0.5173  0.3022 -0.4586
 2503SOL    HW112829   5.992   4.761  10.027 -1.0086  0.3364  1.1604
 2503SOL    HW212830   5.963   4.620  10.073  0.7265  0.4079  2.5893
 2504SOL     OW12831   2.561  10.465   1.711  0.0408 -0.3685 -0.0182
 2504SOL    HW112832   2.636  10.486   1.767 -0.5133  1.9796 -0.0442
 2504SOL    HW212833   2.599  10.453   1.624  0.6088 -1.4112  0.3581
 2505SOL     OW12834   6.304  11.229   1.030  0.3940 -0.3327 -0.3531
 2505SOL    HW112835   6.398  11.232   1.047  0.3761 -1.2675 -0.0059
 2505SOL    HW212836   6.282  11.136   1.035 -0.5594 -0.1189 -0.3536
 2506SOL     OW12837  11.714   0.836   9.156 -0.1058 -0.1129 -0.7815
 2506SOL    HW112838  11.644   0.776   9.130 -0.1005 -0.1522 -0.7054
 2506SOL    HW212839  11.680   0.923   9.134 -1.1587  0.0877  1.4088
 2507SOL     OW12840   6.526   7.943   2.425 -0.0882  0.0863  0.2096
 2507SOL    HW112841   6.476   7.862   2.432 -0.1897  0.0482 -0.9041
 2507SOL    HW212842   6.582   7.931   2.348  2.5455 -0.3453  2.0486
 2508SOL     OW12843   8.583   7.248   9.834  0.5194 -0.4802  0.6050
 2508SOL    HW112844   8.636   7.194   9.893 -1.5984 -4.8733 -1.0150
 2508SOL    HW212845   8.610   7.220   9.747 -0.4125  1.5789 -0.3992
 2509SOL     OW12846   4.981   2.543   8.384  0.1079 -0.3780  0.0017
 2509SOL    HW112847   5.027   2.603   8.443  0.1532  0.0378 -0.4506
 2509SOL    HW212848   4.901   2.590   8.360  0.0916 -0.5459 -0.2677
 2510SOL     OW12849   2.905   6.377   3.107 -0.5775 -0.1858 -0.8012
 2510SOL    HW112850   2.903   6.296   3.055 -0.3189 -0.5865 -0.2020
 2510SOL    HW212851   2.907   6.346   3.198 -0.4861  0.5006 -0.5693
 2511SOL     OW12852   3.184   6.124   4.736 -0.0262 -0.5297  0.1127
 2511SOL    HW112853   3.156   6.167   4.817  0.0392 -0.8465  0.3033
 2511SOL    HW212854   3.250   6.183   4.699  0.6685 -0.8619  0.7947
 2512SOL     OW12855   5.313   5.434   2.515  0.3126  0.0361  0.2052
 2512SOL    HW112856   5.254   5.366   2.549  1.1331 -2.0377 -2.1939
 2512SOL    HW212857   5.304   5.429   2.420  1.7217  2.1177 -0.1019
 2513SOL     OW12858   8.736   4.008   0.841  0.1172  0.8079 -0.1908
 2513SOL    HW112859   8.714   3.981   0.931  0.4483 -1.6028 -0.7591
 2513SOL    HW212860   8.661   3.982   0.789  1.5162 -1.6523 -1.1690
 2514SOL     OW12861   1.046  10.391   7.809  0.0753 -0.0636 -0.0953
 2514SOL    HW112862   1.095  10.309   7.813 -0.3647 -0.4137 -1.4901
 2514SOL    HW212863   1.062  10.425   7.721 -1.2096  0.4227 -0.1632
 2515SOL     OW12864   6.751   5.039   8.840  0.4472 -0.3592  0.2849
 2515SOL    HW112865   6.809   5.112   8.859 -0.3601  0.0778  1.1355
 2515SOL    HW212866   6.809   4.968   8.812  1.2333  0.5920 -0.5312
 2516SOL     OW12867   2.730   1.140   0.797  0.4097 -0.3956  0.7679
 2516SOL    HW112868   2.803   1.199   0.783  1.1301 -1.3465  0.4230
 2516SOL    HW212869   2.658   1.177   0.746  0.7222  0.4007  0.8970
 2517SOL     OW12870   4.698   4.750  11.557 -0.5456 -0.0894 -0.0782
 2517SOL    HW112871   4.614   4.796  11.553 -1.6577 -2.0222 -0.2193
 2517SOL    HW212872   4.675   4.658  11.569  1.5003 -0.9380 -1.8996
 2518SOL     OW12873   9.839   5.189   3.365 -0.6145 -0.5933  0.4453
 2518SOL    HW112874   9.927   5.220   3.385 -0.7079  0.0465 -0.0946
 2518SOL    HW212875   9.845   5.094   3.370  0.2383 -0.5725 -0.1187
 2519SOL     OW12876   1.720   6.429   8.153 -1.0577  0.5811  0.5053
 2519SOL    HW112877   1.648   6.415   8.091 -1.1435  2.0236  0.2381
 2519SOL    HW212878   1.681   6.481   8.223 -0.3831  1.0481  0.5456
 2520SOL     OW12879   8.252   8.380   7.938  0.1721 -0.0586 -0.0952
 2520SOL    HW112880   8.246   8.412   8.028  0.9761  2.2045 -0.7708
 2520SOL    HW212881   8.334   8.416   7.905  0.6467 -2.0802 -1.3285
 2521SOL     OW12882   3.329   1.881   8.850  0.2751  0.4506 -0.2158
 2521SOL    HW112883   3.336   1.825   8.927  1.2333  0.3970 -0.3337
 2521SOL    HW212884   3.388   1.842   8.786 -1.3077 -0.1197 -1.3888
 2522SOL     OW12885   3.790   5.709   9.272  0.0023 -0.1371  0.3355
 2522SOL    HW112886   3.885   5.701   9.259  0.0074 -0.1659  0.3902
 2522SOL    HW212887   3.757   5.740   9.188  0.1550  0.5796  0.5267
 2523SOL     OW12888   5.286  10.349   2.493 -0.2465  0.4904  0.3891
 2523SOL    HW112889   5.363  10.382   2.539  0.4147  0.2280 -0.5023
 2523SOL    HW212890   5.236  10.303   2.560  0.1822  0.9742  1.0569
 2524SOL     OW12891   9.106   3.243   3.342  1.0688  0.5139  0.9962
 2524SOL    HW112892   9.113   3.328   3.386  0.1985  0.3914  1.3927
 2524SOL    HW212893   9.037   3.257   3.276  2.6344  0.8205 -0.6589
 2525SOL     OW12894   3.960   8.604   1.885 -0.2122 -0.5173 -0.1414
 2525SOL    HW112895   4.021   8.530   1.886 -1.1715 -1.3551 -0.9215
 2525SOL    HW212896   4.002   8.670   1.940  0.9092 -1.4472  0.1735
 2526SOL     OW12897   6.129   1.564   8.673  0.0574 -0.2054  0.2146
 2526SOL    HW112898   6.084   1.608   8.745 -0.1220  1.2173 -0.7256
 2526SOL    HW212899   6.059   1.521   8.624  0.0523 -0.2942  0.2994
 2527SOL     OW12900   3.902   6.104  11.192  0.0217 -0.0997 -0.2853
 2527SOL    HW112901   3.921   6.147  11.275  0.7472 -2.1138  0.6364
 2527SOL    HW212902   3.859   6.022  11.216 -0.8063 -0.1980 -1.9573
 2528SOL     OW12903   7.438   2.786  10.763 -0.4465 -0.9236 -0.5822
 2528SOL    HW112904   7.439   2.839  10.684 -1.9257 -1.6372 -1.1092
 2528SOL    HW212905   7.530   2.776  10.787 -0.0720  0.7353 -1.2158
 2529SOL     OW12906   3.311   9.485   7.947 -0.1652 -0.4119  1.1476
 2529SOL    HW112907   3.354   9.414   7.995  1.2457 -0.3485  0.0620
 2529SOL    HW212908   3.275   9.443   7.869 -4.4874 -0.9698  3.1459
 2530SOL     OW12909   9.125   4.098  11.687  0.3904  0.2220 -0.9783
 2530SOL    HW112910   9.097   4.034  11.622 -2.9351  0.2513  0.2653
 2530SOL    HW212911   9.100   4.060  11.771  0.8815  1.9424 -0.0118
 2531SOL     OW12912   8.406   4.030   0.361  0.1714  0.0126 -0.1950
 2531SOL    HW112913   8.493   4.009   0.328 -0.5367 -3.0963 -0.4789
 2531SOL    HW212914   8.352   4.040   0.283 -0.3392 -1.4709 -0.0708
 2532SOL     OW12915  10.178   4.853   3.462 -0.1877 -0.8459  0.3622
 2532SOL    HW112916  10.084   4.850   3.480 -0.4156 -0.2797 -0.6795
 2532SOL    HW212917  10.216   4.787   3.521 -1.1215 -0.4716  1.4196
 2533SOL     OW12918   7.536   9.675   8.769  0.4251 -0.1415  0.5459
 2533SOL    HW112919   7.575   9.590   8.746 -1.3928 -1.7646  2.9372
 2533SOL    HW212920   7.590   9.706   8.842  0.1627 -0.0061  0.6825
 2534SOL     OW12921   9.727   8.382   0.922  0.8452  0.1376  0.7172
 2534SOL    HW112922   9.783   8.383   0.844  0.0106  0.1629  0.1116
 2534SOL    HW212923   9.643   8.416   0.892  0.5095  0.1347  1.6289
 2535SOL     OW12924   1.759   5.480   7.922  0.2220 -0.4457 -0.5756
 2535SOL    HW112925   1.801   5.553   7.877  0.7849  0.5442  1.4109
 2535SOL    HW212926   1.831   5.429   7.959 -0.2268 -0.2593  0.6065
 2536SOL     OW12927   6.776  11.725   2.370 -0.0493 -0.3391  0.0090
 2536SOL    HW112928   6.796  11.819   2.377 -0.7357 -0.2058  0.2936
 2536SOL    HW212929   6.859  11.685   2.343  0.5061  0.2286  0.8163
 2537SOL     OW12930   7.993  10.234   6.494 -0.7921 -0.2030 -0.5265
 2537SOL    HW112931   7.962  10.300   6.556 -0.4140  0.5652 -1.1321
 2537SOL    HW212932   8.076  10.269   6.462 -1.6546  0.1143 -2.5220
 2538SOL     OW12933   0.347   7.064   5.907  0.0556 -0.3456  0.3316
 2538SOL    HW112934   0.353   6.995   5.973  0.0979  0.6071  1.3603
 2538SOL    HW212935   0.401   7.033   5.834  0.1386 -1.3513  0.8110
 2539SOL     OW12936   7.047   1.837   1.827 -0.3684 -0.2097  0.4292
 2539SOL    HW112937   7.074   1.750   1.858  0.2823 -0.2680 -0.2597
 2539SOL    HW212938   7.088   1.845   1.741 -2.4273 -0.2100 -0.5980
 2540SOL     OW12939  11.301   4.604   0.527  0.2773 -0.3295 -0.0841
 2540SOL    HW112940  11.221   4.596   0.475 -0.0407 -1.3160  0.5301
 2540SOL    HW212941  11.360   4.656   0.472  0.3707 -2.2620 -1.9382
 2541SOL     OW12942  10.711   7.736   3.128  0.3168 -0.4209  0.3649
 2541SOL    HW112943  10.618   7.751   3.115  0.2666 -1.8511 -1.1644
 2541SOL    HW212944  10.750   7.751   3.042  1.1043 -2.5192  0.3095
 2542SOL     OW12945   2.811   3.659  10.376  0.0011  0.4269  0.2980
 2542SOL    HW112946   2.722   3.674  10.409 -0.7832 -0.8181 -1.1296
 2542SOL    HW212947   2.816   3.711  10.296  1.1669  1.7753  1.1984
 2543SOL     OW12948   9.207   0.261  11.344 -0.1165  0.6667  0.3778
 2543SOL    HW112949   9.278   0.212  11.301 -1.5376 -1.5225  0.3311
 2543SOL    HW212950   9.252   0.318  11.406  1.7177 -0.1045 -0.1377
 2544SOL     OW12951  11.477   7.287   8.698  0.7082 -0.0488 -0.4736
 2544SOL    HW112952  11.549   7.245   8.651 -1.2926 -1.2985 -2.7069
 2544SOL    HW212953  11.432   7.215   8.742 -1.0636  0.0654 -1.9401
 2545SOL     OW12954   2.888   0.133   7.031 -0.2523  0.5147  0.3064
 2545SOL    HW112955   2.794   0.112   7.033  0.3864 -3.4586 -1.6070
 2545SOL    HW212956   2.915   0.134   7.123 -1.7084 -1.0643  0.8016
 2546SOL     OW12957   8.145   1.201   9.486 -0.4553  0.2477 -0.1302
 2546SOL    HW112958   8.136   1.186   9.392  0.2587  1.2542 -0.3776
 2546SOL    HW212959   8.195   1.126   9.518 -2.8078 -1.4100 -0.0713
 2547SOL     OW12960   8.154   6.586   2.125  0.5003  0.0475  0.3726
 2547SOL    HW112961   8.129   6.673   2.156 -1.0013  0.0250 -0.6790
 2547SOL    HW212962   8.109   6.525   2.183  0.4337 -0.0196  0.2508
 2548SOL     OW12963   6.523   3.883   7.126  0.0531  0.3256  0.0338
 2548SOL    HW112964   6.432   3.869   7.151 -0.3413  0.5266 -1.2570
 2548SOL    HW212965   6.571   3.881   7.209 -0.9895 -0.7367  0.6319
 2549SOL     OW12966   0.480   8.793   9.787 -0.2156  0.2925 -0.1155
 2549SOL    HW112967   0.411   8.810   9.723  0.3923  1.1516 -0.5627
 2549SOL    HW212968   0.531   8.874   9.789  0.8509 -0.3669  0.1219
 2550SOL     OW12969   9.935   3.102   4.457  0.0796 -0.5076 -0.1770
 2550SOL    HW112970  10.030   3.098   4.451  0.0869 -1.0106  0.2002
 2550SOL    HW212971   9.908   3.159   4.384  0.6559 -0.4558 -0.3504
 2551SOL     OW12972   5.027   1.251   8.700 -0.1740  0.3484  0.8834
 2551SOL    HW112973   5.062   1.190   8.764 -0.3556 -0.3512  0.3253
 2551SOL    HW212974   5.031   1.336   8.744  0.8813  0.0771  1.3501
 2552SOL     OW12975   0.701   8.733   7.328 -0.9582  0.2003 -0.0489
 2552SOL    HW112976   0.765   8.666   7.304 -0.0402  0.1943  2.1481
 2552SOL    HW212977   0.724   8.809   7.275  0.7416  0.1038  0.4926
 2553SOL     OW12978   6.683   9.060   6.804 -0.0302  0.0746  0.0137
 2553SOL    HW112979   6.681   9.151   6.774  0.9460  0.4828  1.1301
 2553SOL    HW212980   6.750   9.018   6.750 -0.0438  0.1734 -0.0809
 2554SOL     OW12981   4.605  10.424   4.574  0.2620 -0.2801 -0.5009
 2554SOL    HW112982   4.566  10.362   4.636  0.5739 -0.9803 -1.0044
 2554SOL    HW212983   4.533  10.447   4.516  0.2879 -0.6110 -0.6646
 2555SOL     OW12984   1.299   8.239   5.632 -0.4173  0.5783 -0.5008
 2555SOL    HW112985   1.376   8.274   5.587 -0.0178  0.4191  0.0412
 2555SOL    HW212986   1.306   8.144   5.621  0.4084  0.4288  0.9893
 2556SOL     OW12987   9.467   7.818   3.785 -0.4086  0.2017 -0.2936
 2556SOL    HW112988   9.510   7.841   3.703 -0.4980  1.8482  0.0879
 2556SOL    HW212989   9.375   7.840   3.771 -0.3960  0.6798  0.2871
 2557SOL     OW12990   7.255   8.803   8.946 -0.2965 -0.0415  0.4947
 2557SOL    HW112991   7.320   8.741   8.913 -1.1769 -0.7294  0.0202
 2557SOL    HW212992   7.259   8.877   8.885  0.6534  0.3376  0.9824
 2558SOL     OW12993   4.447  10.844   5.854  0.0808 -0.7138 -1.2009
 2558SOL    HW112994   4.383  10.785   5.893 -1.0487 -0.3795 -2.4700
 2558SOL    HW212995   4.529  10.794   5.852 -0.3841 -1.5188 -0.4854
 2559SOL     OW12996   3.749   7.285   4.853 -0.4124  0.0661  0.1860
 2559SOL    HW112997   3.755   7.346   4.926 -1.6709 -1.3592  1.5286
 2559SOL    HW212998   3.838   7.251   4.842 -0.6987 -2.0102  3.1630
 2560SOL     OW12999   6.840  11.601   0.226 -0.1160  0.1348 -0.5335
 2560SOL    HW113000   6.804  11.590   0.314  2.0822 -2.2282  0.1840
 2560SOL    HW213001   6.888  11.683   0.229  0.7182 -0.3785  0.8084
 2561SOL     OW13002   3.554   6.469  10.495 -0.4570  0.3611  0.3435
 2561SOL    HW113003   3.554   6.497  10.403 -2.4024  0.1660  0.2335
 2561SOL    HW213004   3.489   6.525  10.537  0.2002  0.2426  1.5387
 2562SOL     OW13005   9.721   5.555   3.422 -0.5234 -0.4299 -0.2259
 2562SOL    HW113006   9.668   5.603   3.359 -1.3074 -0.1768  0.6103
 2562SOL    HW213007   9.704   5.598   3.506 -1.5902 -2.4117  0.6315
 2563SOL     OW13008   2.848   5.854  10.428 -0.2440  0.1270  0.1026
 2563SOL    HW113009   2.873   5.763  10.442 -0.8115  0.0974  0.9546
 2563SOL    HW213010   2.754   5.856  10.442  0.1214  1.3700  3.0650
 2564SOL     OW13011   4.608   1.654   4.723  0.3253 -0.3085 -0.7446
 2564SOL    HW113012   4.552   1.730   4.729  0.8944  0.0505  0.4413
 2564SOL    HW213013   4.625   1.630   4.814  0.8190 -1.3510 -1.0938
 2565SOL     OW13014   5.018   2.126   8.951  0.2501 -0.0565 -0.0610
 2565SOL    HW113015   4.951   2.193   8.966  0.7071  0.6870 -1.2498
 2565SOL    HW213016   5.087   2.146   9.015 -0.3880 -0.4907  0.7906
 2566SOL     OW13017   9.869   6.106   3.591 -0.0791  0.1373  0.1986
 2566SOL    HW113018   9.837   6.068   3.510  2.4345  1.7870 -1.6863
 2566SOL    HW213019   9.879   6.031   3.650 -1.2271 -1.1983 -1.2063
 2567SOL     OW13020   3.237   3.272   7.741 -0.5920 -0.7268 -0.6417
 2567SOL    HW113021   3.172   3.334   7.773  1.8175  1.7159 -0.1566
 2567SOL    HW213022   3.207   3.249   7.653 -0.6514  2.6566 -1.6349
 2568SOL     OW13023   0.787   6.053   7.824  0.0653  0.3752 -0.2986
 2568SOL    HW113024   0.871   6.070   7.867 -0.7171 -0.0876  1.4572
 2568SOL    HW213025   0.763   6.138   7.786  0.8933  0.7214 -0.0762
 2569SOL     OW13026   1.197  11.720  10.358  0.6359 -0.2442 -0.5490
 2569SOL    HW113027   1.164  11.703  10.446 -0.1290 -2.4245 -1.1813
 2569SOL    HW213028   1.125  11.766  10.314  0.7879  0.3264 -0.1966
 2570SOL     OW13029   1.895   7.196   6.295 -0.3996 -0.1945  0.1277
 2570SOL    HW113030   1.925   7.263   6.356 -0.9848 -0.8584  1.1947
 2570SOL    HW213031   1.972   7.174   6.243  0.2188  0.1459  0.8766
 2571SOL     OW13032   7.124   2.395   0.160  0.0321  0.4176 -0.1849
 2571SOL    HW113033   7.077   2.360   0.084  0.0917  0.8973 -0.4461
 2571SOL    HW213034   7.155   2.481   0.132 -2.0171  1.6858  1.1777
 2572SOL     OW13035   4.466  10.153   1.704  0.2916  0.2287  0.6888
 2572SOL    HW113036   4.445  10.066   1.671 -1.9163  0.2742  1.8031
 2572SOL    HW213037   4.539  10.183   1.649 -1.3170 -0.7859 -2.1891
 2573SOL     OW13038   9.507   3.943   3.235  0.1044  0.1738  0.5925
 2573SOL    HW113039   9.463   3.859   3.223 -0.0903  0.2836  0.5359
 2573SOL    HW213040   9.560   3.932   3.314 -0.2963  0.1541  0.8591
 2574SOL     OW13041   8.020   4.522   5.706 -0.4939  0.5283 -1.0040
 2574SOL    HW113042   8.106   4.482   5.715  0.0292  1.5927 -1.0439
 2574SOL    HW213043   7.976   4.470   5.638 -0.7234 -1.3471  0.5120
 2575SOL     OW13044   4.938   8.648   9.144  0.1560 -0.3448 -0.4109
 2575SOL    HW113045   4.902   8.563   9.117 -1.9639  0.5302 -0.5548
 2575SOL    HW213046   4.874   8.682   9.206  2.2463  0.0845  1.6086
 2576SOL     OW13047   2.724   7.278   3.457  0.1039  0.6709 -0.6330
 2576SOL    HW113048   2.814   7.299   3.432  0.7863 -0.7955  0.4884
 2576SOL    HW213049   2.702   7.199   3.408  0.8876 -1.2962  1.9722
 2577SOL     OW13050   6.797   1.216   0.750  0.8021  0.4359  0.4895
 2577SOL    HW113051   6.728   1.278   0.726  0.4305 -0.2213 -0.1666
 2577SOL    HW213052   6.788   1.205   0.845  1.7773  2.4615  0.8709
 2578SOL     OW13053  11.302   4.776   4.827 -0.0990 -0.6421 -0.4779
 2578SOL    HW113054  11.346   4.691   4.824  0.7453 -0.2034 -1.0821
 2578SOL    HW213055  11.219   4.762   4.783  0.1076 -1.1131 -0.7210
 2579SOL     OW13056  11.437   7.946   0.994 -0.0982 -0.2313  0.1974
 2579SOL    HW113057  11.473   7.952   0.906 -1.2626  1.9054 -0.1897
 2579SOL    HW213058  11.356   7.896   0.983  0.1643 -0.6704  0.2187
 2580SOL     OW13059   0.106   9.033   8.828 -0.0113 -0.9736  0.4945
 2580SOL    HW113060   0.143   8.950   8.797 -2.0128 -1.8918  0.4454
 2580SOL    HW213061   0.015   9.013   8.848 -1.1965  1.7115 -1.6433
 2581SOL     OW13062   1.944   0.306  11.097 -0.4442  0.2265  0.0154
 2581SOL    HW113063   1.945   0.396  11.065 -0.7135  0.7305  1.3892
 2581SOL    HW213064   1.904   0.256  11.026  0.0101  1.1170 -0.8977
 2582SOL     OW13065   5.521  10.866  11.298  0.1322 -0.3212 -0.4535
 2582SOL    HW113066   5.432  10.832  11.286 -0.2141  0.6183 -0.6980
 2582SOL    HW213067   5.530  10.875  11.393  0.3602 -1.3954 -0.3642
 2583SOL     OW13068   8.834   1.945   5.011 -0.1300 -0.5049 -0.2016
 2583SOL    HW113069   8.874   1.876   4.959 -0.2604 -1.2399  0.6491
 2583SOL    HW213070   8.753   1.905   5.045  0.1039 -0.1446  0.8014
 2584SOL     OW13071   5.602   6.646   6.393 -0.1593  0.7027 -0.1070
 2584SOL    HW113072   5.575   6.705   6.323 -2.2535 -0.4280 -0.3333
 2584SOL    HW213073   5.532   6.652   6.458 -0.1062 -0.9952  0.1599
 2585SOL     OW13074  10.267  11.169   7.377 -0.0396  0.1270 -0.5283
 2585SOL    HW113075  10.341  11.182   7.318 -0.2621 -0.0995 -0.8650
 2585SOL    HW213076  10.294  11.209   7.459  0.8954 -0.9173 -0.2976
 2586SOL     OW13077   1.374   8.320   5.244  0.2082 -0.0250 -0.0875
 2586SOL    HW113078   1.418   8.404   5.254  0.8924 -0.2308 -1.1398
 2586SOL    HW213079   1.281   8.342   5.235  0.3090  0.5653  0.2965
 2587SOL     OW13080   1.011  11.518  10.028  0.4687 -0.0141 -0.0023
 2587SOL    HW113081   0.958  11.580  10.079 -0.9758  2.2245 -3.7909
 2587SOL    HW213082   1.018  11.441  10.084  0.1620  2.5455  3.9959
 2588SOL     OW13083   7.175   2.107   9.088  0.1940 -0.5627 -0.2062
 2588SOL    HW113084   7.226   2.048   9.032 -1.2484  0.5517 -2.8809
 2588SOL    HW213085   7.133   2.168   9.027 -0.6720  1.4503  2.2081
 2589SOL     OW13086   9.394   8.770   2.965 -0.0547  0.3234 -0.2456
 2589SOL    HW113087   9.434   8.737   2.884 -2.0932  0.0434 -1.2037
 2589SOL    HW213088   9.437   8.853   2.981  1.9663 -0.6455 -0.3406
 2590SOL     OW13089   8.986   3.820   9.643  0.2455 -0.4392  0.1988
 2590SOL    HW113090   8.907   3.824   9.588  1.1611 -1.1214 -1.2388
 2590SOL    HW213091   8.965   3.875   9.718 -1.0139  0.7083 -0.9217
 2591SOL     OW13092   9.177   8.387   9.873 -0.2485  0.1253 -0.0828
 2591SOL    HW113093   9.152   8.408   9.963  0.6861 -0.8613  0.4347
 2591SOL    HW213094   9.159   8.293   9.864 -3.0243  0.7064 -1.8775
 2592SOL     OW13095   8.662   3.434   5.110 -0.0454  0.2246 -0.3123
 2592SOL    HW113096   8.681   3.363   5.049 -0.3890 -0.0451 -0.1086
 2592SOL    HW213097   8.573   3.461   5.090 -0.6243 -0.7092  0.8815
 2593SOL     OW13098   8.102   2.088   6.835 -0.4035 -0.0601  0.4047
 2593SOL    HW113099   8.111   2.008   6.784 -0.3950 -0.4800  1.0640
 2593SOL    HW213100   8.056   2.149   6.776 -2.2287 -1.1922  0.5765
 2594SOL     OW13101   1.300  11.095   8.541 -0.3093  0.1308  0.0591
 2594SOL    HW113102   1.251  11.113   8.621 -0.5699  2.2251 -0.5179
 2594SOL    HW213103   1.244  11.128   8.471  0.2396 -0.9958 -0.9496
 2595SOL     OW13104   2.060   1.461   3.800 -0.1293 -0.1687  0.0595
 2595SOL    HW113105   2.138   1.409   3.777 -0.3194 -0.2248 -0.4483
 2595SOL    HW213106   2.071   1.477   3.894 -0.5652 -2.0161  0.4832
 2596SOL     OW13107   8.817   6.310   5.799 -0.1439  0.1703  0.2986
 2596SOL    HW113108   8.771   6.370   5.741  1.5530  1.4990  0.2549
 2596SOL    HW213109   8.774   6.322   5.884 -0.7708  0.3267 -0.0309
 2597SOL     OW13110   3.745   4.448   8.362  0.0188  0.1186 -0.2174
 2597SOL    HW113111   3.740   4.520   8.425 -0.3540  0.1684 -0.2991
 2597SOL    HW213112   3.661   4.404   8.370 -0.3169  0.5416 -1.1735
 2598SOL     OW13113   2.216   2.622   6.757 -0.1418 -0.2705 -1.0516
 2598SOL    HW113114   2.197   2.700   6.809  2.0542  0.4358 -1.1758
 2598SOL    HW213115   2.134   2.600   6.714 -0.9650  1.6126 -0.5256
 2599SOL     OW13116   2.387   9.006   4.991 -0.3363 -0.1377 -0.3262
 2599SOL    HW113117   2.419   9.075   4.933 -2.1069  0.2323 -0.9139
 2599SOL    HW213118   2.295   9.027   5.006 -0.2587 -0.9618  1.5865
 2600SOL     OW13119   8.312   8.705   4.637  0.2315 -0.5466  0.4226
 2600SOL    HW113120   8.288   8.794   4.664 -0.2025 -0.0552 -1.3944
 2600SOL    HW213121   8.276   8.648   4.704  1.0708  0.6782  1.9665
 2601SOL     OW13122   4.954   9.189   2.770 -0.6541 -0.3200  0.0656
 2601SOL    HW113123   5.039   9.160   2.803 -0.1221  0.5076 -0.5243
 2601SOL    HW213124   4.890   9.146   2.827  0.1661 -0.6509  0.7653
 2602SOL     OW13125   6.484  11.394  10.079 -0.0554 -0.1328 -0.1643
 2602SOL    HW113126   6.556  11.341  10.113  0.9157  1.0439 -0.3235
 2602SOL    HW213127   6.466  11.357   9.993  0.7472 -0.0989 -0.3552
 2603SOL     OW13128  10.806   8.591   6.170 -0.3862 -0.4750  0.0549
 2603SOL    HW113129  10.829   8.587   6.263 -0.3004 -0.3668  0.0377
 2603SOL    HW213130  10.869   8.651   6.132 -1.6632  1.0943  0.3105
 2604SOL     OW13131   7.707   1.864   4.367 -0.2982 -0.2622  0.3503
 2604SOL    HW113132   7.667   1.888   4.451  0.8424  1.3755  0.4786
 2604SOL    HW213133   7.669   1.927   4.305  0.2163 -0.2994 -0.0033
 2605SOL     OW13134   5.311   9.997   1.788  0.0089 -0.0975  0.0827
 2605SOL    HW113135   5.232   9.966   1.832 -1.8178  0.7105 -2.3920
 2605SOL    HW213136   5.324  10.086   1.821 -0.2222 -0.1801  0.4010
 2606SOL     OW13137   9.002   3.893   9.237  0.1038  0.3105  0.2815
 2606SOL    HW113138   9.028   3.986   9.235 -1.8808  0.8976  0.3325
 2606SOL    HW213139   8.973   3.875   9.148 -3.0488  0.8555  1.0945
 2607SOL     OW13140   4.001  10.404   3.577 -0.1448 -0.7020  0.2492
 2607SOL    HW113141   3.914  10.371   3.556 -0.3860 -0.2349  0.4912
 2607SOL    HW213142   4.053  10.326   3.594 -0.7219 -0.9637  0.8840
 2608SOL     OW13143   1.223  10.938  11.208  0.5713 -0.0559  0.3801
 2608SOL    HW113144   1.133  10.942  11.173  0.8933 -0.2375 -0.4979
 2608SOL    HW213145   1.278  10.925  11.131  1.0739 -3.7824  1.1451
 2609SOL     OW13146   1.884   4.312   5.497 -0.1590 -0.3047  0.0365
 2609SOL    HW113147   1.921   4.399   5.506 -2.2303  0.8010 -1.1850
 2609SOL    HW213148   1.915   4.281   5.412 -1.8414  0.6106 -0.9747
 2610SOL     OW13149   2.054   0.987   8.214 -0.2631 -0.3168  0.4057
 2610SOL    HW113150   2.039   0.892   8.206 -1.2581 -0.1774  0.4514
 2610SOL    HW213151   2.053   1.004   8.308  0.3256 -0.3168  0.4144
 2611SOL     OW13152   1.590   3.836   3.676 -0.5729 -0.2004 -0.1231
 2611SOL    HW113153   1.669   3.800   3.716 -0.5353 -0.4480 -0.4071
 2611SOL    HW213154   1.616   3.854   3.585 -0.7512  0.0222 -0.1300
 2612SOL     OW13155   1.241   7.058   4.101  0.4277  0.8031  0.2789
 2612SOL    HW113156   1.246   7.153   4.089 -0.7613  0.8852  0.3137
 2612SOL    HW213157   1.275   7.042   4.189  2.4028  0.9749 -0.4031
 2613SOL     OW13158   8.926   3.026   4.066  0.0407  0.5525 -0.0503
 2613SOL    HW113159   8.864   3.008   3.996 -0.4994 -0.0268  0.5584
 2613SOL    HW213160   8.885   2.988   4.144  1.9936 -1.5212  0.0464
 2614SOL     OW13161   2.808   6.691   5.392 -0.0821  0.3528 -0.8070
 2614SOL    HW113162   2.732   6.642   5.424 -0.8843  2.0637 -0.0118
 2614SOL    HW213163   2.775   6.741   5.318  0.3002  1.0298 -0.5259
 2615SOL     OW13164   7.775   8.159   9.033  0.2455 -1.0477 -0.1853
 2615SOL    HW113165   7.797   8.217   9.105  0.3462 -2.1428  0.7003
 2615SOL    HW213166   7.708   8.206   8.984 -0.2040 -0.4985  0.9209
 2616SOL     OW13167  11.612   4.545   8.619  0.5479  0.3796 -0.2087
 2616SOL    HW113168  11.522   4.572   8.603  0.6491  0.3130 -0.9443
 2616SOL    HW213169  11.626   4.559   8.712 -0.9410 -1.6844  0.4049
 2617SOL     OW13170   1.207   6.136   5.029  0.5448  0.1513 -0.5119
 2617SOL    HW113171   1.295   6.120   5.062 -0.3815 -1.8565  1.2458
 2617SOL    HW213172   1.167   6.193   5.094  0.1036 -0.1335 -0.5304
 2618SOL     OW13173   8.189  10.839   0.416 -0.7574  0.2903  0.2732
 2618SOL    HW113174   8.166  10.929   0.437 -1.0371  0.0131  1.2238
 2618SOL    HW213175   8.279  10.829   0.447 -0.8501  0.1417  0.4966
 2619SOL     OW13176   7.024  10.766   9.067 -0.4568 -0.1106  0.0022
 2619SOL    HW113177   6.991  10.786   9.155  0.3596  0.2109  0.2359
 2619SOL    HW213178   6.946  10.771   9.011 -0.4902  2.9061  0.1776
 2620SOL     OW13179   3.360   7.872   6.210  0.6006  0.0881 -0.1021
 2620SOL    HW113180   3.355   7.843   6.301  1.9578 -0.2512 -0.1213
 2620SOL    HW213181   3.268   7.888   6.185  0.2649  0.9639  1.5573
 2621SOL     OW13182   5.844   3.951  10.961  0.0193  0.1123 -0.8121
 2621SOL    HW113183   5.937   3.928  10.969 -0.3977 -1.0320  2.6270
 2621SOL    HW213184   5.843   4.046  10.966  0.9999  0.1004  2.3758
 2622SOL     OW13185  10.764   9.514   6.901 -0.1482  0.8260  0.7421
 2622SOL    HW113186  10.698   9.460   6.943  0.8022 -1.5325 -0.6259
 2622SOL    HW213187  10.844   9.499   6.952  0.2590  0.4353  0.0095
 2623SOL     OW13188   9.342  10.991   8.686 -0.4274  0.3758 -0.4663
 2623SOL    HW113189   9.375  11.058   8.627  1.9119  0.0014  0.3215
 2623SOL    HW213190   9.247  11.004   8.686 -0.5340  0.6265 -3.9671
 2624SOL     OW13191   2.358   8.735   3.867 -0.5233 -0.0718  0.6596
 2624SOL    HW113192   2.355   8.780   3.951 -1.9984 -0.4290  0.8295
 2624SOL    HW213193   2.266   8.726   3.841 -0.1310 -0.5899 -0.6582
 2625SOL     OW13194   0.471   9.822   4.160 -0.9389  0.1993  0.4456
 2625SOL    HW113195   0.503   9.753   4.218 -2.4578 -0.5210  0.4748
 2625SOL    HW213196   0.435   9.888   4.219 -0.1618  0.6821  0.3901
 2626SOL     OW13197   7.210   9.279   3.214 -0.1291 -0.2903  0.3438
 2626SOL    HW113198   7.300   9.285   3.246 -0.6612  0.6692  1.7295
 2626SOL    HW213199   7.218   9.281   3.119  1.3229 -0.4353  0.4427
 2627SOL     OW13200   8.373   1.572   1.276 -0.3983  0.0559 -0.1436
 2627SOL    HW113201   8.458   1.615   1.268 -0.8287  1.1536  0.7785
 2627SOL    HW213202   8.347   1.553   1.186  0.3472  0.6895 -0.5066
 2628SOL     OW13203   5.990   0.603   9.696 -0.2157  0.0990  0.5350
 2628SOL    HW113204   6.075   0.617   9.738 -0.0734 -0.7087  0.5276
 2628SOL    HW213205   5.945   0.687   9.706 -0.0377  0.0533  1.9408
 2629SOL     OW13206   0.618  11.698   1.739 -0.3093  0.6702 -0.2502
 2629SOL    HW113207   0.711  11.709   1.717  0.6004 -0.8429  2.3718
 2629SOL    HW213208   0.585  11.636   1.675  0.9042  0.1091 -0.3592
 2630SOL     OW13209   4.958   1.766  10.165 -0.3872  0.3122  0.2414
 2630SOL    HW113210   4.986   1.824  10.237 -1.0768  0.3395  0.4916
 2630SOL    HW213211   5.038   1.751  10.115 -0.3755  2.3017 -0.4188
 2631SOL     OW13212   2.331   8.435   4.597  0.1354  0.1259  0.1652
 2631SOL    HW113213   2.358   8.432   4.689 -0.8614 -0.9920  0.4514
 2631SOL    HW213214   2.359   8.351   4.562  2.0508  1.2005 -1.0594
 2632SOL     OW13215   8.481  11.267  11.547  0.1547 -0.3451 -0.2814
 2632SOL    HW113216   8.428  11.259  11.626 -0.9758 -2.3887 -1.1719
 2632SOL    HW213217   8.503  11.360  11.543 -2.8852  0.5393  0.4978
 2633SOL     OW13218   4.489   0.334  11.604  0.3935  0.2629 -0.2946
 2633SOL    HW113219   4.470   0.349  11.512 -1.5568 -0.9056 -0.1231
 2633SOL    HW213220   4.526   0.418  11.634  0.5475  0.8376 -1.9715
 2634SOL     OW13221   6.499   9.824  10.488 -0.1320  0.8290  0.2864
 2634SOL    HW113222   6.559   9.750  10.497  0.7253  1.0973 -2.3317
 2634SOL    HW213223   6.548   9.899  10.520  0.1837  0.7375  0.0188
 2635SOL     OW13224   1.397   1.001  11.409  0.0415  0.2985 -0.5764
 2635SOL    HW113225   1.308   1.018  11.439  0.6512 -0.2357  1.7977
 2635SOL    HW213226   1.438   0.954  11.482  2.3737  0.8618 -1.4201
 2636SOL     OW13227   9.129   4.604  11.327 -0.4404 -0.5370 -0.7310
 2636SOL    HW113228   9.084   4.638  11.250 -0.0696 -1.7547 -1.5241
 2636SOL    HW213229   9.064   4.549  11.371 -1.0893  1.2336  0.6333
 2637SOL     OW13230   8.184   9.583   2.695 -0.9418 -0.4511  0.1385
 2637SOL    HW113231   8.177   9.661   2.641 -0.5398 -0.8435 -0.4927
 2637SOL    HW213232   8.122   9.521   2.657  0.7102 -1.4240 -1.1152
 2638SOL     OW13233   9.249   8.504   6.276 -0.4034  0.2980  0.4001
 2638SOL    HW113234   9.313   8.507   6.348  1.1772  0.3188 -0.9569
 2638SOL    HW213235   9.248   8.593   6.241  0.1131 -0.0893 -0.6491
 2639SOL     OW13236   5.026   0.452   8.427 -0.3958  0.9410  0.1498
 2639SOL    HW113237   5.014   0.545   8.409  1.1574  1.1298 -0.0013
 2639SOL    HW213238   4.939   0.422   8.456 -0.8044  2.5359  0.6893
 2640SOL     OW13239   6.230   5.652   7.435  0.4255  0.1118 -0.2196
 2640SOL    HW113240   6.259   5.666   7.345  0.4746  1.0028 -0.0735
 2640SOL    HW213241   6.280   5.715   7.486 -2.4133  2.4281 -0.0769
 2641SOL     OW13242   0.533   1.113   5.184  0.0482  0.4065 -0.2069
 2641SOL    HW113243   0.611   1.167   5.199 -0.1782  0.3925  1.2039
 2641SOL    HW213244   0.476   1.167   5.129  0.9689  0.4768 -1.1223
 2642SOL     OW13245  10.624  11.749   0.423  0.1562 -0.2018 -0.5844
 2642SOL    HW113246  10.638  11.673   0.366 -1.0687 -0.3572 -0.6879
 2642SOL    HW213247  10.628  11.714   0.512  0.9779 -0.1352 -0.5784
 2643SOL     OW13248   5.556  11.556   1.655  0.0052 -0.2094  0.0541
 2643SOL    HW113249   5.613  11.588   1.584 -0.0004 -0.3175  0.0006
 2643SOL    HW213250   5.549  11.461   1.639  0.5764 -0.3505  0.6007
 2644SOL     OW13251   9.231   8.413   4.042 -0.2386 -0.3406  0.1946
 2644SOL    HW113252   9.220   8.467   4.120  0.5549  0.3459 -0.1470
 2644SOL    HW213253   9.325   8.406   4.031 -0.2569  1.8503 -2.1935
 2645SOL     OW13254   8.623   3.308  10.730  0.0703  0.0506  0.5419
 2645SOL    HW113255   8.532   3.336  10.720  0.1974  0.5263  0.6792
 2645SOL    HW213256   8.629   3.225  10.683 -0.1456  0.6077 -0.4882
 2646SOL     OW13257   9.564  10.691   4.400 -0.1518 -0.6011  0.3951
 2646SOL    HW113258   9.558  10.755   4.329  0.0287 -0.5092  0.4624
 2646SOL    HW213259   9.629  10.727   4.460  1.7803 -1.9960 -0.7489
 2647SOL     OW13260   6.997   0.255   6.089 -0.1437 -0.0145  0.8632
 2647SOL    HW113261   6.996   0.313   6.013 -0.1954 -0.1030  0.7962
 2647SOL    HW213262   6.905   0.242   6.111 -0.1237  0.1654  1.0598
 2648SOL     OW13263   9.557  10.384   3.872 -0.0846  0.0478 -0.5609
 2648SOL    HW113264   9.549  10.386   3.777  0.9978 -0.7391 -0.6908
 2648SOL    HW213265   9.623  10.316   3.889 -1.4304 -0.9735  0.8355
 2649SOL     OW13266  10.300   6.543   6.488  0.2406  0.3456  0.6044
 2649SOL    HW113267  10.232   6.490   6.446 -0.2064  1.7196 -0.4804
 2649SOL    HW213268  10.382   6.499   6.465 -0.0306  0.7496 -1.2913
 2650SOL     OW13269   7.759   9.986   9.125  0.6800  0.0483  0.2579
 2650SOL    HW113270   7.701   9.993   9.201 -0.1134 -1.6822 -0.1341
 2650SOL    HW213271   7.715  10.037   9.057  0.4986  0.1587  0.4535
 2651SOL     OW13272   5.410   8.028   1.520  0.2674 -0.0419  0.0518
 2651SOL    HW113273   5.438   7.969   1.450 -0.3067 -0.8443  0.4833
 2651SOL    HW213274   5.456   8.110   1.502  1.8920 -0.9226  0.0061
 2652SOL     OW13275   6.385   3.751   1.109 -0.6471 -0.4993 -0.1777
 2652SOL    HW113276   6.467   3.711   1.138  0.0902  0.6689 -0.5533
 2652SOL    HW213277   6.334   3.761   1.189 -1.3517 -3.1592 -0.2077
 2653SOL     OW13278   0.683   7.170   3.989  0.3477  0.5085  0.5406
 2653SOL    HW113279   0.758   7.214   4.030  1.5501 -1.1336  0.1970
 2653SOL    HW213280   0.719   7.089   3.954 -0.8755  1.1606 -2.5608
 2654SOL     OW13281   1.091   4.231   7.813 -0.2349  0.4071  0.1989
 2654SOL    HW113282   1.030   4.274   7.873 -0.8843  0.2009 -0.2969
 2654SOL    HW213283   1.169   4.286   7.814 -0.2103  0.3737  1.2698
 2655SOL     OW13284   0.080   9.101  11.273  0.3108 -0.0533  0.4534
 2655SOL    HW113285   0.024   9.026  11.254  0.4591 -0.1893  0.5488
 2655SOL    HW213286   0.020   9.175  11.283  0.1384 -0.2287  0.7143
 2656SOL     OW13287   3.002   9.001   1.995  0.1065 -0.0183  0.1292
 2656SOL    HW113288   3.049   9.082   2.015  1.2482 -0.5903 -0.1709
 2656SOL    HW213289   3.046   8.934   2.047 -2.5491 -0.0836  2.5860
 2657SOL     OW13290   9.949   0.694   7.124 -0.2710 -0.0225 -0.0158
 2657SOL    HW113291  10.014   0.763   7.108 -1.1927  1.0611  0.8063
 2657SOL    HW213292   9.999   0.624   7.166  0.4630  0.5963  0.1677
 2658SOL     OW13293   1.721   6.826   8.153  0.0237 -0.3651  0.0287
 2658SOL    HW113294   1.697   6.797   8.065 -1.8394  0.9607  0.0410
 2658SOL    HW213295   1.732   6.744   8.202 -1.8253 -1.1257 -0.7299
 2659SOL     OW13296   3.406   9.320   2.603  0.4192  0.1433 -0.6571
 2659SOL    HW113297   3.325   9.337   2.651  0.3614 -0.8362 -0.3894
 2659SOL    HW213298   3.441   9.240   2.642  1.5620  0.5924 -0.7177
 2660SOL     OW13299   2.298   5.069   7.798 -0.3018  0.2917 -0.0381
 2660SOL    HW113300   2.325   5.119   7.876 -0.7158 -0.6028  0.6913
 2660SOL    HW213301   2.315   5.129   7.725  2.1934  0.3699  0.5149
 2661SOL     OW13302   9.326   9.346   5.813  0.2141 -0.2393  0.1795
 2661SOL    HW113303   9.340   9.329   5.720 -0.4129 -0.1182  0.0573
 2661SOL    HW213304   9.377   9.424   5.832  2.3336 -1.6196  0.5177
 2662SOL     OW13305   0.208  10.999  10.712  0.2170  0.4069  0.0065
 2662SOL    HW113306   0.215  11.065  10.781  1.7555  0.7555 -0.4398
 2662SOL    HW213307   0.127  10.951  10.732  0.4163  0.7593  1.8140
 2663SOL     OW13308   6.253   8.118   4.463 -0.1842 -0.5291 -0.8757
 2663SOL    HW113309   6.189   8.082   4.524 -0.1701 -1.7814 -1.5696
 2663SOL    HW213310   6.243   8.213   4.471 -1.1415 -0.6886  0.0462
 2664SOL     OW13311   5.305   8.076   9.589 -1.1086 -0.1010  0.1194
 2664SOL    HW113312   5.213   8.101   9.584 -1.0607  0.0688  0.0625
 2664SOL    HW213313   5.322   8.029   9.507 -0.2327  2.9736 -1.6237
 2665SOL     OW13314   0.891   7.290   1.751 -0.0419  0.2376 -0.5943
 2665SOL    HW113315   0.946   7.279   1.828  0.8723 -1.5809 -1.4383
 2665SOL    HW213316   0.803   7.265   1.781  0.3926 -0.9300 -0.2113
 2666SOL     OW13317  10.030   5.859   7.178 -0.5027  0.2076 -0.0196
 2666SOL    HW113318  10.117   5.872   7.140 -0.7510  0.8538 -0.3812
 2666SOL    HW213319   9.977   5.826   7.106 -0.5706 -0.1634  0.1965
 2667SOL     OW13320   1.610   4.040   0.713 -0.1339  0.4065 -0.4745
 2667SOL    HW113321   1.531   4.009   0.759  0.7510  0.5671  1.2398
 2667SOL    HW213322   1.616   3.984   0.636 -1.1167 -0.6088  0.1503
 2668SOL     OW13323   2.373   0.988   9.708  0.0663 -0.1126  0.1352
 2668SOL    HW113324   2.326   0.935   9.643  0.8528 -0.4413 -0.1834
 2668SOL    HW213325   2.425   1.049   9.655  0.8177 -0.4722  0.4364
 2669SOL     OW13326   6.728   8.594   1.386 -0.2404 -0.0173  0.2216
 2669SOL    HW113327   6.699   8.539   1.458 -2.3611  1.2536  0.4383
 2669SOL    HW213328   6.761   8.533   1.320 -1.2703 -1.4477  0.9783
 2670SOL     OW13329   5.793   8.759   6.650 -0.0475  0.0786  0.3146
 2670SOL    HW113330   5.786   8.798   6.563  2.5382  1.2823  0.5658
 2670SOL    HW213331   5.724   8.800   6.700 -0.6789  0.4193 -0.7967
 2671SOL     OW13332   6.896   0.984   4.755 -0.3662 -0.4753 -0.0407
 2671SOL    HW113333   6.806   0.954   4.739 -0.6962 -0.1177  1.0498
 2671SOL    HW213334   6.899   1.000   4.849  0.3946  0.9576 -0.2761
 2672SOL     OW13335   0.850  10.719  11.090 -0.5325 -0.2641 -0.4476
 2672SOL    HW113336   0.782  10.653  11.100 -0.4735 -0.3091 -0.3455
 2672SOL    HW213337   0.932  10.669  11.080 -0.1939 -0.1999  1.7012
 2673SOL     OW13338  10.037  10.660   4.328 -0.5073  0.1960 -0.2865
 2673SOL    HW113339   9.997  10.611   4.400 -1.2797  0.1324 -0.7481
 2673SOL    HW213340  10.062  10.594   4.264  1.7715  0.0789  0.6421
 2674SOL     OW13341   0.097   2.700   0.149 -0.0730 -0.5883 -0.1499
 2674SOL    HW113342   0.170   2.682   0.207 -0.8594  0.6677  1.3063
 2674SOL    HW213343   0.027   2.642   0.179  0.3838 -2.0668 -1.7812
 2675SOL     OW13344   7.697   1.428   9.551  0.5569 -0.2262  0.2506
 2675SOL    HW113345   7.688   1.370   9.627  1.0850  0.5054  0.8888
 2675SOL    HW213346   7.607   1.456   9.532  0.5278  0.4498  1.3103
 2676SOL     OW13347   0.379  10.771   3.730 -0.1079  0.4707 -0.2171
 2676SOL    HW113348   0.381  10.729   3.816 -1.0760  2.5860  0.9332
 2676SOL    HW213349   0.440  10.844   3.737  0.9205 -0.1809 -1.8623
 2677SOL     OW13350   2.932   5.748   4.527 -0.9431  0.0909 -0.2931
 2677SOL    HW113351   2.921   5.675   4.466  0.1291  0.2022 -0.6402
 2677SOL    HW213352   2.883   5.721   4.605 -0.4285 -1.0804 -0.3474
 2678SOL     OW13353   5.022   6.460   7.091  0.0470 -0.0702 -0.1563
 2678SOL    HW113354   5.021   6.394   7.022  1.6262 -0.7053  0.3839
 2678SOL    HW213355   4.941   6.509   7.079  0.6418  0.4082 -2.9929
 2679SOL     OW13356   3.606  10.613   3.410 -0.4207 -0.2199 -0.1698
 2679SOL    HW113357   3.641  10.527   3.434 -0.0579  0.0087  0.1268
 2679SOL    HW213358   3.511  10.602   3.412 -0.3783 -0.5446  0.1187
 2680SOL     OW13359   7.479   0.361   9.167  0.0680  0.0285 -0.1407
 2680SOL    HW113360   7.438   0.336   9.084 -0.3876 -0.6057  0.2627
 2680SOL    HW213361   7.535   0.286   9.189  1.2437  0.7688 -0.5498
 2681SOL     OW13362  10.771   9.301   0.375 -0.7168 -0.0258 -0.1648
 2681SOL    HW113363  10.703   9.306   0.307 -0.8275 -0.8464 -0.1197
 2681SOL    HW213364  10.746   9.227   0.429 -0.8480  0.8677  1.0331
 2682SOL     OW13365   8.332  11.061   4.867 -0.2540  0.0992 -0.0014
 2682SOL    HW113366   8.370  11.015   4.792 -0.0762  0.6142 -0.2283
 2682SOL    HW213367   8.267  11.120   4.828 -0.2391  0.2864  0.2616
 2683SOL     OW13368   9.712   3.247   6.983  0.3386 -0.2890  0.1343
 2683SOL    HW113369   9.654   3.172   6.994 -1.0257  0.7307  0.1600
 2683SOL    HW213370   9.670   3.299   6.915  0.1130  1.5135  1.5970
 2684SOL     OW13371   2.745   5.461   4.215 -0.9966 -0.1444  0.0455
 2684SOL    HW113372   2.774   5.452   4.306 -1.1873 -2.0227 -0.0399
 2684SOL    HW213373   2.826   5.465   4.165 -0.8918  0.2916  0.2465
 2685SOL     OW13374   1.077   8.614   1.342 -0.0038 -0.3541  0.2238
 2685SOL    HW113375   1.067   8.535   1.290  0.5350 -0.2062 -0.1238
 2685SOL    HW213376   1.140   8.667   1.293  2.0948 -1.0574  1.9942
 2686SOL     OW13377   3.661   0.923  11.647  0.4407  0.1946  0.8534
 2686SOL    HW113378   3.581   0.946  11.694  1.2563  0.9570  1.9309
 2686SOL    HW213379   3.671   0.992  11.582  0.1628  0.0239  0.6256
 2687SOL     OW13380   3.292   7.131   1.242  0.0825 -0.1920 -0.4483
 2687SOL    HW113381   3.211   7.114   1.289  0.8900 -1.0838  0.6907
 2687SOL    HW213382   3.310   7.050   1.194  1.7839 -1.1922  1.6775
 2688SOL     OW13383   4.392   2.218   5.825  0.0066  0.5160 -0.3673
 2688SOL    HW113384   4.435   2.259   5.750 -1.6332 -0.1894 -1.7684
 2688SOL    HW213385   4.461   2.166   5.866  0.9179  0.8121 -1.4597
 2689SOL     OW13386   2.975   6.316   9.947 -0.6217 -0.0026 -0.2795
 2689SOL    HW113387   3.037   6.386   9.929 -1.1873  0.3456 -0.9608
 2689SOL    HW213388   2.890   6.360   9.951 -0.9509 -0.6068 -0.4594
 2690SOL     OW13389   7.491   6.628   1.856  0.0559  0.3549 -0.1082
 2690SOL    HW113390   7.420   6.606   1.917  0.8617 -0.2303  0.6587
 2690SOL    HW213391   7.477   6.720   1.834  0.1391  0.8112  1.5667
 2691SOL     OW13392   2.776   8.804   7.555 -0.2011  0.3702  0.3417
 2691SOL    HW113393   2.702   8.800   7.615 -0.9388  0.6113 -0.5230
 2691SOL    HW213394   2.851   8.774   7.606 -0.9625 -0.2298  1.1258
 2692SOL     OW13395   0.629   9.679   0.322 -0.4663 -0.2326 -0.2625
 2692SOL    HW113396   0.656   9.712   0.407  0.3005 -0.4227 -0.4233
 2692SOL    HW213397   0.559   9.617   0.341 -0.6806  0.1410  0.1792
 2693SOL     OW13398   1.751  11.784   8.441 -0.1215  0.1523  0.4015
 2693SOL    HW113399   1.701  11.786   8.523  0.2981  0.2639  0.6588
 2693SOL    HW213400   1.737  11.696   8.407  1.0719 -0.5048  1.4750
 2694SOL     OW13401   4.560   8.573  10.303 -0.3032  0.2620 -0.5827
 2694SOL    HW113402   4.526   8.496  10.349 -2.6075  0.8440 -1.1908
 2694SOL    HW213403   4.541   8.556  10.210 -2.3543  2.1791 -0.5995
 2695SOL     OW13404  11.622   1.011   8.636  0.1355 -0.1949 -0.2992
 2695SOL    HW113405  11.564   0.961   8.579 -0.6776  0.8012 -0.3757
 2695SOL    HW213406  11.659   0.946   8.696  0.6446 -1.1747 -1.6470
 2696SOL     OW13407   6.291   1.469   1.879  0.5405 -0.3305  0.9683
 2696SOL    HW113408   6.214   1.469   1.822  1.8936 -0.6584 -0.9472
 2696SOL    HW213409   6.342   1.394   1.850  0.6620 -1.3332  3.5763
 2697SOL     OW13410   8.827   7.016   9.468  0.0184  0.1382 -0.0787
 2697SOL    HW113411   8.754   6.977   9.516 -0.2163 -0.0130 -0.5574
 2697SOL    HW213412   8.810   7.110   9.471 -0.3776  0.0795 -0.4858
 2698SOL     OW13413   3.515   9.191   7.562  0.6019  0.2140  0.1127
 2698SOL    HW113414   3.588   9.133   7.542  0.5507  0.5106 -0.9707
 2698SOL    HW213415   3.545   9.278   7.537 -0.0175  0.3803 -0.0837
 2699SOL     OW13416   4.094   6.931   7.608  0.0006 -0.3346 -0.3400
 2699SOL    HW113417   4.123   6.921   7.699 -1.1060 -2.2723 -0.1544
 2699SOL    HW213418   4.131   6.857   7.562 -0.1019  0.2036 -1.3107
 2700SOL     OW13419   0.787   3.917   6.574  0.1943 -0.0012  0.0850
 2700SOL    HW113420   0.832   3.921   6.490  0.6410 -3.0269  0.0632
 2700SOL    HW213421   0.812   3.832   6.611 -3.3854 -0.7372  1.2849
 2701SOL     OW13422  11.744   8.764  10.844  0.4665 -0.2789 -0.4362
 2701SOL    HW113423  11.782   8.680  10.872 -0.7122 -1.0966 -1.1739
 2701SOL    HW213424  11.706   8.801  10.925  1.4620 -0.1860 -0.0025
 2702SOL     OW13425  11.301   4.307   1.169  0.1359 -0.1622  0.0632
 2702SOL    HW113426  11.232   4.355   1.123 -2.1343 -2.5632  0.7060
 2702SOL    HW213427  11.300   4.341   1.258  1.0447  0.9933 -0.3397
 2703SOL     OW13428   4.971   8.076   2.723  0.1442  0.5620  0.0190
 2703SOL    HW113429   5.062   8.105   2.730  0.3516 -0.1843  0.4675
 2703SOL    HW213430   4.930   8.106   2.805  0.6094 -1.2450  0.9571
 2704SOL     OW13431   9.959   5.529   3.247  0.0747  0.0305 -0.0811
 2704SOL    HW113432   9.930   5.488   3.165  0.2902  0.0530 -0.1682
 2704SOL    HW213433   9.880   5.530   3.302  0.3702 -1.8402  0.4670
 2705SOL     OW13434   2.061   3.399   2.015  0.2956 -0.0252  0.6929
 2705SOL    HW113435   2.035   3.389   2.107 -0.0876 -0.5143  0.5351
 2705SOL    HW213436   2.012   3.331   1.969  0.0710  0.5724  0.0394
 2706SOL     OW13437   9.281   5.149   3.244 -0.1777  0.8047  0.0844
 2706SOL    HW113438   9.206   5.105   3.204  0.4753 -0.3029  0.0285
 2706SOL    HW213439   9.309   5.213   3.179  0.3140 -0.3579 -0.8890
 2707SOL     OW13440   8.644   2.098   5.772  0.4878  0.0793 -0.4061
 2707SOL    HW113441   8.688   2.162   5.716 -0.5078  0.9687 -0.2070
 2707SOL    HW213442   8.713   2.039   5.801  1.1605  0.0495 -1.9543
 2708SOL     OW13443  10.455   6.135   3.154 -0.2579 -0.1393 -0.4947
 2708SOL    HW113444  10.408   6.163   3.233 -0.1490 -1.4472  0.0734
 2708SOL    HW213445  10.538   6.181   3.157  0.2659 -1.0877  0.8518
 2709SOL     OW13446   8.807   0.411   0.503 -0.3944 -0.1572 -0.4685
 2709SOL    HW113447   8.738   0.468   0.536 -0.6957  0.0975 -1.5130
 2709SOL    HW213448   8.764   0.326   0.491 -0.6184  0.0839 -1.4260
 2710SOL     OW13449  11.511   2.942   7.106 -0.2699 -0.0873 -0.1035
 2710SOL    HW113450  11.525   3.011   7.171 -1.3835 -0.3936  0.4923
 2710SOL    HW213451  11.593   2.939   7.057 -0.2558  1.7580 -0.2623
 2711SOL     OW13452   7.765  11.775   9.956 -0.1203 -0.0492  0.0342
 2711SOL    HW113453   7.711  11.741  10.027  1.2503 -1.8823  0.2671
 2711SOL    HW213454   7.796  11.698   9.910  1.3564  0.9825 -0.7956
 2712SOL     OW13455   1.666   4.866   3.160 -0.4265  0.6019 -0.1087
 2712SOL    HW113456   1.675   4.780   3.201  1.3966  0.3060 -1.0489
 2712SOL    HW213457   1.607   4.914   3.219 -0.0682 -0.6878  1.3834
 2713SOL     OW13458   3.452   9.253   0.892 -0.4414  0.0978  0.1207
 2713SOL    HW113459   3.520   9.321   0.893 -1.3882  1.1646 -1.9569
 2713SOL    HW213460   3.501   9.172   0.881  0.5946  0.6569  0.4032
 2714SOL     OW13461   9.131   5.520   9.547  0.6605  0.3986  0.3819
 2714SOL    HW113462   9.063   5.581   9.519 -0.1201 -0.6518 -0.0909
 2714SOL    HW213463   9.098   5.483   9.629 -2.0771 -4.0418 -2.3296
 2715SOL     OW13464   2.789   6.210   5.383 -0.1016  0.1271  0.0932
 2715SOL    HW113465   2.761   6.175   5.467  0.4564  0.1436  0.2954
 2715SOL    HW213466   2.865   6.265   5.404  0.3604 -0.2754 -0.4750
 2716SOL     OW13467   9.146   2.027   4.346  0.3804  0.5917  0.6395
 2716SOL    HW113468   9.058   1.992   4.337  0.1067  1.4095  0.0684
 2716SOL    HW213469   9.133   2.119   4.368  1.0458  1.4184 -2.0710
 2717SOL     OW13470   1.720   4.131   7.179  0.1918  0.4099  0.5758
 2717SOL    HW113471   1.732   4.084   7.261  1.8609  0.4104  0.3756
 2717SOL    HW213472   1.648   4.086   7.135  0.1971 -0.4663  1.4329
 2718SOL     OW13473   3.674  10.206  11.165 -0.2906 -0.3567 -0.0549
 2718SOL    HW113474   3.611  10.274  11.190 -0.9280 -0.6880 -0.7391
 2718SOL    HW213475   3.636  10.165  11.088  0.0590 -1.5385  0.3865
 2719SOL     OW13476   1.836  10.581   3.747 -0.3461  0.3435  0.4241
 2719SOL    HW113477   1.892  10.577   3.669 -0.7471  2.1967 -0.0029
 2719SOL    HW213478   1.748  10.560   3.714 -0.0894 -1.9572  0.9865
 2720SOL     OW13479   1.012  10.062   4.906  0.3488 -0.2808 -0.0915
 2720SOL    HW113480   0.968  10.126   4.850  0.3547  0.1018  0.3338
 2720SOL    HW213481   1.105  10.077   4.890  0.3444 -1.6231 -1.5881
 2721SOL     OW13482   0.179   8.136   0.287  0.3053  0.1434  0.3592
 2721SOL    HW113483   0.130   8.205   0.243 -1.8465 -0.8146  1.0788
 2721SOL    HW213484   0.111   8.077   0.322  2.0084 -1.5471  1.0152
 2722SOL     OW13485   6.816   0.093   5.213 -0.6914 -0.4180  0.1748
 2722SOL    HW113486   6.788   0.068   5.301 -0.2624  1.5036  0.9180
 2722SOL    HW213487   6.876   0.167   5.228  0.1446 -0.6718 -1.6872
 2723SOL     OW13488   2.419   5.994   1.274  0.2751 -0.4168  0.0894
 2723SOL    HW113489   2.418   6.077   1.227 -0.9006 -0.4728 -0.0126
 2723SOL    HW213490   2.459   6.015   1.358  0.1497  0.2173 -0.0006
 2724SOL     OW13491   0.864   4.997   1.567 -0.0040  0.6442 -0.6913
 2724SOL    HW113492   0.788   4.950   1.603  0.3677  0.4103 -0.1939
 2724SOL    HW213493   0.835   5.026   1.481 -0.9962  1.4005 -0.1248
 2725SOL     OW13494  10.116  11.140   2.396 -0.1103  0.5199  0.6154
 2725SOL    HW113495  10.202  11.142   2.355 -0.5153 -0.5482 -0.3485
 2725SOL    HW213496  10.130  11.173   2.485  1.1634  0.9348  0.2739
 2726SOL     OW13497   0.211   7.410   9.062 -0.0331 -0.2998  0.2488
 2726SOL    HW113498   0.167   7.413   8.976 -0.9228 -1.6283  0.6310
 2726SOL    HW213499   0.302   7.432   9.043  0.1151 -2.0446 -1.2858
 2727SOL     OW13500   2.529   2.700   9.903 -0.0150  0.1646 -0.2704
 2727SOL    HW113501   2.541   2.700   9.808 -0.4286 -1.1199 -0.3493
 2727SOL    HW213502   2.500   2.611   9.923  1.9253 -0.1768  1.2998
 2728SOL     OW13503   5.085   6.460   8.341  0.0668 -0.3196 -0.8588
 2728SOL    HW113504   5.002   6.509   8.342 -0.4556 -1.1326 -1.9976
 2728SOL    HW213505   5.073   6.395   8.272  1.3156 -1.0707 -0.3888
 2729SOL     OW13506   5.434   9.984   8.211  0.1883 -0.0047 -0.4436
 2729SOL    HW113507   5.383  10.020   8.137 -0.5082  1.7882  0.8270
 2729SOL    HW213508   5.375   9.920   8.251  0.3052 -0.4845 -1.0223
 2730SOL     OW13509   0.417   4.784  11.402 -0.2721 -0.1669 -0.0108
 2730SOL    HW113510   0.499   4.833  11.404  0.7015 -1.4560 -2.9031
 2730SOL    HW213511   0.364   4.826  11.334 -0.4942 -1.4566 -0.6783
 2731SOL     OW13512   1.442   8.898   2.519 -0.4205  0.6055 -0.1555
 2731SOL    HW113513   1.364   8.945   2.489 -0.0287  1.3084 -0.1098
 2731SOL    HW213514   1.418   8.806   2.514 -1.2926  0.8149 -0.0355
 2732SOL     OW13515   8.221   2.727   3.348  0.0204 -0.4857  0.1281
 2732SOL    HW113516   8.292   2.723   3.284  0.6207 -0.0320  0.7571
 2732SOL    HW213517   8.225   2.815   3.384 -1.2147 -0.2705 -0.2091
 2733SOL     OW13518   7.138   4.182   5.149  0.0875 -0.2207  0.9723
 2733SOL    HW113519   7.197   4.232   5.093 -0.0842 -1.7244 -0.6180
 2733SOL    HW213520   7.193   4.112   5.186 -0.5196 -1.2441 -0.0113
 2734SOL     OW13521   6.728   4.605   9.248 -0.4365 -0.0683 -0.2592
 2734SOL    HW113522   6.708   4.641   9.162 -1.8377 -0.3644 -0.0977
 2734SOL    HW213523   6.644   4.567   9.278  0.0670 -0.1554  1.1315
 2735SOL     OW13524   7.185   3.721  11.195  0.6098  0.3214 -0.6351
 2735SOL    HW113525   7.239   3.770  11.257 -0.2168 -0.5021  0.7749
 2735SOL    HW213526   7.248   3.675  11.140  1.3966 -1.1184  1.3758
 2736SOL     OW13527   1.408   8.727   8.442 -0.1538  0.2358 -0.2622
 2736SOL    HW113528   1.400   8.726   8.538 -0.3252  1.5746 -0.2448
 2736SOL    HW213529   1.453   8.810   8.423  1.6582 -0.8936 -1.2241
 2737SOL     OW13530   7.935   4.402   3.190  0.0629 -0.2196 -0.1957
 2737SOL    HW113531   8.025   4.426   3.211  0.3637 -1.5280  0.1049
 2737SOL    HW213532   7.927   4.416   3.095  0.4448  0.3219 -0.1458
 2738SOL     OW13533  10.745   0.130  11.614 -0.3430  0.1684 -0.0558
 2738SOL    HW113534  10.681   0.062  11.591 -0.0429 -0.1512  0.0515
 2738SOL    HW213535  10.760   0.118  11.707  1.3283 -1.0164 -0.4285
 2739SOL     OW13536   5.206  11.162   7.535  0.4062  0.3545 -0.2712
 2739SOL    HW113537   5.240  11.131   7.619 -1.5842 -0.1335  0.4161
 2739SOL    HW213538   5.158  11.088   7.499  0.5378  0.8174 -1.4471
 2740SOL     OW13539   4.086   4.638   9.751  0.5680  0.3762  0.0867
 2740SOL    HW113540   4.081   4.712   9.690 -3.1307  0.6596  0.4933
 2740SOL    HW213541   4.119   4.678   9.832  1.2239  0.9553 -0.4440
 2741SOL     OW13542   8.879   5.468   0.872 -0.2748  0.1807 -0.3514
 2741SOL    HW113543   8.916   5.473   0.960 -0.6081 -1.6561 -0.0548
 2741SOL    HW213544   8.785   5.466   0.885 -0.3123 -1.9773 -0.5493
 2742SOL     OW13545   6.625  10.453   4.593 -0.9329 -0.3416 -0.0682
 2742SOL    HW113546   6.659  10.534   4.555 -1.4388 -0.6374 -1.1871
 2742SOL    HW213547   6.689  10.386   4.569  0.1548 -0.1087  1.9286
 2743SOL     OW13548   1.042   2.154  10.528  0.0600  0.1552 -0.3849
 2743SOL    HW113549   0.996   2.233  10.501 -0.0623  0.7075  1.3357
 2743SOL    HW213550   1.111   2.184  10.587  0.2036 -0.9827  0.0699
 2744SOL     OW13551  10.683   8.017  10.433  0.4375  0.2100 -0.5008
 2744SOL    HW113552  10.641   8.092  10.475 -0.9782 -0.2300 -1.0505
 2744SOL    HW213553  10.618   7.987  10.369  1.1056 -1.2966 -0.4992
 2745SOL     OW13554   5.638   2.604   1.239 -0.7896 -0.1792  0.1001
 2745SOL    HW113555   5.649   2.616   1.145  0.5775 -0.7853  0.1616
 2745SOL    HW213556   5.720   2.564   1.268 -0.8400  0.7730  1.6917
 2746SOL     OW13557   7.166   2.609   9.734  0.5953  0.0023  0.6688
 2746SOL    HW113558   7.110   2.562   9.796 -0.1601  0.4315  0.3270
 2746SOL    HW213559   7.235   2.648   9.787 -0.4595  0.9882  1.3512
 2747SOL     OW13560   8.757   8.360   0.834  1.2167  0.1161 -0.1866
 2747SOL    HW113561   8.831   8.342   0.892  2.4466 -0.6154 -1.8837
 2747SOL    HW213562   8.727   8.274   0.806  0.3269  0.4409 -0.2501
 2748SOL     OW13563   6.089   2.886   2.520 -0.5161  0.6918 -0.2692
 2748SOL    HW113564   5.998   2.868   2.545 -0.6291  0.8677 -0.5449
 2748SOL    HW213565   6.114   2.812   2.465 -0.7682  1.0381 -0.8699
 2749SOL     OW13566   9.406   3.594   4.035  0.8196 -0.2422  0.3011
 2749SOL    HW113567   9.402   3.569   4.128  0.6483 -1.4577 -0.0099
 2749SOL    HW213568   9.322   3.565   4.000  0.0823  1.9009  0.1338
 2750SOL     OW13569   2.775   8.720   2.978  0.5531 -0.4466 -0.4327
 2750SOL    HW113570   2.744   8.792   2.923  0.2563  0.8272  1.3113
 2750SOL    HW213571   2.754   8.747   3.068  0.5621 -2.6502  0.3078
 2751SOL     OW13572   3.041   7.019   0.063 -0.3338 -0.2690  0.1612
 2751SOL    HW113573   3.121   6.991   0.106 -0.8139 -0.7093  0.7902
 2751SOL    HW213574   2.994   6.938   0.045 -0.4682 -0.0428 -0.5553
 2752SOL     OW13575   6.044   0.420   5.267 -0.3466 -0.1048 -0.1620
 2752SOL    HW113576   6.008   0.509   5.269 -2.0289 -0.7522 -0.1874
 2752SOL    HW213577   6.109   0.419   5.337 -0.3513  1.1189 -0.1185
 2753SOL     OW13578   3.009   9.018   6.392  0.0755  0.1075 -0.0168
 2753SOL    HW113579   3.085   8.959   6.388 -0.1532 -0.1476 -0.7018
 2753SOL    HW213580   2.934   8.962   6.375 -0.1584  0.5673 -0.5313
 2754SOL     OW13581   3.521  11.708   7.942  0.1133 -0.6899 -0.7718
 2754SOL    HW113582   3.582  11.744   7.877 -0.0902 -0.2533 -0.7256
 2754SOL    HW213583   3.551  11.618   7.956  1.1464 -0.2809 -0.2554
 2755SOL     OW13584   1.901   9.873   0.584  0.4212  0.5364 -0.4819
 2755SOL    HW113585   1.964   9.806   0.559 -0.8662 -0.9483  0.0880
 2755SOL    HW213586   1.909   9.940   0.516  1.9313 -0.0478 -0.9180
 2756SOL     OW13587   5.471   9.217   0.004 -0.3159  0.2575 -0.0464
 2756SOL    HW113588   5.515   9.277  -0.057 -2.6424  2.0984 -0.0676
 2756SOL    HW213589   5.378   9.225  -0.019 -0.8415 -2.4866  0.7997
 2757SOL     OW13590   1.293   2.936   1.464  0.3948  0.8410 -0.0955
 2757SOL    HW113591   1.278   3.025   1.433 -0.5093  0.8020  0.1980
 2757SOL    HW213592   1.295   2.883   1.384  0.6956  1.0845 -0.2525
 2758SOL     OW13593   1.768   3.283  10.372 -0.1065  0.5944 -0.4137
 2758SOL    HW113594   1.832   3.274  10.302 -1.2054 -0.1346 -1.3798
 2758SOL    HW213595   1.817   3.316  10.447  1.3145  0.3356 -1.2067
 2759SOL     OW13596   5.909   7.465   6.748 -1.2706 -0.1957  0.0668
 2759SOL    HW113597   5.954   7.549   6.759 -0.6416 -0.2908 -1.5874
 2759SOL    HW213598   5.926   7.418   6.830  1.8999 -0.3179 -0.5544
 2760SOL     OW13599   1.191   9.461   8.048 -0.7155 -0.3318  0.6552
 2760SOL    HW113600   1.284   9.478   8.064 -0.5616 -0.8183  0.2983
 2760SOL    HW213601   1.147   9.540   8.078 -0.3580 -0.8067  2.5155
 2761SOL     OW13602   8.035   1.886   2.758 -0.3056 -0.2285  0.1452
 2761SOL    HW113603   8.002   1.803   2.793 -1.0315  0.8253  2.1316
 2761SOL    HW213604   7.971   1.910   2.690 -2.4985  0.6335  2.3430
 2762SOL     OW13605   4.366   5.130   8.346  0.2637  0.1006 -0.0183
 2762SOL    HW113606   4.323   5.183   8.279 -0.1518  2.8333  2.2194
 2762SOL    HW213607   4.452   5.170   8.358 -0.4419  1.0468  2.4528
 2763SOL     OW13608   3.380   3.706   1.896 -0.0389  0.2903  0.2040
 2763SOL    HW113609   3.406   3.774   1.833  0.5675  0.0777  0.2219
 2763SOL    HW213610   3.290   3.730   1.921 -0.3585  0.2845 -0.8719
 2764SOL     OW13611   3.581   2.223   8.414  0.6131  0.1212 -0.1890
 2764SOL    HW113612   3.668   2.246   8.380  0.0270  1.2540 -0.9748
 2764SOL    HW213613   3.520   2.254   8.347 -0.4542  0.3114  0.8387
 2765SOL     OW13614   4.949  10.418   7.086  0.0901  0.0634  0.2806
 2765SOL    HW113615   4.969  10.451   6.998  0.2493 -0.5303  0.0856
 2765SOL    HW213616   4.886  10.348   7.071 -0.0167  0.0776  0.6583
 2766SOL     OW13617   5.896   5.070   2.929  0.3404  0.1644 -0.4318
 2766SOL    HW113618   5.807   5.053   2.959 -0.3270 -0.8584 -2.7500
 2766SOL    HW213619   5.894   5.052   2.835  2.7643  1.1027 -0.7533
 2767SOL     OW13620   6.259   6.469  10.898 -0.2907 -0.2522 -0.1271
 2767SOL    HW113621   6.242   6.408  10.969 -2.8039 -0.8105 -1.0718
 2767SOL    HW213622   6.214   6.549  10.923  1.0243  0.4537  0.0559
 2768SOL     OW13623   9.933   8.111  10.498  0.1691 -0.4408  0.0730
 2768SOL    HW113624   9.915   8.021  10.470 -1.4233 -0.1994  0.2406
 2768SOL    HW213625   9.883   8.121  10.579 -2.2658  1.5072 -1.4970
 2769SOL     OW13626   7.060   0.698  11.756 -0.2228 -0.0143 -0.0785
 2769SOL    HW113627   7.091   0.641  11.826  0.1538 -0.7638 -0.8286
 2769SOL    HW213628   7.015   0.639  11.695  0.8434  0.3530 -1.2579
 2770SOL     OW13629   3.188   5.943   2.230  0.0880 -0.2733 -0.0840
 2770SOL    HW113630   3.237   5.917   2.308 -0.5500 -0.3535  0.3060
 2770SOL    HW213631   3.251   5.937   2.158  0.1687 -2.2371  0.0944
 2771SOL     OW13632  10.112   3.066   5.267  0.0851  0.1355 -0.1093
 2771SOL    HW113633  10.206   3.080   5.278  0.2793  2.2366 -3.1982
 2771SOL    HW213634  10.104   2.987   5.214  0.2090  0.4893 -0.6682
 2772SOL     OW13635   0.077   6.792   3.904 -0.4403  0.7567 -0.1564
 2772SOL    HW113636   0.144   6.810   3.838 -0.6092  0.3826 -0.4302
 2772SOL    HW213637   0.117   6.728   3.962 -0.9666 -0.3757 -0.9948
 2773SOL     OW13638   9.867   8.640   8.634 -0.4766  0.1457 -0.0949
 2773SOL    HW113639   9.924   8.572   8.598  1.0752  1.1676  0.3322
 2773SOL    HW213640   9.782   8.597   8.643 -0.0825 -1.1265 -1.7585
 2774SOL     OW13641   0.992   0.085   0.273 -0.2585 -0.0999 -0.8745
 2774SOL    HW113642   1.083   0.112   0.257 -0.5136  0.5638 -1.2354
 2774SOL    HW213643   0.999   0.017   0.340  0.6535 -1.3453 -2.1840
 2775SOL     OW13644   0.165   3.532   9.740  0.2257 -0.1131 -0.4020
 2775SOL    HW113645   0.249   3.564   9.772  0.1657 -1.9954  1.9339
 2775SOL    HW213646   0.184   3.445   9.705 -0.6094 -0.2240 -0.6000
 2776SOL     OW13647   8.018   1.378   9.903 -0.2463 -0.1136 -0.3903
 2776SOL    HW113648   8.067   1.452   9.867  0.4775  0.3350  1.3814
 2776SOL    HW213649   7.930   1.412   9.918 -0.7082 -0.4509 -2.0876
 2777SOL     OW13650  11.604   4.230   4.641  0.5557  0.2981 -0.0517
 2777SOL    HW113651  11.532   4.254   4.699 -0.1632 -2.0614  0.1354
 2777SOL    HW213652  11.576   4.259   4.554 -1.3520 -1.7966 -0.2356
 2778SOL     OW13653   1.754   2.739   8.334 -0.6688 -0.4020  0.3723
 2778SOL    HW113654   1.773   2.646   8.328 -1.5075 -0.6155  0.8866
 2778SOL    HW213655   1.800   2.769   8.412 -1.2839 -0.6291  0.8336
 2779SOL     OW13656   1.715   9.883   2.737 -0.0462 -0.1731 -0.0066
 2779SOL    HW113657   1.770   9.900   2.814  0.1204 -0.7321  0.0075
 2779SOL    HW213658   1.725   9.789   2.722  0.0375 -0.0425 -0.8030
 2780SOL     OW13659   4.556   9.268   2.792 -0.3283  0.0543  0.3497
 2780SOL    HW113660   4.548   9.211   2.869  0.7706 -0.5892  0.0168
 2780SOL    HW213661   4.615   9.338   2.820  1.0931 -0.8685 -0.2614
 2781SOL     OW13662   9.847   7.314   4.460  0.1814  0.4141  0.2126
 2781SOL    HW113663   9.763   7.345   4.426  0.6958  2.0344  0.3146
 2781SOL    HW213664   9.911   7.345   4.396  0.7394 -0.5798  0.2744
 2782SOL     OW13665   7.830   0.807   9.919 -0.2567 -0.0491  0.0839
 2782SOL    HW113666   7.784   0.724   9.930 -0.4382 -0.0632 -0.7226
 2782SOL    HW213667   7.763   0.874   9.935 -0.7463 -0.0670 -1.6765
 2783SOL     OW13668   4.716   4.532   6.153  0.2183  0.3113  0.2284
 2783SOL    HW113669   4.783   4.468   6.177  1.9843  2.0215  0.0267
 2783SOL    HW213670   4.719   4.597   6.223 -2.8748 -0.6566  1.4565
 2784SOL     OW13671   5.240   3.820   3.196 -0.2478 -0.4224 -0.1300
 2784SOL    HW113672   5.162   3.839   3.249  1.5791 -0.3711  2.7573
 2784SOL    HW213673   5.215   3.746   3.142 -1.9663 -1.1493  1.5443
 2785SOL     OW13674   3.358   0.709   5.016  0.2576 -0.3480 -0.2925
 2785SOL    HW113675   3.367   0.620   5.052  0.8118 -0.4413 -0.6500
 2785SOL    HW213676   3.428   0.715   4.950  1.6005  1.0712  1.1650
 2786SOL     OW13677  10.745   7.246   8.996  0.0006 -0.5095  0.8402
 2786SOL    HW113678  10.670   7.301   9.020  0.1568 -0.3144  0.8842
 2786SOL    HW213679  10.740   7.171   9.055 -3.1514 -3.2002 -2.3955
 2787SOL     OW13680  10.602   6.080   8.331 -0.5842 -0.4257  0.1089
 2787SOL    HW113681  10.684   6.128   8.320  0.4600 -1.7430  1.7638
 2787SOL    HW213682  10.557   6.091   8.247  1.4863 -0.0548 -1.0183
 2788SOL     OW13683   3.654   8.661   6.686 -0.0024  0.3494  0.6319
 2788SOL    HW113684   3.585   8.716   6.647 -0.2944 -0.6131 -0.2520
 2788SOL    HW213685   3.730   8.719   6.693  0.3470  0.3946 -2.2297
 2789SOL     OW13686   2.454   5.619   9.524 -0.8149 -0.3921 -0.5769
 2789SOL    HW113687   2.513   5.574   9.464 -1.2281 -0.4790 -0.9162
 2789SOL    HW213688   2.458   5.711   9.497 -0.3978 -0.3010 -0.2318
 2790SOL     OW13689  10.283   8.557   5.312 -0.0728 -0.1673  0.8122
 2790SOL    HW113690  10.376   8.581   5.305 -0.7262  3.2471  2.0612
 2790SOL    HW213691  10.285   8.465   5.337  2.9026 -0.6321 -0.5675
 2791SOL     OW13692   7.085   3.280  10.643 -0.6013 -0.3027  0.7464
 2791SOL    HW113693   7.128   3.194  10.639  0.5305  0.2951 -0.6654
 2791SOL    HW213694   7.068   3.303  10.551  0.9435  1.8370  0.9033
 2792SOL     OW13695   9.521  11.150   9.455 -0.0347 -0.1862 -0.0479
 2792SOL    HW113696   9.589  11.092   9.421 -0.7856 -0.8075 -0.5422
 2792SOL    HW213697   9.548  11.238   9.428  0.3560 -0.4746 -0.6141
 2793SOL     OW13698  11.725   6.675   0.147  0.0679 -0.0159 -0.8327
 2793SOL    HW113699  11.744   6.759   0.106 -0.4844  0.5973  0.1390
 2793SOL    HW213700  11.745   6.610   0.079  3.3683  0.6669 -0.7137
 2794SOL     OW13701   4.858   4.422  10.071 -0.4326 -0.4876  0.1678
 2794SOL    HW113702   4.886   4.510  10.045  1.2219 -0.8534  0.5700
 2794SOL    HW213703   4.791   4.437  10.138 -1.6118  0.4408 -1.1645
 2795SOL     OW13704   8.152   7.359   2.701 -0.0264  0.6770  0.2743
 2795SOL    HW113705   8.079   7.387   2.757  1.3172  1.4749  1.7383
 2795SOL    HW213706   8.164   7.432   2.640 -0.4338  0.5612  0.0561
 2796SOL     OW13707   9.664   7.338   6.553 -0.6464 -0.6347 -0.1216
 2796SOL    HW113708   9.632   7.285   6.481 -1.7112  2.7151 -2.3579
 2796SOL    HW213709   9.587   7.388   6.582  0.5973  0.9164  0.6782
 2797SOL     OW13710  11.238   6.584   0.460 -0.9830 -0.5420  0.3207
 2797SOL    HW113711  11.317   6.530   0.465 -0.9586 -0.5899 -0.4325
 2797SOL    HW213712  11.263   6.659   0.406 -1.6125 -0.8602 -0.4285
 2798SOL     OW13713   5.183   8.356   6.250  0.2252  0.2982 -0.3607
 2798SOL    HW113714   5.125   8.336   6.177 -0.8054  0.3127  0.4440
 2798SOL    HW213715   5.180   8.278   6.305 -0.0350  0.8018  0.3434
 2799SOL     OW13716   3.197   7.682   2.442  0.0314  0.1004 -0.3441
 2799SOL    HW113717   3.191   7.737   2.364 -0.2261  1.2234  0.4314
 2799SOL    HW213718   3.289   7.656   2.446  0.5608  1.9344  0.2007
 2800SOL     OW13719   7.136   8.875   2.331 -0.4727  0.5013 -0.9533
 2800SOL    HW113720   7.148   8.794   2.382 -0.7418  0.6963 -0.5713
 2800SOL    HW213721   7.073   8.852   2.263 -0.0123  0.2027 -1.2761
 2801SOL     OW13722   9.580   2.201  10.723 -0.3142 -0.0209  0.6706
 2801SOL    HW113723   9.565   2.115  10.763 -0.8009 -0.3767 -0.2432
 2801SOL    HW213724   9.567   2.263  10.794  0.3224 -0.7155  1.4093
 2802SOL     OW13725   5.086   3.611   4.796 -0.0141  0.0780 -0.2655
 2802SOL    HW113726   5.056   3.681   4.738  0.1464  0.2720 -0.1129
 2802SOL    HW213727   5.021   3.610   4.867 -0.9190 -0.9814 -1.0707
 2803SOL     OW13728   4.347   9.460   8.913 -0.1117 -0.2873 -0.2444
 2803SOL    HW113729   4.415   9.423   8.969  0.5133  2.1270  0.6980
 2803SOL    HW213730   4.268   9.410   8.935  0.4498 -0.3953  1.7083
 2804SOL     OW13731   3.658   2.372  11.065  0.4377 -0.2012 -0.5759
 2804SOL    HW113732   3.581   2.333  11.025  1.2426 -2.0392 -0.4441
 2804SOL    HW213733   3.732   2.330  11.021  1.3971  1.6130 -0.7992
 2805SOL     OW13734   9.902   8.764   0.398 -0.2000  0.3142  0.3511
 2805SOL    HW113735   9.828   8.811   0.438 -0.9611 -1.2706  0.8783
 2805SOL    HW213736   9.875   8.673   0.397  1.3293 -0.1663 -0.4671
 2806SOL     OW13737   9.083  10.490   0.628  0.2529 -0.4132 -0.0543
 2806SOL    HW113738   9.030  10.561   0.592 -1.7316 -0.1615  2.9568
 2806SOL    HW213739   9.034  10.410   0.607 -1.2693 -0.2175  2.3114
 2807SOL     OW13740   8.100   1.968   2.310  0.2522  0.1085  0.2935
 2807SOL    HW113741   8.114   2.022   2.233 -1.1494 -0.5689 -0.4710
 2807SOL    HW213742   8.188   1.953   2.345  0.8637  0.8499 -0.8692
 2808SOL     OW13743   3.840   8.187   1.998 -0.0201  0.3294  0.2846
 2808SOL    HW113744   3.859   8.112   2.054 -1.1318 -0.3156 -0.1752
 2808SOL    HW213745   3.833   8.150   1.910  1.2786  1.2652 -0.2421
 2809SOL     OW13746   9.757   1.644   5.466  0.2766  0.1518  0.4098
 2809SOL    HW113747   9.830   1.602   5.511  1.1788  2.1911  0.9544
 2809SOL    HW213748   9.752   1.599   5.382 -0.2467 -2.4918  1.7373
 2810SOL     OW13749  11.087   3.504   6.566 -0.0870 -0.1588  0.0888
 2810SOL    HW113750  11.126   3.452   6.496 -0.2888 -1.1191  0.6729
 2810SOL    HW213751  11.040   3.441   6.620 -0.3238  0.6282  0.8314
 2811SOL     OW13752   5.745   6.975   7.751  0.2517 -0.4237 -0.1581
 2811SOL    HW113753   5.706   6.913   7.690  1.4224 -1.0194 -0.3229
 2811SOL    HW213754   5.701   6.959   7.835  1.2815 -2.2428  0.0757
 2812SOL     OW13755   8.036   8.173  11.369  0.0329 -0.1992 -0.1134
 2812SOL    HW113756   8.087   8.092  11.368  0.4738  0.0705 -0.7229
 2812SOL    HW213757   8.070   8.223  11.443  0.6063 -0.0545 -0.4715
 2813SOL     OW13758   5.480   1.475   2.639  0.2415 -0.5717 -0.2709
 2813SOL    HW113759   5.556   1.479   2.696  0.7539 -1.0017 -0.9063
 2813SOL    HW213760   5.500   1.405   2.577 -0.6219 -0.6143 -0.5194
 2814SOL     OW13761  11.532   1.922  11.382 -0.0884  0.0844  0.9870
 2814SOL    HW113762  11.456   1.956  11.430 -1.2979 -1.2174  0.0854
 2814SOL    HW213763  11.501   1.913  11.292  1.3728  0.1662  0.4496
 2815SOL     OW13764   8.478   3.791   1.845  0.2268 -0.3888 -0.1281
 2815SOL    HW113765   8.444   3.744   1.769  1.8719  0.6488 -1.5833
 2815SOL    HW213766   8.440   3.879   1.837  1.4340  0.1186 -0.5282
 2816SOL     OW13767   9.913   8.749   4.347  0.2030  0.0912 -0.0116
 2816SOL    HW113768   9.938   8.790   4.429 -1.4679  0.4250  0.3556
 2816SOL    HW213769   9.864   8.671   4.373 -0.7666  0.4647 -0.6693
 2817SOL     OW13770   9.446   1.911   4.417  0.6057  0.1594 -0.8249
 2817SOL    HW113771   9.425   1.818   4.408 -2.1318  0.6305 -0.0784
 2817SOL    HW213772   9.466   1.922   4.510 -2.5210  0.8326 -0.1249
 2818SOL     OW13773   5.533   1.526   1.863 -0.2479 -0.2398  0.6764
 2818SOL    HW113774   5.474   1.564   1.928 -1.8217  1.4666 -1.6001
 2818SOL    HW213775   5.598   1.595   1.847 -0.2886 -0.3583 -0.0303
 2819SOL     OW13776   8.474   8.319   6.891 -0.4532  0.4022 -0.3216
 2819SOL    HW113777   8.476   8.362   6.806  0.3373  0.3158 -0.3583
 2819SOL    HW213778   8.494   8.227   6.872  1.0138  0.6122  0.0722
 2820SOL     OW13779   6.819  10.559  11.573  0.5224  0.8274 -0.0666
 2820SOL    HW113780   6.859  10.644  11.554  0.0551  1.0412 -0.1327
 2820SOL    HW213781   6.764  10.576  11.650  0.6618  0.5098  0.1036
 2821SOL     OW13782   3.986   5.637   7.703 -0.0010 -0.8081  0.4629
 2821SOL    HW113783   3.893   5.612   7.706 -0.0428 -0.6062  2.5704
 2821SOL    HW213784   4.032   5.562   7.739  0.7377 -1.0533 -0.9197
 2822SOL     OW13785   2.120   6.092  10.061  0.1948  0.4448  0.2069
 2822SOL    HW113786   2.133   6.011  10.012  0.3700  0.6489 -0.0853
 2822SOL    HW213787   2.113   6.064  10.152  1.3060  0.1928  0.2275
 2823SOL     OW13788   3.184   8.969   8.744  0.3141  0.0878 -0.3828
 2823SOL    HW113789   3.128   9.023   8.799 -1.3964 -1.2386 -0.7645
 2823SOL    HW213790   3.240   8.923   8.806 -0.3209 -0.0013  0.1327
 2824SOL     OW13791   5.031   5.701  11.368  0.4233  0.1422  0.5579
 2824SOL    HW113792   5.030   5.795  11.354  0.1016  0.2803  1.4520
 2824SOL    HW213793   5.117   5.673  11.336  0.5164  0.7305  0.2815
 2825SOL     OW13794   5.406   4.004  11.122  0.0364 -0.2979 -0.0270
 2825SOL    HW113795   5.374   4.094  11.119  0.7210 -0.0378  0.0869
 2825SOL    HW213796   5.358   3.964  11.195 -1.1682 -0.4020 -0.8477
 2826SOL     OW13797   4.728   3.791   2.644 -0.2688 -0.2692  0.5328
 2826SOL    HW113798   4.731   3.883   2.621 -0.6462  0.5775  3.4483
 2826SOL    HW213799   4.659   3.785   2.710  0.3112 -2.4917  1.0332
 2827SOL     OW13800  10.627   5.684   9.082  0.2124 -0.3089  0.0838
 2827SOL    HW113801  10.674   5.767   9.073  0.9020 -0.7521 -0.4143
 2827SOL    HW213802  10.546   5.708   9.128  1.8016  0.1318  2.8572
 2828SOL     OW13803   2.417   3.499   5.827  0.2551  0.7644  0.0444
 2828SOL    HW113804   2.486   3.533   5.884  1.3200 -1.1281 -0.0078
 2828SOL    HW213805   2.459   3.428   5.778 -1.0097  1.3530 -2.0627
 2829SOL     OW13806   9.629   6.867   6.193  0.1809  0.5499  0.6093
 2829SOL    HW113807   9.536   6.889   6.203  0.3585  1.1076  1.0483
 2829SOL    HW213808   9.667   6.880   6.280  0.6772  0.3303  0.4321
 2830SOL     OW13809   5.379  10.432  10.393  0.6191 -0.0790  0.1769
 2830SOL    HW113810   5.323  10.409  10.318 -0.4455  0.0575  0.9115
 2830SOL    HW213811   5.440  10.497  10.358 -0.7346  0.9969 -0.2606
 2831SOL     OW13812  10.678   0.638   1.498  0.1717  0.6840 -0.4169
 2831SOL    HW113813  10.710   0.728   1.495  0.6906  0.4750 -1.9597
 2831SOL    HW213814  10.605   0.635   1.436  0.6137 -0.1078 -0.9277
 2832SOL     OW13815   0.933   0.595   3.218  0.2731  0.1368 -0.1027
 2832SOL    HW113816   1.007   0.538   3.197 -0.0533 -0.0632 -0.7410
 2832SOL    HW213817   0.889   0.609   3.134  0.2322  1.1624  0.0815
 2833SOL     OW13818   3.508   6.020   3.400 -0.1960 -0.0733 -0.4352
 2833SOL    HW113819   3.448   5.993   3.331  1.2992 -1.9590 -1.0871
 2833SOL    HW213820   3.573   5.950   3.404  1.6848  1.6183  0.5753
 2834SOL     OW13821   3.478   6.503   7.426 -0.1773  0.2959 -0.0924
 2834SOL    HW113822   3.395   6.481   7.385  0.8488  0.8370 -2.6000
 2834SOL    HW213823   3.459   6.503   7.520 -3.1027  0.9429 -0.6094
 2835SOL     OW13824  11.284   4.599   3.261  0.0897  0.4120  0.8426
 2835SOL    HW113825  11.238   4.625   3.341  0.8204  0.8365  1.1331
 2835SOL    HW213826  11.281   4.677   3.206 -1.5427 -0.2691 -0.1013
 2836SOL     OW13827   7.455   6.886   1.802 -0.4301 -0.1778 -0.5375
 2836SOL    HW113828   7.488   6.917   1.718  1.6915  1.9881  0.9625
 2836SOL    HW213829   7.409   6.961   1.839 -1.2691 -1.0685  0.2892
 2837SOL     OW13830   3.802   8.784   4.698  0.0335 -0.6093 -0.7245
 2837SOL    HW113831   3.889   8.799   4.736  0.2469  0.5100 -1.6097
 2837SOL    HW213832   3.793   8.689   4.696  1.6029 -0.7730 -1.4172
 2838SOL     OW13833   0.230   2.615   6.558  0.0426  0.8096  0.0050
 2838SOL    HW113834   0.170   2.574   6.496 -1.7186  1.6345  1.1002
 2838SOL    HW213835   0.251   2.545   6.620  0.9522  0.2831 -0.8619
 2839SOL     OW13836  11.311   8.968   0.096 -0.3000 -0.2141  0.3106
 2839SOL    HW113837  11.321   9.055   0.135  1.3225 -0.5425  0.7318
 2839SOL    HW213838  11.251   8.980   0.022 -2.1375  0.7416  1.8914
 2840SOL     OW13839   9.849   3.741   3.743  0.3277  0.9281 -0.3556
 2840SOL    HW113840   9.767   3.731   3.792  0.9132  0.9060  0.6439
 2840SOL    HW213841   9.897   3.660   3.760  0.5543  0.9339 -0.9505
 2841SOL     OW13842   0.179   1.537   8.583 -0.2646  0.7542  0.2328
 2841SOL    HW113843   0.242   1.605   8.605 -0.7679  0.7290  1.8733
 2841SOL    HW213844   0.226   1.455   8.600 -0.7564  0.7359  1.6235
 2842SOL     OW13845   6.937   1.375  10.145  0.4369  0.1387 -0.6119
 2842SOL    HW113846   6.894   1.369  10.230 -0.5501 -1.5942 -1.1764
 2842SOL    HW213847   6.923   1.465  10.117 -0.1717  0.4364  0.5724
 2843SOL     OW13848   8.202  10.362   9.912  0.0846 -0.1517 -0.0475
 2843SOL    HW113849   8.126  10.383   9.858  0.5262  0.4006 -0.4674
 2843SOL    HW213850   8.253  10.301   9.860 -0.9820 -2.0381  0.9994
 2844SOL     OW13851   0.908   7.741  10.418  0.2674  0.5218 -0.0713
 2844SOL    HW113852   0.997   7.706  10.412  0.4757  1.1494 -0.7652
 2844SOL    HW213853   0.867   7.690  10.488  1.2638  0.4219  0.4584
 2845SOL     OW13854  11.070   3.846  11.154  0.1083 -0.5441 -0.5514
 2845SOL    HW113855  11.050   3.826  11.062  0.7205 -0.5121 -0.6908
 2845SOL    HW213856  11.003   3.911  11.179  0.9995  0.7878 -1.5044
 2846SOL     OW13857   6.644   7.716   2.141 -0.4992 -0.6380 -0.2277
 2846SOL    HW113858   6.728   7.678   2.116 -0.4205 -1.3666  1.0711
 2846SOL    HW213859   6.609   7.753   2.060  2.0617  1.6492 -0.3955
 2847SOL     OW13860   3.911  10.939   8.868  0.4133  0.4188  0.7334
 2847SOL    HW113861   3.974  10.939   8.796  1.0910  0.1985  1.3118
 2847SOL    HW213862   3.840  10.883   8.837 -0.0049  1.5176 -0.3448
 2848SOL     OW13863   6.474  11.200   0.470  0.5289  0.6581 -0.3264
 2848SOL    HW113864   6.483  11.294   0.483  0.8560  0.7512 -1.1506
 2848SOL    HW213865   6.536  11.160   0.532  2.5238  1.0991 -1.9273
 2849SOL     OW13866   3.367   4.206   0.640 -0.4509 -0.2792 -0.6480
 2849SOL    HW113867   3.420   4.213   0.561 -0.4866  0.2404 -0.6347
 2849SOL    HW213868   3.411   4.141   0.694 -0.0140 -0.0974 -0.7799
 2850SOL     OW13869   1.853   7.793   1.780 -0.3577 -0.0437 -0.3167
 2850SOL    HW113870   1.790   7.759   1.844 -1.1201 -2.1663 -2.0670
 2850SOL    HW213871   1.823   7.882   1.762  0.8267  1.2999  3.3386
 2851SOL     OW13872   3.127   3.166   5.696  0.0928  0.2935 -0.3602
 2851SOL    HW113873   3.187   3.119   5.753 -0.0554 -1.1662 -1.3532
 2851SOL    HW213874   3.040   3.138   5.724 -0.0027  0.1175 -0.8114
 2852SOL     OW13875   4.376   7.847   2.461 -0.4534  0.4446 -0.2119
 2852SOL    HW113876   4.462   7.822   2.494 -0.1918  0.1408 -1.1073
 2852SOL    HW213877   4.323   7.769   2.471 -0.1328  0.0729 -1.3112
 2853SOL     OW13878   2.677   2.506   4.242 -0.4042 -0.4228  1.0264
 2853SOL    HW113879   2.608   2.490   4.306 -0.1830  0.7546  1.5945
 2853SOL    HW213880   2.752   2.535   4.295  0.1591 -0.5769  0.3256
 2854SOL     OW13881   1.061  11.281   2.604 -0.5325  0.3177 -0.0241
 2854SOL    HW113882   1.061  11.267   2.510 -1.1061  0.2383 -0.0148
 2854SOL    HW213883   1.079  11.375   2.615  1.7795 -0.0425 -0.1319
 2855SOL     OW13884   6.908   2.123   5.791  0.2169  0.4051  0.3958
 2855SOL    HW113885   6.914   2.140   5.697 -1.2100  0.5205  0.3035
 2855SOL    HW213886   6.999   2.114   5.820  0.7764  2.1280 -0.6710
 2856SOL     OW13887   5.862   2.397  10.162 -0.1099  0.1645  0.5282
 2856SOL    HW113888   5.789   2.430  10.214 -0.3533 -0.6131  0.6883
 2856SOL    HW213889   5.841   2.305  10.146  1.2566 -0.3342  1.3497
 2857SOL     OW13890   4.034   4.353   2.939  0.4531 -0.1822 -0.2668
 2857SOL    HW113891   4.119   4.311   2.930  1.7195  1.8163  1.5107
 2857SOL    HW213892   4.029   4.413   2.865  0.1759 -0.8902 -0.8406
 2858SOL     OW13893   4.314  11.705   7.018 -0.2488 -0.5229 -0.1549
 2858SOL    HW113894   4.298  11.744   6.932  1.7046  0.0968 -0.2747
 2858SOL    HW213895   4.307  11.611   7.004  0.6117 -0.4534 -1.1357
 2859SOL     OW13896   4.979   2.354   6.004  0.1355  0.4820  0.0305
 2859SOL    HW113897   4.911   2.421   6.012  0.4491  0.8543 -0.3681
 2859SOL    HW213898   5.048   2.382   6.064 -1.0534 -1.1891  2.3501
 2860SOL     OW13899   3.080   8.385   6.841 -0.1548 -0.5296  0.3310
 2860SOL    HW113900   3.061   8.476   6.863 -0.1734 -0.8303  1.6791
 2860SOL    HW213901   3.104   8.345   6.925  2.8744 -1.0524 -0.6394
 2861SOL     OW13902   4.268   9.946   0.529 -0.3594 -0.4273  0.0678
 2861SOL    HW113903   4.347   9.973   0.481  1.0206 -0.8892  1.9698
 2861SOL    HW213904   4.217   9.897   0.464  0.7050  0.2241 -1.3324
 2862SOL     OW13905   6.532   8.535   2.970  0.0875 -0.4730  0.6798
 2862SOL    HW113906   6.564   8.493   3.050  1.4020 -0.3360  0.2551
 2862SOL    HW213907   6.480   8.466   2.927 -0.4783 -0.6047  1.5413
 2863SOL     OW13908   8.508   5.064   8.598 -0.4444  0.0215 -0.1338
 2863SOL    HW113909   8.516   5.151   8.559 -0.8416 -0.6114 -1.7032
 2863SOL    HW213910   8.595   5.026   8.590 -0.4900 -0.0527 -0.2869
 2864SOL     OW13911   4.177   3.195   8.770  0.0316  0.2194 -0.3020
 2864SOL    HW113912   4.089   3.171   8.801 -0.3647  0.1107 -1.4685
 2864SOL    HW213913   4.210   3.255   8.837 -1.4637  1.2963 -0.4718
 2865SOL     OW13914   5.584   6.331   2.611 -0.6013 -0.4467 -0.0155
 2865SOL    HW113915   5.572   6.317   2.705 -0.0298  0.6212  0.2267
 2865SOL    HW213916   5.526   6.267   2.570 -1.3982 -0.4462  1.0684
 2866SOL     OW13917   4.929  10.531  11.137  0.1720 -0.1635 -0.3172
 2866SOL    HW113918   5.014  10.525  11.094  0.2237  0.1632 -0.2662
 2866SOL    HW213919   4.939  10.478  11.216  0.8896  1.2150  0.5639
 2867SOL     OW13920   3.342   2.527   8.232  0.6819 -0.2846 -0.5874
 2867SOL    HW113921   3.389   2.479   8.164  1.6628 -0.1346 -0.0408
 2867SOL    HW213922   3.411   2.571   8.281 -0.0687  0.1946  0.0563
 2868SOL     OW13923   8.488   9.970  10.617 -0.1259 -0.0949  0.2196
 2868SOL    HW113924   8.559   9.999  10.559  0.5671  3.2925  2.4754
 2868SOL    HW213925   8.409  10.010  10.579  0.3104  2.0245  1.3899
 2869SOL     OW13926   3.068   5.507   6.211 -0.1936  0.5240  0.3309
 2869SOL    HW113927   3.099   5.517   6.301  0.5057 -1.1731  0.3181
 2869SOL    HW213928   3.147   5.491   6.160 -0.8489 -3.5329  0.2400
 2870SOL     OW13929   9.707  10.466  11.247  0.3314  0.1618  0.2995
 2870SOL    HW113930   9.796  10.502  11.242  0.2571  0.4460  0.9151
 2870SOL    HW213931   9.662  10.503  11.172  0.2463  1.3959  0.9316
 2871SOL     OW13932   8.131   8.516   3.064  0.2732 -0.5298 -0.6245
 2871SOL    HW113933   8.094   8.579   3.126 -0.6572 -1.3731 -0.2903
 2871SOL    HW213934   8.102   8.431   3.096  1.5589 -1.1519 -1.0304
 2872SOL     OW13935   8.316  10.047   1.918  0.3400  0.2151 -0.1796
 2872SOL    HW113936   8.360  10.044   1.833  0.1868  0.1903 -0.2602
 2872SOL    HW213937   8.314  10.139   1.941  0.3404  0.2266 -0.2254
 2873SOL     OW13938   1.745  11.595  11.633  0.0092 -0.5538  0.1865
 2873SOL    HW113939   1.678  11.589  11.701 -1.5584 -0.3032 -1.2438
 2873SOL    HW213940   1.739  11.686  11.603 -2.6834 -1.6683 -3.3663
 2874SOL     OW13941   8.967   0.745  10.455  0.0637 -0.2172 -0.0947
 2874SOL    HW113942   8.994   0.654  10.440 -1.1579 -0.6313  0.1357
 2874SOL    HW213943   9.048   0.796  10.444  1.7067 -1.6645  3.6591
 2875SOL     OW13944   8.887   0.149   1.301  0.3485 -0.0233 -0.1692
 2875SOL    HW113945   8.826   0.176   1.370 -1.6790 -1.5333 -1.2632
 2875SOL    HW213946   8.863   0.202   1.225  1.8723  0.8815 -0.0556
 2876SOL     OW13947   9.227   1.121   2.119  0.3077 -0.0727 -0.5635
 2876SOL    HW113948   9.273   1.194   2.160 -0.5973 -1.2908  2.9224
 2876SOL    HW213949   9.295   1.073   2.072  1.8525  0.4188  1.0800
 2877SOL     OW13950  11.188  11.683   7.680 -1.0274 -0.2922 -0.0674
 2877SOL    HW113951  11.116  11.746   7.685  0.6035  1.8431 -1.5996
 2877SOL    HW213952  11.267  11.737   7.670  0.5065 -2.5779 -1.1985
 2878SOL     OW13953   1.436   9.370   5.323 -0.1144  0.6065  0.1690
 2878SOL    HW113954   1.432   9.404   5.234  0.7201  1.0273  0.2757
 2878SOL    HW213955   1.509   9.308   5.321 -0.7541 -0.1695  0.3135
 2879SOL     OW13956   6.149   3.842   2.501 -0.1993 -0.1482 -0.0453
 2879SOL    HW113957   6.121   3.929   2.474  0.8299  0.2175  0.0369
 2879SOL    HW213958   6.242   3.851   2.520  0.1260 -1.4607 -0.8623
 2880SOL     OW13959  10.561   7.867   9.709 -0.1105  0.1365 -0.2672
 2880SOL    HW113960  10.501   7.900   9.642 -1.2223  2.0893  1.5348
 2880SOL    HW213961  10.647   7.904   9.685 -0.4523  0.6250 -0.7564
 2881SOL     OW13962  11.094  10.986  10.499  0.4574  0.0679 -0.5774
 2881SOL    HW113963  11.178  10.967  10.458  1.1394 -2.3334  1.6552
 2881SOL    HW213964  11.051  10.901  10.508 -1.9279  1.1352 -0.9593
 2882SOL     OW13965   9.605   5.909   6.172  0.7567 -0.0850  0.0725
 2882SOL    HW113966   9.622   5.972   6.243 -0.5525 -0.9120  1.1679
 2882SOL    HW213967   9.644   5.949   6.094 -0.9167  2.6194  0.4910
 2883SOL     OW13968  10.808   6.172   7.517  0.4068 -0.5327  0.3619
 2883SOL    HW113969  10.759   6.244   7.557  0.5654  0.4802 -1.1900
 2883SOL    HW213970  10.883   6.159   7.575  1.4319  1.8852 -0.3039
 2884SOL     OW13971   0.712   6.124   8.248  0.8086 -0.3101  0.0676
 2884SOL    HW113972   0.667   6.200   8.210  1.3323 -0.0468 -0.0295
 2884SOL    HW213973   0.723   6.147   8.340  0.6189 -0.4377  0.1233
 2885SOL     OW13974   8.234   9.139   1.314 -0.1612 -0.3001  0.0098
 2885SOL    HW113975   8.148   9.159   1.350 -0.3814 -0.4429 -0.4267
 2885SOL    HW213976   8.236   9.043   1.308 -1.0177 -0.2492 -2.4230
 2886SOL     OW13977   5.128   1.030   4.822  0.5639 -0.4805  0.2187
 2886SOL    HW113978   5.206   1.044   4.875  0.6276 -2.3604  0.7045
 2886SOL    HW213979   5.149   1.069   4.737  1.5719  0.0487  0.6963
 2887SOL     OW13980   2.924  11.345   9.110 -0.1963 -0.3578 -0.0204
 2887SOL    HW113981   2.879  11.306   9.035 -0.2996  0.3856 -0.3589
 2887SOL    HW213982   2.854  11.378   9.166 -0.1064  1.5482 -0.9528
 2888SOL     OW13983   8.795   1.114   6.806 -0.3933 -0.5013 -0.0481
 2888SOL    HW113984   8.705   1.115   6.772 -0.7352  1.0321  0.7662
 2888SOL    HW213985   8.787   1.147   6.896  1.0659  0.4364 -0.2239
 2889SOL     OW13986   2.131  10.037   7.562  0.4338 -0.2698 -0.5995
 2889SOL    HW113987   2.149   9.981   7.638 -0.3425  0.7101  0.3291
 2889SOL    HW213988   2.080   9.982   7.503 -0.8906 -0.3654  0.5923
 2890SOL     OW13989   1.108   5.766   3.319  0.0607  0.3112 -0.2751
 2890SOL    HW113990   1.152   5.843   3.355  0.6627  0.0452 -0.4373
 2890SOL    HW213991   1.147   5.754   3.233 -0.2778  0.0278 -0.3926
 2891SOL     OW13992   6.955  11.626   7.864  0.3626  0.3417  0.3727
 2891SOL    HW113993   6.966  11.534   7.844  0.1811  0.1500  1.1279
 2891SOL    HW213994   6.909  11.662   7.788  1.2945  0.0187 -0.3584
 2892SOL     OW13995   6.793   3.364   5.575 -0.4365 -0.3002  0.2717
 2892SOL    HW113996   6.828   3.383   5.488 -2.0988  0.7188 -0.2181
 2892SOL    HW213997   6.712   3.415   5.580 -1.7179 -2.3108  1.4203
 2893SOL     OW13998   7.518   9.432   4.590 -0.3561  0.4471  0.4059
 2893SOL    HW113999   7.551   9.502   4.534 -2.2436 -0.1624 -1.6197
 2893SOL    HW214000   7.460   9.477   4.653  0.2811  0.9271  0.6603
 2894SOL     OW14001   3.778  11.612   8.741 -0.4020 -0.8046 -0.2043
 2894SOL    HW114002   3.864  11.597   8.780  0.4406  0.0669 -1.6233
 2894SOL    HW214003   3.731  11.664   8.806  1.4628  1.8313 -0.7952
 2895SOL     OW14004   2.698   9.868   6.569  0.4499  0.7658  0.9466
 2895SOL    HW114005   2.767   9.929   6.595  1.2470  0.8082 -1.0778
 2895SOL    HW214006   2.744   9.800   6.520 -0.7677 -0.0291  0.8747
 2896SOL     OW14007   2.601   2.676   9.643  0.4393  0.1111 -0.8784
 2896SOL    HW114008   2.674   2.728   9.610  0.5674 -0.5468 -1.6650
 2896SOL    HW214009   2.527   2.701   9.586  0.3328 -0.0644 -0.8172
 2897SOL     OW14010   5.269   0.334   5.720  0.4496 -0.2076 -0.6279
 2897SOL    HW114011   5.315   0.256   5.689  1.3510 -0.4422  1.1646
 2897SOL    HW214012   5.282   0.398   5.651  2.5538 -0.6311 -0.7016
 2898SOL     OW14013   8.368   6.344  11.062 -0.0675  0.0645  0.4941
 2898SOL    HW114014   8.308   6.411  11.027  1.0180  1.7041  1.5890
 2898SOL    HW214015   8.314   6.293  11.122 -1.0426 -0.3732 -0.7281
 2899SOL     OW14016   7.013   9.977   2.038  0.5429  0.1154  0.1138
 2899SOL    HW114017   7.010   9.970   2.133 -0.2455  2.2293  0.2905
 2899SOL    HW214018   7.080  10.043   2.020 -0.4247  0.9034 -0.7105
 2900SOL     OW14019   0.022   3.188  10.962  0.1947 -0.0677 -0.3617
 2900SOL    HW114020  -0.013   3.100  10.968  0.8768 -0.2985  0.3916
 2900SOL    HW214021  -0.048   3.245  10.995  1.3373 -0.7217  3.5913
 2901SOL     OW14022   0.492  11.430   0.843  0.0077  0.2441  0.2274
 2901SOL    HW114023   0.565  11.380   0.806  0.1574  0.9450 -0.4638
 2901SOL    HW214024   0.416  11.402   0.791  0.0934  0.7239 -0.1657
 2902SOL     OW14025   7.161   4.404   8.064 -0.2553 -0.1684 -0.0591
 2902SOL    HW114026   7.136   4.392   7.972  2.2446 -0.1723 -0.8074
 2902SOL    HW214027   7.140   4.495   8.083  0.1742  0.1292 -0.9811
 2903SOL     OW14028   3.699   5.271   4.833  0.4029 -0.9171  0.4052
 2903SOL    HW114029   3.789   5.302   4.819  0.0054 -0.1731 -0.6460
 2903SOL    HW214030   3.704   5.220   4.913  1.6259 -0.2836  0.7694
 2904SOL     OW14031  11.340   9.296  10.079  0.8801 -0.0883 -0.1030
 2904SOL    HW114032  11.380   9.382  10.071  0.4068 -0.0054 -2.0741
 2904SOL    HW214033  11.415   9.236  10.086  1.2181  0.4194  0.8001
 2905SOL     OW14034   8.730   4.595   6.161 -0.1813 -0.7879 -0.2723
 2905SOL    HW114035   8.702   4.533   6.228  0.9366 -0.1568  0.8334
 2905SOL    HW214036   8.780   4.542   6.099 -0.2618 -1.1926  0.0009
 2906SOL     OW14037   5.116   0.174   8.778 -0.5388 -0.3720 -0.1677
 2906SOL    HW114038   5.111   0.266   8.752 -0.2580  0.2370  1.8054
 2906SOL    HW214039   5.209   0.153   8.779 -0.5327 -0.3452  0.4215
 2907SOL     OW14040   6.053  10.433   3.804  0.0797  0.1247  0.3413
 2907SOL    HW114041   5.976  10.393   3.762 -0.2034  0.3773  0.6117
 2907SOL    HW214042   6.116  10.444   3.733  0.7206 -2.1080  0.4972
 2908SOL     OW14043   5.674   4.496   7.017  0.0684 -0.0898 -0.5306
 2908SOL    HW114044   5.585   4.461   7.016  0.3491 -0.9781  1.0637
 2908SOL    HW214045   5.721   4.445   6.951 -0.1377 -1.0265  0.0300
 2909SOL     OW14046   5.867   6.635   7.898 -0.1980  0.6314 -0.2785
 2909SOL    HW114047   5.917   6.669   7.823  0.4412  1.5801  0.5496
 2909SOL    HW214048   5.850   6.712   7.952 -0.2645 -0.1048  0.7769
 2910SOL     OW14049   3.994   1.376   6.992 -0.0913  0.3680  0.4618
 2910SOL    HW114050   3.948   1.294   7.008 -0.8748  0.2916 -1.7968
 2910SOL    HW214051   4.087   1.353   6.996 -0.3048 -0.5767  0.1100
 2911SOL     OW14052  11.060   5.973   1.929 -0.2157 -0.0631  0.0843
 2911SOL    HW114053  11.040   6.049   1.876 -0.5250 -0.0097  0.2725
 2911SOL    HW214054  11.101   5.911   1.869  0.7942  0.5586  0.0993
 2912SOL     OW14055   0.745   4.001   1.789 -0.0389 -0.4835 -0.8044
 2912SOL    HW114056   0.830   4.045   1.796  0.2395 -1.2804  1.8196
 2912SOL    HW214057   0.681   4.069   1.809  0.1104 -0.3356 -0.8285
 2913SOL     OW14058   5.756   6.664  11.127 -0.5165 -0.6647  0.2971
 2913SOL    HW114059   5.678   6.719  11.136  0.1902  0.2254  1.2355
 2913SOL    HW214060   5.800   6.671  11.212  0.9855 -0.5133 -0.4610
 2914SOL     OW14061   5.253   2.372   1.682 -0.1508 -0.4676 -0.2100
 2914SOL    HW114062   5.324   2.312   1.703  2.1214  1.7659 -0.9569
 2914SOL    HW214063   5.249   2.432   1.757 -1.1267 -0.4176 -0.2789
 2915SOL     OW14064   0.747   9.871   8.528  0.2932  0.1533  0.8072
 2915SOL    HW114065   0.835   9.862   8.565  0.4725 -1.5967  0.0526
 2915SOL    HW214066   0.699   9.796   8.564 -0.2852 -0.0710 -0.4015
 2916SOL     OW14067   5.060  11.035   0.325 -0.4401 -0.3422 -0.4350
 2916SOL    HW114068   5.139  11.078   0.293 -0.7514 -0.0850 -0.8689
 2916SOL    HW214069   5.072  11.030   0.420  0.3310 -0.7944 -0.5552
 2917SOL     OW14070   1.634   1.277   9.016 -0.1486 -0.1435  0.2965
 2917SOL    HW114071   1.606   1.244   9.102  1.5402 -1.4685  0.3934
 2917SOL    HW214072   1.702   1.215   8.988 -0.7248  0.2090 -2.0540
 2918SOL     OW14073   5.533   5.062   8.753  0.2728 -0.1679  0.3157
 2918SOL    HW114074   5.552   4.969   8.744 -1.5363 -0.6037  0.5886
 2918SOL    HW214075   5.478   5.068   8.831 -1.0877  0.8821 -0.6752
 2919SOL     OW14076   1.369   1.681  10.373 -0.0452 -1.0817  0.1056
 2919SOL    HW114077   1.444   1.625  10.394  0.0982 -0.5960  0.9073
 2919SOL    HW214078   1.317   1.684  10.453 -1.4310 -2.1608 -0.7024
 2920SOL     OW14079   9.728   2.981   3.990  0.4674  0.0358  0.0019
 2920SOL    HW114080   9.669   3.003   4.062  0.2550 -0.5801  0.0227
 2920SOL    HW214081   9.717   3.052   3.927  1.8964  1.4725  1.2867
 2921SOL     OW14082   1.300  10.078   2.027  0.2478  0.2040 -0.1334
 2921SOL    HW114083   1.309  10.144   1.958  0.5826  1.7711  1.3038
 2921SOL    HW214084   1.210  10.087   2.058  0.1636 -0.3216 -0.2269
 2922SOL     OW14085   1.786   4.995   4.605 -0.2701  0.6321 -0.1450
 2922SOL    HW114086   1.854   5.061   4.591 -0.8416  1.2160 -0.2132
 2922SOL    HW214087   1.811   4.923   4.546  1.4002 -0.0538  1.2958
 2923SOL     OW14088   8.461   8.030   5.942  0.7050 -0.4734 -0.4747
 2923SOL    HW114089   8.489   7.974   6.015  0.4085 -0.4673 -0.3556
 2923SOL    HW214090   8.393   8.086   5.979  0.2627 -0.7532 -0.8597
 2924SOL     OW14091   0.082   3.539   1.763  0.3840 -0.2251 -0.0655
 2924SOL    HW114092   0.105   3.561   1.853 -0.3242 -0.3622  0.1558
 2924SOL    HW214093  -0.013   3.533   1.763  0.3611 -0.0350 -0.8714
 2925SOL     OW14094   9.328  11.560   6.596 -0.1265 -0.5428 -0.5957
 2925SOL    HW114095   9.320  11.650   6.628 -0.0143 -1.1692  1.3142
 2925SOL    HW214096   9.251  11.547   6.541  0.3019  0.9703 -1.6375
 2926SOL     OW14097   6.148   1.594   8.275  0.1319 -0.1541  0.3483
 2926SOL    HW114098   6.172   1.525   8.336  0.5158 -0.0205  0.3501
 2926SOL    HW214099   6.212   1.663   8.289 -0.6572  0.4982  0.8300
 2927SOL     OW14100   8.803   5.842   3.652 -0.6247 -0.2213 -0.0264
 2927SOL    HW114101   8.709   5.852   3.640 -0.7795 -1.3620  0.0704
 2927SOL    HW214102   8.843   5.899   3.587 -1.3856 -0.0681 -0.3627
 2928SOL     OW14103  11.476   4.147   4.168  0.4725  0.1340  0.5992
 2928SOL    HW114104  11.456   4.055   4.185  1.5642 -0.6994 -2.0363
 2928SOL    HW214105  11.429   4.195   4.237 -1.2449 -2.2768  1.2633
 2929SOL     OW14106  11.340   5.629   9.796 -0.5936  0.5970  0.1081
 2929SOL    HW114107  11.354   5.569   9.869  0.5115  1.0280  0.2743
 2929SOL    HW214108  11.255   5.605   9.760 -0.4034 -0.7102  0.5059
 2930SOL     OW14109   3.160   6.734   1.773 -0.2886 -0.0379 -0.1860
 2930SOL    HW114110   3.092   6.779   1.823 -0.5390 -1.1520  0.5277
 2930SOL    HW214111   3.121   6.649   1.752  0.9021 -0.7391  0.3198
 2931SOL     OW14112   4.547   9.964   8.634 -0.4942  0.0368  0.6674
 2931SOL    HW114113   4.485   9.899   8.601 -0.3398  0.3513 -0.2780
 2931SOL    HW214114   4.494  10.023   8.688 -0.9474  0.0790  0.1832
 2932SOL     OW14115   8.937  11.708   2.716  0.1955 -0.1777 -0.0953
 2932SOL    HW114116   8.950  11.770   2.788  0.6485 -2.1826  1.6529
 2932SOL    HW214117   8.899  11.760   2.646  0.4062  2.0240  1.3351
 2933SOL     OW14118   2.290   9.331   2.046  0.0265  0.5614  0.8640
 2933SOL    HW114119   2.260   9.387   2.117  0.3379  1.5943  0.1992
 2933SOL    HW214120   2.374   9.368   2.019 -0.4555  0.6657 -0.5557
 2934SOL     OW14121   1.514   4.338  11.681  0.0741 -0.0889 -0.0581
 2934SOL    HW114122   1.598   4.382  11.672  0.3711 -0.9880 -2.0799
 2934SOL    HW214123   1.455   4.406  11.713  1.0875  1.1071 -0.6420
 2935SOL     OW14124  11.447  11.651   1.629  0.4609  0.1528  0.6485
 2935SOL    HW114125  11.440  11.679   1.538 -1.9447  0.8527  0.9741
 2935SOL    HW214126  11.411  11.563   1.630  1.5009 -0.2837  0.7701
 2936SOL     OW14127   7.404   1.412   4.845 -0.0706  0.7526  0.0962
 2936SOL    HW114128   7.443   1.353   4.781  0.2479  0.6047  0.4292
 2936SOL    HW214129   7.472   1.476   4.865 -0.1494  0.7612  0.3403
 2937SOL     OW14130   5.372   3.154  10.512 -0.3716  0.2498  0.8661
 2937SOL    HW114131   5.412   3.184  10.430  0.0479 -0.2464  0.8827
 2937SOL    HW214132   5.281   3.136  10.489 -0.0084 -0.9094  0.2272
 2938SOL     OW14133   9.097   9.012   3.816  0.1463  0.1973  0.0502
 2938SOL    HW114134   9.171   9.071   3.803 -0.0971  0.8594  1.4913
 2938SOL    HW214135   9.135   8.925   3.817  0.7839  0.4656 -0.1164
 2939SOL     OW14136   2.618   9.415   3.840 -0.4815 -1.1262  0.2455
 2939SOL    HW114137   2.623   9.472   3.916  0.4404 -1.7217  0.6429
 2939SOL    HW214138   2.646   9.469   3.767  1.0898 -1.2588  0.7292
 2940SOL     OW14139  10.909   2.883   4.760 -0.0771  0.4818  0.3016
 2940SOL    HW114140  10.831   2.933   4.785 -2.4641 -1.7333 -2.0417
 2940SOL    HW214141  10.950   2.859   4.843 -1.9530  1.6244  1.6483
 2941SOL     OW14142   1.241   0.228   0.481 -0.1709 -0.4637 -0.9458
 2941SOL    HW114143   1.331   0.204   0.501 -0.4419 -1.2637 -0.6363
 2941SOL    HW214144   1.232   0.211   0.387 -0.6764 -2.7760 -0.5449
 2942SOL     OW14145  10.644   8.410  10.216 -0.2194  0.1470 -0.0001
 2942SOL    HW114146  10.713   8.448  10.270  0.9302 -1.3340 -0.3754
 2942SOL    HW214147  10.567   8.410  10.274  1.0226 -1.5781  1.8047
 2943SOL     OW14148   1.769  10.825   0.427 -0.3203  0.0134  0.2084
 2943SOL    HW114149   1.692  10.769   0.426 -0.7007  0.4759  1.5373
 2943SOL    HW214150   1.834  10.778   0.480 -0.1541  0.2088  0.1841
 2944SOL     OW14151   6.651   7.632   9.185  0.1075  0.7399 -0.5055
 2944SOL    HW114152   6.684   7.716   9.217 -0.2343  0.9514 -0.6989
 2944SOL    HW214153   6.558   7.632   9.211 -0.2637  1.0616 -1.7633
 2945SOL     OW14154   4.249   5.677   6.843  0.0548  0.0922 -0.5978
 2945SOL    HW114155   4.191   5.663   6.918 -0.5444  1.5763 -0.7332
 2945SOL    HW214156   4.314   5.607   6.849 -0.5825 -0.4237  0.7190
 2946SOL     OW14157  10.957  11.394   5.546  0.2015  0.4365 -0.1703
 2946SOL    HW114158  10.968  11.463   5.612  0.9378  0.0322  0.1427
 2946SOL    HW214159  11.030  11.334   5.562  0.4910  0.4194 -1.4607
 2947SOL     OW14160   8.230   7.606  10.789 -0.1668 -0.2752  0.2457
 2947SOL    HW114161   8.271   7.550  10.723  1.3513 -0.6022  1.4190
 2947SOL    HW214162   8.303   7.652  10.830 -1.0492 -0.2950  1.9093
 2948SOL     OW14163   0.237   9.223   4.345 -0.5382 -0.3447  0.0884
 2948SOL    HW114164   0.144   9.236   4.323 -1.2740 -3.3623  0.9638
 2948SOL    HW214165   0.266   9.154   4.286  1.6704  1.5705 -1.2033
 2949SOL     OW14166   4.945   3.577   1.623 -0.2724 -0.2280 -0.0385
 2949SOL    HW114167   4.932   3.670   1.645 -0.0653 -0.0433 -0.6881
 2949SOL    HW214168   5.025   3.553   1.670 -1.3833 -0.6382  1.7563
 2950SOL     OW14169   2.603   7.928   9.246  0.2703 -0.4362 -0.0593
 2950SOL    HW114170   2.554   7.918   9.165 -0.7443 -1.6776  0.6777
 2950SOL    HW214171   2.601   7.841   9.286 -0.5319  0.4692  1.9885
 2951SOL     OW14172   2.967   9.403   2.204 -0.0804  0.4396 -0.2422
 2951SOL    HW114173   2.939   9.482   2.159 -0.7606  0.7202  0.6576
 2951SOL    HW214174   2.975   9.429   2.296  0.9653 -0.2054 -0.1345
 2952SOL     OW14175   0.591  11.734   4.595  0.6478 -0.8830 -0.4737
 2952SOL    HW114176   0.555  11.646   4.606  1.0121 -0.9239  0.5266
 2952SOL    HW214177   0.641  11.749   4.675  0.7025  0.1883 -0.6966
 2953SOL     OW14178  11.007   6.082   3.895 -0.2313  0.3465 -0.0108
 2953SOL    HW114179  10.921   6.098   3.857 -1.1178  1.6123  2.3302
 2953SOL    HW214180  11.004   5.990   3.923 -0.6953  0.2933 -0.2275
 2954SOL     OW14181   9.355   0.411  11.070 -0.0668  0.0781  0.1139
 2954SOL    HW114182   9.260   0.428  11.071 -0.3038 -0.7097 -2.0469
 2954SOL    HW214183   9.367   0.341  11.133 -0.8588  0.3971  0.6502
 2955SOL     OW14184   3.237   9.670   2.733  0.3885 -0.0180  0.4574
 2955SOL    HW114185   3.283   9.721   2.799  1.8137 -0.1322 -0.4105
 2955SOL    HW214186   3.250   9.720   2.652 -1.9097  0.4934  0.3362
 2956SOL     OW14187   2.431   9.889   5.079 -0.4054  0.1661  0.2681
 2956SOL    HW114188   2.399   9.876   4.990 -2.3997 -1.5961  1.1713
 2956SOL    HW214189   2.398   9.976   5.103 -0.3907  0.3903 -0.4930
 2957SOL     OW14190   7.857  11.199  10.214 -0.0989 -0.0412 -0.1138
 2957SOL    HW114191   7.900  11.125  10.256 -2.7401 -0.4016  2.2618
 2957SOL    HW214192   7.890  11.276  10.260 -0.7860 -0.1846  0.6390
 2958SOL     OW14193   1.579   6.315   7.700 -0.0632  0.3015  0.5554
 2958SOL    HW114194   1.561   6.349   7.612 -0.1414  0.6963  0.7235
 2958SOL    HW214195   1.602   6.223   7.685  0.2414  0.4473  0.0918
 2959SOL     OW14196   8.261   4.153   3.644 -0.1962 -0.1568 -0.2558
 2959SOL    HW114197   8.258   4.091   3.717 -1.3918 -1.4864 -1.3870
 2959SOL    HW214198   8.241   4.237   3.684  0.3489 -0.6450  1.1321
 2960SOL     OW14199   2.744   7.786   0.907 -0.3309 -1.0241 -0.9928
 2960SOL    HW114200   2.821   7.773   0.852  0.6748  0.8578 -0.1147
 2960SOL    HW214201   2.776   7.774   0.996 -1.0513 -0.2503 -0.6168
 2961SOL     OW14202   9.895   8.133   8.675 -0.2375 -0.0591  0.1075
 2961SOL    HW114203   9.869   8.055   8.626  1.6079 -1.2633  0.9346
 2961SOL    HW214204   9.866   8.206   8.621 -2.7604 -1.2752 -0.2933
 2962SOL     OW14205  11.566   8.339  11.048 -0.9966  0.0839 -0.3483
 2962SOL    HW114206  11.504   8.358  10.977 -3.1587 -1.8767  0.8607
 2962SOL    HW214207  11.582   8.245  11.040 -1.5139 -0.2372  1.8646
 2963SOL     OW14208   4.266   2.421   4.499  0.7650 -0.3532  0.1488
 2963SOL    HW114209   4.228   2.465   4.575 -0.7040  0.6570 -1.1190
 2963SOL    HW214210   4.353   2.395   4.528  1.3562  2.5540  1.2715
 2964SOL     OW14211   9.529   5.892   6.887 -0.5268 -0.0546 -0.3033
 2964SOL    HW114212   9.556   5.906   6.978 -0.4289 -0.4240 -0.2726
 2964SOL    HW214213   9.443   5.934   6.882 -0.5425 -0.0461 -0.0349
 2965SOL     OW14214   5.357   3.337   9.144  0.4094  0.2255 -0.2879
 2965SOL    HW114215   5.333   3.409   9.202 -0.2011  1.0299 -1.5021
 2965SOL    HW214216   5.283   3.328   9.084  0.6418 -1.1611 -0.4036
 2966SOL     OW14217   4.135   0.095   6.387 -0.2619  0.2549 -0.9777
 2966SOL    HW114218   4.212   0.084   6.441 -1.2514 -1.6694  0.1485
 2966SOL    HW214219   4.143   0.183   6.351  1.5978  0.7084  0.4186
 2967SOL     OW14220   6.841   3.431   9.066  0.7817 -0.4014 -0.1288
 2967SOL    HW114221   6.911   3.460   9.124  2.0873 -4.4143  0.6149
 2967SOL    HW214222   6.764   3.426   9.121  0.9978 -0.1873  0.1955
 2968SOL     OW14223   6.120   7.996   6.522  0.2198  0.3902 -0.1936
 2968SOL    HW114224   6.073   7.971   6.442  0.1547  0.2907 -0.1249
 2968SOL    HW214225   6.058   7.976   6.593  0.2657  0.5062 -0.1208
 2969SOL     OW14226   4.924   0.259  11.207 -0.4083 -0.2567  0.0643
 2969SOL    HW114227   4.910   0.333  11.148 -0.5703 -0.9615 -0.8089
 2969SOL    HW214228   5.009   0.275  11.247 -0.5215  0.4814  0.0213
 2970SOL     OW14229  10.229   3.655  11.072  0.0125 -0.3687  0.3887
 2970SOL    HW114230  10.188   3.735  11.038 -1.5184 -0.7263  1.2863
 2970SOL    HW214231  10.275   3.618  10.997  0.4163  1.1381 -0.1447
 2971SOL     OW14232  11.714   7.921   5.829 -0.3534  0.0981  0.2896
 2971SOL    HW114233  11.797   7.956   5.797 -0.5214  0.0834 -0.1651
 2971SOL    HW214234  11.665   7.898   5.750  0.0286 -1.8163  0.5739
 2972SOL     OW14235   8.565   6.952   4.012  0.2934 -0.2134 -0.4729
 2972SOL    HW114236   8.631   7.007   3.970  0.6262 -0.4630 -0.2835
 2972SOL    HW214237   8.593   6.862   3.994  1.2544 -0.3618  1.4816
 2973SOL     OW14238   2.772   2.347   9.655  0.3557  0.4203 -0.5568
 2973SOL    HW114239   2.765   2.417   9.590  0.9157  0.6147 -0.4182
 2973SOL    HW214240   2.757   2.266   9.605 -2.5107  0.7123 -0.3356
 2974SOL     OW14241   1.615   3.639   7.568 -0.3718  0.4679 -0.5897
 2974SOL    HW114242   1.630   3.718   7.620  3.0709 -0.5284  0.2017
 2974SOL    HW214243   1.535   3.657   7.519 -1.1097  3.4001  1.4174
 2975SOL     OW14244   6.365   5.396   1.442  0.0698 -0.0085  0.0980
 2975SOL    HW114245   6.455   5.428   1.443  0.3403 -0.6073 -1.7157
 2975SOL    HW214246   6.326   5.435   1.364 -0.1006 -2.6020 -1.2174
 2976SOL     OW14247   7.024   6.038  10.270  0.1218  0.4272  0.3518
 2976SOL    HW114248   6.982   5.961  10.232 -1.4664  1.1392  0.6036
 2976SOL    HW214249   6.963   6.110  10.253  0.6821  1.2779  1.7970
 2977SOL     OW14250   6.743   0.556   5.797  0.0288 -0.0989 -0.2641
 2977SOL    HW114251   6.649   0.539   5.801  0.0757 -0.4328 -0.5058
 2977SOL    HW214252   6.760   0.613   5.871 -0.3818  0.0423 -0.2740
 2978SOL     OW14253   7.754   5.108   9.244  0.2642 -0.0170 -0.3103
 2978SOL    HW114254   7.848   5.111   9.226  0.1931  0.8006 -0.5812
 2978SOL    HW214255   7.735   5.193   9.286 -0.5498  0.2894 -1.2712
 2979SOL     OW14256   2.876   0.552   4.761 -0.2291 -0.1098 -0.6456
 2979SOL    HW114257   2.877   0.457   4.766  1.0304 -0.0905 -0.0689
 2979SOL    HW214258   2.943   0.580   4.824 -0.3479  1.1380 -1.0450
 2980SOL     OW14259   6.220  11.235   6.807 -0.8768 -0.0842  0.3206
 2980SOL    HW114260   6.273  11.315   6.807  0.1666 -0.7330 -0.6790
 2980SOL    HW214261   6.131  11.264   6.825 -0.3803  1.1925  0.8092
 2981SOL     OW14262   6.050   4.463   0.233  0.3174  0.1627 -0.0702
 2981SOL    HW114263   6.037   4.382   0.183 -0.1256 -0.3881  0.9134
 2981SOL    HW214264   6.022   4.532   0.173 -1.5663 -0.5804 -0.1149
 2982SOL     OW14265   3.433   8.254   8.712 -0.3303  0.1966 -0.1678
 2982SOL    HW114266   3.339   8.258   8.694 -0.2135  0.5480 -0.7347
 2982SOL    HW214267   3.465   8.185   8.653  0.2548  2.1763 -2.3034
 2983SOL     OW14268  10.869  11.076   4.035  0.1713 -0.1336 -0.5235
 2983SOL    HW114269  10.880  11.071   3.939  1.5813  1.2306 -0.4828
 2983SOL    HW214270  10.925  11.149   4.061 -0.5462 -0.1971  1.3133
 2984SOL     OW14271   4.485   9.593   4.321 -0.8194 -0.7941 -0.4819
 2984SOL    HW114272   4.554   9.531   4.344 -0.1591 -0.3124 -1.0942
 2984SOL    HW214273   4.422   9.588   4.393 -0.6260 -1.9476 -0.3819
 2985SOL     OW14274  11.452   2.028   6.890 -0.0118 -0.3973 -0.0198
 2985SOL    HW114275  11.501   1.951   6.862 -0.3675 -1.5851  2.3669
 2985SOL    HW214276  11.371   2.025   6.839  0.2173 -1.2642 -0.3477
 2986SOL     OW14277   3.140   2.366   5.346 -0.2741  0.5561  0.7579
 2986SOL    HW114278   3.119   2.374   5.439 -0.4600  0.2495  0.7446
 2986SOL    HW214279   3.178   2.279   5.337 -2.8557 -0.5967  0.0984
 2987SOL     OW14280  11.101   4.390   8.818 -0.6569 -0.0086 -0.8725
 2987SOL    HW114281  11.166   4.398   8.888 -1.4058 -0.1855 -0.1368
 2987SOL    HW214282  11.034   4.455   8.840 -2.6406 -2.3716  0.5555
 2988SOL     OW14283   9.279   7.173   3.225  0.2977 -0.1778 -0.5541
 2988SOL    HW114284   9.273   7.083   3.194  0.0909  0.4042 -2.3355
 2988SOL    HW214285   9.363   7.205   3.192 -0.6731  0.9810 -2.1046
 2989SOL     OW14286   9.566   9.922   0.169  0.3075 -0.3971  0.3831
 2989SOL    HW114287   9.585  10.016   0.163 -0.7599 -0.1289  0.8864
 2989SOL    HW214288   9.536   9.898   0.081  2.9882 -0.8795 -0.4872
 2990SOL     OW14289   3.045   0.902  10.507  0.5812  0.9764  0.0552
 2990SOL    HW114290   3.131   0.909  10.549  1.3412  0.4546 -1.3142
 2990SOL    HW214291   3.020   0.811  10.518  0.2377  1.1061  0.3690
 2991SOL     OW14292   6.145   3.263   4.946 -0.3105 -0.0836  0.0411
 2991SOL    HW114293   6.197   3.326   4.996 -0.0075 -0.4926  0.2511
 2991SOL    HW214294   6.058   3.267   4.984 -0.4154  0.5493 -0.2560
 2992SOL     OW14295   6.044   3.433   5.734  0.2076 -0.2891 -0.4752
 2992SOL    HW114296   6.093   3.407   5.812  0.6864  2.1253  0.0888
 2992SOL    HW214297   5.991   3.356   5.713  1.8797 -1.8601  0.7584
 2993SOL     OW14298   7.184   7.200   3.158 -0.1988 -0.2826 -0.2408
 2993SOL    HW114299   7.249   7.143   3.199 -0.3545 -0.6126 -0.4459
 2993SOL    HW214300   7.225   7.286   3.156  0.0592 -0.3977  0.0304
 2994SOL     OW14301   4.556   8.788   6.416 -0.0773  0.2835  0.4920
 2994SOL    HW114302   4.606   8.748   6.345  0.9412 -0.6933  1.7210
 2994SOL    HW214303   4.546   8.880   6.390  0.9446  0.1204 -0.5431
 2995SOL     OW14304   5.467   8.762   4.996  0.4552 -0.4225 -0.4569
 2995SOL    HW114305   5.437   8.853   4.994 -4.6766 -1.8214 -0.0017
 2995SOL    HW214306   5.457   8.731   4.906 -2.0593 -1.5373  0.1258
 2996SOL     OW14307   3.603   5.523   0.166 -0.4054  0.4836  0.1484
 2996SOL    HW114308   3.640   5.435   0.173 -0.5568  0.4500  0.5652
 2996SOL    HW214309   3.654   5.565   0.097  0.2704  0.3718  0.5686
 2997SOL     OW14310   8.765   4.322   0.734 -0.0475 -0.8292  0.7294
 2997SOL    HW114311   8.845   4.359   0.771  0.1013 -0.7961  0.3781
 2997SOL    HW214312   8.792   4.284   0.650 -0.5223 -0.2060  0.2822
 2998SOL     OW14313   4.848   9.612  11.267 -0.2685  0.7156 -0.2839
 2998SOL    HW114314   4.817   9.618  11.177 -0.3373 -1.8859 -0.5141
 2998SOL    HW214315   4.943   9.606  11.259 -0.2069  1.3664 -0.0984
 2999SOL     OW14316   2.815   4.136   6.346 -0.0176  0.0228 -0.0268
 2999SOL    HW114317   2.805   4.043   6.368 -0.9680  0.2488  0.5312
 2999SOL    HW214318   2.907   4.154   6.365 -0.2877 -0.3205  1.8176
 3000SOL     OW14319   1.476   7.147   7.044 -0.2962 -0.0446 -0.0697
 3000SOL    HW114320   1.558   7.105   7.070 -0.5392 -1.1596 -1.0355
 3000SOL    HW214321   1.474   7.229   7.094  1.3425 -0.0528  0.0466
 3001SOL     OW14322   7.006  10.540   1.420  0.8004 -0.0580 -0.2141
 3001SOL    HW114323   6.938  10.574   1.362  0.9136 -0.0742 -0.3561
 3001SOL    HW214324   7.088  10.559   1.376  0.8671 -0.5137 -0.2983
 3002SOL     OW14325   2.449   5.796   5.105 -0.0288 -0.4488 -0.4438
 3002SOL    HW114326   2.433   5.704   5.081  1.7263 -0.6293 -1.0647
 3002SOL    HW214327   2.381   5.845   5.060 -0.1786 -1.3396 -1.2091
 3003SOL     OW14328   8.701   1.730   2.324 -0.0240 -0.2157 -0.3605
 3003SOL    HW114329   8.762   1.763   2.390 -0.9303  0.8078 -0.0159
 3003SOL    HW214330   8.627   1.696   2.374 -1.5509  2.2065 -0.8333
 3004SOL     OW14331   7.640  11.245   5.276  0.7407 -0.6196 -0.3819
 3004SOL    HW114332   7.596  11.284   5.201  0.8916  0.1241 -0.0971
 3004SOL    HW214333   7.633  11.151   5.262 -0.7512 -0.5187 -0.4479
 3005SOL     OW14334   1.678   8.821   9.898  0.2931  0.2075 -0.4183
 3005SOL    HW114335   1.655   8.799   9.808  1.0723  0.8324 -0.7828
 3005SOL    HW214336   1.599   8.801   9.949  0.0374 -0.6769 -1.1464
 3006SOL     OW14337   1.877   1.052   2.735 -0.5975 -0.2056  0.0665
 3006SOL    HW114338   1.894   1.074   2.826  0.0223 -1.0719  0.1750
 3006SOL    HW214339   1.783   1.062   2.724 -0.6763 -0.1256  0.8125
 3007SOL     OW14340   0.959   7.657   3.365 -0.1026 -0.0188  0.7264
 3007SOL    HW114341   0.988   7.613   3.444  1.2917 -0.0444  0.2219
 3007SOL    HW214342   1.013   7.736   3.360  0.5459 -0.5342 -0.7264
 3008SOL     OW14343   2.956  10.094   4.685  0.7331 -0.0244  0.0966
 3008SOL    HW114344   2.866  10.092   4.652  1.8651 -1.0574 -3.3597
 3008SOL    HW214345   2.953  10.041   4.765 -1.5980 -0.6166 -0.2968
 3009SOL     OW14346   7.607   1.017   0.277 -0.7562  0.9260  0.1694
 3009SOL    HW114347   7.599   1.106   0.309 -1.1639 -0.0283  3.0448
 3009SOL    HW214348   7.545   0.967   0.331  0.4079 -1.2992 -0.4412
 3010SOL     OW14349   1.531   8.486   0.304 -0.1218  0.2993  0.1183
 3010SOL    HW114350   1.564   8.403   0.337 -1.3918  0.1290  1.0117
 3010SOL    HW214351   1.502   8.466   0.214  3.9614  0.9218 -1.5667
 3011SOL     OW14352   0.567   6.424   7.011 -0.4408 -0.1679 -0.0105
 3011SOL    HW114353   0.478   6.445   7.040 -0.6871 -1.4033  0.1874
 3011SOL    HW214354   0.565   6.330   6.996  0.7116 -0.1279 -0.4674
 3012SOL     OW14355   1.044   6.479   2.141  0.0584  0.2649  0.0653
 3012SOL    HW114356   1.067   6.431   2.061  0.8472  1.5616 -0.5219
 3012SOL    HW214357   1.101   6.557   2.139 -0.1250  0.4690  1.7409
 3013SOL     OW14358   9.681  11.385   7.653 -0.1232 -0.5957 -0.3396
 3013SOL    HW114359   9.734  11.458   7.685 -0.0985 -0.5893 -0.3953
 3013SOL    HW214360   9.739  11.309   7.661  0.3324 -0.4033 -1.5449
 3014SOL     OW14361   2.049  11.279  11.716  0.0117  0.0256  0.1828
 3014SOL    HW114362   2.018  11.288  11.626  0.0570  0.0970  0.1743
 3014SOL    HW214363   1.990  11.215  11.755 -0.9090  1.0731  0.5298
 3015SOL     OW14364   3.775   5.370  11.430 -0.2279 -0.2680  0.0531
 3015SOL    HW114365   3.839   5.300  11.444 -1.0778 -0.7698  1.6759
 3015SOL    HW214366   3.731   5.379  11.514 -2.5921 -0.2284 -1.1082
 3016SOL     OW14367   6.693  10.060   4.299 -0.4419  0.0138  0.3942
 3016SOL    HW114368   6.664  10.085   4.212  0.3028 -2.2163 -0.5669
 3016SOL    HW214369   6.782  10.094   4.306  0.1209 -1.2197 -0.4235
 3017SOL     OW14370   3.144   1.476   1.314  0.1808 -0.1620 -0.6112
 3017SOL    HW114371   3.157   1.551   1.256 -0.6415  0.0572 -0.5239
 3017SOL    HW214372   3.052   1.451   1.302 -0.4668  0.8353  1.6787
 3018SOL     OW14373   6.770   0.795   2.395 -0.7392 -0.0187  0.4479
 3018SOL    HW114374   6.710   0.791   2.321 -1.2423  2.0348  0.6694
 3018SOL    HW214375   6.739   0.870   2.447  0.1236 -0.8515  2.2668
 3019SOL     OW14376   7.891   8.091  10.030 -0.3252  0.5279  0.2035
 3019SOL    HW114377   7.856   8.005  10.055  2.2022 -0.7988 -0.5631
 3019SOL    HW214378   7.852   8.109   9.944  2.4494 -2.1009 -1.8310
 3020SOL     OW14379   8.134  11.055   8.954 -0.1094 -0.0105  0.0369
 3020SOL    HW114380   8.166  11.022   9.038  0.8206 -1.2203 -0.7443
 3020SOL    HW214381   8.160  11.147   8.952 -2.7193  0.9141  2.2644
 3021SOL     OW14382   2.628   4.026   1.241  0.0572  0.8540 -0.2175
 3021SOL    HW114383   2.633   4.065   1.328 -0.6701  1.8128 -0.5910
 3021SOL    HW214384   2.713   4.043   1.201 -0.1334  1.7677 -0.2493
 3022SOL     OW14385   9.366   7.282   5.954 -0.4886 -0.4755  0.1828
 3022SOL    HW114386   9.410   7.355   5.997 -0.0896  0.6889 -2.0396
 3022SOL    HW214387   9.276   7.285   5.987 -0.4650  1.0121  0.1866
 3023SOL     OW14388   5.945   4.729   4.537 -0.2110 -0.1890 -0.1883
 3023SOL    HW114389   5.937   4.768   4.450 -0.8747 -1.3756 -0.6804
 3023SOL    HW214390   5.862   4.683   4.551 -0.2881  0.3381  1.2672
 3024SOL     OW14391   5.871   5.900   7.466  0.3192 -0.6790 -0.4054
 3024SOL    HW114392   5.833   5.819   7.433  0.2584 -1.7615  2.1722
 3024SOL    HW214393   5.892   5.883   7.557  0.3731  2.2043  0.2296
 3025SOL     OW14394   0.064   6.824   2.708 -0.1226  0.3980 -0.0754
 3025SOL    HW114395   0.141   6.795   2.660  0.3172  0.6540  0.4584
 3025SOL    HW214396   0.011   6.745   2.720 -0.0946  0.2778 -0.7101
 3026SOL     OW14397   4.832   2.874  10.219  0.4908  0.1185 -0.5189
 3026SOL    HW114398   4.743   2.869  10.252  0.9502  1.4886  1.0526
 3026SOL    HW214399   4.870   2.789  10.242  0.0711  0.1521  0.3671
 3027SOL     OW14400   4.117   8.783  11.075 -0.2885  0.0965 -0.9108
 3027SOL    HW114401   4.037   8.733  11.090  0.4365 -0.7725  0.2778
 3027SOL    HW214402   4.088   8.874  11.068 -1.3879 -0.2216 -0.6750
 3028SOL     OW14403   6.529   9.154   4.383 -0.4001  0.3797 -0.4217
 3028SOL    HW114404   6.564   9.110   4.305 -0.7295  2.8706 -2.0763
 3028SOL    HW214405   6.449   9.105   4.404  0.4792 -1.2508 -0.6768
 3029SOL     OW14406   5.168   6.761   2.728  0.7032 -0.1404  0.2264
 3029SOL    HW114407   5.206   6.793   2.810  0.1719 -0.8293  0.7529
 3029SOL    HW214408   5.178   6.666   2.733 -1.9098 -0.4505  0.8353
 3030SOL     OW14409   3.280   5.119   8.191 -0.1601  0.7200  0.6507
 3030SOL    HW114410   3.286   5.055   8.262 -0.3016  1.6714  1.5557
 3030SOL    HW214411   3.187   5.124   8.171  0.0136 -0.6740 -0.7098
 3031SOL     OW14412   2.712   8.287   1.053  0.4480  0.4691 -0.0198
 3031SOL    HW114413   2.662   8.211   1.083 -0.7056  0.7683 -1.0831
 3031SOL    HW214414   2.732   8.268   0.962 -0.0418  1.5072 -0.3622
 3032SOL     OW14415   9.722   4.780   3.952  0.0422  0.3383  0.7188
 3032SOL    HW114416   9.710   4.832   3.873 -0.3538 -0.9215 -0.0697
 3032SOL    HW214417   9.695   4.838   4.023 -3.1839  0.3304 -0.3266
 3033SOL     OW14418   6.938   6.420   6.396  0.2741 -0.0039  0.0152
 3033SOL    HW114419   6.882   6.391   6.324 -2.0402  0.2482  1.6219
 3033SOL    HW214420   7.022   6.440   6.354 -1.0924  0.5352 -2.6787
 3034SOL     OW14421   2.297   2.400   4.603 -0.2321 -0.2819 -0.5380
 3034SOL    HW114422   2.204   2.400   4.624 -0.5715  0.6450 -1.8941
 3034SOL    HW214423   2.340   2.373   4.684 -1.5134  1.7443  0.9344
 3035SOL     OW14424  11.596   7.569   5.472  0.2229 -0.2141  0.6554
 3035SOL    HW114425  11.557   7.644   5.427  1.3944 -0.5264 -0.9756
 3035SOL    HW214426  11.639   7.607   5.549 -2.0306  0.2962  1.7893
 3036SOL     OW14427   9.500   6.724   4.339 -0.1326 -0.2683  0.2665
 3036SOL    HW114428   9.483   6.649   4.396 -0.6755 -0.0091  0.4577
 3036SOL    HW214429   9.415   6.742   4.298 -0.1731  0.6327  0.7147
 3037SOL     OW14430   7.762   9.478   5.649 -0.4851  0.6946  0.5392
 3037SOL    HW114431   7.698   9.499   5.580 -1.0024 -1.6290  0.2156
 3037SOL    HW214432   7.713   9.489   5.730 -0.9811  0.0464  0.3433
 3038SOL     OW14433   4.429   4.365   2.648  0.2671  0.2823  0.1082
 3038SOL    HW114434   4.475   4.427   2.705  1.2182  0.2071 -0.5651
 3038SOL    HW214435   4.443   4.399   2.560 -0.7611  0.1092 -0.1377
 3039SOL     OW14436   8.477   1.559   4.053  0.3645  0.6101 -1.2850
 3039SOL    HW114437   8.412   1.502   4.014 -0.8590 -0.6523  2.1655
 3039SOL    HW214438   8.556   1.505   4.060 -0.8922 -1.1109  2.3008
 3040SOL     OW14439   8.587   6.034   9.337  0.0319 -0.2305 -0.4533
 3040SOL    HW114440   8.634   5.963   9.293  0.9354 -0.8382  1.3918
 3040SOL    HW214441   8.647   6.108   9.334 -0.4245  0.1240 -1.3096
 3041SOL     OW14442   2.554   0.578   7.839 -0.0732 -0.0458  0.1627
 3041SOL    HW114443   2.637   0.615   7.870  1.2766 -2.4458 -0.3034
 3041SOL    HW214444   2.561   0.582   7.744  0.2004 -1.5685  0.0965
 3042SOL     OW14445   0.134   1.228   0.843  0.5540 -0.0216 -0.2688
 3042SOL    HW114446   0.178   1.245   0.927  1.9696 -0.7030 -0.8428
 3042SOL    HW214447   0.044   1.208   0.868  0.6057  1.1206  0.9774
 3043SOL     OW14448   4.958   8.661   3.935  0.0950  0.0708  0.3769
 3043SOL    HW114449   4.948   8.737   3.992 -1.7793  0.4281 -0.3742
 3043SOL    HW214450   4.922   8.588   3.985 -1.1998  0.3161 -0.1632
 3044SOL     OW14451   2.736   9.760  10.216  0.5358  0.2090  0.1718
 3044SOL    HW114452   2.715   9.825  10.283  1.0109  1.2511 -0.6520
 3044SOL    HW214453   2.696   9.794  10.136  3.8335  1.4846 -1.1355
 3045SOL     OW14454   6.340  11.581   0.691  0.6736 -0.1498 -0.0127
 3045SOL    HW114455   6.285  11.514   0.733  1.8100  0.0585  1.8982
 3045SOL    HW214456   6.349  11.650   0.757  1.0667  1.0477 -1.2739
 3046SOL     OW14457   0.877   1.436   7.722 -0.1481 -0.0854  0.0561
 3046SOL    HW114458   0.866   1.396   7.636  1.2954  0.1820 -0.2819
 3046SOL    HW214459   0.831   1.378   7.782  0.1466 -1.1194 -0.6979
 3047SOL     OW14460   7.014  11.820   6.380  0.5431 -0.4520  0.6220
 3047SOL    HW114461   7.055  11.906   6.387 -0.1228  0.0414 -0.9394
 3047SOL    HW214462   6.969  11.823   6.295  0.3201 -2.2629  0.6518
 3048SOL     OW14463   3.018   3.086   1.873 -0.3202 -0.3072 -0.4324
 3048SOL    HW114464   2.969   3.027   1.930 -0.9922 -1.1458 -1.8187
 3048SOL    HW214465   2.979   3.073   1.786  1.5661 -0.0890 -1.3522
 3049SOL     OW14466   3.244   7.537   5.163  0.4932 -0.4144 -0.4138
 3049SOL    HW114467   3.219   7.460   5.112 -0.2700  0.1869 -0.9731
 3049SOL    HW214468   3.177   7.603   5.142 -0.4970 -0.4607  2.1720
 3050SOL     OW14469  10.278   6.306   0.009  0.5267  0.4555  0.0587
 3050SOL    HW114470  10.220   6.375   0.042  0.2563 -0.6774  2.1308
 3050SOL    HW214471  10.236   6.276  -0.072 -1.3313  0.2869  1.0343
 3051SOL     OW14472   8.612   3.677   7.221  0.1017  0.0622 -0.0569
 3051SOL    HW114473   8.521   3.657   7.244 -1.0376  2.4595 -2.0792
 3051SOL    HW214474   8.637   3.607   7.160 -1.1783  0.5656 -1.2016
 3052SOL     OW14475   8.018   9.230   4.420  0.0521  0.0195 -0.3731
 3052SOL    HW114476   7.944   9.200   4.472  0.5638 -0.9556 -0.1959
 3052SOL    HW214477   8.069   9.151   4.402  2.1697  0.9244  1.2379
 3053SOL     OW14478  11.115   0.862  11.705  0.2995  0.0813  0.5020
 3053SOL    HW114479  11.053   0.796  11.673  1.1473 -0.3180 -0.3761
 3053SOL    HW214480  11.201   0.825  11.685  0.7948  1.7163 -0.5511
 3054SOL     OW14481   7.333   9.069   2.330 -0.1955  0.2635 -0.0377
 3054SOL    HW114482   7.329   9.131   2.403  1.4936  0.5767 -0.1597
 3054SOL    HW214483   7.263   9.006   2.347 -1.1645  1.5088  0.7332
 3055SOL     OW14484   2.446   6.087   5.696  0.2309 -0.1766  0.3376
 3055SOL    HW114485   2.373   6.033   5.727  0.2076  0.0201  0.6275
 3055SOL    HW214486   2.405   6.151   5.637  0.3692 -1.0156 -0.7128
 3056SOL     OW14487   1.480  10.046   9.232  0.1500 -0.1018 -0.3755
 3056SOL    HW114488   1.560  10.083   9.194  1.0159  0.1167  1.5142
 3056SOL    HW214489   1.511   9.996   9.308 -1.3290 -1.8623 -0.8483
 3057SOL     OW14490  11.077   2.124   8.568 -0.3686 -0.4052  0.3398
 3057SOL    HW114491  11.136   2.097   8.638  0.2728  1.8915  0.7827
 3057SOL    HW214492  11.134   2.139   8.493 -0.6126  0.0420  0.2354
 3058SOL     OW14493   6.651   1.102  11.237 -0.1865  0.0790 -0.1693
 3058SOL    HW114494   6.631   1.168  11.171 -1.2808  0.1601  0.2284
 3058SOL    HW214495   6.590   1.031  11.219 -0.6151  0.1701  0.8364
 3059SOL     OW14496   2.515   8.637   4.476 -0.1530 -0.0120 -0.1280
 3059SOL    HW114497   2.524   8.695   4.551 -0.1969  0.2463 -0.3204
 3059SOL    HW214498   2.445   8.577   4.500 -1.8684  1.5831 -0.9133
 3060SOL     OW14499   5.413  11.562   9.612  0.3840 -0.1280 -0.3146
 3060SOL    HW114500   5.395  11.559   9.518  0.3432  1.3173 -0.3753
 3060SOL    HW214501   5.385  11.476   9.645  0.6070 -0.7394 -1.6456
 3061SOL     OW14502   2.907   1.034   2.821  0.3032 -0.3472  0.5652
 3061SOL    HW114503   2.825   1.010   2.864 -0.6362 -0.3914 -1.1601
 3061SOL    HW214504   2.920   1.126   2.844 -1.7841  0.5301 -1.3652
 3062SOL     OW14505   2.426   7.574   1.151  0.3134  0.2476 -0.7669
 3062SOL    HW114506   2.438   7.629   1.073  0.0038  1.5715  0.0901
 3062SOL    HW214507   2.469   7.622   1.221 -0.8104 -0.1391  0.2059
 3063SOL     OW14508   8.335   2.861   1.678 -0.3755  0.5364 -0.1021
 3063SOL    HW114509   8.333   2.941   1.626  1.1485 -0.5224 -1.9230
 3063SOL    HW214510   8.402   2.876   1.745 -2.5620  2.0237  1.8902
 3064SOL     OW14511   0.021   9.560   0.784  0.3253  0.0548  0.2792
 3064SOL    HW114512  -0.031   9.618   0.729 -0.8349 -2.2382 -1.2015
 3064SOL    HW214513   0.104   9.549   0.737 -0.6353 -1.8405 -1.1379
 3065SOL     OW14514   5.071   2.341  10.703  0.1662 -0.3652 -0.1860
 3065SOL    HW114515   5.018   2.380  10.773  0.9750 -1.6415  1.2126
 3065SOL    HW214516   5.144   2.402  10.692  0.3711 -0.4599  0.5651
 3066SOL     OW14517   8.403   4.865   7.251  0.1070 -0.1513  0.2422
 3066SOL    HW114518   8.430   4.876   7.342  1.0278  0.0293 -0.0429
 3066SOL    HW214519   8.327   4.808   7.255  0.4424 -0.5463  1.0929
 3067SOL     OW14520   2.946   0.986   9.350  0.0057  0.2301  0.3617
 3067SOL    HW114521   2.886   0.930   9.301 -0.8097  1.2437  0.1768
 3067SOL    HW214522   3.033   0.950   9.331 -0.5950 -2.3075  1.9612
 3068SOL     OW14523   3.877   4.438   4.884  0.0744 -0.5100  0.5814
 3068SOL    HW114524   3.937   4.381   4.836  0.6229  0.7404 -0.2728
 3068SOL    HW214525   3.808   4.459   4.820  0.0364  0.0029  0.7865
 3069SOL     OW14526   2.633   3.555   6.004  0.4774  0.2387 -0.0791
 3069SOL    HW114527   2.701   3.495   5.975  0.8461 -0.2200  1.6604
 3069SOL    HW214528   2.662   3.585   6.090 -0.1051  2.2843 -0.5232
 3070SOL     OW14529  11.126   5.378   8.194  0.0618  0.1287 -0.5734
 3070SOL    HW114530  11.197   5.441   8.210 -0.3128  0.2829  0.5703
 3070SOL    HW214531  11.050   5.416   8.238 -0.5161 -0.4605 -1.0475
 3071SOL     OW14532   3.461   5.876   4.461 -0.3152 -0.1764  0.2494
 3071SOL    HW114533   3.552   5.894   4.485  0.2046 -0.0585 -1.6930
 3071SOL    HW214534   3.453   5.781   4.469  0.3180 -0.3170 -0.6229
 3072SOL     OW14535   7.781   4.322   6.269 -0.7052 -0.2197  1.1225
 3072SOL    HW114536   7.854   4.318   6.330 -0.0631 -0.3662  0.3626
 3072SOL    HW214537   7.721   4.387   6.306  0.8900  1.6323  0.5818
 3073SOL     OW14538   3.089  11.574   1.135  0.2440  0.3560 -0.5198
 3073SOL    HW114539   3.078  11.584   1.040  1.0071 -2.5304 -1.0251
 3073SOL    HW214540   3.177  11.538   1.145  0.2070  0.6717  1.3098
 3074SOL     OW14541   7.056   7.487   8.970 -0.0421  0.3421 -0.2545
 3074SOL    HW114542   7.014   7.501   9.055  1.7175  0.6496  0.6260
 3074SOL    HW214543   6.988   7.505   8.906 -1.3478  0.3741  1.0955
 3075SOL     OW14544   2.123   3.950   8.974 -0.4638 -0.3479  1.0094
 3075SOL    HW114545   2.098   3.869   8.930  0.0782 -2.0667  3.6257
 3075SOL    HW214546   2.042   4.001   8.979 -0.6905 -0.3892 -1.1741
 3076SOL     OW14547   6.331   5.060   0.772 -0.1476 -0.1554 -0.2011
 3076SOL    HW114548   6.272   5.042   0.698 -0.2905  0.1282 -0.1606
 3076SOL    HW214549   6.299   5.143   0.808  0.0433 -0.1925  0.0585
 3077SOL     OW14550  11.328   5.037   5.175  0.0380  0.2213 -0.2354
 3077SOL    HW114551  11.245   4.996   5.198  0.3362  0.1240  0.7300
 3077SOL    HW214552  11.330   5.037   5.080  0.1602 -2.2899 -0.2891
 3078SOL     OW14553   1.415   0.992   3.076 -0.4260  0.6793  0.3006
 3078SOL    HW114554   1.384   1.064   3.021  0.8678  1.6484  0.8035
 3078SOL    HW214555   1.412   1.027   3.165  1.3023  0.5359  0.4445
 3079SOL     OW14556   7.757   9.377   4.987 -0.1195  0.1141  0.6997
 3079SOL    HW114557   7.666   9.368   5.015 -0.4174 -3.0667 -0.8216
 3079SOL    HW214558   7.767   9.314   4.916  3.1287  0.8032  0.3733
 3080SOL     OW14559   9.047   7.760   4.001  0.4361  0.5577  0.4283
 3080SOL    HW114560   9.099   7.680   4.000 -0.1537  0.1144  2.1927
 3080SOL    HW214561   9.106   7.827   3.964  0.5961 -0.8257 -1.9971
 3081SOL     OW14562   9.965   2.468   3.174  0.3399 -0.5026  0.4293
 3081SOL    HW114563   9.994   2.560   3.169 -1.3244  0.0258 -0.3052
 3081SOL    HW214564  10.012   2.425   3.103 -0.8649  0.4270 -1.0050
 3082SOL     OW14565   2.257   2.273   9.325  0.9102  0.0264  0.6571
 3082SOL    HW114566   2.320   2.264   9.253  0.3048  0.3277  0.0751
 3082SOL    HW214567   2.182   2.318   9.286  0.9868  1.1599  1.7346
 3083SOL     OW14568   0.571   1.938   7.947  0.0451 -0.6651 -0.0707
 3083SOL    HW114569   0.559   1.887   8.027 -0.1775  0.1815  0.4457
 3083SOL    HW214570   0.630   2.009   7.972 -1.2046  0.4720 -0.2554
 3084SOL     OW14571   1.997   7.283   1.085 -0.2218  0.2271  0.5072
 3084SOL    HW114572   2.082   7.242   1.101 -0.3867 -0.4276 -0.2074
 3084SOL    HW214573   1.966   7.243   1.004 -1.3899  0.1660  0.9576
 3085SOL     OW14574   2.365  10.997  11.825  0.5685  0.4961 -0.1070
 3085SOL    HW114575   2.372  10.910  11.864 -0.0760  0.4934  0.0069
 3085SOL    HW214576   2.282  10.996  11.778  0.2517  1.2476  0.4063
 3086SOL     OW14577   3.214   5.076   0.070  0.3074  0.4742  0.8677
 3086SOL    HW114578   3.231   4.985   0.093 -0.7760 -0.3660 -1.2706
 3086SOL    HW214579   3.130   5.096   0.112 -0.5769 -0.3177 -0.4325
 3087SOL     OW14580   8.018  10.626   7.716  0.1251  0.1695 -0.4864
 3087SOL    HW114581   8.056  10.695   7.770  1.6757 -0.1006 -1.1661
 3087SOL    HW214582   7.926  10.649   7.707  0.3955  1.5685  0.1699
 3088SOL     OW14583   6.461   7.695   3.847  0.8642  0.5350 -0.1146
 3088SOL    HW114584   6.428   7.618   3.894  1.0171 -0.4846 -1.6285
 3088SOL    HW214585   6.535   7.663   3.796 -0.8017  0.9562 -3.0490
 3089SOL     OW14586   0.334   1.042   2.314  0.3421  0.2618 -0.2840
 3089SOL    HW114587   0.317   1.082   2.399 -1.4499 -2.1447  0.6054
 3089SOL    HW214588   0.250   1.044   2.269  0.0529 -2.6123 -0.0607
 3090SOL     OW14589   4.142   5.087   1.618 -0.1125 -0.3502  0.1933
 3090SOL    HW114590   4.203   5.013   1.612  0.8004  0.1488  2.2817
 3090SOL    HW214591   4.128   5.114   1.527  3.4281  0.0055 -0.4193
 3091SOL     OW14592   5.777   7.233  10.258 -0.2651  0.2495 -0.4994
 3091SOL    HW114593   5.688   7.255  10.231  0.1930  2.6081 -0.3641
 3091SOL    HW214594   5.770   7.214  10.351 -0.7190 -0.2995 -0.6400
 3092SOL     OW14595   1.830   2.520   9.327 -0.6893  0.0878 -0.4750
 3092SOL    HW114596   1.788   2.438   9.304 -0.1250 -0.0813 -0.9384
 3092SOL    HW214597   1.804   2.537   9.417 -1.0918 -0.4182 -0.4967
 3093SOL     OW14598  10.438   1.320  11.794  0.1640  0.5045 -0.1107
 3093SOL    HW114599  10.459   1.264  11.868 -0.1521 -0.0475 -0.4280
 3093SOL    HW214600  10.342   1.319  11.789  0.1882  0.4113 -0.6204
 3094SOL     OW14601  11.321   7.969   1.785 -0.1007 -0.3472  0.0474
 3094SOL    HW114602  11.341   7.986   1.693 -1.5044 -4.6803 -1.2946
 3094SOL    HW214603  11.387   7.904   1.812  0.4070  0.9806  2.2346
 3095SOL     OW14604   6.838   4.642   8.442  0.2815  0.5188  0.0274
 3095SOL    HW114605   6.827   4.547   8.454 -1.7690  0.1094 -3.8463
 3095SOL    HW214606   6.929   4.651   8.412  0.4476 -0.1867  0.2824
 3096SOL     OW14607   3.661   8.754   8.208 -0.2233 -0.3282  0.6633
 3096SOL    HW114608   3.731   8.726   8.149  0.4715  0.9886  0.8216
 3096SOL    HW214609   3.631   8.838   8.172 -0.3711  0.0757  1.6943
 3097SOL     OW14610   0.604  10.018   0.441 -0.5773 -0.1210 -0.1105
 3097SOL    HW114611   0.631   9.949   0.502  1.0320  0.5948  0.0321
 3097SOL    HW214612   0.680  10.031   0.384 -1.4544  0.3941 -1.2096
 3098SOL     OW14613  10.244   3.815   8.458 -0.7300 -0.2858  0.1664
 3098SOL    HW114614  10.198   3.800   8.375 -1.3494 -0.5956  0.5526
 3098SOL    HW214615  10.216   3.902   8.485 -0.8296 -0.3401  0.2383
 3099SOL     OW14616   9.558   9.552   7.956  0.2917  0.4073 -0.3750
 3099SOL    HW114617   9.558   9.647   7.967  1.0741  0.7508 -2.6842
 3099SOL    HW214618   9.476   9.523   7.995  1.6358  1.4578  3.8212
 3100SOL     OW14619   3.099   4.719   7.767  0.4224  0.2545 -0.2417
 3100SOL    HW114620   3.145   4.768   7.835 -0.3558  0.0569  0.4283
 3100SOL    HW214621   3.111   4.627   7.791 -0.0114  0.1910 -0.2650
 3101SOL     OW14622   3.736   0.242  10.690  0.2356 -0.2679  0.0160
 3101SOL    HW114623   3.641   0.256  10.698  0.4594  0.9749  0.8388
 3101SOL    HW214624   3.761   0.298  10.616  0.2608 -1.0334 -0.5678
 3102SOL     OW14625   3.678   9.410   7.521 -0.2958 -0.7053 -0.1805
 3102SOL    HW114626   3.752   9.382   7.468  1.7279  0.6875  1.7143
 3102SOL    HW214627   3.682   9.506   7.520 -2.9232 -0.5143 -1.0586
 3103SOL     OW14628   6.564   6.222   7.244  0.2420  0.2514 -0.1087
 3103SOL    HW114629   6.486   6.276   7.258 -0.0419  0.4199 -2.0831
 3103SOL    HW214630   6.569   6.167   7.323 -3.1392 -1.3244 -0.7952
 3104SOL     OW14631   1.384   6.933   2.926  0.0398 -0.6737  0.1532
 3104SOL    HW114632   1.330   6.856   2.942  0.0500 -0.6059  0.5169
 3104SOL    HW214633   1.386   6.941   2.830 -0.5314 -0.7263  0.1314
 3105SOL     OW14634   6.776   4.423   8.996  0.4844 -0.0114 -0.2126
 3105SOL    HW114635   6.728   4.370   8.932  0.8919 -0.8463  0.1628
 3105SOL    HW214636   6.737   4.399   9.080  1.0264 -0.1130  0.0128
 3106SOL     OW14637   0.912  11.195   9.892  0.2393 -0.3758  0.1220
 3106SOL    HW114638   0.986  11.214   9.950  1.6839 -0.7814 -1.4836
 3106SOL    HW214639   0.948  11.131   9.829 -0.9044  0.8305 -1.8512
 3107SOL     OW14640   6.786   3.286  11.098 -0.3141  0.1951 -0.0344
 3107SOL    HW114641   6.711   3.227  11.101  0.0312 -0.2825 -0.5042
 3107SOL    HW214642   6.797   3.306  11.005 -1.1661  1.9857  0.2090
 3108SOL     OW14643   6.573   9.837   4.061 -0.8465 -0.0025 -0.4842
 3108SOL    HW114644   6.484   9.833   4.098 -0.3139  1.4717  1.0512
 3108SOL    HW214645   6.587   9.749   4.025 -1.8759 -1.2106  1.8029
 3109SOL     OW14646   7.868   9.321   3.101 -0.5430 -0.0654 -0.2373
 3109SOL    HW114647   7.886   9.367   3.019 -0.0799  1.8034  0.8451
 3109SOL    HW214648   7.780   9.350   3.126 -0.1095  0.5295  0.6348
 3110SOL     OW14649  10.815   2.102   0.277 -0.5258 -0.1346 -0.0150
 3110SOL    HW114650  10.795   2.154   0.355 -1.7984 -1.1327  0.3567
 3110SOL    HW214651  10.896   2.139   0.243 -0.9730  1.5590  0.6913
 3111SOL     OW14652  10.502  10.859   0.146  0.8461  0.0439  0.5540
 3111SOL    HW114653  10.491  10.885   0.055  1.2138 -0.7348  0.2802
 3111SOL    HW214654  10.596  10.841   0.156  0.5916 -1.4182  0.6406
 3112SOL     OW14655   8.210   1.765   2.595 -0.1893 -0.5144  0.2411
 3112SOL    HW114656   8.138   1.818   2.629 -0.4221 -0.0540 -0.9182
 3112SOL    HW214657   8.178   1.675   2.598 -0.1126 -0.5211  1.4180
 3113SOL     OW14658   4.034   5.806   6.689  0.1370  0.8660 -0.1716
 3113SOL    HW114659   4.058   5.849   6.607  1.1245 -0.4432 -0.5924
 3113SOL    HW214660   4.114   5.809   6.742  0.4272 -1.0111 -0.4645
 3114SOL     OW14661   1.227   8.028   5.896 -0.2183  0.0152  0.6118
 3114SOL    HW114662   1.147   8.070   5.929  1.2133  3.9657 -0.4100
 3114SOL    HW214663   1.297   8.062   5.952  1.1809 -0.3167 -0.8616
 3115SOL     OW14664   7.037   0.174   9.055  0.3551  0.3096 -0.9945
 3115SOL    HW114665   7.061   0.191   9.146  2.4973 -0.7388 -1.2738
 3115SOL    HW214666   7.041   0.259   9.012  0.9819  0.5721 -0.4299
 3116SOL     OW14667   6.014   4.249   1.029 -0.4447  0.4311  1.1247
 3116SOL    HW114668   6.043   4.304   0.956  0.1282  0.4917  1.3940
 3116SOL    HW214669   6.031   4.302   1.107  0.5970 -0.3188  1.4253
 3117SOL     OW14670   0.557   5.903   5.799 -0.1969  0.4665  0.3639
 3117SOL    HW114671   0.542   5.947   5.882  1.5157  0.4927  0.6925
 3117SOL    HW214672   0.648   5.921   5.778 -0.2007 -0.7165 -0.8195
 3118SOL     OW14673   9.581   0.570   2.443  0.1325  0.6583 -0.0683
 3118SOL    HW114674   9.506   0.629   2.448 -0.1864  0.1688  1.2329
 3118SOL    HW214675   9.604   0.569   2.350 -1.1671  1.1822 -0.4212
 3119SOL     OW14676   4.201   9.531   4.160  0.1432  0.2781 -0.3255
 3119SOL    HW114677   4.232   9.619   4.183  1.4407 -0.1633 -0.3375
 3119SOL    HW214678   4.106   9.535   4.173  0.1210  1.8096 -0.7496
 3120SOL     OW14679   9.594   3.929   9.586 -0.5860  0.6918 -0.5106
 3120SOL    HW114680   9.551   3.881   9.657 -1.9120  2.4114 -0.0791
 3120SOL    HW214681   9.589   3.870   9.511 -4.5766  1.0383 -0.7468
 3121SOL     OW14682  10.121   9.646   2.752 -0.8360 -0.0310 -0.6046
 3121SOL    HW114683  10.187   9.690   2.805  0.0561  0.8645 -2.3559
 3121SOL    HW214684  10.119   9.556   2.785 -1.2296  0.7649  1.7012
 3122SOL     OW14685   7.721   4.575   9.304  0.5972  0.6858  0.2343
 3122SOL    HW114686   7.633   4.536   9.302  0.8154 -0.2019 -4.3577
 3122SOL    HW214687   7.705   4.669   9.304 -0.0670  0.7605  4.4587
 3123SOL     OW14688   5.791  11.276   6.841 -0.0244  0.3270  0.2735
 3123SOL    HW114689   5.860  11.333   6.875 -1.7499  2.2243  0.8309
 3123SOL    HW214690   5.770  11.217   6.913  0.0010  0.7550  0.6359
 3124SOL     OW14691   0.592  11.373  10.357  0.0192 -0.2420  0.1677
 3124SOL    HW114692   0.665  11.435  10.359 -0.1144 -0.0963  0.6665
 3124SOL    HW214693   0.633  11.289  10.334  0.5119 -0.3647  1.4217
 3125SOL     OW14694   5.485   8.805   4.483 -0.3773  0.0420  0.0371
 3125SOL    HW114695   5.447   8.794   4.570 -1.0069  2.2820  0.1190
 3125SOL    HW214696   5.458   8.727   4.435 -1.3220 -0.5109  1.4008
 3126SOL     OW14697   0.974   8.166   0.734  0.0192  0.4346 -0.1629
 3126SOL    HW114698   0.965   8.119   0.816 -0.7401 -0.3059 -0.6497
 3126SOL    HW214699   1.057   8.136   0.697  0.8235  1.4625  0.7376
 3127SOL     OW14700  11.186   1.156   0.326 -0.4509  0.4733 -0.3316
 3127SOL    HW114701  11.105   1.112   0.352  0.4582 -1.3217 -0.3612
 3127SOL    HW214702  11.158   1.224   0.265 -1.9042 -0.2503 -0.5141
 3128SOL     OW14703   3.970   5.580   3.928  0.2250 -0.6225 -0.0211
 3128SOL    HW114704   3.947   5.588   3.835 -0.1677 -0.6952  0.0683
 3128SOL    HW214705   4.053   5.533   3.928  0.8106  0.3640 -0.3939
 3129SOL     OW14706   3.628   7.948   4.293 -0.3322 -0.0358  0.0337
 3129SOL    HW114707   3.638   8.010   4.365 -0.0687 -0.2954  0.2254
 3129SOL    HW214708   3.633   7.862   4.335 -0.5664 -0.1894 -0.2440
 3130SOL     OW14709   4.704   9.866   6.509  1.0497  0.1668  0.1131
 3130SOL    HW114710   4.708   9.802   6.581 -1.8544  0.7658  0.9610
 3130SOL    HW214711   4.761   9.937   6.537  0.7933 -0.0888  1.3651
 3131SOL     OW14712   5.680   0.504   8.346 -0.4692 -0.2859  0.1166
 3131SOL    HW114713   5.630   0.566   8.399  0.5913  1.7418 -1.1508
 3131SOL    HW214714   5.638   0.506   8.260  0.6265  0.0069 -0.4290
 3132SOL     OW14715   8.091   0.757   7.153 -0.4273  0.5823  0.5944
 3132SOL    HW114716   8.151   0.827   7.125  1.8423 -1.4374  0.1033
 3132SOL    HW214717   8.060   0.718   7.071  0.4306 -0.6495  0.8285
 3133SOL     OW14718   5.528   0.544   0.288  0.3750  0.0669 -0.1414
 3133SOL    HW114719   5.586   0.569   0.216  0.2683  0.3185 -0.1403
 3133SOL    HW214720   5.585   0.497   0.349  0.2071 -1.2388 -0.9623
 3134SOL     OW14721   7.623   4.516   6.652 -0.0507 -0.0439 -0.5417
 3134SOL    HW114722   7.567   4.574   6.704 -0.6666  0.1416 -1.3874
 3134SOL    HW214723   7.711   4.529   6.688 -0.6424 -1.0304  1.4239
 3135SOL     OW14724   7.752   2.833   9.700 -0.4919 -0.3832  0.2010
 3135SOL    HW114725   7.841   2.800   9.715 -1.0057 -1.3017  1.4198
 3135SOL    HW214726   7.724   2.865   9.786 -1.2740  0.0953 -0.2234
 3136SOL     OW14727   0.399  11.718   4.848  0.2030 -0.0323 -0.0942
 3136SOL    HW114728   0.493  11.724   4.830  0.1172  0.8923 -0.2894
 3136SOL    HW214729   0.366  11.807   4.832 -0.8792 -0.5737 -1.0218
 3137SOL     OW14730   4.894   7.409   0.959 -0.4195  0.1649  0.4883
 3137SOL    HW114731   4.887   7.323   1.001  2.0093 -0.3627 -0.0334
 3137SOL    HW214732   4.986   7.417   0.937 -0.8974  2.1953 -1.0481
 3138SOL     OW14733  10.999   8.802   6.109  0.3603 -0.4262 -0.2468
 3138SOL    HW114734  11.035   8.838   6.028 -1.8316 -1.7159 -1.8800
 3138SOL    HW214735  10.977   8.879   6.162  2.2701  0.4276 -0.6084
 3139SOL     OW14736   4.959   3.285   9.089  0.2861  0.4673 -0.5433
 3139SOL    HW114737   4.939   3.366   9.134  0.2568 -0.1899  0.6640
 3139SOL    HW214738   4.965   3.219   9.158 -1.3533 -0.9095 -1.6273
 3140SOL     OW14739   3.824  10.142   2.954 -0.1115  0.1683  0.6846
 3140SOL    HW114740   3.892  10.130   2.887 -0.1698 -2.9409  1.0190
 3140SOL    HW214741   3.750  10.090   2.922 -1.2104  0.9804  1.8157
 3141SOL     OW14742   6.714   1.009   6.084 -0.1895 -0.5981  0.0861
 3141SOL    HW114743   6.772   1.030   6.157  0.8623 -2.1063 -0.2536
 3141SOL    HW214744   6.628   0.995   6.124  0.1972 -0.6146  0.9336
 3142SOL     OW14745   1.658   1.454   3.470  0.3984 -0.2253 -0.8604
 3142SOL    HW114746   1.712   1.375   3.469  0.8489 -0.0537  2.0511
 3142SOL    HW214747   1.713   1.519   3.513 -1.1106  0.7613 -0.3631
 3143SOL     OW14748  11.362  10.106   4.117 -0.0938 -0.1469 -0.8340
 3143SOL    HW114749  11.394  10.156   4.042 -0.4009 -0.0780 -0.9186
 3143SOL    HW214750  11.276  10.144   4.136  1.4227  2.3615  1.8348
 3144SOL     OW14751   4.064   9.681   0.984  0.7865 -0.2867 -0.3906
 3144SOL    HW114752   4.035   9.653   1.071 -0.9710  0.4180 -0.6991
 3144SOL    HW214753   4.091   9.772   0.996 -0.9690  0.3387 -0.8247
 3145SOL     OW14754   1.148   0.615   7.068  0.2554  0.0342 -0.5088
 3145SOL    HW114755   1.081   0.645   7.130  3.0938  3.0514  1.4098
 3145SOL    HW214756   1.130   0.666   6.989  1.3020  2.4188  0.6685
 3146SOL     OW14757   7.595   1.503  10.261  0.0200  0.0774  0.4814
 3146SOL    HW114758   7.650   1.430  10.231 -1.0201 -0.1026 -1.1277
 3146SOL    HW214759   7.577   1.553  10.182 -3.0703 -0.5241  0.6743
 3147SOL     OW14760   9.570   6.946  10.805  0.2545  0.7112  0.0998
 3147SOL    HW114761   9.628   6.885  10.850  0.3370  1.6666  1.3378
 3147SOL    HW214762   9.628   7.015  10.773 -0.1728  1.7061  1.3965
 3148SOL     OW14763   5.258   4.386   8.208 -0.1668 -0.0882 -0.3401
 3148SOL    HW114764   5.220   4.451   8.267 -0.3945 -1.2055  0.7634
 3148SOL    HW214765   5.183   4.338   8.174 -0.1039  0.9362 -2.0842
 3149SOL     OW14766   7.470   5.072  10.795  0.3134 -0.2522 -0.2012
 3149SOL    HW114767   7.480   5.098  10.887  2.0461  1.4362 -0.8087
 3149SOL    HW214768   7.376   5.082  10.777  0.1444  0.6076  1.0407
 3150SOL     OW14769  11.652   0.404   6.686 -0.0469 -0.3822 -0.3085
 3150SOL    HW114770  11.703   0.346   6.630  2.5738  0.3154  1.1884
 3150SOL    HW214771  11.611   0.467   6.626  1.4827 -0.5329 -1.5417
 3151SOL     OW14772   8.302  10.549  10.079 -0.5269 -0.1211  0.4569
 3151SOL    HW114773   8.274  10.488  10.011 -0.4854  0.8472 -0.4430
 3151SOL    HW214774   8.236  10.619  10.078  0.0708  0.4538  0.6584
 3152SOL     OW14775   1.620   5.793  10.962  0.0206 -0.1454 -0.1086
 3152SOL    HW114776   1.609   5.704  10.929 -3.2241  0.7719 -1.9885
 3152SOL    HW214777   1.531   5.822  10.983  0.7913  2.9924 -0.5945
 3153SOL     OW14778   3.997   2.058  10.180 -0.4261 -0.1474  0.5271
 3153SOL    HW114779   3.904   2.037  10.169 -0.1823 -0.4597 -1.0810
 3153SOL    HW214780   4.020   2.017  10.264 -1.2118 -2.0356 -0.1168
 3154SOL     OW14781   7.191   9.464  10.132  0.4280 -0.1950 -0.0538
 3154SOL    HW114782   7.267   9.496  10.084 -1.0767  1.1966 -1.6413
 3154SOL    HW214783   7.127   9.535  10.126 -0.3635 -0.5149  2.9043
 3155SOL     OW14784   1.400   6.174   6.370  0.0714  0.1106  0.5034
 3155SOL    HW114785   1.326   6.228   6.398  1.0135  0.9543  1.3978
 3155SOL    HW214786   1.390   6.093   6.420 -0.7706 -0.1903 -0.1037
 3156SOL     OW14787   5.661  11.640   0.123 -0.0688  0.3227 -0.0767
 3156SOL    HW114788   5.638  11.583   0.197  0.2957 -1.8117 -1.5239
 3156SOL    HW214789   5.753  11.660   0.137  0.3972 -1.2592 -0.6352
 3157SOL     OW14790   7.327   2.988   0.974 -0.2693 -0.1914 -0.3483
 3157SOL    HW114791   7.379   3.013   1.050  0.0034  3.0216 -1.4113
 3157SOL    HW214792   7.385   2.934   0.921  1.5606  2.0045 -0.7447
 3158SOL     OW14793   3.711   0.853   6.965  0.5367  0.1309  0.3218
 3158SOL    HW114794   3.763   0.885   6.891 -1.2973 -1.1616 -1.6208
 3158SOL    HW214795   3.753   0.771   6.989  2.0614  1.2614  1.8537
 3159SOL     OW14796   9.228   0.681   7.055  0.1205 -0.4182  0.5056
 3159SOL    HW114797   9.173   0.676   7.133 -0.2017 -0.1000  0.3021
 3159SOL    HW214798   9.264   0.770   7.056 -2.3473  0.7493 -1.3199
 3160SOL     OW14799   7.471   6.251   7.818  0.1572 -0.2996 -0.6246
 3160SOL    HW114800   7.387   6.227   7.858  0.4541 -2.5419 -1.2138
 3160SOL    HW214801   7.467   6.346   7.809 -1.6873 -0.1945  0.7434
 3161SOL     OW14802   7.303   8.108   1.180  0.2449  0.0875 -0.6010
 3161SOL    HW114803   7.361   8.055   1.126  0.7977 -0.3113  0.3597
 3161SOL    HW214804   7.306   8.066   1.266  0.4862  1.5147  0.1131
 3162SOL     OW14805   0.729   4.241  10.968  1.2052  0.5567 -0.1739
 3162SOL    HW114806   0.636   4.227  10.985  1.4309  1.5383  2.3171
 3162SOL    HW214807   0.731   4.310  10.901  0.1837 -0.6422 -1.4907
 3163SOL     OW14808   8.056   5.863   3.967 -0.1960  0.3406 -0.2620
 3163SOL    HW114809   8.020   5.925   4.030  1.3061  1.5440 -0.5110
 3163SOL    HW214810   8.018   5.889   3.883 -0.1541  0.4418 -0.2500
 3164SOL     OW14811   5.730   5.842   4.679  0.0452  0.1664 -0.3967
 3164SOL    HW114812   5.760   5.752   4.688  0.6574  0.4875  1.0962
 3164SOL    HW214813   5.641   5.834   4.646 -0.6948 -1.1055  1.6991
 3165SOL     OW14814   1.499   7.457   5.103  0.4145 -0.0930 -0.1587
 3165SOL    HW114815   1.505   7.546   5.067  3.7795 -0.1452 -0.0101
 3165SOL    HW214816   1.479   7.470   5.196 -1.8668  0.3010 -0.6349
 3166SOL     OW14817  11.345   9.087   4.562  0.0658  0.2555 -0.1583
 3166SOL    HW114818  11.381   9.087   4.474 -0.1330  0.0194 -0.2385
 3166SOL    HW214819  11.290   9.166   4.566  0.8001  0.7654  0.0513
 3167SOL     OW14820   4.161   1.203   2.973  0.1947  0.1511 -0.1123
 3167SOL    HW114821   4.093   1.267   2.996  1.7223  1.4385  1.0811
 3167SOL    HW214822   4.230   1.256   2.931  0.6266 -1.0498 -0.9481
 3168SOL     OW14823   8.214   7.762   4.236  0.1551 -0.2101  0.1087
 3168SOL    HW114824   8.231   7.690   4.176  0.1507 -0.2956  0.2089
 3168SOL    HW214825   8.301   7.794   4.260  0.1448  0.6035 -0.8687
 3169SOL     OW14826   3.419   0.977  11.773 -0.3280 -0.2049 -0.2068
 3169SOL    HW114827   3.343   0.956  11.828 -0.0038 -0.0124  0.3171
 3169SOL    HW214828   3.380   1.020  11.696 -0.8493 -1.1974 -0.5252
 3170SOL     OW14829   7.992   8.162   6.843  0.7132 -0.1102 -0.4043
 3170SOL    HW114830   7.996   8.141   6.936  1.7006 -0.7518 -0.5832
 3170SOL    HW214831   7.998   8.078   6.799 -0.5776  0.1210 -1.0456
 3171SOL     OW14832   9.243   5.980   3.555  0.0607 -0.0686 -0.5383
 3171SOL    HW114833   9.302   5.907   3.540  1.3506  0.8700 -0.1716
 3171SOL    HW214834   9.212   5.968   3.645  1.7687  0.8402  0.2082
 3172SOL     OW14835   6.972   3.412   2.802  1.4081 -0.4810 -0.2738
 3172SOL    HW114836   6.982   3.340   2.864 -1.2355 -0.6076  0.1104
 3172SOL    HW214837   6.935   3.483   2.853  0.1399 -0.2417 -1.4733
 3173SOL     OW14838  11.416   9.333   0.663  0.1584 -0.2654  0.4655
 3173SOL    HW114839  11.469   9.363   0.589  2.0664 -3.1720  0.4989
 3173SOL    HW214840  11.369   9.411   0.693  0.8889  1.4337 -2.4922
 3174SOL     OW14841   1.200   1.628   5.736 -0.1422  0.2973 -0.5585
 3174SOL    HW114842   1.256   1.703   5.714 -0.7936  0.9811  0.0543
 3174SOL    HW214843   1.208   1.619   5.831  0.3842 -0.7980 -0.6858
 3175SOL     OW14844   8.904  10.352   7.034  0.1358 -0.0791 -0.1487
 3175SOL    HW114845   8.814  10.357   7.004 -0.1142 -0.0084  0.5892
 3175SOL    HW214846   8.937  10.441   7.027 -0.2049  0.1163  0.6175
 3176SOL     OW14847   8.869   8.180   9.931  0.1489 -0.4738 -0.4976
 3176SOL    HW114848   8.842   8.093   9.962 -1.5194  0.5849  1.2306
 3176SOL    HW214849   8.961   8.170   9.909  0.8010 -2.0583  2.3735
 3177SOL     OW14850   7.540   2.859   1.716  0.1577  0.0456 -0.0371
 3177SOL    HW114851   7.475   2.909   1.667  0.3213  1.4787  1.1519
 3177SOL    HW214852   7.564   2.915   1.789  0.9587 -1.4551  0.9079
 3178SOL     OW14853   8.048   0.744   4.336  0.3377 -0.4550 -0.1527
 3178SOL    HW114854   7.954   0.743   4.317 -0.0930  0.8597  1.6752
 3178SOL    HW214855   8.071   0.837   4.341  0.9977 -0.6651  2.5475
 3179SOL     OW14856   2.336  10.239  11.645 -0.0378  0.3406  0.0685
 3179SOL    HW114857   2.411  10.267  11.593 -0.4169  0.7144 -0.2924
 3179SOL    HW214858   2.372  10.180  11.711  0.6415  0.9145  0.2166
 3180SOL     OW14859   2.725   7.505  10.464 -0.2443 -0.2021 -0.4620
 3180SOL    HW114860   2.702   7.499  10.372 -0.0129 -0.4095 -0.5075
 3180SOL    HW214861   2.664   7.569  10.500  0.8813  1.3469 -1.1684
 3181SOL     OW14862   8.019   4.124   0.203  0.8414 -0.2700 -0.1607
 3181SOL    HW114863   8.060   4.182   0.139 -0.0828  1.1111  0.4456
 3181SOL    HW214864   7.942   4.089   0.157  1.1506 -0.6900 -0.3732
 3182SOL     OW14865   4.603   9.649   7.431 -0.2624 -0.3473 -0.4120
 3182SOL    HW114866   4.623   9.695   7.512  1.2901  0.1744 -1.0638
 3182SOL    HW214867   4.577   9.718   7.370  0.8541 -0.4505 -1.0262
 3183SOL     OW14868   3.313   1.308   2.764 -0.3115 -0.4305  0.1448
 3183SOL    HW114869   3.229   1.355   2.765 -0.7556 -1.2099  0.5361
 3183SOL    HW214870   3.353   1.332   2.680 -0.3739  0.8947  0.4853
 3184SOL     OW14871   9.702  10.918   6.131  0.1816  0.4513  0.2600
 3184SOL    HW114872   9.710  11.005   6.092  0.9791 -0.0175 -0.6608
 3184SOL    HW214873   9.764  10.864   6.083  0.3990 -0.4155  1.4640
 3185SOL     OW14874  10.303   8.276  11.599  0.2866  0.9389  0.2114
 3185SOL    HW114875  10.221   8.228  11.586 -0.0316  1.2349  1.0200
 3185SOL    HW214876  10.345   8.276  11.514  0.4405 -1.0346  0.2378
 3186SOL     OW14877   6.147   6.849   0.665 -0.2211 -0.3007  0.1089
 3186SOL    HW114878   6.203   6.918   0.629 -1.9185  1.6153  0.9173
 3186SOL    HW214879   6.091   6.824   0.591 -1.3818  1.1645  0.4313
 3187SOL     OW14880  11.312   8.417   9.122  0.2060  0.2652  0.0088
 3187SOL    HW114881  11.299   8.470   9.044  0.5856  1.7055  0.8875
 3187SOL    HW214882  11.328   8.480   9.192  0.8243 -1.0163  1.0773
 3188SOL     OW14883   1.684   3.924   4.372 -0.0161  0.0334  0.0721
 3188SOL    HW114884   1.655   4.010   4.401  0.0377  0.4895 -1.1603
 3188SOL    HW214885   1.652   3.864   4.439  2.3268  1.2445  2.4694
 3189SOL     OW14886   8.098   6.484   9.485 -0.2835 -0.4195 -0.0559
 3189SOL    HW114887   8.087   6.574   9.455 -2.3203 -0.5675  0.1251
 3189SOL    HW214888   8.184   6.483   9.528 -0.5032  1.5989  0.5224
 3190SOL     OW14889   0.553   0.687   8.146 -0.2112 -0.1150  0.3650
 3190SOL    HW114890   0.567   0.605   8.193  1.8757  0.1575  0.2827
 3190SOL    HW214891   0.597   0.753   8.198  0.1469  0.5722 -0.7737
 3191SOL     OW14892   0.666  11.510   9.606  0.2803 -0.3972  0.3007
 3191SOL    HW114893   0.639  11.591   9.563  1.4103 -0.8162 -1.2731
 3191SOL    HW214894   0.723  11.539   9.677  0.7658  0.1828 -0.3205
 3192SOL     OW14895  11.259   8.997   3.540  0.0855 -0.1165  0.3434
 3192SOL    HW114896  11.321   9.047   3.487  0.9358  0.2626  1.6536
 3192SOL    HW214897  11.314   8.939   3.594 -0.8320 -1.9527 -0.5794
 3193SOL     OW14898   5.872  11.530   9.889  0.1355  0.0559  0.1313
 3193SOL    HW114899   5.872  11.438   9.859  2.6595 -0.2182  0.7019
 3193SOL    HW214900   5.936  11.532   9.960 -0.3671  2.1510  0.5920
 3194SOL     OW14901  10.342   2.447   9.317 -0.3705  0.1751 -0.3002
 3194SOL    HW114902  10.363   2.370   9.371 -1.4272 -0.2266 -0.4256
 3194SOL    HW214903  10.297   2.506   9.377 -0.6759  0.1474 -0.4991
 3195SOL     OW14904  10.725  11.618   3.596  0.1856  0.0167  0.2545
 3195SOL    HW114905  10.741  11.588   3.685 -0.5768 -2.4931 -0.3755
 3195SOL    HW214906  10.783  11.693   3.585  1.6139 -0.7124  2.2688
 3196SOL     OW14907   4.929   4.404   8.546  0.0920 -0.1541  0.1749
 3196SOL    HW114908   4.919   4.499   8.549 -1.7813 -0.2709 -0.6490
 3196SOL    HW214909   4.844   4.372   8.514  0.9015 -2.0540 -0.2286
 3197SOL     OW14910  10.528   8.983   9.657  0.4739 -0.5149  0.5998
 3197SOL    HW114911  10.614   8.996   9.617  1.3187 -0.7654  2.2555
 3197SOL    HW214912  10.511   8.889   9.649  0.6471 -0.5658  0.8114
 3198SOL     OW14913   2.424   2.817   7.108 -0.4730 -0.7956 -0.1186
 3198SOL    HW114914   2.474   2.854   7.180  0.7773 -1.3350 -0.6826
 3198SOL    HW214915   2.458   2.728   7.098  0.3260 -0.3273 -2.1724
 3199SOL     OW14916  10.266   4.063   8.255 -0.5009 -0.2557 -0.0380
 3199SOL    HW114917  10.216   4.107   8.324 -1.0491 -0.6609 -0.1655
 3199SOL    HW214918  10.207   3.994   8.223 -0.6183  0.4878 -1.5208
 3200SOL     OW14919   4.827   6.787   5.504  0.0730 -0.2159 -0.1342
 3200SOL    HW114920   4.824   6.693   5.488  3.7895 -0.3886 -0.6840
 3200SOL    HW214921   4.920   6.808   5.507 -0.4901  2.8976  3.4099
 3201SOL     OW14922   7.897   1.029   0.309  0.4295 -0.6215 -0.4850
 3201SOL    HW114923   7.901   1.109   0.360  0.5036 -0.8011 -0.2062
 3201SOL    HW214924   7.804   1.005   0.309  0.3502 -0.3229 -0.9042
 3202SOL     OW14925   4.826   7.111  11.014  0.3589 -0.5426  0.1244
 3202SOL    HW114926   4.756   7.057  11.051  0.5251  0.0630  1.3765
 3202SOL    HW214927   4.903   7.091  11.068  0.4049  0.9557  0.6487
 3203SOL     OW14928   0.834   9.782   7.412  0.3566 -0.0877 -0.3319
 3203SOL    HW114929   0.747   9.765   7.376  0.8466 -1.8452 -0.7743
 3203SOL    HW214930   0.842   9.878   7.409 -1.5418  0.1167 -0.2682
 3204SOL     OW14931   2.357   4.878   2.717 -0.2029  0.5703 -0.6607
 3204SOL    HW114932   2.369   4.958   2.665 -1.7404  0.4542 -1.2469
 3204SOL    HW214933   2.311   4.908   2.796 -2.3563  0.0829 -1.6556
 3205SOL     OW14934   8.017  10.185   0.961  0.3596 -0.3649  0.4532
 3205SOL    HW114935   7.996  10.263   0.910 -1.9823 -0.3057  1.4065
 3205SOL    HW214936   8.013  10.113   0.898 -0.0180 -0.0067  0.0622
 3206SOL     OW14937   5.213   0.926   9.076 -0.0567 -0.3607  0.0601
 3206SOL    HW114938   5.308   0.919   9.076  0.0993  0.4004  3.3076
 3206SOL    HW214939   5.183   0.854   9.133 -1.3685  0.0047 -0.1238
 3207SOL     OW14940   0.757   8.913   9.284  0.4919 -0.0245  0.0408
 3207SOL    HW114941   0.687   8.892   9.346  0.1178 -1.0971 -0.7195
 3207SOL    HW214942   0.713   8.955   9.210  0.2941 -2.4786 -1.3461
 3208SOL     OW14943  10.178   9.105   5.301  0.2646  0.2846  0.1521
 3208SOL    HW114944  10.223   9.049   5.238  1.2017 -0.9455  1.8452
 3208SOL    HW214945  10.144   9.045   5.367 -2.0154  1.3978  0.0888
 3209SOL     OW14946   7.725   7.463   1.350 -0.7513 -0.6375 -0.1583
 3209SOL    HW114947   7.797   7.404   1.372 -0.8432 -1.0368 -0.8831
 3209SOL    HW214948   7.762   7.521   1.283  0.2649  2.1017  2.5143
 3210SOL     OW14949   5.566   1.875   2.396 -0.3290 -0.3580 -0.2110
 3210SOL    HW114950   5.630   1.815   2.357  0.6788  1.1295 -1.0121
 3210SOL    HW214951   5.525   1.917   2.320 -2.5664 -1.5219  0.2829
 3211SOL     OW14952   4.513   7.417   8.386 -0.0371 -0.1533 -0.4210
 3211SOL    HW114953   4.427   7.454   8.369  0.6619  1.0087 -1.6398
 3211SOL    HW214954   4.525   7.352   8.317 -0.7737 -1.9038  1.0146
 3212SOL     OW14955   5.239   8.308   3.523  0.2976  0.2347 -0.0005
 3212SOL    HW114956   5.212   8.218   3.545  1.4009 -0.7066 -2.1517
 3212SOL    HW214957   5.328   8.316   3.559  0.0273  0.6507  0.5901
 3213SOL     OW14958   9.752   6.930   9.303 -0.0052  0.5241 -0.0208
 3213SOL    HW114959   9.729   7.010   9.255 -1.2453 -0.8020 -1.7464
 3213SOL    HW214960   9.721   6.947   9.392 -1.3019  1.5449 -0.6208
 3214SOL     OW14961   9.656   1.595   1.236 -0.4180 -0.2103 -0.0696
 3214SOL    HW114962   9.696   1.509   1.228 -0.8191 -0.3037 -1.1890
 3214SOL    HW214963   9.726   1.650   1.272  0.7732 -0.3539 -2.0176
 3215SOL     OW14964   0.527   6.147   9.337 -0.0197 -0.2485 -0.2272
 3215SOL    HW114965   0.618   6.122   9.353  0.7747  2.3217 -0.3386
 3215SOL    HW214966   0.500   6.093   9.262  1.6335 -0.5823 -0.6151
 3216SOL     OW14967   2.017   7.422   2.030  0.2935 -0.5490 -0.1350
 3216SOL    HW114968   2.022   7.336   2.072  0.8999 -0.1764  0.5880
 3216SOL    HW214969   1.933   7.458   2.059  0.6718 -0.3264  0.7335
 3217SOL     OW14970  10.560  11.669   7.783 -0.1844  0.2856  0.0884
 3217SOL    HW114971  10.495  11.737   7.767 -0.8643 -0.1651  0.8471
 3217SOL    HW214972  10.600  11.653   7.698 -2.0369 -0.4276 -0.6942
 3218SOL     OW14973   1.411   6.988   9.286 -0.2773  0.3809 -0.0240
 3218SOL    HW114974   1.423   6.897   9.314  0.7154  0.3078 -0.6409
 3218SOL    HW214975   1.485   7.035   9.325 -1.1639  1.0674  0.8647
 3219SOL     OW14976   7.213   8.232  10.436  0.2579 -0.4054 -0.0025
 3219SOL    HW114977   7.175   8.259  10.353 -1.0113 -1.4921  0.1981
 3219SOL    HW214978   7.284   8.173  10.413  0.4799 -0.0117 -0.3296
 3220SOL     OW14979   7.363   8.586   9.745 -0.2646  0.4568 -0.4722
 3220SOL    HW114980   7.314   8.595   9.827  0.9437  0.6056  0.2426
 3220SOL    HW214981   7.379   8.676   9.717  0.3912  0.4191 -0.2222
 3221SOL     OW14982   2.538  11.418  10.674 -0.1389 -0.0816  0.7019
 3221SOL    HW114983   2.544  11.508  10.704 -1.5728  0.0490  0.6437
 3221SOL    HW214984   2.554  11.365  10.752 -0.6820  0.2385  1.0350
 3222SOL     OW14985  10.184   8.108   2.363 -0.2202 -0.2580  0.4711
 3222SOL    HW114986  10.154   8.161   2.290  0.3593  0.0051  0.4221
 3222SOL    HW214987  10.272   8.080   2.338 -0.1692 -0.4878  0.8960
 3223SOL     OW14988   0.731   2.327  10.328 -0.3172  0.8726 -0.0431
 3223SOL    HW114989   0.817   2.303  10.291  0.0932  1.4175  0.5382
 3223SOL    HW214990   0.674   2.333  10.252 -0.0302 -0.2502 -0.3681
 3224SOL     OW14991   4.392   0.245  10.722 -0.1182  0.0516 -0.3770
 3224SOL    HW114992   4.418   0.273  10.634 -0.2280 -1.1570 -0.8061
 3224SOL    HW214993   4.420   0.154  10.728  1.7919  0.6687  1.6178
 3225SOL     OW14994   8.631   6.758   0.091  0.1102 -0.0113 -0.0192
 3225SOL    HW114995   8.612   6.794   0.178 -0.8190 -2.0468  0.6816
 3225SOL    HW214996   8.558   6.788   0.037 -0.5862 -0.6644  0.5228
 3226SOL     OW14997   6.630  10.611   3.552 -0.4328 -0.4042  0.3180
 3226SOL    HW114998   6.647  10.614   3.647 -0.3983  0.4872  0.2879
 3226SOL    HW214999   6.553  10.666   3.539  1.3297  2.0518 -0.5267
 3227SOL     OW15000  10.641   0.276   8.116 -0.2834  0.2372 -0.1899
 3227SOL    HW115001  10.562   0.284   8.169  0.2720 -0.8042  0.8550
 3227SOL    HW215002  10.643   0.356   8.063 -1.0156  1.1649  1.1368
 3228SOL     OW15003   2.200   1.226  11.299 -0.7729  0.9300 -0.3088
 3228SOL    HW115004   2.208   1.173  11.220  1.1020  2.7379 -1.4065
 3228SOL    HW215005   2.127   1.186  11.347 -0.7067 -1.4042 -1.9837
 3229SOL     OW15006   4.424   3.707   7.869 -0.0861  0.1205  0.3076
 3229SOL    HW115007   4.432   3.641   7.939  3.5378 -0.7003 -0.6765
 3229SOL    HW215008   4.513   3.738   7.855 -1.0087  1.8535 -2.4950
 3230SOL     OW15009  11.268   6.288   7.788  0.0630  0.2866  0.5359
 3230SOL    HW115010  11.248   6.283   7.695 -0.1314  0.5326  0.5642
 3230SOL    HW215011  11.253   6.379   7.811 -0.2512  0.1489  0.8918
 3231SOL     OW15012   8.055   2.819   2.004 -0.1757  1.2017 -0.2467
 3231SOL    HW115013   8.024   2.806   1.915 -0.2978  0.7647 -0.1439
 3231SOL    HW215014   8.124   2.753   2.015 -0.9086  0.5117  0.3392
 3232SOL     OW15015   5.608   0.815   9.994  0.5100  0.1830  0.6815
 3232SOL    HW115016   5.650   0.809   9.908 -2.4295  1.8176 -1.0116
 3232SOL    HW215017   5.671   0.863  10.048  1.2149  1.7634 -1.4273
 3233SOL     OW15018   4.808   7.241   7.804  0.0991  0.3683 -0.1093
 3233SOL    HW115019   4.818   7.164   7.748 -1.7176  0.0943 -0.1190
 3233SOL    HW215020   4.858   7.309   7.760  0.7364 -0.4942 -0.7484
 3234SOL     OW15021   7.417   8.367   0.768  0.1083  0.2702 -0.7987
 3234SOL    HW115022   7.507   8.400   0.765  0.9013 -1.3465  1.6756
 3234SOL    HW215023   7.367   8.435   0.811  0.3186  0.8280 -1.4224
 3235SOL     OW15024   0.153   5.868   6.790 -0.0851 -0.2953  0.0506
 3235SOL    HW115025   0.079   5.819   6.825 -0.9349  1.2632  0.4945
 3235SOL    HW215026   0.134   5.960   6.810  2.0881  0.1388  0.4177
 3236SOL     OW15027   7.741   4.812   3.591 -0.2526  0.3547 -0.2808
 3236SOL    HW115028   7.822   4.769   3.618 -1.3947 -0.9577  1.2702
 3236SOL    HW215029   7.697   4.748   3.535 -2.0793 -0.7683  2.2369
 3237SOL     OW15030   6.057  11.080   0.556  0.4690  0.6923 -0.1685
 3237SOL    HW115031   6.015  11.018   0.496  3.1323  0.6472 -2.1444
 3237SOL    HW215032   6.058  11.034   0.640 -0.7303 -0.4741 -0.7478
 3238SOL     OW15033   7.265   0.933   7.673  0.1376 -0.3088 -0.8493
 3238SOL    HW115034   7.182   0.979   7.671 -0.1264 -0.7957 -1.1567
 3238SOL    HW215035   7.308   0.964   7.753 -0.8339 -0.9239 -0.0621
 3239SOL     OW15036   3.545   0.436  10.233  0.2084 -0.0826 -0.4280
 3239SOL    HW115037   3.597   0.389  10.298  0.3108  2.5421  1.5321
 3239SOL    HW215038   3.600   0.438  10.155  0.6742 -2.0916 -0.1847
 3240SOL     OW15039   8.494   2.813   7.287 -0.1636 -0.1241  0.1353
 3240SOL    HW115040   8.509   2.776   7.199  1.6846  0.8854 -0.0231
 3240SOL    HW215041   8.515   2.741   7.347  1.1787 -0.0636 -0.2225
 3241SOL     OW15042   4.933   9.604   9.695  0.2958  0.6685  0.3119
 3241SOL    HW115043   4.990   9.657   9.639  1.8554 -1.8100 -0.6349
 3241SOL    HW215044   4.907   9.531   9.639 -2.0836  0.5689  1.4288
 3242SOL     OW15045  11.029  11.184   9.601  0.2399 -0.2089  0.2694
 3242SOL    HW115046  10.973  11.120   9.556 -1.9507  1.6344  0.1620
 3242SOL    HW215047  11.005  11.175   9.693  0.5634 -0.1125  0.3636
 3243SOL     OW15048   6.383   6.237   0.138 -0.1966  0.5285  0.4159
 3243SOL    HW115049   6.348   6.250   0.050 -1.5973 -0.5420  0.7735
 3243SOL    HW215050   6.374   6.323   0.180  1.5950  1.3824 -0.7946
 3244SOL     OW15051   3.894   5.685  10.135 -0.2461 -0.0986 -0.8581
 3244SOL    HW115052   3.919   5.742  10.207 -0.0628  0.0144 -1.0111
 3244SOL    HW215053   3.960   5.616  10.134 -1.0886 -0.9610  0.0472
 3245SOL     OW15054   4.939   5.384   4.971  0.4922  1.1350 -0.4255
 3245SOL    HW115055   4.941   5.351   5.061  1.9627  2.0172 -0.1002
 3245SOL    HW215056   4.863   5.442   4.969  0.8581  1.6714  0.4849
 3246SOL     OW15057   0.112   2.315   0.494 -0.0331 -0.4930  0.4033
 3246SOL    HW115058   0.115   2.329   0.588  2.3810  0.4337  0.2595
 3246SOL    HW215059   0.169   2.240   0.478 -1.9386 -1.9248 -0.2174
 3247SOL     OW15060  10.288   2.985   7.623 -0.0830  0.4807  0.2929
 3247SOL    HW115061  10.203   2.966   7.662 -0.5178  0.8554 -0.4529
 3247SOL    HW215062  10.351   2.973   7.694 -0.9757  2.3956  1.4879
 3248SOL     OW15063   3.694   3.687   0.863 -0.1242  0.2481 -0.1040
 3248SOL    HW115064   3.698   3.776   0.898  2.4495  0.0092  0.4133
 3248SOL    HW215065   3.784   3.667   0.839 -1.0654 -1.3175 -2.6421
 3249SOL     OW15066   3.765   9.932   7.165 -0.1132 -0.4171  0.1140
 3249SOL    HW115067   3.772  10.004   7.228 -0.8239  0.0931 -0.3708
 3249SOL    HW215068   3.818   9.960   7.091  1.9498 -1.6621  1.0099
 3250SOL     OW15069   1.860   7.937   6.449  0.2958 -0.4029 -0.1111
 3250SOL    HW115070   1.885   7.946   6.541 -0.2003  0.1635 -0.0246
 3250SOL    HW215071   1.912   7.864   6.416 -0.2122 -1.2356  0.8768
 3251SOL     OW15072   0.809   3.841   0.440 -0.4821  0.3385 -0.2422
 3251SOL    HW115073   0.823   3.807   0.352 -0.6880  1.2669 -0.6474
 3251SOL    HW215074   0.785   3.764   0.492  1.6336 -0.5721 -0.5119
 3252SOL     OW15075  11.243   2.980   0.914  0.4730 -0.1499 -0.3844
 3252SOL    HW115076  11.327   3.026   0.913 -0.4843  1.8643  1.9224
 3252SOL    HW215077  11.177   3.049   0.919 -1.2778 -1.7080 -0.6065
 3253SOL     OW15078   2.566  10.202   9.982  0.6114 -0.6732 -0.1821
 3253SOL    HW115079   2.507  10.254  10.037  0.9369  0.2675 -0.7079
 3253SOL    HW215080   2.630  10.265   9.949  0.6931 -1.3071 -1.2733
 3254SOL     OW15081   7.422   6.554   4.962  0.3129 -0.3989 -0.2888
 3254SOL    HW115082   7.444   6.482   5.021  2.1292  0.3917  0.0783
 3254SOL    HW215083   7.428   6.633   5.016  0.2842  0.1879 -1.1231
 3255SOL     OW15084   2.138   9.859   9.107  0.1758  0.7659  0.0183
 3255SOL    HW115085   2.076   9.932   9.105 -1.6432 -0.6656  0.9723
 3255SOL    HW215086   2.126   9.819   9.193 -0.7034 -2.0826 -1.2906
 3256SOL     OW15087   9.844   1.168   0.021 -0.1938 -0.1520 -0.3879
 3256SOL    HW115088   9.853   1.246  -0.034  2.3903 -1.6654 -2.3643
 3256SOL    HW215089   9.750   1.161   0.038 -0.6296  2.6732 -1.1248
 3257SOL     OW15090   6.937   9.146   9.888 -0.0394  0.5646  0.6598
 3257SOL    HW115091   6.860   9.202   9.882  0.6450  1.3829 -1.0811
 3257SOL    HW215092   6.923   9.077   9.823  0.2673  0.1528  1.0182
 3258SOL     OW15093   7.183   8.154   0.932  0.0166  0.0202 -0.0523
 3258SOL    HW115094   7.197   8.087   0.865  0.1868  0.3210 -0.3250
 3258SOL    HW215095   7.254   8.140   0.995  0.9895  0.8918 -0.8984
 3259SOL     OW15096   5.937   6.879   6.998 -0.4545 -0.7109  0.1809
 3259SOL    HW115097   5.898   6.805   6.951 -1.4526  0.1816 -0.4388
 3259SOL    HW215098   5.914   6.956   6.945  1.0612 -0.0089  0.4921
 3260SOL     OW15099   5.938  10.882   7.493  0.5683  0.1196 -0.1925
 3260SOL    HW115100   5.889  10.826   7.553 -0.7168 -1.7414 -2.7919
 3260SOL    HW215101   6.022  10.836   7.481  0.4932  0.0565 -0.4665
 3261SOL     OW15102   1.474   1.916   1.347 -0.0783  0.6182 -0.6100
 3261SOL    HW115103   1.399   1.970   1.372 -0.4630  0.4372 -1.3379
 3261SOL    HW215104   1.547   1.978   1.338 -0.7378  1.2017 -2.3970
 3262SOL     OW15105   6.135   0.804   5.577 -0.2259  0.4056 -0.0680
 3262SOL    HW115106   6.186   0.811   5.497  0.9770  0.8993  0.7133
 3262SOL    HW215107   6.045   0.824   5.550  0.1858  0.7395 -1.2479
 3263SOL     OW15108   9.937   3.359   6.902  0.1130 -0.1588 -0.3681
 3263SOL    HW115109   9.870   3.291   6.893 -0.3776  0.3714 -0.7960
 3263SOL    HW215110   9.888   3.439   6.920  0.7779 -0.1924  1.8283
 3264SOL     OW15111   9.604  10.047  10.152  0.2402  0.0707 -0.2383
 3264SOL    HW115112   9.643  10.121  10.199  0.3380  0.5200 -1.0140
 3264SOL    HW215113   9.510  10.061  10.159  0.1907 -0.8422  1.3605
 3265SOL     OW15114   8.370  11.517   5.131  0.1752  0.3265  0.6117
 3265SOL    HW115115   8.460  11.485   5.137 -0.0707 -0.4632  0.2862
 3265SOL    HW215116   8.323  11.468   5.199  0.0534  0.9841  1.0105
 3266SOL     OW15117   3.189   4.331  10.234 -0.1390  0.1247 -0.2264
 3266SOL    HW115118   3.184   4.250  10.286 -1.8692  1.0263  1.1203
 3266SOL    HW215119   3.143   4.311  10.153 -0.5444 -0.2506  0.0934
 3267SOL     OW15120   3.927   2.348   0.494  0.3168  0.1246 -0.2898
 3267SOL    HW115121   3.932   2.263   0.451  0.0709 -0.2834  0.4648
 3267SOL    HW215122   3.833   2.367   0.498  0.3142 -0.0038  0.3575
 3268SOL     OW15123   8.087  11.093   4.460 -0.3093 -1.1334 -0.0125
 3268SOL    HW115124   8.010  11.137   4.423  0.4980  0.4341  0.0937
 3268SOL    HW215125   8.054  11.007   4.487 -2.3520 -0.0713  1.1654
 3269SOL     OW15126   0.691   8.313  11.051  0.4025  0.2231 -0.6147
 3269SOL    HW115127   0.781   8.328  11.078  0.1041  0.7718  0.1182
 3269SOL    HW215128   0.687   8.219  11.030  1.1541  0.2145 -0.7309
 3270SOL     OW15129   7.415  11.553  10.168 -0.0420  0.0544  0.2351
 3270SOL    HW115130   7.384  11.577  10.256  1.5199 -1.7199  1.3445
 3270SOL    HW215131   7.442  11.462  10.176 -0.2873 -0.3041 -2.2587
 3271SOL     OW15132  10.878   4.255   2.370 -0.1721 -0.1117  0.0191
 3271SOL    HW115133  10.879   4.175   2.422 -0.5398 -0.4395 -0.4682
 3271SOL    HW215134  10.934   4.235   2.295  0.3070  0.3353  0.2524
 3272SOL     OW15135   8.202   4.845  11.251 -0.1349 -0.1204  0.9520
 3272SOL    HW115136   8.161   4.902  11.185  0.6958 -0.4947  0.0873
 3272SOL    HW215137   8.155   4.762  11.243 -1.3464  0.3895  2.2139
 3273SOL     OW15138   8.061   1.157   8.723 -0.4468  0.0289  0.4492
 3273SOL    HW115139   8.129   1.090   8.723  0.5164  0.9577  2.0584
 3273SOL    HW215140   7.987   1.116   8.678  1.1724 -0.9689 -1.4174
 3274SOL     OW15141   2.051   2.432  10.565 -0.1160 -0.4160  0.2263
 3274SOL    HW115142   2.035   2.450  10.658  0.4660  0.9116  0.0852
 3274SOL    HW215143   1.980   2.372  10.541 -2.4457  1.9521  0.6752
 3275SOL     OW15144   8.758   7.769   4.964 -0.3512  0.4416  0.0403
 3275SOL    HW115145   8.684   7.810   5.009  0.2403  1.8334 -0.2252
 3275SOL    HW215146   8.773   7.687   5.012 -1.6469  0.4481  0.4869
 3276SOL     OW15147   7.720  11.581   5.235 -0.4721  0.0477 -0.0579
 3276SOL    HW115148   7.788  11.560   5.299 -0.0935  0.3796 -0.3452
 3276SOL    HW215149   7.723  11.677   5.227 -2.4957  0.3202  1.5907
 3277SOL     OW15150   7.554   9.862  11.637 -0.2948 -0.1682 -0.2238
 3277SOL    HW115151   7.559   9.775  11.676 -1.1297 -0.5390 -0.9089
 3277SOL    HW215152   7.461   9.881  11.633 -0.2402 -0.0438 -1.7694
 3278SOL     OW15153   9.040   7.337   1.940 -0.3326 -0.0233  0.2098
 3278SOL    HW115154   9.111   7.359   1.879 -0.8765  0.0313 -0.4228
 3278SOL    HW215155   9.072   7.262   1.989 -0.0554 -0.3506 -0.4636
 3279SOL     OW15156   9.065   2.720   7.326  0.3798 -0.6475  0.0080
 3279SOL    HW115157   9.124   2.795   7.332  0.2169 -0.6098  1.4979
 3279SOL    HW215158   9.119   2.649   7.292  0.7358 -0.0785 -0.6487
 3280SOL     OW15159   6.834   4.916   8.427 -0.5585  0.6543  0.2044
 3280SOL    HW115160   6.744   4.941   8.408 -0.4133  0.4124 -0.8950
 3280SOL    HW215161   6.833   4.821   8.427 -0.2156  0.6408 -0.3611
 3281SOL     OW15162   2.000   6.921   8.111  0.2305  0.4706  0.2932
 3281SOL    HW115163   1.923   6.971   8.140  0.0101  0.7662 -0.7725
 3281SOL    HW215164   1.966   6.860   8.046  0.6296 -0.5830  1.0436
 3282SOL     OW15165   7.404   3.145   3.247 -0.4115  0.2215  0.0262
 3282SOL    HW115166   7.442   3.064   3.280  0.7607  0.3349 -0.9435
 3282SOL    HW215167   7.476   3.208   3.251 -1.6205  1.5885  1.8982
 3283SOL     OW15168   3.011   2.821   9.058  0.9508  0.7224 -0.5423
 3283SOL    HW115169   3.106   2.820   9.067  1.1025  1.4645 -1.8961
 3283SOL    HW215170   2.993   2.887   8.992 -0.3441 -0.9808 -1.9988
 3284SOL     OW15171   7.008   5.182   5.197 -0.4429 -0.4499 -0.0294
 3284SOL    HW115172   6.930   5.210   5.149 -1.4678  1.5208  2.5163
 3284SOL    HW215173   7.029   5.256   5.253  1.7238 -1.9187  1.2390
 3285SOL     OW15174   6.010   9.574   1.939  0.0799 -0.1437 -0.2977
 3285SOL    HW115175   5.917   9.585   1.920 -0.4536 -1.0366  1.5594
 3285SOL    HW215176   6.032   9.649   1.995 -0.6610 -1.9718  2.7222
 3286SOL     OW15177   4.153  11.546   8.026 -0.0252 -0.7317  0.7310
 3286SOL    HW115178   4.248  11.553   8.029  0.1872 -0.7657 -2.4492
 3286SOL    HW215179   4.130  11.485   8.096  2.5386 -2.5590  0.0991
 3287SOL     OW15180   1.764   4.242   9.475  0.2572  0.0427  0.3058
 3287SOL    HW115181   1.700   4.200   9.418 -0.3264  0.2784  0.7786
 3287SOL    HW215182   1.729   4.330   9.490 -0.0143 -0.2702  1.6644
 3288SOL     OW15183   3.800   0.206   1.786  0.2924  0.2544 -0.1530
 3288SOL    HW115184   3.730   0.240   1.730 -1.9346  0.8734  2.7472
 3288SOL    HW215185   3.823   0.280   1.843  1.1158 -0.8104  0.9511
 3289SOL     OW15186   2.435   2.200  11.642 -0.2379 -0.0633 -0.1896
 3289SOL    HW115187   2.453   2.247  11.723  0.2636 -0.4307 -0.0790
 3289SOL    HW215188   2.448   2.265  11.573  0.0854  0.0586 -0.0165
 3290SOL     OW15189   4.708   8.567   5.759 -0.6785  0.3090  0.4559
 3290SOL    HW115190   4.653   8.551   5.835  1.0777 -0.4696  1.6083
 3290SOL    HW215191   4.714   8.662   5.753 -0.1928  0.3805  1.8018
 3291SOL     OW15192   3.333  10.413   4.485 -0.7822 -0.4919  0.5845
 3291SOL    HW115193   3.334  10.509   4.488  1.3187 -0.4998  2.5269
 3291SOL    HW215194   3.246  10.389   4.518 -0.3529  0.7630  2.8547
 3292SOL     OW15195   7.515   6.841   9.639  0.1182 -0.3366 -0.2972
 3292SOL    HW115196   7.478   6.759   9.672 -0.9634 -0.3695 -1.4938
 3292SOL    HW215197   7.478   6.908   9.696  1.7549 -0.6964  1.2962
 3293SOL     OW15198   6.866   3.345   8.270  0.2731 -0.5302  0.6773
 3293SOL    HW115199   6.877   3.281   8.199 -1.5457  0.0694 -0.2300
 3293SOL    HW215200   6.940   3.405   8.260  0.0686 -0.4696 -0.7332
 3294SOL     OW15201  11.669   2.760   8.455  0.2946 -0.0957  0.0623
 3294SOL    HW115202  11.587   2.725   8.489  1.1795 -0.5943  1.8585
 3294SOL    HW215203  11.646   2.845   8.418 -1.2488 -0.8534 -0.7941
 3295SOL     OW15204   9.525  11.231  10.293  0.4996 -0.4501  0.1816
 3295SOL    HW115205   9.478  11.148  10.285 -1.1200  0.3731  0.8419
 3295SOL    HW215206   9.479  11.291  10.234 -0.6344  0.9136  2.3090
 3296SOL     OW15207   5.141   0.789   6.502 -0.1059  0.8673 -0.3114
 3296SOL    HW115208   5.211   0.850   6.526 -1.9679  2.8112  0.5214
 3296SOL    HW215209   5.131   0.800   6.408 -1.5509  3.2774  0.0352
 3297SOL     OW15210   2.449   1.698   1.991  0.4051  0.1832 -0.0174
 3297SOL    HW115211   2.393   1.630   2.029 -0.8642  1.3685  0.2964
 3297SOL    HW215212   2.472   1.754   2.066 -0.5958  1.4886 -0.6575
 3298SOL     OW15213   7.856  10.395   1.981  0.0682 -0.4140 -0.1380
 3298SOL    HW115214   7.906  10.329   1.934 -1.0163 -0.6621 -0.9717
 3298SOL    HW215215   7.873  10.477   1.934  1.5126 -0.0340  0.9689
 3299SOL     OW15216   7.179   8.933   0.396  0.1817  0.5318  0.1415
 3299SOL    HW115217   7.141   8.845   0.395  0.3648  0.4491  0.2317
 3299SOL    HW215218   7.131   8.981   0.329  0.2258  0.2984 -0.0608
 3300SOL     OW15219   2.305   9.350   7.279 -0.0184  0.1079  0.0095
 3300SOL    HW115220   2.337   9.399   7.354  0.0481  0.3204 -0.1578
 3300SOL    HW215221   2.261   9.274   7.317 -0.3885  0.4565  0.2761
 3301SOL     OW15222   1.431  10.314   0.518  0.1222 -0.1547  0.3720
 3301SOL    HW115223   1.398  10.238   0.566  0.4924 -0.2491  0.4773
 3301SOL    HW215224   1.378  10.316   0.438 -0.6230  0.1164  0.8674
 3302SOL     OW15225   5.522   5.473   1.319 -0.8805 -0.5948 -0.1679
 3302SOL    HW115226   5.497   5.433   1.402 -1.1328 -1.5077 -0.6722
 3302SOL    HW215227   5.439   5.486   1.272 -0.8802  1.1827  0.2567
 3303SOL     OW15228   3.917   7.230   7.195 -0.5310 -0.2297  0.4012
 3303SOL    HW115229   4.001   7.185   7.198  0.3072  1.2914  0.9574
 3303SOL    HW215230   3.905   7.264   7.284 -0.5623  1.5709 -0.2401
 3304SOL     OW15231  10.472   6.300   2.782 -0.2815 -0.2779 -0.1436
 3304SOL    HW115232  10.483   6.391   2.753  1.0508 -0.2984  0.2064
 3304SOL    HW215233  10.423   6.258   2.712 -0.1405  0.5082 -0.7333
 3305SOL     OW15234   3.989  11.530   5.924 -0.6503 -0.1647  0.4301
 3305SOL    HW115235   3.941  11.610   5.903 -1.4722 -0.7593 -0.0046
 3305SOL    HW215236   4.030  11.505   5.841  2.0103  1.3413  1.1817
 3306SOL     OW15237  11.364  11.112   7.136 -0.1918 -0.3163 -0.4505
 3306SOL    HW115238  11.436  11.148   7.083  1.0796 -2.2282 -0.1206
 3306SOL    HW215239  11.312  11.061   7.075 -1.5356  1.3540 -0.7601
 3307SOL     OW15240   7.967  10.434   4.619 -1.0394  0.1033  0.6370
 3307SOL    HW115241   8.010  10.492   4.681  0.2387 -0.7532  0.5881
 3307SOL    HW215242   7.954  10.487   4.541 -2.3851  1.0988  1.4811
 3308SOL     OW15243   4.307   1.917   7.841  0.0797  0.2229  0.0407
 3308SOL    HW115244   4.342   1.842   7.793 -0.2137  0.4101 -0.4795
 3308SOL    HW215245   4.217   1.893   7.861 -0.4123  0.9246 -1.2283
 3309SOL     OW15246   0.217   2.301   4.115  0.4989 -0.1536 -0.1842
 3309SOL    HW115247   0.311   2.305   4.099  0.8253 -1.0051  1.2680
 3309SOL    HW215248   0.206   2.340   4.202 -0.2446 -1.5364  0.3696
 3310SOL     OW15249   5.523   7.567   4.612  0.0351 -0.2884 -0.7289
 3310SOL    HW115250   5.526   7.473   4.598  0.6614 -0.4110  0.1383
 3310SOL    HW215251   5.607   7.600   4.580  1.5672 -0.6002  2.5787
 3311SOL     OW15252   2.177   4.222   6.568 -0.0974  0.1952  0.0885
 3311SOL    HW115253   2.112   4.293   6.572 -0.1445  0.1034  1.5414
 3311SOL    HW215254   2.219   4.224   6.653  0.3709 -1.0996 -0.0962
 3312SOL     OW15255   9.922  10.281   9.946 -0.5189  0.0129  0.1097
 3312SOL    HW115256   9.979  10.311  10.017  1.2596 -0.1440 -1.1930
 3312SOL    HW215257   9.841  10.331   9.958 -0.0246  0.4748  1.8399
 3313SOL     OW15258   1.904   6.547   5.081  0.3240  1.1618 -1.0170
 3313SOL    HW115259   1.930   6.505   5.164  1.7377  2.1391 -0.9267
 3313SOL    HW215260   1.815   6.579   5.097  0.4869  1.1172  0.0408
 3314SOL     OW15261   8.103   7.932   6.000 -0.5502 -0.5070 -0.2850
 3314SOL    HW115262   8.111   7.864   5.932 -0.3492  2.0271 -3.0216
 3314SOL    HW215263   8.180   7.987   5.988 -1.6634  1.3087  0.4704
 3315SOL     OW15264   7.025   6.505   5.387  0.5475  0.3814  0.1479
 3315SOL    HW115265   7.067   6.580   5.345 -1.2750  1.3258 -0.0665
 3315SOL    HW215266   7.065   6.501   5.474 -1.2106  3.4066  1.2624
 3316SOL     OW15267  11.126  11.500   5.162  0.3651 -0.3352 -0.5381
 3316SOL    HW115268  11.087  11.420   5.198 -0.5601  0.8731  1.3055
 3316SOL    HW215269  11.165  11.472   5.079 -1.6217 -2.2962 -0.9151
 3317SOL     OW15270  10.276   3.602  10.780 -0.0748  0.0842 -0.0952
 3317SOL    HW115271  10.297   3.616  10.688  0.5102 -0.0151  0.0170
 3317SOL    HW215272  10.181   3.596  10.783 -0.0379 -1.3530 -0.8962
 3318SOL     OW15273   4.615  10.129   7.672 -0.3013 -0.6591  0.3997
 3318SOL    HW115274   4.584  10.219   7.680 -2.1745 -1.3235  1.1435
 3318SOL    HW215275   4.670  10.129   7.594 -1.8483  0.7219 -0.7494
 3319SOL     OW15276   6.656   4.142  10.810  0.1167 -0.3190  0.2923
 3319SOL    HW115277   6.695   4.223  10.776 -0.1911 -0.2418  0.1191
 3319SOL    HW215278   6.724   4.104  10.866  1.1436 -1.1376 -1.4326
 3320SOL     OW15279   9.848   3.011   1.014 -0.4590  0.4687  0.1910
 3320SOL    HW115280   9.752   3.015   1.012 -0.5973 -1.0741  1.7292
 3320SOL    HW215281   9.872   2.965   0.934 -1.0888 -0.1644  0.3583
 3321SOL     OW15282   2.604   5.264   9.220  0.4999 -0.4836 -0.2980
 3321SOL    HW115283   2.532   5.222   9.267  0.9911 -1.6004 -0.5310
 3321SOL    HW215284   2.565   5.291   9.136 -0.0366  0.3368  0.1996
 3322SOL     OW15285   8.430   7.209   4.062 -0.1756 -0.1444 -0.6906
 3322SOL    HW115286   8.486   7.134   4.041  1.3390  0.5863  0.5387
 3322SOL    HW215287   8.488   7.270   4.107 -1.8245  0.9511  0.0229
 3323SOL     OW15288   0.090   5.944   2.177 -0.9991 -0.0084 -0.1953
 3323SOL    HW115289   0.181   5.973   2.186 -0.2634 -2.4722  1.4080
 3323SOL    HW215290   0.054   5.949   2.265 -1.7735 -0.9230 -0.4380
 3324SOL     OW15291   1.193   5.559   0.951 -0.1845 -0.0115  0.1898
 3324SOL    HW115292   1.263   5.595   0.896  0.5072  0.2096  1.1944
 3324SOL    HW215293   1.164   5.632   1.005 -1.5084  0.0055 -0.5123
 3325SOL     OW15294   1.939   6.487   2.351 -0.0417 -0.0181  0.6147
 3325SOL    HW115295   1.995   6.432   2.404 -0.2343 -0.5188  0.3028
 3325SOL    HW215296   1.999   6.550   2.310  0.0886  0.4791  1.5391
 3326SOL     OW15297  10.757   8.460  10.485 -0.1621  0.4882  0.0302
 3326SOL    HW115298  10.779   8.461  10.578 -0.1755  0.2235  0.0363
 3326SOL    HW215299  10.664   8.437  10.482  0.2402 -1.2644 -0.1137
 3327SOL     OW15300   3.975   1.211   3.346  0.1032  0.3737 -0.1794
 3327SOL    HW115301   4.049   1.272   3.344  0.6350 -0.2717 -0.4477
 3327SOL    HW215302   3.915   1.244   3.279 -0.2045  1.3220  0.5405
 3328SOL     OW15303   5.298  11.451   2.345 -0.0874  0.5093  0.4870
 3328SOL    HW115304   5.380  11.500   2.344 -0.2057  0.7752  2.0751
 3328SOL    HW215305   5.249  11.486   2.420 -1.9732  0.8497 -0.8206
 3329SOL     OW15306   8.169   0.953   9.253 -0.0977  0.6686  0.4819
 3329SOL    HW115307   8.184   1.033   9.201  1.0097  0.2589  0.1409
 3329SOL    HW215308   8.075   0.938   9.247  0.0933 -0.0111 -2.4307
 3330SOL     OW15309  11.067   4.104  10.823 -0.3603  0.1427  0.2224
 3330SOL    HW115310  11.033   4.177  10.773  0.4823  1.5238  1.5742
 3330SOL    HW215311  11.122   4.144  10.890 -0.2067 -1.7039  1.2785
 3331SOL     OW15312   1.950   2.113   3.650 -0.2100  0.1751 -0.1416
 3331SOL    HW115313   2.025   2.055   3.642 -0.1823  0.0681  0.7534
 3331SOL    HW215314   1.949   2.138   3.743 -0.8436  0.7614 -0.2954
 3332SOL     OW15315   5.648  11.291   2.298  0.7683 -0.1746  0.3226
 3332SOL    HW115316   5.626  11.352   2.228  1.8345 -0.2216 -0.0660
 3332SOL    HW215317   5.697  11.344   2.361  0.5729 -0.3399  0.6169
 3333SOL     OW15318   8.028  10.902   5.164  0.2969 -0.4504 -0.1183
 3333SOL    HW115319   8.056  10.814   5.188 -0.1424 -0.8917 -1.1957
 3333SOL    HW215320   7.981  10.934   5.242  1.0015 -0.9128  0.5101
 3334SOL     OW15321   5.084   0.554   1.536  0.5397  0.9968  0.7033
 3334SOL    HW115322   5.165   0.532   1.581  0.6821 -1.3543 -0.5266
 3334SOL    HW215323   5.107   0.554   1.443 -0.5599  1.7994  0.4038
 3335SOL     OW15324   6.038   3.494   7.532  0.6174  0.1531 -0.0013
 3335SOL    HW115325   6.048   3.534   7.618 -0.8626  2.5256 -0.8329
 3335SOL    HW215326   6.101   3.541   7.477  0.0663  0.1426 -0.6526
 3336SOL     OW15327   2.679   0.541   1.910 -0.0714  0.8478 -0.2067
 3336SOL    HW115328   2.733   0.463   1.898 -0.1807  0.9514 -1.5435
 3336SOL    HW215329   2.660   0.543   2.004  3.2411  1.4823  0.5631
 3337SOL     OW15330   5.096   5.765   1.243  0.5687  0.2709  0.2215
 3337SOL    HW115331   5.133   5.828   1.181 -2.5475  0.5031 -1.5778
 3337SOL    HW215332   5.140   5.682   1.221 -0.2792  0.3974 -2.2328
 3338SOL     OW15333   8.193   0.301   4.386  0.1887  0.2721  0.1294
 3338SOL    HW115334   8.151   0.225   4.427 -0.4187  0.8837  0.6610
 3338SOL    HW215335   8.286   0.289   4.403  0.1095 -0.4180  0.0998
 3339SOL     OW15336   6.567   0.880   9.765 -0.4022 -0.0075  0.1872
 3339SOL    HW115337   6.531   0.926   9.689  0.4537  0.1930 -0.1065
 3339SOL    HW215338   6.594   0.950   9.825  1.1345 -0.0849 -0.3676
 3340SOL     OW15339   9.785   8.430  10.583  0.1704 -0.7204  0.6447
 3340SOL    HW115340   9.838   8.504  10.612 -1.9142  0.6018  1.2340
 3340SOL    HW215341   9.826   8.402  10.501  2.6519 -0.7640  1.7997
 3341SOL     OW15342  10.034  10.520   8.886 -0.1370  0.7272 -0.0967
 3341SOL    HW115343   9.956  10.504   8.833 -0.5242 -0.5318  0.7942
 3341SOL    HW215344  10.011  10.596   8.939 -1.4512 -0.5830  1.3278
 3342SOL     OW15345  10.603   9.460   2.580 -0.0101  0.5024  0.4832
 3342SOL    HW115346  10.533   9.407   2.619  0.3021 -2.4912 -2.5704
 3342SOL    HW215347  10.558   9.517   2.518  0.0541  0.1842  0.1411
 3343SOL     OW15348   3.955   3.412   4.285  0.1767 -0.1740 -0.0097
 3343SOL    HW115349   4.010   3.344   4.245 -0.2295 -0.7909  0.4670
 3343SOL    HW215350   3.900   3.365   4.347 -0.5884  0.5013 -0.1623
 3344SOL     OW15351   3.002   6.045   0.297  0.4631 -0.0107 -0.1523
 3344SOL    HW115352   3.027   6.130   0.262 -0.7028 -0.6662 -2.7684
 3344SOL    HW215353   2.908   6.052   0.311  0.6236 -0.3561  1.3127
 3345SOL     OW15354  11.673   6.770   8.903  0.1318  0.0986  0.1668
 3345SOL    HW115355  11.648   6.747   8.992 -0.2070  0.6579  0.2213
 3345SOL    HW215356  11.674   6.687   8.855  0.5263 -0.2354  0.7375
 3346SOL     OW15357   5.765   9.703   6.143  0.3426 -0.7388 -0.7711
 3346SOL    HW115358   5.832   9.639   6.121  0.6194 -0.3717 -0.9940
 3346SOL    HW215359   5.797   9.745   6.223  1.0642  0.4017 -1.6256
 3347SOL     OW15360   3.789   8.290   3.902 -0.3031 -0.2557 -0.6179
 3347SOL    HW115361   3.843   8.331   3.834  0.7743 -1.7818 -0.7519
 3347SOL    HW215362   3.736   8.226   3.854  0.6006 -1.4779 -0.0307
 3348SOL     OW15363   1.520   0.646   7.654  0.4370 -0.0309 -0.0753
 3348SOL    HW115364   1.473   0.590   7.716 -0.5183  1.2433  0.3764
 3348SOL    HW215365   1.528   0.592   7.575 -0.3470 -0.8621  0.3913
 3349SOL     OW15366   5.814   4.504   0.772  0.0988  0.5676 -0.3784
 3349SOL    HW115367   5.864   4.479   0.694 -0.2475 -1.1939 -0.0625
 3349SOL    HW215368   5.873   4.562   0.820  1.4166 -0.5751 -0.5633
 3350SOL     OW15369   0.828   2.876   3.833  0.0989  0.1667  0.2076
 3350SOL    HW115370   0.759   2.863   3.899  0.0793 -1.0740 -0.0293
 3350SOL    HW215371   0.884   2.799   3.842  0.9005  0.6805 -0.2775
 3351SOL     OW15372  10.460   5.774  10.400 -1.0841 -0.2752  0.5093
 3351SOL    HW115373  10.366   5.791  10.389 -1.1111  0.1129  1.2358
 3351SOL    HW215374  10.488   5.735  10.317 -1.4848  1.3450 -0.4384
 3352SOL     OW15375  11.094   9.039   5.620  0.2732 -0.0169  0.1015
 3352SOL    HW115376  11.032   8.975   5.585 -1.4356  0.6183  1.7923
 3352SOL    HW215377  11.059   9.124   5.594  0.3531  0.3521  1.1351
 3353SOL     OW15378   1.055  11.131  10.943 -0.5711  0.2106 -0.4927
 3353SOL    HW115379   1.063  11.081  10.862 -0.0796  0.2562 -0.4768
 3353SOL    HW215380   0.997  11.078  10.998 -0.4683 -0.0910 -0.6732
 3354SOL     OW15381   5.954   2.122   0.276 -0.1207  0.3754 -0.3480
 3354SOL    HW115382   6.012   2.124   0.199  0.3046  0.4226 -0.0299
 3354SOL    HW215383   5.930   2.214   0.289 -0.7406  0.2903 -0.8271
 3355SOL     OW15384  10.884   4.616   2.516  0.2597 -0.4041  0.1987
 3355SOL    HW115385  10.852   4.582   2.433 -2.8462  1.1412  0.6068
 3355SOL    HW215386  10.897   4.539   2.571  2.9431 -1.4920 -1.8002
 3356SOL     OW15387   2.487   0.524   9.810 -0.1076  0.2704  0.4933
 3356SOL    HW115388   2.431   0.528   9.888 -0.3525 -2.3816  0.5756
 3356SOL    HW215389   2.495   0.430   9.793  3.7683  0.5571  0.0612
 3357SOL     OW15390   8.308   9.201   6.327 -0.7281  0.2453 -0.3469
 3357SOL    HW115391   8.287   9.156   6.245 -0.9277  0.3866 -0.3734
 3357SOL    HW215392   8.304   9.294   6.305 -3.3534  0.3808  0.4319
 3358SOL     OW15393   9.421   8.305   5.798 -0.2676 -0.2758  0.4526
 3358SOL    HW115394   9.472   8.232   5.832  1.4964  0.1394 -1.1226
 3358SOL    HW215395   9.381   8.271   5.718 -1.6384 -0.2819  1.1226
 3359SOL     OW15396   5.339   8.138   3.766  0.5354 -0.0825 -0.2469
 3359SOL    HW115397   5.246   8.145   3.784  0.6780 -0.6973  0.7825
 3359SOL    HW215398   5.349   8.054   3.720  0.7579 -0.7683  1.0100
 3360SOL     OW15399   3.733   9.476   8.615  0.6988  0.5891 -0.3695
 3360SOL    HW115400   3.749   9.406   8.678 -0.6727  0.6498  0.0965
 3360SOL    HW215401   3.766   9.555   8.658  0.6563  0.4796 -0.1309
 3361SOL     OW15402   3.530   4.232   6.687  0.0427  0.0741 -0.2953
 3361SOL    HW115403   3.518   4.290   6.612 -0.2351 -0.4239 -0.6412
 3361SOL    HW215404   3.507   4.145   6.654 -0.8136 -0.0410  0.5694
 3362SOL     OW15405   1.364  10.760   6.808  0.6672  0.0080  0.8938
 3362SOL    HW115406   1.404  10.703   6.742 -0.0037  0.9051 -0.3439
 3362SOL    HW215407   1.302  10.704   6.854 -0.2178 -0.2313 -0.5090
 3363SOL     OW15408   8.940   4.414   6.781  0.3921 -0.4503 -0.4241
 3363SOL    HW115409   9.033   4.436   6.781  0.4421 -0.4720  1.4336
 3363SOL    HW215410   8.905   4.457   6.860 -1.2227 -0.2490 -1.2071
 3364SOL     OW15411   8.251   2.269  11.574 -0.1380  0.4347 -0.1650
 3364SOL    HW115412   8.328   2.240  11.525 -0.9305  0.0448 -1.2210
 3364SOL    HW215413   8.286   2.321  11.646  1.2674 -1.7214  0.8193
 3365SOL     OW15414   8.631   6.528   7.162  0.3747 -0.7029  0.3932
 3365SOL    HW115415   8.626   6.491   7.250 -0.1174  0.8407  1.0519
 3365SOL    HW215416   8.686   6.467   7.113  1.3238 -1.1795  1.9903
 3366SOL     OW15417  11.001   4.989  10.850  0.4953  0.0554 -0.0125
 3366SOL    HW115418  11.037   5.058  10.793 -1.6742  0.5143 -0.9589
 3366SOL    HW215419  10.907   5.008  10.853  0.3758 -0.5337  3.0073
 3367SOL     OW15420   2.117   5.276   2.696 -0.3068  0.1480 -0.0932
 3367SOL    HW115421   2.028   5.311   2.690 -0.6373 -0.8044 -1.0101
 3367SOL    HW215422   2.107   5.192   2.741  0.1257  0.0196 -0.2258
 3368SOL     OW15423   2.838  10.155   0.031  0.0440 -0.1257 -0.5367
 3368SOL    HW115424   2.904  10.210  -0.012 -0.3142  0.6509 -0.1163
 3368SOL    HW215425   2.761  10.161  -0.027  0.4107 -1.2314 -1.1572
 3369SOL     OW15426  11.615   2.845   8.976 -0.1880 -0.1995  0.4276
 3369SOL    HW115427  11.664   2.879   9.050  2.7419 -0.9150 -0.9824
 3369SOL    HW215428  11.610   2.750   8.992  1.0953 -0.4615 -0.5348
 3370SOL     OW15429   9.958   1.340   4.929 -0.0117  0.1548  0.2811
 3370SOL    HW115430   9.878   1.373   4.887  0.8918  0.4599 -1.2483
 3370SOL    HW215431  10.029   1.374   4.876  1.0341 -3.2725 -0.6999
 3371SOL     OW15432   5.633   5.325   3.168 -0.6571 -0.2580  0.4675
 3371SOL    HW115433   5.550   5.330   3.216 -1.2243 -3.3535  0.0268
 3371SOL    HW215434   5.607   5.303   3.078  0.5770 -2.0047  0.4716
 3372SOL     OW15435  10.014   0.321  11.055  0.7310 -0.5246 -0.2081
 3372SOL    HW115436   9.995   0.379  10.982  0.0981 -0.8175 -0.2850
 3372SOL    HW215437   9.973   0.238  11.031 -1.1231 -0.1002  1.2928
 3373SOL     OW15438   5.955   0.096   8.654 -0.0456 -0.8124 -0.2730
 3373SOL    HW115439   5.885   0.048   8.698 -1.2984  0.0377 -1.2608
 3373SOL    HW215440   5.994   0.151   8.722  0.2296 -1.9150  0.4710
 3374SOL     OW15441   3.051   4.909   8.250 -0.1170  0.5380  0.4217
 3374SOL    HW115442   2.975   4.961   8.276 -0.6813 -0.3272  0.5501
 3374SOL    HW215443   3.100   4.897   8.331 -0.0979  0.6974  0.4334
 3375SOL     OW15444   5.152   9.283   2.595 -0.1623 -0.3163 -0.5088
 3375SOL    HW115445   5.156   9.276   2.499 -0.5403 -0.3697 -0.5237
 3375SOL    HW215446   5.068   9.242   2.618  1.2048 -3.0198  0.0985
 3376SOL     OW15447   1.144   6.115   1.443  0.1640 -0.1091 -0.2807
 3376SOL    HW115448   1.102   6.115   1.357  3.1437 -0.0600 -1.8518
 3376SOL    HW215449   1.076   6.082   1.503 -1.5553 -1.6093 -2.8659
 3377SOL     OW15450  10.494   1.120   3.876 -0.3558 -0.1898  0.2256
 3377SOL    HW115451  10.454   1.083   3.798 -2.2068  0.7026  0.6985
 3377SOL    HW215452  10.498   1.046   3.938 -1.2692 -0.3150  0.1520
 3378SOL     OW15453   4.153   3.992   9.251 -0.4172 -0.4640  0.0277
 3378SOL    HW115454   4.123   3.905   9.229  0.2909 -0.4476 -1.0499
 3378SOL    HW215455   4.173   3.987   9.345 -0.0749 -1.5403 -0.0909
 3379SOL     OW15456   7.045   7.535   4.455 -0.4064  0.3212  0.0974
 3379SOL    HW115457   7.048   7.469   4.524 -0.2083 -1.1311 -1.2556
 3379SOL    HW215458   7.135   7.567   4.449 -0.1237 -0.5369 -0.3937
 3380SOL     OW15459   9.563   0.336   7.103  0.2699  0.2429 -0.3432
 3380SOL    HW115460   9.521   0.269   7.158 -0.5756  1.6166  0.7732
 3380SOL    HW215461   9.623   0.288   7.047 -0.5130 -1.4717  0.2341
 3381SOL     OW15462   5.318   6.674   5.208  0.5286 -0.7909  0.6359
 3381SOL    HW115463   5.326   6.713   5.295  1.0296 -2.1772  1.2407
 3381SOL    HW215464   5.408   6.668   5.176  0.3743 -0.6025  0.1562
 3382SOL     OW15465   8.077   8.624  11.421 -0.3240  0.0337  0.4886
 3382SOL    HW115466   8.001   8.602  11.475 -1.3903 -0.2929 -1.0757
 3382SOL    HW215467   8.120   8.696  11.467 -1.6361  0.2813  1.3593
 3383SOL     OW15468  11.196  10.350   7.730  0.8036 -0.2824 -0.5595
 3383SOL    HW115469  11.275  10.397   7.702 -0.4669  0.7299 -2.7534
 3383SOL    HW215470  11.185  10.281   7.664 -1.1492  0.8283 -1.4822
 3384SOL     OW15471   6.083   3.299   4.119  0.1175  0.0446 -0.1333
 3384SOL    HW115472   6.133   3.271   4.043 -1.2789 -0.4929 -0.8772
 3384SOL    HW215473   6.009   3.239   4.124  0.8170 -0.7413  2.4120
 3385SOL     OW15474   7.179   8.422   5.985  0.3671  0.5109 -0.2571
 3385SOL    HW115475   7.255   8.481   5.982  0.1790  0.7705  0.0221
 3385SOL    HW215476   7.144   8.424   5.896  0.5546  0.5647 -0.3310
 3386SOL     OW15477   7.810   8.502  10.304  0.3168  0.2035 -0.2632
 3386SOL    HW115478   7.715   8.504  10.293  0.4887  0.5315 -1.8109
 3386SOL    HW215479   7.834   8.410  10.296  0.2309  0.2302 -0.8407
 3387SOL     OW15480   5.029   5.566   0.626 -0.3801 -0.1334  0.1021
 3387SOL    HW115481   5.092   5.536   0.561  0.0463 -0.2626  0.5744
 3387SOL    HW215482   4.972   5.626   0.577  0.7891  0.8622 -0.0861
 3388SOL     OW15483   8.188   2.572   3.598 -0.2361  0.6347  0.5198
 3388SOL    HW115484   8.174   2.597   3.507  0.0705  0.4957  0.4306
 3388SOL    HW215485   8.256   2.633   3.629  1.5646 -0.9393 -0.1208
 3389SOL     OW15486   1.426   7.606  11.724  0.1371  0.2521 -0.4858
 3389SOL    HW115487   1.339   7.585  11.759  0.5946  3.0070  2.8279
 3389SOL    HW215488   1.480   7.531  11.748 -0.6915 -0.1421  0.2410
 3390SOL     OW15489   2.889   2.191   5.688 -0.2624 -0.6953 -0.3421
 3390SOL    HW115490   2.912   2.098   5.697  0.2928 -0.7367 -1.9114
 3390SOL    HW215491   2.818   2.192   5.624  0.9732  0.0683 -1.7578
 3391SOL     OW15492   4.347   7.960   4.458  0.4390  0.5000 -0.3663
 3391SOL    HW115493   4.292   8.023   4.412 -0.0735 -0.5012 -1.1803
 3391SOL    HW215494   4.290   7.883   4.470  0.6073  0.6595  1.8226
 3392SOL     OW15495   0.685  11.165   7.528 -0.3799 -0.3393 -0.5615
 3392SOL    HW115496   0.737  11.159   7.448  0.7425  1.4687 -0.0248
 3392SOL    HW215497   0.743  11.134   7.597 -1.2141 -1.5381 -0.3737
 3393SOL     OW15498   1.336   5.726   9.520 -0.5711  0.3397 -0.5482
 3393SOL    HW115499   1.301   5.696   9.604  1.1474  0.0553  0.1040
 3393SOL    HW215500   1.301   5.664   9.456  0.2040 -1.0808  0.3381
 3394SOL     OW15501   5.613   5.452   8.115 -0.2180 -0.2739  0.3775
 3394SOL    HW115502   5.588   5.532   8.160  0.9370 -0.5110  1.5014
 3394SOL    HW215503   5.595   5.382   8.178 -1.5276 -0.9644 -0.7072
 3395SOL     OW15504   8.325   8.288   6.439  0.5537 -0.0020  0.0052
 3395SOL    HW115505   8.336   8.375   6.477 -0.9326  0.0269  0.4299
 3395SOL    HW215506   8.364   8.229   6.504 -1.1231  0.1268  1.1948
 3396SOL     OW15507   2.446   6.296   4.587  0.9594  0.4062  0.7511
 3396SOL    HW115508   2.363   6.345   4.588  1.3604  1.1222  2.2116
 3396SOL    HW215509   2.437   6.232   4.657  1.2424 -0.2197  0.2173
 3397SOL     OW15510   1.528   9.447   5.651 -0.0266  0.3152  0.3821
 3397SOL    HW115511   1.550   9.449   5.744 -2.6131  0.5957  1.0598
 3397SOL    HW215512   1.445   9.400   5.647  0.3130 -0.1917 -1.8706
 3398SOL     OW15513   9.997   8.040   6.709 -0.0459 -0.2151  0.8101
 3398SOL    HW115514  10.084   8.005   6.690 -0.3869 -0.1865 -1.0677
 3398SOL    HW215515  10.010   8.135   6.708 -0.0235 -0.2169  0.9308
 3399SOL     OW15516   7.613   5.293  10.430 -0.9981 -0.3155  0.5186
 3399SOL    HW115517   7.706   5.274  10.433 -1.0823 -0.8376  0.0092
 3399SOL    HW215518   7.607   5.388  10.443 -0.3135 -0.0703 -0.8076
 3400SOL     OW15519   4.211   7.993   6.164 -0.0760  0.0337 -0.9260
 3400SOL    HW115520   4.260   7.947   6.095 -2.1102 -2.7377 -0.6639
 3400SOL    HW215521   4.268   8.066   6.188  3.1892 -2.0141 -1.7662
 3401SOL     OW15522  10.493   3.455   7.202  0.2886  0.0051  0.1607
 3401SOL    HW115523  10.412   3.404   7.207  0.3262 -0.0710  0.0118
 3401SOL    HW215524  10.499   3.481   7.110 -0.5640  1.6324  0.5382
 3402SOL     OW15525   6.415   5.488  11.457 -0.1798 -0.0007 -0.1168
 3402SOL    HW115526   6.506   5.464  11.478 -0.1026  1.2396  1.0255
 3402SOL    HW215527   6.417   5.583  11.447 -0.9490 -0.1557 -2.2829
 3403SOL     OW15528   8.079  11.407   9.983  0.8378 -0.3641  0.0672
 3403SOL    HW115529   8.103  11.498   9.967 -0.4259 -0.0043  0.1091
 3403SOL    HW215530   8.098  11.394  10.076 -0.7922  0.4772  0.5536
 3404SOL     OW15531   6.030  11.614   2.093 -0.4630 -0.2920 -0.3935
 3404SOL    HW115532   6.042  11.537   2.149  0.0253  0.5520  0.6954
 3404SOL    HW215533   5.953  11.658   2.129  0.0222  0.4081 -0.1747
 3405SOL     OW15534   8.435  10.148   1.421  0.0812 -0.1489 -0.5888
 3405SOL    HW115535   8.521  10.113   1.396 -0.2185 -1.3363 -0.0389
 3405SOL    HW215536   8.388  10.158   1.338  0.9918  1.2701 -0.9768
 3406SOL     OW15537  11.139   7.177   6.724  0.3024 -0.5176  0.1399
 3406SOL    HW115538  11.172   7.132   6.647 -0.6016 -1.8498  0.4913
 3406SOL    HW215539  11.174   7.266   6.718  1.0204 -0.8819 -1.2893
 3407SOL     OW15540   5.053  11.377   2.697  0.0116 -0.0649 -0.1452
 3407SOL    HW115541   4.996  11.417   2.764 -3.2213 -3.7000 -0.3923
 3407SOL    HW215542   5.005  11.389   2.615  1.0572 -0.7105 -0.8693
 3408SOL     OW15543   8.672   4.362   4.255 -0.7605  0.1519 -0.3295
 3408SOL    HW115544   8.677   4.348   4.160  0.6620  0.6560 -0.3640
 3408SOL    HW215545   8.608   4.432   4.266  0.4407  1.4316 -1.1115
 3409SOL     OW15546   5.047   6.892   1.256 -0.1662 -0.6439 -0.0168
 3409SOL    HW115547   4.972   6.853   1.211 -0.6067  0.9311 -0.6825
 3409SOL    HW215548   5.097   6.936   1.187  0.4429 -0.2171  0.6800
 3410SOL     OW15549  11.210   2.236   6.929  0.0887 -0.4420  0.3727
 3410SOL    HW115550  11.279   2.286   6.973  1.5329 -2.2697  0.3604
 3410SOL    HW215551  11.208   2.152   6.976 -2.0878 -0.4918  0.2909
 3411SOL     OW15552   3.915  10.182   0.299 -0.2759 -0.7522  0.3188
 3411SOL    HW115553   4.007  10.181   0.327 -0.5731  0.2748  1.4219
 3411SOL    HW215554   3.909  10.258   0.241 -0.8764  0.6515  2.0889
 3412SOL     OW15555   7.968   7.468   6.961 -0.5210  0.2952 -0.1847
 3412SOL    HW115556   7.939   7.390   6.914 -0.5996  0.2246 -0.0203
 3412SOL    HW215557   7.904   7.478   7.031 -0.7062  0.7016 -0.4097
 3413SOL     OW15558   6.645   9.552   2.276 -0.4068 -0.5908 -0.3553
 3413SOL    HW115559   6.568   9.600   2.306 -0.9431 -2.0327  0.7058
 3413SOL    HW215560   6.611   9.466   2.252  0.5613 -0.5491 -1.9759
 3414SOL     OW15561   4.833   6.150   0.591  0.3689  0.1739 -0.0144
 3414SOL    HW115562   4.915   6.128   0.636  0.2703 -0.1314  0.0165
 3414SOL    HW215563   4.860   6.164   0.500  0.4369 -0.0754 -0.0359
 3415SOL     OW15564  10.423   5.036   0.461  0.4753 -0.3343 -0.1552
 3415SOL    HW115565  10.474   5.108   0.498  1.9195 -1.7458  0.7024
 3415SOL    HW215566  10.351   5.079   0.414  1.8355  1.6878 -0.4923
 3416SOL     OW15567   6.222   4.327   5.470  0.0985 -0.0400 -0.0102
 3416SOL    HW115568   6.265   4.399   5.517 -0.1797 -0.0554  0.2685
 3416SOL    HW215569   6.137   4.317   5.514  0.4810 -1.1204  0.5108
 3417SOL     OW15570   4.606   1.773  11.710  0.5923  0.1524  0.1623
 3417SOL    HW115571   4.574   1.833  11.642  0.4450  0.7809  0.7715
 3417SOL    HW215572   4.684   1.816  11.744  1.0179 -0.4636 -0.0297
 3418SOL     OW15573  10.859   5.601   0.686 -0.2274  0.0082  0.6256
 3418SOL    HW115574  10.856   5.572   0.595  0.2360  0.2570  0.5268
 3418SOL    HW215575  10.807   5.681   0.688  0.4024  0.4359  0.4068
 3419SOL     OW15576   0.797   9.062   8.631  0.0454  0.1177 -0.0401
 3419SOL    HW115577   0.848   9.124   8.579  1.1344 -0.0152  0.8022
 3419SOL    HW215578   0.753   9.007   8.567  1.5689 -0.2235 -0.8429
 3420SOL     OW15579   8.482   0.431   7.920 -0.3509 -0.3667 -0.2573
 3420SOL    HW115580   8.393   0.408   7.895 -0.4674 -1.0394  0.7730
 3420SOL    HW215581   8.536   0.362   7.882 -0.6571 -2.2119  2.4239
 3421SOL     OW15582   0.105   6.497  11.191 -0.3019 -0.2696  0.1499
 3421SOL    HW115583   0.165   6.442  11.140 -0.1433  0.5418 -0.5745
 3421SOL    HW215584   0.157   6.526  11.266  0.7435  1.5605 -1.1836
 3422SOL     OW15585   4.061   3.852  11.364 -0.2041  0.3757  0.4260
 3422SOL    HW115586   4.018   3.795  11.301 -0.0054  0.5037  0.1718
 3422SOL    HW215587   4.138   3.885  11.318  1.0296 -1.0387  1.3664
 3423SOL     OW15588   6.016   7.207   3.698 -0.1672  0.2552  0.4794
 3423SOL    HW115589   6.002   7.116   3.725 -2.0478  0.2716 -0.3167
 3423SOL    HW215590   5.941   7.254   3.734 -0.8486  0.9153 -1.6484
 3424SOL     OW15591   7.540   6.406   3.513  0.1444  0.1408 -0.4362
 3424SOL    HW115592   7.582   6.436   3.433 -1.0018 -0.2634 -1.2149
 3424SOL    HW215593   7.498   6.323   3.489  0.6426 -0.5093  0.8554
 3425SOL     OW15594   0.103   1.906  11.514  0.4754  0.6161  0.1879
 3425SOL    HW115595   0.101   1.959  11.594  0.6842  1.3200 -0.2633
 3425SOL    HW215596   0.150   1.960  11.451  1.9794 -0.6992  0.1156
 3426SOL     OW15597  10.317  11.808   4.710  0.9969 -0.7837  0.2166
 3426SOL    HW115598  10.372  11.872   4.665 -0.7431 -0.0936 -1.0257
 3426SOL    HW215599  10.342  11.815   4.802  1.3899  1.1060  0.0030
 3427SOL     OW15600   2.164   1.081  11.656  0.0741  0.3142 -0.0805
 3427SOL    HW115601   2.116   1.077  11.573 -0.8016 -3.3571  0.4279
 3427SOL    HW215602   2.116   1.023  11.714  1.7008  1.3603  2.4857
 3428SOL     OW15603   7.491   9.386   3.541 -0.0540 -0.1077  0.2073
 3428SOL    HW115604   7.439   9.339   3.606  0.0803  0.9768  1.1234
 3428SOL    HW215605   7.582   9.363   3.561 -0.0713 -0.7382 -0.3874
 3429SOL     OW15606   1.141   9.022   3.912 -0.2081 -0.0499  0.2074
 3429SOL    HW115607   1.136   8.950   3.974  3.2316 -0.5321  0.1232
 3429SOL    HW215608   1.168   9.097   3.964  0.0496  0.1955 -0.2664
 3430SOL     OW15609   3.399   8.944   1.900 -0.0852  0.1827 -0.1030
 3430SOL    HW115610   3.379   9.028   1.858 -0.3388  1.5566  2.5236
 3430SOL    HW215611   3.488   8.955   1.934  0.7311 -1.4796 -1.5898
 3431SOL     OW15612   5.354   4.773   4.804 -0.4277 -0.1612 -0.6755
 3431SOL    HW115613   5.311   4.832   4.866  2.3307 -0.0250  1.3058
 3431SOL    HW215614   5.300   4.693   4.806 -0.7565  0.0329  1.5598
 3432SOL     OW15615   6.003  11.323   8.287  0.3467 -0.0287  0.3568
 3432SOL    HW115616   6.012  11.288   8.376 -1.7358 -2.1164 -0.1700
 3432SOL    HW215617   5.917  11.366   8.287  0.6084  0.5325 -0.5030
 3433SOL     OW15618   9.480  11.765  10.657 -0.2251 -0.0408 -0.3786
 3433SOL    HW115619   9.543  11.697  10.635  0.5446  0.8224 -0.9441
 3433SOL    HW215620   9.524  11.847  10.633 -1.5221  0.5937 -0.7139
 3434SOL     OW15621   2.937   7.222   5.653  0.0916  0.2792  0.4339
 3434SOL    HW115622   2.919   7.227   5.559  0.0039  1.1645  0.4968
 3434SOL    HW215623   3.032   7.210   5.659 -0.0296 -1.0107  0.2099
 3435SOL     OW15624   0.299   7.526   1.754 -0.0257  0.6197  0.3677
 3435SOL    HW115625   0.385   7.529   1.712 -0.1058 -0.0624  0.1381
 3435SOL    HW215626   0.314   7.480   1.837  0.0188  1.4235  0.8095
 3436SOL     OW15627   3.640   2.707  10.381 -0.2945 -0.0451 -0.2240
 3436SOL    HW115628   3.597   2.721  10.465 -0.8315  1.2481 -0.6756
 3436SOL    HW215629   3.619   2.616  10.358  1.0211 -0.8649  1.6407
 3437SOL     OW15630   9.974   4.977   7.132  0.0596  0.1404  0.0653
 3437SOL    HW115631  10.021   5.000   7.051 -0.0037 -0.6355 -0.1941
 3437SOL    HW215632   9.986   5.053   7.189  1.2931  0.1178 -0.1472
 3438SOL     OW15633   4.419   8.796   1.311  0.5104  0.6813 -0.5568
 3438SOL    HW115634   4.425   8.707   1.276  1.3256  0.3864  0.2930
 3438SOL    HW215635   4.327   8.807   1.333  0.2905  0.2711 -1.2286
 3439SOL     OW15636   9.181   1.742   2.910 -0.2202  0.2579 -0.9003
 3439SOL    HW115637   9.140   1.746   2.824 -0.0763 -0.2287 -0.9927
 3439SOL    HW215638   9.187   1.648   2.930 -0.4170  0.3703 -0.2827
 3440SOL     OW15639   5.614   7.143   1.343 -0.0976  0.1284 -0.0350
 3440SOL    HW115640   5.598   7.225   1.389  0.0030 -0.5066  1.2065
 3440SOL    HW215641   5.533   7.093   1.354 -1.2670  1.0963 -3.2465
 3441SOL     OW15642   7.598   4.313   1.546  0.1313  0.8902 -0.0444
 3441SOL    HW115643   7.552   4.280   1.623  0.3289  0.3071 -0.1740
 3441SOL    HW215644   7.573   4.254   1.475  0.1377  1.2825 -0.3798
 3442SOL     OW15645   1.266   5.942   1.149  0.3818  0.1698 -0.1207
 3442SOL    HW115646   1.183   5.988   1.167  0.5101  0.1837  0.4582
 3442SOL    HW215647   1.291   5.971   1.061 -1.2629 -1.3705 -1.1848
 3443SOL     OW15648  11.646   1.671   9.943 -0.8004  0.0830 -0.3231
 3443SOL    HW115649  11.725   1.702   9.899 -0.1351  0.3822  1.0321
 3443SOL    HW215650  11.634   1.582   9.910  0.7288 -0.3597  0.2121
 3444SOL     OW15651  10.287   4.630   3.582  0.6534  0.4490 -0.4866
 3444SOL    HW115652  10.206   4.579   3.580  0.5583  0.6106 -1.1278
 3444SOL    HW215653  10.314   4.630   3.674  1.1676 -1.5392 -0.5970
 3445SOL     OW15654   3.204   8.706   0.531  0.2384 -0.2424 -0.0501
 3445SOL    HW115655   3.232   8.780   0.478 -1.3858  0.0281 -0.5871
 3445SOL    HW215656   3.270   8.699   0.600  0.8571  1.1732 -0.4721
 3446SOL     OW15657   8.592  11.543   1.672 -0.2468 -0.2013 -0.0902
 3446SOL    HW115658   8.512  11.565   1.624  0.3409 -0.7255 -1.3445
 3446SOL    HW215659   8.632  11.627   1.692 -1.1638  0.0705  0.6573
 3447SOL     OW15660  10.343   8.285  10.251 -0.1142 -0.3544 -0.0103
 3447SOL    HW115661  10.284   8.277  10.176 -0.5626  0.6044  0.2237
 3447SOL    HW215662  10.322   8.208  10.305  0.0771 -0.9456 -0.7632
 3448SOL     OW15663   7.145   4.497   4.281 -0.1721 -0.2029 -0.7745
 3448SOL    HW115664   7.054   4.510   4.254  0.0015 -0.0921 -1.3311
 3448SOL    HW215665   7.176   4.584   4.306  0.7093  0.4149 -3.6082
 3449SOL     OW15666   5.363   8.548   6.442  0.3638  1.1110 -0.5792
 3449SOL    HW115667   5.350   8.643   6.443  0.3171  1.1828  2.2807
 3449SOL    HW215668   5.274   8.511   6.442  0.3082  1.1778  1.0196
 3450SOL     OW15669   4.965   8.832   9.584 -0.2854 -0.0074 -0.0614
 3450SOL    HW115670   5.001   8.786   9.508 -1.0089  0.2852 -0.5922
 3450SOL    HW215671   4.871   8.835   9.567 -0.3428  0.9354  0.3726
 3451SOL     OW15672   5.381   2.833   6.892 -0.5618  0.1996  0.1975
 3451SOL    HW115673   5.298   2.790   6.869 -0.7307  1.0815 -0.9936
 3451SOL    HW215674   5.437   2.820   6.815  0.8270 -1.3066  1.4041
 3452SOL     OW15675   7.649  10.643   4.157 -0.0917  0.4860 -0.0164
 3452SOL    HW115676   7.606  10.572   4.109  0.3379 -1.4415  2.3034
 3452SOL    HW215677   7.721  10.669   4.100 -0.9016 -0.1753 -1.4008
 3453SOL     OW15678   3.525   3.605   9.576 -0.0755  0.2510 -0.1179
 3453SOL    HW115679   3.601   3.648   9.535  2.4503 -1.2728  2.5555
 3453SOL    HW215680   3.485   3.672   9.630  1.1875  0.4378  0.6459
 3454SOL     OW15681   5.028   6.170   9.029 -0.7261  0.1593 -0.3210
 3454SOL    HW115682   5.046   6.162   9.123 -1.5872 -0.4293 -0.1882
 3454SOL    HW215683   4.952   6.228   9.024 -1.7865 -1.1844 -0.5083
 3455SOL     OW15684   7.256   9.449  11.247 -0.9540 -0.4911  0.3614
 3455SOL    HW115685   7.183   9.476  11.302 -2.0354 -0.6483 -0.9321
 3455SOL    HW215686   7.220   9.448  11.158  0.7097 -0.2955 -0.3516
 3456SOL     OW15687  10.278   6.297  10.129 -0.3250  0.0754  0.7030
 3456SOL    HW115688  10.240   6.239  10.064  0.7231  1.4492 -1.2456
 3456SOL    HW215689  10.207   6.357  10.152 -0.8175 -0.6699  1.1693
 3457SOL     OW15690   6.205  10.261   8.101  0.4362 -0.0090 -0.7220
 3457SOL    HW115691   6.196  10.194   8.033  0.5249 -0.2726 -0.4798
 3457SOL    HW215692   6.186  10.215   8.182 -1.0127  0.6219 -0.6776
 3458SOL     OW15693   7.667   0.493   2.329 -0.0469  0.3597 -0.2145
 3458SOL    HW115694   7.697   0.581   2.308  0.1655  0.9389  2.1883
 3458SOL    HW215695   7.742   0.452   2.373  0.2868 -1.5014 -2.3335
 3459SOL     OW15696   1.388   3.848   2.581  0.2880 -0.1252  0.0551
 3459SOL    HW115697   1.418   3.930   2.620  2.0441  0.3073 -2.0105
 3459SOL    HW215698   1.456   3.784   2.603 -0.7870 -0.9142  1.1698
 3460SOL     OW15699   9.061   0.701   5.172 -0.0085 -0.0805 -0.0831
 3460SOL    HW115700   9.086   0.742   5.089 -0.7337  1.0408  0.2406
 3460SOL    HW215701   8.994   0.637   5.147  0.0593 -0.0261 -0.4096
 3461SOL     OW15702   9.128   1.269   1.159  0.3119  0.2315 -0.0433
 3461SOL    HW115703   9.059   1.331   1.182  0.6864  0.1403  1.3939
 3461SOL    HW215704   9.084   1.204   1.103 -0.2397  1.3624 -0.9784
 3462SOL     OW15705   0.577   8.604   4.311 -0.3353  0.3255 -0.3597
 3462SOL    HW115706   0.560   8.696   4.290 -2.2226  0.3153  0.8271
 3462SOL    HW215707   0.546   8.595   4.401 -0.2301 -1.4973 -0.4826
 3463SOL     OW15708   7.112   9.220   3.486  0.4467  0.5158  0.1331
 3463SOL    HW115709   7.089   9.308   3.458  0.6615  0.5120 -0.0584
 3463SOL    HW215710   7.132   9.229   3.579 -1.2090  0.3580  0.5470
 3464SOL     OW15711  11.082   4.041   3.217 -0.3690  0.2628  0.1970
 3464SOL    HW115712  11.069   4.052   3.122  1.6286 -0.0168 -0.1551
 3464SOL    HW215713  11.068   4.129   3.253  0.8945  0.8458 -0.6522
 3465SOL     OW15714   6.886   9.699   8.154  0.3834 -0.3194  0.3266
 3465SOL    HW115715   6.967   9.677   8.201  0.7379  1.7276  0.8005
 3465SOL    HW215716   6.822   9.718   8.223 -0.0937 -0.6045 -0.0366
 3466SOL     OW15717   6.851   1.161   8.086 -0.1399  0.4541  0.1526
 3466SOL    HW115718   6.816   1.102   8.019 -0.0197 -0.5139  0.9071
 3466SOL    HW215719   6.819   1.248   8.061 -2.5591 -0.2618  0.4282
 3467SOL     OW15720   9.002   5.572   8.466 -0.2915  0.1102 -0.5481
 3467SOL    HW115721   8.996   5.555   8.372 -0.2525 -0.2519 -0.4846
 3467SOL    HW215722   9.032   5.490   8.504 -0.6600  0.1415 -0.1744
 3468SOL     OW15723   9.316   9.546   3.001 -0.2809 -0.4278  0.6027
 3468SOL    HW115724   9.334   9.639   2.984 -3.4229 -0.0556 -1.5404
 3468SOL    HW215725   9.321   9.506   2.914  0.4844 -2.2057  1.4300
 3469SOL     OW15726   9.072   3.280   9.892  0.1092  0.3683 -0.8167
 3469SOL    HW115727   9.079   3.211   9.958  0.7010  0.1432 -1.1083
 3469SOL    HW215728   9.015   3.346   9.932 -1.0309 -0.5944 -0.7948
 3470SOL     OW15729   7.642   6.311   5.157 -0.0585 -0.1438  0.1285
 3470SOL    HW115730   7.551   6.322   5.183  0.3199  1.2640  0.9768
 3470SOL    HW215731   7.642   6.233   5.102 -1.5122 -1.1176  1.4111
 3471SOL     OW15732   0.342   0.376   7.357  0.2993  0.0217  0.8158
 3471SOL    HW115733   0.281   0.307   7.330  0.6884 -0.7250  1.7982
 3471SOL    HW215734   0.382   0.406   7.275  0.3088 -1.1017  0.3879
 3472SOL     OW15735   7.727  10.310   4.072  0.4822 -0.3734 -0.1787
 3472SOL    HW115736   7.752  10.218   4.065  0.1861 -0.5464  0.9541
 3472SOL    HW215737   7.767  10.341   4.153  0.3486  0.4283 -0.4011
 3473SOL     OW15738   7.446  10.700  10.353  0.4821 -0.3897 -0.1505
 3473SOL    HW115739   7.479  10.762  10.418  0.1647 -0.6126  0.2338
 3473SOL    HW215740   7.361  10.672  10.389  0.0290 -0.0726 -0.9491
 3474SOL     OW15741  10.593   4.056   3.402  0.5978 -0.3541  0.0893
 3474SOL    HW115742  10.572   4.139   3.360 -0.2135 -0.1535  0.8799
 3474SOL    HW215743  10.632   4.003   3.331  0.7210  0.5250 -0.5232
 3475SOL     OW15744   7.971   4.159   7.691  0.4449  0.4338  0.1645
 3475SOL    HW115745   7.895   4.119   7.649  1.3740  1.1199 -2.4043
 3475SOL    HW215746   7.986   4.108   7.770 -0.1963 -2.3898 -1.4056
 3476SOL     OW15747  10.105   1.202  10.823  0.2541  0.6950 -0.5286
 3476SOL    HW115748  10.035   1.179  10.884  0.4110  1.6357  0.0283
 3476SOL    HW215749  10.158   1.122  10.816 -1.2223 -0.2531 -1.4804
 3477SOL     OW15750   2.587  11.528   6.338 -0.2625 -0.3350 -0.3392
 3477SOL    HW115751   2.549  11.444   6.364  0.5332 -0.2450  1.2236
 3477SOL    HW215752   2.565  11.587   6.410 -3.1453  1.6101 -2.5634
 3478SOL     OW15753  10.675  10.955   5.256 -0.7808 -0.0125  0.3890
 3478SOL    HW115754  10.688  10.979   5.164  0.0871 -1.8728 -0.0204
 3478SOL    HW215755  10.744  11.002   5.303 -1.4161  1.1867  0.1500
 3479SOL     OW15756   5.993   5.756   5.748 -0.0115 -0.1282  1.1627
 3479SOL    HW115757   5.959   5.836   5.787 -1.3397 -0.3241  0.4718
 3479SOL    HW215758   6.022   5.703   5.822  0.9244  0.9929  1.6187
 3480SOL     OW15759   0.491   4.978   9.984 -0.2302  0.0754  0.4144
 3480SOL    HW115760   0.577   4.968  10.024  0.2362 -1.5825 -0.9243
 3480SOL    HW215761   0.455   5.057  10.025  1.2721 -0.0667  2.1290
 3481SOL     OW15762   9.978   8.514   4.592 -0.2097 -0.1986 -0.0289
 3481SOL    HW115763  10.054   8.552   4.635 -1.0779  1.1038  0.4355
 3481SOL    HW215764   9.904   8.537   4.649 -1.0074 -1.0876 -0.6608
 3482SOL     OW15765   8.647   4.236   4.649 -0.4431  0.1925 -0.2851
 3482SOL    HW115766   8.686   4.314   4.610  0.1341  0.5770  1.0121
 3482SOL    HW215767   8.612   4.266   4.733 -2.4813 -0.4161 -0.8704
 3483SOL     OW15768  11.437  11.530   8.815  0.6940  0.2081  0.4542
 3483SOL    HW115769  11.389  11.463   8.767  1.4556 -1.0760  1.4212
 3483SOL    HW215770  11.501  11.563   8.752  0.0583  0.3185 -0.1454
 3484SOL     OW15771   5.762   9.610   4.858  0.5102 -0.3357 -0.4741
 3484SOL    HW115772   5.726   9.688   4.902 -0.2672 -1.3328  0.7377
 3484SOL    HW215773   5.691   9.581   4.801  0.1415 -1.1119  0.3558
 3485SOL     OW15774   0.834   4.796   1.309 -0.7851  0.5964 -0.3171
 3485SOL    HW115775   0.806   4.705   1.294 -1.6115  0.6348  0.8051
 3485SOL    HW215776   0.757   4.838   1.346 -0.8884  2.1789 -2.1998
 3486SOL     OW15777   2.772   4.291  10.552  0.1958  0.0778 -0.1288
 3486SOL    HW115778   2.735   4.274  10.465 -0.7148  0.6214  0.1404
 3486SOL    HW215779   2.696   4.301  10.609  0.7425  1.5213  0.3866
 3487SOL     OW15780   1.916   6.834   9.557  0.2635 -0.0704  0.0398
 3487SOL    HW115781   1.965   6.883   9.623  0.2021  1.3815 -0.9317
 3487SOL    HW215782   1.982   6.802   9.496  0.1500  0.6705 -0.4927
 3488SOL     OW15783   4.473   0.024   4.150  0.0258  0.1126  0.4611
 3488SOL    HW115784   4.435  -0.055   4.186 -1.7969  1.0349  0.6564
 3488SOL    HW215785   4.451   0.093   4.213  2.1178  0.7107  0.6275
 3489SOL     OW15786   4.222   1.234   9.266 -0.2630  0.3034  0.4340
 3489SOL    HW115787   4.305   1.229   9.313 -0.6760  1.8338  1.4196
 3489SOL    HW215788   4.244   1.212   9.176  0.7224 -1.7898  1.1336
 3490SOL     OW15789   7.406   0.590   5.717 -0.2726  0.1244  0.1914
 3490SOL    HW115790   7.474   0.524   5.729 -0.3959 -0.0631 -0.1330
 3490SOL    HW215791   7.424   0.628   5.631 -1.7167 -1.2753 -0.7898
 3491SOL     OW15792   6.821   0.695   4.711 -0.1446  0.2294  0.2306
 3491SOL    HW115793   6.854   0.699   4.621  1.0176 -1.7561  0.4991
 3491SOL    HW215794   6.746   0.754   4.712 -1.3800 -1.1021 -2.5684
 3492SOL     OW15795   8.623   1.408   4.280  0.0833 -0.6848  0.2905
 3492SOL    HW115796   8.665   1.494   4.289  1.7182 -1.6405  2.9963
 3492SOL    HW215797   8.580   1.394   4.364  0.5710 -2.8354  0.2475
 3493SOL     OW15798   4.036   4.607   1.852 -0.4790  0.0981  0.1500
 3493SOL    HW115799   4.014   4.523   1.894 -1.1817 -0.3248 -1.0135
 3493SOL    HW215800   4.076   4.658   1.922 -0.8175 -0.8964  1.1142
 3494SOL     OW15801   7.816   9.100   4.517  0.2166 -0.0424  0.6402
 3494SOL    HW115802   7.752   9.040   4.479  1.8219  0.0211 -2.4528
 3494SOL    HW215803   7.867   9.046   4.577 -0.6254 -0.8550  0.6570
 3495SOL     OW15804   5.829   9.477   6.513  0.1964 -0.9047 -0.2454
 3495SOL    HW115805   5.843   9.522   6.596 -0.2457 -0.0529 -0.6207
 3495SOL    HW215806   5.733   9.474   6.503  0.1791  2.0669 -2.2993
 3496SOL     OW15807   4.708   7.179   4.217 -0.0210 -0.0810 -0.0715
 3496SOL    HW115808   4.753   7.255   4.182 -0.5558 -0.6067 -2.0484
 3496SOL    HW215809   4.678   7.206   4.303  0.2646  1.7564 -0.5105
 3497SOL     OW15810  10.333   1.683   6.488  0.0866  0.1770 -0.2016
 3497SOL    HW115811  10.321   1.655   6.397  0.0771  0.7660 -0.3835
 3497SOL    HW215812  10.424   1.710   6.493  0.6423 -1.6337  0.4628
 3498SOL     OW15813   6.645  11.185   1.568  0.7118  0.1975 -0.1028
 3498SOL    HW115814   6.702  11.108   1.562 -0.7114 -1.1012  1.6555
 3498SOL    HW215815   6.559  11.149   1.590  0.3313  2.3470  2.4038
 3499SOL     OW15816   8.285   1.589   1.549 -0.8437 -0.0247  0.3683
 3499SOL    HW115817   8.313   1.568   1.460  0.4269 -2.4985  1.2420
 3499SOL    HW215818   8.205   1.639   1.538 -2.7339 -3.2262 -2.2079
 3500SOL     OW15819   6.078   6.103   0.982  0.0058  0.0939 -0.1277
 3500SOL    HW115820   6.019   6.041   0.940 -0.2351  0.5398 -0.4552
 3500SOL    HW215821   6.035   6.125   1.064  0.4798 -0.7843  0.3705
 3501SOL     OW15822   5.989  10.569   8.424 -0.0775 -0.2002  0.3317
 3501SOL    HW115823   6.026  10.610   8.346 -1.1304 -0.3635 -0.2778
 3501SOL    HW215824   5.986  10.476   8.402 -0.4198 -0.2412  0.5550
 3502SOL     OW15825  10.972   7.081   3.352  0.0174 -0.0356 -0.0810
 3502SOL    HW115826  10.882   7.053   3.368 -0.1696 -0.3503 -1.4787
 3502SOL    HW215827  10.965   7.147   3.283  0.7714  0.8445  0.6510
 3503SOL     OW15828   8.577   6.042   3.943  0.5501  0.1827  0.1845
 3503SOL    HW115829   8.513   6.004   3.882  0.5818  0.4511 -0.0184
 3503SOL    HW215830   8.607   5.968   3.996  1.0162 -0.1785 -0.5670
 3504SOL     OW15831   8.317   1.384  11.214  0.7148  0.3385 -0.3707
 3504SOL    HW115832   8.274   1.306  11.180 -0.3170  0.6435  0.1997
 3504SOL    HW215833   8.375   1.352  11.283  0.1201  0.0879  0.0247
 3505SOL     OW15834   6.275   1.429   8.476  0.2401 -0.2959 -0.0286
 3505SOL    HW115835   6.255   1.480   8.555  1.5867 -0.3773  0.3921
 3505SOL    HW215836   6.224   1.349   8.485 -0.1675  0.0106  0.4075
 3506SOL     OW15837   4.542   3.243   6.427 -0.2275  0.4942  0.0130
 3506SOL    HW115838   4.589   3.271   6.349  1.1001 -1.0887  0.1799
 3506SOL    HW215839   4.542   3.319   6.484  1.9016  0.6561 -0.1341
 3507SOL     OW15840   0.723   1.605  11.625 -0.2174 -0.1247  0.1879
 3507SOL    HW115841   0.713   1.695  11.656 -1.5239  0.3864 -1.5470
 3507SOL    HW215842   0.642   1.561  11.650  0.3604 -0.8223  0.9162
 3508SOL     OW15843   5.947   0.804   8.706 -0.2785  0.5324  0.5961
 3508SOL    HW115844   5.904   0.741   8.648  1.0486 -0.0803  0.2470
 3508SOL    HW215845   5.890   0.881   8.703 -0.9845 -0.0027 -0.3916
 3509SOL     OW15846  10.906  11.492   4.320  0.4192 -0.0035 -0.0673
 3509SOL    HW115847  10.883  11.517   4.409  1.1350 -0.5121  0.2661
 3509SOL    HW215848  10.848  11.545   4.265  1.5637  2.0400  0.5941
 3510SOL     OW15849   0.424  10.599   1.687 -0.5645 -0.4301  0.0443
 3510SOL    HW115850   0.343  10.646   1.667  0.2830  1.0863  0.0327
 3510SOL    HW215851   0.444  10.623   1.778  0.7601  0.6308 -0.4932
 3511SOL     OW15852   7.455   0.364   0.362  0.5369  0.4851  0.3716
 3511SOL    HW115853   7.448   0.284   0.310  1.6323  0.3122  0.4528
 3511SOL    HW215854   7.543   0.396   0.343 -0.0956  1.9984 -0.1082
 3512SOL     OW15855   1.071   6.568   6.837  0.1535 -0.0094 -0.1630
 3512SOL    HW115856   1.103   6.478   6.834  0.8837  0.1777  0.9647
 3512SOL    HW215857   1.142   6.616   6.881 -1.0911  0.7039  1.1513
 3513SOL     OW15858   5.621   0.954   2.669  0.4484 -0.2165 -0.2180
 3513SOL    HW115859   5.715   0.939   2.683 -0.0972 -1.9132  2.2012
 3513SOL    HW215860   5.590   0.875   2.625 -0.1301 -0.5022  0.6674
 3514SOL     OW15861  10.971   7.554  10.186  0.5092 -0.2379  0.0329
 3514SOL    HW115862  11.024   7.589  10.258  1.7125 -0.4574 -0.7230
 3514SOL    HW215863  10.958   7.629  10.127 -1.3016  0.1930  0.9122
 3515SOL     OW15864   9.336   9.385   9.295 -0.1628  0.5694 -0.0794
 3515SOL    HW115865   9.253   9.405   9.252  1.1133 -0.1735 -3.1237
 3515SOL    HW215866   9.383   9.469   9.296 -0.8115  0.9658  1.5476
 3516SOL     OW15867  11.206  10.992   2.127 -0.3271 -0.4228 -0.1797
 3516SOL    HW115868  11.122  10.993   2.081 -0.8111 -1.9566  0.5960
 3516SOL    HW215869  11.191  10.935   2.202  1.1356  0.0959  0.5362
 3517SOL     OW15870   1.923   1.924   8.881 -0.0956  0.1990  0.0354
 3517SOL    HW115871   2.004   1.896   8.924  0.7270  0.5221 -1.2464
 3517SOL    HW215872   1.943   2.011   8.848 -1.7798  1.3336  1.7575
 3518SOL     OW15873   4.943  11.307   0.779  0.7743 -0.1252 -0.0463
 3518SOL    HW115874   4.892  11.274   0.705  1.3740 -3.1418  0.7632
 3518SOL    HW215875   4.965  11.397   0.754 -0.9866 -0.2574 -2.4550
 3519SOL     OW15876   1.952   1.411   4.666  0.1691  0.0554  0.9111
 3519SOL    HW115877   1.975   1.329   4.623  0.2133  0.1774  0.6999
 3519SOL    HW215878   2.035   1.447   4.697  0.4629  1.1543 -1.0233
 3520SOL     OW15879   8.078   6.810  10.172  0.3443  0.1900  0.1111
 3520SOL    HW115880   7.993   6.842  10.200  0.6344  0.6039  0.5272
 3520SOL    HW215881   8.120   6.886  10.131  0.6045  0.0501  0.1142
 3521SOL     OW15882   3.088   8.655   7.073 -0.2276  0.1086  0.4818
 3521SOL    HW115883   3.008   8.605   7.090 -0.6659  0.7096  0.2159
 3521SOL    HW215884   3.100   8.709   7.152  0.8001 -1.1204  1.2037
 3522SOL     OW15885   8.250   0.626   0.113  0.1037  0.0753 -0.2829
 3522SOL    HW115886   8.269   0.701   0.057 -1.4038  0.7808  0.0993
 3522SOL    HW215887   8.320   0.626   0.178  0.3165  0.9413 -0.5010
 3523SOL     OW15888   0.090   8.854   6.356  0.7189  0.2299  0.4703
 3523SOL    HW115889   0.098   8.942   6.392 -1.1046  0.9139 -0.6352
 3523SOL    HW215890   0.081   8.797   6.432  1.4266  1.0578  1.1894
 3524SOL     OW15891   6.970  10.047   8.052 -0.0511 -0.3514  0.2495
 3524SOL    HW115892   7.001  10.129   8.090  0.0705  0.5396 -1.6650
 3524SOL    HW215893   6.879  10.064   8.027 -0.0049 -0.7700 -0.2341
 3525SOL     OW15894   4.662   2.513   6.904  0.1462  0.2502  0.5536
 3525SOL    HW115895   4.656   2.572   6.980  0.7865  0.9614  0.0612
 3525SOL    HW215896   4.747   2.471   6.913  0.3035  0.4759  0.1335
 3526SOL     OW15897   2.375   5.766   1.118 -0.1038 -0.1929 -0.2503
 3526SOL    HW115898   2.449   5.707   1.132 -1.0682 -1.2855  0.5537
 3526SOL    HW215899   2.392   5.840   1.175  0.6610 -0.1494 -0.5285
 3527SOL     OW15900   0.288   6.879   3.294  0.1747  0.0446 -0.4404
 3527SOL    HW115901   0.349   6.914   3.229 -0.7735 -0.3500 -1.5853
 3527SOL    HW215902   0.340   6.817   3.345  0.8485  0.0827 -1.0629
 3528SOL     OW15903   2.526   0.149  10.980  0.1781  0.1710  0.0191
 3528SOL    HW115904   2.510   0.242  10.967 -1.4221 -0.1792 -0.7304
 3528SOL    HW215905   2.603   0.130  10.927  2.0053  1.5002  2.0424
 3529SOL     OW15906   6.556   0.114   4.745 -0.1054  0.1624 -0.2544
 3529SOL    HW115907   6.532   0.099   4.654 -1.3984  3.1843 -0.5224
 3529SOL    HW215908   6.482   0.160   4.783  0.6198 -0.5394  2.2342
 3530SOL     OW15909   6.479   6.575   6.314 -0.1958  0.1397  0.1433
 3530SOL    HW115910   6.518   6.564   6.227 -1.3901  0.0362 -0.3992
 3530SOL    HW215911   6.389   6.546   6.303 -0.7421  1.4015  1.0785
 3531SOL     OW15912  11.381   9.422  10.375 -0.5371  0.2603 -0.1445
 3531SOL    HW115913  11.380   9.488  10.445 -1.6405 -0.4419  0.5373
 3531SOL    HW215914  11.392   9.473  10.295 -2.8095  1.4510  0.2199
 3532SOL     OW15915   9.416   4.440   2.023 -0.3802 -0.1982 -0.0159
 3532SOL    HW115916   9.420   4.404   1.934 -1.6881 -1.1430  0.2710
 3532SOL    HW215917   9.339   4.496   2.022 -0.2846 -0.0605  0.4696
 3533SOL     OW15918   3.674  10.545   6.358  0.0548  0.1152  0.4644
 3533SOL    HW115919   3.622  10.618   6.391  0.7316  0.1415  1.5020
 3533SOL    HW215920   3.634  10.523   6.274 -1.0376  0.7470  0.8071
 3534SOL     OW15921   3.575   0.703   5.531 -0.2637  0.5444 -0.0347
 3534SOL    HW115922   3.629   0.724   5.454  0.1558 -0.8523 -0.1552
 3534SOL    HW215923   3.485   0.700   5.497 -0.0449 -0.4027 -0.5589
 3535SOL     OW15924   5.748   3.434   3.548  0.2555 -0.1841 -0.5107
 3535SOL    HW115925   5.804   3.378   3.601  0.5124  1.0766  0.5917
 3535SOL    HW215926   5.808   3.490   3.500 -0.0306  0.0888 -0.5519
 3536SOL     OW15927   5.991   8.756   2.496 -0.1931 -0.3300 -0.4413
 3536SOL    HW115928   5.905   8.790   2.519  0.5492 -0.4065  2.8985
 3536SOL    HW215929   6.005   8.684   2.557  1.5102 -1.5804 -2.1822
 3537SOL     OW15930   4.457   8.275   0.030  0.1317 -0.2374 -0.3108
 3537SOL    HW115931   4.502   8.358   0.045  0.1910 -0.5343  1.3086
 3537SOL    HW215932   4.525   8.216  -0.002  0.8193 -0.5171  1.5606
 3538SOL     OW15933   1.474   4.863   2.178 -0.0928  0.3165 -0.1986
 3538SOL    HW115934   1.495   4.770   2.187  0.8853  0.4623 -0.7935
 3538SOL    HW215935   1.379   4.865   2.165 -0.0662 -0.6363 -0.6246
 3539SOL     OW15936  10.272   5.730   3.024  0.4902 -0.1211  0.1728
 3539SOL    HW115937  10.325   5.744   2.945  0.2591  1.5623  0.2717
 3539SOL    HW215938  10.297   5.643   3.055  0.4248 -0.9078 -1.8703
 3540SOL     OW15939   2.618   4.557  10.092  0.0365  0.1597 -0.1618
 3540SOL    HW115940   2.701   4.508  10.091 -0.3667 -0.5380 -1.5574
 3540SOL    HW215941   2.591   4.561  10.001 -0.0371  2.9025 -0.1138
 3541SOL     OW15942   1.338   4.863   0.104  0.0764 -0.4999  0.9128
 3541SOL    HW115943   1.258   4.907   0.074  0.7703  1.2016  1.3896
 3541SOL    HW215944   1.362   4.804   0.033 -0.1418  0.9541 -0.4316
 3542SOL     OW15945   5.231   0.194   9.569 -0.6254  0.1158 -0.1904
 3542SOL    HW115946   5.304   0.255   9.553 -0.4885  0.6872  2.2637
 3542SOL    HW215947   5.272   0.119   9.614 -1.3524 -0.1272  0.0750
 3543SOL     OW15948   8.648   3.741  11.060  0.0882  0.1178 -0.1376
 3543SOL    HW115949   8.690   3.679  11.001 -0.0557  1.6132 -1.9132
 3543SOL    HW215950   8.718   3.774  11.116  0.5950 -0.0204 -0.6856
 3544SOL     OW15951   0.246   4.536   4.396 -0.1202 -0.0090 -0.3642
 3544SOL    HW115952   0.167   4.587   4.376 -0.0317 -0.4027 -1.8496
 3544SOL    HW215953   0.304   4.598   4.440 -1.4614  0.1302  1.3093
 3545SOL     OW15954   3.522  10.053  10.976 -0.6393 -0.3641  0.7224
 3545SOL    HW115955   3.470   9.977  10.949 -1.7349  1.0222 -1.3079
 3545SOL    HW215956   3.577  10.073  10.901  1.7230 -0.7654  2.2326
 3546SOL     OW15957   7.963   0.633   3.768 -0.5707  0.1920  0.4828
 3546SOL    HW115958   7.945   0.673   3.683  0.1388 -0.0237  0.2295
 3546SOL    HW215959   7.985   0.543   3.748  1.0409  0.5010  0.7447
 3547SOL     OW15960   9.715   9.858   0.977 -0.1580 -0.1436 -0.0228
 3547SOL    HW115961   9.757   9.803   1.043 -1.0335  1.2466  1.7899
 3547SOL    HW215962   9.700   9.800   0.902  0.5021 -1.8854  1.1542
 3548SOL     OW15963   4.794  10.573   1.917  0.0458 -0.5536 -0.3289
 3548SOL    HW115964   4.742  10.501   1.884  1.6781 -1.8843 -0.1508
 3548SOL    HW215965   4.732  10.646   1.926 -1.3022 -1.4060 -2.1151
 3549SOL     OW15966   3.555   4.558   8.887  0.3434 -0.3284 -0.4658
 3549SOL    HW115967   3.629   4.578   8.831  0.1071  0.6193 -0.4623
 3549SOL    HW215968   3.528   4.643   8.922 -0.4009 -0.7266 -0.0453
 3550SOL     OW15969   2.191   6.679   3.155  0.3112  0.0234 -0.5576
 3550SOL    HW115970   2.114   6.710   3.107 -0.0607  0.0829  0.0665
 3550SOL    HW215971   2.156   6.624   3.224  0.7086  1.2924  0.6973
 3551SOL     OW15972  10.984   4.907   0.497  0.0608  0.7671 -0.0528
 3551SOL    HW115973  11.041   4.952   0.560  0.2453  0.2573  0.1525
 3551SOL    HW215974  10.913   4.871   0.550  0.7327 -0.5105  0.0284
 3552SOL     OW15975   2.936   4.529   1.006 -0.6031 -0.2721 -0.0780
 3552SOL    HW115976   3.028   4.529   0.980 -0.7297 -0.3019 -0.5417
 3552SOL    HW215977   2.889   4.550   0.925 -0.8548  2.5072  0.6825
 3553SOL     OW15978   6.417   2.211   4.109  0.2651  0.9070  0.1894
 3553SOL    HW115979   6.367   2.217   4.190 -1.4270  3.0334 -0.9410
 3553SOL    HW215980   6.371   2.146   4.056  0.4630  0.6762  0.2954
 3554SOL     OW15981   5.891   2.792   2.737  0.2082  0.5261 -0.1698
 3554SOL    HW115982   5.806   2.773   2.698 -0.2952  0.8962  0.7390
 3554SOL    HW215983   5.880   2.778   2.831  0.6493  2.2392  0.1776
 3555SOL     OW15984   6.579   3.758   8.431  0.0474 -0.2429 -0.1780
 3555SOL    HW115985   6.525   3.679   8.431 -1.3762  0.6869 -1.2384
 3555SOL    HW215986   6.666   3.727   8.456 -0.3550 -2.2292 -1.0205
 3556SOL     OW15987   5.166   8.392   8.962  0.3105  0.2152  0.4249
 3556SOL    HW115988   5.177   8.485   8.941 -0.2827  0.4840  1.2229
 3556SOL    HW215989   5.124   8.392   9.048 -0.3035 -0.7903  0.1460
 3557SOL     OW15990   1.973  10.734   5.261 -0.3265 -0.0318 -0.1465
 3557SOL    HW115991   1.944  10.820   5.291  0.1375 -0.0703  0.4207
 3557SOL    HW215992   1.994  10.686   5.341  3.1250  0.6088 -0.5144
 3558SOL     OW15993   6.427   8.640   8.118 -0.5763 -0.2792  0.2229
 3558SOL    HW115994   6.496   8.588   8.160 -0.5570  1.6359  2.8186
 3558SOL    HW215995   6.345   8.606   8.155 -0.7457 -0.1520 -0.0321
 3559SOL     OW15996   4.887   2.791  11.806 -0.2712  0.5418  0.0264
 3559SOL    HW115997   4.904   2.826  11.893 -1.3993  0.3023  0.3615
 3559SOL    HW215998   4.824   2.720  11.820 -0.6233  0.6351 -0.9961
 3560SOL     OW15999   3.204   6.852   9.114 -0.7520  0.3259 -0.4733
 3560SOL    HW116000   3.145   6.835   9.041 -0.8765 -1.1643 -0.0754
 3560SOL    HW216001   3.162   6.809   9.189 -0.2809  1.2102  0.3216
 3561SOL     OW16002   3.308   6.221   5.694  0.4822  0.3004 -0.4130
 3561SOL    HW116003   3.228   6.180   5.727  1.5523  0.0559  2.1037
 3561SOL    HW216004   3.294   6.315   5.709  0.3148  0.3382 -0.8043
 3562SOL     OW16005   0.727   5.757   0.102 -0.6736 -0.4221  0.0740
 3562SOL    HW116006   0.689   5.807   0.174 -0.1728  1.1430 -0.6895
 3562SOL    HW216007   0.652   5.732   0.048 -0.8287  1.1301 -0.4939
 3563SOL     OW16008  10.046   1.287   1.496 -0.2334  0.1496 -0.3292
 3563SOL    HW116009  10.039   1.376   1.529 -0.0771 -0.1717  0.5985
 3563SOL    HW216010   9.976   1.239   1.541  2.2929 -1.1725  2.6073
 3564SOL     OW16011   6.716   9.155   4.012  0.0580  0.1375 -0.8953
 3564SOL    HW116012   6.627   9.138   4.042 -0.4128 -0.1744 -2.4027
 3564SOL    HW216013   6.717   9.247   3.988  0.5326  0.4739  0.3442
 3565SOL     OW16014   1.652   7.645  10.540  0.3795  0.0918  0.2182
 3565SOL    HW116015   1.658   7.729  10.494  0.5209 -0.1490 -0.2124
 3565SOL    HW216016   1.582   7.658  10.604 -0.5366  0.1154 -0.7547
 3566SOL     OW16017   7.946   9.323  11.358 -0.0934 -0.6010 -0.0660
 3566SOL    HW116018   8.005   9.308  11.284 -1.3804  0.0028 -1.2746
 3566SOL    HW216019   7.860   9.337  11.317 -1.5497 -3.4286  1.6471
 3567SOL     OW16020   0.371   9.401   3.271 -0.6415  0.5523 -0.4191
 3567SOL    HW116021   0.329   9.329   3.318  3.2727 -0.9822  1.1625
 3567SOL    HW216022   0.376   9.371   3.180 -0.6344 -0.3898 -0.1184
 3568SOL     OW16023   9.161   0.212   2.723  0.0201 -0.4775 -0.1707
 3568SOL    HW116024   9.129   0.287   2.773 -0.3336 -0.3716 -0.5557
 3568SOL    HW216025   9.233   0.178   2.776  0.2809  0.2187 -0.0605
 3569SOL     OW16026   0.907   8.019   6.040  0.2302 -0.1224 -0.6812
 3569SOL    HW116027   0.875   8.025   6.130  0.2427  0.1892 -0.6953
 3569SOL    HW216028   0.880   8.102   6.000 -1.1324 -0.8808 -1.4039
 3570SOL     OW16029  11.753  11.139   5.470  0.0133  0.6268 -0.1248
 3570SOL    HW116030  11.737  11.220   5.517  1.5961  0.6829  0.3731
 3570SOL    HW216031  11.676  11.085   5.487  0.2663  0.8766  2.0351
 3571SOL     OW16032  10.158   9.688   8.419  0.4236  0.0888  0.3720
 3571SOL    HW116033  10.194   9.688   8.508 -0.4248 -0.7677  0.7431
 3571SOL    HW216034  10.092   9.619   8.421  1.3139 -0.8658 -1.3105
 3572SOL     OW16035   0.691   6.700   8.237 -0.5333  0.0749 -0.1701
 3572SOL    HW116036   0.785   6.713   8.252 -0.3052 -0.2485 -1.2004
 3572SOL    HW216037   0.678   6.605   8.245 -0.6490  0.0490 -0.6158
 3573SOL     OW16038   9.444   5.477   8.677 -0.1748  0.3566 -0.0298
 3573SOL    HW116039   9.390   5.555   8.665  1.1347  1.2688 -0.1502
 3573SOL    HW216040   9.406   5.433   8.752 -1.7859  0.3581 -0.8078
 3574SOL     OW16041   7.367   5.051   6.026  0.0265  0.1003  0.6378
 3574SOL    HW116042   7.355   4.997   5.948  0.3773  2.0240 -0.8033
 3574SOL    HW216043   7.293   5.026   6.083 -0.9442 -0.4777 -0.8052
 3575SOL     OW16044   2.391   7.686  11.613  0.1590  0.0841  0.4021
 3575SOL    HW116045   2.381   7.768  11.662  0.8913  0.8953 -0.7650
 3575SOL    HW216046   2.482   7.662  11.628 -0.2988 -1.0570  1.5198
 3576SOL     OW16047   1.798   7.348   0.268  0.3954 -0.0005  0.6718
 3576SOL    HW116048   1.752   7.393   0.340 -0.1743  1.3652 -0.5088
 3576SOL    HW216049   1.729   7.300   0.222  0.4528  0.5008  0.0458
 3577SOL     OW16050   4.577  11.033  11.568  0.2321  0.7200 -0.0065
 3577SOL    HW116051   4.591  10.976  11.643 -0.3506  0.4577 -0.0938
 3577SOL    HW216052   4.588  10.975  11.492  1.7825  1.1780 -0.1740
 3578SOL     OW16053   5.480   4.083   7.098  0.6628  0.1179  0.4942
 3578SOL    HW116054   5.427   4.095   7.177 -0.7691 -0.3889 -0.3432
 3578SOL    HW216055   5.464   3.992   7.072  0.7366  0.4127 -0.6228
 3579SOL     OW16056   9.316   2.184   5.098  0.3185 -0.0022 -0.3717
 3579SOL    HW116057   9.224   2.158   5.102  0.5870 -0.9530 -0.0861
 3579SOL    HW216058   9.336   2.188   5.004  0.3073 -1.0239 -0.4302
 3580SOL     OW16059   4.995  10.019   6.395 -0.3554  0.2649  0.0097
 3580SOL    HW116060   4.962   9.937   6.359 -0.6326  0.5485 -0.3850
 3580SOL    HW216061   5.088  10.002   6.411 -0.7282 -0.6498  1.4370
 3581SOL     OW16062   4.513   0.530   3.974 -0.2456  0.2121 -0.3075
 3581SOL    HW116063   4.444   0.525   3.907 -0.1375  1.1569 -0.5050
 3581SOL    HW216064   4.517   0.623   3.996 -0.7428 -0.1518  1.5034
 3582SOL     OW16065   7.691   3.819   2.491 -0.2526 -0.3322  0.1351
 3582SOL    HW116066   7.716   3.792   2.579 -1.8156 -0.5006  0.5560
 3582SOL    HW216067   7.664   3.738   2.448 -2.0099  0.0798  0.3896
 3583SOL     OW16068   3.796   1.821   0.725  0.2864 -0.1391 -0.2599
 3583SOL    HW116069   3.741   1.774   0.662  0.3214 -1.1933  0.4591
 3583SOL    HW216070   3.878   1.837   0.678  0.5330 -1.4373 -0.3280
 3584SOL     OW16071   5.061   9.986   6.056  0.2348 -0.2045  0.0552
 3584SOL    HW116072   5.125   9.997   6.127 -0.5490 -0.7282  0.8578
 3584SOL    HW216073   5.066  10.068   6.008  0.6994  0.2101  0.7809
 3585SOL     OW16074  11.571   8.768   1.157 -0.1440 -0.2777  0.0048
 3585SOL    HW116075  11.620   8.797   1.234  1.4579  0.5515 -1.2567
 3585SOL    HW216076  11.607   8.681   1.137  1.0699  0.4326 -1.0655
 3586SOL     OW16077   8.420   4.241   9.863  0.3570 -0.3606  0.3047
 3586SOL    HW116078   8.336   4.219   9.823  0.0457 -0.8746  1.1945
 3586SOL    HW216079   8.455   4.312   9.810 -0.3795 -0.5246 -0.4122
 3587SOL     OW16080   0.924   3.138   4.282 -0.1211  0.2048 -0.1618
 3587SOL    HW116081   0.903   3.047   4.261 -2.2634  1.0115 -2.0242
 3587SOL    HW216082   0.876   3.155   4.363 -2.2513  0.4024 -1.3713
 3588SOL     OW16083   3.259  11.263   1.443  0.6448 -0.3046  0.5220
 3588SOL    HW116084   3.302  11.348   1.454  1.2585 -0.5272 -0.0286
 3588SOL    HW216085   3.274  11.217   1.525  1.0087 -0.1731  0.5340
 3589SOL     OW16086   3.850   2.090   0.310  0.1849  0.0630  0.3823
 3589SOL    HW116087   3.859   1.996   0.289  1.2924  0.2798 -0.2114
 3589SOL    HW216088   3.940   2.121   0.318 -0.1068  1.4863 -1.3109
 3590SOL     OW16089   3.471   3.038   5.197  0.4941  0.0096 -0.1157
 3590SOL    HW116090   3.481   3.115   5.142  0.4794 -0.0570 -0.2123
 3590SOL    HW216091   3.401   2.988   5.155 -0.9299  0.9414  1.0761
 3591SOL     OW16092   7.055  11.284   5.557 -0.0605 -0.3767  0.0698
 3591SOL    HW116093   7.036  11.245   5.472  1.1546  0.5389 -0.6599
 3591SOL    HW216094   7.131  11.340   5.541 -0.0431  0.1101  1.6817
 3592SOL     OW16095   5.800   1.113  11.477  0.1833 -0.8600  0.0744
 3592SOL    HW116096   5.716   1.152  11.498  1.1662  0.4874  1.7978
 3592SOL    HW216097   5.779   1.032  11.431 -2.0377 -0.6614  0.6685
 3593SOL     OW16098   6.297   8.583  11.071 -0.2453 -0.5904 -0.3191
 3593SOL    HW116099   6.387   8.556  11.087  0.0374 -1.4291 -2.9605
 3593SOL    HW216100   6.284   8.657  11.131  2.9058  0.9577 -1.3254
 3594SOL     OW16101   1.673   0.026  11.520  0.3636  0.1709 -0.6649
 3594SOL    HW116102   1.727   0.079  11.460 -0.7512  0.2335 -1.6431
 3594SOL    HW216103   1.620   0.090  11.567  2.1577  0.2422  1.4350
 3595SOL     OW16104   3.278   9.776   8.705  0.3363 -0.0689 -0.1565
 3595SOL    HW116105   3.312   9.767   8.794  0.0849  0.3708 -0.0095
 3595SOL    HW216106   3.347   9.742   8.648  0.9491  0.6459  0.1423
 3596SOL     OW16107   6.458   1.644   6.451  0.2285  0.2920  0.7006
 3596SOL    HW116108   6.390   1.602   6.505 -0.6395  0.6029 -0.1342
 3596SOL    HW216109   6.486   1.575   6.391 -0.0174  0.4309  0.4261
 3597SOL     OW16110   3.652   5.372   6.667  0.1590 -0.4273  0.2261
 3597SOL    HW116111   3.592   5.306   6.631 -0.2630 -0.4713  1.0067
 3597SOL    HW216112   3.595   5.446   6.689  0.8632  1.1278 -2.6670
 3598SOL     OW16113  10.347   0.245  11.244  0.2530 -0.0206 -0.2867
 3598SOL    HW116114  10.417   0.197  11.200 -1.3972 -1.8558 -1.0570
 3598SOL    HW216115  10.322   0.314  11.182  0.0727 -0.5995 -0.8656
 3599SOL     OW16116   5.650   5.039   1.927 -0.1706 -0.1366 -0.2921
 3599SOL    HW116117   5.713   5.018   1.996  1.4085  0.7381 -1.4171
 3599SOL    HW216118   5.589   5.101   1.968  1.7857  1.7900 -0.1014
 3600SOL     OW16119   3.019   0.151   1.222 -0.4273  0.7344 -0.4881
 3600SOL    HW116120   2.972   0.082   1.269 -0.3726  1.5577  0.8347
 3600SOL    HW216121   2.952   0.192   1.167 -0.6396  0.1633 -0.6690
 3601SOL     OW16122   8.489   8.531  10.330  0.4337 -0.2793  0.0052
 3601SOL    HW116123   8.580   8.509  10.313  0.3318 -0.8996  0.2331
 3601SOL    HW216124   8.458   8.572  10.249  0.8485 -0.2745 -0.1517
 3602SOL     OW16125  10.964   4.354  11.010  0.2555  0.4067  0.1904
 3602SOL    HW116126  10.878   4.338  10.970  0.2335  1.6195 -0.2934
 3602SOL    HW216127  10.956   4.317  11.098 -0.2866 -0.7399 -0.3157
 3603SOL     OW16128   6.998   5.432   1.483  0.4765 -0.0169 -0.0481
 3603SOL    HW116129   6.926   5.372   1.499  0.5258 -0.0634  0.0039
 3603SOL    HW216130   6.987   5.501   1.548  0.1144  0.3115 -0.4538
 3604SOL     OW16131  10.728   3.240   5.932  0.3146  0.2161  0.7003
 3604SOL    HW116132  10.799   3.256   5.870 -0.8368  0.4953 -0.5873
 3604SOL    HW216133  10.706   3.327   5.965  0.8351  0.0825  1.4176
 3605SOL     OW16134  10.003   6.367   9.045 -0.5819 -0.3474 -0.0021
 3605SOL    HW116135  10.001   6.396   9.136 -0.7141 -2.1479  0.6243
 3605SOL    HW216136  10.097   6.362   9.024 -0.4185 -2.4318  0.9640
 3606SOL     OW16137   3.391   9.043   7.146  0.0897 -0.1259 -0.1291
 3606SOL    HW116138   3.360   9.067   7.233  0.3602 -0.7602  0.1535
 3606SOL    HW216139   3.411   8.949   7.153 -1.2616 -0.5417 -1.2674
 3607SOL     OW16140   5.953   2.749   4.470 -1.1175  0.3399 -0.2257
 3607SOL    HW116141   5.930   2.661   4.497  0.1490  0.0837  0.0883
 3607SOL    HW216142   5.956   2.745   4.375  0.0195 -0.2750 -0.1887
 3608SOL     OW16143   8.756   5.584   4.854  0.5284 -1.0076 -0.1559
 3608SOL    HW116144   8.813   5.554   4.784  0.0920  1.7331 -1.8022
 3608SOL    HW216145   8.753   5.679   4.844  0.2953 -0.4884  3.5074
 3609SOL     OW16146   0.567  10.373   0.479 -0.4704 -0.0630  0.2224
 3609SOL    HW116147   0.634  10.338   0.420 -0.7382  1.6770 -1.2235
 3609SOL    HW216148   0.604  10.363   0.567  1.5639  0.5335 -0.5087
 3610SOL     OW16149   9.696  10.867  10.488 -0.3584 -0.1054 -0.0637
 3610SOL    HW116150   9.746  10.846  10.410 -0.3032  0.9047 -0.3122
 3610SOL    HW216151   9.682  10.782  10.531  3.3443 -0.3010  1.1474
 3611SOL     OW16152   0.348   0.677   6.915  0.5002  0.5120  0.4440
 3611SOL    HW116153   0.310   0.763   6.896 -0.4792  0.1109  0.5047
 3611SOL    HW216154   0.277   0.629   6.958  1.1759 -0.1799  0.8042
 3612SOL     OW16155   5.240   4.174   7.851  0.2960 -0.1978  0.2204
 3612SOL    HW116156   5.154   4.172   7.809 -0.0348 -0.8251  0.9244
 3612SOL    HW216157   5.298   4.129   7.789  0.2695  0.8244 -0.5664
 3613SOL     OW16158   8.455   1.067   5.337  0.2004 -0.3486  0.3047
 3613SOL    HW116159   8.446   1.144   5.394  0.3741  0.0936 -0.2525
 3613SOL    HW216160   8.388   1.080   5.270 -0.0034 -0.8690  0.4024
 3614SOL     OW16161   2.565   2.687  11.731  0.1260  0.2620  0.4484
 3614SOL    HW116162   2.540   2.779  11.720  1.0272  0.9814  3.3195
 3614SOL    HW216163   2.497   2.650  11.788  0.6698 -0.3459  0.7156
 3615SOL     OW16164   0.265   6.130  10.030 -0.1566 -0.5622 -0.4398
 3615SOL    HW116165   0.303   6.218  10.037 -0.4839 -0.5102  0.8777
 3615SOL    HW216166   0.268   6.095  10.119  1.1714 -2.4093 -1.1489
 3616SOL     OW16167   4.465  11.760   2.016 -0.5143  0.1576 -0.0288
 3616SOL    HW116168   4.418  11.741   2.098  0.1409  0.3113  0.3920
 3616SOL    HW216169   4.413  11.717   1.948 -0.4563 -0.9514  0.6030
 3617SOL     OW16170   2.843   1.863   6.454 -0.0014 -0.0145  0.4068
 3617SOL    HW116171   2.915   1.826   6.504  0.1086  2.5685  2.3449
 3617SOL    HW216172   2.773   1.876   6.517 -0.5586  1.6149 -0.4862
 3618SOL     OW16173   5.691   8.192  11.591 -0.7363 -0.5244 -0.2395
 3618SOL    HW116174   5.676   8.179  11.497 -0.5627 -0.7552 -0.2371
 3618SOL    HW216175   5.678   8.105  11.629  1.5798 -1.0040 -0.3652
 3619SOL     OW16176   3.490   2.558   1.670  0.0856 -0.0189  0.5143
 3619SOL    HW116177   3.498   2.526   1.580  0.6943 -0.2314  0.6404
 3619SOL    HW216178   3.435   2.493   1.714 -1.6701  0.9643 -0.1217
 3620SOL     OW16179   5.404   5.985  11.277  0.4664 -0.1650  0.4786
 3620SOL    HW116180   5.420   6.073  11.244  0.4697 -0.3988 -0.1677
 3620SOL    HW216181   5.392   5.996  11.371 -2.0241  0.8571  0.1091
 3621SOL     OW16182   4.486   6.583   1.939  0.0512  0.4141  0.0541
 3621SOL    HW116183   4.566   6.544   1.975 -0.4863  0.0920  0.9487
 3621SOL    HW216184   4.467   6.531   1.861  0.6270  0.4000 -0.0842
 3622SOL     OW16185   6.707   8.062  10.175  0.1380  0.3293 -0.4838
 3622SOL    HW116186   6.663   7.997  10.230  0.2158  1.2718  0.7424
 3622SOL    HW216187   6.676   8.146  10.208  2.4237  1.0199  0.0901
 3623SOL     OW16188   7.931   9.030   2.298  0.3091  0.3007 -0.2556
 3623SOL    HW116189   7.922   9.094   2.228 -0.6871  0.7130  0.2312
 3623SOL    HW216190   7.983   8.959   2.260  1.8277  1.5755 -0.6691
 3624SOL     OW16191   4.955   2.106   4.562  0.8747 -0.3534 -0.0590
 3624SOL    HW116192   4.973   2.160   4.485  0.8284 -1.1236 -0.6178
 3624SOL    HW216193   5.012   2.030   4.552 -1.0847 -1.8096 -0.7630
 3625SOL     OW16194   2.631   2.827  11.419  0.4881  0.0106 -0.7333
 3625SOL    HW116195   2.604   2.883  11.347 -2.1567 -0.5817 -0.3019
 3625SOL    HW216196   2.595   2.870  11.497  1.1781 -0.6442 -0.0383
 3626SOL     OW16197   2.362   6.370   7.123 -0.1851 -0.2884 -0.0289
 3626SOL    HW116198   2.408   6.328   7.196  1.4174  0.2920 -0.6616
 3626SOL    HW216199   2.425   6.432   7.087 -0.5987 -1.1688 -2.4701
 3627SOL     OW16200   9.738   6.202   5.458 -0.5418  0.5045  0.1720
 3627SOL    HW116201   9.679   6.204   5.533  0.8754  0.2442  1.3243
 3627SOL    HW216202   9.745   6.109   5.435 -0.2313  0.4951  0.3105
 3628SOL     OW16203   3.953   0.491   2.720 -0.3346  0.4300 -0.1539
 3628SOL    HW116204   3.967   0.455   2.632 -0.7697  0.9613 -0.4481
 3628SOL    HW216205   3.887   0.433   2.759  1.4756 -1.1616  0.6759
 3629SOL     OW16206   4.264   9.199  10.990 -0.1971  0.1835  0.9082
 3629SOL    HW116207   4.271   9.222  11.082 -0.5067  1.5571  0.6187
 3629SOL    HW216208   4.339   9.142  10.972  1.2991  1.9203  1.4302
 3630SOL     OW16209   5.174   6.504   3.640 -0.0448 -0.0409  0.3742
 3630SOL    HW116210   5.204   6.469   3.724 -1.1743  1.6282  1.5406
 3630SOL    HW216211   5.187   6.599   3.648 -1.7918  0.3238 -0.6326
 3631SOL     OW16212   6.669   6.723   3.330  0.0254  0.2059 -0.2786
 3631SOL    HW116213   6.655   6.706   3.423 -1.2223  1.3194 -0.2447
 3631SOL    HW216214   6.613   6.797   3.310  1.4984  1.0454 -1.5570
 3632SOL     OW16215  11.152   4.453   0.990  0.0066 -0.1943 -0.3787
 3632SOL    HW116216  11.168   4.523   0.926  0.8049  1.2157  1.2741
 3632SOL    HW216217  11.089   4.395   0.946  1.7743 -0.2550 -3.0922
 3633SOL     OW16218   3.454   1.242   7.059 -0.5543  0.1248 -0.0873
 3633SOL    HW116219   3.455   1.327   7.103  0.1871 -0.3701  0.8771
 3633SOL    HW216220   3.505   1.256   6.979  1.6310  0.0369  1.2031
 3634SOL     OW16221   0.161   8.042   0.771 -0.2494 -0.4499 -0.0638
 3634SOL    HW116222   0.176   8.094   0.849 -0.6469 -1.8706  1.0053
 3634SOL    HW216223   0.134   8.105   0.704 -0.9135  0.6813  1.2276
 3635SOL     OW16224   7.225  10.022   3.223 -0.0665 -0.1899  0.5105
 3635SOL    HW116225   7.273  10.099   3.193 -1.7974  0.2305 -1.3629
 3635SOL    HW216226   7.178  10.052   3.301  0.2674  0.2470  0.5492
 3636SOL     OW16227   9.812   2.305   2.521  0.2065 -0.1359  0.0076
 3636SOL    HW116228   9.748   2.240   2.490 -1.5573  0.7492  1.5566
 3636SOL    HW216229   9.765   2.354   2.589  0.7222  4.0423 -2.2793
 3637SOL     OW16230   5.097   4.572   6.734 -0.2700 -0.2314 -0.3838
 3637SOL    HW116231   5.036   4.617   6.793  0.2649 -1.4727  1.1846
 3637SOL    HW216232   5.181   4.574   6.780  0.5502  0.0709 -1.8074
 3638SOL     OW16233   9.655   5.224   8.389 -0.0004 -0.0762  0.2877
 3638SOL    HW116234   9.680   5.275   8.311 -1.2830  1.2421  0.6845
 3638SOL    HW216235   9.720   5.154   8.394  0.3285  0.0196 -1.7589
 3639SOL     OW16236   0.846   6.366   1.380  0.4328  0.6529  0.2036
 3639SOL    HW116237   0.842   6.449   1.427 -1.2728  0.1220  1.1135
 3639SOL    HW216238   0.789   6.307   1.431 -0.0912 -0.4562 -1.5682
 3640SOL     OW16239   7.817   8.216   4.740  0.7941 -0.3645  0.6599
 3640SOL    HW116240   7.813   8.308   4.716 -0.1189 -0.3161  0.9630
 3640SOL    HW216241   7.852   8.216   4.829  0.6638 -0.2953  0.7116
 3641SOL     OW16242   7.765  11.503   8.640 -0.6523 -0.6292  0.2000
 3641SOL    HW116243   7.794  11.582   8.594 -1.3698 -0.2584  0.3765
 3641SOL    HW216244   7.727  11.448   8.572 -0.0759 -0.8739  0.0630
 3642SOL     OW16245   6.033  10.688  11.396  1.0995 -0.2335  0.6380
 3642SOL    HW116246   5.951  10.653  11.433  0.4754 -0.5092 -0.9469
 3642SOL    HW216247   6.101  10.656  11.454  0.2173 -1.2491  1.1439
 3643SOL     OW16248   5.739   0.229   3.256 -0.1646 -0.3867 -0.0428
 3643SOL    HW116249   5.807   0.171   3.291 -1.1292 -0.6177  1.5336
 3643SOL    HW216250   5.710   0.281   3.331 -1.1238  0.3146 -0.8692
 3644SOL     OW16251   2.112   0.219   0.819 -0.4552 -0.3462  0.2651
 3644SOL    HW116252   2.146   0.191   0.733 -1.8227  1.8821 -1.0857
 3644SOL    HW216253   2.175   0.285   0.849 -1.5931  1.1654 -0.5565
 3645SOL     OW16254   8.530  11.795  10.478  0.7198 -0.1170  0.2153
 3645SOL    HW116255   8.476  11.717  10.489 -0.3238  0.4060 -0.8750
 3645SOL    HW216256   8.473  11.857  10.430  2.0673  0.6925 -0.4102
 3646SOL     OW16257   3.390   4.701   3.103  0.5217  0.2077  0.3997
 3646SOL    HW116258   3.480   4.675   3.087 -0.1522 -2.2266  0.0910
 3646SOL    HW216259   3.342   4.618   3.112 -1.9803  1.3587 -1.1005
 3647SOL     OW16260  11.629   3.126   5.803 -0.1299 -0.2025  0.0921
 3647SOL    HW116261  11.568   3.122   5.877  1.2186 -0.3995  1.2605
 3647SOL    HW216262  11.574   3.120   5.725 -1.7218  1.1365  1.0419
 3648SOL     OW16263   9.656   7.367   3.769 -0.5586  0.4591  0.1615
 3648SOL    HW116264   9.584   7.389   3.827 -1.5542  3.0035 -1.8562
 3648SOL    HW216265   9.721   7.436   3.783  1.6626 -1.7736  1.9387
 3649SOL     OW16266   9.921   4.430   2.023  0.5533 -0.3564 -1.0170
 3649SOL    HW116267   9.984   4.449   2.092  1.4422 -1.5025 -1.4792
 3649SOL    HW216268   9.942   4.493   1.954  0.5550 -0.1008 -0.7856
 3650SOL     OW16269   1.116   1.077   0.493 -0.0626 -0.4918 -0.3025
 3650SOL    HW116270   1.206   1.063   0.466  0.3961  0.2009  0.7948
 3650SOL    HW216271   1.064   1.028   0.429  1.1840 -2.8557  0.3651
 3651SOL     OW16272   8.459   2.029   4.694 -0.4400  0.0884 -0.6629
 3651SOL    HW116273   8.538   1.976   4.689  0.1689  0.8381  0.5809
 3651SOL    HW216274   8.416   2.015   4.609  0.0105 -1.8541 -0.6168
 3652SOL     OW16275   2.602  11.475   7.966 -0.5827 -0.4883  0.0410
 3652SOL    HW116276   2.663  11.408   7.933 -2.0351 -2.3453  0.9303
 3652SOL    HW216277   2.565  11.515   7.888  0.0222 -1.0187 -0.5285
 3653SOL     OW16278   1.337   7.678   9.219 -0.0260 -0.0860  0.5079
 3653SOL    HW116279   1.355   7.770   9.203  0.5016 -0.2841 -0.0483
 3653SOL    HW216280   1.312   7.643   9.133  1.0110 -0.7379  0.4536
 3654SOL     OW16281   5.603   8.856   3.321 -0.5791 -0.1443 -0.5628
 3654SOL    HW116282   5.697   8.848   3.303 -0.6551 -0.3863 -0.8492
 3654SOL    HW216283   5.589   8.951   3.328 -0.2282 -0.1259 -0.0404
 3655SOL     OW16284   9.725   7.419  10.039  0.3111  0.7820  0.1849
 3655SOL    HW116285   9.757   7.508  10.029 -1.2461  1.5642  1.7399
 3655SOL    HW216286   9.769   7.370   9.969  1.0841  2.7728 -0.7989
 3656SOL     OW16287   5.027   8.932  11.258  0.0621 -0.3638  0.0349
 3656SOL    HW116288   4.979   8.911  11.177 -1.6369 -0.4622  1.0205
 3656SOL    HW216289   4.966   8.986  11.308  1.2075 -0.0649  1.1306
 3657SOL     OW16290   3.693   5.796   9.028  0.5385 -0.5346 -0.2412
 3657SOL    HW116291   3.659   5.716   8.988 -0.4559 -0.7153  0.9372
 3657SOL    HW216292   3.738   5.841   8.956 -0.1063 -1.4595 -1.2548
 3658SOL     OW16293   1.190  10.173  10.577 -0.2174 -0.3550 -0.0538
 3658SOL    HW116294   1.232  10.101  10.624  0.8104  0.5119  0.3996
 3658SOL    HW216295   1.102  10.141  10.557 -0.1539 -1.3168  1.1131
 3659SOL     OW16296  10.855   8.189   3.104  0.2051  0.1522 -0.1620
 3659SOL    HW116297  10.860   8.115   3.043 -0.7190 -0.3462  0.3566
 3659SOL    HW216298  10.785   8.166   3.165 -1.0560  2.0426 -0.8007
 3660SOL     OW16299   1.259  10.631   2.167  0.1762 -0.6143 -0.4143
 3660SOL    HW116300   1.300  10.546   2.150 -0.1356 -0.4116 -2.3727
 3660SOL    HW216301   1.167  10.619   2.145  0.1633  0.2772 -0.9047
 3661SOL     OW16302  11.308   5.748   3.436 -0.4251 -0.1971 -0.3639
 3661SOL    HW116303  11.294   5.707   3.521 -2.2701 -0.3748 -0.7211
 3661SOL    HW216304  11.387   5.801   3.448 -1.4253  0.8923  1.8635
 3662SOL     OW16305   4.915   2.995   9.493  0.1486 -0.7945 -0.2749
 3662SOL    HW116306   4.914   2.985   9.588 -0.1564  0.8623 -0.0795
 3662SOL    HW216307   4.829   3.031   9.471  0.5498 -0.2747 -1.0676
 3663SOL     OW16308   1.069   0.829   6.833 -0.1806  0.2818 -0.0560
 3663SOL    HW116309   1.164   0.832   6.824 -0.2951  0.8135 -1.1535
 3663SOL    HW216310   1.049   0.899   6.895  0.1731 -0.1345  0.5404
 3664SOL     OW16311   6.647   4.761   4.494 -0.0262  0.0447 -0.3617
 3664SOL    HW116312   6.598   4.705   4.433 -1.3135 -0.3690  0.9665
 3664SOL    HW216313   6.620   4.850   4.472  0.2768 -0.0310 -1.0350
 3665SOL     OW16314   7.885   7.143   3.584 -0.1839  0.5284 -0.1100
 3665SOL    HW116315   7.826   7.193   3.527  0.2736 -0.1870 -1.2498
 3665SOL    HW216316   7.972   7.161   3.549  0.0276 -0.6870 -0.2514
 3666SOL     OW16317   7.396   2.822   5.417 -0.0735 -0.7522 -0.2206
 3666SOL    HW116318   7.382   2.767   5.493  1.0448 -0.8722 -0.0918
 3666SOL    HW216319   7.438   2.901   5.451 -0.4474 -0.3834 -0.5859
 3667SOL     OW16320   9.899  11.380   3.322 -0.6705  0.1089 -0.1130
 3667SOL    HW116321   9.804  11.370   3.323 -0.6272 -0.2443  0.7112
 3667SOL    HW216322   9.933  11.291   3.325 -0.3116  0.2322 -0.4770
 3668SOL     OW16323   2.780   2.338   7.470  0.4525 -0.0227 -0.0117
 3668SOL    HW116324   2.729   2.289   7.534  1.9488 -1.9766 -0.2189
 3668SOL    HW216325   2.750   2.306   7.385 -0.8001  1.8229 -0.3428
 3669SOL     OW16326   7.428   5.015   7.892 -0.3646  0.2669 -0.4742
 3669SOL    HW116327   7.382   4.941   7.853 -1.1204 -0.1538  1.1321
 3669SOL    HW216328   7.502   4.976   7.938 -0.5504  0.5522  0.0698
 3670SOL     OW16329  10.405   5.366   1.222 -0.0635  0.4429  0.0596
 3670SOL    HW116330  10.386   5.443   1.168 -1.6090  0.1220  0.0993
 3670SOL    HW216331  10.378   5.292   1.168  0.5002 -0.0281  0.4048
 3671SOL     OW16332   7.962   5.967   3.247  0.4415 -0.9905 -0.2249
 3671SOL    HW116333   7.900   6.018   3.194 -0.5815 -2.1094 -0.1563
 3671SOL    HW216334   8.022   5.928   3.183  0.5090 -0.6452 -0.3734
 3672SOL     OW16335   0.929   7.035   5.676  0.0285  0.3812  0.5633
 3672SOL    HW116336   0.882   7.111   5.643  1.0484  0.8166  0.0809
 3672SOL    HW216337   0.913   6.966   5.612  1.3678  1.0034 -0.4880
 3673SOL     OW16338   2.469   0.746   3.426  1.3714 -0.0944 -0.2512
 3673SOL    HW116339   2.450   0.667   3.476 -0.9636 -0.1615 -1.1197
 3673SOL    HW216340   2.459   0.719   3.335 -0.7085  1.4261 -0.5375
 3674SOL     OW16341  10.871   0.184   5.358 -1.2185  0.1136  0.1762
 3674SOL    HW116342  10.852   0.092   5.337 -0.5228  0.6421 -3.3957
 3674SOL    HW216343  10.952   0.202   5.311 -0.6303  2.2582  1.8890
 3675SOL     OW16344   2.063   1.513   6.888  0.3144  0.0753 -1.0825
 3675SOL    HW116345   2.139   1.520   6.830 -0.5798 -0.1204 -2.3169
 3675SOL    HW216346   2.072   1.587   6.948  1.0866  0.4868 -1.6779
 3676SOL     OW16347   0.227   4.297   1.445 -0.1343  0.6320 -0.0231
 3676SOL    HW116348   0.148   4.324   1.492  0.8669  0.2925  1.9629
 3676SOL    HW216349   0.268   4.233   1.503  0.6371 -0.6316 -1.8854
 3677SOL     OW16350   3.706  10.988   3.660 -0.0111  0.0991  0.3915
 3677SOL    HW116351   3.719  11.043   3.582 -1.3753 -0.0347  0.0387
 3677SOL    HW216352   3.748  10.905   3.638 -0.7689 -0.0905 -0.3940
 3678SOL     OW16353  11.557   5.493   9.396 -1.0234  0.1428  0.0230
 3678SOL    HW116354  11.490   5.520   9.334 -0.4888  1.0423 -0.1735
 3678SOL    HW216355  11.515   5.424   9.448 -1.5384 -0.4888 -1.1950
 3679SOL     OW16356   5.929   7.133   4.539 -0.1992  0.0245  0.4182
 3679SOL    HW116357   5.977   7.168   4.614 -2.5105  0.4365  1.8214
 3679SOL    HW216358   5.837   7.135   4.567 -1.0853 -0.4142 -2.2157
 3680SOL     OW16359   0.187   4.328   3.142 -0.2332 -0.2212 -0.4914
 3680SOL    HW116360   0.102   4.364   3.168  0.2306  1.9788 -1.7624
 3680SOL    HW216361   0.189   4.241   3.181 -2.6684  0.0262  0.3595
 3681SOL     OW16362   6.991   5.382   5.390  0.0221 -0.1900  0.2931
 3681SOL    HW116363   7.057   5.443   5.358 -1.9296  1.5318 -0.6425
 3681SOL    HW216364   6.944   5.430   5.457 -1.2291 -0.8185 -0.1027
 3682SOL     OW16365   7.568   5.808   4.945 -0.0853 -0.5173  0.0022
 3682SOL    HW116366   7.613   5.801   4.861  1.2917 -0.0602  0.6720
 3682SOL    HW216367   7.582   5.722   4.986 -0.9986 -0.8411 -0.3169
 3683SOL     OW16368   5.831   0.504   4.994 -0.4256 -0.4746  0.4476
 3683SOL    HW116369   5.899   0.494   5.060 -3.1695 -0.8200  3.4917
 3683SOL    HW216370   5.829   0.598   4.976  0.8310 -0.4639  0.3252
 3684SOL     OW16371   8.278   8.986   0.975  0.2369  0.2587 -0.0239
 3684SOL    HW116372   8.238   9.071   0.991  0.3415  0.1799  0.6702
 3684SOL    HW216373   8.325   8.997   0.891 -1.1836  0.3573 -0.8288
 3685SOL     OW16374   3.946   1.452   0.848 -0.2521  0.7316  0.1975
 3685SOL    HW116375   3.885   1.378   0.841 -0.7143  1.0748  0.5198
 3685SOL    HW216376   4.033   1.412   0.845 -0.4988  0.1593  0.4736
 3686SOL     OW16377  11.598   3.468   8.752  0.2503  0.2537  0.1813
 3686SOL    HW116378  11.663   3.530   8.720 -0.6452 -0.0718 -2.5001
 3686SOL    HW216379  11.642   3.383   8.750  0.0917  0.1863 -0.5618
 3687SOL     OW16380   3.944   1.825   9.849 -0.7949 -0.3028  0.2834
 3687SOL    HW116381   3.910   1.885   9.915  0.3880  0.3395  0.3317
 3687SOL    HW216382   3.874   1.760   9.838 -1.6583  0.4671  1.0045
 3688SOL     OW16383  11.796  11.035   4.389  0.4881  0.3547 -0.2928
 3688SOL    HW116384  11.833  10.966   4.444  0.5856 -0.4522 -1.3381
 3688SOL    HW216385  11.872  11.074   4.345  0.2852 -0.0258 -0.9943
 3689SOL     OW16386   6.209   6.991   4.342  0.3974 -0.0744  0.7715
 3689SOL    HW116387   6.150   7.066   4.339  0.1222 -0.3006  0.3768
 3689SOL    HW216388   6.166   6.928   4.400  0.2084 -0.2663  0.4318
 3690SOL     OW16389   9.861   7.973  11.776 -0.5959  0.3052 -0.1020
 3690SOL    HW116390   9.874   7.900  11.838 -0.6454  0.3114 -0.0848
 3690SOL    HW216391   9.802   8.033  11.822 -1.4697 -0.1853 -0.5592
 3691SOL     OW16392  10.846   2.651   7.655 -0.2197  0.8117 -0.0206
 3691SOL    HW116393  10.822   2.560   7.636  0.0842  1.2273 -2.7951
 3691SOL    HW216394  10.831   2.661   7.749 -1.9411 -1.5855  0.0353
 3692SOL     OW16395  10.265   5.055   4.321  0.1341 -0.3649 -0.3233
 3692SOL    HW116396  10.262   4.971   4.368 -1.7756  0.2443  0.7545
 3692SOL    HW216397  10.284   5.119   4.390  2.7295  0.0319 -1.3171
 3693SOL     OW16398   5.114   4.418   7.151  0.7543  0.2905 -0.6252
 3693SOL    HW116399   5.039   4.456   7.196  2.0677  0.8003  1.2691
 3693SOL    HW216400   5.146   4.489   7.096 -0.5012 -0.1415 -1.9677
 3694SOL     OW16401   5.267   6.246   5.364  0.2477 -0.0537 -0.4615
 3694SOL    HW116402   5.319   6.274   5.289 -2.8240 -0.9390 -3.1681
 3694SOL    HW216403   5.269   6.150   5.360  0.1220 -0.1182  0.6869
 3695SOL     OW16404   7.914   6.271   6.488 -0.3807 -0.6213 -0.6998
 3695SOL    HW116405   7.966   6.283   6.409  0.8725  1.9066  0.3916
 3695SOL    HW216406   7.977   6.242   6.554 -0.7189  0.4498  0.1263
 3696SOL     OW16407  11.668   8.522   0.581 -0.2499 -0.1140  0.2727
 3696SOL    HW116408  11.666   8.603   0.529 -0.1737  0.2340  0.8035
 3696SOL    HW216409  11.649   8.453   0.518  0.5848  0.2223 -0.3601
 3697SOL     OW16410   5.645  11.190  11.619 -0.1342 -0.6484 -0.2584
 3697SOL    HW116411   5.636  11.279  11.652  0.0705 -0.8101  0.2490
 3697SOL    HW216412   5.611  11.194  11.530 -0.7572 -0.2085 -0.0140
 3698SOL     OW16413   9.149   3.499   1.396 -0.7668  0.5534 -0.2026
 3698SOL    HW116414   9.189   3.530   1.314  1.5832  1.0301  1.0275
 3698SOL    HW216415   9.074   3.447   1.368  0.9885 -0.8002 -2.7666
 3699SOL     OW16416   5.079   9.290   0.623  0.3163 -0.0499 -0.1456
 3699SOL    HW116417   5.045   9.334   0.701  1.7588  2.4263 -0.7817
 3699SOL    HW216418   5.002   9.252   0.581 -0.8843  0.8808  1.1228
 3700SOL     OW16419   6.277   0.212   7.764 -0.0965 -0.9273  0.4203
 3700SOL    HW116420   6.269   0.208   7.859 -0.5277  1.0749  0.5314
 3700SOL    HW216421   6.360   0.258   7.749 -1.7542  2.2699  0.0358
 3701SOL     OW16422   1.337   6.319   3.401  0.1324  0.1334  0.2362
 3701SOL    HW116423   1.415   6.264   3.404 -0.8538 -1.2860  2.8542
 3701SOL    HW216424   1.355   6.391   3.461 -0.4684 -0.0490  0.6410
 3702SOL     OW16425   5.059   2.944   1.711  0.1866  0.2713 -0.0599
 3702SOL    HW116426   4.973   2.957   1.753  0.0557  0.3872 -0.3604
 3702SOL    HW216427   5.119   2.995   1.764  0.1939 -0.3793  0.5724
 3703SOL     OW16428   1.133  11.359   1.063  0.3479  0.1537 -0.0795
 3703SOL    HW116429   1.210  11.324   1.108  0.7201  1.1780  0.1131
 3703SOL    HW216430   1.169  11.400   0.984 -0.2262 -1.0412 -0.9944
 3704SOL     OW16431  11.709  10.270   9.260 -0.3125  0.4010  0.3353
 3704SOL    HW116432  11.744  10.286   9.348 -1.7680  0.3112  0.9516
 3704SOL    HW216433  11.631  10.326   9.254 -0.1292  0.5585 -0.9833
 3705SOL     OW16434   3.382   8.270   4.461 -0.4060 -0.0289 -0.1688
 3705SOL    HW116435   3.406   8.186   4.499  0.5076  0.5526  0.5992
 3705SOL    HW216436   3.343   8.248   4.377  0.2145 -1.1959 -0.1749
 3706SOL     OW16437   6.821   1.688   3.382  0.1420  0.4656 -0.4179
 3706SOL    HW116438   6.880   1.612   3.388 -0.7766 -0.2613 -0.3554
 3706SOL    HW216439   6.837   1.737   3.463  0.6724  0.2870 -0.4100
 3707SOL     OW16440   4.861   8.694   8.083 -0.0825 -0.4719 -0.2379
 3707SOL    HW116441   4.856   8.787   8.105 -1.9377 -1.3292  3.9525
 3707SOL    HW216442   4.805   8.684   8.006 -2.5878  1.5611  1.1518
 3708SOL     OW16443   3.265  10.153   8.538 -0.0084 -0.6856  1.1138
 3708SOL    HW116444   3.247  10.225   8.598 -0.7922 -0.4249  0.5850
 3708SOL    HW216445   3.190  10.094   8.549 -0.6758 -0.1589 -0.2903
 3709SOL     OW16446   0.397   1.142   9.000 -0.0177 -0.0142 -0.2018
 3709SOL    HW116447   0.396   1.193   8.919  0.6448 -0.4725 -0.5057
 3709SOL    HW216448   0.305   1.119   9.014 -0.2310  0.6539 -0.4451
 3710SOL     OW16449   6.572   8.400   6.069  0.3040 -0.4467 -0.1724
 3710SOL    HW116450   6.512   8.350   6.124 -0.7489 -1.6296 -2.2799
 3710SOL    HW216451   6.556   8.491   6.093  0.4350 -0.9291  1.9557
 3711SOL     OW16452   2.265   9.175  10.921 -0.5454  0.0942 -0.3134
 3711SOL    HW116453   2.218   9.135  10.995 -0.0633 -1.0644 -0.6056
 3711SOL    HW216454   2.200   9.178  10.851 -1.0954  1.4732  0.2056
 3712SOL     OW16455   9.054   0.982   7.468 -0.1438  0.3431  0.1706
 3712SOL    HW116456   9.104   0.933   7.534 -2.0419 -1.7208  0.2114
 3712SOL    HW216457   8.968   0.995   7.508 -0.5497  1.2999 -0.9506
 3713SOL     OW16458   8.177   2.910   5.625 -0.1470  0.3296 -0.0721
 3713SOL    HW116459   8.258   2.891   5.672 -0.3291  0.3969  0.2713
 3713SOL    HW216460   8.206   2.931   5.536  0.3520  1.7763  0.3983
 3714SOL     OW16461   6.562   1.877   6.443  0.1665 -0.4457  0.0192
 3714SOL    HW116462   6.517   1.793   6.452 -0.2199 -0.0833  2.2758
 3714SOL    HW216463   6.523   1.917   6.365 -0.9359 -1.6054 -0.0632
 3715SOL     OW16464   0.316   5.239  10.847 -0.5819 -0.2230  0.4480
 3715SOL    HW116465   0.258   5.315  10.838  0.7454  0.7821  0.1495
 3715SOL    HW216466   0.403   5.276  10.859 -0.2775 -1.6643  3.6836
 3716SOL     OW16467   3.977   0.875  11.382  0.1633  0.4845 -0.3468
 3716SOL    HW116468   3.986   0.952  11.326 -0.1706  0.3769 -0.5526
 3716SOL    HW216469   4.052   0.820  11.359 -0.6826 -0.1647 -1.6638
 3717SOL     OW16470   1.301   1.328   7.287 -0.5954 -0.1899 -0.0218
 3717SOL    HW116471   1.345   1.266   7.229 -1.2752  0.0399 -0.7963
 3717SOL    HW216472   1.299   1.284   7.372 -1.0913 -1.2516 -0.5643
 3718SOL     OW16473  11.377   6.565   9.332  0.0605  0.6197 -0.1621
 3718SOL    HW116474  11.299   6.547   9.280 -1.3826  0.2198  2.0277
 3718SOL    HW216475  11.426   6.483   9.330 -0.2696  0.4235 -0.4148
 3719SOL     OW16476   3.089   5.961   1.069 -0.1959  0.3120  0.1876
 3719SOL    HW116477   3.010   5.945   1.018 -0.0351  1.0644 -0.3146
 3719SOL    HW216478   3.129   6.037   1.028  1.4716 -0.8094 -0.3653
 3720SOL     OW16479   8.146   9.110   1.800  0.3589  0.3798 -0.4849
 3720SOL    HW116480   8.133   9.069   1.886  0.6773  2.7489  0.7811
 3720SOL    HW216481   8.240   9.130   1.798  0.0189  2.0670 -0.5213
 3721SOL     OW16482  10.488   8.711   4.506 -0.6321 -0.9901 -0.2858
 3721SOL    HW116483  10.467   8.674   4.592  0.1349  1.1445  0.9094
 3721SOL    HW216484  10.439   8.794   4.503  2.1330  0.7718 -0.2881
 3722SOL     OW16485  11.078  10.764   2.741 -0.4048 -0.1884  0.0790
 3722SOL    HW116486  11.064  10.713   2.662  1.8445 -4.0897  1.8904
 3722SOL    HW216487  11.018  10.727   2.805  0.2672  0.4283  1.1116
 3723SOL     OW16488   3.336   3.060   9.829  0.8319  0.0547  0.1000
 3723SOL    HW116489   3.386   2.985   9.863 -1.5441 -1.8176 -0.2266
 3723SOL    HW216490   3.351   3.058   9.734 -1.7223 -2.1845 -0.3870
 3724SOL     OW16491   9.329   2.900   1.938  0.0666  0.3931  0.3115
 3724SOL    HW116492   9.405   2.843   1.942  1.0693  1.4416 -2.0793
 3724SOL    HW216493   9.255   2.840   1.929  0.9785 -0.5749 -0.9910
 3725SOL     OW16494   3.076   0.811   8.658 -0.4927 -0.1442  0.2738
 3725SOL    HW116495   3.134   0.842   8.589 -2.0907 -2.2764 -2.2178
 3725SOL    HW216496   3.039   0.891   8.696  1.6740  1.1320 -0.1618
 3726SOL     OW16497  11.422   1.418   7.021  0.2219 -0.1247  0.0744
 3726SOL    HW116498  11.501   1.446   6.975  0.5095  0.5794  0.9679
 3726SOL    HW216499  11.443   1.331   7.056  0.0558 -0.5954 -0.9582
 3727SOL     OW16500   3.764  11.663   9.953  0.2347 -0.5263  0.0980
 3727SOL    HW116501   3.694  11.633   9.895 -0.0476  0.5741 -0.1563
 3727SOL    HW216502   3.761  11.605  10.028 -0.3121 -1.0932 -0.3554
 3728SOL     OW16503   9.174  11.491  10.801  0.2349  0.1872  0.0512
 3728SOL    HW116504   9.153  11.409  10.758  0.7239 -0.3307  0.7646
 3728SOL    HW216505   9.207  11.548  10.731  0.1655 -0.3228 -0.3981
 3729SOL     OW16506   9.224  11.661   6.248  0.2137  0.2771 -0.5026
 3729SOL    HW116507   9.131  11.645   6.231  0.0098  1.6906 -0.7996
 3729SOL    HW216508   9.225  11.724   6.320  0.9578 -0.1058 -0.1678
 3730SOL     OW16509   6.303   8.988  10.503 -0.6378  0.3793 -0.3055
 3730SOL    HW116510   6.382   9.018  10.547  0.1801  1.2447 -2.2836
 3730SOL    HW216511   6.243   9.062  10.507 -0.2008  0.8109 -1.4558
 3731SOL     OW16512   9.975   9.235   6.746  0.0438  0.0186  0.0044
 3731SOL    HW116513   9.933   9.228   6.660 -2.0040 -1.6315  1.0254
 3731SOL    HW216514  10.069   9.235   6.727 -0.3389  0.3786 -2.2412
 3732SOL     OW16515   1.546  10.476   3.724 -0.1066  0.1128 -0.1923
 3732SOL    HW116516   1.543  10.489   3.819 -1.1253  0.8584 -0.3139
 3732SOL    HW216517   1.560  10.382   3.713 -1.4717 -0.2191  0.6967
 3733SOL     OW16518   0.307  11.418   2.997  0.3234 -0.4340 -0.4630
 3733SOL    HW116519   0.228  11.468   2.978  0.4140  0.7503  1.9360
 3733SOL    HW216520   0.338  11.453   3.080  2.7113 -1.7070 -0.7385
 3734SOL     OW16521   7.682   6.091  10.137  0.0463  0.2568 -0.0630
 3734SOL    HW116522   7.634   6.173  10.153  0.3342  0.2460  0.9384
 3734SOL    HW216523   7.747   6.114  10.070 -2.0519 -0.0053 -2.3386
 3735SOL     OW16524   6.573   9.902   2.739 -0.3798  0.0121 -0.6042
 3735SOL    HW116525   6.656   9.871   2.704  0.0581 -0.0487  0.4589
 3735SOL    HW216526   6.521   9.924   2.661  0.5917 -0.0177 -1.2813
 3736SOL     OW16527   7.426   7.613   6.966 -0.2642  0.3236 -0.1413
 3736SOL    HW116528   7.403   7.592   6.875 -2.3834  0.9369  0.2129
 3736SOL    HW216529   7.482   7.691   6.958 -0.8896  0.7119 -0.9009
 3737SOL     OW16530  10.440   6.470   7.146  0.4677  0.5026  0.3674
 3737SOL    HW116531  10.422   6.564   7.142  0.0102  0.4109  0.1889
 3737SOL    HW216532  10.429   6.447   7.239 -0.2691  0.4702  0.2830
 3738SOL     OW16533   8.696  10.984  11.204 -0.6985  0.4795  1.1326
 3738SOL    HW116534   8.767  10.922  11.217 -0.3674  0.6220  0.1237
 3738SOL    HW216535   8.662  11.002  11.291  0.5914  0.5142  1.6390
 3739SOL     OW16536   2.045   5.127   9.624  0.0772  0.2648 -0.2509
 3739SOL    HW116537   1.991   5.048   9.615 -0.0828  0.4027 -0.5508
 3739SOL    HW216538   2.000   5.192   9.570 -0.3151  0.8347  0.7318
 3740SOL     OW16539   7.413   0.568   3.089  0.2448  0.0768  0.4324
 3740SOL    HW116540   7.398   0.588   3.181  0.5214 -1.7573  0.9207
 3740SOL    HW216541   7.330   0.586   3.046 -0.5102 -0.9686  1.4143
 3741SOL     OW16542  11.277   2.549   3.119  0.1737 -0.1089  0.4053
 3741SOL    HW116543  11.348   2.527   3.179  0.0807  2.3350  1.5061
 3741SOL    HW216544  11.213   2.478   3.132  1.8956 -1.8040  0.1346
 3742SOL     OW16545   1.658  10.180  10.399  0.5157  0.0480  0.0499
 3742SOL    HW116546   1.696  10.266  10.385 -0.3940  0.4819  0.1943
 3742SOL    HW216547   1.722  10.133  10.453  0.0981  1.3398  1.7518
 3743SOL     OW16548   4.555  11.573   9.553 -0.5212  0.7192 -0.6259
 3743SOL    HW116549   4.524  11.629   9.482  2.3224  2.3458 -0.7094
 3743SOL    HW216550   4.630  11.619   9.590 -0.2957 -1.3241  1.7647
 3744SOL     OW16551  11.558   2.687  11.739 -0.1951  0.1285  0.8632
 3744SOL    HW116552  11.613   2.662  11.814  1.9045  0.2460 -0.5606
 3744SOL    HW216553  11.548   2.607  11.688  2.1702  0.9020 -0.9912
 3745SOL     OW16554   1.491   2.888   7.237  0.1607  0.4715 -0.1995
 3745SOL    HW116555   1.441   2.965   7.264 -0.7591 -0.4764  0.9539
 3745SOL    HW216556   1.578   2.903   7.273 -0.0859  0.8564  0.2560
 3746SOL     OW16557  10.761   2.108  10.320 -0.0802  0.1941 -0.0813
 3746SOL    HW116558  10.741   2.098  10.413 -2.2079 -2.4402 -0.7109
 3746SOL    HW216559  10.798   2.023  10.295 -2.0277 -0.1358 -2.1329
 3747SOL     OW16560   0.258   9.082   2.964 -0.7726 -0.1225  0.9539
 3747SOL    HW116561   0.295   9.036   3.039  0.5945 -0.0952  0.3141
 3747SOL    HW216562   0.252   9.016   2.895  1.0407  0.5644  0.0855
 3748SOL     OW16563   7.097   2.113  11.817 -0.3305  0.0270  0.3431
 3748SOL    HW116564   7.054   2.028  11.825  0.8229 -0.4909  1.3339
 3748SOL    HW216565   7.059   2.152  11.738 -0.0058 -1.9198 -0.8365
 3749SOL     OW16566  10.491   3.772   1.171 -0.3187 -0.1031 -0.5615
 3749SOL    HW116567  10.479   3.795   1.078 -2.0919  0.0853 -0.3153
 3749SOL    HW216568  10.404   3.747   1.201  0.1950  0.0024  1.1210
 3750SOL     OW16569   0.997   8.598   2.308 -0.2320 -0.0926 -0.2317
 3750SOL    HW116570   0.902   8.601   2.322 -0.0972 -1.1628  1.0757
 3750SOL    HW216571   1.008   8.545   2.229 -0.8436  3.2559 -2.8177
 3751SOL     OW16572   0.315  10.916   9.757  0.4917  0.0415  0.0714
 3751SOL    HW116573   0.359  10.993   9.795 -0.3554  1.6676 -1.9992
 3751SOL    HW216574   0.229  10.914   9.800 -0.0594  1.2187 -0.9158
 3752SOL     OW16575  11.183   6.568   6.732 -0.6831 -0.1579 -0.0568
 3752SOL    HW116576  11.179   6.629   6.806  0.5772  0.8143 -0.7468
 3752SOL    HW216577  11.269   6.585   6.692 -2.0856  0.7855 -2.9184
 3753SOL     OW16578   0.437   7.683   9.773  0.4790 -0.4918 -0.1726
 3753SOL    HW116579   0.439   7.602   9.823 -0.2351  0.5442  1.6409
 3753SOL    HW216580   0.396   7.660   9.690  0.6788 -2.0511  0.1398
 3754SOL     OW16581  10.315   0.810   7.809 -0.4540 -0.8710 -0.2913
 3754SOL    HW116582  10.408   0.796   7.828  0.1545  2.3291 -0.2400
 3754SOL    HW216583  10.275   0.823   7.896 -0.2163  0.9764 -0.4014
 3755SOL     OW16584   5.362   0.538   9.910 -0.8707 -0.0502  0.2479
 3755SOL    HW116585   5.333   0.450   9.933  0.5294 -0.1738  1.7930
 3755SOL    HW216586   5.375   0.581   9.995  1.6256  0.5342 -0.3540
 3756SOL     OW16587   8.412   7.308  11.243  0.2347  0.4592  0.2443
 3756SOL    HW116588   8.372   7.233  11.287  0.0280  0.9207  0.8497
 3756SOL    HW216589   8.505   7.286  11.239  0.1379  0.0468  0.1617
 3757SOL     OW16590   0.857   7.165   2.188  0.1842 -0.2192 -0.2395
 3757SOL    HW116591   0.923   7.139   2.254  1.4697  0.7417 -1.0912
 3757SOL    HW216592   0.821   7.082   2.157 -1.1583 -0.6834  2.3198
 3758SOL     OW16593   7.325   8.131   7.727  0.0907 -0.0791 -0.4462
 3758SOL    HW116594   7.344   8.202   7.788 -0.5181  0.2176 -0.5986
 3758SOL    HW216595   7.252   8.084   7.767  0.4211 -0.5594 -0.3989
 3759SOL     OW16596   1.781   7.497   1.159 -0.3123  0.1383  0.2527
 3759SOL    HW116597   1.795   7.570   1.099 -0.6034 -0.5106 -0.6381
 3759SOL    HW216598   1.861   7.445   1.154 -0.4310 -0.0454  0.2441
 3760SOL     OW16599   7.166   1.124  11.199 -0.2975  0.0686  0.2821
 3760SOL    HW116600   7.084   1.134  11.151  0.9993 -0.5600 -2.2287
 3760SOL    HW216601   7.211   1.208  11.190 -0.3067  0.1497  0.9485
 3761SOL     OW16602   7.543   8.398   9.850  0.4967 -0.7898  0.3788
 3761SOL    HW116603   7.472   8.444   9.805  2.0976  1.1606 -0.2678
 3761SOL    HW216604   7.538   8.429   9.940  0.5906 -0.5847  0.3131
 3762SOL     OW16605   7.543   3.334   3.997 -0.2987 -0.2970  0.4398
 3762SOL    HW116606   7.482   3.374   4.060 -2.0666 -3.2351  0.7997
 3762SOL    HW216607   7.619   3.311   4.050 -1.0238 -1.1069  1.1821
 3763SOL     OW16608   4.343   3.121   5.487 -0.2242 -0.1944  0.4024
 3763SOL    HW116609   4.374   3.085   5.570 -0.4414 -0.6405  0.2893
 3763SOL    HW216610   4.358   3.215   5.495  0.4328 -0.3112  0.6629
 3764SOL     OW16611   6.536   4.469   1.953 -0.0501  0.1674  0.0440
 3764SOL    HW116612   6.515   4.414   1.877  2.7639 -1.8227  0.5328
 3764SOL    HW216613   6.497   4.422   2.027  1.6029 -0.8084  0.3548
 3765SOL     OW16614   1.053   5.697   9.100 -0.4887  0.2503 -0.7489
 3765SOL    HW116615   0.978   5.641   9.119 -1.9104  1.4152 -2.5521
 3765SOL    HW216616   1.028   5.783   9.136  0.1259  0.5691 -1.0681
 3766SOL     OW16617   9.434   1.936  11.475  0.3140 -0.5096 -0.0590
 3766SOL    HW116618   9.430   2.026  11.507  0.8326 -0.3526 -0.4201
 3766SOL    HW216619   9.467   1.944  11.385 -0.3809 -1.0024 -0.3676
 3767SOL     OW16620   6.490   5.788   2.506  0.2784  0.1296  0.1388
 3767SOL    HW116621   6.478   5.742   2.589  1.9321  0.6820  0.7033
 3767SOL    HW216622   6.582   5.777   2.484 -0.1152 -0.0000 -1.6449
 3768SOL     OW16623   2.213   4.921   9.470  0.9610  0.1681  0.0104
 3768SOL    HW116624   2.169   4.843   9.435  0.5542  0.6380 -0.5275
 3768SOL    HW216625   2.145   4.967   9.520  1.2519  0.0834  0.4974
 3769SOL     OW16626  10.708   0.065   6.918  0.3145  0.3613 -0.3152
 3769SOL    HW116627  10.732   0.094   6.830  3.7991 -0.5931  0.1782
 3769SOL    HW216628  10.713   0.145   6.971 -1.3441  0.8507 -0.8294
 3770SOL     OW16629   8.555   3.173   2.292  0.0841  0.8082  0.2837
 3770SOL    HW116630   8.462   3.192   2.279  0.4789  1.3112 -2.3689
 3770SOL    HW216631   8.599   3.258   2.285  0.8050  0.5540  1.3473
 3771SOL     OW16632   2.708   2.351   1.101  0.4452  0.9252 -0.1703
 3771SOL    HW116633   2.702   2.264   1.060  2.4080  1.1948 -1.1840
 3771SOL    HW216634   2.688   2.335   1.194 -2.0537 -0.0645 -0.7986
 3772SOL     OW16635   4.570   3.664   7.319  0.1519 -0.2232  0.2124
 3772SOL    HW116636   4.495   3.722   7.316  0.2919 -0.0798 -0.7093
 3772SOL    HW216637   4.634   3.703   7.259  0.5783 -0.8610  0.2354
 3773SOL     OW16638   7.466  11.577   3.282 -0.5851 -0.1574 -0.1438
 3773SOL    HW116639   7.526  11.651   3.278  0.3007 -0.8812 -3.0208
 3773SOL    HW216640   7.455  11.559   3.375  2.4466  0.9966  0.5426
 3774SOL     OW16641   9.752   6.755  10.932 -0.2049 -0.4657  0.1990
 3774SOL    HW116642   9.841   6.719  10.942 -0.5153 -0.8609  1.8298
 3774SOL    HW216643   9.699   6.680  10.905 -0.2338 -0.4662  0.2564
 3775SOL     OW16644   9.886   2.117   6.667  0.0200 -0.2305 -0.1347
 3775SOL    HW116645   9.892   2.148   6.577  0.0664 -0.3069 -0.1578
 3775SOL    HW216646   9.809   2.059   6.667  0.7601 -1.2346 -0.4234
 3776SOL     OW16647   2.831  11.511   7.141 -0.0284  0.0879  0.5397
 3776SOL    HW116648   2.820  11.476   7.229  1.5223 -0.0412  0.7198
 3776SOL    HW216649   2.912  11.562   7.145 -0.5913  1.1356 -0.5063
 3777SOL     OW16650   5.242   9.187   4.572  0.1593  0.1206  0.7277
 3777SOL    HW116651   5.238   9.202   4.478 -0.1256 -2.7490  0.1871
 3777SOL    HW216652   5.152   9.168   4.598  0.6741 -3.1748  0.6487
 3778SOL     OW16653  11.148   7.361   2.954 -0.2558 -0.2192 -0.5180
 3778SOL    HW116654  11.174   7.437   3.006  1.8050 -1.6296  0.6361
 3778SOL    HW216655  11.230   7.328   2.917 -0.9974 -2.2171 -0.4907
 3779SOL     OW16656  10.182   0.829   4.553  0.0316 -0.3871 -0.4312
 3779SOL    HW116657  10.088   0.819   4.536  0.3506 -1.1506 -1.9085
 3779SOL    HW216658  10.207   0.907   4.503  0.3155 -0.5972 -0.6188
 3780SOL     OW16659   8.295   6.187   7.752  0.4004 -0.0732 -0.0931
 3780SOL    HW116660   8.358   6.246   7.710 -1.3446  2.0060  0.0380
 3780SOL    HW216661   8.218   6.189   7.695  0.1133 -1.9018  0.1787
 3781SOL     OW16662   0.590   9.055   9.103 -0.2560 -0.4977  0.2415
 3781SOL    HW116663   0.607   9.015   9.017 -0.6302 -0.4766  0.1586
 3781SOL    HW216664   0.496   9.073   9.103  0.1856  2.3819 -0.6088
 3782SOL     OW16665   7.504  10.782   3.435 -0.2221  0.0482 -0.4308
 3782SOL    HW116666   7.489  10.874   3.415  1.8598  0.8435  1.2090
 3782SOL    HW216667   7.448  10.763   3.510  0.5203  0.4881  0.2514
 3783SOL     OW16668  11.825   4.025   0.468  0.0029  0.6846 -0.0671
 3783SOL    HW116669  11.800   3.936   0.444 -1.0221  1.1384 -0.7549
 3783SOL    HW216670  11.747   4.078   0.449  1.4373  2.1763 -2.3622
 3784SOL     OW16671   6.253   1.845   7.008 -0.1042  0.4073  0.1598
 3784SOL    HW116672   6.205   1.815   7.085  0.2144 -0.1877  0.1332
 3784SOL    HW216673   6.334   1.794   7.009 -1.3858 -1.9089 -2.2731
 3785SOL     OW16674  10.261   1.033   8.059 -0.1267 -0.3034  0.6684
 3785SOL    HW116675  10.357   1.024   8.061  0.2555  1.5255 -2.2714
 3785SOL    HW216676  10.245   1.093   7.986 -3.6603 -2.4895 -0.5810
 3786SOL     OW16677   0.178  11.390   3.373  0.0666 -0.2055 -0.2633
 3786SOL    HW116678   0.168  11.375   3.467 -1.7830  1.6901 -0.0831
 3786SOL    HW216679   0.185  11.302   3.335  1.5490 -0.9980  1.6600
 3787SOL     OW16680   6.130  10.073   9.823 -0.0657  0.2465  0.0962
 3787SOL    HW116681   6.044  10.049   9.856  0.5932 -0.4403  1.4281
 3787SOL    HW216682   6.180  10.095   9.901  1.2421 -0.3262 -0.5431
 3788SOL     OW16683   9.402   5.756   9.367  0.4797 -0.6606  0.6995
 3788SOL    HW116684   9.428   5.848   9.363  0.6881 -0.7358  0.2520
 3788SOL    HW216685   9.340   5.752   9.440 -0.5163  0.0693 -0.0886
 3789SOL     OW16686   7.375   8.093   2.277  0.2464  0.1132  0.5318
 3789SOL    HW116687   7.355   8.067   2.367  1.4957 -0.0360  0.7863
 3789SOL    HW216688   7.309   8.158   2.256  0.0815  0.3357  1.6458
 3790SOL     OW16689   6.775   2.490   3.736 -0.7554  0.3645 -0.1651
 3790SOL    HW116690   6.765   2.470   3.829  0.1140 -0.0565 -0.1513
 3790SOL    HW216691   6.718   2.428   3.691  1.1929 -1.6137 -0.0706
 3791SOL     OW16692  11.164   5.164   1.988 -0.0561  0.0905  0.2982
 3791SOL    HW116693  11.174   5.201   2.075 -2.4628  0.8380  0.3422
 3791SOL    HW216694  11.137   5.238   1.933 -1.1255 -0.8179 -0.4606
 3792SOL     OW16695   5.412   1.771   6.280 -0.6968  0.0931 -0.3658
 3792SOL    HW116696   5.476   1.839   6.300  0.3922 -0.1006 -2.8023
 3792SOL    HW216697   5.402   1.775   6.185 -0.7964 -2.9377 -0.5823
 3793SOL     OW16698   7.111   7.345   5.439  0.4619 -0.0858  0.0381
 3793SOL    HW116699   7.102   7.438   5.457  0.2022  0.1614 -1.2911
 3793SOL    HW216700   7.023   7.317   5.413  0.3756 -0.8675  1.0761
 3794SOL     OW16701   5.532   9.978   6.138  0.9259 -0.3173  0.1411
 3794SOL    HW116702   5.605  10.033   6.109  0.8487  0.6715  1.7598
 3794SOL    HW216703   5.566   9.931   6.214 -0.4503  1.0465  1.6583
 3795SOL     OW16704   0.006  11.430   5.118  0.5203  0.1531  0.0830
 3795SOL    HW116705   0.044  11.518   5.115  0.1219  0.2991 -0.8580
 3795SOL    HW216706   0.071  11.374   5.077 -0.0940  0.3495 -1.2142
 3796SOL     OW16707   9.573   8.091   5.968  0.0156 -0.0932  0.2489
 3796SOL    HW116708   9.555   8.014   5.914  1.2315 -0.4228  0.2865
 3796SOL    HW216709   9.668   8.093   5.976  0.0775  2.0434 -0.6345
 3797SOL     OW16710   5.572   2.089   0.497 -0.1702  0.2130  0.0999
 3797SOL    HW116711   5.498   2.125   0.448 -1.0315 -1.3236  0.1891
 3797SOL    HW216712   5.638   2.158   0.496 -1.6505  1.6837  0.1180
 3798SOL     OW16713   7.406   4.443   3.880  0.2034  0.4327  0.1291
 3798SOL    HW116714   7.452   4.395   3.811 -0.7502  0.3173 -0.4448
 3798SOL    HW216715   7.396   4.531   3.845  1.0656  0.7882  0.7644
 3799SOL     OW16716   4.824   0.022  11.399 -1.4508 -0.4281  0.3681
 3799SOL    HW116717   4.822   0.094  11.463 -0.3705 -0.3729  0.3607
 3799SOL    HW216718   4.756   0.045  11.335 -0.4923  1.0903 -0.1654
 3800SOL     OW16719   9.401  10.551   5.164  0.1239  0.8909  0.0473
 3800SOL    HW116720   9.365  10.534   5.077  0.7179 -0.1001 -0.0232
 3800SOL    HW216721   9.324  10.561   5.220 -0.4275 -2.8973  0.2292
 3801SOL     OW16722   7.172  11.228   8.504  0.1298  0.0956  0.7307
 3801SOL    HW116723   7.143  11.138   8.518  0.2033 -0.1173 -0.3966
 3801SOL    HW216724   7.217  11.226   8.419 -1.1926  1.4796 -0.0643
 3802SOL     OW16725  10.709   6.680   0.703  0.1924 -0.0804  0.0311
 3802SOL    HW116726  10.773   6.679   0.632  1.5439  0.1197  1.2019
 3802SOL    HW216727  10.652   6.754   0.683  1.8636  1.3337  0.2270
 3803SOL     OW16728   6.503   0.954   1.821  0.2248  0.0801  0.2881
 3803SOL    HW116729   6.580   0.980   1.770  0.5072  1.4510  1.3521
 3803SOL    HW216730   6.526   0.976   1.911 -0.6365 -1.3988  0.9009
 3804SOL     OW16731   2.624   1.074   1.043 -0.0359 -0.0282 -0.0389
 3804SOL    HW116732   2.696   1.115   1.091 -2.1522  0.0385  3.3832
 3804SOL    HW216733   2.625   1.117   0.958  0.4617  4.2621  1.8684
 3805SOL     OW16734   2.948   2.533   3.319  0.1942  0.6465  0.1268
 3805SOL    HW116735   2.927   2.576   3.236  3.1045  1.0245 -0.5097
 3805SOL    HW216736   3.019   2.585   3.355  1.3984 -1.5773  1.1034
 3806SOL     OW16737   3.123   3.672   8.242  0.2703  0.4463  0.0282
 3806SOL    HW116738   3.099   3.580   8.240  0.8603  0.2794  0.4752
 3806SOL    HW216739   3.198   3.678   8.182  0.8180  0.4586  0.7062
 3807SOL     OW16740   5.999  10.925   5.913  0.1285  0.4211  0.1528
 3807SOL    HW116741   6.057  10.891   5.981  2.0158  1.5206 -0.8293
 3807SOL    HW216742   5.983  10.850   5.855 -1.9151 -0.6665  1.9645
 3808SOL     OW16743  11.362  10.520   8.256  0.0797  0.3454  0.1692
 3808SOL    HW116744  11.344  10.534   8.163  2.1881 -0.9945 -0.5028
 3808SOL    HW216745  11.281  10.483   8.291 -0.6310  0.5531 -1.1979
 3809SOL     OW16746   6.235   0.272   5.909 -0.0470  0.2519  0.1367
 3809SOL    HW116747   6.225   0.192   5.857  0.1066  0.0803  0.3716
 3809SOL    HW216748   6.148   0.312   5.908 -0.4729 -0.6191  1.1613
 3810SOL     OW16749   0.831   0.296   1.469 -0.5869 -0.0186  0.4288
 3810SOL    HW116750   0.836   0.317   1.376 -0.4677  0.4862  0.5444
 3810SOL    HW216751   0.793   0.209   1.472 -0.3185 -0.1613 -0.1075
 3811SOL     OW16752   2.875   2.397   5.260  0.3702 -0.4406 -0.3068
 3811SOL    HW116753   2.908   2.385   5.171  0.5797 -0.4218 -0.2320
 3811SOL    HW216754   2.954   2.396   5.315  0.0667 -3.4900  0.2339
 3812SOL     OW16755   1.809   0.196   4.565 -0.1817  0.0363  0.5381
 3812SOL    HW116756   1.804   0.182   4.470  0.8360  1.3906  0.2595
 3812SOL    HW216757   1.857   0.120   4.598 -0.2164 -0.2630 -0.0770
 3813SOL     OW16758  10.155   2.553  11.366 -0.2367  0.3552 -0.2700
 3813SOL    HW116759  10.108   2.488  11.313 -0.5205  1.3825 -1.3203
 3813SOL    HW216760  10.086   2.602  11.410 -0.0837  0.7377 -0.4527
 3814SOL     OW16761   7.170   6.245   1.542 -0.5565  0.2597 -0.0879
 3814SOL    HW116762   7.182   6.187   1.617 -0.3094 -1.7592 -1.6156
 3814SOL    HW216763   7.078   6.237   1.519 -0.2958 -0.4365 -0.9701
 3815SOL     OW16764  10.116   5.444  10.720  0.5146 -0.3698  0.4230
 3815SOL    HW116765  10.153   5.516  10.772  0.5195  0.5523 -0.8198
 3815SOL    HW216766  10.173   5.439  10.643  1.4264 -2.7206  1.1632
 3816SOL     OW16767   3.696   4.991   4.323  0.3672  0.0360 -0.1737
 3816SOL    HW116768   3.706   4.919   4.261 -0.1026  0.2261 -0.4743
 3816SOL    HW216769   3.607   5.021   4.310  0.0359 -0.3451  1.0567
 3817SOL     OW16770   0.401   1.926   8.441  0.1445  0.4471  0.2379
 3817SOL    HW116771   0.306   1.915   8.432  0.1109 -0.6892  1.7024
 3817SOL    HW216772   0.437   1.881   8.365 -0.4698  0.6436 -0.1799
 3818SOL     OW16773   4.591   8.340   7.555  0.4398 -0.3933 -0.0304
 3818SOL    HW116774   4.572   8.361   7.464  2.2148  0.2239 -0.2938
 3818SOL    HW216775   4.556   8.251   7.567  0.7149 -0.7169 -1.4873
 3819SOL     OW16776  10.903   1.046   3.228 -1.0235  0.2778  0.2805
 3819SOL    HW116777  10.854   0.969   3.256  0.3581 -0.2610  1.3705
 3819SOL    HW216778  10.912   1.036   3.133 -1.1368 -0.7457  0.3632
 3820SOL     OW16779   4.683   8.232   4.342  0.4248 -0.3573 -0.6335
 3820SOL    HW116780   4.759   8.290   4.344  0.1418  0.0456 -1.0515
 3820SOL    HW216781   4.709   8.160   4.283  1.1749 -1.2532  0.7441
 3821SOL     OW16782   1.436   4.527   0.944  0.3879  0.1252  0.5045
 3821SOL    HW116783   1.420   4.445   0.898  1.3500  1.1005 -1.6781
 3821SOL    HW216784   1.529   4.526   0.964  0.2564  0.3691  1.1621
 3822SOL     OW16785   3.897   8.666   8.729 -0.1878  0.0737  0.1451
 3822SOL    HW116786   3.917   8.592   8.787  1.4918  0.3820  0.0169
 3822SOL    HW216787   3.871   8.625   8.647  0.2315 -0.3929  0.2346
 3823SOL     OW16788   7.112  10.255   7.105 -0.0349 -0.1667 -0.0811
 3823SOL    HW116789   7.081  10.342   7.130 -1.2952 -0.3872 -0.7795
 3823SOL    HW216790   7.113  10.205   7.187 -0.3342  0.2092  0.1564
 3824SOL     OW16791   4.288   8.540   3.525 -0.0775 -0.2690 -0.3339
 3824SOL    HW116792   4.358   8.604   3.532  0.0211 -0.2442 -1.3558
 3824SOL    HW216793   4.295   8.507   3.435 -0.6509 -1.0968 -0.0852
 3825SOL     OW16794   4.390   6.938   3.443  0.0066 -0.2417 -0.2288
 3825SOL    HW116795   4.386   6.896   3.357 -0.1936  0.0426 -0.3612
 3825SOL    HW216796   4.389   6.866   3.505 -0.3547 -0.4332 -0.4530
 3826SOL     OW16797   1.211  11.171   9.815 -0.4948 -0.5759  0.3748
 3826SOL    HW116798   1.272  11.152   9.886  1.3851  2.1834 -0.3553
 3826SOL    HW216799   1.219  11.096   9.756  2.8469 -0.0316 -0.0353
 3827SOL     OW16800   1.961   0.562  10.987 -0.9326  0.0693 -0.0117
 3827SOL    HW116801   1.978   0.647  10.946 -0.4815 -0.2192 -0.4290
 3827SOL    HW216802   1.866   0.552  10.984 -1.2274  1.5447  2.0132
 3828SOL     OW16803   6.898   3.555   6.097 -0.3062 -0.6709 -0.5384
 3828SOL    HW116804   6.851   3.541   6.015  0.0502 -0.0558 -0.8517
 3828SOL    HW216805   6.982   3.592   6.071 -0.9931  1.5682  0.2068
 3829SOL     OW16806   3.004   2.998   7.539  0.5668 -0.7290  0.2529
 3829SOL    HW116807   3.075   3.035   7.486  1.2936 -1.3375  0.7904
 3829SOL    HW216808   2.958   3.075   7.573  1.3545 -0.3218  0.4241
 3830SOL     OW16809   0.854   5.190  10.384  0.3207  0.0679 -0.7834
 3830SOL    HW116810   0.911   5.115  10.369  3.4219  1.7000  1.5876
 3830SOL    HW216811   0.899   5.263  10.343 -1.3663  1.0810 -0.9291
 3831SOL     OW16812  11.657   4.377   5.803  0.3493  0.0022 -0.2504
 3831SOL    HW116813  11.569   4.404   5.776  0.8634  0.4637 -1.5717
 3831SOL    HW216814  11.643   4.298   5.856 -0.9117  0.6161  0.3719
 3832SOL     OW16815  10.364   3.461   2.579  0.2798  0.0225 -0.2090
 3832SOL    HW116816  10.304   3.471   2.505  0.2596 -0.3715 -0.2506
 3832SOL    HW216817  10.342   3.533   2.638 -0.7722 -0.5650  0.1473
 3833SOL     OW16818   4.819   1.055   7.986  0.3175 -0.7734 -0.8743
 3833SOL    HW116819   4.892   0.998   8.009  2.6970  2.5176  0.4097
 3833SOL    HW216820   4.855   1.115   7.921 -1.9252 -0.3276 -1.8085
 3834SOL     OW16821   1.362   9.785   6.923 -0.2218  0.4607 -0.1438
 3834SOL    HW116822   1.286   9.748   6.879  0.2274  0.3266 -0.8156
 3834SOL    HW216823   1.370   9.873   6.886 -0.7137  0.8938  0.7466
 3835SOL     OW16824  11.619   5.989   1.754 -0.1101  0.5233  0.5218
 3835SOL    HW116825  11.552   6.057   1.758  0.2796  0.8968  0.8064
 3835SOL    HW216826  11.675   6.006   1.830 -0.7452 -0.8951  1.3552
 3836SOL     OW16827   2.950   7.150   3.076 -0.0101  0.5377  0.3518
 3836SOL    HW116828   2.860   7.167   3.102 -0.8937  0.5301 -2.3607
 3836SOL    HW216829   2.971   7.064   3.114 -1.2609  0.3919  0.7441
 3837SOL     OW16830   3.179   3.347   8.916  0.1334  0.7032  0.9657
 3837SOL    HW116831   3.175   3.262   8.872  0.8531 -0.6030  3.2796
 3837SOL    HW216832   3.238   3.399   8.861 -3.1436  1.1472 -2.5750
 3838SOL     OW16833   5.194   2.519   9.106 -0.0517  0.2266 -0.6294
 3838SOL    HW116834   5.224   2.524   9.197  1.7100  0.7495 -1.2083
 3838SOL    HW216835   5.174   2.426   9.093 -2.5125  0.4526  0.9057
 3839SOL     OW16836  10.834   2.677  11.156 -0.3104  0.3840  0.2326
 3839SOL    HW116837  10.900   2.745  11.168 -0.5931  0.6619  0.2432
 3839SOL    HW216838  10.870   2.620  11.087 -0.0530  0.5202  0.2555
 3840SOL     OW16839   5.024   4.446   3.002  0.1111  0.1096  0.3298
 3840SOL    HW116840   5.000   4.454   3.095  0.0406  2.2808  0.1826
 3840SOL    HW216841   4.947   4.478   2.955 -0.0452 -1.4696 -0.5278
 3841SOL     OW16842  11.071   9.882   8.809 -0.4602 -0.5020 -0.4739
 3841SOL    HW116843  11.135   9.827   8.764 -0.3643 -1.5712  0.9101
 3841SOL    HW216844  10.986   9.850   8.778 -0.3697 -0.1306 -1.1217
 3842SOL     OW16845   7.769   2.250   7.195 -0.2457  0.0672  0.0893
 3842SOL    HW116846   7.737   2.340   7.187 -1.7323 -0.5655 -1.8262
 3842SOL    HW216847   7.824   2.238   7.117 -1.1410 -1.0702 -0.3911
 3843SOL     OW16848   4.019   7.217   4.837  0.0180  0.1029  0.1476
 3843SOL    HW116849   3.995   7.125   4.842  0.0732  0.0460 -0.4724
 3843SOL    HW216850   4.110   7.220   4.867  0.9945 -0.5045 -2.4791
 3844SOL     OW16851   5.931   4.934   3.822  0.3590 -0.3431 -0.3260
 3844SOL    HW116852   6.016   4.902   3.852 -0.1767  0.0558  1.8312
 3844SOL    HW216853   5.922   5.019   3.866 -0.7322  0.0655 -1.3071
 3845SOL     OW16854  11.723   3.534   7.703 -0.5632 -0.3073 -0.3555
 3845SOL    HW116855  11.783   3.468   7.669  0.3245  0.9215 -1.2984
 3845SOL    HW216856  11.643   3.486   7.722  0.6666 -1.9891  0.8921
 3846SOL     OW16857   9.192   9.089  10.381 -0.6433  0.1809  0.4042
 3846SOL    HW116858   9.162   8.999  10.389 -0.8716  0.1906 -0.3008
 3846SOL    HW216859   9.133   9.128  10.316  0.3387  0.4444 -0.3452
 3847SOL     OW16860   8.735   0.557   3.888  0.0318  0.4706  0.0426
 3847SOL    HW116861   8.767   0.646   3.905  1.2270 -0.4747  3.6396
 3847SOL    HW216862   8.645   0.557   3.921  0.1389  0.2716  0.3367
 3848SOL     OW16863   9.763  10.612   5.807 -0.4235 -0.1350  0.2643
 3848SOL    HW116864   9.819  10.683   5.841 -0.8758  0.4767 -0.2435
 3848SOL    HW216865   9.725  10.573   5.885  1.7939 -1.5088  0.7434
 3849SOL     OW16866   2.362   5.549   5.810  0.2494 -0.0143  0.5209
 3849SOL    HW116867   2.451   5.583   5.808  0.2593 -0.0402 -1.6225
 3849SOL    HW216868   2.369   5.462   5.769 -0.9102  0.4466 -0.7272
 3850SOL     OW16869   0.728   7.087   9.545 -0.5491  0.3620 -0.2368
 3850SOL    HW116870   0.641   7.048   9.541 -2.3862  3.8902  1.0938
 3850SOL    HW216871   0.752   7.103   9.453 -0.2490 -2.5508 -0.7366
 3851SOL     OW16872   5.665   6.042  11.418  0.3317  0.4160  0.2069
 3851SOL    HW116873   5.609   6.030  11.495 -0.1842  1.7221  0.0729
 3851SOL    HW216874   5.647   5.966  11.363 -0.3630  0.1791  0.7431
 3852SOL     OW16875   5.739   9.732   3.731  0.1542  0.1130  0.0364
 3852SOL    HW116876   5.685   9.675   3.676  0.7629 -0.1413 -0.3042
 3852SOL    HW216877   5.699   9.819   3.722 -1.0522 -0.3177  0.9117
 3853SOL     OW16878   6.330   4.324   7.081 -0.3189  0.2045 -0.1252
 3853SOL    HW116879   6.331   4.364   6.994  1.1161 -0.2630 -0.3435
 3853SOL    HW216880   6.403   4.365   7.127 -0.9035  0.2501  0.7914
 3854SOL     OW16881   1.733   3.417   2.003  0.1140 -0.3880  0.4077
 3854SOL    HW116882   1.642   3.390   1.998 -0.1096  0.3271  0.4582
 3854SOL    HW216883   1.782   3.348   1.958 -0.4034 -0.9759  0.7270
 3855SOL     OW16884   5.722   8.162   2.976 -0.2214  0.0557  0.1385
 3855SOL    HW116885   5.638   8.158   2.930 -1.0540  0.3698  1.6054
 3855SOL    HW216886   5.768   8.083   2.947 -0.6486  0.3114 -1.3390
 3856SOL     OW16887   0.765   3.654   6.993 -0.2040 -0.0213  0.6672
 3856SOL    HW116888   0.723   3.648   6.907 -0.9582  0.6638  0.9774
 3856SOL    HW216889   0.838   3.592   6.988 -1.2804 -1.2918  0.1310
 3857SOL     OW16890   4.005  11.657   3.600  0.3231 -0.2385 -0.1507
 3857SOL    HW116891   4.014  11.635   3.507  1.5880 -0.8600  0.1035
 3857SOL    HW216892   4.091  11.692   3.624 -1.1687  4.0265 -0.2335
 3858SOL     OW16893   9.507  11.482   7.880  0.3238 -0.5015  0.0172
 3858SOL    HW116894   9.568  11.428   7.830 -2.0400 -2.5795 -0.8258
 3858SOL    HW216895   9.484  11.430   7.957 -0.0582  0.4284  0.5637
 3859SOL     OW16896   4.558   9.081   0.055 -0.0432  0.0571  0.0876
 3859SOL    HW116897   4.497   9.105   0.124  1.8365  1.9450  1.2086
 3859SOL    HW216898   4.619   9.020   0.098  0.9309  0.9742  0.0425
 3860SOL     OW16899   2.871   5.508   3.581  0.4088  0.6836  0.5424
 3860SOL    HW116900   2.856   5.579   3.519 -0.2437 -0.7138 -0.9834
 3860SOL    HW216901   2.885   5.431   3.526 -0.8453 -0.7476  2.1216
 3861SOL     OW16902  10.253   7.265   7.210 -0.2097 -0.3356 -0.0002
 3861SOL    HW116903  10.172   7.217   7.227 -1.3942  0.2666 -3.2537
 3861SOL    HW216904  10.285   7.230   7.126  1.5204  1.1951 -0.0526
 3862SOL     OW16905   2.796   3.913   8.561  0.4555 -0.7396 -0.7723
 3862SOL    HW116906   2.774   3.839   8.505  1.1246  0.1861 -2.3092
 3862SOL    HW216907   2.826   3.981   8.501 -0.0985  0.7787  0.5908
 3863SOL     OW16908   0.437   0.296   0.149 -0.0949  0.2297  0.2984
 3863SOL    HW116909   0.361   0.284   0.091 -0.3451 -0.7892  0.8078
 3863SOL    HW216910   0.508   0.251   0.103 -0.1220  0.0458  0.4335
 3864SOL     OW16911   8.072   1.625   7.279 -0.3577  0.2801  0.3235
 3864SOL    HW116912   8.067   1.601   7.371 -0.4909  0.5539  0.3890
 3864SOL    HW216913   8.109   1.713   7.278 -1.7489  0.8992  0.2185
 3865SOL     OW16914   1.568  10.228   4.560  0.8118 -0.4792  0.2455
 3865SOL    HW116915   1.519  10.185   4.630  0.2963  1.2761  1.0238
 3865SOL    HW216916   1.564  10.166   4.487 -2.8404 -0.3997  0.1749
 3866SOL     OW16917  10.128   4.576   2.121  0.4489 -0.5810  0.2029
 3866SOL    HW116918  10.193   4.528   2.069  1.4365 -0.1696  1.0380
 3866SOL    HW216919  10.142   4.668   2.098  1.1956 -0.3527  1.5143
 3867SOL     OW16920   4.090   0.016   8.041  0.0937 -0.3612  0.4193
 3867SOL    HW116921   4.116  -0.069   8.077 -1.2841 -0.9608  0.0458
 3867SOL    HW216922   4.023   0.049   8.100  0.3879  0.3292  0.3816
 3868SOL     OW16923   3.037   6.593  10.920 -0.1010  0.2168 -0.1964
 3868SOL    HW116924   2.962   6.535  10.903  0.2385  0.0310 -1.1605
 3868SOL    HW216925   3.078   6.556  10.998 -0.7018  0.0003  0.0274
 3869SOL     OW16926   8.267   9.078   4.891 -0.8739  0.1808  0.4222
 3869SOL    HW116927   8.232   9.052   4.806 -1.5284  1.2265  0.3569
 3869SOL    HW216928   8.341   9.019   4.906  1.1743  1.8246 -2.2446
 3870SOL     OW16929   9.848   6.244   6.412 -0.1908  0.0704  0.6011
 3870SOL    HW116930   9.765   6.252   6.459 -0.2709 -1.2720  0.7233
 3870SOL    HW216931   9.828   6.279   6.324 -0.5141  0.9561  1.0098
 3871SOL     OW16932   5.558   2.968   2.756 -0.1677  0.0596  0.0025
 3871SOL    HW116933   5.607   3.049   2.748  1.7982 -0.9761  1.0315
 3871SOL    HW216934   5.585   2.916   2.680  1.1414 -0.8792  1.0555
 3872SOL     OW16935   1.381   6.758   4.580 -0.1824  0.3014  0.5125
 3872SOL    HW116936   1.302   6.790   4.623  0.4403  2.3728  0.2428
 3872SOL    HW216937   1.357   6.749   4.488 -0.6992 -1.3211  0.7663
 3873SOL     OW16938   9.724   4.007   2.791 -0.3345  0.4430 -0.4445
 3873SOL    HW116939   9.789   3.983   2.725 -1.1339 -0.1377 -1.0388
 3873SOL    HW216940   9.754   4.091   2.825  0.6963  0.2082 -0.7412
 3874SOL     OW16941   6.343   7.667  10.760  0.1347 -0.0066  0.1767
 3874SOL    HW116942   6.419   7.701  10.808  0.2744 -0.9701  0.6598
 3874SOL    HW216943   6.372   7.663  10.669  0.1310  1.0964  0.1182
 3875SOL     OW16944   5.837   6.649   6.894  0.3793  0.7024 -0.0282
 3875SOL    HW116945   5.859   6.604   6.976 -3.0925  1.8606  1.7678
 3875SOL    HW216946   5.774   6.591   6.852  1.2726  0.6628 -1.3463
 3876SOL     OW16947  11.451   8.353   4.122 -0.1243 -0.2423 -0.4618
 3876SOL    HW116948  11.506   8.415   4.169  0.6466  0.5592 -2.3404
 3876SOL    HW216949  11.376   8.405   4.092 -0.8324 -0.8419  0.2164
 3877SOL     OW16950   4.538   8.350   3.513  0.3998  0.2795  0.2668
 3877SOL    HW116951   4.472   8.290   3.547 -1.6212  0.7644 -2.4938
 3877SOL    HW216952   4.505   8.437   3.535  0.0534  0.5221 -1.0944
 3878SOL     OW16953   6.629   0.224   1.881  0.2496  0.3446 -0.0497
 3878SOL    HW116954   6.640   0.173   1.962 -2.2320 -0.4871 -0.1854
 3878SOL    HW216955   6.543   0.265   1.890  0.4610  1.2389 -1.7727
 3879SOL     OW16956   6.578  11.597   7.747  0.1145  0.1860  0.5525
 3879SOL    HW116957   6.625  11.559   7.821 -0.4824 -1.0193  0.3359
 3879SOL    HW216958   6.518  11.660   7.787  0.2276 -0.0088  1.0377
 3880SOL     OW16959   3.436   4.881   9.904  0.8384  0.1942  0.2415
 3880SOL    HW116960   3.465   4.956   9.852  0.8121 -0.6659 -1.0284
 3880SOL    HW216961   3.502   4.814   9.888 -1.1641 -1.4147 -1.8059
 3881SOL     OW16962   0.829  11.112  11.795  0.1556  0.0079 -0.3854
 3881SOL    HW116963   0.878  11.194  11.785  1.1909 -0.7311 -1.6504
 3881SOL    HW216964   0.834  11.070  11.709 -1.4017 -0.8391 -0.1132
 3882SOL     OW16965   4.545   7.534   5.769 -0.0345 -0.6828 -0.9274
 3882SOL    HW116966   4.503   7.514   5.685  0.1849  1.3702 -1.5924
 3882SOL    HW216967   4.542   7.452   5.818 -2.2404 -1.3475 -2.0473
 3883SOL     OW16968   3.051   1.276   9.690 -0.5537 -0.0556 -0.2406
 3883SOL    HW116969   3.141   1.247   9.681 -0.6479  0.2038 -2.6524
 3883SOL    HW216970   3.006   1.204   9.733  0.9834  0.3108  2.1878
 3884SOL     OW16971  10.222  10.680   9.685  0.0908  0.0029  0.0423
 3884SOL    HW116972  10.295  10.674   9.747 -0.0068  1.7082  0.3863
 3884SOL    HW216973  10.147  10.646   9.733  0.0563  1.1388  0.8260
 3885SOL     OW16974  10.245   0.287  11.519 -0.2775  0.0019 -0.1226
 3885SOL    HW116975  10.273   0.252  11.434 -0.6910 -1.1699  0.2006
 3885SOL    HW216976  10.192   0.217  11.557 -0.8978  0.8914  0.6928
 3886SOL     OW16977  10.477   4.930  11.150 -0.2210 -0.3201 -0.6809
 3886SOL    HW116978  10.566   4.894  11.152 -0.3721 -0.6920 -0.6618
 3886SOL    HW216979  10.483   5.003  11.088 -0.0578 -0.7640 -1.1983
 3887SOL     OW16980   3.651   2.490   2.985 -0.2564 -0.1625  0.0092
 3887SOL    HW116981   3.572   2.542   3.003 -0.0953  0.1275 -0.1072
 3887SOL    HW216982   3.663   2.497   2.890  0.5860  0.7994  0.1608
 3888SOL     OW16983   3.430   6.086   6.077 -0.1566  0.0375  0.2675
 3888SOL    HW116984   3.423   6.095   6.172 -2.0877 -1.3746  0.3189
 3888SOL    HW216985   3.399   5.997   6.059 -2.3693  1.1452 -1.8906
 3889SOL     OW16986   2.216   9.643   8.689 -0.1009 -0.4729 -0.2637
 3889SOL    HW116987   2.164   9.564   8.675  0.2408 -0.6569 -0.5212
 3889SOL    HW216988   2.306   9.615   8.672  0.2441 -0.4790  1.3491
 3890SOL     OW16989   9.386  10.842  10.590  0.0710 -0.2283 -0.5475
 3890SOL    HW116990   9.439  10.876  10.518 -1.6265  1.2916 -1.1456
 3890SOL    HW216991   9.359  10.920  10.639 -3.5297 -0.6099 -1.6527
 3891SOL     OW16992   5.469   7.409   9.844 -0.7621  0.1269  0.2113
 3891SOL    HW116993   5.495   7.317   9.849  2.4132  0.9576  1.1542
 3891SOL    HW216994   5.466   7.428   9.750  0.2004 -0.5800  0.0215
 3892SOL     OW16995   2.303   3.663   3.663 -0.0646  0.3621  0.1251
 3892SOL    HW116996   2.396   3.681   3.648 -0.0754  0.2161 -0.1228
 3892SOL    HW216997   2.268   3.645   3.576  0.2590 -2.3091  0.4746
 3893SOL     OW16998   2.745   0.059   3.561 -0.3741  0.3684  0.1946
 3893SOL    HW116999   2.825   0.012   3.538 -0.3275 -0.8961  2.6370
 3893SOL    HW217000   2.737   0.127   3.494  2.1667 -0.1162 -0.7095
 3894SOL     OW17001   5.992  10.103   9.473 -0.0390 -0.4780  0.1577
 3894SOL    HW117002   6.080  10.066   9.484 -0.2043 -1.0993 -0.5701
 3894SOL    HW217003   5.975  10.099   9.379 -0.0751  1.4456  0.0421
 3895SOL     OW17004   5.345   9.951   8.597  0.0116 -0.0403 -0.2503
 3895SOL    HW117005   5.315   9.871   8.553 -3.1892 -0.7751  2.8021
 3895SOL    HW217006   5.347   9.928   8.690  1.8901  2.6771  0.5139
 3896SOL     OW17007  10.797  10.112   8.296 -0.6409 -0.4640 -0.4620
 3896SOL    HW117008  10.775  10.051   8.366 -1.4299 -0.3435 -0.5931
 3896SOL    HW217009  10.809  10.057   8.219 -1.3433 -0.4605 -0.5779
 3897SOL     OW17010   6.272   2.727   7.773  0.0452 -0.6613  0.4043
 3897SOL    HW117011   6.329   2.755   7.702  0.0191  0.0639  0.6553
 3897SOL    HW217012   6.240   2.809   7.811 -1.5358 -1.0500 -0.0323
 3898SOL     OW17013   8.015   6.626   0.386  0.2679 -0.2423  0.6392
 3898SOL    HW117014   8.035   6.533   0.377  2.4696  0.2112  0.2889
 3898SOL    HW217015   7.945   6.641   0.322  0.9013 -1.3778 -0.3710
 3899SOL     OW17016   6.569   2.223   0.849 -0.1426  0.0262 -0.8986
 3899SOL    HW117017   6.568   2.143   0.901  0.3658 -0.2573 -1.3180
 3899SOL    HW217018   6.652   2.220   0.801  0.9799  1.9128  0.7701
 3900SOL     OW17019   2.142   8.226   8.370 -0.7199  0.2584 -0.1994
 3900SOL    HW117020   2.214   8.280   8.403 -0.8556 -1.1216  2.6504
 3900SOL    HW217021   2.063   8.269   8.403 -1.1167  0.5594 -1.4778
 3901SOL     OW17022   4.104   9.938   9.530 -0.0705  0.4370  0.4303
 3901SOL    HW117023   4.098  10.029   9.559 -1.5676  0.2821  0.7053
 3901SOL    HW217024   4.073   9.887   9.606 -2.4247 -0.0760 -0.7794
 3902SOL     OW17025  11.290   5.104   9.814 -0.0592  0.3290  0.2198
 3902SOL    HW117026  11.285   5.009   9.827 -0.0698  0.1565 -0.9098
 3902SOL    HW217027  11.383   5.124   9.825 -0.3166  0.5275  2.4256
 3903SOL     OW17028   5.970   3.447   6.634  0.1957  0.4730 -0.3492
 3903SOL    HW117029   5.885   3.411   6.663  0.4942  1.2009  1.5622
 3903SOL    HW217030   6.005   3.379   6.576 -2.2093  0.6885 -2.2308
 3904SOL     OW17031   8.123   2.210   2.111  0.3075 -0.0638  0.5773
 3904SOL    HW117032   8.200   2.190   2.057 -1.1790 -0.1254 -1.6549
 3904SOL    HW217033   8.160   2.235   2.196  2.7719 -0.2713 -0.3314
 3905SOL     OW17034  10.067   6.517   4.112  0.3444  0.3128  0.3900
 3905SOL    HW117035  10.151   6.506   4.067  0.2206 -0.6212  0.3655
 3905SOL    HW217036  10.003   6.519   4.041  0.3387  1.0107  0.4098
 3906SOL     OW17037   7.553   5.980   1.912 -0.0579  0.1832 -0.2104
 3906SOL    HW117038   7.582   5.954   2.000 -0.0726 -0.5514 -0.4221
 3906SOL    HW217039   7.619   6.043   1.883 -0.4646  1.0411  0.6319
 3907SOL     OW17040   7.306   4.341   8.286 -0.1428  0.3097  0.2189
 3907SOL    HW117041   7.284   4.334   8.193  0.4060 -0.7087  0.1544
 3907SOL    HW217042   7.336   4.431   8.297 -2.3065  1.1215 -0.1158
 3908SOL     OW17043   1.608   3.938   6.497 -0.0955 -0.1193  0.3480
 3908SOL    HW117044   1.561   3.855   6.507  1.1546 -0.9193 -0.0683
 3908SOL    HW217045   1.620   3.948   6.403  0.2491  0.2396  0.4280
 3909SOL     OW17046  11.259   7.205   0.067  0.0630  0.5097 -0.4217
 3909SOL    HW117047  11.331   7.189   0.005  0.8474  1.5772  0.1692
 3909SOL    HW217048  11.208   7.124   0.066  1.3239 -0.3178 -0.7964
 3910SOL     OW17049  10.700   4.022   4.485  0.2957 -0.1738  0.4484
 3910SOL    HW117050  10.742   3.958   4.427  0.0765  0.0435  0.0509
 3910SOL    HW217051  10.703   3.980   4.571 -0.2430 -0.9165  0.1198
 3911SOL     OW17052   7.646   4.083   6.211  0.5158  0.5054  0.2392
 3911SOL    HW117053   7.559   4.078   6.250 -0.2256  0.7237 -1.2919
 3911SOL    HW217054   7.684   4.163   6.246  0.6502 -0.2476  1.9209
 3912SOL     OW17055   1.521  11.196   8.024 -0.0348 -0.2195 -0.3087
 3912SOL    HW117056   1.552  11.263   8.085  0.5768 -0.9623  0.2101
 3912SOL    HW217057   1.483  11.128   8.079 -0.5917 -0.3406 -0.8293
 3913SOL     OW17058   4.218   0.683   4.071  0.1216  0.3227  0.6840
 3913SOL    HW117059   4.243   0.766   4.031 -0.4641 -0.0458 -0.4831
 3913SOL    HW217060   4.185   0.630   3.998  0.2334 -0.8374  1.4526
 3914SOL     OW17061   8.841   9.426   1.517  0.3131  0.5873  0.2102
 3914SOL    HW117062   8.833   9.331   1.510 -0.7395  0.6968 -0.3743
 3914SOL    HW217063   8.893   9.452   1.441  1.5043  0.3909  0.9424
 3915SOL     OW17064   4.270   0.169   0.480 -0.0590 -0.2422  0.7999
 3915SOL    HW117065   4.211   0.094   0.482  0.2925 -0.5567 -0.0739
 3915SOL    HW217066   4.272   0.196   0.388  2.6809 -1.4946  0.4050
 3916SOL     OW17067  11.600   6.418  10.952 -0.0752  0.1052  0.7164
 3916SOL    HW117068  11.544   6.467  11.012  0.8852  0.4985  1.3025
 3916SOL    HW217069  11.540   6.385  10.885 -0.6610  2.6635 -0.1146
 3917SOL     OW17070   0.829   0.935   9.735  0.0516 -0.2266 -0.3938
 3917SOL    HW117071   0.843   0.921   9.641  2.0522 -2.7765  0.1807
 3917SOL    HW217072   0.735   0.926   9.747 -0.0545 -1.6097 -1.9338
 3918SOL     OW17073   4.809  10.832   7.600 -0.3363  0.2822 -0.0534
 3918SOL    HW117074   4.821  10.750   7.646  1.6463  1.3358  1.5069
 3918SOL    HW217075   4.725  10.865   7.630 -0.5198 -0.5478  0.3654
 3919SOL     OW17076   3.333   7.079   1.771  0.1406 -0.5830 -1.1569
 3919SOL    HW117077   3.300   7.042   1.853  3.2244  0.2953  0.6488
 3919SOL    HW217078   3.371   7.005   1.725  0.7972 -0.6710 -0.4881
 3920SOL     OW17079   6.487   8.015   3.478  0.1485  0.0451  0.0459
 3920SOL    HW117080   6.398   7.983   3.491  0.1582 -0.5485 -1.2389
 3920SOL    HW217081   6.530   8.000   3.563 -0.7587 -0.3718  0.4444
 3921SOL     OW17082   6.565   3.249  10.341 -0.5395 -0.0315 -0.2389
 3921SOL    HW117083   6.501   3.284  10.403 -0.8636  0.4165 -0.8178
 3921SOL    HW217084   6.522   3.256  10.255  0.6530  1.2447 -0.7809
 3922SOL     OW17085   2.468   6.976   0.302 -0.2679  0.4992 -0.0812
 3922SOL    HW117086   2.384   7.020   0.289 -0.3636  0.0125 -1.1811
 3922SOL    HW217087   2.504   6.966   0.214  0.8750  0.5477  0.3634
 3923SOL     OW17088   8.824   0.407   8.206  0.4737 -0.2006  0.2655
 3923SOL    HW117089   8.792   0.487   8.164 -0.7056  0.0654  1.5661
 3923SOL    HW217090   8.906   0.433   8.249 -0.0058  0.3862  0.8486
 3924SOL     OW17091   4.515   6.671   8.308  0.2501  0.1214  0.1885
 3924SOL    HW117092   4.465   6.676   8.227 -0.4199  1.2963  0.6605
 3924SOL    HW217093   4.590   6.615   8.286 -0.4102 -0.3500 -0.9659
 3925SOL     OW17094   9.536   6.401   9.215 -0.0419 -0.2348  0.0260
 3925SOL    HW117095   9.482   6.334   9.258  1.0644 -1.3495 -0.2620
 3925SOL    HW217096   9.614   6.354   9.187  0.1320  0.8712 -1.4890
 3926SOL     OW17097   7.019   1.780  10.502  0.2145 -0.4609  0.3896
 3926SOL    HW117098   7.075   1.831  10.443  2.7311 -1.0845  2.0795
 3926SOL    HW217099   6.966   1.727  10.443  1.5716 -0.0102 -1.3444
 3927SOL     OW17100   0.195   2.409   5.418  0.0118 -0.0450  0.1011
 3927SOL    HW117101   0.167   2.447   5.501  0.1708  0.0336  0.1182
 3927SOL    HW217102   0.114   2.399   5.368 -0.6591 -3.1895  1.5186
 3928SOL     OW17103   6.144   1.533   3.876  0.3183 -0.3673 -0.4259
 3928SOL    HW117104   6.137   1.453   3.824  1.8807 -1.2402  0.6366
 3928SOL    HW217105   6.229   1.569   3.854  0.9225 -0.6341  1.3107
 3929SOL     OW17106   3.089   0.390   7.212 -0.0238  1.0824  0.2158
 3929SOL    HW117107   3.178   0.383   7.247 -0.4262  2.7673  1.7421
 3929SOL    HW217108   3.096   0.455   7.141 -0.0043  1.0650  0.2018
 3930SOL     OW17109   6.386   9.477   1.554 -0.6049  0.2133  0.2154
 3930SOL    HW117110   6.314   9.539   1.568 -1.4835 -0.9039  0.8592
 3930SOL    HW217111   6.343   9.397   1.524  0.6031  0.1932 -1.5986
 3931SOL     OW17112   8.311   5.643   4.319 -0.0273 -0.0055 -0.1475
 3931SOL    HW117113   8.234   5.631   4.263  1.3322  0.1049 -2.1475
 3931SOL    HW217114   8.323   5.738   4.324  0.3749 -0.0425 -0.4086
 3932SOL     OW17115   2.138   3.536   7.766  0.0703 -0.0734 -0.3194
 3932SOL    HW117116   2.193   3.467   7.803 -0.4117 -0.8716 -1.0583
 3932SOL    HW217117   2.051   3.495   7.757  0.0047  0.3253 -1.6434
 3933SOL     OW17118   5.601   2.754   0.158  0.1257  0.1033 -0.2928
 3933SOL    HW117119   5.508   2.738   0.143 -0.0494  0.2295  0.5807
 3933SOL    HW217120   5.644   2.721   0.079 -0.6261 -0.3143 -0.5441
 3934SOL     OW17121  11.458   9.858   4.241  0.5643  0.1075  0.5368
 3934SOL    HW117122  11.548   9.885   4.260  0.1077  1.8139  0.4530
 3934SOL    HW217123  11.418   9.936   4.204 -1.0129 -0.5711  0.7677
 3935SOL     OW17124   7.998   7.215   9.498 -0.0589  0.1653  0.6313
 3935SOL    HW117125   7.971   7.210   9.590  0.1567 -2.7638  0.6242
 3935SOL    HW217126   8.075   7.272   9.499  0.3046 -0.2996  2.3620
 3936SOL     OW17127   0.397   5.822   0.263 -0.0394  0.2371 -0.4403
 3936SOL    HW117128   0.382   5.847   0.172  0.6679  0.6527 -0.4429
 3936SOL    HW217129   0.372   5.899   0.314  2.5400  1.1868 -0.4709
 3937SOL     OW17130   9.504  11.345   1.948  0.5063  0.0109  0.1100
 3937SOL    HW117131   9.544  11.258   1.947  0.1338 -0.1683  0.3008
 3937SOL    HW217132   9.538  11.388   1.870  0.9893 -0.1694  0.2188
 3938SOL     OW17133   8.315   9.709   5.603  0.1055 -0.3043 -0.3323
 3938SOL    HW117134   8.220   9.716   5.590  0.0985 -0.5356 -0.4220
 3938SOL    HW217135   8.325   9.684   5.694  0.1213  0.5994 -0.0804
 3939SOL     OW17136   5.987   5.598   3.920 -0.1179 -0.3656  0.3101
 3939SOL    HW117137   5.959   5.647   3.843  0.1856 -0.0465  0.4023
 3939SOL    HW217138   6.056   5.652   3.959  0.7020 -1.1733  0.0313
 3940SOL     OW17139   5.681   9.451   1.227 -0.1269  0.3573 -0.6248
 3940SOL    HW117140   5.666   9.522   1.166  2.0777 -0.8885 -2.8206
 3940SOL    HW217141   5.720   9.381   1.174  1.4034 -1.0415  2.0815
 3941SOL     OW17142   5.830   5.585   7.101 -0.2305  0.6353 -0.0852
 3941SOL    HW117143   5.913   5.579   7.053  0.2658  1.0305  0.6951
 3941SOL    HW217144   5.777   5.514   7.066  0.1342  0.8883 -1.1732
 3942SOL     OW17145   0.314   2.246   2.697  0.2185 -0.3586 -0.1093
 3942SOL    HW117146   0.231   2.200   2.716 -0.3307  0.7565  0.2863
 3942SOL    HW217147   0.379   2.176   2.693 -0.8103 -1.3096 -0.8639
 3943SOL     OW17148   1.747   9.971   4.613 -0.1148  0.0213  0.3540
 3943SOL    HW117149   1.756   9.928   4.698  0.0616  0.4058  0.5314
 3943SOL    HW217150   1.653   9.976   4.598 -0.1317 -0.8519  0.1120
 3944SOL     OW17151   4.951   4.261  11.716  0.2107  0.4296 -0.2629
 3944SOL    HW117152   4.899   4.338  11.737  0.1172 -0.0779  1.5963
 3944SOL    HW217153   4.903   4.217  11.646  0.6987  2.4338 -1.9706
 3945SOL     OW17154   9.218   7.528   0.248  0.2039 -0.1523 -0.3950
 3945SOL    HW117155   9.311   7.520   0.269  0.4942 -0.1555 -1.5982
 3945SOL    HW217156   9.179   7.445   0.277  0.4428  0.1040  0.6934
 3946SOL     OW17157   3.030   6.484   3.587  0.2276  0.2302  0.1874
 3946SOL    HW117158   3.068   6.416   3.643 -1.5667 -0.2596  0.8566
 3946SOL    HW217159   2.937   6.482   3.607 -0.2486  1.0413 -1.7898
 3947SOL     OW17160   3.324   1.839   9.678  0.1600  0.4384  0.3759
 3947SOL    HW117161   3.392   1.813   9.617  0.1577 -0.4919  0.7589
 3947SOL    HW217162   3.244   1.843   9.626  0.3915  0.9736  0.0484
 3948SOL     OW17163   6.902   3.932   8.373 -0.4657 -0.1950 -0.0673
 3948SOL    HW117164   6.929   3.988   8.447  0.7882 -1.3388  0.3821
 3948SOL    HW217165   6.809   3.948   8.364 -0.5575  0.3342  1.4771
 3949SOL     OW17166  11.323   6.696   1.727  0.5069 -0.3507 -0.6096
 3949SOL    HW117167  11.375   6.716   1.649  1.2097  0.2584 -0.0023
 3949SOL    HW217168  11.263   6.770   1.735  0.9822 -0.0159 -0.1223
 3950SOL     OW17169   1.116  11.384   8.647 -0.3329 -0.3781  0.2545
 3950SOL    HW117170   1.103  11.378   8.552  1.2530 -1.3688  0.0726
 3950SOL    HW217171   1.156  11.470   8.659 -1.5308  0.2175  0.1792
 3951SOL     OW17172   2.394   9.170   0.468  0.0389 -0.4425  0.2717
 3951SOL    HW117173   2.478   9.199   0.504  0.7058 -1.5272 -0.3513
 3951SOL    HW217174   2.400   9.074   0.468 -1.7122 -0.6119  1.4189
 3952SOL     OW17175   9.274   0.608   9.728 -0.0612 -0.5570 -0.0942
 3952SOL    HW117176   9.231   0.523   9.715  0.7432 -0.9074 -0.5107
 3952SOL    HW217177   9.367   0.589   9.718  0.1876  0.2186  0.6585
 3953SOL     OW17178   3.030   4.448   2.994  0.2759 -0.0047  0.9015
 3953SOL    HW117179   2.947   4.485   3.023  0.2473  0.1905  0.5727
 3953SOL    HW217180   3.015   4.354   2.990  0.0086  0.0488  0.6377
 3954SOL     OW17181   9.699   4.856   1.468 -0.2303 -0.2688  0.0939
 3954SOL    HW117182   9.654   4.920   1.524 -1.0150 -1.1606  0.5053
 3954SOL    HW217183   9.643   4.779   1.469 -0.0555 -0.4519 -1.6256
 3955SOL     OW17184   2.466   5.525   2.017 -0.4631 -0.1577 -0.0552
 3955SOL    HW117185   2.539   5.512   1.957  0.2259  2.7380  0.0040
 3955SOL    HW217186   2.490   5.476   2.096  1.2926  0.4972 -0.1437
 3956SOL     OW17187   9.393   6.040   0.082  0.1420  1.0722  0.3955
 3956SOL    HW117188   9.350   5.955   0.084  0.6148  0.8314  0.8100
 3956SOL    HW217189   9.404   6.060  -0.011 -1.3534  1.4067  0.2672
 3957SOL     OW17190  11.135   3.797   3.309  0.1018 -0.2621  1.0844
 3957SOL    HW117191  11.118   3.885   3.274  0.5314 -1.0436 -1.2402
 3957SOL    HW217192  11.209   3.808   3.368  0.7934  0.7924  0.0496
 3958SOL     OW17193   8.002  10.574   9.745  0.3423 -0.0846  0.0441
 3958SOL    HW117194   7.982  10.561   9.652 -0.1984  1.1390 -0.0288
 3958SOL    HW217195   7.927  10.536   9.791  0.5587 -0.5935 -0.0126
 3959SOL     OW17196   7.559   2.795   0.966  0.3366  0.3530 -0.4448
 3959SOL    HW117197   7.603   2.855   1.026 -0.5733 -1.4442  2.2002
 3959SOL    HW217198   7.608   2.713   0.973 -0.5479 -0.2654 -1.1886
 3960SOL     OW17199   5.106   4.334   9.836 -0.2781  0.5487  0.0345
 3960SOL    HW117200   5.124   4.426   9.857 -1.4535  1.1201 -1.2689
 3960SOL    HW217201   5.025   4.337   9.785 -0.9248 -1.3212  0.8799
 3961SOL     OW17202  11.036  11.113  11.321 -0.5020  0.5687 -0.2678
 3961SOL    HW117203  10.995  11.108  11.235 -0.0608 -1.9823 -0.4019
 3961SOL    HW217204  11.003  11.036  11.368 -0.5503  1.7700  1.7883
 3962SOL     OW17205   6.244  11.010   4.989  0.2618  0.1110  0.1646
 3962SOL    HW117206   6.194  11.087   5.013  0.8873  0.4794  0.3090
 3962SOL    HW217207   6.220  10.944   5.055 -1.2944 -0.2704 -0.7378
 3963SOL     OW17208  11.068   2.183   0.251 -0.9011 -0.0315  0.1577
 3963SOL    HW117209  11.084   2.236   0.329  0.3967  1.5960 -1.1402
 3963SOL    HW217210  11.122   2.223   0.183 -0.1604 -2.8185 -1.0202
 3964SOL     OW17211   6.519   9.100   5.764  0.1830  0.8087  0.1908
 3964SOL    HW117212   6.606   9.076   5.795  1.5608  3.0788 -1.5853
 3964SOL    HW217213   6.520   9.080   5.671 -0.6106  2.2339 -0.1641
 3965SOL     OW17214   1.101   0.035   1.462  0.0213  0.1429 -0.1979
 3965SOL    HW117215   1.046   0.046   1.384  1.3001  0.0632 -1.1510
 3965SOL    HW217216   1.121  -0.059   1.464 -1.6316 -0.2158  1.4058
 3966SOL     OW17217   1.980   6.087   8.625  0.1551 -0.6954 -0.0617
 3966SOL    HW117218   1.941   6.000   8.635  0.2727 -0.8072 -0.5784
 3966SOL    HW217219   1.959   6.132   8.708 -0.4537 -0.9934 -0.0473
 3967SOL     OW17220   8.007   7.878   2.951  0.0541 -0.1497 -0.1504
 3967SOL    HW117221   7.956   7.797   2.939 -1.0421  0.3794  0.6738
 3967SOL    HW217222   7.959   7.925   3.019  1.3736  0.6380  0.2514
 3968SOL     OW17223   3.617  10.489   7.543 -0.0778 -0.2038  0.1231
 3968SOL    HW117224   3.624  10.408   7.592 -0.3624 -0.0827  0.3638
 3968SOL    HW217225   3.530  10.523   7.564  0.2069  0.3841  0.3689
 3969SOL     OW17226   7.144   1.884   5.998 -0.4315 -0.3427 -0.1945
 3969SOL    HW117227   7.062   1.897   6.045 -1.2394 -2.6784 -0.8184
 3969SOL    HW217228   7.147   1.957   5.936 -0.3602  1.6041  1.9632
 3970SOL     OW17229   4.175  11.643   2.491  0.2714  0.1988 -0.1929
 3970SOL    HW117230   4.159  11.579   2.560  0.0080 -0.9203 -1.2736
 3970SOL    HW217231   4.091  11.688   2.480  0.2354  0.1797 -0.0089
 3971SOL     OW17232   4.663   8.459   3.944  0.2933  0.3140 -0.3068
 3971SOL    HW117233   4.640   8.550   3.923  0.2962  0.6652  1.0713
 3971SOL    HW217234   4.757   8.462   3.963  0.5768 -0.2511 -1.5767
 3972SOL     OW17235  11.756   0.204  10.701  0.0778 -0.2035 -0.0703
 3972SOL    HW117236  11.697   0.180  10.629  0.0459 -0.0335 -0.1008
 3972SOL    HW217237  11.724   0.289  10.731 -1.1244 -1.1389  1.4325
 3973SOL     OW17238   2.149   7.246   8.625 -0.2309  0.5492 -0.0215
 3973SOL    HW117239   2.125   7.246   8.533  2.4646 -0.0273 -0.8180
 3973SOL    HW217240   2.163   7.338   8.646 -0.1526  0.6314 -0.4250
 3974SOL     OW17241   4.871  11.741   7.610 -0.2722 -0.2288  0.6020
 3974SOL    HW117242   4.849  11.678   7.679  2.0799 -0.5259  1.1750
 3974SOL    HW217243   4.841  11.699   7.529  0.9306 -1.9909  1.0002
 3975SOL     OW17244   9.439   2.753   0.804  0.0566 -0.5982  0.0755
 3975SOL    HW117245   9.350   2.716   0.803 -0.9617  1.6180  1.1090
 3975SOL    HW217246   9.454   2.782   0.714 -1.0986  0.7048  0.2588
 3976SOL     OW17247  10.604   7.661  10.917  0.4131 -0.0927 -0.2562
 3976SOL    HW117248  10.521   7.659  10.870  0.0342  0.3865  0.3829
 3976SOL    HW217249  10.603   7.581  10.970  0.7511 -0.5295 -0.8898
 3977SOL     OW17250   8.297  11.323   2.952  0.1744 -0.3954  0.0748
 3977SOL    HW117251   8.246  11.270   2.890 -1.1349  2.8257 -1.9135
 3977SOL    HW217252   8.231  11.368   3.005  1.2139 -0.6714  1.6760
 3978SOL     OW17253   6.587   1.269   6.730  0.4193  0.0630 -0.0778
 3978SOL    HW117254   6.644   1.345   6.746  0.9125 -0.0171 -1.3069
 3978SOL    HW217255   6.501   1.298   6.758  1.0438  0.1830  1.8449
 3979SOL     OW17256  11.020   7.465   6.700  0.1148 -0.5263 -0.2462
 3979SOL    HW117257  11.060   7.533   6.755 -1.2969  0.2261 -0.0922
 3979SOL    HW217258  10.948   7.510   6.655  1.4400 -1.0237 -3.0506
 3980SOL     OW17259   8.839   7.281   5.110 -0.2206  0.2397  0.4715
 3980SOL    HW117260   8.865   7.354   5.054 -1.4077  0.4208  0.1293
 3980SOL    HW217261   8.772   7.318   5.167 -0.8266 -0.5806  0.3051
 3981SOL     OW17262   6.301   6.024   9.171  0.4331 -0.8540 -0.2617
 3981SOL    HW117263   6.280   5.945   9.220  1.5165 -0.6508  0.5734
 3981SOL    HW217264   6.377   6.000   9.118  0.5903 -0.4569 -0.2181
 3982SOL     OW17265   5.920   0.911   5.291  0.1884  0.0880 -0.3552
 3982SOL    HW117266   5.896   0.821   5.310  0.3646  0.1419  0.1397
 3982SOL    HW217267   5.838   0.953   5.265 -0.2544  0.2375  1.1768
 3983SOL     OW17268   3.687  10.203  10.425  0.2951  0.0344 -0.1443
 3983SOL    HW117269   3.716  10.295  10.430  1.6540 -0.4170  0.9148
 3983SOL    HW217270   3.765  10.155  10.396  0.1501 -1.0134  1.1180
 3984SOL     OW17271   4.448   0.553   9.589  0.0686 -0.3768  0.1617
 3984SOL    HW117272   4.541   0.555   9.613  0.5554  1.8261 -1.5917
 3984SOL    HW217273   4.447   0.518   9.500 -0.9736 -1.7705  0.6908
 3985SOL     OW17274   4.681   1.741   7.122  0.2337  0.2106  0.0713
 3985SOL    HW117275   4.761   1.720   7.170  0.7258 -0.5213 -1.0408
 3985SOL    HW217276   4.640   1.810   7.174  0.6813 -0.6280  1.6115
 3986SOL     OW17277   0.523   1.337   8.094  0.2272  0.1252 -0.0111
 3986SOL    HW117278   0.533   1.372   8.182  0.5200  1.7228 -0.6504
 3986SOL    HW217279   0.525   1.242   8.106  1.8512  0.2971  1.5288
 3987SOL     OW17280   0.394   6.773   1.474 -0.3497 -0.3801  0.4228
 3987SOL    HW117281   0.474   6.752   1.522 -1.6132 -0.7559  2.5099
 3987SOL    HW217282   0.390   6.868   1.475  0.0376 -0.3593  0.3243
 3988SOL     OW17283  10.009   8.710   4.091 -0.4536 -0.0553  0.6565
 3988SOL    HW117284   9.982   8.717   4.182 -0.6836  2.9784  0.4639
 3988SOL    HW217285   9.933   8.738   4.041  0.6887  1.6036 -0.2509
 3989SOL     OW17286  11.382   2.490   4.359  0.2154 -0.0465  0.2905
 3989SOL    HW117287  11.473   2.521   4.364  1.1510 -2.5116  0.3519
 3989SOL    HW217288  11.391   2.396   4.341 -2.3523  0.2096 -3.5152
 3990SOL     OW17289   1.933  11.812   4.701  0.3961  0.0572  0.0725
 3990SOL    HW117290   1.846  11.810   4.739  1.1292  0.0144  1.8735
 3990SOL    HW217291   1.980  11.741   4.744  1.8384  1.2245  0.5344
 3991SOL     OW17292   1.583  10.624   0.419  0.5667 -0.0127  0.2128
 3991SOL    HW117293   1.492  10.610   0.392  1.0158 -1.1997 -0.7996
 3991SOL    HW217294   1.584  10.605   0.512  0.0373 -1.4385 -0.0508
 3992SOL     OW17295   6.461   1.973   6.208  0.6113 -0.1922  0.2524
 3992SOL    HW117296   6.497   2.061   6.195  1.8553 -0.3135  2.3482
 3992SOL    HW217297   6.500   1.920   6.138  0.6985  0.6873 -0.3806
 3993SOL     OW17298   4.229   7.501  10.677  0.2413  0.6959 -0.1212
 3993SOL    HW117299   4.240   7.499  10.773 -2.0450 -1.9857  0.2206
 3993SOL    HW217300   4.245   7.411  10.650 -3.5994  0.2709 -1.5714
 3994SOL     OW17301   8.922   2.794   4.786 -0.2873  0.0994 -0.2448
 3994SOL    HW117302   8.974   2.721   4.751 -0.5216  0.8403 -2.2967
 3994SOL    HW217303   8.976   2.871   4.768 -0.1782  0.4972  1.6338
 3995SOL     OW17304   3.153   6.769  10.733  0.0688  0.1488 -0.0666
 3995SOL    HW117305   3.124   6.694  10.785  3.0632 -1.8675 -1.0137
 3995SOL    HW217306   3.211   6.818  10.792  0.2356  0.1824 -0.2567
 3996SOL     OW17307  10.173   2.201   0.209 -0.0625  0.1648 -0.1533
 3996SOL    HW117308  10.129   2.141   0.149 -0.9799  0.5429  0.1355
 3996SOL    HW217309  10.265   2.200   0.180  0.0323 -1.6826  0.1031
 3997SOL     OW17310   1.472   8.738  10.503 -0.1274 -0.5544 -0.3393
 3997SOL    HW117311   1.502   8.659  10.549  1.2828 -0.9870 -1.8986
 3997SOL    HW217312   1.417   8.704  10.432 -0.1672 -0.0821 -0.5345
 3998SOL     OW17313   3.643   1.250   6.470 -0.1704 -0.6182  0.1766
 3998SOL    HW117314   3.614   1.337   6.443  0.2617 -1.4788 -3.5905
 3998SOL    HW217315   3.720   1.266   6.524 -0.3011  1.3455 -0.1565
 3999SOL     OW17316   8.477   5.552   2.433  0.3439 -0.1370 -0.1927
 3999SOL    HW117317   8.488   5.492   2.359  1.5369  1.8878 -1.7464
 3999SOL    HW217318   8.507   5.636   2.401  0.2472  0.9949  2.4185
 4000SOL     OW17319   8.933   2.819   2.399 -0.9403  0.2036  0.0670
 4000SOL    HW117320   8.890   2.821   2.313  0.6588 -0.8287 -0.8147
 4000SOL    HW217321   8.982   2.901   2.404  0.8561 -0.7300 -1.1002
 4001SOL     OW17322   8.132   4.389   2.136 -0.7507  0.2159 -0.5105
 4001SOL    HW117323   8.134   4.297   2.109 -0.4258  0.1642 -0.3127
 4001SOL    HW217324   8.198   4.431   2.080 -0.8964  0.3258 -0.5975
 4002SOL     OW17325   8.914   6.184   5.429  0.3443 -0.4828  0.7167
 4002SOL    HW117326   8.826   6.205   5.398  0.5897  0.9693  0.9398
 4002SOL    HW217327   8.906   6.181   5.524  0.6898  0.5112  0.7905
 4003SOL     OW17328   6.789   2.689   3.182 -0.2003 -0.5286 -0.4349
 4003SOL    HW117329   6.861   2.696   3.119  1.5807  2.2607  1.6607
 4003SOL    HW217330   6.825   2.637   3.254 -1.6156 -2.2119 -0.8751
 4004SOL     OW17331   4.780   2.004   9.080  0.2643  0.5644 -0.3136
 4004SOL    HW117332   4.825   2.088   9.069  0.0305  0.5425 -1.5465
 4004SOL    HW217333   4.790   1.984   9.173  3.1257  0.3793 -0.5643
 4005SOL     OW17334   5.094   5.627  10.299  0.0391  0.3835 -0.3573
 4005SOL    HW117335   5.082   5.711  10.344 -0.9127 -0.2200  0.5478
 4005SOL    HW217336   5.147   5.649  10.222  1.7894  1.4439  1.0759
 4006SOL     OW17337   0.510   3.285   8.924 -0.7922 -0.1351  0.4201
 4006SOL    HW117338   0.441   3.341   8.890 -1.4349 -0.9902  0.2885
 4006SOL    HW217339   0.555   3.339   8.990 -0.4751  1.0243 -0.7037
 4007SOL     OW17340   6.958   9.150   8.370  0.2955 -0.7025  0.4284
 4007SOL    HW117341   6.930   9.207   8.298 -0.0830 -0.8138  0.4827
 4007SOL    HW217342   6.888   9.086   8.378 -0.0358 -0.2458  1.3763
 4008SOL     OW17343   2.275   6.625   4.985 -0.2096  0.3153 -0.2212
 4008SOL    HW117344   2.227   6.614   4.903  2.5893 -0.0159 -1.9427
 4008SOL    HW217345   2.337   6.552   4.986  0.4868  0.8693  1.7285
 4009SOL     OW17346   6.319   8.734   3.008  0.3210  0.0380  0.8536
 4009SOL    HW117347   6.239   8.682   3.011 -0.4497  0.8304 -2.4039
 4009SOL    HW217348   6.386   8.673   2.978 -0.1619  0.4170 -1.0866
 4010SOL     OW17349   8.546   6.691   3.942 -0.1307  0.0299  0.3077
 4010SOL    HW117350   8.531   6.621   4.006 -0.6688 -1.9682 -1.8494
 4010SOL    HW217351   8.459   6.718   3.914  0.0696  1.7589  1.2556
 4011SOL     OW17352   5.560   1.735   6.660  0.1893 -0.5280 -0.6179
 4011SOL    HW117353   5.480   1.758   6.706 -0.2866  0.1782 -1.7583
 4011SOL    HW217354   5.608   1.817   6.650  1.1693 -0.9652  0.2086
 4012SOL     OW17355   2.018   3.226   8.930  0.1679  0.3769  0.2584
 4012SOL    HW117356   2.090   3.280   8.897 -0.0885  0.0036 -0.9449
 4012SOL    HW217357   1.986   3.274   9.006  0.2296  1.6954 -0.5116
 4013SOL     OW17358   1.111   5.333  11.275 -0.1023  0.3892 -0.6231
 4013SOL    HW117359   1.070   5.359  11.192 -1.1002 -0.3797 -0.3876
 4013SOL    HW217360   1.108   5.238  11.275  1.9035  0.2939 -0.6710
 4014SOL     OW17361   1.871   3.388   9.472 -0.1346 -0.7600 -0.4190
 4014SOL    HW117362   1.868   3.472   9.425 -0.2795 -1.1101 -1.0429
 4014SOL    HW217363   1.779   3.362   9.480 -0.0491 -1.1850 -0.8199
 4015SOL     OW17364   5.431   7.830  10.040  0.2266  0.7080  0.4340
 4015SOL    HW117365   5.444   7.740  10.069  2.8715  1.5059  2.1274
 4015SOL    HW217366   5.458   7.830   9.948 -2.7784 -0.7276 -0.5877
 4016SOL     OW17367   6.022   1.344   7.507 -0.2563  0.1639  0.1440
 4016SOL    HW117368   6.069   1.288   7.568 -0.4234  0.8296  0.8981
 4016SOL    HW217369   5.934   1.307   7.504 -0.9504  1.5039  2.1808
 4017SOL     OW17370   5.479   0.432   0.955 -0.3468 -0.0897 -0.3830
 4017SOL    HW117371   5.497   0.444   0.862  0.3845 -0.2472 -0.2641
 4017SOL    HW217372   5.565   0.434   0.997 -0.7064  0.4357  0.3478
 4018SOL     OW17373   5.044   1.414   2.397 -0.1978 -0.2578 -0.1911
 4018SOL    HW117374   5.029   1.321   2.383 -3.4656  0.2363 -0.6801
 4018SOL    HW217375   5.028   1.427   2.490  0.5143 -0.2080 -0.0715
 4019SOL     OW17376   5.911   7.001  10.152 -0.2272 -0.2640 -0.1057
 4019SOL    HW117377   5.989   7.026  10.203 -1.3050 -0.7313  1.8533
 4019SOL    HW217378   5.848   7.071  10.169 -0.6167 -0.4444 -0.7832
 4020SOL     OW17379   2.167  10.232   5.881  0.0195 -0.3915 -0.1603
 4020SOL    HW117380   2.189  10.268   5.795  1.4824 -1.2850 -0.1950
 4020SOL    HW217381   2.244  10.182   5.906 -0.3912 -0.1770  1.6725
 4021SOL     OW17382   5.633  11.050  11.112  0.8002  0.6692 -0.1463
 4021SOL    HW117383   5.541  11.073  11.124  0.8279  0.6456  0.1109
 4021SOL    HW217384   5.633  10.955  11.097  0.7874  0.6629 -0.1055
 4022SOL     OW17385   4.369   4.276   6.167  0.2726 -0.3379  0.4582
 4022SOL    HW117386   4.341   4.333   6.238  1.7003  0.5676  0.3164
 4022SOL    HW217387   4.295   4.276   6.106 -0.0850  0.6647  0.8740
 4023SOL     OW17388   2.597   4.769   7.312 -0.1707 -0.2327  0.5701
 4023SOL    HW117389   2.633   4.688   7.276  2.0350 -1.0503  4.1618
 4023SOL    HW217390   2.515   4.742   7.353 -0.8545 -0.0166 -0.6064
 4024SOL     OW17391   2.169  11.278   4.676 -0.2893  0.0364  0.4199
 4024SOL    HW117392   2.098  11.214   4.680 -0.1073 -0.2108 -0.1544
 4024SOL    HW217393   2.175  11.314   4.765  0.0901 -1.2800  0.9583
 4025SOL     OW17394   6.096   7.410   5.969  0.7172  0.0776  0.7820
 4025SOL    HW117395   6.045   7.463   5.908  0.4029  1.6841  2.3710
 4025SOL    HW217396   6.183   7.406   5.930  0.1205 -0.3231 -0.5612
 4026SOL     OW17397   2.684   4.955   7.674  0.3061 -0.2980  0.0876
 4026SOL    HW117398   2.751   5.018   7.701  2.2569 -2.1691 -0.1091
 4026SOL    HW217399   2.700   4.942   7.580 -1.0074 -0.0244 -0.1830
 4027SOL     OW17400   0.294  11.794   6.727  0.3143  0.0122 -0.0332
 4027SOL    HW117401   0.259  11.883   6.721 -0.9461 -0.1811  2.8572
 4027SOL    HW217402   0.389  11.805   6.730  0.2383  1.1268 -1.0009
 4028SOL     OW17403   9.583   8.094  11.166  0.2115  0.5347 -0.3374
 4028SOL    HW117404   9.520   8.049  11.223 -0.6005  0.0712 -1.5507
 4028SOL    HW217405   9.573   8.051  11.081  1.4425  1.1611 -0.8199
 4029SOL     OW17406   1.075   6.253   2.440  0.0303  0.9411  0.5137
 4029SOL    HW117407   1.158   6.295   2.461 -0.1614  1.3525  0.4401
 4029SOL    HW217408   1.010   6.322   2.445 -0.4981  0.3861  1.7437
 4030SOL     OW17409   7.250   5.210   0.248 -0.2567 -0.2228 -1.2394
 4030SOL    HW117410   7.221   5.136   0.302 -1.9971 -0.2404 -2.1228
 4030SOL    HW217411   7.179   5.274   0.255  1.7735  2.0158  0.5612
 4031SOL     OW17412   8.092  10.080   4.920 -0.2823  0.5859 -0.1139
 4031SOL    HW117413   8.054  10.150   4.973  1.4240  3.0363 -1.9140
 4031SOL    HW217414   8.040  10.080   4.840 -0.5198 -0.5486  0.0202
 4032SOL     OW17415   5.249   0.705   7.984 -0.1200  0.4191  0.3937
 4032SOL    HW117416   5.197   0.644   8.037 -0.0058 -0.0445 -0.0245
 4032SOL    HW217417   5.202   0.712   7.901  0.6298 -0.2422 -0.1047
 4033SOL     OW17418  10.136  11.770   3.302  0.1872  0.5161  0.0892
 4033SOL    HW117419  10.176  11.736   3.223 -0.0435 -2.1474  1.0186
 4033SOL    HW217420  10.042  11.762   3.288  0.1324  0.4828  0.4524
 4034SOL     OW17421   9.411   5.373   8.402  0.2372 -0.3631  0.0145
 4034SOL    HW117422   9.371   5.396   8.486 -0.3094  1.2484 -0.6510
 4034SOL    HW217423   9.487   5.320   8.426 -0.6920 -1.1321  1.4477
 4035SOL     OW17424   8.306   3.802   2.973 -0.0585  0.2161 -0.3847
 4035SOL    HW117425   8.297   3.798   3.068 -0.5556  0.4604 -0.4187
 4035SOL    HW217426   8.369   3.733   2.952  0.6135  0.6409  0.1880
 4036SOL     OW17427   5.680  11.628  10.649 -0.0438  0.1372  1.1315
 4036SOL    HW117428   5.725  11.576  10.716  2.0455 -0.0293 -0.2926
 4036SOL    HW217429   5.663  11.566  10.578  3.0142  1.3243 -0.8458
 4037SOL     OW17430   9.314   6.367   9.651 -0.2235  0.1244 -0.2491
 4037SOL    HW117431   9.307   6.344   9.743 -1.1998 -0.3062 -0.4207
 4037SOL    HW217432   9.375   6.302   9.615  0.6744  0.6899  0.2043
 4038SOL     OW17433   6.733   4.985   3.258 -0.4448 -0.1559 -0.0640
 4038SOL    HW117434   6.643   5.009   3.237 -0.6368 -2.0332 -1.7459
 4038SOL    HW217435   6.759   4.927   3.186  2.1267  0.3451  0.3736
 4039SOL     OW17436   6.842   5.448  10.651  0.3301  0.5274  0.1322
 4039SOL    HW117437   6.797   5.385  10.595  0.1467  0.5812  0.2156
 4039SOL    HW217438   6.911   5.397  10.694 -0.3837  0.1575  0.8890
 4040SOL     OW17439  11.356   0.180   7.250 -0.2880  0.0925  0.3738
 4040SOL    HW117440  11.288   0.119   7.278  0.8238 -1.3706  0.0117
 4040SOL    HW217441  11.419   0.126   7.202 -0.0349  1.7998 -1.3567
 4041SOL     OW17442   4.477   8.824   7.265 -0.6079 -0.1908 -0.1053
 4041SOL    HW117443   4.446   8.776   7.342 -2.4088  0.3006 -0.4725
 4041SOL    HW217444   4.422   8.793   7.194 -0.3510  0.8456 -0.7795
 4042SOL     OW17445   3.105  11.284   3.333  0.3267  0.1393  0.4105
 4042SOL    HW117446   3.156  11.356   3.295  1.2641  0.1577  1.6490
 4042SOL    HW217447   3.062  11.243   3.258  2.4298 -0.0831 -0.7530
 4043SOL     OW17448   7.572  10.507   7.449 -0.3454 -0.4940 -0.4325
 4043SOL    HW117449   7.511  10.535   7.517 -0.5495 -2.8567  0.4667
 4043SOL    HW217450   7.658  10.530   7.483 -0.5925  1.1253 -0.8315
 4044SOL     OW17451   8.300   0.389  10.091  0.3566  0.1325 -0.1446
 4044SOL    HW117452   8.255   0.469  10.119  0.6023  0.1618  0.1724
 4044SOL    HW217453   8.244   0.318  10.125  0.6355  0.1689  0.3930
 4045SOL     OW17454   1.418  10.014   6.734 -0.3902 -0.2801  0.5533
 4045SOL    HW117455   1.500  10.042   6.775 -0.5613 -0.1424  0.7999
 4045SOL    HW217456   1.444   9.990   6.645  0.0181 -0.7906  0.8058
 4046SOL     OW17457   9.904   3.987   9.646 -0.8265  0.1160  0.4800
 4046SOL    HW117458   9.841   3.977   9.717 -2.0447  1.3605 -0.3626
 4046SOL    HW217459   9.850   4.005   9.569  0.4285 -1.6602 -0.8805
 4047SOL     OW17460   6.644   1.901   1.958  0.0487 -1.0402  0.4674
 4047SOL    HW117461   6.575   1.967   1.961  2.8898  2.2895 -0.1173
 4047SOL    HW217462   6.652   1.870   2.048  1.2297  2.6575  1.8323
 4048SOL     OW17463   5.124  10.857  11.088  0.0357  0.1778 -0.4435
 4048SOL    HW117464   5.164  10.854  11.001 -0.2702  1.8448 -0.6611
 4048SOL    HW217465   5.033  10.828  11.073  0.3385 -0.8143 -0.4350
 4049SOL     OW17466   7.868   2.784   5.689 -0.0037 -0.2265  0.0401
 4049SOL    HW117467   7.942   2.724   5.700 -1.1470 -1.5430  0.8674
 4049SOL    HW217468   7.901   2.869   5.719  1.3653 -0.6271 -0.2685
 4050SOL     OW17469   6.490  11.742  11.245 -0.5232 -0.5722  0.3682
 4050SOL    HW117470   6.412  11.776  11.289 -0.0894 -0.7578  1.3131
 4050SOL    HW217471   6.456  11.692  11.171 -1.2767 -0.1629  0.4319
 4051SOL     OW17472   2.964   7.099   6.339  0.2457 -0.6950  0.0708
 4051SOL    HW117473   2.980   7.005   6.338 -0.0097 -0.8830  3.2283
 4051SOL    HW217474   3.042   7.136   6.381  0.0016  0.4219 -0.4253
 4052SOL     OW17475   2.411   8.328   8.815  0.5127  0.1247 -0.6109
 4052SOL    HW117476   2.469   8.308   8.889  0.0678 -0.2074 -0.3508
 4052SOL    HW217477   2.325   8.296   8.842  0.3162  0.1304 -1.2174
 4053SOL     OW17478   7.391   3.917   6.610  0.1953 -1.0433  0.4813
 4053SOL    HW117479   7.349   3.900   6.525 -0.6619 -0.3023  0.7466
 4053SOL    HW217480   7.485   3.906   6.592  0.0744 -0.3503 -0.6996
 4054SOL     OW17481   9.186  11.468   9.758  0.2715 -0.1111  0.5306
 4054SOL    HW117482   9.226  11.469   9.671  1.3828  0.3540  1.0291
 4054SOL    HW217483   9.112  11.408   9.749  0.0227  0.3597 -0.8780
 4055SOL     OW17484   4.754   4.504   2.978 -0.2107  0.2914 -0.4937
 4055SOL    HW117485   4.731   4.519   3.070 -2.1181  0.1352 -0.8988
 4055SOL    HW217486   4.720   4.581   2.933  0.3023  0.1450 -1.1318
 4056SOL     OW17487   6.410   3.296   0.524  0.2359 -0.2971 -0.4882
 4056SOL    HW117488   6.437   3.347   0.448  1.2090  0.4706  0.3510
 4056SOL    HW217489   6.490   3.251   0.552  0.4304  1.0584  1.3111
 4057SOL     OW17490   4.048  10.437   3.271  0.1183  0.2269  0.1641
 4057SOL    HW117491   4.001  10.493   3.332 -1.6199  0.5147 -1.3524
 4057SOL    HW217492   4.015  10.349   3.288 -0.8336  0.3904 -0.7105
 4058SOL     OW17493   8.507   6.507   9.417  0.1109 -0.3625 -0.4426
 4058SOL    HW117494   8.444   6.524   9.487  0.6145 -0.9506  0.1850
 4058SOL    HW217495   8.468   6.436   9.366  0.7843 -1.5951  0.6877
 4059SOL     OW17496   8.691   9.684   4.601 -0.0505 -0.6458 -0.1160
 4059SOL    HW117497   8.686   9.709   4.693  0.1671 -0.1859 -0.2275
 4059SOL    HW217498   8.740   9.602   4.601  0.7643 -0.1610  0.0898
 4060SOL     OW17499  11.720   5.270   7.335  0.1750  0.0277  0.5565
 4060SOL    HW117500  11.742   5.298   7.424 -0.3607  0.0910  0.6780
 4060SOL    HW217501  11.642   5.216   7.346 -0.0663  0.2725  0.0980
 4061SOL     OW17502   3.455   8.112   5.733  0.0630 -0.3196 -0.0699
 4061SOL    HW117503   3.508   8.192   5.730  0.2340 -0.4094  0.4764
 4061SOL    HW217504   3.391   8.123   5.662  0.5621 -0.0387 -0.4877
 4062SOL     OW17505  11.283   8.531  11.713 -0.1204  0.2462 -0.0436
 4062SOL    HW117506  11.352   8.474  11.746  0.7065  1.0593 -0.3460
 4062SOL    HW217507  11.229   8.550  11.790 -1.0911 -1.8452 -0.1496
 4063SOL     OW17508   9.916   7.189   5.313  0.2152  0.0574 -0.1331
 4063SOL    HW117509   9.853   7.117   5.302  1.4633 -1.0917  0.0093
 4063SOL    HW217510   9.887   7.234   5.393 -0.7347 -0.1059 -0.3689
 4064SOL     OW17511   3.477   3.469   8.998 -0.1125 -0.0426  0.4963
 4064SOL    HW117512   3.476   3.373   8.989 -2.7912 -0.0166 -0.2063
 4064SOL    HW217513   3.516   3.499   8.916  1.0344 -0.5128  0.8490
 4065SOL     OW17514   8.982   7.935   3.044 -0.2247 -1.0947  0.4027
 4065SOL    HW117515   9.026   7.860   3.005 -1.2041 -2.0913  1.1675
 4065SOL    HW217516   8.980   8.001   2.974 -0.9121 -2.4172 -0.8680
 4066SOL     OW17517   0.791   1.904   2.152 -0.1693  0.6060  0.4378
 4066SOL    HW117518   0.752   1.850   2.221  1.6491  0.0411  1.0900
 4066SOL    HW217519   0.782   1.852   2.072  1.1254 -0.5182  0.9731
 4067SOL     OW17520   5.893  10.441   7.436  0.0217  0.1596  0.3130
 4067SOL    HW117521   5.930  10.404   7.356 -0.5721  0.3516 -0.0528
 4067SOL    HW217522   5.967  10.447   7.496  0.0174 -2.4528  0.7068
 4068SOL     OW17523   4.522   8.121  11.159  0.3224  0.5542  0.0708
 4068SOL    HW117524   4.514   8.083  11.247 -0.7933 -0.5257 -0.4670
 4068SOL    HW217525   4.437   8.105  11.118  1.0419  0.4343 -1.4471
 4069SOL     OW17526   8.236   1.181   0.501 -0.3666 -0.5436 -0.0071
 4069SOL    HW117527   8.331   1.170   0.503 -0.1653  0.6676 -1.2983
 4069SOL    HW217528   8.214   1.183   0.408 -1.7458 -1.3181  0.2711
 4070SOL     OW17529   5.860   0.185   4.180 -0.5784 -0.0276 -0.1095
 4070SOL    HW117530   5.799   0.250   4.146 -0.7411 -0.1804 -0.1110
 4070SOL    HW217531   5.856   0.113   4.117  1.2477  0.8563 -1.3297
 4071SOL     OW17532   5.728   0.951   5.849 -0.1207 -0.2353  0.4354
 4071SOL    HW117533   5.777   1.030   5.828 -1.4009  0.4403 -0.1836
 4071SOL    HW217534   5.791   0.880   5.843  0.8771  0.6567  0.2229
 4072SOL     OW17535   6.057   2.555   7.663  0.4909 -0.0421 -0.3551
 4072SOL    HW117536   6.127   2.590   7.717  0.2573 -2.0030  1.3598
 4072SOL    HW217537   5.997   2.629   7.650  1.1230  0.7794  1.1356
 4073SOL     OW17538   8.926   0.638   1.770 -0.3192  0.8900  0.3383
 4073SOL    HW117539   8.850   0.691   1.743 -0.0249  2.3269  2.1333
 4073SOL    HW217540   8.997   0.701   1.779  1.2119 -0.4617 -1.4934
 4074SOL     OW17541   2.745   9.504   0.333 -0.3201  0.3683 -0.4173
 4074SOL    HW117542   2.733   9.553   0.251 -1.0108  0.4340 -0.2790
 4074SOL    HW217543   2.677   9.537   0.391 -1.1540 -1.1087 -0.4903
 4075SOL     OW17544   5.729   6.656  11.608  0.1002  0.1261 -0.3186
 4075SOL    HW117545   5.709   6.576  11.657  0.8223 -0.3393 -0.7586
 4075SOL    HW217546   5.651   6.672  11.554 -0.4658  0.3175  0.5441
 4076SOL     OW17547  10.861   1.567   5.428 -0.5475  0.1077 -0.6234
 4076SOL    HW117548  10.858   1.649   5.477 -1.2643  0.2970 -0.9732
 4076SOL    HW217549  10.941   1.524   5.458  0.5050  1.4892 -1.3488
 4077SOL     OW17550   5.320   3.890  10.194 -0.3906 -0.8877 -0.3165
 4077SOL    HW117551   5.412   3.903  10.218  0.7050 -1.6093 -3.6191
 4077SOL    HW217552   5.290   3.978  10.170  0.1672 -0.9583 -1.3486
 4078SOL     OW17553   4.354   8.445   4.927  0.0241 -0.1780 -0.0410
 4078SOL    HW117554   4.310   8.360   4.929  1.2413 -0.8202  1.0067
 4078SOL    HW217555   4.329   8.487   5.009  0.5655 -0.1399  0.1090
 4079SOL     OW17556   0.135   1.747   5.860 -0.3457 -0.0269 -0.3388
 4079SOL    HW117557   0.087   1.667   5.838 -0.5763  0.3226 -1.1500
 4079SOL    HW217558   0.212   1.745   5.805  0.0109 -0.0349  0.1548
 4080SOL     OW17559   0.126   2.921  10.727 -0.3228  0.1327 -0.1080
 4080SOL    HW117560   0.072   2.912  10.649  0.7627 -2.1740 -0.6847
 4080SOL    HW217561   0.189   2.990  10.705 -1.3755  1.0441 -0.3852
 4081SOL     OW17562   7.224   5.352   6.790 -0.4265  0.7991  0.6485
 4081SOL    HW117563   7.147   5.358   6.735 -1.4019 -1.8730  1.5896
 4081SOL    HW217564   7.220   5.430   6.846 -2.5535  0.6380  0.7893
 4082SOL     OW17565  11.748   7.029   5.745  0.1114  0.0319 -0.1951
 4082SOL    HW117566  11.810   7.094   5.778 -1.7929  1.0432  1.6087
 4082SOL    HW217567  11.662   7.061   5.773 -1.1872 -1.7301 -1.8817
 4083SOL     OW17568   1.494   9.230   0.558 -0.1570 -0.0326 -0.5024
 4083SOL    HW117569   1.572   9.177   0.579  0.8255  0.9077 -1.6216
 4083SOL    HW217570   1.451   9.182   0.487  0.0044 -0.0196 -0.6113
 4084SOL     OW17571   2.266   6.705   3.612 -0.2372  0.3448 -0.2522
 4084SOL    HW117572   2.225   6.791   3.625 -0.3925  0.1879  0.2915
 4084SOL    HW217573   2.214   6.645   3.664 -2.1224 -0.6689 -3.0701
 4085SOL     OW17574   0.400  10.991   0.695 -0.0436  0.4005 -0.2095
 4085SOL    HW117575   0.490  10.998   0.664  1.0880  1.5475  2.9538
 4085SOL    HW217576   0.407  10.961   0.785 -2.8095  0.8223  0.2491
 4086SOL     OW17577   1.986  11.350  11.479  0.0612 -0.9375 -0.1607
 4086SOL    HW117578   2.016  11.420  11.421  1.1631  0.5989  2.1192
 4086SOL    HW217579   1.891  11.348  11.467  0.0565  0.6724 -0.5899
 4087SOL     OW17580   3.577   6.213   3.880 -0.0022  0.5965  0.2930
 4087SOL    HW117581   3.639   6.142   3.862 -2.3437 -1.7335  0.7833
 4087SOL    HW217582   3.498   6.189   3.833 -1.3602  2.1429  1.6432
 4088SOL     OW17583   7.733   9.315   4.352 -0.5229  0.1121  0.0297
 4088SOL    HW117584   7.741   9.244   4.415 -0.6480 -0.2261 -0.3264
 4088SOL    HW217585   7.695   9.387   4.401 -2.7243 -0.8472 -0.1531
 4089SOL     OW17586   0.759   8.850   0.134 -0.0884 -0.2056 -0.0580
 4089SOL    HW117587   0.817   8.898   0.076 -0.9157 -0.9932 -1.5809
 4089SOL    HW217588   0.717   8.785   0.079 -3.0812  0.8651  0.7383
 4090SOL     OW17589   9.967   7.811   7.314 -0.1541  0.3334  0.1999
 4090SOL    HW117590   9.947   7.733   7.262  1.0339  1.4612 -2.0788
 4090SOL    HW217591  10.033   7.781   7.377  0.8953 -0.3494 -1.1793
 4091SOL     OW17592   1.856   9.603   2.165 -0.2037  0.0635 -0.4849
 4091SOL    HW117593   1.822   9.582   2.078 -0.5423  0.0305 -0.3457
 4091SOL    HW217594   1.839   9.524   2.217  3.3799 -1.4516 -1.3216
 4092SOL     OW17595  10.150   0.867   7.039 -0.3434  0.1610  0.4714
 4092SOL    HW117596  10.184   0.951   7.008  0.2063 -0.1837  0.1127
 4092SOL    HW217597  10.162   0.807   6.964  0.7168 -0.6073  1.2311
 4093SOL     OW17598   2.004   0.076   8.537  0.2813 -0.3657 -0.2997
 4093SOL    HW117599   1.950   0.025   8.478  0.8385 -1.4969  0.1379
 4093SOL    HW217600   2.089   0.031   8.537  1.2641  1.3910 -1.0281
 4094SOL     OW17601   9.187   0.855   4.476 -0.1045  0.2949  0.1179
 4094SOL    HW117602   9.259   0.793   4.466 -1.9475 -1.7841 -1.1969
 4094SOL    HW217603   9.150   0.836   4.563  0.6279  1.0865  0.6219
 4095SOL     OW17604   8.482   9.538   0.918  0.4731 -0.4447  0.1775
 4095SOL    HW117605   8.483   9.473   0.988 -1.8234  0.0715  0.7782
 4095SOL    HW217606   8.568   9.580   0.923  0.8032 -1.2441  1.8838
 4096SOL     OW17607   0.025   2.957   9.151  0.1637 -0.5177 -0.1701
 4096SOL    HW117608   0.113   2.995   9.151  0.3533 -0.9427 -0.4846
 4096SOL    HW217609   0.010   2.930   9.241  0.4992 -0.7638 -0.1870
 4097SOL     OW17610   4.736   1.156   2.072 -1.0296 -0.3555  1.0915
 4097SOL    HW117611   4.731   1.066   2.104 -1.5804 -0.9630 -0.6067
 4097SOL    HW217612   4.675   1.205   2.127 -1.3531 -1.1989  1.4874
 4098SOL     OW17613   5.339   5.374   9.560 -0.4937  0.3205 -0.0580
 4098SOL    HW117614   5.323   5.280   9.553 -2.1233  0.6223 -0.8559
 4098SOL    HW217615   5.420   5.389   9.510  0.3658 -0.7797  0.9610
 4099SOL     OW17616  10.604   0.238   5.318  0.4172 -0.6316 -0.3800
 4099SOL    HW117617  10.696   0.231   5.346 -0.0177 -3.1559  0.7381
 4099SOL    HW217618  10.602   0.197   5.232  0.3463 -0.5897 -0.3981
 4100SOL     OW17619   7.550   5.300   3.558  0.0796 -0.1985 -0.3586
 4100SOL    HW117620   7.642   5.326   3.562  0.1674 -0.4907  3.6227
 4100SOL    HW217621   7.551   5.206   3.573 -0.8485  0.1533  2.4636
 4101SOL     OW17622  11.388  10.222   7.481 -0.2108  0.7743 -0.2970
 4101SOL    HW117623  11.408  10.304   7.436  1.4968  0.0615 -0.9114
 4101SOL    HW217624  11.332  10.174   7.421 -1.5975  1.6466  0.2579
 4102SOL     OW17625   0.117   0.644  10.661 -0.2335 -0.3551 -0.1531
 4102SOL    HW117626   0.077   0.618  10.578  1.4048  1.3475 -1.5596
 4102SOL    HW217627   0.171   0.569  10.686  0.8204 -0.1736 -1.7134
 4103SOL     OW17628   8.747   4.979   3.575  0.2024 -0.0629 -0.0459
 4103SOL    HW117629   8.723   4.891   3.548 -0.6913  0.3986 -0.8145
 4103SOL    HW217630   8.692   4.998   3.651 -0.3240  0.1863 -0.4813
 4104SOL     OW17631   6.137   9.593   1.697 -0.0113 -0.3650 -0.9894
 4104SOL    HW117632   6.185   9.518   1.732  0.2200  0.2990  0.1489
 4104SOL    HW217633   6.086   9.626   1.771  0.7118  1.2504 -1.1670
 4105SOL     OW17634   7.038   9.387   7.137 -0.2121  0.3218 -0.5568
 4105SOL    HW117635   6.963   9.375   7.196  0.2351  1.0320  0.1747
 4105SOL    HW217636   7.055   9.481   7.139  0.3736  0.2325 -1.1246
 4106SOL     OW17637   4.750   6.718   2.542  0.2637  0.0227 -0.6545
 4106SOL    HW117638   4.797   6.769   2.476  0.1929 -1.2923 -1.7932
 4106SOL    HW217639   4.743   6.630   2.503 -0.7309 -0.5208  0.6601
 4107SOL     OW17640   2.129   3.435   7.004  0.4073 -0.4636 -0.1388
 4107SOL    HW117641   2.151   3.518   7.046  0.2900  0.1123 -1.1983
 4107SOL    HW217642   2.109   3.458   6.914 -2.8539 -1.1376  0.2709
 4108SOL     OW17643   7.888   0.866   7.291  0.6806  0.2357  0.6159
 4108SOL    HW117644   7.959   0.823   7.243 -0.0388  1.7071 -1.9984
 4108SOL    HW217645   7.904   0.960   7.277 -1.1300  0.6223  0.9137
 4109SOL     OW17646  11.400   3.043   8.933  0.1447  0.0252  0.3338
 4109SOL    HW117647  11.332   3.023   8.869 -0.8705 -1.1241  1.6781
 4109SOL    HW217648  11.473   2.986   8.909  1.2204  2.1971 -1.9005
 4110SOL     OW17649   6.749   0.504   8.773 -0.1685 -0.3875  0.1021
 4110SOL    HW117650   6.707   0.561   8.838 -1.2037 -1.1497  0.1196
 4110SOL    HW217651   6.696   0.516   8.694 -0.5971 -1.5519  0.1946
 4111SOL     OW17652   5.941   6.106  10.035 -0.6525  0.3174 -0.5845
 4111SOL    HW117653   5.860   6.136   9.995 -1.5020  0.7314  1.3075
 4111SOL    HW217654   5.981   6.185  10.071 -0.3742 -0.1366  0.1286
 4112SOL     OW17655   0.794   6.235   9.767 -0.0279  0.2071  0.3164
 4112SOL    HW117656   0.819   6.267   9.680  0.6449  2.5554  1.2992
 4112SOL    HW217657   0.760   6.147   9.751 -0.5780  0.8208 -2.4053
 4113SOL     OW17658   9.167   6.220   1.053 -0.4319  0.2259 -0.0437
 4113SOL    HW117659   9.079   6.196   1.023 -0.6331  1.2991 -0.3621
 4113SOL    HW217660   9.226   6.174   0.993 -0.7806  0.0058 -0.2233
 4114SOL     OW17661  11.809  10.369   5.206  0.2047 -0.6628  0.0565
 4114SOL    HW117662  11.805  10.464   5.211  1.0246 -0.5236 -1.4197
 4114SOL    HW217663  11.895  10.347   5.242 -0.6054 -1.0172  1.9073
 4115SOL     OW17664   5.808   1.746   1.252 -0.2532 -0.3234  0.3878
 4115SOL    HW117665   5.722   1.778   1.225 -0.8862 -1.8338  0.5263
 4115SOL    HW217666   5.814   1.658   1.214  1.1377 -0.3322  0.5766
 4116SOL     OW17667  10.455   9.652  10.872  0.2878  0.0451 -0.3007
 4116SOL    HW117668  10.528   9.704  10.907 -0.5898 -0.0134  1.7312
 4116SOL    HW217669  10.414   9.613  10.949 -0.5342 -1.7576 -1.5951
 4117SOL     OW17670  11.617   7.143  10.194  0.1174  0.4466  0.2115
 4117SOL    HW117671  11.553   7.082  10.157 -0.3435 -0.7467  2.6964
 4117SOL    HW217672  11.692   7.088  10.217 -0.3517  0.6696  2.6170
 4118SOL     OW17673   9.658   3.555  10.936  0.3914 -0.0586  0.0828
 4118SOL    HW117674   9.712   3.625  10.974 -0.0390 -0.2130  1.0277
 4118SOL    HW217675   9.569   3.575  10.966 -0.1512  0.3614 -1.6961
 4119SOL     OW17676  10.748   2.573   3.762 -0.3492 -0.0782  0.1518
 4119SOL    HW117677  10.744   2.634   3.836  1.2656  0.2356  0.0151
 4119SOL    HW217678  10.664   2.583   3.718 -1.4119 -0.3951  2.0251
 4120SOL     OW17679   4.931   8.309  11.525 -0.0709 -0.1321  0.5455
 4120SOL    HW117680   4.865   8.328  11.592 -0.9414 -1.4339  0.0954
 4120SOL    HW217681   4.897   8.233  11.479  0.4037  0.8587 -1.5412
 4121SOL     OW17682   5.384   4.530   9.027 -0.2572  0.3222  0.3837
 4121SOL    HW117683   5.326   4.579   8.969 -0.2853 -1.1977 -0.9095
 4121SOL    HW217684   5.467   4.578   9.024  0.6205 -1.1672 -3.1416
 4122SOL     OW17685  11.516   2.446   6.089  0.1456  0.0256 -0.6105
 4122SOL    HW117686  11.430   2.454   6.048 -0.5122  0.3404  0.7750
 4122SOL    HW217687  11.499   2.404   6.173  1.3128  0.3086 -0.2131
 4123SOL     OW17688   4.199   0.906  10.984  0.2601  0.5436 -0.5865
 4123SOL    HW117689   4.198   0.891  10.889  3.9804  2.0729 -1.0281
 4123SOL    HW217690   4.273   0.853  11.015 -1.3898 -0.5833  1.6756
 4124SOL     OW17691   5.544   4.805   6.686 -0.3875  0.4575  0.2297
 4124SOL    HW117692   5.559   4.885   6.636 -0.5805 -0.8714 -2.1129
 4124SOL    HW217693   5.632   4.771   6.702 -0.2773  1.3531  1.6923
 4125SOL     OW17694  10.517   3.906   9.206 -0.4357  0.1479 -1.2439
 4125SOL    HW117695  10.432   3.876   9.172 -0.3718 -0.3073 -1.0085
 4125SOL    HW217696  10.528   3.859   9.288 -0.2044  0.6224 -1.0005
 4126SOL     OW17697  11.586   4.598   1.594 -0.4002 -0.0402 -0.0915
 4126SOL    HW117698  11.538   4.639   1.523 -0.5639 -0.7051 -0.3762
 4126SOL    HW217699  11.519   4.560   1.651 -0.2557  0.1109  0.1822
 4127SOL     OW17700   1.649   5.236   3.533 -0.8098  0.5771 -0.0397
 4127SOL    HW117701   1.707   5.161   3.516  1.1490  2.2013 -1.0486
 4127SOL    HW217702   1.566   5.197   3.559  0.8926 -1.9331  2.2363
 4128SOL     OW17703   0.267   8.558   7.528 -0.1225  0.7286  0.2424
 4128SOL    HW117704   0.199   8.619   7.557 -0.4052 -0.2957  1.8408
 4128SOL    HW217705   0.344   8.582   7.579  0.4790  1.2603 -0.8692
 4129SOL     OW17706  11.592   7.920   6.318  0.6428 -0.2105 -0.2083
 4129SOL    HW117707  11.654   7.851   6.339 -0.2221 -0.9896 -0.1692
 4129SOL    HW217708  11.541   7.886   6.245 -0.5591 -0.1047  0.5516
 4130SOL     OW17709  10.721   3.280  11.107  0.0014  0.0549 -0.1634
 4130SOL    HW117710  10.748   3.206  11.053 -0.0677  1.5701 -2.4365
 4130SOL    HW217711  10.792   3.344  11.097 -0.6091  0.8656  0.5201
 4131SOL     OW17712  10.223   0.096   4.416  0.2203  0.1463 -0.0164
 4131SOL    HW117713  10.131   0.082   4.437  0.6052 -0.6967  1.2954
 4131SOL    HW217714  10.223   0.133   4.328 -1.3377 -0.3662 -0.2596
 4132SOL     OW17715   5.765   8.031   7.066  0.3152 -0.2414 -0.8399
 4132SOL    HW117716   5.735   7.951   7.110 -0.8441 -0.3718 -1.8031
 4132SOL    HW217717   5.696   8.051   7.003  1.3075  0.6744 -1.6838
 4133SOL     OW17718   0.477   2.903  10.131 -0.5144 -0.4623 -0.1904
 4133SOL    HW117719   0.523   2.972  10.083 -0.4504  0.5744  1.2792
 4133SOL    HW217720   0.544   2.866  10.189 -1.4961  1.4175  2.3582
 4134SOL     OW17721   0.147  11.335   1.927  0.6362 -0.1193 -0.2790
 4134SOL    HW117722   0.168  11.248   1.961  1.7667  0.3545  0.3203
 4134SOL    HW217723   0.091  11.374   1.994  2.5165  0.6567  0.9288
 4135SOL     OW17724   7.849   8.913   7.888  0.3974 -0.7186  0.0354
 4135SOL    HW117725   7.850   9.007   7.907  1.7024 -0.5022 -0.9725
 4135SOL    HW217726   7.768   8.882   7.927  1.0140  0.3942  2.4137
 4136SOL     OW17727   7.504   6.703   4.044 -0.5567  0.2353 -0.1268
 4136SOL    HW117728   7.526   6.794   4.061 -0.6145  0.2863 -0.3232
 4136SOL    HW217729   7.415   6.693   4.078 -0.2071  0.0069  0.7422
 4137SOL     OW17730  11.502   7.884   5.105  0.4162  0.3097 -0.0212
 4137SOL    HW117731  11.438   7.892   5.035 -1.0233 -3.3079  0.6509
 4137SOL    HW217732  11.571   7.829   5.069  1.0273  0.6735  0.5684
 4138SOL     OW17733  10.828  11.302   3.780  0.0906 -0.1225 -0.3118
 4138SOL    HW117734  10.825  11.340   3.693  0.6814  0.5879 -0.0347
 4138SOL    HW217735  10.895  11.353   3.826 -0.3076 -0.3910  0.5948
 4139SOL     OW17736   7.423   0.389   5.160 -0.5213  0.3338  0.1557
 4139SOL    HW117737   7.439   0.455   5.093  0.1719  1.3776  1.2991
 4139SOL    HW217738   7.349   0.423   5.210 -0.7661 -0.2295  0.1870
 4140SOL     OW17739   0.938  11.073   6.808  0.3894 -0.5874 -0.0267
 4140SOL    HW117740   0.863  11.122   6.776 -0.1609 -1.6197 -0.3613
 4140SOL    HW217741   0.974  11.030   6.731  0.7980 -0.8075  0.2812
 4141SOL     OW17742  10.092   7.229   2.384  0.4272 -0.2245  0.6790
 4141SOL    HW117743  10.093   7.296   2.315 -1.3083 -1.7206 -0.9250
 4141SOL    HW217744  10.103   7.146   2.337 -0.3939 -1.2740  2.2407
 4142SOL     OW17745   4.178   3.269   9.951  0.6305 -0.1104  0.2175
 4142SOL    HW117746   4.272   3.273   9.969  1.0459 -0.4835 -1.6698
 4142SOL    HW217747   4.156   3.358   9.924  0.4190 -0.0167  0.6839
 4143SOL     OW17748   0.247   9.854   1.340  0.0222  0.1937 -0.0005
 4143SOL    HW117749   0.283   9.934   1.378 -1.9582  0.1793  2.0851
 4143SOL    HW217750   0.157   9.850   1.372 -0.2581 -2.3754 -0.8687
 4144SOL     OW17751   9.799   1.563   1.549  1.0034  0.0083  0.3784
 4144SOL    HW117752   9.799   1.487   1.491 -0.0031 -0.4087  0.9068
 4144SOL    HW217753   9.881   1.555   1.599  1.7719  0.2545 -0.7951
 4145SOL     OW17754   3.463   9.529  10.738  0.1987  0.2218 -0.2269
 4145SOL    HW117755   3.495   9.468  10.805  0.9589  0.3202 -0.4848
 4145SOL    HW217756   3.377   9.556  10.769 -0.2231 -1.1046 -0.1754
 4146SOL     OW17757   9.754   4.368   6.397  0.8472  0.2989 -0.2661
 4146SOL    HW117758   9.751   4.278   6.431 -0.3801  0.2671 -0.4243
 4146SOL    HW217759   9.847   4.389   6.393  1.1006 -0.1905  1.8468
 4147SOL     OW17760   4.958   2.296   8.278 -1.1523  0.1007  0.4629
 4147SOL    HW117761   4.955   2.375   8.332  1.9771  0.1868  0.6913
 4147SOL    HW217762   5.014   2.236   8.327 -0.2793 -0.7555 -1.4927
 4148SOL     OW17763   2.235   4.291   1.768  0.2093 -0.6587 -0.0315
 4148SOL    HW117764   2.248   4.196   1.769 -0.6932 -0.7957 -0.4922
 4148SOL    HW217765   2.261   4.317   1.680 -1.0720 -0.7182 -0.4447
 4149SOL     OW17766   4.655   0.981  11.492 -0.1650  0.1951 -0.1248
 4149SOL    HW117767   4.660   1.027  11.577 -0.0766  0.9646 -0.5371
 4149SOL    HW217768   4.589   0.914  11.505  0.0866  0.0841  0.6626
 4150SOL     OW17769  10.424  11.330  10.455  0.9310 -0.3874  0.2188
 4150SOL    HW117770  10.425  11.283  10.539 -0.9348 -0.4688  0.2295
 4150SOL    HW217771  10.445  11.420  10.479  1.7889 -0.6646  0.5666
 4151SOL     OW17772   5.590  10.414   4.236 -0.3726  0.0562  0.4880
 4151SOL    HW117773   5.519  10.432   4.174 -0.8158  0.6406  1.1508
 4151SOL    HW217774   5.648  10.489   4.229 -0.4501  0.1472  0.8128
 4152SOL     OW17775  11.691   3.351   4.087 -0.4670 -0.2757  0.8038
 4152SOL    HW117776  11.695   3.304   4.170  2.2794  3.0494  2.8484
 4152SOL    HW217777  11.658   3.438   4.110  0.4878  0.8125 -1.5156
 4153SOL     OW17778   8.527   7.090   0.085  0.1746  0.0071  0.1593
 4153SOL    HW117779   8.611   7.062   0.049 -0.8646 -0.8041 -1.8142
 4153SOL    HW217780   8.465   7.023   0.055 -1.3788  1.2375  0.4713
 4154SOL     OW17781   7.165   3.439   8.781 -0.0132 -0.2552  0.3452
 4154SOL    HW117782   7.182   3.381   8.856  0.6730 -0.6650 -0.1083
 4154SOL    HW217783   7.077   3.472   8.796 -0.0955 -0.7580  1.0575
 4155SOL     OW17784   1.793   8.502  11.409 -0.2129 -0.0265 -0.2522
 4155SOL    HW117785   1.838   8.433  11.361 -0.7825  0.0198 -0.8599
 4155SOL    HW217786   1.855   8.528  11.477 -0.1907 -1.5257  0.3455
 4156SOL     OW17787   6.441   1.234   1.798 -0.1657 -0.2567  0.3192
 4156SOL    HW117788   6.506   1.254   1.730 -1.0762 -1.0697 -0.8235
 4156SOL    HW217789   6.460   1.144   1.824 -1.0469 -0.6403 -0.3041
 4157SOL     OW17790   9.900   2.220   9.095  0.1020 -0.3908 -0.3713
 4157SOL    HW117791   9.993   2.218   9.120 -0.3720 -2.8897  1.5979
 4157SOL    HW217792   9.895   2.158   9.021 -0.0715 -0.7237 -0.0833
 4158SOL     OW17793   7.589   2.170   6.186 -0.9533 -0.0419 -0.8614
 4158SOL    HW117794   7.542   2.236   6.136 -3.7402 -0.7463  0.6253
 4158SOL    HW217795   7.626   2.112   6.119  0.2919  2.1057 -2.1417
 4159SOL     OW17796   6.224   7.083   7.941  0.2006  0.6313 -0.1100
 4159SOL    HW117797   6.170   7.119   8.011 -1.3371 -1.4214 -0.1501
 4159SOL    HW217798   6.168   7.018   7.898  1.8121  0.3384 -1.9046
 4160SOL     OW17799   7.857   1.193   8.390 -0.1767 -0.4831 -0.8563
 4160SOL    HW117800   7.950   1.173   8.381 -0.3066 -2.2419  1.0071
 4160SOL    HW217801   7.820   1.118   8.436 -2.3114  0.6938 -0.4903
 4161SOL     OW17802  11.719   7.886   9.417 -0.2497  0.0707 -0.1764
 4161SOL    HW117803  11.645   7.936   9.384 -1.2853 -0.7353  0.8382
 4161SOL    HW217804  11.705   7.881   9.512  2.3138  1.8188  0.4010
 4162SOL     OW17805  11.116   7.422   8.643  0.3842  0.0261 -0.3924
 4162SOL    HW117806  11.108   7.327   8.641 -0.9417  0.1242 -0.8895
 4162SOL    HW217807  11.082   7.448   8.728 -1.0731  0.1684 -0.9900
 4163SOL     OW17808   0.657   7.899  11.685  0.0872  0.5800 -0.4021
 4163SOL    HW117809   0.720   7.954  11.731 -0.3983  0.1618  0.8003
 4163SOL    HW217810   0.663   7.926  11.593  2.2532  0.3146 -0.3852
 4164SOL     OW17811  10.278   1.869   3.443 -0.3146 -0.6962  0.7731
 4164SOL    HW117812  10.246   1.946   3.395  0.6861 -0.0677  1.0716
 4164SOL    HW217813  10.242   1.794   3.396 -1.5968 -0.0399  0.6763
 4165SOL     OW17814   8.486   7.960   7.505  0.1833  0.1803 -0.1364
 4165SOL    HW117815   8.480   7.869   7.477 -0.8388  0.6163 -1.4396
 4165SOL    HW217816   8.410   7.974   7.561 -1.0831  0.8391 -1.9152
 4166SOL     OW17817   4.991   8.304   0.135  0.5349  0.2080 -0.0491
 4166SOL    HW117818   5.034   8.228   0.174  0.2481 -1.3661 -2.5407
 4166SOL    HW217819   4.928   8.333   0.201  1.1863 -1.2334  1.2716
 4167SOL     OW17820   8.904   1.885  10.541 -0.0682 -0.4124  0.1475
 4167SOL    HW117821   8.964   1.953  10.569 -1.2375  0.3811  0.8216
 4167SOL    HW217822   8.844   1.930  10.480 -0.2932 -1.0561 -0.1149
 4168SOL     OW17823   5.634   3.042   6.949  0.0065 -0.2347  0.2080
 4168SOL    HW117824   5.603   3.110   7.009  2.5441  1.5345 -0.3160
 4168SOL    HW217825   5.566   3.036   6.882 -1.8097 -0.6266  1.9658
 4169SOL     OW17826   5.339   6.786   9.250 -0.5289 -0.1840 -0.2316
 4169SOL    HW117827   5.287   6.852   9.205  0.5502 -0.0094 -1.2400
 4169SOL    HW217828   5.276   6.742   9.308 -1.1666  2.0505  0.8773
 4170SOL     OW17829  11.579   9.296   0.276 -0.3168 -0.2206  0.2311
 4170SOL    HW117830  11.532   9.230   0.327  1.6038 -0.3735  1.8936
 4170SOL    HW217831  11.629   9.246   0.212 -0.4554 -0.2216  0.1228
 4171SOL     OW17832   7.322   4.405   5.251 -0.3775  0.0323 -0.6520
 4171SOL    HW117833   7.234   4.438   5.271  0.0655  0.3424  0.9166
 4171SOL    HW217834   7.342   4.443   5.166 -0.6438  2.3681  0.2329
 4172SOL     OW17835   0.037   1.324   6.950 -0.1204 -0.4788  0.6087
 4172SOL    HW117836   0.096   1.389   6.912 -2.6500  0.8591 -1.3158
 4172SOL    HW217837   0.046   1.337   7.045 -0.0614  2.3149  0.3077
 4173SOL     OW17838  11.308   2.867  10.436  0.3404 -0.1027  0.5246
 4173SOL    HW117839  11.268   2.794  10.483 -0.2093  0.0395  0.2968
 4173SOL    HW217840  11.236   2.904  10.384  0.7928  0.1049  0.0283
 4174SOL     OW17841   7.783  10.587   8.310 -0.1701  0.0989 -0.4967
 4174SOL    HW117842   7.848  10.639   8.263  0.1479  1.8250  1.7317
 4174SOL    HW217843   7.833  10.512   8.344  0.6826  1.3153  1.0447
 4175SOL     OW17844   5.535   8.111   1.085 -0.6394  0.1124  0.4647
 4175SOL    HW117845   5.442   8.131   1.095 -1.1654 -0.1797 -2.7001
 4175SOL    HW217846   5.569   8.181   1.029  0.8225 -0.3459  0.7348
 4176SOL     OW17847  10.641   3.619   4.389  0.6550  0.0678 -0.1419
 4176SOL    HW117848  10.639   3.600   4.482 -1.7640  1.9274  0.2930
 4176SOL    HW217849  10.694   3.699   4.382  1.3374 -0.4004 -0.4734
 4177SOL     OW17850  11.243  10.626   9.167 -0.6522  0.2660  0.0237
 4177SOL    HW117851  11.247  10.612   9.262 -0.2446  2.3262  0.3690
 4177SOL    HW217852  11.230  10.721   9.158 -0.6455  0.1153 -1.9916
 4178SOL     OW17853   6.201   3.318  10.739 -0.2215 -0.3783  0.7906
 4178SOL    HW117854   6.130   3.347  10.683  0.2733  0.0152  0.3536
 4178SOL    HW217855   6.180   3.228  10.762 -0.9218 -0.2200  0.7756
 4179SOL     OW17856   9.431   6.528   0.251  0.1774 -0.0921  0.9229
 4179SOL    HW117857   9.451   6.449   0.200 -0.1089  0.2013  0.3430
 4179SOL    HW217858   9.358   6.503   0.307 -0.4887  0.0130  0.1067
 4180SOL     OW17859   0.760   0.918   8.330 -0.4097  0.1134 -0.2401
 4180SOL    HW117860   0.772   0.987   8.395  0.3673  0.1036 -0.3665
 4180SOL    HW217861   0.753   0.964   8.246 -1.8663  0.1572 -0.1185
 4181SOL     OW17862  10.011   0.640   7.960  0.2981  0.1608 -0.2682
 4181SOL    HW117863  10.085   0.674   8.011  1.2613  0.4082 -1.7507
 4181SOL    HW217864   9.972   0.572   8.015  0.2359  1.5504  1.4829
 4182SOL     OW17865   8.607   6.215   7.248  0.1223 -0.2129  0.0692
 4182SOL    HW117866   8.554   6.240   7.324  1.4335  0.6135  0.7308
 4182SOL    HW217867   8.545   6.218   7.174 -1.0287 -0.4637  0.9977
 4183SOL     OW17868   6.211   6.947   8.826  0.2506 -0.2713  0.3213
 4183SOL    HW117869   6.234   6.859   8.857  1.6791 -1.0695 -2.6710
 4183SOL    HW217870   6.288   6.977   8.779 -0.1479  2.7270  1.3804
 4184SOL     OW17871  11.739   0.637   6.954 -0.1047  0.2261 -0.6093
 4184SOL    HW117872  11.818   0.594   6.985 -0.6938 -0.3752  0.0895
 4184SOL    HW217873  11.667   0.595   7.002 -0.8502  0.7813 -1.1954
 4185SOL     OW17874   3.046   4.635   7.357 -0.1492 -0.1096  0.4618
 4185SOL    HW117875   2.981   4.601   7.419 -0.9240 -0.1801 -0.3686
 4185SOL    HW217876   3.019   4.600   7.272  1.3785 -0.6946  0.1921
 4186SOL     OW17877   0.330   7.032   2.349  0.3475  0.2370  0.4911
 4186SOL    HW117878   0.291   6.950   2.378  3.9796 -1.3787  1.3069
 4186SOL    HW217879   0.383   7.060   2.423 -1.5537  4.0363  0.6675
 4187SOL     OW17880   7.569  10.439   1.992 -0.2688  0.1465 -0.3058
 4187SOL    HW117881   7.661  10.417   1.978  1.2418  2.5438  3.9566
 4187SOL    HW217882   7.549  10.504   1.925  1.4577  0.2280 -0.7697
 4188SOL     OW17883   5.285   7.675   9.661  0.4665 -0.1769  0.4091
 4188SOL    HW117884   5.237   7.624   9.727 -0.2975 -0.7570 -0.5757
 4188SOL    HW217885   5.358   7.619   9.635 -0.1475 -0.6119 -0.3884
 4189SOL     OW17886   0.128   3.292   8.985  0.3075  0.2569  0.2531
 4189SOL    HW117887   0.156   3.296   9.077  0.5088 -1.6914  0.3189
 4189SOL    HW217888   0.190   3.347   8.939  2.5456 -1.6071  0.8163
 4190SOL     OW17889   1.018   4.803   5.914 -0.8026 -0.5815 -0.0188
 4190SOL    HW117890   0.936   4.754   5.907 -0.6349 -0.8904  0.1544
 4190SOL    HW217891   1.079   4.742   5.955 -0.6021 -0.2144  0.2373
 4191SOL     OW17892   4.159   3.504   6.314 -0.2669 -0.0979  0.3406
 4191SOL    HW117893   4.219   3.570   6.348 -1.8695  0.4437  2.3670
 4191SOL    HW217894   4.078   3.519   6.363 -1.3782 -2.1583 -0.7464
 4192SOL     OW17895   3.686   8.319   8.147  0.4114 -0.3985  0.0548
 4192SOL    HW117896   3.623   8.248   8.135  2.4235 -2.1122 -1.0414
 4192SOL    HW217897   3.688   8.333   8.242 -0.7721 -1.0655  0.1985
 4193SOL     OW17898   5.506   8.276   1.856 -0.5258 -0.2542  0.4327
 4193SOL    HW117899   5.481   8.368   1.847 -1.3073 -0.3280  1.6323
 4193SOL    HW217900   5.441   8.229   1.805  0.4928 -0.1192 -1.0856
 4194SOL     OW17901   5.265   3.933   4.981 -0.4031  0.5850 -0.6264
 4194SOL    HW117902   5.248   3.919   4.887  1.3699  1.6026 -1.1532
 4194SOL    HW217903   5.198   3.996   5.008  0.9306  2.7722 -2.0533
 4195SOL     OW17904  11.378   0.079   0.242  0.2913  0.2320  0.3499
 4195SOL    HW117905  11.442   0.081   0.171  0.6718  0.6228  0.6969
 4195SOL    HW217906  11.373  -0.013   0.267  0.2924  0.1194 -0.0620
 4196SOL     OW17907   0.039  11.748   1.475  0.1427 -0.0818  0.0995
 4196SOL    HW117908  -0.006  11.716   1.397  0.7886  1.0466 -0.7711
 4196SOL    HW217909   0.130  11.722   1.463 -0.0042 -1.1579  1.1925
 4197SOL     OW17910  11.177   2.957   9.953 -0.0872  0.3649  0.2367
 4197SOL    HW117911  11.187   2.882   9.894 -0.0942  2.2414 -2.3333
 4197SOL    HW217912  11.261   2.962  10.000 -0.5247 -1.8956  1.3879
 4198SOL     OW17913   1.322   8.355   9.386  0.4101 -0.4679  0.3996
 4198SOL    HW117914   1.389   8.308   9.336  0.0970 -2.0359  1.3650
 4198SOL    HW217915   1.260   8.385   9.319  1.9733  0.9263 -0.4995
 4199SOL     OW17916   4.772   1.147   4.081  0.3560  0.9957 -0.1456
 4199SOL    HW117917   4.760   1.166   4.174 -3.2170 -0.3820 -0.1614
 4199SOL    HW217918   4.745   1.227   4.036  0.8162  1.2170 -0.0354
 4200SOL     OW17919   6.813   3.072   0.169  0.4996 -0.4639 -0.5700
 4200SOL    HW117920   6.905   3.095   0.181 -0.1683  1.7480  0.8297
 4200SOL    HW217921   6.790   3.111   0.084  0.8376 -1.0088 -0.9160
 4201SOL     OW17922   4.639  11.740   5.005  0.1234 -1.3197 -0.3444
 4201SOL    HW117923   4.728  11.708   4.995 -0.0029 -3.3326  3.2689
 4201SOL    HW217924   4.648  11.825   5.047  0.3550 -1.2038 -0.6321
 4202SOL     OW17925   0.557   8.761   1.257  0.5567  0.0583 -0.5820
 4202SOL    HW117926   0.601   8.676   1.254  0.0251 -0.2492  0.1274
 4202SOL    HW217927   0.589   8.801   1.337 -0.2601 -0.0660 -0.1859
 4203SOL     OW17928   5.506   9.728  10.276 -0.1515 -0.6091  0.6675
 4203SOL    HW117929   5.423   9.765  10.306  0.3747 -0.9505  2.6676
 4203SOL    HW217930   5.573   9.771  10.330  0.6923 -2.5894  1.2720
 4204SOL     OW17931   2.219   7.192  11.516  0.4151 -0.2495 -0.1034
 4204SOL    HW117932   2.161   7.244  11.460  0.7304  0.6436  0.3796
 4204SOL    HW217933   2.259   7.256  11.575  0.0577 -1.1719  1.1787
 4205SOL     OW17934   5.016   4.612   2.076 -0.1285 -0.0782 -0.0260
 4205SOL    HW117935   4.962   4.532   2.082  0.7442 -0.6068  1.0762
 4205SOL    HW217936   4.965   4.678   2.123 -0.6187 -0.0993 -0.5069
 4206SOL     OW17937  11.567  10.730   7.472  0.3161  0.1206  0.1717
 4206SOL    HW117938  11.605  10.798   7.416 -0.6043  2.1132  1.8396
 4206SOL    HW217939  11.632  10.718   7.541  0.7512 -1.2149 -0.4287
 4207SOL     OW17940   8.919   4.330  10.044  1.1491 -0.5691  0.1638
 4207SOL    HW117941   8.837   4.289  10.019  1.4395 -1.2095  0.2519
 4207SOL    HW217942   8.973   4.326   9.965  0.0715  2.6040 -0.9170
 4208SOL     OW17943   9.001   8.692   7.671  0.2860  0.0389  0.5554
 4208SOL    HW117944   8.967   8.605   7.653 -1.5109  0.8164 -0.0062
 4208SOL    HW217945   9.036   8.722   7.586 -0.2383  0.3433  0.4461
 4209SOL     OW17946  10.576   1.010  11.810 -0.8502 -0.1055 -0.1365
 4209SOL    HW117947  10.500   1.027  11.864  0.4367  1.8997  1.1960
 4209SOL    HW217948  10.591   1.092  11.763 -0.3295 -0.9249 -1.4556
 4210SOL     OW17949   5.037   6.721   7.639  0.0760  0.4878  0.0990
 4210SOL    HW117950   4.961   6.705   7.584 -0.3354 -1.4487  1.1598
 4210SOL    HW217951   5.110   6.730   7.577 -0.9531  2.3857 -0.9208
 4211SOL     OW17952   9.743   7.789   2.355 -0.0291  0.0704  0.2493
 4211SOL    HW117953   9.749   7.800   2.260 -1.5670  2.2184  0.3163
 4211SOL    HW217954   9.818   7.837   2.389  0.2553 -0.2950  0.1389
 4212SOL     OW17955   8.992   4.253  11.231 -0.1426  0.3889  0.0840
 4212SOL    HW117956   8.995   4.337  11.276 -1.1714  0.0646  0.7842
 4212SOL    HW217957   9.058   4.199  11.276  0.0998  0.6246  0.0152
 4213SOL     OW17958  10.356  10.946   1.130 -0.1093  0.0388 -0.0381
 4213SOL    HW117959  10.391  10.869   1.086 -1.6820 -2.0192  2.0829
 4213SOL    HW217960  10.432  10.985   1.174  0.7091 -0.2693 -1.1473
 4214SOL     OW17961   3.722   1.965  10.127  0.4130 -0.4846 -0.5723
 4214SOL    HW117962   3.675   1.975  10.045  0.8999 -0.4353 -0.8514
 4214SOL    HW217963   3.663   1.999  10.194 -0.1326 -0.8750 -0.8570
 4215SOL     OW17964   0.158   0.310   8.395  0.2852 -0.1078 -0.0573
 4215SOL    HW117965   0.200   0.320   8.310  1.6662  3.0804  0.8293
 4215SOL    HW217966   0.230   0.288   8.454 -0.0982  0.5982  0.7040
 4216SOL     OW17967   5.423   5.389   5.534  0.3057  0.4150  0.5584
 4216SOL    HW117968   5.431   5.431   5.449  0.6104 -0.0204  0.3672
 4216SOL    HW217969   5.488   5.318   5.532 -0.3360 -0.1965  0.7875
 4217SOL     OW17970   5.117   9.669   6.579 -0.0157  0.8606 -0.0761
 4217SOL    HW117971   5.122   9.635   6.490  1.7921  0.8515 -0.0021
 4217SOL    HW217972   5.052   9.613   6.623 -0.3721  0.4028 -1.1680
 4218SOL     OW17973   8.888   0.868  11.612 -0.1961  0.3140 -0.2475
 4218SOL    HW117974   8.901   0.782  11.652 -0.8134 -0.0557 -0.8207
 4218SOL    HW217975   8.842   0.919  11.679  0.9063  0.4837  0.4124
 4219SOL     OW17976   5.697  11.336   9.324 -0.0217 -0.0919 -0.7384
 4219SOL    HW117977   5.628  11.279   9.360 -0.5052  0.5968 -0.5586
 4219SOL    HW217978   5.676  11.342   9.231  0.1927 -0.4261 -0.8114
 4220SOL     OW17979   1.830   2.856   5.676  0.2346 -0.1882 -0.4222
 4220SOL    HW117980   1.806   2.785   5.735 -0.6296  1.1686  0.9396
 4220SOL    HW217981   1.842   2.814   5.591 -1.5866 -1.7590  0.0413
 4221SOL     OW17982  11.026  10.902   8.667  0.0673 -0.0485  0.0437
 4221SOL    HW117983  11.016  10.876   8.758  2.4931  0.1261  0.4162
 4221SOL    HW217984  11.024  10.997   8.668 -0.4633 -0.0523 -0.1816
 4222SOL     OW17985  10.749   4.767   0.285  0.3401  0.0219  0.1072
 4222SOL    HW117986  10.698   4.706   0.339 -0.1385 -0.1442 -0.5186
 4222SOL    HW217987  10.806   4.812   0.347 -0.0960 -0.2683  0.7294
 4223SOL     OW17988   9.797   1.628   7.302  0.3112 -0.0477  0.5638
 4223SOL    HW117989   9.757   1.670   7.226  2.1055 -1.3729 -1.2183
 4223SOL    HW217990   9.723   1.603   7.358 -1.1223  0.2984 -1.1132
 4224SOL     OW17991   0.983   1.373   5.457 -0.2589  0.2774 -0.0493
 4224SOL    HW117992   1.025   1.299   5.412 -0.1957 -0.1247  0.6621
 4224SOL    HW217993   0.922   1.332   5.518 -1.1063  0.8462 -0.5046
 4225SOL     OW17994   8.062   7.683   5.904 -0.2584 -0.8373 -0.4300
 4225SOL    HW117995   8.136   7.623   5.891 -0.2598 -1.2755  1.2702
 4225SOL    HW217996   7.995   7.629   5.945  0.1416  0.4818  2.1996
 4226SOL     OW17997   5.372   2.296   2.312  0.6800  0.0879  0.0133
 4226SOL    HW117998   5.347   2.279   2.403  2.8785  0.9265  0.8479
 4226SOL    HW217999   5.396   2.211   2.277  0.8699 -0.0909  0.5655
 4227SOL     OW18000   6.245  11.788   6.228  0.0351  0.4376  0.0524
 4227SOL    HW118001   6.285  11.745   6.152  2.7547  1.2294  0.9283
 4227SOL    HW218002   6.168  11.832   6.192 -0.5885 -1.8126 -1.5993
 4228SOL     OW18003   1.195   1.865   8.482 -1.1045 -0.3725  0.2195
 4228SOL    HW118004   1.258   1.902   8.421 -0.9027 -1.3349 -0.1697
 4228SOL    HW218005   1.145   1.940   8.513 -0.7058  0.2224 -0.5454
 4229SOL     OW18006   8.355   8.699   7.137 -0.6099 -0.3603 -0.0855
 4229SOL    HW118007   8.449   8.720   7.143 -0.4052 -0.9655 -1.0986
 4229SOL    HW218008   8.345   8.657   7.052 -1.8322 -0.2032 -0.0333
 4230SOL     OW18009   7.558   4.851   2.807  0.1092  0.0429 -0.5803
 4230SOL    HW118010   7.481   4.821   2.855 -1.5257 -0.5884 -3.4154
 4230SOL    HW218011   7.612   4.772   2.796  1.9426  0.7010  2.4664
 4231SOL     OW18012   1.635   8.888   8.421 -0.1152  0.5412 -0.6061
 4231SOL    HW118013   1.672   8.957   8.365 -0.3437 -0.1277 -1.6165
 4231SOL    HW218014   1.641   8.923   8.509 -1.8173  2.5903 -1.2284
 4232SOL     OW18015   2.756  10.275   1.021  0.0555 -0.0852  0.0114
 4232SOL    HW118016   2.769  10.342   1.088  1.0871  0.7044 -0.9262
 4232SOL    HW218017   2.763  10.192   1.068  1.5290  0.4319  0.7762
 4233SOL     OW18018   7.821   5.247   2.647  0.2621  0.1290  0.2769
 4233SOL    HW118019   7.792   5.170   2.696 -0.3271 -0.1671 -0.5205
 4233SOL    HW218020   7.836   5.314   2.714  0.2177 -0.4961  0.9259
 4234SOL     OW18021   8.550   1.080   6.668  0.1890  0.1905 -0.4815
 4234SOL    HW118022   8.582   1.001   6.625  0.4640  0.5995 -1.0329
 4234SOL    HW218023   8.496   1.047   6.741  2.2612 -0.5345  0.8053
 4235SOL     OW18024   0.639   7.264   9.281 -0.4232  0.2337 -0.1133
 4235SOL    HW118025   0.654   7.353   9.316  0.8394 -0.7137  1.9606
 4235SOL    HW218026   0.555   7.238   9.318 -0.4829  0.3187 -0.1873
 4236SOL     OW18027   9.556   0.584   5.476 -0.0665 -0.1586 -0.0005
 4236SOL    HW118028   9.536   0.677   5.463 -0.4078 -0.3572 -0.9992
 4236SOL    HW218029   9.471   0.540   5.465  0.2934 -0.6865 -0.7817
 4237SOL     OW18030  10.949   5.761   3.085  0.6932 -0.1162  0.2976
 4237SOL    HW118031  10.915   5.672   3.093 -0.0145  0.1880  0.7826
 4237SOL    HW218032  10.900   5.798   3.012 -0.0251  0.3107  0.9738
 4238SOL     OW18033   2.536   7.612   2.361 -0.7316  0.0731  0.2520
 4238SOL    HW118034   2.470   7.661   2.312  0.0081 -0.0707 -0.9241
 4238SOL    HW218035   2.612   7.670   2.365 -0.3441 -0.4141  0.1093
 4239SOL     OW18036   7.413   3.723   3.524 -0.0851 -0.2831  0.3152
 4239SOL    HW118037   7.350   3.669   3.571  0.1557 -0.1079  0.8437
 4239SOL    HW218038   7.366   3.803   3.502  0.4201  0.6137  2.2523
 4240SOL     OW18039   9.046   8.755  11.069 -0.3578 -0.7590 -0.3557
 4240SOL    HW118040   9.004   8.841  11.060  1.7880  0.4751  0.6565
 4240SOL    HW218041   9.078   8.735  10.981  1.2928  0.7031 -0.1246
 4241SOL     OW18042   4.469   0.414   4.949 -0.4316 -0.1143  0.0419
 4241SOL    HW118043   4.503   0.489   4.999 -0.2197  0.6788 -1.2257
 4241SOL    HW218044   4.400   0.452   4.894 -1.3623 -1.1557  0.4442
 4242SOL     OW18045   8.778   1.666   1.446 -0.3077  1.3325  0.0789
 4242SOL    HW118046   8.861   1.694   1.408  0.0885 -1.5192 -1.4742
 4242SOL    HW218047   8.792   1.668   1.540  1.1633  1.8539 -0.1309
 4243SOL     OW18048  10.202   1.630  10.766 -0.1406  0.8186  0.6913
 4243SOL    HW118049  10.249   1.582  10.697 -0.7735 -0.1138  0.8807
 4243SOL    HW218050  10.158   1.702  10.719 -1.3710 -0.3776 -0.0885
 4244SOL     OW18051  11.371   1.353   5.190  0.3775 -0.1152  0.2647
 4244SOL    HW118052  11.428   1.423   5.222 -0.3691  0.6335 -0.0374
 4244SOL    HW218053  11.420   1.314   5.117  1.7173 -1.2845  1.7033
 4245SOL     OW18054   4.892   0.160   5.477  0.7992  0.0010 -0.0872
 4245SOL    HW118055   4.942   0.143   5.557 -0.8180  0.7083  1.1312
 4245SOL    HW218056   4.808   0.117   5.492 -0.8764  3.0717  0.1934
 4246SOL     OW18057   7.561   1.047   1.360  0.4703 -0.1751 -0.3868
 4246SOL    HW118058   7.498   0.982   1.329  0.1651 -0.7452  1.3234
 4246SOL    HW218059   7.541   1.057   1.453  1.7116  1.0132 -0.2216
 4247SOL     OW18060   4.905   5.743   7.584  0.1180 -0.2732  0.4502
 4247SOL    HW118061   4.850   5.667   7.565 -0.2054  0.0698  0.0272
 4247SOL    HW218062   4.980   5.706   7.632 -0.3278 -0.7746  0.7682
 4248SOL     OW18063  10.490  10.206   9.401  0.2640 -0.2056  0.0432
 4248SOL    HW118064  10.549  10.245   9.466 -0.1263 -1.5351  1.2494
 4248SOL    HW218065  10.436  10.279   9.371 -0.4554  0.2561  2.2555
 4249SOL     OW18066   6.825   3.522   5.846  0.4161 -0.2163 -0.1198
 4249SOL    HW118067   6.882   3.454   5.810  0.5435  0.2284 -0.7701
 4249SOL    HW218068   6.842   3.599   5.791  0.5954  0.4737  0.8736
 4250SOL     OW18069   9.191   3.839   9.470 -0.2181  0.6371  1.1375
 4250SOL    HW118070   9.146   3.853   9.386 -0.5138  1.5958  1.4446
 4250SOL    HW218071   9.120   3.822   9.532  0.0008 -0.0414  1.2132
 4251SOL     OW18072   5.116   9.140   9.934 -0.2337  0.3077 -0.4736
 4251SOL    HW118073   5.025   9.151   9.961 -0.1336  2.1259 -0.7543
 4251SOL    HW218074   5.114   9.068   9.871 -1.4056  0.0595 -0.1744
 4252SOL     OW18075   2.482   2.887   1.159  0.0933  0.2467  0.2065
 4252SOL    HW118076   2.456   2.811   1.211 -0.8033  1.1773  1.1459
 4252SOL    HW218077   2.411   2.898   1.096 -1.8587  2.6232  2.5983
 4253SOL     OW18078  11.676   2.972   0.181  0.1435  0.7619 -0.1768
 4253SOL    HW118079  11.746   2.907   0.180 -0.8364 -0.3345  0.8041
 4253SOL    HW218080  11.721   3.055   0.198  1.1830  0.0620  0.5911
 4254SOL     OW18081   3.415   4.163   6.992  0.4669 -0.7641 -0.5719
 4254SOL    HW118082   3.439   4.070   6.986 -0.8018 -1.2449  1.0575
 4254SOL    HW218083   3.436   4.199   6.906 -1.7191 -3.2221 -2.2974
 4255SOL     OW18084   6.814   7.868   1.185 -0.0969 -1.0959  0.3523
 4255SOL    HW118085   6.855   7.879   1.271  0.1582  0.8075  0.0349
 4255SOL    HW218086   6.878   7.819   1.134  0.1393 -1.4612  0.9901
 4256SOL     OW18087   2.088   4.791   2.662 -0.4236  0.1634 -0.3741
 4256SOL    HW118088   2.085   4.811   2.569 -1.9599  0.3675 -0.2982
 4256SOL    HW218089   2.173   4.825   2.691 -0.3190  0.9154 -1.5031
 4257SOL     OW18090   4.790   3.281   7.072 -0.2853  0.2315 -0.0517
 4257SOL    HW118091   4.774   3.240   6.987  2.9040 -0.7393 -0.3066
 4257SOL    HW218092   4.768   3.213   7.136  2.5845 -1.1723 -0.3945
 4258SOL     OW18093   9.358   0.506   7.593 -0.3518  0.1971  0.3073
 4258SOL    HW118094   9.270   0.486   7.627 -0.0826 -2.4972 -0.3219
 4258SOL    HW218095   9.414   0.440   7.635  1.1300  1.0056 -0.3651
 4259SOL     OW18096   0.106   3.027   3.509  0.0627  0.1020  0.1433
 4259SOL    HW118097   0.063   3.055   3.428 -2.3884 -1.5972  0.7595
 4259SOL    HW218098   0.092   3.100   3.570  0.8394  0.8711 -0.5826
 4260SOL     OW18099   8.083   2.167   3.087  0.1573  0.5562 -0.2157
 4260SOL    HW118100   8.011   2.107   3.065  1.6638 -2.3122  1.9917
 4260SOL    HW218101   8.149   2.151   3.020  0.6771 -0.5624  0.5362
 4261SOL     OW18102   7.878   3.043   0.156 -0.1688 -0.0182 -0.0266
 4261SOL    HW118103   7.844   3.116   0.208  0.4961 -0.4746  1.0782
 4261SOL    HW218104   7.841   2.965   0.197  2.5266 -0.5859  1.5814
 4262SOL     OW18105   2.940   8.061   5.949 -0.0332 -0.6210 -0.2559
 4262SOL    HW118106   2.864   8.052   5.892 -0.7522 -1.4862  0.7774
 4262SOL    HW218107   2.920   8.136   6.004  0.0446 -0.5970 -0.2611
 4263SOL     OW18108   6.141   5.577   0.884 -0.2249 -0.0897 -0.1949
 4263SOL    HW118109   6.123   5.627   0.963 -1.0257  0.4278 -0.6814
 4263SOL    HW218110   6.172   5.642   0.821  0.9564 -0.5845 -0.1444
 4264SOL     OW18111   7.871   9.155   8.026 -0.4479 -0.2050  0.2926
 4264SOL    HW118112   7.952   9.137   8.074 -0.2494  0.1866  0.1083
 4264SOL    HW218113   7.851   9.247   8.047  0.2924  0.3467 -1.3122
 4265SOL     OW18114   8.460  11.358   0.178 -0.5183 -0.1658 -0.1550
 4265SOL    HW118115   8.390  11.331   0.119 -0.3307 -0.1511 -0.3863
 4265SOL    HW218116   8.540  11.334   0.132 -0.3589  0.3570 -0.1488
 4266SOL     OW18117   0.115   4.826   1.859 -0.0843 -0.3741 -0.1645
 4266SOL    HW118118   0.114   4.799   1.951 -0.5942 -0.3649 -0.1621
 4266SOL    HW218119   0.114   4.922   1.863  0.9583 -0.3518 -0.1777
 4267SOL     OW18120  10.241  11.609   0.361  0.0923 -0.5599 -0.5767
 4267SOL    HW118121  10.181  11.592   0.289 -2.9885 -0.8870  1.8925
 4267SOL    HW218122  10.264  11.702   0.351  0.0922 -0.6997 -2.1716
 4268SOL     OW18123   1.454  10.182   8.354 -0.0261 -0.3559  0.2056
 4268SOL    HW118124   1.522  10.145   8.299  1.6273  0.0492  1.9051
 4268SOL    HW218125   1.387  10.211   8.292  0.7349 -1.9004 -1.4238
 4269SOL     OW18126   8.391  11.546   1.331 -0.6456 -0.7231 -0.3563
 4269SOL    HW118127   8.451  11.609   1.291 -0.0435 -1.8140 -1.2110
 4269SOL    HW218128   8.435  11.462   1.323 -1.7892 -1.3909  0.0565
 4270SOL     OW18129   6.500   0.618   1.103 -0.3719 -0.2389  0.2835
 4270SOL    HW118130   6.594   0.611   1.122 -0.7587 -2.0914  1.8200
 4270SOL    HW218131   6.496   0.638   1.009  1.5481  1.7912  0.5471
 4271SOL     OW18132  10.711   8.389  11.595 -0.3734 -0.4345 -0.0174
 4271SOL    HW118133  10.705   8.343  11.679  0.0754 -1.1175 -0.3490
 4271SOL    HW218134  10.627   8.434  11.586  0.5052  1.8517  2.0425
 4272SOL     OW18135   6.755   1.335   0.027  0.4858  0.3010 -0.9589
 4272SOL    HW118136   6.813   1.406   0.055 -0.8026  1.5432 -1.3321
 4272SOL    HW218137   6.796   1.256   0.061  1.5890  1.2851  0.0902
 4273SOL     OW18138   4.317   3.404   0.580 -0.2823 -0.1669 -0.0431
 4273SOL    HW118139   4.314   3.499   0.593 -0.5306 -0.3659  1.5092
 4273SOL    HW218140   4.408   3.386   0.559 -0.0771  0.3330  0.3894
 4274SOL     OW18141   4.517   2.541   7.477  0.2638 -0.0864 -0.4099
 4274SOL    HW118142   4.465   2.485   7.535  1.7574 -1.2917 -0.1612
 4274SOL    HW218143   4.489   2.517   7.389  0.1791 -0.4879 -0.2745
 4275SOL     OW18144  11.535   9.458   5.346 -0.1487  0.2667 -0.4897
 4275SOL    HW118145  11.480   9.484   5.420 -1.3635 -0.6381 -1.0520
 4275SOL    HW218146  11.587   9.537   5.326 -1.5616  1.2929 -0.2318
 4276SOL     OW18147   0.953   3.139   8.574 -0.0056  0.5003  0.5292
 4276SOL    HW118148   1.022   3.122   8.638 -0.7607  0.1922  1.2788
 4276SOL    HW218149   0.882   3.177   8.625 -1.0485 -0.7606  0.0723
 4277SOL     OW18150   9.098   2.512   3.524  0.8382 -0.1738 -0.6365
 4277SOL    HW118151   9.107   2.436   3.582 -0.6923  0.6537  0.7769
 4277SOL    HW218152   9.023   2.490   3.468  0.1616  0.4153  0.0202
 4278SOL     OW18153   0.055   1.107   6.800  0.0005  0.2387 -0.1036
 4278SOL    HW118154   0.055   1.169   6.873  1.5656  1.8689 -1.3886
 4278SOL    HW218155   0.028   1.158   6.724  0.1060 -0.9639 -0.9836
 4279SOL     OW18156   2.225  10.469   6.467 -0.1680 -0.3227 -0.1043
 4279SOL    HW118157   2.293  10.533   6.486  0.8321 -0.9292 -1.4337
 4279SOL    HW218158   2.149  10.497   6.518 -0.0440  2.3991 -1.2656
 4280SOL     OW18159  11.679   8.917   8.818 -0.0478  0.0988 -0.2093
 4280SOL    HW118160  11.670   8.850   8.886 -0.1772  1.2993  1.0095
 4280SOL    HW218161  11.600   8.971   8.826 -0.2250  0.0810 -1.5528
 4281SOL     OW18162  10.563   8.889   1.590 -0.2167 -0.1050 -0.5444
 4281SOL    HW118163  10.494   8.921   1.532  0.0363  1.0398 -0.2264
 4281SOL    HW218164  10.615   8.829   1.535  0.1504  1.1335 -1.5851
 4282SOL     OW18165   3.053   6.671  10.324 -0.6554 -0.3820 -0.8163
 4282SOL    HW118166   3.001   6.597  10.292 -0.7218 -0.3381 -0.8097
 4282SOL    HW218167   3.017   6.689  10.411 -1.6071  0.5830 -1.3911
 4283SOL     OW18168  10.125   4.084   8.500 -0.4091 -0.1579  0.2507
 4283SOL    HW118169  10.115   4.175   8.529  0.2860 -0.0943  0.3082
 4283SOL    HW218170  10.058   4.036   8.549 -1.2933  0.4388 -0.3493
 4284SOL     OW18171   9.618   5.416   4.389 -0.0631 -0.1087 -0.0663
 4284SOL    HW118172   9.652   5.350   4.450  1.5207  0.3471 -0.3916
 4284SOL    HW218173   9.525   5.421   4.409  0.1147 -1.1228  1.2163
 4285SOL     OW18174   0.678   8.679   1.702  0.1745 -0.5186 -0.3125
 4285SOL    HW118175   0.634   8.696   1.785 -1.0525  0.2321 -1.0833
 4285SOL    HW218176   0.733   8.756   1.687  0.2857 -0.5894 -0.2681
 4286SOL     OW18177   5.846   9.979   4.787  0.2417  0.5121 -0.3971
 4286SOL    HW118178   5.841  10.027   4.870  1.4302 -0.7504  0.4428
 4286SOL    HW218179   5.933  10.000   4.753  0.9717 -1.3661  0.2161
 4287SOL     OW18180  11.338   6.108   1.888 -0.0340 -0.0092  0.0552
 4287SOL    HW118181  11.353   6.142   1.976 -0.7343 -0.5094  0.3762
 4287SOL    HW218182  11.254   6.145   1.862 -0.8400 -1.4797  0.4270
 4288SOL     OW18183   4.675   1.982   7.248 -0.6825 -0.6205 -0.2070
 4288SOL    HW118184   4.598   2.033   7.272 -0.1383 -0.2473  0.8224
 4288SOL    HW218185   4.708   1.948   7.331 -0.5608 -1.9778 -0.7953
 4289SOL     OW18186   4.942   8.708  10.140  0.1954 -0.1135 -0.3692
 4289SOL    HW118187   4.917   8.749  10.057 -3.9790 -0.0685  0.6791
 4289SOL    HW218188   4.951   8.615  10.119 -0.5286 -0.0583 -0.9377
 4290SOL     OW18189   1.150   9.407   0.538  0.5678 -0.2953  0.0803
 4290SOL    HW118190   1.073   9.371   0.495  1.6139 -1.0958 -1.1786
 4290SOL    HW218191   1.197   9.331   0.572  0.6471  0.2090  1.1512
 4291SOL     OW18192   5.253   3.553   7.149  0.0304  0.0479 -0.4679
 4291SOL    HW118193   5.214   3.600   7.223  1.5695 -0.6748  0.8588
 4291SOL    HW218194   5.234   3.461   7.165  0.4745 -0.1297 -0.9241
 4292SOL     OW18195   5.313   7.343   7.972  0.4697  0.0620 -0.1104
 4292SOL    HW118196   5.255   7.419   7.973  0.1758 -0.1496 -0.6046
 4292SOL    HW218197   5.389   7.370   8.022  1.0160  1.2117 -1.5028
 4293SOL     OW18198   8.718   3.078   7.114  0.5543  0.0419 -0.3213
 4293SOL    HW118199   8.635   3.077   7.163 -0.4921 -0.3723 -2.0146
 4293SOL    HW218200   8.784   3.099   7.180 -0.8379 -0.0117  1.1671
 4294SOL     OW18201  11.581  10.478   0.035  0.5125  0.6657 -0.1621
 4294SOL    HW118202  11.627  10.558   0.010  0.2904  1.7856  2.6034
 4294SOL    HW218203  11.493  10.508   0.058 -0.1729 -0.7063 -0.8900
 4295SOL     OW18204   6.275   5.687   9.948 -0.4650  0.1779 -0.1741
 4295SOL    HW118205   6.277   5.776   9.914 -1.4439  0.3808  0.2563
 4295SOL    HW218206   6.308   5.694  10.038  0.7573 -0.1281 -0.5761
 4296SOL     OW18207   8.045   5.536   6.093 -0.0019 -0.0961 -0.2203
 4296SOL    HW118208   8.096   5.617   6.101 -1.2990  0.5900  1.8492
 4296SOL    HW218209   8.105   5.468   6.124  0.7963  0.1864 -1.1024
 4297SOL     OW18210   5.363   7.450   1.962 -0.2866 -0.1299 -0.3008
 4297SOL    HW118211   5.447   7.461   1.918 -0.2699 -1.9799 -0.7976
 4297SOL    HW218212   5.383   7.458   2.055  0.3492 -0.1413 -0.4376
 4298SOL     OW18213   9.356  10.023   8.046  0.2854  0.5675  0.3694
 4298SOL    HW118214   9.394  10.109   8.032 -1.4675  1.4479  0.7960
 4298SOL    HW218215   9.343   9.988   7.958 -0.4838  1.4239  0.1318
 4299SOL     OW18216   8.634   4.669   2.286 -0.0629  0.0705  0.7732
 4299SOL    HW118217   8.670   4.732   2.224 -0.2327  1.1946  1.7781
 4299SOL    HW218218   8.698   4.597   2.287  0.2596  0.3348 -0.2092
 4300SOL     OW18219   1.567   4.175   5.278  0.5599  0.0990 -0.4859
 4300SOL    HW118220   1.628   4.105   5.300  1.0225  0.1929 -1.4183
 4300SOL    HW218221   1.482   4.131   5.269  0.9489 -0.4507 -1.6326
 4301SOL     OW18222  10.377   2.066  11.112  0.0193 -0.1309  0.0374
 4301SOL    HW118223  10.305   2.075  11.175 -1.5079 -0.5446 -1.5587
 4301SOL    HW218224  10.397   2.156  11.086 -1.7703 -0.0798 -1.4053
 4302SOL     OW18225   0.192  11.562   6.632  0.0720  0.2004 -0.6941
 4302SOL    HW118226   0.245  11.637   6.660 -0.5632  0.0289  1.0724
 4302SOL    HW218227   0.142  11.594   6.557 -0.7790  1.8235  0.5017
 4303SOL     OW18228   4.368   8.945   7.549  0.6051  0.0966 -0.1883
 4303SOL    HW118229   4.371   8.862   7.503  1.8324  0.4464 -0.7925
 4303SOL    HW218230   4.283   8.983   7.527  0.3873 -0.6121 -0.5794
 4304SOL     OW18231  10.498   7.355   6.710 -0.2950  0.1396  0.3427
 4304SOL    HW118232  10.482   7.271   6.751 -0.0480  0.1087  0.3720
 4304SOL    HW218233  10.593   7.365   6.709 -0.3505  0.9762  1.4760
 4305SOL     OW18234  10.666   2.293   0.898  0.0747 -0.0875  0.0516
 4305SOL    HW118235  10.706   2.379   0.884 -0.7419  0.4885  1.0603
 4305SOL    HW218236  10.735   2.241   0.937  0.1524  0.5900  0.8493
 4306SOL     OW18237   5.775   6.812   6.562 -0.1490 -0.5727 -0.4463
 4306SOL    HW118238   5.740   6.750   6.497 -1.0816 -1.4562  0.8308
 4306SOL    HW218239   5.706   6.877   6.572  1.0313  1.0519 -2.1525
 4307SOL     OW18240  11.564   0.901   7.983  0.6845 -0.0604  0.0179
 4307SOL    HW118241  11.654   0.868   7.990  0.6968  0.0530  0.4377
 4307SOL    HW218242  11.526   0.852   7.910  0.4155 -1.7461  1.2006
 4308SOL     OW18243  11.389   6.378   0.313 -0.1398 -0.7209  0.2886
 4308SOL    HW118244  11.340   6.441   0.260 -1.0406 -0.4277  1.4110
 4308SOL    HW218245  11.444   6.331   0.251 -0.0647  0.6060 -0.6938
 4309SOL     OW18246   6.174   4.432  10.220 -0.0283 -0.0266  0.4410
 4309SOL    HW118247   6.135   4.418  10.134  0.7730 -0.6024  0.1562
 4309SOL    HW218248   6.206   4.522  10.217  0.6466 -0.2700 -0.1493
 4310SOL     OW18249  10.298   9.386   1.668  0.4609 -0.0076 -0.1661
 4310SOL    HW118250  10.265   9.306   1.711  0.6430 -0.7904 -1.4324
 4310SOL    HW218251  10.352   9.428   1.734  2.3428 -2.1967 -0.1917
 4311SOL     OW18252   5.289  10.382   9.803 -0.8595  0.2498  0.4274
 4311SOL    HW118253   5.302  10.436   9.881 -0.1687 -0.1560  0.5991
 4311SOL    HW218254   5.361  10.320   9.804 -0.4286  0.6863 -0.9191
 4312SOL     OW18255   5.489   5.621   6.283  0.0553  0.2479  0.4740
 4312SOL    HW118256   5.396   5.640   6.270  0.3184  1.2657 -0.0848
 4312SOL    HW218257   5.496   5.598   6.376 -0.5941  1.2783  0.8011
 4313SOL     OW18258  10.069   6.255   6.849  0.2076 -0.3805  0.3063
 4313SOL    HW118259  10.133   6.325   6.864  1.3728 -0.9110 -1.9222
 4313SOL    HW218260   9.984   6.300   6.855  0.9308  1.4176 -1.6931
 4314SOL     OW18261  11.125   6.142   2.979 -0.1073 -0.1361 -0.5059
 4314SOL    HW118262  11.212   6.168   3.008 -0.0453 -0.7722 -0.1180
 4314SOL    HW218263  11.078   6.121   3.059  0.5375 -3.4603 -0.8621
 4315SOL     OW18264   0.801   6.939   3.931 -0.0341  0.0156  0.0769
 4315SOL    HW118265   0.891   6.966   3.916  0.3049 -0.8424  0.4901
 4315SOL    HW218266   0.794   6.853   3.890 -0.6371  0.0299  0.1368
 4316SOL     OW18267   8.063   8.261   8.295  0.2564 -0.0050  0.1224
 4316SOL    HW118268   8.087   8.187   8.239  1.4604  0.0581  0.5132
 4316SOL    HW218269   8.142   8.315   8.298 -0.2849  0.7854  0.6475
 4317SOL     OW18270   6.656   5.105   0.985 -0.0209  0.1066  0.1328
 4317SOL    HW118271   6.582   5.054   0.953  0.6406  0.3227 -1.8955
 4317SOL    HW218272   6.732   5.072   0.936  0.9495  0.9594  0.9918
 4318SOL     OW18273   7.834   0.980   9.615  0.1892 -0.3529 -0.1674
 4318SOL    HW118274   7.758   1.038   9.623  0.7710  0.2846  1.0599
 4318SOL    HW218275   7.881   1.013   9.539  1.0196  1.4837  1.0485
 4319SOL     OW18276   7.896   0.193   9.271 -0.4340 -0.6336 -0.3036
 4319SOL    HW118277   7.956   0.166   9.201 -0.1161 -0.3618 -0.1378
 4319SOL    HW218278   7.944   0.260   9.320 -0.4791 -1.1354  0.4424
 4320SOL     OW18279   9.120   9.698   2.317 -0.4880 -0.5193 -0.4543
 4320SOL    HW118280   9.125   9.636   2.389 -2.4741  0.6685  0.7984
 4320SOL    HW218281   9.200   9.749   2.323 -1.2476  0.5346  1.9212
 4321SOL     OW18282  10.036   0.709   9.013 -0.4027  0.2291 -0.1727
 4321SOL    HW118283  10.065   0.699   9.104  1.7907  2.7125 -0.4936
 4321SOL    HW218284   9.991   0.627   8.993  1.5198 -1.5462  2.2509
 4322SOL     OW18285   6.657   8.645  11.582 -0.5161  0.5219  0.2196
 4322SOL    HW118286   6.700   8.730  11.568  0.5687  0.3553  2.1602
 4322SOL    HW218287   6.711   8.583  11.534  0.1616  0.6185  0.8345
 4323SOL     OW18288  11.407  10.089   2.181  0.3946 -0.0560  0.2293
 4323SOL    HW118289  11.335  10.045   2.226 -0.1639 -0.3571 -0.9016
 4323SOL    HW218290  11.485  10.061   2.228 -0.2461  0.7325  1.8420
 4324SOL     OW18291   4.286   3.258   6.263 -0.4894 -0.4107 -0.0298
 4324SOL    HW118292   4.347   3.244   6.336  0.6709  0.3728 -0.8093
 4324SOL    HW218293   4.256   3.349   6.275  2.6414  1.1404 -2.5281
 4325SOL     OW18294   7.571   3.330   9.037 -0.1847 -0.1802  0.1507
 4325SOL    HW118295   7.609   3.413   9.066 -2.9360  1.1493  0.1733
 4325SOL    HW218296   7.610   3.264   9.095  1.1463  1.2316  0.9131
 4326SOL     OW18297   5.639  10.115   1.687 -0.3226 -0.0614  0.5666
 4326SOL    HW118298   5.680  10.082   1.607 -0.7792  0.9245 -0.0806
 4326SOL    HW218299   5.546  10.121   1.666 -0.3991  0.5394  1.0608
 4327SOL     OW18300   6.528   8.942   9.645  0.3503 -0.2386  0.1468
 4327SOL    HW118301   6.573   8.952   9.561 -3.1222  0.1356 -1.8657
 4327SOL    HW218302   6.490   9.028   9.661  0.1704 -0.5799  1.6536
 4328SOL     OW18303   8.800   2.056  11.076  0.0614 -0.1135  0.0271
 4328SOL    HW118304   8.799   2.015  10.989  1.2847  1.0468 -0.5711
 4328SOL    HW218305   8.708   2.060  11.102 -0.2086 -2.0298 -0.4367
 4329SOL     OW18306   7.001   1.893   5.063  0.5059  0.7453 -0.1907
 4329SOL    HW118307   7.085   1.902   5.108  0.4443  1.8775 -0.2677
 4329SOL    HW218308   6.960   1.817   5.104  1.6381  0.0640 -0.2841
 4330SOL     OW18309  10.570  11.423   0.779  0.2517 -0.1240  0.2823
 4330SOL    HW118310  10.508  11.410   0.708 -1.6652  1.3762  1.5720
 4330SOL    HW218311  10.528  11.383   0.855  1.1135  0.4723  1.1031
 4331SOL     OW18312   0.734  10.503   5.882  0.3269  0.7612 -0.7766
 4331SOL    HW118313   0.697  10.548   5.806  1.3758  1.7757 -0.7065
 4331SOL    HW218314   0.688  10.419   5.885 -1.2859  1.5864 -1.2376
 4332SOL     OW18315  10.778  11.393  10.838  0.4076 -0.1093 -0.4012
 4332SOL    HW118316  10.872  11.411  10.847  0.0888  1.1252  1.0215
 4332SOL    HW218317  10.758  11.334  10.912  0.4589 -2.3431 -2.0665
 4333SOL     OW18318   7.359   3.524   9.181  0.0551 -0.7825 -0.2920
 4333SOL    HW118319   7.435   3.519   9.124  0.3591 -0.8718  0.1167
 4333SOL    HW218320   7.372   3.605   9.231  0.6195 -1.5372  0.8054
 4334SOL     OW18321   4.882  11.465   8.741  0.5484 -0.0771  0.1255
 4334SOL    HW118322   4.951  11.526   8.714  0.2015 -0.0864 -0.8137
 4334SOL    HW218323   4.807  11.520   8.761  0.6102 -0.1123  0.4486
 4335SOL     OW18324   4.526   6.801   1.611 -0.6102 -0.8151  0.1847
 4335SOL    HW118325   4.467   6.726   1.614 -0.5984 -0.8355 -0.1280
 4335SOL    HW218326   4.520   6.833   1.521 -0.3278 -0.6701  0.2173
 4336SOL     OW18327   5.683   2.072  10.114 -0.3494 -0.2306 -0.3855
 4336SOL    HW118328   5.771   2.039  10.095 -0.7465 -0.7004 -1.4639
 4336SOL    HW218329   5.688   2.101  10.205  0.9199 -0.2523 -0.4278
 4337SOL     OW18330   1.251   5.437   4.232  0.2488 -0.2781 -0.3518
 4337SOL    HW118331   1.238   5.440   4.327 -2.8933  1.1387 -0.7438
 4337SOL    HW218332   1.259   5.528   4.206  0.4853 -0.6300 -1.5439
 4338SOL     OW18333   3.970   5.028   0.469 -0.5042  0.1095 -0.8114
 4338SOL    HW118334   3.999   5.098   0.528  0.3409 -0.9764  0.1049
 4338SOL    HW218335   4.002   5.055   0.383 -3.3780  2.6627 -1.2417
 4339SOL     OW18336   7.919  11.094   1.014 -0.0317 -0.0224  0.5967
 4339SOL    HW118337   7.942  11.089   1.106 -0.7853 -0.9868  0.7476
 4339SOL    HW218338   7.989  11.146   0.974  1.4984 -1.4335  1.3243
 4340SOL     OW18339   9.702   9.571  10.593  0.0043  0.8266  0.0718
 4340SOL    HW118340   9.691   9.596  10.685 -0.0262  3.0359 -0.4724
 4340SOL    HW218341   9.787   9.606  10.569  0.8063 -1.2590 -0.3244
 4341SOL     OW18342   3.490   5.137   0.560 -0.2786 -0.3063  0.2763
 4341SOL    HW118343   3.527   5.111   0.475 -0.2711 -0.6006  0.3696
 4341SOL    HW218344   3.408   5.181   0.537  0.9076  1.8865 -0.0462
 4342SOL     OW18345   9.531  10.781   2.458  0.2164 -0.0433 -0.2652
 4342SOL    HW118346   9.502  10.799   2.547  0.9908  2.4817 -0.4654
 4342SOL    HW218347   9.627  10.782   2.464  0.3090  1.8675 -1.3728
 4343SOL     OW18348   3.199   1.805   5.976  0.2662 -0.0849 -0.3639
 4343SOL    HW118349   3.222   1.721   6.018  0.8172 -1.6679 -3.5413
 4343SOL    HW218350   3.104   1.801   5.966  0.3107 -0.4411 -0.6792
 4344SOL     OW18351   7.127   6.873   2.484  0.0422  0.1937 -0.1758
 4344SOL    HW118352   7.201   6.813   2.487  0.2624  0.3562 -1.5473
 4344SOL    HW218353   7.094   6.866   2.395  0.6534  2.7565 -0.6809
 4345SOL     OW18354   7.348   6.896   3.859  0.1749  0.1266  0.2418
 4345SOL    HW118355   7.357   6.802   3.843 -1.1604 -0.1004  0.7029
 4345SOL    HW218356   7.437   6.926   3.879  0.5223 -1.1481  0.6637
 4346SOL     OW18357   5.134   4.711   6.509  0.0393 -0.1783  0.2654
 4346SOL    HW118358   5.222   4.674   6.509  0.0181 -0.2624  1.2989
 4346SOL    HW218359   5.092   4.673   6.586 -1.4543 -1.3800 -1.0964
 4347SOL     OW18360   8.151  10.424   7.890  0.4103  0.1339  0.6864
 4347SOL    HW118361   8.104  10.427   7.806 -0.0682 -0.7397  0.9180
 4347SOL    HW218362   8.244  10.431   7.865  0.2093  1.6023  0.2101
 4348SOL     OW18363   6.466   7.984   6.840  0.1729  0.0178  0.2854
 4348SOL    HW118364   6.521   7.991   6.762  0.0186 -0.2496  0.1513
 4348SOL    HW218365   6.517   8.025   6.909 -1.2518  3.8803 -0.7093
 4349SOL     OW18366   0.013   3.476   9.955 -0.1724  0.3133 -0.3565
 4349SOL    HW118367   0.071   3.490   9.880 -0.5036  0.8085 -0.5214
 4349SOL    HW218368   0.042   3.539  10.020 -0.6459  0.6873 -0.5078
 4350SOL     OW18369   9.889   1.555   9.144 -0.2487 -0.0415  0.0063
 4350SOL    HW118370   9.883   1.470   9.188 -0.8141 -0.5752 -1.0826
 4350SOL    HW218371   9.935   1.611   9.207 -2.1628 -0.4023  1.8421
 4351SOL     OW18372  10.463   9.764   8.816 -0.0291 -0.1199 -0.3103
 4351SOL    HW118373  10.557   9.781   8.810  0.0882 -1.0581 -1.6263
 4351SOL    HW218374  10.436   9.807   8.898  1.3660  0.8842 -0.3337
 4352SOL     OW18375  10.916   5.679   2.811 -0.7353  0.2470  0.2235
 4352SOL    HW118376  10.916   5.695   2.717 -3.1327 -1.3524 -0.1416
 4352SOL    HW218377  10.844   5.618   2.825 -1.3580  1.4983  3.3047
 4353SOL     OW18378  11.198   8.420   6.451 -0.6646 -0.6968 -0.0061
 4353SOL    HW118379  11.192   8.394   6.359  0.4892  0.3652 -0.4170
 4353SOL    HW218380  11.290   8.443   6.463 -0.1187 -3.4846  2.1966
 4354SOL     OW18381  10.338   5.179   3.719  0.4891 -0.1314  0.3095
 4354SOL    HW118382  10.274   5.222   3.661 -0.3286 -0.0211  1.2709
 4354SOL    HW218383  10.404   5.246   3.736  1.0863 -0.3576 -0.9897
 4355SOL     OW18384  10.578   0.044   3.185  0.0001  0.0886  0.1104
 4355SOL    HW118385  10.586  -0.026   3.251 -1.4847 -0.6997 -0.4919
 4355SOL    HW218386  10.652   0.031   3.127  1.6094  1.0708  1.8203
 4356SOL     OW18387   2.206   9.782   3.464  0.0102  0.1282 -0.4401
 4356SOL    HW118388   2.165   9.733   3.535 -0.0443  0.1393 -0.4636
 4356SOL    HW218389   2.249   9.715   3.410 -0.4861  0.0596 -0.7503
 4357SOL     OW18390   1.275   2.633   4.039 -0.0005 -0.0919  0.2537
 4357SOL    HW118391   1.332   2.622   4.115  0.7385  0.0641 -0.2649
 4357SOL    HW218392   1.211   2.562   4.046  0.7041 -0.7231  0.4565
 4358SOL     OW18393  10.537   7.994   1.079 -0.2200  0.0448 -0.1011
 4358SOL    HW118394  10.484   8.046   1.018  0.0213  0.6368  0.1879
 4358SOL    HW218395  10.625   8.030   1.070 -0.6118  1.9411  2.4908
 4359SOL     OW18396  10.054  11.012   4.939  0.1037 -0.1455 -0.1527
 4359SOL    HW118397  10.026  10.978   4.854  0.7828 -0.1880 -0.3644
 4359SOL    HW218398  10.120  10.949   4.969 -1.7378 -1.4349  1.4684
 4360SOL     OW18399  10.428   9.234   9.711  0.4092  0.0528  0.3446
 4360SOL    HW118400  10.337   9.242   9.683  0.4784  0.9295  0.3440
 4360SOL    HW218401  10.461   9.158   9.663  0.2968  1.0389 -1.3595
 4361SOL     OW18402  11.438   7.684   6.222 -0.3836 -0.1530  0.1723
 4361SOL    HW118403  11.520   7.700   6.175 -0.7761 -1.1597 -0.8917
 4361SOL    HW218404  11.370   7.687   6.155 -1.0195 -1.0679  0.7584
 4362SOL     OW18405   7.225   9.090   2.762 -0.0998  0.3037 -0.0479
 4362SOL    HW118406   7.310   9.047   2.748 -0.2849 -0.2016  0.3788
 4362SOL    HW218407   7.210   9.139   2.681 -0.1385 -0.8618 -0.7637
 4363SOL     OW18408   1.754   4.489   4.730 -0.0348 -0.0533  0.1233
 4363SOL    HW118409   1.763   4.494   4.825  2.5959 -0.4398 -0.0416
 4363SOL    HW218410   1.775   4.577   4.699 -1.9192  0.3736 -0.1199
 4364SOL     OW18411  10.978   2.716   8.582  0.2910  0.1961 -0.5019
 4364SOL    HW118412  11.023   2.632   8.577  0.1286  0.0626  0.1727
 4364SOL    HW218413  11.048   2.781   8.579  0.6113 -0.0263  1.2372
 4365SOL     OW18414   6.516   8.481   5.022 -0.4424  0.2659 -0.0071
 4365SOL    HW118415   6.552   8.456   5.107  0.9762  0.3801 -0.5548
 4365SOL    HW218416   6.422   8.486   5.037 -0.3052 -0.6006  1.3283
 4366SOL     OW18417   9.224   0.308  10.722 -0.2100 -0.0556  0.2003
 4366SOL    HW118418   9.224   0.283  10.630  1.1711 -2.0240  0.6770
 4366SOL    HW218419   9.143   0.269  10.757 -0.1977 -0.2392  0.0286
 4367SOL     OW18420   9.842   1.790   1.267 -0.3481 -0.5676 -0.1493
 4367SOL    HW118421   9.867   1.873   1.225 -0.2124 -0.5397 -0.0138
 4367SOL    HW218422   9.784   1.816   1.338  0.3296 -0.5168  0.4059
 4368SOL     OW18423   7.055   6.497   3.452  0.2957 -0.4569 -0.5649
 4368SOL    HW118424   6.977   6.489   3.398  0.5574  1.8920 -1.4281
 4368SOL    HW218425   7.128   6.488   3.391  0.6225  0.5832 -0.3499
 4369SOL     OW18426  10.119   4.403   3.579 -0.2922 -0.4681  0.2916
 4369SOL    HW118427  10.102   4.309   3.574  1.9437 -0.9157  0.1403
 4369SOL    HW218428  10.099   4.436   3.491  1.3265 -1.2832 -0.4177
 4370SOL     OW18429   1.277   6.515   7.503  0.1509  0.6122  0.2144
 4370SOL    HW118430   1.206   6.463   7.466 -1.0723  0.2419  2.8120
 4370SOL    HW218431   1.265   6.602   7.467 -0.8125  0.2287 -0.4214
 4371SOL     OW18432   7.050   5.188   4.715  0.2187 -0.0128 -0.0209
 4371SOL    HW118433   7.080   5.102   4.745 -1.8281 -0.7709  0.0543
 4371SOL    HW218434   6.980   5.168   4.653 -3.4682  1.4273  3.2174
 4372SOL     OW18435   6.987   5.327   3.747  0.2760  0.7929  0.6095
 4372SOL    HW118436   6.895   5.354   3.753  0.2329  0.6204  0.7420
 4372SOL    HW218437   7.030   5.370   3.821  0.5549  1.8598 -0.1472
 4373SOL     OW18438   6.854   2.485  11.320 -0.0311  0.8892  0.0464
 4373SOL    HW118439   6.845   2.402  11.368 -4.0198  1.8061  1.3038
 4373SOL    HW218440   6.789   2.478  11.250 -0.6811  3.0320  0.3864
 4374SOL     OW18441   0.133   3.434   6.227 -0.5437 -0.4406 -0.1682
 4374SOL    HW118442   0.204   3.377   6.255 -0.7300 -0.2489  0.7105
 4374SOL    HW218443   0.089   3.384   6.158  0.2207 -0.7036 -0.4751
 4375SOL     OW18444  11.096   3.448   7.007 -0.4330 -0.1947 -0.0673
 4375SOL    HW118445  11.081   3.463   7.101 -0.5875 -0.0666 -0.1109
 4375SOL    HW218446  11.111   3.535   6.971  2.6149 -0.4594  0.3209
 4376SOL     OW18447   0.548  11.739   4.260  0.0231 -0.5742 -0.6378
 4376SOL    HW118448   0.628  11.792   4.266 -0.5243  0.2569 -0.4396
 4376SOL    HW218449   0.577  11.650   4.281  1.1860 -0.5920 -2.1364
 4377SOL     OW18450   3.447   4.272  10.003 -0.5758 -0.2145  0.0580
 4377SOL    HW118451   3.363   4.307   9.976 -0.8664 -2.0575 -1.6761
 4377SOL    HW218452   3.492   4.250   9.921  1.0438 -0.5309  0.9731
 4378SOL     OW18453  11.799   4.624   6.012  0.0160  0.2087 -0.2481
 4378SOL    HW118454  11.810   4.579   6.096  1.3401  1.6234  0.3967
 4378SOL    HW218455  11.704   4.631   6.001 -0.2043 -1.4781  0.2848
 4379SOL     OW18456   8.021  11.167   2.132  0.4141  0.1388  0.1142
 4379SOL    HW118457   8.087  11.098   2.140  0.6156  0.2409 -0.6195
 4379SOL    HW218458   8.068  11.242   2.096 -0.4576 -0.3862 -2.3191
 4380SOL     OW18459   4.810  10.225   4.505 -0.2234 -0.3095 -0.5627
 4380SOL    HW118460   4.719  10.227   4.475 -0.4499  1.6594  0.1189
 4380SOL    HW218461   4.812  10.281   4.582  1.5721 -0.3547 -0.5211
 4381SOL     OW18462   6.841  11.791   8.038  0.3883 -0.1984 -0.6532
 4381SOL    HW118463   6.838  11.778   8.133  1.1196  0.3517 -0.5446
 4381SOL    HW218464   6.900  11.723   8.006  0.2479 -0.2981 -0.7063
 4382SOL     OW18465   7.575   5.012   3.624 -0.6076  0.2987  0.6144
 4382SOL    HW118466   7.641   4.943   3.622 -0.5411  0.3733  0.1724
 4382SOL    HW218467   7.558   5.026   3.718 -0.5618 -0.2548  0.7117
 4383SOL     OW18468   3.524   2.641  10.661  0.3601  0.2394 -0.2239
 4383SOL    HW118469   3.501   2.548  10.663  0.4393  0.1600  2.9051
 4383SOL    HW218470   3.443   2.687  10.684  0.8518  0.7252  0.6146
 4384SOL     OW18471   2.908   7.975  10.880  0.0242 -0.2768  0.0901
 4384SOL    HW118472   2.988   8.005  10.924  0.3275 -1.1293  0.1353
 4384SOL    HW218473   2.837   8.016  10.930  0.3068 -1.8908  1.9714
 4385SOL     OW18474   4.488   1.396   5.943  0.0635 -0.5778  0.5134
 4385SOL    HW118475   4.434   1.473   5.926 -1.3279 -1.5179  0.4789
 4385SOL    HW218476   4.457   1.363   6.028  2.9781  0.7893  2.2336
 4386SOL     OW18477   1.223   0.054   2.417  0.2695 -0.3752  0.3152
 4386SOL    HW118478   1.262   0.109   2.349 -0.7411  0.2827  0.2539
 4386SOL    HW218479   1.254  -0.034   2.396  1.3722  0.0613  0.0294
 4387SOL     OW18480   9.808  10.789   3.424 -0.3401 -0.0189 -0.1467
 4387SOL    HW118481   9.794  10.796   3.330 -0.1176  0.9045 -0.1205
 4387SOL    HW218482   9.848  10.872   3.449 -2.8725  0.9035  1.1989
 4388SOL     OW18483   7.201   2.623   8.225  0.2446 -0.4946  0.2632
 4388SOL    HW118484   7.115   2.589   8.202  0.2721 -0.3735 -0.0301
 4388SOL    HW218485   7.263   2.571   8.173  0.2607  0.2435 -0.4857
 4389SOL     OW18486   7.864   5.938  11.248  0.0888 -0.0858 -0.1341
 4389SOL    HW118487   7.781   5.913  11.290 -1.2435 -0.0749 -2.5931
 4389SOL    HW218488   7.908   5.993  11.313 -1.4445 -0.7460  1.5512
 4390SOL     OW18489   0.464  11.302   4.356  0.3532  0.4536  0.4697
 4390SOL    HW118490   0.491  11.393   4.370 -0.4607  0.4675  2.2482
 4390SOL    HW218491   0.523  11.270   4.288  2.1257  1.6564  1.3452
 4391SOL     OW18492   1.274   1.926   8.061 -0.6294 -0.1794  0.4012
 4391SOL    HW118493   1.327   1.850   8.087 -0.5013  0.0909  0.9448
 4391SOL    HW218494   1.286   1.989   8.132 -2.7736 -0.6253  1.2509
 4392SOL     OW18495   6.792   1.779   5.633  0.3034  0.4010 -0.5859
 4392SOL    HW118496   6.793   1.867   5.596  1.1041  0.9184  0.6234
 4392SOL    HW218497   6.869   1.736   5.597  1.5866  1.1938  1.0603
 4393SOL     OW18498   8.621   4.751   3.141  0.0269  0.5013  0.0251
 4393SOL    HW118499   8.654   4.804   3.069 -0.6821  0.9741  0.0376
 4393SOL    HW218500   8.665   4.666   3.131  0.7259  0.8990 -0.3392
 4394SOL     OW18501   2.213   1.577   1.307 -0.1144 -0.1039  0.1150
 4394SOL    HW118502   2.162   1.659   1.307 -0.6957 -0.4558 -0.0846
 4394SOL    HW218503   2.226   1.557   1.215 -0.2732 -0.4181  0.1595
 4395SOL     OW18504   8.506  11.736   1.050 -0.5026 -0.3185 -0.6639
 4395SOL    HW118505   8.550  11.725   0.966 -0.5598  0.1423 -0.7607
 4395SOL    HW218506   8.418  11.700   1.036 -0.0275 -1.6727 -0.3301
 4396SOL     OW18507   3.394   8.633   0.788  0.3788  0.5280 -0.0035
 4396SOL    HW118508   3.458   8.622   0.859  0.0302  2.2721  0.6438
 4396SOL    HW218509   3.439   8.691   0.726 -0.1222  0.7920 -0.1200
 4397SOL     OW18510   6.708  10.797   5.071 -0.3539  0.2440 -0.8586
 4397SOL    HW118511   6.613  10.801   5.070 -0.4686 -1.3212 -2.7335
 4397SOL    HW218512   6.736  10.875   5.023 -0.5786  1.4357  0.8570
 4398SOL     OW18513   8.779   5.004   4.498 -0.1542 -0.2305 -0.2243
 4398SOL    HW118514   8.718   5.071   4.530  0.8731  0.3542  0.5661
 4398SOL    HW218515   8.847   5.054   4.453 -1.2918 -0.9913 -3.0332
 4399SOL     OW18516   7.214  11.027   4.543 -0.3714  0.0044 -0.4161
 4399SOL    HW118517   7.164  11.064   4.616  0.1261 -0.2104  0.0394
 4399SOL    HW218518   7.176  10.940   4.531 -0.1444 -0.1389 -0.1046
 4400SOL     OW18519   8.965   2.109  11.346  0.4711  0.2238 -0.1100
 4400SOL    HW118520   8.893   2.120  11.408 -0.1672  2.5093 -1.1516
 4400SOL    HW218521   8.924   2.078  11.266  0.7818  0.6307 -0.4297
 4401SOL     OW18522   1.132   8.416   1.548  0.0140 -0.2424  0.0645
 4401SOL    HW118523   1.055   8.430   1.602  0.7694  0.7488  0.9338
 4401SOL    HW218524   1.135   8.493   1.490  0.2693 -0.3369 -0.0504
 4402SOL     OW18525   6.034  10.126   5.743 -0.0966 -0.0335  0.2001
 4402SOL    HW118526   5.985  10.180   5.806 -1.1794 -0.8185  0.0516
 4402SOL    HW218527   6.031  10.038   5.779  2.0970  0.0307  0.6899
 4403SOL     OW18528   8.866   5.537   4.310  0.2388  0.1898 -0.3574
 4403SOL    HW118529   8.873   5.472   4.240  2.4065 -0.0782  0.0420
 4403SOL    HW218530   8.778   5.574   4.299 -1.9767 -4.0910  0.5784
 4404SOL     OW18531   2.765   6.335   5.808 -1.1747  1.0860  0.3991
 4404SOL    HW118532   2.712   6.391   5.864 -1.1618 -0.5351  2.1446
 4404SOL    HW218533   2.733   6.246   5.827  0.7297  0.2556 -0.0692
 4405SOL     OW18534   5.079  10.408   7.474  0.1528  0.4837 -0.3899
 4405SOL    HW118535   5.108  10.494   7.505 -0.9342  0.7255 -0.0003
 4405SOL    HW218536   5.149  10.348   7.500  0.9071  1.2353 -0.6244
 4406SOL     OW18537   4.425   3.658   4.233 -0.2305  0.0473 -0.0698
 4406SOL    HW118538   4.392   3.569   4.240 -1.3976  0.3368 -1.3400
 4406SOL    HW218539   4.520   3.649   4.229 -0.2550 -1.0061  1.3174
 4407SOL     OW18540   8.391   5.354   4.000 -0.1653  0.7503 -0.2032
 4407SOL    HW118541   8.413   5.439   3.963  0.7406  0.6512  0.0822
 4407SOL    HW218542   8.471   5.324   4.042 -0.9981  0.5991  1.3518
 4408SOL     OW18543   8.927   6.906   8.927 -0.2253  0.3111 -0.4359
 4408SOL    HW118544   8.903   6.932   9.015  0.5878 -0.9778  0.2003
 4408SOL    HW218545   8.937   6.811   8.932 -0.2498  0.1937 -1.9400
 4409SOL     OW18546   3.493   3.046   3.082 -0.2474 -0.0972  0.1309
 4409SOL    HW118547   3.559   3.009   3.140  0.3466  0.1182 -0.3989
 4409SOL    HW218548   3.531   3.128   3.050 -0.7266 -0.0144 -0.2546
 4410SOL     OW18549   7.782   3.593   3.323  0.0438 -0.0758 -0.4409
 4410SOL    HW118550   7.709   3.629   3.271 -1.0886 -1.0400  0.4259
 4410SOL    HW218551   7.751   3.596   3.413  1.3888  0.1617  0.0317
 4411SOL     OW18552   3.945   9.807   9.767  0.0676 -0.7874 -0.2786
 4411SOL    HW118553   4.025   9.755   9.756  0.5810  0.1936 -1.2780
 4411SOL    HW218554   3.883   9.768   9.705  0.8835  0.5947 -2.0435
 4412SOL     OW18555   8.961   5.827   1.940  0.0520 -0.2970 -0.3654
 4412SOL    HW118556   9.008   5.794   2.016  0.7774  0.1983 -0.5882
 4412SOL    HW218557   8.916   5.750   1.905 -1.8320 -0.1960  1.6152
 4413SOL     OW18558   1.872   7.066   5.026  0.9238 -0.3110  0.6045
 4413SOL    HW118559   1.887   6.972   5.036 -0.0543 -0.3893  1.5787
 4413SOL    HW218560   1.828   7.074   4.941  0.5297 -0.8046  0.7526
 4414SOL     OW18561   7.889  11.492   5.748  0.3825  1.1426  0.0437
 4414SOL    HW118562   7.895  11.402   5.780  0.1362  0.2231 -2.2553
 4414SOL    HW218563   7.810  11.527   5.789 -1.6658 -1.0099 -1.7792
 4415SOL     OW18564   3.614   6.497   8.006 -0.3563 -0.2572 -0.2571
 4415SOL    HW118565   3.644   6.588   8.002 -1.1285  0.0334  0.2104
 4415SOL    HW218566   3.694   6.446   8.013  0.0667  0.4418  0.2119
 4416SOL     OW18567   5.519  10.254   6.995  0.2352  0.1919 -0.6804
 4416SOL    HW118568   5.564  10.251   6.911 -0.0230  0.2133 -0.8202
 4416SOL    HW218569   5.460  10.179   6.993 -0.8529  1.0373 -1.1300
 4417SOL     OW18570   7.787   7.218   7.756  0.0477 -0.2964 -0.1562
 4417SOL    HW118571   7.794   7.250   7.846 -0.9238 -2.2865  0.6758
 4417SOL    HW218572   7.877   7.223   7.722  0.1583  1.9692  0.3424
 4418SOL     OW18573   9.912   9.519   6.165 -0.1272  0.6903  0.3531
 4418SOL    HW118574   9.916   9.427   6.140  0.3356  0.9261 -0.4893
 4418SOL    HW218575   9.831   9.527   6.216 -0.9059  0.0857 -0.7353
 4419SOL     OW18576  10.553   0.104   6.242 -0.1688  0.7863 -0.1979
 4419SOL    HW118577  10.537   0.027   6.297 -1.9303  1.2212 -0.0234
 4419SOL    HW218578  10.566   0.069   6.154 -2.2000  0.2929 -0.3584
 4420SOL     OW18579  11.173  10.911   0.748  0.1233 -0.3910  0.3558
 4420SOL    HW118580  11.103  10.911   0.814 -1.0901 -1.4063 -0.8771
 4420SOL    HW218581  11.197  10.819   0.738  1.0295 -0.1405  0.1226
 4421SOL     OW18582  10.778   7.338  11.359  0.3579  0.2578  0.1889
 4421SOL    HW118583  10.813   7.269  11.416  2.0794  1.6140  0.8617
 4421SOL    HW218584  10.700   7.370  11.404  1.5360  1.1168  1.7121
 4422SOL     OW18585   8.120   6.933   7.043 -0.3010 -0.3083  0.4455
 4422SOL    HW118586   8.200   6.886   7.019 -0.9671 -1.3689  0.2378
 4422SOL    HW218587   8.150   7.010   7.091  0.8188 -1.0687  0.9980
 4423SOL     OW18588  10.235   3.951   2.935  0.2187 -0.4951 -0.0984
 4423SOL    HW118589  10.274   3.879   2.984 -0.1823  0.7593  2.2123
 4423SOL    HW218590  10.310   4.003   2.906  0.4598 -1.2665 -0.9075
 4424SOL     OW18591   1.109   0.854   3.141 -0.0507 -0.1716 -0.4388
 4424SOL    HW118592   1.160   0.777   3.168 -3.0841 -2.1857  0.0573
 4424SOL    HW218593   1.135   0.922   3.203  1.6596 -1.2148  0.0646
 4425SOL     OW18594   0.796   0.406   8.470  0.2117 -0.3941 -0.1441
 4425SOL    HW118595   0.819   0.477   8.410  0.9356 -1.9144 -1.7632
 4425SOL    HW218596   0.702   0.394   8.457 -0.0755  0.7376  0.7214
 4426SOL     OW18597   5.656   7.696   0.161 -0.2304 -0.0345  0.4328
 4426SOL    HW118598   5.713   7.772   0.170  1.1808 -0.8502 -0.9382
 4426SOL    HW218599   5.656   7.656   0.248  0.4469  0.5692  0.7259
 4427SOL     OW18600   6.753   8.221   9.405  0.2140  0.3675  0.2460
 4427SOL    HW118601   6.848   8.230   9.417 -0.0148  1.7377  1.1348
 4427SOL    HW218602   6.744   8.149   9.342  1.8337  0.1472  0.2283
 4428SOL     OW18603   0.320   0.730   6.281 -0.5573 -0.3898 -0.1394
 4428SOL    HW118604   0.386   0.661   6.270  0.6013  0.4262  1.2116
 4428SOL    HW218605   0.328   0.783   6.202 -0.5566 -1.0797 -0.6089
 4429SOL     OW18606   2.015  11.216   6.135 -0.1790  0.4043 -0.2629
 4429SOL    HW118607   2.016  11.120   6.135 -0.0631  0.4007 -0.9362
 4429SOL    HW218608   2.067  11.240   6.059  0.1918  1.0125  0.1721
 4430SOL     OW18609   6.710   7.881   9.827 -0.2660  0.1050 -0.3426
 4430SOL    HW118610   6.747   7.882   9.915 -0.3113  0.7592 -0.3294
 4430SOL    HW218611   6.754   7.953   9.782 -1.0311  0.4655 -0.5253
 4431SOL     OW18612   8.632   5.375   8.524  0.3555  0.1608 -0.1258
 4431SOL    HW118613   8.630   5.415   8.437  1.8382 -0.5121 -0.4958
 4431SOL    HW218614   8.655   5.283   8.507 -1.5787 -0.5591  0.8149
 4432SOL     OW18615   1.925   8.125   9.952  0.2470 -0.4234 -0.1570
 4432SOL    HW118616   1.839   8.164   9.966  0.1645 -0.1730 -1.2111
 4432SOL    HW218617   1.923   8.042   9.998 -0.8163 -0.7433 -0.7565
 4433SOL     OW18618   8.715   4.182   9.949 -0.1103 -0.8923  0.4475
 4433SOL    HW118619   8.715   4.104  10.005  0.9139 -0.3172  1.2774
 4433SOL    HW218620   8.677   4.151   9.866 -0.0759 -2.1763  0.8804
 4434SOL     OW18621   9.023   9.095   4.978 -0.0482  0.4871 -0.3308
 4434SOL    HW118622   9.100   9.151   4.965  0.6964 -0.3561  0.2891
 4434SOL    HW218623   9.050   9.009   4.946 -0.6059  0.1003  0.2099
 4435SOL     OW18624  10.631   1.414   2.388 -0.0055  0.1372 -0.3802
 4435SOL    HW118625  10.696   1.468   2.343 -0.0756 -1.0209 -1.9674
 4435SOL    HW218626  10.551   1.466   2.385  0.3589  0.7151 -0.2521
 4436SOL     OW18627   8.634   7.561   1.140  0.1661  0.1271 -0.5821
 4436SOL    HW118628   8.544   7.531   1.126 -0.3855  0.8979  1.0059
 4436SOL    HW218629   8.625   7.647   1.182  1.6366  0.1979 -0.3375
 4437SOL     OW18630   4.574   8.074   1.374 -0.0350 -0.0100  0.1103
 4437SOL    HW118631   4.524   8.004   1.332 -2.7016  0.9200  1.4732
 4437SOL    HW218632   4.568   8.147   1.312 -1.0956  0.3367  0.6001
 4438SOL     OW18633   7.969   8.610   8.205  0.5708  0.1774  0.0476
 4438SOL    HW118634   8.041   8.573   8.256 -0.6601  0.1700  1.8570
 4438SOL    HW218635   7.898   8.546   8.214 -0.5540  1.4544  0.5858
 4439SOL     OW18636   5.231   4.791   2.833  0.4278  0.0007 -0.8359
 4439SOL    HW118637   5.249   4.873   2.788 -0.2529 -0.5846 -2.2151
 4439SOL    HW218638   5.251   4.809   2.925  0.5810  1.6013 -1.1644
 4440SOL     OW18639   0.492   1.101   1.373  0.2209  0.1548  0.9149
 4440SOL    HW118640   0.533   1.187   1.387  1.7822 -0.2377 -0.8693
 4440SOL    HW218641   0.404   1.121   1.342  0.4733  1.1246  0.7871
 4441SOL     OW18642   5.339  11.729   1.782 -0.6718  0.1955  0.3023
 4441SOL    HW118643   5.265  11.670   1.796 -1.6350  1.6813  2.0772
 4441SOL    HW218644   5.409  11.695   1.838 -0.1084 -0.9617 -1.0453
 4442SOL     OW18645   7.828   5.567   2.893  0.1402  0.2168  0.3037
 4442SOL    HW118646   7.779   5.485   2.903 -2.2116  1.3622 -0.9615
 4442SOL    HW218647   7.907   5.542   2.844  0.1468 -1.4746  1.1066
 4443SOL     OW18648   4.490   8.620  11.267 -0.6394 -0.5180  0.4921
 4443SOL    HW118649   4.512   8.696  11.321  0.1601  0.4851 -1.1686
 4443SOL    HW218650   4.483   8.548  11.330  1.0479  0.4237  1.8636
 4444SOL     OW18651  11.403   8.794   2.790 -0.4226 -0.2099 -0.0856
 4444SOL    HW118652  11.488   8.837   2.780  0.1401 -1.2451  0.0638
 4444SOL    HW218653  11.422   8.701   2.776 -1.6149 -0.4049 -0.4701
 4445SOL     OW18654   9.047  11.780   7.888 -0.5520  0.0854  0.2241
 4445SOL    HW118655   9.081  11.814   7.805 -0.3183  0.0660  0.3125
 4445SOL    HW218656   8.978  11.842   7.912 -1.4929 -0.6028 -0.6244
 4446SOL     OW18657   3.894   2.992   2.487  0.0564  0.0894  0.2389
 4446SOL    HW118658   3.887   3.037   2.402  2.9997 -0.5987 -0.4837
 4446SOL    HW218659   3.810   2.948   2.497 -0.4402  0.2831 -2.2812
 4447SOL     OW18660   9.068   8.344   6.106  0.1936  0.3240  0.3819
 4447SOL    HW118661   9.014   8.422   6.122 -0.8986  0.0602 -1.6280
 4447SOL    HW218662   9.029   8.276   6.161  0.9107  1.0525  1.8496
 4448SOL     OW18663   2.667   1.266   5.001 -0.6975  0.5501 -0.0865
 4448SOL    HW118664   2.731   1.310   4.944 -0.6715  1.3346  0.5424
 4448SOL    HW218665   2.616   1.211   4.941  1.0716 -0.7464 -0.5115
 4449SOL     OW18666  11.650   4.246   0.511 -0.3176 -0.2420  0.5956
 4449SOL    HW118667  11.640   4.340   0.529 -0.6309  0.2820 -1.9295
 4449SOL    HW218668  11.652   4.205   0.598  1.0868  2.1962  1.8254
 4450SOL     OW18669  11.787   6.008   3.454  0.7531  0.3058 -0.3890
 4450SOL    HW118670  11.759   6.098   3.471 -1.8348 -0.3422 -0.8724
 4450SOL    HW218671  11.828   5.980   3.536 -2.0257  0.6550  1.2384
 4451SOL     OW18672   9.714   9.939   3.106 -0.4159 -0.2067 -0.0981
 4451SOL    HW118673   9.646   9.992   3.145  0.0365 -0.5207  1.1578
 4451SOL    HW218674   9.796   9.983   3.128 -0.0875 -0.9473  0.2175
 4452SOL     OW18675   8.654   1.863   7.426 -0.3686 -0.2585  0.4211
 4452SOL    HW118676   8.600   1.890   7.500 -1.7433  1.1532 -1.0307
 4452SOL    HW218677   8.718   1.933   7.416 -0.2641 -0.3863  0.1997
 4453SOL     OW18678   2.595   8.574   0.533  0.3487 -0.1029  0.4478
 4453SOL    HW118679   2.527   8.511   0.508 -0.0237 -0.0335  1.2544
 4453SOL    HW218680   2.663   8.520   0.573 -0.3353  0.0527  1.9090
 4454SOL     OW18681   5.531  11.595  10.330 -0.4679  0.2917  0.0687
 4454SOL    HW118682   5.586  11.671  10.352 -0.6862  1.3753 -2.7694
 4454SOL    HW218683   5.540  11.537  10.406  1.6250  2.0672  1.3133
 4455SOL     OW18684   6.026   4.390   8.661  0.1530 -0.0280  0.6609
 4455SOL    HW118685   6.019   4.485   8.649 -3.1220 -0.3855 -1.5661
 4455SOL    HW218686   6.072   4.359   8.583 -0.3937 -0.3792  0.4683
 4456SOL     OW18687  10.883   3.725   3.197 -0.6539  0.0547 -0.1830
 4456SOL    HW118688  10.960   3.753   3.247 -1.0484  0.0231  0.4645
 4456SOL    HW218689  10.917   3.700   3.111  0.1212 -0.3800  0.2374
 4457SOL     OW18690   6.794   9.695   8.817  0.0524  0.1315  0.0427
 4457SOL    HW118691   6.835   9.771   8.777 -2.8503  0.9900 -1.6330
 4457SOL    HW218692   6.761   9.644   8.743 -0.7783 -1.1252  1.2272
 4458SOL     OW18693   1.423  11.795   9.451 -0.6424  0.2835  0.2291
 4458SOL    HW118694   1.450  11.876   9.408 -0.1705  0.0074 -0.0059
 4458SOL    HW218695   1.504  11.748   9.467 -0.8191  0.3534  1.3919
 4459SOL     OW18696   1.704   9.865   5.151 -0.3336 -0.1148 -0.5365
 4459SOL    HW118697   1.674   9.901   5.234  1.8754  0.5481  0.0228
 4459SOL    HW218698   1.744   9.781   5.173 -1.0311 -0.6286 -1.1586
 4460SOL     OW18699   0.331   2.925   1.989  0.1095  0.1124 -0.1651
 4460SOL    HW118700   0.276   2.999   2.017 -0.0364  0.5444 -1.4689
 4460SOL    HW218701   0.345   2.873   2.068 -2.3238 -0.1097  0.2033
 4461SOL     OW18702   0.861   3.602   4.848  0.2807  0.7271  0.2620
 4461SOL    HW118703   0.856   3.630   4.939 -0.0504  3.2396 -0.4405
 4461SOL    HW218704   0.778   3.630   4.809 -0.0217 -1.2421 -0.6066
 4462SOL     OW18705   3.145   0.611  10.595  0.3747 -0.3159 -0.3715
 4462SOL    HW118706   3.156   0.524  10.634 -0.0660 -0.8244 -1.3220
 4462SOL    HW218707   3.098   0.594  10.513  0.5829  0.7877 -0.7361
 4463SOL     OW18708   0.534   3.701   5.611  0.4093 -0.6633 -0.0020
 4463SOL    HW118709   0.448   3.730   5.642  0.8932  0.6183  0.2097
 4463SOL    HW218710   0.585   3.782   5.603  1.7897 -1.4572  0.4860
 4464SOL     OW18711   8.932   2.410   3.317 -0.0649  0.5346 -0.3600
 4464SOL    HW118712   8.953   2.422   3.224  0.4086  1.5595 -0.1319
 4464SOL    HW218713   8.977   2.329   3.341  0.2062  0.5171 -0.9119
 4465SOL     OW18714   4.721   3.748   5.206 -0.0674  0.1927 -0.1857
 4465SOL    HW118715   4.642   3.745   5.261 -0.3921 -2.7378 -0.6045
 4465SOL    HW218716   4.790   3.710   5.261  1.1351  2.6730  0.1599
 4466SOL     OW18717   6.302   9.843   9.788  0.0470  0.0810  0.2256
 4466SOL    HW118718   6.236   9.910   9.774 -0.9638 -0.0914  3.4225
 4466SOL    HW218719   6.382   9.893   9.810 -0.1635  0.2652  0.5827
 4467SOL     OW18720   2.478   6.143   9.243 -0.0294 -0.6687  0.5786
 4467SOL    HW118721   2.483   6.085   9.167  1.4373  0.2622 -0.0880
 4467SOL    HW218722   2.458   6.229   9.205  2.3237  0.1458  0.9905
 4468SOL     OW18723   0.740   3.970   1.516  0.1407 -0.3660 -0.6396
 4468SOL    HW118724   0.718   4.063   1.521  0.7529 -0.1754 -1.2905
 4468SOL    HW218725   0.729   3.938   1.606 -3.0603 -0.4070 -0.9322
 4469SOL     OW18726   3.612   8.606   4.183  0.1340 -0.1977  0.0835
 4469SOL    HW118727   3.528   8.574   4.150  0.7640 -0.9075 -0.8900
 4469SOL    HW218728   3.661   8.527   4.205  1.1766  0.1274 -0.9842
 4470SOL     OW18729   3.329   7.414   9.542  0.3038 -0.6175 -0.0836
 4470SOL    HW118730   3.315   7.409   9.636  2.7309 -0.9541  0.3191
 4470SOL    HW218731   3.323   7.508   9.522  0.5849 -0.4591  0.5467
 4471SOL     OW18732   3.379   0.645   1.137 -0.1945 -0.9470  0.2675
 4471SOL    HW118733   3.417   0.637   1.225 -0.7350 -1.9336  0.4288
 4471SOL    HW218734   3.433   0.587   1.083  2.0560  1.8637 -0.7783
 4472SOL     OW18735   8.789   9.068   5.109 -0.3268  0.5249  0.7753
 4472SOL    HW118736   8.818   9.040   5.195 -0.4036 -1.7060  0.1284
 4472SOL    HW218737   8.871   9.078   5.059 -0.3524  0.2742  0.6800
 4473SOL     OW18738  11.729   0.439   5.133 -0.2329 -0.1671 -0.2126
 4473SOL    HW118739  11.813   0.483   5.144 -0.4550 -0.1846  1.8919
 4473SOL    HW218740  11.750   0.357   5.089  0.7451  0.1696 -0.3842
 4474SOL     OW18741   0.824   1.603   7.319  0.0583  0.2497  0.1561
 4474SOL    HW118742   0.748   1.624   7.264  1.4381  0.0916 -1.9469
 4474SOL    HW218743   0.819   1.508   7.331  0.3125  0.1289 -0.6280
 4475SOL     OW18744  10.529   7.635   8.707 -0.1624 -0.1531  0.8367
 4475SOL    HW118745  10.619   7.658   8.685 -0.3650  1.4387  1.5696
 4475SOL    HW218746  10.485   7.719   8.721 -1.8513 -0.8909  0.1860
 4476SOL     OW18747  10.757  10.740  11.719 -0.1231 -0.1006 -0.3664
 4476SOL    HW118748  10.777  10.666  11.776  0.1133  0.3057  0.0787
 4476SOL    HW218749  10.663  10.731  11.701 -0.1372 -0.3935 -0.1577
 4477SOL     OW18750   8.324   9.713   9.468 -0.2605 -0.0471  0.1906
 4477SOL    HW118751   8.259   9.658   9.511  0.0465  0.0908  0.8477
 4477SOL    HW218752   8.406   9.664   9.478  0.0538  0.6143  0.9683
 4478SOL     OW18753  11.575   4.383   4.420  0.3103  0.0940 -0.1135
 4478SOL    HW118754  11.606   4.454   4.477  2.8117 -0.4567 -0.6374
 4478SOL    HW218755  11.501   4.420   4.372  1.3951  2.2861 -0.2080
 4479SOL     OW18756   4.070   9.093   1.068  0.2515 -0.0800  0.1078
 4479SOL    HW118757   4.026   9.175   1.044  0.1253  0.4339  1.8988
 4479SOL    HW218758   4.014   9.024   1.032 -1.2586  0.5957  1.0348
 4480SOL     OW18759   7.614   7.840   4.754  0.4578 -0.3488  0.1171
 4480SOL    HW118760   7.630   7.921   4.705 -2.4369  0.2218 -0.0500
 4480SOL    HW218761   7.563   7.786   4.693 -0.8774 -0.7334  1.5317
 4481SOL     OW18762  10.159  10.957  10.087 -0.2758  0.0134 -0.2694
 4481SOL    HW118763  10.235  11.008  10.117  1.7986 -1.1273 -3.1241
 4481SOL    HW218764  10.092  11.022  10.071 -0.9053  0.9086  4.3826
 4482SOL     OW18765   3.048  10.540  10.584 -0.2788 -0.6195 -0.4379
 4482SOL    HW118766   3.011  10.624  10.609  0.6198 -0.6128  0.9683
 4482SOL    HW218767   3.003  10.476  10.639 -0.0756 -0.9043 -0.5998
 4483SOL     OW18768   5.657   5.557   0.280 -0.3032  0.1067  0.3730
 4483SOL    HW118769   5.702   5.576   0.198 -0.5987 -1.9946 -0.3137
 4483SOL    HW218770   5.564   5.570   0.260 -0.5100 -1.8661 -0.1052
 4484SOL     OW18771   4.829   7.122   3.102  0.2297  0.0687  0.2542
 4484SOL    HW118772   4.828   7.027   3.091  0.6152  0.0732  0.1732
 4484SOL    HW218773   4.780   7.155   3.026 -0.4580 -0.0901  0.6166
 4485SOL     OW18774   8.988   0.704   6.742 -0.0255 -0.1411  0.1381
 4485SOL    HW118775   8.973   0.753   6.823 -1.1376  1.2913 -0.8780
 4485SOL    HW218776   8.916   0.641   6.738 -0.3139  0.1990 -0.0300
 4486SOL     OW18777  11.722   8.365   4.564 -0.2049 -0.0718 -0.0740
 4486SOL    HW118778  11.708   8.425   4.637 -0.1459 -0.3096  0.1367
 4486SOL    HW218779  11.638   8.322   4.551 -0.1555 -0.1928  0.0027
 4487SOL     OW18780   1.126   4.443   4.144  0.1107 -0.3862 -0.0690
 4487SOL    HW118781   1.201   4.501   4.158 -0.8452  0.7265  0.6059
 4487SOL    HW218782   1.120   4.391   4.224 -2.2994  2.4563  1.8017
 4488SOL     OW18783   1.677   0.697   9.950 -0.0034 -0.4047  0.1390
 4488SOL    HW118784   1.659   0.748  10.029 -0.3657  0.7501 -0.6781
 4488SOL    HW218785   1.772   0.684   9.951  0.6628  3.3285 -1.4088
 4489SOL     OW18786   9.258   4.642   6.923 -0.0364  0.1166 -0.4146
 4489SOL    HW118787   9.262   4.561   6.974 -1.0135 -0.2894 -0.9641
 4489SOL    HW218788   9.323   4.699   6.964  0.2778 -0.7489  0.3210
 4490SOL     OW18789   2.788   4.531   3.825 -0.1639  0.4051 -0.0654
 4490SOL    HW118790   2.725   4.555   3.757  1.4552  0.3816 -1.6330
 4490SOL    HW218791   2.735   4.518   3.903 -1.9965  1.2283 -1.1194
 4491SOL     OW18792  11.816   4.297   4.309 -0.3845  0.1730 -0.2874
 4491SOL    HW118793  11.729   4.310   4.347 -0.3499  1.3126 -0.5578
 4491SOL    HW218794  11.827   4.371   4.249  0.3918 -0.4712 -0.9716
 4492SOL     OW18795   2.283   3.051   0.259  0.3498 -0.2360 -0.0516
 4492SOL    HW118796   2.315   3.115   0.195  1.2614 -0.7102 -0.0896
 4492SOL    HW218797   2.202   3.018   0.221 -0.8096  1.7610  0.5422
 4493SOL     OW18798   7.072   8.019   2.435  0.2454  0.1297 -0.1983
 4493SOL    HW118799   7.097   7.949   2.374  0.7570  0.3206 -0.2094
 4493SOL    HW218800   7.155   8.053   2.468  0.1043  2.0928 -1.7307
 4494SOL     OW18801   7.489   5.459  10.044  0.1675  0.4487 -0.1131
 4494SOL    HW118802   7.544   5.505  10.107 -0.0274  0.9033 -0.2718
 4494SOL    HW218803   7.525   5.370  10.041  1.2631  0.9055 -0.6773
 4495SOL     OW18804  11.403   2.196   4.506  0.6968 -0.4512  0.2060
 4495SOL    HW118805  11.309   2.177   4.512  0.5615  0.0974 -0.1796
 4495SOL    HW218806  11.429   2.215   4.596  0.3143 -0.0223  0.2291
 4496SOL     OW18807   6.553  10.801   1.953 -0.2868 -0.0080  0.0756
 4496SOL    HW118808   6.494  10.735   1.990 -2.5334  2.2199  0.7872
 4496SOL    HW218809   6.597  10.839   2.029  0.9877 -0.6201 -0.3271
 4497SOL     OW18810  10.401  11.060   5.881  0.4356  0.1684  0.0756
 4497SOL    HW118811  10.454  11.063   5.801  0.0088  0.2857 -0.2025
 4497SOL    HW218812  10.365  10.971   5.883 -0.0775  0.3704 -0.2010
 4498SOL     OW18813   6.384   5.745  10.173  0.5185  0.0288  0.8458
 4498SOL    HW118814   6.365   5.707  10.259  0.8286 -2.7895 -0.2347
 4498SOL    HW218815   6.479   5.757  10.172  0.3668  1.5879  1.4080
 4499SOL     OW18816   5.448   2.138  11.749 -0.0409  0.6821  0.1477
 4499SOL    HW118817   5.498   2.086  11.812  0.5856 -1.1087 -1.7323
 4499SOL    HW218818   5.509   2.205  11.719 -0.0210  0.8889  0.6289
 4500SOL     OW18819   0.330   6.415  10.035 -0.0126 -0.2726 -0.0557
 4500SOL    HW118820   0.384   6.493  10.026 -1.9239  0.8806 -3.0639
 4500SOL    HW218821   0.255   6.443  10.087  0.2067 -0.6669  0.4811
 4501SOL     OW18822   7.760   7.622   5.144 -0.5497  0.2136 -0.1337
 4501SOL    HW118823   7.841   7.571   5.146 -1.6128 -1.5214  1.1384
 4501SOL    HW218824   7.752   7.658   5.232 -1.5882 -0.3471  0.0111
 4502SOL     OW18825   6.394   4.704   4.120  0.0360  0.0257 -0.9880
 4502SOL    HW118826   6.323   4.767   4.108 -1.1525 -1.3670 -1.5732
 4502SOL    HW218827   6.374   4.661   4.204 -0.2749 -0.8824 -1.5032
 4503SOL     OW18828   2.473   6.112  10.576 -0.0437  0.1806 -0.0228
 4503SOL    HW118829   2.511   6.154  10.499 -0.3678  0.3708 -0.0807
 4503SOL    HW218830   2.447   6.185  10.633 -0.4489  0.0584 -0.0465
 4504SOL     OW18831  10.505   6.688   2.246 -0.2007 -0.3609  0.3544
 4504SOL    HW118832  10.464   6.742   2.313 -1.2734 -0.8980  0.1597
 4504SOL    HW218833  10.584   6.653   2.287 -0.2906  0.1665  0.9708
 4505SOL     OW18834  10.955   5.564   9.981 -0.3867 -0.3351  0.0939
 4505SOL    HW118835  11.003   5.488  10.013 -0.2777 -0.1848  0.2904
 4505SOL    HW218836  10.920   5.537   9.896 -0.4732 -0.6534  0.2310
 4506SOL     OW18837   8.533  10.570  11.451 -0.2775 -0.1959 -0.0597
 4506SOL    HW118838   8.551  10.585  11.544 -0.8500 -2.0121  0.3801
 4506SOL    HW218839   8.528  10.475  11.443  2.1364 -0.2483 -2.4039
 4507SOL     OW18840   2.152   6.355   0.552  0.1526  0.2362 -0.2716
 4507SOL    HW118841   2.140   6.438   0.600 -2.0294 -0.3188  0.2328
 4507SOL    HW218842   2.127   6.375   0.462 -0.9933  0.0047 -0.0188
 4508SOL     OW18843   8.707   5.213   2.524 -0.2861  0.4825  0.4995
 4508SOL    HW118844   8.689   5.121   2.508 -0.8676  0.3079  1.9930
 4508SOL    HW218845   8.693   5.255   2.440  2.6432 -1.1334 -0.9068
 4509SOL     OW18846  10.024  11.186   9.660 -0.5149 -0.0303  0.4623
 4509SOL    HW118847   9.932  11.163   9.650 -0.7979  1.5617 -0.9666
 4509SOL    HW218848  10.024  11.282   9.669  1.0828  0.1531 -1.0904
 4510SOL     OW18849   8.193  10.761   1.060  0.3970  0.3385 -0.0676
 4510SOL    HW118850   8.192  10.819   0.984  0.5551 -0.6529 -0.8504
 4510SOL    HW218851   8.118  10.703   1.047 -0.2661  0.8866  1.1374
 4511SOL     OW18852   3.609   6.493   3.781  0.3831  0.5229 -0.4005
 4511SOL    HW118853   3.519   6.515   3.756  0.3006 -0.1720 -0.7447
 4511SOL    HW218854   3.600   6.414   3.835  0.9062 -0.6823 -1.9985
 4512SOL     OW18855   6.010   6.479  10.684 -0.0540 -0.0889 -0.3679
 4512SOL    HW118856   5.955   6.530  10.744  1.2034  0.1852  0.5761
 4512SOL    HW218857   6.067   6.428  10.740  0.9956 -0.0127 -1.3260
 4513SOL     OW18858   3.027   6.414   9.044 -0.2982  0.1779 -0.7276
 4513SOL    HW118859   3.025   6.423   8.949 -0.2973 -0.9645 -0.8491
 4513SOL    HW218860   3.115   6.384   9.064  0.0590  1.4577 -0.2391
 4514SOL     OW18861   0.240   6.313   3.233 -0.0464  0.1646 -0.2159
 4514SOL    HW118862   0.292   6.315   3.153  0.4260 -2.2891 -0.0496
 4514SOL    HW218863   0.173   6.246   3.216  0.0436 -0.3674  1.3910
 4515SOL     OW18864  11.528   7.664   2.967  0.2599  0.4131 -0.5396
 4515SOL    HW118865  11.591   7.699   3.030  0.8871 -1.2932 -0.1669
 4515SOL    HW218866  11.580   7.612   2.907 -0.7206 -0.7642 -0.4225
 4516SOL     OW18867   3.496   7.467   2.168  0.0282  0.1247  0.4462
 4516SOL    HW118868   3.587   7.445   2.146 -0.8849 -3.7526 -0.1691
 4516SOL    HW218869   3.454   7.481   2.083 -0.7712 -2.2641  0.3878
 4517SOL     OW18870   6.985   3.966   4.482 -0.1793 -0.1434 -0.3606
 4517SOL    HW118871   6.939   3.918   4.551  0.8140 -0.2806  0.2420
 4517SOL    HW218872   7.078   3.959   4.507  0.0298  1.6780 -0.5298
 4518SOL     OW18873   4.607   9.201   8.618  0.2914 -0.1584 -0.4462
 4518SOL    HW118874   4.651   9.278   8.584  1.1434 -0.1105  0.6898
 4518SOL    HW218875   4.517   9.229   8.633  0.5211  0.5334 -0.3183
 4519SOL     OW18876   4.446   2.040   1.959  0.4120  0.3533 -0.2285
 4519SOL    HW118877   4.467   2.116   2.013 -1.1122  0.6523  0.0004
 4519SOL    HW218878   4.387   2.074   1.892  1.6741 -0.1703 -1.6427
 4520SOL     OW18879   5.658   0.183   7.128  0.0258  0.1641 -0.4592
 4520SOL    HW118880   5.708   0.245   7.074  1.7288 -0.3749  0.4222
 4520SOL    HW218881   5.598   0.141   7.067 -0.0816  1.5702 -1.3674
 4521SOL     OW18882   7.366   6.016   3.699 -0.1864 -0.1302 -0.6668
 4521SOL    HW118883   7.383   5.925   3.724  2.4991  0.2628 -0.7747
 4521SOL    HW218884   7.360   6.063   3.782 -1.4904 -0.3703 -0.6128
 4522SOL     OW18885   8.341   4.534   5.097 -0.6896 -0.0513 -0.2787
 4522SOL    HW118886   8.314   4.448   5.127 -1.0294  0.2271  0.2113
 4522SOL    HW218887   8.307   4.595   5.162  0.2464  0.3895 -0.1875
 4523SOL     OW18888   1.372   2.089  11.615  0.5785 -0.6748 -0.6466
 4523SOL    HW118889   1.323   2.049  11.686  1.0347  0.3776  0.2875
 4523SOL    HW218890   1.305   2.132  11.561  0.3629 -0.2614 -0.0507
 4524SOL     OW18891   7.057   1.232   0.684 -0.1618  0.0054 -0.2608
 4524SOL    HW118892   6.961   1.223   0.683 -0.4475  1.8728  1.7020
 4524SOL    HW218893   7.085   1.176   0.757 -0.0041  0.9510  0.4206
 4525SOL     OW18894   9.146   2.202   9.751 -0.1939 -0.4821  0.1827
 4525SOL    HW118895   9.198   2.280   9.769  1.1547 -1.3927  0.3289
 4525SOL    HW218896   9.056   2.229   9.771  0.4158  0.6015  1.7009
 4526SOL     OW18897   4.486   9.618   0.386 -0.7329  0.3102  0.5247
 4526SOL    HW118898   4.462   9.687   0.448  0.8340  2.1041 -0.7759
 4526SOL    HW218899   4.466   9.537   0.433 -0.7611  1.5844  2.8907
 4527SOL     OW18900   0.630   1.809  10.262  0.3493  0.6619 -0.6435
 4527SOL    HW118901   0.691   1.809  10.189  1.7759 -0.0199  0.4985
 4527SOL    HW218902   0.649   1.891  10.309  0.3123  0.5105 -0.3589
 4528SOL     OW18903   8.001   6.418   1.817  0.1209 -0.0584 -0.1208
 4528SOL    HW118904   7.907   6.431   1.816  0.1761  0.5589  1.1565
 4528SOL    HW218905   8.038   6.504   1.795  0.4035 -0.4102 -1.1097
 4529SOL     OW18906   9.752   4.051   2.341 -0.0067  0.4118  0.1733
 4529SOL    HW118907   9.730   4.143   2.329  1.9340  1.2244  2.1324
 4529SOL    HW218908   9.834   4.039   2.293 -1.5427 -1.1038 -2.3478
 4530SOL     OW18909   9.342   1.996   3.501 -0.1313  0.0968  0.3313
 4530SOL    HW118910   9.251   1.971   3.517  0.1321 -0.9216  0.2799
 4530SOL    HW218911   9.353   1.987   3.406 -0.3288  1.4727  0.1552
 4531SOL     OW18912   1.674   4.723   4.092 -0.4474 -0.2562 -0.2621
 4531SOL    HW118913   1.580   4.721   4.110 -0.3640  2.9969  1.2678
 4531SOL    HW218914   1.713   4.677   4.167 -0.7469  1.0052  0.7086
 4532SOL     OW18915   0.583   1.288  10.028  0.5306  0.2696  0.0143
 4532SOL    HW118916   0.575   1.302   9.934 -0.8668  0.6385  0.1765
 4532SOL    HW218917   0.642   1.358  10.058 -0.2100  1.0683 -0.3649
 4533SOL     OW18918  10.124   5.000   3.899  0.7699  0.0982  0.2098
 4533SOL    HW118919  10.029   5.011   3.904  0.6407 -1.5571  2.5491
 4533SOL    HW218920  10.153   5.075   3.847 -1.7566  0.8294 -0.3036
 4534SOL     OW18921   6.856   3.086   7.465 -0.1338 -0.2913  0.5832
 4534SOL    HW118922   6.815   3.115   7.383  1.0524  1.0217  0.4170
 4534SOL    HW218923   6.944   3.059   7.439  0.9880  2.0573  1.6476
 4535SOL     OW18924  11.361   9.597   6.032  0.9074 -0.3964  0.2276
 4535SOL    HW118925  11.377   9.621   5.941  0.3938 -2.8088 -0.5626
 4535SOL    HW218926  11.447   9.574   6.067  1.0975  0.4859  0.3640
 4536SOL     OW18927   3.181  10.347   6.874 -0.0342  0.1122  0.3666
 4536SOL    HW118928   3.258  10.361   6.819  0.6430 -0.1113  1.2348
 4536SOL    HW218929   3.107  10.365   6.817  0.6512 -0.1588 -0.6224
 4537SOL     OW18930   4.180   9.845  10.942  0.3849  0.4014  0.3474
 4537SOL    HW118931   4.229   9.787  10.884  1.8449  1.4216  0.5113
 4537SOL    HW218932   4.095   9.802  10.953  0.4728 -0.3845 -1.6205
 4538SOL     OW18933   8.922   9.788   9.954  0.1203 -0.4385  0.6516
 4538SOL    HW118934   8.912   9.879   9.984  0.3664 -0.5970  1.2247
 4538SOL    HW218935   8.932   9.795   9.859 -1.7435 -0.0041  0.4523
 4539SOL     OW18936   9.547   5.870   3.520  0.1143 -0.2547  0.1109
 4539SOL    HW118937   9.597   5.866   3.602 -0.9239 -0.6494  0.7477
 4539SOL    HW218938   9.608   5.907   3.457  0.5334  1.3803  1.3849
 4540SOL     OW18939   4.182  11.120   1.078  0.0038  0.0475  0.5714
 4540SOL    HW118940   4.254  11.105   1.139  0.1801 -0.0850  0.3275
 4540SOL    HW218941   4.207  11.199   1.030 -0.2472  0.2900  0.8372
 4541SOL     OW18942   0.100  11.322  10.365 -0.3800 -0.4395 -0.2824
 4541SOL    HW118943   0.022  11.283  10.404 -0.6191  0.9974  0.8003
 4541SOL    HW218944   0.170  11.302  10.427 -0.4014  0.3482  0.0071
 4542SOL     OW18945   8.474   8.166   9.990 -0.1310 -0.0658  0.1498
 4542SOL    HW118946   8.383   8.194   9.983 -0.8739 -2.3742 -0.1600
 4542SOL    HW218947   8.473   8.094  10.054  1.6302  0.3990  0.7819
 4543SOL     OW18948   7.765   2.456   3.053 -0.1148  0.4118 -0.0819
 4543SOL    HW118949   7.780   2.368   3.020  2.7543  0.5017  0.7170
 4543SOL    HW218950   7.735   2.505   2.976 -1.3360 -1.1150 -0.6285
 4544SOL     OW18951   3.204   1.138   7.159 -0.2263  0.5803 -0.2703
 4544SOL    HW118952   3.295   1.166   7.151  0.0678 -0.3372 -0.2155
 4544SOL    HW218953   3.181   1.156   7.250  0.5464 -1.0211  0.2818
 4545SOL     OW18954   8.828   3.223   5.004 -0.2580 -0.5606 -0.5507
 4545SOL    HW118955   8.864   3.141   5.038 -0.3524 -0.0103  0.9563
 4545SOL    HW218956   8.776   3.197   4.928 -0.8577 -1.9998  0.3093
 4546SOL     OW18957   8.188   4.181   2.687 -0.6118 -0.3943  0.2798
 4546SOL    HW118958   8.186   4.172   2.782 -2.4026  1.2738  0.4632
 4546SOL    HW218959   8.168   4.093   2.654 -2.9802 -0.4005  1.5297
 4547SOL     OW18960   3.684  10.693   4.927 -0.0885 -0.2757 -0.0133
 4547SOL    HW118961   3.639  10.614   4.956  1.3086 -0.7247  1.0721
 4547SOL    HW218962   3.776  10.678   4.950 -0.0698  2.6117  2.5229
 4548SOL     OW18963  11.275  11.488   0.839 -0.9066  0.3132  0.4132
 4548SOL    HW118964  11.243  11.578   0.837  0.1889  0.7248  0.4599
 4548SOL    HW218965  11.370  11.497   0.850 -0.4302 -0.7777 -2.1661
 4549SOL     OW18966   3.166   7.128   4.737 -0.4648  0.2931  0.3530
 4549SOL    HW118967   3.240   7.149   4.680 -1.7605  2.0991 -0.7687
 4549SOL    HW218968   3.157   7.032   4.730  1.0556  0.1675 -0.3440
 4550SOL     OW18969   2.885   3.305   5.070 -0.3920  0.0469 -0.2831
 4550SOL    HW118970   2.834   3.265   4.999  1.0016 -0.6783 -0.8991
 4550SOL    HW218971   2.836   3.282   5.149 -1.9143  0.7768 -0.9554
 4551SOL     OW18972   2.256   4.281   2.078  0.2408 -0.3364 -0.0561
 4551SOL    HW118973   2.232   4.328   1.998  2.3947  1.8618  0.4726
 4551SOL    HW218974   2.179   4.289   2.134 -0.6186 -0.2742 -1.2038
 4552SOL     OW18975  11.072  10.638   5.347  0.3093  0.2975 -0.3339
 4552SOL    HW118976  10.997  10.614   5.401  1.0601 -0.8492  0.2641
 4552SOL    HW218977  11.041  10.709   5.292 -1.6824 -1.1986 -1.2447
 4553SOL     OW18978   3.841   9.748   2.466 -0.1666 -0.5611 -0.2250
 4553SOL    HW118979   3.746   9.749   2.477 -0.1650 -1.9725 -0.0036
 4553SOL    HW218980   3.856   9.702   2.384  0.3073  0.5449 -0.7861
 4554SOL     OW18981   0.973   4.626   9.942 -0.5390 -0.7914 -0.3084
 4554SOL    HW118982   0.942   4.641  10.032 -0.1873 -0.2484 -0.2709
 4554SOL    HW218983   0.931   4.544   9.916  0.6567 -1.8408  0.9321
 4555SOL     OW18984   8.380   3.652  11.301 -0.2190 -0.0722  0.2146
 4555SOL    HW118985   8.299   3.696  11.326 -0.1801  1.0910 -1.5303
 4555SOL    HW218986   8.449   3.716  11.321  0.1918 -0.7258  0.9117
 4556SOL     OW18987  11.143   1.776   4.684 -0.2559 -0.3828 -0.2104
 4556SOL    HW118988  11.229   1.735   4.695 -0.6454 -1.1783 -0.0661
 4556SOL    HW218989  11.136   1.793   4.590  0.1066 -0.1912 -0.2069
 4557SOL     OW18990   7.097   1.238   3.191  0.2194  0.1064  0.0947
 4557SOL    HW118991   7.161   1.250   3.121 -0.6852 -0.4514 -0.8678
 4557SOL    HW218992   7.016   1.215   3.145 -1.3694  3.2219  1.0803
 4558SOL     OW18993   8.957   4.710  11.121 -0.3377 -0.6736 -0.1907
 4558SOL    HW118994   8.903   4.780  11.083 -0.8048 -0.5635  0.6662
 4558SOL    HW218995   8.894   4.650  11.160  0.1701 -0.4683  0.9580
 4559SOL     OW18996   2.430   3.204   0.082  0.0235  0.1617  0.1442
 4559SOL    HW118997   2.452   3.139   0.015  1.1117 -0.3197  0.9298
 4559SOL    HW218998   2.418   3.286   0.034  2.4270  0.2017 -0.5013
 4560SOL     OW18999   8.564   1.402  10.777  0.5856 -0.4669 -0.4221
 4560SOL    HW119000   8.511   1.455  10.836 -0.6807 -0.0873 -1.8447
 4560SOL    HW219001   8.522   1.316  10.778  2.1683 -1.3006  1.2636
 4561SOL     OW19002   8.345   2.444   9.509 -0.2463 -0.1090 -0.1590
 4561SOL    HW119003   8.337   2.375   9.444  0.1240 -0.2971 -0.0131
 4561SOL    HW219004   8.345   2.526   9.458  1.5416 -0.3124 -0.5502
 4562SOL     OW19005   8.647  10.354   2.206  0.0196 -0.0060  0.2470
 4562SOL    HW119006   8.718  10.388   2.152  0.6025  1.1886  1.7002
 4562SOL    HW219007   8.689  10.327   2.287 -0.9751 -0.7973  0.5250
 4563SOL     OW19008   5.233   7.480   5.658  0.1203 -0.2471 -0.4295
 4563SOL    HW119009   5.295   7.408   5.656  0.5170  0.1028 -0.7563
 4563SOL    HW219010   5.147   7.438   5.646 -0.0179 -1.0561  2.5640
 4564SOL     OW19011   9.450   1.780   0.559 -0.5467 -0.1308 -0.1227
 4564SOL    HW119012   9.441   1.717   0.487  1.1988  1.3272 -1.7408
 4564SOL    HW219013   9.538   1.765   0.593 -0.9357 -0.0175  0.9508
 4565SOL     OW19014   6.840   3.234  10.230 -0.1193  0.3543  0.2895
 4565SOL    HW119015   6.870   3.144  10.245 -0.5491 -0.3193 -2.2596
 4565SOL    HW219016   6.756   3.239  10.275 -0.0009 -0.4552  0.6265
 4566SOL     OW19017   8.227   9.784   1.384 -0.3830  0.0444  0.0010
 4566SOL    HW119018   8.319   9.811   1.383 -0.4187  0.2670 -2.2146
 4566SOL    HW219019   8.179   9.865   1.402 -0.1522 -0.4802  3.7749
 4567SOL     OW19020   3.034   3.946   2.904 -0.1270 -0.2428  0.5391
 4567SOL    HW119021   3.023   3.851   2.897  0.3237 -0.2249 -0.5898
 4567SOL    HW219022   3.128   3.960   2.901 -0.2315  0.3246 -0.7522
 4568SOL     OW19023   5.038   4.950   2.178 -0.2788 -0.3931 -0.0295
 4568SOL    HW119024   4.996   5.005   2.245  0.2530 -1.2494  1.0426
 4568SOL    HW219025   4.977   4.951   2.104 -1.7412 -0.8474  1.1242
 4569SOL     OW19026   0.237   8.937   2.175 -0.6429 -0.1389  0.4131
 4569SOL    HW119027   0.175   8.867   2.153 -1.4591  0.5420  0.4752
 4569SOL    HW219028   0.320   8.909   2.137 -1.0785 -0.8874 -0.0119
 4570SOL     OW19029   8.430   4.025  10.827  0.1339  0.0419 -0.1786
 4570SOL    HW119030   8.351   4.031  10.773  0.3379 -0.3871 -0.5256
 4570SOL    HW219031   8.495   3.984  10.771  0.4932  0.0396  0.2340
 4571SOL     OW19032   9.835   9.420   0.956 -0.3714  0.4284  0.2636
 4571SOL    HW119033   9.751   9.377   0.974  0.4006 -1.9620 -1.3751
 4571SOL    HW219034   9.900   9.365   1.001  0.4406  1.6679  0.6682
 4572SOL     OW19035   0.862   9.215   8.404 -0.2423 -0.6211  0.3586
 4572SOL    HW119036   0.800   9.285   8.422 -0.6543 -1.0885  0.7677
 4572SOL    HW219037   0.941   9.260   8.374 -0.0320  0.1156  1.8989
 4573SOL     OW19038   5.627   2.967   1.846 -0.4865 -0.2593 -0.3931
 4573SOL    HW119039   5.704   2.974   1.790 -0.2304 -2.2905 -0.3694
 4573SOL    HW219040   5.631   3.045   1.902  0.5329  0.6001 -1.5806
 4574SOL     OW19041   0.396   6.278   7.964 -0.2144  0.4380  0.2557
 4574SOL    HW119042   0.438   6.337   8.027 -1.2802  1.8224 -0.2847
 4574SOL    HW219043   0.332   6.229   8.016 -0.2742  0.7363  0.4685
 4575SOL     OW19044   5.045   4.165   3.003 -0.0935 -0.2632  0.5411
 4575SOL    HW119045   5.047   4.259   2.983 -0.0937 -0.0287  1.5668
 4575SOL    HW219046   5.119   4.128   2.955  0.1925  0.3461  0.5051
 4576SOL     OW19047   5.791  10.938   4.256 -0.2999  0.1970  0.2891
 4576SOL    HW119048   5.856  10.897   4.199 -0.7150  0.8362 -0.6707
 4576SOL    HW219049   5.831  10.937   4.343  1.2345  1.0786 -0.3720
 4577SOL     OW19050  11.463   5.823   0.601  0.3503 -0.0640  0.3108
 4577SOL    HW119051  11.379   5.863   0.620 -1.0746 -2.6513 -0.1089
 4577SOL    HW219052  11.469   5.824   0.505  0.6528 -0.1681  0.3261
 4578SOL     OW19053   1.193   9.087   2.896  0.3049 -0.3942 -0.0639
 4578SOL    HW119054   1.109   9.107   2.856  0.0997 -0.2695  0.4212
 4578SOL    HW219055   1.258   9.111   2.829 -0.0294 -0.1575 -0.3052
 4579SOL     OW19056   2.202   1.505  10.065 -0.4389 -0.2870  0.3333
 4579SOL    HW119057   2.215   1.437  10.131  0.0977 -1.5398 -0.9953
 4579SOL    HW219058   2.141   1.466  10.002  2.2044 -0.8957 -2.1061
 4580SOL     OW19059   5.823   2.440   1.016  0.2633  0.2375 -0.0804
 4580SOL    HW119060   5.727   2.449   1.014 -0.0066 -1.7680  1.3335
 4580SOL    HW219061   5.847   2.414   0.928 -0.4623  0.8378 -0.4704
 4581SOL     OW19062   7.898   0.359   5.618 -0.0595  0.0021  0.2014
 4581SOL    HW119063   7.874   0.302   5.545 -3.0511 -3.3712  3.3298
 4581SOL    HW219064   7.974   0.316   5.658 -0.9901 -0.6433  1.3386
 4582SOL     OW19065  10.171   2.416  11.678 -0.6486 -0.1573  0.0012
 4582SOL    HW119066  10.193   2.448  11.766  0.7878 -2.4925  0.5748
 4582SOL    HW219067  10.077   2.430  11.670 -0.8527 -0.1286  2.0281
 4583SOL     OW19068   5.063   0.024  11.572 -0.5983 -0.1800 -0.4423
 4583SOL    HW119069   5.017  -0.059  11.558 -1.9172  0.3030  0.7347
 4583SOL    HW219070   4.994   0.091  11.570  0.2203  0.7160  0.1424
 4584SOL     OW19071   0.110   6.526   4.378  0.8376 -0.0815  0.0548
 4584SOL    HW119072   0.122   6.620   4.365  0.5063  0.2969  2.1784
 4584SOL    HW219073   0.084   6.517   4.469 -1.4675 -2.0375 -0.6806
 4585SOL     OW19074   2.277   6.938   0.898  0.2159  0.0041  0.1774
 4585SOL    HW119075   2.248   6.944   0.989 -1.8452 -0.9538 -0.3670
 4585SOL    HW219076   2.367   6.905   0.903  0.5086  0.9807  1.8793
 4586SOL     OW19077  11.764   4.921   7.041  0.7041  0.1288 -0.2683
 4586SOL    HW119078  11.715   4.854   7.088  3.0544 -0.2693  1.8106
 4586SOL    HW219079  11.700   4.960   6.982 -2.3171  0.1719  2.7187
 4587SOL     OW19080   2.304   7.888   9.177 -0.3308  0.2678  0.6043
 4587SOL    HW119081   2.293   7.803   9.221  0.2937  0.2046  0.6398
 4587SOL    HW219082   2.250   7.948   9.228 -0.5511 -0.0451  0.7519
 4588SOL     OW19083   9.366   8.239   4.965 -1.0185  0.1164 -0.0591
 4588SOL    HW119084   9.372   8.175   4.895 -0.2186  0.1469 -0.0331
 4588SOL    HW219085   9.362   8.324   4.921 -1.1540  0.0963 -0.0826
 4589SOL     OW19086  11.379   1.986   5.223  0.1452 -0.4556  0.0461
 4589SOL    HW119087  11.397   2.059   5.281 -0.2998 -1.1103  1.0340
 4589SOL    HW219088  11.306   1.939   5.264  0.6328 -1.6380 -0.3826
 4590SOL     OW19089   2.060   6.078   6.255 -0.0390  0.3842 -0.4171
 4590SOL    HW119090   2.091   6.091   6.166 -1.0379  0.3162 -0.7935
 4590SOL    HW219091   2.091   5.990   6.280  1.4359  0.9459 -0.1574
 4591SOL     OW19092   2.749  11.161   4.233  0.0304  0.1792 -0.6298
 4591SOL    HW119093   2.656  11.180   4.243  0.4440  1.7145  0.5750
 4591SOL    HW219094   2.771  11.105   4.308 -0.2564 -1.6350 -1.8462
 4592SOL     OW19095  10.685   8.114  10.692  0.5700 -0.2753 -0.6479
 4592SOL    HW119096  10.752   8.122  10.760 -0.3228  0.9624  0.1316
 4592SOL    HW219097  10.701   8.029  10.652  2.4218 -0.1263 -0.3033
 4593SOL     OW19098   2.535   5.334   4.044 -0.7066 -0.1850  0.0548
 4593SOL    HW119099   2.572   5.336   3.955 -2.0453  0.8790 -0.5125
 4593SOL    HW219100   2.607   5.363   4.100 -0.0053 -0.3073 -0.7553
 4594SOL     OW19101   5.481   7.144   9.241 -0.5014 -0.1369  0.5061
 4594SOL    HW119102   5.547   7.211   9.255 -0.9182  0.4527 -0.2333
 4594SOL    HW219103   5.518   7.064   9.279  0.5148  0.2430  0.3444
 4595SOL     OW19104  10.206  11.296   5.565 -0.2631  0.1569  0.3423
 4595SOL    HW119105  10.177  11.246   5.641 -0.9654 -0.9178 -0.5838
 4595SOL    HW219106  10.127  11.341   5.535  0.2060  1.2619  0.7391
 4596SOL     OW19107   2.716   0.166   4.627  0.0268 -0.5704 -0.7819
 4596SOL    HW119108   2.721   0.209   4.542 -0.0294 -1.3647 -1.1933
 4596SOL    HW219109   2.800   0.188   4.669 -0.3723  0.7115 -0.5885
 4597SOL     OW19110   5.597   4.041   2.694  0.3219 -0.2207 -0.5629
 4597SOL    HW119111   5.509   4.039   2.657 -0.8581  1.5254  1.8581
 4597SOL    HW219112   5.651   4.079   2.624 -1.3568  0.9881 -1.2855
 4598SOL     OW19113   3.304  11.825  10.386 -0.3239  0.6745 -0.2961
 4598SOL    HW119114   3.374  11.836  10.450 -0.2907 -0.0945 -0.1869
 4598SOL    HW219115   3.348  11.832  10.301 -0.2873  1.2098 -0.2330
 4599SOL     OW19116   3.874   7.274   2.764  0.5999 -0.1776  0.1698
 4599SOL    HW119117   3.834   7.189   2.747 -0.1422 -0.0774  1.3232
 4599SOL    HW219118   3.851   7.294   2.854  3.6692 -0.3272  1.1013
 4600SOL     OW19119   9.698   0.864   8.871 -0.1196 -0.3470 -0.1007
 4600SOL    HW119120   9.721   0.782   8.828 -0.1509 -0.1718 -0.4525
 4600SOL    HW219121   9.770   0.924   8.848 -0.8978  0.2057 -1.2029
 4601SOL     OW19122  11.786  11.469   5.519  0.3637 -0.1003 -0.0744
 4601SOL    HW119123  11.696  11.482   5.549  0.7274 -0.8422  1.4578
 4601SOL    HW219124  11.808  11.548   5.469 -0.0506  1.5925  2.2768
 4602SOL     OW19125   9.210   9.372   2.207  0.4388  0.4976 -0.1234
 4602SOL    HW119126   9.189   9.390   2.299  1.1230  0.8812 -0.0330
 4602SOL    HW219127   9.180   9.450   2.160 -1.4306 -0.3832 -0.4738
 4603SOL     OW19128  11.802   7.343   7.740 -0.6419  0.3183  0.1850
 4603SOL    HW119129  11.861   7.269   7.725 -1.0744 -0.0860  0.4744
 4603SOL    HW219130  11.797   7.386   7.655 -1.1981 -0.5838 -0.2531
 4604SOL     OW19131  10.603  11.539   9.373  0.6386 -0.3546  0.0351
 4604SOL    HW119132  10.640  11.522   9.460 -0.0510  1.4512  0.7299
 4604SOL    HW219133  10.542  11.468   9.358  0.4376 -0.4544  1.2340
 4605SOL     OW19134   9.859   7.296   2.549  0.0353 -0.7080  0.3065
 4605SOL    HW119135   9.947   7.289   2.513 -0.4674 -1.2113 -0.8558
 4605SOL    HW219136   9.802   7.262   2.481 -1.1003 -0.0772  0.9110
 4606SOL     OW19137   7.347   4.422   3.417 -0.0764 -0.0281  0.7017
 4606SOL    HW119138   7.401   4.438   3.340  0.0088 -0.3939  0.6811
 4606SOL    HW219139   7.265   4.469   3.400  0.3377  0.7606  0.8567
 4607SOL     OW19140  11.674   1.762   1.826  0.6440 -0.3352 -0.2580
 4607SOL    HW119141  11.638   1.763   1.914  1.0187 -1.2090 -0.0941
 4607SOL    HW219142  11.703   1.852   1.812  0.8890 -0.2661  0.6326
 4608SOL     OW19143   5.334   2.639   0.737  0.1824 -0.0503 -0.4983
 4608SOL    HW119144   5.360   2.730   0.727  1.0619 -0.2451 -0.0724
 4608SOL    HW219145   5.389   2.591   0.675  1.7500 -0.6028  1.1997
 4609SOL     OW19146  11.103   1.743   1.590 -0.1388  0.2569 -0.3241
 4609SOL    HW119147  11.054   1.814   1.632  0.5834 -0.6983  2.3459
 4609SOL    HW219148  11.181   1.733   1.644 -0.3839 -2.7863 -0.3569
 4610SOL     OW19149   6.513   7.358   1.966  0.0337 -0.2386  0.4590
 4610SOL    HW119150   6.552   7.434   1.923 -0.4211 -0.4709 -0.3728
 4610SOL    HW219151   6.586   7.297   1.979 -0.0736 -0.8454 -1.4517
 4611SOL     OW19152   6.951   6.993   1.272 -0.4910  0.4001 -0.2207
 4611SOL    HW119153   6.913   6.906   1.263 -0.5118  0.4133 -0.2628
 4611SOL    HW219154   6.875   7.051   1.282 -0.4275  0.2037  1.6979
 4612SOL     OW19155   4.090   7.275   5.227 -0.2706 -0.1569 -0.0332
 4612SOL    HW119156   4.121   7.287   5.137  0.9043  0.1597  0.3893
 4612SOL    HW219157   4.166   7.239   5.274 -1.0952 -1.0661  0.6708
 4613SOL     OW19158   2.619  11.339   7.302 -0.3732 -0.2970 -0.1956
 4613SOL    HW119159   2.620  11.397   7.378  1.2582 -0.1734 -0.2844
 4613SOL    HW219160   2.659  11.391   7.232 -0.2479 -1.0207 -0.6698
 4614SOL     OW19161  10.593   7.994   5.358  0.2006 -0.3123  0.6645
 4614SOL    HW119162  10.676   7.961   5.393  0.8614  0.8950  0.2877
 4614SOL    HW219163  10.608   8.000   5.264 -0.7770 -1.3119  0.4158
 4615SOL     OW19164   3.847   7.249   0.816 -0.3417  0.6691 -0.0502
 4615SOL    HW119165   3.895   7.332   0.822  0.0077  0.4488  0.2705
 4615SOL    HW219166   3.915   7.184   0.795 -0.4675  0.3287  0.5740
 4616SOL     OW19167  10.749   6.855   3.979  0.2358  0.2441  0.2940
 4616SOL    HW119168  10.655   6.873   3.985 -0.1370 -0.0607 -2.9014
 4616SOL    HW219169  10.757   6.763   4.004 -0.6773 -0.2863 -1.1733
 4617SOL     OW19170   9.657   3.112   2.198 -0.1526 -0.4667  0.3993
 4617SOL    HW119171   9.632   3.176   2.264 -0.3125 -0.1420  0.0281
 4617SOL    HW219172   9.650   3.159   2.115 -0.8787 -1.1430  0.0674
 4618SOL     OW19173   5.106   0.229   0.755 -0.0526  0.3132 -0.0687
 4618SOL    HW119174   5.112   0.283   0.676  1.0371 -0.3968 -0.4924
 4618SOL    HW219175   5.088   0.141   0.722 -1.5277  0.3290  0.6005
 4619SOL     OW19176  11.091   6.899   7.356 -0.0388  0.0823  0.0153
 4619SOL    HW119177  11.103   6.978   7.409 -0.2101  0.0253  0.1391
 4619SOL    HW219178  11.178   6.881   7.320 -0.2160  0.9162 -0.8460
 4620SOL     OW19179   4.995  11.310   3.274  0.2534  0.2444 -0.3660
 4620SOL    HW119180   4.937  11.234   3.280 -0.7754  1.0973  1.3728
 4620SOL    HW219181   5.037  11.302   3.189  0.3417 -2.3753 -0.1557
 4621SOL     OW19182   4.739   5.933   1.587  0.2121  0.6540 -0.2675
 4621SOL    HW119183   4.669   5.893   1.638  1.2822  0.5780  1.2058
 4621SOL    HW219184   4.720   5.908   1.497  0.1041 -2.0569  0.4269
 4622SOL     OW19185   8.882   0.542   0.270  0.4023 -0.4045 -0.3050
 4622SOL    HW119186   8.818   0.612   0.266  1.4603  0.6580  0.5575
 4622SOL    HW219187   8.875   0.508   0.359  0.4548 -0.8458 -0.4665
 4623SOL     OW19188   1.616  11.136   4.077 -0.0045  0.2152 -0.0242
 4623SOL    HW119189   1.618  11.045   4.106 -0.3713  0.5699  1.1701
 4623SOL    HW219190   1.539  11.141   4.019  0.3251 -0.3436 -0.5177
 4624SOL     OW19191   4.326   9.288   4.214  0.4403  0.6226  0.1919
 4624SOL    HW119192   4.418   9.313   4.206  0.6474 -0.4131 -0.9940
 4624SOL    HW219193   4.277   9.363   4.179  0.9303  0.4392 -0.9348
 4625SOL     OW19194   6.604  10.242  10.748 -0.2065 -0.3465  0.1616
 4625SOL    HW119195   6.620  10.229  10.842 -1.1413 -1.4788  0.2025
 4625SOL    HW219196   6.616  10.154  10.710  1.8619  0.4009 -1.0845
 4626SOL     OW19197   6.149   9.530  10.156 -0.3616  0.0564  0.0160
 4626SOL    HW119198   6.124   9.452  10.107 -0.0844  0.0336 -0.0932
 4626SOL    HW219199   6.227   9.563  10.111  0.1149 -0.1705  0.6566
 4627SOL     OW19200   0.996  10.901   8.038 -0.1209  0.0517 -0.0415
 4627SOL    HW119201   1.088  10.889   8.059 -0.1560 -0.8233 -0.3166
 4627SOL    HW219202   0.952  10.905   8.123 -0.2764 -3.5623  0.2344
 4628SOL     OW19203  10.717   6.182   2.495  0.0658  0.9885 -1.1015
 4628SOL    HW119204  10.745   6.205   2.407 -1.9537  0.6598 -1.8959
 4628SOL    HW219205  10.630   6.222   2.504 -0.0551  0.4613  0.5029
 4629SOL     OW19206   1.062   3.979   5.045 -0.0125  0.1348 -0.2818
 4629SOL    HW119207   1.033   3.925   5.118  0.1067  1.1237  0.5059
 4629SOL    HW219208   1.141   3.935   5.013  0.2193 -0.0265  0.5034
 4630SOL     OW19209   4.131  11.612   4.945 -0.7046 -0.9480 -0.6335
 4630SOL    HW119210   4.149  11.691   4.894 -0.9568 -0.3638  0.1729
 4630SOL    HW219211   4.146  11.540   4.883  0.9902 -0.3520 -0.9665
 4631SOL     OW19212  10.944   1.495   6.576  0.1773  0.3911  0.8019
 4631SOL    HW119213  10.923   1.565   6.514  1.5380 -0.9728 -1.3419
 4631SOL    HW219214  10.953   1.539   6.660 -1.2454  2.4148 -0.0215
 4632SOL     OW19215   4.730   5.394  10.287 -0.1756 -0.1160 -0.0592
 4632SOL    HW119216   4.768   5.459  10.227 -1.7720  0.6541 -0.3235
 4632SOL    HW219217   4.662   5.443  10.334  0.0082 -1.1049  1.2669
 4633SOL     OW19218  11.826   1.587  10.549  0.1824 -0.3230 -0.7111
 4633SOL    HW119219  11.744   1.565  10.505  0.2230  0.1894 -1.0460
 4633SOL    HW219220  11.810   1.673  10.588  0.0527 -0.8966  0.5288
 4634SOL     OW19221   3.905   4.991   0.990  0.3644  0.1735 -0.3390
 4634SOL    HW119222   3.975   5.045   1.026  1.1352 -0.9049 -0.1746
 4634SOL    HW219223   3.883   5.033   0.907  1.7693  0.1063 -0.7800
 4635SOL     OW19224  11.400   5.523   8.527  0.2641 -0.1419 -0.0956
 4635SOL    HW119225  11.419   5.590   8.592  1.3681  0.7136 -1.2545
 4635SOL    HW219226  11.317   5.549   8.487 -0.3256 -0.5748  0.8243
 4636SOL     OW19227   1.621  10.632  10.730  0.3148  0.1125 -0.1700
 4636SOL    HW119228   1.667  10.595  10.805  0.0272  0.6013  0.2558
 4636SOL    HW219229   1.585  10.557  10.683 -1.0714 -0.1267  1.1964
 4637SOL     OW19230  10.725   6.073   3.359  0.1109  0.0138 -0.1452
 4637SOL    HW119231  10.706   6.158   3.320  1.4708  1.0291  1.2923
 4637SOL    HW219232  10.805   6.087   3.409  0.6160 -2.2415 -0.2211
 4638SOL     OW19233   7.684   0.037   6.205 -0.3421  0.2451  0.1827
 4638SOL    HW119234   7.778   0.052   6.193 -0.2822 -0.8139 -0.8254
 4638SOL    HW219235   7.648   0.036   6.116 -1.4151  1.2265  0.5820
 4639SOL     OW19236   3.803   6.928   9.317  0.5507  0.1729  0.0080
 4639SOL    HW119237   3.750   6.849   9.327  3.8929 -2.0616  2.1833
 4639SOL    HW219238   3.858   6.910   9.241 -1.0848  2.1276 -1.7589
 4640SOL     OW19239   5.394   8.927   8.064 -0.5049  0.3727 -0.3261
 4640SOL    HW119240   5.457   8.935   7.992 -0.2833 -0.8529 -0.2795
 4640SOL    HW219241   5.312   8.901   8.023 -0.8398  1.3458 -0.3123
 4641SOL     OW19242   9.340   4.133   8.057 -0.0825  0.1784  0.3920
 4641SOL    HW119243   9.433   4.157   8.060 -0.0176  0.0301 -0.3062
 4641SOL    HW219244   9.325   4.106   7.967 -0.2760 -1.9304  0.9899
 4642SOL     OW19245   2.691   6.138   0.826  0.0280 -0.3899 -0.3586
 4642SOL    HW119246   2.597   6.139   0.807  0.1146  1.7521 -0.9781
 4642SOL    HW219247   2.698   6.181   0.911  0.4177 -0.9984 -0.0805
 4643SOL     OW19248   6.247   9.373   0.809 -0.6419 -0.3027  0.5867
 4643SOL    HW119249   6.327   9.374   0.861  1.5927 -2.6553 -2.4368
 4643SOL    HW219250   6.200   9.295   0.838  1.8404 -3.1084 -2.2581
 4644SOL     OW19251   1.212   6.683   2.236 -0.1334 -0.0325  0.7236
 4644SOL    HW119252   1.153   6.685   2.311 -0.2193  1.7187  0.6451
 4644SOL    HW219253   1.220   6.774   2.209  3.6144  0.0347  1.5411
 4645SOL     OW19254   9.105   2.308   4.028  0.0957  0.1287  0.0315
 4645SOL    HW119255   9.165   2.283   4.098  0.5708  0.1161 -0.3725
 4645SOL    HW219256   9.085   2.226   3.983 -1.9058 -0.2295  1.4283
 4646SOL     OW19257  10.880   4.914   3.996  0.0703  0.3527  0.3553
 4646SOL    HW119258  10.909   5.004   3.980  0.5161 -0.2438 -2.7557
 4646SOL    HW219259  10.817   4.897   3.926 -0.3755 -1.6196  1.1800
 4647SOL     OW19260   0.937  10.024   2.492 -0.9678  0.1516  0.4313
 4647SOL    HW119261   0.888   9.993   2.416 -0.9837  0.0340  0.4899
 4647SOL    HW219262   0.913  10.116   2.500 -2.9916 -0.4425  1.8542
 4648SOL     OW19263   3.044  11.770  10.414  0.4000 -0.1507  0.1708
 4648SOL    HW119264   3.138  11.783  10.419  0.6189 -1.8066  1.0006
 4648SOL    HW219265   3.013  11.841  10.358  1.8472  1.6371  1.5545
 4649SOL     OW19266  11.597   0.697   3.427  0.0772 -0.2521 -0.6272
 4649SOL    HW119267  11.513   0.657   3.449 -0.0194 -0.1710 -0.8433
 4649SOL    HW219268  11.642   0.704   3.510  0.1928 -1.0263 -0.6139
 4650SOL     OW19269  11.516   1.243   0.768 -0.1817  0.0914  0.9529
 4650SOL    HW119270  11.568   1.200   0.835 -0.0414 -0.1814  0.6724
 4650SOL    HW219271  11.552   1.212   0.685  0.2002  1.0756  0.7335
 4651SOL     OW19272   2.500   9.150   3.786  0.2148 -0.2362  0.3829
 4651SOL    HW119273   2.552   9.112   3.857  1.8628  1.8000  0.3833
 4651SOL    HW219274   2.493   9.243   3.808 -1.9092 -0.1074 -0.5924
 4652SOL     OW19275   5.319   7.406   1.683 -0.0205  0.6470 -0.2078
 4652SOL    HW119276   5.356   7.414   1.770  0.9168  0.3046 -0.5674
 4652SOL    HW219277   5.245   7.467   1.682 -0.2505  0.4004  0.9239
 4653SOL     OW19278   2.447   7.331   9.361  0.3881  0.6101 -0.5166
 4653SOL    HW119279   2.401   7.402   9.406  0.4169  0.6792 -0.5958
 4653SOL    HW219280   2.380   7.263   9.348  0.7845 -0.1426  1.1827
 4654SOL     OW19281   1.152   4.802   6.889  0.0695  0.0459  0.2113
 4654SOL    HW119282   1.174   4.861   6.817 -0.8146 -0.5562 -0.6008
 4654SOL    HW219283   1.199   4.721   6.868  1.4902  0.5040  1.4555
 4655SOL     OW19284   3.313   8.748   9.816  0.5321 -0.4862 -0.1619
 4655SOL    HW119285   3.271   8.674   9.771  1.1898 -1.3720  0.6488
 4655SOL    HW219286   3.249   8.819   9.809  0.2931 -0.8220 -1.8097
 4656SOL     OW19287   0.263   8.219   4.242  0.5307 -0.5239  0.4024
 4656SOL    HW119288   0.173   8.205   4.272  1.3635 -1.7518  2.6077
 4656SOL    HW219289   0.284   8.308   4.271  0.1760 -0.3974  0.2746
 4657SOL     OW19290   5.188   6.090   7.020 -0.3304 -0.1001 -0.4435
 4657SOL    HW119291   5.217   6.180   7.003 -0.1201 -0.2797 -1.0774
 4657SOL    HW219292   5.143   6.095   7.104 -0.4048  0.6174 -0.5164
 4658SOL     OW19293   5.652   2.694   4.498 -0.0220 -0.2388  0.3779
 4658SOL    HW119294   5.702   2.727   4.424  0.3899 -1.1314  0.2531
 4658SOL    HW219295   5.628   2.773   4.547  2.2054  0.1849  0.9043
 4659SOL     OW19296   3.429   3.723  11.295 -0.6390  0.1140  0.5085
 4659SOL    HW119297   3.393   3.645  11.339 -2.8773  0.1677 -1.0413
 4659SOL    HW219298   3.361   3.789  11.304  0.2574  1.1706 -0.2118
 4660SOL     OW19299   8.282   0.878   7.016 -0.1008  0.0346  0.0200
 4660SOL    HW119300   8.242   0.911   6.936 -2.3014  2.0785  1.7807
 4660SOL    HW219301   8.352   0.940   7.035  1.1194 -1.0498 -0.8060
 4661SOL     OW19302   4.700   8.898   2.689 -0.0607 -0.0648  0.1043
 4661SOL    HW119303   4.773   8.862   2.739  0.5972  0.0921 -0.7295
 4661SOL    HW219304   4.623   8.877   2.741  0.5551 -0.4324  0.8842
 4662SOL     OW19305   3.666   3.618   6.640 -0.1800 -0.6173  0.8613
 4662SOL    HW119306   3.577   3.648   6.620 -0.5304 -1.8683  0.4972
 4662SOL    HW219307   3.722   3.693   6.617 -0.9942 -0.3492 -0.3415
 4663SOL     OW19308   6.711   8.603   9.327  0.1135  0.2303  0.0586
 4663SOL    HW119309   6.691   8.673   9.264 -0.6713 -0.2872 -0.2818
 4663SOL    HW219310   6.674   8.524   9.287  0.8282 -0.3540  0.5282
 4664SOL     OW19311   3.271   9.988  10.009  0.6199 -0.3230 -0.0739
 4664SOL    HW119312   3.221   9.913   9.977  0.6209 -1.0473  1.5536
 4664SOL    HW219313   3.339   9.950  10.064  0.0429  0.8989  1.5563
 4665SOL     OW19314   9.450   6.295   7.082  0.0772 -0.2995  0.0699
 4665SOL    HW119315   9.396   6.370   7.055  1.7316  1.2239  0.8047
 4665SOL    HW219316   9.407   6.263   7.162 -2.0812 -1.8174 -1.5724
 4666SOL     OW19317   5.337   4.746   2.468 -0.2883  0.4628  0.7130
 4666SOL    HW119318   5.409   4.777   2.523  0.3157  0.7066 -0.1865
 4666SOL    HW219319   5.292   4.826   2.440  0.9749  0.5732 -1.2110
 4667SOL     OW19320   2.620   4.109  11.382  0.1053 -0.1710 -0.2814
 4667SOL    HW119321   2.602   4.082  11.472 -0.2825 -0.1990 -0.3635
 4667SOL    HW219322   2.661   4.195  11.390  0.3163 -0.2900 -0.0676
 4668SOL     OW19323   5.146   8.306   8.236 -0.5004  0.8824 -0.0046
 4668SOL    HW119324   5.228   8.260   8.254 -1.1967 -0.4124 -0.0216
 4668SOL    HW219325   5.163   8.396   8.264  1.2097  0.8597 -0.8378
 4669SOL     OW19326   5.278   7.323   5.989 -0.0186 -0.0716 -0.1177
 4669SOL    HW119327   5.304   7.299   5.900 -1.2198 -0.0575 -0.4935
 4669SOL    HW219328   5.327   7.403   6.008  0.7207 -0.4172 -0.5196
 4670SOL     OW19329  10.279   7.578   9.926  0.7491 -0.1503 -0.2189
 4670SOL    HW119330  10.252   7.645   9.863  1.9102  0.5035 -0.0432
 4670SOL    HW219331  10.269   7.496   9.878  1.3036  0.3162 -1.1634
 4671SOL     OW19332   4.515   1.080   4.019 -0.7780 -0.1840  0.4078
 4671SOL    HW119333   4.539   1.168   3.989 -1.3284  0.0048  0.5127
 4671SOL    HW219334   4.583   1.058   4.083  0.0195 -0.3115 -0.4521
 4672SOL     OW19335   3.511   3.835   9.722 -0.4259 -0.2029  0.2336
 4672SOL    HW119336   3.603   3.819   9.745 -0.5159 -0.2140  0.5978
 4672SOL    HW219337   3.512   3.921   9.679 -0.1111 -0.6371 -0.6620
 4673SOL     OW19338   8.680   8.139   4.669  0.9247 -0.5292 -0.4335
 4673SOL    HW119339   8.757   8.143   4.727  0.4487 -0.1316  0.1801
 4673SOL    HW219340   8.627   8.214   4.695 -0.6608 -1.9308  0.5594
 4674SOL     OW19341  10.097   8.575   9.494 -0.1097  0.1933  0.0455
 4674SOL    HW119342  10.032   8.645   9.494  2.1045  2.3969 -0.0363
 4674SOL    HW219343  10.109   8.554   9.586  0.0780  0.8314  0.1745
 4675SOL     OW19344   8.946  10.290   6.749 -0.0019 -0.1198 -0.3624
 4675SOL    HW119345   8.957  10.285   6.844 -0.7685  0.0857 -0.2516
 4675SOL    HW219346   8.932  10.383   6.732  3.6196  0.4237 -1.1213
 4676SOL     OW19347   4.118   4.953   2.792  0.8028  0.4324  0.8519
 4676SOL    HW119348   4.077   5.040   2.792 -1.1814 -0.4405  2.1775
 4676SOL    HW219349   4.112   4.923   2.882  0.4413 -1.5051  0.2433
 4677SOL     OW19350   9.729  10.709   0.668  0.1060 -0.2876  0.3953
 4677SOL    HW119351   9.706  10.742   0.581  0.9155 -0.2201  0.2010
 4677SOL    HW219352   9.648  10.669   0.700 -0.1210 -0.5812 -0.5103
 4678SOL     OW19353   6.062   9.082   8.727 -0.4096  0.4759  0.5098
 4678SOL    HW119354   6.016   9.165   8.734 -2.0940 -0.4060  0.3614
 4678SOL    HW219355   6.026   9.041   8.649 -0.0915 -0.6801  0.9447
 4679SOL     OW19356   9.371   2.001  10.217 -0.3670  0.2033  0.0011
 4679SOL    HW119357   9.325   2.083  10.231  2.3895  1.9806 -0.4665
 4679SOL    HW219358   9.397   1.971  10.304 -3.8007 -1.8570  0.4783
 4680SOL     OW19359   8.102   5.533   9.564  0.6769 -0.7303 -0.3266
 4680SOL    HW119360   8.021   5.513   9.611 -0.9510  1.7890 -1.8353
 4680SOL    HW219361   8.079   5.520   9.471  1.1731  2.3288 -0.9653
 4681SOL     OW19362   6.875   5.410   0.743 -0.7576  0.6155 -0.6009
 4681SOL    HW119363   6.841   5.457   0.819 -2.1644 -0.9080 -0.2380
 4681SOL    HW219364   6.909   5.479   0.686  1.0707  1.7435  1.7004
 4682SOL     OW19365   4.222   2.511   6.999  0.1328  0.5811  0.8416
 4682SOL    HW119366   4.199   2.506   6.907  1.4905  0.4177  0.4894
 4682SOL    HW219367   4.242   2.421   7.024 -0.2677  0.6173  1.3096
 4683SOL     OW19368   3.971   8.800   3.972 -0.1839 -0.1581 -0.2632
 4683SOL    HW119369   3.976   8.815   4.067  1.5268 -3.5639  0.3181
 4683SOL    HW219370   3.895   8.743   3.961 -1.1176  1.1988 -1.1870
 4684SOL     OW19371   9.210   9.741   3.233 -0.0261  0.1178  0.0742
 4684SOL    HW119372   9.222   9.758   3.139  1.0248  1.0026  0.3427
 4684SOL    HW219373   9.290   9.695   3.259  0.3798  1.1972  0.8180
 4685SOL     OW19374   4.722   3.498   5.532  0.2497 -0.2113  0.3795
 4685SOL    HW119375   4.680   3.582   5.547 -2.9837 -1.5220 -0.5407
 4685SOL    HW219376   4.759   3.474   5.617 -0.0125  1.4560  1.0018
 4686SOL     OW19377   9.157   4.873   9.745 -0.6588 -1.0751 -0.0589
 4686SOL    HW119378   9.217   4.936   9.704 -0.3265 -1.8641 -0.8151
 4686SOL    HW219379   9.214   4.804   9.780 -1.0957 -1.7102 -0.5697
 4687SOL     OW19380   6.950   3.588   9.509  0.5292  0.1504 -0.5274
 4687SOL    HW119381   6.940   3.641   9.430  0.5430 -0.6116 -1.0636
 4687SOL    HW219382   6.881   3.617   9.567 -0.3882 -0.2328 -1.3936
 4688SOL     OW19383   9.179   5.548  11.608  0.3319 -0.0345 -0.4990
 4688SOL    HW119384   9.171   5.570  11.701  2.0396 -1.6666  0.1121
 4688SOL    HW219385   9.089   5.534  11.578 -0.1834 -0.6543  1.2345
 4689SOL     OW19386   1.977   9.741   2.399  0.3170  0.7785  0.2457
 4689SOL    HW119387   1.889   9.777   2.389 -0.4865 -0.8802  0.9161
 4689SOL    HW219388   1.972   9.654   2.358  1.6924  0.7189  0.1614
 4690SOL     OW19389   5.455   6.162   2.418 -0.4094 -0.3969  0.2167
 4690SOL    HW119390   5.542   6.130   2.393 -0.1365 -0.5878  1.3605
 4690SOL    HW219391   5.402   6.150   2.339  0.5530 -0.4508 -0.4387
 4691SOL     OW19392   2.869   0.462   5.148  0.1115 -0.3291 -0.0089
 4691SOL    HW119393   2.858   0.382   5.199  0.8254  0.1903  1.0072
 4691SOL    HW219394   2.953   0.452   5.105 -0.5697 -0.8425 -1.2688
 4692SOL     OW19395   1.195   4.679   7.327  0.1190 -0.1716  0.6485
 4692SOL    HW119396   1.133   4.608   7.341  0.3405 -0.5550 -0.2630
 4692SOL    HW219397   1.168   4.719   7.244  0.7427  0.0236  0.5305
 4693SOL     OW19398   2.943   0.171   7.279 -0.0902 -0.4740 -1.1030
 4693SOL    HW119399   3.010   0.239   7.271 -1.1936  0.6709 -0.8548
 4693SOL    HW219400   2.987   0.100   7.326  0.8613  0.3700 -0.6725
 4694SOL     OW19401   9.599   6.498  10.979 -0.4479  0.1414 -0.1685
 4694SOL    HW119402   9.596   6.402  10.978 -0.7594  0.1458 -1.6005
 4694SOL    HW219403   9.528   6.524  10.920 -0.6975  1.2717  0.6113
 4695SOL     OW19404   2.853   1.603  11.316  0.5330  0.0458 -0.7157
 4695SOL    HW119405   2.768   1.560  11.325  0.1502  0.6770 -1.2867
 4695SOL    HW219406   2.913   1.545  11.363 -0.4492  0.3714  1.0364
 4696SOL     OW19407   5.832   2.037   1.843  0.0542 -0.5051  0.3804
 4696SOL    HW119408   5.745   2.007   1.868  0.7948 -2.1583  1.1459
 4696SOL    HW219409   5.892   1.977   1.888  1.5933  0.5711 -0.1395
 4697SOL     OW19410   2.134  11.157  10.479  0.3347  0.0062 -0.5006
 4697SOL    HW119411   2.051  11.189  10.514 -0.4440 -1.0696 -1.2884
 4697SOL    HW219412   2.199  11.186  10.542 -0.4475  2.0472 -0.5536
 4698SOL     OW19413   7.176  11.482   1.932 -0.0687 -1.0436 -0.5520
 4698SOL    HW119414   7.088  11.521   1.929 -0.0808 -0.8184  1.6205
 4698SOL    HW219415   7.229  11.540   1.877 -0.3216  1.5875  1.7393
 4699SOL     OW19416   5.765   6.741   0.193  0.4626  0.6890  0.6743
 4699SOL    HW119417   5.833   6.673   0.191  1.7194  1.8281  2.1474
 4699SOL    HW219418   5.703   6.712   0.260  1.9076  1.7173  2.5686
 4700SOL     OW19419   2.489  11.029   2.262 -0.2932  0.8676 -0.1087
 4700SOL    HW119420   2.476  10.962   2.330  1.4458 -0.5199 -1.0743
 4700SOL    HW219421   2.404  11.033   2.218 -0.5741 -0.3995  0.2539
 4701SOL     OW19422  10.374   0.461   3.937  0.7626 -0.6479 -0.4037
 4701SOL    HW119423  10.415   0.380   3.904  0.8940 -0.0292 -1.8341
 4701SOL    HW219424  10.336   0.501   3.859  0.7351  0.7010  0.2892
 4702SOL     OW19425   2.991   8.782   5.612 -0.7093 -0.2274  0.5139
 4702SOL    HW119426   3.044   8.709   5.580 -1.7661 -1.0754  0.6636
 4702SOL    HW219427   3.004   8.783   5.706 -0.5333 -0.0698  0.4911
 4703SOL     OW19428   9.870   2.049   5.517  0.5037 -0.3447  0.2308
 4703SOL    HW119429   9.797   2.022   5.462  0.2584 -0.5871  0.6630
 4703SOL    HW219430   9.858   2.000   5.598  0.8374  0.0258  0.5107
 4704SOL     OW19431   6.541   4.659  10.118  0.8640 -0.4139 -0.1597
 4704SOL    HW119432   6.533   4.692  10.207 -1.5841  0.3319 -0.5815
 4704SOL    HW219433   6.540   4.564  10.127 -0.5481 -0.3524  0.5685
 4705SOL     OW19434   5.444   6.390   3.531 -0.0858  0.1580 -0.4214
 4705SOL    HW119435   5.518   6.356   3.582 -1.7866 -3.2639  0.0729
 4705SOL    HW219436   5.374   6.399   3.595 -0.6316  1.5895 -1.1975
 4706SOL     OW19437   5.178  11.415   4.659 -0.0384 -0.2998  0.5196
 4706SOL    HW119438   5.266  11.425   4.696 -0.6935  0.0903  2.0590
 4706SOL    HW219439   5.178  11.327   4.622  1.3015  0.0555 -0.3993
 4707SOL     OW19440   6.630  10.099   2.260 -0.1346 -0.2628 -0.2841
 4707SOL    HW119441   6.589  10.173   2.214 -0.4927 -1.0132 -1.2160
 4707SOL    HW219442   6.691  10.139   2.322  0.4935  0.7989 -1.5504
 4708SOL     OW19443   9.894   4.502  11.511 -0.2638  0.4815  0.5733
 4708SOL    HW119444   9.937   4.542  11.587 -1.7781 -1.2221  2.4582
 4708SOL    HW219445   9.800   4.516  11.526 -0.5732  0.8720 -1.4865
 4709SOL     OW19446   5.276   7.258   0.546 -0.3839 -0.4322 -0.0893
 4709SOL    HW119447   5.368   7.232   0.550 -0.4218 -0.4961  2.7023
 4709SOL    HW219448   5.276   7.352   0.564 -0.7695  0.0164 -2.2212
 4710SOL     OW19449   2.338   3.694   6.248 -0.3852 -0.2559  0.3140
 4710SOL    HW119450   2.328   3.682   6.343 -0.7261  0.1665  0.3318
 4710SOL    HW219451   2.291   3.620   6.209 -0.7466 -0.1049  0.4623
 4711SOL     OW19452   8.761   0.014   1.542  0.1291  0.0279  0.3173
 4711SOL    HW119453   8.799   0.032   1.628 -1.5766 -0.5448  1.2345
 4711SOL    HW219454   8.682   0.069   1.539  0.3508  0.3154 -1.0447
 4712SOL     OW19455   8.812   1.926   9.022 -0.2417 -0.4127 -0.7666
 4712SOL    HW119456   8.870   2.001   9.034  0.0398 -0.2591 -2.7574
 4712SOL    HW219457   8.838   1.864   9.091 -0.9172  1.5111  1.3690
 4713SOL     OW19458   7.249  10.310   3.162 -0.4644 -0.2823  0.6843
 4713SOL    HW119459   7.244  10.404   3.179 -1.0930 -0.1226 -0.2795
 4713SOL    HW219460   7.192  10.296   3.086  1.0708 -1.1499 -0.3841
 4714SOL     OW19461   1.996   4.700   3.224  0.0567  0.0368 -0.3501
 4714SOL    HW119462   1.902   4.685   3.241  0.5150 -1.0256  1.5124
 4714SOL    HW219463   2.040   4.634   3.277  1.9506  1.8032  0.3880
 4715SOL     OW19464   4.370   0.107   8.684 -0.2644  0.9989 -0.4044
 4715SOL    HW119465   4.449   0.062   8.656 -0.6528  0.1850 -0.2146
 4715SOL    HW219466   4.375   0.110   8.779 -0.7380  0.4192 -0.3551
 4716SOL     OW19467   8.928   1.631   6.459 -0.1220 -0.4237 -0.0126
 4716SOL    HW119468   8.836   1.656   6.459 -0.4214 -1.4106  1.5540
 4716SOL    HW219469   8.935   1.563   6.392 -1.5150 -3.4611  2.6712
 4717SOL     OW19470   6.466   8.026   2.676 -0.3772  0.5681  0.0633
 4717SOL    HW119471   6.454   7.969   2.600 -1.6499 -2.0041  2.0287
 4717SOL    HW219472   6.550   7.999   2.714 -1.0418 -0.1628  1.0754
 4718SOL     OW19473   1.761   8.136   7.873 -0.0366  0.5587 -0.0219
 4718SOL    HW119474   1.852   8.143   7.844 -0.4336  0.8395 -1.2862
 4718SOL    HW219475   1.754   8.199   7.945  0.9250  0.0464  0.5392
 4719SOL     OW19476   4.627   3.389  10.483  0.1026 -0.5936  0.1630
 4719SOL    HW119477   4.701   3.333  10.509  0.4908 -0.7760 -1.2461
 4719SOL    HW219478   4.620   3.376  10.388 -0.5819  0.8320  0.0032
 4720SOL     OW19479   2.839   2.307   3.008  0.3589  0.7212 -0.4987
 4720SOL    HW119480   2.885   2.228   2.977  1.2136  1.2283 -0.5552
 4720SOL    HW219481   2.863   2.375   2.946 -0.7350  0.9399 -0.7059
 4721SOL     OW19482   1.077   1.641   5.484  0.0971  0.0136  0.7307
 4721SOL    HW119483   1.021   1.574   5.445 -2.2837  0.5541  2.8799
 4721SOL    HW219484   1.131   1.594   5.548  0.4674 -0.2194  0.2457
 4722SOL     OW19485   5.229   9.383   3.929  0.6728  0.3522  0.5483
 4722SOL    HW119486   5.265   9.471   3.939 -0.2014  0.9296 -1.0395
 4722SOL    HW219487   5.260   9.354   3.844 -1.3833  0.3115 -0.2430
 4723SOL     OW19488   3.828  11.676   2.072 -0.1354 -0.1256  0.0236
 4723SOL    HW119489   3.760  11.613   2.094  0.5044 -0.9177 -0.2167
 4723SOL    HW219490   3.797  11.759   2.107 -1.5581 -0.3278 -0.7009
 4724SOL     OW19491   4.300   9.711   7.773  0.2418  0.2708 -0.1786
 4724SOL    HW119492   4.357   9.779   7.810  1.2540 -1.5296  1.8266
 4724SOL    HW219493   4.234   9.697   7.840 -2.1515  1.6535 -2.0785
 4725SOL     OW19494   5.877  11.430   1.345 -0.2454 -0.2469  0.0792
 4725SOL    HW119495   5.875  11.334   1.348  0.8435 -0.3566 -1.4463
 4725SOL    HW219496   5.969  11.451   1.326 -0.3979  1.1271  0.7265
 4726SOL     OW19497   8.138   3.730  11.439  0.2964  0.8730  1.0272
 4726SOL    HW119498   8.075   3.664  11.410  0.3202  1.1415  0.3513
 4726SOL    HW219499   8.115   3.746  11.531  0.1151  0.1338  1.1201
 4727SOL     OW19500   1.433   8.455   2.349 -0.5343  0.2738  0.1358
 4727SOL    HW119501   1.411   8.369   2.314 -2.4839  0.8901 -0.2832
 4727SOL    HW219502   1.463   8.505   2.273  0.0613  0.1372  0.2777
 4728SOL     OW19503   4.727   8.725   3.087  0.0401  0.9050  0.3680
 4728SOL    HW119504   4.655   8.746   3.146 -0.5493 -2.5736  1.0874
 4728SOL    HW219505   4.685   8.689   3.009  0.9710  1.1639 -0.2739
 4729SOL     OW19506   2.046  11.489   7.185  0.7714  0.6089  0.2310
 4729SOL    HW119507   2.074  11.559   7.126 -1.4997  0.5640 -1.0016
 4729SOL    HW219508   2.125  11.438   7.201  2.2181  2.6986  0.1535
 4730SOL     OW19509   0.643   2.608   0.620 -0.0184 -0.0654 -0.4447
 4730SOL    HW119510   0.609   2.546   0.554 -0.1392  1.2619 -1.6686
 4730SOL    HW219511   0.564   2.644   0.661 -0.0546  1.2259 -1.5994
 4731SOL     OW19512   8.799   5.371   4.005  0.0043 -0.3169  0.4776
 4731SOL    HW119513   8.774   5.360   3.913 -0.0157  1.2259  0.2816
 4731SOL    HW219514   8.717   5.359   4.053 -0.2510  0.1730  0.1806
 4732SOL     OW19515   8.512   6.486   5.401 -0.0526 -0.2611 -0.3211
 4732SOL    HW119516   8.419   6.494   5.382  0.1409  1.2691 -0.7163
 4732SOL    HW219517   8.556   6.539   5.334  0.8976  1.6018  1.6614
 4733SOL     OW19518   1.538   9.977   2.551 -0.4069  0.1101  0.2957
 4733SOL    HW119519   1.585   9.935   2.479  0.6867  0.8427  0.5713
 4733SOL    HW219520   1.585   9.951   2.630 -1.5524 -0.6223  0.7723
 4734SOL     OW19521  11.581   6.346  10.409 -0.2990  0.2951 -0.5425
 4734SOL    HW119522  11.518   6.359  10.339  0.1612 -0.7349 -1.1746
 4734SOL    HW219523  11.666   6.339  10.364 -0.0347 -0.6963  0.0706
 4735SOL     OW19524  11.470   5.253   5.225 -0.0081  0.2580 -0.3202
 4735SOL    HW119525  11.425   5.308   5.161 -2.0091  0.4925  1.1747
 4735SOL    HW219526  11.422   5.170   5.222  1.3326 -0.5396 -0.6918
 4736SOL     OW19527   3.767   5.314  10.231  0.5897 -1.1518 -0.5752
 4736SOL    HW119528   3.712   5.259  10.176 -1.0087  0.0392 -0.2494
 4736SOL    HW219529   3.779   5.395  10.181 -0.4698 -0.2493  0.5601
 4737SOL     OW19530   7.316   2.570   7.918 -0.2117 -0.2660 -0.0455
 4737SOL    HW119531   7.278   2.658   7.913  2.8773  1.3183  1.4846
 4737SOL    HW219532   7.397   2.576   7.868  0.3818 -2.0189  0.6500
 4738SOL     OW19533   8.912   6.624   8.921  0.0237 -0.0999 -0.0186
 4738SOL    HW119534   8.908   6.594   8.831 -1.2339 -1.6144  0.4991
 4738SOL    HW219535   8.935   6.546   8.972  0.7083  0.7198  0.9899
 4739SOL     OW19536   7.330   4.807   2.037  0.1417 -0.0697 -0.5165
 4739SOL    HW119537   7.349   4.770   2.123 -0.7909 -1.8341 -1.0183
 4739SOL    HW219538   7.358   4.739   1.975  0.6063  1.0814 -1.6041
 4740SOL     OW19539   3.897   9.800   7.774 -0.3107 -0.1267  0.1686
 4740SOL    HW119540   3.891   9.854   7.695 -0.3637 -0.8572 -0.3331
 4740SOL    HW219541   3.922   9.713   7.743 -0.6807 -0.5179  0.9155
 4741SOL     OW19542   0.741   4.567   1.184  0.0481 -0.8821  0.0508
 4741SOL    HW119543   0.650   4.540   1.169  0.4433 -1.2526 -1.8556
 4741SOL    HW219544   0.768   4.607   1.102  1.5353 -0.5305  0.6913
 4742SOL     OW19545   9.340   6.225   8.598  0.4651  0.5380 -0.3760
 4742SOL    HW119546   9.325   6.287   8.527 -0.5229 -0.1079 -0.7591
 4742SOL    HW219547   9.370   6.278   8.671  2.6724  1.0972 -1.5839
 4743SOL     OW19548   8.816   5.941   8.907  0.0102  0.4871 -0.2692
 4743SOL    HW119549   8.815   5.937   8.812  1.7611  0.3182 -0.3051
 4743SOL    HW219550   8.795   6.032   8.927 -0.1976  0.5616 -0.8084
 4744SOL     OW19551   3.385   3.397   3.484 -0.3014 -0.0266  0.1197
 4744SOL    HW119552   3.429   3.361   3.561  0.4057  1.2542  0.3424
 4744SOL    HW219553   3.455   3.433   3.430 -0.9146  0.3809 -0.4302
 4745SOL     OW19554  10.342   5.039   3.341  0.6927 -0.1562  0.0801
 4745SOL    HW119555  10.287   4.970   3.378  1.4470  0.5892  2.8045
 4745SOL    HW219556  10.282   5.091   3.288 -0.9829 -0.1652  1.8446
 4746SOL     OW19557   1.358   0.739   2.971  0.0753 -0.3473 -0.1402
 4746SOL    HW119558   1.328   0.689   3.047 -0.8536 -0.3926 -0.5184
 4746SOL    HW219559   1.377   0.826   3.005  1.4347 -0.8609  0.4698
 4747SOL     OW19560   7.949   6.821   4.323  0.0306  0.2191 -0.2122
 4747SOL    HW119561   7.953   6.897   4.381 -0.4791 -2.3685  3.5925
 4747SOL    HW219562   7.856   6.802   4.315  0.1342  0.1550 -1.4278
 4748SOL     OW19563   8.258   4.532   5.456 -0.3195  0.3953 -0.3973
 4748SOL    HW119564   8.168   4.528   5.425 -0.5571 -0.3136  0.3590
 4748SOL    HW219565   8.273   4.447   5.498  0.8504  0.3158 -0.9203
 4749SOL     OW19566   6.597   9.144  10.155 -0.3467  0.6223 -0.3563
 4749SOL    HW119567   6.638   9.227  10.134  1.0374  0.5873  1.9266
 4749SOL    HW219568   6.515   9.168  10.198  1.0973  0.9752  2.4048
 4750SOL     OW19569   9.925   5.978  10.583  0.4990 -0.0228  0.5509
 4750SOL    HW119570  10.009   5.960  10.624  2.0351  1.2140 -1.7991
 4750SOL    HW219571   9.889   5.892  10.562  0.9296 -0.5786  1.9641
 4751SOL     OW19572   3.943   8.082  10.614  0.4257 -0.2763  0.5218
 4751SOL    HW119573   3.969   8.107  10.702  0.4356 -0.0466  0.4536
 4751SOL    HW219574   4.012   8.024  10.583 -0.5273 -1.9435  1.3958
 4752SOL     OW19575   5.093   0.877   5.561  0.0496 -0.4321  0.3937
 4752SOL    HW119576   5.042   0.837   5.631 -0.9213  0.2517  0.1024
 4752SOL    HW219577   5.030   0.891   5.490  1.5649 -3.9518 -1.9106
 4753SOL     OW19578   0.116   6.573   3.698  0.2449 -0.5785 -0.4706
 4753SOL    HW119579   0.057   6.616   3.760 -1.0638 -1.8803 -0.7836
 4753SOL    HW219580   0.080   6.485   3.686  0.3347 -0.3343 -3.2196
 4754SOL     OW19581   6.726   1.382   9.506  0.2275  0.5557  0.4540
 4754SOL    HW119582   6.804   1.384   9.451  1.8244  1.1473  2.5825
 4754SOL    HW219583   6.736   1.303   9.559 -0.2912  0.9568  1.1726
 4755SOL     OW19584   3.764   9.151   1.118  0.5583 -0.3539 -0.3369
 4755SOL    HW119585   3.830   9.203   1.072  1.0716 -0.3367  0.3951
 4755SOL    HW219586   3.719   9.103   1.049  0.6313  0.4320 -0.9500
 4756SOL     OW19587   6.282   1.472   6.610 -0.2375  0.0921  0.7303
 4756SOL    HW119588   6.264   1.482   6.703  0.0356 -1.2391  0.9468
 4756SOL    HW219589   6.238   1.390   6.586 -1.7944  1.2680 -0.7222
 4757SOL     OW19590   5.095   2.792   6.769  0.1574 -0.0877  0.2797
 4757SOL    HW119591   5.033   2.785   6.696 -0.4281  0.4761  0.7087
 4757SOL    HW219592   5.079   2.712   6.820 -0.3957  0.1707  0.5183
 4758SOL     OW19593   8.297   4.759   9.946 -0.1284  0.1650 -0.1357
 4758SOL    HW119594   8.272   4.791  10.032 -0.3450 -0.9904  0.2465
 4758SOL    HW219595   8.251   4.675   9.937  1.4111 -0.6773 -0.5490
 4759SOL     OW19596   1.080   1.313   2.589 -0.2748 -0.2572 -0.1396
 4759SOL    HW119597   1.110   1.224   2.606  0.1745  0.0239  0.6074
 4759SOL    HW219598   1.002   1.323   2.645 -2.0821 -1.1224 -2.3749
 4760SOL     OW19599   7.510   2.176  11.567 -0.1259  0.5030 -0.2157
 4760SOL    HW119600   7.553   2.153  11.650 -2.0662  1.0533  1.0063
 4760SOL    HW219601   7.535   2.268  11.553  1.1608  0.0738 -0.9056
 4761SOL     OW19602   8.592   2.686   2.930 -0.1787 -0.2934  0.6428
 4761SOL    HW119603   8.678   2.644   2.924 -0.3675 -0.5480 -0.3952
 4761SOL    HW219604   8.592   2.726   3.017  0.6628 -1.0041  0.9940
 4762SOL     OW19605   7.299   9.004   1.468  0.5845 -0.6491 -0.2464
 4762SOL    HW119606   7.309   9.100   1.469  0.7248 -0.5510  3.5374
 4762SOL    HW219607   7.380   8.972   1.429  1.6154  0.7681  0.6152
 4763SOL     OW19608   5.235   6.985   2.238 -0.2702 -0.4959 -0.0843
 4763SOL    HW119609   5.297   7.048   2.200 -1.1442  0.3902 -0.0631
 4763SOL    HW219610   5.203   7.027   2.318 -1.0211 -0.8675 -0.1802
 4764SOL     OW19611   4.546   5.482  11.275  0.0319  0.2770 -0.0064
 4764SOL    HW119612   4.615   5.423  11.246 -1.0963 -1.2242  0.2356
 4764SOL    HW219613   4.513   5.522  11.194  2.5742  2.7641  0.0172
 4765SOL     OW19614   8.573   4.632  11.387 -0.4992  0.0716 -0.5335
 4765SOL    HW119615   8.537   4.661  11.303 -0.6449  1.9526  0.1373
 4765SOL    HW219616   8.532   4.689  11.452  1.0305 -0.0706  0.6138
 4766SOL     OW19617   3.462  11.147  11.554  0.0878 -0.0089  0.5729
 4766SOL    HW119618   3.436  11.062  11.520  1.9862  0.1837 -1.6724
 4766SOL    HW219619   3.527  11.127  11.622  2.4693 -0.5042 -1.6593
 4767SOL     OW19620   8.501   5.351   5.636 -0.1423 -0.3532 -0.3249
 4767SOL    HW119621   8.432   5.387   5.580  1.5669  1.3551 -1.4537
 4767SOL    HW219622   8.535   5.277   5.586 -1.1184 -1.2065  0.2387
 4768SOL     OW19623   7.781   1.857   0.568  0.0058  0.1342  0.0867
 4768SOL    HW119624   7.870   1.826   0.588  0.6732  1.5596 -0.5351
 4768SOL    HW219625   7.740   1.867   0.654  1.3294  1.8955  0.5682
 4769SOL     OW19626   2.877   5.625   9.742 -0.1689  0.2410 -0.0477
 4769SOL    HW119627   2.936   5.692   9.777 -0.3737 -0.1072  0.9892
 4769SOL    HW219628   2.899   5.546   9.791  0.3794 -0.5914 -1.5589
 4770SOL     OW19629  10.099  10.502   6.033  0.5976  0.0345  0.5707
 4770SOL    HW119630  10.085  10.452   5.952  1.3772 -0.8610  0.9824
 4770SOL    HW219631  10.011  10.520   6.065  0.3036 -1.8211  0.8676
 4771SOL     OW19632   8.947  11.704   1.091  0.0351 -0.0688  0.7941
 4771SOL    HW119633   8.927  11.795   1.110  0.1005  0.1885 -0.2771
 4771SOL    HW219634   8.863  11.659   1.093 -0.5988  0.7400 -2.2985
 4772SOL     OW19635   9.931  11.511  11.343  0.0417 -0.2511  0.2026
 4772SOL    HW119636   9.996  11.447  11.373 -0.6206 -0.7488  0.6011
 4772SOL    HW219637   9.955  11.592  11.388 -0.0681 -0.6222  0.9441
 4773SOL     OW19638   5.084   0.457   8.755 -0.0285  0.3120 -0.2068
 4773SOL    HW119639   5.176   0.482   8.764 -0.0291  0.6664 -1.1299
 4773SOL    HW219640   5.048   0.518   8.691 -0.4455 -1.0016 -1.2629
 4774SOL     OW19641  10.205   6.027   6.901 -0.2475 -0.2165  0.0691
 4774SOL    HW119642  10.221   6.051   6.992 -0.9794  0.5907 -0.0009
 4774SOL    HW219643  10.161   6.104   6.863 -0.4441 -0.7481 -0.8181
 4775SOL     OW19644   6.596   4.946  10.019 -0.3811 -0.3047 -0.4454
 4775SOL    HW119645   6.688   4.961  10.045  0.1807 -0.3267 -2.3025
 4775SOL    HW219646   6.579   4.855  10.042 -0.0557 -0.2105  0.2064
 4776SOL     OW19647   4.863   2.806   4.119 -0.0634  0.4702 -0.3530
 4776SOL    HW119648   4.896   2.759   4.043  1.2472  1.5228 -0.4754
 4776SOL    HW219649   4.808   2.742   4.165 -0.6010 -0.2829 -1.9757
 4777SOL     OW19650   9.261   2.586   5.638 -0.0487 -0.3224 -0.6693
 4777SOL    HW119651   9.190   2.564   5.698 -0.1903  2.5229  0.3999
 4777SOL    HW219652   9.221   2.641   5.571  0.6163 -1.2489 -1.8734
 4778SOL     OW19653   4.212  11.441   3.769  0.0175  0.0190  0.3824
 4778SOL    HW119654   4.262  11.496   3.708  0.0711 -0.3011  0.1343
 4778SOL    HW219655   4.278  11.404   3.828  0.1070 -0.5699 -0.0756
 4779SOL     OW19656   2.856   5.306   0.605  0.1838  0.2389 -0.7474
 4779SOL    HW119657   2.939   5.345   0.632  0.2390  0.7314 -1.6027
 4779SOL    HW219658   2.880   5.233   0.548  0.0427 -0.1508 -0.3174
 4780SOL     OW19659   3.460   0.337   4.711  0.1288 -0.0461 -0.2399
 4780SOL    HW119660   3.379   0.327   4.661 -0.8301  0.0862  1.2200
 4780SOL    HW219661   3.471   0.432   4.721 -0.0946 -0.0877  0.4288
 4781SOL     OW19662   6.110   2.464   6.889  0.1328 -0.3838  0.6753
 4781SOL    HW119663   6.056   2.494   6.815 -0.8939  1.7198  2.1833
 4781SOL    HW219664   6.185   2.524   6.889  2.0619 -2.6091 -0.7357
 4782SOL     OW19665   4.904   5.157  11.784  0.4429 -0.1230  0.0433
 4782SOL    HW119666   4.979   5.147  11.726 -0.0832 -0.3415 -0.6205
 4782SOL    HW219667   4.905   5.078  11.839 -0.1266 -0.8488 -0.9592
 4783SOL     OW19668   7.087   4.808   9.087 -0.2076  0.4495 -0.4796
 4783SOL    HW119669   7.081   4.887   9.033  0.2695  0.3167 -0.7349
 4783SOL    HW219670   7.107   4.739   9.025  1.1998  0.4298 -0.0377
 4784SOL     OW19671   0.718   5.122   1.361  0.0894  0.5204  0.1577
 4784SOL    HW119672   0.651   5.185   1.387 -0.2677  0.0991  0.2580
 4784SOL    HW219673   0.672   5.039   1.355 -0.3323  0.8435 -3.6993
 4785SOL     OW19674   9.351   4.813   1.439  0.0982 -0.5506  0.4028
 4785SOL    HW119675   9.416   4.744   1.452 -0.3107 -0.7731  1.3493
 4785SOL    HW219676   9.345   4.823   1.344  0.1434 -1.8437  0.2478
 4786SOL     OW19677   8.141   8.536   9.805 -0.3218  0.1213 -0.1350
 4786SOL    HW119678   8.157   8.630   9.808  0.1666  0.0367 -0.0244
 4786SOL    HW219679   8.221   8.496   9.839 -0.1841 -0.3652 -1.0110
 4787SOL     OW19680  10.697   2.057   7.603 -0.4200  0.0867  0.4664
 4787SOL    HW119681  10.764   2.011   7.552 -1.5114 -1.7632  0.6201
 4787SOL    HW219682  10.747   2.108   7.667  0.8857  0.4284 -0.7735
 4788SOL     OW19683  10.235   6.955   9.761 -0.1435  0.4051 -0.5482
 4788SOL    HW119684  10.202   6.879   9.713 -0.0861  0.0334 -0.0092
 4788SOL    HW219685  10.258   6.921   9.847  0.1826  0.9734 -0.4047
 4789SOL     OW19686   9.966   0.506  10.841  0.0083  0.8023 -0.1194
 4789SOL    HW119687  10.029   0.560  10.887 -0.3109  0.2387  1.0003
 4789SOL    HW219688  10.017   0.461  10.774  0.8454  0.1537  0.9389
 4790SOL     OW19689   7.303   8.335   8.500 -0.0813  0.0409  0.4339
 4790SOL    HW119690   7.295   8.303   8.410 -1.0092 -0.3289  0.6366
 4790SOL    HW219691   7.274   8.426   8.495  0.3236  0.1681  0.2851
 4791SOL     OW19692  10.548   8.739   3.273  0.0847  0.2071 -0.0675
 4791SOL    HW119693  10.512   8.724   3.185  0.1304  0.5445 -0.1443
 4791SOL    HW219694  10.619   8.676   3.280  2.2152  2.2835 -1.5236
 4792SOL     OW19695  11.473   5.792   0.313 -0.6303  0.1517 -0.3559
 4792SOL    HW119696  11.563   5.763   0.305 -0.7776 -0.3851 -0.1528
 4792SOL    HW219697  11.436   5.780   0.226 -0.4831  0.4487 -0.4587
 4793SOL     OW19698   8.890   7.287   3.433  0.1307  0.0544 -0.3142
 4793SOL    HW119699   8.985   7.291   3.440  0.2117  1.7994 -1.7206
 4793SOL    HW219700   8.863   7.378   3.423 -1.5347 -0.5242 -1.4814
 4794SOL     OW19701  10.738   8.790   6.795  0.3435 -0.2396  0.8897
 4794SOL    HW119702  10.729   8.793   6.700 -0.5402 -0.5180  0.9564
 4794SOL    HW219703  10.823   8.749   6.810  1.0378  0.8858  0.2195
 4795SOL     OW19704   4.423   1.215   4.471 -0.1490 -0.3673 -0.0700
 4795SOL    HW119705   4.406   1.132   4.515 -0.6261 -0.7052 -0.8704
 4795SOL    HW219706   4.408   1.282   4.538 -0.6029 -0.8809  0.3452
 4796SOL     OW19707  10.959   7.228   9.690  0.6237 -0.0370 -0.2652
 4796SOL    HW119708  10.891   7.294   9.680  1.0437  0.8304  2.0734
 4796SOL    HW219709  10.929   7.173   9.762  1.2160 -1.2254 -0.8861
 4797SOL     OW19710   8.251   0.370   6.647  0.4034 -0.1491  0.9602
 4797SOL    HW119711   8.282   0.297   6.700  1.4562 -2.1555 -2.1565
 4797SOL    HW219712   8.157   0.375   6.664  0.3373 -2.1344  1.3769
 4798SOL     OW19713   6.923   4.661   7.831 -0.1700 -0.1496 -0.4552
 4798SOL    HW119714   6.966   4.702   7.756  1.1061 -1.7335 -0.6581
 4798SOL    HW219715   6.929   4.726   7.901  0.5153  0.5419 -1.1384
 4799SOL     OW19716   3.371   5.371   0.196 -0.2595 -0.5899  0.5519
 4799SOL    HW119717   3.374   5.315   0.118 -1.8870 -0.3099  0.2646
 4799SOL    HW219718   3.450   5.425   0.189 -0.3450 -0.6055 -0.8911
 4800SOL     OW19719   1.923   3.210   1.889  0.0276 -0.3246 -0.2916
 4800SOL    HW119720   1.936   3.204   1.795 -0.9372 -0.1253 -0.4486
 4800SOL    HW219721   1.845   3.157   1.907  1.2817 -1.9322  0.6790
 4801SOL     OW19722   4.999   7.527   8.319 -0.3974  0.1288  0.3671
 4801SOL    HW119723   4.925   7.516   8.259 -0.2589  1.4040 -0.0688
 4801SOL    HW219724   4.980   7.467   8.392 -1.8312  0.3876  0.2319
 4802SOL     OW19725  10.409   4.597   4.440  0.3229  0.7775  0.2192
 4802SOL    HW119726  10.335   4.646   4.476 -1.0578  1.5041 -3.2341
 4802SOL    HW219727  10.389   4.505   4.461  0.6888  1.2351  2.9261
 4803SOL     OW19728  11.509   3.064   0.886  0.1645 -0.3154 -0.0110
 4803SOL    HW119729  11.558   2.995   0.841  0.4877  0.6758 -1.2244
 4803SOL    HW219730  11.517   3.141   0.829 -0.7321  0.5538  0.9878
 4804SOL     OW19731  10.837   9.063   9.319 -0.0922 -0.2628  0.4446
 4804SOL    HW119732  10.768   9.004   9.290  0.0994 -0.1566 -0.2542
 4804SOL    HW219733  10.910   9.045   9.260  0.1422  0.3116  0.5515
 4805SOL     OW19734   6.659   5.689   0.745 -0.5006  0.0721 -0.0875
 4805SOL    HW119735   6.647   5.783   0.760  1.0300  0.3804 -0.6160
 4805SOL    HW219736   6.717   5.661   0.816  1.1517  0.0989 -1.3781
 4806SOL     OW19737   7.932   4.911  10.799  0.1356 -0.1177 -0.1108
 4806SOL    HW119738   7.867   4.886  10.865  0.8683  1.3931  1.2408
 4806SOL    HW219739   7.892   4.984  10.752  0.4082  0.1068  0.0018
 4807SOL     OW19740   5.239   0.720   2.675  0.0901  0.4363  0.0745
 4807SOL    HW119741   5.321   0.672   2.681  0.3850  0.8410 -0.5859
 4807SOL    HW219742   5.193   0.680   2.602 -0.0698  0.5505  0.1118
 4808SOL     OW19743  10.042   5.497  10.112 -0.1040  0.3573  0.4288
 4808SOL    HW119744  10.047   5.427  10.047  0.7147  1.0554 -0.2948
 4808SOL    HW219745  10.126   5.542  10.104 -1.0837  2.1845  0.0047
 4809SOL     OW19746   6.512  10.923   6.952  0.5412  0.0621  0.3503
 4809SOL    HW119747   6.605  10.913   6.930  0.3216 -0.5223 -0.3279
 4809SOL    HW219748   6.474  10.966   6.876  0.3075  0.5917  0.7594
 4810SOL     OW19749  11.683   9.658  11.592  0.1524  0.2310  0.4491
 4810SOL    HW119750  11.679   9.654  11.688 -0.9350 -0.5455  0.3933
 4810SOL    HW219751  11.616   9.721  11.568 -0.6666 -0.7220  0.1488
 4811SOL     OW19752   7.175   6.169   1.206 -0.6111  0.3055 -0.0760
 4811SOL    HW119753   7.183   6.260   1.234  1.4087  1.6395 -4.1733
 4811SOL    HW219754   7.089   6.165   1.163  0.1908  1.0510 -1.8657
 4812SOL     OW19755   6.047   3.774   3.210  0.0634 -0.2098  0.3596
 4812SOL    HW119756   6.088   3.814   3.133  1.2346 -0.7155  0.6994
 4812SOL    HW219757   6.062   3.836   3.281 -2.2474  0.9305 -0.0597
 4813SOL     OW19758   1.976   6.349   3.823  0.0961  0.0968  0.1222
 4813SOL    HW119759   1.903   6.392   3.778 -0.7146  0.9834  2.1338
 4813SOL    HW219760   1.981   6.262   3.783 -0.2457  0.9661 -1.9390
 4814SOL     OW19761   4.553   4.898   1.430 -0.1717  0.1994 -0.4169
 4814SOL    HW119762   4.580   4.972   1.376  0.1306 -0.2071 -0.8273
 4814SOL    HW219763   4.558   4.822   1.372  0.8287 -0.3565  0.3545
 4815SOL     OW19764   1.801   3.464   8.473 -0.0395 -0.1248  0.7128
 4815SOL    HW119765   1.790   3.373   8.446 -1.7543  0.0435  0.7796
 4815SOL    HW219766   1.896   3.476   8.476  0.2638 -1.1000 -2.0318
 4816SOL     OW19767   4.592   9.154  10.020 -0.3778  0.3512 -0.0428
 4816SOL    HW119768   4.556   9.203  10.094  1.5099  0.0327  1.1162
 4816SOL    HW219769   4.549   9.069  10.024  0.6449 -0.1272  1.5008
 4817SOL     OW19770   3.098   2.926   5.057  0.1952  0.2152 -0.1730
 4817SOL    HW119771   3.100   2.832   5.040 -1.1678  0.1531 -0.1389
 4817SOL    HW219772   3.105   2.934   5.152  1.9445  0.2521 -0.2822
 4818SOL     OW19773   2.964   4.991   9.697 -0.0793  0.3302  0.4019
 4818SOL    HW119774   2.960   5.023   9.607  0.5067 -1.6415 -0.3904
 4818SOL    HW219775   3.025   5.051   9.741  0.3656  0.7753 -0.7702
 4819SOL     OW19776  11.725   7.347  11.365  0.8345 -0.7819  0.5800
 4819SOL    HW119777  11.756   7.276  11.308 -0.0220 -0.6514 -0.0679
 4819SOL    HW219778  11.630   7.339  11.363  0.5408  1.9250 -1.5762
 4820SOL     OW19779   8.999   7.637   1.063 -0.2512  0.4541 -0.4508
 4820SOL    HW119780   8.917   7.679   1.089 -0.9099 -0.2496 -1.3330
 4820SOL    HW219781   8.979   7.596   0.979  0.2653 -1.8855  0.4901
 4821SOL     OW19782  10.255  11.254  11.184 -0.2827  0.3301 -0.3446
 4821SOL    HW119783  10.166  11.261  11.150  0.4926 -0.8409 -2.8667
 4821SOL    HW219784  10.300  11.332  11.152 -0.0703  0.2520 -0.2398
 4822SOL     OW19785  10.814  10.315  10.688  0.3083 -0.9251 -0.2162
 4822SOL    HW119786  10.773  10.229  10.686  0.1986 -0.8967 -2.9123
 4822SOL    HW219787  10.906  10.298  10.668  0.3231 -0.4489 -0.5768
 4823SOL     OW19788  10.722   6.456   4.928 -0.2816 -0.0289 -0.1259
 4823SOL    HW119789  10.654   6.393   4.904 -0.2442 -0.5288  1.0001
 4823SOL    HW219790  10.676   6.541   4.930 -0.5853 -0.1804 -0.5611
 4824SOL     OW19791   7.094   0.586   2.630  0.2746  0.2177 -0.4419
 4824SOL    HW119792   7.084   0.651   2.561 -0.4912  1.5054  0.8270
 4824SOL    HW219793   7.051   0.625   2.707 -0.3372 -1.8366  0.3342
 4825SOL     OW19794   8.133   9.113   7.307 -0.1748 -0.0443  0.2524
 4825SOL    HW119795   8.213   9.166   7.302 -0.1460 -0.0204  0.8750
 4825SOL    HW219796   8.074   9.162   7.364 -0.9380  0.3061 -0.8196
 4826SOL     OW19797  10.079   4.393   9.083  0.2860 -0.3968 -0.2806
 4826SOL    HW119798  10.172   4.410   9.094  0.1436  1.1505 -1.1463
 4826SOL    HW219799  10.039   4.424   9.164  0.2303  1.9945 -1.1419
 4827SOL     OW19800   9.547   7.576   2.417 -0.1638  0.9164 -0.4692
 4827SOL    HW119801   9.518   7.667   2.410 -3.2798  0.0139 -0.5309
 4827SOL    HW219802   9.602   7.575   2.496 -0.7260  2.6777 -0.0023
 4828SOL     OW19803   5.795   5.391  11.218  0.1310 -0.2265  0.1011
 4828SOL    HW119804   5.762   5.306  11.248  0.9630  0.1007  2.1177
 4828SOL    HW219805   5.864   5.414  11.281  0.4327  1.6171 -0.8162
 4829SOL     OW19806   4.053   7.540   3.265 -0.0621  0.3937 -0.1002
 4829SOL    HW119807   4.017   7.570   3.348 -2.2264  0.5692 -1.0321
 4829SOL    HW219808   4.072   7.621   3.217 -1.6532  0.3424 -0.8824
 4830SOL     OW19809   9.069   7.987   7.384  0.0521 -0.3772  1.0401
 4830SOL    HW119810   9.053   7.991   7.290  0.2765  0.1944  1.0204
 4830SOL    HW219811   8.990   8.023   7.424 -0.0203 -0.5689  1.0729
 4831SOL     OW19812  10.220   8.846   5.986 -0.3537 -0.0862  0.0177
 4831SOL    HW119813  10.199   8.760   6.023 -2.7002  0.2344 -0.4022
 4831SOL    HW219814  10.242   8.828   5.895 -1.4480 -0.2404 -0.2395
 4832SOL     OW19815   3.327   0.836   3.790 -0.0321  0.5128  0.2323
 4832SOL    HW119816   3.375   0.918   3.803  0.0070  0.3102  1.4961
 4832SOL    HW219817   3.381   0.770   3.832 -0.7402  0.0564  0.4472
 4833SOL     OW19818   8.288   2.855   9.893 -0.0743 -0.0212 -0.3631
 4833SOL    HW119819   8.245   2.793   9.952  0.4556 -0.7374 -0.7084
 4833SOL    HW219820   8.311   2.802   9.816 -0.6685  0.8650 -1.1817
 4834SOL     OW19821   1.649   6.783  11.359 -0.3868 -0.3748  0.1212
 4834SOL    HW119822   1.555   6.796  11.342 -0.9897 -1.0070  2.5166
 4834SOL    HW219823   1.659   6.687  11.363  0.9398 -0.4477 -2.5800
 4835SOL     OW19824   2.091   5.095   4.616  0.4331  0.1054  0.3409
 4835SOL    HW119825   2.086   5.114   4.522 -3.0223  0.7541  0.5133
 4835SOL    HW219826   2.177   5.129   4.642  2.2179 -1.5103 -2.7768
 4836SOL     OW19827   8.441   8.543   5.024 -0.1991 -0.2137 -0.4006
 4836SOL    HW119828   8.394   8.489   4.961 -0.4835 -1.0641  0.5008
 4836SOL    HW219829   8.375   8.605   5.056 -0.4919 -0.8240  0.2099
 4837SOL     OW19830   5.205   5.318   8.212 -0.2190  0.3254  0.3190
 4837SOL    HW119831   5.197   5.264   8.291  1.2954 -0.7348 -0.2061
 4837SOL    HW219832   5.167   5.402   8.236 -2.0039 -0.7346  1.4005
 4838SOL     OW19833   9.500   6.918   3.156 -0.5936 -0.3031 -0.2539
 4838SOL    HW119834   9.552   6.983   3.109 -0.6527 -0.0659  0.0067
 4838SOL    HW219835   9.539   6.916   3.243 -2.2019  1.2724  0.5627
 4839SOL     OW19836   1.912  10.621   0.526 -0.4458 -0.1364 -0.0609
 4839SOL    HW119837   1.932  10.557   0.594  0.1686  0.5574  0.4201
 4839SOL    HW219838   1.883  10.569   0.451  1.3120 -1.0809 -0.1385
 4840SOL     OW19839   9.229  11.621   2.806  0.1716 -0.6338  0.2324
 4840SOL    HW119840   9.142  11.587   2.825 -0.3204  0.1564 -0.5318
 4840SOL    HW219841   9.216  11.681   2.732  1.0879  0.8339  1.2197
 4841SOL     OW19842   5.331   5.196  11.180 -0.2374  0.4013 -0.7666
 4841SOL    HW119843   5.254   5.143  11.158 -0.5642  1.0877 -1.3013
 4841SOL    HW219844   5.383   5.196  11.100  1.1690 -1.4370  0.0739
 4842SOL     OW19845  10.459   7.208   5.057  0.0694 -0.4496 -0.5682
 4842SOL    HW119846  10.508   7.286   5.081  0.6451 -1.1086  0.5037
 4842SOL    HW219847  10.489   7.186   4.969 -0.1902  0.5989 -0.9222
 4843SOL     OW19848   3.273   1.017   8.280  0.1967  0.7486 -0.4204
 4843SOL    HW119849   3.324   1.049   8.354  0.2519  1.5479 -0.7946
 4843SOL    HW219850   3.337   1.003   8.211  0.2520 -0.7249 -0.0991
 4844SOL     OW19851   9.573   3.388   5.733 -0.2005 -0.2604  0.1858
 4844SOL    HW119852   9.502   3.452   5.737 -0.1174 -0.1764  0.3187
 4844SOL    HW219853   9.541   3.313   5.782  0.2987  0.2653  1.3718
 4845SOL     OW19854   1.632  10.949   7.703 -0.2726 -0.6339 -0.3893
 4845SOL    HW119855   1.633  10.896   7.623  0.6133 -2.4587  0.7652
 4845SOL    HW219856   1.725  10.965   7.722 -0.5035  0.6160 -0.2376
 4846SOL     OW19857  11.011   6.265   4.669 -0.3603 -0.1748  0.2282
 4846SOL    HW119858  11.012   6.314   4.751 -0.8039 -0.3465  0.3392
 4846SOL    HW219859  11.076   6.196   4.682 -0.2188 -0.0246  0.3246
 4847SOL     OW19860   9.782   3.304   5.940 -0.3690 -0.4033  0.5327
 4847SOL    HW119861   9.730   3.258   5.874  0.0055 -0.1473  0.0535
 4847SOL    HW219862   9.852   3.345   5.890  0.9303 -1.6156  1.2704
 4848SOL     OW19863   4.786   1.683   1.244  0.1392  0.1400  0.4654
 4848SOL    HW119864   4.827   1.694   1.158 -0.5120 -2.7855 -0.3033
 4848SOL    HW219865   4.851   1.718   1.306  2.8338 -2.0860 -0.8724
 4849SOL     OW19866   1.034   0.471   8.764 -0.0142  0.2012 -0.0027
 4849SOL    HW119867   1.128   0.476   8.781 -0.2739  0.1966  1.5583
 4849SOL    HW219868   1.025   0.395   8.706  0.7969 -0.9223  1.2645
 4850SOL     OW19869  11.390   5.499   6.252  0.2167 -0.3874 -0.0400
 4850SOL    HW119870  11.349   5.574   6.296 -0.6654  0.8845 -2.8299
 4850SOL    HW219871  11.336   5.425   6.278  0.4168  0.0700  1.8720
 4851SOL     OW19872   7.687  10.118   8.600 -0.2574 -0.3033  0.4799
 4851SOL    HW119873   7.676  10.037   8.649  1.2649 -0.5342  0.4731
 4851SOL    HW219874   7.713  10.090   8.512 -1.0910  0.1693  0.0630
 4852SOL     OW19875   9.755   0.174   9.413  0.0723  0.2766 -0.4376
 4852SOL    HW119876   9.760   0.134   9.500 -0.3441  0.7960 -0.1681
 4852SOL    HW219877   9.842   0.163   9.376  0.2678  0.1068  0.0702
 4853SOL     OW19878  10.144  10.289   8.688 -0.6069  0.2623  0.3573
 4853SOL    HW119879  10.210  10.309   8.754  0.3316  0.1680 -0.5299
 4853SOL    HW219880  10.145  10.193   8.681 -0.5104  0.2879  0.0149
 4854SOL     OW19881   8.520   0.231   1.499 -0.2390  0.2920 -0.1706
 4854SOL    HW119882   8.445   0.223   1.557  0.0242 -1.0595  0.0096
 4854SOL    HW219883   8.483   0.220   1.411 -0.3534  0.3672 -0.1325
 4855SOL     OW19884   8.716   9.137   0.567 -0.1836  0.3985 -0.5527
 4855SOL    HW119885   8.675   9.069   0.620  1.1643 -2.0878 -2.4879
 4855SOL    HW219886   8.643   9.189   0.533 -1.3333 -0.6811  0.1854
 4856SOL     OW19887   2.848   3.588   9.527 -0.3632 -0.0984 -1.0191
 4856SOL    HW119888   2.916   3.573   9.461  0.6762  1.7521 -0.4362
 4856SOL    HW219889   2.875   3.668   9.572 -0.8741 -1.4304  1.8894
 4857SOL     OW19890  11.775  10.060   2.692  0.7865  0.0626 -0.4547
 4857SOL    HW119891  11.816   9.985   2.646 -0.2412 -1.9027  1.6430
 4857SOL    HW219892  11.841  10.129   2.686  2.5065 -1.5106 -1.0970
 4858SOL     OW19893   2.920   0.087   0.464  0.0718  0.2501 -0.0434
 4858SOL    HW119894   2.869   0.136   0.529  0.8476 -1.4399  1.9395
 4858SOL    HW219895   2.874   0.003   0.456  0.7627 -0.0809 -0.6397
 4859SOL     OW19896   7.975   9.805   1.172 -0.2570  0.1272  0.3517
 4859SOL    HW119897   7.961   9.771   1.084 -2.5139 -0.7409  0.9905
 4859SOL    HW219898   8.020   9.735   1.219 -1.5404 -0.5530  0.6172
 4860SOL     OW19899   5.094   6.190  11.177 -0.2867  0.1297  0.3741
 4860SOL    HW119900   5.070   6.277  11.146 -2.7001 -0.2199  1.0423
 4860SOL    HW219901   5.165   6.206  11.240  0.2215  1.4424 -0.4844
 4861SOL     OW19902  11.361   5.564  11.253 -0.5576  0.4774  0.0397
 4861SOL    HW119903  11.456   5.563  11.244 -0.6681  0.2346 -1.3568
 4861SOL    HW219904  11.340   5.479  11.294 -0.3231 -0.6405 -2.0040
 4862SOL     OW19905   0.077  11.129   6.501  0.1766 -0.0963 -0.3326
 4862SOL    HW119906   0.038  11.074   6.569  0.3785  1.4780  1.1354
 4862SOL    HW219907   0.103  11.209   6.547  3.6430 -0.3616 -1.4826
 4863SOL     OW19908   6.011   7.048  11.564  0.8727 -0.5085  0.2507
 4863SOL    HW119909   5.956   6.974  11.537 -0.0982  1.0325 -2.3604
 4863SOL    HW219910   5.950   7.111  11.602  1.5920 -0.6802  1.7825
 4864SOL     OW19911   3.652   1.969   1.213  0.0134 -0.1082 -0.0055
 4864SOL    HW119912   3.694   1.890   1.178 -0.7036 -0.8944  0.8370
 4864SOL    HW219913   3.617   1.941   1.298 -0.5151  1.0465  0.1728
 4865SOL     OW19914   7.371   3.485  10.874 -0.5323  0.0067  0.5902
 4865SOL    HW119915   7.289   3.517  10.838 -0.3487  0.3451  0.4689
 4865SOL    HW219916   7.436   3.551  10.849 -0.4572  0.4452  1.8448
 4866SOL     OW19917   7.931   0.515   9.103  0.4539  0.0654  0.5029
 4866SOL    HW119918   7.900   0.429   9.077  0.5298 -0.0070  0.6505
 4866SOL    HW219919   7.853   0.570   9.105  0.6004  0.3733 -1.0664
 4867SOL     OW19920   9.764   4.837   5.065  0.4436 -0.2430  0.4232
 4867SOL    HW119921   9.797   4.881   4.987  1.2299 -0.8126  0.4191
 4867SOL    HW219922   9.696   4.895   5.099 -0.3485 -0.2754 -1.0291
 4868SOL     OW19923   3.585   1.610   8.100 -0.0868  0.1656 -0.4530
 4868SOL    HW119924   3.609   1.630   8.190 -0.7241 -0.0326 -0.2290
 4868SOL    HW219925   3.490   1.601   8.102 -0.0701 -0.2409 -1.0658
 4869SOL     OW19926   0.175   8.615   7.272 -0.9607 -0.2294  0.1111
 4869SOL    HW119927   0.188   8.591   7.364  0.5789  1.9498  0.5401
 4869SOL    HW219928   0.264   8.619   7.235 -1.4255  0.6366 -0.9924
 4870SOL     OW19929   8.094   5.946   1.358  0.8540 -0.6258 -0.6271
 4870SOL    HW119930   8.068   5.958   1.267 -0.7554 -0.1461 -0.1379
 4870SOL    HW219931   8.134   6.029   1.383 -0.1477 -0.1813 -0.4565
 4871SOL     OW19932   0.988   3.447   1.936 -0.0167 -0.1037 -0.4338
 4871SOL    HW119933   0.991   3.352   1.947  2.1960 -0.0729 -0.2853
 4871SOL    HW219934   0.992   3.460   1.842 -1.4686 -0.1374 -0.5239
 4872SOL     OW19935   7.157   5.795   5.543 -0.1169 -0.1122 -0.8422
 4872SOL    HW119936   7.238   5.841   5.523  0.7214 -0.4925  1.3509
 4872SOL    HW219937   7.185   5.715   5.588 -1.6994  0.2162  0.8534
 4873SOL     OW19938   5.681  11.341   3.647  0.3708 -0.0200 -0.5839
 4873SOL    HW119939   5.588  11.329   3.626  0.2453  2.0461 -1.4425
 4873SOL    HW219940   5.726  11.336   3.563  0.8909  0.1332 -0.3217
 4874SOL     OW19941   2.681   3.328   3.834 -0.0395  0.3379  0.2728
 4874SOL    HW119942   2.663   3.419   3.859  1.7001  1.1138 -1.0374
 4874SOL    HW219943   2.640   3.319   3.748  0.7015  0.2666 -0.0879
 4875SOL     OW19944   3.673   7.992   8.761  0.1783  0.0541 -0.0426
 4875SOL    HW119945   3.767   8.006   8.757  0.2431 -0.0209  0.8277
 4875SOL    HW219946   3.648   8.024   8.848 -0.4102 -0.9386  0.1683
 4876SOL     OW19947   9.041   6.884  11.337  0.5243 -0.3939 -0.3778
 4876SOL    HW119948   8.994   6.933  11.269  0.7726  0.9461  0.3771
 4876SOL    HW219949   9.099   6.825  11.289  0.2991  0.1324 -1.3204
 4877SOL     OW19950   3.420   1.159   8.606  0.6042 -0.0290 -0.0756
 4877SOL    HW119951   3.459   1.244   8.622  0.4336 -0.1871  1.2890
 4877SOL    HW219952   3.412   1.119   8.692 -0.4240 -0.9409 -0.5621
 4878SOL     OW19953   2.134   0.189  11.263  0.1872 -0.2298 -0.7730
 4878SOL    HW119954   2.141   0.103  11.222 -0.9587 -1.0623  0.6721
 4878SOL    HW219955   2.083   0.242  11.201  1.1126 -0.4988 -1.7803
 4879SOL     OW19956   1.645  11.426   2.851 -0.0829 -0.5533  0.2810
 4879SOL    HW119957   1.739  11.419   2.867 -0.1597 -2.0447  0.2078
 4879SOL    HW219958   1.605  11.420   2.938 -0.0843  1.8500  0.5243
 4880SOL     OW19959   7.087   6.025  11.773  0.2338 -0.2963 -0.0040
 4880SOL    HW119960   7.044   6.086  11.833 -1.4668 -1.1835 -0.2717
 4880SOL    HW219961   7.133   6.082  11.710 -1.5562  0.7368 -0.4401
 4881SOL     OW19962   2.007   8.401   5.100 -0.4036 -0.2177  0.1398
 4881SOL    HW119963   1.913   8.396   5.085 -0.5105 -0.2547  0.8249
 4881SOL    HW219964   2.035   8.310   5.107 -0.5321 -0.1744  1.2665
 4882SOL     OW19965   8.472   8.324   8.218 -0.2732  0.0322  0.3655
 4882SOL    HW119966   8.554   8.276   8.232  0.8384  0.9599 -2.2643
 4882SOL    HW219967   8.500   8.408   8.180 -2.4216  0.6395 -0.0117
 4883SOL     OW19968   9.616   2.472  11.604 -0.1218  0.0228 -0.2197
 4883SOL    HW119969   9.528   2.454  11.639 -0.1955 -0.1095 -0.4687
 4883SOL    HW219970   9.621   2.567  11.599 -0.2662  0.0296 -0.2396
 4884SOL     OW19971   8.591   5.237   4.144  0.0824  0.3495 -0.2416
 4884SOL    HW119972   8.610   5.149   4.112  2.5093  0.4238  0.8363
 4884SOL    HW219973   8.571   5.226   4.237  2.6006  1.0992  0.4511
 4885SOL     OW19974   5.389   0.188   4.471  0.4424 -0.6875 -0.2956
 4885SOL    HW119975   5.405   0.097   4.444  0.5755 -0.6789 -0.2497
 4885SOL    HW219976   5.440   0.240   4.409  0.4705 -0.6503 -0.2409
 4886SOL     OW19977   1.216   6.851   6.617 -0.1568 -0.1009  0.2873
 4886SOL    HW119978   1.238   6.915   6.549 -0.7683  0.7946  0.9118
 4886SOL    HW219979   1.218   6.767   6.571 -0.3985  0.4608 -0.8055
 4887SOL     OW19980   5.258  11.531   2.652  0.4019  0.6590  0.4485
 4887SOL    HW119981   5.177  11.482   2.661 -0.6850  1.6401 -2.5410
 4887SOL    HW219982   5.327  11.467   2.671 -1.0272 -0.6809  1.3458
 4888SOL     OW19983   3.822   2.184   8.770 -0.1648 -0.4199  0.0623
 4888SOL    HW119984   3.824   2.253   8.837  0.0885  0.3220 -0.6848
 4888SOL    HW219985   3.847   2.229   8.690  0.2521 -1.4548 -0.3980
 4889SOL     OW19986   0.235   5.518   8.521 -0.4367 -0.3687  0.2039
 4889SOL    HW119987   0.330   5.512   8.525 -0.5111 -0.9425  1.9665
 4889SOL    HW219988   0.216   5.612   8.521  0.1131 -0.2495 -0.4033
 4890SOL     OW19989   0.521   7.978   7.166  0.1165 -0.3917  0.6116
 4890SOL    HW119990   0.564   7.904   7.210  1.0510 -0.8748 -1.0309
 4890SOL    HW219991   0.507   7.947   7.077  0.1093  1.2646  0.0122
 4891SOL     OW19992   4.089  10.620   5.644 -0.1535 -0.5043  0.2145
 4891SOL    HW119993   4.003  10.579   5.648 -0.0659 -0.6855  0.2516
 4891SOL    HW219994   4.149  10.548   5.625  0.1325 -0.5795  1.3289
 4892SOL     OW19995   7.425   5.379   9.257 -0.2031  0.0159  0.4975
 4892SOL    HW119996   7.336   5.383   9.291 -0.4999 -2.4377  0.1855
 4892SOL    HW219997   7.480   5.366   9.334 -0.0516  1.7424  0.7137
 4893SOL     OW19998   5.000   5.066   0.587  0.8671 -0.3064  0.0483
 4893SOL    HW119999   4.947   5.089   0.511  1.6117  1.8288  0.1018
 4893SOL    HW220000   4.938   5.060   0.660  0.4270 -0.0128 -0.2991
 4894SOL     OW20001  11.125   7.646   4.676 -0.1550 -0.2848 -0.2859
 4894SOL    HW120002  11.200   7.652   4.736 -0.1618 -0.5813 -0.2459
 4894SOL    HW220003  11.164   7.646   4.589 -0.0432 -1.2903 -0.2509
 4895SOL     OW20004   6.054   9.846   2.643 -0.4317  0.1621  0.0742
 4895SOL    HW120005   5.981   9.822   2.700  0.0059 -0.1047  0.5289
 4895SOL    HW220006   6.024   9.823   2.555  0.1079 -2.5649  0.5046
 4896SOL     OW20007   1.601   8.870   0.967 -0.4406  0.3167 -0.0014
 4896SOL    HW120008   1.686   8.859   0.924 -0.9191  0.2500 -0.9551
 4896SOL    HW220009   1.623   8.904   1.054  0.6126 -0.7561  0.1814
 4897SOL     OW20010   2.563   9.520   1.422 -0.1760  0.2495 -0.4004
 4897SOL    HW120011   2.624   9.581   1.380  2.6128 -0.2134  2.5132
 4897SOL    HW220012   2.584   9.435   1.385  0.9477  0.1199  0.4655
 4898SOL     OW20013   7.683   3.104   9.644  0.5020  0.0884  0.0242
 4898SOL    HW120014   7.740   3.135   9.714  2.2191 -1.2780 -0.6981
 4898SOL    HW220015   7.668   3.011   9.664  0.8232 -0.2690 -1.2541
 4899SOL     OW20016   9.125   7.856   4.612  0.2778  0.3322 -0.1887
 4899SOL    HW120017   9.098   7.918   4.544  1.8410  1.6250  0.3170
 4899SOL    HW220018   9.044   7.838   4.660 -0.4854  0.8590 -1.2224
 4900SOL     OW20019   8.170   9.969   9.509  0.1451  0.0471  0.1888
 4900SOL    HW120020   8.113   9.940   9.581  0.0953 -1.0037 -0.2503
 4900SOL    HW220021   8.213   9.889   9.479  0.6446  0.5756 -0.5427
 4901SOL     OW20022   2.925   5.082   2.474  0.0840 -0.3295  0.2201
 4901SOL    HW120023   2.913   5.151   2.539 -0.1991  0.4123 -0.6004
 4901SOL    HW220024   2.846   5.029   2.481 -0.9921  1.0502 -1.0346
 4902SOL     OW20025   1.354  10.771  10.153  0.1020 -0.1341  0.0064
 4902SOL    HW120026   1.323  10.739  10.238  3.0854 -1.4454  0.7220
 4902SOL    HW220027   1.375  10.691  10.104 -1.3490  0.6003 -1.9685
 4903SOL     OW20028   9.365   8.406   0.286  0.3104  0.2204 -0.4433
 4903SOL    HW120029   9.427   8.359   0.343 -0.1226  0.5286  0.2891
 4903SOL    HW220030   9.285   8.353   0.289  0.3440  0.1404 -0.9209
 4904SOL     OW20031  10.408   5.753   2.524 -0.1029  0.1392 -0.0808
 4904SOL    HW120032  10.489   5.804   2.530 -0.1544  0.3972 -1.2297
 4904SOL    HW220033  10.343   5.814   2.490 -0.0246 -0.7772 -2.0604
 4905SOL     OW20034  10.804   5.327   8.209  0.5592 -0.4084 -0.6156
 4905SOL    HW120035  10.798   5.312   8.303  0.3341  0.1927 -0.5305
 4905SOL    HW220036  10.733   5.388   8.189  1.0034 -0.0232 -1.0646
 4906SOL     OW20037   7.147  10.104   5.766  0.0717 -0.0132 -0.2008
 4906SOL    HW120038   7.195  10.033   5.724  0.1951 -0.2363  0.3040
 4906SOL    HW220039   7.058  10.071   5.775 -1.0982  1.5767 -4.0397
 4907SOL     OW20040   0.545   5.523   8.560  0.1741 -0.2636  0.4476
 4907SOL    HW120041   0.624   5.494   8.605  0.4364 -0.1083  0.0968
 4907SOL    HW220042   0.577   5.562   8.478 -0.2348  0.1534  0.4794
 4908SOL     OW20043   2.433   7.215   5.532  0.3572  0.1206 -0.2977
 4908SOL    HW120044   2.502   7.204   5.466 -0.8928  0.5258 -1.7428
 4908SOL    HW220045   2.433   7.132   5.579 -0.5046 -1.3459 -2.6666
 4909SOL     OW20046   1.835   7.787   6.940  0.2049 -0.2156 -0.4431
 4909SOL    HW120047   1.766   7.832   6.891  0.1321 -0.2885 -0.4086
 4909SOL    HW220048   1.904   7.771   6.876  0.7823  1.0887 -0.1710
 4910SOL     OW20049  11.447   5.976   6.087 -0.0671 -0.2814  1.2110
 4910SOL    HW120050  11.364   5.932   6.066 -1.5165  2.5006  0.6417
 4910SOL    HW220051  11.435   6.008   6.176  1.2511 -1.5591  1.8867
 4911SOL     OW20052  11.428   6.545   3.026  0.5353  0.3967 -0.0595
 4911SOL    HW120053  11.392   6.582   3.107 -0.2790  3.3929 -1.6403
 4911SOL    HW220054  11.513   6.588   3.016  1.4708 -1.3267  0.0387
 4912SOL     OW20055   7.229   2.890  11.584 -0.4559  0.3783  0.3152
 4912SOL    HW120056   7.233   2.925  11.673 -0.4189  1.7942 -0.2274
 4912SOL    HW220057   7.162   2.822  11.588 -1.0950  1.0431  1.2092
 4913SOL     OW20058   8.579   5.586   8.118 -0.4047  0.0620 -0.0044
 4913SOL    HW120059   8.495   5.583   8.163 -0.0913  1.3526  0.7031
 4913SOL    HW220060   8.632   5.518   8.161 -0.1630  1.1638  1.5191
 4914SOL     OW20061   8.656   7.422  11.781  0.2888 -0.2826  0.3447
 4914SOL    HW120062   8.718   7.405  11.710  0.4268  0.0745  0.3783
 4914SOL    HW220063   8.696   7.380  11.858  0.6573  0.2269  0.4400
 4915SOL     OW20064   8.980   8.726  11.601 -0.3048  0.6468  0.3364
 4915SOL    HW120065   9.031   8.650  11.630  0.1218  0.5166 -0.7248
 4915SOL    HW220066   8.983   8.723  11.506  1.1583  2.9516  0.2447
 4916SOL     OW20067   1.074   0.002   9.057  0.1368  0.2764  0.1501
 4916SOL    HW120068   1.020  -0.004   9.136  0.7253 -0.6848  0.4989
 4916SOL    HW220069   1.032  -0.057   8.994  1.1069 -1.0192  0.6513
 4917SOL     OW20070   5.161   6.875   8.493 -0.0385 -0.1146 -0.0765
 4917SOL    HW120071   5.129   6.795   8.535 -0.4632 -0.8480 -1.7339
 4917SOL    HW220072   5.137   6.945   8.554  0.0527 -1.1931  1.2516
 4918SOL     OW20073   9.976   8.708   3.691  0.1492 -0.1903 -0.9705
 4918SOL    HW120074   9.952   8.798   3.714 -1.0709  0.0600 -3.0477
 4918SOL    HW220075  10.065   8.715   3.655 -0.6569  0.5552 -2.9548
 4919SOL     OW20076   1.697   4.467   4.254  0.2389 -0.3310  0.0625
 4919SOL    HW120077   1.649   4.497   4.331 -1.5658 -1.6147 -0.4923
 4919SOL    HW220078   1.766   4.410   4.288  1.3198  1.3747  0.8609
 4920SOL     OW20079  11.016   8.030   1.821 -0.0915  0.1345  0.1522
 4920SOL    HW120080  11.111   8.041   1.823 -0.1145  0.7143 -1.0897
 4920SOL    HW220081  10.981   8.118   1.828 -0.4626  0.1710 -1.6635
 4921SOL     OW20082   7.067   2.669  11.596 -0.1442 -0.5137  0.4841
 4921SOL    HW120083   7.113   2.610  11.536 -1.8669 -0.3744 -1.1015
 4921SOL    HW220084   7.035   2.612  11.666  0.5329 -0.9817  0.4151
 4922SOL     OW20085   4.152   9.636   9.714 -0.1903 -0.2260 -0.5722
 4922SOL    HW120086   4.240   9.645   9.677 -0.0958 -2.7808 -1.1210
 4922SOL    HW220087   4.154   9.553   9.760 -1.7864  0.5992  1.0884
 4923SOL     OW20088   4.361   9.933   4.968  0.1697  0.3234  0.3842
 4923SOL    HW120089   4.309   9.919   5.047  0.4813 -0.4141  0.4577
 4923SOL    HW220090   4.402   9.849   4.950 -0.3379  0.3128 -0.8818
 4924SOL     OW20091  11.606   0.599   8.381  0.0875  0.3652  0.3108
 4924SOL    HW120092  11.678   0.570   8.437  0.1230  0.6309  0.4030
 4924SOL    HW220093  11.527   0.578   8.430  0.0192 -1.5809 -0.5503
 4925SOL     OW20094   2.733   6.672   7.775 -0.5565  0.0312 -0.6009
 4925SOL    HW120095   2.732   6.763   7.743 -0.3830  1.1462  2.2890
 4925SOL    HW220096   2.791   6.674   7.851  1.2239 -3.0437 -1.6988
 4926SOL     OW20097   8.706   0.027   8.186  0.0988 -0.2573 -0.4510
 4926SOL    HW120098   8.763   0.077   8.127  1.2161 -0.8760  0.0767
 4926SOL    HW220099   8.730   0.057   8.274 -1.0259  0.1117 -0.2467
 4927SOL     OW20100   1.635   5.373   3.075 -0.5184  0.3409 -0.1630
 4927SOL    HW120101   1.596   5.446   3.124  0.1248  0.3651  0.3366
 4927SOL    HW220102   1.702   5.338   3.135  0.8047  0.8394 -1.3098
 4928SOL     OW20103   1.446   9.016   4.106  0.1440  0.2903 -0.0270
 4928SOL    HW120104   1.504   9.005   4.181 -0.3998  1.0205  0.5047
 4928SOL    HW220105   1.485   9.088   4.056 -0.8958  1.5365  0.9179
 4929SOL     OW20106   4.410  10.406   8.289  0.1774 -0.2737 -0.3892
 4929SOL    HW120107   4.335  10.354   8.318 -2.2679  0.7658 -4.0732
 4929SOL    HW220108   4.458  10.349   8.229 -1.6367  0.9350 -3.2251
 4930SOL     OW20109   2.614   0.264  10.436 -0.2284  0.2764  0.0411
 4930SOL    HW120110   2.572   0.311  10.507 -1.2029 -1.8456  0.9463
 4930SOL    HW220111   2.701   0.241  10.469 -0.8224 -1.0514  0.7646
 4931SOL     OW20112   9.793   6.412   0.270 -0.2905  0.0025  0.2938
 4931SOL    HW120113   9.731   6.348   0.305  0.3783 -0.7605  0.1069
 4931SOL    HW220114   9.766   6.495   0.310 -0.0698 -0.6873  2.0012
 4932SOL     OW20115   1.231   2.983   2.792  0.5533  0.3483 -0.3587
 4932SOL    HW120116   1.294   2.965   2.722  0.8244 -1.0531  0.2165
 4932SOL    HW220117   1.177   3.054   2.757  1.6962  0.7840 -1.3366
 4933SOL     OW20118   6.959   8.206   0.573  0.3060 -0.4178 -0.7850
 4933SOL    HW120119   7.048   8.240   0.565  0.4150 -0.6382 -0.5151
 4933SOL    HW220120   6.931   8.192   0.482  0.2905  0.3023 -0.8982
 4934SOL     OW20121   4.772   1.061  11.095  0.1767 -0.2057  0.2747
 4934SOL    HW120122   4.856   1.103  11.115  0.5849 -0.8796  0.0185
 4934SOL    HW220123   4.741   1.106  11.017 -0.3177  0.8916  1.0754
 4935SOL     OW20124   8.885  10.394   6.379 -0.8605 -0.0465 -0.5038
 4935SOL    HW120125   8.923  10.457   6.441  0.0388 -1.4921  0.4634
 4935SOL    HW220126   8.880  10.442   6.297 -0.2991  1.3253  0.2245
 4936SOL     OW20127   6.270   5.978  10.143 -0.4843 -0.0978  0.3990
 4936SOL    HW120128   6.283   5.996  10.050 -1.2410 -0.6188  0.1832
 4936SOL    HW220129   6.306   5.890  10.156  0.4718  0.3382  0.8097
 4937SOL     OW20130   1.819  10.063   6.623  0.8854  0.4189  0.4400
 4937SOL    HW120131   1.757   9.998   6.655  2.6755 -1.0891  0.9812
 4937SOL    HW220132   1.809  10.061   6.528  0.7765 -0.5128  0.4653
 4938SOL     OW20133   6.329   3.949   4.270 -0.3767 -0.4960  0.4469
 4938SOL    HW120134   6.396   4.012   4.295 -0.7229  0.2007 -0.3357
 4938SOL    HW220135   6.273   3.942   4.348 -0.0935 -0.1741  0.6841
 4939SOL     OW20136  10.200   0.522  11.638 -0.3881 -0.3491 -0.4734
 4939SOL    HW120137  10.169   0.500  11.725  1.4581 -0.1672  0.2889
 4939SOL    HW220138  10.218   0.437  11.597 -0.1672 -0.4157 -0.2423
 4940SOL     OW20139   6.053   0.896   1.178  0.4695 -0.0399  0.3859
 4940SOL    HW120140   6.120   0.878   1.243  0.2984 -0.8374  0.3611
 4940SOL    HW220141   6.033   0.989   1.187  0.9612  0.0076  0.9767
 4941SOL     OW20142   2.591   4.258   0.978  0.1666  0.0879  0.4634
 4941SOL    HW120143   2.504   4.275   1.015  0.1356 -0.8213  0.8592
 4941SOL    HW220144   2.573   4.224   0.891  0.2001  1.3778 -0.0560
 4942SOL     OW20145   1.643   0.795   4.769 -0.0039 -0.0191  0.2682
 4942SOL    HW120146   1.639   0.888   4.745 -0.2417 -0.5135 -1.7743
 4942SOL    HW220147   1.728   0.785   4.811 -0.3996  1.3005  1.4807
 4943SOL     OW20148   0.899   2.561   9.813  0.5914  0.0829  0.4505
 4943SOL    HW120149   0.990   2.533   9.799  0.8493  1.8619 -2.0291
 4943SOL    HW220150   0.856   2.544   9.729 -0.1299  3.4750  0.0031
 4944SOL     OW20151   3.124   2.132   9.767  0.4714 -0.1577  0.5800
 4944SOL    HW120152   3.205   2.181   9.781 -0.5740  2.2897 -1.1836
 4944SOL    HW220153   3.147   2.069   9.698  0.9820  0.3077  0.3082
 4945SOL     OW20154   7.170   0.318  11.527  0.0245  0.1854  0.1239
 4945SOL    HW120155   7.220   0.335  11.607 -0.9826 -1.4668  1.1645
 4945SOL    HW220156   7.090   0.276  11.557  0.6122 -2.6342 -1.8884
 4946SOL     OW20157   8.811   9.763   5.756 -0.1731 -0.4183 -0.2215
 4946SOL    HW120158   8.793   9.672   5.780  0.2522 -0.1698  1.1550
 4946SOL    HW220159   8.900   9.763   5.722 -0.0959 -0.4964 -0.0211
 4947SOL     OW20160   5.148   0.517   9.497  0.4481 -0.0155 -0.4395
 4947SOL    HW120161   5.226   0.463   9.485 -0.0030 -0.9508  0.6951
 4947SOL    HW220162   5.100   0.474   9.568  0.7565  2.5993  1.5199
 4948SOL     OW20163   1.226   7.832   6.229  0.1686 -0.2340 -0.3660
 4948SOL    HW120164   1.210   7.926   6.231 -1.4791 -0.4948  0.7570
 4948SOL    HW220165   1.163   7.798   6.166  0.0367 -0.6908  0.0028
 4949SOL     OW20166   2.196   9.974  10.689 -0.2877 -0.9612  0.0244
 4949SOL    HW120167   2.290   9.965  10.671  0.0507  0.0024  1.1355
 4949SOL    HW220168   2.154   9.918  10.625  0.9958 -0.4928 -1.2953
 4950SOL     OW20169   8.436   3.835   8.967 -0.4095 -0.0525 -0.0891
 4950SOL    HW120170   8.347   3.800   8.974  0.5172 -2.8751 -1.2111
 4950SOL    HW220171   8.464   3.847   9.058 -1.4974 -0.3155  0.2927
 4951SOL     OW20172   8.464  11.713   8.184  0.2541 -0.3558  0.1659
 4951SOL    HW120173   8.554  11.741   8.164 -0.0733 -0.1474 -1.1295
 4951SOL    HW220174   8.461  11.621   8.158 -0.1120 -0.1571 -0.4921
 4952SOL     OW20175   3.749   3.273   4.032  0.1771  0.5154  0.7277
 4952SOL    HW120176   3.756   3.275   3.937  1.3682  1.1428  0.8001
 4952SOL    HW220177   3.814   3.208   4.060  0.0395  0.5412  1.1198
 4953SOL     OW20178  10.252  10.672   2.819  0.8504 -0.2967  0.1650
 4953SOL    HW120179  10.181  10.696   2.879  1.5444  0.7842  0.5804
 4953SOL    HW220180  10.285  10.590   2.854  1.5995  0.5898  1.6172
 4954SOL     OW20181   9.987   9.395   8.706 -0.0875 -0.0456 -0.2531
 4954SOL    HW120182   9.954   9.483   8.723  1.5915  0.9417 -1.7148
 4954SOL    HW220183  10.065   9.387   8.761  0.4384 -0.1236 -0.9804
 4955SOL     OW20184   2.051   0.738   9.685 -0.4406 -0.5404  0.0575
 4955SOL    HW120185   1.991   0.798   9.640  0.0827  1.2234  1.5796
 4955SOL    HW220186   2.004   0.713   9.765  0.7072  0.7243  1.1860
 4956SOL     OW20187   0.986  10.740   6.954  0.8480 -0.1901  0.0706
 4956SOL    HW120188   0.905  10.783   6.980  1.7726  1.1347  0.9032
 4956SOL    HW220189   0.986  10.743   6.859 -1.4348 -2.8852 -0.1518
 4957SOL     OW20190  10.818   9.476   3.824  0.4158  0.3188  0.2038
 4957SOL    HW120191  10.912   9.458   3.830  0.3128  0.1557  2.2076
 4957SOL    HW220192  10.782   9.400   3.779  1.3035  0.7385 -1.2928
 4958SOL     OW20193   5.256  10.135   4.031  0.4897 -0.0832  1.0770
 4958SOL    HW120194   5.349  10.134   4.051  0.6094 -1.2929  0.5465
 4958SOL    HW220195   5.246  10.073   3.958 -0.2946  2.1990 -0.8762
 4959SOL     OW20196   9.023  11.274  11.366  0.1363 -0.7378 -0.2166
 4959SOL    HW120197   9.043  11.344  11.428 -0.1494 -1.1030  0.2992
 4959SOL    HW220198   8.928  11.274  11.360  0.0894 -1.4538  0.2485
 4960SOL     OW20199   8.114   9.787   3.716  0.1783 -0.1054  0.2619
 4960SOL    HW120200   8.161   9.859   3.676  1.1943 -0.6866  0.3721
 4960SOL    HW220201   8.048   9.829   3.772 -0.5241  0.7052 -1.1293
 4961SOL     OW20202  10.625   7.674  10.223 -0.2668 -0.2313  0.6905
 4961SOL    HW120203  10.688   7.613  10.183 -1.0429 -1.6414  1.5489
 4961SOL    HW220204  10.585   7.719  10.148  1.6649  0.6506  0.1183
 4962SOL     OW20205  11.672   3.854   2.361  0.0623 -0.2467 -0.2752
 4962SOL    HW120206  11.687   3.761   2.346 -0.8704 -0.1597 -1.9954
 4962SOL    HW220207  11.583   3.859   2.395  0.6461 -0.0761  1.2938
 4963SOL     OW20208  10.460   5.145   5.664  0.0445  0.2081  0.2941
 4963SOL    HW120209  10.482   5.106   5.580  0.5084  0.3754  0.3367
 4963SOL    HW220210  10.369   5.118   5.680 -0.4533  1.1142 -0.8078
 4964SOL     OW20211   8.324   0.329   3.412 -0.2455  0.4517  0.5075
 4964SOL    HW120212   8.318   0.413   3.366  2.3677  0.2073 -0.4423
 4964SOL    HW220213   8.364   0.270   3.349  0.0201 -0.9028  1.8903
 4965SOL     OW20214   3.374   5.850   7.858 -0.2696  0.4315 -0.0027
 4965SOL    HW120215   3.462   5.813   7.862  0.1135  1.3663  0.6913
 4965SOL    HW220216   3.365   5.881   7.768 -0.4293 -0.9144 -0.4652
 4966SOL     OW20217   8.694   2.507   8.930 -0.1809 -0.1059 -0.0364
 4966SOL    HW120218   8.616   2.485   8.981 -1.1920  2.5042 -0.3039
 4966SOL    HW220219   8.745   2.564   8.988 -0.5195  1.5168 -1.2553
 4967SOL     OW20220   6.530   7.566   7.056 -0.2369  0.3932  0.0871
 4967SOL    HW120221   6.481   7.614   7.123  1.0940  0.6394  0.9239
 4967SOL    HW220222   6.494   7.597   6.973 -1.3880  0.6584  0.6589
 4968SOL     OW20223   4.716  10.074   8.191 -0.3190 -0.2490  0.0028
 4968SOL    HW120224   4.713   9.979   8.201 -2.4382 -0.3717 -1.2974
 4968SOL    HW220225   4.665  10.107   8.265  1.9100  0.0665  1.5221
 4969SOL     OW20226   0.707  10.993  11.334  0.0136  0.8635 -0.1751
 4969SOL    HW120227   0.650  11.065  11.360  0.2593  0.3086  2.1155
 4969SOL    HW220228   0.660  10.914  11.361  0.5400  0.2442 -1.0203
 4970SOL     OW20229   3.263   4.750   4.536 -0.6923  0.1759  0.0209
 4970SOL    HW120230   3.311   4.768   4.455 -1.6943  2.0951 -0.1961
 4970SOL    HW220231   3.332   4.730   4.600  0.2066 -0.0018 -0.9796
 4971SOL     OW20232   9.291   9.470  10.894  0.2863  0.3489  0.1474
 4971SOL    HW120233   9.368   9.421  10.867  0.7535  1.0710  0.1373
 4971SOL    HW220234   9.326   9.553  10.928 -0.5678  1.3941 -1.4035
 4972SOL     OW20235   1.991   6.807   7.070  0.1831 -0.2523 -0.5104
 4972SOL    HW120236   2.008   6.901   7.076 -0.1233 -0.2789  1.5340
 4972SOL    HW220237   1.896   6.800   7.072  0.1410 -0.5676 -2.2226
 4973SOL     OW20238   8.704  10.855   5.076 -0.2629 -0.4434 -0.0561
 4973SOL    HW120239   8.732  10.840   5.166 -1.9078 -1.0808  0.3900
 4973SOL    HW220240   8.614  10.822   5.073 -0.4614  0.1432 -1.7710
 4974SOL     OW20241   9.358   1.811   3.759 -0.3325 -0.7102 -0.4650
 4974SOL    HW120242   9.344   1.905   3.761  0.7103 -0.5519 -0.1586
 4974SOL    HW220243   9.422   1.798   3.688 -0.1250 -1.1320 -0.2047
 4975SOL     OW20244   2.365   9.558   9.018 -0.0981 -0.7479  0.0300
 4975SOL    HW120245   2.385   9.538   8.926  1.4467 -1.7474  0.5415
 4975SOL    HW220246   2.291   9.503   9.040 -0.6614 -0.2975 -0.6762
 4976SOL     OW20247   8.543   8.938   9.590  0.3632  0.1533  0.1263
 4976SOL    HW120248   8.618   8.997   9.586  0.0634  0.4924 -0.7678
 4976SOL    HW220249   8.467   8.996   9.585 -0.0152 -0.0729  2.3175
 4977SOL     OW20250   2.444   2.897   5.449 -0.3118  0.0186  0.1996
 4977SOL    HW120251   2.428   2.991   5.457  4.2673  0.8568  2.8664
 4977SOL    HW220252   2.374   2.856   5.501 -1.2888  2.0558  0.5750
 4978SOL     OW20253  10.013  10.375   8.259 -0.3885  0.2701  0.0874
 4978SOL    HW120254  10.071  10.401   8.187 -0.5547 -0.3027 -0.2581
 4978SOL    HW220255   9.997  10.457   8.307 -0.1224  0.6222 -0.4103
 4979SOL     OW20256   0.866   1.546   6.038  0.8828 -0.0300  0.0390
 4979SOL    HW120257   0.831   1.636   6.038  1.5852  0.2530  0.9768
 4979SOL    HW220258   0.837   1.509   6.121  0.3202 -0.8066 -0.4822
 4980SOL     OW20259   7.360   3.900   6.941 -0.1438 -0.3177 -0.3060
 4980SOL    HW120260   7.298   3.889   7.013  0.2994 -1.8690 -0.1314
 4980SOL    HW220261   7.428   3.834   6.957  0.5114  0.0149 -1.5744
 4981SOL     OW20262   2.078   1.912  11.289  0.0904 -0.1502  0.0072
 4981SOL    HW120263   2.016   1.982  11.308  0.1733 -0.5436  1.8396
 4981SOL    HW220264   2.132   1.906  11.367 -0.5155 -2.8652  0.3002
 4982SOL     OW20265   2.010   2.348   2.231 -0.2634  0.3740  0.4456
 4982SOL    HW120266   2.028   2.437   2.261  0.8055  0.5927 -0.7420
 4982SOL    HW220267   2.027   2.351   2.137  1.9911 -1.6075  0.7047
 4983SOL     OW20268  10.465   7.370   2.336 -0.2260 -0.6291 -0.1858
 4983SOL    HW120269  10.524   7.354   2.262 -1.1884 -0.3167 -1.0320
 4983SOL    HW220270  10.520   7.416   2.400 -0.0456  1.5472 -1.7941
 4984SOL     OW20271   4.276   2.122   9.055 -0.8243 -0.1634 -0.3006
 4984SOL    HW120272   4.217   2.048   9.043 -1.7371  0.3267  0.9190
 4984SOL    HW220273   4.362   2.090   9.028 -1.0820 -1.8583  0.7794
 4985SOL     OW20274   5.171   5.018   7.960 -0.0663 -0.1851 -0.4431
 4985SOL    HW120275   5.081   5.045   7.978 -0.6287 -1.1337 -1.6648
 4985SOL    HW220276   5.166   4.968   7.878  2.0034  2.1778 -2.1570
 4986SOL     OW20277   5.774   8.922   8.512 -0.3524 -0.5514  0.6920
 4986SOL    HW120278   5.731   8.957   8.433  0.1940  0.7183  0.9359
 4986SOL    HW220279   5.789   8.999   8.567  1.7399 -1.0304  0.8560
 4987SOL     OW20280   6.926   8.797   5.158  0.7992 -0.7318 -0.0050
 4987SOL    HW120281   6.860   8.757   5.101 -2.9233  2.1033  1.8637
 4987SOL    HW220282   6.950   8.878   5.113 -1.1906  0.8769  1.6399
 4988SOL     OW20283   8.873  10.041  10.031  0.3042 -0.5148  0.5867
 4988SOL    HW120284   8.818  10.109   9.993  1.1945 -1.0588 -1.8871
 4988SOL    HW220285   8.948  10.088  10.068 -0.1843 -0.0039  0.9275
 4989SOL     OW20286   0.512   0.021   9.827 -0.1563  0.2674  0.2986
 4989SOL    HW120287   0.607   0.011   9.836 -0.2351 -0.0794  0.8322
 4989SOL    HW220288   0.482  -0.066   9.798 -0.3263  0.3262  0.2976
 4990SOL     OW20289  11.812   6.397  10.224  0.1069  0.1011 -0.3101
 4990SOL    HW120290  11.790   6.483  10.190  0.8035 -0.1711 -1.4853
 4990SOL    HW220291  11.804   6.338  10.149 -0.9321 -0.9748  0.5991
 4991SOL     OW20292   3.763   9.380   9.630 -0.0461  0.1377  0.2485
 4991SOL    HW120293   3.759   9.437   9.706  0.2925 -2.0373  1.9863
 4991SOL    HW220294   3.694   9.316   9.644  0.1025 -0.3830 -1.2169
 4992SOL     OW20295   3.384   6.886  11.238  0.3524 -0.5312  0.2217
 4992SOL    HW120296   3.389   6.978  11.263  1.2551 -0.4592 -0.1713
 4992SOL    HW220297   3.291   6.868  11.230  0.1738  0.3950  0.1296
 4993SOL     OW20298   1.072  10.014   2.993  0.3965 -0.0237  0.0343
 4993SOL    HW120299   1.080   9.919   2.986 -0.7184 -0.0958 -0.4839
 4993SOL    HW220300   1.132  10.038   3.063 -0.1184 -1.2414  0.9262
 4994SOL     OW20301  10.187   9.230   0.724  0.1459 -0.4327  0.0908
 4994SOL    HW120302  10.160   9.162   0.662 -1.2083  0.1306  0.0398
 4994SOL    HW220303  10.145   9.310   0.692  0.2895  0.0765  1.1410
 4995SOL     OW20304   7.811   4.327   9.867 -0.6615 -0.0005  0.5456
 4995SOL    HW120305   7.885   4.348   9.923 -1.5822 -1.0724  2.2539
 4995SOL    HW220306   7.850   4.292   9.787  0.6741  1.1482  0.6599
 4996SOL     OW20307   1.248   7.162   2.010 -0.0886 -0.1724  0.0490
 4996SOL    HW120308   1.269   7.242   1.963 -1.9365 -0.6887 -1.8519
 4996SOL    HW220309   1.155   7.147   1.990 -0.0185 -2.3053  1.0728
 4997SOL     OW20310   5.644   4.125   0.625  0.0023 -0.0622  0.3589
 4997SOL    HW120311   5.570   4.109   0.684  0.5507 -1.9963  0.5852
 4997SOL    HW220312   5.721   4.120   0.681  0.5029 -1.4942 -0.3974
 4998SOL     OW20313   7.923  10.210   9.293 -0.0807 -0.3538  0.4488
 4998SOL    HW120314   7.956  10.277   9.233 -1.2031  0.8697  1.1663
 4998SOL    HW220315   7.868  10.155   9.238  0.0758 -0.1261  0.0551
 4999SOL     OW20316   6.519  11.766   4.499 -0.4837 -0.4013 -0.4586
 4999SOL    HW120317   6.525  11.695   4.563 -2.7610 -1.8035 -1.6900
 4999SOL    HW220318   6.573  11.737   4.426  0.3836  0.2202 -0.0901
 5000SOL     OW20319   0.543   0.886   9.717  0.2003 -0.2235  0.1554
 5000SOL    HW120320   0.535   0.940   9.796  0.1086  1.3788 -0.9145
 5000SOL    HW220321   0.459   0.842   9.710 -0.4785  1.0738 -0.0551
 5001SOL     OW20322   0.597   9.739  11.395 -0.1727 -0.0542 -0.2788
 5001SOL    HW120323   0.526   9.754  11.333 -0.0049 -0.0354 -0.4683
 5001SOL    HW220324   0.570   9.785  11.475  0.8625  2.3364 -1.2076
 5002SOL     OW20325  10.983   6.744   5.367 -0.2048  0.3771 -0.2807
 5002SOL    HW120326  11.009   6.657   5.338  0.7315  0.4818  0.2269
 5002SOL    HW220327  10.973   6.794   5.286  0.3431  0.0949 -0.5293
 5003SOL     OW20328   2.924   3.829   6.436 -0.3903  0.0871  0.3566
 5003SOL    HW120329   2.972   3.819   6.518  0.0054 -4.9781 -0.2234
 5003SOL    HW220330   2.834   3.805   6.458 -0.6671  0.4114 -0.3887
 5004SOL     OW20331   7.627   3.450   6.899 -0.0169  0.1443 -0.2060
 5004SOL    HW120332   7.560   3.400   6.945  0.1909 -0.0357 -0.0970
 5004SOL    HW220333   7.644   3.400   6.819  1.7628 -1.1521  0.9211
 5005SOL     OW20334   3.873   3.659   4.912 -0.0975 -0.8463  0.0408
 5005SOL    HW120335   3.925   3.580   4.898 -1.2759 -2.0605  2.0460
 5005SOL    HW220336   3.806   3.633   4.975 -0.9893  1.5712  0.2055
 5006SOL     OW20337   9.240   4.608   4.886  0.7592  0.0029 -0.4497
 5006SOL    HW120338   9.312   4.670   4.871 -0.5264  1.5735 -0.3893
 5006SOL    HW220339   9.240   4.594   4.980  0.2006  1.0523 -0.2718
 5007SOL     OW20340   4.321   9.151   0.978  0.0677 -0.1623 -0.1644
 5007SOL    HW120341   4.380   9.121   1.047 -0.7699 -2.1297 -0.2364
 5007SOL    HW220342   4.233   9.133   1.012 -0.3545 -1.7931 -1.9475
 5008SOL     OW20343  10.306   8.943   5.637  0.2916  0.5479  0.7610
 5008SOL    HW120344  10.314   8.857   5.677 -2.0926  0.2722  0.7788
 5008SOL    HW220345  10.213   8.952   5.616  0.9087  1.9618 -1.8915
 5009SOL     OW20346   2.179   9.076   5.580  0.6524 -0.1655 -0.6540
 5009SOL    HW120347   2.165   9.129   5.658  0.5861 -0.3099 -0.5665
 5009SOL    HW220348   2.271   9.089   5.558  1.5156 -2.4154  1.1825
 5010SOL     OW20349   1.988   0.081   5.215 -0.0548 -0.4306  0.2856
 5010SOL    HW120350   1.961   0.069   5.306  0.4984 -3.1342  0.1539
 5010SOL    HW220351   2.056   0.149   5.220  0.5183 -1.0771  2.0053
 5011SOL     OW20352   8.080   6.822   0.147 -0.5208 -0.1380 -0.7666
 5011SOL    HW120353   8.067   6.901   0.198  0.5100  0.6924 -1.7535
 5011SOL    HW220354   8.004   6.818   0.089 -0.0235  0.7765 -1.5106
 5012SOL     OW20355   3.451   1.317   5.869 -0.0063  0.1843 -0.1140
 5012SOL    HW120356   3.425   1.335   5.779  0.9309 -0.3510 -0.5077
 5012SOL    HW220357   3.376   1.346   5.922 -0.3603  0.9660 -1.0187
 5013SOL     OW20358   7.317   5.826  11.679  0.4282 -0.1930 -0.2453
 5013SOL    HW120359   7.268   5.757  11.635 -1.2323  2.0745 -2.2642
 5013SOL    HW220360   7.271   5.839  11.762  1.2098 -1.8965  0.5120
 5014SOL     OW20361   5.872  10.950   5.563 -0.0894 -0.0323  0.1739
 5014SOL    HW120362   5.791  11.002   5.569 -0.6247 -0.8915  0.7212
 5014SOL    HW220363   5.941  11.015   5.554 -0.9775  0.6742 -2.1882
 5015SOL     OW20364   4.939  10.596   8.229  0.8462  0.5205 -0.0028
 5015SOL    HW120365   5.015  10.541   8.249 -0.1319 -1.4020 -1.2877
 5015SOL    HW220366   4.893  10.605   8.312  0.6674 -1.2620  0.1354
 5016SOL     OW20367   7.146   1.272   1.317 -0.3344  0.3962  0.3685
 5016SOL    HW120368   7.087   1.347   1.310  0.5132  1.0278 -0.0804
 5016SOL    HW220369   7.161   1.261   1.411 -2.7109 -1.0152  0.6688
 5017SOL     OW20370  11.644   6.545   8.739 -0.7477 -0.5439 -0.1750
 5017SOL    HW120371  11.709   6.488   8.696  1.2459 -0.4070  2.3802
 5017SOL    HW220372  11.602   6.592   8.667  2.1319 -0.5214 -2.0332
 5018SOL     OW20373   8.556   1.744   9.006  0.5933 -0.4417  0.3955
 5018SOL    HW120374   8.499   1.784   9.072 -0.8166  1.8255 -2.0022
 5018SOL    HW220375   8.643   1.779   9.025  0.2133  0.1677  1.0818
 5019SOL     OW20376   2.388   5.759   6.972  0.0240  0.4354 -0.0151
 5019SOL    HW120377   2.331   5.710   6.912 -1.3677  1.4985  0.3901
 5019SOL    HW220378   2.391   5.847   6.934 -0.3829  0.9575  1.1337
 5020SOL     OW20379   7.777   1.309  10.217  0.1434  0.4296  0.0244
 5020SOL    HW120380   7.751   1.306  10.125 -0.2897  2.1618  0.0529
 5020SOL    HW220381   7.865   1.345  10.216 -0.2694  1.4971  0.3195
 5021SOL     OW20382  11.389   0.930   8.500 -0.2822  0.9138  0.4054
 5021SOL    HW120383  11.384   0.835   8.499 -2.2117  0.9770  0.5934
 5021SOL    HW220384  11.385   0.955   8.407  1.6685  0.8109  0.2450
 5022SOL     OW20385   1.878   0.069   0.771 -0.8642  0.1069 -0.2783
 5022SOL    HW120386   1.963   0.113   0.779 -1.1831  1.1665 -2.1974
 5022SOL    HW220387   1.828   0.101   0.847  0.1411  0.1718  0.3777
 5023SOL     OW20388   3.116   2.383   1.949  1.0395  0.0551  0.0665
 5023SOL    HW120389   3.175   2.380   2.024  1.6727  1.2591 -0.3485
 5023SOL    HW220390   3.064   2.303   1.955  2.1296 -0.6115  0.9196
 5024SOL     OW20391   0.907   0.651   0.855  0.2849  0.7384 -0.1533
 5024SOL    HW120392   0.840   0.715   0.832 -0.2698 -0.3294 -1.6249
 5024SOL    HW220393   0.941   0.621   0.771  1.3685 -0.0490  0.5427
 5025SOL     OW20394   8.451   4.271   4.441 -0.4286  0.3294 -0.3456
 5025SOL    HW120395   8.521   4.255   4.505 -1.1338 -0.1128  0.3308
 5025SOL    HW220396   8.418   4.358   4.463  0.7958  1.1296 -1.5346
 5026SOL     OW20397   9.414   9.699  11.040 -0.1229 -0.8421 -0.5529
 5026SOL    HW120398   9.435   9.786  11.007 -1.9799 -1.1111 -2.6773
 5026SOL    HW220399   9.342   9.714  11.102  1.9298 -0.5739  1.9274
 5027SOL     OW20400   8.906   3.498   1.616  0.2225 -0.1942 -0.2792
 5027SOL    HW120401   8.897   3.433   1.685  0.2942 -0.2417 -0.3145
 5027SOL    HW220402   8.882   3.453   1.536  0.7449 -0.3182 -0.3711
 5028SOL     OW20403   6.828   5.941   6.245  0.5360  0.5778  0.2589
 5028SOL    HW120404   6.860   6.028   6.220  2.4044  0.2710  1.3575
 5028SOL    HW220405   6.896   5.907   6.303  0.2597 -1.9521 -0.7751
 5029SOL     OW20406   7.256   1.547  11.417 -0.2336 -0.1348 -0.3978
 5029SOL    HW120407   7.252   1.517  11.508 -0.6031  0.9103 -0.0606
 5029SOL    HW220408   7.333   1.603  11.413  0.9027 -1.6974 -1.2197
 5030SOL     OW20409   4.568   0.600  11.349 -0.0748 -0.6064  0.0658
 5030SOL    HW120410   4.618   0.676  11.319 -2.0658  0.2790 -1.1850
 5030SOL    HW220411   4.631   0.549  11.401  1.2283  2.0349  1.2498
 5031SOL     OW20412   4.974   1.772   6.782 -0.5572  0.4630 -0.7692
 5031SOL    HW120413   5.067   1.750   6.777 -0.6883 -0.4809  0.4173
 5031SOL    HW220414   4.930   1.688   6.796 -1.4656  1.0210 -0.1748
 5032SOL     OW20415   4.117   1.966   0.124 -0.1246  0.6484  0.3227
 5032SOL    HW120416   4.140   1.992   0.214 -0.6091 -0.0393  0.6566
 5032SOL    HW220417   4.104   1.872   0.130 -1.7512  0.8103 -0.1170
 5033SOL     OW20418   9.201   2.098   2.985 -0.4485 -0.0869 -0.2812
 5033SOL    HW120419   9.119   2.149   2.983 -0.5127  0.0545  2.1430
 5033SOL    HW220420   9.181   2.019   2.935 -1.5166  0.6870 -1.1404
 5034SOL     OW20421   2.120   8.319   9.963  0.1353  0.4220 -0.1802
 5034SOL    HW120422   2.067   8.239   9.967  1.0779 -0.3438 -2.0057
 5034SOL    HW220423   2.073   8.376   9.902  0.0108  0.8409  0.3053
 5035SOL     OW20424   2.207   4.686  10.714 -0.0061 -0.1223  0.0184
 5035SOL    HW120425   2.231   4.774  10.686 -0.7773 -0.5526 -2.2155
 5035SOL    HW220426   2.223   4.631  10.638 -0.2470 -1.8096  1.1231
 5036SOL     OW20427  11.268   7.649   2.626  0.7402 -0.3995 -0.5164
 5036SOL    HW120428  11.324   7.726   2.615  1.2274 -0.5160  0.9451
 5036SOL    HW220429  11.322   7.575   2.599  1.4838 -0.5549  1.2834
 5037SOL     OW20430   6.851   6.298   3.968 -0.3019  0.1890 -0.3266
 5037SOL    HW120431   6.766   6.256   3.979 -1.1106  1.6551 -0.7317
 5037SOL    HW220432   6.840   6.355   3.892  1.1920  0.0560 -0.6830
 5038SOL     OW20433   6.501   0.325   3.229  0.2416 -0.2374  0.2502
 5038SOL    HW120434   6.555   0.266   3.281  1.7527  0.3271 -0.6281
 5038SOL    HW220435   6.563   0.373   3.175 -1.0261  1.5247  0.2925
 5039SOL     OW20436  10.794  10.339   0.500 -0.3176  0.2218  0.2812
 5039SOL    HW120437  10.871  10.386   0.534 -1.0668  2.4836 -0.9417
 5039SOL    HW220438  10.734  10.335   0.574  0.8007 -1.3207  1.1698
 5040SOL     OW20439   0.382   4.813   6.236 -0.3598 -0.4767  0.1480
 5040SOL    HW120440   0.360   4.759   6.312 -0.6023 -2.5119 -1.2665
 5040SOL    HW220441   0.325   4.780   6.166  0.4722  0.6974 -1.1444
 5041SOL     OW20442   7.866   5.876   7.848 -0.1015 -0.4632 -0.6172
 5041SOL    HW120443   7.808   5.949   7.826 -0.1214  0.1838  1.3497
 5041SOL    HW220444   7.951   5.917   7.862 -0.4271 -0.4561  2.0255
 5042SOL     OW20445   1.759   5.998   2.012 -0.1054  0.3496  0.6451
 5042SOL    HW120446   1.755   6.063   2.082  0.8384  1.2284 -0.0943
 5042SOL    HW220447   1.843   6.012   1.970 -1.0330  0.5092 -1.2838
 5043SOL     OW20448   2.297   8.641   4.241  0.2421 -0.5462 -0.4997
 5043SOL    HW120449   2.389   8.665   4.241 -0.1565  1.4817  2.4250
 5043SOL    HW220450   2.259   8.695   4.170  1.3248 -1.9877 -2.2634
 5044SOL     OW20451   4.521   8.258   8.697 -0.4381  0.0531  0.6131
 5044SOL    HW120452   4.482   8.178   8.732 -1.2121  0.9399  1.8532
 5044SOL    HW220453   4.494   8.327   8.758 -0.1792  1.3465 -0.6831
 5045SOL     OW20454   7.764   1.550   7.332  0.0857 -0.6016 -0.4906
 5045SOL    HW120455   7.712   1.507   7.265 -0.3663  0.0368 -0.5627
 5045SOL    HW220456   7.851   1.559   7.294 -0.4493  0.7953 -1.4764
 5046SOL     OW20457   0.188   9.799   7.916 -0.3909  0.7057 -0.2183
 5046SOL    HW120458   0.183   9.861   7.844 -2.0973  1.0012  0.0923
 5046SOL    HW220459   0.171   9.852   7.994 -0.0744  0.1511  0.2317
 5047SOL     OW20460   1.115   0.870   8.567  0.0812  0.2948 -0.1894
 5047SOL    HW120461   1.163   0.867   8.650 -0.6080 -1.4733  0.1876
 5047SOL    HW220462   1.032   0.825   8.585  0.0930 -0.5193 -1.9304
 5048SOL     OW20463   5.621   3.126   3.305  0.4223 -0.1392  0.2179
 5048SOL    HW120464   5.565   3.048   3.299 -0.9600  0.9021 -0.9295
 5048SOL    HW220465   5.602   3.162   3.392 -0.7171  0.1900 -0.1473
 5049SOL     OW20466   3.915  11.084   0.257  0.0727 -0.2452  0.0343
 5049SOL    HW120467   3.960  11.107   0.339  0.1400 -1.6919  0.4305
 5049SOL    HW220468   3.830  11.050   0.285  0.2098 -1.0293 -0.4650
 5050SOL     OW20469   5.883   4.844   2.317  0.2165 -0.2142  0.9971
 5050SOL    HW120470   5.831   4.776   2.360  0.7135 -0.9284  0.5030
 5050SOL    HW220471   5.973   4.812   2.325  0.2184 -1.1728 -1.9245
 5051SOL     OW20472   6.507   4.881   0.955  0.3777  0.2433  0.1277
 5051SOL    HW120473   6.475   4.804   1.003  2.1267  0.3918  1.6412
 5051SOL    HW220474   6.431   4.912   0.906 -1.3852 -0.2830  2.3736
 5052SOL     OW20475   5.098   8.892   7.251  0.0270  0.1478 -0.0981
 5052SOL    HW120476   5.168   8.833   7.223  2.4143  2.1572  1.2337
 5052SOL    HW220477   5.116   8.975   7.207 -1.2900  0.8488  0.6046
 5053SOL     OW20478   3.304   7.686   4.840  0.1706  0.6869  0.2529
 5053SOL    HW120479   3.329   7.632   4.766 -0.0269 -1.1302  1.4613
 5053SOL    HW220480   3.387   7.705   4.884  0.0089 -0.9824  1.3524
 5054SOL     OW20481   1.670   0.998   1.107  0.3708 -0.1614 -0.4186
 5054SOL    HW120482   1.680   0.953   1.023  0.9015 -0.8546 -0.0020
 5054SOL    HW220483   1.705   1.086   1.092 -0.2954 -0.0142 -1.1367
 5055SOL     OW20484   7.338   3.607  10.073 -0.0998  0.1685 -0.5977
 5055SOL    HW120485   7.319   3.696  10.102 -0.7631 -0.2298  0.2496
 5055SOL    HW220486   7.425   3.589  10.109 -0.8782 -0.2896  1.1985
 5056SOL     OW20487   4.999   6.038   9.312 -0.1835 -0.3631 -0.0007
 5056SOL    HW120488   4.923   5.987   9.342 -0.9521  1.8455  2.1131
 5056SOL    HW220489   5.074   5.994   9.353 -0.3292 -2.0678 -1.4320
 5057SOL     OW20490   2.196   7.697  10.270 -0.1831 -0.1779 -0.0778
 5057SOL    HW120491   2.162   7.743  10.348 -4.1953 -1.8487 -0.5773
 5057SOL    HW220492   2.177   7.757  10.198  1.9138  0.6149 -0.0244
 5058SOL     OW20493   2.119   7.070   4.245  0.3642 -0.3656 -0.1491
 5058SOL    HW120494   2.080   6.985   4.265 -0.0771 -0.2239 -0.3965
 5058SOL    HW220495   2.108   7.120   4.326  1.7654 -0.9471  0.4320
 5059SOL     OW20496   3.847   7.035   2.308  0.1165  0.4281 -0.6766
 5059SOL    HW120497   3.881   7.124   2.307  0.5153  0.3760  1.6986
 5059SOL    HW220498   3.765   7.039   2.260  1.1874  1.5494 -2.5528
 5060SOL     OW20499   1.459  11.776   0.557  0.1673  0.6337  0.2144
 5060SOL    HW120500   1.492  11.690   0.579 -0.7506 -0.1704 -1.3561
 5060SOL    HW220501   1.533  11.821   0.516 -0.2149 -0.6918 -2.1111
 5061SOL     OW20502   3.848   3.389   7.465  0.3635  0.4445  0.2212
 5061SOL    HW120503   3.760   3.428   7.464 -0.1218 -0.6305  0.3009
 5061SOL    HW220504   3.900   3.449   7.518 -0.0043  1.7368 -0.8098
 5062SOL     OW20505   1.381   7.018   1.336  0.0617 -0.6727  0.3197
 5062SOL    HW120506   1.305   6.982   1.381 -1.2983  0.0893 -1.2558
 5062SOL    HW220507   1.409   6.948   1.277 -1.3584  0.0647 -1.3081
 5063SOL     OW20508   5.032   5.652   2.341 -0.0895 -0.0758  0.1032
 5063SOL    HW120509   4.965   5.592   2.374 -0.3568  0.6361  0.8895
 5063SOL    HW220510   5.045   5.715   2.412  0.3535  0.6568 -0.6071
 5064SOL     OW20511   6.882   2.456   2.477  0.1349  0.0288  0.3010
 5064SOL    HW120512   6.796   2.498   2.479 -0.4180 -1.0286 -0.1987
 5064SOL    HW220513   6.943   2.526   2.455 -0.1053  1.4864  3.7266
 5065SOL     OW20514   1.951   6.643  10.813  0.2591  0.1183 -0.2203
 5065SOL    HW120515   1.897   6.605  10.883  1.1111 -1.5101 -0.4153
 5065SOL    HW220516   2.041   6.624  10.839  0.8070  2.7219  0.0477
 5066SOL     OW20517   6.229   9.273   4.498  0.6191 -0.4377  0.0802
 5066SOL    HW120518   6.223   9.178   4.509  1.3453 -0.3396  1.6105
 5066SOL    HW220519   6.284   9.285   4.421  1.5837 -1.2919  0.6014
 5067SOL     OW20520   8.197   3.770   8.658 -0.1023  0.1961 -0.2195
 5067SOL    HW120521   8.149   3.828   8.718  0.1771  0.0249  0.1794
 5067SOL    HW220522   8.197   3.816   8.575 -2.6657 -0.6440 -0.8019
 5068SOL     OW20523   0.840   3.270  10.184 -0.0376  0.0256  0.6022
 5068SOL    HW120524   0.884   3.339  10.135  1.3048 -0.3366  1.2384
 5068SOL    HW220525   0.790   3.316  10.252 -0.1033  0.4184  0.2882
 5069SOL     OW20526   9.028   7.167  11.731 -0.0074  0.3327 -0.6767
 5069SOL    HW120527   9.098   7.122  11.683  1.7849  1.1581  0.9737
 5069SOL    HW220528   9.025   7.254  11.693 -1.0498 -0.0801 -1.5751
 5070SOL     OW20529   9.157   8.150   7.642  0.5130 -0.2089  0.3855
 5070SOL    HW120530   9.160   8.167   7.548  1.1281 -0.8562  0.2802
 5070SOL    HW220531   9.068   8.120   7.658  0.8176 -1.5099 -0.2609
 5071SOL     OW20532   1.067  11.641   1.228  0.2565  0.3592  0.0544
 5071SOL    HW120533   1.029  11.726   1.206 -0.9755  0.0800  0.9494
 5071SOL    HW220534   1.102  11.607   1.146 -1.3123  0.7338 -0.8046
 5072SOL     OW20535  10.084   1.450   8.920 -0.0779 -0.5302  0.4469
 5072SOL    HW120536  10.098   1.401   9.001 -4.0595 -0.6458  1.2692
 5072SOL    HW220537  10.088   1.542   8.947  2.4851 -0.3777 -0.1424
 5073SOL     OW20538  10.422   1.426   8.623  0.2723 -0.2931  0.6241
 5073SOL    HW120539  10.385   1.363   8.685 -1.2281  0.6884  0.7850
 5073SOL    HW220540  10.408   1.512   8.665  1.1869  0.2403 -0.1192
 5074SOL     OW20541   8.580   5.526   0.252 -0.3423 -0.3183  0.3768
 5074SOL    HW120542   8.510   5.563   0.199  0.3115  1.0095  0.4009
 5074SOL    HW220543   8.545   5.527   0.341 -0.2305  0.5479  0.4212
 5075SOL     OW20544   0.833   3.980   7.887  0.0659 -0.1289  0.2324
 5075SOL    HW120545   0.906   4.008   7.833  0.8807  1.0263  1.8597
 5075SOL    HW220546   0.763   3.959   7.825  1.2735  0.2125 -1.2746
 5076SOL     OW20547  10.344   3.915   6.155 -0.5933  0.3063  0.3111
 5076SOL    HW120548  10.281   3.988   6.158 -1.2781 -0.2290 -0.5839
 5076SOL    HW220549  10.308   3.850   6.215 -0.3334  0.4183  0.5947
 5077SOL     OW20550   4.967   7.703   7.912  0.2313  0.4556  0.0453
 5077SOL    HW120551   4.961   7.739   7.824  1.2122  1.4123  0.3562
 5077SOL    HW220552   4.945   7.776   7.970 -2.1859 -0.5879  0.5928
 5078SOL     OW20553   5.149   5.225   5.635  0.2179 -0.4839 -0.0398
 5078SOL    HW120554   5.167   5.208   5.728  0.7387  0.3460  0.0186
 5078SOL    HW220555   5.132   5.319   5.630  1.0667 -0.3521 -0.9055
 5079SOL     OW20556   1.222   7.054   7.937  0.5688  0.4976 -0.2731
 5079SOL    HW120557   1.236   7.137   7.891 -0.3180  1.4191  1.0660
 5079SOL    HW220558   1.285   7.056   8.009 -0.7913  0.9182  0.9250
 5080SOL     OW20559   5.022   1.736   8.447  0.2638  0.1001 -0.4429
 5080SOL    HW120560   4.996   1.659   8.497  1.7311  0.9862  1.8523
 5080SOL    HW220561   5.062   1.700   8.368 -2.1751 -1.3550 -1.1368
 5081SOL     OW20562   5.782  11.290   0.049 -0.2594  0.3336 -0.1617
 5081SOL    HW120563   5.786  11.312  -0.044  1.5544 -1.9226 -0.7023
 5081SOL    HW220564   5.865  11.321   0.085  0.0947 -0.9263  0.1490
 5082SOL     OW20565   9.193   1.804  11.385  0.2992 -0.1239  0.2119
 5082SOL    HW120566   9.154   1.868  11.326  0.0174 -1.5154 -1.1724
 5082SOL    HW220567   9.280   1.840  11.405  0.3856  0.4084 -1.0243
 5083SOL     OW20568   1.339  11.109   5.314  0.0503  0.0810  0.5668
 5083SOL    HW120569   1.358  11.087   5.405  0.0837  0.0436  0.5507
 5083SOL    HW220570   1.282  11.038   5.283 -2.8839  1.8073  1.5950
 5084SOL     OW20571   8.369   1.632   4.454 -0.2140 -0.2722 -0.0177
 5084SOL    HW120572   8.452   1.657   4.494  0.1683 -1.0620 -0.3029
 5084SOL    HW220573   8.302   1.677   4.506  0.3458 -0.3056  0.7364
 5085SOL     OW20574   1.676   9.242   5.254  0.3066 -0.0493  0.2623
 5085SOL    HW120575   1.758   9.204   5.222 -0.3513 -1.2881 -0.0364
 5085SOL    HW220576   1.663   9.320   5.202  0.4211 -0.7887 -0.9047
 5086SOL     OW20577  10.676   1.290   7.192 -0.1551 -0.3306 -0.2972
 5086SOL    HW120578  10.653   1.206   7.231 -2.5635  0.9175  1.1847
 5086SOL    HW220579  10.671   1.274   7.097 -0.4222 -1.8793 -0.0562
 5087SOL     OW20580   6.186   6.046  10.650  0.3191 -0.2682 -0.1601
 5087SOL    HW120581   6.266   5.997  10.631 -0.0087 -0.2276 -1.7531
 5087SOL    HW220582   6.191   6.123  10.594 -0.8502 -0.2814 -0.2992
 5088SOL     OW20583   0.915   0.065   4.143  0.2386 -0.0574 -0.0358
 5088SOL    HW120584   0.913  -0.014   4.089  1.4336 -0.2688  0.2022
 5088SOL    HW220585   0.880   0.037   4.228 -3.4634  0.7004 -1.1127
 5089SOL     OW20586   5.216   8.167   2.116  0.0218 -0.0643  0.5681
 5089SOL    HW120587   5.161   8.094   2.088 -1.8181  1.5734 -0.2800
 5089SOL    HW220588   5.253   8.202   2.035 -1.5770  1.7940  0.5734
 5090SOL     OW20589   6.917   3.705  10.163  0.6894  0.7150  0.0052
 5090SOL    HW120590   6.933   3.751  10.080 -0.5618 -0.1962 -0.7912
 5090SOL    HW220591   6.908   3.613  10.138  0.2616  0.4273  1.1501
 5091SOL     OW20592   7.533   8.777   2.694 -0.4215 -0.0715  0.2997
 5091SOL    HW120593   7.529   8.783   2.599 -0.2718  3.3714  0.3844
 5091SOL    HW220594   7.506   8.687   2.714 -0.0324 -1.0428 -2.9644
 5092SOL     OW20595   1.325   4.855   6.141 -0.4787 -0.1726  0.5142
 5092SOL    HW120596   1.307   4.784   6.079  0.1186 -0.6415  0.8738
 5092SOL    HW220597   1.270   4.927   6.110  0.6993  0.0171 -1.3007
 5093SOL     OW20598   5.805   7.763   6.600 -0.4777  0.3618 -0.3923
 5093SOL    HW120599   5.857   7.814   6.662 -0.9126  0.8841 -0.4488
 5093SOL    HW220600   5.870   7.719   6.545 -0.0727  1.5013 -0.8688
 5094SOL     OW20601   6.102   1.243   0.301  0.0463  0.3969  0.6187
 5094SOL    HW120602   6.030   1.254   0.363  0.4195 -2.6077  1.7780
 5094SOL    HW220603   6.138   1.157   0.322  1.9925  0.4541 -2.0009
 5095SOL     OW20604   6.019   8.648   3.291 -0.1481  0.2693 -0.1946
 5095SOL    HW120605   5.951   8.594   3.331 -0.5012  1.9550  1.6057
 5095SOL    HW220606   6.097   8.631   3.344  0.0857  0.5023 -0.4637
 5096SOL     OW20607   7.124   9.478   4.559  0.1130 -0.2823 -0.2024
 5096SOL    HW120608   7.175   9.410   4.515  1.4643 -0.3350  1.3707
 5096SOL    HW220609   7.152   9.560   4.518  0.3649 -0.4345 -0.3353
 5097SOL     OW20610   3.653   6.245   3.306  0.3863 -0.0651 -0.3917
 5097SOL    HW120611   3.693   6.284   3.384  0.6038  0.5969 -0.8245
 5097SOL    HW220612   3.598   6.175   3.340 -2.9351  2.8338  0.8135
 5098SOL     OW20613   9.799   1.916   4.135  0.0665 -0.0191  0.0009
 5098SOL    HW120614   9.799   1.846   4.070  0.4122  2.1118 -2.4498
 5098SOL    HW220615   9.791   1.996   4.084  2.6670  1.9703  2.3797
 5099SOL     OW20616   5.693  10.707  11.692  0.9924  0.1346 -0.0873
 5099SOL    HW120617   5.707  10.656  11.771  0.6514  0.2879  0.0738
 5099SOL    HW220618   5.777  10.705  11.646  1.1430 -0.0842  0.2023
 5100SOL     OW20619  10.183   3.864   5.207  0.0486 -0.6603 -0.2587
 5100SOL    HW120620  10.111   3.850   5.269  1.8027  1.5265  2.5462
 5100SOL    HW220621  10.168   3.952   5.173  1.0059 -0.4400 -0.1369
 5101SOL     OW20622   5.915   8.270   3.561  0.1536  0.2581  0.1173
 5101SOL    HW120623   5.913   8.270   3.656  1.7564  0.4349  0.1682
 5101SOL    HW220624   5.864   8.193   3.536  0.4425 -0.2762  1.1299
 5102SOL     OW20625   6.257   9.349   7.560 -0.1402 -0.1400  0.1309
 5102SOL    HW120626   6.249   9.374   7.652 -2.1041 -1.3591  0.3426
 5102SOL    HW220627   6.171   9.368   7.522 -0.2790 -2.2271 -0.7462
 5103SOL     OW20628   3.366   6.634   6.208 -0.1117 -0.3135 -0.3355
 5103SOL    HW120629   3.374   6.711   6.152  1.3878 -0.4169 -0.2990
 5103SOL    HW220630   3.338   6.669   6.292 -1.2814 -0.0319 -0.8225
 5104SOL     OW20631   9.783   2.751   1.568 -0.1228  0.2823  0.9322
 5104SOL    HW120632   9.877   2.765   1.578 -0.1364  0.4497  0.8364
 5104SOL    HW220633   9.766   2.771   1.476 -0.3181  0.6420  1.0453
 5105SOL     OW20634   6.659   3.493   2.610 -0.5782 -0.5525 -0.2388
 5105SOL    HW120635   6.715   3.416   2.600  1.6359  0.9149  0.1725
 5105SOL    HW220636   6.666   3.538   2.526 -0.4376  0.0776  0.1083
 5106SOL     OW20637   0.488   0.491   7.150 -0.2780 -0.3904 -0.1060
 5106SOL    HW120638   0.471   0.451   7.064 -0.4743  0.9171 -0.7009
 5106SOL    HW220639   0.450   0.578   7.144  0.4890  0.0482  1.0125
 5107SOL     OW20640   8.585   9.945   5.820 -0.1691  0.5664  0.3171
 5107SOL    HW120641   8.606   9.853   5.804  2.3654  0.8719  1.3265
 5107SOL    HW220642   8.548   9.946   5.908  1.4766  0.6491  1.0437
 5108SOL     OW20643  11.600   4.428   7.525  0.5591 -0.5965 -0.6863
 5108SOL    HW120644  11.570   4.512   7.563  1.8812 -0.2900 -0.2653
 5108SOL    HW220645  11.558   4.424   7.439  2.2328  1.6311 -1.7108
 5109SOL     OW20646   7.435  11.779   7.770  0.3903 -0.1393  0.1244
 5109SOL    HW120647   7.377  11.848   7.803  0.3530  0.4303 -1.0659
 5109SOL    HW220648   7.383  11.699   7.777 -0.5569  0.3559 -0.8785
 5110SOL     OW20649   9.592   5.849   9.111  0.3135 -0.4843 -0.0641
 5110SOL    HW120650   9.623   5.761   9.090 -1.9886 -1.3909  0.0272
 5110SOL    HW220651   9.503   5.836   9.144 -0.5384  1.9748 -1.1351
 5111SOL     OW20652   9.717   7.809   9.354  0.1212 -0.5420  0.8153
 5111SOL    HW120653   9.631   7.850   9.355 -0.0568 -0.8673 -0.0278
 5111SOL    HW220654   9.713   7.742   9.422 -0.6749 -1.2719  0.0887
 5112SOL     OW20655   2.292  10.822  10.743 -0.3651  0.7669 -0.1612
 5112SOL    HW120656   2.237  10.795  10.816 -0.8543 -0.7127 -1.0245
 5112SOL    HW220657   2.361  10.875  10.782 -1.8682  1.9066  1.0705
 5113SOL     OW20658   6.751   0.649   9.879  0.0288  0.1864 -0.0880
 5113SOL    HW120659   6.715   0.560   9.878 -3.6025  1.4601 -0.7777
 5113SOL    HW220660   6.690   0.699   9.934  2.4770  2.1080  1.0546
 5114SOL     OW20661   5.119   1.025   2.463  0.0376 -0.2849 -0.0290
 5114SOL    HW120662   5.147   1.069   2.544 -0.2563 -0.0071 -0.0792
 5114SOL    HW220663   5.025   1.044   2.456 -0.1368 -1.0644  0.0460
 5115SOL     OW20664   2.105   8.872   0.398 -0.4502  0.7898 -0.4126
 5115SOL    HW120665   2.021   8.917   0.400 -1.1586 -0.5235  0.4837
 5115SOL    HW220666   2.083   8.781   0.379  0.9218  0.7048 -1.8413
 5116SOL     OW20667   2.774   7.021   6.889  0.0360 -0.0251  0.5370
 5116SOL    HW120668   2.802   7.074   6.815 -0.4953 -2.1719 -1.3112
 5116SOL    HW220669   2.806   7.069   6.966  2.5691  1.1866 -1.1118
 5117SOL     OW20670   3.001   8.466   3.613 -0.1085  0.0686 -0.3183
 5117SOL    HW120671   3.057   8.389   3.621  0.3851  0.2593 -1.6302
 5117SOL    HW220672   3.005   8.488   3.520 -1.6323  0.6474 -0.2681
 5118SOL     OW20673   2.138   6.981   8.323  0.0625 -0.2249 -0.3888
 5118SOL    HW120674   2.083   7.058   8.338  1.2683  1.1697 -2.5160
 5118SOL    HW220675   2.097   6.936   8.249  0.1302 -0.8517 -0.0487
 5119SOL     OW20676   5.140   8.884   4.870  0.0260  0.0334  0.3419
 5119SOL    HW120677   5.121   8.795   4.899 -3.6574  0.3808 -0.4965
 5119SOL    HW220678   5.195   8.921   4.939  1.8265 -2.8447  0.6284
 5120SOL     OW20679   5.255   9.218  10.599  0.1682  0.1783 -0.2664
 5120SOL    HW120680   5.223   9.183  10.516 -2.3004  1.6313 -0.0240
 5120SOL    HW220681   5.271   9.140  10.653 -1.2370 -0.7066 -1.0753
 5121SOL     OW20682   7.986   5.154   6.169  0.2612  0.1873  0.0942
 5121SOL    HW120683   8.053   5.220   6.185  0.2063  0.2303  0.1426
 5121SOL    HW220684   8.029   5.071   6.188  0.1696  0.2409  0.5449
 5122SOL     OW20685   1.207   3.535   2.233 -0.0100 -0.2263 -0.2988
 5122SOL    HW120686   1.277   3.509   2.173  0.8563  1.4174 -0.0534
 5122SOL    HW220687   1.169   3.452   2.263  2.1986 -1.2102  0.0009
 5123SOL     OW20688   8.147   3.456   6.629 -0.1669  0.4431 -0.0115
 5123SOL    HW120689   8.179   3.542   6.658 -0.4540 -0.4609  3.2681
 5123SOL    HW220690   8.122   3.471   6.537  1.6221  3.3323 -0.1740
 5124SOL     OW20691   9.677   3.512   0.622  0.8060  0.0694  0.3867
 5124SOL    HW120692   9.659   3.480   0.533 -0.9219  0.6511  0.4890
 5124SOL    HW220693   9.649   3.603   0.620  0.6374  0.0536  1.5676
 5125SOL     OW20694  11.008   9.077   2.337  0.1885  0.0372 -0.6597
 5125SOL    HW120695  10.996   9.145   2.270  0.8272  0.3206 -0.4926
 5125SOL    HW220696  11.103   9.069   2.346  0.1383 -1.4555 -1.2521
 5126SOL     OW20697   3.750   2.278   9.359 -0.0729 -0.3415 -0.3410
 5126SOL    HW120698   3.835   2.232   9.363  0.1087  0.0541  1.3019
 5126SOL    HW220699   3.762   2.353   9.417 -1.2378  0.2926 -0.9041
 5127SOL     OW20700   0.315  10.712   9.986 -0.1148  0.3452 -0.4195
 5127SOL    HW120701   0.352  10.786   9.937 -2.3491  2.1575  0.4519
 5127SOL    HW220702   0.285  10.651   9.919  0.4746  0.9108 -1.2067
 5128SOL     OW20703   7.054   5.613  10.305  0.4250 -0.0809  0.0065
 5128SOL    HW120704   7.090   5.656  10.227  0.3191 -0.1077 -0.0582
 5128SOL    HW220705   7.131   5.586  10.355  0.6224 -2.7186 -1.5128
 5129SOL     OW20706   2.518   9.707   9.627 -0.0022 -0.6457 -0.2043
 5129SOL    HW120707   2.582   9.767   9.589  0.8875  1.1137  3.6006
 5129SOL    HW220708   2.434   9.753   9.618  0.3645  0.2626  0.8637
 5130SOL     OW20709   6.569   1.406   3.254  0.2749  0.3766 -0.0335
 5130SOL    HW120710   6.592   1.465   3.183 -0.2469  0.5591 -0.0553
 5130SOL    HW220711   6.653   1.369   3.283  0.4598  0.0617 -0.9405
 5131SOL     OW20712   8.337  11.303   6.753  0.5598 -0.0068 -0.2017
 5131SOL    HW120713   8.257  11.276   6.797  0.5832  0.3243  0.0480
 5131SOL    HW220714   8.365  11.382   6.800  0.2593  0.6991 -1.1737
 5132SOL     OW20715   7.099   4.643   8.145  0.2733  0.4317  0.3402
 5132SOL    HW120716   7.011   4.605   8.145  1.0880 -1.7442  2.0190
 5132SOL    HW220717   7.105   4.690   8.229  1.2478 -1.0574  1.1641
 5133SOL     OW20718  11.165   5.637   4.181  0.4552 -0.2479  0.1027
 5133SOL    HW120719  11.229   5.686   4.232  0.7405 -0.1477 -0.3412
 5133SOL    HW220720  11.194   5.546   4.187  1.8781  0.0064 -1.7858
 5134SOL     OW20721   2.516   5.268   9.690 -0.1588  0.0572 -0.5210
 5134SOL    HW120722   2.550   5.353   9.715  0.2538  1.1478 -4.1944
 5134SOL    HW220723   2.421   5.279   9.692 -0.1367  0.1770  0.1972
 5135SOL     OW20724   8.957   1.464   6.725 -0.5203 -0.2265  0.3592
 5135SOL    HW120725   8.878   1.499   6.766 -1.1857 -1.4709  0.1900
 5135SOL    HW220726   8.948   1.489   6.633 -1.3948 -1.4787  0.0803
 5136SOL     OW20727   4.417   4.459  10.383 -0.1339 -0.3813  0.1565
 5136SOL    HW120728   4.370   4.376  10.392 -0.9859 -0.1095 -1.4878
 5136SOL    HW220729   4.379   4.516  10.449 -0.7070 -0.7905  0.1853
 5137SOL     OW20730   5.872  11.814  11.801  0.5109 -0.0301 -0.5127
 5137SOL    HW120731   5.905  11.902  11.785 -0.2928  0.7219  1.6006
 5137SOL    HW220732   5.944  11.756  11.777  1.3662  1.2357 -1.1057
 5138SOL     OW20733   9.634   1.379  10.263  0.2672  0.9710  0.4556
 5138SOL    HW120734   9.689   1.453  10.238 -0.7134  1.2773 -0.9797
 5138SOL    HW220735   9.546   1.405  10.235  0.1957 -1.5568 -2.1835
 5139SOL     OW20736  11.419   0.585  11.159  0.1696  0.2485  0.6469
 5139SOL    HW120737  11.335   0.584  11.114  0.8701  0.7562 -0.7495
 5139SOL    HW220738  11.443   0.492  11.167 -0.0380  0.1452  0.1017
 5140SOL     OW20739  11.374   4.738   3.759 -0.3131 -0.8258 -0.0968
 5140SOL    HW120740  11.281   4.760   3.755 -0.0550  0.4118  0.2038
 5140SOL    HW220741  11.404   4.744   3.668  0.0189  1.4689  0.1025
 5141SOL     OW20742   4.027  10.371   5.984  0.9580 -0.3141  0.0735
 5141SOL    HW120743   3.966  10.374   6.058 -0.4751 -0.8177 -1.0285
 5141SOL    HW220744   4.105  10.415   6.015 -0.4495  1.5770  1.1411
 5142SOL     OW20745  10.398   9.371   2.266 -0.1972 -0.2821 -0.7315
 5142SOL    HW120746  10.446   9.307   2.318  0.2071  1.0759  0.6866
 5142SOL    HW220747  10.312   9.333   2.254 -0.5602 -0.3981  1.6401
 5143SOL     OW20748   8.399   6.100   9.503  0.0527 -0.1794  0.2163
 5143SOL    HW120749   8.459   6.076   9.433  1.0637  0.8995  0.6821
 5143SOL    HW220750   8.452   6.151   9.564 -0.6255 -1.6172  2.1187
 5144SOL     OW20751   7.277   9.762   6.601  0.4444  0.1342 -0.3115
 5144SOL    HW120752   7.278   9.852   6.569  1.0626  0.1380 -0.2859
 5144SOL    HW220753   7.358   9.753   6.651  0.6309 -0.5791 -0.7253
 5145SOL     OW20754  11.772  10.277   7.039 -0.1509  0.0099  0.2057
 5145SOL    HW120755  11.829  10.273   7.116  0.8404 -0.2144 -0.5178
 5145SOL    HW220756  11.785  10.365   7.004 -0.0021 -0.1401 -0.1270
 5146SOL     OW20757  10.346  10.159   7.091 -0.2933  0.3130 -0.1697
 5146SOL    HW120758  10.413  10.092   7.102  0.6784  1.1993 -0.4843
 5146SOL    HW220759  10.286  10.124   7.026 -0.8489 -1.0188  1.0096
 5147SOL     OW20760   9.734   7.461  11.494  0.0583  0.5734 -0.0419
 5147SOL    HW120761   9.763   7.435  11.582  0.5895 -0.5772 -0.5247
 5147SOL    HW220762   9.683   7.386  11.463 -0.7592  1.2782 -0.4372
 5148SOL     OW20763  11.285   8.944   7.711 -0.1406  0.0377  0.1852
 5148SOL    HW120764  11.297   8.904   7.625  0.1909 -0.2327  0.3575
 5148SOL    HW220765  11.211   8.896   7.749  0.1747 -0.3301  0.3408
 5149SOL     OW20766   2.634   1.950   6.659 -0.2390  0.2241  0.3884
 5149SOL    HW120767   2.621   2.029   6.711 -1.1484  0.2491  0.1348
 5149SOL    HW220768   2.612   1.976   6.570  0.2265 -0.1084  0.1746
 5150SOL     OW20769   0.493   1.230   3.156  0.5062 -0.1262  0.2170
 5150SOL    HW120770   0.513   1.306   3.211 -0.6871 -0.1607  0.7276
 5150SOL    HW220771   0.401   1.241   3.133  0.3939 -1.2739  0.0704
 5151SOL     OW20772   9.023   9.773   1.009 -0.2761  0.3033  0.3566
 5151SOL    HW120773   9.065   9.689   0.988  1.1765  0.9209  0.6620
 5151SOL    HW220774   9.028   9.778   1.105 -2.3807 -0.2375  0.5517
 5152SOL     OW20775   8.377   1.857   9.175 -0.3732 -0.2333 -0.1841
 5152SOL    HW120776   8.377   1.952   9.165  0.3229 -0.3541 -1.7341
 5152SOL    HW220777   8.289   1.830   9.147 -0.6974 -0.0407  0.6102
 5153SOL     OW20778   0.373   2.803   9.892  0.1301  0.2337  0.5642
 5153SOL    HW120779   0.391   2.847   9.975  0.7248 -0.4776  0.8252
 5153SOL    HW220780   0.448   2.825   9.837 -0.0461  0.3385  0.3652
 5154SOL     OW20781   3.163   9.373   3.869  0.0544  0.0509  0.2502
 5154SOL    HW120782   3.200   9.295   3.826  0.5904 -0.7376  2.0355
 5154SOL    HW220783   3.069   9.356   3.872  0.1473 -0.4566  0.4597
 5155SOL     OW20784   5.401   2.260   0.326  0.1142  0.1413  0.0539
 5155SOL    HW120785   5.325   2.203   0.319  0.1641  0.1568 -0.6635
 5155SOL    HW220786   5.393   2.320   0.251  0.2399  0.8604  0.6056
 5156SOL     OW20787   6.878  10.248   1.864 -0.2456  0.1884 -0.2059
 5156SOL    HW120788   6.881  10.324   1.923 -1.6060 -0.0159  0.1427
 5156SOL    HW220789   6.875  10.286   1.777  1.9174  0.4977 -0.2200
 5157SOL     OW20790  11.351   5.758   4.338 -0.4280  0.3872  0.2280
 5157SOL    HW120791  11.430   5.796   4.301 -0.3014  1.2399  1.3349
 5157SOL    HW220792  11.313   5.827   4.392 -1.4422 -0.3040  0.4389
 5158SOL     OW20793   8.288   6.695   1.568 -0.3168 -0.7760  0.3083
 5158SOL    HW120794   8.340   6.659   1.640  0.8310 -0.3120 -0.2618
 5158SOL    HW220795   8.197   6.680   1.594  0.0861 -1.1810  1.5538
 5159SOL     OW20796   9.457  11.127   8.081  0.2620 -0.0063  0.1156
 5159SOL    HW120797   9.469  11.206   8.134  1.3700 -1.0784  1.5414
 5159SOL    HW220798   9.363  11.126   8.061 -0.6007 -0.3616  3.4885
 5160SOL     OW20799   0.807   2.418   0.775  0.3654  0.0062  0.3311
 5160SOL    HW120800   0.770   2.493   0.728  1.2101 -0.4104 -1.0764
 5160SOL    HW220801   0.847   2.455   0.853  1.7251  1.2221 -0.8836
 5161SOL     OW20802   2.079  11.656   5.934  0.8698  0.1869 -0.0056
 5161SOL    HW120803   2.051  11.677   6.023  0.9013  3.1333 -0.6006
 5161SOL    HW220804   2.172  11.636   5.941  0.8127  0.1418  0.6422
 5162SOL     OW20805   4.710   0.460   6.709  0.6488  0.2681 -0.1710
 5162SOL    HW120806   4.691   0.493   6.797  0.5047 -1.6227  0.5434
 5162SOL    HW220807   4.764   0.528   6.669  2.8927  0.0789  2.2927
 5163SOL     OW20808   6.626  10.679  10.714 -0.1810  0.1488  0.6741
 5163SOL    HW120809   6.648  10.600  10.665  2.1946  0.9474  0.3473
 5163SOL    HW220810   6.576  10.733  10.652 -0.6953 -0.5401  0.4815
 5164SOL     OW20811   4.706  10.206   1.558  0.3283 -0.5332 -0.5764
 5164SOL    HW120812   4.716  10.197   1.463  0.9805  1.8900 -0.8189
 5164SOL    HW220813   4.789  10.242   1.587  1.0014 -3.3699  1.3414
 5165SOL     OW20814   7.307  11.134   5.835  0.1181 -0.0755  0.2642
 5165SOL    HW120815   7.277  11.044   5.834 -1.5545  0.3754 -2.9680
 5165SOL    HW220816   7.248  11.179   5.896 -0.3364 -0.7755  0.3452
 5166SOL     OW20817   8.608   8.413   5.204 -0.2284  0.8226 -0.0529
 5166SOL    HW120818   8.618   8.464   5.285 -0.7966  1.7887 -0.5714
 5166SOL    HW220819   8.556   8.469   5.146  2.5073  1.3826 -2.1553
 5167SOL     OW20820   0.367   4.527   7.189  0.2648 -0.6385 -0.9060
 5167SOL    HW120821   0.425   4.579   7.244 -0.2853  0.6866 -1.5373
 5167SOL    HW220822   0.408   4.441   7.186  1.8946  0.0979 -0.8701
 5168SOL     OW20823   8.606  11.400  10.795  0.2669  0.0803 -0.3156
 5168SOL    HW120824   8.552  11.472  10.763  1.2980 -0.6310 -4.1054
 5168SOL    HW220825   8.558  11.321  10.770  2.1135 -0.5388 -2.2012
 5169SOL     OW20826   7.750   1.384   8.748  0.6405  0.1883 -0.1794
 5169SOL    HW120827   7.840   1.415   8.750  0.8555 -0.4193  1.4916
 5169SOL    HW220828   7.697   1.463   8.758  0.9867  0.5110 -0.8381
 5170SOL     OW20829   2.220   5.708   7.214 -0.1184 -0.1748 -0.1326
 5170SOL    HW120830   2.282   5.691   7.144  0.6013 -0.3132  0.5286
 5170SOL    HW220831   2.274   5.722   7.292 -0.9198 -0.6948  0.5344
 5171SOL     OW20832   2.397   8.217   6.702 -1.0939 -0.0620  0.2498
 5171SOL    HW120833   2.338   8.219   6.626 -1.8175 -0.3482  0.7943
 5171SOL    HW220834   2.451   8.139   6.687  0.0363  0.9039 -0.8923
 5172SOL     OW20835   2.502   4.129   8.406  0.1817  0.7009  0.0578
 5172SOL    HW120836   2.465   4.217   8.400  3.1545  2.1720  1.4069
 5172SOL    HW220837   2.436   4.079   8.455 -1.9634  1.8322 -1.4861
 5173SOL     OW20838   6.383  10.438   8.254  0.7045  0.4188  0.7483
 5173SOL    HW120839   6.457  10.407   8.203  0.3042 -0.5053  0.7181
 5173SOL    HW220840   6.311  10.378   8.233 -0.5318  2.2239 -0.4710
 5174SOL     OW20841   8.848   0.251   4.172 -0.1307  0.2393 -0.3725
 5174SOL    HW120842   8.908   0.240   4.246  0.3470  0.3561 -0.7402
 5174SOL    HW220843   8.780   0.186   4.187 -0.9522  1.3456  1.0636
 5175SOL     OW20844   2.934   5.792   4.846  0.2354 -0.1091 -0.4297
 5175SOL    HW120845   2.916   5.825   4.934  0.8908 -3.5037  1.1442
 5175SOL    HW220846   3.027   5.813   4.831  0.0917  0.5813 -0.3833
 5176SOL     OW20847   5.963   6.083  10.392  0.7674  0.6476  0.1516
 5176SOL    HW120848   5.908   6.090  10.470 -1.3947  0.4383 -1.2534
 5176SOL    HW220849   6.021   6.010  10.410  2.0064  2.0651  2.4631
 5177SOL     OW20850  10.726   4.317   7.912 -0.3745 -0.0837  0.0330
 5177SOL    HW120851  10.698   4.394   7.863 -0.2927 -0.9062 -1.3365
 5177SOL    HW220852  10.719   4.244   7.850  1.0974 -0.9352  0.8095
 5178SOL     OW20853   3.322   2.479  10.372  0.1406 -0.6674  0.0768
 5178SOL    HW120854   3.305   2.557  10.424  0.3766 -1.4412  1.3629
 5178SOL    HW220855   3.282   2.408  10.422 -0.2229 -1.3563 -1.1565
 5179SOL     OW20856   8.124  11.539   4.204  0.1486 -0.0738  0.1615
 5179SOL    HW120857   8.154  11.542   4.113  1.9010 -0.7192  0.6782
 5179SOL    HW220858   8.029  11.524   4.197  0.0047  1.2077 -1.5460
 5180SOL     OW20859   1.073   0.683  11.428  0.1392 -0.0528  0.1656
 5180SOL    HW120860   1.166   0.660  11.421  0.9671  3.0910 -1.1985
 5180SOL    HW220861   1.073   0.771  11.467 -2.3165 -0.1070  0.4548
 5181SOL     OW20862   7.345   0.226   0.613  0.2361 -0.1910 -0.0846
 5181SOL    HW120863   7.351   0.310   0.567  0.5170  0.4694  1.1153
 5181SOL    HW220864   7.397   0.166   0.560 -1.5853 -0.1573 -2.0672
 5182SOL     OW20865  11.765   4.639   0.307  0.4083 -0.1152 -1.1355
 5182SOL    HW120866  11.861   4.640   0.311  0.4233  0.4578 -1.4439
 5182SOL    HW220867  11.738   4.678   0.390  0.4324 -0.6650 -0.8676
 5183SOL     OW20868   8.846   2.238   4.157 -0.2234  0.6005 -0.0889
 5183SOL    HW120869   8.855   2.170   4.224 -1.7289  1.5370  1.1224
 5183SOL    HW220870   8.935   2.270   4.143  0.4049 -1.0471 -0.1119
 5184SOL     OW20871  10.886   7.771   8.494 -0.0767 -0.3855 -0.6084
 5184SOL    HW120872  10.928   7.776   8.408 -1.0047  0.8374 -1.0224
 5184SOL    HW220873  10.883   7.677   8.513 -0.7941 -0.7838 -2.4112
 5185SOL     OW20874   8.699   8.579   7.724 -0.5269 -0.4145  0.2889
 5185SOL    HW120875   8.671   8.536   7.643 -0.1809 -0.6946  0.3138
 5185SOL    HW220876   8.705   8.672   7.701 -2.1493 -0.2371  0.4683
 5186SOL     OW20877   9.733   3.810   1.471 -0.2875  0.6486  0.2808
 5186SOL    HW120878   9.714   3.903   1.460 -1.0875  0.6054  1.1218
 5186SOL    HW220879   9.661   3.777   1.525  0.3919 -0.2981  0.6443
 5187SOL     OW20880   8.562   5.953   1.265 -0.7447 -0.2846 -0.0961
 5187SOL    HW120881   8.503   5.891   1.222 -1.1166  1.0827 -1.6842
 5187SOL    HW220882   8.522   6.038   1.250  1.1576  0.6107 -0.4585
 5188SOL     OW20883   9.053   3.386   7.249  0.1119  0.1450 -0.0492
 5188SOL    HW120884   9.002   3.344   7.317 -0.1686  0.6095  0.0324
 5188SOL    HW220885   9.054   3.479   7.273 -0.5176  0.4193 -0.9987
 5189SOL     OW20886   8.718   1.902   3.646 -0.1292 -0.3586  0.2898
 5189SOL    HW120887   8.756   1.814   3.645  1.2550  0.2252 -0.0632
 5189SOL    HW220888   8.751   1.944   3.567 -1.5438  0.1881 -0.0465
 5190SOL     OW20889   1.126  10.450  10.131 -0.1214  0.5690 -0.3758
 5190SOL    HW120890   1.068  10.381  10.099 -0.8525  1.4779 -1.0681
 5190SOL    HW220891   1.068  10.512  10.174  0.0845  2.2211 -2.3205
 5191SOL     OW20892   1.046   4.467  11.039 -0.1144 -0.8320 -0.8023
 5191SOL    HW120893   1.103   4.401  10.999 -0.2236 -1.8932  0.7007
 5191SOL    HW220894   0.994   4.418  11.103  0.1153  0.7703  0.6853
 5192SOL     OW20895  11.124   0.240   5.532  0.2213  0.2166  0.3641
 5192SOL    HW120896  11.120   0.149   5.501 -0.3199  0.1041  0.7536
 5192SOL    HW220897  11.145   0.291   5.453 -0.7581 -0.1064 -0.1180
 5193SOL     OW20898  10.412   8.942   8.893  0.2478  0.4092  0.2894
 5193SOL    HW120899  10.359   8.866   8.917  1.8885 -1.8974 -2.6853
 5193SOL    HW220900  10.467   8.959   8.969  1.0634 -2.5984  0.5038
 5194SOL     OW20901   8.434  11.381   1.847  0.3832 -0.0827 -0.3025
 5194SOL    HW120902   8.421  11.367   1.753 -0.5859  0.4908 -0.2750
 5194SOL    HW220903   8.443  11.476   1.855  0.5795 -0.1419  0.1762
 5195SOL     OW20904   3.806   1.657   9.252  0.1942 -1.0276  0.0188
 5195SOL    HW120905   3.778   1.597   9.183  1.0725 -0.8256 -0.5392
 5195SOL    HW220906   3.808   1.743   9.210  1.5025 -1.0185  0.0351
 5196SOL     OW20907   1.307   6.176   7.551 -0.1132 -0.4209 -0.2656
 5196SOL    HW120908   1.287   6.111   7.484 -0.0299 -0.2491 -0.4598
 5196SOL    HW220909   1.376   6.229   7.513 -0.4807  0.0526 -0.2841
 5197SOL     OW20910  10.628   9.584   5.080 -0.0303  0.4596  0.1195
 5197SOL    HW120911  10.541   9.583   5.040 -0.1701 -0.9609  0.4099
 5197SOL    HW220912  10.612   9.614   5.170 -0.2636 -0.0586  0.2543
 5198SOL     OW20913   0.404   8.281  10.479 -0.4502  0.3356 -0.4416
 5198SOL    HW120914   0.364   8.316  10.400  0.2235  0.1819 -0.8576
 5198SOL    HW220915   0.498   8.282  10.462 -0.2218  1.2126  0.7359
 5199SOL     OW20916  11.791  11.716   5.862  0.0721 -0.1384 -0.0121
 5199SOL    HW120917  11.723  11.650   5.857  0.2096 -0.3005  0.2531
 5199SOL    HW220918  11.758  11.789   5.810  0.0233 -0.5053 -0.5027
 5200SOL     OW20919   7.493   9.758   7.825 -0.1323  0.0878  0.0660
 5200SOL    HW120920   7.469   9.665   7.816 -0.3343 -0.0933  2.1355
 5200SOL    HW220921   7.409   9.802   7.838  0.1602  0.1380  2.0692
 5201SOL     OW20922   4.679   1.295   6.520  0.0113  0.2072 -0.4508
 5201SOL    HW120923   4.661   1.381   6.557  0.4108  0.2185 -0.2806
 5201SOL    HW220924   4.722   1.247   6.590  1.2743  0.4130 -1.0624
 5202SOL     OW20925   1.923   3.714   2.849  0.0161 -0.1204  0.4850
 5202SOL    HW120926   1.870   3.638   2.874  0.2824 -0.9568 -1.3483
 5202SOL    HW220927   1.979   3.682   2.779  0.3959  1.6886 -0.0746
 5203SOL     OW20928   4.959  10.027   3.878  0.1417 -0.0999 -0.6069
 5203SOL    HW120929   4.937  10.106   3.927  0.0865 -0.7849  0.5062
 5203SOL    HW220930   5.052  10.012   3.896 -0.0605 -0.7704 -0.0979
 5204SOL     OW20931   4.022   5.945   0.762  0.4886 -0.2760  0.0814
 5204SOL    HW120932   4.049   6.007   0.694  0.4238  0.9756  1.1659
 5204SOL    HW220933   3.926   5.941   0.753  0.2021  1.7207  1.5542
 5205SOL     OW20934   4.110   7.100  10.246 -0.0619  0.0862  0.0586
 5205SOL    HW120935   4.036   7.050  10.213 -0.1105  0.8460 -1.0386
 5205SOL    HW220936   4.150   7.044  10.313 -0.1837 -1.3567 -1.0400
 5206SOL     OW20937   8.019   7.484   5.158  0.3810 -0.1646  0.3946
 5206SOL    HW120938   8.047   7.512   5.245 -0.8711 -0.6281  0.9617
 5206SOL    HW220939   8.004   7.390   5.166 -0.5173 -0.0763 -0.1065
 5207SOL     OW20940  11.560  11.776   4.362  0.3659  0.8881 -0.5551
 5207SOL    HW120941  11.628  11.709   4.366 -1.9747 -1.6100  0.2191
 5207SOL    HW220942  11.515  11.760   4.279 -1.8619 -0.3322  0.8003
 5208SOL     OW20943   7.826   8.740   6.622  0.4093  0.3655 -0.3176
 5208SOL    HW120944   7.843   8.789   6.703 -1.0241  1.3643 -0.5917
 5208SOL    HW220945   7.856   8.651   6.642 -0.3516  0.4635  1.4801
 5209SOL     OW20946   3.183  10.154   3.045 -0.2775  0.0221 -0.6317
 5209SOL    HW120947   3.274  10.183   3.052 -0.4168  0.6101 -1.1849
 5209SOL    HW220948   3.157  10.134   3.135 -0.0643  1.2847 -0.2710
 5210SOL     OW20949   5.272   8.612   4.123 -0.4528 -0.2230  0.3254
 5210SOL    HW120950   5.259   8.566   4.040 -0.1067  2.1825 -1.1496
 5210SOL    HW220951   5.185   8.614   4.164 -0.8401 -0.5255 -0.4724
 5211SOL     OW20952   6.104   6.510   4.497  0.0558  0.2014 -0.1438
 5211SOL    HW120953   6.022   6.465   4.516  0.2464  0.2420  0.7974
 5211SOL    HW220954   6.164   6.481   4.566  0.2035  1.8609  0.4519
 5212SOL     OW20955   9.374   2.926  11.536 -0.0838  0.0921  0.0327
 5212SOL    HW120956   9.452   2.878  11.564  0.9126  2.6683  2.0342
 5212SOL    HW220957   9.397   3.018  11.547 -3.3879  0.9868  0.6032
 5213SOL     OW20958   1.440   6.827   8.726  0.2336 -0.2949  0.0833
 5213SOL    HW120959   1.438   6.904   8.782  2.0227  0.2764 -0.5543
 5213SOL    HW220960   1.515   6.777   8.756  1.4662  0.2094 -1.9521
 5214SOL     OW20961   3.201   8.807   3.840 -0.3991  0.1146 -0.1587
 5214SOL    HW120962   3.269   8.789   3.775  0.4822  1.6704  0.2833
 5214SOL    HW220963   3.120   8.811   3.789  0.0970  0.0563 -0.9749
 5215SOL     OW20964   7.027   7.076   2.042  0.1056  0.1244  0.4857
 5215SOL    HW120965   6.969   7.066   2.117 -2.7704  0.8071 -1.5048
 5215SOL    HW220966   7.019   6.993   1.995 -1.0683  1.0134 -0.9513
 5216SOL     OW20967   1.531  10.557  11.097 -0.0595  0.0164 -0.0280
 5216SOL    HW120968   1.595  10.486  11.099 -0.0901  0.0028  0.9487
 5216SOL    HW220969   1.500  10.564  11.187  0.6032  1.8877  0.0860
 5217SOL     OW20970   2.262   3.211   6.701 -0.5227 -0.1560 -0.0672
 5217SOL    HW120971   2.287   3.231   6.791  0.4240  0.3968 -0.4393
 5217SOL    HW220972   2.229   3.121   6.704 -1.7377  0.2990  1.0488
 5218SOL     OW20973   3.223   6.922   2.535  0.3628  0.2608 -0.2679
 5218SOL    HW120974   3.175   6.948   2.613 -0.4147 -0.3255 -0.5348
 5218SOL    HW220975   3.299   6.980   2.532 -0.3230  1.1960  0.1748
 5219SOL     OW20976   6.747   3.641   2.373 -0.5392 -0.0899 -0.7365
 5219SOL    HW120977   6.823   3.662   2.427 -0.7906 -1.6477  0.2604
 5219SOL    HW220978   6.701   3.725   2.363  0.9405  0.7435 -0.8183
 5220SOL     OW20979   2.342   5.140   8.677 -0.0852  0.0162 -0.4329
 5220SOL    HW120980   2.282   5.203   8.716 -1.2111 -1.1645 -0.1788
 5220SOL    HW220981   2.421   5.144   8.730  0.7015  2.6757 -1.6573
 5221SOL     OW20982   0.089  11.681   3.252 -0.5448 -0.3023 -0.1633
 5221SOL    HW120983   0.100  11.594   3.213 -0.0169 -0.2704 -0.0987
 5221SOL    HW220984   0.065  11.738   3.179  2.2639  0.1505 -0.8710
 5222SOL     OW20985   7.203   2.335   2.311  0.6693 -0.6412  0.4996
 5222SOL    HW120986   7.183   2.411   2.367 -1.8247 -1.5791  1.0243
 5222SOL    HW220987   7.297   2.321   2.322  0.8365  1.1635  1.9156
 5223SOL     OW20988   9.091   9.505   3.166 -0.3613 -0.4808  0.0669
 5223SOL    HW120989   9.113   9.592   3.199 -1.5564  0.5151 -1.6122
 5223SOL    HW220990   9.135   9.501   3.081  0.2114 -1.7978  0.4062
 5224SOL     OW20991   4.324   2.566   4.992 -0.0968 -0.1270 -0.3196
 5224SOL    HW120992   4.357   2.477   5.006 -1.0410 -0.2360  1.5414
 5224SOL    HW220993   4.368   2.618   5.059  0.7308  0.9145 -1.6268
 5225SOL     OW20994   1.316   9.258   8.311 -0.3094  0.1617 -0.3328
 5225SOL    HW120995   1.392   9.297   8.354 -1.4370  0.8237  1.1688
 5225SOL    HW220996   1.314   9.168   8.345  1.0025 -0.5769 -2.0637
 5226SOL     OW20997   9.292   3.152   3.135  0.0853  0.4240 -0.5465
 5226SOL    HW120998   9.315   3.244   3.147  0.4634  0.5199 -1.8350
 5226SOL    HW220999   9.229   3.133   3.204  1.9556  0.9242  1.3740
 5227SOL     OW21000   8.154   7.684  11.173  0.0856 -0.6488  0.2361
 5227SOL    HW121001   8.081   7.724  11.126  0.0866 -2.0277 -0.9891
 5227SOL    HW221002   8.128   7.592  11.185  1.4683 -1.0856  0.0813
 5228SOL     OW21003   6.416   4.194   3.778  0.3012  0.2715 -0.4305
 5228SOL    HW121004   6.328   4.192   3.741  0.2983  1.8458 -0.5836
 5228SOL    HW221005   6.468   4.239   3.711  1.1086 -0.1758 -0.1082
 5229SOL     OW21006   6.862   1.468   4.466 -0.0231  0.1353 -0.2006
 5229SOL    HW121007   6.899   1.470   4.378  0.7221 -0.5638  0.0849
 5229SOL    HW221008   6.899   1.390   4.506  0.2541  0.8536  1.0001
 5230SOL     OW21009   3.716   0.473   5.192  0.1510 -0.2845 -0.1081
 5230SOL    HW121010   3.782   0.530   5.230  1.8968 -2.7081  0.7114
 5230SOL    HW221011   3.668   0.438   5.267 -0.9573  0.1029 -0.6047
 5231SOL     OW21012   1.570   3.154   4.808 -1.0636  0.3642  0.0086
 5231SOL    HW121013   1.615   3.188   4.731 -0.7662 -1.3232 -0.6009
 5231SOL    HW221014   1.544   3.065   4.784 -2.4026  0.3612  1.2952
 5232SOL     OW21015   2.416   3.730   4.397  0.1345  0.4555 -0.2948
 5232SOL    HW121016   2.398   3.824   4.403  0.8643  0.5552  0.5830
 5232SOL    HW221017   2.342   3.695   4.348  1.0226  1.8222 -2.8083
 5233SOL     OW21018   5.382   4.453   1.379  0.0614 -0.5759  0.1895
 5233SOL    HW121019   5.321   4.467   1.452 -1.0283 -0.2977 -0.7394
 5233SOL    HW221020   5.349   4.511   1.310  1.5240 -0.2580 -0.2696
 5234SOL     OW21021   1.172   2.463   8.622 -0.1874  0.1653 -0.3043
 5234SOL    HW121022   1.103   2.428   8.566 -1.0691  1.0715  0.1852
 5234SOL    HW221023   1.162   2.417   8.705  2.3438 -2.6322 -1.3459
 5235SOL     OW21024  11.300   6.188  10.014 -0.2779 -0.2920  0.0054
 5235SOL    HW121025  11.208   6.194  10.040 -0.0296 -0.0350  0.8686
 5235SOL    HW221026  11.297   6.181   9.919 -1.1245  1.4271 -0.1360
 5236SOL     OW21027   8.198   7.124   3.743  0.1918 -0.0788  0.4957
 5236SOL    HW121028   8.126   7.113   3.805  0.9423 -0.7046  1.2850
 5236SOL    HW221029   8.259   7.053   3.765  0.6618 -0.0554 -0.6933
 5237SOL     OW21030  10.280  10.393  10.347  0.4410  0.2514  0.3115
 5237SOL    HW121031  10.317  10.474  10.381 -1.7670  1.6942 -0.4851
 5237SOL    HW221032  10.241  10.350  10.423 -1.1839  1.6000  0.3116
 5238SOL     OW21033   2.212   6.460   8.325  0.4160 -0.1722 -0.1429
 5238SOL    HW121034   2.123   6.463   8.290  0.1887  1.6154  0.4882
 5238SOL    HW221035   2.202   6.418   8.411 -0.1414  1.4664  0.6513
 5239SOL     OW21036   8.739   7.019   8.755 -0.6824  0.3006  0.1757
 5239SOL    HW121037   8.746   7.109   8.723 -0.9236  0.0248 -0.6656
 5239SOL    HW221038   8.818   7.007   8.808  0.3481  0.3991 -1.2782
 5240SOL     OW21039   9.063  10.136  10.990 -0.4358  0.2428  0.6070
 5240SOL    HW121040   9.059  10.206  11.055 -0.4429 -0.5356  1.4632
 5240SOL    HW221041   9.148  10.095  11.003 -0.4153  0.1034  0.0788
 5241SOL     OW21042   1.819   9.843  10.001 -0.1249  0.1287  0.0708
 5241SOL    HW121043   1.799   9.756   9.965 -1.7671  0.7147 -0.4879
 5241SOL    HW221044   1.879   9.825  10.074 -0.8365 -1.5312  0.2920
 5242SOL     OW21045   1.399  11.798   3.714  0.0000 -0.8390 -0.3399
 5242SOL    HW121046   1.478  11.851   3.719  0.7462 -1.9724  0.1694
 5242SOL    HW221047   1.427  11.710   3.738 -1.6101 -1.0655  0.8843
 5243SOL     OW21048   0.418   1.812   8.880 -0.0097 -0.5969  0.2643
 5243SOL    HW121049   0.464   1.764   8.811 -1.3594  0.4264 -1.3982
 5243SOL    HW221050   0.486   1.828   8.946  1.4550 -1.1240 -1.0429
 5244SOL     OW21051   8.051   3.982   7.911  0.4071  0.0091 -0.0609
 5244SOL    HW121052   8.079   3.896   7.942 -0.9117  0.5095  2.8215
 5244SOL    HW221053   7.971   4.000   7.960 -0.7105  1.8751 -2.3749
 5245SOL     OW21054   5.877  11.107   1.435 -0.1105  0.1801 -0.1434
 5245SOL    HW121055   5.810  11.077   1.495 -0.8370 -1.6067 -1.7695
 5245SOL    HW221056   5.959  11.103   1.486 -0.9575  0.7548  1.3226
 5246SOL     OW21057   0.763   8.849   3.548 -0.3841  0.2649 -0.4644
 5246SOL    HW121058   0.740   8.941   3.556  0.8349  0.8108 -2.6436
 5246SOL    HW221059   0.833   8.836   3.613 -0.1529  1.0196 -0.5555
 5247SOL     OW21060   4.675   0.301   4.786  0.3064 -0.3547 -0.1721
 5247SOL    HW121061   4.748   0.363   4.789  1.3596 -1.5650  2.0427
 5247SOL    HW221062   4.628   0.316   4.869 -0.1611 -1.6432 -0.1850
 5248SOL     OW21063  10.395  10.214   0.097  0.4624 -0.0516 -0.0826
 5248SOL    HW121064  10.462  10.281   0.089  0.6739 -0.2058  0.3353
 5248SOL    HW221065  10.319  10.259   0.134 -0.2717  0.4997 -2.1623
 5249SOL     OW21066   2.829   7.583   0.064 -0.1353  0.2636 -0.2059
 5249SOL    HW121067   2.803   7.675   0.067  0.5385  0.4836 -0.9489
 5249SOL    HW221068   2.915   7.583   0.022  0.7116 -0.5269  1.4001
 5250SOL     OW21069   9.493   9.033  10.060  0.1647 -0.4298 -0.6108
 5250SOL    HW121070   9.478   8.966  10.127  2.0316 -1.0475 -0.7324
 5250SOL    HW221071   9.429   9.101  10.078 -2.4612 -2.6267 -1.0422
 5251SOL     OW21072   4.739   6.458   8.575 -0.6491  0.0349  0.0720
 5251SOL    HW121073   4.785   6.499   8.501 -1.2194  0.2180 -0.1877
 5251SOL    HW221074   4.704   6.531   8.625 -0.8375 -0.1091  0.1515
 5252SOL     OW21075  11.815  10.652   0.932 -0.0356  0.4859 -0.5353
 5252SOL    HW121076  11.758  10.666   0.856  2.3128  0.0513 -2.5092
 5252SOL    HW221077  11.895  10.699   0.911  1.4007 -1.2341  0.7952
 5253SOL     OW21078   0.129   7.820   9.016  0.3154 -0.1552  0.2177
 5253SOL    HW121079   0.222   7.818   9.040  0.4646 -2.5468 -0.2441
 5253SOL    HW221080   0.087   7.764   9.081 -0.4280 -0.8442 -0.8281
 5254SOL     OW21081   2.869   3.119   5.766  0.0359 -0.1176  0.4032
 5254SOL    HW121082   2.793   3.170   5.736  0.2542  0.0804  0.1828
 5254SOL    HW221083   2.832   3.035   5.792  0.0516 -1.1821 -2.5551
 5255SOL     OW21084   4.106   0.205   7.054  0.9084  0.1497  0.2506
 5255SOL    HW121085   4.145   0.129   7.098  0.8055 -0.2418 -0.3161
 5255SOL    HW221086   4.121   0.188   6.961 -2.7040 -1.2681 -0.2469
 5256SOL     OW21087   8.915   8.434   0.305  0.2261  0.1913  0.4160
 5256SOL    HW121088   8.862   8.414   0.382  0.7056 -0.2799  0.6350
 5256SOL    HW221089   9.004   8.409   0.330  0.3300 -0.3454 -0.4286
 5257SOL     OW21090   0.488   6.985   5.012  0.3924 -0.0693 -0.4939
 5257SOL    HW121091   0.501   7.079   5.023 -0.9032 -0.0117  0.7046
 5257SOL    HW221092   0.425   6.977   4.941 -0.2470  0.0057  0.0647
 5258SOL     OW21093  11.492   7.040   4.634  0.1489 -0.1044  0.1775
 5258SOL    HW121094  11.498   7.110   4.570  0.8193  2.3295  2.7144
 5258SOL    HW221095  11.554   6.973   4.602  0.1298  0.7846 -1.8766
 5259SOL     OW21096   4.780   2.569   2.471 -0.1816 -0.6845 -0.0109
 5259SOL    HW121097   4.750   2.658   2.491  0.9237 -0.1666 -0.5450
 5259SOL    HW221098   4.766   2.559   2.377  0.3186 -0.8176 -0.0768
 5260SOL     OW21099   5.606   5.534   4.148 -0.1891  0.3156  0.3460
 5260SOL    HW121100   5.532   5.480   4.177 -0.8834  1.9763  1.8298
 5260SOL    HW221101   5.683   5.479   4.164 -1.0022 -1.0773 -0.3312
 5261SOL     OW21102   7.069   9.580   6.591  0.3302  0.2610 -0.2614
 5261SOL    HW121103   7.034   9.592   6.502  2.9791  0.4110 -1.3803
 5261SOL    HW221104   7.136   9.648   6.600  0.3193  0.0700  1.7821
 5262SOL     OW21105   5.342   0.101   9.319 -0.2328 -0.2999  0.6539
 5262SOL    HW121106   5.263   0.046   9.321  0.2716 -1.0824 -0.1849
 5262SOL    HW221107   5.309   0.190   9.332 -1.6511 -0.2250 -2.5936
 5263SOL     OW21108   4.198   8.960  11.658  0.4489  0.4593  0.1973
 5263SOL    HW121109   4.127   8.948  11.721 -0.1382  0.5134 -0.4433
 5263SOL    HW221110   4.230   9.049  11.674 -0.2168  0.7596 -0.0936
 5264SOL     OW21111   3.512   2.296   5.952  0.3109  0.1437  0.3540
 5264SOL    HW121112   3.462   2.226   5.910 -1.1846  2.1747 -1.5473
 5264SOL    HW221113   3.476   2.301   6.041 -1.1746 -0.0759 -0.1961
 5265SOL     OW21114   5.429  11.482   6.811  0.6587 -0.4115  0.1624
 5265SOL    HW121115   5.386  11.455   6.892 -2.1737 -2.2762 -1.7501
 5265SOL    HW221116   5.503  11.423   6.802 -0.5009 -1.9554  0.2510
 5266SOL     OW21117   5.964  10.463   6.817 -0.2386  0.1240 -0.1345
 5266SOL    HW121118   6.041  10.506   6.779 -0.8982  2.0650  0.5748
 5266SOL    HW221119   5.896  10.471   6.750 -0.7034  1.3369  0.4505
 5267SOL     OW21120   9.477   0.371   1.126 -0.1834  0.5815  0.5017
 5267SOL    HW121121   9.536   0.298   1.148  0.1983  0.8859  0.5083
 5267SOL    HW221122   9.409   0.368   1.192 -1.5265 -1.2455 -0.8441
 5268SOL     OW21123   2.389   6.519   3.040 -0.2104  0.3605 -0.2383
 5268SOL    HW121124   2.382   6.481   2.952 -0.8120 -2.9592  1.1191
 5268SOL    HW221125   2.302   6.556   3.057 -0.7649 -0.8604 -0.3015
 5269SOL     OW21126   8.115  11.746   9.038 -0.2788  0.2106 -0.9027
 5269SOL    HW121127   8.073  11.824   9.002 -2.0155 -0.1536  0.2074
 5269SOL    HW221128   8.047  11.706   9.093  1.0169 -1.3419 -0.3716
 5270SOL     OW21129   3.258  11.545   3.479  0.2315 -0.1651 -0.3502
 5270SOL    HW121130   3.314  11.573   3.552 -1.6469  0.7961  0.7851
 5270SOL    HW221131   3.205  11.475   3.516 -0.3989 -0.0106 -0.9491
 5271SOL     OW21132  10.456   9.514   3.303 -0.0779 -0.2823 -0.0459
 5271SOL    HW121133  10.421   9.547   3.386  1.0796 -0.9782  0.7420
 5271SOL    HW221134  10.471   9.421   3.319 -1.8278 -0.9224 -1.7384
 5272SOL     OW21135   5.014   4.576   5.171 -0.4063 -0.1860  0.1438
 5272SOL    HW121136   5.026   4.601   5.263 -1.0062  0.8472 -0.0375
 5272SOL    HW221137   5.089   4.522   5.150  0.3590  0.5563  0.9074
 5273SOL     OW21138   6.760   0.343   6.437 -0.3914 -0.2421 -0.4265
 5273SOL    HW121139   6.674   0.302   6.444 -0.1709 -0.4221  2.0885
 5273SOL    HW221140   6.767   0.399   6.514  2.4256 -1.6091  0.4468
 5274SOL     OW21141  11.711  10.744   3.182  0.1542  0.1141  0.3234
 5274SOL    HW121142  11.714  10.648   3.183  0.1911  0.1058 -0.2970
 5274SOL    HW221143  11.768  10.771   3.253  0.1276 -0.3266  0.5134
 5275SOL     OW21144   8.863   4.914   5.432 -0.5331 -0.6017 -0.3083
 5275SOL    HW121145   8.840   4.957   5.350  0.0723  1.2202  0.4248
 5275SOL    HW221146   8.782   4.912   5.483 -0.0784  2.2204  0.7068
 5276SOL     OW21147  10.408   5.338   2.765  0.0529  0.0008  0.1034
 5276SOL    HW121148  10.438   5.377   2.683  1.6590 -0.1841  0.5776
 5276SOL    HW221149  10.488   5.313   2.811 -0.8021  0.3730  1.8709
 5277SOL     OW21150  10.435   9.254   4.282 -0.1887 -0.5178  0.1674
 5277SOL    HW121151  10.422   9.276   4.374  1.3759 -0.9741  0.5251
 5277SOL    HW221152  10.500   9.184   4.283  0.0591 -0.3413 -1.3054
 5278SOL     OW21153   7.520   9.058  10.784 -0.4284  0.3317  0.3480
 5278SOL    HW121154   7.562   8.978  10.752  0.3133  1.6506 -2.2495
 5278SOL    HW221155   7.431   9.054  10.751 -0.6238  0.2251  0.8838
 5279SOL     OW21156   4.542   6.983   8.941  0.6335  0.1880  0.3106
 5279SOL    HW121157   4.603   7.056   8.937 -0.6330  1.2776  0.2313
 5279SOL    HW221158   4.567   6.935   9.020  0.9632  1.1884  0.8265
 5280SOL     OW21159   5.840   8.477   6.995  0.2560 -0.2351  0.5166
 5280SOL    HW121160   5.904   8.518   6.936 -0.4604  0.1663 -0.0046
 5280SOL    HW221161   5.774   8.440   6.936 -0.1706 -0.3430  1.0531
 5281SOL     OW21162   7.614   7.036   6.292 -0.3910  0.0734  0.3565
 5281SOL    HW121163   7.593   7.047   6.199 -0.4662  0.3815  0.4073
 5281SOL    HW221164   7.610   7.125   6.328  0.8832  0.1333  0.3985
 5282SOL     OW21165   9.495   8.265   7.464  0.1110 -0.1082 -0.2770
 5282SOL    HW121166   9.500   8.208   7.541 -1.9302  3.0304  2.4375
 5282SOL    HW221167   9.405   8.255   7.432 -0.2218  1.3446  0.1296
 5283SOL     OW21168   2.280  10.483  11.730  0.0788  0.3448  0.3079
 5283SOL    HW121169   2.263  10.390  11.743  1.3059 -0.0235 -0.5431
 5283SOL    HW221170   2.373  10.487  11.708  1.0025  2.1299  3.8466
 5284SOL     OW21171   0.476   3.103  10.940  0.1807 -0.1050  0.2856
 5284SOL    HW121172   0.424   3.085  10.862 -0.2234  0.0706  0.5123
 5284SOL    HW221173   0.412   3.129  11.006  0.3738 -1.5206  1.0634
 5285SOL     OW21174   8.907   9.772   1.808 -0.2107 -0.1204  0.2261
 5285SOL    HW121175   8.984   9.812   1.848  0.3281  0.9086 -1.7146
 5285SOL    HW221176   8.931   9.681   1.793  0.6930  0.2243 -0.4785
 5286SOL     OW21177   2.010   8.687  10.450  0.4620 -0.2874 -0.2256
 5286SOL    HW121178   1.959   8.633  10.390 -0.4410  1.2026 -0.8534
 5286SOL    HW221179   1.976   8.663  10.537  1.5257 -2.1910 -0.2709
 5287SOL     OW21180   0.971   7.843   6.718  0.5127 -0.2692 -0.1654
 5287SOL    HW121181   0.882   7.835   6.683 -0.6407 -0.9663  2.6600
 5287SOL    HW221182   1.021   7.776   6.671 -1.2895 -2.1679  0.4395
 5288SOL     OW21183   1.442   1.000   8.950 -0.2744  0.1932 -0.0020
 5288SOL    HW121184   1.379   1.062   8.912 -0.3905 -0.7940 -1.5085
 5288SOL    HW221185   1.442   1.020   9.044 -1.9976  0.9575 -0.1287
 5289SOL     OW21186   6.657   5.655   4.767  0.5017  0.3958  1.4602
 5289SOL    HW121187   6.741   5.680   4.729  0.2864 -0.4017  0.3980
 5289SOL    HW221188   6.661   5.560   4.772 -0.9143  0.2073 -0.0968
 5290SOL     OW21189   5.489   0.670   9.726 -0.4977  0.2813 -0.5009
 5290SOL    HW121190   5.429   0.647   9.797 -1.6404  2.0931 -0.8201
 5290SOL    HW221191   5.563   0.609   9.737 -2.0154 -1.5238  0.3528
 5291SOL     OW21192   7.641   7.888   3.443  0.1323 -0.0863 -0.5301
 5291SOL    HW121193   7.601   7.809   3.406 -0.1257 -1.3502  2.2278
 5291SOL    HW221194   7.718   7.904   3.388  0.7794 -2.8874 -0.5909
 5292SOL     OW21195   4.522   8.666   0.529  0.2497 -0.2368  0.1045
 5292SOL    HW121196   4.496   8.591   0.474 -0.8508 -0.2327  0.5949
 5292SOL    HW221197   4.476   8.740   0.491  1.0170  0.1343 -0.1250
 5293SOL     OW21198   2.640   7.320   6.621  0.1950 -0.1772  0.0763
 5293SOL    HW121199   2.714   7.262   6.604  0.1007 -0.5451  0.8555
 5293SOL    HW221200   2.636   7.326   6.717 -0.2034  0.5928  0.0238
 5294SOL     OW21201   2.847   6.046   6.944  0.1774 -0.0478  0.3774
 5294SOL    HW121202   2.820   5.957   6.921 -0.0478 -0.3565  1.7397
 5294SOL    HW221203   2.891   6.079   6.866  0.8351 -1.5948  0.0650
 5295SOL     OW21204  11.098   4.284   2.581  0.2508 -0.4458 -0.6945
 5295SOL    HW121205  11.032   4.298   2.513 -0.2608 -1.1309 -0.3651
 5295SOL    HW221206  11.139   4.369   2.594 -2.1323  0.6036  0.6824
 5296SOL     OW21207   1.508   5.535  11.033 -0.0254 -0.1052  0.1558
 5296SOL    HW121208   1.467   5.482  10.964  0.4495 -1.0479  0.5878
 5296SOL    HW221209   1.446   5.534  11.105 -0.0219 -0.0566  0.1592
 5297SOL     OW21210   3.351   6.881   6.853 -0.2062  0.4018  0.1315
 5297SOL    HW121211   3.411   6.857   6.924 -2.5281 -0.3902  1.9632
 5297SOL    HW221212   3.374   6.971   6.832  3.5090 -0.7385 -1.3470
 5298SOL     OW21213   4.110  11.159   9.264  0.3081 -0.5209  0.2544
 5298SOL    HW121214   4.182  11.099   9.284  0.4925 -0.0641  1.0272
 5298SOL    HW221215   4.151  11.246   9.261 -0.2937 -0.1792  1.3289
 5299SOL     OW21216   9.260  10.624   8.459  0.3994 -0.3877 -0.6937
 5299SOL    HW121217   9.246  10.662   8.546 -0.9479  1.2056 -1.5391
 5299SOL    HW221218   9.213  10.683   8.399  2.3103 -0.7225 -2.6629
 5300SOL     OW21219   0.695   9.354   4.773 -0.3734 -0.1268  0.3076
 5300SOL    HW121220   0.600   9.346   4.774 -0.2847 -1.4260  0.5710
 5300SOL    HW221221   0.712   9.448   4.770 -1.6623  0.1138  0.2506
 5301SOL     OW21222   1.641   2.813   1.596  0.1807 -0.3047  0.4132
 5301SOL    HW121223   1.684   2.801   1.680 -0.3992  0.9425  0.9057
 5301SOL    HW221224   1.558   2.766   1.605  1.1633 -2.3658 -0.3988
 5302SOL     OW21225  11.026   4.137   4.505 -0.2286  0.1629 -0.4675
 5302SOL    HW121226  10.935   4.167   4.515 -0.7429 -1.2201 -0.7121
 5302SOL    HW221227  11.058   4.127   4.594 -0.4565  0.2639 -0.3733
 5303SOL     OW21228   4.142  10.730   8.420  0.4211  0.0951  0.2055
 5303SOL    HW121229   4.211  10.702   8.360  0.8379  0.7732  0.3643
 5303SOL    HW221230   4.118  10.818   8.390 -0.2332 -0.0502  0.2807
 5304SOL     OW21231   4.425   9.895  10.607  0.2731 -0.5359 -0.8516
 5304SOL    HW121232   4.382   9.812  10.626 -2.0473  0.7495 -0.0222
 5304SOL    HW221233   4.354   9.959  10.603  2.1458  2.0734  2.2011
 5305SOL     OW21234   5.218   3.458   0.947  0.4767  0.3993  0.3483
 5305SOL    HW121235   5.168   3.455   0.865  0.9162  0.0656  0.0873
 5305SOL    HW221236   5.269   3.539   0.942  1.8120 -0.4485 -0.5051
 5306SOL     OW21237   6.439   4.724   2.377  0.0358  0.5501 -0.4950
 5306SOL    HW121238   6.436   4.754   2.468 -0.6625 -2.1548  0.4635
 5306SOL    HW221239   6.518   4.670   2.373 -0.2464  0.1983 -1.3337
 5307SOL     OW21240   6.685  11.596   1.142 -0.2520  0.6122  0.1157
 5307SOL    HW121241   6.611  11.578   1.200 -0.5276 -0.4928 -0.5512
 5307SOL    HW221242   6.746  11.523   1.158 -2.3673 -2.6091 -4.2703
 5308SOL     OW21243   3.934   8.281   8.060  0.2369  0.2689  0.4705
 5308SOL    HW121244   3.845   8.281   8.093  0.1471 -0.5048  0.2367
 5308SOL    HW221245   3.938   8.357   8.002 -0.9077 -0.8978 -1.2084
 5309SOL     OW21246   5.110   4.639   8.297  0.2631  0.0629  0.1825
 5309SOL    HW121247   5.028   4.660   8.253  0.0121  0.6364  0.8943
 5309SOL    HW221248   5.163   4.718   8.286 -0.5199  0.9989  2.5090
 5310SOL     OW21249   5.165   8.679   3.731  0.0027  0.3244  0.7840
 5310SOL    HW121250   5.109   8.642   3.663  0.4247  2.1882 -0.6509
 5310SOL    HW221251   5.107   8.689   3.807 -1.5171  1.7605 -0.5155
 5311SOL     OW21252  11.029   0.079   6.446  0.4777  0.4874 -0.2389
 5311SOL    HW121253  11.077   0.115   6.371 -0.2714 -1.5730 -1.8270
 5311SOL    HW221254  11.083   0.006   6.476 -0.1020  0.1662  0.0347
 5312SOL     OW21255   5.612   4.722  11.800 -0.1103 -0.3905 -0.0879
 5312SOL    HW121256   5.644   4.811  11.811  1.4002 -0.6302 -1.9935
 5312SOL    HW221257   5.541   4.729  11.737 -0.6537 -0.4475  0.5013
 5313SOL     OW21258   2.059   4.596   4.536 -0.1176  0.6905  0.3307
 5313SOL    HW121259   2.119   4.616   4.464 -1.9252 -0.3326 -1.5800
 5313SOL    HW221260   2.074   4.504   4.555 -0.1302  0.7833  0.7991
 5314SOL     OW21261   3.179   4.497   5.200  0.0672  0.0109  0.1813
 5314SOL    HW121262   3.244   4.431   5.224 -0.7021 -0.4363  1.1451
 5314SOL    HW221263   3.218   4.545   5.127  0.1513 -2.3258 -1.4048
 5315SOL     OW21264  11.809   0.493   7.465 -0.1858  0.3630  0.4074
 5315SOL    HW121265  11.869   0.514   7.393  1.1887  0.8291  1.6259
 5315SOL    HW221266  11.824   0.400   7.482  0.9805  0.6918  1.3472
 5316SOL     OW21267   0.650   0.353   1.763 -0.2437 -0.1144 -0.0903
 5316SOL    HW121268   0.655   0.259   1.745 -1.9455 -0.4515  0.9092
 5316SOL    HW221269   0.620   0.392   1.681  0.7832 -0.3940 -0.6038
 5317SOL     OW21270   8.123   9.426   4.605  0.1025  0.0626 -0.1876
 5317SOL    HW121271   8.069   9.366   4.657 -1.8193  0.9163 -1.0862
 5317SOL    HW221272   8.160   9.371   4.536  0.3438 -0.5370  0.4074
 5318SOL     OW21273   9.319   4.219  11.539  0.1921 -0.5621 -0.1791
 5318SOL    HW121274   9.311   4.309  11.572  0.8173  0.6266 -3.0124
 5318SOL    HW221275   9.237   4.177  11.565 -0.4424  1.0465  0.5627
 5319SOL     OW21276   9.903   8.418   0.681  0.0107  0.3385 -0.3364
 5319SOL    HW121277   9.940   8.332   0.703  0.8220  0.5338 -0.8524
 5319SOL    HW221278   9.843   8.400   0.609  1.6298  0.4104 -1.7831
 5320SOL     OW21279   2.642   2.258   7.213  0.2134 -0.1289 -0.3839
 5320SOL    HW121280   2.566   2.205   7.188  0.3973 -2.2719  3.0222
 5320SOL    HW221281   2.642   2.330   7.150 -2.7890 -1.6865 -2.4250
 5321SOL     OW21282   4.781   1.266   0.404 -0.2422 -0.1644  0.1520
 5321SOL    HW121283   4.753   1.225   0.323 -2.3476 -0.4465  0.9588
 5321SOL    HW221284   4.739   1.352   0.404  0.7109  0.3113  0.4028
 5322SOL     OW21285   1.344   3.873   2.300 -0.3166  0.5575 -0.0218
 5322SOL    HW121286   1.271   3.812   2.292  0.3890 -0.4918  1.2089
 5322SOL    HW221287   1.348   3.896   2.392  0.0159  1.7614 -0.3101
 5323SOL     OW21288   0.823   4.896  11.666 -0.0731 -0.0034 -0.8064
 5323SOL    HW121289   0.858   4.985  11.660 -0.7709  0.2206 -1.9364
 5323SOL    HW221290   0.729   4.907  11.655 -1.0567 -0.2967  4.6677
 5324SOL     OW21291   3.109  11.152   0.781  0.1938 -0.1800 -0.4342
 5324SOL    HW121292   3.142  11.064   0.802 -1.8598 -0.9462 -0.2314
 5324SOL    HW221293   3.110  11.156   0.686  2.3936  0.4748 -0.4500
 5325SOL     OW21294   6.707   7.329   5.928 -0.0857  0.4429  0.0711
 5325SOL    HW121295   6.634   7.268   5.935 -0.2839  0.7886  1.0961
 5325SOL    HW221296   6.771   7.299   5.993  0.7212  0.1080 -0.8520
 5326SOL     OW21297   8.060   0.141   6.815 -0.1615 -0.1217 -0.2774
 5326SOL    HW121298   8.005   0.162   6.890 -1.2807  1.2792 -1.4312
 5326SOL    HW221299   8.075   0.047   6.821 -0.3385 -0.0695  1.5933
 5327SOL     OW21300   1.756   1.926   4.354  0.0224 -0.7827  0.4490
 5327SOL    HW121301   1.726   1.848   4.306  1.8600 -0.4140 -1.4141
 5327SOL    HW221302   1.679   1.954   4.403 -1.2656 -2.6065 -0.3963
 5328SOL     OW21303   7.573   7.233   1.783 -0.4537 -0.1928  0.3587
 5328SOL    HW121304   7.491   7.279   1.767 -0.0061  0.5248  0.0637
 5328SOL    HW221305   7.569   7.208   1.875 -0.6340  0.5957  0.5726
 5329SOL     OW21306   2.857   0.806   1.343 -0.1594 -0.8077 -0.1913
 5329SOL    HW121307   2.850   0.783   1.251  1.2489 -0.2741 -0.4641
 5329SOL    HW221308   2.951   0.817   1.358 -0.4329  0.1457  1.0391
 5330SOL     OW21309   9.878   7.092   4.616  0.5839  0.4272 -0.4604
 5330SOL    HW121310   9.879   7.175   4.567 -0.0829  0.1182 -1.0124
 5330SOL    HW221311   9.795   7.051   4.592  1.5322 -1.0841 -1.3574
 5331SOL     OW21312   3.757   1.343   0.381 -0.3400 -0.2870 -0.2861
 5331SOL    HW121313   3.737   1.394   0.459  1.7315 -1.8807  1.4083
 5331SOL    HW221314   3.796   1.262   0.414 -0.6142 -1.6245 -2.9481
 5332SOL     OW21315   8.376   3.924   2.670  0.1207 -0.2466  0.4510
 5332SOL    HW121316   8.402   3.974   2.592  0.2164 -0.2287  0.4941
 5332SOL    HW221317   8.445   3.942   2.734  1.1932 -1.9726 -0.1714
 5333SOL     OW21318   3.278  11.087   9.383  0.2685  0.4290 -0.0670
 5333SOL    HW121319   3.240  11.137   9.311  0.8294  0.1046 -0.5970
 5333SOL    HW221320   3.225  11.111   9.459 -3.0645 -2.2297 -1.2652
 5334SOL     OW21321   4.782   8.689   0.330 -0.2972 -0.3602  0.3022
 5334SOL    HW121322   4.694   8.727   0.339 -0.2970 -0.3789  0.3890
 5334SOL    HW221323   4.841   8.755   0.367 -0.2490 -0.2307 -0.0059
 5335SOL     OW21324   8.853  10.071  10.797  0.5920  0.1321 -0.6725
 5335SOL    HW121325   8.909  10.083  10.874  0.5919  1.9374 -0.8951
 5335SOL    HW221326   8.819   9.982  10.805  0.4317  0.3306  1.5282
 5336SOL     OW21327   4.645   0.979  10.047 -0.0239  0.2428  0.0324
 5336SOL    HW121328   4.628   0.962  10.139  0.8815 -4.2282 -0.4327
 5336SOL    HW221329   4.740   0.968  10.037 -0.1503  0.2988 -1.4760
 5337SOL     OW21330   8.503  11.498   4.874 -0.4235  0.0612 -0.0886
 5337SOL    HW121331   8.444  11.495   4.799 -0.1477 -0.9116 -0.2697
 5337SOL    HW221332   8.462  11.441   4.939 -0.0286 -0.0786  0.0390
 5338SOL     OW21333  10.831  10.239   4.631  0.0392 -0.6539 -0.2219
 5338SOL    HW121334  10.736  10.238   4.646 -0.0954  2.4875 -0.1044
 5338SOL    HW221335  10.859  10.324   4.665  3.0296 -1.7411  0.2768
 5339SOL     OW21336  10.471   5.354  11.156  0.1041 -0.3788  0.9465
 5339SOL    HW121337  10.391   5.405  11.140  1.4218  1.8326  1.0791
 5339SOL    HW221338  10.472   5.340  11.251  0.2291  0.2279  1.0380
 5340SOL     OW21339   8.191  11.750   5.125 -0.3585  0.7076  0.4105
 5340SOL    HW121340   8.222  11.660   5.139 -2.4254  0.0874  1.3213
 5340SOL    HW221341   8.190  11.789   5.212 -1.0258  1.0753  0.2454
 5341SOL     OW21342   8.733   6.684  10.492 -0.0517 -0.6126 -0.2133
 5341SOL    HW121343   8.657   6.630  10.470 -1.4919  0.6455  1.3714
 5341SOL    HW221344   8.771   6.708  10.407 -0.7330 -2.1621 -1.0086
 5342SOL     OW21345   2.226   3.453   6.225 -0.7416 -0.4157 -0.2291
 5342SOL    HW121346   2.212   3.409   6.309 -0.5456  0.0088  0.0327
 5342SOL    HW221347   2.158   3.418   6.167  0.5891 -2.5143 -0.6109
 5343SOL     OW21348   3.189   7.301   3.106 -0.2739  0.2119 -0.5447
 5343SOL    HW121349   3.178   7.334   3.195 -2.7412  2.6734 -1.6179
 5343SOL    HW221350   3.110   7.250   3.089  0.4873 -0.8096 -1.1533
 5344SOL     OW21351   3.137   2.744   6.459  0.1001 -0.0105  0.9124
 5344SOL    HW121352   3.108   2.726   6.548 -0.0327  0.8711  1.0519
 5344SOL    HW221353   3.057   2.766   6.411  0.2115 -0.1650  0.6547
 5345SOL     OW21354  10.962  10.721   3.930 -0.3278 -0.3809  0.6054
 5345SOL    HW121355  10.940  10.803   3.974  0.2151  0.7515 -1.1381
 5345SOL    HW221356  11.025  10.678   3.989  1.1734  1.5553  0.5160
 5346SOL     OW21357   3.633   7.412   5.122 -0.2471 -0.0113  0.0272
 5346SOL    HW121358   3.599   7.326   5.146  0.5641 -0.6159 -0.9516
 5346SOL    HW221359   3.625   7.464   5.203 -0.5213 -1.0631  0.6894
 5347SOL     OW21360   8.711   4.924   0.473 -0.4249  0.2799  0.2699
 5347SOL    HW121361   8.771   4.964   0.410 -0.2391 -0.8622 -0.2917
 5347SOL    HW221362   8.743   4.835   0.484 -1.0577  0.1594  1.2152
 5348SOL     OW21363   2.193   3.208   7.818  0.5078  0.8941  0.2171
 5348SOL    HW121364   2.190   3.295   7.859 -2.7638  0.9528  0.1175
 5348SOL    HW221365   2.241   3.154   7.880  1.8310  2.5472  0.7099
 5349SOL     OW21366   5.657   8.650   6.161 -0.2293 -0.5421  0.7028
 5349SOL    HW121367   5.725   8.681   6.100 -1.6198 -1.3967 -1.4077
 5349SOL    HW221368   5.598   8.725   6.170 -0.9014 -0.9062 -0.3921
 5350SOL     OW21369   3.928   4.453  11.551  0.5240 -0.0089 -0.5803
 5350SOL    HW121370   3.840   4.437  11.517 -0.0451  0.6916  0.5026
 5350SOL    HW221371   3.916   4.520  11.619  1.7376 -0.6579  0.3170
 5351SOL     OW21372   2.545   7.885  10.080 -0.2422 -0.4598 -0.0595
 5351SOL    HW121373   2.522   7.944  10.152 -1.6458 -0.3891 -0.5323
 5351SOL    HW221374   2.490   7.808  10.093 -1.0998 -0.1135 -1.4791
 5352SOL     OW21375  10.028   1.764   4.558 -0.1232  0.1915  0.2655
 5352SOL    HW121376   9.952   1.805   4.601  0.6203  0.4191  1.4144
 5352SOL    HW221377  10.023   1.794   4.468 -1.5391  0.0047  0.2459
 5353SOL     OW21378   1.412   7.418   1.602  0.0817 -0.4414 -0.1275
 5353SOL    HW121379   1.464   7.498   1.609  1.5129 -1.0297 -2.6073
 5353SOL    HW221380   1.473   7.354   1.563 -0.9718 -2.7970  1.8760
 5354SOL     OW21381  10.574   3.833   7.187 -0.5733  0.0937  0.0698
 5354SOL    HW121382  10.615   3.881   7.115  0.1275 -1.5661 -0.7077
 5354SOL    HW221383  10.644   3.818   7.250  0.1484 -2.7164 -1.2445
 5355SOL     OW21384   4.461   4.136   5.195 -0.1006 -0.1239  0.1058
 5355SOL    HW121385   4.478   4.046   5.168  0.1291 -0.0191 -0.1053
 5355SOL    HW221386   4.445   4.183   5.114 -1.2270 -0.1784  0.2901
 5356SOL     OW21387   3.770  11.539  10.195 -0.1048  0.0696 -0.1279
 5356SOL    HW121388   3.757  11.459  10.246 -1.5530  1.6160  2.1485
 5356SOL    HW221389   3.808  11.601  10.257  1.6230  1.0057 -2.0075
 5357SOL     OW21390  10.984   5.395   1.493  0.2166 -0.3186  0.3224
 5357SOL    HW121391  10.950   5.476   1.532 -1.1131  0.9071 -3.0114
 5357SOL    HW221392  10.959   5.326   1.555 -1.1760  1.5077  1.9102
 5358SOL     OW21393   6.603   2.185   2.921  0.0793  0.5972 -0.2630
 5358SOL    HW121394   6.522   2.235   2.930 -0.6370 -0.6976  0.8711
 5358SOL    HW221395   6.669   2.250   2.900 -0.8967  1.9669  0.7200
 5359SOL     OW21396   7.245   5.740   8.224 -0.0867 -0.6102  0.2078
 5359SOL    HW121397   7.322   5.689   8.198  0.6162 -0.2693  1.5152
 5359SOL    HW221398   7.233   5.803   8.153  1.5038  0.0252  0.4590
 5360SOL     OW21399   1.548   4.988   6.211  0.6890 -0.4710 -0.1864
 5360SOL    HW121400   1.573   4.945   6.293  2.9355 -1.7138 -1.4201
 5360SOL    HW221401   1.487   4.928   6.169  0.8395 -0.6404 -0.1653
 5361SOL     OW21402   3.981   7.929   2.395  0.0833 -0.2336  0.1362
 5361SOL    HW121403   3.969   8.021   2.417  1.2498  0.1643 -0.7631
 5361SOL    HW221404   3.938   7.881   2.466  0.2729  0.9942  1.1108
 5362SOL     OW21405  11.232   6.070   0.024 -0.2583 -0.4005  0.0957
 5362SOL    HW121406  11.187   6.045  -0.057 -0.9026  0.8200  0.0693
 5362SOL    HW221407  11.187   6.148   0.054  1.0581  0.1341  0.7442
 5363SOL     OW21408   4.457   1.142   7.925  0.1542  0.0013  0.2363
 5363SOL    HW121409   4.522   1.209   7.945 -0.9124  0.9789  0.4929
 5363SOL    HW221410   4.379   1.191   7.897 -1.0426 -1.0664  1.5701
 5364SOL     OW21411   3.385  11.206   0.742 -0.7622  0.2629 -0.3156
 5364SOL    HW121412   3.379  11.151   0.664  0.2334 -1.7583  0.9462
 5364SOL    HW221413   3.296  11.238   0.756 -1.4549 -1.2940 -0.9435
 5365SOL     OW21414   4.062   8.510   9.122 -0.3759 -0.5482 -0.8367
 5365SOL    HW121415   4.105   8.543   9.201  1.3457  0.0508 -1.9782
 5365SOL    HW221416   3.994   8.452   9.155 -0.3288  0.4236  1.1084
 5366SOL     OW21417   2.919   7.465   7.929  0.5188  0.3008 -0.3677
 5366SOL    HW121418   2.856   7.455   8.000  0.2228 -0.7603 -0.7546
 5366SOL    HW221419   2.995   7.415   7.957  2.3181  3.6468  1.2750
 5367SOL     OW21420  10.475  11.773   8.962 -0.6110  0.0476 -0.4741
 5367SOL    HW121421  10.502  11.861   8.934  1.0062 -0.5455 -0.8805
 5367SOL    HW221422  10.472  11.722   8.881 -0.6810 -0.4982 -0.1315
 5368SOL     OW21423  10.114   2.987  11.200  0.3870  0.4211 -0.6450
 5368SOL    HW121424  10.119   3.001  11.294  2.3131  0.2510 -0.6836
 5368SOL    HW221425  10.205   2.980  11.171 -0.1542  0.3166 -2.5025
 5369SOL     OW21426   5.905   7.297   9.354  0.1970  0.3414 -0.3193
 5369SOL    HW121427   5.898   7.206   9.383  0.4711  0.4527  0.1121
 5369SOL    HW221428   5.921   7.347   9.434  0.4693  0.7185 -0.6017
 5370SOL     OW21429   7.858  10.983   5.359  0.4534 -0.2529  0.3471
 5370SOL    HW121430   7.880  11.075   5.343  1.5900 -0.6366 -0.4348
 5370SOL    HW221431   7.859  10.974   5.455  0.1817  0.5744  0.4328
 5371SOL     OW21432   7.829   0.228   8.366  0.1077  0.0859 -0.1554
 5371SOL    HW121433   7.757   0.169   8.341 -0.6655  0.8058  0.3042
 5371SOL    HW221434   7.908   0.175   8.355 -0.4771 -0.6902 -0.8004
 5372SOL     OW21435  11.255   6.673   8.278 -0.5776  0.0634  0.1684
 5372SOL    HW121436  11.244   6.682   8.372  1.2447 -1.6640  0.6077
 5372SOL    HW221437  11.267   6.762   8.246 -0.7173  0.6224  1.6321
 5373SOL     OW21438   0.369   8.321   7.525  0.9467  0.4538  0.5129
 5373SOL    HW121439   0.316   8.400   7.520  0.4285  0.1199  0.6705
 5373SOL    HW221440   0.358   8.280   7.439  1.1510  0.5095  0.4595
 5374SOL     OW21441   0.050   6.163   2.688 -0.3438 -0.0134 -0.0779
 5374SOL    HW121442  -0.042   6.142   2.672 -0.2317  0.7642 -2.0569
 5374SOL    HW221443   0.095   6.132   2.609  0.9258  0.5897  0.3861
 5375SOL     OW21444  10.112   8.907   2.004 -0.2634 -0.5436 -0.5105
 5375SOL    HW121445  10.172   8.948   2.066 -2.1150  0.5110  0.7133
 5375SOL    HW221446  10.070   8.837   2.054 -0.8740 -0.5021 -0.9463
 5376SOL     OW21447  10.463   0.213  10.168  0.4921 -0.3600  0.0012
 5376SOL    HW121448  10.453   0.306  10.188 -1.0650 -0.2513 -1.0613
 5376SOL    HW221449  10.434   0.206  10.077  2.6970 -1.5476 -0.6540
 5377SOL     OW21450  10.132   6.593   5.829 -0.2940 -0.3798  0.0401
 5377SOL    HW121451  10.183   6.616   5.751 -0.8706 -0.8627 -0.5006
 5377SOL    HW221452  10.188   6.616   5.903  0.5504 -0.5573 -0.5319
 5378SOL     OW21453   2.926   1.532   2.302  0.2012  0.5263  0.6370
 5378SOL    HW121454   2.938   1.609   2.357  3.5460  0.0837  0.6929
 5378SOL    HW221455   2.931   1.458   2.362 -1.1717  0.1572  0.3390
 5379SOL     OW21456   9.624   8.921   5.275 -0.1574 -0.1707 -0.0288
 5379SOL    HW121457   9.588   9.009   5.268 -0.3019 -0.2856 -0.7730
 5379SOL    HW221458   9.562   8.875   5.333 -0.4436  0.0265 -0.1766
 5380SOL     OW21459   7.602   1.797  10.624  0.5539 -0.7663  0.7189
 5380SOL    HW121460   7.620   1.872  10.680 -1.2177  1.8538 -1.8722
 5380SOL    HW221461   7.527   1.753  10.666  0.1943  0.2467  1.1678
 5381SOL     OW21462  11.001   1.796   2.296 -0.1948 -0.0871  0.4183
 5381SOL    HW121463  11.054   1.763   2.223  0.4701  2.0728 -0.1507
 5381SOL    HW221464  11.062   1.851   2.346 -0.5788 -1.6722  2.7642
 5382SOL     OW21465   5.877   7.889   9.076  0.0441  0.1701  0.4834
 5382SOL    HW121466   5.937   7.822   9.041  0.8749 -0.6751  3.2303
 5382SOL    HW221467   5.865   7.950   9.004  1.8403 -1.2366 -1.1393
 5383SOL     OW21468   9.809   7.999   6.223  0.2637 -0.4065 -0.5931
 5383SOL    HW121469   9.798   7.942   6.147  0.2390  0.2204 -1.0607
 5383SOL    HW221470   9.846   8.080   6.188  0.6579 -0.2701  0.1207
 5384SOL     OW21471   6.359   9.681   3.593  0.5007  0.4412  0.9934
 5384SOL    HW121472   6.287   9.726   3.637 -0.6715 -0.2883 -0.1103
 5384SOL    HW221473   6.341   9.692   3.500  1.4760 -0.2855  0.7025
 5385SOL     OW21474   8.090   9.571  10.041 -0.6706  0.3546 -0.2049
 5385SOL    HW121475   8.019   9.506  10.043  1.2382 -1.8499  1.4516
 5385SOL    HW221476   8.128   9.568  10.128  1.5268  1.3434 -1.0546
 5386SOL     OW21477   3.328  11.577   2.944 -0.2717 -0.3684 -0.3028
 5386SOL    HW121478   3.392  11.646   2.929  1.3885 -1.9086 -0.7290
 5386SOL    HW221479   3.269  11.611   3.011  0.7672  1.2596 -0.1844
 5387SOL     OW21480   6.479   4.561   9.841  0.1632 -0.1614 -0.2954
 5387SOL    HW121481   6.464   4.621   9.767 -1.1705  0.3835  0.3900
 5387SOL    HW221482   6.508   4.617   9.912  1.7137 -0.7224 -0.4309
 5388SOL     OW21483   3.572   3.136   5.834  0.3974  0.2245  0.2767
 5388SOL    HW121484   3.650   3.190   5.821  0.9742 -0.7892 -0.6374
 5388SOL    HW221485   3.574   3.113   5.927  1.9963 -0.9587 -0.0137
 5389SOL     OW21486   7.734   9.713   3.756  0.4290 -0.4751 -0.4850
 5389SOL    HW121487   7.771   9.780   3.698 -1.1514  1.3376  0.4883
 5389SOL    HW221488   7.807   9.654   3.774  2.1759  1.5419 -0.5903
 5390SOL     OW21489  11.750   8.618   8.052  0.4025  0.4197  0.4385
 5390SOL    HW121490  11.826   8.654   8.098  0.0474  0.1710  1.2204
 5390SOL    HW221491  11.745   8.669   7.971  1.4337  0.4056  0.3509
 5391SOL     OW21492   3.760   5.131   6.347 -0.4450  0.0372 -0.5238
 5391SOL    HW121493   3.771   5.214   6.300  1.8614 -1.3168 -2.6242
 5391SOL    HW221494   3.847   5.109   6.379 -0.8255 -1.9545 -0.7302
 5392SOL     OW21495   9.284   3.043   0.907 -0.5599 -0.3217 -0.3029
 5392SOL    HW121496   9.275   3.016   0.815 -0.4390 -1.2058 -0.0647
 5392SOL    HW221497   9.222   2.987   0.954 -2.6037  1.9165 -0.1322
 5393SOL     OW21498   2.823   3.764   4.425 -0.4431  0.2592 -0.2652
 5393SOL    HW121499   2.779   3.760   4.510 -1.6168  0.8566 -0.8285
 5393SOL    HW221500   2.832   3.858   4.407  0.6731  0.1442 -0.3717
 5394SOL     OW21501   2.566   6.259   8.206 -0.2696 -0.6024 -0.2488
 5394SOL    HW121502   2.633   6.204   8.166 -0.7286 -1.2958 -0.0633
 5394SOL    HW221503   2.614   6.338   8.233  0.4622 -1.0681 -0.1596
 5395SOL     OW21504   8.464   4.500   4.800 -1.0732  0.3599 -0.0012
 5395SOL    HW121505   8.438   4.493   4.708  1.3054 -0.4602 -0.6898
 5395SOL    HW221506   8.529   4.570   4.801 -0.6632 -0.0213  0.9354
 5396SOL     OW21507   3.902  10.872   4.544  0.4523 -0.2835  0.2807
 5396SOL    HW121508   3.880  10.927   4.469 -1.5727  0.5515  1.4113
 5396SOL    HW221509   3.904  10.783   4.509 -1.0514  0.0348 -0.6662
 5397SOL     OW21510   4.558   0.658   2.600  0.4679 -0.0706  0.2212
 5397SOL    HW121511   4.516   0.686   2.681 -0.4565  0.0110 -0.2686
 5397SOL    HW221512   4.493   0.675   2.532 -0.0946 -3.1191 -0.1650
 5398SOL     OW21513   4.624  10.528   6.621 -0.1794 -0.2455  0.2152
 5398SOL    HW121514   4.686  10.550   6.551 -1.8955  0.6700 -1.0958
 5398SOL    HW221515   4.599  10.612   6.658 -0.3657 -0.6253  0.9682
 5399SOL     OW21516   7.868   7.215   5.144  0.2733  0.0087 -0.1535
 5399SOL    HW121517   7.817   7.180   5.218 -0.9212  0.9590 -0.4964
 5399SOL    HW221518   7.803   7.258   5.089  1.0983 -0.9071 -1.9181
 5400SOL     OW21519   4.722   1.748   7.751 -0.0316 -0.1514 -0.5463
 5400SOL    HW121520   4.713   1.705   7.836 -1.4969 -0.4298 -0.8134
 5400SOL    HW221521   4.781   1.822   7.767  0.3790 -0.6939  0.5110
 5401SOL     OW21522   1.517  10.389   8.573  0.5917 -0.1275 -0.3500
 5401SOL    HW121523   1.554  10.477   8.565 -3.2103  1.6975  0.0979
 5401SOL    HW221524   1.528  10.350   8.486  0.2108  1.7566 -1.2842
 5402SOL     OW21525  10.244   0.470   1.924  0.2818  0.0721 -0.3049
 5402SOL    HW121526  10.311   0.504   1.865  0.3690  0.7987  0.2035
 5402SOL    HW221527  10.293   0.415   1.986  0.3973  0.5033 -0.0093
 5403SOL     OW21528   0.452   8.017  11.234  0.1245  0.4170 -0.2251
 5403SOL    HW121529   0.494   7.984  11.155  0.0310 -0.9102  0.2547
 5403SOL    HW221530   0.369   7.969  11.239 -1.0956  2.3854 -0.7122
 5404SOL     OW21531   7.672   7.001   1.068  0.3158 -0.2079  0.7987
 5404SOL    HW121532   7.664   7.010   0.973  1.4854  0.6956  0.7643
 5404SOL    HW221533   7.582   6.991   1.099 -0.0290 -1.3873 -0.4747
 5405SOL     OW21534   8.118   4.951   8.058 -0.0497  0.4035 -0.3742
 5405SOL    HW121535   8.075   4.886   8.113 -0.7188  0.2788 -1.0291
 5405SOL    HW221536   8.162   4.899   7.990 -4.3477  0.5989 -3.7224
 5406SOL     OW21537   5.428   6.260  10.525  0.5061  0.4248 -0.4368
 5406SOL    HW121538   5.454   6.262  10.433 -0.3796  1.0891 -0.6855
 5406SOL    HW221539   5.332   6.258  10.523  0.4996 -1.1499  0.4669
 5407SOL     OW21540   3.154   3.786   0.075  0.0298  0.0953 -0.1488
 5407SOL    HW121541   3.061   3.762   0.071 -0.3096  0.9331  1.6591
 5407SOL    HW221542   3.200   3.709   0.043 -1.2883 -0.2852 -1.2321
 5408SOL     OW21543   9.996  11.597   6.448  0.3859  0.1523 -0.4361
 5408SOL    HW121544   9.993  11.662   6.518  0.9056 -1.1136  0.8038
 5408SOL    HW221545  10.047  11.639   6.378  2.6239  0.3024  1.1858
 5409SOL     OW21546   2.644   2.565   5.202  0.5178  0.5841 -0.9807
 5409SOL    HW121547   2.562   2.554   5.250  0.2595  0.9605 -1.3371
 5409SOL    HW221548   2.710   2.526   5.259  0.2163  1.0449 -0.3098
 5410SOL     OW21549   6.250   1.014   9.993 -0.0696  0.3149 -0.3424
 5410SOL    HW121550   6.194   0.961  10.049 -1.3252 -0.0019 -1.8119
 5410SOL    HW221551   6.233   0.981   9.904  1.3941  1.1775 -0.9848
 5411SOL     OW21552   0.228   8.302   0.519  0.1011 -0.0005 -0.3415
 5411SOL    HW121553   0.137   8.294   0.549  0.4720 -0.9259  0.5843
 5411SOL    HW221554   0.248   8.217   0.481  1.0343 -0.3046  0.7777
 5412SOL     OW21555   9.110   0.318   1.451 -0.2519  0.4207  0.1690
 5412SOL    HW121556   9.031   0.364   1.478  0.1471  2.1474 -1.4600
 5412SOL    HW221557   9.079   0.231   1.426 -1.5072  0.7951  0.3414
 5413SOL     OW21558   2.376   5.172   4.676  0.1562  0.8956 -0.3060
 5413SOL    HW121559   2.470   5.161   4.659  0.5307  0.5858  1.7498
 5413SOL    HW221560   2.369   5.260   4.714 -0.1055  0.2787  1.1355
 5414SOL     OW21561   1.871   7.779   5.301 -0.1638  0.0206 -0.5659
 5414SOL    HW121562   1.944   7.734   5.342 -0.4181 -0.3517 -0.5194
 5414SOL    HW221563   1.865   7.863   5.348 -0.5298 -0.4496  0.2371
 5415SOL     OW21564   0.541   7.366   3.869 -0.0204  0.0235  0.8361
 5415SOL    HW121565   0.594   7.299   3.913  0.2491 -0.1888  0.1900
 5415SOL    HW221566   0.509   7.422   3.941 -0.2339 -0.7815  1.3788
 5416SOL     OW21567   2.601   7.853   2.906 -0.1769  0.1784  0.0159
 5416SOL    HW121568   2.540   7.890   2.970 -0.5245  1.2694 -0.9085
 5416SOL    HW221569   2.546   7.827   2.832  0.2514 -0.8178  0.0333
 5417SOL     OW21570   4.197   9.819   4.107 -0.2311  0.0184  0.0948
 5417SOL    HW121571   4.211   9.901   4.059 -1.0912  1.2389  1.8206
 5417SOL    HW221572   4.217   9.841   4.198  1.3338 -2.2015  0.3938
 5418SOL     OW21573   7.285  10.148   4.507 -0.2545  0.5679 -0.2491
 5418SOL    HW121574   7.193  10.171   4.506 -0.0183  1.5375 -0.3555
 5418SOL    HW221575   7.297  10.099   4.588 -0.9948 -0.1663 -0.5641
 5419SOL     OW21576   8.965  10.851  11.212  0.0134  0.2616  0.3526
 5419SOL    HW121577   8.962  10.896  11.127 -0.4191 -0.0823  0.1829
 5419SOL    HW221578   9.030  10.900  11.263 -0.5905  1.2046  0.2403
 5420SOL     OW21579   1.557   5.859   9.529  0.3362  0.0441 -1.0866
 5420SOL    HW121580   1.477   5.807   9.534  1.2237 -1.2424  0.8284
 5420SOL    HW221581   1.565   5.882   9.436 -1.7135 -0.6154 -1.4692
 5421SOL     OW21582   9.020   7.876   0.449 -0.0255  0.0363 -0.1246
 5421SOL    HW121583   9.104   7.854   0.488 -0.5339 -2.0982 -0.0957
 5421SOL    HW221584   9.011   7.817   0.374 -1.5613  0.0682 -0.0113
 5422SOL     OW21585   3.367   3.015   6.322 -0.0977  0.3147  0.2482
 5422SOL    HW121586   3.346   2.940   6.377 -1.0100 -0.8018 -1.4995
 5422SOL    HW221587   3.414   3.076   6.379 -0.2856 -1.1137  1.9917
 5423SOL     OW21588   1.557   7.028   6.545 -0.0582  0.1817 -0.5612
 5423SOL    HW121589   1.510   6.945   6.556  0.0302  0.2051  0.0426
 5423SOL    HW221590   1.608   7.017   6.465 -0.8830  0.0525 -1.0849
 5424SOL     OW21591   1.686   2.450  10.982  0.4630  0.3179  0.0957
 5424SOL    HW121592   1.718   2.478  11.068  0.5072  0.4768  0.0287
 5424SOL    HW221593   1.741   2.375  10.960 -1.1782 -1.3417  1.3015
 5425SOL     OW21594   1.124  11.305   2.997  0.0064 -0.3720 -0.3737
 5425SOL    HW121595   1.096  11.305   3.089 -0.7627 -1.9249 -0.5677
 5425SOL    HW221596   1.052  11.261   2.951  1.4308 -1.7512 -1.3624
 5426SOL     OW21597   5.012   9.175   9.114 -0.1774 -0.1886 -0.1889
 5426SOL    HW121598   5.093   9.133   9.141 -0.2774 -1.4383 -1.6919
 5426SOL    HW221599   4.958   9.103   9.081 -1.3193  0.8199 -0.5862
 5427SOL     OW21600   6.097   4.330   7.274 -0.2398 -0.0579 -0.1485
 5427SOL    HW121601   6.180   4.333   7.226  0.0896 -0.6969  0.3823
 5427SOL    HW221602   6.109   4.391   7.347 -0.2202 -0.1817 -0.0479
 5428SOL     OW21603   1.882   4.413   9.228 -0.1579  0.5141  0.4806
 5428SOL    HW121604   1.962   4.464   9.239 -0.2805  0.9425 -0.4743
 5428SOL    HW221605   1.860   4.423   9.136 -1.8171  1.1903  0.9099
 5429SOL     OW21606  10.863   7.536  11.203  0.1365 -0.1344  0.2091
 5429SOL    HW121607  10.934   7.499  11.150 -1.5717  1.2034 -3.3346
 5429SOL    HW221608  10.817   7.459  11.237  1.8779 -1.0415  0.6682
 5430SOL     OW21609   5.322   1.321   7.557 -0.0543  0.1063  0.1202
 5430SOL    HW121610   5.273   1.328   7.639 -0.9458  0.2327 -0.4069
 5430SOL    HW221611   5.333   1.411   7.528 -1.4688  0.0099 -0.8662
 5431SOL     OW21612   6.638   3.972   9.589  0.5029  0.0869  0.4258
 5431SOL    HW121613   6.639   4.046   9.528 -2.6751  0.7227  0.9948
 5431SOL    HW221614   6.559   3.923   9.566  0.2745 -0.7429  2.7924
 5432SOL     OW21615   2.762   9.532   5.347  0.1434 -0.0769  0.9515
 5432SOL    HW121616   2.775   9.450   5.301 -2.0668 -0.0583  0.1486
 5432SOL    HW221617   2.775   9.600   5.281 -0.1921  0.1052  1.0686
 5433SOL     OW21618   2.184  11.660   9.514 -0.1649  0.3131  0.2766
 5433SOL    HW121619   2.190  11.640   9.607 -0.1041  2.0636  0.6664
 5433SOL    HW221620   2.146  11.747   9.510  1.1237  0.8477 -1.2820
 5434SOL     OW21621   9.829   9.263   2.860  0.2450  0.1955  0.1955
 5434SOL    HW121622   9.836   9.343   2.809 -2.1303 -0.2670 -1.0087
 5434SOL    HW221623   9.757   9.280   2.921 -0.4826 -1.0859 -0.2746
 5435SOL     OW21624   8.647   6.926   6.913  0.3222 -0.2189 -0.6979
 5435SOL    HW121625   8.644   6.887   7.001  0.3602 -0.0128 -0.6035
 5435SOL    HW221626   8.683   7.013   6.927 -0.9433  0.3298 -0.7261
 5436SOL     OW21627   2.385   7.604   6.368  0.1560 -0.6477 -0.0124
 5436SOL    HW121628   2.427   7.656   6.435  1.3893 -1.2244 -0.2977
 5436SOL    HW221629   2.433   7.520   6.369  0.9631 -0.2950 -2.3106
 5437SOL     OW21630   0.812   6.182   1.834  0.4396 -0.1430  1.2121
 5437SOL    HW121631   0.801   6.276   1.817 -0.6627 -0.6751 -1.3141
 5437SOL    HW221632   0.727   6.153   1.867 -0.9645 -1.0762 -2.6769
 5438SOL     OW21633   2.867   9.320   6.022 -0.1164  0.2148  0.3021
 5438SOL    HW121634   2.838   9.246   6.074  1.9061 -1.1490 -0.3746
 5438SOL    HW221635   2.942   9.355   6.070 -0.6108  1.3819  0.2496
 5439SOL     OW21636   9.904   2.230   7.369  0.5544  0.0614 -0.0782
 5439SOL    HW121637   9.832   2.275   7.412  0.2148 -0.4774 -0.0769
 5439SOL    HW221638   9.966   2.300   7.346 -1.1977  0.9456 -2.5596
 5440SOL     OW21639   0.036   3.641   5.708 -0.3241  0.6676  0.2926
 5440SOL    HW121640   0.110   3.665   5.653  1.3709 -1.8880  1.2772
 5440SOL    HW221641   0.074   3.627   5.795 -1.4223 -3.0100  0.3351
 5441SOL     OW21642   5.737   3.259  10.815 -0.1678  0.4035  0.4180
 5441SOL    HW121643   5.769   3.349  10.807  0.5009  0.0786 -0.6625
 5441SOL    HW221644   5.816   3.205  10.814 -0.6120 -0.2536  0.2924
 5442SOL     OW21645   3.459   3.281   2.116 -0.2622  0.0671  0.2924
 5442SOL    HW121646   3.371   3.244   2.102 -0.2071  0.0953 -0.1530
 5442SOL    HW221647   3.519   3.209   2.099 -0.2052 -0.0481  0.9473
 5443SOL     OW21648   2.047   9.290   4.901 -0.7482 -0.1777  0.2463
 5443SOL    HW121649   2.058   9.196   4.894 -0.1936 -0.1742  0.9468
 5443SOL    HW221650   2.108   9.316   4.970  0.9287  1.0494 -1.5896
 5444SOL     OW21651   6.487   4.235   1.755  0.2245 -0.0145 -0.4101
 5444SOL    HW121652   6.531   4.266   1.676  0.4288 -0.6787 -0.5555
 5444SOL    HW221653   6.540   4.161   1.785 -0.4505 -0.4389 -0.2527
 5445SOL     OW21654   1.044   7.624  11.523 -0.1856 -0.7235 -0.3155
 5445SOL    HW121655   1.087   7.559  11.468  0.4422 -0.1637 -0.5078
 5445SOL    HW221656   0.950   7.613  11.506 -0.0672 -1.3944 -0.5407
 5446SOL     OW21657  11.028   6.167  10.064 -0.5775 -0.1222  0.5662
 5446SOL    HW121658  10.989   6.124  10.140 -3.1608 -1.4731 -1.3674
 5446SOL    HW221659  11.034   6.098   9.997  1.0946  1.1313 -0.6794
 5447SOL     OW21660   4.277   5.431   8.561 -0.0858  0.3863  0.7579
 5447SOL    HW121661   4.305   5.481   8.484  0.4658  0.4305  0.9812
 5447SOL    HW221662   4.349   5.370   8.577  0.3130  1.1371  1.9091
 5448SOL     OW21663   4.278   4.426   5.422 -0.3098  0.5940 -0.5799
 5448SOL    HW121664   4.247   4.502   5.373 -1.4745  0.9883  0.7024
 5448SOL    HW221665   4.222   4.354   5.394  0.4442  0.3060 -1.3984
 5449SOL     OW21666   3.010  11.366   8.400 -0.3068 -0.2660 -0.2419
 5449SOL    HW121667   3.021  11.271   8.407 -0.7523 -0.2770  0.3922
 5449SOL    HW221668   3.096  11.402   8.422 -0.4736 -0.4828  0.8130
 5450SOL     OW21669   0.674  10.298   7.232 -0.1795 -0.3812  0.0989
 5450SOL    HW121670   0.654  10.227   7.292 -0.4047 -0.1731  0.2740
 5450SOL    HW221671   0.736  10.261   7.169 -0.6278 -0.8511 -0.0698
 5451SOL     OW21672   9.433   8.447   6.470  0.0942 -0.2255 -0.6973
 5451SOL    HW121673   9.471   8.525   6.511  0.8516 -1.3704  0.8611
 5451SOL    HW221674   9.433   8.381   6.539 -0.5433 -1.6194 -1.9822
 5452SOL     OW21675   2.124   3.049   2.936  0.1663 -0.0954 -0.4076
 5452SOL    HW121676   2.199   3.107   2.949 -1.7865  2.0429  2.6056
 5452SOL    HW221677   2.113   3.004   3.020 -1.3274 -1.1522 -1.1151
 5453SOL     OW21678   3.272   6.918   5.513 -0.6040  0.1033  0.3520
 5453SOL    HW121679   3.353   6.876   5.486 -0.8394 -1.1635  1.5028
 5453SOL    HW221680   3.203   6.861   5.480 -0.9631  0.1489  1.0071
 5454SOL     OW21681   6.694   0.434   8.076 -0.0730 -0.3149 -0.7647
 5454SOL    HW121682   6.725   0.357   8.028  0.0268  0.0085 -1.2329
 5454SOL    HW221683   6.653   0.399   8.155  1.7628 -0.7455  0.0519
 5455SOL     OW21684  11.239   9.595   1.063 -0.2877  0.7787 -0.6136
 5455SOL    HW121685  11.255   9.687   1.085 -3.5269  1.7792 -1.9400
 5455SOL    HW221686  11.172   9.566   1.125  1.5817 -1.2098  0.6496
 5456SOL     OW21687   8.180   4.720  10.221 -1.3263 -0.3759 -0.0608
 5456SOL    HW121688   8.215   4.742  10.307  0.8745 -3.1620 -0.1015
 5456SOL    HW221689   8.119   4.648  10.238  0.3594 -2.0899 -0.8711
 5457SOL     OW21690   0.573   1.407   2.191  0.4494  0.4641  0.6125
 5457SOL    HW121691   0.507   1.382   2.125  0.2251 -0.0395  1.0163
 5457SOL    HW221692   0.523   1.455   2.257  0.7827  1.5012  0.1200
 5458SOL     OW21693   8.702   3.291   1.584  0.7014 -0.5779  0.0132
 5458SOL    HW121694   8.744   3.270   1.668 -0.5651 -1.0747  0.5490
 5458SOL    HW221695   8.631   3.351   1.607 -0.0805 -1.2427 -0.5988
 5459SOL     OW21696  11.274   4.450   8.616 -0.2620 -0.4597 -0.3673
 5459SOL    HW121697  11.195   4.433   8.667 -0.4601  0.1672 -0.4599
 5459SOL    HW221698  11.251   4.524   8.560 -0.0601 -1.1826 -1.4202
 5460SOL     OW21699   9.543  11.424   6.402  1.1197 -0.0855 -0.2419
 5460SOL    HW121700   9.575  11.369   6.473  0.8103 -1.3125 -1.0228
 5460SOL    HW221701   9.483  11.486   6.444 -0.4301 -1.9033  0.3620
 5461SOL     OW21702   9.750  10.589   1.656 -0.5619 -0.2730  0.1706
 5461SOL    HW121703   9.816  10.529   1.622  0.1974  0.6205  0.0442
 5461SOL    HW221704   9.795  10.636   1.726 -1.2422 -0.0561  0.4656
 5462SOL     OW21705   8.872   9.754  11.803 -0.3222  0.3485  0.4933
 5462SOL    HW121706   8.932   9.693  11.845  1.8274  2.1397  0.2096
 5462SOL    HW221707   8.809   9.778  11.872  1.1343  0.7155  1.7390
 5463SOL     OW21708   0.892   8.136   9.679 -0.2325  0.1845  0.2921
 5463SOL    HW121709   0.871   8.043   9.667  1.0035 -0.0921  0.1769
 5463SOL    HW221710   0.957   8.154   9.612 -1.1558  1.3965 -0.3067
 5464SOL     OW21711   3.642   2.312   0.978 -0.1695  0.3179 -0.0347
 5464SOL    HW121712   3.573   2.247   0.991  0.9625 -0.7293  0.9986
 5464SOL    HW221713   3.716   2.278   1.027  1.3591  0.9991 -1.7781
 5465SOL     OW21714   7.995   3.082   8.447 -0.0510 -0.0404 -0.3364
 5465SOL    HW121715   8.017   3.045   8.362  1.8100 -0.1622  0.1523
 5465SOL    HW221716   8.020   3.174   8.440  1.0275 -0.2658  0.3682
 5466SOL     OW21717   9.857   4.238   7.533  0.5694  0.5675 -0.2777
 5466SOL    HW121718   9.877   4.303   7.465  1.5862 -1.0265 -1.5775
 5466SOL    HW221719   9.795   4.178   7.491 -0.5910  0.8269  1.0022
 5467SOL     OW21720   1.960  11.380   6.905 -0.5969  0.0492 -0.5838
 5467SOL    HW121721   1.978  11.464   6.947  1.1600  0.1934 -1.5247
 5467SOL    HW221722   1.927  11.403   6.818  2.2874 -0.1053 -1.8438
 5468SOL     OW21723   0.673   9.976   0.987 -0.1095 -0.2158 -0.6558
 5468SOL    HW121724   0.737   9.989   0.916 -1.9215  1.6256 -2.1172
 5468SOL    HW221725   0.627  10.060   0.991 -1.0401 -0.7884  1.7717
 5469SOL     OW21726   1.914   3.901  10.184  0.7647 -0.7590 -0.1403
 5469SOL    HW121727   1.861   3.927  10.108  0.9226 -0.1312 -0.0430
 5469SOL    HW221728   1.852   3.854  10.240  0.9845 -2.5059 -1.2914
 5470SOL     OW21729  11.699   3.824   7.621 -0.3228 -0.4186  0.2951
 5470SOL    HW121730  11.712   3.733   7.648  1.1921 -0.3902 -0.2162
 5470SOL    HW221731  11.625   3.820   7.560 -2.9305 -0.6699  3.2145
 5471SOL     OW21732  10.423   5.112   4.886 -0.0569  0.2389 -0.2574
 5471SOL    HW121733  10.420   5.035   4.830 -3.2758 -1.4876  1.9959
 5471SOL    HW221734  10.354   5.169   4.853 -0.6705  0.0884  0.7360
 5472SOL     OW21735   7.836   6.745   2.429 -0.0295 -0.8827  0.4862
 5472SOL    HW121736   7.909   6.803   2.405 -0.2233 -0.8341  0.0008
 5472SOL    HW221737   7.761   6.805   2.439  0.1020 -0.8753  1.4510
 5473SOL     OW21738   9.349   8.889   9.497 -0.2778 -0.5990 -0.4304
 5473SOL    HW121739   9.296   8.934   9.563 -2.2679 -1.8438 -1.0999
 5473SOL    HW221740   9.383   8.959   9.441 -0.9718  0.2575  0.1915
 5474SOL     OW21741   3.871  10.385   1.389 -0.1172  0.2307 -0.2370
 5474SOL    HW121742   3.826  10.345   1.314 -0.6190  1.2434 -0.4941
 5474SOL    HW221743   3.945  10.430   1.350 -0.2037  0.5017 -0.0863
 5475SOL     OW21744   2.128   6.345   1.603  0.2223  0.0455 -0.3459
 5475SOL    HW121745   2.133   6.418   1.665  0.4292  0.4138 -0.7941
 5475SOL    HW221746   2.035   6.325   1.597  0.2431 -0.3934  0.5405
 5476SOL     OW21747   9.131   6.918   9.727 -0.4689 -0.1452 -0.3987
 5476SOL    HW121748   9.195   6.905   9.657 -0.2888 -1.9519  0.0542
 5476SOL    HW221749   9.172   6.982   9.786 -0.4352  1.0549 -1.6782
 5477SOL     OW21750   9.944   1.573   2.807  0.1417 -0.9365  0.5258
 5477SOL    HW121751  10.031   1.595   2.840 -0.7418  1.6444  1.3544
 5477SOL    HW221752   9.952   1.577   2.712  0.5584  1.0477  0.6166
 5478SOL     OW21753   0.941   7.937   0.048  0.3072 -0.2004  0.2176
 5478SOL    HW121754   0.981   7.857   0.013  0.9246 -0.8661  2.2926
 5478SOL    HW221755   0.900   7.910   0.129 -0.9690  1.2910  0.1087
 5479SOL     OW21756   2.243   1.272   0.916  0.1040  0.1091 -0.3917
 5479SOL    HW121757   2.278   1.238   0.998 -2.9380  0.4724  1.2004
 5479SOL    HW221758   2.182   1.204   0.885  0.7991  0.2107 -2.1047
 5480SOL     OW21759   5.061  10.238   9.124  0.5601 -0.0189 -0.2773
 5480SOL    HW121760   5.020  10.317   9.089 -0.4005 -1.3397 -2.3762
 5480SOL    HW221761   5.091  10.190   9.046  1.9092 -1.3251  0.9704
 5481SOL     OW21762   6.617   6.176   1.607  0.3728  0.3984 -0.7126
 5481SOL    HW121763   6.652   6.124   1.680  0.1331 -0.0955 -0.9475
 5481SOL    HW221764   6.529   6.202   1.635  0.2724  0.1903 -0.8366
 5482SOL     OW21765   1.905   2.990   2.776  0.1681  0.5506 -0.2250
 5482SOL    HW121766   1.964   2.933   2.727  0.8376  0.7463  0.3361
 5482SOL    HW221767   1.951   3.007   2.859 -0.8632  0.3424  0.4155
 5483SOL     OW21768   7.659   5.590   3.527  0.0001  0.1105  0.0973
 5483SOL    HW121769   7.714   5.635   3.462 -0.2826  2.3762  1.3233
 5483SOL    HW221770   7.716   5.523   3.565  0.3440 -0.8754 -2.0277
 5484SOL     OW21771   3.230  11.028   4.612 -0.1577  0.3186  0.6110
 5484SOL    HW121772   3.192  10.959   4.558  1.1938 -1.5620  1.9273
 5484SOL    HW221773   3.195  11.012   4.700 -0.1195  1.5577  0.8669
 5485SOL     OW21774   4.654   8.508   4.871  0.0881  0.0093  0.3669
 5485SOL    HW121775   4.567   8.472   4.887 -0.3539  0.5498 -0.7079
 5485SOL    HW221776   4.675   8.484   4.781  0.1385  1.6583 -0.0963
 5486SOL     OW21777   9.600   5.484   0.603  0.5788  0.3813  0.7944
 5486SOL    HW121778   9.522   5.539   0.589  0.2916 -0.2562 -0.2446
 5486SOL    HW221779   9.644   5.484   0.518  1.5055  0.3983  1.2640
 5487SOL     OW21780   0.538   0.853   3.601 -0.4868  0.1440  0.1192
 5487SOL    HW121781   0.604   0.861   3.670  0.8612 -1.8750 -0.8564
 5487SOL    HW221782   0.569   0.782   3.545 -2.2224  0.8107 -1.8348
 5488SOL     OW21783   3.066  10.584   3.695  0.1288  0.4533 -0.4469
 5488SOL    HW121784   3.051  10.541   3.611  0.3617 -0.1108 -0.2067
 5488SOL    HW221785   2.981  10.621   3.719 -0.9578 -2.5072  0.7932
 5489SOL     OW21786  11.440   6.911   8.941 -1.0233  0.4961 -0.5519
 5489SOL    HW121787  11.442   6.924   9.036 -2.0102 -0.6869 -0.3381
 5489SOL    HW221788  11.525   6.871   8.921 -1.1151  0.0121 -0.0267
 5490SOL     OW21789   4.267   6.845   2.733  0.5843  0.0582 -0.1060
 5490SOL    HW121790   4.313   6.904   2.793  1.8397  0.0028 -0.9793
 5490SOL    HW221791   4.174   6.863   2.749  0.8836  0.3687  1.5065
 5491SOL     OW21792   4.119   7.563   6.218 -0.4157 -0.0178  0.3558
 5491SOL    HW121793   4.033   7.522   6.231  0.9058 -2.9546  0.7379
 5491SOL    HW221794   4.142   7.543   6.127  0.1883 -0.0044  0.4985
 5492SOL     OW21795  10.637   8.305   3.613 -0.0991 -0.4846 -0.4787
 5492SOL    HW121796  10.726   8.311   3.577  0.0257 -1.7490 -0.4150
 5492SOL    HW221797  10.590   8.249   3.552 -0.6320 -0.4673 -0.0890
 5493SOL     OW21798   7.526   8.235   5.350  0.0720  0.0542 -0.1315
 5493SOL    HW121799   7.495   8.319   5.317 -0.2788 -0.7635 -2.0532
 5493SOL    HW221800   7.602   8.256   5.404  1.1262  1.4934 -2.0720
 5494SOL     OW21801   3.729   6.401   9.003 -0.0902 -0.3203 -0.1301
 5494SOL    HW121802   3.648   6.451   9.011 -0.3385  0.1426 -3.9469
 5494SOL    HW221803   3.703   6.319   8.961  1.2100 -0.9263  0.1801
 5495SOL     OW21804   9.998  11.299  11.074 -0.2030  0.3193 -0.9543
 5495SOL    HW121805   9.914  11.253  11.082 -0.3471  0.8689  1.4052
 5495SOL    HW221806   9.999  11.331  10.984 -2.5360  0.3148 -1.0557
 5496SOL     OW21807   5.256  10.701   8.520  0.2870  0.0717  0.1549
 5496SOL    HW121808   5.186  10.752   8.480  0.7239 -0.6805 -1.7215
 5496SOL    HW221809   5.320  10.766   8.548 -0.7238  0.7083  1.0599
 5497SOL     OW21810   5.243   1.512   1.014  0.3277  0.0864 -0.8169
 5497SOL    HW121811   5.231   1.540   1.105  0.4457 -0.7268 -0.5413
 5497SOL    HW221812   5.243   1.416   1.019  0.0162  0.0354 -1.7177
 5498SOL     OW21813  11.097  11.293   0.888 -0.2510  0.5021  0.3549
 5498SOL    HW121814  11.164  11.353   0.856 -0.2776  0.5713  0.4301
 5498SOL    HW221815  11.015  11.343   0.882 -0.8082 -0.5590 -2.6758
 5499SOL     OW21816   7.362   6.309   5.183  0.3906 -0.1037  0.4306
 5499SOL    HW121817   7.386   6.240   5.120  0.6119  0.2482  0.1235
 5499SOL    HW221818   7.280   6.344   5.149  1.4457  1.3733 -0.7556
 5500SOL     OW21819   2.240   3.891  11.200  0.2402  0.2283  0.1483
 5500SOL    HW121820   2.310   3.953  11.218  0.6292 -0.8211  2.6418
 5500SOL    HW221821   2.164   3.925  11.247  0.5627 -1.3010  1.8697
 5501SOL     OW21822   2.264   5.807   0.758  0.3099  0.2929  0.1916
 5501SOL    HW121823   2.310   5.814   0.841  0.5622 -0.6296  0.1382
 5501SOL    HW221824   2.328   5.768   0.698 -0.2225 -0.1013 -0.1332
 5502SOL     OW21825   9.298   1.633   6.112 -0.4439 -0.2102  0.8521
 5502SOL    HW121826   9.332   1.618   6.024  0.2376  0.3977  1.0016
 5502SOL    HW221827   9.370   1.676   6.158 -1.3829  1.0324  1.2001
 5503SOL     OW21828   9.507  10.025   4.901 -0.1953  0.2375 -0.0412
 5503SOL    HW121829   9.555  10.059   4.826  1.5423 -0.0389  0.8839
 5503SOL    HW221830   9.463   9.947   4.868 -0.4856  0.8192 -1.0654
 5504SOL     OW21831   3.796  11.792   9.422  0.2271 -0.0586 -0.4354
 5504SOL    HW121832   3.831  11.750   9.344  0.3042 -0.0729 -0.3937
 5504SOL    HW221833   3.728  11.733   9.454  2.2450 -1.6147  1.2676
 5505SOL     OW21834   5.687   0.538   6.683  0.1447  0.0077  0.0181
 5505SOL    HW121835   5.663   0.573   6.769  2.9556  1.1094  0.4408
 5505SOL    HW221836   5.678   0.443   6.692 -1.5674  0.2042  0.8221
 5506SOL     OW21837   6.595   2.253   3.635  0.2404 -0.1548 -0.5111
 5506SOL    HW121838   6.528   2.187   3.616  0.6032 -0.7286  0.1503
 5506SOL    HW221839   6.670   2.225   3.584 -0.8203  2.0584 -3.5659
 5507SOL     OW21840   4.093  11.474   5.680 -0.8709  0.0345 -0.5111
 5507SOL    HW121841   4.073  11.409   5.613  1.2441 -0.4281 -0.7625
 5507SOL    HW221842   4.157  11.532   5.640  0.8991 -0.5931  1.2157
 5508SOL     OW21843   9.591   5.431   5.970 -0.1952  0.1907  0.1893
 5508SOL    HW121844   9.553   5.343   5.976 -2.6725  0.9206 -2.5252
 5508SOL    HW221845   9.525   5.488   6.011  0.1829  1.0316 -0.3409
 5509SOL     OW21846   5.569   5.354   9.371  0.2662 -0.4604 -0.1172
 5509SOL    HW121847   5.605   5.438   9.401 -0.0980  0.0680 -1.0837
 5509SOL    HW221848   5.644   5.294   9.373  0.2622 -0.4504  1.7362
 5510SOL     OW21849   3.718   8.384   0.279 -0.1836 -0.1288 -0.4381
 5510SOL    HW121850   3.811   8.407   0.274  0.1162 -1.4315 -1.4019
 5510SOL    HW221851   3.675   8.452   0.226  0.5067 -0.8026 -1.9468
 5511SOL     OW21852   9.828   9.915   5.773 -0.1634 -0.1655 -0.2602
 5511SOL    HW121853   9.900   9.855   5.754 -2.1055 -2.0802 -2.0008
 5511SOL    HW221854   9.776   9.870   5.839 -0.7375  0.3738 -0.3390
 5512SOL     OW21855   0.418   6.994   6.594  0.1113 -0.1871  0.2519
 5512SOL    HW121856   0.425   7.064   6.529 -2.1545 -0.9500 -0.8801
 5512SOL    HW221857   0.324   6.981   6.606  0.4501 -3.0838  0.3779
 5513SOL     OW21858   3.224   1.945   6.404 -0.5152  0.5417 -0.1447
 5513SOL    HW121859   3.290   2.013   6.404 -2.2314  2.2962  0.5362
 5513SOL    HW221860   3.237   1.898   6.486  0.0471  0.6846 -0.1498
 5514SOL     OW21861   1.810   8.954   0.066  0.1680  0.2646 -0.0836
 5514SOL    HW121862   1.749   8.925  -0.002  1.2183 -1.1688 -0.4735
 5514SOL    HW221863   1.758   8.954   0.147 -0.2538 -1.4111 -0.3225
 5515SOL     OW21864   6.032  11.730   8.411 -0.4504  0.0730 -0.5436
 5515SOL    HW121865   6.004  11.768   8.495  1.2834  1.5474 -0.5607
 5515SOL    HW221866   6.097  11.665   8.436  2.0051  2.2794 -0.7187
 5516SOL     OW21867   3.357   8.377  10.106 -0.4831  0.2576  0.0541
 5516SOL    HW121868   3.329   8.330  10.027 -0.5299  1.6775 -0.8146
 5516SOL    HW221869   3.275   8.399  10.150 -0.5122  0.3705 -0.0551
 5517SOL     OW21870   3.087   1.960   5.324 -0.4276 -0.1266 -0.3239
 5517SOL    HW121871   3.106   1.958   5.230  0.1623  0.9563 -0.2449
 5517SOL    HW221872   3.138   2.034   5.357 -2.2423  0.8373  0.4816
 5518SOL     OW21873   2.930   6.884   3.213 -0.2127  0.1007  0.3971
 5518SOL    HW121874   2.941   6.791   3.233 -0.2007  0.1630  0.6784
 5518SOL    HW221875   2.857   6.887   3.151 -2.1205  0.1496  2.5366
 5519SOL     OW21876   4.298   9.534  11.738  0.1635 -0.5473  0.0579
 5519SOL    HW121877   4.260   9.592  11.673  0.2671  0.6734  1.0469
 5519SOL    HW221878   4.334   9.593  11.805  2.8292 -1.6484 -0.2851
 5520SOL     OW21879   7.940   6.204   7.990 -0.1001  0.5462 -0.5021
 5520SOL    HW121880   7.988   6.121   7.995 -0.9127  0.0923 -0.0370
 5520SOL    HW221881   7.954   6.234   7.901  0.2492 -0.0685 -0.6605
 5521SOL     OW21882   7.983   5.762   3.471 -0.5308  0.0376  0.2965
 5521SOL    HW121883   7.929   5.715   3.408  0.7424  0.9709 -1.5776
 5521SOL    HW221884   7.985   5.852   3.439  0.5261  0.4406  1.4124
 5522SOL     OW21885   5.836   1.418   1.393 -0.2678 -0.2569  0.0182
 5522SOL    HW121886   5.815   1.325   1.404  2.8663 -1.0013  0.5692
 5522SOL    HW221887   5.921   1.429   1.435  0.2467  2.5111 -1.5134
 5523SOL     OW21888   5.690   2.124   5.585  0.2248  0.1573 -0.2329
 5523SOL    HW121889   5.688   2.032   5.608  0.6516 -0.0728 -1.0675
 5523SOL    HW221890   5.706   2.125   5.491 -1.5777  1.0504 -0.5810
 5524SOL     OW21891   5.715   6.760  10.333  0.0316 -0.2532  0.0655
 5524SOL    HW121892   5.803   6.736  10.362  0.1318 -0.6529 -0.5274
 5524SOL    HW221893   5.701   6.706  10.255 -1.6366 -1.9112  1.4311
 5525SOL     OW21894   7.164   1.649   3.477 -0.4302  0.6360 -0.4360
 5525SOL    HW121895   7.112   1.664   3.556  1.3202  1.4588  0.6188
 5525SOL    HW221896   7.231   1.586   3.503 -0.0608  0.6180 -1.3732
 5526SOL     OW21897   8.821   9.797  10.825 -0.1477  0.0545 -0.2126
 5526SOL    HW121898   8.778   9.792  10.910  2.1889 -0.8065  1.0352
 5526SOL    HW221899   8.810   9.709  10.787  1.4137 -0.5791  0.6719
 5527SOL     OW21900   8.280   7.148   7.180  0.3464 -0.1059  0.4592
 5527SOL    HW121901   8.344   7.108   7.239 -0.1202 -0.2723  0.8627
 5527SOL    HW221902   8.201   7.158   7.234  0.3498  1.0555  0.2702
 5528SOL     OW21903   3.282   8.865   2.284  0.0099  0.3779  0.0013
 5528SOL    HW121904   3.309   8.773   2.280 -2.1077 -0.3443  0.8447
 5528SOL    HW221905   3.360   8.912   2.314  0.6536 -1.4156  1.3095
 5529SOL     OW21906   1.576   1.772   7.994  0.2270 -0.0958  0.1026
 5529SOL    HW121907   1.527   1.852   7.974  0.3174  0.1810  0.9368
 5529SOL    HW221908   1.533   1.704   7.943  0.1168  0.4802 -0.5769
 5530SOL     OW21909   9.012   5.084   5.249  0.5214  0.0963 -0.6090
 5530SOL    HW121910   8.988   5.164   5.295  1.5007 -1.0737  2.1480
 5530SOL    HW221911   9.104   5.097   5.225  1.4690 -0.9984  2.0224
 5531SOL     OW21912   8.040   0.020   9.591 -0.0729  0.1218  0.0286
 5531SOL    HW121913   8.120   0.071   9.601 -1.2969  2.4248 -1.1228
 5531SOL    HW221914   8.063  -0.050   9.530  1.1492  0.4615  0.0746
 5532SOL     OW21915   3.593   3.094   7.967 -0.2671 -0.0959 -0.3099
 5532SOL    HW121916   3.608   3.188   7.977 -0.2917 -0.1689  0.5065
 5532SOL    HW221917   3.573   3.082   7.874 -0.6862  0.7650 -0.3378
 5533SOL     OW21918   7.963   1.843   0.087  0.2948 -0.7537  0.3828
 5533SOL    HW121919   7.868   1.829   0.092  0.0951 -0.1840 -1.1845
 5533SOL    HW221920   7.996   1.765   0.041  0.5094 -0.7238  0.4869
 5534SOL     OW21921   9.526   3.583   0.124  0.5180  0.1569  0.2570
 5534SOL    HW121922   9.488   3.671   0.121  3.4002  1.5077 -1.1819
 5534SOL    HW221923   9.489   3.539   0.047 -0.3908  0.3381  0.5774
 5535SOL     OW21924   6.591  10.930   1.347 -0.4422  0.0037  0.5808
 5535SOL    HW121925   6.497  10.929   1.365 -0.2110 -0.0960  1.8855
 5535SOL    HW221926   6.600  10.982   1.267 -1.5832  0.2034  0.5663
 5536SOL     OW21927   5.334   5.845  10.719 -0.0047 -0.3481  0.1962
 5536SOL    HW121928   5.361   5.904  10.789  0.1286 -0.3274  0.1273
 5536SOL    HW221929   5.279   5.780  10.763  0.5772 -0.6924  0.4308
 5537SOL     OW21930   0.924   2.107   5.893  0.1371  0.0015 -0.5518
 5537SOL    HW121931   1.003   2.054   5.893 -0.8124 -1.5666  2.0490
 5537SOL    HW221932   0.852   2.044   5.893 -1.1981  1.3813 -2.3418
 5538SOL     OW21933   8.260   3.083   7.577 -0.3810  0.4445  0.2723
 5538SOL    HW121934   8.354   3.072   7.558 -0.9724 -0.2627 -2.7753
 5538SOL    HW221935   8.219   3.008   7.536 -2.2440 -0.0464  2.8132
 5539SOL     OW21936   9.356   2.270   1.362  0.2380  0.2462 -0.0236
 5539SOL    HW121937   9.433   2.317   1.394  1.3076 -2.1169  1.1287
 5539SOL    HW221938   9.391   2.204   1.303 -0.8539 -1.0056  0.6767
 5540SOL     OW21939  11.360   8.862   2.453  0.3194 -0.4643 -0.6112
 5540SOL    HW121940  11.343   8.772   2.426 -2.3267  0.7145 -3.4336
 5540SOL    HW221941  11.324   8.868   2.541  0.7866 -2.1863 -0.2630
 5541SOL     OW21942  11.433  10.792   0.260 -0.1759 -0.0399  0.0344
 5541SOL    HW121943  11.431  10.883   0.230 -0.6855 -0.3904 -1.0209
 5541SOL    HW221944  11.359  10.750   0.216  0.2651 -1.0541  0.2326
 5542SOL     OW21945   5.502   2.157   3.924 -0.3420  0.1620  0.0160
 5542SOL    HW121946   5.476   2.097   3.993 -0.1650  1.6418  1.4521
 5542SOL    HW221947   5.598   2.153   3.923 -0.2259  1.5053  1.2365
 5543SOL     OW21948   6.773   0.092   0.135 -0.2426  0.1009  0.5061
 5543SOL    HW121949   6.801   0.155   0.201  1.4665  1.6494 -1.5208
 5543SOL    HW221950   6.740   0.147   0.063  0.3273 -1.3445 -0.9216
 5544SOL     OW21951   9.654   6.596   8.699 -0.5925  0.6531  0.6141
 5544SOL    HW121952   9.735   6.562   8.738 -1.1454  0.5061  1.6652
 5544SOL    HW221953   9.584   6.550   8.746 -1.2906  0.6038 -0.4427
 5545SOL     OW21954   5.457   1.581   2.320  0.7820  0.0291 -0.0338
 5545SOL    HW121955   5.396   1.596   2.393  0.9170 -1.2545  0.3796
 5545SOL    HW221956   5.525   1.647   2.331 -0.9236  2.0690 -1.0065
 5546SOL     OW21957   7.920   8.506   8.518 -0.7276  0.3645 -0.2299
 5546SOL    HW121958   7.904   8.559   8.596  0.0362  1.1590 -0.5950
 5546SOL    HW221959   7.993   8.449   8.543  1.3204  2.4331 -1.1420
 5547SOL     OW21960   5.214  10.863   9.634  0.4928  0.2878  0.2463
 5547SOL    HW121961   5.237  10.956   9.623  0.1564  0.1238 -2.5075
 5547SOL    HW221962   5.122  10.858   9.608  0.6242 -0.8728 -0.0310
 5548SOL     OW21963   3.384   7.610   4.586  0.6247  0.1719  0.9435
 5548SOL    HW121964   3.357   7.633   4.496 -0.8784 -0.7419  1.1216
 5548SOL    HW221965   3.394   7.515   4.584  0.1299  0.0886  1.8405
 5549SOL     OW21966   6.882  11.189   6.736 -0.2479  0.1413  0.1934
 5549SOL    HW121967   6.792  11.165   6.715 -0.1803  0.4888 -0.5399
 5549SOL    HW221968   6.916  11.228   6.655  0.3294  0.6846  0.6880
 5550SOL     OW21969   0.794   0.915   3.787 -0.3284 -0.0028 -0.4853
 5550SOL    HW121970   0.867   0.976   3.777  0.9289 -1.2111  0.8734
 5550SOL    HW221971   0.754   0.940   3.870 -0.6846 -0.1568 -0.6073
 5551SOL     OW21972   1.118   2.446   4.110  0.2337  0.4738  0.0512
 5551SOL    HW121973   1.125   2.471   4.202 -1.2407  0.7431  0.0981
 5551SOL    HW221974   1.136   2.352   4.110  2.6970  0.8674  0.2627
 5552SOL     OW21975   2.399   6.628   8.765 -0.4216  0.3703  0.3515
 5552SOL    HW121976   2.451   6.616   8.845  0.9823  1.1134 -0.4149
 5552SOL    HW221977   2.425   6.555   8.708  0.1949  1.0311 -0.2316
 5553SOL     OW21978   0.030   4.317   5.237  0.3425  0.0275  0.6422
 5553SOL    HW121979   0.109   4.371   5.232 -0.2447  0.8132 -0.2560
 5553SOL    HW221980   0.022   4.296   5.330  1.2979  0.3919  0.8205
 5554SOL     OW21981   0.865  10.006   0.764  0.2359  0.4454 -0.3248
 5554SOL    HW121982   0.937  10.069   0.754  0.1207  0.6974  0.3533
 5554SOL    HW221983   0.900   9.924   0.727  0.2137  1.0160 -1.6482
 5555SOL     OW21984   2.587   6.903   9.992 -0.2570 -0.0617 -0.0221
 5555SOL    HW121985   2.588   6.843   9.918 -1.8162 -0.2089  0.0601
 5555SOL    HW221986   2.575   6.989   9.953  1.6076  0.2109 -0.1094
 5556SOL     OW21987   8.809   3.359   3.604 -0.4444 -0.5585 -0.0582
 5556SOL    HW121988   8.860   3.435   3.575 -2.0651  0.0618 -1.4525
 5556SOL    HW221989   8.779   3.383   3.691  0.0820 -0.1283  0.0121
 5557SOL     OW21990   3.283   5.506   0.433  0.2993 -0.0246 -0.1198
 5557SOL    HW121991   3.357   5.562   0.458 -0.2263  0.0809  1.3134
 5557SOL    HW221992   3.305   5.474   0.346  2.5684 -0.8853  0.6986
 5558SOL     OW21993   1.960   2.873  10.359  0.4153  0.3826 -0.3761
 5558SOL    HW121994   2.006   2.789  10.358 -0.0178  0.0514  2.0698
 5558SOL    HW221995   1.923   2.880  10.447  0.5245  3.1939 -0.4545
 5559SOL     OW21996   2.237   5.469   8.230  0.4623  0.1734  0.1567
 5559SOL    HW121997   2.169   5.478   8.163  0.7875 -0.5496 -0.2832
 5559SOL    HW221998   2.209   5.394   8.282  0.8871 -0.0977  0.0047
 5560SOL     OW21999   2.240   9.463  10.864  1.0224  0.1321 -0.7819
 5560SOL    HW122000   2.184   9.399  10.820  0.7723 -3.5970  4.1422
 5560SOL    HW222001   2.327   9.447  10.827  0.5056 -1.1300 -1.5305
 5561SOL     OW22002   4.848   2.686   1.844 -0.5990 -0.4346 -0.1158
 5561SOL    HW122003   4.766   2.687   1.795 -1.2370 -1.5757  0.8471
 5561SOL    HW222004   4.821   2.706   1.934  0.6135  2.2117 -0.2678
 5562SOL     OW22005   1.289   5.676   1.243  0.2393  0.2739  0.1067
 5562SOL    HW122006   1.273   5.763   1.206 -0.6550  0.3102  0.5390
 5562SOL    HW222007   1.366   5.644   1.197  0.4684  1.2182 -0.1968
 5563SOL     OW22008   3.077   1.258   8.372 -0.7562 -0.0267 -0.1772
 5563SOL    HW122009   3.045   1.168   8.383 -1.5110  0.1947 -0.5074
 5563SOL    HW222010   3.139   1.253   8.300 -0.7758 -0.2842 -0.1775
 5564SOL     OW22011  10.642   2.133  10.592 -0.7485 -0.3291 -0.0816
 5564SOL    HW122012  10.564   2.135  10.536  0.5995  2.0882 -2.0811
 5564SOL    HW222013  10.664   2.225  10.605  1.8451 -0.9302  0.2725
 5565SOL     OW22014   3.573  10.359  10.867  0.0938 -0.4353 -0.8798
 5565SOL    HW122015   3.545  10.442  10.907  0.8200 -1.2003  1.4156
 5565SOL    HW222016   3.491  10.314  10.846 -0.3192  0.3076 -0.9259
 5566SOL     OW22017   8.095  10.230   3.341  0.2448  0.0879 -0.2599
 5566SOL    HW122018   8.031  10.301   3.339  0.5302  0.3787 -2.6804
 5566SOL    HW222019   8.178  10.271   3.317  0.5831 -0.8843 -0.8485
 5567SOL     OW22020   1.850  10.671   0.950 -0.4222 -1.1649 -0.4521
 5567SOL    HW122021   1.762  10.707   0.942 -0.4838 -1.4665 -1.1723
 5567SOL    HW222022   1.863  10.619   0.870  0.9298  0.0305 -1.0637
 5568SOL     OW22023   3.628   9.017  11.792 -0.0399  0.4776  0.6913
 5568SOL    HW122024   3.664   8.949  11.849 -0.4334 -0.1725  0.1834
 5568SOL    HW222025   3.703   9.072  11.770  0.2054  0.4450  1.4363
 5569SOL     OW22026   9.160   8.102   7.080  0.2887  0.0808  0.4656
 5569SOL    HW122027   9.094   8.163   7.112  0.1114 -0.6727  1.6109
 5569SOL    HW222028   9.111   8.041   7.024  0.4809  1.0009 -0.7485
 5570SOL     OW22029   7.424   0.756   7.492  0.6696 -0.5110 -0.0642
 5570SOL    HW122030   7.375   0.817   7.548 -0.0243 -1.0794 -0.0391
 5570SOL    HW222031   7.387   0.670   7.513  2.9576 -1.2224  1.3453
 5571SOL     OW22032   8.054   8.837   5.632 -0.2217  0.0034  0.3839
 5571SOL    HW122033   8.091   8.821   5.719 -0.2865  0.5533  0.5208
 5571SOL    HW222034   7.992   8.766   5.619  0.2448 -0.4325  0.5232
 5572SOL     OW22035   4.768   0.418  11.482  0.2133 -0.3662  0.2483
 5572SOL    HW122036   4.845   0.472  11.501 -0.3753  0.4471  0.3555
 5572SOL    HW222037   4.791   0.332  11.515  2.2979 -0.9705 -2.4225
 5573SOL     OW22038   1.990   3.944  11.261  0.2248  0.1387 -0.7187
 5573SOL    HW122039   1.955   3.872  11.314 -0.2644  0.8503 -0.0632
 5573SOL    HW222040   1.967   4.023  11.309 -0.8956  0.8610 -2.3275
 5574SOL     OW22041   6.179   1.853   3.816  0.3394  0.2132 -0.2707
 5574SOL    HW122042   6.090   1.860   3.851  0.3536  0.0086 -0.1924
 5574SOL    HW222043   6.172   1.889   3.727  0.2508  0.5042 -0.1461
 5575SOL     OW22044   5.419   8.195  11.386  0.0758  0.3937 -0.2088
 5575SOL    HW122045   5.363   8.176  11.311 -2.3774  0.7720  1.4161
 5575SOL    HW222046   5.414   8.116  11.440  0.4153  0.7590  0.3662
 5576SOL     OW22047   9.878  10.549   6.941  0.7676 -0.4411 -0.0664
 5576SOL    HW122048   9.965  10.551   6.902  0.9805 -1.5836  0.3057
 5576SOL    HW222049   9.824  10.500   6.879  0.2479  0.7065 -0.5424
 5577SOL     OW22050   5.334   9.417   5.401  0.5295  0.1510  0.3192
 5577SOL    HW122051   5.340   9.373   5.486 -0.6368 -1.1384 -0.2292
 5577SOL    HW222052   5.363   9.351   5.338  0.4278  0.7630 -0.3768
 5578SOL     OW22053   2.789   1.377   5.587  0.3264  0.4810 -0.0765
 5578SOL    HW122054   2.789   1.427   5.505 -1.3200  0.7145  0.0343
 5578SOL    HW222055   2.741   1.296   5.565  0.2581  0.3522  0.5428
 5579SOL     OW22056   5.527   0.877  10.701 -0.3958 -0.0802  0.9328
 5579SOL    HW122057   5.556   0.817  10.770  0.5195 -2.4279 -1.3209
 5579SOL    HW222058   5.608   0.913  10.665 -0.0410 -4.0133 -3.0978
 5580SOL     OW22059   9.732   1.482   9.870  0.1732  0.7005  0.3612
 5580SOL    HW122060   9.661   1.508   9.928  0.6504 -0.7608  1.6497
 5580SOL    HW222061   9.809   1.475   9.926  0.5815 -1.0484 -0.3359
 5581SOL     OW22062  10.146  10.317   0.119 -0.0176  0.3355 -0.0806
 5581SOL    HW122063  10.142  10.395   0.064  1.2724 -0.8030 -1.8780
 5581SOL    HW222064  10.083  10.256   0.080 -1.5149  0.6601  1.7081
 5582SOL     OW22065   1.395  10.086   4.106  0.0497  0.2483  0.3614
 5582SOL    HW122066   1.375  10.120   4.193  1.3002  0.1328  0.7016
 5582SOL    HW222067   1.427   9.997   4.122 -0.2955  0.0013 -0.2780
 5583SOL     OW22068   3.391   7.713   3.010 -0.1449  0.1960  0.1645
 5583SOL    HW122069   3.445   7.703   3.088 -1.0200  0.6051  0.8456
 5583SOL    HW222070   3.378   7.807   3.002 -0.0912  0.1522 -0.4545
 5584SOL     OW22071   3.145   6.957   3.967 -0.0110  0.1807  0.8496
 5584SOL    HW122072   3.212   6.972   3.900 -0.1102 -1.5327  0.3252
 5584SOL    HW222073   3.195   6.928   4.043 -0.0554  0.1332  0.8603
 5585SOL     OW22074   7.607   0.398   0.761  0.4151  0.1335 -0.1222
 5585SOL    HW122075   7.623   0.492   0.764  1.4430  0.0453 -1.6970
 5585SOL    HW222076   7.546   0.386   0.689  3.2134 -0.6572 -2.5895
 5586SOL     OW22077   6.824   3.629   5.075 -0.3963  0.0248  0.1426
 5586SOL    HW122078   6.809   3.554   5.133 -2.0090 -0.1674 -0.4846
 5586SOL    HW222079   6.739   3.673   5.070  0.0565  0.8066 -0.9954
 5587SOL     OW22080   9.936   8.578   3.258  0.0731  0.2290 -0.3782
 5587SOL    HW122081  10.009   8.639   3.262  0.1634  0.0990  0.0901
 5587SOL    HW222082   9.876   8.608   3.327  1.2273 -1.5892  1.5160
 5588SOL     OW22083   3.669   7.467   2.603 -0.4257 -0.4712  0.0941
 5588SOL    HW122084   3.642   7.393   2.657  0.6953  0.8967  2.7653
 5588SOL    HW222085   3.606   7.536   2.624  0.0934  0.1333 -0.3046
 5589SOL     OW22086   5.569   7.758   1.046 -0.0661  0.3577  0.3485
 5589SOL    HW122087   5.655   7.733   1.014 -0.3965 -0.4849  0.0866
 5589SOL    HW222088   5.586   7.827   1.111  1.0467 -1.7421  2.4235
 5590SOL     OW22089   2.881   1.673   9.364  0.1842  0.2160  0.3318
 5590SOL    HW122090   2.834   1.646   9.443 -0.8536 -0.1791 -0.3967
 5590SOL    HW222091   2.893   1.592   9.314  0.2820  0.5527 -0.2020
 5591SOL     OW22092  11.310   5.199   0.910 -0.0245  0.6042  0.4929
 5591SOL    HW122093  11.282   5.269   0.969  2.9555  2.7449 -0.4366
 5591SOL    HW222094  11.263   5.216   0.829  1.0748  1.9397  0.0993
 5592SOL     OW22095   3.999   0.019   0.296  0.3166 -0.0249 -0.3730
 5592SOL    HW122096   3.979  -0.035   0.220 -1.1533  0.5570 -0.4325
 5592SOL    HW222097   3.948  -0.020   0.368  1.4578 -0.3966  0.2563
 5593SOL     OW22098   3.306  11.577   7.295  0.0217 -0.2143  0.0541
 5593SOL    HW122099   3.342  11.491   7.270  0.2236  0.3234 -1.6205
 5593SOL    HW222100   3.360  11.605   7.369 -0.0156 -1.5003  0.5914
 5594SOL     OW22101   3.898   5.386   7.370  0.6409 -0.0464  0.0410
 5594SOL    HW122102   3.903   5.306   7.317  1.3984 -0.4881  0.7526
 5594SOL    HW222103   3.860   5.451   7.312  0.9251 -0.6709 -0.8701
 5595SOL     OW22104   7.930   8.468   4.083 -0.6706 -0.8078  0.7226
 5595SOL    HW122105   7.921   8.553   4.125  0.4609 -0.3936  0.1539
 5595SOL    HW222106   8.016   8.470   4.042 -0.4920 -2.3413  0.9494
 5596SOL     OW22107   0.148   1.934   2.834 -0.2949 -0.9385 -0.0834
 5596SOL    HW122108   0.123   1.970   2.749  0.0013 -0.0081  0.2197
 5596SOL    HW222109   0.238   1.903   2.821 -0.1447 -0.5248 -0.0230
 5597SOL     OW22110   4.538   5.625   5.197  0.7138  0.5226  0.2658
 5597SOL    HW122111   4.536   5.537   5.234 -1.6264  0.8634  1.1509
 5597SOL    HW222112   4.611   5.624   5.135  0.6077 -2.1006  0.0862
 5598SOL     OW22113   8.693   4.685  10.050  0.0385 -0.7460 -0.1519
 5598SOL    HW122114   8.678   4.590  10.054  0.3757 -0.9182 -1.8856
 5598SOL    HW222115   8.653   4.711   9.967 -0.2813  0.6969  0.4341
 5599SOL     OW22116   3.991   9.567   7.684 -0.7695  0.6827  0.3607
 5599SOL    HW122117   3.922   9.538   7.623 -2.3944 -1.3186  2.9582
 5599SOL    HW222118   4.068   9.516   7.660 -1.0067  0.8325 -0.7703
 5600SOL     OW22119   6.465   5.915   5.615 -0.2492  0.3462 -0.4852
 5600SOL    HW122120   6.530   5.878   5.555 -0.3511  0.8789 -0.9326
 5600SOL    HW222121   6.446   6.002   5.580 -0.8118  0.4039 -0.0612
 5601SOL     OW22122   5.842   2.041   4.111  0.1245  0.3212  0.2230
 5601SOL    HW122123   5.752   2.007   4.104  0.6515 -1.5029  1.4839
 5601SOL    HW222124   5.851   2.064   4.203  0.1065  3.2352 -0.4001
 5602SOL     OW22125   9.791   8.178  10.726  0.8403 -0.1474  0.3392
 5602SOL    HW122126   9.757   8.257  10.683 -0.2134  1.0849  3.1645
 5602SOL    HW222127   9.871   8.208  10.769  1.1664 -0.9796  0.3166
 5603SOL     OW22128   2.336   7.553  11.397 -0.1690  0.3724  0.0083
 5603SOL    HW122129   2.332   7.606  11.477 -1.3873  0.9960 -0.4432
 5603SOL    HW222130   2.256   7.500  11.400 -0.2105  0.3795 -0.7710
 5604SOL     OW22131   1.201   6.732   2.931 -0.3741 -0.4034  0.1619
 5604SOL    HW122132   1.224   6.681   3.008  0.1644  0.5966  0.6817
 5604SOL    HW222133   1.197   6.668   2.860  1.1854 -1.0535  0.6123
 5605SOL     OW22134   4.668   3.744   5.745  0.5010 -0.8767 -0.1247
 5605SOL    HW122135   4.627   3.726   5.830 -0.2537  0.6272 -0.1420
 5605SOL    HW222136   4.740   3.682   5.740  0.5737 -0.9888  1.6301
 5606SOL     OW22137  10.114   8.865   4.825 -0.4275 -0.3604 -0.6965
 5606SOL    HW122138  10.070   8.896   4.905  0.1029  2.6390 -1.4296
 5606SOL    HW222139  10.152   8.781   4.849  0.1776  0.6693  2.4190
 5607SOL     OW22140   3.040   7.942   1.408 -0.1309 -0.5978  0.3967
 5607SOL    HW122141   3.076   7.999   1.477 -2.0577  0.8877  0.2650
 5607SOL    HW222142   3.060   7.989   1.326  0.8391 -1.6138  0.0281
 5608SOL     OW22143   3.406  10.413   4.057 -0.2921  0.0432 -0.1843
 5608SOL    HW122144   3.462  10.335   4.061  0.3277  0.4614 -0.4051
 5608SOL    HW222145   3.468  10.486   4.051 -0.8307  0.6470  1.1591
 5609SOL     OW22146   5.281   8.241   5.020 -0.2819  0.7670  0.0294
 5609SOL    HW122147   5.368   8.204   5.010 -0.0911  1.0414  0.6596
 5609SOL    HW222148   5.232   8.206   4.945  0.6821  1.5456 -1.0026
 5610SOL     OW22149   9.183   6.406   5.560 -0.0014 -0.2165 -0.4857
 5610SOL    HW122150   9.277   6.425   5.568 -0.5036  2.3510  0.0986
 5610SOL    HW222151   9.168   6.336   5.623  1.3378  0.1310  0.2736
 5611SOL     OW22152  11.330  10.344   0.525  0.3306  0.0393 -0.1672
 5611SOL    HW122153  11.346  10.281   0.595  0.7253  0.3713  0.0439
 5611SOL    HW222154  11.413  10.390   0.514  0.1089  0.3722 -0.4742
 5612SOL     OW22155   8.093   8.709   3.273 -0.1148 -0.2038  0.2762
 5612SOL    HW122156   8.111   8.661   3.353 -0.2902  0.3498  0.6536
 5612SOL    HW222157   8.071   8.798   3.302  2.5199  0.8017 -0.4817
 5613SOL     OW22158  11.456   3.751   1.885 -0.6064 -0.8219  0.2873
 5613SOL    HW122159  11.501   3.793   1.958  0.9728 -0.9352 -0.5692
 5613SOL    HW222160  11.436   3.823   1.825 -1.3519 -0.8104  0.5401
 5614SOL     OW22161   5.819   7.858  10.124 -0.3510 -0.0495 -0.5000
 5614SOL    HW122162   5.799   7.846  10.217 -1.3117  2.1391 -0.3636
 5614SOL    HW222163   5.778   7.783  10.080 -1.2062 -0.2962  0.6827
 5615SOL     OW22164   6.324  11.276   8.658 -0.3894 -0.8532  0.3605
 5615SOL    HW122165   6.408  11.274   8.611  0.6829  1.9700  1.9006
 5615SOL    HW222166   6.334  11.211   8.727  0.4958 -0.6080  0.4721
 5616SOL     OW22167   6.145   3.459   6.179 -0.4071 -0.2057  0.0028
 5616SOL    HW122168   6.077   3.435   6.242 -2.1795  3.3158 -0.3420
 5616SOL    HW222169   6.144   3.388   6.114 -1.8275 -1.5721  1.4169
 5617SOL     OW22170   7.563   6.824  10.766 -0.0769 -0.0233 -0.4015
 5617SOL    HW122171   7.635   6.825  10.829 -0.0961 -0.4054 -0.3777
 5617SOL    HW222172   7.484   6.810  10.819  0.1143 -2.8098 -0.7158
 5618SOL     OW22173   5.133   2.733   0.261  0.8305 -0.2887 -0.5419
 5618SOL    HW122174   5.148   2.775   0.346 -2.0674 -0.5036  0.1737
 5618SOL    HW222175   5.113   2.642   0.283  1.1691 -0.6297 -1.5892
 5619SOL     OW22176   8.338   5.463   1.087 -0.6443  0.4650  0.1288
 5619SOL    HW122177   8.309   5.417   1.009  0.4073 -0.9920  0.5439
 5619SOL    HW222178   8.297   5.416   1.160 -0.2247  0.7145  0.5358
 5620SOL     OW22179  11.777   6.501   3.393  0.1119 -0.0333 -0.1109
 5620SOL    HW122180  11.797   6.460   3.309  0.5606  0.8932 -0.4697
 5620SOL    HW222181  11.754   6.428   3.451  1.2274 -0.8151 -0.6320
 5621SOL     OW22182   5.136   5.960   7.459  0.3500 -0.5772 -0.1976
 5621SOL    HW122183   5.219   5.934   7.497  1.2527 -0.0754 -1.7120
 5621SOL    HW222184   5.098   5.878   7.426  0.5311 -0.7290 -0.0317
 5622SOL     OW22185   6.568   4.182   9.408 -0.2429  0.2584  0.6743
 5622SOL    HW122186   6.479   4.208   9.430 -1.4008 -1.9733 -0.9612
 5622SOL    HW222187   6.584   4.220   9.322 -0.4290 -1.0180  0.0577
 5623SOL     OW22188   5.345   5.439   0.412  0.1741  0.4160 -0.3423
 5623SOL    HW122189   5.310   5.361   0.455  0.9941  0.4306  0.3692
 5623SOL    HW222190   5.395   5.484   0.480  1.0660  0.7128 -1.1691
 5624SOL     OW22191   9.265   2.482   1.220 -0.2332  0.2505 -0.1065
 5624SOL    HW122192   9.301   2.407   1.267 -0.2006  1.3512  1.7269
 5624SOL    HW222193   9.258   2.551   1.286  1.2510  2.3970 -2.0158
 5625SOL     OW22194   0.787   5.847   5.019 -0.0314 -0.1476 -0.1598
 5625SOL    HW122195   0.879   5.824   5.005 -0.2792 -0.9954 -0.4488
 5625SOL    HW222196   0.751   5.774   5.069 -0.3234  0.6383  0.8133
 5626SOL     OW22197   0.727   1.359   7.391  0.4353 -0.2630 -0.2689
 5626SOL    HW122198   0.684   1.282   7.429 -0.8335  1.5880  2.3712
 5626SOL    HW222199   0.655   1.412   7.357  1.3697 -0.6265 -3.0878
 5627SOL     OW22200   0.177   5.730   6.120 -0.0924 -0.3834  0.0087
 5627SOL    HW122201   0.227   5.719   6.201 -0.4120 -2.0747  0.0168
 5627SOL    HW222202   0.086   5.727   6.148 -0.2244  0.8203 -0.2303
 5628SOL     OW22203   5.312   2.363   8.278 -0.5439 -0.0254 -0.1015
 5628SOL    HW122204   5.340   2.448   8.312  0.3285 -0.2647 -0.1924
 5628SOL    HW222205   5.226   2.379   8.240  0.3917  1.2418 -1.7759
 5629SOL     OW22206   4.027   7.755   5.533  0.1004 -0.6473  0.3863
 5629SOL    HW122207   3.985   7.733   5.616  0.6639  0.4218  0.9786
 5629SOL    HW222208   4.038   7.850   5.536  0.6523 -0.6617 -0.6608
 5630SOL     OW22209   7.142   6.185   8.662  0.3472 -0.4259  0.1081
 5630SOL    HW122210   7.141   6.105   8.609  0.1172  0.7435 -1.7147
 5630SOL    HW222211   7.145   6.256   8.599  1.4580  1.0222  1.7184
 5631SOL     OW22212   6.877   6.896   3.784 -1.0350  0.7586  0.3043
 5631SOL    HW122213   6.933   6.952   3.838  0.0861  0.0495 -0.0906
 5631SOL    HW222214   6.858   6.821   3.840  0.3968 -0.1340 -0.3551
 5632SOL     OW22215   0.493   4.702   7.755  0.5093  0.2449 -1.0856
 5632SOL    HW122216   0.485   4.797   7.748  0.6184  0.3485  0.0138
 5632SOL    HW222217   0.429   4.668   7.693  0.3330  1.0362 -1.3501
 5633SOL     OW22218   8.700  10.026  10.408 -0.0285  0.2194  0.8072
 5633SOL    HW122219   8.726  10.114  10.436  1.4032  0.5781 -1.3769
 5633SOL    HW222220   8.783   9.978  10.402 -0.8045 -1.4270  2.2341
 5634SOL     OW22221   6.410   2.348  11.536 -0.0219 -0.3290  0.5359
 5634SOL    HW122222   6.429   2.438  11.510 -0.1992 -0.7554 -1.1955
 5634SOL    HW222223   6.350   2.357  11.610 -3.8517  1.1071 -2.3836
 5635SOL     OW22224   6.404   0.329  11.785 -0.0272 -0.3746  0.3203
 5635SOL    HW122225   6.360   0.286  11.858  0.1113 -0.5616  0.2947
 5635SOL    HW222226   6.355   0.410  11.771 -0.5259 -0.7041  0.1250
 5636SOL     OW22227   9.094   6.657  11.729 -0.0239  0.2383 -0.2598
 5636SOL    HW122228   9.067   6.581  11.781 -0.4466  1.5743  1.5599
 5636SOL    HW222229   9.012   6.700  11.705  0.2765  1.6081  1.0741
 5637SOL     OW22230   1.647   3.734  11.233 -0.2005 -0.1592 -0.3618
 5637SOL    HW122231   1.660   3.770  11.321  1.4739 -0.8547 -0.2834
 5637SOL    HW222232   1.585   3.662  11.245  0.2368 -0.4334  0.2993
 5638SOL     OW22233   5.585   9.891   0.620  0.2796 -0.0228 -0.5093
 5638SOL    HW122234   5.673   9.895   0.657  0.3260  1.9500 -0.6995
 5638SOL    HW222235   5.538   9.961   0.665 -1.2425 -1.0995 -0.3529
 5639SOL     OW22236   3.185   1.686   3.744  0.1887  0.0210  0.4929
 5639SOL    HW122237   3.267   1.689   3.794  0.4860 -0.4569  0.0377
 5639SOL    HW222238   3.123   1.646   3.805  0.0882  1.0740  1.1100
 5640SOL     OW22239   9.575   4.028   1.311 -0.0015 -0.0151  0.2299
 5640SOL    HW122240   9.607   4.032   1.221  0.5959  4.5835  0.3937
 5640SOL    HW222241   9.641   4.074   1.362 -2.0764  0.8664  2.3264
 5641SOL     OW22242  11.669   9.147   8.190 -0.0371 -0.1829 -0.1133
 5641SOL    HW122243  11.646   9.232   8.154  1.4301 -0.2605 -1.3671
 5641SOL    HW222244  11.690   9.165   8.282  0.0769  0.7813 -0.3143
 5642SOL     OW22245   2.782  10.238   1.694 -0.1615 -0.1209 -0.0569
 5642SOL    HW122246   2.848  10.169   1.697  0.5447  0.3444 -2.7927
 5642SOL    HW222247   2.803  10.295   1.769  2.9628  0.3539 -1.1687
 5643SOL     OW22248   6.332   9.364   7.075 -0.2265  0.2025 -0.2925
 5643SOL    HW122249   6.346   9.458   7.061 -0.8900  0.1506 -1.3461
 5643SOL    HW222250   6.237   9.353   7.077 -0.1631 -0.3265  0.7547
 5644SOL     OW22251   2.739   8.022   6.205  0.3221 -0.3278 -0.5862
 5644SOL    HW122252   2.814   7.981   6.248 -0.2924  0.8377  1.7761
 5644SOL    HW222253   2.715   7.962   6.134  2.2751 -1.6640 -0.1786
 5645SOL     OW22254   1.452  11.692   4.114  0.6803 -0.1348  0.1943
 5645SOL    HW122255   1.424  11.609   4.076  0.2067  0.0151  0.2097
 5645SOL    HW222256   1.445  11.679   4.209  0.6271 -0.0808  0.1973
 5646SOL     OW22257   4.015   8.246   6.625  0.2537  0.3140  0.2359
 5646SOL    HW122258   3.940   8.304   6.609 -0.2783 -0.5049 -0.3528
 5646SOL    HW222259   4.029   8.251   6.720 -0.9367  0.0328  0.4504
 5647SOL     OW22260   6.913   3.246   8.709 -0.2282 -0.2409 -0.1226
 5647SOL    HW122261   6.851   3.259   8.637 -0.4689 -0.5808  0.0191
 5647SOL    HW222262   6.993   3.214   8.668  0.0244  0.6523 -0.3622
 5648SOL     OW22263   8.831   2.153   4.832 -0.5295 -0.5076  0.6882
 5648SOL    HW122264   8.749   2.198   4.814 -0.3209  0.1916  1.4059
 5648SOL    HW222265   8.809   2.088   4.898 -1.2338 -2.8772 -1.6768
 5649SOL     OW22266   7.913   2.877   5.381 -0.3047  0.5842  0.7205
 5649SOL    HW122267   7.922   2.785   5.354  1.6061  0.7267  0.7528
 5649SOL    HW222268   7.904   2.873   5.476 -0.9226  0.4003  0.6576
 5650SOL     OW22269  10.800  11.302   7.778  0.4150  0.2289  0.1046
 5650SOL    HW122270  10.871  11.326   7.718  0.3781 -2.0614 -0.9676
 5650SOL    HW222271  10.845  11.270   7.856  0.7558 -2.6533 -1.1327
 5651SOL     OW22272   4.181   6.529   1.040  0.5306 -0.2642  0.0450
 5651SOL    HW122273   4.160   6.616   1.009  0.5323 -0.4643 -0.5283
 5651SOL    HW222274   4.189   6.476   0.960  3.2232 -0.1947  0.1620
 5652SOL     OW22275   4.437   1.502   3.831 -0.4657 -0.4982 -0.0267
 5652SOL    HW122276   4.467   1.580   3.877 -1.7994 -0.0114  0.0650
 5652SOL    HW222277   4.468   1.429   3.884 -1.5847  0.0422  1.4044
 5653SOL     OW22278   5.335   5.006  11.792 -0.4021 -0.5589  0.0773
 5653SOL    HW122279   5.344   5.037  11.882  1.3011  1.7890 -0.7840
 5653SOL    HW222280   5.259   5.053  11.758  0.0234 -0.0540 -0.1952
 5654SOL     OW22281   4.175   2.382   6.169 -0.0119 -0.0467  0.5848
 5654SOL    HW122282   4.142   2.293   6.183 -1.8673  0.5398  0.2608
 5654SOL    HW222283   4.254   2.371   6.116 -0.6269 -1.4614 -0.0870
 5655SOL     OW22284   6.721   0.499   6.670 -0.2460  0.0036  0.5584
 5655SOL    HW122285   6.734   0.470   6.760 -0.0989  0.2498  0.6176
 5655SOL    HW222286   6.634   0.539   6.669 -1.1444 -1.8434  0.1138
 5656SOL     OW22287   4.207   8.202   4.938  0.0320 -0.2263  0.2733
 5656SOL    HW122288   4.242   8.169   5.021 -0.7828  0.1410  0.7792
 5656SOL    HW222289   4.142   8.136   4.912  0.0245 -0.1575  0.1167
 5657SOL     OW22290   5.453   3.301   8.861  0.1111  0.1864 -0.0642
 5657SOL    HW122291   5.368   3.333   8.832 -0.4550 -1.4359 -0.3286
 5657SOL    HW222292   5.446   3.297   8.957 -0.2984 -0.3846 -0.1112
 5658SOL     OW22293  11.545  10.062   8.783 -0.1595 -0.6267  0.5039
 5658SOL    HW122294  11.514  10.153   8.779 -2.1782 -1.2748  0.4205
 5658SOL    HW222295  11.573  10.050   8.874 -0.2985 -0.0496  0.6292
 5659SOL     OW22296   6.060  10.785   2.615 -0.8160 -0.3316  0.2120
 5659SOL    HW122297   6.140  10.836   2.601 -1.4034  0.3855 -0.6461
 5659SOL    HW222298   6.025  10.818   2.698 -0.9343  0.3357 -0.0955
 5660SOL     OW22299   6.914   2.530   5.053  0.0376  0.0587  0.1748
 5660SOL    HW122300   6.857   2.606   5.061 -1.1299 -0.8225  0.4588
 5660SOL    HW222301   6.955   2.539   4.967  1.5888  2.0977  1.0286
 5661SOL     OW22302   0.475   8.522   4.905 -0.0185 -0.2103  0.3960
 5661SOL    HW122303   0.393   8.564   4.931 -0.0160  0.3667 -0.4865
 5661SOL    HW222304   0.449   8.433   4.880 -0.5420  0.2293 -0.7123
 5662SOL     OW22305   5.816   3.933   9.043 -0.4405 -0.6114  0.4250
 5662SOL    HW122306   5.837   3.917   8.951 -3.0889  1.4210 -0.6412
 5662SOL    HW222307   5.770   3.854   9.071  1.3834 -1.7349  0.4496
 5663SOL     OW22308   4.395   1.910   0.325  0.0373 -0.1457  0.2913
 5663SOL    HW122309   4.451   1.988   0.320 -0.6886  1.0025  4.9719
 5663SOL    HW222310   4.308   1.945   0.344 -0.6636 -2.0812  0.8090
 5664SOL     OW22311  11.590   9.692   9.993 -1.0001 -0.2234  0.3578
 5664SOL    HW122312  11.551   9.661   9.911 -4.2944  0.0770  1.6615
 5664SOL    HW222313  11.602   9.786   9.979  1.8434 -0.6606 -0.9118
 5665SOL     OW22314   7.229   0.333   8.617  0.5282 -0.0428 -0.2100
 5665SOL    HW122315   7.261   0.403   8.560  0.5378 -1.0043 -1.4337
 5665SOL    HW222316   7.159   0.291   8.566 -0.1472 -0.3047  0.9044
 5666SOL     OW22317  10.502   2.239   1.098 -0.5249  0.3616  0.3048
 5666SOL    HW122318  10.579   2.255   1.044 -1.0017  1.5106 -0.0618
 5666SOL    HW222319  10.471   2.326   1.123 -1.4666 -0.0931  0.7785
 5667SOL     OW22320  11.469   0.741   0.499  0.1316  0.3463  0.7319
 5667SOL    HW122321  11.503   0.660   0.460 -0.3999  0.3607  0.2352
 5667SOL    HW222322  11.444   0.795   0.424  0.7663  1.0977  1.0572
 5668SOL     OW22323   0.195   1.287   3.200 -0.4216  0.0958  0.3868
 5668SOL    HW122324   0.181   1.199   3.235  5.3609 -0.6717  1.8196
 5668SOL    HW222325   0.191   1.344   3.276 -3.3254  1.1209 -0.4180
 5669SOL     OW22326   3.124   5.966   7.043  0.2246 -0.6749  0.2573
 5669SOL    HW122327   3.047   6.012   7.010 -0.1590  1.0261  3.1664
 5669SOL    HW222328   3.155   5.915   6.968 -1.1218  1.9788 -2.3514
 5670SOL     OW22329   5.334   1.150   8.654 -0.2537 -0.0010 -0.1252
 5670SOL    HW122330   5.413   1.199   8.676  0.6817 -1.1972 -0.7153
 5670SOL    HW222331   5.273   1.169   8.726  1.2544 -0.5676  1.3597
 5671SOL     OW22332   4.515   2.861   2.997  0.2103 -0.1747 -0.0835
 5671SOL    HW122333   4.514   2.813   3.080  0.5381  1.9664  1.2303
 5671SOL    HW222334   4.480   2.947   3.018 -2.1665 -0.3406 -2.7511
 5672SOL     OW22335   0.035   3.947   2.604 -0.5501 -0.6371  0.8480
 5672SOL    HW122336   0.088   3.877   2.565 -0.4232  0.7994 -1.8034
 5672SOL    HW222337  -0.056   3.918   2.592 -0.4982 -0.3983 -0.2005
 5673SOL     OW22338   0.341   3.440   7.996 -0.0219  0.0773  0.2911
 5673SOL    HW122339   0.285   3.396   7.931 -0.8906 -0.1796  1.1832
 5673SOL    HW222340   0.407   3.485   7.944 -1.3657  0.8241 -0.8530
 5674SOL     OW22341   9.780   8.673   9.164 -0.1917 -0.1154 -0.4076
 5674SOL    HW122342   9.729   8.686   9.084  0.1717  0.3588 -0.5706
 5674SOL    HW222343   9.802   8.762   9.193  0.5671 -0.3116 -0.3673
 5675SOL     OW22344   3.405   7.840   1.615 -0.0402 -0.5627  0.4611
 5675SOL    HW122345   3.435   7.806   1.531 -0.6789 -0.1981  0.0800
 5675SOL    HW222346   3.324   7.792   1.633 -0.6437  0.3210  0.1961
 5676SOL     OW22347   7.223   9.963   8.990 -0.0314  0.3099  0.3683
 5676SOL    HW122348   7.302   9.909   8.992  1.7145  2.1840 -4.1060
 5676SOL    HW222349   7.245  10.040   9.041  1.7458  1.3745 -1.8009
 5677SOL     OW22350   7.901   3.230  11.715  0.0667 -0.6005 -0.6101
 5677SOL    HW122351   7.872   3.216  11.805  0.5902  0.8764 -0.1812
 5677SOL    HW222352   7.831   3.193  11.662 -0.3812 -1.2520  0.3965
 5678SOL     OW22353   5.357   9.082   3.498  0.1255  0.0130  0.1501
 5678SOL    HW122354   5.314   9.020   3.439  3.1382 -2.4702  0.2630
 5678SOL    HW222355   5.407   9.140   3.440 -0.4833  0.5655  0.1600
 5679SOL     OW22356   0.910   9.469   1.029  0.4480  0.0046  0.5154
 5679SOL    HW122357   0.930   9.561   1.011  0.4683  0.3285  2.0896
 5679SOL    HW222358   0.823   9.455   0.991  1.1025  0.2133 -1.1384
 5680SOL     OW22359   1.163   1.164  10.307 -0.4148  0.4559  0.1718
 5680SOL    HW122360   1.145   1.220  10.231 -0.0540  0.8041  0.3398
 5680SOL    HW222361   1.145   1.221  10.382  1.1266  0.7387  0.3535
 5681SOL     OW22362   2.901  11.097   5.142 -0.0025  0.3994  0.7678
 5681SOL    HW122363   2.934  11.143   5.220 -0.7138  0.7055  0.8915
 5681SOL    HW222364   2.806  11.105   5.147 -0.0377  1.6529 -0.8570
 5682SOL     OW22365   4.588   5.248   3.634  0.5365 -0.0242 -0.3068
 5682SOL    HW122366   4.502   5.290   3.643  0.5168  0.2213 -1.5524
 5682SOL    HW222367   4.650   5.316   3.659  0.3669 -0.4785  1.5126
 5683SOL     OW22368  11.075   4.660   3.426 -0.0817 -0.6821 -0.0776
 5683SOL    HW122369  11.073   4.706   3.510  0.5631  3.0705 -1.9073
 5683SOL    HW222370  10.987   4.671   3.390  0.5233  0.7190 -1.2408
 5684SOL     OW22371   1.331   1.621   5.210  0.1597 -0.3157 -0.3357
 5684SOL    HW122372   1.329   1.708   5.169  1.5810 -0.5260 -0.9192
 5684SOL    HW222373   1.332   1.638   5.304 -3.3492  0.1809 -0.2574
 5685SOL     OW22374  10.466   1.895   9.981 -0.2840 -0.2651 -0.1443
 5685SOL    HW122375  10.510   1.831   9.925 -0.1262  1.1311 -1.6971
 5685SOL    HW222376  10.458   1.851  10.066  0.1640 -2.1734 -1.0293
 5686SOL     OW22377  10.144  10.047   5.490  0.2128 -0.2011 -1.2046
 5686SOL    HW122378  10.176  10.102   5.561 -0.1804 -0.1832 -1.0429
 5686SOL    HW222379  10.057  10.082   5.470  0.4667  0.0372 -1.9454
 5687SOL     OW22380   0.608   1.746   4.906 -0.4249  0.3088  0.0738
 5687SOL    HW122381   0.652   1.830   4.905 -0.1206  0.1384 -0.6207
 5687SOL    HW222382   0.517   1.767   4.930 -0.1521  0.7331  0.7498
 5688SOL     OW22383   8.999   7.146   5.419 -0.0835 -0.2044  0.0344
 5688SOL    HW122384   9.069   7.137   5.354 -0.2214 -2.3305  0.1256
 5688SOL    HW222385   9.044   7.156   5.503  0.1564 -1.5245  0.0860
 5689SOL     OW22386   3.821   4.556   7.536 -0.6714 -0.2313 -0.7673
 5689SOL    HW122387   3.788   4.470   7.563 -1.0914 -0.3796 -1.7283
 5689SOL    HW222388   3.742   4.606   7.513 -0.3270 -0.0983 -1.6778
 5690SOL     OW22389   0.433   4.420   9.440 -0.0594 -0.0953  0.5577
 5690SOL    HW122390   0.452   4.488   9.376 -2.2065  0.5354  0.5063
 5690SOL    HW222391   0.506   4.358   9.432  0.6598  0.9036 -1.1729
 5691SOL     OW22392   6.810   4.409   4.758 -0.2772  0.2770 -0.0973
 5691SOL    HW122393   6.771   4.497   4.761  0.4093  0.6122 -0.7443
 5691SOL    HW222394   6.847   4.402   4.670  0.9512 -0.1135  0.4409
 5692SOL     OW22395   9.400   0.067   4.132 -0.0681 -0.5971  0.3006
 5692SOL    HW122396   9.426  -0.017   4.094  0.3284 -0.1783 -0.3613
 5692SOL    HW222397   9.464   0.084   4.200  0.3681 -0.4203 -0.1467
 5693SOL     OW22398   7.497  11.230   8.185  0.2949 -0.0852  0.3903
 5693SOL    HW122399   7.507  11.176   8.107  2.8008  0.0777  0.5336
 5693SOL    HW222400   7.496  11.167   8.258  0.6701 -0.0933  0.3914
 5694SOL     OW22401  11.371   1.478  10.969 -0.1884 -0.1407 -0.1822
 5694SOL    HW122402  11.334   1.403  11.017 -1.4927  1.2520  1.1121
 5694SOL    HW222403  11.294   1.521  10.931  0.2615  1.6826  0.8485
 5695SOL     OW22404   7.579   3.083   9.297  0.3638  0.3504  0.1348
 5695SOL    HW122405   7.577   3.005   9.353  2.0674  0.6422  0.6683
 5695SOL    HW222406   7.669   3.116   9.307  0.2404  1.2727 -1.6016
 5696SOL     OW22407   8.721   7.603   8.572  0.3397  0.2626 -0.1490
 5696SOL    HW122408   8.718   7.699   8.576 -1.2233  0.2398 -0.1740
 5696SOL    HW222409   8.655   7.580   8.507 -0.2041 -0.8906  0.7773
 5697SOL     OW22410   2.246   4.362   7.059 -0.2167  0.1975  0.5118
 5697SOL    HW122411   2.171   4.355   7.118 -1.6337  0.7187 -1.1519
 5697SOL    HW222412   2.244   4.281   7.008  2.7249 -1.6524  2.9522
 5698SOL     OW22413   6.981   5.004   8.182  0.3291  0.2426  0.4404
 5698SOL    HW122414   6.969   5.099   8.179 -1.2367  0.0585 -1.8103
 5698SOL    HW222415   6.924   4.975   8.253  0.8742  0.9698  1.1911
 5699SOL     OW22416   3.765   7.490   2.073 -0.0911 -0.2489 -0.4909
 5699SOL    HW122417   3.737   7.580   2.056 -0.4098 -0.3361 -0.4320
 5699SOL    HW222418   3.859   7.497   2.086 -0.1370  0.1029 -0.3200
 5700SOL     OW22419   7.634  10.233   5.799  0.1484  0.1979  0.1574
 5700SOL    HW122420   7.718  10.277   5.788 -0.1486  0.8592  0.4179
 5700SOL    HW222421   7.638  10.157   5.741  1.0561  0.0173  0.4459
 5701SOL     OW22422   1.136  10.668   4.708  0.2329  0.4787 -0.2420
 5701SOL    HW122423   1.229  10.687   4.697  0.5357 -0.2670  0.9509
 5701SOL    HW222424   1.094  10.713   4.634  1.3420  2.2425  0.1537
 5702SOL     OW22425   1.114  11.271   6.257  0.7285  0.0093 -0.4867
 5702SOL    HW122426   1.202  11.271   6.294  0.7534 -0.1193 -0.5452
 5702SOL    HW222427   1.126  11.294   6.165  0.7677 -0.6319 -0.6451
 5703SOL     OW22428   0.516   8.309   2.058  0.0891  0.1293  0.3975
 5703SOL    HW122429   0.480   8.305   1.969 -0.5648  0.8962  0.6178
 5703SOL    HW222430   0.584   8.377   2.054  0.7402 -0.5115  0.2633
 5704SOL     OW22431   1.394   1.233   2.945  0.4176 -0.0332 -0.0684
 5704SOL    HW122432   1.383   1.282   3.026 -2.7039 -0.6078 -0.0296
 5704SOL    HW222433   1.357   1.289   2.877 -3.7656 -2.2784  0.0490
 5705SOL     OW22434   5.464   8.901  10.982  0.5490 -0.0819 -0.0570
 5705SOL    HW122435   5.537   8.840  10.998 -0.1314 -1.3184 -1.3820
 5705SOL    HW222436   5.419   8.907  11.066  0.2406 -2.0163 -0.0324
 5706SOL     OW22437   2.287   5.285   0.068  0.2274  0.4049  0.2757
 5706SOL    HW122438   2.272   5.194   0.093  0.3452  0.0006 -1.0696
 5706SOL    HW222439   2.374   5.305   0.102  0.6935 -0.3674 -0.4417
 5707SOL     OW22440   4.581   6.743   8.732  0.3996 -0.2862 -0.6467
 5707SOL    HW122441   4.550   6.817   8.783  0.9989 -0.7789  0.4707
 5707SOL    HW222442   4.670   6.766   8.708 -0.3419  0.6012 -2.8274
 5708SOL     OW22443   7.975   4.171   8.540 -0.4731  0.0239  0.0350
 5708SOL    HW122444   7.950   4.086   8.505  1.0218  0.1071 -1.3684
 5708SOL    HW222445   8.032   4.209   8.473  2.3172  0.3503  2.3935
 5709SOL     OW22446  11.285   9.677   3.874  0.3661  0.1666 -0.3173
 5709SOL    HW122447  11.284   9.712   3.963 -2.0075 -2.4063  0.8000
 5709SOL    HW222448  11.216   9.724   3.828  0.1270 -0.0033 -0.1332
 5710SOL     OW22449   2.791  11.431   9.868 -0.2616  0.1703  0.0440
 5710SOL    HW122450   2.743  11.508   9.898 -0.3332 -0.1693  0.8342
 5710SOL    HW222451   2.880  11.462   9.851  0.3615 -0.0074  2.6287
 5711SOL     OW22452  10.527   7.399   9.941  0.2377  0.0261  0.1035
 5711SOL    HW122453  10.469   7.325   9.921  1.1325 -0.9457  1.0376
 5711SOL    HW222454  10.514   7.459   9.867 -1.6470 -0.3387  0.0766
 5712SOL     OW22455   2.487  10.564  10.938 -0.1425  0.3418 -0.0551
 5712SOL    HW122456   2.406  10.553  10.888 -1.0103  1.5922  1.0003
 5712SOL    HW222457   2.461  10.551  11.029  1.0859 -0.3345  0.2146
 5713SOL     OW22458  10.360   5.578   1.862 -0.9961  0.1548  0.0033
 5713SOL    HW122459  10.360   5.619   1.949 -3.9344 -0.2588  0.3284
 5713SOL    HW222460  10.273   5.537   1.856 -0.0934 -1.6116 -2.3318
 5714SOL     OW22461  11.232   2.662   9.085 -0.0336  0.1428  0.7264
 5714SOL    HW122462  11.197   2.583   9.126 -0.2776  0.2290  0.6856
 5714SOL    HW222463  11.168   2.684   9.017  1.2432 -1.0304 -0.9494
 5715SOL     OW22464   0.608   9.766   6.685  0.0131  0.1285  0.3306
 5715SOL    HW122465   0.541   9.831   6.703 -0.0512 -0.0849  0.9012
 5715SOL    HW222466   0.648   9.748   6.770  2.2572  1.8030 -0.2791
 5716SOL     OW22467   0.577   9.347   3.486 -0.3563  0.1518  0.6573
 5716SOL    HW122468   0.595   9.336   3.393 -0.9257  0.1435  0.5485
 5716SOL    HW222469   0.487   9.379   3.490  0.4595  2.6499  1.0544
 5717SOL     OW22470   2.889   7.881   6.393 -0.3717  0.2676  0.1235
 5717SOL    HW122471   2.858   7.791   6.404 -3.3220  0.9009 -1.7429
 5717SOL    HW222472   2.878   7.921   6.479  1.1203 -1.1263  1.0152
 5718SOL     OW22473   0.161   5.772   0.076  0.0755 -0.0191 -0.2507
 5718SOL    HW122474   0.206   5.855   0.063 -2.0237  1.2710  0.1392
 5718SOL    HW222475   0.117   5.755  -0.007  0.3730 -0.6582 -0.2786
 5719SOL     OW22476   7.792   9.411  10.882  0.3855  0.1367 -0.6774
 5719SOL    HW122477   7.832   9.324  10.882  0.9651  0.3548  1.1361
 5719SOL    HW222478   7.705   9.398  10.918  1.0294  0.4756  1.1164
 5720SOL     OW22479   6.799   1.621   6.149  0.3339 -0.6113 -0.1425
 5720SOL    HW122480   6.848   1.547   6.114  2.5266  0.1400  1.1086
 5720SOL    HW222481   6.780   1.597   6.240 -1.6871 -0.8641 -0.5760
 5721SOL     OW22482   9.419   8.880   0.432  0.0634  0.0568 -0.1731
 5721SOL    HW122483   9.401   8.793   0.397  0.7937 -0.9917  1.9163
 5721SOL    HW222484   9.346   8.899   0.490  0.0983  0.6906 -0.3233
 5722SOL     OW22485   9.270   5.270   3.482  0.3435 -0.1043  0.3821
 5722SOL    HW122486   9.320   5.270   3.400 -0.4166  1.7144 -0.1316
 5722SOL    HW222487   9.212   5.194   3.474  0.3743 -0.0301 -0.7300
 5723SOL     OW22488  10.503   0.772   9.738 -0.0671 -0.1875  0.3011
 5723SOL    HW122489  10.438   0.842   9.742 -0.6752 -0.6715 -0.8071
 5723SOL    HW222490  10.451   0.692   9.732  0.6342 -0.6522  0.3449
 5724SOL     OW22491   4.304   4.290   1.253  0.2800 -0.2396 -0.5810
 5724SOL    HW122492   4.355   4.345   1.311 -1.3431  1.1190 -0.3767
 5724SOL    HW222493   4.272   4.349   1.185 -3.2637 -0.3535  0.7792
 5725SOL     OW22494   9.115   6.265   7.607  0.2352  0.3706 -0.2303
 5725SOL    HW122495   9.108   6.308   7.692  0.7438 -0.1856  0.1013
 5725SOL    HW222496   9.185   6.201   7.619  0.4828  0.4582 -1.1401
 5726SOL     OW22497   1.781   6.764   2.574 -0.1498 -0.7318 -0.3392
 5726SOL    HW122498   1.777   6.668   2.576  2.1197 -0.8578  1.5528
 5726SOL    HW222499   1.848   6.787   2.637  0.0047  2.1073 -1.3903
 5727SOL     OW22500   8.461   0.579   0.320  0.3261 -0.1837  0.0131
 5727SOL    HW122501   8.384   0.554   0.372 -2.0822  1.7944 -2.2850
 5727SOL    HW222502   8.506   0.497   0.303 -0.7429 -1.3313  2.1630
 5728SOL     OW22503   0.675   2.560   9.990  0.0890 -0.0616  0.1257
 5728SOL    HW122504   0.766   2.553   9.960  0.2991 -0.6836  0.8696
 5728SOL    HW222505   0.679   2.613  10.069 -0.1553 -0.3164  0.3142
 5729SOL     OW22506   5.109   5.168   9.282  0.3598  0.5121 -0.3178
 5729SOL    HW122507   5.189   5.219   9.266 -0.2338  0.8724 -2.3207
 5729SOL    HW222508   5.138   5.077   9.283  0.7770  0.6290 -1.2244
 5730SOL     OW22509  10.467   1.480   1.817 -0.2250 -0.1153 -0.1321
 5730SOL    HW122510  10.426   1.414   1.873 -0.7812 -0.7233 -1.2164
 5730SOL    HW222511  10.462   1.443   1.729  2.9027 -0.3197 -0.3258
 5731SOL     OW22512  11.820   7.072   1.347 -0.5107 -0.0215  0.1309
 5731SOL    HW122513  11.889   7.112   1.294 -0.3639 -0.7458 -0.2266
 5731SOL    HW222514  11.779   7.147   1.392  1.3679  0.3173  1.4195
 5732SOL     OW22515   0.949   1.779   3.273 -0.1214  0.0789 -0.1207
 5732SOL    HW122516   0.930   1.688   3.295 -0.5144  0.1276 -0.2515
 5732SOL    HW222517   0.923   1.787   3.181  0.8753  0.0538 -0.4110
 5733SOL     OW22518   6.501   9.433  11.730  0.0867  0.2611 -0.8376
 5733SOL    HW122519   6.505   9.363  11.664 -0.1086  0.0279 -0.6071
 5733SOL    HW222520   6.451   9.394  11.802  1.5793 -0.0242  0.0965
 5734SOL     OW22521   9.741   0.844   3.420 -0.1434  0.2234 -0.1902
 5734SOL    HW122522   9.757   0.773   3.359  2.0767  1.0542 -0.6923
 5734SOL    HW222523   9.786   0.817   3.500 -0.4695  0.4553  0.0723
 5735SOL     OW22524   0.920   9.537  11.181 -0.2660  0.5723  0.0766
 5735SOL    HW122525   0.892   9.476  11.249 -1.4066  1.7060  0.6733
 5735SOL    HW222526   0.948   9.481  11.108 -0.8241 -0.6466  0.7720
 5736SOL     OW22527   4.607   9.372   2.395  0.0253  0.2684 -0.1728
 5736SOL    HW122528   4.542   9.423   2.443  0.8341  0.5799  0.6057
 5736SOL    HW222529   4.618   9.292   2.446  0.9362  0.6305  0.2225
 5737SOL     OW22530   5.225  11.129  10.326  0.1210  0.1570  0.2001
 5737SOL    HW122531   5.266  11.053  10.370  0.1347  1.3077  2.3216
 5737SOL    HW222532   5.147  11.147  10.378  1.1290  2.7360  0.9988
 5738SOL     OW22533   3.465   2.454   7.101  0.3601  0.7497 -0.3149
 5738SOL    HW122534   3.395   2.414   7.154 -0.2062  1.3945 -0.5594
 5738SOL    HW222535   3.534   2.475   7.164  1.8987 -3.0316 -0.4742
 5739SOL     OW22536   4.812   1.336   9.039  0.1711 -0.3041 -1.1549
 5739SOL    HW122537   4.832   1.270   8.973  2.0938 -1.7573  0.7328
 5739SOL    HW222538   4.777   1.287   9.113 -0.6178  1.1024 -0.5600
 5740SOL     OW22539   5.522   4.528  10.106 -0.4670 -0.3274 -0.0393
 5740SOL    HW122540   5.498   4.566  10.022 -0.4721 -0.8908 -0.2995
 5740SOL    HW222541   5.488   4.439  10.103  0.6350 -0.7697  0.0450
 5741SOL     OW22542   9.382  10.112   8.391  0.2615 -0.1147 -0.2255
 5741SOL    HW122543   9.395  10.092   8.299 -0.5266  0.0402 -0.3727
 5741SOL    HW222544   9.314  10.179   8.393 -2.0291 -2.3116  0.5877
 5742SOL     OW22545   5.526  10.868  10.091 -0.2047 -0.2925  0.2188
 5742SOL    HW122546   5.486  10.948  10.125  0.7265  0.5711 -0.6565
 5742SOL    HW222547   5.503  10.867   9.998  0.6763 -0.4676 -0.0100
 5743SOL     OW22548   1.691   8.943   0.326 -0.1823  1.0224  0.1988
 5743SOL    HW122549   1.620   8.890   0.361  0.4846  0.8700  1.3692
 5743SOL    HW222550   1.712   9.005   0.396 -0.3469  2.2707 -0.8068
 5744SOL     OW22551   8.461   0.886   5.562  0.0240  0.5131 -0.2347
 5744SOL    HW122552   8.460   0.940   5.483 -1.4768 -0.7929 -1.1764
 5744SOL    HW222553   8.553   0.883   5.588  0.5173  1.1990 -1.7716
 5745SOL     OW22554  10.931   7.598   3.233  0.3591  0.2110  0.3559
 5745SOL    HW122555  10.853   7.635   3.192  0.3672  1.7390  1.6507
 5745SOL    HW222556  11.004   7.649   3.197  0.6838 -0.5266 -0.0613
 5746SOL     OW22557   6.083   4.167   3.032 -0.2930 -0.5209 -0.3361
 5746SOL    HW122558   6.139   4.090   3.038  0.3396 -0.0916 -0.5887
 5746SOL    HW222559   6.139   4.239   3.062 -1.5427 -0.4463  2.0533
 5747SOL     OW22560   8.209   9.442   9.803 -0.1069 -0.2625  0.1912
 5747SOL    HW122561   8.185   9.514   9.862  1.0604 -1.0065  1.6580
 5747SOL    HW222562   8.192   9.475   9.715 -1.2614  1.1519  0.9061
 5748SOL     OW22563   8.777   1.970   2.032 -0.3118 -1.0430 -0.1642
 5748SOL    HW122564   8.690   1.982   2.070 -0.3089  0.9992 -0.6664
 5748SOL    HW222565   8.765   1.988   1.939  0.4159 -2.0864 -0.4771
 5749SOL     OW22566   8.531  10.093   6.196  0.1608  0.4169  0.5383
 5749SOL    HW122567   8.513  10.022   6.134 -0.5509 -1.1797  2.4545
 5749SOL    HW222568   8.622  10.081   6.223 -0.1934 -0.3223  1.4698
 5750SOL     OW22569   1.373   4.260   6.148 -0.5152  0.2548  0.0531
 5750SOL    HW122570   1.390   4.251   6.242  0.3664 -0.2086 -0.1467
 5750SOL    HW222571   1.432   4.329   6.119  0.5449 -0.8505 -0.4996
 5751SOL     OW22572   7.385   9.114   9.041 -0.4836 -0.5777 -0.6728
 5751SOL    HW122573   7.384   9.043   8.977 -3.0037  0.0247 -1.4261
 5751SOL    HW222574   7.307   9.099   9.094  0.0811  0.4874  0.5012
 5752SOL     OW22575   7.983   8.485   7.815 -0.4132 -0.2406 -0.3531
 5752SOL    HW122576   8.011   8.542   7.744  0.3564  0.1286  0.2283
 5752SOL    HW222577   8.064   8.446   7.848 -0.2997  1.8528  2.2207
 5753SOL     OW22578   5.476   2.905   7.292 -0.1469 -0.1971  0.2106
 5753SOL    HW122579   5.474   2.879   7.384  0.6382  0.1738  0.3362
 5753SOL    HW222580   5.512   2.993   7.292 -1.1445  0.2343 -0.3697
 5754SOL     OW22581   7.757   1.597   1.609 -0.4125 -0.2609  0.3485
 5754SOL    HW122582   7.677   1.647   1.627 -1.7158 -2.5055  1.2326
 5754SOL    HW222583   7.752   1.577   1.516 -0.0822  0.8372  0.0748
 5755SOL     OW22584   7.707   4.307   8.215  0.5430 -0.6354 -0.1934
 5755SOL    HW122585   7.674   4.319   8.304  2.7743 -0.1181  0.6378
 5755SOL    HW222586   7.649   4.242   8.176  1.3429 -3.3431  2.7314
 5756SOL     OW22587   5.402  11.140  10.101  0.2540  0.1033  0.1976
 5756SOL    HW122588   5.343  11.145  10.176 -0.8766 -1.9780 -0.4680
 5756SOL    HW222589   5.365  11.202  10.038 -0.2798 -0.0014  0.4047
 5757SOL     OW22590   1.494   6.331   9.168  0.1468  0.5970  0.0650
 5757SOL    HW122591   1.493   6.240   9.138 -0.0693  0.9034 -0.8851
 5757SOL    HW222592   1.484   6.383   9.088 -0.7482  1.4365  0.6936
 5758SOL     OW22593   6.691   3.689  11.110  0.6064  0.2101 -0.0203
 5758SOL    HW122594   6.747   3.715  11.037  0.7816 -0.9905 -0.3364
 5758SOL    HW222595   6.605   3.725  11.088  0.1166 -1.8982 -1.9425
 5759SOL     OW22596   5.776   7.108   6.196  0.0549  0.1866 -0.7026
 5759SOL    HW122597   5.783   7.190   6.245 -1.6424  0.1695 -0.3575
 5759SOL    HW222598   5.819   7.125   6.113  0.9896  0.9506 -0.0747
 5760SOL     OW22599   7.275   9.887   5.681 -0.0279 -0.3842 -0.1078
 5760SOL    HW122600   7.223   9.834   5.621 -1.3211  0.9929 -0.2586
 5760SOL    HW222601   7.360   9.896   5.637  0.1933 -2.1918 -0.1150
 5761SOL     OW22602   6.550   5.620   5.306 -0.1796  0.0934 -0.5720
 5761SOL    HW122603   6.454   5.621   5.296 -0.0691  1.0177 -1.7291
 5761SOL    HW222604   6.579   5.544   5.255 -0.3023 -0.2665 -0.1098
 5762SOL     OW22605   8.863   4.463   3.851  0.1188  0.2713  0.4931
 5762SOL    HW122606   8.926   4.397   3.822  0.2786  0.6614 -0.0842
 5762SOL    HW222607   8.816   4.488   3.771 -0.2730  0.5043  0.7912
 5763SOL     OW22608  10.766  10.413   4.907 -0.3320  0.1397 -0.0326
 5763SOL    HW122609  10.686  10.362   4.918 -0.0687  0.0431  1.6935
 5763SOL    HW222610  10.744  10.479   4.841 -0.8675 -1.7539 -1.8581
 5764SOL     OW22611   4.216   4.014  11.226 -0.5200 -0.2993 -0.3888
 5764SOL    HW122612   4.223   4.002  11.131  0.4111 -0.0293 -0.3631
 5764SOL    HW222613   4.175   4.100  11.236 -1.9568 -0.9342 -0.5371
 5765SOL     OW22614  10.402   6.821  10.325  1.3391  0.0285  1.0285
 5765SOL    HW122615  10.338   6.887  10.349  1.2574  0.5088 -0.4155
 5765SOL    HW222616  10.361   6.737  10.348  0.2116  0.3296  0.1999
 5766SOL     OW22617   2.114   3.933   6.848 -0.0628 -0.3169 -0.2719
 5766SOL    HW122618   2.119   3.908   6.756  0.4484 -1.2775  0.0114
 5766SOL    HW222619   2.169   3.869   6.894 -0.8296 -0.2453  0.7773
 5767SOL     OW22620   9.218   4.848   8.027  0.2267 -0.6102 -0.3037
 5767SOL    HW122621   9.169   4.767   8.039 -0.3857 -0.2807 -0.5477
 5767SOL    HW222622   9.177   4.910   8.088  0.8553 -0.5513  0.0658
 5768SOL     OW22623   6.193   8.808   1.028  0.0177  0.2407 -0.2665
 5768SOL    HW122624   6.101   8.803   1.053 -0.4283  0.6783 -1.6845
 5768SOL    HW222625   6.218   8.717   1.010 -0.1415  0.1229  0.1027
 5769SOL     OW22626   4.166   4.044   6.943  0.0589 -0.2868  0.4796
 5769SOL    HW122627   4.224   4.114   6.972  1.4131 -1.7703  1.5206
 5769SOL    HW222628   4.172   3.978   7.012 -1.5555 -1.2309 -0.2304
 5770SOL     OW22629   7.079  11.108   6.905  0.2129 -0.0279 -0.1688
 5770SOL    HW122630   7.143  11.174   6.881  0.9233 -1.0926 -1.3435
 5770SOL    HW222631   7.007  11.119   6.843  1.1531 -1.4869 -1.5996
 5771SOL     OW22632   2.634   5.387   1.573  0.1110 -0.1490 -0.1042
 5771SOL    HW122633   2.665   5.466   1.529 -0.1934  0.7451  1.2290
 5771SOL    HW222634   2.664   5.315   1.517  1.1621  0.8590 -0.8801
 5772SOL     OW22635  11.429   1.469   6.666  0.4406  0.1273 -0.1265
 5772SOL    HW122636  11.464   1.501   6.583  2.0130 -1.2368 -0.0488
 5772SOL    HW222637  11.395   1.547   6.710  1.8129  1.2592 -1.0064
 5773SOL     OW22638   7.652   2.284   4.456  0.1040  0.0958 -0.0526
 5773SOL    HW122639   7.580   2.258   4.398 -0.1894  0.7804 -0.0045
 5773SOL    HW222640   7.620   2.363   4.500 -0.3407 -1.3098  2.3150
 5774SOL     OW22641   5.437   6.291  11.164  0.0459 -0.4886 -0.2246
 5774SOL    HW122642   5.370   6.269  11.099  0.1698 -3.0046  0.3996
 5774SOL    HW222643   5.518   6.256  11.127  0.5923  0.3880  0.1256
 5775SOL     OW22644   6.009   4.720   6.860 -0.0549 -0.0983  0.1063
 5775SOL    HW122645   6.096   4.738   6.896 -0.1846  0.8181 -0.0045
 5775SOL    HW222646   5.950   4.725   6.935 -0.0420 -0.4518  0.1386
 5776SOL     OW22647   2.611   3.493   7.253  0.0669 -0.1153 -0.4570
 5776SOL    HW122648   2.668   3.569   7.247  0.7380 -0.4658  1.1251
 5776SOL    HW222649   2.649   3.430   7.191 -1.0344  1.1003 -2.4994
 5777SOL     OW22650   1.189   5.690   8.560 -0.1463  0.0218 -0.2359
 5777SOL    HW122651   1.178   5.757   8.628 -0.2306 -0.4878  0.2637
 5777SOL    HW222652   1.109   5.695   8.508  0.0635  0.6434 -0.5054
 5778SOL     OW22653   7.582   7.602   7.703  0.1003  0.1180  0.1472
 5778SOL    HW122654   7.540   7.687   7.696 -1.3723 -0.5564  0.4471
 5778SOL    HW222655   7.662   7.610   7.651 -0.1161  1.6061  0.0175
 5779SOL     OW22656   3.716   0.000   1.171  0.5573 -0.0581 -0.5241
 5779SOL    HW122657   3.762  -0.027   1.250 -1.5491 -0.1950  0.7466
 5779SOL    HW222658   3.693  -0.082   1.127  0.4395 -0.0480 -0.4825
 5780SOL     OW22659   1.781   1.425   4.930  0.9659 -0.1545 -0.5567
 5780SOL    HW122660   1.688   1.425   4.910  0.4394 -1.5814  1.5403
 5780SOL    HW222661   1.824   1.438   4.845 -1.1047 -0.2187 -1.6748
 5781SOL     OW22662   8.119   9.267   2.963  0.6885  0.7714 -0.0186
 5781SOL    HW122663   8.166   9.194   3.002 -0.8687 -0.5908 -0.5838
 5781SOL    HW222664   8.037   9.272   3.012 -0.0991  0.8061 -1.2737
 5782SOL     OW22665  11.380   5.819   0.989 -0.3251  0.1363  0.0505
 5782SOL    HW122666  11.466   5.789   0.960  0.1231 -2.1033  3.2106
 5782SOL    HW222667  11.320   5.749   0.965 -0.3345 -0.6440  2.1308
 5783SOL     OW22668   8.752   0.852   4.114 -0.1760 -0.2480  0.1471
 5783SOL    HW122669   8.678   0.860   4.053  0.1877 -1.2159 -0.4628
 5783SOL    HW222670   8.714   0.863   4.201 -0.5498  2.1994 -0.2538
 5784SOL     OW22671   2.464   4.947   1.842  0.0021 -0.3575  0.2492
 5784SOL    HW122672   2.452   5.024   1.787 -0.7073 -2.0531 -2.1276
 5784SOL    HW222673   2.429   4.874   1.790 -0.2271 -2.1782  2.7639
 5785SOL     OW22674   9.910  11.633   9.379  0.0374  0.5277  0.2421
 5785SOL    HW122675   9.904  11.682   9.298  0.5782 -0.4124 -0.3852
 5785SOL    HW222676   9.954  11.692   9.441  0.8976  0.7526 -0.5670
 5786SOL     OW22677   5.892  10.545   5.770  0.0759 -0.1308  0.2801
 5786SOL    HW122678   5.815  10.497   5.737  0.1662  0.6719 -1.1527
 5786SOL    HW222679   5.878  10.550   5.864 -1.5858 -0.1033  0.0612
 5787SOL     OW22680  10.062   7.484  11.486 -0.3219 -0.0099  0.5726
 5787SOL    HW122681  10.108   7.455  11.565  1.8178  0.6351 -0.3465
 5787SOL    HW222682  10.101   7.569  11.466 -2.5344  0.9491  0.1229
 5788SOL     OW22683   8.189   1.222  10.106 -0.1279  0.8781 -0.3272
 5788SOL    HW122684   8.280   1.194  10.094 -0.0350  0.2301  1.4776
 5788SOL    HW222685   8.158   1.244  10.019  1.7348  1.0127 -0.9891
 5789SOL     OW22686  10.585   8.505   6.936  0.0254  0.0965  0.4623
 5789SOL    HW122687  10.508   8.523   6.882 -0.2696  0.0509  0.8642
 5789SOL    HW222688  10.639   8.584   6.928  0.7916 -0.5496 -1.2324
 5790SOL     OW22689   9.648  10.982   7.248  0.2099  0.1715 -0.0195
 5790SOL    HW122690   9.687  10.916   7.191 -0.3389  0.3179 -0.5753
 5790SOL    HW222691   9.724  11.025   7.289  0.5637 -0.8547  0.4323
 5791SOL     OW22692  10.313   0.645   4.321 -0.1714  0.1005  0.3547
 5791SOL    HW122693  10.318   0.633   4.416  0.8460 -0.3841  0.2540
 5791SOL    HW222694  10.361   0.570   4.286 -1.0125 -0.0203 -0.5631
 5792SOL     OW22695   9.638   9.275   8.156  0.4847 -0.2029 -0.2540
 5792SOL    HW122696   9.682   9.334   8.218 -0.7411 -0.1030  0.5633
 5792SOL    HW222697   9.640   9.322   8.073  2.0613 -0.2858 -0.2953
 5793SOL     OW22698   9.703   7.625   4.620 -0.0258  0.0258  0.0828
 5793SOL    HW122699   9.744   7.581   4.694 -0.5027 -0.6698 -0.0571
 5793SOL    HW222700   9.611   7.599   4.625  0.1968 -1.2937 -1.6241
 5794SOL     OW22701   3.164  11.498   9.506  0.0240 -0.1102  1.1417
 5794SOL    HW122702   3.216  11.484   9.427 -1.0878  1.8507 -0.0247
 5794SOL    HW222703   3.178  11.420   9.558  0.5692 -1.6453 -1.1419
 5795SOL     OW22704   8.319  10.369   9.570 -0.0165 -0.2799 -0.0828
 5795SOL    HW122705   8.237  10.345   9.528 -0.3140 -0.7143  0.7181
 5795SOL    HW222706   8.368  10.287   9.574  0.1484 -0.1723  0.1113
 5796SOL     OW22707  10.686   3.611   4.125 -0.4653 -0.6603 -0.0151
 5796SOL    HW122708  10.657   3.700   4.103  1.0173 -0.1606 -0.0798
 5796SOL    HW222709  10.661   3.600   4.217  0.4044  0.3143  0.3632
 5797SOL     OW22710   2.713  10.031  11.481  0.2616 -0.0844 -0.0535
 5797SOL    HW122711   2.730   9.943  11.515 -0.1308  0.0286  0.4441
 5797SOL    HW222712   2.624  10.026  11.447  0.6673 -0.2154 -1.1461
 5798SOL     OW22713   9.184   3.649  10.717  0.3482 -0.1044 -0.0881
 5798SOL    HW122714   9.206   3.740  10.736 -1.4286  0.2374  0.5405
 5798SOL    HW222715   9.159   3.650  10.625 -1.2212  0.4111  0.3105
 5799SOL     OW22716   0.522   4.481   1.010 -0.1067 -0.0471  0.2324
 5799SOL    HW122717   0.520   4.430   0.929  2.6396 -1.3292  0.8372
 5799SOL    HW222718   0.450   4.446   1.062 -0.3895 -0.9301 -0.7100
 5800SOL     OW22719   8.443   0.333   4.499 -0.2572 -0.4241 -0.6421
 5800SOL    HW122720   8.472   0.422   4.514  1.2228 -0.8940 -0.5470
 5800SOL    HW222721   8.480   0.282   4.571  0.9252 -1.4864 -1.9207
 5801SOL     OW22722   5.318   0.784   5.254 -0.5230 -0.3010 -0.4610
 5801SOL    HW122723   5.224   0.782   5.242 -1.1578 -1.6014  3.3404
 5801SOL    HW222724   5.338   0.874   5.280 -1.3168 -0.6843  1.6816
 5802SOL     OW22725   3.235  11.800   7.910 -0.4285  0.7821 -0.4798
 5802SOL    HW122726   3.326  11.774   7.918 -0.6948 -0.6869 -1.6900
 5802SOL    HW222727   3.216  11.851   7.989  0.8604 -0.6127  0.7711
 5803SOL     OW22728   1.651   3.956   3.116  0.0012  0.0506  0.2457
 5803SOL    HW122729   1.618   3.902   3.044 -0.3291  1.4638 -0.7043
 5803SOL    HW222730   1.746   3.955   3.105 -0.0823  0.8662 -0.6983
 5804SOL     OW22731  10.305   3.723  11.526 -0.1721 -0.0764 -0.1144
 5804SOL    HW122732  10.235   3.658  11.533  1.1391 -1.4766  0.6498
 5804SOL    HW222733  10.383   3.671  11.505  0.4218  1.5767 -2.3849
 5805SOL     OW22734   8.908   3.820   3.538  0.4585  0.1888 -0.2671
 5805SOL    HW122735   8.908   3.796   3.630 -1.4124  1.5545  0.1496
 5805SOL    HW222736   8.942   3.743   3.492 -3.0126 -2.3996  1.1231
 5806SOL     OW22737   6.250   6.229  10.447 -0.5834  0.3280  0.5561
 5806SOL    HW122738   6.193   6.280  10.390 -0.0819  0.5493  0.2396
 5806SOL    HW222739   6.329   6.215  10.395 -0.5683 -0.4585  0.7788
 5807SOL     OW22740   9.616   5.802  11.767 -0.1205  0.4632  0.0260
 5807SOL    HW122741   9.569   5.752  11.700  1.0470 -1.2308  0.4008
 5807SOL    HW222742   9.685   5.848  11.720  1.3856 -1.5798  0.1119
 5808SOL     OW22743   9.867   7.031  11.002 -0.2873 -0.7678  0.2802
 5808SOL    HW122744   9.884   7.108  10.948 -0.3049 -0.3540  0.8578
 5808SOL    HW222745   9.895   6.957  10.948 -0.8858 -0.4068 -0.5347
 5809SOL     OW22746   6.485   5.047   3.044 -0.2492  0.1784 -0.0293
 5809SOL    HW122747   6.426   5.014   3.112  1.6113  1.7985  2.5912
 5809SOL    HW222748   6.471   5.142   3.043  0.2156  0.2640 -1.5008
 5810SOL     OW22749   1.944   6.847   1.952  0.4720 -0.4357  0.4054
 5810SOL    HW122750   2.013   6.803   1.902  0.8765 -0.0286  0.6013
 5810SOL    HW222751   1.976   6.848   2.042 -0.1086 -0.8724  0.6235
 5811SOL     OW22752  10.279   4.950   5.540  0.1020  0.1855  0.0129
 5811SOL    HW122753  10.259   4.856   5.547 -0.3172  0.3439  1.1021
 5811SOL    HW222754  10.314   4.960   5.451 -0.3367 -0.9110 -0.3054
 5812SOL     OW22755   9.421   6.128   3.735 -0.4670  0.1910 -0.1318
 5812SOL    HW122756   9.361   6.081   3.793 -1.7937  1.2617 -0.5667
 5812SOL    HW222757   9.394   6.102   3.647  0.6705 -0.4141 -0.3154
 5813SOL     OW22758   9.429   6.627   9.341  0.2050 -0.4663  0.6461
 5813SOL    HW122759   9.514   6.666   9.362 -0.3637  0.5924  1.0485
 5813SOL    HW222760   9.449   6.559   9.277  1.1653  1.0083 -0.6965
 5814SOL     OW22761   6.524   2.790   7.374  0.6084  0.4644  0.2188
 5814SOL    HW122762   6.568   2.785   7.459  2.5193 -1.3177 -0.7668
 5814SOL    HW222763   6.592   2.821   7.314 -1.0138  2.7908 -0.5383
 5815SOL     OW22764   7.921   6.979  11.687 -0.6440  0.2149 -0.7667
 5815SOL    HW122765   7.981   7.015  11.752 -0.9014  0.6170 -0.7501
 5815SOL    HW222766   7.979   6.936  11.623 -0.3051  1.0073 -1.0069
 5816SOL     OW22767  11.238   5.102   1.684 -0.3323 -0.0696  0.1046
 5816SOL    HW122768  11.270   5.024   1.729 -1.8498 -0.5978  0.3476
 5816SOL    HW222769  11.190   5.068   1.609  0.3261  0.7203 -0.6928
 5817SOL     OW22770   4.526  10.445   2.835  0.1305 -0.7587  0.0101
 5817SOL    HW122771   4.451  10.464   2.780 -0.3288 -1.5805  0.3407
 5817SOL    HW222772   4.595  10.419   2.774 -0.7014 -2.7612 -0.1497
 5818SOL     OW22773  10.093   6.277   8.554  0.4488 -0.1303  0.3483
 5818SOL    HW122774  10.027   6.298   8.620 -0.3453  2.1437 -1.0400
 5818SOL    HW222775  10.176   6.293   8.598 -0.0708  2.1677  0.6498
 5819SOL     OW22776   0.733  10.651   7.655  0.3589 -0.3579 -0.1791
 5819SOL    HW122777   0.717  10.614   7.568 -1.2556  0.8659 -0.4492
 5819SOL    HW222778   0.668  10.610   7.711 -0.1046  0.5306 -0.0532
 5820SOL     OW22779   0.436   9.410   9.614  0.5006 -0.4928  0.0561
 5820SOL    HW122780   0.349   9.449   9.624  0.5854 -0.4932  0.8672
 5820SOL    HW222781   0.491   9.481   9.583 -0.0851 -0.8432 -1.9434
 5821SOL     OW22782   4.270   7.929   9.661 -0.1542  0.8370  0.2366
 5821SOL    HW122783   4.254   7.869   9.588 -0.3592  0.3806  0.6530
 5821SOL    HW222784   4.189   7.927   9.712 -1.0072  3.0831 -0.8544
 5822SOL     OW22785   5.729   7.765  10.823  0.2643 -0.4074 -0.0866
 5822SOL    HW122786   5.690   7.702  10.884 -1.2970  0.4725 -0.1295
 5822SOL    HW222787   5.772   7.710  10.756 -1.9868 -1.4907 -0.7277
 5823SOL     OW22788   9.757   1.626   3.026  0.3007 -0.0611 -0.4017
 5823SOL    HW122789   9.812   1.608   2.950  1.0380 -1.1267  0.3520
 5823SOL    HW222790   9.667   1.621   2.993  0.5962 -1.1199 -1.0861
 5824SOL     OW22791   4.526   6.640   9.305  0.1466 -0.0727 -0.3941
 5824SOL    HW122792   4.555   6.730   9.319 -0.2181 -0.3811  3.0323
 5824SOL    HW222793   4.607   6.592   9.288  0.8528  0.3301  1.5569
 5825SOL     OW22794   6.583   9.351   6.918  0.2703 -0.0017 -0.0536
 5825SOL    HW122795   6.509   9.379   6.972  1.1163  1.4478  0.3987
 5825SOL    HW222796   6.547   9.344   6.830 -0.5072  0.2516  0.2337
 5826SOL     OW22797  10.007   9.273   5.664  0.0977  0.1195 -0.3264
 5826SOL    HW122798  10.062   9.284   5.742 -0.4597  1.2490 -0.0657
 5826SOL    HW222799  10.042   9.337   5.602  1.3838 -1.6669 -1.5312
 5827SOL     OW22800   4.048   1.046   9.660  0.2472 -0.4521  0.3161
 5827SOL    HW122801   3.962   1.003   9.655  0.3458 -0.6354  0.1885
 5827SOL    HW222802   4.109   0.976   9.683  0.2893 -0.2291  0.9136
 5828SOL     OW22803   9.457  11.602   4.383  0.8383  0.0770 -0.0747
 5828SOL    HW122804   9.480  11.640   4.298  1.3582  0.7370  0.3487
 5828SOL    HW222805   9.362  11.588   4.379  0.2317  3.2487  0.4230
 5829SOL     OW22806   1.342   1.273   1.678 -0.4775 -0.3492  0.0404
 5829SOL    HW122807   1.407   1.204   1.690  0.0899  0.2485  0.4594
 5829SOL    HW222808   1.368   1.341   1.740  0.4515  1.3345 -2.0833
 5830SOL     OW22809   5.590   0.125   0.405  0.1788 -0.0770  0.2302
 5830SOL    HW122810   5.570   0.090   0.492 -0.1241 -1.0294 -0.2066
 5830SOL    HW222811   5.655   0.064   0.370  0.0543  0.1170 -0.3424
 5831SOL     OW22812   6.782   3.872   2.182 -0.5724 -0.3364  0.2574
 5831SOL    HW122813   6.866   3.890   2.225 -0.0353 -0.4338 -0.7310
 5831SOL    HW222814   6.739   3.958   2.179 -0.0928 -0.1003 -0.0896
 5832SOL     OW22815   2.192   7.230   9.287  0.1589  0.2968 -0.0701
 5832SOL    HW122816   2.197   7.183   9.204  0.0895 -1.4214  0.8501
 5832SOL    HW222817   2.124   7.296   9.274  1.1741  1.0730 -1.8227
 5833SOL     OW22818   9.921   2.672   5.604 -0.2651 -0.1027 -0.7303
 5833SOL    HW122819   9.893   2.588   5.640 -0.3780  0.5544  0.8082
 5833SOL    HW222820   9.962   2.650   5.520 -0.6622 -1.6332 -0.5554
 5834SOL     OW22821   1.493   8.441   8.722 -0.2136 -0.1549 -0.1867
 5834SOL    HW122822   1.505   8.439   8.627  0.5908 -2.4637 -0.1126
 5834SOL    HW222823   1.582   8.448   8.756 -0.3682 -0.7921  0.3677
 5835SOL     OW22824   6.883  11.389   7.543 -0.1484  0.0918 -0.3007
 5835SOL    HW122825   6.930  11.377   7.461 -1.7572  0.1847 -1.2867
 5835SOL    HW222826   6.797  11.422   7.517 -0.9459 -0.5182  1.3746
 5836SOL     OW22827   5.978   7.081   1.667 -0.6569  0.2423  0.2773
 5836SOL    HW122828   6.053   7.140   1.668  2.9974 -3.8767 -1.1259
 5836SOL    HW222829   5.943   7.089   1.579 -0.6724  0.8094  0.3301
 5837SOL     OW22830   6.927   3.972   2.727 -0.0693 -0.8131 -0.3568
 5837SOL    HW122831   6.996   3.911   2.754 -1.6378 -2.0926  0.9374
 5837SOL    HW222832   6.890   4.005   2.809 -2.0538 -1.4137 -0.9563
 5838SOL     OW22833   8.222   4.753   1.430 -0.2415 -0.4289 -0.1127
 5838SOL    HW122834   8.227   4.819   1.499  0.2450 -0.1619 -0.4000
 5838SOL    HW222835   8.167   4.793   1.363  1.2214  0.2697 -0.9172
 5839SOL     OW22836   6.848   5.864   3.364 -0.2699 -0.1477  0.1503
 5839SOL    HW122837   6.902   5.818   3.299 -0.7588  0.8392 -0.9845
 5839SOL    HW222838   6.911   5.916   3.414  0.1926 -1.4150  0.9425
 5840SOL     OW22839   4.524  10.653   6.104  0.3836  0.2036 -0.7416
 5840SOL    HW122840   4.490  10.564   6.091  0.8797 -0.1277  0.1105
 5840SOL    HW222841   4.445  10.708   6.108  0.0665 -0.2129 -1.1444
 5841SOL     OW22842   0.353   7.629   1.087  0.4964 -0.2888  0.4812
 5841SOL    HW122843   0.346   7.711   1.038  0.3333 -1.1299 -0.9545
 5841SOL    HW222844   0.273   7.581   1.067  0.5353 -0.7706  1.4029
 5842SOL     OW22845   8.901   4.235   4.337  0.0116  0.0350  0.4429
 5842SOL    HW122846   8.813   4.273   4.341  0.4817  1.0203  2.1669
 5842SOL    HW222847   8.920   4.207   4.426  1.4366 -0.2180  0.0874
 5843SOL     OW22848   9.176   8.935   6.965  0.2744 -0.5964  0.1480
 5843SOL    HW122849   9.131   9.007   7.010  0.9431 -0.4347  0.5722
 5843SOL    HW222850   9.231   8.895   7.033  1.6551 -0.0613 -0.6140
 5844SOL     OW22851   9.681   1.744   0.681  0.4127 -0.7961 -0.1139
 5844SOL    HW122852   9.698   1.650   0.689  0.6219 -0.7051  0.6258
 5844SOL    HW222853   9.692   1.778   0.770  1.0924  0.0506 -0.4977
 5845SOL     OW22854   9.688   2.314  10.079  0.1278 -0.1917 -0.0560
 5845SOL    HW122855   9.750   2.301  10.008 -0.8620  3.4335 -1.8396
 5845SOL    HW222856   9.604   2.285  10.044 -0.2960  1.2525 -0.3222
 5846SOL     OW22857   9.364   3.849   0.544  0.2695  0.0456  0.5705
 5846SOL    HW122858   9.329   3.887   0.464  0.9400  2.1999  1.2373
 5846SOL    HW222859   9.449   3.813   0.518  0.8420  1.4422  0.4306
 5847SOL     OW22860   7.667   7.045   7.220 -0.2237 -0.3526 -0.5271
 5847SOL    HW122861   7.686   7.065   7.128  0.0713 -2.0316 -0.8528
 5847SOL    HW222862   7.678   6.951   7.227 -0.0019 -0.2162  1.3096
 5848SOL     OW22863   9.454   4.333   1.764 -0.2602  0.1022  0.2673
 5848SOL    HW122864   9.427   4.250   1.725  0.1885  0.7639 -1.5962
 5848SOL    HW222865   9.491   4.382   1.690  2.0651  0.8733  1.8511
 5849SOL     OW22866   1.214   4.658   1.739 -0.2627  0.1893 -0.6215
 5849SOL    HW122867   1.140   4.633   1.795 -0.8985 -0.1020 -1.5751
 5849SOL    HW222868   1.290   4.653   1.797 -1.1221  1.6521  0.6821
 5850SOL     OW22869   3.102   1.830   9.147 -0.2860 -0.0328 -0.4181
 5850SOL    HW122870   3.089   1.913   9.102  1.1571  0.3732 -0.1425
 5850SOL    HW222871   3.137   1.771   9.081 -0.0364 -0.0209 -0.2985
 5851SOL     OW22872   4.704  10.597   7.130  0.3625 -0.3522  0.3529
 5851SOL    HW122873   4.763  10.535   7.086 -0.6664 -1.0592 -0.0603
 5851SOL    HW222874   4.632  10.609   7.068  0.2575  0.8180  0.6850
 5852SOL     OW22875   7.171   1.490   0.596 -0.2471  0.0755 -0.1046
 5852SOL    HW122876   7.116   1.562   0.626  0.9779  0.4195  1.4426
 5852SOL    HW222877   7.131   1.412   0.634 -0.3996  0.1712 -0.0649
 5853SOL     OW22878   9.501   4.039   6.394 -0.0315 -0.9691 -0.1588
 5853SOL    HW122879   9.537   3.951   6.387  0.8356 -0.5307 -1.6617
 5853SOL    HW222880   9.538   4.086   6.320 -3.6015 -0.4404 -1.8380
 5854SOL     OW22881   3.615   4.378   5.409 -0.3079  0.0654  0.9278
 5854SOL    HW122882   3.612   4.352   5.501 -0.1520 -0.1864  0.8627
 5854SOL    HW222883   3.708   4.393   5.392 -0.1204 -1.5291  0.3612
 5855SOL     OW22884   1.484   8.734   6.156  0.0297  0.0656  0.2264
 5855SOL    HW122885   1.532   8.809   6.121 -0.3535  0.2008 -0.0187
 5855SOL    HW222886   1.482   8.749   6.251  0.8110 -0.1479  0.2841
 5856SOL     OW22887   0.161   2.174  10.804 -0.1794 -0.6085 -0.2789
 5856SOL    HW122888   0.095   2.112  10.772 -0.3750 -0.6832  0.2539
 5856SOL    HW222889   0.244   2.130  10.787 -0.2776 -0.6498 -0.6732
 5857SOL     OW22890   0.836   8.378   5.486  0.3678 -0.0142  0.1176
 5857SOL    HW122891   0.854   8.287   5.508 -0.2369  0.0713  1.0235
 5857SOL    HW222892   0.922   8.420   5.484  0.6337 -0.5584 -0.1372
 5858SOL     OW22893  11.010   5.344   2.646  0.0310 -0.6741  0.1772
 5858SOL    HW122894  11.075   5.414   2.632  0.2700 -1.0364 -0.5847
 5858SOL    HW222895  10.992   5.347   2.740  0.1722  0.2952  0.1877
 5859SOL     OW22896  10.857   2.253   6.000  0.6367 -0.4090 -0.0549
 5859SOL    HW122897  10.821   2.226   5.915 -1.3344  2.3474 -0.2614
 5859SOL    HW222898  10.943   2.213   6.004  0.1550 -1.9255 -2.6477
 5860SOL     OW22899   3.461   0.077   9.104 -0.4184 -0.3996  0.0485
 5860SOL    HW122900   3.443   0.164   9.067  2.0015 -0.1986 -0.7932
 5860SOL    HW222901   3.543   0.088   9.152  0.1377 -2.3185 -0.3930
 5861SOL     OW22902   5.472  11.223   5.199 -0.4998  0.2679  0.5714
 5861SOL    HW122903   5.378  11.211   5.216 -0.6522 -1.5452 -1.1655
 5861SOL    HW222904   5.507  11.134   5.194  0.8873  0.8466 -0.9447
 5862SOL     OW22905   1.787   0.625   8.324 -0.3220 -0.2327  0.2703
 5862SOL    HW122906   1.741   0.622   8.240 -0.8982 -1.1844  0.6031
 5862SOL    HW222907   1.727   0.584   8.386  0.8008 -1.1705  0.7959
 5863SOL     OW22908  11.800   5.834   8.408  0.4231 -0.3370  0.1635
 5863SOL    HW122909  11.893   5.812   8.397  0.4468 -0.5082  0.6443
 5863SOL    HW222910  11.758   5.750   8.426  0.2626 -0.1977  0.4539
 5864SOL     OW22911   6.792   9.356   7.640  0.0210  0.2493 -0.0251
 5864SOL    HW122912   6.885   9.346   7.618  0.0829 -0.8917  0.6426
 5864SOL    HW222913   6.790   9.424   7.707  0.4618 -0.1304  0.3866
 5865SOL     OW22914  10.924   6.476   5.252  0.1148  0.0211  0.1853
 5865SOL    HW122915  10.958   6.415   5.316 -1.8380 -0.8754  0.4356
 5865SOL    HW222916  10.833   6.491   5.279  0.5614  3.2376  0.2755
 5866SOL     OW22917   3.288   3.881   2.895 -0.1414 -0.6958 -0.5083
 5866SOL    HW122918   3.337   3.850   2.972  0.3987  1.5432  0.1431
 5866SOL    HW222919   3.355   3.903   2.831 -0.3567  0.7225 -0.2793
 5867SOL     OW22920   1.509   9.917   6.497  0.3110 -0.4018 -0.9530
 5867SOL    HW122921   1.592   9.963   6.492  0.0221 -0.0048 -2.7338
 5867SOL    HW222922   1.527   9.832   6.455  0.1827 -0.9220  0.0105
 5868SOL     OW22923   9.889  10.036   8.185  0.2394 -0.2250 -0.1376
 5868SOL    HW122924   9.928  10.068   8.104  0.5846  0.8837  0.4603
 5868SOL    HW222925   9.841   9.957   8.158 -0.8486  0.9014 -1.6928
 5869SOL     OW22926  11.802   6.937   2.396  0.1413 -0.1659  0.0777
 5869SOL    HW122927  11.875   6.885   2.430 -0.6681 -1.4466 -0.0816
 5869SOL    HW222928  11.817   6.939   2.301 -1.3152 -2.5865 -0.2791
 5870SOL     OW22929   7.856   4.716   8.856 -0.0420  0.0003 -0.4178
 5870SOL    HW122930   7.881   4.634   8.814  1.6812  0.2299  0.0609
 5870SOL    HW222931   7.851   4.695   8.950  0.1133  0.3745 -0.3237
 5871SOL     OW22932   6.588   6.425   8.849 -0.0383  0.5292  0.4422
 5871SOL    HW122933   6.546   6.479   8.782  1.3316 -1.2650 -2.0347
 5871SOL    HW222934   6.664   6.476   8.876 -0.8452  1.4676  1.0395
 5872SOL     OW22935   6.283   0.352   5.112  0.1212  0.2135  0.0284
 5872SOL    HW122936   6.199   0.355   5.157  0.2750 -0.4093  0.3687
 5872SOL    HW222937   6.307   0.444   5.099 -0.2471  0.3963  0.6164
 5873SOL     OW22938   2.279   6.820   8.455 -0.2092  0.9899 -0.4604
 5873SOL    HW122939   2.289   6.877   8.531 -2.3603 -0.3347  0.9440
 5873SOL    HW222940   2.235   6.874   8.390 -1.6950  1.1515  0.6343
 5874SOL     OW22941   3.522   3.168   6.486  0.2928 -0.0923 -0.3352
 5874SOL    HW122942   3.468   3.247   6.491 -0.8349 -0.8931  0.7434
 5874SOL    HW222943   3.591   3.181   6.552  0.4457  0.2190 -0.5521
 5875SOL     OW22944   8.197   7.551   3.005 -0.4755 -0.0400  0.5774
 5875SOL    HW122945   8.269   7.591   2.956 -2.3393  1.6003 -0.9896
 5875SOL    HW222946   8.194   7.601   3.087  0.4033 -0.3858  0.8266
 5876SOL     OW22947   1.699   8.909   1.798 -0.0867 -0.5080 -0.1484
 5876SOL    HW122948   1.745   8.887   1.717  0.2673 -1.9509  0.4010
 5876SOL    HW222949   1.769   8.927   1.861  0.0218 -4.5865  1.2224
 5877SOL     OW22950   2.127   6.342   3.146  0.2016  0.0912  0.1055
 5877SOL    HW122951   2.205   6.359   3.197  0.7886 -0.0217 -0.7342
 5877SOL    HW222952   2.158   6.335   3.056 -0.6504 -0.7723 -0.1443
 5878SOL     OW22953   0.371   9.727   6.971 -0.2127 -0.2946 -0.1296
 5878SOL    HW122954   0.370   9.818   6.942 -0.3224 -0.6798 -1.3952
 5878SOL    HW222955   0.464   9.707   6.980 -0.1885 -0.0503  0.1680
 5879SOL     OW22956   9.041   8.403   3.308  0.6526  0.5253 -0.0868
 5879SOL    HW122957   9.023   8.376   3.398  0.2111 -1.6887 -0.7875
 5879SOL    HW222958   9.112   8.345   3.280  1.1011  1.5082 -1.0324
 5880SOL     OW22959   5.747   6.530   8.230  0.0833 -0.0627  0.1161
 5880SOL    HW122960   5.818   6.593   8.243  1.3333 -1.4798  0.3918
 5880SOL    HW222961   5.672   6.584   8.205  1.4702  1.4098 -1.0900
 5881SOL     OW22962   8.462   9.256   3.083  0.8169 -0.1000  0.0559
 5881SOL    HW122963   8.488   9.254   2.991  2.0548  1.3215  0.3374
 5881SOL    HW222964   8.406   9.179   3.093  0.7930 -0.3879 -1.8324
 5882SOL     OW22965   4.131   9.922   4.619  0.4743 -0.2589 -0.4591
 5882SOL    HW122966   4.167   9.982   4.684  0.4259 -0.6780 -0.0398
 5882SOL    HW222967   4.077   9.861   4.670 -0.7857  0.3172 -1.0640
 5883SOL     OW22968  10.060   2.733   6.983  0.3551 -0.3603  0.0617
 5883SOL    HW122969  10.109   2.654   6.959  0.1578 -1.0664  1.8313
 5883SOL    HW222970  10.089   2.754   7.071 -0.4255  0.9053  0.0489
 5884SOL     OW22971   4.006   1.446  10.102  0.0855  0.6234 -0.1098
 5884SOL    HW122972   4.070   1.375  10.095 -0.5468  0.0698 -0.5100
 5884SOL    HW222973   4.056   1.521  10.132  0.7871  0.0162  0.2943
 5885SOL     OW22974   3.041   1.845   3.569  0.0283 -0.5300  0.1623
 5885SOL    HW122975   2.958   1.817   3.608  0.5795 -2.7469 -0.0705
 5885SOL    HW222976   3.108   1.794   3.615  1.0663 -0.2643 -0.9829
 5886SOL     OW22977  11.219   4.835   9.851  0.2885 -0.3801  0.4402
 5886SOL    HW122978  11.186   4.877   9.930  0.3644  1.5014 -0.4843
 5886SOL    HW222979  11.247   4.748   9.880  1.0668  0.5482  2.6382
 5887SOL     OW22980   7.441  10.454  10.093  0.1431  0.1983  0.2833
 5887SOL    HW122981   7.448  10.360  10.079 -0.8996  0.0335  0.7776
 5887SOL    HW222982   7.363  10.465  10.148  1.4009  1.1842  1.9918
 5888SOL     OW22983   5.653   4.233   6.623 -0.6801 -0.6109  0.6147
 5888SOL    HW122984   5.700   4.291   6.682 -2.2717  0.7855  0.5939
 5888SOL    HW222985   5.608   4.172   6.680 -0.7800 -0.4016  0.7630
 5889SOL     OW22986   0.453   9.904   2.547 -0.2766 -0.4382 -0.0593
 5889SOL    HW122987   0.409   9.958   2.613 -0.0391 -2.6952  2.0907
 5889SOL    HW222988   0.449   9.815   2.581 -0.5856 -1.8705 -3.3990
 5890SOL     OW22989   3.394  11.503   0.929  0.4137 -0.1803  0.4548
 5890SOL    HW122990   3.338  11.427   0.941 -0.2853  0.2544  0.0185
 5890SOL    HW222991   3.403  11.511   0.834  1.4490 -0.4027  0.5160
 5891SOL     OW22992   7.960   3.700   2.419 -0.7616 -0.3711  0.6785
 5891SOL    HW122993   7.877   3.746   2.431 -0.8054 -0.4540  0.6874
 5891SOL    HW222994   7.957   3.628   2.481 -2.1929 -2.5175 -1.7092
 5892SOL     OW22995  10.297   5.446   0.606 -0.8450  0.2003 -0.2304
 5892SOL    HW122996  10.219   5.404   0.642 -0.0999 -0.7156  0.3621
 5892SOL    HW222997  10.286   5.539   0.627 -0.6230 -0.2303  2.0690
 5893SOL     OW22998  11.263   4.888   0.823  0.2908 -0.2832 -0.9700
 5893SOL    HW122999  11.275   4.979   0.795  1.6042 -0.1232  0.0143
 5893SOL    HW223000  11.197   4.893   0.892 -0.4324 -0.2405 -1.6433
 5894SOL     OW23001   5.125  11.035   3.722 -0.5283 -0.5494 -0.2503
 5894SOL    HW123002   5.113  11.115   3.670  0.6283 -0.7723 -0.8949
 5894SOL    HW223003   5.060  10.974   3.687 -0.2967 -0.4328 -0.9019
 5895SOL     OW23004   8.097   7.682  10.524 -0.2028 -0.0401 -0.4874
 5895SOL    HW123005   8.005   7.700  10.545  0.1946 -0.5601  2.0585
 5895SOL    HW223006   8.145   7.709  10.603  2.1745  2.5641 -2.6227
 5896SOL     OW23007   4.759  11.431  10.810  0.2407  0.4950  0.3138
 5896SOL    HW123008   4.851  11.407  10.821  0.8173  2.3368 -0.1565
 5896SOL    HW223009   4.760  11.506  10.751 -1.7902 -1.1286 -1.9679
 5897SOL     OW23010  10.540   7.748   1.191  0.1603 -0.1652  0.2773
 5897SOL    HW123011  10.534   7.826   1.135 -0.0058 -0.8199 -0.6476
 5897SOL    HW223012  10.501   7.679   1.138 -0.6424 -0.6697  1.4992
 5898SOL     OW23013   9.248   6.429   3.989  0.2566 -0.0431 -0.4491
 5898SOL    HW123014   9.302   6.407   4.065 -1.2353  0.4816  0.8065
 5898SOL    HW223015   9.295   6.500   3.946  1.5431 -0.8951 -0.5341
 5899SOL     OW23016   4.365   6.597   1.568  0.7157  0.1571 -0.0390
 5899SOL    HW123017   4.397   6.537   1.636  0.5505 -0.9177 -0.8839
 5899SOL    HW223018   4.290   6.552   1.529 -2.2977  2.8039  2.2097
 5900SOL     OW23019  10.015   8.295   7.056  0.5059  0.1424  1.0940
 5900SOL    HW123020   9.985   8.206   7.037  2.3615 -0.2328 -0.3594
 5900SOL    HW223021  10.054   8.325   6.974  0.4421  2.1072  1.7284
 5901SOL     OW23022   4.700   9.634   6.644  0.5727 -0.3597 -0.2165
 5901SOL    HW123023   4.789   9.630   6.679  0.0220 -0.3057  1.2453
 5901SOL    HW223024   4.666   9.546   6.657 -0.5714  0.3464  2.0082
 5902SOL     OW23025   1.930   0.824   0.667  0.0924 -0.5085  0.0847
 5902SOL    HW123026   1.963   0.903   0.710  0.0680 -0.5148  0.1149
 5902SOL    HW223027   1.995   0.757   0.688 -1.7396 -1.4790  3.2924
 5903SOL     OW23028   0.006   2.202   8.908  0.2139 -0.7572 -0.1825
 5903SOL    HW123029   0.090   2.242   8.884 -0.9177  0.7244 -1.8966
 5903SOL    HW223030  -0.015   2.143   8.836 -0.5908 -0.5276 -0.1457
 5904SOL     OW23031  10.518   4.140   4.309 -0.3334 -0.2876  0.3513
 5904SOL    HW123032  10.590   4.174   4.257 -1.0605  1.2153  0.2728
 5904SOL    HW223033  10.560   4.084   4.375  0.8604  0.2569  0.0761
 5905SOL     OW23034  10.115   7.647   1.925  0.5317 -0.1403 -0.4564
 5905SOL    HW123035  10.101   7.559   1.960  0.1358 -0.2521 -0.8857
 5905SOL    HW223036  10.103   7.705   1.999  1.3744 -0.4835 -0.0319
 5906SOL     OW23037   1.057  10.958   6.156  0.1666 -0.1049 -0.8514
 5906SOL    HW123038   1.116  10.891   6.122  0.4306 -0.3062 -0.0388
 5906SOL    HW223039   1.109  11.005   6.221 -0.9211 -1.1270  0.8396
 5907SOL     OW23040  10.700   0.106   6.609 -0.1663 -0.1261 -0.2731
 5907SOL    HW123041  10.642   0.148   6.545 -2.1225  0.6949  1.9326
 5907SOL    HW223042  10.781   0.158   6.606 -0.2959  0.0324 -1.8719
 5908SOL     OW23043   2.957   4.547   2.137  0.8105  0.1124  0.1065
 5908SOL    HW123044   2.997   4.481   2.081 -0.1515 -0.0479 -0.4203
 5908SOL    HW223045   2.955   4.507   2.224  0.7103 -0.3439 -0.1025
 5909SOL     OW23046   6.750  10.786   7.232 -0.8130 -0.2503 -0.3826
 5909SOL    HW123047   6.681  10.839   7.272 -1.7434 -0.3229 -1.7836
 5909SOL    HW223048   6.826  10.797   7.288 -2.0571 -0.4320  1.4069
 5910SOL     OW23049   5.281   3.105   0.573 -0.2746 -0.2994  0.5322
 5910SOL    HW123050   5.333   3.181   0.546 -0.3541 -0.4261  0.0022
 5910SOL    HW223051   5.211   3.099   0.507 -0.3621 -0.7319  0.6585
 5911SOL     OW23052   5.546   7.073   8.553 -0.0674  0.4368 -0.0440
 5911SOL    HW123053   5.593   7.071   8.636 -1.5278  1.5732  0.8577
 5911SOL    HW223054   5.606   7.032   8.491  0.1741 -2.6164  1.9756
 5912SOL     OW23055   9.315   2.290   3.163  0.4605  0.9366  0.3269
 5912SOL    HW123056   9.254   2.278   3.235 -0.0369  1.3348 -0.0244
 5912SOL    HW223057   9.279   2.238   3.091  0.7373  0.8653  0.2370
 5913SOL     OW23058   9.562   4.810   4.392 -0.1958 -0.5704 -0.0072
 5913SOL    HW123059   9.543   4.867   4.467 -0.9698  0.0297 -0.6436
 5913SOL    HW223060   9.480   4.807   4.343 -0.2654 -2.4718  0.1409
 5914SOL     OW23061   7.241   8.921   3.026 -0.1804 -0.0022  1.0071
 5914SOL    HW123062   7.149   8.916   3.000  0.1866  0.9773 -0.6039
 5914SOL    HW223063   7.242   8.984   3.098 -0.6262  0.9670  0.1891
 5915SOL     OW23064   8.554   5.426   5.329  0.6610  0.1753 -0.1172
 5915SOL    HW123065   8.468   5.466   5.340 -0.1562 -1.6478  0.5954
 5915SOL    HW223066   8.540   5.333   5.349  2.2682 -0.6524 -2.3863
 5916SOL     OW23067   3.596   6.797   6.979 -0.2571 -0.0052  0.6773
 5916SOL    HW123068   3.620   6.883   6.946 -1.3633  1.1250  2.6562
 5916SOL    HW223069   3.672   6.768   7.029  1.7537 -2.0732 -3.1062
 5917SOL     OW23070  11.530   5.417   4.810  0.4575  0.3989  0.0910
 5917SOL    HW123071  11.602   5.446   4.754  0.1984  0.5365 -0.1774
 5917SOL    HW223072  11.566   5.344   4.861 -0.1868 -2.1048 -2.6964
 5918SOL     OW23073   3.432  11.078   0.414 -0.3367 -0.2213  0.3174
 5918SOL    HW123074   3.434  11.173   0.421  0.1922 -0.3557  2.5966
 5918SOL    HW223075   3.339  11.055   0.416 -0.4969  0.2371 -0.8463
 5919SOL     OW23076   2.010  10.997   5.425  0.0557 -0.1428  0.4070
 5919SOL    HW123077   1.956  11.076   5.428 -0.3170 -0.3887  0.1249
 5919SOL    HW223078   2.001  10.959   5.512 -1.3925 -0.9613 -0.0759
 5920SOL     OW23079   3.318   4.600   8.357 -0.0516 -0.3971 -1.0292
 5920SOL    HW123080   3.257   4.596   8.283  0.3030  0.8587 -1.4290
 5920SOL    HW223081   3.262   4.607   8.434 -0.5102  2.1305 -1.4818
 5921SOL     OW23082   2.208   0.963   7.203 -0.5010 -0.0743 -0.4115
 5921SOL    HW123083   2.144   0.893   7.186  0.3762 -0.6653 -1.4389
 5921SOL    HW223084   2.206   0.974   7.298 -1.4665 -0.7183 -0.3367
 5922SOL     OW23085   0.463   6.273  11.822 -0.1275 -0.4847 -0.7215
 5922SOL    HW123086   0.526   6.338  11.854 -0.7767  1.4719 -3.0787
 5922SOL    HW223087   0.513   6.218  11.762 -0.2997  0.1557 -1.4762
 5923SOL     OW23088   0.836   4.640   8.692 -0.4989 -0.3134  0.4150
 5923SOL    HW123089   0.768   4.598   8.640  0.0793 -1.7461  0.7736
 5923SOL    HW223090   0.903   4.573   8.703  0.3790  0.6481  1.1879
 5924SOL     OW23091   3.958   5.386   0.495  0.3297  0.0051 -0.2486
 5924SOL    HW123092   3.881   5.358   0.544 -0.0153 -0.5016 -1.0526
 5924SOL    HW223093   3.941   5.356   0.405  0.9715  0.8377 -0.6617
 5925SOL     OW23094  11.372  11.517   3.708 -0.0274 -1.2709  0.0226
 5925SOL    HW123095  11.331  11.546   3.789  2.3733  3.3967 -0.0664
 5925SOL    HW223096  11.432  11.448   3.734  0.9046  0.3165  2.4464
 5926SOL     OW23097   5.793   4.974   1.703  0.4748  0.1697  0.1837
 5926SOL    HW123098   5.722   5.004   1.759  0.9244  0.0126  0.8584
 5926SOL    HW223099   5.859   5.044   1.707  0.8295 -0.1724  0.4610
 5927SOL     OW23100   7.205   3.038  11.820 -0.6819 -0.3071 -0.2524
 5927SOL    HW123101   7.242   3.105  11.876  1.0247 -2.5729  1.5139
 5927SOL    HW223102   7.155   2.982  11.879 -1.2341 -1.1707 -1.4858
 5928SOL     OW23103   5.681  10.852   2.222  0.1893  0.7163 -0.3259
 5928SOL    HW123104   5.668  10.763   2.255  1.6694  1.4700  2.5533
 5928SOL    HW223105   5.595  10.894   2.232  0.1282  0.3510  0.8185
 5929SOL     OW23106  11.609   4.537  10.648 -0.0227  0.1804 -0.4879
 5929SOL    HW123107  11.585   4.488  10.570  0.6578 -1.3819  0.2528
 5929SOL    HW223108  11.527   4.546  10.697 -0.3343  0.6598 -1.0738
 5930SOL     OW23109   9.355   5.654   4.968  0.1243  0.0094  0.3510
 5930SOL    HW123110   9.358   5.667   4.873 -0.2873 -1.2974  0.1413
 5930SOL    HW223111   9.296   5.722   5.000  0.9821  1.0407 -0.2013
 5931SOL     OW23112   0.354   9.870   4.666 -0.5882 -0.0743 -0.1137
 5931SOL    HW123113   0.443   9.836   4.656  0.0874  0.3232  3.4188
 5931SOL    HW223114   0.308   9.802   4.715 -1.5816  0.6928  0.0349
 5932SOL     OW23115   0.136   3.929   9.380  0.4523 -0.0398 -0.2289
 5932SOL    HW123116   0.106   3.843   9.408 -1.1096 -0.0205 -1.6838
 5932SOL    HW223117   0.117   3.932   9.286 -0.2158  2.1570 -0.0835
 5933SOL     OW23118   0.891   0.328   3.358  0.3136  0.5592  0.0869
 5933SOL    HW123119   0.905   0.352   3.267  0.8970  0.7460  0.2258
 5933SOL    HW223120   0.944   0.249   3.372  0.9209  1.0305  0.4957
 5934SOL     OW23121  10.545   5.460   6.933  0.0374  0.0367 -0.2378
 5934SOL    HW123122  10.520   5.551   6.918 -0.2270  0.3505  1.9018
 5934SOL    HW223123  10.641   5.460   6.930  0.0283  0.2944 -0.5844
 5935SOL     OW23124   1.717   0.637   9.458 -0.2632 -0.2284  0.6337
 5935SOL    HW123125   1.702   0.605   9.369  0.4687 -0.5093  0.6014
 5935SOL    HW223126   1.659   0.584   9.513 -2.0779  1.1606  0.1603
 5936SOL     OW23127   7.075   5.448   9.862  0.4151 -0.7799 -0.3835
 5936SOL    HW123128   7.014   5.378   9.837 -1.5728  0.2181  1.3389
 5936SOL    HW223129   7.149   5.402   9.901 -0.8946 -1.9749  0.8257
 5937SOL     OW23130   1.935   4.973   6.187  0.1166  0.1573 -0.6676
 5937SOL    HW123131   1.969   5.053   6.226  0.1637  0.4119 -1.2148
 5937SOL    HW223132   1.896   5.001   6.104 -0.4941 -0.2798 -0.5440
 5938SOL     OW23133  10.444   9.277   8.146 -0.4567  0.0230 -0.1876
 5938SOL    HW123134  10.356   9.301   8.116  0.2074  2.2544 -0.5409
 5938SOL    HW223135  10.493   9.261   8.066 -0.4471 -0.9426  0.0002
 5939SOL     OW23136   2.044   4.504   8.300 -0.7399 -0.3262  0.4057
 5939SOL    HW123137   2.012   4.418   8.274  0.5432 -1.0575  1.1125
 5939SOL    HW223138   2.067   4.547   8.218 -1.3213 -0.6845  0.0510
 5940SOL     OW23139   9.312   3.589   9.265 -0.3220  0.2670  0.7849
 5940SOL    HW123140   9.316   3.635   9.348 -0.7738  1.4821  0.1636
 5940SOL    HW223141   9.350   3.650   9.202  2.8983 -1.7757  0.5239
 5941SOL     OW23142   0.227   7.360   2.539  0.1109 -0.3163  0.4492
 5941SOL    HW123143   0.210   7.414   2.616  0.0642 -1.0871  0.9876
 5941SOL    HW223144   0.208   7.271   2.567  0.2635 -0.6295 -0.4065
 5942SOL     OW23145   7.532   4.562   7.553  0.0217 -0.4126  0.2913
 5942SOL    HW123146   7.559   4.475   7.522 -0.2932 -0.2843 -0.3508
 5942SOL    HW223147   7.564   4.565   7.644  2.2334 -0.2446 -0.4315
 5943SOL     OW23148  10.493  11.479   8.526 -0.0053 -0.5670 -0.3336
 5943SOL    HW123149  10.581  11.510   8.507 -0.5330  1.0552 -0.2624
 5943SOL    HW223150  10.485  11.485   8.621 -0.3301 -0.3240 -0.3738
 5944SOL     OW23151  10.205   4.265  10.059 -0.5225 -0.0993  0.4594
 5944SOL    HW123152  10.227   4.174  10.039  0.7947  0.1036  0.8779
 5944SOL    HW223153  10.189   4.305   9.973  1.8651 -0.0304 -0.0339
 5945SOL     OW23154   7.077  10.820   3.429  0.9316  0.4776  0.5757
 5945SOL    HW123155   6.983  10.823   3.442  1.0641  0.0306  1.8200
 5945SOL    HW223156   7.094  10.879   3.355 -0.0694  2.4274  1.8262
 5946SOL     OW23157   0.492   7.794   2.122 -0.5507 -0.3795 -0.5107
 5946SOL    HW123158   0.538   7.723   2.077  0.8906 -0.1954  0.6133
 5946SOL    HW223159   0.536   7.873   2.092 -1.5549 -0.0034 -1.0485
 5947SOL     OW23160   4.140   3.113   0.913  0.5101  0.0691 -0.0880
 5947SOL    HW123161   4.069   3.070   0.865 -0.2827  0.4797  0.7017
 5947SOL    HW223162   4.159   3.055   0.986 -0.4637  0.9444  0.8990
 5948SOL     OW23163   1.399   1.038  10.327  0.2693  0.7156 -0.0925
 5948SOL    HW123164   1.315   1.083  10.315  0.1511  0.5024 -0.0678
 5948SOL    HW223165   1.461   1.108  10.344 -0.3859  0.7323  2.6446
 5949SOL     OW23166   8.473  10.038   7.269  0.4739 -0.6632  0.4960
 5949SOL    HW123167   8.522   9.960   7.296 -0.5448 -1.2377  0.7361
 5949SOL    HW223168   8.448  10.021   7.179  0.5019 -0.4812  0.4531
 5950SOL     OW23169   6.209   0.324   8.198  0.1703 -0.5225 -0.6705
 5950SOL    HW123170   6.224   0.287   8.286  0.0985  0.7171 -0.1168
 5950SOL    HW223171   6.119   0.356   8.201  1.2027  2.6063  0.0067
 5951SOL     OW23172   3.998   6.736   1.343  0.5790  0.1460 -0.2001
 5951SOL    HW123173   4.010   6.654   1.295  0.0685 -0.2442  0.3223
 5951SOL    HW223174   3.917   6.773   1.309 -0.0881 -0.4164  0.7448
 5952SOL     OW23175   1.501   6.378   7.425 -0.7880  0.4934 -0.3652
 5952SOL    HW123176   1.484   6.339   7.339 -1.1648  0.5996 -0.3385
 5952SOL    HW223177   1.437   6.448   7.433 -0.1697  1.0627 -0.3704
 5953SOL     OW23178   7.608   7.833   3.712 -0.5117 -0.0089  0.1017
 5953SOL    HW123179   7.520   7.798   3.726 -1.3859  2.1454  0.4938
 5953SOL    HW223180   7.610   7.855   3.619 -0.5691  0.3816  0.1918
 5954SOL     OW23181   4.579   4.683   6.397 -0.2603 -0.1751  0.0058
 5954SOL    HW123182   4.545   4.753   6.341  0.3283 -0.9456 -1.3732
 5954SOL    HW223183   4.674   4.695   6.393 -0.2302  0.4050  1.7449
 5955SOL     OW23184   4.779   4.619   3.233  0.8863  0.0624 -0.1417
 5955SOL    HW123185   4.795   4.530   3.263  0.7908  0.2784  0.5823
 5955SOL    HW223186   4.801   4.674   3.309  0.8429  0.6466 -0.5412
 5956SOL     OW23187   1.129   9.522  10.910 -0.1757 -0.3927  0.6757
 5956SOL    HW123188   1.121   9.468  10.832 -1.5700 -1.0212  1.2387
 5956SOL    HW223189   1.121   9.461  10.983  2.1291  0.0241  1.3615
 5957SOL     OW23190  10.644  11.322   4.008 -0.1051  0.1001  0.6059
 5957SOL    HW123191  10.647  11.418   4.017 -2.7895  0.5321 -1.8185
 5957SOL    HW223192  10.688  11.305   3.924  1.3114 -0.9810  1.5210
 5958SOL     OW23193   4.289   6.771   5.546 -1.0832  0.4595 -0.0670
 5958SOL    HW123194   4.202   6.749   5.581 -1.2901  0.1891 -0.7282
 5958SOL    HW223195   4.300   6.711   5.472 -0.9768  1.5271 -0.9319
 5959SOL     OW23196   6.671   6.289   0.920 -0.1880 -0.2795  0.3257
 5959SOL    HW123197   6.700   6.379   0.935 -1.5438  0.0390  1.2251
 5959SOL    HW223198   6.667   6.281   0.825 -0.2503  0.6879  0.2316
 5960SOL     OW23199   9.108   1.382   7.413  0.9603 -0.4553  0.2617
 5960SOL    HW123200   9.153   1.454   7.457 -1.6462  0.7536  1.1289
 5960SOL    HW223201   9.060   1.337   7.482 -2.5906  0.9820 -1.0393
 5961SOL     OW23202   3.266   5.998   0.348 -0.5613 -0.3953 -0.2914
 5961SOL    HW123203   3.260   6.034   0.437 -1.0206 -0.2714 -0.3667
 5961SOL    HW223204   3.177   5.969   0.329 -0.0070 -2.4952  0.1459
 5962SOL     OW23205   5.769   1.775   0.616  0.5098  0.3420  0.0343
 5962SOL    HW123206   5.806   1.792   0.703  1.0568  1.2189 -0.3495
 5962SOL    HW223207   5.789   1.855   0.566  0.6976 -0.3655 -1.0564
 5963SOL     OW23208   5.167  10.951   1.631 -0.6469 -0.5916  0.1480
 5963SOL    HW123209   5.079  10.938   1.595 -0.4318  0.1448 -0.7022
 5963SOL    HW223210   5.170  11.045   1.652 -0.6580 -0.9539  1.8356
 5964SOL     OW23211   1.793   8.749   3.927 -0.3866 -0.1832  0.2233
 5964SOL    HW123212   1.750   8.794   3.854 -0.8191  1.3945  1.4152
 5964SOL    HW223213   1.726   8.690   3.961 -1.2944  1.4065  1.3233
 5965SOL     OW23214   8.916   4.071   5.334 -0.0079 -0.4149  0.1545
 5965SOL    HW123215   8.922   4.154   5.383  1.7007 -1.0704  1.1121
 5965SOL    HW223216   8.824   4.045   5.343 -0.1023  0.3362  1.6147
 5966SOL     OW23217   9.264   8.018   6.018 -0.0475 -0.0969 -0.3689
 5966SOL    HW123218   9.270   8.033   6.112 -0.5267  2.7976 -0.7007
 5966SOL    HW223219   9.354   7.998   5.991  0.3258  0.3256  0.5157
 5967SOL     OW23220  10.072   7.640   2.783 -0.6683  0.3613 -0.0021
 5967SOL    HW123221  10.114   7.557   2.806 -0.2976  0.7926  0.8948
 5967SOL    HW223222  10.073   7.640   2.687  0.4979 -0.0905 -0.0146
 5968SOL     OW23223   4.796   2.939   4.386 -0.2188  0.1311  0.1429
 5968SOL    HW123224   4.796   2.868   4.450 -0.4569 -0.3866 -0.4175
 5968SOL    HW223225   4.874   2.923   4.334 -2.0336 -1.8375 -2.2356
 5969SOL     OW23226   8.706  11.647   7.429  0.7123 -0.3287 -0.0579
 5969SOL    HW123227   8.741  11.647   7.340 -1.1286  1.5804 -0.8639
 5969SOL    HW223228   8.693  11.740   7.449 -0.6371 -0.8121  1.4962
 5970SOL     OW23229   9.870   7.815   0.341  0.1840 -0.1164  0.0229
 5970SOL    HW123230   9.861   7.902   0.304 -0.2557 -0.1588  0.0223
 5970SOL    HW223231   9.894   7.830   0.433  1.0754 -0.0107 -0.2184
 5971SOL     OW23232   9.985   5.338   9.579  0.3358  0.3032 -0.1665
 5971SOL    HW123233   9.954   5.400   9.645 -0.3356  1.0722 -1.1577
 5971SOL    HW223234  10.037   5.391   9.519  1.7907 -0.5775  0.2756
 5972SOL     OW23235   5.559  11.671   6.348 -0.3874 -0.1899  0.5826
 5972SOL    HW123236   5.588  11.745   6.294 -0.2775 -1.6094 -1.4145
 5972SOL    HW223237   5.589  11.692   6.436  0.3277  1.7615 -0.0722
 5973SOL     OW23238   5.850   7.535   7.407 -0.8514 -0.3973 -0.3205
 5973SOL    HW123239   5.826   7.627   7.404 -0.3969 -0.2628  0.1535
 5973SOL    HW223240   5.857   7.514   7.500  1.0845 -0.3677 -0.4269
 5974SOL     OW23241   5.647   2.950   4.616 -0.1461  0.8546  0.1486
 5974SOL    HW123242   5.689   2.899   4.686  0.0817  0.5943 -0.1742
 5974SOL    HW223243   5.578   2.999   4.661 -0.2368  0.4176  0.5005
 5975SOL     OW23244   2.887   4.941   5.181 -0.2480  0.6018  0.3837
 5975SOL    HW123245   2.882   5.016   5.121 -0.0918  1.4392  1.3898
 5975SOL    HW223246   2.959   4.888   5.148 -0.3307  0.9139 -0.3116
 5976SOL     OW23247   4.016   6.303   8.352 -0.2337  0.6210 -0.2207
 5976SOL    HW123248   3.936   6.325   8.398 -0.7871 -0.8540 -0.4104
 5976SOL    HW223249   4.000   6.327   8.261 -0.5064  0.2501 -0.2740
 5977SOL     OW23250   8.191   4.982   5.943 -0.2090  0.3404 -0.3276
 5977SOL    HW123251   8.137   4.960   6.019  0.3768  1.5103  0.4686
 5977SOL    HW223252   8.133   5.031   5.885 -0.1537  1.1711  0.3017
 5978SOL     OW23253  11.788   4.314   6.774  0.4564 -0.1304  0.3381
 5978SOL    HW123254  11.783   4.244   6.708 -0.7295  0.2287  0.0217
 5978SOL    HW223255  11.778   4.268   6.858  0.4759 -0.4287  0.1798
 5979SOL     OW23256   7.013  11.745   0.819 -0.0958 -0.0241  0.2808
 5979SOL    HW123257   7.047  11.674   0.764 -0.8356  0.0743 -0.3204
 5979SOL    HW223258   7.011  11.708   0.908 -0.4016 -0.7283 -0.0174
 5980SOL     OW23259  10.563   4.074   4.860 -0.5678  0.5716 -0.2108
 5980SOL    HW123260  10.482   4.108   4.900 -0.1794  1.8571 -0.4869
 5980SOL    HW223261  10.532   4.024   4.784 -1.0230  3.5422 -2.1153
 5981SOL     OW23262   7.138   7.249   3.589 -1.1459 -0.0039  0.1897
 5981SOL    HW123263   7.134   7.344   3.587  2.3749  0.2841 -0.2531
 5981SOL    HW223264   7.052   7.221   3.619 -1.5503  3.4057  2.7836
 5982SOL     OW23265   1.657   3.399   9.229  0.1917  0.3834  0.3047
 5982SOL    HW123266   1.679   3.493   9.228  2.5556 -0.0731  1.4478
 5982SOL    HW223267   1.640   3.380   9.322  1.8952 -0.7243  0.4245
 5983SOL     OW23268   4.310   6.823   3.706  0.3761 -0.9284 -0.3126
 5983SOL    HW123269   4.312   6.763   3.780  0.0890 -0.2794  0.2405
 5983SOL    HW223270   4.319   6.910   3.746  1.2394 -0.6238 -1.1247
 5984SOL     OW23271   6.340  10.373   5.057  0.3683 -0.1876  0.4006
 5984SOL    HW123272   6.380  10.355   5.141 -0.1597 -0.0346  0.6914
 5984SOL    HW223273   6.285  10.297   5.039  0.4646 -0.2124  0.2032
 5985SOL     OW23274   6.748   3.966   3.300 -0.1224  0.0146  0.2381
 5985SOL    HW123275   6.822   3.977   3.360  1.2714  1.4223 -1.6440
 5985SOL    HW223276   6.740   3.871   3.290  1.3051 -0.1715  0.6346
 5986SOL     OW23277   7.270   4.291   4.908  0.0125 -0.1720  0.0579
 5986SOL    HW123278   7.353   4.340   4.907  0.8632 -1.5349  0.4210
 5986SOL    HW223279   7.275   4.234   4.832  0.1149 -1.3530  0.9223
 5987SOL     OW23280   0.873   0.984   6.695  0.4742 -0.3301 -0.2045
 5987SOL    HW123281   0.811   0.920   6.661  0.0550 -1.8877  3.0899
 5987SOL    HW223282   0.929   0.934   6.754  2.0338  1.8426  0.2734
 5988SOL     OW23283   0.040   8.523  10.553 -0.6041 -0.5654  0.2619
 5988SOL    HW123284   0.103   8.452  10.556 -1.5679 -1.4297  0.4277
 5988SOL    HW223285  -0.012   8.513  10.633 -0.5255  0.5476  0.4741
 5989SOL     OW23286   2.739   2.980   0.757 -0.2634 -0.5241  0.4908
 5989SOL    HW123287   2.742   2.969   0.852 -1.7997  1.1281  0.7887
 5989SOL    HW223288   2.727   3.075   0.745  0.3909 -0.6454 -1.3731
 5990SOL     OW23289   2.329  10.632   8.002  0.7319 -0.4509 -0.1186
 5990SOL    HW123290   2.280  10.567   8.054  1.4340 -0.3510  0.6764
 5990SOL    HW223291   2.410  10.645   8.050  0.6546  0.9415 -0.3414
 5991SOL     OW23292  10.316   6.582   6.092 -0.1598  0.0723  0.3734
 5991SOL    HW123293  10.407   6.598   6.069 -0.5101  0.5400 -0.7743
 5991SOL    HW223294  10.313   6.491   6.120  0.9051  0.4461  1.8308
 5992SOL     OW23295   3.675   5.296   5.309 -0.0331  0.0512 -0.0991
 5992SOL    HW123296   3.751   5.262   5.262 -1.3223 -0.6611 -1.7857
 5992SOL    HW223297   3.646   5.371   5.257 -0.2074  0.6439  0.8166
 5993SOL     OW23298  10.479   6.214   1.625 -0.2119 -0.5600 -0.3878
 5993SOL    HW123299  10.485   6.124   1.595 -1.0977 -0.7293 -0.0844
 5993SOL    HW223300  10.414   6.212   1.695  1.3173 -0.0764  1.1473
 5994SOL     OW23301   4.522   5.859   1.391  1.2173 -0.1333  0.9465
 5994SOL    HW123302   4.499   5.775   1.351 -2.7268  1.4597 -0.7583
 5994SOL    HW223303   4.515   5.922   1.319  1.2020  2.0053  2.7024
 5995SOL     OW23304   6.842   8.946   7.013 -0.0496 -0.0099 -0.0602
 5995SOL    HW123305   6.774   8.989   6.961  0.4114  1.2902  0.3875
 5995SOL    HW223306   6.922   8.994   6.992  0.4109 -0.3996  0.7617
 5996SOL     OW23307   8.050   3.424   4.216 -0.2472  0.6519 -1.0545
 5996SOL    HW123308   8.106   3.449   4.142 -0.1958  0.5051 -1.0665
 5996SOL    HW223309   8.007   3.505   4.242  0.4256  0.8872 -0.6597
 5997SOL     OW23310   7.409   6.640   8.848  0.4492  0.3919  0.1605
 5997SOL    HW123311   7.469   6.588   8.796 -0.7343  0.0872 -0.9508
 5997SOL    HW223312   7.398   6.591   8.929  2.4756  0.9738  0.8485
 5998SOL     OW23313   5.748   3.413   4.779  0.1037 -0.1126  0.3326
 5998SOL    HW123314   5.683   3.477   4.806 -0.6850 -0.9241  0.4128
 5998SOL    HW223315   5.814   3.463   4.731 -1.4175  0.5132 -1.2183
 5999SOL     OW23316   8.439   1.040   2.614  0.0823 -0.1092 -0.4105
 5999SOL    HW123317   8.450   0.962   2.667 -1.6785 -1.9162 -2.5097
 5999SOL    HW223318   8.392   1.101   2.671  1.0979 -0.6867  1.1165
 6000SOL     OW23319   8.545   7.391   4.684 -0.6165  0.1418  0.0563
 6000SOL    HW123320   8.481   7.429   4.744  0.3631 -0.0556  1.2762
 6000SOL    HW223321   8.628   7.398   4.731  0.0205 -0.9550 -0.8718
 6001SOL     OW23322   8.325   1.916   3.256  0.0595 -0.0689  0.2524
 6001SOL    HW123323   8.312   1.874   3.171 -0.9010  1.3100 -0.3188
 6001SOL    HW223324   8.262   1.875   3.314  0.2474 -0.5415  0.1237
 6002SOL     OW23325   7.676   0.510  11.528  0.1644  0.4988 -0.0486
 6002SOL    HW123326   7.583   0.532  11.524  0.2102  0.9855  1.0459
 6002SOL    HW223327   7.713   0.576  11.586  1.5592  1.4502 -1.9243
 6003SOL     OW23328   3.320   6.914   4.181  0.3734  0.2064 -0.4090
 6003SOL    HW123329   3.342   7.007   4.179 -0.5657  0.4184 -2.0380
 6003SOL    HW223330   3.384   6.873   4.122  0.5676 -0.1404  0.0379
 6004SOL     OW23331   3.425   3.054   9.553 -0.4854  0.9820  0.2710
 6004SOL    HW123332   3.425   2.991   9.481  1.1528 -0.3274  1.3473
 6004SOL    HW223333   3.423   3.139   9.509 -1.8658  0.2284 -1.2440
 6005SOL     OW23334   6.855   0.808  10.624 -0.1638  0.1159  0.0088
 6005SOL    HW123335   6.849   0.873  10.694  0.7068 -0.7557  0.9264
 6005SOL    HW223336   6.835   0.857  10.544  2.4454  1.9983  0.3893
 6006SOL     OW23337  11.315   7.465  10.561  0.3520 -0.0119 -0.2094
 6006SOL    HW123338  11.405   7.483  10.586  0.4281 -0.6602  0.0123
 6006SOL    HW223339  11.278   7.419  10.637  0.1825 -0.7797 -0.7465
 6007SOL     OW23340   0.677   7.757   3.457  0.2865 -0.0846 -0.5136
 6007SOL    HW123341   0.766   7.739   3.490 -0.3891 -3.5537 -0.1605
 6007SOL    HW223342   0.691   7.783   3.366  1.7302  1.6292  0.1288
 6008SOL     OW23343  11.438   0.536   5.045 -0.5692 -0.6097 -0.2415
 6008SOL    HW123344  11.526   0.520   5.080 -1.0488  0.5540  1.6201
 6008SOL    HW223345  11.401   0.602   5.104 -2.1164  0.0944 -1.9439
 6009SOL     OW23346   9.354  10.843   3.392  0.7655 -0.3449  0.0302
 6009SOL    HW123347   9.379  10.854   3.300  0.0683 -0.8422 -0.2230
 6009SOL    HW223348   9.421  10.785   3.428  1.4541  0.4287  0.0323
 6010SOL     OW23349   6.150   8.727   8.968  0.2069 -0.1757  0.0650
 6010SOL    HW123350   6.072   8.689   9.008  0.1207  1.5826  1.6824
 6010SOL    HW223351   6.223   8.689   9.016  0.1559  0.9229  1.0602
 6011SOL     OW23352   7.438   3.759   7.467  0.4378  0.1908 -0.5478
 6011SOL    HW123353   7.475   3.671   7.463  1.9252  0.7760 -0.1866
 6011SOL    HW223354   7.396   3.771   7.382 -0.2789 -1.0638 -0.3968
 6012SOL     OW23355   8.734   6.805   5.547  0.1969 -0.2230 -0.2910
 6012SOL    HW123356   8.675   6.806   5.623  1.1998 -0.0195  0.5137
 6012SOL    HW223357   8.683   6.844   5.476 -0.9228 -0.8393  0.1480
 6013SOL     OW23358  10.778   8.815   1.968  0.0890 -0.3235  0.4644
 6013SOL    HW123359  10.780   8.888   1.906 -1.0136 -0.8249 -0.1984
 6013SOL    HW223360  10.704   8.834   2.025 -1.0560 -1.5518 -0.5539
 6014SOL     OW23361   6.482   1.957   0.051  0.0871 -0.1150  0.1030
 6014SOL    HW123362   6.470   1.917  -0.035 -0.0189  1.5283 -0.6805
 6014SOL    HW223363   6.417   1.914   0.107  0.4262 -1.4878 -0.5143
 6015SOL     OW23364   3.181   8.575   9.605  0.3381 -0.4963  0.1469
 6015SOL    HW123365   3.217   8.487   9.616  0.7443 -0.4610 -0.7974
 6015SOL    HW223366   3.114   8.566   9.538  0.2886 -0.1086  0.1406
 6016SOL     OW23367   2.055   3.554   5.121  0.1454  0.5207 -0.4133
 6016SOL    HW123368   2.106   3.503   5.059  0.7232  1.5761 -0.8350
 6016SOL    HW223369   1.964   3.528   5.105  0.3892 -0.0077 -0.9507
 6017SOL     OW23370   4.386  11.417   4.657  0.6602 -0.2961 -0.0816
 6017SOL    HW123371   4.399  11.384   4.746 -1.0617 -1.5315 -0.2338
 6017SOL    HW223372   4.299  11.456   4.659  0.1176 -1.3801 -1.5011
 6018SOL     OW23373   2.734   7.045   7.295  0.2944  0.0040  0.2037
 6018SOL    HW123374   2.796   7.105   7.255  0.3182 -0.0531  0.1540
 6018SOL    HW223375   2.656   7.051   7.241 -0.5561  1.7381  1.5327
 6019SOL     OW23376   5.900   3.522   4.127  0.1933  0.2105 -0.4388
 6019SOL    HW123377   5.979   3.471   4.143  0.3135  0.4202 -0.3619
 6019SOL    HW223378   5.896   3.530   4.031  1.0378  1.3958 -0.4035
 6020SOL     OW23379   6.651   4.470   2.286 -0.1126  0.0857  0.0480
 6020SOL    HW123380   6.688   4.385   2.266 -1.8311 -0.9945  1.1656
 6020SOL    HW223381   6.564   4.468   2.246  0.2006  1.7465 -0.8123
 6021SOL     OW23382   0.300   1.469   9.815 -0.6375 -0.0991  0.5856
 6021SOL    HW123383   0.242   1.394   9.804  0.9975 -1.1446 -1.3024
 6021SOL    HW223384   0.261   1.537   9.760 -0.3811 -0.6108 -0.2322
 6022SOL     OW23385  10.445  11.826   9.378 -0.2782 -0.3809 -0.3376
 6022SOL    HW123386  10.412  11.816   9.467  0.0798 -2.4950 -0.3815
 6022SOL    HW223387  10.530  11.783   9.379 -0.0028  0.0817 -1.5663
 6023SOL     OW23388   9.428   1.018   3.992 -0.3052  0.3428  0.4518
 6023SOL    HW123389   9.441   0.963   4.069 -0.6648  0.2161  0.4228
 6023SOL    HW223390   9.464   0.967   3.919  1.6548  1.1778  0.7573
 6024SOL     OW23391   0.162   9.294   8.741 -0.0723 -0.3646 -0.4553
 6024SOL    HW123392   0.107   9.338   8.805  0.5598 -0.5863  0.2510
 6024SOL    HW223393   0.153   9.201   8.760  1.1616 -0.3707  0.2013
 6025SOL     OW23394   8.807  10.331   1.499 -0.2045 -0.4479  0.2724
 6025SOL    HW123395   8.864  10.314   1.424  0.3163 -0.1928  0.6047
 6025SOL    HW223396   8.807  10.249   1.548 -0.7448 -0.6935 -0.1352
 6026SOL     OW23397   9.274   0.429   0.341  0.3050  0.3470  0.6269
 6026SOL    HW123398   9.217   0.367   0.388  1.1588  0.3550  1.7198
 6026SOL    HW223399   9.236   0.515   0.359  0.8978  0.4012  1.7853
 6027SOL     OW23400   6.083   4.323  11.641  0.3312 -0.4060  0.1092
 6027SOL    HW123401   6.027   4.264  11.590 -0.3503  0.2161  0.1179
 6027SOL    HW223402   6.171   4.307  11.608  0.0331 -0.7534 -0.5394
 6028SOL     OW23403   5.029   1.979   2.560  0.0016  0.3106 -0.3611
 6028SOL    HW123404   5.106   2.008   2.609  1.0291 -1.8236 -0.6100
 6028SOL    HW223405   5.012   1.891   2.592 -0.1045 -0.6468 -2.8645
 6029SOL     OW23406   3.177   8.121   8.989 -0.2329  0.6098 -0.4210
 6029SOL    HW123407   3.120   8.087   8.921  0.4567  0.1409 -0.7813
 6029SOL    HW223408   3.219   8.043   9.027 -0.3175  0.8930  0.2786
 6030SOL     OW23409   1.141   1.647   1.725  0.1381  0.0254  0.5067
 6030SOL    HW123410   1.208   1.608   1.782  1.8329  0.5847 -1.0143
 6030SOL    HW223411   1.128   1.735   1.759  1.2164  0.3921 -0.0037
 6031SOL     OW23412   3.051   0.607  11.789  0.2281 -0.0408 -0.6746
 6031SOL    HW123413   2.989   0.637  11.855  1.7830 -0.3914  1.0424
 6031SOL    HW223414   3.076   0.687  11.743 -0.5442  0.2899 -0.5380
 6032SOL     OW23415   3.990   3.051   7.025 -0.0605  0.4266 -0.0121
 6032SOL    HW123416   3.902   3.053   6.988 -1.1282  1.0179  2.3650
 6032SOL    HW223417   3.986   2.986   7.096  1.5818  0.0559 -0.2038
 6033SOL     OW23418   3.741   8.094   8.324 -0.0561  0.3285  0.5356
 6033SOL    HW123419   3.686   8.085   8.246 -1.7124  0.1400  1.6596
 6033SOL    HW223420   3.714   8.021   8.380  1.0424  0.5069  1.3224
 6034SOL     OW23421   6.260  10.102   2.507  0.3940  0.2857 -0.4314
 6034SOL    HW123422   6.194  10.063   2.450  0.3569  1.6735 -1.3938
 6034SOL    HW223423   6.218  10.180   2.542  1.4024  1.0451 -0.8479
 6035SOL     OW23424   3.451   1.416   3.827 -0.0092 -0.0981  0.1978
 6035SOL    HW123425   3.378   1.360   3.854  0.1484  0.4553  1.8797
 6035SOL    HW223426   3.461   1.398   3.734 -1.2433 -1.3878  0.2715
 6036SOL     OW23427   9.200   7.128   9.141 -0.2630  0.4449 -0.4052
 6036SOL    HW123428   9.196   7.096   9.050 -0.2933  0.2482 -0.3359
 6036SOL    HW223429   9.258   7.066   9.185 -2.9733 -1.5982  0.5534
 6037SOL     OW23430   6.659   2.086  10.152  0.7146  0.0629  0.5501
 6037SOL    HW123431   6.686   2.122  10.068  0.1656  0.1486  0.4026
 6037SOL    HW223432   6.688   2.151  10.216 -0.8075  1.1068  0.2330
 6038SOL     OW23433   8.450   9.298   9.330 -0.0877 -0.0607  0.6263
 6038SOL    HW123434   8.530   9.299   9.276  0.3476  1.8573  1.2213
 6038SOL    HW223435   8.379   9.291   9.266  0.4927 -0.3188 -0.0133
 6039SOL     OW23436   6.800  10.928   6.899 -0.2624  0.1119 -0.0414
 6039SOL    HW123437   6.854  10.864   6.945 -0.4935  0.2409  0.4148
 6039SOL    HW223438   6.817  10.911   6.806 -0.1455 -0.4518  0.0783
 6040SOL     OW23439   7.304   9.288   0.769  0.3942  0.6446 -0.1367
 6040SOL    HW123440   7.214   9.300   0.738  0.6167 -1.4324 -1.8118
 6040SOL    HW223441   7.310   9.194   0.788  1.8492  0.9839  1.2542
 6041SOL     OW23442   4.310   1.958  11.168  0.3408  0.0277 -0.0925
 6041SOL    HW123443   4.265   1.883  11.208  1.6579 -1.5455 -1.4476
 6041SOL    HW223444   4.397   1.959  11.208  0.6823  0.2074 -0.8241
 6042SOL     OW23445  11.153   4.267   5.285 -0.0425  0.3900 -0.1547
 6042SOL    HW123446  11.096   4.244   5.359 -1.5320 -1.8396 -1.8772
 6042SOL    HW223447  11.184   4.355   5.306 -2.1089  0.7029  2.1043
 6043SOL     OW23448   6.628   4.292   1.047  0.0023  0.6365 -0.2285
 6043SOL    HW123449   6.667   4.234   0.982  0.7832  0.0512  0.7446
 6043SOL    HW223450   6.649   4.380   1.016 -1.2312  0.4493 -1.7427
 6044SOL     OW23451   6.633   1.204  10.189 -0.2780 -0.2757  0.0863
 6044SOL    HW123452   6.674   1.261  10.124 -2.9694  0.6902 -0.9242
 6044SOL    HW223453   6.595   1.133  10.137 -0.8447 -0.5027  0.7911
 6045SOL     OW23454   8.237   9.134  10.938  0.5539 -0.1492  0.9469
 6045SOL    HW123455   8.235   9.130  11.034  1.6584  0.1974  1.0053
 6045SOL    HW223456   8.291   9.059  10.913 -0.4303 -0.7359  0.5341
 6046SOL     OW23457   8.542   2.127   2.530 -0.5783 -0.4716  0.2088
 6046SOL    HW123458   8.571   2.092   2.615  1.5768 -1.3331 -0.7963
 6046SOL    HW223459   8.522   2.219   2.548  3.8618  0.5834  0.9685
 6047SOL     OW23460   5.179  11.287   1.990  0.5557 -0.0685 -0.1230
 6047SOL    HW123461   5.158  11.240   2.070 -1.4043  0.3502 -0.3419
 6047SOL    HW223462   5.113  11.356   1.984  2.1295  1.4669 -0.8468
 6048SOL     OW23463   4.439   9.253  10.230  0.0099 -0.3402 -0.0725
 6048SOL    HW123464   4.369   9.243  10.165 -0.8359 -0.0201  0.7516
 6048SOL    HW223465   4.404   9.317  10.293  0.6022 -0.9907  0.9533
 6049SOL     OW23466   1.305   9.102   5.012 -0.0912 -0.3428  0.1477
 6049SOL    HW123467   1.399   9.104   4.992 -0.4778  0.3531 -1.7696
 6049SOL    HW223468   1.287   9.010   5.034  1.0653 -0.4325  0.8169
 6050SOL     OW23469   1.366   0.348   9.815 -0.2741  0.2423  0.3570
 6050SOL    HW123470   1.389   0.264   9.854 -1.0056 -0.1378 -0.0103
 6050SOL    HW223471   1.294   0.328   9.755  0.7936  0.8022 -1.2014
 6051SOL     OW23472   5.373   6.348   8.496  0.3045 -0.5805 -0.5809
 6051SOL    HW123473   5.445   6.363   8.558 -1.4053  1.1988  1.1244
 6051SOL    HW223474   5.373   6.426   8.440 -2.6388  1.5930  2.0648
 6052SOL     OW23475   1.949   8.893   0.709  0.2406  0.4460 -0.2611
 6052SOL    HW123476   1.974   8.815   0.660  0.2565  0.5188 -0.3693
 6052SOL    HW223477   1.930   8.861   0.797  0.9621  0.4225 -0.1056
 6053SOL     OW23478   2.556   0.339   5.298  0.6695 -0.2637 -0.4105
 6053SOL    HW123479   2.622   0.368   5.361 -0.2753 -2.1379  1.5731
 6053SOL    HW223480   2.527   0.254   5.331 -2.7664  0.4739 -1.1458
 6054SOL     OW23481   6.907   8.068  11.330 -0.7188 -0.3355 -0.1556
 6054SOL    HW123482   6.995   8.091  11.299 -1.0128  0.5008 -0.4127
 6054SOL    HW223483   6.855   8.146  11.312 -1.3135 -0.4888  0.8218
 6055SOL     OW23484   1.572   9.118   4.935 -0.4703  0.3473 -0.2485
 6055SOL    HW123485   1.609   9.081   5.015  0.6334 -0.2455 -1.0138
 6055SOL    HW223486   1.606   9.063   4.864 -0.0278  1.8875 -1.2889
 6056SOL     OW23487   6.978   2.298   8.330  0.0469  0.4212 -0.0568
 6056SOL    HW123488   6.958   2.371   8.272 -0.8343 -0.5142 -0.9834
 6056SOL    HW223489   6.941   2.323   8.414  1.0877  1.6767  0.0468
 6057SOL     OW23490   6.975   7.159   4.625  0.0280  0.1882 -0.3578
 6057SOL    HW123491   6.956   7.241   4.580 -0.7158  0.3794  0.2758
 6057SOL    HW223492   7.018   7.186   4.706  0.5493 -0.1005 -0.5341
 6058SOL     OW23493   8.665   6.798   7.149 -0.0900 -0.3175  0.2217
 6058SOL    HW123494   8.712   6.805   7.232 -1.5258 -2.3428  1.2948
 6058SOL    HW223495   8.672   6.705   7.126  0.1458  0.1729 -1.8757
 6059SOL     OW23496   5.564   3.160   9.692  1.2140  0.6033 -0.3937
 6059SOL    HW123497   5.522   3.132   9.611  1.0658 -0.5442  0.0472
 6059SOL    HW223498   5.497   3.212   9.737  0.1102 -1.3195  0.3663
 6060SOL     OW23499   9.354   3.442   2.241 -0.5409 -0.0139  0.5123
 6060SOL    HW123500   9.432   3.424   2.293 -1.0422 -0.6179  1.0623
 6060SOL    HW223501   9.385   3.439   2.150  0.6646  2.4953  0.7344
 6061SOL     OW23502   7.321   1.568   5.089  0.0323 -0.3274 -0.0037
 6061SOL    HW123503   7.353   1.503   5.027 -0.3923 -0.5467  0.0013
 6061SOL    HW223504   7.396   1.588   5.145  0.8179  0.8790 -1.4148
 6062SOL     OW23505   3.895   9.277   4.600  0.3801  0.3103 -0.2681
 6062SOL    HW123506   3.833   9.205   4.608  0.3342  0.3202 -0.5309
 6062SOL    HW223507   3.896   9.299   4.507  0.4638  0.5881 -0.2054
 6063SOL     OW23508   2.297   3.628   6.534 -0.1971 -0.5553  0.0855
 6063SOL    HW123509   2.259   3.541   6.546  1.6965 -1.6895 -1.5328
 6063SOL    HW223510   2.364   3.635   6.601  0.0050 -0.5588 -0.1152
 6064SOL     OW23511   6.540   2.773   3.667 -0.3659 -0.2588 -0.3716
 6064SOL    HW123512   6.574   2.855   3.702 -2.5466  1.7633 -2.5722
 6064SOL    HW223513   6.484   2.738   3.736 -1.5355  1.5932 -0.3045
 6065SOL     OW23514   4.960   7.127   7.383 -0.4753 -0.1663  0.1302
 6065SOL    HW123515   4.903   7.194   7.344 -0.6418 -0.1386  0.4173
 6065SOL    HW223516   4.985   7.071   7.310 -0.3707  0.1869 -0.1043
 6066SOL     OW23517   8.023   2.528   7.039 -0.1792  0.0155  0.3957
 6066SOL    HW123518   8.053   2.565   6.956 -0.5058 -0.9826 -0.1794
 6066SOL    HW223519   7.951   2.469   7.016  0.1828 -0.8273  1.2953
 6067SOL     OW23520   8.862   8.076   1.490  0.1316 -0.4590 -0.1562
 6067SOL    HW123521   8.869   8.150   1.430  1.5511 -0.1438  0.3563
 6067SOL    HW223522   8.834   8.116   1.573  2.5687 -0.1593  0.6129
 6068SOL     OW23523   3.606  11.516   7.051  0.2696 -0.1275  0.1629
 6068SOL    HW123524   3.640  11.481   7.133  0.1681 -0.1977  0.1744
 6068SOL    HW223525   3.614  11.611   7.061  2.6705 -0.1564 -0.7390
 6069SOL     OW23526  11.650   0.329   1.317  0.1705 -0.5893 -0.2666
 6069SOL    HW123527  11.710   0.282   1.375 -0.1966  0.4607  1.0064
 6069SOL    HW223528  11.702   0.349   1.239  0.4546 -2.7052 -0.6801
 6070SOL     OW23529   1.874   3.197   3.796 -0.0646  0.0737  0.2606
 6070SOL    HW123530   1.817   3.206   3.872  1.2730 -0.8192  1.4354
 6070SOL    HW223531   1.900   3.287   3.774 -0.0307  0.3146  1.2337
 6071SOL     OW23532   6.382   7.719   7.197 -0.3353  0.1986 -0.4743
 6071SOL    HW123533   6.296   7.720   7.154 -0.9912  0.4744  0.7826
 6071SOL    HW223534   6.370   7.773   7.275  0.2331 -1.7874  1.0696
 6072SOL     OW23535   7.929   3.442   8.086 -0.9028  0.1941 -0.2286
 6072SOL    HW123536   7.870   3.458   8.160 -0.3725  1.2493 -0.0078
 6072SOL    HW223537   7.980   3.365   8.113 -0.9306  0.3781  0.3680
 6073SOL     OW23538   1.012   1.930   3.490  0.3853 -0.1086  0.0641
 6073SOL    HW123539   0.968   1.881   3.559  0.6050  1.1500  1.1441
 6073SOL    HW223540   0.998   1.878   3.411 -1.4585 -0.6651  0.7079
 6074SOL     OW23541   2.684  10.423   3.553  0.2566  0.1407 -0.1743
 6074SOL    HW123542   2.649  10.409   3.465 -0.8899 -1.5894  0.5052
 6074SOL    HW223543   2.626  10.373   3.610  1.7474  0.1527  1.4358
 6075SOL     OW23544   2.352   5.453  10.244 -0.2872 -0.0918 -0.1902
 6075SOL    HW123545   2.432   5.406  10.221 -0.2419 -0.0444 -0.1309
 6075SOL    HW223546   2.287   5.384  10.259 -0.6159 -0.0951 -1.5208
 6076SOL     OW23547   6.451  10.101   2.885 -0.4298 -0.0043  0.3582
 6076SOL    HW123548   6.496  10.032   2.836 -0.4044  0.4839 -0.3221
 6076SOL    HW223549   6.359  10.077   2.882 -0.5274  0.4718 -0.6820
 6077SOL     OW23550   4.205   0.823  10.734  0.5085  0.7354  0.1376
 6077SOL    HW123551   4.262   0.748  10.719  0.1758  0.4474  0.3068
 6077SOL    HW223552   4.116   0.788  10.728  0.3529  0.9159  1.1877
 6078SOL     OW23553   8.803   9.000   6.866  0.2881 -0.0480 -0.2236
 6078SOL    HW123554   8.740   9.025   6.799 -0.4569  0.2270  0.5503
 6078SOL    HW223555   8.760   9.023   6.949  1.0618 -0.6267  0.3578
 6079SOL     OW23556   7.446   8.010   0.215 -0.1380 -0.4068  0.0005
 6079SOL    HW123557   7.448   8.079   0.149 -1.0639  0.1672  0.5417
 6079SOL    HW223558   7.501   7.940   0.180  0.2460  0.3293 -0.8737
 6080SOL     OW23559   1.314   7.394   6.417 -0.1676 -0.0783  0.2143
 6080SOL    HW123560   1.361   7.386   6.500 -0.6877  0.1774  0.5342
 6080SOL    HW223561   1.241   7.454   6.436 -0.3884 -0.1551 -0.3804
 6081SOL     OW23562   6.727   7.482   9.430 -0.6245 -0.0906  0.2985
 6081SOL    HW123563   6.690   7.452   9.348 -1.5939  0.7203  0.4179
 6081SOL    HW223564   6.718   7.578   9.427  1.3806  0.1518  0.3779
 6082SOL     OW23565   4.790   3.506   6.817  0.1599 -0.8387 -0.1270
 6082SOL    HW123566   4.821   3.430   6.768 -2.6172 -2.2882  0.1835
 6082SOL    HW223567   4.867   3.534   6.867  2.0760 -1.5433 -2.4854
 6083SOL     OW23568   5.482   6.260   9.198  0.5945  0.0719 -0.1539
 6083SOL    HW123569   5.515   6.273   9.109 -1.1248 -0.1583 -0.8509
 6083SOL    HW223570   5.410   6.322   9.207  1.2171  0.6309  1.3767
 6084SOL     OW23571   1.664   3.168   9.059  0.1125  0.3167  0.6808
 6084SOL    HW123572   1.659   3.242   9.120  0.0566  0.9387 -0.0517
 6084SOL    HW223573   1.664   3.209   8.972 -0.6491 -0.5732  0.2368
 6085SOL     OW23574   7.744   8.014   7.602 -0.1471 -0.1350 -0.0607
 6085SOL    HW123575   7.655   7.996   7.634  0.3239  2.7613  3.5180
 6085SOL    HW223576   7.801   7.966   7.662  0.7646  0.4831 -0.4153
 6086SOL     OW23577   2.178   3.366   8.325  0.3336  0.3758  0.1592
 6086SOL    HW123578   2.183   3.430   8.254  0.8772  0.1395 -0.0200
 6086SOL    HW223579   2.130   3.412   8.394  1.8931  1.5022  0.5579
 6087SOL     OW23580   4.304   1.886   4.549  0.3663  0.4920 -0.4139
 6087SOL    HW123581   4.246   1.918   4.619  0.9057 -1.5927  1.0855
 6087SOL    HW223582   4.391   1.918   4.573  0.5850 -0.3901  0.0086
 6088SOL     OW23583   4.152   9.525   2.429 -0.1363  0.2652 -0.2857
 6088SOL    HW123584   4.195   9.440   2.415  0.7979  0.5087  0.9680
 6088SOL    HW223585   4.060   9.502   2.444 -0.1505 -0.4042 -1.2818
 6089SOL     OW23586   5.669  11.640   9.537 -0.1106  0.0006  0.0967
 6089SOL    HW123587   5.582  11.617   9.569  0.4470 -0.9003  1.0205
 6089SOL    HW223588   5.654  11.668   9.447 -1.3214 -0.3919  0.1514
 6090SOL     OW23589   6.550   8.667   3.252 -0.2118  0.3455  0.1796
 6090SOL    HW123590   6.578   8.579   3.229  1.9626  0.9556  0.3003
 6090SOL    HW223591   6.575   8.721   3.176 -1.4027  0.8979  0.1544
 6091SOL     OW23592   8.677   5.640   5.932 -0.2763 -0.2395 -0.1978
 6091SOL    HW123593   8.687   5.727   5.895  2.8766 -0.0072  0.8894
 6091SOL    HW223594   8.732   5.584   5.877 -0.2636 -1.0294  0.5917
 6092SOL     OW23595   3.204  11.520  11.718  0.2665  0.2924 -0.2795
 6092SOL    HW123596   3.266  11.593  11.717  0.7364 -0.0987  0.0362
 6092SOL    HW223597   3.243  11.455  11.659  0.3978 -0.1529  0.2956
 6093SOL     OW23598   0.950   1.456  11.474 -0.0349  0.0841  0.3841
 6093SOL    HW123599   0.916   1.394  11.409  1.9461  1.0576 -1.7508
 6093SOL    HW223600   0.873   1.505  11.503 -1.0569 -0.6250 -0.9876
 6094SOL     OW23601   7.427  10.679   4.859  0.4088 -0.4803  0.4076
 6094SOL    HW123602   7.370  10.626   4.914  0.2497  1.3385  2.0915
 6094SOL    HW223603   7.379  10.760   4.846  1.0868 -0.2985 -1.2365
 6095SOL     OW23604  10.031   7.234   4.770 -0.6324 -0.1270  0.1691
 6095SOL    HW123605  10.094   7.225   4.699 -0.1705 -1.4110  0.7011
 6095SOL    HW223606   9.953   7.187   4.739 -1.1474  0.9647 -0.2521
 6096SOL     OW23607   9.965   3.507   2.725  0.3673 -0.4787 -0.3377
 6096SOL    HW123608   9.950   3.502   2.819  0.9879  0.2815 -0.1921
 6096SOL    HW223609   9.877   3.517   2.687 -0.2726 -3.9275 -0.1271
 6097SOL     OW23610   9.686   6.798   5.197 -0.5090  0.6444 -0.4348
 6097SOL    HW123611   9.731   6.735   5.253 -1.4927  0.6488  0.3853
 6097SOL    HW223612   9.700   6.766   5.108  0.4851  0.2481 -0.1488
 6098SOL     OW23613   4.616   3.369   5.287 -0.2079 -0.0556  0.1308
 6098SOL    HW123614   4.632   3.419   5.367 -0.1226  1.3490 -0.7380
 6098SOL    HW223615   4.551   3.304   5.312 -0.2822  0.4539  1.3105
 6099SOL     OW23616   2.191   8.220   1.050  0.1634  0.5194  0.0424
 6099SOL    HW123617   2.206   8.299   1.101 -0.7023 -0.6338  2.2787
 6099SOL    HW223618   2.257   8.222   0.981  1.5872  2.1001  1.3560
 6100SOL     OW23619   0.443   9.051   1.629 -0.3585  0.3078 -0.8206
 6100SOL    HW123620   0.397   9.002   1.697 -1.4264  1.6711 -0.5073
 6100SOL    HW223621   0.497   8.986   1.584  0.4123 -0.6296  1.3454
 6101SOL     OW23622  10.421   7.202   1.565 -0.5487  0.0220  0.4413
 6101SOL    HW123623  10.396   7.194   1.473 -0.1919  1.3128  0.2184
 6101SOL    HW223624  10.341   7.230   1.609 -0.1022  1.9569  0.0868
 6102SOL     OW23625   2.788   9.647   0.704 -0.6158  0.0316  0.2465
 6102SOL    HW123626   2.774   9.554   0.721  2.8173 -0.8321 -0.8319
 6102SOL    HW223627   2.761   9.658   0.613 -0.7758  0.0536  0.2952
 6103SOL     OW23628   8.496   1.006   7.137 -0.1181  0.0307  0.0351
 6103SOL    HW123629   8.460   1.090   7.166  0.6085  0.2483  0.3101
 6103SOL    HW223630   8.519   0.961   7.219  1.5926  0.4888 -0.1686
 6104SOL     OW23631   5.990   4.843   7.860 -0.0493  0.1035 -0.3227
 6104SOL    HW123632   5.967   4.838   7.953 -0.9764 -1.0550 -0.6013
 6104SOL    HW223633   6.005   4.936   7.844 -0.1347  0.3456  0.9198
 6105SOL     OW23634  11.381   9.025   5.869 -0.0614 -0.1629 -0.1934
 6105SOL    HW123635  11.443   8.978   5.925  0.5961 -1.2618 -1.7749
 6105SOL    HW223636  11.401   9.117   5.883  1.4130 -0.4767 -0.0601
 6106SOL     OW23637  10.090   8.410   3.555 -1.1734 -0.3366  0.3153
 6106SOL    HW123638  10.056   8.387   3.469  0.5419  0.6720 -0.7002
 6106SOL    HW223639  10.127   8.329   3.589 -0.0519 -0.3223 -0.8179
 6107SOL     OW23640  11.168  11.420   1.330  0.3214 -0.6492  0.3340
 6107SOL    HW123641  11.204  11.481   1.394  2.2578 -0.8207 -0.5151
 6107SOL    HW223642  11.170  11.335   1.374  2.7331 -0.9672 -0.2581
 6108SOL     OW23643   4.218   1.034   6.565  0.0753  0.0975  0.5784
 6108SOL    HW123644   4.216   0.953   6.514 -1.4502  1.7831 -2.2806
 6108SOL    HW223645   4.248   1.101   6.503  0.8697  1.8512  2.7060
 6109SOL     OW23646   0.918   0.643   7.198 -0.0568 -0.3303 -0.5007
 6109SOL    HW123647   0.856   0.582   7.238  2.1908 -2.4866 -0.0120
 6109SOL    HW223648   0.890   0.729   7.228 -0.9696 -1.4822  2.3088
 6110SOL     OW23649   5.045  10.376   6.769  0.0852  0.3719 -0.1446
 6110SOL    HW123650   5.048  10.381   6.674  0.4697  0.5369 -0.1260
 6110SOL    HW223651   5.133  10.348   6.795 -0.7172 -2.2659  0.0353
 6111SOL     OW23652   8.493   3.318   4.852 -0.0375 -0.3017  0.1598
 6111SOL    HW123653   8.423   3.337   4.788 -0.1770 -0.8644  0.1465
 6111SOL    HW223654   8.570   3.301   4.798  0.3991  1.3590  0.1856
 6112SOL     OW23655   7.257   2.522   2.847 -0.2686 -0.1461  0.2864
 6112SOL    HW123656   7.206   2.561   2.776  0.0202 -1.1424 -0.4897
 6112SOL    HW223657   7.274   2.595   2.907 -1.2525  0.5292 -0.2222
 6113SOL     OW23658   4.192   9.314  10.049  0.0240 -0.2871  0.0517
 6113SOL    HW123659   4.121   9.257  10.076 -0.0413 -0.2249  0.0143
 6113SOL    HW223660   4.189   9.312   9.953  0.5605 -0.8843  0.0480
 6114SOL     OW23661   7.904   6.875   1.231 -0.2726  0.0228 -0.2884
 6114SOL    HW123662   7.833   6.896   1.170 -0.7093 -1.8726 -0.5003
 6114SOL    HW223663   7.872   6.903   1.317 -1.6431 -1.4498 -0.2702
 6115SOL     OW23664   0.566   7.724   0.240 -0.0556 -0.0456 -0.1603
 6115SOL    HW123665   0.474   7.749   0.236 -0.2924 -0.7802  0.4512
 6115SOL    HW223666   0.611   7.803   0.269 -0.2966  0.7183 -1.7410
 6116SOL     OW23667   4.568   0.703   6.486 -0.6478 -0.5652  0.2513
 6116SOL    HW123668   4.560   0.796   6.506  1.6194 -0.3228  0.2468
 6116SOL    HW223669   4.522   0.692   6.403 -0.4732  0.6545 -0.0218
 6117SOL     OW23670   2.081   7.958   8.279 -1.1994 -0.5234 -0.1551
 6117SOL    HW123671   2.072   8.053   8.292 -1.6972 -0.7959  1.9439
 6117SOL    HW223672   2.020   7.938   8.207 -2.0886  0.5773  0.2526
 6118SOL     OW23673   4.202   7.955   4.180  0.1741  0.6473 -0.0743
 6118SOL    HW123674   4.215   8.049   4.169  1.6278  0.5745  0.8650
 6118SOL    HW223675   4.255   7.915   4.112 -0.0808  0.4787 -0.1775
 6119SOL     OW23676   7.808   9.129  11.634  0.6188 -0.1676  0.3154
 6119SOL    HW123677   7.849   9.068  11.572  1.0906 -0.6318  1.0688
 6119SOL    HW223678   7.714   9.111  11.626  0.5108  0.9999 -1.5208
 6120SOL     OW23679   5.888   6.171   6.264  0.0064  0.2077  0.0859
 6120SOL    HW123680   5.819   6.114   6.299 -0.5109  0.6754 -0.1491
 6120SOL    HW223681   5.880   6.251   6.314  1.1105 -0.1122  0.8124
 6121SOL     OW23682   9.187   2.681  10.510 -0.2363 -0.2629  0.3987
 6121SOL    HW123683   9.231   2.634  10.439 -0.6110  1.7201 -1.2418
 6121SOL    HW223684   9.151   2.612  10.566  1.2762 -1.8973 -0.5526
 6122SOL     OW23685   0.529   0.475   8.404 -0.5202  0.5153 -0.0194
 6122SOL    HW123686   0.512   0.448   8.314  2.5184  0.7115 -0.7430
 6122SOL    HW223687   0.489   0.563   8.410 -0.9798  0.3962 -1.0649
 6123SOL     OW23688  10.418   9.998   3.154  0.8479  0.0324 -0.2760
 6123SOL    HW123689  10.422   9.934   3.082  1.9083 -2.5559  1.9060
 6123SOL    HW223690  10.382  10.077   3.114 -0.5484 -1.8989 -3.1779
 6124SOL     OW23691   2.538   1.706   0.894 -0.1258 -0.3596 -0.3761
 6124SOL    HW123692   2.551   1.636   0.958  0.2047  0.0749  0.0447
 6124SOL    HW223693   2.606   1.691   0.828  1.4341  0.8267  0.8616
 6125SOL     OW23694   8.811   8.325   0.552 -0.0774 -0.0016  0.1869
 6125SOL    HW123695   8.874   8.260   0.520  0.6366  1.1286 -0.7807
 6125SOL    HW223696   8.853   8.362   0.629 -0.7438 -1.0533  1.0917
 6126SOL     OW23697   0.916  11.612   6.509 -0.4175  0.6389  0.5185
 6126SOL    HW123698   0.925  11.611   6.604 -0.6976  1.7553  0.5675
 6126SOL    HW223699   0.965  11.689   6.481 -1.3380  1.0059 -0.1300
 6127SOL     OW23700   1.164   6.407   7.845 -0.2327 -0.0408  0.7492
 6127SOL    HW123701   1.168   6.461   7.924  1.2323 -1.0262  1.4062
 6127SOL    HW223702   1.255   6.398   7.817 -0.6219 -0.6327 -0.4159
 6128SOL     OW23703   2.222  10.671   9.200  0.0929 -0.6874  0.7655
 6128SOL    HW123704   2.297  10.705   9.249 -0.1465  0.2720  0.4864
 6128SOL    HW223705   2.158  10.743   9.202 -0.3191 -1.0250 -0.0694
 6129SOL     OW23706  10.365   9.815   4.592  0.4236 -0.0072  0.2879
 6129SOL    HW123707  10.425   9.874   4.638  0.4559 -1.0878  1.6971
 6129SOL    HW223708  10.415   9.784   4.517  1.1311  0.1911  0.6613
 6130SOL     OW23709   7.116   5.317   1.779 -0.1803  0.4840 -0.1353
 6130SOL    HW123710   7.043   5.298   1.837 -1.4623 -1.1152 -2.1352
 6130SOL    HW223711   7.079   5.374   1.712  0.1967 -0.8706 -1.5423
 6131SOL     OW23712   8.086   0.155  11.168  0.2574 -0.2035  0.2879
 6131SOL    HW123713   8.140   0.203  11.231  0.4864 -0.7464  0.5138
 6131SOL    HW223714   8.149   0.115  11.108  0.1128 -0.8297  0.5454
 6132SOL     OW23715   4.700   4.929   0.679  0.4392  0.0374 -0.2026
 6132SOL    HW123716   4.750   4.957   0.756 -0.8840 -0.8504  1.0546
 6132SOL    HW223717   4.609   4.926   0.710 -0.2172  0.2413 -1.9970
 6133SOL     OW23718   1.773   7.351   5.120  0.3655  0.3626 -0.1444
 6133SOL    HW123719   1.678   7.343   5.109  0.4805 -0.0092 -0.9250
 6133SOL    HW223720   1.794   7.435   5.079  0.4352  0.2118 -0.4225
 6134SOL     OW23721  11.461   0.414   1.058  0.3988  0.2852 -0.0183
 6134SOL    HW123722  11.442   0.364   0.978  1.7087 -1.3760  0.6511
 6134SOL    HW223723  11.555   0.403   1.071 -0.0781 -1.2133  2.8364
 6135SOL     OW23724   8.452  10.805   0.869 -0.3048  0.3467 -0.0595
 6135SOL    HW123725   8.515  10.751   0.916  0.1488  0.5443 -0.4296
 6135SOL    HW223726   8.368  10.762   0.883  0.3313 -1.8935 -2.3399
 6136SOL     OW23727   1.748   6.629   0.847 -0.1707  0.9506 -0.0419
 6136SOL    HW123728   1.823   6.686   0.861 -0.1978  0.7252  1.0749
 6136SOL    HW223729   1.697   6.636   0.928 -0.8443  0.3428 -0.4054
 6137SOL     OW23730  11.479   1.992   0.768 -0.3768  0.8304 -0.1826
 6137SOL    HW123731  11.455   2.035   0.850  1.8355 -1.2795  1.6976
 6137SOL    HW223732  11.455   1.901   0.781  3.1246 -0.2465 -0.4283
 6138SOL     OW23733   5.984  11.255   4.239  0.5389 -0.3839 -0.2919
 6138SOL    HW123734   5.976  11.170   4.195 -1.5210 -0.7554  0.6988
 6138SOL    HW223735   5.903  11.300   4.218 -1.0778 -0.9830  3.8523
 6139SOL     OW23736   3.025   7.468  10.336  0.0566  0.3159  0.0381
 6139SOL    HW123737   2.977   7.405  10.389  0.5766 -0.2951 -0.2060
 6139SOL    HW223738   3.010   7.440  10.246  1.8277 -0.6023  0.0020
 6140SOL     OW23739   2.252   6.377  10.344 -0.5826 -0.4399  0.3048
 6140SOL    HW123740   2.219   6.337  10.425 -1.3325  1.4144  0.9696
 6140SOL    HW223741   2.194   6.451  10.329  1.5277  1.2141 -0.1331
 6141SOL     OW23742   2.568   5.858   9.863 -0.3610  0.3357 -0.9633
 6141SOL    HW123743   2.621   5.803   9.920  0.5432  1.3614 -0.7682
 6141SOL    HW223744   2.492   5.804   9.840  0.0002 -0.6142  0.0039
 6142SOL     OW23745  11.695   2.972  11.001  0.3133 -0.1860  0.3855
 6142SOL    HW123746  11.634   3.014  11.063  2.6577  0.3487  2.4902
 6142SOL    HW223747  11.722   2.892  11.046 -1.6273 -2.4815 -2.1929
 6143SOL     OW23748   3.893  10.604   5.024  0.2443  0.5323  0.1196
 6143SOL    HW123749   3.874  10.514   5.051  2.1770  0.3184  0.9045
 6143SOL    HW223750   3.889  10.655   5.105  1.5432  0.7010  0.0992
 6144SOL     OW23751   2.317   6.251   9.935  0.2036  0.3242  0.5071
 6144SOL    HW123752   2.252   6.319   9.956 -0.8757 -0.4428 -0.2314
 6144SOL    HW223753   2.267   6.170   9.936  0.9440 -0.1868 -0.9775
 6145SOL     OW23754   0.915   7.201   9.710 -0.3357 -0.2679  0.2377
 6145SOL    HW123755   0.870   7.152   9.641 -2.0058  1.5630 -0.0859
 6145SOL    HW223756   1.007   7.201   9.682 -0.7680 -0.6612 -1.3289
 6146SOL     OW23757   0.801  10.297   4.405 -0.7264  0.1851 -0.1310
 6146SOL    HW123758   0.732  10.238   4.374 -0.0969 -0.5710 -0.1002
 6146SOL    HW223759   0.787  10.302   4.500 -0.6486 -0.0796 -0.1064
 6147SOL     OW23760   3.991   1.406   2.517  0.3125  0.0482  0.0124
 6147SOL    HW123761   3.997   1.492   2.476 -0.7042 -0.3626 -1.0431
 6147SOL    HW223762   4.054   1.351   2.470  1.5365  0.3728  1.1973
 6148SOL     OW23763   0.656   2.353   7.533 -0.0712  0.5383  0.0299
 6148SOL    HW123764   0.677   2.406   7.456  1.4175  1.0563  0.7592
 6148SOL    HW223765   0.675   2.263   7.507  2.4323  0.8952  0.3716
 6149SOL     OW23766  10.494   0.462   0.399  0.5387 -0.2431 -0.0175
 6149SOL    HW123767  10.406   0.432   0.421  1.1627 -1.0150  1.5981
 6149SOL    HW223768  10.528   0.395   0.340  0.1319 -0.0693 -0.4513
 6150SOL     OW23769   4.500   1.073   2.540 -0.1853  0.4590  0.2401
 6150SOL    HW123770   4.422   1.020   2.556  1.3591 -1.4933  1.7688
 6150SOL    HW223771   4.556   1.017   2.488  0.4563  1.6418 -0.3841
 6151SOL     OW23772   4.052   2.778  11.014 -0.2241  0.1432 -0.6754
 6151SOL    HW123773   3.986   2.784  11.083  0.5119 -2.1178  0.3219
 6151SOL    HW223774   4.131   2.747  11.059  0.8311  0.4427 -2.2413
 6152SOL     OW23775   4.618   4.696   2.859  0.1375 -0.2779  0.3212
 6152SOL    HW123776   4.623   4.779   2.812  0.3288 -0.1012  0.6468
 6152SOL    HW223777   4.527   4.692   2.890 -0.7550 -1.5839 -2.1676
 6153SOL     OW23778   7.914   5.139   3.401  0.0667 -0.3319  0.1607
 6153SOL    HW123779   7.963   5.156   3.321 -1.4732 -1.8382 -1.1588
 6153SOL    HW223780   7.826   5.116   3.372 -1.2403  1.3445  2.3974
 6154SOL     OW23781  11.493   7.849   8.000 -0.3547  0.1531 -0.5034
 6154SOL    HW123782  11.438   7.873   7.925  0.6848  2.3970 -0.6219
 6154SOL    HW223783  11.579   7.831   7.963 -0.2948 -0.6028 -0.0257
 6155SOL     OW23784   2.037   3.621   9.113  0.1860 -0.0320 -0.0949
 6155SOL    HW123785   2.130   3.610   9.131 -0.2576 -1.8347  1.3503
 6155SOL    HW223786   2.000   3.651   9.195 -0.4199  1.5604 -0.9080
 6156SOL     OW23787   7.454   7.838  11.041  0.1628  0.2962 -0.5023
 6156SOL    HW123788   7.527   7.870  10.987 -0.3221  0.0693 -1.3089
 6156SOL    HW223789   7.382   7.824  10.979 -1.1570  2.2094  0.5099
 6157SOL     OW23790   4.612   0.147   1.912  0.0724  0.5426  0.7083
 6157SOL    HW123791   4.569   0.086   1.972 -0.0291  0.7717  0.8688
 6157SOL    HW223792   4.700   0.111   1.900 -0.9285 -1.3665 -1.6458
 6158SOL     OW23793   1.274   0.290   5.925  0.1668 -0.3027  0.0191
 6158SOL    HW123794   1.314   0.246   5.999  0.3455  0.5037  0.4134
 6158SOL    HW223795   1.324   0.260   5.849  1.7314  0.8991  0.5315
 6159SOL     OW23796   4.710   9.425   5.436 -0.1965  0.3557 -0.0360
 6159SOL    HW123797   4.707   9.399   5.344  0.3278 -0.7992  0.2519
 6159SOL    HW223798   4.802   9.441   5.454 -0.4392  1.8446 -0.0250
 6160SOL     OW23799   4.335   8.505   1.470  0.2251 -0.5514  0.3208
 6160SOL    HW123800   4.280   8.427   1.470 -1.4128  0.5413  1.0152
 6160SOL    HW223801   4.366   8.513   1.380  0.2303 -1.8563  0.1909
 6161SOL     OW23802   4.253   7.110   8.581 -0.0561 -0.2075  0.2111
 6161SOL    HW123803   4.253   7.079   8.491  0.6504  1.0883 -0.2580
 6161SOL    HW223804   4.270   7.032   8.633  0.1667 -0.8660 -0.8146
 6162SOL     OW23805   9.268  10.748   0.299  0.1186 -0.1915 -0.1761
 6162SOL    HW123806   9.333  10.786   0.358  0.4627 -0.7707 -0.1741
 6162SOL    HW223807   9.185  10.759   0.345  0.6443 -3.2526  1.8867
 6163SOL     OW23808   5.913   0.274  11.777 -0.0827 -0.2374 -0.4958
 6163SOL    HW123809   5.980   0.279  11.845 -1.0820  0.4714  0.4712
 6163SOL    HW223810   5.835   0.243  11.823 -0.8212  0.4191 -1.2826
 6164SOL     OW23811   4.411   8.290   4.447  0.6265 -0.3025 -0.3276
 6164SOL    HW123812   4.343   8.354   4.426 -0.4990 -1.3976 -0.1064
 6164SOL    HW223813   4.466   8.288   4.369  0.1457  0.2682 -0.6950
 6165SOL     OW23814  10.113   2.859   5.840  0.3919  0.3985 -0.0758
 6165SOL    HW123815  10.123   2.951   5.865  0.1284  0.4240 -0.0600
 6165SOL    HW223816  10.019   2.843   5.844  0.3320  0.4247 -1.1369
 6166SOL     OW23817   8.411   1.647  10.186  0.2803 -0.2235  0.4677
 6166SOL    HW123818   8.468   1.664  10.111  0.4624 -2.0535  0.1347
 6166SOL    HW223819   8.337   1.597  10.149  0.3326 -1.0797  1.4656
 6167SOL     OW23820   7.407   8.034   9.805 -0.0426 -0.7271 -0.5973
 6167SOL    HW123821   7.368   7.987   9.878  0.4190  0.9145  0.7701
 6167SOL    HW223822   7.342   8.101   9.783  1.3263  1.1914  0.8369
 6168SOL     OW23823   5.583   1.307   7.782  0.0283  0.1320  0.0618
 6168SOL    HW123824   5.530   1.311   7.703  2.0850  1.3143 -1.3334
 6168SOL    HW223825   5.637   1.229   7.771  0.2724  0.2612  0.3305
 6169SOL     OW23826   1.533   9.861   3.308  0.7441  0.8782 -0.1811
 6169SOL    HW123827   1.579   9.785   3.342  2.0081  1.3009 -0.8895
 6169SOL    HW223828   1.466   9.880   3.374  0.7366 -0.5163  0.2512
 6170SOL     OW23829   1.957  10.484   9.996  0.5244 -0.2565 -0.5183
 6170SOL    HW123830   1.867  10.454  10.011 -0.1123  1.8517  0.3093
 6170SOL    HW223831   1.983  10.523  10.079  2.3129 -1.0197 -0.6893
 6171SOL     OW23832   2.728   1.864  10.056 -0.4203  0.3926 -0.5014
 6171SOL    HW123833   2.759   1.790  10.109 -0.2396 -1.3891 -2.9522
 6171SOL    HW223834   2.805   1.920  10.047 -0.0815  0.0143 -0.0334
 6172SOL     OW23835   6.475   1.592  11.684 -0.5384  0.5470 -0.0070
 6172SOL    HW123836   6.442   1.539  11.611  2.1682  0.0606 -0.9813
 6172SOL    HW223837   6.469   1.535  11.760  0.4567 -0.4632 -0.6626
 6173SOL     OW23838   8.462   7.566  10.099  0.3310  0.0421  0.7231
 6173SOL    HW123839   8.437   7.583  10.009  1.3759  3.1476  0.8842
 6173SOL    HW223840   8.556   7.584  10.102  0.5819 -1.2350  2.1946
 6174SOL     OW23841   6.647   5.091   3.539 -0.2789  0.2523  0.1183
 6174SOL    HW123842   6.599   5.050   3.467 -0.8976 -0.8896  1.1582
 6174SOL    HW223843   6.641   5.185   3.521 -1.9649  0.0746 -0.3647
 6175SOL     OW23844   4.092   3.702   9.198 -0.3361 -0.3700  0.1050
 6175SOL    HW123845   4.112   3.654   9.279 -1.1769 -0.7062  0.1159
 6175SOL    HW223846   4.026   3.649   9.154  3.3180 -2.7558 -3.1695
 6176SOL     OW23847   3.337   7.357   1.100 -0.9356  0.3009 -0.3650
 6176SOL    HW123848   3.270   7.292   1.121 -0.9448  0.2390 -0.5851
 6176SOL    HW223849   3.392   7.361   1.178 -2.4882  1.9635  0.7255
 6177SOL     OW23850   5.058   6.281   6.726  0.5256 -0.1722 -0.6944
 6177SOL    HW123851   5.055   6.186   6.738 -2.1141 -0.0683  0.2991
 6177SOL    HW223852   5.129   6.310   6.783  1.0729 -1.5219 -0.6531
 6178SOL     OW23853   2.680   5.517   8.418  0.1132 -0.2642  0.3971
 6178SOL    HW123854   2.612   5.561   8.367  0.4373  0.9156  0.9378
 6178SOL    HW223855   2.738   5.479   8.353  0.8836  1.7713 -0.2044
 6179SOL     OW23856   5.790   2.811   4.804  0.2251  0.0579  0.0083
 6179SOL    HW123857   5.775   2.770   4.889  0.7793  1.8069  0.9838
 6179SOL    HW223858   5.884   2.801   4.788  0.4384  1.2148  0.4316
 6180SOL     OW23859  11.388   3.708   5.038  0.1487 -0.0652  0.0128
 6180SOL    HW123860  11.443   3.696   4.960 -1.2199 -2.6882 -0.6583
 6180SOL    HW223861  11.304   3.668   5.015 -0.8711  0.5964  2.2688
 6181SOL     OW23862   8.415  11.036   4.195  0.1781 -0.2666 -0.2480
 6181SOL    HW123863   8.399  11.042   4.290  0.8078 -0.6024 -0.1133
 6181SOL    HW223864   8.510  11.034   4.187  0.3941  3.6793 -1.1230
 6182SOL     OW23865   1.953   8.685   8.654 -0.3310 -0.7856 -0.3662
 6182SOL    HW123866   2.041   8.674   8.618 -0.2845 -0.0562 -0.4863
 6182SOL    HW223867   1.894   8.669   8.581 -0.2350  0.7825 -0.8059
 6183SOL     OW23868   9.662   1.671   6.088 -0.2529  0.4149 -0.3182
 6183SOL    HW123869   9.726   1.612   6.128 -0.7082 -0.1622 -0.4231
 6183SOL    HW223870   9.709   1.712   6.015 -0.2366 -0.6525 -0.9322
 6184SOL     OW23871  11.244   5.087   4.197  0.0111 -0.2293  0.0222
 6184SOL    HW123872  11.224   5.084   4.291  0.9108 -1.3166  0.1994
 6184SOL    HW223873  11.258   5.180   4.179  0.6287 -0.0829  1.1482
 6185SOL     OW23874   1.846   2.753   6.506 -0.6259  0.4962 -0.1612
 6185SOL    HW123875   1.752   2.747   6.492 -0.3646 -0.7474 -1.7562
 6185SOL    HW223876   1.869   2.671   6.549 -0.1905  0.5328 -0.3198
 6186SOL     OW23877  10.130   6.145   9.965 -0.1840  0.0389  0.1771
 6186SOL    HW123878  10.131   6.123   9.872  0.1074  0.1155  0.1628
 6186SOL    HW223879  10.070   6.081  10.004 -0.2455 -0.0417 -0.0495
 6187SOL     OW23880   9.648  11.270   8.669 -0.0147  0.4607  0.0328
 6187SOL    HW123881   9.732  11.267   8.713 -0.3637  1.3214  0.7869
 6187SOL    HW223882   9.646  11.190   8.616  0.5056 -0.5026  1.4039
 6188SOL     OW23883   1.556  11.404   6.014  0.3588 -0.2175  0.3260
 6188SOL    HW123884   1.651  11.401   6.014  0.4075  0.6501 -1.0180
 6188SOL    HW223885   1.530  11.318   6.047  1.5756  0.0024  2.0031
 6189SOL     OW23886   3.226   0.566  11.030 -0.0914  0.1608 -0.1253
 6189SOL    HW123887   3.281   0.595  10.957 -0.9473  1.5002 -0.2806
 6189SOL    HW223888   3.220   0.643  11.087 -0.4887 -0.4707  0.7084
 6190SOL     OW23889   6.128   3.619   9.712 -0.5613 -0.4697 -0.0470
 6190SOL    HW123890   6.072   3.695   9.729  1.7316  2.0098 -2.4215
 6190SOL    HW223891   6.132   3.613   9.617  0.8483 -2.4209  0.0776
 6191SOL     OW23892   8.737   7.586   7.012 -0.2774  0.3001  0.0959
 6191SOL    HW123893   8.771   7.632   7.089  0.5516  1.4944 -0.9358
 6191SOL    HW223894   8.813   7.543   6.974  0.0270  2.3497 -1.7988
 6192SOL     OW23895   6.992   9.333   6.633  0.5341  0.2750  0.4510
 6192SOL    HW123896   6.925   9.350   6.700  0.4428  0.4192  0.3267
 6192SOL    HW223897   7.004   9.418   6.591 -3.6822 -0.7383 -3.6949
 6193SOL     OW23898   7.961   2.810  11.146 -0.0548  0.6421 -0.2142
 6193SOL    HW123899   7.866   2.809  11.143 -0.0612 -0.2658 -0.0569
 6193SOL    HW223900   7.985   2.736  11.202  0.7550  0.1958 -1.0987
 6194SOL     OW23901  10.841   4.914   7.055  0.1709 -0.4096 -0.0690
 6194SOL    HW123902  10.854   4.876   6.968  0.5226  0.7334 -0.5373
 6194SOL    HW223903  10.789   4.993   7.040 -0.9423 -0.9325  0.9325
 6195SOL     OW23904   2.937   4.764  10.635 -0.1292 -0.1361  0.6314
 6195SOL    HW123905   2.978   4.796  10.555 -0.8896  1.2391  0.7465
 6195SOL    HW223906   2.981   4.813  10.705  0.2505 -1.0310  1.0371
 6196SOL     OW23907   2.150   3.195   7.277 -0.8464 -0.1603  0.1125
 6196SOL    HW123908   2.080   3.232   7.223  0.1063 -0.3724 -1.3313
 6196SOL    HW223909   2.231   3.230   7.239  0.3266 -4.8845 -2.6280
 6197SOL     OW23910  11.565   0.699   6.067  0.1321 -0.2260  0.2565
 6197SOL    HW123911  11.498   0.656   6.014 -0.6235 -1.8623  2.3929
 6197SOL    HW223912  11.620   0.628   6.099  2.4756  1.0050 -0.7555
 6198SOL     OW23913   8.403   9.271   9.928 -0.3606 -0.0402  0.1815
 6198SOL    HW123914   8.450   9.344   9.967  0.1995  0.2896 -1.0621
 6198SOL    HW223915   8.321   9.309   9.897  0.2028  0.2210 -1.0342
 6199SOL     OW23916   0.014  11.116   4.941  0.3315  0.1703  0.0147
 6199SOL    HW123917   0.091  11.157   4.980  2.0071 -1.2043 -1.6671
 6199SOL    HW223918   0.013  11.028   4.977 -0.2246  0.0467 -0.2893
 6200SOL     OW23919   0.485   7.017  10.145 -0.3454  0.4817 -0.0191
 6200SOL    HW123920   0.482   6.987  10.054  0.4611 -0.1445  0.1562
 6200SOL    HW223921   0.401   7.062  10.158 -1.1390 -0.7766 -0.5967
 6201SOL     OW23922   2.573   4.041   6.442  0.5829 -0.7210  0.0194
 6201SOL    HW123923   2.634   4.098   6.395  1.1022 -0.3881  1.0643
 6201SOL    HW223924   2.489   4.055   6.398  0.2088  2.4771  1.5146
 6202SOL     OW23925   2.292   8.415   1.262 -0.0304 -0.0144 -0.2524
 6202SOL    HW123926   2.357   8.398   1.331  0.2314  1.4380 -0.1070
 6202SOL    HW223927   2.217   8.451   1.309  0.7553  2.5805 -0.7991
 6203SOL     OW23928   4.327   2.270   8.378  0.3582 -0.4088 -0.1409
 6203SOL    HW123929   4.348   2.178   8.395  0.6665 -0.3914 -0.4252
 6203SOL    HW223930   4.292   2.302   8.462  2.0521 -0.2765  0.5455
 6204SOL     OW23931   9.155   8.709   0.726 -0.1636  0.1821  0.3429
 6204SOL    HW123932   9.231   8.765   0.747 -0.0106 -0.6178  2.0301
 6204SOL    HW223933   9.176   8.625   0.765 -1.7409 -0.1917  0.4244
 6205SOL     OW23934   3.666   6.992   4.284 -0.9437 -0.0821 -0.0568
 6205SOL    HW123935   3.733   7.039   4.334 -3.0349  0.2957  2.6427
 6205SOL    HW223936   3.616   7.061   4.241  0.0431 -0.3428 -1.7225
 6206SOL     OW23937   2.458   8.801  10.592 -0.4873 -0.0804  0.0980
 6206SOL    HW123938   2.457   8.896  10.602 -0.6619  0.0344 -0.9313
 6206SOL    HW223939   2.523   8.785  10.524 -0.4666 -0.7019  0.2566
 6207SOL     OW23940   8.280   8.896   8.219 -0.0580 -0.0276 -0.4538
 6207SOL    HW123941   8.232   8.964   8.171  2.1064  1.7015 -0.3101
 6207SOL    HW223942   8.340   8.859   8.154  0.5739 -0.0022  0.1099
 6208SOL     OW23943   5.882  11.058   8.692 -0.1285  0.0102 -0.0141
 6208SOL    HW123944   5.901  11.150   8.708 -0.4575  0.1225 -0.2545
 6208SOL    HW223945   5.835  11.029   8.770  0.7663 -0.1919  0.4541
 6209SOL     OW23946   3.210   8.509   0.341  0.1511 -0.1750  0.1075
 6209SOL    HW123947   3.225   8.572   0.411 -0.0352  0.4657 -0.4236
 6209SOL    HW223948   3.117   8.485   0.350 -0.7291  2.1529 -1.7030
 6210SOL     OW23949   6.851  10.011   1.279 -0.1605  0.4245  0.7267
 6210SOL    HW123950   6.802  10.080   1.234 -1.3857 -0.7517  0.2042
 6210SOL    HW223951   6.937  10.012   1.236 -0.9434  0.0629 -0.9263
 6211SOL     OW23952  10.382   4.716  10.180  0.5234  0.1163 -0.4475
 6211SOL    HW123953  10.336   4.748  10.102 -1.2892  0.9781  0.9002
 6211SOL    HW223954  10.330   4.642  10.210  0.0846  0.9641  0.9783
 6212SOL     OW23955   8.792   1.606  10.964  0.2931 -0.2670  0.1188
 6212SOL    HW123956   8.706   1.644  10.951 -0.0297 -1.6767 -2.6645
 6212SOL    HW223957   8.837   1.617  10.880  1.6532 -2.2945  0.4942
 6213SOL     OW23958   0.006  11.411   4.806 -0.1115 -0.0238  0.0582
 6213SOL    HW123959   0.068  11.408   4.733 -0.1226  1.5687 -0.0450
 6213SOL    HW223960   0.021  11.329   4.853 -0.3316 -1.2523 -1.8941
 6214SOL     OW23961   7.953   2.494   4.221  0.4023  0.3761 -0.1604
 6214SOL    HW123962   8.011   2.523   4.151  0.7763 -0.1488 -0.0688
 6214SOL    HW223963   7.952   2.399   4.214  1.1285  0.2633  1.0950
 6215SOL     OW23964   6.653  10.875   2.205 -0.7291 -0.5896  0.3282
 6215SOL    HW123965   6.596  10.909   2.275  0.0642 -1.2479  1.3195
 6215SOL    HW223966   6.742  10.894   2.235 -0.3882  1.1701 -1.5808
 6216SOL     OW23967   4.678   1.120   4.378  0.1808 -0.1906 -0.0674
 6216SOL    HW123968   4.601   1.174   4.398 -0.3202 -0.7024 -0.5896
 6216SOL    HW223969   4.655   1.032   4.408  1.0304 -0.1194  0.8602
 6217SOL     OW23970   2.565   6.622   9.452  0.3136 -0.0735 -0.1074
 6217SOL    HW123971   2.478   6.610   9.412 -0.1738  0.0296  0.8870
 6217SOL    HW223972   2.616   6.547   9.422 -0.6051 -0.9873  0.5382
 6218SOL     OW23973   3.992   3.012   7.844  0.6786  0.1965  0.1800
 6218SOL    HW123974   4.081   2.978   7.839  0.8409  0.6948 -0.4842
 6218SOL    HW223975   3.994   3.094   7.794  0.1739  0.9185  1.2891
 6219SOL     OW23976   6.896   5.641   4.647  0.2919 -0.2867  0.2728
 6219SOL    HW123977   6.881   5.593   4.565 -1.8112 -0.3655  0.6468
 6219SOL    HW223978   6.949   5.583   4.700 -1.0635 -1.6581  0.1907
 6220SOL     OW23979   9.097   5.513   1.816 -0.0667  0.6606 -0.0678
 6220SOL    HW123980   9.186   5.537   1.841  0.1273  0.0580 -0.1751
 6220SOL    HW223981   9.048   5.513   1.898  0.6611 -1.7145  0.4187
 6221SOL     OW23982   1.675   9.584   7.131 -0.0677  0.1433 -0.2311
 6221SOL    HW123983   1.630   9.566   7.049 -0.0704  0.3692 -0.2821
 6221SOL    HW223984   1.768   9.579   7.109 -0.0490 -1.2074  0.0725
 6222SOL     OW23985   2.824   1.730  10.854  0.3224  0.0481 -0.5873
 6222SOL    HW123986   2.744   1.749  10.806  0.5761 -0.0642 -1.0612
 6222SOL    HW223987   2.832   1.802  10.917 -0.6531 -0.4385  0.1250
 6223SOL     OW23988   4.755   7.612   5.592 -0.0874  0.1711 -0.0051
 6223SOL    HW123989   4.710   7.676   5.537  1.3782  1.8747  0.6776
 6223SOL    HW223990   4.691   7.590   5.660 -1.0874 -0.1948 -1.0109
 6224SOL     OW23991   2.860   2.388   6.747 -0.2960 -0.0110  0.6852
 6224SOL    HW123992   2.950   2.382   6.781  0.4845  0.0209 -1.2158
 6224SOL    HW223993   2.871   2.423   6.658 -2.1566 -0.5142  0.2223
 6225SOL     OW23994   1.710   4.750  10.578 -0.0510 -0.2952 -0.0956
 6225SOL    HW123995   1.722   4.845  10.581  0.9024 -0.4161  1.2592
 6225SOL    HW223996   1.787   4.718  10.532 -1.2179 -0.3369 -2.1207
 6226SOL     OW23997   4.449   9.231  10.695  0.3533  0.1072 -0.6746
 6226SOL    HW123998   4.485   9.240  10.783 -2.2182  0.8825  0.3996
 6226SOL    HW223999   4.448   9.137  10.679 -0.9297 -0.2215  1.0045
 6227SOL     OW24000   7.815   9.945  11.476 -0.2035 -0.2841  0.1410
 6227SOL    HW124001   7.845   9.931  11.386 -0.1391 -1.4401  0.3239
 6227SOL    HW224002   7.737   9.889  11.485  0.2224 -0.7660  1.0136
 6228SOL     OW24003   1.672   5.045   5.243  0.0814  0.1527  0.4149
 6228SOL    HW124004   1.762   5.049   5.273 -0.2003 -1.1431  1.5176
 6228SOL    HW224005   1.677   5.010   5.154  0.6459  0.0025  0.5073
 6229SOL     OW24006   7.559   3.389   9.367  0.0483 -0.2035 -0.8293
 6229SOL    HW124007   7.591   3.321   9.426  0.8304  0.0164 -0.9847
 6229SOL    HW224008   7.496   3.345   9.310  1.3848 -1.0621 -1.6684
 6230SOL     OW24009   1.504   3.741  10.159  0.4351  0.0600  0.2887
 6230SOL    HW124010   1.470   3.813  10.105  2.4238  1.4237  0.7572
 6230SOL    HW224011   1.513   3.667  10.098 -0.1224  0.6820 -0.5683
 6231SOL     OW24012   3.623   6.916   8.091  0.0159 -0.0745 -0.2030
 6231SOL    HW124013   3.650   7.008   8.084  1.6890 -0.5802 -0.7239
 6231SOL    HW224014   3.704   6.866   8.085 -0.8878 -1.6173 -0.1512
 6232SOL     OW24015   1.659  11.599   7.498 -0.2155  0.4502  0.5226
 6232SOL    HW124016   1.707  11.681   7.505 -1.5836  1.3957 -0.5816
 6232SOL    HW224017   1.715  11.543   7.443  0.8151  0.5387  1.4494
 6233SOL     OW24018   0.942  10.933   2.114  0.3666 -0.1305  0.3868
 6233SOL    HW124019   0.974  10.904   2.028  0.7161 -2.7474  1.3189
 6233SOL    HW224020   0.883  11.006   2.094  4.7929  3.4350 -1.6270
 6234SOL     OW24021   5.083   8.268  10.810  0.2340 -0.0323  0.0721
 6234SOL    HW124022   5.152   8.326  10.841  0.2605  0.2263 -0.4596
 6234SOL    HW224023   5.068   8.208  10.882  0.6658  0.2249  0.3796
 6235SOL     OW24024   8.057   8.583  11.790 -0.0728  0.8259 -0.4164
 6235SOL    HW124025   7.992   8.653  11.798 -1.9811 -0.7953 -0.6833
 6235SOL    HW224026   8.054   8.538  11.875  0.6483  0.6904 -0.4596
 6236SOL     OW24027   7.941   4.121   3.198  0.3338 -0.8274 -0.0669
 6236SOL    HW124028   8.031   4.089   3.210  1.0759  1.7150  2.1246
 6236SOL    HW224029   7.952   4.213   3.172 -1.6797 -1.1251 -2.2440
 6237SOL     OW24030   0.938   2.187   3.430 -0.2139  0.1434  0.4277
 6237SOL    HW124031   0.953   2.093   3.431 -1.1029  0.0019  0.8727
 6237SOL    HW224032   1.002   2.220   3.366 -0.1297 -0.7922  0.0070
 6238SOL     OW24033   5.357   1.748   3.927 -0.0516 -0.0119  0.0498
 6238SOL    HW124034   5.274   1.702   3.935 -1.3674  1.8778 -1.7694
 6238SOL    HW224035   5.349   1.824   3.985 -0.1267  0.8281 -1.0210
 6239SOL     OW24036   2.212   6.357   2.873  0.3136  0.1067 -0.7090
 6239SOL    HW124037   2.168   6.402   2.801 -1.2808 -1.8040 -0.9915
 6239SOL    HW224038   2.244   6.276   2.836  0.0763 -0.6019  0.5663
 6240SOL     OW24039   5.246   9.290   3.271  0.1768 -0.3165  0.1957
 6240SOL    HW124040   5.265   9.364   3.213  0.5220 -1.7209 -1.5813
 6240SOL    HW224041   5.197   9.328   3.343  0.6911  1.7021 -0.4465
 6241SOL     OW24042   0.761   8.051   4.808  0.0657 -0.6649 -0.1541
 6241SOL    HW124043   0.667   8.037   4.816 -0.5426  3.0220  0.7980
 6241SOL    HW224044   0.777   8.056   4.714 -1.0089  0.3044 -0.2976
 6242SOL     OW24045   3.796   1.204  10.641  0.0201 -0.3529  0.4970
 6242SOL    HW124046   3.808   1.229  10.550  1.4113 -1.2844  0.4000
 6242SOL    HW224047   3.776   1.286  10.686  1.4828  0.4799 -0.3027
 6243SOL     OW24048   7.526   7.871  10.239 -0.7013 -0.4219 -0.0609
 6243SOL    HW124049   7.612   7.909  10.225 -0.9269  0.1411  0.0398
 6243SOL    HW224050   7.541   7.777  10.244  0.1982 -0.2247  2.0087
 6244SOL     OW24051   1.508   8.797  10.164 -0.1216  0.1066 -0.2663
 6244SOL    HW124052   1.476   8.886  10.174 -0.2760 -0.1212  1.4131
 6244SOL    HW224053   1.430   8.742  10.173  0.0171 -0.2349 -1.0127
 6245SOL     OW24054   5.565   5.568   9.045  0.5640 -0.1911 -0.5245
 6245SOL    HW124055   5.494   5.632   9.042  1.2820  0.5938 -1.0963
 6245SOL    HW224056   5.598   5.565   8.955  2.1414  0.4627  0.0056
 6246SOL     OW24057   7.299  11.265  10.638 -0.0395 -0.1030 -0.4435
 6246SOL    HW124058   7.312  11.207  10.713 -2.3737  0.1647  0.2488
 6246SOL    HW224059   7.212  11.241  10.603 -1.6123  3.5202  0.4788
 6247SOL     OW24060   6.937   8.318   3.089 -0.4664  0.0440 -0.9350
 6247SOL    HW124061   6.898   8.362   3.165  0.2882 -0.8042 -0.0144
 6247SOL    HW224062   7.027   8.300   3.116 -0.1615 -0.1989 -2.0808
 6248SOL     OW24063   2.030   3.088   8.680  0.1173  0.5275  0.2162
 6248SOL    HW124064   2.011   3.135   8.762 -0.3600 -0.2614  0.5749
 6248SOL    HW224065   1.949   3.096   8.629  0.3093  0.7566 -0.0541
 6249SOL     OW24066   1.136   6.940   9.438 -0.3312  0.4826  0.2551
 6249SOL    HW124067   1.182   6.909   9.516 -0.2798  1.2236  0.5295
 6249SOL    HW224068   1.189   6.908   9.365  0.0854  0.4978  0.5461
 6250SOL     OW24069   3.023   9.176   1.062  0.5244  0.1975 -0.2662
 6250SOL    HW124070   3.044   9.092   1.101  0.9747  0.5867  0.3435
 6250SOL    HW224071   2.950   9.210   1.115  0.1085  0.0424 -0.7267
 6251SOL     OW24072   5.126  11.756   9.300  0.1993  0.3955 -0.1663
 6251SOL    HW124073   5.116  11.793   9.212  1.0455 -1.1071 -0.9444
 6251SOL    HW224074   5.109  11.662   9.288  2.1965 -0.1461  0.8949
 6252SOL     OW24075   0.806   1.747   7.625  0.4562 -0.5909 -0.2997
 6252SOL    HW124076   0.852   1.667   7.647 -0.1349 -0.8076  0.1688
 6252SOL    HW224077   0.821   1.759   7.531 -1.8886 -2.8698 -1.0759
 6253SOL     OW24078   5.075   5.555   2.927  0.6184  0.2369  0.1260
 6253SOL    HW124079   5.142   5.572   2.862  1.2097 -0.1096  0.6305
 6253SOL    HW224080   5.109   5.482   2.978 -1.6669 -2.3976 -1.7828
 6254SOL     OW24081   3.581   0.822   8.546  0.3096  0.2722 -0.5015
 6254SOL    HW124082   3.493   0.787   8.558 -0.2857  1.2824 -1.6594
 6254SOL    HW224083   3.607   0.789   8.460  0.3689  1.3512 -0.9063
 6255SOL     OW24084   6.298   3.384   6.748  0.5799 -0.7043  0.4272
 6255SOL    HW124085   6.341   3.300   6.765  0.6721 -0.6306  0.5591
 6255SOL    HW224086   6.206   3.369   6.772  0.1799 -1.3346 -1.3317
 6256SOL     OW24087   9.457   3.202   3.522  0.6748  0.3437 -0.7074
 6256SOL    HW124088   9.454   3.289   3.483  0.7377  0.3909 -0.6078
 6256SOL    HW224089   9.377   3.159   3.491  1.3656 -0.0857 -1.9535
 6257SOL     OW24090   9.501   5.334   1.492  0.1872  0.4212  0.3647
 6257SOL    HW124091   9.440   5.407   1.505 -0.4947  0.1798 -1.2348
 6257SOL    HW224092   9.578   5.374   1.451  0.6954  0.5683  1.4532
 6258SOL     OW24093   2.199  11.534   3.199 -0.7976  0.1142  0.3448
 6258SOL    HW124094   2.157  11.536   3.285 -0.6263  1.7549  0.4204
 6258SOL    HW224095   2.244  11.619   3.193  0.3346 -0.5408 -0.7986
 6259SOL     OW24096   5.181   7.420   0.891  0.0932 -0.4182 -0.0778
 6259SOL    HW124097   5.228   7.392   0.970  3.1607 -0.9985 -1.9387
 6259SOL    HW224098   5.219   7.504   0.869  0.6343 -1.1117 -1.9234
 6260SOL     OW24099   2.695   9.894   9.492  0.1400 -0.0624  0.2707
 6260SOL    HW124100   2.780   9.933   9.512 -0.2161  0.6392  0.4062
 6260SOL    HW224101   2.638   9.968   9.472 -0.5892 -0.4914  0.7265
 6261SOL     OW24102   5.592   3.475  10.157 -0.7489  0.2363 -0.1361
 6261SOL    HW124103   5.504   3.490  10.191 -1.3788 -1.9379 -0.6493
 6261SOL    HW224104   5.584   3.491  10.063 -1.2117 -1.9779 -0.5464
 6262SOL     OW24105   5.638   7.365   9.306 -0.0103 -0.6190 -0.1929
 6262SOL    HW124106   5.719   7.355   9.356 -1.0240 -0.1148  1.6179
 6262SOL    HW224107   5.648   7.449   9.261  1.1469 -1.3389 -1.3680
 6263SOL     OW24108   1.304   4.253   4.980 -0.3940 -0.1942  0.3073
 6263SOL    HW124109   1.221   4.256   5.026  0.5357  1.4962  2.0668
 6263SOL    HW224110   1.344   4.170   5.006 -0.4668  0.1331  1.5175
 6264SOL     OW24111   1.086   6.284   1.017  0.3712 -0.0602  0.8096
 6264SOL    HW124112   1.023   6.357   1.015 -0.6574 -0.9343 -0.5812
 6264SOL    HW224113   1.166   6.321   0.981 -0.7041 -0.0431 -1.7861
 6265SOL     OW24114   4.566   2.154   1.721 -0.1805 -0.4331  1.1132
 6265SOL    HW124115   4.522   2.236   1.700  0.3330  0.2040  2.4327
 6265SOL    HW224116   4.521   2.121   1.799 -0.7723 -1.7306  0.2537
 6266SOL     OW24117   7.563   3.319   2.149  0.1531 -0.1378 -0.3711
 6266SOL    HW124118   7.577   3.413   2.137  1.4262 -0.1341  0.8675
 6266SOL    HW224119   7.468   3.310   2.156  0.0227  1.1136 -0.1807
 6267SOL     OW24120  10.838   4.284   5.527  0.1528 -0.2802 -0.0250
 6267SOL    HW124121  10.877   4.249   5.606 -0.5800  0.5449  0.7230
 6267SOL    HW224122  10.752   4.242   5.522  0.3559 -0.6359 -0.6076
 6268SOL     OW24123   7.496  11.169   1.152 -0.8775 -0.0342  0.3990
 6268SOL    HW124124   7.486  11.076   1.134 -0.2981  0.0826 -0.6171
 6268SOL    HW224125   7.418  11.193   1.202 -0.4935 -1.2989  1.6674
 6269SOL     OW24126   4.473   9.557  11.045  0.4309  0.2202  0.8001
 6269SOL    HW124127   4.509   9.624  11.104  0.8587  0.6214  0.1033
 6269SOL    HW224128   4.468   9.601  10.960 -0.1673 -0.3528  0.5332
 6270SOL     OW24129  10.850   5.072  10.552  0.0841 -0.7920 -0.0114
 6270SOL    HW124130  10.767   5.114  10.574  0.1996 -1.0143  0.8675
 6270SOL    HW224131  10.897   5.138  10.502  0.6049  0.4820  2.0446
 6271SOL     OW24132   1.018  10.252  11.121 -0.2302 -0.1177 -0.3900
 6271SOL    HW124133   0.923  10.249  11.122 -0.3008  1.3754 -0.0636
 6271SOL    HW224134   1.043  10.235  11.212 -0.1602 -0.6238 -0.4969
 6272SOL     OW24135   7.019   6.914   0.964 -0.2722 -0.7419 -0.7162
 6272SOL    HW124136   6.940   6.860   0.967 -0.4538 -0.4822 -0.7571
 6272SOL    HW224137   6.986   7.004   0.964  0.0124 -0.6371 -1.0866
 6273SOL     OW24138   8.513   3.580   8.425 -0.2180 -0.2603  0.2278
 6273SOL    HW124139   8.430   3.568   8.379 -1.1484  2.1001  1.1986
 6273SOL    HW224140   8.490   3.618   8.509  1.7885 -0.4717  0.9357
 6274SOL     OW24141   7.095   3.213   6.139  0.0483 -0.2595 -0.2679
 6274SOL    HW124142   7.169   3.272   6.126 -0.1446  0.3293  1.1677
 6274SOL    HW224143   7.029   3.266   6.183 -0.4788 -1.3033  0.2387
 6275SOL     OW24144   2.265   8.645  11.271  0.1655  0.0442 -0.5529
 6275SOL    HW124145   2.357   8.622  11.276  0.3462  0.9216  0.6498
 6275SOL    HW224146   2.259   8.730  11.314 -1.1447  0.1831 -0.9657
 6276SOL     OW24147   7.384   5.315   7.111  0.3176  0.2923 -0.1557
 6276SOL    HW124148   7.364   5.377   7.181 -0.0039 -1.7428  1.6842
 6276SOL    HW224149   7.329   5.343   7.038 -3.4352 -0.3926  2.0951
 6277SOL     OW24150  11.215  11.246   7.328  0.3611  0.8109 -0.7623
 6277SOL    HW124151  11.272  11.196   7.269 -0.5869  1.1380 -1.9867
 6277SOL    HW224152  11.275  11.303   7.377  1.1591  0.5837 -1.4608
 6278SOL     OW24153   0.836   2.341   4.223  0.1713 -0.1526  0.2090
 6278SOL    HW124154   0.831   2.436   4.210 -1.3610  0.1023  2.0948
 6278SOL    HW224155   0.879   2.308   4.145  0.2772  2.0482 -0.7358
 6279SOL     OW24156   5.304   3.601   6.102 -0.1931  0.2815 -0.1451
 6279SOL    HW124157   5.357   3.613   6.180  0.2861  0.4797 -0.5005
 6279SOL    HW224158   5.365   3.569   6.035 -0.5581  0.3025 -0.4947
 6280SOL     OW24159   0.798   2.452   7.731  0.7224  0.2092  0.0763
 6280SOL    HW124160   0.743   2.396   7.676 -1.1753  1.5051  0.5578
 6280SOL    HW224161   0.835   2.516   7.670  2.1980 -0.9904 -0.3363
 6281SOL     OW24162   9.641   4.357  10.101  0.4845  0.0528  0.0019
 6281SOL    HW124163   9.545   4.365  10.096  0.3461 -1.5732 -0.4469
 6281SOL    HW224164   9.655   4.278  10.154  1.5881  0.2447  0.0080
 6282SOL     OW24165   4.082   0.992  11.693  0.7100  0.3139  0.5252
 6282SOL    HW124166   4.074   0.945  11.775 -2.1815  2.9184  1.9228
 6282SOL    HW224167   4.035   0.938  11.629  2.1957 -1.2810  0.7092
 6283SOL     OW24168   7.192   8.207   5.791  0.4735 -0.2965 -0.0577
 6283SOL    HW124169   7.264   8.248   5.742  1.0847 -1.8437 -0.5121
 6283SOL    HW224170   7.230   8.183   5.875  0.1172  0.0880  0.2137
 6284SOL     OW24171   8.028   0.983  10.152 -0.2206 -0.6329  0.4712
 6284SOL    HW124172   8.080   1.062  10.166 -0.2769 -0.7200  1.1741
 6284SOL    HW224173   8.055   0.952  10.065  2.0564 -1.5172  1.4149
 6285SOL     OW24174   2.801   3.769   4.047 -0.7501 -0.5528 -0.0710
 6285SOL    HW124175   2.754   3.752   4.129 -0.1924  0.2278  0.4234
 6285SOL    HW224176   2.878   3.819   4.074 -1.3318  1.0344 -1.2507
 6286SOL     OW24177  11.311   8.712   4.860  0.1961  0.0215 -0.3627
 6286SOL    HW124178  11.311   8.803   4.831  1.0318  0.9178  2.1592
 6286SOL    HW224179  11.404   8.687   4.859  0.3828  0.3711  2.0665
 6287SOL     OW24180   7.957  10.604   0.430  0.1688  0.4110  0.1387
 6287SOL    HW124181   8.037  10.619   0.380 -0.2472 -0.9064 -0.9756
 6287SOL    HW224182   7.912  10.689   0.429  2.0461  1.5229  1.8098
 6288SOL     OW24183   1.278   7.908   9.457 -0.2332 -0.0066 -0.2055
 6288SOL    HW124184   1.364   7.912   9.415 -0.5465 -1.4877 -1.0864
 6288SOL    HW224185   1.291   7.848   9.531 -0.9541 -2.0253 -1.6387
 6289SOL     OW24186   6.689  10.505   1.990  0.1726 -0.3423 -0.2825
 6289SOL    HW124187   6.751  10.573   2.015 -0.6016  0.6218 -0.9375
 6289SOL    HW224188   6.671  10.521   1.898 -1.7667  0.0141  0.1140
 6290SOL     OW24189   0.236  10.854   1.790  0.6853 -0.5003 -0.5277
 6290SOL    HW124190   0.304  10.917   1.814  0.0533  0.3397 -0.8474
 6290SOL    HW224191   0.237  10.854   1.694 -2.2172  2.4580 -0.7629
 6291SOL     OW24192   9.879   2.501  10.239 -0.2728  0.0331 -0.1712
 6291SOL    HW124193   9.799   2.454  10.217  0.3185 -0.3013 -1.7402
 6291SOL    HW224194   9.913   2.532  10.155  3.0310 -2.7173 -0.0679
 6292SOL     OW24195   1.734   7.438   8.508 -0.0657  0.2630 -0.3876
 6292SOL    HW124196   1.655   7.460   8.458  0.6413  1.8859 -0.8547
 6292SOL    HW224197   1.806   7.474   8.456  0.8365  0.3772  0.8965
 6293SOL     OW24198   0.756   0.634   3.773 -0.1452  0.0551 -0.5358
 6293SOL    HW124199   0.777   0.726   3.789  0.1593  0.1432 -1.3744
 6293SOL    HW224200   0.807   0.612   3.695  0.4461 -1.0630  0.1458
 6294SOL     OW24201   0.888   8.853  11.473 -0.0451  0.1022 -0.0580
 6294SOL    HW124202   0.908   8.802  11.552  0.9937 -0.0838 -0.4323
 6294SOL    HW224203   0.963   8.911  11.462 -0.4627  0.5446 -0.5744
 6295SOL     OW24204   8.310   3.480   0.307 -0.4773  0.1502  0.4967
 6295SOL    HW124205   8.363   3.422   0.253  0.4239 -0.5568  2.0650
 6295SOL    HW224206   8.226   3.487   0.261 -0.4935 -2.1306  0.0641
 6296SOL     OW24207  11.698   2.554   6.583 -0.1754  0.9984  0.3563
 6296SOL    HW124208  11.765   2.529   6.520  0.2669  0.2426  1.1013
 6296SOL    HW224209  11.726   2.640   6.615 -1.1162  2.0358 -1.4104
 6297SOL     OW24210   4.921  11.679   5.283  0.3451 -0.6903  0.1104
 6297SOL    HW124211   4.985  11.704   5.217  0.3373 -0.8141  0.0558
 6297SOL    HW224212   4.892  11.592   5.257 -1.5910  0.2776 -1.1998
 6298SOL     OW24213   6.691   2.718   0.809 -0.1001 -0.4200  0.5422
 6298SOL    HW124214   6.779   2.691   0.783 -0.7685 -2.1175 -0.1077
 6298SOL    HW224215   6.694   2.814   0.810  0.8611 -0.2896 -2.7515
 6299SOL     OW24216   3.702   9.818   1.451  0.1177 -0.6176 -0.0281
 6299SOL    HW124217   3.616   9.798   1.413  0.7032 -0.3121 -1.6163
 6299SOL    HW224218   3.764   9.797   1.381  1.1513  1.6554  0.1303
 6300SOL     OW24219   2.383  11.498   6.901 -0.0695 -0.1729 -0.3361
 6300SOL    HW124220   2.478  11.504   6.911 -0.0274  0.2304 -0.9467
 6300SOL    HW224221   2.353  11.460   6.983  0.6644 -0.7349 -0.3188
 6301SOL     OW24222   5.042   6.289   5.983  0.3735 -0.1772  0.5239
 6301SOL    HW124223   4.986   6.336   6.044  0.9443  1.4066 -0.1257
 6301SOL    HW224224   5.129   6.327   5.995  0.4300  0.5207 -1.5576
 6302SOL     OW24225   4.051   1.013   6.791 -0.1291 -0.4576  0.1442
 6302SOL    HW124226   4.115   1.037   6.724  1.0374  0.9730  1.7083
 6302SOL    HW224227   4.103   0.986   6.866 -1.4015 -1.0274  0.8496
 6303SOL     OW24228   7.105   6.977   0.594 -0.3382 -0.2963  0.1968
 6303SOL    HW124229   7.141   6.969   0.506  0.5215 -1.2673  0.6148
 6303SOL    HW224230   7.097   6.887   0.625  0.8993  0.0543  1.6976
 6304SOL     OW24231   0.630   2.871   4.039  0.1463 -0.6003 -0.3740
 6304SOL    HW124232   0.539   2.842   4.040 -0.2589  0.6594  0.2776
 6304SOL    HW224233   0.626   2.966   4.050  1.4995 -0.4017 -1.2952
 6305SOL     OW24234  10.367   3.123   8.644 -0.0730  0.3775 -0.0159
 6305SOL    HW124235  10.273   3.103   8.644  0.0076 -0.1251  1.5306
 6305SOL    HW224236  10.388   3.138   8.552 -1.7953  1.1332 -0.3217
 6306SOL     OW24237   2.192   7.795   5.978 -0.0416 -0.1897  0.2213
 6306SOL    HW124238   2.252   7.813   6.050 -2.8339  0.8213  2.4642
 6306SOL    HW224239   2.240   7.824   5.900  2.1144  1.1454  1.9131
 6307SOL     OW24240   5.922   5.772   2.431 -0.1810 -0.3111 -0.2571
 6307SOL    HW124241   5.966   5.857   2.423 -0.1850 -0.2299  0.4660
 6307SOL    HW224242   5.878   5.759   2.347  0.2889  0.1374 -0.5785
 6308SOL     OW24243   0.046   7.216   7.993  0.2622 -0.1480 -0.3791
 6308SOL    HW124244  -0.023   7.256   7.939  0.4903 -0.4008 -0.8694
 6308SOL    HW224245   0.121   7.209   7.934  0.7635  0.2735  0.2017
 6309SOL     OW24246   5.703   8.784  11.004  0.1702  0.6341  0.5517
 6309SOL    HW124247   5.721   8.711  11.064 -0.9740  0.4791  0.7291
 6309SOL    HW224248   5.781   8.838  11.008  1.7291 -1.3628 -0.7611
 6310SOL     OW24249   9.382   4.550   4.084  0.2550 -0.5600  0.8811
 6310SOL    HW124250   9.381   4.594   3.999  2.0841 -1.4457  0.3481
 6310SOL    HW224251   9.301   4.577   4.126 -1.5244 -1.3576 -1.7963
 6311SOL     OW24252   9.610   6.355  10.563 -0.2319 -0.2458  0.2057
 6311SOL    HW124253   9.699   6.327  10.543 -0.1090  0.9408 -1.0518
 6311SOL    HW224254   9.600   6.439  10.518 -1.5695  0.2645  1.3609
 6312SOL     OW24255   0.720   2.103   8.218 -0.7142 -0.6457  0.2696
 6312SOL    HW124256   0.714   2.195   8.244 -2.2589 -1.0394  1.4765
 6312SOL    HW224257   0.727   2.055   8.301 -0.7245 -1.6645 -0.3005
 6313SOL     OW24258   5.869  11.721   9.080 -0.3001  0.0059 -0.2641
 6313SOL    HW124259   5.822  11.702   9.162 -0.9162  1.7744 -0.1552
 6313SOL    HW224260   5.959  11.695   9.098 -0.7289 -1.0469  0.4422
 6314SOL     OW24261   7.781   6.152   7.174  0.0166 -0.3716  0.4293
 6314SOL    HW124262   7.712   6.176   7.113  0.5033 -1.2001 -0.4696
 6314SOL    HW224263   7.830   6.083   7.130  1.7103  0.5117  0.8426
 6315SOL     OW24264   5.668   5.992   6.335  0.2959  0.6159  0.3262
 6315SOL    HW124265   5.706   5.905   6.328 -0.5572  0.3892 -2.7452
 6315SOL    HW224266   5.582   5.977   6.376  0.6657  0.2048  0.9602
 6316SOL     OW24267   4.928   6.890   7.195  0.7853 -0.0559  0.0115
 6316SOL    HW124268   4.892   6.889   7.107 -0.4473 -0.0065  0.4930
 6316SOL    HW224269   5.015   6.852   7.186  1.0402  0.7734 -1.3688
 6317SOL     OW24270  11.082   0.504   8.426  0.2543 -0.4457  0.2213
 6317SOL    HW124271  11.042   0.431   8.379  0.2180 -0.2723 -0.0209
 6317SOL    HW224272  11.009   0.561   8.449  0.4570  0.4148 -1.1718
 6318SOL     OW24273   0.065   5.783   3.123  0.5253  0.3372 -0.0147
 6318SOL    HW124274   0.102   5.831   3.048  0.2302 -1.2167 -1.2125
 6318SOL    HW224275  -0.018   5.826   3.141 -0.5475 -0.6776 -2.1704
 6319SOL     OW24276   9.880   0.710   0.905 -0.6765  0.0716  0.0269
 6319SOL    HW124277   9.862   0.799   0.874  2.5538  1.0287  0.4783
 6319SOL    HW224278   9.940   0.673   0.840 -2.0240 -1.8806 -0.2048
 6320SOL     OW24279   1.475   1.905   8.776  0.2026 -0.4182 -0.0863
 6320SOL    HW124280   1.524   1.889   8.857  2.6392 -1.5654 -1.6708
 6320SOL    HW224281   1.478   1.822   8.729 -1.6699  0.0524 -1.1360
 6321SOL     OW24282   2.601   6.797   5.914  0.8481 -0.6782  0.3656
 6321SOL    HW124283   2.555   6.876   5.943 -0.8040  0.3882 -4.2837
 6321SOL    HW224284   2.686   6.829   5.881  0.1026 -0.6492 -1.7014
 6322SOL     OW24285   5.196   8.004   4.046 -0.5465 -0.3596 -0.5010
 6322SOL    HW124286   5.275   8.002   3.992 -1.4766  0.6691 -1.9773
 6322SOL    HW224287   5.184   7.914   4.075 -0.7303 -1.2650 -3.1379
 6323SOL     OW24288   4.367   8.201   6.653  0.2177  0.5319  0.2336
 6323SOL    HW124289   4.399   8.254   6.580 -0.0470  1.0714  0.5056
 6323SOL    HW224290   4.423   8.123   6.652 -0.3182  0.1398 -1.0560
 6324SOL     OW24291   9.320   0.598   4.445 -0.6055 -0.4480  0.6388
 6324SOL    HW124292   9.381   0.580   4.517 -0.5213 -0.8618  0.4642
 6324SOL    HW224293   9.322   0.519   4.391 -1.2087 -0.4195  0.5681
 6325SOL     OW24294  10.101   6.216  11.329 -0.3448  0.4472  0.5259
 6325SOL    HW124295  10.012   6.235  11.357 -1.2376 -0.3147 -1.6170
 6325SOL    HW224296  10.130   6.294  11.283 -1.2864 -0.5123 -1.8560
 6326SOL     OW24297   1.280   1.023   0.246  0.1511 -0.3305 -0.3917
 6326SOL    HW124298   1.205   0.971   0.218  0.7874 -0.9900 -0.9602
 6326SOL    HW224299   1.325   0.967   0.310  0.5696 -0.2789 -0.6344
 6327SOL     OW24300   1.366   4.001   6.848  0.5217  0.1559 -0.3948
 6327SOL    HW124301   1.367   4.094   6.872  0.0622  0.1438 -0.3174
 6327SOL    HW224302   1.275   3.984   6.824  0.7790 -0.0598 -1.2453
 6328SOL     OW24303   5.933  10.576  10.377 -0.4214 -0.1892  0.0632
 6328SOL    HW124304   5.909  10.592  10.468  0.3364  0.0136  0.2330
 6328SOL    HW224305   5.911  10.483  10.363  1.0335 -0.7023  0.9752
 6329SOL     OW24306   8.652   9.789   6.337 -0.0883  0.3930  0.3143
 6329SOL    HW124307   8.576   9.847   6.336 -0.7380 -0.4249  0.6586
 6329SOL    HW224308   8.703   9.815   6.261 -0.9993  0.5914 -0.2522
 6330SOL     OW24309   2.448   7.584   3.574 -0.2011  0.0785  0.4908
 6330SOL    HW124310   2.396   7.603   3.652  0.4740 -1.1237  1.2779
 6330SOL    HW224311   2.398   7.519   3.526 -1.6629  2.3631 -1.2773
 6331SOL     OW24312   3.696   8.351   8.415 -0.4578 -0.3734  0.0642
 6331SOL    HW124313   3.611   8.347   8.459 -0.7130 -0.3831 -0.4316
 6331SOL    HW224314   3.728   8.260   8.417 -0.8061 -0.5104 -0.4289
 6332SOL     OW24315  11.324   5.291  11.700  0.4252  0.1150 -0.3280
 6332SOL    HW124316  11.312   5.196  11.694  2.6197 -0.1470 -1.9919
 6332SOL    HW224317  11.350   5.306  11.791  0.4025 -0.9232 -0.1373
 6333SOL     OW24318  10.393  10.739  10.831  0.4222  0.1059  0.3579
 6333SOL    HW124319  10.425  10.803  10.767  1.1765  0.7546  1.3336
 6333SOL    HW224320  10.420  10.654  10.796  2.4229  0.5632  0.6289
 6334SOL     OW24321  11.777   8.321   1.329  0.2057 -0.4042 -0.8916
 6334SOL    HW124322  11.823   8.256   1.276  1.9224 -0.7959  0.9345
 6334SOL    HW224323  11.837   8.395   1.334  0.3548 -0.5828  0.8481
 6335SOL     OW24324   9.448   4.240   2.616 -0.4059  0.0537 -0.1578
 6335SOL    HW124325   9.531   4.282   2.639  0.3810 -0.9211 -1.1285
 6335SOL    HW224326   9.443   4.247   2.520 -1.2060 -0.3402 -0.1537
 6336SOL     OW24327   9.336   1.412   1.047  0.2414 -0.4371 -0.1950
 6336SOL    HW124328   9.271   1.361   1.095  1.5369  0.7303  3.1142
 6336SOL    HW224329   9.314   1.504   1.065  2.1300  0.0036  0.1678
 6337SOL     OW24330   6.610   2.715   7.623  0.3289 -0.2603  0.6249
 6337SOL    HW124331   6.558   2.791   7.647 -0.8860  0.1136 -2.7443
 6337SOL    HW224332   6.701   2.745   7.628  0.1343  0.1168  3.1777
 6338SOL     OW24333   6.369   9.907   9.062 -0.5813  0.2756  0.4814
 6338SOL    HW124334   6.327   9.830   9.101 -1.1111  0.9440  1.2585
 6338SOL    HW224335   6.459   9.905   9.093 -0.4849 -0.2445  0.1766
 6339SOL     OW24336   7.028   5.425  11.593 -0.9799  0.2978  0.4361
 6339SOL    HW124337   7.113   5.382  11.587 -1.1032 -0.1043  1.3799
 6339SOL    HW224338   7.006   5.422  11.686 -1.5390  1.3542  0.3514
 6340SOL     OW24339   7.023   7.679   2.521  0.2091 -0.0897 -0.2541
 6340SOL    HW124340   7.068   7.735   2.458 -0.6374  0.6813 -0.1867
 6340SOL    HW224341   6.963   7.626   2.468 -0.0874  0.1502 -0.1611
 6341SOL     OW24342   3.243   3.074   8.852 -0.2029 -0.4711 -0.4262
 6341SOL    HW124343   3.336   3.088   8.868 -0.4417 -0.2305  0.8506
 6341SOL    HW224344   3.236   3.069   8.757  1.3475 -2.2908 -0.5040
 6342SOL     OW24345  10.393   1.888   3.703 -0.0498  0.1758 -0.2889
 6342SOL    HW124346  10.315   1.872   3.757  0.6048 -1.0307  0.3583
 6342SOL    HW224347  10.363   1.875   3.613 -0.2727 -2.0505  0.0315
 6343SOL     OW24348   6.110   4.855   8.456 -0.3711  0.9482  0.1840
 6343SOL    HW124349   6.130   4.929   8.513  2.9753  1.0891 -0.9177
 6343SOL    HW224350   6.083   4.894   8.374 -1.5838  0.8343  0.5165
 6344SOL     OW24351   9.036   4.906  10.202  0.1719  0.6445 -0.2327
 6344SOL    HW124352   8.949   4.886  10.238  0.8462  0.2253  1.2125
 6344SOL    HW224353   9.020   4.917  10.108 -1.7504  2.3774  0.2221
 6345SOL     OW24354   3.073   9.139   9.275  0.3090  0.2599 -0.7010
 6345SOL    HW124355   2.984   9.112   9.256  0.4153 -0.2490 -0.5017
 6345SOL    HW224356   3.097   9.090   9.354  0.1685  1.6934  0.2739
 6346SOL     OW24357  10.504   4.739   4.076  0.1550 -0.3894 -0.4665
 6346SOL    HW124358  10.435   4.804   4.062  0.3943 -0.3684 -1.6011
 6346SOL    HW224359  10.540   4.762   4.162  0.2785  1.0221 -0.8652
 6347SOL     OW24360   8.889   4.881   7.093  0.4901  0.2658 -0.0514
 6347SOL    HW124361   8.878   4.827   7.015 -0.3741 -0.8096  0.7749
 6347SOL    HW224362   8.955   4.834   7.145  0.2861  0.4061  0.3360
 6348SOL     OW24363  10.639   1.509  10.794 -0.4700 -0.0922  0.6035
 6348SOL    HW124364  10.687   1.586  10.822  0.3394 -0.4844  0.3177
 6348SOL    HW224365  10.577   1.492  10.866 -0.2902  0.4998  0.9032
 6349SOL     OW24366   3.628   2.043   9.842  0.0514 -0.2994 -0.1630
 6349SOL    HW124367   3.535   2.064   9.850  0.2897  0.6341  0.2538
 6349SOL    HW224368   3.657   2.087   9.763  0.0641 -0.8886 -0.4919
 6350SOL     OW24369   9.084   5.373   6.998 -0.5594  0.2891 -0.4408
 6350SOL    HW124370   9.169   5.381   6.955 -1.2389  1.6353 -1.6181
 6350SOL    HW224371   9.043   5.298   6.955 -1.5703  2.1138 -2.9222
 6351SOL     OW24372   7.685   2.790  10.834 -0.1218  0.2853  0.3906
 6351SOL    HW124373   7.755   2.725  10.829 -0.8700 -0.5582  0.7088
 6351SOL    HW224374   7.720   2.866  10.786  0.3148 -0.7553 -1.0234
 6352SOL     OW24375   2.443   8.288   7.893  0.9415  0.3866 -0.0090
 6352SOL    HW124376   2.524   8.240   7.880 -0.1166 -0.8723 -2.6715
 6352SOL    HW224377   2.377   8.220   7.908  0.1152  1.2986  0.6130
 6353SOL     OW24378   6.185   4.095  10.461 -0.1544  0.2263 -0.0079
 6353SOL    HW124379   6.155   4.011  10.496  0.9351  0.0244  0.4850
 6353SOL    HW224380   6.273   4.077  10.428  0.9490  1.6157  1.9929
 6354SOL     OW24381   4.068  11.497   9.618 -0.2549  0.1569  0.1864
 6354SOL    HW124382   4.091  11.590   9.622 -0.3624  0.2654 -1.2423
 6354SOL    HW224383   4.148  11.454   9.588 -0.8195  0.1021 -1.3710
 6355SOL     OW24384   4.383   2.027   8.429 -0.2404 -0.0674  0.8658
 6355SOL    HW124385   4.303   1.984   8.461  0.0435 -1.1660  0.1246
 6355SOL    HW224386   4.453   1.991   8.483 -0.1525  0.4316  1.0937
 6356SOL     OW24387  10.747   2.535   6.095  0.2768 -0.2537 -0.1545
 6356SOL    HW124388  10.791   2.536   6.180  0.0566 -0.2704 -0.0372
 6356SOL    HW224389  10.771   2.450   6.057 -0.7339 -0.8592  0.4979
 6357SOL     OW24390   9.793   7.228   5.594  0.0183 -0.7507  0.2046
 6357SOL    HW124391   9.821   7.157   5.651 -2.0166 -1.3342  0.5819
 6357SOL    HW224392   9.703   7.205   5.569 -0.2989  1.1150 -0.6046
 6358SOL     OW24393   0.960   1.689   8.395  0.2342  0.6716 -0.0391
 6358SOL    HW124394   1.050   1.667   8.422 -0.4233 -0.3569  1.4625
 6358SOL    HW224395   0.919   1.722   8.475 -0.7482  1.0621 -0.6985
 6359SOL     OW24396   2.802   1.755   4.062  0.1297 -0.1469  0.0468
 6359SOL    HW124397   2.773   1.710   4.142  2.8399 -0.8900  0.7047
 6359SOL    HW224398   2.834   1.840   4.092  0.5254 -0.1515 -0.3628
 6360SOL     OW24399   7.191   0.792   8.028 -0.0560  0.0565 -0.4706
 6360SOL    HW124400   7.229   0.845   8.097 -0.0686  0.3365 -0.6762
 6360SOL    HW224401   7.206   0.702   8.055  0.2011  0.1660 -0.2508
 6361SOL     OW24402   8.804   4.211   1.057 -0.0095 -0.6976  1.1705
 6361SOL    HW124403   8.717   4.175   1.070 -0.9498  0.5701 -1.0500
 6361SOL    HW224404   8.845   4.152   0.993 -0.4847  0.4699 -0.2562
 6362SOL     OW24405   1.118  10.948   3.010  0.1322  0.4023 -0.0451
 6362SOL    HW124406   1.160  10.915   3.089 -2.2683 -0.2779  1.0498
 6362SOL    HW224407   1.185  11.000   2.967  1.8107  0.0184  1.9473
 6363SOL     OW24408  11.792   0.275  11.299  0.4908 -0.4117 -0.0299
 6363SOL    HW124409  11.755   0.210  11.239 -0.5377  0.1812 -0.0563
 6363SOL    HW224410  11.887   0.264  11.291  0.3378 -1.4146 -0.5709
 6364SOL     OW24411  11.374   1.953   2.968 -0.3793 -0.5989 -0.3067
 6364SOL    HW124412  11.446   1.945   2.905 -0.1202  1.1680 -0.3016
 6364SOL    HW224413  11.335   2.039   2.948  0.2262  0.4133  2.4319
 6365SOL     OW24414   6.711   4.004   9.862 -0.1081 -0.4846 -0.0073
 6365SOL    HW124415   6.704   4.010   9.767 -0.6542  0.8570  0.1015
 6365SOL    HW224416   6.628   3.966   9.890 -0.5538  0.4984  0.0359
 6366SOL     OW24417   4.832   6.693   9.802 -0.3623 -0.5304 -0.1463
 6366SOL    HW124418   4.790   6.671   9.719 -1.8421  0.8095  0.1917
 6366SOL    HW224419   4.776   6.652   9.869 -0.3292  0.0833  0.2630
 6367SOL     OW24420   7.004   0.552   7.483  0.4705  0.4324 -0.1056
 6367SOL    HW124421   7.050   0.603   7.549 -0.3616  0.1107  0.7514
 6367SOL    HW224422   6.927   0.604   7.461  0.1517  0.0287  0.0239
 6368SOL     OW24423  11.506   2.871   6.233  0.2127  0.0700 -0.2181
 6368SOL    HW124424  11.446   2.813   6.280 -0.3807  1.3549  0.6582
 6368SOL    HW224425  11.587   2.866   6.282  0.6574 -1.1465 -1.0169
 6369SOL     OW24426   2.336   7.483   4.640  0.0387  0.0908  0.0540
 6369SOL    HW124427   2.253   7.451   4.606  0.3972  0.0648 -0.8099
 6369SOL    HW224428   2.396   7.481   4.565  0.3830  1.6677  0.2365
 6370SOL     OW24429   7.654   9.501   7.958  0.2748 -0.4897 -0.0548
 6370SOL    HW124430   7.616   9.474   7.875 -0.2959 -1.1866  0.4214
 6370SOL    HW224431   7.580   9.537   8.007  0.7922  0.8384 -0.2091
 6371SOL     OW24432   6.319   2.835   1.955 -0.9665 -0.0664 -0.1483
 6371SOL    HW124433   6.306   2.747   1.991  0.7004 -0.2948 -0.0490
 6371SOL    HW224434   6.307   2.893   2.030 -0.5116 -0.3276  0.1304
 6372SOL     OW24435   1.168   0.900   6.535 -0.4045  0.3031  0.4582
 6372SOL    HW124436   1.205   0.966   6.593 -1.5874  0.5827  0.9280
 6372SOL    HW224437   1.243   0.864   6.488  0.4102  1.0406  1.1645
 6373SOL     OW24438   4.055   0.520   2.981  0.0793  0.2471 -0.0176
 6373SOL    HW124439   4.011   0.532   2.896  0.0115 -0.8929 -0.1679
 6373SOL    HW224440   4.148   0.524   2.960  0.0597  0.5128 -0.0567
 6374SOL     OW24441   5.553   3.455   6.510 -0.1695 -0.1520  0.7376
 6374SOL    HW124442   5.493   3.381   6.499 -0.6171  0.0139  1.9309
 6374SOL    HW224443   5.571   3.457   6.604  2.5928 -0.8752  0.2971
 6375SOL     OW24444  10.285   7.499   1.645  0.4141 -0.0909 -0.1244
 6375SOL    HW124445  10.193   7.485   1.668  0.2745 -1.1409 -1.1858
 6375SOL    HW224446  10.311   7.577   1.694 -0.7402 -0.3732  0.9888
 6376SOL     OW24447  10.628   2.472   0.237 -0.1762 -0.0580 -0.3636
 6376SOL    HW124448  10.679   2.435   0.165  0.0771  1.4635 -1.0175
 6376SOL    HW224449  10.554   2.515   0.194 -0.0327  0.8468  0.2640
 6377SOL     OW24450  11.526   3.311   6.830 -0.0350  0.2142 -0.2796
 6377SOL    HW124451  11.581   3.373   6.783  0.7445 -1.1170 -1.2017
 6377SOL    HW224452  11.437   3.328   6.799  0.4574 -0.5842 -2.2491
 6378SOL     OW24453   7.763  11.400   8.347 -0.0455 -0.1771 -0.3066
 6378SOL    HW124454   7.776  11.412   8.253 -0.3668 -0.7657 -0.4306
 6378SOL    HW224455   7.669  11.407   8.359  0.1339  1.6833  0.2406
 6379SOL     OW24456   1.605   1.632   9.685 -0.2449  0.6553  0.4245
 6379SOL    HW124457   1.605   1.611   9.591 -0.3922 -0.6734  0.6918
 6379SOL    HW224458   1.547   1.566   9.723 -0.0073  1.0471  1.4744
 6380SOL     OW24459   6.165   3.622  11.519 -0.6556 -0.0830 -0.0556
 6380SOL    HW124460   6.070   3.632  11.525 -0.6472  0.3882 -0.6755
 6380SOL    HW224461   6.180   3.529  11.538 -1.3109 -0.3267 -0.6756
 6381SOL     OW24462   9.817   9.795   1.644  0.3832  0.1061  0.1349
 6381SOL    HW124463   9.786   9.804   1.554  1.9783  0.2739 -0.4295
 6381SOL    HW224464   9.847   9.882   1.668  3.0989 -0.5570 -0.4364
 6382SOL     OW24465   2.756   3.736   9.860 -0.2396 -0.3641 -0.2324
 6382SOL    HW124466   2.757   3.747   9.765 -0.5397  0.5164 -0.1463
 6382SOL    HW224467   2.708   3.812   9.892  0.2233 -0.4333  0.6593
 6383SOL     OW24468   8.592  11.701   0.480 -0.0200  0.1239  0.6690
 6383SOL    HW124469   8.676  11.703   0.435  0.0171  0.1308  0.7385
 6383SOL    HW224470   8.535  11.650   0.422 -0.4675  1.5864 -0.2200
 6384SOL     OW24471   8.814   0.737   4.797 -0.0297 -0.0692  0.2406
 6384SOL    HW124472   8.732   0.786   4.796 -0.0247  0.0046  1.6818
 6384SOL    HW224473   8.788   0.647   4.776 -0.2747  0.2058 -0.6794
 6385SOL     OW24474   0.629   8.299  11.658 -0.1189 -0.5432  0.0743
 6385SOL    HW124475   0.705   8.246  11.636  1.2725  0.9372  1.0578
 6385SOL    HW224476   0.646   8.384  11.617 -2.3296 -0.8087 -1.5471
 6386SOL     OW24477   0.030  11.380   4.414  0.5008  0.2724  0.5923
 6386SOL    HW124478   0.076  11.386   4.330  0.5337  0.3362  0.6152
 6386SOL    HW224479  -0.059  11.408   4.395  0.9565  2.0784  0.9574
 6387SOL     OW24480   6.256  10.766   6.357  0.3648 -0.0861  0.6218
 6387SOL    HW124481   6.164  10.764   6.383 -0.8262 -0.7857 -3.0475
 6387SOL    HW224482   6.293  10.685   6.391 -0.4517  0.0189  1.8041
 6388SOL     OW24483  10.719   0.009   4.546  0.0590 -0.4357  0.5783
 6388SOL    HW124484  10.708  -0.084   4.527 -1.4411 -0.8367  3.0666
 6388SOL    HW224485  10.656   0.053   4.489  1.4317 -0.7607 -1.3187
 6389SOL     OW24486   8.699   1.346   4.789  0.1546  0.8199  0.1308
 6389SOL    HW124487   8.617   1.396   4.793  0.0510  0.6013  2.5876
 6389SOL    HW224488   8.739   1.359   4.875  1.7435 -0.6591 -0.3280
 6390SOL     OW24489   2.371   6.298   3.670  0.1311 -0.6784  0.6779
 6390SOL    HW124490   2.313   6.252   3.610 -0.3787 -0.4058  0.9536
 6390SOL    HW224491   2.456   6.255   3.659 -0.0581 -0.9077  0.0807
 6391SOL     OW24492   4.515   0.244   8.175 -0.3839  0.0671  0.7717
 6391SOL    HW124493   4.554   0.325   8.208 -0.4447 -0.1266  1.3143
 6391SOL    HW224494   4.516   0.255   8.080 -0.2621  0.6456  0.8360
 6392SOL     OW24495  10.763   9.709   4.697  0.0160  0.5338  0.1809
 6392SOL    HW124496  10.824   9.782   4.694 -2.1161  2.8214  3.7779
 6392SOL    HW224497  10.814   9.636   4.730  1.6480  1.1484 -0.8805
 6393SOL     OW24498   5.791   3.478   5.934  0.4056 -0.0236 -0.0497
 6393SOL    HW124499   5.875   3.521   5.919  0.0680  1.0351  0.9835
 6393SOL    HW224500   5.741   3.494   5.854  0.1661  1.8564  0.4165
 6394SOL     OW24501   6.669   7.849   3.230 -0.8272  0.3602 -0.1733
 6394SOL    HW124502   6.651   7.832   3.137 -1.4613 -1.7042  0.2831
 6394SOL    HW224503   6.708   7.768   3.262  1.3046  1.7409  0.9516
 6395SOL     OW24504  10.016   2.716   8.638 -0.2622  0.2827 -0.3834
 6395SOL    HW124505   9.998   2.623   8.623  0.7698  0.1349 -0.8004
 6395SOL    HW224506   9.930   2.756   8.647 -0.7181 -0.7368 -0.0602
 6396SOL     OW24507   1.740   8.447  10.559 -0.5372 -0.4939 -0.3044
 6396SOL    HW124508   1.757   8.531  10.602  1.0527 -0.0628 -1.6651
 6396SOL    HW224509   1.780   8.382  10.617 -1.1424 -0.2454  0.4013
 6397SOL     OW24510   6.548   9.862  11.607 -0.0989 -0.6214  0.1009
 6397SOL    HW124511   6.619   9.811  11.568  0.3871  0.5661 -0.5883
 6397SOL    HW224512   6.591   9.919  11.670 -0.7052 -1.4060  1.2601
 6398SOL     OW24513   8.702   6.077  11.614  0.8088  0.5919 -0.3067
 6398SOL    HW124514   8.798   6.072  11.608  0.7952 -0.6037  0.2483
 6398SOL    HW224515   8.686   6.162  11.655  1.5576  1.3641 -1.5271
 6399SOL     OW24516   5.025   8.498   0.921  0.7281  0.0206  0.3401
 6399SOL    HW124517   5.100   8.501   0.862  0.7546  1.4993  0.4263
 6399SOL    HW224518   5.004   8.404   0.929  1.3577 -0.2675 -1.1857
 6400SOL     OW24519   8.335   9.060   5.748 -0.0638  0.4881 -0.4699
 6400SOL    HW124520   8.322   9.003   5.672 -0.9591  1.7088 -1.2919
 6400SOL    HW224521   8.326   9.149   5.712 -0.5038  1.0982  1.0657
 6401SOL     OW24522   8.707  10.806  10.847 -0.1814 -0.1562  0.1627
 6401SOL    HW124523   8.615  10.817  10.873 -0.0998  1.1174 -0.0478
 6401SOL    HW224524   8.718  10.864  10.771  0.0339 -2.4936 -1.7301
 6402SOL     OW24525   3.592   8.082  11.298 -0.3305 -0.1203 -0.3055
 6402SOL    HW124526   3.531   8.021  11.257 -2.2389  0.8318  1.0138
 6402SOL    HW224527   3.637   8.030  11.364 -3.0392  0.1143  1.8898
 6403SOL     OW24528   1.758   0.624   4.604  0.2247  0.5479  0.5817
 6403SOL    HW124529   1.801   0.552   4.650 -0.7145  0.0294  0.6913
 6403SOL    HW224530   1.705   0.667   4.672 -0.6647  0.1815  0.1314
 6404SOL     OW24531  10.681   6.381   1.718 -1.0910  0.8687 -0.4116
 6404SOL    HW124532  10.628   6.445   1.766 -1.5902  0.9697 -1.0634
 6404SOL    HW224533  10.616   6.323   1.678 -0.7083  0.9321 -1.1432
 6405SOL     OW24534   7.287   5.343  11.816 -0.1268  0.1484  0.7189
 6405SOL    HW124535   7.264   5.280  11.884  0.7237 -0.6903  0.2497
 6405SOL    HW224536   7.343   5.407  11.860  2.3974 -1.6761  0.3714
 6406SOL     OW24537   9.486   1.568   4.810  0.0328 -0.4123  0.3366
 6406SOL    HW124538   9.520   1.514   4.881  1.5557 -1.0287 -0.7996
 6406SOL    HW224539   9.476   1.655   4.848  0.7671 -0.7402  1.3093
 6407SOL     OW24540   8.897   4.859   3.930 -0.3305  0.6003 -0.1134
 6407SOL    HW124541   8.956   4.784   3.927  0.6384  1.3197  0.3514
 6407SOL    HW224542   8.944   4.928   3.884 -0.5621  1.3501  0.7499
 6408SOL     OW24543   3.409   6.135   1.528  0.1046  0.3497  0.4011
 6408SOL    HW124544   3.460   6.214   1.546  0.3498  0.4530 -0.6452
 6408SOL    HW224545   3.468   6.082   1.474 -0.4505 -0.0741  0.2111
 6409SOL     OW24546   3.650   7.645   1.795 -0.2342 -0.2338  0.3624
 6409SOL    HW124547   3.580   7.587   1.825  0.7865 -1.7818 -0.1418
 6409SOL    HW224548   3.669   7.701   1.870 -2.9261  1.2159  0.0911
 6410SOL     OW24549   4.374   0.263   7.167  0.5212 -0.1428  0.0731
 6410SOL    HW124550   4.314   0.299   7.102  0.4281  1.3047  0.8978
 6410SOL    HW224551   4.332   0.182   7.196  0.1800 -0.3972 -1.0883
 6411SOL     OW24552   9.000   3.249   4.509 -0.2185  0.2871  0.4197
 6411SOL    HW124553   8.923   3.245   4.452  0.2914  0.2300 -0.2862
 6411SOL    HW224554   9.060   3.185   4.471 -0.4387 -0.8485  1.9129
 6412SOL     OW24555  11.700   4.273   7.717 -0.1256 -0.0622  0.7644
 6412SOL    HW124556  11.659   4.329   7.651 -0.8449 -1.4811 -0.0437
 6412SOL    HW224557  11.747   4.207   7.666  2.2679  0.8096  1.6633
 6413SOL     OW24558  10.478  10.140   0.710 -0.5317 -0.2696 -0.4872
 6413SOL    HW124559  10.548  10.196   0.676 -0.9748  1.0458  0.6576
 6413SOL    HW224560  10.403  10.158   0.654 -0.4455 -0.3607 -0.6335
 6414SOL     OW24561   0.713   2.404   8.456  0.2760  0.4681 -0.6433
 6414SOL    HW124562   0.651   2.403   8.529  0.5155  0.3743 -0.4395
 6414SOL    HW224563   0.659   2.423   8.379 -0.0614  0.0034 -0.5220
 6415SOL     OW24564  11.027   4.339  11.501 -0.9101 -0.1739  0.9053
 6415SOL    HW124565  11.014   4.426  11.464 -0.7003  0.8595  3.0970
 6415SOL    HW224566  11.051   4.355  11.593  1.1663 -2.4824  0.8616
 6416SOL     OW24567   0.998   0.851   8.030  0.0619 -0.0599 -0.5288
 6416SOL    HW124568   1.027   0.833   8.119 -2.0779 -1.9029 -0.1170
 6416SOL    HW224569   0.922   0.908   8.041 -1.6025 -2.0919 -0.9514
 6417SOL     OW24570   3.284   1.191   6.276 -0.3947  0.1315  0.1677
 6417SOL    HW124571   3.325   1.170   6.360  1.3557  1.5241 -0.2698
 6417SOL    HW224572   3.255   1.107   6.242  1.8848 -0.9592  0.6872
 6418SOL     OW24573   1.038   8.822   6.031 -0.7058 -0.4069  0.1782
 6418SOL    HW124574   1.097   8.858   5.966 -0.0943 -0.3024  0.7835
 6418SOL    HW224575   0.952   8.859   6.009 -0.4970 -0.3299 -0.5232
 6419SOL     OW24576   8.688   2.425   2.659  0.7035 -0.6965 -0.6263
 6419SOL    HW124577   8.595   2.431   2.634  0.5655  1.8809  0.1462
 6419SOL    HW224578   8.735   2.436   2.576  0.3022 -0.9806 -0.8960
 6420SOL     OW24579  10.953   0.417   9.427  0.5039  0.1381  0.3223
 6420SOL    HW124580  10.873   0.382   9.467  0.3224 -0.3023 -0.4061
 6420SOL    HW224581  11.021   0.403   9.494 -0.2570  1.7934  1.5165
 6421SOL     OW24582   8.923   4.371   8.618 -0.5334  0.6328 -0.1018
 6421SOL    HW124583   8.846   4.334   8.575 -1.4580  0.5498  1.5418
 6421SOL    HW224584   8.890   4.449   8.663  0.0065 -0.1176  1.7155
 6422SOL     OW24585   5.259   5.523  10.519 -0.0772 -0.9283  0.4697
 6422SOL    HW124586   5.213   5.560  10.445  3.4378 -0.0603 -1.5070
 6422SOL    HW224587   5.222   5.568  10.595 -0.2992  2.0701 -1.2471
 6423SOL     OW24588  10.879   3.857   5.511  0.3088  0.0819 -0.6463
 6423SOL    HW124589  10.874   3.895   5.424 -0.2133 -1.3868 -1.3000
 6423SOL    HW224590  10.972   3.858   5.533  0.3994  0.8185 -1.0485
 6424SOL     OW24591   8.302   2.632   8.097 -0.2813 -0.2143  0.7459
 6424SOL    HW124592   8.251   2.554   8.117  0.1183 -0.1080  2.2810
 6424SOL    HW224593   8.247   2.682   8.037 -0.9934 -1.1674  0.5795
 6425SOL     OW24594   3.534   3.170   8.986  0.0094  0.3053  0.0444
 6425SOL    HW124595   3.597   3.168   9.058  0.3809 -1.1081 -0.3016
 6425SOL    HW224596   3.542   3.084   8.944 -1.6642  0.3486 -0.4272
 6426SOL     OW24597   9.829  11.379   4.669 -0.1233 -0.0855 -0.5608
 6426SOL    HW124598   9.899  11.316   4.649  0.4421  0.4892 -0.4314
 6426SOL    HW224599   9.861  11.462   4.634 -1.1780  0.0055 -1.3664
 6427SOL     OW24600   5.242   7.184   3.295 -0.4777  0.3687  0.5555
 6427SOL    HW124601   5.185   7.109   3.280 -0.4893  0.3081  0.8963
 6427SOL    HW224602   5.328   7.155   3.266 -0.2317 -0.1932  1.7566
 6428SOL     OW24603  10.279   2.564  10.648 -0.2865  0.2211 -0.4174
 6428SOL    HW124604  10.199   2.617  10.660  0.5491  1.4159  0.0783
 6428SOL    HW224605  10.333   2.617  10.589  1.1131  0.5626  1.1028
 6429SOL     OW24606   9.556   4.668   1.101  0.8846 -0.7261 -0.0085
 6429SOL    HW124607   9.491   4.738   1.097  1.0593 -0.5841 -0.3372
 6429SOL    HW224608   9.504   4.588   1.110  0.6499 -0.6447 -0.5841
 6430SOL     OW24609   9.575   3.825   3.545 -0.6146 -0.2982 -0.0093
 6430SOL    HW124610   9.615   3.754   3.596 -0.6135 -0.6000 -0.4295
 6430SOL    HW224611   9.482   3.803   3.544 -0.5368 -0.6099 -0.6378
 6431SOL     OW24612   9.320   7.308   8.767  0.2156  0.5251 -0.3871
 6431SOL    HW124613   9.230   7.338   8.782 -0.3282 -0.9571 -0.5431
 6431SOL    HW224614   9.320   7.277   8.677  1.1905  1.5043 -0.7394
 6432SOL     OW24615   7.919   9.029  11.234  0.0489  0.3701 -0.2357
 6432SOL    HW124616   7.846   9.091  11.236  0.5238  0.9326  1.3359
 6432SOL    HW224617   7.916   8.991  11.147 -1.9771  0.5518 -0.2939
 6433SOL     OW24618   0.097   8.245   0.962 -0.1245 -0.1744  0.1540
 6433SOL    HW124619   0.007   8.237   0.930 -0.3527 -0.7892  0.9407
 6433SOL    HW224620   0.095   8.210   1.051  0.4725  1.6306  0.9280
 6434SOL     OW24621  10.543   4.986   1.048 -0.3425  0.6970 -0.0654
 6434SOL    HW124622  10.601   5.023   1.114 -0.3248 -0.3335  0.5129
 6434SOL    HW224623  10.489   5.060   1.020 -1.0825  0.9587  1.8866
 6435SOL     OW24624   0.491   2.361   6.555  0.1270  0.2244  0.0970
 6435SOL    HW124625   0.498   2.382   6.648 -0.5847  0.0308  0.1990
 6435SOL    HW224626   0.410   2.312   6.547  0.8992 -1.0266 -0.4038
 6436SOL     OW24627   6.512   5.997  11.467  0.2191  0.4018  0.1609
 6436SOL    HW124628   6.551   5.984  11.553  0.2187  1.3111  0.3017
 6436SOL    HW224629   6.587   6.014  11.409  0.3101 -1.1055 -0.2178
 6437SOL     OW24630   2.562   4.116   1.536 -0.4109 -0.0523  0.9724
 6437SOL    HW124631   2.474   4.149   1.520  0.1692  1.3251  0.5199
 6437SOL    HW224632   2.596   4.170   1.607  0.3117 -0.1080  0.6821
 6438SOL     OW24633   4.454   0.438  11.134 -0.2903 -0.2762 -0.1064
 6438SOL    HW124634   4.522   0.375  11.111  0.4603  0.8008 -0.9043
 6438SOL    HW224635   4.502   0.515  11.165 -1.0832  0.7923 -1.4095
 6439SOL     OW24636   7.520   6.987   8.345 -0.3902  0.1095  0.5083
 6439SOL    HW124637   7.568   6.926   8.402  0.1863  1.1952  1.2208
 6439SOL    HW224638   7.454   6.933   8.302  0.1883 -1.0407  1.0249
 6440SOL     OW24639   6.658  10.019  10.041 -0.6089  0.3037 -0.2817
 6440SOL    HW124640   6.707  10.101  10.037 -1.3330  0.7701  0.1848
 6440SOL    HW224641   6.602  10.028  10.119 -0.2208 -0.8962  0.1589
 6441SOL     OW24642   4.309   8.689   5.591  0.1155  0.3950  0.0737
 6441SOL    HW124643   4.217   8.660   5.588  0.1097  0.2238  1.3698
 6441SOL    HW224644   4.359   8.607   5.592  0.2730  0.4874 -0.4535
 6442SOL     OW24645   9.108   3.419  11.626  0.7458  0.2933  0.1079
 6442SOL    HW124646   9.045   3.357  11.590  1.1349 -0.0415 -0.0069
 6442SOL    HW224647   9.176   3.364  11.665 -0.0417  0.6232  2.0527
 6443SOL     OW24648   5.354   7.382   1.088 -0.3209  0.6288 -0.4004
 6443SOL    HW124649   5.445   7.379   1.058  0.1233 -0.1422  0.9178
 6443SOL    HW224650   5.361   7.375   1.184 -1.8613 -1.7817 -0.3915
 6444SOL     OW24651   9.341   7.714  10.800  0.7777 -0.3997  0.0181
 6444SOL    HW124652   9.332   7.636  10.746  1.4203  0.3841 -1.2646
 6444SOL    HW224653   9.430   7.709  10.835  0.4665 -0.7514  0.7848
 6445SOL     OW24654   2.669   8.123   7.828 -0.4444 -0.4958  0.3544
 6445SOL    HW124655   2.751   8.167   7.852  0.6276 -3.0230  1.7410
 6445SOL    HW224656   2.688   8.082   7.743 -1.0977  0.7849 -0.4399
 6446SOL     OW24657  11.379   3.770   8.424  0.3667  0.0529  0.6850
 6446SOL    HW124658  11.423   3.796   8.505  0.2785  0.3049  0.6521
 6446SOL    HW224659  11.304   3.829   8.417  1.3817  1.2768 -0.5070
 6447SOL     OW24660   8.890   6.309  10.859  0.3432  0.0833  0.3735
 6447SOL    HW124661   8.908   6.400  10.838  1.1593  0.2106  1.5284
 6447SOL    HW224662   8.804   6.310  10.899  1.0440  0.6141  1.9321
 6448SOL     OW24663   3.539   6.732  10.004  0.0870  0.0014  0.1482
 6448SOL    HW124664   3.571   6.669  10.068 -1.9103 -0.8763  0.3560
 6448SOL    HW224665   3.608   6.735   9.937  0.3635 -2.2079  0.2641
 6449SOL     OW24666   0.897   8.288   2.243 -0.0914 -0.1733  0.0078
 6449SOL    HW124667   0.935   8.359   2.191  0.5678  0.8665  1.8257
 6449SOL    HW224668   0.855   8.231   2.178  1.4873  0.5424 -1.7426
 6450SOL     OW24669   2.057   4.728   7.006 -0.0564  0.2316 -0.7098
 6450SOL    HW124670   2.122   4.726   6.936 -0.4260 -0.3924 -1.0425
 6450SOL    HW224671   2.072   4.812   7.050  0.0656  0.7145 -1.6463
 6451SOL     OW24672   8.092   9.924   1.998 -0.0869 -0.4396 -0.3001
 6451SOL    HW124673   8.081   9.837   1.959  1.0633 -1.3935  1.3680
 6451SOL    HW224674   8.173   9.957   1.961 -0.5151 -0.0824 -0.9207
 6452SOL     OW24675   7.911   2.480   1.099  1.0225  0.7418  0.6184
 6452SOL    HW124676   7.971   2.544   1.060  2.3065 -0.7948 -0.0534
 6452SOL    HW224677   7.965   2.432   1.162  0.1746  0.1109  0.8906
 6453SOL     OW24678   0.701   0.571   0.228 -0.0955  0.6641 -0.3317
 6453SOL    HW124679   0.623   0.581   0.173 -0.2714  0.2002 -0.1733
 6453SOL    HW224680   0.711   0.476   0.239  0.4944  0.7228 -0.3504
 6454SOL     OW24681  10.545   8.087   6.005  0.1344 -0.3250  0.1350
 6454SOL    HW124682  10.636   8.087   6.035  0.4465  3.2025 -0.3471
 6454SOL    HW224683  10.496   8.130   6.076 -0.7481 -0.1561 -0.5530
 6455SOL     OW24684  10.128   2.823   6.736 -0.4473 -0.2593 -0.2561
 6455SOL    HW124685  10.162   2.906   6.767 -2.0520 -0.0155  1.0281
 6455SOL    HW224686  10.098   2.778   6.815 -1.8777 -0.9765 -1.1555
 6456SOL     OW24687   7.047   1.963  10.028  0.1525  0.3813  0.0166
 6456SOL    HW124688   7.012   1.976  10.116 -1.2131 -0.0927 -0.4434
 6456SOL    HW224689   7.099   1.883  10.034 -0.9199 -0.3117  0.1150
 6457SOL     OW24690   8.299   6.123   6.718  0.4701  0.2636  0.7826
 6457SOL    HW124691   8.365   6.169   6.665  0.9781 -0.5285  0.7015
 6457SOL    HW224692   8.307   6.031   6.691 -0.3504  0.0863  1.1177
 6458SOL     OW24693   6.426   4.813   8.031  0.0064 -0.1215  0.3182
 6458SOL    HW124694   6.442   4.848   7.943 -0.6976  0.1574  0.2914
 6458SOL    HW224695   6.511   4.818   8.075  0.1659  0.6019 -0.0484
 6459SOL     OW24696   1.844  10.607   4.224  0.0816  0.2567 -0.4895
 6459SOL    HW124697   1.900  10.575   4.153  0.2769 -0.8657  0.1469
 6459SOL    HW224698   1.799  10.529   4.255  0.6031  0.5753  1.1534
 6460SOL     OW24699  11.300  11.215   4.000  0.1413  0.1325 -0.2893
 6460SOL    HW124700  11.273  11.264   3.923 -0.6084  0.7248  0.3259
 6460SOL    HW224701  11.292  11.278   4.072 -1.8706 -1.1449  0.6941
 6461SOL     OW24702   3.670  11.503   3.536 -0.4792  0.6396 -0.3307
 6461SOL    HW124703   3.696  11.423   3.491 -4.8207 -0.1285 -1.9222
 6461SOL    HW224704   3.678  11.572   3.470 -0.6632  0.7542 -0.2337
 6462SOL     OW24705   0.752  10.310   0.278  0.2365 -0.5002  0.3872
 6462SOL    HW124706   0.832  10.358   0.258  0.0132  0.1917  1.1162
 6462SOL    HW224707   0.782  10.233   0.326  0.5389 -0.7522 -0.1978
 6463SOL     OW24708  10.940   4.148   6.696  0.2284 -0.2874 -0.1097
 6463SOL    HW124709  10.858   4.176   6.655 -0.3112 -1.3692  0.1743
 6463SOL    HW224710  10.983   4.095   6.629  1.8655  2.1550 -1.1216
 6464SOL     OW24711   9.652   8.813   4.662 -0.8145 -0.4967 -0.1093
 6464SOL    HW124712   9.721   8.880   4.666  0.7442 -2.0754  0.7021
 6464SOL    HW224713   9.570   8.863   4.664  0.2748  1.3654  1.0738
 6465SOL     OW24714   2.179   7.595   6.207  0.3134  0.2042 -0.2948
 6465SOL    HW124715   2.247   7.622   6.269 -0.6811  3.9158 -0.5798
 6465SOL    HW224716   2.180   7.663   6.139 -2.2246 -0.7676 -1.4444
 6466SOL     OW24717   5.672   9.266   9.667  0.3230  0.1341 -0.2080
 6466SOL    HW124718   5.592   9.214   9.675  0.6292 -0.1763  0.9698
 6466SOL    HW224719   5.706   9.243   9.580 -0.5005 -0.2421 -0.4454
 6467SOL     OW24720   9.396  11.369   2.971 -0.5121 -0.1613 -0.0310
 6467SOL    HW124721   9.302  11.353   2.964 -0.9998  2.6827 -1.5343
 6467SOL    HW224722   9.403  11.446   3.026  0.7712  0.7242 -1.3525
 6468SOL     OW24723   5.001   2.144   3.964  0.2106  0.2314  0.0214
 6468SOL    HW124724   4.956   2.200   3.902  0.5603 -0.3031 -0.7263
 6468SOL    HW224725   5.061   2.092   3.911 -0.6046 -1.3688  0.5806
 6469SOL     OW24726  10.861   1.014  10.877  0.5917  0.6714 -0.1120
 6469SOL    HW124727  10.832   0.926  10.901  1.0038  0.3835 -0.6617
 6469SOL    HW224728  10.816   1.072  10.939  0.0073  0.1099 -0.0049
 6470SOL     OW24729   3.710   4.123   5.175 -0.2399 -0.5877  0.0737
 6470SOL    HW124730   3.725   4.214   5.151 -0.8435 -0.7146 -0.8211
 6470SOL    HW224731   3.629   4.099   5.130  0.6308 -1.9775 -0.8218
 6471SOL     OW24732  11.697   7.150   8.560 -0.1575  0.3058  0.1364
 6471SOL    HW124733  11.764   7.213   8.532 -1.2761  1.7788  0.6588
 6471SOL    HW224734  11.732   7.065   8.533  2.8113  0.7657  1.9580
 6472SOL     OW24735   6.345  10.545   1.930 -0.0147 -0.2728 -0.1537
 6472SOL    HW124736   6.356  10.629   1.887 -0.5882 -0.4476 -0.6618
 6472SOL    HW224737   6.384  10.482   1.869 -1.8043 -0.6482 -0.9780
 6473SOL     OW24738   6.068   3.653   5.997  0.1260 -0.3051 -0.3994
 6473SOL    HW124739   6.104   3.593   6.062  2.2538 -0.3236 -1.4945
 6473SOL    HW224740   5.983   3.678   6.032  0.0336 -2.3908  1.0497
 6474SOL     OW24741   1.322  10.852   1.206  0.5973  0.0073  0.0473
 6474SOL    HW124742   1.285  10.919   1.147  1.6669  0.5426 -0.0438
 6474SOL    HW224743   1.396  10.817   1.157  1.4350  0.3828  1.0272
 6475SOL     OW24744   2.398   5.429   1.683 -0.5227  0.0223 -0.0112
 6475SOL    HW124745   2.404   5.485   1.760 -0.2146  1.2725 -0.9199
 6475SOL    HW224746   2.484   5.435   1.642 -0.5527 -0.9665 -0.2509
 6476SOL     OW24747  11.759  11.774   1.076 -0.4970 -0.3395  0.5955
 6476SOL    HW124748  11.684  11.823   1.109  1.3928  1.3337  2.7394
 6476SOL    HW224749  11.783  11.716   1.149  0.8072 -0.1745  0.3151
 6477SOL     OW24750   3.533   4.422   7.539  0.1933 -0.2687  0.0559
 6477SOL    HW124751   3.450   4.420   7.588  0.8370 -2.7538  1.1871
 6477SOL    HW224752   3.550   4.515   7.525 -3.0303  0.3329 -0.6658
 6478SOL     OW24753   3.778   5.480  10.594 -0.0061  0.1424  0.1611
 6478SOL    HW124754   3.764   5.466  10.500 -0.2959  0.6556  0.1207
 6478SOL    HW224755   3.793   5.575  10.602 -0.6180  0.2037  0.7017
 6479SOL     OW24756   4.382   0.528   4.523  0.3658  0.6825 -0.0562
 6479SOL    HW124757   4.312   0.576   4.478 -0.4783 -0.6781 -0.2456
 6479SOL    HW224758   4.363   0.541   4.616  0.3983  1.0616 -0.0987
 6480SOL     OW24759   4.876   7.626   2.942 -0.3568  0.0685 -0.0048
 6480SOL    HW124760   4.889   7.721   2.943  0.7394 -0.0594 -0.9533
 6480SOL    HW224761   4.785   7.615   2.970 -0.6494  1.4223 -0.3294
 6481SOL     OW24762  10.378   9.940   7.430 -0.0721  0.1294  0.2603
 6481SOL    HW124763  10.355   9.867   7.487  0.5584  0.1829  0.5921
 6481SOL    HW224764  10.473   9.935   7.421  0.1465  1.6423  1.3083
 6482SOL     OW24765   9.529   8.543   4.578  0.3711 -0.3893  0.5114
 6482SOL    HW124766   9.596   8.514   4.515  0.9191  1.8048 -0.0039
 6482SOL    HW224767   9.546   8.637   4.589 -0.5308 -0.4504  2.9703
 6483SOL     OW24768   9.603   2.020   5.790 -0.4231  0.2039  0.3648
 6483SOL    HW124769   9.522   1.971   5.778 -0.9069  0.7858  1.1416
 6483SOL    HW224770   9.672   1.959   5.766 -1.0914 -0.2916 -0.3283
 6484SOL     OW24771   3.186   6.017  10.941  0.1943 -0.0187  0.6290
 6484SOL    HW124772   3.183   6.001  11.036  1.2084  0.3633  0.7266
 6484SOL    HW224773   3.183   6.112  10.932  1.8723  0.0412  0.3712
 6485SOL     OW24774   3.708   9.693   5.623  0.1776 -0.2005  0.1641
 6485SOL    HW124775   3.764   9.749   5.568 -0.8899  0.6644 -0.0752
 6485SOL    HW224776   3.764   9.619   5.647  1.3298  0.4940 -0.3082
 6486SOL     OW24777  10.630   3.955   2.678  0.1472  0.5978  0.8843
 6486SOL    HW124778  10.612   3.939   2.770 -0.7083  1.5174  0.8893
 6486SOL    HW224779  10.546   3.984   2.641 -0.4082 -2.6613 -0.8994
 6487SOL     OW24780  11.608   4.407   2.006  0.3316 -0.4371  0.5999
 6487SOL    HW124781  11.699   4.433   2.019  0.9101 -2.6110  1.2444
 6487SOL    HW224782  11.593   4.336   2.068 -1.4308 -0.9659 -0.3390
 6488SOL     OW24783   8.428  10.114   9.537  0.3495  0.2989 -0.2988
 6488SOL    HW124784   8.348  10.063   9.537 -0.3390  1.3425 -1.1187
 6488SOL    HW224785   8.497  10.050   9.520 -0.2794 -0.6109  0.4258
 6489SOL     OW24786   6.971   2.071   8.068 -0.2848  0.2919  0.2141
 6489SOL    HW124787   6.905   2.036   8.129 -0.6748 -0.4699 -0.6186
 6489SOL    HW224788   6.954   2.165   8.065 -0.7952  0.2178  0.6542
 6490SOL     OW24789   5.130   2.627  11.381 -0.2055 -0.1067  0.0067
 6490SOL    HW124790   5.134   2.541  11.339 -0.4544  0.2896 -0.8543
 6490SOL    HW224791   5.147   2.609  11.474  2.6311 -0.7671 -0.5384
 6491SOL     OW24792   4.859   5.548   7.105  0.0939 -0.1232  0.0231
 6491SOL    HW124793   4.940   5.516   7.067 -0.6784 -0.8217 -1.0764
 6491SOL    HW224794   4.868   5.644   7.104 -0.7812  0.0978 -4.1587
 6492SOL     OW24795  10.457  11.518   9.783  0.0860  0.9366  0.4712
 6492SOL    HW124796  10.544  11.538   9.749 -0.1062  0.6750 -0.1897
 6492SOL    HW224797  10.417  11.603   9.799 -0.1268  1.0843 -0.7678
 6493SOL     OW24798   0.650  11.496   4.305 -0.0332  0.5817 -0.3981
 6493SOL    HW124799   0.689  11.429   4.249 -0.3907  1.2133 -1.4272
 6493SOL    HW224800   0.708  11.500   4.381  1.4098  0.8586 -1.4711
 6494SOL     OW24801   0.956   8.755   9.245 -0.3058  0.3068  0.3435
 6494SOL    HW124802   1.024   8.821   9.256  0.3671 -0.2166 -0.4967
 6494SOL    HW224803   0.874   8.804   9.245  0.0298  0.9124  1.7015
 6495SOL     OW24804  11.440   3.070   9.839 -0.7115  0.2800  0.5946
 6495SOL    HW124805  11.361   3.056   9.787 -0.3863  1.6122 -0.3177
 6495SOL    HW224806  11.503   3.006   9.807 -0.6657  0.7874 -0.3489
 6496SOL     OW24807   7.986   2.953   4.943 -0.6163  0.1830 -0.5148
 6496SOL    HW124808   7.942   2.868   4.948  0.3755 -0.3976 -1.2636
 6496SOL    HW224809   8.055   2.940   4.878 -1.3681  1.9864 -1.7668
 6497SOL     OW24810   4.366   7.696   3.090  0.0938  0.1785 -0.1145
 6497SOL    HW124811   4.395   7.770   3.036  0.3928  0.6356  0.6633
 6497SOL    HW224812   4.270   7.695   3.079 -0.0219  1.3024  0.6386
 6498SOL     OW24813   9.219   8.161   6.258 -0.6188 -0.6392 -0.4685
 6498SOL    HW124814   9.128   8.140   6.276 -0.9720  0.8481 -0.3757
 6498SOL    HW224815   9.268   8.124   6.331 -0.8144 -3.4915 -1.6523
 6499SOL     OW24816   6.961  10.801   7.428 -0.1817  0.1844  0.9853
 6499SOL    HW124817   7.021  10.727   7.422  1.6038  1.6278 -0.1599
 6499SOL    HW224818   6.965  10.828   7.520  1.8423  0.9203  0.7269
 6500SOL     OW24819  10.519   8.624   6.048 -0.1247 -0.1746  0.1182
 6500SOL    HW124820  10.601   8.614   6.096 -0.6086 -1.6373  0.7047
 6500SOL    HW224821  10.534   8.700   5.991  0.8124  1.0161  1.8399
 6501SOL     OW24822   2.392   4.402   5.010 -0.3549 -0.1193  0.2565
 6501SOL    HW124823   2.341   4.353   4.946  1.3584 -0.2336 -1.0970
 6501SOL    HW224824   2.457   4.338   5.042  2.9984  1.4508 -2.7225
 6502SOL     OW24825   6.333   2.393   1.534 -0.0441 -0.6091 -0.1865
 6502SOL    HW124826   6.315   2.328   1.601 -1.0422  1.0045  1.1900
 6502SOL    HW224827   6.408   2.359   1.487 -0.4332 -2.6533  0.5873
 6503SOL     OW24828   5.978   8.627   6.126 -0.1929  0.1303  0.5133
 6503SOL    HW124829   5.968   8.603   6.218  1.4896 -0.1469  0.6611
 6503SOL    HW224830   5.977   8.543   6.079 -4.1785  0.3547 -0.1858
 6504SOL     OW24831  11.442  11.536   6.737 -0.2868 -0.1557 -0.1914
 6504SOL    HW124832  11.470  11.627   6.749 -1.5145  0.1532  0.5637
 6504SOL    HW224833  11.521  11.484   6.753  0.2992  0.7463 -0.0642
 6505SOL     OW24834   2.155   5.657  10.357  0.1036 -0.0129 -0.2245
 6505SOL    HW124835   2.148   5.577  10.305 -1.0341  0.6519 -1.1287
 6505SOL    HW224836   2.114   5.725  10.303 -1.0993  0.7108  1.5045
 6506SOL     OW24837   3.050   3.690  10.562 -0.3071 -0.3385 -0.4090
 6506SOL    HW124838   3.022   3.613  10.512  0.3946 -0.6232 -0.3795
 6506SOL    HW224839   2.968   3.728  10.595 -0.6941 -0.8096 -0.7995
 6507SOL     OW24840   8.959  10.707   0.448 -0.6080 -0.1631  0.2790
 6507SOL    HW124841   8.969  10.728   0.355  1.0111 -0.5416  0.3359
 6507SOL    HW224842   9.025  10.760   0.492 -1.6792  0.3787  1.2943
 6508SOL     OW24843   7.040   1.975  11.313 -0.0597 -0.5136  0.1710
 6508SOL    HW124844   7.115   1.927  11.348  0.4663 -1.0560 -1.6048
 6508SOL    HW224845   7.077   2.032  11.245 -1.0336  0.5160  0.4740
 6509SOL     OW24846   9.575  11.321   2.731  0.3154  0.2153  0.0082
 6509SOL    HW124847   9.531  11.373   2.798  0.8877  0.7738 -0.0441
 6509SOL    HW224848   9.579  11.233   2.768  0.5677  0.5070  0.6861
 6510SOL     OW24849   4.930   5.389   2.663 -0.0303  0.9959  0.1515
 6510SOL    HW124850   4.909   5.482   2.667 -2.2941  0.5559 -0.2779
 6510SOL    HW224851   4.978   5.378   2.581  0.9469  1.8700  0.5786
 6511SOL     OW24852   9.737   2.278   4.871 -0.2252  0.0342  0.1304
 6511SOL    HW124853   9.748   2.198   4.820 -0.7309  0.4282 -0.6305
 6511SOL    HW224854   9.706   2.343   4.807  0.7676  1.0044  0.5987
 6512SOL     OW24855   6.577  11.708   4.888 -0.0249  0.2579 -0.6051
 6512SOL    HW124856   6.588  11.795   4.851 -0.4214  0.0190 -1.3211
 6512SOL    HW224857   6.567  11.651   4.811 -1.4133 -0.1753 -0.1310
 6513SOL     OW24858   7.196  10.236  11.043 -0.2656  0.7331  0.2432
 6513SOL    HW124859   7.275  10.229  11.097  0.3892 -0.3029 -0.7908
 6513SOL    HW224860   7.157  10.320  11.068  1.1050  1.2189  0.8674
 6514SOL     OW24861   6.812   6.171   9.927  0.0769 -0.3773  0.2041
 6514SOL    HW124862   6.832   6.227  10.002 -0.2659 -0.5993  0.4628
 6514SOL    HW224863   6.717   6.174   9.919  0.2017  0.8491 -1.1649
 6515SOL     OW24864   2.045   4.797   2.044 -0.3411  0.2319 -0.0839
 6515SOL    HW124865   1.956   4.768   2.025 -0.6004  0.8838  0.1094
 6515SOL    HW224866   2.066   4.757   2.128 -0.8260  0.8537  0.3502
 6516SOL     OW24867   4.769   3.288   4.823 -0.2160 -0.2810 -0.1837
 6516SOL    HW124868   4.820   3.241   4.889  1.1070  0.8173 -0.3974
 6516SOL    HW224869   4.783   3.240   4.742  0.3075 -0.1215 -0.1917
 6517SOL     OW24870   0.671   8.521  11.511 -0.1987  0.0542 -0.1843
 6517SOL    HW124871   0.587   8.525  11.465 -1.9426 -0.6105  2.7184
 6517SOL    HW224872   0.719   8.452  11.465 -1.7620 -0.4782 -1.1053
 6518SOL     OW24873   6.351   8.994   1.174 -0.0640 -0.3929 -0.6755
 6518SOL    HW124874   6.403   8.927   1.219  0.0895 -0.0405 -0.3225
 6518SOL    HW224875   6.314   8.948   1.098  0.6576 -0.6797 -0.8600
 6519SOL     OW24876   8.917   8.486   7.913 -0.2368  0.4456 -0.3472
 6519SOL    HW124877   8.899   8.418   7.848 -0.1578  0.3373 -0.2543
 6519SOL    HW224878   8.852   8.554   7.895  0.4073  0.8627 -1.1893
 6520SOL     OW24879   9.854   3.042   7.311  0.5115 -0.5621  0.2717
 6520SOL    HW124880   9.810   3.119   7.275  0.3791 -0.3602  0.8594
 6520SOL    HW224881   9.869   2.986   7.235 -2.1707 -1.3660  0.2320
 6521SOL     OW24882   0.882   7.010   4.710 -0.2237  0.4744  0.1309
 6521SOL    HW124883   0.967   6.994   4.670 -0.3929 -2.4389  0.7247
 6521SOL    HW224884   0.819   6.983   4.643 -0.6009 -0.0496  0.6890
 6522SOL     OW24885   2.249   0.375   9.209 -0.0862  0.1750  0.0040
 6522SOL    HW124886   2.333   0.354   9.169 -0.1568 -0.7668  0.3342
 6522SOL    HW224887   2.272   0.425   9.288  0.2634 -1.4236  0.9499
 6523SOL     OW24888   1.125   3.296   4.436 -0.5649 -0.4009  0.9157
 6523SOL    HW124889   1.159   3.385   4.426 -0.3155 -0.5811  0.0712
 6523SOL    HW224890   1.160   3.248   4.361 -2.8921 -0.5172 -0.1909
 6524SOL     OW24891  10.602   9.994   3.924 -0.3084  0.3141  0.3291
 6524SOL    HW124892  10.672   9.940   3.961 -0.4800 -0.9672 -1.1418
 6524SOL    HW224893  10.524   9.970   3.974 -0.5153 -1.3015 -0.7117
 6525SOL     OW24894   3.290  10.001   9.440 -0.4920 -0.5204 -0.0910
 6525SOL    HW124895   3.267  10.019   9.531 -2.9450  0.3439 -0.7983
 6525SOL    HW224896   3.229   9.933   9.412 -0.0619 -0.4708 -1.2095
 6526SOL     OW24897   6.214   0.355   9.975  0.4052  0.3513 -0.5578
 6526SOL    HW124898   6.185   0.337   9.886  1.3991  1.1623 -1.0652
 6526SOL    HW224899   6.297   0.308   9.983  0.8072  1.0722 -0.3998
 6527SOL     OW24900   3.895  10.383  11.141 -0.0831  0.2337 -0.2958
 6527SOL    HW124901   3.824  10.418  11.193 -0.5053 -0.2189 -0.5565
 6527SOL    HW224902   3.856  10.310  11.092  0.3804  0.4242 -0.9753
 6528SOL     OW24903   2.013   4.179   4.775 -0.0913 -0.7004 -0.6684
 6528SOL    HW124904   1.985   4.129   4.852 -0.4635 -0.1001 -0.4093
 6528SOL    HW224905   2.103   4.206   4.795 -0.9844  1.4914  0.6158
 6529SOL     OW24906   7.313  11.525   0.377  0.3805 -0.1916  0.2842
 6529SOL    HW124907   7.385  11.537   0.316  1.1137 -1.1063  0.9360
 6529SOL    HW224908   7.234  11.536   0.325  0.9856  0.9962 -0.4084
 6530SOL     OW24909   6.412   9.064   8.976 -0.0357  0.1107 -0.1168
 6530SOL    HW124910   6.364   9.108   9.046  1.7577  1.1441  0.5203
 6530SOL    HW224911   6.349   9.001   8.940 -1.4439  0.5303  1.4805
 6531SOL     OW24912   2.596   2.210   2.956  0.2018  0.1515  0.0598
 6531SOL    HW124913   2.672   2.263   2.981 -0.4439  1.2712 -0.3057
 6531SOL    HW224914   2.616   2.180   2.867  0.7778 -0.6498  0.4394
 6532SOL     OW24915  11.691   4.962   3.550  0.4195  0.4061  0.0832
 6532SOL    HW124916  11.732   4.907   3.483 -0.2367 -0.1679  0.1323
 6532SOL    HW224917  11.730   4.933   3.632 -1.4836 -1.6075  0.3873
 6533SOL     OW24918   2.680   0.313   2.181  0.6757 -0.5063  0.0186
 6533SOL    HW124919   2.697   0.407   2.184 -0.9634 -0.0664 -2.0371
 6533SOL    HW224920   2.764   0.275   2.157  1.2252  0.5016  0.2706
 6534SOL     OW24921   6.984   1.446   0.143  0.1247 -0.0868 -0.2186
 6534SOL    HW124922   7.019   1.385   0.209  0.8955  0.3340 -0.2318
 6534SOL    HW224923   6.999   1.533   0.180 -2.1331  0.1231  0.4012
 6535SOL     OW24924   6.955   0.305   0.551 -0.0454  0.0020 -0.1712
 6535SOL    HW124925   7.003   0.228   0.582  1.6058  0.6473 -1.0415
 6535SOL    HW224926   6.974   0.373   0.615 -0.5088  0.0415 -0.0680
 6536SOL     OW24927  11.780   1.320   1.962 -0.5044 -0.9077  0.5688
 6536SOL    HW124928  11.761   1.385   2.030  0.3496 -0.2868  0.2378
 6536SOL    HW224929  11.779   1.236   2.009 -1.5477 -0.6622  1.0145
 6537SOL     OW24930   1.786   5.470   6.892  0.5318  0.1541 -0.0880
 6537SOL    HW124931   1.869   5.476   6.939 -0.3751 -0.2736  1.6683
 6537SOL    HW224932   1.801   5.516   6.810  1.6010  2.7831  1.4742
 6538SOL     OW24933   6.246   3.472   8.064  0.5570 -0.6281 -0.2651
 6538SOL    HW124934   6.224   3.382   8.086  0.7281 -0.3860  0.9884
 6538SOL    HW224935   6.338   3.481   8.090  0.6401 -0.1861 -0.6930
 6539SOL     OW24936   4.190   4.898   3.604 -0.1725  0.0354 -0.0099
 6539SOL    HW124937   4.226   4.811   3.623 -1.7683 -0.5214  0.6029
 6539SOL    HW224938   4.240   4.957   3.660  1.0203 -0.4418 -0.5255
 6540SOL     OW24939  10.266   3.399   9.573  0.0997  0.0528  0.4382
 6540SOL    HW124940  10.267   3.399   9.669  3.3264 -3.0398  0.6305
 6540SOL    HW224941  10.346   3.446   9.548  0.1808 -0.6323 -0.6598
 6541SOL     OW24942   7.825   7.524   3.031  0.3313 -0.1994  0.4796
 6541SOL    HW124943   7.826   7.450   3.091 -0.0495 -0.8126 -0.2479
 6541SOL    HW224944   7.734   7.528   2.999  0.9274 -1.1208 -1.5055
 6542SOL     OW24945   0.571   2.297   1.266 -0.2335 -0.0400  0.6732
 6542SOL    HW124946   0.543   2.301   1.175  0.8085 -0.5342  0.3190
 6542SOL    HW224947   0.584   2.203   1.284  0.5441  0.1198  1.0130
 6543SOL     OW24948   2.134   1.956   7.202 -0.5543  0.3350  0.4645
 6543SOL    HW124949   2.097   2.007   7.275  1.5009  0.9354  1.1545
 6543SOL    HW224950   2.204   2.011   7.168  0.3570 -1.1502 -0.1517
 6544SOL     OW24951   3.507   1.776   8.605 -0.4818 -0.2290 -0.1742
 6544SOL    HW124952   3.565   1.704   8.628  0.1061  0.3735  0.2434
 6544SOL    HW224953   3.554   1.855   8.631 -1.5213  0.2643  0.2736
 6545SOL     OW24954   0.480   5.234   5.426  0.4131  0.2167 -0.2780
 6545SOL    HW124955   0.500   5.327   5.431  0.2620  0.2077  0.9177
 6545SOL    HW224956   0.551   5.196   5.375 -0.5844  1.2626 -2.5709
 6546SOL     OW24957   0.139   3.569   7.228 -0.2098  0.6044  0.7788
 6546SOL    HW124958   0.118   3.662   7.242  1.0376  0.7501  1.8569
 6546SOL    HW224959   0.161   3.536   7.315 -0.5133 -0.6915  0.3881
 6547SOL     OW24960   5.951   5.100   9.650  0.5171  0.2476 -0.0995
 6547SOL    HW124961   6.035   5.141   9.632  0.8484  0.5443  1.9200
 6547SOL    HW224962   5.921   5.139   9.732 -0.2925 -1.7888  0.6605
 6548SOL     OW24963  10.261  11.392   1.265 -0.0670  0.2870  0.0982
 6548SOL    HW124964  10.221  11.473   1.295 -1.6870 -0.1843 -0.6837
 6548SOL    HW224965  10.354  11.401   1.288 -0.5848  1.4345  1.9246
 6549SOL     OW24966   6.258   1.282   2.687  0.0754  0.1193  0.5681
 6549SOL    HW124967   6.210   1.348   2.737  1.0797  1.2727  0.0398
 6549SOL    HW224968   6.229   1.199   2.725 -0.1418  0.9065  2.2100
 6550SOL     OW24969   4.525   6.727   6.636 -0.2202 -0.6136 -0.6126
 6550SOL    HW124970   4.594   6.740   6.702 -0.4335 -0.5125 -0.4078
 6550SOL    HW224971   4.562   6.764   6.555  0.0711 -0.8037 -0.5678
 6551SOL     OW24972  10.773  11.598   7.606  0.1214 -0.0377  0.2412
 6551SOL    HW124973  10.827  11.635   7.675  2.7648 -1.1767 -1.0584
 6551SOL    HW224974  10.818  11.623   7.524 -2.6005  0.8498 -1.1057
 6552SOL     OW24975   2.742   8.325   7.350  0.1849  0.1629 -0.3300
 6552SOL    HW124976   2.831   8.308   7.382  0.0448 -0.6712 -0.3614
 6552SOL    HW224977   2.734   8.420   7.352  0.7958  0.2082  0.4479
 6553SOL     OW24978   1.270   7.306   4.783  0.1560 -0.2267  0.3696
 6553SOL    HW124979   1.274   7.218   4.746  0.7202  0.4852 -1.3904
 6553SOL    HW224980   1.180   7.335   4.765 -0.8736 -1.3254  3.2636
 6554SOL     OW24981   0.999   3.748   9.033 -0.1151 -0.2767 -0.9246
 6554SOL    HW124982   0.922   3.785   8.988  1.1261  2.3006 -1.1354
 6554SOL    HW224983   1.060   3.822   9.040  0.8850 -1.2580  2.5695
 6555SOL     OW24984   0.509  10.151   9.846 -0.0859 -0.1718  0.0294
 6555SOL    HW124985   0.451  10.077   9.830 -0.7188 -0.0308  1.5300
 6555SOL    HW224986   0.455  10.228   9.831 -0.1155 -0.0397  0.7441
 6556SOL     OW24987   6.672   1.730   4.795  0.0687  0.2296  0.0247
 6556SOL    HW124988   6.680   1.791   4.722 -0.2654 -0.6908 -0.8105
 6556SOL    HW224989   6.660   1.785   4.872  2.3070  1.3186 -0.3115
 6557SOL     OW24990  11.798   9.673   1.060 -0.5594  0.0464  0.8702
 6557SOL    HW124991  11.853   9.738   1.016  1.0519 -0.8653  1.4418
 6557SOL    HW224992  11.788   9.603   0.996 -1.8521  0.6082  0.4420
 6558SOL     OW24993   8.307   3.369   9.265 -0.1160 -0.1998 -0.0445
 6558SOL    HW124994   8.272   3.450   9.303  0.2458  0.5760 -1.2904
 6558SOL    HW224995   8.255   3.299   9.305  0.7558  0.4686  2.4546
 6559SOL     OW24996  10.190   0.698   6.181  0.0920 -0.6386  0.3352
 6559SOL    HW124997  10.203   0.784   6.219  1.1739 -0.3746 -0.5802
 6559SOL    HW224998  10.100   0.674   6.205  0.0902  0.3390  1.3597
 6560SOL     OW24999   5.815   9.705   2.697 -0.2723 -0.3618 -0.2346
 6560SOL    HW125000   5.749   9.653   2.743  0.7029  0.1871  1.9085
 6560SOL    HW225001   5.767   9.748   2.626 -1.8516 -1.2336  0.2655
 6561SOL     OW25002   6.767   8.035   1.509  0.0709 -0.0936  0.1175
 6561SOL    HW125003   6.840   7.984   1.475  0.6970 -0.2349  1.6411
 6561SOL    HW225004   6.807   8.114   1.545 -0.5410 -0.1226  0.8750
 6562SOL     OW25005   4.782   1.785   6.517  0.1732  0.5483 -0.2274
 6562SOL    HW125006   4.724   1.854   6.551 -0.8357 -1.4562  2.4670
 6562SOL    HW225007   4.733   1.746   6.445  0.7986  2.6063 -1.8552
 6563SOL     OW25008   1.364  11.582   6.279  0.0493 -0.0434  0.0067
 6563SOL    HW125009   1.376  11.488   6.267 -1.2797 -0.2697  0.2759
 6563SOL    HW225010   1.270  11.596   6.266 -0.4824  0.6614  3.6015
 6564SOL     OW25011   5.473   3.279  11.513  0.2176 -0.1323  0.0108
 6564SOL    HW125012   5.539   3.212  11.494 -0.2138 -0.0545 -1.9647
 6564SOL    HW225013   5.389   3.235  11.499 -0.2499 -0.3627  2.9337
 6565SOL     OW25014   9.314  10.157   7.107  0.2694  0.0464 -0.0766
 6565SOL    HW125015   9.284  10.201   7.027  1.0268  0.7165 -0.0072
 6565SOL    HW225016   9.336  10.229   7.167  1.3524 -0.4240  0.1129
 6566SOL     OW25017   4.345   1.168   2.114  0.0040 -0.1388  0.2686
 6566SOL    HW125018   4.351   1.170   2.018 -0.9480  1.6338  0.2065
 6566SOL    HW225019   4.258   1.134   2.132  0.0325 -0.0912  0.4950
 6567SOL     OW25020   1.837   8.201   0.592 -0.0931  0.3812 -0.1269
 6567SOL    HW125021   1.929   8.225   0.603  0.6342 -2.1632 -0.1845
 6567SOL    HW225022   1.838   8.119   0.543 -2.2110 -1.3199  2.3809
 6568SOL     OW25023   7.493   7.352   3.663  0.1471  0.4457 -0.4160
 6568SOL    HW125024   7.538   7.271   3.638 -0.1255  0.2503 -0.2714
 6568SOL    HW225025   7.550   7.422   3.630  1.2649  0.2248  0.9626
 6569SOL     OW25026   3.907   6.129   1.148  0.3900  0.2293 -0.8440
 6569SOL    HW125027   3.848   6.203   1.141 -0.4595 -0.5074 -1.7924
 6569SOL    HW225028   3.855   6.053   1.122  1.4000 -0.6226 -0.4903
 6570SOL     OW25029   7.309  10.921   1.131  0.5952 -0.4605  0.1329
 6570SOL    HW125030   7.360  10.840   1.132  0.3237 -0.6474 -0.4803
 6570SOL    HW225031   7.261  10.920   1.214  1.1721 -0.5431  0.4733
 6571SOL     OW25032   2.023   1.411   0.689 -0.4197 -0.1491  0.3630
 6571SOL    HW125033   1.966   1.428   0.615 -2.2890 -0.7212  1.6036
 6571SOL    HW225034   2.007   1.320   0.712  2.0239 -0.7675 -0.0461
 6572SOL     OW25035   9.466   6.435  11.698  0.4227 -0.2260 -0.3837
 6572SOL    HW125036   9.495   6.390  11.778  0.8070  0.1813 -0.2963
 6572SOL    HW225037   9.374   6.410  11.690  0.5325 -0.7295 -0.1268
 6573SOL     OW25038   5.032   9.466   8.596  0.3709  0.1300  0.8515
 6573SOL    HW125039   5.000   9.377   8.584  0.0495  0.0880  1.9030
 6573SOL    HW225040   5.022   9.483   8.690 -1.2757  1.8906  0.4328
 6574SOL     OW25041   6.455   5.277   9.923 -0.2718  0.2270 -0.2088
 6574SOL    HW125042   6.455   5.365   9.885  1.1087  0.6294  0.6634
 6574SOL    HW225043   6.536   5.272   9.974 -0.4484 -1.4591 -0.0138
 6575SOL     OW25044   9.910   1.512   2.066  0.3188  0.4493  0.2025
 6575SOL    HW125045   9.900   1.457   1.989  0.2008  1.6827 -0.6830
 6575SOL    HW225046  10.005   1.519   2.078  0.3799  1.4821 -0.7531
 6576SOL     OW25047   6.549   1.803  11.342  0.1711 -0.2752 -0.1587
 6576SOL    HW125048   6.640   1.775  11.351  0.9027  1.1104 -2.5439
 6576SOL    HW225049   6.552   1.899  11.344 -1.3860 -0.1988  0.6867
 6577SOL     OW25050   5.596   9.650   5.943 -0.4650  1.0507 -0.0569
 6577SOL    HW125051   5.655   9.661   6.018  1.7606 -2.0895 -1.1113
 6577SOL    HW225052   5.637   9.700   5.873  0.4582 -0.2455 -0.4917
 6578SOL     OW25053  10.485   8.490   4.719 -0.3412 -0.0573  0.2063
 6578SOL    HW125054  10.501   8.536   4.801 -0.3725  2.7580 -1.2426
 6578SOL    HW225055  10.563   8.436   4.706 -0.1794 -0.2735  1.8936
 6579SOL     OW25056   4.968  11.406  11.805  0.1665  0.2493  0.6094
 6579SOL    HW125057   5.004  11.455  11.879 -0.1972 -1.7529  2.1984
 6579SOL    HW225058   5.030  11.335  11.790 -1.8495 -1.9801  1.9844
 6580SOL     OW25059   0.205   6.079   2.481 -0.0016  0.0979  0.0037
 6580SOL    HW125060   0.211   5.986   2.503 -0.1464 -0.3623 -1.7861
 6580SOL    HW225061   0.292   6.100   2.445  0.3234  0.9002  1.1893
 6581SOL     OW25062   2.263   2.587   4.408 -0.1931  0.3951  0.1046
 6581SOL    HW125063   2.295   2.662   4.458  0.6796 -1.3247  2.2665
 6581SOL    HW225064   2.283   2.511   4.462 -1.9095 -1.3608 -1.5639
 6582SOL     OW25065  11.499   8.510   1.478  0.2593 -0.2460  0.0624
 6582SOL    HW125066  11.475   8.577   1.542 -0.4179 -0.2449 -0.1892
 6582SOL    HW225067  11.470   8.428   1.517 -1.2225 -0.1367 -0.7340
 6583SOL     OW25068   9.765   5.822  10.100  0.0102  0.4342  0.0223
 6583SOL    HW125069   9.753   5.917  10.111 -0.3567  0.5256 -1.0340
 6583SOL    HW225070   9.684   5.793  10.059  0.1615 -0.3300  0.2575
 6584SOL     OW25071   3.893   1.410   4.331 -0.1087 -0.5907 -0.2326
 6584SOL    HW125072   3.877   1.367   4.415 -0.0515  1.5044  0.9138
 6584SOL    HW225073   3.928   1.496   4.354  0.0407 -0.0026 -2.4209
 6585SOL     OW25074  10.691   6.255   3.127 -0.0639 -0.2107 -0.3130
 6585SOL    HW125075  10.767   6.310   3.148 -0.5635  0.9066 -1.3223
 6585SOL    HW225076  10.700   6.236   3.034 -0.2100 -1.4170 -0.1054
 6586SOL     OW25077   2.505   7.374   0.837  0.0520 -0.2617 -0.1982
 6586SOL    HW125078   2.508   7.348   0.929  1.5129 -0.7043 -0.3412
 6586SOL    HW225079   2.496   7.292   0.789  0.6586 -0.1725 -0.4853
 6587SOL     OW25080   4.138   0.338   6.578 -0.4530 -0.5339  0.0864
 6587SOL    HW125081   4.188   0.286   6.641 -0.7669 -1.8328 -0.6902
 6587SOL    HW225082   4.052   0.297   6.575 -0.2440 -0.9500 -1.6601
 6588SOL     OW25083   6.393   9.305   8.787  0.6719 -0.2132  0.1605
 6588SOL    HW125084   6.483   9.306   8.755  0.0869 -0.4744 -1.6332
 6588SOL    HW225085   6.378   9.216   8.818  1.2322  0.0181  1.1044
 6589SOL     OW25086   3.448  10.205   0.301  0.0693 -0.3795  0.3504
 6589SOL    HW125087   3.392  10.281   0.285  1.8859  0.7485 -1.0693
 6589SOL    HW225088   3.519  10.239   0.356  1.6230 -0.6469 -1.3868
 6590SOL     OW25089   8.273   0.405   0.418 -0.1690  0.1097 -0.2374
 6590SOL    HW125090   8.288   0.381   0.509 -0.2013  1.7557  0.2299
 6590SOL    HW225091   8.197   0.354   0.391  0.0726 -0.6723  0.5291
 6591SOL     OW25092   6.538   7.536   6.426 -0.1299 -0.9112  0.1957
 6591SOL    HW125093   6.531   7.619   6.474 -1.1342  0.4796 -2.1676
 6591SOL    HW225094   6.584   7.478   6.485  0.4140  1.2738  2.0576
 6592SOL     OW25095   0.456   1.300   0.420  0.5098 -0.7510  0.4272
 6592SOL    HW125096   0.368   1.310   0.455  0.9577  1.4534  1.0887
 6592SOL    HW225097   0.451   1.335   0.331  0.3170 -2.4626 -0.2723
 6593SOL     OW25098   0.088  10.691   1.949 -0.2942 -0.0697 -0.0880
 6593SOL    HW125099   0.160  10.743   1.913 -0.5138  0.2230 -0.1155
 6593SOL    HW225100   0.091  10.608   1.902  1.1596 -0.7859  1.1827
 6594SOL     OW25101   8.514   0.266   4.091 -0.3078  0.3686 -0.1542
 6594SOL    HW125102   8.453   0.247   4.019  1.0478 -0.0387 -1.2231
 6594SOL    HW225103   8.500   0.359   4.110  0.5626  0.9593 -2.1670
 6595SOL     OW25104  10.557   6.611   3.857 -0.0401  0.0281 -0.5567
 6595SOL    HW125105  10.547   6.599   3.951 -0.5422 -0.3373 -0.6535
 6595SOL    HW225106  10.651   6.613   3.843  0.0493  0.9059  0.0541
 6596SOL     OW25107   0.248   7.437   6.182  0.0385  0.3511  0.5215
 6596SOL    HW125108   0.231   7.530   6.199  2.4162  1.0571 -0.6114
 6596SOL    HW225109   0.343   7.429   6.187 -0.0991 -1.9631  0.1929
 6597SOL     OW25110   1.217  10.374   6.200  0.3643 -0.2037 -0.2936
 6597SOL    HW125111   1.307  10.365   6.166  0.4229  0.4589 -0.3165
 6597SOL    HW225112   1.213  10.310   6.271  0.0583 -2.0546 -1.8799
 6598SOL     OW25113   2.576   9.332   1.707 -0.1636  0.0085  0.1861
 6598SOL    HW125114   2.626   9.274   1.649 -0.2605  0.4660 -0.3637
 6598SOL    HW225115   2.577   9.288   1.792 -0.9442 -1.2086 -0.4177
 6599SOL     OW25116   8.327  10.828   9.743  0.2563 -0.0893 -0.1329
 6599SOL    HW125117   8.267  10.889   9.786  1.1699 -1.1625  2.9381
 6599SOL    HW225118   8.413  10.868   9.753  0.7181 -1.2679  0.8723
 6600SOL     OW25119   4.248   6.756   0.549 -0.0639  0.4031 -0.1190
 6600SOL    HW125120   4.242   6.679   0.492  2.8854 -0.1664  0.1855
 6600SOL    HW225121   4.225   6.830   0.493  0.2654 -0.3861 -1.3398
 6601SOL     OW25122   1.532   6.723  10.809 -0.6180 -0.0503 -0.0126
 6601SOL    HW125123   1.455   6.740  10.755 -1.7837 -0.9555  1.2909
 6601SOL    HW225124   1.583   6.660  10.760 -1.8619 -1.1766  0.0905
 6602SOL     OW25125   2.952  10.073   9.789 -0.5382  0.0637 -0.1599
 6602SOL    HW125126   2.889  10.146   9.791  0.1456  0.6356  1.4077
 6602SOL    HW225127   2.979  10.062   9.880 -0.9055 -2.4259 -0.2992
 6603SOL     OW25128  10.845   2.473   3.515  0.2640  0.4157 -0.5782
 6603SOL    HW125129  10.819   2.559   3.484  0.6252  0.8597  0.3165
 6603SOL    HW225130  10.808   2.467   3.603  0.5167 -0.2055 -0.5090
 6604SOL     OW25131   4.587   7.206   1.765 -0.3740 -0.8609  0.4616
 6604SOL    HW125132   4.493   7.213   1.753 -0.5309 -2.0020  0.8883
 6604SOL    HW225133   4.608   7.115   1.741  1.0457  0.0737 -2.2569
 6605SOL     OW25134   4.019   5.984   8.310 -0.0326 -0.4498 -0.0427
 6605SOL    HW125135   4.085   6.053   8.306  0.3219 -0.7633  0.3250
 6605SOL    HW225136   4.058   5.917   8.365 -1.1707 -0.1009  1.2470
 6606SOL     OW25137   5.260   5.446   2.250  0.1934 -0.2632  0.4385
 6606SOL    HW125138   5.222   5.528   2.219  0.8630 -0.3401 -0.6777
 6606SOL    HW225139   5.279   5.397   2.170 -0.5063 -1.6693  1.0857
 6607SOL     OW25140   8.100   5.308   4.661 -0.1634 -0.0483 -0.3799
 6607SOL    HW125141   8.027   5.297   4.601 -0.8888  0.2193  0.4278
 6607SOL    HW225142   8.067   5.276   4.745  0.0559  1.6243  0.3938
 6608SOL     OW25143   2.333   8.027   5.583 -0.2228 -0.3932 -0.0362
 6608SOL    HW125144   2.301   8.080   5.656  1.2315  0.2225  0.1799
 6608SOL    HW225145   2.256   8.012   5.529 -0.7610  1.6551  0.0773
 6609SOL     OW25146   8.796   0.133   1.785 -0.0429  0.2293 -0.2515
 6609SOL    HW125147   8.742   0.211   1.798  0.0372  0.3220 -0.4687
 6609SOL    HW225148   8.740   0.060   1.812 -0.0939  0.3680  0.0153
 6610SOL     OW25149   8.127   4.160   0.702 -0.3071 -0.4389  0.4182
 6610SOL    HW125150   8.032   4.175   0.697 -0.3684 -1.0899 -1.7173
 6610SOL    HW225151   8.137   4.094   0.770 -0.9594  2.1276  3.2216
 6611SOL     OW25152   4.033   2.834  10.081 -0.2487 -0.8010 -0.4518
 6611SOL    HW125153   3.968   2.763  10.082 -1.5630  0.3571 -1.3417
 6611SOL    HW225154   4.118   2.788  10.088 -1.0415 -2.4646 -1.1782
 6612SOL     OW25155   8.280   7.174  11.566 -0.3959  0.1938 -0.1291
 6612SOL    HW125156   8.198   7.170  11.517 -0.8557  1.0049  0.5357
 6612SOL    HW225157   8.258   7.137  11.652  0.6506 -2.1499 -0.7948
 6613SOL     OW25158   0.767   9.317   9.980 -0.2833 -0.3293  0.6251
 6613SOL    HW125159   0.796   9.227   9.962 -0.7022 -0.2415 -0.5697
 6613SOL    HW225160   0.848   9.364   9.999 -0.1334 -1.1320  2.1818
 6614SOL     OW25161   2.452   6.210  11.804 -0.0184  0.3812  0.0061
 6614SOL    HW125162   2.426   6.136  11.748 -1.4273 -0.6801  1.9135
 6614SOL    HW225163   2.540   6.187  11.835  0.0195  0.0732 -0.3235
 6615SOL     OW25164   4.194   4.287   9.252  0.0262 -0.1146 -0.1016
 6615SOL    HW125165   4.180   4.192   9.254 -0.9206  0.0264  0.7543
 6615SOL    HW225166   4.272   4.300   9.306  0.0383 -0.3804 -0.0526
 6616SOL     OW25167   9.377   1.784   7.209  0.5683 -0.3407  0.1304
 6616SOL    HW125168   9.401   1.710   7.265 -0.1159 -0.5773  0.1162
 6616SOL    HW225169   9.288   1.765   7.181 -0.5214  1.6212  1.9919
 6617SOL     OW25170   6.043  11.199  10.009  0.3937  0.0436  0.3029
 6617SOL    HW125171   5.972  11.223  10.069  0.8344  1.8421  0.1719
 6617SOL    HW225172   6.111  11.164  10.066 -0.1852 -0.7428  0.5378
 6618SOL     OW25173   1.108   8.066   9.121  0.3950  0.0111  0.8627
 6618SOL    HW125174   1.053   7.995   9.090  0.4028 -0.0251  0.9314
 6618SOL    HW225175   1.047   8.125   9.167  0.3547  0.1524  0.6293
 6619SOL     OW25176  10.779   4.490   2.255  0.1234  0.3944 -0.1547
 6619SOL    HW125177  10.804   4.422   2.318 -0.2073  0.2915 -0.1318
 6619SOL    HW225178  10.684   4.496   2.263  0.0670  0.3116 -0.7165
 6620SOL     OW25179   8.073   8.158   1.027  0.6892 -0.4374 -0.0218
 6620SOL    HW125180   8.085   8.161   0.932  0.1575 -0.4946 -0.0975
 6620SOL    HW225181   7.979   8.142   1.038  0.7954 -0.7185  0.5107
 6621SOL     OW25182   1.494  10.991   4.779 -0.0551 -0.2185 -0.3286
 6621SOL    HW125183   1.471  11.049   4.707 -1.2468 -0.8183 -0.4547
 6621SOL    HW225184   1.555  10.928   4.741 -0.0493 -0.0453 -0.6078
 6622SOL     OW25185   3.762   7.463   6.044  0.2658  0.8080 -0.2070
 6622SOL    HW125186   3.757   7.531   6.111  0.6339  0.9741 -0.3461
 6622SOL    HW225187   3.776   7.382   6.094  1.6833  1.0730 -0.1275
 6623SOL     OW25188   1.329   7.148   0.117 -0.2410 -0.0368 -0.1784
 6623SOL    HW125189   1.330   7.092   0.194 -0.6163  0.8786  0.5145
 6623SOL    HW225190   1.421   7.163   0.097 -0.1408 -0.1306  0.2065
 6624SOL     OW25191   1.426   4.062   7.680  0.4329  0.2840 -0.3610
 6624SOL    HW125192   1.408   4.126   7.749 -1.1762 -0.0043 -0.4730
 6624SOL    HW225193   1.445   4.115   7.602  1.8363  0.6076  0.1697
 6625SOL     OW25194   2.198   0.156   7.746 -0.3886 -0.1755 -0.0465
 6625SOL    HW125195   2.223   0.199   7.828  0.3044 -0.8002  0.0771
 6625SOL    HW225196   2.157   0.226   7.694 -2.1746 -0.0787  1.3946
 6626SOL     OW25197   8.666  11.338   9.394  0.1928 -0.2357  0.4211
 6626SOL    HW125198   8.709  11.373   9.316  1.6770 -0.6782  1.0214
 6626SOL    HW225199   8.674  11.243   9.387 -2.4545 -0.4882 -0.4151
 6627SOL     OW25200   5.942   7.614  11.037 -0.4406 -0.3032 -0.0590
 6627SOL    HW125201   5.988   7.676  10.980 -0.4198 -0.1565  0.1179
 6627SOL    HW225202   5.856   7.604  10.997 -0.3256 -0.4256 -0.2792
 6628SOL     OW25203   3.645  11.581   1.070 -0.1220  0.6437  0.3088
 6628SOL    HW125204   3.727  11.532   1.069 -0.0322  0.7235 -2.1867
 6628SOL    HW225205   3.590  11.536   1.005 -0.8381  2.5251 -0.4439
 6629SOL     OW25206   8.750   8.198   2.630  0.1835  0.0915  0.0121
 6629SOL    HW125207   8.770   8.282   2.590 -2.1731  0.3744 -0.7160
 6629SOL    HW225208   8.672   8.214   2.684 -1.3236 -1.8692 -1.4051
 6630SOL     OW25209   7.560   2.176   4.817  0.3933  0.5310  0.5054
 6630SOL    HW125210   7.473   2.152   4.848  1.5038 -1.4307  2.3602
 6630SOL    HW225211   7.570   2.129   4.734 -0.0434  0.1963  0.6391
 6631SOL     OW25212  10.950  10.178  11.799  0.2225  0.1516 -0.5165
 6631SOL    HW125213  11.040  10.150  11.783 -0.0940 -0.8604 -0.5934
 6631SOL    HW225214  10.939  10.172  11.894  0.3036  0.4982 -0.4838
 6632SOL     OW25215   8.616   3.344   2.856  0.2006 -0.3599 -0.2460
 6632SOL    HW125216   8.527   3.378   2.843  0.8344  1.3138 -0.4193
 6632SOL    HW225217   8.630   3.350   2.951  0.3915  0.0758 -0.3010
 6633SOL     OW25218   5.087   1.654   3.242  0.1669  0.0129 -0.0377
 6633SOL    HW125219   5.032   1.702   3.181 -0.0382 -0.4696 -0.2406
 6633SOL    HW225220   5.121   1.580   3.190  0.9780  0.2902  0.0927
 6634SOL     OW25221   7.392   4.071   8.883 -0.4163 -0.1912 -0.5945
 6634SOL    HW125222   7.320   4.075   8.819 -1.7567 -1.7295  0.7418
 6634SOL    HW225223   7.452   4.006   8.847 -0.9241 -0.6960 -0.5396
 6635SOL     OW25224   3.046   6.275   4.923  0.7020  0.0512 -0.1434
 6635SOL    HW125225   2.983   6.206   4.943 -0.6261  0.5891 -2.2048
 6635SOL    HW225226   3.065   6.316   5.008  2.9169 -3.8337  1.5302
 6636SOL     OW25227  10.703   4.086   8.923 -0.5627  0.3205  0.0776
 6636SOL    HW125228  10.702   4.176   8.888  0.6259  0.2975 -0.0455
 6636SOL    HW225229  10.752   4.035   8.858 -0.3466 -0.2022  0.6393
 6637SOL     OW25230   6.514   8.199   8.770 -0.2981  0.1011  0.3499
 6637SOL    HW125231   6.424   8.229   8.761 -0.5869 -0.6400  0.6404
 6637SOL    HW225232   6.510   8.133   8.840  0.4915  0.1609  0.4623
 6638SOL     OW25233   0.811   6.234   7.119  0.4586 -1.0830 -0.7753
 6638SOL    HW125234   0.883   6.231   7.055  0.4960 -0.9107 -0.7406
 6638SOL    HW225235   0.734   6.206   7.069  0.7294 -2.2456 -0.5713
 6639SOL     OW25236   4.706   9.430   1.661 -0.4976  0.2722  0.2797
 6639SOL    HW125237   4.742   9.353   1.705  0.4280 -0.1002 -1.0685
 6639SOL    HW225238   4.755   9.504   1.699 -1.2645  0.2209  1.4452
 6640SOL     OW25239   2.382   5.945   2.390  0.0080  0.1322  0.6143
 6640SOL    HW125240   2.325   5.968   2.463  1.1111  0.3843  1.4143
 6640SOL    HW225241   2.420   5.861   2.415 -0.3448 -0.2543 -0.1209
 6641SOL     OW25242   0.370   5.384   2.021 -0.1553  0.4950  0.2902
 6641SOL    HW125243   0.421   5.465   2.025  1.1416 -0.1696 -1.2601
 6641SOL    HW225244   0.317   5.394   1.942 -0.6789  0.2163  0.6079
 6642SOL     OW25245   9.631   3.420  10.273 -0.1917  0.2475 -0.4791
 6642SOL    HW125246   9.587   3.505  10.281  2.3901  2.2052 -4.0901
 6642SOL    HW225247   9.567   3.364  10.227 -1.5170  0.4869  0.9726
 6643SOL     OW25248   4.340   6.175   2.725  0.6590 -0.1173  0.0787
 6643SOL    HW125249   4.246   6.195   2.720  0.5442 -0.9082 -3.4478
 6643SOL    HW225250   4.383   6.258   2.707  0.5258 -0.2632 -0.9802
 6644SOL     OW25251   2.562  10.114   5.436 -0.4241  0.2835  0.3483
 6644SOL    HW125252   2.630  10.048   5.435 -0.8156 -0.1226  0.0853
 6644SOL    HW225253   2.604  10.193   5.402  0.2746  0.4147  1.4581
 6645SOL     OW25254  11.432   1.266   1.934 -0.1383 -0.0301  0.5618
 6645SOL    HW125255  11.388   1.340   1.978  1.6711  0.9501  0.8102
 6645SOL    HW225256  11.460   1.209   2.006 -0.9749 -0.6670  0.4012
 6646SOL     OW25257  11.208   6.407   0.692  0.2473  0.0502  0.3188
 6646SOL    HW125258  11.262   6.465   0.639  0.9374 -0.1400  0.8097
 6646SOL    HW225259  11.123   6.407   0.647  0.7608  0.0408 -0.6739
 6647SOL     OW25260   4.642  11.422   0.790 -0.3116  0.1789 -0.1008
 6647SOL    HW125261   4.626  11.516   0.802  0.0333  0.1309  0.8260
 6647SOL    HW225262   4.730  11.408   0.824 -0.3308 -0.4705 -0.3087
 6648SOL     OW25263   4.206   7.418   8.633  0.3354  0.1575  0.0002
 6648SOL    HW125264   4.243   7.410   8.721 -0.8154  0.5122  0.5294
 6648SOL    HW225265   4.248   7.347   8.584  1.6010  0.4580  0.5949
 6649SOL     OW25266   4.633   2.502  11.247 -0.9964 -0.2131 -0.2341
 6649SOL    HW125267   4.563   2.455  11.290 -1.1163 -1.7060 -1.9609
 6649SOL    HW225268   4.696   2.522  11.317 -1.9726 -1.0026  0.8949
 6650SOL     OW25269   9.603   0.208   8.924  0.0425 -0.2670 -0.5029
 6650SOL    HW125270   9.557   0.148   8.983  0.7180 -0.2308  0.0714
 6650SOL    HW225271   9.631   0.280   8.980  0.0142  0.1522 -1.0189
 6651SOL     OW25272   8.309   5.371   0.071 -0.4173  0.3971 -0.0567
 6651SOL    HW125273   8.286   5.292   0.120 -0.5597  1.3830  1.5230
 6651SOL    HW225274   8.281   5.352  -0.019 -0.1235 -1.4751  0.1991
 6652SOL     OW25275   4.463  11.398   5.592  0.3910  0.1228 -0.0653
 6652SOL    HW125276   4.461  11.410   5.497  0.9558 -0.2373 -0.1224
 6652SOL    HW225277   4.466  11.304   5.605 -0.9978  0.1071  0.3454
 6653SOL     OW25278   0.783   2.444   2.214  0.2266  0.3894  0.1524
 6653SOL    HW125279   0.732   2.424   2.293 -1.1886 -0.6867 -0.9922
 6653SOL    HW225280   0.720   2.482   2.154  1.1074  0.4376 -0.7647
 6654SOL     OW25281   5.547   4.128  10.924  0.0743  0.0859 -0.2737
 6654SOL    HW125282   5.475   4.152  10.865  0.0773 -1.9430 -1.1605
 6654SOL    HW225283   5.625   4.130  10.869  0.2621 -0.6304 -0.0432
 6655SOL     OW25284   8.771   3.672   3.999  0.6708  0.4166 -0.4003
 6655SOL    HW125285   8.694   3.727   4.013  0.2820 -0.2914  0.3865
 6655SOL    HW225286   8.773   3.615   4.076  0.4763 -1.3604 -1.6664
 6656SOL     OW25287   0.464  10.785  10.196  0.2445 -0.8400  0.2324
 6656SOL    HW125288   0.386  10.747  10.155  0.0815 -1.0886  0.7668
 6656SOL    HW225289   0.465  10.876  10.167 -0.0902 -0.9109 -0.0011
 6657SOL     OW25290   7.287   3.394  11.423 -0.3755  0.2154 -0.9699
 6657SOL    HW125291   7.348   3.446  11.476 -1.0898 -0.9146  1.0541
 6657SOL    HW225292   7.202   3.436  11.436 -0.9208 -1.2682  0.5099
 6658SOL     OW25293   1.513   8.426   7.494  0.1899 -0.0149 -0.1716
 6658SOL    HW125294   1.589   8.395   7.544  0.2472 -0.1692 -0.3532
 6658SOL    HW225295   1.539   8.416   7.403  1.0094  2.4838 -0.2812
 6659SOL     OW25296   3.711   8.540   1.017  0.0836 -0.0140  0.0847
 6659SOL    HW125297   3.738   8.504   1.102  0.0464  0.3546  0.2559
 6659SOL    HW225298   3.632   8.491   0.994  0.1473 -0.1796  0.2180
 6660SOL     OW25299   2.079  10.575   7.434 -0.5125 -0.5759 -0.4689
 6660SOL    HW125300   2.139  10.548   7.503  0.0997 -0.5093 -0.9611
 6660SOL    HW225301   2.123  10.550   7.352 -2.4741 -3.2694 -0.8349
 6661SOL     OW25302   6.754   8.335   8.341  0.3037 -0.1745  0.0728
 6661SOL    HW125303   6.728   8.257   8.389  0.2675 -0.9129 -1.0885
 6661SOL    HW225304   6.688   8.400   8.363 -0.6311 -0.9937 -0.2254
 6662SOL     OW25305   3.105   8.469   5.677  0.2481 -0.1270  0.2141
 6662SOL    HW125306   3.177   8.522   5.709  0.5047 -0.7297  0.6594
 6662SOL    HW225307   3.148   8.397   5.630 -0.0875 -0.0668 -0.1952
 6663SOL     OW25308   5.173   5.989   2.849  0.4042 -0.0532 -0.1993
 6663SOL    HW125309   5.140   6.011   2.762 -0.3020  1.3205  0.3760
 6663SOL    HW225310   5.097   5.998   2.906  1.3527  1.5036  0.9141
 6664SOL     OW25311   0.932   8.686  11.274 -0.2049 -0.4889 -0.1568
 6664SOL    HW125312   0.843   8.679  11.239 -0.0473  0.6681 -0.8297
 6664SOL    HW225313   0.924   8.746  11.348 -0.1356 -1.1297  0.3781
 6665SOL     OW25314   9.282   8.729   6.694  0.1432 -0.2205  0.1225
 6665SOL    HW125315   9.246   8.799   6.748  0.1567 -0.5846  0.6148
 6665SOL    HW225316   9.322   8.774   6.620 -0.6722  0.2378 -0.0615
 6666SOL     OW25317   5.351   5.562   1.012 -0.2398 -0.0271  0.2718
 6666SOL    HW125318   5.446   5.565   1.010 -0.1534 -1.0168  1.6729
 6666SOL    HW225319   5.323   5.651   0.992  0.9256  0.0192 -1.3473
 6667SOL     OW25320   8.128   6.078  10.271  0.0785 -0.1445  0.2628
 6667SOL    HW125321   8.113   6.130  10.192  0.7336  2.2128  1.5935
 6667SOL    HW225322   8.049   6.090  10.324  0.7128  0.5109  1.0909
 6668SOL     OW25323   3.130   1.402   0.204  0.2527  0.4383 -0.0698
 6668SOL    HW125324   3.064   1.356   0.256  0.7455  0.0675  0.2454
 6668SOL    HW225325   3.157   1.339   0.138  1.5466 -0.0758  0.8885
 6669SOL     OW25326   5.233   3.719  11.397  0.2416 -0.3984  0.2612
 6669SOL    HW125327   5.289   3.649  11.364 -0.2511 -0.2944 -0.8091
 6669SOL    HW225328   5.258   3.796  11.347  1.3124  0.4204  1.9502
 6670SOL     OW25329  10.482   3.446   8.285  0.0580 -0.4283  0.0913
 6670SOL    HW125330  10.491   3.397   8.204 -1.1959 -1.0084  0.2743
 6670SOL    HW225331  10.440   3.385   8.346  1.5864 -0.2418  1.4147
 6671SOL     OW25332  10.228  10.424   6.282  0.3297  0.1663  0.3806
 6671SOL    HW125333  10.294  10.359   6.306  1.7105  1.4043  0.1028
 6671SOL    HW225334  10.214  10.409   6.188  2.6675  1.8797 -0.3601
 6672SOL     OW25335   8.241   8.790   0.723  0.5861 -0.1017  0.5057
 6672SOL    HW125336   8.260   8.866   0.668 -0.1692  0.2396  0.7099
 6672SOL    HW225337   8.321   8.779   0.776  0.2128  1.4256  1.4716
 6673SOL     OW25338   5.483   1.736   9.454  0.9966  0.5490  0.8337
 6673SOL    HW125339   5.543   1.710   9.524 -0.1431 -0.9530  1.3113
 6673SOL    HW225340   5.444   1.818   9.486 -1.2883 -1.2781  3.2326
 6674SOL     OW25341   6.445   8.162   0.697 -0.0603 -0.1156 -0.4789
 6674SOL    HW125342   6.436   8.146   0.603  0.3923  1.6416 -0.8599
 6674SOL    HW225343   6.539   8.155   0.713 -0.2607 -1.7575  0.1427
 6675SOL     OW25344   9.585   1.669  10.498 -0.7152  0.1288  0.1406
 6675SOL    HW125345   9.661   1.705  10.544  0.5439 -0.4049 -1.4481
 6675SOL    HW225346   9.594   1.699  10.408 -1.2442 -1.6972 -0.5527
 6676SOL     OW25347   0.757   5.383   5.728 -0.0603  0.1434 -0.0874
 6676SOL    HW125348   0.851   5.390   5.715  0.2199 -0.4706  1.3845
 6676SOL    HW225349   0.742   5.420   5.815 -1.2191  0.4540 -0.3964
 6677SOL     OW25350   9.859   5.405   5.906 -0.0580  0.1631  0.2245
 6677SOL    HW125351   9.772   5.425   5.941  0.1080  0.6691  0.3570
 6677SOL    HW225352   9.907   5.369   5.981 -0.1959 -0.2551  0.1148
 6678SOL     OW25353   5.433   0.353   6.201  0.1260 -0.5416  0.3367
 6678SOL    HW125354   5.419   0.372   6.108  1.2665  1.2922  0.4867
 6678SOL    HW225355   5.345   0.340   6.237 -0.3263 -1.2655 -0.9721
 6679SOL     OW25356   7.214   5.056   3.295 -0.3035 -0.7579  0.3379
 6679SOL    HW125357   7.122   5.081   3.296  0.1812  1.2054  0.2796
 6679SOL    HW225358   7.234   5.034   3.386 -0.5821 -0.1153  0.5603
 6680SOL     OW25359   7.737   5.673   4.158 -0.0870  0.3484  0.3858
 6680SOL    HW125360   7.657   5.621   4.170 -0.9705  0.7821 -2.6399
 6680SOL    HW225361   7.796   5.615   4.109  0.5411  0.8392  0.5473
 6681SOL     OW25362  10.043  11.276   2.632  0.3607 -0.1484 -0.8191
 6681SOL    HW125363   9.983  11.209   2.664 -0.7754  0.1190 -2.2832
 6681SOL    HW225364  10.033  11.349   2.693  0.4862 -0.7326 -0.0839
 6682SOL     OW25365   4.547  10.299   8.081 -0.0332 -0.0804 -0.1803
 6682SOL    HW125366   4.493  10.365   8.038  1.0417  0.8673 -0.1246
 6682SOL    HW225367   4.498  10.217   8.072 -1.3916  0.7216 -0.2467
 6683SOL     OW25368   4.220   8.223   1.444  0.3871  0.5075 -0.2923
 6683SOL    HW125369   4.240   8.131   1.426 -1.8874  0.0341 -0.6488
 6683SOL    HW225370   4.142   8.242   1.392 -0.9243  1.7773  1.9423
 6684SOL     OW25371   6.338   9.368   0.130 -0.5709  0.0098 -0.0953
 6684SOL    HW125372   6.393   9.434   0.174  1.7885 -1.7403 -0.1948
 6684SOL    HW225373   6.351   9.289   0.182 -1.1375 -1.0579 -1.5398
 6685SOL     OW25374  10.056   4.965   2.673  0.5591 -0.4114 -0.4676
 6685SOL    HW125375  10.117   4.992   2.742 -0.2996 -1.1731  0.6160
 6685SOL    HW225376  10.098   4.889   2.634  0.7123 -0.4047 -0.3201
 6686SOL     OW25377   1.642   5.116   1.015 -0.1441  0.5541  0.0878
 6686SOL    HW125378   1.691   5.131   0.934  2.8916 -0.3716  1.6204
 6686SOL    HW225379   1.588   5.195   1.025  1.0572  1.6800 -1.7094
 6687SOL     OW25380  10.774   3.434   3.828 -0.5892 -0.6564  0.2946
 6687SOL    HW125381  10.717   3.508   3.805  1.4157  0.7529 -0.4382
 6687SOL    HW225382  10.760   3.421   3.921 -0.6643  0.9997  0.5433
 6688SOL     OW25383   2.469   5.899   9.053 -0.4807 -0.0126  0.2307
 6688SOL    HW125384   2.415   5.943   8.987 -1.6855 -2.7431 -0.7606
 6688SOL    HW225385   2.537   5.855   9.002  0.8707  0.8831  1.2048
 6689SOL     OW25386   3.840   1.928   9.603  0.2676  0.3271 -0.3047
 6689SOL    HW125387   3.831   1.845   9.555 -0.8336  0.1998  0.0885
 6689SOL    HW225388   3.901   1.908   9.674  0.8861  0.1681 -0.8626
 6690SOL     OW25389   5.640   7.419   7.310  0.1818 -0.0971  0.0868
 6690SOL    HW125390   5.719   7.449   7.356 -0.2930  1.5293 -0.0891
 6690SOL    HW225391   5.673   7.362   7.241  1.1894  0.3502  0.1704
 6691SOL     OW25392   3.355   4.517   6.049  0.1887  0.2261  0.1513
 6691SOL    HW125393   3.333   4.554   5.963 -1.8425  0.7337  0.8332
 6691SOL    HW225394   3.446   4.545   6.063  0.1606  1.2127 -1.2807
 6692SOL     OW25395   6.245   0.684   9.773  0.6534 -0.2121  0.5541
 6692SOL    HW125396   6.338   0.707   9.765  0.2783  1.4749  0.5800
 6692SOL    HW225397   6.226   0.692   9.866  0.8605 -2.3141  0.8263
 6693SOL     OW25398   5.106   8.646   0.621 -0.0155 -0.3418 -0.0761
 6693SOL    HW125399   5.139   8.709   0.685  0.1387 -0.2115 -0.2811
 6693SOL    HW225400   5.012   8.639   0.639  0.2995 -1.5427  1.2260
 6694SOL     OW25401   8.947   6.420  11.810  0.0826 -0.0586 -0.0389
 6694SOL    HW125402   8.921   6.351  11.749 -0.8100 -0.5638  0.8793
 6694SOL    HW225403   8.871   6.479  11.811  0.3925  0.3391  0.0211
 6695SOL     OW25404   9.180   0.316   3.572  0.1547  0.3992  0.4135
 6695SOL    HW125405   9.104   0.364   3.541 -1.1978 -1.3326  0.9117
 6695SOL    HW225406   9.236   0.308   3.495 -2.4803 -2.5890 -1.4074
 6696SOL     OW25407   7.577   5.457   2.581 -0.1383 -0.2745 -0.2334
 6696SOL    HW125408   7.490   5.419   2.591 -0.1349 -0.6654 -1.5169
 6696SOL    HW225409   7.570   5.543   2.622 -0.2643 -1.4346  2.3418
 6697SOL     OW25410   2.055   1.027   9.894 -0.0108 -0.0654 -0.2100
 6697SOL    HW125411   2.067   1.033   9.799  2.3750 -1.1669 -0.0486
 6697SOL    HW225412   1.965   0.997   9.905 -0.1272 -0.5744 -2.1532
 6698SOL     OW25413   7.915   9.150   1.668 -0.0751  0.0635  0.0987
 6698SOL    HW125414   7.886   9.061   1.690  0.6339 -0.3617 -0.6413
 6698SOL    HW225415   8.007   9.152   1.695  0.0313  0.4268 -0.2886
 6699SOL     OW25416   0.971   3.054   0.045  0.1205 -0.5820 -0.3900
 6699SOL    HW125417   0.973   3.114  -0.029  0.3297 -0.9672 -0.7022
 6699SOL    HW225418   0.905   2.988   0.020  0.8738 -1.2448 -0.6551
 6700SOL     OW25419   8.977   8.874  10.593  0.0858 -0.6169 -0.6216
 6700SOL    HW125420   8.933   8.959  10.603  1.6987  0.1963 -0.1750
 6700SOL    HW225421   9.014   8.876  10.505  0.0550 -0.8921 -0.6405
 6701SOL     OW25422   8.744  11.817   0.657  0.1148 -0.3338 -0.3721
 6701SOL    HW125423   8.692  11.755   0.605 -0.7288  0.8672 -1.0167
 6701SOL    HW225424   8.729  11.791   0.748 -1.9697  0.2114 -0.5148
 6702SOL     OW25425   6.136   9.467   3.204  0.0978 -0.2174 -0.1405
 6702SOL    HW125426   6.056   9.429   3.167  0.0653 -1.2933  0.9935
 6702SOL    HW225427   6.201   9.458   3.134  0.3579 -3.3078  0.3471
 6703SOL     OW25428   1.175   5.004  11.277  0.4140  0.2236 -0.0586
 6703SOL    HW125429   1.243   4.938  11.287  0.6800  0.8350  2.8963
 6703SOL    HW225430   1.130   4.980  11.196  1.3234 -2.7788  0.2266
 6704SOL     OW25431   8.315   2.137   1.423 -0.0657  0.0977 -0.0061
 6704SOL    HW125432   8.275   2.091   1.349  0.1234 -0.3914  0.1880
 6704SOL    HW225433   8.320   2.228   1.395  0.9835 -0.2433 -1.0356
 6705SOL     OW25434   3.356   0.349   7.652 -0.5576  0.6424 -0.0469
 6705SOL    HW125435   3.373   0.364   7.745  2.0786  1.1898 -0.5498
 6705SOL    HW225436   3.332   0.435   7.617  0.7638  0.9428 -0.2736
 6706SOL     OW25437  11.352   0.558   8.182 -0.2349  0.4124 -0.0376
 6706SOL    HW125438  11.289   0.494   8.148 -1.0936  1.1101  0.2122
 6706SOL    HW225439  11.434   0.509   8.189  0.1452  0.3387 -3.5120
 6707SOL     OW25440   1.241   3.232   0.796  0.4290 -0.0135 -1.0390
 6707SOL    HW125441   1.198   3.262   0.716 -0.1786  0.0244 -0.7044
 6707SOL    HW225442   1.280   3.148   0.773 -1.1991 -0.8361 -0.9206
 6708SOL     OW25443   8.016   9.689   5.519 -0.1164  0.5175 -0.6243
 6708SOL    HW125444   7.988   9.669   5.608 -1.8576  0.5387 -1.1418
 6708SOL    HW225445   7.976   9.621   5.465 -1.5262  2.1629 -1.7396
 6709SOL     OW25446  10.596  11.362   2.837  0.0501 -0.0636 -0.1006
 6709SOL    HW125447  10.619  11.285   2.785  0.5911  0.3427 -0.4768
 6709SOL    HW225448  10.527  11.405   2.786 -0.1058 -0.1880  0.0058
 6710SOL     OW25449   4.167   4.357   7.903  0.0363 -0.4045  0.1130
 6710SOL    HW125450   4.083   4.360   7.948  0.0338  0.0601  0.0831
 6710SOL    HW225451   4.210   4.279   7.937  0.9555  1.0639  2.5644
 6711SOL     OW25452   1.649   0.434   9.235 -0.2553  0.1695 -0.0956
 6711SOL    HW125453   1.558   0.443   9.209 -0.5246  0.6371  0.9735
 6711SOL    HW225454   1.699   0.480   9.167 -0.7037 -1.0759 -1.3189
 6712SOL     OW25455   2.097   8.752   9.069  0.0002 -0.1751  0.5360
 6712SOL    HW125456   2.051   8.814   9.126 -4.1809 -1.3703 -1.1879
 6712SOL    HW225457   2.091   8.792   8.982  0.3815 -1.3940 -0.0656
 6713SOL     OW25458  11.186   0.916   4.500  0.4094 -0.1053  0.0191
 6713SOL    HW125459  11.166   0.926   4.593 -2.0794 -1.2328 -0.3257
 6713SOL    HW225460  11.173   0.823   4.482 -0.2705  0.2862 -1.6823
 6714SOL     OW25461   8.090   7.700   2.269 -0.3217  0.2185  0.4482
 6714SOL    HW125462   8.171   7.652   2.286 -0.5250 -0.3905 -0.2350
 6714SOL    HW225463   8.022   7.649   2.311 -0.1955  1.6189  2.5079
 6715SOL     OW25464   4.020   1.878  11.368 -0.2561 -0.6196  0.1801
 6715SOL    HW125465   4.071   1.823  11.308 -1.7532 -0.5327 -1.2257
 6715SOL    HW225466   3.929   1.860  11.346 -0.8314  2.6400 -0.6162
 6716SOL     OW25467   4.330   4.269   6.762  0.2091 -0.1547  0.8364
 6716SOL    HW125468   4.268   4.341   6.751  1.3310  0.6687 -0.3814
 6716SOL    HW225469   4.367   4.255   6.675 -0.3963 -2.6249  0.9133
 6717SOL     OW25470  11.398   6.377  10.189 -0.6339 -0.1157  0.1892
 6717SOL    HW125471  11.338   6.304  10.175 -1.4245  0.7125 -0.9032
 6717SOL    HW225472  11.384   6.434  10.114  0.8029  0.6048  0.4309
 6718SOL     OW25473   6.853  10.541  11.219 -0.2684 -0.2954 -0.0116
 6718SOL    HW125474   6.818  10.528  11.131 -3.7837 -0.3918  1.2533
 6718SOL    HW225475   6.843  10.635  11.235  0.7622 -0.2040  0.1753
 6719SOL     OW25476   1.106   1.236   3.421  0.2903 -0.1158 -0.5667
 6719SOL    HW125477   1.042   1.306   3.435 -0.3939 -0.8639  0.1752
 6719SOL    HW225478   1.141   1.217   3.508  0.6986 -0.4832 -0.8079
 6720SOL     OW25479   1.694   5.679  10.349  0.2705 -0.5210  0.0278
 6720SOL    HW125480   1.760   5.662  10.416  0.8351  0.5965 -0.2097
 6720SOL    HW225481   1.735   5.653  10.267  0.4267  0.1604 -0.1191
 6721SOL     OW25482   3.050   6.874   2.926  0.2976 -0.1698 -0.0986
 6721SOL    HW125483   3.028   6.781   2.918 -0.5175  0.0671 -0.7879
 6721SOL    HW225484   3.088   6.882   3.014 -1.1020 -0.8712  0.6078
 6722SOL     OW25485   6.092   2.892   0.057 -0.4409 -0.2954 -0.1591
 6722SOL    HW125486   6.112   2.983   0.079 -1.4570  0.0221 -0.4880
 6722SOL    HW225487   6.120   2.843   0.134 -1.1396  0.4610  0.6051
 6723SOL     OW25488   8.309   7.334   7.718 -0.0512  0.4749  0.1871
 6723SOL    HW125489   8.272   7.268   7.659 -1.1894 -0.8193  2.2371
 6723SOL    HW225490   8.386   7.292   7.756  0.4404  1.1476 -0.0374
 6724SOL     OW25491   3.393   7.816  11.460 -0.0045  0.5507  0.1758
 6724SOL    HW125492   3.390   7.791  11.552 -0.8823  1.0417  0.2994
 6724SOL    HW225493   3.372   7.736  11.412  0.0647  0.3851  0.4236
 6725SOL     OW25494   0.638   0.820   0.052 -0.0038  0.1872 -0.3416
 6725SOL    HW125495   0.708   0.761   0.023 -0.7635 -1.4439  0.9632
 6725SOL    HW225496   0.571   0.762   0.088  0.0972  1.8730  2.9806
 6726SOL     OW25497   4.403   4.414   1.644  0.1139  0.2866  0.4724
 6726SOL    HW125498   4.439   4.431   1.557  0.4690  0.9242  0.7370
 6726SOL    HW225499   4.444   4.331   1.671  1.3816  0.9722  0.7428
 6727SOL     OW25500   5.578   8.977   4.162 -0.3022  1.0127  0.3910
 6727SOL    HW125501   5.580   8.889   4.198 -0.7751  1.8549  2.6344
 6727SOL    HW225502   5.486   8.994   4.143 -0.3514  1.3645  0.9162
 6728SOL     OW25503   7.576   5.985   9.631  0.0166  0.1571 -0.0208
 6728SOL    HW125504   7.493   5.943   9.655  0.9870 -2.0325 -0.2817
 6728SOL    HW225505   7.585   5.968   9.537  1.0072 -0.1426  0.1159
 6729SOL     OW25506   9.870  11.648   5.594  0.0294  0.2924  0.0510
 6729SOL    HW125507   9.851  11.719   5.656 -2.0447  0.6771 -0.9652
 6729SOL    HW225508   9.831  11.570   5.633  0.3033  0.1611  0.0690
 6730SOL     OW25509   4.112   4.318  10.114 -0.2297 -0.0047 -0.1030
 6730SOL    HW125510   4.103   4.400  10.162 -0.2149 -1.2235  2.0976
 6730SOL    HW225511   4.207   4.302  10.113 -0.1838  0.2795 -1.0579
 6731SOL     OW25512   4.720   0.716   0.781 -0.2539 -0.7604 -0.1678
 6731SOL    HW125513   4.795   0.667   0.748  0.3405  1.0046 -1.6250
 6731SOL    HW225514   4.689   0.767   0.706 -0.6929  1.1973  1.2490
 6732SOL     OW25515   4.258   6.958   5.965 -0.1250 -0.0430  0.0250
 6732SOL    HW125516   4.299   6.872   5.956 -0.1296 -0.0878  0.4107
 6732SOL    HW225517   4.328   7.020   5.944 -0.1023 -0.1392 -0.1820
 6733SOL     OW25518  10.944   6.429   8.460  0.1375  0.0981 -0.8078
 6733SOL    HW125519  10.909   6.348   8.424  0.7713  0.4837 -2.3450
 6733SOL    HW225520  11.030   6.405   8.495  0.3294  0.0941 -1.2726
 6734SOL     OW25521   9.515   0.408   3.313 -0.6158 -0.0156 -0.2963
 6734SOL    HW125522   9.544   0.495   3.339 -0.2936 -0.1069 -0.3324
 6734SOL    HW225523   9.421   0.415   3.301 -0.3216  0.8976 -2.5125
 6735SOL     OW25524   5.247   9.625   3.658  0.0329 -1.1437 -0.3867
 6735SOL    HW125525   5.165   9.646   3.704  0.6862  1.9160 -0.3840
 6735SOL    HW225526   5.221   9.608   3.568 -0.7361 -1.7238 -0.0634
 6736SOL     OW25527   4.448   5.276   6.519  0.2780 -0.6591 -0.7481
 6736SOL    HW125528   4.468   5.266   6.426  0.2036 -0.2661 -0.8076
 6736SOL    HW225529   4.364   5.322   6.521  1.5097  1.7407 -0.4998
 6737SOL     OW25530   7.856   5.325   5.234  0.5707 -0.1733  0.3523
 6737SOL    HW125531   7.852   5.304   5.141  2.7076 -0.0464  0.1950
 6737SOL    HW225532   7.874   5.418   5.237 -0.9394  0.1368  0.9581
 6738SOL     OW25533   7.286  10.519   8.542  0.3625  0.2139  0.3771
 6738SOL    HW125534   7.289  10.527   8.638  0.6570 -0.1389  0.4000
 6738SOL    HW225535   7.269  10.426   8.526  0.2063  0.2912  0.0866
 6739SOL     OW25536   7.284  11.649   3.727  0.4630 -0.2193  0.1524
 6739SOL    HW125537   7.200  11.695   3.721 -0.6869 -2.2202 -0.0566
 6739SOL    HW225538   7.335  11.702   3.789 -1.6136  0.1249  1.7065
 6740SOL     OW25539   9.674  11.247  11.080  0.0285 -0.5328  0.2696
 6740SOL    HW125540   9.631  11.180  11.132 -1.3268  0.1215  0.0268
 6740SOL    HW225541   9.658  11.222  10.989  2.1041 -1.4902  0.1005
 6741SOL     OW25542   9.091   0.804   4.744  0.4382 -0.0206  0.0250
 6741SOL    HW125543   9.126   0.802   4.833 -0.2664 -1.5243  0.2930
 6741SOL    HW225544   8.996   0.796   4.754  0.4234 -1.2436 -0.8888
 6742SOL     OW25545   1.730   8.701   4.984 -0.2499 -0.0655  0.2366
 6742SOL    HW125546   1.699   8.785   5.018  2.4578  0.4993  1.6250
 6742SOL    HW225547   1.791   8.724   4.914 -0.4889 -0.9430 -0.2765
 6743SOL     OW25548   4.711   3.271   7.359  0.5785 -0.3667  0.1592
 6743SOL    HW125549   4.685   3.188   7.318  1.4824 -0.3766 -0.4429
 6743SOL    HW225550   4.645   3.334   7.331  0.0936 -0.7995  0.3109
 6744SOL     OW25551   5.044   8.032   8.727 -0.4894  0.2176 -0.0342
 6744SOL    HW125552   5.138   8.021   8.716 -0.5406 -1.9979  1.1182
 6744SOL    HW225553   5.034   8.119   8.765  1.2082 -0.0052  1.0139
 6745SOL     OW25554  10.151   0.142   6.155 -0.0308  0.0698 -0.2732
 6745SOL    HW125555  10.058   0.123   6.144 -0.3228  0.6626  1.0310
 6745SOL    HW225556  10.160   0.234   6.129 -0.2952  0.7590  1.8787
 6746SOL     OW25557   7.503   7.736   0.099  0.3380 -0.6599  0.0474
 6746SOL    HW125558   7.506   7.646   0.067  1.3416 -1.2262  1.6141
 6746SOL    HW225559   7.570   7.739   0.167 -1.7244  0.3787  2.2009
 6747SOL     OW25560   1.184   8.322   8.421 -0.0983 -0.0551  0.1997
 6747SOL    HW125561   1.187   8.371   8.504  0.2540 -0.6804  0.5677
 6747SOL    HW225562   1.171   8.231   8.448 -1.1018 -0.1354 -0.4856
 6748SOL     OW25563   2.882   4.125   7.932 -0.5050 -0.4851 -0.1412
 6748SOL    HW125564   2.874   4.092   8.021  2.7590 -1.5066 -0.0796
 6748SOL    HW225565   2.968   4.167   7.930 -0.2274 -0.9635 -2.9247
 6749SOL     OW25566   2.927   1.861   8.372 -0.1263 -0.2724 -0.0056
 6749SOL    HW125567   2.963   1.870   8.460  0.2381 -1.3023 -0.0412
 6749SOL    HW225568   3.002   1.839   8.317 -0.5459 -0.8524 -0.3585
 6750SOL     OW25569   9.129   9.802   9.312 -0.1339  0.0910  1.1230
 6750SOL    HW125570   9.124   9.780   9.219  1.0261  1.1239  0.7917
 6750SOL    HW225571   9.216   9.772   9.339  0.1970  1.2844  1.4523
 6751SOL     OW25572   4.488   5.938  10.576 -0.6329 -0.1319 -0.4932
 6751SOL    HW125573   4.405   5.908  10.539 -1.1972  0.3063  0.4001
 6751SOL    HW225574   4.495   6.029  10.549 -1.1142  0.2323  0.5507
 6752SOL     OW25575   1.526   1.893  10.826  0.1561 -0.2953 -0.4639
 6752SOL    HW125576   1.587   1.820  10.826  1.7337  0.9640  0.0504
 6752SOL    HW225577   1.481   1.888  10.910  1.0102 -0.0898  0.0119
 6753SOL     OW25578   9.156   5.203   2.104  0.4665 -0.0553  0.1394
 6753SOL    HW125579   9.175   5.162   2.019  0.9113  1.1460 -0.3578
 6753SOL    HW225580   9.223   5.270   2.114 -0.6276  1.0003  0.6275
 6754SOL     OW25581   1.343   7.995   2.760 -0.0365  0.3105 -0.3577
 6754SOL    HW125582   1.368   7.925   2.700 -1.5274 -2.0758  1.5963
 6754SOL    HW225583   1.261   8.029   2.723 -0.1671 -0.1234 -0.4781
 6755SOL     OW25584   2.592  10.753   5.725  0.4680  0.3410 -0.1316
 6755SOL    HW125585   2.587  10.685   5.792  0.9902  0.1517 -0.2827
 6755SOL    HW225586   2.578  10.835   5.774 -0.5817  0.1092 -0.0144
 6756SOL     OW25587   9.348   3.817   1.918  0.4467 -0.7085 -0.1534
 6756SOL    HW125588   9.393   3.733   1.906  1.3068 -0.6872  2.2582
 6756SOL    HW225589   9.344   3.828   2.013 -0.3138  1.6520 -0.3963
 6757SOL     OW25590   6.194   6.109   0.657 -0.5124 -0.5411  0.0686
 6757SOL    HW125591   6.207   6.016   0.674 -1.0821 -0.5079  0.7177
 6757SOL    HW225592   6.132   6.138   0.724 -0.0796  0.3807  0.0916
 6758SOL     OW25593   8.345   8.212   4.990 -0.1366  0.0334  0.4174
 6758SOL    HW125594   8.439   8.208   5.005 -0.2187  0.6683  1.1441
 6758SOL    HW225595   8.311   8.263   5.064 -1.1128 -0.6496  0.4604
 6759SOL     OW25596   6.992   4.248   3.608 -0.8661  0.0210  0.5326
 6759SOL    HW125597   7.055   4.228   3.677 -1.7359 -1.5353  0.9286
 6759SOL    HW225598   7.006   4.341   3.588  1.3768 -0.2260  0.7407
 6760SOL     OW25599   7.597  11.468   9.492  0.6822  0.4228  0.3503
 6760SOL    HW125600   7.603  11.472   9.397  1.3419 -0.7072  0.3217
 6760SOL    HW225601   7.589  11.559   9.520 -2.7464  0.6867 -0.9465
 6761SOL     OW25602  11.041   1.825   7.038  0.4732 -0.1000 -0.2417
 6761SOL    HW125603  10.962   1.877   7.021  0.0856 -0.6182 -0.0729
 6761SOL    HW225604  11.111   1.889   7.047 -0.4192  0.6209  2.5254
 6762SOL     OW25605   5.099   5.508   6.957 -0.1735 -0.5416 -0.3852
 6762SOL    HW125606   5.164   5.479   7.021 -0.3247  0.2452  0.1301
 6762SOL    HW225607   5.150   5.542   6.884 -0.0036 -0.8143 -0.3934
 6763SOL     OW25608   5.376  10.958   2.646 -0.2283  0.1266 -0.6064
 6763SOL    HW125609   5.349  10.905   2.571 -1.2818  0.5370 -0.5398
 6763SOL    HW225610   5.314  11.031   2.646  1.5445  1.6956 -1.0497
 6764SOL     OW25611   5.041   6.946   8.212  0.0086  0.0412 -0.0846
 6764SOL    HW125612   5.054   7.015   8.148  0.7556  0.0621  0.0739
 6764SOL    HW225613   5.052   6.989   8.297  0.5062 -0.2694  0.0156
 6765SOL     OW25614   4.505  11.168   1.013  0.6976  0.3391 -0.6761
 6765SOL    HW125615   4.577  11.111   0.986  0.6300  0.6692 -1.5588
 6765SOL    HW225616   4.440  11.160   0.944  0.9661  1.9981 -1.1738
 6766SOL     OW25617   6.789   5.253   2.488 -0.5872 -0.9126 -0.5531
 6766SOL    HW125618   6.713   5.310   2.477  1.8147  2.8813  0.6923
 6766SOL    HW225619   6.759   5.186   2.551 -2.5850  1.1462  0.8441
 6767SOL     OW25620   8.406   7.507   1.402 -0.7146 -0.0776 -0.0394
 6767SOL    HW125621   8.408   7.594   1.440 -2.2887 -0.3241  0.6887
 6767SOL    HW225622   8.362   7.518   1.317 -0.0195 -0.0150 -0.3952
 6768SOL     OW25623   5.438   1.676   8.485  0.2645 -0.0933 -0.4768
 6768SOL    HW125624   5.446   1.736   8.411 -0.9496  0.4386 -0.2076
 6768SOL    HW225625   5.391   1.726   8.552 -1.8875 -1.6810 -0.6904
 6769SOL     OW25626   4.108  10.721  11.474 -0.5884  0.2528  0.1260
 6769SOL    HW125627   4.066  10.648  11.519 -1.8606 -1.7437 -3.7584
 6769SOL    HW225628   4.044  10.792  11.478 -2.2978 -1.0956 -1.4088
 6770SOL     OW25629   0.979   0.953   7.320 -0.1720 -0.4964  0.4359
 6770SOL    HW125630   1.059   0.912   7.352 -0.5438 -1.5008  0.1163
 6770SOL    HW225631   0.909   0.895   7.349 -0.9423  1.0470  1.8739
 6771SOL     OW25632   7.334   0.117   7.052  0.4219 -0.8314  0.6225
 6771SOL    HW125633   7.292   0.123   7.138 -0.6345  1.4753  0.0216
 6771SOL    HW225634   7.416   0.165   7.062  0.0958 -0.1855  0.2469
 6772SOL     OW25635   5.334   4.113   2.269 -0.1277 -0.8872 -0.4064
 6772SOL    HW125636   5.369   4.133   2.182  0.1383  0.5592  0.0127
 6772SOL    HW225637   5.253   4.066   2.252 -0.2899 -0.2668 -1.4514
 6773SOL     OW25638   7.463   0.852   3.137 -0.3812  0.4464 -0.1370
 6773SOL    HW125639   7.492   0.942   3.148  0.5241  0.1301  0.1438
 6773SOL    HW225640   7.372   0.852   3.166 -0.0065  1.0079  1.0738
 6774SOL     OW25641   5.249   9.217  10.190 -0.2419 -0.0761 -0.0704
 6774SOL    HW125642   5.210   9.212  10.102  0.7565  0.3399 -0.5475
 6774SOL    HW225643   5.276   9.308  10.199  0.7284 -0.3760  0.1913
 6775SOL     OW25644  11.757   5.805  10.796  0.2664  0.3439 -0.0211
 6775SOL    HW125645  11.743   5.828  10.887  3.0844 -1.2422  0.9234
 6775SOL    HW225646  11.810   5.877  10.760  0.1238  0.4061 -0.1128
 6776SOL     OW25647   6.227   7.925   3.512 -0.0760 -0.4810  0.2401
 6776SOL    HW125648   6.156   7.883   3.561  0.0669 -0.1838  0.7051
 6776SOL    HW225649   6.242   7.866   3.437 -0.1755 -1.0329  0.6462
 6777SOL     OW25650   8.055   7.745   9.873  0.7681 -0.5262  0.1503
 6777SOL    HW125651   8.124   7.698   9.827 -0.1246 -1.1117 -0.6222
 6777SOL    HW225652   8.030   7.816   9.813  1.2574  0.1994  0.7833
 6778SOL     OW25653   5.744   2.562   7.977 -0.3544 -0.2364 -0.2864
 6778SOL    HW125654   5.655   2.556   8.012  0.8078  1.8463  3.6385
 6778SOL    HW225655   5.756   2.656   7.959  1.7287 -0.0329  1.6968
 6779SOL     OW25656   0.345   8.182   9.652  0.3327 -0.6797  0.5814
 6779SOL    HW125657   0.278   8.122   9.620 -0.3092 -0.1200  0.8583
 6779SOL    HW225658   0.343   8.256   9.590 -1.4969  0.8113  2.2928
 6780SOL     OW25659   7.623   7.029   4.221  0.3152  0.2056  0.1876
 6780SOL    HW125660   7.589   7.046   4.309 -0.6641 -1.6474  0.2219
 6780SOL    HW225661   7.663   6.942   4.228  1.1547  0.4837 -0.9532
 6781SOL     OW25662  11.825   5.076   5.352  0.1538 -0.0393 -0.2631
 6781SOL    HW125663  11.814   5.008   5.286  0.7653  2.2202 -2.8959
 6781SOL    HW225664  11.899   5.128   5.321  1.1821  0.5202  2.8559
 6782SOL     OW25665   7.307   8.676   1.230 -0.5624 -0.0378 -0.3665
 6782SOL    HW125666   7.246   8.748   1.243 -0.6340 -0.1160 -0.2746
 6782SOL    HW225667   7.256   8.596   1.246  0.2261 -0.0638  2.5493
 6783SOL     OW25668   8.651   1.203   4.056  0.2990  0.4343 -0.3905
 6783SOL    HW125669   8.633   1.258   4.132 -0.8246 -1.6737  0.9894
 6783SOL    HW225670   8.746   1.197   4.052  0.4427  2.1524 -0.4004
 6784SOL     OW25671  11.494  11.065   4.106 -0.4594  0.8062  0.0431
 6784SOL    HW125672  11.565  11.111   4.061 -0.5541 -2.0689 -3.4661
 6784SOL    HW225673  11.415  11.115   4.084 -0.3062  0.2621 -1.8974
 6785SOL     OW25674   8.959  10.205   0.014 -0.5247  0.0474 -0.2418
 6785SOL    HW125675   9.050  10.176   0.014 -0.5409 -0.2455  2.7774
 6785SOL    HW225676   8.912  10.136  -0.033  0.5624 -0.7009 -0.2676
 6786SOL     OW25677   4.021   1.471   8.347  0.0179  0.0715 -0.0428
 6786SOL    HW125678   4.060   1.488   8.433 -0.1046  0.5809 -0.0849
 6786SOL    HW225679   3.972   1.551   8.327 -0.0629 -0.0981 -0.5284
 6787SOL     OW25680   4.427   6.406   9.619 -0.0848  0.1106 -0.2506
 6787SOL    HW125681   4.377   6.364   9.689  0.5063  1.4192  1.0090
 6787SOL    HW225682   4.362   6.455   9.569 -0.3145  0.3444  0.2745
 6788SOL     OW25683  10.685  11.621  10.286  0.1802 -0.1026 -0.2024
 6788SOL    HW125684  10.692  11.666  10.370 -2.9826  0.7025 -0.2538
 6788SOL    HW225685  10.727  11.536  10.301  0.3483  0.2916  1.9393
 6789SOL     OW25686   1.115   3.592   6.862  0.2169 -0.1774 -1.0131
 6789SOL    HW125687   1.150   3.510   6.826 -0.8528 -1.3566  0.4707
 6789SOL    HW225688   1.172   3.612   6.936 -0.7912 -0.8133 -0.0367
 6790SOL     OW25689  11.499   8.315   5.112 -0.1990 -0.4662  0.0058
 6790SOL    HW125690  11.436   8.385   5.093 -0.5769 -0.9642 -0.6180
 6790SOL    HW225691  11.575   8.336   5.058 -0.1824 -0.3603  0.0698
 6791SOL     OW25692   6.967   4.464   2.308 -0.0892 -0.9772 -0.6984
 6791SOL    HW125693   7.048   4.498   2.272 -0.0371 -0.7559 -0.3805
 6791SOL    HW225694   6.925   4.418   2.236 -0.6573  0.6203 -1.4218
 6792SOL     OW25695   0.547   9.603   8.940  0.5351  0.1385 -0.0051
 6792SOL    HW125696   0.462   9.608   8.897 -0.7811 -4.9714  1.3391
 6792SOL    HW225697   0.604   9.560   8.876  1.2973  0.9094  0.1359
 6793SOL     OW25698   2.598   6.208  10.349 -0.2231 -0.8065 -0.0879
 6793SOL    HW125699   2.596   6.129  10.295  0.1186 -0.3667 -0.7600
 6793SOL    HW225700   2.570   6.278  10.289  1.3001 -0.1137 -0.0457
 6794SOL     OW25701   1.554   0.155   4.667 -0.1610 -0.4544  0.1071
 6794SOL    HW125702   1.542   0.072   4.621 -1.8635 -0.1237 -0.0934
 6794SOL    HW225703   1.640   0.186   4.638 -0.8198 -0.6350 -2.2573
 6795SOL     OW25704   2.917  10.204   3.503  0.3458 -0.1504 -0.4167
 6795SOL    HW125705   2.822  10.194   3.494  0.0019  0.3272  1.8715
 6795SOL    HW225706   2.928  10.294   3.534  1.7031  0.2751 -2.0217
 6796SOL     OW25707   4.006   8.197   3.242 -0.5208  0.8629  1.0545
 6796SOL    HW125708   4.024   8.260   3.172  1.0046  1.5323  2.0029
 6796SOL    HW225709   4.042   8.114   3.210 -0.3428  1.0383  0.7967
 6797SOL     OW25710   8.257   7.112   0.287  0.4053 -0.2495  0.3637
 6797SOL    HW125711   8.192   7.077   0.348 -1.5483  0.1649 -1.3528
 6797SOL    HW225712   8.296   7.187   0.333 -0.5876 -0.2892  1.3087
 6798SOL     OW25713   9.165   8.720   8.359  0.5400  0.9165 -0.0105
 6798SOL    HW125714   9.155   8.771   8.439 -1.0784  1.2353 -0.3933
 6798SOL    HW225715   9.083   8.671   8.351  1.5876 -0.8824 -0.2749
 6799SOL     OW25716   6.634   7.778  10.634 -0.3023  0.3157  0.0534
 6799SOL    HW125717   6.559   7.744  10.586  0.4641 -0.8770 -0.3222
 6799SOL    HW225718   6.635   7.727  10.715 -0.5813  1.1452  0.5913
 6800SOL     OW25719  11.082   8.184   2.225 -0.3631 -0.2606  0.4819
 6800SOL    HW125720  11.153   8.189   2.162  0.2639 -2.0037  0.9851
 6800SOL    HW225721  11.028   8.111   2.195  0.2121 -1.4481  2.1603
 6801SOL     OW25722   5.920   4.216  11.002  0.6528 -0.3130 -0.2021
 6801SOL    HW125723   6.010   4.222  10.970  0.9180 -0.3791  0.5146
 6801SOL    HW225724   5.898   4.306  11.027  0.2809 -0.1761 -0.9942
 6802SOL     OW25725   2.653  10.883   5.068  0.3596  0.3601  0.0256
 6802SOL    HW125726   2.618  10.964   5.106 -0.6856  0.2371 -0.6298
 6802SOL    HW225727   2.741  10.876   5.103  0.4571  1.7749  0.1082
 6803SOL     OW25728   4.755   3.193   4.566  0.0399 -0.3368  0.4870
 6803SOL    HW125729   4.758   3.113   4.514  1.1194  0.0798 -0.1380
 6803SOL    HW225730   4.690   3.248   4.523 -1.1272 -1.0859  1.2591
 6804SOL     OW25731   1.216  10.853   5.251  0.0434 -0.0434  0.1446
 6804SOL    HW125732   1.230  10.761   5.272  1.7049  0.1783  0.1366
 6804SOL    HW225733   1.129  10.872   5.286  0.4154 -1.1524  1.8041
 6805SOL     OW25734   2.014   8.386   0.884  0.0185 -0.7344  0.4970
 6805SOL    HW125735   2.068   8.461   0.858 -0.2926 -1.0040 -0.9954
 6805SOL    HW225736   2.014   8.329   0.808 -0.1114 -2.0694  1.4669
 6806SOL     OW25737   1.046   9.542  10.495  0.3785 -0.7598  0.4708
 6806SOL    HW125738   0.957   9.538  10.460  0.1046 -0.1688  1.0742
 6806SOL    HW225739   1.095   9.478  10.444  0.4415  1.3138 -2.2982
 6807SOL     OW25740   0.625   4.246   3.156  0.2034 -0.2489 -0.2641
 6807SOL    HW125741   0.710   4.206   3.139 -0.1224 -1.3813  0.6148
 6807SOL    HW225742   0.561   4.179   3.130 -0.4360  0.6331 -1.0416
 6808SOL     OW25743  10.452   4.141   6.579 -0.1913  0.0631 -0.4413
 6808SOL    HW125744  10.429   4.071   6.518 -0.0186 -0.7186  0.3832
 6808SOL    HW225745  10.371   4.162   6.624  0.0452 -0.5681  0.2890
 6809SOL     OW25746   0.371   4.671   2.512  0.3294 -0.6198  0.0096
 6809SOL    HW125747   0.291   4.723   2.525  1.0247 -0.0545  2.5074
 6809SOL    HW225748   0.349   4.585   2.547  1.5496  0.2891  3.3210
 6810SOL     OW25749   9.715   7.999   3.719 -0.4044  0.2985 -0.1984
 6810SOL    HW125750   9.637   8.047   3.694  0.7600  2.2877 -0.2074
 6810SOL    HW225751   9.787   8.045   3.676  0.7224 -2.1850 -1.2152
 6811SOL     OW25752   0.459   6.244  10.522 -0.1782 -0.5218  1.0739
 6811SOL    HW125753   0.492   6.211  10.439 -1.9663  0.1920  0.0288
 6811SOL    HW225754   0.510   6.324  10.538 -0.7702  0.1071 -0.0793
 6812SOL     OW25755   8.929   0.162   4.665 -0.4132  0.1777 -0.0648
 6812SOL    HW125756   8.966   0.242   4.702 -1.3818  1.1113 -1.0608
 6812SOL    HW225757   8.861   0.135   4.726  0.5262 -0.4468  0.7532
 6813SOL     OW25758   7.548  10.031   5.029 -0.6694 -0.4908 -0.6848
 6813SOL    HW125759   7.629  10.079   5.014 -0.3495 -1.1294 -1.0954
 6813SOL    HW225760   7.504  10.077   5.100  0.2886 -0.4294 -0.1271
 6814SOL     OW25761   1.560   8.206   1.723 -0.5729  0.3051 -0.3860
 6814SOL    HW125762   1.561   8.111   1.712 -0.3291  0.2492  0.0867
 6814SOL    HW225763   1.469   8.227   1.747 -0.5881  0.1737 -0.3310
 6815SOL     OW25764   1.367   7.623  10.308  0.3309 -0.3137 -0.2172
 6815SOL    HW125765   1.402   7.693  10.253  1.0079 -0.7981 -0.4193
 6815SOL    HW225766   1.438   7.558  10.311 -0.1249 -0.7899  0.3170
 6816SOL     OW25767  11.120   0.438   6.407 -0.1676 -0.0085 -0.2487
 6816SOL    HW125768  11.080   0.465   6.489 -0.3191  0.2307 -0.4018
 6816SOL    HW225769  11.099   0.508   6.345  0.3008  0.0137 -0.3867
 6817SOL     OW25770   8.692   5.098  11.551  0.1235  0.5279 -0.4239
 6817SOL    HW125771   8.784   5.110  11.577  0.1141  0.4941 -0.3730
 6817SOL    HW225772   8.663   5.022  11.602  0.8232 -1.1032 -2.3324
 6818SOL     OW25773   8.301   0.789   7.448  0.2465  0.0764 -0.1878
 6818SOL    HW125774   8.229   0.819   7.391  0.8828  0.4770 -0.7953
 6818SOL    HW225775   8.284   0.831   7.532  0.1805  0.7803 -0.5470
 6819SOL     OW25776   4.232   9.447   8.045 -0.0997 -0.0718  0.2259
 6819SOL    HW125777   4.237   9.404   8.131  1.2347 -0.5572 -0.0753
 6819SOL    HW225778   4.251   9.378   7.982 -0.8157  0.3420 -0.4558
 6820SOL     OW25779   5.165   2.223  11.651  0.1728  0.5035 -0.0118
 6820SOL    HW125780   5.102   2.236  11.721 -1.2546 -1.0262 -0.9340
 6820SOL    HW225781   5.217   2.148  11.678  1.2246  1.3653  0.4492
 6821SOL     OW25782   1.610   6.436  11.596  0.1158  0.4085 -0.0753
 6821SOL    HW125783   1.686   6.402  11.548  0.4325  1.1964 -0.1363
 6821SOL    HW225784   1.556   6.478  11.529  0.8146  1.9753  0.2958
 6822SOL     OW25785   4.016   7.658   6.893  0.1357  0.0812  0.1097
 6822SOL    HW125786   4.058   7.664   6.807 -0.6434  0.2441 -0.2683
 6822SOL    HW225787   4.070   7.713   6.949  0.1526  0.6760 -0.4782
 6823SOL     OW25788   3.392   2.416   6.823  0.0969  0.1138  0.2812
 6823SOL    HW125789   3.379   2.477   6.896  1.5147  0.0220  0.6383
 6823SOL    HW225790   3.314   2.360   6.824 -2.2349  3.0419 -1.2566
 6824SOL     OW25791   5.705   9.068   6.798  0.2111  0.5178 -0.2648
 6824SOL    HW125792   5.775   9.029   6.850 -0.1224  0.5410  0.2003
 6824SOL    HW225793   5.750   9.129   6.739  0.6459  0.0664 -0.4108
 6825SOL     OW25794   2.365   6.496   7.409  0.2144  0.7794 -0.0159
 6825SOL    HW125795   2.352   6.416   7.459 -0.4482  0.0114 -1.3817
 6825SOL    HW225796   2.312   6.562   7.455 -1.0204 -0.1000 -0.1207
 6826SOL     OW25797  10.791   4.064   8.320  0.2690  0.0084 -0.8065
 6826SOL    HW125798  10.847   4.021   8.385  0.8855  4.5617  2.1188
 6826SOL    HW225799  10.851   4.101   8.257 -0.0499 -0.9046 -1.6709
 6827SOL     OW25800   7.627   6.783   3.705 -0.2524 -0.1974  0.3590
 6827SOL    HW125801   7.643   6.854   3.767  0.2235  0.9730 -1.0259
 6827SOL    HW225802   7.686   6.802   3.632  2.0703 -3.6533  1.1347
 6828SOL     OW25803   9.116  10.880   6.042 -0.3668 -0.2158  0.0500
 6828SOL    HW125804   9.156  10.796   6.017 -0.3796 -0.4376  0.7497
 6828SOL    HW225805   9.022  10.860   6.046 -0.4592  0.0468 -0.5785
 6829SOL     OW25806  11.280   6.613   2.810  0.5908  0.4221  0.1320
 6829SOL    HW125807  11.341   6.568   2.868  3.2069  2.3360 -0.9054
 6829SOL    HW225808  11.236   6.677   2.866  0.3093 -0.2530  0.6922
 6830SOL     OW25809   8.259   2.570   2.072 -0.1438 -0.2165 -0.1852
 6830SOL    HW125810   8.317   2.524   2.011  0.7808 -2.6816  2.3653
 6830SOL    HW225811   8.176   2.523   2.066 -0.0663 -0.4346  0.3528
 6831SOL     OW25812   4.210  10.954   6.216  0.2133 -0.2720  0.2880
 6831SOL    HW125813   4.301  10.941   6.242  0.5667  1.2320 -0.0834
 6831SOL    HW225814   4.203  11.049   6.201 -0.9720 -0.5651 -1.2740
 6832SOL     OW25815   4.608   0.865   5.281 -0.0692 -0.0714 -0.1048
 6832SOL    HW125816   4.690   0.829   5.315  0.5843  2.3830  1.1717
 6832SOL    HW225817   4.628   0.887   5.190  0.6800  0.3608  0.1519
 6833SOL     OW25818   5.067  11.365   9.478 -0.3105  0.6831  0.1179
 6833SOL    HW125819   5.157  11.365   9.445  0.4955  1.9583  2.0960
 6833SOL    HW225820   5.015  11.331   9.406  1.8018 -0.5073 -0.9531
 6834SOL     OW25821   9.241   9.949   8.620  0.2127  0.1621 -0.1341
 6834SOL    HW125822   9.277  10.038   8.626  0.2388  0.2607 -1.4382
 6834SOL    HW225823   9.233   9.920   8.711 -1.2836  2.0925  0.4345
 6835SOL     OW25824   4.344   6.414   1.765 -0.0597  0.0669  0.1105
 6835SOL    HW125825   4.249   6.426   1.775 -0.1316 -0.0882 -0.3671
 6835SOL    HW225826   4.354   6.322   1.742  0.2074  0.0818  0.1722
 6836SOL     OW25827   6.936  11.008  10.238  0.2043  0.3684 -0.0046
 6836SOL    HW125828   6.887  11.065  10.179 -0.4625  0.3163  0.4849
 6836SOL    HW225829   7.028  11.034  10.226  0.1610 -0.1019 -1.5446
 6837SOL     OW25830  10.336  10.801   5.869 -0.3347  0.2473  0.3426
 6837SOL    HW125831  10.350  10.776   5.960  0.2260  0.6623  0.3726
 6837SOL    HW225832  10.271  10.738   5.837  1.6645 -1.8404  0.1647
 6838SOL     OW25833   4.520   9.842   1.060 -0.2872 -0.1717 -0.0887
 6838SOL    HW125834   4.475   9.919   1.025 -0.9811  0.1176  1.3960
 6838SOL    HW225835   4.464   9.811   1.131  0.0907 -1.9380 -0.5195
 6839SOL     OW25836   8.589   4.142   5.396  0.2737  0.1233  0.4553
 6839SOL    HW125837   8.617   4.223   5.353 -1.6267  0.5475 -0.1021
 6839SOL    HW225838   8.541   4.171   5.473 -0.6344 -0.4427  0.1217
 6840SOL     OW25839  10.530   9.596   6.211 -0.0736 -0.5707  0.6510
 6840SOL    HW125840  10.542   9.679   6.257 -1.0945 -0.7782  1.3303
 6840SOL    HW225841  10.609   9.586   6.158 -0.3328  1.3011 -0.1830
 6841SOL     OW25842   9.797   8.963   3.553 -0.2136 -0.3549  0.7738
 6841SOL    HW125843   9.876   9.012   3.578  0.9493 -1.8842  0.2066
 6841SOL    HW225844   9.800   8.960   3.458 -0.0647 -1.8170  0.8111
 6842SOL     OW25845   1.601   1.650   8.234  0.1431  0.0142 -0.0774
 6842SOL    HW125846   1.576   1.698   8.155  0.0451  0.8243  0.4403
 6842SOL    HW225847   1.518   1.613   8.266  0.1044  0.1087 -0.0694
 6843SOL     OW25848   0.698   8.533   2.055 -0.2383  0.0845 -0.5985
 6843SOL    HW125849   0.693   8.584   2.136  1.1769 -1.2079  0.3638
 6843SOL    HW225850   0.634   8.573   1.997 -0.9498  1.3499  0.9940
 6844SOL     OW25851   6.109  10.666   0.156  0.3725  0.3174  0.3289
 6844SOL    HW125852   6.119  10.749   0.202  1.8645  0.8250 -0.8272
 6844SOL    HW225853   6.196  10.625   0.159 -0.1273 -0.8032  0.1548
 6845SOL     OW25854   9.364  10.888   9.539 -0.4954  0.2740 -0.2482
 6845SOL    HW125855   9.385  10.949   9.610  0.8724 -0.7146  0.2300
 6845SOL    HW225856   9.279  10.918   9.506 -1.0711  0.8971  1.6700
 6846SOL     OW25857   7.183   7.039   8.784 -0.2629 -0.4333  0.9275
 6846SOL    HW125858   7.226   6.989   8.714  0.6451 -0.7069  1.6592
 6846SOL    HW225859   7.090   7.021   8.773 -0.4409  1.3820 -1.6767
 6847SOL     OW25860   3.607   9.296   5.171 -0.4736  0.5735 -0.0792
 6847SOL    HW125861   3.535   9.249   5.213 -0.8064  1.1031 -0.0525
 6847SOL    HW225862   3.568   9.377   5.139 -0.1302  0.3711 -1.0358
 6848SOL     OW25863   0.759   6.514   6.178 -0.1436  0.6256  0.5794
 6848SOL    HW125864   0.831   6.495   6.237 -1.5059 -2.3973  1.4615
 6848SOL    HW225865   0.683   6.528   6.235 -1.1597 -0.7491 -0.3636
 6849SOL     OW25866   3.293   0.480   6.138  0.2840  0.4850 -0.5745
 6849SOL    HW125867   3.359   0.423   6.099  0.1104 -0.3891  0.3636
 6849SOL    HW225868   3.218   0.422   6.155 -1.0525  1.6014 -2.3186
 6850SOL     OW25869   7.109   5.680   9.733 -0.1428  0.7418  0.2102
 6850SOL    HW125870   7.019   5.709   9.715 -0.2416 -0.5684 -1.6651
 6850SOL    HW225871   7.098   5.592   9.768  0.3798  1.0498  1.1741
 6851SOL     OW25872   5.751   4.376   8.985 -0.4044  0.3214 -0.5480
 6851SOL    HW125873   5.771   4.357   8.893  1.2034 -0.9650  0.0125
 6851SOL    HW225874   5.698   4.302   9.014  0.9451 -0.4431  0.0937
 6852SOL     OW25875  11.174  11.813   5.401  0.0808 -0.5898  0.0878
 6852SOL    HW125876  11.176  11.783   5.310 -0.6795 -0.1629 -0.0745
 6852SOL    HW225877  11.250  11.771   5.441 -0.0627 -1.4658 -0.5255
 6853SOL     OW25878   3.656   9.612   6.002  0.2737 -0.3827 -0.6718
 6853SOL    HW125879   3.696   9.536   5.960  1.0024 -0.0721 -0.5519
 6853SOL    HW225880   3.569   9.618   5.962  0.8344 -0.2758 -1.9282
 6854SOL     OW25881   5.116   5.866   3.971 -0.2757 -0.2713 -0.6553
 6854SOL    HW125882   5.056   5.899   4.037 -0.4998  0.3595 -1.1691
 6854SOL    HW225883   5.193   5.837   4.021 -1.2034 -1.6350  0.0773
 6855SOL     OW25884   4.960   0.943   2.187 -0.3082  0.3320 -0.2361
 6855SOL    HW125885   4.910   0.919   2.265  1.7847 -3.8295  0.0805
 6855SOL    HW225886   5.046   0.969   2.219 -1.3497  5.8837 -0.8962
 6856SOL     OW25887   9.792   8.497   7.398 -0.1092 -0.2640  0.9086
 6856SOL    HW125888   9.865   8.461   7.349 -0.7109 -0.6693  0.2910
 6856SOL    HW225889   9.720   8.436   7.384 -0.8623  0.6450  0.6558
 6857SOL     OW25890   9.142   3.768   6.659  0.8505 -0.1000  0.5342
 6857SOL    HW125891   9.064   3.749   6.711  0.9915 -0.3833  0.6416
 6857SOL    HW225892   9.209   3.709   6.693  1.1036  0.1202  0.4184
 6858SOL     OW25893   9.341   0.661   9.331  0.3166 -0.3233  0.0678
 6858SOL    HW125894   9.339   0.736   9.391  3.7022  0.1129 -0.1816
 6858SOL    HW225895   9.404   0.601   9.371  0.9213 -1.0551 -1.8958
 6859SOL     OW25896  11.441   7.854   4.824  0.3554 -0.1529 -0.6601
 6859SOL    HW125897  11.526   7.870   4.785 -0.0039 -0.0076 -1.4008
 6859SOL    HW225898  11.384   7.921   4.787 -0.3353 -0.9169 -1.0196
 6860SOL     OW25899   8.606   9.165   0.266 -0.0760 -0.1132 -0.5732
 6860SOL    HW125900   8.539   9.184   0.200 -2.0253 -1.6893  0.8473
 6860SOL    HW225901   8.658   9.246   0.271 -1.9051  1.2015 -1.6734
 6861SOL     OW25902   1.579   8.454  10.995  0.2952  0.4814 -0.3275
 6861SOL    HW125903   1.666   8.461  10.957  0.9696 -0.9376  0.8797
 6861SOL    HW225904   1.568   8.535  11.046  0.6763  0.8990 -0.9000
 6862SOL     OW25905  11.069   5.382   0.829  0.5056  0.7135 -0.4143
 6862SOL    HW125906  11.053   5.410   0.739  1.1245  2.0844 -0.1187
 6862SOL    HW225907  10.990   5.404   0.876  0.0875 -0.2240 -0.6456
 6863SOL     OW25908   3.569   6.859   4.481  0.0373 -0.1064 -0.3319
 6863SOL    HW125909   3.604   6.897   4.401  0.9197  1.1921  0.6454
 6863SOL    HW225910   3.618   6.778   4.492 -1.3974 -1.3078 -2.0707
 6864SOL     OW25911   8.542   9.414  10.160 -0.4872 -0.3597  0.0148
 6864SOL    HW125912   8.629   9.442  10.130 -0.6993 -0.0907 -0.3598
 6864SOL    HW225913   8.507   9.490  10.206  0.2363 -1.0828  1.8782
 6865SOL     OW25914   8.834   6.521   1.078 -0.0977 -0.1262 -0.2563
 6865SOL    HW125915   8.754   6.489   1.037 -0.8587  0.1884  0.9127
 6865SOL    HW225916   8.883   6.441   1.101  0.6910 -0.2947 -2.3534
 6866SOL     OW25917   0.022  10.575   1.194 -0.1947  0.2722 -0.1881
 6866SOL    HW125918  -0.027  10.581   1.112  2.7463  1.8644 -2.0120
 6866SOL    HW225919   0.023  10.665   1.228  1.4469  0.3077 -0.2599
 6867SOL     OW25920   0.954   0.568   0.572 -0.2933 -0.1409 -0.2150
 6867SOL    HW125921   0.895   0.494   0.588 -0.7839 -0.4675 -3.1103
 6867SOL    HW225922   1.032   0.529   0.533  1.2170  0.4926  1.9756
 6868SOL     OW25923   8.112   5.890   9.762 -0.1512  0.3778  0.2329
 6868SOL    HW125924   8.072   5.860   9.844 -0.6047 -2.8168 -1.0049
 6868SOL    HW225925   8.203   5.861   9.768  0.3797  1.9799  0.3952
 6869SOL     OW25926  10.572   0.341   0.109 -0.5819 -0.2818  0.4451
 6869SOL    HW125927  10.488   0.301   0.129 -1.4440  1.4505  0.4938
 6869SOL    HW225928  10.558   0.388   0.027  1.0841 -1.9929 -0.9050
 6870SOL     OW25929   3.916  10.410   9.679  0.4221 -0.5500 -0.3305
 6870SOL    HW125930   3.838  10.451   9.714  0.2703  0.1907 -1.4557
 6870SOL    HW225931   3.968  10.483   9.644  1.5602 -1.0338  0.2787
 6871SOL     OW25932   0.423  10.397   1.999 -0.3668 -0.8196  0.2140
 6871SOL    HW125933   0.497  10.369   1.945  0.0196 -0.5654  0.6028
 6871SOL    HW225934   0.455  10.474   2.045 -0.6123 -1.1524  0.9674
 6872SOL     OW25935   4.219   8.973   4.979 -0.0349 -0.8754 -0.8040
 6872SOL    HW125936   4.261   9.037   4.921  1.5506 -0.6962  0.4994
 6872SOL    HW225937   4.291   8.924   5.018 -1.1371 -1.9488 -0.0482
 6873SOL     OW25938   8.402   1.687   6.188  0.5570 -0.0799 -0.0618
 6873SOL    HW125939   8.395   1.597   6.219 -2.0644 -1.5639 -4.1596
 6873SOL    HW225940   8.483   1.690   6.138  1.0045  0.0992  0.6579
 6874SOL     OW25941   0.563   1.055   9.204 -0.4995  0.0317 -0.1332
 6874SOL    HW125942   0.499   1.036   9.273 -0.2807  0.3701  0.1704
 6874SOL    HW225943   0.510   1.067   9.125 -0.7778 -0.0812  0.0354
 6875SOL     OW25944   4.864   0.631  11.245  0.4385  0.0603  0.3759
 6875SOL    HW125945   4.821   0.549  11.267 -1.1740 -0.5170 -3.9232
 6875SOL    HW225946   4.955   0.606  11.225  0.3195 -0.4122  0.4349
 6876SOL     OW25947   8.034   0.190   7.789 -0.1175  0.3469 -0.0968
 6876SOL    HW125948   8.004   0.099   7.788 -1.4655  0.6656  2.4870
 6876SOL    HW225949   7.954   0.242   7.783  0.6017  1.3909 -1.0209
 6877SOL     OW25950   2.997   4.395   2.350  0.4434 -0.3654  0.2611
 6877SOL    HW125951   3.060   4.409   2.421  1.3050 -0.7010 -0.4189
 6877SOL    HW225952   2.939   4.326   2.382  1.5304 -1.3285  0.2017
 6878SOL     OW25953   5.457   6.395   9.913 -0.2294 -0.4580 -0.2704
 6878SOL    HW125954   5.470   6.331   9.843 -1.3062 -0.1952 -0.7235
 6878SOL    HW225955   5.496   6.476   9.881  0.5739 -0.7025  0.0488
 6879SOL     OW25956   2.725   3.027   3.478  0.3435  0.3411 -0.1468
 6879SOL    HW125957   2.647   3.067   3.517 -0.3466 -2.1193  1.1680
 6879SOL    HW225958   2.796   3.047   3.539  0.4490  1.2056 -0.5288
 6880SOL     OW25959   6.448   1.115   8.514 -0.3341 -0.0151 -0.4571
 6880SOL    HW125960   6.380   1.057   8.548 -1.2152 -0.1544 -2.2887
 6880SOL    HW225961   6.404   1.164   8.444  1.3370  0.2086 -1.3963
 6881SOL     OW25962   8.992  11.461   7.088 -0.1695  0.4716 -0.2119
 6881SOL    HW125963   9.086  11.458   7.101 -0.2041 -0.8641 -0.1337
 6881SOL    HW225964   8.981  11.482   6.995  0.1811  1.4097 -0.0491
 6882SOL     OW25965   7.677  10.688  10.858  0.1689 -0.3633 -0.4621
 6882SOL    HW125966   7.771  10.683  10.878  0.0571 -1.1180 -0.0758
 6882SOL    HW225967   7.668  10.644  10.774  0.3119  0.7366 -1.0695
 6883SOL     OW25968   5.014   9.861   7.209 -0.2978 -0.0204  0.2676
 6883SOL    HW125969   5.062   9.781   7.231  1.4473  0.8995 -0.0192
 6883SOL    HW225970   5.003   9.906   7.292  0.9992  0.6138  0.1323
 6884SOL     OW25971   7.449   3.741   0.418  0.0266 -0.6170 -0.0787
 6884SOL    HW125972   7.485   3.753   0.330 -1.8366 -4.6800 -1.6166
 6884SOL    HW225973   7.522   3.709   0.470  0.4904 -1.0829 -0.9942
 6885SOL     OW25974   7.026   2.189  11.565  0.2098 -0.2459  0.6215
 6885SOL    HW125975   7.083   2.196  11.489 -0.2658  2.1072  0.4140
 6885SOL    HW225976   6.968   2.115  11.545  1.1688 -0.7254 -0.5173
 6886SOL     OW25977   9.123   7.183   5.667  0.0793 -0.3836  0.9300
 6886SOL    HW125978   9.107   7.107   5.724 -4.1796 -0.7573 -0.3648
 6886SOL    HW225979   9.092   7.258   5.718  0.8915 -0.0037  0.8759
 6887SOL     OW25980   8.510  11.314   2.590  0.1226 -0.4984 -0.2949
 6887SOL    HW125981   8.548  11.264   2.662 -2.0599 -2.6735 -0.5307
 6887SOL    HW225982   8.520  11.256   2.514 -0.9125  0.1719 -0.9561
 6888SOL     OW25983   7.101   4.340   9.128  0.0365  0.3982 -0.7660
 6888SOL    HW125984   7.039   4.405   9.159 -1.0510 -0.0949 -1.8409
 6888SOL    HW225985   7.135   4.376   9.046 -0.1630 -0.1218 -1.0839
 6889SOL     OW25986   3.862   4.107   2.831  0.0424 -0.0061 -0.4113
 6889SOL    HW125987   3.930   4.105   2.763  0.4060 -0.5881 -0.0351
 6889SOL    HW225988   3.879   4.188   2.879 -0.1926  0.3920 -0.9827
 6890SOL     OW25989  10.589   4.676  11.387  0.2461 -0.0662 -0.0566
 6890SOL    HW125990  10.649   4.718  11.325  0.7092 -0.6264 -0.0016
 6890SOL    HW225991  10.570   4.744  11.452 -1.2719  0.9332 -1.4975
 6891SOL     OW25992   2.913   8.382   4.470  0.1126 -0.1539  0.3075
 6891SOL    HW125993   2.858   8.383   4.549  1.1546 -0.2241  1.0422
 6891SOL    HW225994   2.944   8.472   4.461 -0.8289  0.1020 -0.6350
 6892SOL     OW25995   9.268   6.932   7.581 -1.3164 -0.0370 -0.2123
 6892SOL    HW125996   9.336   6.875   7.618 -1.3409 -1.3672 -2.0671
 6892SOL    HW225997   9.314   6.981   7.513 -2.0965 -0.6150 -1.1717
 6893SOL     OW25998   5.142   6.025   1.134  0.4947 -0.5644  0.0528
 6893SOL    HW125999   5.133   6.103   1.079  3.5660  1.3435  1.9261
 6893SOL    HW226000   5.101   6.050   1.217  1.5473 -0.8824  0.6810
 6894SOL     OW26001   7.344   2.711  11.021  0.6859  0.6932  0.3282
 6894SOL    HW126002   7.397   2.759  11.085  0.8078 -0.2159  0.9287
 6894SOL    HW226003   7.360   2.756  10.938  1.5280  1.1110  0.7021
 6895SOL     OW26004   4.305   3.274   4.961  0.5477  0.1291 -0.0012
 6895SOL    HW126005   4.329   3.365   4.978  1.1712  0.3725 -1.9221
 6895SOL    HW226006   4.268   3.243   5.043  2.0571  1.5406  1.2795
 6896SOL     OW26007   1.130   5.139   5.192 -0.1101 -0.2814  0.3466
 6896SOL    HW126008   1.197   5.084   5.234  1.1772  0.6737 -0.3756
 6896SOL    HW226009   1.052   5.128   5.247  1.4255  0.7601  2.9456
 6897SOL     OW26010   5.818   7.687   3.531 -0.0626  0.1795  0.0608
 6897SOL    HW126011   5.904   7.722   3.557  0.2608 -1.3813  1.2829
 6897SOL    HW226012   5.797   7.624   3.600 -0.0383 -2.9429 -2.5511
 6898SOL     OW26013   5.461   2.036   7.054 -0.2615 -0.0172 -0.1255
 6898SOL    HW126014   5.397   2.079   7.110  0.6313  0.1063  0.8422
 6898SOL    HW226015   5.544   2.048   7.100  0.4521 -0.1854 -1.3415
 6899SOL     OW26016   5.803   2.505   4.824  0.4685 -0.1468  0.0588
 6899SOL    HW126017   5.765   2.559   4.893 -0.5670 -0.4550 -0.2459
 6899SOL    HW226018   5.740   2.510   4.752  0.7383 -1.1188 -0.2629
 6900SOL     OW26019   8.404   7.943  10.774  0.4026 -0.5203  0.5308
 6900SOL    HW126020   8.449   8.024  10.749 -0.6958 -0.5274 -1.7135
 6900SOL    HW226021   8.465   7.899  10.833  2.3949  0.4708 -0.6730
 6901SOL     OW26022   5.928   6.242   0.737  0.4008  0.0646 -0.4835
 6901SOL    HW126023   5.904   6.250   0.645  1.1839  0.1549 -0.6860
 6901SOL    HW226024   5.927   6.331   0.771 -0.1555  0.0036 -0.3297
 6902SOL     OW26025   5.828   2.177   9.780 -0.1572 -0.0324 -0.0109
 6902SOL    HW126026   5.831   2.267   9.746 -0.1828  0.6441  1.6893
 6902SOL    HW226027   5.739   2.167   9.813 -0.3044 -0.8842 -0.6188
 6903SOL     OW26028   5.379   9.743   0.753 -0.2670  0.5260 -0.1340
 6903SOL    HW126029   5.315   9.801   0.795 -0.0421  0.1441  0.7625
 6903SOL    HW226030   5.442   9.802   0.712 -0.9701  0.9071 -0.6861
 6904SOL     OW26031   8.301   0.996   6.723  0.0046  0.1329  0.4679
 6904SOL    HW126032   8.212   0.963   6.736  0.1607 -0.2901  0.4785
 6904SOL    HW226033   8.299   1.039   6.638 -0.4860  1.0652  0.9390
 6905SOL     OW26034  10.277   3.980   3.595 -0.1483  0.6559 -0.4605
 6905SOL    HW126035  10.286   3.947   3.506 -1.3872 -0.1080 -0.3342
 6905SOL    HW226036  10.189   3.953   3.622 -0.6578  2.7438  0.2231
 6906SOL     OW26037   4.046   3.590  10.532  0.4034 -0.1160  0.3088
 6906SOL    HW126038   4.125   3.575  10.480  0.0372  0.4569 -0.4260
 6906SOL    HW226039   4.076   3.640  10.608  0.7239  0.2170 -0.0370
 6907SOL     OW26040  10.885   9.947   4.731 -0.3133 -0.2853 -0.2975
 6907SOL    HW126041  10.948  10.006   4.773  0.7369 -0.3875 -1.6444
 6907SOL    HW226042  10.837  10.003   4.670 -0.9105 -0.3839  0.0813
 6908SOL     OW26043   8.045  11.432   8.414  0.0985  0.1709 -0.1461
 6908SOL    HW126044   7.956  11.416   8.385 -0.2491  3.2961 -1.2156
 6908SOL    HW226045   8.058  11.526   8.401  2.5278  0.4232  2.8201
 6909SOL     OW26046  10.733   1.134  11.098 -0.4478 -0.0517  0.1925
 6909SOL    HW126047  10.733   1.050  11.144 -0.4196  0.2307  0.7202
 6909SOL    HW226048  10.640   1.156  11.089 -0.4735  1.1529  2.5107
 6910SOL     OW26049   6.800   1.962   4.191 -0.0384  0.3338 -0.4163
 6910SOL    HW126050   6.808   2.055   4.212  0.7474 -0.1572  1.6897
 6910SOL    HW226051   6.791   1.919   4.276 -0.6651 -1.5071 -1.3631
 6911SOL     OW26052   9.308   9.205   0.507  1.1055 -0.1173 -0.4674
 6911SOL    HW126053   9.239   9.234   0.448  0.9128  0.6095  0.0974
 6911SOL    HW226054   9.274   9.125   0.547  0.5397  0.2817 -0.1288
 6912SOL     OW26055   1.219  10.577   4.381 -0.3655 -0.0698  0.2367
 6912SOL    HW126056   1.265  10.608   4.459 -0.3701  0.6026 -0.0212
 6912SOL    HW226057   1.180  10.493   4.408  0.8571 -0.5737  0.5112
 6913SOL     OW26058   2.567   6.959   0.051  0.8586 -0.4072  0.4358
 6913SOL    HW126059   2.639   6.899   0.068  0.9584  0.1473  2.1132
 6913SOL    HW226060   2.604   7.046   0.064  0.4691  0.0084 -1.0413
 6914SOL     OW26061   3.240   5.212  10.942  0.1776  0.1514 -0.5540
 6914SOL    HW126062   3.273   5.295  10.978  0.8379  0.3846 -1.6616
 6914SOL    HW226063   3.267   5.213  10.851 -2.4234  0.0968 -1.4248
 6915SOL     OW26064   4.551   3.497   6.547 -0.0828 -0.5041 -0.0599
 6915SOL    HW126065   4.498   3.490   6.627 -0.6441  1.8521 -0.1520
 6915SOL    HW226066   4.562   3.591   6.534  2.4999 -0.8917 -1.1668
 6916SOL     OW26067  10.975   4.738   2.760  0.2008  0.7106  0.4328
 6916SOL    HW126068  10.950   4.692   2.679 -1.3775  0.5429  0.9814
 6916SOL    HW226069  10.970   4.670   2.827  1.7347  0.7969  0.6743
 6917SOL     OW26070   2.992   2.754   7.269 -0.5472  0.4094 -0.2381
 6917SOL    HW126071   2.987   2.849   7.257  1.1303  0.6845  0.9456
 6917SOL    HW226072   3.085   2.736   7.278 -0.8949 -1.2459  0.3590
 6918SOL     OW26073   2.959   8.786   5.111  0.6088  0.4353 -0.3617
 6918SOL    HW126074   3.049   8.755   5.118  0.7241  0.6372 -0.8927
 6918SOL    HW226075   2.965   8.881   5.121  0.6073  0.5799 -1.5389
 6919SOL     OW26076   6.348   4.727   8.376 -1.1307 -0.1191  0.3448
 6919SOL    HW126077   6.320   4.662   8.312  1.0445 -1.4594  0.6508
 6919SOL    HW226078   6.266   4.764   8.411 -2.3979 -1.6093 -0.9115
 6920SOL     OW26079   1.774   9.260   3.091  0.6093 -0.0742 -0.5531
 6920SOL    HW126080   1.760   9.212   3.010 -0.6500  0.3636 -0.6222
 6920SOL    HW226081   1.770   9.193   3.159  0.2275 -0.2535 -0.7486
 6921SOL     OW26082   5.594   1.324   7.158  0.4098 -0.0158  0.0684
 6921SOL    HW126083   5.626   1.254   7.101  0.2444 -0.8328  0.9567
 6921SOL    HW226084   5.672   1.374   7.179  0.8535 -0.9945  0.8494
 6922SOL     OW26085  10.361   9.549   5.000  0.5017  0.3161 -0.2391
 6922SOL    HW126086  10.319   9.471   4.962  0.5080  0.3586 -0.3347
 6922SOL    HW226087  10.356   9.536   5.095  2.3380 -0.7817 -0.2459
 6923SOL     OW26088  10.451   0.244   1.206 -0.2703 -0.0915 -0.2867
 6923SOL    HW126089  10.538   0.206   1.219  0.8915  2.8601  1.4108
 6923SOL    HW226090  10.427   0.279   1.292 -2.4826  0.5380 -1.0853
 6924SOL     OW26091   6.247  10.137  10.080 -0.3102  0.2699 -0.3667
 6924SOL    HW126092   6.263  10.230  10.065 -1.3871  0.8817  1.8304
 6924SOL    HW226093   6.221  10.132  10.172 -0.7843 -2.1506 -0.5656
 6925SOL     OW26094  10.282   3.019   4.144 -0.8611  0.1866 -0.1210
 6925SOL    HW126095  10.195   2.986   4.122 -1.5178  0.7139  1.5002
 6925SOL    HW226096  10.319   3.049   4.061 -3.1468  2.0205 -0.5835
 6926SOL     OW26097   0.074   3.334   7.622 -0.1291 -0.4608 -0.1815
 6926SOL    HW126098   0.094   3.291   7.705 -3.2191 -1.0773  0.3767
 6926SOL    HW226099   0.138   3.298   7.560  0.1743 -2.5426  1.2333
 6927SOL     OW26100  11.662   4.062   5.250  0.2371 -0.0164  0.2058
 6927SOL    HW126101  11.652   4.027   5.161  0.0642  0.5131  0.0150
 6927SOL    HW226102  11.715   3.996   5.295  1.5283  0.3802 -0.6772
 6928SOL     OW26103   2.154   6.302   9.260 -0.3697 -0.1721 -0.0590
 6928SOL    HW126104   2.154   6.212   9.228  0.6392  0.8236 -3.3036
 6928SOL    HW226105   2.141   6.355   9.181  0.4047  2.5811  1.5264
 6929SOL     OW26106   5.732   9.794   1.513 -0.3072 -0.0427  0.0571
 6929SOL    HW126107   5.755   9.887   1.503  0.2522  0.2810  3.2961
 6929SOL    HW226108   5.637   9.791   1.499 -0.5880  1.3471  1.3569
 6930SOL     OW26109   7.798   0.725   2.786  0.2667  0.0158 -0.0351
 6930SOL    HW126110   7.712   0.746   2.750  0.1596  0.6851  0.5919
 6930SOL    HW226111   7.845   0.685   2.713 -0.1061  0.9038 -0.7828
 6931SOL     OW26112   6.058   2.824   0.581 -0.6350  0.3914  0.2477
 6931SOL    HW126113   6.061   2.778   0.665 -2.0614 -0.4969 -0.1448
 6931SOL    HW226114   6.145   2.861   0.570  0.5974 -2.1556  0.6374
 6932SOL     OW26115   7.170   4.390   5.785  0.2108 -0.3473 -0.5981
 6932SOL    HW126116   7.113   4.343   5.724 -0.8127  0.5620 -0.3745
 6932SOL    HW226117   7.147   4.482   5.774  0.7722 -0.0724  0.3939
 6933SOL     OW26118   9.609   7.501   9.175  0.0534  0.3526 -0.2752
 6933SOL    HW126119   9.554   7.426   9.150  1.5148  0.0742 -3.1188
 6933SOL    HW226120   9.681   7.462   9.224 -0.6011  0.3036  0.6754
 6934SOL     OW26121   1.085   9.273   6.005  0.2767  0.3125 -0.1146
 6934SOL    HW126122   1.110   9.189   5.967  2.0097  1.5497 -1.9688
 6934SOL    HW226123   1.019   9.252   6.071 -0.3982 -2.3297 -1.5100
 6935SOL     OW26124   3.084   8.635   8.479 -0.3710 -0.7163 -0.3160
 6935SOL    HW126125   3.030   8.562   8.510 -0.1861 -0.5414  0.4377
 6935SOL    HW226126   3.162   8.632   8.533 -0.8080  0.6624  0.4416
 6936SOL     OW26127   7.495   6.435  10.428  0.5272  0.6182 -0.3670
 6936SOL    HW126128   7.532   6.385  10.500  2.6822  2.0568 -0.3823
 6936SOL    HW226129   7.483   6.523  10.464 -0.9337  0.7012 -1.0054
 6937SOL     OW26130   0.009   6.111  10.754  0.4272  0.2459  0.1198
 6937SOL    HW126131  -0.025   6.199  10.736  0.2834 -0.1696 -1.8835
 6937SOL    HW226132   0.101   6.114  10.727  0.2488 -0.3687 -0.6197
 6938SOL     OW26133   8.661  10.776   0.183  0.5714 -0.0919 -0.2143
 6938SOL    HW126134   8.659  10.745   0.274 -0.1570 -1.5987 -0.7002
 6938SOL    HW226135   8.700  10.863   0.188  0.8515 -0.2753  1.5002
 6939SOL     OW26136   1.780   9.796   1.546  0.2373 -0.0346  0.0784
 6939SOL    HW126137   1.756   9.884   1.515 -1.0975  0.3915  2.1002
 6939SOL    HW226138   1.696   9.751   1.557  0.9379 -2.3302 -2.7466
 6940SOL     OW26139   8.340   4.520   8.740  0.4245 -0.0873 -0.0176
 6940SOL    HW126140   8.381   4.487   8.661 -0.0316 -0.5315 -0.0733
 6940SOL    HW226141   8.403   4.501   8.810  0.2410 -0.9359 -0.0712
 6941SOL     OW26142   3.283   3.722   3.338  1.0062  0.6229 -0.3998
 6941SOL    HW126143   3.243   3.807   3.357 -0.8266 -0.2385 -0.2684
 6941SOL    HW226144   3.333   3.737   3.258 -2.9201  0.8502 -3.0860
 6942SOL     OW26145   0.583   1.737   4.559  0.6880  0.2701  0.2547
 6942SOL    HW126146   0.635   1.664   4.525 -0.0219 -0.9047  1.5829
 6942SOL    HW226147   0.646   1.792   4.604  0.6980 -2.0424  3.3758
 6943SOL     OW26148   9.011   7.950   4.390 -0.1779 -0.2230  0.1085
 6943SOL    HW126149   8.938   7.899   4.356  0.6713 -0.7247 -1.0450
 6943SOL    HW226150   9.010   8.031   4.339 -0.1981 -0.0267  0.4150
 6944SOL     OW26151  10.678   5.398   9.353  0.3775  0.3118  0.2433
 6944SOL    HW126152  10.594   5.440   9.337  1.2124  2.5058  1.2701
 6944SOL    HW226153  10.675   5.371   9.444  0.8606  0.5673  0.3365
 6945SOL     OW26154   9.811   7.624   6.565 -0.1996  0.1024  0.6047
 6945SOL    HW126155   9.826   7.712   6.533  0.0392 -0.2801 -0.3732
 6945SOL    HW226156   9.892   7.600   6.611  0.4760 -0.2797 -0.7374
 6946SOL     OW26157   1.333   5.373   7.691 -0.1147  0.2065 -0.7939
 6946SOL    HW126158   1.276   5.347   7.618 -0.5338  1.0835 -0.8027
 6946SOL    HW226159   1.377   5.452   7.659 -0.6191  0.8492  0.0384
 6947SOL     OW26160   5.585   6.906   4.013  0.0413 -0.6894 -0.0981
 6947SOL    HW126161   5.645   6.895   4.087  1.5026  2.6689 -0.5917
 6947SOL    HW226162   5.525   6.976   4.041 -0.4671 -0.5452 -1.4529
 6948SOL     OW26163   2.247   8.867   4.403 -0.2137 -0.6369 -0.4170
 6948SOL    HW126164   2.160   8.865   4.442 -0.0566  1.3604  0.1715
 6948SOL    HW226165   2.257   8.782   4.360 -2.7443 -0.6417 -1.1503
 6949SOL     OW26166   3.917   9.005   8.503  0.2499  0.2068 -0.0680
 6949SOL    HW126167   3.992   8.947   8.492  0.9028  0.8476  0.8646
 6949SOL    HW226168   3.880   9.013   8.415  0.8917 -0.6114 -0.4294
 6950SOL     OW26169   8.205   7.082   4.130 -0.5034  0.1753  0.4322
 6950SOL    HW126170   8.227   7.051   4.217 -1.0488  1.3991  1.0244
 6950SOL    HW226171   8.277   7.141   4.106 -0.0614 -0.5947 -0.2056
 6951SOL     OW26172   2.626   2.233   7.729  0.2601  0.1378  0.6679
 6951SOL    HW126173   2.544   2.231   7.777  1.2041  1.4656  2.4453
 6951SOL    HW226174   2.693   2.239   7.797  1.6356  2.5786 -0.7782
 6952SOL     OW26175   2.607   2.238   0.716 -0.3613  0.0356  0.1278
 6952SOL    HW126176   2.658   2.307   0.674 -0.0896  0.0864  0.5331
 6952SOL    HW226177   2.667   2.164   0.723 -0.3011  0.1358  0.7174
 6953SOL     OW26178   1.522   0.035  11.794 -0.7262 -0.4562 -0.3028
 6953SOL    HW126179   1.547   0.101  11.730 -1.3554 -1.1946 -1.3585
 6953SOL    HW226180   1.469   0.082  11.858  0.9836  0.5576  0.4290
 6954SOL     OW26181   1.030   7.024   1.897 -0.6018 -0.0060  0.2895
 6954SOL    HW126182   0.977   6.970   1.956 -0.2242 -1.3715 -0.5696
 6954SOL    HW226183   1.006   6.994   1.810  1.5314 -0.6403 -0.1254
 6955SOL     OW26184   1.339   4.226   5.833  0.1766  0.0327  0.4724
 6955SOL    HW126185   1.305   4.169   5.901  0.5632 -0.0273  0.6144
 6955SOL    HW226186   1.330   4.315   5.868  0.8046 -0.0281  0.7906
 6956SOL     OW26187   1.146   6.467   6.107  0.1554  0.2259  0.1225
 6956SOL    HW126188   1.224   6.517   6.082  0.0046  1.5443  2.0887
 6956SOL    HW226189   1.177   6.376   6.111  1.0559  0.4588 -1.1400
 6957SOL     OW26190   8.598   8.155   7.340 -0.1293  0.6429 -0.4819
 6957SOL    HW126191   8.548   8.230   7.373  1.0417  0.7542  1.1743
 6957SOL    HW226192   8.569   8.081   7.395 -2.3049 -0.5379 -2.9914
 6958SOL     OW26193  10.152   2.072  11.289 -0.2935 -0.0902  0.2647
 6958SOL    HW126194  10.112   1.986  11.277 -1.0651  0.2355  0.4559
 6958SOL    HW226195  10.166   2.079  11.384  0.5296 -0.3349  0.1686
 6959SOL     OW26196   3.118   9.563  10.369  0.2492 -0.6262  0.0087
 6959SOL    HW126197   3.199   9.522  10.399  0.8019 -0.6013 -1.3736
 6959SOL    HW226198   3.062   9.489  10.345  0.5504 -0.6218 -0.7333
 6960SOL     OW26199   6.684   8.336   0.448  0.4176 -0.1012 -0.0172
 6960SOL    HW126200   6.662   8.303   0.536 -2.6799 -1.0928 -1.0519
 6960SOL    HW226201   6.757   8.280   0.420 -0.5429 -1.8563  0.7790
 6961SOL     OW26202   5.862   0.736   5.545 -0.0363  0.3260 -0.1200
 6961SOL    HW126203   5.821   0.653   5.570  1.3582 -1.6550 -3.6583
 6961SOL    HW226204   5.789   0.794   5.525 -1.0456 -0.2833  1.6589
 6962SOL     OW26205   7.699   1.140   7.169  0.4030 -0.1847 -0.4962
 6962SOL    HW126206   7.748   1.219   7.146  0.0406  0.2117  0.0639
 6962SOL    HW226207   7.700   1.139   7.264  0.0207 -0.6138 -0.4972
 6963SOL     OW26208   2.614   3.431   8.750 -0.1269 -0.6268  0.5639
 6963SOL    HW126209   2.545   3.469   8.695  0.8374  0.0862 -0.1874
 6963SOL    HW226210   2.611   3.337   8.730 -0.6011 -0.5435  0.2150
 6964SOL     OW26211   7.411   2.167   8.724  0.2223 -0.0817 -0.9395
 6964SOL    HW126212   7.443   2.205   8.805 -0.3254 -1.3014 -0.1141
 6964SOL    HW226213   7.490   2.142   8.676  0.5579 -1.0683  0.0864
 6965SOL     OW26214  11.041   0.031   2.677  0.3605 -0.4164 -0.4376
 6965SOL    HW126215  11.033   0.025   2.582  1.9465 -1.4451 -0.5475
 6965SOL    HW226216  10.992   0.109   2.701 -0.5276 -0.4525 -2.0364
 6966SOL     OW26217   1.018   5.372   9.327  0.3069  0.2725  0.1105
 6966SOL    HW126218   1.033   5.345   9.237 -0.5971 -1.5590  0.4543
 6966SOL    HW226219   1.041   5.294   9.379  3.3510  2.0598  1.7330
 6967SOL     OW26220   1.985   1.468   1.534  0.0679  0.2981 -0.0412
 6967SOL    HW126221   2.078   1.484   1.518  0.1306 -0.0277 -0.0157
 6967SOL    HW226222   1.984   1.404   1.605 -0.1835  0.6349  0.2575
 6968SOL     OW26223   6.675   3.930   8.677  0.7335 -0.8943 -0.0693
 6968SOL    HW126224   6.719   3.854   8.717 -0.8207 -1.1332  1.3266
 6968SOL    HW226225   6.681   3.915   8.583  0.9269 -2.4988  0.1682
 6969SOL     OW26226   9.530   2.829  10.904 -0.1191 -0.2469 -0.3956
 6969SOL    HW126227   9.531   2.875  10.820  0.1577  0.6015  0.0511
 6969SOL    HW226228   9.587   2.754  10.892 -1.0260 -0.8085 -1.3229
 6970SOL     OW26229   2.139   9.080   8.109 -0.4487  0.3085 -0.1380
 6970SOL    HW126230   2.093   9.163   8.093  1.0436  1.3221  0.5987
 6970SOL    HW226231   2.232   9.102   8.100 -0.0464 -1.5857 -1.2014
 6971SOL     OW26232  10.293  11.252   7.646 -0.4478 -0.2176  0.3325
 6971SOL    HW126233  10.354  11.189   7.685 -0.5180 -0.1130  0.6174
 6971SOL    HW226234  10.301  11.329   7.702  0.1502  0.2784 -0.4219
 6972SOL     OW26235   9.162   7.230  10.466  0.2903  0.0830  0.0903
 6972SOL    HW126236   9.254   7.204  10.455  0.5195  1.1477 -0.5940
 6972SOL    HW226237   9.148   7.297  10.400 -1.3028 -0.8320 -0.5460
 6973SOL     OW26238   1.558   8.086   7.706 -0.1864 -0.2443  0.8658
 6973SOL    HW126239   1.606   8.116   7.783  1.2458 -0.8846  0.2636
 6973SOL    HW226240   1.607   8.121   7.632 -2.3235  1.5709  0.1876
 6974SOL     OW26241   6.043   4.103   7.604  0.9147 -0.2920  0.2276
 6974SOL    HW126242   6.134   4.112   7.576  0.9439 -2.2827 -0.4514
 6974SOL    HW226243   6.030   4.009   7.615  0.0319  0.1253  4.2303
 6975SOL     OW26244   4.521   2.263   3.098  0.3022 -0.2234  0.1184
 6975SOL    HW126245   4.447   2.311   3.134  2.0182  1.6835  1.3037
 6975SOL    HW226246   4.566   2.326   3.041  0.5611 -1.6159 -1.3219
 6976SOL     OW26247   9.124   5.261   8.076 -0.2610  0.1020 -0.0728
 6976SOL    HW126248   9.087   5.267   7.988 -0.0143 -0.2270 -0.1999
 6976SOL    HW226249   9.073   5.323   8.128 -0.0324  0.7150 -0.5760
 6977SOL     OW26250   5.090   1.941  10.349 -0.2066 -0.0538  0.2901
 6977SOL    HW126251   5.176   1.981  10.358  0.6075 -1.5788 -0.3857
 6977SOL    HW226252   5.035   2.011  10.314  0.6773  1.0276  1.0186
 6978SOL     OW26253   6.647  10.499   8.701 -0.5152  0.5963 -0.0504
 6978SOL    HW126254   6.593  10.444   8.643 -1.0454  1.8982 -0.8451
 6978SOL    HW226255   6.585  10.563   8.737 -0.1607 -0.0776  1.8724
 6979SOL     OW26256   4.825   0.071   4.723  0.4827 -0.2913  0.4574
 6979SOL    HW126257   4.839   0.105   4.634 -2.1959 -0.8646 -0.2723
 6979SOL    HW226258   4.749   0.120   4.756 -0.1139 -1.8110  1.4570
 6980SOL     OW26259   5.084   1.870   0.679 -0.0706 -0.1376 -0.3255
 6980SOL    HW126260   5.171   1.861   0.716 -0.2990  2.1296  0.9849
 6980SOL    HW226261   5.039   1.930   0.739 -2.2635 -0.6045 -1.4003
 6981SOL     OW26262   0.589  10.718   1.914 -0.0074  0.2932 -0.4553
 6981SOL    HW126263   0.658  10.739   1.851 -0.1161 -0.0375 -0.6870
 6981SOL    HW226264   0.548  10.802   1.933  1.0188  0.6300  0.3546
 6982SOL     OW26265   6.873   3.310   7.067  0.1420  0.6522 -0.0893
 6982SOL    HW126266   6.869   3.326   6.972  2.4325  1.6150 -0.1000
 6982SOL    HW226267   6.909   3.222   7.075  1.8426  1.3056 -0.1749
 6983SOL     OW26268   0.974   6.770   3.593 -0.1516 -0.3809 -0.0927
 6983SOL    HW126269   0.954   6.857   3.558 -1.0745 -0.7479 -0.5231
 6983SOL    HW226270   1.028   6.729   3.526 -0.0267 -0.2662 -0.0614
 6984SOL     OW26271   8.414  11.343  10.137  0.5307  0.8430  0.2271
 6984SOL    HW126272   8.397  11.426  10.092  0.9961  1.4329  1.1333
 6984SOL    HW226273   8.464  11.367  10.215  0.9578 -0.3250  0.3304
 6985SOL     OW26274  10.696   3.507   7.929  0.0016 -0.7070  0.0172
 6985SOL    HW126275  10.691   3.500   7.833  0.7890 -3.3447  0.1030
 6985SOL    HW226276  10.786   3.535   7.946 -0.3504  0.5014  0.0069
 6986SOL     OW26277   5.136   0.173  10.618 -0.8539  0.8379 -0.0355
 6986SOL    HW126278   5.216   0.208  10.580 -0.3080 -0.5823 -0.2500
 6986SOL    HW226279   5.160   0.086  10.651 -1.9291  1.0008  1.2917
 6987SOL     OW26280  11.427   9.450   6.828  0.3084  0.2936  0.3084
 6987SOL    HW126281  11.385   9.444   6.742 -0.8226  2.8234  0.5876
 6987SOL    HW226282  11.355   9.444   6.891  0.7211  1.4603  0.9315
 6988SOL     OW26283   6.291   4.384   3.087 -0.2230 -0.1607  0.0547
 6988SOL    HW126284   6.369   4.331   3.099  0.5068  0.5246 -1.4380
 6988SOL    HW226285   6.267   4.411   3.176  1.4999 -0.0098  0.5045
 6989SOL     OW26286   5.511   6.586   2.569 -0.4030 -0.3405 -0.2116
 6989SOL    HW126287   5.435   6.558   2.518 -1.3201 -0.4536  1.1720
 6989SOL    HW226288   5.557   6.505   2.590 -0.7481 -0.4174  0.2498
 6990SOL     OW26289   9.745  10.111   9.059 -0.1033 -0.2971 -0.0409
 6990SOL    HW126290   9.705  10.161   9.130 -0.8546 -0.0717 -0.6058
 6990SOL    HW226291   9.816  10.063   9.100  0.0895  0.5765  0.6854
 6991SOL     OW26292   6.956   8.465   8.492 -0.7335  0.7878  0.0303
 6991SOL    HW126293   6.890   8.431   8.432  0.2149 -0.4538 -0.3646
 6991SOL    HW226294   7.024   8.501   8.434 -0.7543  1.4473  0.4106
 6992SOL     OW26295   7.291   2.967   1.865 -0.1028  0.4147 -0.6306
 6992SOL    HW126296   7.285   2.989   1.772 -1.6376  1.4366 -0.3363
 6992SOL    HW226297   7.262   3.047   1.910 -0.0491 -0.2864  0.6940
 6993SOL     OW26298   4.563   5.375   7.773  0.5442 -0.1211  0.1821
 6993SOL    HW126299   4.647   5.413   7.799  0.7500 -0.0661 -0.5543
 6993SOL    HW226300   4.562   5.381   7.678  0.2919 -1.3451  0.0859
 6994SOL     OW26301   9.642   0.638   2.184 -0.0263 -0.3077 -0.3493
 6994SOL    HW126302   9.575   0.695   2.222  0.5692 -0.0361  0.3188
 6994SOL    HW226303   9.716   0.696   2.167  0.0559 -0.6121 -1.0361
 6995SOL     OW26304   6.405   2.137   9.265 -0.0368 -0.4518 -0.0839
 6995SOL    HW126305   6.434   2.194   9.336 -0.3141 -1.5498  0.9429
 6995SOL    HW226306   6.487   2.110   9.222  0.1838 -0.2945  0.2324
 6996SOL     OW26307   5.465   9.238   9.298 -0.6267  0.0736  0.3155
 6996SOL    HW126308   5.381   9.283   9.301 -1.9887 -2.2491 -0.3317
 6996SOL    HW226309   5.483   9.216   9.390 -0.9175  0.2158  0.4087
 6997SOL     OW26310   6.843   1.986   0.714  0.2086  0.3264 -0.2145
 6997SOL    HW126311   6.824   1.994   0.621 -1.0246 -1.6789 -0.2025
 6997SOL    HW226312   6.794   1.909   0.742  0.7134  0.7476  2.0629
 6998SOL     OW26313   9.619   6.272   2.699 -0.4892  0.2533  0.1243
 6998SOL    HW126314   9.548   6.314   2.651 -0.1762  0.5462 -0.0864
 6998SOL    HW226315   9.575   6.208   2.755 -0.8127 -0.4783 -0.9411
 6999SOL     OW26316   4.622  11.447  11.168 -0.2998 -0.2615  0.7740
 6999SOL    HW126317   4.620  11.362  11.125  0.7488 -0.6222  1.3974
 6999SOL    HW226318   4.677  11.502  11.111 -3.3698  0.9617 -1.2271
 7000SOL     OW26319   1.341   2.528   2.415  0.3225  0.2531 -0.5897
 7000SOL    HW126320   1.375   2.554   2.501  1.6962  1.1917 -1.4041
 7000SOL    HW226321   1.357   2.433   2.411  0.4328  0.2380  0.0853
 7001SOL     OW26322   1.607   3.605   8.311  0.1862 -0.4157  0.0411
 7001SOL    HW126323   1.687   3.577   8.356  1.1032  0.7147 -0.8407
 7001SOL    HW226324   1.614   3.567   8.224  0.4557  0.8046 -0.4946
 7002SOL     OW26325   6.143  10.985   0.143 -0.4550  0.3674 -0.4535
 7002SOL    HW126326   6.175  11.047   0.208  0.9098  1.9667 -2.5155
 7002SOL    HW226327   6.222  10.939   0.113 -0.8719  0.4071 -1.6825
 7003SOL     OW26328   7.958   8.695   7.399 -0.3023 -0.3307  0.0992
 7003SOL    HW126329   7.970   8.608   7.362  0.3275 -0.3642  0.3766
 7003SOL    HW226330   8.002   8.754   7.338 -0.9281 -0.1762 -0.2103
 7004SOL     OW26331   0.625   8.673   5.983  0.2847  0.2154  0.3186
 7004SOL    HW126332   0.571   8.652   6.059 -1.2582 -0.8530 -0.9730
 7004SOL    HW226333   0.650   8.587   5.948  0.3857  0.6602 -0.7311
 7005SOL     OW26334   4.192   1.313   8.227 -0.1346 -0.1056 -0.0153
 7005SOL    HW126335   4.126   1.362   8.276  1.1623 -0.1555  1.8998
 7005SOL    HW226336   4.262   1.376   8.212  0.4138 -0.6710  0.1307
 7006SOL     OW26337   4.405   6.643  11.296 -0.5104  0.4408  0.8124
 7006SOL    HW126338   4.333   6.632  11.358  1.2268 -2.2456  2.6308
 7006SOL    HW226339   4.384   6.585  11.223 -0.2656 -0.2945  1.3133
 7007SOL     OW26340   6.629   9.260   0.669 -0.4499 -0.1112  0.1162
 7007SOL    HW126341   6.563   9.307   0.618 -0.9287 -1.3233 -0.4062
 7007SOL    HW226342   6.595   9.261   0.759 -1.2804 -0.8641 -0.1739
 7008SOL     OW26343   0.023   3.409   2.133  0.7029  0.1568 -0.3337
 7008SOL    HW126344  -0.026   3.366   2.063 -0.2663  1.3317 -0.4061
 7008SOL    HW226345   0.045   3.495   2.098  1.2978  0.2998  0.3608
 7009SOL     OW26346   6.319   3.208   7.474 -0.3632 -0.3912  0.3454
 7009SOL    HW126347   6.347   3.121   7.504 -0.3540 -0.1143  1.1873
 7009SOL    HW226348   6.255   3.190   7.406  0.4471 -1.0509 -0.2666
 7010SOL     OW26349   8.277  10.468   3.240  0.1259  0.5289 -0.1905
 7010SOL    HW126350   8.320  10.516   3.170  0.6612 -0.1721 -0.3506
 7010SOL    HW226351   8.183  10.486   3.228  0.3031  1.3738 -0.3549
 7011SOL     OW26352   4.695   3.726   7.804 -0.0394  0.1572 -0.1971
 7011SOL    HW126353   4.781   3.742   7.842  0.2257  1.8286 -1.4123
 7011SOL    HW226354   4.713   3.692   7.717 -0.6005  0.7293 -0.5445
 7012SOL     OW26355   5.774   0.900  11.297  0.0293 -0.0063 -0.2088
 7012SOL    HW126356   5.753   0.841  11.225 -0.1344  0.5712 -0.6482
 7012SOL    HW226357   5.836   0.851  11.352 -1.8362 -1.4844  0.7178
 7013SOL     OW26358   4.939   0.770   0.148  0.1333  0.2864  0.3682
 7013SOL    HW126359   5.004   0.709   0.182 -0.9117 -0.6182  0.8094
 7013SOL    HW226360   4.858   0.719   0.145 -0.4160  1.1871 -0.8026
 7014SOL     OW26361  10.705  10.769   8.779  0.4367  0.2564 -0.0625
 7014SOL    HW126362  10.785  10.782   8.830  0.8597 -0.5556 -0.4860
 7014SOL    HW226363  10.663  10.855   8.776  1.4887  0.7820 -0.1566
 7015SOL     OW26364   0.637   8.345   8.490 -0.2319  0.5255 -0.2319
 7015SOL    HW126365   0.638   8.353   8.395 -2.0358 -1.0329 -0.4428
 7015SOL    HW226366   0.708   8.284   8.510  0.6935  1.4877 -0.4480
 7016SOL     OW26367   8.138   9.027   2.088  0.0505 -0.3229 -0.3295
 7016SOL    HW126368   8.205   9.095   2.088  0.4282 -0.6530  1.2220
 7016SOL    HW226369   8.184   8.948   2.117 -0.1263 -1.5683 -3.1279
 7017SOL     OW26370   6.182   7.906   5.806 -0.3652 -0.1523 -0.3437
 7017SOL    HW126371   6.135   7.847   5.865  1.9057 -0.2718  1.4758
 7017SOL    HW226372   6.128   7.985   5.803 -1.2143 -0.6556  0.8388
 7018SOL     OW26373   6.372   1.370   6.895 -0.0616 -0.0630 -0.5281
 7018SOL    HW126374   6.296   1.326   6.932 -0.7786  0.3885 -1.4244
 7018SOL    HW226375   6.379   1.452   6.943  0.1356 -0.2973 -0.1490
 7019SOL     OW26376  11.102   4.947  10.113  0.1115 -0.2775  0.2168
 7019SOL    HW126377  11.044   4.878  10.143  1.7994 -2.0096 -0.3255
 7019SOL    HW226378  11.186   4.929  10.154  1.5099 -0.5820 -2.4935
 7020SOL     OW26379   8.159  11.636   9.886 -0.1970  0.4293 -0.2445
 7020SOL    HW126380   8.174  11.731   9.879  0.0604  0.3547 -0.7137
 7020SOL    HW226381   8.143  11.608   9.796 -1.8329  0.2755  0.0709
 7021SOL     OW26382   6.255  11.526   8.460  0.1105 -0.1779  0.3651
 7021SOL    HW126383   6.292  11.501   8.544 -2.7003 -0.9050  1.5122
 7021SOL    HW226384   6.265  11.447   8.406 -0.4426 -0.6328  0.9135
 7022SOL     OW26385  11.014   2.966   5.803  0.5380  0.3130 -0.6468
 7022SOL    HW126386  11.051   2.879   5.784 -0.8429 -0.1864 -1.1736
 7022SOL    HW226387  10.984   2.959   5.894  2.9001  1.1773  0.2796
 7023SOL     OW26388   2.364   9.779   7.501 -0.0771  0.7776  0.1315
 7023SOL    HW126389   2.440   9.725   7.521 -0.9789 -1.0705 -1.0673
 7023SOL    HW226390   2.310   9.776   7.580 -0.7645 -1.3368 -0.3494
 7024SOL     OW26391   9.930   4.649   5.620  0.0330  0.0280  0.5903
 7024SOL    HW126392   9.940   4.744   5.625 -0.0537  0.2716 -2.4289
 7024SOL    HW226393   9.860   4.635   5.556  0.5131 -2.0864  0.4530
 7025SOL     OW26394   8.549   3.944   0.634 -0.4414  0.0632  0.0656
 7025SOL    HW126395   8.594   3.947   0.550  0.6682 -1.9111  0.5022
 7025SOL    HW226396   8.515   4.032   0.647  2.0648  1.2924 -1.0101
 7026SOL     OW26397   4.214   6.003   2.199  0.3144  0.1037  0.2722
 7026SOL    HW126398   4.159   6.077   2.226 -2.3379 -1.9434  0.8737
 7026SOL    HW226399   4.191   5.933   2.259  0.5423 -2.0729 -2.0291
 7027SOL     OW26400   8.032   1.392  10.248  0.2163  0.3739 -0.0824
 7027SOL    HW126401   8.050   1.383  10.342  3.7127 -1.8852 -0.7582
 7027SOL    HW226402   8.096   1.334  10.207 -2.3511 -0.0824 -3.8403
 7028SOL     OW26403   5.984   7.899   1.766 -0.2953 -0.0163 -0.0761
 7028SOL    HW126404   5.979   7.864   1.677  0.4299  1.5419 -0.7707
 7028SOL    HW226405   6.047   7.843   1.811 -1.0372 -1.1229 -0.3662
 7029SOL     OW26406   3.636   4.665   2.301 -0.2994 -0.0027 -0.1248
 7029SOL    HW126407   3.704   4.703   2.356  1.2738 -1.1416 -1.1697
 7029SOL    HW226408   3.623   4.577   2.337  0.0894 -0.4250 -0.9867
 7030SOL     OW26409   4.125  11.119   0.459  0.1421  0.1070  0.0397
 7030SOL    HW126410   4.069  11.178   0.509 -0.9920  0.2910 -1.3704
 7030SOL    HW226411   4.178  11.177   0.404 -0.3689 -0.1437 -0.7327
 7031SOL     OW26412   6.019   4.671   3.717 -0.2310  0.1674 -0.1118
 7031SOL    HW126413   5.943   4.720   3.686 -0.2801 -0.3763 -0.8919
 7031SOL    HW226414   5.983   4.609   3.780 -0.7160 -1.1723 -1.6362
 7032SOL     OW26415   7.394   8.077  10.701 -0.1826  0.3457  0.0076
 7032SOL    HW126416   7.300   8.062  10.711 -0.2608 -1.5856 -2.5858
 7032SOL    HW226417   7.415   8.038  10.616  3.3168 -0.8884  1.2935
 7033SOL     OW26418   8.600   9.720   8.185 -0.2176  0.0350  0.2158
 7033SOL    HW126419   8.675   9.662   8.196 -0.7876 -0.7002  0.3149
 7033SOL    HW226420   8.545   9.676   8.120 -0.6096  0.5158  0.2153
 7034SOL     OW26421  10.238   7.367   3.554 -0.4224 -0.1768 -0.5042
 7034SOL    HW126422  10.258   7.352   3.647  0.2449  1.2234 -0.4108
 7034SOL    HW226423  10.154   7.414   3.555  0.3702  1.2897 -0.5090
 7035SOL     OW26424   4.290   1.874   1.062  0.0828  0.1079 -0.2975
 7035SOL    HW126425   4.219   1.875   1.127  0.1484  0.7635 -0.2273
 7035SOL    HW226426   4.313   1.966   1.051 -1.0102  0.1782 -2.4593
 7036SOL     OW26427   5.307   0.199   4.063  0.1200 -1.1226  0.1148
 7036SOL    HW126428   5.221   0.160   4.050 -0.4772  0.0836  0.2302
 7036SOL    HW226429   5.288   0.283   4.106  1.1204  0.4130 -2.2400
 7037SOL     OW26430   1.014   2.000   8.095 -0.1681 -0.3994 -0.3498
 7037SOL    HW126431   0.964   1.946   8.155  0.5077  0.7558  1.3408
 7037SOL    HW226432   1.103   1.964   8.099  0.2090  0.5746  0.5278
 7038SOL     OW26433  10.018   8.976  10.734 -0.5743 -0.3272  0.0509
 7038SOL    HW126434  10.069   9.052  10.760  1.7997 -1.1824 -1.7494
 7038SOL    HW226435  10.025   8.916  10.808  0.0829  0.0399  0.2944
 7039SOL     OW26436   7.964   2.817   4.289  0.5788  0.4050  0.1811
 7039SOL    HW126437   7.917   2.823   4.206  0.8742  0.9419  0.0428
 7039SOL    HW226438   7.960   2.906   4.325  0.3790  0.1580  0.7850
 7040SOL     OW26439   9.633   9.171   6.320 -0.0874  0.3470  0.1116
 7040SOL    HW126440   9.592   9.103   6.266 -0.8818  0.8969  0.0083
 7040SOL    HW226441   9.724   9.173   6.291  0.1592 -1.2402  0.6964
 7041SOL     OW26442   6.651  10.758   5.454 -0.6044 -0.0561  0.3319
 7041SOL    HW126443   6.618  10.671   5.435  0.1763 -0.4950  0.9387
 7041SOL    HW226444   6.637  10.769   5.548  2.0796 -0.7641  0.8952
 7042SOL     OW26445   2.688   7.613   5.242  0.3955 -0.2971  0.4753
 7042SOL    HW126446   2.743   7.681   5.204  0.4028  0.5987  1.9986
 7042SOL    HW226447   2.618   7.600   5.178  0.8806  0.5125 -0.2353
 7043SOL     OW26448   4.165   5.087   0.891  0.2556  0.6200 -0.5469
 7043SOL    HW126449   4.222   5.101   0.967  1.9748 -0.1810 -1.6337
 7043SOL    HW226450   4.098   5.155   0.899  0.7166  0.9104  1.3663
 7044SOL     OW26451   7.693   3.734   9.853 -0.4114  0.3639  0.0706
 7044SOL    HW126452   7.684   3.646   9.817 -2.1296  1.0105 -1.1899
 7044SOL    HW226453   7.604   3.770   9.852  0.4566  2.6639 -0.8955
 7045SOL     OW26454   1.739   2.445  11.757 -0.4215 -0.0222  0.6237
 7045SOL    HW126455   1.827   2.412  11.772 -0.9241 -0.5753  2.8080
 7045SOL    HW226456   1.709   2.400  11.679  1.4063  0.6464 -0.5322
 7046SOL     OW26457   1.955   8.151   7.354 -0.3702 -0.1510 -0.4249
 7046SOL    HW126458   2.039   8.131   7.395  0.9850  1.3336 -2.2614
 7046SOL    HW226459   1.961   8.112   7.267 -1.0322  1.0358 -1.0390
 7047SOL     OW26460   9.304   4.830   6.314  0.1501  0.2547 -0.1507
 7047SOL    HW126461   9.281   4.741   6.339 -0.0251  0.2475 -0.3377
 7047SOL    HW226462   9.275   4.884   6.388  0.5110  0.1256  0.0844
 7048SOL     OW26463   0.692  11.354   7.036 -0.2556  0.3354  0.1749
 7048SOL    HW126464   0.628  11.374   6.968  0.5509 -0.5224 -0.8793
 7048SOL    HW226465   0.693  11.431   7.092 -0.3375  1.4369 -1.2832
 7049SOL     OW26466  10.408   1.855   2.498 -0.2661  0.0086 -0.4565
 7049SOL    HW126467  10.323   1.831   2.534  0.3110  0.0482  1.0046
 7049SOL    HW226468  10.396   1.850   2.404 -2.2100  1.0836 -0.3246
 7050SOL     OW26469   1.542  10.594   1.823  0.0734  0.0595 -0.9657
 7050SOL    HW126470   1.450  10.571   1.807 -0.1934 -0.8313  1.4888
 7050SOL    HW226471   1.537  10.673   1.876  0.8197  0.9771 -2.2003
 7051SOL     OW26472   7.498   3.385   0.020  0.5262 -0.1257 -0.0758
 7051SOL    HW126473   7.491   3.447  -0.053 -1.0751  1.6671  1.4646
 7051SOL    HW226474   7.569   3.419   0.074 -0.4852  0.5893  0.8787
 7052SOL     OW26475   9.224   3.990   0.327 -0.4492 -0.2154  0.0221
 7052SOL    HW126476   9.253   4.079   0.308  2.0543 -0.7137  1.1487
 7052SOL    HW226477   9.266   3.936   0.261  2.3156 -1.0734  2.2740
 7053SOL     OW26478   4.210   8.687  10.822 -0.1278  0.2997  0.0970
 7053SOL    HW126479   4.238   8.601  10.791  0.1501  0.1791  0.6786
 7053SOL    HW226480   4.224   8.685  10.916 -1.6096  0.4282  0.3378
 7054SOL     OW26481   4.763   0.905   5.598 -0.2318 -0.5697 -0.0804
 7054SOL    HW126482   4.713   0.968   5.649 -0.6665  0.1081 -1.3011
 7054SOL    HW226483   4.727   0.820   5.622 -1.9200 -0.1009 -0.8407
 7055SOL     OW26484   6.832   6.439  11.535 -0.0876  0.8509 -0.4097
 7055SOL    HW126485   6.853   6.411  11.446  0.7804  0.6868 -0.1666
 7055SOL    HW226486   6.818   6.533  11.528 -0.1270  0.8201 -0.7359
 7056SOL     OW26487   0.998   7.335   5.391  1.1205 -0.7203 -0.4170
 7056SOL    HW126488   0.921   7.350   5.336  0.9057 -1.0158 -0.1975
 7056SOL    HW226489   0.963   7.296   5.471  1.5418 -1.2387 -0.4838
 7057SOL     OW26490   8.279   2.619   7.783 -0.4454  0.1637  0.1288
 7057SOL    HW126491   8.254   2.622   7.690 -4.0796  1.8768  0.9993
 7057SOL    HW226492   8.312   2.530   7.795  1.7644  0.3508 -3.0743
 7058SOL     OW26493  11.185   8.000  10.873  0.8155 -0.2852  0.4866
 7058SOL    HW126494  11.112   7.938  10.878  1.8263 -1.4639  1.0505
 7058SOL    HW226495  11.261   7.946  10.852  1.2306  1.1770 -2.1550
 7059SOL     OW26496  10.639   5.135   5.891 -0.6357  0.8118 -0.9171
 7059SOL    HW126497  10.573   5.117   5.824 -0.6228  2.9938 -1.5951
 7059SOL    HW226498  10.720   5.097   5.855 -0.6455  1.8786 -2.1717
 7060SOL     OW26499   8.278   3.169  10.931  0.1809  0.2480 -1.1337
 7060SOL    HW126500   8.303   3.118  10.853 -0.1942  2.5479 -2.8830
 7060SOL    HW226501   8.219   3.111  10.979  2.0762 -2.0560 -1.3791
 7061SOL     OW26502   0.774   2.652  10.424  0.2472 -0.2288 -0.2024
 7061SOL    HW126503   0.814   2.636  10.510  0.0508  0.4350  0.0171
 7061SOL    HW226504   0.692   2.697  10.444  1.0503  1.5683 -0.8089
 7062SOL     OW26505   9.195   9.186   7.614  0.3355  0.4438  0.2865
 7062SOL    HW126506   9.121   9.227   7.570 -0.2095  0.7834  1.4678
 7062SOL    HW226507   9.208   9.104   7.567  0.0767  0.9977 -0.7797
 7063SOL     OW26508  10.778   1.996   4.891  0.0059 -0.1763  0.3306
 7063SOL    HW126509  10.706   1.996   4.954 -0.1108 -2.0293  0.2669
 7063SOL    HW226510  10.736   2.011   4.806 -0.2544 -0.7554  0.3519
 7064SOL     OW26511   7.341   0.037   9.829 -1.0134 -0.6047 -0.0759
 7064SOL    HW126512   7.263   0.084   9.858 -0.0905 -0.5371  2.6285
 7064SOL    HW226513   7.334  -0.049   9.871  0.2349 -0.6737  0.0226
 7065SOL     OW26514  10.536   0.259   2.911 -0.3159 -0.1389  0.5394
 7065SOL    HW126515  10.472   0.221   2.971 -1.2343  1.0214  0.3490
 7065SOL    HW226516  10.551   0.347   2.945  0.6463 -0.1553  0.1665
 7066SOL     OW26517   4.996  10.006  11.118  0.2672  0.1148  0.6218
 7066SOL    HW126518   5.025   9.955  11.194  0.2449  1.1523  1.3433
 7066SOL    HW226519   4.910   9.969  11.097  0.5348 -0.5842  0.7156
 7067SOL     OW26520   3.946   2.957   0.772  0.3492  0.1564  0.3063
 7067SOL    HW126521   3.914   2.874   0.738  0.2086 -0.6978  2.3448
 7067SOL    HW226522   3.867   3.007   0.794  0.3926 -0.2151  1.3784
 7068SOL     OW26523   0.365   7.352   3.656 -0.2590 -0.3284  0.8816
 7068SOL    HW126524   0.350   7.270   3.610 -0.3056  1.1743 -2.0503
 7068SOL    HW226525   0.445   7.338   3.706  0.1748 -1.9110 -0.1866
 7069SOL     OW26526   3.645   1.735   3.936  0.0001 -0.0292  0.3991
 7069SOL    HW126527   3.710   1.681   3.981 -0.1066 -0.1379  0.4255
 7069SOL    HW226528   3.578   1.751   4.003 -1.5716 -2.5237 -0.4408
 7070SOL     OW26529   6.123   8.576   8.162 -0.4291  0.4219 -0.3787
 7070SOL    HW126530   6.048   8.614   8.115 -0.3928  1.0841  0.0873
 7070SOL    HW226531   6.125   8.485   8.133 -1.7608  0.2343  0.0092
 7071SOL     OW26532   2.498   2.962   7.652 -0.2990  0.0139  0.3243
 7071SOL    HW126533   2.525   2.870   7.643 -1.2167 -0.2685  0.3504
 7071SOL    HW226534   2.451   2.964   7.735 -3.0503 -0.2121 -1.1183
 7072SOL     OW26535  11.331  10.247   2.550 -0.3381 -0.6365  0.2019
 7072SOL    HW126536  11.386  10.172   2.573 -0.2048 -0.4390  0.5300
 7072SOL    HW226537  11.251  10.207   2.516  0.1694 -0.9219 -0.6738
 7073SOL     OW26538   8.148   3.853   0.382  0.0570 -0.2237  0.1258
 7073SOL    HW126539   8.104   3.828   0.463  0.8168 -0.9830  0.3259
 7073SOL    HW226540   8.221   3.908   0.410 -0.3779  0.5026 -0.1482
 7074SOL     OW26541   2.303   5.721   2.058  0.1591  0.1987  0.3739
 7074SOL    HW126542   2.348   5.643   2.026  0.0400  0.4060 -0.3099
 7074SOL    HW226543   2.286   5.703   2.150  2.5069  0.5093  0.9338
 7075SOL     OW26544   1.262   1.745   6.614  0.3440 -0.5700  0.0531
 7075SOL    HW126545   1.226   1.701   6.691  0.5948 -1.6604 -0.4298
 7075SOL    HW226546   1.189   1.798   6.581 -0.0284 -0.7608  0.5463
 7076SOL     OW26547   1.132   6.514   9.473 -0.0792  0.0948  0.1350
 7076SOL    HW126548   1.072   6.588   9.481 -1.3510 -0.5495 -2.3387
 7076SOL    HW226549   1.216   6.553   9.451 -0.1656  0.8749  1.0961
 7077SOL     OW26550   9.170   2.956   5.160 -0.0042  0.1145  0.0859
 7077SOL    HW126551   9.263   2.943   5.141 -0.2162 -0.8875 -0.3456
 7077SOL    HW226552   9.157   3.051   5.154  0.6389  0.1368 -1.5803
 7078SOL     OW26553   2.963   0.510   7.810  0.6505  0.3082  0.0045
 7078SOL    HW126554   3.042   0.561   7.792  1.2484  0.1081  1.8542
 7078SOL    HW226555   2.910   0.568   7.865  0.2093 -0.1385  0.0537
 7079SOL     OW26556   2.946   5.185   5.816 -0.3531 -0.1272 -0.3701
 7079SOL    HW126557   2.858   5.157   5.791 -0.7712  1.3380 -0.6165
 7079SOL    HW226558   2.932   5.252   5.883  0.5692  0.1414 -0.4331
 7080SOL     OW26559   0.762   7.455   4.108 -0.4336 -0.0375 -0.0204
 7080SOL    HW126560   0.739   7.466   4.015  0.0256  0.1453 -0.1190
 7080SOL    HW226561   0.717   7.527   4.152  0.7102  0.9245 -0.3485
 7081SOL     OW26562   2.252   1.046  11.067  0.2120 -0.5970  0.3632
 7081SOL    HW126563   2.248   1.057  10.972 -0.1760  1.3894  0.5599
 7081SOL    HW226564   2.346   1.042  11.086  0.4170  1.2887  0.0446
 7082SOL     OW26565  10.554   1.036   9.222  0.1358  0.4024 -0.5455
 7082SOL    HW126566  10.633   0.998   9.184 -0.0497 -0.6285  0.0545
 7082SOL    HW226567  10.585   1.078   9.302  0.2637  1.0812 -0.9485
 7083SOL     OW26568   2.354   1.647   2.377  0.2243 -0.0419 -0.0517
 7083SOL    HW126569   2.345   1.562   2.420  0.1362 -0.4726 -0.9143
 7083SOL    HW226570   2.267   1.665   2.342  0.3968  0.1128 -0.4037
 7084SOL     OW26571   4.797   7.086   8.718 -0.6626  0.1048 -0.1760
 7084SOL    HW126572   4.798   7.131   8.802 -0.3337  0.1505 -0.2067
 7084SOL    HW226573   4.732   7.134   8.666 -2.4548 -1.1672  0.7394
 7085SOL     OW26574  11.602   6.560   3.846 -0.1990  0.0714 -1.3238
 7085SOL    HW126575  11.562   6.635   3.802 -1.2106 -0.8563 -2.0342
 7085SOL    HW226576  11.544   6.542   3.920  0.5151  0.5069 -0.6425
 7086SOL     OW26577   3.916   6.477   9.771 -0.5866 -0.2563 -0.1056
 7086SOL    HW126578   3.915   6.572   9.778 -0.5149 -0.0023 -2.7518
 7086SOL    HW226579   3.836   6.454   9.724 -1.4035 -1.7110  1.8299
 7087SOL     OW26580   5.404   0.794   6.168  0.1769 -0.3687 -0.1144
 7087SOL    HW126581   5.396   0.736   6.092  1.1823 -1.8754  0.8804
 7087SOL    HW226582   5.497   0.817   6.171 -0.2515  1.6915 -0.7159
 7088SOL     OW26583   1.736   7.104   1.627  0.5918 -1.0324 -0.5134
 7088SOL    HW126584   1.800   7.106   1.556  1.0733 -0.5167 -0.0703
 7088SOL    HW226585   1.788   7.110   1.707 -0.0938  1.6839 -0.1775
 7089SOL     OW26586  11.500   4.946   1.184 -0.1236  0.1282  0.5409
 7089SOL    HW126587  11.492   4.858   1.149  1.4147  0.8563 -1.8623
 7089SOL    HW226588  11.581   4.943   1.235 -0.6205 -0.0778  1.3405
 7090SOL     OW26589   4.423   8.302   0.914 -0.4626  0.2874  0.3218
 7090SOL    HW126590   4.518   8.302   0.903 -0.7374  0.4030 -2.9897
 7090SOL    HW226591   4.394   8.219   0.875 -1.8563  1.3992 -1.1520
 7091SOL     OW26592   7.461   4.314   4.255  0.2185 -0.0239  0.1059
 7091SOL    HW126593   7.517   4.349   4.186  0.0944  2.1399  1.0202
 7091SOL    HW226594   7.519   4.309   4.332  0.1230 -1.5111  0.0971
 7092SOL     OW26595   8.406   7.784   6.542  0.3979 -0.1947  0.3558
 7092SOL    HW126596   8.490   7.825   6.522  0.9448 -2.0489 -1.4614
 7092SOL    HW226597   8.426   7.719   6.609  1.1132 -2.6178 -2.0186
 7093SOL     OW26598   4.707   6.871   1.309 -0.3019 -0.2305  0.0363
 7093SOL    HW126599   4.693   6.842   1.219 -0.5427  2.2296 -0.7857
 7093SOL    HW226600   4.626   6.916   1.332 -0.1334 -0.5882  1.4164
 7094SOL     OW26601   8.807   9.551  10.708 -0.6367  0.0573  0.5782
 7094SOL    HW126602   8.849   9.488  10.766 -0.5717  1.0933  1.6950
 7094SOL    HW226603   8.717   9.519  10.699  0.0509 -1.6019 -0.9954
 7095SOL     OW26604   1.258   3.570   6.124 -0.0061 -0.6072 -0.2185
 7095SOL    HW126605   1.236   3.582   6.216 -0.1144 -0.6323 -0.2405
 7095SOL    HW226606   1.343   3.614   6.113  0.1361 -0.8372 -0.0480
 7096SOL     OW26607   3.878   5.020  10.083 -0.1343  0.0053 -0.2982
 7096SOL    HW126608   3.943   5.058  10.024  1.4086 -0.5058  0.9983
 7096SOL    HW226609   3.794   5.053  10.051  0.9080  2.4849 -0.7246
 7097SOL     OW26610   9.876   9.025   0.003 -0.2100 -0.3447  0.9614
 7097SOL    HW126611   9.877   9.041  -0.092  1.3983 -1.1662  0.7927
 7097SOL    HW226612   9.785   9.035   0.028 -0.5733  0.5658 -0.5593
 7098SOL     OW26613   4.638  10.327   2.605  0.0896  0.6183  0.0800
 7098SOL    HW126614   4.727  10.297   2.591 -0.0129  0.4684 -0.2823
 7098SOL    HW226615   4.612  10.365   2.521 -0.4027  0.0955 -0.0150
 7099SOL     OW26616   7.587   1.789   9.871  0.3553  0.0425  0.3291
 7099SOL    HW126617   7.498   1.793   9.837 -0.7956 -2.3973  2.6447
 7099SOL    HW226618   7.640   1.759   9.797 -0.8799  0.6731 -0.8447
 7100SOL     OW26619   7.718   1.315   8.179  0.2103  0.1630  0.6492
 7100SOL    HW126620   7.747   1.259   8.251  0.6704 -0.9831 -0.4019
 7100SOL    HW226621   7.786   1.305   8.112 -0.8729  0.1470 -0.4875
 7101SOL     OW26622   3.334   0.666   9.590  0.2011  0.0136 -0.0540
 7101SOL    HW126623   3.392   0.627   9.525 -1.4293 -0.9862 -0.9997
 7101SOL    HW226624   3.361   0.758   9.595  1.1563 -0.1844 -1.2405
 7102SOL     OW26625   3.320   4.830  11.269 -0.1279  0.3118  0.1092
 7102SOL    HW126626   3.315   4.925  11.264 -0.2748  0.4405  1.8162
 7102SOL    HW226627   3.263   4.808  11.343  0.8794 -0.9886  0.5256
 7103SOL     OW26628   9.274   9.722   0.599  0.2680  0.1720 -0.5789
 7103SOL    HW126629   9.289   9.656   0.531  1.3346 -0.7309  0.4629
 7103SOL    HW226630   9.349   9.781   0.591  1.7283 -1.2981  1.2555
 7104SOL     OW26631   5.945  11.311   9.331 -0.2462  0.5977 -0.0674
 7104SOL    HW126632   5.977  11.343   9.415  1.2017 -3.3027  1.0885
 7104SOL    HW226633   5.853  11.337   9.328 -0.4637  0.5149  2.9727
 7105SOL     OW26634   0.858   2.734   1.792 -0.4413  0.3959  0.2242
 7105SOL    HW126635   0.837   2.814   1.842 -0.9080 -0.2948  1.1791
 7105SOL    HW226636   0.943   2.751   1.753 -0.0935  1.0009  1.2140
 7106SOL     OW26637  10.203   2.372   6.739 -0.7877 -0.0095  0.0007
 7106SOL    HW126638  10.109   2.374   6.758 -0.7902  0.7201 -0.0490
 7106SOL    HW226639  10.224   2.462   6.713  0.0317 -0.0402  0.5166
 7107SOL     OW26640   4.367   5.403   2.852 -0.3666 -0.0050 -0.0209
 7107SOL    HW126641   4.319   5.462   2.794  1.3716 -0.6855 -2.3070
 7107SOL    HW226642   4.459   5.423   2.835  0.2458 -0.3694  2.4450
 7108SOL     OW26643   3.843   7.141   5.725  0.5538 -0.2836  0.4655
 7108SOL    HW126644   3.933   7.139   5.758  1.0309 -0.3088 -0.8047
 7108SOL    HW226645   3.809   7.226   5.754  2.0572  1.1619 -1.7439
 7109SOL     OW26646  10.654   2.109   4.108  0.0891 -0.5502  0.0044
 7109SOL    HW126647  10.715   2.165   4.059  0.4707 -0.5897  0.4183
 7109SOL    HW226648  10.594   2.074   4.043  0.3337 -0.2740 -0.3701
 7110SOL     OW26649   7.804   6.140   0.027  0.0802 -0.0403 -0.3498
 7110SOL    HW126650   7.768   6.164  -0.058 -0.6391  1.2085  0.2751
 7110SOL    HW226651   7.899   6.136   0.013  0.0817  1.4385 -0.9260
 7111SOL     OW26652   2.057   1.690   3.643 -0.8057  0.0554 -0.0830
 7111SOL    HW126653   2.015   1.680   3.558 -1.2257 -1.1087  0.2487
 7111SOL    HW226654   2.030   1.613   3.694  0.2855  0.1754  0.7420
 7112SOL     OW26655   3.828   6.390   5.457 -0.0507 -0.1088 -0.1803
 7112SOL    HW126656   3.835   6.430   5.543 -0.1342 -1.5697  0.5251
 7112SOL    HW226657   3.872   6.452   5.398  2.1110 -0.2019  1.2577
 7113SOL     OW26658   8.289  11.014   2.560  0.0970 -0.8183 -0.2688
 7113SOL    HW126659   8.363  11.054   2.515  0.4037 -0.7020  0.3240
 7113SOL    HW226660   8.212  11.053   2.520  0.3836  1.4572  1.2028
 7114SOL     OW26661  11.771   8.350   6.605 -0.8368  0.0471 -0.5776
 7114SOL    HW126662  11.822   8.274   6.635 -1.3175 -0.3780 -0.8179
 7114SOL    HW226663  11.751   8.331   6.514 -0.8710  0.5194 -0.6694
 7115SOL     OW26664   8.563   2.970  10.368  0.0896 -0.3626  0.7402
 7115SOL    HW126665   8.513   2.998  10.291 -0.0854  0.0457  0.9968
 7115SOL    HW226666   8.590   2.881  10.348 -1.2791 -0.8256  0.8568
 7116SOL     OW26667   2.169  10.429   6.814  0.1453  0.3411 -0.2198
 7116SOL    HW126668   2.261  10.405   6.810 -0.2712 -1.3649 -0.4412
 7116SOL    HW226669   2.124  10.349   6.842 -1.5988  0.1478 -3.1364
 7117SOL     OW26670   5.393   7.898   5.353  0.7294  0.0006 -0.1516
 7117SOL    HW126671   5.350   7.911   5.268 -0.5185  1.3559  0.6450
 7117SOL    HW226672   5.381   7.981   5.399  0.0872 -1.1635  1.9141
 7118SOL     OW26673   3.274   1.522   4.834 -0.2935  0.3880  0.4718
 7118SOL    HW126674   3.228   1.469   4.768 -1.0084 -1.3350  2.2718
 7118SOL    HW226675   3.360   1.539   4.795 -0.7258 -0.4741 -0.9379
 7119SOL     OW26676   0.950   4.438   0.114 -0.0460  0.0968  0.3326
 7119SOL    HW126677   1.002   4.368   0.074  0.4005  0.1619  0.7841
 7119SOL    HW226678   0.944   4.505   0.047  1.4942  0.6125  0.6745
 7120SOL     OW26679   3.179   7.617   5.954 -0.0349  0.4092  0.3378
 7120SOL    HW126680   3.177   7.621   5.859 -2.3114 -0.0966  0.2947
 7120SOL    HW226681   3.140   7.699   5.983 -0.8688 -0.1119  0.7541
 7121SOL     OW26682   9.543   6.182   1.764 -0.5043  0.3694  0.1583
 7121SOL    HW126683   9.471   6.145   1.712 -0.5898  0.7118  0.0347
 7121SOL    HW226684   9.609   6.208   1.699 -0.6780  0.9433  0.2090
 7122SOL     OW26685   9.449  10.286   8.051 -0.0788 -0.7137  0.0801
 7122SOL    HW126686   9.504  10.329   8.116  0.2632 -1.0568  0.0197
 7122SOL    HW226687   9.363  10.326   8.063  0.3769  0.4530 -0.4205
 7123SOL     OW26688   3.145  10.877   8.803 -0.0344 -0.0050 -0.4410
 7123SOL    HW126689   3.094  10.796   8.807  0.0705 -0.0256  1.6065
 7123SOL    HW226690   3.088  10.944   8.841  1.0413  0.1775  0.9514
 7124SOL     OW26691  11.140   2.628   2.325 -0.1224 -0.0389 -0.2616
 7124SOL    HW126692  11.227   2.666   2.321 -0.2773  0.5762  1.3390
 7124SOL    HW226693  11.152   2.537   2.302  1.1382 -0.2065  0.9392
 7125SOL     OW26694   5.026   5.242   2.895  0.4640  0.2563 -0.2211
 7125SOL    HW126695   5.113   5.210   2.870 -1.0114 -1.8514 -3.4547
 7125SOL    HW226696   5.001   5.300   2.823 -0.7756  0.9751  0.7491
 7126SOL     OW26697   5.970   1.347   0.080  0.1246  0.3442  0.3335
 7126SOL    HW126698   5.988   1.314   0.168 -2.4249 -1.8375  0.1794
 7126SOL    HW226699   6.055   1.353   0.038  1.1667 -1.4297  2.0404
 7127SOL     OW26700  10.535   6.345   4.729 -0.2202 -0.3143  0.2540
 7127SOL    HW126701  10.462   6.302   4.684 -0.6510  0.1276  0.5226
 7127SOL    HW226702  10.613   6.301   4.695 -0.4700  0.5704 -1.5851
 7128SOL     OW26703   7.158   7.542   7.069  0.1498 -0.0057 -0.6892
 7128SOL    HW126704   7.245   7.543   7.030 -0.2089  0.3854 -1.4899
 7128SOL    HW226705   7.169   7.493   7.150  0.9116 -0.7973 -1.2579
 7129SOL     OW26706   3.429   1.639  11.111  0.7532 -0.0911 -0.6444
 7129SOL    HW126707   3.337   1.615  11.095  0.8275 -0.0398 -1.1402
 7129SOL    HW226708   3.448   1.603  11.198  0.1470  0.2276 -0.3707
 7130SOL     OW26709   6.244   6.170   8.269  0.3819 -0.1347  0.4435
 7130SOL    HW126710   6.229   6.227   8.194 -0.0565  1.4765  1.7110
 7130SOL    HW226711   6.338   6.157   8.271  0.3258 -1.0107 -0.9282
 7131SOL     OW26712   3.955  11.501   3.823 -0.4428 -0.3097  0.4485
 7131SOL    HW126713   3.956  11.566   3.754 -0.7955 -0.6108  0.1577
 7131SOL    HW226714   4.044  11.465   3.824 -0.8191 -1.3639 -0.8714
 7132SOL     OW26715   3.813   6.633  11.082  0.3165  0.2298 -0.0650
 7132SOL    HW126716   3.784   6.720  11.053 -0.4832 -0.5650 -1.8622
 7132SOL    HW226717   3.731   6.585  11.097  0.7494 -0.1205  1.2768
 7133SOL     OW26718   0.154   8.003  10.862 -0.5888 -0.3755 -0.3376
 7133SOL    HW126719   0.181   7.948  10.935 -1.8059  1.3332  1.5292
 7133SOL    HW226720   0.206   8.083  10.872 -0.0733 -0.4802 -1.9576
 7134SOL     OW26721  10.122   3.471   5.112 -0.1811  0.0658 -0.1592
 7134SOL    HW126722  10.097   3.521   5.035 -0.6095  3.3635  1.9520
 7134SOL    HW226723  10.042   3.463   5.163  0.0971 -2.0162  0.0520
 7135SOL     OW26724  10.454   9.400   0.444 -0.0416 -0.1620 -0.0620
 7135SOL    HW126725  10.436   9.344   0.519  0.8833 -1.2450 -0.6120
 7135SOL    HW226726  10.505   9.345   0.385  0.7401  1.2075 -0.7147
 7136SOL     OW26727  11.246   0.888   2.843  0.8470  0.3830 -0.1674
 7136SOL    HW126728  11.192   0.942   2.787 -1.1085 -1.8005 -0.5527
 7136SOL    HW226729  11.238   0.799   2.806  2.0607 -0.5869  1.7154
 7137SOL     OW26730   9.148   7.246   7.604  0.2141 -0.3108  1.1105
 7137SOL    HW126731   9.242   7.226   7.610  0.0413 -0.8184  2.4631
 7137SOL    HW226732   9.142   7.314   7.536  1.8078  1.2262  2.4248
 7138SOL     OW26733   8.737   2.048   7.687 -0.3820 -0.5816  0.4325
 7138SOL    HW126734   8.798   2.120   7.704  1.3645 -1.6083 -1.0995
 7138SOL    HW226735   8.787   1.969   7.707 -1.4969 -1.4398 -0.0936
 7139SOL     OW26736   5.268   8.032   0.621 -0.0168 -0.5623  0.7157
 7139SOL    HW126737   5.230   8.059   0.537  0.3872 -2.0540  0.0193
 7139SOL    HW226738   5.318   8.108   0.650  0.0403 -0.1073 -0.5217
 7140SOL     OW26739   4.484   0.218   3.264  0.1261 -0.1954 -0.1517
 7140SOL    HW126740   4.440   0.258   3.340 -0.5772 -1.2285  0.0052
 7140SOL    HW226741   4.577   0.225   3.284  0.1275  2.4094 -0.6644
 7141SOL     OW26742   0.089   2.037   4.509 -0.6191  0.3001  0.3401
 7141SOL    HW126743   0.177   2.041   4.473  1.2842 -1.2528  4.2521
 7141SOL    HW226744   0.055   1.953   4.478 -0.0187  0.0924  0.2235
 7142SOL     OW26745   2.661   6.124   4.746  0.8313  0.8602 -0.0750
 7142SOL    HW126746   2.740   6.082   4.715 -0.3305 -2.8919  1.4962
 7142SOL    HW226747   2.591   6.062   4.727 -1.4051  2.9397  0.7658
 7143SOL     OW26748   6.596   4.665   1.203  0.5112 -0.1341  0.1939
 7143SOL    HW126749   6.654   4.678   1.128 -0.6385 -1.9731 -1.0908
 7143SOL    HW226750   6.637   4.596   1.254 -0.3550 -1.3196 -0.6292
 7144SOL     OW26751   6.006   9.680   3.772 -0.5650 -0.0813  0.1548
 7144SOL    HW126752   5.916   9.712   3.779 -0.5638 -0.0535  0.0489
 7144SOL    HW226753   6.048   9.741   3.711 -1.4112 -2.0820 -2.6860
 7145SOL     OW26754  10.828   1.910   1.540  0.0776 -0.0084  0.3341
 7145SOL    HW126755  10.821   1.986   1.482  1.5338  1.2317  1.6663
 7145SOL    HW226756  10.862   1.840   1.485 -0.5059  0.5291 -0.7432
 7146SOL     OW26757  10.752  11.028   4.974  0.1790  0.0738  0.0832
 7146SOL    HW126758  10.787  10.948   4.935  0.9400  1.3345 -1.9826
 7146SOL    HW226759  10.708  11.073   4.902  0.0540  1.6951  1.1031
 7147SOL     OW26760   1.568   4.440   3.117  0.2174  0.3848  0.3446
 7147SOL    HW126761   1.569   4.354   3.160 -1.4594  1.2970  2.3717
 7147SOL    HW226762   1.509   4.428   3.043  1.2119 -0.5626 -0.3450
 7148SOL     OW26763   5.095   5.584  11.700 -0.0618 -0.0777 -0.3288
 7148SOL    HW126764   5.056   5.555  11.617 -0.2640 -0.1235 -0.2181
 7148SOL    HW226765   5.120   5.504  11.745  0.2580 -0.0437 -0.4473
 7149SOL     OW26766   5.652  10.596   2.333 -0.3449  0.2899 -0.2228
 7149SOL    HW126767   5.624  10.517   2.285  0.3467 -0.8661  1.1991
 7149SOL    HW226768   5.640  10.574   2.425  2.2104  0.8872  0.3285
 7150SOL     OW26769   9.293  10.132   4.521  0.2429  0.1357  0.2742
 7150SOL    HW126770   9.357  10.061   4.521  1.4248  1.1515  1.0864
 7150SOL    HW226771   9.208  10.088   4.522  0.9345 -1.2537 -0.0027
 7151SOL     OW26772   8.020  11.540   6.653 -0.2172  0.5005 -0.2079
 7151SOL    HW126773   8.056  11.591   6.725  0.8383 -0.0499 -0.3257
 7151SOL    HW226774   8.095  11.494   6.617 -0.8795  0.1133 -1.1245
 7152SOL     OW26775   6.598   7.532   4.642 -0.5644 -1.1180 -0.1525
 7152SOL    HW126776   6.589   7.577   4.726  0.6981 -0.5440 -0.2990
 7152SOL    HW226777   6.664   7.582   4.594  1.0166 -3.1360 -0.2663
 7153SOL     OW26778  10.762   3.349   8.668  0.6566  0.8240 -0.4086
 7153SOL    HW126779  10.669   3.365   8.685  1.2470  1.3590  3.1286
 7153SOL    HW226780  10.764   3.310   8.581 -2.8945  0.6440 -0.5596
 7154SOL     OW26781   6.890   4.053   9.091 -0.5876  0.3800 -0.0432
 7154SOL    HW126782   6.951   3.999   9.142 -1.0107  0.8200  0.9597
 7154SOL    HW226783   6.946   4.105   9.034  0.0235  1.0807  1.1565
 7155SOL     OW26784   4.785   1.771  10.915  0.4296  0.1078  0.2394
 7155SOL    HW126785   4.854   1.837  10.909  0.4670  0.2398  1.6438
 7155SOL    HW226786   4.831   1.688  10.916  0.7408  0.2281  2.3937
 7156SOL     OW26787  10.543   0.299   2.639 -0.1406 -0.8374  0.0982
 7156SOL    HW126788  10.502   0.380   2.608  1.8670  0.0551 -0.3926
 7156SOL    HW226789  10.510   0.287   2.728 -1.1692  0.0144 -0.1545
 7157SOL     OW26790   9.678   7.344   4.725  0.1008 -0.0831  0.2628
 7157SOL    HW126791   9.743   7.332   4.656 -1.5124 -1.9016 -1.0360
 7157SOL    HW226792   9.680   7.263   4.775 -0.8325  0.0167  0.4904
 7158SOL     OW26793   6.602   6.878   9.185 -0.6352 -0.3295 -0.3278
 7158SOL    HW126794   6.519   6.926   9.190 -0.9573 -0.8634 -0.4382
 7158SOL    HW226795   6.582   6.801   9.132  0.3378  0.3757 -1.8010
 7159SOL     OW26796   6.403   8.070   8.395 -0.5002 -0.0820  0.2773
 7159SOL    HW126797   6.358   8.020   8.462 -1.1362  0.7903  0.5098
 7159SOL    HW226798   6.483   8.100   8.437  0.0456 -1.1342  0.0424
 7160SOL     OW26799   0.348   9.629  10.435  0.2716 -0.6147  0.1705
 7160SOL    HW126800   0.341   9.563  10.366 -2.6968  0.3189 -0.5498
 7160SOL    HW226801   0.373   9.710  10.390 -1.3155 -0.0817  0.2120
 7161SOL     OW26802   0.536   6.871   0.503  0.2129  0.1490 -0.0370
 7161SOL    HW126803   0.453   6.882   0.457 -0.8327 -1.7108  1.2647
 7161SOL    HW226804   0.577   6.796   0.459 -1.2155 -2.2579  2.4146
 7162SOL     OW26805   9.572   9.293  10.311 -0.3513 -0.6156 -0.2891
 7162SOL    HW126806   9.599   9.337  10.230 -0.6558 -0.4615 -0.3080
 7162SOL    HW226807   9.604   9.204  10.301  0.2245 -0.4151 -0.2775
 7163SOL     OW26808   4.487   5.798  11.709  0.5681 -0.7696 -0.5250
 7163SOL    HW126809   4.497   5.722  11.652 -1.4315 -2.2086  0.8693
 7163SOL    HW226810   4.464   5.760  11.794  3.5558  1.2549  1.3611
 7164SOL     OW26811  10.740   1.714   6.843 -0.5193  0.2109  0.2740
 7164SOL    HW126812  10.697   1.790   6.806 -1.1483 -0.0722  0.4202
 7164SOL    HW226813  10.737   1.728   6.938  0.1963  0.4500  0.2693
 7165SOL     OW26814   4.416  11.268   3.906 -0.3069  0.4564  0.5428
 7165SOL    HW126815   4.487  11.266   3.842 -2.2865 -0.8765 -1.7756
 7165SOL    HW226816   4.458  11.298   3.987  2.8439 -0.1764 -0.6993
 7166SOL     OW26817   2.342   1.965   8.093  0.5561  0.1274 -0.4822
 7166SOL    HW126818   2.378   1.889   8.139 -0.0244  0.7273  1.0518
 7166SOL    HW226819   2.404   2.035   8.112 -0.4417  0.7367  0.6802
 7167SOL     OW26820   9.780   2.681   7.168  0.4981 -0.1560  0.0649
 7167SOL    HW126821   9.810   2.638   7.088  1.6665  2.3233 -0.8989
 7167SOL    HW226822   9.858   2.720   7.206 -0.5987  1.6756  0.5421
 7168SOL     OW26823   2.653   6.163   2.567 -0.3531 -0.3063  0.5211
 7168SOL    HW126824   2.675   6.070   2.555 -1.7164 -0.5828 -0.0826
 7168SOL    HW226825   2.736   6.206   2.585  0.6428 -1.2651 -1.5706
 7169SOL     OW26826   8.046   7.182   7.316  0.3320  0.2900 -0.3308
 7169SOL    HW126827   8.056   7.166   7.410 -0.9556 -0.6353 -0.3322
 7169SOL    HW226828   8.070   7.274   7.305  1.8428  0.0642  0.6716
 7170SOL     OW26829   1.191   9.628  11.636 -0.3188  0.0566 -0.2544
 7170SOL    HW126830   1.139   9.552  11.609  0.2184 -1.0803  1.7336
 7170SOL    HW226831   1.280   9.607  11.608  0.0296 -0.6019  1.2380
 7171SOL     OW26832   8.348   6.476   9.684 -0.1799  0.0642  0.0311
 7171SOL    HW126833   8.425   6.461   9.739 -0.6477 -1.4240  0.3449
 7171SOL    HW226834   8.280   6.421   9.724 -1.5119  1.6020 -0.0349
 7172SOL     OW26835   8.275   4.731   4.419  0.1162  0.0566 -0.4096
 7172SOL    HW126836   8.329   4.755   4.494 -2.0130  0.9744  0.9163
 7172SOL    HW226837   8.257   4.814   4.375  0.3745 -0.3358 -1.2825
 7173SOL     OW26838   8.184   3.207   7.238  0.3165 -0.0930 -0.1060
 7173SOL    HW126839   8.122   3.141   7.206  1.3300 -0.9953 -0.2694
 7173SOL    HW226840   8.184   3.275   7.171 -1.4759  0.5887  0.5270
 7174SOL     OW26841   2.563   9.838   8.899 -0.3916  0.3251  0.3965
 7174SOL    HW126842   2.514   9.899   8.844  0.8053  2.0286  1.0967
 7174SOL    HW226843   2.558   9.876   8.987  0.5057 -0.5271  0.8394
 7175SOL     OW26844   5.005   1.254   2.134 -0.3367  0.1184 -0.2163
 7175SOL    HW126845   5.032   1.198   2.207  0.7718 -0.6553 -1.1742
 7175SOL    HW226846   4.922   1.216   2.105  0.5741 -1.3084 -1.0782
 7176SOL     OW26847  10.186   7.741   9.584 -0.4753  0.2675 -0.5371
 7176SOL    HW126848  10.110   7.784   9.545  0.5537  1.1015 -1.6916
 7176SOL    HW226849  10.258   7.804   9.575  0.1928 -0.1489  1.3095
 7177SOL     OW26850   7.268   2.930   8.654 -0.1039  0.0195  0.7940
 7177SOL    HW126851   7.291   2.901   8.742 -0.2895 -1.9067  0.2415
 7177SOL    HW226852   7.235   2.852   8.611 -1.3267  1.2265 -0.5718
 7178SOL     OW26853   8.652   2.670   6.010  1.1342  0.2154  0.2998
 7178SOL    HW126854   8.600   2.750   6.011  1.4608  0.4349  0.0450
 7178SOL    HW226855   8.725   2.688   6.069  0.8157 -0.1711  0.8280
 7179SOL     OW26856   4.303   7.689   8.515 -0.1308 -0.1038 -0.3300
 7179SOL    HW126857   4.222   7.737   8.497 -0.3872  0.2023  1.4775
 7179SOL    HW226858   4.274   7.612   8.564  0.4369 -1.3430 -1.8553
 7180SOL     OW26859   9.039  10.937   0.982 -0.1145  0.2851 -0.6042
 7180SOL    HW126860   9.075  10.849   0.973 -1.5491 -0.6707  1.8938
 7180SOL    HW226861   9.097  10.979   1.047 -1.4521 -0.1380  0.9352
 7181SOL     OW26862  10.357  10.350   2.510  0.6389 -0.6384 -0.3937
 7181SOL    HW126863  10.263  10.365   2.500  0.2088 -2.9660 -0.4049
 7181SOL    HW226864  10.373  10.357   2.605  0.5065 -0.0421 -0.4129
 7182SOL     OW26865   3.375  11.179   1.173  0.5126  0.8748 -0.0906
 7182SOL    HW126866   3.360  11.161   1.266  0.7059  1.0392 -0.0270
 7182SOL    HW226867   3.469  11.171   1.162  0.3540 -0.7118 -0.6090
 7183SOL     OW26868   1.741   7.462   1.977  0.7274  0.3166 -0.4696
 7183SOL    HW126869   1.793   7.479   1.898 -0.1923  1.1213 -0.9173
 7183SOL    HW226870   1.714   7.549   2.008  0.1335 -0.0540  0.0914
 7184SOL     OW26871   1.883   6.338   7.122  0.2401  0.6430 -0.4169
 7184SOL    HW126872   1.967   6.362   7.161  0.5275 -0.6868 -0.1720
 7184SOL    HW226873   1.843   6.280   7.186  0.1485 -0.5473 -1.5227
 7185SOL     OW26874   3.750   9.330   0.140 -0.0899 -0.1075  0.0102
 7185SOL    HW126875   3.773   9.250   0.093  0.1769 -0.2355  0.3493
 7185SOL    HW226876   3.812   9.395   0.109 -0.5568  0.0730 -0.5554
 7186SOL     OW26877   6.346   0.991   9.599 -0.3813  0.4022  0.1337
 7186SOL    HW126878   6.338   1.062   9.535 -0.2245 -1.2823 -1.8171
 7186SOL    HW226879   6.261   0.989   9.642 -0.2508  2.0315  0.5559
 7187SOL     OW26880   4.218   6.131   6.802 -0.6669  0.4993  0.2639
 7187SOL    HW126881   4.171   6.092   6.876 -0.4914  3.2461  1.9501
 7187SOL    HW226882   4.149   6.168   6.747 -0.9554 -3.1845 -2.1539
 7188SOL     OW26883   8.186   4.177   9.759  0.5909  0.1669  0.3218
 7188SOL    HW126884   8.169   4.119   9.684 -2.7249  0.0013  1.0535
 7188SOL    HW226885   8.175   4.120   9.835 -0.9022  1.3422  1.0124
 7189SOL     OW26886   7.523   0.452   8.626 -0.1919 -0.1230 -0.0101
 7189SOL    HW126887   7.595   0.494   8.579 -1.9084  1.8813 -1.0072
 7189SOL    HW226888   7.469   0.412   8.557 -0.7144 -0.5091  0.6065
 7190SOL     OW26889  11.742  11.065   0.159 -0.6837  0.5233 -0.1272
 7190SOL    HW126890  11.812  11.117   0.120  0.2032 -0.4835  0.0882
 7190SOL    HW226891  11.697  11.026   0.083 -1.2826  1.4935 -0.2832
 7191SOL     OW26892  11.805   7.993   0.417  0.0188  0.5257 -0.0842
 7191SOL    HW126893  11.820   7.908   0.459 -1.3710  0.8627  1.1664
 7191SOL    HW226894  11.710   8.006   0.421 -0.1254  0.9576 -2.6785
 7192SOL     OW26895   8.658   9.195   7.983 -0.3995  0.2836 -0.1000
 7192SOL    HW126896   8.656   9.272   8.040 -0.3533 -0.7779  1.4051
 7192SOL    HW226897   8.655   9.120   8.043  1.5186 -0.9336 -1.3831
 7193SOL     OW26898  10.242   8.370   3.246 -0.5071 -0.6568  0.0880
 7193SOL    HW126899  10.180   8.312   3.203 -1.6037  0.0034  0.7218
 7193SOL    HW226900  10.240   8.450   3.195  0.3060 -0.8376 -0.2454
 7194SOL     OW26901  10.245  10.356  11.278  0.5372 -0.8774 -0.1528
 7194SOL    HW126902  10.255  10.279  11.335 -0.8747 -0.6944  0.3694
 7194SOL    HW226903  10.212  10.424  11.336  0.4794 -0.2558 -0.9051
 7195SOL     OW26904   6.086   0.707   8.137 -0.2094 -0.4922 -0.0608
 7195SOL    HW126905   6.047   0.705   8.225  0.2436  1.6580  0.2327
 7195SOL    HW226906   6.174   0.743   8.150 -0.0631 -0.3369 -1.3599
 7196SOL     OW26907   3.526  10.542  10.489 -0.9350 -0.0534  0.2894
 7196SOL    HW126908   3.461  10.565  10.423  0.5544 -1.0563 -1.6145
 7196SOL    HW226909   3.539  10.623  10.539 -0.5245  1.4238 -2.0639
 7197SOL     OW26910   8.562   9.792   8.708  0.3375 -0.3607  0.3822
 7197SOL    HW126911   8.527   9.823   8.624  1.1466  1.9358  0.8050
 7197SOL    HW226912   8.625   9.724   8.685 -2.3331 -2.7164 -0.5397
 7198SOL     OW26913   4.291  10.897   0.489 -0.2774 -0.3801  0.8394
 7198SOL    HW126914   4.240  10.977   0.480  0.2788 -0.1609 -0.6679
 7198SOL    HW226915   4.329  10.902   0.577 -0.6376  0.7805  0.9366
 7199SOL     OW26916   5.792   6.980   2.581 -0.0006 -0.9448 -0.2465
 7199SOL    HW126917   5.849   7.057   2.578 -0.8517 -0.2188  1.0445
 7199SOL    HW226918   5.823   6.924   2.510  0.9651  0.3606 -0.8961
 7200SOL     OW26919   0.844  10.806   8.325 -0.5839  0.3949 -0.4112
 7200SOL    HW126920   0.755  10.839   8.311  0.0132  2.0342 -0.5321
 7200SOL    HW226921   0.863  10.826   8.417 -0.3051  0.1434 -0.4127
 7201SOL     OW26922   7.648   3.788   6.469 -0.3569  0.0047  0.1093
 7201SOL    HW126923   7.616   3.802   6.380  1.0712  0.4396 -0.3667
 7201SOL    HW226924   7.674   3.696   6.471 -0.7545 -0.1073  0.2072
 7202SOL     OW26925   2.134   5.934   4.078  0.2446 -0.1787 -0.6437
 7202SOL    HW126926   2.180   5.851   4.070  0.5234 -0.1464  0.4650
 7202SOL    HW226927   2.193   5.998   4.038 -0.0954 -0.5383 -1.7546
 7203SOL     OW26928   8.289  10.897   5.799 -0.7014  0.3432 -0.1788
 7203SOL    HW126929   8.322  10.809   5.817  0.0670  0.8564  1.0419
 7203SOL    HW226930   8.344  10.954   5.852 -0.5645  1.6591 -1.6703
 7204SOL     OW26931   1.934   3.776  11.435 -0.1065  0.4956  0.4973
 7204SOL    HW126932   1.989   3.811  11.506 -0.5644 -1.4160  1.8839
 7204SOL    HW226933   1.856   3.743  11.480 -0.8229  0.0315 -1.0350
 7205SOL     OW26934  11.696   1.715  11.675  0.2211  0.0291  0.1044
 7205SOL    HW126935  11.774   1.751  11.633 -0.0972 -0.1384 -0.6500
 7205SOL    HW226936  11.659   1.787  11.725 -0.0894  0.5897 -0.9192
 7206SOL     OW26937   7.507   0.848   6.407  0.0478 -0.0514  0.2855
 7206SOL    HW126938   7.500   0.756   6.381  2.4141 -0.1460 -0.3086
 7206SOL    HW226939   7.537   0.893   6.328  0.2056  0.9935  0.9244
 7207SOL     OW26940   0.131   0.716   1.845  0.4784 -0.4278  0.2159
 7207SOL    HW126941   0.195   0.668   1.897 -0.2198 -0.9930  0.5650
 7207SOL    HW226942   0.113   0.660   1.770  0.2841 -0.3367  0.1926
 7208SOL     OW26943   7.049   2.957   1.463  0.2031 -0.0166  0.1077
 7208SOL    HW126944   7.075   3.023   1.399  0.5065  1.8007  2.0186
 7208SOL    HW226945   6.954   2.950   1.454  0.3191 -0.4135 -1.0600
 7209SOL     OW26946   2.502   5.926   4.655  0.0862  0.2580 -0.1196
 7209SOL    HW126947   2.442   5.851   4.654  1.6887 -1.1276  1.0307
 7209SOL    HW226948   2.518   5.945   4.563  0.1385 -1.2516 -0.4585
 7210SOL     OW26949   7.357   7.118   6.793  0.3904 -0.4933  0.5429
 7210SOL    HW126950   7.334   7.212   6.795 -0.1641 -0.6263  0.7176
 7210SOL    HW226951   7.305   7.083   6.720  0.8567 -0.6045  0.2598
 7211SOL     OW26952   4.327   1.868  10.754 -0.1559 -0.1622  0.1173
 7211SOL    HW126953   4.320   1.953  10.711 -0.4525  0.4902  1.4007
 7211SOL    HW226954   4.420   1.855  10.768 -0.0601 -0.3606 -0.6550
 7212SOL     OW26955  10.214   2.592   4.859  0.3085 -0.0509  0.5287
 7212SOL    HW126956  10.271   2.653   4.904  0.5161  0.5996 -0.5709
 7212SOL    HW226957  10.156   2.647   4.807  0.9386 -0.7654 -1.0058
 7213SOL     OW26958   6.702   1.414   3.619  0.1992  0.0367  0.5420
 7213SOL    HW126959   6.765   1.351   3.583  1.1553  1.7285 -0.9238
 7213SOL    HW226960   6.616   1.377   3.596  0.7303 -0.6852 -0.3620
 7214SOL     OW26961   5.324   1.312   7.126 -0.2747  0.0170 -0.6812
 7214SOL    HW126962   5.307   1.406   7.133 -1.1463 -0.2387  1.2551
 7214SOL    HW226963   5.419   1.306   7.124 -0.1673  0.8943  0.4686
 7215SOL     OW26964   4.153   4.534   6.779  0.1894 -0.3895  0.0188
 7215SOL    HW126965   4.083   4.491   6.730  1.0904 -0.4929 -1.2359
 7215SOL    HW226966   4.213   4.566   6.711  1.5001 -0.5696  1.0540
 7216SOL     OW26967  10.442   3.324   7.785  0.4030 -0.1209 -0.2850
 7216SOL    HW126968  10.375   3.304   7.850  1.4219 -2.1026  0.2369
 7216SOL    HW226969  10.440   3.419   7.777 -3.1334 -0.1276 -1.0548
 7217SOL     OW26970   8.421   5.049   8.192 -0.2845  0.0402  0.2051
 7217SOL    HW126971   8.460   4.967   8.220 -2.0558 -1.3352 -1.1126
 7217SOL    HW226972   8.460   5.067   8.106  0.3320  0.7818  0.6246
 7218SOL     OW26973   6.229  11.487  10.778  0.3595  0.0394 -0.0161
 7218SOL    HW126974   6.215  11.581  10.790  0.4670  0.8822 -4.6394
 7218SOL    HW226975   6.164  11.446  10.836 -1.7538  3.0211  0.0066
 7219SOL     OW26976   3.734   1.941   8.100  0.1632  0.2823 -0.1895
 7219SOL    HW126977   3.801   1.946   8.169 -0.3625  0.4768  0.3175
 7219SOL    HW226978   3.767   1.873   8.040  0.5140 -0.0615  0.3775
 7220SOL     OW26979   7.300  11.359   8.045  0.0089 -0.1617 -0.0250
 7220SOL    HW126980   7.221  11.369   8.099 -0.4251  0.7699 -0.7943
 7220SOL    HW226981   7.358  11.304   8.097 -0.6134  0.2596  1.1615
 7221SOL     OW26982   3.170   7.300   5.052 -0.5635  0.2694  0.1278
 7221SOL    HW126983   3.154   7.206   5.054  1.1169 -0.0594 -0.3342
 7221SOL    HW226984   3.098   7.336   5.001  0.3257 -1.1397 -2.2477
 7222SOL     OW26985   5.485   2.735   5.717 -0.1567 -0.3390 -0.4752
 7222SOL    HW126986   5.422   2.676   5.674 -0.5840  0.5798 -1.1433
 7222SOL    HW226987   5.571   2.702   5.690 -0.3952 -0.4761 -1.0771
 7223SOL     OW26988   3.244   8.496   0.039  0.3082  0.6015 -0.2145
 7223SOL    HW126989   3.268   8.515   0.130  1.8378 -0.0947 -0.4329
 7223SOL    HW226990   3.210   8.406   0.042 -0.2152  0.7970 -0.2445
 7224SOL     OW26991   3.035   5.914   6.162  0.2683 -0.6098  0.2024
 7224SOL    HW126992   3.045   5.903   6.257 -1.1454  1.2784  0.6307
 7224SOL    HW226993   3.124   5.902   6.128  0.7376 -1.7345  1.6984
 7225SOL     OW26994   9.750   5.629   9.425 -0.1136  0.0628 -0.0573
 7225SOL    HW126995   9.785   5.718   9.433 -0.3294  0.0558  1.2049
 7225SOL    HW226996   9.771   5.603   9.335  0.3493  1.2165 -0.3054
 7226SOL     OW26997  10.935   7.995   2.077 -0.2397  0.4547 -0.2149
 7226SOL    HW126998  10.840   7.996   2.067 -0.2952  2.1083  0.3360
 7226SOL    HW226999  10.968   8.005   1.988 -0.5443 -0.9905 -0.5179
 7227SOL     OW27000   8.506  10.346   3.974 -0.0981 -0.0723  0.2061
 7227SOL    HW127001   8.512  10.440   3.991  1.0534 -0.2150  0.6130
 7227SOL    HW227002   8.413  10.326   3.986 -0.3798  1.0282  0.0012
 7228SOL     OW27003   8.118   2.062   7.327 -0.3449 -0.1486 -0.1449
 7228SOL    HW127004   8.151   2.114   7.400 -0.6206 -1.1203  0.7013
 7228SOL    HW227005   8.121   2.121   7.252  0.4837  0.6978  0.5314
 7229SOL     OW27006   8.901   8.127   7.969 -0.5433  0.5897 -0.1846
 7229SOL    HW127007   8.994   8.107   7.956 -1.0876 -1.0716 -1.9646
 7229SOL    HW227008   8.876   8.178   7.892 -1.6461 -1.1753 -1.0703
 7230SOL     OW27009   1.000   6.370   7.327  0.2725  0.0246  0.0328
 7230SOL    HW127010   0.918   6.379   7.280  0.9061 -1.3297 -1.3980
 7230SOL    HW227011   0.974   6.349   7.417 -0.9457  0.1807 -0.2737
 7231SOL     OW27012   9.811   9.008   8.903 -0.2047 -0.1783 -0.0228
 7231SOL    HW127013   9.723   9.041   8.883 -1.2352 -2.9213 -0.5013
 7231SOL    HW227014   9.834   8.956   8.826  0.1965 -2.5576  1.6056
 7232SOL     OW27015   4.813   8.965   2.182 -0.5201 -0.0828  0.3213
 7232SOL    HW127016   4.904   8.952   2.156 -0.6837 -0.7820  0.0856
 7232SOL    HW227017   4.814   8.956   2.278 -0.0885  1.4816  0.4834
 7233SOL     OW27018   7.673  11.449   4.218  0.7504 -0.6532 -0.3365
 7233SOL    HW127019   7.630  11.430   4.135  0.6318  0.6865 -0.6062
 7233SOL    HW227020   7.679  11.544   4.220  3.4067 -0.7551 -0.1716
 7234SOL     OW27021   1.529  11.760   6.200 -0.4009  0.0788 -0.0999
 7234SOL    HW127022   1.570  11.722   6.122 -2.4676 -0.4455 -1.0037
 7234SOL    HW227023   1.473  11.691   6.235 -1.7457  1.2223  0.1291
 7235SOL     OW27024   3.888   6.821   8.736 -0.1625  0.6121 -0.6781
 7235SOL    HW127025   3.812   6.837   8.792  1.3787  0.9727  1.4470
 7235SOL    HW227026   3.919   6.909   8.714 -0.0850  0.4689 -1.1354
 7236SOL     OW27027   4.301   6.758   2.036 -0.0828 -0.0632 -0.2521
 7236SOL    HW127028   4.370   6.697   2.009 -0.9073 -0.8519 -0.6174
 7236SOL    HW227029   4.294   6.820   1.964  0.1607 -0.0521 -0.2669
 7237SOL     OW27030   1.595   7.802   0.366  0.3413 -0.3179 -0.0709
 7237SOL    HW127031   1.638   7.873   0.319 -2.3213  0.8364 -0.9749
 7237SOL    HW227032   1.510   7.793   0.323 -0.5350 -2.1405  1.8517
 7238SOL     OW27033   3.930   9.167   9.904 -0.8105  0.2398 -0.0965
 7238SOL    HW127034   3.957   9.179   9.995 -2.3434  1.0333  0.3003
 7238SOL    HW227035   3.843   9.206   9.900 -1.8975 -2.0948 -1.2795
 7239SOL     OW27036   1.325   6.061   0.265  0.2090 -0.0573  0.0071
 7239SOL    HW127037   1.302   6.138   0.317 -0.2624  1.7596 -2.6593
 7239SOL    HW227038   1.404   6.087   0.218  0.6956 -1.6596 -0.1224
 7240SOL     OW27039   9.230   0.822  10.848  0.1167 -0.0852  0.2887
 7240SOL    HW127040   9.157   0.850  10.793  0.4220  1.5313  0.6634
 7240SOL    HW227041   9.240   0.729  10.828 -0.3233  0.2538 -1.7531
 7241SOL     OW27042  10.782   5.543  11.631 -0.0851 -0.8824 -0.2027
 7241SOL    HW127043  10.781   5.497  11.547  1.8171 -1.9123  0.2873
 7241SOL    HW227044  10.830   5.624  11.614 -0.9368 -0.4141 -0.4141
 7242SOL     OW27045  10.181   3.478   2.356 -0.6486 -0.3872  0.1599
 7242SOL    HW127046  10.125   3.554   2.348  0.6378  0.5493 -0.2618
 7242SOL    HW227047  10.224   3.470   2.270  0.5121 -0.5258  0.7291
 7243SOL     OW27048   4.053  10.428   5.337 -0.0952 -0.3050  0.2913
 7243SOL    HW127049   4.043  10.350   5.283  1.3624 -1.8398  2.0899
 7243SOL    HW227050   4.138  10.416   5.381 -0.8378  1.1960  2.2939
 7244SOL     OW27051   1.773   4.885   9.183  0.4637  0.1821  0.3683
 7244SOL    HW127052   1.703   4.949   9.191 -0.9776 -1.3270  0.5368
 7244SOL    HW227053   1.805   4.894   9.094  0.0759  0.9231  0.3016
 7245SOL     OW27054   7.609   5.588   3.105  0.0719  0.0779 -0.2709
 7245SOL    HW127055   7.546   5.531   3.061 -1.4911  0.6802  1.0777
 7245SOL    HW227056   7.657   5.630   3.034 -1.8758  0.5138 -1.3978
 7246SOL     OW27057   3.806   9.188   6.847  0.6412  0.1985 -0.2667
 7246SOL    HW127058   3.840   9.277   6.843 -0.6914  1.0755  3.7425
 7246SOL    HW227059   3.862   9.143   6.910 -0.9083 -0.6075  0.5947
 7247SOL     OW27060  10.784  10.768  10.755 -1.0083  0.1764  0.1191
 7247SOL    HW127061  10.704  10.719  10.775 -0.8470 -0.1769 -0.0892
 7247SOL    HW227062  10.851  10.700  10.741 -1.1641  0.3690 -1.8608
 7248SOL     OW27063   3.177   6.312  10.843  0.0011  0.1897 -0.3787
 7248SOL    HW127064   3.233   6.297  10.767 -0.9775 -2.6262 -0.6491
 7248SOL    HW227065   3.092   6.334  10.806  0.3184  2.3063  0.0132
 7249SOL     OW27066   1.708   5.370   5.858 -0.3100 -0.0741  0.5127
 7249SOL    HW127067   1.702   5.295   5.917  2.5702  1.5072  3.1802
 7249SOL    HW227068   1.641   5.431   5.889  0.1350  0.0906  1.1934
 7250SOL     OW27069   1.767   1.667   2.657 -0.5164  0.0693 -0.0990
 7250SOL    HW127070   1.739   1.597   2.717  1.1701  0.9721  1.8591
 7250SOL    HW227071   1.698   1.670   2.591 -1.2305 -2.6595  0.3812
 7251SOL     OW27072   1.778   4.874   5.006 -0.3569  0.0821 -0.4370
 7251SOL    HW127073   1.714   4.893   4.937 -0.5800 -1.7478 -0.7757
 7251SOL    HW227074   1.861   4.906   4.970 -0.6713  0.2693 -1.0243
 7252SOL     OW27075   3.842   6.590   6.060  0.3763  0.8482  0.3827
 7252SOL    HW127076   3.825   6.628   5.974 -1.8248  0.0185  0.3836
 7252SOL    HW227077   3.762   6.607   6.110  1.4716  1.0160  2.1986
 7253SOL     OW27078   2.372  10.676   4.212  0.2244  0.4860  0.1334
 7253SOL    HW127079   2.278  10.670   4.225  0.4117 -0.4765  1.3131
 7253SOL    HW227080   2.384  10.676   4.117 -0.9186 -0.2764 -0.0275
 7254SOL     OW27081   5.344   6.646   3.148 -0.0305 -0.1973 -0.3908
 7254SOL    HW127082   5.365   6.562   3.107 -1.3734 -0.7704  0.0407
 7254SOL    HW227083   5.393   6.646   3.230 -0.4722 -0.8267 -0.1219
 7255SOL     OW27084   0.284   7.711   1.341  0.2533 -0.5410  0.5543
 7255SOL    HW127085   0.314   7.650   1.408 -1.4562  0.2410  2.1223
 7255SOL    HW227086   0.310   7.671   1.258 -2.3872 -4.3984  1.3415
 7256SOL     OW27087  11.212   7.368   5.405  0.1155 -0.2547  0.1173
 7256SOL    HW127088  11.262   7.411   5.335 -1.5661  1.8691  0.1322
 7256SOL    HW227089  11.122   7.364   5.372 -0.5335 -0.0752  1.7860
 7257SOL     OW27090   5.444  10.141   0.681  0.3281 -0.1825  0.3002
 7257SOL    HW127091   5.512  10.203   0.707  0.1675 -0.2254  0.8559
 7257SOL    HW227092   5.366  10.169   0.731  1.0146 -2.6336  3.0521
 7258SOL     OW27093  11.381   6.854  11.130 -1.0147  0.7295  0.0393
 7258SOL    HW127094  11.437   6.910  11.183  0.8448 -2.2707  1.5294
 7258SOL    HW227095  11.422   6.856  11.043 -0.8305  1.4135  0.1328
 7259SOL     OW27096   0.898   1.233   7.011 -0.3992  0.1317  0.6130
 7259SOL    HW127097   0.914   1.278   6.928 -2.8850  1.2294  0.6316
 7259SOL    HW227098   0.967   1.264   7.069  0.3982  0.6410 -0.5645
 7260SOL     OW27099   4.799   3.975   6.098 -0.4061  0.3472 -0.5242
 7260SOL    HW127100   4.780   4.055   6.049  0.5242  0.8354 -0.1260
 7260SOL    HW227101   4.729   3.970   6.163  0.3398  1.7081  0.4487
 7261SOL     OW27102   8.483   8.506   6.304 -0.2300  0.1841 -0.3037
 7261SOL    HW127103   8.542   8.581   6.308  0.3081 -0.2569  2.1210
 7261SOL    HW227104   8.418   8.523   6.372 -0.8524 -0.9353 -0.5900
 7262SOL     OW27105   0.713   5.981   9.744  0.2840 -0.5757 -0.2139
 7262SOL    HW127106   0.762   5.963   9.664  0.8348 -0.0331 -0.0122
 7262SOL    HW227107   0.643   5.916   9.745  1.9723 -2.5019  0.3395
 7263SOL     OW27108   5.030   2.911   5.022  0.1295 -0.1777  0.0705
 7263SOL    HW127109   5.094   2.841   5.031 -1.7240 -1.7681  1.7475
 7263SOL    HW227110   4.957   2.871   4.975 -1.3912  0.2479  1.9441
 7264SOL     OW27111   5.833   0.371  10.295 -0.0836 -0.3626 -0.3907
 7264SOL    HW127112   5.779   0.408  10.226  1.0246  1.2639 -0.4198
 7264SOL    HW227113   5.877   0.296  10.254  2.3628  1.8993 -2.2664
 7265SOL     OW27114   0.370   8.562   3.098 -0.4214 -0.1673  0.0482
 7265SOL    HW127115   0.342   8.627   3.162  0.5557  2.1812 -1.7758
 7265SOL    HW227116   0.431   8.506   3.146 -0.9173  0.5329  1.5575
 7266SOL     OW27117  10.314  10.165   0.397 -0.9057 -0.3584  0.1439
 7266SOL    HW127118  10.393  10.180   0.345 -2.5968  2.3901 -1.9502
 7266SOL    HW227119  10.290  10.074   0.378  0.6569 -0.6173 -0.7940
 7267SOL     OW27120   9.620   6.433   1.150  0.7965  0.1211 -0.3767
 7267SOL    HW127121   9.550   6.475   1.201  1.6494  1.4667 -0.2627
 7267SOL    HW227122   9.580   6.416   1.064 -0.2525 -0.9562  0.3057
 7268SOL     OW27123   6.166   2.730   8.775 -0.0844  0.3830 -0.2927
 7268SOL    HW127124   6.124   2.775   8.848 -1.4421 -0.4597 -0.5217
 7268SOL    HW227125   6.159   2.792   8.702 -0.2895  0.5273 -0.1524
 7269SOL     OW27126  10.464   2.091   2.127  0.3445  0.0458 -0.0640
 7269SOL    HW127127  10.516   2.017   2.097  0.3188  0.1850 -0.4542
 7269SOL    HW227128  10.439   2.137   2.047 -0.7360 -0.2589  0.0828
 7270SOL     OW27129   8.079   5.158   7.280 -0.2955  0.4929 -0.0389
 7270SOL    HW127130   8.144   5.185   7.344 -1.1794  1.1801  0.6002
 7270SOL    HW227131   8.082   5.226   7.213  0.8525 -0.3910 -0.9209
 7271SOL     OW27132   0.376   6.945   7.905  0.0576 -0.2240 -0.3764
 7271SOL    HW127133   0.426   6.964   7.984  0.2225  0.3502 -0.6163
 7271SOL    HW227134   0.372   6.849   7.902  0.3861 -0.2577  0.1112
 7272SOL     OW27135   5.600   7.613   8.687  0.0956  0.4248 -0.3738
 7272SOL    HW127136   5.605   7.529   8.642  0.3853  1.1643 -1.7765
 7272SOL    HW227137   5.651   7.673   8.633 -1.8021  1.9874 -0.5523
 7273SOL     OW27138   4.067   3.676   8.876 -0.3501 -0.2576 -0.2150
 7273SOL    HW127139   4.157   3.680   8.844 -0.4792  0.0598 -0.5415
 7273SOL    HW227140   4.071   3.615   8.950  0.2980  0.4071  0.3150
 7274SOL     OW27141   7.491   3.452   4.809 -0.5229 -0.2920  0.4824
 7274SOL    HW127142   7.503   3.359   4.830  0.0785  0.3143  3.1187
 7274SOL    HW227143   7.399   3.469   4.830 -0.9649 -0.4952 -1.1196
 7275SOL     OW27144   5.560   4.991   8.492  0.5323 -0.1164  0.2455
 7275SOL    HW127145   5.624   4.920   8.495 -0.3337 -1.0411 -1.5152
 7275SOL    HW227146   5.550   5.019   8.583  2.1591 -1.0842  0.7635
 7276SOL     OW27147   9.380   8.577  10.366 -0.2980 -0.5439  0.1335
 7276SOL    HW127148   9.325   8.589  10.444  0.4134 -1.5143  0.8066
 7276SOL    HW227149   9.435   8.502  10.387  0.3923 -0.3868 -1.0459
 7277SOL     OW27150  11.674   4.803   5.634  0.2296  0.2373 -0.2476
 7277SOL    HW127151  11.742   4.743   5.664 -2.5292 -2.8221  0.5040
 7277SOL    HW227152  11.701   4.828   5.545  2.0908 -1.1743 -0.1344
 7278SOL     OW27153   6.477   9.898   1.658  0.4511  0.6199 -0.0527
 7278SOL    HW127154   6.445   9.807   1.656 -0.3408  0.8743  0.5575
 7278SOL    HW227155   6.564   9.893   1.618 -0.0455 -0.2106 -1.0959
 7279SOL     OW27156   4.966   2.941   0.213 -0.1106 -0.0771  0.1141
 7279SOL    HW127157   5.026   2.869   0.229  0.6571  0.3765 -0.6804
 7279SOL    HW227158   4.997   3.012   0.269  1.3603  0.8346 -1.7417
 7280SOL     OW27159   6.576   5.807   5.042 -0.0119  0.1006  0.3714
 7280SOL    HW127160   6.668   5.801   5.066  0.1226  1.2017  0.1784
 7280SOL    HW227161   6.549   5.716   5.027  1.4541 -0.1375 -1.1103
 7281SOL     OW27162   5.433  10.188   2.786  0.0405 -0.2010 -0.5803
 7281SOL    HW127163   5.420  10.282   2.799  0.1240 -0.0084 -1.8170
 7281SOL    HW227164   5.359  10.160   2.732  0.7958 -0.5485 -1.4595
 7282SOL     OW27165   8.110   2.664   5.765  0.0207  0.5776 -0.4526
 7282SOL    HW127166   8.167   2.733   5.732  0.2179  0.5136 -0.2543
 7282SOL    HW227167   8.135   2.586   5.716  0.2229  0.5121 -0.2512
 7283SOL     OW27168   5.209   7.188   3.588  0.2820  0.3195  0.7324
 7283SOL    HW127169   5.114   7.200   3.589 -0.0541 -1.8477 -0.0379
 7283SOL    HW227170   5.228   7.154   3.500  1.3847 -1.8112  1.7164
 7284SOL     OW27171   8.794  11.430   0.684 -0.4309  0.1754  0.0773
 7284SOL    HW127172   8.885  11.430   0.711 -0.3637  1.7859 -0.0837
 7284SOL    HW227173   8.760  11.345   0.714  1.9615 -2.0610 -2.8964
 7285SOL     OW27174   2.647  10.415   5.844 -0.1492  0.0768  0.0865
 7285SOL    HW127175   2.631  10.495   5.894 -0.3992 -0.8043  1.4656
 7285SOL    HW227176   2.562  10.393   5.807  0.0954  0.8885 -1.0187
 7286SOL     OW27177   6.961   7.924   0.718 -0.2300 -0.3171 -0.1479
 7286SOL    HW127178   6.953   8.009   0.675  0.1144 -0.6675 -0.9085
 7286SOL    HW227179   7.051   7.921   0.749  0.3545 -1.1755 -1.8053
 7287SOL     OW27180  10.227   6.646  10.433 -0.2303 -0.0610  0.2398
 7287SOL    HW127181  10.151   6.589  10.433 -1.5354  1.5909  1.4011
 7287SOL    HW227182  10.302   6.587  10.429 -1.3949 -2.0686  4.1872
 7288SOL     OW27183   6.035   6.848   5.268 -0.5138  0.1239  0.3771
 7288SOL    HW127184   6.082   6.892   5.197 -0.3907 -1.4748 -0.5818
 7288SOL    HW227185   6.081   6.764   5.279 -1.5299 -0.3481  1.2293
 7289SOL     OW27186   1.715   9.256   2.768 -0.2717 -0.3552  0.1927
 7289SOL    HW127187   1.757   9.340   2.783  0.5591 -0.4946 -1.1431
 7289SOL    HW227188   1.787   9.194   2.760 -0.8864 -1.3561  1.8655
 7290SOL     OW27189   4.753   4.743   1.019  0.0834 -0.3591  0.2931
 7290SOL    HW127190   4.692   4.712   1.087 -1.8915 -0.2258 -1.3174
 7290SOL    HW227191   4.742   4.838   1.019  1.4856 -0.1662  0.9999
 7291SOL     OW27192   5.937   6.073   6.585 -0.1253  0.3374  0.2563
 7291SOL    HW127193   5.850   6.113   6.579  0.3808  1.3265 -0.8454
 7291SOL    HW227194   5.997   6.146   6.594  0.6849 -0.2597 -0.1456
 7292SOL     OW27195   7.509   5.144  11.062  0.0415  0.4551  0.2277
 7292SOL    HW127196   7.531   5.075  11.123  1.3508  1.0439  0.4657
 7292SOL    HW227197   7.474   5.215  11.117  0.3210  0.6209  0.1972
 7293SOL     OW27198   4.233   8.291   9.489 -0.6809 -0.1630 -0.1343
 7293SOL    HW127199   4.329   8.294   9.494 -0.6591  1.9423 -0.7084
 7293SOL    HW227200   4.211   8.360   9.426 -2.5128 -1.8477 -1.4187
 7294SOL     OW27201   6.702   8.195   4.210  0.2649  0.0358 -0.3021
 7294SOL    HW127202   6.628   8.174   4.267  0.2095  0.2998 -0.2767
 7294SOL    HW227203   6.730   8.110   4.176 -1.2199  0.0731 -1.7811
 7295SOL     OW27204   6.759   9.319   4.880 -0.2406  0.5623 -0.4432
 7295SOL    HW127205   6.712   9.347   4.802 -2.3548  1.9635  1.2290
 7295SOL    HW227206   6.744   9.389   4.944  1.3311 -0.5685  1.2760
 7296SOL     OW27207   6.006   2.105   5.271 -0.6044  0.2969 -0.8066
 7296SOL    HW127208   5.916   2.125   5.298 -0.2168 -0.2234  0.9952
 7296SOL    HW227209   6.053   2.188   5.281 -0.2282 -0.1142  1.2928
 7297SOL     OW27210   0.752  11.174   6.371 -0.6663 -0.2950  0.3637
 7297SOL    HW127211   0.840  11.172   6.409  0.2419 -0.5381 -1.6289
 7297SOL    HW227212   0.706  11.102   6.412 -0.2441  0.3710  2.0834
 7298SOL     OW27213  10.776   8.808   8.909 -0.3112  0.1584  0.5680
 7298SOL    HW127214  10.739   8.754   8.839  2.6412 -1.1786 -0.1020
 7298SOL    HW227215  10.767   8.898   8.877 -0.0361 -0.3489 -1.0379
 7299SOL     OW27216   2.795   1.567   7.289 -0.0292 -0.2211  0.0584
 7299SOL    HW127217   2.704   1.597   7.294  0.6821  2.4890 -1.4872
 7299SOL    HW227218   2.830   1.609   7.211  2.4349 -1.6344  0.3085
 7300SOL     OW27219   3.369   2.476   2.668 -0.1454 -0.4766  0.0689
 7300SOL    HW127220   3.464   2.484   2.661 -0.0373 -0.4470  1.3161
 7300SOL    HW227221   3.352   2.382   2.665 -0.1737 -0.4431 -1.1075
 7301SOL     OW27222   4.841   1.326   3.680  0.1241 -0.0499  0.3557
 7301SOL    HW127223   4.926   1.283   3.689  1.1083  1.1812 -2.0248
 7301SOL    HW227224   4.839   1.391   3.750  2.4781  1.8324 -1.1719
 7302SOL     OW27225   1.864   2.365   5.778  0.1436  0.3977  0.3841
 7302SOL    HW127226   1.838   2.309   5.705  0.0861  0.6760  0.1899
 7302SOL    HW227227   1.811   2.444   5.767  1.5504  1.2825 -0.4324
 7303SOL     OW27228   0.323   5.432   8.213  0.0713 -1.1097 -0.2302
 7303SOL    HW127229   0.332   5.390   8.128 -0.7907 -0.5183 -0.6223
 7303SOL    HW227230   0.262   5.375   8.262 -1.2044 -0.2951 -0.8093
 7304SOL     OW27231   0.985   4.153   6.848 -0.3601  0.0295 -0.2800
 7304SOL    HW127232   1.021   4.174   6.934 -1.1470 -1.5749  0.4905
 7304SOL    HW227233   1.056   4.108   6.803 -0.0922  0.4757 -0.3094
 7305SOL     OW27234   7.497   6.652   5.438 -0.4420  0.4880  0.1490
 7305SOL    HW127235   7.511   6.732   5.489 -0.8732  0.1038  0.8840
 7305SOL    HW227236   7.571   6.650   5.377  0.6634  0.4465  1.4348
 7306SOL     OW27237   0.574   6.040   5.234 -0.4875 -0.4242  0.4467
 7306SOL    HW127238   0.646   6.065   5.177 -1.1323  0.0084 -0.1959
 7306SOL    HW227239   0.514   5.992   5.177 -0.4409 -1.2993  1.1054
 7307SOL     OW27240   6.971   8.564   5.263 -0.1600  0.1901  0.1938
 7307SOL    HW127241   7.038   8.564   5.332  0.3554  0.6143 -0.3027
 7307SOL    HW227242   6.983   8.647   5.218  0.1618 -0.5121 -1.0540
 7308SOL     OW27243   9.186   4.940   6.539 -0.1774  0.0562  0.1326
 7308SOL    HW127244   9.094   4.922   6.521  0.3172 -0.2796 -2.5866
 7308SOL    HW227245   9.192   4.949   6.634 -2.8817 -0.5203  0.4143
 7309SOL     OW27246  11.737  11.091   7.286  0.5126 -0.1500  0.6785
 7309SOL    HW127247  11.660  11.035   7.292  0.1787 -0.0657 -1.8680
 7309SOL    HW227248  11.731  11.132   7.199  3.2436  0.1158  0.5233
 7310SOL     OW27249   4.035   9.652   3.350  0.3128  0.0874  0.3389
 7310SOL    HW127250   4.091   9.672   3.425 -0.9536  1.9488  0.8291
 7310SOL    HW227251   4.095   9.654   3.275  1.2358  0.1717  1.0544
 7311SOL     OW27252   3.693  10.858   3.286  0.7099  0.5594  0.0889
 7311SOL    HW127253   3.666  10.779   3.332  1.4775  1.5356  2.3679
 7311SOL    HW227254   3.779  10.836   3.250  0.7637  0.2356  0.4080
 7312SOL     OW27255   0.075   1.631   1.229 -0.5616 -0.1072 -0.3264
 7312SOL    HW127256   0.021   1.626   1.307 -0.4648  1.3417 -0.1478
 7312SOL    HW227257   0.035   1.568   1.168 -0.7876 -1.0484  0.7728
 7313SOL     OW27258   8.058   3.989   4.868  0.0932  0.4249 -0.0846
 7313SOL    HW127259   8.113   4.059   4.833 -1.5815  1.9798  0.2458
 7313SOL    HW227260   8.072   3.993   4.962 -1.5394  1.7777  0.1554
 7314SOL     OW27261   8.126   7.765   5.305  0.0307 -0.0676  0.0286
 7314SOL    HW127262   8.055   7.801   5.252  1.2614  0.5819 -1.2347
 7314SOL    HW227263   8.146   7.833   5.369 -0.7820 -0.4439  0.6955
 7315SOL     OW27264   2.578   8.223   5.587  0.3706 -0.0760  0.0314
 7315SOL    HW127265   2.582   8.307   5.541  0.5024 -0.5103 -0.7638
 7315SOL    HW227266   2.490   8.190   5.568 -0.1191  0.4057  1.3082
 7316SOL     OW27267   3.118   4.824  11.471  0.8556 -0.7679 -0.1249
 7316SOL    HW127268   3.126   4.767  11.548  0.1342 -0.9701 -0.1923
 7316SOL    HW227269   3.148   4.909  11.501 -0.9251 -0.4379  0.8667
 7317SOL     OW27270   2.363   3.838   5.440  0.0424 -0.1723  0.9269
 7317SOL    HW127271   2.407   3.757   5.466 -1.8109 -1.6029 -0.1691
 7317SOL    HW227272   2.314   3.864   5.518 -0.5294 -0.9710  0.8529
 7318SOL     OW27273   7.156   9.275   2.519  0.5243 -0.4773 -0.2270
 7318SOL    HW127274   7.149   9.347   2.457 -0.0424  0.0571  0.4524
 7318SOL    HW227275   7.080   9.283   2.576  0.6194 -1.4234  0.0630
 7319SOL     OW27276   3.369  10.515   9.861  0.0132  0.4650 -0.5748
 7319SOL    HW127277   3.455  10.473   9.872 -0.3961 -0.3378 -0.3254
 7319SOL    HW227278   3.318  10.451   9.812  0.0221  1.6001 -2.1511
 7320SOL     OW27279   5.832  11.769   9.708 -0.3455  0.2166 -0.1152
 7320SOL    HW127280   5.787  11.724   9.637 -0.2224  0.9595 -0.6762
 7320SOL    HW227281   5.812  11.717   9.786 -1.4140  0.0251 -0.5037
 7321SOL     OW27282  11.063   9.943   7.055 -0.1445 -0.0066 -0.0379
 7321SOL    HW127283  11.014   9.914   6.977 -1.6905  2.0052  0.0747
 7321SOL    HW227284  11.123  10.010   7.021 -1.5893  1.6846  0.5291
 7322SOL     OW27285   7.217  10.677   9.488  0.2661 -0.1971 -0.6538
 7322SOL    HW127286   7.145  10.651   9.545  0.1454 -0.4025 -0.8989
 7322SOL    HW227287   7.295  10.672   9.543  0.1100 -0.0832 -0.4192
 7323SOL     OW27288  10.967   9.556  10.329  0.4515 -0.1490 -0.0624
 7323SOL    HW127289  10.990   9.485  10.389 -0.5354  0.7345  1.4364
 7323SOL    HW227290  10.987   9.636  10.378 -2.3073  0.6260 -0.0309
 7324SOL     OW27291  11.758   8.374   3.981  0.4183  0.1756  0.1276
 7324SOL    HW127292  11.760   8.470   3.983  1.6025  0.1645  0.1139
 7324SOL    HW227293  11.738   8.348   4.071 -0.6526  0.4368 -0.0253
 7325SOL     OW27294   9.717   6.560   2.743  0.3277 -0.0689 -0.1155
 7325SOL    HW127295   9.625   6.565   2.768 -0.0717  0.8606 -1.6521
 7325SOL    HW227296   9.723   6.481   2.689  0.1516  0.5422 -1.0441
 7326SOL     OW27297   0.013   8.685   4.266  0.4973  0.1042 -0.5799
 7326SOL    HW127298   0.054   8.618   4.321  0.4568 -0.1853 -0.9024
 7326SOL    HW227299   0.064   8.764   4.283 -0.1520  0.2851  0.6685
 7327SOL     OW27300  10.891   7.660   9.664  0.5843 -0.3366  0.2913
 7327SOL    HW127301  10.926   7.731   9.611  1.0660 -0.8205 -0.0430
 7327SOL    HW227302  10.882   7.699   9.752  1.8196 -0.1531  0.3570
 7328SOL     OW27303   2.439   8.399   2.765 -0.2874 -0.0455  0.4355
 7328SOL    HW127304   2.530   8.406   2.795 -0.3619 -0.4081  0.7679
 7328SOL    HW227305   2.389   8.390   2.846 -0.9161  2.6825  0.4468
 7329SOL     OW27306  11.583   1.897   8.865  0.3368 -0.0255 -0.4203
 7329SOL    HW127307  11.563   1.988   8.842  1.1352  0.0225 -0.9682
 7329SOL    HW227308  11.674   1.885   8.838  1.2992 -0.0349  2.5146
 7330SOL     OW27309   7.423  10.739   5.670  0.4540  0.3620  0.2814
 7330SOL    HW127310   7.427  10.643   5.672 -1.2525  0.2619  2.5516
 7330SOL    HW227311   7.459  10.766   5.754  1.6540  1.8260 -0.6438
 7331SOL     OW27312   4.294   9.717   6.462  0.3755 -0.0367 -0.2349
 7331SOL    HW127313   4.378   9.681   6.490  0.6031 -0.0453 -0.9146
 7331SOL    HW227314   4.265   9.659   6.392 -1.4412 -1.5651  1.6418
 7332SOL     OW27315   9.948   2.418   7.810  0.2448 -0.4030 -0.3589
 7332SOL    HW127316   9.975   2.332   7.778 -1.5936 -0.4701 -1.9302
 7332SOL    HW227317  10.027   2.455   7.848  1.5419 -2.0614 -1.2778
 7333SOL     OW27318   7.974   2.531   2.452  0.2415 -0.2140  0.1622
 7333SOL    HW127319   8.005   2.606   2.502  1.3991  0.7537 -1.8815
 7333SOL    HW227320   7.950   2.567   2.367 -0.4487 -1.9838 -0.4441
 7334SOL     OW27321   9.754   5.830   4.065 -0.0675 -0.0888 -0.8058
 7334SOL    HW127322   9.668   5.846   4.103 -0.0654  2.3058 -1.6398
 7334SOL    HW227323   9.790   5.757   4.115 -1.3021  0.8996  1.6446
 7335SOL     OW27324   3.797   1.774  11.238 -0.1744 -0.3538 -0.3127
 7335SOL    HW127325   3.844   1.717  11.177 -1.4020 -0.8439 -0.8419
 7335SOL    HW227326   3.728   1.814  11.185 -1.0360 -0.5036  0.6679
 7336SOL     OW27327   9.929   5.822   2.733  0.0189 -0.3520  0.1981
 7336SOL    HW127328   9.914   5.800   2.641 -1.6788 -0.1436  0.3920
 7336SOL    HW227329   9.965   5.911   2.730  0.8142 -0.6741 -0.2862
 7337SOL     OW27330   1.138   1.304   5.863  0.1872  0.3313 -0.2198
 7337SOL    HW127331   1.154   1.234   5.800  0.6175  0.6345 -0.4536
 7337SOL    HW227332   1.045   1.297   5.884  0.1117  0.0206 -0.6413
 7338SOL     OW27333   5.720   9.903   0.388 -0.0458 -0.3896  0.3714
 7338SOL    HW127334   5.672   9.897   0.471  1.2761 -0.0001  1.2013
 7338SOL    HW227335   5.726   9.996   0.370 -0.1759 -0.4666 -0.0826
 7339SOL     OW27336   2.844   9.116   6.192  0.0310  0.1362  0.1486
 7339SOL    HW127337   2.852   9.034   6.143 -1.0942  0.4034 -0.5187
 7339SOL    HW227338   2.916   9.113   6.255  2.0036  0.0846 -1.9624
 7340SOL     OW27339   6.129   8.581  11.742  0.4765 -0.2087 -0.2021
 7340SOL    HW127340   6.171   8.625  11.668 -0.6873 -0.3905 -0.9899
 7340SOL    HW227341   6.043   8.557  11.710  0.9761 -2.9105  0.2316
 7341SOL     OW27342   9.911  10.587   7.601  0.2517 -0.4203 -0.5672
 7341SOL    HW127343   9.938  10.678   7.613 -2.0381  0.1290  1.0273
 7341SOL    HW227344   9.916  10.549   7.689 -2.4138 -0.7042 -0.4638
 7342SOL     OW27345   9.253  11.689   1.614  0.1819 -0.1188  0.0195
 7342SOL    HW127346   9.175  11.714   1.564 -0.5393  1.5254  1.8651
 7342SOL    HW227347   9.225  11.613   1.665 -0.8029  1.3610  1.8331
 7343SOL     OW27348  10.641   3.488   5.997 -0.3874  0.3504 -0.3013
 7343SOL    HW127349  10.710   3.553   6.010  0.0202 -0.5326  2.6058
 7343SOL    HW227350  10.565   3.523   6.043 -0.9966 -0.0124 -1.0056
 7344SOL     OW27351   5.899   0.198   9.904 -0.1477 -1.2958  0.4321
 7344SOL    HW127352   5.803   0.197   9.900 -0.1686 -0.4770  0.6802
 7344SOL    HW227353   5.926   0.180   9.814 -0.5581  0.8639 -0.1640
 7345SOL     OW27354   0.623   1.641   8.770  0.3038  0.1462 -0.0959
 7345SOL    HW127355   0.567   1.621   8.695 -0.6999  0.8062  0.4598
 7345SOL    HW227356   0.612   1.566   8.829  0.8150 -0.2033 -0.4340
 7346SOL     OW27357   5.710   2.574  10.607 -0.0636 -0.5885  0.4721
 7346SOL    HW127358   5.678   2.664  10.596 -0.0885 -0.5571  0.7830
 7346SOL    HW227359   5.805   2.582  10.606 -0.0508 -0.4167  1.5124
 7347SOL     OW27360   7.357   6.644   5.205  0.2594  0.6964 -0.0962
 7347SOL    HW127361   7.395   6.613   5.287 -0.3844 -1.6416 -0.6114
 7347SOL    HW227362   7.300   6.716   5.231 -2.2157 -1.8071  2.0102
 7348SOL     OW27363   2.739   7.260   8.122 -0.4008 -0.5757 -0.1458
 7348SOL    HW127364   2.761   7.300   8.206 -2.7600 -0.2095  0.3720
 7348SOL    HW227365   2.754   7.167   8.134  1.7760 -0.2897 -0.2207
 7349SOL     OW27366  10.123   3.237   5.579  0.0040  0.3356 -0.0357
 7349SOL    HW127367  10.198   3.245   5.639  1.3978 -2.0303 -1.3236
 7349SOL    HW227368  10.159   3.260   5.493 -1.4913  1.8187 -0.3081
 7350SOL     OW27369  11.116   3.231  11.522  0.6557  0.8771 -0.3846
 7350SOL    HW127370  11.103   3.284  11.444 -1.1188  0.3628 -0.4913
 7350SOL    HW227371  11.207   3.246  11.547  0.2210  4.0805 -0.3151
 7351SOL     OW27372   8.805   1.114   4.479  1.0694 -0.0846  0.0241
 7351SOL    HW127373   8.755   1.050   4.429 -0.0295  1.6563 -1.2068
 7351SOL    HW227374   8.828   1.069   4.560 -0.0472 -1.8642 -0.5975
 7352SOL     OW27375   2.941   2.038  10.610  0.4320  0.8743 -0.2299
 7352SOL    HW127376   3.036   2.048  10.605  0.5758 -0.6495 -1.3541
 7352SOL    HW227377   2.922   2.041  10.704  1.5391  1.4968 -0.0034
 7353SOL     OW27378   1.791   3.842   8.920  0.2979  0.3510 -0.2391
 7353SOL    HW127379   1.787   3.794   8.837  1.1834  0.3770 -0.3009
 7353SOL    HW227380   1.786   3.934   8.895  1.4017  0.3957 -0.3390
 7354SOL     OW27381   9.977   5.769   3.380  0.5814 -0.0263  0.8247
 7354SOL    HW127382  10.012   5.809   3.300 -1.3465  0.0859 -0.0122
 7354SOL    HW227383   9.960   5.678   3.356 -1.2985  0.3456  0.6517
 7355SOL     OW27384   7.919   7.209   2.944  0.5501 -0.1598  0.5453
 7355SOL    HW127385   7.981   7.138   2.928 -1.8928 -2.2663 -0.2318
 7355SOL    HW227386   7.856   7.203   2.873 -0.0690  2.4866  0.7791
 7356SOL     OW27387   9.444   9.373   3.569 -0.2511  0.3947 -0.5330
 7356SOL    HW127388   9.362   9.419   3.583 -0.6528 -0.3301 -0.4708
 7356SOL    HW227389   9.510   9.442   3.564 -0.9330  1.0107 -1.1027
 7357SOL     OW27390   7.308   6.839   8.621 -0.4918  0.2113 -0.1129
 7357SOL    HW127391   7.313   6.743   8.628 -1.1415  0.0099 -1.8330
 7357SOL    HW227392   7.399   6.868   8.623 -0.2743 -0.4556  0.1941
 7358SOL     OW27393   1.370   3.550   3.921 -0.9595  0.0364 -0.0346
 7358SOL    HW127394   1.323   3.631   3.902  0.6024  1.5201  2.0124
 7358SOL    HW227395   1.309   3.499   3.976 -0.9411  1.1076  1.0236
 7359SOL     OW27396  11.012   9.898   1.222 -0.2893 -0.3612 -0.2004
 7359SOL    HW127397  11.052   9.821   1.262 -0.9283 -0.7922 -0.3642
 7359SOL    HW227398  10.943   9.862   1.165 -0.1620  0.2973 -0.7883
 7360SOL     OW27399   0.005   1.913   2.274  0.5573 -0.1970 -0.2555
 7360SOL    HW127400   0.041   1.966   2.345  0.2473  0.2466 -0.4277
 7360SOL    HW227401   0.003   1.824   2.310  1.7622 -0.2263 -0.2290
 7361SOL     OW27402  10.622   6.310  10.834  0.3545 -0.4928 -0.0593
 7361SOL    HW127403  10.647   6.399  10.860 -1.2462  0.0774 -0.3829
 7361SOL    HW227404  10.665   6.298  10.749  0.5242  0.0067 -0.0497
 7362SOL     OW27405  10.581  10.985   4.134  0.8120 -0.2845 -0.5719
 7362SOL    HW127406  10.508  11.045   4.148  2.0939  1.3161 -0.4249
 7362SOL    HW227407  10.641  11.033   4.077  2.3535 -1.0127  0.3686
 7363SOL     OW27408   4.039  11.586   3.330  0.5960 -0.3334  0.4249
 7363SOL    HW127409   4.047  11.501   3.286  1.6352  0.1727 -0.4161
 7363SOL    HW227410   3.949  11.612   3.314  0.4561 -0.9725  0.1026
 7364SOL     OW27411   2.378   7.128   8.257  0.2837  0.0618 -0.2494
 7364SOL    HW127412   2.345   7.207   8.214 -0.1194 -0.2618 -0.5318
 7364SOL    HW227413   2.299   7.081   8.285  0.5309  0.3722  1.0429
 7365SOL     OW27414   5.858   4.122   0.787 -0.1322  0.4924  0.7810
 7365SOL    HW127415   5.839   4.186   0.856 -2.1076  1.7688 -0.8170
 7365SOL    HW227416   5.939   4.154   0.747 -0.6878  1.5731  0.4930
 7366SOL     OW27417   5.160  10.086   4.817  0.4053  0.3633  0.3325
 7366SOL    HW127418   5.216  10.155   4.782  1.3169  0.0342  1.0993
 7366SOL    HW227419   5.109  10.129   4.886  0.4656  0.4228  0.3391
 7367SOL     OW27420   6.267   0.921   7.032  0.3686 -0.2931  0.0455
 7367SOL    HW127421   6.349   0.952   6.993  0.5241 -0.4005  0.2820
 7367SOL    HW227422   6.295   0.871   7.109 -0.0228  2.3172  2.0135
 7368SOL     OW27423  11.021   7.182   5.527  0.0150  0.3401 -0.4106
 7368SOL    HW127424  11.045   7.116   5.462  0.2686  2.2577 -2.3916
 7368SOL    HW227425  11.100   7.235   5.538 -0.8231  1.7005 -0.6495
 7369SOL     OW27426   4.274   9.954   3.778  0.5641 -0.7290 -0.4047
 7369SOL    HW127427   4.253  10.016   3.847  1.4464  0.0685 -0.8273
 7369SOL    HW227428   4.350   9.906   3.810 -0.3187 -1.8581  0.0652
 7370SOL     OW27429   7.840   6.536   6.515 -0.1064 -0.2690  0.2657
 7370SOL    HW127430   7.864   6.446   6.495  0.4062  0.2156 -1.5274
 7370SOL    HW227431   7.922   6.585   6.509 -0.3762  0.3331  1.2027
 7371SOL     OW27432   9.329   2.757   5.424 -0.0496  0.6230 -0.3247
 7371SOL    HW127433   9.388   2.715   5.362  0.7626 -1.8076  1.9384
 7371SOL    HW227434   9.386   2.794   5.491 -0.9825  0.2219  0.7275
 7372SOL     OW27435   7.626   3.196  10.942 -0.0205  0.7385 -0.0565
 7372SOL    HW127436   7.694   3.185  10.875  0.4653  0.7097  0.4358
 7372SOL    HW227437   7.636   3.286  10.972 -0.8674  1.0590 -0.6929
 7373SOL     OW27438   6.634  10.991   8.296  0.4371  0.0375 -0.2799
 7373SOL    HW127439   6.698  11.063   8.290 -1.0338  1.3629 -0.8118
 7373SOL    HW227440   6.637  10.950   8.210  0.6124  0.0635 -0.2883
 7374SOL     OW27441   5.795   4.218   2.582  0.2889 -0.1000 -0.2714
 7374SOL    HW127442   5.820   4.214   2.675 -0.0671 -0.9060 -0.1973
 7374SOL    HW227443   5.782   4.311   2.565 -2.2406 -0.0633  1.2337
 7375SOL     OW27444   5.745   8.909   1.329  0.5685 -0.0406  0.2995
 7375SOL    HW127445   5.717   8.991   1.371  1.4907  0.9880 -1.0116
 7375SOL    HW227446   5.831   8.891   1.367  0.3256 -0.4671  0.6551
 7376SOL     OW27447   9.628  10.233   9.709 -0.2328  0.2689  0.1957
 7376SOL    HW127448   9.619  10.151   9.757 -1.7622  0.5327  0.3945
 7376SOL    HW227449   9.688  10.285   9.763  0.2565 -0.4679  0.3798
 7377SOL     OW27450   4.704   9.156  11.133  0.0882  0.4098 -0.3479
 7377SOL    HW127451   4.740   9.224  11.191  1.3679  0.6323 -1.3442
 7377SOL    HW227452   4.779   9.128  11.081 -0.7802 -0.6385 -1.0652
 7378SOL     OW27453   2.003   0.798   7.106 -0.0463 -0.1807  0.0705
 7378SOL    HW127454   2.041   0.760   7.027  0.3341 -0.7793  0.5318
 7378SOL    HW227455   1.927   0.847   7.075  0.7253  0.4885 -0.7843
 7379SOL     OW27456   4.992  11.273   1.451 -0.4023 -0.3703 -0.1102
 7379SOL    HW127457   5.040  11.339   1.402  0.2591 -1.2642 -0.6959
 7379SOL    HW227458   5.052  11.248   1.521  0.0599 -1.5746 -0.9112
 7380SOL     OW27459   7.233   2.086   1.976  0.0256 -0.0793  0.1819
 7380SOL    HW127460   7.212   2.000   2.012  3.6600 -1.2130 -0.0189
 7380SOL    HW227461   7.291   2.126   2.041  1.7351  0.4306 -1.5621
 7381SOL     OW27462   5.577  10.199   0.077  0.2985  0.8843 -0.1486
 7381SOL    HW127463   5.547  10.204  -0.014  1.6024  1.3563 -0.5642
 7381SOL    HW227464   5.524  10.265   0.123 -0.7689  0.2477 -0.4316
 7382SOL     OW27465  11.796   4.929  10.676 -0.0849  0.2039  0.4363
 7382SOL    HW127466  11.745   4.874  10.736  0.7895  0.5554  1.5520
 7382SOL    HW227467  11.765   4.906  10.589 -2.2657  0.5264  1.0610
 7383SOL     OW27468  10.627  11.581   3.983 -0.0319 -0.3778 -0.0257
 7383SOL    HW127469  10.534  11.599   3.972  0.6062  2.7158 -1.4843
 7383SOL    HW227470  10.653  11.633   4.059  0.8229  0.4768 -0.8577
 7384SOL     OW27471   8.663   6.091  11.231 -0.7368  0.1013 -0.0480
 7384SOL    HW127472   8.591   6.057  11.284 -1.6539  2.8147  0.6073
 7384SOL    HW227473   8.741   6.046  11.264 -2.0433 -2.9779 -0.8400
 7385SOL     OW27474   9.747   0.340   4.931 -0.0077 -0.3725 -0.0725
 7385SOL    HW127475   9.697   0.359   5.010 -0.2494  0.3427 -0.3878
 7385SOL    HW227476   9.696   0.380   4.860 -0.1691 -1.6003 -0.6838
 7386SOL     OW27477  11.160  10.897   3.108  0.2175  0.6227 -0.2695
 7386SOL    HW127478  11.087  10.836   3.095  1.1211 -0.3432 -0.9125
 7386SOL    HW227479  11.198  10.873   3.192  0.8765 -0.0420 -0.7474
 7387SOL     OW27480   6.956   2.528   8.163 -0.6560 -0.2487  0.3565
 7387SOL    HW127481   6.921   2.473   8.093 -1.3047 -0.5445  0.9024
 7387SOL    HW227482   6.894   2.601   8.169  0.3573  0.7197 -0.5630
 7388SOL     OW27483   0.502   0.973  11.060 -0.2134 -0.2939 -0.2187
 7388SOL    HW127484   0.511   0.989  11.154 -0.7501  1.3121 -0.4079
 7388SOL    HW227485   0.582   0.926  11.036  0.6079  0.5361  0.8010
 7389SOL     OW27486   3.055   0.097   6.003 -0.7317  0.0055  0.5906
 7389SOL    HW127487   3.085   0.070   5.916 -0.5023 -1.2141  1.0278
 7389SOL    HW227488   2.971   0.139   5.988 -0.4533  0.2737 -0.2734
 7390SOL     OW27489   3.622   2.668   4.324 -0.2118  0.1197 -0.1497
 7390SOL    HW127490   3.588   2.584   4.355  1.2899 -0.2978  0.4425
 7390SOL    HW227491   3.544   2.716   4.295 -1.0820 -1.5030 -0.5975
 7391SOL     OW27492   4.056   4.774   7.843 -0.3174  0.1346 -0.2743
 7391SOL    HW127493   3.982   4.714   7.844  0.3368 -0.6768  0.2589
 7391SOL    HW227494   4.111   4.744   7.772  0.4083 -0.4014  0.4986
 7392SOL     OW27495   1.186   8.715   8.001  0.2723 -0.0242  0.2019
 7392SOL    HW127496   1.237   8.790   7.972  0.5294 -0.2318  0.1179
 7392SOL    HW227497   1.235   8.638   7.971  0.1661 -0.2320  0.5510
 7393SOL     OW27498   0.879   3.185   4.561  0.6526 -0.7150  0.6386
 7393SOL    HW127499   0.863   3.210   4.651  0.2788  0.1135  0.3509
 7393SOL    HW227500   0.970   3.209   4.544  0.7680 -1.0046  0.8266
 7394SOL     OW27501   4.454   3.944   1.944 -0.0334  0.0896 -0.3261
 7394SOL    HW127502   4.546   3.956   1.919 -0.5613  1.2929 -1.8236
 7394SOL    HW227503   4.422   3.875   1.887 -0.4692  0.8052 -0.9703
 7395SOL     OW27504   0.286   7.692   7.162 -0.0122  0.1344 -0.8380
 7395SOL    HW127505   0.224   7.664   7.230  0.5660  1.6201  0.3510
 7395SOL    HW227506   0.359   7.632   7.169 -0.5296 -0.5397 -1.0670
 7396SOL     OW27507   4.723  11.059   2.868  0.8416 -0.3454 -0.1725
 7396SOL    HW127508   4.671  11.045   2.947  2.4656 -0.8162  0.8586
 7396SOL    HW227509   4.702  11.149   2.841 -1.8684 -1.1061 -0.8983
 7397SOL     OW27510   8.584   3.280   8.605  0.4461 -0.0974  0.0068
 7397SOL    HW127511   8.563   3.232   8.685 -0.0766  0.8614  0.4603
 7397SOL    HW227512   8.609   3.367   8.635 -1.5552  0.8700 -0.9441
 7398SOL     OW27513   3.041   5.166   7.905  0.1094 -0.8572 -0.3649
 7398SOL    HW127514   3.093   5.246   7.907 -0.7847 -0.2476 -1.2214
 7398SOL    HW227515   2.955   5.192   7.938 -0.2926 -1.3856 -0.9747
 7399SOL     OW27516   6.757  10.486   1.267  0.0549  0.0585 -0.5794
 7399SOL    HW127517   6.673  10.442   1.273  0.6362 -0.9685  0.6214
 7399SOL    HW227518   6.812  10.427   1.215 -0.0509  0.8971 -1.6791
 7400SOL     OW27519   9.174   0.940   0.261 -0.2217 -0.1148  0.5362
 7400SOL    HW127520   9.158   0.965   0.170  1.1110 -1.4036 -0.0929
 7400SOL    HW227521   9.198   1.022   0.304 -1.2676  0.5820 -0.1558
 7401SOL     OW27522   0.184   8.320  10.247 -0.1189  0.2826  0.1541
 7401SOL    HW127523   0.169   8.239  10.297 -0.9671  0.8065  0.7851
 7401SOL    HW227524   0.114   8.322  10.182  0.4800  0.0339 -0.5137
 7402SOL     OW27525   0.700   9.426   2.699 -0.2411  0.4109 -0.3070
 7402SOL    HW127526   0.694   9.414   2.604  1.0067 -1.3504 -0.2059
 7402SOL    HW227527   0.781   9.476   2.711 -0.0279  0.0318 -0.1452
 7403SOL     OW27528  10.606   5.118   9.938  0.4624  0.0294  0.2161
 7403SOL    HW127529  10.530   5.152   9.890  0.0893 -0.6206  0.3341
 7403SOL    HW227530  10.571   5.090  10.022  0.6235 -1.2569 -0.1209
 7404SOL     OW27531   9.755  11.435   5.709  0.1325  0.1186 -0.6816
 7404SOL    HW127532   9.679  11.381   5.687  0.0089 -0.5725  1.2736
 7404SOL    HW227533   9.800  11.386   5.777  0.4958  2.0873  0.5530
 7405SOL     OW27534   1.528   2.522   8.007  0.0950 -0.2182  0.1728
 7405SOL    HW127535   1.514   2.574   8.086 -0.0043  2.0952 -1.2675
 7405SOL    HW227536   1.623   2.514   8.000  0.3653  2.6834 -1.2192
 7406SOL     OW27537   9.180   9.114  10.891  0.7466 -0.2668  0.1925
 7406SOL    HW127538   9.206   9.131  10.801  0.3090  0.4191  0.1897
 7406SOL    HW227539   9.262   9.098  10.937  1.0424  0.2306 -0.1498
 7407SOL     OW27540   1.495   9.714   6.303 -0.2423  0.5989 -0.8202
 7407SOL    HW127541   1.535   9.629   6.321  0.0695  1.1386  1.3264
 7407SOL    HW227542   1.437   9.698   6.229  2.1123 -0.7484 -2.5160
 7408SOL     OW27543   8.014   6.302   5.920  0.1104 -0.1033 -0.0489
 7408SOL    HW127544   8.018   6.270   5.830 -0.2612 -1.0551  0.2561
 7408SOL    HW227545   7.922   6.327   5.933  0.2277  0.3203 -0.0292
 7409SOL     OW27546   5.329   2.962   2.586 -0.6224  0.4128  0.1589
 7409SOL    HW127547   5.343   2.994   2.676  0.4818 -1.0103  0.5302
 7409SOL    HW227548   5.320   2.867   2.596 -1.2218  0.3104 -1.1729
 7410SOL     OW27549   8.847   7.629   8.835  0.1252 -0.2206 -0.2106
 7410SOL    HW127550   8.783   7.649   8.767 -2.2302  1.7972  2.3335
 7410SOL    HW227551   8.808   7.556   8.884  0.7789 -0.3512  0.1205
 7411SOL     OW27552  11.657   9.686   9.271  0.3066  0.0829  0.0044
 7411SOL    HW127553  11.584   9.631   9.301 -0.1064  0.7889  0.3212
 7411SOL    HW227554  11.733   9.627   9.272 -0.2009 -0.5848 -0.0551
 7412SOL     OW27555   6.696   1.586   5.172 -0.1442  0.4886 -0.3047
 7412SOL    HW127556   6.689   1.676   5.206 -0.4234 -0.0141  1.0534
 7412SOL    HW227557   6.612   1.546   5.194  1.4872 -1.4702  3.4465
 7413SOL     OW27558  11.092   3.388   2.189 -0.0704  0.2341 -0.4451
 7413SOL    HW127559  11.046   3.420   2.268 -2.4336 -0.4173 -1.4684
 7413SOL    HW227560  11.108   3.296   2.207 -0.6723  0.0689 -0.7371
 7414SOL     OW27561   2.960   6.887   9.503  0.3990  0.0607  0.3809
 7414SOL    HW127562   2.970   6.885   9.598 -0.3500  0.6147  0.4837
 7414SOL    HW227563   2.923   6.973   9.484 -0.8365 -0.5769 -0.2552
 7415SOL     OW27564   1.187   2.055   9.415  0.0983 -0.3986  0.0749
 7415SOL    HW127565   1.108   2.030   9.462 -0.1185 -1.7793 -0.9890
 7415SOL    HW227566   1.259   2.033   9.475 -0.2894  1.9771  1.5574
 7416SOL     OW27567  10.902   6.040   6.850 -0.1045 -0.0817  0.3059
 7416SOL    HW127568  10.900   6.037   6.945 -0.4641  1.4950  0.3773
 7416SOL    HW227569  10.955   6.117   6.829 -0.0461 -0.3918 -0.7662
 7417SOL     OW27570   1.730   9.624   8.383 -0.0827  0.0200  0.6065
 7417SOL    HW127571   1.762   9.714   8.371  0.5081 -0.0836  1.3292
 7417SOL    HW227572   1.809   9.573   8.403 -0.6811 -0.1920  2.7426
 7418SOL     OW27573  11.022   5.178   8.406  0.5258 -0.0361 -1.1196
 7418SOL    HW127574  11.046   5.164   8.314  0.7063 -0.8590 -0.9558
 7418SOL    HW227575  10.927   5.186   8.405  0.6933  3.5685 -1.8180
 7419SOL     OW27576   2.198  10.454   9.355 -0.6238  0.1117 -0.1068
 7419SOL    HW127577   2.279  10.463   9.406 -0.1365 -0.4571 -0.7649
 7419SOL    HW227578   2.197  10.532   9.299 -1.4699  1.0607  1.1515
 7420SOL     OW27579   2.390  11.205  11.170 -0.5245 -0.1050 -0.3699
 7420SOL    HW127580   2.341  11.260  11.231 -0.2980  0.7002 -0.9076
 7420SOL    HW227581   2.467  11.176  11.221 -0.6936 -0.0076 -0.0544
 7421SOL     OW27582   7.906   1.137   5.555  0.1122 -0.7787  0.3228
 7421SOL    HW127583   7.813   1.140   5.533  0.0173  0.1509  0.7952
 7421SOL    HW227584   7.945   1.080   5.489 -0.5620 -0.0696 -0.7119
 7422SOL     OW27585   7.441   3.121   3.806 -0.0119 -0.4376 -0.2331
 7422SOL    HW127586   7.496   3.051   3.773 -1.1088 -1.3939 -0.0668
 7422SOL    HW227587   7.503   3.180   3.850  1.3343  0.2645 -2.8384
 7423SOL     OW27588   5.309   3.776   1.773  0.5424 -0.2516  0.0589
 7423SOL    HW127589   5.357   3.816   1.701  0.5920 -0.8416 -0.2371
 7423SOL    HW227590   5.374   3.765   1.842  0.6661 -0.3714 -0.0754
 7424SOL     OW27591   1.471   2.237  11.063  0.1900  0.7105  0.8204
 7424SOL    HW127592   1.456   2.321  11.107 -1.8784 -0.6698  3.0085
 7424SOL    HW227593   1.483   2.260  10.971 -0.6350  3.3725  1.2957
 7425SOL     OW27594   9.234   2.909   9.667 -0.1725  0.6074  0.4815
 7425SOL    HW127595   9.201   2.915   9.757 -1.4238  0.4502  0.0487
 7425SOL    HW227596   9.294   2.984   9.659 -1.6633  1.8872  0.8033
 7426SOL     OW27597  11.412   7.117   0.892 -0.6115 -0.1058  0.3065
 7426SOL    HW127598  11.467   7.050   0.931 -1.1184 -0.4916  0.3735
 7426SOL    HW227599  11.459   7.143   0.812 -0.7187 -1.0131 -0.0683
 7427SOL     OW27600   5.464   1.019  11.729 -0.1098 -0.3625 -0.3744
 7427SOL    HW127601   5.511   1.063  11.658 -0.4248  0.1248 -0.2825
 7427SOL    HW227602   5.490   1.067  11.808 -0.2134 -0.5402 -0.2312
 7428SOL     OW27603   3.994  10.008   7.029  0.7048  0.8723 -0.3906
 7428SOL    HW127604   4.033  10.003   7.116 -3.3695 -0.0477  1.6706
 7428SOL    HW227605   3.967  10.099   7.020 -2.2702  0.3054  1.2521
 7429SOL     OW27606   2.499   4.540   3.799  0.6135 -0.4096  0.3343
 7429SOL    HW127607   2.472   4.542   3.891 -0.4067  2.3531  0.0766
 7429SOL    HW227608   2.467   4.623   3.763  1.0720 -1.3554 -2.5083
 7430SOL     OW27609   6.683  11.748   0.893  0.4414 -0.0807 -0.0035
 7430SOL    HW127610   6.590  11.757   0.914  0.3102  0.3329 -0.7553
 7430SOL    HW227611   6.712  11.673   0.946  0.1672  1.0358  1.8307
 7431SOL     OW27612   6.748   5.706   2.458  0.1196  0.5730 -0.0972
 7431SOL    HW127613   6.810   5.769   2.421  0.3477 -0.0901 -0.8560
 7431SOL    HW227614   6.729   5.646   2.387  0.6111 -0.7606  0.8507
 7432SOL     OW27615   8.990   2.491   9.432  0.1342 -0.2555 -0.3109
 7432SOL    HW127616   9.017   2.539   9.511  0.9657  0.6331 -1.1051
 7432SOL    HW227617   8.899   2.519   9.417 -0.2270 -0.8822  0.6509
 7433SOL     OW27618   0.013   8.759   0.944 -0.1124 -0.1440 -0.4165
 7433SOL    HW127619  -0.035   8.688   0.901 -2.7693  1.3986 -0.1543
 7433SOL    HW227620   0.007   8.738   1.037 -1.9494  0.9732 -0.2470
 7434SOL     OW27621  10.717   0.237   4.892  0.8920  0.3705  0.1509
 7434SOL    HW127622  10.680   0.204   4.974  2.7513 -0.7383  0.6058
 7434SOL    HW227623  10.794   0.182   4.877  1.2923  1.3680 -1.7021
 7435SOL     OW27624   1.355  11.790   0.286  0.1460 -0.5674  0.2150
 7435SOL    HW127625   1.390  11.781   0.374  1.4364 -0.2375 -0.2490
 7435SOL    HW227626   1.328  11.882   0.280  2.0469  0.0061 -0.4000
 7436SOL     OW27627   8.191   1.252  11.729 -0.3250 -0.2088 -0.0420
 7436SOL    HW127628   8.222   1.318  11.792  2.2377 -0.1564 -1.2001
 7436SOL    HW227629   8.096   1.257  11.734 -0.2221  1.5694  1.9659
 7437SOL     OW27630   3.006  10.380   1.230 -0.0891  0.1122  0.2122
 7437SOL    HW127631   3.018  10.287   1.247  0.5757  0.3639  1.1630
 7437SOL    HW227632   3.058  10.424   1.297  1.7745  1.1671 -1.8240
 7438SOL     OW27633   5.172   3.371   8.953  0.1211 -0.2403  0.3850
 7438SOL    HW127634   5.144   3.436   8.889 -0.3971  0.4515  1.2813
 7438SOL    HW227635   5.097   3.312   8.962  0.4368 -0.7323 -0.1152
 7439SOL     OW27636  11.509   7.151   6.138  0.5603  0.3124 -0.0479
 7439SOL    HW127637  11.467   7.095   6.073 -0.9730 -0.3054  1.4145
 7439SOL    HW227638  11.493   7.240   6.107 -0.8448  0.0493 -0.1257
 7440SOL     OW27639   2.403   1.587   7.070 -0.4215  0.2529 -0.9452
 7440SOL    HW127640   2.458   1.629   7.137 -0.8976 -1.4017  0.5440
 7440SOL    HW227641   2.451   1.508   7.046 -0.2557  0.8197 -2.6155
 7441SOL     OW27642   7.954   1.785   1.812  0.0480 -0.2252 -0.0991
 7441SOL    HW127643   7.873   1.822   1.847  0.6146 -0.1416  1.1387
 7441SOL    HW227644   8.015   1.783   1.886  1.6029  0.8810 -1.2759
 7442SOL     OW27645   9.150   9.627   7.463 -0.3176  0.1380 -0.0172
 7442SOL    HW127646   9.192   9.611   7.378 -0.1079  0.3888  0.0365
 7442SOL    HW227647   9.148   9.722   7.471 -1.4942  0.1527 -0.3017
 7443SOL     OW27648  10.083  10.868   8.561  0.3433 -0.0337  0.4163
 7443SOL    HW127649  10.041  10.923   8.496  2.4319  0.6510 -0.4144
 7443SOL    HW227650  10.124  10.798   8.511 -0.6730 -1.3300  1.3043
 7444SOL     OW27651   1.491   4.032   7.104  0.7610  0.7422  0.2062
 7444SOL    HW127652   1.414   4.055   7.156  0.9939  0.7033  0.5755
 7444SOL    HW227653   1.457   4.010   7.018  0.0646 -1.6996  1.0240
 7445SOL     OW27654   4.583  11.382   2.493 -0.0887  0.2951  0.1179
 7445SOL    HW127655   4.603  11.296   2.456 -0.3961  0.7955 -1.2707
 7445SOL    HW227656   4.495  11.374   2.529 -0.4488  0.2350 -0.7469
 7446SOL     OW27657   9.786   3.121   9.512  0.1831  0.1813  0.8512
 7446SOL    HW127658   9.800   3.095   9.603 -0.6301 -1.6306  0.4937
 7446SOL    HW227659   9.874   3.137   9.479  0.5181  0.4722  1.8307
 7447SOL     OW27660   7.555   1.963   4.602  0.2348  0.1607  0.1996
 7447SOL    HW127661   7.557   1.872   4.633  0.3143  0.3480  0.7444
 7447SOL    HW227662   7.464   1.976   4.574 -0.2874  0.5027  1.9316
 7448SOL     OW27663   0.891   2.175  10.178  0.2574 -0.1048 -0.4435
 7448SOL    HW127664   0.985   2.161  10.163 -0.0274  0.8270 -3.9975
 7448SOL    HW227665   0.848   2.110  10.122 -1.1479  1.2335 -0.9796
 7449SOL     OW27666   6.978   3.684   6.639 -0.1989 -0.0138  0.6940
 7449SOL    HW127667   6.912   3.679   6.707  0.2699  0.7273  1.2231
 7449SOL    HW227668   7.061   3.669   6.684 -0.0234 -1.4560 -0.0510
 7450SOL     OW27669   0.442   8.131  10.222 -0.0291  0.1084  0.1618
 7450SOL    HW127670   0.486   8.199  10.171  2.0211 -0.5211  0.9909
 7450SOL    HW227671   0.495   8.122  10.301 -1.9964 -0.3341  1.4995
 7451SOL     OW27672   4.495   8.361   9.548 -0.2631  0.2274 -0.2111
 7451SOL    HW127673   4.489   8.296   9.618  1.4866  1.1291  0.8431
 7451SOL    HW227674   4.498   8.445   9.595 -0.4605  0.9381 -1.4448
 7452SOL     OW27675   7.144   0.691   7.672 -0.0054  0.2360  0.4060
 7452SOL    HW127676   7.195   0.772   7.661 -0.0465  0.2646  0.4297
 7452SOL    HW227677   7.069   0.717   7.725 -0.0714  0.2036  0.3281
 7453SOL     OW27678   8.523   7.724   8.107  0.2919 -0.0853  0.0010
 7453SOL    HW127679   8.484   7.637   8.097  1.2951 -0.5617  0.0770
 7453SOL    HW227680   8.608   7.707   8.149  1.4794  0.6830 -1.9258
 7454SOL     OW27681   0.904   5.820   7.226  0.8563 -0.2801  0.8926
 7454SOL    HW127682   0.826   5.789   7.272  0.0065  0.8172  0.2358
 7454SOL    HW227683   0.923   5.904   7.265  0.0544  0.7328 -0.7572
 7455SOL     OW27684   3.227  10.090   0.964  0.3782  0.1757  0.2015
 7455SOL    HW127685   3.139  10.090   0.927 -0.9597  0.0935  3.0656
 7455SOL    HW227686   3.268  10.169   0.930 -1.4134  1.0867  0.0501
 7456SOL     OW27687   1.774   6.060   0.932  0.5962  0.0341  0.1627
 7456SOL    HW127688   1.819   5.980   0.905 -0.9517 -0.5553 -0.7897
 7456SOL    HW227689   1.760   6.049   1.026  0.1514 -0.9571 -0.0062
 7457SOL     OW27690   2.609   8.205   2.268  0.4677  0.7115 -0.4966
 7457SOL    HW127691   2.644   8.284   2.309 -0.0608  0.2268  0.9294
 7457SOL    HW227692   2.519   8.229   2.244  0.0116  0.2927  0.7349
 7458SOL     OW27693   7.951   6.153   3.489  0.4841  0.1781 -0.3756
 7458SOL    HW127694   7.867   6.174   3.450  1.2548  2.5274 -0.8936
 7458SOL    HW227695   7.999   6.108   3.419  0.7955  1.7450 -1.2095
 7459SOL     OW27696   8.835   7.287   2.872  0.6430 -0.0018  0.0582
 7459SOL    HW127697   8.740   7.295   2.871  0.6363 -0.0297 -1.0444
 7459SOL    HW227698   8.854   7.233   2.948 -0.1523  0.7854  0.8330
 7460SOL     OW27699   4.979   5.652   9.680  0.1371 -0.4208 -0.1427
 7460SOL    HW127700   5.012   5.562   9.681  0.2563 -0.3787 -0.2294
 7460SOL    HW227701   5.047   5.702   9.634 -0.4034 -0.4707 -1.0208
 7461SOL     OW27702   8.681   5.164   9.590 -0.0848  0.0770  0.6163
 7461SOL    HW127703   8.745   5.206   9.647 -0.5441  0.0958  1.1273
 7461SOL    HW227704   8.610   5.228   9.582 -1.3679 -1.0410  2.4128
 7462SOL     OW27705  10.006  11.771   6.941  0.9976 -0.0642  0.2339
 7462SOL    HW127706  10.026  11.862   6.962  0.0089  0.0735  0.6311
 7462SOL    HW227707   9.955  11.739   7.015  0.0624 -0.4893 -0.5727
 7463SOL     OW27708   0.315   1.222   3.952 -0.5660 -0.2337 -0.0477
 7463SOL    HW127709   0.379   1.218   3.882 -1.2332  1.4311 -0.8001
 7463SOL    HW227710   0.273   1.307   3.942 -0.8653 -0.0488  2.2321
 7464SOL     OW27711   6.802   0.243   8.675  0.4843 -0.0365  0.3053
 7464SOL    HW127712   6.804   0.329   8.717  0.3686 -0.4501  1.1803
 7464SOL    HW227713   6.710   0.217   8.679  0.1310  0.7080 -1.8809
 7465SOL     OW27714  11.495   4.926   6.517  0.4726 -0.1683  0.1775
 7465SOL    HW127715  11.407   4.943   6.552  0.0480  0.8008 -1.2734
 7465SOL    HW227716  11.545   4.895   6.592 -0.8099  0.3470  1.2837
 7466SOL     OW27717   1.698   4.230   2.443  0.1144 -0.1358  0.2091
 7466SOL    HW127718   1.711   4.197   2.355  1.1874 -1.2277  0.7538
 7466SOL    HW227719   1.756   4.306   2.450  0.8160 -0.6816  0.3140
 7467SOL     OW27720  10.716   9.325   8.029  0.7046  0.2204 -0.0247
 7467SOL    HW127721  10.674   9.405   7.997  0.4714  0.6981  1.3719
 7467SOL    HW227722  10.715   9.335   8.124  0.3142 -1.6315  0.1943
 7468SOL     OW27723   8.826   8.154  10.792 -0.0327 -0.8511  0.4219
 7468SOL    HW127724   8.816   8.237  10.745 -2.0026 -1.2704  0.0021
 7468SOL    HW227725   8.878   8.099  10.733 -2.5826 -1.4156 -1.4450
 7469SOL     OW27726   8.205   6.456   4.431 -0.1338  0.4153  0.1591
 7469SOL    HW127727   8.127   6.442   4.377 -0.5180  0.3795  0.7206
 7469SOL    HW227728   8.231   6.546   4.412  0.6567 -0.0876 -1.2703
 7470SOL     OW27729   0.838  10.990   8.556 -0.4054  0.2008  0.3051
 7470SOL    HW127730   0.786  11.027   8.484 -0.8813 -0.3756  0.3421
 7470SOL    HW227731   0.779  10.994   8.632  0.4454  1.7822  0.9402
 7471SOL     OW27732  11.704   6.090   0.169 -0.1956  0.7336  0.7695
 7471SOL    HW127733  11.720   6.065   0.260  0.5795 -2.8843 -0.1981
 7471SOL    HW227734  11.775   6.152   0.150  0.6443  0.2803  2.1833
 7472SOL     OW27735   9.202   9.420   8.684  0.2479  0.2830  0.1656
 7472SOL    HW127736   9.211   9.384   8.772 -1.8770 -1.2612 -0.1844
 7472SOL    HW227737   9.281   9.474   8.672  0.4752  0.7678  3.0803
 7473SOL     OW27738   5.387   5.140   8.113 -0.1252 -0.2732  0.7294
 7473SOL    HW127739   5.335   5.212   8.149  0.5467  0.8587 -0.4916
 7473SOL    HW227740   5.339   5.113   8.034  0.1787 -0.4426  0.5998
 7474SOL     OW27741   8.142   8.870   8.909  0.2296  0.0812  0.5742
 7474SOL    HW127742   8.102   8.829   8.833 -1.8109  1.3201  0.9233
 7474SOL    HW227743   8.107   8.822   8.984 -0.9431  1.4014  0.9035
 7475SOL     OW27744   3.935   4.617   5.634  0.1190 -0.3704  0.6436
 7475SOL    HW127745   3.898   4.529   5.636 -0.5140 -0.2081 -1.6915
 7475SOL    HW227746   3.867   4.673   5.670 -0.0132 -0.6638  0.8502
 7476SOL     OW27747  10.719   1.246   3.948  0.0187 -0.3171 -0.2186
 7476SOL    HW127748  10.703   1.339   3.933 -1.5852 -0.2972  1.3907
 7476SOL    HW227749  10.635   1.204   3.932  0.7067 -1.5108 -0.8505
 7477SOL     OW27750   4.896   5.331   8.286  0.3045 -0.0760 -0.5063
 7477SOL    HW127751   4.922   5.263   8.348 -0.4995 -0.1106 -0.2031
 7477SOL    HW227752   4.867   5.404   8.342  0.5105  0.2603 -0.8340
 7478SOL     OW27753  10.749  10.231   6.442 -0.3627  0.1051  0.0671
 7478SOL    HW127754  10.756  10.292   6.516 -1.0353 -0.8761  0.9787
 7478SOL    HW227755  10.687  10.165   6.472 -0.8943 -0.1578 -1.5135
 7479SOL     OW27756   7.279   8.595   4.065 -0.4756  0.0939 -0.2952
 7479SOL    HW127757   7.329   8.591   4.146 -1.3680  0.7149  0.3028
 7479SOL    HW227758   7.259   8.503   4.045  1.2780 -0.2123 -0.8153
 7480SOL     OW27759  10.569   3.174   9.010 -0.5306  0.2870  0.3875
 7480SOL    HW127760  10.602   3.090   8.978 -0.0934  0.3877  0.5684
 7480SOL    HW227761  10.526   3.213   8.934 -0.8706 -0.1649  0.3403
 7481SOL     OW27762   5.927   4.404   9.823  0.5354  0.1748 -0.4407
 7481SOL    HW127763   6.014   4.443   9.836  0.2226  0.5169  0.8385
 7481SOL    HW227764   5.893   4.393   9.912 -0.4620 -0.5836 -0.8975
 7482SOL     OW27765   3.877  10.936   9.916 -0.2589 -0.1955 -0.0623
 7482SOL    HW127766   3.845  10.887   9.840  0.5202 -0.2742 -0.3500
 7482SOL    HW227767   3.816  11.010   9.925  0.6640  0.8494 -1.8874
 7483SOL     OW27768   4.369   8.748   1.636 -0.4887  0.2522  0.0366
 7483SOL    HW127769   4.356   8.702   1.553  2.4018 -0.6835 -0.0050
 7483SOL    HW227770   4.330   8.834   1.622  0.6838  0.4307 -2.6433
 7484SOL     OW27771  10.347   5.667   6.378 -0.3806 -0.3902 -0.5070
 7484SOL    HW127772  10.266   5.718   6.374 -0.8340 -1.0689 -0.1251
 7484SOL    HW227773  10.416   5.733   6.370 -0.9351  0.4103  0.8308
 7485SOL     OW27774   2.143   4.667   5.308 -0.3205  0.5597  0.9124
 7485SOL    HW127775   2.201   4.592   5.296 -0.2315  0.2478  2.8659
 7485SOL    HW227776   2.201   4.743   5.305  0.2530  0.2539  2.7806
 7486SOL     OW27777   4.538   2.111   4.276  0.9814 -0.4090  0.2442
 7486SOL    HW127778   4.500   2.029   4.245  2.6151 -1.0898 -0.0154
 7486SOL    HW227779   4.471   2.147   4.334 -1.0539 -0.3748 -1.9759
 7487SOL     OW27780   1.877   8.802   0.947  0.1825  0.0679  0.0927
 7487SOL    HW127781   1.873   8.865   1.019 -1.7191 -1.7312  1.6884
 7487SOL    HW227782   1.927   8.728   0.982  1.3830  0.1397 -1.3475
 7488SOL     OW27783   9.180   8.170   5.166  0.0290 -0.5605 -0.2338
 7488SOL    HW127784   9.217   8.207   5.246  1.5617 -0.6266 -0.8724
 7488SOL    HW227785   9.231   8.211   5.095 -2.1394  0.4897 -1.2842
 7489SOL     OW27786   4.680   6.429   4.650 -0.7568 -0.1563 -0.0687
 7489SOL    HW127787   4.702   6.467   4.565 -2.5920  0.5337 -0.2937
 7489SOL    HW227788   4.743   6.467   4.711  0.1834 -0.1719 -1.0083
 7490SOL     OW27789  11.253   6.354   0.952  0.0377 -0.7886 -0.4583
 7490SOL    HW127790  11.245   6.383   0.861 -1.6724 -1.3831 -0.5414
 7490SOL    HW227791  11.260   6.259   0.946  0.4840 -0.7857  0.0121
 7491SOL     OW27792   5.819   8.536   5.215  0.3068 -0.2503 -0.4239
 7491SOL    HW127793   5.907   8.499   5.226  0.6350  0.1326 -1.5922
 7491SOL    HW227794   5.834   8.629   5.199 -0.4108  0.0760  0.7334
 7492SOL     OW27795   1.908  10.641   3.171  0.2050  0.1617 -0.5600
 7492SOL    HW127796   1.973  10.619   3.104  1.1040  2.0048 -0.3684
 7492SOL    HW227797   1.954  10.702   3.229 -1.9063  2.2034 -0.8674
 7493SOL     OW27798   5.679   9.203   1.114 -0.2513  0.3906 -0.3499
 7493SOL    HW127799   5.602   9.213   1.058  0.6594  0.2874 -1.6661
 7493SOL    HW227800   5.720   9.121   1.084 -0.8184 -0.7618  1.8366
 7494SOL     OW27801   3.576   3.326   9.521  0.0855 -0.2470 -0.4886
 7494SOL    HW127802   3.651   3.304   9.577  0.1974  1.1617 -0.0467
 7494SOL    HW227803   3.541   3.407   9.558 -1.6570 -0.8562 -0.7189
 7495SOL     OW27804  11.178  10.800   2.359  0.2862 -0.1853 -0.1527
 7495SOL    HW127805  11.085  10.785   2.375 -0.2445  1.3298 -1.6051
 7495SOL    HW227806  11.205  10.857   2.431 -0.3073  0.6879 -0.6144
 7496SOL     OW27807   1.689  11.785   5.949  0.7003  0.7797  0.2859
 7496SOL    HW127808   1.697  11.693   5.925 -1.4133  0.4592  0.6220
 7496SOL    HW227809   1.664  11.829   5.867  0.0304  0.7560  0.4691
 7497SOL     OW27810   3.612   5.425   7.636 -0.1215  0.3012  0.1961
 7497SOL    HW127811   3.696   5.386   7.613 -0.4085  0.2434 -0.7595
 7497SOL    HW227812   3.578   5.370   7.707  0.5148  0.1666  0.4021
 7498SOL     OW27813   1.215   3.378  11.572  0.4995  0.0606  0.1465
 7498SOL    HW127814   1.276   3.310  11.542 -0.0124  0.1116 -1.0663
 7498SOL    HW227815   1.268   3.457  11.578  0.6901 -0.0201 -0.3681
 7499SOL     OW27816   4.426   7.847   9.037  0.5776  0.1234 -0.3755
 7499SOL    HW127817   4.445   7.776   9.099 -0.3505  0.4881  0.3660
 7499SOL    HW227818   4.391   7.803   8.960 -3.3284 -0.2008  1.3212
 7500SOL     OW27819   6.340   1.603  11.297 -0.0426  0.0545 -0.0871
 7500SOL    HW127820   6.390   1.681  11.318 -0.3697 -0.2707  2.2371
 7500SOL    HW227821   6.349   1.548  11.375 -2.4434 -0.8162 -0.3464
 7501SOL     OW27822   2.682  11.337  10.448 -0.4381 -0.4328 -0.0897
 7501SOL    HW127823   2.725  11.418  10.418 -2.1903 -0.4330 -2.9198
 7501SOL    HW227824   2.637  11.363  10.528 -1.0520  1.4700 -0.9821
 7502SOL     OW27825   6.642   1.267   5.047 -0.3753 -0.1008  0.3237
 7502SOL    HW127826   6.657   1.329   5.119 -0.7979  2.0887 -1.3793
 7502SOL    HW227827   6.728   1.252   5.010 -0.3993  0.3322  0.0834
 7503SOL     OW27828   7.463   3.864   9.840 -0.2385 -0.3564 -0.3877
 7503SOL    HW127829   7.399   3.925   9.876 -0.0083  0.0593 -0.6851
 7503SOL    HW227830   7.533   3.919   9.806 -0.1208 -0.7730 -0.8383
 7504SOL     OW27831   8.906   8.184   9.063 -0.3163 -0.0154  0.0212
 7504SOL    HW127832   8.925   8.262   9.115 -0.0361  1.5458 -2.2894
 7504SOL    HW227833   8.922   8.211   8.972 -2.8870 -1.9363 -1.1141
 7505SOL     OW27834   8.443   2.241   0.492  0.2096  0.3659  0.0764
 7505SOL    HW127835   8.427   2.225   0.585  0.8654  0.2275  0.1708
 7505SOL    HW227836   8.536   2.221   0.480  0.8555  3.0022 -0.0075
 7506SOL     OW27837   6.378   0.992   4.149 -0.2337  0.5348 -0.0340
 7506SOL    HW127838   6.340   0.913   4.188 -1.3838  0.6980 -0.7553
 7506SOL    HW227839   6.352   0.988   4.057  0.0133  1.5599 -0.1614
 7507SOL     OW27840   8.296   3.143   1.582 -0.2475  0.2622  0.5579
 7507SOL    HW127841   8.277   3.177   1.670  1.3200  2.5272  0.1203
 7507SOL    HW227842   8.274   3.215   1.523  0.2961 -0.6082 -0.7585
 7508SOL     OW27843   0.278   1.231   7.321 -0.2885  0.7083 -0.0790
 7508SOL    HW127844   0.288   1.193   7.409  2.4776 -0.8276 -0.9072
 7508SOL    HW227845   0.348   1.296   7.315  1.6707 -1.3985 -2.0765
 7509SOL     OW27846   3.413   2.996   0.152 -0.1386  0.0949  0.1930
 7509SOL    HW127847   3.389   3.073   0.203  1.4704  0.8378 -0.1151
 7509SOL    HW227848   3.335   2.978   0.098 -0.3479  1.8852 -0.1718
 7510SOL     OW27849   4.884   1.740   4.288 -0.0674  0.1055  0.2544
 7510SOL    HW127850   4.904   1.785   4.370  1.8357 -1.1702  0.5557
 7510SOL    HW227851   4.940   1.784   4.223 -0.5276  0.1832 -0.1016
 7511SOL     OW27852  10.326   1.331   9.403  0.3190  0.2191 -0.5522
 7511SOL    HW127853  10.388   1.347   9.332  0.0374  0.6574 -0.7060
 7511SOL    HW227854  10.349   1.245   9.437  1.5093  0.7015 -0.0904
 7512SOL     OW27855   9.574   2.189   0.461  0.8322 -0.2431 -0.3212
 7512SOL    HW127856   9.562   2.164   0.553 -0.1129  0.1987 -0.3014
 7512SOL    HW227857   9.486   2.181   0.423  0.7168  1.7609 -0.6070
 7513SOL     OW27858   8.862   0.729   8.768  0.6232  0.1394 -0.5704
 7513SOL    HW127859   8.947   0.693   8.793 -0.2783 -2.5899 -1.0789
 7513SOL    HW227860   8.801   0.656   8.779 -1.4537  1.6648 -1.3607
 7514SOL     OW27861   8.484   9.657  10.895  0.7298 -0.1603  0.5100
 7514SOL    HW127862   8.541   9.731  10.916  1.2432 -0.8587  1.7589
 7514SOL    HW227863   8.483   9.605  10.976 -1.1070 -0.5534  0.2620
 7515SOL     OW27864   9.210  10.602   6.062 -0.5504  0.1030 -0.6867
 7515SOL    HW127865   9.246  10.606   6.150  0.0812 -0.6289 -0.9114
 7515SOL    HW227866   9.115  10.600   6.076 -0.4506 -0.2414 -0.0223
 7516SOL     OW27867   7.790   4.698   4.481  0.7870  0.3474  0.1577
 7516SOL    HW127868   7.706   4.745   4.477  0.9161  0.5075 -1.2351
 7516SOL    HW227869   7.850   4.752   4.430  1.2144 -0.8018 -0.5919
 7517SOL     OW27870   0.058   2.607   9.253  0.7438 -0.2284 -0.0636
 7517SOL    HW127871   0.052   2.696   9.288 -0.3871 -0.6563  0.9075
 7517SOL    HW227872   0.147   2.601   9.217  0.5939  1.5288 -0.8548
 7518SOL     OW27873   7.250   8.262   2.506 -0.1081  0.3457  0.4158
 7518SOL    HW127874   7.340   8.280   2.481 -0.7051  2.6190 -0.3916
 7518SOL    HW227875   7.250   8.270   2.602  0.7779 -1.1353  0.5764
 7519SOL     OW27876   6.941   5.977   6.725 -0.1711  0.4276  0.0029
 7519SOL    HW127877   6.940   6.021   6.640 -1.9728 -0.0014 -0.2320
 7519SOL    HW227878   6.884   5.901   6.714 -0.7275  0.5606  1.6794
 7520SOL     OW27879   9.796   9.751   3.448  0.7329  0.0176 -0.0127
 7520SOL    HW127880   9.827   9.841   3.445  2.7663 -0.6249 -0.0356
 7520SOL    HW227881   9.786   9.725   3.356 -1.8258  0.7887 -0.0184
 7521SOL     OW27882   9.794   2.474   3.562  0.1374  0.2582  0.3720
 7521SOL    HW127883   9.722   2.472   3.499 -0.8869 -1.0450  1.5284
 7521SOL    HW227884   9.834   2.560   3.550 -0.7259  0.4586 -1.2736
 7522SOL     OW27885  11.786   5.577  11.441  0.6500  0.2064 -0.1753
 7522SOL    HW127886  11.726   5.547  11.373  0.0274  1.3281 -0.1344
 7522SOL    HW227887  11.848   5.504  11.452 -0.0385 -0.5203 -0.9880
 7523SOL     OW27888   0.097   4.556  11.727  0.0750 -0.6740 -0.1069
 7523SOL    HW127889   0.104   4.521  11.816  1.4056 -0.8787 -0.2597
 7523SOL    HW227890   0.188   4.574  11.702 -0.3643  0.2840 -1.0738
 7524SOL     OW27891   6.424   8.467  10.611  0.1348 -0.3201 -0.4100
 7524SOL    HW127892   6.518   8.457  10.596  0.2045 -1.3520  0.5246
 7524SOL    HW227893   6.397   8.538  10.553  2.0875  2.2708  1.6530
 7525SOL     OW27894   8.739   9.315   0.814 -0.1822 -0.7916  0.2785
 7525SOL    HW127895   8.662   9.367   0.793 -0.8593 -1.8137  0.1580
 7525SOL    HW227896   8.753   9.261   0.736  0.7500 -0.5014  0.2377
 7526SOL     OW27897   1.882   4.999   6.906  0.4159  0.2027 -0.0154
 7526SOL    HW127898   1.832   5.042   6.976  1.1883  0.4847  0.3819
 7526SOL    HW227899   1.847   4.910   6.903 -3.0240  1.4105 -2.5785
 7527SOL     OW27900   2.567   5.997  10.164 -0.4385  0.5009  0.0182
 7527SOL    HW127901   2.600   6.010  10.075 -0.1933  0.5549  0.1138
 7527SOL    HW227902   2.595   5.909  10.188 -0.3783  0.5393  0.0924
 7528SOL     OW27903   3.941   8.035   8.703  0.6798  0.0593  0.4702
 7528SOL    HW127904   3.992   8.026   8.784  0.6544  0.0360  0.4836
 7528SOL    HW227905   3.922   8.129   8.697 -0.2074 -0.0640  1.0438
 7529SOL     OW27906   1.095   8.499  11.110 -0.0480 -0.8420  0.4432
 7529SOL    HW127907   1.169   8.472  11.056 -0.2847 -1.5174  0.4377
 7529SOL    HW227908   1.034   8.539  11.049  0.2947 -0.3100  0.4427
 7530SOL     OW27909   5.766  11.065   5.972 -0.2942 -0.5393 -0.0324
 7530SOL    HW127910   5.840  11.018   5.934  1.2218  1.3368  0.4411
 7530SOL    HW227911   5.740  11.011   6.047  0.8222 -1.0689 -0.0029
 7531SOL     OW27912   3.635   1.594   3.241 -0.1453  0.3380  1.0920
 7531SOL    HW127913   3.544   1.567   3.251  0.2772 -0.7711  2.1106
 7531SOL    HW227914   3.633   1.689   3.247 -1.2202  0.3166  1.2125
 7532SOL     OW27915  10.368  11.789   9.658 -0.1072 -0.8378 -0.3777
 7532SOL    HW127916  10.310  11.861   9.683 -0.5246 -1.2389 -0.1885
 7532SOL    HW227917  10.456  11.821   9.679 -0.3896 -0.8798  0.9177
 7533SOL     OW27918   3.212   4.241   9.011  0.6554  0.0461  0.1824
 7533SOL    HW127919   3.174   4.326   8.987  1.7952  0.6638  0.4718
 7533SOL    HW227920   3.148   4.202   9.070 -0.8101 -0.1923 -1.4723
 7534SOL     OW27921   1.696   6.540   7.268 -0.3875  0.0642 -0.3016
 7534SOL    HW127922   1.646   6.495   7.336  0.5219 -0.2909  0.1450
 7534SOL    HW227923   1.764   6.478   7.243 -0.2004  0.5172 -0.9465
 7535SOL     OW27924   6.413   2.407   9.726 -0.2302 -0.2429 -0.4623
 7535SOL    HW127925   6.478   2.473   9.751 -1.6027  1.1779 -0.5347
 7535SOL    HW227926   6.414   2.345   9.799 -1.8947  2.1405  1.7740
 7536SOL     OW27927   0.609   6.789  10.580  0.1959 -0.1913 -0.0747
 7536SOL    HW127928   0.592   6.876  10.545 -0.0849 -0.4364 -0.5495
 7536SOL    HW227929   0.704   6.780  10.577  0.1432 -0.4246 -1.2904
 7537SOL     OW27930   7.828   5.391   7.604  0.0151 -0.3753  0.9554
 7537SOL    HW127931   7.891   5.336   7.651 -0.3421 -0.4040  1.4090
 7537SOL    HW227932   7.881   5.441   7.542  0.6940  0.6805  2.3317
 7538SOL     OW27933   8.573   4.245   2.016 -0.6685  0.4605  0.7179
 7538SOL    HW127934   8.595   4.211   2.103 -0.3697 -0.0068  0.4584
 7538SOL    HW227935   8.656   4.273   1.979 -0.7726  0.5019  0.5129
 7539SOL     OW27936   6.959  10.534   6.244 -0.5133  0.2028  0.5920
 7539SOL    HW127937   6.879  10.522   6.193 -0.2817 -0.2557  0.3345
 7539SOL    HW227938   6.965  10.628   6.257  0.6226  0.5807 -2.1594
 7540SOL     OW27939   4.864   8.268   8.289  0.1703  0.6745 -0.3122
 7540SOL    HW127940   4.950   8.296   8.257  0.6237  0.4434  0.6838
 7540SOL    HW227941   4.882   8.192   8.344 -0.8671 -0.4912 -1.5223
 7541SOL     OW27942   6.399   8.005   6.170 -0.1909 -0.1448 -0.0229
 7541SOL    HW127943   6.413   7.995   6.264  0.2336 -1.0606 -0.1797
 7541SOL    HW227944   6.378   7.917   6.139 -1.0827  0.2766 -0.6655
 7542SOL     OW27945   8.527   8.455   8.606  0.2477  0.1443 -1.1857
 7542SOL    HW127946   8.487   8.489   8.686 -0.3853 -0.9038 -1.0287
 7542SOL    HW227947   8.497   8.514   8.537 -3.6636 -1.8041 -1.4813
 7543SOL     OW27948  10.007   8.136   2.838 -0.3472 -0.4099  0.1767
 7543SOL    HW127949  10.047   8.184   2.766  0.2613 -1.7084 -0.3842
 7543SOL    HW227950   9.974   8.055   2.798  0.8456 -1.5972  1.4749
 7544SOL     OW27951   7.547   5.197  10.001  0.1060 -0.2085 -0.7872
 7544SOL    HW127952   7.554   5.119   9.945 -2.1864 -1.0180 -0.0876
 7544SOL    HW227953   7.626   5.195  10.054  0.8826 -1.1215 -1.9019
 7545SOL     OW27954   7.233   0.726   0.707 -0.0769  0.1780  0.5858
 7545SOL    HW127955   7.226   0.682   0.622  0.2228  0.8076  0.2291
 7545SOL    HW227956   7.189   0.810   0.694  0.6845  0.6239  0.8072
 7546SOL     OW27957   7.481   4.837   9.882  0.2293 -0.0296 -0.3099
 7546SOL    HW127958   7.545   4.774   9.913 -0.7883 -1.7547 -1.5269
 7546SOL    HW227959   7.432   4.790   9.814 -0.5118  2.1194 -1.3499
 7547SOL     OW27960   3.838   5.450   2.808  0.7594  0.3182 -0.2403
 7547SOL    HW127961   3.790   5.482   2.884 -0.4009 -1.9319  0.0469
 7547SOL    HW227962   3.770   5.422   2.747  1.6838 -0.5720 -0.8937
 7548SOL     OW27963   3.913  10.679   8.268 -0.5827 -0.0801 -0.8212
 7548SOL    HW127964   3.873  10.594   8.288 -1.6132  0.4812 -0.4543
 7548SOL    HW227965   3.996  10.678   8.316 -0.5979 -0.8697 -0.8042
 7549SOL     OW27966   3.780   1.437  10.779 -0.2752 -0.3448 -0.7011
 7549SOL    HW127967   3.873   1.460  10.783 -0.4783  0.9177 -2.1313
 7549SOL    HW227968   3.748   1.452  10.868  0.0193  3.4790 -1.0652
 7550SOL     OW27969   0.710   5.680  10.760 -0.3672 -0.0812 -0.3347
 7550SOL    HW127970   0.764   5.670  10.839  0.6848  0.8083 -0.9138
 7550SOL    HW227971   0.743   5.613  10.700 -0.7231 -0.3280 -0.2539
 7551SOL     OW27972   7.370   3.007   4.803  0.0351  0.1385 -0.0860
 7551SOL    HW127973   7.434   3.078   4.797  1.3681 -0.9781  0.3916
 7551SOL    HW227974   7.329   3.019   4.889  1.4967 -0.6570  0.7489
 7552SOL     OW27975   5.342  11.741   0.578  0.2250  0.6676  0.2090
 7552SOL    HW127976   5.307  11.792   0.505 -2.3015 -0.6066  0.4188
 7552SOL    HW227977   5.418  11.790   0.608 -0.4563  2.7955 -1.3454
 7553SOL     OW27978  11.229   9.928   0.848 -0.0090 -0.1743 -0.0206
 7553SOL    HW127979  11.148   9.971   0.820  0.6803 -0.4859 -2.7764
 7553SOL    HW227980  11.202   9.839   0.871 -0.5228 -0.1165 -0.3800
 7554SOL     OW27981   0.995  10.279   8.898  0.3280  0.5109 -0.2528
 7554SOL    HW127982   1.070  10.224   8.920  1.0334  0.5198 -2.4012
 7554SOL    HW227983   0.921  10.239   8.943  0.7279 -2.4888 -2.0387
 7555SOL     OW27984  10.930   5.749   6.174 -0.0590 -0.0534 -0.1555
 7555SOL    HW127985  10.971   5.669   6.144  0.7974  0.0769  0.6049
 7555SOL    HW227986  10.840   5.743   6.144 -0.0279 -1.3357 -0.0350
 7556SOL     OW27987   5.356  11.482   0.178  0.1735 -0.2994  0.2867
 7556SOL    HW127988   5.362  11.484   0.083 -1.0349  2.5114  0.1485
 7556SOL    HW227989   5.421  11.418   0.205  0.7157 -1.0142 -2.3966
 7557SOL     OW27990  11.764  10.393   7.415  0.0100  0.1565  0.0110
 7557SOL    HW127991  11.824  10.361   7.347  0.0955 -0.2482  0.2719
 7557SOL    HW227992  11.791  10.346   7.494  1.2187  2.0546  0.8025
 7558SOL     OW27993   6.224   4.157  10.724  0.4430 -0.1733  0.1477
 7558SOL    HW127994   6.250   4.065  10.715 -0.8535 -0.4398 -1.4980
 7558SOL    HW227995   6.212   4.187  10.634  1.6693  1.8963  0.6152
 7559SOL     OW27996   1.598   6.474   2.053 -0.4094  0.0081  0.3050
 7559SOL    HW127997   1.650   6.400   2.084 -1.5373 -1.7313 -1.6576
 7559SOL    HW227998   1.619   6.480   1.960 -1.9207  0.7604 -0.0229
 7560SOL     OW27999   8.187   4.477   6.183 -0.1888  0.3523  0.0855
 7560SOL    HW128000   8.164   4.439   6.098  0.4833  0.0505  0.0307
 7560SOL    HW228001   8.104   4.481   6.230 -0.5495  0.3995 -0.5364
 7561SOL     OW28002  10.713   9.424   8.607 -0.8874  0.1105  1.0234
 7561SOL    HW128003  10.656   9.478   8.553 -0.5699 -0.3771  0.1799
 7561SOL    HW228004  10.682   9.335   8.593  0.4689 -0.2378  0.0268
 7562SOL     OW28005   7.284   6.949   9.026  0.8529 -0.4390  0.4312
 7562SOL    HW128006   7.377   6.929   9.018  1.4709  2.3594 -0.3428
 7562SOL    HW228007   7.258   6.983   8.941 -0.7369 -0.4937  0.8466
 7563SOL     OW28008   7.117   9.109   1.149  0.3581 -0.2336 -0.0874
 7563SOL    HW128009   7.045   9.103   1.085  2.1928 -2.3861 -2.1751
 7563SOL    HW228010   7.196   9.105   1.095  2.0336  0.1870  2.2320
 7564SOL     OW28011   7.027   4.699   9.786  0.5914 -0.6611  0.1299
 7564SOL    HW128012   7.118   4.670   9.783  0.7962 -0.3122  1.6868
 7564SOL    HW228013   6.981   4.642   9.725  1.4433 -2.4491  1.0597
 7565SOL     OW28014  10.684   5.911   5.425  0.3203 -0.6476  0.3587
 7565SOL    HW128015  10.664   5.995   5.384  0.5920 -0.7659 -0.0179
 7565SOL    HW228016  10.706   5.933   5.516  1.1674 -0.2359  0.0564
 7566SOL     OW28017   2.030   7.452   9.218 -0.4496 -0.8369 -0.2288
 7566SOL    HW128018   1.963   7.425   9.155 -1.1950  0.6913 -0.1373
 7566SOL    HW228019   2.005   7.541   9.242  1.4909 -0.3200  0.0052
 7567SOL     OW28020   0.358   0.111  10.812  0.3311  0.4486 -0.4382
 7567SOL    HW128021   0.338   0.123  10.719 -2.3061  2.3103  0.2497
 7567SOL    HW228022   0.426   0.175  10.831 -0.3319  1.2632 -0.7682
 7568SOL     OW28023   9.881   5.956   1.428  0.4815  0.2118 -0.1860
 7568SOL    HW128024   9.835   5.963   1.345  0.0374  1.2186  0.1183
 7568SOL    HW228025   9.863   5.868   1.459 -0.6389  0.3415 -0.4308
 7569SOL     OW28026   1.777  10.755  10.374  0.0744 -0.2155  0.7655
 7569SOL    HW128027   1.787  10.831  10.431 -0.3539  0.3719  0.0923
 7569SOL    HW228028   1.720  10.787  10.303  1.0760 -0.7243 -0.3016
 7570SOL     OW28029  10.201   1.661   7.648  0.2512  0.1427  0.4565
 7570SOL    HW128030  10.146   1.691   7.720  0.9916  0.6480  0.8211
 7570SOL    HW228031  10.148   1.677   7.569 -0.4353 -0.1261  0.8539
 7571SOL     OW28032   2.425   4.085   2.217 -0.1292 -0.3455 -0.1771
 7571SOL    HW128033   2.437   4.017   2.151  0.3789 -0.9776  0.5436
 7571SOL    HW228034   2.354   4.140   2.183 -1.6721 -2.1703 -0.0226
 7572SOL     OW28035   5.537   1.116   8.422  0.0142  0.5128 -0.4211
 7572SOL    HW128036   5.451   1.114   8.463  0.3586 -0.3181  0.3068
 7572SOL    HW228037   5.594   1.072   8.485  0.5694 -0.8232 -1.7970
 7573SOL     OW28038   4.497   2.545   1.955  0.0679 -0.1438  0.0954
 7573SOL    HW128039   4.531   2.625   1.915  0.3094 -0.0920  0.4022
 7573SOL    HW228040   4.481   2.486   1.881  0.1313  0.0948 -0.1090
 7574SOL     OW28041   4.260   0.660   7.288  0.2097  0.3290  0.5524
 7574SOL    HW128042   4.217   0.583   7.249  1.1343  0.4325 -0.7305
 7574SOL    HW228043   4.189   0.724   7.296 -0.7060 -0.8120  2.1818
 7575SOL     OW28044   3.603   9.397  10.921 -0.0653  0.1252  0.0163
 7575SOL    HW128045   3.694   9.370  10.910  0.1281  0.8992 -0.3464
 7575SOL    HW228046   3.571   9.344  10.994  1.5634  1.9611  2.2312
 7576SOL     OW28047   0.450   6.937   0.121  0.4837 -0.4808 -0.1004
 7576SOL    HW128048   0.491   7.023   0.113  2.2994 -1.2251  0.7047
 7576SOL    HW228049   0.378   6.951   0.183 -0.2453  0.7580 -1.1772
 7577SOL     OW28050   6.471   9.947  10.878  0.4365  0.3766 -0.3910
 7577SOL    HW128051   6.426   9.989  10.805  0.2397 -1.2030 -1.2174
 7577SOL    HW228052   6.532  10.014  10.910 -0.8950  1.7824 -0.6685
 7578SOL     OW28053   9.454  10.407   9.035 -0.2297 -0.1545  1.1501
 7578SOL    HW128054   9.372  10.357   9.042 -0.9524  0.6091 -1.1442
 7578SOL    HW228055   9.443  10.479   9.097 -1.5626  0.2666  0.4503
 7579SOL     OW28056   2.117   1.237   3.516  0.3916  0.2035 -0.2023
 7579SOL    HW128057   2.122   1.328   3.485  0.7882  1.3837  3.0036
 7579SOL    HW228058   2.026   1.212   3.500 -0.2315  1.8538  0.5061
 7580SOL     OW28059   6.195   0.919   0.778  0.6207  0.3803  0.9547
 7580SOL    HW128060   6.162   1.001   0.815 -1.2708 -0.6899  1.7791
 7580SOL    HW228061   6.247   0.879   0.849  3.1587  1.6394 -0.0477
 7581SOL     OW28062   3.489   5.585   2.426  0.0912 -0.0292 -0.4476
 7581SOL    HW128063   3.547   5.619   2.358 -1.4117  0.6916 -1.4303
 7581SOL    HW228064   3.401   5.593   2.389 -0.7731  0.2220  1.5036
 7582SOL     OW28065   7.691   7.132   5.346 -0.0083  0.4058  0.8026
 7582SOL    HW128066   7.739   7.079   5.408 -1.1415 -0.7519  0.7455
 7582SOL    HW228067   7.650   7.201   5.399 -0.8902 -0.5152  1.3595
 7583SOL     OW28068   7.385   3.131   1.225  0.2026  0.6247  0.2946
 7583SOL    HW128069   7.293   3.124   1.250  0.1794  0.1834  0.1074
 7583SOL    HW228070   7.420   3.202   1.279 -0.3173  0.9965  0.1501
 7584SOL     OW28071   9.353  11.021  10.271 -0.1700  0.6193  0.1075
 7584SOL    HW128072   9.336  10.934  10.235 -0.0988  0.6058  0.1077
 7584SOL    HW228073   9.266  11.059  10.283 -0.1562  1.5614 -2.3225
 7585SOL     OW28074  10.126   9.142   2.935 -0.1527 -0.2936 -0.0593
 7585SOL    HW128075  10.189   9.070   2.922  0.6731  0.1273  1.3625
 7585SOL    HW228076  10.065   9.108   3.000 -0.2940 -0.0324 -0.0561
 7586SOL     OW28077   9.949   8.071   7.718  0.4851 -0.1711 -0.3056
 7586SOL    HW128078   9.943   8.166   7.719 -1.0112 -0.2415 -0.4537
 7586SOL    HW228079   9.869   8.042   7.674 -0.4502 -1.5712  2.1090
 7587SOL     OW28080   4.095   2.551   9.797  0.1508  0.1753  0.0614
 7587SOL    HW128081   4.176   2.586   9.761  0.6807 -0.1219  0.9451
 7587SOL    HW228082   4.068   2.484   9.734  1.7509 -1.2445  0.8007
 7588SOL     OW28083   8.626  10.405   3.238  0.4091 -0.3249 -0.0527
 7588SOL    HW128084   8.630  10.391   3.144 -1.1234 -0.2421 -0.1502
 7588SOL    HW228085   8.643  10.498   3.249  0.6206 -0.3401 -0.2332
 7589SOL     OW28086   9.854  11.211   2.333 -0.2732  0.1995  0.2579
 7589SOL    HW128087   9.947  11.196   2.347 -0.2100  0.9833  0.6718
 7589SOL    HW228088   9.849  11.292   2.282 -0.6573 -0.7346 -1.2751
 7590SOL     OW28089   0.911   9.207   6.207 -0.3099  0.2824 -0.5618
 7590SOL    HW128090   0.859   9.283   6.231 -1.6213 -0.8965  0.5325
 7590SOL    HW228091   0.985   9.207   6.267 -1.6030 -0.5999  1.1020
 7591SOL     OW28092   3.031   1.082  11.528  0.7194 -0.3218  0.4060
 7591SOL    HW128093   3.029   1.177  11.526  0.0977 -0.3109  1.3068
 7591SOL    HW228094   3.011   1.056  11.438  1.4624  0.3908  0.0210
 7592SOL     OW28095  11.759   4.799  10.435  0.8187  0.3861  0.0604
 7592SOL    HW128096  11.783   4.801  10.343 -2.3006  1.7498 -0.8455
 7592SOL    HW228097  11.716   4.715  10.448  2.0425 -0.1820  0.5332
 7593SOL     OW28098  11.239   8.183   5.232 -0.4896 -0.2531 -0.2548
 7593SOL    HW128099  11.221   8.230   5.314 -0.3104  0.4813 -0.6264
 7593SOL    HW228100  11.328   8.208   5.209 -0.7848  0.1246 -1.0410
 7594SOL     OW28101   0.914   0.510   8.146  0.4402  0.4218  0.3626
 7594SOL    HW128102   0.914   0.538   8.054 -0.2226  1.1000  0.5613
 7594SOL    HW228103   0.913   0.414   8.142  0.0840  0.4493 -0.3359
 7595SOL     OW28104  10.557   0.793   6.941 -0.5968  0.0704 -0.2868
 7595SOL    HW128105  10.549   0.876   6.894 -2.4688  0.1725  0.1483
 7595SOL    HW228106  10.467   0.769   6.964 -0.0129 -1.6323  0.3799
 7596SOL     OW28107   9.679   3.825   9.113  0.0759  0.6113  0.4520
 7596SOL    HW128108   9.758   3.803   9.162  0.2727  0.2057 -0.0333
 7596SOL    HW228109   9.712   3.859   9.029 -0.2653 -0.1646 -0.0044
 7597SOL     OW28110   7.337   1.172   8.683  0.3396  0.4061 -0.0942
 7597SOL    HW128111   7.250   1.187   8.646  0.3089  0.0278 -0.1782
 7597SOL    HW228112   7.372   1.260   8.699 -0.0756  0.5569 -0.0163
 7598SOL     OW28113   2.489   4.263   4.686  0.3487  0.2467 -0.0731
 7598SOL    HW128114   2.516   4.180   4.647 -0.6802 -0.5529  0.8620
 7598SOL    HW228115   2.571   4.311   4.699  1.0715 -1.0315  0.2918
 7599SOL     OW28116   0.612   0.906   2.564 -0.4958 -0.5607  0.7086
 7599SOL    HW128117   0.643   0.985   2.519 -1.1233 -0.6264  0.1407
 7599SOL    HW228118   0.669   0.898   2.640 -0.0029  0.0752  0.4184
 7600SOL     OW28119   6.667   4.121   8.456  0.0521 -0.0122  0.6019
 7600SOL    HW128120   6.579   4.137   8.420 -0.1230 -1.0650  0.5087
 7600SOL    HW228121   6.682   4.193   8.517  0.0569  1.4389 -1.0336
 7601SOL     OW28122  10.067  11.666   9.032 -0.4192 -0.1085 -0.1138
 7601SOL    HW128123  10.024  11.751   9.031 -1.9756 -0.7350  2.6103
 7601SOL    HW228124  10.087  11.652   9.125 -0.3292 -2.7613 -0.4802
 7602SOL     OW28125   9.641   8.022   0.115 -0.3332 -0.2343 -0.0389
 7602SOL    HW128126   9.547   8.011   0.104 -0.6627  0.5588  1.5929
 7602SOL    HW228127   9.650   8.100   0.171  1.3473  0.5003 -1.2248
 7603SOL     OW28128  11.061   4.720   4.693  0.3788 -0.0169  0.1212
 7603SOL    HW128129  11.019   4.639   4.720 -1.3634  1.1640  1.2080
 7603SOL    HW228130  11.131   4.693   4.633  0.0144 -2.2937  0.6398
 7604SOL     OW28131   8.135   4.538   3.366 -0.3700  0.3742  0.4309
 7604SOL    HW128132   8.111   4.472   3.431  0.7069  0.0907  0.5666
 7604SOL    HW228133   8.204   4.589   3.408 -0.8906  1.3205  0.1630
 7605SOL     OW28134   0.564   1.924   9.295  0.5967  0.5751  0.3094
 7605SOL    HW128135   0.473   1.944   9.275 -0.0989 -3.1360 -1.1533
 7605SOL    HW228136   0.562   1.891   9.385  0.0076 -1.3337 -0.3379
 7606SOL     OW28137   2.917   4.091   6.822 -0.2608  0.6349  0.2396
 7606SOL    HW128138   2.865   4.011   6.828  0.9865 -0.2021  0.3636
 7606SOL    HW228139   2.946   4.108   6.912  3.2483 -1.4448 -0.3085
 7607SOL     OW28140   3.524   7.784   7.201 -0.0634  0.1793 -0.4264
 7607SOL    HW128141   3.495   7.753   7.115 -0.2790 -0.2419 -0.2068
 7607SOL    HW228142   3.572   7.709   7.237  0.5202  0.5544 -0.4139
 7608SOL     OW28143  11.725  11.632  10.482 -0.4238  0.4291  0.1972
 7608SOL    HW128144  11.802  11.593  10.524 -0.5567 -0.3629 -0.2708
 7608SOL    HW228145  11.659  11.635  10.552 -0.2476  0.2878  0.3723
 7609SOL     OW28146  10.399   2.182   8.096 -0.2495 -0.6691  0.0998
 7609SOL    HW128147  10.330   2.236   8.057 -0.4902 -0.6403  0.5508
 7609SOL    HW228148  10.439   2.238   8.162  0.1742 -0.7070 -0.1223
 7610SOL     OW28149   4.142   5.867   3.988  0.4382  0.2478  0.5150
 7610SOL    HW128150   4.229   5.832   3.972  0.2023 -0.0228 -0.2289
 7610SOL    HW228151   4.095   5.853   3.906 -0.8704 -1.2787  1.4654
 7611SOL     OW28152   2.522   0.904   9.920  0.3396 -0.2645 -0.6097
 7611SOL    HW128153   2.487   0.957   9.849 -0.6211  0.2938  0.2494
 7611SOL    HW228154   2.449   0.848   9.946  0.6083 -0.3144  0.0671
 7612SOL     OW28155   8.399   2.077   5.163  0.6956 -0.0787 -0.1047
 7612SOL    HW128156   8.353   1.994   5.175  0.7350 -0.1802 -0.6305
 7612SOL    HW228157   8.489   2.051   5.143  0.5066  0.0578 -1.1919
 7613SOL     OW28158   0.653   8.725   8.619  0.1183 -0.1082  0.4655
 7613SOL    HW128159   0.592   8.676   8.564 -1.3558 -0.2287  2.1257
 7613SOL    HW228160   0.738   8.712   8.578 -0.7543 -1.1415 -1.1055
 7614SOL     OW28161   9.808   2.464   1.597 -0.0207  0.1200  0.6179
 7614SOL    HW128162   9.857   2.463   1.679  1.6751  1.1772 -0.3120
 7614SOL    HW228163   9.779   2.555   1.587 -0.1058  0.0317  0.0012
 7615SOL     OW28164   8.586   8.037   3.256  0.0552 -0.2428 -0.0227
 7615SOL    HW128165   8.673   8.058   3.223  0.1343 -0.2761  0.1642
 7615SOL    HW228166   8.575   7.944   3.238 -0.9156  0.2411 -2.2924
 7616SOL     OW28167  10.863   3.849   3.469 -0.8047  0.0207 -0.9342
 7616SOL    HW128168  10.918   3.921   3.501  0.6796 -2.0406  1.5827
 7616SOL    HW228169  10.778   3.889   3.452 -0.5802  2.1065  2.0807
 7617SOL     OW28170   3.086  10.118   6.359 -0.2076  0.0577 -0.5727
 7617SOL    HW128171   2.993  10.138   6.368  0.1410  1.3756  0.4209
 7617SOL    HW228172   3.127  10.203   6.342  0.7086 -0.6502 -2.1023
 7618SOL     OW28173   8.898   8.515   5.856  0.7556  0.0115 -0.3609
 7618SOL    HW128174   8.876   8.594   5.905  1.5059 -0.5490  0.9185
 7618SOL    HW228175   8.815   8.486   5.819  0.5794  1.8004 -1.5057
 7619SOL     OW28176   3.133  10.745   5.869  0.3358  0.3140  0.0930
 7619SOL    HW128177   3.109  10.799   5.945  2.3441  2.9976 -1.0247
 7619SOL    HW228178   3.217  10.706   5.892 -0.0830 -0.6444  0.0463
 7620SOL     OW28179   4.963   2.998   9.972  0.0567 -0.0329 -0.1457
 7620SOL    HW128180   4.921   2.981  10.056  2.0982 -2.2326  0.5613
 7620SOL    HW228181   4.986   3.091   9.975 -0.3805  0.0539  1.5038
 7621SOL     OW28182   8.237   7.101   5.235 -0.2694  0.1069  0.4302
 7621SOL    HW128183   8.318   7.073   5.192 -1.4487 -2.8516 -0.1172
 7621SOL    HW228184   8.265   7.162   5.302  2.2311  0.4678 -0.8285
 7622SOL     OW28185  11.093   0.664   1.422 -0.9693  0.0615 -0.6394
 7622SOL    HW128186  11.134   0.675   1.508 -2.9241 -1.3774  0.5375
 7622SOL    HW228187  11.108   0.748   1.378  1.6600  0.2190  0.3416
 7623SOL     OW28188  10.346   9.997   2.781  0.0407  0.1101 -0.4221
 7623SOL    HW128189  10.395   9.915   2.783 -0.4645 -0.1799  0.3164
 7623SOL    HW228190  10.271   9.982   2.838  1.2795  1.9207  1.8723
 7624SOL     OW28191  11.825   9.222   4.926 -0.0203 -0.0607 -0.6425
 7624SOL    HW128192  11.874   9.182   4.997  0.8859  0.0135 -1.2149
 7624SOL    HW228193  11.734   9.200   4.945  0.2739 -0.6421  0.1525
 7625SOL     OW28194   7.275   8.255   8.243 -0.0019  0.4504 -0.1300
 7625SOL    HW128195   7.221   8.264   8.165 -0.3947  1.8498  0.2821
 7625SOL    HW228196   7.363   8.279   8.214  0.6813 -2.6189 -1.0057
 7626SOL     OW28197  11.458   0.274   0.443 -0.1411  0.3204  0.0923
 7626SOL    HW128198  11.394   0.296   0.510 -0.7825  0.6341 -0.6112
 7626SOL    HW228199  11.416   0.204   0.392 -0.0598  0.7520 -0.5721
 7627SOL     OW28200   0.636   0.836   5.537 -0.8821 -0.0846  0.4570
 7627SOL    HW128201   0.587   0.916   5.520 -2.8311 -1.4758 -0.8429
 7627SOL    HW228202   0.570   0.767   5.543  0.7582 -1.7058  1.0090
 7628SOL     OW28203   5.864   9.831   6.971  0.3402  0.2292 -0.1689
 7628SOL    HW128204   5.860   9.863   7.061 -0.0792 -0.0097 -0.0993
 7628SOL    HW228205   5.783   9.781   6.960  0.6364 -0.1818 -0.5125
 7629SOL     OW28206   4.543   2.346   4.689  0.0428 -0.0608  0.2873
 7629SOL    HW128207   4.522   2.303   4.772  0.8207 -0.9220  0.0536
 7629SOL    HW228208   4.529   2.439   4.706 -1.1245 -0.3371  0.9738
 7630SOL     OW28209   5.846   8.213  11.014  0.3247 -0.4708  0.1398
 7630SOL    HW128210   5.856   8.122  10.986 -0.1640 -0.1363 -1.1573
 7630SOL    HW228211   5.753   8.232  11.001  0.4440  0.2425  0.3131
 7631SOL     OW28212   5.065   4.020   2.219 -0.4793  0.0726 -0.1898
 7631SOL    HW128213   5.034   4.066   2.297 -0.3632  1.0175 -0.6908
 7631SOL    HW228214   4.988   3.973   2.187 -0.1916 -1.5512  1.3070
 7632SOL     OW28215   5.807   7.925   0.426 -0.5842  0.4259  0.3067
 7632SOL    HW128216   5.718   7.957   0.440 -0.3920  0.4166  1.6211
 7632SOL    HW228217   5.809   7.840   0.470  0.2393  0.6976  0.8138
 7633SOL     OW28218   1.570   3.708   4.920 -0.5962  0.4895 -0.2088
 7633SOL    HW128219   1.501   3.741   4.977  0.2002 -1.6350  2.1497
 7633SOL    HW228220   1.530   3.633   4.875  0.2454 -1.1931  1.6927
 7634SOL     OW28221   1.670   9.875  10.744 -0.2450 -0.2250  0.2170
 7634SOL    HW128222   1.586   9.845  10.777  0.3149 -1.1952  0.8166
 7634SOL    HW228223   1.735   9.821  10.790  1.1093  3.7315  3.6125
 7635SOL     OW28224   5.454   2.310  10.953  0.1510  0.4109  0.2963
 7635SOL    HW128225   5.542   2.285  10.981 -0.0041  0.0579  0.4787
 7635SOL    HW228226   5.403   2.314  11.034 -0.2213 -0.2898  0.1079
 7636SOL     OW28227   4.742   4.983   8.395  0.0392  0.3172 -0.2247
 7636SOL    HW128228   4.725   4.912   8.456 -0.0661  0.8224  0.3402
 7636SOL    HW228229   4.746   5.062   8.449  1.3803  0.5905 -0.6847
 7637SOL     OW28230   5.919  10.254   5.961 -0.2488 -0.0682 -0.1505
 7637SOL    HW128231   5.851  10.206   6.007 -0.4714  0.7025  0.3425
 7637SOL    HW228232   5.994  10.255   6.021 -0.6968  1.3419  0.4338
 7638SOL     OW28233   9.089   5.855   7.418  0.4230 -0.6116  0.0187
 7638SOL    HW128234   9.089   5.824   7.508 -1.7915 -0.9652 -0.0434
 7638SOL    HW228235   9.029   5.930   7.418 -0.9024 -1.6008 -1.4026
 7639SOL     OW28236   0.323   9.699   6.332  0.1161 -0.7023 -0.4536
 7639SOL    HW128237   0.354   9.619   6.375  0.1822 -0.9293 -0.9141
 7639SOL    HW228238   0.382   9.710   6.258  0.6142  0.2305  0.0682
 7640SOL     OW28239   9.730   2.385   0.351 -0.1420 -0.3866  0.4400
 7640SOL    HW128240   9.692   2.306   0.390 -1.6908 -0.6723 -1.5065
 7640SOL    HW228241   9.825   2.371   0.356 -0.2038 -0.5409  3.6705
 7641SOL     OW28242   7.983  11.318   3.729 -0.2354 -0.3138 -0.2495
 7641SOL    HW128243   7.899  11.296   3.769 -0.5906  2.6579  0.9234
 7641SOL    HW228244   8.038  11.241   3.742 -1.2874 -0.6280  3.3855
 7642SOL     OW28245   8.643   4.771   6.424 -0.3214  0.4822 -0.1117
 7642SOL    HW128246   8.635   4.848   6.481 -0.1164  1.6292 -1.5588
 7642SOL    HW228247   8.665   4.699   6.483 -2.3582  1.1293  1.5338
 7643SOL     OW28248   5.928   2.553   2.886  0.3888 -0.0471 -0.3791
 7643SOL    HW128249   5.947   2.562   2.793  0.7727  0.4751 -0.2583
 7643SOL    HW228250   5.845   2.505   2.889  1.9105 -2.8471 -0.8898
 7644SOL     OW28251   9.158   9.473   2.472 -0.3429 -0.2812  0.5158
 7644SOL    HW128252   9.064   9.479   2.486 -0.2420  2.5128  0.5856
 7644SOL    HW228253   9.196   9.495   2.557  0.3356  0.2529  0.0882
 7645SOL     OW28254   7.480   4.470   9.287  0.0895 -0.0302  0.3068
 7645SOL    HW128255   7.457   4.456   9.195 -0.2707  2.9052 -0.1317
 7645SOL    HW228256   7.400   4.505   9.327  0.0186 -1.8686  1.9801
 7646SOL     OW28257   5.945   6.983   9.863 -0.1284 -0.4353 -0.0144
 7646SOL    HW128258   5.913   7.020   9.946 -1.5225 -2.9550  0.6519
 7646SOL    HW228259   6.019   6.927   9.888  0.2628 -0.2335 -0.6704
 7647SOL     OW28260   5.638   9.415   6.969  0.3798  0.2774 -0.1658
 7647SOL    HW128261   5.730   9.403   6.944 -0.0010 -1.4546 -0.8907
 7647SOL    HW228262   5.611   9.329   7.001 -1.2868  0.4576 -0.9779
 7648SOL     OW28263  10.998  11.448   3.917  0.0939 -0.4857 -0.2784
 7648SOL    HW128264  10.973  11.425   4.007 -0.9996 -1.9411 -0.9120
 7648SOL    HW228265  11.083  11.491   3.926  0.3970 -1.3459  1.3874
 7649SOL     OW28266   6.175   0.946  10.783 -0.5582  0.3165  0.0782
 7649SOL    HW128267   6.198   0.918  10.871  0.2874 -1.0274 -0.5472
 7649SOL    HW228268   6.205   1.037  10.779  0.8256 -0.0796  0.6826
 7650SOL     OW28269  11.770  10.269   6.054  0.2663 -0.1043 -0.0881
 7650SOL    HW128270  11.817  10.348   6.026 -1.3739  0.3735 -1.6892
 7650SOL    HW228271  11.799  10.201   5.994  0.4262 -0.3015  0.2135
 7651SOL     OW28272  11.041   6.236   0.186  0.1519 -0.3301 -0.7114
 7651SOL    HW128273  11.088   6.221   0.268  1.2259  1.2426 -0.9772
 7651SOL    HW228274  10.960   6.187   0.194  1.6983 -2.9721 -0.1123
 7652SOL     OW28275   5.269   8.471   0.801  0.1415 -0.9362 -0.0231
 7652SOL    HW128276   5.246   8.507   0.715 -1.6481 -0.5933  0.5707
 7652SOL    HW228277   5.297   8.547   0.852 -1.3552 -0.6993  0.4924
 7653SOL     OW28278   1.301  10.837  10.874  0.9553 -0.2426 -0.4393
 7653SOL    HW128279   1.386  10.821  10.916  0.4843 -0.7643  0.3269
 7653SOL    HW228280   1.241  10.775  10.916 -0.1248  1.0973  0.0397
 7654SOL     OW28281   0.686   8.031   9.885 -0.4649 -0.0927  0.2776
 7654SOL    HW128282   0.773   8.068   9.874 -0.1532 -0.5858  1.0273
 7654SOL    HW228283   0.700   7.949   9.932 -1.1030 -1.3325 -1.5732
 7655SOL     OW28284   3.528   5.149   8.685 -0.2086  0.0282 -0.2770
 7655SOL    HW128285   3.504   5.240   8.704  0.3314 -0.1486  1.3715
 7655SOL    HW228286   3.613   5.155   8.641  0.6198  0.2767  1.2873
 7656SOL     OW28287   3.992  10.079   2.735 -0.1581 -0.0987  0.3403
 7656SOL    HW128288   4.082  10.082   2.768 -0.3768 -0.2347  0.9739
 7656SOL    HW228289   3.981   9.990   2.703  0.0328  0.0116 -0.0426
 7657SOL     OW28290   5.594   0.136   5.580 -0.1143 -0.0339 -0.2689
 7657SOL    HW128291   5.504   0.106   5.571  0.5300 -1.8426 -0.9774
 7657SOL    HW228292   5.619   0.164   5.492 -0.0028  0.6134 -0.0423
 7658SOL     OW28293   7.128   8.882   1.311  0.0185 -0.0099  0.0486
 7658SOL    HW128294   7.122   8.954   1.248  1.0365  0.5924  0.6081
 7658SOL    HW228295   7.171   8.921   1.387  0.2562 -1.1253  0.4971
 7659SOL     OW28296   8.310   9.443   9.085  0.0980  0.3572  0.1848
 7659SOL    HW128297   8.351   9.500   9.020 -1.4763  0.2438 -0.9599
 7659SOL    HW228298   8.263   9.502   9.144  0.2738  0.3703  0.3120
 7660SOL     OW28299   6.997   5.488   8.014 -0.2225  0.9551  0.5553
 7660SOL    HW128300   7.087   5.498   7.984 -0.7338  2.7022 -0.5222
 7660SOL    HW228301   6.948   5.466   7.934 -0.8477  0.5459  1.0429
 7661SOL     OW28302   5.174   5.461   9.762 -0.4372 -0.1190 -0.0378
 7661SOL    HW128303   5.240   5.528   9.776  1.3275 -1.7077 -0.4453
 7661SOL    HW228304   5.204   5.411   9.686 -0.3129 -2.9280  1.6946
 7662SOL     OW28305   8.003   7.461  10.893  0.2717  0.0223  0.3092
 7662SOL    HW128306   8.038   7.418  10.971 -0.0516  1.7398  1.4566
 7662SOL    HW228307   8.080   7.492  10.845  0.5119 -1.8122 -0.5778
 7663SOL     OW28308   8.410   1.227   5.571 -0.6110 -0.0398  0.2220
 7663SOL    HW128309   8.362   1.295   5.618 -1.6692 -1.3007  1.0129
 7663SOL    HW228310   8.355   1.149   5.577  1.5279 -1.5834  1.2205
 7664SOL     OW28311   8.505   2.167   0.959 -0.1452 -0.4710  0.8232
 7664SOL    HW128312   8.424   2.209   0.988  0.3504  2.5541 -1.6187
 7664SOL    HW228313   8.477   2.093   0.905 -1.2540 -0.0513  0.8094
 7665SOL     OW28314   2.476   2.100   1.963  0.2522  0.3426 -0.0306
 7665SOL    HW128315   2.445   2.091   1.873  1.0909 -0.2316 -0.2724
 7665SOL    HW228316   2.571   2.088   1.957  0.1699 -1.1380  1.1176
 7666SOL     OW28317   0.101   0.004   7.224  0.0846 -1.0545  0.5755
 7666SOL    HW128318   0.191   0.007   7.256  1.2607  2.1575 -2.4124
 7666SOL    HW228319   0.101  -0.068   7.160  0.5437 -0.9868  0.4974
 7667SOL     OW28320   6.210   4.971   3.819  0.1115  0.1221  0.3592
 7667SOL    HW128321   6.225   5.037   3.752 -0.5326  0.3321  0.4176
 7667SOL    HW228322   6.258   4.894   3.787  0.8482  0.6007  0.2841
 7668SOL     OW28323   1.073  10.726   9.101 -0.2664  0.1371  0.4611
 7668SOL    HW128324   1.084  10.801   9.043 -0.4443 -0.0437  0.1899
 7668SOL    HW228325   1.093  10.650   9.046  1.2902  0.0438  1.0847
 7669SOL     OW28326   7.796   5.804   0.307 -0.0580  0.5962  0.2212
 7669SOL    HW128327   7.740   5.727   0.292  1.2560 -0.4977  0.7361
 7669SOL    HW228328   7.735   5.872   0.337 -1.0454 -0.7511  1.4479
 7670SOL     OW28329   1.044   6.443   5.822 -0.5868  0.5319 -0.1628
 7670SOL    HW128330   1.088   6.526   5.809  1.1743 -0.5284 -1.4208
 7670SOL    HW228331   1.031   6.436   5.917  1.5604  1.1216  0.2138
 7671SOL     OW28332   2.544   8.264  10.893  0.0284 -0.3811 -0.4924
 7671SOL    HW128333   2.478   8.275  10.961  0.3695 -0.9508 -0.0540
 7671SOL    HW228334   2.588   8.181  10.915 -1.0932 -1.5781 -2.4495
 7672SOL     OW28335   3.350  10.246   4.728 -0.2783 -0.1508  0.4948
 7672SOL    HW128336   3.349  10.323   4.672  0.3965  0.0709  0.7790
 7672SOL    HW228337   3.365  10.173   4.669  3.1064  0.3041  0.5842
 7673SOL     OW28338   7.443   4.922   8.718 -0.1160  0.0739 -0.2550
 7673SOL    HW128339   7.484   4.976   8.786 -4.2475  2.5132  0.6439
 7673SOL    HW228340   7.471   4.962   8.636 -1.6467  2.7481  0.3658
 7674SOL     OW28341   1.387   6.389   2.923  0.3104  1.1364 -0.3894
 7674SOL    HW128342   1.396   6.446   2.847  1.0500  0.2563 -0.9897
 7674SOL    HW228343   1.471   6.344   2.929 -1.0954 -1.9519 -1.6582
 7675SOL     OW28344   6.097  10.029   4.694 -0.9014  0.2758 -0.3454
 7675SOL    HW128345   6.136  10.112   4.665 -0.2854  0.2495  0.3695
 7675SOL    HW228346   6.110   9.969   4.621  0.5104  0.2391 -0.0937
 7676SOL     OW28347   8.128   9.413   3.888  0.1163 -0.1005 -0.2456
 7676SOL    HW128348   8.087   9.499   3.879  2.0885  0.9260  0.0319
 7676SOL    HW228349   8.169   9.414   3.974  1.3330 -0.7780 -0.7867
 7677SOL     OW28350   4.649   8.718   7.891 -0.1612 -0.0291 -0.1033
 7677SOL    HW128351   4.664   8.640   7.837 -0.3664 -1.1664  1.3972
 7677SOL    HW228352   4.568   8.755   7.856 -0.1294 -0.5673 -0.7781
 7678SOL     OW28353  10.938   1.962  10.645 -0.0809  0.5028 -0.3701
 7678SOL    HW128354  10.850   1.950  10.608 -0.4720 -0.3956  0.7970
 7678SOL    HW228355  10.934   1.918  10.730  0.6676  2.8355  0.9510
 7679SOL     OW28356   4.154  11.806   2.831  0.3138  0.2121 -0.3535
 7679SOL    HW128357   4.244  11.775   2.838  0.2128  0.1651  1.1163
 7679SOL    HW228358   4.122  11.807   2.921 -1.6265 -1.1236 -0.9698
 7680SOL     OW28359   2.063   7.822  10.467  0.0274 -0.2370 -0.6065
 7680SOL    HW128360   2.008   7.760  10.514 -1.2748 -0.6633 -2.5610
 7680SOL    HW228361   2.012   7.903  10.467 -0.8597 -0.7190 -2.6953
 7681SOL     OW28362  11.697   2.831  10.022  0.4198  0.1208 -0.1716
 7681SOL    HW128363  11.785   2.809   9.992  1.1732  2.4107  0.1644
 7681SOL    HW228364  11.676   2.913   9.978 -1.9265 -0.7513 -0.8573
 7682SOL     OW28365   7.584   3.182   4.826  0.1769 -0.1094 -0.4354
 7682SOL    HW128366   7.646   3.111   4.815 -3.4611 -4.0425  1.5757
 7682SOL    HW228367   7.611   3.227   4.906  2.2898  0.6622 -1.5138
 7683SOL     OW28368   4.090   0.391   8.731 -0.0057  0.6874 -0.1222
 7683SOL    HW128369   4.147   0.380   8.655 -0.7383 -1.4295 -0.4379
 7683SOL    HW228370   4.004   0.413   8.693 -0.1960  0.3989  0.1418
 7684SOL     OW28371   8.058   0.308   4.173 -0.1241  0.0038 -0.8203
 7684SOL    HW128372   8.105   0.307   4.257  0.6957 -0.6985 -1.2704
 7684SOL    HW228373   8.052   0.400   4.150  1.9179  0.0858 -1.2120
 7685SOL     OW28374   8.759  11.120   7.909  0.1521 -0.4498 -0.0971
 7685SOL    HW128375   8.798  11.052   7.855 -1.8698 -0.4856 -1.6618
 7685SOL    HW228376   8.832  11.176   7.934  1.5593 -2.0341 -0.4788
 7686SOL     OW28377   6.879   7.188   5.470  0.6843  0.3522 -0.1545
 7686SOL    HW128378   6.812   7.120   5.470  1.1847 -0.2439  2.2416
 7686SOL    HW228379   6.841   7.259   5.522  1.8826 -0.0367  1.3291
 7687SOL     OW28380   4.108   7.650   6.634  0.1034  0.0203  0.8029
 7687SOL    HW128381   4.125   7.723   6.575 -1.5894  0.1934  0.4874
 7687SOL    HW228382   4.156   7.576   6.596  0.5046  0.5674  0.2301
 7688SOL     OW28383   8.961   3.857   4.133 -0.0283 -0.0664  0.2561
 7688SOL    HW128384   9.009   3.775   4.132 -0.1012 -0.1593  1.8526
 7688SOL    HW228385   8.917   3.860   4.048  0.9153 -1.0898 -0.3019
 7689SOL     OW28386   9.650   4.550   2.143  0.0215 -0.5904  0.4043
 7689SOL    HW128387   9.568   4.531   2.098 -0.2148  1.2468 -0.0378
 7689SOL    HW228388   9.709   4.479   2.118 -0.7504 -0.7257 -1.1254
 7690SOL     OW28389   4.594   3.117   9.173  0.3936 -0.6089  0.0269
 7690SOL    HW128390   4.595   3.210   9.149 -1.5284 -0.3560  0.7496
 7690SOL    HW228391   4.658   3.077   9.115  0.2592  0.9403 -1.2745
 7691SOL     OW28392   4.842   7.660   6.339 -0.3924  0.2012  0.4561
 7691SOL    HW128393   4.894   7.646   6.260  0.1551  0.8189  0.7037
 7691SOL    HW228394   4.777   7.726   6.313  0.5752  1.3362  0.8593
 7692SOL     OW28395   3.061  11.554  10.840 -0.0777  0.0774  0.6880
 7692SOL    HW128396   3.140  11.601  10.867 -0.1156  1.0927 -0.8909
 7692SOL    HW228397   3.094  11.481  10.786 -0.2239  0.8593 -0.4838
 7693SOL     OW28398   0.865   2.719  10.158 -0.2118 -0.8445 -0.1920
 7693SOL    HW128399   0.926   2.645  10.150 -0.6420 -1.1923 -0.2996
 7693SOL    HW228400   0.820   2.705  10.241  2.4445  1.4076  1.8030
 7694SOL     OW28401  11.018   8.177  11.170  0.2084 -0.0398  0.4615
 7694SOL    HW128402  10.949   8.193  11.233  0.2489  0.9470  0.2671
 7694SOL    HW228403  11.009   8.084  11.147  0.7905 -0.6725  2.6029
 7695SOL     OW28404   0.989   8.380   4.263 -0.0378  0.1990 -0.2779
 7695SOL    HW128405   0.928   8.426   4.321  0.9800 -0.3813  1.3230
 7695SOL    HW228406   0.953   8.291   4.257 -0.4795  0.4209 -1.0797
 7696SOL     OW28407   4.923   9.128  10.973 -0.3936 -0.0424  0.3989
 7696SOL    HW128408   4.972   9.061  10.926  0.4564  0.7089  0.1893
 7696SOL    HW228409   4.987   9.196  10.991 -0.9365  0.1456  1.7531
 7697SOL     OW28410   2.656   2.168   0.307  0.0487 -0.3375  0.0024
 7697SOL    HW128411   2.750   2.187   0.314 -0.1794  0.2892  3.1435
 7697SOL    HW228412   2.651   2.072   0.312  0.5173 -0.4146 -0.7927
 7698SOL     OW28413  10.331   7.349   7.958  0.7033  0.1051 -0.3668
 7698SOL    HW128414  10.266   7.321   7.894 -1.6888  0.1381  1.8862
 7698SOL    HW228415  10.311   7.441   7.974  0.4079 -0.2199  1.3219
 7699SOL     OW28416   3.082  10.542   1.800 -0.3403 -0.5115 -0.3614
 7699SOL    HW128417   3.007  10.541   1.740 -1.8367 -0.6507  1.4199
 7699SOL    HW228418   3.071  10.464   1.853  0.4720  0.0265  0.6390
 7700SOL     OW28419   3.144   9.173   3.380 -0.6236  0.1296  0.2134
 7700SOL    HW128420   3.149   9.259   3.422 -0.5356 -0.5511  1.6524
 7700SOL    HW228421   3.235   9.149   3.363 -0.6285  0.1491  0.1572
 7701SOL     OW28422   8.697   7.389   8.972 -0.0979 -0.5987  0.2999
 7701SOL    HW128423   8.651   7.391   9.056 -1.6280  0.7382 -0.5039
 7701SOL    HW228424   8.635   7.426   8.910  1.5460 -0.1335 -1.1590
 7702SOL     OW28425   8.800   2.162   5.581 -0.2278 -0.1109 -0.5030
 7702SOL    HW128426   8.828   2.114   5.503  1.8422  0.0232  0.0873
 7702SOL    HW228427   8.881   2.179   5.629 -1.3987  0.0899  1.5321
 7703SOL     OW28428   8.005   6.568   3.201  0.0725  0.0240  0.0075
 7703SOL    HW128429   7.991   6.659   3.228  2.7064  0.5750 -0.2303
 7703SOL    HW228430   8.049   6.527   3.275 -0.7949 -0.9805 -0.0151
 7704SOL     OW28431   6.847   8.635   0.768  0.6165  0.3290  0.2542
 7704SOL    HW128432   6.828   8.621   0.675 -0.3649 -0.7558  0.5997
 7704SOL    HW228433   6.896   8.557   0.794 -0.7190 -0.2574  1.0755
 7705SOL     OW28434   9.595   5.022   7.997  0.0575  0.1131  0.0639
 7705SOL    HW128435   9.660   4.956   7.972 -1.9244 -1.6112 -0.9160
 7705SOL    HW228436   9.586   5.078   7.920  0.0960  0.1158  0.0613
 7706SOL     OW28437  11.729  10.383   8.731  0.3355  0.4172 -0.4054
 7706SOL    HW128438  11.717  10.459   8.675 -1.0300  0.7506  0.3012
 7706SOL    HW228439  11.815  10.395   8.770 -0.6226  2.6548  1.2228
 7707SOL     OW28440   6.154   7.720   7.625  0.6597  0.5711  0.3925
 7707SOL    HW128441   6.181   7.772   7.549 -1.7581 -0.9691 -1.6915
 7707SOL    HW228442   6.140   7.632   7.590 -1.6966  0.0732  2.3385
 7708SOL     OW28443   0.484   5.750   7.850 -0.0724  0.1535 -0.2663
 7708SOL    HW128444   0.467   5.660   7.823 -1.4530  0.3957 -0.2618
 7708SOL    HW228445   0.550   5.781   7.788 -0.6523 -0.4087 -1.1889
 7709SOL     OW28446   7.327   9.626   5.244  0.3807 -0.0564  0.1505
 7709SOL    HW128447   7.282   9.549   5.278  0.6800 -0.1172  0.4172
 7709SOL    HW228448   7.300   9.632   5.152 -2.7605  1.7824  1.0540
 7710SOL     OW28449   0.494  11.646   6.055 -0.5137  0.0097  0.2605
 7710SOL    HW128450   0.536  11.720   6.011 -1.8166  0.1978 -0.7326
 7710SOL    HW228451   0.410  11.637   6.010 -1.3952 -0.5539  1.9604
 7711SOL     OW28452   1.869   1.540   5.155  0.2409 -0.2740  0.3172
 7711SOL    HW128453   1.840   1.498   5.074 -0.5045 -1.4189  1.1403
 7711SOL    HW228454   1.916   1.619   5.126 -0.5553 -0.3149 -1.1927
 7712SOL     OW28455   6.331   3.298   2.455 -0.2609  0.2366 -0.8001
 7712SOL    HW128456   6.344   3.286   2.549  0.7920  0.0374 -0.9624
 7712SOL    HW228457   6.242   3.333   2.447 -1.1878 -1.7803  0.1190
 7713SOL     OW28458  11.777   5.254   9.502  0.3899  0.6871  0.0267
 7713SOL    HW128459  11.707   5.314   9.476  0.0600  0.4071  0.2591
 7713SOL    HW228460  11.857   5.293   9.466  0.4299  2.1771  1.6007
 7714SOL     OW28461   5.935   7.004   8.571 -0.3218  0.3858 -0.1026
 7714SOL    HW128462   6.020   7.048   8.562 -0.4400  0.9129  1.0783
 7714SOL    HW228463   5.902   7.035   8.655 -0.9801 -1.0309  0.1854
 7715SOL     OW28464   5.005  11.075   1.859  0.5388 -0.2960 -0.5507
 7715SOL    HW128465   4.911  11.089   1.869  0.7322  0.6584  0.0950
 7715SOL    HW228466   5.040  11.162   1.836  1.1766 -0.7812 -1.5071
 7716SOL     OW28467   1.517   5.621   6.036  0.0736 -0.6025 -0.3946
 7716SOL    HW128468   1.612   5.623   6.037  0.0617  0.5841  0.3430
 7716SOL    HW228469   1.495   5.528   6.045  1.1908 -0.7037  2.3153
 7717SOL     OW28470   9.553   1.681   5.169 -0.4144 -0.5509 -0.1071
 7717SOL    HW128471   9.579   1.745   5.102  1.0443 -0.7624  0.2061
 7717SOL    HW228472   9.571   1.596   5.129 -0.3994 -0.6996  0.2098
 7718SOL     OW28473   8.193   9.314   8.361 -0.0283  0.0254  0.3147
 7718SOL    HW128474   8.111   9.295   8.407  0.0314 -0.3931  0.2450
 7718SOL    HW228475   8.236   9.379   8.417  1.0740 -2.0859  2.0242
 7719SOL     OW28476   6.217   8.207   4.807 -0.7082  0.6965 -0.1256
 7719SOL    HW128477   6.153   8.259   4.856 -0.9099  0.8992 -0.5925
 7719SOL    HW228478   6.217   8.247   4.720 -1.2834 -0.4493 -0.6640
 7720SOL     OW28479  11.213   4.850  11.163  0.4828 -0.5316  0.4683
 7720SOL    HW128480  11.226   4.909  11.237  0.6443  1.2482 -0.9153
 7720SOL    HW228481  11.157   4.898  11.102 -1.3095 -2.7225  0.2542
 7721SOL     OW28482   9.269   1.624   8.938  0.4956 -0.3708  0.3009
 7721SOL    HW128483   9.310   1.541   8.915  1.6948  0.2093  0.2859
 7721SOL    HW228484   9.303   1.687   8.874  1.2858  0.5694  1.5901
 7722SOL     OW28485   8.080   8.829   7.997  0.3555  1.0539 -0.5908
 7722SOL    HW128486   8.041   8.773   8.064  1.5271  0.0692 -0.6848
 7722SOL    HW228487   8.006   8.862   7.947 -0.3574 -1.1736 -1.1174
 7723SOL     OW28488   4.938   3.442   0.870  0.5653 -0.1989  0.2137
 7723SOL    HW128489   4.945   3.376   0.800  2.2824  0.7184 -0.5442
 7723SOL    HW228490   4.852   3.483   0.855  1.0029  0.1696 -1.5773
 7724SOL     OW28491   7.731   7.498   0.645  0.2403 -0.5306  0.4648
 7724SOL    HW128492   7.785   7.546   0.583 -0.8461  0.7435  0.4621
 7724SOL    HW228493   7.642   7.504   0.609 -0.2806 -0.4762  1.7122
 7725SOL     OW28494   9.577   9.166   9.586  0.3023 -0.2265 -0.3141
 7725SOL    HW128495   9.609   9.251   9.554 -0.1684  0.2711  0.5012
 7725SOL    HW228496   9.565   9.114   9.507  1.8821  0.0014 -0.7541
 7726SOL     OW28497   2.604   7.692   1.329  0.1463 -0.3540 -0.2723
 7726SOL    HW128498   2.674   7.744   1.287 -0.7751  0.4825 -0.8189
 7726SOL    HW228499   2.550   7.757   1.373 -0.2854 -1.0042  0.1618
 7727SOL     OW28500   9.717   6.594   3.345  0.1975  0.4567  0.5624
 7727SOL    HW128501   9.707   6.688   3.359 -0.7677  0.0563  2.9440
 7727SOL    HW228502   9.639   6.568   3.296  0.1812  0.7780  0.4171
 7728SOL     OW28503   7.104   9.743   5.475  0.6285 -0.0446 -0.4360
 7728SOL    HW128504   7.163   9.678   5.436  0.4951  0.1959 -1.0605
 7728SOL    HW228505   7.019   9.700   5.477  0.4296  0.2745 -1.3312
 7729SOL     OW28506   3.615   6.846   2.165 -0.1546 -0.2024 -0.2082
 7729SOL    HW128507   3.557   6.803   2.227 -0.7528 -0.3579 -0.8536
 7729SOL    HW228508   3.610   6.791   2.086  0.3371  0.1635 -0.5010
 7730SOL     OW28509   4.359   0.501   9.918 -0.3408 -0.6469  0.1138
 7730SOL    HW128510   4.290   0.547   9.965  0.5802 -0.2903  1.1518
 7730SOL    HW228511   4.327   0.496   9.828 -0.3073  2.4701 -0.1896
 7731SOL     OW28512   6.737   7.270   3.025  0.1118 -0.0736 -0.9772
 7731SOL    HW128513   6.760   7.220   3.104 -0.2499  1.0488 -0.1363
 7731SOL    HW228514   6.663   7.222   2.988 -0.8970  0.3841  0.3892
 7732SOL     OW28515   3.455   9.217   5.722 -0.2400 -0.3038 -0.2513
 7732SOL    HW128516   3.483   9.265   5.801  0.2763  1.8133 -1.6210
 7732SOL    HW228517   3.479   9.126   5.740  1.4609  0.3793  1.3584
 7733SOL     OW28518   0.641  10.026  10.284  0.1181  0.3489  0.3399
 7733SOL    HW128519   0.694  10.056  10.358 -0.7140 -0.5433  1.3322
 7733SOL    HW228520   0.588  10.102  10.260  0.6755  0.7636  0.3969
 7734SOL     OW28521   4.703   8.273  10.042 -0.0853 -1.4156  0.0381
 7734SOL    HW128522   4.755   8.210   9.992  0.5181 -1.8699  1.2044
 7734SOL    HW228523   4.721   8.253  10.133  0.3885  0.6634  0.4626
 7735SOL     OW28524  10.719   9.975   5.501  0.1511  0.3378  0.2166
 7735SOL    HW128525  10.755  10.056   5.467  0.3208  0.1419 -0.0780
 7735SOL    HW228526  10.631   9.999   5.532  0.4779  0.7842  0.8113
 7736SOL     OW28527   6.730   9.661  10.270 -0.6063  0.0661 -0.5295
 7736SOL    HW128528   6.670   9.703  10.208 -1.7153 -1.4385 -0.5340
 7736SOL    HW228529   6.718   9.567  10.255  1.4496 -0.2836 -0.1981
 7737SOL     OW28530   8.394  11.740   4.635 -0.2278  0.0305 -0.1516
 7737SOL    HW128531   8.348  11.783   4.706  0.8689 -1.3729  1.4998
 7737SOL    HW228532   8.335  11.746   4.560 -1.3989  1.5889  0.8475
 7738SOL     OW28533   3.304  11.762   0.590 -0.0792 -0.1255  0.3894
 7738SOL    HW128534   3.398  11.756   0.578  0.2979  1.8373  1.8939
 7738SOL    HW228535   3.280  11.680   0.634  0.9826 -0.4857  0.3169
 7739SOL     OW28536   0.274   9.832   9.412  0.0052 -0.6948 -0.6416
 7739SOL    HW128537   0.292   9.871   9.326  0.7209 -1.0370 -0.6510
 7739SOL    HW228538   0.211   9.892   9.452 -0.3338 -0.5330 -1.4033
 7740SOL     OW28539   7.522   9.250   2.200 -0.6566 -0.4696 -0.2039
 7740SOL    HW128540   7.521   9.224   2.108  1.6838  0.1721 -0.4657
 7740SOL    HW228541   7.473   9.180   2.245 -1.6315 -0.9173 -1.8695
 7741SOL     OW28542   6.836   7.346   7.195 -0.1822  0.1164 -0.7400
 7741SOL    HW128543   6.847   7.430   7.150 -0.1173  0.9473  0.7911
 7741SOL    HW228544   6.764   7.360   7.255  0.2074 -0.7521 -0.0527
 7742SOL     OW28545   7.776   7.135   9.360 -0.4225  0.0349 -0.1889
 7742SOL    HW128546   7.737   7.209   9.314  0.4230  0.9751  0.5612
 7742SOL    HW228547   7.855   7.171   9.400 -0.5954 -0.9991  1.1390
 7743SOL     OW28548  11.287   7.146   8.909 -0.3905 -0.5742 -0.1546
 7743SOL    HW128549  11.351   7.082   8.939  0.3560  1.6594  3.7650
 7743SOL    HW228550  11.279   7.207   8.982 -2.5225  2.6902 -2.8297
 7744SOL     OW28551   0.374  10.939   7.190 -0.5847 -0.1006 -0.0261
 7744SOL    HW128552   0.284  10.927   7.220 -0.6761  0.0201 -0.2477
 7744SOL    HW228553   0.399  10.855   7.152 -0.2921 -0.4145  0.8407
 7745SOL     OW28554   7.784   5.468   9.245  0.1133  0.0493  0.0782
 7745SOL    HW128555   7.862   5.437   9.290  0.2434  0.1251 -0.0913
 7745SOL    HW228556   7.712   5.449   9.305  0.2510 -0.1053  0.1957
 7746SOL     OW28557   2.400   1.409   4.397 -0.1914 -0.0856  0.2815
 7746SOL    HW128558   2.486   1.430   4.433 -0.7543  1.9150  0.6108
 7746SOL    HW228559   2.413   1.406   4.302 -0.3002  3.8710 -0.0278
 7747SOL     OW28560  10.683  10.141   9.862  0.0065  0.3205  0.2547
 7747SOL    HW128561  10.727  10.067   9.904  0.6511  0.5278 -0.0584
 7747SOL    HW228562  10.594  10.139   9.898  0.0335 -0.5752  0.2869
 7748SOL     OW28563   2.779   1.073   0.421 -0.2146  0.0938 -0.3805
 7748SOL    HW128564   2.715   1.144   0.423  0.8028  1.0480 -0.6300
 7748SOL    HW228565   2.737   1.001   0.469 -1.2664  0.8477 -0.1348
 7749SOL     OW28566  10.759  10.273   6.045 -0.1994  0.1520  0.1535
 7749SOL    HW128567  10.767  10.352   6.099  0.1110  1.2475 -1.4062
 7749SOL    HW228568  10.848  10.255   6.015 -0.3640 -0.4228 -0.0066
 7750SOL     OW28569   1.173   1.342   9.311  0.0860  0.5521  0.5037
 7750SOL    HW128570   1.239   1.388   9.259 -0.0198  0.3065  0.1540
 7750SOL    HW228571   1.096   1.398   9.305 -0.8464 -0.8672 -2.0078
 7751SOL     OW28572  10.483   9.157   7.595  0.0290  0.6176  0.8100
 7751SOL    HW128573  10.491   9.251   7.610  0.5531  0.3776  2.2494
 7751SOL    HW228574  10.548   9.118   7.654 -1.2774 -0.7113  1.4432
 7752SOL     OW28575   4.831   9.670  10.993  0.3861 -0.3328 -0.3795
 7752SOL    HW128576   4.920   9.670  10.956 -0.6297 -0.6695 -3.0368
 7752SOL    HW228577   4.784   9.604  10.943 -0.8851 -1.7457  2.4550
 7753SOL     OW28578   9.190   3.802   8.909 -0.2238  0.2832  0.4167
 7753SOL    HW128579   9.219   3.784   8.998 -0.3613  0.4504  0.4972
 7753SOL    HW228580   9.261   3.772   8.853 -0.4875 -0.5879  0.5417
 7754SOL     OW28581   4.405   6.453   4.032  0.1796  0.1326 -0.0897
 7754SOL    HW128582   4.330   6.402   4.063  0.9112 -0.5704  0.5665
 7754SOL    HW228583   4.480   6.415   4.077  0.9573  0.7285 -0.8494
 7755SOL     OW28584   6.736   7.400   7.571 -0.2734 -0.9708  0.7366
 7755SOL    HW128585   6.689   7.428   7.649  0.8051 -0.0256  1.0880
 7755SOL    HW228586   6.812   7.458   7.568 -1.7019  1.0053 -2.5812
 7756SOL     OW28587   6.954   0.529   9.613 -0.3033  0.1276 -0.2738
 7756SOL    HW128588   6.862   0.538   9.640 -0.1403 -1.0480  0.7821
 7756SOL    HW228589   7.001   0.590   9.670 -0.4875  1.3110 -1.3472
 7757SOL     OW28590   5.834   2.153   7.805  0.5774 -0.0502  0.7527
 7757SOL    HW128591   5.750   2.151   7.760  0.9113  1.4910  0.0070
 7757SOL    HW228592   5.855   2.246   7.815  0.6166 -0.2888  3.9830
 7758SOL     OW28593   9.921   0.171   4.493  0.6234  0.3615 -0.1634
 7758SOL    HW128594   9.896   0.262   4.481  0.2286  0.3601  0.5692
 7758SOL    HW228595   9.956   0.168   4.583  1.8309  0.0555 -0.6243
 7759SOL     OW28596  10.048   2.550   7.542  0.2355 -0.0485  0.2051
 7759SOL    HW128597   9.962   2.581   7.514 -0.4676  0.9345  3.0940
 7759SOL    HW228598  10.042   2.546   7.638  2.7861 -1.8967  0.3909
 7760SOL     OW28599   1.880   1.513   0.473 -0.1177 -0.2712 -0.1433
 7760SOL    HW128600   1.871   1.422   0.443  1.0410 -0.6454  0.5573
 7760SOL    HW228601   1.790   1.545   0.482 -0.5241 -1.1261 -1.0566
 7761SOL     OW28602   9.987   3.242  11.785 -0.0490 -0.3107  0.1246
 7761SOL    HW128603   9.940   3.179  11.730  0.1131 -0.4109  0.0995
 7761SOL    HW228604   9.938   3.323  11.776 -0.8083 -0.6706  0.9074
 7762SOL     OW28605   9.929   9.250   6.479  0.3628 -0.6387 -0.4532
 7762SOL    HW128606   9.974   9.176   6.438 -1.0110 -1.4136 -0.6377
 7762SOL    HW228607   9.975   9.327   6.445  1.9152 -1.3814 -0.1584
 7763SOL     OW28608   4.134  10.129   2.080  0.4170  0.3686  0.3149
 7763SOL    HW128609   4.177  10.087   2.004  0.3443  1.0969 -0.1393
 7763SOL    HW228610   4.137  10.222   2.060 -2.1923  0.4083 -0.1691
 7764SOL     OW28611   9.280  10.094   1.522  0.0394 -0.7969 -0.2078
 7764SOL    HW128612   9.271  10.009   1.567 -0.9191 -0.7205 -0.2358
 7764SOL    HW228613   9.365  10.127   1.552  0.6861 -2.0075 -0.6174
 7765SOL     OW28614   0.857   9.947  10.122  0.2124 -0.0254 -0.5260
 7765SOL    HW128615   0.766   9.962  10.147 -0.0557 -0.6562 -1.0935
 7765SOL    HW228616   0.887  10.030  10.085 -0.6234 -0.2696 -1.8049
 7766SOL     OW28617   8.571   3.819  11.397 -0.0138 -0.0475 -0.1677
 7766SOL    HW128618   8.661   3.850  11.397  0.8723 -2.4725 -0.1624
 7766SOL    HW228619   8.532   3.858  11.476  1.8963 -1.3092  1.4786
 7767SOL     OW28620   5.149   4.880   5.239 -0.3812  0.0511  0.4092
 7767SOL    HW128621   5.177   4.793   5.269  1.2147 -0.3424 -1.9271
 7767SOL    HW228622   5.172   4.938   5.311 -1.6957 -1.4309  2.1283
 7768SOL     OW28623   4.561   3.921   8.733  0.2614  0.1953 -0.0966
 7768SOL    HW128624   4.651   3.945   8.750  0.7163 -0.0189 -1.9552
 7768SOL    HW228625   4.528   3.990   8.676 -0.1852 -0.6155 -0.8503
 7769SOL     OW28626  11.085   3.179   9.819 -0.9902 -0.6475  0.2530
 7769SOL    HW128627  11.109   3.095   9.857 -1.3904 -0.8528  0.0624
 7769SOL    HW228628  10.991   3.170   9.799 -0.9399 -0.3001 -0.1471
 7770SOL     OW28629  10.392   3.214   2.799 -0.3097  0.1904 -0.2971
 7770SOL    HW128630  10.387   3.237   2.706 -2.6582  1.9848  0.1901
 7770SOL    HW228631  10.323   3.266   2.840  1.1091 -0.0217  2.5819
 7771SOL     OW28632   3.314   5.394   0.787  0.1300  0.1981  0.6170
 7771SOL    HW128633   3.367   5.474   0.784  0.1586  0.1650 -1.8127
 7771SOL    HW228634   3.367   5.332   0.839  2.4976  0.2206 -1.5698
 7772SOL     OW28635   4.564  10.879   4.736  0.6108  0.4952  0.0895
 7772SOL    HW128636   4.531  10.790   4.723  2.6935 -0.5175  1.2950
 7772SOL    HW228637   4.493  10.925   4.781 -1.0427 -0.0825 -1.7786
 7773SOL     OW28638   5.527   5.186  11.528 -0.1141 -0.1108 -0.4081
 7773SOL    HW128639   5.450   5.133  11.547 -0.7963  0.3280 -1.7995
 7773SOL    HW228640   5.493   5.265  11.487  0.9607  1.0164  0.7826
 7774SOL     OW28641   7.998   9.491   5.057  0.2349 -0.2176 -0.1990
 7774SOL    HW128642   7.990   9.574   5.011  1.0906  1.7416  2.8804
 7774SOL    HW228643   7.916   9.445   5.040 -0.2972  1.2656 -1.8925
 7775SOL     OW28644   7.741   4.145  10.856 -0.6186 -0.3939 -0.1021
 7775SOL    HW128645   7.736   4.164  10.950  0.1915  0.6576 -0.2599
 7775SOL    HW228646   7.832   4.161  10.833 -0.8355 -0.5332 -1.0974
 7776SOL     OW28647   1.017   9.530   7.847 -0.5674  0.3123 -0.4479
 7776SOL    HW128648   1.094   9.559   7.796 -0.0354  3.7323  1.9156
 7776SOL    HW228649   1.054   9.481   7.920 -0.3723  2.6423  1.1388
 7777SOL     OW28650   0.675   5.861   7.699 -0.0196  0.2394  0.0171
 7777SOL    HW128651   0.666   5.890   7.608  1.0992 -0.2746 -0.2678
 7777SOL    HW228652   0.704   5.940   7.746  0.3775  0.2594 -0.2575
 7778SOL     OW28653   4.765  11.040   0.435  0.8967  0.3536 -0.8448
 7778SOL    HW128654   4.684  11.003   0.400  1.6501 -0.7316 -1.4947
 7778SOL    HW228655   4.828  11.034   0.363  2.0232 -0.4209  0.1524
 7779SOL     OW28656   8.585   7.113   4.723 -0.2604  0.1786  0.0449
 7779SOL    HW128657   8.586   7.196   4.675  2.7061 -1.1970 -2.6611
 7779SOL    HW228658   8.628   7.133   4.806 -2.8967  2.0080  1.1054
 7780SOL     OW28659   7.747  10.934   7.904  0.0174  0.0024  0.1006
 7780SOL    HW128660   7.762  10.906   7.995 -2.4445  0.1635  0.6359
 7780SOL    HW228661   7.783  11.022   7.899 -0.2167  0.1693  1.0877
 7781SOL     OW28662   8.737   4.076  11.629 -0.1363 -0.0049 -0.4416
 7781SOL    HW128663   8.809   4.051  11.572  1.9396 -1.8349  2.7151
 7781SOL    HW228664   8.708   3.994  11.668 -2.1859  1.0326  0.3729
 7782SOL     OW28665   1.964   5.031   2.166 -0.1883 -0.1247  0.1781
 7782SOL    HW128666   2.017   5.102   2.202 -0.9629  1.1159 -1.0215
 7782SOL    HW228667   2.028   4.969   2.130  0.4821  0.3607  0.5093
 7783SOL     OW28668  11.149   8.196   7.837  0.2006  0.3317 -0.4111
 7783SOL    HW128669  11.241   8.206   7.860  0.4605  0.8065 -1.5829
 7783SOL    HW228670  11.122   8.115   7.880  0.6193  1.1669  1.5409
 7784SOL     OW28671   5.864   1.646   3.386  0.1049  0.3520  0.1761
 7784SOL    HW128672   5.898   1.663   3.474  1.6554 -1.5037 -0.0103
 7784SOL    HW228673   5.778   1.606   3.401 -0.2099  1.2035  0.7692
 7785SOL     OW28674   8.203   4.989   4.322 -0.2157 -0.0722  0.2855
 7785SOL    HW128675   8.237   5.034   4.399  2.6592 -1.2415 -0.2003
 7785SOL    HW228676   8.213   5.052   4.251 -1.6822  0.5364  0.5652
 7786SOL     OW28677  11.031   2.765  10.475 -0.2644 -0.5250 -0.2683
 7786SOL    HW128678  11.003   2.772  10.566 -1.3660 -0.6505 -0.5806
 7786SOL    HW228679  11.006   2.676  10.449  0.7562 -0.7634 -0.4708
 7787SOL     OW28680   2.435   4.406   5.604  0.4915 -0.0416  0.1359
 7787SOL    HW128681   2.521   4.406   5.562  0.7136 -0.0998  0.5841
 7787SOL    HW228682   2.419   4.314   5.626  0.4187  0.0025  0.2669
 7788SOL     OW28683  10.265  10.320   7.730  0.0923  0.0329 -0.0699
 7788SOL    HW128684  10.347  10.303   7.682  0.4078  1.0558  0.0796
 7788SOL    HW228685  10.212  10.242   7.714  1.1571 -0.7305 -0.0414
 7789SOL     OW28686   4.313   1.848   7.123 -0.2566 -0.0630 -0.2224
 7789SOL    HW128687   4.378   1.914   7.098  2.6574 -2.1980  1.1105
 7789SOL    HW228688   4.326   1.836   7.217 -2.5103 -0.7744  0.0604
 7790SOL     OW28689  10.475   6.065   4.512 -0.1208 -0.2639  0.2261
 7790SOL    HW128690  10.565   6.033   4.521  0.1307  0.3813  0.0846
 7790SOL    HW228691  10.439   6.016   4.438  0.3130 -0.1011 -0.0987
 7791SOL     OW28692   1.201  11.152  10.558  0.2628  0.0459  0.0283
 7791SOL    HW128693   1.215  11.173  10.650 -1.1649 -0.8443  0.4725
 7791SOL    HW228694   1.126  11.205  10.532  0.7123  0.3591 -0.6703
 7792SOL     OW28695   1.085   6.029  11.394  0.2912 -0.3536  0.3418
 7792SOL    HW128696   1.051   6.118  11.381  0.7945 -0.2345 -0.1432
 7792SOL    HW228697   1.067   6.010  11.487 -2.4601 -0.8601 -0.2008
 7793SOL     OW28698   1.495   1.207  10.883  0.0233  0.0026  0.3506
 7793SOL    HW128699   1.416   1.259  10.869  0.2595  0.6160  1.1823
 7793SOL    HW228700   1.477   1.160  10.965  0.5227  0.1663  0.5579
 7794SOL     OW28701   5.269   3.983   2.960  0.5197  0.3809 -0.4007
 7794SOL    HW128702   5.262   3.919   3.031 -0.3338 -0.0712 -0.8790
 7794SOL    HW228703   5.364   3.997   2.950  0.8503 -1.8542 -1.1952
 7795SOL     OW28704   3.072   0.916   2.081  0.1086  0.2518 -0.7181
 7795SOL    HW128705   2.994   0.870   2.112 -0.6782  1.2840 -1.1209
 7795SOL    HW228706   3.092   0.875   1.997  0.8210 -0.9232 -0.0048
 7796SOL     OW28707   0.814   3.418   6.547 -0.3604  0.3030 -0.4103
 7796SOL    HW128708   0.860   3.376   6.619 -3.3478 -1.2731  0.7726
 7796SOL    HW228709   0.757   3.483   6.590 -0.6593  0.8295 -1.5574
 7797SOL     OW28710  11.770  11.188   3.169 -0.0379  0.1624 -0.4412
 7797SOL    HW128711  11.784  11.150   3.082  1.0057  0.6552 -0.5073
 7797SOL    HW228712  11.856  11.185   3.210  0.4324  3.5423 -0.9111
 7798SOL     OW28713  10.290  11.226  10.685 -0.0920  0.3607  0.2957
 7798SOL    HW128714  10.245  11.284  10.747 -0.3205  0.6225 -0.1135
 7798SOL    HW228715  10.222  11.163  10.659 -0.5990  1.4979 -1.2737
 7799SOL     OW28716  11.276   8.594  11.329 -0.4244 -0.1991  0.0163
 7799SOL    HW128717  11.301   8.527  11.265 -1.0266 -0.6298  0.2147
 7799SOL    HW228718  11.354   8.605  11.383 -0.2606 -0.6259 -0.1220
 7800SOL     OW28719   6.389   0.374   3.635 -0.2070  0.3084 -0.0222
 7800SOL    HW128720   6.315   0.415   3.680 -1.3214 -0.0975 -1.4045
 7800SOL    HW228721   6.390   0.415   3.548  0.6051 -0.3621 -0.3415
 7801SOL     OW28722   2.020  10.816   3.335 -0.5567 -0.0309 -0.3266
 7801SOL    HW128723   2.099  10.852   3.375 -0.8701  0.5729 -0.2395
 7801SOL    HW228724   1.957  10.888   3.338 -0.7393 -0.1280 -1.4635
 7802SOL     OW28725   4.244  10.440   2.707 -0.0644 -0.3492 -0.1439
 7802SOL    HW128726   4.234  10.498   2.782  0.9544  0.3411 -0.5219
 7802SOL    HW228727   4.158  10.441   2.665  0.3270  2.2613 -1.0969
 7803SOL     OW28728   2.524   4.785   1.228 -0.0289  0.6504 -0.0296
 7803SOL    HW128729   2.533   4.875   1.262  2.0829  0.2143  0.7165
 7803SOL    HW228730   2.613   4.751   1.228 -0.9008 -1.8203  0.6995
 7804SOL     OW28731   6.357   1.926   4.343 -0.3871  0.1672  0.2019
 7804SOL    HW128732   6.323   1.909   4.431 -1.0708 -0.3524 -0.1543
 7804SOL    HW228733   6.280   1.925   4.287  0.1068 -0.0319 -0.4876
 7805SOL     OW28734   5.660   9.498   3.178 -0.4061  0.1917 -0.2179
 7805SOL    HW128735   5.712   9.487   3.258 -0.8393 -0.9554 -0.0777
 7805SOL    HW228736   5.661   9.593   3.162  1.9497  0.2018 -0.3869
 7806SOL     OW28737   7.139   5.239   0.840  0.3612  0.4509 -0.5319
 7806SOL    HW128738   7.157   5.230   0.934 -0.0189 -0.2937 -0.5207
 7806SOL    HW228739   7.111   5.330   0.830 -0.0810  0.4077  0.1650
 7807SOL     OW28740   9.754   1.433   8.444  0.3057 -0.0880  0.1177
 7807SOL    HW128741   9.784   1.497   8.509  1.5095 -1.9304  1.5104
 7807SOL    HW228742   9.831   1.415   8.391 -0.2275  0.1579 -0.7547
 7808SOL     OW28743   4.094  11.813   4.666  0.0418 -0.1327 -0.3370
 7808SOL    HW128744   4.171  11.835   4.718  0.0732  0.9171 -0.7841
 7808SOL    HW228745   4.020  11.823   4.725  0.2443 -1.3415  0.1501
 7809SOL     OW28746   0.294   4.617   1.550  0.5416  0.5776 -0.2733
 7809SOL    HW128747   0.221   4.565   1.517 -0.4666  1.7979 -0.0193
 7809SOL    HW228748   0.287   4.701   1.504  0.8654  1.2523  0.8819
 7810SOL     OW28749   2.653   5.509   6.554  0.4613  0.0605  0.6244
 7810SOL    HW128750   2.658   5.455   6.475  0.1821  1.3344 -0.3032
 7810SOL    HW228751   2.625   5.449   6.623 -0.4791 -0.8509 -0.5031
 7811SOL     OW28752   6.793   5.642   2.722  0.1803  0.4423  0.1380
 7811SOL    HW128753   6.786   5.689   2.639  0.1736  0.3788  0.1034
 7811SOL    HW228754   6.782   5.550   2.700 -0.7607  0.5029  0.3294
 7812SOL     OW28755   5.614   2.714   2.652  0.2921  0.6963 -0.2444
 7812SOL    HW128756   5.530   2.669   2.650  0.9650 -0.9465  2.2396
 7812SOL    HW228757   5.676   2.651   2.615  0.8528  0.6027  0.8045
 7813SOL     OW28758  10.856  10.632   5.493 -0.2858  0.2562 -0.1818
 7813SOL    HW128759  10.857  10.583   5.576  0.9931 -1.2253 -1.0166
 7813SOL    HW228760  10.776  10.683   5.496 -1.1558 -1.1051  1.2211
 7814SOL     OW28761   1.967   1.967   4.526  0.2050  0.2175  0.1534
 7814SOL    HW128762   1.977   2.062   4.525  1.3924  0.0997 -0.3125
 7814SOL    HW228763   1.900   1.950   4.459  0.6571  0.6560 -0.4152
 7815SOL     OW28764   0.318  10.096   9.527 -0.0048  0.4366  0.4193
 7815SOL    HW128765   0.273  10.142   9.457  1.4305  0.5116 -0.4908
 7815SOL    HW228766   0.402  10.071   9.490  0.5670 -0.0351  1.9352
 7816SOL     OW28767   0.990   5.216   1.322  0.5861 -0.0869  0.3488
 7816SOL    HW128768   0.900   5.208   1.354  1.0652 -0.3913  1.6852
 7816SOL    HW228769   1.033   5.275   1.385  1.5024 -0.5251  0.1533
 7817SOL     OW28770   2.558  10.905   8.743 -0.2992  0.2060 -0.5525
 7817SOL    HW128771   2.638  10.877   8.699  0.1853 -0.4359  0.6625
 7817SOL    HW228772   2.524  10.977   8.690  0.5434 -0.1735 -1.6297
 7818SOL     OW28773   1.724   7.411  10.130  0.4035 -0.4727  0.4711
 7818SOL    HW128774   1.767   7.494  10.112  4.2042 -1.0479  4.9799
 7818SOL    HW228775   1.660   7.431  10.198  0.6818 -1.1035  0.9258
 7819SOL     OW28776  11.659   5.931   3.076 -0.1356 -0.0458  0.6169
 7819SOL    HW128777  11.628   6.011   3.119  1.2466  2.4825 -2.6441
 7819SOL    HW228778  11.607   5.925   2.995  1.0200 -1.4290 -0.0746
 7820SOL     OW28779   4.097   7.782   9.503  0.2611  0.1247 -0.6560
 7820SOL    HW128780   4.005   7.800   9.484 -0.4393 -0.5441  1.7254
 7820SOL    HW228781   4.106   7.687   9.494  0.0660 -0.1302  1.3854
 7821SOL     OW28782   1.303   9.289   7.719  0.3772 -0.5160 -0.0169
 7821SOL    HW128783   1.231   9.246   7.766  1.4159 -1.4711  0.7555
 7821SOL    HW228784   1.264   9.370   7.685 -1.5228 -1.8040 -1.1061
 7822SOL     OW28785   3.149   9.090   6.033 -0.1748 -0.0392  0.3973
 7822SOL    HW128786   3.110   9.008   6.004 -1.3941  0.8708 -0.6308
 7822SOL    HW228787   3.225   9.063   6.085 -1.1900 -1.8252  1.0380
 7823SOL     OW28788  10.794   4.166   3.016  0.3338  0.3521  0.2592
 7823SOL    HW128789  10.736   4.239   3.032 -1.0856 -0.2536 -1.7687
 7823SOL    HW228790  10.855   4.197   2.948  0.3325 -0.0299  0.0780
 7824SOL     OW28791   3.908   8.526   7.895  0.3765  0.1685  0.0932
 7824SOL    HW128792   3.913   8.594   7.962 -3.1853 -0.1041  0.8299
 7824SOL    HW228793   3.920   8.574   7.812  2.1232  0.9248  0.7298
 7825SOL     OW28794   8.776  10.125   0.317  0.5799 -0.6591  0.4747
 7825SOL    HW128795   8.737  10.114   0.230  0.4062 -1.4638  0.6430
 7825SOL    HW228796   8.865  10.155   0.299 -0.0252  1.0200  0.0811
 7826SOL     OW28797   2.333   7.136   4.704  0.3389 -0.2624 -0.2636
 7826SOL    HW128798   2.417   7.179   4.718  0.5461 -0.9701  0.8342
 7826SOL    HW228799   2.316   7.090   4.787 -0.0266 -2.0089 -1.2503
 7827SOL     OW28800  10.823   5.597   9.246  0.3263 -0.0521 -0.6008
 7827SOL    HW128801  10.752   5.620   9.186 -0.7183 -1.3399  0.0923
 7827SOL    HW228802  10.805   5.506   9.271  1.3037  0.1312  0.8776
 7828SOL     OW28803   2.756   8.598   9.623 -0.0968 -0.4189  0.6226
 7828SOL    HW128804   2.668   8.635   9.616  0.5542  0.8791 -2.1921
 7828SOL    HW228805   2.808   8.667   9.665 -0.3243 -1.0908  2.0638
 7829SOL     OW28806  10.779   1.941   9.594  1.0850 -0.3882 -0.0120
 7829SOL    HW128807  10.764   2.023   9.640 -1.8476 -0.0269 -1.3237
 7829SOL    HW228808  10.868   1.916   9.617  1.9730  2.9345  0.7561
 7830SOL     OW28809   6.360   3.776   2.788  0.5124  0.4607  0.3281
 7830SOL    HW128810   6.447   3.737   2.781  0.2383  0.0663 -1.2720
 7830SOL    HW228811   6.364   3.830   2.867  2.8472  2.0006 -0.7202
 7831SOL     OW28812  11.533   4.690   5.284 -0.3116  0.4005  0.2685
 7831SOL    HW128813  11.451   4.739   5.291  0.4531  1.5509  1.6398
 7831SOL    HW228814  11.598   4.756   5.259  0.8788  0.3360  2.8444
 7832SOL     OW28815   5.194   1.370   9.959 -0.4039  0.0264 -0.1025
 7832SOL    HW128816   5.131   1.397  10.026 -0.8462 -0.3741 -0.3517
 7832SOL    HW228817   5.140   1.338   9.887  0.0830 -0.2728 -0.3384
 7833SOL     OW28818   0.704   6.682   3.038  0.2506  0.1983  0.0907
 7833SOL    HW128819   0.687   6.588   3.042  1.9080 -0.0914  1.1526
 7833SOL    HW228820   0.764   6.699   3.110 -1.1155  2.3412  0.8228
 7834SOL     OW28821  10.018   3.536   1.583 -0.4734  0.0738  0.1167
 7834SOL    HW128822  10.042   3.629   1.586 -1.7640  0.8337 -4.8233
 7834SOL    HW228823   9.925   3.535   1.609 -0.3393  0.0809  0.6023
 7835SOL     OW28824   6.946  11.607  10.438  0.6025 -0.0852 -0.5120
 7835SOL    HW128825   7.006  11.588  10.511 -0.6825 -3.0565 -0.0700
 7835SOL    HW228826   6.969  11.543  10.371 -1.6020 -0.9141 -0.5617
 7836SOL     OW28827  10.861   1.688   2.557 -0.4474  0.3404  0.3666
 7836SOL    HW128828  10.911   1.734   2.489  0.8347  1.4028  1.9565
 7836SOL    HW228829  10.778   1.737   2.562  0.3203  1.6331  1.0298
 7837SOL     OW28830   8.927   6.927   0.706  0.6474 -0.5654 -0.0409
 7837SOL    HW128831   8.949   6.902   0.796 -0.2535  2.8805  1.3323
 7837SOL    HW228832   8.831   6.935   0.707  0.7542  1.6349 -0.5285
 7838SOL     OW28833   1.467  11.115  11.263 -0.1641  0.2316 -0.5118
 7838SOL    HW128834   1.441  11.169  11.337 -0.0582 -1.4022  0.7689
 7838SOL    HW228835   1.420  11.152  11.188 -0.2140  1.9629  0.3255
 7839SOL     OW28836   7.251   6.315  10.527 -0.1908 -0.0071  0.3810
 7839SOL    HW128837   7.329   6.369  10.518 -0.7635  1.0670  1.5526
 7839SOL    HW228838   7.284   6.226  10.534  0.7294  0.0011 -2.5817
 7840SOL     OW28839   5.935   2.361   5.728  0.0300  0.1298  0.1606
 7840SOL    HW128840   5.966   2.366   5.637 -1.2311  1.1827 -0.2460
 7840SOL    HW228841   5.997   2.413   5.778  1.3637 -1.3527  0.1143
 7841SOL     OW28842   7.491   1.675  11.415 -0.0013 -0.0859  0.2952
 7841SOL    HW128843   7.491   1.746  11.351 -1.2632  0.6089  1.0392
 7841SOL    HW228844   7.581   1.674  11.449  0.2077  0.7015 -0.2094
 7842SOL     OW28845  11.541  11.320   7.292 -0.0355  0.0798  0.6353
 7842SOL    HW128846  11.523  11.258   7.362 -1.6530  0.3744  0.5101
 7842SOL    HW228847  11.593  11.389   7.334  0.8271 -0.7812  1.0226
 7843SOL     OW28848   8.895   4.259   1.986  0.0264  0.5049 -0.0414
 7843SOL    HW128849   8.909   4.294   1.897 -2.0647  0.8511 -0.2850
 7843SOL    HW228850   8.871   4.168   1.972  2.7040 -0.3793  0.4338
 7844SOL     OW28851   1.643   8.686   6.805 -0.1106 -0.0810  0.4218
 7844SOL    HW128852   1.573   8.649   6.858 -1.4204  0.0149 -1.1476
 7844SOL    HW228853   1.600   8.712   6.723  1.3617  1.9296  0.2004
 7845SOL     OW28854   7.702   1.895   0.111 -0.0457 -0.0447  0.6357
 7845SOL    HW128855   7.618   1.860   0.082 -0.1387 -0.7642  1.6832
 7845SOL    HW228856   7.686   1.922   0.202  0.0746  2.6054 -0.0447
 7846SOL     OW28857   4.456   4.392   7.503 -0.4091  0.6016 -0.2731
 7846SOL    HW128858   4.390   4.366   7.568 -0.5409 -0.2410 -0.7357
 7846SOL    HW228859   4.417   4.467   7.458 -0.8028  0.4724 -0.1508
 7847SOL     OW28860  11.007  11.339   9.007 -0.1485 -0.5562  0.2322
 7847SOL    HW128861  11.019  11.417   8.952  0.9399 -0.6678  0.2945
 7847SOL    HW228862  10.989  11.375   9.094  1.1522 -0.3402  0.4380
 7848SOL     OW28863  10.723   0.273   5.881  0.1292 -0.1922 -0.0514
 7848SOL    HW128864  10.750   0.216   5.953  0.6394 -1.5416 -1.2438
 7848SOL    HW228865  10.742   0.222   5.802 -3.3254 -0.1362 -1.1099
 7849SOL     OW28866   9.333   5.769   3.386  0.6653 -0.1149 -0.5088
 7849SOL    HW128867   9.302   5.691   3.433 -2.6747 -0.0278 -2.3088
 7849SOL    HW228868   9.416   5.791   3.429  0.6754 -3.3624  1.4769
 7850SOL     OW28869   0.581   8.278  10.752  0.0628 -0.2396 -0.3020
 7850SOL    HW128870   0.667   8.235  10.754  0.4564  0.5363  0.4330
 7850SOL    HW228871   0.600   8.367  10.723 -0.5034 -0.0785 -0.1817
 7851SOL     OW28872   7.947   9.139  10.815  0.3876 -0.2643 -0.0572
 7851SOL    HW128873   7.932   9.137  10.720 -1.3184 -1.4379  0.2056
 7851SOL    HW228874   8.036   9.175  10.824  0.8232 -0.6962 -2.1197
 7852SOL     OW28875   6.464   2.220   1.255 -0.1556  0.1494 -0.6161
 7852SOL    HW128876   6.518   2.265   1.320 -2.2085 -1.1498  2.2169
 7852SOL    HW228877   6.413   2.157   1.306 -1.9123 -0.9979 -3.5445
 7853SOL     OW28878   3.586   6.171   4.555 -0.1488 -0.2912 -0.0508
 7853SOL    HW128879   3.626   6.084   4.559  2.0812  0.7198  1.2133
 7853SOL    HW228880   3.506   6.163   4.605  0.2984 -1.4902  0.5083
 7854SOL     OW28881   2.250   2.067   2.158 -0.8787 -0.0748  0.1609
 7854SOL    HW128882   2.329   2.077   2.104 -0.0261  1.8188  1.6817
 7854SOL    HW228883   2.270   1.994   2.217 -0.6495 -0.2099 -0.0821
 7855SOL     OW28884   7.330   6.681   5.992 -0.5854  0.1024  0.4929
 7855SOL    HW128885   7.236   6.679   5.974 -1.0099  0.1992  2.4716
 7855SOL    HW228886   7.343   6.761   6.044  0.6768  0.3392 -0.1448
 7856SOL     OW28887   2.926  10.191   3.903 -0.3157  0.3182 -0.0998
 7856SOL    HW128888   3.000  10.242   3.935 -0.6441  0.8437 -0.1596
 7856SOL    HW228889   2.850  10.248   3.916 -0.7288 -0.2573  0.0749
 7857SOL     OW28890   0.921  10.488   1.677 -0.1643  0.7037 -0.1716
 7857SOL    HW128891   0.941  10.403   1.639  1.7284  1.9275 -2.1352
 7857SOL    HW228892   0.941  10.478   1.770  0.9872 -0.7123 -0.5385
 7858SOL     OW28893   9.811   9.067   9.710 -0.2322  0.1293  0.7026
 7858SOL    HW128894   9.730   9.095   9.668  0.8830  2.0422 -0.2832
 7858SOL    HW228895   9.871   9.048   9.638  1.0549  1.4236  1.3807
 7859SOL     OW28896  10.362   3.668   7.309 -0.2591 -0.2930 -0.2061
 7859SOL    HW128897  10.417   3.594   7.284  0.5493  0.4621 -0.7423
 7859SOL    HW228898  10.419   3.744   7.299 -0.9305  0.3620  0.7986
 7860SOL     OW28899   4.616   1.418  10.845 -0.3976  0.0107 -0.1155
 7860SOL    HW128900   4.695   1.364  10.850  0.4298  1.2581  0.9007
 7860SOL    HW228901   4.647   1.503  10.814 -0.9871  1.1020  2.1189
 7861SOL     OW28902   1.198   4.816   4.283  0.1706 -0.3902 -0.4710
 7861SOL    HW128903   1.214   4.804   4.190  1.0555 -0.2688 -0.3396
 7861SOL    HW228904   1.200   4.911   4.295 -0.0889 -0.3992 -0.3507
 7862SOL     OW28905   3.468   0.830   5.231 -0.0615 -0.1945 -0.1114
 7862SOL    HW128906   3.429   0.768   5.168 -0.4505  0.0418 -0.1054
 7862SOL    HW228907   3.412   0.824   5.308 -0.1151  0.1781 -0.1181
 7863SOL     OW28908   0.552   1.729   1.722 -0.1007 -0.6734 -0.8865
 7863SOL    HW128909   0.461   1.704   1.737  0.1400 -0.2126  1.8666
 7863SOL    HW228910   0.568   1.710   1.630 -3.6178  1.2720 -2.0584
 7864SOL     OW28911   8.285   2.506  10.786  0.4281 -0.1781  0.3004
 7864SOL    HW128912   8.365   2.533  10.741  0.0921 -0.1133 -0.2691
 7864SOL    HW228913   8.278   2.412  10.767  1.0144 -0.4613  1.3745
 7865SOL     OW28914   0.657   5.618   3.634  0.6499 -0.1539  0.2940
 7865SOL    HW128915   0.564   5.637   3.628  0.9668  1.3796 -0.0778
 7865SOL    HW228916   0.690   5.628   3.545  1.0843 -1.2075  0.3270
 7866SOL     OW28917   2.309   0.699   9.619 -0.4980 -0.2085  0.4583
 7866SOL    HW128918   2.362   0.693   9.698  0.1193  0.7860  0.1357
 7866SOL    HW228919   2.219   0.711   9.650 -0.4474 -1.1086  0.9975
 7867SOL     OW28920   3.403   5.345  10.415 -0.7066  0.4054  0.7368
 7867SOL    HW128921   3.400   5.417  10.478  1.8734  0.1371  1.2835
 7867SOL    HW228922   3.423   5.388  10.331  1.2826  0.3607  1.1417
 7868SOL     OW28923   7.360   6.634   0.662 -0.3265  0.3766  0.0108
 7868SOL    HW128924   7.419   6.687   0.608  0.7826  0.5941  1.3725
 7868SOL    HW228925   7.347   6.554   0.611  0.9888  0.4049 -0.4165
 7869SOL     OW28926   3.918   1.936   8.776 -0.1278  0.3976  0.5740
 7869SOL    HW128927   3.889   2.027   8.773  0.1885  0.5241  1.1002
 7869SOL    HW228928   3.894   1.900   8.691  1.6014  1.5457 -0.4766
 7870SOL     OW28929   4.672   1.297   4.794 -0.0440  0.1794  0.3857
 7870SOL    HW128930   4.738   1.366   4.799 -0.0316  0.3732 -1.8030
 7870SOL    HW228931   4.718   1.222   4.756 -0.5085 -0.4695  1.0690
 7871SOL     OW28932   3.403   0.128   8.557  0.5925  0.4530  0.3497
 7871SOL    HW128933   3.312   0.134   8.529  0.7257 -2.8439 -1.1949
 7871SOL    HW228934   3.398   0.122   8.653 -0.8375  0.0232  0.2766
 7872SOL     OW28935  10.077   0.396   1.181 -0.1434 -0.7055 -0.0737
 7872SOL    HW128936  10.025   0.320   1.154 -1.3076 -0.2664  0.8411
 7872SOL    HW228937  10.114   0.370   1.266 -0.4248 -0.3226  0.1713
 7873SOL     OW28938  10.136   5.774   6.015 -0.0513  0.0089  0.3597
 7873SOL    HW128939  10.063   5.782   6.076  0.0055 -0.4204  0.4866
 7873SOL    HW228940  10.154   5.680   6.011  0.9849  0.1627  0.9148
 7874SOL     OW28941   4.993  10.843   4.709  0.5059 -0.6110  0.1720
 7874SOL    HW128942   5.030  10.858   4.622  0.2134  0.9006  0.2752
 7874SOL    HW228943   5.036  10.764   4.741  2.7083  0.3560 -0.2233
 7875SOL     OW28944   5.919   2.946   0.361  1.2415 -0.2934  0.4881
 7875SOL    HW128945   5.946   2.919   0.449 -0.5929 -4.6126 -0.0006
 7875SOL    HW228946   5.999   2.939   0.309  1.9264  0.3502  1.4151
 7876SOL     OW28947   9.622   8.413  11.725 -0.2362 -0.1716 -0.3858
 7876SOL    HW128948   9.627   8.469  11.647 -2.8059 -0.8816 -1.1574
 7876SOL    HW228949   9.684   8.342  11.708  0.2049  0.3852 -1.1649
 7877SOL     OW28950   9.831   2.479   9.205  0.1425 -0.8032  0.1143
 7877SOL    HW128951   9.859   2.409   9.147 -2.1570 -0.9486 -0.9284
 7877SOL    HW228952   9.770   2.437   9.265  0.0034 -0.0013  0.5468
 7878SOL     OW28953  11.080  11.797   9.645 -0.8772 -0.2308  0.1855
 7878SOL    HW128954  11.158  11.772   9.695  1.4984 -0.0250 -3.1367
 7878SOL    HW228955  11.022  11.721   9.651  0.9852 -1.7163  0.1040
 7879SOL     OW28956   9.407   4.267   8.690  0.0074  0.1208 -0.0467
 7879SOL    HW128957   9.339   4.289   8.626  1.5842  3.2742 -0.8287
 7879SOL    HW228958   9.392   4.326   8.763  2.0336  1.1752 -0.4015
 7880SOL     OW28959   7.422   0.619   3.356 -0.1033 -0.5504  0.4350
 7880SOL    HW128960   7.455   0.687   3.415 -0.8866  0.0073  0.2485
 7880SOL    HW228961   7.328   0.615   3.375 -0.3938 -0.2599 -0.8624
 7881SOL     OW28962   1.099   4.532   5.617 -0.4902  0.4002 -0.0047
 7881SOL    HW128963   1.191   4.510   5.598 -0.3653 -0.9187  1.8926
 7881SOL    HW228964   1.102   4.623   5.645 -0.1128  1.0592 -1.9765
 7882SOL     OW28965   5.098   9.623   7.306  0.0930  0.6195 -0.3594
 7882SOL    HW128966   5.133   9.544   7.264  1.9517  1.1169  0.1488
 7882SOL    HW228967   5.008   9.600   7.328  0.0792 -0.7876 -1.6624
 7883SOL     OW28968   7.113   7.751  11.649  0.0232 -0.1210  0.4268
 7883SOL    HW128969   7.156   7.769  11.733 -2.7679  2.9471  1.4377
 7883SOL    HW228970   7.165   7.799  11.585  0.9488 -0.6791  0.7429
 7884SOL     OW28971   3.489   0.957   2.748  0.3081 -0.1193  0.0087
 7884SOL    HW128972   3.576   0.965   2.710 -0.2050 -0.2052 -1.2508
 7884SOL    HW228973   3.451   0.880   2.705  0.2074 -1.1411  1.8083
 7885SOL     OW28974  10.260   7.960   3.219 -0.2120 -0.1457 -0.1390
 7885SOL    HW128975  10.349   7.982   3.193 -0.1875  0.1181  0.1606
 7885SOL    HW228976  10.269   7.880   3.270 -0.3869 -1.3364 -1.9044
 7886SOL     OW28977   4.739   2.331   4.502  0.3135  0.3790 -0.3038
 7886SOL    HW128978   4.818   2.374   4.536  0.3757  0.4546 -0.5413
 7886SOL    HW228979   4.676   2.337   4.573  0.8264 -0.5164  0.2346
 7887SOL     OW28980   8.917   4.757   5.036  0.2240  0.0619  0.2812
 7887SOL    HW128981   8.953   4.670   5.054  0.1070 -0.0864 -0.1885
 7887SOL    HW228982   8.869   4.747   4.954  1.6912  0.9774 -0.7459
 7888SOL     OW28983   0.920   2.595   3.867  0.4508  0.8494 -0.2793
 7888SOL    HW128984   0.988   2.567   3.805  0.8741  1.0951  0.0640
 7888SOL    HW228985   0.953   2.566   3.952  1.2391  2.9710  0.1835
 7889SOL     OW28986   0.044   9.667   7.352 -0.5904  0.1206  0.2709
 7889SOL    HW128987   0.114   9.637   7.409 -0.3088  0.2507 -0.0016
 7889SOL    HW228988  -0.032   9.678   7.410  0.0806  1.6943  0.9281
 7890SOL     OW28989   0.707   8.047   3.594  0.2019 -0.4185 -0.2403
 7890SOL    HW128990   0.725   7.962   3.634 -0.0787 -1.0045 -1.3085
 7890SOL    HW228991   0.694   8.028   3.501  0.4702  0.8382 -0.5676
 7891SOL     OW28992   2.245   6.132   7.352  0.2442  0.5308 -0.3766
 7891SOL    HW128993   2.162   6.101   7.315  0.2611  0.1081 -0.0729
 7891SOL    HW228994   2.220   6.198   7.416 -0.0466 -1.1075  1.3121
 7892SOL     OW28995  11.686   9.843   1.852  0.6416 -0.0040 -0.8872
 7892SOL    HW128996  11.734   9.888   1.783  0.8314  0.1955 -0.6248
 7892SOL    HW228997  11.752   9.795   1.900  0.5272 -0.0326 -0.7581
 7893SOL     OW28998   2.873   7.069  10.147  0.5170  0.2867  0.0073
 7893SOL    HW128999   2.909   6.982  10.136  0.6943  0.2425  0.9007
 7893SOL    HW229000   2.873   7.106  10.058 -0.3867 -0.9273 -0.5294
 7894SOL     OW29001   9.266   7.489   4.838  0.6374  0.1237  0.3434
 7894SOL    HW129002   9.249   7.433   4.762 -0.3801  0.2787  0.4344
 7894SOL    HW229003   9.249   7.432   4.914  1.6660 -0.0359  0.4605
 7895SOL     OW29004   8.412   7.659  10.986 -0.2249  0.1140 -0.2796
 7895SOL    HW129005   8.367   7.709  11.054  1.1108 -0.5271  1.1405
 7895SOL    HW229006   8.371   7.572  10.989  0.3440 -0.1432  0.2588
 7896SOL     OW29007   0.962   7.881   7.623 -0.4312 -0.1770  0.6554
 7896SOL    HW129008   1.043   7.840   7.652 -0.2465  0.4259  1.0079
 7896SOL    HW229009   0.894   7.843   7.679 -0.9625 -3.1873 -1.7608
 7897SOL     OW29010   9.364   8.405   1.294 -0.0413 -0.3768  0.0833
 7897SOL    HW129011   9.417   8.484   1.304  1.0833 -1.0911 -0.0102
 7897SOL    HW229012   9.331   8.387   1.382 -1.1048  0.7088 -0.0679
 7898SOL     OW29013   8.034   3.474   1.293  0.2927 -0.1203  0.4691
 7898SOL    HW129014   8.102   3.485   1.226  1.4597 -1.5487  1.3581
 7898SOL    HW229015   7.994   3.561   1.301  2.3043  0.9008  0.2103
 7899SOL     OW29016   4.497   2.434   2.763 -0.1166  0.2065  0.3322
 7899SOL    HW129017   4.529   2.522   2.742  1.5403 -0.6209 -0.8325
 7899SOL    HW229018   4.527   2.419   2.853  0.7290  0.3345  0.0733
 7900SOL     OW29019   8.470   8.485   4.031  0.2804  0.4433 -0.1228
 7900SOL    HW129020   8.560   8.510   4.052  1.1228 -2.3887  0.0596
 7900SOL    HW229021   8.469   8.389   4.040 -3.4053  0.5076  2.4416
 7901SOL     OW29022   1.123   4.552   4.959 -0.0647 -0.1910  0.0999
 7901SOL    HW129023   1.077   4.608   5.023  0.3969 -1.0079  1.1831
 7901SOL    HW229024   1.213   4.547   4.993  0.3748 -0.0884 -1.0095
 7902SOL     OW29025  10.021   1.123   2.641  0.1256  0.2858 -0.3675
 7902SOL    HW129026   9.996   1.198   2.694  1.8643  1.4208 -1.0409
 7902SOL    HW229027  10.031   1.051   2.704 -1.6588  0.5636  0.2738
 7903SOL     OW29028   0.225   3.834   2.809  0.5311  0.3606  0.3041
 7903SOL    HW129029   0.289   3.795   2.869 -1.4586  0.0878  2.3860
 7903SOL    HW229030   0.206   3.920   2.848  2.7520  2.3968 -2.6824
 7904SOL     OW29031   6.477   7.932   5.471  0.4249  0.2883 -0.1366
 7904SOL    HW129032   6.438   7.911   5.387 -2.3652  1.3953  0.7480
 7904SOL    HW229033   6.502   8.025   5.464 -0.2220  0.5115  0.3457
 7905SOL     OW29034   2.573  10.147   1.849 -0.5058 -0.1628  0.3223
 7905SOL    HW129035   2.629  10.197   1.790 -2.4452  0.9765 -0.6615
 7905SOL    HW229036   2.552  10.068   1.799 -1.3740  0.3564 -0.1589
 7906SOL     OW29037   0.801   8.870   4.956 -0.1961 -0.8816 -0.1485
 7906SOL    HW129038   0.767   8.785   4.983  0.6152 -1.0651  0.3520
 7906SOL    HW229039   0.881   8.882   5.008  0.3776 -0.3764 -1.0971
 7907SOL     OW29040   7.771   9.540   6.056  0.3009  0.7097 -0.0991
 7907SOL    HW129041   7.701   9.512   5.996  0.5681  1.0477 -0.5731
 7907SOL    HW229042   7.801   9.459   6.097 -0.0690  0.5075 -0.2247
 7908SOL     OW29043   0.962   3.756   5.922 -0.0075 -0.6670 -0.2358
 7908SOL    HW129044   1.057   3.767   5.927 -0.2172  1.2878 -0.0348
 7908SOL    HW229045   0.947   3.714   5.837  0.9407  0.5275 -1.0293
 7909SOL     OW29046   2.874   9.462   4.394  0.1110  0.2237 -0.5445
 7909SOL    HW129047   2.822   9.534   4.430  0.6154  0.6470 -0.6398
 7909SOL    HW229048   2.878   9.480   4.300  0.4760  0.2284 -0.5295
 7910SOL     OW29049   3.743   1.608   9.768 -0.2796 -0.4191  0.2526
 7910SOL    HW129050   3.818   1.553   9.748  0.1034 -0.4267  1.6087
 7910SOL    HW229051   3.680   1.590   9.697  1.1527 -0.0477 -1.1784
 7911SOL     OW29052   9.240   0.530   3.350 -0.5108 -0.1132  0.5762
 7911SOL    HW129053   9.231   0.624   3.362 -2.1135 -0.2223  0.5183
 7911SOL    HW229054   9.151   0.500   3.327 -0.1635 -1.7110  1.1726
 7912SOL     OW29055   5.821  10.896   1.786 -0.1125  0.3870  0.3728
 7912SOL    HW129056   5.828  10.988   1.762  2.5495  0.0010 -0.7206
 7912SOL    HW229057   5.830  10.894   1.881 -0.6584  1.2693  0.4494
 7913SOL     OW29058   5.986   4.494  11.397  0.2054  0.0365 -0.1805
 7913SOL    HW129059   5.895   4.463  11.399 -0.1828  0.5919 -3.4692
 7913SOL    HW229060   6.031   4.430  11.342  2.2224 -0.9175  2.3624
 7914SOL     OW29061  11.822   7.336   2.859 -0.2146 -0.2008  0.2609
 7914SOL    HW129062  11.779   7.353   2.942  0.0297 -0.1865  0.3867
 7914SOL    HW229063  11.792   7.249   2.834  0.1929 -0.4630  0.6732
 7915SOL     OW29064   8.585   5.862   6.335 -0.3247  0.1877 -0.5380
 7915SOL    HW129065   8.592   5.945   6.382 -2.9987 -0.0711  0.4861
 7915SOL    HW229066   8.547   5.886   6.250  0.8463  0.1906 -1.0909
 7916SOL     OW29067   4.260   1.899   5.948 -0.5098  0.1053  0.3744
 7916SOL    HW129068   4.350   1.897   5.913 -0.2955  2.1700  0.7219
 7916SOL    HW229069   4.204   1.887   5.871  0.0292  1.5756 -0.2857
 7917SOL     OW29070   3.663   5.820   8.014 -0.0305 -0.1985  0.0049
 7917SOL    HW129071   3.689   5.808   8.106  0.4376 -1.2058 -0.2493
 7917SOL    HW229072   3.646   5.732   7.982 -2.6155  0.3203 -0.2019
 7918SOL     OW29073   3.837   7.234   6.233  0.1062 -0.4079 -0.0276
 7918SOL    HW129074   3.848   7.261   6.324 -1.7648 -0.3768  0.2227
 7918SOL    HW229075   3.797   7.147   6.239  1.1865 -0.9937 -0.8468
 7919SOL     OW29076   0.487  11.383   8.090 -0.2199  0.0465 -0.1916
 7919SOL    HW129077   0.460  11.305   8.040  0.2050  0.4756 -1.1125
 7919SOL    HW229078   0.566  11.414   8.046  0.6817 -0.0527  1.2809
 7920SOL     OW29079   0.011   4.287   0.044  0.0688 -0.3471  0.2285
 7920SOL    HW129080  -0.034   4.259  -0.035 -0.2837  0.8632 -0.0198
 7920SOL    HW229081  -0.053   4.342   0.090  1.1151  1.0360  0.0940
 7921SOL     OW29082   9.603   9.385   0.079  0.5355  0.1751 -0.7293
 7921SOL    HW129083   9.640   9.466   0.113  0.1611 -0.3738  1.1240
 7921SOL    HW229084   9.639   9.317   0.135 -0.3560 -0.7669 -1.2597
 7922SOL     OW29085   2.867   0.395   6.902  0.8020 -0.1150  0.2854
 7922SOL    HW129086   2.915   0.317   6.933  1.7360  0.5491  0.5522
 7922SOL    HW229087   2.854   0.448   6.980  0.3864  0.1142  0.0631
 7923SOL     OW29088   1.729   5.268   5.576  0.3440 -0.2567  0.0605
 7923SOL    HW129089   1.714   5.283   5.670  1.6209 -1.7567  0.5402
 7923SOL    HW229090   1.809   5.317   5.556  1.2570 -1.6064  0.2801
 7924SOL     OW29091   3.598   7.734   0.050 -0.2684 -0.4883 -0.1955
 7924SOL    HW129092   3.530   7.692   0.103 -0.6066 -1.1915 -1.1615
 7924SOL    HW229093   3.679   7.718   0.098 -0.6566 -0.4662  0.4866
 7925SOL     OW29094   2.578   1.334   6.303  0.3220 -0.0374 -0.8472
 7925SOL    HW129095   2.571   1.339   6.398  0.2821 -1.5922 -0.7364
 7925SOL    HW229096   2.543   1.417   6.271 -0.8056  0.0059  0.4435
 7926SOL     OW29097  11.416   0.274   5.608 -0.3666  0.2517  0.4397
 7926SOL    HW129098  11.322   0.289   5.602 -0.5024 -0.5544  0.3748
 7926SOL    HW229099  11.445   0.328   5.681 -0.8254  0.7308  0.2722
 7927SOL     OW29100   8.745  11.008   7.549 -0.3921 -0.0520 -0.2841
 7927SOL    HW129101   8.668  11.017   7.606  0.7398  0.9336  1.1645
 7927SOL    HW229102   8.736  11.080   7.486 -1.2209 -0.6338 -0.8505
 7928SOL     OW29103   7.517   1.503  11.171 -0.2011 -0.3760 -0.3858
 7928SOL    HW129104   7.597   1.452  11.164  0.1163  0.3232 -2.6167
 7928SOL    HW229105   7.542   1.581  11.219  0.7616  0.2927 -1.8911
 7929SOL     OW29106   9.161   8.532   7.991 -0.1654  0.2881  0.1724
 7929SOL    HW129107   9.164   8.519   8.086 -0.9725 -0.3833  0.1238
 7929SOL    HW229108   9.069   8.516   7.968  0.4831 -2.1075 -1.0529
 7930SOL     OW29109   5.101   3.101   7.693 -1.0144  0.0919  0.4061
 7930SOL    HW129110   5.044   3.133   7.623  0.1001 -0.6199 -0.8612
 7930SOL    HW229111   5.108   3.175   7.753 -0.9363  1.1993 -0.9106
 7931SOL     OW29112   0.128   1.546   5.652  0.3494  0.0281 -0.0139
 7931SOL    HW129113   0.130   1.611   5.581 -0.2717  0.2740  0.1854
 7931SOL    HW229114   0.036   1.538   5.674  0.3741 -1.2471 -0.3136
 7932SOL     OW29115   5.263   1.025   9.529 -0.2257 -0.2284 -0.2445
 7932SOL    HW129116   5.221   0.940   9.525  0.0272 -0.3420 -0.6334
 7932SOL    HW229117   5.354   1.006   9.554  0.9272 -0.5204 -3.9703
 7933SOL     OW29118   5.248   8.289   3.030  0.1399  0.5442  0.0145
 7933SOL    HW129119   5.200   8.347   3.090  1.4893  1.2892  0.4026
 7933SOL    HW229120   5.283   8.220   3.085  0.4081  0.5864 -0.1033
 7934SOL     OW29121   0.035  11.348   0.606  0.1643 -0.1394 -0.0756
 7934SOL    HW129122  -0.004  11.322   0.522  0.9591  0.5518 -0.6815
 7934SOL    HW229123   0.041  11.267   0.656 -2.0289 -0.2901  0.0687
 7935SOL     OW29124   5.911   1.587   2.104 -0.1008  0.4601  0.3005
 7935SOL    HW129125   5.876   1.510   2.060  2.2045 -0.4474 -0.0268
 7935SOL    HW229126   5.986   1.555   2.154 -0.1333  2.2083  1.5724
 7936SOL     OW29127   9.415   0.760   1.296  0.0119  0.7052 -0.0930
 7936SOL    HW129128   9.412   0.749   1.201  1.2032  0.3248 -0.1034
 7936SOL    HW229129   9.469   0.687   1.327 -1.0990  0.3023  0.9808
 7937SOL     OW29130   9.160   2.468   5.999 -0.0784  0.4129 -0.0522
 7937SOL    HW129131   9.217   2.495   6.070  0.2192 -2.2801  0.8420
 7937SOL    HW229132   9.197   2.385   5.968 -1.3223  0.5177 -2.0552
 7938SOL     OW29133  11.091   0.428   6.926 -0.5149  0.6093 -0.4244
 7938SOL    HW129134  11.142   0.484   6.868  0.1458 -0.7827 -1.2404
 7938SOL    HW229135  11.151   0.409   6.998 -0.0562 -0.5531 -1.0927
 7939SOL     OW29136   1.452  11.300  11.465  0.1334  0.5889  0.5307
 7939SOL    HW129137   1.420  11.381  11.425 -1.6188  0.5909  1.8649
 7939SOL    HW229138   1.457  11.319  11.558  3.1732  0.2449  0.5635
 7940SOL     OW29139   4.042   4.750   3.070 -0.1978  0.3456  0.5015
 7940SOL    HW129140   4.081   4.766   3.156 -1.3448 -1.6324  1.4616
 7940SOL    HW229141   3.962   4.803   3.070 -0.7359 -0.4362  1.1148
 7941SOL     OW29142   5.964   3.821   7.222  0.0760 -0.0407  0.0875
 7941SOL    HW129143   5.972   3.915   7.236 -1.1484  0.1501 -0.3676
 7941SOL    HW229144   6.012   3.781   7.295  2.1779  0.9051 -0.6998
 7942SOL     OW29145   3.469   2.102   1.046 -0.1063 -0.6055 -0.0650
 7942SOL    HW129146   3.514   2.045   1.109 -0.4973 -0.1227  0.6646
 7942SOL    HW229147   3.451   2.046   0.971  2.2923 -0.6761 -0.6820
 7943SOL     OW29148   5.506   7.430   7.557  0.0839  0.4265 -0.1319
 7943SOL    HW129149   5.588   7.432   7.607 -0.2730 -0.0725  0.5012
 7943SOL    HW229150   5.532   7.450   7.467  0.6701  1.8799  0.3284
 7944SOL     OW29151   4.020   6.254   3.031  0.4895  0.4820 -0.1522
 7944SOL    HW129152   3.980   6.341   3.038 -0.9461 -0.2410  1.1853
 7944SOL    HW229153   4.095   6.256   3.090  0.0808  0.6333  0.3708
 7945SOL     OW29154   7.529   1.623   5.264 -0.0940 -0.1117  0.1136
 7945SOL    HW129155   7.609   1.665   5.232 -1.0851  0.8641 -1.1784
 7945SOL    HW229156   7.515   1.662   5.351  0.5722  0.0516  0.1535
 7946SOL     OW29157   0.551   3.883   7.863  0.1358  0.1083  0.2208
 7946SOL    HW129158   0.471   3.899   7.913 -0.0803  0.9867 -0.3918
 7946SOL    HW229159   0.537   3.929   7.780  1.6790  1.1131  0.4864
 7947SOL     OW29160   5.993   6.372   1.572  0.6125 -0.1477  0.0702
 7947SOL    HW129161   6.060   6.312   1.538  0.8650  0.8716 -1.3309
 7947SOL    HW229162   6.034   6.458   1.568 -1.5039  0.9001 -3.1719
 7948SOL     OW29163   4.250   5.864  11.085  0.0498 -0.1814 -0.0969
 7948SOL    HW129164   4.301   5.878  11.005 -1.2652  0.0850 -0.9176
 7948SOL    HW229165   4.216   5.951  11.107  1.2969 -0.0268  1.4196
 7949SOL     OW29166   5.250   9.804   4.852 -0.7645  0.9379 -0.1763
 7949SOL    HW129167   5.196   9.882   4.868 -2.8433 -0.5567  0.5304
 7949SOL    HW229168   5.193   9.747   4.799  0.6387 -0.1840 -0.5257
 7950SOL     OW29169   5.368   9.414   8.318  0.4508 -0.0676 -0.5428
 7950SOL    HW129170   5.361   9.380   8.407  0.9876  0.8587 -0.1242
 7950SOL    HW229171   5.282   9.452   8.299  0.1007 -0.9333 -0.7129
 7951SOL     OW29172   5.049   2.120   2.943 -0.7231 -0.0715  0.3092
 7951SOL    HW129173   5.107   2.094   3.014  0.5393  0.5803 -0.4397
 7951SOL    HW229174   5.049   2.216   2.946  0.5940  0.0282 -1.4855
 7952SOL     OW29175   7.793   0.724   8.843  0.3700 -0.1015  0.1026
 7952SOL    HW129176   7.699   0.740   8.832  0.8879  1.8371 -2.3736
 7952SOL    HW229177   7.825   0.801   8.890  0.6606 -1.1036  1.6086
 7953SOL     OW29178   0.899   5.530  10.558  0.3495  0.5009  0.7167
 7953SOL    HW129179   0.940   5.613  10.535  0.0338  0.3272 -0.5710
 7953SOL    HW229180   0.881   5.488  10.474  0.3976 -0.8286  1.3389
 7954SOL     OW29181   8.233   4.603   8.146 -0.0551 -0.2196  0.2036
 7954SOL    HW129182   8.251   4.544   8.073 -0.0337  1.5949 -1.3163
 7954SOL    HW229183   8.308   4.594   8.204  0.8552 -0.2936 -0.9670
 7955SOL     OW29184   6.850  11.492   0.779 -0.4201 -0.1388 -0.2072
 7955SOL    HW129185   6.819  11.413   0.734  0.5652 -0.0790 -1.0097
 7955SOL    HW229186   6.803  11.564   0.736 -0.0166 -0.1443 -0.6621
 7956SOL     OW29187   0.770   1.888   4.169 -0.5861  0.3070  0.2621
 7956SOL    HW129188   0.775   1.795   4.144 -0.2021  0.3343  0.2242
 7956SOL    HW229189   0.687   1.896   4.215 -0.0064 -0.3583  1.4791
 7957SOL     OW29190   3.221   9.044   4.366  0.2320 -0.2513  0.0343
 7957SOL    HW129191   3.302   9.076   4.407  0.7958 -1.5233 -0.0540
 7957SOL    HW229192   3.251   8.979   4.302 -0.6714  1.2296 -1.9934
 7958SOL     OW29193   8.366  11.566   9.186  0.7124 -0.1637  0.1102
 7958SOL    HW129194   8.380  11.494   9.247 -0.3602 -2.3176 -2.0363
 7958SOL    HW229195   8.271  11.572   9.176  0.6854  2.3971  1.0994
 7959SOL     OW29196  11.249  11.717   4.867 -0.6167 -0.8750  0.3944
 7959SOL    HW129197  11.334  11.723   4.824  0.0866 -2.0181  1.5654
 7959SOL    HW229198  11.203  11.797   4.841  1.2191  0.3054  0.6388
 7960SOL     OW29199   4.376   6.499   4.404 -0.0285  0.3344 -0.6704
 7960SOL    HW129200   4.444   6.433   4.417 -0.1564 -0.0752 -1.9303
 7960SOL    HW229201   4.340   6.514   4.491  0.3098 -0.9385 -0.2839
 7961SOL     OW29202   0.185   5.818   0.743 -0.2761 -0.3231  0.0435
 7961SOL    HW129203   0.231   5.900   0.759 -1.8146  0.8853 -1.3544
 7961SOL    HW229204   0.093   5.843   0.737 -0.5347 -1.4828 -3.8294
 7962SOL     OW29205   4.092   7.041   3.901  0.3656 -0.5725  0.0175
 7962SOL    HW129206   4.073   7.084   3.818 -0.2837  0.7748  0.8282
 7962SOL    HW229207   4.162   7.093   3.940 -0.0534 -0.5623  0.7749
 7963SOL     OW29208   1.844   4.761  10.902 -0.1991 -0.3343 -0.4551
 7963SOL    HW129209   1.858   4.680  10.853 -0.1333 -1.1442  0.8555
 7963SOL    HW229210   1.930   4.784  10.937 -0.7332 -1.5451  1.8878
 7964SOL     OW29211   3.003   6.098   6.690 -0.1789  0.3210 -0.3966
 7964SOL    HW129212   2.955   6.174   6.657 -0.6465  0.0066 -0.4484
 7964SOL    HW229213   3.087   6.134   6.720 -0.5991  0.9381  0.0595
 7965SOL     OW29214   5.539   4.408   7.592  0.0155 -0.0697 -0.4359
 7965SOL    HW129215   5.540   4.368   7.505  1.7276 -1.9700  0.3913
 7965SOL    HW229216   5.547   4.334   7.652  0.7163  1.3563  1.2753
 7966SOL     OW29217   2.617   9.651   7.651 -0.4620  0.1100 -0.8592
 7966SOL    HW129218   2.692   9.620   7.601  0.0199  0.5575 -0.4273
 7966SOL    HW229219   2.555   9.578   7.650  0.0831 -0.3556 -1.0085
 7967SOL     OW29220  10.061   0.709  10.991  0.5186 -0.6709  0.2902
 7967SOL    HW129221  10.066   0.762  10.912  1.0754 -0.1175  0.6919
 7967SOL    HW229222  10.060   0.772  11.063  0.8598 -1.1907  0.7608
 7968SOL     OW29223  10.787   5.174   1.965 -0.3328 -0.4658 -0.5902
 7968SOL    HW129224  10.830   5.184   2.050  0.9335 -1.9461 -1.0033
 7968SOL    HW229225  10.775   5.264   1.933 -0.4958  0.0910  0.9643
 7969SOL     OW29226  11.191   3.695   7.896 -0.2006  0.4580  0.4022
 7969SOL    HW129227  11.225   3.739   7.974 -1.8776 -0.2190  1.5600
 7969SOL    HW229228  11.139   3.762   7.852 -0.7139  0.3411  0.8267
 7970SOL     OW29229   0.851   1.529   3.245 -0.2546 -0.0108 -0.1422
 7970SOL    HW129230   0.895   1.477   3.312 -0.5163  0.4750  0.4195
 7970SOL    HW229231   0.761   1.495   3.244 -0.2051 -0.1343 -0.3695
 7971SOL     OW29232   9.485   8.167   0.723  0.3624  0.3005 -0.4734
 7971SOL    HW129233   9.581   8.160   0.728  0.3849  1.0199  0.4400
 7971SOL    HW229234   9.462   8.222   0.798 -0.6694  1.0415 -1.3153
 7972SOL     OW29235   3.046  10.108  10.954  0.6363  0.2456 -0.6069
 7972SOL    HW129236   3.089  10.193  10.947 -0.3854  1.0087  1.5271
 7972SOL    HW229237   2.953  10.129  10.968  0.7084 -1.0443  2.5588
 7973SOL     OW29238   7.330   1.442   9.836 -0.0024 -0.2036 -0.1373
 7973SOL    HW129239   7.309   1.453   9.928 -0.7146  0.4186 -0.3634
 7973SOL    HW229240   7.249   1.464   9.790 -0.0240 -1.6666 -0.8639
 7974SOL     OW29241   6.365  10.664  10.574 -0.4275 -0.0336  0.2886
 7974SOL    HW129242   6.368  10.581  10.622  0.8495  0.5783  1.3138
 7974SOL    HW229243   6.290  10.654  10.515 -1.4945 -1.1534  1.7566
 7975SOL     OW29244   6.017   4.525   4.760 -0.5796  0.6340  0.1408
 7975SOL    HW129245   6.013   4.451   4.820 -1.3189  0.1262 -0.5225
 7975SOL    HW229246   6.003   4.602   4.816  3.3168  0.6574  1.4238
 7976SOL     OW29247   4.561  11.795   2.427 -0.1410 -0.2858 -0.3367
 7976SOL    HW129248   4.560  11.863   2.359 -0.3713 -0.0953 -0.1466
 7976SOL    HW229249   4.526  11.839   2.505 -0.7126 -0.7378 -0.3287
 7977SOL     OW29250   5.552   3.553  10.418  0.2306 -0.1661 -0.3618
 7977SOL    HW129251   5.568   3.488  10.487  0.1812  1.0109  0.7987
 7977SOL    HW229252   5.600   3.520  10.342 -0.0490 -1.7079  0.0960
 7978SOL     OW29253   7.725   1.119   4.217  0.5828 -0.1317 -0.4805
 7978SOL    HW129254   7.655   1.180   4.238  0.4095 -0.5973  0.3503
 7978SOL    HW229255   7.752   1.142   4.128 -1.6703 -0.9125 -1.4305
 7979SOL     OW29256   8.374   3.446   2.903  0.0482 -0.1525  0.0006
 7979SOL    HW129257   8.320   3.485   2.972 -0.4552  2.7681 -1.8442
 7979SOL    HW229258   8.311   3.418   2.837  0.6254  0.6457 -0.9154
 7980SOL     OW29259   8.249   2.596   4.991 -0.0580  0.3451 -0.4167
 7980SOL    HW129260   8.177   2.533   4.985  0.9269 -0.8286 -0.2360
 7980SOL    HW229261   8.227   2.650   5.067 -0.2441 -0.6696  0.2657
 7981SOL     OW29262  11.823   0.476   8.523 -0.7387 -0.4219  0.3893
 7981SOL    HW129263  11.884   0.434   8.463  1.6187  0.7870  1.7972
 7981SOL    HW229264  11.777   0.404   8.565  1.0550 -1.5044  0.5842
 7982SOL     OW29265   8.041   3.170   3.704 -0.1582  0.0149 -0.1856
 7982SOL    HW129266   8.069   3.192   3.793  0.6375 -0.1569 -0.3834
 7982SOL    HW229267   8.068   3.078   3.693  0.9435  0.4160 -1.0522
 7983SOL     OW29268   5.323  11.672  11.416 -0.4081 -0.0694  0.1530
 7983SOL    HW129269   5.276  11.747  11.381 -0.8670 -0.1185  0.6405
 7983SOL    HW229270   5.329  11.689  11.510  1.0851  0.2203  0.0389
 7984SOL     OW29271   0.220   7.759  10.980  0.3575  0.0756 -0.1413
 7984SOL    HW129272   0.141   7.787  10.934  0.2622 -0.0503 -0.0548
 7984SOL    HW229273   0.191   7.685  11.034  0.8014 -0.8741 -1.1392
 7985SOL     OW29274   6.085   6.030   2.357  0.9923  0.4727  0.1685
 7985SOL    HW129275   6.116   6.063   2.441  2.0409  0.0146 -0.0245
 7985SOL    HW229276   6.004   6.079   2.340  2.3504  2.7797 -0.0238
 7986SOL     OW29277   9.310   5.146   5.265  0.3179 -0.5868  0.1228
 7986SOL    HW129278   9.322   5.154   5.359  1.7987  1.2552 -0.1458
 7986SOL    HW229279   9.305   5.237   5.234 -0.9355 -1.1647 -1.4868
 7987SOL     OW29280   7.792   3.296   5.535  0.4164  0.5836  0.3866
 7987SOL    HW129281   7.768   3.235   5.605 -0.6533  0.1033 -0.3790
 7987SOL    HW229282   7.822   3.240   5.463  0.9147  1.0453  0.2243
 7988SOL     OW29283   2.725   9.363   0.690  0.2813  0.4866 -0.2271
 7988SOL    HW129284   2.711   9.269   0.688 -1.0284  0.6652  0.0479
 7988SOL    HW229285   2.820   9.373   0.681  0.7736 -0.9642  2.3511
 7989SOL     OW29286   0.985   5.224   4.797  0.3467 -0.3778  0.1184
 7989SOL    HW129287   1.047   5.244   4.867  1.9191 -0.5886 -1.1460
 7989SOL    HW229288   0.936   5.305   4.785 -0.4888 -0.5707  1.9400
 7990SOL     OW29289   3.173   3.312   3.317  0.4128 -0.2113  0.6707
 7990SOL    HW129290   3.245   3.358   3.361 -0.9778  0.1961  2.6313
 7990SOL    HW229291   3.097   3.368   3.329 -0.5928 -1.3974  0.1083
 7991SOL     OW29292   7.366   8.671   5.646 -0.6599 -0.0717  0.6316
 7991SOL    HW129293   7.380   8.756   5.689  1.9520 -0.4981  0.8113
 7991SOL    HW229294   7.393   8.607   5.712  1.0558 -0.8403 -0.7247
 7992SOL     OW29295   4.242   2.460   8.568 -0.4373  0.6301 -0.1618
 7992SOL    HW129296   4.183   2.432   8.638  0.6633  1.1708  1.0293
 7992SOL    HW229297   4.230   2.555   8.564  0.3226  0.7365  0.0623
 7993SOL     OW29298   7.692  11.146   4.900 -0.3109 -0.0422  0.2838
 7993SOL    HW129299   7.756  11.114   4.964  0.3713 -0.8074 -0.7516
 7993SOL    HW229300   7.696  11.242   4.908  0.9545 -0.0733  0.2632
 7994SOL     OW29301   6.567  10.005   9.803  0.7566 -0.0227  0.4794
 7994SOL    HW129302   6.613  10.010   9.887  1.8083  0.8425 -0.1218
 7994SOL    HW229303   6.556  10.096   9.776 -0.5482 -0.2524  0.1804
 7995SOL     OW29304   6.566  10.144   4.066  0.0737  0.0255  0.3490
 7995SOL    HW129305   6.483  10.179   4.034  0.9338  2.6421  0.7270
 7995SOL    HW229306   6.597  10.087   3.996 -1.8052 -0.6518  0.0229
 7996SOL     OW29307   9.523   0.040   6.757 -0.2233 -0.1892  0.1238
 7996SOL    HW129308   9.559   0.065   6.842  1.3774 -1.7456 -0.0482
 7996SOL    HW229309   9.571  -0.039   6.732 -0.9491 -0.0182 -2.0505
 7997SOL     OW29310   4.275   5.678   2.201  0.3609  0.1666  0.0417
 7997SOL    HW129311   4.330   5.607   2.232 -0.4019 -0.2572  0.4653
 7997SOL    HW229312   4.251   5.727   2.280  0.0816  0.3115 -0.1305
 7998SOL     OW29313   2.307   3.993   3.152  0.2963  0.4462  0.0588
 7998SOL    HW129314   2.287   4.028   3.065  1.5082 -0.7633 -0.7375
 7998SOL    HW229315   2.364   3.918   3.136 -1.8108 -1.6875  1.6893
 7999SOL     OW29316   3.929   4.756   4.889  0.3085  0.7770  0.2734
 7999SOL    HW129317   4.006   4.812   4.902  1.1776 -0.5224  0.9780
 7999SOL    HW229318   3.935   4.728   4.797  0.6509  0.7355  0.3072
 8000SOL     OW29319   1.678   8.823   3.682 -0.0162 -0.6049  0.5545
 8000SOL    HW129320   1.616   8.837   3.610  2.1131 -1.5733 -1.6079
 8000SOL    HW229321   1.715   8.910   3.698 -1.6110 -0.0884  1.6235
 8001SOL     OW29322   2.960   4.613   2.651  0.3635  0.2849  0.4773
 8001SOL    HW129323   2.991   4.671   2.720 -0.3795 -1.0293  1.9774
 8001SOL    HW229324   3.028   4.617   2.584  0.5926  2.4202  0.7569
 8002SOL     OW29325   3.419   8.568   3.035  1.2374 -0.3338 -0.4696
 8002SOL    HW129326   3.426   8.484   3.080  0.5219  0.6554  1.6382
 8002SOL    HW229327   3.325   8.581   3.023  1.0211  1.5730  2.2857
 8003SOL     OW29328   0.904   0.053   8.352  0.3515  0.1560 -0.9114
 8003SOL    HW129329   0.824   0.082   8.397 -0.4613  2.0387 -3.3493
 8003SOL    HW229330   0.932  -0.025   8.401 -1.0532  1.3507  2.0603
 8004SOL     OW29331   4.836   9.749   3.971  0.4029  0.1189  0.0518
 8004SOL    HW129332   4.881   9.821   4.017  0.4459 -0.1394  0.4240
 8004SOL    HW229333   4.772   9.793   3.915 -1.2796  0.4035  2.0589
 8005SOL     OW29334   1.221   6.387   5.181  0.5195  0.2297  0.4304
 8005SOL    HW129335   1.313   6.410   5.166  1.3261 -2.8012  0.0998
 8005SOL    HW229336   1.172   6.445   5.122  2.4206  0.2579 -1.2363
 8006SOL     OW29337  10.814   9.974   9.236  0.5499 -0.1342 -0.0642
 8006SOL    HW129338  10.780  10.049   9.187  0.1897  0.0705  0.4833
 8006SOL    HW229339  10.797   9.899   9.180 -1.8315 -0.1872  0.6270
 8007SOL     OW29340   0.073   9.614   3.174  0.0273 -0.6477 -0.2973
 8007SOL    HW129341   0.015   9.687   3.153  1.0401  0.3325  0.2219
 8007SOL    HW229342   0.161   9.649   3.164  0.5340 -1.7049  0.2611
 8008SOL     OW29343   7.549  11.011   3.665 -0.5644  0.2048  0.1694
 8008SOL    HW129344   7.603  10.933   3.652  0.7289  0.8720  1.2858
 8008SOL    HW229345   7.544  11.021   3.760 -0.5701  1.5766  0.0421
 8009SOL     OW29346   0.984   1.573   4.379 -0.1990 -0.2458 -0.0148
 8009SOL    HW129347   1.075   1.600   4.364 -0.3359 -0.0857 -0.5607
 8009SOL    HW229348   0.979   1.486   4.340 -0.1988 -0.3862  0.2951
 8010SOL     OW29349  10.421   3.584   7.764  0.3519 -0.3733 -0.4056
 8010SOL    HW129350  10.345   3.588   7.706  0.6384 -1.7672 -0.9275
 8010SOL    HW229351  10.398   3.640   7.838 -0.9564 -0.3465 -0.8086
 8011SOL     OW29352   2.669   6.811   6.272  0.3009  0.2636  0.0576
 8011SOL    HW129353   2.750   6.773   6.238 -0.4847 -0.9572 -0.5254
 8011SOL    HW229354   2.663   6.778   6.362 -0.1701 -0.7267 -0.3142
 8012SOL     OW29355   1.885   7.033   0.136 -0.2989  0.1814 -0.4269
 8012SOL    HW129356   1.883   7.093   0.061 -1.5059  0.9409  0.1861
 8012SOL    HW229357   1.817   6.969   0.118  0.1107 -0.2498 -0.4603
 8013SOL     OW29358   1.043  10.760   1.912 -0.1124  0.2170 -0.2580
 8013SOL    HW129359   1.022  10.668   1.930 -0.4604  0.3075 -0.2059
 8013SOL    HW229360   1.090  10.757   1.828 -0.3930  0.0233 -0.4087
 8014SOL     OW29361   5.440   9.228   5.236 -0.8549 -0.8877 -0.3862
 8014SOL    HW129362   5.467   9.251   5.147 -0.7041 -2.4249 -0.7607
 8014SOL    HW229363   5.518   9.192   5.277 -1.3294 -1.6932 -0.1743
 8015SOL     OW29364   4.547   2.533   3.708  0.1515  0.5569 -0.3653
 8015SOL    HW129365   4.595   2.563   3.785  0.9331 -0.0868 -0.5867
 8015SOL    HW229366   4.481   2.601   3.693 -0.0751  0.6504  0.9135
 8016SOL     OW29367   5.882   3.089   7.396 -0.7512  0.1328 -0.0058
 8016SOL    HW129368   5.900   3.181   7.379  0.1023 -0.0855 -0.4071
 8016SOL    HW229369   5.894   3.047   7.311  2.7138 -0.8767  0.8166
 8017SOL     OW29370   9.813   4.773  10.476 -0.4766  0.6806  0.1515
 8017SOL    HW129371   9.796   4.741  10.564 -1.1575  1.3412  0.2705
 8017SOL    HW229372   9.735   4.751  10.426 -0.9811  2.1182  0.2437
 8018SOL     OW29373  10.357  11.077   0.851  0.0830  0.1279  0.1729
 8018SOL    HW129374  10.294  11.139   0.889 -1.2826 -0.3229 -1.2341
 8018SOL    HW229375  10.305  10.998   0.835  1.6737 -1.2421  1.4690
 8019SOL     OW29376  11.689   4.251   9.151 -0.9051 -0.1357 -0.0670
 8019SOL    HW129377  11.739   4.181   9.109 -2.0562 -1.1608  0.1936
 8019SOL    HW229378  11.735   4.269   9.233 -0.7976 -0.8693  0.0406
 8020SOL     OW29379   3.005   3.692  11.566 -0.0944  0.1299 -0.5751
 8020SOL    HW129380   2.976   3.697  11.657 -0.6972 -2.5624 -0.5304
 8020SOL    HW229381   3.101   3.691  11.571 -0.0907  1.3794 -0.1123
 8021SOL     OW29382   1.379   7.641   0.657  0.0463  0.2495 -0.3755
 8021SOL    HW129383   1.412   7.564   0.703 -0.9268 -0.2529 -0.4936
 8021SOL    HW229384   1.456   7.698   0.646  1.1197 -1.3561 -1.6313
 8022SOL     OW29385  11.176   8.979   7.428 -0.3903 -0.4688  0.3061
 8022SOL    HW129386  11.217   8.908   7.379  1.1566  0.8514 -0.4225
 8022SOL    HW229387  11.232   9.055   7.410 -2.7718  1.2720 -0.1035
 8023SOL     OW29388  10.668   5.278   9.632 -0.2794  0.0309 -0.7758
 8023SOL    HW129389  10.595   5.238   9.585 -0.1652 -0.4423 -0.5527
 8023SOL    HW229390  10.627   5.345   9.687 -0.7726 -1.4287  0.7019
 8024SOL     OW29391   8.080   5.616  10.776 -0.6992 -0.8117 -0.1699
 8024SOL    HW129392   8.133   5.584  10.703 -1.6738 -3.5570  0.2027
 8024SOL    HW229393   8.144   5.641  10.843  0.1810  1.1065 -1.6420
 8025SOL     OW29394   8.607   5.105   2.932 -0.1669 -0.0244 -0.0356
 8025SOL    HW129395   8.687   5.060   2.957  0.3927  1.0278  0.1482
 8025SOL    HW229396   8.556   5.110   3.012  0.9681  2.0207  0.6346
 8026SOL     OW29397   7.157   1.410   4.060  0.1150  0.2663 -0.2382
 8026SOL    HW129398   7.198   1.480   4.009  0.1238 -0.2222 -0.9257
 8026SOL    HW229399   7.116   1.354   3.994  0.6504 -0.7137  0.2344
 8027SOL     OW29400   1.346  11.273   2.851  0.1025  0.3287  0.0434
 8027SOL    HW129401   1.308  11.299   2.935  0.5226 -0.6534  0.5512
 8027SOL    HW229402   1.277  11.222   2.809  0.8503 -1.6102  1.0434
 8028SOL     OW29403   4.584   1.697  10.739  0.6374 -0.0987  0.2396
 8028SOL    HW129404   4.591   1.756  10.663  0.0255 -1.7277 -1.1422
 8028SOL    HW229405   4.635   1.740  10.807  0.0763  2.1175 -0.6425
 8029SOL     OW29406   6.876   0.403   3.159  0.2553 -0.3955 -0.4943
 8029SOL    HW129407   6.782   0.403   3.140 -0.6687 -1.0573  3.2090
 8029SOL    HW229408   6.893   0.492   3.191  0.1718 -1.0030  1.3703
 8030SOL     OW29409   2.444   1.306   5.945 -0.2086  0.0188  0.1011
 8030SOL    HW129410   2.437   1.259   5.862 -1.0181 -1.0000  0.7404
 8030SOL    HW229411   2.355   1.314   5.977  0.0745  0.5963  0.7861
 8031SOL     OW29412   2.290   5.938   7.685 -0.4188 -0.2562  0.1059
 8031SOL    HW129413   2.233   5.999   7.731 -1.0735 -1.5984  1.1566
 8031SOL    HW229414   2.343   5.898   7.754 -0.5805 -1.4474 -0.4301
 8032SOL     OW29415   9.898   0.779   2.594  0.1684  0.1703 -0.3467
 8032SOL    HW129416   9.835   0.761   2.664  0.0577  1.1597 -0.1866
 8032SOL    HW229417   9.864   0.855   2.548  1.4474  0.9884  0.0011
 8033SOL     OW29418   6.051   3.996   3.966 -0.4779 -0.4229  0.0964
 8033SOL    HW129419   6.133   3.951   3.942 -0.6039 -0.2510 -0.6777
 8033SOL    HW229420   6.076   4.053   4.038 -0.0108 -0.7059  0.1686
 8034SOL     OW29421   6.939  11.358   7.277  0.2800  0.9116 -0.7072
 8034SOL    HW129422   6.996  11.308   7.219  0.8170 -1.3142  1.5205
 8034SOL    HW229423   6.881  11.407   7.219  0.3274 -1.6508 -3.1016
 8035SOL     OW29424   3.538   9.193   1.265  0.1208 -0.8118  0.8355
 8035SOL    HW129425   3.631   9.214   1.260  0.0936 -0.9288 -0.2647
 8035SOL    HW229426   3.496   9.276   1.288  0.4087 -0.5452  0.4163
 8036SOL     OW29427   7.321   9.900   4.952  0.3203 -0.1096 -0.0370
 8036SOL    HW129428   7.388   9.955   4.993 -1.1690  1.4305  0.4139
 8036SOL    HW229429   7.264   9.874   5.024  1.5297 -3.1937 -0.0360
 8037SOL     OW29430   7.005   7.682   3.161  0.2863  0.0125  0.0646
 8037SOL    HW129431   7.026   7.770   3.192  0.6161  0.2308 -0.7447
 8037SOL    HW229432   6.952   7.697   3.082  0.6370 -0.5121 -0.2742
 8038SOL     OW29433   6.017   1.257   4.653  0.1406  0.0800  0.0808
 8038SOL    HW129434   6.014   1.316   4.728  0.1508 -0.2029  0.3032
 8038SOL    HW229435   6.102   1.275   4.612  0.3333 -0.1024  0.4057
 8039SOL     OW29436  10.427  10.268   4.147  0.2359 -0.2486  0.5097
 8039SOL    HW129437  10.418  10.341   4.207 -0.3364  0.4795 -0.4300
 8039SOL    HW229438  10.498  10.293   4.088 -1.4214  0.6072 -1.2219
 8040SOL     OW29439   4.619   2.954   0.196 -0.0312 -0.2927  0.0851
 8040SOL    HW129440   4.634   2.871   0.152  0.7915 -0.4795  0.6973
 8040SOL    HW229441   4.599   3.015   0.125  1.0032 -0.6479 -0.5408
 8041SOL     OW29442   6.356   3.292   5.827  0.2281 -0.6411 -0.8239
 8041SOL    HW129443   6.430   3.339   5.867 -1.4931  0.8286  0.8258
 8041SOL    HW229444   6.393   3.254   5.747  2.2600  1.8790 -1.2425
 8042SOL     OW29445   5.994   1.933  10.374  0.4989 -0.4793 -0.1391
 8042SOL    HW129446   6.040   2.012  10.348 -0.2640 -0.0190 -0.0920
 8042SOL    HW229447   5.986   1.881  10.294  0.0695 -0.0388 -0.3808
 8043SOL     OW29448   1.896   5.801   0.879  0.1514  0.0284 -0.5460
 8043SOL    HW129449   1.904   5.818   0.785  1.1812  0.0605 -0.4664
 8043SOL    HW229450   1.985   5.779   0.907  0.0702  1.1250  0.6457
 8044SOL     OW29451   4.764   6.502   5.525 -0.1181  0.3178 -0.2243
 8044SOL    HW129452   4.825   6.449   5.577 -0.6743 -0.2106 -0.1027
 8044SOL    HW229453   4.789   6.483   5.434  1.0226  1.4441 -0.1649
 8045SOL     OW29454   5.993   2.167   2.922 -0.1648 -0.1371 -0.1563
 8045SOL    HW129455   6.057   2.194   2.855  0.1352 -0.6474 -0.0874
 8045SOL    HW229456   6.024   2.080   2.949 -0.4600 -0.0602  0.4266
 8046SOL     OW29457   4.272   2.185   8.686  0.0212  0.0253 -0.4436
 8046SOL    HW129458   4.352   2.217   8.727  0.1583 -0.3001 -0.4594
 8046SOL    HW229459   4.220   2.265   8.670 -0.5412  0.0674  1.3904
 8047SOL     OW29460   2.839   1.579   2.654  0.0691  0.7100  0.3153
 8047SOL    HW129461   2.769   1.540   2.603  0.5289  0.1831  0.0777
 8047SOL    HW229462   2.797   1.609   2.735 -0.3410 -0.0185  0.3752
 8048SOL     OW29463  11.394   4.933   6.118 -0.4276  0.1653  0.1414
 8048SOL    HW129464  11.326   4.947   6.184 -1.4970  1.6431 -1.1815
 8048SOL    HW229465  11.422   5.021   6.093  0.9138 -0.3919 -0.4204
 8049SOL     OW29466   7.326   3.332   5.891 -0.1244  0.5402 -0.6727
 8049SOL    HW129467   7.337   3.367   5.979 -1.4826 -1.0834  0.1907
 8049SOL    HW229468   7.387   3.258   5.886 -1.2655 -0.4378 -0.4570
 8050SOL     OW29469   6.962   6.668   2.726  0.0959  0.6187 -0.0556
 8050SOL    HW129470   6.923   6.590   2.687 -0.5609  0.8445  0.1363
 8050SOL    HW229471   6.965   6.648   2.820  0.5137  0.5760 -0.0756
 8051SOL     OW29472   5.331   0.509   1.700  0.2593  0.4719  0.1462
 8051SOL    HW129473   5.371   0.422   1.707  0.5074  0.6747  1.6234
 8051SOL    HW229474   5.328   0.541   1.790 -1.9543  1.0631 -0.0679
 8052SOL     OW29475  11.214   2.383   9.228  0.5064 -0.3622  0.0250
 8052SOL    HW129476  11.130   2.426   9.246  1.0064  1.7683 -2.2824
 8052SOL    HW229477  11.252   2.368   9.315 -1.9994 -0.9473  1.1167
 8053SOL     OW29478   1.608   5.509   0.832 -0.1303 -0.1452 -0.3332
 8053SOL    HW129479   1.636   5.458   0.757 -3.0780 -0.4400 -1.3673
 8053SOL    HW229480   1.565   5.586   0.795 -0.2305  0.5388  1.1038
 8054SOL     OW29481   3.637   8.623   2.883  0.3431  0.3557 -0.2344
 8054SOL    HW129482   3.614   8.607   2.792  0.6148 -0.0558 -0.2334
 8054SOL    HW229483   3.553   8.621   2.929  0.3830 -1.6927 -0.1483
 8055SOL     OW29484   0.728   5.532   0.362 -1.1899  0.5559 -0.0044
 8055SOL    HW129485   0.713   5.624   0.379 -3.0050  0.4834 -0.9752
 8055SOL    HW229486   0.659   5.486   0.410  0.3042 -0.4147  1.3244
 8056SOL     OW29487   3.866   7.458   4.133  0.0018  0.2622 -0.3398
 8056SOL    HW129488   3.956   7.434   4.109  0.5100  2.3132 -0.6676
 8056SOL    HW229489   3.875   7.538   4.183 -1.4918 -1.0311  2.1825
 8057SOL     OW29490   2.939   3.528   9.239 -0.2831  0.4192  0.5248
 8057SOL    HW129491   3.018   3.579   9.257 -0.6757  0.4558  2.3027
 8057SOL    HW229492   2.947   3.504   9.147  1.4524  1.0067  0.4814
 8058SOL     OW29493  10.953   5.559   6.658  0.0360  0.3825  0.0671
 8058SOL    HW129494  10.979   5.509   6.735  0.4670 -1.0351 -0.9762
 8058SOL    HW229495  10.991   5.646   6.672  1.3047 -0.2678  0.7893
 8059SOL     OW29496   5.999  10.886   6.678 -0.0630 -0.5577  0.1868
 8059SOL    HW129497   6.002  10.835   6.597 -0.3775 -0.4445  0.1007
 8059SOL    HW229498   5.999  10.978   6.648  0.7108 -0.5012  0.3470
 8060SOL     OW29499   3.576  10.058   8.915  0.1205 -0.3735  0.4634
 8060SOL    HW129500   3.583  10.110   8.835  0.2158  1.5290  1.6439
 8060SOL    HW229501   3.489  10.079   8.950 -0.0623 -1.4513  0.6878
 8061SOL     OW29502  10.837   0.789   6.281 -0.7943  0.2857  0.0358
 8061SOL    HW129503  10.876   0.831   6.205  0.4099  0.3577  0.6726
 8061SOL    HW229504  10.796   0.709   6.246 -0.4316  0.4177 -0.7078
 8062SOL     OW29505  10.282  11.578   2.030 -0.0768  0.2794  0.1009
 8062SOL    HW129506  10.232  11.621   2.100 -0.8368 -1.4440  0.6526
 8062SOL    HW229507  10.328  11.650   1.987 -2.7664  1.9542 -0.2420
 8063SOL     OW29508   3.497   2.945   4.048 -0.0766 -0.2940  0.2321
 8063SOL    HW129509   3.525   2.866   4.001  0.9381 -0.4911  1.1232
 8063SOL    HW229510   3.454   2.998   3.981 -0.2140 -1.3218 -0.5252
 8064SOL     OW29511  11.456   8.533   5.532 -0.1275  0.7069  0.0915
 8064SOL    HW129512  11.483   8.583   5.609 -1.3509  2.9083 -0.8081
 8064SOL    HW229513  11.413   8.598   5.476 -1.4787 -1.3177 -1.3315
 8065SOL     OW29514   3.172   1.720   3.201  0.2055 -0.0344 -1.1947
 8065SOL    HW129515   3.244   1.706   3.263 -0.6532 -0.0726 -0.1855
 8065SOL    HW229516   3.169   1.814   3.188 -1.8816  0.4228  1.6796
 8066SOL     OW29517   2.868   0.746   7.247  0.4618  0.1214  0.5034
 8066SOL    HW129518   2.818   0.766   7.326  1.2922 -1.2158  1.4083
 8066SOL    HW229519   2.902   0.831   7.218  0.1521  0.6318  1.5899
 8067SOL     OW29520   8.644   8.060   0.278  0.1362 -0.3307 -0.0675
 8067SOL    HW129521   8.552   8.088   0.288 -0.1431 -1.5757  1.1948
 8067SOL    HW229522   8.639   7.983   0.221  0.4921  0.0169 -0.5756
 8068SOL     OW29523   6.142   1.205   6.712 -0.3950  0.3703  0.2194
 8068SOL    HW129524   6.155   1.213   6.618 -1.7233 -1.1007 -0.1353
 8068SOL    HW229525   6.140   1.111   6.729  0.7487  0.5999  1.8866
 8069SOL     OW29526   5.443   2.458  11.685  0.1195  0.1398 -0.0497
 8069SOL    HW129527   5.423   2.434  11.776 -1.8354 -0.8864 -0.6861
 8069SOL    HW229528   5.473   2.549  11.690  0.7805 -0.1381  1.6904
 8070SOL     OW29529   3.658   9.637   5.316  0.2625 -0.0598  0.0407
 8070SOL    HW129530   3.601   9.591   5.377  0.6699 -2.1579 -1.0630
 8070SOL    HW229531   3.725   9.677   5.372 -0.2764 -0.5643  1.0720
 8071SOL     OW29532   7.826   3.424   4.676 -0.1214 -0.4301  0.1997
 8071SOL    HW129533   7.796   3.497   4.729 -2.0844 -0.5164 -0.6931
 8071SOL    HW229534   7.785   3.438   4.590 -0.0040 -2.1955 -0.1965
 8072SOL     OW29535   4.994   2.925   6.480  0.2973 -0.4902 -0.1949
 8072SOL    HW129536   5.022   2.867   6.409  2.0512  1.5792 -1.3331
 8072SOL    HW229537   4.900   2.911   6.488  0.3770 -2.1380 -1.6646
 8073SOL     OW29538   2.500   8.085   9.462  0.3090  0.1255  0.0425
 8073SOL    HW129539   2.520   8.012   9.403  0.8781 -0.6041  1.0915
 8073SOL    HW229540   2.577   8.141   9.458  1.5962 -1.3182  2.0640
 8074SOL     OW29541   5.490   0.026   5.900 -0.1679 -0.2854 -0.3471
 8074SOL    HW129542   5.489   0.121   5.898 -1.9203 -0.1487  2.1239
 8074SOL    HW229543   5.490  -0.001   5.808  0.8341  2.0462 -1.0926
 8075SOL     OW29544  11.725  10.530  10.447  0.2291  0.0855  0.0543
 8075SOL    HW129545  11.649  10.473  10.458 -0.6359  0.9600 -1.1220
 8075SOL    HW229546  11.799  10.476  10.475 -0.6560 -1.2737 -0.0884
 8076SOL     OW29547   7.590   1.785   7.324 -0.3965  0.1340 -0.1945
 8076SOL    HW129548   7.593   1.726   7.249 -1.3955 -1.6070  1.0318
 8076SOL    HW229549   7.624   1.732   7.397 -0.2295  1.4814  0.7543
 8077SOL     OW29550   8.212   2.834   8.670 -0.3864  0.3094 -0.0065
 8077SOL    HW129551   8.247   2.803   8.587 -2.0377 -2.4063  0.1982
 8077SOL    HW229552   8.120   2.807   8.669 -0.9894  2.0394  1.8686
 8078SOL     OW29553   4.514   7.014   3.167  0.5530 -0.2860 -0.0941
 8078SOL    HW129554   4.546   7.008   3.257  2.0868  1.1918 -0.4980
 8078SOL    HW229555   4.543   7.100   3.137  3.4573 -2.1210 -3.2089
 8079SOL     OW29556   8.833  10.562  10.947  0.2723 -0.1402  0.3709
 8079SOL    HW129557   8.805  10.643  10.905 -1.1880 -1.2637 -0.9399
 8079SOL    HW229558   8.764  10.542  11.010  0.8378 -0.1611  0.9971
 8080SOL     OW29559   0.589   0.152   7.297  0.3814 -0.4300  0.3914
 8080SOL    HW129560   0.660   0.128   7.356  0.6743 -0.1231  0.1656
 8080SOL    HW229561   0.631   0.167   7.212  0.1560  0.4705  0.4234
 8081SOL     OW29562   7.100   6.479   1.013 -0.5447  0.1552  0.0813
 8081SOL    HW129563   7.142   6.563   1.032 -0.4022  0.3713 -1.0889
 8081SOL    HW229564   7.040   6.465   1.086 -3.5447  3.2611 -1.4771
 8082SOL     OW29565  11.147   4.452   4.459  0.0569  0.3514  0.1895
 8082SOL    HW129566  11.115   4.461   4.548  0.8642  1.6022  0.3757
 8082SOL    HW229567  11.205   4.376   4.461  0.1158  0.4120  0.7438
 8083SOL     OW29568   0.280   3.259   5.439 -0.3576 -0.2709  0.0966
 8083SOL    HW129569   0.211   3.211   5.484 -0.4608 -0.0040  0.2260
 8083SOL    HW229570   0.287   3.342   5.486 -1.6900  0.7696 -1.4043
 8084SOL     OW29571   1.228   4.618   6.037  0.1105  0.0187  0.0551
 8084SOL    HW129572   1.300   4.564   6.005  1.0849  0.5044  1.3340
 8084SOL    HW229573   1.185   4.564   6.103  0.8395  0.6339  1.0518
 8085SOL     OW29574   3.486   4.009   0.770 -0.1381  0.3870 -0.2022
 8085SOL    HW129575   3.555   3.991   0.835 -0.4097  1.0473  0.2796
 8085SOL    HW229576   3.523   3.978   0.687  0.3107 -0.2486  0.2211
 8086SOL     OW29577   7.910   7.878   1.778 -0.1146  0.0191 -0.6815
 8086SOL    HW129578   7.892   7.943   1.846  2.0426 -0.3477  0.3285
 8086SOL    HW229579   7.942   7.802   1.826  0.5291 -0.6040 -2.0574
 8087SOL     OW29580   7.014   4.251   2.823  0.9862  0.5027  0.2579
 8087SOL    HW129581   7.055   4.325   2.778  0.2719 -0.3647 -1.9895
 8087SOL    HW229582   6.937   4.289   2.866  0.3169  1.0523 -1.3218
 8088SOL     OW29583   3.755   1.328   8.411 -0.3278  0.3094  0.7230
 8088SOL    HW129584   3.841   1.336   8.370 -0.2626 -0.8758  0.5901
 8088SOL    HW229585   3.768   1.265   8.482 -0.9254  0.6838  1.1734
 8089SOL     OW29586  10.340   2.949   2.888 -0.4632  0.6294 -0.0059
 8089SOL    HW129587  10.365   3.036   2.858 -0.1883  0.9991  1.2110
 8089SOL    HW229588  10.270   2.922   2.828  0.4039  1.0862 -1.2589
 8090SOL     OW29589   7.048   7.800   9.256  0.5321  0.4531 -0.6954
 8090SOL    HW129590   6.972   7.859   9.250  0.0744  0.1822  1.5576
 8090SOL    HW229591   7.120   7.849   9.217 -0.3447  1.5775 -0.9456
 8091SOL     OW29592   9.983   0.953   0.352 -0.2886  0.6030  0.7683
 8091SOL    HW129593   9.954   1.032   0.396  0.2825  0.3038  1.7077
 8091SOL    HW229594   9.909   0.892   0.360 -0.2075  0.5695  1.2720
 8092SOL     OW29595   2.146   7.774   1.823  0.2420 -0.1800 -0.2352
 8092SOL    HW129596   2.168   7.830   1.748 -0.5720 -0.6674 -0.8616
 8092SOL    HW229597   2.051   7.760   1.814  0.4790 -1.8961 -0.2719
 8093SOL     OW29598   5.697  11.459   6.666 -0.1603 -0.1879  0.1790
 8093SOL    HW129599   5.701  11.395   6.737 -1.2377  0.7025  1.0969
 8093SOL    HW229600   5.748  11.421   6.595 -1.0732 -2.2318  0.5540
 8094SOL     OW29601  10.834  10.812   1.909  0.3172 -0.0700  0.3267
 8094SOL    HW129602  10.789  10.895   1.893  2.5091  1.2702  0.7544
 8094SOL    HW229603  10.856  10.814   2.002  3.2257  0.4522 -0.2636
 8095SOL     OW29604   5.586  10.868   4.630 -0.4531 -0.1312 -0.2543
 8095SOL    HW129605   5.507  10.878   4.684 -0.2500  0.3489 -0.0470
 8095SOL    HW229606   5.553  10.841   4.544 -0.8718  0.4864 -0.2917
 8096SOL     OW29607   1.525   8.241  11.173  0.2389  0.6311 -0.1005
 8096SOL    HW129608   1.610   8.196  11.171 -0.8574 -1.5865 -0.4859
 8096SOL    HW229609   1.537   8.319  11.118  1.7904 -0.0837 -0.8383
 8097SOL     OW29610   1.372   3.027   6.877 -0.1713  0.1334 -0.2474
 8097SOL    HW129611   1.400   2.943   6.841 -0.1231  0.0958 -0.1214
 8097SOL    HW229612   1.387   3.089   6.806  1.5316  0.3577  0.2577
 8098SOL     OW29613  11.466  10.039   8.320 -0.3093  0.6010 -0.0988
 8098SOL    HW129614  11.428  10.001   8.399  1.5755 -0.9924  0.1224
 8098SOL    HW229615  11.529  10.104   8.353  0.3089  0.0996 -0.2678
 8099SOL     OW29616  11.127  10.182   9.429  0.4401  0.3971 -0.0272
 8099SOL    HW129617  11.079  10.107   9.463 -0.5164  0.6595 -0.7350
 8099SOL    HW229618  11.210  10.146   9.397  0.2927 -0.2299  0.2941
 8100SOL     OW29619   2.742   4.519   9.116  0.0586  0.0426 -0.0565
 8100SOL    HW129620   2.716   4.427   9.122  1.7200 -0.4007  0.7915
 8100SOL    HW229621   2.699   4.550   9.036  0.9427 -1.9944 -1.4242
 8101SOL     OW29622   9.182  11.646   4.512 -0.2447 -0.5952 -0.0603
 8101SOL    HW129623   9.102  11.596   4.497 -0.4052 -0.7741  1.3286
 8101SOL    HW229624   9.239  11.586   4.561  0.1096  0.1021  0.3930
 8102SOL     OW29625   4.007   9.468   6.300  0.3240 -0.4312 -0.3444
 8102SOL    HW129626   3.949   9.453   6.374 -0.1134 -2.0713 -0.9897
 8102SOL    HW229627   3.950   9.501   6.231  0.7073  0.9558 -0.0311
 8103SOL     OW29628   1.726   2.432   2.168  0.3288 -0.1416  0.2167
 8103SOL    HW129629   1.655   2.402   2.225 -2.0343  2.1722 -1.2417
 8103SOL    HW229630   1.758   2.512   2.211  1.2043 -0.4867  0.2192
 8104SOL     OW29631  11.785   2.443   9.418 -0.5214 -0.7554  0.1686
 8104SOL    HW129632  11.827   2.512   9.366  0.5714 -0.4919  1.3660
 8104SOL    HW229633  11.696   2.476   9.433 -0.5499 -0.4021 -0.7207
 8105SOL     OW29634   7.781   1.613   9.187 -0.9219 -0.0855  0.2014
 8105SOL    HW129635   7.781   1.689   9.129 -1.7815  0.5010  0.9417
 8105SOL    HW229636   7.738   1.644   9.267  2.4078 -0.1402  2.1809
 8106SOL     OW29637   1.074  10.175   0.678  0.2309  0.4898 -0.2144
 8106SOL    HW129638   1.070  10.269   0.661  1.2953  0.7605  0.9198
 8106SOL    HW229639   1.165  10.151   0.659  0.1099 -0.1984  0.0371
 8107SOL     OW29640   6.518   4.783  11.518 -0.5228  0.4528 -0.1910
 8107SOL    HW129641   6.459   4.847  11.478 -1.7035 -0.1875  0.4805
 8107SOL    HW229642   6.526   4.713  11.453 -0.0335  0.7948 -0.5103
 8108SOL     OW29643   2.385   2.429  11.483 -0.4718 -0.0067  0.0305
 8108SOL    HW129644   2.462   2.473  11.447  0.6918 -0.8448  1.4091
 8108SOL    HW229645   2.327   2.501  11.509  0.9737  0.7354  1.3425
 8109SOL     OW29646   1.805  10.580   6.283  0.3191 -0.2144  0.2470
 8109SOL    HW129647   1.807  10.622   6.196 -0.9827 -1.5451 -0.4695
 8109SOL    HW229648   1.747  10.636   6.335 -1.8049 -1.2521 -0.8447
 8110SOL     OW29649   5.360   6.346   0.604  0.2655 -0.4217 -0.0388
 8110SOL    HW129650   5.383   6.291   0.679 -0.8126  0.5019  1.0368
 8110SOL    HW229651   5.375   6.436   0.635 -3.3329  0.2174  0.3849
 8111SOL     OW29652   2.770   5.753   9.192  0.0131  0.3403 -0.3503
 8111SOL    HW129653   2.764   5.742   9.287 -0.8019  1.0689 -0.3141
 8111SOL    HW229654   2.697   5.702   9.157 -0.2505  0.8346 -0.5281
 8112SOL     OW29655   2.223   9.225   2.582  0.1666 -1.0345 -0.8207
 8112SOL    HW129656   2.195   9.142   2.621 -1.2641 -0.0090  0.4298
 8112SOL    HW229657   2.264   9.199   2.500  0.5213 -3.0433 -0.0783
 8113SOL     OW29658   3.271   3.344   1.111 -0.4770  0.1509 -0.5924
 8113SOL    HW129659   3.265   3.359   1.016 -0.2317 -1.3390 -0.8723
 8113SOL    HW229660   3.364   3.333   1.128 -0.4387  1.1822 -0.0175
 8114SOL     OW29661   2.472   3.649   5.239 -0.5980 -0.1131 -0.2785
 8114SOL    HW129662   2.536   3.625   5.306 -0.1727 -2.9667 -1.5347
 8114SOL    HW229663   2.520   3.707   5.180 -1.2018  3.0784  2.1157
 8115SOL     OW29664   8.217   6.272   8.837 -0.0630  0.1621  0.1388
 8115SOL    HW129665   8.212   6.291   8.931 -1.8769  1.2789 -0.1176
 8115SOL    HW229666   8.272   6.194   8.831  0.5302  0.3699  2.0775
 8116SOL     OW29667  10.224   2.084   2.296  0.0395  0.1501 -0.4031
 8116SOL    HW129668  10.303   2.077   2.243  1.6860  2.0540  1.6162
 8116SOL    HW229669  10.199   1.993   2.314  2.5726 -0.5478 -0.0111
 8117SOL     OW29670   1.257   9.191   9.449  0.0520 -0.5745 -0.0380
 8117SOL    HW129671   1.320   9.171   9.379  0.7338  0.1982  0.3403
 8117SOL    HW229672   1.226   9.279   9.430 -0.3951 -0.6820  0.1774
 8118SOL     OW29673   9.283  10.904  11.222  0.0887 -0.3885  0.0707
 8118SOL    HW129674   9.211  10.941  11.272 -0.4324 -1.1214 -0.1272
 8118SOL    HW229675   9.300  10.819  11.262  0.5109 -0.4359 -0.1936
 8119SOL     OW29676   5.688   7.590   0.409  0.1776  0.3900 -0.0088
 8119SOL    HW129677   5.692   7.640   0.490 -0.6159  0.5514 -0.0595
 8119SOL    HW229678   5.772   7.544   0.404  0.8126  1.4887  0.1807
 8120SOL     OW29679  10.828   5.778   4.691  0.0995  0.3237  0.3266
 8120SOL    HW129680  10.799   5.759   4.780 -0.1512  2.2041  0.7036
 8120SOL    HW229681  10.909   5.727   4.680  0.1461  0.0810  1.6365
 8121SOL     OW29682   4.665   2.558   3.386  0.4746 -0.3954 -0.5586
 8121SOL    HW129683   4.740   2.501   3.405  1.3897  1.1545  0.8358
 8121SOL    HW229684   4.655   2.611   3.465 -1.6020  0.0239 -1.0403
 8122SOL     OW29685   5.558   1.780   2.862  0.3976 -0.3432  0.0412
 8122SOL    HW129686   5.617   1.722   2.814 -0.3641  0.2895 -1.7364
 8122SOL    HW229687   5.614   1.852   2.892  0.5358  0.4313 -1.9301
 8123SOL     OW29688   1.936   2.376   3.546  0.4541 -0.0694  0.1080
 8123SOL    HW129689   1.933   2.286   3.579  1.2240  0.2072  0.9847
 8123SOL    HW229690   1.944   2.367   3.451  0.8428 -0.9344  0.2176
 8124SOL     OW29691   5.525   0.104   5.098  0.0912 -0.0571 -0.0655
 8124SOL    HW129692   5.553   0.049   5.025  0.8345 -0.9417  0.8590
 8124SOL    HW229693   5.548   0.193   5.070  0.5498 -0.3999 -0.8212
 8125SOL     OW29694   4.642   7.641   9.228 -0.2892  0.1699 -0.2722
 8125SOL    HW129695   4.688   7.707   9.176  1.5733 -0.6776  0.2156
 8125SOL    HW229696   4.622   7.685   9.311  0.2558  0.3577 -0.2369
 8126SOL     OW29697   9.922   0.321   8.110  0.1117  0.1451 -0.4617
 8126SOL    HW129698  10.005   0.274   8.109 -1.1569 -2.2658 -1.3939
 8126SOL    HW229699   9.908   0.345   8.202  1.0705 -0.8833 -0.0291
 8127SOL     OW29700   3.759   9.705   6.601 -0.1359 -1.0512  0.1358
 8127SOL    HW129701   3.706   9.679   6.677  0.8190 -1.2970  0.7378
 8127SOL    HW229702   3.827   9.637   6.596  0.2250 -0.6439 -0.5115
 8128SOL     OW29703   7.065   8.665   0.384  0.4196 -0.4725 -0.6413
 8128SOL    HW129704   6.975   8.636   0.396 -0.8995  3.4347  0.4055
 8128SOL    HW229705   7.110   8.637   0.464 -0.2166 -1.1963 -0.5288
 8129SOL     OW29706   9.603   4.027   5.085 -0.6653 -0.3486 -0.3760
 8129SOL    HW129707   9.570   3.977   5.010 -0.7462  1.9102 -1.9334
 8129SOL    HW229708   9.549   4.106   5.087 -1.7829 -1.0140  3.1247
 8130SOL     OW29709   6.931   1.241  10.473  0.6436 -0.3310  0.3091
 8130SOL    HW129710   6.981   1.223  10.394  0.4875  1.0060 -0.1126
 8130SOL    HW229711   6.971   1.320  10.509 -2.2640  1.8767 -1.0258
 8131SOL     OW29712   5.856   7.880   3.007 -0.2356  0.2397  0.3282
 8131SOL    HW129713   5.774   7.844   3.042  0.2082 -1.3193 -0.1234
 8131SOL    HW229714   5.850   7.864   2.912  1.9626 -3.1572  0.5657
 8132SOL     OW29715   9.473   8.559   1.027  0.9145 -0.4751  0.0053
 8132SOL    HW129716   9.555   8.609   1.033  0.8382 -0.4487  1.0933
 8132SOL    HW229717   9.427   8.580   1.108 -0.3257 -0.2371 -0.7471
 8133SOL     OW29718   8.446   3.481  10.299 -0.1025  0.1454 -1.1480
 8133SOL    HW129719   8.449   3.427  10.221  0.8754  0.7753 -1.5807
 8133SOL    HW229720   8.536   3.514  10.308 -0.3510  0.5920 -0.1246
 8134SOL     OW29721   7.490  10.313   3.607 -0.2604 -0.5957  0.2503
 8134SOL    HW129722   7.419  10.376   3.617  0.2556  0.3469 -1.4689
 8134SOL    HW229723   7.466  10.239   3.662 -1.6149  0.4953  1.1722
 8135SOL     OW29724   6.951   1.411   9.344 -0.0230 -0.5764 -0.0661
 8135SOL    HW129725   7.032   1.436   9.388  0.3496 -1.4287 -0.2562
 8135SOL    HW229726   6.949   1.316   9.347  0.6085 -0.7846 -2.8882
 8136SOL     OW29727   1.255   3.924   3.671 -0.1280 -0.0156 -0.2530
 8136SOL    HW129728   1.312   3.947   3.744  0.8715  0.7175 -1.2242
 8136SOL    HW229729   1.174   3.896   3.712  0.3479  0.5369  1.1341
 8137SOL     OW29730  10.692   5.798   3.793  0.3143 -0.1727  0.3008
 8137SOL    HW129731  10.664   5.751   3.715 -1.9897  1.3729  0.0875
 8137SOL    HW229732  10.638   5.761   3.863 -0.9599  1.4879  0.2662
 8138SOL     OW29733   5.135   1.115   6.191  0.6078  0.2704 -0.2575
 8138SOL    HW129734   5.148   1.026   6.224 -0.3431  0.5033  0.8339
 8138SOL    HW229735   5.131   1.106   6.096  3.0836 -0.4848 -0.3561
 8139SOL     OW29736   3.603   4.675   7.466 -0.2934  0.2912  0.2270
 8139SOL    HW129737   3.559   4.714   7.542 -1.1397  0.6091 -0.4063
 8139SOL    HW229738   3.573   4.727   7.392  1.6132  0.8798 -0.1875
 8140SOL     OW29739   5.131   4.078   1.967 -0.3018 -0.0652 -0.0488
 8140SOL    HW129740   5.182   3.999   1.945 -0.1700  0.2900 -1.0725
 8140SOL    HW229741   5.107   4.066   2.059 -0.0215 -1.1571 -0.1016
 8141SOL     OW29742  10.495  10.363   1.368 -0.0502 -0.2707 -0.2164
 8141SOL    HW129743  10.459  10.401   1.288 -1.8491  1.1009  1.1634
 8141SOL    HW229744  10.423  10.312   1.404  0.0178  0.8325  1.5709
 8142SOL     OW29745   8.531   1.161   8.133  0.6096  0.0614 -0.2836
 8142SOL    HW129746   8.522   1.125   8.221 -2.4149 -0.8260 -0.8418
 8142SOL    HW229747   8.509   1.254   8.143  1.7650  0.3061  0.0999
 8143SOL     OW29748   5.953   4.456   1.798  0.0362 -0.2036  0.0215
 8143SOL    HW129749   5.961   4.549   1.820  2.5152 -0.1044 -0.9702
 8143SOL    HW229750   6.000   4.411   1.868  0.1341 -0.5806 -0.2856
 8144SOL     OW29751   3.847   8.190   5.126 -0.3638 -0.2824 -0.2442
 8144SOL    HW129752   3.902   8.127   5.081 -0.3313  0.8826 -1.9454
 8144SOL    HW229753   3.787   8.222   5.058  0.2105  2.1473  0.2894
 8145SOL     OW29754   9.684   8.778   1.269 -0.1380 -0.4355 -0.0145
 8145SOL    HW129755   9.607   8.835   1.263  0.4464  0.2683 -1.2041
 8145SOL    HW229756   9.687   8.752   1.361 -1.7958 -0.4960  0.0584
 8146SOL     OW29757   2.423   3.864  10.649  0.2756 -0.4366 -0.4199
 8146SOL    HW129758   2.368   3.870  10.727  0.6816  3.1011 -0.2585
 8146SOL    HW229759   2.506   3.903  10.676  0.9256 -0.4741 -2.2426
 8147SOL     OW29760   3.805   3.693   8.255 -0.0151  0.2187  0.5913
 8147SOL    HW129761   3.799   3.772   8.201 -0.4233  0.7327  1.3597
 8147SOL    HW229762   3.757   3.627   8.206  0.4030  0.4216 -0.1027
 8148SOL     OW29763   6.062   2.362   9.625  0.6742 -0.5631  0.0909
 8148SOL    HW129764   6.009   2.329   9.552 -0.6070 -1.1468  1.2485
 8148SOL    HW229765   5.999   2.406   9.682  1.6911  0.0540  0.7692
 8149SOL     OW29766   5.124   8.221   5.236 -0.3247  0.5396  0.3801
 8149SOL    HW129767   5.160   8.293   5.289  2.5727  0.3907 -1.1401
 8149SOL    HW229768   5.182   8.217   5.160 -3.2594 -0.3662 -1.9899
 8150SOL     OW29769   7.189   3.269   8.553  0.0393 -0.4802 -0.2444
 8150SOL    HW129770   7.168   3.321   8.475 -0.2962  0.0297  0.1826
 8150SOL    HW229771   7.187   3.332   8.625 -2.0386 -1.3627  0.5442
 8151SOL     OW29772   5.197   1.330   1.961  0.2165 -0.2647  0.3030
 8151SOL    HW129773   5.140   1.276   2.016  0.8121 -0.1489  1.0603
 8151SOL    HW229774   5.286   1.302   1.983  0.4910  0.2494 -0.1128
 8152SOL     OW29775   2.951   3.464   8.986 -0.3310  0.1663  0.1256
 8152SOL    HW129776   2.981   3.547   8.947  1.0594 -1.1097 -1.7298
 8152SOL    HW229777   3.029   3.409   8.986 -0.7518 -0.5613  3.1607
 8153SOL     OW29778   5.195   5.792   9.479  0.2808 -0.6183 -0.2534
 8153SOL    HW129779   5.287   5.775   9.498  0.3539 -0.7588 -0.7112
 8153SOL    HW229780   5.180   5.881   9.512  0.2960 -0.9942  0.7752
 8154SOL     OW29781   5.882   0.413   7.971  0.0297  0.6460 -0.7229
 8154SOL    HW129782   5.937   0.391   8.047  3.6362 -2.6998 -3.8609
 8154SOL    HW229783   5.808   0.352   7.977  1.1363 -0.7570 -0.6130
 8155SOL     OW29784  10.198   1.538   9.507  0.1071 -0.3848  0.2504
 8155SOL    HW129785  10.194   1.538   9.603 -2.8259 -0.6460  0.2160
 8155SOL    HW229786  10.253   1.462   9.485  1.4019  0.0803  1.6812
 8156SOL     OW29787   1.076  10.429  10.464  0.0357  0.5087  0.1133
 8156SOL    HW129788   0.984  10.400  10.459  0.3590 -0.4737 -0.3649
 8156SOL    HW229789   1.126  10.348  10.467  1.0352  0.9601 -2.1448
 8157SOL     OW29790   3.982   5.341  11.050 -0.3980 -0.3402  0.7202
 8157SOL    HW129791   3.985   5.380  10.963 -1.1156 -1.0506  0.3648
 8157SOL    HW229792   4.046   5.391  11.101  0.2473 -0.1069 -0.2908
 8158SOL     OW29793   3.950   2.851  11.736 -0.0650  0.2425 -0.8797
 8158SOL    HW129794   3.877   2.910  11.716  0.1129  0.3858 -1.1161
 8158SOL    HW229795   4.017   2.908  11.774 -1.0649 -0.2840  1.8702
 8159SOL     OW29796   4.015  11.647   5.184 -0.5345 -0.0030 -0.8128
 8159SOL    HW129797   4.059  11.627   5.101  0.3170 -1.2644 -0.0984
 8159SOL    HW229798   4.055  11.587   5.247 -1.1437  0.9466  0.5259
 8160SOL     OW29799   2.175   5.355   3.091 -0.2586  0.0558 -0.1282
 8160SOL    HW129800   2.247   5.416   3.082  0.2805 -0.6327 -0.6012
 8160SOL    HW229801   2.164   5.318   3.003 -1.6623  0.6691 -0.2399
 8161SOL     OW29802   1.769   7.306  11.490 -0.1340 -0.0006 -0.4481
 8161SOL    HW129803   1.682   7.336  11.462 -1.0375 -3.0641 -1.2920
 8161SOL    HW229804   1.818   7.295  11.409  0.6755  0.5116 -0.0508
 8162SOL     OW29805   0.934   4.195   3.762 -0.2602  0.7869 -0.0737
 8162SOL    HW129806   0.910   4.172   3.852  0.8428 -3.3745 -0.6220
 8162SOL    HW229807   1.027   4.215   3.766 -0.3149  1.0740 -0.2217
 8163SOL     OW29808   1.645   2.490   7.183 -0.0063  0.3326  0.4153
 8163SOL    HW129809   1.612   2.401   7.169  0.0012  0.4297 -0.2508
 8163SOL    HW229810   1.566   2.543   7.192 -0.0277  0.4346 -0.3401
 8164SOL     OW29811   2.477  10.524   2.876 -0.0606  0.3729 -0.2992
 8164SOL    HW129812   2.534  10.450   2.856 -2.0528 -1.2152 -0.4669
 8164SOL    HW229813   2.476  10.528   2.972 -1.6479 -1.3176 -0.1890
 8165SOL     OW29814   2.070   3.693   5.741 -0.1316 -0.2659 -0.2563
 8165SOL    HW129815   2.084   3.647   5.658 -1.3145  0.2652 -0.7658
 8165SOL    HW229816   2.113   3.778   5.730 -0.8020  0.0376 -0.5527
 8166SOL     OW29817   3.041  10.645   6.548 -0.4060 -0.1356 -0.2529
 8166SOL    HW129818   3.133  10.667   6.557 -0.5471  0.5865 -0.5636
 8166SOL    HW229819   3.005  10.655   6.637 -0.3051  0.1015 -0.2408
 8167SOL     OW29820   3.313  10.092   3.510  0.0311 -0.1434  0.3897
 8167SOL    HW129821   3.309  10.125   3.599 -1.0023 -1.1902  0.7475
 8167SOL    HW229822   3.308   9.997   3.518  2.1511 -0.4158 -0.6636
 8168SOL     OW29823  10.377   3.171   3.899  0.5731 -0.4480  0.6095
 8168SOL    HW129824  10.370   3.121   3.818  1.9836 -0.5047  0.5041
 8168SOL    HW229825  10.373   3.263   3.871  1.7462 -0.4524  0.3776
 8169SOL     OW29826   8.812   5.623   3.334  0.1766 -0.1376 -0.0180
 8169SOL    HW129827   8.799   5.586   3.421  2.1170 -1.9234 -0.4245
 8169SOL    HW229828   8.897   5.666   3.338  0.4724 -0.5841 -1.1181
 8170SOL     OW29829   4.438  10.472   5.322  0.2534 -0.0962  0.0264
 8170SOL    HW129830   4.483  10.411   5.381  0.9839 -0.8531 -1.2803
 8170SOL    HW229831   4.397  10.536   5.381 -0.4230 -1.7603  1.4335
 8171SOL     OW29832   6.294   4.206   9.464  0.2885 -0.2872 -0.3890
 8171SOL    HW129833   6.256   4.140   9.406 -0.4424 -0.0305 -0.2107
 8171SOL    HW229834   6.272   4.177   9.552 -1.2312  0.8830 -0.3479
 8172SOL     OW29835   2.327  10.786   1.790  0.3327  0.4706 -0.0120
 8172SOL    HW129836   2.414  10.747   1.798  0.1822 -0.1157 -1.0346
 8172SOL    HW229837   2.335  10.873   1.829  0.8775 -0.2812  1.6389
 8173SOL     OW29838   9.133   5.930   1.735 -0.7455 -0.2552 -0.3974
 8173SOL    HW129839   9.123   5.868   1.808 -0.5895  0.3054  0.0988
 8173SOL    HW229840   9.058   5.911   1.678  0.1995 -2.0654 -1.1380
 8174SOL     OW29841   4.281   1.340   6.933 -0.0068 -0.0782 -0.1245
 8174SOL    HW129842   4.316   1.272   6.990 -0.0569  0.6615  0.8139
 8174SOL    HW229843   4.307   1.422   6.975 -1.1283  0.4881 -0.4928
 8175SOL     OW29844   2.298   1.131   4.195 -0.7025  0.0128 -0.2172
 8175SOL    HW129845   2.346   1.208   4.166 -0.8486 -0.5534 -2.0871
 8175SOL    HW229846   2.332   1.113   4.283  1.6375  0.3396 -0.9910
 8176SOL     OW29847   1.907   8.690   5.425 -0.3228 -0.1439 -0.3468
 8176SOL    HW129848   1.984   8.678   5.481 -0.2960 -1.9575 -0.7245
 8176SOL    HW229849   1.854   8.611   5.439 -2.9047  1.6623  1.0226
 8177SOL     OW29850   6.796   3.344   0.837 -0.9420  0.0583 -0.9504
 8177SOL    HW129851   6.858   3.417   0.835 -1.7732  0.7852 -1.4272
 8177SOL    HW229852   6.802   3.306   0.749 -2.0187  0.9073 -1.4247
 8178SOL     OW29853   8.712  10.470   2.731 -0.0835  0.5116 -0.3933
 8178SOL    HW129854   8.739  10.546   2.678 -0.8030 -0.0788 -1.6436
 8178SOL    HW229855   8.626  10.446   2.697 -0.0542 -0.6129  0.2731
 8179SOL     OW29856   5.401   9.451  10.660 -0.2631 -0.6629 -0.0269
 8179SOL    HW129857   5.443   9.403  10.732  0.0420 -1.2377 -0.5810
 8179SOL    HW229858   5.366   9.383  10.603 -0.1600 -0.2176 -0.6235
 8180SOL     OW29859   1.857   3.974   8.423 -0.4998 -0.5607 -0.3512
 8180SOL    HW129860   1.943   3.939   8.399 -0.0759 -0.3840  0.8212
 8180SOL    HW229861   1.798   3.942   8.354  0.4418 -0.9495 -1.0016
 8181SOL     OW29862   6.169   1.160   3.454  0.3337 -0.1767  0.4046
 8181SOL    HW129863   6.120   1.126   3.379 -0.3611 -0.9697  1.2092
 8181SOL    HW229864   6.250   1.195   3.415 -0.8816  1.3008 -0.9759
 8182SOL     OW29865   3.390   9.274   8.380  0.2367 -0.0598 -1.0069
 8182SOL    HW129866   3.446   9.350   8.398  3.3051 -2.3340 -0.1581
 8182SOL    HW229867   3.365   9.242   8.467 -3.6933  1.5721 -1.3181
 8183SOL     OW29868   9.676   1.712   8.300 -0.4866  0.4640  0.1141
 8183SOL    HW129869   9.607   1.725   8.235 -2.1211 -1.0999  1.4652
 8183SOL    HW229870   9.708   1.623   8.283 -0.4509  0.3015  1.0159
 8184SOL     OW29871   4.891   9.230   0.401  0.0838 -0.6774  0.8006
 8184SOL    HW129872   4.803   9.243   0.437 -0.5627 -1.1602 -0.5105
 8184SOL    HW229873   4.896   9.292   0.329  1.5410  0.6374  1.9863
 8185SOL     OW29874   7.895  11.720   8.444 -0.0077 -0.0691 -0.4078
 8185SOL    HW129875   7.957  11.792   8.430 -1.1391  1.2488  0.9876
 8185SOL    HW229876   7.849  11.713   8.360  0.5071  0.4347 -0.7490
 8186SOL     OW29877   2.690   8.320   6.255  0.4657  0.2538  0.3242
 8186SOL    HW129878   2.668   8.331   6.348  0.7574 -0.3055  0.4688
 8186SOL    HW229879   2.711   8.227   6.247 -0.5652  0.0765 -0.5276
 8187SOL     OW29880   4.943   3.622   5.288  0.4928  0.4232 -0.3151
 8187SOL    HW129881   5.010   3.668   5.237 -0.1528  0.1312 -1.4457
 8187SOL    HW229882   4.952   3.659   5.376 -0.2033  2.9973 -1.2280
 8188SOL     OW29883   1.976  10.006   9.297  0.2823  0.0432  0.5678
 8188SOL    HW129884   1.907  10.054   9.251 -0.4854  0.1130  1.7470
 8188SOL    HW229885   2.023  10.074   9.345 -0.0023 -0.2206  1.2289
 8189SOL     OW29886   4.064   7.685  10.583 -0.0899  0.1391  0.9288
 8189SOL    HW129887   4.117   7.616  10.621 -1.1538 -1.1766  0.1032
 8189SOL    HW229888   3.982   7.642  10.558 -0.8824  1.7442  0.6153
 8190SOL     OW29889   3.410   5.249  11.782 -0.4425  0.3266  0.3072
 8190SOL    HW129890   3.336   5.203  11.821 -0.8560  1.0556  0.3871
 8190SOL    HW229891   3.371   5.312  11.721  0.1560 -0.1371 -0.5931
 8191SOL     OW29892   9.192   9.081   9.189 -0.0146 -0.4459 -0.5427
 8191SOL    HW129893   9.271   9.071   9.242  0.5007 -1.3284 -1.4390
 8191SOL    HW229894   9.122   9.050   9.245  0.2585  0.3479  0.2645
 8192SOL     OW29895   4.420   3.232  10.142  0.0674  0.4189 -0.1682
 8192SOL    HW129896   4.505   3.261  10.175  0.3807 -0.1107 -0.4956
 8192SOL    HW229897   4.432   3.139  10.121 -0.7914  0.1577  0.4389
 8193SOL     OW29898   6.882   8.935   6.659 -0.1491  0.0920  0.4207
 8193SOL    HW129899   6.934   8.855   6.653 -1.4890 -0.7788  0.0665
 8193SOL    HW229900   6.867   8.961   6.568 -1.7094 -0.6143  0.4415
 8194SOL     OW29901   6.622   9.842   0.712  0.5869  0.3530  0.0165
 8194SOL    HW129902   6.584   9.775   0.654 -0.7913  0.9441  0.1837
 8194SOL    HW229903   6.577   9.923   0.687  0.6667  0.7935  1.2518
 8195SOL     OW29904   0.329   7.986   9.875 -0.0576 -0.3146 -0.0904
 8195SOL    HW129905   0.252   7.930   9.865 -0.2966 -0.4152  1.8478
 8195SOL    HW229906   0.403   7.927   9.865 -0.2694 -0.5762 -0.1257
 8196SOL     OW29907   9.448   5.123   8.577  0.3121  0.0381  0.3798
 8196SOL    HW129908   9.470   5.184   8.507  2.1739 -0.6196  0.3359
 8196SOL    HW229909   9.522   5.129   8.638 -0.1191 -1.1698  1.0486
 8197SOL     OW29910   6.059   5.851   8.437  0.6244  0.1963 -0.1824
 8197SOL    HW129911   6.045   5.944   8.419 -0.2296  0.0717 -0.2063
 8197SOL    HW229912   5.977   5.821   8.476 -0.3056 -1.2355 -2.9825
 8198SOL     OW29913   6.549   4.161  11.479  0.4042 -0.5907 -0.1209
 8198SOL    HW129914   6.564   4.219  11.554 -0.3928 -1.1057  0.4531
 8198SOL    HW229915   6.621   4.180  11.419  1.1142 -0.2410  0.8235
 8199SOL     OW29916   2.549   7.665  11.251 -0.0087  0.0367  0.0228
 8199SOL    HW129917   2.470   7.628  11.292 -0.0895 -0.4587 -0.5588
 8199SOL    HW229918   2.566   7.607  11.177 -0.3012  1.3393 -1.1004
 8200SOL     OW29919   3.100   3.877   4.263 -0.0966  0.0109  0.1555
 8200SOL    HW129920   3.186   3.920   4.259  0.6834 -1.4203  0.7098
 8200SOL    HW229921   3.053   3.911   4.187  1.1109  0.5480 -0.3862
 8201SOL     OW29922  10.335   9.947   4.293  0.1874  0.4805 -0.3397
 8201SOL    HW129923  10.404  10.011   4.304  0.7658 -0.4341  1.9464
 8201SOL    HW229924  10.259   9.985   4.336  0.3618 -0.0995  0.4984
 8202SOL     OW29925   1.493   9.364   4.254  0.0953 -0.8514  0.0576
 8202SOL    HW129926   1.418   9.393   4.305 -0.3610  0.4241 -1.2766
 8202SOL    HW229927   1.535   9.297   4.309 -1.4477 -0.9033  1.2329
 8203SOL     OW29928   4.827   6.098   6.488  0.5112 -0.2227 -0.3014
 8203SOL    HW129929   4.769   6.060   6.422 -1.1127 -1.8320  1.9050
 8203SOL    HW229930   4.906   6.043   6.485 -0.0532 -1.0617 -0.1185
 8204SOL     OW29931  10.953   5.946   7.120 -0.6005 -0.4852  0.1465
 8204SOL    HW129932  10.991   6.031   7.142 -1.5042  0.7556 -2.5733
 8204SOL    HW229933  11.027   5.885   7.118  0.6394  0.9748 -0.9913
 8205SOL     OW29934   5.152   8.565   1.147  0.0211 -0.3415  0.6390
 8205SOL    HW129935   5.118   8.545   1.060  0.8486 -0.3806  0.3116
 8205SOL    HW229936   5.075   8.563   1.204 -0.8882  1.7006 -0.4070
 8206SOL     OW29937   2.330   9.074   1.415  0.0387 -0.0637 -0.5542
 8206SOL    HW129938   2.264   9.029   1.363  1.1636 -0.0744 -2.0431
 8206SOL    HW229939   2.399   9.009   1.427 -0.2302 -0.0795  1.0592
 8207SOL     OW29940  10.470   4.899   2.959 -0.4172  0.0809 -0.0674
 8207SOL    HW129941  10.432   4.953   2.890 -0.2891 -0.7890 -0.8368
 8207SOL    HW229942  10.559   4.933   2.970  0.9493 -2.1209 -3.0376
 8208SOL     OW29943   2.071   7.754   3.549  0.1758 -0.3250  0.4746
 8208SOL    HW129944   2.033   7.805   3.478 -0.8133  1.1146  1.9773
 8208SOL    HW229945   2.149   7.714   3.510 -0.7464 -0.2230 -1.6123
 8209SOL     OW29946   7.400   4.009   4.230  0.2262  0.8772  0.1110
 8209SOL    HW129947   7.338   4.009   4.304  0.7414 -0.8990  0.5914
 8209SOL    HW229948   7.354   4.056   4.161 -1.0234  0.9941  0.9813
 8210SOL     OW29949   2.587  11.001   0.313  0.6310  0.3407 -0.3732
 8210SOL    HW129950   2.531  10.927   0.335  0.3885  0.0940 -1.7699
 8210SOL    HW229951   2.528  11.075   0.303  0.8209  0.6273  0.4955
 8211SOL     OW29952   9.932   1.486   0.120 -0.1001  0.3118 -0.0309
 8211SOL    HW129953   9.846   1.461   0.090  0.5263  0.1949 -1.8056
 8211SOL    HW229954   9.927   1.479   0.216 -1.7020 -0.7249 -0.1648
 8212SOL     OW29955   7.519  10.613   7.003 -0.3312  0.0664 -0.2348
 8212SOL    HW129956   7.496  10.542   6.944 -0.9736  1.2746 -1.5055
 8212SOL    HW229957   7.539  10.571   7.086 -0.3621 -1.6061 -1.0463
 8213SOL     OW29958   1.471   3.254   2.967 -0.4588  0.2060  0.2915
 8213SOL    HW129959   1.388   3.302   2.959  0.0920  0.9950 -0.9087
 8213SOL    HW229960   1.493   3.230   2.877 -0.6388 -2.2275  0.8454
 8214SOL     OW29961   9.619   8.475   8.061  0.0544  0.6212  0.6639
 8214SOL    HW129962   9.568   8.552   8.038 -0.4955  0.3261  0.8847
 8214SOL    HW229963   9.556   8.415   8.101  0.0017 -0.8232 -1.4049
 8215SOL     OW29964  10.540  10.590   6.758 -0.0892  0.1241  0.3884
 8215SOL    HW129965  10.572  10.584   6.668  1.2506 -1.0314  0.9105
 8215SOL    HW229966  10.548  10.683   6.780  0.4877  0.2633 -0.3586
 8216SOL     OW29967   8.085  11.460   9.234 -0.0579  0.3760 -0.2398
 8216SOL    HW129968   8.087  11.374   9.276 -1.0570  0.5711  0.2313
 8216SOL    HW229969   8.058  11.443   9.144  1.2880  0.0451 -0.6121
 8217SOL     OW29970   9.402   4.016   4.880 -0.1529 -0.0094  0.4212
 8217SOL    HW129971   9.444   4.036   4.797 -1.9261 -0.6013 -0.6753
 8217SOL    HW229972   9.410   4.097   4.931  0.5948  0.4957 -0.4622
 8218SOL     OW29973  11.065  11.761   9.384  0.1008  0.1714  0.2872
 8218SOL    HW129974  11.055  11.783   9.476 -1.0022  0.5338  0.0963
 8218SOL    HW229975  11.159  11.765   9.368  0.2230  1.0927  1.1560
 8219SOL     OW29976   5.514   0.838   7.584 -0.3568  0.2676  0.2482
 8219SOL    HW129977   5.446   0.794   7.533 -0.6964 -0.8077  1.5584
 8219SOL    HW229978   5.505   0.931   7.562 -1.7278  0.0493 -0.2082
 8220SOL     OW29979   5.824   2.252  10.617 -0.8818  0.4056  0.1732
 8220SOL    HW129980   5.861   2.241  10.705 -1.0313  2.5262  0.5531
 8220SOL    HW229981   5.740   2.295  10.633 -2.1471 -1.5461 -0.8787
 8221SOL     OW29982   3.608   4.646   8.537 -0.1116 -0.0989  0.4762
 8221SOL    HW129983   3.533   4.590   8.558  1.1154 -1.5599  1.1690
 8221SOL    HW229984   3.675   4.622   8.600  0.6979  1.7561  0.3964
 8222SOL     OW29985   8.581   9.207  10.374  0.5808 -0.2021  0.0380
 8222SOL    HW129986   8.573   9.255  10.456 -0.4023 -0.9649  0.4080
 8222SOL    HW229987   8.563   9.273  10.306  0.4720  0.2230  0.4727
 8223SOL     OW29988   1.024   6.533   6.357 -0.3389  0.0792  0.7196
 8223SOL    HW129989   1.084   6.490   6.417 -0.5498  0.8381  1.4982
 8223SOL    HW229990   1.079   6.559   6.283  0.6421  1.9759  2.0112
 8224SOL     OW29991   6.568   2.975   9.051  0.0931 -0.1909 -0.3041
 8224SOL    HW129992   6.472   2.973   9.056 -0.0731  2.6873 -0.3195
 8224SOL    HW229993   6.596   2.968   9.142 -0.2041 -0.0177 -0.1946
 8225SOL     OW29994   5.790   1.372   1.919  0.0575  0.5279 -0.3079
 8225SOL    HW129995   5.794   1.297   1.978  1.5211  0.3443 -0.5985
 8225SOL    HW229996   5.711   1.358   1.867  1.2480 -1.8249 -1.6379
 8226SOL     OW29997   9.173   1.266   6.452  0.2059 -0.0818 -0.4020
 8226SOL    HW129998   9.210   1.319   6.382  1.4945 -2.3604 -1.5531
 8226SOL    HW229999   9.241   1.263   6.519 -0.5474  1.0710  0.4684
 8227SOL     OW30000   4.479   9.591  10.324  0.2060 -0.8635 -0.1372
 8227SOL    HW130001   4.443   9.556  10.243  0.6489 -1.4681 -0.0813
 8227SOL    HW230002   4.517   9.675  10.299 -2.6586  0.6445  0.1128
 8228SOL     OW30003   7.367   8.145   8.937 -0.2389  0.0656 -0.2320
 8228SOL    HW130004   7.365   8.113   8.846 -0.4906 -0.4627 -0.0441
 8228SOL    HW230005   7.277   8.171   8.955  0.1041  1.5685 -0.6142
 8229SOL     OW30006   6.090   9.079   0.182 -0.7241 -0.2650 -0.2649
 8229SOL    HW130007   6.019   9.015   0.191  0.4209 -1.5747 -0.1587
 8229SOL    HW230008   6.133   9.056   0.099 -1.1876  1.3280 -0.9850
 8230SOL     OW30009   1.431   5.371   6.030  0.4224  0.1611  0.1253
 8230SOL    HW130010   1.469   5.289   5.999  0.9103  0.1464  0.7359
 8230SOL    HW230011   1.336   5.356   6.028  0.5333 -0.8398  1.3279
 8231SOL     OW30012   1.367   7.863   8.797 -0.6900 -0.1725  0.1958
 8231SOL    HW130013   1.333   7.871   8.708 -2.7322 -0.0877  0.9217
 8231SOL    HW230014   1.398   7.773   8.803 -1.9926 -0.6654 -0.1512
 8232SOL     OW30015   8.042   6.847   2.122  0.1029 -0.0547 -0.5388
 8232SOL    HW130016   7.987   6.924   2.108 -1.1672 -0.9337 -0.5271
 8232SOL    HW230017   8.091   6.866   2.202  0.5794  1.1613 -1.1040
 8233SOL     OW30018  11.578   2.451  11.080 -0.4872  0.1592 -0.3990
 8233SOL    HW130019  11.502   2.394  11.088 -0.1934 -0.1554  0.2640
 8233SOL    HW230020  11.625   2.417  11.003 -0.7553  0.0444 -0.5126
 8234SOL     OW30021   0.464   7.432  11.679 -0.0522 -0.1300 -0.1264
 8234SOL    HW130022   0.509   7.508  11.717 -0.5671  0.1512 -0.0601
 8234SOL    HW230023   0.531   7.387  11.628  0.7361 -0.6922  1.3439
 8235SOL     OW30024   9.555   2.236   6.153  0.7570 -0.0789  1.0853
 8235SOL    HW130025   9.603   2.241   6.070 -0.7609 -0.6866  0.1428
 8235SOL    HW230026   9.572   2.321   6.194  1.2017  0.3969 -0.0292
 8236SOL     OW30027   2.834   8.961  11.199  0.1890  0.1844  0.3222
 8236SOL    HW130028   2.785   8.941  11.119  0.9655 -1.8676  0.2834
 8236SOL    HW230029   2.834   9.056  11.205  0.4619  0.4230 -2.3739
 8237SOL     OW30030   7.056  11.158   4.743  0.3714 -0.5646 -0.2218
 8237SOL    HW130031   7.044  11.247   4.710 -0.1524  0.2726  2.0055
 8237SOL    HW230032   7.063  11.169   4.838  0.1073 -2.9349  0.1308
 8238SOL     OW30033   4.017   8.702   4.879 -0.9822 -0.4528 -0.7254
 8238SOL    HW130034   4.105   8.732   4.902 -1.4631 -0.2864  1.0256
 8238SOL    HW230035   4.005   8.621   4.929 -1.2805 -1.3159 -2.1298
 8239SOL     OW30036   5.833  11.231   2.057 -0.1958 -0.4064 -0.0724
 8239SOL    HW130037   5.762  11.279   2.099 -1.2643 -0.6112 -1.5891
 8239SOL    HW230038   5.840  11.269   1.970  0.4264 -1.5294 -0.5368
 8240SOL     OW30039   2.120   4.544   7.727 -0.2368  0.1050  0.3301
 8240SOL    HW130040   2.134   4.639   7.722 -2.1554  0.3839 -1.0404
 8240SOL    HW230041   2.204   4.509   7.755  0.1501  2.3075  2.2458
 8241SOL     OW30042  10.578   6.183   0.584  0.2315 -0.3929  0.2441
 8241SOL    HW130043  10.616   6.242   0.649 -0.0989  2.7550 -2.1989
 8241SOL    HW230044  10.484   6.192   0.596  0.1685  0.1674 -0.5543
 8242SOL     OW30045   2.811   0.813   6.128  0.6082  0.0736  0.6450
 8242SOL    HW130046   2.723   0.783   6.154 -0.1741 -1.0641 -2.8572
 8242SOL    HW230047   2.822   0.895   6.176 -2.2631  0.1221  1.4448
 8243SOL     OW30048   6.124   1.059   5.767 -0.2864  0.1402  0.2448
 8243SOL    HW130049   6.213   1.047   5.734  0.0200  1.3607  0.5888
 8243SOL    HW230050   6.089   0.970   5.775 -0.1965 -0.2625 -2.7745
 8244SOL     OW30051  10.914   3.283   5.443  0.1704  0.4495 -0.3976
 8244SOL    HW130052  10.874   3.367   5.424 -2.0485  0.0880  2.0432
 8244SOL    HW230053  10.845   3.219   5.427  1.7634 -0.9735 -2.0602
 8245SOL     OW30054   8.104   6.321   4.657 -0.3190 -0.3329  0.3237
 8245SOL    HW130055   8.168   6.378   4.614  0.5794 -0.5552  1.3099
 8245SOL    HW230056   8.052   6.284   4.586  1.9154 -1.6941 -0.7129
 8246SOL     OW30057   9.179   0.075   1.197  0.1564 -0.4600  0.6157
 8246SOL    HW130058   9.227   0.034   1.269 -3.1987 -0.0764  3.2982
 8246SOL    HW230059   9.134   0.002   1.154  0.6308 -0.4621  0.1100
 8247SOL     OW30060   2.874   7.256   7.161  0.2811  0.1683 -0.1483
 8247SOL    HW130061   2.921   7.302   7.092  0.0625  1.7185  0.6986
 8247SOL    HW230062   2.896   7.304   7.241 -2.6023  0.8898  0.3135
 8248SOL     OW30063   7.212   6.138  11.274 -0.2774 -0.6052 -0.1452
 8248SOL    HW130064   7.280   6.104  11.215  0.1390 -1.2318  0.6674
 8248SOL    HW230065   7.134   6.087  11.254 -0.8730  0.8908 -1.8830
 8249SOL     OW30066   0.053   8.431   5.278  0.0194  0.1859 -0.2151
 8249SOL    HW130067  -0.007   8.390   5.340  1.8536 -1.0109  0.8534
 8249SOL    HW230068   0.095   8.501   5.328 -0.8067  1.3445 -1.0986
 8250SOL     OW30069   9.769   5.773   8.031 -0.0091  0.5661  0.2172
 8250SOL    HW130070   9.855   5.814   8.037 -0.2704  0.9371  1.7479
 8250SOL    HW230071   9.720   5.807   8.106 -1.7784  0.9877 -1.0512
 8251SOL     OW30072   9.210   1.519   2.470 -0.5293  0.7728 -0.4002
 8251SOL    HW130073   9.157   1.513   2.549  1.6341 -0.5195  1.0539
 8251SOL    HW230074   9.160   1.470   2.404 -2.3407  1.8382  0.0878
 8252SOL     OW30075  10.337   0.025  10.887 -0.3807 -0.3384  0.1749
 8252SOL    HW130076  10.261  -0.017  10.927 -1.7472 -0.8376 -2.6736
 8252SOL    HW230077  10.317   0.025  10.793  2.8285  0.2048 -0.6057
 8253SOL     OW30078   5.281   6.983  11.478 -0.2948  0.2849  0.1352
 8253SOL    HW130079   5.354   7.016  11.425  0.2835 -1.9701 -0.6089
 8253SOL    HW230080   5.291   6.888  11.475 -2.4769 -0.0398  1.2052
 8254SOL     OW30081  11.244  11.583   3.486  0.7089 -0.2712 -0.2457
 8254SOL    HW130082  11.198  11.664   3.508  1.5293  0.0300  0.3955
 8254SOL    HW230083  11.300  11.567   3.561  1.9017 -0.4429 -1.1592
 8255SOL     OW30084   2.680   5.333   1.259  0.3776 -0.1127  0.2626
 8255SOL    HW130085   2.758   5.388   1.270  1.2636 -0.7033 -2.3840
 8255SOL    HW230086   2.714   5.249   1.228 -1.1533 -1.3440  1.7246
 8256SOL     OW30087   0.530   9.758   9.804  0.0932 -0.2376  0.7200
 8256SOL    HW130088   0.553   9.748   9.897  2.0064  0.5528  0.3864
 8256SOL    HW230089   0.614   9.754   9.758 -0.6830  0.5885 -0.8683
 8257SOL     OW30090   3.021   7.213   8.967 -0.2205 -0.3536  0.1145
 8257SOL    HW130091   3.022   7.233   8.873  1.0459  0.1997  0.2244
 8257SOL    HW230092   2.989   7.123   8.971 -2.3604  0.3075 -0.6699
 8258SOL     OW30093   4.722   6.978   5.793 -0.2326  0.4577 -0.0874
 8258SOL    HW130094   4.750   6.886   5.797  1.5420  0.9924  0.8447
 8258SOL    HW230095   4.663   6.982   5.717 -0.4188 -1.4524 -0.0948
 8259SOL     OW30096   7.047   7.304   6.946  0.2839  0.0655  0.1092
 8259SOL    HW130097   7.061   7.394   6.975 -0.0065  0.1798 -0.0977
 8259SOL    HW230098   6.973   7.274   6.999 -0.7926  0.5466 -1.0687
 8260SOL     OW30099   9.153   3.084   5.484  0.0622 -0.2207 -0.1200
 8260SOL    HW130100   9.223   3.042   5.535 -0.0822  0.3436  0.5537
 8260SOL    HW230101   9.198   3.119   5.407  0.3126 -0.9188 -0.3061
 8261SOL     OW30102   0.853   8.460   1.665 -0.2259  0.2346 -0.4079
 8261SOL    HW130103   0.780   8.522   1.673  0.3240  0.6529  2.4443
 8261SOL    HW230104   0.829   8.387   1.722  1.7104  0.6070  1.0057
 8262SOL     OW30105   3.079   0.574   1.130 -0.0662 -0.2424  0.0948
 8262SOL    HW130106   3.170   0.604   1.126 -0.1500  0.3479  1.8071
 8262SOL    HW230107   3.035   0.623   1.062  0.3701  1.5520  1.0279
 8263SOL     OW30108   9.424   7.244  10.033 -0.0702 -0.4025 -0.2130
 8263SOL    HW130109   9.404   7.330  10.069 -1.8583 -0.5925 -0.6353
 8263SOL    HW230110   9.455   7.193  10.107  0.0676  0.3203  0.2329
 8264SOL     OW30111   6.286   5.149   1.073 -0.4095  0.1091 -0.5818
 8264SOL    HW130112   6.319   5.195   0.996 -2.9358  1.1547 -1.1616
 8264SOL    HW230113   6.190   5.154   1.065 -0.7873 -2.4256  1.0736
 8265SOL     OW30114  10.977   0.045   1.082 -0.1089 -0.1551 -0.0313
 8265SOL    HW130115  11.002  -0.047   1.072 -2.2149 -0.8365  0.6017
 8265SOL    HW230116  10.922   0.047   1.160 -2.4039  1.1323 -1.5703
 8266SOL     OW30117   0.175   7.299   0.771 -0.6368 -0.7650 -0.1515
 8266SOL    HW130118   0.106   7.334   0.715 -1.5915 -2.6471 -0.2454
 8266SOL    HW230119   0.188   7.209   0.739  1.7849 -0.5199 -0.0565
 8267SOL     OW30120   2.902  11.774   8.791  0.1025 -0.1230  0.7604
 8267SOL    HW130121   2.910  11.864   8.760  1.0508 -0.1292  0.9632
 8267SOL    HW230122   2.837  11.778   8.861 -0.9010  0.1576 -0.1469
 8268SOL     OW30123   8.500   4.452  10.197 -0.2049  0.1532  0.0798
 8268SOL    HW130124   8.524   4.366  10.232  0.2923 -1.0893 -2.9605
 8268SOL    HW230125   8.533   4.451  10.107 -1.1195  3.1498 -0.3881
 8269SOL     OW30126   5.080   0.069   3.677  0.0233  0.0950  0.2715
 8269SOL    HW130127   5.032   0.099   3.600  2.1116 -1.3513 -1.7051
 8269SOL    HW230128   5.116   0.149   3.715 -1.7423  0.9173  0.3303
 8270SOL     OW30129   2.684   7.951   2.298  0.0301  0.0333 -0.0734
 8270SOL    HW130130   2.662   8.043   2.287  1.4815  0.3007 -1.0184
 8270SOL    HW230131   2.697   7.941   2.393 -1.2260  0.5110  0.1700
 8271SOL     OW30132   7.533   8.806   7.402  0.4705 -0.1036 -0.4952
 8271SOL    HW130133   7.535   8.815   7.497  0.9772 -0.4271 -0.4706
 8271SOL    HW230134   7.587   8.729   7.384 -0.4139 -0.6187 -0.9853
 8272SOL     OW30135   9.618  11.464   3.470 -0.5600 -0.3143 -0.0515
 8272SOL    HW130136   9.615  11.538   3.410 -2.8081 -0.6227 -0.4416
 8272SOL    HW230137   9.635  11.502   3.556 -0.3165  0.4774 -0.4486
 8273SOL     OW30138   9.538   8.234   6.643 -0.1190 -0.1617 -0.8024
 8273SOL    HW130139   9.530   8.179   6.721 -1.3642  1.2007  0.0958
 8273SOL    HW230140   9.616   8.286   6.659 -0.7989  0.6745 -0.0338
 8274SOL     OW30141   9.890   0.246   1.045  0.5226  0.4329  0.1537
 8274SOL    HW130142   9.858   0.242   0.955  0.4560 -1.0761  0.2170
 8274SOL    HW230143   9.852   0.326   1.081 -0.1129  0.6271 -0.9053
 8275SOL     OW30144  11.106  11.588   2.447  0.5247  0.0537 -0.6056
 8275SOL    HW130145  11.065  11.675   2.451  2.5319  1.0201  1.9521
 8275SOL    HW230146  11.042  11.530   2.489  0.4701  0.9471  0.5918
 8276SOL     OW30147   1.625   6.496  11.326  0.3593 -0.4768 -0.0869
 8276SOL    HW130148   1.531   6.498  11.309  0.5457 -1.7083 -1.5116
 8276SOL    HW230149   1.647   6.403  11.332  1.3015 -0.1975  1.5745
 8277SOL     OW30150   4.463   9.754   0.654  0.3833  0.6994 -0.5547
 8277SOL    HW130151   4.553   9.741   0.623 -0.2872  1.6316 -3.2235
 8277SOL    HW230152   4.468   9.832   0.709  1.6318 -0.9938  1.9380
 8278SOL     OW30153   3.055   1.872   1.318 -0.2372 -0.1671 -0.4558
 8278SOL    HW130154   3.008   1.830   1.390  0.1022 -1.1377 -0.7881
 8278SOL    HW230155   2.991   1.873   1.246 -0.1471 -0.3903 -0.5393
 8279SOL     OW30156  11.721   7.920   4.698  0.0639 -0.1011 -0.2178
 8279SOL    HW130157  11.664   7.878   4.634 -1.2247  1.7731 -0.3644
 8279SOL    HW230158  11.774   7.981   4.646  1.0842 -0.6508  0.1447
 8280SOL     OW30159   6.617  10.094   6.828 -0.5430 -0.0798  0.2816
 8280SOL    HW130160   6.699  10.045   6.829 -0.6300 -0.2270  0.1738
 8280SOL    HW230161   6.599  10.109   6.735  0.3765  1.6518  0.3531
 8281SOL     OW30162   5.793   7.023  11.200 -0.1842 -0.0632 -0.3894
 8281SOL    HW130163   5.880   6.985  11.185  0.2240  0.4427  0.6075
 8281SOL    HW230164   5.742   6.999  11.122  0.0111 -2.7531  0.2208
 8282SOL     OW30165   1.265   1.632   7.386 -0.2924  0.2243  0.3070
 8282SOL    HW130166   1.262   1.655   7.478 -1.9307 -0.0230  0.3448
 8282SOL    HW230167   1.256   1.537   7.385 -1.3920  0.3094 -0.1129
 8283SOL     OW30168   5.915   0.270   8.935 -0.0186 -0.2287 -0.0024
 8283SOL    HW130169   5.833   0.319   8.942  0.5513  0.7599 -0.2471
 8283SOL    HW230170   5.887   0.183   8.906 -1.1094 -0.3004  1.1440
 8284SOL     OW30171  11.803  10.471   4.910  0.2334 -0.0529 -0.1113
 8284SOL    HW130172  11.831  10.408   4.843 -1.0580  0.4970 -1.2111
 8284SOL    HW230173  11.735  10.424   4.959 -0.9518  0.5311 -1.1286
 8285SOL     OW30174   9.140   4.961   2.734  0.1358 -0.5488  0.0966
 8285SOL    HW130175   9.186   4.925   2.810  2.5971  1.5909 -0.2270
 8285SOL    HW230176   9.089   5.033   2.769 -0.3767 -0.8556 -0.0117
 8286SOL     OW30177   5.350   3.762   3.997 -0.2010 -0.2963 -0.0484
 8286SOL    HW130178   5.396   3.698   3.943 -0.4655 -1.4919  1.0901
 8286SOL    HW230179   5.386   3.847   3.970 -0.3516 -0.8289 -2.0975
 8287SOL     OW30180   2.052   2.338  11.054  0.5512 -0.4848 -0.1226
 8287SOL    HW130181   2.023   2.303  11.138  0.8497 -0.4150  0.0106
 8287SOL    HW230182   2.104   2.268  11.015  1.1903 -0.1722  0.1658
 8288SOL     OW30183   8.470  11.769   3.819  0.2753  0.0126 -0.5096
 8288SOL    HW130184   8.447  11.776   3.726 -0.3751 -0.2605 -0.3709
 8288SOL    HW230185   8.395  11.806   3.866  0.8129  0.6199 -0.1006
 8289SOL     OW30186   7.787   3.290   1.894  0.1035  0.1730  0.9667
 8289SOL    HW130187   7.814   3.273   1.985  3.4140  1.7810  0.4377
 8289SOL    HW230188   7.767   3.384   1.892  1.4164  0.4614 -0.1950
 8290SOL     OW30189   6.590   8.689   5.642 -0.5364  0.1613 -0.2553
 8290SOL    HW130190   6.544   8.716   5.721  0.7291  0.8169  0.2811
 8290SOL    HW230191   6.653   8.759   5.625  0.4381 -0.8156 -0.8089
 8291SOL     OW30192   5.262  11.062  10.588  0.2177  0.2021 -0.3550
 8291SOL    HW130193   5.272  11.112  10.669 -0.4613  0.0301 -0.1641
 8291SOL    HW230194   5.290  11.122  10.519  0.9544  0.2979  0.0088
 8292SOL     OW30195   0.653   7.428   1.022 -0.2068  0.3448 -0.0867
 8292SOL    HW130196   0.631   7.493   1.089  0.0004 -0.9944  1.3507
 8292SOL    HW230197   0.580   7.431   0.960 -0.3789  1.6543  0.1498
 8293SOL     OW30198   1.262  10.205   6.448 -0.2033 -0.4668  0.0692
 8293SOL    HW130199   1.244  10.184   6.540 -1.2973 -0.3261 -0.1062
 8293SOL    HW230200   1.355  10.229   6.448  0.1183 -1.6105  0.9239
 8294SOL     OW30201   6.214   5.396   7.336  0.2999  0.3005 -0.4536
 8294SOL    HW130202   6.221   5.483   7.375 -0.4786  0.4311 -0.6013
 8294SOL    HW230203   6.184   5.340   7.407  0.9222  0.1197 -0.3245
 8295SOL     OW30204   6.644   3.836   9.249 -0.5847 -0.6772  0.7277
 8295SOL    HW130205   6.736   3.842   9.273 -0.8328 -1.0193  1.7821
 8295SOL    HW230206   6.644   3.842   9.153  0.5358 -0.7663  0.7128
 8296SOL     OW30207   9.933   3.355   4.591  0.5805  0.3038 -0.4495
 8296SOL    HW130208   9.983   3.387   4.517 -0.4217  0.2164 -1.1802
 8296SOL    HW230209   9.957   3.263   4.598 -0.2850 -0.0164 -1.4888
 8297SOL     OW30210   6.478   3.004   9.962  0.2138  0.0969 -0.3276
 8297SOL    HW130211   6.546   2.986   9.898  1.5052  0.7346  0.8302
 8297SOL    HW230212   6.396   2.982   9.917  1.0775  0.5764 -2.1815
 8298SOL     OW30213  11.668   1.762   7.706 -0.1940  0.7444  0.0818
 8298SOL    HW130214  11.734   1.793   7.644 -1.4635  1.4929 -0.9365
 8298SOL    HW230215  11.654   1.670   7.682  2.0250 -0.1039  1.7311
 8299SOL     OW30216   6.564   6.728   6.039 -0.2459  0.4428  0.1791
 8299SOL    HW130217   6.511   6.808   6.044  1.2008  1.4110  0.8605
 8299SOL    HW230218   6.501   6.659   6.018 -1.6827  1.6128  0.4216
 8300SOL     OW30219   1.578   4.482  10.197 -0.6905  0.1474 -0.3410
 8300SOL    HW130220   1.635   4.405  10.189 -1.2925 -0.1970 -1.4968
 8300SOL    HW230221   1.639   4.556  10.199 -0.0565 -0.3635  1.5924
 8301SOL     OW30222   9.288   7.239   4.348  0.5826  0.7294 -0.0507
 8301SOL    HW130223   9.246   7.210   4.267  0.6213 -0.9994  0.5140
 8301SOL    HW230224   9.376   7.203   4.343  0.3458 -0.0571  1.0860
 8302SOL     OW30225  10.541   7.300   2.811  0.0975 -0.1282  0.6994
 8302SOL    HW130226  10.457   7.278   2.772  0.3748  0.5025 -0.2806
 8302SOL    HW230227  10.603   7.238   2.773 -0.0130 -1.0177  1.9101
 8303SOL     OW30228   9.060   9.918   9.024 -0.1500 -0.2892 -0.1617
 8303SOL    HW130229   9.032  10.003   8.989 -1.1351 -1.0663 -1.3237
 8303SOL    HW230230   9.141   9.898   8.976 -0.4621 -0.4584 -0.6285
 8304SOL     OW30231   7.891  11.270   4.367 -0.3777 -0.4201 -0.2357
 8304SOL    HW130232   7.918  11.270   4.275 -2.0922 -0.0010 -0.7784
 8304SOL    HW230233   7.802  11.235   4.366 -0.2296 -0.9538  1.3534
 8305SOL     OW30234   2.552  11.321   3.860 -0.2111  0.5527 -0.0285
 8305SOL    HW130235   2.553  11.410   3.825 -1.0247  0.8391  0.6414
 8305SOL    HW230236   2.639  11.310   3.899  0.0960  0.8414 -0.6231
 8306SOL     OW30237   0.322  11.321   0.651  0.1421  0.1645  0.3089
 8306SOL    HW130238   0.292  11.235   0.681 -0.9620  0.4989  0.2141
 8306SOL    HW230239   0.270  11.338   0.573  0.7127  0.7097  0.0394
 8307SOL     OW30240   6.695   7.072   4.590 -0.3051 -0.1254  0.1566
 8307SOL    HW130241   6.774   7.120   4.618 -0.7537  0.9000 -0.2853
 8307SOL    HW230242   6.678   7.011   4.661  1.3086 -0.8933 -0.0580
 8308SOL     OW30243   8.334   0.856   0.711  0.3364  0.4475  0.0236
 8308SOL    HW130244   8.240   0.875   0.720  0.2486 -0.0351  0.1488
 8308SOL    HW230245   8.347   0.774   0.760  1.1581  1.4410  1.5795
 8309SOL     OW30246   2.063  10.741   8.229 -0.0812  0.1471  0.3299
 8309SOL    HW130247   2.093  10.826   8.198 -1.8512  1.6120  2.3530
 8309SOL    HW230248   2.008  10.708   8.158  1.4727  0.1238 -0.9267
 8310SOL     OW30249   6.061   7.722   0.608  0.6611  0.0631  0.5261
 8310SOL    HW130250   6.154   7.710   0.626  1.7602  2.1717 -2.8410
 8310SOL    HW230251   6.044   7.666   0.532 -1.2740 -1.4117  1.9567
 8311SOL     OW30252  11.390   5.205   2.260  0.3673 -0.0612  0.1251
 8311SOL    HW130253  11.457   5.144   2.290 -0.7935 -0.6640  1.6595
 8311SOL    HW230254  11.406   5.286   2.310  1.6005  0.7782 -1.5434
 8312SOL     OW30255   6.474  10.610   0.332  0.2078  0.6716 -0.3061
 8312SOL    HW130256   6.407  10.677   0.344 -1.3792 -1.0223  0.9892
 8312SOL    HW230257   6.545  10.636   0.390 -0.1179  1.5458 -0.2858
 8313SOL     OW30258   1.439   3.946   8.601 -0.8356  0.2270  0.3472
 8313SOL    HW130259   1.385   3.957   8.523  1.6230 -1.1546 -1.6987
 8313SOL    HW230260   1.417   3.859   8.634 -0.9458  0.2893  0.4402
 8314SOL     OW30261   4.952   4.537   1.103 -0.0636 -0.1051 -0.6558
 8314SOL    HW130262   5.040   4.549   1.139 -0.0806 -0.9181 -0.3385
 8314SOL    HW230263   4.930   4.623   1.067  0.3072  0.4810  0.4754
 8315SOL     OW30264   4.660   2.635  10.121  0.0387  0.1097 -0.4138
 8315SOL    HW130265   4.728   2.637  10.188  0.9366 -1.6078 -1.1976
 8315SOL    HW230266   4.601   2.707  10.143  0.1619 -0.5491  2.3529
 8316SOL     OW30267  11.042   3.631   2.783  0.2832 -0.3475 -0.0663
 8316SOL    HW130268  11.070   3.689   2.712 -1.9553  1.3049  0.2865
 8316SOL    HW230269  11.067   3.678   2.863  0.3793 -0.9054  0.2353
 8317SOL     OW30270   2.863   0.189   8.636 -0.2817  0.0606  0.5894
 8317SOL    HW130271   2.792   0.217   8.579  1.5595  0.6995 -1.5262
 8317SOL    HW230272   2.869   0.258   8.702  0.9657  2.2388 -1.6364
 8318SOL     OW30273   5.689   1.239   3.814 -0.3344  0.7075 -0.4689
 8318SOL    HW130274   5.622   1.304   3.793 -1.4356 -0.7466 -1.6911
 8318SOL    HW230275   5.656   1.193   3.891 -1.0016 -0.2935 -1.3232
 8319SOL     OW30276   6.312   0.377  10.236 -0.1710  0.0405  0.1407
 8319SOL    HW130277   6.394   0.421  10.256  0.4810 -1.3003  0.4913
 8319SOL    HW230278   6.299   0.392  10.142  0.5337  0.1608  0.0587
 8320SOL     OW30279   1.907   4.534  10.729  0.1929 -0.2842  0.1750
 8320SOL    HW130280   1.954   4.453  10.709 -1.4033 -1.1371 -0.2905
 8320SOL    HW230281   1.871   4.562  10.645  2.6030  2.2244 -0.1496
 8321SOL     OW30282   1.836   0.404   4.744 -0.3749 -0.0517  0.4884
 8321SOL    HW130283   1.800   0.359   4.821 -2.0144 -1.3596 -0.9731
 8321SOL    HW230284   1.850   0.335   4.680  0.7486  1.0475 -0.5127
 8322SOL     OW30285   9.102  11.312   8.408 -0.2361  0.2950 -0.1521
 8322SOL    HW130286   9.193  11.311   8.440 -0.3314 -0.6198  0.1373
 8322SOL    HW230287   9.067  11.396   8.439  0.3446  0.4108  0.2177
 8323SOL     OW30288   7.793   6.150   4.799 -0.3964  0.2542 -0.4476
 8323SOL    HW130289   7.774   6.125   4.889  1.0259 -0.2067 -0.2506
 8323SOL    HW230290   7.819   6.242   4.805 -0.0843  0.1622 -0.3425
 8324SOL     OW30291   6.435   1.878   0.599 -0.0228  0.4976  0.1994
 8324SOL    HW130292   6.388   1.812   0.549 -1.1126  1.5044 -0.1305
 8324SOL    HW230293   6.520   1.838   0.618 -0.2346 -0.5429 -0.9843
 8325SOL     OW30294   8.592   6.564   8.644  0.2041  0.5854  0.7853
 8325SOL    HW130295   8.555   6.612   8.718  0.2605 -0.0605  1.2351
 8325SOL    HW230296   8.552   6.605   8.567 -2.9849 -1.2902  1.2847
 8326SOL     OW30297   0.799   5.043   6.223 -0.4606 -0.1843  0.3553
 8326SOL    HW130298   0.725   4.994   6.260  0.2590 -2.3567 -0.8777
 8326SOL    HW230299   0.806   5.010   6.133  1.8118  0.2175  0.3393
 8327SOL     OW30300   4.985   7.220  10.198 -0.6891 -0.2814 -0.2957
 8327SOL    HW130301   4.959   7.296  10.147 -0.1580 -0.0891 -0.2787
 8327SOL    HW230302   5.037   7.167  10.138  2.6471  1.4268  0.8333
 8328SOL     OW30303   7.416   0.004  10.538  0.0997 -0.4889 -0.1968
 8328SOL    HW130304   7.335  -0.011  10.588 -0.7995 -0.1371 -1.4977
 8328SOL    HW230305   7.447  -0.084  10.517 -0.0274 -0.6273  0.1928
 8329SOL     OW30306   0.149   1.001   3.869 -0.1808 -0.5457  0.6274
 8329SOL    HW130307   0.219   1.044   3.918 -0.3584 -0.8386  1.1520
 8329SOL    HW230308   0.175   1.009   3.777  1.3436 -2.0049  0.8730
 8330SOL     OW30309   6.976   0.445   5.882  0.5798 -0.0154  0.5301
 8330SOL    HW130310   6.893   0.466   5.838  0.1240  2.0250  2.1924
 8330SOL    HW230311   7.041   0.449   5.811 -0.8886 -4.2716 -1.3583
 8331SOL     OW30312   9.133  11.497   8.203 -0.3943  0.6842 -0.2601
 8331SOL    HW130313   9.120  11.466   8.113  0.8383 -2.1236  0.4119
 8331SOL    HW230314   9.110  11.422   8.258  2.6721  0.8896  1.5465
 8332SOL     OW30315   4.664   1.937   2.808  0.8064 -0.4172  0.0063
 8332SOL    HW130316   4.637   2.016   2.761 -0.3434 -0.7289  0.1162
 8332SOL    HW230317   4.669   1.965   2.899  0.6426 -0.3989  0.0113
 8333SOL     OW30318   9.428   1.002   4.921 -0.4909  0.0542  0.0001
 8333SOL    HW130319   9.475   1.064   4.977  2.8176 -1.6607 -0.5996
 8333SOL    HW230320   9.403   1.053   4.844  1.5138  0.8855 -0.1702
 8334SOL     OW30321   6.741   9.406   3.914  0.3221  0.6132  0.4054
 8334SOL    HW130322   6.817   9.418   3.857  0.6531 -1.5047  0.3341
 8334SOL    HW230323   6.677   9.470   3.883  0.3517 -0.6892 -2.6188
 8335SOL     OW30324   2.516  11.417   8.352 -0.1641  0.5057  0.2367
 8335SOL    HW130325   2.479  11.447   8.269 -2.6371  0.5260  1.2774
 8335SOL    HW230326   2.561  11.493   8.388 -1.6154  1.3905  0.2519
 8336SOL     OW30327  10.586  10.512   6.441  0.0820 -0.2216 -0.8368
 8336SOL    HW130328  10.528  10.573   6.395 -0.7432 -0.0079  0.4177
 8336SOL    HW230329  10.530  10.438   6.464  0.7682 -0.8680 -1.2233
 8337SOL     OW30330   5.923   2.630   3.272  0.7074  0.0592  0.2872
 8337SOL    HW130331   5.941   2.722   3.251  1.9503 -0.5462 -1.5541
 8337SOL    HW230332   5.998   2.602   3.325  0.9944 -0.2430 -0.2757
 8338SOL     OW30333  11.242   5.407   1.114  0.4542 -0.8708  0.5940
 8338SOL    HW130334  11.324   5.380   1.154 -0.6937 -2.5528  1.9608
 8338SOL    HW230335  11.177   5.347   1.150 -1.1842 -0.4034 -1.4255
 8339SOL     OW30336   5.176   4.291   8.465 -0.6990  0.0708 -0.5245
 8339SOL    HW130337   5.084   4.309   8.483 -0.5398  0.5756 -0.1938
 8339SOL    HW230338   5.174   4.222   8.398 -1.3066 -1.3400  0.8748
 8340SOL     OW30339   5.578   4.576   0.694  0.0815  0.2667 -0.4763
 8340SOL    HW130340   5.563   4.662   0.732 -0.9077 -1.1635  2.6312
 8340SOL    HW230341   5.662   4.548   0.731  0.1541 -0.3477 -1.0818
 8341SOL     OW30342   1.730   8.661   9.506  0.0288  0.1085 -0.1213
 8341SOL    HW130343   1.637   8.677   9.520 -0.2338 -1.3421 -0.0731
 8341SOL    HW230344   1.744   8.571   9.535  1.7038  0.6850  1.0452
 8342SOL     OW30345  10.533   9.701   3.779 -0.7365 -0.0135 -0.1582
 8342SOL    HW130346  10.582   9.776   3.746  0.8751 -0.5862  0.7961
 8342SOL    HW230347  10.577   9.679   3.861 -2.1191 -1.0776  0.3282
 8343SOL     OW30348   9.737   3.201   4.878 -0.1336  0.2835  0.1586
 8343SOL    HW130349   9.681   3.135   4.918  0.8909 -0.6075  0.1454
 8343SOL    HW230350   9.801   3.223   4.946 -0.3461  1.1342  0.1002
 8344SOL     OW30351  10.752   4.774   5.921 -0.0012  0.3420  0.6776
 8344SOL    HW130352  10.775   4.740   6.008 -0.1444 -0.3873  0.4349
 8344SOL    HW230353  10.788   4.863   5.920  0.5109  0.1500  1.2705
 8345SOL     OW30354  10.865   8.033   7.402 -0.0161 -0.3412 -0.0777
 8345SOL    HW130355  10.940   7.973   7.411 -0.3802 -0.8055 -0.0705
 8345SOL    HW230356  10.803   7.984   7.347 -0.4016 -0.0453  0.0962
 8346SOL     OW30357   6.882   0.796   5.709  0.7047 -0.0839  0.0811
 8346SOL    HW130358   6.854   0.705   5.709  0.0453  0.1133 -0.2540
 8346SOL    HW230359   6.807   0.844   5.745  0.1417  0.5771 -1.8781
 8347SOL     OW30360   9.940   1.071   7.987 -0.0246  0.5746  0.1279
 8347SOL    HW130361   9.969   1.144   7.932  0.2975  0.5655  0.2816
 8347SOL    HW230362   9.987   1.083   8.070  0.0336  0.1905  0.1538
 8348SOL     OW30363   5.855   2.290   6.248  0.0049  0.7694  0.3246
 8348SOL    HW130364   5.770   2.312   6.286 -0.1866  2.4405 -0.9622
 8348SOL    HW230365   5.844   2.303   6.154  1.1996 -0.7412 -0.0721
 8349SOL     OW30366   9.270   0.777   5.595  0.2682 -0.3761  0.0353
 8349SOL    HW130367   9.222   0.694   5.602 -0.3325  0.0185  0.8592
 8349SOL    HW230368   9.303   0.793   5.684 -0.3011  0.6386  0.0943
 8350SOL     OW30369  10.996   0.544   8.092  0.4148  0.2385 -0.1366
 8350SOL    HW130370  10.941   0.605   8.045 -0.1222  0.0012  0.1720
 8350SOL    HW230371  10.982   0.565   8.185 -1.0728 -1.4037  0.0710
 8351SOL     OW30372   0.902   0.316   3.774  0.3824  0.0774  0.4162
 8351SOL    HW130373   0.991   0.285   3.794  0.8967  2.4597  2.2623
 8351SOL    HW230374   0.914   0.378   3.701 -0.0396 -0.7875 -0.4154
 8352SOL     OW30375   2.116   2.985   0.028  0.0475 -0.7889  0.2849
 8352SOL    HW130376   2.034   2.966  -0.017 -1.2070  0.1473  2.0303
 8352SOL    HW230377   2.125   3.080   0.022  1.4226 -0.9507 -0.5255
 8353SOL     OW30378   8.701   5.857   3.244  0.1254 -0.5057 -0.3856
 8353SOL    HW130379   8.617   5.832   3.283  1.4573  0.0993  3.3160
 8353SOL    HW230380   8.762   5.788   3.271  1.1441 -0.2175 -1.8102
 8354SOL     OW30381   3.879   5.819   1.894 -0.1073 -0.3693 -0.1204
 8354SOL    HW130382   3.919   5.769   1.965  0.7839 -0.3808 -0.6238
 8354SOL    HW230383   3.837   5.893   1.938 -1.0551 -1.2867  0.5834
 8355SOL     OW30384   7.875   1.812  11.151  0.0582  0.6685 -0.1243
 8355SOL    HW130385   7.873   1.823  11.056  1.7098 -0.5506 -0.3504
 8355SOL    HW230386   7.901   1.720  11.163 -0.9133  0.5867  1.5112
 8356SOL     OW30387   0.811   5.654   3.833  0.0684 -0.0199  0.1405
 8356SOL    HW130388   0.753   5.647   3.757  2.2576  0.5213 -1.6842
 8356SOL    HW230389   0.752   5.668   3.907 -2.1537 -0.4456 -1.4564
 8357SOL     OW30390  10.414   7.614   2.000 -0.3371 -0.1933  0.4318
 8357SOL    HW130391  10.323   7.599   1.973 -0.5372  0.5003  0.7010
 8357SOL    HW230392  10.462   7.540   1.964 -0.6989  0.3705 -1.2862
 8358SOL     OW30393   3.909   2.003   7.511 -0.1036 -0.2300 -0.5645
 8358SOL    HW130394   3.829   1.967   7.548  0.0329  0.7994  0.7975
 8358SOL    HW230395   3.926   1.949   7.434 -0.9163 -1.8544  0.3350
 8359SOL     OW30396   5.137   5.541   9.376 -0.0744  0.8935  0.5029
 8359SOL    HW130397   5.143   5.633   9.400 -1.4344  1.0552  0.3415
 8359SOL    HW230398   5.205   5.498   9.428 -1.1709  1.6093  2.6778
 8360SOL     OW30399   5.421   3.861   3.676 -0.1563  0.0673  0.2427
 8360SOL    HW130400   5.471   3.805   3.734  0.5792 -0.3444 -0.7566
 8360SOL    HW230401   5.476   3.939   3.664  0.1610 -0.2792 -0.6623
 8361SOL     OW30402   5.141   8.008   9.235 -0.2564 -0.2195 -0.4108
 8361SOL    HW130403   5.178   8.095   9.246 -1.4203  0.1771  0.6022
 8361SOL    HW230404   5.192   7.969   9.163  1.0680  0.8296 -0.0803
 8362SOL     OW30405  10.592   0.515   2.997  0.1551 -0.7244 -0.1315
 8362SOL    HW130406  10.586   0.585   3.063 -2.0692 -2.1785  1.3797
 8362SOL    HW230407  10.637   0.555   2.923  0.5918  1.7428  1.3492
 8363SOL     OW30408   7.710   7.120   6.008 -0.4933 -0.4492  0.0968
 8363SOL    HW130409   7.615   7.126   6.007 -0.4736  4.4191  0.7894
 8363SOL    HW230410   7.738   7.167   5.929  1.2799  0.0246  0.9501
 8364SOL     OW30411   0.282   5.304   3.818  0.4345 -0.0266  0.0333
 8364SOL    HW130412   0.307   5.218   3.784  1.6681  0.3605 -0.0782
 8364SOL    HW230413   0.353   5.329   3.877  2.0457  2.5064 -2.7029
 8365SOL     OW30414  10.933  11.744   5.565  0.3583  0.4263 -0.4295
 8365SOL    HW130415  11.025  11.720   5.559  0.3450  0.2079  0.1963
 8365SOL    HW230416  10.906  11.756   5.474  1.3859  2.0123 -0.5526
 8366SOL     OW30417   1.450   2.896   1.912  0.0724 -0.4878  0.2256
 8366SOL    HW130418   1.432   2.988   1.891  0.6618 -0.5756 -0.7456
 8366SOL    HW230419   1.432   2.849   1.831  0.7220 -1.0990  0.4201
 8367SOL     OW30420   6.266   4.531   5.666  0.5994  0.0432 -0.0543
 8367SOL    HW130421   6.352   4.512   5.704  0.8090 -0.5290 -0.7893
 8367SOL    HW230422   6.210   4.549   5.741  1.2305 -0.1355  0.4681
 8368SOL     OW30423   9.222   8.760   7.789  0.7638 -0.3412 -0.4082
 8368SOL    HW130424   9.135   8.744   7.751  0.7803  1.6809 -1.4391
 8368SOL    HW230425   9.225   8.704   7.866 -1.7771  0.0908  0.1016
 8369SOL     OW30426  10.557   6.922   0.079 -0.1864  0.5892  0.5756
 8369SOL    HW130427  10.596   6.916   0.166  0.0274 -2.3996  0.3580
 8369SOL    HW230428  10.528   6.833   0.058 -1.1541  1.3936 -2.0129
 8370SOL     OW30429   3.285   4.775   7.242 -0.2207 -0.3802  0.0707
 8370SOL    HW130430   3.232   4.728   7.306 -0.6572  0.7183  0.5435
 8370SOL    HW230431   3.262   4.736   7.158 -0.2561 -1.2814  0.4837
 8371SOL     OW30432   6.920   7.044   2.693 -0.5863 -0.4035 -0.1811
 8371SOL    HW130433   6.872   7.120   2.725 -0.7219 -0.9173  0.8601
 8371SOL    HW230434   6.855   6.993   2.646 -0.9484 -0.8135  0.7427
 8372SOL     OW30435   7.106   8.778  10.671 -0.3953 -0.3524 -0.0743
 8372SOL    HW130436   7.067   8.712  10.728 -0.3874  0.5374  1.0131
 8372SOL    HW230437   7.079   8.753  10.583 -1.1283 -1.2997  0.3963
 8373SOL     OW30438   7.318   7.235   0.817  0.1837 -0.3070  0.0563
 8373SOL    HW130439   7.317   7.141   0.835  1.3813 -0.1386  1.1890
 8373SOL    HW230440   7.295   7.242   0.724 -1.9853 -1.5424  0.4331
 8374SOL     OW30441   0.989   9.403   5.590 -0.5018 -0.1446  0.0803
 8374SOL    HW130442   1.039   9.386   5.510 -0.0190  2.0396 -0.1323
 8374SOL    HW230443   0.901   9.423   5.559 -0.1768  1.2664  0.0211
 8375SOL     OW30444   9.009   2.525   6.723 -0.8178 -0.8027 -0.2548
 8375SOL    HW130445   8.976   2.495   6.638 -0.2254  0.4198 -0.9608
 8375SOL    HW230446   9.079   2.464   6.745 -0.5855 -0.7976 -0.9498
 8376SOL     OW30447   1.874   1.940   2.461 -0.1647  0.4914 -0.2973
 8376SOL    HW130448   1.907   1.952   2.550  0.2404 -0.9446 -0.2223
 8376SOL    HW230449   1.917   1.860   2.431 -2.8849 -0.9989 -0.5367
 8377SOL     OW30450   1.429   9.425   0.770  0.1009 -0.3304  0.6560
 8377SOL    HW130451   1.423   9.371   0.849  0.4911  0.8271  1.4986
 8377SOL    HW230452   1.442   9.362   0.699  0.8928 -1.3177  1.6486
 8378SOL     OW30453   4.402  10.428   7.647 -0.2056 -0.1534  0.0174
 8378SOL    HW130454   4.395  10.468   7.561 -0.3865  0.0778  0.1386
 8378SOL    HW230455   4.476  10.472   7.688 -1.3642  1.2049  0.7502
 8379SOL     OW30456   9.181  10.054   0.253  0.0358 -0.3171 -0.4667
 8379SOL    HW130457   9.232  10.088   0.179 -1.1056 -0.1653 -1.2202
 8379SOL    HW230458   9.229   9.976   0.281  0.4941 -0.3874 -1.3816
 8380SOL     OW30459   7.408   0.938   8.500 -0.2516 -0.0885 -0.4594
 8380SOL    HW130460   7.369   0.854   8.524 -1.3805  0.4165 -0.4535
 8380SOL    HW230461   7.395   0.992   8.578  0.2975  0.1466 -0.5323
 8381SOL     OW30462   8.763   0.258   0.219 -0.7027 -0.5864  0.2316
 8381SOL    HW130463   8.740   0.222   0.304 -0.7279 -0.2084  0.3886
 8381SOL    HW230464   8.814   0.337   0.239 -0.1788 -0.8281 -0.1037
 8382SOL     OW30465  11.452  10.577   6.659 -0.1594  0.0936  0.3453
 8382SOL    HW130466  11.360  10.584   6.685  0.0160 -0.2227  1.0743
 8382SOL    HW230467  11.456  10.497   6.608 -0.5378  0.8029 -0.8326
 8383SOL     OW30468   0.819   4.860   4.025  0.0397 -0.2303 -0.6965
 8383SOL    HW130469   0.809   4.821   3.938 -0.5048 -1.4781 -0.1029
 8383SOL    HW230470   0.900   4.911   4.019  0.4953 -1.0181 -1.6761
 8384SOL     OW30471   9.008   3.171   2.842 -0.7617  0.1801  0.1172
 8384SOL    HW130472   9.043   3.083   2.836 -0.7175  0.2289 -0.4192
 8384SOL    HW230473   8.913   3.160   2.838 -0.7717  0.1275  0.4791
 8385SOL     OW30474   4.287   8.667   4.775  0.2319 -0.3821  0.0796
 8385SOL    HW130475   4.270   8.579   4.809  0.4577 -0.5519 -0.2337
 8385SOL    HW230476   4.257   8.663   4.684  2.2434 -0.8178 -0.6161
 8386SOL     OW30477   8.121   0.120   3.105 -0.0116  0.1507 -0.1911
 8386SOL    HW130478   8.076   0.189   3.155  1.4657 -0.8416  2.7759
 8386SOL    HW230479   8.213   0.132   3.126  0.2686 -2.8826  0.7522
 8387SOL     OW30480   0.007   4.094   7.954  0.2435  0.1893 -0.0085
 8387SOL    HW130481  -0.075   4.138   7.936  0.5117  1.0964  0.9553
 8387SOL    HW230482  -0.017   4.018   8.007 -0.0974 -0.3105 -0.8415
 8388SOL     OW30483   5.317  11.063   1.226  0.6567 -0.1904  0.6344
 8388SOL    HW130484   5.249  10.996   1.224  0.9220 -0.4577  0.0206
 8388SOL    HW230485   5.399  11.013   1.228  0.8337  0.1259  2.1443
 8389SOL     OW30486   6.130   9.697   8.400  0.7482  0.0578 -0.3996
 8389SOL    HW130487   6.190   9.644   8.454 -0.0959  1.9399  2.6242
 8389SOL    HW230488   6.158   9.787   8.415 -0.8920  0.7745 -1.4395
 8390SOL     OW30489   8.407   0.143  11.095  0.0890  0.3817  0.7446
 8390SOL    HW130490   8.401   0.131  11.000 -0.9136  2.3468  0.5025
 8390SOL    HW230491   8.435   0.234  11.106 -0.5733  0.4228  2.3306
 8391SOL     OW30492   5.510   0.039   0.932 -0.6805  0.4777  0.4479
 8391SOL    HW130493   5.466  -0.040   0.962  1.4570 -0.7457  0.5770
 8391SOL    HW230494   5.492   0.104   1.000 -1.4929 -0.2483  0.9450
 8392SOL     OW30495   6.505   8.283  11.559  0.0254 -0.2465 -0.1323
 8392SOL    HW130496   6.456   8.231  11.623 -1.2551  1.5031  0.3714
 8392SOL    HW230497   6.454   8.363  11.549  1.8143  0.8309 -1.0658
 8393SOL     OW30498   7.581   1.493   6.893 -0.2274  0.7903 -0.2575
 8393SOL    HW130499   7.499   1.445   6.907  0.6152 -0.0406  2.7058
 8393SOL    HW230500   7.604   1.476   6.802 -2.1712 -0.8620 -0.5171
 8394SOL     OW30501   1.867   1.887   5.719  0.1559 -0.0180  0.1257
 8394SOL    HW130502   1.780   1.918   5.744  0.2877 -0.2004  0.8289
 8394SOL    HW230503   1.899   1.841   5.797  2.0441  2.4277  0.9358
 8395SOL     OW30504   4.095   7.292   2.504 -0.2928  0.0794 -0.3811
 8395SOL    HW130505   4.006   7.290   2.468  0.1273 -1.6977 -1.4717
 8395SOL    HW230506   4.091   7.355   2.575 -1.7297  2.0666 -2.1171
 8396SOL     OW30507   7.041   3.202   6.659  0.2922 -0.0157 -0.0780
 8396SOL    HW130508   7.024   3.108   6.657 -0.1537  0.0641 -0.0888
 8396SOL    HW230509   7.131   3.211   6.627  0.0798 -0.3745 -0.7816
 8397SOL     OW30510   5.309   7.082   7.303 -0.2310  0.1433 -0.0829
 8397SOL    HW130511   5.272   7.046   7.223 -0.9389 -0.7124  0.6023
 8397SOL    HW230512   5.400   7.053   7.303  0.8387  3.0576 -2.2538
 8398SOL     OW30513   4.757   2.814   3.542  0.5163  0.0315 -0.1959
 8398SOL    HW130514   4.685   2.876   3.543  0.3893 -0.1307  0.5358
 8398SOL    HW230515   4.775   2.801   3.448 -2.3609 -2.2268 -0.5490
 8399SOL     OW30516   6.495   4.691  11.764 -0.7082 -0.3443 -0.3234
 8399SOL    HW130517   6.407   4.658  11.742 -0.1484 -1.0390 -1.6631
 8399SOL    HW230518   6.519   4.746  11.689  0.2374 -0.6528 -0.2594
 8400SOL     OW30519   6.054   6.033   6.828  0.2790  0.0703  0.1007
 8400SOL    HW130520   6.022   6.040   6.738 -0.5686 -1.2260  0.2735
 8400SOL    HW230521   5.984   6.070   6.882 -0.2637 -1.2621  0.3622
 8401SOL     OW30522   8.896   6.619   5.994 -0.6154 -0.8669 -0.3584
 8401SOL    HW130523   8.881   6.627   6.088 -0.0772 -0.8126 -0.2714
 8401SOL    HW230524   8.857   6.535   5.970 -1.9314 -0.2732 -0.3425
 8402SOL     OW30525   4.872   4.171   5.297 -0.2141 -0.5400 -0.2533
 8402SOL    HW130526   4.871   4.227   5.219 -0.6964  0.2048  0.2650
 8402SOL    HW230527   4.786   4.184   5.336  0.1790 -0.5592  0.6379
 8403SOL     OW30528   8.336  11.135   5.986  0.6232  0.4555  0.4807
 8403SOL    HW130529   8.312  11.126   6.078 -0.4710  0.0202  0.1659
 8403SOL    HW230530   8.273  11.197   5.950  0.9763  0.5427 -0.0034
 8404SOL     OW30531   0.150  10.682  10.687 -0.2060 -0.3912 -0.0543
 8404SOL    HW130532   0.164  10.754  10.625 -2.5915  0.1990  0.0097
 8404SOL    HW230533   0.151  10.603  10.633 -1.5709  0.0609 -0.7855
 8405SOL     OW30534  10.002  10.980   1.357 -0.6207  0.3446 -0.1607
 8405SOL    HW130535  10.054  10.901   1.372 -0.2442  0.9037  1.7664
 8405SOL    HW230536   9.931  10.952   1.299 -0.1112 -1.2366 -0.0575
 8406SOL     OW30537   8.810   9.781   4.363  0.0670  0.3388  0.0158
 8406SOL    HW130538   8.760   9.740   4.434  0.1399  2.3802  1.3513
 8406SOL    HW230539   8.898   9.793   4.401 -0.1604  2.3408 -0.0181
 8407SOL     OW30540   5.434   5.298   8.621  0.2778 -0.1249 -0.7692
 8407SOL    HW130541   5.345   5.291   8.586 -0.0958  1.7881 -0.3441
 8407SOL    HW230542   5.450   5.214   8.664 -2.2427  0.2718  1.1939
 8408SOL     OW30543   4.866   3.635  10.266 -0.2313  0.1168  0.3392
 8408SOL    HW130544   4.952   3.676  10.262  0.0826 -0.3688  1.6555
 8408SOL    HW230545   4.849   3.605  10.176  0.8141  0.4966  0.0028
 8409SOL     OW30546  11.564   9.889  11.341  0.0743  0.5079 -0.0237
 8409SOL    HW130547  11.637   9.847  11.294 -1.2394  0.7397 -2.4482
 8409SOL    HW230548  11.501   9.819  11.354 -0.3097  0.8159 -0.2026
 8410SOL     OW30549   9.395   7.287  11.703  0.0671  0.1120 -0.5340
 8410SOL    HW130550   9.489   7.307  11.708 -0.0047  0.5077 -0.7152
 8410SOL    HW230551   9.375   7.246  11.787  0.0996  1.3480  0.1001
 8411SOL     OW30552  11.387   9.662  11.316  0.1533 -0.2821 -0.6970
 8411SOL    HW130553  11.334   9.690  11.390  1.1834 -0.5547  0.1609
 8411SOL    HW230554  11.350   9.578  11.289 -2.2910  1.2642 -2.6213
 8412SOL     OW30555  10.828   9.948  10.015 -0.0401  0.1595 -0.2304
 8412SOL    HW130556  10.902   9.930   9.957 -1.6445 -0.0156 -2.3570
 8412SOL    HW230557  10.784   9.863  10.024 -0.6264  0.4883  0.0595
 8413SOL     OW30558   2.233   5.726   1.525 -0.5645  0.3829  0.2982
 8413SOL    HW130559   2.218   5.745   1.618  0.6839  0.9656  0.3938
 8413SOL    HW230560   2.229   5.811   1.482 -0.0566  0.2436 -0.0261
 8414SOL     OW30561   7.587  11.028   0.169 -0.4637  0.7903 -0.0271
 8414SOL    HW130562   7.632  10.949   0.143 -0.7048  0.9011 -0.8120
 8414SOL    HW230563   7.616  11.045   0.258 -0.1073  0.0441 -0.0009
 8415SOL     OW30564   6.553  11.132   4.946 -0.0611 -0.9052 -0.0746
 8415SOL    HW130565   6.532  11.043   4.974  0.3016 -1.8758 -2.6666
 8415SOL    HW230566   6.495  11.150   4.872 -0.4930  1.2514  0.6918
 8416SOL     OW30567   8.717   6.923   4.489 -0.1059 -0.0356  0.2661
 8416SOL    HW130568   8.671   7.007   4.496  0.5144  0.3113  0.2667
 8416SOL    HW230569   8.674   6.867   4.554 -1.4448 -0.1665 -0.6953
 8417SOL     OW30570   1.652  10.870   5.349  0.0579  0.3516 -0.0334
 8417SOL    HW130571   1.639  10.790   5.401 -2.6105  1.7035  1.5718
 8417SOL    HW230572   1.590  10.862   5.277 -0.0154  0.8679 -0.0302
 8418SOL     OW30573   2.046   3.219   7.518  0.1029 -0.9907  0.4230
 8418SOL    HW130574   2.080   3.208   7.429 -0.2642  0.2123  0.1125
 8418SOL    HW230575   2.115   3.264   7.565 -0.2280 -0.3993  0.3587
 8419SOL     OW30576  10.760   8.363   4.694  0.4801 -0.3383  0.0268
 8419SOL    HW130577  10.814   8.442   4.694 -0.4701  0.3294  0.2214
 8419SOL    HW230578  10.823   8.291   4.696  1.3794  0.4126  2.0471
 8420SOL     OW30579   7.926   8.109   9.468 -0.8159 -0.4002 -0.1448
 8420SOL    HW130580   7.835   8.140   9.468  0.0902  2.5934  0.7407
 8420SOL    HW230581   7.935   8.060   9.549 -1.5301 -0.2900  0.0092
 8421SOL     OW30582   2.807   5.237   7.205  0.0851 -0.0906 -0.0367
 8421SOL    HW130583   2.757   5.164   7.169 -0.4977  0.6570 -0.7931
 8421SOL    HW230584   2.785   5.238   7.298 -0.9240 -0.0762 -0.2693
 8422SOL     OW30585   0.548   0.445   9.969  0.1855 -0.5579 -0.6347
 8422SOL    HW130586   0.469   0.481  10.010 -0.4420 -1.7456 -0.7615
 8422SOL    HW230587   0.516   0.402   9.890  1.1895  0.3579 -1.5732
 8423SOL     OW30588   4.141   8.876   3.742  0.5998  1.0180 -0.3427
 8423SOL    HW130589   4.108   8.966   3.749 -0.1082  0.9170 -1.8117
 8423SOL    HW230590   4.084   8.825   3.799  1.5348  1.6039  1.1558
 8424SOL     OW30591   2.481   7.140   1.328 -0.2348 -0.2841 -0.0834
 8424SOL    HW130592   2.415   7.071   1.336 -0.1467 -0.1508  2.6842
 8424SOL    HW230593   2.554   7.110   1.382  0.9567  0.7558 -1.0389
 8425SOL     OW30594   0.776  10.992   0.745 -0.1098  0.2198 -0.6758
 8425SOL    HW130595   0.710  10.956   0.803 -0.4644  0.5022 -0.9003
 8425SOL    HW230596   0.796  10.921   0.684 -0.3051  0.1767 -0.6912
 8426SOL     OW30597   5.630   5.322   0.536  0.5493 -1.0963  0.0361
 8426SOL    HW130598   5.558   5.264   0.562 -2.5360  1.7803 -1.3571
 8426SOL    HW230599   5.658   5.288   0.451  0.3190 -1.8341  0.2463
 8427SOL     OW30600  11.707   6.073   5.384  0.0411 -0.2992 -0.2958
 8427SOL    HW130601  11.662   6.110   5.307 -1.2557 -0.1958  0.4816
 8427SOL    HW230602  11.639   6.021   5.427  0.9622 -0.9463  0.3953
 8428SOL     OW30603   3.872   5.582   4.517 -0.4167  0.0714  0.7695
 8428SOL    HW130604   3.947   5.640   4.527 -1.2666  1.2637  0.4256
 8428SOL    HW230605   3.886   5.539   4.433 -0.8669  1.4490 -0.0346
 8429SOL     OW30606  10.018   6.498   1.968  0.0543  0.2439  0.0122
 8429SOL    HW130607   9.967   6.578   1.967 -1.0000 -0.3878  1.0781
 8429SOL    HW230608  10.002   6.460   2.054 -0.2289 -1.5685 -0.7919
 8430SOL     OW30609   6.435   2.962  11.542  0.0383  0.2118 -0.3031
 8430SOL    HW130610   6.394   2.898  11.599 -0.0783  0.4062 -0.1667
 8430SOL    HW230611   6.522   2.976  11.580 -0.2884  0.8580  0.2394
 8431SOL     OW30612   0.277   2.166   9.530 -0.4078 -0.0379 -0.2297
 8431SOL    HW130613   0.246   2.213   9.607  0.7143 -0.8215  0.7229
 8431SOL    HW230614   0.372   2.176   9.532 -0.1798 -1.8541 -0.2998
 8432SOL     OW30615   0.221   8.485   4.643 -0.2712 -0.0663 -0.2107
 8432SOL    HW130616   0.254   8.573   4.660 -2.4282  0.4581  1.7975
 8432SOL    HW230617   0.285   8.427   4.684  0.0946  0.6790  0.2993
 8433SOL     OW30618   9.343   8.686   1.255 -0.2000  0.0143 -0.5695
 8433SOL    HW130619   9.274   8.673   1.320  1.4042 -1.4226  0.9334
 8433SOL    HW230620   9.381   8.771   1.278 -0.1894 -0.1016 -0.1434
 8434SOL     OW30621   1.011   9.065   3.149 -0.0752 -0.1546 -0.1330
 8434SOL    HW130622   0.961   9.106   3.078 -0.5735 -0.2717  0.1487
 8434SOL    HW230623   1.095   9.112   3.148 -0.1601  0.0006 -0.6479
 8435SOL     OW30624   1.459   1.411   8.572  0.2812  0.2593  0.3762
 8435SOL    HW130625   1.546   1.428   8.608 -1.1603  0.6522  4.1121
 8435SOL    HW230626   1.435   1.324   8.604 -1.0105  0.5007  0.1489
 8436SOL     OW30627   6.884   3.764   4.789  0.5129 -0.3718  0.3797
 8436SOL    HW130628   6.978   3.782   4.789  0.4387  0.1158 -0.7968
 8436SOL    HW230629   6.856   3.785   4.878  1.5040 -0.4979  0.7441
 8437SOL     OW30630   1.826   1.161   2.244 -0.4284 -0.0829  0.5560
 8437SOL    HW130631   1.785   1.208   2.317 -0.7234 -1.6368  1.4232
 8437SOL    HW230632   1.917   1.150   2.272 -0.5835 -0.8324  0.7801
 8438SOL     OW30633   5.896  11.573   1.601  0.2368  0.0186 -0.0642
 8438SOL    HW130634   5.891  11.516   1.525  0.6414  0.4814 -0.4497
 8438SOL    HW230635   5.936  11.653   1.568 -0.0260  0.4082  0.5325
 8439SOL     OW30636   2.866   9.362   7.663  0.2867 -0.1535 -0.6718
 8439SOL    HW130637   2.937   9.396   7.608  0.5977 -2.1845 -1.6186
 8439SOL    HW230638   2.888   9.391   7.751  2.2935 -0.6583 -0.9615
 8440SOL     OW30639  10.651   2.373   4.793  0.5731  0.4875 -0.2502
 8440SOL    HW130640  10.721   2.307   4.797 -0.3007 -0.4827 -0.3291
 8440SOL    HW230641  10.600   2.349   4.716 -1.4065 -0.4971  1.2747
 8441SOL     OW30642  10.475   9.264   4.565 -0.8579 -0.3258 -0.5643
 8441SOL    HW130643  10.562   9.299   4.545 -0.8120 -0.0529  0.0728
 8441SOL    HW230644  10.419   9.342   4.569 -1.3272 -0.5784 -1.8898
 8442SOL     OW30645   0.403   6.257   6.290 -0.2572 -0.0024  0.6737
 8442SOL    HW130646   0.488   6.247   6.333 -0.9256  1.1155  2.3730
 8442SOL    HW230647   0.342   6.208   6.345 -0.7261 -0.8798 -0.5850
 8443SOL     OW30648   2.030   6.751   0.814 -0.1124 -0.1008 -0.5058
 8443SOL    HW130649   2.014   6.811   0.741  0.7745  1.7272  0.7284
 8443SOL    HW230650   2.125   6.740   0.817 -0.1725 -0.5586  0.0568
 8444SOL     OW30651   8.547   2.735   5.334 -0.0052  0.5051  1.0349
 8444SOL    HW130652   8.534   2.824   5.301 -0.0343  0.3879  0.7314
 8444SOL    HW230653   8.634   2.710   5.302 -0.8056 -0.3322 -0.6146
 8445SOL     OW30654   4.067   4.075   3.874  0.4541 -0.2027 -0.4225
 8445SOL    HW130655   4.063   4.149   3.814  0.5072 -0.6012 -0.9304
 8445SOL    HW230656   4.032   4.001   3.823  0.9730 -0.6526 -0.1366
 8446SOL     OW30657   9.227   6.918   3.070 -0.1907 -0.3708 -0.3433
 8446SOL    HW130658   9.164   6.845   3.072 -0.2558 -0.3070  0.0456
 8446SOL    HW230659   9.310   6.879   3.097 -0.1334 -0.3904 -0.5520
 8447SOL     OW30660   9.157   1.762  10.402 -0.0679  0.6758 -0.5933
 8447SOL    HW130661   9.068   1.779  10.432 -0.8330  0.3721 -2.5779
 8447SOL    HW230662   9.158   1.791  10.311  0.8712 -2.3836 -1.6827
 8448SOL     OW30663   9.147   2.491  10.712  0.0977  1.0128 -0.0274
 8448SOL    HW130664   9.088   2.538  10.771 -0.5073 -0.9896  1.0575
 8448SOL    HW230665   9.194   2.430  10.768 -1.1767 -1.6587 -1.6211
 8449SOL     OW30666  11.797   9.248   3.722  0.7535 -0.3303 -0.2028
 8449SOL    HW130667  11.793   9.337   3.686 -0.0710  0.3754  1.5168
 8449SOL    HW230668  11.872   9.249   3.781  0.3198 -0.5200  0.3712
 8450SOL     OW30669  10.415  10.809   6.969  0.7326  0.1001 -0.1505
 8450SOL    HW130670  10.431  10.884   7.026  0.1642 -0.7822  1.2137
 8450SOL    HW230671  10.354  10.841   6.903  0.3175  0.7914  0.5561
 8451SOL     OW30672   9.595  10.203   9.281 -0.0746  0.5634 -0.5349
 8451SOL    HW130673   9.517  10.250   9.311  0.4048  1.0414 -0.0192
 8451SOL    HW230674   9.668  10.257   9.309  0.4421  0.2891 -1.3233
 8452SOL     OW30675   0.971   8.879   3.351 -0.8284  0.2806  0.5768
 8452SOL    HW130676   0.878   8.878   3.375 -0.9430 -0.6037  0.1322
 8452SOL    HW230677   0.974   8.930   3.269 -0.7896  1.0727  1.0609
 8453SOL     OW30678   4.062   7.322   7.929  0.0811 -0.1045  0.2141
 8453SOL    HW130679   4.127   7.308   7.860 -0.5367  0.5379 -0.5139
 8453SOL    HW230680   4.083   7.256   7.995  1.7741  0.3953  0.2259
 8454SOL     OW30681  10.565   4.870   0.089 -0.2823  0.8549  0.4107
 8454SOL    HW130682  10.595   4.795   0.140 -1.0458 -0.2445 -0.6902
 8454SOL    HW230683  10.588   4.946   0.143 -1.2476 -0.2313  2.5059
 8455SOL     OW30684   3.766   0.707  10.894 -0.1603  0.2637  0.4261
 8455SOL    HW130685   3.807   0.715  10.981  1.4746 -0.5871 -0.2094
 8455SOL    HW230686   3.700   0.639  10.905  0.4041 -0.2221  0.8917
 8456SOL     OW30687   0.478   5.332   4.009  0.9350 -0.0243  0.4567
 8456SOL    HW130688   0.521   5.416   4.026  1.5468  0.5795 -3.2062
 8456SOL    HW230689   0.546   5.278   3.969 -0.7387 -0.2293 -2.3875
 8457SOL     OW30690   4.070   7.233   1.100 -0.1047  0.7235 -0.4457
 8457SOL    HW130691   4.091   7.242   1.007 -2.1684  2.6269 -0.8310
 8457SOL    HW230692   4.034   7.319   1.125  0.5236  0.3134  2.1607
 8458SOL     OW30693   6.418   4.370   2.666 -0.0512  0.0391  0.2980
 8458SOL    HW130694   6.497   4.422   2.653 -0.2040  0.9580  2.5358
 8458SOL    HW230695   6.354   4.432   2.701 -0.8666 -1.2560  1.1901
 8459SOL     OW30696  10.687   8.246  11.180 -0.6250 -0.4090  0.2096
 8459SOL    HW130697  10.738   8.281  11.107  0.0161 -0.5110  0.6006
 8459SOL    HW230698  10.742   8.260  11.257 -1.3228 -0.2371  0.6909
 8460SOL     OW30699   3.929   9.317   2.722  0.2640  0.2124 -0.3492
 8460SOL    HW130700   3.902   9.404   2.692  0.0196  0.3534  0.2472
 8460SOL    HW230701   3.893   9.256   2.657  1.7896  0.6422 -1.6538
 8461SOL     OW30702   2.061   1.424   7.211 -0.3698  0.3323 -0.2274
 8461SOL    HW130703   2.069   1.353   7.274  0.3052  0.6379  0.0370
 8461SOL    HW230704   2.070   1.504   7.264  0.9392  0.5847 -0.7962
 8462SOL     OW30705   8.418   7.166  10.486  0.5290  0.3594 -0.5250
 8462SOL    HW130706   8.481   7.233  10.510  2.1142 -0.9581 -0.8243
 8462SOL    HW230707   8.433   7.151  10.393  1.0649 -1.2459 -0.2130
 8463SOL     OW30708   2.111   2.151   5.084  0.4503  0.0503  0.0331
 8463SOL    HW130709   2.162   2.072   5.103  0.0511  0.0393  1.1560
 8463SOL    HW230710   2.137   2.213   5.152 -0.8565  0.1086  0.5145
 8464SOL     OW30711   6.732   9.558  11.747  0.5518  0.6648  0.1006
 8464SOL    HW130712   6.644   9.523  11.755  0.4636  0.8605 -0.0107
 8464SOL    HW230713   6.768   9.517  11.669 -0.5365  2.8915 -1.6871
 8465SOL     OW30714   5.115  10.382   8.291 -0.4311 -0.3139 -0.5299
 8465SOL    HW130715   5.091  10.335   8.212 -1.1879  1.7321 -1.5784
 8465SOL    HW230716   5.035  10.385   8.343 -0.0280 -1.3320  0.2065
 8466SOL     OW30717   1.184   7.502   0.007 -0.5455 -0.3606 -0.3444
 8466SOL    HW130718   1.170   7.523   0.099  0.1542  0.2090 -0.3623
 8466SOL    HW230719   1.130   7.424  -0.008 -1.7649  0.3524  0.1799
 8467SOL     OW30720   1.074   1.231   7.843 -0.0789  0.1232 -0.1695
 8467SOL    HW130721   1.017   1.164   7.806  0.3041  1.6240 -4.0078
 8467SOL    HW230722   1.017   1.283   7.899 -1.3117 -1.1482 -0.1873
 8468SOL     OW30723   2.910   8.107   2.444 -0.0154  0.1929  0.0423
 8468SOL    HW130724   2.833   8.060   2.477 -1.2312  1.4606 -0.8569
 8468SOL    HW230725   2.965   8.120   2.522 -0.6563 -0.8351  0.6887
 8469SOL     OW30726   8.995   5.825  11.078  0.5035 -0.0235 -0.1452
 8469SOL    HW130727   8.942   5.783  11.011 -1.8004  1.2635  0.7353
 8469SOL    HW230728   8.986   5.919  11.061 -1.5309  0.4608  2.7986
 8470SOL     OW30729  11.563  10.666   8.873  0.1682 -0.0963 -0.8346
 8470SOL    HW130730  11.538  10.757   8.890  0.9508 -0.1289  0.7481
 8470SOL    HW230731  11.486  10.615   8.897  0.3410  0.0565  0.1178
 8471SOL     OW30732   0.278   3.774   7.745  0.6096 -0.0135 -0.5657
 8471SOL    HW130733   0.217   3.764   7.672 -1.6833 -2.7384  1.4786
 8471SOL    HW230734   0.317   3.687   7.756  1.6957  0.6040  0.8325
 8472SOL     OW30735  11.737   8.853   1.379  0.2458  0.1350 -0.5264
 8472SOL    HW130736  11.821   8.846   1.335  1.0930 -0.0105  1.0754
 8472SOL    HW230737  11.724   8.947   1.392  1.3407  0.0693  1.3621
 8473SOL     OW30738   4.237   6.714   9.731  0.0136 -0.4463  0.3422
 8473SOL    HW130739   4.235   6.645   9.798  0.6267  0.2907  1.1366
 8473SOL    HW230740   4.316   6.695   9.680  1.2952  0.7311  1.7652
 8474SOL     OW30741   4.425   8.543   1.187  0.0871  0.3474 -0.7067
 8474SOL    HW130742   4.363   8.506   1.124 -0.7219 -1.5717  1.1089
 8474SOL    HW230743   4.510   8.504   1.164  0.2964  1.4685 -1.9809
 8475SOL     OW30744   9.611   8.609   0.655 -0.5253 -0.2163 -0.5496
 8475SOL    HW130745   9.671   8.555   0.603  2.4113 -1.2032  3.4339
 8475SOL    HW230746   9.626   8.698   0.623  0.7039 -0.8218 -1.7777
 8476SOL     OW30747   2.113   5.539   4.430  0.0387 -0.2547 -0.1255
 8476SOL    HW130748   2.101   5.537   4.335  0.6607  0.2993 -0.2195
 8476SOL    HW230749   2.200   5.503   4.444  1.1277  2.2741  0.0041
 8477SOL     OW30750   9.882   9.330  10.237  0.1632  0.1781  0.1722
 8477SOL    HW130751   9.868   9.341  10.332 -2.0190  2.5736 -0.3076
 8477SOL    HW230752   9.795   9.341  10.199  0.7115 -2.3665 -2.0706
 8478SOL     OW30753   7.290   9.274   4.427 -0.2078 -0.9977  0.5168
 8478SOL    HW130754   7.308   9.237   4.341 -3.6507  1.0152 -1.2802
 8478SOL    HW230755   7.358   9.341   4.440 -0.5566 -0.2010 -1.4694
 8479SOL     OW30756   4.107  11.733   7.426 -0.1372  0.0202  0.5225
 8479SOL    HW130757   4.063  11.812   7.458  0.2400  0.6126 -0.3748
 8479SOL    HW230758   4.152  11.698   7.503 -0.6847  0.4238  1.0305
 8480SOL     OW30759   0.286   4.320  10.936 -0.4512  0.1532 -0.3894
 8480SOL    HW130760   0.191   4.322  10.950 -0.2219 -0.7824  1.7208
 8480SOL    HW230761   0.312   4.232  10.962  1.1580  0.7874  0.2665
 8481SOL     OW30762  10.068   8.016  10.771  0.5308 -0.3849 -0.5368
 8481SOL    HW130763  10.004   8.015  10.843 -0.5073 -0.7622 -1.4443
 8481SOL    HW230764  10.123   8.092  10.790 -2.1139  1.8963 -1.3462
 8482SOL     OW30765   1.676   0.539   6.639 -0.0232 -0.0893 -0.2132
 8482SOL    HW130766   1.698   0.447   6.651  0.3635 -0.1467 -1.2509
 8482SOL    HW230767   1.587   0.539   6.604  0.1013 -0.0923 -0.5354
 8483SOL     OW30768   7.031   2.230   8.887 -0.0592  0.0031 -0.3811
 8483SOL    HW130769   7.048   2.313   8.842 -0.0169 -0.2225 -0.7917
 8483SOL    HW230770   6.943   2.205   8.858 -0.2066  0.0644 -0.0000
 8484SOL     OW30771   3.598  11.413   9.226  0.5542 -0.2032  0.2482
 8484SOL    HW130772   3.605  11.475   9.152 -0.1844  0.6131  0.8384
 8484SOL    HW230773   3.687  11.384   9.241  0.5600 -1.5672 -1.9423
 8485SOL     OW30774   3.433   7.231  10.707  0.6457 -0.2163 -0.4186
 8485SOL    HW130775   3.516   7.185  10.702  1.5662  0.9590  2.0579
 8485SOL    HW230776   3.387   7.190  10.781 -0.1789  0.3462 -0.5972
 8486SOL     OW30777  11.459   3.271  10.039 -0.0122  0.3877 -0.9585
 8486SOL    HW130778  11.422   3.196   9.992 -0.7690 -0.1036  0.4069
 8486SOL    HW230779  11.385   3.329  10.055  0.5902  1.5306 -2.1188
 8487SOL     OW30780   3.048   9.006   0.689 -0.3222  1.0496 -0.6512
 8487SOL    HW130781   3.028   9.033   0.599  1.6206  0.7977 -1.2149
 8487SOL    HW230782   3.071   9.087   0.734 -2.3101  1.3253 -0.0341
 8488SOL     OW30783   5.109   4.544   9.601  0.5076  0.3575 -0.4259
 8488SOL    HW130784   5.033   4.567   9.548 -0.4172  0.3773  0.8457
 8488SOL    HW230785   5.157   4.479   9.549  0.1782  1.0794 -1.6761
 8489SOL     OW30786   2.988   7.983   3.357 -0.0492  0.0916  0.3315
 8489SOL    HW130787   2.942   7.902   3.334 -1.3461  1.3653 -1.9149
 8489SOL    HW230788   3.081   7.961   3.346 -0.3659 -1.1139 -0.1496
 8490SOL     OW30789   5.522   4.248   6.054  0.2318  0.3698  0.3605
 8490SOL    HW130790   5.531   4.224   5.962 -1.3386  2.2312 -0.3632
 8490SOL    HW230791   5.460   4.185   6.090 -0.2880  0.5022 -0.2795
 8491SOL     OW30792   5.137   2.704   3.582  0.2556 -0.1495 -0.4409
 8491SOL    HW130793   5.138   2.722   3.488  0.5357  0.9569 -0.2344
 8491SOL    HW230794   5.087   2.777   3.620  2.3459  0.8640  0.5386
 8492SOL     OW30795   2.087   1.694   7.369  0.2676 -0.3280  0.0069
 8492SOL    HW130796   2.119   1.631   7.433  2.2707 -0.6470 -1.2392
 8492SOL    HW230797   2.011   1.651   7.330  0.9875 -1.5422 -0.1147
 8493SOL     OW30798   2.596   1.174   3.307 -1.0264 -0.1440  0.4148
 8493SOL    HW130799   2.543   1.184   3.387 -1.5664 -2.6277  0.4726
 8493SOL    HW230800   2.545   1.113   3.253  1.0900 -1.5125 -0.1562
 8494SOL     OW30801   8.115   4.608   9.249 -0.7236 -0.7204 -0.2876
 8494SOL    HW130802   8.089   4.554   9.324  0.7310  0.7782  1.3958
 8494SOL    HW230803   8.183   4.556   9.205 -0.0626 -0.7468  0.7169
 8495SOL     OW30804   1.624   2.428   0.793  0.2478 -0.4783  0.8566
 8495SOL    HW130805   1.568   2.382   0.855 -0.5557 -0.7069 -0.0254
 8495SOL    HW230806   1.622   2.374   0.714 -0.6063  0.9733 -0.1625
 8496SOL     OW30807   7.309   5.029   3.556  1.0187  0.2651 -0.4168
 8496SOL    HW130808   7.399   5.019   3.587 -0.0432  0.0122  2.9614
 8496SOL    HW230809   7.283   5.117   3.586 -0.2497 -0.1634 -0.2039
 8497SOL     OW30810   0.288  10.767  11.412 -0.0068  0.2943 -0.0643
 8497SOL    HW130811   0.336  10.794  11.490  1.6253  0.5266 -1.0876
 8497SOL    HW230812   0.355  10.726  11.356 -1.3750 -1.0344 -0.7996
 8498SOL     OW30813   3.122   2.074   9.017 -0.0185 -0.3266  0.1428
 8498SOL    HW130814   3.203   2.027   8.998  0.4735  1.0391 -1.3671
 8498SOL    HW230815   3.073   2.072   8.935 -1.4153 -0.8981  0.9609
 8499SOL     OW30816   7.437   5.275   8.588 -0.2541 -0.1715 -0.2843
 8499SOL    HW130817   7.512   5.218   8.574 -1.0587 -1.1004 -0.9530
 8499SOL    HW230818   7.389   5.273   8.505 -2.3978 -1.7258  0.8854
 8500SOL     OW30819   3.568   7.140   5.475  0.5324  0.0801  0.0251
 8500SOL    HW130820   3.644   7.184   5.436 -0.4654  0.3474 -1.7340
 8500SOL    HW230821   3.504   7.135   5.403 -1.4456  0.6119  1.6594
 8501SOL     OW30822   5.210   8.550   5.099  1.0431  0.1072 -0.3172
 8501SOL    HW130823   5.185   8.639   5.125 -0.6613 -0.4488  0.1180
 8501SOL    HW230824   5.218   8.502   5.182  0.7040 -0.4310 -0.5876
 8502SOL     OW30825  11.660   7.207   9.763  0.0379  0.2498 -0.5641
 8502SOL    HW130826  11.729   7.159   9.810 -0.5907 -1.0943 -0.9652
 8502SOL    HW230827  11.701   7.231   9.680  0.5817  1.0600 -0.0794
 8503SOL     OW30828   9.178   2.271   3.682 -0.2943 -0.0623 -0.2134
 8503SOL    HW130829   9.236   2.228   3.745 -1.1093  1.4792  1.6870
 8503SOL    HW230830   9.112   2.204   3.661 -0.1498 -0.5439  0.7855
 8504SOL     OW30831  11.511  10.358   9.013  0.1149 -0.1756  0.1646
 8504SOL    HW130832  11.436  10.355   8.953  1.6712  0.3490 -1.8997
 8504SOL    HW230833  11.579  10.308   8.969  2.0633  2.1524  0.3199
 8505SOL     OW30834   5.938   5.724  11.344  0.1796 -0.6969 -0.1889
 8505SOL    HW130835   5.968   5.702  11.432 -0.0140 -0.9449 -0.1844
 8505SOL    HW230836   5.843   5.718  11.348  0.1654 -0.6270 -0.3939
 8506SOL     OW30837   3.173  10.808   4.043 -0.6771  0.2077 -0.0108
 8506SOL    HW130838   3.253  10.840   4.000 -0.3951  2.0610  1.7510
 8506SOL    HW230839   3.201  10.731   4.091 -0.0684  0.4732  0.0714
 8507SOL     OW30840  10.548   0.680   0.818  0.1440 -0.0751  0.2301
 8507SOL    HW130841  10.562   0.737   0.743 -1.7460 -1.1547 -1.0537
 8507SOL    HW230842  10.466   0.712   0.857 -0.9716 -1.8131 -0.5397
 8508SOL     OW30843   2.657   5.480   9.415  0.0338 -0.0351 -0.1231
 8508SOL    HW130844   2.675   5.431   9.496  0.0912 -0.3267 -0.3118
 8508SOL    HW230845   2.620   5.415   9.355 -2.1560  0.6491  0.4066
 8509SOL     OW30846   3.717   4.002   7.548  0.1711  0.5789 -0.2946
 8509SOL    HW130847   3.712   4.069   7.481  0.5785  2.6333  1.5959
 8509SOL    HW230848   3.631   3.962   7.550 -1.4806  3.8283  1.1295
 8510SOL     OW30849   4.879  11.421   2.507  0.8194 -0.1588 -0.4337
 8510SOL    HW130850   4.852  11.513   2.507  2.9936  0.5706 -2.5797
 8510SOL    HW230851   4.796  11.373   2.503 -0.3922  1.6233  0.9830
 8511SOL     OW30852   8.525  10.008   1.750  0.2039  0.2022 -0.2510
 8511SOL    HW130853   8.580   9.987   1.825  0.3836 -2.6827 -1.0852
 8511SOL    HW230854   8.573  10.076   1.703  2.9031 -1.8566 -0.6890
 8512SOL     OW30855  11.607   2.211   3.318 -0.5903 -0.1584  0.4710
 8512SOL    HW130856  11.530   2.157   3.297  0.3412 -1.6286  0.6611
 8512SOL    HW230857  11.576   2.301   3.310 -1.7127 -0.6786 -1.8145
 8513SOL     OW30858   9.059   5.304   0.043 -0.6335  0.4902 -0.4263
 8513SOL    HW130859   9.072   5.241   0.114 -0.8028 -0.3588 -1.1298
 8513SOL    HW230860   8.985   5.357   0.072  0.8178  1.7835  1.1224
 8514SOL     OW30861   0.360   2.070   4.429 -0.4134 -0.8731  0.4412
 8514SOL    HW130862   0.351   2.165   4.423 -0.6500 -0.9631 -1.0615
 8514SOL    HW230863   0.428   2.056   4.494 -2.1393  0.2434  2.6132
 8515SOL     OW30864   7.027   4.170   7.535 -0.1978  0.1422  0.1478
 8515SOL    HW130865   6.983   4.102   7.485 -0.1669 -0.2582  0.6581
 8515SOL    HW230866   7.024   4.139   7.626 -3.2708  2.3561  0.9760
 8516SOL     OW30867   0.542  11.424   6.592  0.1658 -0.1507  0.4971
 8516SOL    HW130868   0.462  11.386   6.556  1.0515 -1.9319  0.3029
 8516SOL    HW230869   0.553  11.506   6.543 -1.3637 -0.0017  0.3358
 8517SOL     OW30870   9.962   8.642   2.849 -0.0043 -0.0957 -0.0791
 8517SOL    HW130871  10.054   8.638   2.875 -0.6381 -0.9091  2.2909
 8517SOL    HW230872   9.957   8.586   2.772  1.8095  1.5639 -1.4920
 8518SOL     OW30873   5.859   0.755   6.650  0.0650 -0.6556 -0.0341
 8518SOL    HW130874   5.806   0.832   6.628 -2.8498 -2.1649  1.1328
 8518SOL    HW230875   5.799   0.682   6.639  2.8832 -2.9187 -1.6761
 8519SOL     OW30876   0.552   7.305   5.695  0.0110  0.0168 -0.1106
 8519SOL    HW130877   0.517   7.239   5.635 -1.3654  0.1140  0.5671
 8519SOL    HW230878   0.522   7.388   5.660  1.0074  0.2414 -0.4654
 8520SOL     OW30879   0.489  10.718   8.887  0.0740  0.9442 -0.0703
 8520SOL    HW130880   0.489  10.781   8.959  0.1605  1.5054 -0.5553
 8520SOL    HW230881   0.541  10.760   8.819 -0.4014  0.6168 -0.6393
 8521SOL     OW30882   3.012   4.428   9.414  0.1451  0.4798  0.3262
 8521SOL    HW130883   2.988   4.516   9.385  1.5181  1.0934  0.9470
 8521SOL    HW230884   2.994   4.371   9.339  0.1976  1.4525 -0.4373
 8522SOL     OW30885  10.812  10.845   4.231  0.1449  0.6417 -0.0238
 8522SOL    HW130886  10.892  10.897   4.225 -0.2331  1.4154  1.2816
 8522SOL    HW230887  10.744  10.902   4.193 -0.2010  0.9694  1.0621
 8523SOL     OW30888   0.717   9.099   2.778  0.0331 -0.0394  0.1269
 8523SOL    HW130889   0.783   9.118   2.844 -0.3593 -0.2618  0.5923
 8523SOL    HW230890   0.708   9.180   2.728  1.2356 -0.2577 -0.4635
 8524SOL     OW30891   3.170  11.819  11.125 -0.0093 -0.3379  0.4493
 8524SOL    HW130892   3.200  11.819  11.034  2.1098  1.6454  1.0559
 8524SOL    HW230893   3.165  11.726  11.148  1.8211 -0.8665 -0.9858
 8525SOL     OW30894   1.419   1.701   4.834 -0.0651 -0.4860  0.1542
 8525SOL    HW130895   1.405   1.762   4.761  2.7675  0.7821  0.5259
 8525SOL    HW230896   1.392   1.750   4.912 -0.6504 -0.8535  0.1803
 8526SOL     OW30897   7.662   1.282   5.004  0.1248  0.2209 -0.4213
 8526SOL    HW130898   7.749   1.320   5.006  0.5534 -0.6880 -1.2226
 8526SOL    HW230899   7.611   1.340   4.948  0.8848 -0.5696 -1.9939
 8527SOL     OW30900   4.688   1.050   6.768  0.3557  0.4721 -0.1349
 8527SOL    HW130901   4.605   1.098   6.775 -1.1615 -2.1133  1.1337
 8527SOL    HW230902   4.720   1.045   6.858  1.2718  0.3842 -0.4556
 8528SOL     OW30903   6.101   8.056   6.953  0.1818 -0.4100  0.2064
 8528SOL    HW130904   6.148   8.119   6.898  0.2521 -1.1378 -0.6064
 8528SOL    HW230905   6.064   8.108   7.024  0.6708  0.4590 -0.1572
 8529SOL     OW30906   9.591   3.475  10.680  0.1993 -0.3189  0.3271
 8529SOL    HW130907   9.615   3.490  10.772  0.9688 -1.1132  0.2665
 8529SOL    HW230908   9.500   3.444  10.684  0.3414 -0.6796  0.8520
 8530SOL     OW30909  11.658   6.068   6.999  0.2371 -0.1905 -0.5432
 8530SOL    HW130910  11.592   6.056   7.068  2.1669 -0.2742  1.4090
 8530SOL    HW230911  11.614   6.122   6.933 -1.7717 -0.2266  0.6766
 8531SOL     OW30912   2.324   0.139   5.274  0.0844  0.2020 -0.0491
 8531SOL    HW130913   2.380   0.087   5.332  0.0711  0.1827 -0.0534
 8531SOL    HW230914   2.297   0.077   5.206  1.4549  0.6470 -1.0272
 8532SOL     OW30915   2.391   2.838   4.518 -0.0627  0.0725 -0.2652
 8532SOL    HW130916   2.328   2.888   4.570 -1.7489 -2.4273  0.2605
 8532SOL    HW230917   2.471   2.836   4.571 -0.9599 -0.3679  1.1041
 8533SOL     OW30918   4.887   6.171  11.589 -0.5057 -0.3958  0.0763
 8533SOL    HW130919   4.848   6.119  11.659 -2.9770  1.6683  0.3783
 8533SOL    HW230920   4.830   6.156  11.513 -0.7696  1.1060 -0.0644
 8534SOL     OW30921   7.848   5.606   6.279 -0.5361  0.3544 -0.3771
 8534SOL    HW130922   7.909   5.642   6.342 -1.1933  2.5718 -0.9341
 8534SOL    HW230923   7.902   5.580   6.204 -0.1920  1.6950 -0.6042
 8535SOL     OW30924   4.873   5.115  10.865 -0.6066  0.2645 -0.0525
 8535SOL    HW130925   4.923   5.112  10.784 -1.6980 -0.1941 -0.7260
 8535SOL    HW230926   4.839   5.027  10.876  1.3654 -0.3287  2.1273
 8536SOL     OW30927   7.000   7.633   5.166  0.1201  0.1238 -0.2183
 8536SOL    HW130928   6.943   7.701   5.132 -0.9250 -1.4479 -1.7440
 8536SOL    HW230929   6.949   7.553   5.160  1.1904 -0.7834  1.8495
 8537SOL     OW30930   0.685   5.808   6.628 -0.3464  0.4243 -0.1671
 8537SOL    HW130931   0.602   5.761   6.621  0.3385 -0.8718  0.0789
 8537SOL    HW230932   0.737   5.755   6.688  0.2936  1.7731  0.4988
 8538SOL     OW30933   6.459  10.644   7.018 -0.1863  0.6684 -0.4538
 8538SOL    HW130934   6.545  10.628   7.058 -0.3146  2.3204  0.5561
 8538SOL    HW230935   6.458  10.738   7.000 -2.0553  0.8085  0.1998
 8539SOL     OW30936  11.114   9.631   7.713 -0.1499 -0.0301  0.2102
 8539SOL    HW130937  11.192   9.595   7.754  0.7954  0.3633 -1.1778
 8539SOL    HW230938  11.130   9.624   7.619 -0.6383  2.4024 -0.1218
 8540SOL     OW30939  11.308   5.795  10.904  0.2262 -0.0685  0.1581
 8540SOL    HW130940  11.340   5.716  10.862 -0.8702 -0.4856  0.0680
 8540SOL    HW230941  11.351   5.866  10.857  2.2317 -0.6108  1.0923
 8541SOL     OW30942   9.128   3.975   5.192  0.5375 -0.4685 -0.1899
 8541SOL    HW130943   9.192   3.953   5.259  1.0554  0.5816 -0.3252
 8541SOL    HW230944   9.052   4.007   5.241  0.8358  0.0980 -0.0894
 8542SOL     OW30945   1.982   6.265   4.392  0.3480  0.3221 -0.3710
 8542SOL    HW130946   1.988   6.181   4.346 -2.2549 -0.0948 -0.0836
 8542SOL    HW230947   1.962   6.329   4.324 -0.3187  0.2376 -0.2636
 8543SOL     OW30948   0.686   1.370   8.779  0.8567  0.2060  0.0560
 8543SOL    HW130949   0.597   1.356   8.809  1.4890 -0.0760  1.9289
 8543SOL    HW230950   0.702   1.298   8.717  0.1668 -0.4057  0.5750
 8544SOL     OW30951   9.228   3.771   7.083 -0.5133 -0.0857 -0.3135
 8544SOL    HW130952   9.208   3.780   7.176 -0.7350 -0.7464 -0.2912
 8544SOL    HW230953   9.146   3.739   7.044 -0.7127  1.0532 -0.8928
 8545SOL     OW30954   2.861   8.732  10.707 -0.0147 -0.2576 -0.1775
 8545SOL    HW130955   2.952   8.729  10.679 -0.0994 -0.1547 -0.4649
 8545SOL    HW230956   2.833   8.821  10.689  0.4165  0.3257  1.7993
 8546SOL     OW30957   2.138  10.746  10.962 -0.3013 -0.1081  0.3961
 8546SOL    HW130958   2.137  10.796  11.043  0.0021 -1.1879  1.0830
 8546SOL    HW230959   2.136  10.655  10.989  0.7833 -0.5160 -0.7717
 8547SOL     OW30960   4.470   5.079  11.315 -0.5999  0.4513  0.3119
 8547SOL    HW130961   4.554   5.088  11.270  0.0831  1.0238  1.6267
 8547SOL    HW230962   4.455   5.164  11.356 -1.2770  0.0214  0.9921
 8548SOL     OW30963   2.160  11.677   8.494 -0.2105 -0.2913 -0.1149
 8548SOL    HW130964   2.209  11.649   8.570 -0.6309  0.9720  0.6584
 8548SOL    HW230965   2.223  11.724   8.440  0.0702 -1.1235 -0.5236
 8549SOL     OW30966   2.621   3.799   8.195  0.1069  0.8751 -0.3563
 8549SOL    HW130967   2.703   3.759   8.225  0.8042  0.7248 -2.3499
 8549SOL    HW230968   2.615   3.776   8.103 -2.8249 -0.1322 -0.0271
 8550SOL     OW30969   2.007   9.298   3.985 -0.1167 -0.4824 -0.5761
 8550SOL    HW130970   1.943   9.343   4.041 -1.5517 -2.3695 -0.6097
 8550SOL    HW230971   1.961   9.287   3.902  1.8800  2.0253 -2.1660
 8551SOL     OW30972   5.094   6.744   6.564  0.0090  0.3249 -0.2615
 8551SOL    HW130973   5.002   6.724   6.550  0.1940 -1.5661  0.8886
 8551SOL    HW230974   5.139   6.710   6.487 -0.2397  1.4643 -0.9379
 8552SOL     OW30975   3.504   7.491   5.693 -0.0090 -0.2345  0.0351
 8552SOL    HW130976   3.422   7.500   5.742 -0.6621  0.2595 -1.1151
 8552SOL    HW230977   3.544   7.578   5.697  0.5341 -0.5058  0.6979
 8553SOL     OW30978   8.417   8.795   1.132  0.5513  0.2384 -0.2205
 8553SOL    HW130979   8.355   8.863   1.109  0.8403  0.9666  1.0670
 8553SOL    HW230980   8.418   8.794   1.228  0.2362 -1.8760 -0.1913
 8554SOL     OW30981   1.754   1.903  10.075  0.7590 -0.3211 -0.1910
 8554SOL    HW130982   1.703   1.888  10.154 -0.5784 -0.1769 -1.0041
 8554SOL    HW230983   1.808   1.824  10.066  0.7505 -0.4380  0.7256
 8555SOL     OW30984   1.511   5.250   6.324 -0.1188 -0.1239 -0.0732
 8555SOL    HW130985   1.429   5.263   6.372  0.3353 -0.4800  0.8307
 8555SOL    HW230986   1.493   5.177   6.265 -0.8542  0.6711 -0.8560
 8556SOL     OW30987   5.213   5.702  10.049  0.1976  0.3452  0.0894
 8556SOL    HW130988   5.201   5.755   9.970 -1.3889 -0.5742 -0.3414
 8556SOL    HW230989   5.284   5.642  10.028 -0.5120 -0.1965 -0.8410
 8557SOL     OW30990   7.687   0.329   9.485 -0.3013 -0.2580  0.4400
 8557SOL    HW130991   7.599   0.300   9.509 -0.1722 -0.2861  0.8853
 8557SOL    HW230992   7.740   0.249   9.490 -0.7716 -0.8863 -2.6063
 8558SOL     OW30993   4.306   4.849   8.038  0.1632  0.3225 -0.2977
 8558SOL    HW130994   4.295   4.796   7.959  0.6460  0.1678 -0.2602
 8558SOL    HW230995   4.267   4.934   8.015  2.5471  1.1440 -1.5981
 8559SOL     OW30996  11.509  11.808   9.596 -0.1186  0.2018 -0.3482
 8559SOL    HW130997  11.491  11.852   9.679 -0.5590 -0.4025 -0.1148
 8559SOL    HW230998  11.591  11.760   9.611 -0.8142 -0.8794  0.1481
 8560SOL     OW30999   2.403   2.589   5.838  0.2917  0.6309  0.1266
 8560SOL    HW131000   2.405   2.594   5.934 -0.1935 -0.7310  0.2189
 8560SOL    HW231001   2.312   2.569   5.816  0.3115  1.3293 -0.6597
 8561SOL     OW31002   8.445   7.581   3.900 -0.2547 -0.2835  0.4475
 8561SOL    HW131003   8.523   7.528   3.915  0.3557  0.5229  0.2309
 8561SOL    HW231004   8.435   7.583   3.805 -0.6888 -0.5850  0.4840
 8562SOL     OW31005   6.387   3.925   0.488  0.3849 -0.5017  0.7395
 8562SOL    HW131006   6.457   3.941   0.551  0.3017  1.1586  0.4572
 8562SOL    HW231007   6.390   4.001   0.429 -0.8487 -1.0183 -0.0273
 8563SOL     OW31008   8.055   9.594   9.292 -0.8946 -0.0942  0.2924
 8563SOL    HW131009   8.094   9.612   9.377 -1.5564 -2.3973  1.1472
 8563SOL    HW231010   7.961   9.588   9.309 -1.0715 -0.2589 -0.6554
 8564SOL     OW31011   7.688   9.342   9.505  0.0479  0.1348 -0.6393
 8564SOL    HW131012   7.669   9.285   9.431  1.0417  0.9627 -1.5762
 8564SOL    HW231013   7.603   9.381   9.528 -0.1237  0.6676 -2.0500
 8565SOL     OW31014   8.346   5.499   4.574  0.1012 -0.0054 -0.1981
 8565SOL    HW131015   8.260   5.468   4.602 -0.4479  2.9873  1.7981
 8565SOL    HW231016   8.330   5.542   4.490 -0.3805  0.6787  0.2431
 8566SOL     OW31017   9.483   7.397   8.480 -0.3085  0.1265  0.5452
 8566SOL    HW131018   9.446   7.310   8.469  0.0660 -0.0303  0.5225
 8566SOL    HW231019   9.413   7.448   8.522 -1.0208  0.1868 -0.6637
 8567SOL     OW31020   4.314   7.798   5.026 -0.0903 -0.2221  0.0152
 8567SOL    HW131021   4.361   7.822   5.106 -0.2456  1.6031 -0.4035
 8567SOL    HW231022   4.222   7.794   5.052 -0.1309  0.2846 -0.0388
 8568SOL     OW31023   6.377   2.178  10.220 -0.0270  0.4290  0.1016
 8568SOL    HW131024   6.447   2.122  10.188  0.7621  0.4082  1.7762
 8568SOL    HW231025   6.330   2.205  10.141 -0.7986 -2.9987 -0.7590
 8569SOL     OW31026   0.862   1.727   9.773 -0.7251 -0.1457  0.1831
 8569SOL    HW131027   0.784   1.723   9.829 -0.7372  1.0334  0.2704
 8569SOL    HW231028   0.836   1.781   9.699  0.5916  2.0589  1.2314
 8570SOL     OW31029   4.199   1.101  10.326 -0.7167 -0.1101 -0.0749
 8570SOL    HW131030   4.274   1.042  10.327  0.6850  1.5052  2.5833
 8570SOL    HW231031   4.128   1.049  10.363  0.1122 -0.6031  0.8933
 8571SOL     OW31032   4.909   0.914  10.020  0.0696  0.2948  0.2773
 8571SOL    HW131033   4.995   0.924   9.979  0.0291 -0.6618 -0.0665
 8571SOL    HW231034   4.928   0.911  10.114  0.5188 -0.7583  0.1697
 8572SOL     OW31035   3.947  10.181   5.529  0.2262  0.2564  0.5737
 8572SOL    HW131036   3.993  10.261   5.502 -0.1941 -0.2081 -1.7426
 8572SOL    HW231037   4.013  10.131   5.577  2.5057 -0.6337 -3.0588
 8573SOL     OW31038   4.325   7.665   8.229 -0.1042 -0.3907 -0.3432
 8573SOL    HW131039   4.350   7.675   8.321 -2.4508  0.9390  0.2641
 8573SOL    HW231040   4.254   7.601   8.231 -0.8568  0.3909 -1.0355
 8574SOL     OW31041  11.477   6.506   5.198 -0.5798  0.2029 -0.1955
 8574SOL    HW131042  11.528   6.571   5.150 -0.4342  0.7462  0.6631
 8574SOL    HW231043  11.403   6.485   5.141 -0.1170  0.4119 -0.8789
 8575SOL     OW31044   2.977   6.925   9.757 -0.3082 -0.6062 -0.1579
 8575SOL    HW131045   2.942   6.847   9.800 -0.7931 -0.9927 -1.2283
 8575SOL    HW231046   3.049   6.953   9.814  0.3613 -2.2723 -0.1349
 8576SOL     OW31047  10.340   0.170   3.063  0.3014 -0.1535 -0.0730
 8576SOL    HW131048  10.321   0.233   3.133  0.5902  1.0649 -1.0564
 8576SOL    HW231049  10.255   0.132   3.041  0.0053  0.4492  0.0217
 8577SOL     OW31050   7.675   6.583   2.601 -0.4340  0.0285 -0.1971
 8577SOL    HW131051   7.734   6.655   2.579 -0.3545 -0.3684 -1.3339
 8577SOL    HW231052   7.708   6.550   2.685  1.6484 -0.8765 -1.3002
 8578SOL     OW31053   1.085   2.420   3.021  0.1005 -0.2156 -0.1182
 8578SOL    HW131054   1.083   2.510   3.054 -0.1896  0.8443 -2.7567
 8578SOL    HW231055   1.134   2.426   2.939  0.2322 -2.5141 -0.2623
 8579SOL     OW31056   5.093   6.168   7.268  0.0472 -0.7070 -0.3938
 8579SOL    HW131057   5.111   6.128   7.353  0.5676 -0.9495 -0.6140
 8579SOL    HW231058   5.044   6.248   7.289  1.2259 -0.1187  0.2131
 8580SOL     OW31059   7.403   6.639   3.325  0.1844  0.8377  0.9297
 8580SOL    HW131060   7.350   6.569   3.364  1.3780  0.6212  2.2579
 8580SOL    HW231061   7.387   6.631   3.231 -2.1715  0.8530  1.2620
 8581SOL     OW31062   5.706   4.327   0.204 -0.5148  0.2529 -0.6418
 8581SOL    HW131063   5.721   4.387   0.277 -0.0731  1.1127 -1.4086
 8581SOL    HW231064   5.705   4.240   0.244 -1.3479  0.7729  0.5285
 8582SOL     OW31065  11.627  11.468  10.227 -0.2421 -0.1649 -0.3247
 8582SOL    HW131066  11.621  11.372  10.222  1.3043 -0.2582 -1.3001
 8582SOL    HW231067  11.681  11.484  10.304 -1.0837 -0.0184  0.2520
 8583SOL     OW31068   0.745   6.802   7.539  0.1216 -0.1502  0.1004
 8583SOL    HW131069   0.658   6.812   7.500 -0.6053  0.1906  1.7175
 8583SOL    HW231070   0.763   6.708   7.531  0.1016 -0.0710 -1.1898
 8584SOL     OW31071  10.216   7.776   0.339  0.4392 -0.0483 -0.3824
 8584SOL    HW131072  10.230   7.683   0.353 -0.1972 -0.1878 -0.6577
 8584SOL    HW231073  10.288   7.802   0.281  0.8837 -0.2615  0.0623
 8585SOL     OW31074   0.896   3.689   0.227  0.0789 -0.2476 -0.0165
 8585SOL    HW131075   0.890   3.702   0.133  0.0238  3.1265  0.3188
 8585SOL    HW231076   0.981   3.726   0.252 -0.1257 -0.6095  1.3106
 8586SOL     OW31077   3.123   6.466   0.230  0.6148  0.2676 -0.1113
 8586SOL    HW131078   3.191   6.492   0.167  1.2176  0.1519  0.4848
 8586SOL    HW231079   3.169   6.413   0.295 -0.0388  0.2243  0.3249
 8587SOL     OW31080   9.012   6.085  11.042 -0.0083 -0.2989  0.2237
 8587SOL    HW131081   9.089   6.102  10.989 -1.1024 -1.4701 -1.8905
 8587SOL    HW231082   8.956   6.162  11.029  0.3339  0.0745  0.9041
 8588SOL     OW31083   3.226   6.629   2.422  0.2492  0.4733  0.2222
 8588SOL    HW131084   3.265   6.562   2.365 -2.7499 -1.0316 -0.2943
 8588SOL    HW231085   3.277   6.708   2.404  2.3939 -1.0587 -1.0101
 8589SOL     OW31086   4.741   4.804   3.434  0.5238  0.2225  0.2404
 8589SOL    HW131087   4.808   4.872   3.446 -1.3649  2.4680 -1.0760
 8589SOL    HW231088   4.674   4.825   3.499 -0.9064  0.7661 -1.3405
 8590SOL     OW31089   4.187   8.808  10.145 -0.8053 -0.2429 -0.0935
 8590SOL    HW131090   4.191   8.872  10.216  0.6783  0.6389 -0.9207
 8590SOL    HW231091   4.112   8.835  10.092 -0.2437  0.8032 -0.3849
 8591SOL     OW31092   9.377   8.186   9.772  0.3241  0.0436  0.2022
 8591SOL    HW131093   9.417   8.213   9.855  0.6570  0.3556 -0.0566
 8591SOL    HW231094   9.417   8.243   9.707  0.4896 -0.5944 -0.2596
 8592SOL     OW31095  11.000  10.783   9.347  0.0241 -0.2612  0.0199
 8592SOL    HW131096  11.090  10.757   9.363  0.6349  0.2908 -2.2093
 8592SOL    HW231097  10.950  10.701   9.352  0.8601 -0.7926 -0.1794
 8593SOL     OW31098   0.098   2.754   8.547  0.4456  0.6684  0.1384
 8593SOL    HW131099   0.070   2.818   8.612 -1.3760 -2.2369  2.4313
 8593SOL    HW231100   0.017   2.723   8.506  0.9346 -1.9917  0.9993
 8594SOL     OW31101   8.922   5.718  11.629  0.2580  0.2237  0.3068
 8594SOL    HW131102   8.852   5.667  11.669 -0.8754  0.8985 -0.7543
 8594SOL    HW231103   8.931   5.682  11.541  0.8227  0.5509  0.2262
 8595SOL     OW31104   5.135   3.158   2.100 -0.0648  0.5089 -0.1429
 8595SOL    HW131105   5.048   3.154   2.061  0.3791 -1.6139 -1.0274
 8595SOL    HW231106   5.121   3.141   2.193 -0.4358 -2.0167 -0.6085
 8596SOL     OW31107   1.074   8.064   1.416  0.4216 -0.3315 -0.4743
 8596SOL    HW131108   1.032   8.059   1.502 -1.0806 -1.1597 -1.2124
 8596SOL    HW231109   1.162   8.098   1.434  0.5549 -1.5719  1.5215
 8597SOL     OW31110   0.599   6.178   4.475  0.0582 -0.2535 -0.3069
 8597SOL    HW131111   0.589   6.085   4.492  1.2994 -0.5172 -0.8754
 8597SOL    HW231112   0.667   6.183   4.408  0.2370  1.0775 -0.0626
 8598SOL     OW31113  11.237   0.300   8.076 -0.5489 -0.1832  0.3509
 8598SOL    HW131114  11.155   0.318   8.031  0.2919  0.0790 -1.1235
 8598SOL    HW231115  11.219   0.220   8.126 -1.7867  0.0493  0.3216
 8599SOL     OW31116   8.969   9.111   2.342  0.2792  0.6724  0.1324
 8599SOL    HW131117   8.946   9.175   2.273 -1.4818  0.2288  0.2552
 8599SOL    HW231118   9.053   9.142   2.376 -0.4235  2.8466  0.0663
 8600SOL     OW31119   2.337   5.852  11.406  0.5643 -0.0533 -0.1073
 8600SOL    HW131120   2.427   5.832  11.379  0.5126 -2.1322  1.0034
 8600SOL    HW231121   2.301   5.767  11.433 -2.3166  0.3744 -2.0772
 8601SOL     OW31122   0.472   1.471   7.373 -0.4960  0.0070 -0.1936
 8601SOL    HW131123   0.434   1.552   7.339  0.9612  1.3384  1.1944
 8601SOL    HW231124   0.473   1.482   7.468  0.0554 -1.4970  0.0088
 8602SOL     OW31125   1.487   8.871   3.206 -0.4175 -0.1409 -0.3555
 8602SOL    HW131126   1.580   8.849   3.195 -0.4085 -0.4079  0.2491
 8602SOL    HW231127   1.442   8.818   3.140 -0.1257  0.1767 -0.8251
 8603SOL     OW31128   6.084   1.850   2.451 -0.6997 -0.0049  0.0265
 8603SOL    HW131129   6.026   1.915   2.492 -1.1136  0.9544 -1.9340
 8603SOL    HW231130   6.033   1.769   2.453 -0.9945  0.1829  0.7219
 8604SOL     OW31131   0.652   8.781  11.339 -0.0366  0.4716 -0.3679
 8604SOL    HW131132   0.635   8.743  11.425 -0.7836  0.7118 -0.4022
 8604SOL    HW231133   0.734   8.829  11.349  0.4721 -0.4295 -0.0973
 8605SOL     OW31134   1.799   9.506  11.090 -0.0105  0.1683 -0.0881
 8605SOL    HW131135   1.801   9.411  11.087  0.5910  0.1753 -0.0611
 8605SOL    HW231136   1.840   9.528  11.174 -1.0102  0.4273  0.3503
 8606SOL     OW31137  10.456   8.074   6.294  0.0183 -0.2576  0.1510
 8606SOL    HW131138  10.417   8.101   6.377 -1.1849  0.0758 -0.5031
 8606SOL    HW231139  10.529   8.017   6.319 -1.0519 -1.1254  1.4127
 8607SOL     OW31140   6.830  11.787   1.256  0.1700  0.1539  0.2493
 8607SOL    HW131141   6.863  11.733   1.328  0.2092 -0.7167 -0.4015
 8607SOL    HW231142   6.752  11.741   1.226 -0.8891  1.4683  0.8852
 8608SOL     OW31143  11.403   4.127   3.354  0.6506  0.9049  0.0093
 8608SOL    HW131144  11.412   4.050   3.410 -0.3597  0.4849 -0.3697
 8608SOL    HW231145  11.419   4.201   3.413  2.2683  0.4120  0.2388
 8609SOL     OW31146   6.392  11.411   7.320  0.2636 -0.1244 -0.6616
 8609SOL    HW131147   6.380  11.322   7.354  3.4824 -0.9618 -1.3566
 8609SOL    HW231148   6.349  11.467   7.384 -1.8333 -2.1229 -0.1622
 8610SOL     OW31149   9.463   7.515   4.543  0.4108  0.4463 -0.2054
 8610SOL    HW131150   9.518   7.452   4.496  0.3991  0.2840  0.0015
 8610SOL    HW231151   9.375   7.480   4.536  0.6139 -0.4777  1.3955
 8611SOL     OW31152   4.239   4.020   5.341 -0.2171 -0.0526  0.3503
 8611SOL    HW131153   4.222   3.937   5.298 -1.3835  1.0904 -1.4872
 8611SOL    HW231154   4.306   4.062   5.287 -0.6619  0.7985  0.4429
 8612SOL     OW31155   8.330   0.160  10.820 -0.2254  0.0014  0.1995
 8612SOL    HW131156   8.312   0.253  10.813  1.1619  0.3050  0.3763
 8612SOL    HW231157   8.312   0.126  10.732  0.2195  0.6200 -0.1358
 8613SOL     OW31158   8.407   5.826   5.666 -0.8905  0.2590 -0.3123
 8613SOL    HW131159   8.410   5.890   5.594  0.5364  0.6070  0.0363
 8613SOL    HW231160   8.456   5.751   5.633 -1.2760 -0.0659 -0.1503
 8614SOL     OW31161   4.878   0.982   6.369  0.5091  0.2538 -0.2521
 8614SOL    HW131162   4.945   0.933   6.323  0.0106 -1.1911  0.5050
 8614SOL    HW231163   4.878   0.945   6.458 -2.4672 -1.0831 -0.6969
 8615SOL     OW31164  10.007   8.376   0.364  0.2308 -0.4275 -0.4826
 8615SOL    HW131165  10.054   8.341   0.440  0.8126  0.7687 -0.2637
 8615SOL    HW231166  10.071   8.374   0.293 -0.2496 -1.3512 -0.9035
 8616SOL     OW31167   7.965   5.111   1.214  0.3320 -0.1502 -0.0090
 8616SOL    HW131168   7.900   5.137   1.148  1.2560  0.3024 -0.7646
 8616SOL    HW231169   7.915   5.102   1.295 -0.7299 -0.1399 -0.6452
 8617SOL     OW31170   3.950   0.428   6.848  0.2876  0.2277 -0.3464
 8617SOL    HW131171   3.996   0.509   6.823  2.5414 -1.1475 -0.9738
 8617SOL    HW231172   4.018   0.374   6.888 -1.4276 -0.9410  1.1372
 8618SOL     OW31173   0.244  11.234  10.916 -0.4662 -0.5070  0.4338
 8618SOL    HW131174   0.211  11.280  10.839 -0.9271 -2.1707 -0.4096
 8618SOL    HW231175   0.332  11.205  10.890  1.1060  2.4360  2.0562
 8619SOL     OW31176   9.940   3.427   5.327  0.4502  0.0971 -0.3869
 8619SOL    HW131177  10.016   3.418   5.385 -0.8722 -0.8140  1.3227
 8619SOL    HW231178   9.886   3.495   5.368 -2.0959 -2.7773  1.5105
 8620SOL     OW31179   0.686   4.985   9.002 -0.2077  0.3279 -0.9164
 8620SOL    HW131180   0.732   4.924   9.059 -0.2718 -0.7257 -1.9613
 8620SOL    HW231181   0.641   4.930   8.938 -1.9632  1.3815 -0.6555
 8621SOL     OW31182   3.811   8.150   1.521  0.2612 -0.2934 -0.4152
 8621SOL    HW131183   3.741   8.117   1.465  1.0355 -0.3558 -1.3821
 8621SOL    HW231184   3.777   8.233   1.555 -1.1622 -1.3991  0.9705
 8622SOL     OW31185   1.281   1.660   8.669  0.2405  0.0782 -0.6066
 8622SOL    HW131186   1.368   1.666   8.629  0.3814  1.7536 -0.1129
 8622SOL    HW231187   1.227   1.722   8.621  0.0140  0.9660  0.7258
 8623SOL     OW31188   9.625   6.311  11.290  0.0492  0.2155  0.2385
 8623SOL    HW131189   9.535   6.344  11.284  0.1245  0.2061 -2.0850
 8623SOL    HW231190   9.618   6.231  11.342 -1.1594  0.6114  0.7134
 8624SOL     OW31191   8.649   8.728   1.810  0.5639  0.3939  0.1636
 8624SOL    HW131192   8.649   8.773   1.894  1.8006  0.9527 -0.1140
 8624SOL    HW231193   8.627   8.637   1.832  0.8839  0.5274  1.0930
 8625SOL     OW31194   2.161   5.321   2.168  0.0466  0.7093 -0.7593
 8625SOL    HW131195   2.255   5.312   2.181 -0.2252 -0.5128  0.7809
 8625SOL    HW231196   2.145   5.285   2.081  0.8416 -0.5794 -0.4050
 8626SOL     OW31197   1.476  11.625   6.800  0.0276 -0.8025  0.0252
 8626SOL    HW131198   1.423  11.701   6.820  0.3051 -0.6688  0.2721
 8626SOL    HW231199   1.457  11.563   6.871  0.2364 -0.7341  0.1419
 8627SOL     OW31200   2.413   8.451  11.639 -0.3420  0.0606 -0.1217
 8627SOL    HW131201   2.453   8.453  11.726 -0.8328 -0.4588  0.1245
 8627SOL    HW231202   2.472   8.397  11.586  0.7376  1.5685 -0.5314
 8628SOL     OW31203   3.122  10.216   5.848  0.2320 -0.3112 -0.0194
 8628SOL    HW131204   3.152  10.300   5.815 -0.2520  0.0803  0.5311
 8628SOL    HW231205   3.028  10.226   5.861 -0.0906 -1.3812 -1.2654
 8629SOL     OW31206   7.752   2.690   1.821 -0.3952  0.2031 -0.2793
 8629SOL    HW131207   7.717   2.772   1.787  1.1332  0.7217 -0.6620
 8629SOL    HW231208   7.838   2.682   1.780  0.4811 -0.4054  1.5915
 8630SOL     OW31209   9.841   8.154  11.374  0.4308  0.7011  0.4646
 8630SOL    HW131210   9.752   8.140  11.405  0.8818 -4.2970  0.3729
 8630SOL    HW231211   9.831   8.198  11.290 -2.0494 -0.4701  0.0776
 8631SOL     OW31212   9.142   6.271   7.186 -0.1123 -0.1974 -0.1252
 8631SOL    HW131213   9.173   6.340   7.127 -0.0893 -1.0417 -1.1229
 8631SOL    HW231214   9.048   6.286   7.192  0.0879  0.8249  0.8820
 8632SOL     OW31215  11.599   6.787   1.948  0.1180 -0.2439  0.3139
 8632SOL    HW131216  11.527   6.727   1.930 -0.6144  0.8894 -0.7172
 8632SOL    HW231217  11.604   6.790   2.044 -0.3497 -1.3245  0.3869
 8633SOL     OW31218   1.483  11.304  10.465  0.1295  0.2893 -0.6198
 8633SOL    HW131219   1.513  11.222  10.425 -0.8866  0.0066 -0.8223
 8633SOL    HW231220   1.410  11.278  10.521 -0.3686  1.0906 -0.8820
 8634SOL     OW31221   1.675   8.263   5.769 -0.5109 -0.0117  0.2141
 8634SOL    HW131222   1.765   8.252   5.739  0.0098  2.1066  0.8068
 8634SOL    HW231223   1.675   8.232   5.859  0.0388  1.3720  0.7146
 8635SOL     OW31224   4.399   2.336   3.578 -0.2389  0.0647 -0.7156
 8635SOL    HW131225   4.451   2.278   3.522  0.6947 -0.8311  0.9977
 8635SOL    HW231226   4.464   2.394   3.618 -0.5524 -0.8140  1.1597
 8636SOL     OW31227   0.320   4.972  10.793  0.0167  0.5904  0.1648
 8636SOL    HW131228   0.330   5.066  10.805  0.9814  0.4114  0.9094
 8636SOL    HW231229   0.373   4.951  10.716 -0.6184  0.7237 -0.3158
 8637SOL     OW31230   8.156   6.964   8.725 -0.1566 -0.2719  0.0511
 8637SOL    HW131231   8.115   6.942   8.641  2.0090  1.1521 -1.4814
 8637SOL    HW231232   8.246   6.934   8.717  0.4334  1.0222  1.3572
 8638SOL     OW31233   9.455   6.898   9.890 -0.3788 -0.6806  0.0650
 8638SOL    HW131234   9.485   6.887   9.981  0.5894 -0.4685 -0.2102
 8638SOL    HW231235   9.503   6.974   9.859  1.2902 -2.2370 -1.4111
 8639SOL     OW31236  11.070   7.039   8.313 -0.5764 -0.0188 -0.2262
 8639SOL    HW131237  11.024   7.060   8.394 -0.1067 -0.0785  0.0623
 8639SOL    HW231238  11.006   6.990   8.261 -0.6926 -0.5063  0.3608
 8640SOL     OW31239   8.259   3.135   9.900  0.3275 -0.0987 -0.3552
 8640SOL    HW131240   8.295   3.193   9.833  0.5619  0.4867  0.2654
 8640SOL    HW231241   8.289   3.047   9.875 -1.0794 -0.1531 -2.0043
 8641SOL     OW31242   8.678   4.162   8.639 -0.3991 -0.3057 -0.0785
 8641SOL    HW131243   8.650   4.070   8.647  0.1772 -0.3782  1.3378
 8641SOL    HW231244   8.693   4.190   8.729  0.7152  0.7807 -0.5837
 8642SOL     OW31245   6.389   0.322   7.453  0.0404  0.1042  0.3799
 8642SOL    HW131246   6.408   0.256   7.519 -0.5685  0.3879  0.8476
 8642SOL    HW231247   6.416   0.404   7.492  0.2716  0.2042  0.0189
 8643SOL     OW31248  11.380  10.704   7.667 -0.6162  0.4021 -0.6313
 8643SOL    HW131249  11.385  10.609   7.676  0.1699  0.5994  1.6491
 8643SOL    HW231250  11.455  10.727   7.613 -0.6011 -0.2144 -0.8855
 8644SOL     OW31251   2.546   5.731  11.280  0.1923 -0.3187 -0.2745
 8644SOL    HW131252   2.633   5.769  11.266  0.9418 -2.0343 -0.4798
 8644SOL    HW231253   2.501   5.743  11.197  0.4857 -0.0520 -0.3972
 8645SOL     OW31254   7.716   6.614   2.162  0.4320  0.6122 -0.4887
 8645SOL    HW131255   7.746   6.695   2.119 -0.1422  2.6010  2.4993
 8645SOL    HW231256   7.781   6.599   2.231 -1.9053  1.3676  2.0410
 8646SOL     OW31257   1.967   2.120  10.345  0.0752 -0.2086 -0.6046
 8646SOL    HW131258   2.005   2.048  10.397 -0.2119 -0.3460 -0.5837
 8646SOL    HW231259   1.932   2.181  10.410 -0.0800 -0.2685 -0.6321
 8647SOL     OW31260  10.567   3.726  11.117 -0.0071  0.2301 -0.3814
 8647SOL    HW131261  10.527   3.640  11.130 -0.6807  0.4686 -0.8395
 8647SOL    HW231262  10.519   3.764  11.043 -0.4282  1.4216  0.4706
 8648SOL     OW31263   8.092  11.534   3.895  0.0486  0.1910  0.2291
 8648SOL    HW131264   8.108  11.452   3.847  3.5178  0.0332  1.3539
 8648SOL    HW231265   8.126  11.602   3.837 -0.3353  0.5581  0.4312
 8649SOL     OW31266  11.519  11.144   7.524  0.2788  0.0626  0.0675
 8649SOL    HW131267  11.519  11.049   7.510  0.0244 -0.0734  0.8981
 8649SOL    HW231268  11.526  11.153   7.619 -1.2703  0.8438  0.1345
 8650SOL     OW31269  11.112   3.770   6.561  0.4556  0.0532  0.6438
 8650SOL    HW131270  11.169   3.804   6.492 -1.1126 -1.1351 -1.3549
 8650SOL    HW231271  11.111   3.675   6.546 -3.3625  0.1000 -0.6573
 8651SOL     OW31272   4.447   9.427   3.088  0.8833 -0.2661 -0.3633
 8651SOL    HW131273   4.516   9.453   3.149 -1.2459  2.0958  1.2352
 8651SOL    HW231274   4.468   9.336   3.066  2.9200 -0.5605  2.2656
 8652SOL     OW31275  10.384   9.962  10.435  0.4312 -0.1217 -0.1291
 8652SOL    HW131276  10.304   9.911  10.423 -0.2549  0.9562 -0.2585
 8652SOL    HW231277  10.423   9.967  10.348  1.2265 -1.5448  0.1138
 8653SOL     OW31278   9.035   3.829   2.729 -0.4438  0.2254 -0.9516
 8653SOL    HW131279   9.059   3.869   2.646 -1.2734  0.6061 -1.0243
 8653SOL    HW231280   8.997   3.901   2.779 -0.0770 -0.0327 -0.2921
 8654SOL     OW31281   5.497   0.983  10.253 -0.3122 -0.0425 -0.1402
 8654SOL    HW131282   5.431   1.044  10.221  0.1956 -0.1817 -1.5190
 8654SOL    HW231283   5.580   1.016  10.218  0.2825 -0.2367  1.0219
 8655SOL     OW31284   4.661   2.696   7.143 -0.5417  0.2793  0.1734
 8655SOL    HW131285   4.685   2.654   7.225  0.2087  1.1870  0.4330
 8655SOL    HW231286   4.708   2.780   7.143 -1.1518  0.6513 -0.8142
 8656SOL     OW31287   5.017   2.308   4.313  0.3987 -0.0726  0.2352
 8656SOL    HW131288   4.989   2.394   4.344  0.4264  0.1432 -0.3186
 8656SOL    HW231289   4.941   2.274   4.266 -0.0029 -0.8440  1.4169
 8657SOL     OW31290   6.040   9.653   7.994 -0.3437 -0.3790 -0.2781
 8657SOL    HW131291   6.034   9.558   8.003 -0.6229 -0.3333  0.0583
 8657SOL    HW231292   6.053   9.685   8.084 -0.6878 -0.0710 -0.3331
 8658SOL     OW31293   1.300   9.232   8.769  0.2179 -0.1456 -0.0414
 8658SOL    HW131294   1.303   9.247   8.864 -0.5529 -1.5059  0.2258
 8658SOL    HW231295   1.208   9.215   8.750  0.1641  1.3296 -1.2634
 8659SOL     OW31296   8.787   6.490   5.538 -0.2442 -0.2140 -0.0154
 8659SOL    HW131297   8.733   6.437   5.478  0.7444 -1.4195  0.1243
 8659SOL    HW231298   8.771   6.581   5.510 -2.1328 -0.5412 -0.1325
 8660SOL     OW31299  10.261   7.923   0.568 -0.5233  0.4265  0.1675
 8660SOL    HW131300  10.251   7.857   0.499  0.8117  1.6229 -1.2378
 8660SOL    HW231301  10.346   7.905   0.607 -0.7289  0.5130  0.6566
 8661SOL     OW31302   2.654   3.921   3.572  0.1443 -0.1381  0.2906
 8661SOL    HW131303   2.607   3.981   3.513 -0.0465 -1.7567 -1.3032
 8661SOL    HW231304   2.746   3.946   3.562  0.1980 -0.8617 -1.3345
 8662SOL     OW31305   9.000   4.589   3.357  0.3912  0.1134 -0.3287
 8662SOL    HW131306   8.999   4.499   3.391  3.5349 -0.1068 -0.5397
 8662SOL    HW231307   8.934   4.589   3.288 -0.6685 -1.6141  0.6103
 8663SOL     OW31308  10.199   0.267   8.454  0.2556  0.2280  0.1518
 8663SOL    HW131309  10.139   0.296   8.522  0.2020 -1.5357  0.9144
 8663SOL    HW231310  10.152   0.195   8.410  0.9126  0.3173 -0.7290
 8664SOL     OW31311   3.827   3.820  10.403 -0.1520  0.6485 -0.0569
 8664SOL    HW131312   3.821   3.773  10.486  0.5397  0.2651 -0.2145
 8664SOL    HW231313   3.921   3.821  10.382 -0.3050  0.8318 -0.7789
 8665SOL     OW31314  10.270   2.422   4.646  0.2855 -0.0047  0.0430
 8665SOL    HW131315  10.210   2.445   4.575  2.2671  1.1960 -1.3682
 8665SOL    HW231316  10.262   2.494   4.708 -0.9186 -0.6953  0.7310
 8666SOL     OW31317   3.823   5.749   2.581 -0.0333  0.4434  0.4730
 8666SOL    HW131318   3.773   5.667   2.575 -0.3472  0.4889  2.0025
 8666SOL    HW231319   3.832   5.778   2.490 -0.9270 -0.6838 -0.0066
 8667SOL     OW31320  10.538   9.812   9.077 -0.5516 -0.0630  0.0220
 8667SOL    HW131321  10.491   9.770   9.149  2.3410 -0.9395  1.5368
 8667SOL    HW231322  10.516   9.905   9.086 -1.9974 -0.4317  0.6095
 8668SOL     OW31323   7.742   5.310   4.206  0.1247  0.0530 -0.0244
 8668SOL    HW131324   7.656   5.289   4.241  0.4847 -0.8600  0.3273
 8668SOL    HW231325   7.728   5.391   4.157 -0.7139  0.4823  0.8892
 8669SOL     OW31326   9.912  10.788   6.506 -0.0930 -0.9122  0.4135
 8669SOL    HW131327   9.946  10.719   6.449  0.1200 -1.4481  1.1651
 8669SOL    HW231328   9.831  10.817   6.464  1.0780  0.1227 -1.2143
 8670SOL     OW31329   4.526   6.321  10.747  0.1186  0.1188 -0.3782
 8670SOL    HW131330   4.536   6.281  10.661  0.2257  0.5646 -0.5787
 8670SOL    HW231331   4.435   6.304  10.771  0.3620 -0.8584 -0.1410
 8671SOL     OW31332   9.605   6.906   2.243 -0.5922  0.1000 -0.3622
 8671SOL    HW131333   9.658   6.838   2.285  0.3361  1.7157  1.1980
 8671SOL    HW231334   9.658   6.935   2.169 -0.5988 -0.2394 -0.5039
 8672SOL     OW31335   7.061   3.489   0.238 -0.2735 -0.2099  0.6814
 8672SOL    HW131336   6.999   3.501   0.166  0.6589 -1.0780 -0.3009
 8672SOL    HW231337   7.113   3.570   0.239  1.0212 -0.9627 -0.9679
 8673SOL     OW31338   0.860  11.658   8.902  0.8514  0.2756 -0.0955
 8673SOL    HW131339   0.814  11.621   8.827 -0.6001  2.1108 -0.1894
 8673SOL    HW231340   0.836  11.601   8.975 -0.0046  0.0678 -0.5159
 8674SOL     OW31341   3.307   6.987  10.878  0.2050 -0.3701  0.1533
 8674SOL    HW131342   3.357   6.907  10.895 -0.7868 -1.0586 -0.1182
 8674SOL    HW231343   3.312   7.036  10.960  1.4211 -0.3674  0.0922
 8675SOL     OW31344   1.614  10.580   7.599 -0.0336  0.3057 -0.1820
 8675SOL    HW131345   1.524  10.549   7.610  0.3352 -0.0887  2.3776
 8675SOL    HW231346   1.608  10.675   7.606 -0.2908  0.3021 -0.3586
 8676SOL     OW31347   1.401   7.510   6.677  0.0345  0.2436 -0.3372
 8676SOL    HW131348   1.465   7.492   6.746 -0.9841  0.5878  0.7523
 8676SOL    HW231349   1.319   7.474   6.711 -0.4587  0.2902 -1.4498
 8677SOL     OW31350  10.490   5.433   3.645  0.2181  0.7005 -0.1854
 8677SOL    HW131351  10.518   5.490   3.573  0.8335 -1.3373 -1.6240
 8677SOL    HW231352  10.571   5.394   3.677 -0.2465  0.2180  0.4132
 8678SOL     OW31353   0.403   8.698   2.383 -0.0350  0.0271  0.9956
 8678SOL    HW131354   0.376   8.607   2.384 -1.3199  0.3946  1.2913
 8678SOL    HW231355   0.432   8.716   2.472  3.8983 -1.0795  0.1461
 8679SOL     OW31356   9.292   6.124   8.928 -0.2530  0.3205  0.3692
 8679SOL    HW131357   9.222   6.166   8.878  0.2123 -0.7098 -1.2199
 8679SOL    HW231358   9.292   6.033   8.897  1.1014  0.0399  1.1276
 8680SOL     OW31359   4.451   9.173   7.379  0.1507  0.1210 -0.6066
 8680SOL    HW131360   4.458   9.238   7.449  1.4267 -1.2352  0.5915
 8680SOL    HW231361   4.443   9.089   7.425 -2.8945 -0.5384 -2.0810
 8681SOL     OW31362   3.058  11.387   3.593 -0.3731 -0.3255 -0.2375
 8681SOL    HW131363   3.075  11.319   3.657 -0.5594 -1.1478 -1.0337
 8681SOL    HW231364   3.074  11.345   3.508 -1.5457  0.2892 -0.7943
 8682SOL     OW31365   1.428   0.979   6.213 -0.6879 -0.1136 -0.2461
 8682SOL    HW131366   1.454   1.000   6.124  0.4127  0.6522  0.2280
 8682SOL    HW231367   1.408   1.063   6.253  0.2184 -0.2853  0.6298
 8683SOL     OW31368  10.052   6.708   0.914 -0.0295  0.4949  0.1326
 8683SOL    HW131369  10.146   6.727   0.915 -0.0612  0.6763 -0.2595
 8683SOL    HW231370  10.016   6.766   0.982  0.3028 -0.4738  1.1711
 8684SOL     OW31371   8.081   0.102   4.740  0.3470 -0.3381  1.1622
 8684SOL    HW131372   8.157   0.131   4.790  0.8942 -0.4845  0.4199
 8684SOL    HW231373   8.037   0.039   4.798  0.9578 -0.4904  1.4655
 8685SOL     OW31374   7.867  10.625   1.828  0.1131  0.3891 -0.5401
 8685SOL    HW131375   7.918  10.703   1.850 -1.3213  1.1861  0.1169
 8685SOL    HW231376   7.881  10.613   1.734  0.1763  1.5966 -0.7037
 8686SOL     OW31377   1.113   6.911   8.791 -0.1585 -0.4029  0.0306
 8686SOL    HW131378   1.097   6.862   8.872 -0.6509  0.0238  0.1947
 8686SOL    HW231379   1.120   7.002   8.819 -0.4526 -0.2386 -0.4241
 8687SOL     OW31380   3.961   8.024   1.042  0.5474 -0.0413  0.1141
 8687SOL    HW131381   3.873   8.025   1.003  0.7335  1.5073 -0.3235
 8687SOL    HW231382   3.998   8.110   1.021  2.3637 -0.8249 -0.1384
 8688SOL     OW31383   5.946   7.892   2.745  0.1002  0.4730 -0.0757
 8688SOL    HW131384   5.946   7.799   2.723  0.7631  0.4465  0.0057
 8688SOL    HW231385   5.996   7.897   2.827  0.9156  1.0059 -0.5890
 8689SOL     OW31386  10.867  11.718   7.838  0.0541 -0.6889  0.6063
 8689SOL    HW131387  10.925  11.714   7.914 -0.2107  1.3842  0.9658
 8689SOL    HW231388  10.806  11.788   7.858  1.0228  1.1212 -2.1877
 8690SOL     OW31389   0.247   9.698  10.056  0.0953  0.1789 -0.7823
 8690SOL    HW131390   0.322   9.640  10.069  0.4311  0.6440 -0.6093
 8690SOL    HW231391   0.283   9.787  10.063 -0.3135  0.4235 -1.5536
 8691SOL     OW31392   8.937   9.642   9.388 -1.1229  0.2619  0.0135
 8691SOL    HW131393   8.855   9.691   9.380 -0.6897  0.9244 -0.4947
 8691SOL    HW231394   9.005   9.708   9.376 -0.5106 -0.6883 -2.1831
 8692SOL     OW31395   4.919   5.676   3.418  0.3817  0.0653  0.3913
 8692SOL    HW131396   4.950   5.765   3.403  1.5744 -0.1730  1.2761
 8692SOL    HW231397   4.844   5.687   3.477 -0.2637  0.5498 -0.5004
 8693SOL     OW31398   9.582  10.498   8.197 -0.1321  0.3416 -0.2650
 8693SOL    HW131399   9.553  10.518   8.286 -1.6740  1.5873 -0.9949
 8693SOL    HW231400   9.653  10.435   8.209 -1.1256 -0.4983  1.7841
 8694SOL     OW31401   4.410   0.068   7.685 -0.1113 -0.0031  0.0767
 8694SOL    HW131402   4.405  -0.026   7.704  1.1710  0.2274  1.7842
 8694SOL    HW231403   4.319   0.098   7.688 -0.4449 -1.0182  0.4737
 8695SOL     OW31404   8.375  10.306   6.654 -0.1904 -0.4804  0.3358
 8695SOL    HW131405   8.368  10.351   6.570 -1.4140 -0.0091  0.6757
 8695SOL    HW231406   8.466  10.279   6.659 -0.4928 -2.3161 -2.0854
 8696SOL     OW31407   2.330   5.024  11.567 -0.1863 -0.0037  0.2031
 8696SOL    HW131408   2.393   5.023  11.638  2.9249  0.4288 -2.3364
 8696SOL    HW231409   2.297   5.114  11.566  1.2178  0.5264 -0.0694
 8697SOL     OW31410   3.327  11.524   1.491  0.8290 -0.2679  0.0746
 8697SOL    HW131411   3.320  11.514   1.396  1.4833  0.3155 -0.0428
 8697SOL    HW231412   3.318  11.618   1.506 -1.3931 -0.5397  0.8041
 8698SOL     OW31413   6.213   8.132   7.299 -0.4255  0.0555 -0.0049
 8698SOL    HW131414   6.280   8.191   7.267  1.0464 -1.3616  0.3288
 8698SOL    HW231415   6.131   8.166   7.263  0.0789  3.2440  1.5405
 8699SOL     OW31416   3.972   7.055   1.600 -0.2593  0.4420  0.0982
 8699SOL    HW131417   3.904   7.017   1.656 -0.1872  0.5471  0.2574
 8699SOL    HW231418   3.924   7.085   1.523 -0.0307 -1.9931 -1.0699
 8700SOL     OW31419   9.245   3.554   2.469 -0.4597  0.0549 -0.5866
 8700SOL    HW131420   9.268   3.523   2.382  2.2501 -0.8495  0.3424
 8700SOL    HW231421   9.280   3.644   2.472 -0.3733  0.0147 -0.3754
 8701SOL     OW31422   5.902   1.722  11.286 -0.2904  0.5976  0.0537
 8701SOL    HW131423   5.990   1.745  11.256 -0.3101  2.2347  1.1014
 8701SOL    HW231424   5.869   1.803  11.325 -1.7864 -0.3364  0.7894
 8702SOL     OW31425   7.178  11.648   6.215  0.0853 -0.4207  0.6469
 8702SOL    HW131426   7.096  11.691   6.193  0.4590 -0.3013 -0.5454
 8702SOL    HW231427   7.239  11.719   6.234  0.4006 -0.4441 -0.2439
 8703SOL     OW31428   1.165   2.823  11.608  0.2017 -0.0774 -0.2169
 8703SOL    HW131429   1.127   2.775  11.682  0.2448 -1.3835 -1.0024
 8703SOL    HW231430   1.186   2.755  11.544 -0.9329  1.1272 -1.9440
 8704SOL     OW31431   7.574   3.825   9.196 -0.7260 -0.1832 -0.2180
 8704SOL    HW131432   7.605   3.860   9.279 -0.2816 -2.0159  0.4339
 8704SOL    HW231433   7.636   3.859   9.131  1.6840 -2.2738  0.8155
 8705SOL     OW31434   9.341   2.699  10.000 -0.4451 -0.0378 -0.3292
 8705SOL    HW131435   9.408   2.631  10.013 -0.3477 -0.1481 -1.3151
 8705SOL    HW231436   9.283   2.690  10.075 -0.1113 -0.8378 -0.1506
 8706SOL     OW31437   0.030   2.762   6.716  0.6198  0.0068  0.2806
 8706SOL    HW131438   0.033   2.845   6.668  1.6389  0.2602  0.7550
 8706SOL    HW231439   0.114   2.720   6.698  0.9146 -0.0161  1.5878
 8707SOL     OW31440  11.644   1.275   6.683 -0.3048  0.3781  0.3766
 8707SOL    HW131441  11.594   1.206   6.727 -1.8613  1.3781  0.2484
 8707SOL    HW231442  11.594   1.355   6.700  0.4117  1.1703 -1.1242
 8708SOL     OW31443   1.101  11.300   9.452  0.4013 -0.0621 -0.8275
 8708SOL    HW131444   1.018  11.279   9.409 -1.3365 -1.6104  2.8392
 8708SOL    HW231445   1.075  11.354   9.527  2.9420  0.6812 -0.4054
 8709SOL     OW31446   2.437   4.885  11.794 -0.0893  0.8390  0.3496
 8709SOL    HW131447   2.450   4.790  11.789 -1.9106  0.6267 -1.2571
 8709SOL    HW231448   2.494   4.913  11.866 -2.2290 -1.9738  3.4035
 8710SOL     OW31449   2.405   9.275   9.893  0.9800  0.1372 -1.0354
 8710SOL    HW131450   2.312   9.273   9.869  0.9542 -0.0592 -0.9250
 8710SOL    HW231451   2.427   9.368   9.895 -0.1563  0.4653  2.4632
 8711SOL     OW31452   9.782   0.747   4.246  0.4045  0.0540 -0.5883
 8711SOL    HW131453   9.696   0.740   4.289  0.3992  0.9134 -0.4272
 8711SOL    HW231454   9.774   0.825   4.191  0.6620 -0.6107 -1.5860
 8712SOL     OW31455  10.343   8.082   4.016  0.3108 -1.2298  0.0905
 8712SOL    HW131456  10.262   8.056   3.972  1.0925 -1.4186 -1.3069
 8712SOL    HW231457  10.399   8.004   4.010  0.8167 -0.9031  0.4801
 8713SOL     OW31458  10.920   7.876   0.988  0.1640  0.2048  0.2579
 8713SOL    HW131459  10.852   7.861   0.922  0.6315 -1.0536  0.0429
 8713SOL    HW231460  10.892   7.956   1.033 -0.2545  1.0099 -1.3408
 8714SOL     OW31461   2.983   2.883   1.028 -0.1003 -0.1255 -0.1011
 8714SOL    HW131462   2.892   2.853   1.022  0.3687 -2.6429  3.0834
 8714SOL    HW231463   3.030   2.829   0.965 -0.4463 -0.4532 -0.0786
 8715SOL     OW31464  10.642   4.222   6.925  0.3333 -0.4627 -0.2202
 8715SOL    HW131465  10.597   4.225   7.010 -0.0254  1.0361 -0.4391
 8715SOL    HW231466  10.586   4.167   6.870  1.0154 -2.1837  0.7390
 8716SOL     OW31467   2.910   5.133  11.347 -0.2299  0.3138 -0.1528
 8716SOL    HW131468   2.952   5.154  11.264 -0.8569 -0.0516 -0.5689
 8716SOL    HW231469   2.877   5.217  11.379  0.2586  0.5007 -0.1301
 8717SOL     OW31470   7.264   2.526   5.421  0.1285  0.2711  1.0112
 8717SOL    HW131471   7.207   2.590   5.463 -0.4291 -1.1869  2.5645
 8717SOL    HW231472   7.217   2.499   5.343  0.0572  1.2243  0.7137
 8718SOL     OW31473   3.254   6.465   5.878  0.5750 -0.8549 -0.0104
 8718SOL    HW131474   3.206   6.547   5.874 -0.3118 -1.3169  0.6536
 8718SOL    HW231475   3.337   6.483   5.835  0.1503  0.2125 -0.4124
 8719SOL     OW31476   5.171  10.306   6.246  0.1875  0.2190 -0.2963
 8719SOL    HW131477   5.190  10.212   6.241  1.8536  0.5367 -0.3625
 8719SOL    HW231478   5.101  10.319   6.183 -1.4432 -1.2837  1.0897
 8720SOL     OW31479   2.832   8.409   8.063 -0.1903 -0.0876  0.4855
 8720SOL    HW131480   2.884   8.393   7.985  0.5179 -0.2330  0.9756
 8720SOL    HW231481   2.763   8.470   8.035 -0.4731 -0.8196 -0.4479
 8721SOL     OW31482   3.666   1.794   7.559  0.0467 -0.2791 -0.3227
 8721SOL    HW131483   3.631   1.717   7.603 -0.6695 -1.3856 -2.6828
 8721SOL    HW231484   3.590   1.836   7.519  0.8420 -0.4195 -2.0949
 8722SOL     OW31485   3.484   9.981   8.581 -0.0222 -0.2754  0.2145
 8722SOL    HW131486   3.507   9.955   8.670 -0.9546 -0.9182  0.2782
 8722SOL    HW231487   3.407  10.038   8.592 -0.0562 -0.2448 -0.1654
 8723SOL     OW31488   8.463   1.585   5.348 -0.6229 -0.5521 -0.2672
 8723SOL    HW131489   8.426   1.673   5.360  0.0939  0.0020 -1.8537
 8723SOL    HW231490   8.516   1.570   5.426  0.2670  0.9787 -0.5404
 8724SOL     OW31491   2.644   6.206  10.810  0.5134  0.3698 -0.2782
 8724SOL    HW131492   2.662   6.284  10.862  1.1516 -0.2814  0.5058
 8724SOL    HW231493   2.690   6.220  10.728 -1.3704  1.8851 -1.1413
 8725SOL     OW31494   1.195   8.048   0.551  0.1749 -0.3025  0.5813
 8725SOL    HW131495   1.259   8.115   0.528 -0.7170  0.4917  0.3585
 8725SOL    HW231496   1.160   8.018   0.467 -0.0465 -0.4314  0.7181
 8726SOL     OW31497   3.801  10.657   7.641  0.5516 -0.4571  0.1206
 8726SOL    HW131498   3.775  10.745   7.615  0.8702 -1.1973 -3.1900
 8726SOL    HW231499   3.726  10.601   7.618  0.7045 -1.2030  1.3097
 8727SOL     OW31500   5.631   0.255   8.471  0.0500  0.1239 -0.8876
 8727SOL    HW131501   5.695   0.196   8.433  2.2622  2.2803 -0.7147
 8727SOL    HW231502   5.619   0.324   8.406 -1.1130  0.4711 -0.3472
 8728SOL     OW31503   9.289   6.396   8.369 -0.9187  0.1540 -0.3727
 8728SOL    HW131504   9.220   6.446   8.413 -1.0747  1.3628 -1.9268
 8728SOL    HW231505   9.367   6.452   8.374  0.1202 -1.3188  1.6230
 8729SOL     OW31506   8.087   3.566   1.745  0.1696 -0.0173  0.3575
 8729SOL    HW131507   8.113   3.537   1.833  0.2174 -1.1205 -0.0070
 8729SOL    HW231508   8.168   3.600   1.706  0.2692 -0.0525  0.5327
 8730SOL     OW31509   7.176   1.382   2.508 -0.5778 -0.4406  0.1539
 8730SOL    HW131510   7.233   1.393   2.583  0.7637  0.0955 -0.9098
 8730SOL    HW231511   7.231   1.402   2.432 -2.4680  1.2937 -0.8599
 8731SOL     OW31512   2.620  10.820   6.752  0.1262  0.2892  0.3467
 8731SOL    HW131513   2.574  10.847   6.831 -1.1646  1.2671 -0.6987
 8731SOL    HW231514   2.703  10.868   6.756  0.8697 -1.0312  1.9479
 8732SOL     OW31515   7.706   9.061   2.481  0.2868  0.1459  0.1033
 8732SOL    HW131516   7.799   9.052   2.460  0.1325 -0.5386 -0.3319
 8732SOL    HW231517   7.664   8.992   2.429 -0.3490 -0.1869  1.0493
 8733SOL     OW31518   5.220   5.216   1.264 -0.1359  0.4996 -0.1726
 8733SOL    HW131519   5.264   5.177   1.339  0.2948 -0.5870 -0.9779
 8733SOL    HW231520   5.129   5.185   1.271 -0.4941  1.6603  0.7384
 8734SOL     OW31521   1.948   7.897   9.490 -0.3744  0.0045  0.0991
 8734SOL    HW131522   1.889   7.822   9.499 -0.7270  0.1947 -0.5861
 8734SOL    HW231523   2.034   7.863   9.510 -0.4051 -0.7943 -1.0472
 8735SOL     OW31524  10.673   6.096  10.969 -0.9060 -0.3771  0.0066
 8735SOL    HW131525  10.668   6.174  10.914 -0.8866 -1.7697 -2.1125
 8735SOL    HW231526  10.763   6.095  11.001 -0.3718 -0.4247 -1.4259
 8736SOL     OW31527   2.121   2.342   3.881  0.0167  0.8708  0.2822
 8736SOL    HW131528   2.040   2.295   3.895  0.1590  0.6361  0.3212
 8736SOL    HW231529   2.173   2.325   3.960  0.9192 -0.6424 -0.5772
 8737SOL     OW31530   1.501   4.184   8.772 -0.2655  0.1751 -0.2624
 8737SOL    HW131531   1.490   4.116   8.705 -0.7287  1.3675 -1.4588
 8737SOL    HW231532   1.596   4.189   8.786 -0.2462 -0.8856  0.0435
 8738SOL     OW31533   3.953   6.207   6.707 -0.2347 -0.3169 -0.1034
 8738SOL    HW131534   3.886   6.234   6.645 -0.1207  0.0035 -0.0892
 8738SOL    HW231535   3.923   6.241   6.792 -0.8283 -1.4909  0.1826
 8739SOL     OW31536   1.668   7.180   8.372 -0.4995  0.1901  0.1112
 8739SOL    HW131537   1.635   7.104   8.418  0.1273  0.0895  0.3985
 8739SOL    HW231538   1.589   7.225   8.341 -0.9708  0.5669  1.7492
 8740SOL     OW31539  10.834   0.130   1.531 -0.1699 -0.0198 -0.2096
 8740SOL    HW131540  10.771   0.122   1.602 -1.9669  2.9168 -1.2744
 8740SOL    HW231541  10.881   0.212   1.550  1.9213 -1.0850 -0.5341
 8741SOL     OW31542   4.349  11.414   8.474 -0.0409 -0.1106 -0.3689
 8741SOL    HW131543   4.303  11.425   8.557 -0.9157 -0.4003 -0.7981
 8741SOL    HW231544   4.391  11.498   8.458 -0.0007 -0.0017  0.2851
 8742SOL     OW31545  10.294   9.525  11.082 -0.4299  0.6414  0.7892
 8742SOL    HW131546  10.218   9.492  11.033 -0.3198  0.1012  0.9795
 8742SOL    HW231547  10.264   9.609  11.119 -0.9941  0.3481  1.0074
 8743SOL     OW31548   0.959   5.411   3.793 -0.7114 -0.5620 -0.1435
 8743SOL    HW131549   0.894   5.475   3.764  1.0831  1.5668  0.2343
 8743SOL    HW231550   0.999   5.450   3.871  2.2675 -0.8135 -1.3882
 8744SOL     OW31551   8.781   3.839   8.980 -0.4825 -0.3012 -0.1199
 8744SOL    HW131552   8.833   3.759   8.987  0.1368  0.1785  1.1271
 8744SOL    HW231553   8.762   3.848   8.887  2.0333 -0.2933 -0.7115
 8745SOL     OW31554   6.881   6.185   1.087  0.2488  0.6300  0.3542
 8745SOL    HW131555   6.879   6.098   1.048  0.7393  0.6273  0.3283
 8745SOL    HW231556   6.822   6.237   1.033  0.5253  0.4954 -0.0791
 8746SOL     OW31557   4.355   1.635   5.837  0.5051 -0.0881  0.3470
 8746SOL    HW131558   4.410   1.706   5.805  1.1818 -1.1757 -0.9754
 8746SOL    HW231559   4.329   1.587   5.759 -2.1533  0.2049  0.9441
 8747SOL     OW31560   3.404   6.017   9.708  0.5992  0.8967 -0.1023
 8747SOL    HW131561   3.353   6.058   9.638 -0.0898  1.2301  0.5690
 8747SOL    HW231562   3.393   5.923   9.695 -2.8240  0.8666  1.7687
 8748SOL     OW31563   4.268   4.367   8.507  0.2529  0.2757  0.0013
 8748SOL    HW131564   4.175   4.346   8.500  0.2738  0.0137  0.5052
 8748SOL    HW231565   4.277   4.450   8.459 -0.0803 -0.1258 -0.7699
 8749SOL     OW31566   7.730   7.197  11.453  0.2939  0.2008 -0.2651
 8749SOL    HW131567   7.668   7.270  11.460  0.4765  0.3286  0.0511
 8749SOL    HW231568   7.706   7.139  11.525  0.7690  0.4275  0.0837
 8750SOL     OW31569  11.158   5.754   7.967  0.0899  0.2053  0.7523
 8750SOL    HW131570  11.243   5.762   7.924 -0.4120  3.1594  0.0915
 8750SOL    HW231571  11.114   5.682   7.921  1.1537  0.5470 -0.8560
 8751SOL     OW31572   3.052   2.450   9.286  0.0408  0.2195 -0.4476
 8751SOL    HW131573   3.056   2.460   9.381 -1.8103  0.6940 -0.3661
 8751SOL    HW231574   3.074   2.358   9.270  1.0627  0.3143  0.3697
 8752SOL     OW31575   8.516   3.842   6.006  0.8074  0.5648  0.0889
 8752SOL    HW131576   8.432   3.802   6.032  0.5564  0.6165 -0.6266
 8752SOL    HW231577   8.569   3.768   5.975  0.7631  0.6241 -0.1334
 8753SOL     OW31578   7.263   6.242   2.605  0.0239  0.1303 -0.7021
 8753SOL    HW131579   7.281   6.325   2.561  0.8486  0.6911  0.6332
 8753SOL    HW231580   7.343   6.223   2.654 -0.8553 -0.4531  0.5632
 8754SOL     OW31581   9.326   1.204   4.393 -0.4224  0.1968  0.5723
 8754SOL    HW131582   9.308   1.214   4.300  1.5980  1.9663  0.3119
 8754SOL    HW231583   9.241   1.179   4.431 -1.4653  0.2215 -1.5979
 8755SOL     OW31584   4.669   9.503   6.928  0.0775 -0.3038  0.1102
 8755SOL    HW131585   4.578   9.497   6.897  0.0989  0.8015 -0.2140
 8755SOL    HW231586   4.712   9.425   6.891 -0.6639 -0.6787  0.0183
 8756SOL     OW31587   7.825   2.846   4.563 -0.2148 -0.6221  0.0103
 8756SOL    HW131588   7.910   2.834   4.605  0.8034  2.1580 -1.0811
 8756SOL    HW231589   7.816   2.769   4.506  1.1393 -1.3886  0.7566
 8757SOL     OW31590   3.408   5.315   6.865  0.0010 -0.6121 -0.1416
 8757SOL    HW131591   3.339   5.318   6.931 -1.0549  0.2622 -1.2384
 8757SOL    HW231592   3.403   5.400   6.821  2.5524 -0.0502  0.4816
 8758SOL     OW31593   9.528  10.118   1.722 -0.5139  0.7221  0.3737
 8758SOL    HW131594   9.567  10.181   1.782  0.5579 -0.3091  0.8010
 8758SOL    HW231595   9.584  10.121   1.645 -0.7502  0.6544  0.2009
 8759SOL     OW31596   5.099   4.821   4.235 -0.4488  0.3124 -0.1251
 8759SOL    HW131597   5.095   4.734   4.194 -1.3191  0.3809 -0.2136
 8759SOL    HW231598   5.174   4.816   4.294 -0.4299 -0.4739 -0.1974
 8760SOL     OW31599   7.773   5.454   2.202 -0.3059  0.1403 -0.4238
 8760SOL    HW131600   7.694   5.404   2.181  0.8699 -1.7933 -0.5168
 8760SOL    HW231601   7.784   5.445   2.297 -0.4513  0.8220 -0.3361
 8761SOL     OW31602   4.169   9.623   2.094 -0.2554 -0.3271 -0.3933
 8761SOL    HW131603   4.116   9.643   2.171 -0.2059 -1.4140 -0.0550
 8761SOL    HW231604   4.257   9.653   2.116 -0.3368 -0.2346 -0.1959
 8762SOL     OW31605   0.195   5.999   0.385 -0.2065 -0.1187  0.0757
 8762SOL    HW131606   0.236   6.082   0.361 -0.6562 -0.2086 -1.0502
 8762SOL    HW231607   0.127   6.024   0.448 -0.6823  0.4366 -0.6413
 8763SOL     OW31608   3.339   9.247   4.911 -0.0650  0.1356 -0.6115
 8763SOL    HW131609   3.399   9.321   4.900 -0.0674  0.0547 -1.1957
 8763SOL    HW231610   3.385   9.173   4.870  0.6943 -0.6006  1.4144
 8764SOL     OW31611   4.303   8.637   7.879  0.0537 -0.1949  0.6530
 8764SOL    HW131612   4.277   8.653   7.969  0.5953 -1.0660  0.9796
 8764SOL    HW231613   4.338   8.720   7.849 -1.6174  0.5659  0.7013
 8765SOL     OW31614   6.735   1.199   3.953  0.0897  0.1392 -0.6624
 8765SOL    HW131615   6.728   1.138   4.027 -1.2344 -0.4701 -1.2522
 8765SOL    HW231616   6.828   1.195   3.928  0.0903 -1.4917 -0.5370
 8766SOL     OW31617   5.502   9.949  11.449 -0.5002 -0.6308  0.0945
 8766SOL    HW131618   5.577   9.949  11.390 -0.3540  0.8052  0.2296
 8766SOL    HW231619   5.434   9.999  11.403 -0.1552  1.1156  1.3269
 8767SOL     OW31620   2.538   7.657   9.350 -0.5168 -0.5599  0.0677
 8767SOL    HW131621   2.567   7.591   9.287  0.2925  0.0084 -0.1659
 8767SOL    HW231622   2.456   7.621   9.385 -1.5107 -0.4708 -1.9761
 8768SOL     OW31623   1.307   9.173   8.060  0.2517  0.7853 -0.2691
 8768SOL    HW131624   1.289   9.216   8.143 -1.2435 -0.1586 -0.0640
 8768SOL    HW231625   1.227   9.183   8.009  0.3413 -0.5556 -0.7278
 8769SOL     OW31626   5.279   2.776   6.552  0.1585 -0.2965 -0.0633
 8769SOL    HW131627   5.309   2.862   6.523 -0.8791 -0.4961 -1.8811
 8769SOL    HW231628   5.211   2.796   6.616  0.9863  0.1882  0.6989
 8770SOL     OW31629   4.905   5.151   7.804  0.1709  0.0511 -0.2120
 8770SOL    HW131630   4.822   5.107   7.823 -0.6208  2.0512  1.3518
 8770SOL    HW231631   4.919   5.208   7.879  1.8115  1.4414 -1.4974
 8771SOL     OW31632   8.871   5.889   5.237 -0.2699  0.1855 -0.3475
 8771SOL    HW131633   8.808   5.817   5.236 -0.1854  0.1160 -0.7728
 8771SOL    HW231634   8.817   5.968   5.238 -0.3845  0.1434 -1.4394
 8772SOL     OW31635   6.579   2.752  11.225  0.5246 -0.4528 -0.4366
 8772SOL    HW131636   6.564   2.754  11.130  0.5305 -2.8154 -0.5343
 8772SOL    HW231637   6.657   2.807  11.238 -0.5032  1.3725 -1.5174
 8773SOL     OW31638   0.465   1.310   4.710  0.2357  0.1858 -0.3274
 8773SOL    HW131639   0.528   1.264   4.655  1.8142  0.2648  1.3250
 8773SOL    HW231640   0.472   1.401   4.682 -0.5591 -0.0728 -1.4298
 8774SOL     OW31641   9.045   7.763   7.913  0.2063 -0.2029 -0.3894
 8774SOL    HW131642   9.137   7.783   7.895  1.2761 -0.6060  3.6431
 8774SOL    HW231643   9.036   7.669   7.894  0.6564 -0.2092 -0.5700
 8775SOL     OW31644   9.770   6.731   1.827  0.6288  0.0300 -0.4002
 8775SOL    HW131645   9.765   6.635   1.820 -1.4705  0.1566 -1.2618
 8775SOL    HW231646   9.770   6.762   1.736 -0.5775  0.8910 -0.1306
 8776SOL     OW31647   4.700   9.576  11.640 -0.5115  0.2750 -0.4804
 8776SOL    HW131648   4.685   9.652  11.696  2.0700  0.1215  0.5150
 8776SOL    HW231649   4.631   9.514  11.665 -0.8866  1.1589  0.7524
 8777SOL     OW31650   0.194   5.418   0.232 -0.3746  0.3791 -0.5209
 8777SOL    HW131651   0.131   5.413   0.160 -0.2578 -1.3770 -0.5425
 8777SOL    HW231652   0.263   5.477   0.199 -0.3628 -0.3136 -1.8132
 8778SOL     OW31653   1.360   6.440  11.348 -0.4194  0.0235 -0.3112
 8778SOL    HW131654   1.337   6.387  11.271 -0.2135 -2.5299  1.2512
 8778SOL    HW231655   1.294   6.509  11.350 -1.1820 -0.5897 -2.0845
 8779SOL     OW31656   8.025   7.362  11.805  0.1528  0.4985 -0.2143
 8779SOL    HW131657   8.039   7.413  11.726 -1.0627  0.1534 -0.6736
 8779SOL    HW231658   7.935   7.331  11.798  0.6052 -1.0872  0.3983
 8780SOL     OW31659   8.000   6.019   0.259 -0.0583  0.1911  0.1812
 8780SOL    HW131660   7.998   5.944   0.199 -1.3335 -0.8376  1.4278
 8780SOL    HW231661   7.909   6.049   0.262  0.4861  2.0055 -0.5088
 8781SOL     OW31662   9.451   4.984   3.962  0.1960 -0.4008 -0.2788
 8781SOL    HW131663   9.512   5.043   3.917  0.1831  0.3109  0.5873
 8781SOL    HW231664   9.508   4.928   4.016  0.1833 -0.9027 -0.7843
 8782SOL     OW31665   5.603   1.826   9.047 -0.2882 -0.2951 -0.9835
 8782SOL    HW131666   5.661   1.813   9.123  0.0875  0.2745 -1.1675
 8782SOL    HW231667   5.644   1.776   8.977  0.9465  1.4799 -1.5861
 8783SOL     OW31668   6.408   8.588   5.470  0.0369 -0.1315  0.0994
 8783SOL    HW131669   6.471   8.616   5.537  0.3280  1.1383 -0.6683
 8783SOL    HW231670   6.333   8.646   5.482 -1.0723 -1.6936  1.0651
 8784SOL     OW31671   8.613  10.590   7.076  0.2772 -0.0311  0.0103
 8784SOL    HW131672   8.665  10.647   7.019 -0.6518 -1.0482 -1.9443
 8784SOL    HW231673   8.652  10.602   7.162  2.1077  1.1636 -0.8968
 8785SOL     OW31674   0.806   8.835   7.586 -0.0414  0.1831  0.4126
 8785SOL    HW131675   0.745   8.827   7.660 -0.4921  0.5952  0.0895
 8785SOL    HW231676   0.755   8.805   7.510 -0.5171  2.3790 -0.1928
 8786SOL     OW31677   0.262   6.550   3.492 -0.0074  0.4648 -0.1671
 8786SOL    HW131678   0.207   6.584   3.562  0.2528  2.1537 -0.7436
 8786SOL    HW231679   0.201   6.531   3.421 -0.0151  1.0831 -0.3345
 8787SOL     OW31680   0.312   3.540   5.533 -0.4788 -0.2993 -0.2259
 8787SOL    HW131681   0.311   3.492   5.615  0.8880 -0.2990 -0.1754
 8787SOL    HW231682   0.371   3.614   5.550 -0.2815 -0.2306 -1.1537
 8788SOL     OW31683   9.316   4.048   9.239 -0.5360  0.8058 -0.0300
 8788SOL    HW131684   9.277   4.128   9.204  2.1385  2.0166 -0.4784
 8788SOL    HW231685   9.291   4.046   9.331 -3.5208  0.2295 -0.7630
 8789SOL     OW31686   3.407   0.428   5.640  0.3023 -0.2741  0.3648
 8789SOL    HW131687   3.400   0.362   5.709  1.2678  1.0615  1.8082
 8789SOL    HW231688   3.393   0.512   5.685  0.3689  0.6092 -1.1751
 8790SOL     OW31689   9.036   9.201   4.042  0.1211  0.9995 -0.1270
 8790SOL    HW131690   9.098   9.250   3.989  1.7319 -0.3784  0.4248
 8790SOL    HW231691   8.988   9.146   3.979  1.5116 -0.0843 -0.2735
 8791SOL     OW31692   7.486   2.976  11.556  0.6343  0.3014  0.0244
 8791SOL    HW131693   7.393   2.951  11.548  0.2295  0.7906  2.5135
 8791SOL    HW231694   7.528   2.901  11.598  1.3293  0.2039 -0.8190
 8792SOL     OW31695   1.406   1.158  10.638 -0.0197  0.2490  0.0669
 8792SOL    HW131696   1.418   1.063  10.642 -1.5586  0.0404  4.0724
 8792SOL    HW231697   1.482   1.194  10.683  0.5922  1.0176 -1.4855
 8793SOL     OW31698   8.382   1.339   5.929 -0.5651  0.5897 -0.4438
 8793SOL    HW131699   8.354   1.248   5.918  2.6706 -0.3583 -2.1739
 8793SOL    HW231700   8.356   1.382   5.848 -0.2615  0.6642 -0.5019
 8794SOL     OW31701  11.669   8.857   6.265 -0.3052  0.0867  0.1190
 8794SOL    HW131702  11.756   8.863   6.303  0.3698 -0.8785 -1.2424
 8794SOL    HW231703  11.671   8.917   6.190 -0.2075 -1.2516 -0.9876
 8795SOL     OW31704   8.543   7.159   3.488  0.0517  0.8975 -0.3961
 8795SOL    HW131705   8.497   7.202   3.561  2.3108  0.0906  1.6282
 8795SOL    HW231706   8.587   7.230   3.442  1.0669  1.1558  0.9202
 8796SOL     OW31707   1.681   8.789  11.707  0.1354 -0.2540  0.8346
 8796SOL    HW131708   1.766   8.747  11.700  0.3430  0.3659 -0.5965
 8796SOL    HW231709   1.619   8.724  11.672  0.5279  0.7552 -1.9828
 8797SOL     OW31710   1.601   9.235   0.035  0.2255  0.1248  0.3475
 8797SOL    HW131711   1.692   9.228   0.064  0.0494  1.4831  1.2851
 8797SOL    HW231712   1.602   9.197  -0.053  1.6662  0.0056  0.3862
 8798SOL     OW31713   8.142   4.536  11.256  0.1709  0.0867  0.6019
 8798SOL    HW131714   8.063   4.501  11.297 -0.9011  1.6350 -0.0804
 8798SOL    HW231715   8.135   4.509  11.165  0.9690 -0.6408  0.7413
 8799SOL     OW31716  11.650   9.415   1.787  0.2078  0.2388 -0.1709
 8799SOL    HW131717  11.657   9.504   1.751  0.8687 -0.1158 -0.9401
 8799SOL    HW231718  11.670   9.426   1.880  0.4223  0.8830 -0.2828
 8800SOL     OW31719   4.821   6.835   8.650  0.9935  0.5184 -0.0181
 8800SOL    HW131720   4.837   6.912   8.704  2.3652  1.1425 -1.2372
 8800SOL    HW231721   4.808   6.870   8.562 -1.4878 -0.4401 -0.1145
 8801SOL     OW31722   8.530   6.228   5.601 -0.4205 -0.5880 -0.3252
 8801SOL    HW131723   8.580   6.295   5.647 -1.5666  0.1708 -0.1194
 8801SOL    HW231724   8.563   6.231   5.511 -0.8313  0.6833 -0.4651
 8802SOL     OW31725   5.298   7.715   0.193  0.0031  0.4076 -0.0968
 8802SOL    HW131726   5.225   7.758   0.238  0.0200  1.1032 -0.6994
 8802SOL    HW231727   5.341   7.663   0.260 -1.8279 -1.0786 -0.0160
 8803SOL     OW31728   1.016   3.932   2.370 -0.2242  0.5084  0.3697
 8803SOL    HW131729   1.032   3.878   2.447 -0.2352 -2.0892 -1.3383
 8803SOL    HW231730   1.086   3.997   2.370  2.0883 -1.8540  0.5367
 8804SOL     OW31731   4.874  10.935   8.225  0.4436  0.6856 -0.5405
 8804SOL    HW131732   4.931  10.996   8.178 -0.0397  1.4592 -0.1393
 8804SOL    HW231733   4.840  10.877   8.156  1.2835  0.5466 -0.8557
 8805SOL     OW31734   4.861  10.133   9.838 -0.1189 -0.3870 -0.2604
 8805SOL    HW131735   4.864  10.147   9.743 -0.5930  1.2620 -0.0556
 8805SOL    HW231736   4.769  10.115   9.856 -0.0509 -0.5645 -0.0917
 8806SOL     OW31737   5.635   7.003   2.124 -0.1600  0.4050  0.0971
 8806SOL    HW131738   5.725   7.014   2.154 -0.0994  1.3223 -0.3905
 8806SOL    HW231739   5.631   6.913   2.092  0.8652  0.6449 -0.7757
 8807SOL     OW31740   6.971  11.737   1.986  0.3075 -0.4325 -0.0731
 8807SOL    HW131741   7.011  11.734   2.073 -0.8003  2.7632  0.7056
 8807SOL    HW231742   7.021  11.803   1.939 -0.7864 -0.1608 -0.8863
 8808SOL     OW31743   3.982   9.520   0.506  0.3227  0.2695 -0.4851
 8808SOL    HW131744   3.886   9.524   0.503  0.0683 -2.0172  1.6590
 8808SOL    HW231745   4.004   9.524   0.599  2.2795  0.1177 -0.8933
 8809SOL     OW31746   1.650   9.537  10.717  0.4741 -0.1928  0.2315
 8809SOL    HW131747   1.710   9.555  10.789  0.7213 -0.4091  0.0813
 8809SOL    HW231748   1.565   9.571  10.747  0.7396  0.4154  0.3081
 8810SOL     OW31749   1.738   1.918   3.021 -0.4995 -0.2388 -0.3180
 8810SOL    HW131750   1.803   1.903   3.089  1.0861 -2.1987 -2.1257
 8810SOL    HW231751   1.710   2.009   3.033  1.0265  0.0047  1.7941
 8811SOL     OW31752  11.785   7.826   1.338 -0.0604  0.0738  0.0728
 8811SOL    HW131753  11.774   7.912   1.378 -0.8976  1.0742 -2.1231
 8811SOL    HW231754  11.879   7.811   1.338  0.1062  1.0569  0.3723
 8812SOL     OW31755   3.482   7.067   2.270  0.1959 -0.4511 -0.0620
 8812SOL    HW131756   3.387   7.083   2.263  0.0159  0.3869  2.9055
 8812SOL    HW231757   3.499   6.999   2.206 -2.3822 -0.4936 -0.8485
 8813SOL     OW31758  11.553   9.488   0.091 -0.4368 -0.1105 -0.0228
 8813SOL    HW131759  11.463   9.517   0.105 -0.7759 -1.6905  1.4654
 8813SOL    HW231760  11.573   9.434   0.168  1.4536 -0.5759 -0.7803
 8814SOL     OW31761   3.869   4.483   3.580  0.5030  0.1103  0.1080
 8814SOL    HW131762   3.946   4.436   3.547  1.7169  1.5181  0.7926
 8814SOL    HW231763   3.905   4.542   3.647 -1.6518 -1.8198  3.2439
 8815SOL     OW31764   9.038   6.584   3.772  0.6399  0.1129  0.0805
 8815SOL    HW131765   9.073   6.565   3.859  0.3980  2.7641  0.8490
 8815SOL    HW231766   8.950   6.620   3.789 -0.1350 -1.0039 -1.4029
 8816SOL     OW31767   8.246   6.907   4.828 -0.4147  0.0886 -0.1353
 8816SOL    HW131768   8.235   6.962   4.751 -2.2486  2.1297  1.4486
 8816SOL    HW231769   8.212   6.822   4.802  0.3750  0.2863 -1.9772
 8817SOL     OW31770   8.129   8.145   7.857 -0.0013  0.5010  0.3722
 8817SOL    HW131771   8.146   8.157   7.764 -1.0313 -0.6185  0.0196
 8817SOL    HW231772   8.158   8.227   7.897  2.4962  0.2032 -0.6286
 8818SOL     OW31773   8.018   1.270   2.614  0.2751  0.1023  0.3515
 8818SOL    HW131774   8.015   1.237   2.524  0.5597  1.0093 -0.0021
 8818SOL    HW231775   7.994   1.195   2.668  2.0617 -1.0502 -0.3383
 8819SOL     OW31776  10.745   4.940   5.472 -0.1114  0.5442 -0.5476
 8819SOL    HW131777  10.658   4.910   5.445 -0.1545 -0.0099  0.1872
 8819SOL    HW231778  10.755   4.908   5.561  2.0982 -2.1700 -1.6165
 8820SOL     OW31779   9.228  10.338   8.308 -0.5180 -0.3508 -0.2944
 8820SOL    HW131780   9.195  10.384   8.231  0.8957  0.7190 -0.3188
 8820SOL    HW231781   9.224  10.404   8.378  0.1995 -0.6375  0.0225
 8821SOL     OW31782   6.177   2.850   4.285 -0.0650  0.6684  0.3242
 8821SOL    HW131783   6.196   2.828   4.376 -0.5179 -0.8878  0.0805
 8821SOL    HW231784   6.160   2.944   4.286  3.0644  1.3363  1.3031
 8822SOL     OW31785   6.957   7.917   4.614 -0.3271  0.5083 -0.0366
 8822SOL    HW131786   7.042   7.888   4.644 -0.2682  0.6372 -0.0786
 8822SOL    HW231787   6.916   7.838   4.578 -0.1615  0.4789 -0.1648
 8823SOL     OW31788   2.990   8.123  10.233 -0.6893  0.0603  0.0874
 8823SOL    HW131789   3.046   8.054  10.269 -0.7168  0.4159  0.8264
 8823SOL    HW231790   2.901   8.096  10.254 -0.8177 -0.5538 -1.1756
 8824SOL     OW31791   2.877   5.717   7.773  0.1927 -0.2514  0.0499
 8824SOL    HW131792   2.901   5.646   7.833 -1.2805 -0.8392 -0.0232
 8824SOL    HW231793   2.895   5.797   7.822  2.8226 -0.5801 -0.2050
 8825SOL     OW31794   4.018   3.510   5.192 -0.1700 -0.2268 -0.0945
 8825SOL    HW131795   3.944   3.510   5.132 -0.6250 -1.6436  0.4261
 8825SOL    HW231796   3.996   3.444   5.258  1.5216 -0.6572  0.1040
 8826SOL     OW31797   2.910   1.890  11.153  0.4581 -0.7567  0.1987
 8826SOL    HW131798   2.983   1.852  11.201  1.0183 -0.7701 -0.6440
 8826SOL    HW231799   2.949   1.924  11.072 -0.6588 -1.9344 -0.8788
 8827SOL     OW31800   0.736  10.792   7.980 -0.2491  0.0996 -0.4147
 8827SOL    HW131801   0.811  10.841   7.945  0.3257 -0.4261  0.0591
 8827SOL    HW231802   0.775  10.725   8.035 -1.1279  0.7001  0.9793
 8828SOL     OW31803   8.230   3.118  10.443 -0.3293 -0.3723 -0.0658
 8828SOL    HW131804   8.259   3.052  10.380  2.5314  1.0836 -0.5036
 8828SOL    HW231805   8.196   3.189  10.389  1.9864  0.8157 -0.1103
 8829SOL     OW31806   5.118   7.019   4.105  0.0992 -0.4509 -0.0117
 8829SOL    HW131807   5.058   7.030   4.180  1.1804 -1.6765  1.0858
 8829SOL    HW231808   5.094   6.935   4.067 -0.7254  0.3533 -1.3681
 8830SOL     OW31809   6.601   3.830   2.921 -0.0779 -0.0078 -0.0736
 8830SOL    HW131810   6.550   3.824   3.002 -0.5002  1.0183 -0.2586
 8830SOL    HW231811   6.623   3.923   2.913  3.4208 -0.5678  0.9798
 8831SOL     OW31812   4.128   9.263  10.777  0.6403 -0.4324  0.1861
 8831SOL    HW131813   4.200   9.267  10.714  2.0338 -1.5230  1.6248
 8831SOL    HW231814   4.171   9.246  10.861 -1.2434 -0.1511  1.2534
 8832SOL     OW31815   7.481   3.458   7.487 -0.4440 -0.6761 -0.1983
 8832SOL    HW131816   7.545   3.387   7.489  3.0986  2.2099  1.5144
 8832SOL    HW231817   7.424   3.441   7.562  0.1516 -1.8129  0.0238
 8833SOL     OW31818   6.410   5.292   9.238  0.0002  0.4601 -0.0235
 8833SOL    HW131819   6.343   5.292   9.170  0.2301  1.1425 -0.2513
 8833SOL    HW231820   6.372   5.346   9.308  0.3031  0.8418 -0.1501
 8834SOL     OW31821   3.938   4.958   5.715 -0.0700 -0.2716  0.2654
 8834SOL    HW131822   3.930   4.945   5.809  1.7216 -0.2772  0.4359
 8834SOL    HW231823   3.853   4.994   5.689 -0.5761 -0.2352  1.8772
 8835SOL     OW31824  11.563   8.316   9.085  0.7909  0.2903  0.5843
 8835SOL    HW131825  11.478   8.357   9.072  0.9175  0.0599 -1.2887
 8835SOL    HW231826  11.544   8.231   9.125 -0.0790 -0.5749 -1.5249
 8836SOL     OW31827   5.515  11.463   7.529 -0.5087  0.0384 -0.4497
 8836SOL    HW131828   5.524  11.547   7.483 -0.1622  0.2342 -0.0296
 8836SOL    HW231829   5.597  11.418   7.512 -0.0500  0.4304  0.5963
 8837SOL     OW31830   2.220   2.934   6.708 -0.3924 -0.3275  0.4643
 8837SOL    HW131831   2.124   2.927   6.706 -0.3389 -2.2485  1.8919
 8837SOL    HW231832   2.241   2.945   6.801  0.7818  0.4247  0.1329
 8838SOL     OW31833   7.843  10.685   8.683  0.2491  0.2515  0.2532
 8838SOL    HW131834   7.769  10.636   8.648 -0.1266 -0.1080  1.4986
 8838SOL    HW231835   7.919  10.648   8.639 -0.1602 -0.5367  0.1945
 8839SOL     OW31836  11.043  11.435   8.093 -0.3109 -1.1489 -0.0494
 8839SOL    HW131837  11.092  11.517   8.086  0.4254 -1.4467  1.2325
 8839SOL    HW231838  11.045  11.399   8.005 -0.7952  0.2751 -0.6787
 8840SOL     OW31839   2.440   7.245   5.981  0.6460  0.0954 -0.3427
 8840SOL    HW131840   2.363   7.298   6.002  1.2098  1.2289 -1.0669
 8840SOL    HW231841   2.479   7.287   5.905  0.3502 -2.1536 -1.8530
 8841SOL     OW31842  10.313   9.773   9.260 -0.0929 -0.7825  0.4904
 8841SOL    HW131843  10.311   9.677   9.268 -1.5944 -0.7260  1.2437
 8841SOL    HW231844  10.339   9.804   9.346 -0.8234 -0.5044  0.6235
 8842SOL     OW31845  11.637   2.988  10.700 -0.3704 -0.3304 -0.2073
 8842SOL    HW131846  11.685   3.023  10.775 -0.3752  2.1640 -1.2688
 8842SOL    HW231847  11.627   3.062  10.641 -2.1619 -1.7120 -1.7823
 8843SOL     OW31848   7.876   6.144  10.418  0.3725  1.1204  0.6483
 8843SOL    HW131849   7.795   6.094  10.416 -0.0468  1.7973  0.1824
 8843SOL    HW231850   7.910   6.131  10.507  1.2723 -1.5122  0.0105
 8844SOL     OW31851   1.252  10.205   9.189  0.1764  0.6360 -0.3938
 8844SOL    HW131852   1.304  10.134   9.228 -0.2483 -0.0849 -1.1200
 8844SOL    HW231853   1.317  10.272   9.168  0.4895  0.8011  0.9968
 8845SOL     OW31854   9.962   2.425   1.832  0.2205 -0.8565  0.0162
 8845SOL    HW131855   9.983   2.334   1.808 -1.0901 -0.6890 -2.0189
 8845SOL    HW231856  10.045   2.471   1.824  1.0663 -1.9631  1.7991
 8846SOL     OW31857  10.015   4.027   3.284  0.4052  0.6406  0.3812
 8846SOL    HW131858   9.996   4.109   3.239  1.0370  0.0023 -1.0858
 8846SOL    HW231859   9.931   3.981   3.285  0.4272  0.5883 -0.2797
 8847SOL     OW31860   7.715   5.132   9.533  0.3873 -0.0383 -0.6538
 8847SOL    HW131861   7.674   5.108   9.616 -1.4001 -0.3743 -1.5860
 8847SOL    HW231862   7.766   5.055   9.508 -0.6449 -0.7126 -0.7838
 8848SOL     OW31863   0.818   1.039   8.058  0.1231  0.0035 -0.9497
 8848SOL    HW131864   0.759   1.021   7.985  0.5665  1.6420 -1.7716
 8848SOL    HW231865   0.859   1.122   8.035 -0.2173  0.9238  1.5060
 8849SOL     OW31866   9.235   5.984   4.560 -0.3594  0.0894 -0.6610
 8849SOL    HW131867   9.296   5.972   4.633 -0.3714  1.3753 -0.4067
 8849SOL    HW231868   9.167   5.918   4.575  0.3335 -0.5627 -0.2732
 8850SOL     OW31869   1.383   6.417  10.001  0.1912  0.6737 -0.3332
 8850SOL    HW131870   1.365   6.329   9.967 -0.1919 -0.1019  1.7301
 8850SOL    HW231871   1.464   6.408  10.050 -0.3664  1.2092  0.7263
 8851SOL     OW31872   4.424   2.152   6.767 -0.6797  0.0656  0.0677
 8851SOL    HW131873   4.438   2.239   6.730 -2.5437 -0.1627 -1.3676
 8851SOL    HW231874   4.348   2.118   6.719 -1.1577 -1.6213  1.8888
 8852SOL     OW31875   5.056   3.307  10.820 -0.6209  0.5233 -0.0926
 8852SOL    HW131876   5.003   3.293  10.741 -1.2952 -1.1783  0.6213
 8852SOL    HW231877   4.997   3.289  10.893  0.3291  0.8417  0.7921
 8853SOL     OW31878  11.629   5.195  11.805  0.5109 -0.4261  0.0224
 8853SOL    HW131879  11.558   5.226  11.861 -1.4542 -0.8333 -2.0907
 8853SOL    HW231880  11.686   5.271  11.794 -1.0364  0.7226 -0.3236
 8854SOL     OW31881   5.872   0.332   6.396 -0.6430  0.3008  0.8285
 8854SOL    HW131882   5.808   0.295   6.456 -1.8214  0.8798 -0.0367
 8854SOL    HW231883   5.823   0.397   6.346 -0.1012 -1.1391 -1.7610
 8855SOL     OW31884   2.957   0.856   8.041  0.1228  0.6365  0.1337
 8855SOL    HW131885   3.047   0.849   8.010 -0.3199 -0.3691 -0.9937
 8855SOL    HW231886   2.948   0.948   8.069  0.4998  1.7362 -3.0066
 8856SOL     OW31887   1.897   8.806   6.614 -0.0959 -0.0025 -0.0347
 8856SOL    HW131888   1.945   8.744   6.669 -0.1568  0.4239  0.5043
 8856SOL    HW231889   1.878   8.880   6.671  1.3235  1.2309 -1.0534
 8857SOL     OW31890   0.779   7.740   3.959 -0.4956  0.2793  0.0932
 8857SOL    HW131891   0.859   7.782   3.992  0.9951 -0.9743 -1.7498
 8857SOL    HW231892   0.739   7.807   3.903  0.5850  0.1132 -0.9139
 8858SOL     OW31893   0.435   6.589  11.673 -0.3506  0.4708  0.0832
 8858SOL    HW131894   0.430   6.565  11.765 -0.6701 -0.6885 -0.2207
 8858SOL    HW231895   0.450   6.684  11.674 -1.1639  0.6145  1.3076
 8859SOL     OW31896   5.506   2.867   3.321 -0.2207  0.1753 -0.1078
 8859SOL    HW131897   5.441   2.824   3.266 -1.2761  1.0374  0.4199
 8859SOL    HW231898   5.568   2.798   3.344 -2.8111 -1.5999  2.2073
 8860SOL     OW31899   7.739   6.314   9.348 -0.2301 -0.1813 -0.5740
 8860SOL    HW131900   7.796   6.254   9.396 -0.9069  0.0092  0.4963
 8860SOL    HW231901   7.664   6.259   9.322 -0.8871  0.1925  0.4723
 8861SOL     OW31902   1.727   4.941   7.224 -0.6798 -0.5050 -0.4410
 8861SOL    HW131903   1.707   4.863   7.173 -0.6205 -0.8422  0.0432
 8861SOL    HW231904   1.644   4.968   7.262 -0.7376 -0.2105 -0.7724
 8862SOL     OW31905   5.037   8.255  10.240 -0.1321 -0.7276 -0.4302
 8862SOL    HW131906   5.067   8.276  10.329 -0.4890  0.0241 -0.4832
 8862SOL    HW231907   5.105   8.196  10.206  0.4963 -0.2702  0.0039
 8863SOL     OW31908   1.616   8.295   9.507  0.7121 -0.0957  0.3224
 8863SOL    HW131909   1.683   8.232   9.534 -1.1152 -1.4479  1.9847
 8863SOL    HW231910   1.597   8.271   9.416  3.1379  1.0041 -0.5670
 8864SOL     OW31911   7.240   7.736   4.440 -0.4036  0.0844  0.1348
 8864SOL    HW131912   7.220   7.764   4.529 -0.3552  0.7370 -0.0517
 8864SOL    HW231913   7.288   7.810   4.402  0.6428 -0.6686 -0.0514
 8865SOL     OW31914   5.638   1.706   9.654 -0.0056 -0.1210 -0.2524
 8865SOL    HW131915   5.705   1.775   9.656 -0.2730  0.1363  0.2289
 8865SOL    HW231916   5.595   1.714   9.739  0.6778 -1.6074  0.2559
 8866SOL     OW31917   4.876   0.981   8.929 -0.4300 -0.9598 -0.5803
 8866SOL    HW131918   4.907   1.032   9.004 -1.7579  0.2852 -0.8362
 8866SOL    HW231919   4.888   0.890   8.955  0.1537 -0.5370  0.6950
 8867SOL     OW31920   2.957   8.069   0.936 -0.1541 -0.4128  0.1925
 8867SOL    HW131921   3.037   8.065   0.884 -0.1458  0.6391  0.1071
 8867SOL    HW231922   2.895   8.014   0.889 -0.0142  0.1807 -0.7116
 8868SOL     OW31923   8.015  10.137   3.643  0.6397  1.0938 -0.2444
 8868SOL    HW131924   8.022  10.113   3.551 -0.5956  1.5096 -0.4629
 8868SOL    HW231925   8.104  10.129   3.677  1.1977  1.3936 -1.5845
 8869SOL     OW31926   6.834   2.998   8.331 -0.4107 -0.4707  0.1461
 8869SOL    HW131927   6.922   3.016   8.297 -0.8757  1.6737 -0.0612
 8869SOL    HW231928   6.812   3.076   8.383 -1.3609 -1.8819  2.0052
 8870SOL     OW31929  10.264   2.392   7.628 -0.0735 -0.0179 -0.1536
 8870SOL    HW131930  10.217   2.310   7.642 -0.3712  0.1558 -0.1320
 8870SOL    HW231931  10.204   2.445   7.575 -0.1128  0.4048  0.3152
 8871SOL     OW31932  11.374   2.736   6.421  0.3844  0.1652 -0.1807
 8871SOL    HW131933  11.380   2.658   6.476  2.1571  1.6287  1.8477
 8871SOL    HW231934  11.280   2.757   6.419  0.1870 -0.3888  1.6678
 8872SOL     OW31935   0.093   8.869   9.986  0.0133  0.3654  0.4105
 8872SOL    HW131936   0.123   8.959   9.977 -0.0883  0.3480 -0.1638
 8872SOL    HW231937   0.015   8.864   9.930 -1.5257  0.6131  2.4063
 8873SOL     OW31938   9.487   5.868   4.149 -0.0316 -0.2701  0.1421
 8873SOL    HW131939   9.500   5.961   4.129  1.1812  0.1728  2.6037
 8873SOL    HW231940   9.479   5.865   4.245  1.0667 -2.8030  0.2316
 8874SOL     OW31941   1.183   6.395   8.149  0.2287  0.1703  0.2472
 8874SOL    HW131942   1.248   6.449   8.105 -0.2307  0.0207 -0.6253
 8874SOL    HW231943   1.234   6.333   8.202  0.8121 -0.3308 -0.8772
 8875SOL     OW31944  10.486   5.291   0.164 -0.9171  0.2082  0.1064
 8875SOL    HW131945  10.544   5.227   0.206 -2.1266 -0.0251  1.4980
 8875SOL    HW231946  10.538   5.327   0.092  0.8876 -0.0911  1.2098
 8876SOL     OW31947   3.373  10.366   9.467  0.2621  0.0994  0.2582
 8876SOL    HW131948   3.421  10.448   9.477  1.1004 -0.5138  1.6069
 8876SOL    HW231949   3.283  10.388   9.492  0.4702  0.6250  0.5526
 8877SOL     OW31950   8.131   0.822   2.632 -0.0455  0.2892 -0.3971
 8877SOL    HW131951   8.189   0.779   2.695  0.5158  1.1545 -0.3103
 8877SOL    HW231952   8.062   0.758   2.616  0.9796 -0.7970 -0.5734
 8878SOL     OW31953   2.486   7.508   2.605  0.3096 -0.0723 -0.1979
 8878SOL    HW131954   2.515   7.542   2.520 -2.6071 -2.2746 -2.2602
 8878SOL    HW231955   2.400   7.548   2.619 -0.0464 -1.1349  0.8080
 8879SOL     OW31956   8.807  11.392   9.129  0.2867 -0.3641 -0.2880
 8879SOL    HW131957   8.746  11.397   9.056 -2.1629 -0.5941  1.5985
 8879SOL    HW231958   8.861  11.315   9.110 -1.1666 -1.1926 -1.2234
 8880SOL     OW31959   3.518   5.149   7.461 -0.7118  0.4735 -0.0839
 8880SOL    HW131960   3.482   5.113   7.381  1.2001  0.2997 -0.9315
 8880SOL    HW231961   3.501   5.243   7.456  0.3524  0.6377 -1.2871
 8881SOL     OW31962   7.877   1.023   6.891  0.2410  0.2439 -0.2954
 8881SOL    HW131963   7.820   1.073   6.832  0.7495 -0.2570 -1.2234
 8881SOL    HW231964   7.820   1.000   6.965 -0.4798  0.6475 -0.7132
 8882SOL     OW31965   0.827   5.631   9.263 -0.3534 -0.0494 -0.9537
 8882SOL    HW131966   0.816   5.696   9.332  0.0941  0.6813 -1.5537
 8882SOL    HW231967   0.866   5.556   9.307  0.6336  0.6883 -0.5323
 8883SOL     OW31968   1.006  10.965   5.001 -0.1962 -0.2714 -0.7083
 8883SOL    HW131969   1.019  11.026   5.074 -0.7168 -0.5608 -0.3672
 8883SOL    HW231970   1.087  10.972   4.950  1.7364 -2.5074  1.6785
 8884SOL     OW31971   7.198   6.383   8.488  0.4486  0.4408 -0.6145
 8884SOL    HW131972   7.278   6.423   8.520  0.5112 -0.2289  0.0804
 8884SOL    HW231973   7.130   6.449   8.505  0.4780  0.1041  0.9039
 8885SOL     OW31974   6.750   3.450   3.694 -0.2110 -0.0075  0.1056
 8885SOL    HW131975   6.691   3.512   3.651  1.1938 -0.1833 -2.2545
 8885SOL    HW231976   6.771   3.387   3.625  0.4282 -1.6281  1.7356
 8886SOL     OW31977   2.826   6.082   6.299  0.1895 -0.4944  0.3386
 8886SOL    HW131978   2.902   6.133   6.273 -0.0549  0.9175  2.1347
 8886SOL    HW231979   2.850   5.991   6.282  1.4022  0.0755 -1.1488
 8887SOL     OW31980  10.070   7.336   8.100 -0.1397 -0.1201 -0.0376
 8887SOL    HW131981  10.157   7.296   8.099 -0.6604 -1.2942 -0.0483
 8887SOL    HW231982  10.017   7.280   8.043 -0.5846  1.3417 -1.1057
 8888SOL     OW31983  10.522   3.031   2.012  0.0207  0.1792  0.2750
 8888SOL    HW131984  10.516   3.007   1.919  0.5741 -0.9142  0.5095
 8888SOL    HW231985  10.611   3.064   2.023 -1.0662  3.8337 -0.3296
 8889SOL     OW31986  11.302  10.400   6.950  0.4410  0.4078 -0.5014
 8889SOL    HW131987  11.375  10.339   6.951 -0.6572 -0.9583  0.3955
 8889SOL    HW231988  11.328  10.469   7.012 -0.4476 -1.9461  2.7501
 8890SOL     OW31989   9.836   4.292  10.487 -0.2296  0.0019 -0.1315
 8890SOL    HW131990   9.901   4.235  10.527 -0.0919  0.8026  0.7975
 8890SOL    HW231991   9.883   4.336  10.416  0.1772  0.3675  0.3579
 8891SOL     OW31992   0.796   3.689   9.856 -0.2213  0.2298 -0.6783
 8891SOL    HW131993   0.867   3.712   9.796  0.6571  0.9997  0.6081
 8891SOL    HW231994   0.760   3.773   9.884  0.5298 -0.0372  1.1801
 8892SOL     OW31995   5.497   5.882   3.291  0.3224  0.2642  0.1057
 8892SOL    HW131996   5.568   5.878   3.354  0.3374  1.2149  0.1584
 8892SOL    HW231997   5.432   5.820   3.324 -0.1464  1.5246  1.6711
 8893SOL     OW31998   4.695   2.931   8.078 -0.4410 -0.3947  0.3557
 8893SOL    HW131999   4.773   2.967   8.035 -0.3518 -0.3778  0.5301
 8893SOL    HW232000   4.730   2.879   8.150 -0.6230  0.3092  0.9602
 8894SOL     OW32001  10.349   5.671   5.294  0.0168  0.1503  0.1172
 8894SOL    HW132002  10.342   5.757   5.254 -0.7844  0.6895  1.3506
 8894SOL    HW232003  10.426   5.677   5.350 -0.1249  0.1150  0.3169
 8895SOL     OW32004   6.086   7.456   7.576 -0.2459  0.4069  0.6579
 8895SOL    HW132005   6.106   7.375   7.622  0.7655  0.3501  0.1662
 8895SOL    HW232006   6.066   7.429   7.486  0.0667  0.6923  0.4986
 8896SOL     OW32007   2.894   5.091  11.733  0.1070 -0.0656  0.2047
 8896SOL    HW132008   2.941   5.152  11.789  2.4185 -1.0229 -0.5756
 8896SOL    HW232009   2.900   5.129  11.646 -2.1670  0.6665  0.3108
 8897SOL     OW32010  11.338   1.239  11.075  0.0005 -0.1086  0.2442
 8897SOL    HW132011  11.246   1.214  11.083  0.1292 -0.3124  1.3751
 8897SOL    HW232012  11.385   1.156  11.070  0.1003  0.0011 -0.6460
 8898SOL     OW32013   8.213   8.512   2.520 -0.3761 -0.4174 -0.1486
 8898SOL    HW132014   8.242   8.482   2.434 -0.5726  2.0944 -1.1622
 8898SOL    HW232015   8.123   8.480   2.528  0.3913 -2.6796  0.2218
 8899SOL     OW32016   5.031   0.732   6.962  0.0138  0.4647 -0.0992
 8899SOL    HW132017   5.126   0.726   6.959 -0.0800 -1.7341 -0.5863
 8899SOL    HW232018   5.002   0.700   6.877 -1.1822  1.0068  0.0838
 8900SOL     OW32019   5.808   5.436   7.510 -0.1841  0.3625  0.3349
 8900SOL    HW132020   5.774   5.380   7.579  0.7244  1.1413  1.4573
 8900SOL    HW232021   5.858   5.377   7.453  3.2680  0.2757  3.0960
 8901SOL     OW32022   0.450   0.835   5.201  0.0402 -0.4611 -0.4236
 8901SOL    HW132023   0.399   0.775   5.148  0.8914 -0.0320 -1.7688
 8901SOL    HW232024   0.421   0.922   5.175  0.2632 -0.2430  0.0355
 8902SOL     OW32025   7.508   8.424   4.641  0.2706  0.7954 -0.4114
 8902SOL    HW132026   7.480   8.335   4.620  0.9200  0.5100 -0.0938
 8902SOL    HW232027   7.484   8.476   4.564  1.5695 -0.0096 -1.3965
 8903SOL     OW32028  11.248   0.814   0.972 -0.5917 -0.2212 -0.1567
 8903SOL    HW132029  11.281   0.781   0.888 -0.9046 -0.6785 -0.1039
 8903SOL    HW232030  11.255   0.739   1.031 -0.7596 -0.0189  0.1209
 8904SOL     OW32031   7.421   8.763  11.592 -0.5884  0.2144 -0.2560
 8904SOL    HW132032   7.340   8.740  11.547 -1.2107 -0.8064  1.2952
 8904SOL    HW232033   7.436   8.855  11.570 -1.9557  0.3041 -0.8711
 8905SOL     OW32034   2.721   8.777   3.969 -0.3027 -0.0853  0.1899
 8905SOL    HW132035   2.796   8.778   4.029 -0.6225 -1.5154  0.6463
 8905SOL    HW232036   2.738   8.703   3.911  0.8708  2.2298 -2.7215
 8906SOL     OW32037   8.709   0.498   7.573 -0.3017  0.5747 -0.1793
 8906SOL    HW132038   8.764   0.527   7.500  0.9447 -1.4567 -0.1096
 8906SOL    HW232039   8.619   0.506   7.539  0.0499  2.7539 -0.7320
 8907SOL     OW32040   3.034   4.106   9.934  0.1546  0.4524 -0.1447
 8907SOL    HW132041   3.104   4.159   9.896 -0.4251  1.1050 -0.3180
 8907SOL    HW232042   3.061   4.092  10.025  0.2002  1.2597 -0.0284
 8908SOL     OW32043  10.335   9.391   5.726  0.0384  0.1058  0.3092
 8908SOL    HW132044  10.418   9.430   5.754 -0.0375  0.4361  0.0889
 8908SOL    HW232045  10.294   9.361   5.807  0.0079  0.6713  0.5064
 8909SOL     OW32046   3.086   8.481   1.024 -0.0984 -0.1322 -0.9399
 8909SOL    HW132047   3.009   8.468   1.079  0.6156 -0.4427  0.0154
 8909SOL    HW232048   3.088   8.404   0.967  0.9093 -1.4509  0.7865
 8910SOL     OW32049   4.230  10.242   6.707  0.1550 -0.1400  0.2519
 8910SOL    HW132050   4.163  10.199   6.760  0.7653 -0.3635  0.8566
 8910SOL    HW232051   4.182  10.285   6.636 -0.5116 -1.5391 -0.1800
 8911SOL     OW32052   0.476   7.182   1.239 -0.0105 -0.5417 -0.1396
 8911SOL    HW132053   0.495   7.213   1.150  1.1443 -1.8396 -0.3792
 8911SOL    HW232054   0.510   7.250   1.296  3.3294 -1.6062 -0.6203
 8912SOL     OW32055   4.447   3.902   7.392 -0.2170 -0.0606  0.2082
 8912SOL    HW132056   4.469   3.957   7.468  1.1956  0.0336 -0.2396
 8912SOL    HW232057   4.353   3.914   7.380 -0.6113 -0.5573  2.3219
 8913SOL     OW32058  11.408  11.447   8.095  0.1416 -0.1001 -0.3586
 8913SOL    HW132059  11.497  11.452   8.060  0.0850 -0.3315 -0.5377
 8913SOL    HW232060  11.352  11.477   8.023 -0.0148 -1.0382 -0.6420
 8914SOL     OW32061   9.348  10.653  11.321  0.1408  0.0773 -0.1948
 8914SOL    HW132062   9.408  10.586  11.353  0.5972  0.8474  0.5931
 8914SOL    HW232063   9.273  10.648  11.380  0.6593  0.9926  0.5720
 8915SOL     OW32064  10.106   2.411   1.462 -1.0550 -0.4346  0.4240
 8915SOL    HW132065  10.073   2.375   1.379 -0.6082  0.9422 -0.3775
 8915SOL    HW232066  10.051   2.487   1.479  0.6851  1.0306 -0.1728
 8916SOL     OW32067   7.953  10.481   4.973 -0.1450  0.0345  0.7902
 8916SOL    HW132068   8.042  10.467   5.005  0.3166 -0.5584 -0.6466
 8916SOL    HW232069   7.925  10.564   5.012  2.1841  1.8267 -1.0389
 8917SOL     OW32070   3.487   8.811   0.630  0.5528 -0.3466 -0.0435
 8917SOL    HW132071   3.474   8.906   0.635  1.9453 -0.1552  0.4552
 8917SOL    HW232072   3.535   8.798   0.548  1.1274 -0.5057  0.3103
 8918SOL     OW32073   7.997   3.749  10.265  0.1282  0.2299  0.1700
 8918SOL    HW132074   8.074   3.700  10.295  0.8606  0.8550 -0.6419
 8918SOL    HW232075   8.027   3.839  10.257 -0.6179  0.4377 -0.4038
 8919SOL     OW32076   9.594   6.551   1.553 -0.4078 -0.4569 -0.3633
 8919SOL    HW132077   9.532   6.481   1.530 -0.3047 -0.4947 -0.5270
 8919SOL    HW232078   9.539   6.629   1.562 -0.6972 -0.7889  1.0164
 8920SOL     OW32079   3.192   0.908   4.134  0.0704 -0.2620  0.2344
 8920SOL    HW132080   3.219   0.817   4.124  1.2079  0.2157 -1.7613
 8920SOL    HW232081   3.118   0.917   4.075 -0.3981 -0.0139  0.8520
 8921SOL     OW32082   6.772   4.956  11.486 -0.0175 -0.0916  0.3122
 8921SOL    HW132083   6.841   4.922  11.542 -1.0987 -0.0173  1.7512
 8921SOL    HW232084   6.708   4.994  11.547 -1.9915 -1.3632 -0.8572
 8922SOL     OW32085   2.664   1.062  11.654 -0.5390 -0.0208 -0.1041
 8922SOL    HW132086   2.703   1.146  11.680  1.6550 -0.5954 -1.2879
 8922SOL    HW232087   2.594   1.086  11.593 -1.5622  1.0126  1.3904
 8923SOL     OW32088   7.166  11.808   7.950  0.1812  0.2656  0.1455
 8923SOL    HW132089   7.187  11.888   7.998 -0.9505  1.5142 -1.3579
 8923SOL    HW232090   7.077  11.822   7.918  0.5620 -0.8974 -1.5277
 8924SOL     OW32091   3.034   9.037   5.191 -0.0712 -0.3772  0.1785
 8924SOL    HW132092   3.070   9.100   5.128  0.4429 -0.9025 -0.0665
 8924SOL    HW232093   3.108   9.016   5.248 -0.6348  0.3981  1.2240
 8925SOL     OW32094   1.789   1.988   7.290  0.3988  0.1108 -0.0646
 8925SOL    HW132095   1.811   1.896   7.277  0.0364 -0.0158  0.2338
 8925SOL    HW232096   1.723   1.988   7.359  1.0093  0.6548  0.5341
 8926SOL     OW32097   4.967   6.823   9.132  0.0661  0.4048 -0.5851
 8926SOL    HW132098   5.020   6.744   9.139 -0.0062  0.3700 -0.4146
 8926SOL    HW232099   5.030   6.895   9.141 -0.1043  0.3647  1.2360
 8927SOL     OW32100   0.637   6.003   8.577  0.6377  0.4763  0.0844
 8927SOL    HW132101   0.724   5.974   8.602  0.8284  1.5484  0.7450
 8927SOL    HW232102   0.580   5.929   8.598  1.5791 -0.9877 -2.1402
 8928SOL     OW32103   7.904  11.808   3.389 -0.2118 -0.0699  0.1731
 8928SOL    HW132104   7.962  11.765   3.452  0.5241 -0.2282 -0.5838
 8928SOL    HW232105   7.933  11.899   3.388  0.6687 -0.3348 -0.8731
 8929SOL     OW32106   5.662   0.257   0.125 -0.2413 -0.5792  0.4299
 8929SOL    HW132107   5.662   0.323   0.195  0.0077 -2.0452  1.8692
 8929SOL    HW232108   5.729   0.194   0.151 -1.5469 -2.2421 -0.0594
 8930SOL     OW32109  10.939   1.134   6.170 -0.0315  0.1732  0.6679
 8930SOL    HW132110  10.929   1.094   6.084 -0.8285 -0.8672  1.2056
 8930SOL    HW232111  10.997   1.074   6.218 -2.9175 -1.6776  2.1787
 8931SOL     OW32112   0.503   9.059   7.697 -0.1689 -0.0793 -0.1653
 8931SOL    HW132113   0.571   9.053   7.764 -0.2498 -1.8138 -0.2016
 8931SOL    HW232114   0.551   9.063   7.615 -0.0791 -1.0661 -0.1754
 8932SOL     OW32115  11.228   9.048  10.697  0.1397 -0.3228  0.0435
 8932SOL    HW132116  11.319   9.043  10.726  0.3004  1.4756 -0.0307
 8932SOL    HW232117  11.229   9.012  10.608  1.0294  0.8080 -0.4231
 8933SOL     OW32118   9.792  10.433   0.744 -0.5544 -0.3649  0.4016
 8933SOL    HW132119   9.796  10.500   0.676 -0.0152 -0.8511 -0.0607
 8933SOL    HW232120   9.794  10.350   0.696  0.8782 -0.7305  1.0465
 8934SOL     OW32121   8.018   9.895   5.094  0.2507  0.0240 -0.3760
 8934SOL    HW132122   8.013   9.819   5.036 -1.5354  0.4228 -0.8117
 8934SOL    HW232123   8.042   9.968   5.037  1.4379 -0.1037 -0.0539
 8935SOL     OW32124   5.440   0.458   3.792  0.5387 -0.3928 -0.1893
 8935SOL    HW132125   5.523   0.413   3.807  1.2184  0.9983  0.4330
 8935SOL    HW232126   5.459   0.521   3.722  0.1722  0.2822  0.3023
 8936SOL     OW32127   9.200   6.935   8.427  0.0254 -0.5971 -0.1829
 8936SOL    HW132128   9.145   6.902   8.498  1.8703 -2.1834  0.6099
 8936SOL    HW232129   9.204   7.030   8.441 -0.4310 -0.7694  1.2480
 8937SOL     OW32130  11.517   0.070   7.926 -0.2237 -0.2960  0.1987
 8937SOL    HW132131  11.476   0.048   7.843 -1.2644 -4.0921  1.5067
 8937SOL    HW232132  11.611   0.064   7.910 -0.4034 -0.3746 -0.8450
 8938SOL     OW32133   9.313   2.212   7.937 -0.1623 -0.6984  0.4418
 8938SOL    HW132134   9.365   2.237   8.013  0.2773 -1.4135  0.3855
 8938SOL    HW232135   9.270   2.130   7.963 -0.0338 -0.9299 -0.0566
 8939SOL     OW32136  11.600   5.583   2.198  0.0272  0.0005 -0.2585
 8939SOL    HW132137  11.557   5.574   2.113  1.2652 -1.8858 -0.7541
 8939SOL    HW232138  11.692   5.598   2.176  0.2529  0.1185  0.7529
 8940SOL     OW32139   6.458   3.026   3.375  0.0128  0.1640 -0.2531
 8940SOL    HW132140   6.480   3.048   3.466 -1.8024 -1.4427  0.6625
 8940SOL    HW232141   6.455   2.930   3.375 -3.6576  0.1457 -0.9954
 8941SOL     OW32142   2.868   7.821   3.086  0.2072 -0.5782 -0.0472
 8941SOL    HW132143   2.906   7.801   3.172 -0.6767 -0.9492  0.2624
 8941SOL    HW232144   2.780   7.852   3.105 -0.6921 -2.4670 -0.9037
 8942SOL     OW32145   1.994   4.484   1.574  0.0679  0.0331  0.4015
 8942SOL    HW132146   2.071   4.432   1.595 -0.2334 -0.9807 -0.8275
 8942SOL    HW232147   1.923   4.443   1.625  0.0664  0.0032  0.3761
 8943SOL     OW32148   4.339   7.087   2.524  0.0136 -0.4211  0.1536
 8943SOL    HW132149   4.288   7.124   2.452 -0.3744 -1.0047  0.1172
 8943SOL    HW232150   4.402   7.155   2.547  0.0020 -0.1460 -0.5993
 8944SOL     OW32151   4.409   3.926   9.715 -0.1155  0.2119 -0.3784
 8944SOL    HW132152   4.361   3.847   9.741 -2.1312  1.5601  0.2309
 8944SOL    HW232153   4.496   3.915   9.753 -1.3603 -0.2604  2.5815
 8945SOL     OW32154   6.630   0.170   3.421  0.0057  0.3995 -0.2824
 8945SOL    HW132155   6.542   0.140   3.445  0.1066 -1.2606 -1.7093
 8945SOL    HW232156   6.680   0.089   3.410  1.6624  1.3034  0.2329
 8946SOL     OW32157  10.981   5.063   7.368  0.1730  0.3221 -0.1406
 8946SOL    HW132158  10.907   5.097   7.418 -0.2686 -0.6087 -0.1285
 8946SOL    HW232159  10.954   4.974   7.343  1.0946  0.1401 -0.5405
 8947SOL     OW32160  11.048   3.189  11.087  0.0738  0.1875  0.0568
 8947SOL    HW132161  11.008   3.127  11.148  0.4869  0.1614  0.2980
 8947SOL    HW232162  11.089   3.255  11.142  0.4074  0.1900 -0.1921
 8948SOL     OW32163  10.686   1.576   7.954  0.0415  0.3547  0.3019
 8948SOL    HW132164  10.690   1.636   8.029 -1.6515  1.1766 -0.2223
 8948SOL    HW232165  10.672   1.633   7.878  2.7790 -0.3574 -0.8715
 8949SOL     OW32166  10.587   6.495   2.619  0.0261 -0.0579 -0.6474
 8949SOL    HW132167  10.582   6.472   2.526  2.5851  0.5012 -0.9957
 8949SOL    HW232168  10.615   6.586   2.620  1.6624 -0.5167  0.6121
 8950SOL     OW32169   2.936   5.822   6.729 -0.1480  0.0712 -0.6654
 8950SOL    HW132170   2.953   5.916   6.717 -1.7922  0.4612 -0.2035
 8950SOL    HW232171   3.021   5.785   6.751  0.4213  1.5612 -0.2427
 8951SOL     OW32172   3.682  10.541   9.722  0.3034  0.2940  0.6726
 8951SOL    HW132173   3.646  10.570   9.806  0.5032 -1.7811  1.5140
 8951SOL    HW232174   3.611  10.558   9.660 -0.0548  1.3472  1.3312
 8952SOL     OW32175   3.805  11.168   1.737  0.3369  0.3594 -0.2962
 8952SOL    HW132176   3.783  11.193   1.648 -0.8041  1.3031  0.2143
 8952SOL    HW232177   3.825  11.251   1.781 -0.4802  0.0637  0.6644
 8953SOL     OW32178   9.279   1.695  11.121 -0.2752 -0.5259 -0.0689
 8953SOL    HW132179   9.296   1.787  11.140 -1.3533 -0.3314  0.0212
 8953SOL    HW232180   9.332   1.676  11.044  3.3730 -1.0585  2.3654
 8954SOL     OW32181   0.520   5.752   7.088  0.2257  0.0831 -0.3538
 8954SOL    HW132182   0.444   5.704   7.055  0.3097 -0.0632 -0.3371
 8954SOL    HW232183   0.592   5.689   7.083  0.2733  0.1122 -0.0476
 8955SOL     OW32184   7.209   4.211   4.319 -0.4763  0.0380  0.1235
 8955SOL    HW132185   7.290   4.245   4.282 -0.0320  1.9814  2.6613
 8955SOL    HW232186   7.147   4.284   4.314 -0.5348  0.2455  2.6279
 8956SOL     OW32187   8.078   6.785   6.014  0.2589 -0.5617  0.5547
 8956SOL    HW132188   8.002   6.756   6.065  1.0992 -1.1360  1.5193
 8956SOL    HW232189   8.073   6.735   5.932 -1.1455  0.4232  0.0106
 8957SOL     OW32190  10.129   4.568  11.760 -0.0703 -0.1430  0.2791
 8957SOL    HW132191  10.081   4.646  11.733  0.9651  0.4102 -0.0433
 8957SOL    HW232192  10.216   4.580  11.722  0.1596 -1.3747  0.3805
 8958SOL     OW32193   0.718   6.157   3.613  0.0785  0.0505  0.4035
 8958SOL    HW132194   0.629   6.128   3.594  0.2050  0.0053 -0.1287
 8958SOL    HW232195   0.710   6.253   3.619  0.2423  0.1682 -1.0430
 8959SOL     OW32196   7.005   8.351   8.727  0.3541 -0.7343  0.4625
 8959SOL    HW132197   6.995   8.401   8.646  0.8239 -1.4614 -0.0526
 8959SOL    HW232198   6.917   8.348   8.764 -0.0728 -1.2841 -0.5529
 8960SOL     OW32199   2.253   2.462   0.329 -0.3889  0.1360 -0.4422
 8960SOL    HW132200   2.278   2.490   0.241 -2.0684 -1.0882 -1.3699
 8960SOL    HW232201   2.160   2.484   0.335 -0.4862 -0.5353  0.7323
 8961SOL     OW32202   3.890   6.895   4.591 -0.1312  0.2709 -0.4759
 8961SOL    HW132203   3.949   6.947   4.535 -1.3666  3.7847  1.2037
 8961SOL    HW232204   3.895   6.937   4.676 -2.3454 -1.5999  0.6703
 8962SOL     OW32205   2.025   2.325   5.538 -0.3805 -0.0109 -0.7081
 8962SOL    HW132206   1.965   2.251   5.543  0.3021 -0.4847  1.7794
 8962SOL    HW232207   2.073   2.311   5.456 -2.1797 -0.7377 -1.6998
 8963SOL     OW32208   8.972   9.503   1.816 -0.4933  0.4248  0.0431
 8963SOL    HW132209   8.913   9.466   1.881 -0.7881 -0.6104 -0.7728
 8963SOL    HW232210   8.985   9.432   1.753 -0.9350  1.6711 -1.5166
 8964SOL     OW32211   0.139  10.108   3.495 -0.0100  0.4587  0.6372
 8964SOL    HW132212   0.168  10.037   3.552  0.5423  1.7462  2.0200
 8964SOL    HW232213   0.052  10.131   3.528  0.0588  0.8010  0.5842
 8965SOL     OW32214   7.675   7.500   9.159 -0.0605  0.0420 -0.1431
 8965SOL    HW132215   7.680   7.471   9.250 -0.4556 -0.3893 -0.2575
 8965SOL    HW232216   7.603   7.564   9.158 -0.6906 -0.6643 -0.3395
 8966SOL     OW32217   6.124   4.927   9.046 -0.3431 -0.0678  0.3867
 8966SOL    HW132218   6.104   4.985   8.973  0.7023 -0.7325 -0.4544
 8966SOL    HW232219   6.122   4.984   9.123 -1.0925  0.7167 -0.2009
 8967SOL     OW32220  10.106   6.337   5.534  0.6008  0.3363  0.1810
 8967SOL    HW132221  10.022   6.384   5.530  0.4998  0.3067  1.5165
 8967SOL    HW232222  10.125   6.331   5.627  1.9330  0.0419 -0.0971
 8968SOL     OW32223   9.236   0.019   8.914 -0.4547  0.2261  0.0159
 8968SOL    HW132224   9.282  -0.032   8.848 -1.5129 -0.5036 -0.1881
 8968SOL    HW232225   9.164  -0.038   8.942 -1.7871  1.6671 -0.3493
 8969SOL     OW32226  10.296   5.098   1.162  0.0359 -0.2643 -0.5453
 8969SOL    HW132227  10.209   5.122   1.195  0.1217 -2.0332  1.1493
 8969SOL    HW232228  10.279   5.027   1.100  0.2948 -1.0083  0.2247
 8970SOL     OW32229  10.204  10.402   4.913 -0.3288 -0.4296  0.0327
 8970SOL    HW132230  10.196  10.315   4.951  0.3348 -0.0603  1.0687
 8970SOL    HW232231  10.172  10.393   4.823  1.7932 -2.2619 -0.6212
 8971SOL     OW32232   7.579   2.275   9.289 -0.5088 -0.7159  0.1961
 8971SOL    HW132233   7.514   2.270   9.359 -1.2422  0.5674 -0.3554
 8971SOL    HW232234   7.635   2.349   9.312 -0.3661 -0.6789 -0.2522
 8972SOL     OW32235   1.590  10.440   2.470 -0.5782  0.2892 -0.1888
 8972SOL    HW132236   1.512  10.492   2.448  0.4769  1.2716 -1.8853
 8972SOL    HW232237   1.649  10.503   2.512 -0.3890 -0.2508  0.3568
 8973SOL     OW32238   4.646   4.221   5.741  0.2710 -0.2758 -0.1306
 8973SOL    HW132239   4.688   4.219   5.827 -0.3551 -0.2310  0.1782
 8973SOL    HW232240   4.685   4.147   5.695 -1.1714 -1.8445  1.0480
 8974SOL     OW32241   1.810   6.384   4.192 -0.5726  0.5752 -0.0899
 8974SOL    HW132242   1.715   6.386   4.181 -0.4895  1.5866 -0.7732
 8974SOL    HW232243   1.843   6.452   4.132  0.4892  1.2044  1.1583
 8975SOL     OW32244   2.240   6.803  10.218  0.7293 -0.2081  0.2385
 8975SOL    HW132245   2.254   6.890  10.182  0.3542 -0.0312  0.5156
 8975SOL    HW232246   2.185   6.759  10.154  2.2427 -0.8015 -0.7073
 8976SOL     OW32247   2.675  11.026   9.632 -0.0435  0.2707  0.0081
 8976SOL    HW132248   2.642  10.941   9.660 -0.5937  0.1760 -0.8591
 8976SOL    HW232249   2.626  11.045   9.551 -0.7477  1.9091  0.7695
 8977SOL     OW32250   3.712   1.610   8.684 -0.0701 -0.5173  0.4950
 8977SOL    HW132251   3.696   1.539   8.746  0.6293  0.2609  1.6037
 8977SOL    HW232252   3.807   1.620   8.683 -0.0535 -0.6241 -0.8573
 8978SOL     OW32253   7.880   8.194   0.514 -0.2521  0.0645 -0.5847
 8978SOL    HW132254   7.822   8.120   0.497  0.1491 -0.2490 -0.5857
 8978SOL    HW232255   7.965   8.155   0.532  0.2953  0.5886 -1.9518
 8979SOL     OW32256   9.926  10.508  10.399 -0.2323 -0.0806  0.5841
 8979SOL    HW132257  10.011  10.520  10.442 -0.0404  0.3099  0.1199
 8979SOL    HW232258   9.937  10.429  10.345  0.8131  1.4743 -1.6695
 8980SOL     OW32259   4.353   2.448   2.345 -0.0812 -1.1315  0.6561
 8980SOL    HW132260   4.444   2.438   2.315 -0.5743  0.1991 -1.4652
 8980SOL    HW232261   4.355   2.526   2.400 -0.1785 -0.1846 -0.6453
 8981SOL     OW32262   5.449   2.407   3.996  0.1672 -0.4353 -0.5595
 8981SOL    HW132263   5.371   2.408   4.051  0.3692 -0.0083 -0.2711
 8981SOL    HW232264   5.447   2.322   3.953 -0.1216 -0.6836 -0.0691
 8982SOL     OW32265  11.550   7.495   0.333  0.2274 -0.2599 -0.4984
 8982SOL    HW132266  11.460   7.475   0.305 -0.1944  1.0103 -0.1442
 8982SOL    HW232267  11.596   7.412   0.326 -1.0160 -0.9815 -0.5619
 8983SOL     OW32268   4.694   6.119   6.758 -0.2315  0.0742  0.5188
 8983SOL    HW132269   4.670   6.054   6.824 -0.1046 -0.7433 -0.2254
 8983SOL    HW232270   4.747   6.071   6.695 -1.6129  0.4539 -1.0054
 8984SOL     OW32271  10.127   1.901   0.663 -0.0335  0.2103  0.1856
 8984SOL    HW132272  10.109   1.973   0.602  1.2132 -0.2376 -0.7475
 8984SOL    HW232273  10.143   1.826   0.607 -1.1404 -0.7857  1.1530
 8985SOL     OW32274   1.600   9.158   4.421 -0.3922 -0.0675 -0.6466
 8985SOL    HW132275   1.593   9.201   4.507 -1.3056 -0.8336 -0.3229
 8985SOL    HW232276   1.587   9.065   4.440 -1.8668 -0.1131 -1.7715
 8986SOL     OW32277  11.250   4.525   5.393 -0.2751 -0.3875 -0.1477
 8986SOL    HW132278  11.227   4.613   5.423  0.3070 -0.0171 -0.7602
 8986SOL    HW232279  11.338   4.510   5.428 -0.3999 -0.7441  0.0089
 8987SOL     OW32280  11.609  11.504   1.816  0.1425 -0.3709 -0.5239
 8987SOL    HW132281  11.572  11.562   1.749  2.6927  0.2736 -1.4780
 8987SOL    HW232282  11.568  11.420   1.799 -1.0609  0.3476 -1.3454
 8988SOL     OW32283   8.129   0.443   1.592  0.3778 -0.1530 -0.7280
 8988SOL    HW132284   8.110   0.365   1.539 -0.3628 -0.7186  0.3437
 8988SOL    HW232285   8.211   0.477   1.555  1.1804 -1.9157 -0.6871
 8989SOL     OW32286   7.942   1.600   8.903 -0.4723 -0.2412 -0.3441
 8989SOL    HW132287   7.944   1.693   8.877 -0.0121 -0.3032 -0.5544
 8989SOL    HW232288   7.978   1.554   8.827  1.0111 -0.4140  0.4289
 8990SOL     OW32289   0.878   2.723   6.041 -0.0878  0.6514 -0.4350
 8990SOL    HW132290   0.943   2.691   6.104 -0.8248  0.3360  0.1790
 8990SOL    HW232291   0.803   2.664   6.051  0.3892 -0.5167 -2.8348
 8991SOL     OW32292   8.239   3.776   5.772  0.2414  0.0709 -0.4867
 8991SOL    HW132293   8.147   3.755   5.755  1.1204 -3.0390 -2.1525
 8991SOL    HW232294   8.276   3.695   5.807  2.3509  1.2685  0.2222
 8992SOL     OW32295   7.571   2.429  11.469 -0.3218 -0.3800  0.0301
 8992SOL    HW132296   7.580   2.511  11.517 -1.4094 -0.1559 -0.1102
 8992SOL    HW232297   7.648   2.425  11.413  0.5167 -0.2142  1.1501
 8993SOL     OW32298   8.619   2.265   1.823 -0.0411  0.8292  0.8186
 8993SOL    HW132299   8.638   2.181   1.781  1.3589  2.0344 -1.1280
 8993SOL    HW232300   8.665   2.262   1.907  0.5083 -0.1122  0.4927
 8994SOL     OW32301   0.866   5.871   8.590  0.0804 -0.0432 -0.6038
 8994SOL    HW132302   0.894   5.848   8.678  0.0309  0.1982 -0.5248
 8994SOL    HW232303   0.899   5.800   8.535 -0.5981 -0.6215 -0.2794
 8995SOL     OW32304   4.536   4.569   3.344 -0.9963 -0.5515 -0.0166
 8995SOL    HW132305   4.620   4.608   3.317 -1.9084  1.6912  0.1469
 8995SOL    HW232306   4.472   4.639   3.331 -2.9299 -2.2865 -0.4047
 8996SOL     OW32307   7.772   6.888   9.578  0.5126  0.3347 -0.0096
 8996SOL    HW132308   7.676   6.885   9.585  0.4625  1.3438 -0.1971
 8996SOL    HW232309   7.790   6.971   9.534  1.5168  0.4915  0.6766
 8997SOL     OW32310   6.754   0.965   7.913  0.2199  0.6764 -0.1203
 8997SOL    HW132311   6.802   0.883   7.902 -0.2969  0.0246  1.9253
 8997SOL    HW232312   6.666   0.946   7.880 -0.4788 -0.3099  2.1000
 8998SOL     OW32313  11.369   6.750   3.213  0.4157 -0.2377  0.5567
 8998SOL    HW132314  11.450   6.737   3.262 -0.2630 -0.9788  1.5029
 8998SOL    HW232315  11.313   6.801   3.272 -0.3025 -0.8909  0.4628
 8999SOL     OW32316   3.377   2.901   9.319 -0.4566  0.1044  0.5229
 8999SOL    HW132317   3.465   2.911   9.285 -0.2626 -0.9873  0.6627
 8999SOL    HW232318   3.325   2.967   9.273  0.1466 -0.1823 -0.5971
 9000SOL     OW32319   2.737   6.102   9.435 -0.2051 -0.0692 -0.1393
 9000SOL    HW132320   2.706   6.192   9.447  1.6824  0.4443  1.5946
 9000SOL    HW232321   2.777   6.079   9.519  1.4882 -1.6382 -1.2938
 9001SOL     OW32322  10.964   5.797  10.100  0.0263  0.5259  0.1718
 9001SOL    HW132323  10.959   5.706  10.072 -0.9439  0.0029  1.9052
 9001SOL    HW232324  11.040   5.801  10.158  1.8544  1.5376 -2.1056
 9002SOL     OW32325   2.481   9.620   4.388 -0.6212  0.9850 -1.0471
 9002SOL    HW132326   2.493   9.607   4.482  1.1071  0.4305 -1.3079
 9002SOL    HW232327   2.387   9.635   4.378 -0.7401  1.8369  0.8505
 9003SOL     OW32328   2.715   2.558   3.973 -0.6300 -0.6593 -0.3027
 9003SOL    HW132329   2.711   2.476   3.924 -1.2260 -0.9123  0.1597
 9003SOL    HW232330   2.687   2.535   4.061 -1.8018  0.2231 -0.4113
 9004SOL     OW32331   0.342   0.635   7.516  0.3235 -0.4930  0.3638
 9004SOL    HW132332   0.359   0.552   7.561 -0.0778 -0.6534  0.2255
 9004SOL    HW232333   0.333   0.699   7.587  0.9601 -0.5018  0.4584
 9005SOL     OW32334   3.548  10.731   4.656  0.1810 -0.3611  0.4501
 9005SOL    HW132335   3.598  10.813   4.649  0.3947 -0.4711  0.6670
 9005SOL    HW232336   3.565  10.700   4.745 -1.2553  0.2196  0.9539
 9006SOL     OW32337   7.607   2.606   9.183 -0.5233  0.1536  0.5963
 9006SOL    HW132338   7.642   2.634   9.267 -2.7211  1.4309  1.1642
 9006SOL    HW232339   7.617   2.682   9.126  2.0394 -1.0719 -0.7525
 9007SOL     OW32340   7.989   9.959   0.438 -0.0765  0.6668  0.4317
 9007SOL    HW132341   8.042  10.017   0.384 -1.2746  1.0674 -0.3681
 9007SOL    HW232342   8.048   9.888   0.463  0.2127 -0.4246 -2.7745
 9008SOL     OW32343   8.040   2.398   6.386 -0.4163 -0.6562  0.0086
 9008SOL    HW132344   7.988   2.322   6.361 -0.2162 -0.3733 -1.3805
 9008SOL    HW232345   8.124   2.385   6.342 -0.2200  0.1237  0.1328
 9009SOL     OW32346   4.864  11.613   1.683 -0.7250  0.0181 -0.7333
 9009SOL    HW132347   4.782  11.598   1.730 -1.1072  0.8417 -1.1059
 9009SOL    HW232348   4.838  11.663   1.606  0.0066 -0.5814 -1.3769
 9010SOL     OW32349   8.205   1.117   3.120 -0.0404  0.4564  0.1342
 9010SOL    HW132350   8.221   1.205   3.156 -0.6498  0.7588 -0.3119
 9010SOL    HW232351   8.220   1.058   3.194  0.5508  0.9213  0.3947
 9011SOL     OW32352   3.005  11.674   5.604  0.4173  0.7748  0.1015
 9011SOL    HW132353   3.039  11.683   5.515 -2.6173 -0.6931 -1.3596
 9011SOL    HW232354   3.065  11.614   5.647  0.8539 -0.0852 -1.6382
 9012SOL     OW32355   1.677   6.658   5.143  0.2482 -0.3864  0.1105
 9012SOL    HW132356   1.599   6.692   5.099  0.6416 -0.7603 -0.8913
 9012SOL    HW232357   1.643   6.594   5.205 -0.1449 -1.8896 -1.5878
 9013SOL     OW32358   2.443   8.437   8.412  0.0525  0.1430  0.0389
 9013SOL    HW132359   2.531   8.468   8.388  0.0537 -0.0930 -0.2767
 9013SOL    HW232360   2.388   8.461   8.337 -0.4354  1.4832  0.8038
 9014SOL     OW32361  10.439  11.363   5.693  0.3089 -0.0986  0.3396
 9014SOL    HW132362  10.426  11.344   5.786 -0.7047 -0.2372  0.1871
 9014SOL    HW232363  10.358  11.333   5.652  0.2102  1.1392 -0.4139
 9015SOL     OW32364   1.565   6.526   4.315 -0.1851 -0.4227  0.1142
 9015SOL    HW132365   1.613   6.589   4.368  1.2849 -0.6901 -0.8541
 9015SOL    HW232366   1.490   6.575   4.281  1.0801  0.9089 -0.8370
 9016SOL     OW32367   4.601   0.845   4.690 -0.1465 -0.0307 -0.0451
 9016SOL    HW132368   4.651   0.785   4.746 -0.6666  0.8134  1.3823
 9016SOL    HW232369   4.653   0.926   4.688 -1.2132  0.7254  1.1451
 9017SOL     OW32370  10.179  11.220   9.432 -0.4471 -0.1303 -0.1349
 9017SOL    HW132371  10.130  11.156   9.380  1.3423 -0.4578 -1.5423
 9017SOL    HW232372  10.124  11.237   9.508 -1.2777 -2.8938  0.0015
 9018SOL     OW32373   3.746   8.710  11.607  0.1696  0.1664 -0.3151
 9018SOL    HW132374   3.819   8.729  11.548  0.5778 -1.1805 -0.2852
 9018SOL    HW232375   3.673   8.759  11.570  0.9749  1.1794 -0.6050
 9019SOL     OW32376   2.850   1.726   4.357 -0.0932 -0.3658 -0.2919
 9019SOL    HW132377   2.936   1.744   4.319  0.7003  0.3453  1.7086
 9019SOL    HW232378   2.863   1.648   4.411 -0.0347  1.0221  1.8521
 9020SOL     OW32379   8.485   9.535   3.061 -0.1249 -0.0064  0.2367
 9020SOL    HW132380   8.493   9.441   3.079  0.7600  0.2753  1.4281
 9020SOL    HW232381   8.414   9.541   2.998  0.3522 -1.5542 -0.5131
 9021SOL     OW32382  10.305   0.555   9.682  0.1366  0.6871  0.0868
 9021SOL    HW132383  10.317   0.466   9.649  3.6732  1.3993 -1.0438
 9021SOL    HW232384  10.330   0.549   9.775 -0.2246  0.3966  0.1670
 9022SOL     OW32385   5.759   4.666   6.693 -0.0531  0.5512  0.5127
 9022SOL    HW132386   5.779   4.572   6.691 -0.8973  0.3724 -1.2226
 9022SOL    HW232387   5.837   4.706   6.731  0.5935 -0.7833  0.6506
 9023SOL     OW32388   6.342   5.111   1.470 -0.2165 -0.0693  0.4426
 9023SOL    HW132389   6.346   5.207   1.470  2.7649 -0.0925  0.8102
 9023SOL    HW232390   6.281   5.089   1.399  1.2772  2.1210 -1.6945
 9024SOL     OW32391   2.194   3.038  10.762  0.0686 -0.1749  0.0765
 9024SOL    HW132392   2.209   3.038  10.856 -1.3327 -2.3170  0.3623
 9024SOL    HW232393   2.181   2.946  10.739 -0.5357  0.3779 -2.0662
 9025SOL     OW32394   6.652  11.139   9.477 -0.3374 -0.5066 -0.1157
 9025SOL    HW132395   6.716  11.070   9.461  0.5346  0.3102 -0.3226
 9025SOL    HW232396   6.656  11.155   9.571 -0.5612 -0.7683 -0.0643
 9026SOL     OW32397   8.986   3.119   8.884 -0.7040  0.3572  0.1008
 9026SOL    HW132398   9.047   3.160   8.945  0.3067  1.1906 -1.4336
 9026SOL    HW232399   9.036   3.049   8.843 -1.1526  0.2738 -0.3129
 9027SOL     OW32400   9.134   0.269   1.012 -0.3326 -0.7524  0.3811
 9027SOL    HW132401   9.187   0.230   0.942 -1.1329  0.5566 -1.0082
 9027SOL    HW232402   9.167   0.227   1.092  1.8125 -1.0415 -0.5665
 9028SOL     OW32403  10.458   1.042   5.226 -0.1402  0.0526  0.0941
 9028SOL    HW132404  10.436   1.052   5.319 -1.1337  1.6393 -0.2757
 9028SOL    HW232405  10.477   0.949   5.216 -1.9611 -0.5231  1.4788
 9029SOL     OW32406   2.831   8.540   0.779 -0.1092 -0.6158  0.1212
 9029SOL    HW132407   2.851   8.628   0.746 -0.0074 -0.6220  0.1654
 9029SOL    HW232408   2.799   8.555   0.868 -1.0441 -0.5384 -0.2164
 9030SOL     OW32409   4.537   6.378   3.346 -0.2312 -0.2430  0.2880
 9030SOL    HW132410   4.532   6.469   3.316  0.0914 -0.8495 -1.7604
 9030SOL    HW232411   4.457   6.365   3.397 -0.0279  1.3212  1.0470
 9031SOL     OW32412   3.384   4.198   2.309  0.0302  0.0808 -0.0891
 9031SOL    HW132413   3.358   4.108   2.332  0.6823 -0.1446 -0.2229
 9031SOL    HW232414   3.313   4.230   2.254 -0.6198 -0.0555  0.6468
 9032SOL     OW32415  11.504   9.414   2.847  0.4787  0.2721 -0.2826
 9032SOL    HW132416  11.532   9.477   2.914 -0.6362  0.5222 -0.0252
 9032SOL    HW232417  11.414   9.393   2.871  0.4478 -0.5168 -1.0594
 9033SOL     OW32418   7.204   1.913  11.500 -0.7146 -0.2195 -0.0200
 9033SOL    HW132419   7.259   1.979  11.540 -0.7159 -0.3510  0.1978
 9033SOL    HW232420   7.173   1.860  11.573 -0.3717 -0.7207 -0.2338
 9034SOL     OW32421   8.584   5.508   7.350 -0.1562  0.1990 -0.3402
 9034SOL    HW132422   8.588   5.431   7.407 -0.2878  0.3003 -0.1944
 9034SOL    HW232423   8.644   5.570   7.390  0.3041  0.0031 -0.7149
 9035SOL     OW32424   5.210  11.733   5.922  0.1509 -0.2890 -0.2142
 9035SOL    HW132425   5.293  11.776   5.938  0.2599  0.0565 -1.5365
 9035SOL    HW232426   5.228  11.640   5.932  0.6248 -0.1947 -0.1775
 9036SOL     OW32427   0.722   9.985   6.579 -0.7921 -0.2926  0.2523
 9036SOL    HW132428   0.740  10.003   6.487 -1.3607  0.0888  0.2091
 9036SOL    HW232429   0.717   9.890   6.585  0.3756 -0.3749  0.1148
 9037SOL     OW32430   6.599   4.256   8.040 -0.3763 -0.0365  0.0866
 9037SOL    HW132431   6.504   4.266   8.045 -0.7818 -1.1424 -3.1276
 9037SOL    HW232432   6.628   4.332   7.990 -0.0363 -1.2202 -1.5924
 9038SOL     OW32433  11.636   4.769  10.833  0.2411 -0.0428 -0.0629
 9038SOL    HW132434  11.606   4.696  10.779 -0.5242  0.2017  0.0114
 9038SOL    HW232435  11.555   4.813  10.861  0.6904  2.0762 -1.8113
 9039SOL     OW32436   7.865   3.200   2.564 -0.1641 -0.1653  0.3031
 9039SOL    HW132437   7.799   3.169   2.501 -0.1210 -2.7540  1.3800
 9039SOL    HW232438   7.814   3.234   2.637 -0.2645  0.2094  0.0593
 9040SOL     OW32439   1.041   1.722   0.567  0.0904 -0.4106 -0.6654
 9040SOL    HW132440   0.987   1.667   0.623 -0.2737 -0.3793 -0.9819
 9040SOL    HW232441   1.072   1.663   0.498 -0.8771 -0.0862 -1.4107
 9041SOL     OW32442   3.971   1.734   8.277  0.2221  0.0650  0.0643
 9041SOL    HW132443   4.029   1.774   8.213 -1.2783  2.8400  0.2627
 9041SOL    HW232444   3.888   1.722   8.230  0.2630 -1.7592  0.3867
 9042SOL     OW32445   3.699   6.506   8.696 -0.5987 -0.4603  0.3145
 9042SOL    HW132446   3.638   6.446   8.738 -1.7059  1.4803  1.6740
 9042SOL    HW232447   3.737   6.557   8.768 -1.7317  2.2430 -0.8315
 9043SOL     OW32448   1.758  11.784   5.107 -0.0441  0.5991  0.2410
 9043SOL    HW132449   1.763  11.764   5.014 -1.8000 -1.0938  0.4452
 9043SOL    HW232450   1.835  11.840   5.124  0.7480  0.3020 -2.0227
 9044SOL     OW32451   5.375  10.085   6.761  0.2424 -0.2667  0.4154
 9044SOL    HW132452   5.341  10.155   6.816  0.2581 -0.2425  0.3947
 9044SOL    HW232453   5.318  10.010   6.779 -1.4182  0.4500 -1.4761
 9045SOL     OW32454   3.845   3.156   9.160 -0.4343 -0.4928  0.3461
 9045SOL    HW132455   3.805   3.231   9.204  0.5989 -1.3805  2.9996
 9045SOL    HW232456   3.849   3.088   9.227  0.0115 -2.4548 -1.5484
 9046SOL     OW32457   0.556  10.596   8.078 -0.1142  0.1786  0.4064
 9046SOL    HW132458   0.577  10.672   8.023 -1.5099  0.4245  0.1578
 9046SOL    HW232459   0.507  10.538   8.020 -0.4312 -0.1781  1.0274
 9047SOL     OW32460   5.215   4.203   5.264 -0.4429 -0.0356  0.5230
 9047SOL    HW132461   5.181   4.138   5.204  1.4799 -0.5782 -0.0588
 9047SOL    HW232462   5.186   4.287   5.228 -0.9319 -0.4580 -0.0703
 9048SOL     OW32463   9.012   9.547  11.569  0.4448  0.0772  0.3491
 9048SOL    HW132464   9.012   9.532  11.474  1.0833 -1.0201  0.5104
 9048SOL    HW232465   9.056   9.470  11.606 -0.1350  0.3095  1.5721
 9049SOL     OW32466   4.562   8.543   0.765  0.4525  0.8299 -0.4363
 9049SOL    HW132467   4.501   8.469   0.777  1.8160 -0.3989 -0.8357
 9049SOL    HW232468   4.548   8.571   0.675  1.2610 -0.2294 -0.9212
 9050SOL     OW32469   6.075   5.706   8.861  0.3640  0.3056 -0.2930
 9050SOL    HW132470   6.132   5.712   8.785  0.2301 -2.2859 -0.6746
 9050SOL    HW232471   5.986   5.711   8.825  0.2989  0.6028 -0.1036
 9051SOL     OW32472   5.596   5.494   8.552  0.3834 -0.0533 -0.3054
 9051SOL    HW132473   5.535   5.436   8.598 -0.1493  0.1299 -0.7596
 9051SOL    HW232474   5.675   5.443   8.541  1.4429  0.6253  2.8936
 9052SOL     OW32475  10.945   8.622   6.416  0.6676  0.6409 -0.4774
 9052SOL    HW132476  10.950   8.592   6.507 -0.2465 -0.7342 -0.8404
 9052SOL    HW232477  11.033   8.609   6.382  0.4921 -0.9921 -0.3897
 9053SOL     OW32478   7.849   6.405  10.218 -0.3803  0.4229  0.1245
 9053SOL    HW132479   7.847   6.319  10.260  0.2296  0.1619 -0.3642
 9053SOL    HW232480   7.907   6.393  10.142 -1.2121  0.9638 -0.6114
 9054SOL     OW32481   1.980   0.907  11.790  0.3997  0.0873  0.3125
 9054SOL    HW132482   1.972   0.813  11.773  0.5348  0.0249  0.5890
 9054SOL    HW232483   1.890   0.938  11.795  0.3592  0.0767 -0.3514
 9055SOL     OW32484   0.913   3.954   8.389 -0.1089  0.1091  0.2999
 9055SOL    HW132485   0.866   3.878   8.355  1.8703 -0.2615 -1.8759
 9055SOL    HW232486   0.984   3.918   8.442  0.0881  0.4631  0.2873
 9056SOL     OW32487   5.885   7.156   5.341 -0.2459 -0.3644 -0.3004
 9056SOL    HW132488   5.959   7.102   5.368 -0.8923 -0.5122  1.3147
 9056SOL    HW232489   5.808   7.100   5.354 -0.6370 -0.3859 -2.4308
 9057SOL     OW32490  11.090   0.618   3.999  0.3354 -0.2567 -0.0941
 9057SOL    HW132491  11.142   0.542   4.027  1.2115  0.6474  0.8246
 9057SOL    HW232492  11.017   0.621   4.061 -0.5594 -1.2157 -1.0620
 9058SOL     OW32493   0.062  10.051  10.258 -0.7233 -0.5128 -0.0176
 9058SOL    HW132494   0.012  10.013  10.186 -1.1654 -0.5097  0.2780
 9058SOL    HW232495   0.054   9.986  10.328  1.2207 -1.3827 -0.5374
 9059SOL     OW32496   6.623   0.454   2.216  0.6518  0.6271  0.5296
 9059SOL    HW132497   6.707   0.432   2.175  0.3899  0.8992 -0.1749
 9059SOL    HW232498   6.617   0.549   2.208  0.3270  0.6197  0.6782
 9060SOL     OW32499   6.656   4.399   6.634 -0.2516  0.0442  0.2189
 9060SOL    HW132500   6.713   4.367   6.564  0.3543 -0.7629  1.0738
 9060SOL    HW232501   6.576   4.347   6.627 -0.9246  1.1586 -0.9631
 9061SOL     OW32502   1.082   2.412   6.543 -0.2846  0.2473  0.3227
 9061SOL    HW132503   1.007   2.467   6.524 -1.0067 -0.5129  0.9067
 9061SOL    HW232504   1.064   2.329   6.499  0.5672  0.2999 -0.1548
 9062SOL     OW32505  10.717   8.656   3.729 -0.4160  0.2491 -0.3055
 9062SOL    HW132506  10.623   8.669   3.734 -0.8437 -1.8838 -1.6225
 9062SOL    HW232507  10.732   8.567   3.760  1.0714  0.2760 -0.8315
 9063SOL     OW32508  10.408   2.620   1.450  0.1506  0.5292 -0.1281
 9063SOL    HW132509  10.462   2.694   1.426 -0.2155  0.6687 -0.5324
 9063SOL    HW232510  10.324   2.636   1.407  0.1185 -0.1976 -0.3521
 9064SOL     OW32511   1.199   4.691  10.921 -0.6614 -0.4786 -0.3926
 9064SOL    HW132512   1.197   4.600  10.950  0.5332 -0.1071  0.9811
 9064SOL    HW232513   1.292   4.715  10.926 -1.0876  1.1374  0.4087
 9065SOL     OW32514   2.176   1.358   5.982 -0.3440  0.2047  0.0897
 9065SOL    HW132515   2.103   1.340   5.923  1.2811  2.1998 -2.7528
 9065SOL    HW232516   2.154   1.441   6.024  0.0223  0.5271 -0.3490
 9066SOL     OW32517   8.751   5.277   3.138 -0.6191  0.0018 -0.1393
 9066SOL    HW132518   8.741   5.212   3.208 -1.0727 -0.5486 -0.7087
 9066SOL    HW232519   8.834   5.322   3.159 -0.9449  0.1168  0.9637
 9067SOL     OW32520   3.078   1.230   6.927 -0.2853 -0.1822 -0.2149
 9067SOL    HW132521   3.129   1.185   6.994 -0.4602  0.0254  0.0587
 9067SOL    HW232522   3.134   1.228   6.849 -0.5720 -1.5089 -0.4228
 9068SOL     OW32523   1.400   8.803   7.444 -0.0440  0.2256  0.5714
 9068SOL    HW132524   1.436   8.891   7.457  1.1860 -0.1842  0.0477
 9068SOL    HW232525   1.306   8.814   7.459 -0.0785  1.8644 -0.5962
 9069SOL     OW32526   1.875   6.386  11.491  0.6145 -0.0929  0.4691
 9069SOL    HW132527   1.943   6.348  11.547 -0.9779 -1.0142  1.8512
 9069SOL    HW232528   1.884   6.339  11.408 -0.4325 -2.6797  1.7040
 9070SOL     OW32529   3.611   9.181  11.499 -0.3517 -0.5887  0.2155
 9070SOL    HW132530   3.526   9.167  11.458 -2.0552  1.6601  2.6233
 9070SOL    HW232531   3.638   9.093  11.529 -1.2941 -1.4927 -1.4570
 9071SOL     OW32532   0.798  10.903   5.706  0.2038 -0.1402 -0.3852
 9071SOL    HW132533   0.739  10.829   5.690 -0.2805  0.5166 -1.9193
 9071SOL    HW232534   0.882  10.863   5.726 -0.0158 -1.1246 -1.3146
 9072SOL     OW32535  10.049  11.627   0.163  0.1960 -0.1229 -0.4045
 9072SOL    HW132536  10.070  11.593   0.076  1.8620 -0.3113  0.0384
 9072SOL    HW232537  10.003  11.709   0.146 -0.3845 -0.6376 -1.4559
 9073SOL     OW32538   3.972   4.838   4.055  0.3180 -0.1684 -0.2445
 9073SOL    HW132539   3.889   4.880   4.033  1.2597  1.2995 -1.1295
 9073SOL    HW232540   3.962   4.748   4.023 -0.9588 -0.0376 -0.2543
 9074SOL     OW32541   8.246   1.882   4.119  0.5414 -0.3429  0.2636
 9074SOL    HW132542   8.319   1.872   4.181 -0.6456  1.0856  1.9847
 9074SOL    HW232543   8.217   1.792   4.102  0.6144 -0.7783  2.1882
 9075SOL     OW32544   8.471   4.508   8.247 -0.5820 -0.1818  0.6828
 9075SOL    HW132545   8.436   4.421   8.266 -0.2422 -1.1387 -2.5103
 9075SOL    HW232546   8.559   4.507   8.283 -1.1132 -0.5428  2.0385
 9076SOL     OW32547   4.562   4.788   9.523 -0.5855 -0.4994  0.1160
 9076SOL    HW132548   4.490   4.833   9.477 -2.1207 -1.6095  1.3428
 9076SOL    HW232549   4.520   4.746   9.597  1.3713 -1.2147  0.8660
 9077SOL     OW32550   4.721   1.409  11.565 -0.0151  0.4371 -0.0353
 9077SOL    HW132551   4.629   1.386  11.574  0.3687 -1.6903 -0.8791
 9077SOL    HW232552   4.725   1.464  11.487 -0.5277  0.1447 -0.2728
 9078SOL     OW32553   1.022   8.136  10.206  0.4546  0.1082  0.1987
 9078SOL    HW132554   0.952   8.144  10.141 -1.4066 -2.4701  1.6578
 9078SOL    HW232555   1.070   8.218  10.201 -1.4778  1.2100 -2.2636
 9079SOL     OW32556   8.260   9.096  11.615 -0.2285 -0.0663  0.1096
 9079SOL    HW132557   8.347   9.132  11.634 -0.6226  0.9895 -0.0406
 9079SOL    HW232558   8.200   9.169  11.628 -1.0978 -0.7751  0.1620
 9080SOL     OW32559   6.852   7.715   6.795  0.0394 -0.5399  0.3810
 9080SOL    HW132560   6.891   7.801   6.780  0.4129 -1.0136 -1.7374
 9080SOL    HW232561   6.891   7.659   6.727 -2.7654 -1.5370 -0.5261
 9081SOL     OW32562   6.518   0.234   8.623  0.0233  0.9229  0.7682
 9081SOL    HW132563   6.498   0.254   8.714 -0.8732  2.1015  0.3344
 9081SOL    HW232564   6.522   0.319   8.580  0.6361  0.3927 -0.2598
 9082SOL     OW32565   9.580   5.808  11.038  0.1825 -0.2632 -0.1529
 9082SOL    HW132566   9.568   5.797  11.132  0.8900 -1.4561 -0.1824
 9082SOL    HW232567   9.648   5.745  11.015  0.3721  0.3638 -1.3844
 9083SOL     OW32568   9.610   1.541   0.924  0.9503  0.3996  0.2408
 9083SOL    HW132569   9.672   1.586   0.982  0.5547 -1.1263  1.9437
 9083SOL    HW232570   9.531   1.531   0.977  0.5353 -0.9553 -0.5888
 9084SOL     OW32571   6.019   1.951   6.005  0.1782 -0.2919  0.0652
 9084SOL    HW132572   5.980   2.003   5.935 -0.8467 -1.0392  0.0540
 9084SOL    HW232573   6.067   2.014   6.059 -0.2839  0.5107 -0.4529
 9085SOL     OW32574   6.816  11.010   4.743 -0.0431 -0.3038  0.4760
 9085SOL    HW132575   6.911  11.018   4.742 -0.0955  0.3728  0.8320
 9085SOL    HW232576   6.799  10.922   4.708  0.5868  0.5291 -2.1030
 9086SOL     OW32577   6.401   0.719   0.383 -0.2338 -0.3462  0.2124
 9086SOL    HW132578   6.424   0.627   0.395 -0.8687 -0.5238  0.0847
 9086SOL    HW232579   6.324   0.732   0.438 -0.6304 -0.0924 -0.3953
 9087SOL     OW32580   4.262   6.504   9.909  0.3583 -0.0869 -0.1589
 9087SOL    HW132581   4.283   6.411   9.903  1.4525  0.2213 -1.9618
 9087SOL    HW232582   4.321   6.538   9.976 -0.1129 -0.6990  0.5769
 9088SOL     OW32583   2.428   7.459   5.188 -0.2303 -0.1868  0.6066
 9088SOL    HW132584   2.377   7.464   5.269  1.5102  0.8170  1.7010
 9088SOL    HW232585   2.462   7.369   5.186  0.0137 -0.1136  1.2070
 9089SOL     OW32586   0.350  11.409   7.740 -0.6001 -0.3951 -0.1224
 9089SOL    HW132587   0.430  11.414   7.688 -0.4433 -2.5792 -0.2008
 9089SOL    HW232588   0.281  11.441   7.682  0.0476  0.5602 -0.3982
 9090SOL     OW32589   5.663  11.387  10.449 -0.3718  0.3471 -0.8304
 9090SOL    HW132590   5.755  11.412  10.465 -0.7436  1.7563 -0.7473
 9090SOL    HW232591   5.657  11.298  10.484  0.8644  0.3829 -0.4438
 9091SOL     OW32592   0.664   5.856  11.512  0.2963 -0.4486 -0.7589
 9091SOL    HW132593   0.585   5.853  11.457 -0.6205  0.1161  0.4774
 9091SOL    HW232594   0.694   5.765  11.515  0.6399 -0.4314 -2.5426
 9092SOL     OW32595   9.651   7.593   8.591 -0.5993  0.2222 -0.1492
 9092SOL    HW132596   9.636   7.511   8.545  2.2129 -0.9125  0.6911
 9092SOL    HW232597   9.608   7.582   8.676  1.8701 -1.5941  0.9909
 9093SOL     OW32598   7.272   3.094   6.339  0.3529 -0.2461 -0.3805
 9093SOL    HW132599   7.207   3.139   6.285 -0.0899  0.4132  0.6853
 9093SOL    HW232600   7.356   3.129   6.310  0.1034  0.2681 -0.4848
 9094SOL     OW32601   9.826   7.302   6.789  0.3377  0.1137 -0.2186
 9094SOL    HW132602   9.914   7.326   6.758  0.2650 -1.1244 -1.4636
 9094SOL    HW232603   9.770   7.311   6.712 -1.1142  2.9846  1.0482
 9095SOL     OW32604   1.707   2.642   6.276  0.1548  0.4921  0.1581
 9095SOL    HW132605   1.794   2.616   6.245  0.2734  0.5760  0.4145
 9095SOL    HW232606   1.678   2.708   6.212 -0.7215 -1.1966 -1.2606
 9096SOL     OW32607   9.528   4.628   1.538 -0.4888 -0.1669 -0.5583
 9096SOL    HW132608   9.527   4.653   1.630 -1.2742  0.3710 -0.7024
 9096SOL    HW232609   9.551   4.535   1.538  0.2150 -0.0000  0.1286
 9097SOL     OW32610   2.975   7.876   9.463 -0.3452  0.4490 -0.1609
 9097SOL    HW132611   2.921   7.797   9.463 -0.7973  0.7466 -0.7807
 9097SOL    HW232612   2.957   7.916   9.549 -0.7550  0.3047 -0.1739
 9098SOL     OW32613  11.126   3.657   8.660 -0.4156  0.3261 -0.0030
 9098SOL    HW132614  11.032   3.648   8.644 -0.4484 -0.0466  0.3982
 9098SOL    HW232615  11.167   3.599   8.596 -0.4606  0.3815 -0.0829
 9099SOL     OW32616   2.383   9.206   2.354  0.2490  0.1158  0.4277
 9099SOL    HW132617   2.398   9.186   2.262  2.0008 -1.7071  1.0288
 9099SOL    HW232618   2.456   9.264   2.378  0.1813  0.0408  0.8193
 9100SOL     OW32619   1.516   5.977  10.148  0.4768  0.1118 -0.0013
 9100SOL    HW132620   1.599   6.012  10.182 -0.5940  0.9686  1.8856
 9100SOL    HW232621   1.492   6.037  10.077  1.8365 -0.6315 -1.1528
 9101SOL     OW32622   8.034   9.368   4.182  0.0304 -0.3105 -0.3402
 9101SOL    HW132623   8.011   9.323   4.263 -1.8199  1.1799  0.0515
 9101SOL    HW232624   8.021   9.302   4.113  1.8808 -1.6696  0.5465
 9102SOL     OW32625   9.938   3.230   3.052 -0.0208  0.1532  0.9539
 9102SOL    HW132626   9.849   3.220   3.085  0.4665  2.2608  3.1774
 9102SOL    HW232627   9.986   3.157   3.092 -0.7372 -1.2075 -0.5418
 9103SOL     OW32628   3.286   3.987   7.321 -0.2781 -0.3199 -0.5299
 9103SOL    HW132629   3.216   3.940   7.366 -0.5386  1.4554  1.0786
 9103SOL    HW232630   3.249   4.014   7.238 -0.4712 -1.9324 -1.0076
 9104SOL     OW32631   2.387   6.128   8.063  0.1315  0.2127  0.5115
 9104SOL    HW132632   2.440   6.189   8.115 -1.6696  1.7248  0.6699
 9104SOL    HW232633   2.405   6.042   8.100  0.0739  1.0747  2.6346
 9105SOL     OW32634   9.220   0.504   9.130  0.0792  0.3771  0.1889
 9105SOL    HW132635   9.264   0.523   9.047 -0.2493  0.1265 -0.0498
 9105SOL    HW232636   9.270   0.551   9.196  2.1322 -1.7368  0.2590
 9106SOL     OW32637  10.619   3.740   8.609  0.3702 -0.2564  0.4519
 9106SOL    HW132638  10.590   3.831   8.606  2.0261  0.3137 -2.6468
 9106SOL    HW232639  10.539   3.689   8.618 -0.6518  1.4510  1.4063
 9107SOL     OW32640   8.255   0.255  11.365 -0.3385 -0.1334 -0.4279
 9107SOL    HW132641   8.313   0.325  11.334 -0.2108  0.4575  1.0517
 9107SOL    HW232642   8.288   0.235  11.452 -1.0438 -1.3120 -0.4208
 9108SOL     OW32643   0.843   6.717  11.070  0.2425  0.1493  0.3204
 9108SOL    HW132644   0.866   6.732  10.978  2.4060  0.3089  0.8200
 9108SOL    HW232645   0.867   6.626  11.087 -1.9794 -0.5021  0.2826
 9109SOL     OW32646   4.903   2.305   7.153  0.1380 -0.2487 -0.1712
 9109SOL    HW132647   4.977   2.361   7.130  1.6833 -2.2705 -0.4422
 9109SOL    HW232648   4.934   2.253   7.228 -1.7543  0.2152  1.0112
 9110SOL     OW32649  10.049  10.720   3.029 -0.6284  0.0765  0.1747
 9110SOL    HW132650  10.098  10.670   3.094 -0.3876 -0.5548 -0.4900
 9110SOL    HW232651   9.976  10.663   3.005  0.3811 -0.5504 -1.5694
 9111SOL     OW32652   9.581   8.626   2.019  0.0061 -0.1969 -0.0068
 9111SOL    HW132653   9.526   8.702   1.998  1.0708  0.4845 -0.4368
 9111SOL    HW232654   9.539   8.587   2.095 -1.4385 -0.0854 -0.7024
 9112SOL     OW32655   1.964   6.352  10.916  0.1363  0.0864  0.1038
 9112SOL    HW132656   1.897   6.419  10.905  0.5858  0.3885 -0.9952
 9112SOL    HW232657   1.961   6.329  11.009 -1.2116  0.3670  0.1543
 9113SOL     OW32658   0.811   6.192  11.772  0.1462 -0.7473  0.0138
 9113SOL    HW132659   0.891   6.210  11.724 -0.5772  0.3022 -0.8727
 9113SOL    HW232660   0.741   6.215  11.711 -0.8476  2.3990  2.0416
 9114SOL     OW32661   3.638   7.191   0.984 -0.0092  0.1008 -0.0061
 9114SOL    HW132662   3.564   7.136   0.957  0.3521 -0.5738  0.3346
 9114SOL    HW232663   3.674   7.224   0.902  1.2938 -2.2130 -0.4523
 9115SOL     OW32664   3.468   9.011   4.810 -0.1244 -0.3171 -0.3320
 9115SOL    HW132665   3.385   8.962   4.816 -1.0918  1.3350  0.4473
 9115SOL    HW232666   3.521   8.960   4.750 -1.0857 -2.3093  0.4165
 9116SOL     OW32667   9.862   7.735   8.714  0.3852 -0.6040 -0.2182
 9116SOL    HW132668   9.789   7.675   8.705 -0.6067  0.3486  1.0560
 9116SOL    HW232669   9.823   7.815   8.751  2.0196 -0.0047  0.3081
 9117SOL     OW32670   4.752  10.834   6.234  0.6177  0.2455  0.1093
 9117SOL    HW132671   4.825  10.779   6.263 -0.0941 -1.2457 -0.8057
 9117SOL    HW232672   4.703  10.778   6.174 -0.1510  1.8979 -0.8613
 9118SOL     OW32673  10.254   6.339   2.092 -0.5145 -0.0632 -0.1107
 9118SOL    HW132674  10.339   6.323   2.135 -0.3708 -0.0227 -0.3792
 9118SOL    HW232675  10.253   6.433   2.076 -0.5959 -0.0691 -0.1398
 9119SOL     OW32676  11.534  11.802   0.032  0.0175  0.6140  0.0661
 9119SOL    HW132677  11.464  11.783  -0.031  0.4652  0.7299 -0.4735
 9119SOL    HW232678  11.612  11.816  -0.022  0.9253 -1.4823  0.7542
 9120SOL     OW32679   7.066  10.900   8.367  0.1012 -0.3457 -0.1213
 9120SOL    HW132680   7.158  10.874   8.369  0.6961  1.6985  1.1639
 9120SOL    HW232681   7.021  10.824   8.329  2.6373 -0.2944 -3.7726
 9121SOL     OW32682   1.844   4.950   8.914 -0.1664  0.6362  0.0172
 9121SOL    HW132683   1.859   4.886   8.844 -0.7605  1.2990 -0.7485
 9121SOL    HW232684   1.910   5.017   8.900  0.6669  0.0498  1.0204
 9122SOL     OW32685   4.760   4.627  10.706 -0.1888  0.1710  0.3466
 9122SOL    HW132686   4.855   4.631  10.692 -0.3428 -1.3347 -1.5484
 9122SOL    HW232687   4.747   4.547  10.757 -0.5997 -1.2903 -1.9150
 9123SOL     OW32688   0.540   2.945   8.574 -0.3440  0.0269 -0.1610
 9123SOL    HW132689   0.616   2.902   8.613  1.0114  2.0243 -0.4428
 9123SOL    HW232690   0.542   2.920   8.482 -0.9103 -1.0687  0.1034
 9124SOL     OW32691   5.333   4.007   9.175 -0.2985  0.2471 -0.1860
 9124SOL    HW132692   5.268   4.053   9.228 -1.6553 -1.3988 -0.3302
 9124SOL    HW232693   5.295   4.003   9.088 -0.5067 -1.5868 -0.0558
 9125SOL     OW32694   8.303   6.967   1.498  0.1292 -0.2246  0.2849
 9125SOL    HW132695   8.288   6.874   1.516 -1.4618 -0.0120  0.2208
 9125SOL    HW232696   8.268   6.981   1.410 -0.6434  0.6327  0.7058
 9126SOL     OW32697   1.211   4.948   6.645 -0.5382 -1.0332  0.2726
 9126SOL    HW132698   1.129   4.985   6.611 -0.0799 -1.2717 -1.1491
 9126SOL    HW232699   1.261   5.024   6.675 -1.5152 -0.9389  1.7283
 9127SOL     OW32700  10.038   7.393   5.622  0.1348 -0.3736 -0.5954
 9127SOL    HW132701  10.049   7.419   5.713  0.2386 -0.0053 -0.7117
 9127SOL    HW232702   9.945   7.374   5.613  0.2521 -1.1544 -0.2197
 9128SOL     OW32703  11.226   1.677   5.232 -0.1026 -0.0737  0.1929
 9128SOL    HW132704  11.218   1.611   5.301 -3.2660 -0.2400 -0.1885
 9128SOL    HW232705  11.217   1.761   5.278 -0.8639 -0.1254  0.1410
 9129SOL     OW32706  10.901   4.564   8.915  0.0037  0.0669 -0.4962
 9129SOL    HW132707  10.839   4.629   8.882  0.1242  0.4061 -0.0576
 9129SOL    HW232708  10.851   4.514   8.979 -0.7805 -1.7512 -2.3822
 9130SOL     OW32709  10.796   0.139   5.674  0.5368 -0.3996 -0.0591
 9130SOL    HW132710  10.842   0.058   5.650  0.3931  0.1956 -2.6353
 9130SOL    HW232711  10.836   0.206   5.620  0.0686  1.1447  1.4099
 9131SOL     OW32712  11.053   4.703  10.695 -0.7003 -0.1952 -0.2487
 9131SOL    HW132713  11.043   4.649  10.616 -2.1745  0.9309 -0.8689
 9131SOL    HW232714  11.040   4.793  10.665  1.0142  0.4958  0.8930
 9132SOL     OW32715   2.842   0.217   5.297  0.2334  0.8076 -0.4516
 9132SOL    HW132716   2.808   0.137   5.337  0.9457  0.7941  0.1463
 9132SOL    HW232717   2.935   0.199   5.283  0.4739  1.6444 -0.0109
 9133SOL     OW32718   0.896  10.471   3.882  0.0841  0.2607 -0.0091
 9133SOL    HW132719   0.817  10.497   3.930 -0.6150 -1.5944 -0.0416
 9133SOL    HW232720   0.866  10.401   3.823  1.8506 -1.0033  0.4988
 9134SOL     OW32721   5.091   1.255   5.909  0.2096  0.2681 -0.0453
 9134SOL    HW132722   5.032   1.181   5.897  1.1370 -0.6225  0.6876
 9134SOL    HW232723   5.077   1.282   6.000  0.8091  0.1393  0.0899
 9135SOL     OW32724   1.500   7.893  11.786 -0.8155 -0.1652  0.2212
 9135SOL    HW132725   1.500   7.797  11.775 -1.9843 -0.3294  1.4787
 9135SOL    HW232726   1.425   7.911  11.841 -0.1404  1.4227  0.6752
 9136SOL     OW32727   7.473   0.458   7.552 -0.2398  0.0509 -0.2046
 9136SOL    HW132728   7.564   0.488   7.550  0.8694 -2.9219  0.8510
 9136SOL    HW232729   7.462   0.412   7.469 -1.4267  1.8060 -1.1011
 9137SOL     OW32730   4.392   0.415   6.089  0.9187  1.1112 -0.1464
 9137SOL    HW132731   4.436   0.389   6.170  0.5979  1.7882  0.2553
 9137SOL    HW232732   4.392   0.511   6.091 -0.8375  1.1362  0.0286
 9138SOL     OW32733   3.350   2.306  11.336  0.5416 -0.1067  0.0605
 9138SOL    HW132734   3.437   2.271  11.354  1.1520  0.6920 -1.1741
 9138SOL    HW232735   3.304   2.233  11.293  1.1046 -0.0730 -0.6178
 9139SOL     OW32736  10.329   1.543   4.338 -0.2372  0.8113  0.1216
 9139SOL    HW132737  10.331   1.596   4.417  0.4051  1.0875 -0.0778
 9139SOL    HW232738  10.301   1.604   4.269 -0.6956  0.5958  0.1081
 9140SOL     OW32739   6.304  11.742   3.752  0.5675 -0.5378 -0.1007
 9140SOL    HW132740   6.397  11.729   3.769  0.7465  0.9598  0.2154
 9140SOL    HW232741   6.261  11.709   3.831  1.0085  0.8660  0.7678
 9141SOL     OW32742   8.710  10.071   0.896 -0.0345 -0.4653  0.0897
 9141SOL    HW132743   8.690   9.998   0.955 -2.4103 -0.2286 -0.3018
 9141SOL    HW232744   8.789  10.044   0.849 -2.6376 -4.4946 -2.5771
 9142SOL     OW32745   8.667   7.643   1.688 -0.1066 -0.5100  0.2541
 9142SOL    HW132746   8.725   7.639   1.613  0.3466 -0.2753  0.5877
 9142SOL    HW232747   8.582   7.667   1.651  0.1628 -0.1784 -0.1559
 9143SOL     OW32748   1.071   9.688   5.310 -0.3519 -0.3592  0.2525
 9143SOL    HW132749   1.116   9.604   5.305  0.2040 -0.0963  0.8471
 9143SOL    HW232750   1.135   9.748   5.346  0.4413  1.1548 -3.2360
 9144SOL     OW32751   1.318   6.534  11.685 -0.0014  0.3697 -0.1858
 9144SOL    HW132752   1.315   6.445  11.649  0.1302  0.0496  0.5699
 9144SOL    HW232753   1.322   6.521  11.780  0.8038  1.1683 -0.0984
 9145SOL     OW32754   2.194   3.354   6.486  0.4414  0.0879  0.0329
 9145SOL    HW132755   2.122   3.292   6.477 -0.4100  0.9749  0.5720
 9145SOL    HW232756   2.250   3.316   6.554 -0.3953  0.1950  0.8067
 9146SOL     OW32757   0.048   9.185   2.123  0.1843 -0.3032  0.1735
 9146SOL    HW132758   0.133   9.143   2.139  0.6800  0.5227 -0.2352
 9146SOL    HW232759   0.021   9.151   2.037  1.6117  1.7771 -1.1972
 9147SOL     OW32760   2.260   3.214  10.312  0.2850  0.1334 -0.1026
 9147SOL    HW132761   2.269   3.149  10.381 -1.7874 -0.7156 -0.5580
 9147SOL    HW232762   2.324   3.282  10.334  0.0655 -0.3718  2.3189
 9148SOL     OW32763   2.066   3.748   1.374  0.1047 -0.4046  0.4778
 9148SOL    HW132764   2.085   3.788   1.459 -0.6712  0.2264  0.3663
 9148SOL    HW232765   2.134   3.782   1.315  1.5579 -1.9912  1.1333
 9149SOL     OW32766   3.599   6.515   1.662  0.2607  0.1893  0.3918
 9149SOL    HW132767   3.587   6.466   1.581 -2.4543  2.1398 -0.5089
 9149SOL    HW232768   3.683   6.560   1.651  0.3271 -0.2171 -0.9495
 9150SOL     OW32769   3.439   5.490   1.325  0.3500 -0.0201 -0.0846
 9150SOL    HW132770   3.500   5.562   1.341  1.0878 -1.0532  2.1558
 9150SOL    HW232771   3.469   5.420   1.383 -1.7307 -1.3216 -0.4819
 9151SOL     OW32772   0.601   1.308  11.160 -0.1736 -0.2091  0.2248
 9151SOL    HW132773   0.576   1.394  11.126  2.1250  0.8165  0.9145
 9151SOL    HW232774   0.519   1.271  11.194 -1.3444  1.4090 -0.6744
 9152SOL     OW32775   0.591   7.979   9.620  0.3859 -0.1610  0.4053
 9152SOL    HW132776   0.509   7.958   9.574  0.4569  0.6554 -0.1165
 9152SOL    HW232777   0.654   7.995   9.550  0.3760  1.5847  0.7579
 9153SOL     OW32778  10.232   0.320  10.400 -0.0371  0.0685 -0.1671
 9153SOL    HW132779  10.325   0.299  10.401 -0.1129 -0.5419 -2.2303
 9153SOL    HW232780  10.191   0.248  10.351 -1.1973  1.6498 -1.6554
 9154SOL     OW32781   7.593   1.916   7.618 -0.2051  0.2372 -0.1330
 9154SOL    HW132782   7.619   1.960   7.537 -0.6985  0.7880  0.0046
 9154SOL    HW232783   7.550   1.836   7.589 -0.6791  0.5929 -0.4323
 9155SOL     OW32784   7.501  11.577  10.443  0.1118 -0.1605  0.3337
 9155SOL    HW132785   7.472  11.503  10.496 -2.3255  1.4705  1.4357
 9155SOL    HW232786   7.595  11.563  10.432 -0.2155 -3.2381  0.7169
 9156SOL     OW32787   9.667   3.359   4.627 -0.5182 -0.5038 -0.1223
 9156SOL    HW132788   9.761   3.360   4.608 -0.6939 -2.0841 -1.2836
 9156SOL    HW232789   9.659   3.307   4.707 -0.4928 -1.7013 -0.8685
 9157SOL     OW32790   7.190   3.998   8.702 -0.5906  0.3999  0.5003
 9157SOL    HW132791   7.110   3.997   8.649  0.3127  1.9016 -1.0303
 9157SOL    HW232792   7.233   3.914   8.684 -0.4608  0.7512 -0.9871
 9158SOL     OW32793   7.582   8.268   8.266  0.4658 -0.4468  0.0569
 9158SOL    HW132794   7.580   8.206   8.193  1.9832 -0.5216  0.0342
 9158SOL    HW232795   7.673   8.265   8.297  1.6169  4.0834 -1.9774
 9159SOL     OW32796   5.798   9.031   4.028  0.5408 -0.0047 -0.2908
 9159SOL    HW132797   5.863   9.033   4.098 -0.4284  2.5862  0.6796
 9159SOL    HW232798   5.725   8.981   4.064 -0.2345  1.8914  0.9397
 9160SOL     OW32799   0.984   0.093   3.403  0.0874  0.0658 -0.2400
 9160SOL    HW132800   1.062   0.085   3.457 -0.5544  0.2645  0.7445
 9160SOL    HW232801   0.980   0.010   3.354 -0.6113 -1.1973  1.8295
 9161SOL     OW32802   8.101  11.708   8.081  0.1648  0.1664 -0.7945
 9161SOL    HW132803   8.149  11.716   8.164  1.3086 -0.5834 -1.3632
 9161SOL    HW232804   8.009  11.717   8.106  0.3859 -1.3607  0.7493
 9162SOL     OW32805  10.914   4.536   8.081 -0.4636 -0.1226  0.4340
 9162SOL    HW132806  10.899   4.626   8.109 -0.6345 -0.5848  1.9395
 9162SOL    HW232807  11.006   4.534   8.054  0.2886  0.0105  2.7012
 9163SOL     OW32808   9.502   6.133   4.108 -0.0278 -0.3281  0.2290
 9163SOL    HW132809   9.424   6.166   4.154  1.5048 -1.4535  4.0116
 9163SOL    HW232810   9.532   6.208   4.056 -2.9175  0.4951 -0.4362
 9164SOL     OW32811   4.051   0.756   8.473  0.1342  0.1322 -0.2381
 9164SOL    HW132812   4.115   0.705   8.424  0.8379  0.3494  0.4313
 9164SOL    HW232813   4.078   0.747   8.564 -1.1995 -0.3385  0.1394
 9165SOL     OW32814  10.833   8.906   1.426 -0.1826 -0.5480 -0.2964
 9165SOL    HW132815  10.801   8.902   1.336  0.2764 -0.5388 -0.4631
 9165SOL    HW232816  10.811   8.994   1.456  0.5201 -0.2210 -0.7255
 9166SOL     OW32817   4.379   8.814   3.564 -0.1056 -0.0550  0.0775
 9166SOL    HW132818   4.462   8.813   3.611 -0.2481  0.9569  0.3876
 9166SOL    HW232819   4.312   8.801   3.632 -0.2485  0.1418 -0.0220
 9167SOL     OW32820   7.604   0.542   2.598 -0.3693 -0.8272  0.4565
 9167SOL    HW132821   7.686   0.495   2.584 -0.8867 -1.8746  0.8311
 9167SOL    HW232822   7.562   0.543   2.511 -0.1109 -0.5653  0.3327
 9168SOL     OW32823   0.481   8.335   6.406  0.3529 -0.3505 -0.0327
 9168SOL    HW132824   0.470   8.351   6.500  0.8105  2.1647 -0.3287
 9168SOL    HW232825   0.573   8.354   6.389  0.0473  0.2393 -1.1506
 9169SOL     OW32826  10.258   3.064   8.940 -0.6748  0.8105 -0.3523
 9169SOL    HW132827  10.318   3.018   8.882  1.2471  1.6373  0.8807
 9169SOL    HW232828  10.229   3.140   8.889 -1.0915  0.1352 -1.1355
 9170SOL     OW32829   5.220   5.463  10.960  0.1004  0.9092  0.5220
 9170SOL    HW132830   5.312   5.479  10.980  0.6144 -1.1869  0.0324
 9170SOL    HW232831   5.182   5.430  11.041  0.2316  0.1130  0.2729
 9171SOL     OW32832   3.567   5.980   0.627  0.8701 -0.1491  0.0062
 9171SOL    HW132833   3.485   5.946   0.663  0.2834  0.3856 -0.7954
 9171SOL    HW232834   3.570   5.945   0.538  1.0837  0.5430 -0.2598
 9172SOL     OW32835   3.128   9.025  10.092  0.0915 -0.3621  0.0909
 9172SOL    HW132836   3.083   8.940  10.089  0.4452 -0.5511  0.0693
 9172SOL    HW232837   3.061   9.089  10.068 -0.6336 -0.4446  1.7825
 9173SOL     OW32838   0.150   9.620   1.606 -0.4150 -0.0474  0.9781
 9173SOL    HW132839   0.096   9.692   1.574  1.0772  0.4069 -0.6982
 9173SOL    HW232840   0.179   9.575   1.527  3.3706  1.0298  1.5649
 9174SOL     OW32841   2.723   8.489   1.424 -0.0953 -0.2420 -0.0291
 9174SOL    HW132842   2.716   8.478   1.519 -0.8956  2.8547  0.3786
 9174SOL    HW232843   2.646   8.443   1.389  0.6475 -2.1224  0.6735
 9175SOL     OW32844   0.348   9.699   0.064  0.1028 -0.1805  0.2564
 9175SOL    HW132845   0.322   9.788   0.041 -0.2177  0.1339  1.7161
 9175SOL    HW232846   0.317   9.687   0.154  0.7927 -1.5065  0.3528
 9176SOL     OW32847   3.092   2.635   5.014 -0.2221 -0.7105  0.6928
 9176SOL    HW132848   3.148   2.562   5.039 -0.3952 -1.3885 -0.8262
 9176SOL    HW232849   3.047   2.605   4.935 -0.3730  1.0055  0.0928
 9177SOL     OW32850   6.474   8.720   3.527 -0.2011  0.1710  0.0822
 9177SOL    HW132851   6.525   8.665   3.466  1.6472  1.7083  0.1451
 9177SOL    HW232852   6.463   8.665   3.605 -1.1960 -1.2383 -0.9957
 9178SOL     OW32853   7.654  11.554   6.561  0.0300 -0.0041  0.4403
 9178SOL    HW132854   7.562  11.564   6.535  0.3946 -1.0835 -1.4064
 9178SOL    HW232855   7.660  11.464   6.593  0.3810  0.1780  0.8984
 9179SOL     OW32856  11.255   9.330   2.880  0.2962  0.0632 -0.4329
 9179SOL    HW132857  11.236   9.279   2.801 -1.2326 -1.3203  0.7765
 9179SOL    HW232858  11.179   9.317   2.936  2.5425 -1.4175  2.5174
 9180SOL     OW32859   3.474   4.493   0.983  0.5286 -0.1228 -0.5625
 9180SOL    HW132860   3.567   4.487   0.963  0.1909 -0.1376 -2.2761
 9180SOL    HW232861   3.464   4.448   1.067  2.1887  0.7234  0.1385
 9181SOL     OW32862  10.006   0.829   1.481 -0.5407 -0.1083  0.3421
 9181SOL    HW132863  10.008   0.903   1.420 -0.4135 -1.0327 -0.7975
 9181SOL    HW232864   9.961   0.760   1.434 -2.3863 -0.1992  2.0975
 9182SOL     OW32865  10.856  10.590   7.997  0.0404 -0.5551  0.5957
 9182SOL    HW132866  10.829  10.600   8.089  0.1474  0.5299  0.5173
 9182SOL    HW232867  10.931  10.530   8.001  1.2901  1.0024  1.4496
 9183SOL     OW32868   7.854   1.689   4.185 -0.1335 -0.3716 -0.1531
 9183SOL    HW132869   7.881   1.643   4.105  0.1182 -0.6176  0.0726
 9183SOL    HW232870   7.758   1.689   4.181 -0.1435 -1.2123  0.0112
 9184SOL     OW32871   4.395  10.075  10.314  0.0279 -0.3241 -0.1657
 9184SOL    HW132872   4.450  10.085  10.391 -0.7353  0.3343  0.3191
 9184SOL    HW232873   4.312  10.116  10.338  0.2202  1.1849 -1.8119
 9185SOL     OW32874   4.144   0.083   4.193 -0.5059 -0.3051  0.2551
 9185SOL    HW132875   4.227   0.125   4.172  0.9834 -1.6373  2.9810
 9185SOL    HW232876   4.090   0.153   4.231  0.9893 -0.1994  2.3633
 9186SOL     OW32877   2.234  10.470   0.574 -0.4167 -0.3907 -0.2563
 9186SOL    HW132878   2.307  10.443   0.518 -0.9793  1.0108 -1.7310
 9186SOL    HW232879   2.181  10.390   0.585 -0.0760 -0.7887 -1.3989
 9187SOL     OW32880   1.134   5.627   5.876 -0.5321 -0.2305 -0.2113
 9187SOL    HW132881   1.093   5.682   5.809 -1.7647 -2.1008 -1.0539
 9187SOL    HW232882   1.181   5.560   5.826 -0.5318 -0.9906  0.7929
 9188SOL     OW32883   9.019   7.268   3.155 -0.5028 -0.0788 -0.3978
 9188SOL    HW132884   8.947   7.206   3.141 -0.0604 -0.5731 -0.4871
 9188SOL    HW232885   9.091   7.215   3.187 -0.9486  0.7610  2.2427
 9189SOL     OW32886  10.696   2.353  11.802 -0.0993 -0.3670 -0.3218
 9189SOL    HW132887  10.651   2.284  11.753  0.3566 -0.4494 -0.6316
 9189SOL    HW232888  10.713   2.421  11.737  0.4778 -0.4614 -0.2779
 9190SOL     OW32889   9.401   2.309   1.716  0.1647  0.4904 -0.0640
 9190SOL    HW132890   9.354   2.228   1.732  0.3534  0.1653 -1.1045
 9190SOL    HW232891   9.477   2.283   1.663  1.0038  1.1372  0.7842
 9191SOL     OW32892   7.999   7.629   1.279  0.1390 -0.7987 -0.1900
 9191SOL    HW132893   7.917   7.661   1.244  0.1838  0.4834  0.8006
 9191SOL    HW232894   8.049   7.602   1.202 -0.6507 -0.2559 -0.9109
 9192SOL     OW32895  10.895   7.950   8.869  0.0612  0.0802  0.2344
 9192SOL    HW132896  10.828   7.946   8.802  1.5086 -0.7295 -1.2287
 9192SOL    HW232897  10.870   7.883   8.933 -0.2961 -0.5068 -0.5174
 9193SOL     OW32898   9.201   2.069   1.529 -0.2190 -0.2254 -0.4297
 9193SOL    HW132899   9.262   2.141   1.521 -0.4571  0.0367  0.0729
 9193SOL    HW232900   9.253   1.991   1.510  0.5516 -0.1179  1.0880
 9194SOL     OW32901   4.814   8.425   9.074 -0.0351 -0.0963 -0.0725
 9194SOL    HW132902   4.784   8.357   9.014 -1.4603  1.1945 -0.8879
 9194SOL    HW232903   4.770   8.405   9.157 -0.2960 -0.2779 -0.2537
 9195SOL     OW32904   9.322  10.990   1.563  0.2885  0.0906  0.2771
 9195SOL    HW132905   9.312  10.938   1.484  1.5691 -0.4616  0.4542
 9195SOL    HW232906   9.246  11.049   1.563  0.4115  0.2979 -1.4867
 9196SOL     OW32907  10.167   8.692   8.755 -0.5025  0.0837 -0.5404
 9196SOL    HW132908  10.178   8.598   8.768 -1.7135 -0.1464 -0.9767
 9196SOL    HW232909  10.181   8.731   8.841 -0.7399 -0.5843 -0.1920
 9197SOL     OW32910   5.106   2.211   0.774 -0.2714  0.2144  0.0074
 9197SOL    HW132911   5.095   2.220   0.680 -0.9991  0.4986  0.1097
 9197SOL    HW232912   5.037   2.149   0.800  1.5398 -1.9268  0.0051
 9198SOL     OW32913  11.265   5.426   3.747 -0.7081  0.2250 -0.5634
 9198SOL    HW132914  11.273   5.368   3.671 -2.0000 -2.5261  1.2224
 9198SOL    HW232915  11.345   5.478   3.746  0.7900 -1.9272 -2.0937
 9199SOL     OW32916   7.169  10.858   0.732 -0.3301  0.6465  0.3685
 9199SOL    HW132917   7.158  10.812   0.815 -2.2113  0.0331 -0.1703
 9199SOL    HW232918   7.250  10.909   0.743  0.7629 -1.2645  1.6892
 9200SOL     OW32919   9.032   9.377   7.949 -0.2750  0.6306 -0.1623
 9200SOL    HW132920   9.078   9.432   7.885  0.8534 -0.1130 -0.0136
 9200SOL    HW232921   9.043   9.288   7.917  0.6237  0.2055  1.2335
 9201SOL     OW32922   7.073   5.426   6.270  0.2318 -0.1575 -0.3442
 9201SOL    HW132923   7.130   5.418   6.193  0.6152 -0.5819 -0.0158
 9201SOL    HW232924   7.133   5.437   6.343 -0.1357  2.1744 -0.2912
 9202SOL     OW32925   8.725  10.840   6.373 -1.0118  0.5498  0.3622
 9202SOL    HW132926   8.664  10.770   6.350 -1.0653  1.0975 -1.2297
 9202SOL    HW232927   8.670  10.907   6.414 -1.9105  1.9100 -2.8217
 9203SOL     OW32928   9.345   3.965   1.051  0.2369  0.0345  0.2431
 9203SOL    HW132929   9.255   3.946   1.076  0.7725 -2.1755  0.7445
 9203SOL    HW232930   9.358   3.915   0.970  0.8524  0.8405 -0.1741
 9204SOL     OW32931   2.543   0.647   0.754 -0.0606  0.0462  0.3290
 9204SOL    HW132932   2.458   0.604   0.745  0.3001 -0.2128 -3.7463
 9204SOL    HW232933   2.605   0.575   0.767  0.1452 -0.5827 -3.1749
 9205SOL     OW32934   4.898   0.294  10.658 -0.0394  0.6193  0.1121
 9205SOL    HW132935   4.993   0.280  10.654  0.1108  1.3896  0.8756
 9205SOL    HW232936   4.883   0.370  10.602 -0.0872  1.0711  0.7377
 9206SOL     OW32937   3.639  11.025   5.919  0.2864 -0.2295  0.0027
 9206SOL    HW132938   3.548  11.001   5.900  0.1484  1.1231 -1.1256
 9206SOL    HW232939   3.690  10.979   5.853  0.4726 -1.1247  0.7394
 9207SOL     OW32940   9.329   8.488   5.987  0.2561  0.5830 -0.2872
 9207SOL    HW132941   9.278   8.561   5.953 -0.0350  1.1328  1.2802
 9207SOL    HW232942   9.330   8.424   5.915 -2.8740  0.4053 -0.3075
 9208SOL     OW32943   2.626   9.931   0.008  0.2687 -0.4443 -0.6472
 9208SOL    HW132944   2.595   9.940  -0.082 -0.6346 -0.6684 -0.3714
 9208SOL    HW232945   2.547   9.911   0.058  0.7826 -0.4391  0.1773
 9209SOL     OW32946  10.142   7.815   7.516 -0.2739 -0.4082  0.6350
 9209SOL    HW132947  10.073   7.833   7.581  1.4149  0.7057  2.2519
 9209SOL    HW232948  10.188   7.739   7.550  2.6167  1.9913  2.7047
 9210SOL     OW32949   4.678   9.782   3.343  0.4661 -1.0275  0.2611
 9210SOL    HW132950   4.647   9.808   3.256 -0.7202 -1.6644  0.4716
 9210SOL    HW232951   4.644   9.850   3.401  4.0373  1.3462 -0.0495
 9211SOL     OW32952   9.269   9.815   6.039  0.4272  0.1314  0.2702
 9211SOL    HW132953   9.279   9.800   5.945  2.7415  1.5272  0.2128
 9211SOL    HW232954   9.241   9.906   6.046  2.1791  0.6666  0.9137
 9212SOL     OW32955   3.462   8.255   3.577 -0.1118  0.2042 -0.1269
 9212SOL    HW132956   3.420   8.313   3.513 -0.1152  0.9371  0.5244
 9212SOL    HW232957   3.539   8.303   3.606 -1.4041  1.0584  2.2650
 9213SOL     OW32958  10.195  10.639   1.523  0.3308  0.5736  0.0281
 9213SOL    HW132959  10.116  10.662   1.573 -0.4736 -1.8078 -0.0476
 9213SOL    HW232960  10.179  10.675   1.436 -0.2441  0.8948  0.2588
 9214SOL     OW32961   3.932   2.301  10.233  0.1163 -0.0348 -0.5820
 9214SOL    HW132962   3.932   2.335  10.144  0.1972 -0.1598 -0.6298
 9214SOL    HW232963   3.975   2.216  10.227  1.5595  0.6202 -0.1904
 9215SOL     OW32964   2.729   5.104   4.323 -0.2017  0.3733  0.5026
 9215SOL    HW132965   2.772   5.065   4.399 -0.9139 -0.2369  0.6078
 9215SOL    HW232966   2.800   5.134   4.267  0.3505 -0.4712  0.7410
 9216SOL     OW32967   1.432   0.231   5.452  0.2136 -0.2731  0.4040
 9216SOL    HW132968   1.380   0.152   5.437  1.8188 -1.5152  1.0657
 9216SOL    HW232969   1.440   0.236   5.547  1.5704 -0.3013  0.2986
 9217SOL     OW32970   1.458  11.455   3.090 -0.0654 -0.1844  0.0232
 9217SOL    HW132971   1.445  11.395   3.163 -0.3863  1.3981  1.3310
 9217SOL    HW232972   1.527  11.514   3.120  0.5960 -0.1806 -1.4291
 9218SOL     OW32973   0.457   8.281   0.893 -0.5417  0.6392 -0.1282
 9218SOL    HW132974   0.481   8.196   0.855 -1.7634  0.0220  0.4385
 9218SOL    HW232975   0.538   8.333   0.888 -0.1905  0.0080 -1.9617
 9219SOL     OW32976   0.476   9.160   6.426  0.2154  0.2401  0.3377
 9219SOL    HW132977   0.474   9.149   6.331  0.3069  0.2363  0.3368
 9219SOL    HW232978   0.510   9.077   6.460  2.5619  1.0752  0.2356
 9220SOL     OW32979   2.974   7.982   4.087 -0.2316 -0.0932 -0.6427
 9220SOL    HW132980   2.956   7.894   4.052  0.5627 -0.0331 -1.2252
 9220SOL    HW232981   3.026   7.966   4.165 -3.6614 -0.3395  1.7955
 9221SOL     OW32982  11.776   9.860   6.177  0.1889  0.3953 -0.9404
 9221SOL    HW132983  11.750   9.894   6.263  1.0695  0.0858 -0.5378
 9221SOL    HW232984  11.869   9.837   6.188 -0.2623 -1.8035 -1.2975
 9222SOL     OW32985   5.887   0.516  11.310 -0.1167  0.0416  0.1190
 9222SOL    HW132986   5.942   0.488  11.382  0.1200 -0.6173 -0.3124
 9222SOL    HW232987   5.823   0.446  11.299 -0.3831  0.3084 -0.0770
 9223SOL     OW32988   8.640   1.118  11.515  0.2447  0.2326  0.3614
 9223SOL    HW132989   8.613   1.028  11.532 -0.2918  0.6029  1.6656
 9223SOL    HW232990   8.725   1.111  11.472 -0.6585 -0.9136 -1.3231
 9224SOL     OW32991   9.769   7.197  11.279  0.0087  0.1794 -0.3180
 9224SOL    HW132992   9.765   7.108  11.313 -1.3444  0.4437  0.3252
 9224SOL    HW232993   9.691   7.205  11.223  0.7329  0.6116 -1.2905
 9225SOL     OW32994   4.975   2.272   5.263  0.0401 -0.1645  0.2305
 9225SOL    HW132995   4.899   2.304   5.312 -0.1710  1.8738 -1.2612
 9225SOL    HW232996   5.050   2.300   5.314 -0.1943  1.0528 -0.0558
 9226SOL     OW32997   6.725   1.348   8.490  0.1555 -0.3070  0.1220
 9226SOL    HW132998   6.817   1.321   8.487 -0.2960 -1.9217 -0.1506
 9226SOL    HW232999   6.676   1.267   8.480 -1.3139  0.6388 -0.7366
 9227SOL     OW33000   0.651   0.029   9.055  0.1650 -0.1541  0.0829
 9227SOL    HW133001   0.632  -0.049   9.004 -0.0019  0.2097 -0.4274
 9227SOL    HW233002   0.689   0.090   8.991 -0.6416  0.5361  0.2461
 9228SOL     OW33003   7.550   5.255   0.850  0.2153 -0.2265  0.5061
 9228SOL    HW133004   7.620   5.290   0.794 -1.8017  0.5695 -1.6770
 9228SOL    HW233005   7.502   5.332   0.879 -1.4893 -0.8686 -0.4838
 9229SOL     OW33006   3.775   3.820  10.671 -0.3625 -0.5436  0.0418
 9229SOL    HW133007   3.744   3.804  10.760  0.8594  0.0644  0.5980
 9229SOL    HW233008   3.868   3.799  10.674 -0.1096  0.3848 -0.8563
 9230SOL     OW33009  10.240   8.967  11.084  0.2464 -0.0924  0.3602
 9230SOL    HW133010  10.189   9.045  11.108 -0.5797 -1.0189  1.7643
 9230SOL    HW233011  10.328   8.984  11.117  0.2729  0.5646 -0.0366
 9231SOL     OW33012   1.960   7.114   1.407 -0.0655  0.0688 -0.4965
 9231SOL    HW133013   1.964   7.203   1.440 -1.4616  0.2350 -0.6994
 9231SOL    HW233014   2.051   7.084   1.404  0.3516  1.2447  0.2017
 9232SOL     OW33015  11.401   3.518   4.575  0.2771  0.5124 -0.1544
 9232SOL    HW133016  11.342   3.529   4.650  1.0995 -0.3153  0.6226
 9232SOL    HW233017  11.360   3.449   4.523  1.0282 -0.7751  0.8954
 9233SOL     OW33018   8.301   3.210   3.057 -0.8136  0.3967  0.2307
 9233SOL    HW133019   8.250   3.291   3.060 -0.5002  0.7139 -2.0109
 9233SOL    HW233020   8.353   3.216   2.978  0.0099 -1.5549  0.5558
 9234SOL     OW33021   3.548   9.448   1.634 -0.1346 -0.0637  0.5200
 9234SOL    HW133022   3.456   9.451   1.606  0.0193  2.9038  0.1024
 9234SOL    HW233023   3.582   9.368   1.594 -2.0756 -0.3205 -0.7656
 9235SOL     OW33024  10.371   0.169   5.441  0.4502 -0.3071  0.0941
 9235SOL    HW133025  10.452   0.199   5.399  1.6796 -1.2507  1.7051
 9235SOL    HW233026  10.353   0.084   5.400 -0.1170  0.1941 -0.7275
 9236SOL     OW33027   3.497   9.911   3.698 -0.2932  0.2953 -0.0191
 9236SOL    HW133028   3.448   9.923   3.779 -1.7418  1.6217 -1.0121
 9236SOL    HW233029   3.439   9.856   3.644  0.1562  0.3387 -0.5480
 9237SOL     OW33030  10.979   9.816   7.279  0.5964 -0.7985  0.3357
 9237SOL    HW133031  11.017   9.866   7.207 -2.2449 -0.2813 -0.9682
 9237SOL    HW233032  10.979   9.876   7.353  2.5078 -0.9429  0.4968
 9238SOL     OW33033   2.577   3.059   7.300  0.1178  0.5717 -0.2792
 9238SOL    HW133034   2.610   2.970   7.289  0.0174  0.5232 -0.1977
 9238SOL    HW233035   2.567   3.069   7.394 -1.5942  0.0256 -0.3654
 9239SOL     OW33036   2.225   3.998   7.578  0.0831 -0.4146 -0.4995
 9239SOL    HW133037   2.177   3.915   7.583  1.2337 -1.0867 -0.1491
 9239SOL    HW233038   2.284   3.987   7.504  1.1021 -0.3876  0.2913
 9240SOL     OW33039   6.918   2.668   7.234 -0.4577 -0.0554 -1.0908
 9240SOL    HW133040   6.845   2.726   7.256  0.7227  1.2655 -0.5394
 9240SOL    HW233041   6.946   2.697   7.148  1.7521  2.0026  0.1989
 9241SOL     OW33042   6.174   4.893   9.367  1.0589 -0.1746 -0.1489
 9241SOL    HW133043   6.101   4.948   9.395  1.2904 -1.0710  2.5370
 9241SOL    HW233044   6.133   4.817   9.326  0.6292  0.4898 -0.9816
 9242SOL     OW33045   9.995  10.210   0.340 -0.1829  0.1308 -0.4851
 9242SOL    HW133046  10.051  10.223   0.264 -2.2775 -1.8080 -2.5196
 9242SOL    HW233047  10.019  10.124   0.373  0.0005  0.5239  0.4331
 9243SOL     OW33048   5.904   2.311   1.806 -0.2523  0.6713  0.2088
 9243SOL    HW133049   5.893   2.345   1.717 -1.0335 -0.7148 -0.2597
 9243SOL    HW233050   5.876   2.220   1.800  1.4279  0.0168  1.4814
 9244SOL     OW33051   0.722   4.583   1.486  0.1682  0.2454 -0.2443
 9244SOL    HW133052   0.689   4.614   1.570  0.9337  0.5530 -0.0459
 9244SOL    HW233053   0.648   4.536   1.446 -1.0132  2.2545 -0.5397
 9245SOL     OW33054   7.343   7.907   1.716  0.5133  0.2067 -0.0761
 9245SOL    HW133055   7.266   7.871   1.760  0.6883 -0.5076 -0.3410
 9245SOL    HW233056   7.408   7.916   1.785  1.0423 -1.6251 -0.2886
 9246SOL     OW33057   3.936   3.839   7.453  0.2910  0.8122 -0.5525
 9246SOL    HW133058   3.908   3.916   7.504  0.3315  0.2354  0.3515
 9246SOL    HW233059   3.857   3.811   7.407 -0.4759 -0.3102  1.3469
 9247SOL     OW33060   7.056   7.130   5.696  0.6039  0.1278  0.5655
 9247SOL    HW133061   7.010   7.048   5.678  1.2941 -0.2531  0.5025
 9247SOL    HW233062   7.038   7.185   5.620 -0.1657  0.1743  0.7773
 9248SOL     OW33063   7.076   8.346   1.827 -0.2388  0.0853  0.2514
 9248SOL    HW133064   7.002   8.405   1.845 -0.0377  0.3690  0.1641
 9248SOL    HW233065   7.150   8.387   1.873 -0.2729 -0.5369  0.8719
 9249SOL     OW33066  11.265   6.062   9.122  0.6302 -0.0629 -0.8956
 9249SOL    HW133067  11.243   6.015   9.042 -0.6324 -0.8684 -0.1224
 9249SOL    HW233068  11.189   6.049   9.179  1.2866  0.8931  0.2591
 9250SOL     OW33069   5.542   7.360   8.513  0.1485 -0.0257 -0.1524
 9250SOL    HW133070   5.551   7.283   8.570  2.4702  0.1455 -0.1887
 9250SOL    HW233071   5.460   7.346   8.466 -0.7478 -1.2373  1.6403
 9251SOL     OW33072   6.790   9.387   9.807 -0.5743  0.0807  0.4487
 9251SOL    HW133073   6.816   9.392   9.715 -2.3837  0.0818 -0.0870
 9251SOL    HW233074   6.736   9.464   9.822 -1.4446 -0.6275  1.1187
 9252SOL     OW33075   9.819   6.406   7.653  0.0667  0.0151  0.4037
 9252SOL    HW133076   9.804   6.314   7.632 -1.4509 -0.0613  1.6311
 9252SOL    HW233077   9.881   6.436   7.587 -0.3387 -1.5715 -0.7550
 9253SOL     OW33078  10.243   3.687   6.272 -0.3675 -0.2010 -0.3352
 9253SOL    HW133079  10.170   3.636   6.304  0.9975 -0.3211  2.9073
 9253SOL    HW233080  10.311   3.623   6.252 -0.1666  0.0815 -0.5803
 9254SOL     OW33081  11.774   0.596   8.922 -0.3895 -0.4463  0.2237
 9254SOL    HW133082  11.812   0.516   8.885  1.4922  0.4270  0.1776
 9254SOL    HW233083  11.753   0.572   9.012  1.3663 -0.6870  0.6113
 9255SOL     OW33084   3.800   7.506   0.398 -0.0032 -0.4999 -0.6183
 9255SOL    HW133085   3.816   7.417   0.367  0.5029  0.3400 -3.0296
 9255SOL    HW233086   3.874   7.525   0.456 -0.1370 -1.6312 -0.0420
 9256SOL     OW33087   9.658   6.240  11.014 -0.4134 -0.0149 -0.1952
 9256SOL    HW133088   9.640   6.234  11.108 -1.1846  0.2290 -0.3164
 9256SOL    HW233089   9.645   6.151  10.982  1.3153 -0.4168  0.1597
 9257SOL     OW33090  11.330   0.583   6.775  0.0041  0.3728 -0.2966
 9257SOL    HW133091  11.322   0.631   6.693  0.4374  1.0960  0.0777
 9257SOL    HW233092  11.280   0.635   6.838 -0.8160 -0.4782 -0.2124
 9258SOL     OW33093   8.171   0.998   0.222 -0.2027 -0.1440 -0.8550
 9258SOL    HW133094   8.077   1.016   0.232 -0.0460  0.2383  0.0072
 9258SOL    HW233095   8.185   0.918   0.272 -0.2394 -0.7824 -1.8207
 9259SOL     OW33096   9.149   5.297   4.546  0.4232 -0.3206 -0.1157
 9259SOL    HW133097   9.074   5.263   4.498  0.8129 -0.0067 -0.9600
 9259SOL    HW233098   9.173   5.226   4.606  0.3195 -0.9682 -0.8261
 9260SOL     OW33099   2.028   9.227  11.494  0.3411 -0.0234 -0.3549
 9260SOL    HW133100   2.026   9.133  11.508  1.9427 -0.0079  0.1845
 9260SOL    HW233101   2.115   9.254  11.524  0.2222  1.5031 -1.2752
 9261SOL     OW33102   8.741   3.737   0.748  0.7141  0.6806  0.1845
 9261SOL    HW133103   8.833   3.724   0.771  0.6328 -1.9746 -0.6732
 9261SOL    HW233104   8.735   3.830   0.726  3.2037  0.9175  0.1833
 9262SOL     OW33105   2.449  10.675   5.511  0.3108  0.5306  0.6511
 9262SOL    HW133106   2.498  10.710   5.585 -0.1393  0.6756  0.8882
 9262SOL    HW233107   2.449  10.746   5.446  0.3329  0.5670  0.6914
 9263SOL     OW33108   6.857  11.803   4.147  0.1146 -0.0148 -0.4995
 9263SOL    HW133109   6.872  11.862   4.221  1.4384  0.0037 -0.7688
 9263SOL    HW233110   6.825  11.722   4.187 -3.4158  1.3405 -0.2199
 9264SOL     OW33111   6.708   7.317   4.008  0.4195 -0.0610 -0.0979
 9264SOL    HW133112   6.736   7.406   3.988  1.5851 -0.3381  0.2649
 9264SOL    HW233113   6.710   7.272   3.923  1.4146 -0.1593 -0.0341
 9265SOL     OW33114   7.415   8.627   0.878 -0.2355 -0.4657  0.5345
 9265SOL    HW133115   7.490   8.669   0.920  0.6815  2.6710 -3.5446
 9265SOL    HW233116   7.340   8.652   0.932  1.0345  1.3409  1.5697
 9266SOL     OW33117  10.197   8.852   7.676 -0.1633 -0.2217  0.4512
 9266SOL    HW133118  10.285   8.859   7.639 -0.7167 -1.4198 -1.2040
 9266SOL    HW233119  10.139   8.870   7.602 -1.3090 -1.5181  0.9984
 9267SOL     OW33120   8.865   4.567   7.026  0.1987 -0.0628  0.1823
 9267SOL    HW133121   8.813   4.615   7.090  0.7996 -0.3248  0.8927
 9267SOL    HW233122   8.930   4.521   7.079  2.1250  1.4400 -0.7482
 9268SOL     OW33123   8.118   1.654   8.371 -0.2592  0.8947 -0.0999
 9268SOL    HW133124   8.120   1.709   8.450 -0.9865  0.5745  0.1557
 9268SOL    HW233125   8.194   1.682   8.320  1.8456 -0.6593  1.9215
 9269SOL     OW33126   9.486   2.689  10.580  0.1419 -0.1614 -0.4037
 9269SOL    HW133127   9.393   2.680  10.599  0.1353  0.4804 -0.1305
 9269SOL    HW233128   9.490   2.711  10.487  0.0358 -0.4203 -0.4709
 9270SOL     OW33129   6.116  11.205  10.582  0.0176 -0.0923  0.0344
 9270SOL    HW133130   6.149  11.117  10.597 -0.8623 -0.5255 -0.4547
 9270SOL    HW233131   6.037  11.211  10.635  0.4875  0.6863  0.6694
 9271SOL     OW33132   5.927  11.632  10.286 -0.2008  0.4798  0.3918
 9271SOL    HW133133   5.989  11.623  10.213 -1.3915  1.0239 -0.7253
 9271SOL    HW233134   5.945  11.557  10.342  0.8939  0.1614 -0.3499
 9272SOL     OW33135   8.008   1.138   5.110 -0.3954  0.2324 -0.4094
 9272SOL    HW133136   7.960   1.173   5.184 -0.2034 -0.9510  0.3016
 9272SOL    HW233137   8.035   1.215   5.060 -3.9343  0.9588 -1.4743
 9273SOL     OW33138   8.972   8.504  10.434  0.3293 -0.3090  0.7915
 9273SOL    HW133139   8.919   8.560  10.377  0.6957  0.4416  1.1689
 9273SOL    HW233140   8.994   8.429  10.379  1.3354  0.7634 -0.3357
 9274SOL     OW33141   6.396   0.509   0.646 -0.1531 -0.2493  0.0211
 9274SOL    HW133142   6.442   0.492   0.563  3.3537 -2.1296  2.1289
 9274SOL    HW233143   6.348   0.429   0.664  1.0770 -0.8127  0.9134
 9275SOL     OW33144   8.575   5.481   0.902 -0.7988 -0.1195  0.6312
 9275SOL    HW133145   8.520   5.458   0.977 -0.5411 -0.0611  0.8382
 9275SOL    HW233146   8.512   5.504   0.833 -1.0507  1.1804  1.2462
 9276SOL     OW33147   1.578   8.122   1.419  0.0111 -0.1924  0.7037
 9276SOL    HW133148   1.556   8.044   1.369 -0.7200  0.6961 -0.3996
 9276SOL    HW233149   1.493   8.160   1.442  0.3213 -0.5441  2.5994
 9277SOL     OW33150   1.360   0.994  11.084  0.0091  0.2062 -0.5184
 9277SOL    HW133151   1.345   0.944  11.164 -0.5876  2.0028  0.5409
 9277SOL    HW233152   1.396   0.930  11.022 -2.6519 -2.0295  0.0765
 9278SOL     OW33153   8.302  10.512   9.087 -0.2811 -0.1198 -0.3697
 9278SOL    HW133154   8.261  10.526   9.002 -1.5681 -3.3838 -0.4537
 9278SOL    HW233155   8.387  10.473   9.067 -0.2555 -0.1681 -0.1781
 9279SOL     OW33156   4.303   4.901   9.080  0.1607  0.0442  0.0212
 9279SOL    HW133157   4.358   4.962   9.129 -0.8652  0.9984  0.0318
 9279SOL    HW233158   4.310   4.931   8.989  0.4927 -0.4858 -0.1273
 9280SOL     OW33159   6.640   2.422  11.122  0.0049 -0.1622  0.4001
 9280SOL    HW133160   6.550   2.392  11.107  0.2991 -0.4524 -0.9936
 9280SOL    HW233161   6.656   2.482  11.049  0.5933  0.6991  1.2339
 9281SOL     OW33162   6.047   9.695   8.690 -0.9822  0.1826  0.6951
 9281SOL    HW133163   6.003   9.656   8.765 -0.6193 -0.6975  0.4606
 9281SOL    HW233164   5.999   9.661   8.614 -1.8162  1.6356  0.5225
 9282SOL     OW33165   3.252   2.066  11.230  0.0366 -0.4662 -0.1088
 9282SOL    HW133166   3.173   2.120  11.224  0.4263  0.0069 -1.7577
 9282SOL    HW233167   3.220   1.978  11.249 -0.5421  0.4287  3.9502
 9283SOL     OW33168   7.115   8.122   4.467 -0.6761 -0.2157 -0.1609
 9283SOL    HW133169   7.058   8.065   4.518 -0.7096 -0.0827 -0.0467
 9283SOL    HW233170   7.184   8.065   4.434 -0.0414 -0.1138  0.9475
 9284SOL     OW33171   3.425   7.617   9.788  0.4559 -0.6072  0.0118
 9284SOL    HW133172   3.361   7.686   9.771  0.9676  0.0134  0.5778
 9284SOL    HW233173   3.430   7.611   9.883  1.8455 -0.0788 -0.0077
 9285SOL     OW33174   3.307   0.656   2.194  0.1577 -0.3547  0.4909
 9285SOL    HW133175   3.269   0.640   2.107 -1.3779  0.2317  1.0166
 9285SOL    HW233176   3.320   0.750   2.197 -0.4603 -0.2874  1.1476
 9286SOL     OW33177   8.067   1.304   7.481  0.1931 -0.5444  0.6900
 9286SOL    HW133178   8.079   1.306   7.386  1.6010 -0.6880  0.8427
 9286SOL    HW233179   8.065   1.396   7.507 -2.1866 -0.4296  0.3403
 9287SOL     OW33180   7.197   7.988   5.029  0.0099 -0.5278 -0.2234
 9287SOL    HW133181   7.202   8.083   5.016  0.0338 -0.3438  1.0423
 9287SOL    HW233182   7.288   7.960   5.033  0.0306 -0.3378  1.1045
 9288SOL     OW33183  11.113   9.025   6.846  0.1181 -1.1311  0.4569
 9288SOL    HW133184  11.022   9.022   6.817  0.3543  0.4948 -0.5852
 9288SOL    HW233185  11.162   8.973   6.783  0.1118 -0.6908  0.0825
 9289SOL     OW33186   3.730   5.576   3.032 -0.2962  0.8232  0.3946
 9289SOL    HW133187   3.698   5.665   3.050  2.4333  1.9692  0.0631
 9289SOL    HW233188   3.653   5.529   3.001 -1.8134  3.1155  0.4349
 9290SOL     OW33189   1.990   7.376   6.503 -0.3947 -0.1834  0.2305
 9290SOL    HW133190   1.923   7.444   6.509  2.1224  2.3814  1.4009
 9290SOL    HW233191   2.027   7.371   6.591  1.1973 -1.2210 -0.4590
 9291SOL     OW33192   9.920  11.148   8.705  0.1410 -0.3399 -0.2269
 9291SOL    HW133193   9.975  11.218   8.741 -0.3329 -0.8216  1.5648
 9291SOL    HW233194   9.950  11.069   8.750 -0.2220 -1.0792 -1.2452
 9292SOL     OW33195   0.361   4.508   9.021  0.2978  0.7996 -0.4852
 9292SOL    HW133196   0.281   4.545   8.983  0.4524  0.4536 -1.1538
 9292SOL    HW233197   0.394   4.448   8.954 -0.3126 -1.0844  0.8304
 9293SOL     OW33198  10.551   6.342   2.077  0.1677 -0.2438 -0.1966
 9293SOL    HW133199  10.608   6.371   2.148  0.5998 -1.2462 -0.1257
 9293SOL    HW233200  10.590   6.378   1.998 -0.8118  1.6593  0.1084
 9294SOL     OW33201  11.653   2.568   0.130 -0.3746 -0.1690  0.1398
 9294SOL    HW133202  11.710   2.514   0.184 -1.2062 -0.4132  0.8025
 9294SOL    HW233203  11.564   2.542   0.156 -0.7866  1.1418  0.0908
 9295SOL     OW33204   6.651  11.442   6.444 -0.1286  0.3794  0.7369
 9295SOL    HW133205   6.695  11.480   6.369  1.2928  0.6668  1.6753
 9295SOL    HW233206   6.560  11.468   6.435 -0.1667 -0.3108 -1.3158
 9296SOL     OW33207   8.228   4.054  10.644 -0.0143  0.0352  0.2585
 9296SOL    HW133208   8.200   3.991  10.577  0.6789  0.0948 -0.0941
 9296SOL    HW233209   8.249   4.133  10.595 -1.3651  0.7253  0.7504
 9297SOL     OW33210   6.219  10.210   6.773 -0.8184 -0.0601 -0.2389
 9297SOL    HW133211   6.232  10.299   6.807 -2.3140  1.2267 -2.7277
 9297SOL    HW233212   6.168  10.165   6.841 -1.2636  1.4614  0.4768
 9298SOL     OW33213  10.945   7.321  10.324  0.0671  0.2649 -0.1047
 9298SOL    HW133214  11.025   7.317  10.377  1.2760 -1.7392 -1.9319
 9298SOL    HW233215  10.955   7.401  10.273 -0.7851  1.8496  2.0444
 9299SOL     OW33216   7.435   2.166  10.954 -0.3678  0.2145 -0.1845
 9299SOL    HW133217   7.412   2.176  10.862 -2.1883 -1.3063  0.0716
 9299SOL    HW233218   7.416   2.252  10.992 -2.0913  0.1140 -0.7415
 9300SOL     OW33219  10.338   7.772   7.846 -0.3231  0.3475 -0.1418
 9300SOL    HW133220  10.388   7.810   7.774  0.3718  0.1448  0.2171
 9300SOL    HW233221  10.321   7.682   7.819  1.5387 -0.3173  0.6800
 9301SOL     OW33222   1.585   1.098   2.793  0.0400 -0.2364 -0.1643
 9301SOL    HW133223   1.522   1.150   2.844  1.4532  1.2816  0.1049
 9301SOL    HW233224   1.539   1.015   2.776 -0.9664 -0.3317  2.5046
 9302SOL     OW33225   6.674   2.153   0.464  0.1650 -0.0724  0.0956
 9302SOL    HW133226   6.579   2.163   0.462  0.2851  1.2335  0.1409
 9302SOL    HW233227   6.701   2.153   0.372  0.3461  2.2914  0.0960
 9303SOL     OW33228   0.769  11.664   5.963  0.6086  0.2356 -0.4404
 9303SOL    HW133229   0.846  11.619   5.929  1.2053  0.3045  0.7378
 9303SOL    HW233230   0.757  11.627   6.051 -0.1116  0.9281 -0.2359
 9304SOL     OW33231   8.514  10.767  10.057 -0.5536  0.0908 -0.6072
 9304SOL    HW133232   8.442  10.713  10.090  0.1972 -1.1996 -0.9906
 9304SOL    HW233233   8.499  10.772   9.962  0.1029 -0.6003 -0.7598
 9305SOL     OW33234   7.565   1.461   7.530 -0.2071 -0.1706  0.1885
 9305SOL    HW133235   7.634   1.462   7.464  0.0383 -0.8142  0.4362
 9305SOL    HW233236   7.601   1.411   7.603 -0.7138 -0.0071  0.5601
 9306SOL     OW33237  10.293   8.800  10.084 -0.3738  0.0474  0.2097
 9306SOL    HW133238  10.325   8.828   9.997 -2.2705 -2.1272 -1.2997
 9306SOL    HW233239  10.198   8.810  10.079 -0.5241 -0.1480  2.0668
 9307SOL     OW33240  11.072   4.784   2.384  0.2491 -0.8501 -0.1374
 9307SOL    HW133241  10.983   4.781   2.420  1.0303 -2.1489  1.8346
 9307SOL    HW233242  11.100   4.693   2.381  2.1141 -0.3570  0.9295
 9308SOL     OW33243   1.470   3.388   5.081  0.4834  0.5626  0.7096
 9308SOL    HW133244   1.482   3.465   5.136 -1.0653  1.3272  0.0309
 9308SOL    HW233245   1.400   3.411   5.021  0.9279 -0.8870 -0.4460
 9309SOL     OW33246   3.639   8.817   7.925 -0.1149 -0.2098 -0.4658
 9309SOL    HW133247   3.614   8.842   7.836  0.6572 -0.6723 -0.8281
 9309SOL    HW233248   3.568   8.761   7.955  0.2214 -1.1193 -1.2915
 9310SOL     OW33249   2.324  11.097   6.314  0.3275  0.0065 -0.3243
 9310SOL    HW133250   2.241  11.065   6.278  1.2270 -0.3382 -2.1853
 9310SOL    HW233251   2.382  11.104   6.239  1.1860  2.9658  0.4980
 9311SOL     OW33252   0.131  11.779   9.108 -0.3785  0.2117 -0.5942
 9311SOL    HW133253   0.140  11.684   9.105  0.1638  0.2166  0.5019
 9311SOL    HW233254   0.220  11.811   9.122 -0.6942  0.8278  0.0513
 9312SOL     OW33255   6.653  10.107   1.813 -0.1834 -0.3191 -0.5549
 9312SOL    HW133256   6.709  10.174   1.852 -1.2486  0.7076 -0.7522
 9312SOL    HW233257   6.692  10.091   1.727  0.6898 -0.7416 -0.0928
 9313SOL     OW33258   3.023   2.801   9.629 -0.4829 -0.1226 -0.0764
 9313SOL    HW133259   3.031   2.794   9.534  0.6083  1.4252 -0.1381
 9313SOL    HW233260   3.076   2.729   9.664 -2.0382 -1.5801 -0.6082
 9314SOL     OW33261   4.995   1.818   1.374 -0.3080 -0.2685 -0.2787
 9314SOL    HW133262   4.979   1.814   1.468 -3.3900 -0.5463 -0.7133
 9314SOL    HW233263   4.982   1.910   1.351 -1.6220 -0.5555 -0.7146
 9315SOL     OW33264   4.873   9.079  11.424  0.0993  0.0307  0.4860
 9315SOL    HW133265   4.808   9.076  11.495 -1.6829  0.1024 -1.0766
 9315SOL    HW233266   4.849   9.157  11.374  0.6898 -0.5782 -0.7708
 9316SOL     OW33267   2.197   1.530   8.109  0.0874 -0.0483 -0.4065
 9316SOL    HW133268   2.139   1.585   8.056 -1.0147 -0.4723  0.3347
 9316SOL    HW233269   2.264   1.590   8.141 -1.4648  1.0627  0.9593
 9317SOL     OW33270   4.418   4.609  10.606 -0.0825  0.1455  0.2065
 9317SOL    HW133271   4.510   4.610  10.580 -0.6180  0.0927 -1.8963
 9317SOL    HW233272   4.399   4.700  10.631  0.1264  0.5831 -1.1184
 9318SOL     OW33273   8.822   8.358   8.859 -0.7810 -0.0436 -0.0457
 9318SOL    HW133274   8.772   8.282   8.829  1.1214 -1.4519  0.1589
 9318SOL    HW233275   8.759   8.410   8.909 -2.7280 -0.2392 -2.1367
 9319SOL     OW33276   6.331   7.351   4.391  0.0170  0.0838 -0.3363
 9319SOL    HW133277   6.372   7.357   4.305  0.8495  0.9918  0.0946
 9319SOL    HW233278   6.258   7.290   4.380 -0.0862  0.4403 -1.7559
 9320SOL     OW33279   6.103   1.024   4.269 -0.0682  0.0026 -0.2949
 9320SOL    HW133280   6.024   1.004   4.320 -0.7074 -0.3785 -1.4002
 9320SOL    HW233281   6.172   0.971   4.309 -0.8706 -1.3763 -0.6955
 9321SOL     OW33282   7.542   1.814   5.794  0.4785 -0.5679  0.7286
 9321SOL    HW133283   7.505   1.811   5.882 -0.7191 -0.3907  0.2508
 9321SOL    HW233284   7.509   1.896   5.757  0.8898 -0.6868  0.0810
 9322SOL     OW33285   0.296   4.881   1.372 -0.5910 -0.3549  0.3452
 9322SOL    HW133286   0.232   4.891   1.443  0.6762 -0.0922  1.4769
 9322SOL    HW233287   0.256   4.928   1.299 -0.3852  2.5230  1.9142
 9323SOL     OW33288   0.335   9.602   1.234 -0.5565  0.5108 -0.1154
 9323SOL    HW133289   0.310   9.691   1.259  0.7462  0.7284  0.5092
 9323SOL    HW233290   0.423   9.591   1.271 -0.9946 -1.3077  0.4699
 9324SOL     OW33291   7.957   4.442   1.545 -0.0907  0.0754  0.0563
 9324SOL    HW133292   7.936   4.535   1.556  0.3373  0.0428  1.3471
 9324SOL    HW233293   8.046   4.433   1.579 -0.4994 -0.9779  0.9092
 9325SOL     OW33294   4.169   3.554   7.988  0.1432  0.4617  0.0601
 9325SOL    HW133295   4.162   3.605   8.069  2.4878  1.2415 -0.1495
 9325SOL    HW233296   4.238   3.597   7.938  0.8317 -1.7212 -1.0334
 9326SOL     OW33297   7.244  10.346   5.694 -0.6462  0.3849  0.0074
 9326SOL    HW133298   7.200  10.352   5.608 -0.1891  1.4409 -0.1678
 9326SOL    HW233299   7.219  10.259   5.727  0.2160 -0.6096 -1.7654
 9327SOL     OW33300   4.967   0.045   3.395  0.1117 -0.0099 -0.1787
 9327SOL    HW133301   5.054   0.063   3.359  0.1320  2.0921  0.7358
 9327SOL    HW233302   4.952  -0.047   3.377  1.4189  0.1758 -2.6999
 9328SOL     OW33303   3.349   0.958   7.773  0.0747 -0.3670  0.2948
 9328SOL    HW133304   3.427   0.946   7.719  0.1151 -0.8132  0.4512
 9328SOL    HW233305   3.277   0.932   7.716  0.1679 -1.4765  0.6593
 9329SOL     OW33306   7.649  11.456   9.235 -0.2042 -0.0777  0.3922
 9329SOL    HW133307   7.584  11.486   9.172 -1.5571  1.2663  2.3298
 9329SOL    HW233308   7.732  11.494   9.205 -0.7982  0.4257 -0.6376
 9330SOL     OW33309   4.193   6.501   0.408  0.5219  0.4799 -0.2512
 9330SOL    HW133310   4.124   6.435   0.413  1.7880 -1.0986 -2.0251
 9330SOL    HW233311   4.274   6.453   0.427  1.2654  2.0826  0.8510
 9331SOL     OW33312   8.130   4.884   5.139  0.1374  0.0121 -0.2905
 9331SOL    HW133313   8.204   4.934   5.105  0.8266 -0.3619  0.6162
 9331SOL    HW233314   8.078   4.949   5.187  0.0875  0.1912 -0.5805
 9332SOL     OW33315   9.731   5.461   6.916  0.9124  0.8484 -0.4548
 9332SOL    HW133316   9.678   5.481   6.838  0.1504  1.2875  0.1550
 9332SOL    HW233317   9.820   5.488   6.892  0.7416  0.7287 -1.2690
 9333SOL     OW33318   5.642   6.032  10.468  0.7120 -0.4507 -0.0644
 9333SOL    HW133319   5.597   6.087  10.532 -1.0765 -0.8815 -0.8788
 9333SOL    HW233320   5.641   6.084  10.387  2.0083 -0.3462 -0.0405
 9334SOL     OW33321  11.028   1.634   2.028 -0.3588  0.1862 -0.0909
 9334SOL    HW133322  11.103   1.682   2.064 -1.1853  1.4411  0.0249
 9334SOL    HW233323  11.067   1.559   1.982  0.9266  0.5358  0.3905
 9335SOL     OW33324   3.469   7.365   4.468  0.3039 -0.1914  0.3065
 9335SOL    HW133325   3.428   7.280   4.483 -1.0415  0.3129 -0.4062
 9335SOL    HW233326   3.509   7.358   4.381  3.2958 -1.2464  1.6470
 9336SOL     OW33327   0.793   9.544   9.328  0.6919  0.2290 -0.0494
 9336SOL    HW133328   0.737   9.564   9.402  0.8265  0.1424  0.0762
 9336SOL    HW233329   0.785   9.449   9.316 -2.6318  0.6582 -2.7695
 9337SOL     OW33330  10.583   6.048   5.668  0.4048  0.1656  0.7293
 9337SOL    HW133331  10.496   6.038   5.630  0.7536 -0.7269  0.1580
 9337SOL    HW233332  10.612   6.135   5.639 -0.1698  0.3496  0.6949
 9338SOL     OW33333  10.720   2.636   3.317 -0.0508  0.3586 -0.5345
 9338SOL    HW133334  10.677   2.600   3.240 -2.2210  1.2977  0.1735
 9338SOL    HW233335  10.665   2.710   3.343 -0.1654 -0.7269  2.7014
 9339SOL     OW33336  10.942   6.010   0.707  0.4876 -0.0436 -0.2719
 9339SOL    HW133337  10.871   6.014   0.643  0.7120  0.3100 -0.5035
 9339SOL    HW233338  10.926   6.083   0.766 -0.7845 -1.4623  1.2265
 9340SOL     OW33339   6.385   6.969   3.648  0.1969  0.3440  0.2229
 9340SOL    HW133340   6.371   6.975   3.742 -2.8444 -1.6183  0.0275
 9340SOL    HW233341   6.392   7.060   3.619  0.5121  1.0047  2.2271
 9341SOL     OW33342   8.556   9.265  11.675 -0.4905  0.3815  0.2851
 9341SOL    HW133343   8.598   9.184  11.704  1.0825  1.1972  0.4096
 9341SOL    HW233344   8.524   9.306  11.755 -0.9735  0.0615  0.2592
 9342SOL     OW33345   5.574   4.436  11.803  0.0686 -0.5108 -0.0399
 9342SOL    HW133346   5.614   4.523  11.814 -1.8282  0.1407  2.9112
 9342SOL    HW233347   5.620   4.381  11.866 -1.9934 -0.2987  1.7689
 9343SOL     OW33348   3.819   1.345   7.619  1.0402  0.4855 -0.0101
 9343SOL    HW133349   3.839   1.390   7.701 -0.4614 -1.1352  1.3230
 9343SOL    HW233350   3.819   1.252   7.642  0.7488 -0.0212 -1.8977
 9344SOL     OW33351   9.025  11.772   1.447 -0.3045  0.6575  0.3720
 9344SOL    HW133352   9.000  11.850   1.397 -0.4268  0.2688 -0.1792
 9344SOL    HW233353   8.942  11.739   1.482 -0.0526  1.8067  2.1502
 9345SOL     OW33354   5.950  10.674   3.136 -0.0324 -0.3099 -0.1442
 9345SOL    HW133355   5.914  10.643   3.053 -0.2487  0.6254 -0.4117
 9345SOL    HW233356   6.045  10.680   3.121 -0.0593 -0.2553 -0.2929
 9346SOL     OW33357   3.282   8.565   9.001 -0.0410  0.1633  0.2264
 9346SOL    HW133358   3.351   8.499   8.992  0.7663  1.0023  0.1737
 9346SOL    HW233359   3.281   8.585   9.095 -2.1807 -1.8916  0.7442
 9347SOL     OW33360   6.195   6.824   4.829  0.4021 -0.4499  0.1169
 9347SOL    HW133361   6.256   6.750   4.828 -0.5514 -1.2720 -1.6190
 9347SOL    HW233362   6.228   6.883   4.761 -0.1703 -0.4397 -0.1601
 9348SOL     OW33363   2.952   2.790  10.477 -0.2021  0.4739 -0.0067
 9348SOL    HW133364   3.043   2.760  10.477 -0.6859 -1.1132  0.3619
 9348SOL    HW233365   2.956   2.878  10.515  1.0534 -0.0630  1.2081
 9349SOL     OW33366   3.220   0.172   2.780 -0.5485 -0.2557 -0.1335
 9349SOL    HW133367   3.292   0.142   2.724  0.1598 -1.8305  1.4961
 9349SOL    HW233368   3.185   0.092   2.818 -0.1247  0.7732  2.6646
 9350SOL     OW33369   9.243   5.798   7.205  0.5168  0.1297 -0.6263
 9350SOL    HW133370   9.303   5.726   7.223  3.0177  2.5725  1.8121
 9350SOL    HW233371   9.188   5.803   7.284  0.9575  1.3677 -0.3780
 9351SOL     OW33372   3.195   0.273   5.767 -0.5605  0.0606 -0.2880
 9351SOL    HW133373   3.241   0.210   5.822 -0.6249  1.8493  1.9683
 9351SOL    HW233374   3.115   0.227   5.739 -0.8069 -0.7502  1.6083
 9352SOL     OW33375   5.564   2.120   1.214  0.6619  0.0697  0.2869
 9352SOL    HW133376   5.579   2.027   1.196 -1.3250 -0.2630  0.1417
 9352SOL    HW233377   5.544   2.158   1.129  0.4390  0.4302  0.4970
 9353SOL     OW33378  10.597   3.637  10.678 -0.1790 -0.9191  0.0470
 9353SOL    HW133379  10.584   3.706  10.743  1.7436  1.8760 -2.3142
 9353SOL    HW233380  10.665   3.581  10.716  1.8712  1.4126  0.0335
 9354SOL     OW33381  11.601   9.113   2.315 -0.0801  0.1071 -0.0104
 9354SOL    HW133382  11.663   9.150   2.378 -0.0492 -0.1738  0.1247
 9354SOL    HW233383  11.598   9.020   2.335 -1.9902  0.3747  1.2758
 9355SOL     OW33384   0.907   0.989   4.402  0.1721 -0.5616  0.0039
 9355SOL    HW133385   0.902   1.003   4.308  0.4108  0.1609  0.0913
 9355SOL    HW233386   0.853   1.058   4.440  1.0647 -0.0709  0.4330
 9356SOL     OW33387   9.038  10.370   3.015 -0.0548  0.4425  0.1108
 9356SOL    HW133388   9.098  10.406   2.951  0.2782 -1.0601 -0.4639
 9356SOL    HW233389   8.954  10.413   2.997  0.0969  0.2415 -1.1595
 9357SOL     OW33390   5.776   8.164   2.412 -0.7159  0.0705  0.5778
 9357SOL    HW133391   5.733   8.114   2.343 -0.2642  1.0715 -0.4523
 9357SOL    HW233392   5.758   8.255   2.391  0.8245  0.4662  0.8425
 9358SOL     OW33393   6.982   3.920  11.685  0.3467 -0.5608  0.6307
 9358SOL    HW133394   7.025   3.959  11.610  2.0038  0.9027  2.2493
 9358SOL    HW233395   7.036   3.845  11.708  0.4779 -0.3539  1.0091
 9359SOL     OW33396   2.093   1.311   9.884 -0.4308 -0.1033 -0.6237
 9359SOL    HW133397   2.090   1.218   9.904 -0.4820  0.0050 -0.1177
 9359SOL    HW233398   2.163   1.319   9.818  0.1610 -0.3890 -0.0437
 9360SOL     OW33399   0.384   7.059   8.263  0.1363  0.1253 -0.3333
 9360SOL    HW133400   0.442   6.998   8.216  0.7017  0.9894 -0.7882
 9360SOL    HW233401   0.371   7.018   8.348 -0.4066 -1.1771 -1.0169
 9361SOL     OW33402   7.532   7.329   6.951  0.9737  0.1148  0.3601
 9361SOL    HW133403   7.457   7.383   6.925  1.2064 -0.4433 -1.6740
 9361SOL    HW233404   7.501   7.279   7.027 -0.0852  1.2369  0.6954
 9362SOL     OW33405  10.305   4.588   9.100 -0.1205 -0.3742  0.3618
 9362SOL    HW133406  10.338   4.644   9.171 -0.6436 -0.6296  0.8118
 9362SOL    HW233407  10.244   4.645   9.053  1.9793  0.5916 -1.3752
 9363SOL     OW33408   9.231  10.338   1.276  0.4403 -0.2614  0.6890
 9363SOL    HW133409   9.176  10.344   1.198  0.0226 -0.6162  0.9487
 9363SOL    HW233410   9.312  10.299   1.246  0.5387  0.2217  0.3076
 9364SOL     OW33411   6.285   8.765   9.801  0.4130 -0.3012 -0.5234
 9364SOL    HW133412   6.262   8.679   9.766  0.5911 -0.3343 -0.5579
 9364SOL    HW233413   6.253   8.763   9.891 -1.2894  0.2717 -1.0834
 9365SOL     OW33414   4.773   5.137   9.048  0.0791 -0.1709  0.1489
 9365SOL    HW133415   4.742   5.119   8.959  1.1324 -0.0634 -0.2578
 9365SOL    HW233416   4.788   5.051   9.086  1.5093 -0.2339 -0.4847
 9366SOL     OW33417   4.791   1.805   3.495  0.3518 -0.6422  0.6232
 9366SOL    HW133418   4.798   1.743   3.568 -4.5517 -2.9472 -0.4601
 9366SOL    HW233419   4.700   1.835   3.497  0.5895  0.9335 -3.2144
 9367SOL     OW33420   1.423  10.795   7.233  0.7945 -0.1202 -0.2825
 9367SOL    HW133421   1.351  10.811   7.295  0.8283 -2.1163  0.3282
 9367SOL    HW233422   1.403  10.852   7.158 -2.4763 -1.9042 -0.9483
 9368SOL     OW33423   2.526   7.804   7.495 -0.3760  0.4362  0.1390
 9368SOL    HW133424   2.617   7.805   7.466 -0.8859  1.0722 -1.5455
 9368SOL    HW233425   2.525   7.747   7.572  1.2124 -0.5449 -0.5435
 9369SOL     OW33426   4.432  11.032   2.792  0.5690  0.2620 -0.3052
 9369SOL    HW133427   4.499  10.963   2.786  0.6509  0.2753  0.4088
 9369SOL    HW233428   4.439  11.065   2.882 -1.0528 -0.4156  0.1035
 9370SOL     OW33429   7.291   7.180   7.075 -0.4558 -0.3139  0.2125
 9370SOL    HW133430   7.327   7.092   7.081  0.6489  0.2222  1.8978
 9370SOL    HW233431   7.239   7.179   6.995  0.4929 -2.1446 -0.4262
 9371SOL     OW33432   9.697   9.284   7.756 -0.2485 -0.4977 -0.1460
 9371SOL    HW133433   9.686   9.189   7.750  0.2620 -0.8605  3.0109
 9371SOL    HW233434   9.608   9.318   7.766 -0.4383 -0.5968 -1.3559
 9372SOL     OW33435   6.093  11.385  10.998  0.4184 -0.1741  0.6126
 9372SOL    HW133436   6.121  11.430  11.078 -1.9821  0.4612  1.1757
 9372SOL    HW233437   6.081  11.294  11.024  0.8208 -0.2206  0.6444
 9373SOL     OW33438   5.621   0.521   4.286  0.0991  0.2306  0.2124
 9373SOL    HW133439   5.569   0.601   4.271 -0.1546 -0.0585 -0.4680
 9373SOL    HW233440   5.704   0.553   4.321  0.1613  0.8288 -0.4589
 9374SOL     OW33441   7.875   2.171   0.476  0.6295  0.3047  0.6954
 9374SOL    HW133442   7.799   2.113   0.467  1.2207 -0.6522  1.6101
 9374SOL    HW233443   7.942   2.132   0.421  0.5476  1.0381  0.0502
 9375SOL     OW33444   0.624   9.315  10.321  0.1947  0.0391  0.3421
 9375SOL    HW133445   0.573   9.342  10.245 -0.5604  2.4829  1.6230
 9375SOL    HW233446   0.566   9.257  10.369 -0.6300  1.1694  0.7399
 9376SOL     OW33447   0.956   8.171   5.673  0.3701  0.5975  0.7360
 9376SOL    HW133448   0.880   8.116   5.660 -0.5980  1.6458  1.7447
 9376SOL    HW233449   1.023   8.134   5.616 -0.8384 -0.4375 -0.0479
 9377SOL     OW33450   8.233   6.808   3.413  0.0605  0.0539  0.1197
 9377SOL    HW133451   8.155   6.761   3.382 -0.6697  1.0370  0.3984
 9377SOL    HW233452   8.204   6.851   3.494 -0.2066  3.2431 -1.5218
 9378SOL     OW33453   4.936   5.594   8.047 -0.0352 -0.3248 -0.2796
 9378SOL    HW133454   4.897   5.679   8.028 -0.7009 -0.4519  0.4607
 9378SOL    HW233455   4.991   5.609   8.124  0.4893 -0.3941 -0.6348
 9379SOL     OW33456   1.448   2.562   3.233 -0.3464 -0.1337 -0.3580
 9379SOL    HW133457   1.462   2.654   3.254 -0.8075 -0.2784  0.6420
 9379SOL    HW233458   1.421   2.522   3.316  2.5376 -1.7383 -0.0696
 9380SOL     OW33459   4.431   6.306   3.101  0.3680 -0.0558 -0.1421
 9380SOL    HW133460   4.348   6.351   3.093  0.5556  0.1070 -1.5357
 9380SOL    HW233461   4.467   6.334   3.185 -0.9632 -0.1187  0.4608
 9381SOL     OW33462   2.772   8.846  11.429  0.2221  0.1538  0.0425
 9381SOL    HW133463   2.799   8.888  11.347 -2.4640 -1.1608 -1.6614
 9381SOL    HW233464   2.806   8.757  11.422 -0.2640 -0.0486  0.2172
 9382SOL     OW33465  10.999   7.880   9.532  0.3043  0.4609  1.0598
 9382SOL    HW133466  11.092   7.900   9.525  0.0342  1.5270  0.3044
 9382SOL    HW233467  10.968   7.877   9.441 -0.4245  0.2775  1.3090
 9383SOL     OW33468  11.769   6.467   0.590 -0.3477  0.5282 -0.0017
 9383SOL    HW133469  11.825   6.502   0.658  1.2141  0.9784 -1.4506
 9383SOL    HW233470  11.733   6.545   0.546  1.3471  0.3868 -1.7871
 9384SOL     OW33471   6.915   5.067   0.890 -0.3668  0.3863  0.4171
 9384SOL    HW133472   6.978   5.131   0.857 -0.5587  0.9818  1.1692
 9384SOL    HW233473   6.944   4.984   0.853  0.3809  0.7772  0.0945
 9385SOL     OW33474   6.965   3.056   7.094 -0.9587 -0.2468  0.2813
 9385SOL    HW133475   7.052   3.045   7.055 -1.3761  0.2121 -0.8030
 9385SOL    HW233476   6.906   3.006   7.038 -1.9117  2.1931 -1.0489
 9386SOL     OW33477   1.096  11.779   5.713 -0.5001 -0.0115 -0.1961
 9386SOL    HW133478   1.053  11.782   5.627  0.0763  2.5797 -0.4592
 9386SOL    HW233479   1.058  11.853   5.761  0.4129 -0.4145  1.1953
 9387SOL     OW33480   3.864   7.650   6.437 -0.5382  0.1444  0.3380
 9387SOL    HW133481   3.821   7.611   6.513 -0.7076 -2.2428 -0.8669
 9387SOL    HW233482   3.944   7.690   6.471 -1.0463 -0.0995  1.8676
 9388SOL     OW33483   7.392   4.482   8.612  0.3013 -0.1142 -0.3134
 9388SOL    HW133484   7.315   4.425   8.610  0.4746 -0.3771  0.2521
 9388SOL    HW233485   7.416   4.486   8.705  0.6434  0.4048 -0.4233
 9389SOL     OW33486   2.274  11.105   4.481 -0.0532  0.0288 -0.4532
 9389SOL    HW133487   2.189  11.089   4.441  0.5015  0.4934 -1.8675
 9389SOL    HW233488   2.256  11.165   4.554 -0.9843 -0.2729 -0.4242
 9390SOL     OW33489   4.663   9.768   1.844 -0.0493  0.0102 -0.0205
 9390SOL    HW133490   4.686   9.858   1.863  0.0081  0.0773 -0.3876
 9390SOL    HW233491   4.571   9.772   1.816  0.3294  0.1626 -1.3533
 9391SOL     OW33492   7.814   3.807   8.700  0.3080  0.1455  0.3409
 9391SOL    HW133493   7.818   3.739   8.768 -1.2902 -1.8132 -1.3747
 9391SOL    HW233494   7.852   3.765   8.623 -0.2725  1.3899 -0.6497
 9392SOL     OW33495   6.384  10.737   3.600  0.0084 -0.0954  0.1856
 9392SOL    HW133496   6.334  10.707   3.524  0.1660 -0.0143  0.0492
 9392SOL    HW233497   6.383  10.833   3.592  1.5104 -0.1113 -0.6856
 9393SOL     OW33498   5.916   5.546   0.601  0.5448 -0.0192  0.5268
 9393SOL    HW133499   5.859   5.474   0.576 -0.1600  0.3514  1.0372
 9393SOL    HW233500   5.996   5.532   0.550 -0.1409 -0.3340 -0.4920
 9394SOL     OW33501   8.158   2.989   5.150 -0.1580  0.5212 -0.1083
 9394SOL    HW133502   8.096   2.991   5.076  0.7130  2.0943 -0.8482
 9394SOL    HW233503   8.226   3.051   5.125 -0.1240  1.5268  2.2812
 9395SOL     OW33504   0.736   4.181   8.729  0.8805  0.0568  0.4175
 9395SOL    HW133505   0.667   4.162   8.793  1.2452 -0.6820  0.5984
 9395SOL    HW233506   0.701   4.148   8.646  0.8522  0.0586  0.4286
 9396SOL     OW33507   9.817   6.848   1.587 -0.0324 -0.5010 -0.6946
 9396SOL    HW133508   9.863   6.841   1.503  2.2230  2.2681  0.1345
 9396SOL    HW233509   9.741   6.903   1.568  0.6316  0.3737 -0.9513
 9397SOL     OW33510   7.268   4.813   7.966 -0.5242 -0.0686  0.3967
 9397SOL    HW133511   7.231   4.757   8.035 -0.6387  1.3975  1.5604
 9397SOL    HW233512   7.345   4.766   7.936  0.0133 -0.3627  2.1220
 9398SOL     OW33513   9.440   1.474   9.736  0.1665  0.3455 -0.1136
 9398SOL    HW133514   9.475   1.533   9.669  2.0373 -0.6909 -0.1029
 9398SOL    HW233515   9.472   1.511   9.819  0.6677 -0.2077 -0.0519
 9399SOL     OW33516   6.600   6.806   2.108 -0.4340 -0.1173  0.3526
 9399SOL    HW133517   6.646   6.837   2.187  0.4774  0.9716 -0.5717
 9399SOL    HW233518   6.660   6.742   2.070  0.4128  1.3226 -0.8697
 9400SOL     OW33519   3.440   2.933   8.132  0.4682 -0.5153  0.4408
 9400SOL    HW133520   3.498   3.004   8.104  1.4752 -1.3213  0.4167
 9400SOL    HW233521   3.484   2.893   8.207 -0.7888 -0.2328  1.3669
 9401SOL     OW33522   9.411   0.936   2.022  0.3629  0.0306  0.1611
 9401SOL    HW133523   9.416   0.923   1.927  1.7225  0.1576  0.1918
 9401SOL    HW233524   9.398   0.848   2.058 -0.5877  0.0309 -0.1448
 9402SOL     OW33525   4.606  11.550   4.352 -0.0841  0.1302 -0.3680
 9402SOL    HW133526   4.521  11.576   4.316 -0.7700 -0.9256  0.4224
 9402SOL    HW233527   4.589  11.538   4.445  0.1460 -3.0416 -0.6202
 9403SOL     OW33528   5.474  10.049  10.207  0.2105  0.3758 -0.3052
 9403SOL    HW133529   5.388  10.025  10.240  0.8262 -1.7107 -0.0666
 9403SOL    HW233530   5.493   9.985  10.138  2.6398 -0.9706  1.4593
 9404SOL     OW33531  11.482  10.569   0.483  0.1709 -0.0279 -0.2699
 9404SOL    HW133532  11.453  10.654   0.452  1.3156  0.3368 -0.3941
 9404SOL    HW233533  11.548  10.541   0.419 -0.1036 -0.9587 -0.1692
 9405SOL     OW33534   3.371  10.987   5.715  0.5124  0.2821 -0.1752
 9405SOL    HW133535   3.450  10.976   5.662  0.0456  2.4370 -1.4028
 9405SOL    HW233536   3.392  10.943   5.798  2.6496  0.0331 -0.7885
 9406SOL     OW33537   6.478   8.894   6.948 -0.1330 -0.1192  0.5385
 9406SOL    HW133538   6.541   8.964   6.926 -1.0626  0.1404 -1.4792
 9406SOL    HW233539   6.392   8.936   6.939 -0.6540 -0.9932  1.3405
 9407SOL     OW33540   1.720   6.768   8.463 -0.2262  0.6184 -0.1393
 9407SOL    HW133541   1.809   6.799   8.482 -0.8800  2.5869 -0.0946
 9407SOL    HW233542   1.668   6.848   8.457 -1.9895 -0.5014 -0.2566
 9408SOL     OW33543  10.341   6.242   8.664  0.5967  0.2175 -0.6712
 9408SOL    HW133544  10.406   6.255   8.595 -1.7470 -0.1284 -3.1240
 9408SOL    HW233545  10.347   6.149   8.687  0.5406  0.0283 -1.3965
 9409SOL     OW33546   3.430   1.077   6.521  0.2298 -0.4973 -0.0868
 9409SOL    HW133547   3.501   1.137   6.499 -0.0494 -0.6344 -1.4296
 9409SOL    HW233548   3.470   1.012   6.579  1.2389 -0.6549 -0.9395
 9410SOL     OW33549   8.605  10.673   1.083 -0.5479 -0.3949  0.6640
 9410SOL    HW133550   8.673  10.655   1.148 -0.1924 -0.2345  0.3409
 9410SOL    HW233551   8.533  10.614   1.106 -0.4230 -0.3490  1.1929
 9411SOL     OW33552   3.907   4.755   6.919 -0.1144 -0.4326 -0.4731
 9411SOL    HW133553   3.841   4.693   6.888 -0.0215 -0.4901 -0.5562
 9411SOL    HW233554   3.937   4.800   6.840  0.4906 -0.9383 -0.5388
 9412SOL     OW33555   0.077   0.561  10.416  0.1660  0.1225  0.1030
 9412SOL    HW133556   0.067   0.466  10.406 -0.8347  0.1316  0.7986
 9412SOL    HW233557   0.043   0.597  10.334 -1.2230 -0.0679  0.5609
 9413SOL     OW33558   3.501   6.137   8.468  0.1119 -0.0747 -0.3470
 9413SOL    HW133559   3.454   6.069   8.421  0.3384  0.0960 -0.8200
 9413SOL    HW233560   3.449   6.216   8.455  0.2363 -0.0027 -0.4092
 9414SOL     OW33561   6.624   8.999   3.671 -0.2895 -0.3412 -0.1595
 9414SOL    HW133562   6.545   8.974   3.623 -0.4346 -0.3049  0.0577
 9414SOL    HW233563   6.631   9.093   3.656  0.1872 -0.4853 -0.8757
 9415SOL     OW33564   4.514   9.614   9.988 -0.0148 -0.6586 -0.4626
 9415SOL    HW133565   4.554   9.527   9.984  0.4754 -0.3981 -2.3924
 9415SOL    HW233566   4.588   9.674   9.991 -0.3522 -0.2790  0.7907
 9416SOL     OW33567   0.196   0.793  10.198 -0.1924  0.0706  0.0445
 9416SOL    HW133568   0.113   0.764  10.161 -0.5338  0.2729  0.6351
 9416SOL    HW233569   0.171   0.839  10.278  0.5172 -0.2347  0.4440
 9417SOL     OW33570   6.842   2.263   4.424 -0.2909  0.2808 -0.1748
 9417SOL    HW133571   6.786   2.189   4.401 -0.7320  0.6865 -0.4382
 9417SOL    HW233572   6.847   2.315   4.344 -0.7057  0.9847  0.2354
 9418SOL     OW33573   1.393   9.497   4.813  0.5244  0.3992  0.6277
 9418SOL    HW133574   1.462   9.532   4.758  1.1754 -1.0353  0.4945
 9418SOL    HW233575   1.336   9.572   4.832  1.4542  1.3382 -0.2389
 9419SOL     OW33576   1.200   9.844   5.850 -0.8564 -0.0567 -0.5670
 9419SOL    HW133577   1.209   9.753   5.821  0.1431 -0.0848 -0.2159
 9419SOL    HW233578   1.196   9.838   5.946  2.4576  0.4120 -0.2619
 9420SOL     OW33579   9.761   7.489   6.997 -1.0056 -0.0030 -0.2508
 9420SOL    HW133580   9.761   7.413   6.938 -1.2889  0.5173 -0.9421
 9420SOL    HW233581   9.822   7.551   6.957 -0.1713 -0.1670  0.7298
 9421SOL     OW33582  11.718   6.674   1.498  0.3574 -0.2721 -0.6908
 9421SOL    HW133583  11.699   6.585   1.470  2.7508 -0.8355 -0.7011
 9421SOL    HW233584  11.760   6.665   1.583  0.9893  0.8085 -0.8689
 9422SOL     OW33585   5.621   8.394   8.915 -0.2633 -0.1218 -0.5392
 9422SOL    HW133586   5.543   8.370   8.865 -0.4380  1.2363 -0.9515
 9422SOL    HW233587   5.657   8.469   8.869  0.4663  0.1846  0.4889
 9423SOL     OW33588   6.137  11.638   9.229  0.5045  0.1234  0.0763
 9423SOL    HW133589   6.178  11.610   9.311 -0.4720 -1.2700  0.1148
 9423SOL    HW233590   6.044  11.642   9.248  0.3957  1.2028 -0.5885
 9424SOL     OW33591  10.729   7.733   0.810  0.4527  0.2190  0.9969
 9424SOL    HW133592  10.810   7.696   0.774 -0.9267 -1.5332 -0.4880
 9424SOL    HW233593  10.699   7.668   0.874  0.7043  1.3528  2.3192
 9425SOL     OW33594  11.267   3.635   9.195  0.9697  0.5372  0.0987
 9425SOL    HW133595  11.268   3.586   9.113  1.1757 -0.1008  0.4758
 9425SOL    HW233596  11.199   3.593   9.248  1.7004  0.1306  0.7349
 9426SOL     OW33597   3.999   7.353   4.590  0.0313  0.3551  0.2810
 9426SOL    HW133598   3.991   7.258   4.583  1.7261  0.3008 -1.5801
 9426SOL    HW233599   4.015   7.369   4.683 -0.4226 -1.1382  0.6435
 9427SOL     OW33600   2.803  10.835   8.598  0.1288  0.2243 -0.0240
 9427SOL    HW133601   2.821  10.833   8.503  1.2849  0.3526  0.1702
 9427SOL    HW233602   2.836  10.751   8.630  2.1752  1.1945  0.6248
 9428SOL     OW33603   5.958   5.650   7.606  0.3260 -0.5825 -0.0979
 9428SOL    HW133604   5.999   5.639   7.520 -1.2289  0.9360 -1.1047
 9428SOL    HW233605   5.875   5.603   7.601  0.5571 -1.1345  0.8727
 9429SOL     OW33606   1.749   3.650   4.092  0.1279  0.1168 -0.2140
 9429SOL    HW133607   1.697   3.619   4.166  0.0146 -0.8775 -0.6846
 9429SOL    HW233608   1.701   3.618   4.015  0.4390  0.8136 -0.7000
 9430SOL     OW33609   2.541   3.738   0.005 -0.3649 -0.7852  0.1831
 9430SOL    HW133610   2.627   3.778  -0.008 -1.1494  0.8076 -0.4103
 9430SOL    HW233611   2.545   3.701   0.092  0.8948 -0.6531  0.2065
 9431SOL     OW33612  10.150   6.157  10.353  0.3003 -0.5699  0.2249
 9431SOL    HW133613  10.178   6.181  10.441  0.0388  0.0046  0.1526
 9431SOL    HW233614  10.211   6.202  10.294  0.4280 -0.8891  0.1104
 9432SOL     OW33615   0.733   6.074  10.710 -0.2152 -0.4348  0.2117
 9432SOL    HW133616   0.666   6.007  10.726  0.8235 -1.4143  0.6179
 9432SOL    HW233617   0.722   6.097  10.618  0.1165 -2.0114 -0.2595
 9433SOL     OW33618  10.337   2.975   5.403 -0.2333 -0.7062  0.2702
 9433SOL    HW133619  10.426   2.940   5.392 -0.9407 -2.5277  0.0265
 9433SOL    HW233620  10.314   2.952   5.493 -0.6124 -0.6158  0.1944
 9434SOL     OW33621   1.781   9.824   5.593  0.0572  0.1940  0.6748
 9434SOL    HW133622   1.842   9.868   5.534  1.1326 -0.3777  1.3199
 9434SOL    HW233623   1.809   9.732   5.593 -0.6134 -0.0185  1.2053
 9435SOL     OW33624   4.947   8.901   0.399 -0.0666  0.5681  0.5106
 9435SOL    HW133625   5.026   8.949   0.374 -0.3987  0.5953 -0.5525
 9435SOL    HW233626   4.949   8.899   0.494  1.8528 -0.5179  0.4759
 9436SOL     OW33627   6.221   6.429   6.802 -0.4342 -0.3184  0.2985
 9436SOL    HW133628   6.279   6.505   6.793 -2.1153  0.9131 -0.5856
 9436SOL    HW233629   6.164   6.451   6.875 -1.4367 -0.3701 -0.4526
 9437SOL     OW33630   6.936  11.471   5.195  0.4209  0.0675 -0.0262
 9437SOL    HW133631   6.975  11.398   5.244 -2.4632 -1.8733 -0.3886
 9437SOL    HW233632   6.954  11.450   5.103  1.3419  0.9576 -0.0659
 9438SOL     OW33633   2.199   0.695   4.011  0.0796  0.0289  0.0113
 9438SOL    HW133634   2.287   0.719   3.982 -0.0892  0.1452 -0.4068
 9438SOL    HW233635   2.163   0.777   4.046  0.2204 -0.0723  0.4036
 9439SOL     OW33636   6.994   5.863  10.726  0.0756 -0.5555  0.4371
 9439SOL    HW133637   6.969   5.887  10.816  1.4558  0.0017  0.7027
 9439SOL    HW233638   6.931   5.796  10.700 -1.1286  0.1845  1.3548
 9440SOL     OW33639   5.086   4.633   0.415  0.3136 -0.1708 -0.3177
 9440SOL    HW133640   5.175   4.603   0.397  0.1510  0.2811 -2.0966
 9440SOL    HW233641   5.093   4.728   0.412  0.0085 -0.1031  0.8857
 9441SOL     OW33642   9.373  10.516   1.410  0.1143  0.0417 -0.2144
 9441SOL    HW133643   9.447  10.459   1.429  0.1304  0.0911 -0.1263
 9441SOL    HW233644   9.308  10.460   1.369  0.0787 -0.0676 -0.0080
 9442SOL     OW33645   6.980   1.556  10.923 -0.3327  0.0053  0.4293
 9442SOL    HW133646   6.913   1.624  10.928 -0.3413  0.2410 -1.8187
 9442SOL    HW233647   6.933   1.474  10.937 -0.6684  0.3259  1.1956
 9443SOL     OW33648   1.955   5.748   7.296  0.2937 -0.1527  0.4520
 9443SOL    HW133649   2.035   5.744   7.244 -0.2451  1.9782 -0.6917
 9443SOL    HW233650   1.891   5.698   7.245  0.5028 -0.5753  0.5981
 9444SOL     OW33651   1.913   3.417  10.555  0.1899  0.3285 -0.5404
 9444SOL    HW133652   1.965   3.370  10.620  0.8955  1.0204 -0.5888
 9444SOL    HW233653   1.842   3.456  10.606  0.0302 -0.1516 -0.3849
 9445SOL     OW33654   7.913   2.389   8.992  0.3906 -0.1810 -0.3606
 9445SOL    HW133655   7.881   2.377   9.081  0.0578  0.0109 -0.4503
 9445SOL    HW233656   7.935   2.301   8.962  1.8007 -0.1106  0.3719
 9446SOL     OW33657  10.480  11.531  10.122  0.1483 -0.3601  0.1204
 9446SOL    HW133658  10.446  11.610  10.079  1.1604  0.4564  0.7486
 9446SOL    HW233659  10.532  11.565  10.195 -1.2267 -1.6845  1.7912
 9447SOL     OW33660   7.707   6.778  10.487 -0.0944 -0.6841 -0.3334
 9447SOL    HW133661   7.664   6.773  10.573 -1.0420 -0.4925 -0.7871
 9447SOL    HW233662   7.748   6.693  10.477 -1.9144 -1.5838 -0.6619
 9448SOL     OW33663   7.352   0.976   6.784  0.2354 -0.7634 -0.6909
 9448SOL    HW133664   7.443   0.954   6.763 -0.0159 -1.0779 -1.5016
 9448SOL    HW233665   7.349   0.975   6.880  1.3294  0.2941 -0.6176
 9449SOL     OW33666   0.526   9.592  10.103 -0.0502  0.1579  0.7677
 9449SOL    HW133667   0.614   9.597  10.066 -0.7545 -0.2696 -1.0990
 9449SOL    HW233668   0.526   9.657  10.173  1.0787  1.8750 -0.7046
 9450SOL     OW33669   2.388   2.590   9.471 -0.2117  0.6642 -0.1618
 9450SOL    HW133670   2.423   2.505   9.498 -2.1544 -0.1066  0.0848
 9450SOL    HW233671   2.387   2.586   9.375  2.5612  1.6834 -0.3346
 9451SOL     OW33672  11.071   3.668   4.214 -0.3312  0.2624  0.5975
 9451SOL    HW133673  11.083   3.742   4.273  0.1735  1.6434 -1.1384
 9451SOL    HW233674  11.150   3.614   4.226 -0.2253  0.5385  1.1406
 9452SOL     OW33675   2.380   0.301  11.282 -0.0755 -0.0386 -0.1927
 9452SOL    HW133676   2.376   0.335  11.192 -1.0657 -1.2895 -0.6454
 9452SOL    HW233677   2.301   0.248  11.291 -0.6010  0.9963  1.8229
 9453SOL     OW33678   1.805   8.062   4.199  0.5671 -0.2291 -0.0557
 9453SOL    HW133679   1.760   8.145   4.189  0.4038  0.0818  2.4321
 9453SOL    HW233680   1.840   8.042   4.113  0.0733  2.0973 -0.8572
 9454SOL     OW33681   7.275   3.454   1.406  0.0922 -0.2827  0.3091
 9454SOL    HW133682   7.264   3.482   1.497 -1.0907 -2.6654  0.9826
 9454SOL    HW233683   7.195   3.483   1.363  0.0180 -0.3815  0.3794
 9455SOL     OW33684   0.981   8.449   2.046  0.3098 -0.6089 -0.5021
 9455SOL    HW133685   1.054   8.455   1.983  1.5653 -2.4661  0.7052
 9455SOL    HW233686   0.904   8.474   1.994  1.2209 -2.3792 -2.9118
 9456SOL     OW33687   0.214  10.147   0.985 -0.0242 -0.2266  0.6802
 9456SOL    HW133688   0.286  10.094   1.019 -0.7729 -0.1892  2.4428
 9456SOL    HW233689   0.241  10.170   0.897  0.0427 -4.1729 -0.5314
 9457SOL     OW33690   2.660   6.738  11.502 -0.2035 -0.6944  0.4325
 9457SOL    HW133691   2.699   6.768  11.420 -0.4963  0.6853  0.7700
 9457SOL    HW233692   2.572   6.711  11.480  0.0926 -1.4092  0.1048
 9458SOL     OW33693   4.182  10.216  10.393  0.5522 -0.3856 -0.1033
 9458SOL    HW133694   4.230  10.300  10.391  1.3462 -0.8320 -0.3277
 9458SOL    HW233695   4.196  10.183  10.481 -0.9531  0.3688  0.4524
 9459SOL     OW33696   3.995   7.309   2.204 -0.3808 -0.3796  0.6930
 9459SOL    HW133697   3.996   7.330   2.297 -0.9002 -0.0663  0.6290
 9459SOL    HW233698   4.009   7.392   2.160  0.8383 -0.6654  0.4998
 9460SOL     OW33699  11.140   6.755   9.850 -0.5946 -0.0853  0.6611
 9460SOL    HW133700  11.102   6.829   9.897 -0.4085 -1.2886  2.8370
 9460SOL    HW233701  11.091   6.752   9.767 -2.3272  0.9514  1.5882
 9461SOL     OW33702   8.264  11.620   0.933 -0.4230 -0.1830 -0.3130
 9461SOL    HW133703   8.274  11.564   0.857  0.0765 -0.4106 -0.0852
 9461SOL    HW233704   8.176  11.600   0.967 -0.7775  0.1645 -1.0134
 9462SOL     OW33705   9.148   4.459   0.264  0.1879 -0.2414  0.0128
 9462SOL    HW133706   9.210   4.398   0.224  1.4171  1.1273 -0.2231
 9462SOL    HW233707   9.168   4.455   0.358 -0.5918 -1.1138  0.1601
 9463SOL     OW33708  11.124   7.382   2.076  0.2005  0.2262  0.3100
 9463SOL    HW133709  11.154   7.306   2.125  2.8823  0.9509 -0.0244
 9463SOL    HW233710  11.148   7.457   2.131 -0.4364  0.9029 -0.3085
 9464SOL     OW33711  10.240   3.860   8.884 -0.3187  0.3175 -0.2870
 9464SOL    HW133712  10.299   3.789   8.859  0.4571  1.4815 -1.9847
 9464SOL    HW233713  10.267   3.934   8.829 -2.9405  1.1203 -0.6181
 9465SOL     OW33714  10.820   1.094   7.578  0.0299  0.1089  0.1236
 9465SOL    HW133715  10.871   1.173   7.561 -0.4875  0.8119  1.6459
 9465SOL    HW233716  10.867   1.024   7.533  1.5602  0.9682  0.3358
 9466SOL     OW33717   8.835   2.673   0.053 -0.7138 -0.3232 -0.1756
 9466SOL    HW133718   8.846   2.578   0.054 -1.1297 -0.3815 -0.7350
 9466SOL    HW233719   8.740   2.686   0.054 -0.6968  0.1250  1.8716
 9467SOL     OW33720   1.070   3.975   7.747 -0.7933 -0.0709 -0.1717
 9467SOL    HW133721   1.147   3.935   7.786  0.0798 -0.4416 -2.1640
 9467SOL    HW233722   1.064   4.062   7.788 -0.4830 -0.7662  1.4032
 9468SOL     OW33723  10.949   3.841  10.874  0.0448  0.2463 -0.2029
 9468SOL    HW133724  10.856   3.862  10.866 -0.4102 -1.7801 -0.7441
 9468SOL    HW233725  10.993   3.926  10.868 -1.7739  1.3100  0.5699
 9469SOL     OW33726   8.165   1.041   4.798 -0.4180 -0.1534 -0.2548
 9469SOL    HW133727   8.172   0.958   4.750 -2.7399 -1.0695  0.8080
 9469SOL    HW233728   8.071   1.063   4.793 -0.5590  0.3024  2.7989
 9470SOL     OW33729   4.075   1.499   8.745 -0.2294 -0.8173  0.2124
 9470SOL    HW133730   4.086   1.510   8.840  1.7200 -1.0901  0.0543
 9470SOL    HW233731   4.080   1.588   8.710  0.1637 -0.8125  0.2753
 9471SOL     OW33732   9.309   3.422   3.142 -0.4180  0.0001  0.1734
 9471SOL    HW133733   9.352   3.493   3.095  1.6423 -0.3175  1.4459
 9471SOL    HW233734   9.215   3.436   3.127  0.0563  0.9653 -2.3943
 9472SOL     OW33735   8.552   8.570   8.127 -0.5173  0.2546  0.0721
 9472SOL    HW133736   8.508   8.621   8.060 -1.2147 -0.5636 -0.1156
 9472SOL    HW233737   8.630   8.620   8.149  0.3620  0.0001 -2.1985
 9473SOL     OW33738   4.715   3.841   9.742 -0.2778 -0.5196 -0.6423
 9473SOL    HW133739   4.749   3.788   9.814  1.7358  0.3403 -0.8886
 9473SOL    HW233740   4.780   3.911   9.731 -0.2752 -0.8681 -3.5595
 9474SOL     OW33741   9.259   4.917   1.681  0.0856  0.3678 -0.0548
 9474SOL    HW133742   9.316   4.874   1.745  1.2919  0.1600 -1.2164
 9474SOL    HW233743   9.291   4.885   1.596  0.1559  2.5411 -0.8952
 9475SOL     OW33744  10.995   0.926  11.362  0.0479  0.2405  0.4694
 9475SOL    HW133745  11.070   0.946  11.305 -1.1882 -0.1018 -1.3357
 9475SOL    HW233746  11.016   0.840  11.399  0.9208  0.5224  0.6695
 9476SOL     OW33747   8.994  10.809   6.446 -0.1788 -0.6454  0.6105
 9476SOL    HW133748   8.908  10.849   6.431  0.6192  1.0401  0.3847
 9476SOL    HW233749   9.042  10.874   6.496  1.5204 -0.8786 -0.6458
 9477SOL     OW33750   6.300   1.915   7.673 -0.0695  0.5807 -0.2006
 9477SOL    HW133751   6.354   1.935   7.749 -1.6555 -0.2538  1.2107
 9477SOL    HW233752   6.212   1.943   7.699 -0.6616  0.2221 -1.7257
 9478SOL     OW33753   1.299   1.418   0.793  0.4187  0.0846  0.0711
 9478SOL    HW133754   1.351   1.368   0.731  1.1494  0.1032  0.6463
 9478SOL    HW233755   1.301   1.508   0.760  0.5008  0.0311 -0.0698
 9479SOL     OW33756   7.076   1.945   6.764  0.2245 -0.2477  0.6178
 9479SOL    HW133757   7.079   1.859   6.805  0.7383  0.6252  2.5104
 9479SOL    HW233758   7.155   1.948   6.709  0.2125 -0.9600  0.5537
 9480SOL     OW33759  10.252   9.740   0.170 -0.0948 -0.4356  0.5766
 9480SOL    HW133760  10.243   9.651   0.204 -2.2781 -0.2720  0.5620
 9480SOL    HW233761  10.179   9.749   0.108 -0.6901  1.7440  1.4972
 9481SOL     OW33762   7.111   3.143   2.463  0.3217  0.5656 -0.3153
 9481SOL    HW133763   7.074   3.061   2.496 -0.0590 -0.2703 -2.6891
 9481SOL    HW233764   7.196   3.119   2.426  0.8158  1.5094  0.1519
 9482SOL     OW33765   5.670   4.080   1.550 -0.0575  0.2544  0.2019
 9482SOL    HW133766   5.652   4.163   1.506 -0.5458  0.3550  0.5885
 9482SOL    HW233767   5.757   4.092   1.588  0.2798  0.2433 -0.5469
 9483SOL     OW33768   3.693  11.034  10.250 -0.5181 -0.0148  0.5556
 9483SOL    HW133769   3.729  10.979  10.320 -0.7315  1.7568  2.1367
 9483SOL    HW233770   3.678  11.119  10.291 -2.2131  0.6402 -1.2330
 9484SOL     OW33771   0.551  10.716   0.384 -0.5696  0.5843  0.0812
 9484SOL    HW133772   0.584  10.797   0.346 -0.6690 -0.3228 -2.1253
 9484SOL    HW233773   0.617  10.691   0.448 -0.0174  1.8639  0.0482
 9485SOL     OW33774   3.537   0.191   7.958  0.4365  0.0773 -0.2754
 9485SOL    HW133775   3.481   0.144   8.020  0.2246 -1.8185 -1.8195
 9485SOL    HW233776   3.499   0.279   7.953 -0.6258 -0.2949  0.8746
 9486SOL     OW33777   6.418   5.614  11.061 -0.2841  0.1937 -0.1363
 9486SOL    HW133778   6.504   5.638  11.097  0.7364 -0.4347 -2.0186
 9486SOL    HW233779   6.356   5.645  11.126  1.3750  0.3739  1.4624
 9487SOL     OW33780   7.779   8.240   9.838 -0.0461 -0.1984  0.4164
 9487SOL    HW133781   7.841   8.304   9.871 -0.7759  0.3441  0.7711
 9487SOL    HW233782   7.704   8.292   9.809 -1.3335 -0.9534  2.2058
 9488SOL     OW33783  11.042   1.396  10.162 -0.0988 -0.7546 -0.2918
 9488SOL    HW133784  10.958   1.356  10.186 -0.1191  0.4588  1.9671
 9488SOL    HW233785  11.029   1.490  10.178  1.4659 -0.4607 -0.5800
 9489SOL     OW33786   0.652   0.270   7.945 -0.5517  0.2008  0.2218
 9489SOL    HW133787   0.601   0.207   7.893 -1.6234  1.4422 -0.2634
 9489SOL    HW233788   0.718   0.216   7.988 -0.6102 -1.0861 -1.2083
 9490SOL     OW33789   0.135  10.547   0.067  0.6470  0.3570 -0.5190
 9490SOL    HW133790   0.065  10.573   0.007  1.0746  1.2043 -0.6590
 9490SOL    HW233791   0.174  10.629   0.096  2.2276 -0.1217 -1.1867
 9491SOL     OW33792   6.306   6.866   9.681 -0.1413 -0.3024 -0.1739
 9491SOL    HW133793   6.399   6.854   9.699  0.0983 -0.2641 -1.2954
 9491SOL    HW233794   6.302   6.941   9.622 -0.9525  0.1367  0.4205
 9492SOL     OW33795   2.086   8.274   0.599 -0.2299 -0.1632 -0.0179
 9492SOL    HW133796   2.165   8.229   0.629 -0.1230 -0.4312 -0.6695
 9492SOL    HW233797   2.119   8.340   0.537 -0.2986  1.4081  1.5187
 9493SOL     OW33798   1.255  10.229   4.864  0.1306  0.1469 -0.6474
 9493SOL    HW133799   1.205  10.303   4.829  0.3119  0.6076  0.0492
 9493SOL    HW233800   1.277  10.255   4.953  2.4659  0.4129 -1.2187
 9494SOL     OW33801   5.673   2.227   6.835 -0.3696 -0.0871 -0.0270
 9494SOL    HW133802   5.605   2.163   6.813 -0.0888 -1.0710  1.7573
 9494SOL    HW233803   5.631   2.312   6.821 -1.0560 -0.6454 -1.5677
 9495SOL     OW33804   1.740   0.289   6.687  0.3602 -0.6077 -0.6568
 9495SOL    HW133805   1.794   0.305   6.764 -1.4190 -1.0926  0.7824
 9495SOL    HW233806   1.783   0.217   6.642  2.1949  0.5953 -0.9270
 9496SOL     OW33807   8.287   6.133  10.524  1.0294 -0.5673 -0.5430
 9496SOL    HW133808   8.279   6.041  10.550  2.4026 -0.8556 -1.0568
 9496SOL    HW233809   8.257   6.134  10.433 -0.4344 -0.1963 -0.0929
 9497SOL     OW33810   8.213   2.724  10.451  0.1675  0.5490 -0.3605
 9497SOL    HW133811   8.211   2.762  10.538 -2.1321  0.8580 -0.4845
 9497SOL    HW233812   8.240   2.796  10.394  0.1557  0.7707 -0.0872
 9498SOL     OW33813   3.761   5.136  11.694  0.4232  0.1178  0.5794
 9498SOL    HW133814   3.853   5.125  11.670  0.0806  0.1044 -0.8721
 9498SOL    HW233815   3.712   5.094  11.622 -0.7136  0.7414  0.9543
 9499SOL     OW33816   6.866   8.996   1.889 -0.3252  0.0807 -0.1102
 9499SOL    HW133817   6.872   9.091   1.882 -3.1201  0.4555  1.2679
 9499SOL    HW233818   6.872   8.965   1.798 -2.7602  1.8907 -0.9997
 9500SOL     OW33819  11.615   3.748   0.159 -0.2300  0.2346  0.2048
 9500SOL    HW133820  11.589   3.658   0.177 -0.7001  0.6197  1.5575
 9500SOL    HW233821  11.591   3.762   0.068 -1.8418 -0.4399  0.4913
 9501SOL     OW33822   7.194   0.247   3.690 -0.6417 -0.2465 -0.1780
 9501SOL    HW133823   7.261   0.263   3.624 -0.6185 -0.5765 -0.2395
 9501SOL    HW233824   7.150   0.167   3.660 -1.1877  0.0749 -0.2421
 9502SOL     OW33825   1.834   0.160   8.267 -0.5015  0.4377  0.4521
 9502SOL    HW133826   1.757   0.206   8.234 -0.1771  1.6577  1.3167
 9502SOL    HW233827   1.801   0.108   8.340 -1.1480 -1.9665 -1.4414
 9503SOL     OW33828   6.380   2.519   5.213  0.2135  0.7297  0.1020
 9503SOL    HW133829   6.420   2.447   5.164  0.5300  2.3150 -2.0679
 9503SOL    HW233830   6.440   2.534   5.287  0.7003 -0.5039 -0.0232
 9504SOL     OW33831   3.283   0.658   4.120  0.2378 -0.2451  0.0759
 9504SOL    HW133832   3.374   0.634   4.135  0.9070  1.5783 -0.7230
 9504SOL    HW233833   3.235   0.575   4.121  1.5409 -1.0564  2.7184
 9505SOL     OW33834   8.558  10.656  11.108  0.1691 -0.0703  0.3549
 9505SOL    HW133835   8.550  10.726  11.043 -2.7534  0.6698  1.3639
 9505SOL    HW233836   8.481  10.601  11.094  1.0204 -1.5866  1.3298
 9506SOL     OW33837   3.115   0.135   0.680 -0.2626  0.2378  0.1533
 9506SOL    HW133838   3.197   0.087   0.668  0.4463  1.0380  1.5358
 9506SOL    HW233839   3.053   0.091   0.622  0.5565 -1.8402  0.7351
 9507SOL     OW33840   0.169   8.813   1.608 -0.4602 -0.4644 -0.5401
 9507SOL    HW133841   0.103   8.745   1.598  0.4722 -1.4674 -0.1238
 9507SOL    HW233842   0.206   8.824   1.521 -0.5871 -0.5193 -0.6014
 9508SOL     OW33843   1.390   6.381   5.532  0.2953  0.0326 -0.0816
 9508SOL    HW133844   1.303   6.341   5.530 -0.4565  1.5536 -2.0657
 9508SOL    HW233845   1.446   6.318   5.487  0.1295 -0.7629  0.8123
 9509SOL     OW33846   2.298  11.401  10.201  0.0296 -0.0219  0.5324
 9509SOL    HW133847   2.357  11.327  10.211 -0.5246 -0.2657  2.3435
 9509SOL    HW233848   2.308  11.451  10.282  1.6900  2.9296 -1.2605
 9510SOL     OW33849   1.541   1.268   6.512  0.1719 -0.1067  0.6313
 9510SOL    HW133850   1.629   1.306   6.522  0.9030 -1.5508  0.0060
 9510SOL    HW233851   1.533   1.251   6.419 -1.3146  1.1443  0.4848
 9511SOL     OW33852   6.543   7.902   3.720  0.2558  0.3315  0.2152
 9511SOL    HW133853   6.507   7.981   3.761 -1.2198 -0.3023  0.1959
 9511SOL    HW233854   6.532   7.834   3.786 -0.5915 -0.3385 -0.5996
 9512SOL     OW33855   8.668   5.880  10.255  0.0759 -0.7280 -0.4789
 9512SOL    HW133856   8.695   5.863  10.166 -0.5321 -1.7784 -0.4756
 9512SOL    HW233857   8.576   5.906  10.248  0.1280 -0.4520 -0.1932
 9513SOL     OW33858  10.729   4.415  11.371 -0.2462  0.2214  0.4150
 9513SOL    HW133859  10.761   4.373  11.451  0.4851 -0.6214 -0.3003
 9513SOL    HW233860  10.700   4.502  11.400  2.1632  0.8505  1.2516
 9514SOL     OW33861   2.143   4.548   0.426  0.2991  0.1505 -0.0965
 9514SOL    HW133862   2.115   4.474   0.373  1.9025 -0.9816  0.5876
 9514SOL    HW233863   2.203   4.511   0.491  1.4940  2.0988  0.0014
 9515SOL     OW33864  11.720   4.339   3.151 -0.1352  0.4353 -0.1915
 9515SOL    HW133865  11.727   4.394   3.073 -2.0108 -1.2540 -1.6560
 9515SOL    HW233866  11.635   4.361   3.189 -0.4420 -0.6425 -0.2030
 9516SOL     OW33867   2.643   8.487   2.258 -0.4360 -0.2445 -0.4933
 9516SOL    HW133868   2.679   8.496   2.347  0.1457  0.4795 -0.7880
 9516SOL    HW233869   2.549   8.504   2.269 -0.3348  0.0622 -0.0436
 9517SOL     OW33870  10.860   4.030   2.513  0.3931  0.0201  0.1266
 9517SOL    HW133871  10.912   3.950   2.514  0.2380 -0.1331 -1.4289
 9517SOL    HW233872  10.805   4.024   2.591  0.0805 -1.5982 -0.1809
 9518SOL     OW33873   5.471   0.994   5.769  0.0911  0.4252 -0.1399
 9518SOL    HW133874   5.558   0.983   5.807 -0.6878  0.6398  1.8434
 9518SOL    HW233875   5.444   1.082   5.796 -1.5551 -0.4092  1.1567
 9519SOL     OW33876   9.183   1.142   7.858  0.0537 -0.0779 -0.2009
 9519SOL    HW133877   9.150   1.217   7.908 -0.4005  0.9402 -1.9496
 9519SOL    HW233878   9.106   1.088   7.841  0.1241 -0.1726 -0.2245
 9520SOL     OW33879   1.341   9.839   7.291 -0.0666 -0.1652  0.1171
 9520SOL    HW133880   1.361   9.784   7.367 -0.2859 -0.8926 -0.3442
 9520SOL    HW233881   1.422   9.841   7.241 -0.1243 -0.2412  0.0218
 9521SOL     OW33882  10.776   5.847  11.219  0.1584 -0.4982  0.0881
 9521SOL    HW133883  10.762   5.930  11.266 -1.2908 -0.5238 -0.2298
 9521SOL    HW233884  10.838   5.868  11.150  2.4387 -0.4790  2.0074
 9522SOL     OW33885   5.111   1.514   6.866 -0.0002 -0.5718 -0.9279
 9522SOL    HW133886   5.090   1.510   6.960  1.4217 -1.1180 -0.6150
 9522SOL    HW233887   5.064   1.439   6.829  1.3357 -1.8013 -0.2281
 9523SOL     OW33888   6.635   8.151   7.051 -0.3359  0.1510 -0.5169
 9523SOL    HW133889   6.728   8.127   7.062 -0.2213  0.8996  0.3342
 9523SOL    HW233890   6.587   8.073   7.081  0.0066 -0.4365 -1.4550
 9524SOL     OW33891  10.103   0.297   3.984  0.0884  0.5361  0.1044
 9524SOL    HW133892  10.114   0.387   4.014  1.9599  1.0132 -1.7669
 9524SOL    HW233893  10.039   0.302   3.914 -1.1491  0.0873  1.1709
 9525SOL     OW33894   6.339   1.372   0.374  0.2843 -0.1051  0.1670
 9525SOL    HW133895   6.261   1.338   0.330 -0.6810 -0.5199  2.0825
 9525SOL    HW233896   6.377   1.297   0.418  1.9402  0.0501 -0.9006
 9526SOL     OW33897   2.685   3.622   6.270 -0.4765 -0.0247  0.2157
 9526SOL    HW133898   2.694   3.669   6.353 -0.1954 -0.6478  0.5425
 9526SOL    HW233899   2.604   3.572   6.279 -0.0778 -0.6434  0.3931
 9527SOL     OW33900   8.640   3.195   4.073 -0.0224  0.7086 -0.1272
 9527SOL    HW133901   8.598   3.269   4.031 -0.9979 -0.9838 -2.3058
 9527SOL    HW233902   8.571   3.154   4.125  0.7249  1.7245  1.7766
 9528SOL     OW33903   5.280   3.555   5.047  0.3930 -0.2198 -0.2186
 9528SOL    HW133904   5.247   3.629   5.097  1.5050  0.0742  0.0961
 9528SOL    HW233905   5.221   3.548   4.972  0.5242  1.2515 -0.4855
 9529SOL     OW33906   4.254   2.985   3.802 -0.5317 -0.4108 -0.1757
 9529SOL    HW133907   4.273   2.966   3.893 -1.0038  0.6769  0.1719
 9529SOL    HW233908   4.265   3.080   3.794 -0.1202 -0.5355 -1.3451
 9530SOL     OW33909   4.385   0.101   2.674 -0.5034 -0.2118 -0.3737
 9530SOL    HW133910   4.350   0.038   2.737  0.9959 -1.7458 -0.9808
 9530SOL    HW233911   4.352   0.186   2.703 -0.9053 -1.0241  1.7123
 9531SOL     OW33912  11.578   0.652   7.493  0.5935  0.4416  1.0425
 9531SOL    HW133913  11.614   0.692   7.573  2.6625  0.0008  0.3895
 9531SOL    HW233914  11.655   0.625   7.444 -0.6102  1.1664 -1.3816
 9532SOL     OW33915   7.115  11.158   8.164 -0.0256 -0.3851  0.5438
 9532SOL    HW133916   7.161  11.099   8.104 -0.4140 -0.1977  0.0551
 9532SOL    HW233917   7.065  11.099   8.221  0.0622 -0.5502  0.4531
 9533SOL     OW33918   8.969  10.236   5.580 -0.2686 -0.0133  0.3090
 9533SOL    HW133919   8.985  10.257   5.672  0.1597  0.0652  0.2152
 9533SOL    HW233920   8.920  10.153   5.582 -0.6525  0.2189  0.6219
 9534SOL     OW33921   0.715   8.594   4.696 -0.0546  1.0188  0.2635
 9534SOL    HW133922   0.765   8.543   4.759  0.0261  0.7619 -0.0050
 9534SOL    HW233923   0.746   8.684   4.707  1.5853  0.6464 -0.9522
 9535SOL     OW33924   4.568   1.446  10.499 -0.1666  0.7080 -0.3980
 9535SOL    HW133925   4.474   1.444  10.480 -0.0363 -2.0999 -1.3689
 9535SOL    HW233926   4.578   1.398  10.581  0.4602  0.2281 -0.7377
 9536SOL     OW33927   4.487   9.349   7.572 -0.0105 -0.3724  0.3221
 9536SOL    HW133928   4.505   9.431   7.618 -0.9307 -0.1192  0.2491
 9536SOL    HW233929   4.514   9.281   7.634 -0.0227 -0.0176  0.7263
 9537SOL     OW33930   2.618   4.519   4.049  0.2552  0.0793  0.5566
 9537SOL    HW133931   2.652   4.437   4.085  0.5097  0.6350  1.6268
 9537SOL    HW233932   2.527   4.522   4.079 -0.3065 -0.6518 -0.9881
 9538SOL     OW33933   8.378   4.954  11.454 -0.3609  0.5418 -0.4925
 9538SOL    HW133934   8.314   4.909  11.399 -0.3500  0.8531 -0.7639
 9538SOL    HW233935   8.387   4.898  11.531 -0.7768  0.3718 -0.5622
 9539SOL     OW33936  10.796   1.725   3.189 -0.2622  0.5561 -0.2829
 9539SOL    HW133937  10.823   1.808   3.148 -1.9545  1.7890  0.9711
 9539SOL    HW233938  10.756   1.751   3.272  0.2935 -1.6439  0.7438
 9540SOL     OW33939   1.298   4.055  11.328  0.1216 -0.1611 -0.1108
 9540SOL    HW133940   1.333   4.130  11.279  0.5417 -0.5411 -0.3991
 9540SOL    HW233941   1.329   4.070  11.418 -2.3807  1.6405  0.5613
 9541SOL     OW33942   8.425   8.471   0.914 -0.5576 -0.3058 -0.0648
 9541SOL    HW133943   8.423   8.460   0.819 -1.5588 -3.1126  0.1988
 9541SOL    HW233944   8.515   8.453   0.939 -0.5626 -0.7575 -0.3696
 9542SOL     OW33945   9.870   1.774   3.769  0.2164 -0.1423 -0.2700
 9542SOL    HW133946   9.786   1.808   3.737  0.1065  0.3059  0.4764
 9542SOL    HW233947   9.891   1.703   3.709  0.3488  1.0999 -1.7758
 9543SOL     OW33948   0.024   0.545   9.325 -0.3769 -0.0307  0.0079
 9543SOL    HW133949   0.096   0.592   9.284 -2.1252  3.3575  0.5298
 9543SOL    HW233950   0.067   0.485   9.386  2.0344 -0.8282 -2.2917
 9544SOL     OW33951   0.948   7.176   8.479 -0.2467  0.6438 -0.1693
 9544SOL    HW133952   0.915   7.098   8.434 -0.7667 -0.2607  1.6879
 9544SOL    HW233953   0.907   7.249   8.433 -0.7833 -0.2305 -1.1315
 9545SOL     OW33954   7.646   2.667   2.064 -0.1444  0.2304 -0.2874
 9545SOL    HW133955   7.673   2.623   1.983 -1.2441 -3.2911  1.0567
 9545SOL    HW233956   7.559   2.702   2.044 -0.6263 -1.0469 -0.5782
 9546SOL     OW33957   0.894   3.131   6.115  0.3142 -0.3017 -0.2228
 9546SOL    HW133958   0.976   3.179   6.099  0.3820 -0.5004 -0.4854
 9546SOL    HW233959   0.826   3.199   6.116  0.6114  0.0047  1.1321
 9547SOL     OW33960  10.901   7.545   7.614 -0.3482  0.1109 -0.0692
 9547SOL    HW133961  10.972   7.483   7.628 -0.9183 -0.2087  1.6416
 9547SOL    HW233962  10.853   7.547   7.697 -1.0786  1.9221 -0.4712
 9548SOL     OW33963  10.995  11.326   8.344  0.7209 -0.5975 -0.1863
 9548SOL    HW133964  10.907  11.365   8.341  0.5083 -1.0362  0.1806
 9548SOL    HW233965  11.030  11.339   8.256  0.1284 -0.7642 -0.4524
 9549SOL     OW33966   4.168  10.987   4.601  0.5926  0.4771  0.3148
 9549SOL    HW133967   4.083  10.945   4.607 -0.4125  2.4033  0.2037
 9549SOL    HW233968   4.207  10.977   4.688  0.9919 -1.7927 -0.0665
 9550SOL     OW33969   2.981  11.237   5.742  0.0545 -0.1804  0.3256
 9550SOL    HW133970   2.928  11.160   5.725 -0.7339  0.0883  1.5192
 9550SOL    HW233971   2.918  11.306   5.764  0.8822 -0.0781  2.6440
 9551SOL     OW33972   5.531  11.003   4.327  0.0507 -0.4133  0.0591
 9551SOL    HW133973   5.489  10.973   4.246  0.9404  1.3489 -1.1154
 9551SOL    HW233974   5.624  11.002   4.307  0.3596 -0.9833  1.4583
 9552SOL     OW33975   6.066   8.453   3.818  0.0314  0.2624 -0.2659
 9552SOL    HW133976   6.084   8.436   3.910 -0.2794  2.2241  0.1892
 9552SOL    HW233977   5.984   8.503   3.818 -0.4710 -0.4750 -1.6867
 9553SOL     OW33978   0.017   9.213   2.395  0.4351  0.3865 -0.1399
 9553SOL    HW133979   0.001   9.305   2.416 -1.3725 -0.1593  1.2044
 9553SOL    HW233980   0.027   9.212   2.300  0.3139  1.9464 -0.2045
 9554SOL     OW33981   4.919   0.589   0.604  0.3353  0.2018 -0.1691
 9554SOL    HW133982   5.014   0.591   0.593  0.1732  1.0450 -1.6064
 9554SOL    HW233983   4.885   0.571   0.517 -0.9148  2.5822 -0.2383
 9555SOL     OW33984   6.115   2.098   4.072 -0.0859  0.5685 -0.0034
 9555SOL    HW133985   6.020   2.103   4.080 -0.0638  1.4986 -0.1666
 9555SOL    HW233986   6.139   2.016   4.116 -0.8382  0.9533  1.1812
 9556SOL     OW33987   0.044   6.607   6.116  0.3439  0.4500 -0.2482
 9556SOL    HW133988   0.124   6.633   6.163  0.3006 -2.1798  1.5444
 9556SOL    HW233989   0.071   6.532   6.062 -0.7511 -0.0831 -0.0885
 9557SOL     OW33990   7.528   1.925  11.288  0.5259 -0.1324 -0.4457
 9557SOL    HW133991   7.499   2.015  11.279 -0.3550 -0.4705 -1.0696
 9557SOL    HW233992   7.523   1.889  11.200  1.2096 -0.6931 -0.2646
 9558SOL     OW33993   3.895   9.629   7.245 -0.0160 -0.2356 -0.3184
 9558SOL    HW133994   3.866   9.715   7.274 -0.6698 -0.3794 -0.5259
 9558SOL    HW233995   3.924   9.642   7.155  0.7808 -0.0454 -0.0345
 9559SOL     OW33996   0.613  10.328   3.725  0.3130  0.3208 -0.2677
 9559SOL    HW133997   0.616  10.422   3.743 -0.7585  0.1043  1.2304
 9559SOL    HW233998   0.612  10.322   3.629 -3.6274  2.0747 -0.5637
 9560SOL     OW33999  11.325   4.330   9.002  0.2516 -0.2580 -0.4807
 9560SOL    HW134000  11.381   4.376   8.939 -1.1148 -0.3143 -1.7826
 9560SOL    HW234001  11.321   4.240   8.969 -1.0591 -0.1203 -0.7723
 9561SOL     OW34002   8.660   5.508   3.784 -0.1608  0.0935 -0.1147
 9561SOL    HW134003   8.594   5.455   3.739 -0.4388  1.5131 -1.5029
 9561SOL    HW234004   8.609   5.569   3.838 -0.1729  2.0913 -2.2016
 9562SOL     OW34005   8.566   6.128   0.514 -0.1859 -0.1414  0.4176
 9562SOL    HW134006   8.507   6.167   0.578 -0.5905  1.4377 -0.8476
 9562SOL    HW234007   8.621   6.069   0.565 -0.6138  0.9020  2.1761
 9563SOL     OW34008   7.203   5.716   0.366  0.3996 -0.5752  0.3935
 9563SOL    HW134009   7.192   5.767   0.286 -1.3126 -0.2619  0.8002
 9563SOL    HW234010   7.291   5.678   0.358  0.5355  0.0130 -1.2944
 9564SOL     OW34011  10.775   0.279   9.623  0.1221 -0.3076 -0.3384
 9564SOL    HW134012  10.732   0.252   9.704  1.3428  0.9550  0.8076
 9564SOL    HW234013  10.854   0.225   9.618  0.9876  0.8355  0.3351
 9565SOL     OW34014   6.587   2.579   9.780 -0.1633  0.5289 -0.2595
 9565SOL    HW134015   6.630   2.644   9.835  0.1496  0.3580 -0.3000
 9565SOL    HW234016   6.658   2.537   9.732 -0.3972  0.3938 -0.4893
 9566SOL     OW34017   6.151   3.121   4.355  0.0017  0.4936 -0.1512
 9566SOL    HW134018   6.081   3.091   4.413 -0.9201 -0.6673 -1.7921
 9566SOL    HW234019   6.110   3.189   4.300  0.9038  1.6981  0.6036
 9567SOL     OW34020  10.997   5.774   0.852  0.0378  0.1684  0.1955
 9567SOL    HW134021  10.986   5.861   0.815 -0.1516 -0.2907 -0.8804
 9567SOL    HW234022  10.959   5.715   0.786 -1.2825 -0.6238  1.5752
 9568SOL     OW34023   1.322   0.420   7.271  0.1102 -0.8284  0.3736
 9568SOL    HW134024   1.276   0.448   7.191 -3.9496 -4.5990  0.9955
 9568SOL    HW234025   1.381   0.351   7.242  1.9453  0.6858  0.2603
 9569SOL     OW34026  10.695   0.167   0.471  0.0358  0.6078  0.9457
 9569SOL    HW134027  10.665   0.080   0.443 -0.2945 -0.0360  3.1092
 9569SOL    HW234028  10.623   0.201   0.524  0.5385  1.8304  0.8742
 9570SOL     OW34029   0.500   0.370   8.155 -0.1593 -0.2445 -0.1582
 9570SOL    HW134030   0.577   0.362   8.099 -0.6399  0.0968 -0.8833
 9570SOL    HW234031   0.436   0.309   8.118 -0.1974 -0.6424  0.5338
 9571SOL     OW34032   4.510   5.156   4.374  0.1496 -0.5574  0.1873
 9571SOL    HW134033   4.425   5.179   4.337 -0.4449 -1.4082  0.9606
 9571SOL    HW234034   4.568   5.228   4.351 -1.2175  0.8981  1.1585
 9572SOL     OW34035   7.186   5.646   1.637  0.1623 -0.2399 -0.4314
 9572SOL    HW134036   7.237   5.661   1.716 -0.3462  1.2679 -0.3693
 9572SOL    HW234037   7.252   5.629   1.569  0.5889 -1.8993  0.3423
 9573SOL     OW34038   9.195   4.850  11.011  0.0401 -0.2388 -0.3829
 9573SOL    HW134039   9.173   4.920  11.072  0.7798 -0.3829  0.0561
 9573SOL    HW234040   9.143   4.775  11.040 -0.2673 -0.0562 -0.4632
 9574SOL     OW34041   6.652   1.396   2.038 -0.5205  0.3641  0.6833
 9574SOL    HW134042   6.744   1.374   2.053 -0.1704 -0.1433 -1.8113
 9574SOL    HW234043   6.606   1.314   2.050 -0.2833  0.0338 -0.5095
 9575SOL     OW34044   2.802  11.206  10.021 -0.5527 -0.5141  0.1691
 9575SOL    HW134045   2.773  11.278   9.965  1.1964  0.4631  0.4277
 9575SOL    HW234046   2.841  11.143   9.961  1.0473  0.3934  0.1913
 9576SOL     OW34047   5.842   9.319  10.310 -0.1089 -0.3385 -0.0069
 9576SOL    HW134048   5.821   9.265  10.234 -0.7499  0.1068 -0.1562
 9576SOL    HW234049   5.761   9.323  10.360 -0.7061  2.1010 -1.0112
 9577SOL     OW34050   7.460   3.587   8.583 -0.0935  0.0554 -0.1498
 9577SOL    HW134051   7.465   3.561   8.675  1.4016  0.1933 -0.1647
 9577SOL    HW234052   7.520   3.528   8.538 -0.9825 -0.1619 -1.0904
 9578SOL     OW34053   6.310   3.810   7.742 -0.4291 -0.4624 -0.1328
 9578SOL    HW134054   6.275   3.838   7.827 -0.0377  1.2506 -0.4841
 9578SOL    HW234055   6.403   3.833   7.746 -0.2886 -0.8903 -0.8151
 9579SOL     OW34056  10.236  10.824   5.015  0.2464 -1.0416  0.1927
 9579SOL    HW134057  10.331  10.831   5.011  0.1090  3.6389 -2.1634
 9579SOL    HW234058  10.211  10.789   4.930 -0.1623 -0.7369  0.1849
 9580SOL     OW34059   6.567   3.519  11.404 -0.0650 -0.4923  0.1618
 9580SOL    HW134060   6.640   3.495  11.347 -0.9164 -1.8485 -0.4110
 9580SOL    HW234061   6.517   3.582  11.353  2.0585  2.6133  1.5855
 9581SOL     OW34062  11.016   5.777   9.637  0.6452 -0.2012 -0.0145
 9581SOL    HW134063  10.988   5.697   9.593 -1.8192  0.2547  0.5619
 9581SOL    HW234064  10.949   5.842   9.614  0.7593  0.7766  2.1629
 9582SOL     OW34065  10.541   0.983   8.070 -0.1751 -0.2571 -0.2102
 9582SOL    HW134066  10.607   0.955   8.007  0.4343  1.1388 -0.2435
 9582SOL    HW234067  10.590   1.034   8.135 -1.0542 -0.1684  0.4051
 9583SOL     OW34068   9.802   0.744   0.392  0.1379 -0.4287  0.2721
 9583SOL    HW134069   9.755   0.695   0.324 -0.5845  1.3234 -0.5413
 9583SOL    HW234070   9.736   0.762   0.459  0.0441  0.6233 -0.0948
 9584SOL     OW34071   9.437   2.767   0.503  0.0115 -0.1533 -0.3786
 9584SOL    HW134072   9.506   2.813   0.456  1.2976 -1.9221 -0.3381
 9584SOL    HW234073   9.435   2.680   0.463  0.2543 -1.3016  1.9333
 9585SOL     OW34074   1.815   1.014   7.074 -0.1808 -0.1844 -0.1206
 9585SOL    HW134075   1.832   1.090   7.130 -1.0229  0.1354 -0.2903
 9585SOL    HW234076   1.757   0.958   7.126  1.9580 -1.6767  0.7931
 9586SOL     OW34077   8.001   6.933   4.047  0.2534  0.4321 -0.6292
 9586SOL    HW134078   8.010   6.853   4.099  0.2038  1.0939  0.4221
 9586SOL    HW234079   8.081   6.982   4.064 -0.1176  1.0163 -0.5470
 9587SOL     OW34080  11.378   6.222   4.358  0.0417  0.0804  0.4335
 9587SOL    HW134081  11.359   6.154   4.422  1.0302 -1.9691 -1.3325
 9587SOL    HW234082  11.473   6.220   4.347 -0.1320  0.0254 -1.3905
 9588SOL     OW34083  11.154  10.478   3.193 -0.0289 -0.4324  0.0530
 9588SOL    HW134084  11.115  10.503   3.277 -1.7344 -1.9377 -0.2339
 9588SOL    HW234085  11.117  10.540   3.130 -0.1517 -0.4232  0.1339
 9589SOL     OW34086  10.558  10.719   2.173 -0.0849  0.1127 -0.2458
 9589SOL    HW134087  10.499  10.665   2.121  0.5262  0.2295 -1.0708
 9589SOL    HW234088  10.501  10.760   2.239 -1.0538  0.8123 -1.4812
 9590SOL     OW34089   9.500   6.725   9.667 -0.5606  0.0331 -0.7568
 9590SOL    HW134090   9.464   6.781   9.735 -0.5563  0.5569 -1.1738
 9590SOL    HW234091   9.423   6.694   9.618 -0.7822 -2.3095  0.9223
 9591SOL     OW34092  10.427   4.870   1.568 -0.3361 -0.3431  0.1157
 9591SOL    HW134093  10.451   4.941   1.508  0.7069 -1.8585 -1.3195
 9591SOL    HW234094  10.333   4.857   1.553 -0.0368 -0.8811 -1.4186
 9592SOL     OW34095   7.622  11.814   3.326  0.4026  0.0254 -0.3554
 9592SOL    HW134096   7.716  11.818   3.345  0.8168 -1.6504 -1.7789
 9592SOL    HW234097   7.613  11.860   3.242 -0.1353  0.5465 -0.0182
 9593SOL     OW34098   3.096   0.170   3.649  0.0194 -0.1635  0.5569
 9593SOL    HW134099   3.142   0.251   3.673 -0.7402  0.5138 -0.2122
 9593SOL    HW234100   3.103   0.165   3.554 -0.8135 -0.4660  0.4996
 9594SOL     OW34101   2.328   8.645   8.025 -0.0716  0.3961  0.1175
 9594SOL    HW134102   2.263   8.709   7.998  1.4746  1.6961 -0.6966
 9594SOL    HW234103   2.358   8.675   8.111  0.4851  0.6353 -0.1583
 9595SOL     OW34104   9.843   8.270   1.123 -0.4448 -0.2720 -0.4501
 9595SOL    HW134105   9.789   8.315   1.057  0.3591  0.2311 -0.7746
 9595SOL    HW234106   9.832   8.322   1.203 -4.2817 -2.7990  0.9503
 9596SOL     OW34107   5.054  11.339   4.159 -0.3027 -0.0127 -0.7281
 9596SOL    HW134108   4.964  11.367   4.173 -0.5844 -0.4152 -1.6562
 9596SOL    HW234109   5.068  11.349   4.064  0.4974 -0.3195 -0.6502
 9597SOL     OW34110   0.459   4.467   3.168 -0.3705 -0.2746  0.0172
 9597SOL    HW134111   0.518   4.391   3.164 -0.4541 -0.2840 -1.1774
 9597SOL    HW234112   0.372   4.429   3.174 -0.5021 -0.3069 -1.7509
 9598SOL     OW34113   8.011   1.592  11.443 -0.4234  0.7269 -0.0930
 9598SOL    HW134114   8.019   1.562  11.352  0.9657 -0.1524  0.2910
 9598SOL    HW234115   8.081   1.546  11.490 -2.2539 -0.3098  1.8169
 9599SOL     OW34116   7.363   8.620   6.441 -0.5235 -0.0837 -0.0405
 9599SOL    HW134117   7.444   8.661   6.470 -1.2418  2.0719 -0.8441
 9599SOL    HW234118   7.309   8.614   6.520 -0.1099 -0.2150  0.2331
 9600SOL     OW34119   1.200   0.812   0.854 -0.0038  0.1253  0.3725
 9600SOL    HW134120   1.234   0.896   0.885 -0.6330 -0.1228  1.8143
 9600SOL    HW234121   1.252   0.746   0.901 -1.1798 -0.2613  1.1844
 9601SOL     OW34122   2.947  10.601   2.873  0.1908  0.0407 -0.0885
 9601SOL    HW134123   2.971  10.676   2.927 -0.0940  0.7153 -0.8699
 9601SOL    HW234124   2.870  10.564   2.916  2.0124 -1.6544  1.9857
 9602SOL     OW34125   1.745   4.436  11.647  0.2709 -0.1126 -0.3674
 9602SOL    HW134126   1.799   4.492  11.703  0.4338 -0.4333 -0.2008
 9602SOL    HW234127   1.807   4.375  11.608  0.3771  0.9715 -1.9910
 9603SOL     OW34128  11.232   7.270   6.186 -0.0333  0.2027  0.3609
 9603SOL    HW134129  11.318   7.310   6.197  0.5204 -1.1051  0.9632
 9603SOL    HW234130  11.171   7.331   6.228  0.3980  1.7967 -1.2206
 9604SOL     OW34131  10.402   2.504   0.413 -0.3414  0.7439 -0.1097
 9604SOL    HW134132  10.439   2.568   0.474 -1.5592  1.8558 -0.5014
 9604SOL    HW234133  10.315   2.485   0.448  0.3109 -1.3791  0.4673
 9605SOL     OW34134   2.556   2.875   0.239  0.3805 -0.1950  0.3441
 9605SOL    HW134135   2.472   2.873   0.192  0.8155  0.3641 -0.4818
 9605SOL    HW234136   2.565   2.966   0.268  2.1945  0.6260 -2.4186
 9606SOL     OW34137   9.480   1.768   6.258  0.3001  0.1086 -0.1578
 9606SOL    HW134138   9.540   1.763   6.184 -0.8369  0.7613 -1.1596
 9606SOL    HW234139   9.536   1.761   6.335  1.4449 -1.2786 -1.0635
 9607SOL     OW34140   3.645   6.159   9.713 -0.2850  0.1774 -0.8331
 9607SOL    HW134141   3.722   6.104   9.701 -0.0126  0.5777 -0.9340
 9607SOL    HW234142   3.572   6.097   9.717  0.2559 -0.4226  1.6198
 9608SOL     OW34143   5.713   3.695   1.541 -0.0141 -0.1879  0.1880
 9608SOL    HW134144   5.688   3.755   1.471 -0.6817  0.2340  0.7810
 9608SOL    HW234145   5.722   3.751   1.619 -1.2978 -0.9353  0.8991
 9609SOL     OW34146   2.462   6.782  11.107  0.2422 -0.2987 -0.3623
 9609SOL    HW134147   2.384   6.813  11.062 -0.2406  0.4464  0.9384
 9609SOL    HW234148   2.431   6.753  11.192  1.2410 -0.9704 -0.2043
 9610SOL     OW34149  11.379   8.193   1.266 -0.1736 -0.2941  0.8196
 9610SOL    HW134150  11.454   8.243   1.234 -0.2335 -0.3548  0.5768
 9610SOL    HW234151  11.326   8.256   1.314  0.4607 -0.4432  1.7220
 9611SOL     OW34152   7.488   7.225  10.109  0.5126  0.5932 -0.2830
 9611SOL    HW134153   7.516   7.145  10.066  1.9489  1.7001 -1.5502
 9611SOL    HW234154   7.408   7.251  10.062  1.1015  0.8704 -1.1709
 9612SOL     OW34155   5.512   4.428   3.657  0.0255 -0.5198  0.2308
 9612SOL    HW134156   5.587   4.402   3.603 -0.4577 -0.9089 -0.2655
 9612SOL    HW234157   5.436   4.406   3.604 -0.4456  2.9319 -0.7330
 9613SOL     OW34158  10.981   3.128   3.586  0.0054 -0.1256  0.7200
 9613SOL    HW134159  11.050   3.116   3.521  0.1387  0.5552  0.7261
 9613SOL    HW234160  10.951   3.218   3.572 -0.2694 -0.1243  1.3060
 9614SOL     OW34161  10.137   5.218   5.097 -0.0201 -0.0832 -0.3519
 9614SOL    HW134162  10.156   5.219   5.191  0.3535 -2.6840 -0.3195
 9614SOL    HW234163  10.222   5.230   5.055 -0.2345  1.4238 -0.3835
 9615SOL     OW34164   1.784   4.119   2.174  0.3437  0.1050  0.2248
 9615SOL    HW134165   1.840   4.086   2.104  0.1280 -1.0069  0.5685
 9615SOL    HW234166   1.721   4.049   2.191 -0.4761  0.9058  0.5906
 9616SOL     OW34167   5.955   5.813   6.548 -0.0251 -0.5480 -0.2660
 9616SOL    HW134168   5.958   5.907   6.564 -0.6995 -0.4944 -0.4385
 9616SOL    HW234169   6.018   5.776   6.610 -1.1274 -0.1544  1.1360
 9617SOL     OW34170   9.469  11.471  11.023  0.0989 -0.4108  0.3697
 9617SOL    HW134171   9.388  11.469  11.074  0.1243  1.0077  0.5196
 9617SOL    HW234172   9.531  11.417  11.073  0.0514  0.7310  1.7311
 9618SOL     OW34173   3.976   9.802   2.700  0.4965  0.0156  0.0285
 9618SOL    HW134174   3.948   9.800   2.609  0.2573  0.0708  0.1009
 9618SOL    HW234175   3.992   9.711   2.723  0.3359 -0.0180  0.0016
 9619SOL     OW34176   0.974   1.727  10.068  0.2975  0.3043  0.0696
 9619SOL    HW134177   1.020   1.674  10.133 -2.6838 -1.2699  1.0618
 9619SOL    HW234178   1.022   1.712   9.987  1.3069 -1.5403  0.9450
 9620SOL     OW34179   6.238   0.722  10.410 -0.0817  0.1786 -0.3382
 9620SOL    HW134180   6.300   0.694  10.478  1.8638  0.9699 -1.7073
 9620SOL    HW234181   6.183   0.645  10.395  1.1022 -0.8477  0.3384
 9621SOL     OW34182   9.234   0.738   8.235 -0.1222  0.6378 -0.1858
 9621SOL    HW134183   9.198   0.779   8.157  0.0509  0.0369 -0.5865
 9621SOL    HW234184   9.282   0.662   8.202 -1.2122 -0.4387  0.6163
 9622SOL     OW34185   7.015   8.491   6.213 -0.0885 -0.1203 -0.0204
 9622SOL    HW134186   7.050   8.447   6.290 -1.0688 -0.9352 -0.0175
 9622SOL    HW234187   7.051   8.442   6.139 -0.9810 -0.7960 -0.0219
 9623SOL     OW34188   9.494   9.927  11.711  0.4516 -0.0864  0.3686
 9623SOL    HW134189   9.477   9.902  11.621 -3.1072 -0.1341  0.9365
 9623SOL    HW234190   9.535  10.014  11.705 -1.4790  0.7680 -1.3074
 9624SOL     OW34191   0.431   8.650   5.692 -0.0312  0.1077  0.3989
 9624SOL    HW134192   0.452   8.693   5.610 -0.6783  1.2117  0.7938
 9624SOL    HW234193   0.498   8.583   5.702 -0.6899 -0.9585 -1.6835
 9625SOL     OW34194   2.466   1.128  11.433 -0.9707  0.1309 -0.5686
 9625SOL    HW134195   2.514   1.086  11.362  0.4361  1.3473 -0.4099
 9625SOL    HW234196   2.377   1.138  11.401 -0.5277  0.0131 -1.8798
 9626SOL     OW34197   9.574   0.712   7.970  0.0535 -0.7369  0.0243
 9626SOL    HW134198   9.561   0.680   7.881  0.1634  0.2212 -0.3459
 9626SOL    HW234199   9.666   0.741   7.972  0.3786 -1.7531  0.7808
 9627SOL     OW34200   1.429   4.694   5.301 -0.4802 -0.1157  0.1068
 9627SOL    HW134201   1.347   4.654   5.329 -1.1236 -0.0841 -1.6467
 9627SOL    HW234202   1.438   4.670   5.209  0.7028  1.1622 -0.1456
 9628SOL     OW34203   8.608   4.771  10.723  0.3558 -0.4549 -0.1400
 9628SOL    HW134204   8.630   4.747  10.813 -0.4869 -0.6601  0.0259
 9628SOL    HW234205   8.514   4.754  10.716 -0.0929  1.8042 -0.3421
 9629SOL     OW34206   3.394   1.484  10.772 -0.0529  0.0340  0.4301
 9629SOL    HW134207   3.388   1.540  10.849 -0.0379  0.3045  0.2349
 9629SOL    HW234208   3.398   1.395  10.807  0.7878  0.1960  0.7832
 9630SOL     OW34209   2.832   4.905   0.800  0.2485 -0.2969 -0.4822
 9630SOL    HW134210   2.904   4.946   0.754  0.8601 -0.2830  0.4566
 9630SOL    HW234211   2.869   4.826   0.839 -0.6432 -1.1644 -1.3357
 9631SOL     OW34212   5.557   4.206   5.787  0.5226  0.2167 -0.5502
 9631SOL    HW134213   5.653   4.201   5.785  0.4676 -0.8170 -2.2254
 9631SOL    HW234214   5.528   4.150   5.715 -1.4712 -2.0872  1.8300
 9632SOL     OW34215   2.770   8.945   1.892  0.2198  0.2918  0.2064
 9632SOL    HW134216   2.860   8.952   1.923  0.2258 -1.8077  0.7798
 9632SOL    HW234217   2.719   8.929   1.971 -0.6643  1.3399 -0.1294
 9633SOL     OW34218   3.587   2.572   2.190 -0.0817  0.3523 -0.0428
 9633SOL    HW134219   3.520   2.574   2.258 -0.3446 -0.3375 -0.2722
 9633SOL    HW234220   3.665   2.610   2.231  0.4974 -2.2273  1.4305
 9634SOL     OW34221  11.266   6.401   9.087  0.4551 -0.1729  0.6204
 9634SOL    HW134222  11.345   6.372   9.042  1.1761  3.1400 -0.5152
 9634SOL    HW234223  11.196   6.388   9.023  0.4234 -1.0951  0.8289
 9635SOL     OW34224   5.488  10.817  10.547  0.2156  0.4866  0.1564
 9635SOL    HW134225   5.481  10.769  10.629  1.8994  0.0288  0.0553
 9635SOL    HW234226   5.518  10.904  10.572 -0.9076  0.9005  0.1491
 9636SOL     OW34227   1.314   8.810   8.712  0.0316  0.7197  0.0775
 9636SOL    HW134228   1.225   8.845   8.719 -1.1075 -1.8267 -0.5771
 9636SOL    HW234229   1.319   8.743   8.780  1.8413  1.4867  0.7617
 9637SOL     OW34230  10.171   0.927   1.131 -0.5752 -0.2173 -0.1381
 9637SOL    HW134231  10.099   0.953   1.188 -0.8328 -1.0634 -0.0669
 9637SOL    HW234232  10.168   0.831   1.129  0.7598 -0.2886  0.1457
 9638SOL     OW34233   9.459   8.809   4.900  0.6448 -0.4734 -0.1225
 9638SOL    HW134234   9.374   8.771   4.923  0.3428  0.4959  0.4288
 9638SOL    HW234235   9.479   8.774   4.814  0.0897 -1.3873  0.1074
 9639SOL     OW34236   4.384   8.750   2.579 -0.6548 -0.3359  0.0482
 9639SOL    HW134237   4.435   8.808   2.523 -0.0818 -1.8692 -1.0899
 9639SOL    HW234238   4.341   8.808   2.642 -1.1958  1.4365 -1.8630
 9640SOL     OW34239  10.305   0.627   0.636 -0.1911  0.1255  0.3101
 9640SOL    HW134240  10.318   0.586   0.721  0.2630 -1.9253 -0.6704
 9640SOL    HW234241  10.296   0.553   0.575 -0.2430  1.5161 -1.4623
 9641SOL     OW34242   4.138   4.800   8.605 -0.1267  0.1317  0.0680
 9641SOL    HW134243   4.172   4.718   8.571 -2.2020  0.0589 -2.1400
 9641SOL    HW234244   4.149   4.862   8.533 -2.9157  0.5097 -0.1370
 9642SOL     OW34245   0.270   2.937   4.838  0.0713 -0.3281 -0.0540
 9642SOL    HW134246   0.337   2.957   4.773 -0.3420 -1.9874 -1.0320
 9642SOL    HW234247   0.187   2.953   4.793 -0.2212  0.1267  0.6269
 9643SOL     OW34248   6.898   4.189   4.350 -0.0015 -0.3115 -0.0792
 9643SOL    HW134249   6.942   4.119   4.397  1.1487  0.3478 -0.1229
 9643SOL    HW234250   6.897   4.263   4.411  1.5888  0.5792 -1.0564
 9644SOL     OW34251   2.636   4.716   6.456  0.0835  0.2372 -0.3271
 9644SOL    HW134252   2.615   4.656   6.384 -1.2430  1.3856 -0.9543
 9644SOL    HW234253   2.716   4.681   6.494 -1.4166 -2.7945  0.3129
 9645SOL     OW34254  11.412  11.038  10.888  0.0072  0.7300  0.4861
 9645SOL    HW134255  11.451  11.005  10.808  1.1127  2.2725  0.3402
 9645SOL    HW234256  11.357  10.967  10.920  1.5160 -0.8338 -0.2932
 9646SOL     OW34257   9.534   6.601   3.829 -0.0196 -0.2825  0.2043
 9646SOL    HW134258   9.493   6.640   3.752  2.9973  1.0812 -0.8760
 9646SOL    HW234259   9.539   6.508   3.809 -2.8055 -0.6139  0.6030
 9647SOL     OW34260   9.829   4.060   5.248 -0.3605 -0.3760  0.0497
 9647SOL    HW134261   9.768   4.003   5.200  0.3343 -0.9261 -0.1977
 9647SOL    HW234262   9.888   3.999   5.293 -0.2145  0.1479  0.5722
 9648SOL     OW34263   1.282   8.907   1.876  0.0508  0.1889  0.1754
 9648SOL    HW134264   1.191   8.888   1.898 -0.7276  3.2491  0.1433
 9648SOL    HW234265   1.314   8.959   1.950  1.2766  0.4010 -0.4753
 9649SOL     OW34266  10.100  11.740   0.636 -0.0539  0.1894 -0.4669
 9649SOL    HW134267  10.123  11.831   0.658 -0.4291  0.2084 -0.1543
 9649SOL    HW234268  10.061  11.746   0.549  1.2628  0.1374 -1.0980
 9650SOL     OW34269   7.466  10.288   2.169  0.1386 -0.0687 -0.2802
 9650SOL    HW134270   7.438  10.352   2.235  1.9397  0.1260  0.3696
 9650SOL    HW234271   7.512  10.341   2.103 -0.3598 -0.4389 -0.9265
 9651SOL     OW34272   5.611   5.266   6.702 -0.0306  0.7392 -0.8963
 9651SOL    HW134273   5.517   5.256   6.713  0.1387  0.1666  0.2179
 9651SOL    HW234274   5.621   5.347   6.652 -1.0805  1.1970 -0.3989
 9652SOL     OW34275  10.337   9.448   5.255  0.1722  0.2912 -0.1611
 9652SOL    HW134276  10.353   9.416   5.344 -0.8019  0.0451 -0.0662
 9652SOL    HW234277  10.269   9.391   5.220  0.9240  0.0565 -1.2690
 9653SOL     OW34278   6.280  10.458   0.606 -0.5533  0.6141  0.0472
 9653SOL    HW134279   6.236  10.524   0.553 -0.8848 -1.1903 -2.1095
 9653SOL    HW234280   6.372  10.483   0.604 -0.6860  1.0857 -0.6689
 9654SOL     OW34281   2.503  11.605   3.384 -0.5077  0.1810 -0.4961
 9654SOL    HW134282   2.470  11.685   3.425 -1.6419  0.2000 -1.4020
 9654SOL    HW234283   2.480  11.535   3.445  1.5171  0.6012  0.8804
 9655SOL     OW34284  11.215   4.114  11.074  0.3545  0.0452 -0.1346
 9655SOL    HW134285  11.197   4.203  11.104 -0.4128 -0.6435  1.5491
 9655SOL    HW234286  11.207   4.060  11.152 -2.0950 -1.8866 -1.5875
 9656SOL     OW34287   4.279   8.601   0.113 -0.6779 -0.2376  0.0476
 9656SOL    HW134288   4.374   8.613   0.110 -0.8565  1.5782  0.6696
 9656SOL    HW234289   4.250   8.615   0.023 -0.1657 -3.1979 -0.6790
 9657SOL     OW34290   0.427   3.791   6.526  1.1428  0.0461 -0.7353
 9657SOL    HW134291   0.500   3.745   6.566  0.2392 -0.1171  0.8254
 9657SOL    HW234292   0.349   3.751   6.565  0.1988  0.2565 -2.2878
 9658SOL     OW34293   3.945   8.609   9.559 -0.2217  0.4805  0.2162
 9658SOL    HW134294   3.993   8.648   9.486  0.2812  0.9819  0.8030
 9658SOL    HW234295   3.853   8.629   9.540 -0.2287 -0.4872 -0.9147
 9659SOL     OW34296   4.314  11.059   4.855 -0.2351 -0.3684 -0.0640
 9659SOL    HW134297   4.322  11.016   4.940 -0.2133  0.7195  0.4890
 9659SOL    HW234298   4.325  11.152   4.873 -0.8252 -0.0646 -1.1729
 9660SOL     OW34299  10.377   7.666  10.720  0.0840 -0.0773 -0.1051
 9660SOL    HW134300  10.316   7.655  10.647  0.0990 -0.8755 -0.0055
 9660SOL    HW234301  10.348   7.747  10.764  0.1485  0.4751 -1.0526
 9661SOL     OW34302   5.983   8.657  10.716  0.4288 -0.4089  0.4520
 9661SOL    HW134303   6.062   8.603  10.716  0.0208 -1.0806 -1.2041
 9661SOL    HW234304   5.911   8.594  10.715 -0.0598  0.1263 -1.0041
 9662SOL     OW34305   8.171   7.461   0.738  0.1106  0.0685 -0.0425
 9662SOL    HW134306   8.117   7.419   0.805  0.4244 -2.0747 -1.0843
 9662SOL    HW234307   8.126   7.544   0.721 -2.2416 -1.1202 -0.0570
 9663SOL     OW34308   9.791   4.139   6.536 -0.1024  0.2336 -0.1788
 9663SOL    HW134309   9.843   4.134   6.616  2.2118  0.8291 -1.5420
 9663SOL    HW234310   9.720   4.076   6.549  0.5523 -0.1251  2.0641
 9664SOL     OW34311   2.111   8.919  10.533 -0.0604  0.0828 -0.6197
 9664SOL    HW134312   2.064   8.848  10.489  1.4667 -0.4776 -1.3963
 9664SOL    HW234313   2.199   8.884  10.549  0.5072  1.5489 -0.3553
 9665SOL     OW34314  10.619   4.525   7.774  0.2155  0.3468  0.3475
 9665SOL    HW134315  10.604   4.504   7.681 -1.0310  0.0141  0.6074
 9665SOL    HW234316  10.548   4.584   7.797  0.6403  0.5923  1.0471
 9666SOL     OW34317  11.630   4.032   1.168 -0.0571 -0.0416  0.5886
 9666SOL    HW134318  11.698   4.095   1.147  0.1298 -1.0497 -2.4696
 9666SOL    HW234319  11.673   3.968   1.226  1.0189  0.3923  0.2937
 9667SOL     OW34320   5.331   0.110   5.596  0.0264  0.2475 -0.1563
 9667SOL    HW134321   5.313   0.107   5.502 -0.6638  1.6169 -0.1065
 9667SOL    HW234322   5.329   0.019   5.625 -1.0758 -0.0926 -1.2418
 9668SOL     OW34323   4.284   1.945   3.937  0.3032 -0.4419  0.1706
 9668SOL    HW134324   4.195   1.973   3.957  0.3955 -0.6142  0.8256
 9668SOL    HW234325   4.286   1.939   3.841 -0.7118 -1.5032  0.2081
 9669SOL     OW34326   3.336  11.822   9.322 -0.1618  0.1358  0.5139
 9669SOL    HW134327   3.376  11.847   9.238  0.5421 -1.9341  0.1902
 9669SOL    HW234328   3.330  11.905   9.370  0.3340  1.2225 -1.1805
 9670SOL     OW34329   1.112   7.662   3.886 -0.4486 -0.0416  0.0242
 9670SOL    HW134330   1.068   7.687   3.968  1.0384  0.0198  0.8535
 9670SOL    HW234331   1.171   7.736   3.867 -0.2850 -0.3577 -0.7314
 9671SOL     OW34332   3.350  11.470   9.264 -0.0770  0.4288 -0.0006
 9671SOL    HW134333   3.328  11.497   9.175 -0.9527 -0.7114 -0.1584
 9671SOL    HW234334   3.439  11.434   9.257  0.1024  0.9150 -0.2769
 9672SOL     OW34335   1.225   3.300   5.367 -0.1920  0.0674  0.4557
 9672SOL    HW134336   1.187   3.372   5.416 -0.8415  0.4419 -0.5529
 9672SOL    HW234337   1.320   3.309   5.379 -0.3322  0.0730  1.6982
 9673SOL     OW34338   5.664   7.915  11.153 -0.0450 -0.3962  0.4708
 9673SOL    HW134339   5.607   7.911  11.077 -0.8204  1.9363  0.8584
 9673SOL    HW234340   5.629   7.849  11.213 -1.3238 -0.1433  0.0243
 9674SOL     OW34341   6.843   5.705   6.946 -0.7779  0.1586  0.3020
 9674SOL    HW134342   6.828   5.623   6.992 -0.5281  0.0805  0.2449
 9674SOL    HW234343   6.907   5.683   6.878 -0.8308  0.3641  0.1851
 9675SOL     OW34344   1.221   1.860  10.149  0.0714 -0.8518  0.1221
 9675SOL    HW134345   1.244   1.772  10.178 -1.0143 -0.9576  0.7116
 9675SOL    HW234346   1.238   1.915  10.226  1.2421 -0.4440 -0.4037
 9676SOL     OW34347   1.571  11.778   8.097 -0.2966  0.4654  0.3743
 9676SOL    HW134348   1.554  11.828   8.176  1.9154  2.4279 -0.2578
 9676SOL    HW234349   1.661  11.802   8.073 -0.4884 -0.9445 -2.0930
 9677SOL     OW34350   0.432  11.304   9.120 -0.1934 -0.6280 -0.6885
 9677SOL    HW134351   0.518  11.306   9.077 -0.5212 -0.9342 -1.3735
 9677SOL    HW234352   0.399  11.216   9.103 -0.2474 -0.8270  0.3840
 9678SOL     OW34353  11.286  10.957   3.537 -0.2285  0.0627  0.1958
 9678SOL    HW134354  11.382  10.956   3.544 -0.1902  0.8528 -0.1414
 9678SOL    HW234355  11.260  11.036   3.585 -0.6656  0.1839 -0.2396
 9679SOL     OW34356   3.585   1.856  11.106  0.0240  0.0186 -0.4713
 9679SOL    HW134357   3.550   1.907  11.033 -2.1865  0.0654  0.5534
 9679SOL    HW234358   3.529   1.779  11.111 -2.3326  1.6500  3.2762
 9680SOL     OW34359   8.715  10.990   4.221 -0.0966 -0.3514  0.2168
 9680SOL    HW134360   8.744  11.059   4.163 -1.0242 -0.1146  0.0158
 9680SOL    HW234361   8.793  10.965   4.270  0.1657  1.1618  0.6281
 9681SOL     OW34362   0.183   4.444   6.404  0.2719 -0.1803 -0.1345
 9681SOL    HW134363   0.092   4.417   6.405  0.1586  0.1968 -0.2020
 9681SOL    HW234364   0.232   4.366   6.433 -0.2563  0.2755  2.2156
 9682SOL     OW34365   5.612   2.505   8.485 -0.3646  0.3747  0.4056
 9682SOL    HW134366   5.618   2.434   8.421  1.0462  0.4423  0.4432
 9682SOL    HW234367   5.645   2.582   8.439  0.4228  0.4772  1.1189
 9683SOL     OW34368   6.023  10.405   1.220  0.4494  0.0508  0.2474
 9683SOL    HW134369   5.932  10.379   1.234  0.8265 -1.4320  0.0535
 9683SOL    HW234370   6.074  10.338   1.265  1.4557  1.2198  0.9010
 9684SOL     OW34371   8.771  10.020  11.714  0.2428  0.4198 -0.0086
 9684SOL    HW134372   8.776   9.929  11.745 -0.7397  1.0501  2.1744
 9684SOL    HW234373   8.683  10.028  11.678 -0.3791  0.9676  1.5478
 9685SOL     OW34374   3.683   7.375   1.177 -0.1287  0.7221 -0.6252
 9685SOL    HW134375   3.668   7.301   1.118 -3.8976  0.9775 -0.2361
 9685SOL    HW234376   3.711   7.446   1.120 -0.4765  0.0886 -1.6151
 9686SOL     OW34377   1.695   4.688  11.235 -0.4943 -0.6448 -0.0306
 9686SOL    HW134378   1.765   4.649  11.183 -1.9620 -1.6301 -1.3717
 9686SOL    HW234379   1.661   4.758  11.179 -1.0541 -0.6500  0.2986
 9687SOL     OW34380   0.228  11.180   7.782 -0.2238  0.2729  0.4380
 9687SOL    HW134381   0.296  11.143   7.839 -0.3116 -0.6046 -0.0065
 9687SOL    HW234382   0.255  11.271   7.768  1.7500 -0.4742 -1.0239
 9688SOL     OW34383   8.432   2.317   2.867 -0.3064 -0.7949 -0.6184
 9688SOL    HW134384   8.364   2.251   2.878 -1.1112  0.0452 -0.3640
 9688SOL    HW234385   8.391   2.384   2.811 -0.4849  0.7381  1.2281
 9689SOL     OW34386   8.804   4.727   2.710 -0.1062 -0.2956  0.1793
 9689SOL    HW134387   8.889   4.705   2.748 -0.0848  0.4312  0.5737
 9689SOL    HW234388   8.782   4.652   2.655  1.5872  0.2217 -1.3025
 9690SOL     OW34389  10.808   6.238   8.686 -0.7570  0.1185 -0.2548
 9690SOL    HW134390  10.754   6.274   8.615 -1.9569  1.6340  1.3357
 9690SOL    HW234391  10.745   6.207   8.750  0.2950 -0.4244  0.5365
 9691SOL     OW34392   2.703   1.885   4.795 -0.3808  0.2526  0.0474
 9691SOL    HW134393   2.657   1.802   4.807  2.9160 -2.0564 -1.8234
 9691SOL    HW234394   2.731   1.884   4.704 -1.1201  4.0375 -0.3864
 9692SOL     OW34395   2.079   3.815   7.856  0.3011  0.2526 -0.2423
 9692SOL    HW134396   2.095   3.721   7.846  1.2253  0.3879 -0.1516
 9692SOL    HW234397   2.075   3.828   7.951 -1.8575  0.0103 -0.2415
 9693SOL     OW34398   4.270   2.261   7.065  0.1516  0.2494  0.0583
 9693SOL    HW134399   4.195   2.218   7.106 -0.7138  0.8563 -0.8368
 9693SOL    HW234400   4.336   2.192   7.058 -0.3058 -0.2901  0.8816
 9694SOL     OW34401   5.903   3.254   3.659 -0.0725 -0.1159 -1.2390
 9694SOL    HW134402   5.983   3.308   3.657  1.1464 -1.6710  0.8090
 9694SOL    HW234403   5.935   3.166   3.677 -2.2719 -0.8169 -0.5251
 9695SOL     OW34404   6.595   6.826  10.022 -0.2425 -0.2045 -0.1388
 9695SOL    HW134405   6.594   6.914  10.059  0.6539  0.3232 -1.3303
 9695SOL    HW234406   6.614   6.838   9.929 -0.0898 -1.6570 -0.3296
 9696SOL     OW34407   2.087   1.834   0.465 -0.3856  0.3819  0.3944
 9696SOL    HW134408   2.007   1.873   0.430 -0.9491 -0.7366  0.3730
 9696SOL    HW234409   2.060   1.792   0.547 -0.2039 -1.3349 -0.3710
 9697SOL     OW34410   2.431   6.491   0.863 -0.7358 -0.3488 -0.0289
 9697SOL    HW134411   2.353   6.546   0.862 -1.5362 -1.3821  1.6782
 9697SOL    HW234412   2.464   6.499   0.953  0.7623 -0.4473 -0.5476
 9698SOL     OW34413   4.815   7.819  11.290 -0.1979  0.2086  0.0446
 9698SOL    HW134414   4.808   7.725  11.275  0.8029  0.0450  0.5343
 9698SOL    HW234415   4.773   7.858  11.213  0.0230 -0.6373 -0.5251
 9699SOL     OW34416   5.993   1.012   3.270  0.0655  0.7634  0.8180
 9699SOL    HW134417   5.918   1.014   3.211  0.8746  1.5334 -0.2359
 9699SOL    HW234418   5.962   0.966   3.348 -1.1992  0.2154  0.0174
 9700SOL     OW34419   0.276   1.336  11.789 -0.3573  0.1242  0.2484
 9700SOL    HW134420   0.335   1.408  11.810  0.1203 -0.5998  1.5294
 9700SOL    HW234421   0.267   1.339  11.694 -0.2104  1.7453  0.2592
 9701SOL     OW34422   7.648   4.594  11.259 -0.5520  0.4256  0.7168
 9701SOL    HW134423   7.688   4.525  11.205 -1.0435 -0.3928  1.3767
 9701SOL    HW234424   7.723   4.644  11.293 -0.2562  2.4419 -2.5289
 9702SOL     OW34425   9.371   1.486   0.617 -0.2382  0.0027  0.2233
 9702SOL    HW134426   9.414   1.431   0.682  0.3265 -1.6432 -1.4541
 9702SOL    HW234427   9.441   1.513   0.558 -0.7885  1.2078  0.0801
 9703SOL     OW34428   7.472   7.533   0.578  0.4104  0.2571 -0.0837
 9703SOL    HW134429   7.425   7.532   0.494  0.5944  0.8383 -0.1941
 9703SOL    HW234430   7.415   7.582   0.637  0.9794  1.1819 -0.2838
 9704SOL     OW34431   5.369   2.302   0.794  0.5134  0.2549 -0.0450
 9704SOL    HW134432   5.374   2.350   0.712  3.1440 -0.8452 -0.6486
 9704SOL    HW234433   5.281   2.263   0.793 -0.2635  1.8881 -1.3226
 9705SOL     OW34434   5.086   8.087  11.012  0.3797 -0.6143 -0.1682
 9705SOL    HW134435   5.006   8.135  11.034  0.7905  1.5180 -2.7829
 9705SOL    HW234436   5.155   8.131  11.062  0.4894  0.3947 -1.1742
 9706SOL     OW34437  10.360  10.829   4.547  0.2409  0.3291  0.3497
 9706SOL    HW134438  10.408  10.904   4.514  3.3382 -1.3385  0.6134
 9706SOL    HW234439  10.349  10.847   4.641 -0.2235  0.9943  0.1739
 9707SOL     OW34440   6.685   1.820   6.932 -0.7685  0.6083 -0.0928
 9707SOL    HW134441   6.645   1.739   6.964 -0.2067  0.8601  1.3709
 9707SOL    HW234442   6.657   1.827   6.841 -1.5768 -0.7500  0.0194
 9708SOL     OW34443   5.808   3.076   0.173  0.6455 -0.3165 -0.5251
 9708SOL    HW134444   5.846   3.022   0.243  0.7609  0.5372  0.0960
 9708SOL    HW234445   5.833   3.165   0.197  0.8141 -0.0243 -1.7527
 9709SOL     OW34446   7.494   5.879   0.553 -0.4999 -0.0028 -0.1105
 9709SOL    HW134447   7.515   5.809   0.614 -1.6627 -0.0085  0.3073
 9709SOL    HW234448   7.472   5.834   0.471  2.1356  0.0382 -0.9577
 9710SOL     OW34449   7.629  11.238   2.951 -0.6843 -0.3121 -0.2495
 9710SOL    HW134450   7.563  11.278   3.007  0.4355  3.6359 -1.4114
 9710SOL    HW234451   7.591  11.241   2.863  0.0953 -0.2169 -0.5969
 9711SOL     OW34452   4.806   0.823   2.734 -0.0089  0.0925 -0.2116
 9711SOL    HW134453   4.712   0.839   2.741 -0.2803 -1.3480 -0.3225
 9711SOL    HW234454   4.826   0.763   2.805  0.8593  0.4457 -0.1385
 9712SOL     OW34455   0.342   9.320   8.984  0.2772  0.2802  0.4138
 9712SOL    HW134456   0.301   9.328   8.898  2.7346 -0.9798 -0.9939
 9712SOL    HW234457   0.335   9.227   9.006 -0.2699  0.5753  1.5829
 9713SOL     OW34458   0.646   6.475   9.526  0.0335  0.3693  0.3085
 9713SOL    HW134459   0.711   6.405   9.517  0.4948  0.7271  0.7935
 9713SOL    HW234460   0.675   6.543   9.465  0.7258  0.9760  1.2933
 9714SOL     OW34461   1.900   3.432   0.213 -0.2516 -0.1518 -0.4235
 9714SOL    HW134462   1.959   3.396   0.147  1.2186  2.6460 -0.8010
 9714SOL    HW234463   1.843   3.492   0.164 -0.2978  0.6603  0.5949
 9715SOL     OW34464  11.446   6.748   8.026  0.1649 -0.0418  0.0008
 9715SOL    HW134465  11.411   6.747   7.937 -0.5724 -0.6432  0.2943
 9715SOL    HW234466  11.385   6.802   8.076 -1.0110 -2.0089  0.7646
 9716SOL     OW34467   4.951   3.006   8.018  0.3083 -0.0243 -0.0189
 9716SOL    HW134468   5.011   3.080   8.034 -0.3329  0.2807  1.0130
 9716SOL    HW234469   4.984   2.937   8.074 -0.8148  0.4292  1.2256
 9717SOL     OW34470   8.800  11.382   3.566  0.9582  0.0497 -0.5506
 9717SOL    HW134471   8.783  11.435   3.487 -1.0560  0.8832  0.3691
 9717SOL    HW234472   8.895  11.380   3.573  1.2093 -0.0057 -2.9619
 9718SOL     OW34473   6.796   8.779  11.291 -0.0417 -0.0299 -0.3440
 9718SOL    HW134474   6.791   8.805  11.383  1.4544 -0.1209 -0.1974
 9718SOL    HW234475   6.773   8.686  11.290  0.2186 -0.1004  0.0004
 9719SOL     OW34476   4.004  11.299  10.868  0.1997  0.8186 -0.3697
 9719SOL    HW134477   4.099  11.298  10.858  0.0672  1.4108 -2.0071
 9719SOL    HW234478   3.984  11.390  10.892  0.0975  0.5261  0.6768
 9720SOL     OW34479   5.819   6.116   7.307  0.0708 -0.1212 -0.3561
 9720SOL    HW134480   5.833   6.038   7.360  0.5833 -0.2411 -0.6705
 9720SOL    HW234481   5.734   6.102   7.265  1.4365 -1.8854 -2.7578
 9721SOL     OW34482   9.291   3.627   0.309 -0.2527 -0.1974 -0.0506
 9721SOL    HW134483   9.299   3.532   0.302 -0.1970 -0.4290  2.3298
 9721SOL    HW234484   9.327   3.648   0.395 -1.2738  1.8512 -0.0534
 9722SOL     OW34485   7.216   8.408   8.910  0.7192 -0.5646 -0.2683
 9722SOL    HW134486   7.161   8.394   8.988 -0.0471 -1.6062 -0.9616
 9722SOL    HW234487   7.156   8.396   8.837  1.0211  2.0518 -1.0632
 9723SOL     OW34488   1.401   3.284   8.311 -0.3696 -0.0026 -0.8595
 9723SOL    HW134489   1.405   3.193   8.280 -0.7412  0.8419 -3.6531
 9723SOL    HW234490   1.310   3.309   8.298 -0.9266  0.0958  2.3331
 9724SOL     OW34491   6.409   4.723   6.203 -0.3568 -0.0213  0.2546
 9724SOL    HW134492   6.496   4.759   6.187 -0.1162 -1.1484 -1.2257
 9724SOL    HW234493   6.424   4.648   6.260 -0.5017  0.3760  0.8304
 9725SOL     OW34494   8.583   7.426   9.243 -0.0684 -0.1420  0.0114
 9725SOL    HW134495   8.534   7.390   9.318  0.7822 -0.5177  0.4036
 9725SOL    HW234496   8.667   7.453   9.281 -0.0469  0.6803 -0.6122
 9726SOL     OW34497   1.629   5.356   4.710  0.8367 -0.4480 -0.5961
 9726SOL    HW134498   1.626   5.286   4.776  0.0375 -0.2902 -0.4562
 9726SOL    HW234499   1.720   5.387   4.713  1.0323 -1.0355 -0.1941
 9727SOL     OW34500   2.054   1.709   0.716 -0.6514 -0.2776  0.6118
 9727SOL    HW134501   2.042   1.615   0.703  1.9170 -0.8561  1.8672
 9727SOL    HW234502   2.144   1.718   0.747 -0.5926  2.6833 -0.1432
 9728SOL     OW34503   8.476   8.060   5.339  0.2964 -0.3428 -0.1427
 9728SOL    HW134504   8.448   8.139   5.292 -1.2075  1.1091  2.9497
 9728SOL    HW234505   8.547   8.089   5.396  1.0638 -1.7112 -0.3477
 9729SOL     OW34506  11.774   6.907  11.412 -0.2269 -0.2343 -0.1950
 9729SOL    HW134507  11.738   6.822  11.437  1.5792 -1.7516 -2.3341
 9729SOL    HW234508  11.827   6.934  11.488 -3.7115  0.9610  2.0658
 9730SOL     OW34509   3.791   0.959   6.736  0.6367 -0.0845  0.3850
 9730SOL    HW134510   3.784   0.970   6.641  0.9543  2.0197  0.5584
 9730SOL    HW234511   3.884   0.949   6.752  0.6832  0.6736  0.5757
 9731SOL     OW34512   5.674   5.630  11.360 -0.1869 -0.2495  0.8563
 9731SOL    HW134513   5.580   5.618  11.345 -0.1490 -0.3053  0.6602
 9731SOL    HW234514   5.713   5.548  11.333  0.1250  0.4540 -0.9748
 9732SOL     OW34515   0.793   7.820   4.506 -0.4671 -0.4174  0.5096
 9732SOL    HW134516   0.747   7.806   4.424  0.0697 -1.0203  0.2988
 9732SOL    HW234517   0.820   7.911   4.503 -0.2162 -0.5072 -0.1092
 9733SOL     OW34518   6.355   0.928   7.658  0.6989 -0.1055  0.6105
 9733SOL    HW134519   6.287   0.914   7.593  0.8574  0.0058  0.4201
 9733SOL    HW234520   6.419   0.985   7.614  0.6006  0.3116  1.0047
 9734SOL     OW34521   5.925   3.479   1.261 -0.2022 -0.2002  0.1073
 9734SOL    HW134522   6.007   3.470   1.213 -0.0193  1.6716  0.0044
 9734SOL    HW234523   5.949   3.465   1.352  0.6473  2.0789  0.3023
 9735SOL     OW34524   9.981   4.500   5.846  0.0167  0.3111 -0.3055
 9735SOL    HW134525   9.898   4.506   5.893 -0.1016  1.5581 -0.6442
 9735SOL    HW234526   9.964   4.543   5.762  0.3789 -1.4087 -1.3065
 9736SOL     OW34527  10.725   7.122   3.874 -0.5254 -0.6833 -0.0880
 9736SOL    HW134528  10.711   7.176   3.952  2.3939 -0.4426  0.3762
 9736SOL    HW234529  10.746   7.035   3.908 -2.9816 -1.6432 -0.7863
 9737SOL     OW34530   0.522   1.733   7.742 -0.0749  0.2041  0.4338
 9737SOL    HW134531   0.618   1.733   7.740 -0.0836 -0.0688 -0.9159
 9737SOL    HW234532   0.500   1.805   7.801  0.9654  0.8602  0.0636
 9738SOL     OW34533   6.156  11.169   7.448 -0.1922 -0.1506 -0.4755
 9738SOL    HW134534   6.221  11.120   7.500  0.5569  0.6780 -0.6065
 9738SOL    HW234535   6.186  11.260   7.452 -0.6379  0.0625 -1.6093
 9739SOL     OW34536   6.073   5.107   0.217 -0.2913 -0.8238 -0.4259
 9739SOL    HW134537   6.025   5.174   0.168  0.1970 -1.0964 -1.2890
 9739SOL    HW234538   6.007   5.067   0.274 -0.8538 -0.4600 -0.8152
 9740SOL     OW34539  10.539  11.581   7.178 -0.4678 -0.5963  0.5348
 9740SOL    HW134540  10.485  11.532   7.116 -0.2657  1.1593 -1.1018
 9740SOL    HW234541  10.581  11.513   7.231  0.5195 -2.2899 -2.1849
 9741SOL     OW34542   9.034   8.741   7.385  0.4853  0.0635 -0.0607
 9741SOL    HW134543   9.053   8.834   7.373 -1.6084  0.4753 -0.5600
 9741SOL    HW234544   9.042   8.703   7.298 -1.6071  0.4202 -0.4646
 9742SOL     OW34545   2.171   8.033   4.621  0.0796  0.0887 -0.1340
 9742SOL    HW134546   2.255   8.035   4.666  0.5388 -2.1114 -0.7466
 9742SOL    HW234547   2.109   8.004   4.688  0.5031 -1.7731 -0.4933
 9743SOL     OW34548   4.969   6.517   3.458  0.4649  0.1364  0.0529
 9743SOL    HW134549   5.041   6.507   3.520 -0.6966  1.3053  1.6865
 9743SOL    HW234550   4.913   6.441   3.473 -0.4665  1.0372  1.4345
 9744SOL     OW34551   6.759   3.686   3.335 -0.2493 -0.4658 -0.4806
 9744SOL    HW134552   6.767   3.632   3.413  0.2574  0.3085  0.0217
 9744SOL    HW234553   6.725   3.627   3.267 -1.6437 -0.9131  0.5682
 9745SOL     OW34554   2.296   4.479  10.893  0.2138 -0.2870 -0.1660
 9745SOL    HW134555   2.299   4.508  10.984  1.8594  0.6137 -0.4662
 9745SOL    HW234556   2.270   4.557  10.844  3.2962  0.4699 -0.8357
 9746SOL     OW34557   7.965  11.708  11.683  0.4695 -0.0801 -0.3705
 9746SOL    HW134558   7.929  11.698  11.595  0.4268 -1.4477 -0.2109
 9746SOL    HW234559   7.889  11.720  11.739  0.4788  0.4356 -0.4560
 9747SOL     OW34560   5.492   3.215   7.346  0.3439 -0.1667 -0.2404
 9747SOL    HW134561   5.418   3.179   7.395  1.3957 -0.7712  0.9578
 9747SOL    HW234562   5.562   3.225   7.411  0.7615  2.1569 -0.9413
 9748SOL     OW34563   6.181   1.409   5.371  0.1930 -0.2693 -0.0623
 9748SOL    HW134564   6.238   1.341   5.332 -0.9312 -1.1583 -0.2202
 9748SOL    HW234565   6.197   1.403   5.465 -0.3796 -1.2442 -0.0085
 9749SOL     OW34566   5.192   3.779   9.235  0.5226  0.4824 -0.0088
 9749SOL    HW134567   5.099   3.778   9.211  0.4102 -0.5049  0.4256
 9749SOL    HW234568   5.234   3.830   9.166  0.0489 -1.2556 -1.6466
 9750SOL     OW34569   8.396   5.594   5.967  0.6292 -0.4745  0.8074
 9750SOL    HW134570   8.488   5.608   5.987  0.5087  0.0576  0.9939
 9750SOL    HW234571   8.350   5.622   6.046  0.2948 -0.5746  0.6487
 9751SOL     OW34572   5.351   6.264   9.499 -0.5762 -0.8028 -0.5179
 9751SOL    HW134573   5.291   6.196   9.528 -0.6349 -0.7889 -0.6079
 9751SOL    HW234574   5.302   6.314   9.434 -0.5935 -0.5666 -0.3279
 9752SOL     OW34575   1.321   4.038   5.333 -0.3538  0.4650  0.4338
 9752SOL    HW134576   1.315   3.978   5.259  1.7440  0.2188  0.4223
 9752SOL    HW234577   1.330   3.981   5.410 -3.8688  0.6628  1.1570
 9753SOL     OW34578   7.313   8.306   1.485 -0.1805 -0.8889  0.1576
 9753SOL    HW134579   7.310   8.213   1.464  0.0341 -0.8934  0.1400
 9753SOL    HW234580   7.314   8.309   1.581 -0.3355 -0.8982  0.1598
 9754SOL     OW34581   5.695  11.621   8.703 -0.2787 -0.3300  0.0394
 9754SOL    HW134582   5.641  11.605   8.780 -2.0704  0.2035 -1.0600
 9754SOL    HW234583   5.636  11.612   8.629  0.9967  0.8767 -1.1959
 9755SOL     OW34584   6.777   0.193   9.807 -0.0122  0.4423  0.3046
 9755SOL    HW134585   6.752   0.107   9.844 -0.3699  0.1658 -0.5570
 9755SOL    HW234586   6.872   0.188   9.798 -0.1209 -0.2474 -0.6426
 9756SOL     OW34587   4.537   0.435   8.568 -0.1674 -0.3650  0.8030
 9756SOL    HW134588   4.506   0.479   8.647  1.3620 -1.2777  1.9588
 9756SOL    HW234589   4.467   0.374   8.546 -0.5702 -0.1749  1.5234
 9757SOL     OW34590  10.312   6.247   1.847  0.0360  0.0644 -0.4377
 9757SOL    HW134591  10.295   6.328   1.799 -1.0408 -0.5071 -1.0568
 9757SOL    HW234592  10.281   6.265   1.936  1.6410  0.9820 -0.0257
 9758SOL     OW34593   8.844   9.839   7.219 -0.1395  0.3720  0.2371
 9758SOL    HW134594   8.814   9.838   7.309  1.1157  2.0774  0.7431
 9758SOL    HW234595   8.881   9.927   7.207 -1.4648  0.6981 -2.3545
 9759SOL     OW34596   9.361   4.928   1.156  0.4244  0.0829 -0.1302
 9759SOL    HW134597   9.375   5.017   1.187  2.4412 -0.6367  1.1901
 9759SOL    HW234598   9.391   4.929   1.065  0.0640  0.8048 -0.2528
 9760SOL     OW34599   0.949   9.891   7.804 -0.4173  0.1515 -0.3182
 9760SOL    HW134600   0.869   9.868   7.852 -0.1806  2.2963  1.2935
 9760SOL    HW234601   0.943   9.842   7.722 -1.8863 -2.0969  1.0120
 9761SOL     OW34602   3.600   9.679   8.202  0.8344  0.2228 -0.1778
 9761SOL    HW134603   3.617   9.763   8.245  1.4234 -0.9953  2.1669
 9761SOL    HW234604   3.660   9.679   8.127  2.1741  1.1743  0.8174
 9762SOL     OW34605   3.206   4.181  10.612  0.1164  0.2240 -0.2939
 9762SOL    HW134606   3.283   4.230  10.582 -0.5165  1.0034 -0.7035
 9762SOL    HW234607   3.138   4.201  10.547 -0.8697  0.8015  0.8665
 9763SOL     OW34608   4.859   6.976   9.738  0.4756  0.0148 -0.5492
 9763SOL    HW134609   4.839   6.889   9.774  0.2551 -0.5879 -2.0481
 9763SOL    HW234610   4.954   6.985   9.750  0.3843 -0.0971  0.3090
 9764SOL     OW34611   5.812   3.919   0.979  0.6804 -0.3304 -0.3222
 9764SOL    HW134612   5.862   3.858   0.925  0.7952 -0.3687 -0.1743
 9764SOL    HW234613   5.819   4.003   0.935 -0.5346 -0.6641 -1.2326
 9765SOL     OW34614   5.358   7.102   4.073 -0.0136  0.1364  0.5270
 9765SOL    HW134615   5.376   7.104   4.167 -1.0821 -0.9768  0.7805
 9765SOL    HW234616   5.270   7.066   4.066 -0.6008  1.7149 -0.8382
 9766SOL     OW34617   4.368   9.037   0.722  0.0094  0.9383 -0.2962
 9766SOL    HW134618   4.442   8.977   0.723  0.7954  1.8714 -0.0739
 9766SOL    HW234619   4.351   9.057   0.814 -0.7048  0.5242 -0.3290
 9767SOL     OW34620   4.602   3.380   8.770 -0.1771  0.2419 -0.0468
 9767SOL    HW134621   4.549   3.446   8.725 -0.2165 -0.2213 -0.6952
 9767SOL    HW234622   4.564   3.296   8.745  1.5079 -0.1706 -1.4511
 9768SOL     OW34623   2.067   8.607   6.722 -0.3570 -0.5012  0.2328
 9768SOL    HW134624   2.125   8.571   6.655  3.1614 -1.9299  3.6249
 9768SOL    HW234625   2.108   8.691   6.745 -0.6307 -0.7089  1.5299
 9769SOL     OW34626   4.229  11.018   1.726 -0.1684 -0.4103 -0.0730
 9769SOL    HW134627   4.249  11.017   1.819  1.6511  0.9615 -0.3981
 9769SOL    HW234628   4.279  10.945   1.689 -0.7926 -0.8782 -0.0090
 9770SOL     OW34629   7.605  10.162   8.987  0.1360  0.0367 -0.1041
 9770SOL    HW134630   7.549  10.230   9.024 -0.0235  0.1826 -0.6132
 9770SOL    HW234631   7.587  10.164   8.893 -0.5831 -1.3591 -0.0106
 9771SOL     OW34632   8.013  11.714   2.499 -0.0120  0.3534  0.5246
 9771SOL    HW134633   8.087  11.745   2.551 -0.3140  0.4498  0.8951
 9771SOL    HW234634   8.052  11.692   2.414  0.8860 -2.0249  1.4918
 9772SOL     OW34635  11.073  11.064  10.186 -0.2396  0.2376  0.3353
 9772SOL    HW134636  11.108  10.979  10.214 -0.1669 -0.4874 -1.7730
 9772SOL    HW234637  10.985  11.043  10.153 -0.2081  0.9686 -0.2285
 9773SOL     OW34638   7.828   7.085   0.250  0.4851 -0.2185  0.1949
 9773SOL    HW134639   7.874   7.121   0.174 -0.4947 -0.2948 -0.4571
 9773SOL    HW234640   7.756   7.147   0.266  1.3076  0.3879  1.7591
 9774SOL     OW34641   5.123   2.511   6.520  0.5849  0.1120 -0.1287
 9774SOL    HW134642   5.048   2.565   6.540 -1.1883 -1.5939 -1.7148
 9774SOL    HW234643   5.189   2.572   6.485 -0.8016  1.4100 -0.5688
 9775SOL     OW34644  10.813  10.941   6.319  0.4957 -0.6046  0.6894
 9775SOL    HW134645  10.895  10.893   6.323  1.4488  0.8970  0.1969
 9775SOL    HW234646  10.813  10.998   6.396  0.7750  0.6553 -0.2040
 9776SOL     OW34647   7.155   7.513  10.375 -0.1144 -0.9168 -0.1115
 9776SOL    HW134648   7.166   7.455  10.451 -0.8356 -1.6872 -0.5834
 9776SOL    HW234649   7.132   7.454  10.303 -1.0175 -0.0383 -0.5672
 9777SOL     OW34650   7.706   5.132   1.667  0.2401  0.8796 -0.0606
 9777SOL    HW134651   7.745   5.056   1.623  0.1984  1.2186 -0.6857
 9777SOL    HW234652   7.743   5.207   1.621  0.6077  1.2565  0.8274
 9778SOL     OW34653  10.766   4.817   0.606  0.1366 -0.2011 -0.3070
 9778SOL    HW134654  10.685   4.774   0.580  0.2425 -0.2414 -0.5764
 9778SOL    HW234655  10.759   4.827   0.701 -0.0271 -0.5257 -0.2843
 9779SOL     OW34656   1.888   9.659   3.164 -0.1867 -0.1550 -0.6536
 9779SOL    HW134657   1.813   9.698   3.119 -1.0508 -0.0204  0.8529
 9779SOL    HW234658   1.955   9.651   3.095 -1.0536  1.0811 -1.7000
 9780SOL     OW34659   7.704  10.077   4.763 -0.0753  0.4022  0.3364
 9780SOL    HW134660   7.704  10.096   4.669  1.8956 -1.1527 -0.0312
 9780SOL    HW234661   7.754  10.149   4.802  0.5722  0.1601 -0.0355
 9781SOL     OW34662   7.877   7.634  10.079  0.5501 -0.0221  0.1306
 9781SOL    HW134663   7.923   7.672  10.004  0.9041 -0.8508 -0.0830
 9781SOL    HW234664   7.829   7.560  10.042 -1.4689  1.1536  0.2193
 9782SOL     OW34665  11.468   5.815  10.623 -0.1768  0.1322  0.3318
 9782SOL    HW134666  11.535   5.874  10.588 -0.4835  0.4541  0.2795
 9782SOL    HW234667  11.515   5.734  10.642  0.5985  0.9231  1.9676
 9783SOL     OW34668   4.072   4.564  10.300 -0.2601 -0.1556  0.4287
 9783SOL    HW134669   4.051   4.566  10.393 -0.9812  0.3096  0.2689
 9783SOL    HW234670   4.093   4.655  10.279  0.0210 -0.2802  0.1575
 9784SOL     OW34671  10.204   5.009   6.699 -0.0695 -0.5323  1.1039
 9784SOL    HW134672  10.182   5.007   6.606 -0.1845 -0.6325  1.1329
 9784SOL    HW234673  10.155   5.083   6.735  1.2628  0.5626  0.7652
 9785SOL     OW34674  11.174   4.055   2.929 -0.1525 -0.0674  0.0835
 9785SOL    HW134675  11.242   4.097   2.982 -0.1363  0.2240 -0.1602
 9785SOL    HW234676  11.219   4.032   2.847  0.0461 -1.3137  0.5198
 9786SOL     OW34677   1.107   3.319   0.569 -0.0802  0.2134  0.4998
 9786SOL    HW134678   1.041   3.252   0.587 -0.6854  0.3934 -0.9116
 9786SOL    HW234679   1.057   3.400   0.559  0.4677  0.5528  0.4740
 9787SOL     OW34680   9.052   0.302   7.257  0.5822 -0.0050  0.4332
 9787SOL    HW134681   9.041   0.316   7.351  1.5692  0.6554  0.4660
 9787SOL    HW234682   8.963   0.300   7.223  0.0259 -2.9055  1.7031
 9788SOL     OW34683   2.249  11.042   7.057  0.0821  0.0307  0.6462
 9788SOL    HW134684   2.294  11.084   7.131  1.9272 -0.4090 -0.1756
 9788SOL    HW234685   2.198  11.113   7.018 -0.7685  0.3202  2.1996
 9789SOL     OW34686   5.866   7.880   3.833  0.4185 -0.0293  0.3104
 9789SOL    HW134687   5.916   7.821   3.776 -1.4268 -1.5451  0.1561
 9789SOL    HW234688   5.873   7.965   3.791  0.0613 -0.8797 -1.5890
 9790SOL     OW34689   9.539   3.776   6.374  0.1893 -0.0290 -0.4613
 9790SOL    HW134690   9.563   3.694   6.331 -0.1462  0.7362 -2.1620
 9790SOL    HW234691   9.460   3.804   6.330  0.5011  1.4007 -0.1489
 9791SOL     OW34692   1.373   4.138  10.491  0.7629  0.4238 -0.4750
 9791SOL    HW134693   1.392   4.231  10.473 -1.6169  1.2518  0.8772
 9791SOL    HW234694   1.328   4.108  10.412 -1.9254  1.6144  0.4697
 9792SOL     OW34695   8.619   3.555   0.072 -0.3467 -0.1573 -0.9213
 9792SOL    HW134696   8.712   3.548   0.094 -0.1343  0.5315 -1.5690
 9792SOL    HW234697   8.615   3.538  -0.022 -0.5574  1.9916 -1.3675
 9793SOL     OW34698   7.972  10.858   4.582  0.3454  0.1398 -0.3266
 9793SOL    HW134699   7.991  10.776   4.628 -0.6240  0.0757 -0.0333
 9793SOL    HW234700   7.914  10.906   4.640  0.9359  1.0649 -0.4836
 9794SOL     OW34701   3.882  10.108  11.318 -0.2321 -0.2388 -0.0014
 9794SOL    HW134702   3.827  10.137  11.245  0.7697  2.5609  0.2596
 9794SOL    HW234703   3.843  10.148  11.396  1.0932  0.2727  0.4264
 9795SOL     OW34704   7.946   8.634   1.332 -0.2416 -0.1832  0.4513
 9795SOL    HW134705   8.016   8.589   1.380 -0.5247 -0.0665  0.9725
 9795SOL    HW234706   7.981   8.644   1.243  0.7142  0.5445  0.8880
 9796SOL     OW34707   9.399   7.828   1.943 -0.3255  0.2250  0.2142
 9796SOL    HW134708   9.332   7.821   2.010  1.2821  0.9989  1.9859
 9796SOL    HW234709   9.407   7.739   1.907 -2.9076  0.3058 -0.7568
 9797SOL     OW34710   6.482   3.967   0.929  0.0034  0.0250  0.1087
 9797SOL    HW134711   6.448   3.884   0.963  0.3628 -0.1853 -0.0362
 9797SOL    HW234712   6.414   4.031   0.950 -1.3208 -0.6885 -1.7474
 9798SOL     OW34713  11.538   7.739  10.006  0.6566 -0.1450  0.3273
 9798SOL    HW134714  11.475   7.751   9.935  2.3125 -1.3814 -1.4696
 9798SOL    HW234715  11.606   7.804   9.988  0.9036 -0.1900  1.0567
 9799SOL     OW34716   4.822  10.126   4.247  0.5157  0.0743 -0.3269
 9799SOL    HW134717   4.861  10.068   4.312  0.7159 -0.9051 -1.2945
 9799SOL    HW234718   4.836  10.214   4.282  3.4917 -0.2271 -0.5335
 9800SOL     OW34719   8.091   3.583   9.700 -0.3768 -0.1785  0.4285
 9800SOL    HW134720   8.088   3.488   9.712  2.6544 -0.5394 -0.7274
 9800SOL    HW234721   8.170   3.610   9.748 -0.3622  1.5195 -0.4828
 9801SOL     OW34722   1.748   9.119   5.729 -0.6228 -0.0916 -0.0962
 9801SOL    HW134723   1.701   9.149   5.652 -3.0264 -1.2076  0.8188
 9801SOL    HW234724   1.764   9.198   5.780 -0.2718  0.4767 -1.0639
 9802SOL     OW34725   4.863   7.234   1.469 -0.3526 -0.3207  0.2434
 9802SOL    HW134726   4.913   7.286   1.407 -0.0248 -1.1274 -0.1908
 9802SOL    HW234727   4.881   7.273   1.554 -1.2786  1.1744 -0.2061
 9803SOL     OW34728   9.123   2.650   7.653 -0.5189 -0.6783 -0.4462
 9803SOL    HW134729   9.146   2.561   7.627 -1.1156 -1.4501  1.5048
 9803SOL    HW234730   9.030   2.645   7.676 -1.1986  1.0106 -2.4696
 9804SOL     OW34731   4.902   8.748   2.843  0.5992 -0.4264  0.2776
 9804SOL    HW134732   4.989   8.786   2.824  0.7137 -0.8284 -0.0105
 9804SOL    HW234733   4.901   8.737   2.938  0.8860 -0.4682  0.2769
 9805SOL     OW34734   2.896   7.628   7.307 -0.6557 -0.6050 -0.6124
 9805SOL    HW134735   2.969   7.676   7.269 -0.5485  1.1015  1.5383
 9805SOL    HW234736   2.934   7.546   7.338  0.6303  0.6180  1.2613
 9806SOL     OW34737   3.520   2.752   0.265  0.3409 -0.1664 -0.3999
 9806SOL    HW134738   3.614   2.746   0.249  0.4712  0.8758 -0.0536
 9806SOL    HW234739   3.494   2.837   0.229 -0.6573 -0.8395 -1.3712
 9807SOL     OW34740   2.484   7.262   3.613 -0.3331  0.4290 -0.1030
 9807SOL    HW134741   2.573   7.269   3.579  0.1191 -1.8392  0.4017
 9807SOL    HW234742   2.429   7.249   3.536 -0.0379  0.4948 -0.3256
 9808SOL     OW34743  11.369   6.303   6.619 -0.3621 -0.5079  0.2298
 9808SOL    HW134744  11.435   6.243   6.653  0.9888  1.0087  0.4119
 9808SOL    HW234745  11.412   6.344   6.544 -0.7465  1.1688  0.8975
 9809SOL     OW34746  10.838   2.971   7.381 -0.8916 -0.5330  0.1143
 9809SOL    HW134747  10.793   2.890   7.407 -1.4701 -0.6338 -1.1293
 9809SOL    HW234748  10.916   2.973   7.436 -1.6371 -1.1418  1.2484
 9810SOL     OW34749   1.119   6.094  10.105 -0.4886  0.0384  0.5986
 9810SOL    HW134750   1.102   6.009  10.064  0.3627  0.1352  0.0148
 9810SOL    HW234751   1.035   6.139  10.103 -1.3501 -1.3679  2.3530
 9811SOL     OW34752   7.441   3.262   5.331 -0.1747  0.2078 -0.1661
 9811SOL    HW134753   7.460   3.179   5.377 -1.1718 -0.6294 -1.2104
 9811SOL    HW234754   7.430   3.325   5.402  3.8025  0.2917  0.6512
 9812SOL     OW34755   8.746   8.009   6.186 -0.6610 -0.0523  0.4420
 9812SOL    HW134756   8.711   8.044   6.104 -1.5017 -2.0819 -0.1372
 9812SOL    HW234757   8.806   7.940   6.158  0.0720  0.1156  1.5415
 9813SOL     OW34758   3.120   3.102   4.827 -0.7645  0.1036 -0.0695
 9813SOL    HW134759   3.211   3.122   4.808 -0.6248 -1.2365 -0.9150
 9813SOL    HW234760   3.118   3.082   4.921 -0.4181  1.2281  0.1920
 9814SOL     OW34761   7.383   9.023  11.501 -0.4273 -0.0670 -0.0730
 9814SOL    HW134762   7.450   9.087  11.526 -1.1664 -0.1931  2.5926
 9814SOL    HW234763   7.301   9.066  11.526 -0.9817 -1.7191  1.1064
 9815SOL     OW34764   0.785   7.371   6.325  0.7905 -0.2345 -0.0667
 9815SOL    HW134765   0.748   7.417   6.401  0.8413  1.1749 -0.8753
 9815SOL    HW234766   0.714   7.370   6.261  1.0401 -0.6153 -0.3431
 9816SOL     OW34767   3.282   0.353   8.304 -0.6289  0.4528  0.2804
 9816SOL    HW134768   3.341   0.426   8.323 -1.8042  1.2409  1.0255
 9816SOL    HW234769   3.248   0.327   8.390 -3.0028  1.4383 -0.3136
 9817SOL     OW34770   7.627   5.187   5.686 -0.1488  0.0731 -0.4796
 9817SOL    HW134771   7.536   5.158   5.678  0.0556 -0.8861  0.4917
 9817SOL    HW234772   7.660   5.187   5.596 -0.5836 -1.3459 -0.6631
 9818SOL     OW34773   0.205  10.573   6.402  0.8970  0.0276  0.3647
 9818SOL    HW134774   0.151  10.495   6.383 -0.6231  1.1078  0.0550
 9818SOL    HW234775   0.241  10.598   6.318 -0.6768  1.0975 -0.0355
 9819SOL     OW34776   7.659   8.516   8.451  0.1822 -1.0402  0.8794
 9819SOL    HW134777   7.754   8.526   8.460  0.2730 -0.9432 -0.1440
 9819SOL    HW234778   7.641   8.530   8.358 -1.1461  1.6017  1.4401
 9820SOL     OW34779   2.752   9.048   8.934  0.4074  0.5818 -0.4189
 9820SOL    HW134780   2.826   8.996   8.901  0.2042 -0.7374  1.0875
 9820SOL    HW234781   2.772   9.061   9.026 -1.8873 -1.0051  0.3608
 9821SOL     OW34782   1.806   3.619   6.929 -0.0077  0.3734 -0.6644
 9821SOL    HW134783   1.768   3.623   7.017  1.2253  0.5548 -0.1059
 9821SOL    HW234784   1.812   3.526   6.909  0.2696  0.3098 -0.2907
 9822SOL     OW34785   6.918   9.238   8.838 -0.5286 -0.2973  0.7164
 9822SOL    HW134786   6.870   9.158   8.858  2.1540 -1.4153  3.4523
 9822SOL    HW234787   6.960   9.221   8.754 -0.8861 -1.2954  0.7270
 9823SOL     OW34788  11.000   8.416   8.997  0.1347 -0.0109 -0.2918
 9823SOL    HW134789  10.943   8.483   9.035  0.5075  0.3303 -0.3267
 9823SOL    HW234790  11.003   8.438   8.903 -0.8114 -0.8715 -0.5335
 9824SOL     OW34791  11.139   2.823   0.239 -0.1430  0.2963 -0.2759
 9824SOL    HW134792  11.235   2.818   0.234 -0.1074  0.9551 -0.3273
 9824SOL    HW234793  11.113   2.864   0.156 -0.5409 -0.6733 -0.6469
 9825SOL     OW34794   9.013   1.790   7.482  0.3483  0.7783 -0.2511
 9825SOL    HW134795   9.042   1.879   7.462  0.2214  0.5307 -1.6254
 9825SOL    HW234796   9.091   1.746   7.517 -0.2180  2.1326  3.0940
 9826SOL     OW34797   5.727  11.284   8.078 -0.0445  0.5533  0.5712
 9826SOL    HW134798   5.632  11.292   8.080 -0.3509 -1.8804 -1.2599
 9826SOL    HW234799   5.756  11.353   8.018 -0.6394  1.1188  0.9185
 9827SOL     OW34800   2.765   4.838  11.126 -0.3042 -0.0344  0.1517
 9827SOL    HW134801   2.811   4.863  11.206 -0.8182 -0.3524  0.5498
 9827SOL    HW234802   2.811   4.760  11.096 -0.5893 -0.3556  0.5510
 9828SOL     OW34803   1.142   1.860   4.759  0.7000 -0.2865 -0.2960
 9828SOL    HW134804   1.087   1.819   4.693  1.0383 -0.7185 -0.3101
 9828SOL    HW234805   1.101   1.837   4.842 -1.3515  2.5394 -0.3852
 9829SOL     OW34806   1.706   3.584   7.189 -0.3657  0.3727 -0.2400
 9829SOL    HW134807   1.640   3.652   7.201  1.5917  2.2936  0.2692
 9829SOL    HW234808   1.750   3.577   7.274  1.6447  0.9328 -1.1516
 9830SOL     OW34809  10.421   4.641  11.788  0.2321  0.8207 -0.0270
 9830SOL    HW134810  10.456   4.729  11.803  1.7490  0.0150  1.5649
 9830SOL    HW234811  10.371   4.621  11.867 -1.4697  0.8280 -1.0547
 9831SOL     OW34812   1.527   8.576  11.615  0.1289 -0.2098  0.1540
 9831SOL    HW134813   1.531   8.559  11.521 -0.0226  1.1111 -0.1060
 9831SOL    HW234814   1.467   8.510  11.648  0.6721 -1.0999 -0.5622
 9832SOL     OW34815  11.215   3.470   9.493  0.8566  0.9122  0.0271
 9832SOL    HW134816  11.153   3.496   9.425 -0.7101  0.5429  1.2593
 9832SOL    HW234817  11.191   3.524   9.569  0.4332 -0.9475  1.2746
 9833SOL     OW34818   5.306   7.259  11.140 -0.3327 -0.4373 -0.3688
 9833SOL    HW134819   5.334   7.170  11.119 -2.0086 -1.2344  0.6639
 9833SOL    HW234820   5.240   7.280  11.074  0.4954  0.3296 -0.9970
 9834SOL     OW34821   9.591   2.636   5.678  0.0057  0.7429 -0.3362
 9834SOL    HW134822   9.604   2.704   5.613  0.5857 -0.3500 -1.4097
 9834SOL    HW234823   9.668   2.579   5.669 -0.5040 -0.1050  0.4493
 9835SOL     OW34824   4.349   3.398   4.278 -0.2728 -0.5551  0.5613
 9835SOL    HW134825   4.362   3.370   4.369 -0.6033 -1.1249  0.4367
 9835SOL    HW234826   4.396   3.333   4.226 -1.3744 -1.1356  0.2500
 9836SOL     OW34827  11.360   7.315   4.791 -0.5939 -0.3401 -0.1677
 9836SOL    HW134828  11.320   7.321   4.704  0.3774 -0.7064 -0.6470
 9836SOL    HW234829  11.371   7.406   4.819  1.1370 -0.1405 -1.3853
 9837SOL     OW34830  10.091   9.434  10.925 -0.1843  0.0447 -0.6434
 9837SOL    HW134831  10.117   9.354  10.880 -1.7355 -0.7816 -0.1167
 9837SOL    HW234832   9.998   9.424  10.943 -0.5320  2.1591 -0.9228
 9838SOL     OW34833   7.266   8.972   4.876 -0.0132  0.4671 -0.1169
 9838SOL    HW134834   7.207   8.898   4.892  0.9513 -0.4069 -0.4554
 9838SOL    HW234835   7.256   8.991   4.783  0.8372 -0.2564 -0.3786
 9839SOL     OW34836   6.885   0.532  11.189 -0.3785  0.2070 -0.7770
 9839SOL    HW134837   6.817   0.474  11.222 -0.4809  0.6153 -0.2611
 9839SOL    HW234838   6.857   0.620  11.214 -0.6175  0.5703 -2.2366
 9840SOL     OW34839   4.496  10.819  10.116 -0.1922  0.2153 -0.3290
 9840SOL    HW134840   4.412  10.774  10.118 -1.3717  2.3038 -0.2569
 9840SOL    HW234841   4.560  10.749  10.102 -1.6949 -1.7122  1.7529
 9841SOL     OW34842   7.868   4.446   2.076 -0.5416  0.2624 -0.0236
 9841SOL    HW134843   7.960   4.453   2.100  0.3079 -1.9034 -2.2197
 9841SOL    HW234844   7.827   4.405   2.152 -0.0834  2.5656  1.5714
 9842SOL     OW34845   8.795   5.871   4.868 -0.0954  0.1201 -0.2495
 9842SOL    HW134846   8.858   5.935   4.900 -0.9703  0.8487  0.0692
 9842SOL    HW234847   8.712   5.919   4.863 -1.1679 -1.3961  1.6079
 9843SOL     OW34848   9.648   0.667   7.028  0.1023 -0.1147  0.2057
 9843SOL    HW134849   9.738   0.691   7.049 -0.2068  1.1277  0.1358
 9843SOL    HW234850   9.598   0.748   7.034 -1.2336 -0.9544  1.3569
 9844SOL     OW34851   0.069   3.007   6.585  0.4052  0.1650 -0.4093
 9844SOL    HW134852   0.101   3.028   6.498 -1.6677  0.7179 -1.0944
 9844SOL    HW234853   0.087   3.086   6.637  1.1911  0.0215 -0.4605
 9845SOL     OW34854   9.396   1.462   5.409 -0.2973 -0.2869  0.3902
 9845SOL    HW134855   9.450   1.507   5.475 -1.4709 -2.2368  2.8787
 9845SOL    HW234856   9.319   1.432   5.458 -2.0152 -0.5312 -2.2823
 9846SOL     OW34857   2.298   8.087   0.749 -0.1415 -0.0687 -0.4728
 9846SOL    HW134858   2.370   8.139   0.784 -1.1677  0.9936  0.0866
 9846SOL    HW234859   2.328   7.996   0.759  0.7221  0.3154  0.6350
 9847SOL     OW34860   0.174   3.603   2.035 -0.1747 -0.0179  0.6191
 9847SOL    HW134861   0.267   3.579   2.037 -0.1066 -0.0526 -1.3705
 9847SOL    HW234862   0.174   3.698   2.046  0.1143  0.0206  0.2894
 9848SOL     OW34863  11.559   0.880   3.245 -0.6583 -0.0036  0.8350
 9848SOL    HW134864  11.472   0.868   3.208 -0.6604 -0.9691  1.1389
 9848SOL    HW234865  11.566   0.813   3.313 -0.0269  0.6615  1.4425
 9849SOL     OW34866   7.252   2.788   4.349 -0.5420  0.8565 -0.2741
 9849SOL    HW134867   7.325   2.731   4.324 -0.7376  0.5899 -0.2412
 9849SOL    HW234868   7.284   2.835   4.426 -0.7292  0.0672  0.3008
 9850SOL     OW34869   8.486  11.033   7.633 -0.5520 -0.4592 -0.0969
 9850SOL    HW134870   8.407  11.028   7.687 -1.0487  0.5019 -0.7129
 9850SOL    HW234871   8.513  11.124   7.639  1.2208 -1.0093  1.0707
 9851SOL     OW34872  11.007   3.656   9.623  0.7987  0.1000  0.0499
 9851SOL    HW134873  10.985   3.705   9.702  0.1455 -1.4816  0.8894
 9851SOL    HW234874  10.924   3.619   9.594  1.3980 -1.2350 -0.0408
 9852SOL     OW34875   5.849   8.490   3.416 -0.7570 -0.0309 -0.2646
 9852SOL    HW134876   5.862   8.419   3.479  0.9903 -0.7041 -1.3135
 9852SOL    HW234877   5.817   8.446   3.337  1.1841  0.1707 -1.2123
 9853SOL     OW34878   7.918  11.064  10.881 -0.3750  0.6708 -0.5470
 9853SOL    HW134879   7.891  11.155  10.889 -1.7391  0.2699 -0.3899
 9853SOL    HW234880   7.937  11.053  10.788 -0.2538  1.0945 -0.5739
 9854SOL     OW34881   3.366   2.985   5.479  0.4176  0.1725 -0.3699
 9854SOL    HW134882   3.387   3.042   5.406  1.4861  0.1404 -0.1099
 9854SOL    HW234883   3.378   2.896   5.445  0.2297  0.1398 -0.3523
 9855SOL     OW34884  10.212   2.346   4.247  0.1127 -0.2405  0.0721
 9855SOL    HW134885  10.123   2.317   4.266 -0.4047  0.7196 -0.7784
 9855SOL    HW234886  10.216   2.351   4.152  1.6019 -1.7830  0.0253
 9856SOL     OW34887   8.568   2.064  10.569 -0.2535 -0.4485  0.3728
 9856SOL    HW134888   8.493   2.121  10.584 -0.8773 -1.1504 -0.0478
 9856SOL    HW234889   8.532   1.986  10.527  0.6946 -0.8365  0.2479
 9857SOL     OW34890   6.687   2.246   4.169  0.5901  0.0504 -0.1705
 9857SOL    HW134891   6.629   2.282   4.236  0.4608 -0.1882 -0.1527
 9857SOL    HW234892   6.629   2.212   4.101  0.6676 -0.9546  0.2430
 9858SOL     OW34893   7.406   1.247  11.442 -0.0016  0.1178 -0.4563
 9858SOL    HW134894   7.338   1.258  11.376  0.0984  0.0485 -0.5720
 9858SOL    HW234895   7.382   1.166  11.488  0.5307 -0.4403 -1.1370
 9859SOL     OW34896   2.082   5.561   1.885 -0.0642  0.7370 -0.0335
 9859SOL    HW134897   2.111   5.641   1.842  0.4935  0.4535 -0.2054
 9859SOL    HW234898   1.988   5.558   1.870 -0.5119  2.5571  1.9662
 9860SOL     OW34899   5.316   5.313   6.115  0.4235  0.5717  0.3717
 9860SOL    HW134900   5.322   5.337   6.023 -0.0394 -0.6882 -0.0027
 9860SOL    HW234901   5.350   5.224   6.120 -1.8234 -0.3349  0.9708
 9861SOL     OW34902   1.098   6.111   3.769  0.2653 -0.1995  0.2586
 9861SOL    HW134903   1.044   6.035   3.745  0.3371 -0.7805  1.8309
 9861SOL    HW234904   1.036   6.176   3.802  0.0488  1.0016 -2.2670
 9862SOL     OW34905   4.405   4.607   9.664  1.1009 -0.0392 -0.0064
 9862SOL    HW134906   4.320   4.642   9.691  0.8030  0.1324 -1.1218
 9862SOL    HW234907   4.441   4.569   9.744 -0.5618 -1.2025  0.2548
 9863SOL     OW34908   1.190   9.767   9.328  0.2958  0.1448 -0.1361
 9863SOL    HW134909   1.264   9.821   9.355 -0.7781  0.7597  1.7693
 9863SOL    HW234910   1.169   9.797   9.239  2.3224 -0.0857 -0.7292
 9864SOL     OW34911  11.661  10.802   6.321 -0.3110  0.0956 -0.5299
 9864SOL    HW134912  11.738  10.808   6.378  0.5313  0.6283 -1.6808
 9864SOL    HW234913  11.641  10.709   6.318  0.8988 -0.1681 -0.9736
 9865SOL     OW34914   0.670   7.588   2.791 -0.1622  0.2167  0.4496
 9865SOL    HW134915   0.693   7.678   2.812 -0.8021  0.1420  1.5621
 9865SOL    HW234916   0.680   7.582   2.696 -0.0481  1.4339  0.3707
 9866SOL     OW34917   6.219   2.572   0.058 -0.1982  0.0762  0.0454
 9866SOL    HW134918   6.248   2.488   0.092 -0.8113 -0.3435 -0.4440
 9866SOL    HW234919   6.219   2.630   0.134 -3.4146 -1.3032  1.2870
 9867SOL     OW34920   2.421   6.073  10.933 -0.0411 -0.2051  0.2083
 9867SOL    HW134921   2.505   6.105  10.901 -0.3310  0.5853  0.2340
 9867SOL    HW234922   2.413   5.985  10.894  0.6419 -0.1565 -0.0532
 9868SOL     OW34923  11.693   8.561   5.145  0.7285  0.1505 -0.0833
 9868SOL    HW134924  11.707   8.651   5.174 -0.2597 -0.7366  3.7114
 9868SOL    HW234925  11.767   8.512   5.181 -0.2351 -0.9732  0.4462
 9869SOL     OW34926   0.541   3.516   8.212  0.2825 -0.3135  0.3824
 9869SOL    HW134927   0.483   3.468   8.153  1.4898 -2.6320  0.9583
 9869SOL    HW234928   0.521   3.483   8.299  2.7879 -1.6840  0.5460
 9870SOL     OW34929   6.723   0.340   6.900 -0.2852  0.0181 -0.4070
 9870SOL    HW134930   6.635   0.368   6.929  0.8519  2.0202  1.4417
 9870SOL    HW234931   6.711   0.249   6.873 -3.0264  0.3576 -0.6959
 9871SOL     OW34932   4.515   6.462   5.296  0.0806  0.0624 -0.4466
 9871SOL    HW134933   4.499   6.368   5.300 -0.3258  0.1540  0.5734
 9871SOL    HW234934   4.611   6.470   5.293  0.0922 -0.3996 -2.1461
 9872SOL     OW34935   0.628   0.375   0.693 -0.0810 -0.6623  0.6358
 9872SOL    HW134936   0.644   0.314   0.764  2.0530  1.6000  2.2760
 9872SOL    HW234937   0.703   0.365   0.635  0.5354  0.6409  1.1671
 9873SOL     OW34938   5.035   6.575   1.222 -0.2364 -0.3807  0.1797
 9873SOL    HW134939   5.114   6.623   1.196 -0.0518 -0.9984 -0.4262
 9873SOL    HW234940   4.963   6.625   1.185 -0.0291 -0.6959 -0.6717
 9874SOL     OW34941   3.361   5.406   4.143 -0.4385  0.0812  0.5030
 9874SOL    HW134942   3.430   5.348   4.113 -0.3740  0.6144 -0.4187
 9874SOL    HW234943   3.302   5.415   4.068 -0.3122  1.3740  0.5219
 9875SOL     OW34944   9.337   7.179   5.440 -0.3266 -0.3725  0.3837
 9875SOL    HW134945   9.363   7.090   5.465  0.5404 -0.6956 -1.5144
 9875SOL    HW234946   9.303   7.217   5.521 -1.5020 -2.6866  1.0957
 9876SOL     OW34947   4.278   5.246   8.872 -0.0914  0.0007 -0.0928
 9876SOL    HW134948   4.200   5.276   8.827  2.0146  0.8769 -3.5860
 9876SOL    HW234949   4.273   5.151   8.870 -1.0059  0.0540 -0.3997
 9877SOL     OW34950  10.076   7.012   0.734  0.1784  0.1379 -0.1584
 9877SOL    HW134951  10.121   6.952   0.794  2.1562  0.6254 -1.0792
 9877SOL    HW234952  10.012   7.057   0.789  1.5464  0.1739  1.4933
 9878SOL     OW34953   7.653   1.437   5.407  0.1082 -0.5560  0.0861
 9878SOL    HW134954   7.691   1.512   5.455 -0.5701  0.9690 -1.6537
 9878SOL    HW234955   7.603   1.477   5.336 -0.7498 -2.6825 -0.5662
 9879SOL     OW34956   2.311   7.320   7.626 -0.1609  0.1654  0.0263
 9879SOL    HW134957   2.295   7.237   7.671 -1.6278  0.6628  0.4634
 9879SOL    HW234958   2.235   7.332   7.570  0.7096  0.5387 -1.1201
 9880SOL     OW34959   4.199  10.062  10.607  0.2127  0.0080  0.2039
 9880SOL    HW134960   4.144   9.999  10.561  1.4975 -1.1895  0.2383
 9880SOL    HW234961   4.147  10.088  10.683 -0.1497 -1.4084  0.4676
 9881SOL     OW34962   2.935   8.419   5.406  0.3900  0.3147 -0.8632
 9881SOL    HW134963   2.987   8.366   5.345 -0.1768 -1.5409  0.2078
 9881SOL    HW234964   3.000   8.467   5.457  1.1849 -2.1249  0.5917
 9882SOL     OW34965  11.726   8.031   4.081 -0.6910  0.5052  0.5704
 9882SOL    HW134966  11.666   8.037   4.006 -2.0940 -1.3592  1.4607
 9882SOL    HW234967  11.813   8.026   4.042 -1.3435  0.2564 -0.9212
 9883SOL     OW34968   6.749  10.475   8.123 -0.3256  0.4726 -0.1656
 9883SOL    HW134969   6.704  10.528   8.057 -0.9532 -1.5749 -1.4658
 9883SOL    HW234970   6.831  10.447   8.080  0.2295  0.7615  0.6737
 9884SOL     OW34971   2.089   8.663   1.557  0.0436 -0.6903  0.0623
 9884SOL    HW134972   2.015   8.654   1.618  0.8172 -2.0031  0.8528
 9884SOL    HW234973   2.166   8.667   1.614  0.5409  3.0993 -0.5820
 9885SOL     OW34974   6.345  10.937   1.390  0.2858  0.4293 -0.0007
 9885SOL    HW134975   6.296  10.894   1.319  0.4810 -0.0183  0.1345
 9885SOL    HW234976   6.300  10.910   1.470  0.0442  0.9635  0.0464
 9886SOL     OW34977   3.720   5.491   0.869 -0.3491  0.0584  0.4321
 9886SOL    HW134978   3.804   5.537   0.858 -0.0531 -0.6631 -0.4798
 9886SOL    HW234979   3.660   5.537   0.811 -0.2463 -0.2346  0.0922
 9887SOL     OW34980   6.270  11.128   3.957  0.0996  0.1511  0.0699
 9887SOL    HW134981   6.215  11.204   3.941 -0.5316 -0.5527 -1.2714
 9887SOL    HW234982   6.331  11.156   4.025  1.9061  2.8873 -2.4703
 9888SOL     OW34983   9.750  10.930   4.498  0.0593 -0.1222 -0.4462
 9888SOL    HW134984   9.808  11.004   4.484  0.7856 -0.4467  0.7008
 9888SOL    HW234985   9.664  10.960   4.468  0.3376  1.1721 -0.0080
 9889SOL     OW34986   2.509   9.798   8.056  0.3745 -0.2919 -0.5818
 9889SOL    HW134987   2.503   9.704   8.072  0.0821 -0.1817 -0.0254
 9889SOL    HW234988   2.514   9.837   8.143 -0.2154  0.2545 -0.7830
 9890SOL     OW34989   2.625   7.239   3.008  0.1031 -0.0671  0.1414
 9890SOL    HW134990   2.625   7.177   2.935 -0.6332  0.8151 -0.6321
 9890SOL    HW234991   2.533   7.264   3.018  0.4882  1.6389 -0.2293
 9891SOL     OW34992   3.470   1.996   2.548  0.0483  0.2930  0.1620
 9891SOL    HW134993   3.447   2.061   2.614 -0.9755 -1.2831  1.4496
 9891SOL    HW234994   3.407   2.010   2.477  0.7081  1.5370 -0.2203
 9892SOL     OW34995  10.703   3.010  11.054 -0.2466 -0.0753  0.2554
 9892SOL    HW134996  10.752   2.937  11.014 -0.0786 -0.5803  1.3549
 9892SOL    HW234997  10.611   2.987  11.039 -0.1902  0.3688 -0.9182
 9893SOL     OW34998   5.898   5.209   8.102 -0.0151  0.8271  0.0033
 9893SOL    HW134999   5.861   5.275   8.161 -1.1489  0.5512 -0.3726
 9893SOL    HW235000   5.832   5.199   8.033 -1.2136 -2.6156  1.4179
 9894SOL     OW35001   8.374   5.549   9.518  0.7847 -0.2166  0.0041
 9894SOL    HW135002   8.279   5.537   9.517  0.8425 -1.4109  2.3663
 9894SOL    HW235003   8.387   5.632   9.562  0.8347  0.0132 -0.4438
 9895SOL     OW35004   6.638   1.445   1.083 -0.3092  0.3894  0.1388
 9895SOL    HW135005   6.678   1.364   1.051 -0.2076  1.0238 -1.4354
 9895SOL    HW235006   6.584   1.418   1.157  0.8139 -0.9047  0.5162
 9896SOL     OW35007   2.413   5.691  10.389  0.3290  0.0589 -0.7752
 9896SOL    HW135008   2.449   5.604  10.371  0.1038 -0.2957  0.4109
 9896SOL    HW235009   2.323   5.687  10.356  0.4144 -0.0638 -0.9907
 9897SOL     OW35010   9.972   8.146   1.614 -0.2194 -0.0198  0.0474
 9897SOL    HW135011  10.052   8.199   1.625  0.9389 -1.8027  0.5194
 9897SOL    HW235012   9.937   8.176   1.530  0.8472  0.9170 -0.1024
 9898SOL     OW35013   1.661   6.500   6.968 -0.2034 -0.4464 -0.3362
 9898SOL    HW135014   1.690   6.493   6.877  0.7727  0.3356 -0.0948
 9898SOL    HW235015   1.714   6.436   7.016  0.1300 -0.0032 -0.1176
 9899SOL     OW35016  11.122   1.580   7.166 -0.5534 -0.2215  0.4522
 9899SOL    HW135017  11.113   1.662   7.118  0.4856  0.0031  0.6218
 9899SOL    HW235018  11.183   1.600   7.237 -0.7207 -0.9960  0.8320
 9900SOL     OW35019   6.616   2.657   2.140  0.2956  0.2933 -0.2357
 9900SOL    HW135020   6.544   2.646   2.201  2.0209  1.8397  2.3015
 9900SOL    HW235021   6.695   2.646   2.194  1.9716 -0.2895 -2.6387
 9901SOL     OW35022   9.842   0.184   5.500 -0.1125 -0.1763  0.3759
 9901SOL    HW135023   9.930   0.220   5.491 -1.5004  3.7325  0.7596
 9901SOL    HW235024   9.821   0.194   5.593 -0.7344 -1.9121  0.4736
 9902SOL     OW35025   8.371   4.853   3.105 -0.3671  0.0629 -0.2041
 9902SOL    HW135026   8.458   4.814   3.116 -0.2370  0.5673  0.7435
 9902SOL    HW235027   8.314   4.780   3.083  0.2789 -0.2888 -0.7569
 9903SOL     OW35028   5.443  10.891   8.632  0.1304 -0.1775 -0.0749
 9903SOL    HW135029   5.392  10.874   8.712 -0.6355 -0.3553 -0.5925
 9903SOL    HW235030   5.478  10.979   8.645 -0.6375  0.1104  0.1226
 9904SOL     OW35031   3.083   6.525   1.022  0.2564 -0.4658 -0.0539
 9904SOL    HW135032   2.993   6.545   0.995 -0.8285 -1.9660  2.1222
 9904SOL    HW235033   3.120   6.475   0.949 -0.7951 -0.1307 -0.8340
 9905SOL     OW35034   9.016   2.705   5.964 -0.4199  0.2888  0.2892
 9905SOL    HW135035   9.062   2.622   5.971 -1.0201  0.0663  1.8760
 9905SOL    HW235036   9.081   2.771   5.990  0.3718  0.4870 -1.9192
 9906SOL     OW35037   6.901  10.995   6.177  0.2581 -0.5076  0.0207
 9906SOL    HW135038   6.901  11.033   6.265 -1.5869 -0.5389  0.0625
 9906SOL    HW235039   6.918  11.070   6.120 -1.2166  0.0393  0.2523
 9907SOL     OW35040   9.755   1.010   6.906  0.7855 -0.5935 -0.4465
 9907SOL    HW135041   9.688   1.078   6.901  2.4593  1.1465 -0.3971
 9907SOL    HW235042   9.781   1.009   6.998  0.1664 -1.9746 -0.2603
 9908SOL     OW35043   8.243   3.530   9.002 -0.4402  0.1633 -0.3650
 9908SOL    HW135044   8.250   3.541   9.097  0.8912  3.6725 -0.7350
 9908SOL    HW235045   8.177   3.461   8.991 -0.4757 -0.5330  3.0538
 9909SOL     OW35046  10.705   7.022   1.133 -0.3351 -0.0682  0.3956
 9909SOL    HW135047  10.759   7.080   1.079 -0.3099 -0.7641 -0.3460
 9909SOL    HW235048  10.665   6.962   1.070 -1.7955  0.2834  0.9487
 9910SOL     OW35049   6.391   2.409  10.516  0.1161 -0.3890 -0.6163
 9910SOL    HW135050   6.393   2.384  10.424  1.6238  1.6925 -1.2242
 9910SOL    HW235051   6.382   2.505  10.514  0.8685 -0.2334  1.3754
 9911SOL     OW35052   2.822   2.770   5.181  0.1037  0.2372 -0.4341
 9911SOL    HW135053   2.819   2.816   5.098  0.7892 -0.9915 -1.1640
 9911SOL    HW235054   2.752   2.705   5.175 -2.2383  2.3627  1.3915
 9912SOL     OW35055   0.627  11.374   2.327  0.0273  0.0667  0.0175
 9912SOL    HW135056   0.568  11.441   2.293 -0.5769  0.0594  1.0009
 9912SOL    HW235057   0.574  11.294   2.329  0.3968 -0.1819 -0.0893
 9913SOL     OW35058   3.054  10.565   7.358  0.2242  0.4341 -0.2237
 9913SOL    HW135059   3.078  10.486   7.406  0.1163 -0.6955 -1.9758
 9913SOL    HW235060   3.082  10.549   7.268 -3.0342  0.8357 -1.4410
 9914SOL     OW35061  11.629   1.018   9.407 -0.0875 -0.0542  0.5065
 9914SOL    HW135062  11.551   1.075   9.413 -0.3232 -0.2344 -0.7549
 9914SOL    HW235063  11.703   1.079   9.406 -0.1728  0.1166  1.8128
 9915SOL     OW35064   2.857   5.198   3.148 -0.2955  0.2470  0.5019
 9915SOL    HW135065   2.859   5.103   3.151  0.4443  0.2735  1.0338
 9915SOL    HW235066   2.822   5.218   3.061 -2.9317 -0.4940  1.2926
 9916SOL     OW35067   3.419   4.748   6.438 -0.0855 -0.0344 -0.4748
 9916SOL    HW135068   3.480   4.729   6.510 -0.8360 -0.6154  0.0124
 9916SOL    HW235069   3.412   4.666   6.389 -2.1543 -0.6739  0.7572
 9917SOL     OW35070   8.792   2.868   8.659  0.3189 -0.4585 -0.4192
 9917SOL    HW135071   8.809   2.842   8.750  0.8565 -0.9879 -0.6646
 9917SOL    HW235072   8.872   2.912   8.631 -0.6598  1.8054  0.0715
 9918SOL     OW35073   3.034   9.755   3.967 -0.0061 -0.4736 -0.7266
 9918SOL    HW135074   3.117   9.731   3.926 -0.8476  0.0419 -2.8941
 9918SOL    HW235075   3.050   9.841   4.005  0.7400 -0.8754 -0.0876
 9919SOL     OW35076   1.851   5.553   2.979 -0.4431 -0.9260 -0.1855
 9919SOL    HW135077   1.766   5.511   2.996 -0.8009 -0.4222 -0.6981
 9919SOL    HW235078   1.889   5.500   2.909 -1.0153 -0.2523 -1.0247
 9920SOL     OW35079   1.619   4.617   7.958  0.0355 -0.2463 -0.0861
 9920SOL    HW135080   1.647   4.585   8.044 -0.0617  0.8720  0.3760
 9920SOL    HW235081   1.671   4.566   7.896 -0.2683 -1.4442  0.6082
 9921SOL     OW35082   8.461   6.426   3.045 -0.5885  0.1453 -0.5058
 9921SOL    HW135083   8.396   6.465   3.104  0.3881  1.4959 -0.2876
 9921SOL    HW235084   8.514   6.499   3.016 -0.0447 -0.7395 -1.8218
 9922SOL     OW35085  10.972   8.470   8.729 -0.3310 -0.0003 -0.5884
 9922SOL    HW135086  10.904   8.529   8.697 -0.2579 -0.3189 -1.3703
 9922SOL    HW235087  10.934   8.382   8.719 -0.5795 -0.0834  0.8946
 9923SOL     OW35088   5.261  11.606  10.288  0.4787  0.0597 -0.3671
 9923SOL    HW135089   5.354  11.627  10.282  0.0297  1.9583 -1.4846
 9923SOL    HW235090   5.251  11.526  10.236  1.5886 -0.6661  0.4843
 9924SOL     OW35091   4.123   8.062   7.455 -0.5814 -0.3252  0.0482
 9924SOL    HW135092   4.101   8.142   7.408 -3.2801 -1.3002 -0.5342
 9924SOL    HW235093   4.153   8.092   7.541  1.8879  1.3723 -1.2894
 9925SOL     OW35094   0.928   6.023   6.001  0.2277 -0.4505 -0.3884
 9925SOL    HW135095   0.983   5.957   6.041  1.4768  0.8969  0.1928
 9925SOL    HW235096   0.876   6.058   6.073  0.3924 -0.0192 -0.4754
 9926SOL     OW35097  10.019   5.516   5.727  0.2198 -0.2154  0.3020
 9926SOL    HW135098   9.963   5.492   5.801  1.6311 -0.2502  1.3933
 9926SOL    HW235099  10.098   5.553   5.767  1.4668 -1.1999 -1.1359
 9927SOL     OW35100   8.929  11.506   5.375  0.1881 -0.3889  0.1380
 9927SOL    HW135101   9.022  11.518   5.357  0.1846 -1.4394 -0.7039
 9927SOL    HW235102   8.897  11.594   5.396  1.1340  0.1898 -0.7258
 9928SOL     OW35103   0.744   1.308   0.758 -0.0799 -0.1906  0.6841
 9928SOL    HW135104   0.747   1.283   0.665  0.1904  0.0021  0.6402
 9928SOL    HW235105   0.810   1.253   0.800 -0.0134 -0.0878  0.7156
 9929SOL     OW35106   9.066   4.880   8.636 -0.6406 -0.2145  0.0845
 9929SOL    HW135107   8.973   4.894   8.618 -0.9050 -0.1408  1.3821
 9929SOL    HW235108   9.084   4.937   8.711  0.5034 -0.0789 -0.2871
 9930SOL     OW35109   1.090   5.368   6.952  0.5980 -0.2132  0.6083
 9930SOL    HW135110   1.053   5.381   7.039 -0.7551 -0.2497  0.0660
 9930SOL    HW235111   1.026   5.407   6.893  0.2642 -2.3587 -0.5521
 9931SOL     OW35112   8.840   2.416   2.390 -0.4309 -0.8242  0.0918
 9931SOL    HW135113   8.784   2.464   2.328  3.0556  0.6040 -2.2468
 9931SOL    HW235114   8.863   2.336   2.345 -0.6577 -1.4903  1.1148
 9932SOL     OW35115   8.365   0.792   3.657  0.5757 -0.2465  0.3147
 9932SOL    HW135116   8.364   0.697   3.661 -1.4747 -0.3441 -0.8534
 9932SOL    HW235117   8.381   0.820   3.747 -1.0890 -1.7382  1.1359
 9933SOL     OW35118   2.002  10.546   6.638  0.6840  0.2492 -0.0743
 9933SOL    HW135119   1.910  10.525   6.653  0.8390  0.1195  0.7706
 9933SOL    HW235120   2.047  10.510   6.714  1.2485  1.5734  0.2496
 9934SOL     OW35121   2.925   8.118   3.866 -0.1664 -0.0629 -0.7953
 9934SOL    HW135122   2.938   8.073   3.950  0.6388  1.1633 -0.2374
 9934SOL    HW235123   3.012   8.122   3.827 -0.5262 -0.5810 -1.6924
 9935SOL     OW35124   7.346   3.838   1.460 -0.5019 -0.3431 -0.2352
 9935SOL    HW135125   7.302   3.869   1.540  0.1183  0.4074 -0.1731
 9935SOL    HW235126   7.437   3.824   1.487 -0.4564 -0.8124 -0.6330
 9936SOL     OW35127   0.950   5.474   8.859  0.5750  0.5273  0.0008
 9936SOL    HW135128   0.887   5.516   8.917  0.4222  1.2661 -0.6863
 9936SOL    HW235129   0.941   5.380   8.877 -0.8585  0.6118 -0.2155
 9937SOL     OW35130  11.528   9.125   9.170  0.0892 -0.0369 -0.4043
 9937SOL    HW135131  11.552   9.032   9.174  0.1848  0.0229  0.7412
 9937SOL    HW235132  11.463   9.136   9.240 -0.5717  0.5806 -1.0998
 9938SOL     OW35133  10.142   2.487   9.027  0.6181  0.0015  0.0537
 9938SOL    HW135134  10.161   2.418   9.090 -1.3606 -1.4596 -0.8400
 9938SOL    HW235135  10.220   2.490   8.972  1.4860 -0.2071  1.2255
 9939SOL     OW35136   9.611   2.424   7.225 -0.8582 -0.1136  0.0925
 9939SOL    HW135137   9.692   2.405   7.178 -1.5932 -0.9032 -0.8823
 9939SOL    HW235138   9.635   2.493   7.287  0.2112  0.6768 -1.1702
 9940SOL     OW35139  10.434   9.522   7.944 -0.5355  0.3764  0.2345
 9940SOL    HW135140  10.398   9.534   8.032 -2.5673  0.5010 -0.5576
 9940SOL    HW235141  10.359   9.497   7.891  1.0664 -2.2902 -0.9957
 9941SOL     OW35142   2.649   3.113   8.710 -0.1963 -0.2165 -0.3886
 9941SOL    HW135143   2.580   3.091   8.647 -1.2156 -2.3300  1.3415
 9941SOL    HW235144   2.618   3.077   8.793  3.1041 -1.5578  0.4196
 9942SOL     OW35145  11.419   0.332   9.722  0.1780  0.4750  0.1372
 9942SOL    HW135146  11.418   0.271   9.796  0.3707 -0.4552 -0.6141
 9942SOL    HW235147  11.389   0.280   9.647  1.0940  1.0816 -0.6796
 9943SOL     OW35148   7.413   1.601   1.923 -0.0244  0.5078 -0.1958
 9943SOL    HW135149   7.320   1.578   1.929 -0.1227  1.2027  1.3400
 9943SOL    HW235150   7.456   1.550   1.991  1.0857 -1.2687 -2.1062
 9944SOL     OW35151   5.026   0.567  10.513  0.0609  0.4141 -0.2494
 9944SOL    HW135152   4.968   0.594  10.442  0.3672  1.6245 -0.0745
 9944SOL    HW235153   5.114   0.578  10.476  0.1960 -1.0526 -0.3938
 9945SOL     OW35154  11.246   4.727   0.212 -0.8286 -0.5802 -0.8574
 9945SOL    HW135155  11.335   4.704   0.239 -0.4841  1.4552 -0.0593
 9945SOL    HW235156  11.256   4.812   0.168 -2.4387  0.0119 -0.1623
 9946SOL     OW35157   3.823   6.743   7.130  0.3686  0.1577  0.4379
 9946SOL    HW135158   3.837   6.656   7.169  0.1340 -0.3144 -0.5042
 9946SOL    HW235159   3.911   6.779   7.120  0.7582 -1.2604 -2.0146
 9947SOL     OW35160   0.565   5.232  11.562  0.2732  0.1601 -0.5293
 9947SOL    HW135161   0.563   5.323  11.534  0.7615  0.6888  1.0730
 9947SOL    HW235162   0.552   5.182  11.481 -1.0561  1.6480 -1.2825
 9948SOL     OW35163   9.309   9.510   2.701  0.3303 -0.0127  0.3994
 9948SOL    HW135164   9.331   9.599   2.675  0.4721 -0.1439  0.0627
 9948SOL    HW235165   9.381   9.457   2.667  0.6494 -0.1585  1.2739
 9949SOL     OW35166  10.932   8.010  10.324 -0.2175 -0.5024  0.0329
 9949SOL    HW135167  10.993   7.984  10.393 -1.5226 -0.8659  1.0995
 9949SOL    HW235168  10.846   8.003  10.365 -0.8760  2.1627 -0.7177
 9950SOL     OW35169   9.083   7.377   1.134  0.1438  0.2420 -0.1062
 9950SOL    HW135170   8.991   7.394   1.151  0.3648  1.6425 -0.2447
 9950SOL    HW235171   9.087   7.357   1.040 -0.0588 -0.2171 -0.0223
 9951SOL     OW35172   9.477  11.186   0.601  0.0677 -0.1311 -0.1252
 9951SOL    HW135173   9.510  11.260   0.652  1.1653  0.1463 -1.1968
 9951SOL    HW235174   9.482  11.216   0.510 -0.7793 -1.0277 -0.4753
 9952SOL     OW35175  10.277  10.228   1.468  0.2426  0.0123 -0.4657
 9952SOL    HW135176  10.202  10.254   1.415 -0.3447 -1.5070 -0.4502
 9952SOL    HW235177  10.253  10.254   1.557  0.7740  1.6189 -0.7604
 9953SOL     OW35178   0.863   1.987   9.978  0.3553  0.0428  0.6235
 9953SOL    HW135179   0.888   1.990   9.885  2.4699  1.4024  1.1804
 9953SOL    HW235180   0.920   1.920  10.016  0.3528  0.3587  1.1844
 9954SOL     OW35181   9.400   7.218   1.401 -0.0584  0.0970 -0.5577
 9954SOL    HW135182   9.422   7.181   1.315 -0.3366 -2.0924  0.2526
 9954SOL    HW235183   9.332   7.283   1.382 -0.6498 -0.8665 -1.9300
 9955SOL     OW35184   6.441  11.616  10.911 -0.0483  0.0409  0.3446
 9955SOL    HW135185   6.397  11.538  10.878 -0.7470  0.0249  1.2775
 9955SOL    HW235186   6.381  11.688  10.892 -1.4410 -0.2071  3.2639
 9956SOL     OW35187  10.674   2.214   9.426  0.1738 -0.0771 -0.0121
 9956SOL    HW135188  10.662   2.244   9.336  0.5279 -0.2408 -0.1178
 9956SOL    HW235189  10.749   2.154   9.422  1.3651  1.2922  0.6945
 9957SOL     OW35190   6.996   1.925   7.503 -0.6766  0.0108  0.3982
 9957SOL    HW135191   7.047   1.849   7.474 -0.4568  0.4416 -0.3521
 9957SOL    HW235192   6.965   1.966   7.423 -2.4000 -0.3528  0.8466
 9958SOL     OW35193  11.547   9.114   0.760 -0.0087  0.8649 -0.0326
 9958SOL    HW135194  11.510   9.192   0.718 -2.6231 -0.5192 -0.5192
 9958SOL    HW235195  11.513   9.041   0.708  3.3210 -0.6447 -0.3414
 9959SOL     OW35196   6.833   2.621   1.197  0.0374 -0.2378 -0.2305
 9959SOL    HW135197   6.814   2.649   1.287 -0.8238  1.0840 -0.7856
 9959SOL    HW235198   6.916   2.664   1.176  0.9071 -1.5912  0.3486
 9960SOL     OW35199   6.280   2.329   2.908  0.1322  0.3578 -0.2282
 9960SOL    HW135200   6.237   2.414   2.899 -0.9695 -0.1672 -0.1376
 9960SOL    HW235201   6.354   2.345   2.967 -2.9707  0.3192  4.1814
 9961SOL     OW35202   1.863   8.055   5.734  0.2707  0.6010  0.0994
 9961SOL    HW135203   1.770   8.034   5.741  0.1309  0.6484 -1.2290
 9961SOL    HW235204   1.893   8.065   5.824 -0.7249 -0.6215  0.5881
 9962SOL     OW35205   0.740  10.304   3.462  0.0466  0.0269  0.2428
 9962SOL    HW135206   0.663  10.322   3.408  1.4767  2.4558 -1.2206
 9962SOL    HW235207   0.763  10.213   3.442 -0.4630  0.3304 -2.0114
 9963SOL     OW35208   0.434   9.561   5.868  0.9374  0.4940 -0.1439
 9963SOL    HW135209   0.424   9.511   5.788  0.2451  0.4566 -0.0418
 9963SOL    HW235210   0.356   9.541   5.919  0.2653  2.2310 -0.4102
 9964SOL     OW35211   0.542  10.688   2.792  0.3891  0.7200  0.2464
 9964SOL    HW135212   0.551  10.648   2.879 -1.1806 -1.0281 -0.3366
 9964SOL    HW235213   0.546  10.615   2.731 -1.0639  1.5969 -0.9817
 9965SOL     OW35214   5.328   1.593   9.294  0.1875 -0.0689  0.4879
 9965SOL    HW135215   5.382   1.646   9.353 -1.7483  0.2933  2.0562
 9965SOL    HW235216   5.360   1.504   9.306 -1.3785 -0.3325  3.7317
 9966SOL     OW35217   2.754   3.028   1.470 -0.0161 -0.1979 -0.5402
 9966SOL    HW135218   2.695   2.998   1.401 -2.0395 -0.9570  1.3677
 9966SOL    HW235219   2.709   3.104   1.508  0.9240  0.0504  0.0892
 9967SOL     OW35220   7.210   3.237   3.754  0.1958 -0.5850  0.6980
 9967SOL    HW135221   7.289   3.184   3.768  1.2038  0.4749 -0.7433
 9967SOL    HW235222   7.167   3.197   3.679  0.1920 -0.2356  0.5116
 9968SOL     OW35223   6.900   4.422   4.494 -0.5285 -0.0716  0.0288
 9968SOL    HW135224   6.985   4.410   4.450  0.6251  1.1045  1.8049
 9968SOL    HW235225   6.840   4.447   4.423  0.8210 -0.0115 -1.1480
 9969SOL     OW35226  11.719   4.552   2.963 -0.3289 -0.0365  0.0497
 9969SOL    HW135227  11.693   4.513   2.879  0.3983 -1.2817  0.3647
 9969SOL    HW235228  11.717   4.646   2.947 -0.0357 -0.2440 -1.4365
 9970SOL     OW35229  11.011  11.311   4.156  0.2897 -0.5448  0.2259
 9970SOL    HW135230  11.076  11.268   4.210  0.5089 -2.0160 -1.1308
 9970SOL    HW235231  10.952  11.354   4.218  1.9504 -0.0024  1.5103
 9971SOL     OW35232  11.311   7.033   1.880 -0.7319 -0.7982 -0.5105
 9971SOL    HW135233  11.321   7.127   1.897  1.0658 -0.9114 -0.8208
 9971SOL    HW235234  11.299   6.995   1.967  2.3091 -0.6733  0.0503
 9972SOL     OW35235  11.330   3.295   0.175  0.4252  0.2151 -0.3056
 9972SOL    HW135236  11.247   3.281   0.222 -0.1403 -0.7414 -1.5477
 9972SOL    HW235237  11.358   3.382   0.203  0.5358 -0.5976  2.4352
 9973SOL     OW35238   0.024   6.262   7.211  0.4548  0.1092  0.8049
 9973SOL    HW135239   0.071   6.186   7.177  1.3422  0.6015  0.9094
 9973SOL    HW235240   0.004   6.314   7.133  0.2013 -0.0199  0.7789
 9974SOL     OW35241   8.869   3.269   1.808  0.4626 -0.6678 -0.3501
 9974SOL    HW135242   8.919   3.196   1.844 -1.1918 -1.5937  0.1704
 9974SOL    HW235243   8.840   3.319   1.885 -1.7250 -1.7390 -0.4196
 9975SOL     OW35244   0.878   6.057   2.436  0.2935 -0.3476 -0.4769
 9975SOL    HW135245   0.961   6.104   2.437  0.7094 -1.0721  0.6234
 9975SOL    HW235246   0.819   6.113   2.385  0.7309  1.4385  0.8858
 9976SOL     OW35247   7.238   9.865   9.748 -0.0184  0.2401  0.0236
 9976SOL    HW135248   7.317   9.869   9.802 -0.9203 -0.7839  1.5143
 9976SOL    HW235249   7.261   9.910   9.667  2.3160 -0.6519  0.1214
 9977SOL     OW35250   6.775   1.140   7.117  0.7052  0.0599 -0.3326
 9977SOL    HW135251   6.796   1.221   7.164 -0.6161  0.6876 -0.7973
 9977SOL    HW235252   6.847   1.130   7.054  1.8539 -0.1464  0.9485
 9978SOL     OW35253   8.123   8.067  11.809 -0.1224 -0.3281  0.0447
 9978SOL    HW135254   8.206   8.113  11.823 -0.6939  0.7095  0.0777
 9978SOL    HW235255   8.146   7.993  11.751  0.9562 -0.5130  0.6883
 9979SOL     OW35256   6.151   4.273   8.442 -0.2659 -0.0186  0.2517
 9979SOL    HW135257   6.228   4.298   8.392 -0.6839 -2.3155 -1.7741
 9979SOL    HW235258   6.152   4.177   8.441 -2.4057 -0.1196  1.3613
 9980SOL     OW35259   0.671   2.076   7.563  0.0114  0.2262 -0.5222
 9980SOL    HW135260   0.655   1.982   7.571  0.0421  0.3163  0.7008
 9980SOL    HW235261   0.609   2.116   7.624 -0.5385  1.0646 -1.5811
 9981SOL     OW35262   3.114   4.934   4.819 -0.4095  0.0747 -0.7013
 9981SOL    HW135263   3.129   4.861   4.759  0.1544  0.5141 -1.0934
 9981SOL    HW235264   3.073   4.893   4.896  0.1109 -0.6870 -0.8203
 9982SOL     OW35265   3.940   3.098   6.557 -0.4473 -1.0168  0.1868
 9982SOL    HW135266   3.985   3.064   6.479 -2.1489  0.4654 -1.5409
 9982SOL    HW235267   3.857   3.050   6.560 -1.7990  1.0964 -0.8709
 9983SOL     OW35268   7.635   5.360   7.376 -0.1827 -0.6952  0.1807
 9983SOL    HW135269   7.678   5.363   7.461  2.3012  1.4735 -1.0363
 9983SOL    HW235270   7.542   5.375   7.396  0.4172  0.4706  2.4302
 9984SOL     OW35271   9.999   8.136   0.754  1.0801 -0.0725 -0.3716
 9984SOL    HW135272  10.082   8.157   0.712  1.4538  0.1247  0.4416
 9984SOL    HW235273  10.018   8.142   0.848  0.5859 -1.6527 -0.1374
 9985SOL     OW35274   1.381   0.735   5.103  0.0636  0.1631 -0.0567
 9985SOL    HW135275   1.323   0.675   5.149  0.4963  0.5310  1.0058
 9985SOL    HW235276   1.413   0.685   5.028 -1.3823 -0.1360 -0.5056
 9986SOL     OW35277   5.205   9.449   3.001  0.2468  0.4520 -0.0763
 9986SOL    HW135278   5.140   9.476   3.067 -0.2739 -0.2214 -0.2899
 9986SOL    HW235279   5.185   9.502   2.924  0.6466  1.0092  0.1988
 9987SOL     OW35280   4.744   9.048   4.034 -0.7588 -0.5541  0.0361
 9987SOL    HW135281   4.671   8.992   4.060  0.1710 -1.4933  0.6989
 9987SOL    HW235282   4.704   9.132   4.013 -2.1264 -1.3074 -0.4683
 9988SOL     OW35283   6.240   7.458   6.923  0.3596  0.2443 -0.1391
 9988SOL    HW135284   6.234   7.366   6.949  1.3820 -0.2409 -1.5199
 9988SOL    HW235285   6.163   7.499   6.964 -2.4923 -2.0169 -2.6864
 9989SOL     OW35286   0.842   1.561   5.298 -0.3464 -0.3970  0.7492
 9989SOL    HW135287   0.916   1.514   5.337 -1.4455 -2.1937  0.7530
 9989SOL    HW235288   0.881   1.611   5.226  1.4666  1.7156  2.9813
 9990SOL     OW35289   2.706   2.316  11.373 -0.6720  0.3959 -0.2085
 9990SOL    HW135290   2.771   2.347  11.310 -1.3046 -1.5121 -1.9455
 9990SOL    HW235291   2.666   2.395  11.408  0.5933  1.5559 -1.2579
 9991SOL     OW35292   2.521   8.746   9.292 -0.4966  0.2080  0.5317
 9991SOL    HW135293   2.551   8.656   9.307 -0.1016  0.3206  0.4330
 9991SOL    HW235294   2.559   8.771   9.207 -1.4601  0.1087  0.0579
 9992SOL     OW35295   9.499   4.587   0.327  0.0875 -0.4341 -0.2240
 9992SOL    HW135296   9.574   4.645   0.346 -1.9660  1.4951  2.9835
 9992SOL    HW235297   9.520   4.506   0.374  0.4389 -0.1299  0.1603
 9993SOL     OW35298   3.789   5.408   4.308  0.3028  0.6731  0.2129
 9993SOL    HW135299   3.701   5.443   4.293 -0.3741 -0.9089  0.3098
 9993SOL    HW235300   3.808   5.356   4.230  1.6841  1.9648 -0.3614
 9994SOL     OW35301   5.586   2.293   9.989 -0.1646 -0.6091  0.0171
 9994SOL    HW135302   5.518   2.325  10.048 -1.4118 -2.1763 -0.4980
 9994SOL    HW235303   5.609   2.206  10.023  1.2187 -0.3374 -0.1359
 9995SOL     OW35304   5.318   7.384   6.465 -0.4925  0.4323  0.2958
 9995SOL    HW135305   5.404   7.378   6.425 -0.8806  3.4154 -1.2130
 9995SOL    HW235306   5.256   7.370   6.393 -1.2552  0.5560  0.9062
 9996SOL     OW35307   9.504   4.339   3.508  0.6584 -0.2868  0.0496
 9996SOL    HW135308   9.423   4.295   3.532  0.7255 -1.3520 -1.4943
 9996SOL    HW235309   9.572   4.271   3.519  1.1343  0.1724 -0.0155
 9997SOL     OW35310   9.893   5.097  11.674  0.1114  0.2772 -0.0165
 9997SOL    HW135311   9.848   5.136  11.750 -0.4658  2.1965 -1.2687
 9997SOL    HW235312   9.929   5.015  11.707 -1.2776  0.3991  1.9805
 9998SOL     OW35313   6.034   0.751   1.769 -0.3788 -0.2549  0.2607
 9998SOL    HW135314   6.125   0.722   1.766 -0.6645 -1.2088 -2.7011
 9998SOL    HW235315   6.010   0.743   1.861  1.4691 -3.5536  0.6440
 9999SOL     OW35316   2.659   1.934   3.387 -0.2985 -0.8105 -0.0182
 9999SOL    HW135317   2.707   1.868   3.438 -0.0994  0.2459  1.2159
 9999SOL    HW235318   2.721   2.005   3.375 -0.8221 -0.4185 -0.4571
10000SOL     OW35319  10.639  10.917   0.495  0.8374  0.3979 -0.1344
10000SOL    HW135320  10.635  11.008   0.525  3.0215 -0.0100  1.6768
10000SOL    HW235321  10.721  10.912   0.445  1.0084 -0.6600  0.2144
10001SOL     OW35322   5.314   9.857  10.458 -0.5638  0.2660 -0.1882
10001SOL    HW135323   5.270   9.785  10.503 -1.0314 -0.0205 -1.0803
10001SOL    HW235324   5.251   9.887  10.392 -0.1521  1.1128 -0.2117
10002SOL     OW35325   7.193   2.120   7.464  0.4204 -0.0720 -0.3078
10002SOL    HW135326   7.132   2.047   7.467  0.7281 -0.3994 -1.6356
10002SOL    HW235327   7.201   2.142   7.371  1.5396  0.6222 -0.0735
10003SOL     OW35328   2.536   7.437   7.716  0.4476  0.2041  0.2897
10003SOL    HW135329   2.461   7.385   7.687  0.5420  0.5601 -0.6349
10003SOL    HW235330   2.561   7.398   7.800  0.4739 -1.1924 -0.3378
10004SOL     OW35331   6.229   9.831   5.385  0.0615 -0.3417 -0.1678
10004SOL    HW135332   6.243   9.789   5.300 -0.5269 -0.4378 -0.2158
10004SOL    HW235333   6.265   9.769   5.449 -0.4844 -0.7619 -0.2650
10005SOL     OW35334  11.553   9.185  10.354  0.2577  0.5353  0.6649
10005SOL    HW135335  11.639   9.212  10.322  1.1665 -0.4411  2.1728
10005SOL    HW235336  11.497   9.261  10.337  1.4312  1.2523 -0.1932
10006SOL     OW35337   4.883  11.759   6.593 -0.1051  0.0312 -0.5139
10006SOL    HW135338   4.902  11.819   6.521 -0.2810  1.1244  0.3301
10006SOL    HW235339   4.966  11.749   6.640  0.2865 -1.5405 -1.4584
10007SOL     OW35340   4.843  11.696   3.042 -0.6287  0.0762  0.3126
10007SOL    HW135341   4.799  11.652   3.114 -2.2910  1.9720  0.5326
10007SOL    HW235342   4.936  11.688   3.063 -0.9394 -1.6000  1.3039
10008SOL     OW35343   2.434   8.285   0.897 -0.0293 -0.0053  0.1187
10008SOL    HW135344   2.394   8.365   0.862 -0.7654 -1.5410 -2.8471
10008SOL    HW235345   2.528   8.303   0.895 -0.2179  1.3147  1.0747
10009SOL     OW35346   4.693   5.317  11.694  0.4781 -0.2715 -0.2810
10009SOL    HW135347   4.692   5.392  11.753 -0.1825  0.2408 -0.9195
10009SOL    HW235348   4.755   5.256  11.733  0.1345  0.0975  0.8857
10010SOL     OW35349   8.684   2.077   8.197 -0.6222  0.0175  0.5395
10010SOL    HW135350   8.744   2.038   8.134  0.1488  0.3245  1.0629
10010SOL    HW235351   8.691   2.022   8.275 -1.8878 -0.6118  0.2292
10011SOL     OW35352   8.554   1.664   1.902 -0.3778 -0.3036 -0.0736
10011SOL    HW135353   8.488   1.719   1.859 -0.3656 -0.0472  0.2309
10011SOL    HW235354   8.518   1.575   1.898 -0.6228 -0.2022 -0.1294
10012SOL     OW35355   5.823   4.164   3.344 -0.0707 -0.6111 -0.5661
10012SOL    HW135356   5.898   4.112   3.371  0.5602  0.3479 -0.4087
10012SOL    HW235357   5.747   4.110   3.364  0.5775 -1.6234 -0.7787
10013SOL     OW35358   7.704   1.842   3.761  0.2586  0.3412  0.4260
10013SOL    HW135359   7.640   1.846   3.690 -0.0569 -1.1340  0.6044
10013SOL    HW235360   7.786   1.868   3.719  0.0475 -0.3368 -0.4557
10014SOL     OW35361   0.554   6.886  11.088  0.2967  0.3977 -0.0827
10014SOL    HW135362   0.551   6.982  11.084  1.3183  0.4924  0.7566
10014SOL    HW235363   0.642   6.867  11.122 -0.0002 -0.8313  0.0319
10015SOL     OW35364   3.410   2.487   3.527 -0.0106  0.2579 -0.5276
10015SOL    HW135365   3.402   2.510   3.619  0.8016  0.0459 -0.3959
10015SOL    HW235366   3.495   2.444   3.520  0.8477  1.9949 -1.7237
10016SOL     OW35367   5.848   6.344   2.473 -0.1920 -0.0402  0.1017
10016SOL    HW135368   5.759   6.331   2.506  0.0194 -1.5278  0.1652
10016SOL    HW235369   5.890   6.400   2.538 -0.0243 -2.2567  2.0510
10017SOL     OW35370   1.355   5.425  11.410 -0.3286 -0.2160  0.3557
10017SOL    HW135371   1.273   5.407  11.365 -1.2968  1.0321  1.5593
10017SOL    HW235372   1.334   5.494  11.473  1.6706  0.2434  0.5965
10018SOL     OW35373   5.519   6.304   6.955 -0.2526  0.0746 -0.2466
10018SOL    HW135374   5.552   6.215   6.948  3.2481  1.1320  0.6911
10018SOL    HW235375   5.538   6.331   7.045 -2.4651  1.4041 -0.0809
10019SOL     OW35376   6.010   1.450   1.784 -0.1347 -0.0080 -0.2783
10019SOL    HW135377   6.000   1.540   1.752 -0.0323  0.8066  1.7818
10019SOL    HW235378   5.930   1.433   1.833 -0.1319 -1.0353 -0.6159
10020SOL     OW35379   9.011   4.166   4.062 -0.0953 -0.7536 -0.3779
10020SOL    HW135380   9.035   4.074   4.052  1.9003 -0.1710 -1.6207
10020SOL    HW235381   8.980   4.174   4.153  1.8180 -2.2187  0.4586
10021SOL     OW35382   8.374   9.492   1.500 -0.0589 -0.5343  0.2659
10021SOL    HW135383   8.300   9.449   1.541  0.9553 -0.9544  1.7364
10021SOL    HW235384   8.358   9.586   1.513 -1.5858 -0.4509 -1.7404
10022SOL     OW35385  10.097   8.191   3.114  0.1116 -0.1889  0.7400
10022SOL    HW135386  10.152   8.116   3.088 -2.7340 -2.0216 -0.4846
10022SOL    HW235387  10.053   8.217   3.033 -1.2286  0.8259  1.7488
10023SOL     OW35388   2.713   5.360   6.314  0.1095 -0.2441  0.1756
10023SOL    HW135389   2.701   5.266   6.306  0.9228 -0.2696 -1.0535
10023SOL    HW235390   2.674   5.396   6.235  2.7586  0.1260 -1.0679
10024SOL     OW35391  10.234   9.445   0.169 -0.1420 -0.2163  0.0339
10024SOL    HW135392  10.164   9.434   0.233  0.5874 -0.2144  0.8520
10024SOL    HW235393  10.275   9.358   0.165 -0.2943 -0.2618 -0.5673
10025SOL     OW35394  11.101  11.807   9.123 -0.1518  0.2976 -0.1499
10025SOL    HW135395  11.070  11.813   9.213 -0.0640 -0.0732 -0.0963
10025SOL    HW235396  11.021  11.809   9.070 -0.2782 -0.6542 -0.0109
10026SOL     OW35397   8.447  10.298   5.206 -0.6941  0.5965  0.2042
10026SOL    HW135398   8.488  10.212   5.198 -2.2953 -0.0724 -1.5667
10026SOL    HW235399   8.520  10.358   5.223  0.6020 -0.9303  0.2638
10027SOL     OW35400   2.195   8.857   4.059  0.1504  0.3375 -0.3462
10027SOL    HW135401   2.115   8.866   4.007  0.1824  2.4514 -0.1303
10027SOL    HW235402   2.188   8.926   4.126  0.5967 -1.6420  1.8551
10028SOL     OW35403   6.308   5.079   6.713 -0.7690  0.5336  0.1045
10028SOL    HW135404   6.239   5.123   6.762 -2.1490 -1.3206 -0.1120
10028SOL    HW235405   6.263   5.014   6.659  1.1359 -0.8602  0.0773
10029SOL     OW35406   0.781   4.681   6.409 -0.1204  0.1466 -0.5465
10029SOL    HW135407   0.716   4.735   6.365  0.8203  1.0661 -0.8391
10029SOL    HW235408   0.849   4.742   6.436  1.2078 -0.9298 -1.3100
10030SOL     OW35409   8.986  10.585   2.493  0.3231  0.4126 -0.1957
10030SOL    HW135410   8.945  10.591   2.580  1.3266  0.5436  0.2874
10030SOL    HW235411   8.915  10.560   2.435 -0.9288  2.6121  0.2546
10031SOL     OW35412   6.235  10.503   7.490  0.3233 -0.0434  0.2785
10031SOL    HW135413   6.255  10.420   7.532  1.9129 -0.5422 -1.3235
10031SOL    HW235414   6.252  10.488   7.397 -0.7600  1.6749 -0.2505
10032SOL     OW35415   5.236   7.370  11.385  0.0090  0.3315  0.3700
10032SOL    HW135416   5.146   7.365  11.415  0.5533 -0.4355  2.0103
10032SOL    HW235417   5.236   7.325  11.300 -1.2566  0.9632  0.0217
10033SOL     OW35418   1.870   9.673   0.310  1.2713  0.4387 -0.4506
10033SOL    HW135419   1.940   9.709   0.255 -0.0080  0.6378 -2.0160
10033SOL    HW235420   1.792   9.722   0.285  0.5292  0.2170  1.2557
10034SOL     OW35421   3.012   5.520  10.857 -0.4006  0.0244 -0.4879
10034SOL    HW135422   2.984   5.610  10.842 -0.5212 -0.1056 -1.0681
10034SOL    HW235423   2.995   5.475  10.774  2.5099  0.1751 -1.2916
10035SOL     OW35424   5.886   2.941  11.698 -0.3727  0.4241  0.1408
10035SOL    HW135425   5.951   2.980  11.756  0.7311 -0.7810 -0.2262
10035SOL    HW235426   5.869   2.855  11.735 -0.0850 -0.1368 -0.9624
10036SOL     OW35427   0.648   9.492   1.893  0.2528 -0.7247  0.1308
10036SOL    HW135428   0.685   9.557   1.953  0.5546 -2.0713  1.4588
10036SOL    HW235429   0.591   9.437   1.949 -1.7793 -0.2734 -1.3722
10037SOL     OW35430  11.627   3.066   1.765 -0.2837 -0.8202  0.0526
10037SOL    HW135431  11.564   3.013   1.813 -1.8218 -0.0126 -0.9874
10037SOL    HW235432  11.601   3.058   1.673  1.1412 -0.4677 -0.4106
10038SOL     OW35433   3.843   1.553   6.873 -0.1598  0.5494 -0.7192
10038SOL    HW135434   3.904   1.490   6.913 -0.0348 -0.0043 -1.7622
10038SOL    HW235435   3.879   1.639   6.896  0.6387  0.2300 -0.7449
10039SOL     OW35436   2.330   6.105   6.629 -0.1583  0.1478  0.1881
10039SOL    HW135437   2.327   6.194   6.593  1.6789 -0.0867 -0.6749
10039SOL    HW235438   2.345   6.049   6.553 -1.4092 -0.9360  0.7106
10040SOL     OW35439  10.054   3.896  10.663  0.1508 -0.4106  0.4689
10040SOL    HW135440  10.010   3.844  10.595 -2.5687  0.0589  1.7388
10040SOL    HW235441  10.113   3.953  10.615 -1.1319 -0.6065 -1.4549
10041SOL     OW35442   8.308   0.487   8.136  0.0875  0.4282  0.3741
10041SOL    HW135443   8.323   0.413   8.194  0.2847  1.0552  1.1468
10041SOL    HW235444   8.371   0.476   8.065 -1.7076 -1.6121 -1.0141
10042SOL     OW35445   3.981   4.541  10.550 -0.2534 -0.1659 -0.9605
10042SOL    HW135446   3.886   4.550  10.555 -0.2099  0.0642 -0.4947
10042SOL    HW235447   4.001   4.466  10.606  0.0044  0.8941  0.4100
10043SOL     OW35448   4.580   2.025   3.708  0.4070 -0.1181 -0.2557
10043SOL    HW135449   4.565   2.064   3.794  2.0727  0.7377 -0.3198
10043SOL    HW235450   4.665   1.981   3.715  0.8644  0.4892 -1.6182
10044SOL     OW35451   9.102   8.683   9.453  0.7370 -0.2935 -0.8466
10044SOL    HW135452   9.169   8.729   9.502 -1.0580  0.5446  0.9892
10044SOL    HW235453   9.073   8.612   9.511  0.4676 -1.0276 -1.8465
10045SOL     OW35454  11.667   2.442   2.366 -0.2535 -0.0069 -0.3607
10045SOL    HW135455  11.727   2.367   2.363  2.7342  2.1962  0.1534
10045SOL    HW235456  11.651   2.463   2.274  2.2247  1.0917 -0.6153
10046SOL     OW35457   4.906   1.154   2.828 -0.2435 -0.2419 -0.1368
10046SOL    HW135458   4.948   1.071   2.803  1.6019  0.3271  0.8910
10046SOL    HW235459   4.872   1.139   2.916 -1.4578 -0.4218 -0.6241
10047SOL     OW35460   2.026   2.577   0.165  0.8772 -0.0885  0.3234
10047SOL    HW135461   2.006   2.494   0.123  2.0931  1.3187 -3.4531
10047SOL    HW235462   1.954   2.635   0.141  0.4402  0.2480  2.2540
10048SOL     OW35463   0.496   1.887   0.102 -0.6308  0.1048  0.2779
10048SOL    HW135464   0.401   1.882   0.093 -0.6686  0.5478  0.4077
10048SOL    HW235465   0.511   1.901   0.196 -0.5258  1.7751  0.0478
10049SOL     OW35466   9.479   0.156   5.074  0.2574 -0.7677 -0.3271
10049SOL    HW135467   9.524   0.073   5.088  0.2964 -0.4929  1.5076
10049SOL    HW235468   9.386   0.132   5.067  0.0574 -0.8951  1.9335
10050SOL     OW35469   4.556   5.333   8.446 -0.0229  0.1734  0.4880
10050SOL    HW135470   4.591   5.336   8.357 -3.1156 -0.7597 -0.9224
10050SOL    HW235471   4.613   5.391   8.496  2.6459 -0.3056 -1.7575
10051SOL     OW35472   7.010   0.451   3.529 -0.2812 -0.5536 -0.1662
10051SOL    HW135473   7.064   0.408   3.596 -0.3500  2.7291  2.3057
10051SOL    HW235474   6.924   0.412   3.539  0.1275 -1.3192  0.5007
10052SOL     OW35475   7.688   2.114   1.907 -0.4403  0.1044 -0.0573
10052SOL    HW135476   7.774   2.102   1.868  0.2602  0.3930  1.3540
10052SOL    HW235477   7.657   2.025   1.925 -0.3451  0.0115 -0.3438
10053SOL     OW35478   2.423   8.233   4.460 -0.2592  0.6359 -0.0161
10053SOL    HW135479   2.435   8.182   4.540 -0.2047  1.7572  0.7071
10053SOL    HW235480   2.508   8.230   4.417 -0.3467 -0.1505 -0.1636
10054SOL     OW35481   9.088   9.462   9.207 -0.3602 -0.3372  0.4404
10054SOL    HW135482   9.041   9.545   9.204  1.1301  0.5120 -0.6644
10054SOL    HW235483   9.042   9.410   9.273 -2.5418  0.5965 -0.2778
10055SOL     OW35484   5.952   2.280   7.499 -0.4567  0.2690  0.2571
10055SOL    HW135485   5.987   2.205   7.450 -1.1982 -0.1765  0.3900
10055SOL    HW235486   6.016   2.296   7.567  0.9108  1.2846 -1.1950
10056SOL     OW35487   4.427   2.951   7.202 -0.0937 -0.0075 -0.4417
10056SOL    HW135488   4.367   2.884   7.170 -0.7140  0.0790  0.4917
10056SOL    HW235489   4.371   3.027   7.221  0.5930  0.7928 -1.4691
10057SOL     OW35490   3.728   3.913   4.596 -0.2321 -0.1760 -0.7322
10057SOL    HW135491   3.727   3.863   4.514  1.7306 -0.1595 -0.8046
10057SOL    HW235492   3.809   3.887   4.639 -1.0164  0.1560  1.0223
10058SOL     OW35493   6.900  10.136   9.216 -0.2246 -0.2845 -0.2658
10058SOL    HW135494   6.872  10.134   9.125 -0.5720 -1.8706 -0.1573
10058SOL    HW235495   6.979  10.082   9.218  1.9218  2.6412 -0.2287
10059SOL     OW35496   1.134  10.617   7.603  0.4342  0.3825  0.8561
10059SOL    HW135497   1.115  10.673   7.679 -2.8829  0.8125 -0.1211
10059SOL    HW235498   1.106  10.669   7.528  3.0506 -0.2783 -0.7186
10060SOL     OW35499   8.687  10.542   5.761 -0.3611  0.0778 -0.4253
10060SOL    HW135500   8.733  10.516   5.841 -1.8222  0.4014  0.5474
10060SOL    HW235501   8.639  10.464   5.735 -0.6032  0.2471 -0.4823
10061SOL     OW35502   4.539   6.948   7.663  0.0292 -0.0028  0.4414
10061SOL    HW135503   4.632   6.960   7.682 -0.0292  0.6070  0.3689
10061SOL    HW235504   4.538   6.906   7.577  0.2221  1.8723 -0.5261
10062SOL     OW35505   1.179   8.502   9.594 -0.3974 -0.1519 -0.3311
10062SOL    HW135506   1.095   8.527   9.557  0.0366  0.7024 -0.7614
10062SOL    HW235507   1.243   8.522   9.525  0.2608  0.0744  0.3316
10063SOL     OW35508   3.949   3.862   4.740 -0.4496  0.4685  0.1869
10063SOL    HW135509   4.031   3.844   4.694 -0.0895  1.2220  0.5091
10063SOL    HW235510   3.923   3.778   4.777  1.3535  0.6250  1.9690
10064SOL     OW35511   4.166   9.378   1.747  0.2210 -0.4505 -0.3666
10064SOL    HW135512   4.174   9.341   1.835  0.5464  0.8298  0.1674
10064SOL    HW235513   4.256   9.382   1.715  0.1353 -0.6012 -0.6321
10065SOL     OW35514   6.137   4.011   5.266  0.2402 -0.4450  0.2752
10065SOL    HW135515   6.232   3.998   5.259  1.1232  3.5327  1.9783
10065SOL    HW235516   6.115   3.981   5.354  0.5267  0.9704  0.8648
10066SOL     OW35517   3.905   8.870  10.154  0.8750  0.3146 -0.3486
10066SOL    HW135518   3.923   8.786  10.195  3.6463 -0.0571 -2.0143
10066SOL    HW235519   3.852   8.848  10.077 -0.4977  0.4434  0.5404
10067SOL     OW35520   8.003  10.618   9.002  0.0438  0.8531  0.2797
10067SOL    HW135521   8.068  10.625   8.932  0.7161  0.6191  0.8673
10067SOL    HW235522   7.943  10.690   8.986 -0.1782  0.4270 -0.9066
10068SOL     OW35523   6.347   3.827   6.601 -0.2269  0.4093 -0.1307
10068SOL    HW135524   6.404   3.868   6.535  0.4825 -0.8320 -0.3300
10068SOL    HW235525   6.403   3.816   6.677 -0.9574  1.5354  0.6017
10069SOL     OW35526   3.323  10.536  11.403 -0.1444 -0.0473 -0.1000
10069SOL    HW135527   3.274  10.604  11.448 -0.2763 -1.3471  1.8114
10069SOL    HW235528   3.381  10.499  11.470 -0.0105 -1.7568 -1.1001
10070SOL     OW35529   8.294  10.384   6.944  0.3758  0.5089  0.7203
10070SOL    HW135530   8.199  10.368   6.944  0.3367  0.5063  2.3126
10070SOL    HW235531   8.326  10.343   6.865 -0.6934 -1.2315  1.1439
10071SOL     OW35532   7.707   6.388   7.821  0.4665 -0.5246 -1.0095
10071SOL    HW135533   7.672   6.301   7.835 -2.0631  0.2705 -1.7984
10071SOL    HW235534   7.769   6.378   7.749 -0.2596 -1.5658 -1.5092
10072SOL     OW35535   3.234   6.809   9.986 -0.1279 -0.5672 -0.2955
10072SOL    HW135536   3.309   6.762  10.022 -0.3359  0.3679  1.4952
10072SOL    HW235537   3.271   6.862   9.915  0.7226 -0.8195 -0.0599
10073SOL     OW35538   9.674   0.453   5.963 -0.2641 -0.0189  0.1910
10073SOL    HW135539   9.597   0.494   5.924  0.4915  0.2202 -1.0987
10073SOL    HW235540   9.680   0.368   5.920 -0.2085 -0.3480  0.8261
10074SOL     OW35541   8.284   6.834   3.720  0.2863  0.3329 -0.4106
10074SOL    HW135542   8.331   6.768   3.668  1.2647  0.5328  0.1884
10074SOL    HW235543   8.201   6.792   3.742  1.9555 -1.9336  2.3340
10075SOL     OW35544   8.970   1.811  11.189  0.1456  0.5487 -0.2745
10075SOL    HW135545   8.975   1.886  11.130 -0.5075  0.1657 -0.8429
10075SOL    HW235546   9.023   1.744  11.146 -0.2524  0.3006 -0.3915
10076SOL     OW35547   0.200  10.526   4.598 -0.0103  0.2617 -1.0036
10076SOL    HW135548   0.292  10.502   4.596  0.1617  0.6425  0.5373
10076SOL    HW235549   0.193  10.588   4.670 -1.6482 -0.5520 -0.3928
10077SOL     OW35550   4.099   2.341   4.278  0.2844 -0.0288  0.1315
10077SOL    HW135551   4.169   2.349   4.343  2.3769 -5.7404 -0.8756
10077SOL    HW235552   4.022   2.315   4.329  0.0600  1.6895  0.7625
10078SOL     OW35553   9.912  11.179   5.266  0.3374 -0.5336  0.0745
10078SOL    HW135554  10.007  11.175   5.278  0.8281 -0.7896 -3.1335
10078SOL    HW235555   9.898  11.163   5.173 -2.7033  1.8419 -0.0662
10079SOL     OW35556   2.389   4.773   1.644 -0.3300 -0.0686  0.4596
10079SOL    HW135557   2.360   4.748   1.557  2.6084  0.4499 -0.7719
10079SOL    HW235558   2.332   4.725   1.703 -1.2833 -1.7972 -1.7439
10080SOL     OW35559   4.975   5.982  11.365  0.4249 -0.4416 -0.3599
10080SOL    HW135560   4.882   5.996  11.346 -0.0128 -1.6914  0.6736
10080SOL    HW235561   5.017   6.065  11.343 -0.9028  0.0893 -1.0164
10081SOL     OW35562   2.733   6.541   1.712 -1.2289 -0.3267 -0.2656
10081SOL    HW135563   2.740   6.626   1.756 -0.1714 -0.0083 -0.9975
10081SOL    HW235564   2.822   6.521   1.683 -1.4473 -1.7348 -0.0385
10082SOL     OW35565   9.319   3.470   4.277  0.3272 -0.2493  0.1076
10082SOL    HW135566   9.374   3.463   4.354 -0.1916 -1.1219  0.4133
10082SOL    HW235567   9.310   3.380   4.245 -0.2220 -0.0154 -0.4199
10083SOL     OW35568   1.030   8.689  11.724 -0.3901 -0.2183 -0.9357
10083SOL    HW135569   0.970   8.638  11.779 -0.3538  0.3436 -0.3584
10083SOL    HW235570   1.114   8.683  11.769 -0.9176  2.5281  0.6681
10084SOL     OW35571  10.173   1.038   0.638 -0.2547 -0.2511  0.4035
10084SOL    HW135572  10.110   1.110   0.630 -0.7706 -0.8579 -1.7372
10084SOL    HW235573  10.196   1.016   0.548 -0.3197 -2.9434  0.9391
10085SOL     OW35574  10.989   3.811   7.707  0.2637 -0.2874 -0.2391
10085SOL    HW135575  10.971   3.735   7.651 -0.7116 -0.8789  0.8143
10085SOL    HW235576  10.909   3.864   7.702  0.7980  0.4930 -0.6782
10086SOL     OW35577   6.111   9.715  11.369 -0.6247  0.3342  0.2224
10086SOL    HW135578   6.107   9.731  11.275  0.7854  1.8088  0.3792
10086SOL    HW235579   6.070   9.793  11.408  2.0500  1.5056  0.8876
10087SOL     OW35580   7.607   1.085   3.761  0.7948 -0.1175  0.2096
10087SOL    HW135581   7.512   1.084   3.774  0.6613  1.2410 -0.4017
10087SOL    HW235582   7.620   1.041   3.677  0.4020  1.8896 -0.9866
10088SOL     OW35583   0.490   6.722   1.184 -0.4576 -0.1489  0.1760
10088SOL    HW135584   0.448   6.717   1.270 -0.2546 -1.0741  0.2311
10088SOL    HW235585   0.432   6.777   1.131 -1.2963 -0.7171  0.4979
10089SOL     OW35586   6.108   5.762   3.231  0.4010 -0.1594 -1.0200
10089SOL    HW135587   6.100   5.675   3.193  0.5807 -0.6161 -0.0482
10089SOL    HW235588   6.022   5.780   3.269  0.8410 -0.6536  0.2709
10090SOL     OW35589  10.097   1.749   8.835 -0.1641  0.2976 -0.2058
10090SOL    HW135590  10.049   1.805   8.775 -0.9310  0.1433  0.2458
10090SOL    HW235591  10.115   1.805   8.911  1.8855  0.8607 -1.0596
10091SOL     OW35592   8.479   9.727   4.450 -0.4113  0.3382 -0.4721
10091SOL    HW135593   8.540   9.727   4.524  0.1909 -1.3559 -0.9388
10091SOL    HW235594   8.395   9.702   4.489 -0.5318  1.2822 -0.0770
10092SOL     OW35595   5.146   6.443   4.135 -0.0431  0.2572  0.8657
10092SOL    HW135596   5.176   6.352   4.133  1.0658  0.5945 -1.0045
10092SOL    HW235597   5.222   6.493   4.163 -0.1826  0.7314  0.4162
10093SOL     OW35598  11.008   8.983  10.824 -0.1578  0.1299 -0.7103
10093SOL    HW135599  11.085   8.999  10.770  0.1350  0.6831 -0.1483
10093SOL    HW235600  10.940   9.038  10.786 -0.2438 -0.2623 -1.1306
10094SOL     OW35601   0.234   0.670  11.794  0.2298 -0.4364  0.1489
10094SOL    HW135602   0.144   0.661  11.763  0.2802  0.0036 -0.1314
10094SOL    HW235603   0.227   0.726  11.871  0.0840 -1.6613  1.0612
10095SOL     OW35604   7.926   0.652   8.356  0.1271 -0.1236  0.1952
10095SOL    HW135605   7.887   0.587   8.298  1.0799 -0.7384  0.2368
10095SOL    HW235606   7.953   0.603   8.433  1.7180  0.1262 -0.1709
10096SOL     OW35607   8.224  11.323  11.337  0.7352 -0.3924  0.1947
10096SOL    HW135608   8.308  11.302  11.378  0.8813 -1.2701 -0.5153
10096SOL    HW235609   8.163  11.330  11.410  1.0957 -1.4166  0.6165
10097SOL     OW35610   5.000  11.588   3.338  0.2901 -0.1430  0.2428
10097SOL    HW135611   4.908  11.571   3.317  0.2951  0.1090  0.0158
10097SOL    HW235612   5.044  11.504   3.321  0.4793  0.3276 -1.7972
10098SOL     OW35613  10.812   7.248   6.646  0.2883 -0.2629 -0.3030
10098SOL    HW135614  10.866   7.324   6.624  0.2282 -0.6881 -2.0913
10098SOL    HW235615  10.822   7.238   6.740 -0.6891  2.6928  0.2073
10099SOL     OW35616   2.339  10.910   8.510  0.1378 -0.0006 -0.9251
10099SOL    HW135617   2.309  10.826   8.477 -1.2690  0.2328 -0.2904
10099SOL    HW235618   2.259  10.959   8.529  0.9263  1.2182 -0.6152
10100SOL     OW35619  10.126   2.138   4.936 -0.7195  0.4255  0.1078
10100SOL    HW135620  10.101   2.062   4.990  1.6530  1.0377  2.2781
10100SOL    HW235621  10.063   2.206   4.961 -3.7055 -0.9614 -2.8020
10101SOL     OW35622   9.092  10.270   1.497  0.3135 -0.2590 -0.2110
10101SOL    HW135623   9.158  10.302   1.436  0.7578 -1.0462 -0.1579
10101SOL    HW235624   9.123  10.183   1.523 -0.7497 -0.6527 -0.1952
10102SOL     OW35625  10.118   6.057   2.274  0.1812  0.4692  0.2148
10102SOL    HW135626  10.026   6.086   2.276  0.5241  1.6528 -0.1721
10102SOL    HW235627  10.145   6.069   2.183  0.2972 -1.3443 -0.0242
10103SOL     OW35628   9.138  11.785   7.202 -0.0214 -0.4290 -0.2581
10103SOL    HW135629   9.180  11.700   7.215  0.9395  0.1351  0.4143
10103SOL    HW235630   9.188  11.846   7.256 -1.8634  0.2396  0.8027
10104SOL     OW35631   8.739   1.477  10.598 -0.0734  0.1324  0.6085
10104SOL    HW135632   8.664   1.447  10.650 -0.4332  1.5250  0.9537
10104SOL    HW235633   8.706   1.483  10.509  0.1575 -0.9721  0.4375
10105SOL     OW35634   1.859  11.672   1.052  0.1570 -0.5282  0.3171
10105SOL    HW135635   1.927  11.669   1.119  0.4603 -4.0071  0.0569
10105SOL    HW235636   1.899  11.631   0.975 -1.6851 -1.1991 -0.3522
10106SOL     OW35637   5.456   0.172  10.647 -0.7252 -0.3304  0.3084
10106SOL    HW135638   5.417   0.251  10.686  0.6204  0.6888 -0.3081
10106SOL    HW235639   5.452   0.188  10.552 -0.9924 -1.2928  0.1504
10107SOL     OW35640   0.932   5.458  10.198 -0.3406 -0.4314  0.1409
10107SOL    HW135641   0.916   5.550  10.179 -1.3838 -0.4841  0.6906
10107SOL    HW235642   0.907   5.412  10.118  0.4669 -0.2171 -0.2384
10108SOL     OW35643   4.958   9.621   5.496 -0.0774  0.5387  0.0043
10108SOL    HW135644   4.974   9.644   5.405  1.5600 -0.9206 -0.1399
10108SOL    HW235645   5.012   9.543   5.511 -0.4035  0.6526  2.1776
10109SOL     OW35646   6.465   8.371   5.325  0.2847 -0.4489  0.1327
10109SOL    HW135647   6.380   8.329   5.329  0.6663 -1.1303  1.6523
10109SOL    HW235648   6.449   8.461   5.354 -0.1754 -0.1180 -1.1201
10110SOL     OW35649   4.162   5.403   7.316  0.2389 -0.0963 -0.0630
10110SOL    HW135650   4.075   5.421   7.351  0.0641  0.0648 -0.5721
10110SOL    HW235651   4.147   5.375   7.225  0.7165 -0.0278 -0.1699
10111SOL     OW35652  10.138   8.669   5.532 -0.0763  0.2081 -0.2111
10111SOL    HW135653  10.056   8.620   5.526  0.1276 -0.1656  0.0048
10111SOL    HW235654  10.188   8.643   5.454 -0.3684  0.8238 -0.6104
10112SOL     OW35655   5.717   9.292   7.775  0.3198 -0.1904 -0.1043
10112SOL    HW135656   5.767   9.365   7.739 -0.2774  0.0910 -0.3793
10112SOL    HW235657   5.711   9.310   7.868  2.0322 -1.0111  0.2011
10113SOL     OW35658   3.089  11.669   9.310 -0.7169 -0.2240  0.3974
10113SOL    HW135659   3.137  11.752   9.305  0.2911 -0.8324 -0.4119
10113SOL    HW235660   3.133  11.620   9.379 -0.2492 -0.7264 -0.2489
10114SOL     OW35661   7.906   6.824   1.515 -0.0914  0.3832 -0.4125
10114SOL    HW135662   7.890   6.776   1.596 -0.1608  1.2392  0.0958
10114SOL    HW235663   7.924   6.914   1.543  0.5983  0.5459 -1.2966
10115SOL     OW35664   8.875   1.826   0.852  0.1385 -0.6792  0.5032
10115SOL    HW135665   8.904   1.735   0.857 -0.7756 -1.1201 -1.3682
10115SOL    HW235666   8.873   1.846   0.759 -1.5466  0.6556  0.7736
10116SOL     OW35667   7.648   1.244  10.447  0.3461 -0.6869  0.4235
10116SOL    HW135668   7.570   1.226  10.395  0.7345  0.2569 -0.5185
10116SOL    HW235669   7.719   1.252  10.383  0.6885  1.3473  0.9675
10117SOL     OW35670   9.151   1.051  11.282 -0.4570  0.0970 -0.2685
10117SOL    HW135671   9.179   0.964  11.255  0.4258  0.8799 -2.0100
10117SOL    HW235672   9.064   1.038  11.319 -0.2140 -1.5499 -0.2305
10118SOL     OW35673  11.382   8.844  10.004  1.0671  0.1703  0.5735
10118SOL    HW135674  11.462   8.891  10.024  0.8105  0.8029  0.1332
10118SOL    HW235675  11.322   8.910   9.970  1.1060 -0.6483 -1.2205
10119SOL     OW35676   5.271   5.636   2.730 -0.3887  0.3403 -0.0314
10119SOL    HW135677   5.275   5.588   2.648 -1.6230  2.4488 -1.4044
10119SOL    HW235678   5.348   5.693   2.729 -1.7624  2.2921 -1.0793
10120SOL     OW35679   2.551   8.519  11.326 -0.0859 -0.6755  0.3299
10120SOL    HW135680   2.639   8.518  11.288  0.5845 -2.4830  1.7649
10120SOL    HW235681   2.517   8.431  11.309 -2.4836  0.5587 -1.9354
10121SOL     OW35682   1.412   1.342   8.871 -0.1632  0.1328 -0.5347
10121SOL    HW135683   1.498   1.332   8.912 -0.3064  0.1016 -0.2336
10121SOL    HW235684   1.406   1.268   8.811 -1.1018 -1.5600  1.4918
10122SOL     OW35685   2.630  10.472   9.995  0.3193 -0.2197 -0.1796
10122SOL    HW135686   2.690  10.434  10.059  0.7512 -2.4637 -1.8027
10122SOL    HW235687   2.620  10.563  10.023  1.5091 -0.7467  2.2757
10123SOL     OW35688   9.884   5.865   4.530  0.2777  0.3395 -0.3386
10123SOL    HW135689   9.894   5.795   4.465  0.3891  0.2918 -0.2708
10123SOL    HW235690   9.918   5.944   4.486  0.1008  0.3620 -0.4346
10124SOL     OW35691   8.484   8.664   8.457 -0.4174  0.2852  0.4658
10124SOL    HW135692   8.398   8.701   8.436 -0.2963 -0.3888 -1.4471
10124SOL    HW235693   8.529   8.733   8.506 -0.9678  1.8606 -1.1486
10125SOL     OW35694   5.110  10.259   7.225  0.3989  0.3002 -0.1528
10125SOL    HW135695   5.068  10.326   7.171 -0.1891  0.5783  0.6324
10125SOL    HW235696   5.115  10.299   7.312  2.3518  0.3103 -0.2261
10126SOL     OW35697  10.175  11.237   8.853  0.7307  0.1777 -0.2251
10126SOL    HW135698  10.236  11.190   8.796 -0.2371 -2.4100  0.7081
10126SOL    HW235699  10.181  11.191   8.937 -1.5019  0.7033  0.2720
10127SOL     OW35700   2.964   5.599  10.401  0.0315  0.2051 -0.0215
10127SOL    HW135701   2.979   5.562  10.488  2.0081  1.3134  0.1690
10127SOL    HW235702   2.971   5.525  10.341 -1.8136 -0.6543  0.7542
10128SOL     OW35703   3.559  11.488   5.744  0.0576 -0.5618 -0.0508
10128SOL    HW135704   3.638  11.442   5.773 -0.1101 -1.2588 -0.6499
10128SOL    HW235705   3.509  11.505   5.824  0.3219 -1.0499  0.2186
10129SOL     OW35706   7.826   6.780   0.034 -0.4739 -0.5143  0.4058
10129SOL    HW135707   7.829   6.864  -0.013  1.8117 -1.1149 -0.6340
10129SOL    HW235708   7.821   6.715  -0.036 -1.3410 -1.3038  1.1846
10130SOL     OW35709  11.094   8.296   9.768  0.1221  0.6935  0.1592
10130SOL    HW135710  11.163   8.248   9.814 -0.3733  0.2711  0.4647
10130SOL    HW235711  11.125   8.303   9.678  0.6888  0.7482  0.3546
10131SOL     OW35712  11.057   5.313   0.281  0.1200 -0.3224  0.0841
10131SOL    HW135713  11.014   5.348   0.359 -0.7013 -1.6952  0.2935
10131SOL    HW235714  11.107   5.386   0.245 -1.2300  0.9277  0.6749
10132SOL     OW35715   6.390   6.724   2.405  0.3208  0.3223 -0.2566
10132SOL    HW135716   6.323   6.769   2.457  0.5493  0.3284  0.0374
10132SOL    HW235717   6.342   6.684   2.332 -0.0689 -0.0526  0.1998
10133SOL     OW35718   7.594   2.045   9.142  0.5386  0.5924 -0.2256
10133SOL    HW135719   7.535   2.049   9.067 -0.8211  1.9722  0.8611
10133SOL    HW235720   7.571   2.121   9.195  2.2452  0.2915  1.0417
10134SOL     OW35721   1.174   3.397   4.027 -0.0765  0.1245  0.1465
10134SOL    HW135722   1.084   3.429   4.017 -0.7160 -1.6557 -0.1498
10134SOL    HW235723   1.167   3.327   4.091  1.6726  2.0016  2.5838
10135SOL     OW35724   0.022   6.955   0.508  0.2680  0.3205 -0.9877
10135SOL    HW135725  -0.026   6.950   0.591 -2.5326  0.0451 -2.4875
10135SOL    HW235726   0.036   7.048   0.494  3.4286  0.3195  1.0530
10136SOL     OW35727   1.814   0.644  11.357 -0.3975 -0.3932 -0.0636
10136SOL    HW135728   1.886   0.588  11.387 -0.7454  0.3204  2.2861
10136SOL    HW235729   1.738   0.586  11.357  0.0750 -1.1067 -2.3938
10137SOL     OW35730   6.442   0.509  11.520 -0.3473 -0.3225 -0.2390
10137SOL    HW135731   6.367   0.557  11.554  0.4379  1.7267 -1.2391
10137SOL    HW235732   6.405   0.450  11.454 -1.2893 -0.8854  0.7556
10138SOL     OW35733   4.314   5.677   0.973  0.0196 -0.1351 -0.1892
10138SOL    HW135734   4.294   5.711   0.886 -2.8432 -1.6771 -0.2259
10138SOL    HW235735   4.230   5.676   1.019  1.1378 -1.0801  1.9781
10139SOL     OW35736  11.772   1.120   1.336  0.5660 -0.4082 -0.0785
10139SOL    HW135737  11.742   1.145   1.249  1.6123  0.5900 -0.1579
10139SOL    HW235738  11.731   1.184   1.395  0.3565 -0.7075  0.1058
10140SOL     OW35739   7.896   2.692   9.026 -0.5099 -0.1152 -0.4950
10140SOL    HW135740   7.830   2.650   8.972 -0.7164  1.5939 -1.6578
10140SOL    HW235741   7.977   2.644   9.007 -0.9137 -0.6008 -1.0291
10141SOL     OW35742   6.014  11.069   3.656  0.1722  0.4073  0.2153
10141SOL    HW135743   5.998  11.122   3.734  0.7819 -0.1621  0.7455
10141SOL    HW235744   5.927  11.039   3.628  0.0969 -1.0809  1.9018
10142SOL     OW35745  10.885   2.705   0.214  0.0078  0.6752 -0.0819
10142SOL    HW135746  10.903   2.653   0.136 -1.1732  0.8238 -0.4818
10142SOL    HW235747  10.967   2.749   0.234  0.1856  1.0465 -1.5591
10143SOL     OW35748   6.572   0.778   7.099  0.3944  0.7485 -0.0308
10143SOL    HW135749   6.513   0.849   7.076 -1.3181 -0.9606 -1.1692
10143SOL    HW235750   6.525   0.728   7.166  0.4588 -0.6464 -0.9673
10144SOL     OW35751   1.472   9.035   8.699  0.4865  0.3643  0.9769
10144SOL    HW135752   1.416   9.112   8.713 -1.0469 -0.7800  1.4911
10144SOL    HW235753   1.421   8.962   8.735  1.7464 -0.9425  0.2113
10145SOL     OW35754   9.917   6.704   2.864  1.1374 -0.0104  0.1645
10145SOL    HW135755   9.911   6.779   2.805  3.2618 -0.9296 -1.3793
10145SOL    HW235756   9.846   6.646   2.837  0.1591  0.9425  0.6445
10146SOL     OW35757   8.891   3.463  10.004  0.4744 -0.2368  0.5141
10146SOL    HW135758   8.926   3.518  10.075 -1.1720 -0.7584  1.7877
10146SOL    HW235759   8.834   3.522   9.955  2.7609  0.5359 -1.3877
10147SOL     OW35760   8.063  10.105  11.474 -0.0443 -0.2278 -0.5654
10147SOL    HW135761   7.989  10.055  11.440  0.8788 -3.0693  1.2324
10147SOL    HW235762   8.135  10.085  11.413  0.0916 -0.3585 -0.3663
10148SOL     OW35763   4.266   0.096   3.131 -0.2361  0.0097 -0.3029
10148SOL    HW135764   4.356   0.127   3.137 -0.0427 -0.2238 -1.7088
10148SOL    HW235765   4.213   0.170   3.159  0.4091 -0.2110  1.6264
10149SOL     OW35766   9.596   8.442   1.797  0.4742 -0.1471 -0.0136
10149SOL    HW135767   9.575   8.501   1.870  0.9289 -0.0823  0.0693
10149SOL    HW235768   9.516   8.393   1.782  0.6089 -0.7281  1.0632
10150SOL     OW35769   4.786   6.449   5.945 -0.1210 -0.1623  0.2299
10150SOL    HW135770   4.809   6.396   5.869 -1.4908 -1.0264  0.3955
10150SOL    HW235771   4.764   6.386   6.013  0.4869  0.6084  1.1803
10151SOL     OW35772   4.424   1.637   6.118  0.0535 -0.5788 -0.2985
10151SOL    HW135773   4.423   1.651   6.023  1.6748  1.8579 -0.0430
10151SOL    HW235774   4.333   1.651   6.145 -0.0442  0.8026 -1.2532
10152SOL     OW35775   6.787   7.786   6.078  0.1191 -0.2719  0.2242
10152SOL    HW135776   6.779   7.695   6.105  0.6168 -0.8688 -1.4610
10152SOL    HW235777   6.742   7.836   6.146 -2.8827 -2.0162 -0.2997
10153SOL     OW35778   9.344   3.108   8.091 -0.3442  0.1724 -0.1453
10153SOL    HW135779   9.284   3.139   8.023  0.2470 -0.5874 -1.0374
10153SOL    HW235780   9.310   3.146   8.172 -1.7520  0.1458 -0.6911
10154SOL     OW35781  10.913   8.840   5.468  0.2017 -0.4052  0.1213
10154SOL    HW135782  10.950   8.752   5.477 -0.0236 -0.6120 -0.8467
10154SOL    HW235783  10.938   8.868   5.380  0.5661  0.6504  0.5453
10155SOL     OW35784   9.708   9.833   8.258 -0.0614  0.3787  0.4396
10155SOL    HW135785   9.749   9.756   8.297  1.4354  0.2860 -1.1728
10155SOL    HW235786   9.631   9.850   8.312  0.4212 -1.3269  1.7332
10156SOL     OW35787   7.444  11.010   4.187 -0.2782  0.1341 -0.0410
10156SOL    HW135788   7.439  10.989   4.280 -0.4677 -0.9489 -0.2777
10156SOL    HW235789   7.413  10.931   4.143  0.0348  0.5427 -1.0322
10157SOL     OW35790   6.727   9.623  10.525 -1.0380  0.1274  0.6004
10157SOL    HW135791   6.722   9.633  10.430  1.7305  2.1163  0.5482
10157SOL    HW235792   6.743   9.529  10.539 -0.4897 -0.0359 -0.9606
10158SOL     OW35793   0.043   8.722   7.002  1.0037 -0.5727  0.8946
10158SOL    HW135794  -0.010   8.799   7.022 -1.3469 -1.8763  0.0888
10158SOL    HW235795   0.068   8.686   7.087  1.2489  0.5028  1.2818
10159SOL     OW35796   7.886   4.964   4.986 -0.2993 -0.6360  0.3512
10159SOL    HW135797   7.934   4.891   4.946  1.0207  0.2450  0.2751
10159SOL    HW235798   7.885   4.944   5.080 -2.4005 -2.1289  0.0714
10160SOL     OW35799   5.724   3.487   9.475 -0.0523  0.2252 -0.1944
10160SOL    HW135800   5.709   3.578   9.503  0.6098  0.1524  0.4352
10160SOL    HW235801   5.660   3.436   9.524  0.3206  0.2332  0.3100
10161SOL     OW35802   9.988   9.911   2.141  0.1543  0.1032  0.1609
10161SOL    HW135803  10.084   9.903   2.135  0.1719  0.7663 -0.5688
10161SOL    HW235804   9.956   9.821   2.138  0.7425 -0.1131  0.2119
10162SOL     OW35805   2.086   8.557  10.862 -0.6378 -0.3864 -0.1448
10162SOL    HW135806   2.080   8.550  10.957 -1.0629  0.4170 -0.1000
10162SOL    HW235807   2.134   8.638  10.846  0.3914 -1.0614 -0.6246
10163SOL     OW35808   2.846   0.325   1.888 -0.3267 -0.0087 -0.6529
10163SOL    HW135809   2.881   0.277   1.963 -0.3783 -0.6799 -1.0445
10163SOL    HW235810   2.921   0.336   1.830 -0.0226  1.5487  0.0102
10164SOL     OW35811   1.034   2.155   7.883  0.0216 -0.0813 -0.7645
10164SOL    HW135812   1.028   2.088   7.951 -0.2094  1.0725  0.3952
10164SOL    HW235813   1.113   2.132   7.833 -0.1994 -1.3468 -0.5759
10165SOL     OW35814  11.200   8.098   8.806  0.3381 -0.5332 -0.0265
10165SOL    HW135815  11.250   8.043   8.867 -0.4144 -1.9361 -0.6257
10165SOL    HW235816  11.187   8.043   8.729 -2.4039 -0.3635  0.2313
10166SOL     OW35817   8.985  10.129   4.779  0.1490 -0.0311 -0.0306
10166SOL    HW135818   8.929  10.153   4.853 -0.3541  0.7876 -0.6693
10166SOL    HW235819   8.998  10.211   4.731  0.8627 -0.4632 -0.5936
10167SOL     OW35820  11.365   5.861   4.746  0.0263 -0.0793  0.2001
10167SOL    HW135821  11.460   5.870   4.740 -0.1156  0.9755 -0.9312
10167SOL    HW235822  11.346   5.775   4.708  0.4131  0.3329 -0.9391
10168SOL     OW35823   8.403  10.405  11.664  0.0791  0.0463 -0.5502
10168SOL    HW135824   8.324  10.379  11.710 -0.9484 -0.5202 -2.5224
10168SOL    HW235825   8.426  10.490  11.702 -0.1434 -0.7794  1.5906
10169SOL     OW35826   6.520   2.613   9.079 -0.2759 -0.1433 -0.0784
10169SOL    HW135827   6.576   2.539   9.103 -0.6586 -0.1044  0.9437
10169SOL    HW235828   6.488   2.648   9.162 -0.9963  0.4810 -0.6017
10170SOL     OW35829   4.515   5.731   6.621 -0.1811  0.6494 -0.1290
10170SOL    HW135830   4.564   5.736   6.538  0.0045  0.6811 -0.0174
10170SOL    HW235831   4.583   5.723   6.688 -0.3776 -1.1513 -0.1031
10171SOL     OW35832  11.397   8.160  10.610 -0.0590  0.3855 -0.4954
10171SOL    HW135833  11.345   8.240  10.615 -1.4234 -0.4225 -1.1506
10171SOL    HW235834  11.376   8.123  10.524 -0.7050 -1.4862  0.4099
10172SOL     OW35835   1.879   6.676   4.082  0.1566 -0.3089  0.1657
10172SOL    HW135836   1.918   6.748   4.033 -2.2658  1.8145  1.1376
10172SOL    HW235837   1.944   6.654   4.149  1.2730  0.3660 -0.6662
10173SOL     OW35838   3.390   3.478   9.360  0.2254  0.9217  0.4632
10173SOL    HW135839   3.440   3.522   9.428  0.5152  1.0367  0.1806
10173SOL    HW235840   3.422   3.516   9.278 -1.1800  1.8934  0.3234
10174SOL     OW35841  10.431   8.509   5.715  0.2858 -0.0845 -0.0936
10174SOL    HW135842  10.383   8.446   5.662  0.6126 -0.2367 -0.2138
10174SOL    HW235843  10.488   8.455   5.770  1.3054  0.1291 -0.9065
10175SOL     OW35844   6.792   8.879  11.560 -0.8243  0.8495 -0.1958
10175SOL    HW135845   6.796   8.974  11.550 -0.3452  0.6866 -1.7266
10175SOL    HW235846   6.862   8.857  11.621 -1.5718  1.5605  0.9465
10176SOL     OW35847   9.715   5.422   1.373 -0.6333 -0.3675  0.4991
10176SOL    HW135848   9.803   5.390   1.392 -0.3616 -0.0495 -0.1870
10176SOL    HW235849   9.723   5.463   1.287 -1.2028  0.6380  0.9053
10177SOL     OW35850  11.449   8.664   6.735  0.3058  0.2409 -0.2923
10177SOL    HW135851  11.489   8.698   6.655  0.4119 -0.1628 -0.4169
10177SOL    HW235852  11.510   8.596   6.764 -1.6852 -2.5535 -2.1369
10178SOL     OW35853  11.681   0.390   1.706 -1.0659  0.0284 -0.3412
10178SOL    HW135854  11.704   0.297   1.701 -1.9208 -0.2106 -0.0307
10178SOL    HW235855  11.757   0.436   1.670 -0.6246 -0.7883 -0.4683
10179SOL     OW35856   9.265  11.013   8.388  0.1797 -0.1680  0.5268
10179SOL    HW135857   9.189  10.971   8.349  1.6120 -1.6036 -0.8722
10179SOL    HW235858   9.339  10.983   8.336  1.7359  1.1400  1.8488
10180SOL     OW35859   9.717   0.757   9.224  0.1384  0.4436  0.1383
10180SOL    HW135860   9.647   0.793   9.277 -1.3845 -1.1647 -0.6534
10180SOL    HW235861   9.673   0.728   9.143  1.4108 -1.9370  0.2042
10181SOL     OW35862   8.078  11.424   1.875 -0.1414 -0.2086  0.4639
10181SOL    HW135863   8.125  11.487   1.929 -0.6363  0.1394  0.4896
10181SOL    HW235864   8.064  11.349   1.932 -1.3318  0.4504  1.0712
10182SOL     OW35865  10.494   2.353   5.720 -0.0022  0.2057  1.0562
10182SOL    HW135866  10.447   2.341   5.637  0.5717 -0.7656  0.8600
10182SOL    HW235867  10.526   2.443   5.716  1.1695 -0.2322 -0.3959
10183SOL     OW35868  11.284  10.437   5.104  0.2774 -0.0675  0.3106
10183SOL    HW135869  11.190  10.425   5.090  0.1609 -0.0111  1.0013
10183SOL    HW235870  11.305  10.517   5.056 -0.4569  1.0813  1.7768
10184SOL     OW35871   0.597   6.077  11.683 -0.1815 -0.6249  0.4391
10184SOL    HW135872   0.601   5.993  11.636 -0.7009 -1.5329  1.9590
10184SOL    HW235873   0.650   6.063  11.761 -0.7388  0.2908  0.9970
10185SOL     OW35874   7.145   4.147   9.304  0.0165 -0.1387 -0.1832
10185SOL    HW135875   7.234   4.116   9.294  0.1775  0.0443  0.5951
10185SOL    HW235876   7.136   4.218   9.240  0.0949 -0.8253 -0.9688
10186SOL     OW35877   0.521  11.747   2.199  0.2068 -0.0932 -0.0749
10186SOL    HW135878   0.563  11.699   2.127  0.5578 -0.1435  0.1630
10186SOL    HW235879   0.443  11.696   2.219 -0.9318  0.9228 -1.6850
10187SOL     OW35880  11.590   5.747   4.089 -0.9256  0.0646 -0.1252
10187SOL    HW135881  11.651   5.725   4.018 -1.5762 -1.0523 -0.3680
10187SOL    HW235882  11.633   5.817   4.137 -0.3816  0.7080 -1.5130
10188SOL     OW35883   8.966   0.417   5.899  0.2995 -0.3339  0.5251
10188SOL    HW135884   8.979   0.508   5.926  1.6267 -0.4943  0.5240
10188SOL    HW235885   8.871   0.406   5.895  0.1140  1.1507  0.1898
10189SOL     OW35886   3.326   9.327   0.513 -0.6057  0.0905 -0.7859
10189SOL    HW135887   3.260   9.380   0.469 -2.7341 -1.8425 -0.1428
10189SOL    HW235888   3.407   9.342   0.463 -1.5296  2.4017 -1.7146
10190SOL     OW35889   4.417   2.060   6.387  0.5801 -0.7793  0.0278
10190SOL    HW135890   4.355   2.018   6.327  1.0368 -2.5543  0.7375
10190SOL    HW235891   4.372   2.061   6.471 -0.0351  1.6532 -0.2736
10191SOL     OW35892   5.710   2.721   2.358  0.3199 -0.1810  0.0483
10191SOL    HW135893   5.666   2.763   2.432 -1.7276 -1.2359 -0.4970
10191SOL    HW235894   5.710   2.787   2.290 -1.8842 -0.6206 -0.4408
10192SOL     OW35895   7.126   0.759   5.333  0.1208 -0.6975  0.1756
10192SOL    HW135896   7.074   0.801   5.264 -0.4772 -2.1925 -0.3099
10192SOL    HW235897   7.134   0.827   5.400 -1.4446 -0.0296 -0.2664
10193SOL     OW35898   3.788   8.948   6.054  0.2300  0.3333 -1.4260
10193SOL    HW135899   3.728   8.874   6.052 -1.5516  1.6888 -0.8261
10193SOL    HW235900   3.870   8.914   6.016 -0.1831 -2.1779 -0.2833
10194SOL     OW35901   6.670   7.670  11.594  0.2600  0.0197 -0.2202
10194SOL    HW135902   6.716   7.586  11.590 -0.2235 -0.2021 -1.8093
10194SOL    HW235903   6.738   7.734  11.575 -0.0658 -0.3489 -3.1713
10195SOL     OW35904  10.548  11.495   6.250  0.3289  0.5177 -0.5239
10195SOL    HW135905  10.488  11.556   6.293  0.4073 -0.3781  0.8972
10195SOL    HW235906  10.595  11.549   6.186  0.0555  1.8373  0.3520
10196SOL     OW35907   6.905   5.735  11.702 -0.1369 -0.1974 -0.1690
10196SOL    HW135908   6.832   5.676  11.681  0.9482 -1.7046  0.1340
10196SOL    HW235909   6.888   5.813  11.650 -2.9771  0.3099  1.2870
10197SOL     OW35910   3.820   1.578   6.587  0.1555  0.3876 -0.1448
10197SOL    HW135911   3.796   1.485   6.594 -1.0900  0.7368  0.5773
10197SOL    HW235912   3.846   1.602   6.676  0.2103  0.7926 -0.2701
10198SOL     OW35913   7.146   5.474   7.030 -0.2406  0.3060 -0.2689
10198SOL    HW135914   7.169   5.565   7.049 -2.3165  0.4266  2.0932
10198SOL    HW235915   7.122   5.437   7.115 -0.6639 -2.1007 -1.3607
10199SOL     OW35916   9.037   3.436   6.164  0.3291  0.5775 -0.3764
10199SOL    HW135917   9.027   3.445   6.069 -1.0732  1.2193 -0.1820
10199SOL    HW235918   9.057   3.525   6.194  1.4794  0.2574 -0.1246
10200SOL     OW35919   5.370   5.752   4.967 -0.3430  0.6006 -0.1779
10200SOL    HW135920   5.313   5.770   4.892 -0.4878  0.6517 -0.0548
10200SOL    HW235921   5.375   5.836   5.013 -0.5650  0.4701  0.0856
10201SOL     OW35922   7.481  11.669   1.569  0.0744  0.4277 -0.8327
10201SOL    HW135923   7.398  11.653   1.614  0.2722 -0.9732 -0.9127
10201SOL    HW235924   7.455  11.700   1.482 -0.4498 -1.3037 -1.3497
10202SOL     OW35925   4.247   2.200   3.758 -0.4697 -0.4932 -0.3548
10202SOL    HW135926   4.318   2.150   3.799 -0.4830 -0.3111 -0.1069
10202SOL    HW235927   4.289   2.244   3.685 -0.1885  0.0960  0.1516
10203SOL     OW35928   8.730   9.724   4.118 -0.5413  0.5716 -0.4510
10203SOL    HW135929   8.754   9.755   4.205  1.6657  0.7707 -1.0509
10203SOL    HW235930   8.640   9.694   4.127 -0.5297  1.0021  1.7727
10204SOL     OW35931   4.837   5.141   4.152 -0.2715  0.0102  0.0527
10204SOL    HW135932   4.861   5.088   4.228 -1.1794  0.2633  0.5247
10204SOL    HW235933   4.921   5.170   4.116  0.1596  0.8565  1.6418
10205SOL     OW35934   0.018   8.300   4.883 -0.4380 -0.6553  0.1966
10205SOL    HW135935   0.060   8.369   4.831 -1.2906  0.2915  0.7479
10205SOL    HW235936   0.031   8.221   4.831 -0.4496  0.1075 -1.0103
10206SOL     OW35937   3.656   5.472   6.066  0.3948 -0.5205 -0.3085
10206SOL    HW135938   3.672   5.449   6.157  0.0317 -2.2390 -0.6550
10206SOL    HW235939   3.734   5.521   6.040  0.6862 -0.3746  0.7924
10207SOL     OW35940   3.619   9.446   2.512  0.4959  0.1346 -0.1172
10207SOL    HW135941   3.593   9.438   2.420  2.5384 -0.9890 -0.6391
10207SOL    HW235942   3.542   9.417   2.560 -1.0170  1.7833 -1.3842
10208SOL     OW35943   4.313   6.141  11.280 -0.2404 -0.1212 -0.3902
10208SOL    HW135944   4.262   6.150  11.200 -2.4373  1.8359  1.0861
10208SOL    HW235945   4.306   6.227  11.322  0.8432 -1.0684  1.8786
10209SOL     OW35946   0.417   3.878  10.930  0.5106  0.2435  0.0783
10209SOL    HW135947   0.381   3.909  10.847 -0.3974 -0.0831  0.3350
10209SOL    HW235948   0.471   3.803  10.907  0.0456 -0.0106 -0.1885
10210SOL     OW35949   7.928  11.772  10.650 -0.2222 -0.3907  0.0489
10210SOL    HW135950   7.949  11.679  10.662 -1.3763 -0.8377 -1.0935
10210SOL    HW235951   7.862  11.772  10.580  0.8171  1.4169 -0.9981
10211SOL     OW35952   2.425   0.768  10.185  0.2600 -0.1327 -0.6998
10211SOL    HW135953   2.509   0.793  10.224  1.7025 -1.5179 -2.6739
10211SOL    HW235954   2.406   0.682  10.221  0.8069 -0.7393 -1.8061
10212SOL     OW35955   8.889   2.897   5.040 -0.0556 -0.1292 -0.2690
10212SOL    HW135956   8.878   2.879   4.947  0.5322  0.6416 -0.5011
10212SOL    HW235957   8.980   2.875   5.059 -0.8779 -3.0949  0.8260
10213SOL     OW35958   7.162   8.667   7.654 -0.6177 -0.5637  0.1801
10213SOL    HW135959   7.228   8.660   7.722  1.0785  2.8273 -0.8796
10213SOL    HW235960   7.109   8.743   7.679 -0.4523  0.2711 -1.8068
10214SOL     OW35961   3.562   6.187   7.600  0.1047  0.3743  0.1036
10214SOL    HW135962   3.508   6.238   7.539 -0.0632  0.3443  0.2242
10214SOL    HW235963   3.532   6.097   7.589  0.1872  0.3457  0.1121
10215SOL     OW35964   3.792   0.353   3.962 -0.1913  0.6737  0.2801
10215SOL    HW135965   3.871   0.350   4.016 -0.6308 -1.0123  0.9068
10215SOL    HW235966   3.807   0.289   3.892  0.6735  3.3406 -2.1680
10216SOL     OW35967   5.535   4.243  11.574 -0.3750 -0.3535 -0.2197
10216SOL    HW135968   5.546   4.331  11.610  0.9229 -0.6134  0.0798
10216SOL    HW235969   5.583   4.245  11.491 -2.3772 -0.0954 -1.4135
10217SOL     OW35970   9.156   6.735  10.111 -0.7119  0.1974  0.0630
10217SOL    HW135971   9.208   6.740  10.191 -1.7031 -1.3364  0.8443
10217SOL    HW235972   9.109   6.819  10.109 -0.3722  0.4240  0.8543
10218SOL     OW35973   2.315   0.763   5.353 -0.0778  0.1571  0.2063
10218SOL    HW135974   2.359   0.702   5.413 -0.6510 -0.2641  0.2134
10218SOL    HW235975   2.229   0.723   5.338 -0.0472  0.4001 -0.6738
10219SOL     OW35976   9.462   6.978   8.609  0.3591  0.2521 -0.2761
10219SOL    HW135977   9.535   7.013   8.558 -0.3533  1.0157 -0.7988
10219SOL    HW235978   9.412   6.925   8.546 -0.6160  1.3316 -0.4388
10220SOL     OW35979   6.113   0.120   0.374  0.2765  0.0767  0.3581
10220SOL    HW135980   6.145   0.051   0.431 -1.5882 -1.3123 -0.1956
10220SOL    HW235981   6.105   0.196   0.431  2.6744  0.0160  0.9053
10221SOL     OW35982   0.961  10.598   5.247 -0.3390  0.5262  0.7721
10221SOL    HW135983   0.913  10.668   5.290 -0.4013  1.3864 -0.6499
10221SOL    HW235984   0.962  10.622   5.154 -0.3761 -1.3568  0.2414
10222SOL     OW35985   9.288   0.814  11.470 -0.4652  0.7839  0.0439
10222SOL    HW135986   9.285   0.767  11.553  0.5395  0.7015  0.0511
10222SOL    HW235987   9.202   0.854  11.462 -0.3770  1.3339  1.4534
10223SOL     OW35988   4.738   2.080   7.000  0.0717  0.6069  0.0868
10223SOL    HW135989   4.721   2.031   7.080  0.6560  0.2450 -0.0086
10223SOL    HW235990   4.754   2.170   7.030 -1.3211  0.8239  0.2313
10224SOL     OW35991   8.209   0.075   1.331 -0.1195  0.9788  0.2010
10224SOL    HW135992   8.185   0.002   1.388 -1.4611  0.4499 -0.9566
10224SOL    HW235993   8.291   0.047   1.289 -0.2391  0.4456  0.3114
10225SOL     OW35994   8.871   5.163   6.303 -0.0314 -0.4777  0.6162
10225SOL    HW135995   8.783   5.139   6.333 -0.3441 -0.7897 -0.4956
10225SOL    HW235996   8.886   5.250   6.341 -1.0812 -0.1442  0.3026
10226SOL     OW35997  11.244   3.957   6.096 -0.0363  0.5889 -0.6220
10226SOL    HW135998  11.227   3.906   6.017 -2.8443 -1.1574  0.9460
10226SOL    HW235999  11.253   4.048   6.065 -2.7549  0.2259 -2.8328
10227SOL     OW36000   7.409   0.769   2.598  0.1157  0.1894  0.7990
10227SOL    HW136001   7.455   0.685   2.605 -2.3694 -1.2495  1.1796
10227SOL    HW236002   7.324   0.746   2.561 -0.5140  2.6286  0.5616
10228SOL     OW36003   3.460   7.833  11.167  0.0029 -0.3102  0.0167
10228SOL    HW136004   3.452   7.773  11.241  0.4351 -0.8631 -0.3704
10228SOL    HW236005   3.539   7.804  11.121  0.2926  0.6323 -0.1168
10229SOL     OW36006   1.072   6.679   4.902 -0.4727  0.2605  0.4008
10229SOL    HW136007   1.041   6.606   4.955  1.5869 -0.3643  0.8438
10229SOL    HW236008   1.065   6.755   4.960 -2.1604  0.3818  0.1005
10230SOL     OW36009   7.037   8.632   5.755  0.3635 -0.6149  0.2023
10230SOL    HW136010   7.073   8.596   5.674 -0.6245  1.0440 -1.0199
10230SOL    HW236011   7.105   8.692   5.787 -0.0735  0.2883 -0.5260
10231SOL     OW36012  10.867   0.045   3.588  0.4875  0.3929  0.3742
10231SOL    HW136013  10.836   0.077   3.673  1.0832 -1.2211  1.2380
10231SOL    HW236014  10.833   0.108   3.525 -1.9876  0.3773  1.5716
10232SOL     OW36015   8.745   0.797   0.229  0.2156  0.1340 -0.6211
10232SOL    HW136016   8.706   0.846   0.302  0.9526  0.0617 -0.1592
10232SOL    HW236017   8.687   0.814   0.155  0.3381  1.5630 -0.4300
10233SOL     OW36018   4.451   8.130   9.718  0.3578 -0.5944  0.0562
10233SOL    HW136019   4.445   8.158   9.809 -1.1642  2.1251 -0.7528
10233SOL    HW236020   4.390   8.057   9.711  0.3922 -0.7435  1.1675
10234SOL     OW36021  11.135   8.023   8.118  0.0081 -0.0901 -0.0623
10234SOL    HW136022  11.084   8.089   8.073  0.0487 -0.2170 -0.2942
10234SOL    HW236023  11.164   7.963   8.049 -0.8165 -0.8773  0.2531
10235SOL     OW36024   6.130   9.825   3.023 -0.1697 -0.0081  0.5918
10235SOL    HW136025   6.180   9.869   2.954 -2.2886  0.0257 -1.0507
10235SOL    HW236026   6.165   9.736   3.026 -0.5995 -0.2772 -1.2182
10236SOL     OW36027   1.162   0.265   3.843 -0.0959 -0.4500 -0.4734
10236SOL    HW136028   1.201   0.252   3.757 -0.0533 -0.5330 -0.4418
10236SOL    HW236029   1.231   0.241   3.905 -0.1556 -0.4765 -0.4166
10237SOL     OW36030   5.290   2.277   4.819  0.1885 -0.7202  0.3561
10237SOL    HW136031   5.367   2.308   4.866 -0.4094 -2.0618  2.3284
10237SOL    HW236032   5.230   2.352   4.821  0.2622 -0.6761  1.5684
10238SOL     OW36033   9.846   4.270   2.790 -0.0399  0.2907 -0.1404
10238SOL    HW136034   9.797   4.345   2.756 -1.1634 -1.2108 -1.9456
10238SOL    HW236035   9.903   4.243   2.718 -0.0251 -0.9074  0.2951
10239SOL     OW36036   7.351   5.063   5.667  0.1831 -0.2799  0.3330
10239SOL    HW136037   7.278   5.022   5.622  0.8620 -1.1356 -0.0034
10239SOL    HW236038   7.373   5.003   5.738  0.6861 -0.1180  0.3183
10240SOL     OW36039   8.841   8.378   3.115  0.2787  0.4599 -0.3673
10240SOL    HW136040   8.751   8.346   3.108  0.8863 -0.9954 -2.8540
10240SOL    HW236041   8.887   8.309   3.164  0.2051  0.8973  0.3360
10241SOL     OW36042   4.768   6.273   6.144 -0.4844  0.0994  0.3469
10241SOL    HW136043   4.788   6.181   6.125 -1.1818 -0.1393  0.7405
10241SOL    HW236044   4.678   6.272   6.177 -0.1771  0.8136  1.2422
10242SOL     OW36045   3.960   1.032   0.745 -0.1643 -0.1587 -0.2542
10242SOL    HW136046   3.870   1.004   0.761  0.1374 -1.0904 -0.0919
10242SOL    HW236047   4.013   0.963   0.785  0.6158 -0.1960 -1.2998
10243SOL     OW36048   2.569   1.783   5.138  0.4874 -0.2822 -0.3338
10243SOL    HW136049   2.582   1.696   5.101 -0.5742 -0.4838 -0.2373
10243SOL    HW236050   2.562   1.768   5.233 -0.6107 -0.1989 -0.3980
10244SOL     OW36051  10.347   2.019   0.807 -0.0450  0.0057  0.2752
10244SOL    HW136052  10.295   2.092   0.841  1.3222  1.3906 -0.5433
10244SOL    HW236053  10.286   1.971   0.751 -0.3843  1.8504 -1.0296
10245SOL     OW36054   5.420  11.682   6.619 -0.7059 -0.4015 -0.2560
10245SOL    HW136055   5.427  11.625   6.695  1.1057  1.2883  0.9310
10245SOL    HW236056   5.347  11.645   6.569 -1.6865 -1.8368  2.0384
10246SOL     OW36057   8.198   5.922   3.620  0.4783  0.8222 -0.1649
10246SOL    HW136058   8.173   5.833   3.597  1.2219  0.2872  0.9904
10246SOL    HW236059   8.223   5.963   3.537  1.3581 -0.4453 -0.5496
10247SOL     OW36060  10.063   7.425   5.131 -0.4436 -0.1030 -0.0010
10247SOL    HW136061  10.119   7.353   5.160 -0.8889  0.5392  2.7333
10247SOL    HW236062   9.984   7.382   5.098 -0.3909 -0.9305  0.8856
10248SOL     OW36063  11.129   2.533  11.284 -0.0966 -0.2608  0.4193
10248SOL    HW136064  11.072   2.606  11.260  0.5700  0.3975  0.7786
10248SOL    HW236065  11.211   2.575  11.311 -0.2236 -1.0579  2.1525
10249SOL     OW36066   7.885  10.461   7.489 -0.5045  0.2012  0.7465
10249SOL    HW136067   7.912  10.539   7.538 -1.4008  1.1207 -0.1718
10249SOL    HW236068   7.927  10.472   7.403 -2.8840  1.1847 -0.3839
10250SOL     OW36069   4.248   8.608   4.179  0.1086  0.7623 -0.1557
10250SOL    HW136070   4.273   8.700   4.174  0.8608  0.4945 -1.8433
10250SOL    HW236071   4.268   8.573   4.093 -0.3772 -0.9448  0.3923
10251SOL     OW36072   6.080   7.596   4.117 -0.8383  0.3103  0.3389
10251SOL    HW136073   6.122   7.520   4.157  0.7268 -0.1525 -2.0067
10251SOL    HW236074   6.137   7.670   4.140 -1.9328  0.7307  1.9399
10252SOL     OW36075   5.171  10.921   6.029  0.4573 -0.0654 -0.1443
10252SOL    HW136076   5.147  10.830   6.014  0.6279  0.0528 -1.2331
10252SOL    HW236077   5.261  10.927   5.997  0.1531  0.6786 -0.8896
10253SOL     OW36078   0.433   4.307   4.451  0.5591  0.9195  0.1115
10253SOL    HW136079   0.528   4.316   4.455  0.9765 -0.2252 -3.6551
10253SOL    HW236080   0.406   4.362   4.378 -1.1293 -1.4559 -1.2023
10254SOL     OW36081   0.507  10.969   5.792 -0.0429  0.0047  0.6124
10254SOL    HW136082   0.497  11.045   5.849 -0.3996 -0.2491  0.8976
10254SOL    HW236083   0.600  10.946   5.799  0.1050  0.5153  0.3886
10255SOL     OW36084   4.921   6.305   1.257  0.0447  0.3541  0.5404
10255SOL    HW136085   4.947   6.393   1.230 -0.1302  0.0711 -0.6029
10255SOL    HW236086   4.830   6.297   1.228 -0.2806  0.1661  1.5783
10256SOL     OW36087   7.203   7.250   9.032  0.2228  0.0035  0.0153
10256SOL    HW136088   7.138   7.321   9.035 -1.7136 -1.7225  1.6479
10256SOL    HW236089   7.184   7.206   8.949 -0.6650 -0.4208  0.4257
10257SOL     OW36090   9.390   5.204   7.546 -0.8733 -0.3598  0.0468
10257SOL    HW136091   9.341   5.286   7.539 -1.6866 -0.7892  0.4943
10257SOL    HW236092   9.343   5.143   7.488  0.2538 -0.2743 -0.9803
10258SOL     OW36093   5.972   2.733  11.288  0.3442 -0.0189 -0.5781
10258SOL    HW136094   6.012   2.792  11.351  0.7983 -0.1589 -0.7317
10258SOL    HW236095   5.908   2.786  11.242 -0.3802 -0.0487  0.3706
10259SOL     OW36096   6.261   4.091   1.061 -0.3827 -0.4786  0.4472
10259SOL    HW136097   6.251   4.069   1.154 -0.3900  0.9644  0.8004
10259SOL    HW236098   6.173   4.078   1.024 -0.3575 -1.1436  0.6023
10260SOL     OW36099   3.605   1.510  10.588 -0.3751  0.1741 -0.4340
10260SOL    HW136100   3.681   1.506  10.647 -0.7307  0.2323  0.0328
10260SOL    HW236101   3.530   1.511  10.646 -0.7017  1.4664 -0.8421
10261SOL     OW36102  11.109   9.034   4.993 -0.1020 -0.0087 -0.2512
10261SOL    HW136103  11.127   8.994   5.078 -1.2526 -0.8516 -0.3703
10261SOL    HW236104  11.187   9.015   4.941  0.4405  0.1529  0.4883
10262SOL     OW36105   6.192   9.775   6.041 -0.3658 -0.7075 -0.0044
10262SOL    HW136106   6.241   9.787   5.959  0.5744 -1.8156  0.3581
10262SOL    HW236107   6.153   9.860   6.059  2.4950  0.6430  0.3543
10263SOL     OW36108  10.172   0.305   7.804 -0.3539  0.0349  0.3272
10263SOL    HW136109  10.251   0.318   7.752  0.1592 -0.6366  0.9205
10263SOL    HW236110  10.187   0.354   7.885 -1.1794  1.1372 -0.1662
10264SOL     OW36111   2.567   1.614   4.225 -0.4161 -0.5367 -0.5152
10264SOL    HW136112   2.522   1.542   4.181 -2.8687  0.0485  0.8381
10264SOL    HW236113   2.513   1.691   4.206 -0.7880 -0.0254  2.2355
10265SOL     OW36114  10.892   3.987   0.357  0.1980 -0.1771  0.2857
10265SOL    HW136115  10.955   3.917   0.374 -1.7670 -1.5910  2.3648
10265SOL    HW236116  10.821   3.970   0.419 -0.9544  2.9581 -0.0272
10266SOL     OW36117   9.377   9.914   0.343 -0.1332  0.2779 -0.6993
10266SOL    HW136118   9.429   9.887   0.419 -1.7941  1.0657  0.7765
10266SOL    HW236119   9.441   9.927   0.274  1.8179  2.4402  1.3660
10267SOL     OW36120   2.039   0.129   1.870 -0.4742 -0.1439 -0.5988
10267SOL    HW136121   2.013   0.153   1.959  0.6534 -2.6536  0.5024
10267SOL    HW236122   1.968   0.161   1.814 -0.6104  2.6283  0.9883
10268SOL     OW36123   9.510   4.843   9.361 -0.4164 -0.2181  0.3539
10268SOL    HW136124   9.538   4.802   9.278  1.3419  1.1581  0.1963
10268SOL    HW236125   9.560   4.796   9.428  1.7420  1.6312  0.1572
10269SOL     OW36126   6.290   9.597   2.565 -0.0798 -0.9184 -0.1807
10269SOL    HW136127   6.202   9.594   2.528 -0.5039  1.2776  0.5024
10269SOL    HW236128   6.348   9.606   2.490 -0.4347 -2.0978 -0.6158
10270SOL     OW36129   0.095   9.629   6.453 -0.0524 -0.1085 -0.0290
10270SOL    HW136130   0.173   9.626   6.397 -0.8112 -1.7686 -1.0893
10270SOL    HW236131   0.100   9.549   6.505 -1.4417 -0.6569 -0.6958
10271SOL     OW36132   6.367   2.775   2.957  0.3530 -0.1384  0.3070
10271SOL    HW136133   6.278   2.748   2.979  0.0875 -0.3764 -0.9516
10271SOL    HW236134   6.401   2.704   2.903  0.4253  0.9993 -1.2168
10272SOL     OW36135   8.228   5.749   0.523 -0.1166  0.0800  0.5959
10272SOL    HW136136   8.249   5.814   0.456 -0.3454 -1.3852 -0.9649
10272SOL    HW236137   8.149   5.705   0.491 -0.1202 -0.7941  1.7259
10273SOL     OW36138   5.534   7.935  10.722 -0.1184  0.1997 -0.0629
10273SOL    HW136139   5.607   7.991  10.693  0.2282  0.0188  0.4489
10273SOL    HW236140   5.577   7.862  10.766 -0.6566  0.8992  1.6793
10274SOL     OW36141   5.344  10.649   3.265 -0.6184 -0.6045  0.4868
10274SOL    HW136142   5.348  10.580   3.332 -0.6974 -0.0058  1.1265
10274SOL    HW236143   5.263  10.632   3.217 -1.0324 -0.5246  1.1367
10275SOL     OW36144   0.567   0.396   7.518  0.0815 -0.0543  0.2514
10275SOL    HW136145   0.520   0.438   7.591  0.0946 -0.2347  0.3653
10275SOL    HW236146   0.499   0.350   7.470  0.3575 -1.7565  1.4028
10276SOL     OW36147   1.008   1.866   4.982 -0.2131 -0.2213  0.2901
10276SOL    HW136148   0.951   1.942   4.993  0.0954  0.0176  0.2741
10276SOL    HW236149   1.004   1.819   5.065 -0.4066 -0.1848  0.2996
10277SOL     OW36150   6.113   4.766   7.262  0.1868  0.5141 -0.0168
10277SOL    HW136151   6.151   4.681   7.283  2.5124  1.1643 -1.2657
10277SOL    HW236152   6.127   4.776   7.167  1.2651  2.8345  0.3091
10278SOL     OW36153   9.428   8.236   1.749 -0.9077  0.0976  0.4445
10278SOL    HW136154   9.480   8.159   1.772  1.0658  1.9631  2.7941
10278SOL    HW236155   9.362   8.241   1.818 -1.1751  0.3979  0.1706
10279SOL     OW36156  10.033  11.398   5.882  0.3224  0.0427  0.3438
10279SOL    HW136157   9.967  11.441   5.936 -0.3509 -1.0190  0.3914
10279SOL    HW236158  10.107  11.459   5.882 -0.4286  0.9914  0.7665
10280SOL     OW36159  10.291   8.278   7.496  0.1505  0.4699 -0.1835
10280SOL    HW136160  10.272   8.275   7.590  1.9819  0.1832  0.2167
10280SOL    HW236161  10.336   8.362   7.484 -0.0783  0.5049 -0.8018
10281SOL     OW36162   8.172   9.366   5.911 -0.7321  0.1562 -0.1765
10281SOL    HW136163   8.224   9.434   5.869  0.5045 -1.1934 -0.9186
10281SOL    HW236164   8.105   9.343   5.845  0.5091 -1.1669 -1.0457
10282SOL     OW36165   4.163   2.514   5.230  0.4787  0.8616  0.3861
10282SOL    HW136166   4.180   2.572   5.156  0.4781  0.4959  0.0961
10282SOL    HW236167   4.077   2.541   5.263  0.2810  0.7395 -0.0250
10283SOL     OW36168  11.626   8.027   0.096  0.4901 -0.3346  0.5823
10283SOL    HW136169  11.544   7.978   0.107 -0.1472  0.8169  1.1370
10283SOL    HW236170  11.685   7.965   0.053 -1.2166 -0.6633 -1.4753
10284SOL     OW36171   4.433   3.089   1.726  0.2792  0.0673  0.1417
10284SOL    HW136172   4.480   3.008   1.746 -1.7364 -0.6888  2.2128
10284SOL    HW236173   4.365   3.063   1.665  0.2828  0.4102 -0.0095
10285SOL     OW36174   0.804   5.475   5.291 -0.3462  0.4368 -0.5031
10285SOL    HW136175   0.796   5.514   5.378 -0.5253 -1.0734  0.2010
10285SOL    HW236176   0.717   5.485   5.253 -0.6098  0.0467 -0.0198
10286SOL     OW36177  11.824  10.328   0.995 -0.0900 -0.2709  0.2420
10286SOL    HW136178  11.903  10.274   0.990 -0.0253 -0.1280 -0.4524
10286SOL    HW236179  11.850  10.404   1.046 -0.2843 -1.0547  1.5421
10287SOL     OW36180   3.322   7.159   6.659 -0.6663 -0.3468 -0.0017
10287SOL    HW136181   3.368   7.231   6.704 -0.4386 -0.6679  0.2831
10287SOL    HW236182   3.389   7.118   6.605 -1.3231  1.2035 -2.1629
10288SOL     OW36183   3.562   1.961  11.358 -0.5569 -0.6657 -0.0810
10288SOL    HW136184   3.644   2.011  11.355  0.2247 -1.9297 -0.4647
10288SOL    HW236185   3.560   1.912  11.276 -1.2406 -1.3525  0.3339
10289SOL     OW36186   9.946   8.549   6.248  0.1175 -0.0309  0.2101
10289SOL    HW136187   9.855   8.523   6.258 -0.0192  1.0363  2.0524
10289SOL    HW236188   9.959   8.554   6.153 -1.4827 -0.9860 -0.0925
10290SOL     OW36189   7.340   4.100   8.426  0.3902 -0.0131  0.0547
10290SOL    HW136190   7.342   4.190   8.392  0.4229 -0.7934 -2.1810
10290SOL    HW236191   7.431   4.074   8.430  0.3638 -0.0457  0.4044
10291SOL     OW36192   7.981   3.779   4.465  0.4231  0.3106  0.1214
10291SOL    HW136193   8.027   3.800   4.546  0.3724  0.8641  0.0082
10291SOL    HW236194   7.977   3.861   4.417 -0.9711  0.3615  0.2799
10292SOL     OW36195   5.043   5.839   8.335 -0.2737 -0.0438 -0.2644
10292SOL    HW136196   5.022   5.847   8.242 -0.0301 -2.1483 -0.5541
10292SOL    HW236197   5.122   5.892   8.347  1.0034 -1.4704 -1.7921
10293SOL     OW36198   0.555   9.125   4.070  0.8394  0.0110  0.1740
10293SOL    HW136199   0.633   9.121   4.125  0.8841 -0.5152  0.0759
10293SOL    HW236200   0.526   9.034   4.063  0.2413  0.1974  0.1750
10294SOL     OW36201   9.711   3.063   3.444 -0.0090  0.3747 -0.1325
10294SOL    HW136202   9.640   3.117   3.478 -0.0004  1.7856 -2.1718
10294SOL    HW236203   9.678   2.973   3.451 -0.2605  0.6165  2.7733
10295SOL     OW36204  11.088   4.825   5.635  0.0050  0.0080  0.0776
10295SOL    HW136205  11.099   4.913   5.599 -1.2993 -0.5857 -1.9272
10295SOL    HW236206  11.037   4.778   5.569  0.9886 -2.3825  0.9106
10296SOL     OW36207   5.112   7.601   5.905  0.5065 -0.3708  0.2647
10296SOL    HW136208   5.162   7.578   5.826  0.8416 -0.7848  0.5946
10296SOL    HW236209   5.139   7.691   5.925  2.0267 -0.9860  1.1194
10297SOL     OW36210   4.866   2.819   4.742 -0.3851 -0.0846  0.7180
10297SOL    HW136211   4.794   2.817   4.805 -1.1427 -1.8943 -0.1357
10297SOL    HW236212   4.836   2.765   4.669  0.1819  2.4955 -1.5500
10298SOL     OW36213   4.597   1.361   4.001  0.5495 -0.2019  0.1322
10298SOL    HW136214   4.669   1.422   3.982  1.7376 -0.8048  2.2817
10298SOL    HW236215   4.537   1.411   4.057  0.5378 -0.3962  0.2974
10299SOL     OW36216   0.655   6.810   2.285 -0.5261  0.2549 -0.2139
10299SOL    HW136217   0.622   6.846   2.203 -1.5765 -1.4557 -0.5968
10299SOL    HW236218   0.636   6.877   2.351  3.0907  3.0846 -1.6909
10300SOL     OW36219   2.058   0.656   5.298 -0.3329 -0.1550 -0.0480
10300SOL    HW136220   2.006   0.712   5.241 -1.8969 -1.1177  0.3677
10300SOL    HW236221   2.054   0.570   5.257  0.5805 -0.3470  0.2390
10301SOL     OW36222   7.237   9.179   8.329  0.3741 -0.2306 -0.4489
10301SOL    HW136223   7.218   9.224   8.246 -0.2064  0.1912 -0.1005
10301SOL    HW236224   7.152   9.169   8.371  0.4679 -1.9133 -0.6282
10302SOL     OW36225   5.246  11.487   0.688 -0.3051 -0.1291  0.0909
10302SOL    HW136226   5.278  11.558   0.633 -0.5745 -0.2564 -0.2407
10302SOL    HW236227   5.220  11.529   0.770 -1.4867  0.3389 -0.4879
10303SOL     OW36228  11.364   3.422  10.496  0.7703  0.3320  0.2858
10303SOL    HW136229  11.433   3.358  10.514  0.5993  0.2914  0.8167
10303SOL    HW236230  11.303   3.375  10.439  1.7220  0.7180 -1.1209
10304SOL     OW36231   8.339   6.583   3.285 -0.1090  0.0255  0.0369
10304SOL    HW136232   8.293   6.662   3.313  0.3576 -0.1198  1.3158
10304SOL    HW236233   8.395   6.561   3.360  1.9693  0.1329 -1.4031
10305SOL     OW36234  11.764   8.251   4.249  0.4100 -0.0494  0.2945
10305SOL    HW136235  11.763   8.169   4.200  0.2703  0.0224  0.1747
10305SOL    HW236236  11.685   8.249   4.302  0.2558  0.1370  0.0734
10306SOL     OW36237   9.474   6.297   4.823 -0.0689  0.1788 -0.0957
10306SOL    HW136238   9.498   6.340   4.905  0.6083  0.1049 -0.2528
10306SOL    HW236239   9.434   6.366   4.770 -1.9746 -0.1120  0.8863
10307SOL     OW36240   7.732   9.300   1.127 -0.2961 -0.3243 -0.3939
10307SOL    HW136241   7.790   9.232   1.094 -1.5583 -1.9101  0.5223
10307SOL    HW236242   7.784   9.380   1.123  2.0154 -1.6834  0.5565
10308SOL     OW36243   8.061  11.561   1.122  0.7513  0.3699  0.0880
10308SOL    HW136244   8.078  11.603   1.206 -1.2793  0.1054  0.6690
10308SOL    HW236245   7.996  11.494   1.141  0.4964  0.0723 -1.6538
10309SOL     OW36246   5.685   7.785   1.777 -0.5204 -0.3739  0.1085
10309SOL    HW136247   5.604   7.836   1.778  0.2795  1.1550 -2.4225
10309SOL    HW236248   5.755   7.849   1.792  0.3554 -1.2409 -0.1204
10310SOL     OW36249   7.744   7.384   4.480 -0.1605  1.0161 -0.3187
10310SOL    HW136250   7.671   7.338   4.438  0.0391  0.6688 -0.2839
10310SOL    HW236251   7.793   7.421   4.407 -0.5313  1.4984 -0.3296
10311SOL     OW36252   8.835   5.005   8.204 -0.5081  0.3380 -0.2678
10311SOL    HW136253   8.920   4.969   8.226 -1.5023 -2.0824 -0.1160
10311SOL    HW236254   8.840   5.024   8.110  0.4919  1.1992 -0.0539
10312SOL     OW36255   9.654   1.026   3.148 -0.5828 -0.2324  0.9779
10312SOL    HW136256   9.729   1.015   3.206 -0.8766 -0.3252  1.3434
10312SOL    HW236257   9.665   1.114   3.111 -0.9557  0.2615  2.0045
10313SOL     OW36258   6.089   4.688   9.186  0.2771 -0.1318  0.3521
10313SOL    HW136259   6.160   4.723   9.133 -0.7020  0.7031 -0.4495
10313SOL    HW236260   6.061   4.609   9.140 -0.0183  0.1247  0.0964
10314SOL     OW36261   3.050   7.756   5.566  0.5582 -0.0481 -0.0756
10314SOL    HW136262   2.962   7.754   5.604  1.4274 -0.2162  2.0999
10314SOL    HW236263   3.094   7.827   5.612  1.3690  0.5147 -1.6623
10315SOL     OW36264  10.858   3.925   5.012 -0.0869 -0.8599  0.1523
10315SOL    HW136265  10.898   3.861   5.071 -2.6399 -1.5510  1.2650
10315SOL    HW236266  10.879   4.010   5.050  0.9581 -1.1536  0.2479
10316SOL     OW36267   1.007   5.732   1.153  0.0847 -0.1044 -0.0481
10316SOL    HW136268   0.996   5.813   1.203 -0.0678 -1.2693  1.9130
10316SOL    HW236269   1.085   5.691   1.190  0.0477 -0.9634 -0.8717
10317SOL     OW36270   8.711  10.220   4.090 -0.7036  0.2874 -0.5552
10317SOL    HW136271   8.643  10.280   4.061 -0.2348  0.4818 -1.2718
10317SOL    HW236272   8.674  10.133   4.076 -1.7509  0.3712  1.3467
10318SOL     OW36273   2.524   9.591  11.754 -0.3250  0.0107  0.9306
10318SOL    HW136274   2.433   9.617  11.745 -0.8687  0.7880  5.8634
10318SOL    HW236275   2.521   9.497  11.772 -0.0434 -0.0724  0.5753
10319SOL     OW36276   2.958   3.509   6.178 -0.3366 -0.0200  0.2615
10319SOL    HW136277   3.008   3.430   6.197  1.3803  0.2198 -2.7286
10319SOL    HW236278   2.956   3.557   6.261  0.3397 -2.2033  1.6175
10320SOL     OW36279  10.910   2.718   5.604  0.2257 -0.3713  0.4733
10320SOL    HW136280  10.878   2.795   5.651 -0.6726 -0.2500 -0.2964
10320SOL    HW236281  10.924   2.748   5.515 -0.2335 -1.1111  0.1367
10321SOL     OW36282   5.098  10.565   3.569 -0.2116 -0.0403 -0.0013
10321SOL    HW136283   5.077  10.499   3.504 -0.2044  1.3224 -1.4458
10321SOL    HW236284   5.118  10.516   3.648 -0.9545 -1.7104 -0.8113
10322SOL     OW36285   7.638   4.170   3.348 -0.1323  0.2090 -0.3665
10322SOL    HW136286   7.709   4.169   3.283  1.0676 -1.3938  0.8791
10322SOL    HW236287   7.681   4.188   3.431 -1.2100 -0.5134  0.3841
10323SOL     OW36288   1.554   6.942   5.273 -0.3044  0.2413 -0.4641
10323SOL    HW136289   1.639   6.902   5.292 -1.1575 -0.9862  0.9421
10323SOL    HW236290   1.534   6.995   5.350 -1.7226 -1.1389  0.1801
10324SOL     OW36291  10.412   7.017  11.300 -0.4864 -0.2046 -0.0906
10324SOL    HW136292  10.411   7.057  11.213 -0.1440 -1.8636 -0.8983
10324SOL    HW236293  10.348   6.946  11.295 -0.4787 -0.3175  1.0207
10325SOL     OW36294   1.299   7.251   7.314 -0.5881  0.3869 -0.3386
10325SOL    HW136295   1.223   7.302   7.345  1.6298  3.4543  0.5925
10325SOL    HW236296   1.304   7.270   7.221  0.5820  2.6299  0.1039
10326SOL     OW36297  10.767   1.754   1.992 -0.0458 -0.0231  0.5673
10326SOL    HW136298  10.859   1.727   1.998  0.0177  0.3386  1.4433
10326SOL    HW236299  10.734   1.711   1.913  1.0304  0.3194 -0.0845
10327SOL     OW36300   6.014   0.256   3.087 -0.3797  0.2965 -0.2747
10327SOL    HW136301   6.018   0.259   3.182  0.9507 -0.8714 -0.2673
10327SOL    HW236302   6.103   0.279   3.058 -0.0378 -1.8542 -1.1215
10328SOL     OW36303  10.595   7.715  10.486  0.0850 -0.2914  0.4549
10328SOL    HW136304  10.619   7.706  10.394 -0.8697  0.2865  0.1324
10328SOL    HW236305  10.501   7.735  10.484 -0.0751 -0.8902  1.5810
10329SOL     OW36306   3.979   5.276   0.963  0.0332  0.1167  0.4406
10329SOL    HW136307   3.930   5.321   1.032 -2.2283 -1.6465  0.1034
10329SOL    HW236308   4.047   5.338   0.938 -1.0339  2.0778  2.0562
10330SOL     OW36309   4.371   0.017   6.500  0.4107  0.3329  0.4988
10330SOL    HW136310   4.378  -0.042   6.575 -0.0946 -3.0244 -1.8799
10330SOL    HW236311   4.459   0.053   6.488  0.9812 -0.7025  1.4598
10331SOL     OW36312   3.737  11.338   4.915 -0.6260  0.0166  0.9020
10331SOL    HW136313   3.735  11.302   4.827  1.1061  1.3741  0.2491
10331SOL    HW236314   3.687  11.275   4.968 -1.3680 -1.0235 -0.9371
10332SOL     OW36315  10.834   6.507   4.473 -0.1892 -0.1324  0.0446
10332SOL    HW136316  10.822   6.555   4.555  0.4929 -0.0001  0.0705
10332SOL    HW236317  10.821   6.415   4.497  2.1505 -0.3219  0.7699
10333SOL     OW36318  11.045   5.024   8.919  0.6113 -0.1626  0.0336
10333SOL    HW136319  10.983   5.095   8.906  0.6248 -0.4674 -2.1589
10333SOL    HW236320  11.107   5.057   8.985 -1.5847  0.2778  1.9925
10334SOL     OW36321   3.321   2.955  10.627  0.2826  0.1006  0.1650
10334SOL    HW136322   3.417   2.959  10.634  0.1369  1.5856  1.9600
10334SOL    HW236323   3.296   3.038  10.588 -0.3117 -0.2242 -0.1667
10335SOL     OW36324   6.745   8.684   4.967 -0.4101  0.2660  0.6631
10335SOL    HW136325   6.695   8.608   4.997  1.9232 -1.2968  0.9198
10335SOL    HW236326   6.751   8.673   4.872 -0.3989  0.3409  0.6549
10336SOL     OW36327  10.718   6.841   5.394  0.4966  0.0107  0.0164
10336SOL    HW136328  10.810   6.815   5.393  0.5685  0.2847 -0.3671
10336SOL    HW236329  10.720   6.937   5.390  0.3761  0.4463  4.7364
10337SOL     OW36330   2.299  10.117   5.126 -0.2286 -1.0387  0.0069
10337SOL    HW136331   2.216  10.151   5.160 -1.6581 -2.7828 -1.5435
10337SOL    HW236332   2.354  10.195   5.117 -1.6377  0.1617  1.1640
10338SOL     OW36333   8.302   8.811   2.142 -0.2420  0.4741 -0.3669
10338SOL    HW136334   8.309   8.741   2.078 -0.6688  0.4943 -0.4421
10338SOL    HW236335   8.378   8.867   2.126  0.7592 -0.5833  0.4534
10339SOL     OW36336  10.422  11.455  11.763  0.3968 -0.3302 -0.0775
10339SOL    HW136337  10.397  11.371  11.802  0.5044 -0.3867 -0.1320
10339SOL    HW236338  10.451  11.508  11.838  2.0209 -0.9334 -0.2532
10340SOL     OW36339   3.078   7.562   7.564  0.0498 -0.0931 -0.0945
10340SOL    HW136340   3.000   7.594   7.609 -0.7300  0.2735 -1.6326
10340SOL    HW236341   3.046   7.495   7.504  0.7460  0.7370 -1.4525
10341SOL     OW36342   0.007   9.971   0.942 -0.2171 -0.1340  0.1681
10341SOL    HW136343   0.087  10.016   0.969  0.8351 -2.4837  1.2961
10341SOL    HW236344   0.014   9.965   0.847 -0.7224  2.4937 -0.1180
10342SOL     OW36345   2.699   9.995   3.490 -0.0446 -0.5141 -0.2433
10342SOL    HW136346   2.761   9.963   3.424 -0.6625  0.6761 -1.4606
10342SOL    HW236347   2.740   9.974   3.574  1.7643 -0.2314 -1.0086
10343SOL     OW36348   2.401  10.472   5.666  0.7722  1.1312 -0.0907
10343SOL    HW136349   2.315  10.441   5.639  0.8802  0.3088  0.4765
10343SOL    HW236350   2.416  10.550   5.612 -0.9471  2.1495  0.7780
10344SOL     OW36351   2.518   9.805   1.263  0.3391 -0.6214 -0.4038
10344SOL    HW136352   2.456   9.767   1.201  1.1160  0.4916 -1.9178
10344SOL    HW236353   2.599   9.755   1.250  0.0828 -1.4119  0.8553
10345SOL     OW36354   3.820   8.102   7.483 -0.2475 -0.0013  0.0847
10345SOL    HW136355   3.863   8.021   7.456 -0.6670 -0.4614  0.7464
10345SOL    HW236356   3.809   8.093   7.578 -0.3440  0.8104  0.1585
10346SOL     OW36357   9.872   0.525   9.727  0.3443  0.4305  0.1118
10346SOL    HW136358   9.811   0.506   9.656 -0.4705 -1.0859  1.1717
10346SOL    HW236359   9.930   0.592   9.691 -0.7212  0.4935 -1.5964
10347SOL     OW36360  11.681   5.624   0.717  0.5365 -0.4931 -0.4952
10347SOL    HW136361  11.667   5.604   0.625  0.0970 -0.1543 -0.5071
10347SOL    HW236362  11.683   5.719   0.722  2.1643 -0.5089 -0.3685
10348SOL     OW36363   4.949  11.160   6.387  0.0220  0.2700 -0.4054
10348SOL    HW136364   4.860  11.196   6.389 -0.7782 -1.6240 -0.4117
10348SOL    HW236365   4.985  11.188   6.303 -0.9900  0.0682 -0.9112
10349SOL     OW36366   5.424  10.572   1.622  0.3226  0.5242  0.4070
10349SOL    HW136367   5.432  10.655   1.575  5.0759 -0.5409 -1.2361
10349SOL    HW236368   5.377  10.515   1.562 -0.2837  1.1873  0.2346
10350SOL     OW36369   7.085  10.208   1.471  0.6546 -0.4840 -0.2320
10350SOL    HW136370   7.013  10.236   1.527  1.2719 -0.7793  0.7348
10350SOL    HW236371   7.156  10.269   1.490  0.4902  0.1869 -1.6308
10351SOL     OW36372   7.720   4.900   7.170  1.3612  0.5548 -0.2084
10351SOL    HW136373   7.628   4.881   7.190  1.7306 -1.9188 -0.4751
10351SOL    HW236374   7.735   4.988   7.204 -1.2240  1.2253 -0.6003
10352SOL     OW36375   3.910   2.253   7.657  0.4226  0.6940 -0.6647
10352SOL    HW136376   3.931   2.186   7.592  0.1189  0.4718 -0.5369
10352SOL    HW236377   3.931   2.336   7.614 -2.1565  0.7443 -2.0288
10353SOL     OW36378   1.707   5.020  10.573  0.1393 -0.5154  0.3612
10353SOL    HW136379   1.713   5.097  10.516 -0.7795 -1.3533 -0.9057
10353SOL    HW236380   1.719   5.055  10.661  2.5425  0.7119 -0.3507
10354SOL     OW36381   7.887   8.767   0.352 -0.2000  0.2902 -0.3905
10354SOL    HW136382   7.906   8.676   0.329 -0.3711 -0.2445  1.4212
10354SOL    HW236383   7.886   8.768   0.448 -0.6130  2.1235 -0.3713
10355SOL     OW36384   8.850   8.108   7.478  0.2676 -0.5214 -1.2311
10355SOL    HW136385   8.785   8.059   7.528  0.5559 -1.4018 -1.6874
10355SOL    HW236386   8.800   8.155   7.412 -0.0327 -0.0266 -0.6609
10356SOL     OW36387   5.212   3.097   4.705 -0.0394  0.1337  0.2385
10356SOL    HW136388   5.129   3.073   4.664 -0.7099  1.2699  0.8739
10356SOL    HW236389   5.237   3.019   4.755 -1.5413  0.2857  1.3062
10357SOL     OW36390   8.017  10.630   5.517 -0.0819  0.0101 -0.1937
10357SOL    HW136391   8.040  10.712   5.560 -0.1033  0.0785 -0.3112
10357SOL    HW236392   8.088  10.570   5.539  0.4475  0.3509 -0.9256
10358SOL     OW36393   6.222   8.133   8.191  0.1153 -0.1284  0.3679
10358SOL    HW136394   6.245   8.142   8.284  0.2253 -0.3787  0.3654
10358SOL    HW236395   6.286   8.071   8.157  1.3954  1.5347 -0.3746
10359SOL     OW36396   6.158   7.734   1.907 -0.1873  0.2219 -0.6569
10359SOL    HW136397   6.216   7.757   1.979 -1.3363  1.0749  0.0245
10359SOL    HW236398   6.176   7.642   1.890  0.7246  0.2445  0.1221
10360SOL     OW36399  10.287   2.771   8.974 -0.0270  0.0932  0.6219
10360SOL    HW136400  10.211   2.778   9.031  0.7987  0.6584  1.6761
10360SOL    HW236401  10.354   2.730   9.028  1.0833  1.5443  0.4045
10361SOL     OW36402   4.835   9.331  11.300 -0.1053 -0.0721 -0.3888
10361SOL    HW136403   4.929   9.330  11.316 -0.4140 -1.5279  1.5510
10361SOL    HW236404   4.808   9.420  11.324  1.2088  1.6764 -4.4687
10362SOL     OW36405  10.430   6.566  10.046  0.0649 -0.0881 -0.2639
10362SOL    HW136406  10.496   6.567  10.115 -0.0311  1.7284 -0.1447
10362SOL    HW236407  10.377   6.489  10.064  2.3667 -1.8603 -0.6168
10363SOL     OW36408   0.934   6.981  11.776  0.4683  0.1097 -0.0196
10363SOL    HW136409   0.867   6.979  11.707 -0.4563  0.0583  0.8623
10363SOL    HW236410   0.900   6.924  11.844  0.7419  1.2005  1.0554
10364SOL     OW36411   5.973   2.934   6.567 -0.2253  0.4634 -0.3323
10364SOL    HW136412   5.973   2.840   6.552  1.6643  0.2933  0.4641
10364SOL    HW236413   5.939   2.971   6.485  1.4063 -0.7995 -1.6442
10365SOL     OW36414   3.062   7.113  11.158  0.3515  0.5762 -0.3597
10365SOL    HW136415   3.048   7.152  11.245 -0.8062 -1.4745  0.4320
10365SOL    HW236416   2.989   7.146  11.106  0.8700  1.5556 -0.5010
10366SOL     OW36417   8.211   5.233   6.538 -0.2046 -0.3599  0.5871
10366SOL    HW136418   8.189   5.174   6.610 -2.0159 -0.3252  0.0957
10366SOL    HW236419   8.136   5.292   6.530 -0.0120 -0.2889 -1.2435
10367SOL     OW36420   5.511   6.563   5.644  0.0633  0.0456 -0.5508
10367SOL    HW136421   5.475   6.618   5.713  0.2041 -1.0308  0.4149
10367SOL    HW236422   5.604   6.585   5.641  0.4503 -1.2120  0.9355
10368SOL     OW36423  10.951   8.162   9.062  0.3453  0.6006 -0.3508
10368SOL    HW136424  10.972   8.246   9.022 -2.5156  0.8182 -1.6573
10368SOL    HW236425  10.970   8.097   8.994  1.3661  0.2884  0.2122
10369SOL     OW36426   6.039   6.274   0.255  0.1216  0.4681 -0.3580
10369SOL    HW136427   6.093   6.239   0.184  0.2639 -0.1301  0.0344
10369SOL    HW236428   5.951   6.276   0.219 -0.2305 -2.1397  0.2133
10370SOL     OW36429   7.319   5.737   4.162 -0.1645 -0.2723 -0.2803
10370SOL    HW136430   7.270   5.787   4.096 -0.4991  0.5873  0.5950
10370SOL    HW236431   7.251   5.698   4.217  0.1196 -0.9277 -0.3781
10371SOL     OW36432   5.624   0.157  10.025  0.1646  0.2401  0.0428
10371SOL    HW136433   5.559   0.141  10.093  0.0050 -1.7035 -0.5156
10371SOL    HW236434   5.691   0.089  10.039  0.2104 -0.1009 -1.6137
10372SOL     OW36435   6.302   5.226   3.935 -0.6043 -0.4300  0.7219
10372SOL    HW136436   6.298   5.132   3.915  1.5503 -0.3003 -0.6660
10372SOL    HW236437   6.261   5.268   3.859  0.9671 -0.1890 -0.0271
10373SOL     OW36438   0.539   1.043   6.559  0.5245  0.3483  0.3356
10373SOL    HW136439   0.534   1.098   6.637  0.5195  1.5885 -0.5015
10373SOL    HW236440   0.449   1.012   6.546  0.2637  1.1683  0.1226
10374SOL     OW36441  10.713   2.666   9.191  0.2781  0.0982  0.7171
10374SOL    HW136442  10.724   2.761   9.195  0.1364  0.0915  1.3265
10374SOL    HW236443  10.682   2.649   9.102  0.2838  0.6245  0.6125
10375SOL     OW36444   6.488   0.223   3.837 -0.2705  0.2456 -0.3392
10375SOL    HW136445   6.417   0.240   3.898 -0.4154  0.3310 -0.5321
10375SOL    HW236446   6.469   0.279   3.761  0.7833  1.4200  0.2130
10376SOL     OW36447  10.227   8.648   3.045 -0.6051 -0.0803  0.5028
10376SOL    HW136448  10.239   8.732   3.090 -0.1544 -0.4882  1.1552
10376SOL    HW236449  10.316   8.615   3.032 -0.6825  0.3778 -1.3802
10377SOL     OW36450   0.938  11.079  11.547 -0.3194 -0.4585  0.0424
10377SOL    HW136451   1.019  11.054  11.503 -0.0189 -0.0690  0.3622
10377SOL    HW236452   0.869  11.062  11.483 -0.1013 -1.7969  0.1400
10378SOL     OW36453   5.888   2.819   9.387 -0.1631 -0.5102 -0.0253
10378SOL    HW136454   5.817   2.869   9.347  0.7990 -0.4681 -1.7923
10378SOL    HW236455   5.927   2.878   9.451 -0.2309  0.3488 -0.7500
10379SOL     OW36456   6.419   6.210   3.035 -0.4034 -0.1563 -0.2387
10379SOL    HW136457   6.445   6.293   2.995 -0.9058  0.1426  0.0500
10379SOL    HW236458   6.453   6.143   2.975  1.9271  0.1630  0.6347
10380SOL     OW36459   1.713  10.140  11.115  0.3793  0.1081 -0.0322
10380SOL    HW136460   1.643  10.182  11.065  0.5883  0.1020 -0.3309
10380SOL    HW236461   1.684  10.049  11.124  1.2997 -0.4177 -1.9459
10381SOL     OW36462   9.740  11.101   5.481 -0.0834  0.0488 -0.0191
10381SOL    HW136463   9.799  11.150   5.423 -0.8638  1.4831  0.3500
10381SOL    HW236464   9.790  11.093   5.563 -0.2239  0.8813  0.1545
10382SOL     OW36465   2.271   5.955   4.982  0.1380  0.4385  0.3710
10382SOL    HW136466   2.196   5.940   4.923  0.3746  0.0292  0.1716
10382SOL    HW236467   2.251   6.039   5.024 -0.6008  0.1725  0.5737
10383SOL     OW36468   5.010   9.329  10.706  0.5440 -0.3007 -0.5689
10383SOL    HW136469   4.973   9.253  10.660  0.4053 -1.1765  0.9358
10383SOL    HW236470   5.095   9.298  10.738  0.5170  0.2039  0.0023
10384SOL     OW36471   5.431   1.207   2.040  0.4916  0.7441 -0.2440
10384SOL    HW136472   5.493   1.278   2.025  0.7757  0.3907 -0.7807
10384SOL    HW236473   5.455   1.172   2.126 -0.0373  1.6723  0.2958
10385SOL     OW36474  10.403   0.990   7.195 -0.1349  0.5876 -0.2429
10385SOL    HW136475  10.358   1.063   7.237  0.8755  0.9806  0.1806
10385SOL    HW236476  10.362   0.984   7.109 -1.2784  0.6621  0.2764
10386SOL     OW36477   2.046   4.915   1.578  0.4831  0.1372 -0.4558
10386SOL    HW136478   2.116   4.854   1.601  0.4998  0.6291  0.8944
10386SOL    HW236479   2.088   5.000   1.572 -0.0589  0.5292  0.9170
10387SOL     OW36480   8.728   9.325   9.952  0.2618  0.2739  0.1861
10387SOL    HW136481   8.822   9.309   9.957  0.4990  1.4569 -0.2594
10387SOL    HW236482   8.719   9.406   9.902 -0.9663  0.4620  0.6603
10388SOL     OW36483   9.482   2.466   6.962 -0.2935 -0.3276 -0.0943
10388SOL    HW136484   9.503   2.442   7.053 -0.7991 -0.1671  0.0667
10388SOL    HW236485   9.403   2.520   6.969  1.5101  2.5251 -0.3114
10389SOL     OW36486   1.229   3.886   5.621 -0.4664  0.5666  0.6658
10389SOL    HW136487   1.224   3.798   5.659 -1.5332  1.1823  2.0605
10389SOL    HW236488   1.318   3.915   5.640 -0.1847 -0.1128  0.4101
10390SOL     OW36489   9.585   4.999   5.220 -0.5711 -0.0115  0.3898
10390SOL    HW136490   9.492   4.976   5.224 -0.8951  1.2157  0.1367
10390SOL    HW236491   9.586   5.088   5.186  0.7933 -0.6456 -1.3286
10391SOL     OW36492   9.851   1.992   8.970 -0.1325  0.4006  0.1332
10391SOL    HW136493   9.896   1.958   8.892 -0.5974  0.9898 -0.4043
10391SOL    HW236494   9.863   1.924   9.036 -1.2120 -0.9032 -0.9649
10392SOL     OW36495   1.849   4.695   6.120  0.1715 -0.1236  0.0662
10392SOL    HW136496   1.925   4.722   6.171  0.0017  0.7118 -0.1160
10392SOL    HW236497   1.884   4.639   6.051  0.8662  1.7054 -1.1290
10393SOL     OW36498   0.217   6.277   4.746  0.8226 -0.3727 -0.1562
10393SOL    HW136499   0.290   6.310   4.694  0.8124  0.2219  0.1988
10393SOL    HW236500   0.145   6.267   4.684  1.1986 -0.9585 -0.5066
10394SOL     OW36501  11.142   2.096   4.788 -0.3264  0.1904 -0.2997
10394SOL    HW136502  11.208   2.043   4.832  1.1425  0.7427 -1.7457
10394SOL    HW236503  11.101   2.035   4.726 -0.3837  0.1225 -0.1946
10395SOL     OW36504   0.986   1.953   4.358  0.0125  0.0331  0.3029
10395SOL    HW136505   0.901   1.929   4.322  0.4556  0.6290 -1.2596
10395SOL    HW236506   1.043   1.958   4.281  1.1383  0.9530  1.1666
10396SOL     OW36507   8.330   4.225   1.073  0.5984  0.0163 -0.3165
10396SOL    HW136508   8.368   4.279   1.142 -0.8848 -0.4188  0.9078
10396SOL    HW236509   8.321   4.283   0.998  2.0575  0.5607 -0.0925
10397SOL     OW36510   2.807   6.452   5.125 -0.1459 -0.0373 -0.1785
10397SOL    HW136511   2.750   6.377   5.108 -1.2818  0.6317  0.6191
10397SOL    HW236512   2.748   6.526   5.137  0.9423  0.9349 -0.5692
10398SOL     OW36513   2.807  10.671   9.761 -0.4191  0.2078 -0.2662
10398SOL    HW136514   2.838  10.581   9.762 -2.6819 -0.6556  0.4060
10398SOL    HW236515   2.874  10.720   9.715  1.4478 -1.5980  0.4019
10399SOL     OW36516   8.605   9.378   6.708  0.6010 -0.4074  0.0557
10399SOL    HW136517   8.627   9.285   6.705 -1.2067 -0.8281 -1.1408
10399SOL    HW236518   8.550   9.388   6.785 -0.8692 -0.7461 -0.9206
10400SOL     OW36519   1.697   1.208   9.396 -0.4076  0.1817  0.5492
10400SOL    HW136520   1.695   1.183   9.488 -0.7007  0.9038  0.7468
10400SOL    HW236521   1.644   1.142   9.352  1.0566 -1.1137  0.6420
10401SOL     OW36522   9.809  10.176   4.554  0.3285  0.1340  0.1538
10401SOL    HW136523   9.845  10.087   4.550  0.0364  0.0699 -1.1293
10401SOL    HW236524   9.783  10.197   4.465 -1.4737  0.7580  0.7820
10402SOL     OW36525   1.617   8.312   4.771 -0.0732  0.4261  0.0374
10402SOL    HW136526   1.659   8.349   4.848  1.4597  0.2526 -0.6802
10402SOL    HW236527   1.543   8.262   4.805  1.1928 -0.5263  1.4922
10403SOL     OW36528   3.068   2.830   0.399  0.4572  0.3946  0.2596
10403SOL    HW136529   2.990   2.792   0.440  1.9866 -1.8670  1.2925
10403SOL    HW236530   3.071   2.789   0.313  1.2254 -0.6575  0.7615
10404SOL     OW36531   0.715   5.960   1.445 -0.1099  0.9983 -0.9356
10404SOL    HW136532   0.720   5.985   1.353 -0.4897 -1.6856 -1.7926
10404SOL    HW236533   0.623   5.973   1.468 -0.3859  0.1535 -1.4847
10405SOL     OW36534   3.368   3.382   0.838  0.3618 -0.2879 -0.3198
10405SOL    HW136535   3.437   3.336   0.791 -0.2827 -1.0095 -0.5764
10405SOL    HW236536   3.287   3.344   0.805 -0.1910  1.0040 -0.4976
10406SOL     OW36537   7.487   2.132   2.137 -0.4164  0.0868 -0.4508
10406SOL    HW136538   7.490   2.092   2.224 -0.9178  1.8662  0.4424
10406SOL    HW236539   7.572   2.113   2.099  0.6578  1.0461  1.3102
10407SOL     OW36540   8.086   8.304  11.596 -0.4196  0.0969  0.1367
10407SOL    HW136541   8.094   8.243  11.669  0.1641 -0.9127 -0.7363
10407SOL    HW236542   8.043   8.381  11.633  1.7075  0.4750  2.0410
10408SOL     OW36543   8.244   1.631   7.777  0.4086  0.4581 -0.4719
10408SOL    HW136544   8.180   1.597   7.839  1.0392  0.6432  0.2981
10408SOL    HW236545   8.263   1.720   7.808  0.3613  0.7346 -1.2212
10409SOL     OW36546  10.474   8.287   3.361 -0.1017  0.1220  0.2439
10409SOL    HW136547  10.392   8.330   3.339 -0.6232 -0.3056  1.3108
10409SOL    HW236548  10.542   8.347   3.329 -0.8067  0.1421 -1.2912
10410SOL     OW36549   5.136   4.186   2.651 -0.0339  0.7349  0.0684
10410SOL    HW136550   5.067   4.235   2.698 -0.3387  0.8719 -0.5132
10410SOL    HW236551   5.105   4.183   2.560  0.5475  0.4607 -0.1215
10411SOL     OW36552   4.223  11.819   3.693  0.0939 -0.0855 -1.0086
10411SOL    HW136553   4.291  11.751   3.702  0.3875  0.3962  1.0390
10411SOL    HW236554   4.272  11.902   3.698 -0.6054  0.2720  0.8944
10412SOL     OW36555   0.685   7.415   4.969 -0.0589  0.6871 -0.0981
10412SOL    HW136556   0.747   7.413   4.896 -0.6576  0.9975 -0.6247
10412SOL    HW236557   0.662   7.507   4.979  0.5569  0.7370  0.9522
10413SOL     OW36558   2.673  10.033   9.163 -0.7057 -0.3579  0.6837
10413SOL    HW136559   2.677   9.945   9.201  1.8602 -0.2960  0.7150
10413SOL    HW236560   2.583  10.040   9.129 -1.2922 -2.5805  1.5873
10414SOL     OW36561   9.908   4.359   9.654  0.3319 -0.0429 -0.2994
10414SOL    HW136562   9.855   4.438   9.658 -0.4653 -0.5928  0.1386
10414SOL    HW236563   9.887   4.311   9.734  2.6544  0.4444  0.6766
10415SOL     OW36564   1.237   7.157   9.860  0.4253  0.2122  0.0793
10415SOL    HW136565   1.321   7.198   9.878  0.7766  0.6936 -2.3186
10415SOL    HW236566   1.222   7.172   9.767 -2.1460 -0.2017  0.3434
10416SOL     OW36567   3.826   0.246  11.339  0.0667 -0.1945  1.0102
10416SOL    HW136568   3.849   0.265  11.430  0.1188  0.8044  0.8096
10416SOL    HW236569   3.889   0.298  11.288  1.2603 -2.1633  0.3615
10417SOL     OW36570   4.093   8.448   6.898 -0.6131 -0.1920  0.2939
10417SOL    HW136571   4.112   8.357   6.878 -3.5716 -0.2683 -3.0625
10417SOL    HW236572   4.177   8.493   6.888  0.6881 -2.3161  0.9379
10418SOL     OW36573   5.697   0.467   5.925  0.0569  0.1844 -0.1280
10418SOL    HW136574   5.631   0.497   5.863 -1.4058 -0.3184  1.1174
10418SOL    HW236575   5.718   0.545   5.977 -0.6876  0.0053  0.4488
10419SOL     OW36576   9.269   2.801   1.340 -0.0204 -0.1082  0.4721
10419SOL    HW136577   9.294   2.884   1.379 -0.6719  0.7123 -0.7703
10419SOL    HW236578   9.214   2.759   1.406  0.4092  0.3956  1.1599
10420SOL     OW36579   0.812   5.966  11.294  0.1628 -0.6150  0.1577
10420SOL    HW136580   0.793   5.954  11.387  0.9783 -0.0354  0.4092
10420SOL    HW236581   0.860   6.048  11.289 -0.6435 -0.1813 -0.8924
10421SOL     OW36582   5.733   2.902   0.839 -0.0522  0.0333  0.3618
10421SOL    HW136583   5.791   2.859   0.902  1.3509  0.6491 -0.4594
10421SOL    HW236584   5.662   2.938   0.893 -0.6306 -2.2124  1.1877
10422SOL     OW36585   8.265   2.043   5.766 -0.1051 -0.0908 -0.1995
10422SOL    HW136586   8.311   1.960   5.751  1.5996  0.8943 -0.6137
10422SOL    HW236587   8.283   2.096   5.689 -1.7081  0.4716 -0.2340
10423SOL     OW36588  10.983   8.573   7.279 -0.3761 -0.1794 -0.3039
10423SOL    HW136589  10.942   8.571   7.365  0.4964 -0.7598  0.1096
10423SOL    HW236590  10.945   8.498   7.232  0.9329 -1.3467  0.4365
10424SOL     OW36591   1.278  10.539   8.168 -0.3947 -0.6282  0.8705
10424SOL    HW136592   1.323  10.594   8.232 -0.3922  1.7255 -1.0503
10424SOL    HW236593   1.185  10.561   8.178 -0.4136 -0.3923  0.2167
10425SOL     OW36594   5.530   1.023   3.931 -0.2067  0.1567  0.3038
10425SOL    HW136595   5.544   1.082   4.006  1.4926  1.4461 -0.9498
10425SOL    HW236596   5.438   1.036   3.907  0.4213  3.5113 -0.8221
10426SOL     OW36597   7.870   2.161   4.245 -0.4389 -0.1191 -0.2492
10426SOL    HW136598   7.778   2.177   4.268 -0.4189 -1.0277  0.4897
10426SOL    HW236599   7.866   2.096   4.175 -0.3162 -1.6363  1.1065
10427SOL     OW36600   4.913   6.052   1.346  0.3465 -0.3957 -0.5872
10427SOL    HW136601   4.854   5.996   1.297 -1.9518  0.8000  0.6525
10427SOL    HW236602   4.902   6.139   1.307 -0.7849  0.3696  1.2914
10428SOL     OW36603   6.301   7.644   5.053  0.1668  0.0111 -0.2223
10428SOL    HW136604   6.272   7.578   4.990 -0.4690  1.3691 -1.4134
10428SOL    HW236605   6.297   7.600   5.138  1.4533 -2.0188 -1.1258
10429SOL     OW36606   9.712   6.551   9.433 -0.5535 -0.2401  0.3960
10429SOL    HW136607   9.716   6.547   9.529  1.8434 -0.0323  0.3604
10429SOL    HW236608   9.653   6.480   9.409 -0.9683 -0.4877  1.9868
10430SOL     OW36609   1.955   1.825   4.042 -0.0998  0.5931  0.6462
10430SOL    HW136610   2.044   1.858   4.025 -0.8966  1.9259 -1.3567
10430SOL    HW236611   1.938   1.848   4.133  0.9439  2.0165  0.5209
10431SOL     OW36612   2.017  10.592   3.518  0.1290 -0.7270 -0.0848
10431SOL    HW136613   1.970  10.632   3.444 -0.0855  0.1409  0.5043
10431SOL    HW236614   2.055  10.512   3.482 -1.3390 -1.1722 -0.7276
10432SOL     OW36615   6.238   1.577   0.126  0.1558 -0.2556 -0.0485
10432SOL    HW136616   6.201   1.561   0.039  0.4303  0.8251 -0.3765
10432SOL    HW236617   6.320   1.527   0.127 -0.3143 -1.0517 -0.0424
10433SOL     OW36618   4.770   7.858   9.173 -0.7453  0.0271  0.2086
10433SOL    HW136619   4.730   7.943   9.153 -1.2022 -0.1717  0.2457
10433SOL    HW236620   4.835   7.877   9.240  0.3808  0.6064 -1.0093
10434SOL     OW36621  11.758  10.070   0.196 -0.3505 -0.2018 -0.3710
10434SOL    HW136622  11.670  10.102   0.218 -0.5967 -1.3883  0.4104
10434SOL    HW236623  11.817  10.139   0.228 -0.8980 -0.2782  0.8485
10435SOL     OW36624   6.861   2.951   8.783  0.2095 -0.2453  0.5617
10435SOL    HW136625   6.837   3.040   8.756 -1.1554 -0.5058  0.8644
10435SOL    HW236626   6.787   2.897   8.757  0.3724 -1.0600  1.7269
10436SOL     OW36627   8.026   5.816   0.075 -0.4914 -0.4433 -0.7081
10436SOL    HW136628   8.087   5.758   0.120 -1.2113 -0.6865 -0.0235
10436SOL    HW236629   8.067   5.835  -0.009 -1.0232 -3.3663 -1.7344
10437SOL     OW36630   9.591   7.939   6.591  0.2400 -0.0981  0.2854
10437SOL    HW136631   9.578   7.910   6.682 -0.1697  0.3249  0.3707
10437SOL    HW236632   9.682   7.919   6.572 -0.0342 -1.4915  0.3117
10438SOL     OW36633   9.495  10.765   5.988  0.0316 -0.0869  0.0728
10438SOL    HW136634   9.452  10.685   6.018  1.7430 -1.7870 -1.7516
10438SOL    HW236635   9.513  10.814   6.069 -1.6714 -1.1515  1.1746
10439SOL     OW36636  10.801   5.475   6.989 -0.3330 -0.3703  0.1217
10439SOL    HW136637  10.856   5.405   7.026  1.3460  0.0988 -1.3407
10439SOL    HW236638  10.854   5.554   6.999  0.3104 -0.2353 -3.2975
10440SOL     OW36639   6.361   3.460   7.557 -0.5659 -0.3345  0.4902
10440SOL    HW136640   6.302   3.482   7.629 -0.1000  0.5804  0.6086
10440SOL    HW236641   6.342   3.368   7.537 -3.4073  0.4193 -0.7679
10441SOL     OW36642  11.054   2.641   4.581  0.3952 -0.1286 -0.4798
10441SOL    HW136643  11.001   2.699   4.635  2.2667  0.7942  0.4880
10441SOL    HW236644  11.049   2.556   4.624 -1.2641 -0.3881 -1.1257
10442SOL     OW36645   6.948   7.420   0.509 -0.0568  0.7264 -0.1700
10442SOL    HW136646   6.906   7.387   0.430  0.2529 -0.6273  0.1926
10442SOL    HW236647   6.942   7.515   0.503 -0.8645  0.6119 -1.3568
10443SOL     OW36648   4.619   7.940   1.939 -0.0434 -0.1402 -0.2743
10443SOL    HW136649   4.689   8.001   1.918  1.5939 -1.8633 -0.1750
10443SOL    HW236650   4.539   7.992   1.935  1.2591  2.0103 -0.0104
10444SOL     OW36651   0.192   7.095   4.189  0.1217 -0.4446 -0.1724
10444SOL    HW136652   0.218   7.006   4.167  0.2470 -0.5957  0.5482
10444SOL    HW236653   0.111   7.084   4.239  0.6300 -0.2265  0.7259
10445SOL     OW36654   2.311  11.728   2.590  0.0939 -0.3677  0.5343
10445SOL    HW136655   2.277  11.721   2.679 -0.0487 -1.3458  0.4187
10445SOL    HW236656   2.343  11.818   2.583 -0.3639 -0.1255  1.3988
10446SOL     OW36657   0.341   3.284   6.319  0.2126  0.5417  0.5520
10446SOL    HW136658   0.408   3.257   6.256  1.0691 -0.9834  2.0261
10446SOL    HW236659   0.388   3.334   6.385 -0.5581  1.5275  0.3940
10447SOL     OW36660   9.111   2.913   7.602  0.1077  0.1364 -0.1485
10447SOL    HW136661   9.113   2.818   7.614  0.4756  0.2615  0.8827
10447SOL    HW236662   9.195   2.933   7.560 -1.0076 -0.2552 -2.7116
10448SOL     OW36663   5.331   4.723   8.024  0.5598 -0.8436 -0.4178
10448SOL    HW136664   5.300   4.637   7.995 -1.8327  0.0222 -0.6942
10448SOL    HW236665   5.252   4.767   8.056  2.0162  0.6380  1.3588
10449SOL     OW36666   6.371   2.935  11.267  0.0082  0.2364  0.5584
10449SOL    HW136667   6.436   2.882  11.221 -0.4196 -1.7906  2.1418
10449SOL    HW236668   6.396   2.929  11.360 -0.5757  2.1211  0.8794
10450SOL     OW36669   0.175  10.229   9.328  0.4693  0.7739  0.3886
10450SOL    HW136670   0.247  10.288   9.306 -0.4993  1.6273 -0.6361
10450SOL    HW236671   0.101  10.261   9.276 -0.0122 -1.5666 -0.5214
10451SOL     OW36672   1.559   6.615   1.057  0.3459  0.1622 -0.5332
10451SOL    HW136673   1.464   6.609   1.048  0.2745  0.1071  0.1800
10451SOL    HW236674   1.577   6.584   1.146  1.2162 -1.4860 -1.2410
10452SOL     OW36675  10.421   0.546   9.916  0.0032 -0.5850  0.1610
10452SOL    HW136676  10.505   0.533   9.960  0.9796  3.8004  0.0221
10452SOL    HW236677  10.362   0.577   9.985 -0.2070  0.5448 -0.5028
10453SOL     OW36678   5.838   4.401   6.803 -0.2595  0.6258  0.2206
10453SOL    HW136679   5.861   4.315   6.839 -1.4416 -0.6546 -1.8832
10453SOL    HW236680   5.917   4.430   6.758 -0.0406  0.3321  0.4111
10454SOL     OW36681   9.932   7.518   0.283  0.2107  0.4962  0.0394
10454SOL    HW136682   9.913   7.612   0.295  0.9308  0.9531 -2.0158
10454SOL    HW236683  10.027   7.515   0.271 -0.1296 -0.0066 -3.3244
10455SOL     OW36684   5.796   1.518  10.810  0.0005 -0.5071  0.2195
10455SOL    HW136685   5.772   1.525  10.718 -1.7855 -2.1090  0.5014
10455SOL    HW236686   5.795   1.608  10.842 -2.7018 -0.1748 -0.5709
10456SOL     OW36687   4.870   4.309   5.068  0.2871  0.4225 -0.1609
10456SOL    HW136688   4.891   4.403   5.063  2.8885 -0.1109 -0.8992
10456SOL    HW236689   4.818   4.292   4.990 -0.5696  1.3143  0.1943
10457SOL     OW36690   5.415   6.230   0.843 -0.3296  0.0071  0.0372
10457SOL    HW136691   5.487   6.270   0.892  0.8357 -0.3934 -1.3051
10457SOL    HW236692   5.416   6.138   0.870 -1.7603  0.3975  1.6358
10458SOL     OW36693   7.539   1.148   2.440 -0.4810 -0.2855 -0.2324
10458SOL    HW136694   7.459   1.122   2.486 -1.1601  1.7515 -0.1632
10458SOL    HW236695   7.610   1.109   2.492 -1.3389 -0.2611  1.0174
10459SOL     OW36696  11.520   3.753  10.671 -0.2361  0.0281  0.5517
10459SOL    HW136697  11.517   3.849  10.681 -2.6852  0.1733 -0.6467
10459SOL    HW236698  11.491   3.738  10.581 -0.1831 -1.8650  0.8206
10460SOL     OW36699   2.015  10.402   8.927 -0.3159 -0.4319 -0.3996
10460SOL    HW136700   2.098  10.447   8.944 -0.4082 -1.1668  2.6764
10460SOL    HW236701   1.966  10.462   8.871  1.7725  0.6089 -1.1974
10461SOL     OW36702  10.135  11.613   1.304  0.0870  0.2827 -0.2221
10461SOL    HW136703  10.191  11.690   1.292  0.7383 -0.0018  0.9113
10461SOL    HW236704  10.046  11.649   1.305  0.3386  0.9269 -0.4663
10462SOL     OW36705   3.464  10.997   6.662  0.0658  0.3010  0.1021
10462SOL    HW136706   3.491  10.934   6.729 -0.9468  0.1221  0.3654
10462SOL    HW236707   3.545  11.028   6.624  0.6333 -0.1359  0.9262
10463SOL     OW36708   2.091   7.205   7.481 -0.7989 -0.6617  0.7297
10463SOL    HW136709   2.001   7.238   7.488 -0.4097  0.5664  0.2594
10463SOL    HW236710   2.081   7.111   7.467 -2.0726 -0.3647 -0.6753
10464SOL     OW36711   6.924   0.172   7.340 -0.2379  0.0224  0.5950
10464SOL    HW136712   6.957   0.112   7.407  0.6403 -0.6080 -0.3779
10464SOL    HW236713   6.948   0.131   7.257 -2.3767  0.1567 -0.1603
10465SOL     OW36714   0.338   6.207   7.288 -0.2867  0.5900  0.1341
10465SOL    HW136715   0.332   6.236   7.197 -1.5921 -2.5615 -0.9102
10465SOL    HW236716   0.396   6.131   7.285 -0.5329  0.2907  1.9131
10466SOL     OW36717   1.534   5.450   7.076 -0.1062 -0.4640 -0.5737
10466SOL    HW136718   1.569   5.450   6.987 -2.4062 -1.7238 -1.5719
10466SOL    HW236719   1.601   5.495   7.128  2.9474 -2.6975 -2.2396
10467SOL     OW36720   7.591   7.941   1.862 -0.1250 -0.3765  0.3597
10467SOL    HW136721   7.581   7.884   1.938 -0.1501 -0.2892  0.4222
10467SOL    HW236722   7.659   8.003   1.888 -1.0014  0.4205  0.7703
10468SOL     OW36723   3.870   0.578   2.157 -0.2278 -0.1458 -0.6147
10468SOL    HW136724   3.864   0.659   2.106 -0.7069  0.6497  0.6633
10468SOL    HW236725   3.846   0.604   2.246 -0.5823 -1.7389 -0.2224
10469SOL     OW36726   5.605  11.259   6.199  0.0295  0.4895  0.3271
10469SOL    HW136727   5.700  11.258   6.186  0.2655 -3.0951  1.2954
10469SOL    HW236728   5.592  11.309   6.279  0.9221  2.0560 -0.4686
10470SOL     OW36729   6.270   4.043   3.224 -0.5331 -0.2456 -0.1185
10470SOL    HW136730   6.206   4.025   3.293 -0.5471  0.4783  0.0657
10470SOL    HW236731   6.348   4.073   3.271  0.2972 -2.0472 -0.2731
10471SOL     OW36732   0.593   0.682  10.875 -0.2760  0.4156 -0.6890
10471SOL    HW136733   0.637   0.726  10.948 -0.7905 -0.6146  0.2724
10471SOL    HW236734   0.570   0.596  10.909  1.5158 -1.0113 -2.7955
10472SOL     OW36735   4.892   6.834   6.904 -0.3751  0.5061  0.6651
10472SOL    HW136736   4.879   6.753   6.854  1.3568  1.5429 -1.6771
10472SOL    HW236737   4.816   6.888   6.882 -0.2237  0.4904  0.0757
10473SOL     OW36738   2.574   8.945  11.716  0.6884 -0.2412  0.1450
10473SOL    HW136739   2.655   8.957  11.765  0.0756 -0.4892  1.2368
10473SOL    HW236740   2.514   8.903  11.777 -0.3104  0.0445 -0.6076
10474SOL     OW36741  10.795   9.113   0.569  0.2665  0.1486  0.1521
10474SOL    HW136742  10.869   9.166   0.597  0.5691  1.1287 -2.2594
10474SOL    HW236743  10.775   9.058   0.644  0.7228  2.8136  2.3731
10475SOL     OW36744   8.513   2.803   2.621  0.5227  0.3903  0.1865
10475SOL    HW136745   8.507   2.753   2.703  1.1126 -0.2862 -0.1683
10475SOL    HW236746   8.603   2.836   2.620  0.4010  0.7229 -0.0095
10476SOL     OW36747   1.935   1.143   2.996 -0.7078  0.3926  0.2455
10476SOL    HW136748   1.931   1.195   3.076  1.2734  1.8181 -0.4812
10476SOL    HW236749   1.949   1.053   3.026  2.5546  1.1916  1.6346
10477SOL     OW36750   4.076   1.083   4.064  0.0754 -0.3096 -0.4515
10477SOL    HW136751   4.104   1.121   4.147  0.0446  0.0145 -0.5881
10477SOL    HW236752   3.980   1.079   4.070  0.0648 -0.1651 -0.5236
10478SOL     OW36753   7.596   0.858  10.316  0.4230  0.1178  0.0042
10478SOL    HW136754   7.562   0.873  10.404 -1.8630 -2.1144 -0.3743
10478SOL    HW236755   7.581   0.940  10.270  1.9032  1.4241  1.6712
10479SOL     OW36756   2.838   4.846   8.553  0.1657 -0.0952  0.1454
10479SOL    HW136757   2.898   4.918   8.570 -1.3859  1.4446 -0.6610
10479SOL    HW236758   2.788   4.837   8.635  0.9303 -0.8724  0.5478
10480SOL     OW36759  11.803   2.882   9.416  0.2851 -0.1558  0.0244
10480SOL    HW136760  11.779   2.972   9.436  0.9936 -0.1200  0.7211
10480SOL    HW236761  11.849   2.851   9.493  4.7487  0.5672 -2.0507
10481SOL     OW36762  11.517  10.224   6.930  0.0626 -0.5664 -0.1816
10481SOL    HW136763  11.514  10.128   6.930 -0.3814 -0.6147  2.1678
10481SOL    HW236764  11.591  10.245   6.986  0.2042  0.4736 -0.7499
10482SOL     OW36765   7.073   2.554   1.040  0.1239 -0.0828 -0.6370
10482SOL    HW136766   7.023   2.495   1.096  0.0933  0.0461 -0.5260
10482SOL    HW236767   7.104   2.623   1.100 -1.2833  0.9416 -1.0413
10483SOL     OW36768   3.039   4.704   4.679  0.1996  0.9176 -0.2874
10483SOL    HW136769   3.111   4.712   4.616  0.4685 -0.3145 -0.1550
10483SOL    HW236770   3.056   4.622   4.725 -0.3971  1.4424  0.8978
10484SOL     OW36771   2.287   3.216   8.635  0.1708  0.3600 -0.4589
10484SOL    HW136772   2.306   3.216   8.541 -0.4241 -0.8142 -0.5882
10484SOL    HW236773   2.225   3.145   8.647  0.9545 -0.1138  0.9742
10485SOL     OW36774   7.310  10.079   6.193 -0.0335 -0.2143  0.2381
10485SOL    HW136775   7.317  10.120   6.279 -0.5312  2.8438 -1.0362
10485SOL    HW236776   7.220  10.098   6.165  0.1859 -0.9481 -1.0569
10486SOL     OW36777   8.455   9.812   5.066 -0.0306  0.9012  0.0959
10486SOL    HW136778   8.446   9.855   4.981 -0.8779  1.8896  0.6642
10486SOL    HW236779   8.367   9.784   5.089  0.4407 -0.8430 -0.0717
10487SOL     OW36780   2.707   4.498   1.820  0.3408  0.4366  0.2439
10487SOL    HW136781   2.760   4.551   1.761  0.1028  0.3669 -0.0387
10487SOL    HW236782   2.628   4.479   1.770 -0.0075  0.6450  0.7059
10488SOL     OW36783   6.883  10.911   1.961 -0.0746 -0.0962 -0.2567
10488SOL    HW136784   6.899  10.978   2.027 -0.8232  0.7116 -0.8764
10488SOL    HW236785   6.876  10.829   2.011  3.1141 -0.1529  0.3174
10489SOL     OW36786   5.844   0.080   0.253  0.1495 -0.0593  0.4775
10489SOL    HW136787   5.866   0.020   0.182 -1.5976 -1.6708  1.2212
10489SOL    HW236788   5.928   0.113   0.284  0.9992  0.1038 -1.8034
10490SOL     OW36789   8.201  10.264  11.784  0.1079 -0.0104  0.1085
10490SOL    HW136790   8.150  10.294  11.859  1.2841  0.9886  0.5485
10490SOL    HW236791   8.196  10.168  11.787 -0.2775  0.0379  1.1686
10491SOL     OW36792  10.678   3.026   9.467  0.2178 -0.3678  0.1928
10491SOL    HW136793  10.606   2.979   9.510  0.2394 -1.0319 -0.4751
10491SOL    HW236794  10.689   2.980   9.384  0.6361  0.4675 -0.2147
10492SOL     OW36795   7.022   0.143   2.695  0.0802  0.5277 -0.3921
10492SOL    HW136796   7.061   0.056   2.689 -0.7745  0.1930 -1.2080
10492SOL    HW236797   7.096   0.203   2.685  0.8303 -0.0721  1.1411
10493SOL     OW36798   1.155   5.181   1.704 -0.2784  0.3746 -0.4644
10493SOL    HW136799   1.180   5.095   1.670  1.3048  1.0259 -1.0334
10493SOL    HW236800   1.065   5.193   1.675 -0.3806 -0.9057 -0.7287
10494SOL     OW36801   4.704   6.936   1.763  0.6449  0.2923 -0.1488
10494SOL    HW136802   4.780   6.947   1.706  1.3986  1.2584  1.0028
10494SOL    HW236803   4.646   6.878   1.714  1.6977  0.2999 -1.4644
10495SOL     OW36804   1.788   0.954   0.465  0.2105  0.0490 -0.2604
10495SOL    HW136805   1.833   0.923   0.544 -2.5979  1.9232  2.2929
10495SOL    HW236806   1.856   0.999   0.415  1.6926  0.8396  2.2910
10496SOL     OW36807   0.730   9.692   1.081 -0.1323 -0.0750 -0.2642
10496SOL    HW136808   0.675   9.771   1.080 -1.5479 -1.0080 -1.2945
10496SOL    HW236809   0.688   9.634   1.017  2.0281 -0.8875 -1.0182
10497SOL     OW36810   0.098  11.391   6.061  0.4631 -0.0527 -0.1760
10497SOL    HW136811   0.017  11.342   6.071  0.1000  0.5540 -0.0542
10497SOL    HW236812   0.117  11.387   5.968 -0.0145  0.2631 -0.2939
10498SOL     OW36813   4.894   1.951   7.826  0.5321  0.2155 -0.3525
10498SOL    HW136814   4.982   1.924   7.850  1.2873  1.9692 -0.9702
10498SOL    HW236815   4.897   2.047   7.826 -1.3864  0.3279 -0.3445
10499SOL     OW36816   1.645   4.025  11.411 -0.3305 -0.0294  0.5901
10499SOL    HW136817   1.719   4.086  11.415  0.0717 -0.4455 -0.2345
10499SOL    HW236818   1.678   3.945  11.453  0.0991 -0.5997 -0.7690
10500SOL     OW36819   8.024   0.714   4.889  0.3938  0.1894  0.6378
10500SOL    HW136820   8.048   0.776   4.819 -0.9080 -0.4355 -0.3992
10500SOL    HW236821   7.957   0.759   4.939 -2.2310 -1.0692 -1.4525
10501SOL     OW36822   4.323   8.556   3.909 -0.4253 -0.0494  0.0346
10501SOL    HW136823   4.390   8.617   3.880 -0.1798 -0.9349 -1.3607
10501SOL    HW236824   4.345   8.474   3.864 -0.5655 -1.2586  2.0778
10502SOL     OW36825   3.274   7.095   6.240  0.2773  0.0077  0.3461
10502SOL    HW136826   3.205   7.104   6.174 -1.2176  0.5112  1.9193
10502SOL    HW236827   3.307   7.183   6.253 -0.1831  0.0850  1.0311
10503SOL     OW36828   5.453   5.056   6.131 -0.4592  0.2090  0.1689
10503SOL    HW136829   5.480   4.964   6.138 -0.5965  0.1493 -0.1158
10503SOL    HW236830   5.494   5.088   6.051  1.5507  1.0587  1.4363
10504SOL     OW36831   3.452   6.044   5.033  0.1809  0.7315  0.3015
10504SOL    HW136832   3.411   6.121   5.072 -1.3268 -0.0137  0.2255
10504SOL    HW236833   3.525   6.023   5.092 -2.1392 -0.5131  2.9628
10505SOL     OW36834   4.249  10.806   4.356  0.0328 -0.0934 -0.4128
10505SOL    HW136835   4.222  10.894   4.382  0.6505 -0.0215 -0.0043
10505SOL    HW236836   4.240  10.753   4.435 -1.1582 -0.6054 -0.8630
10506SOL     OW36837   8.740   5.303   2.782  0.7435  0.3180 -0.2193
10506SOL    HW136838   8.713   5.281   2.692  0.1776  1.3893 -0.3293
10506SOL    HW236839   8.695   5.239   2.837  0.4292  0.1713 -0.6448
10507SOL     OW36840   1.530   3.669   4.271 -0.2170  0.1805  0.2390
10507SOL    HW136841   1.514   3.586   4.316 -0.9420 -0.4250 -1.0780
10507SOL    HW236842   1.443   3.699   4.244  0.1705  0.6020 -0.5864
10508SOL     OW36843   6.840   7.534   2.754  0.5033  0.5825 -0.1321
10508SOL    HW136844   6.871   7.450   2.788  0.4383  0.9176  0.7832
10508SOL    HW236845   6.862   7.531   2.661  1.6529  0.0698  0.1336
10509SOL     OW36846   8.964   9.781   9.675  0.1688 -0.1671  0.4109
10509SOL    HW136847   9.006   9.699   9.649  1.9969  0.4923  1.1078
10509SOL    HW236848   9.006   9.848   9.621 -0.5866  0.4360  0.5498
10510SOL     OW36849   0.427  10.360   7.999  0.0837  0.0961 -0.4180
10510SOL    HW136850   0.414  10.270   7.970  2.5051 -0.4372 -0.0114
10510SOL    HW236851   0.429  10.412   7.919 -1.4327 -0.1545 -0.6466
10511SOL     OW36852   0.515   5.654  11.772  0.3284 -0.4450 -0.2365
10511SOL    HW136853   0.564   5.602  11.708 -0.7198 -1.4808 -0.2172
10511SOL    HW236854   0.463   5.714  11.719 -0.1879 -0.9848 -0.3491
10512SOL     OW36855  11.756   3.356   7.403  0.7977  0.1904  0.2306
10512SOL    HW136856  11.827   3.373   7.464  0.4250 -0.8484  0.9832
10512SOL    HW236857  11.715   3.442   7.390  0.6597  0.3845  1.7444
10513SOL     OW36858   1.056   1.174   3.041 -0.0322  0.4806 -0.0785
10513SOL    HW136859   1.084   1.265   3.041  4.2049 -0.5046 -3.5336
10513SOL    HW236860   1.106   1.134   3.112  0.2984  0.3900 -0.3572
10514SOL     OW36861   4.485   6.481   5.672 -0.2333 -0.2092 -0.2648
10514SOL    HW136862   4.573   6.492   5.635  0.2878  0.4465  1.0845
10514SOL    HW236863   4.456   6.396   5.639  1.0184 -0.5569 -0.5442
10515SOL     OW36864   3.366   7.832   5.653  0.2099  0.4703 -0.1484
10515SOL    HW136865   3.368   7.844   5.558 -0.5734  0.2252 -0.2004
10515SOL    HW236866   3.282   7.869   5.680  0.6119  0.9326  0.5095
10516SOL     OW36867   5.949   1.048   7.490 -0.3195 -0.3649 -0.1713
10516SOL    HW136868   5.918   1.055   7.581 -0.1810 -3.2219  0.1843
10516SOL    HW236869   5.893   1.108   7.442 -0.4300  1.1975  1.7804
10517SOL     OW36870   3.561   6.909   1.069 -0.4556  0.1039 -0.2202
10517SOL    HW136871   3.581   6.894   0.976  0.4614 -0.9774  0.1270
10517SOL    HW236872   3.635   6.962   1.100 -1.1012  1.0454 -0.2450
10518SOL     OW36873   8.321   0.200   5.924 -0.3293 -0.7329  0.6271
10518SOL    HW136874   8.347   0.161   6.007  0.3829  0.6690  1.0900
10518SOL    HW236875   8.402   0.207   5.874 -0.8406 -2.2005 -0.5124
10519SOL     OW36876  11.506   6.852   1.499 -0.2512 -0.6795  0.1797
10519SOL    HW136877  11.511   6.855   1.404 -0.0699 -0.8015  0.1829
10519SOL    HW236878  11.572   6.786   1.524 -0.7179 -1.0899  0.3509
10520SOL     OW36879   4.077   3.280   8.063 -0.3637  0.7202  0.4075
10520SOL    HW136880   3.982   3.270   8.056 -0.1524 -0.7338 -0.8093
10520SOL    HW236881   4.093   3.372   8.044 -1.3640  0.5141 -1.6944
10521SOL     OW36882   2.722   4.915  10.082  0.3065  0.1699 -0.5545
10521SOL    HW136883   2.647   4.876  10.038 -0.3795  0.3420  0.4394
10521SOL    HW236884   2.707   4.898  10.175  1.6191 -0.0020 -0.3589
10522SOL     OW36885   4.570   8.948  11.255 -0.5677 -0.1742 -0.0132
10522SOL    HW136886   4.629   8.886  11.298 -1.3412 -0.1591  1.1102
10522SOL    HW236887   4.627   9.022  11.232 -0.3050  0.3695  2.1344
10523SOL     OW36888   9.947   4.577   0.186  0.0988  0.7325  0.4704
10523SOL    HW136889   9.918   4.487   0.199  0.3257  0.7767  1.3957
10523SOL    HW236890   9.992   4.577   0.102  0.7347 -0.1914  0.7952
10524SOL     OW36891   8.805   3.265   4.283 -1.1024 -0.3826  0.2077
10524SOL    HW136892   8.815   3.356   4.255  4.0238 -1.1619 -1.5683
10524SOL    HW236893   8.777   3.219   4.204  0.4308 -0.8220 -0.1111
10525SOL     OW36894   5.692   9.139   1.453 -0.3160  0.5561  0.1923
10525SOL    HW136895   5.691   9.208   1.386  0.4859  0.8553  0.4773
10525SOL    HW236896   5.772   9.155   1.503 -0.2717 -0.3994  0.4563
10526SOL     OW36897   0.712   6.414   8.184 -0.5884  0.2381  0.0296
10526SOL    HW136898   0.620   6.402   8.205 -0.8062  0.2343 -0.8855
10526SOL    HW236899   0.713   6.441   8.092  0.3866 -1.1278 -0.4010
10527SOL     OW36900   9.821   9.674   4.625  0.6603 -0.3449  0.1691
10527SOL    HW136901   9.761   9.652   4.697  0.7536 -0.8536  0.0919
10527SOL    HW236902   9.776   9.644   4.547  0.6505  0.0248  0.0300
10528SOL     OW36903   8.385  11.117   4.470  0.0552 -0.3157 -0.4097
10528SOL    HW136904   8.291  11.126   4.485  0.5173 -0.5897  4.1304
10528SOL    HW236905   8.419  11.206   4.479  0.4408 -0.5759  0.9695
10529SOL     OW36906  10.886   0.107   2.195  0.3306  0.1417  0.3912
10529SOL    HW136907  10.800   0.115   2.237  0.2411  0.7956  0.1088
10529SOL    HW236908  10.869   0.057   2.115  0.5322 -1.2550  1.1861
10530SOL     OW36909   8.936  10.253   7.725  0.3502  0.3466 -0.6072
10530SOL    HW136910   8.987  10.271   7.803  1.3679 -0.9455 -0.9352
10530SOL    HW236911   8.852  10.296   7.741  1.0507  1.3617  0.5327
10531SOL     OW36912   7.049  10.097   8.561  0.1383 -0.4167 -0.0089
10531SOL    HW136913   7.015  10.129   8.644 -1.0275  0.2356 -0.7125
10531SOL    HW236914   7.020  10.006   8.557 -0.6110 -0.1863 -0.0954
10532SOL     OW36915   1.648   9.970   5.817  0.2097 -0.5002 -0.3195
10532SOL    HW136916   1.713   9.952   5.749  0.3985 -0.0101 -0.2742
10532SOL    HW236917   1.572   9.918   5.793 -0.2470  0.7441 -1.7108
10533SOL     OW36918  11.665   9.593   7.842  0.2711  0.2707 -0.3073
10533SOL    HW136919  11.582   9.610   7.887  0.1416  0.9130 -0.7639
10533SOL    HW236920  11.728   9.584   7.913  0.1761  1.8538  0.0268
10534SOL     OW36921  10.764  11.554   8.521  0.3716 -0.2868  0.4808
10534SOL    HW136922  10.794  11.601   8.443 -0.6111  3.2524  2.0494
10534SOL    HW236923  10.845  11.535   8.570  0.7842 -0.2139 -0.1528
10535SOL     OW36924   9.113   1.742   3.183 -0.3072 -0.1237 -0.2554
10535SOL    HW136925   9.139   1.722   3.093 -1.1044 -1.8295 -0.1374
10535SOL    HW236926   9.147   1.830   3.198  2.5275 -0.9254 -1.2011
10536SOL     OW36927   6.588   2.823   6.933  0.5614 -0.0946  0.0124
10536SOL    HW136928   6.545   2.839   6.849  0.9414 -0.9998 -0.3668
10536SOL    HW236929   6.680   2.843   6.918  0.1960  3.2036  1.1904
10537SOL     OW36930   5.894   5.867   7.143 -0.1496 -0.9510  0.0906
10537SOL    HW136931   5.827   5.888   7.209  1.7600 -1.1089  2.1936
10537SOL    HW236932   5.882   5.773   7.127  0.3637 -1.2720  1.4574
10538SOL     OW36933   8.250   2.932   6.122  0.0979 -0.1534 -0.4188
10538SOL    HW136934   8.261   2.847   6.163 -0.7301 -0.2085 -0.3128
10538SOL    HW236935   8.340   2.963   6.107  0.4566  0.2720  2.2101
10539SOL     OW36936   5.813   7.380   5.737  0.0627  0.3228  0.5225
10539SOL    HW136937   5.815   7.465   5.693  1.8542  0.6109  1.0548
10539SOL    HW236938   5.780   7.400   5.825 -2.4876 -0.0773 -0.2892
10540SOL     OW36939   0.544   3.922   8.856  0.0854  0.5235  0.1022
10540SOL    HW136940   0.474   3.922   8.791 -0.4671 -1.4530  0.6405
10540SOL    HW236941   0.549   4.013   8.885 -2.9763  0.5987  0.7623
10541SOL     OW36942  11.656   3.688   4.547  0.7042  0.0243 -0.4352
10541SOL    HW136943  11.706   3.623   4.499  1.7199 -1.5236  2.4422
10541SOL    HW236944  11.569   3.650   4.556  0.6319  0.1288 -0.6781
10542SOL     OW36945   4.860   4.215   5.920  0.5005  0.3248 -0.5480
10542SOL    HW136946   4.889   4.281   5.983  0.6452  0.7085 -1.0089
10542SOL    HW236947   4.919   4.226   5.846 -0.5039  0.7768 -1.2980
10543SOL     OW36948   5.535   8.911  10.096 -0.6056  0.0951 -0.1262
10543SOL    HW136949   5.624   8.933  10.068  0.5319 -1.6542  1.7613
10543SOL    HW236950   5.500   8.858  10.025  0.0777  0.3185 -0.6482
10544SOL     OW36951  10.282   3.411   1.292  0.6626  0.1265  0.0513
10544SOL    HW136952  10.191   3.440   1.292  0.1087 -1.4129  1.4952
10544SOL    HW236953  10.305   3.409   1.385  2.2270  0.5698 -0.3003
10545SOL     OW36954   9.029  10.709   9.776 -0.4520 -0.7322 -0.1365
10545SOL    HW136955   9.024  10.647   9.849  0.5277 -0.4978  0.1415
10545SOL    HW236956   9.072  10.661   9.706  2.0403  0.1568  0.6971
10546SOL     OW36957  10.836   1.259  10.250 -0.3562 -1.1415 -0.2772
10546SOL    HW136958  10.796   1.296  10.329 -1.8249 -0.7046 -1.2044
10546SOL    HW236959  10.763   1.221  10.201 -0.0443  1.5761 -3.1031
10547SOL     OW36960   8.821   8.931   3.823 -0.3120  0.4785  0.0047
10547SOL    HW136961   8.905   8.976   3.815  0.5575 -1.2747 -1.5750
10547SOL    HW236962   8.842   8.839   3.807 -2.5833  0.0360 -0.7443
10548SOL     OW36963   8.112   8.345   8.629 -0.1412  0.0075  0.1774
10548SOL    HW136964   8.193   8.332   8.581 -0.2689 -0.0065 -0.0385
10548SOL    HW236965   8.093   8.260   8.668 -0.8446 -0.4178 -1.0214
10549SOL     OW36966   4.413   8.097   7.104 -0.1496  0.2643 -0.0347
10549SOL    HW136967   4.433   8.168   7.042 -0.1354  1.3538  1.1710
10549SOL    HW236968   4.450   8.019   7.063  2.0577  1.3575 -0.2834
10550SOL     OW36969   8.576   5.552  10.953 -0.1456 -0.2691 -0.3717
10550SOL    HW136970   8.635   5.568  11.026  0.2308 -3.1112  0.0549
10550SOL    HW236971   8.589   5.460  10.930 -2.7904 -0.4301 -1.7324
10551SOL     OW36972   0.450   4.183   2.801  0.1855 -0.2553 -0.2306
10551SOL    HW136973   0.420   4.269   2.830  0.4658 -0.5745  1.0811
10551SOL    HW236974   0.386   4.122   2.839  0.8677 -0.7277  0.1730
10552SOL     OW36975   5.252   7.650   1.249  0.9634  0.1215  0.2296
10552SOL    HW136976   5.281   7.571   1.203  0.6667  0.1014  0.0754
10552SOL    HW236977   5.332   7.702   1.259  1.1161 -0.0877  0.1139
10553SOL     OW36978   6.757   0.016   5.462 -0.0324  0.8651  0.3482
10553SOL    HW136979   6.777   0.099   5.505 -1.1979  2.0869 -1.3456
10553SOL    HW236980   6.825  -0.044   5.494  1.6876  2.8079  0.5846
10554SOL     OW36981   8.777   4.602   7.656 -0.4165  0.0187  0.6185
10554SOL    HW136982   8.692   4.638   7.679 -0.2009  2.0570 -1.3627
10554SOL    HW236983   8.770   4.580   7.563  0.9047 -0.7456  0.6629
10555SOL     OW36984  11.434   6.881  11.794  0.3344 -0.2550  0.3234
10555SOL    HW136985  11.492   6.915  11.862 -0.6007  0.9663  0.5557
10555SOL    HW236986  11.436   6.786  11.806 -1.0076 -0.0555  3.1438
10556SOL     OW36987   8.712   9.432   2.795 -0.4135  0.6778  0.6810
10556SOL    HW136988   8.668   9.351   2.822 -1.9822  1.3257  0.1730
10556SOL    HW236989   8.644   9.483   2.753  0.3612  2.5984  1.6529
10557SOL     OW36990   9.230  10.493   7.673 -0.2476  0.0824  0.3869
10557SOL    HW136991   9.295  10.463   7.737  0.8200 -1.1287 -1.1750
10557SOL    HW236992   9.281  10.514   7.595 -1.4157  2.4814  0.1974
10558SOL     OW36993   8.754   9.448   0.239  0.3363  0.2656 -0.8227
10558SOL    HW136994   8.789   9.446   0.328  0.0817 -0.5808 -0.7313
10558SOL    HW236995   8.830   9.464   0.183  0.5444  0.4777 -0.4778
10559SOL     OW36996   6.327   1.617  10.755 -0.5239 -0.3753  0.4854
10559SOL    HW136997   6.355   1.646  10.668 -1.2936 -1.4858 -0.1526
10559SOL    HW236998   6.388   1.660  10.815 -0.4663  1.0399 -0.5308
10560SOL     OW36999   8.670   4.783   8.028 -0.0125  0.3069  0.3293
10560SOL    HW137000   8.644   4.771   8.119  0.9491 -1.0542  0.4522
10560SOL    HW237001   8.676   4.694   7.993  0.0221  0.7946 -0.9543
10561SOL     OW37002   9.514   0.171   0.659 -0.3630 -0.0989  0.5165
10561SOL    HW137003   9.524   0.267   0.665  1.0441 -0.0654 -1.2167
10561SOL    HW237004   9.551   0.150   0.573  0.7123 -2.3734  1.4679
10562SOL     OW37005   6.644   7.278   4.871  0.4017  0.0881  0.1414
10562SOL    HW137006   6.698   7.322   4.806  1.5412 -1.4096  0.0148
10562SOL    HW237007   6.705   7.254   4.941 -0.1490 -1.2871  0.1894
10563SOL     OW37008   1.329   3.211   1.125 -0.4046  0.9861  0.6942
10563SOL    HW137009   1.339   3.302   1.153  0.5217  0.9581  0.4942
10563SOL    HW237010   1.243   3.207   1.085  0.1602  2.1471 -0.7029
10564SOL     OW37011   1.447  10.559   7.902  0.1119 -0.2275  0.1669
10564SOL    HW137012   1.435  10.530   7.811 -1.8430  0.5464  0.1136
10564SOL    HW237013   1.367  10.530   7.946  0.1861  1.0563  1.1789
10565SOL     OW37014   5.256   0.165   1.778  0.4372  0.7187  0.1956
10565SOL    HW137015   5.340   0.209   1.765  0.8460 -0.3049 -0.7697
10565SOL    HW237016   5.279   0.077   1.805 -0.3332  0.5249  0.2412
10566SOL     OW37017   9.998   5.364   7.063  0.1616 -0.1982 -0.4012
10566SOL    HW137018  10.023   5.418   7.137 -1.4576 -0.4777  0.4050
10566SOL    HW237019   9.992   5.424   6.989  3.0877 -0.1302 -0.6752
10567SOL     OW37020   4.410   2.522   4.061  0.5906  0.2644  0.1031
10567SOL    HW137021   4.467   2.464   4.112 -0.2975  0.3624  1.2250
10567SOL    HW237022   4.465   2.597   4.039  1.4030 -0.4447 -0.3518
10568SOL     OW37023  11.434   6.683   5.522 -0.4253  0.5173  0.2729
10568SOL    HW137024  11.457   6.709   5.432  0.3406  1.0487  0.6106
10568SOL    HW237025  11.360   6.739   5.544  0.5877  1.7609  0.6363
10569SOL     OW37026   2.345   4.976   0.849 -0.2575  0.3307  0.0280
10569SOL    HW137027   2.383   4.989   0.763 -0.3593 -1.2312 -0.2850
10569SOL    HW237028   2.376   5.050   0.901  4.4674 -1.4764  0.2412
10570SOL     OW37029  11.137   1.093   3.892  0.7949  0.1452 -0.0948
10570SOL    HW137030  11.095   1.128   3.814 -1.7176  1.1639  1.5856
10570SOL    HW237031  11.229   1.116   3.882  0.5397  0.3239 -2.6555
10571SOL     OW37032   0.671   0.371  11.374 -0.3065 -0.3054  0.4330
10571SOL    HW137033   0.761   0.395  11.354 -0.6982  0.3563 -0.6209
10571SOL    HW237034   0.669   0.365  11.469  0.7331  0.1564  0.5001
10572SOL     OW37035   7.991   9.655   9.799 -0.2651 -0.6132 -0.4274
10572SOL    HW137036   8.027   9.663   9.888  0.6289 -1.0399 -0.7294
10572SOL    HW237037   7.910   9.606   9.810  0.0727 -1.0622  0.1135
10573SOL     OW37038   4.706   6.413   4.107  0.8180  0.1571  0.5821
10573SOL    HW137039   4.688   6.507   4.108 -2.5870 -0.3790  0.1283
10573SOL    HW237040   4.738   6.395   4.018 -1.2462  0.5188 -0.2791
10574SOL     OW37041   2.105   4.335   4.549 -0.1458  0.3582 -0.5438
10574SOL    HW137042   2.070   4.308   4.634 -3.7129  0.5913 -1.7707
10574SOL    HW237043   2.106   4.254   4.498 -1.1232  0.7305 -1.1847
10575SOL     OW37044   3.265   6.360   9.206  0.0450  0.5172  0.1284
10575SOL    HW137045   3.222   6.390   9.286 -1.5061 -0.2998 -0.3744
10575SOL    HW237046   3.249   6.266   9.204  2.6819 -0.0173  0.3928
10576SOL     OW37047   3.707   8.226  10.118  0.5817 -0.4113  0.2179
10576SOL    HW137048   3.641   8.249  10.052 -2.2155 -1.2511  2.5143
10576SOL    HW237049   3.721   8.132  10.106  2.3621 -0.0431 -0.9972
10577SOL     OW37050  10.032   4.810   5.338 -0.3232 -1.0367 -0.3459
10577SOL    HW137051   9.997   4.722   5.349 -1.0705 -0.7186 -0.1393
10577SOL    HW237052  10.117   4.797   5.294 -0.6477 -1.8205 -0.7540
10578SOL     OW37053   3.984   5.372   2.047 -0.2652 -0.4684  0.4976
10578SOL    HW137054   3.957   5.396   1.958  1.7491  1.2203  0.2482
10578SOL    HW237055   3.906   5.333   2.087 -1.5276 -0.2752 -1.6503
10579SOL     OW37056   4.071   7.363  11.020 -0.2565  0.2058  0.0949
10579SOL    HW137057   4.090   7.278  10.980 -1.0871 -0.0697  0.2553
10579SOL    HW237058   4.139   7.421  10.987  0.0039 -0.3977 -0.4512
10580SOL     OW37059   4.406   2.713   5.219  0.0045 -0.3076 -0.0803
10580SOL    HW137060   4.421   2.661   5.298  0.7248 -0.9064 -0.6077
10580SOL    HW237061   4.490   2.756   5.202  0.2566 -1.2319 -1.2767
10581SOL     OW37062   4.742   0.535   2.383  0.0626  0.0777 -0.0116
10581SOL    HW137063   4.687   0.537   2.305 -0.1101  2.9511  0.0696
10581SOL    HW237064   4.688   0.495   2.450 -1.2306  1.0511 -0.4399
10582SOL     OW37065   7.322   2.701   1.794 -0.3564  0.4889  0.1055
10582SOL    HW137066   7.279   2.786   1.808  0.2033  0.8270 -0.1924
10582SOL    HW237067   7.406   2.723   1.755 -1.5534 -0.3490 -3.2888
10583SOL     OW37068   0.365   8.846  10.181 -0.2434 -0.5494 -0.6697
10583SOL    HW137069   0.277   8.808  10.188 -0.3336 -0.6589 -2.1524
10583SOL    HW237070   0.355   8.919  10.120  0.3229  0.6682  0.6364
10584SOL     OW37071   0.817   8.902  10.609  0.6099  0.0378  0.3008
10584SOL    HW137072   0.762   8.872  10.681  1.8252 -1.1473  0.7819
10584SOL    HW237073   0.759   8.903  10.533 -0.3978  0.1305  1.0570
10585SOL     OW37074   1.987   8.541   4.250  0.5252 -0.5264 -0.3720
10585SOL    HW137075   2.063   8.487   4.232 -2.1464 -4.8170 -0.1110
10585SOL    HW237076   1.927   8.524   4.177 -0.4415  2.4501 -0.4192
10586SOL     OW37077  11.509   3.405   9.536  0.3850  0.0073  0.0304
10586SOL    HW137078  11.449   3.451   9.477 -0.2933 -0.0624  0.6510
10586SOL    HW237079  11.470   3.415   9.623  0.6913 -0.9810  0.2996
10587SOL     OW37080   2.308   4.378  11.242  0.0989  0.2190  0.1474
10587SOL    HW137081   2.297   4.369  11.337 -1.0067 -0.9580 -0.0731
10587SOL    HW237082   2.270   4.464  11.222 -2.4611 -0.7778  0.3943
10588SOL     OW37083   1.171   6.634  11.336 -0.2343 -0.5821 -0.2603
10588SOL    HW137084   1.102   6.584  11.291 -0.7752 -0.5333  0.4842
10588SOL    HW237085   1.123   6.695  11.392  0.3787 -1.4282  1.2480
10589SOL     OW37086  10.129   1.719   9.825  0.3491 -0.0144  0.3232
10589SOL    HW137087  10.224   1.719   9.817  0.5312  0.5172  2.0627
10589SOL    HW237088  10.113   1.715   9.919 -1.3551  0.0386  0.0657
10590SOL     OW37089   8.907   1.449   5.988  0.2857 -0.1576 -0.4873
10590SOL    HW137090   8.822   1.470   5.948 -0.3308  1.2142  1.3988
10590SOL    HW237091   8.892   1.366   6.034 -1.0314  1.4445  2.2656
10591SOL     OW37092   3.092   2.442   7.900  0.5759  0.5749 -0.1851
10591SOL    HW137093   3.150   2.398   7.962 -0.2088  2.9369  2.4656
10591SOL    HW237094   3.073   2.376   7.834  1.4402 -2.1868  2.1068
10592SOL     OW37095   2.449   8.178   4.961  0.4027 -0.8328  0.5592
10592SOL    HW137096   2.468   8.145   5.049  0.3172 -0.8932  0.5543
10592SOL    HW237097   2.476   8.270   4.965  0.4999 -0.8623  0.6164
10593SOL     OW37098   4.862   6.332  10.821  0.1440 -0.2861  0.8652
10593SOL    HW137099   4.888   6.273  10.891 -0.5467  0.5705  1.8797
10593SOL    HW237100   4.784   6.376  10.854 -0.3723 -0.0676 -0.5720
10594SOL     OW37101   0.871  11.457   9.786 -0.1099 -0.6223  0.7939
10594SOL    HW137102   0.907  11.491   9.868  0.3399  1.0110 -0.0258
10594SOL    HW237103   0.858  11.364   9.802 -0.9011 -0.1974  3.0143
10595SOL     OW37104   9.443   5.686   1.350 -0.6459  0.0110  0.0212
10595SOL    HW137105   9.486   5.691   1.436  0.5033 -1.2000 -0.4524
10595SOL    HW237106   9.513   5.659   1.291 -1.7330 -0.4506 -1.0721
10596SOL     OW37107   9.182   4.444  11.025  0.0981 -0.0774  0.0895
10596SOL    HW137108   9.268   4.403  11.035  0.1654 -0.0785 -0.4504
10596SOL    HW237109   9.173   4.501  11.101 -0.0390 -1.1663  0.9271
10597SOL     OW37110   2.946   4.782   2.868  0.2653  0.8522  0.1867
10597SOL    HW137111   3.015   4.840   2.837 -0.1410  0.5544 -1.3373
10597SOL    HW237112   2.992   4.711   2.913  0.8874  1.1612  0.0442
10598SOL     OW37113   7.585  10.476   0.281  0.3015 -0.1765  0.6201
10598SOL    HW137114   7.495  10.454   0.303  0.3974 -1.2915 -0.0319
10598SOL    HW237115   7.626  10.392   0.260  0.8378  0.5362 -1.4594
10599SOL     OW37116   0.568   1.989   1.826 -0.4491  0.1942  0.1256
10599SOL    HW137117   0.537   1.900   1.807 -2.4581  0.8282  0.1760
10599SOL    HW237118   0.662   1.979   1.842 -0.7119 -1.9977  0.6498
10600SOL     OW37119   3.654   2.842   2.481  0.4218 -0.4873 -0.0141
10600SOL    HW137120   3.597   2.808   2.549  0.4632  0.9275  0.7759
10600SOL    HW237121   3.689   2.765   2.437 -2.1263 -1.3831 -0.5790
10601SOL     OW37122   1.952   6.737  10.049 -0.3559 -0.0368 -0.7664
10601SOL    HW137123   1.963   6.832  10.041  1.3028 -0.1423 -0.1263
10601SOL    HW237124   1.914   6.711   9.965 -0.8637  1.1889 -0.9497
10602SOL     OW37125  11.182  10.906   9.062 -0.2701 -0.8107  0.1377
10602SOL    HW137126  11.196  10.980   9.004  1.3942 -1.0576  0.1830
10602SOL    HW237127  11.194  10.942   9.150 -1.0771 -0.8057  0.2564
10603SOL     OW37128   0.185   2.592  10.420 -0.1264  0.5128 -0.3043
10603SOL    HW137129   0.115   2.652  10.447 -0.2930  0.6332 -0.9740
10603SOL    HW237130   0.168   2.575  10.327  0.7014  0.5035 -0.4675
10604SOL     OW37131   2.612   7.012   2.836  0.5780  0.3761 -0.0260
10604SOL    HW137132   2.608   6.924   2.798  0.1965  0.0446  0.7612
10604SOL    HW237133   2.566   7.068   2.774  1.3109  0.1279 -0.8136
10605SOL     OW37134   2.281   1.270   6.614 -0.5122 -0.4695  0.5201
10605SOL    HW137135   2.336   1.217   6.671 -2.0769 -0.3867  2.1740
10605SOL    HW237136   2.328   1.354   6.607  0.9768 -1.3295 -0.5135
10606SOL     OW37137   2.861   5.656   1.752 -0.1254 -0.2382 -0.2633
10606SOL    HW137138   2.930   5.713   1.720 -1.2357  1.8338  0.7685
10606SOL    HW237139   2.833   5.606   1.676  1.0248  0.4715 -1.1805
10607SOL     OW37140   0.560   2.290   6.071 -0.2669 -0.3005  0.5600
10607SOL    HW137141   0.588   2.200   6.084 -0.5597 -0.5803 -0.6461
10607SOL    HW237142   0.511   2.289   5.989 -3.9034  0.1225  2.4891
10608SOL     OW37143   3.611   4.002   8.354  0.6041  0.1785 -0.2781
10608SOL    HW137144   3.523   4.009   8.317  0.6620 -1.2507 -0.7373
10608SOL    HW237145   3.668   4.042   8.289  0.5225 -0.8517 -0.9949
10609SOL     OW37146   8.873   1.157   9.718 -0.2003 -0.0196 -0.4106
10609SOL    HW137147   8.875   1.222   9.648 -2.3951 -0.6480 -1.1672
10609SOL    HW237148   8.911   1.078   9.678  0.8391  0.2933 -0.0627
10610SOL     OW37149  11.728   0.725   5.651  0.2997  0.3553  0.0017
10610SOL    HW137150  11.691   0.746   5.565  0.9077 -0.9864 -0.6228
10610SOL    HW237151  11.734   0.809   5.696  2.1663  1.4798 -2.1461
10611SOL     OW37152  10.035   1.776   7.824  0.1434 -0.0326 -0.7955
10611SOL    HW137153   9.950   1.808   7.795  0.4638  0.5747 -1.1027
10611SOL    HW237154  10.018   1.735   7.909  0.1708  3.9216  1.3458
10612SOL     OW37155   7.501   2.588   7.523  0.0053 -0.1065  0.2852
10612SOL    HW137156   7.434   2.639   7.477  1.1177  0.9920 -0.2014
10612SOL    HW237157   7.469   2.498   7.520  0.3115 -0.2617 -3.3446
10613SOL     OW37158   8.321  11.538   6.905 -0.1956  0.2350 -0.0120
10613SOL    HW137159   8.381  11.613   6.910 -0.1053  0.1377  0.4441
10613SOL    HW237160   8.343  11.485   6.982 -2.6475  1.5406  1.7167
10614SOL     OW37161   5.802   7.852   4.131  0.1038  0.0379  0.2996
10614SOL    HW137162   5.818   7.928   4.187  2.1274  0.1129 -0.2967
10614SOL    HW237163   5.808   7.886   4.042  1.8113 -0.9267  0.0136
10615SOL     OW37164   1.872   9.334   4.429 -0.2671  0.0273 -0.2088
10615SOL    HW137165   1.829   9.300   4.507 -1.2387  0.7859 -0.3926
10615SOL    HW237166   1.864   9.263   4.365 -1.0762  0.0764 -0.1748
10616SOL     OW37167  11.417   4.463   6.108 -0.3226 -0.1630  0.4241
10616SOL    HW137168  11.465   4.539   6.075 -0.7651  0.3855  1.0087
10616SOL    HW237169  11.334   4.464   6.060 -0.3078 -0.3067  0.3952
10617SOL     OW37170   5.778   2.128  10.356  0.0925 -0.0372 -0.3771
10617SOL    HW137171   5.860   2.080  10.367 -0.4400 -1.3316 -1.7084
10617SOL    HW237172   5.762   2.167  10.442  1.6607 -0.4524  0.1482
10618SOL     OW37173   4.233   2.913   3.363 -0.0080 -0.2289  0.0093
10618SOL    HW137174   4.205   2.964   3.440 -0.4252 -0.4200 -0.0127
10618SOL    HW237175   4.182   2.949   3.291  1.1446  0.6644 -0.3925
10619SOL     OW37176   4.954   7.412   8.784  0.0605  0.0452 -0.1874
10619SOL    HW137177   4.919   7.499   8.769  1.0729  0.2257 -1.8541
10619SOL    HW237178   4.958   7.403   8.879 -1.3250  1.2630  0.0215
10620SOL     OW37179   4.175   9.931   7.226 -0.2451 -0.5009  0.3602
10620SOL    HW137180   4.254   9.984   7.212 -1.4967  1.4648  0.2962
10620SOL    HW237181   4.193   9.882   7.306  0.5021  1.0306  1.1713
10621SOL     OW37182   4.154   3.313   6.974 -0.1826  0.2652 -0.2849
10621SOL    HW137183   4.244   3.320   7.005  0.5581 -2.0613 -1.6680
10621SOL    HW237184   4.127   3.224   6.996 -1.2516  0.0957 -2.0101
10622SOL     OW37185   5.230   6.446   9.320 -0.4404 -0.2629  0.2578
10622SOL    HW137186   5.142   6.411   9.307 -1.4073  1.9203  0.5989
10622SOL    HW237187   5.232   6.527   9.269  1.4866 -0.3940  0.0268
10623SOL     OW37188   2.591   6.756   6.543 -0.5570 -0.3522 -0.1158
10623SOL    HW137189   2.553   6.690   6.486 -0.6083 -0.8026  0.4346
10623SOL    HW237190   2.530   6.763   6.616 -0.2276 -0.1640  0.1465
10624SOL     OW37191   9.337   4.615   0.820  0.5943  0.5127  0.5878
10624SOL    HW137192   9.421   4.648   0.787  0.7428  0.1425  0.5838
10624SOL    HW237193   9.353   4.595   0.912  0.2762  1.2109  0.8000
10625SOL     OW37194  11.598   7.346   8.350  0.1936 -0.0422 -0.4324
10625SOL    HW137195  11.657   7.419   8.328 -0.6298  0.8381  0.2256
10625SOL    HW237196  11.657   7.271   8.360  1.0092  0.4070 -1.5951
10626SOL     OW37197   7.496   9.486   7.193  0.2004 -0.6196 -0.4086
10626SOL    HW137198   7.436   9.411   7.197 -1.0031  0.2151 -1.8188
10626SOL    HW237199   7.466   9.544   7.263  0.1156 -0.7402 -0.3440
10627SOL     OW37200   0.947   7.729   9.662  0.3333 -0.3136  0.0112
10627SOL    HW137201   0.852   7.727   9.653  0.2191 -1.3541  1.1778
10627SOL    HW237202   0.963   7.703   9.752  1.7821 -1.7041 -0.6059
10628SOL     OW37203  11.442   4.620  11.444 -0.0050  0.2788 -0.5469
10628SOL    HW137204  11.486   4.705  11.444  1.3975 -0.4182  0.4395
10628SOL    HW237205  11.369   4.631  11.505 -1.0779  1.3395 -1.9395
10629SOL     OW37206   2.267   4.596   4.774  0.2509  0.0990  0.2948
10629SOL    HW137207   2.293   4.595   4.682  0.1464 -1.0068  0.2619
10629SOL    HW237208   2.175   4.570   4.773  0.1802  0.3230  0.6953
10630SOL     OW37209   9.290   3.478  10.416  0.5781  0.1227 -0.6884
10630SOL    HW137210   9.322   3.512  10.332  0.0190  1.6778 -0.2989
10630SOL    HW237211   9.202   3.516  10.426  0.1414 -1.0113  0.0514
10631SOL     OW37212   3.726   4.330   5.912 -0.1105 -0.0970 -0.0033
10631SOL    HW137213   3.791   4.391   5.947 -1.6902  0.9215  1.2896
10631SOL    HW237214   3.660   4.323   5.981 -0.8249 -1.9841 -0.8151
10632SOL     OW37215  11.180   4.433   9.212  0.0026  0.0190  0.0114
10632SOL    HW137216  11.243   4.427   9.140 -0.7173 -0.6850 -0.5772
10632SOL    HW237217  11.209   4.369   9.276 -1.0899 -1.6307 -1.0636
10633SOL     OW37218   6.542   0.978   3.446  0.2702  0.2248  0.0946
10633SOL    HW137219   6.584   0.983   3.532  1.5348  1.8857 -0.5568
10633SOL    HW237220   6.474   1.045   3.449 -1.6393 -1.6464  0.7269
10634SOL     OW37221   3.264  11.784   2.441  0.1555 -0.0371  0.3252
10634SOL    HW137222   3.176  11.810   2.470 -0.0299  0.7270 -0.8726
10634SOL    HW237223   3.255  11.772   2.347  0.6906 -2.6826  0.5203
10635SOL     OW37224   8.964  10.467   9.376  0.3757  0.0969 -0.5105
10635SOL    HW137225   8.964  10.379   9.339  1.3190 -0.3737  0.5684
10635SOL    HW237226   8.973  10.525   9.299  1.7756 -0.8313 -1.0885
10636SOL     OW37227   3.202   1.720   5.677  0.0034  0.2080 -0.7490
10636SOL    HW137228   3.147   1.704   5.601 -1.2648  1.3960 -0.1286
10636SOL    HW237229   3.160   1.670   5.748  0.2881  0.3488 -0.4767
10637SOL     OW37230   3.762   4.656   2.796  0.5133 -0.2764 -0.4803
10637SOL    HW137231   3.791   4.744   2.770 -1.9472  0.7452 -0.0170
10637SOL    HW237232   3.829   4.598   2.760  1.9081  1.7277 -1.3276
10638SOL     OW37233   8.040   6.726   7.184 -0.4818 -0.4355 -0.6961
10638SOL    HW137234   8.101   6.709   7.256  0.1066 -0.7269 -1.2535
10638SOL    HW237235   8.055   6.818   7.162 -1.1657 -0.1439  0.0073
10639SOL     OW37236   5.034   0.104   5.736  0.0676 -0.5847 -0.3117
10639SOL    HW137237   5.124   0.132   5.754  0.9713 -2.0016 -2.2260
10639SOL    HW237238   5.041   0.009   5.721 -1.7028 -0.6838 -0.7430
10640SOL     OW37239   9.634   9.743   5.585 -0.0795 -0.0956  0.2274
10640SOL    HW137240   9.720   9.744   5.627 -0.7957  1.2085  1.7982
10640SOL    HW237241   9.626   9.829   5.545  0.4030 -1.1646 -2.3328
10641SOL     OW37242   9.275  10.493  11.812 -0.7232  0.1250  0.0779
10641SOL    HW137243   9.184  10.464  11.808 -1.0600  1.2737 -2.7503
10641SOL    HW237244   9.270  10.588  11.805  0.7105  0.0900 -2.6577
10642SOL     OW37245   2.242  10.548   8.965 -0.1533 -0.2273 -0.4032
10642SOL    HW137246   2.222  10.578   9.053 -0.4531 -1.1768 -0.1365
10642SOL    HW237247   2.249  10.628   8.913 -1.6053  0.2641  0.1358
10643SOL     OW37248   8.483   1.370   9.705  0.3915  0.3136 -0.2191
10643SOL    HW137249   8.521   1.402   9.787 -1.4706  0.9158  0.4795
10643SOL    HW237250   8.550   1.387   9.639  2.5368 -1.5544  1.3655
10644SOL     OW37251   6.522  11.786   8.658  0.7775  0.1376 -0.6345
10644SOL    HW137252   6.563  11.794   8.744  1.8941  1.3045 -1.2527
10644SOL    HW237253   6.541  11.868   8.614  0.2802 -0.4624 -2.0389
10645SOL     OW37254   9.202   3.367   2.807  0.0526  0.3080  0.4361
10645SOL    HW137255   9.147   3.425   2.754  1.2947  0.4626 -0.7141
10645SOL    HW237256   9.150   3.287   2.815 -0.1697  0.2951 -0.9907
10646SOL     OW37257  10.538  11.036   7.989  0.2654  0.2845  0.2236
10646SOL    HW137258  10.453  11.080   7.987  0.4390  0.7194  1.3705
10646SOL    HW237259  10.516  10.943   7.996 -0.1337  0.4239  0.9670
10647SOL     OW37260   0.263   8.257   7.298 -0.2983 -0.2454  0.1710
10647SOL    HW137261   0.264   8.292   7.209 -0.2600 -0.0852  0.2338
10647SOL    HW237262   0.242   8.165   7.287 -0.0526 -0.2783 -0.0217
10648SOL     OW37263   9.153   9.374   3.858  0.4204  1.0829  0.6399
10648SOL    HW137264   9.204   9.446   3.896 -0.8431  1.8477  0.9455
10648SOL    HW237265   9.105   9.415   3.786  1.9061 -0.1145 -1.1302
10649SOL     OW37266   1.999  11.781   3.200 -0.0379  0.1881 -0.3057
10649SOL    HW137267   1.923  11.823   3.159 -0.1704 -0.0865 -0.3439
10649SOL    HW237268   2.068  11.788   3.134  0.5251  2.0773  0.4164
10650SOL     OW37269   0.223  11.588   9.915 -0.2097 -0.3680  0.0500
10650SOL    HW137270   0.253  11.501   9.943 -1.7881 -1.1661 -0.5966
10650SOL    HW237271   0.128  11.581   9.914 -0.5109  2.0188  1.9764
10651SOL     OW37272   0.626   3.763   8.541 -0.0096 -0.0853 -0.0796
10651SOL    HW137273   0.697   3.726   8.490  0.3877 -0.2157  0.5618
10651SOL    HW237274   0.640   3.730   8.630 -1.3638 -0.8394 -0.1043
10652SOL     OW37275   6.728   9.097   7.682 -0.3628  0.6488  0.1690
10652SOL    HW137276   6.743   9.181   7.638 -2.1220  0.8334 -0.1294
10652SOL    HW237277   6.776   9.105   7.765 -0.9603  2.1777  0.3944
10653SOL     OW37278   0.492   8.950   7.123  0.5378  0.2859  0.0602
10653SOL    HW137279   0.513   8.986   7.037  1.1234  0.9771  0.4821
10653SOL    HW237280   0.463   9.025   7.174 -1.5937 -0.3919 -0.0477
10654SOL     OW37281   7.961   2.886  10.865 -0.4110  0.3690  0.0407
10654SOL    HW137282   7.927   2.858  10.950  1.4273 -0.2849  0.5898
10654SOL    HW237283   7.908   2.963  10.842 -1.9073 -0.3134  1.0649
10655SOL     OW37284   9.988   6.479  10.443 -0.5539 -0.2057 -0.5214
10655SOL    HW137285   9.931   6.533  10.497  1.0734 -1.0646  2.2478
10655SOL    HW237286   9.937   6.400  10.425 -1.5067  0.5539 -1.2097
10656SOL     OW37287   5.648   7.434   6.388 -0.3794 -0.8384 -0.0956
10656SOL    HW137288   5.709   7.471   6.323  0.0162 -0.4850  0.4668
10656SOL    HW237289   5.627   7.508   6.445 -0.7372 -1.1432  0.1688
10657SOL     OW37290   4.819   6.578   0.305  0.6043  0.3417 -0.0210
10657SOL    HW137291   4.765   6.579   0.227  1.3418  1.2928 -0.5383
10657SOL    HW237292   4.760   6.604   0.376 -0.9974 -3.8206  0.4621
10658SOL     OW37293   0.074  11.032   9.897 -0.3259 -0.2302 -0.2089
10658SOL    HW137294   0.061  11.114   9.944 -0.6370 -0.2187 -0.3066
10658SOL    HW237295   0.050  11.053   9.806  3.2273  0.6042 -1.1126
10659SOL     OW37296   9.438   6.945   4.882 -0.6021  0.7473  0.4094
10659SOL    HW137297   9.424   6.935   4.976  0.0275 -0.0285  0.4294
10659SOL    HW237298   9.354   6.977   4.848 -1.1751 -0.0165  1.0766
10660SOL     OW37299  11.505   3.514   7.388  0.1435 -0.1164  0.2944
10660SOL    HW137300  11.443   3.456   7.344  0.8727  0.1491 -1.1251
10660SOL    HW237301  11.551   3.559   7.317 -1.5225  3.5118  1.3077
10661SOL     OW37302   1.586   9.901   5.416  0.1786 -0.3651 -0.6882
10661SOL    HW137303   1.641   9.876   5.490  1.3522  0.6402 -1.1907
10661SOL    HW237304   1.573   9.819   5.368  0.2961 -0.8222  0.0413
10662SOL     OW37305  11.666   6.321   5.648 -1.5716 -0.1440  0.5035
10662SOL    HW137306  11.672   6.411   5.682 -1.3116  0.3165 -0.6806
10662SOL    HW237307  11.577   6.314   5.614 -1.2485  0.0871 -0.4451
10663SOL     OW37308   9.876   3.496   8.163 -0.4640 -0.3249 -0.4266
10663SOL    HW137309   9.901   3.565   8.226 -1.2804  0.1573 -0.6151
10663SOL    HW237310   9.958   3.450   8.144  0.2728  1.1568 -0.9779
10664SOL     OW37311  11.550   1.520   1.201 -0.3207 -0.6067  0.1091
10664SOL    HW137312  11.612   1.501   1.131  0.3338  2.0506 -0.1184
10664SOL    HW237313  11.465   1.490   1.167  0.0139  0.4577 -1.7948
10665SOL     OW37314   3.840   1.791   7.892  0.2884 -0.1969 -0.3102
10665SOL    HW137315   3.924   1.829   7.868 -1.0343  3.8383  0.6103
10665SOL    HW237316   3.776   1.841   7.841 -1.7625  0.1709  2.3775
10666SOL     OW37317   7.629   8.257   9.342 -0.6372  0.2269  0.0620
10666SOL    HW137318   7.620   8.175   9.293  1.8207  0.4041 -0.8181
10666SOL    HW237319   7.711   8.295   9.311 -1.8541  3.2377  0.1864
10667SOL     OW37320   6.129   7.169   6.996  0.2393 -0.1982 -0.1451
10667SOL    HW137321   6.055   7.229   6.989 -0.1386 -0.8809 -2.7979
10667SOL    HW237322   6.097   7.100   7.055 -1.7568 -1.0982 -2.1460
10668SOL     OW37323   5.582   3.801   2.285 -0.5148 -0.0917 -0.2052
10668SOL    HW137324   5.532   3.841   2.356  0.7610  1.9188 -0.3350
10668SOL    HW237325   5.671   3.836   2.296 -0.0138 -0.6653 -2.0762
10669SOL     OW37326   9.433   7.564   8.213  0.0412 -0.2452 -0.3336
10669SOL    HW137327   9.459   7.482   8.254  0.7101 -0.4352 -1.1020
10669SOL    HW237328   9.343   7.578   8.241  0.0627 -1.0200  0.1470
10670SOL     OW37329  10.151   6.960   1.854  0.5122  0.2322  0.6378
10670SOL    HW137330  10.169   7.017   1.929 -0.4228  1.1610  0.1890
10670SOL    HW237331  10.060   6.979   1.831  0.9318  0.3651 -1.0557
10671SOL     OW37332   1.174  10.855   0.087 -0.1766  0.1553  0.1280
10671SOL    HW137333   1.173  10.932   0.030 -0.2756  1.7281  2.1549
10671SOL    HW237334   1.174  10.890   0.175  4.8147 -1.9693  1.3569
10672SOL     OW37335   9.091   1.241   2.609 -0.4929  0.5387  0.1877
10672SOL    HW137336   9.173   1.197   2.629 -0.0024  1.5731  0.5347
10672SOL    HW237337   9.023   1.176   2.629  0.2463 -0.4651 -0.5079
10673SOL     OW37338   4.255   2.888   5.996 -0.2467 -0.0829  0.4928
10673SOL    HW137339   4.217   2.892   5.908 -0.6713 -0.7457  0.6402
10673SOL    HW237340   4.193   2.834   6.046  0.4887 -0.5119  0.9467
10674SOL     OW37341  11.146  11.028   4.895  0.0077 -0.0354 -0.1007
10674SOL    HW137342  11.211  10.958   4.887  0.3040  0.2850 -0.5171
10674SOL    HW237343  11.134  11.038   4.990  2.4542  1.6167  0.1489
10675SOL     OW37344   2.483   5.815   5.480  0.0865 -0.1483 -0.0960
10675SOL    HW137345   2.493   5.729   5.521 -0.6903 -0.1621  0.0762
10675SOL    HW237346   2.402   5.849   5.517 -0.0177  0.3294 -0.7666
10676SOL     OW37347   1.375   7.851   2.976 -0.4303 -0.7300  0.4219
10676SOL    HW137348   1.348   7.897   2.897 -1.9492 -2.1520  0.0700
10676SOL    HW237349   1.422   7.918   3.028  0.4639  0.2596 -1.5658
10677SOL     OW37350   1.357   1.041   0.931  0.3204 -0.3969  0.4139
10677SOL    HW137351   1.409   1.074   0.857  0.8423 -0.9707  0.5188
10677SOL    HW237352   1.422   1.020   0.998 -0.1903  0.9093  1.3709
10678SOL     OW37353   4.799   3.174   8.275 -0.0282  0.3955  0.0548
10678SOL    HW137354   4.795   3.147   8.183  0.1830 -1.5541  0.5774
10678SOL    HW237355   4.711   3.157   8.308  0.2733 -0.2258  0.5469
10679SOL     OW37356  10.673  10.803   3.880 -0.5648  0.3519 -0.2829
10679SOL    HW137357  10.753  10.750   3.879 -0.9691 -0.2629 -0.8736
10679SOL    HW237358  10.608  10.748   3.922 -0.1336  1.7377  2.4313
10680SOL     OW37359   6.571   8.363   2.071  0.3052  0.5612  0.1413
10680SOL    HW137360   6.494   8.416   2.051  1.2541  1.1977 -2.1971
10680SOL    HW237361   6.536   8.287   2.118 -1.8617  0.4832 -1.4294
10681SOL     OW37362   7.353  10.331   0.320 -0.1516 -0.4622 -0.2584
10681SOL    HW137363   7.328  10.313   0.411  1.7478 -1.9773  0.0345
10681SOL    HW237364   7.308  10.264   0.269 -1.2244  0.3934 -0.4760
10682SOL     OW37365   4.424   4.039   5.670  0.9874  0.4825  0.2437
10682SOL    HW137366   4.508   4.015   5.630 -0.1404  0.3404 -2.1895
10682SOL    HW237367   4.426   3.995   5.755  1.9088 -2.6372 -1.2173
10683SOL     OW37368   1.970  10.089   3.929  0.5415  0.3269 -0.2344
10683SOL    HW137369   1.891  10.140   3.948 -0.2778 -1.0627  0.2113
10683SOL    HW237370   1.940  10.018   3.872  1.2531 -0.7939  0.7423
10684SOL     OW37371   8.204   7.987   5.433  0.2462 -0.0615  0.0320
10684SOL    HW137372   8.274   8.000   5.369 -1.0484  0.8872 -1.2540
10684SOL    HW237373   8.249   7.958   5.513  2.1182  0.8147 -0.6536
10685SOL     OW37374   3.437  10.750   1.662 -0.0347  0.2569 -0.2087
10685SOL    HW137375   3.341  10.748   1.653 -0.0407  1.7654 -0.6393
10685SOL    HW237376   3.452  10.720   1.752 -1.1113  2.5168  0.8142
10686SOL     OW37377   3.355   6.926   5.791 -0.0167 -0.4952 -0.2273
10686SOL    HW137378   3.391   7.015   5.797 -0.0048 -0.5315  0.2960
10686SOL    HW237379   3.330   6.917   5.699  0.3112 -0.0775 -0.3663
10687SOL     OW37380   2.465   0.925   6.983 -0.0753 -0.1813  0.0798
10687SOL    HW137381   2.461   0.845   6.930 -2.1409 -0.9110  1.2124
10687SOL    HW237382   2.546   0.918   7.032 -0.7456 -2.1872  0.9828
10688SOL     OW37383   3.380  11.238   2.089  0.3545  0.3711 -0.2593
10688SOL    HW137384   3.363  11.157   2.136  2.0611 -0.1220 -0.4125
10688SOL    HW237385   3.393  11.303   2.158  0.8995  0.0843 -0.0865
10689SOL     OW37386   6.909   2.905   0.642 -0.4309 -0.3007 -0.4746
10689SOL    HW137387   6.880   2.839   0.580  0.3920 -0.7464 -0.3997
10689SOL    HW237388   6.962   2.857   0.705  0.9569  0.5445 -0.9469
10690SOL     OW37389   9.250   3.537   0.648 -0.2899 -0.3432  0.1107
10690SOL    HW137390   9.181   3.488   0.693 -1.0383 -1.3222 -1.9959
10690SOL    HW237391   9.318   3.472   0.632  0.4800  0.2716  0.8146
10691SOL     OW37392  11.408   3.850   2.958  0.7951 -0.1100  0.1661
10691SOL    HW137393  11.435   3.890   3.040  2.3606 -1.7623  0.5269
10691SOL    HW237394  11.368   3.767   2.984 -0.8056  0.3470 -0.6481
10692SOL     OW37395   4.119  11.718   4.390  0.0105  0.6680  0.1028
10692SOL    HW137396   4.131  11.786   4.323 -1.6405  1.1089  0.2201
10692SOL    HW237397   4.107  11.767   4.471  0.7759  0.1609  0.5312
10693SOL     OW37398   3.452   7.904  10.063 -0.0380 -0.2333  0.2615
10693SOL    HW137399   3.370   7.952  10.047  0.3119  0.8715  1.5878
10693SOL    HW237400   3.490   7.947  10.140  0.7875 -2.0341  0.9148
10694SOL     OW37401   5.582   3.082   6.099  0.2099 -0.5663 -0.3595
10694SOL    HW137402   5.603   3.069   6.007  0.3073  0.2971 -0.4669
10694SOL    HW237403   5.613   3.170   6.119  0.4319 -0.8417  0.5718
10695SOL     OW37404   3.750   0.622   1.531 -0.2786 -0.0539 -0.1311
10695SOL    HW137405   3.801   0.573   1.595  0.6219  0.3735 -0.5103
10695SOL    HW237406   3.800   0.701   1.514 -0.2296 -0.3796 -1.7263
10696SOL     OW37407   8.275   0.429   8.457  0.2298  0.7515 -0.4066
10696SOL    HW137408   8.342   0.419   8.525 -0.9728  0.6056  0.8084
10696SOL    HW237409   8.302   0.369   8.387 -1.4091 -3.6631  2.3396
10697SOL     OW37410   6.242   3.797   8.883 -0.2812 -0.5755  0.3005
10697SOL    HW137411   6.310   3.734   8.909 -0.6507 -0.5322  1.3987
10697SOL    HW237412   6.278   3.882   8.908 -0.0449 -0.3878 -0.6320
10698SOL     OW37413   3.348   8.120   9.741 -0.2393  0.9695 -0.2256
10698SOL    HW137414   3.288   8.046   9.751  1.0307  0.0078  0.7141
10698SOL    HW237415   3.435   8.082   9.756  0.5466  2.4464 -0.8415
10699SOL     OW37416   2.863   8.847   6.121  0.1010  0.7856 -0.0471
10699SOL    HW137417   2.776   8.832   6.158  0.8559  0.6171  1.7331
10699SOL    HW237418   2.901   8.760   6.110  1.1114  0.9070  1.9562
10700SOL     OW37419   4.549  10.988   3.438 -0.4881  0.1929 -0.4090
10700SOL    HW137420   4.520  11.026   3.355  1.3458 -0.0056 -1.1921
10700SOL    HW237421   4.556  11.063   3.497  0.1502  0.6582 -1.0476
10701SOL     OW37422   2.346  11.179   3.788  0.0858 -0.1699 -0.1979
10701SOL    HW137423   2.273  11.211   3.842 -0.4053 -1.1072 -0.2779
10701SOL    HW237424   2.424  11.210   3.832 -0.3387 -0.0154  0.4601
10702SOL     OW37425   4.084  10.346  11.356 -0.0027  0.2818 -0.1040
10702SOL    HW137426   4.142  10.399  11.300  0.0432  0.7997  0.4246
10702SOL    HW237427   4.005  10.335  11.304 -0.1922  1.2698 -0.0490
10703SOL     OW37428   5.299   4.099  10.455 -0.6037 -0.2080 -0.3312
10703SOL    HW137429   5.354   4.039  10.404 -1.3266 -1.3359  0.1729
10703SOL    HW237430   5.360   4.138  10.518  0.2321  0.9556 -1.7835
10704SOL     OW37431   2.418   9.755   6.702 -0.5788 -0.0013  0.0412
10704SOL    HW137432   2.423   9.844   6.669 -2.0546  0.1614  0.1720
10704SOL    HW237433   2.429   9.699   6.625  1.1102  0.2525  0.0703
10705SOL     OW37434  10.738   2.774   5.971  0.0407 -0.2635  0.0862
10705SOL    HW137435  10.750   2.696   6.025  0.2935 -1.2929 -1.4189
10705SOL    HW237436  10.805   2.835   6.002  0.4528 -0.9949  0.6466
10706SOL     OW37437   1.604  11.206   6.223 -0.1775  0.3164  0.1586
10706SOL    HW137438   1.664  11.137   6.195 -1.3867 -0.2869 -1.0650
10706SOL    HW237439   1.518  11.177   6.192 -0.8731  1.8877  0.5212
10707SOL     OW37440  11.545  10.325  10.149 -0.1070  0.1008 -0.5147
10707SOL    HW137441  11.511  10.259  10.088  0.7869 -0.2322 -0.6578
10707SOL    HW237442  11.475  10.336  10.214  0.0221 -1.5215 -0.0776
10708SOL     OW37443   9.286   4.465   7.361  0.4157  0.0535 -0.1875
10708SOL    HW137444   9.263   4.537   7.420  0.4017  0.3665 -0.5671
10708SOL    HW237445   9.340   4.406   7.414  0.4213  0.3403  0.1281
10709SOL     OW37446   7.539   9.032   3.432  0.7799 -0.5351  0.4982
10709SOL    HW137447   7.564   8.940   3.438  0.5300 -0.5938  0.6596
10709SOL    HW237448   7.467   9.041   3.494  1.4576 -0.0001  1.2130
10710SOL     OW37449   3.690   4.534   6.894  0.0783  0.2528  0.4172
10710SOL    HW137450   3.665   4.550   6.985  0.0422 -0.9500  0.6356
10710SOL    HW237451   3.609   4.509   6.851  0.1196  0.6985  0.0753
10711SOL     OW37452  11.074   6.169   7.207 -0.1218 -0.7358 -0.4470
10711SOL    HW137453  11.135   6.192   7.137 -0.2855 -2.3100 -1.1558
10711SOL    HW237454  11.061   6.250   7.256  2.9422 -0.4509  0.0608
10712SOL     OW37455   8.204   8.846   1.358 -0.6927  0.3036 -0.3861
10712SOL    HW137456   8.155   8.867   1.438 -0.1361  0.8699 -0.1876
10712SOL    HW237457   8.145   8.873   1.287 -1.3099 -0.4743 -0.1836
10713SOL     OW37458   4.552   6.919  11.534 -0.0480  0.3915 -0.4023
10713SOL    HW137459   4.475   6.916  11.591  0.1789 -0.3729 -0.1279
10713SOL    HW237460   4.540   6.846  11.474 -0.6362  1.5938 -1.8208
10714SOL     OW37461  10.815   7.238   5.084 -0.6879 -0.2434  0.0230
10714SOL    HW137462  10.841   7.157   5.039 -0.9524 -0.4413  0.2248
10714SOL    HW237463  10.785   7.295   5.014  1.6522  0.5454 -0.4107
10715SOL     OW37464   1.984   1.095   9.611 -0.1624  0.5984 -0.4901
10715SOL    HW137465   2.025   1.171   9.570 -1.0390  0.5991 -1.4204
10715SOL    HW237466   1.974   1.032   9.540 -0.1118 -0.1055  0.1124
10716SOL     OW37467   3.516   7.368   9.000  0.0735  0.5845 -0.3911
10716SOL    HW137468   3.480   7.383   8.912  0.2135  2.8374 -0.1217
10716SOL    HW237469   3.441   7.340   9.052 -0.7756  2.5651 -0.4741
10717SOL     OW37470   5.333  11.407  10.531  0.1605  0.4022 -0.0056
10717SOL    HW137471   5.303  11.463  10.459  0.1797  1.4286  0.7482
10717SOL    HW237472   5.428  11.405  10.523  0.0614 -2.6242 -2.2297
10718SOL     OW37473   1.061  10.285   4.022 -0.3525  0.4406 -0.2109
10718SOL    HW137474   0.992  10.322   3.968 -0.4938  1.1852  0.4623
10718SOL    HW237475   1.141  10.297   3.970 -0.7463 -0.6054 -1.0740
10719SOL     OW37476   5.708  10.304   1.297  0.5267 -0.2730  0.1412
10719SOL    HW137477   5.669  10.370   1.354 -0.5090 -0.8545  0.1415
10719SOL    HW237478   5.653  10.305   1.219  1.2150 -0.3197 -0.3507
10720SOL     OW37479   0.427   7.453   7.253 -0.0334 -0.0858 -0.4541
10720SOL    HW137480   0.362   7.408   7.308  1.8419 -1.9631  0.3891
10720SOL    HW237481   0.432   7.399   7.173  1.6339 -0.9995  0.2095
10721SOL     OW37482   2.522   6.727   3.801 -0.3743  0.1314 -0.3497
10721SOL    HW137483   2.510   6.664   3.731 -1.7860 -0.3520  0.3017
10721SOL    HW237484   2.511   6.813   3.759  1.4999  0.0099 -1.2235
10722SOL     OW37485  11.038   9.219   0.665  0.1363  0.1881  0.1108
10722SOL    HW137486  11.113   9.169   0.697  0.2387 -0.9913 -1.8233
10722SOL    HW237487  11.001   9.259   0.744 -0.1007 -3.1339  1.8493
10723SOL     OW37488   4.622   9.909   5.379 -0.1204  0.1153  0.1994
10723SOL    HW137489   4.682   9.982   5.394  1.5237 -1.1567  0.1039
10723SOL    HW237490   4.670   9.851   5.320 -1.1306 -1.3497  0.7745
10724SOL     OW37491   6.744  10.489   7.026 -0.1809  0.0369  0.0749
10724SOL    HW137492   6.764  10.420   6.961  0.4854 -0.3124  0.6303
10724SOL    HW237493   6.711  10.441   7.102 -2.3259  0.5516 -0.4920
10725SOL     OW37494   9.588   2.659   9.389 -0.3788  0.0383 -0.2120
10725SOL    HW137495   9.655   2.722   9.362  0.2836 -0.8271 -0.6470
10725SOL    HW237496   9.618   2.576   9.353 -0.7176 -0.7167  1.1905
10726SOL     OW37497   8.517  10.246   7.897 -1.1883  0.1919  0.2241
10726SOL    HW137498   8.484  10.158   7.879 -1.4895  0.5235 -0.9113
10726SOL    HW237499   8.538  10.245   7.991  0.8683 -1.7594 -0.1765
10727SOL     OW37500   6.269   1.345  11.156  0.0074 -0.1854  0.1481
10727SOL    HW137501   6.227   1.361  11.071 -0.2884 -2.1770 -0.1224
10727SOL    HW237502   6.284   1.432  11.191  1.2119  0.7723 -2.4583
10728SOL     OW37503   3.433   5.258   5.472  0.2388 -0.3001  0.3476
10728SOL    HW137504   3.508   5.263   5.412 -0.3217 -0.5560 -0.3929
10728SOL    HW237505   3.438   5.339   5.523  0.3979  0.2073 -0.4478
10729SOL     OW37506   4.943  10.370   3.388  0.0603  0.0744  0.6770
10729SOL    HW137507   4.869  10.429   3.379 -0.7581 -1.1854 -2.4364
10729SOL    HW237508   4.908  10.293   3.433 -0.8712 -0.8487 -1.4793
10730SOL     OW37509  11.573   5.741  10.219 -0.4532 -0.2022  0.2516
10730SOL    HW137510  11.631   5.668  10.243  0.3297 -0.0553 -1.1032
10730SOL    HW237511  11.585   5.751  10.125  0.8477  2.8441  0.6560
10731SOL     OW37512   7.114   6.909   8.429 -0.4046  0.0907 -0.2984
10731SOL    HW137513   7.051   6.928   8.499  0.4016 -1.3714  0.8886
10731SOL    HW237514   7.199   6.903   8.474  0.4944  1.2932 -1.7529
10732SOL     OW37515   8.982   0.158   6.240 -0.0991  0.4435 -0.4559
10732SOL    HW137516   8.897   0.192   6.214  0.0957 -0.3596 -2.3128
10732SOL    HW237517   9.042   0.232   6.228 -0.3646  0.6973 -0.2101
10733SOL     OW37518  10.550   3.557   9.100  0.0866  0.9352 -0.0473
10733SOL    HW137519  10.616   3.488   9.096  0.6254  1.4385 -0.0753
10733SOL    HW237520  10.481   3.522   9.156 -0.9200 -0.6739 -2.1661
10734SOL     OW37521  10.859   6.614   3.306  0.6064 -0.4668 -0.1278
10734SOL    HW137522  10.894   6.687   3.254  0.4544 -0.2883  0.0171
10734SOL    HW237523  10.845   6.652   3.393  1.6562 -0.9842  0.2820
10735SOL     OW37524   7.272   4.643   9.709 -0.2964 -0.1534 -0.0020
10735SOL    HW137525   7.265   4.551   9.681  0.5127 -0.6317  1.2752
10735SOL    HW237526   7.359   4.670   9.680 -0.5265  0.2090 -0.3566
10736SOL     OW37527   3.789   6.834   7.785  0.4657  0.0794 -0.0732
10736SOL    HW137528   3.861   6.778   7.815  0.9850 -1.0599 -3.0520
10736SOL    HW237529   3.713   6.777   7.787  0.4380  0.0974 -0.5291
10737SOL     OW37530   0.509  10.880   1.351  0.1387  0.1568 -0.5426
10737SOL    HW137531   0.525  10.963   1.394 -3.1111 -0.1314  1.5825
10737SOL    HW237532   0.443  10.899   1.285  0.3843 -0.5248 -1.0016
10738SOL     OW37533   6.511   4.777   7.265 -0.4870  0.2883  0.4728
10738SOL    HW137534   6.572   4.728   7.319 -0.6947  0.4172  0.8277
10738SOL    HW237535   6.433   4.789   7.320 -1.1897 -0.6523 -0.2842
10739SOL     OW37536   3.063   6.916   0.561 -0.0479 -0.3677  0.2403
10739SOL    HW137537   3.118   6.981   0.517  0.2815 -0.9832 -0.2758
10739SOL    HW237538   3.095   6.832   0.528 -1.8225 -0.7156 -0.6575
10740SOL     OW37539   4.079   4.599   7.631 -0.4709  0.6437  0.2889
10740SOL    HW137540   4.107   4.510   7.608 -2.1064 -0.3670  1.9171
10740SOL    HW237541   3.985   4.599   7.614 -0.0801  3.1004 -2.6140
10741SOL     OW37542   7.354   0.963   7.067 -0.5006 -0.4107 -0.0225
10741SOL    HW137543   7.409   0.966   7.146 -1.8251  0.2890  0.9258
10741SOL    HW237544   7.324   0.872   7.062  0.1972 -0.6423 -0.1823
10742SOL     OW37545   1.268   6.732   6.972 -0.1605 -0.1552 -0.4014
10742SOL    HW137546   1.302   6.793   6.906  0.3625  0.2121  0.1885
10742SOL    HW237547   1.339   6.724   7.035 -0.3434 -1.1613 -0.3204
10743SOL     OW37548   3.914   2.163   5.675 -0.3324  0.0739 -0.4192
10743SOL    HW137549   3.869   2.211   5.744 -1.0265 -0.9240 -0.1589
10743SOL    HW237550   4.007   2.182   5.688 -0.5704  1.1279 -0.1764
10744SOL     OW37551   9.514   8.302   9.492  0.3487  0.1706 -0.2958
10744SOL    HW137552   9.549   8.369   9.433 -0.0828 -0.3151 -1.1152
10744SOL    HW237553   9.587   8.243   9.507  0.7962  0.9256  0.6054
10745SOL     OW37554   9.105   7.684   6.004 -0.5253 -0.1310  0.0324
10745SOL    HW137555   9.187   7.711   5.962 -0.8990  1.4753  0.2796
10745SOL    HW237556   9.121   7.593   6.029  0.6782 -0.3012 -1.1594
10746SOL     OW37557   0.426   6.729   9.322  0.1438  0.5843  0.4469
10746SOL    HW137558   0.422   6.800   9.258 -0.7169  0.3001  0.1653
10746SOL    HW237559   0.518   6.706   9.326  0.0015 -1.0974 -2.6071
10747SOL     OW37560   9.184   0.270   7.972  0.7453 -0.4941 -0.4993
10747SOL    HW137561   9.093   0.248   7.953  0.8737 -0.3645 -1.2702
10747SOL    HW237562   9.229   0.266   7.888  0.9999  1.6170 -0.5176
10748SOL     OW37563   8.752   7.086   7.506  0.2567  0.0404  0.0925
10748SOL    HW137564   8.817   7.111   7.572  0.0610  0.2955  0.1899
10748SOL    HW237565   8.801   7.085   7.424  0.5880 -0.6556  0.2924
10749SOL     OW37566   1.687   0.049   7.501  0.2643 -0.2596  0.6743
10749SOL    HW137567   1.643   0.054   7.416  2.5774 -2.8475 -0.8505
10749SOL    HW237568   1.773   0.090   7.486  0.7289 -0.8141  1.7261
10750SOL     OW37569   7.739   7.343   8.526  0.5959 -0.2152 -0.3030
10750SOL    HW137570   7.781   7.265   8.491  0.3008 -0.3349 -0.3900
10750SOL    HW237571   7.699   7.385   8.450  0.0875 -0.3936 -0.1379
10751SOL     OW37572  11.024   4.546   6.407  0.0774  0.2855  0.3494
10751SOL    HW137573  11.004   4.484   6.477  0.3044  0.1668  0.3090
10751SOL    HW237574  11.109   4.582   6.429  0.6922 -0.6041 -0.4547
10752SOL     OW37575   3.516   6.297   0.749 -0.2835 -0.9240  0.1273
10752SOL    HW137576   3.550   6.231   0.810  0.1897 -0.6868  0.1231
10752SOL    HW237577   3.442   6.253   0.706 -0.6498 -1.0895  0.8885
10753SOL     OW37578   4.010   3.824   4.362 -0.2340 -0.1876  0.1642
10753SOL    HW137579   4.069   3.798   4.433 -1.0604  0.7597  1.2473
10753SOL    HW237580   4.005   3.919   4.369 -1.0710 -0.1679 -0.5755
10754SOL     OW37581   2.432   2.457   7.592 -0.7025  0.3327  0.8932
10754SOL    HW137582   2.507   2.419   7.637 -0.8306  0.3196  1.0971
10754SOL    HW237583   2.389   2.383   7.549 -0.9237  0.2566  1.2492
10755SOL     OW37584   3.887   6.029   4.744  0.6737 -0.0050  0.1159
10755SOL    HW137585   3.830   6.048   4.818 -0.7664  0.2138 -1.0142
10755SOL    HW237586   3.967   6.080   4.762 -0.2863  1.3503  0.7055
10756SOL     OW37587   5.491  10.132   9.036  0.2541  0.9262 -0.4404
10756SOL    HW137588   5.493  10.183   9.116  1.0741  2.3859 -1.3466
10756SOL    HW237589   5.426  10.063   9.053 -1.5721  2.7637  0.5428
10757SOL     OW37590   7.568   5.577  11.333  0.3570 -0.8036  0.1005
10757SOL    HW137591   7.490   5.570  11.388 -0.6535 -1.2640 -1.3359
10757SOL    HW237592   7.611   5.492  11.341 -0.4157 -1.2888 -0.6818
10758SOL     OW37593   5.960   8.848   9.354 -0.8779 -0.5680 -0.0869
10758SOL    HW137594   5.871   8.827   9.325 -1.1807 -1.5411  1.4467
10758SOL    HW237595   5.948   8.884   9.442  0.3071 -1.6734  0.5535
10759SOL     OW37596   3.621   3.985   0.517  0.0382 -0.1289 -0.1148
10759SOL    HW137597   3.715   3.974   0.528  0.1859 -2.2207 -2.4758
10759SOL    HW237598   3.597   3.920   0.451 -3.0868  0.2983  0.4331
10760SOL     OW37599   9.423   0.263   5.663 -0.2468 -0.2910  0.5011
10760SOL    HW137600   9.335   0.292   5.636 -0.1894 -0.9141 -0.4176
10760SOL    HW237601   9.449   0.202   5.594  2.2960  2.3601 -1.1074
10761SOL     OW37602   6.608   6.044   6.631 -0.3449  0.2094  0.2605
10761SOL    HW137603   6.642   5.955   6.638  0.9390  0.6311 -0.2236
10761SOL    HW237604   6.573   6.050   6.542 -1.9156 -0.2771  0.8145
10762SOL     OW37605   6.112  11.176   2.610  0.0572  0.2186 -0.3471
10762SOL    HW137606   6.141  11.104   2.666 -0.0609  1.0332  0.7884
10762SOL    HW237607   6.107  11.137   2.522 -0.0944 -1.1781  0.2474
10763SOL     OW37608  11.412   6.757   9.837  0.0242 -0.1589  0.2394
10763SOL    HW137609  11.323   6.743   9.871 -0.1016  0.6269  0.2665
10763SOL    HW237610  11.399   6.808   9.757  0.4896  0.8707  0.7895
10764SOL     OW37611   2.082   9.042   3.558  0.3836  0.2009  0.3539
10764SOL    HW137612   2.024   9.093   3.615 -0.2848 -1.1460  0.9423
10764SOL    HW237613   2.072   8.952   3.590 -0.1438 -0.6447 -1.9937
10765SOL     OW37614   4.326   1.200   8.512 -0.6773  0.1921 -0.0838
10765SOL    HW137615   4.346   1.119   8.465 -0.0329  0.4645 -0.2952
10765SOL    HW237616   4.313   1.265   8.443 -0.5985  0.4001  0.0964
10766SOL     OW37617   4.266  11.219   7.209 -0.1114 -0.0177  0.1138
10766SOL    HW137618   4.343  11.172   7.240  0.3534  1.7690  1.8791
10766SOL    HW237619   4.218  11.241   7.288 -2.5610 -1.1951 -0.9607
10767SOL     OW37620   2.357   8.558   9.078  0.3519  0.0273 -0.8902
10767SOL    HW137621   2.392   8.470   9.067  1.6099  0.3306  0.4663
10767SOL    HW237622   2.330   8.585   8.990 -1.9840 -2.4462 -1.0552
10768SOL     OW37623   2.165   9.966   6.812 -0.1900  0.0642  0.1902
10768SOL    HW137624   2.241   9.928   6.769  0.2001  0.5975  0.4045
10768SOL    HW237625   2.200  10.011   6.888 -1.0846 -2.9215  2.5710
10769SOL     OW37626   9.073   4.647   8.778  0.3543 -0.6519 -0.4283
10769SOL    HW137627   9.142   4.649   8.844  0.5082 -1.5326 -0.5481
10769SOL    HW237628   9.078   4.732   8.734 -0.2550  0.2603  1.1965
10770SOL     OW37629   9.428  11.770   8.294 -0.2452 -0.1575 -0.1794
10770SOL    HW137630   9.355  11.744   8.350 -0.7221 -0.2999 -0.8523
10770SOL    HW237631   9.388  11.789   8.209  0.3716  0.7384 -0.2915
10771SOL     OW37632   7.128   4.717  10.437  0.0589  0.1710  0.3514
10771SOL    HW137633   7.066   4.695  10.507  0.4268  0.9303  0.9323
10771SOL    HW237634   7.183   4.786  10.474  0.6746  0.1441 -0.4718
10772SOL     OW37635   5.291   2.106  10.274 -0.7869  0.1350  0.3769
10772SOL    HW137636   5.359   2.074  10.334 -0.6792 -0.3729 -0.0098
10772SOL    HW237637   5.330   2.184  10.234  0.4815 -1.3433 -1.4557
10773SOL     OW37638  10.358   0.294   9.595  0.0969 -0.4227  0.0105
10773SOL    HW137639  10.439   0.311   9.547 -0.1278  0.3682 -0.0993
10773SOL    HW237640  10.291   0.286   9.526 -0.1907  0.5155  0.1700
10774SOL     OW37641   7.786   5.639   8.084 -0.1306 -0.3708  0.1710
10774SOL    HW137642   7.862   5.688   8.053 -2.0916  1.5372 -2.1066
10774SOL    HW237643   7.758   5.588   8.008 -1.3652 -0.6805  0.8111
10775SOL     OW37644  10.908   2.380   4.211  0.3380  0.0621 -0.1872
10775SOL    HW137645  10.976   2.443   4.237  0.7884 -0.2019 -0.6938
10775SOL    HW237646  10.845   2.382   4.283  0.2192  1.2672 -0.3088
10776SOL     OW37647   2.582   3.189   7.565 -0.0230  0.3300  0.1949
10776SOL    HW137648   2.545   3.111   7.607  1.4817 -0.5360 -0.0204
10776SOL    HW237649   2.677   3.176   7.569  0.2342  1.7129 -0.6927
10777SOL     OW37650   0.799   0.769  11.292 -0.3696  0.1405 -0.0155
10777SOL    HW137651   0.740   0.809  11.355 -0.7874  1.5425 -1.2374
10777SOL    HW237652   0.887   0.788  11.325 -0.5876  0.6336  0.2858
10778SOL     OW37653   7.430   2.242   7.790  0.0588 -0.2153 -0.1839
10778SOL    HW137654   7.337   2.246   7.811 -0.1828 -0.5100 -1.1352
10778SOL    HW237655   7.434   2.247   7.694  1.0001 -0.4860 -0.1798
10779SOL     OW37656   1.628   9.107   5.474  0.0180  0.1612  0.9024
10779SOL    HW137657   1.639   9.166   5.399 -1.0627 -1.1302 -0.3464
10779SOL    HW237658   1.650   9.020   5.439  1.5544 -0.2213  2.6834
10780SOL     OW37659   7.020   3.290  11.249  0.7290 -0.4631  0.0178
10780SOL    HW137660   6.931   3.290  11.214  0.9898 -1.9868 -0.7182
10780SOL    HW237661   7.075   3.316  11.175  0.9328  0.3153  0.4255
10781SOL     OW37662   2.870   6.837   4.969  0.0939  0.4241 -0.4718
10781SOL    HW137663   2.862   6.789   4.887 -0.3302  0.8409 -0.6808
10781SOL    HW237664   2.964   6.843   4.985  0.1465 -0.7897 -0.2493
10782SOL     OW37665  11.297   7.368   4.539 -0.2556 -0.0496  0.2866
10782SOL    HW137666  11.333   7.320   4.464  0.4092  0.4937  0.2578
10782SOL    HW237667  11.272   7.453   4.503 -0.0560  0.1648  0.6511
10783SOL     OW37668  10.807   7.983   9.694  0.5163  0.4610  0.8392
10783SOL    HW137669  10.813   8.079   9.692 -0.8761  0.5751  1.0483
10783SOL    HW237670  10.885   7.954   9.648  0.7730  1.7131  0.4218
10784SOL     OW37671   4.049   7.020   6.767 -0.3656 -0.4324  0.1029
10784SOL    HW137672   4.035   6.925   6.761  2.1450 -0.9409  1.1037
10784SOL    HW237673   3.976   7.052   6.821 -1.7051 -1.6223 -0.9130
10785SOL     OW37674   1.659   3.112   6.213 -0.0904  0.4732 -0.1099
10785SOL    HW137675   1.734   3.066   6.250 -1.0349 -0.6922  0.3936
10785SOL    HW237676   1.651   3.077   6.124  1.4773  2.4495 -1.1240
10786SOL     OW37677  10.117   4.233   5.706 -0.4554 -0.5004  0.5837
10786SOL    HW137678  10.030   4.201   5.682 -0.1228 -0.3036 -0.9427
10786SOL    HW237679  10.107   4.327   5.717 -0.7111 -0.6486  1.7838
10787SOL     OW37680   7.588   1.885   4.930 -0.6092 -0.2002  0.4323
10787SOL    HW137681   7.569   1.976   4.949 -0.5446 -0.1658  0.3315
10787SOL    HW237682   7.503   1.846   4.910 -0.4843  0.1379 -0.8112
10788SOL     OW37683   4.114   5.841   1.741 -0.1316  0.5321  0.2890
10788SOL    HW137684   4.033   5.791   1.739  0.8353 -1.1124  0.5437
10788SOL    HW237685   4.161   5.808   1.818  0.2384  2.3503  0.8907
10789SOL     OW37686   7.607   3.377   8.499 -0.6102  0.4218  0.3422
10789SOL    HW137687   7.564   3.294   8.481  1.7682 -0.4240 -2.0025
10789SOL    HW237688   7.684   3.354   8.551 -1.0918  1.5044  1.6236
10790SOL     OW37689   6.321   6.803  10.080  0.4132  0.2920  0.3378
10790SOL    HW137690   6.301   6.775  10.169 -0.6949  0.1255  0.0559
10790SOL    HW237691   6.415   6.786  10.069  0.7901  1.2955  1.8087
10791SOL     OW37692  11.021   2.002  11.311  0.0779  0.4059  0.9361
10791SOL    HW137693  11.049   2.081  11.264 -1.9623  1.7860  1.8724
10791SOL    HW237694  10.932   1.987  11.280  1.3642 -3.5822 -1.6826
10792SOL     OW37695  11.165   0.143   4.686  0.4872  0.1451 -0.5496
10792SOL    HW137696  11.165   0.085   4.610  1.0075 -2.0779  1.0513
10792SOL    HW237697  11.076   0.141   4.719  0.5175  0.2349 -0.4576
10793SOL     OW37698   2.684   9.856   4.926  0.2390  0.0978 -0.3688
10793SOL    HW137699   2.604   9.907   4.933  0.2806  0.5206 -2.3195
10793SOL    HW237700   2.655   9.766   4.914  0.0064  0.3018 -1.4690
10794SOL     OW37701  10.230   0.819   2.268  0.0934  0.6312  0.3280
10794SOL    HW137702  10.301   0.844   2.209 -0.7615  0.2740 -0.8869
10794SOL    HW237703  10.162   0.883   2.252 -2.0434 -2.0609 -2.6583
10795SOL     OW37704  10.503   6.609   4.748  0.7844  0.6075 -0.6400
10795SOL    HW137705  10.503   6.514   4.751 -0.5643  0.5323 -1.7848
10795SOL    HW237706  10.433   6.631   4.687  0.4236  2.3546  0.3208
10796SOL     OW37707   4.592   3.621   4.673 -0.0075  0.4523 -0.4167
10796SOL    HW137708   4.676   3.600   4.633  0.3930 -2.3112  1.5811
10796SOL    HW237709   4.548   3.536   4.682 -2.4745  1.6657 -0.1806
10797SOL     OW37710  11.329   7.870  10.533  0.1815 -0.3126 -0.4318
10797SOL    HW137711  11.235   7.850  10.530 -0.2002  1.3064 -0.4606
10797SOL    HW237712  11.363   7.837  10.450 -0.3222 -1.0702 -0.3491
10798SOL     OW37713   4.989   1.687   8.996 -0.6996  0.4817  0.5288
10798SOL    HW137714   4.899   1.656   9.006 -1.1120  1.4006 -0.1737
10798SOL    HW237715   5.026   1.686   9.085 -1.3494 -0.0557  0.7926
10799SOL     OW37716   8.072   8.033  10.242 -0.0374  0.4213  0.2711
10799SOL    HW137717   8.136   8.103  10.248  0.5631  0.2600 -2.7369
10799SOL    HW237718   8.009   8.063  10.176 -0.5884 -1.2351 -0.0059
10800SOL     OW37719   5.182   9.613   5.263 -0.1588  0.1364 -0.0437
10800SOL    HW137720   5.242   9.675   5.223  0.8270 -0.0596  1.0730
10800SOL    HW237721   5.238   9.546   5.303 -1.1211 -0.3356  0.5789
10801SOL     OW37722   5.444   0.271  10.393 -0.2816 -0.1757 -0.1647
10801SOL    HW137723   5.518   0.236  10.343  2.4012  0.1554  3.2469
10801SOL    HW237724   5.443   0.364  10.371  0.4094 -0.1666 -0.1874
10802SOL     OW37725   5.417   2.922   8.939  0.3994  0.3060 -0.0713
10802SOL    HW137726   5.433   2.850   9.000 -2.0114 -0.6537 -0.4700
10802SOL    HW237727   5.334   2.959   8.967  1.3474  2.7005 -0.1717
10803SOL     OW37728   6.263   5.571   7.693  0.0806 -0.1304  0.1940
10803SOL    HW137729   6.193   5.512   7.724 -1.1637  1.0000 -0.3697
10803SOL    HW237730   6.232   5.601   7.607  1.3357  0.3162 -0.1199
10804SOL     OW37731   6.212   9.907   4.928  0.4501  0.6445 -0.7301
10804SOL    HW137732   6.244   9.918   4.838 -0.4684 -3.6852 -1.8286
10804SOL    HW237733   6.126   9.867   4.918 -0.8550  2.4640  2.1633
10805SOL     OW37734   5.653   9.623   3.989  0.6414  0.2660 -0.2122
10805SOL    HW137735   5.687   9.670   3.913  0.1529 -0.5382 -0.9465
10805SOL    HW237736   5.699   9.539   3.987 -0.9501 -0.6310 -0.9104
10806SOL     OW37737  11.427   9.987   4.963  0.7829 -0.3618 -0.0311
10806SOL    HW137738  11.432  10.043   5.040  0.2963  0.6850 -0.7367
10806SOL    HW237739  11.513   9.995   4.922  1.2734 -1.4446  0.7279
10807SOL     OW37740   6.190   8.417   4.413 -0.3876 -0.9716 -0.5008
10807SOL    HW137741   6.231   8.450   4.333 -1.7049  2.0608 -0.0663
10807SOL    HW237742   6.097   8.406   4.390 -0.8510  0.2708  0.6419
10808SOL     OW37743   7.960   5.526   0.949  0.0747 -0.5795 -0.8019
10808SOL    HW137744   7.915   5.445   0.926  0.0977 -0.1694 -2.4129
10808SOL    HW237745   7.902   5.595   0.918 -0.3467  0.0759  1.3084
10809SOL     OW37746   7.270   3.436   2.123 -0.7795  0.1570  0.3038
10809SOL    HW137747   7.258   3.516   2.072 -1.4787 -0.7655 -1.0413
10809SOL    HW237748   7.207   3.443   2.194 -1.9857  0.1054 -0.7299
10810SOL     OW37749   5.282   5.785  11.093 -0.3109 -0.4050 -0.3748
10810SOL    HW137750   5.305   5.867  11.137  0.2107  1.3658 -3.6403
10810SOL    HW237751   5.366   5.751  11.061 -0.8896 -0.0185 -2.4548
10811SOL     OW37752   6.688   6.509   5.635  0.8475 -0.1693  0.1461
10811SOL    HW137753   6.598   6.480   5.652  1.1658 -0.0827  2.1929
10811SOL    HW237754   6.680   6.600   5.608  0.3498 -0.0308  0.7546
10812SOL     OW37755   5.859   9.170  11.067  0.1895  0.2735  0.3155
10812SOL    HW137756   5.783   9.228  11.060 -1.1566 -1.4434  0.2161
10812SOL    HW237757   5.867   9.129  10.981  1.8217  1.0871  0.0328
10813SOL     OW37758   9.135  11.569   1.837 -0.5745  0.3058 -0.2187
10813SOL    HW137759   9.101  11.621   1.910  0.7593 -0.5425  1.0595
10813SOL    HW237760   9.058  11.552   1.782 -1.5772  1.1192  0.8744
10814SOL     OW37761  10.190   2.533   6.093  0.1909  0.9327  0.6979
10814SOL    HW137762  10.106   2.579   6.103  0.5654  1.8866 -0.3643
10814SOL    HW237763  10.246   2.595   6.046  1.2180 -0.0274  0.6175
10815SOL     OW37764   6.372  10.197   6.242 -0.1266  0.3829 -0.6170
10815SOL    HW137765   6.419  10.275   6.213  0.3937  0.1062 -0.5281
10815SOL    HW237766   6.358  10.210   6.335  1.6918 -0.4874 -0.1770
10816SOL     OW37767   3.734   7.887  11.439  0.3817 -0.2694  0.0965
10816SOL    HW137768   3.660   7.828  11.452  0.5836 -0.4577  0.3707
10816SOL    HW237769   3.748   7.928  11.524  1.0201 -0.7238  0.2143
10817SOL     OW37770   3.027   7.540   0.747  0.7883 -0.1738 -0.1552
10817SOL    HW137771   2.942   7.522   0.788  0.2476  0.1827 -1.0728
10817SOL    HW237772   3.084   7.469   0.777  0.3983  0.0317  1.1135
10818SOL     OW37773   9.669   0.737   5.838 -0.2112  0.0109  0.1799
10818SOL    HW137774   9.715   0.781   5.767  3.0519 -0.0927  2.0902
10818SOL    HW237775   9.684   0.643   5.821  1.4525  0.0059  1.4465
10819SOL     OW37776  11.572   8.481  10.763 -0.1754  0.1302 -0.3978
10819SOL    HW137777  11.492   8.512  10.804 -0.9073  2.2991 -3.1602
10819SOL    HW237778  11.610   8.559  10.722  1.4388 -1.5004 -2.1990
10820SOL     OW37779   7.032   9.508   5.994 -0.2243 -0.3983 -0.1459
10820SOL    HW137780   7.018   9.421   6.031  0.1424  0.5531  2.4806
10820SOL    HW237781   7.108   9.542   6.041 -0.0814  1.1762 -1.4195
10821SOL     OW37782   0.462   8.405   1.783 -0.0217  0.1106 -0.2704
10821SOL    HW137783   0.519   8.481   1.772 -0.3008  0.2939 -0.4704
10821SOL    HW237784   0.374   8.443   1.790 -0.2436 -0.2389 -1.1168
10822SOL     OW37785   6.371  10.658   2.237  0.4956  0.0473  0.4221
10822SOL    HW137786   6.315  10.716   2.288 -0.0465 -1.0299  1.0925
10822SOL    HW237787   6.456  10.660   2.281 -0.1128 -1.2878  1.7454
10823SOL     OW37788   2.727   3.157   5.301 -0.0087 -0.1223 -0.6307
10823SOL    HW137789   2.755   3.066   5.288  1.8118  0.5835 -2.0389
10823SOL    HW237790   2.783   3.189   5.372 -1.6073 -0.4449  0.8481
10824SOL     OW37791   1.442  10.055   0.322 -0.2692 -0.1423  0.0513
10824SOL    HW137792   1.365  10.112   0.335  0.2535  0.4147  0.8287
10824SOL    HW237793   1.409   9.967   0.337 -0.4917  0.1987  1.7417
10825SOL     OW37794   5.315   2.804   3.125 -0.5978  0.1365 -0.2194
10825SOL    HW137795   5.343   2.761   3.044 -1.5456 -0.6307 -0.1726
10825SOL    HW237796   5.252   2.870   3.097 -0.4635  0.2884 -0.1601
10826SOL     OW37797   3.124   5.124   4.562  0.0461  0.1408 -0.3936
10826SOL    HW137798   3.123   5.139   4.657 -0.8872  0.1571 -0.3957
10826SOL    HW237799   3.205   5.166   4.532  0.8391 -0.6740  0.5095
10827SOL     OW37800  10.349   4.700  10.880 -0.0350  0.0731 -0.6645
10827SOL    HW137801  10.344   4.682  10.973 -0.3164  1.2094 -0.4406
10827SOL    HW237802  10.443   4.710  10.862 -0.0380  0.9918 -0.2497
10828SOL     OW37803   7.563   8.442   0.341  0.4440 -0.5421  0.1915
10828SOL    HW137804   7.615   8.370   0.376  2.1770 -0.2476 -1.5776
10828SOL    HW237805   7.624   8.516   0.338 -0.6192  0.3413 -0.2036
10829SOL     OW37806   8.161   6.113   9.609  0.3954  0.1329 -0.0184
10829SOL    HW137807   8.152   6.031   9.658 -0.6660 -0.1063 -0.5809
10829SOL    HW237808   8.253   6.114   9.582  0.6393 -0.4313  0.7478
10830SOL     OW37809   5.248   3.945   6.277 -0.0663 -0.3922 -0.4604
10830SOL    HW137810   5.227   3.930   6.370  1.1307 -2.1737 -0.4344
10830SOL    HW237811   5.248   4.040   6.268 -0.5099 -0.1847  1.2885
10831SOL     OW37812   1.995   2.191   8.815 -0.0691 -0.5892 -0.4001
10831SOL    HW137813   2.064   2.254   8.837 -0.9323 -0.3714  2.0972
10831SOL    HW237814   1.938   2.239   8.755 -0.6882  1.1241  1.4080
10832SOL     OW37815   4.860   6.643  10.991  0.3985  0.4977  0.3133
10832SOL    HW137816   4.778   6.594  10.999  0.6607 -0.1939 -1.0299
10832SOL    HW237817   4.850   6.694  10.911  1.6703 -0.4246 -0.4736
10833SOL     OW37818   8.408  10.404   7.684 -1.0516 -0.1742 -0.1519
10833SOL    HW137819   8.340  10.340   7.665 -2.0227  0.5100  0.8906
10833SOL    HW237820   8.481  10.352   7.719 -1.3962 -0.8142 -0.3730
10834SOL     OW37821   1.811  10.831   4.408 -0.4229  0.2739  0.2899
10834SOL    HW137822   1.883  10.894   4.410 -0.3557  0.3169 -1.7843
10834SOL    HW237823   1.833  10.770   4.338 -0.4363 -2.2157  2.3155
10835SOL     OW37824   3.588  10.886   5.146  0.2299  0.1675  0.4347
10835SOL    HW137825   3.632  10.852   5.068 -1.1579  2.5820 -1.5522
10835SOL    HW237826   3.659  10.912   5.205  1.4037  0.4961 -1.0687
10836SOL     OW37827   8.357   0.843  11.730  0.3655 -0.0874  0.3827
10836SOL    HW137828   8.286   0.894  11.691  0.0414 -0.1363  0.9028
10836SOL    HW237829   8.437   0.891  11.706  0.3906 -1.2733 -2.1924
10837SOL     OW37830   5.196   3.770   5.196 -0.2542  0.7039  0.2668
10837SOL    HW137831   5.224   3.826   5.269  0.9162 -0.3000  0.6261
10837SOL    HW237832   5.204   3.827   5.119 -1.8960  1.9049  0.9224
10838SOL     OW37833   9.051   4.869  11.455  0.2826  0.1252  0.4217
10838SOL    HW137834   9.106   4.814  11.400 -1.6307 -0.4896 -0.9861
10838SOL    HW237835   9.014   4.809  11.520  0.2248  0.2739  0.5274
10839SOL     OW37836  10.276   7.983   1.241 -0.5596 -0.2080 -0.3252
10839SOL    HW137837  10.280   7.929   1.320 -1.3940 -0.3243 -0.3510
10839SOL    HW237838  10.366   7.989   1.212 -0.2516 -0.2390  0.5875
10840SOL     OW37839   1.870   2.458   0.917 -0.3061  0.2601  0.6617
10840SOL    HW137840   1.792   2.473   0.865 -0.2567  0.5477  0.6671
10840SOL    HW237841   1.850   2.382   0.971 -0.8835  0.8109  1.2478
10841SOL     OW37842   3.079   2.404   8.930  0.0091 -0.3680  0.3430
10841SOL    HW137843   3.114   2.393   8.841 -0.8413 -1.1071  0.0877
10841SOL    HW237844   3.155   2.432   8.981  0.4094  0.5425 -0.7012
10842SOL     OW37845   1.997   8.965   3.812  0.6662  0.0881  0.3384
10842SOL    HW137846   1.926   9.029   3.811  0.9516  0.4082 -0.0079
10842SOL    HW237847   1.963   8.892   3.864 -0.0250  0.1065 -0.0767
10843SOL     OW37848   7.309   5.876   7.588 -0.5284 -0.5342 -0.1367
10843SOL    HW137849   7.381   5.843   7.641  0.0670  0.5780 -0.2247
10843SOL    HW237850   7.326   5.970   7.580 -0.7782 -0.6054 -2.0085
10844SOL     OW37851   3.456  10.057  10.403  0.3816  0.9294 -0.3258
10844SOL    HW137852   3.542  10.098  10.403 -0.7947  3.7005  1.1711
10844SOL    HW237853   3.442  10.032  10.494 -0.7874  1.5463 -0.3127
10845SOL     OW37854  11.125   3.070   8.087  0.3814  0.3621  0.0682
10845SOL    HW137855  11.142   3.156   8.049 -0.2960  0.2318 -0.5511
10845SOL    HW237856  11.030   3.066   8.096  0.3895 -0.4021 -0.1168
10846SOL     OW37857   1.724  10.745   0.105  0.3252  0.3685 -0.3354
10846SOL    HW137858   1.672  10.667   0.086  0.5451  0.4333 -1.2669
10846SOL    HW237859   1.675  10.792   0.173 -0.6066  0.2166 -0.8925
10847SOL     OW37860   9.631   1.965  10.951 -0.5691 -0.1313 -0.0825
10847SOL    HW137861   9.659   1.874  10.945  1.2247  0.2767  1.2837
10847SOL    HW237862   9.712   2.015  10.948 -1.2619  1.2520  2.1381
10848SOL     OW37863   7.555   6.905   5.520 -0.4900  0.4340 -0.3586
10848SOL    HW137864   7.644   6.914   5.484 -0.5782  0.3526 -0.6000
10848SOL    HW237865   7.553   6.965   5.594  0.2345 -0.6276  0.5512
10849SOL     OW37866   2.338   5.406   4.802 -0.5366 -0.0739  0.4226
10849SOL    HW137867   2.306   5.466   4.734  1.4737 -1.9974 -2.4857
10849SOL    HW237868   2.411   5.453   4.843  0.4668 -0.0862 -1.2296
10850SOL     OW37869   9.986  11.439  11.786  0.6742  0.5417 -0.2740
10850SOL    HW137870  10.004  11.493  11.709  0.4776  0.3262 -0.4689
10850SOL    HW237871  10.032  11.357  11.769  0.3209  0.3547 -0.3295
10851SOL     OW37872   2.949  10.802  11.746  0.2102 -0.6990 -0.5785
10851SOL    HW137873   2.980  10.716  11.776  0.2161 -0.4530  0.1449
10851SOL    HW237874   2.915  10.843  11.825  2.7580  1.0796 -0.2735
10852SOL     OW37875   5.771   8.449   0.120 -0.2419 -0.0491 -0.2562
10852SOL    HW137876   5.768   8.529   0.068  0.6484  0.1405 -0.0271
10852SOL    HW237877   5.833   8.392   0.074  1.3736  0.5258  1.1254
10853SOL     OW37878   4.862   2.296   3.795  0.5978  0.3019 -0.5587
10853SOL    HW137879   4.769   2.288   3.817  0.5545 -0.1470 -0.8951
10853SOL    HW237880   4.870   2.385   3.760  0.5645  0.8272  0.7362
10854SOL     OW37881   9.119   1.325   4.135 -0.1551  0.1247  0.2350
10854SOL    HW137882   9.034   1.336   4.092  0.1206 -0.8698 -0.6217
10854SOL    HW237883   9.150   1.414   4.151 -0.3609  0.5334 -1.4740
10855SOL     OW37884   7.514   0.264  11.319  0.6725  0.0981  0.8616
10855SOL    HW137885   7.602   0.254  11.356  0.6041  0.2832  1.0761
10855SOL    HW237886   7.464   0.310  11.387  0.9063  1.6710 -0.0039
10856SOL     OW37887   0.491   9.150   2.241 -0.1513 -0.2775 -0.6372
10856SOL    HW137888   0.545   9.229   2.252 -0.9005  0.2356 -0.5332
10856SOL    HW237889   0.491   9.134   2.147 -0.1610 -0.0337 -0.6798
10857SOL     OW37890   0.323   4.973   5.543  0.1718  0.1270  0.3854
10857SOL    HW137891   0.323   4.991   5.637 -0.8278  0.6845  0.2969
10857SOL    HW237892   0.375   5.043   5.505 -1.3196  1.2290  0.3198
10858SOL     OW37893   0.783   3.094   9.031 -0.8094  1.1199  0.2027
10858SOL    HW137894   0.744   3.180   9.050 -1.1331  0.7767  1.1061
10858SOL    HW237895   0.774   3.085   8.936  2.0729  3.4687 -0.4725
10859SOL     OW37896   0.911   8.717   8.535  0.3190  0.0582  0.4089
10859SOL    HW137897   0.932   8.807   8.509  0.9905  0.0835  0.9915
10859SOL    HW237898   0.938   8.663   8.461 -0.1945  0.3401  0.0097
10860SOL     OW37899   7.576   4.082   4.963  0.3303  0.5866  0.2665
10860SOL    HW137900   7.490   4.122   4.949  0.1860 -0.4703 -2.5524
10860SOL    HW237901   7.638   4.144   4.926  0.8083  1.0747  1.7736
10861SOL     OW37902   8.531  10.646   4.378  0.2522  0.2599  0.0467
10861SOL    HW137903   8.621  10.633   4.409  0.2945 -0.5013 -0.3681
10861SOL    HW237904   8.541  10.694   4.296  0.1057  2.9664  1.4915
10862SOL     OW37905   2.625   9.062   4.005  0.0293 -0.3879 -0.7773
10862SOL    HW137906   2.646   8.970   3.985  0.3465 -0.7049  0.8584
10862SOL    HW237907   2.672   9.079   4.087 -1.2090  0.7959 -0.2922
10863SOL     OW37908  10.957   7.379   7.248  0.2116 -0.3297  0.1728
10863SOL    HW137909  10.965   7.429   7.167  0.7059 -2.0150 -0.8515
10863SOL    HW237910  10.979   7.289   7.224  1.0674 -0.7594  2.3155
10864SOL     OW37911   8.294   3.656   2.674  0.7404  1.1370  0.3663
10864SOL    HW137912   8.201   3.675   2.683  0.3669 -0.4556  0.2024
10864SOL    HW237913   8.333   3.739   2.646 -0.8464  1.4950 -0.9191
10865SOL     OW37914  10.956   7.427   9.935  0.5341  0.2996  0.2265
10865SOL    HW137915  10.985   7.465  10.018 -0.5216 -1.4897  1.4872
10865SOL    HW237916  11.021   7.458   9.871  0.2035  3.4905  1.2260
10866SOL     OW37917   7.390   0.807   9.468  0.7024  0.1566 -0.1583
10866SOL    HW137918   7.357   0.744   9.404  0.8308  0.7301 -0.7926
10866SOL    HW237919   7.447   0.865   9.418 -0.6693  1.7691  0.0707
10867SOL     OW37920   6.588   3.830   7.794  0.2249  1.4157  0.0119
10867SOL    HW137921   6.679   3.808   7.773 -0.1079 -0.4985  0.4260
10867SOL    HW237922   6.593   3.880   7.876  0.7698 -1.3209  1.7699
10868SOL     OW37923   3.089   7.562   3.516 -0.0913  0.0710 -0.0518
10868SOL    HW137924   3.125   7.473   3.513  0.5729  0.2899  0.8985
10868SOL    HW237925   3.041   7.566   3.599  0.0486  0.6553  0.0078
10869SOL     OW37926   8.484  10.753   9.033 -0.2256  0.2714 -0.1225
10869SOL    HW137927   8.509  10.795   9.116 -1.0348 -0.9753  0.7958
10869SOL    HW237928   8.456  10.665   9.059 -0.5480 -0.1218 -1.7295
10870SOL     OW37929   3.547  11.416  11.093 -0.0344 -0.1890  0.2968
10870SOL    HW137930   3.590  11.336  11.064 -0.4461 -0.7035  1.0774
10870SOL    HW237931   3.454  11.393  11.095  0.0442 -0.5373  3.0494
10871SOL     OW37932   1.253  11.631   6.961 -0.0775 -0.1345  0.5093
10871SOL    HW137933   1.221  11.719   6.980 -1.0477 -0.2691 -0.3718
10871SOL    HW237934   1.256  11.588   7.046 -2.2927 -0.0992  0.6667
10872SOL     OW37935   8.180   0.335  11.708  0.1874 -0.1663 -0.5019
10872SOL    HW137936   8.254   0.274  11.706  0.0211 -0.3940  0.0999
10872SOL    HW237937   8.215   0.416  11.672  0.6441 -0.3710 -0.5282
10873SOL     OW37938   8.545   7.109   8.910 -0.3025 -0.4390 -0.1421
10873SOL    HW137939   8.513   7.019   8.918  1.5411 -1.0413  1.2711
10873SOL    HW237940   8.620   7.101   8.850  0.1442  0.0598  0.3424
10874SOL     OW37941  10.534  11.285   9.000  0.1074 -0.2251 -0.3823
10874SOL    HW137942  10.602  11.224   8.970  0.2237 -0.9326  1.2394
10874SOL    HW237943  10.578  11.340   9.064 -0.5064  0.2784 -0.3872
10875SOL     OW37944   4.760   6.865   3.108  0.4663  0.4391  0.6299
10875SOL    HW137945   4.773   6.776   3.140  1.4501  0.0831 -0.6769
10875SOL    HW237946   4.665   6.874   3.100  0.3350 -0.3204  1.1975
10876SOL     OW37947   3.330   1.423   9.695 -0.0570  0.0306  0.2349
10876SOL    HW137948   3.312   1.435   9.602 -0.1162  0.3361  0.2845
10876SOL    HW237949   3.418   1.457   9.707  0.0470 -0.2366  0.2457
10877SOL     OW37950   7.876   1.203   4.732  0.1830  0.0616  0.0015
10877SOL    HW137951   7.845   1.122   4.691  2.5589 -0.7527 -0.3922
10877SOL    HW237952   7.907   1.256   4.659 -1.0332  1.2223  0.2934
10878SOL     OW37953   1.059   5.162   6.228 -0.3014  0.6662 -0.4216
10878SOL    HW137954   1.083   5.094   6.165  0.5098  0.3468  0.2124
10878SOL    HW237955   0.965   5.148   6.243  0.0455 -0.9828  0.4596
10879SOL     OW37956   8.897   1.674  11.738 -0.2284  0.6955 -0.1135
10879SOL    HW137957   8.888   1.590  11.692  1.7383  1.1381 -1.4556
10879SOL    HW237958   8.894   1.650  11.830  2.3439 -1.2455 -0.3970
10880SOL     OW37959   6.825  11.607   1.497  0.2164  0.4815 -0.3056
10880SOL    HW137960   6.897  11.561   1.454  0.0131 -0.2528  0.1141
10880SOL    HW237961   6.867  11.668   1.558  0.5202 -1.2666  1.3292
10881SOL     OW37962   9.453   7.262   9.376  0.0243 -0.6663  0.0602
10881SOL    HW137963   9.461   7.294   9.286 -1.8598  1.4401  0.5445
10881SOL    HW237964   9.535   7.216   9.393  0.8047 -0.3357 -2.4114
10882SOL     OW37965   2.378   0.621   1.304  0.0048 -0.1321 -0.2789
10882SOL    HW137966   2.390   0.539   1.255  0.1290 -0.4446  0.2692
10882SOL    HW237967   2.315   0.670   1.252  1.5555  0.3689 -1.7784
10883SOL     OW37968   4.012  10.151   5.188 -0.5380  0.0269 -0.3803
10883SOL    HW137969   4.100  10.151   5.227 -0.0693  0.5002 -1.3895
10883SOL    HW237970   3.971  10.072   5.222 -0.8997  1.3792  2.6216
10884SOL     OW37971   3.323   8.956   0.868  0.5591  0.1696  0.0973
10884SOL    HW137972   3.265   9.005   0.810  2.0910  0.7961 -0.9520
10884SOL    HW237973   3.269   8.882   0.898 -1.5747  1.9992  1.1285
10885SOL     OW37974   4.041   3.741  11.100  0.6935  0.7047  0.5624
10885SOL    HW137975   3.997   3.793  11.033 -0.3553  1.1241  1.5359
10885SOL    HW237976   4.126   3.720  11.062  0.7851  2.3498 -0.2328
10886SOL     OW37977   0.027   3.692   9.139 -0.5897 -0.9940  0.8782
10886SOL    HW137978   0.052   3.774   9.096  1.7588 -2.2279 -0.3151
10886SOL    HW237979  -0.041   3.655   9.083  0.7850 -1.4611 -0.5410
10887SOL     OW37980   8.121   0.780   9.853 -0.4528  0.8985  0.0879
10887SOL    HW137981   8.119   0.685   9.844 -2.1634  0.9388 -0.1922
10887SOL    HW237982   8.198   0.797   9.907  0.8853 -0.5026 -1.2777
10888SOL     OW37983   6.139   8.041   6.095  0.2303  0.0008  0.0434
10888SOL    HW137984   6.231   8.065   6.097 -0.0559  1.2916 -1.0722
10888SOL    HW237985   6.100   8.098   6.029 -0.9665 -1.9732 -1.0637
10889SOL     OW37986   4.332   9.576   4.558 -0.1096  0.5264 -0.3789
10889SOL    HW137987   4.368   9.582   4.646  0.8447  1.4624 -0.8147
10889SOL    HW237988   4.246   9.536   4.570  0.3533 -0.1574  0.8774
10890SOL     OW37989   2.115  10.639   4.284 -0.3120 -0.2167  0.1016
10890SOL    HW137990   2.128  10.567   4.345  0.3870 -0.2754 -0.1148
10890SOL    HW237991   2.022  10.634   4.261 -0.1426 -1.4316 -0.3939
10891SOL     OW37992   6.318   9.270   3.299 -0.0186  0.1285  0.0951
10891SOL    HW137993   6.380   9.327   3.344  0.4310 -0.4526  0.2115
10891SOL    HW237994   6.254   9.331   3.261  1.0000  0.7821 -0.6262
10892SOL     OW37995   5.900  11.144   7.381 -0.0644 -0.8340 -0.1858
10892SOL    HW137996   5.995  11.154   7.393 -0.1533 -0.4381  0.2001
10892SOL    HW237997   5.880  11.059   7.419  0.1250 -0.8815 -0.1929
10893SOL     OW37998  11.051   8.689   9.400 -0.0276 -0.1578 -0.6043
10893SOL    HW137999  10.989   8.640   9.454 -0.3946 -1.0713 -1.8057
10893SOL    HW238000  11.012   8.690   9.313  1.3705 -0.2830 -1.2702
10894SOL     OW38001   9.413   5.235  11.330  0.2505 -0.0643  0.5174
10894SOL    HW138002   9.413   5.331  11.334  2.7871 -0.0196  1.0131
10894SOL    HW238003   9.502   5.210  11.357 -0.4247 -2.5746  0.6216
10895SOL     OW38004   3.611   6.261   9.979  0.1584  0.4795  0.9092
10895SOL    HW138005   3.517   6.277   9.989  0.3653  1.3829  1.5459
10895SOL    HW238006   3.621   6.232   9.888 -0.8657 -0.6827  1.1367
10896SOL     OW38007  11.027   4.504   8.380  0.2081  0.2367 -0.1147
10896SOL    HW138008  10.974   4.483   8.303 -1.1338 -0.1964  0.8785
10896SOL    HW238009  10.963   4.514   8.450  1.3153  1.5992  0.7580
10897SOL     OW38010   2.520   7.417   4.422 -0.6177 -0.4234 -0.5028
10897SOL    HW138011   2.471   7.370   4.355 -0.7444 -0.0464 -0.6782
10897SOL    HW238012   2.604   7.439   4.379 -1.6390  2.0387 -1.4477
10898SOL     OW38013   2.101   2.297   9.087 -0.1816  0.0024 -0.5940
10898SOL    HW138014   2.164   2.300   9.015  2.2764  1.2075  1.4649
10898SOL    HW238015   2.103   2.206   9.116  0.1801 -0.0935 -0.9087
10899SOL     OW38016   8.509   6.579   4.298 -0.5815 -0.0824 -0.0243
10899SOL    HW138017   8.577   6.537   4.245  0.0783  1.1973 -0.2268
10899SOL    HW238018   8.427   6.560   4.251 -0.2554 -0.8041 -0.3145
10900SOL     OW38019   1.833   9.121   9.542 -0.5382 -0.1814  0.1065
10900SOL    HW138020   1.845   9.206   9.499 -2.2868  0.5017  0.8755
10900SOL    HW238021   1.780   9.140   9.619 -0.5256 -1.9113  0.5897
10901SOL     OW38022   7.444   1.791   0.078 -0.5710  0.0251 -0.0853
10901SOL    HW138023   7.386   1.822   0.148  1.0165  1.0724  0.8527
10901SOL    HW238024   7.415   1.839   0.000 -0.5177  1.1127  0.5361
10902SOL     OW38025   6.527   1.688   8.674 -0.3363  0.2238 -0.5972
10902SOL    HW138026   6.500   1.778   8.693  0.3241  0.5199 -1.0448
10902SOL    HW238027   6.531   1.645   8.760 -1.5305  0.3582 -0.4484
10903SOL     OW38028   2.676   9.568   4.853  0.3423  0.3456 -0.0660
10903SOL    HW138029   2.767   9.538   4.857  0.6869  1.3921  0.2672
10903SOL    HW238030   2.642   9.553   4.942  0.4901  0.8411  0.0780
10904SOL     OW38031  10.776   4.042   8.021 -0.0445 -0.0189 -0.2555
10904SOL    HW138032  10.793   4.010   7.932 -2.1489 -0.2192 -0.6351
10904SOL    HW238033  10.799   4.135   8.018 -0.8365  0.1627 -1.2454
10905SOL     OW38034   0.451   3.300   2.152  0.2321 -0.1075  0.0456
10905SOL    HW138035   0.359   3.275   2.158 -0.3055  1.4023 -1.2551
10905SOL    HW238036   0.492   3.258   2.228 -1.6162 -0.3388  0.9782
10906SOL     OW38037  11.025   9.532  10.961  0.3227 -0.4089 -0.3844
10906SOL    HW138038  10.957   9.585  11.004  0.8977 -0.5382  0.7331
10906SOL    HW238039  10.987   9.444  10.957 -0.5123  0.0030 -1.9692
10907SOL     OW38040   6.661   2.068   9.204  0.3987 -0.0452 -0.4620
10907SOL    HW138041   6.743   2.059   9.155  1.1002 -0.2127  0.6956
10907SOL    HW238042   6.682   2.036   9.292 -0.4489  1.4450  0.3332
10908SOL     OW38043   4.221   8.458   1.006 -0.4564  0.4320  0.6956
10908SOL    HW138044   4.295   8.420   0.960 -0.8016  0.2097  0.3149
10908SOL    HW238045   4.148   8.399   0.987 -0.6373  0.4119  1.4142
10909SOL     OW38046   7.576  11.448   4.540  0.5594 -0.1811  0.3792
10909SOL    HW138047   7.509  11.434   4.474 -1.0741 -0.9935  2.1014
10909SOL    HW238048   7.594  11.361   4.575 -0.0061  0.3947  2.2261
10910SOL     OW38049   0.561   6.036   6.027  0.2713  0.0777  0.1864
10910SOL    HW138050   0.637   6.079   6.067  0.5152 -1.3605  1.3516
10910SOL    HW238051   0.507   6.008   6.102 -0.4454 -0.6078 -0.5655
10911SOL     OW38052   3.582   9.044   8.216  0.2336  0.2284 -0.2016
10911SOL    HW138053   3.578   9.135   8.187  0.3558  0.2852 -0.0405
10911SOL    HW238054   3.671   9.034   8.251  0.0708  0.1750  0.2002
10912SOL     OW38055   3.754   3.146   7.650 -0.2053 -0.1501  0.5139
10912SOL    HW138056   3.675   3.124   7.601 -0.0517  0.5700 -0.0751
10912SOL    HW238057   3.808   3.196   7.588  0.2866  0.2012  1.2097
10913SOL     OW38058   7.806   8.099   4.340  0.0562  0.3589 -0.4665
10913SOL    HW138059   7.858   8.067   4.414  2.3495 -0.5399 -2.3477
10913SOL    HW238060   7.797   8.024   4.282 -1.5706  1.0745 -1.1990
10914SOL     OW38061  10.887   0.538   0.204 -0.6753  0.2142  0.0894
10914SOL    HW138062  10.913   0.467   0.146 -0.2509 -0.2668  0.8536
10914SOL    HW238063  10.796   0.558   0.179 -0.9521 -0.8998  0.1650
10915SOL     OW38064   4.423   6.624   3.448 -0.3326  0.3380  0.5479
10915SOL    HW138065   4.379   6.636   3.364 -0.0268  0.8901  0.4609
10915SOL    HW238066   4.358   6.579   3.503 -1.3235  1.8478  0.6720
10916SOL     OW38067   1.751   5.640  10.068  0.0489 -0.3962 -0.2601
10916SOL    HW138068   1.799   5.723  10.064  1.1616 -1.0723 -1.2339
10916SOL    HW238069   1.663   5.663  10.037 -0.0112  0.6459  0.5899
10917SOL     OW38070   1.768   3.688   8.683 -0.0834  0.4631 -0.4111
10917SOL    HW138071   1.844   3.654   8.731  0.5586  0.6635 -1.2727
10917SOL    HW238072   1.750   3.622   8.616 -1.0996  0.0935  0.1990
10918SOL     OW38073   6.078  11.730   1.429 -1.1277 -0.2555 -0.1952
10918SOL    HW138074   6.035  11.737   1.344 -0.7239  0.1976 -0.3673
10918SOL    HW238075   6.082  11.820   1.461 -0.6415 -0.3395 -0.0141
10919SOL     OW38076  11.382   0.749   0.761  0.3169  0.4220 -0.2838
10919SOL    HW138077  11.468   0.708   0.773 -0.6224 -1.5006  0.3323
10919SOL    HW238078  11.382   0.778   0.670  2.0285  1.5527  0.0293
10920SOL     OW38079  11.370   3.815   2.375 -0.4507  0.6400  0.3286
10920SOL    HW138080  11.383   3.737   2.321 -0.8643 -0.2658  1.5004
10920SOL    HW238081  11.284   3.804   2.414  0.2912  0.6669  2.0850
10921SOL     OW38082   0.272   3.147  11.107  0.2239 -0.1288  1.3666
10921SOL    HW138083   0.217   3.128  11.184 -0.6204  0.6447  0.9689
10921SOL    HW238084   0.210   3.171  11.039  0.9799 -0.6936  0.4620
10922SOL     OW38085   7.826  10.874   7.267 -0.2137 -0.2047 -0.0248
10922SOL    HW138086   7.829  10.797   7.211  0.9724  0.3394 -0.7665
10922SOL    HW238087   7.914  10.911   7.261 -0.0243 -0.1745  2.3066
10923SOL     OW38088   4.605   0.424   1.196  0.0531  0.2832  0.4383
10923SOL    HW138089   4.540   0.356   1.213 -2.4938  2.2593 -0.7652
10923SOL    HW238090   4.608   0.475   1.278 -0.9688  0.9703  0.0658
10924SOL     OW38091   9.388   6.603   7.455  0.0756  0.4496  0.3843
10924SOL    HW138092   9.332   6.625   7.529 -0.1782  1.1567 -0.0126
10924SOL    HW238093   9.477   6.625   7.485  0.5847 -3.0482  1.9858
10925SOL     OW38094  10.670   7.555   5.414 -0.0905  0.6310 -0.1302
10925SOL    HW138095  10.656   7.615   5.487  0.4687 -0.3673  0.8048
10925SOL    HW238096  10.693   7.613   5.341 -0.0270  1.5894  0.6281
10926SOL     OW38097   9.916   5.770  10.800  0.6254  0.7533 -0.0283
10926SOL    HW138098   9.956   5.728  10.724  0.1911  0.6222 -0.1885
10926SOL    HW238099   9.870   5.699  10.845  0.5222  0.9143  0.1197
10927SOL     OW38100  10.359  10.650   1.964 -0.3581  0.3987 -0.1692
10927SOL    HW138101  10.279  10.702   1.971 -0.7175 -0.0697 -0.7300
10927SOL    HW238102  10.415  10.701   1.906 -0.2515  0.7284  0.2243
10928SOL     OW38103   1.867  10.324   1.938  0.1712 -0.2866 -0.1160
10928SOL    HW138104   1.922  10.246   1.944 -0.5882 -0.7520  1.3485
10928SOL    HW238105   1.802  10.313   2.008  0.4492  1.9680  0.5719
10929SOL     OW38106   9.449   9.095   1.009  0.1946  0.1928 -0.5207
10929SOL    HW138107   9.541   9.110   1.031  1.0185 -1.4269 -2.5136
10929SOL    HW238108   9.436   9.141   0.926 -1.3121  1.7480  0.5014
10930SOL     OW38109   7.222   3.520   4.849  0.3196 -0.6711 -0.6363
10930SOL    HW138110   7.201   3.456   4.781 -2.2055  0.5330 -1.1313
10930SOL    HW238111   7.203   3.605   4.809  0.0507  0.1576  1.1349
10931SOL     OW38112   7.010  11.546   1.303 -0.4737 -0.1227  0.8498
10931SOL    HW138113   7.094  11.573   1.339  0.4029 -0.4846 -0.8049
10931SOL    HW238114   7.018  11.565   1.209 -2.1274 -0.4588  0.6209
10932SOL     OW38115   6.371   1.575   7.062 -0.6458 -0.2794 -0.1640
10932SOL    HW138116   6.452   1.576   7.113 -1.4100  1.8517  1.1470
10932SOL    HW238117   6.302   1.557   7.126 -1.4095 -0.0551 -0.9019
10933SOL     OW38118   7.561   4.247   9.952 -0.5084 -0.0746  0.0861
10933SOL    HW138119   7.644   4.258   9.905  0.3822 -0.9549  1.3945
10933SOL    HW238120   7.517   4.331   9.944  1.6157  1.2472  1.4332
10934SOL     OW38121  10.673   3.956  11.598 -0.0379 -0.1882 -0.0199
10934SOL    HW138122  10.660   3.894  11.526  1.5392  0.1160 -0.6188
10934SOL    HW238123  10.598   4.015  11.594 -0.9328 -1.2961 -0.2100
10935SOL     OW38124  11.031   7.065   1.778  0.1862 -0.3522 -0.3462
10935SOL    HW138125  11.117   7.086   1.816 -1.2801  0.5074  2.8358
10935SOL    HW238126  11.020   6.972   1.795  0.2642 -0.3455 -0.2548
10936SOL     OW38127   9.802   1.369   1.317 -0.1679 -0.1601  0.0732
10936SOL    HW138128   9.732   1.310   1.289  0.7029 -0.6357 -1.1928
10936SOL    HW238129   9.869   1.359   1.250 -0.6082  3.4597 -1.0950
10937SOL     OW38130   7.458  10.177   1.434  0.2179  0.2257 -0.3640
10937SOL    HW138131   7.435  10.084   1.440  0.0776  0.3315  0.7814
10937SOL    HW238132   7.477  10.203   1.524 -1.5285  1.7782 -0.4022
10938SOL     OW38133   3.040  11.246  10.168 -0.1518 -0.2773 -0.2523
10938SOL    HW138134   2.969  11.238  10.104 -1.6832 -0.5388  1.3922
10938SOL    HW238135   3.078  11.158  10.173 -0.1822 -0.3133 -0.6173
10939SOL     OW38136   1.948   4.444  10.145  0.6794 -0.4798  0.9192
10939SOL    HW138137   1.909   4.527  10.172 -1.1681 -1.4180  1.2924
10939SOL    HW238138   2.016   4.428  10.210  1.6126  1.1001  0.3842
10940SOL     OW38139   6.558  10.319   8.502 -0.1898 -0.1910 -0.0757
10940SOL    HW138140   6.589  10.274   8.424  1.0689  0.6525 -0.0872
10940SOL    HW238141   6.497  10.385   8.469  3.0259  2.6504 -0.8451
10941SOL     OW38142   8.413   6.954  11.176  0.0161 -0.1418 -0.2934
10941SOL    HW138143   8.434   6.980  11.087 -0.4113  0.2655 -0.2799
10941SOL    HW238144   8.485   6.988  11.229  1.0815 -1.7169 -0.6555
10942SOL     OW38145   5.443   3.752   0.512  0.3084  0.1550 -0.0206
10942SOL    HW138146   5.514   3.771   0.452 -0.9207  0.6560 -1.3807
10942SOL    HW238147   5.363   3.761   0.459 -0.7708 -0.4730  1.4119
10943SOL     OW38148   7.891   3.221   6.145 -0.1726  0.1920  0.1333
10943SOL    HW138149   7.800   3.190   6.138 -0.2542  0.3506  0.4760
10943SOL    HW238150   7.939   3.167   6.082 -0.0035 -1.8370  1.8713
10944SOL     OW38151   2.299   6.847   8.006 -0.6237 -0.7089 -0.0233
10944SOL    HW138152   2.263   6.758   7.998 -2.0555 -0.1563 -0.0032
10944SOL    HW238153   2.223   6.902   8.025  0.5820  0.1595  2.8754
10945SOL     OW38154  10.780  11.433   6.422 -0.3762  0.1273  0.0830
10945SOL    HW138155  10.850  11.476   6.374 -0.1004  0.3585  0.6819
10945SOL    HW238156  10.699  11.466   6.382 -0.2625  3.1723  2.0838
10946SOL     OW38157   6.706   4.527   6.181  0.1468 -0.5180  0.1453
10946SOL    HW138158   6.732   4.440   6.151  1.6172 -1.4462  3.5836
10946SOL    HW238159   6.626   4.512   6.232  0.6470  0.0123  1.1201
10947SOL     OW38160  10.419   3.398   5.101  0.0701  0.1206  0.4651
10947SOL    HW138161  10.502   3.433   5.136 -0.6298 -0.1261  2.5225
10947SOL    HW238162  10.354   3.464   5.126 -0.5600 -0.3822  0.1609
10948SOL     OW38163   1.282   3.447   6.440  0.2422 -0.3896  1.1937
10948SOL    HW138164   1.322   3.370   6.480 -0.4537 -0.9821  0.7463
10948SOL    HW238165   1.353   3.487   6.389  0.9567 -0.0044  2.4349
10949SOL     OW38166   3.307   5.784   7.335  0.0513  0.1950  0.2322
10949SOL    HW138167   3.345   5.706   7.375  1.5322  1.3965  1.2899
10949SOL    HW238168   3.348   5.789   7.249  1.9831  1.1616  1.1438
10950SOL     OW38169  10.003   6.126   5.389 -0.8163 -0.5084 -0.2390
10950SOL    HW138170  10.046   6.208   5.413 -1.8133 -0.2857  0.8715
10950SOL    HW238171  10.033   6.064   5.455 -0.6267 -0.8644 -0.6571
10951SOL     OW38172   0.447   9.201   0.359  0.2065  0.3535  0.5291
10951SOL    HW138173   0.543   9.198   0.358  0.2036 -1.6885 -1.4216
10951SOL    HW238174   0.424   9.205   0.451  2.1425  1.1351  1.0342
10952SOL     OW38175   5.295   3.552   9.318  0.2799 -0.2199  0.0677
10952SOL    HW138176   5.246   3.625   9.280  3.7764  2.5004  0.2708
10952SOL    HW238177   5.286   3.564   9.413  1.2689  0.2937  0.1060
10953SOL     OW38178   8.267   7.305   6.082  0.5969 -0.2121  0.2439
10953SOL    HW138179   8.294   7.213   6.078 -0.1691 -0.4325 -0.0837
10953SOL    HW238180   8.180   7.306   6.043  0.1446  0.4772  1.2108
10954SOL     OW38181   9.686   4.099  11.029  0.7486 -0.6152 -0.3595
10954SOL    HW138182   9.600   4.119  10.992  0.7175 -2.0470 -1.1559
10954SOL    HW238183   9.738   4.071  10.954  2.1863  0.9755 -0.0121
10955SOL     OW38184   1.004   1.888  10.466  0.0456  0.1155  0.0069
10955SOL    HW138185   1.025   1.978  10.492  0.5322 -0.5964  2.3763
10955SOL    HW238186   0.992   1.892  10.372 -2.2375  3.1113  0.2619
10956SOL     OW38187  10.320   6.457   1.163 -0.0260  0.0330  0.4064
10956SOL    HW138188  10.336   6.371   1.201  2.2876  0.4685  0.5807
10956SOL    HW238189  10.235   6.450   1.121  0.3275 -2.4813 -0.0120
10957SOL     OW38190  11.450   1.664   1.426  0.0736 -0.5981  0.0319
10957SOL    HW138191  11.475   1.619   1.345  1.8113 -0.4058  0.4222
10957SOL    HW238192  11.448   1.756   1.403  2.4045 -0.3481  0.5697
10958SOL     OW38193  11.281   8.562   7.149 -0.4977 -0.0566  0.4930
10958SOL    HW138194  11.370   8.576   7.182 -0.8546  0.5236  1.2582
10958SOL    HW238195  11.276   8.469   7.129 -0.1330 -0.3543  1.7276
10959SOL     OW38196   6.014   3.269   2.621 -0.3136  0.2743 -0.3462
10959SOL    HW138197   6.037   3.321   2.544  0.1397  0.4504 -0.0912
10959SOL    HW238198   6.098   3.246   2.661 -0.5766  0.9007  0.5792
10960SOL     OW38199   5.820   9.462  10.766 -0.0354 -0.7746 -0.5149
10960SOL    HW138200   5.779   9.500  10.688  2.0139  0.1745 -1.1828
10960SOL    HW238201   5.860   9.536  10.811  0.8051 -1.6432  0.2000
10961SOL     OW38202   5.735   0.811   1.463 -0.5617 -0.5913  0.2284
10961SOL    HW138203   5.808   0.829   1.522  0.2152 -0.7278 -0.6753
10961SOL    HW238204   5.775   0.770   1.387 -1.2632  1.5413 -1.3553
10962SOL     OW38205  10.462   4.546   2.000 -0.0006  0.4089  0.1167
10962SOL    HW138206  10.429   4.624   1.955 -1.6203 -0.1058  0.3371
10962SOL    HW238207  10.556   4.563   2.011  0.7987  0.1755 -4.3021
10963SOL     OW38208   4.696   8.250   2.653  0.0014  0.0280  0.0910
10963SOL    HW138209   4.630   8.229   2.719  1.1786 -1.2644  0.9202
10963SOL    HW238210   4.728   8.165   2.622 -0.2446  0.6028 -1.8950
10964SOL     OW38211   2.456   5.341   8.989 -0.2102 -0.4515  0.2335
10964SOL    HW138212   2.394   5.410   9.013 -0.6649 -1.1164  0.9969
10964SOL    HW238213   2.435   5.321   8.897  0.0158  0.5053 -0.0395
10965SOL     OW38214   4.200   1.790   7.535  0.2720 -0.1517 -0.2494
10965SOL    HW138215   4.155   1.757   7.458 -0.8271  0.7347 -0.0279
10965SOL    HW238216   4.262   1.722   7.559 -2.6599 -2.6496  0.8805
10966SOL     OW38217  11.643   2.156   5.401  0.3751  0.2957  0.2247
10966SOL    HW138218  11.664   2.180   5.311 -0.1347 -2.1750 -0.6388
10966SOL    HW238219  11.719   2.107   5.431 -0.5716 -1.3216  0.0945
10967SOL     OW38220  11.436   7.685   6.527  0.4975  0.3202 -0.1333
10967SOL    HW138221  11.408   7.599   6.558  0.0851  0.3413 -0.4353
10967SOL    HW238222  11.483   7.667   6.445  0.5016  0.3756 -0.1434
10968SOL     OW38223   3.939   1.171   1.746  0.1108 -0.1426  0.1606
10968SOL    HW138224   3.938   1.207   1.657 -0.4750 -0.3624  0.0721
10968SOL    HW238225   3.885   1.092   1.740 -2.2797  1.2894  1.2967
10969SOL     OW38226   8.054   1.725   1.545 -0.0275 -0.1772 -0.1483
10969SOL    HW138227   8.016   1.734   1.458  1.3998  0.1941 -0.7669
10969SOL    HW238228   8.027   1.804   1.592  1.7941  1.2235 -1.3284
10970SOL     OW38229   4.107   0.432  10.583 -0.0127 -0.0963 -0.4534
10970SOL    HW138230   4.083   0.505  10.640 -0.5367  0.2999 -1.1717
10970SOL    HW238231   4.127   0.361  10.644 -0.1967  0.4248  0.2370
10971SOL     OW38232   0.729  10.391  11.340  0.1366  0.3737 -0.0657
10971SOL    HW138233   0.820  10.368  11.321 -0.3040 -0.6341 -1.0869
10971SOL    HW238234   0.724  10.392  11.436  1.5100  1.7398  0.0318
10972SOL     OW38235   7.100   3.280   0.627 -0.1362 -0.0911  0.2800
10972SOL    HW138236   7.163   3.329   0.574 -1.1019  0.6881 -0.1885
10972SOL    HW238237   7.139   3.276   0.714  0.4822  0.5389  0.0425
10973SOL     OW38238   4.238   8.102   0.207  0.7185 -0.2467 -0.2040
10973SOL    HW138239   4.188   8.184   0.200  0.3808 -0.4131  0.2085
10973SOL    HW238240   4.304   8.108   0.138  0.8359  0.4739 -0.0389
10974SOL     OW38241   5.284  10.542   1.143 -0.0731 -0.5123 -0.0575
10974SOL    HW138242   5.256  10.632   1.153  3.6672  0.6213  2.2729
10974SOL    HW238243   5.307  10.534   1.050 -0.1378  1.0337 -0.2216
10975SOL     OW38244   9.472   9.819  10.440 -0.0548 -0.1271  0.5233
10975SOL    HW138245   9.443   9.796  10.528 -0.7905  0.1315  0.3525
10975SOL    HW238246   9.518   9.903  10.451 -2.4701  1.3179  0.3033
10976SOL     OW38247   5.930   4.241   9.600 -0.1001 -0.0888  0.4541
10976SOL    HW138248   5.917   4.288   9.683 -2.4346 -0.3896  0.3010
10976SOL    HW238249   5.951   4.152   9.627 -0.6555 -0.1408  0.7157
10977SOL     OW38250   5.874   6.586   5.368 -0.1755 -0.0466 -0.0106
10977SOL    HW138251   5.860   6.638   5.447 -0.4857  0.3547 -0.3269
10977SOL    HW238252   5.931   6.641   5.313 -0.9239  0.1903 -0.5643
10978SOL     OW38253   9.170   6.798   5.622  0.9206  0.1560  0.0375
10978SOL    HW138254   9.140   6.743   5.550  0.8920 -0.9506  0.8838
10978SOL    HW238255   9.100   6.795   5.686  2.5322 -2.1097  1.8516
10979SOL     OW38256   4.386   7.140  10.082 -0.2311  0.2434 -0.0278
10979SOL    HW138257   4.322   7.201  10.119 -0.9500  0.3559 -1.3871
10979SOL    HW238258   4.467   7.191  10.075 -0.1001  0.2475  1.2448
10980SOL     OW38259   4.810   8.414   6.251 -0.0730  1.0700 -0.4496
10980SOL    HW138260   4.819   8.449   6.339  1.0644  1.5717 -0.7444
10980SOL    HW238261   4.736   8.353   6.256 -0.0757  1.1640  0.8176
10981SOL     OW38262   1.516   0.651   8.883  0.1178 -0.3619  0.2342
10981SOL    HW138263   1.543   0.561   8.867 -0.7460 -0.5772 -0.1002
10981SOL    HW238264   1.595   0.703   8.873  0.1806 -0.8140 -2.0174
10982SOL     OW38265   5.625   9.813   5.018 -0.1317 -0.4406 -0.3747
10982SOL    HW138266   5.579   9.833   4.937  0.5847  1.6962 -0.3092
10982SOL    HW238267   5.633   9.897   5.063  2.1101 -1.0279  0.4930
10983SOL     OW38268   8.566  11.540   9.832  0.2305 -0.3729  0.0057
10983SOL    HW138269   8.507  11.547   9.906 -0.3729  0.5526 -0.5429
10983SOL    HW238270   8.509  11.549   9.755  1.1880  1.6414 -0.5231
10984SOL     OW38271   8.847   9.600   2.981  0.2634  0.3865 -0.4517
10984SOL    HW138272   8.769   9.556   2.947  0.2369  0.7398 -0.8537
10984SOL    HW238273   8.840   9.592   3.076  0.4904 -0.8807 -0.5220
10985SOL     OW38274  11.064   8.793   2.316 -0.3376  0.5135 -0.1734
10985SOL    HW138275  11.039   8.882   2.338  1.1557  1.2777 -1.3208
10985SOL    HW238276  11.159   8.790   2.331 -0.6212 -1.4981  1.7260
10986SOL     OW38277   9.393   7.145   7.460  0.0655  0.4853 -0.0917
10986SOL    HW138278   9.480   7.104   7.455 -0.3837 -0.4425 -0.6692
10986SOL    HW238279   9.411   7.239   7.459  1.1135  0.3231  1.0042
10987SOL     OW38280   0.137   6.566   0.792 -0.2284 -0.0549  0.4873
10987SOL    HW138281   0.230   6.583   0.783 -0.0027 -0.2164  2.2264
10987SOL    HW238282   0.111   6.614   0.871 -1.2558 -1.3043  0.9448
10988SOL     OW38283  10.079   7.528   2.312  0.3934  0.0658  0.9691
10988SOL    HW138284  10.078   7.572   2.397 -1.2992 -0.7027  1.3955
10988SOL    HW238285  10.045   7.593   2.250 -0.3175 -0.0267  1.2568
10989SOL     OW38286   8.690   0.616   8.127 -0.1827 -0.5045 -0.8069
10989SOL    HW138287   8.693   0.705   8.091  0.0372 -0.6438 -1.1467
10989SOL    HW238288   8.609   0.612   8.176  0.4875  0.3481  0.4221
10990SOL     OW38289   3.439  10.996   2.636  0.1042  0.1345 -0.3413
10990SOL    HW138290   3.506  11.040   2.688  0.0001  1.6110 -1.3974
10990SOL    HW238291   3.487  10.952   2.567 -0.0342  2.6184 -2.1328
10991SOL     OW38292   9.310   7.160   0.972 -0.4252 -0.1686  0.4287
10991SOL    HW138293   9.348   7.181   0.886  0.2831 -0.7600  0.5864
10991SOL    HW238294   9.221   7.195   0.968 -0.5732 -0.6518 -0.7406
10992SOL     OW38295   6.863   3.345   6.244  0.2037  0.4477  0.2132
10992SOL    HW138296   6.879   3.376   6.333 -2.5112  1.2173  0.5412
10992SOL    HW238297   6.875   3.423   6.189 -1.0713  0.7712  0.3426
10993SOL     OW38298   5.674   2.780   9.142  0.0887 -0.1298  0.5071
10993SOL    HW138299   5.602   2.717   9.144  1.5775 -2.1197 -1.9367
10993SOL    HW238300   5.656   2.841   9.214 -3.0233 -1.5859  1.0980
10994SOL     OW38301   5.518   8.488   8.047  0.2612 -0.3370 -0.3524
10994SOL    HW138302   5.432   8.515   8.014  0.5657  1.2895  0.0832
10994SOL    HW238303   5.502   8.465   8.138  0.0257 -1.5656 -0.6872
10995SOL     OW38304   4.039   1.214   4.531 -0.5262 -0.6507 -0.7949
10995SOL    HW138305   4.015   1.121   4.531 -1.2192 -0.4756 -0.5036
10995SOL    HW238306   4.082   1.227   4.446  0.2038 -1.3873 -0.5505
10996SOL     OW38307   1.381   4.675   9.846 -0.2372  0.9200 -0.4405
10996SOL    HW138308   1.466   4.704   9.881 -1.4935  1.9518  1.9525
10996SOL    HW238309   1.348   4.614   9.912 -1.6812  1.0987 -0.9785
10997SOL     OW38310   8.073  11.450   3.046  0.0323 -0.3258  0.3873
10997SOL    HW138311   8.101  11.452   3.138  1.4374  0.1457 -0.0227
10997SOL    HW238312   8.009  11.521   3.039  0.2648 -0.0586  0.9041
10998SOL     OW38313   6.879   8.653   2.430  0.0431  0.0520  0.4544
10998SOL    HW138314   6.808   8.622   2.373 -0.1108  0.3667  0.4751
10998SOL    HW238315   6.869   8.601   2.510  1.0220 -1.2857 -0.2592
10999SOL     OW38316   5.546   7.959   9.339 -0.7208 -0.5910  0.4625
10999SOL    HW138317   5.567   7.994   9.426 -0.5647  0.7367 -0.0884
10999SOL    HW238318   5.484   7.889   9.356  0.2596 -1.1918  1.7417
11000SOL     OW38319   1.871   8.446   0.230 -0.1553  0.5319 -0.1822
11000SOL    HW138320   1.954   8.404   0.206 -0.5102 -0.8449  0.9257
11000SOL    HW238321   1.813   8.428   0.156  0.1869  0.5318 -0.4551
11001SOL     OW38322   0.673   2.532   6.133 -0.1659 -0.0874  0.4069
11001SOL    HW138323   0.646   2.440   6.136  0.5889 -0.3014  1.6981
11001SOL    HW238324   0.654   2.564   6.221 -1.6905  1.3986 -0.4148
11002SOL     OW38325  11.233  10.812   8.323  0.0948  0.1582 -0.1050
11002SOL    HW138326  11.158  10.871   8.335  0.1931  0.4976 -1.0202
11002SOL    HW238327  11.208  10.732   8.368  0.4111  1.2525  2.1272
11003SOL     OW38328   7.540  11.112   1.942 -0.4598 -0.0602 -0.4671
11003SOL    HW138329   7.567  11.122   2.033 -2.7142 -0.6092  0.3522
11003SOL    HW238330   7.566  11.023   1.918 -1.4849 -0.5918  0.3118
11004SOL     OW38331   7.980   5.772   2.490  0.2393 -0.0888  0.0976
11004SOL    HW138332   7.928   5.701   2.454  1.0776 -1.8077  2.0751
11004SOL    HW238333   7.915   5.836   2.519 -0.4949  0.5314 -2.6247
11005SOL     OW38334   6.223  11.716   5.602 -0.4771  0.6858 -0.4802
11005SOL    HW138335   6.314  11.722   5.573 -0.1776  2.6317  0.6897
11005SOL    HW238336   6.172  11.713   5.521  0.6131 -0.7113 -1.1516
11006SOL     OW38337   0.275   3.824   5.624 -0.1489 -0.3432  0.3428
11006SOL    HW138338   0.293   3.833   5.717 -0.3760 -0.5625  0.4097
11006SOL    HW238339   0.277   3.913   5.590  0.4544 -0.3093  0.4608
11007SOL     OW38340   9.710   7.479  10.816  0.1523  0.5128  0.5111
11007SOL    HW138341   9.781   7.510  10.873 -0.4782  1.9314  0.5588
11007SOL    HW238342   9.643   7.547  10.822 -0.7797 -0.3054 -0.3512
11008SOL     OW38343   7.880   5.292   0.502  0.3321 -0.5743  0.5227
11008SOL    HW138344   7.914   5.333   0.422 -0.8920  0.6458  0.5887
11008SOL    HW238345   7.800   5.249   0.473  0.4089 -0.9847  0.9177
11009SOL     OW38346   7.435   7.230   4.362 -0.3622 -0.3078  0.4791
11009SOL    HW138347   7.423   7.264   4.274 -0.7424  2.3672  1.4863
11009SOL    HW238348   7.403   7.140   4.357 -0.4928 -0.1893 -2.0518
11010SOL     OW38349  10.056   7.103   6.875 -0.1929  0.2774 -0.3839
11010SOL    HW138350  10.009   7.132   6.954 -0.3598 -0.1660 -0.3204
11010SOL    HW238351  10.059   7.182   6.820  0.9027  0.8943  0.5168
11011SOL     OW38352   4.229   1.706   1.481 -0.2783 -0.3465  0.1949
11011SOL    HW138353   4.149   1.669   1.518  0.7342 -2.1260  0.6934
11011SOL    HW238354   4.262   1.638   1.422  0.3612  0.7570 -0.7655
11012SOL     OW38355   6.568  11.379   6.029  0.2165  1.1872  0.1516
11012SOL    HW138356   6.642  11.348   5.977 -1.4306  0.8694 -2.1525
11012SOL    HW238357   6.502  11.311   6.020 -0.1889  1.1509  2.7128
11013SOL     OW38358   2.922   1.956   9.355  0.6272 -0.2514 -0.2127
11013SOL    HW138359   2.988   1.961   9.286 -1.6456 -0.4888 -2.5823
11013SOL    HW238360   2.876   1.873   9.338 -2.0685  1.1808 -0.5097
11014SOL     OW38361   8.067   9.573  11.809 -0.9123  1.1165 -0.0294
11014SOL    HW138362   8.026   9.539  11.729 -0.4044 -1.8674  0.8606
11014SOL    HW238363   8.025   9.657  11.824 -4.5399 -0.3817 -0.8304
11015SOL     OW38364   3.215  10.834   0.114 -0.2076  0.1114  0.7554
11015SOL    HW138365   3.146  10.775   0.143 -0.2453 -0.2149 -0.0024
11015SOL    HW238366   3.242  10.801   0.029  0.1407  0.8690  0.5602
11016SOL     OW38367   2.265   3.063   1.286  0.1268  0.3090 -0.3612
11016SOL    HW138368   2.242   3.135   1.345  2.2216  0.3779  0.4516
11016SOL    HW238369   2.348   3.030   1.320 -0.7679 -2.5359 -0.6981
11017SOL     OW38370  11.457   1.557  11.691 -0.4614 -0.6625  0.1636
11017SOL    HW138371  11.516   1.623  11.655  0.2064 -0.8463  0.8900
11017SOL    HW238372  11.376   1.568  11.643 -0.4652  0.8924  0.4849
11018SOL     OW38373   3.360  11.605   6.930  0.2269 -0.1493 -0.1865
11018SOL    HW138374   3.446  11.565   6.916 -0.3966 -1.1840 -1.1543
11018SOL    HW238375   3.298  11.533   6.923 -0.8255  0.7738 -0.6644
11019SOL     OW38376   7.582   0.063   8.289 -0.6594 -0.7476  0.2449
11019SOL    HW138377   7.562   0.086   8.198  3.2056 -0.6826 -0.7729
11019SOL    HW238378   7.627  -0.021   8.284 -0.1406 -0.6369  2.0650
11020SOL     OW38379   6.475   0.128   9.661 -0.2643  0.6380 -0.6982
11020SOL    HW138380   6.463   0.097   9.571  0.8352 -1.6186 -0.1341
11020SOL    HW238381   6.435   0.215   9.662 -1.0405  0.3774 -3.1422
11021SOL     OW38382   1.141   7.565  10.733  0.3755 -0.0652  0.2011
11021SOL    HW138383   1.051   7.534  10.739  0.6111 -0.5415  1.8716
11021SOL    HW238384   1.194   7.490  10.760  1.1581  0.6777  0.7987
11022SOL     OW38385   5.788   2.593   6.211 -0.2260  0.2230  0.1306
11022SOL    HW138386   5.782   2.688   6.214 -2.1720  0.2374 -1.9401
11022SOL    HW238387   5.711   2.562   6.258  0.5026 -0.3817  0.9800
11023SOL     OW38388   6.084   5.792  11.821  0.2173  0.1364  0.3849
11023SOL    HW138389   6.057   5.761  11.907  1.8129  0.2093  0.9591
11023SOL    HW238390   6.137   5.871  11.840  1.6617 -0.5659 -0.5226
11024SOL     OW38391   2.147   8.421  11.522 -0.0909 -0.2610  0.2930
11024SOL    HW138392   2.237   8.452  11.513 -0.7766  1.8381 -0.0038
11024SOL    HW238393   2.127   8.379  11.438 -0.1105  1.4332 -0.5994
11025SOL     OW38394   9.492   0.392   0.843  0.2102  0.1486 -0.0045
11025SOL    HW138395   9.457   0.476   0.816 -0.6223 -0.9604 -2.7268
11025SOL    HW238396   9.463   0.381   0.934  0.1965  2.6614  0.3488
11026SOL     OW38397   7.741   1.683  11.492 -0.2653 -0.2816  0.0504
11026SOL    HW138398   7.809   1.643  11.437 -0.3196 -0.0769 -0.1703
11026SOL    HW238399   7.752   1.777  11.478 -2.6688 -0.2338 -2.5880
11027SOL     OW38400   2.996  10.354   8.054 -0.1642 -0.3763 -0.1626
11027SOL    HW138401   2.944  10.389   7.982 -0.0109  0.9052  0.3331
11027SOL    HW238402   2.962  10.265   8.066  0.8631 -1.2398 -2.8386
11028SOL     OW38403   6.880   4.692   5.103 -0.6049  0.1645 -0.0364
11028SOL    HW138404   6.907   4.633   5.173  0.1435  4.9315  4.2592
11028SOL    HW238405   6.959   4.708   5.052  0.3788  0.7668  1.6014
11029SOL     OW38406   4.404   0.898   8.056  0.5536 -0.0378  0.0712
11029SOL    HW138407   4.470   0.868   8.117 -0.7824 -0.0475  1.5628
11029SOL    HW238408   4.423   0.992   8.044 -0.2736  0.4182  2.0110
11030SOL     OW38409   7.274   7.883   2.086 -0.1471  0.0161  0.7692
11030SOL    HW138410   7.317   7.955   2.132  1.3967 -0.1157 -0.3790
11030SOL    HW238411   7.346   7.826   2.058 -1.0951 -0.4622 -0.8283
11031SOL     OW38412   1.532   8.617   7.864 -0.3092 -0.1601 -0.3667
11031SOL    HW138413   1.533   8.635   7.958  0.6187  0.0007 -0.4047
11031SOL    HW238414   1.479   8.538   7.856  0.2427 -0.6205  0.3731
11032SOL     OW38415   2.468   2.279   9.141  0.2413  0.0003 -0.0539
11032SOL    HW138416   2.508   2.308   9.059 -1.5846  0.3603 -0.8612
11032SOL    HW238417   2.533   2.221   9.180  0.6433 -1.2627 -2.4232
11033SOL     OW38418   4.633   4.511   9.494 -0.6118  0.2290 -0.5741
11033SOL    HW138419   4.594   4.456   9.563 -0.6371  1.6883  0.6391
11033SOL    HW238420   4.615   4.600   9.523  4.1557  1.1291  0.4654
11034SOL     OW38421   0.600   2.063  11.449  0.3319 -0.0409 -0.0017
11034SOL    HW138422   0.645   2.084  11.368  1.3510 -2.1485 -0.0515
11034SOL    HW238423   0.611   2.140  11.504 -0.0406  1.2714 -1.6990
11035SOL     OW38424   1.937   2.236   9.739 -0.0565 -0.5596  0.0437
11035SOL    HW138425   1.980   2.175   9.799  0.5949 -1.1125 -0.9488
11035SOL    HW238426   1.958   2.202   9.652  0.9561  1.4779 -0.5789
11036SOL     OW38427   7.459   3.055  10.153 -0.1252  0.5464 -0.3190
11036SOL    HW138428   7.439   3.093  10.239 -0.2769 -0.1479 -0.0461
11036SOL    HW238429   7.530   3.110  10.120  1.1493 -0.2086  1.0054
11037SOL     OW38430   3.479   6.184  10.376  0.0168  0.0520  0.3637
11037SOL    HW138431   3.520   6.218  10.456  0.0597 -1.3968  1.0022
11037SOL    HW238432   3.388   6.169  10.401  0.5229 -2.6128  0.9504
11038SOL     OW38433   1.891   7.146   8.204  0.8782 -0.1260  0.3175
11038SOL    HW138434   1.881   7.203   8.128  1.5893 -0.1322  0.2142
11038SOL    HW238435   1.810   7.157   8.254 -0.5480 -1.6691 -1.4806
11039SOL     OW38436   5.054   9.337   7.656 -0.3736  0.7276  0.3672
11039SOL    HW138437   5.023   9.286   7.731  0.2407 -1.4540 -0.7664
11039SOL    HW238438   5.041   9.278   7.581  2.2560  1.4566 -0.7550
11040SOL     OW38439   4.403   2.293   9.684  0.0024 -0.6575  0.0821
11040SOL    HW138440   4.447   2.242   9.751  0.8669  1.9302  1.6165
11040SOL    HW238441   4.310   2.282   9.703  0.2224 -0.3981  1.4139
11041SOL     OW38442   9.443   5.677  11.606  0.0029  0.2891 -0.0096
11041SOL    HW138443   9.392   5.604  11.639  2.6548 -1.0497  1.5104
11041SOL    HW238444   9.381   5.750  11.601 -2.4897 -1.7309 -0.5455
11042SOL     OW38445  10.005   8.878   4.565  0.0205  0.2915  0.2210
11042SOL    HW138446  10.052   8.845   4.642 -0.6610  0.5230  0.7487
11042SOL    HW238447  10.045   8.963   4.547 -0.9200  1.0155  1.3731
11043SOL     OW38448   2.545   3.495   8.151  0.0625  0.0472  0.1115
11043SOL    HW138449   2.530   3.405   8.123  0.0152 -0.1791  0.8540
11043SOL    HW238450   2.541   3.546   8.070 -0.7943 -0.5022 -0.2076
11044SOL     OW38451   2.413   2.068   3.671 -0.1750  0.5278 -0.1070
11044SOL    HW138452   2.405   2.060   3.766  3.2606 -0.0019  0.2623
11044SOL    HW238453   2.406   2.161   3.654 -0.9044  0.6178  0.6528
11045SOL     OW38454   1.075   5.713   8.147  0.1095 -0.1158 -0.1860
11045SOL    HW138455   1.020   5.681   8.219  0.7484 -2.8978 -0.7952
11045SOL    HW238456   1.014   5.726   8.075 -0.0981 -0.6230 -0.1066
11046SOL     OW38457   9.143   3.187  11.406  0.3845  0.1457  0.3531
11046SOL    HW138458   9.070   3.193  11.344  0.4587 -0.1914  0.2314
11046SOL    HW238459   9.108   3.137  11.480 -0.2892  2.1232  1.4501
11047SOL     OW38460   8.659   6.426   4.148  0.4728  0.1329 -0.2591
11047SOL    HW138461   8.744   6.462   4.173 -0.4457  1.2259  1.4575
11047SOL    HW238462   8.673   6.392   4.059  2.3212  1.5231 -0.5643
11048SOL     OW38463   9.897   9.498   5.888 -0.4187 -0.4620  0.3308
11048SOL    HW138464   9.950   9.430   5.847 -0.2183  0.4505 -0.9926
11048SOL    HW238465   9.917   9.491   5.981 -0.6561 -2.4013  0.2680
11049SOL     OW38466   1.042  11.243   9.040 -0.1388 -0.1549 -0.3913
11049SOL    HW138467   1.124  11.293   9.034 -0.5989  0.5836 -0.5875
11049SOL    HW238468   1.026  11.233   9.134 -0.6350  1.0632 -0.3327
11050SOL     OW38469  11.261   1.990  11.787  0.5850 -0.0741 -0.4240
11050SOL    HW138470  11.352   2.014  11.805  0.7222 -0.9549  0.1522
11050SOL    HW238471  11.253   1.995  11.692  1.4282 -0.6131 -0.5304
11051SOL     OW38472  11.305   5.069   5.472  0.1988 -0.0342  0.0784
11051SOL    HW138473  11.362   5.071   5.548 -0.9874  1.6427  1.0017
11051SOL    HW238474  11.300   5.161   5.444  0.6880 -0.6231 -2.1021
11052SOL     OW38475  11.202   3.000   4.528 -0.3813  0.3920  0.5533
11052SOL    HW138476  11.214   3.028   4.618  1.3371  0.9116  0.2150
11052SOL    HW238477  11.236   3.073   4.475 -0.2268 -0.3867 -0.4634
11053SOL     OW38478   3.360  11.227   5.278 -0.3398 -0.4195 -0.2859
11053SOL    HW138479   3.396  11.277   5.351 -0.2930 -1.0128  0.0969
11053SOL    HW238480   3.268  11.213   5.301 -0.2097 -1.0096 -0.1228
11054SOL     OW38481   8.824  11.220  10.791  0.3385 -0.0304  0.2947
11054SOL    HW138482   8.750  11.280  10.785  1.9652  2.0215 -0.3387
11054SOL    HW238483   8.889  11.267  10.844  0.7452 -2.3100  1.9725
11055SOL     OW38484   4.517   8.992   1.135  0.3784 -0.3721 -0.3027
11055SOL    HW138485   4.535   8.933   1.061  0.0039 -1.2206  0.2736
11055SOL    HW238486   4.475   8.937   1.200 -1.7037  0.9347 -0.4578
11056SOL     OW38487  11.631   5.195   0.746 -0.5964 -0.0151  0.3343
11056SOL    HW138488  11.651   5.266   0.807  2.2007 -1.1349  0.8753
11056SOL    HW238489  11.569   5.139   0.794 -2.7888  1.8920 -0.0799
11057SOL     OW38490   9.048   5.855   3.334 -0.1618  0.4405 -0.1047
11057SOL    HW138491   9.116   5.817   3.390 -0.6807 -0.6607 -0.1851
11057SOL    HW238492   9.063   5.814   3.248 -1.6849 -0.8165  0.1922
11058SOL     OW38493   8.096   4.437   1.045  0.3150 -0.0805  0.5876
11058SOL    HW138494   8.040   4.467   0.973  0.5767  0.5148  0.6247
11058SOL    HW238495   8.179   4.415   1.003  0.0452 -1.0043  0.5266
11059SOL     OW38496  10.736   4.833  11.211 -0.2539  0.0184  0.0082
11059SOL    HW138497  10.803   4.814  11.145 -0.6581  2.6536 -1.2686
11059SOL    HW238498  10.781   4.887  11.275 -0.3133 -1.1449  1.0762
11060SOL     OW38499   4.465   2.055   9.335  0.0019 -0.3096 -0.6329
11060SOL    HW138500   4.475   2.054   9.240  0.0524  0.4015 -0.6390
11060SOL    HW238501   4.415   1.976   9.354 -1.5437  0.4216 -1.4376
11061SOL     OW38502  10.069   7.387   3.085  0.2068 -0.1953 -0.1900
11061SOL    HW138503  10.063   7.364   3.178  0.0408 -0.4140 -0.2563
11061SOL    HW238504  10.004   7.456   3.073 -3.0128 -3.1186 -1.0924
11062SOL     OW38505  10.142   9.851  10.329 -0.4385 -0.3212  0.2534
11062SOL    HW138506  10.076   9.832  10.395 -1.2421  1.0605 -0.1243
11062SOL    HW238507  10.109   9.928  10.282  0.6968 -0.5279 -0.9556
11063SOL     OW38508   6.788   2.747   8.174  0.1435 -0.3323 -0.1542
11063SOL    HW138509   6.799   2.825   8.228 -0.3703  0.4353 -1.1234
11063SOL    HW238510   6.719   2.770   8.112  0.6052 -1.2328 -1.0328
11064SOL     OW38511   7.938   7.775   9.427  0.3047 -0.0437  0.2825
11064SOL    HW138512   7.846   7.797   9.443 -0.0080 -0.4509 -0.8349
11064SOL    HW238513   7.935   7.687   9.389  1.2276 -0.3869  0.9624
11065SOL     OW38514   4.012   5.142   1.860 -0.5713  0.2112  0.1512
11065SOL    HW138515   4.057   5.123   1.778 -0.5804  1.0958 -0.0634
11065SOL    HW238516   3.939   5.198   1.836 -0.1053  1.1571  0.8458
11066SOL     OW38517  10.297   8.298   7.769 -0.5972  0.0883  0.6093
11066SOL    HW138518  10.307   8.390   7.746 -3.1802 -0.0745 -1.8214
11066SOL    HW238519  10.286   8.297   7.864 -1.8754  2.4780  0.5499
11067SOL     OW38520   8.772   5.563   2.845 -0.2950 -0.3599 -0.2498
11067SOL    HW138521   8.751   5.474   2.814 -1.9827  0.6048 -2.1291
11067SOL    HW238522   8.864   5.559   2.870 -0.2942 -2.5987 -0.4284
11068SOL     OW38523   9.975   4.304   9.368  0.0379  0.0593  0.3686
11068SOL    HW138524   9.969   4.335   9.459  0.7651 -1.5152  0.9771
11068SOL    HW238525   9.914   4.230   9.365 -0.0522  0.1652 -0.4702
11069SOL     OW38526   7.573   4.877   4.353 -0.2916  0.1518 -0.2788
11069SOL    HW138527   7.586   4.966   4.322 -0.4202 -0.0309 -0.8809
11069SOL    HW238528   7.601   4.822   4.280  0.1909 -0.3099  0.2470
11070SOL     OW38529  11.543  10.464   4.587 -0.4219  0.6650  0.4406
11070SOL    HW138530  11.468  10.427   4.540  0.1152 -0.9233  0.7737
11070SOL    HW238531  11.563  10.399   4.655  2.2274  0.2071 -0.6518
11071SOL     OW38532   2.489   4.467   1.685 -0.1240  0.2526 -0.1663
11071SOL    HW138533   2.414   4.510   1.725 -1.1037 -0.7722 -0.8283
11071SOL    HW238534   2.451   4.408   1.620  1.2306 -0.6330 -0.2009
11072SOL     OW38535   6.428   3.927   5.259 -0.3474 -1.2208  0.1022
11072SOL    HW138536   6.463   3.920   5.170  0.3021 -0.1819  0.2631
11072SOL    HW238537   6.489   3.985   5.305 -1.2618 -0.8666  0.9157
11073SOL     OW38538   5.537  11.585   2.458  0.4308 -0.2647 -0.3366
11073SOL    HW138539   5.505  11.564   2.546  0.9093  3.6374  0.9777
11073SOL    HW238540   5.601  11.517   2.439 -1.6653 -2.8031  1.0639
11074SOL     OW38541   6.264   9.212   5.386  0.4595  0.2897 -0.1656
11074SOL    HW138542   6.275   9.281   5.452  1.2339 -0.5924  0.6595
11074SOL    HW238543   6.171   9.215   5.364  0.3677  1.2138  0.2752
11075SOL     OW38544   7.993   5.614   0.361 -0.8115 -0.2335 -0.4305
11075SOL    HW138545   8.074   5.639   0.317 -0.2079  0.5963  1.0809
11075SOL    HW238546   7.929   5.678   0.331 -0.1914  0.8695  0.5375
11076SOL     OW38547   0.530   3.379   2.543  0.1957  0.6779  0.0062
11076SOL    HW138548   0.521   3.355   2.635  0.6105 -1.2837 -0.4029
11076SOL    HW238549   0.618   3.414   2.535  0.3895  0.2570  0.2627
11077SOL     OW38550  10.209   8.556   6.353 -0.5519 -0.1217  0.2487
11077SOL    HW138551  10.114   8.550   6.364 -0.6928  0.0076 -0.7848
11077SOL    HW238552  10.240   8.597   6.433 -1.4175  0.2466  0.4058
11078SOL     OW38553  10.903   8.401   2.215 -0.6795  0.2717 -0.6712
11078SOL    HW138554  10.832   8.337   2.214 -0.4782  0.0105  0.3635
11078SOL    HW238555  10.981   8.350   2.238 -0.7430  1.0549  1.5848
11079SOL     OW38556   8.040   7.507   6.534 -0.6234  0.1794  0.1067
11079SOL    HW138557   8.067   7.419   6.562 -1.8467 -0.5037 -0.7027
11079SOL    HW238558   7.988   7.541   6.607 -0.3667  0.1100  0.3197
11080SOL     OW38559   5.368   0.069   8.732 -0.0992  0.5643  0.1411
11080SOL    HW138560   5.443   0.127   8.725 -0.2062  0.5607 -1.3875
11080SOL    HW238561   5.329   0.069   8.644 -1.6395  0.2335  0.7907
11081SOL     OW38562   9.842   5.422   3.018  0.2990 -0.0357  0.1842
11081SOL    HW138563   9.772   5.465   3.066  0.6897 -0.2431  0.9534
11081SOL    HW238564   9.823   5.440   2.926  0.6220  2.0652  0.4890
11082SOL     OW38565   1.245  10.255   8.222  0.3351 -0.0018  0.5125
11082SOL    HW138566   1.161  10.240   8.178  0.3470 -0.1631  0.5463
11082SOL    HW238567   1.257  10.350   8.217  0.5235 -0.0601 -0.1732
11083SOL     OW38568   1.812   7.582   6.569  0.5890  0.2852  0.8848
11083SOL    HW138569   1.765   7.551   6.645  0.6167 -0.8622  0.4456
11083SOL    HW238570   1.895   7.614   6.603  0.1635  0.7902  1.4583
11084SOL     OW38571   5.990   6.957   8.989  0.3292  0.1030 -0.0632
11084SOL    HW138572   6.008   7.046   9.019  1.3678  0.0151 -0.4084
11084SOL    HW238573   6.057   6.939   8.923  0.6718 -1.2368  0.6103
11085SOL     OW38574   8.340   7.117   0.641 -0.2710  0.3977 -0.1166
11085SOL    HW138575   8.407   7.059   0.607 -2.0118 -0.4265 -2.3402
11085SOL    HW238576   8.321   7.083   0.729 -0.2868 -1.5286 -0.8385
11086SOL     OW38577   4.795   0.119  10.343 -0.7458 -0.3914 -0.0598
11086SOL    HW138578   4.788   0.025  10.327 -2.0234 -0.3204 -0.0590
11086SOL    HW238579   4.851   0.127  10.419  0.3238 -1.0810 -0.7597
11087SOL     OW38580  11.132   9.565   4.563  0.2664  0.1613  0.3006
11087SOL    HW138581  11.172   9.499   4.620  1.6029  0.1565 -0.5876
11087SOL    HW238582  11.111   9.518   4.482 -1.9397  0.0848  0.8595
11088SOL     OW38583   4.906  10.909  10.660  0.0617  0.2581  1.1692
11088SOL    HW138584   4.817  10.894  10.692 -0.9624  1.7527 -0.7814
11088SOL    HW238585   4.932  10.992  10.701 -0.3805  1.0143 -0.0373
11089SOL     OW38586   7.885   9.522   2.347 -0.0617  0.0804  0.8373
11089SOL    HW138587   7.967   9.521   2.298  0.0401 -3.0480  0.8938
11089SOL    HW238588   7.817   9.518   2.281 -0.1355  1.0528  0.8415
11090SOL     OW38589  10.960   8.285   5.864 -0.3774  0.9256 -0.7360
11090SOL    HW138590  11.045   8.262   5.826  0.2431  1.0711  0.5126
11090SOL    HW238591  10.958   8.380   5.864  0.5777  1.0174  1.4819
11091SOL     OW38592   4.176   1.514   2.746 -0.1744  0.1039 -0.1841
11091SOL    HW138593   4.120   1.482   2.676 -0.1282  0.2558 -0.2926
11091SOL    HW238594   4.240   1.444   2.760 -0.1245  0.1124 -0.3622
11092SOL     OW38595   1.569  10.440   9.439 -0.5011 -0.5041  0.5985
11092SOL    HW138596   1.498  10.389   9.479 -0.0370 -0.6053  1.2954
11092SOL    HW238597   1.596  10.501   9.508 -0.5495  0.1899  0.0156
11093SOL     OW38598   6.785   0.540   9.342  0.3440 -0.0300 -1.0083
11093SOL    HW138599   6.862   0.561   9.395  0.2190 -0.4810 -0.6481
11093SOL    HW238600   6.724   0.499   9.403 -0.7728  1.6177 -0.9480
11094SOL     OW38601   9.189  11.046   2.306  0.0045  0.4746  0.5948
11094SOL    HW138602   9.252  11.087   2.365 -0.1521  0.9376  0.4413
11094SOL    HW238603   9.225  11.058   2.219 -0.6818  1.4555  0.4332
11095SOL     OW38604   0.533   1.853   3.888 -0.2886 -0.2660 -0.2590
11095SOL    HW138605   0.560   1.790   3.955  0.3646 -1.2585 -1.4209
11095SOL    HW238606   0.440   1.834   3.875  0.0122 -1.3406 -0.9428
11096SOL     OW38607   6.349   5.829  10.553  0.0499  0.7086 -0.1028
11096SOL    HW138608   6.291   5.754  10.570 -0.4092  0.8030 -1.1784
11096SOL    HW238609   6.425   5.791  10.508 -0.5426  0.9732 -1.3652
11097SOL     OW38610   0.206   7.863   3.150 -0.3829  0.0214  0.4174
11097SOL    HW138611   0.296   7.838   3.173 -0.1792  0.3527  0.0079
11097SOL    HW238612   0.185   7.936   3.209 -0.2357  0.1970  0.2576
11098SOL     OW38613   1.617   0.678  11.147 -0.0751 -0.0554 -0.0469
11098SOL    HW138614   1.666   0.614  11.095  2.1875  0.2684  1.5668
11098SOL    HW238615   1.649   0.668  11.236 -3.9729 -0.7388  1.5056
11099SOL     OW38616   3.652   2.406   0.237 -0.6728  0.0717 -0.2568
11099SOL    HW138617   3.580   2.356   0.200 -1.3059  0.7300  0.0748
11099SOL    HW238618   3.640   2.399   0.332 -0.8240  0.9241 -0.2048
11100SOL     OW38619   2.204   1.969   5.765  0.0879 -0.4826 -0.3557
11100SOL    HW138620   2.126   2.016   5.795  0.9976  0.8069  0.1074
11100SOL    HW238621   2.170   1.893   5.717 -1.4577 -1.0862  1.5383
11101SOL     OW38622   5.682   7.950   5.289 -0.0311  0.3047  0.3403
11101SOL    HW138623   5.703   8.017   5.354  0.1008  0.2301  0.3763
11101SOL    HW238624   5.588   7.935   5.299 -0.5917  2.2349 -1.3356
11102SOL     OW38625  11.596  11.597  10.723  0.0564  0.1941 -0.0802
11102SOL    HW138626  11.615  11.577  10.815 -0.8434 -0.6965 -0.0812
11102SOL    HW238627  11.506  11.629  10.723 -0.4790 -1.2089 -0.8166
11103SOL     OW38628   7.305   6.313   0.906 -0.3680 -0.3103 -0.3984
11103SOL    HW138629   7.361   6.297   0.982  1.5620  0.9013 -1.4792
11103SOL    HW238630   7.231   6.361   0.941  0.4152  0.1011  0.7683
11104SOL     OW38631   4.503  10.878   9.371 -0.2778 -0.3342  0.0609
11104SOL    HW138632   4.510  10.794   9.326  0.7796 -0.5554  0.6190
11104SOL    HW238633   4.575  10.879   9.434 -2.7548 -0.8509  3.1500
11105SOL     OW38634   4.668   4.933   2.738  0.2846 -0.5356  0.6767
11105SOL    HW138635   4.739   4.989   2.769  0.6764  0.2956 -1.4834
11105SOL    HW238636   4.686   4.922   2.644 -1.4605 -1.8119  0.4389
11106SOL     OW38637  11.146   1.727   0.163 -0.1464 -0.7633 -0.6019
11106SOL    HW138638  11.164   1.750   0.254 -0.9840 -2.0698 -0.0733
11106SOL    HW238639  11.121   1.810   0.122  1.3140  0.0328  0.0569
11107SOL     OW38640   3.625   6.547   4.459  0.1769  0.8344  0.0157
11107SOL    HW138641   3.667   6.530   4.375  1.1195  0.9033  0.4595
11107SOL    HW238642   3.673   6.493   4.521 -0.2904  1.0431  0.5649
11108SOL     OW38643   4.121   5.616   0.124  0.7266 -0.6571  0.0598
11108SOL    HW138644   4.210   5.647   0.136  0.9783 -0.9260 -1.0416
11108SOL    HW238645   4.067   5.676   0.176  1.2895  1.0427 -1.2413
11109SOL     OW38646   1.238   2.625   7.711 -0.2290 -0.5422 -0.0317
11109SOL    HW138647   1.319   2.646   7.757  0.7680 -0.0873 -1.8887
11109SOL    HW238648   1.219   2.534   7.734 -0.8931  0.2160  2.7919
11110SOL     OW38649   5.049   4.486   8.943  0.1147 -0.2281 -0.3557
11110SOL    HW138650   5.111   4.519   8.878  1.3350  0.5622  1.1547
11110SOL    HW238651   5.001   4.417   8.898 -0.7062  1.7995 -2.8221
11111SOL     OW38652  10.032   5.449   4.759 -0.1215  0.4216  0.2631
11111SOL    HW138653  10.127   5.458   4.750 -0.2893  1.8734 -0.3715
11111SOL    HW238654   9.997   5.479   4.675 -1.0833 -2.5075 -0.5097
11112SOL     OW38655   1.321  11.142  10.978 -0.0277 -0.8005 -0.7969
11112SOL    HW138656   1.357  11.057  10.951  0.9026 -0.2729 -1.2826
11112SOL    HW238657   1.227  11.134  10.963  0.1891 -1.3140 -2.0719
11113SOL     OW38658   1.935   8.601   4.541 -0.3820 -0.0911  0.2479
11113SOL    HW138659   2.010   8.569   4.491  1.4659 -0.4356  3.0408
11113SOL    HW238660   1.897   8.670   4.486  2.1386  0.2964 -1.1462
11114SOL     OW38661   5.951   5.014   4.717  0.5392 -0.0127  0.0585
11114SOL    HW138662   5.956   5.067   4.638 -1.6386 -1.1569 -0.9260
11114SOL    HW238663   5.941   4.924   4.686  0.9137 -0.6417  1.6550
11115SOL     OW38664   1.965  11.371   8.766 -0.3215  0.4258  0.4172
11115SOL    HW138665   1.987  11.389   8.674 -0.4981 -0.2347  0.2418
11115SOL    HW238666   2.023  11.300   8.791 -0.7852  0.1023  0.5898
11116SOL     OW38667   9.996   9.991   0.568  0.0885 -0.4745 -0.2209
11116SOL    HW138668  10.086   9.974   0.538  0.6440 -0.8149  1.5086
11116SOL    HW238669   9.997   9.966   0.660 -2.0494 -1.3264 -0.3853
11117SOL     OW38670   8.540  10.625   6.307  0.2646 -0.2247 -0.3260
11117SOL    HW138671   8.458  10.675   6.306  0.5837  0.3501  0.7753
11117SOL    HW238672   8.531  10.562   6.236 -2.3779 -2.1822  1.5670
11118SOL     OW38673   3.690   8.376   1.648 -0.6701 -0.2019 -0.3892
11118SOL    HW138674   3.606   8.357   1.690 -0.9300  0.1189 -0.7573
11118SOL    HW238675   3.734   8.435   1.708 -1.0612  0.2926 -0.5789
11119SOL     OW38676   0.372   8.346   9.177 -0.1032  0.1005  0.0349
11119SOL    HW138677   0.405   8.420   9.227  1.4122  1.2407 -2.4794
11119SOL    HW238678   0.293   8.378   9.134 -0.9276 -0.6096  0.9725
11120SOL     OW38679   9.576  10.347   1.867 -0.7947  0.1796 -0.3932
11120SOL    HW138680   9.519  10.300   1.927  0.9567  0.0554  1.2703
11120SOL    HW238681   9.525  10.424   1.840 -1.6087  0.2832  1.3250
11121SOL     OW38682   8.850   3.994   3.346  0.1887 -0.4480 -0.3188
11121SOL    HW138683   8.885   3.962   3.429  0.3043  0.8133  0.1463
11121SOL    HW238684   8.911   3.962   3.280  1.4029  0.4376  0.3322
11122SOL     OW38685   7.262  10.379   4.926 -0.4628 -0.2488 -0.3944
11122SOL    HW138686   7.315  10.358   4.849 -1.0401  2.0168 -1.4808
11122SOL    HW238687   7.193  10.436   4.893 -2.4735 -1.5318  1.3310
11123SOL     OW38688  10.990   5.915   8.425  0.5994  0.6117 -0.5719
11123SOL    HW138689  11.051   5.883   8.359  1.9253 -1.5376  1.5827
11123SOL    HW238690  10.910   5.863   8.412  0.1005  1.6086 -1.7054
11124SOL     OW38691   5.374   7.068   4.348  0.0699 -0.1289 -0.0068
11124SOL    HW138692   5.298   7.088   4.402  0.0464  1.4228 -0.5559
11124SOL    HW238693   5.448   7.104   4.397  0.0843  0.9929 -0.8134
11125SOL     OW38694  10.169   8.820   3.292  0.2197 -0.0465 -0.1654
11125SOL    HW138695  10.192   8.760   3.363  0.1099 -0.7787 -0.7298
11125SOL    HW238696  10.219   8.900   3.310  2.0955 -1.0770 -0.5675
11126SOL     OW38697   7.327   4.699   8.856  0.3676 -0.1823  0.4088
11126SOL    HW138698   7.383   4.709   8.933 -1.1018  0.5727  1.4155
11126SOL    HW238699   7.361   4.764   8.794 -0.2764  1.3407  1.5825
11127SOL     OW38700   9.150   0.894  10.339  0.2358  0.0259  0.2165
11127SOL    HW138701   9.086   0.908  10.269  0.6455 -2.6973 -0.8729
11127SOL    HW238702   9.219   0.959  10.323 -0.0022 -0.1071 -1.5538
11128SOL     OW38703   2.362   5.169   1.742 -0.4158 -0.3416  0.4287
11128SOL    HW138704   2.388   5.259   1.722  0.5681 -0.3604  1.4839
11128SOL    HW238705   2.305   5.144   1.670  2.2488 -0.1683 -1.9286
11129SOL     OW38706   1.572  10.750   9.201 -0.1715 -0.2340  0.5752
11129SOL    HW138707   1.546  10.837   9.172 -0.5967 -0.1521  1.2000
11129SOL    HW238708   1.558  10.694   9.124 -2.4529 -0.2568  0.9416
11130SOL     OW38709  11.795   0.555   6.153  0.0823 -0.5411  0.1370
11130SOL    HW138710  11.869   0.512   6.196 -0.1256 -1.4412 -0.3747
11130SOL    HW238711  11.824   0.567   6.063 -0.0370 -0.0011  0.1670
11131SOL     OW38712   6.652   9.977   3.403 -0.0030 -0.0350  0.6061
11131SOL    HW138713   6.717  10.046   3.394  0.2116 -0.2978  0.1166
11131SOL    HW238714   6.685   9.905   3.350 -2.1424  0.8650 -2.1786
11132SOL     OW38715   2.986   5.471   4.445 -0.1927  0.0382 -0.5697
11132SOL    HW138716   3.042   5.428   4.381 -1.3330 -1.0557 -0.8750
11132SOL    HW238717   3.036   5.470   4.526 -0.1906 -1.9477 -0.5596
11133SOL     OW38718   4.035  10.804   6.372  0.8904 -0.1464 -0.4131
11133SOL    HW138719   4.061  10.859   6.446  1.4400  0.2920 -0.9152
11133SOL    HW238720   4.095  10.830   6.301 -0.3492  0.2492 -1.3523
11134SOL     OW38721   4.163   3.070   0.058 -0.4295 -0.1910 -0.0072
11134SOL    HW138722   4.201   2.982   0.067  0.3626  0.0192 -1.0498
11134SOL    HW238723   4.101   3.077   0.130 -1.8365 -2.2918 -0.9142
11135SOL     OW38724  10.276  11.343   4.012 -0.3124  0.0152  0.2364
11135SOL    HW138725  10.277  11.336   4.108  0.3864 -3.0625  0.0934
11135SOL    HW238726  10.347  11.286   3.983  0.8729  2.4920 -2.1263
11136SOL     OW38727   0.411  11.188   5.218  0.3928  0.3827  0.0952
11136SOL    HW138728   0.417  11.249   5.292  0.9798  0.8831 -0.3509
11136SOL    HW238729   0.401  11.102   5.259  1.9293  0.5076  0.8159
11137SOL     OW38730   2.023   4.023   2.788  0.9396 -0.1253 -0.2185
11137SOL    HW138731   2.036   4.084   2.715  1.3535  1.4451  1.1052
11137SOL    HW238732   1.971   3.952   2.750 -1.5879  2.1092 -1.3696
11138SOL     OW38733  11.620   3.996   0.275  0.2421 -0.2817  0.0096
11138SOL    HW138734  11.632   4.053   0.199  1.6345  1.5888  1.5358
11138SOL    HW238735  11.624   3.907   0.239  0.7226  0.5265 -2.1086
11139SOL     OW38736  10.693   0.295   7.085 -0.0208 -0.1337 -0.0393
11139SOL    HW138737  10.771   0.341   7.051 -0.5245  0.4098 -0.4843
11139SOL    HW238738  10.636   0.365   7.116 -1.2850 -0.3421 -1.7263
11140SOL     OW38739  11.762   6.331   7.680  0.0087  0.6631 -0.5465
11140SOL    HW138740  11.819   6.291   7.746 -0.2920  1.4049  0.1889
11140SOL    HW238741  11.676   6.335   7.722 -0.8558 -1.3470 -2.0043
11141SOL     OW38742   8.266   2.682   1.467 -0.2925  0.4942 -0.4752
11141SOL    HW138743   8.327   2.745   1.505  0.3438  0.4331 -1.3586
11141SOL    HW238744   8.179   2.720   1.481 -0.0891  0.4549  1.0411
11142SOL     OW38745   1.373   5.536   3.678 -0.0814  0.2653 -0.4476
11142SOL    HW138746   1.331   5.597   3.738 -0.0629  0.4133 -0.5845
11142SOL    HW238747   1.369   5.451   3.723 -1.7860 -0.0128 -1.0526
11143SOL     OW38748   7.632   8.088   8.082 -0.3368 -0.0425 -0.4481
11143SOL    HW138749   7.693   8.076   8.009  0.4662  2.4121 -0.2723
11143SOL    HW238750   7.675   8.044   8.156 -1.0284 -2.3018 -1.3328
11144SOL     OW38751  11.364   7.176  11.237 -0.2031 -0.2679 -0.1303
11144SOL    HW138752  11.371   7.258  11.285 -0.7909 -0.5889  0.5330
11144SOL    HW238753  11.453   7.140  11.238  0.0990  0.4502 -0.6085
11145SOL     OW38754   9.023   8.925   9.327  0.4865  0.4124  0.6120
11145SOL    HW138755   8.999   8.963   9.411 -1.5723 -0.2077  0.3666
11145SOL    HW238756   9.047   8.835   9.347 -0.2722  0.1856  0.5061
11146SOL     OW38757   2.516  10.751   9.033  0.0074 -0.4870 -0.2051
11146SOL    HW138758   2.582  10.682   9.026  0.7452  0.3083 -1.3009
11146SOL    HW238759   2.451  10.728   8.966  1.1896  0.8389 -1.8820
11147SOL     OW38760   9.700   4.060   7.428  0.4119 -0.1116  0.0122
11147SOL    HW138761   9.708   3.974   7.386  0.3340  0.2257 -0.7031
11147SOL    HW238762   9.646   4.111   7.368 -0.2932  0.1686  0.8589
11148SOL     OW38763   5.308   1.438  11.328 -0.4339  0.2680  0.3774
11148SOL    HW138764   5.382   1.455  11.386  1.5525 -1.3471 -1.5290
11148SOL    HW238765   5.311   1.508  11.262 -1.0801  0.6084  0.6954
11149SOL     OW38766  10.296   8.617  10.305  0.2089 -0.6150 -0.2596
11149SOL    HW138767  10.336   8.671  10.373  2.4854 -0.6185 -1.4862
11149SOL    HW238768  10.282   8.677  10.231 -1.3799 -0.8052 -0.1534
11150SOL     OW38769   2.416  10.977   8.084 -0.3889  0.2360 -0.2749
11150SOL    HW138770   2.437  11.070   8.071 -0.1026  0.4368  1.4390
11150SOL    HW238771   2.402  10.944   7.995  0.2470  1.7358 -0.9819
11151SOL     OW38772   4.116   4.198   0.542 -0.3282 -0.2832 -0.1000
11151SOL    HW138773   4.117   4.150   0.625 -0.2195  0.9905  0.6672
11151SOL    HW238774   4.029   4.239   0.540 -0.6431 -0.9643 -1.0269
11152SOL     OW38775   7.093   8.943   7.725  0.6347 -0.1232 -0.3383
11152SOL    HW138776   7.167   9.004   7.732  0.0807  0.5636 -0.3721
11152SOL    HW238777   7.048   8.970   7.645  0.3534 -0.5497 -0.3255
11153SOL     OW38778   5.580   9.471   1.820 -0.4682  0.4774  0.2945
11153SOL    HW138779   5.513   9.462   1.753 -0.0727  0.5588 -0.1155
11153SOL    HW238780   5.593   9.382   1.852  0.1289  0.2647 -0.5141
11154SOL     OW38781   3.143   7.719   7.189  0.1101  0.0446  0.4402
11154SOL    HW138782   3.211   7.651   7.194  1.1607  0.7505 -2.3240
11154SOL    HW238783   3.190   7.801   7.208  0.1448  0.5547 -1.6430
11155SOL     OW38784   9.515  11.728   4.947  0.3926 -0.0095  0.0151
11155SOL    HW138785   9.539  11.650   4.898 -2.2525 -0.6832 -0.3570
11155SOL    HW238786   9.489  11.791   4.880  0.2680  0.3617  0.4082
11156SOL     OW38787   0.069   7.995   4.372 -0.6485 -0.1221  0.3343
11156SOL    HW138788   0.095   7.907   4.400  0.6463  0.0128 -0.3300
11156SOL    HW238789   0.019   7.980   4.292  0.1123 -0.2425 -0.1330
11157SOL     OW38790  10.524   3.500   6.931 -0.7160  0.1112  0.0472
11157SOL    HW138791  10.588   3.567   6.907  1.7489 -2.2159 -0.3553
11157SOL    HW238792  10.470   3.488   6.853  0.7528 -0.3961 -0.9196
11158SOL     OW38793   5.973   1.554   0.863 -0.2186 -0.0164 -0.5629
11158SOL    HW138794   5.962   1.649   0.865 -0.4007  0.0570 -2.7312
11158SOL    HW238795   5.985   1.533   0.770  0.5837 -2.0344 -0.0582
11159SOL     OW38796   3.118   0.265   6.214 -0.2952  0.2761 -0.4120
11159SOL    HW138797   3.038   0.266   6.268  1.9730 -1.1611  3.3955
11159SOL    HW238798   3.107   0.189   6.157 -0.5237 -1.8091  2.2094
11160SOL     OW38799   7.017   2.221   0.340 -0.8212  0.1387  0.3845
11160SOL    HW138800   7.053   2.291   0.285 -0.5572 -0.4719 -0.2338
11160SOL    HW238801   6.923   2.231   0.331 -0.7843 -0.2099 -0.5286
11161SOL     OW38802  11.230   6.826   2.993 -0.1953 -0.0892 -0.4246
11161SOL    HW138803  11.289   6.800   3.064  0.7852  0.7135 -0.9028
11161SOL    HW238804  11.203   6.915   3.016 -0.5357 -0.1325 -0.6473
11162SOL     OW38805   8.485   4.566   4.257  0.2705  1.0334 -0.1846
11162SOL    HW138806   8.437   4.603   4.332  0.2304  1.1868 -0.2845
11162SOL    HW238807   8.540   4.637   4.226  2.8112  0.0226  1.7376
11163SOL     OW38808   4.930   4.392   4.594 -0.2060  0.0709  0.3034
11163SOL    HW138809   4.850   4.422   4.637  1.3362  1.9061  2.0487
11163SOL    HW238810   4.900   4.365   4.507 -2.5301  2.0773  0.3463
11164SOL     OW38811   1.018   1.541   1.215 -0.3435 -0.1248 -0.5078
11164SOL    HW138812   0.934   1.520   1.255 -0.6018  0.7675 -0.5516
11164SOL    HW238813   1.079   1.546   1.289 -0.8392  1.6242 -0.1533
11165SOL     OW38814   8.823   7.564   5.902  0.0497 -0.2696  0.0760
11165SOL    HW138815   8.867   7.629   5.847 -0.5777  0.4887  0.4637
11165SOL    HW238816   8.842   7.591   5.992 -0.2639 -0.5960  0.2406
11166SOL     OW38817   9.016   5.123   3.003  0.0865 -0.4757 -0.3355
11166SOL    HW138818   9.013   5.172   2.921  1.8489  1.1402  0.5144
11166SOL    HW238819   9.027   5.189   3.071  2.5496 -1.9724  0.8778
11167SOL     OW38820   0.832   4.848  11.179 -0.8443  0.4083 -0.2263
11167SOL    HW138821   0.880   4.916  11.132 -0.9784  0.4638 -0.2818
11167SOL    HW238822   0.900   4.795  11.221 -0.7561  1.0223  0.4367
11168SOL     OW38823   4.953   8.004   2.315  0.0404 -0.7030  0.1679
11168SOL    HW138824   4.981   7.968   2.230  4.4361  0.9150  0.6559
11168SOL    HW238825   4.914   8.088   2.294 -0.8926 -1.2345 -0.3170
11169SOL     OW38826   7.340   7.293   6.249  0.6415 -0.4985  0.1540
11169SOL    HW138827   7.254   7.288   6.208  0.5556 -0.0217  0.2706
11169SOL    HW238828   7.398   7.244   6.191  0.7188  0.9643 -1.0485
11170SOL     OW38829  10.381   2.935   2.441 -0.3053 -0.2835  0.2465
11170SOL    HW138830  10.453   2.878   2.414  0.2314 -0.6368  2.2226
11170SOL    HW238831  10.420   2.991   2.509 -2.0016 -0.9054  1.8276
11171SOL     OW38832   4.995  11.258   7.382  0.0085 -0.2898  0.9788
11171SOL    HW138833   5.064  11.241   7.446 -1.5285  1.5153  3.2936
11171SOL    HW238834   4.918  11.214   7.418 -0.8277  0.4895  0.2038
11172SOL     OW38835   2.584   7.005   5.122  0.0943 -0.5149 -0.4407
11172SOL    HW138836   2.576   7.013   5.027 -0.2896  1.3340 -0.2969
11172SOL    HW238837   2.561   7.092   5.155  2.2075 -0.5122  1.2383
11173SOL     OW38838   9.465   5.113   4.350  0.5861 -0.2716 -0.2943
11173SOL    HW138839   9.497   5.158   4.428 -1.6560  0.1145  0.4933
11173SOL    HW238840   9.522   5.143   4.280  0.3269  2.4379  0.5297
11174SOL     OW38841   0.327   9.118   5.805  0.2157  0.0286 -0.3186
11174SOL    HW138842   0.312   9.023   5.810 -0.0353 -0.0769 -2.0796
11174SOL    HW238843   0.245   9.153   5.770 -0.9038  1.3885  3.2385
11175SOL     OW38844   6.021   9.741  11.655 -0.0237 -0.1509 -0.7729
11175SOL    HW138845   6.074   9.702  11.585 -0.1864 -0.5779 -0.6624
11175SOL    HW238846   5.941   9.689  11.656  1.0343 -1.9193  1.4730
11176SOL     OW38847   2.170   2.768   9.068 -0.0604 -0.3403 -0.6631
11176SOL    HW138848   2.096   2.800   9.018 -0.2534 -1.7334 -1.3295
11176SOL    HW238849   2.138   2.686   9.108  0.3845  0.2467  0.9811
11177SOL     OW38850   6.111  11.477   8.790  0.1250  0.4326  0.2482
11177SOL    HW138851   6.142  11.543   8.851 -0.5341  1.4137 -0.4629
11177SOL    HW238852   6.180  11.410   8.791  1.8463  2.0956 -0.5837
11178SOL     OW38853   2.183   3.703   4.712  0.0158  0.8689 -0.3310
11178SOL    HW138854   2.167   3.781   4.766 -0.6332  1.4734 -1.3692
11178SOL    HW238855   2.276   3.683   4.725 -0.4405 -0.0304  2.3317
11179SOL     OW38856   1.849   4.996   0.459 -0.1088 -0.0526 -0.0483
11179SOL    HW138857   1.872   4.905   0.440 -3.7610 -1.3908  1.1796
11179SOL    HW238858   1.804   4.993   0.543 -0.3851  2.9112  0.0206
11180SOL     OW38859  10.453   6.356   5.950  0.3629  0.7458 -0.0205
11180SOL    HW138860  10.466   6.385   6.040  1.4818 -0.6842  0.3252
11180SOL    HW238861  10.463   6.435   5.897 -0.2255  1.5936  1.0848
11181SOL     OW38862   7.374   5.133   7.315 -0.7880  0.1806  0.0261
11181SOL    HW138863   7.375   5.047   7.273  2.1276  0.4017 -0.6036
11181SOL    HW238864   7.366   5.195   7.243 -1.4207  0.4885  0.3516
11182SOL     OW38865   1.682   6.088   2.258 -0.2822  0.4176 -0.2138
11182SOL    HW138866   1.713   6.023   2.321 -1.2431  1.4106  1.3821
11182SOL    HW238867   1.587   6.075   2.256 -0.5783  2.1432  0.6485
11183SOL     OW38868   2.762   5.016   8.360  0.5806 -0.3251  0.6053
11183SOL    HW138869   2.758   5.089   8.421 -0.6512  1.2642 -1.2266
11183SOL    HW238870   2.787   4.941   8.413  2.3176  1.4816  2.5122
11184SOL     OW38871   4.488  10.218   0.910 -0.4798 -0.5161  0.5738
11184SOL    HW138872   4.444  10.261   0.836 -1.2432  1.2290  1.9732
11184SOL    HW238873   4.443  10.133   0.917  1.8433 -2.3026 -2.9744
11185SOL     OW38874   0.421   3.808   8.288 -0.8143  0.3496 -0.4842
11185SOL    HW138875   0.498   3.863   8.273  0.7100 -1.0375  1.8290
11185SOL    HW238876   0.424   3.743   8.218  0.5853 -0.1380 -0.0018
11186SOL     OW38877   2.425  10.887   5.342  0.0388 -0.0459  0.7132
11186SOL    HW138878   2.478  10.965   5.328 -0.5433  0.3385  0.5907
11186SOL    HW238879   2.335  10.917   5.327 -0.2166 -0.6627  0.9916
11187SOL     OW38880  11.566   0.091  10.544  0.1101  0.0960  0.0581
11187SOL    HW138881  11.494   0.054  10.596  0.5953  0.6240  1.1447
11187SOL    HW238882  11.586   0.023  10.480  0.1272 -1.0139  1.1886
11188SOL     OW38883   2.609   3.061   3.818  0.2410  0.0864 -0.1821
11188SOL    HW138884   2.672   3.133   3.821 -0.0038  0.3158 -0.5484
11188SOL    HW238885   2.600   3.035   3.910  0.2693  0.5747 -0.0361
11189SOL     OW38886   2.739   6.472   1.372  0.4624  0.6738  0.8485
11189SOL    HW138887   2.816   6.528   1.375  0.0918  1.1926  0.8149
11189SOL    HW238888   2.773   6.384   1.355  0.8965  1.2213 -1.3742
11190SOL     OW38889   9.331  10.426   8.773  0.0159  0.1656 -0.0558
11190SOL    HW138890   9.395  10.495   8.752  0.1213 -0.1157 -0.6560
11190SOL    HW238891   9.364  10.387   8.854  0.1573  0.5733  0.0841
11191SOL     OW38892   5.527   8.535   2.138  0.2128  0.0016 -0.9673
11191SOL    HW138893   5.472   8.513   2.213  1.7279 -1.2115 -0.1645
11191SOL    HW238894   5.598   8.471   2.139  1.7086  1.5244 -1.8977
11192SOL     OW38895  10.574   6.978   5.674  0.0565 -0.1103  0.2788
11192SOL    HW138896  10.526   6.951   5.753  0.3608 -0.6700  0.2753
11192SOL    HW238897  10.621   7.057   5.700 -0.3058  0.0364  0.4892
11193SOL     OW38898   6.579   0.965   5.552 -0.1825  0.3155  0.0499
11193SOL    HW138899   6.613   0.879   5.525 -2.1142 -1.0829  1.7747
11193SOL    HW238900   6.628   0.986   5.631  0.8846  1.2782 -0.8268
11194SOL     OW38901   0.143   1.269   3.608 -0.1499 -0.2178 -0.0318
11194SOL    HW138902   0.071   1.313   3.562  0.4714 -0.0259 -0.8445
11194SOL    HW238903   0.222   1.315   3.579  0.4485 -1.3703 -0.3124
11195SOL     OW38904  10.273   3.079   7.135  0.2003  0.3455  0.0062
11195SOL    HW138905  10.273   3.172   7.157  0.7225  0.1961  0.7045
11195SOL    HW238906  10.307   3.036   7.214  0.6659 -0.3655 -0.5654
11196SOL     OW38907   6.285   5.310   0.854 -0.1918 -0.0906  0.4988
11196SOL    HW138908   6.235   5.388   0.831  0.3386  0.5045  1.3187
11196SOL    HW238909   6.377   5.338   0.851  0.0317 -0.7958  0.3870
11197SOL     OW38910   5.000   7.142   4.323 -0.0792 -0.0703 -0.4080
11197SOL    HW138911   5.049   7.223   4.340  0.6981 -0.2669 -1.5716
11197SOL    HW238912   4.909   7.170   4.317  0.1726  0.7262 -0.7313
11198SOL     OW38913   1.588   1.933   5.322 -0.0909 -0.4128  0.3048
11198SOL    HW138914   1.507   1.909   5.366  0.1118 -1.0947  0.3052
11198SOL    HW238915   1.620   1.853   5.282  0.5687 -0.1503  0.2762
11199SOL     OW38916   4.508   5.242   0.784 -0.0729 -0.2287  0.5875
11199SOL    HW138917   4.475   5.330   0.763  1.8063 -0.0233 -2.1365
11199SOL    HW238918   4.524   5.244   0.878 -3.8696  0.9108  1.3817
11200SOL     OW38919   5.279   0.489   4.511 -0.2502 -0.2775 -0.1978
11200SOL    HW138920   5.254   0.496   4.419 -0.0864 -0.1206 -0.2318
11200SOL    HW238921   5.280   0.395   4.529 -2.8262 -0.2650  0.3575
11201SOL     OW38922   7.250   7.666   6.500 -0.5516  0.0609  0.1538
11201SOL    HW138923   7.342   7.693   6.501 -0.7685  0.8110  0.7743
11201SOL    HW238924   7.242   7.609   6.423  0.4976 -0.2523  0.2695
11202SOL     OW38925   4.157  10.632   4.537  0.6119 -0.6407  0.2799
11202SOL    HW138926   4.133  10.636   4.629 -2.0624  0.1806 -0.3408
11202SOL    HW238927   4.074  10.612   4.492  1.6627 -0.1835 -1.9966
11203SOL     OW38928   4.801   9.920   9.635  0.1489 -0.2174 -0.4314
11203SOL    HW138929   4.889   9.930   9.597  0.4722 -1.8804 -0.2047
11203SOL    HW238930   4.742   9.934   9.562  0.6907 -0.9439 -1.0323
11204SOL     OW38931   8.133   3.915   8.414  0.1019  0.1874 -0.5671
11204SOL    HW138932   8.038   3.905   8.402  0.3190 -2.2392 -0.7096
11204SOL    HW238933   8.165   3.943   8.329 -0.2655 -1.0960 -1.1503
11205SOL     OW38934   3.025   1.851   7.395 -0.0763 -0.3877  0.0075
11205SOL    HW138935   3.031   1.756   7.408  0.0819 -0.2378  1.1519
11205SOL    HW238936   3.006   1.886   7.482 -0.0111  0.6473 -0.3767
11206SOL     OW38937   4.534   8.994  10.594  0.1724  0.5196  0.2997
11206SOL    HW138938   4.509   8.903  10.573  0.6405  0.2698  0.8208
11206SOL    HW238939   4.594   8.986  10.667  0.1318  1.2679  0.4165
11207SOL     OW38940   3.892   8.002   0.386  0.2299  0.2158 -0.7080
11207SOL    HW138941   3.974   7.988   0.433 -0.0725 -0.9122 -0.4968
11207SOL    HW238942   3.827   8.011   0.455 -0.2071 -1.3807 -0.8765
11208SOL     OW38943  11.255   8.139  11.349 -0.0998 -0.0888 -0.3833
11208SOL    HW138944  11.161   8.151  11.331 -0.5012  0.0135  1.5712
11208SOL    HW238945  11.293   8.225  11.334 -0.3733 -0.0427 -0.8493
11209SOL     OW38946  11.531   4.327   0.243 -0.3257 -0.3338  0.1791
11209SOL    HW138947  11.574   4.301   0.325 -1.7199  1.4035  1.5521
11209SOL    HW238948  11.445   4.285   0.247 -0.3150 -0.4403 -0.5461
11210SOL     OW38949   0.028  11.032  11.129  0.4211  0.1525 -0.0871
11210SOL    HW138950  -0.064  11.008  11.118  0.6034 -0.4316 -0.3891
11210SOL    HW238951   0.074  10.979  11.065  1.0111  0.1701  0.3158
11211SOL     OW38952   2.856   2.905  11.119  0.2526 -0.4561 -0.7047
11211SOL    HW138953   2.835   2.852  11.042 -0.3650  1.1007 -1.6474
11211SOL    HW238954   2.770   2.925  11.158  0.5277 -0.7572  0.0810
11212SOL     OW38955   4.914   7.049   0.006 -0.6825 -0.2841  0.0831
11212SOL    HW138956   4.905   7.007  -0.079 -0.2092 -0.6896  0.2281
11212SOL    HW238957   4.993   7.102  -0.001 -0.3109 -0.7722  0.4464
11213SOL     OW38958   8.513   3.942   8.730 -0.2050 -0.4431 -0.4872
11213SOL    HW138959   8.511   3.924   8.824  1.6665  2.3864  0.2403
11213SOL    HW238960   8.532   3.858   8.690 -2.1712 -1.9651  1.5151
11214SOL     OW38961   7.619   0.889   6.126  0.0850  0.5024 -0.0544
11214SOL    HW138962   7.610   0.970   6.076 -2.2047  0.2778 -0.1194
11214SOL    HW238963   7.588   0.820   6.067  1.1476 -0.3149  0.3071
11215SOL     OW38964   1.209   8.292   6.823 -0.5790 -0.1532  0.2065
11215SOL    HW138965   1.116   8.290   6.798 -0.4113  1.1366 -0.6496
11215SOL    HW238966   1.245   8.367   6.775  0.4350  0.6782  2.1255
11216SOL     OW38967   8.195   1.343   2.057 -0.6577  0.1757  0.1703
11216SOL    HW138968   8.150   1.265   2.026  0.4488 -0.2678 -0.3946
11216SOL    HW238969   8.228   1.320   2.144  2.0407 -1.0433 -1.0654
11217SOL     OW38970   3.777   4.199   4.530 -0.2282 -0.0629  0.2328
11217SOL    HW138971   3.720   4.201   4.454 -0.0181 -0.3074  0.0670
11217SOL    HW238972   3.756   4.117   4.574 -0.2793  0.0308  0.3849
11218SOL     OW38973   5.881   6.081   5.799  0.1120 -0.6261 -0.1213
11218SOL    HW138974   5.828   6.157   5.776 -0.5317 -0.9575  0.2405
11218SOL    HW238975   5.819   6.020   5.839  0.6944 -1.1820 -0.0548
11219SOL     OW38976   0.834  10.367   8.388 -0.1262 -0.2497 -0.0585
11219SOL    HW138977   0.756  10.420   8.373 -0.5807 -0.6060  1.0139
11219SOL    HW238978   0.906  10.421   8.354 -0.7507  0.3804 -0.4054
11220SOL     OW38979   3.808  11.711   9.115 -0.1040 -0.1709  0.0736
11220SOL    HW138980   3.777  11.643   9.056  0.4515  0.6427 -1.1924
11220SOL    HW238981   3.743  11.781   9.107  1.3040  1.0336 -1.6529
11221SOL     OW38982   4.731  10.668  10.148 -0.1058 -0.1817  0.1904
11221SOL    HW138983   4.818  10.635  10.128  0.7127  0.1154  2.7936
11221SOL    HW238984   4.735  10.688  10.242 -2.1922  2.2113 -0.1275
11222SOL     OW38985   8.897   2.996   7.478  0.0605 -0.6160  0.3837
11222SOL    HW138986   8.980   2.952   7.497  0.0657 -1.6715 -1.7877
11222SOL    HW238987   8.832   2.926   7.478 -0.5100 -0.0972  0.1471
11223SOL     OW38988  11.166   9.020   9.943 -0.3635 -0.3287  0.2550
11223SOL    HW138989  11.136   9.111   9.949 -1.8669 -0.8772  1.7541
11223SOL    HW238990  11.097   8.969   9.986  1.1204 -2.0468  0.7028
11224SOL     OW38991   9.002   5.492   8.174 -0.1805  0.3824 -0.1576
11224SOL    HW138992   9.043   5.556   8.115 -1.3737  3.8433  2.4498
11224SOL    HW238993   8.909   5.509   8.166 -0.5591 -1.2374  0.5007
11225SOL     OW38994   1.880  11.803  11.318  0.5167 -0.1675 -0.2025
11225SOL    HW138995   1.959  11.803  11.263  0.5225  0.7255 -0.2036
11225SOL    HW238996   1.910  11.769  11.402  1.2756  1.5695  0.2845
11226SOL     OW38997  11.165   4.528   0.063 -0.0217  0.6241 -0.8884
11226SOL    HW138998  11.189   4.595   0.127  1.1717 -1.3756  0.9047
11226SOL    HW238999  11.070   4.520   0.070  0.2017 -1.0393  2.4335
11227SOL     OW39000   7.312   4.072   5.821 -0.3886  0.1695  0.1319
11227SOL    HW139001   7.264   4.037   5.746 -2.0551  1.2986  0.6041
11227SOL    HW239002   7.243   4.099   5.883  0.8645  1.6080  0.9584
11228SOL     OW39003   1.616   9.874   0.962  0.6872 -0.4086 -0.1713
11228SOL    HW139004   1.608   9.782   0.936  1.5856 -1.6261  3.3013
11228SOL    HW239005   1.697   9.903   0.921  1.2442 -1.6922 -0.0493
11229SOL     OW39006  10.358   7.318   1.912 -0.1154  0.2973  0.1818
11229SOL    HW139007  10.270   7.350   1.929  0.2503  1.2446  0.3251
11229SOL    HW239008  10.345   7.242   1.854 -0.9364  1.3284 -1.0403
11230SOL     OW39009   8.820   7.316   7.833 -0.2774 -0.6982  0.0480
11230SOL    HW139010   8.822   7.403   7.794  1.3883  0.4684  2.4787
11230SOL    HW239011   8.852   7.258   7.764 -0.2975  0.7835 -1.2600
11231SOL     OW39012   6.827   6.724  10.377 -0.5815  0.6195 -0.3715
11231SOL    HW139013   6.812   6.702  10.285 -0.3421 -2.5279  0.2270
11231SOL    HW239014   6.760   6.674  10.425  0.3649  0.8295  1.2582
11232SOL     OW39015   7.518   2.971   1.390 -0.3794  0.0695 -0.5460
11232SOL    HW139016   7.606   3.009   1.380 -0.3921  0.6630  1.2148
11232SOL    HW239017   7.464   3.019   1.327  0.1187  1.2926 -0.0782
11233SOL     OW39018   0.285   2.415   5.155  0.2236 -0.3595 -0.0177
11233SOL    HW139019   0.202   2.420   5.106 -0.0508 -0.7268  0.4068
11233SOL    HW239020   0.264   2.451   5.241  0.3372 -1.0657  0.3118
11234SOL     OW39021   2.505   4.097   0.754  0.2225 -0.4509  0.7430
11234SOL    HW139022   2.433   4.159   0.736  0.8348  0.3702  1.0538
11234SOL    HW239023   2.495   4.029   0.687  1.2978  1.5306 -1.5958
11235SOL     OW39024   1.212   8.474   0.630  0.4764 -0.3577 -0.3030
11235SOL    HW139025   1.275   8.417   0.674  0.2280 -1.5860 -1.4946
11235SOL    HW239026   1.172   8.419   0.563 -1.0327  0.7388 -0.3408
11236SOL     OW39027   3.113  10.756   9.209 -0.4114  0.5752 -0.6403
11236SOL    HW139028   3.099  10.685   9.146  1.7819  1.1095 -1.8224
11236SOL    HW239029   3.089  10.835   9.163 -1.4912  0.7508  0.1936
11237SOL     OW39030   2.831   9.245   9.474 -0.7287 -0.0658  0.0299
11237SOL    HW139031   2.859   9.331   9.505  0.6562 -0.5180  0.1323
11237SOL    HW239032   2.815   9.257   9.380 -0.0740  0.2155 -0.0545
11238SOL     OW39033   2.553   8.918   7.159 -0.5826  0.0981 -0.3082
11238SOL    HW139034   2.489   8.876   7.216 -3.8639  0.8560 -3.0710
11238SOL    HW239035   2.526   9.009   7.155  1.0166  0.5687 -1.1978
11239SOL     OW39036   1.763   8.660   1.362 -0.3637 -0.2716  0.4421
11239SOL    HW139037   1.837   8.603   1.342 -0.5411  0.5784 -3.3334
11239SOL    HW239038   1.802   8.737   1.405  0.6538 -0.7010  0.2999
11240SOL     OW39039  10.378   1.433   5.109 -0.1972  0.1085  0.2382
11240SOL    HW139040  10.366   1.339   5.092  0.1602  0.2796 -1.0428
11240SOL    HW239041  10.305   1.476   5.066 -0.6962  0.4038  1.3330
11241SOL     OW39042   2.902  11.530   7.445 -0.5313  0.5338  0.0927
11241SOL    HW139043   2.843  11.601   7.473 -1.6198 -0.0697 -0.5870
11241SOL    HW239044   2.981  11.543   7.497 -1.2402  1.4122  1.0062
11242SOL     OW39045  10.517   7.378   1.275  0.0934 -0.1631 -0.5001
11242SOL    HW139046  10.454   7.368   1.203  0.4230  1.5706 -1.1017
11242SOL    HW239047  10.465   7.409   1.348  0.1838  1.1308 -0.9554
11243SOL     OW39048   3.240   3.814   9.804 -0.4775  0.7772 -0.4954
11243SOL    HW139049   3.180   3.868   9.752  1.2640  3.2046 -0.1498
11243SOL    HW239050   3.325   3.826   9.762  0.5279  0.8753  1.4948
11244SOL     OW39051   6.431  10.714   8.297  0.3629 -0.2516  0.4084
11244SOL    HW139052   6.408  10.625   8.268  0.2057  0.0961 -0.5403
11244SOL    HW239053   6.518  10.705   8.335  1.0059 -0.5379 -1.0810
11245SOL     OW39054   4.508  11.770   7.291  0.1145 -0.2837  0.6925
11245SOL    HW139055   4.421  11.802   7.266 -0.2986 -0.7799  1.4559
11245SOL    HW239056   4.492  11.679   7.318  1.0268 -0.6852 -0.0711
11246SOL     OW39057   3.700   5.487   2.567  0.0813 -0.0044  0.0322
11246SOL    HW139058   3.616   5.490   2.520 -0.2824 -0.4552  0.6369
11246SOL    HW239059   3.750   5.420   2.521 -1.0714 -2.0154  1.5208
11247SOL     OW39060   9.186   3.419   8.778 -0.4720  0.1010  0.0542
11247SOL    HW139061   9.140   3.460   8.851 -0.0257 -2.2848  1.8194
11247SOL    HW239062   9.274   3.401   8.811  0.3272  0.5197 -1.7033
11248SOL     OW39063   6.378   8.862   2.459 -0.3082 -0.6299 -0.2370
11248SOL    HW139064   6.448   8.825   2.405 -0.4609 -0.9044 -0.2510
11248SOL    HW239065   6.308   8.881   2.396 -0.6602 -1.3675 -0.0850
11249SOL     OW39066  10.387   9.093   8.364  0.2864 -0.1939 -0.1427
11249SOL    HW139067  10.352   9.009   8.333  0.0663 -0.4631  0.8226
11249SOL    HW239068  10.420   9.135   8.284 -0.8925 -0.5683 -0.8609
11250SOL     OW39069  11.312   5.812   0.082 -0.0375 -0.0062 -0.1518
11250SOL    HW139070  11.300   5.901   0.047  0.5348  0.1823  0.1112
11250SOL    HW239071  11.237   5.763   0.050 -1.2668  0.9908  1.0747
11251SOL     OW39072   1.552   6.330  10.644 -0.3336  0.1786  0.3733
11251SOL    HW139073   1.576   6.276  10.569  0.1424  0.2490  0.4684
11251SOL    HW239074   1.464   6.362  10.625  0.2177  1.1332 -0.6804
11252SOL     OW39075   4.892   6.153   4.451  0.0054  0.1009  0.0852
11252SOL    HW139076   4.868   6.089   4.385 -0.5381  0.5723 -0.1801
11252SOL    HW239077   4.901   6.235   4.403 -0.7599  0.5277  0.6473
11253SOL     OW39078  10.843   3.090   7.977 -0.1832  0.2306 -0.4464
11253SOL    HW139079  10.763   3.112   8.024  0.8499  1.0689  1.0021
11253SOL    HW239080  10.818   3.090   7.885 -2.1520 -0.9062  0.0465
11254SOL     OW39081   8.722   4.958   1.204 -0.4030 -0.1508 -0.0754
11254SOL    HW139082   8.651   5.005   1.161 -1.9153 -1.4589  0.8831
11254SOL    HW239083   8.678   4.899   1.265  1.4567 -1.8100 -0.2392
11255SOL     OW39084   0.363  10.703   3.463  0.3514 -0.4314  0.1348
11255SOL    HW139085   0.292  10.639   3.454 -0.2835  0.2587  0.0876
11255SOL    HW239086   0.388  10.697   3.556  0.9078 -1.3571 -0.0564
11256SOL     OW39087   7.117   0.939   4.103 -0.2311  0.1100 -0.2679
11256SOL    HW139088   7.178   0.923   4.176  0.5860  0.4057 -0.8732
11256SOL    HW239089   7.051   0.871   4.113 -0.0107  0.0012  0.6200
11257SOL     OW39090   7.132   7.921  10.655  0.4899 -0.2660  0.3871
11257SOL    HW139091   7.037   7.912  10.646  0.5519 -1.5195  0.8443
11257SOL    HW239092   7.166   7.894  10.570  0.5016 -1.2809  0.7026
11258SOL     OW39093   2.653   0.247  11.374 -0.2318  0.1407 -0.1920
11258SOL    HW139094   2.637   0.178  11.439  0.4415  0.7202  0.6232
11258SOL    HW239095   2.567   0.289  11.363 -0.4066 -0.1121  0.1561
11259SOL     OW39096  10.236   9.791   1.209  0.1750 -0.0471 -0.4926
11259SOL    HW139097  10.222   9.866   1.151 -1.2799 -0.3572 -0.5640
11259SOL    HW239098  10.264   9.830   1.292  2.3346  0.4002 -1.3473
11260SOL     OW39099   5.113   6.797  11.008 -0.1714  0.2115  0.8843
11260SOL    HW139100   5.046   6.730  11.001  1.0749 -0.9749 -0.3219
11260SOL    HW239101   5.175   6.777  10.938 -0.8896  3.9941 -1.0797
11261SOL     OW39102   4.286   7.467   2.276  0.7218 -0.3402  0.1831
11261SOL    HW139103   4.373   7.493   2.307 -0.1868  0.1321  2.4920
11261SOL    HW239104   4.245   7.550   2.249  1.2110 -0.6534 -1.7245
11262SOL     OW39105  10.422  11.756  10.011  0.2170 -0.4303 -0.1338
11262SOL    HW139106  10.333  11.791  10.007  0.7250  0.9239 -0.1556
11262SOL    HW239107  10.476  11.824   9.970  1.2719 -1.1963 -0.0393
11263SOL     OW39108  11.818   0.813   9.453  0.2085 -0.2617  0.2030
11263SOL    HW139109  11.750   0.877   9.433  0.1482 -0.7223 -1.1804
11263SOL    HW239110  11.807   0.745   9.387  1.7341 -0.5555  0.2191
11264SOL     OW39111   6.734  11.413  10.471  0.2906  0.3297  0.6558
11264SOL    HW139112   6.800  11.481  10.454  0.6399 -0.3618 -0.9761
11264SOL    HW239113   6.735  11.402  10.566  1.7061  1.1446  0.7706
11265SOL     OW39114   3.989   3.711   2.997  0.5091 -0.7188 -0.0448
11265SOL    HW139115   4.061   3.728   2.937 -0.5496  0.7142 -0.9830
11265SOL    HW239116   3.917   3.764   2.963 -0.3402 -0.4105  2.0934
11266SOL     OW39117   6.930   0.081  10.313  0.1143  0.0199  0.1785
11266SOL    HW139118   7.022   0.089  10.291  0.0186 -0.4554 -0.4270
11266SOL    HW239119   6.920   0.128  10.396  0.8861  0.1083  0.2222
11267SOL     OW39120  10.233   1.521   8.060  0.6446  0.0883  0.3331
11267SOL    HW139121  10.286   1.573   7.999 -0.2414 -0.1651 -0.6781
11267SOL    HW239122  10.183   1.586   8.110 -0.1722  0.2439 -0.6631
11268SOL     OW39123   3.302   4.925   7.527 -0.2279  0.0100 -0.5415
11268SOL    HW139124   3.251   4.971   7.461 -0.6157  0.3342 -0.0276
11268SOL    HW239125   3.295   4.832   7.503  0.2131  0.1716 -1.3422
11269SOL     OW39126   2.263   1.939   6.030  0.2497  0.0678 -0.2170
11269SOL    HW139127   2.262   1.960   5.937 -1.0609 -0.3924 -0.3256
11269SOL    HW239128   2.341   1.884   6.041  1.4138  1.5695 -0.6802
11270SOL     OW39129   6.462   7.913   4.222  0.3891 -0.2090 -0.0955
11270SOL    HW139130   6.470   7.895   4.316 -0.8655  1.3255  0.3623
11270SOL    HW239131   6.550   7.898   4.187  0.9470 -0.5700  1.3738
11271SOL     OW39132   0.983   4.225  10.163 -0.5795 -0.4696 -0.7865
11271SOL    HW139133   0.994   4.315  10.194  0.3456 -0.3844 -1.3210
11271SOL    HW239134   0.906   4.193  10.209  0.2326 -0.0755  0.9418
11272SOL     OW39135   4.191   2.204  10.668 -0.0972  0.1791  0.1098
11272SOL    HW139136   4.181   2.181  10.760 -0.8504 -4.2335 -0.8662
11272SOL    HW239137   4.285   2.198  10.652 -0.0205  0.4449  0.4424
11273SOL     OW39138   0.097   5.995   4.883  0.6255  0.4131 -0.0145
11273SOL    HW139139   0.099   5.997   4.978 -1.1531 -1.1503  0.1065
11273SOL    HW239140   0.013   6.034   4.859  1.2056  1.1252 -0.9832
11274SOL     OW39141  10.215   1.819   5.643  0.8693  0.3336 -0.2029
11274SOL    HW139142  10.173   1.853   5.722 -1.2853 -0.0530 -1.1054
11274SOL    HW239143  10.301   1.790   5.672  2.6111  5.5952  0.8270
11275SOL     OW39144   9.078   5.001   5.602  0.2943 -0.0756 -0.5832
11275SOL    HW139145   9.115   4.950   5.674 -1.6456  1.2122  1.4216
11275SOL    HW239146   9.012   4.944   5.563 -0.4320  0.1115  0.3364
11276SOL     OW39147   7.903   2.306   9.340 -0.1672 -0.6090 -0.3011
11276SOL    HW139148   7.877   2.215   9.328 -0.7723 -0.9549  2.8515
11276SOL    HW239149   7.999   2.303   9.345 -0.2316 -1.3039  0.9765
11277SOL     OW39150   7.124   6.949   2.857  0.1081 -0.2957  0.6565
11277SOL    HW139151   7.218   6.948   2.877 -0.1075  0.7303  1.8219
11277SOL    HW239152   7.100   7.042   2.858 -1.0985 -0.6037  1.2341
11278SOL     OW39153  11.296   8.141   7.269  0.8295 -0.3120  0.0042
11278SOL    HW139154  11.295   8.141   7.173  0.9098 -0.4604  0.0018
11278SOL    HW239155  11.387   8.121   7.292  0.6987 -0.8140  0.1054
11279SOL     OW39156   7.289   9.328   4.831  0.6793  0.1508  0.5482
11279SOL    HW139157   7.335   9.314   4.748  0.3431  2.0192  0.0051
11279SOL    HW239158   7.208   9.279   4.822  0.2879  0.9680 -0.5727
11280SOL     OW39159   6.084   5.128   7.748  0.0410 -0.4465 -0.0775
11280SOL    HW139160   6.064   5.222   7.750  0.0107 -0.3704 -2.2717
11280SOL    HW239161   6.138   5.114   7.826 -0.8319  1.1581  0.8782
11281SOL     OW39162   3.494   9.889  11.280  0.5997 -0.1838 -0.4778
11281SOL    HW139163   3.476   9.809  11.230  1.6646 -0.6132 -0.1929
11281SOL    HW239164   3.523   9.857  11.366  1.6982  0.4859 -0.5868
11282SOL     OW39165   8.775   3.553   4.285 -0.3832  0.2199  0.2288
11282SOL    HW139166   8.681   3.548   4.301 -0.2241  0.9929  1.5423
11282SOL    HW239167   8.814   3.567   4.371  0.8689  0.7281 -0.3864
11283SOL     OW39168   1.933   9.563   7.066  0.2808  0.0331 -0.3889
11283SOL    HW139169   2.006   9.505   7.045  2.1528  1.8167  0.8222
11283SOL    HW239170   1.962   9.650   7.038 -1.1360  0.8957  0.6791
11284SOL     OW39171   4.317   2.422  10.531  0.4107 -0.2536  0.0668
11284SOL    HW139172   4.247   2.366  10.564 -0.8679  0.1162 -1.8116
11284SOL    HW239173   4.320   2.496  10.591 -0.5557 -0.4663  0.3899
11285SOL     OW39174   4.593  10.151  10.063 -0.1755  0.5166 -0.3897
11285SOL    HW139175   4.595  10.233  10.111 -1.5989 -0.6289  1.7772
11285SOL    HW239176   4.572  10.176   9.973 -3.3005  2.3966  0.7021
11286SOL     OW39177   7.907   9.843   1.727  0.2478 -0.2005  0.7443
11286SOL    HW139178   7.993   9.802   1.738  1.2366  1.5013 -0.1577
11286SOL    HW239179   7.893   9.843   1.633  0.0478  1.0357  0.7600
11287SOL     OW39180   9.477   5.664   8.354  0.2702  0.5372 -0.6975
11287SOL    HW139181   9.447   5.592   8.298 -0.2270  0.7166 -0.6682
11287SOL    HW239182   9.417   5.662   8.429  1.3215 -0.1159  0.1688
11288SOL     OW39183   8.795   5.996   4.397  0.3650 -0.7761  0.1130
11288SOL    HW139184   8.726   5.988   4.463  0.1498 -0.1800 -0.0325
11288SOL    HW239185   8.870   6.030   4.446  0.7096 -1.8518  0.3631
11289SOL     OW39186   7.986   3.767   5.447 -0.0759  0.2215 -0.2769
11289SOL    HW139187   8.074   3.802   5.438 -0.1335  0.6193  0.6152
11289SOL    HW239188   7.983   3.693   5.386  0.3235  1.2299 -1.5402
11290SOL     OW39189  11.790   9.939   7.485 -0.3785 -0.0182  0.2311
11290SOL    HW139190  11.881   9.919   7.462 -0.1301  1.1047  0.2078
11290SOL    HW239191  11.762   9.863   7.537 -0.0367 -1.2358 -1.2831
11291SOL     OW39192   8.699   8.733   5.117 -0.1604 -0.3523 -0.5606
11291SOL    HW139193   8.623   8.729   5.174 -1.0262 -2.0939 -1.7339
11291SOL    HW239194   8.774   8.739   5.176 -1.1193 -0.5210  0.6895
11292SOL     OW39195   8.684   3.443   8.231  0.1267 -0.0350  0.1889
11292SOL    HW139196   8.746   3.380   8.269  2.5409  2.3685  0.5483
11292SOL    HW239197   8.654   3.495   8.306  1.6447  2.0179 -0.5232
11293SOL     OW39198   2.308   0.298   5.611 -0.0757 -0.1705  0.5346
11293SOL    HW139199   2.373   0.316   5.678  1.2071  1.0768 -0.9891
11293SOL    HW239200   2.334   0.214   5.573  0.0171 -0.1914  0.6474
11294SOL     OW39201   7.828  11.668   4.122  0.2273  0.0963  0.1928
11294SOL    HW139202   7.744  11.715   4.118  0.5817  0.7923  0.7766
11294SOL    HW239203   7.894  11.735   4.102  0.6739 -0.3783  0.0601
11295SOL     OW39204   5.019   5.586   6.498 -0.0016 -0.3849  0.2610
11295SOL    HW139205   5.104   5.564   6.459  0.4752  0.9295  0.5044
11295SOL    HW239206   4.956   5.534   6.448  0.7360  0.1031 -1.2600
11296SOL     OW39207  11.221   6.628   3.942  0.1458 -0.6175 -0.1969
11296SOL    HW139208  11.196   6.565   3.875  0.6089 -3.1021  1.8346
11296SOL    HW239209  11.158   6.614   4.013  0.7105  0.7349  0.6137
11297SOL     OW39210   6.009   4.962   8.151  0.2831  0.3028  0.4858
11297SOL    HW139211   5.925   4.938   8.191  0.8573 -1.4563  0.7314
11297SOL    HW239212   5.998   5.053   8.124 -2.0419 -0.1789 -0.3756
11298SOL     OW39213   7.534   7.650   3.329  0.0610 -0.3268 -0.0448
11298SOL    HW139214   7.475   7.630   3.256  2.3312 -1.4409 -1.7285
11298SOL    HW239215   7.519   7.580   3.392  0.4697 -1.3551 -1.0607
11299SOL     OW39216   9.878  11.577   4.233 -0.5310  0.3067 -0.0446
11299SOL    HW139217   9.864  11.627   4.314 -0.1050  0.7284 -0.2210
11299SOL    HW239218   9.810  11.607   4.174  0.2825  1.3829 -0.4646
11300SOL     OW39219  10.209  11.488   2.464  0.4930 -0.3100 -0.1061
11300SOL    HW139220  10.179  11.540   2.389 -0.2550 -0.2082  0.2524
11300SOL    HW239221  10.137  11.427   2.481  0.9198 -0.7548  0.1414
11301SOL     OW39222   0.304   7.877   6.088  0.2248  0.0664  0.5580
11301SOL    HW139223   0.281   7.916   6.173 -0.6962  0.0239  0.3463
11301SOL    HW239224   0.224   7.831   6.061 -0.1306  1.5314 -1.1319
11302SOL     OW39225   6.158  10.511   5.352  0.2872 -0.2809 -0.1599
11302SOL    HW139226   6.252  10.506   5.334  0.7334 -0.4314  1.9761
11302SOL    HW239227   6.147  10.466   5.436 -1.5386  0.6308  0.1439
11303SOL     OW39228   0.760   0.746   0.460  0.0891  0.1582 -0.2657
11303SOL    HW139229   0.802   0.723   0.543 -1.0932  1.5516  0.7626
11303SOL    HW239230   0.736   0.661   0.422 -1.1411 -0.4895  1.7895
11304SOL     OW39231   4.434   4.147   8.598  0.5856  0.0679  0.3818
11304SOL    HW139232   4.490   4.206   8.647  2.7925 -2.0632  0.6077
11304SOL    HW239233   4.367   4.204   8.560  2.9078  2.7933  0.0072
11305SOL     OW39234   5.819   7.970   5.560 -0.5982 -0.0252  0.1415
11305SOL    HW139235   5.827   8.053   5.515 -0.1428 -0.6225 -0.9101
11305SOL    HW239236   5.764   7.989   5.637 -0.2296  1.2886  0.0922
11306SOL     OW39237   1.613   1.782   3.550 -0.7754 -0.0285 -0.1334
11306SOL    HW139238   1.530   1.787   3.502 -1.4391 -0.2585  0.9773
11306SOL    HW239239   1.589   1.756   3.638  0.5362 -0.6079  0.0773
11307SOL     OW39240   1.077   6.069   7.929  0.0955 -0.2235 -0.4724
11307SOL    HW139241   1.136   6.143   7.943  0.8635 -0.7609 -0.8098
11307SOL    HW239242   1.029   6.061   8.012  1.2448 -0.4398  0.1899
11308SOL     OW39243   4.199  11.230  10.621 -0.1044  0.0799 -0.4484
11308SOL    HW139244   4.210  11.237  10.716  0.0530 -0.2617 -0.4401
11308SOL    HW239245   4.226  11.315  10.587  0.1360  0.0983 -0.2100
11309SOL     OW39246   6.098   7.024   9.393 -0.1848 -0.0721  0.5009
11309SOL    HW139247   6.126   7.069   9.473  0.7366  0.5655 -0.1516
11309SOL    HW239248   6.076   6.936   9.421 -0.3013  0.2741  1.5274
11310SOL     OW39249   7.643   9.702   2.074  0.5196  0.2623 -0.1544
11310SOL    HW139250   7.675   9.767   2.011  0.4055  0.6666  0.1976
11310SOL    HW239251   7.624   9.624   2.022  1.8320  0.0929 -0.4150
11311SOL     OW39252  10.743   2.031   2.001 -0.0618 -0.3495  0.0374
11311SOL    HW139253  10.744   1.938   2.025 -1.1352 -0.1443  0.9715
11311SOL    HW239254  10.707   2.033   1.913  0.8438 -0.8783 -0.3589
11312SOL     OW39255  10.157   8.291   1.479 -0.1594  0.1482 -0.0881
11312SOL    HW139256  10.114   8.369   1.444  0.6263 -0.1499 -1.7983
11312SOL    HW239257  10.245   8.293   1.443 -0.3474 -1.9071 -0.7764
11313SOL     OW39258   5.645   8.232   7.383 -0.2109  0.0170 -0.3755
11313SOL    HW139259   5.564   8.204   7.428  0.6004  0.2168  1.3032
11313SOL    HW239260   5.615   8.267   7.300 -1.9553  0.8728  0.5501
11314SOL     OW39261  10.889   9.840   0.243  0.0028 -1.2340  0.2976
11314SOL    HW139262  10.821   9.772   0.248 -0.3634 -0.9403 -0.4931
11314SOL    HW239263  10.846   9.919   0.277  0.6265 -1.5204  1.8307
11315SOL     OW39264   4.737   3.655   7.556 -0.5763 -0.4034  0.4560
11315SOL    HW139265   4.667   3.650   7.491 -0.3912 -0.9915  0.2935
11315SOL    HW239266   4.767   3.565   7.567  0.6568 -0.0781 -0.0249
11316SOL     OW39267   3.227   4.280   6.831  0.1157 -0.4119 -0.0250
11316SOL    HW139268   3.214   4.252   6.922 -2.2441 -0.2483 -0.2469
11316SOL    HW239269   3.297   4.346   6.836 -0.9003  0.6153  1.9171
11317SOL     OW39270   8.655   3.034   1.073  0.2514  0.2464  0.6243
11317SOL    HW139271   8.612   2.957   1.037 -0.5425  1.7680 -1.9431
11317SOL    HW239272   8.583   3.088   1.106  0.4012  1.4596 -0.9231
11318SOL     OW39273  11.049   8.728   4.065 -0.2163 -0.1919 -0.1156
11318SOL    HW139274  11.031   8.713   4.158  2.8992  2.9035  1.1967
11318SOL    HW239275  10.964   8.752   4.028 -1.1869  0.8358  2.5328
11319SOL     OW39276   1.828   3.570   4.464  0.1608  0.2555  0.1646
11319SOL    HW139277   1.786   3.491   4.498  0.0627  1.1728  2.3485
11319SOL    HW239278   1.771   3.642   4.491  0.9437  1.1911 -0.5804
11320SOL     OW39279   9.444   6.930   6.604  0.2736 -0.0693 -0.3077
11320SOL    HW139280   9.450   6.979   6.522  0.5450 -1.0214 -0.8781
11320SOL    HW239281   9.357   6.889   6.601  0.2446 -0.0262 -0.0720
11321SOL     OW39282   0.522   4.394   1.423 -0.0566  0.2722  0.3765
11321SOL    HW139283   0.526   4.370   1.331  0.6224  1.9515 -0.0631
11321SOL    HW239284   0.439   4.357   1.454 -0.8432  0.6549 -1.1986
11322SOL     OW39285   3.198   7.844   8.215  0.0486 -0.1042  0.1017
11322SOL    HW139286   3.279   7.828   8.264 -0.1668 -0.3350  0.3882
11322SOL    HW239287   3.220   7.821   8.124  1.3568  3.1649 -0.5660
11323SOL     OW39288   6.152   5.831  11.558 -0.2488 -0.2772 -0.3212
11323SOL    HW139289   6.108   5.799  11.637  1.4165 -1.3287  0.2269
11323SOL    HW239290   6.121   5.921  11.548 -1.2058 -0.4394  0.9935
11324SOL     OW39291   8.597   7.306   1.396 -0.8713 -0.0756  0.2729
11324SOL    HW139292   8.671   7.343   1.444 -0.1578 -1.7705  0.5700
11324SOL    HW239293   8.532   7.376   1.393  1.3688  2.1084 -1.5328
11325SOL     OW39294   0.128  10.330  11.236  0.1882  0.2426  0.3062
11325SOL    HW139295   0.189  10.365  11.171  1.2750  1.4753  1.8920
11325SOL    HW239296   0.079  10.406  11.266 -2.9067 -0.8477 -1.5717
11326SOL     OW39297   2.402  10.634   1.019 -0.0517  1.0029 -0.4051
11326SOL    HW139298   2.372  10.575   1.088 -0.1883  2.1054  0.5270
11326SOL    HW239299   2.463  10.583   0.967  0.8225  0.4139  1.1443
11327SOL     OW39300   8.741   8.825   3.451  0.3350 -0.3514  0.1659
11327SOL    HW139301   8.755   8.826   3.545 -0.1516  1.4295  0.2423
11327SOL    HW239302   8.781   8.743   3.422  1.8751 -0.1845  1.6854
11328SOL     OW39303   5.697   3.550   9.860  0.1376  0.4463 -0.2178
11328SOL    HW139304   5.685   3.457   9.881 -0.5394  0.9539  1.9550
11328SOL    HW239305   5.653   3.562   9.776 -0.0000 -1.1273 -0.4032
11329SOL     OW39306   7.109   2.508   3.342 -0.1626  0.0310  0.2038
11329SOL    HW139307   7.085   2.452   3.268  0.0424  1.6485 -1.1504
11329SOL    HW239308   7.066   2.467   3.417 -0.2695 -1.7509 -0.7608
11330SOL     OW39309  11.531   3.814   0.640 -0.1282  0.1916  0.6635
11330SOL    HW139310  11.581   3.828   0.720  2.0726 -6.0463  0.9427
11330SOL    HW239311  11.597   3.813   0.570 -1.4078  1.3107 -0.6251
11331SOL     OW39312   8.411   0.158   3.206  0.4538  0.0277  0.1485
11331SOL    HW139313   8.437   0.066   3.209 -2.0455 -0.8530 -1.5059
11331SOL    HW239314   8.482   0.202   3.160  0.9689 -1.3884 -0.4550
11332SOL     OW39315   1.442   7.442   0.797  0.6858  0.1351  0.1561
11332SOL    HW139316   1.394   7.431   0.879 -1.0132  1.3697 -0.6110
11332SOL    HW239317   1.441   7.355   0.757 -0.5081  0.0246  0.3868
11333SOL     OW39318   1.888   2.191   3.898  0.4906 -0.5307  0.2992
11333SOL    HW139319   1.857   2.187   3.988 -0.5220  1.0633  0.0647
11333SOL    HW239320   1.809   2.202   3.846  1.1680 -0.0960 -0.6695
11334SOL     OW39321   8.649   0.421   2.394  0.2144 -0.3581 -0.3959
11334SOL    HW139322   8.593   0.429   2.472  1.5839 -0.7054  0.6538
11334SOL    HW239323   8.698   0.503   2.392 -0.6516  0.1625 -1.6077
11335SOL     OW39324   4.284  11.691   8.542  0.0691  0.8639  0.2380
11335SOL    HW139325   4.265  11.784   8.558 -2.2376  0.2382  1.6106
11335SOL    HW239326   4.247  11.674   8.456 -0.4521  0.9916  0.4307
11336SOL     OW39327  10.664   3.505   2.576  0.1146  0.1057 -0.4404
11336SOL    HW139328  10.570   3.489   2.573  0.2081 -0.3479 -2.0487
11336SOL    HW239329  10.684   3.516   2.669 -1.3470 -0.8727  0.0225
11337SOL     OW39330   1.322   5.322   0.560  0.2040 -0.0163 -0.2179
11337SOL    HW139331   1.292   5.258   0.496  0.1110  0.8164 -1.0318
11337SOL    HW239332   1.257   5.392   0.556  0.6943  0.4671  0.1150
11338SOL     OW39333   2.273  10.852   7.395  0.9979 -0.3594 -0.1245
11338SOL    HW139334   2.338  10.782   7.394  0.7698 -0.5725 -0.3075
11338SOL    HW239335   2.322  10.930   7.421  1.6257 -0.2298 -1.5998
11339SOL     OW39336   9.358   3.352   6.912  0.0142 -0.2005 -0.1388
11339SOL    HW139337   9.299   3.328   6.841  1.2730 -1.5069 -0.8053
11339SOL    HW239338   9.442   3.367   6.868  0.7087 -0.6049  1.0147
11340SOL     OW39339   0.711   2.478   7.295 -0.0161  0.5871 -0.4881
11340SOL    HW139340   0.747   2.566   7.296  0.7310  0.2966  0.4387
11340SOL    HW239341   0.778   2.425   7.252  0.3821  0.1663  0.6019
11341SOL     OW39342   2.868   2.939   5.371 -0.2893  0.1280  0.5184
11341SOL    HW139343   2.803   2.914   5.437 -1.6117 -0.2945 -0.8687
11341SOL    HW239344   2.858   2.874   5.302 -0.2132  1.5359 -0.8843
11342SOL     OW39345   2.733   7.470   2.703  0.6644 -0.1854 -0.1719
11342SOL    HW139346   2.641   7.480   2.679 -0.9043  0.4169  4.9238
11342SOL    HW239347   2.763   7.559   2.721  0.6933 -0.6519  2.5256
11343SOL     OW39348   8.404   1.138   2.875  0.1771 -0.6510 -0.1679
11343SOL    HW139349   8.329   1.142   2.935 -0.6700 -0.1613 -1.2361
11343SOL    HW239350   8.479   1.121   2.933 -0.4052  1.0587  1.2179
11344SOL     OW39351  10.813   9.339   0.836 -0.2810  0.8141  0.1600
11344SOL    HW139352  10.767   9.381   0.763  1.2046  2.9107  0.3451
11344SOL    HW239353  10.784   9.248   0.833 -1.1406  1.0821 -2.3282
11345SOL     OW39354   1.999   9.951   7.313  0.0889  0.3014  0.1152
11345SOL    HW139355   1.935   9.985   7.250  0.6463 -0.3866 -0.8329
11345SOL    HW239356   2.041   9.878   7.269  0.4771 -0.2207  1.3036
11346SOL     OW39357   5.891   3.341   3.257 -0.4522 -0.1645 -0.1219
11346SOL    HW139358   5.952   3.308   3.323  1.8040 -1.6355 -2.7252
11346SOL    HW239359   5.833   3.267   3.240  0.2560 -0.4976 -1.1543
11347SOL     OW39360   1.672   3.891   6.245 -0.1618 -0.0152 -0.6250
11347SOL    HW139361   1.756   3.926   6.215  0.1268  0.0492  0.2481
11347SOL    HW239362   1.611   3.914   6.175  0.7208 -0.9250 -1.7298
11348SOL     OW39363   7.735   3.733  10.196  0.0780  0.3243  0.1555
11348SOL    HW139364   7.669   3.669  10.224  0.7198 -0.8217 -0.8426
11348SOL    HW239365   7.810   3.716  10.253  1.0185 -1.3245 -1.4561
11349SOL     OW39366   0.991   5.242   3.575  0.4807  0.4288 -0.0519
11349SOL    HW139367   0.986   5.309   3.644 -0.1171  0.8580 -0.4914
11349SOL    HW239368   0.983   5.159   3.621  1.4717  0.6371  0.5332
11350SOL     OW39369   5.399   9.962   5.397  0.8000  0.6457  0.3643
11350SOL    HW139370   5.487   9.929   5.414  0.5298 -0.1764  0.1713
11350SOL    HW239371   5.349   9.940   5.476  0.3217 -0.4624 -0.2329
11351SOL     OW39372   6.570   2.073  11.282  0.3182 -0.4363 -0.0298
11351SOL    HW139373   6.663   2.097  11.280  0.1274  0.7173  1.9480
11351SOL    HW239374   6.527   2.144  11.234  0.3064 -0.0482  0.5510
11352SOL     OW39375  11.459   2.664   5.151  0.1022 -0.3383 -0.1802
11352SOL    HW139376  11.488   2.650   5.241 -0.5832  0.7951  0.2379
11352SOL    HW239377  11.531   2.712   5.109 -0.3213  0.7578  0.3048
11353SOL     OW39378   1.610   5.677   2.828 -0.2642  0.2977 -0.2166
11353SOL    HW139379   1.688   5.706   2.877  0.0800  0.0685 -0.6273
11353SOL    HW239380   1.578   5.757   2.786 -0.2552  0.3942 -0.0415
11354SOL     OW39381   5.463   6.336   8.099  1.0654 -0.5136 -0.0246
11354SOL    HW139382   5.413   6.255   8.100 -0.8670  0.6290  0.8320
11354SOL    HW239383   5.420   6.393   8.162  2.0669  1.3568 -0.9152
11355SOL     OW39384   1.563   4.534   2.403 -0.5123  0.1322  0.5548
11355SOL    HW139385   1.531   4.579   2.481 -0.0338  1.5642 -0.0612
11355SOL    HW239386   1.655   4.517   2.421 -0.4260  0.3724  0.3348
11356SOL     OW39387   2.699   8.241   9.456 -0.0595 -0.4657  0.1258
11356SOL    HW139388   2.773   8.274   9.405 -0.6440  1.6712  0.5464
11356SOL    HW239389   2.727   8.252   9.548  0.0237 -1.9627  0.3020
11357SOL     OW39390   7.796  10.863   0.137 -0.8268  0.6167 -0.0439
11357SOL    HW139391   7.763  10.827   0.219  0.3899 -1.3304 -0.3435
11357SOL    HW239392   7.825  10.787   0.087 -1.8646  1.7014 -2.4682
11358SOL     OW39393   6.864   9.869   4.034  0.0434 -0.8702  0.6213
11358SOL    HW139394   6.907   9.953   4.018 -0.5594 -0.2924  1.9477
11358SOL    HW239395   6.779   9.877   3.989 -1.0212  0.1881  2.6600
11359SOL     OW39396   8.166   8.347   4.848  0.2897 -0.3515  0.5551
11359SOL    HW139397   8.224   8.282   4.886  1.8861  0.6284 -0.1135
11359SOL    HW239398   8.193   8.354   4.757 -0.9000  0.1275  0.2202
11360SOL     OW39399   0.581  10.387   8.554  0.2929 -0.2781 -0.1167
11360SOL    HW139400   0.504  10.432   8.588  1.0394  0.1767  1.0394
11360SOL    HW239401   0.605  10.435   8.475 -0.0354  0.1838  0.0641
11361SOL     OW39402   4.256   4.229   3.003  0.1108 -0.4592  0.1604
11361SOL    HW139403   4.312   4.273   3.067 -0.2066  0.2889 -0.0636
11361SOL    HW239404   4.232   4.147   3.045  0.0607 -0.0624  0.9281
11362SOL     OW39405   8.684   1.867   8.378  0.0252  0.0822  0.0654
11362SOL    HW139406   8.683   1.911   8.463 -0.4646 -2.0511  1.2380
11362SOL    HW239407   8.627   1.791   8.390 -1.9604  0.9311 -2.8933
11363SOL     OW39408   9.146   3.942   4.926  0.0470 -0.0106  0.2147
11363SOL    HW139409   9.237   3.962   4.908 -0.6356  3.0322 -0.3390
11363SOL    HW239410   9.139   3.949   5.021  0.1682  0.9143  0.1618
11364SOL     OW39411   1.940   7.882   0.388  0.4101  0.1262 -0.4720
11364SOL    HW139412   1.851   7.916   0.376  0.5352  1.1014  1.0924
11364SOL    HW239413   1.992   7.926   0.321 -0.0944  0.3166 -0.7432
11365SOL     OW39414   6.814   1.028   6.337  0.1718  0.3736 -0.1383
11365SOL    HW139415   6.887   1.075   6.377  0.3028  0.7239 -0.7794
11365SOL    HW239416   6.738   1.055   6.389  0.6158 -0.7464  1.1523
11366SOL     OW39417   7.634   0.069   3.067 -0.1622  0.2729 -0.0986
11366SOL    HW139418   7.726   0.058   3.042 -0.2351 -2.1612  0.3800
11366SOL    HW239419   7.597   0.126   3.000  2.1113  3.1007  0.8471
11367SOL     OW39420   3.819  11.088   4.344 -0.0982 -0.4453  0.1379
11367SOL    HW139421   3.859  11.091   4.258 -3.1001 -1.0902 -1.4451
11367SOL    HW239422   3.823  11.178   4.376  0.5726 -0.0732 -0.9315
11368SOL     OW39423   4.770   3.234   1.672  0.8879  0.1583  0.2762
11368SOL    HW139424   4.817   3.164   1.717  1.7416  1.4802  1.5425
11368SOL    HW239425   4.705   3.262   1.736  1.6261  1.5814  0.4306
11369SOL     OW39426  10.159   7.452   8.410  0.0447  0.3108  0.7581
11369SOL    HW139427  10.191   7.385   8.350  1.2991  0.0279  1.7005
11369SOL    HW239428  10.234   7.473   8.465 -0.5136  2.0106  0.9298
11370SOL     OW39429   8.963   8.534   9.648 -0.1493 -0.6741 -0.4276
11370SOL    HW139430   9.055   8.525   9.676  0.0150  0.0341 -0.7170
11370SOL    HW239431   8.912   8.506   9.725  0.3047  0.0117  0.1414
11371SOL     OW39432   6.834   8.411   4.061  0.2580  0.6796  0.6315
11371SOL    HW139433   6.777   8.346   4.102 -0.4305  0.0205 -1.2513
11371SOL    HW239434   6.910   8.361   4.032 -0.1377  0.7408 -0.5613
11372SOL     OW39435  11.390   2.302   9.689 -0.5537  0.5150  0.2561
11372SOL    HW139436  11.395   2.286   9.595  1.3783 -1.0243  0.5630
11372SOL    HW239437  11.301   2.276   9.713 -0.0299 -2.4935 -0.6209
11373SOL     OW39438  11.667   0.916   6.889 -0.2536  0.1409  0.6025
11373SOL    HW139439  11.747   0.967   6.877  0.5664 -1.3961 -0.8619
11373SOL    HW239440  11.696   0.825   6.894 -1.7693 -0.3070  2.0649
11374SOL     OW39441   7.822  11.389   6.753  0.4585 -0.2591  0.4149
11374SOL    HW139442   7.878  11.449   6.705 -1.1388  0.8529 -0.1337
11374SOL    HW239443   7.836  11.304   6.711  0.3056  0.3820 -0.9710
11375SOL     OW39444   8.267  11.239   2.022  0.2371  0.0981  0.3608
11375SOL    HW139445   8.238  11.186   1.947 -1.8977  1.1257  0.3745
11375SOL    HW239446   8.342  11.288   1.989  1.1500 -1.5933 -0.1890
11376SOL     OW39447   8.035  11.486   0.019  0.0789  0.6444  0.0841
11376SOL    HW139448   8.011  11.551  -0.046  1.0978  2.0110  1.0090
11376SOL    HW239449   8.085  11.535   0.085  1.2841 -1.1526  0.5892
11377SOL     OW39450   3.348   9.971   3.931 -0.2657 -0.0848 -0.4097
11377SOL    HW139451   3.354  10.054   3.884 -1.0432  0.9226  1.1722
11377SOL    HW239452   3.267   9.978   3.981 -0.5517 -1.9779 -0.5331
11378SOL     OW39453   1.897   6.104  10.864  0.0596 -0.1681  0.3297
11378SOL    HW139454   1.923   6.191  10.892 -0.3129  0.5817 -1.5191
11378SOL    HW239455   1.974   6.069  10.820 -0.0879 -0.3996  0.2528
11379SOL     OW39456  11.149   8.087   2.518 -0.0905  0.6134  0.1997
11379SOL    HW139457  11.160   8.059   2.427  1.2905  2.6794 -0.3280
11379SOL    HW239458  11.200   8.025   2.569 -1.5021 -1.0362 -0.2894
11380SOL     OW39459   7.759   9.283   6.480 -0.0361  0.1747  0.6613
11380SOL    HW139460   7.836   9.237   6.514 -0.1957 -1.5542 -1.1125
11380SOL    HW239461   7.685   9.245   6.528 -0.1470 -1.4051 -0.6571
11381SOL     OW39462   9.144   8.302   1.174  0.2002 -0.1137  0.4651
11381SOL    HW139463   9.219   8.352   1.206 -0.4577  2.4665 -1.6808
11381SOL    HW239464   9.182   8.233   1.120  1.1509  2.2575 -2.1116
11382SOL     OW39465   6.028   4.534   6.677 -0.1894  0.6294  0.2222
11382SOL    HW139466   6.048   4.602   6.741  1.6887  0.2505  0.1229
11382SOL    HW239467   6.042   4.577   6.592  1.3326  0.0842  0.1633
11383SOL     OW39468   7.409  11.317   6.474 -0.5125  0.5469  0.5081
11383SOL    HW139469   7.390  11.410   6.462  1.9109  1.2004  1.2375
11383SOL    HW239470   7.330  11.282   6.514 -2.1747  1.8686 -1.4239
11384SOL     OW39471   4.492  11.155   0.425 -0.0485  0.2780 -0.1123
11384SOL    HW139472   4.473  11.179   0.515 -1.1631 -2.9579  0.6393
11384SOL    HW239473   4.415  11.186   0.376 -0.8515 -0.5570  0.5863
11385SOL     OW39474   1.360   4.854   6.416 -0.0744 -0.0511  0.1381
11385SOL    HW139475   1.286   4.898   6.458 -0.8573 -0.3103 -0.9337
11385SOL    HW239476   1.342   4.861   6.322  0.6158 -1.2290 -0.1012
11386SOL     OW39477   6.867   2.110   1.913 -0.0325 -0.1499 -0.0349
11386SOL    HW139478   6.782   2.154   1.912 -1.3823 -2.5834  0.7159
11386SOL    HW239479   6.910   2.143   1.992 -1.3241 -0.6766  0.9210
11387SOL     OW39480   8.841   6.313   8.206 -0.2507 -0.1072 -0.0166
11387SOL    HW139481   8.887   6.398   8.209 -0.3811 -0.0394  0.0749
11387SOL    HW239482   8.759   6.332   8.160 -0.4886 -0.0812  0.4103
11388SOL     OW39483   6.978  10.419   9.190 -0.1255  0.1654 -0.3875
11388SOL    HW139484   6.990  10.324   9.198 -2.0731 -0.0206  1.1987
11388SOL    HW239485   6.928  10.430   9.109 -0.0797 -0.1890 -0.4644
11389SOL     OW39486   7.648   1.747   6.418  0.1537  0.1982  0.3350
11389SOL    HW139487   7.693   1.756   6.334  0.2198 -0.5248  0.2930
11389SOL    HW239488   7.687   1.815   6.473 -0.8749  1.6293 -0.6252
11390SOL     OW39489   8.441   2.746   5.600  0.2361  0.1010  0.1837
11390SOL    HW139490   8.489   2.749   5.518 -1.7659  3.8979 -1.1020
11390SOL    HW239491   8.457   2.831   5.641 -2.4251  0.1486  1.3768
11391SOL     OW39492   7.945   6.713   9.016  0.5747  0.2762 -0.4496
11391SOL    HW139493   8.029   6.746   8.985  0.4147  0.4960 -0.6515
11391SOL    HW239494   7.908   6.784   9.068 -0.4764  1.0386 -2.1636
11392SOL     OW39495   4.678   9.580   8.875 -0.1369  0.3659 -0.1423
11392SOL    HW139496   4.615   9.534   8.930 -0.8762 -0.7729 -1.8331
11392SOL    HW239497   4.639   9.665   8.859  0.3449  0.9235  1.4808
11393SOL     OW39498   3.846  11.598   4.955 -0.0815 -0.0161  0.0014
11393SOL    HW139499   3.882  11.596   5.044  2.7405 -2.8044 -1.0166
11393SOL    HW239500   3.800  11.515   4.945  0.1921 -0.0346 -1.3177
11394SOL     OW39501   9.692   8.806   8.217  0.0144  0.0097 -0.0550
11394SOL    HW139502   9.679   8.749   8.141  0.6236 -1.4764  0.9336
11394SOL    HW239503   9.609   8.853   8.226  0.7739  2.4449 -3.3608
11395SOL     OW39504  10.748   9.023   1.763  0.0591 -0.0780 -0.7264
11395SOL    HW139505  10.745   9.100   1.706 -0.9929  1.5391  1.3432
11395SOL    HW239506  10.674   8.970   1.735 -0.4129  0.6663 -0.9315
11396SOL     OW39507   9.293   7.982   8.515  0.2572 -0.7486  0.2170
11396SOL    HW139508   9.281   8.050   8.581  2.0161  1.4490 -1.5947
11396SOL    HW239509   9.344   7.914   8.560  1.8610  0.9311  1.0348
11397SOL     OW39510   1.810   7.102   3.533  1.0950  0.1263 -0.2033
11397SOL    HW139511   1.734   7.159   3.521  1.8433  0.7817 -2.1779
11397SOL    HW239512   1.882   7.162   3.551  1.1703 -0.4998  1.8693
11398SOL     OW39513   5.364  11.192   3.916 -0.1451  0.2592  0.0961
11398SOL    HW139514   5.407  11.137   3.851 -1.3220 -0.0961 -0.4134
11398SOL    HW239515   5.347  11.133   3.990 -0.1364  0.2966  0.1281
11399SOL     OW39516   6.041   1.737   1.606 -0.1742  0.4622 -0.2355
11399SOL    HW139517   6.090   1.814   1.634  0.6494 -0.4854  1.0298
11399SOL    HW239518   6.022   1.753   1.514  2.3512  0.9617 -0.7424
11400SOL     OW39519  11.530   8.401   1.222  0.2552 -0.3817 -1.1564
11400SOL    HW139520  11.625   8.386   1.221  0.3913  0.3815 -0.3911
11400SOL    HW239521  11.514   8.446   1.305 -1.1208 -2.6495 -0.1004
11401SOL     OW39522   3.203   8.402   4.638 -0.1418  0.1636 -0.2212
11401SOL    HW139523   3.129   8.342   4.640 -0.9906  1.1462 -1.0066
11401SOL    HW239524   3.272   8.354   4.594 -1.7147  0.6693 -3.5197
11402SOL     OW39525   8.936   3.462   9.501 -0.6169 -0.0820 -0.4445
11402SOL    HW139526   8.970   3.379   9.535 -1.1215 -0.6372 -1.2791
11402SOL    HW239527   8.993   3.482   9.427  0.4468  1.1016  0.6274
11403SOL     OW39528   4.293   5.314   7.558 -0.5642 -0.3088 -0.1022
11403SOL    HW139529   4.238   5.312   7.480 -0.8657  1.2889  0.0386
11403SOL    HW239530   4.236   5.350   7.626  0.2495  0.0610  0.3931
11404SOL     OW39531   2.838   7.529   9.911 -0.2490 -0.6317 -0.3316
11404SOL    HW139532   2.885   7.584   9.849 -1.0327  0.3904 -0.0389
11404SOL    HW239533   2.747   7.532   9.881 -0.5239 -0.6679  0.4711
11405SOL     OW39534   0.975   9.272   0.391 -0.0860  0.7030 -0.0838
11405SOL    HW139535   0.887   9.309   0.397  0.3544  1.9699 -0.9603
11405SOL    HW239536   0.967   9.184   0.426 -1.5923  0.9835  0.3238
11406SOL     OW39537   4.926   7.934   7.581  0.3407 -0.3240 -0.2867
11406SOL    HW139538   5.005   7.934   7.527  1.5692 -1.0326  1.4555
11406SOL    HW239539   4.858   7.897   7.523  1.4291 -0.3797 -1.5760
11407SOL     OW39540   9.676   5.689   5.402  0.6475 -0.2489  0.7315
11407SOL    HW139541   9.730   5.768   5.400  0.8328 -0.3830 -0.9849
11407SOL    HW239542   9.734   5.621   5.437  1.2313 -0.1168  0.0533
11408SOL     OW39543   3.226   2.089   7.854  0.6609 -0.4788  0.1329
11408SOL    HW139544   3.179   2.068   7.773  1.9673 -1.0704 -0.5067
11408SOL    HW239545   3.267   2.006   7.880  0.1379 -0.3371  1.5144
11409SOL     OW39546   8.638   1.537  11.286  0.1010 -0.0019  0.1289
11409SOL    HW139547   8.672   1.486  11.212 -1.0900 -0.3526 -0.1928
11409SOL    HW239548   8.621   1.472  11.354  0.1564  0.1871  0.3256
11410SOL     OW39549  11.181   9.654   6.913 -0.0505  0.5745  0.5037
11410SOL    HW139550  11.219   9.736   6.879 -2.3282  0.9825 -1.3297
11410SOL    HW239551  11.156   9.605   6.834 -0.4606 -1.0479  1.5999
11411SOL     OW39552  10.696   0.568  11.596 -0.3160 -0.1858 -0.6679
11411SOL    HW139553  10.613   0.549  11.640  0.6497 -0.2996  1.2185
11411SOL    HW239554  10.706   0.663  11.605 -0.5339 -0.0791 -1.4783
11412SOL     OW39555   0.908   4.837   6.585  0.2131 -0.1351 -0.0225
11412SOL    HW139556   0.904   4.922   6.630 -0.2715  0.4060 -1.0480
11412SOL    HW239557   0.842   4.784   6.630  0.9133 -0.1647  0.9955
11413SOL     OW39558   4.334  10.575   1.498  0.2325  0.6484  0.2599
11413SOL    HW139559   4.417  10.591   1.543  0.3739  0.7092 -0.0205
11413SOL    HW239560   4.301  10.662   1.475  0.2757  0.6083  0.0423
11414SOL     OW39561   3.943   1.676   6.368  0.6041 -1.2718 -0.1328
11414SOL    HW139562   3.885   1.631   6.429 -0.0149 -2.5150 -1.5473
11414SOL    HW239563   3.886   1.735   6.319  1.2450  0.3852  1.0221
11415SOL     OW39564   9.967   4.028   2.968 -0.4844  0.5977  0.0769
11415SOL    HW139565   9.903   3.958   2.982 -1.3020  0.9405 -1.6663
11415SOL    HW239566  10.052   3.985   2.975 -0.9585 -0.3803 -0.0231
11416SOL     OW39567   3.368   8.654   3.699  0.1119 -0.0612  0.2356
11416SOL    HW139568   3.451   8.618   3.670 -0.5153 -2.3435  1.0459
11416SOL    HW239569   3.302   8.600   3.655 -0.8932 -0.1302  1.7549
11417SOL     OW39570   1.409   0.898   2.722 -0.6814  0.3182  0.9944
11417SOL    HW139571   1.384   0.901   2.815  1.7008  0.2551  1.7027
11417SOL    HW239572   1.381   0.811   2.693 -1.6386  0.4145  1.5558
11418SOL     OW39573  10.389   8.268   1.821  0.1100  0.1171 -0.9137
11418SOL    HW139574  10.435   8.344   1.785 -1.3882  1.0069 -1.0202
11418SOL    HW239575  10.382   8.286   1.915 -0.5965  0.3083 -0.9995
11419SOL     OW39576   3.771   5.646   1.170 -0.1269  0.1456 -0.0948
11419SOL    HW139577   3.702   5.711   1.174 -1.0863 -0.8351 -0.3227
11419SOL    HW239578   3.848   5.695   1.140 -0.2170  1.6279  1.8590
11420SOL     OW39579   7.580  11.229   4.346 -0.0488  0.0964  0.0627
11420SOL    HW139580   7.573  11.179   4.264  2.4233 -1.6801  0.8015
11420SOL    HW239581   7.611  11.315   4.317 -0.5950 -0.0356 -0.9822
11421SOL     OW39582   9.829   8.991   3.246  0.1532  0.0711  0.1807
11421SOL    HW139583   9.868   8.951   3.168  0.0299 -0.6869  0.4906
11421SOL    HW239584   9.743   9.021   3.217  0.2923  0.2109 -0.0912
11422SOL     OW39585   6.906  11.541   3.132  0.5050 -0.2172  0.3574
11422SOL    HW139586   6.817  11.546   3.169 -0.9619  0.8855 -2.9298
11422SOL    HW239587   6.911  11.453   3.094  0.9641 -0.4071  0.8557
11423SOL     OW39588  11.447  10.774   8.468  0.1535 -0.0912 -0.1218
11423SOL    HW139589  11.393  10.818   8.533 -0.4828  0.7389 -1.1907
11423SOL    HW239590  11.388  10.756   8.395  0.6679 -1.7021 -0.1955
11424SOL     OW39591   7.177   7.044   6.557 -0.2360  0.6554 -0.2662
11424SOL    HW139592   7.219   6.972   6.509 -0.0738  1.4945 -1.4162
11424SOL    HW239593   7.118   7.000   6.618  0.6033 -0.4791 -0.2448
11425SOL     OW39594  11.796   0.190   1.482 -0.8654 -0.7321  0.2729
11425SOL    HW139595  11.886   0.211   1.509 -0.4717  1.5908 -2.4019
11425SOL    HW239596  11.799   0.097   1.459  1.4019 -0.3232 -1.4478
11426SOL     OW39597   5.539   7.396  10.537  0.0758  0.0136  0.4221
11426SOL    HW139598   5.449   7.379  10.565 -0.4308  0.0005 -1.1549
11426SOL    HW239599   5.570   7.311  10.506  0.5358  0.0853  0.6805
11427SOL     OW39600   1.072  11.662  11.777 -0.5089 -0.1990  0.4837
11427SOL    HW139601   1.054  11.666  11.683 -1.2315 -1.0872  0.5730
11427SOL    HW239602   0.995  11.700  11.818 -0.8250 -1.1189  0.7623
11428SOL     OW39603   2.754   4.989   1.615  0.2148  0.0167  0.2323
11428SOL    HW139604   2.833   5.036   1.587 -1.1008  1.9536 -0.5162
11428SOL    HW239605   2.748   5.006   1.709 -0.1649  1.3736  0.0009
11429SOL     OW39606   7.227   8.759   4.608  0.2651 -0.1045  0.0331
11429SOL    HW139607   7.180   8.738   4.527 -1.7003  1.9713  0.5506
11429SOL    HW239608   7.241   8.854   4.604  1.7337 -0.2258  1.3374
11430SOL     OW39609   0.991  10.959   8.957 -0.0351  0.2966  0.0947
11430SOL    HW139610   1.034  10.944   8.873  0.5131  0.7805  0.2766
11430SOL    HW239611   1.020  11.047   8.982 -1.5663  0.8537 -0.0266
11431SOL     OW39612   4.722   7.288   6.738  0.3570  0.1526 -0.1747
11431SOL    HW139613   4.721   7.338   6.656 -2.7052  0.9628  0.2302
11431SOL    HW239614   4.769   7.344   6.800  0.7605  0.5373 -0.8127
11432SOL     OW39615   1.752   2.083   8.146 -0.1215 -0.2510  0.2509
11432SOL    HW139616   1.818   2.109   8.082  1.2369 -1.9534  0.8725
11432SOL    HW239617   1.787   2.113   8.230  0.0280 -1.4057  0.6151
11433SOL     OW39618   2.720   8.482   8.341  0.2535 -0.5349  0.3962
11433SOL    HW139619   2.789   8.494   8.276 -1.1317  1.4450 -0.8196
11433SOL    HW239620   2.707   8.387   8.345  1.4970 -0.8059 -0.9827
11434SOL     OW39621   2.102   7.560  10.003 -0.1220  0.1975 -0.5406
11434SOL    HW139622   2.177   7.614   9.976 -0.6080  0.3414 -1.6677
11434SOL    HW239623   2.132   7.470   9.990  0.8819  0.0940  1.8454
11435SOL     OW39624   3.513   5.254   7.871 -0.3780  0.0033 -0.5920
11435SOL    HW139625   3.470   5.337   7.851 -0.5001  0.2876  0.7429
11435SOL    HW239626   3.443   5.189   7.869 -0.3104 -0.0479 -1.4792
11436SOL     OW39627   2.249   3.093   8.270  0.4489 -0.7703  0.3559
11436SOL    HW139628   2.286   3.078   8.183  1.4902  0.9672  0.4345
11436SOL    HW239629   2.232   3.187   8.273 -0.5676 -0.9633  1.6676
11437SOL     OW39630   5.383   0.422   7.047  0.2088 -0.2423 -0.2211
11437SOL    HW139631   5.364   0.330   7.066  1.5620 -0.8461 -1.6311
11437SOL    HW239632   5.335   0.470   7.115 -4.5951 -1.6442 -2.1993
11438SOL     OW39633   7.911  10.602   1.530  0.0104 -0.2556 -0.0302
11438SOL    HW139634   7.848  10.666   1.496 -0.9457  1.0292  3.7076
11438SOL    HW239635   7.993  10.651   1.540 -0.7775  0.6591  3.0354
11439SOL     OW39636   8.146   3.301   8.406 -0.0266 -0.0626 -0.1642
11439SOL    HW139637   8.216   3.357   8.438  0.1897  0.5537 -1.6209
11439SOL    HW239638   8.161   3.295   8.311 -1.8295 -0.0331 -0.4978
11440SOL     OW39639   3.914   6.940   4.907  0.1428 -0.3731 -0.1122
11440SOL    HW139640   3.829   6.964   4.945 -0.5062 -0.1718 -1.6421
11440SOL    HW239641   3.904   6.847   4.885  0.1242 -0.2153 -0.7794
11441SOL     OW39642   7.411   2.415   3.243 -0.0378 -0.0443  0.0041
11441SOL    HW139643   7.331   2.384   3.201  0.7583 -2.1969 -0.0069
11441SOL    HW239644   7.481   2.367   3.200  0.8991 -1.6387  3.0567
11442SOL     OW39645   6.775   7.915  10.931 -0.1999 -0.3576  0.2679
11442SOL    HW139646   6.854   7.922  10.985  0.3107 -0.5144 -0.4428
11442SOL    HW239647   6.768   7.822  10.911 -1.7300 -0.6657  2.0088
11443SOL     OW39648   4.759   3.986   5.077 -0.2465 -0.0526  0.1297
11443SOL    HW139649   4.724   3.910   5.124 -1.6276  0.5660  0.1263
11443SOL    HW239650   4.845   4.000   5.116 -0.3565 -1.0362  0.7792
11444SOL     OW39651   7.364   9.424   6.646  0.0316  0.2189  0.4802
11444SOL    HW139652   7.317   9.446   6.727  0.8468  0.6651  0.8444
11444SOL    HW239653   7.296   9.426   6.578 -0.5152  0.6449  1.0227
11445SOL     OW39654   6.963  10.642  10.718  0.3180  0.6637  0.2736
11445SOL    HW139655   6.877  10.637  10.760 -0.5876 -0.1496 -1.5322
11445SOL    HW239656   7.015  10.699  10.775 -1.6067  1.7029  1.0844
11446SOL     OW39657   4.678   5.737   4.231  0.2913 -0.6807 -0.0497
11446SOL    HW139658   4.716   5.649   4.221 -0.3072 -0.7771 -1.9557
11446SOL    HW239659   4.584   5.723   4.228  0.1198 -0.1563  1.8607
11447SOL     OW39660   1.221   9.017  10.368  0.1487  0.3495  0.2125
11447SOL    HW139661   1.169   8.937  10.372 -0.3815  0.6871  0.1133
11447SOL    HW239662   1.298   8.998  10.422  0.7218 -0.7292 -0.9568
11448SOL     OW39663   0.425   4.065   3.194 -0.3074 -0.6459 -0.3563
11448SOL    HW139664   0.387   4.062   3.282  1.0186  0.0179  0.2589
11448SOL    HW239665   0.474   3.983   3.186  2.6121  0.8276  0.9937
11449SOL     OW39666   4.791   5.333   1.827  0.3878 -0.0723 -0.2545
11449SOL    HW139667   4.826   5.334   1.738 -0.6368  1.0449 -0.6779
11449SOL    HW239668   4.710   5.284   1.821  0.6061 -0.5039  0.2007
11450SOL     OW39669   6.326   9.312   9.326  0.3254 -0.3814  0.5033
11450SOL    HW139670   6.378   9.342   9.250  1.2974 -0.5268  1.0930
11450SOL    HW239671   6.283   9.232   9.295  2.1200 -1.4577  0.6109
11451SOL     OW39672   6.850   5.591   0.947  0.0956 -0.0029 -0.5618
11451SOL    HW139673   6.867   5.565   1.038 -0.0569 -0.2688 -0.6088
11451SOL    HW239674   6.922   5.651   0.926 -0.2902  0.6667 -0.0209
11452SOL     OW39675   2.653   1.501   2.467  0.4857 -0.5118  0.4556
11452SOL    HW139676   2.609   1.551   2.398  0.9051  0.0447  0.5756
11452SOL    HW239677   2.649   1.410   2.438  0.1700 -0.3466 -0.0287
11453SOL     OW39678   7.432   6.054   9.046  0.4589  0.1339 -0.0621
11453SOL    HW139679   7.402   6.114   8.978 -0.8239 -0.1038  0.2658
11453SOL    HW239680   7.354   6.005   9.072  0.9980 -0.0828  1.2743
11454SOL     OW39681   7.600   8.657   2.162 -0.0081  0.1272 -0.3660
11454SOL    HW139682   7.607   8.651   2.066 -1.3463  0.7795 -0.5265
11454SOL    HW239683   7.522   8.606   2.183  0.1369  0.1989  0.3549
11455SOL     OW39684   1.801   1.365   8.392 -0.4137  0.0132  0.1712
11455SOL    HW139685   1.861   1.298   8.423 -0.1077  0.4806  0.5889
11455SOL    HW239686   1.776   1.414   8.470 -2.6109 -1.1547  0.2975
11456SOL     OW39687   0.116   9.240   3.317 -0.0106 -0.3754 -0.1351
11456SOL    HW139688   0.078   9.325   3.337 -0.6750 -0.9749  1.3203
11456SOL    HW239689   0.098   9.227   3.224 -1.2290  0.4231 -0.0289
11457SOL     OW39690   3.256   0.417  10.242 -0.4371 -0.3004  0.2574
11457SOL    HW139691   3.253   0.379  10.330  0.6068  0.0254  0.4532
11457SOL    HW239692   3.349   0.416  10.219 -0.5406  0.8839 -0.2815
11458SOL     OW39693   1.106   2.959   6.770 -0.4566 -0.2555 -0.0287
11458SOL    HW139694   1.191   3.004   6.772 -0.7215  0.2155  1.2298
11458SOL    HW239695   1.128   2.867   6.761  0.1406 -0.0231 -1.1347
11459SOL     OW39696   1.894   4.659  11.701 -0.0196 -0.2908 -0.3192
11459SOL    HW139697   1.955   4.706  11.645  2.4693 -1.1416  1.4732
11459SOL    HW239698   1.852   4.728  11.754  1.3113  0.1515  0.1841
11460SOL     OW39699   1.196  11.155   6.835 -0.0071  0.7884  0.1874
11460SOL    HW139700   1.215  11.239   6.794 -0.4077 -0.0374 -1.8089
11460SOL    HW239701   1.106  11.135   6.810 -1.6837  1.8296  4.4907
11461SOL     OW39702   6.973   8.037   5.770  0.0663  0.1342 -0.5783
11461SOL    HW139703   6.976   8.009   5.861 -1.4311  0.3850 -0.4266
11461SOL    HW239704   7.048   8.095   5.760  0.9951 -0.8977  0.1319
11462SOL     OW39705   1.635   2.308   1.290  0.2466 -0.1762 -0.7573
11462SOL    HW139706   1.686   2.236   1.328 -0.6652  0.9125  2.9679
11462SOL    HW239707   1.544   2.286   1.309 -0.1884  0.9819 -1.3708
11463SOL     OW39708  11.077   0.210   8.976 -0.4095  0.2411  0.3495
11463SOL    HW139709  11.112   0.121   8.964 -1.1973 -0.0174 -0.0670
11463SOL    HW239710  11.155   0.264   8.987  0.1997 -0.2082 -1.3815
11464SOL     OW39711   7.295  10.046  10.800 -0.9132 -0.9944 -0.2756
11464SOL    HW139712   7.213  10.040  10.751 -1.4085  0.9235  0.2413
11464SOL    HW239713   7.273  10.096  10.879  0.6900 -0.6420 -0.0048
11465SOL     OW39714   5.657   2.439   3.590 -0.3626 -0.3758  0.1277
11465SOL    HW139715   5.664   2.498   3.515 -1.3550 -2.1368 -1.4589
11465SOL    HW239716   5.719   2.369   3.571 -1.2970 -1.3225  0.4265
11466SOL     OW39717   0.708   1.232   1.098  0.2662  0.2182 -0.3416
11466SOL    HW139718   0.701   1.317   1.142  0.9351 -0.0724  0.3425
11466SOL    HW239719   0.795   1.233   1.058  0.8345 -0.6590  0.8055
11467SOL     OW39720   8.173   1.569   3.691  0.4599  0.6546 -0.2370
11467SOL    HW139721   8.223   1.635   3.740  1.4743 -1.3074  1.5476
11467SOL    HW239722   8.084   1.603   3.690  0.8406  1.8125  1.1033
11468SOL     OW39723   1.959   5.240   9.367 -0.0612  0.4980 -0.1742
11468SOL    HW139724   2.006   5.322   9.353  2.0582 -0.5636  0.3784
11468SOL    HW239725   2.019   5.172   9.338 -1.2760 -0.9493  0.5490
11469SOL     OW39726   5.692   8.103   8.612  0.0093 -0.4794 -0.1455
11469SOL    HW139727   5.713   8.115   8.520  0.5703  1.7225  0.2285
11469SOL    HW239728   5.607   8.058   8.611 -1.0180  1.3647 -1.7607
11470SOL     OW39729   9.859   9.705   2.070 -0.8958  0.1636  0.1603
11470SOL    HW139730   9.772   9.705   2.030 -0.5276  0.6853 -0.6662
11470SOL    HW239731   9.856   9.633   2.134 -1.9298  0.1892  0.1545
11471SOL     OW39732   2.917   9.200  11.826  0.7763  0.3952 -0.0581
11471SOL    HW139733   2.996   9.150  11.847  0.7043  0.5495  0.6006
11471SOL    HW239734   2.908   9.262  11.898  0.1924  0.5460 -0.2558
11472SOL     OW39735   0.662  11.122   3.647  0.0325  0.3310 -0.0002
11472SOL    HW139736   0.579  11.150   3.686  1.2063  2.4067  1.1559
11472SOL    HW239737   0.719  11.106   3.722  0.3957 -2.2822 -0.7323
11473SOL     OW39738   1.325   5.185   0.800 -0.0622 -0.1545 -0.6329
11473SOL    HW139739   1.369   5.234   0.730  0.6267  0.7829  0.4147
11473SOL    HW239740   1.237   5.222   0.804  0.0752  0.1775 -0.6429
11474SOL     OW39741   8.002   5.475   7.395  0.3398 -1.2155 -0.5869
11474SOL    HW139742   8.037   5.558   7.362  0.7593 -0.6422  1.1850
11474SOL    HW239743   8.079   5.422   7.416  0.0796 -2.2982 -2.1701
11475SOL     OW39744  10.997   3.575   1.991 -0.1205  0.0017  0.0761
11475SOL    HW139745  11.014   3.524   2.070 -0.5520 -1.9912 -1.0446
11475SOL    HW239746  11.081   3.575   1.944 -0.0914  0.4572  0.1166
11476SOL     OW39747   7.135   2.159   6.949 -0.2494 -0.5977 -0.1254
11476SOL    HW139748   7.081   2.218   6.896  0.6283 -0.6374 -1.1045
11476SOL    HW239749   7.112   2.072   6.918  0.5925 -0.5982 -0.7899
11477SOL     OW39750  10.364   9.693   7.046 -0.3617 -0.6146  0.0632
11477SOL    HW139751  10.412   9.668   7.125 -0.6470 -1.1564  0.0726
11477SOL    HW239752  10.431   9.701   6.978  0.0902  1.3063  0.6634
11478SOL     OW39753   4.312  10.963   9.966  0.8062  0.6229  0.2165
11478SOL    HW139754   4.396  10.925   9.993  0.7888  0.1884 -0.3269
11478SOL    HW239755   4.309  10.949   9.872 -0.8717 -1.3655  0.5274
11479SOL     OW39756  10.420   4.623   4.763 -0.0282  0.6280  0.2510
11479SOL    HW139757  10.361   4.563   4.718 -0.0316  2.0163 -1.7778
11479SOL    HW239758  10.506   4.582   4.757 -0.3037  0.0264  0.4258
11480SOL     OW39759  11.055   9.684   0.835  1.1514  0.0732 -0.5755
11480SOL    HW139760  11.042   9.617   0.903 -0.2753  0.9980  0.1070
11480SOL    HW239761  10.977   9.678   0.781  0.2524  2.1789  0.3975
11481SOL     OW39762   3.730   4.293   0.978 -0.0573  0.0212 -0.1950
11481SOL    HW139763   3.645   4.256   0.999  0.0916 -0.3571 -0.2490
11481SOL    HW239764   3.779   4.289   1.060  0.0599 -0.1778 -0.2749
11482SOL     OW39765   8.833   7.406   0.159  0.3743 -0.5504 -0.5745
11482SOL    HW139766   8.891   7.358   0.218  1.6837  0.8803 -0.6416
11482SOL    HW239767   8.891   7.440   0.091 -0.1489  2.6150  0.4259
11483SOL     OW39768   6.856  11.429   2.063  0.4504  0.5004  0.2634
11483SOL    HW139769   6.846  11.392   1.976  1.7929  1.4328 -0.3081
11483SOL    HW239770   6.773  11.474   2.079 -0.6486 -1.4298  0.3856
11484SOL     OW39771   2.805   1.737   1.262  0.2902 -0.5968  0.0808
11484SOL    HW139772   2.716   1.760   1.289 -0.0020  0.4438 -1.6661
11484SOL    HW239773   2.794   1.658   1.209  0.3217 -0.0809 -0.6981
11485SOL     OW39774   4.851   7.333   4.071  0.6101  0.3916 -0.0648
11485SOL    HW139775   4.943   7.351   4.094  0.4303  1.4960 -0.1637
11485SOL    HW239776   4.856   7.287   3.988  1.1029 -0.3028  0.3309
11486SOL     OW39777  10.627   3.900   9.877 -0.0185 -0.2248 -0.1822
11486SOL    HW139778  10.552   3.935   9.830  1.4995  1.7642 -1.3082
11486SOL    HW239779  10.697   3.898   9.812  1.8006  1.3274  1.5783
11487SOL     OW39780   7.229   4.103   2.308 -0.0028 -0.0839 -0.3029
11487SOL    HW139781   7.196   4.189   2.334  0.1646 -0.0912 -0.0641
11487SOL    HW239782   7.299   4.121   2.245  0.3391 -0.0276  0.0877
11488SOL     OW39783   0.971   3.459   3.167  0.6845 -0.2931  0.2658
11488SOL    HW139784   0.907   3.465   3.237 -2.2673 -1.1174 -2.1437
11488SOL    HW239785   1.036   3.396   3.199  0.0641  0.1834  2.6216
11489SOL     OW39786   7.166   3.863   8.036 -0.3107 -0.5482  0.1534
11489SOL    HW139787   7.134   3.953   8.037 -2.3444 -1.2322  0.8267
11489SOL    HW239788   7.217   3.856   7.955 -1.3497  0.8070 -0.6524
11490SOL     OW39789  11.633   3.007   8.338  0.7055  0.3342 -0.1751
11490SOL    HW139790  11.635   3.026   8.244  0.1684 -0.8016 -0.4338
11490SOL    HW239791  11.681   3.080   8.378  0.3182  1.2179 -1.2603
11491SOL     OW39792   9.248   3.363  11.067 -0.0557 -0.0711  0.0456
11491SOL    HW139793   9.315   3.340  11.131 -0.2410 -3.3743 -0.7571
11491SOL    HW239794   9.165   3.334  11.106 -0.2210 -1.7375 -1.4125
11492SOL     OW39795   7.668   8.500   5.624  1.0859 -0.4633 -0.1793
11492SOL    HW139796   7.607   8.558   5.669  1.0581 -0.4971 -0.1726
11492SOL    HW239797   7.716   8.557   5.564  1.8610 -0.2258  0.6511
11493SOL     OW39798   2.932   9.974   4.942 -0.2351 -0.4024 -0.3429
11493SOL    HW139799   3.003   9.919   4.975  0.7083  0.2603 -1.2157
11493SOL    HW239800   2.855   9.917   4.944  0.8047 -1.9781 -1.7283
11494SOL     OW39801   6.315   3.344   0.051  0.3579  0.7160 -0.1783
11494SOL    HW139802   6.388   3.306   0.001 -0.3105  0.6263 -1.1059
11494SOL    HW239803   6.306   3.432   0.014 -1.9649 -0.2929 -2.2427
11495SOL     OW39804   5.899   1.117   8.474  0.5585 -0.1307 -0.2570
11495SOL    HW139805   5.882   1.074   8.390 -0.6705  2.0000 -1.1888
11495SOL    HW239806   5.848   1.067   8.538 -0.8256 -0.0944 -1.2949
11496SOL     OW39807  11.470   3.256  11.659 -0.4476 -0.4269  0.4515
11496SOL    HW139808  11.472   3.196  11.733  1.1380 -2.8180 -1.3749
11496SOL    HW239809  11.561   3.257  11.627 -1.1019  0.4175 -1.5136
11497SOL     OW39810   0.730  10.562   7.381 -0.7937  0.4066 -0.0453
11497SOL    HW139811   0.781  10.484   7.358 -1.6314 -0.4190  0.8419
11497SOL    HW239812   0.709  10.602   7.296 -1.2440 -0.9127 -0.5766
11498SOL     OW39813   6.466  11.825   5.526  0.1040 -0.2369  0.3727
11498SOL    HW139814   6.551  11.801   5.489 -0.7099 -0.6590 -1.2910
11498SOL    HW239815   6.437  11.899   5.474 -0.8109 -0.4703  0.5372
11499SOL     OW39816  11.655   3.619   6.013  0.0339 -0.3588 -0.0800
11499SOL    HW139817  11.647   3.547   6.075 -0.9578  0.2678  0.5560
11499SOL    HW239818  11.628   3.581   5.929  1.1341 -1.1418 -0.0987
11500SOL     OW39819   7.005  11.624   2.237 -0.5065  0.1653  0.2767
11500SOL    HW139820   7.045  11.579   2.312  1.5198  0.5035 -0.5501
11500SOL    HW239821   6.941  11.561   2.203  0.0508 -0.8291  1.0280
11501SOL     OW39822   4.752   9.699   3.045 -0.0745 -0.0421 -0.2609
11501SOL    HW139823   4.737   9.727   2.955 -0.6138 -1.1425 -0.5349
11501SOL    HW239824   4.842   9.666   3.045 -0.2610 -0.5727 -0.5592
11502SOL     OW39825   4.550   2.589   2.217 -0.1658  0.2960  0.8321
11502SOL    HW139826   4.505   2.562   2.137 -0.0605 -1.0113  1.1860
11502SOL    HW239827   4.631   2.630   2.186  0.3302 -1.0436  0.2627
11503SOL     OW39828   9.352  10.793   1.335  0.2445  0.3345 -0.1919
11503SOL    HW139829   9.357  10.698   1.348  0.6143  0.3972  0.1337
11503SOL    HW239830   9.435  10.816   1.293  1.7831  1.0097  2.9247
11504SOL     OW39831  10.055   1.852   0.923 -0.2591  0.3771 -0.0508
11504SOL    HW139832  10.008   1.908   0.985  0.4434  0.6416  0.2506
11504SOL    HW239833  10.095   1.913   0.861 -0.9223  0.1184 -0.7613
11505SOL     OW39834   3.641  11.387   6.702 -0.2685 -0.2033 -0.0763
11505SOL    HW139835   3.579  11.413   6.635 -1.7369 -2.0701  0.4690
11505SOL    HW239836   3.709  11.454   6.699 -1.4818  1.0406 -1.7866
11506SOL     OW39837   5.877  11.444   1.840 -0.1420 -0.0066  0.2836
11506SOL    HW139838   5.822  11.501   1.894  0.6567  0.5031  0.5689
11506SOL    HW239839   5.879  11.486   1.754  0.3645  0.3421  0.4658
11507SOL     OW39840   9.919  10.002   8.773 -0.4417 -0.0184  0.2948
11507SOL    HW139841   9.903  10.074   8.834 -1.7218  1.1046 -1.2555
11507SOL    HW239842   9.868   9.929   8.807  0.1737  0.0541  1.4191
11508SOL     OW39843   5.902   8.533  11.575 -0.3291 -0.2335  0.2161
11508SOL    HW139844   5.806   8.540  11.569 -0.2460  0.6538 -0.2042
11508SOL    HW239845   5.925   8.465  11.512 -0.8623 -2.0033  1.8601
11509SOL     OW39846   4.138   4.889   7.346  0.0595  0.3746  0.0264
11509SOL    HW139847   4.189   4.833   7.404  0.0665  1.5463  1.1996
11509SOL    HW239848   4.047   4.880   7.376 -0.0588  0.3581 -0.3206
11510SOL     OW39849   2.853   1.359   2.077  0.2899 -0.4368  0.2147
11510SOL    HW139850   2.876   1.442   2.119 -0.5462 -0.0863 -0.0125
11510SOL    HW239851   2.796   1.316   2.141 -2.1970  0.7293 -1.0794
11511SOL     OW39852   1.446  10.306   7.091  0.2219 -0.1764 -0.2473
11511SOL    HW139853   1.464  10.400   7.097  0.4801 -0.2075 -0.5070
11511SOL    HW239854   1.393  10.297   7.011 -1.5622  0.0020  0.8563
11512SOL     OW39855   4.923   0.174   0.974 -0.1893 -0.5064 -0.0674
11512SOL    HW139856   5.002   0.169   0.919  0.1892 -0.7749  0.4890
11512SOL    HW239857   4.881   0.256   0.947 -0.9957 -1.5197 -2.0550
11513SOL     OW39858   9.877  10.514   1.183  0.1571 -0.1326 -0.3569
11513SOL    HW139859   9.872  10.603   1.219  2.6407  0.2421 -0.7828
11513SOL    HW239860   9.809  10.512   1.116  0.8237  1.8945 -1.1803
11514SOL     OW39861   7.555   0.070  11.619 -0.5457  0.2321 -0.6568
11514SOL    HW139862   7.600   0.098  11.539  1.5492 -0.2988  0.2745
11514SOL    HW239863   7.543   0.150  11.670  1.5352  0.1147  0.1048
11515SOL     OW39864   3.238   6.990   7.555 -0.2247  0.0193  0.2968
11515SOL    HW139865   3.170   7.026   7.612 -0.9673 -0.7594 -0.0795
11515SOL    HW239866   3.225   6.896   7.559  0.2354 -0.0870 -0.5192
11516SOL     OW39867  11.294   2.153   2.612 -0.6079 -0.5376 -0.3995
11516SOL    HW139868  11.267   2.199   2.533  0.9405  1.2530  0.0387
11516SOL    HW239869  11.246   2.196   2.683 -2.6216 -2.6578 -0.3272
11517SOL     OW39870  10.261   5.875   3.438  0.7168 -0.6340  0.0920
11517SOL    HW139871  10.230   5.909   3.355 -0.0320 -0.3317  0.4826
11517SOL    HW239872  10.357   5.878   3.432  0.6774  1.0141 -0.1045
11518SOL     OW39873   2.539   2.420   5.653  0.3336  0.4408  0.5020
11518SOL    HW139874   2.499   2.487   5.709  0.8373 -0.1367  1.5873
11518SOL    HW239875   2.632   2.442   5.654  0.4992 -0.2535  0.8485
11519SOL     OW39876   7.599  11.022   7.166 -0.7299  0.2873 -0.5801
11519SOL    HW139877   7.654  10.955   7.207 -1.4502 -0.2603 -0.4832
11519SOL    HW239878   7.526  10.973   7.129 -1.4066  1.0519 -0.2886
11520SOL     OW39879   6.693   5.430   3.019  0.1319  0.3869 -0.2457
11520SOL    HW139880   6.607   5.415   2.980 -0.3805  0.6169  0.7664
11520SOL    HW239881   6.726   5.342   3.039 -0.0358  0.3132 -0.2938
11521SOL     OW39882   1.279  10.071   5.245  0.1915 -0.3131  0.1282
11521SOL    HW139883   1.350  10.088   5.308  0.7631 -0.2180 -0.5381
11521SOL    HW239884   1.256  10.158   5.213  0.1982 -0.4014 -0.1152
11522SOL     OW39885  10.024   3.437   1.874  0.5028  0.1879  0.0891
11522SOL    HW139886   9.993   3.528   1.876  3.1712  1.2158 -0.2157
11522SOL    HW239887  10.029   3.415   1.781 -0.2812 -0.3635  0.1650
11523SOL     OW39888   3.483   8.662   0.358 -0.1940 -1.1498 -0.5607
11523SOL    HW139889   3.487   8.634   0.267 -1.2844 -0.5067 -0.8257
11523SOL    HW239890   3.406   8.719   0.363  0.8169  0.1985  0.3963
11524SOL     OW39891   0.826   4.094   0.742  0.0798 -0.2161  0.5011
11524SOL    HW139892   0.913   4.102   0.780 -0.4741 -1.2925  2.0974
11524SOL    HW239893   0.838   4.117   0.650  1.9899 -0.0927  0.7405
11525SOL     OW39894   5.573   8.751   1.137 -0.4969 -0.3542  0.0974
11525SOL    HW139895   5.634   8.807   1.185  0.4821 -0.1896 -1.2754
11525SOL    HW239896   5.618   8.666   1.130 -1.1278 -0.7316  0.4525
11526SOL     OW39897   5.743   2.405   7.599 -0.4282  0.0738 -0.2279
11526SOL    HW139898   5.805   2.371   7.535 -0.7427  1.6049 -1.4175
11526SOL    HW239899   5.794   2.413   7.680  0.2428 -0.9851 -0.5327
11527SOL     OW39900   2.334   2.606   1.540 -0.6690 -0.7321  0.0717
11527SOL    HW139901   2.371   2.529   1.584 -0.2609 -0.3601  0.3880
11527SOL    HW239902   2.282   2.649   1.607 -1.9488 -1.4109 -0.4505
11528SOL     OW39903   5.617   2.326  11.254 -0.0628 -0.3729 -0.4637
11528SOL    HW139904   5.685   2.292  11.196  1.5689 -0.2817  1.2870
11528SOL    HW239905   5.652   2.312  11.342 -2.1926 -0.0081  0.5031
11529SOL     OW39906   7.177   0.852  10.893 -0.0427  0.2989 -0.3434
11529SOL    HW139907   7.101   0.800  10.870 -1.3676  1.8539  0.2838
11529SOL    HW239908   7.192   0.834  10.986 -2.1057  2.7813  0.6027
11530SOL     OW39909   1.842  10.053   7.125 -0.6850 -0.3390 -0.0621
11530SOL    HW139910   1.805  10.130   7.168 -1.2881 -0.6449 -0.0218
11530SOL    HW239911   1.902  10.089   7.060  0.8109  0.1292  1.5077
11531SOL     OW39912   2.940   7.004  11.452  0.2274  0.3322  0.0421
11531SOL    HW139913   2.853   7.012  11.492  0.5066  1.0928  0.5364
11531SOL    HW239914   2.977   7.092  11.459  1.0914 -0.0176 -0.0411
11532SOL     OW39915   6.675   9.555   5.024 -0.1863 -0.5440  0.9813
11532SOL    HW139916   6.734   9.623   5.056 -1.9257  1.2240  0.5933
11532SOL    HW239917   6.620   9.598   4.959 -1.7549 -2.1475  1.1451
11533SOL     OW39918  10.177  11.018   6.815 -0.3853 -0.1958 -0.3490
11533SOL    HW139919  10.252  11.078   6.818 -0.7483  0.2239  0.6182
11533SOL    HW239920  10.112  11.063   6.761 -0.0841 -0.4109 -0.9045
11534SOL     OW39921   4.262   7.695   7.880  0.3565  0.4500 -0.0974
11534SOL    HW139922   4.236   7.720   7.791 -0.1494  1.7940  0.4030
11534SOL    HW239923   4.245   7.601   7.884  1.4911  0.1286 -1.7875
11535SOL     OW39924   0.202   0.854   0.167  0.4140  0.1065 -0.3352
11535SOL    HW139925   0.229   0.942   0.140  0.2996 -0.5622 -2.8032
11535SOL    HW239926   0.129   0.869   0.226  1.2819  1.6904  0.4159
11536SOL     OW39927   6.802   6.215  11.686 -0.1137  0.2000  0.1166
11536SOL    HW139928   6.810   6.301  11.644  1.2628 -1.3481 -3.0931
11536SOL    HW239929   6.884   6.204  11.734  1.1210 -0.4571 -2.0049
11537SOL     OW39930   7.024   5.117   1.415  0.0926  0.0157  0.1212
11537SOL    HW139931   6.956   5.063   1.456 -0.6023 -1.1558 -2.3828
11537SOL    HW239932   7.106   5.073   1.437 -0.3573 -1.2612 -0.6330
11538SOL     OW39933   1.610   4.102   9.293  0.2591 -0.3600 -0.5640
11538SOL    HW139934   1.581   4.164   9.226 -0.1381  1.0390  0.8266
11538SOL    HW239935   1.686   4.058   9.255 -0.0429  0.2727 -1.9635
11539SOL     OW39936   9.143   5.450   0.375  0.1490  0.2821  0.0027
11539SOL    HW139937   9.179   5.369   0.338  1.0826  0.7075 -0.0476
11539SOL    HW239938   9.100   5.422   0.456  2.1361 -0.0419  1.0211
11540SOL     OW39939   6.737  10.178   8.680 -0.1396 -0.2286  0.0842
11540SOL    HW139940   6.681  10.110   8.717 -0.3395 -0.6016 -0.8596
11540SOL    HW239941   6.688  10.209   8.603  1.1472 -0.9039 -1.0488
11541SOL     OW39942  10.012  10.690   7.199  0.4358 -0.4308 -0.4618
11541SOL    HW139943  10.053  10.763   7.245 -0.2336 -1.1119  1.2841
11541SOL    HW239944   9.947  10.731   7.142  0.5844  0.3780 -0.0619
11542SOL     OW39945   1.515  10.005   4.378 -0.1665  0.0869 -0.3079
11542SOL    HW139946   1.453   9.946   4.335  0.9051 -1.0178 -0.4020
11542SOL    HW239947   1.601   9.974   4.350  0.4500  1.4203  0.0171
11543SOL     OW39948  10.912   7.457   2.821  0.5676 -0.0204 -0.2924
11543SOL    HW139949  10.985   7.419   2.870  0.3247 -2.7126 -1.7585
11543SOL    HW239950  10.834   7.436   2.873  0.5313 -0.6988 -0.6024
11544SOL     OW39951   3.828  10.283   2.679 -0.1417 -0.0963  0.0684
11544SOL    HW139952   3.883  10.209   2.705 -0.0067  0.3479  1.0870
11544SOL    HW239953   3.739  10.248   2.680 -0.1189 -0.1612  0.9267
11545SOL     OW39954   8.997  10.395   8.800 -0.1037  0.0645 -0.0691
11545SOL    HW139955   9.012  10.486   8.825  1.0157 -0.0392 -0.3358
11545SOL    HW239956   9.074  10.371   8.749 -0.1549 -1.1888  0.4198
11546SOL     OW39957   8.435   4.945  10.345 -0.0136  0.0807 -0.3174
11546SOL    HW139958   8.514   4.911  10.387  0.1230  0.7197 -0.0464
11546SOL    HW239959   8.363   4.899  10.389  0.2045 -0.6449 -0.6978
11547SOL     OW39960   9.142   7.191   6.125 -0.2515  0.7117  0.4364
11547SOL    HW139961   9.093   7.123   6.078 -0.4994  1.5647 -0.5829
11547SOL    HW239962   9.218   7.145   6.161 -0.7659 -0.2382  0.3505
11548SOL     OW39963  10.345   8.926  10.533 -0.3849 -0.5450 -0.5423
11548SOL    HW139964  10.317   8.849  10.582  0.9063 -0.8411 -0.2223
11548SOL    HW239965  10.361   8.894  10.445 -0.0460 -0.6025 -0.4607
11549SOL     OW39966   4.237  11.288   4.273  0.2122  0.0783 -0.3337
11549SOL    HW139967   4.290  11.276   4.352  0.9756 -0.6475 -0.9358
11549SOL    HW239968   4.255  11.210   4.221 -1.1618  0.0063 -0.7332
11550SOL     OW39969   1.573   0.905  10.135 -0.2098  0.3053 -0.6714
11550SOL    HW139970   1.594   0.996  10.155  0.7207 -0.5894  3.1669
11550SOL    HW239971   1.485   0.893  10.170 -0.3087 -0.3169 -1.1168
11551SOL     OW39972  11.168   9.619   7.442 -0.4436 -0.2917  0.1741
11551SOL    HW139973  11.106   9.639   7.372 -1.0320 -1.2063  0.4052
11551SOL    HW239974  11.249   9.596   7.397 -0.3406  0.6621 -0.1419
11552SOL     OW39975   4.778   7.518   8.138  0.6561 -0.1115 -0.2996
11552SOL    HW139976   4.696   7.559   8.110  0.5900  1.0314  1.3910
11552SOL    HW239977   4.770   7.426   8.111 -2.3836 -0.7071  2.0390
11553SOL     OW39978  10.202   2.317   9.808  0.0636 -1.1286 -0.4555
11553SOL    HW139979  10.188   2.355   9.721 -1.2613 -0.1262  0.1525
11553SOL    HW239980  10.192   2.391   9.868  0.7546 -1.8435  0.5658
11554SOL     OW39981   5.835   0.574   7.350 -0.0124 -0.0163 -0.2480
11554SOL    HW139982   5.886   0.525   7.285 -1.5443 -0.4854 -1.1568
11554SOL    HW239983   5.900   0.612   7.408  1.3217 -1.3435 -0.8169
11555SOL     OW39984   2.443   6.405  11.291 -0.0168  0.5391  0.0154
11555SOL    HW139985   2.375   6.364  11.345  1.1419 -1.9048 -0.2652
11555SOL    HW239986   2.492   6.460  11.352 -0.7854  0.4763  0.7085
11556SOL     OW39987   0.238   1.125   9.295  0.0429  0.3636 -0.0473
11556SOL    HW139988   0.297   1.073   9.350  0.4214  2.1204  1.2837
11556SOL    HW239989   0.201   1.061   9.233  1.7059 -1.1730  0.4437
11557SOL     OW39990   6.372   9.680   5.556 -0.1509 -0.0230 -0.0614
11557SOL    HW139991   6.403   9.663   5.645 -1.5548  1.9180  0.8674
11557SOL    HW239992   6.450   9.706   5.508  0.3226  0.9116  1.1669
11558SOL     OW39993   9.156   7.647   2.651 -0.1133  0.1625  0.1500
11558SOL    HW139994   9.115   7.562   2.670 -2.5654  1.3669  0.6223
11558SOL    HW239995   9.102   7.685   2.582 -0.1647  2.0634  1.1662
11559SOL     OW39996   7.454   9.639  11.005 -0.5118 -0.0243  0.4128
11559SOL    HW139997   7.366   9.608  11.026 -0.4571 -0.5940 -0.1653
11559SOL    HW239998   7.512   9.575  11.047 -0.3892 -0.3399 -0.2320
11560SOL     OW39999  11.737   6.100   9.832 -0.0872  0.3843 -0.4081
11560SOL    HW140000  11.672   6.058   9.775 -1.4041 -0.2464  1.4873
11560SOL    HW240001  11.804   6.032   9.846 -0.1147  0.3098 -0.6247
11561SOL     OW40002   9.336   9.133   8.060  0.5574 -0.1390 -0.1180
11561SOL    HW140003   9.309   9.053   8.104  1.6373 -0.2295  0.4288
11561SOL    HW240004   9.354   9.105   7.970  0.0789 -0.3249 -0.1586
11562SOL     OW40005   2.169   8.258   8.931 -0.4129  0.0411 -0.2948
11562SOL    HW140006   2.096   8.216   8.885  0.4293  0.8505 -2.4878
11562SOL    HW240007   2.129   8.335   8.973 -1.1177 -0.4853  0.0364
11563SOL     OW40008   4.444  11.680   6.697 -0.0196  0.1812 -0.1987
11563SOL    HW140009   4.517  11.726   6.739  1.0948 -1.2923 -0.4126
11563SOL    HW240010   4.451  11.590   6.730 -0.3159 -0.5489 -2.0058
11564SOL     OW40011  10.618   3.289   1.832  0.1014 -0.5412 -0.0666
11564SOL    HW140012  10.527   3.270   1.810 -0.4869  2.5421 -0.8889
11564SOL    HW240013  10.613   3.338   1.915  0.8685  0.4385 -0.5714
11565SOL     OW40014   4.131   2.922   1.112 -0.2537  0.2434 -0.9613
11565SOL    HW140015   4.141   2.875   1.194 -1.2701 -0.3628 -1.1791
11565SOL    HW240016   4.170   2.864   1.046  1.2590  1.0563 -0.8371
11566SOL     OW40017   9.132   1.561   9.984 -0.6500 -0.6902 -0.0971
11566SOL    HW140018   9.069   1.518  10.042 -0.4180  0.3272  0.9233
11566SOL    HW240019   9.215   1.515  10.000 -0.2160  0.5824  1.5827
11567SOL     OW40020   6.670  10.016  10.597  0.1504 -0.1588  0.0021
11567SOL    HW140021   6.746   9.972  10.635 -1.1836 -1.4822  1.2436
11567SOL    HW240022   6.698  10.039  10.508  1.9287 -0.7509  0.3621
11568SOL     OW40023  11.816   5.649   4.965  0.4054 -0.2123 -0.8053
11568SOL    HW140024  11.843   5.632   5.056  0.6709 -1.7248 -1.1424
11568SOL    HW240025  11.887   5.701   4.928  0.5420 -0.0332 -0.3051
11569SOL     OW40026   1.020   1.777   7.357  0.5488  0.5352  0.0792
11569SOL    HW140027   1.103   1.734   7.339  0.8614  0.3620  1.7339
11569SOL    HW240028   0.954   1.709   7.345  0.3103  1.1875 -3.4107
11570SOL     OW40029   4.168   9.154   2.528 -0.0853  0.1988 -0.2496
11570SOL    HW140030   4.103   9.127   2.593  0.4414 -0.1791  0.1259
11570SOL    HW240031   4.199   9.073   2.489  0.1185  0.3835 -0.4770
11571SOL     OW40032   4.203   3.307  10.307 -0.2471  0.0342 -0.1300
11571SOL    HW140033   4.182   3.396  10.278 -1.8284 -0.7425 -1.5356
11571SOL    HW240034   4.246   3.267  10.231  0.2623 -0.4611  0.4146
11572SOL     OW40035   9.198   8.817   5.248 -0.7455 -0.1813  0.4536
11572SOL    HW140036   9.251   8.752   5.295 -0.7585  0.2235  1.0395
11572SOL    HW240037   9.242   8.900   5.265  0.8887 -0.2786 -2.5241
11573SOL     OW40038   7.302   3.037   7.378 -0.1303  0.0779 -0.5587
11573SOL    HW140039   7.299   3.046   7.473 -1.2931  1.5262 -0.6988
11573SOL    HW240040   7.310   3.126   7.345 -1.8597 -0.1665 -1.8514
11574SOL     OW40041   7.945   0.243   5.277 -0.1007 -0.3316  0.4562
11574SOL    HW140042   7.857   0.247   5.316 -1.2833  0.0002 -2.0790
11574SOL    HW240043   7.967   0.335   5.259  0.0665 -0.5390 -0.4017
11575SOL     OW40044   4.113  10.850   3.663  0.1279  0.7409 -0.2792
11575SOL    HW140045   4.098  10.772   3.609 -0.1143  0.0443  0.7528
11575SOL    HW240046   4.075  10.827   3.748  2.5390  0.8750  0.9214
11576SOL     OW40047   6.723   0.319   0.885  0.0622  0.0442  0.5342
11576SOL    HW140048   6.793   0.304   0.949  0.7716  0.6373 -0.0921
11576SOL    HW240049   6.743   0.405   0.848 -0.8079  0.0616  0.1019
11577SOL     OW40050   8.890   3.718   7.491 -0.7656  0.5570  0.8954
11577SOL    HW140051   8.972   3.737   7.446 -0.1550  0.9049  2.1037
11577SOL    HW240052   8.890   3.622   7.501 -0.7158  0.5173  0.5142
11578SOL     OW40053  11.149   0.651   4.461 -0.0955  0.6333 -0.3042
11578SOL    HW140054  11.126   0.581   4.401 -1.9362  0.5978  0.3697
11578SOL    HW240055  11.117   0.621   4.546  1.6566  1.0665  0.5548
11579SOL     OW40056   6.475   2.606   8.162  0.0758 -0.1061  0.3194
11579SOL    HW140057   6.460   2.696   8.131 -0.6923 -0.4146 -0.2250
11579SOL    HW240058   6.527   2.565   8.094  0.0562 -0.1996  0.3596
11580SOL     OW40059   6.460   6.933   0.875  0.9927  0.0915 -0.3493
11580SOL    HW140060   6.495   6.930   0.964 -0.6708  1.3427  0.4142
11580SOL    HW240061   6.390   6.868   0.875 -0.7189  1.8279  0.1315
11581SOL     OW40062   8.796   2.277   3.624 -0.2907  0.2771 -0.0815
11581SOL    HW140063   8.803   2.371   3.605 -0.3841  0.0189 -1.5612
11581SOL    HW240064   8.703   2.265   3.645 -0.6285  0.2979 -1.4279
11582SOL     OW40065   3.226   1.348   6.051  0.2516  0.3810 -0.0320
11582SOL    HW140066   3.253   1.303   6.131 -1.8596 -0.3680  0.3145
11582SOL    HW240067   3.181   1.280   6.000  0.9841  1.0143 -1.5816
11583SOL     OW40068   3.479   9.601   2.023 -0.2077 -0.6703  0.1856
11583SOL    HW140069   3.551   9.663   2.008 -0.8723 -0.4881 -2.8800
11583SOL    HW240070   3.419   9.649   2.080 -0.1842  1.1727 -1.2228
11584SOL     OW40071   3.419   6.989   7.899  0.0417  0.1726 -0.1809
11584SOL    HW140072   3.469   6.982   7.979 -0.4893 -2.0188  0.0114
11584SOL    HW240073   3.463   6.931   7.837 -0.3439  0.7844 -1.0634
11585SOL     OW40074  10.217  10.187   3.963  0.1867  0.2432 -0.4275
11585SOL    HW140075  10.265  10.248   4.020 -1.5766  1.0498  0.2894
11585SOL    HW240076  10.178  10.243   3.896 -1.0334 -0.1445 -0.0635
11586SOL     OW40077  10.367   7.977   9.548 -0.1019 -0.1743  0.2737
11586SOL    HW140078  10.346   8.070   9.550  0.1636  0.0280 -2.2718
11586SOL    HW240079  10.443   7.971   9.489  0.4005 -1.9319  1.0174
11587SOL     OW40080   3.719   2.718  11.365 -0.3368  0.0384  0.6752
11587SOL    HW140081   3.646   2.716  11.303 -0.0569  1.2749  0.2717
11587SOL    HW240082   3.740   2.810  11.374  1.7007 -0.3194  0.1416
11588SOL     OW40083  10.670   7.923   0.086  0.1270 -0.0378 -0.0947
11588SOL    HW140084  10.761   7.945   0.106 -0.1805  1.2619 -0.0280
11588SOL    HW240085  10.623   8.006   0.093 -1.0152 -0.6273 -0.4512
11589SOL     OW40086   6.659   5.403  11.516 -0.0515 -0.0003  0.4136
11589SOL    HW140087   6.705   5.486  11.504  1.3887 -0.7295  0.7137
11589SOL    HW240088   6.700   5.363  11.593 -0.4282 -1.1730  0.0357
11590SOL     OW40089   7.823   2.069   2.235 -0.7413  0.1512  0.0470
11590SOL    HW140090   7.810   2.096   2.144  0.5141 -1.1931 -0.5566
11590SOL    HW240091   7.908   2.105   2.259 -0.9315  0.2372  0.6026
11591SOL     OW40092   6.098   7.845   8.151 -0.5711  0.4772 -0.3142
11591SOL    HW140093   6.071   7.768   8.100 -0.8432  0.3822 -0.0268
11591SOL    HW240094   6.157   7.893   8.092 -1.0966  0.5125 -0.8208
11592SOL     OW40095  10.212   2.767   3.354  0.1930  0.6141  0.1496
11592SOL    HW140096  10.215   2.717   3.273 -0.9456  1.1807 -0.2691
11592SOL    HW240097  10.234   2.704   3.422  0.9427  0.0765 -0.5717
11593SOL     OW40098   6.526  11.549   4.682  0.2483  0.4220  0.0416
11593SOL    HW140099   6.591  11.479   4.687  0.5205  0.6733 -0.0001
11593SOL    HW240100   6.453  11.509   4.634 -1.4375 -1.2604  3.6028
11594SOL     OW40101   0.159   4.832   6.880  0.1684  0.3224 -0.3452
11594SOL    HW140102   0.096   4.884   6.930  0.3207 -0.8745  1.1779
11594SOL    HW240103   0.135   4.741   6.900  0.6675 -0.1920 -1.9523
11595SOL     OW40104   2.350   2.606   8.508 -0.0103  0.0948 -0.7553
11595SOL    HW140105   2.328   2.675   8.445  2.8597  0.6005 -1.3504
11595SOL    HW240106   2.429   2.638   8.551 -0.1898 -1.6120  0.9876
11596SOL     OW40107   5.639   9.555   9.147 -0.0691 -0.0508  0.4086
11596SOL    HW140108   5.612   9.551   9.055  2.6634  0.8050 -0.5354
11596SOL    HW240109   5.665   9.465   9.168 -0.1122 -0.1308  0.1272
11597SOL     OW40110   4.746   2.818   6.434 -0.0531 -0.3464  0.2836
11597SOL    HW140111   4.740   2.753   6.364  0.0338 -1.6124  1.4364
11597SOL    HW240112   4.656   2.836   6.459 -0.1257  0.6275 -0.5839
11598SOL     OW40113   5.340   1.982   5.543  0.4652 -0.4130  0.1590
11598SOL    HW140114   5.364   1.987   5.636  1.7964  2.5842 -0.2634
11598SOL    HW240115   5.302   1.894   5.534  0.0842 -0.7423  3.5581
11599SOL     OW40116   6.226   9.161   7.959 -0.3185 -0.1477  0.2989
11599SOL    HW140117   6.316   9.145   7.929  0.1016  2.3212  0.0238
11599SOL    HW240118   6.206   9.087   8.016  2.0385 -0.5739  0.6721
11600SOL     OW40119   4.510   4.032   8.289  0.4230  0.3582 -0.6179
11600SOL    HW140120   4.528   4.120   8.255  0.0037  0.4540 -0.5943
11600SOL    HW240121   4.541   4.035   8.380 -1.0820  0.9998 -0.0944
11601SOL     OW40122   4.210   1.710  11.254 -0.4512 -0.0244 -0.0715
11601SOL    HW140123   4.239   1.654  11.326 -0.1997  0.9053  0.5769
11601SOL    HW240124   4.239   1.666  11.175 -1.7120 -1.6490  0.3253
11602SOL     OW40125   8.406   3.803  11.644 -0.1829 -0.3950  0.2448
11602SOL    HW140126   8.321   3.847  11.650 -0.3213 -0.4770 -0.9670
11602SOL    HW240127   8.385   3.709  11.640  0.1279 -0.7136  3.3736
11603SOL     OW40128   4.332  10.296   3.312  0.0555 -0.6542 -0.2804
11603SOL    HW140129   4.268  10.278   3.243 -0.3950  0.0969 -0.0688
11603SOL    HW240130   4.322  10.390   3.329  1.5506 -0.4102 -0.5953
11604SOL     OW40131   7.924   0.123   0.555 -0.3539 -0.3443 -0.6724
11604SOL    HW140132   7.940   0.215   0.534 -1.9289 -0.0317 -0.5992
11604SOL    HW240133   7.885   0.124   0.642 -1.3580 -0.9821 -1.0965
11605SOL     OW40134   4.068  10.880   4.866 -0.2736 -0.6609 -0.8030
11605SOL    HW140135   3.991  10.936   4.880  0.0734 -0.3892  0.0997
11605SOL    HW240136   4.122  10.894   4.944  2.4380  1.9033 -2.9056
11606SOL     OW40137  10.976   9.898   9.490 -0.2570  0.4431  0.4390
11606SOL    HW140138  10.944   9.936   9.408  1.0682 -0.5926 -0.6016
11606SOL    HW240139  11.059   9.857   9.467  0.5140  0.7511  2.4713
11607SOL     OW40140   2.678  10.806   9.962 -0.2368 -0.0867 -0.5079
11607SOL    HW140141   2.722  10.766   9.887  0.8703  0.5179 -0.1986
11607SOL    HW240142   2.601  10.850   9.924 -0.0914 -0.4035 -1.1784
11608SOL     OW40143   8.123   3.386   0.827 -0.0901 -0.8410  0.3403
11608SOL    HW140144   8.071   3.312   0.796  0.4745 -0.7207 -0.9768
11608SOL    HW240145   8.191   3.398   0.760  0.0855  0.6089  0.7273
11609SOL     OW40146  10.078   1.477  11.351  0.1497  0.1258  0.5583
11609SOL    HW140147   9.996   1.523  11.368  0.0115 -0.2747  0.9878
11609SOL    HW240148  10.128   1.485  11.432  0.4058  0.0890  0.4077
11610SOL     OW40149   7.041   9.214   9.583 -0.4753 -0.2985 -0.1385
11610SOL    HW140150   6.999   9.132   9.611  1.9858 -1.2662  1.0759
11610SOL    HW240151   7.076   9.195   9.497  0.0587 -0.5366  0.1253
11611SOL     OW40152   7.227   0.098   4.347  0.1316  0.0137 -0.0798
11611SOL    HW140153   7.240   0.019   4.399 -0.8127  0.0726  0.2613
11611SOL    HW240154   7.277   0.083   4.267  1.4204 -0.1797  0.7274
11612SOL     OW40155  11.388   3.876  10.934  0.4891 -0.2353 -0.1892
11612SOL    HW140156  11.352   3.948  10.985 -0.1124 -0.6412 -0.0252
11612SOL    HW240157  11.356   3.891  10.845 -2.0552 -1.7879  0.3459
11613SOL     OW40158  10.416   4.735   0.983  0.2605  0.2563  0.4617
11613SOL    HW140159  10.448   4.825   0.982  1.9737 -0.3225  0.2107
11613SOL    HW240160  10.454   4.697   1.062 -1.3068  0.0175  1.1354
11614SOL     OW40161   8.814   7.395  11.329  0.2407  0.6885  0.6738
11614SOL    HW140162   8.744   7.388  11.264 -0.7284 -0.3106  1.7756
11614SOL    HW240163   8.881   7.333  11.299 -0.5254 -0.3186  0.9783
11615SOL     OW40164   5.054  11.757   4.740 -0.1735  0.0911 -0.4220
11615SOL    HW140165   5.011  11.842   4.738  0.4619  0.4095 -1.7491
11615SOL    HW240166   5.001  11.701   4.684 -1.8322 -1.0689  2.1434
11616SOL     OW40167   2.176   2.467   3.054  0.3320  0.2030 -0.0797
11616SOL    HW140168   2.125   2.547   3.048  0.9666  0.5307 -1.8347
11616SOL    HW240169   2.253   2.483   2.999  1.8560 -0.6325  1.6911
11617SOL     OW40170   2.438  10.003   4.811 -0.1018  1.1371 -0.1674
11617SOL    HW140171   2.491  10.077   4.783 -0.5702  1.9481  1.0156
11617SOL    HW240172   2.364  10.002   4.751  0.5140  0.8738 -0.9357
11618SOL     OW40173   0.165   1.408   4.828 -0.2633  0.3421  0.4906
11618SOL    HW140174   0.249   1.376   4.795 -0.9069 -0.5029 -0.3648
11618SOL    HW240175   0.174   1.503   4.827 -0.4261  0.4219 -2.7010
11619SOL     OW40176   1.535   3.651   6.037  0.2037  0.3835 -0.0465
11619SOL    HW140177   1.522   3.624   5.947 -0.6069 -2.0206  0.7109
11619SOL    HW240178   1.542   3.746   6.033  1.2231  0.2869 -2.7308
11620SOL     OW40179  10.152   9.194   2.152 -0.4176  0.8083  0.6256
11620SOL    HW140180  10.104   9.277   2.155 -0.1230  0.9692  1.0380
11620SOL    HW240181  10.094   9.132   2.198 -2.1343 -0.0388 -2.4122
11621SOL     OW40182   5.776  11.367   4.115  0.0989  0.3063 -0.3972
11621SOL    HW140183   5.792  11.449   4.069  0.0708  1.6087  1.7609
11621SOL    HW240184   5.716  11.390   4.186  0.9719 -1.3236  0.9700
11622SOL     OW40185  10.081   7.215  10.663  0.0890 -0.1907 -0.1861
11622SOL    HW140186  10.144   7.287  10.664  0.1898 -0.2428  1.5367
11622SOL    HW240187  10.044   7.216  10.575  0.8627  1.2794 -0.5294
11623SOL     OW40188   3.113  10.652   5.575  0.2260 -0.4348  0.7201
11623SOL    HW140189   3.191  10.708   5.573  1.0600 -1.5732  0.3154
11623SOL    HW240190   3.082  10.652   5.484 -0.1055 -0.2009  0.8293
11624SOL     OW40191   0.115   6.373   5.995  0.8515 -0.2491  0.3822
11624SOL    HW140192   0.207   6.345   5.994  1.1800  0.6545 -2.0942
11624SOL    HW240193   0.065   6.293   5.984  1.5621 -0.4651 -1.7903
11625SOL     OW40194  10.998   9.047   7.158 -0.3774 -0.7594 -0.4096
11625SOL    HW140195  11.019   9.070   7.249 -1.6265  3.2959 -0.9370
11625SOL    HW240196  10.906   9.024   7.159 -0.7757  0.7143 -0.7768
11626SOL     OW40197  10.196   8.013   4.376  0.3549 -0.1474 -0.0479
11626SOL    HW140198  10.106   8.007   4.405  1.0689 -2.2944  2.0111
11626SOL    HW240199  10.199   8.092   4.321 -2.3701  0.8629  1.1338
11627SOL     OW40200   7.403  10.989   3.298  0.2587  0.8386 -0.0761
11627SOL    HW140201   7.455  11.015   3.222  1.0037 -1.5634 -0.4795
11627SOL    HW240202   7.312  10.999   3.270  0.4264 -2.6753 -2.4794
11628SOL     OW40203   5.937   0.619  11.735  0.2991  0.3541  0.1374
11628SOL    HW140204   5.917   0.570  11.655  0.0817  1.5295 -0.5654
11628SOL    HW240205   5.900   0.706  11.719  0.7298  0.7753  1.3059
11629SOL     OW40206   9.812   7.675  10.010 -0.4873 -0.7308 -0.0050
11629SOL    HW140207   9.815   7.744  10.076 -0.6868 -1.0240  0.3205
11629SOL    HW240208   9.814   7.721   9.926 -0.4784 -0.3407  0.2065
11630SOL     OW40209   2.948  11.206   3.049 -0.9046 -0.1032 -0.8198
11630SOL    HW140210   2.937  11.291   3.006 -1.2409 -0.1025 -0.7392
11630SOL    HW240211   2.865  11.192   3.094  1.0105  2.4021  4.3602
11631SOL     OW40212   6.142   6.561   7.046 -0.1406  0.8553 -0.1137
11631SOL    HW140213   6.163   6.510   7.125 -3.3363 -0.4236  0.0596
11631SOL    HW240214   6.078   6.625   7.076  0.0566  1.6598 -1.3512
11632SOL     OW40215   1.422   9.770   5.159 -0.3817  0.4854 -0.5138
11632SOL    HW140216   1.518   9.771   5.166 -0.2819  1.4307 -1.6144
11632SOL    HW240217   1.393   9.716   5.233  1.0787 -1.4763 -1.2884
11633SOL     OW40218   4.468   3.907   4.731 -0.3063  0.5174  0.0144
11633SOL    HW140219   4.459   3.862   4.646  2.1316  0.1734 -0.1467
11633SOL    HW240220   4.478   3.835   4.794  0.7545  0.7873  0.1647
11634SOL     OW40221   2.834   0.528   2.284 -0.1026 -0.2032 -0.2135
11634SOL    HW140222   2.919   0.487   2.267  0.6889  0.4751  1.7790
11634SOL    HW240223   2.821   0.517   2.378 -2.5678 -0.8528 -0.5647
11635SOL     OW40224   1.472   6.244   0.546 -0.3283  0.6056  0.0168
11635SOL    HW140225   1.526   6.187   0.602 -1.3577 -1.8983 -1.3430
11635SOL    HW240226   1.384   6.236   0.582 -0.8888 -0.5406 -1.5070
11636SOL     OW40227   9.787   7.791   5.726  0.5321  0.4388  0.5034
11636SOL    HW140228   9.737   7.712   5.705  0.3078  0.9000 -0.7887
11636SOL    HW240229   9.879   7.761   5.725  0.4970  0.3040 -0.6487
11637SOL     OW40230   3.474   2.263   7.405  0.6940 -0.2493  0.5970
11637SOL    HW140231   3.410   2.268   7.334 -0.0229 -1.6236  1.1161
11637SOL    HW240232   3.429   2.302   7.480  1.3874  1.0385  0.3849
11638SOL     OW40233  11.430   6.671   6.332 -0.6089 -0.5925  0.2147
11638SOL    HW140234  11.442   6.713   6.247 -0.2342 -0.7890  0.1691
11638SOL    HW240235  11.358   6.719   6.372  0.6206  0.9202  0.6972
11639SOL     OW40236   2.122   6.287   4.061  0.1768 -0.0116 -0.0839
11639SOL    HW140237   2.053   6.319   4.003 -2.0640 -1.9802  1.2906
11639SOL    HW240238   2.168   6.221   4.009  2.0011  2.1829 -1.4409
11640SOL     OW40239   3.016   8.771  10.119 -0.1979 -0.1821  0.3194
11640SOL    HW140240   3.008   8.692  10.066 -1.5373  0.5182 -0.5825
11640SOL    HW240241   3.044   8.740  10.205 -0.3624 -1.5883 -0.1089
11641SOL     OW40242   3.934   5.430   8.119 -0.2898  0.0310  0.3796
11641SOL    HW140243   4.014   5.469   8.156 -0.0728 -0.7799  0.8007
11641SOL    HW240244   3.965   5.383   8.041 -0.7095  1.5355 -0.7361
11642SOL     OW40245   4.070  11.562   2.068 -0.2941 -0.3620 -0.1900
11642SOL    HW140246   4.094  11.644   2.112 -1.2804  0.1287 -0.5338
11642SOL    HW240247   3.979  11.574   2.043 -0.1771 -1.2096 -1.0855
11643SOL     OW40248   5.364   6.061  11.548  0.1455 -0.1844 -0.2323
11643SOL    HW140249   5.396   6.101  11.629  1.5481 -0.0895 -0.8160
11643SOL    HW240250   5.340   5.972  11.574  0.5742 -0.1524  0.2893
11644SOL     OW40251   7.621   1.056   5.714  0.1858  0.2369 -0.0159
11644SOL    HW140252   7.646   0.979   5.663 -0.1023 -1.5722  2.3980
11644SOL    HW240253   7.696   1.073   5.771 -0.8845 -0.2090  1.6039
11645SOL     OW40254   4.914   0.985   5.382  0.5924  0.2837  0.3608
11645SOL    HW140255   4.849   0.976   5.452 -0.3667  0.1915 -0.5100
11645SOL    HW240256   4.883   1.060   5.330 -0.1363 -1.1504 -1.3911
11646SOL     OW40257   7.782   3.043   4.748  0.4296 -0.3765  0.4373
11646SOL    HW140258   7.805   2.976   4.683  1.3257 -1.4459  1.8028
11646SOL    HW240259   7.865   3.063   4.791  0.0472  1.1488  0.5028
11647SOL     OW40260   4.113  11.236   2.542 -1.1360 -0.0211  0.2208
11647SOL    HW140261   4.056  11.165   2.574 -2.5058  0.8725 -0.1666
11647SOL    HW240262   4.092  11.243   2.449 -0.4375  0.3796  0.0920
11648SOL     OW40263   5.180  10.895  11.521 -0.2259  0.0590  0.3197
11648SOL    HW140264   5.200  10.863  11.609 -1.2007  0.2195  0.6085
11648SOL    HW240265   5.265  10.925  11.487  0.7300 -2.6159  0.0940
11649SOL     OW40266   2.779   6.806  11.275  0.1418 -0.3884  0.0791
11649SOL    HW140267   2.763   6.869  11.205  0.7381  0.5062  0.7254
11649SOL    HW240268   2.867   6.826  11.305  0.8158 -2.3126 -0.4706
11650SOL     OW40269   6.493   8.923   2.876  0.2559  0.2086 -0.3552
11650SOL    HW140270   6.530   8.957   2.795 -1.4122  1.4750 -0.6322
11650SOL    HW240271   6.439   8.849   2.850  3.0979 -2.2583  0.1466
11651SOL     OW40272   7.372   1.546   4.440  0.3177  0.1189  0.7140
11651SOL    HW140273   7.411   1.590   4.365  3.3444 -1.1696  1.3527
11651SOL    HW240274   7.293   1.505   4.406  1.2258  0.1560 -1.6225
11652SOL     OW40275  10.171   7.134   2.075  0.5556  0.3412 -0.6162
11652SOL    HW140276  10.119   7.073   2.128  0.8323 -0.9240 -1.7424
11652SOL    HW240277  10.260   7.123   2.107  0.6774 -0.2103 -1.1248
11653SOL     OW40278   5.203   4.683   1.828 -0.0965 -0.3893  0.8940
11653SOL    HW140279   5.135   4.749   1.813 -0.1247 -0.3409  1.2348
11653SOL    HW240280   5.170   4.630   1.900  0.7246  0.3179  1.8225
11654SOL     OW40281   6.074  10.699   9.537 -0.3141 -0.4042 -0.4748
11654SOL    HW140282   6.158  10.702   9.490 -1.1630  1.2665 -2.0368
11654SOL    HW240283   6.019  10.644   9.481 -0.8066  0.1049 -0.4952
11655SOL     OW40284   9.442   0.400   2.949 -0.4030 -0.0367  0.4150
11655SOL    HW140285   9.444   0.429   3.040 -2.6711  2.3035 -0.1658
11655SOL    HW240286   9.360   0.435   2.915 -0.0753 -1.6577 -2.3064
11656SOL     OW40287   3.296   4.531   9.281 -0.4644 -0.3396 -0.4988
11656SOL    HW140288   3.220   4.545   9.224 -1.7527 -2.0541  0.6778
11656SOL    HW240289   3.279   4.445   9.321  0.6060  0.5924  2.1032
11657SOL     OW40290   2.032   4.323   7.537 -1.0953 -0.3784  0.6695
11657SOL    HW140291   2.064   4.403   7.579  0.3022  0.5349 -1.8932
11657SOL    HW240292   1.939   4.319   7.561 -0.0567 -1.2163  5.5619
11658SOL     OW40293  10.030   1.500   0.442 -0.0885 -0.0855  0.7888
11658SOL    HW140294   9.940   1.467   0.451 -0.2610  0.7199  2.5261
11658SOL    HW240295  10.082   1.423   0.422 -1.4468 -0.2392 -2.8514
11659SOL     OW40296   1.798   4.706   2.066 -0.0755  0.0451 -0.1144
11659SOL    HW140297   1.753   4.683   1.985 -1.1014 -0.1962  0.4951
11659SOL    HW240298   1.728   4.740   2.122  0.3359 -1.1927  1.2068
11660SOL     OW40299   6.274   6.932   6.052  0.0853 -0.4732 -0.0254
11660SOL    HW140300   6.233   6.846   6.045 -0.9258  0.0257 -0.4950
11660SOL    HW240301   6.245   6.979   5.973  1.1602  0.0755 -0.1137
11661SOL     OW40302   2.513   1.022   8.720 -0.2618 -0.3523 -0.0184
11661SOL    HW140303   2.433   0.995   8.765  0.5737 -1.2304  0.9822
11661SOL    HW240304   2.539   1.103   8.765 -0.3336 -0.3235 -0.0285
11662SOL     OW40305   0.572   2.666   9.625  0.2413 -0.3105  0.5663
11662SOL    HW140306   0.537   2.724   9.557  0.1478 -1.2636 -0.2158
11662SOL    HW240307   0.634   2.721   9.673 -0.6521  0.7544  0.5511
11663SOL     OW40308   8.088   1.498   1.829  0.3483  0.0838 -0.2071
11663SOL    HW140309   8.134   1.418   1.805 -0.0198  0.0921 -0.9669
11663SOL    HW240310   8.099   1.505   1.924 -1.0658 -1.7730  0.1476
11664SOL     OW40311   5.842   1.733   5.407 -0.0678 -0.1238  0.0140
11664SOL    HW140312   5.923   1.705   5.365 -0.0640 -1.1501  0.6862
11664SOL    HW240313   5.824   1.666   5.472  0.4525  1.8838  2.3616
11665SOL     OW40314   6.151   4.827  11.026  0.4758 -0.4584  0.0774
11665SOL    HW140315   6.153   4.731  11.028 -0.2480 -0.4730  0.3513
11665SOL    HW240316   6.241   4.852  11.008  0.8310 -1.1752  0.7907
11666SOL     OW40317   9.590   5.817   6.574  0.5311 -0.3949  0.1814
11666SOL    HW140318   9.531   5.827   6.649  1.3542 -0.1654  0.8065
11666SOL    HW240319   9.592   5.904   6.534 -0.7513 -0.7661 -0.7742
11667SOL     OW40320   4.199   7.740   7.625  0.3986 -0.3626 -0.2189
11667SOL    HW140321   4.250   7.740   7.544 -0.4985  1.3572 -0.8250
11667SOL    HW240322   4.151   7.823   7.624 -0.5182 -0.8153  1.5255
11668SOL     OW40323   6.233   6.243   9.768 -0.1259  0.3246 -0.8586
11668SOL    HW140324   6.251   6.283   9.683 -1.2443  2.5035 -0.1560
11668SOL    HW240325   6.265   6.153   9.760  1.6444  1.0529 -2.8774
11669SOL     OW40326   9.155   9.071  11.354  0.0563  0.0366 -0.1474
11669SOL    HW140327   9.221   9.018  11.311 -0.4625 -1.8004  1.1843
11669SOL    HW240328   9.115   9.122  11.284  1.8363  0.0444 -1.1864
11670SOL     OW40329   5.402   5.388   4.787  0.6553  0.5491 -0.0114
11670SOL    HW140330   5.471   5.429   4.838 -1.2137  3.0846  0.7084
11670SOL    HW240331   5.411   5.427   4.699 -0.4401  1.7813  0.3790
11671SOL     OW40332   7.648  10.297   2.427 -0.0556 -0.5593  0.0512
11671SOL    HW140333   7.725  10.278   2.481 -0.1372 -3.1320 -0.6114
11671SOL    HW240334   7.664  10.385   2.393  1.4643 -0.1082  1.7720
11672SOL     OW40335   1.094  10.535   8.884  0.3157  0.4595  0.0725
11672SOL    HW140336   1.020  10.482   8.856 -0.5085  1.5169  0.1891
11672SOL    HW240337   1.163  10.514   8.822  0.1161 -0.9612  0.2962
11673SOL     OW40338  10.625   3.202  10.495 -0.0318 -0.1379 -0.0167
11673SOL    HW140339  10.611   3.285  10.449  0.4135 -1.0972 -2.0347
11673SOL    HW240340  10.675   3.149  10.432 -1.0236 -2.2215  0.8627
11674SOL     OW40341   4.413   4.591   7.266  0.2715  0.1926  0.1600
11674SOL    HW140342   4.324   4.595   7.229  0.4207  2.3023 -0.0963
11674SOL    HW240343   4.405   4.635   7.350  1.4928  2.6146 -0.8970
11675SOL     OW40344   1.483   7.151   4.436  0.4728 -0.1962  0.7742
11675SOL    HW140345   1.519   7.135   4.523 -0.6332 -1.2368  1.0735
11675SOL    HW240346   1.486   7.065   4.393  0.2804  0.1392  0.0741
11676SOL     OW40347   2.432   2.751   6.122  0.1224 -0.1087 -0.6527
11676SOL    HW140348   2.484   2.775   6.198 -2.6565  0.0805  1.3458
11676SOL    HW240349   2.400   2.834   6.087 -2.0522 -0.3049  0.6760
11677SOL     OW40350   1.200   5.694   3.792  0.0619  0.4946 -0.0324
11677SOL    HW140351   1.124   5.732   3.749 -0.3612 -0.4950 -0.1992
11677SOL    HW240352   1.256   5.768   3.813 -0.4862  1.1443 -0.8166
11678SOL     OW40353   0.206   8.604   4.942 -0.3106  0.0429 -0.4681
11678SOL    HW140354   0.197   8.683   4.888 -0.3771 -1.5955 -3.0610
11678SOL    HW240355   0.117   8.586   4.972 -0.5579  0.1472 -1.1235
11679SOL     OW40356  10.087   5.413   2.625 -0.0136 -0.3747  0.1156
11679SOL    HW140357  10.090   5.486   2.687 -1.6388  1.0826 -1.4163
11679SOL    HW240358  10.019   5.355   2.660 -0.6560  0.2467 -0.0940
11680SOL     OW40359   4.079   3.196   4.206 -0.3533 -0.2688  0.3735
11680SOL    HW140360   4.028   3.120   4.175  0.6461 -0.6187 -0.4704
11680SOL    HW240361   4.114   3.168   4.290 -1.0875 -0.2290  0.7026
11681SOL     OW40362   4.676  10.934  11.332  0.3294  0.1907 -0.6719
11681SOL    HW140363   4.689  10.873  11.260  0.1182  0.1699 -0.6925
11681SOL    HW240364   4.764  10.969  11.349  0.4437 -0.0824 -0.6880
11682SOL     OW40365   9.333   8.485   4.759 -0.1216 -0.1786  0.2209
11682SOL    HW140366   9.408   8.502   4.702  0.8876 -0.0797  1.5295
11682SOL    HW240367   9.318   8.568   4.804  0.5582 -0.8481  1.7432
11683SOL     OW40368   8.459   9.866   6.048 -0.0405  0.5968 -0.3357
11683SOL    HW140369   8.513   9.788   6.041 -0.5909  0.0685  1.0731
11683SOL    HW240370   8.369   9.833   6.056 -0.2332  1.3348  0.7649
11684SOL     OW40371   1.601   7.224   0.152 -0.3570 -0.8911  0.1934
11684SOL    HW140372   1.575   7.226   0.244  0.7610 -0.4545  0.5118
11684SOL    HW240373   1.638   7.136   0.140  1.5742 -0.2081  0.7814
11685SOL     OW40374  10.802   6.535   7.124  0.0089  0.2337 -0.5159
11685SOL    HW140375  10.729   6.596   7.109  0.1133  0.2875 -0.8040
11685SOL    HW240376  10.796   6.473   7.051 -1.0533 -1.0455  0.6017
11686SOL     OW40377   2.546   7.128   8.707 -0.4962 -0.8624 -0.5535
11686SOL    HW140378   2.581   7.068   8.773 -1.4311  0.4926  1.2551
11686SOL    HW240379   2.598   7.207   8.716 -1.4414 -0.2229 -0.5530
11687SOL     OW40380   7.095   9.088   6.702  0.4928  0.5655 -0.2033
11687SOL    HW140381   7.007   9.051   6.701  0.2031  1.2007 -2.6161
11687SOL    HW240382   7.084   9.179   6.678  1.7606  0.8447  0.1769
11688SOL     OW40383   4.827   7.846   4.809  0.6627  0.6862 -0.2431
11688SOL    HW140384   4.748   7.805   4.773 -0.2903  1.7709  0.5412
11688SOL    HW240385   4.842   7.801   4.892 -0.0522  1.5156  0.3472
11689SOL     OW40386   9.526   3.328   1.513 -0.3088  0.2266  0.1787
11689SOL    HW140387   9.517   3.308   1.606 -1.2012  0.6892  0.2010
11689SOL    HW240388   9.538   3.423   1.509 -1.3150  0.3576 -0.2230
11690SOL     OW40389   6.493   6.441   8.417  0.6529 -0.2723 -0.4590
11690SOL    HW140390   6.447   6.505   8.363 -0.2223 -1.0453 -0.6437
11690SOL    HW240391   6.507   6.367   8.359  1.4763 -0.3410 -0.1825
11691SOL     OW40392   1.291   6.246   8.740 -0.2973  0.1725 -0.2861
11691SOL    HW140393   1.234   6.272   8.668  1.0399  1.9546 -0.7633
11691SOL    HW240394   1.366   6.204   8.697 -1.0981 -1.9989  0.3197
11692SOL     OW40395   0.566   7.422   1.700 -0.0472 -0.3274 -0.5410
11692SOL    HW140396   0.595   7.351   1.757  1.2142 -0.2959 -1.1028
11692SOL    HW240397   0.581   7.389   1.611  0.3916  0.5604 -0.8121
11693SOL     OW40398   8.329   7.728   2.799 -0.2659  0.3242 -0.7324
11693SOL    HW140399   8.289   7.814   2.787 -0.6155  0.2764  0.0772
11693SOL    HW240400   8.320   7.686   2.713 -2.1715  0.2285 -0.5363
11694SOL     OW40401   0.296   7.944   1.917 -0.2821  0.2978 -0.3528
11694SOL    HW140402   0.325   7.910   1.832 -0.2102 -0.1641 -0.1480
11694SOL    HW240403   0.246   7.872   1.955  1.1646 -0.1642  0.7652
11695SOL     OW40404   0.151   6.519   5.761 -0.1463  0.5325  0.2946
11695SOL    HW140405   0.132   6.611   5.780 -0.5997  0.8436 -1.4547
11695SOL    HW240406   0.149   6.475   5.846 -2.0918  1.7611  0.9295
11696SOL     OW40407   9.667   1.300   6.481  0.3462  0.0149  0.1540
11696SOL    HW140408   9.665   1.364   6.552  1.8711 -1.9574  2.1159
11696SOL    HW240409   9.577   1.266   6.477 -0.0626  1.0627  0.2354
11697SOL     OW40410   5.960  10.904   2.848 -0.2563  0.1156 -0.3894
11697SOL    HW140411   6.029  10.970   2.858 -0.5006  0.2816  0.2565
11697SOL    HW240412   5.896  10.927   2.914 -0.2206 -0.9373  0.0264
11698SOL     OW40413   8.087   1.072   2.056 -0.0238  0.2590 -0.3157
11698SOL    HW140414   8.017   1.123   2.095 -0.4569 -0.5574 -0.0080
11698SOL    HW240415   8.045   0.991   2.027 -0.0290  1.3153 -3.7131
11699SOL     OW40416   3.690   3.370   9.272 -0.5825 -0.0451  0.4801
11699SOL    HW140417   3.705   3.460   9.297  0.0344  0.0446 -0.1730
11699SOL    HW240418   3.670   3.324   9.354  0.5944  0.3777  1.0141
11700SOL     OW40419  11.337   9.475   8.283 -0.2984  0.4784  0.4521
11700SOL    HW140420  11.276   9.544   8.258 -0.9393 -0.5141 -0.8671
11700SOL    HW240421  11.284   9.413   8.334  0.0920  0.6121  1.0202
11701SOL     OW40422   2.902  10.943   0.484 -0.2443  0.0749  0.5660
11701SOL    HW140423   2.834  10.919   0.421  0.1487  0.9366 -0.2095
11701SOL    HW240424   2.906  10.869   0.544 -0.1637 -1.0757 -0.8151
11702SOL     OW40425   1.321  10.865   1.971 -0.4911 -0.2346  0.4326
11702SOL    HW140426   1.253  10.804   1.998 -1.0721  0.6964  1.1057
11702SOL    HW240427   1.285  10.908   1.893 -0.4706 -0.1046  0.4940
11703SOL     OW40428   8.657   9.117   4.185  0.3016 -0.2516 -0.2452
11703SOL    HW140429   8.751   9.135   4.189 -0.1695  2.4670  2.7079
11703SOL    HW240430   8.617   9.202   4.168 -1.7195 -0.5821  2.2395
11704SOL     OW40431  10.855   4.240   3.649  0.1077 -0.4224 -0.1833
11704SOL    HW140432  10.767   4.253   3.613 -0.4638  0.3958  1.4238
11704SOL    HW240433  10.906   4.313   3.614  0.3779 -1.3099 -1.7216
11705SOL     OW40434   6.307   4.952   6.472  0.5596 -0.1387 -0.1471
11705SOL    HW140435   6.247   4.935   6.399  0.9575 -1.7594 -0.1292
11705SOL    HW240436   6.348   5.036   6.450 -3.3470  2.3236  0.9740
11706SOL     OW40437   1.257   3.850   9.042  0.4805  0.0474  0.0283
11706SOL    HW140438   1.290   3.767   9.005  1.1892 -0.6156  2.0250
11706SOL    HW240439   1.306   3.917   8.995 -0.0709 -0.6284 -1.6055
11707SOL     OW40440   1.105   3.221   2.684  0.2349 -0.1157 -0.7584
11707SOL    HW140441   1.167   3.280   2.642 -0.6031  2.0077  0.8271
11707SOL    HW240442   1.076   3.268   2.762 -1.6615 -1.9938 -0.2365
11708SOL     OW40443   3.455  11.733   0.154  0.6492 -0.4847 -0.2388
11708SOL    HW140444   3.429  11.745   0.063  1.9721  0.8675 -0.4959
11708SOL    HW240445   3.381  11.689   0.195 -0.4837 -0.0101 -1.6807
11709SOL     OW40446   4.816   3.007   1.818  0.1134  0.4986  0.3719
11709SOL    HW140447   4.792   3.014   1.910  1.6463 -3.1639  1.2102
11709SOL    HW240448   4.752   2.947   1.781  0.7140  0.3225 -0.4089
11710SOL     OW40449   6.294  10.965   2.185 -0.2665 -0.0883  0.4914
11710SOL    HW140450   6.248  11.045   2.160  0.2047  0.2213  0.6022
11710SOL    HW240451   6.240  10.895   2.149 -3.5866 -0.1168  4.6763
11711SOL     OW40452   0.140   2.959   2.740  0.1141 -0.0373 -0.7908
11711SOL    HW140453   0.207   3.026   2.728  2.7276 -2.1891  0.7720
11711SOL    HW240454   0.156   2.923   2.827 -0.8513 -2.9863 -1.7033
11712SOL     OW40455  11.445  10.153   9.944 -0.3489 -0.4965  0.3620
11712SOL    HW140456  11.509  10.092   9.909  1.3344  1.0395  0.6049
11712SOL    HW240457  11.399  10.187   9.867 -1.5425 -2.2551  0.2497
11713SOL     OW40458   9.489   2.922   1.120  0.2191 -0.0697  0.1692
11713SOL    HW140459   9.415   2.874   1.082 -0.0098  0.2602  0.1959
11713SOL    HW240460   9.513   2.985   1.052 -0.5242  0.8717  0.7721
11714SOL     OW40461   6.209   1.582   4.177 -0.0103  0.4239 -0.1741
11714SOL    HW140462   6.180   1.518   4.242  4.5730 -3.4631 -1.3284
11714SOL    HW240463   6.171   1.551   4.095 -0.0175  0.9440 -0.3678
11715SOL     OW40464   3.622  11.477   1.374  0.3344 -0.0263 -0.1425
11715SOL    HW140465   3.534  11.486   1.337  0.0848 -0.3279  0.3528
11715SOL    HW240466   3.681  11.502   1.303 -0.1584  0.4766 -0.3843
11716SOL     OW40467  10.894   4.517   0.103 -0.0805 -0.1334  0.0780
11716SOL    HW140468  10.812   4.492   0.145  0.9514 -0.7199  1.8522
11716SOL    HW240469  10.868   4.550   0.017 -2.1700 -0.1911  0.6330
11717SOL     OW40470   1.084  10.700   3.474 -0.2787  0.1014  0.8003
11717SOL    HW140471   1.156  10.671   3.530  1.0652  1.5121 -0.1621
11717SOL    HW240472   1.020  10.629   3.480  0.6589 -0.6474  2.5974
11718SOL     OW40473   4.472   2.914   3.515  0.1347  0.3669  0.3238
11718SOL    HW140474   4.437   2.854   3.580  0.2746  1.1586  1.1453
11718SOL    HW240475   4.398   2.932   3.457 -0.1739  0.1859  0.6602
11719SOL     OW40476  11.109   3.808   9.863  0.0416  0.0129  0.0957
11719SOL    HW140477  11.113   3.879   9.799  0.6640  2.1116  2.2679
11719SOL    HW240478  11.185   3.753   9.843 -0.8581 -0.5228 -2.0737
11720SOL     OW40479   7.058   0.836   9.449  0.0050 -0.0029 -0.2591
11720SOL    HW140480   7.111   0.904   9.490  0.1601  1.1905 -2.2879
11720SOL    HW240481   7.097   0.754   9.478  1.8763  0.8267 -0.2795
11721SOL     OW40482   8.884   2.353   6.084 -0.1771 -0.0220 -0.2577
11721SOL    HW140483   8.835   2.382   6.008 -1.4280  0.9816  0.8767
11721SOL    HW240484   8.964   2.405   6.083 -0.2305  0.0485 -0.8315
11722SOL     OW40485   7.371   8.696   7.853  0.2199  0.1636  0.0820
11722SOL    HW140486   7.440   8.629   7.853  0.1305  0.0663  0.5563
11722SOL    HW240487   7.308   8.665   7.919 -0.2707  0.2597 -0.3403
11723SOL     OW40488  10.294   5.427   9.173  0.0743 -0.3268 -0.2642
11723SOL    HW140489  10.213   5.452   9.128  0.0451 -1.5347 -0.9412
11723SOL    HW240490  10.361   5.427   9.104  0.1100 -1.8085 -0.2708
11724SOL     OW40491  10.348   5.793   9.081 -0.0330 -0.0158  0.1854
11724SOL    HW140492  10.316   5.734   9.013 -0.4876 -0.0396  0.4132
11724SOL    HW240493  10.310   5.759   9.162 -0.7794  0.9116  0.2491
11725SOL     OW40494   3.339   5.207  10.679  0.3182  0.1745 -0.4321
11725SOL    HW140495   3.433   5.226  10.691  0.3668  0.1489 -0.7595
11725SOL    HW240496   3.311   5.268  10.611 -0.9007  3.1666  2.4858
11726SOL     OW40497   4.897   3.824   9.964  0.2112  0.0163 -0.4601
11726SOL    HW140498   4.931   3.882  10.032  0.3058  0.7602 -1.1280
11726SOL    HW240499   4.894   3.738  10.006  1.0654  0.2974  0.2294
11727SOL     OW40500   0.227  11.195   5.535  0.7104  0.3046  0.1119
11727SOL    HW140501   0.153  11.153   5.492 -0.3239  0.5004  1.6107
11727SOL    HW240502   0.296  11.129   5.536  0.3580 -0.0853 -0.7871
11728SOL     OW40503   5.234  11.093   6.560  0.0918  0.2829  0.7152
11728SOL    HW140504   5.220  11.188   6.556 -0.9485  0.1238  0.1532
11728SOL    HW240505   5.225  11.064   6.469 -0.7675 -0.4976  1.0374
11729SOL     OW40506   4.910   2.806   7.771  0.0513  0.1466  0.3132
11729SOL    HW140507   4.870   2.884   7.733  0.7189  0.5165  0.3630
11729SOL    HW240508   4.959   2.838   7.846  2.6747  0.1231 -1.2882
11730SOL     OW40509   6.907   7.364  10.654 -0.5963  0.0479 -0.0010
11730SOL    HW140510   6.892   7.336  10.745 -0.0946  1.7052  0.6209
11730SOL    HW240511   6.989   7.321  10.630 -0.0859  0.5523  0.7755
11731SOL     OW40512   1.609   9.773   8.896 -0.0316  0.3085 -0.0288
11731SOL    HW140513   1.681   9.836   8.903 -1.1482  1.4935  1.4649
11731SOL    HW240514   1.623   9.730   8.812  1.4740  1.6816 -0.5315
11732SOL     OW40515   7.123   6.889   7.017  0.1778  0.3796 -0.3284
11732SOL    HW140516   7.091   6.800   7.000 -0.5147  0.0594  2.1994
11732SOL    HW240517   7.106   6.902   7.110 -1.3443  3.8301 -0.9617
11733SOL     OW40518   8.673   2.427   4.226  0.4831  0.3377  0.2024
11733SOL    HW140519   8.744   2.372   4.193  1.6511  0.4142  2.4279
11733SOL    HW240520   8.610   2.366   4.263  0.1117  0.3538 -0.3859
11734SOL     OW40521   0.751   8.935   2.214 -0.4882  0.6000 -0.2009
11734SOL    HW140522   0.675   8.992   2.200 -0.9870 -0.2338 -1.0442
11734SOL    HW240523   0.798   8.937   2.131 -1.3090 -1.3099 -0.7809
11735SOL     OW40524  10.467   0.411  10.677 -0.1582 -0.1096 -0.2457
11735SOL    HW140525  10.519   0.470  10.622  2.0296 -0.5119  1.2450
11735SOL    HW240526  10.522   0.395  10.754 -3.9584  2.3725  3.4064
11736SOL     OW40527   4.160   7.020   5.455  0.2830 -0.0717 -0.3485
11736SOL    HW140528   4.214   7.077   5.510  0.0193 -0.2466  0.1018
11736SOL    HW240529   4.195   6.933   5.470  0.7365 -0.0238 -1.0986
11737SOL     OW40530   3.828   5.707  11.154  0.0433 -0.5246 -0.2715
11737SOL    HW140531   3.743   5.744  11.129 -0.2410 -0.4624  0.7200
11737SOL    HW240532   3.888   5.737  11.086 -0.9826 -1.7572 -1.7791
11738SOL     OW40533   9.067   8.354   5.695 -0.6629  0.2749  0.2211
11738SOL    HW140534   9.012   8.402   5.757 -0.9817  2.7286 -1.8126
11738SOL    HW240535   9.076   8.267   5.734 -1.9836  1.2528  2.9783
11739SOL     OW40536   3.769   6.974   0.013 -0.1074 -0.0246 -0.3465
11739SOL    HW140537   3.798   7.059  -0.019  0.7947 -0.3584 -0.4595
11739SOL    HW240538   3.676   6.985   0.032  0.3188  1.4182  1.1086
11740SOL     OW40539  10.468   5.243   7.376 -0.4042  0.1525 -0.6143
11740SOL    HW140540  10.482   5.299   7.452  1.7101 -0.3276 -0.5970
11740SOL    HW240541  10.481   5.300   7.301  0.8222 -0.0899 -0.5965
11741SOL     OW40542   6.568   6.464   1.606 -0.6306 -0.0959  0.4124
11741SOL    HW140543   6.525   6.392   1.560 -0.5470 -0.3809  0.7789
11741SOL    HW240544   6.562   6.440   1.699  0.1861 -0.0564  0.4753
11742SOL     OW40545   5.720  10.829   7.100  0.0459 -0.1000 -0.0140
11742SOL    HW140546   5.756  10.840   7.012  0.5942 -1.1509  0.0529
11742SOL    HW240547   5.691  10.738   7.103 -0.4051  0.0568  0.7405
11743SOL     OW40548   6.373   5.098   1.735 -0.1779  0.5504 -0.0361
11743SOL    HW140549   6.379   5.111   1.641 -1.2059  0.4762 -0.1229
11743SOL    HW240550   6.392   5.005   1.748 -2.0119  0.1010 -0.3936
11744SOL     OW40551   5.486   7.110   3.108  0.7090  0.2176 -0.2942
11744SOL    HW140552   5.547   7.172   3.069  1.1054 -0.1886 -0.3265
11744SOL    HW240553   5.526   7.086   3.192  0.7360 -0.2631 -0.4413
11745SOL     OW40554   9.501   3.641  10.254  0.5173 -0.6285 -0.4219
11745SOL    HW140555   9.467   3.610  10.170  1.7204 -0.5938 -0.9464
11745SOL    HW240556   9.548   3.722  10.232  1.3428 -0.9302  0.1780
11746SOL     OW40557   3.915  10.886   2.146 -0.2262  0.3624  0.3695
11746SOL    HW140558   3.987  10.842   2.101  0.9019 -0.2713  2.6285
11746SOL    HW240559   3.907  10.971   2.101  2.3861  0.7196  0.4225
11747SOL     OW40560   7.539   7.595  10.272  0.3044  0.4619 -0.1926
11747SOL    HW140561   7.448   7.589  10.244 -0.0286  2.5985  0.2519
11747SOL    HW240562   7.588   7.546  10.206 -1.0829 -0.1339 -0.8204
11748SOL     OW40563   3.356   8.208   7.181  0.0273 -0.5297 -0.4847
11748SOL    HW140564   3.358   8.280   7.118  0.3125 -0.1924 -0.1018
11748SOL    HW240565   3.442   8.166   7.171  1.0712  1.0273  1.3605
11749SOL     OW40566   4.979   2.681   2.798 -0.8369  0.6407 -0.4336
11749SOL    HW140567   4.926   2.732   2.737 -1.6472  0.1772 -0.1347
11749SOL    HW240568   4.980   2.733   2.879  0.4555  1.3822 -0.8969
11750SOL     OW40569   4.013   5.277  11.543 -0.0865  0.2720 -0.1716
11750SOL    HW140570   4.059   5.302  11.462 -0.2859  2.8597  0.4132
11750SOL    HW240571   4.079   5.287  11.612  0.2088 -2.3608  0.0031
11751SOL     OW40572  10.502   0.568   2.582  0.1720 -0.1929 -0.1296
11751SOL    HW140573  10.531   0.595   2.495  0.6022  0.9745  0.3577
11751SOL    HW240574  10.568   0.603   2.641  1.6015 -3.5883  0.5076
11752SOL     OW40575   7.386  10.544   6.325  0.0385 -0.1214 -0.9932
11752SOL    HW140576   7.417  10.502   6.244 -1.3508 -2.6303 -0.3283
11752SOL    HW240577   7.328  10.480   6.365  0.0209  1.3671  1.6214
11753SOL     OW40578   0.555   1.633   6.312  0.1054  0.4546  0.0003
11753SOL    HW140579   0.539   1.701   6.247 -2.3772  0.0077  0.0532
11753SOL    HW240580   0.468   1.608   6.342  1.0758 -1.1460  1.6534
11754SOL     OW40581   3.215   1.316   7.546 -0.0334 -0.5072  0.5010
11754SOL    HW140582   3.165   1.253   7.494  0.0631 -0.8244  0.7919
11754SOL    HW240583   3.299   1.324   7.501 -0.0065 -0.6660  0.5244
11755SOL     OW40584   6.381  11.347  10.604  0.2730 -0.9428 -0.5137
11755SOL    HW140585   6.322  11.273  10.620  0.1890 -0.6712  0.4335
11755SOL    HW240586   6.349  11.417  10.661  1.3407 -0.7050 -0.1883
11756SOL     OW40587  11.078   7.056   1.087  0.2776  0.3313  0.0252
11756SOL    HW140588  11.167   7.050   1.120  0.3503  0.4680 -0.1422
11756SOL    HW240589  11.087   7.047   0.992  0.0332 -0.4733  0.0692
11757SOL     OW40590  10.428   6.796   1.310  0.5035  0.1153  0.1556
11757SOL    HW140591  10.422   6.797   1.405 -0.3686  0.3930  0.1053
11757SOL    HW240592  10.380   6.874   1.281 -1.4368 -1.2895 -0.5993
11758SOL     OW40593   5.781   0.581   2.700 -0.0438 -0.2697 -0.2099
11758SOL    HW140594   5.727   0.526   2.643  2.1634 -1.4902 -1.2465
11758SOL    HW240595   5.802   0.525   2.774  0.0141  0.0963  0.0506
11759SOL     OW40596   0.237   9.504   5.066 -0.2302 -0.3642 -0.0655
11759SOL    HW140597   0.181   9.494   5.143 -1.2410 -0.2365 -0.7635
11759SOL    HW240598   0.260   9.414   5.041 -0.4917 -0.4368 -0.0434
11760SOL     OW40599   3.284   9.292   9.462 -0.3236  0.0350  0.2759
11760SOL    HW140600   3.329   9.332   9.388  0.4902 -0.5100  0.4635
11760SOL    HW240601   3.207   9.347   9.475  0.2442  0.9510 -0.0960
11761SOL     OW40602   7.591  10.070   1.087 -0.1996 -0.1077  0.5414
11761SOL    HW140603   7.585  10.161   1.117 -0.7749  0.0308  0.0224
11761SOL    HW240604   7.682  10.045   1.105 -0.5151 -0.0495  2.4087
11762SOL     OW40605   5.382   5.779   9.051 -0.1242  0.0653 -0.2853
11762SOL    HW140606   5.410   5.846   9.114 -1.3286 -0.2290  0.5946
11762SOL    HW240607   5.319   5.825   8.995 -0.8064 -0.2626  0.2001
11763SOL     OW40608   2.761   2.872   5.872  0.0602  0.5135  0.2157
11763SOL    HW140609   2.780   2.886   5.965 -1.5984  0.4014  0.5896
11763SOL    HW240610   2.668   2.850   5.869  0.4229 -1.0223 -1.3165
11764SOL     OW40611   5.336   7.235   5.723  0.4787 -0.2836 -0.1467
11764SOL    HW140612   5.275   7.215   5.652 -0.0066 -0.2000  0.2399
11764SOL    HW240613   5.382   7.153   5.741 -0.0878 -0.5529  0.0939
11765SOL     OW40614   0.061  10.518   2.450  0.1308  0.2991  0.0317
11765SOL    HW140615   0.137  10.462   2.458 -0.2649 -0.2458  0.0236
11765SOL    HW240616   0.050  10.531   2.356  1.1503  1.6900  0.0770
11766SOL     OW40617   6.303   4.085   7.512  1.4600 -0.1185 -0.2671
11766SOL    HW140618   6.373   4.098   7.576  2.0771  2.1852 -1.2826
11766SOL    HW240619   6.342   4.113   7.429 -0.7672  1.7515 -0.7746
11767SOL     OW40620   7.495   3.941   6.016 -0.1694 -0.5157 -0.0995
11767SOL    HW140621   7.566   4.004   6.027 -0.0744 -0.7574  0.8101
11767SOL    HW240622   7.440   3.978   5.947  1.1638 -0.6383 -1.2803
11768SOL     OW40623   5.188   7.788   1.747 -0.0298  0.1964 -0.0661
11768SOL    HW140624   5.119   7.848   1.777  0.9502  1.5494 -0.4050
11768SOL    HW240625   5.143   7.725   1.691 -1.0208  0.9836 -0.1794
11769SOL     OW40626   2.962   2.957   9.353 -0.1423  0.2144 -0.2807
11769SOL    HW140627   2.967   2.927   9.262 -1.4313  0.5021 -0.4705
11769SOL    HW240628   2.972   3.052   9.348  0.8019  0.1436 -0.0002
11770SOL     OW40629   5.424   7.215   4.821 -0.2140  0.2750  0.3355
11770SOL    HW140630   5.395   7.130   4.855 -0.6031  0.7983  1.3438
11770SOL    HW240631   5.408   7.276   4.893 -0.5139  1.3178 -0.5887
11771SOL     OW40632   0.232   9.022   9.687 -0.2621 -0.3350 -0.0839
11771SOL    HW140633   0.312   9.072   9.701  0.7879 -2.0901  0.5697
11771SOL    HW240634   0.162   9.087   9.688  0.7144  0.8760  3.3473
11772SOL     OW40635   3.199   7.977   9.957 -0.2617  0.3802  0.2965
11772SOL    HW140636   3.152   7.905  10.000  0.6155 -0.2588  0.2144
11772SOL    HW240637   3.133   8.045   9.946 -1.4999 -0.9387 -0.9089
11773SOL     OW40638   1.860   2.793   6.994 -0.0875  0.0372  0.0772
11773SOL    HW140639   1.931   2.800   7.057 -0.8307 -0.7708  1.0348
11773SOL    HW240640   1.884   2.853   6.924  1.2119  0.2570  0.6866
11774SOL     OW40641   4.840   7.552   4.418 -0.0832  0.0612  0.1762
11774SOL    HW140642   4.786   7.493   4.470 -2.9933  0.6495 -1.9338
11774SOL    HW240643   4.918   7.501   4.396 -1.2341 -2.0265  0.6981
11775SOL     OW40644   6.954   8.959   4.892 -0.0912 -0.2821  0.1848
11775SOL    HW140645   6.862   8.934   4.898  0.0633 -1.4916 -1.5727
11775SOL    HW240646   6.998   8.881   4.857  0.9352  1.3981 -2.6243
11776SOL     OW40647   2.962   8.586   2.370  0.6217  0.1189 -0.2975
11776SOL    HW140648   2.917   8.510   2.406 -1.1484  1.2378 -0.0379
11776SOL    HW240649   3.055   8.567   2.383  0.2625 -2.1019 -0.4981
11777SOL     OW40650  11.020   6.736   9.594 -0.1629  0.1112 -0.4603
11777SOL    HW140651  10.996   6.820   9.555 -1.0172  0.5250  0.8958
11777SOL    HW240652  10.950   6.676   9.568 -0.2624  0.1603 -0.3057
11778SOL     OW40653  10.314   4.831   5.132 -0.2229  0.3217 -0.0499
11778SOL    HW140654  10.249   4.816   5.063  0.4421  1.1845 -0.8990
11778SOL    HW240655  10.352   4.745   5.148 -0.3588  0.1105 -0.8083
11779SOL     OW40656   0.886  11.564   6.244  0.2179 -0.1371  0.6636
11779SOL    HW140657   0.958  11.592   6.188 -1.3749  1.7247 -0.5919
11779SOL    HW240658   0.913  11.590   6.332  0.4510  2.1029  0.0067
11780SOL     OW40659   1.280   8.590   5.821 -0.3735 -0.0198 -0.2116
11780SOL    HW140660   1.365   8.547   5.827 -0.8864 -0.8365  2.2095
11780SOL    HW240661   1.218   8.527   5.856 -1.7007  1.2760 -0.1279
11781SOL     OW40662   5.094   5.425   3.885  0.2745 -0.4178  0.4915
11781SOL    HW140663   5.085   5.356   3.820  0.0257  0.2251 -0.1653
11781SOL    HW240664   5.163   5.482   3.851 -1.1866  0.9983 -0.2139
11782SOL     OW40665  10.702   1.105   9.950 -0.5960  0.6080  0.5200
11782SOL    HW140666  10.670   1.138   9.866 -0.6265  0.5770  0.5198
11782SOL    HW240667  10.784   1.060   9.928 -1.1645 -0.3731  0.3347
11783SOL     OW40668   5.096   8.622   2.474 -0.1743  0.2437  0.3808
11783SOL    HW140669   5.114   8.529   2.457 -1.4284 -0.1271  0.9436
11783SOL    HW240670   5.003   8.625   2.495 -0.2522  1.7063 -0.0590
11784SOL     OW40671   0.107   4.074   3.207 -0.3309 -0.8506 -0.5978
11784SOL    HW140672   0.141   4.071   3.297 -2.4563 -2.2014  0.2619
11784SOL    HW240673   0.083   3.983   3.188 -2.5880 -0.1700 -1.3665
11785SOL     OW40674  10.160   4.174  10.941  0.1912 -1.0110  0.5923
11785SOL    HW140675  10.242   4.199  10.985 -0.7585 -0.2322  1.9790
11785SOL    HW240676  10.091   4.195  11.004 -1.0655 -2.0539 -0.3834
11786SOL     OW40677   4.079   1.441   9.479 -0.6039 -0.3893  0.0732
11786SOL    HW140678   4.059   1.359   9.432 -1.5019 -0.1962  0.1004
11786SOL    HW240679   4.174   1.439   9.490 -0.6993 -1.9094  0.9275
11787SOL     OW40680  11.641   8.430   3.230  0.7343 -0.8254 -0.5261
11787SOL    HW140681  11.556   8.409   3.268  1.7419  0.3743  2.7007
11787SOL    HW240682  11.700   8.362   3.261  1.4387 -0.2930 -0.6552
11788SOL     OW40683  10.174   2.374   3.970  0.3072 -0.4356 -0.4741
11788SOL    HW140684  10.137   2.433   3.904 -1.1060 -1.9026 -1.0698
11788SOL    HW240685  10.261   2.351   3.936 -0.6043 -1.5953 -2.1784
11789SOL     OW40686   9.009  11.383  10.978  0.4083 -0.3583 -0.1274
11789SOL    HW140687   9.072  11.445  10.942  0.4984  2.1205  3.7091
11789SOL    HW240688   9.060  11.329  11.039 -0.3052 -1.9950 -0.9191
11790SOL     OW40689  11.398   8.291   6.691 -0.3025 -0.3564 -0.1594
11790SOL    HW140690  11.406   8.339   6.608  0.5767 -2.9878 -1.6921
11790SOL    HW240691  11.472   8.322   6.743 -0.1862  0.4832 -0.7995
11791SOL     OW40692   8.760   2.131  10.403  0.1409  0.7242 -0.2196
11791SOL    HW140693   8.685   2.129  10.463  0.5102 -2.3465  0.2854
11791SOL    HW240694   8.720   2.137  10.316 -0.6222  0.4691  0.1065
11792SOL     OW40695   7.058   0.322   3.918  0.2243 -0.0393  0.6008
11792SOL    HW140696   6.987   0.258   3.924  0.9806 -1.0262 -0.6907
11792SOL    HW240697   7.114   0.290   3.848  1.4632  1.2229  0.9730
11793SOL     OW40698   2.552   0.902   7.260 -0.1412  0.2748  0.4095
11793SOL    HW140699   2.584   0.873   7.345  2.5407  0.9011 -0.2853
11793SOL    HW240700   2.607   0.855   7.197 -0.8507  1.1683 -0.9345
11794SOL     OW40701   7.091   2.016   2.291  0.6408 -0.1159  0.4677
11794SOL    HW140702   7.154   2.061   2.346  0.6898  0.3004  0.0710
11794SOL    HW240703   7.110   1.923   2.304  0.7285 -0.0170  1.0588
11795SOL     OW40704   3.731   1.336   1.839  0.1978 -0.0259 -0.3144
11795SOL    HW140705   3.802   1.272   1.829 -0.5640 -0.8177 -0.7532
11795SOL    HW240706   3.671   1.296   1.902  0.7654  1.2160  1.0717
11796SOL     OW40707   0.485  10.171   6.573 -0.0292 -0.6939 -0.6248
11796SOL    HW140708   0.568  10.125   6.557 -1.3941 -3.4176 -0.4287
11796SOL    HW240709   0.435  10.160   6.493 -0.4168  0.5394 -0.5739
11797SOL     OW40710   5.836   7.901   0.158  0.0874 -0.3044  0.0153
11797SOL    HW140711   5.918   7.927   0.117 -1.8147  4.0075 -1.6350
11797SOL    HW240712   5.846   7.926   0.250  0.7335 -0.1720 -0.0876
11798SOL     OW40713  11.463   8.782   5.374  0.1874  0.1611  0.1703
11798SOL    HW140714  11.488   8.855   5.431 -1.6034  1.3058 -0.4094
11798SOL    HW240715  11.541   8.765   5.321  0.4243  2.2664 -0.2463
11799SOL     OW40716   8.596   9.305  11.389 -0.0309  0.0985 -0.4235
11799SOL    HW140717   8.570   9.269  11.474  0.0035 -0.0788 -0.4883
11799SOL    HW240718   8.524   9.281  11.331 -0.3633  0.7750 -0.3051
11800SOL     OW40719   8.050   0.583   8.844 -0.9390 -0.2070  0.2258
11800SOL    HW140720   8.037   0.564   8.936  0.3489 -2.6066 -0.0013
11800SOL    HW240721   7.972   0.631   8.818  0.0342  3.4425  3.2022
11801SOL     OW40722   2.618  11.009  10.978  0.1928  0.0019  0.0626
11801SOL    HW140723   2.580  11.087  10.939 -0.7661  0.4133  1.6956
11801SOL    HW240724   2.548  10.972  11.031  0.8560 -1.5663 -0.0984
11802SOL     OW40725   6.844   3.206   4.234  0.1417 -0.0776  0.6864
11802SOL    HW140726   6.856   3.295   4.269  0.5229  0.4506 -0.7098
11802SOL    HW240727   6.824   3.220   4.142 -1.4908 -1.3926  0.7901
11803SOL     OW40728   0.167   3.136   9.326 -0.0702 -0.4092 -0.1029
11803SOL    HW140729   0.108   3.211   9.323  1.0256  0.5762  1.5047
11803SOL    HW240730   0.249   3.168   9.287 -0.2112 -1.4093 -1.2659
11804SOL     OW40731   9.448   9.594   3.305 -0.4504 -0.0695  0.3719
11804SOL    HW140732   9.466   9.659   3.373  0.7489  0.2910 -0.2668
11804SOL    HW240733   9.524   9.599   3.246 -2.0612  0.6528 -1.7942
11805SOL     OW40734   9.722   0.226   6.922 -0.2971 -0.0817  0.0324
11805SOL    HW140735   9.805   0.225   6.970 -0.1697 -1.9533 -0.1836
11805SOL    HW240736   9.747   0.219   6.830 -0.6851  0.0261 -0.0850
11806SOL     OW40737   8.042   1.537   3.029  0.0132  0.3939  0.1854
11806SOL    HW140738   8.096   1.494   3.094  0.1137  0.0351 -0.1302
11806SOL    HW240739   7.970   1.476   3.014  1.2312 -0.6628 -1.7907
11807SOL     OW40740   9.768  11.114   9.705  0.6664  0.3411 -0.2508
11807SOL    HW140741   9.698  11.054   9.729  2.3061 -0.4586  3.0974
11807SOL    HW240742   9.745  11.196   9.748  0.6215  0.8112 -1.1521
11808SOL     OW40743   1.223   6.551   0.667 -0.4165  0.0022 -0.3487
11808SOL    HW140744   1.199   6.617   0.602  2.7939 -0.1472 -1.8970
11808SOL    HW240745   1.223   6.468   0.618 -0.8811 -0.6050  0.6516
11809SOL     OW40746   2.904   5.875   7.510 -0.0360 -0.2272 -0.2883
11809SOL    HW140747   2.954   5.819   7.570 -0.2563  0.1168  0.2209
11809SOL    HW240748   2.850   5.813   7.460  0.2352 -0.5262 -0.2183
11810SOL     OW40749   3.449   1.120  10.404  0.2202 -0.5875  0.5792
11810SOL    HW140750   3.508   1.045  10.399  1.4141  0.2507  1.5005
11810SOL    HW240751   3.497   1.191  10.360 -1.2885 -0.5601 -1.1566
11811SOL     OW40752   8.056   1.435   8.711  0.5342 -0.3205 -0.4683
11811SOL    HW140753   8.069   1.340   8.707  1.4750 -0.1693 -1.8219
11811SOL    HW240754   8.145   1.471   8.722  0.3105  0.4308 -1.0327
11812SOL     OW40755   3.460   7.160   3.553 -0.0784  0.2039  0.2830
11812SOL    HW140756   3.454   7.161   3.457  0.0043  2.0549  0.2676
11812SOL    HW240757   3.503   7.242   3.575 -2.7680  1.2618  2.0741
11813SOL     OW40758   6.281   1.198  10.713 -0.5905 -0.2723  0.2071
11813SOL    HW140759   6.235   1.229  10.636 -0.1313  2.2634  0.8359
11813SOL    HW240760   6.370   1.232  10.703  0.3138 -2.3861  0.5045
11814SOL     OW40761   1.774   1.500   8.631  0.3080 -0.7730  0.5571
11814SOL    HW140762   1.784   1.595   8.635  2.6013 -0.9026 -0.6674
11814SOL    HW240763   1.850   1.465   8.677  0.0678 -2.0232  0.0524
11815SOL     OW40764   6.400   6.357   2.220 -0.3375 -0.0918 -0.1123
11815SOL    HW140765   6.348   6.297   2.168  1.2252  0.7833 -2.8775
11815SOL    HW240766   6.350   6.439   2.219 -1.1285 -0.5181  1.3167
11816SOL     OW40767  10.740   8.838   7.241 -0.1156 -0.0360 -0.2270
11816SOL    HW140768  10.796   8.792   7.304 -0.1402 -0.0782 -0.2359
11816SOL    HW240769  10.684   8.894   7.294  0.9711  1.1647 -0.2947
11817SOL     OW40770  11.016   1.913   8.427 -0.1807 -0.1286  0.2434
11817SOL    HW140771  11.039   1.979   8.492  2.7161 -0.6298 -0.1518
11817SOL    HW240772  11.021   1.830   8.474  0.2072 -0.3626 -0.2033
11818SOL     OW40773   9.436   5.057  10.181  0.2979 -0.1514 -0.1404
11818SOL    HW140774   9.371   5.095  10.121  0.1480  0.5897  0.4737
11818SOL    HW240775   9.385   5.006  10.243  0.2456  0.7511  0.5805
11819SOL     OW40776   5.697   5.902   6.660  0.0007 -0.5614  0.0765
11819SOL    HW140777   5.670   5.970   6.599 -1.3919  0.0539  1.2954
11819SOL    HW240778   5.777   5.865   6.623 -0.0256  0.7470 -1.3499
11820SOL     OW40779   5.934   5.386   4.651  0.1765  0.6684  0.1910
11820SOL    HW140780   5.920   5.313   4.591 -0.3922  0.5191  0.4968
11820SOL    HW240781   6.023   5.372   4.685  0.4517  0.6826 -0.5068
11821SOL     OW40782   7.893   7.103   1.441  0.1870 -0.0695 -0.2383
11821SOL    HW140783   7.976   7.118   1.395  1.6133 -0.5351  2.0508
11821SOL    HW240784   7.901   7.151   1.523 -1.6170 -0.5886  0.3013
11822SOL     OW40785   3.053   2.454   0.259 -0.0412 -0.0742  0.0184
11822SOL    HW140786   3.035   2.542   0.226 -0.3605  0.2508  1.0108
11822SOL    HW240787   3.136   2.464   0.307 -0.0204 -0.3383  0.0369
11823SOL     OW40788   3.237  10.644  11.004 -0.2636 -0.3546  0.3688
11823SOL    HW140789   3.155  10.691  11.019  0.6744  1.9462 -1.1973
11823SOL    HW240790   3.228  10.606  10.917  0.8812  1.2693 -0.4996
11824SOL     OW40791  10.172   2.863   2.671  0.1286 -0.2753 -0.0810
11824SOL    HW140792  10.099   2.920   2.695 -0.1665 -0.6929  0.0083
11824SOL    HW240793  10.207   2.902   2.590  0.9526  0.9714  0.8419
11825SOL     OW40794   7.045   6.757   5.250  0.2804  0.2477 -0.8076
11825SOL    HW140795   6.956   6.792   5.249 -0.1178 -0.7217 -0.3467
11825SOL    HW240796   7.100   6.830   5.221 -0.7351  0.6476 -1.7743
11826SOL     OW40797  10.467  10.265  10.185 -0.0471  0.0668 -0.3867
11826SOL    HW140798  10.543  10.323  10.184  0.6213 -0.7858 -0.1637
11826SOL    HW240799  10.416  10.293  10.261  0.1273  0.5236 -0.4320
11827SOL     OW40800   1.019   9.442  10.090 -0.0658 -0.6467 -0.3566
11827SOL    HW140801   0.997   9.480  10.175 -0.2624  0.2367 -0.7863
11827SOL    HW240802   1.071   9.365  10.110  1.8522  0.8118  0.5191
11828SOL     OW40803   5.281   7.405  10.614  0.3181 -0.3034  0.0992
11828SOL    HW140804   5.257   7.454  10.693 -1.2490  0.8363 -1.0108
11828SOL    HW240805   5.205   7.349  10.596 -0.8513  1.8354 -2.3296
11829SOL     OW40806   7.762  10.929  11.079 -0.6919 -0.1086  0.0180
11829SOL    HW140807   7.813  10.852  11.104 -1.1763  0.0493  1.6102
11829SOL    HW240808   7.809  10.966  11.004  1.6271  0.1018  1.4752
11830SOL     OW40809  11.646   3.873  10.382  0.4392 -0.0157 -0.6381
11830SOL    HW140810  11.665   3.898  10.473  2.0595 -0.1282 -0.9182
11830SOL    HW240811  11.591   3.795  10.389 -0.5119  0.6971  0.2282
11831SOL     OW40812   4.888   0.977  10.371 -0.2388  0.5040 -0.0124
11831SOL    HW140813   4.859   1.062  10.338  0.8200  0.4958 -1.0219
11831SOL    HW240814   4.975   0.965  10.335 -0.5213 -1.2116 -0.2505
11832SOL     OW40815   2.148   4.894   3.085  0.1349 -0.4312 -0.5988
11832SOL    HW140816   2.081   4.827   3.096 -1.8138  1.7024  1.6897
11832SOL    HW240817   2.214   4.874   3.152 -0.7867  0.2267  0.5497
11833SOL     OW40818   7.157   8.276   0.272 -0.5611  0.3822  0.4087
11833SOL    HW140819   7.209   8.326   0.335 -0.7385 -0.3740  1.1809
11833SOL    HW240820   7.220   8.250   0.204 -0.3540  1.1455  0.3028
11834SOL     OW40821   2.269  11.038   4.116  0.1733 -1.1204  0.1109
11834SOL    HW140822   2.231  10.973   4.176  0.2601 -1.1651  0.1176
11834SOL    HW240823   2.289  10.988   4.037  1.2753 -1.3385  0.5163
11835SOL     OW40824   4.457   4.283   9.607  0.0821  0.4791  0.2821
11835SOL    HW140825   4.475   4.297   9.514 -0.4241 -0.0332  0.1001
11835SOL    HW240826   4.362   4.291   9.615 -0.0465 -0.9352  0.4760
11836SOL     OW40827   7.221  10.547   1.863  0.5840  0.2720  0.0110
11836SOL    HW140828   7.311  10.574   1.846  0.4546  1.4006  0.9808
11836SOL    HW240829   7.169  10.595   1.799  0.6140  0.0547 -0.1786
11837SOL     OW40830   5.541   8.102   5.579 -0.2360  0.2264  0.4412
11837SOL    HW140831   5.583   8.186   5.594  0.4261  0.2137 -1.1314
11837SOL    HW240832   5.458   8.123   5.538 -0.5981  0.1481  1.1236
11838SOL     OW40833   4.157   1.037   5.323 -0.8942  0.3686 -0.8413
11838SOL    HW140834   4.154   1.132   5.307 -1.2349  0.3763 -0.7157
11838SOL    HW240835   4.222   1.027   5.393  1.0734  0.2907 -2.5591
11839SOL     OW40836   9.326   0.442   8.360 -0.1124 -0.5197 -0.6929
11839SOL    HW140837   9.255   0.383   8.335  0.7610 -2.2286  0.6552
11839SOL    HW240838   9.375   0.457   8.280 -0.7255 -1.1211 -1.1894
11840SOL     OW40839   2.349   8.062   8.830 -0.1956  0.8857  0.1912
11840SOL    HW140840   2.306   8.101   8.907 -1.0111 -0.6855  0.5581
11840SOL    HW240841   2.284   8.070   8.761 -1.4494 -2.0226  0.8875
11841SOL     OW40842   8.971   9.052   0.530  0.1460  0.4829  0.0525
11841SOL    HW140843   8.999   9.087   0.446 -0.3053 -0.1264 -0.3622
11841SOL    HW240844   8.888   9.096   0.549 -0.5616 -0.5360 -0.6026
11842SOL     OW40845  10.155   1.585   3.396  0.0124  0.4438 -0.1223
11842SOL    HW140846  10.149   1.506   3.342  0.6400  0.1829  0.1770
11842SOL    HW240847  10.067   1.621   3.396 -0.1414  0.0800 -0.7752
11843SOL     OW40848   6.827   9.730   9.301  0.4598 -0.3769  0.4149
11843SOL    HW140849   6.883   9.799   9.338 -1.4790  0.8269  1.2809
11843SOL    HW240850   6.794   9.682   9.377  2.6340 -3.0877 -0.2090
11844SOL     OW40851   9.304  11.173   9.583 -0.0773  0.4853  0.1302
11844SOL    HW140852   9.346  11.215   9.658 -0.0550  2.0255 -0.7103
11844SOL    HW240853   9.375  11.157   9.522 -0.0832 -0.8437  0.4365
11845SOL     OW40854   2.460   2.133   4.561  0.1480 -0.3540 -0.0384
11845SOL    HW140855   2.443   2.039   4.553 -1.3765 -0.3030  1.8976
11845SOL    HW240856   2.486   2.146   4.652 -0.0800  1.1587 -0.1599
11846SOL     OW40857   7.944   4.960   8.416  0.0430 -0.7454 -0.2330
11846SOL    HW140858   8.031   4.995   8.400  0.7802 -2.5007 -0.2689
11846SOL    HW240859   7.921   4.914   8.335 -1.9077  1.5022 -1.0976
11847SOL     OW40860   4.087   5.550   2.399  0.2506 -0.0969  0.0569
11847SOL    HW140861   4.132   5.471   2.369  0.3350 -0.0391  0.0286
11847SOL    HW240862   4.082   5.540   2.494  0.9031  0.1939  0.1286
11848SOL     OW40863  11.070   8.607   2.603 -0.0788 -0.2849  0.3313
11848SOL    HW140864  11.135   8.560   2.551 -0.1337  0.5845 -0.5471
11848SOL    HW240865  11.085   8.577   2.693  0.8118 -0.9025 -0.0103
11849SOL     OW40866   7.435   4.860   7.151 -0.4794 -0.6212  0.6057
11849SOL    HW140867   7.440   4.764   7.153 -0.3791 -0.6113  0.8835
11849SOL    HW240868   7.420   4.881   7.059  2.8102 -0.7542 -0.0802
11850SOL     OW40869   0.113   3.892   1.126 -0.2192  0.1209  0.1537
11850SOL    HW140870   0.138   3.983   1.109  1.5135 -0.4148 -0.3897
11850SOL    HW240871   0.177   3.861   1.190 -1.2756 -0.4952  0.9300
11851SOL     OW40872   0.769   4.825   4.440 -0.0783  0.1053  0.3416
11851SOL    HW140873   0.770   4.888   4.512  0.1964  1.1822 -0.5642
11851SOL    HW240874   0.855   4.782   4.444  0.1368  0.5313  0.3514
11852SOL     OW40875   7.595  11.670   3.819  0.3482  0.1407 -0.1607
11852SOL    HW140876   7.617  11.577   3.817  2.1996  0.5332 -1.5152
11852SOL    HW240877   7.583  11.690   3.912  0.0393 -1.4051  0.1579
11853SOL     OW40878  10.831   7.973   5.516  0.2874 -0.1437 -0.0944
11853SOL    HW140879  10.925   7.964   5.534  0.2034  0.7557  0.8713
11853SOL    HW240880  10.803   8.046   5.570 -1.4607 -1.8160  1.4212
11854SOL     OW40881   3.064   1.436   5.035 -0.0561  0.6830  0.0127
11854SOL    HW140882   3.123   1.472   4.968 -0.3896  1.3001  0.0437
11854SOL    HW240883   3.109   1.454   5.118 -0.1703  0.9382  0.0210
11855SOL     OW40884  11.587   5.113  11.522  0.4615 -0.6714 -0.2698
11855SOL    HW140885  11.613   5.161  11.601  2.5295 -1.3041 -0.5114
11855SOL    HW240886  11.564   5.182  11.460  0.0033 -0.1293  0.4706
11856SOL     OW40887   5.825   3.723   6.087 -0.2508  0.5578  0.2499
11856SOL    HW140888   5.776   3.795   6.126 -0.7269  0.2684  0.1906
11856SOL    HW240889   5.798   3.646   6.138 -2.0554 -0.1108 -1.5802
11857SOL     OW40890   5.953   0.302   2.393 -0.8030  0.4083 -1.0519
11857SOL    HW140891   5.971   0.341   2.308 -1.4091 -0.2856 -1.5157
11857SOL    HW240892   6.023   0.238   2.405 -0.7594  0.4531 -1.0687
11858SOL     OW40893   7.437   0.700   5.481  0.0974 -0.1709 -0.0909
11858SOL    HW140894   7.506   0.744   5.431  0.3520  0.4270  0.7618
11858SOL    HW240895   7.384   0.655   5.415  1.2760 -0.6171 -0.7618
11859SOL     OW40896   4.060   1.630   7.360  0.1694  0.3267  0.4080
11859SOL    HW140897   4.088   1.541   7.342  0.2848  0.5520 -0.6100
11859SOL    HW240898   3.967   1.623   7.380 -0.5692  0.2486 -2.5533
11860SOL     OW40899   8.788   1.332   5.059 -0.2178 -0.1706  0.6098
11860SOL    HW140900   8.701   1.296   5.043  0.1053 -0.0614 -1.7749
11860SOL    HW240901   8.812   1.299   5.145 -1.8035 -1.8658  0.4621
11861SOL     OW40902  10.863   8.876   5.747  0.2497  0.4205  0.0584
11861SOL    HW140903  10.831   8.851   5.660  0.9990 -0.3061 -0.0169
11861SOL    HW240904  10.948   8.833   5.755  0.4427  0.9397  0.9333
11862SOL     OW40905   3.300  10.287   2.411 -0.3251 -0.5578 -0.0976
11862SOL    HW140906   3.338  10.298   2.324  0.5332 -0.7380  0.2438
11862SOL    HW240907   3.371  10.311   2.471 -0.2379 -2.3719  0.5834
11863SOL     OW40908   7.907   3.352  10.447  0.5524  0.4739 -0.2863
11863SOL    HW140909   7.825   3.371  10.494  0.7001  1.7896 -0.5079
11863SOL    HW240910   7.976   3.385  10.505  0.8170  0.8827 -0.8288
11864SOL     OW40911   7.726  10.809   3.623  0.5870 -0.0028  0.0117
11864SOL    HW140912   7.728  10.809   3.527  2.3799  0.3687  0.0113
11864SOL    HW240913   7.741  10.718   3.647  1.3132  0.0870 -0.0765
11865SOL     OW40914   6.943   6.156   6.472  0.5927 -0.5834 -0.6198
11865SOL    HW140915   7.034   6.185   6.473  0.9402 -1.4400  2.1229
11865SOL    HW240916   6.891   6.236   6.464  1.5638  0.0171 -0.9943
11866SOL     OW40917   6.283   3.088   6.174  0.2501 -0.1047 -0.4473
11866SOL    HW140918   6.280   3.180   6.202 -0.2362  0.2805 -1.6877
11866SOL    HW240919   6.300   3.039   6.254 -0.5489  0.9798  0.4219
11867SOL     OW40920   3.909   8.082   5.573 -0.0108 -0.2380 -0.1573
11867SOL    HW140921   3.880   8.105   5.661  0.1509 -0.6310  0.0025
11867SOL    HW240922   3.833   8.039   5.533 -0.5730  1.2141 -0.7262
11868SOL     OW40923   5.387   6.267  11.780 -0.2888  0.4902 -0.0303
11868SOL    HW140924   5.311   6.214  11.805  1.3905 -2.0625  0.0089
11868SOL    HW240925   5.448   6.258  11.853 -0.0059  2.7250  0.0612
11869SOL     OW40926   1.912   6.052   1.393  0.4032  0.0821  0.2662
11869SOL    HW140927   1.926   5.973   1.444 -0.7112 -0.8139 -0.7651
11869SOL    HW240928   1.927   6.026   1.302  0.3138  1.1176 -0.0606
11870SOL     OW40929  11.399   9.698   2.222 -0.0320  0.3982  0.4684
11870SOL    HW140930  11.312   9.709   2.183  0.6393  0.5714 -1.0647
11870SOL    HW240931  11.404   9.766   2.289 -1.4926 -0.3570  1.4019
11871SOL     OW40932   5.051   2.728   7.266  0.1233  0.3445  0.0326
11871SOL    HW140933   4.988   2.737   7.338  1.7441 -0.8906  1.7223
11871SOL    HW240934   5.127   2.778   7.295  0.8331 -0.2121 -0.8341
11872SOL     OW40935   7.344   6.684   6.352  0.3787 -0.3026  0.0805
11872SOL    HW140936   7.312   6.702   6.440  1.6270  1.1055  0.2905
11872SOL    HW240937   7.436   6.663   6.363  1.1404  2.0979 -1.0227
11873SOL     OW40938   9.877   5.693   1.519 -0.3989 -0.2752 -0.3898
11873SOL    HW140939   9.920   5.662   1.599  0.5215  0.7718 -0.4477
11873SOL    HW240940   9.784   5.677   1.533 -0.0675 -2.0113  0.0233
11874SOL     OW40941   2.401   3.297   6.942  0.2293  0.1940  0.6318
11874SOL    HW140942   2.388   3.202   6.947 -0.9743  0.2508 -0.7572
11874SOL    HW240943   2.340   3.333   7.008 -1.1846  0.0890 -0.5719
11875SOL     OW40944   0.404  11.203   7.102  0.6741  0.5636 -0.5775
11875SOL    HW140945   0.398  11.126   7.159  0.4667  0.1572 -1.1442
11875SOL    HW240946   0.475  11.183   7.041  1.0417  1.0908 -0.3314
11876SOL     OW40947   0.141   5.536   3.675 -0.4843 -0.4871  0.7352
11876SOL    HW140948   0.209   5.581   3.626  0.3953 -1.8089  0.7052
11876SOL    HW240949   0.188   5.474   3.731 -1.6528 -1.4159  0.7232
11877SOL     OW40950   6.663   9.840   9.570  0.1734 -0.3211 -0.2353
11877SOL    HW140951   6.751   9.864   9.538  0.5968 -1.3613  0.1000
11877SOL    HW240952   6.648   9.898   9.645 -0.6099  1.7835 -1.9116
11878SOL     OW40953  11.426   0.781  10.073 -0.6289  0.4682 -0.6526
11878SOL    HW140954  11.382   0.717  10.017 -2.6262  0.3821  0.9191
11878SOL    HW240955  11.514   0.746  10.084 -1.4916 -1.7123 -0.3189
11879SOL     OW40956  11.608   7.819  11.554 -0.2544 -0.3590  0.6062
11879SOL    HW140957  11.538   7.883  11.548  0.0895 -0.0040  0.3057
11879SOL    HW240958  11.657   7.843  11.632 -0.2126 -0.3401  0.5750
11880SOL     OW40959   2.082   9.802   1.020 -0.2014  0.0593 -0.5576
11880SOL    HW140960   2.053   9.790   1.110 -1.0523 -1.8634 -1.0526
11880SOL    HW240961   2.156   9.742   1.009 -2.1960 -2.2789 -2.0404
11881SOL     OW40962  10.833   8.575   1.003  0.2782  0.0929  0.0923
11881SOL    HW140963  10.871   8.520   0.934 -0.1196 -0.2267  0.1280
11881SOL    HW240964  10.888   8.560   1.079 -0.3174 -0.8949  0.3403
11882SOL     OW40965   3.041   9.948  11.524  0.1976 -0.2900  0.1965
11882SOL    HW140966   2.954   9.910  11.536 -0.1879  0.0107 -1.4359
11882SOL    HW240967   3.091   9.880  11.477  1.6177 -1.3997  3.0510
11883SOL     OW40968   1.342   4.977   7.619 -0.7281 -0.3422 -0.1585
11883SOL    HW140969   1.426   5.009   7.650  0.6073 -1.5537 -2.3136
11883SOL    HW240970   1.280   5.045   7.644  0.9759  0.9104  0.8687
11884SOL     OW40971   3.583   9.694   3.222 -0.3127  0.0293  0.2567
11884SOL    HW140972   3.607   9.780   3.256 -0.9002 -0.2157  1.3326
11884SOL    HW240973   3.630   9.632   3.278  3.3301 -0.4469 -2.8255
11885SOL     OW40974   5.462   8.392   8.317 -0.5696 -0.9308 -0.0101
11885SOL    HW140975   5.437   8.308   8.355  2.8961 -2.0580  0.1740
11885SOL    HW240976   5.514   8.434   8.386 -2.6416  1.7054  0.0938
11886SOL     OW40977   1.067   5.077   3.919 -1.0361  0.0357  0.0669
11886SOL    HW140978   1.000   5.126   3.966 -1.0543 -0.3724  0.4781
11886SOL    HW240979   1.150   5.105   3.959 -0.8880  1.0537 -0.9019
11887SOL     OW40980   3.002   6.179   0.596 -0.0026  0.4779 -0.2028
11887SOL    HW140981   2.958   6.096   0.613 -0.0866  0.2306 -1.5752
11887SOL    HW240982   2.948   6.244   0.641  0.3957 -0.2434  1.3962
11888SOL     OW40983   3.492   3.468   5.240  0.5046 -0.5165 -0.0787
11888SOL    HW140984   3.418   3.442   5.184 -0.5218  1.0587  0.4835
11888SOL    HW240985   3.544   3.388   5.248  0.0706 -1.1181 -2.3014
11889SOL     OW40986   9.652  11.168  10.788  0.4808  0.2867 -0.1946
11889SOL    HW140987   9.665  11.166  10.693 -0.8577  0.6121 -0.4047
11889SOL    HW240988   9.561  11.142  10.800  0.8570 -0.5496  1.0741
11890SOL     OW40989  10.425   6.119   2.563  0.4679  0.5601  0.1284
11890SOL    HW140990  10.493   6.051   2.564 -0.1341 -0.1496  3.2099
11890SOL    HW240991  10.342   6.071   2.561  0.0353  1.1796  1.8589
11891SOL     OW40992   6.550   4.947   9.742 -0.0476 -0.5979  0.0009
11891SOL    HW140993   6.554   4.929   9.836  4.5342  0.7689  0.2895
11891SOL    HW240994   6.499   5.028   9.736  0.9729  0.2301  1.5908
11892SOL     OW40995   8.310   7.881   8.979 -0.0629 -0.3615 -0.3317
11892SOL    HW140996   8.291   7.787   8.977 -1.7861 -0.2266  2.7685
11892SOL    HW240997   8.237   7.922   8.932 -1.0888 -0.4871  1.0726
11893SOL     OW40998   5.999   3.061   2.879 -0.6381  0.5273 -0.0589
11893SOL    HW140999   6.045   3.084   2.960 -2.2254 -2.0262  1.6900
11893SOL    HW241000   6.054   2.994   2.838 -1.2267 -0.2651  0.4250
11894SOL     OW41001   1.000   3.258  11.704 -0.4497  0.0586  0.3172
11894SOL    HW141002   0.912   3.288  11.725 -1.5542 -1.5349 -1.6803
11894SOL    HW241003   1.034   3.324  11.643 -0.5462  0.2818  0.5027
11895SOL     OW41004   1.721   8.505   8.524  0.1599  0.4215  0.2362
11895SOL    HW141005   1.664   8.449   8.471  0.6883 -0.4025  0.5198
11895SOL    HW241006   1.735   8.584   8.471 -0.7075  0.3510 -0.1101
11896SOL     OW41007   7.848  10.164   8.100 -0.1942 -0.5590 -0.4668
11896SOL    HW141008   7.909  10.096   8.072 -0.6665 -0.6881 -1.2035
11896SOL    HW241009   7.793  10.121   8.165  0.3568 -0.4996  0.0519
11897SOL     OW41010   3.243   3.604   7.362  0.4571 -0.4163 -0.4580
11897SOL    HW141011   3.234   3.646   7.277  0.3121 -0.1177 -0.3008
11897SOL    HW241012   3.171   3.541   7.366 -0.3776  0.5213 -0.0267
11898SOL     OW41013   7.504   5.293   1.448  0.5408  0.0770  0.3630
11898SOL    HW141014   7.513   5.336   1.534  0.9307 -0.9225  0.8456
11898SOL    HW241015   7.416   5.316   1.419 -0.0168 -0.4528  1.5503
11899SOL     OW41016   9.413   2.914   8.866  0.4416 -0.1165 -0.3530
11899SOL    HW141017   9.425   3.000   8.827 -0.5392  0.1084 -0.1930
11899SOL    HW241018   9.483   2.906   8.930  0.2432  0.7735 -0.0126
11900SOL     OW41019   7.967   7.611   1.883  0.1786 -0.1862 -0.1786
11900SOL    HW141020   7.924   7.534   1.921 -0.4731  0.6053  0.7433
11900SOL    HW241021   8.057   7.607   1.915  0.2181 -0.6902 -0.3402
11901SOL     OW41022  11.486   1.849   3.183  0.7120  0.1713  0.2588
11901SOL    HW141023  11.467   1.921   3.243 -0.2330 -0.4889  0.7762
11901SOL    HW241024  11.440   1.872   3.102  0.8713  0.4188  0.2397
11902SOL     OW41025  11.032  10.077   5.376  0.0197  0.1667 -0.3063
11902SOL    HW141026  11.076  10.155   5.341 -1.2226  1.3686  0.7091
11902SOL    HW241027  10.961  10.111   5.430  0.7311 -1.6329  1.9330
11903SOL     OW41028   8.536   3.139   8.838  0.0119  0.1849  0.3114
11903SOL    HW141029   8.450   3.108   8.810 -0.6087  1.8481  0.2829
11903SOL    HW241030   8.566   3.073   8.901 -1.8976  0.2440  1.3708
11904SOL     OW41031   3.353   8.459   8.110 -0.3618  0.2514 -0.0810
11904SOL    HW141032   3.344   8.365   8.124 -1.8473  0.0676 -1.8049
11904SOL    HW241033   3.291   8.499   8.172 -1.3775 -0.0812 -0.8464
11905SOL     OW41034   1.532  10.902   3.536 -0.4173  0.6909  0.0812
11905SOL    HW141035   1.539  10.809   3.515 -1.0639  0.4354  0.9477
11905SOL    HW241036   1.589  10.914   3.612 -0.0042  1.0980 -0.2847
11906SOL     OW41037   9.110  10.214   9.652  0.2239  0.9906 -0.0923
11906SOL    HW141038   9.200  10.205   9.683  0.0643  0.7543  0.3126
11906SOL    HW241039   9.101  10.148   9.584 -0.5383 -1.1333  1.9459
11907SOL     OW41040  10.652   2.908   8.465 -0.3786 -0.8660  0.1268
11907SOL    HW141041  10.681   2.997   8.445  0.0686 -1.0849 -0.2274
11907SOL    HW241042  10.557   2.915   8.474 -0.2714 -0.2130  0.8793
11908SOL     OW41043   6.214   3.237   1.300  0.2373  0.0338  0.3540
11908SOL    HW141044   6.216   3.298   1.226  0.0925 -1.8322 -1.2640
11908SOL    HW241045   6.232   3.292   1.377  1.3032  1.9038 -1.1394
11909SOL     OW41046   1.445   0.196   6.601 -0.0859  0.1411 -0.1500
11909SOL    HW141047   1.513   0.170   6.538 -0.3688  2.7466 -1.7110
11909SOL    HW241048   1.477   0.278   6.638 -1.9682  0.9915 -0.2818
11910SOL     OW41049   6.799  11.412  11.253  0.4250 -0.1982 -0.3191
11910SOL    HW141050   6.763  11.472  11.188  1.4372  2.6696  1.5414
11910SOL    HW241051   6.722  11.371  11.292 -0.3069 -0.2295 -1.7220
11911SOL     OW41052   3.508   6.428  10.793  0.0672 -0.3172 -0.2776
11911SOL    HW141053   3.458   6.424  10.874  1.2449 -1.2027  0.4399
11911SOL    HW241054   3.462   6.370  10.733 -0.7295  0.2339 -0.2089
11912SOL     OW41055   3.817   0.089   7.725 -0.1416 -0.0816 -0.1377
11912SOL    HW141056   3.731   0.124   7.700 -0.4470 -1.6836 -1.5114
11912SOL    HW241057   3.866   0.085   7.643  0.9550 -0.0222  0.4936
11913SOL     OW41058  11.386   3.325   8.899  0.0751  0.2617  0.0631
11913SOL    HW141059  11.428   3.341   8.814 -0.1454  0.8852  0.0710
11913SOL    HW241060  11.400   3.231   8.915 -1.5381 -0.2920 -1.5498
11914SOL     OW41061  10.904  10.965   0.435  0.2494 -0.0513 -0.0300
11914SOL    HW141062  10.912  11.047   0.483  1.5699 -0.4045  0.4136
11914SOL    HW241063  10.989  10.921   0.449 -0.4130 -1.4742 -0.2517
11915SOL     OW41064   4.393   5.116   5.337 -0.0312 -0.1844 -0.0487
11915SOL    HW141065   4.428   5.042   5.286  1.5469 -0.7013  1.6835
11915SOL    HW241066   4.402   5.089   5.428 -1.2878  1.3740  0.5805
11916SOL     OW41067   6.066   5.506   3.142  0.2264  0.3094 -0.4954
11916SOL    HW141068   5.994   5.510   3.205 -0.7874  1.6722 -1.6608
11916SOL    HW241069   6.033   5.453   3.070  0.8471 -0.0635 -0.5141
11917SOL     OW41070   8.288   4.140   4.831 -0.6592 -0.3117  0.2425
11917SOL    HW141071   8.311   4.064   4.779 -0.9409 -0.7115  0.6970
11917SOL    HW241072   8.352   4.142   4.902 -0.7809 -0.2449  0.3512
11918SOL     OW41073   9.344   9.129   6.270  0.0087 -0.1316  0.3755
11918SOL    HW141074   9.345   9.136   6.175  0.4188 -0.9809  0.3081
11918SOL    HW241075   9.306   9.212   6.300 -0.9434 -0.2102 -0.5493
11919SOL     OW41076   3.372   7.348   0.447 -0.3279  0.1006  0.2580
11919SOL    HW141077   3.289   7.392   0.465  0.3638  1.6199 -0.1365
11919SOL    HW241078   3.386   7.362   0.353  0.7540  0.5397  0.4812
11920SOL     OW41079   3.355   8.323   5.917  0.1374 -0.0595  0.9120
11920SOL    HW141080   3.410   8.397   5.944  1.0517  0.3753 -1.8228
11920SOL    HW241081   3.327   8.346   5.829  0.8239 -3.1509 -0.2101
11921SOL     OW41082   2.703   0.220   6.194  0.5036  0.2149 -0.0040
11921SOL    HW141083   2.633   0.155   6.196 -0.5791  1.3575  1.3392
11921SOL    HW241084   2.712   0.242   6.102  0.0063 -0.8951 -0.3389
11922SOL     OW41085   8.679   4.730   0.168 -0.4853 -0.4844  0.0361
11922SOL    HW141086   8.636   4.647   0.147 -0.5574 -0.4619  0.0942
11922SOL    HW241087   8.758   4.705   0.216 -1.5295 -0.4621  1.8721
11923SOL     OW41088   7.095   5.837   4.880 -0.2966  0.2542  0.0649
11923SOL    HW141089   7.186   5.825   4.855 -0.8891 -0.6691 -1.8928
11923SOL    HW241090   7.070   5.754   4.920 -0.2445  0.5552  0.7249
11924SOL     OW41091   1.989   2.916   8.941 -0.8118 -0.0145  0.3852
11924SOL    HW141092   1.914   2.932   8.998 -0.6407  2.4236  0.0065
11924SOL    HW241093   1.961   2.948   8.855  0.7950  1.3452  0.3382
11925SOL     OW41094   2.085  10.994   7.257  0.1043  0.1858  0.1468
11925SOL    HW141095   2.133  10.928   7.306 -1.5557 -0.3855  1.0972
11925SOL    HW241096   2.131  11.001   7.174  1.2101 -1.0527  0.6223
11926SOL     OW41097   5.023  10.389   9.878 -0.1539 -0.6375  0.2419
11926SOL    HW141098   5.111  10.370   9.846  1.0482  0.2262  2.7499
11926SOL    HW241099   4.977  10.305   9.875  1.0808 -1.3207 -0.1078
11927SOL     OW41100   2.887  11.156  11.178  0.4862 -0.8070 -0.0260
11927SOL    HW141101   2.968  11.205  11.190  0.4520 -0.8929  0.6270
11927SOL    HW241102   2.848  11.193  11.099  1.4047 -1.1196 -0.6343
11928SOL     OW41103  11.071   4.485   7.692  0.3618 -0.1790  0.1210
11928SOL    HW141104  11.012   4.489   7.616  1.9237 -0.3107 -1.1629
11928SOL    HW241105  11.043   4.557   7.748 -2.7615 -1.8792  0.9541
11929SOL     OW41106  11.250   9.239   0.462  0.2739  0.4159  0.6562
11929SOL    HW141107  11.236   9.291   0.542 -0.3683  0.1268  0.7412
11929SOL    HW241108  11.177   9.177   0.462  1.4756 -1.0543  0.9997
11930SOL     OW41109   2.962   2.998   8.852  1.1578 -0.6885 -0.5880
11930SOL    HW141110   3.052   3.029   8.846  0.7282  1.3539  1.5926
11930SOL    HW241111   2.909   3.075   8.829 -0.0433 -1.8250 -1.7510
11931SOL     OW41112  10.940   1.729  11.716  0.0943  0.3332 -0.5701
11931SOL    HW141113  10.957   1.807  11.769  0.8775  1.0652 -1.8501
11931SOL    HW241114  10.852   1.743  11.682 -1.3001 -1.1221  2.1004
11932SOL     OW41115   8.963   3.096   0.775 -0.3917 -0.4019  0.2812
11932SOL    HW141116   8.897   3.152   0.816 -2.2178 -1.8148 -0.5765
11932SOL    HW241117   8.970   3.021   0.834 -0.7856 -1.0211 -0.4410
11933SOL     OW41118   8.881   8.711   4.324 -0.1890 -0.1992 -0.3761
11933SOL    HW141119   8.945   8.640   4.317 -1.4871 -1.4283 -0.2421
11933SOL    HW241120   8.886   8.739   4.416 -0.6406 -1.0868 -0.0709
11934SOL     OW41121   7.858   5.673   5.781 -0.1206  0.1492 -0.3086
11934SOL    HW141122   7.903   5.665   5.697 -0.7494 -0.9554 -0.5579
11934SOL    HW241123   7.831   5.584   5.803 -0.2724  0.4658  0.9047
11935SOL     OW41124   0.387  10.664  11.781 -0.0625 -0.5314  0.2083
11935SOL    HW141125   0.336  10.741  11.804  0.2937  0.0935 -0.9859
11935SOL    HW241126   0.442  10.647  11.858 -1.2831 -0.5861  1.0974
11936SOL     OW41127   1.118   7.729   7.840  0.1934 -0.3779 -0.4657
11936SOL    HW141128   1.038   7.718   7.891 -1.5605  0.2682 -2.8969
11936SOL    HW241129   1.174   7.786   7.894 -1.2483 -0.3082  1.0161
11937SOL     OW41130   2.412   0.125   2.493  0.0550 -0.2116  0.0563
11937SOL    HW141131   2.362   0.175   2.429 -1.9575  0.4866  2.0219
11937SOL    HW241132   2.495   0.173   2.502  0.0700  0.0799 -1.4470
11938SOL     OW41133   1.425   9.817   4.184  0.2208  0.3811  0.2169
11938SOL    HW141134   1.334   9.795   4.204 -0.1140  1.8700  0.4680
11938SOL    HW241135   1.466   9.734   4.161 -0.8252 -0.5555  1.5742
11939SOL     OW41136   8.201   5.260   1.235 -0.1052 -0.0150  0.3747
11939SOL    HW141137   8.128   5.201   1.214 -0.2241 -0.4682  1.9564
11939SOL    HW241138   8.159   5.335   1.277  0.2260  0.3802  0.0058
11940SOL     OW41139   4.402   4.832  11.216  0.4166 -0.0620 -0.2517
11940SOL    HW141140   4.307   4.833  11.226  0.3575 -0.1430 -0.8059
11940SOL    HW241141   4.432   4.906  11.268  0.1026 -0.4132  0.4497
11941SOL     OW41142   6.335  10.843   0.006  0.1183 -0.1205  0.2200
11941SOL    HW141143   6.409  10.847   0.067  0.3247  0.5175 -0.0601
11941SOL    HW241144   6.322  10.750  -0.010 -0.7279 -0.3888  2.1858
11942SOL     OW41145   8.178   7.089   1.032 -0.0599 -0.3456 -0.2701
11942SOL    HW141146   8.128   7.169   1.019 -1.1632 -1.0729 -0.6938
11942SOL    HW241147   8.166   7.040   0.951  0.4178 -1.0312  0.0626
11943SOL     OW41148  11.297   5.420   4.261 -0.1736  0.2878  0.3244
11943SOL    HW141149  11.356   5.422   4.186 -1.9555 -1.0399 -1.2045
11943SOL    HW241150  11.354   5.408   4.336  1.7119  1.9282 -0.7337
11944SOL     OW41151   6.703   7.386   6.593 -0.6883  0.3571  0.0216
11944SOL    HW141152   6.768   7.334   6.640 -0.2778  0.4133 -0.4866
11944SOL    HW241153   6.725   7.477   6.613 -0.5143  0.3816 -0.2690
11945SOL     OW41154   2.919   8.680   1.966  0.4659  0.1411 -0.3838
11945SOL    HW141155   3.005   8.696   2.004  0.4614 -1.5695  0.4322
11945SOL    HW241156   2.934   8.678   1.872  1.1457  0.7206 -0.3010
11946SOL     OW41157   5.482   2.330   8.703  0.4670 -0.4234 -0.1571
11946SOL    HW141158   5.569   2.328   8.665  0.6607  0.1379  0.2494
11946SOL    HW241159   5.494   2.301   8.794  0.1809 -0.6610 -0.1918
11947SOL     OW41160  10.780   5.009   6.771  0.6858 -0.4219 -0.0767
11947SOL    HW141161  10.779   5.074   6.701 -1.0187 -1.2502 -0.8822
11947SOL    HW241162  10.850   4.948   6.746  0.6258 -0.2641 -0.6407
11948SOL     OW41163  11.161   3.922   7.525 -0.5902 -0.4476 -0.8415
11948SOL    HW141164  11.168   3.846   7.466  0.5002 -0.4369 -0.7417
11948SOL    HW241165  11.094   3.896   7.588  0.3872 -1.7179 -0.2733
11949SOL     OW41166   4.882   8.160   9.301 -0.0871  0.1592 -0.0462
11949SOL    HW141167   4.958   8.102   9.301  0.2678  0.6067  0.2477
11949SOL    HW241168   4.920   8.248   9.299 -0.6164  0.3916 -1.4528
11950SOL     OW41169   5.136   0.172   7.321  0.1261  0.3245 -0.2066
11950SOL    HW141170   5.095   0.115   7.257  2.8304 -1.6195 -0.3901
11950SOL    HW241171   5.089   0.157   7.403 -0.0954 -1.1545 -0.5863
11951SOL     OW41172   7.328   4.683   1.443  0.7492  0.0268  0.2058
11951SOL    HW141173   7.412   4.641   1.461  0.8803 -0.8538 -2.1143
11951SOL    HW241174   7.287   4.627   1.377 -0.3784  1.9700 -0.8465
11952SOL     OW41175   2.439   4.579   7.973  0.2331  0.0694  0.1216
11952SOL    HW141176   2.476   4.579   7.885  1.8606  0.9306  0.7566
11952SOL    HW241177   2.452   4.669   8.004 -3.2052  0.6896  0.1270
11953SOL     OW41178   7.121  10.191  10.373  0.5642  0.4917 -0.4230
11953SOL    HW141179   7.051  10.249  10.404  0.0939  0.8335 -2.0320
11953SOL    HW241180   7.109  10.188  10.278  1.8527 -0.6164 -0.5757
11954SOL     OW41181   2.696   1.444   1.509 -0.3239  0.5927  0.1662
11954SOL    HW141182   2.639   1.368   1.526  0.1987  0.3759  1.0401
11954SOL    HW241183   2.635   1.518   1.501 -0.8804  0.0089 -1.2861
11955SOL     OW41184   2.420   0.269   2.071 -0.3910  0.4025 -0.0573
11955SOL    HW141185   2.505   0.289   2.110 -0.6937  0.9061  0.3544
11955SOL    HW241186   2.359   0.269   2.144 -0.4442 -2.0098 -0.0192
11956SOL     OW41187   4.410   8.800   5.091  0.5654  0.2528 -0.4062
11956SOL    HW141188   4.426   8.767   5.002 -2.1341  0.2852 -0.9812
11956SOL    HW241189   4.388   8.722   5.142 -2.5143  0.6121 -0.9757
11957SOL     OW41190   7.787   3.971  10.009  0.1601  0.0360  0.3844
11957SOL    HW141191   7.787   3.981   9.914  2.5438 -0.9564  0.2074
11957SOL    HW241192   7.759   3.881  10.024 -1.1523  0.4793  0.7132
11958SOL     OW41193   4.727   6.840   2.781  0.0289 -0.4829 -0.0858
11958SOL    HW141194   4.735   6.788   2.702 -1.1013 -0.2513 -0.3784
11958SOL    HW241195   4.812   6.882   2.792 -0.0382  0.0930 -1.6177
11959SOL     OW41196   1.315   4.863  10.090  0.1464 -0.2744  0.0247
11959SOL    HW141197   1.347   4.888  10.176  0.1479  0.4012 -0.1664
11959SOL    HW241198   1.220   4.870  10.096  0.1587  0.0041 -0.0975
11960SOL     OW41199   7.092   4.419  11.675 -0.5432  0.2157 -0.0964
11960SOL    HW141200   7.072   4.434  11.768  2.9692  0.8158  0.7022
11960SOL    HW241201   7.062   4.499  11.632 -1.8206  0.1202  0.5464
11961SOL     OW41202   6.493  10.602   1.072 -0.2721 -0.3061 -0.3476
11961SOL    HW141203   6.410  10.561   1.098 -0.9171  0.4288 -1.2166
11961SOL    HW241204   6.525  10.642   1.153 -0.6435 -0.7824  0.0499
11962SOL     OW41205   5.506   1.776  10.891  0.0180  0.0241 -0.1259
11962SOL    HW141206   5.426   1.763  10.840  0.8300 -2.4687 -0.9363
11962SOL    HW241207   5.576   1.742  10.835  1.3436  0.0148  1.4488
11963SOL     OW41208  10.684  11.543   0.268  0.3607 -0.8622 -0.7026
11963SOL    HW141209  10.635  11.594   0.203 -1.6592 -0.4746  1.0277
11963SOL    HW241210  10.687  11.455   0.231 -0.6779 -0.6448 -1.3616
11964SOL     OW41211  11.552   9.334   7.599  0.0066 -0.6474  0.4175
11964SOL    HW141212  11.563   9.346   7.693  1.1160 -0.1526  0.2343
11964SOL    HW241213  11.462   9.362   7.581  0.8814  2.7608  0.7744
11965SOL     OW41214   5.463   5.817   1.117  0.4788 -0.1091 -0.2856
11965SOL    HW141215   5.518   5.895   1.106  1.4368 -0.7495 -0.2439
11965SOL    HW241216   5.489   5.782   1.203 -1.4885  0.6925  0.6786
11966SOL     OW41217   4.712   7.692   6.672 -0.0977  0.3486 -0.0671
11966SOL    HW141218   4.736   7.619   6.614 -1.2527 -0.1203  0.0073
11966SOL    HW241219   4.743   7.770   6.626  0.2596 -0.1159 -0.6404
11967SOL     OW41220  10.804   9.198   8.973 -0.4892  0.1370  0.6659
11967SOL    HW141221  10.752   9.188   9.052  0.6046 -1.6539  1.2161
11967SOL    HW241222  10.895   9.188   9.003 -0.0873 -1.1755 -0.8692
11968SOL     OW41223   4.151   6.247   8.630 -0.8801 -0.1392  0.0072
11968SOL    HW141224   4.104   6.244   8.547 -0.4349  0.8278 -0.2918
11968SOL    HW241225   4.099   6.307   8.684  0.3158  1.4519 -0.5450
11969SOL     OW41226   6.987   4.304   1.339 -0.2960  0.0937 -0.0248
11969SOL    HW141227   6.894   4.285   1.348 -0.2094 -0.9524 -1.0944
11969SOL    HW241228   7.031   4.233   1.386 -0.0304  0.0791 -0.2897
11970SOL     OW41229   2.600   0.805   9.512  0.3257 -0.2891 -0.1650
11970SOL    HW141230   2.510   0.837   9.520  1.0000  1.3144  2.0005
11970SOL    HW241231   2.621   0.770   9.599  1.8424 -0.5252 -0.5951
11971SOL     OW41232   3.287   1.524   0.404  0.1557 -0.0317  0.1500
11971SOL    HW141233   3.214   1.486   0.354  0.0406  1.4020 -0.8418
11971SOL    HW241234   3.364   1.475   0.375  0.0390  0.5528 -1.2397
11972SOL     OW41235   8.005   2.245   7.710  0.0840  0.2077  0.4574
11972SOL    HW141236   8.092   2.244   7.670  0.1427 -1.5355  0.5430
11972SOL    HW241237   7.956   2.178   7.663 -0.9771  0.6308  0.9222
11973SOL     OW41238   6.675   1.619   1.855 -0.3971  0.4024 -0.8894
11973SOL    HW141239   6.727   1.677   1.910 -0.6281  0.3388 -0.6049
11973SOL    HW241240   6.663   1.539   1.907 -1.2005  0.6056 -0.7517
11974SOL     OW41241   3.254   9.985   4.876  0.6047  0.0129  0.2612
11974SOL    HW141242   3.221   9.948   4.794  2.3051  1.3931 -1.1276
11974SOL    HW241243   3.271  10.077   4.855  1.6437  0.2585  1.9964
11975SOL     OW41244   0.441   3.991   7.338 -0.2991  0.1725  0.1812
11975SOL    HW141245   0.533   4.015   7.334 -0.3208  0.1560 -1.0284
11975SOL    HW241246   0.416   3.978   7.246 -1.9258  1.7700  0.3470
11976SOL     OW41247   8.971   2.036   6.106  0.4316 -0.5889  0.7916
11976SOL    HW141248   9.024   1.970   6.152  2.6936  0.0392 -0.7735
11976SOL    HW241249   9.017   2.118   6.120  0.6249 -0.2094 -1.6527
11977SOL     OW41250   5.698   7.719   3.171  0.3193  0.0709 -0.3600
11977SOL    HW141251   5.642   7.648   3.141 -0.2239  0.5006 -0.3994
11977SOL    HW241252   5.787   7.689   3.155  0.0819 -0.3781 -0.8696
11978SOL     OW41253   5.697   6.545   0.589 -0.2308 -0.2899  0.0983
11978SOL    HW141254   5.747   6.620   0.621  0.0830 -0.7963  0.8380
11978SOL    HW241255   5.754   6.503   0.525 -0.7041  0.5108 -0.8670
11979SOL     OW41256   0.646  11.020   9.242  0.0043  0.0778  0.1620
11979SOL    HW141257   0.716  10.975   9.196  0.8635  3.0652 -1.6920
11979SOL    HW241258   0.675  11.023   9.333  0.3454 -2.1204  0.1750
11980SOL     OW41259   5.394   5.533   0.170 -0.5012 -0.4181 -0.0891
11980SOL    HW141260   5.387   5.491   0.255  1.7721  0.6112  0.6747
11980SOL    HW241261   5.390   5.461   0.107 -0.5003 -1.3636  0.9690
11981SOL     OW41262  11.320  11.495   9.327  0.1004  0.5622 -0.8683
11981SOL    HW141263  11.400  11.509   9.378 -1.3590  0.3030  1.6338
11981SOL    HW241264  11.251  11.540   9.376 -1.3890  0.4262 -2.7184
11982SOL     OW41265   4.358   9.271  11.247  0.1431 -0.4557 -0.1477
11982SOL    HW141266   4.372   9.300  11.337  0.6383 -0.6321 -0.1682
11982SOL    HW241267   4.367   9.176  11.250  0.1588 -0.4617 -0.3854
11983SOL     OW41268   5.943   7.027   6.583 -0.0799  0.1920 -0.4473
11983SOL    HW141269   5.881   7.099   6.599  0.0069  0.4466 -1.2138
11983SOL    HW241270   5.893   6.963   6.532 -0.3170 -0.5534  0.6834
11984SOL     OW41271   3.853   7.054   7.605  0.0459  0.6952  0.3726
11984SOL    HW141272   3.932   7.005   7.628  0.2666  0.4094 -0.9213
11984SOL    HW241273   3.781   6.994   7.625  0.1976  0.6085  0.6761
11985SOL     OW41274   0.619   9.768   4.645  0.0493  0.6463  0.1307
11985SOL    HW141275   0.696   9.815   4.613  0.8375  0.1315  1.2439
11985SOL    HW241276   0.647   9.728   4.727 -1.1313 -0.3219  0.0861
11986SOL     OW41277   6.933   4.797   1.360  0.1061  0.3251 -0.5744
11986SOL    HW141278   6.909   4.845   1.440  1.7592 -0.7629  0.6368
11986SOL    HW241279   6.978   4.862   1.306  3.2883  0.0422  1.5026
11987SOL     OW41280  10.922   0.633   6.486  0.1833 -0.0294 -0.0447
11987SOL    HW141281  10.886   0.701   6.429 -0.9492 -0.2298  0.3960
11987SOL    HW241282  10.962   0.681   6.559  0.5408  0.1921 -0.3853
11988SOL     OW41283   3.878   7.588   4.494 -0.6844 -0.0778  0.0531
11988SOL    HW141284   3.909   7.498   4.485  0.4066  0.0769  1.8100
11988SOL    HW241285   3.894   7.628   4.408 -1.2725 -1.5592 -0.7722
11989SOL     OW41286   9.062   5.740   3.074 -0.4977 -0.1237 -0.0169
11989SOL    HW141287   9.067   5.667   3.012 -0.3363  1.5871 -2.1232
11989SOL    HW241288   8.982   5.786   3.051  1.3342  2.5854 -1.4259
11990SOL     OW41289   0.705  11.765  10.470 -0.0621 -0.6180 -0.1257
11990SOL    HW141290   0.753  11.839  10.434  0.8851 -1.1658 -0.0153
11990SOL    HW241291   0.616  11.775  10.436  0.8492 -1.3316 -3.0324
11991SOL     OW41292   6.594   8.832   0.479  0.0268  0.7067 -0.2206
11991SOL    HW141293   6.537   8.906   0.462 -0.7410  0.7591  2.1470
11991SOL    HW241294   6.579   8.811   0.571  1.7555 -1.0872 -0.2704
11992SOL     OW41295   4.243   4.974   8.814 -0.1752 -0.6544  0.0538
11992SOL    HW141296   4.324   4.940   8.776  0.3473 -1.5505  1.8369
11992SOL    HW241297   4.174   4.918   8.778 -0.3058  1.1713 -2.8035
11993SOL     OW41298   8.922   4.875   2.371  0.1413 -0.0908  0.6571
11993SOL    HW141299   8.865   4.883   2.295  1.7464 -0.0112 -0.5873
11993SOL    HW241300   8.956   4.964   2.385  1.2308 -0.4492  0.3442
11994SOL     OW41301   3.191   5.519   9.245  0.1941  0.4393 -0.2832
11994SOL    HW141302   3.260   5.581   9.224  1.1242 -0.2377  0.6677
11994SOL    HW241303   3.162   5.486   9.160  2.8472 -1.1671 -0.6809
11995SOL     OW41304   8.373   7.040   5.540  0.2325  0.5259  0.9785
11995SOL    HW141305   8.351   7.132   5.557  0.1393  0.9551 -1.1855
11995SOL    HW241306   8.443   7.044   5.475 -0.7320 -0.9341 -0.2224
11996SOL     OW41307   6.362   8.698  10.469 -0.4873 -0.4584  0.0115
11996SOL    HW141308   6.452   8.721  10.448  0.4191 -0.3162  3.4273
11996SOL    HW241309   6.325   8.777  10.507 -0.8922 -1.4481  1.7842
11997SOL     OW41310   4.065   3.187  10.635  0.0823  0.2513 -0.2549
11997SOL    HW141311   4.044   3.122  10.702  1.6011  0.1738  0.1821
11997SOL    HW241312   4.140   3.150  10.589  0.3008  1.2202 -0.6886
11998SOL     OW41313   6.991   7.174   7.824 -0.3172 -0.2490  0.0981
11998SOL    HW141314   7.001   7.267   7.843 -0.2472 -0.7334  2.6865
11998SOL    HW241315   6.938   7.173   7.743 -2.0305  2.0315  1.0487
11999SOL     OW41316   6.013   6.467  11.653  0.3999  1.0995 -0.5153
11999SOL    HW141317   5.998   6.375  11.675  0.6387  1.0014 -0.7540
11999SOL    HW241318   5.932   6.495  11.609  0.5472  0.8351 -0.9667
12000SOL     OW41319  10.291  10.099  11.401 -0.1193 -0.2712  0.7277
12000SOL    HW141320  10.378  10.065  11.377 -0.6757 -1.1703 -0.0832
12000SOL    HW241321  10.285  10.082  11.495  0.8075  0.3488  0.9224
12001SOL     OW41322  10.907  10.724   5.163  0.6628 -0.3581 -0.1214
12001SOL    HW141323  10.919  10.734   5.068 -1.3826  2.0546 -0.2509
12001SOL    HW241324  10.825  10.676   5.172  0.8222 -0.5319  0.4228
12002SOL     OW41325   1.888   9.614  11.710  0.4833  0.1138 -0.0926
12002SOL    HW141326   1.809   9.620  11.764  0.3960 -0.8049 -0.0953
12002SOL    HW241327   1.927   9.701  11.716  0.0103  0.2911  0.7361
12003SOL     OW41328   2.379   8.767   2.781  0.0982 -0.2920 -0.0849
12003SOL    HW141329   2.421   8.727   2.705  0.7041 -1.2269  0.7187
12003SOL    HW241330   2.435   8.840   2.804  0.1186 -0.2364 -0.3131
12004SOL     OW41331   1.049   0.852   9.522 -0.0551  0.8110 -0.2913
12004SOL    HW141332   0.959   0.839   9.492 -0.0398 -0.4946  0.1860
12004SOL    HW241333   1.103   0.835   9.445 -0.0876 -1.2076  0.0941
12005SOL     OW41334   9.365   9.701   2.489 -0.4503 -0.3985 -0.0381
12005SOL    HW141335   9.398   9.769   2.431  0.5971  0.2497  1.2623
12005SOL    HW241336   9.423   9.626   2.473 -0.3670 -0.3294 -0.0593
12006SOL     OW41337   3.374  11.268   7.117 -0.6338  0.0179 -0.0433
12006SOL    HW141338   3.458  11.313   7.129 -1.7161  2.2042 -0.1644
12006SOL    HW241339   3.333  11.313   7.043 -2.0084 -0.8732  0.1441
12007SOL     OW41340   4.002   2.001   6.240  0.0197  0.1455 -0.0625
12007SOL    HW141341   3.916   1.957   6.241  1.1311 -2.2377 -0.6391
12007SOL    HW241342   4.004   2.047   6.156 -0.7955  0.4299  0.0665
12008SOL     OW41343   9.391   8.453   2.279  0.6448 -0.8112  0.3192
12008SOL    HW141344   9.353   8.541   2.274  1.1262 -0.5404  1.0968
12008SOL    HW241345   9.316   8.394   2.276  0.4339 -0.5126 -2.4662
12009SOL     OW41346   6.858   2.882   6.912 -0.2423 -0.0024 -0.6311
12009SOL    HW141347   6.886   2.905   6.823  0.2711 -1.5276 -0.9008
12009SOL    HW241348   6.910   2.804   6.934 -0.3676  0.3406  1.0140
12010SOL     OW41349   6.564   6.070   4.721  0.0766 -0.0749 -0.1149
12010SOL    HW141350   6.542   6.139   4.658  1.3584  0.1002 -0.4077
12010SOL    HW241351   6.530   6.101   4.804  2.4943  2.0042  0.2059
12011SOL     OW41352   8.433   6.031   9.956  0.5783 -0.5176 -0.5822
12011SOL    HW141353   8.428   5.955   9.898 -0.3000 -1.3032  0.4717
12011SOL    HW241354   8.412   5.996  10.043  0.2268  0.9182 -0.0622
12012SOL     OW41355   1.106   6.135   9.657 -0.1591  0.3405  0.2988
12012SOL    HW141356   1.114   6.041   9.637  2.3961  0.8162 -1.4121
12012SOL    HW241357   1.051   6.170   9.588  0.8713  0.4450 -0.4944
12013SOL     OW41358   8.016   8.139   7.120 -0.3684 -0.5357  0.5315
12013SOL    HW141359   8.101   8.183   7.124 -0.2058 -0.7793 -0.0951
12013SOL    HW241360   7.987   8.133   7.211  0.4766 -0.8143  0.7916
12014SOL     OW41361   5.294   0.059  11.089 -0.1576  0.0328  0.6071
12014SOL    HW141362   5.351   0.053  11.166 -0.9766 -0.9867  1.1554
12014SOL    HW241363   5.280  -0.031  11.062  2.5375  0.3785 -2.6343
12015SOL     OW41364   1.780   6.455   7.820 -0.5029  0.2196 -0.3232
12015SOL    HW141365   1.856   6.397   7.813  0.9443  2.1504 -1.7073
12015SOL    HW241366   1.705   6.398   7.807  0.7330 -1.6306  0.2473
12016SOL     OW41367   4.958   5.155   1.205 -0.4043  0.1539  0.0303
12016SOL    HW141368   4.872   5.113   1.205  0.0081 -0.7412 -0.7894
12016SOL    HW241369   4.969   5.184   1.114 -0.7094  2.1595  0.5870
12017SOL     OW41370   9.324   8.860   0.876 -0.1448 -0.0493  0.0736
12017SOL    HW141371   9.396   8.802   0.898 -1.2678 -1.6931 -0.4070
12017SOL    HW241372   9.319   8.922   0.949  0.0702 -1.5603  1.4098
12018SOL     OW41373  10.580  10.709   8.412 -0.2073  0.4853 -0.4620
12018SOL    HW141374  10.556  10.799   8.390  2.0244  0.8365 -1.7698
12018SOL    HW241375  10.497  10.665   8.428 -1.4745  2.3443 -1.5564
12019SOL     OW41376   4.208   4.536   4.148  0.4974  0.7576 -0.2941
12019SOL    HW141377   4.210   4.443   4.172 -0.9657  0.6598 -0.4832
12019SOL    HW241378   4.138   4.543   4.083  2.0392  1.6266 -1.9618
12020SOL     OW41379   9.934   1.290   4.529  0.0739  0.4156 -0.7573
12020SOL    HW141380   9.902   1.202   4.506  0.7402 -0.2422  0.6882
12020SOL    HW241381   9.857   1.345   4.527 -2.2696 -1.6917  5.8943
12021SOL     OW41382  11.527   2.663   4.030  0.3526 -0.1089 -0.7545
12021SOL    HW141383  11.581   2.584   4.039 -0.3593 -0.8532 -2.6230
12021SOL    HW241384  11.449   2.634   3.984 -0.0812  1.6357 -1.1891
12022SOL     OW41385  10.592   3.294   9.434  1.3341  0.0128 -0.2548
12022SOL    HW141386  10.566   3.204   9.453 -1.6638  0.8719  0.2774
12022SOL    HW241387  10.597   3.297   9.338 -0.2093 -0.3848 -0.3847
12023SOL     OW41388   1.660   4.594   4.988 -0.0399 -0.3053  0.2242
12023SOL    HW141389   1.724   4.556   5.048 -1.0835 -2.3542  0.1376
12023SOL    HW241390   1.676   4.688   4.992  0.1239 -0.3456  3.5025
12024SOL     OW41391   5.641   8.700   8.559  0.2695  0.0722  0.4988
12024SOL    HW141392   5.714   8.758   8.538  0.5179 -0.0392  1.0469
12024SOL    HW241393   5.592   8.692   8.476  0.2763  0.9922  0.3954
12025SOL     OW41394   0.978   9.805  11.721 -0.2603 -0.0111  0.2819
12025SOL    HW141395   0.908   9.811  11.656  0.3177  0.3682 -0.3306
12025SOL    HW241396   1.034   9.734  11.688 -0.7943 -0.9007  1.2195
12026SOL     OW41397   9.354   5.825  10.428 -0.0851 -0.0075  0.3881
12026SOL    HW141398   9.432   5.824  10.372 -1.0953 -0.7593 -1.0849
12026SOL    HW241399   9.326   5.916  10.429  0.8298  0.2775  0.9755
12027SOL     OW41400   7.726   8.940   0.983  0.2621  0.4287 -0.3201
12027SOL    HW141401   7.778   8.912   0.908  1.5918  0.3776  0.5684
12027SOL    HW241402   7.730   9.036   0.981  1.2612  0.4236  0.2768
12028SOL     OW41403  11.430   4.503   6.392 -0.0925  0.1264  0.0162
12028SOL    HW141404  11.520   4.536   6.398 -0.1160  0.0130  1.5346
12028SOL    HW241405  11.414   4.493   6.298  0.9383  1.6262 -0.3568
12029SOL     OW41406   9.156   1.988   8.372  0.1461 -0.2029  0.2429
12029SOL    HW141407   9.251   1.983   8.379  0.1820 -0.4119 -0.3173
12029SOL    HW241408   9.128   2.036   8.450  0.8631  1.3890 -0.4307
12030SOL     OW41409   4.201   7.891  11.520 -0.2454  0.0238 -0.0642
12030SOL    HW141410   4.227   7.822  11.581 -0.5756  0.1726  0.2468
12030SOL    HW241411   4.276   7.951  11.519 -0.9666  1.0283  1.6714
12031SOL     OW41412   1.098   6.841   5.125  0.2135 -0.3206  0.4877
12031SOL    HW141413   1.159   6.813   5.194 -1.3864 -2.5700  1.1077
12031SOL    HW241414   1.018   6.864   5.172 -0.4140 -0.4495 -0.5073
12032SOL     OW41415  10.296   4.493   4.157 -0.5519  0.4207 -0.2852
12032SOL    HW141416  10.214   4.448   4.175 -0.2987 -0.1949 -0.6440
12032SOL    HW241417  10.295   4.569   4.215 -0.8798 -0.1655  0.4926
12033SOL     OW41418   4.147   1.829   8.905 -0.6013 -0.7182  0.6766
12033SOL    HW141419   4.104   1.750   8.940 -1.0336  0.2442  2.4765
12033SOL    HW241420   4.078   1.873   8.856 -0.7393 -0.8107  0.7846
12034SOL     OW41421   3.292   2.490   4.462 -0.4214 -0.2343  0.2948
12034SOL    HW141422   3.243   2.479   4.380  1.0631 -0.2472 -0.6221
12034SOL    HW241423   3.225   2.511   4.527 -1.5153  1.1820 -1.1892
12035SOL     OW41424   2.417  11.664   1.210 -0.4727 -0.2326 -0.1609
12035SOL    HW141425   2.378  11.675   1.297 -1.2916 -1.8756 -0.2827
12035SOL    HW241426   2.342  11.654   1.151  0.0893 -2.1157 -0.6049
12036SOL     OW41427   9.072   4.761   7.633 -0.6709  0.3640 -0.4532
12036SOL    HW141428   9.062   4.679   7.681 -1.0928  2.0925  2.7488
12036SOL    HW241429   9.150   4.748   7.579  0.1579 -1.6510  1.0853
12037SOL     OW41430   0.671   6.986   8.575 -0.0203  0.3252 -0.4779
12037SOL    HW141431   0.657   6.921   8.643 -0.1220  0.4333 -0.3969
12037SOL    HW241432   0.751   6.956   8.530  0.9055  1.0523  0.6326
12038SOL     OW41433   5.732   9.759   5.739  0.1525  0.1114  0.4432
12038SOL    HW141434   5.668   9.829   5.724  1.4328  1.1542 -0.3929
12038SOL    HW241435   5.776   9.749   5.654  0.3800 -1.3196  0.7186
12039SOL     OW41436   4.358  10.453   4.468  0.0070 -0.0152  0.5431
12039SOL    HW141437   4.304  10.394   4.521 -1.8771  0.0350 -1.2228
12039SOL    HW241438   4.322  10.540   4.485 -0.8832 -0.0395 -1.0568
12040SOL     OW41439   9.713   9.932   2.615  0.2709  0.1364  0.5228
12040SOL    HW141440   9.798   9.924   2.571  0.4833  0.3343  0.8957
12040SOL    HW241441   9.684  10.021   2.594 -0.5795 -0.4347 -0.9054
12041SOL     OW41442  11.679  10.102   5.757 -0.1426 -0.0758  0.1379
12041SOL    HW141443  11.757  10.091   5.810 -0.2664 -2.7396 -0.1061
12041SOL    HW241444  11.656  10.013   5.728 -1.7746  0.9103 -1.9213
12042SOL     OW41445  11.399   8.479  10.384  0.3181 -0.9993  0.0551
12042SOL    HW141446  11.481   8.430  10.387  1.7116  1.1613 -0.7489
12042SOL    HW241447  11.385   8.508  10.474  1.9757  0.9295 -0.2417
12043SOL     OW41448   2.198   8.961   9.235 -0.1565  0.1553  0.3394
12043SOL    HW141449   2.268   8.990   9.293 -0.5918 -1.1125  1.5672
12043SOL    HW241450   2.170   9.040   9.189  0.3641  1.1738  1.7162
12044SOL     OW41451   0.751   2.483   1.845 -0.3572  0.1237 -0.0515
12044SOL    HW141452   0.757   2.578   1.835 -1.0372  0.1828  0.0025
12044SOL    HW241453   0.737   2.450   1.756  1.5699 -0.0961 -0.3088
12045SOL     OW41454   8.297   3.655   7.267 -0.2594  0.1613  0.4458
12045SOL    HW141455   8.248   3.732   7.297  0.6437  0.1398  2.0806
12045SOL    HW241456   8.303   3.666   7.172 -1.7797  1.1245  0.4256
12046SOL     OW41457   3.050   1.200   3.671  0.6592 -0.3379 -0.6636
12046SOL    HW141458   3.012   1.127   3.721  2.3138 -1.0258 -0.3393
12046SOL    HW241459   3.087   1.159   3.593 -0.6403  0.5443 -1.8039
12047SOL     OW41460   3.403   4.781   0.907 -0.1778  0.1872 -0.3095
12047SOL    HW141461   3.408   4.785   0.812 -0.2846 -0.4911 -0.3519
12047SOL    HW241462   3.430   4.691   0.928  0.3658  0.4948  0.3312
12048SOL     OW41463   0.525  11.202   5.966  0.3728 -0.1493  0.1526
12048SOL    HW141464   0.543  11.289   5.929  1.4619 -0.5933 -0.4007
12048SOL    HW241465   0.434  11.207   5.996  0.5022  1.2739  0.3775
12049SOL     OW41466   8.639   6.688  10.071  0.2850 -0.3936 -0.0246
12049SOL    HW141467   8.571   6.747  10.038 -0.0943  0.6091  2.3403
12049SOL    HW241468   8.590   6.611  10.102  0.6166 -1.2431 -1.5179
12050SOL     OW41469   4.415   8.577   2.292 -0.2899 -0.0231  0.1093
12050SOL    HW141470   4.351   8.632   2.339  0.1055 -0.4427  1.1577
12050SOL    HW241471   4.452   8.521   2.360  0.5387 -0.4143 -0.6624
12051SOL     OW41472  10.367  11.473   7.814 -0.3438 -0.1876 -0.5173
12051SOL    HW141473  10.449  11.521   7.827  0.0930 -0.5475 -1.7805
12051SOL    HW241474  10.336  11.455   7.902  1.2059 -0.4921  0.0035
12052SOL     OW41475   3.679   8.273  11.002  0.1259 -0.0716 -0.4487
12052SOL    HW141476   3.716   8.335  11.064 -0.0278 -0.0452 -0.3815
12052SOL    HW241477   3.593   8.309  10.980  0.7395  0.6375 -1.7520
12053SOL     OW41478   2.422   6.110   0.732 -0.1961  0.5213  0.0743
12053SOL    HW141479   2.444   6.020   0.759 -3.4035 -0.3862  0.0957
12053SOL    HW241480   2.414   6.105   0.637 -0.0252  0.8906  0.0395
12054SOL     OW41481   8.558   7.871   5.133  0.4160 -0.0040  0.3458
12054SOL    HW141482   8.541   7.909   5.219  0.8982  1.6783 -0.2562
12054SOL    HW241483   8.474   7.835   5.104  0.4198 -1.2764  1.8019
12055SOL     OW41484   8.527  10.373   6.199  0.3937 -0.2867 -0.3045
12055SOL    HW141485   8.486  10.345   6.117 -0.3319 -1.0556  0.3038
12055SOL    HW241486   8.530  10.293   6.252 -0.2428  0.4493  0.8707
12056SOL     OW41487   1.179  10.919   0.374  0.0513  0.3834  0.0498
12056SOL    HW141488   1.261  10.940   0.420  0.0050 -0.0353  0.3283
12056SOL    HW241489   1.164  10.826   0.393 -1.1542  0.7567  1.0755
12057SOL     OW41490   3.338   2.816   3.721  0.0570  0.2247 -0.6872
12057SOL    HW141491   3.362   2.905   3.746 -0.7258  0.4539 -0.7287
12057SOL    HW241492   3.397   2.794   3.649  1.4809  0.0316  0.4932
12058SOL     OW41493   2.984   5.952   1.776  0.0046  0.2605 -0.2059
12058SOL    HW141494   2.967   5.909   1.861  0.2428  0.9573  0.2019
12058SOL    HW241495   3.050   5.897   1.734 -1.1804 -0.9109 -0.5900
12059SOL     OW41496   7.473   9.207   5.769  0.5371 -0.1664 -0.2257
12059SOL    HW141497   7.418   9.230   5.695 -0.7843  0.4335  0.9004
12059SOL    HW241498   7.413   9.198   5.843  1.9878  1.3847  1.2590
12060SOL     OW41499   3.455   0.342   4.361 -0.2853 -0.1639 -0.3930
12060SOL    HW141500   3.459   0.426   4.407 -0.7814 -0.1933 -0.2900
12060SOL    HW241501   3.498   0.359   4.277  1.2841 -0.2999  0.3422
12061SOL     OW41502  10.871   8.643   8.442  0.4795  0.4876  0.7129
12061SOL    HW141503  10.809   8.640   8.369  0.1532 -0.5704  1.0143
12061SOL    HW241504  10.822   8.682   8.514 -0.0618 -0.8581  1.1187
12062SOL     OW41505   6.290   7.085  10.920 -0.1486 -0.5324  0.4517
12062SOL    HW141506   6.365   7.025  10.928  0.6484  0.3438 -0.2394
12062SOL    HW241507   6.268   7.107  11.010 -0.1040 -1.4351  0.6971
12063SOL     OW41508  10.170   7.814   3.709 -0.2071 -0.7970 -0.4765
12063SOL    HW141509  10.240   7.757   3.742  0.2594  0.1490  0.2429
12063SOL    HW241510  10.118   7.834   3.787 -1.2261 -1.3905 -0.9867
12064SOL     OW41511   3.494   8.764   3.348  0.2385  0.2550  0.0332
12064SOL    HW141512   3.578   8.727   3.372 -0.1775  0.0190  1.1894
12064SOL    HW241513   3.515   8.831   3.282  1.1312 -1.0046 -1.0027
12065SOL     OW41514   9.624   2.972   6.049 -0.3325 -0.0522 -0.0433
12065SOL    HW141515   9.615   3.036   6.120  1.1126 -0.6583  0.7323
12065SOL    HW241516   9.572   2.898   6.078 -0.5798  0.0960 -0.1062
12066SOL     OW41517   3.134   2.996   5.304  0.7944  0.1528  0.0963
12066SOL    HW141518   3.056   2.978   5.357 -0.1001 -0.4730 -1.3682
12066SOL    HW241519   3.172   3.075   5.343 -0.0506 -0.0439  1.3932
12067SOL     OW41520  11.550   6.134   0.776 -0.0570  0.2564  0.3828
12067SOL    HW141521  11.639   6.167   0.790 -0.0959  0.2421  0.6671
12067SOL    HW241522  11.521   6.176   0.695  0.8619 -1.0789 -0.6914
12068SOL     OW41523   5.261   3.690   2.755  0.3778 -0.0211  0.7317
12068SOL    HW141524   5.208   3.650   2.687 -0.2458  0.8658  0.6787
12068SOL    HW241525   5.236   3.645   2.835 -1.2851  1.0889  0.8960
12069SOL     OW41526   7.621   3.437   2.943 -0.1739 -1.1356 -0.6386
12069SOL    HW141527   7.606   3.371   2.876 -1.2454 -2.6494  1.0041
12069SOL    HW241528   7.533   3.464   2.970  0.2215 -1.0353  0.5854
12070SOL     OW41529   1.231   7.133   6.385 -0.1289 -0.2220  0.1299
12070SOL    HW141530   1.245   7.228   6.384  0.7905 -0.3503 -1.1442
12070SOL    HW241531   1.276   7.101   6.307 -0.2110 -1.7483  0.6729
12071SOL     OW41532   8.164   6.532   5.157  0.6959  0.1442  0.3110
12071SOL    HW141533   8.217   6.459   5.124  0.4294 -0.7782  1.8325
12071SOL    HW241534   8.074   6.509   5.135  0.5971 -0.0644  0.9163
12072SOL     OW41535   6.080   5.816   6.262  0.5658  0.2133  0.3175
12072SOL    HW141536   6.115   5.820   6.351  3.4137 -1.8586 -0.5535
12072SOL    HW241537   6.151   5.847   6.207 -0.8467  0.6774 -1.3318
12073SOL     OW41538   4.578   2.923   2.359  0.1473  0.4466  0.1939
12073SOL    HW141539   4.670   2.932   2.384  0.4533 -0.1124 -0.6901
12073SOL    HW241540   4.578   2.934   2.264 -0.5752 -0.4186  0.0824
12074SOL     OW41541   8.879   6.872   2.601  0.1490  0.0697 -0.2301
12074SOL    HW141542   8.907   6.919   2.679 -0.3545  0.2008 -0.1237
12074SOL    HW241543   8.960   6.844   2.559  0.4372 -1.5288  1.2661
12075SOL     OW41544   7.459   7.372  11.050  0.0551 -0.1738  0.4139
12075SOL    HW141545   7.439   7.461  11.021 -0.9038 -0.2176  0.8877
12075SOL    HW241546   7.553   7.372  11.065  0.3039  0.3340 -0.9981
12076SOL     OW41547   1.175   3.159  10.878 -0.1171 -0.2400  0.9766
12076SOL    HW141548   1.140   3.123  10.960 -1.2399 -0.9313  0.2327
12076SOL    HW241549   1.099   3.198  10.835  0.1172 -1.2272 -0.4121
12077SOL     OW41550   2.245   1.890   7.535 -0.1428 -0.0258  0.1526
12077SOL    HW141551   2.194   1.844   7.469  0.7208  0.6166 -1.0112
12077SOL    HW241552   2.274   1.970   7.491  2.4937 -0.7107  0.4398
12078SOL     OW41553   3.739   4.675   6.404  0.0143  0.5790  0.3248
12078SOL    HW141554   3.825   4.716   6.393 -0.2410  1.0829  0.1664
12078SOL    HW241555   3.682   4.725   6.346  0.0017 -1.0080 -1.0975
12079SOL     OW41556   3.738  11.554   7.461  0.0549  0.0956  0.2039
12079SOL    HW141557   3.701  11.629   7.415 -0.9084 -1.8546 -2.4250
12079SOL    HW241558   3.716  11.570   7.553 -2.4484  1.7662 -0.5738
12080SOL     OW41559   1.943   3.733   3.394  0.3326  0.0700 -0.1108
12080SOL    HW141560   1.855   3.706   3.419  1.0789 -0.5449  2.1673
12080SOL    HW241561   1.961   3.685   3.313 -0.7551 -1.3004  0.4143
12081SOL     OW41562   2.039   3.492   1.466  0.3806 -0.2579 -0.4585
12081SOL    HW141563   2.034   3.587   1.463 -0.9534 -0.3194 -0.8661
12081SOL    HW241564   1.967   3.466   1.523 -0.0114 -1.0632 -1.2979
12082SOL     OW41565   2.404   9.154   6.550  0.0512 -0.4356 -0.8717
12082SOL    HW141566   2.402   9.227   6.611  0.3055 -0.3218 -0.9984
12082SOL    HW241567   2.481   9.170   6.496 -0.3128 -0.4041 -1.3886
12083SOL     OW41568   9.230   6.181   1.329 -0.5697  0.0664  0.4618
12083SOL    HW141569   9.229   6.173   1.234  0.2403  2.0644  0.2332
12083SOL    HW241570   9.241   6.091   1.361 -0.0284 -0.5529 -1.3400
12084SOL     OW41571   4.193   8.522  10.155 -0.1860  0.4634 -0.2261
12084SOL    HW141572   4.207   8.617  10.159 -1.4078  0.6160  1.9111
12084SOL    HW241573   4.099   8.513  10.139  0.0780 -0.4350 -1.4098
12085SOL     OW41574   7.852   7.384   7.998  0.1767  0.2210  0.0952
12085SOL    HW141575   7.908   7.394   8.075 -0.4619 -1.0868  0.7660
12085SOL    HW241576   7.768   7.419   8.025 -0.0013 -0.0779 -0.0690
12086SOL     OW41577   6.048   8.404   5.965  0.1862  0.1725 -0.3951
12086SOL    HW141578   5.969   8.366   5.929  0.5780 -1.4200  0.3101
12086SOL    HW241579   6.110   8.331   5.968  1.4410  1.2088 -0.2591
12087SOL     OW41580   6.868   1.754   2.052 -0.2165  0.6345  0.4677
12087SOL    HW141581   6.916   1.678   2.019  0.3976  0.8485  0.8613
12087SOL    HW241582   6.892   1.759   2.144  1.9010  2.8968 -0.1118
12088SOL     OW41583  11.746   8.354   1.914 -0.0114  0.4853 -0.2279
12088SOL    HW141584  11.734   8.449   1.921  0.5841  0.6242 -1.0489
12088SOL    HW241585  11.799   8.331   1.990 -1.2296  0.6025  0.6922
12089SOL     OW41586   5.750   9.310  11.679 -0.1528 -0.1064  0.0310
12089SOL    HW141587   5.731   9.226  11.637  1.2661 -0.8957  0.8853
12089SOL    HW241588   5.838   9.300  11.714  0.0137  1.7303  0.2283
12090SOL     OW41589   4.351  10.479   1.818  0.0767 -0.2049  0.4601
12090SOL    HW141590   4.341  10.560   1.867 -0.9230  0.9988 -1.5780
12090SOL    HW241591   4.390  10.506   1.735 -0.6982 -1.7264 -0.4521
12091SOL     OW41592   8.698   5.017   7.261 -0.5392 -0.0850  0.1048
12091SOL    HW141593   8.758   4.964   7.209  1.8068  1.4658  1.0946
12091SOL    HW241594   8.677   4.962   7.337 -0.0610 -0.4912 -0.0545
12092SOL     OW41595  10.264   4.179   3.335 -0.0477  0.7349 -0.4376
12092SOL    HW141596  10.273   4.228   3.417  1.3982 -0.7336  0.3582
12092SOL    HW241597  10.200   4.110   3.356  1.7887 -0.8799  0.1719
12093SOL     OW41598   0.360   9.908   6.737  0.1903  0.0816  0.2701
12093SOL    HW141599   0.382   9.988   6.785 -0.2365  0.4753 -0.1697
12093SOL    HW241600   0.328   9.940   6.652 -1.2611 -0.4896  0.5760
12094SOL     OW41601   1.076  10.963   8.712 -0.7551 -0.0469 -0.8502
12094SOL    HW141602   1.099  10.888   8.658 -2.2416 -0.6365 -0.7156
12094SOL    HW241603   1.001  11.003   8.668 -0.0563  1.3184 -0.8650
12095SOL     OW41604   3.977   3.744   0.517  0.0109  0.2907 -0.2459
12095SOL    HW141605   4.066   3.776   0.505 -0.5988  1.8077 -1.0851
12095SOL    HW241606   3.923   3.804   0.465 -1.5023 -0.5641  0.2698
12096SOL     OW41607   9.008   3.400   5.649 -0.5459  0.7743  0.4390
12096SOL    HW141608   8.968   3.406   5.562  0.5378 -0.0060 -0.1468
12096SOL    HW241609   9.095   3.364   5.632 -1.1171 -1.5642  2.0800
12097SOL     OW41610   9.107  10.936  11.647  0.8603 -0.2822  0.1905
12097SOL    HW141611   9.028  10.898  11.685  1.0754 -0.1482  0.7830
12097SOL    HW241612   9.092  11.031  11.651  0.1248 -0.2715 -1.7042
12098SOL     OW41613   0.734   1.321   1.537 -0.0064  0.7729  0.1339
12098SOL    HW141614   0.756   1.357   1.451  0.5612  1.4106  0.5389
12098SOL    HW241615   0.806   1.349   1.594 -0.8821  1.1919  1.0452
12099SOL     OW41616   9.147   4.324  10.595 -0.0244 -0.2871 -0.4374
12099SOL    HW141617   9.135   4.392  10.530 -1.9486  0.4290  0.5827
12099SOL    HW241618   9.219   4.355  10.650 -0.7881  0.8930 -0.0648
12100SOL     OW41619   3.152   6.400   0.777  0.5142 -0.5786  0.8352
12100SOL    HW141620   3.062   6.382   0.748  0.7297 -0.6644  0.2063
12100SOL    HW241621   3.176   6.481   0.731  1.3623 -1.4739 -0.3438
12101SOL     OW41622   0.056   3.520   0.562  0.3305  0.1100 -0.3391
12101SOL    HW141623   0.104   3.551   0.638  0.0052 -1.2704  0.4562
12101SOL    HW241624   0.084   3.429   0.551 -0.9229 -0.2363 -0.8135
12102SOL     OW41625   5.493   2.740  10.369  0.5596  0.4860  0.1516
12102SOL    HW141626   5.571   2.795  10.369 -0.5196  2.1285  1.5102
12102SOL    HW241627   5.437   2.778  10.437 -0.7798 -1.5801  0.2777
12103SOL     OW41628  11.746   5.508   6.384  0.4749 -0.4681 -0.0521
12103SOL    HW141629  11.841   5.519   6.391  0.4122  0.3151 -0.3286
12103SOL    HW241630  11.722   5.560   6.307 -0.0961 -1.1820 -0.3687
12104SOL     OW41631   0.033   8.493   5.893 -0.1220 -0.2580 -0.2568
12104SOL    HW141632   0.033   8.486   5.988 -1.7834 -1.4862 -0.2968
12104SOL    HW241633  -0.047   8.448   5.865 -1.3530  2.6418 -2.0390
12105SOL     OW41634   0.275   6.755   9.805  0.0395  0.1549  0.4139
12105SOL    HW141635   0.310   6.796   9.885 -0.2867  0.6831  0.2925
12105SOL    HW241636   0.353   6.732   9.754  0.4061 -2.6774  2.0523
12106SOL     OW41637  11.388   0.235   0.816 -0.0539  0.3215  0.5415
12106SOL    HW141638  11.336   0.252   0.737 -0.2268 -1.1172  0.3195
12106SOL    HW241639  11.336   0.171   0.866  1.2053 -0.6846  0.6094
12107SOL     OW41640   0.575   8.160   1.334 -0.0129 -1.2478 -0.3563
12107SOL    HW141641   0.517   8.208   1.275  0.5120 -1.4607 -1.0557
12107SOL    HW241642   0.661   8.168   1.294  0.4287 -1.0329  0.6170
12108SOL     OW41643   7.484   5.791   8.750 -0.5218  0.0359 -0.1546
12108SOL    HW141644   7.428   5.813   8.675 -0.2786  1.5939  0.0736
12108SOL    HW241645   7.487   5.696   8.751 -0.8280 -0.0272 -1.9109
12109SOL     OW41646   0.012  11.583   8.854 -0.4036  0.3037  0.4367
12109SOL    HW141647  -0.010  11.493   8.877 -2.7704  0.2158 -1.7432
12109SOL    HW241648  -0.056  11.610   8.792  2.3350  2.2779 -2.0123
12110SOL     OW41649   9.800   2.896   5.634 -0.0186 -0.3386 -0.6452
12110SOL    HW141650   9.843   2.968   5.587 -0.8179 -0.2537 -1.2632
12110SOL    HW241651   9.855   2.820   5.618 -0.7681 -0.5267 -2.5369
12111SOL     OW41652   2.769   6.072   8.749 -0.2808  0.8302  0.3500
12111SOL    HW141653   2.735   6.052   8.661 -0.5197 -0.9085  0.8119
12111SOL    HW241654   2.864   6.064   8.741 -0.2583  1.2819  0.1175
12112SOL     OW41655   6.365   4.304   8.131  0.2115 -0.0744 -0.1537
12112SOL    HW141656   6.277   4.267   8.136  0.6446 -1.2583 -0.8728
12112SOL    HW241657   6.352   4.393   8.099 -0.8658  0.4429  1.6000
12113SOL     OW41658   7.330   0.122   4.072  0.0364 -0.1037  0.1001
12113SOL    HW141659   7.393   0.100   4.005  1.3571 -0.7426  1.4894
12113SOL    HW241660   7.257   0.061   4.058  0.7307 -0.8898 -0.1407
12114SOL     OW41661   2.593   9.306   8.871  0.2886  0.4852 -0.6108
12114SOL    HW141662   2.583   9.359   8.792 -0.8814  1.5860  0.2340
12114SOL    HW241663   2.679   9.266   8.862  0.6428  1.4593 -1.9186
12115SOL     OW41664   0.976   4.546   7.389 -0.6011  0.4086  0.1412
12115SOL    HW141665   0.891   4.590   7.385 -2.0094 -2.1944 -1.4835
12115SOL    HW241666   0.961   4.468   7.443  0.8471  0.0705  0.1167
12116SOL     OW41667   5.619   6.167   1.922  0.1513  0.1447 -0.1530
12116SOL    HW141668   5.532   6.201   1.899 -0.7599 -2.6878 -1.3666
12116SOL    HW241669   5.680   6.228   1.880 -1.2637  1.3758 -0.5430
12117SOL     OW41670   9.071   3.547   2.651 -0.1382 -0.2933 -0.2169
12117SOL    HW141671   9.145   3.537   2.590  0.7778 -1.4327  1.0147
12117SOL    HW241672   9.072   3.640   2.674  1.7293 -0.4763  0.6924
12118SOL     OW41673   5.578   8.883   3.623 -0.3727  0.4736 -0.2733
12118SOL    HW141674   5.576   8.907   3.531 -1.0029  0.7407 -0.1974
12118SOL    HW241675   5.607   8.792   3.624  1.3083  0.9730 -0.6151
12119SOL     OW41676   4.463   2.484   8.704 -0.4520 -0.2461  0.3443
12119SOL    HW141677   4.387   2.481   8.646 -1.0643 -2.0631  1.1458
12119SOL    HW241678   4.428   2.519   8.787  0.3424  2.0240 -0.2156
12120SOL     OW41679   4.598   7.355   3.850  0.0894 -0.7111  0.0723
12120SOL    HW141680   4.584   7.302   3.772  0.7338 -2.2135  0.9302
12120SOL    HW241681   4.672   7.411   3.829  0.8102 -1.7052 -0.1401
12121SOL     OW41682   9.140   1.501  10.748  0.1211 -0.7272  0.4508
12121SOL    HW141683   9.095   1.426  10.788 -0.3387 -0.1254  1.1053
12121SOL    HW241684   9.070   1.565  10.733  0.4661 -0.5300 -0.3422
12122SOL     OW41685   3.854   6.783   3.237  0.5558  0.4842  0.2962
12122SOL    HW141686   3.792   6.854   3.220  2.0102  1.9874  1.0018
12122SOL    HW241687   3.799   6.708   3.262 -0.9541  1.8248  1.1258
12123SOL     OW41688  11.439   9.619  10.534  0.6023 -0.1826  0.2180
12123SOL    HW141689  11.534   9.628  10.534  0.7034 -1.1445  0.8684
12123SOL    HW241690  11.406   9.709  10.542  1.4022  0.4352 -2.4188
12124SOL     OW41691   2.390  11.347   3.216 -0.3475 -0.6486 -0.1598
12124SOL    HW141692   2.390  11.339   3.311  1.5052  1.6020  0.1094
12124SOL    HW241693   2.323  11.413   3.198  1.6042  1.4904 -0.0224
12125SOL     OW41694   1.880  10.974   0.239  0.3928 -0.1359  0.3899
12125SOL    HW141695   1.861  10.919   0.315 -0.3003 -0.7303 -0.1977
12125SOL    HW241696   1.878  10.914   0.165 -0.7381  0.7355 -0.3131
12126SOL     OW41697   2.015   5.237   6.218  0.5506 -0.0879  0.0525
12126SOL    HW141698   2.034   5.308   6.157  0.3998  0.6866  0.8849
12126SOL    HW241699   2.085   5.241   6.283 -0.9837  1.1880  1.7296
12127SOL     OW41700   8.503   9.957  10.213  0.8179 -0.7500  0.0468
12127SOL    HW141701   8.530   9.865  10.206 -0.6389 -1.2713  0.9419
12127SOL    HW241702   8.557   9.991  10.285  0.1636 -1.3959  0.8726
12128SOL     OW41703   4.198   5.437   6.494  0.0038  0.5224 -0.8960
12128SOL    HW141704   4.113   5.421   6.534  0.6622  0.7651  0.6661
12128SOL    HW241705   4.199   5.531   6.477 -0.6483  0.2858 -2.4575
12129SOL     OW41706   6.691   4.183   2.334 -0.1695  0.1195  0.4436
12129SOL    HW141707   6.740   4.199   2.414  0.5105  0.6212 -0.0577
12129SOL    HW241708   6.599   4.194   2.359  0.0131 -0.0619  1.2207
12130SOL     OW41709   0.288   2.501   6.027  0.7378  0.0983  0.4942
12130SOL    HW141710   0.290   2.428   6.088  0.3198 -1.1299 -0.9211
12130SOL    HW241711   0.208   2.550   6.050  0.0127 -0.9534  0.2719
12131SOL     OW41712   2.088  11.768  11.786  0.2823  0.0126  0.0014
12131SOL    HW141713   2.153  11.768  11.857 -1.4985  3.1701  1.8186
12131SOL    HW241714   2.031  11.694  11.805 -0.5951  1.2298  2.3986
12132SOL     OW41715   3.068   9.073   4.853  0.0637 -0.3202  0.7886
12132SOL    HW141716   3.119   9.020   4.791 -1.0857 -1.4890  0.8051
12132SOL    HW241717   3.104   9.161   4.844  1.4302 -0.9215  0.1023
12133SOL     OW41718  10.197   8.911   2.736  0.0896  0.1378  0.1851
12133SOL    HW141719  10.247   8.832   2.755  1.2267  1.5330  3.6776
12133SOL    HW241720  10.111   8.879   2.709  1.1224 -2.2539 -0.5293
12134SOL     OW41721   6.745   0.264   5.865 -0.3559  0.1167 -0.1374
12134SOL    HW141722   6.733   0.284   5.958  0.6067 -0.9987  0.2474
12134SOL    HW241723   6.657   0.268   5.828 -0.8128  0.0847  0.9234
12135SOL     OW41724   3.552  10.175   0.750 -0.3580  0.4397  0.2714
12135SOL    HW141725   3.622  10.211   0.804 -1.0524  1.6217  0.4101
12135SOL    HW241726   3.586  10.178   0.661  0.0082  0.4086  0.4101
12136SOL     OW41727   1.654   7.519   4.744 -0.4013 -0.3209 -0.5006
12136SOL    HW141728   1.744   7.528   4.711 -0.4586 -0.4822 -0.6981
12136SOL    HW241729   1.656   7.564   4.829  0.6728 -2.9105  0.9775
12137SOL     OW41730   1.962   3.889   0.128 -0.1975 -0.2622  0.1273
12137SOL    HW141731   1.941   3.802   0.163  0.5644 -0.9984 -1.1786
12137SOL    HW241732   1.878   3.924   0.099 -0.3306 -1.1547 -0.6110
12138SOL     OW41733   8.498   2.089   3.952 -0.5050  0.0921 -0.4225
12138SOL    HW141734   8.462   2.026   3.889  0.4588 -1.3883  0.4626
12138SOL    HW241735   8.494   2.173   3.906 -3.5160 -0.2267 -0.9833
12139SOL     OW41736  10.354   2.487   0.127 -0.2836 -0.1590  0.1775
12139SOL    HW141737  10.348   2.476   0.222  1.4209 -0.6534  0.2489
12139SOL    HW241738  10.383   2.402   0.094  1.0976  0.5566 -0.5573
12140SOL     OW41739   6.849   2.235   0.810 -0.5433 -0.4265 -0.5780
12140SOL    HW141740   6.846   2.242   0.905 -0.3811 -0.1010 -0.5930
12140SOL    HW241741   6.867   2.142   0.793 -0.4547 -0.4628 -0.2906
12141SOL     OW41742   8.099   1.704   9.820  0.4539  0.5362  0.0792
12141SOL    HW141743   8.105   1.670   9.909 -1.5276  1.5443  0.6567
12141SOL    HW241744   8.187   1.692   9.784  0.9015 -1.3454  1.6103
12142SOL     OW41745   6.747   9.281   2.791  0.0452 -0.2502 -0.0724
12142SOL    HW141746   6.820   9.320   2.743 -0.1465 -0.3553 -0.4518
12142SOL    HW241747   6.786   9.249   2.872  0.1238  1.1699  0.4816
12143SOL     OW41748   5.950   9.382   2.517  0.3569 -0.4400 -0.3019
12143SOL    HW141749   6.007   9.375   2.594  0.6459  1.9150 -0.2100
12143SOL    HW241750   5.956   9.296   2.475  0.1640 -1.8206  2.2738
12144SOL     OW41751   7.057   3.540   9.175 -0.4168  0.0700 -0.7005
12144SOL    HW141752   7.145   3.502   9.175  0.6670  2.3562 -2.3505
12144SOL    HW241753   7.067   3.623   9.221 -1.8458  0.1382 -0.4780
12145SOL     OW41754   5.217   1.309   7.800  0.7798 -0.6180  0.2346
12145SOL    HW141755   5.251   1.270   7.881 -0.8990  0.9809  1.8067
12145SOL    HW241756   5.210   1.402   7.820 -1.6020 -0.4677 -1.0220
12146SOL     OW41757   5.995   8.791  11.126 -0.1245 -0.4597 -0.3195
12146SOL    HW141758   6.005   8.696  11.128 -0.0554 -0.4465  0.0602
12146SOL    HW241759   6.038   8.821  11.206  0.5572 -0.0413 -0.8391
12147SOL     OW41760   4.348   1.318   2.794 -0.1847  0.5287 -0.3571
12147SOL    HW141761   4.411   1.250   2.819  0.1505  0.4862 -1.2711
12147SOL    HW241762   4.367   1.335   2.701  0.5532  2.7169  0.1286
12148SOL     OW41763   3.814   7.199  11.201  0.3190  0.1767  0.1034
12148SOL    HW141764   3.802   7.167  11.290 -0.4819 -1.5320 -0.5900
12148SOL    HW241765   3.889   7.259  11.207  0.2665  0.0908  1.9116
12149SOL     OW41766   1.323   0.119   9.058  0.4368 -0.2068  0.5800
12149SOL    HW141767   1.228   0.102   9.052  0.3814  0.5642 -1.2797
12149SOL    HW241768   1.330   0.195   9.115 -0.2442  0.8925 -0.7463
12150SOL     OW41769  11.042   2.776   7.533 -0.0081  0.1266  0.6707
12150SOL    HW141770  10.963   2.743   7.577 -0.5149  1.7578  1.0538
12150SOL    HW241771  11.093   2.818   7.603 -0.3425  1.8665 -0.0733
12151SOL     OW41772   5.591   8.783   0.331 -0.0184  0.8065 -0.3589
12151SOL    HW141773   5.505   8.743   0.335  0.3116  0.1846  1.0584
12151SOL    HW241774   5.587   8.842   0.256 -1.2172 -0.2456 -1.1565
12152SOL     OW41775   5.172   0.665   2.129  0.2765  0.3887  0.2089
12152SOL    HW141776   5.189   0.754   2.098  2.3153  0.5098  1.4656
12152SOL    HW241777   5.235   0.611   2.082 -0.1820 -0.2275  0.2922
12153SOL     OW41778   1.392   5.883   6.018 -0.1348 -0.2730 -0.0584
12153SOL    HW141779   1.297   5.880   6.002  0.1958  1.9914 -3.5635
12153SOL    HW241780   1.421   5.792   6.011 -1.8646 -0.8304 -0.4049
12154SOL     OW41781   3.728   8.776   0.873  0.2484 -0.1835  0.1514
12154SOL    HW141782   3.709   8.690   0.911  0.6630 -0.2337  0.2470
12154SOL    HW241783   3.817   8.797   0.904  0.8804 -0.5343 -1.3562
12155SOL     OW41784   5.797   3.957   2.396  0.3037  0.0667  0.1687
12155SOL    HW141785   5.844   4.007   2.462  1.7362  1.4010 -1.7515
12155SOL    HW241786   5.712   4.000   2.389 -0.5601 -1.1681  2.3029
12156SOL     OW41787   1.600   9.961  11.798  0.8487 -0.6776  0.0402
12156SOL    HW141788   1.515  10.002  11.808 -0.0010 -2.7248  2.1875
12156SOL    HW241789   1.661  10.034  11.790 -1.0769  0.8518 -2.1982
12157SOL     OW41790   3.358   6.842   1.651 -0.4280  0.1465 -0.0805
12157SOL    HW141791   3.364   6.821   1.558 -1.0073  0.6440 -0.2366
12157SOL    HW241792   3.277   6.799   1.680  0.3378 -0.9830  0.4712
12158SOL     OW41793   2.391   5.561   8.761 -0.0020  0.3656 -0.2322
12158SOL    HW141794   2.342   5.503   8.702 -0.2231  1.8774 -1.6349
12158SOL    HW241795   2.341   5.561   8.842 -0.8773 -0.1702 -0.7527
12159SOL     OW41796   5.226   4.670   8.827 -0.1217  0.2039  0.4202
12159SOL    HW141797   5.170   4.667   8.748 -0.8748  0.0902  0.9439
12159SOL    HW241798   5.177   4.724   8.889  0.8655  0.9985  0.5268
12160SOL     OW41799   9.767   7.139   6.228  0.0509  0.0127  0.6208
12160SOL    HW141800   9.760   7.151   6.134 -0.2506  0.8484  0.7381
12160SOL    HW241801   9.779   7.045   6.240 -0.5742 -0.1801 -0.2110
12161SOL     OW41802   5.449   2.842   3.779 -0.2030 -0.5446  0.1002
12161SOL    HW141803   5.526   2.831   3.722 -0.6217 -0.7144 -0.4469
12161SOL    HW241804   5.435   2.937   3.780 -0.5124 -0.5788 -0.5222
12162SOL     OW41805   2.439   7.600  10.157 -0.3484 -0.8064  0.0366
12162SOL    HW141806   2.357   7.607  10.206 -0.0504  1.1874  0.3610
12162SOL    HW241807   2.412   7.586  10.066 -1.0778 -0.1439  0.1354
12163SOL     OW41808   4.770   6.306   3.479 -0.2112  0.4124  0.4279
12163SOL    HW141809   4.693   6.345   3.439  1.4366  0.9990 -2.4003
12163SOL    HW241810   4.773   6.217   3.445 -0.8497 -0.4229  2.4027
12164SOL     OW41811   8.472   9.827   1.541  0.6900  0.5899  0.0064
12164SOL    HW141812   8.487   9.904   1.595 -0.1304 -0.5334  1.9349
12164SOL    HW241813   8.560   9.794   1.522  1.0011  1.1447  0.4472
12165SOL     OW41814   9.547   8.176   3.199 -0.1343  0.2115 -0.5875
12165SOL    HW141815   9.635   8.139   3.199 -0.5046 -0.7422 -1.9765
12165SOL    HW241816   9.551   8.248   3.136 -0.4061 -0.0482 -0.9136
12166SOL     OW41817   6.067   5.210   1.349  0.3970 -0.1545  0.9609
12166SOL    HW141818   6.066   5.303   1.326 -1.5929 -0.1114  1.0824
12166SOL    HW241819   6.063   5.165   1.264  1.4204 -0.1439  0.8991
12167SOL     OW41820   1.547   7.748   5.284 -0.1353 -0.4513 -0.0953
12167SOL    HW141821   1.619   7.771   5.342  0.7940 -0.4331 -1.2161
12167SOL    HW241822   1.505   7.673   5.327  0.8337 -0.7611  0.3580
12168SOL     OW41823  11.288   2.235  10.583  0.1873 -0.3495  0.2414
12168SOL    HW141824  11.300   2.318  10.538  3.9561 -0.6224  0.3916
12168SOL    HW241825  11.200   2.240  10.621 -0.8033  2.3213 -2.0924
12169SOL     OW41826   6.271   6.334  10.033 -0.3604  0.5207 -0.6637
12169SOL    HW141827   6.235   6.299   9.951  0.7890 -1.0211 -0.5443
12169SOL    HW241828   6.210   6.304  10.100  0.2869 -0.8011 -0.6356
12170SOL     OW41829  11.216   6.232   7.484  0.3384  0.4315 -0.6754
12170SOL    HW141830  11.243   6.213   7.394 -1.5484 -0.4450 -1.1005
12170SOL    HW241831  11.155   6.306   7.476  0.1819  0.3679 -0.1165
12171SOL     OW41832   8.197   3.332   7.481 -0.5425 -0.0744  0.3156
12171SOL    HW141833   8.203   3.266   7.549 -0.1962 -1.3704 -0.9330
12171SOL    HW241834   8.179   3.283   7.401 -1.7390  1.4718 -0.4151
12172SOL     OW41835   9.048   6.183  10.643  0.1510 -0.2516 -0.0339
12172SOL    HW141836   9.062   6.089  10.653  0.3082 -0.1055  1.3101
12172SOL    HW241837   8.997   6.208  10.720 -1.2484  0.5063 -1.1598
12173SOL     OW41838   5.111   3.088   2.375 -1.0798 -0.1831  0.5065
12173SOL    HW141839   5.162   3.021   2.420 -1.6034 -0.8323  0.1472
12173SOL    HW241840   5.054   3.125   2.443 -0.3189  0.3721  0.8523
12174SOL     OW41841   2.518   5.578   3.092 -0.1162  0.0020 -0.0781
12174SOL    HW141842   2.577   5.569   3.017  2.0740  1.9250  1.2652
12174SOL    HW241843   2.498   5.488   3.117 -0.5507 -0.6998 -2.6434
12175SOL     OW41844   4.436   7.489  11.734 -0.1191 -0.3035 -0.3420
12175SOL    HW141845   4.403   7.402  11.755 -2.4410 -0.0208 -2.2953
12175SOL    HW241846   4.509   7.473  11.674 -0.1705 -0.9177 -0.2483
12176SOL     OW41847   1.333   8.197   7.350  0.0581  0.4489 -0.5226
12176SOL    HW141848   1.429   8.196   7.350  0.0986 -1.6983  0.6072
12176SOL    HW241849   1.309   8.199   7.258  1.2485 -1.1596 -0.9028
12177SOL     OW41850   8.670   0.327   8.453  0.3239  0.2100  0.4000
12177SOL    HW141851   8.737   0.348   8.519  1.1605  0.5078 -0.5173
12177SOL    HW241852   8.712   0.347   8.370 -1.5992  2.2581 -0.1371
12178SOL     OW41853   5.794   6.573   5.029 -0.3990  0.1552  0.4421
12178SOL    HW141854   5.752   6.535   5.106  1.5042 -0.6201  1.1644
12178SOL    HW241855   5.800   6.500   4.967 -0.3818  0.3227  0.2480
12179SOL     OW41856  11.799   2.984   1.482  0.3139  0.1812  0.7450
12179SOL    HW141857  11.890   2.961   1.498  0.3988  1.2147  1.8987
12179SOL    HW241858  11.749   2.909   1.516  0.7094 -0.5825 -0.2799
12180SOL     OW41859   8.936   1.675   9.441 -0.3357  0.3484 -0.3877
12180SOL    HW141860   8.976   1.730   9.508 -2.6764  1.5359  0.1403
12180SOL    HW241861   9.001   1.671   9.371  1.0570  1.3837  0.7895
12181SOL     OW41862   6.258   5.870   6.511  0.0026  0.2754  0.0361
12181SOL    HW141863   6.241   5.850   6.603  0.8006  0.7116  0.2884
12181SOL    HW241864   6.240   5.964   6.504 -0.2375  0.2061 -0.3000
12182SOL     OW41865   6.502   3.181   1.414  0.3071  0.5051  0.4578
12182SOL    HW141866   6.591   3.148   1.405  0.5019  0.8787  0.9443
12182SOL    HW241867   6.513   3.275   1.426 -0.0114  0.3436  2.4283
12183SOL     OW41868   4.830  11.786   1.118  0.3088 -0.5762  0.1367
12183SOL    HW141869   4.756  11.798   1.177  0.0043 -0.5324 -0.2473
12183SOL    HW241870   4.852  11.874   1.089 -0.8429 -0.7410 -1.3741
12184SOL     OW41871   5.695   8.283   5.164 -0.3343 -0.8686  0.0799
12184SOL    HW141872   5.712   8.375   5.183  0.0717 -0.7309 -0.8590
12184SOL    HW241873   5.609   8.283   5.122 -0.2543 -0.8942 -0.0839
12185SOL     OW41874   6.802  11.301   9.074  0.1309  0.7443  0.2945
12185SOL    HW141875   6.776  11.354   8.999  1.8410 -0.2825 -1.0922
12185SOL    HW241876   6.848  11.362   9.132  1.4463  0.9837 -0.9414
12186SOL     OW41877   0.717  10.280   8.015  0.2213 -0.0779  0.4055
12186SOL    HW141878   0.725  10.226   7.937 -1.1078 -1.0004  0.8777
12186SOL    HW241879   0.624  10.300   8.021  0.1088 -0.9161  2.3159
12187SOL     OW41880   7.424   8.288  11.510  0.2415 -0.2874 -0.7710
12187SOL    HW141881   7.441   8.373  11.549  0.0686 -0.7653  0.3926
12187SOL    HW241882   7.416   8.306  11.416  0.2905  0.9539 -0.5587
12188SOL     OW41883   8.931   3.004   1.072 -0.2063 -0.0119  0.1588
12188SOL    HW141884   8.838   2.983   1.061  0.3595 -1.3290 -3.5445
12188SOL    HW241885   8.977   2.934   1.026  2.6845  0.5589  1.9222
12189SOL     OW41886   1.754   5.069   1.607  0.8009  0.3364  0.2257
12189SOL    HW141887   1.706   5.040   1.684  1.6235 -0.1325  0.5806
12189SOL    HW241888   1.758   4.992   1.551  1.1059  0.3760  0.1898
12190SOL     OW41889   9.276   8.526   9.685 -0.1598 -0.2474 -0.5270
12190SOL    HW141890   9.303   8.595   9.745 -1.2912 -1.0238  0.9173
12190SOL    HW241891   9.253   8.452   9.741 -0.4894 -1.2787 -1.9614
12191SOL     OW41892  11.607   5.833  11.810 -0.7757  0.0687 -0.1508
12191SOL    HW141893  11.628   5.829  11.903 -0.2712 -0.8163 -0.2919
12191SOL    HW241894  11.544   5.762  11.797 -2.0583  1.1571 -0.2062
12192SOL     OW41895   4.592  10.276   9.540  0.5892 -0.0554  0.3537
12192SOL    HW141896   4.534  10.331   9.486  1.4337 -0.0654 -0.5804
12192SOL    HW241897   4.612  10.201   9.486 -0.0167 -0.9935  1.3851
12193SOL     OW41898   0.885   6.507   2.800 -0.2815 -0.5326  0.1685
12193SOL    HW141899   0.825   6.442   2.762  0.6226 -1.7125  0.6909
12193SOL    HW241900   0.970   6.462   2.802  0.6198  1.0593 -0.4714
12194SOL     OW41901  10.324   6.957   7.879  0.0267 -0.6513 -0.2445
12194SOL    HW141902  10.298   6.873   7.919  0.4228 -0.4991  0.3504
12194SOL    HW241903  10.417   6.966   7.901 -0.0153 -0.0534 -0.2989
12195SOL     OW41904   2.149   9.956   1.292 -0.2173  0.3864  0.1945
12195SOL    HW141905   2.213   9.968   1.222 -0.3378  0.8661  0.1579
12195SOL    HW241906   2.125   9.864   1.288 -0.2622  0.4231 -0.4292
12196SOL     OW41907   5.071   8.466   4.886 -0.0280 -0.1760 -0.4467
12196SOL    HW141908   5.121   8.462   4.968 -0.1105  1.5522 -0.2769
12196SOL    HW241909   4.983   8.491   4.912  0.0221  0.7186 -1.0612
12197SOL     OW41910   0.510  11.652   8.888  0.2676  0.4190 -0.0454
12197SOL    HW141911   0.521  11.572   8.837  0.3154 -1.3111  2.4891
12197SOL    HW241912   0.416  11.671   8.884  0.0707 -0.4628  0.3044
12198SOL     OW41913   8.402   6.200   7.076  0.0084  0.4988  0.3133
12198SOL    HW141914   8.308   6.213   7.061 -0.3064 -0.1822  1.5294
12198SOL    HW241915   8.444   6.226   6.994 -1.2938  0.2081 -0.4691
12199SOL     OW41916  10.109   1.544  11.627 -0.3010  0.0571 -0.2917
12199SOL    HW141917  10.092   1.628  11.669  3.3414  1.5520 -1.4383
12199SOL    HW241918  10.118   1.482  11.700 -0.6590  1.1534  0.7109
12200SOL     OW41919   7.978   1.566   5.808  0.5025 -0.6135 -1.0689
12200SOL    HW141920   8.052   1.553   5.748  2.2601  1.0212  0.5658
12200SOL    HW241921   7.923   1.631   5.765  0.7016 -0.9088 -1.7764
12201SOL     OW41922  10.961   3.509   6.258 -0.1571  0.2980 -0.4368
12201SOL    HW141923  10.885   3.537   6.207 -0.5565 -1.7420 -1.0483
12201SOL    HW241924  11.004   3.591   6.284 -1.8669  1.4696 -1.1039
12202SOL     OW41925   2.531   0.351   7.997 -0.9620  0.2535 -0.3028
12202SOL    HW141926   2.532   0.414   7.925  0.7883  2.1267  1.2338
12202SOL    HW241927   2.600   0.289   7.976 -0.2349  0.9845 -0.1127
12203SOL     OW41928   3.703   2.412  11.320  0.3474  1.1661 -0.0220
12203SOL    HW141929   3.692   2.394  11.226 -3.6506  0.0619  0.4954
12203SOL    HW241930   3.710   2.507  11.325  2.0463  1.1827 -1.4544
12204SOL     OW41931   1.071  10.582   6.138  0.2862 -0.4898  0.2627
12204SOL    HW141932   1.120  10.509   6.175  0.8322  0.4511  1.4987
12204SOL    HW241933   1.050  10.556   6.049  1.9696 -1.4290  0.1151
12205SOL     OW41934   2.512   0.233   8.767  0.8926 -0.7237 -0.0867
12205SOL    HW141935   2.522   0.185   8.685  2.2893  0.6787 -0.7846
12205SOL    HW241936   2.558   0.315   8.753  0.2218  0.0244  1.7401
12206SOL     OW41937   6.114   2.101   4.584  0.7343 -0.0206  0.5409
12206SOL    HW141938   6.021   2.122   4.584  0.1309 -2.3548  1.1701
12206SOL    HW241939   6.116   2.005   4.575  3.0817 -0.0093  0.4647
12207SOL     OW41940   9.526   6.091   5.122 -0.1995  0.4593  0.1025
12207SOL    HW141941   9.434   6.113   5.108  0.1667  2.7189  0.8954
12207SOL    HW241942   9.568   6.174   5.144  2.1155 -0.4565 -0.5680
12208SOL     OW41943  11.670   7.227   5.148  0.2041 -0.1929 -0.0761
12208SOL    HW141944  11.584   7.188   5.164 -1.0412  2.2588 -0.1875
12208SOL    HW241945  11.654   7.295   5.082  1.7843  1.6977  1.3383
12209SOL     OW41946   3.737   3.003   6.921 -0.5335  0.0863  0.6087
12209SOL    HW141947   3.743   2.952   6.840 -2.8667  0.9521 -0.1978
12209SOL    HW241948   3.650   2.982   6.956  0.1595  0.2435  2.5756
12210SOL     OW41949   9.021   9.551   5.368  0.4997 -0.0868 -0.0645
12210SOL    HW141950   9.053   9.463   5.348  0.8680 -0.0074  0.1675
12210SOL    HW241951   9.086   9.587   5.428  1.0446  0.8189 -1.1678
12211SOL     OW41952   5.534   6.144   5.852 -0.2003  0.4141  0.4520
12211SOL    HW141953   5.528   6.142   5.947  0.7864  0.8620  0.5298
12211SOL    HW241954   5.609   6.200   5.833 -0.5833  0.6008 -0.6013
12212SOL     OW41955   9.705   4.477   4.890 -0.0204 -0.4037  0.1149
12212SOL    HW141956   9.646   4.547   4.861 -0.1249 -0.5476 -0.0199
12212SOL    HW241957   9.706   4.485   4.985 -1.0341 -1.0143  0.1981
12213SOL     OW41958   2.108  11.746  11.103  0.1861  0.2457  0.0509
12213SOL    HW141959   2.069  11.729  11.017  1.1811  4.0529 -1.3183
12213SOL    HW241960   2.202  11.734  11.089  0.2634 -0.3889  1.0242
12214SOL     OW41961   6.087  10.851  10.010 -0.0403  0.3939  0.0219
12214SOL    HW141962   5.995  10.871  10.028  0.1414  0.9532  0.3758
12214SOL    HW241963   6.085  10.786   9.940 -0.6970  0.8291 -0.3703
12215SOL     OW41964   8.200   5.618   3.927 -0.4521 -0.2667 -0.2581
12215SOL    HW141965   8.158   5.601   3.843  0.2251 -1.0399 -0.4462
12215SOL    HW241966   8.154   5.695   3.961 -1.4521 -0.5866 -0.8339
12216SOL     OW41967   4.786   9.085   2.967 -0.1449  0.1463 -0.3005
12216SOL    HW141968   4.706   9.117   3.008  0.3673  4.1521 -2.0166
12216SOL    HW241969   4.852   9.089   3.036 -0.6593  0.3329  0.1914
12217SOL     OW41970   0.370   5.005   3.781 -0.2847  0.3602 -0.5155
12217SOL    HW141971   0.331   4.959   3.707 -0.2892 -0.1489 -0.2033
12217SOL    HW241972   0.364   4.943   3.854  1.1554  0.2436 -0.4674
12218SOL     OW41973   4.351   8.812  11.469  0.1028  0.1336 -0.3914
12218SOL    HW141974   4.353   8.858  11.385 -1.6992  0.1577 -0.4528
12218SOL    HW241975   4.306   8.872  11.528  1.1930  0.0397  0.5620
12219SOL     OW41976   2.189   7.900   7.347 -0.1719  0.3995 -0.1871
12219SOL    HW141977   2.240   7.819   7.336  0.3427  0.6444  0.3623
12219SOL    HW241978   2.247   7.969   7.316 -0.4852  0.5987 -0.3335
12220SOL     OW41979   5.155   3.879   0.099  0.0634  0.9173 -0.0084
12220SOL    HW141980   5.163   3.969   0.132  0.8182  1.3981 -1.4148
12220SOL    HW241981   5.190   3.883   0.010  0.5441 -0.8696  0.0593
12221SOL     OW41982  11.239   6.437   2.619 -0.2780 -0.7937 -0.4591
12221SOL    HW141983  11.155   6.421   2.662 -0.3969  1.7974  0.4927
12221SOL    HW241984  11.258   6.529   2.638  1.7993 -0.7343 -2.3886
12222SOL     OW41985   3.042   7.951   2.921 -0.4441  0.0448  0.4762
12222SOL    HW141986   3.118   7.909   2.881  0.8561  0.1838  2.6967
12222SOL    HW241987   3.013   7.890   2.988 -0.2592  1.4212  1.8532
12223SOL     OW41988   2.670   7.276   9.214 -0.5587 -0.3298 -0.0619
12223SOL    HW141989   2.696   7.326   9.137 -0.0169  1.0615  0.9914
12223SOL    HW241990   2.577   7.297   9.226 -0.1820  0.9161  0.7281
12224SOL     OW41991   4.208   4.216   7.181  0.6325  0.3715  0.2185
12224SOL    HW141992   4.171   4.163   7.251  0.3883 -1.7606 -1.4273
12224SOL    HW241993   4.303   4.210   7.194  0.5898 -0.0365  0.3401
12225SOL     OW41994  10.926   9.633   6.590 -0.1541 -0.3690  0.2668
12225SOL    HW141995  10.835   9.606   6.600 -0.4271  0.8718  1.3789
12225SOL    HW241996  10.925   9.691   6.514 -0.3310 -0.1998  0.3972
12226SOL     OW41997   4.520   5.751   3.633 -0.0547 -0.1483 -0.2042
12226SOL    HW141998   4.600   5.804   3.637  0.0588 -0.3553  0.5636
12226SOL    HW241999   4.450   5.815   3.622 -0.0452  0.3323  1.9639
12227SOL     OW42000   8.254   2.169   3.303 -0.3701  0.0615 -0.4521
12227SOL    HW142001   8.204   2.173   3.221 -0.5099 -0.7915 -0.4146
12227SOL    HW242002   8.300   2.085   3.299 -1.6519 -0.7505  1.0697
12228SOL     OW42003   8.689   8.776   9.385 -0.2955 -0.0994  0.6261
12228SOL    HW142004   8.674   8.852   9.329  1.4645  0.1795  0.4773
12228SOL    HW242005   8.639   8.795   9.465  0.8008  1.6496  0.9487
12229SOL     OW42006   8.581   7.588   7.661 -0.3290 -0.1777 -0.1296
12229SOL    HW142007   8.491   7.595   7.695  0.1208 -1.3869  1.4519
12229SOL    HW242008   8.624   7.668   7.693 -0.5638 -0.1171  0.0448
12230SOL     OW42009   4.061   9.497   4.615 -0.3248 -0.1061 -0.2833
12230SOL    HW142010   4.041   9.563   4.682  0.9667  0.3497 -0.3244
12230SOL    HW242011   4.010   9.420   4.642  0.2176  0.0427  1.2740
12231SOL     OW42012  10.638   5.371   1.410 -0.1076  0.1254 -0.1227
12231SOL    HW142013  10.653   5.302   1.345 -1.0264 -1.5843  1.3758
12231SOL    HW242014  10.719   5.421   1.411  0.3458 -0.5216 -1.7421
12232SOL     OW42015   2.101   9.789   2.650 -0.3048  0.1030 -0.5675
12232SOL    HW142016   2.138   9.703   2.674  3.6677  1.8119  0.2558
12232SOL    HW242017   2.072   9.777   2.559 -0.2928 -2.2180 -0.3422
12233SOL     OW42018   1.260   8.631   8.915 -0.0563  0.2282  0.3572
12233SOL    HW142019   1.282   8.598   9.002 -1.1454  0.1362  0.6108
12233SOL    HW242020   1.165   8.619   8.908  0.0038  0.3163 -0.8091
12234SOL     OW42021   2.121   6.653   6.878  0.3808 -0.3321  0.2194
12234SOL    HW142022   2.122   6.563   6.911  0.9706 -0.0658  0.9595
12234SOL    HW242023   2.067   6.701   6.941  0.6219 -0.0334  0.2005
12235SOL     OW42024   4.223  10.959   6.978  0.2159  0.5189 -0.2327
12235SOL    HW142025   4.157  10.955   7.048  0.7796 -1.0605  0.2592
12235SOL    HW242026   4.305  10.938   7.022  0.5433 -0.7838 -1.3894
12236SOL     OW42027   8.729   3.430   9.087  0.1977  0.1526 -0.1426
12236SOL    HW142028   8.653   3.452   9.034 -0.9656 -0.2387  1.2996
12236SOL    HW242029   8.796   3.406   9.024 -0.8792  0.4892 -1.4499
12237SOL     OW42030   3.116   7.873   6.051 -0.2061  0.0508  0.1267
12237SOL    HW142031   3.191   7.933   6.045 -0.3876  0.1413 -1.8157
12237SOL    HW242032   3.043   7.923   6.015 -0.5304 -1.0696 -0.8255
12238SOL     OW42033   1.658   7.710   5.569  0.3494  0.2138  0.4021
12238SOL    HW142034   1.642   7.790   5.619 -0.4404  0.3221 -0.0082
12238SOL    HW242035   1.629   7.639   5.626 -0.1890  0.3121  0.2564
12239SOL     OW42036  10.019   8.792  10.036  0.2605  0.7242 -0.3033
12239SOL    HW142037   9.984   8.789   9.947 -0.1686  0.7817 -0.1359
12239SOL    HW242038   9.994   8.878  10.069  0.1779  0.5970 -0.0283
12240SOL     OW42039   6.378  10.319   0.285  0.2160 -0.2614  0.4068
12240SOL    HW142040   6.453  10.342   0.339 -0.3048  1.1895  0.5539
12240SOL    HW242041   6.410  10.324   0.195  0.3048  0.3422  0.4701
12241SOL     OW42042   8.629   2.344   7.610  0.3129  0.0776 -0.3543
12241SOL    HW142043   8.708   2.367   7.659  0.3118 -2.2959  0.9328
12241SOL    HW242044   8.562   2.330   7.677 -1.9184  3.8616 -1.4589
12242SOL     OW42045   0.568   8.882   4.336 -0.5229  0.3861  0.4983
12242SOL    HW142046   0.647   8.879   4.282 -0.5983 -1.1775  0.4320
12242SOL    HW242047   0.589   8.943   4.407  1.0261 -0.5488  0.8893
12243SOL     OW42048   7.386   8.305   6.325  0.0982 -0.0175 -0.1174
12243SOL    HW142049   7.460   8.310   6.384  1.9559 -0.8834 -2.2217
12243SOL    HW242050   7.325   8.372   6.356  1.9386  1.0322  1.4306
12244SOL     OW42051   9.833  11.235  11.351  0.4485  0.6142 -0.1394
12244SOL    HW142052   9.826  11.171  11.280  0.2378  1.4188 -0.8668
12244SOL    HW242053   9.813  11.319  11.309 -0.8397  0.9738  1.1099
12245SOL     OW42054   5.049   3.259   8.377  1.0089  0.3099 -0.0836
12245SOL    HW142055   4.990   3.249   8.302  0.8355 -1.6507  0.2622
12245SOL    HW242056   4.996   3.232   8.452  2.2786 -1.3326  0.2578
12246SOL     OW42057   3.160   2.665   1.963 -0.0584  0.1242 -0.0049
12246SOL    HW142058   3.188   2.711   1.884  0.7608  0.5418  0.5089
12246SOL    HW242059   3.134   2.578   1.933  0.9780  0.0164 -0.6399
12247SOL     OW42060   8.952   2.553   3.988 -0.1031 -0.7253  0.2036
12247SOL    HW142061   9.003   2.613   4.042  0.4195  0.0809 -1.1315
12247SOL    HW242062   9.007   2.474   3.982 -0.0064 -0.6866  0.5482
12248SOL     OW42063   5.093  10.644   4.036  0.3794  0.0473 -0.4570
12248SOL    HW142064   5.035  10.569   4.026 -0.4737  0.4716  1.0348
12248SOL    HW242065   5.050  10.714   3.985 -0.5013  0.3844  0.7151
12249SOL     OW42066   5.249  10.617   6.509  0.3022 -0.1142 -0.2368
12249SOL    HW142067   5.176  10.678   6.505 -0.9707 -1.6196 -1.6136
12249SOL    HW242068   5.324  10.666   6.475 -0.5433  0.8614 -0.7536
12250SOL     OW42069   9.548   2.764   1.704  0.1028  0.1380 -0.1490
12250SOL    HW142070   9.557   2.746   1.798  0.5871  0.8912 -0.0390
12250SOL    HW242071   9.638   2.759   1.670  0.2275  1.8800 -0.1730
12251SOL     OW42072   3.582   6.498  11.158  0.1708 -0.3148  0.3939
12251SOL    HW142073   3.565   6.502  11.252  2.1746 -1.1215  0.8476
12251SOL    HW242074   3.496   6.481  11.119 -1.3651  3.3703  1.6862
12252SOL     OW42075  10.330   9.283   6.348 -0.3517  0.5657 -0.5178
12252SOL    HW142076  10.421   9.313   6.350  0.4040 -1.5870  1.0262
12252SOL    HW242077  10.336   9.188   6.346 -2.5675  0.3600  0.2115
12253SOL     OW42078   9.035   8.324   3.567  0.3743  0.2458 -0.3622
12253SOL    HW142079   9.004   8.346   3.655 -0.1970  0.2421 -0.5574
12253SOL    HW242080   9.120   8.283   3.581 -0.5447 -1.5107  0.3422
12254SOL     OW42081  10.452   3.777  10.878 -0.3244  0.1819  0.2726
12254SOL    HW142082  10.379   3.716  10.874  0.2225 -0.4247 -2.1864
12254SOL    HW242083  10.413   3.863  10.861 -0.4752 -0.1951 -1.4797
12255SOL     OW42084   7.906   2.071   1.142 -0.1189  0.0712 -0.1517
12255SOL    HW142085   7.950   2.115   1.215 -0.2432  0.1963 -0.1519
12255SOL    HW242086   7.954   2.100   1.064  1.3053 -1.6267  0.0373
12256SOL     OW42087   1.905   4.016   4.942  0.2503 -0.0808  0.2877
12256SOL    HW142088   1.828   4.067   4.967  1.0228  1.8130 -0.9418
12256SOL    HW242089   1.870   3.933   4.909 -1.4304  1.2751 -1.6174
12257SOL     OW42090   9.802   8.702   3.485  0.7087  0.0109 -0.4781
12257SOL    HW142091   9.877   8.698   3.545  0.3709  1.5969  0.0969
12257SOL    HW242092   9.765   8.789   3.498  0.3973  0.2814 -2.7765
12258SOL     OW42093   5.775  10.101   6.165 -0.1955  0.3296 -0.5101
12258SOL    HW142094   5.758  10.126   6.256  0.8638  0.9086 -0.4621
12258SOL    HW242095   5.855  10.049   6.169 -0.0907  0.4392 -1.1244
12259SOL     OW42096  11.114   3.287   0.368 -0.1190  0.1154  0.8983
12259SOL    HW142097  11.165   3.306   0.447  1.1555  1.1278 -0.1107
12259SOL    HW242098  11.049   3.223   0.395  1.9793 -1.5916  2.1634
12260SOL     OW42099   4.885   9.588   0.474  0.6598 -0.1829 -0.8175
12260SOL    HW142100   4.971   9.555   0.499  0.2369 -0.5615  0.1537
12260SOL    HW242101   4.882   9.575   0.379  2.3074  1.3497 -1.1452
12261SOL     OW42102   1.792   6.481   2.835  0.1160  0.3057 -0.6151
12261SOL    HW142103   1.773   6.556   2.892  1.6138 -0.3188  0.7922
12261SOL    HW242104   1.870   6.508   2.786  0.4578 -0.1851 -0.3535
12262SOL     OW42105   2.229   0.723   2.676  0.0506  0.0996  0.2394
12262SOL    HW142106   2.153   0.773   2.646 -0.5888 -1.1486 -0.3311
12262SOL    HW242107   2.232   0.647   2.617 -0.8870 -2.1745  2.8686
12263SOL     OW42108   0.956   9.143  10.530  0.6047  0.3903 -0.0736
12263SOL    HW142109   0.927   9.064  10.577 -1.7010  1.1591 -0.1133
12263SOL    HW242110   0.999   9.109  10.451  0.0184 -0.8306  0.1040
12264SOL     OW42111   6.575   3.115   7.282 -0.0040 -0.0357 -0.3615
12264SOL    HW142112   6.590   3.209   7.292 -0.4711  0.1149 -1.0212
12264SOL    HW242113   6.482   3.108   7.263  0.1023 -0.6076 -0.6686
12265SOL     OW42114   8.717  10.984   9.532  0.6393  0.1678 -0.6247
12265SOL    HW142115   8.622  10.991   9.544  0.9299 -0.2712  2.8375
12265SOL    HW242116   8.727  10.914   9.468 -1.3509  0.6445 -1.5391
12266SOL     OW42117  10.892   1.008   9.584  0.5222 -0.1770 -0.3965
12266SOL    HW142118  10.875   0.914   9.581  0.4187 -0.2288  0.9363
12266SOL    HW242119  10.944   1.020   9.664  1.1426  0.8126 -0.9259
12267SOL     OW42120   9.192   7.798   7.551 -0.5368  0.0288 -0.1018
12267SOL    HW142121   9.141   7.869   7.512  2.4109  1.3332 -1.8854
12267SOL    HW242122   9.223   7.746   7.477  2.3156  0.4903  0.6531
12268SOL     OW42123   6.884   4.846   5.793  0.2262 -0.0930 -0.0290
12268SOL    HW142124   6.886   4.917   5.730 -1.0435 -0.1060 -0.1208
12268SOL    HW242125   6.796   4.850   5.830  1.3615  0.7978  2.7924
12269SOL     OW42126   3.728   7.634   1.034  0.2200  0.0766  0.4419
12269SOL    HW142127   3.797   7.680   1.082  2.4125 -0.6013 -1.8089
12269SOL    HW242128   3.688   7.702   0.980  0.1646  0.2075  0.6468
12270SOL     OW42129   3.712   6.724   5.798  0.1679  0.3833  0.3024
12270SOL    HW142130   3.736   6.794   5.738  0.3538  1.2032  1.3126
12270SOL    HW242131   3.659   6.767   5.866  1.5878 -0.1229  1.7949
12271SOL     OW42132   3.430  10.909   0.667 -0.0842  0.0913  0.0301
12271SOL    HW142133   3.473  10.824   0.661  0.2303  0.2080  0.5659
12271SOL    HW242134   3.428  10.942   0.577  2.8448  1.0148  0.1790
12272SOL     OW42135   7.116  10.223   6.059 -0.0591 -0.1121  0.3350
12272SOL    HW142136   7.034  10.233   6.010  0.3076 -0.2309 -0.3068
12272SOL    HW242137   7.146  10.312   6.075  1.1595 -0.0666 -1.9318
12273SOL     OW42138   7.886   7.954   4.104  0.4752  0.2840  0.8916
12273SOL    HW142139   7.930   8.037   4.084  1.3828  0.0300  1.7474
12273SOL    HW242140   7.812   7.951   4.044  1.1214  1.1511  0.0175
12274SOL     OW42141   0.094   3.687   9.524 -0.5786  0.2536  0.1304
12274SOL    HW142142   0.114   3.639   9.604  0.7865 -0.1153 -0.4003
12274SOL    HW242143   0.012   3.651   9.493 -1.1400  0.4234  1.3699
12275SOL     OW42144  11.179  10.941   9.727 -0.6230  0.4224  0.6761
12275SOL    HW142145  11.129  10.969   9.650  2.2791  0.3553 -1.4165
12275SOL    HW242146  11.157  10.849   9.738 -0.2866  0.1323 -0.8083
12276SOL     OW42147   9.110   1.494   2.746  0.8473 -0.1556 -0.7358
12276SOL    HW142148   9.090   1.402   2.728 -0.2249  0.0549 -0.6994
12276SOL    HW242149   9.038   1.523   2.802  2.7802 -0.1475  1.9603
12277SOL     OW42150   6.949   2.494   1.880  0.1993 -0.7537  0.3745
12277SOL    HW142151   6.908   2.426   1.827 -1.1606 -0.7975  1.4131
12277SOL    HW242152   6.983   2.557   1.817  1.7450 -2.5003 -0.6236
12278SOL     OW42153   0.004   1.684   2.411  0.2016 -0.1836  0.0360
12278SOL    HW142154   0.089   1.706   2.451  0.7005 -0.6150 -0.7679
12278SOL    HW242155   0.018   1.599   2.371  0.2651  1.0038 -2.6473
12279SOL     OW42156   7.710   4.131   7.847  0.0248 -0.2099  0.4186
12279SOL    HW142157   7.626   4.160   7.882 -0.9349 -1.1334 -0.9767
12279SOL    HW242158   7.714   4.038   7.870  0.6556 -0.1726  0.4639
12280SOL     OW42159   0.766   8.687  10.358 -0.1701 -0.5400  0.3395
12280SOL    HW142160   0.697   8.672  10.422  0.4421  2.2333  1.8447
12280SOL    HW242161   0.827   8.614  10.369 -0.2830 -0.3272  2.6928
12281SOL     OW42162  11.172   0.535   4.725 -0.2297  0.2072  0.5303
12281SOL    HW142163  11.144   0.580   4.804 -0.5305 -0.3448  0.7438
12281SOL    HW242164  11.160   0.442   4.744 -1.6964  0.1065 -0.6680
12282SOL     OW42165   9.539  10.249   7.520 -0.1170 -0.3124  0.4199
12282SOL    HW142166   9.586  10.202   7.451 -1.7725 -0.8998 -0.3539
12282SOL    HW242167   9.560  10.341   7.505  0.5084 -0.5365 -0.1165
12283SOL     OW42168  11.339   9.757   9.466 -0.2715 -0.1322  0.1896
12283SOL    HW142169  11.301   9.683   9.513 -0.7643  0.1226  0.2049
12283SOL    HW242170  11.358   9.724   9.378 -2.3214  0.2140 -0.4518
12284SOL     OW42171   0.360  10.096   2.729  0.2374  0.2776 -0.4029
12284SOL    HW142172   0.369  10.089   2.824  0.3661  0.7945 -0.3716
12284SOL    HW242173   0.288  10.159   2.717  1.3826  1.5792 -0.6353
12285SOL     OW42174   0.863   9.290   1.487 -0.0193  0.0476  0.2506
12285SOL    HW142175   0.934   9.236   1.453 -0.5698 -1.6081  1.6016
12285SOL    HW242176   0.827   9.334   1.410  0.5772 -1.3682 -0.8847
12286SOL     OW42177   9.463   2.738  10.314 -0.2543 -0.2917  0.0032
12286SOL    HW142178   9.473   2.828  10.281  0.2298 -0.5260 -0.4982
12286SOL    HW242179   9.501   2.683  10.246  0.0204 -0.8396  0.5930
12287SOL     OW42180   4.515   5.336   5.232 -0.0668  0.0822  0.3571
12287SOL    HW142181   4.588   5.294   5.186  0.6807  0.6428  1.0079
12287SOL    HW242182   4.460   5.262   5.261 -0.4085 -0.2858 -1.1626
12288SOL     OW42183   7.216   9.652   2.544  0.2098  0.7338 -0.0485
12288SOL    HW142184   7.215   9.618   2.455  0.8155 -0.2759  0.3085
12288SOL    HW242185   7.123   9.666   2.566 -0.0247 -0.2089 -0.4002
12289SOL     OW42186   3.545   0.785  10.668  0.4953 -0.2549  0.2963
12289SOL    HW142187   3.638   0.767  10.680  0.1748 -1.5818  1.0187
12289SOL    HW242188   3.526   0.751  10.580  0.8259  0.6497 -0.1344
12290SOL     OW42189   3.036   3.427   7.877 -0.4171 -0.1140 -0.4599
12290SOL    HW142190   3.010   3.516   7.853  0.2287  0.6184  1.4019
12290SOL    HW242191   2.966   3.396   7.935 -0.1308 -0.4325 -0.2822
12291SOL     OW42192   9.866   0.506  10.532  0.1953 -0.0402  0.3607
12291SOL    HW142193   9.937   0.564  10.559  1.2409 -1.9490  1.9375
12291SOL    HW242194   9.793   0.529  10.590  0.5158 -0.1135  0.7991
12292SOL     OW42195   6.790   3.636   2.816 -0.1144 -1.1134 -0.3215
12292SOL    HW142196   6.745   3.587   2.747 -0.9771  0.1886 -0.7134
12292SOL    HW242197   6.738   3.715   2.827  1.4506 -0.0856  0.0146
12293SOL     OW42198   7.409   5.875   5.445  0.2937  0.4845 -0.4695
12293SOL    HW142199   7.433   5.808   5.381 -1.4823 -1.6672  0.9410
12293SOL    HW242200   7.476   5.868   5.513 -0.8731 -1.2797  0.5737
12294SOL     OW42201   3.042   6.358   7.993 -0.1237  0.5198  0.1949
12294SOL    HW142202   2.950   6.382   8.004 -0.4296 -0.8978  1.0794
12294SOL    HW242203   3.066   6.318   8.077  0.9204 -0.2865 -0.4669
12295SOL     OW42204   9.367   6.933   9.505 -0.4004  0.3848 -0.3228
12295SOL    HW142205   9.456   6.966   9.512 -1.0445  1.8477  2.0210
12295SOL    HW242206   9.373   6.861   9.442  2.7422 -0.6844  1.0027
12296SOL     OW42207  11.344   5.184   3.303  0.5134  0.2907  0.3681
12296SOL    HW142208  11.350   5.151   3.393  1.9461 -0.9740 -0.1424
12296SOL    HW242209  11.378   5.274   3.308  1.0367  0.0674  1.0222
12297SOL     OW42210   6.667  11.613  10.754 -0.2709 -0.1305 -0.4903
12297SOL    HW142211   6.688  11.520  10.743  0.4717  0.0295 -0.4719
12297SOL    HW242212   6.579  11.613  10.792  0.3439 -0.8728  1.0335
12298SOL     OW42213   6.689   2.476   1.002 -0.0381 -0.0163 -0.0240
12298SOL    HW142214   6.652   2.542   0.944 -0.3773 -0.0901  0.1056
12298SOL    HW242215   6.737   2.527   1.068  0.6152  0.0542 -0.5440
12299SOL     OW42216   2.979  10.025  10.082  0.0891 -0.2779 -0.2244
12299SOL    HW142217   2.890  10.033  10.116  0.4538  1.0466  0.5036
12299SOL    HW242218   3.013   9.945  10.123  0.1807  0.7520  1.8642
12300SOL     OW42219  11.777   7.414   7.464  0.2472 -0.1517 -0.5468
12300SOL    HW142220  11.733   7.498   7.472 -1.1862 -0.9685  0.7659
12300SOL    HW242221  11.731   7.369   7.393  0.7751  0.0204 -1.0058
12301SOL     OW42222   2.923   2.562   5.563 -0.2462 -0.0653 -0.4475
12301SOL    HW142223   2.974   2.638   5.534 -1.0246  1.4767  1.9508
12301SOL    HW242224   2.988   2.492   5.572  0.6248  0.5022 -1.8882
12302SOL     OW42225  10.193   5.874  11.715  0.9391  0.2262  0.1934
12302SOL    HW142226  10.138   5.801  11.746  0.3340 -0.2282 -1.7471
12302SOL    HW242227  10.130   5.938  11.682  1.5249  0.7763  0.1338
12303SOL     OW42228   3.081   0.899   4.517 -0.4508  0.4484  0.2723
12303SOL    HW142229   3.161   0.919   4.468 -0.2851 -2.0013 -0.6015
12303SOL    HW242230   3.010   0.923   4.458 -0.2900 -0.4871 -0.3067
12304SOL     OW42231   1.728   1.557   1.324 -0.0166 -0.0383  0.6318
12304SOL    HW142232   1.714   1.465   1.346 -0.2649 -0.5921 -1.6331
12304SOL    HW242233   1.649   1.582   1.275  0.5010  1.0937  0.3487
12305SOL     OW42234  10.742   2.399   8.698  0.2751  0.1681 -0.3857
12305SOL    HW142235  10.673   2.451   8.656 -0.3535 -0.1964  0.1695
12305SOL    HW242236  10.812   2.395   8.634  0.0428  1.1032 -0.7092
12306SOL     OW42237   9.801   5.948   9.291  0.4446  0.0779 -0.0995
12306SOL    HW142238   9.743   5.929   9.217  0.4549 -1.6150  0.2748
12306SOL    HW242239   9.743   5.978   9.360  0.5119  2.4074 -0.9772
12307SOL     OW42240   6.615   8.742  10.311 -0.1941 -0.5219 -0.1688
12307SOL    HW142241   6.565   8.716  10.234 -1.0976  1.3795 -0.2674
12307SOL    HW242242   6.681   8.803  10.278 -0.9911  0.8100  0.5986
12308SOL     OW42243   5.550  11.039   3.546 -0.0674 -0.0932 -0.1577
12308SOL    HW142244   5.515  11.128   3.550  0.5888  0.1781 -0.1618
12308SOL    HW242245   5.499  10.995   3.478  1.2968  1.0883 -2.0801
12309SOL     OW42246   3.376   5.321   5.181  0.1200 -0.3543  0.2155
12309SOL    HW142247   3.437   5.391   5.204 -1.8884  1.7238 -0.4113
12309SOL    HW242248   3.291   5.364   5.174 -1.6449 -3.2306  1.7691
12310SOL     OW42249  11.353   6.308   7.270 -0.3988 -0.1071  0.0822
12310SOL    HW142250  11.367   6.292   7.176 -0.8572 -0.4044  0.0607
12310SOL    HW242251  11.438   6.294   7.310 -0.4285 -1.0481 -0.1527
12311SOL     OW42252   1.139   5.275   8.023 -0.2691 -0.3245  0.5067
12311SOL    HW142253   1.142   5.238   8.111  2.8868 -0.6081  0.3693
12311SOL    HW242254   1.193   5.353   8.027 -1.8474  0.9117 -0.7163
12312SOL     OW42255   5.410   1.001   0.887  0.6036  0.2308  0.2460
12312SOL    HW142256   5.479   0.976   0.825 -0.4842  0.3972 -1.0904
12312SOL    HW242257   5.435   1.088   0.918  1.1874  0.1268  0.0741
12313SOL     OW42258   9.555   1.277   1.523  0.3661  0.3731  0.2096
12313SOL    HW142259   9.500   1.258   1.599  0.1299 -0.4650 -0.1624
12313SOL    HW242260   9.524   1.362   1.492  0.0290  0.4221  0.6658
12314SOL     OW42261   1.324   9.029   8.461 -0.6322 -0.3736  0.6693
12314SOL    HW142262   1.243   8.978   8.460 -0.3777 -0.7821  0.7083
12314SOL    HW242263   1.360   9.015   8.549 -0.4960 -0.2306  0.6370
12315SOL     OW42264   0.092   0.699   6.745  0.0130  0.2181 -0.2551
12315SOL    HW142265   0.089   0.792   6.721  0.3898  0.7280  1.5570
12315SOL    HW242266   0.028   0.691   6.815  1.1999 -0.5192  0.7727
12316SOL     OW42267  10.336   0.423   5.537  0.0293  0.3533  0.0112
12316SOL    HW142268  10.301   0.416   5.626  0.1659 -0.3927  0.0164
12316SOL    HW242269  10.374   0.337   5.520  0.2839  0.5930 -0.6539
12317SOL     OW42270   9.675   5.306   3.568  0.6656  0.2752 -0.3203
12317SOL    HW142271   9.669   5.397   3.540 -1.0191 -0.2524 -1.8431
12317SOL    HW242272   9.718   5.262   3.495 -2.2669 -0.8290 -1.5213
12318SOL     OW42273   4.306   4.560   9.419  0.2888  0.4498 -0.5735
12318SOL    HW142274   4.381   4.547   9.361  0.4576  0.6454 -0.4027
12318SOL    HW242275   4.344   4.571   9.506  0.0233 -0.0487 -0.3930
12319SOL     OW42276   5.926   5.192   2.444  0.2323 -0.1450 -0.2845
12319SOL    HW142277   5.853   5.132   2.457 -1.1896  1.2494 -1.4455
12319SOL    HW242278   5.913   5.261   2.508  1.1389 -0.3940  0.1882
12320SOL     OW42279   2.624   4.961   0.162  0.3919 -0.2238  0.1779
12320SOL    HW142280   2.558   5.008   0.214  1.1037  0.1010  0.8101
12320SOL    HW242281   2.669   5.029   0.113  1.6946 -0.1607  1.3986
12321SOL     OW42282   0.673   9.617   0.062 -0.0130 -0.0629 -0.2748
12321SOL    HW142283   0.718   9.699   0.042  1.6320 -0.6721  0.7124
12321SOL    HW242284   0.615   9.638   0.134  0.2007  0.3019 -0.2048
12322SOL     OW42285  10.533   9.794   2.959  0.4481 -0.0955 -0.3554
12322SOL    HW142286  10.585   9.765   3.034  0.3850  0.7569  0.0292
12322SOL    HW242287  10.503   9.713   2.918 -0.2487 -0.5707  1.0433
12323SOL     OW42288   5.163   6.463  11.352  0.0526 -0.0814  0.0306
12323SOL    HW142289   5.252   6.490  11.328  0.2314 -0.6503  0.0478
12323SOL    HW242290   5.173   6.376  11.389 -0.7924 -1.1766 -2.1539
12324SOL     OW42291   4.411   9.167   2.151  0.3517  0.0431  0.3564
12324SOL    HW142292   4.479   9.213   2.104 -0.6977  0.8187 -0.4420
12324SOL    HW242293   4.449   9.081   2.169  1.7636  0.6714  0.5120
12325SOL     OW42294   4.053   1.157  10.661  0.1700  0.3914  0.4344
12325SOL    HW142295   4.050   1.075  10.612 -0.2594 -0.0899  1.2481
12325SOL    HW242296   3.962   1.177  10.681  0.1445  1.7547 -0.8481
12326SOL     OW42297   0.495   9.245   9.412 -0.6438  0.4116  0.3611
12326SOL    HW142298   0.459   9.286   9.491 -1.4593  2.5751 -1.0459
12326SOL    HW242299   0.419   9.207   9.368 -0.0661 -1.6593  0.9995
12327SOL     OW42300   2.548   3.697   2.768  0.2470 -0.3475  0.1042
12327SOL    HW142301   2.632   3.721   2.729 -0.8005  0.5416 -1.7559
12327SOL    HW242302   2.485   3.758   2.729 -1.1213 -0.2383  2.2941
12328SOL     OW42303   3.184   9.613   5.249  0.0256  0.5945  0.0744
12328SOL    HW142304   3.138   9.566   5.318  0.4114  1.2720  0.8089
12328SOL    HW242305   3.193   9.549   5.178 -1.1598  0.1666  0.3008
12329SOL     OW42306   3.342   7.352   0.180  0.2918 -0.1423 -0.1831
12329SOL    HW142307   3.261   7.363   0.131 -1.0525 -1.3830  1.6508
12329SOL    HW242308   3.367   7.261   0.165  0.7226 -0.0829  0.1620
12330SOL     OW42309   4.743  11.127   6.149 -0.1612 -0.2288 -0.6607
12330SOL    HW142310   4.745  11.046   6.201 -0.9756  0.7059  0.9147
12330SOL    HW242311   4.817  11.119   6.089  0.2117 -1.8212 -0.0448
12331SOL     OW42312   5.747  10.230   8.474  0.0169 -0.3904  0.0218
12331SOL    HW142313   5.757  10.156   8.414 -4.2232 -1.3765  0.1976
12331SOL    HW242314   5.699  10.193   8.549 -1.3279  2.2725  0.5827
12332SOL     OW42315   6.340  11.215   6.269 -0.0573  0.1729  0.2730
12332SOL    HW142316   6.306  11.260   6.192  0.3436  0.8850  0.5004
12332SOL    HW242317   6.271  11.224   6.334  0.0476  0.5467  0.3408
12333SOL     OW42318   7.397   6.609   3.632 -0.1284 -0.0075  0.3576
12333SOL    HW142319   7.465   6.658   3.679  0.5427 -2.8905  2.6462
12333SOL    HW242320   7.445   6.548   3.577 -0.9413  0.1670 -0.5804
12334SOL     OW42321   2.615  10.782   3.778  0.6425  0.0877  0.0156
12334SOL    HW142322   2.685  10.840   3.750  0.5975 -0.5742 -1.5529
12334SOL    HW242323   2.557  10.837   3.831  0.9458  1.2840 -0.8682
12335SOL     OW42324   2.783   0.804   5.632  0.3579  0.0540  0.3142
12335SOL    HW142325   2.719   0.851   5.687  0.6028 -0.0638  0.7060
12335SOL    HW242326   2.842   0.872   5.600  0.4394  0.0776  0.5091
12336SOL     OW42327   0.622   8.418   3.225  0.1575 -0.0917 -0.2507
12336SOL    HW142328   0.661   8.452   3.305  0.0294  0.3755 -0.3872
12336SOL    HW242329   0.671   8.459   3.154 -0.6708  0.6170 -0.4270
12337SOL     OW42330   5.770   1.236   7.391  0.0113  0.2543  0.4505
12337SOL    HW142331   5.683   1.206   7.418 -0.1628  1.7357  1.6025
12337SOL    HW242332   5.789   1.184   7.312 -1.4678 -0.8152  0.7573
12338SOL     OW42333   3.513   0.152   5.943  0.4939 -0.4489 -0.3211
12338SOL    HW142334   3.502   0.247   5.935  0.7047 -0.4684 -0.8926
12338SOL    HW242335   3.438   0.115   5.897 -0.1859 -0.5618  0.8544
12339SOL     OW42336   4.892   3.313   5.278 -0.0882 -0.4344 -0.5669
12339SOL    HW142337   4.932   3.399   5.264  0.5341 -0.9145 -1.8800
12339SOL    HW242338   4.798   3.332   5.289  0.0065  0.3947 -1.0943
12340SOL     OW42339  10.236   6.788   4.801  0.6042 -0.3713  0.2576
12340SOL    HW142340  10.163   6.842   4.771  0.4811  0.3691  1.7944
12340SOL    HW242341  10.265   6.742   4.722  1.5987  2.9325 -1.4865
12341SOL     OW42342   6.174   8.727   6.808 -0.5332  0.3976 -0.2036
12341SOL    HW142343   6.112   8.655   6.796 -0.5220 -0.1325  2.2896
12341SOL    HW242344   6.251   8.686   6.848 -0.1312  1.6239  0.3513
12342SOL     OW42345   3.936   4.805  10.616 -0.1972 -0.0261  0.1529
12342SOL    HW142346   3.972   4.721  10.587  0.8014 -0.0740  1.4468
12342SOL    HW242347   3.984   4.870  10.565 -0.0799 -0.1863  0.0564
12343SOL     OW42348   1.526   6.198   0.118 -0.9051 -0.1784 -0.1659
12343SOL    HW142349   1.596   6.152   0.163 -0.4484 -0.1681 -0.8580
12343SOL    HW242350   1.558   6.288   0.107 -1.6174  0.2105  0.7940
12344SOL     OW42351   8.505  10.721  10.504  0.2517 -0.6465 -0.1678
12344SOL    HW142352   8.528  10.662  10.577  1.6630 -1.4742 -1.2290
12344SOL    HW242353   8.462  10.664  10.441 -0.6753  0.0060 -0.1330
12345SOL     OW42354   3.064   3.211   2.530  0.4107  0.4739 -0.5600
12345SOL    HW142355   3.108   3.163   2.459 -2.1685  0.7659 -2.5111
12345SOL    HW242356   2.971   3.207   2.507 -0.2840  2.9329  1.3986
12346SOL     OW42357   5.262   0.281   9.936 -0.4515  0.5317 -0.3976
12346SOL    HW142358   5.268   0.222   9.860  1.4960 -0.1817  0.2523
12346SOL    HW242359   5.251   0.222  10.010  1.8180  0.8893  0.3021
12347SOL     OW42360   7.507   4.908   9.424 -0.3698 -0.5546 -0.6998
12347SOL    HW142361   7.578   4.942   9.369 -1.6842 -0.0905 -2.1724
12347SOL    HW242362   7.431   4.903   9.365 -1.9923  0.4713  1.2073
12348SOL     OW42363   0.644   7.352   1.413  0.3355  0.4452 -0.2299
12348SOL    HW142364   0.639   7.427   1.354 -1.9574 -0.8271 -1.8406
12348SOL    HW242365   0.737   7.330   1.417  0.6753  1.0805 -2.8192
12349SOL     OW42366   3.625   1.350   6.834 -0.3966 -0.0859  0.3672
12349SOL    HW142367   3.677   1.429   6.829 -0.2041 -0.2517 -0.4239
12349SOL    HW242368   3.553   1.364   6.772 -0.2481 -0.6029  0.0665
12350SOL     OW42369  10.504   2.284   4.579 -0.6360  0.2866 -0.1453
12350SOL    HW142370  10.418   2.311   4.612 -1.2853  0.2396 -1.7011
12350SOL    HW242371  10.493   2.283   4.484  1.4017  1.3500 -0.4377
12351SOL     OW42372   9.512   9.859   6.611  0.4971  0.2589 -0.0811
12351SOL    HW142373   9.564   9.937   6.591  0.3603  0.2772 -0.3700
12351SOL    HW242374   9.488   9.823   6.525  0.4225 -0.0101  0.0509
12352SOL     OW42375   8.391   0.464   1.805  0.3984  0.2740  0.1872
12352SOL    HW142376   8.307   0.438   1.766 -0.5560 -0.4046  2.5398
12352SOL    HW242377   8.368   0.531   1.869  1.8290  0.9696  0.0039
12353SOL     OW42378   6.825   6.516   1.619 -0.1032 -0.2386 -0.5385
12353SOL    HW142379   6.738   6.487   1.593 -0.4790  2.0593 -2.0996
12353SOL    HW242380   6.811   6.601   1.660  1.4045  0.2223 -0.9090
12354SOL     OW42381   4.889   4.494   9.412 -0.7180 -0.0729 -0.0665
12354SOL    HW142382   4.793   4.493   9.415 -0.8114  0.5873 -1.5332
12354SOL    HW242383   4.909   4.530   9.325  0.8607  0.0462  0.3180
12355SOL     OW42384   0.482   2.463   2.765 -0.2479 -0.2340  0.8707
12355SOL    HW142385   0.437   2.379   2.758 -1.3133  0.3522  0.5134
12355SOL    HW242386   0.518   2.477   2.677 -2.1353  0.7936  0.2145
12356SOL     OW42387   9.557  10.659   1.917 -0.0719 -0.0556  0.4521
12356SOL    HW142388   9.558  10.710   1.998  0.5081 -0.2217  0.5504
12356SOL    HW242389   9.621  10.702   1.861 -0.9115  0.4338 -0.1622
12357SOL     OW42390   3.126   7.960   5.696  0.4636  0.4606  0.0854
12357SOL    HW142391   3.104   8.046   5.659 -0.1324  0.8400  1.2759
12357SOL    HW242392   3.102   7.967   5.789 -1.2089 -1.5670 -0.1399
12358SOL     OW42393   3.714   5.696   7.694  0.6453 -0.9280  0.4820
12358SOL    HW142394   3.626   5.660   7.704 -0.4037  1.2615 -0.2615
12358SOL    HW242395   3.714   5.737   7.608  1.8485  0.5317  1.1222
12359SOL     OW42396   3.729   4.905   5.377 -0.8085 -0.7101 -0.2316
12359SOL    HW142397   3.651   4.852   5.365 -0.9854 -0.8485  1.3308
12359SOL    HW242398   3.705   4.968   5.445  0.0188  0.1181 -0.6818
12360SOL     OW42399   0.878   3.176   0.579  0.1761 -0.5640 -0.1336
12360SOL    HW142400   0.897   3.135   0.495  1.4136 -0.3761  0.0406
12360SOL    HW242401   0.873   3.103   0.641 -2.6043 -0.9118 -0.6210
12361SOL     OW42402   8.675   7.800   7.233  0.1728  0.0519  0.6809
12361SOL    HW142403   8.604   7.763   7.285  0.7592 -2.4487 -0.1852
12361SOL    HW242404   8.755   7.774   7.279  0.6096  0.3185  0.0904
12362SOL     OW42405   0.402   8.242   8.855  0.2674  0.5352  0.0416
12362SOL    HW142406   0.440   8.329   8.869  0.3382  0.4309  0.5310
12362SOL    HW242407   0.311   8.260   8.829  0.5121  0.7715 -0.6533
12363SOL     OW42408   5.333   7.192   2.895 -0.0614 -0.1246 -0.0012
12363SOL    HW142409   5.387   7.135   2.950 -0.6252  0.2927  1.0197
12363SOL    HW242410   5.244   7.182   2.930 -0.4889 -0.0535 -1.0238
12364SOL     OW42411   3.247  10.511   7.843  0.2103 -0.6403 -0.1822
12364SOL    HW142412   3.308  10.584   7.828  1.9799 -1.8709  0.6405
12364SOL    HW242413   3.304  10.437   7.865 -1.6502 -1.5538  1.9253
12365SOL     OW42414  10.735  10.948   7.086 -0.2753 -0.1280  0.5933
12365SOL    HW142415  10.722  11.014   7.018 -0.3134 -1.7628 -1.0771
12365SOL    HW242416  10.813  10.976   7.132  0.6398  0.2881 -1.1201
12366SOL     OW42417   7.458   6.501   4.331 -0.1848  0.4488  0.1165
12366SOL    HW142418   7.397   6.465   4.396 -3.1383  0.0718 -2.5858
12366SOL    HW242419   7.505   6.424   4.298  1.7494  0.7096  2.0290
12367SOL     OW42420   6.686   3.950   6.580 -0.6191 -0.7345 -0.2134
12367SOL    HW142421   6.651   3.920   6.664  0.2414 -0.0496  0.4163
12367SOL    HW242422   6.609   3.962   6.525 -1.3268 -0.0819  0.8641
12368SOL     OW42423   6.686   5.358   8.426 -0.5747 -0.3801 -0.7701
12368SOL    HW142424   6.643   5.316   8.500  0.7053 -1.3382 -0.5429
12368SOL    HW242425   6.761   5.403   8.465 -0.4506 -0.0559 -1.3725
12369SOL     OW42426   6.642   1.276   7.353 -0.4850  0.0681 -0.3421
12369SOL    HW142427   6.737   1.284   7.341 -0.4285  0.0296  0.0504
12369SOL    HW242428   6.609   1.366   7.346 -0.4818  0.0281 -0.9477
12370SOL     OW42429   5.858   5.997   4.890  0.2668 -0.4711  0.4873
12370SOL    HW142430   5.818   5.962   4.810 -0.8392  0.6745  0.5091
12370SOL    HW242431   5.795   6.061   4.923  1.8772  1.0713  0.8018
12371SOL     OW42432   9.413   1.642   1.558  0.3321 -0.3942 -0.0266
12371SOL    HW142433   9.481   1.705   1.581  0.2484 -0.6811  1.0918
12371SOL    HW242434   9.345   1.655   1.624 -1.2859  0.7317 -1.8145
12372SOL     OW42435   0.451  11.096  11.379  0.1754  0.6005 -0.5471
12372SOL    HW142436   0.432  11.179  11.422  0.2745  0.4427 -0.1950
12372SOL    HW242437   0.406  11.102  11.295 -1.7868  0.0841  0.4122
12373SOL     OW42438   8.247   8.825   8.464  0.0156  0.2967  0.4276
12373SOL    HW142439   8.252   8.861   8.376  1.8051  1.7841  1.0491
12373SOL    HW242440   8.175   8.873   8.506  0.0830  0.6093  0.1871
12374SOL     OW42441   8.518   5.312   4.439  0.0717  0.6212  0.1214
12374SOL    HW142442   8.528   5.255   4.515 -0.1544 -0.0988 -0.3742
12374SOL    HW242443   8.489   5.395   4.475  1.4293  0.7568  0.9554
12375SOL     OW42444   2.802  10.342  10.468  0.4175 -0.3374  0.2623
12375SOL    HW142445   2.893  10.353  10.438  0.2920  1.1038  0.3355
12375SOL    HW242446   2.752  10.402  10.413 -0.5452 -1.3184  0.0467
12376SOL     OW42447   8.688   7.158   0.499 -0.0695  0.0159  0.1712
12376SOL    HW142448   8.623   7.103   0.542 -1.0848  1.0832  0.0459
12376SOL    HW242449   8.700   7.118   0.413  0.3579 -0.8881  0.6479
12377SOL     OW42450  10.632   6.022   5.935  0.4515  0.6364  0.0322
12377SOL    HW142451  10.551   5.989   5.974  0.4503  0.8459  0.2100
12377SOL    HW242452  10.616   6.022   5.841 -0.7332  3.2221  0.1715
12378SOL     OW42453   4.203   4.596   5.654 -0.2455 -0.0916  0.2992
12378SOL    HW142454   4.111   4.593   5.630 -0.0824  1.4684 -0.6305
12378SOL    HW242455   4.229   4.687   5.642  0.6187  0.2531  3.7284
12379SOL     OW42456   9.696   5.467  11.665  0.6077  0.1601  0.5981
12379SOL    HW142457   9.669   5.493  11.577 -0.1626 -1.2952  0.3855
12379SOL    HW242458   9.619   5.481  11.719  1.4457  2.2768  1.3499
12380SOL     OW42459  10.440   4.675   6.507 -0.0425 -0.3112 -0.3050
12380SOL    HW142460  10.349   4.659   6.482 -0.4400  1.4058 -0.0091
12380SOL    HW242461  10.441   4.763   6.542  1.8504 -0.0771 -0.8309
12381SOL     OW42462   4.829   0.656   6.567  0.2760 -0.2707  0.2183
12381SOL    HW142463   4.844   0.742   6.605 -0.4856  0.0955 -0.2830
12381SOL    HW242464   4.741   0.661   6.529  0.2387 -1.2552  0.1479
12382SOL     OW42465   3.502   5.536   6.388 -0.1299  0.1813  1.0053
12382SOL    HW142466   3.593   5.565   6.382  0.4906 -1.7430  0.2968
12382SOL    HW242467   3.499   5.485   6.469  0.0309 -1.6232 -0.0847
12383SOL     OW42468   6.096   0.122   0.895  0.1582 -0.0243  0.1517
12383SOL    HW142469   6.095   0.026   0.895  0.3319 -0.0273  0.2915
12383SOL    HW242470   6.009   0.147   0.865 -1.4945 -0.2298  4.1263
12384SOL     OW42471   4.965   1.978   1.614  0.1721  0.0289  0.1421
12384SOL    HW142472   5.055   2.002   1.590  0.1255  0.0123 -0.0526
12384SOL    HW242473   4.914   2.056   1.594 -0.0601 -0.3885 -0.9691
12385SOL     OW42474   4.561   6.276   4.278 -0.6820  0.1735  0.1117
12385SOL    HW142475   4.617   6.323   4.216 -0.7030 -0.6638 -0.5725
12385SOL    HW242476   4.548   6.190   4.237 -1.3256 -0.1285  0.9263
12386SOL     OW42477  10.468   3.825   8.295  0.1907 -0.2337  0.2789
12386SOL    HW142478  10.402   3.895   8.289 -2.3221 -2.5324 -1.4341
12386SOL    HW242479  10.421   3.752   8.335  1.4327 -2.2437 -1.7356
12387SOL     OW42480   1.408   2.426   9.489  0.5181  0.1700 -0.3462
12387SOL    HW142481   1.434   2.363   9.422 -2.7917 -2.7836  0.8758
12387SOL    HW242482   1.460   2.403   9.566  0.0069 -0.4688 -0.1852
12388SOL     OW42483  11.256   1.579   9.001  0.1334 -0.1201 -0.1196
12388SOL    HW142484  11.343   1.601   8.966 -0.6615  0.9563 -1.5526
12388SOL    HW242485  11.231   1.501   8.953  0.1406 -0.1961  0.0002
12389SOL     OW42486   4.795   1.223   7.289 -0.1067  0.4859  0.5563
12389SOL    HW142487   4.751   1.279   7.225  0.2950  0.8725  0.6176
12389SOL    HW242488   4.886   1.221   7.262 -0.2069 -0.5706  0.2501
12390SOL     OW42489   4.042   5.301   9.540  0.1807 -0.8970 -0.2662
12390SOL    HW142490   4.065   5.385   9.502 -1.3222  2.0811  4.5916
12390SOL    HW242491   4.123   5.270   9.582  0.5862 -1.6870 -1.5730
12391SOL     OW42492  10.751   8.892  10.211 -0.0105  0.3931  0.1786
12391SOL    HW142493  10.814   8.851  10.269 -1.4508 -0.5823  1.1207
12391SOL    HW242494  10.771   8.986  10.216  1.6922  0.0713 -0.0151
12392SOL     OW42495   2.870  11.697   5.842 -0.1751 -0.0344  0.2928
12392SOL    HW142496   2.885  11.687   5.748 -0.3382 -1.5892  0.4065
12392SOL    HW242497   2.941  11.648   5.884  0.8347  1.9737  1.0462
12393SOL     OW42498   1.021   0.815   5.374 -0.5485 -0.4278  0.0892
12393SOL    HW142499   1.086   0.828   5.443 -0.5574  2.0805 -0.2777
12393SOL    HW242500   0.956   0.756   5.412  0.7786 -1.1992  1.2451
12394SOL     OW42501   2.248   4.312   9.234  0.5147  0.0082 -0.0237
12394SOL    HW142502   2.204   4.360   9.163  0.1303  1.7567  1.3386
12394SOL    HW242503   2.296   4.379   9.282  4.1311 -1.6859 -0.9432
12395SOL     OW42504   6.312   1.095   2.200  0.1621  0.3426 -0.6370
12395SOL    HW142505   6.405   1.102   2.176  1.0905  0.7773  2.5801
12395SOL    HW242506   6.309   1.122   2.291 -2.9478 -1.1153 -0.1794
12396SOL     OW42507   9.564   3.297   1.780  0.3601 -0.2012 -0.0571
12396SOL    HW142508   9.645   3.270   1.823 -0.2898  0.5397  1.7203
12396SOL    HW242509   9.498   3.235   1.811  0.2140 -0.8014 -1.4929
12397SOL     OW42510   5.855   3.058   1.722 -0.3289 -0.2390  0.2035
12397SOL    HW142511   5.929   3.003   1.748 -0.3342 -0.3583 -0.0341
12397SOL    HW242512   5.895   3.129   1.671 -0.2407  0.3669  1.0860
12398SOL     OW42513   5.334   6.848  11.220 -0.1554  0.5840 -0.8061
12398SOL    HW142514   5.381   6.791  11.159 -0.9720  0.8596 -1.7172
12398SOL    HW242515   5.247   6.856  11.182  0.1891  3.1751 -1.2047
12399SOL     OW42516  10.509   1.447   8.130 -0.0531 -0.5739  0.5994
12399SOL    HW142517  10.421   1.484   8.131  0.0232 -0.3274  2.7758
12399SOL    HW242518  10.551   1.485   8.053 -1.3112  0.5992  0.4697
12400SOL     OW42519   3.080  11.226   0.275  0.4651 -0.4162  0.6126
12400SOL    HW142520   3.101  11.312   0.310  2.7527 -0.3967 -0.5930
12400SOL    HW242521   3.066  11.240   0.181  2.6169 -1.5070  0.0555
12401SOL     OW42522   2.423   1.190   3.536  0.3943 -0.3446 -0.6114
12401SOL    HW142523   2.488   1.216   3.601 -1.0420  2.2078 -0.0366
12401SOL    HW242524   2.349   1.249   3.551 -1.2432 -1.7293 -2.5744
12402SOL     OW42525   3.997   9.769   4.784 -0.1545 -0.2068 -0.2776
12402SOL    HW142526   3.968   9.792   4.872 -0.6391  2.3855 -1.0377
12402SOL    HW242527   3.916   9.745   4.738 -0.2295  0.6910 -0.6270
12403SOL     OW42528   6.832   2.006   8.315 -0.2628 -0.2110 -0.1668
12403SOL    HW142529   6.774   2.082   8.326  0.8641  0.7520 -0.5776
12403SOL    HW242530   6.903   2.021   8.378  0.6057 -0.2690 -1.0961
12404SOL     OW42531   8.681   4.897   0.801  0.3729 -0.4070 -0.3348
12404SOL    HW142532   8.600   4.874   0.846  0.9746 -0.7075  0.6153
12404SOL    HW242533   8.672   4.858   0.714 -0.3568 -0.7159 -0.1263
12405SOL     OW42534   6.496   2.652  10.084 -0.4371 -0.2221 -0.2700
12405SOL    HW142535   6.569   2.590  10.087  2.0244  2.4948  0.1168
12405SOL    HW242536   6.478   2.663   9.991  0.2561 -0.2782 -0.4150
12406SOL     OW42537   3.266   4.651   7.518 -0.4713  0.9484 -0.0083
12406SOL    HW142538   3.215   4.590   7.466  1.5675  0.3187 -1.3969
12406SOL    HW242539   3.209   4.675   7.591 -2.7816  0.5257 -1.6015
12407SOL     OW42540   1.472   5.583   3.138 -0.1796  0.3759  0.2850
12407SOL    HW142541   1.432   5.546   3.059  1.3744 -2.9122  0.8769
12407SOL    HW242542   1.397   5.608   3.192 -1.3442 -0.5230 -0.8436
12408SOL     OW42543   9.980   1.728   7.479  0.3764 -0.5320  0.5931
12408SOL    HW142544   9.907   1.766   7.529 -0.6951  0.0248 -1.3085
12408SOL    HW242545   9.938   1.680   7.408  1.8647 -0.4111 -0.4152
12409SOL     OW42546   6.351   0.302  11.075  0.0402 -0.4133  0.4600
12409SOL    HW142547   6.301   0.382  11.059 -0.2240 -0.9499 -1.6490
12409SOL    HW242548   6.442   0.326  11.057  0.1384 -0.2818  1.0926
12410SOL     OW42549   9.374   7.914  10.600 -0.1483 -0.2218 -0.0698
12410SOL    HW142550   9.310   7.940  10.534  0.2101 -1.0390 -0.7676
12410SOL    HW242551   9.323   7.873  10.669 -0.4087 -0.7245 -0.5473
12411SOL     OW42552   7.900   1.414   4.913 -0.1432  0.7689 -0.3136
12411SOL    HW142553   7.902   1.332   4.865  2.2849 -0.1056  1.1334
12411SOL    HW242554   7.990   1.446   4.910 -0.4871  2.0159  1.3964
12412SOL     OW42555  10.650   6.721   4.937 -0.2903  0.1509  0.5466
12412SOL    HW142556  10.595   6.702   4.861  0.8802  2.2129 -0.9084
12412SOL    HW242557  10.614   6.802   4.974  2.2520  2.2063 -1.1146
12413SOL     OW42558   7.989   8.868   3.022 -0.3357 -0.5800 -0.7292
12413SOL    HW142559   7.948   8.939   3.072  0.2676  0.2292 -1.3350
12413SOL    HW242560   8.022   8.808   3.088 -1.6694 -0.7840 -0.2183
12414SOL     OW42561   7.595   5.397   9.468 -0.5967  0.0830  0.3016
12414SOL    HW142562   7.634   5.326   9.519 -0.4924 -0.1024 -0.0307
12414SOL    HW242563   7.570   5.463   9.533  0.8918  0.5190  0.4789
12415SOL     OW42564   9.268   7.820   0.550  0.3887  0.1663  0.2969
12415SOL    HW142565   9.337   7.850   0.491 -1.0647 -1.6861 -2.5785
12415SOL    HW242566   9.290   7.728   0.567 -0.7057 -0.1101  0.3043
12416SOL     OW42567   6.929   2.410   4.647  0.1373  0.2018 -0.0470
12416SOL    HW142568   6.863   2.360   4.695  0.2224  1.3551  1.3064
12416SOL    HW242569   6.907   2.394   4.555 -1.0965 -0.6436  0.3573
12417SOL     OW42570   2.427   9.407   2.693  0.3091  0.0177 -0.5035
12417SOL    HW142571   2.381   9.324   2.685  2.2910 -1.0521 -1.4523
12417SOL    HW242572   2.402   9.440   2.779 -0.7719 -1.3927 -0.2438
12418SOL     OW42573   2.537   4.854  10.839 -0.3437 -0.3464  0.3212
12418SOL    HW142574   2.579   4.823  10.759 -1.1154  1.0694 -0.6697
12418SOL    HW242575   2.524   4.775  10.891 -0.2051 -1.3565 -1.1185
12419SOL     OW42576   7.824   6.671   5.687 -0.2913  0.3979  0.4679
12419SOL    HW142577   7.812   6.577   5.692 -3.4665  0.6014 -0.9456
12419SOL    HW242578   7.748   6.707   5.733  0.2905  2.2647  0.0540
12420SOL     OW42579   8.916   0.115   7.614  0.2803  0.8300 -0.2274
12420SOL    HW142580   8.877   0.129   7.528  0.2575 -0.3278 -0.4263
12420SOL    HW242581   8.989   0.055   7.598 -0.2633 -0.1205  0.6651
12421SOL     OW42582   4.438   2.784   8.320  0.1818  0.5124 -0.0907
12421SOL    HW142583   4.496   2.746   8.387 -1.4167 -0.2066  0.9412
12421SOL    HW242584   4.465   2.742   8.238 -0.7023 -2.0285  0.8203
12422SOL     OW42585   5.508   9.268   0.904  0.0334 -0.3200  0.6153
12422SOL    HW142586   5.480   9.358   0.884 -1.1827 -0.8482 -0.1855
12422SOL    HW242587   5.446   9.238   0.970 -0.1750 -0.8899  0.1735
12423SOL     OW42588   0.546   3.869   6.859  0.3830  0.0742 -0.2951
12423SOL    HW142589   0.608   3.932   6.823  0.4097 -1.2863 -2.8334
12423SOL    HW242590   0.586   3.784   6.842 -1.2602 -0.7557 -0.1815
12424SOL     OW42591   4.458   7.106   5.866 -0.2121 -0.3322  0.2726
12424SOL    HW142592   4.521   7.176   5.885  0.1878 -0.0160 -1.9911
12424SOL    HW242593   4.511   7.026   5.864 -0.2973 -0.4020  0.6435
12425SOL     OW42594   8.586   2.907   9.280  0.0339 -0.0897  0.0121
12425SOL    HW142595   8.626   2.992   9.299 -0.0500 -0.0784  0.1387
12425SOL    HW242596   8.659   2.845   9.283 -0.0165 -0.1246  0.6183
12426SOL     OW42597   8.158   3.989   2.259 -0.3353  0.3388  0.0252
12426SOL    HW142598   8.080   4.028   2.299 -1.1933  0.7390 -1.9230
12426SOL    HW242599   8.142   3.994   2.165  1.6248 -0.4839 -0.4058
12427SOL     OW42600   3.317   0.961  10.623 -0.0585 -0.2942  0.3662
12427SOL    HW142601   3.311   1.006  10.539  1.0542 -1.1196 -0.1771
12427SOL    HW242602   3.407   0.929  10.627 -0.1720 -0.5051  1.7523
12428SOL     OW42603   0.722   8.059   5.584  0.0868  0.2673 -0.9140
12428SOL    HW142604   0.632   8.073   5.615  0.7569 -0.8854  1.7995
12428SOL    HW242605   0.714   7.987   5.521 -0.7437 -0.8749  0.4379
12429SOL     OW42606   7.748   3.224   8.225 -1.0507  0.3828  0.1624
12429SOL    HW142607   7.715   3.192   8.308 -1.1130  0.0727  0.0181
12429SOL    HW242608   7.744   3.320   8.233  0.8572  0.4205  1.2846
12430SOL     OW42609  10.460   4.423   9.462 -0.4208  0.0022  0.2065
12430SOL    HW142610  10.465   4.433   9.557 -0.7117  0.6305  0.1627
12430SOL    HW242611  10.538   4.373   9.439 -0.7479 -0.8346  0.8599
12431SOL     OW42612   6.612   1.773   0.284  0.1080 -0.2276 -0.0385
12431SOL    HW142613   6.642   1.782   0.193 -0.2627  1.8987 -0.0038
12431SOL    HW242614   6.522   1.804   0.282  0.4853  1.0580  1.2620
12432SOL     OW42615  10.767  11.410  11.771 -0.3437 -0.5475  0.1823
12432SOL    HW142616  10.722  11.343  11.822 -0.1310 -2.0127 -1.4540
12432SOL    HW242617  10.701  11.444  11.712 -0.1373 -0.2250  0.1360
12433SOL     OW42618   2.775   0.101   9.838 -0.0339 -0.3184 -0.3441
12433SOL    HW142619   2.739   0.019   9.870  1.0421 -0.0847  1.5873
12433SOL    HW242620   2.864   0.080   9.812  0.7711  0.4904  1.5996
12434SOL     OW42621   5.065   8.993   7.478  0.0705  0.4355 -0.6879
12434SOL    HW142622   4.985   8.947   7.503 -0.0873  0.9489 -0.2288
12434SOL    HW242623   5.086   8.959   7.391 -0.9626  0.7117 -1.0560
12435SOL     OW42624  10.714   6.099   7.217  0.4473 -0.0708  0.3166
12435SOL    HW142625  10.775   6.026   7.207  2.1625  1.2976  0.3438
12435SOL    HW242626  10.737   6.138   7.301  0.0833  0.9533 -0.0421
12436SOL     OW42627   2.496   2.972   4.920 -0.2132 -0.1286  0.1519
12436SOL    HW142628   2.409   3.009   4.909 -0.8099 -1.1604  1.1860
12436SOL    HW242629   2.502   2.949   5.012  1.5445  0.8103  0.3219
12437SOL     OW42630   3.081   1.093  11.059 -0.4086 -0.1579  0.0557
12437SOL    HW142631   3.112   1.182  11.042 -1.7991  0.4458  0.4765
12437SOL    HW242632   3.090   1.048  10.975  1.0016  0.1368  0.0210
12438SOL     OW42633   0.496   8.529   7.924  0.0221  0.3254 -0.5415
12438SOL    HW142634   0.402   8.518   7.907 -0.1295 -1.4246  1.1176
12438SOL    HW242635   0.532   8.440   7.917  1.0031  0.4744  1.7374
12439SOL     OW42636   4.093   1.545   7.986  0.4112 -0.1426  0.1678
12439SOL    HW142637   4.139   1.622   8.019  1.1432 -0.0382 -1.0028
12439SOL    HW242638   4.107   1.478   8.053 -1.2959  1.0400  1.8059
12440SOL     OW42639   5.717   6.006   2.410 -0.5327 -0.2536  0.1491
12440SOL    HW142640   5.702   5.914   2.390  1.9433 -0.1975 -2.7628
12440SOL    HW242641   5.752   6.007   2.499  0.8982 -2.3631 -0.3169
12441SOL     OW42642   6.502   5.477   0.841  0.1379 -0.2845 -0.1093
12441SOL    HW142643   6.516   5.528   0.761 -0.1057  0.9727  0.6091
12441SOL    HW242644   6.521   5.539   0.912 -0.2865 -1.1776  0.8105
12442SOL     OW42645   3.467   0.629   4.769  0.1284  0.2418  0.1990
12442SOL    HW142646   3.432   0.708   4.728 -0.4573 -1.1082 -2.1138
12442SOL    HW242647   3.557   0.623   4.735 -0.5305 -1.1671 -1.4951
12443SOL     OW42648   5.067   5.113   8.968 -0.5738  0.2115 -0.4244
12443SOL    HW142649   4.998   5.138   9.030 -0.8077 -0.1515 -0.5368
12443SOL    HW242650   5.128   5.187   8.969 -1.7417  1.2326 -1.4673
12444SOL     OW42651  10.985   7.382   6.963  0.0610 -0.1819  0.0563
12444SOL    HW142652  10.964   7.292   6.939  0.3252 -0.5085  1.0357
12444SOL    HW242653  11.017   7.421   6.881 -1.0442 -0.6616 -0.6232
12445SOL     OW42654   7.100   9.168  10.156  0.3589 -0.3062  0.2897
12445SOL    HW142655   7.053   9.147  10.076  0.5386  0.3623  0.0086
12445SOL    HW242656   7.142   9.252  10.139  0.9166 -0.4566  0.8583
12446SOL     OW42657   2.841   1.587   8.586 -0.0704 -0.4265 -0.1664
12446SOL    HW142658   2.800   1.542   8.513  0.1371  0.7983 -1.0773
12446SOL    HW242659   2.789   1.666   8.598  1.1580  0.4496 -0.4218
12447SOL     OW42660   3.675   4.834   4.875 -0.3250 -0.2952  0.1241
12447SOL    HW142661   3.763   4.801   4.892 -0.5558 -0.3808  1.1942
12447SOL    HW242662   3.679   4.926   4.900 -0.9866 -0.7082  1.8725
12448SOL     OW42663   0.024  10.325  11.686  0.0613  0.5185 -0.4249
12448SOL    HW142664   0.014  10.281  11.602  1.1385 -2.0993  0.7045
12448SOL    HW242665   0.118  10.335  11.698  0.1098 -1.4661  1.4815
12449SOL     OW42666  10.193   4.883  11.109  0.2017 -0.0624 -0.1262
12449SOL    HW142667  10.178   4.892  11.203 -0.4195  1.3683 -0.3449
12449SOL    HW242668  10.276   4.928  11.093  0.8457 -1.1995 -0.1319
12450SOL     OW42669   9.254   6.006   9.988 -0.2749 -0.1964  0.2249
12450SOL    HW142670   9.298   5.963  10.061  0.2776  0.2056  0.1364
12450SOL    HW242671   9.247   6.098  10.015 -1.6811 -0.3703  0.5262
12451SOL     OW42672  10.359  10.592   3.403 -0.0887  0.1535 -0.1373
12451SOL    HW142673  10.288  10.565   3.460  0.5463 -2.2061 -0.3356
12451SOL    HW242674  10.435  10.543   3.435  0.9886  1.0970 -1.1430
12452SOL     OW42675   5.665  10.657  11.129  0.1557 -0.0820  0.3106
12452SOL    HW142676   5.655  10.565  11.155 -0.0306 -0.0348  0.4119
12452SOL    HW242677   5.627  10.706  11.202  1.1640  0.1155  0.7222
12453SOL     OW42678  10.610   0.735   5.318 -0.0992  0.3989  0.3967
12453SOL    HW142679  10.606   0.657   5.262 -0.4111  0.8647 -0.2345
12453SOL    HW242680  10.542   0.720   5.384 -0.6872  0.4820 -0.1829
12454SOL     OW42681   1.282   2.883   8.453 -0.2618  0.0363  0.1056
12454SOL    HW142682   1.274   2.889   8.358  1.4031  0.7231 -0.0276
12454SOL    HW242683   1.343   2.810   8.467 -0.2031  0.1824  0.6328
12455SOL     OW42684   9.647   5.347   2.147 -0.3378 -0.3566  0.5041
12455SOL    HW142685   9.697   5.297   2.212  1.6340  0.3991 -0.3618
12455SOL    HW242686   9.708   5.362   2.075 -1.6653  1.0651 -0.3971
12456SOL     OW42687   7.629   7.271   6.380  0.7287 -0.0760  0.4121
12456SOL    HW142688   7.640   7.365   6.389 -0.8048 -0.0473  2.6829
12456SOL    HW242689   7.689   7.233   6.444  0.3982 -0.5783  0.4310
12457SOL     OW42690   2.177   5.882   3.768 -0.0192  0.0847  0.0946
12457SOL    HW142691   2.203   5.971   3.794  1.6298 -0.4235  0.3024
12457SOL    HW242692   2.129   5.848   3.843  2.1985 -0.3337  1.3998
12458SOL     OW42693   3.986   0.398  11.186  0.4168  0.4256 -0.6152
12458SOL    HW142694   4.026   0.367  11.105 -1.1000 -0.4453 -1.0898
12458SOL    HW242695   4.028   0.481  11.204  1.7048  0.0156 -1.5924
12459SOL     OW42696   5.693   8.657   7.511  0.1963  0.8836  0.6458
12459SOL    HW142697   5.785   8.648   7.484  0.1040  1.7130  0.0303
12459SOL    HW242698   5.659   8.567   7.509  1.0269  0.5490  1.0191
12460SOL     OW42699  10.065   4.767   4.937  0.1927 -0.4055  0.4583
12460SOL    HW142700   9.997   4.719   4.984 -1.4413  2.5190  1.3251
12460SOL    HW242701  10.036   4.858   4.939  3.3396  0.7553 -0.6449
12461SOL     OW42702   5.672   4.791   1.307 -0.7725 -0.0500  0.2933
12461SOL    HW142703   5.651   4.748   1.389 -2.3582  0.3013  0.0965
12461SOL    HW242704   5.647   4.727   1.239  1.9265 -0.9707  0.0355
12462SOL     OW42705   4.131   9.208   6.039  0.1378  0.4146 -0.4458
12462SOL    HW142706   4.105   9.175   5.953  0.3776  1.5520 -0.9684
12462SOL    HW242707   4.052   9.202   6.092  0.5015 -2.3929 -0.0420
12463SOL     OW42708  10.610   5.393  11.793 -0.0361  0.2406  0.8105
12463SOL    HW142709  10.703   5.372  11.789 -0.3021 -0.8252 -0.3762
12463SOL    HW242710  10.600   5.470  11.737  0.2033  0.6354  1.3116
12464SOL     OW42711   0.260   0.317   2.421  0.3312 -0.2494  0.5141
12464SOL    HW142712   0.285   0.280   2.337  1.2101 -0.9380  1.0580
12464SOL    HW242713   0.338   0.363   2.451 -0.7953  2.3741 -0.2637
12465SOL     OW42714   9.924  10.599   4.594 -0.6665 -0.2894  0.2676
12465SOL    HW142715   9.884  10.674   4.639 -2.4031 -1.1241  0.1899
12465SOL    HW242716   9.857  10.531   4.597  0.2734 -1.3182 -1.0937
12466SOL     OW42717   9.165   1.207   8.405  0.8518 -0.4058 -0.1748
12466SOL    HW142718   9.111   1.207   8.485 -0.2102  0.5052 -0.8550
12466SOL    HW242719   9.211   1.124   8.408 -2.7292 -2.6563 -0.9062
12467SOL     OW42720   6.396   1.630   2.655 -0.1532 -0.4746  0.0975
12467SOL    HW142721   6.448   1.550   2.665  0.6521  0.1963  1.6283
12467SOL    HW242722   6.312   1.609   2.698 -0.2592 -0.7619 -0.2432
12468SOL     OW42723   4.048   9.176   7.325 -0.0417 -0.1681 -0.1501
12468SOL    HW142724   4.037   9.270   7.342 -2.1686 -0.4022  0.0839
12468SOL    HW242725   4.071   9.139   7.410  0.9652  0.1539 -0.2773
12469SOL     OW42726  11.113   7.217   4.793 -0.4657 -0.3270  0.0744
12469SOL    HW142727  11.044   7.283   4.798 -1.1569 -1.1298  2.2070
12469SOL    HW242728  11.194   7.267   4.783 -1.2076  0.6961 -0.9840
12470SOL     OW42729   7.750  11.196   3.620  0.0661 -0.1615  0.4180
12470SOL    HW142730   7.787  11.165   3.537  2.1849  0.5552  1.0272
12470SOL    HW242731   7.682  11.133   3.641  0.0071 -0.7816 -1.4879
12471SOL     OW42732   9.743   6.568   7.079  0.3628 -0.8794  0.1854
12471SOL    HW142733   9.782   6.481   7.083  1.7891 -0.3201 -0.6232
12471SOL    HW242734   9.772   6.603   6.995 -2.0584 -0.4544 -0.5429
12472SOL     OW42735   7.174   4.497  10.998 -0.0833  0.3309  0.2324
12472SOL    HW142736   7.254   4.505  11.051  0.6233 -0.6980 -0.6322
12472SOL    HW242737   7.115   4.563  11.034  1.4485  1.7042  0.3599
12473SOL     OW42738   8.502   2.290   9.054  0.0848 -0.1183  0.4131
12473SOL    HW142739   8.565   2.262   9.120  0.3019 -1.3930 -0.3013
12473SOL    HW242740   8.485   2.211   9.002 -1.4432  0.4136  0.0567
12474SOL     OW42741   7.390   1.391   1.366 -0.4508  0.3446 -0.1192
12474SOL    HW142742   7.451   1.404   1.294  1.5865 -0.6903  1.3045
12474SOL    HW242743   7.308   1.364   1.324  0.8542 -0.9117 -2.0295
12475SOL     OW42744   7.365   2.588   8.793 -0.5362 -0.0670 -0.1253
12475SOL    HW142745   7.347   2.676   8.826  1.5534  0.2403  0.3490
12475SOL    HW242746   7.299   2.532   8.834 -1.5961  1.1770 -0.0598
12476SOL     OW42747  10.541   8.344   0.976 -0.5971 -0.8891 -0.2292
12476SOL    HW142748  10.542   8.421   0.920  2.0775 -1.0298 -0.5098
12476SOL    HW242749  10.534   8.270   0.914 -0.8794 -0.9353 -0.1409
12477SOL     OW42750  10.825   8.341   9.410  0.3512  0.1503 -0.3728
12477SOL    HW142751  10.806   8.320   9.502  0.1737 -0.1877 -0.4868
12477SOL    HW242752  10.903   8.290   9.389  0.3473  0.1692 -0.4355
12478SOL     OW42753   2.862   9.179   8.644  0.1627 -0.3732  0.3767
12478SOL    HW142754   2.940   9.133   8.611  1.2078  1.1175  0.6749
12478SOL    HW242755   2.830   9.125   8.716  0.0992 -1.7061 -0.6226
12479SOL     OW42756   1.288   5.055   4.386  0.0049  0.4805 -0.5746
12479SOL    HW142757   1.226   5.104   4.441  0.9936  0.0408  1.0264
12479SOL    HW242758   1.373   5.096   4.403  0.9602 -1.9379  1.1981
12480SOL     OW42759   1.638   7.753   9.915 -1.0423  0.4199  0.3684
12480SOL    HW142760   1.713   7.739   9.973  0.4804 -0.5194 -1.6744
12480SOL    HW242761   1.673   7.809   9.845 -2.0346 -0.5822 -0.9758
12481SOL     OW42762   8.488   4.453   3.199  0.2917  0.0542 -0.4125
12481SOL    HW142763   8.545   4.450   3.276 -0.7866  4.0093  0.7712
12481SOL    HW242764   8.545   4.482   3.128  0.4428  0.6562 -0.0480
12482SOL     OW42765   9.092   5.742   0.358 -0.1126 -0.2274 -0.2447
12482SOL    HW142766   9.157   5.774   0.295 -1.1122  0.8638 -0.7623
12482SOL    HW242767   9.079   5.650   0.334  0.8286 -0.3093 -0.4870
12483SOL     OW42768   7.214   8.380   6.961  0.1736  0.1747  0.2717
12483SOL    HW142769   7.242   8.289   6.960 -0.9391 -0.1875  0.3312
12483SOL    HW242770   7.119   8.376   6.948  0.0495  1.2959  0.7082
12484SOL     OW42771  10.071   8.803  10.918 -0.1807 -0.7199  0.1347
12484SOL    HW142772  10.110   8.835  10.999  0.0192  1.8059 -0.8734
12484SOL    HW242773   9.996   8.750  10.947  0.0179 -0.0890  1.9447
12485SOL     OW42774  10.843  11.716   7.103  0.3881  0.3451  0.8082
12485SOL    HW142775  10.910  11.784   7.094 -1.2514  2.0681  0.9583
12485SOL    HW242776  10.781  11.734   7.032  0.0607 -1.1876  0.6873
12486SOL     OW42777   6.838   3.924   5.391  0.2002  0.1503 -0.0713
12486SOL    HW142778   6.878   3.906   5.475 -1.4638 -1.8990  0.3546
12486SOL    HW242779   6.877   3.861   5.331 -0.0512  0.2822 -0.3780
12487SOL     OW42780   7.642   7.385   2.563 -0.7480 -0.1391 -0.0925
12487SOL    HW142781   7.614   7.303   2.521 -0.7894 -0.6845  0.9556
12487SOL    HW242782   7.607   7.454   2.507 -0.0530 -0.8329 -1.4297
12488SOL     OW42783   8.929   3.338   1.375 -0.0247  0.2228  0.0267
12488SOL    HW142784   8.865   3.269   1.356  0.3013 -0.0345 -0.1400
12488SOL    HW242785   8.924   3.396   1.300 -1.6054  1.3922  0.9557
12489SOL     OW42786  11.740   2.420  10.655 -0.0157  0.0378 -0.2647
12489SOL    HW142787  11.676   2.349  10.656  0.4220 -0.3509  1.0564
12489SOL    HW242788  11.725   2.464  10.571 -0.7826 -1.1563 -0.7760
12490SOL     OW42789   4.496  10.254   0.138  0.6470 -0.1500 -0.0090
12490SOL    HW142790   4.486  10.223   0.048 -0.4315  0.2654 -0.0539
12490SOL    HW242791   4.590  10.258   0.152  0.8276 -0.2697 -1.0999
12491SOL     OW42792   6.606   9.265   2.331 -0.2971 -0.4476 -1.0718
12491SOL    HW142793   6.623   9.172   2.316 -1.5271 -0.5203 -2.2279
12491SOL    HW242794   6.512   9.269   2.349 -0.2555  0.5703 -1.0356
12492SOL     OW42795   8.689   1.993   1.737  0.2746 -0.0065 -0.8504
12492SOL    HW142796   8.654   1.990   1.648  0.2062  0.6892 -0.8526
12492SOL    HW242797   8.720   1.904   1.754 -0.3181 -0.3067 -1.3223
12493SOL     OW42798  10.761   4.311   8.447 -0.8015 -0.4032  0.5531
12493SOL    HW142799  10.840   4.315   8.501  0.9991  0.7339 -2.0130
12493SOL    HW242800  10.767   4.227   8.401 -2.0593 -1.1168  1.5963
12494SOL     OW42801   4.806   3.143   5.478  0.1604 -0.7353  0.3241
12494SOL    HW142802   4.830   3.057   5.445 -0.1893  0.2195 -2.7320
12494SOL    HW242803   4.849   3.205   5.418 -2.6703  1.1205 -0.0060
12495SOL     OW42804   8.938   5.739   0.733 -0.2259 -0.0991 -0.7312
12495SOL    HW142805   8.876   5.769   0.800  1.7853  2.3260  0.2197
12495SOL    HW242806   8.978   5.661   0.770 -0.0190  0.5194  0.3892
12496SOL     OW42807   5.105   7.129   7.701  0.6694  0.1992  0.9142
12496SOL    HW142808   5.087   7.153   7.610 -0.6051 -1.5438  0.6766
12496SOL    HW242809   5.193   7.163   7.717  0.8695  0.6428 -0.9156
12497SOL     OW42810   0.273   0.854   8.272  0.5757  0.7235  0.2404
12497SOL    HW142811   0.333   0.797   8.223 -0.6559 -0.9533  0.5937
12497SOL    HW242812   0.223   0.900   8.205  0.8812  0.6370 -0.0514
12498SOL     OW42813   3.595   7.434   0.728  0.1197  0.5766 -0.1631
12498SOL    HW142814   3.657   7.497   0.764 -0.8544  1.5730 -0.1789
12498SOL    HW242815   3.563   7.475   0.648 -1.2638  0.5307  0.3379
12499SOL     OW42816   5.847  10.951   1.228  0.3113 -0.3781  0.1760
12499SOL    HW142817   5.884  10.864   1.246  0.5696 -0.0441  1.3422
12499SOL    HW242818   5.869  11.003   1.305  1.6082  1.2237 -1.2110
12500SOL     OW42819   6.771  11.562   6.006  0.3522 -0.2873  0.2981
12500SOL    HW142820   6.763  11.636   5.946  2.2558  1.0920  1.5960
12500SOL    HW242821   6.682  11.543   6.034 -0.3928  0.0859 -1.6940
12501SOL     OW42822   8.405   8.229   2.046  0.6147  0.2029  0.0120
12501SOL    HW142823   8.354   8.237   2.127  0.3672 -1.0222 -0.0167
12501SOL    HW242824   8.438   8.318   2.031  1.1369  0.3558  1.7686
12502SOL     OW42825   2.096   9.424   6.782  0.0308  0.0829 -0.4183
12502SOL    HW142826   2.144   9.431   6.865 -0.1077 -2.6290 -0.0343
12502SOL    HW242827   2.149   9.474   6.720  0.7023  1.2748  1.0352
12503SOL     OW42828   4.775  10.257   0.106 -0.4519 -0.1954  0.2210
12503SOL    HW142829   4.795  10.234   0.015 -0.3454  0.7629 -0.0102
12503SOL    HW242830   4.835  10.328   0.127 -1.5127  0.6515  0.5240
12504SOL     OW42831   6.346  10.599   7.747  0.4944  0.0909 -0.0330
12504SOL    HW142832   6.303  10.531   7.696 -0.4529  0.3560  0.4039
12504SOL    HW242833   6.424  10.621   7.696  0.3671 -0.7253 -0.5935
12505SOL     OW42834   4.496  10.456   5.010  0.2756  0.2722 -0.3174
12505SOL    HW142835   4.491  10.364   4.985  0.0340 -0.5812  2.4958
12505SOL    HW242836   4.535  10.455   5.097  2.8786  3.0852 -1.2845
12506SOL     OW42837   7.868   6.302   9.098 -0.0247  0.2384 -0.3878
12506SOL    HW142838   7.870   6.217   9.053  0.8816 -0.2606  0.5626
12506SOL    HW242839   7.831   6.283   9.184  0.0333  0.8409 -0.2258
12507SOL     OW42840   6.797   8.737   8.160  0.0589 -0.2528  0.6155
12507SOL    HW142841   6.853   8.782   8.096 -0.5134  1.3060  1.1657
12507SOL    HW242842   6.806   8.644   8.138  0.5139  0.1726 -1.2122
12508SOL     OW42843  11.277  10.626   6.380  0.3781 -0.5609 -0.5644
12508SOL    HW142844  11.277  10.616   6.284  0.2597 -1.1629 -0.5041
12508SOL    HW242845  11.292  10.537   6.413 -2.5890 -0.9345  0.0329
12509SOL     OW42846   5.590  10.249  10.375  0.2395 -0.1836 -0.2666
12509SOL    HW142847   5.520  10.314  10.363 -0.1730 -0.8971 -2.0842
12509SOL    HW242848   5.558  10.171  10.330  1.2162 -1.2982  0.9042
12510SOL     OW42849   5.866   6.181   9.188  0.0876  0.0734 -0.0748
12510SOL    HW142850   5.880   6.096   9.230  1.6019  0.5071  0.3873
12510SOL    HW242851   5.949   6.199   9.143 -0.4935  0.9498 -0.8295
12511SOL     OW42852   3.086  11.691   7.150  0.6265 -0.1507 -0.2865
12511SOL    HW142853   3.096  11.770   7.202 -0.7627  0.4214 -0.8305
12511SOL    HW242854   3.160  11.636   7.174  1.7424  1.4037 -0.0589
12512SOL     OW42855   2.727   4.015  10.502  0.2123  0.0211 -0.7186
12512SOL    HW142856   2.633   4.012  10.488  0.0965 -2.0013  0.0622
12512SOL    HW242857   2.760   4.078  10.438 -1.7100  1.2592 -0.5709
12513SOL     OW42858   8.569   5.969  10.988  0.1630  0.3983  0.2606
12513SOL    HW142859   8.556   5.895  11.048 -1.5661  0.4423 -0.0272
12513SOL    HW242860   8.613   6.035  11.041  2.3887 -1.0406  0.3468
12514SOL     OW42861   5.816   6.853   9.299 -0.0705  0.0346 -0.1444
12514SOL    HW142862   5.887   6.798   9.332 -0.3453 -0.5427 -0.5051
12514SOL    HW242863   5.847   6.881   9.213  0.1951  0.6927  0.1570
12515SOL     OW42864   5.299   2.677  10.973 -0.2166  0.0876  0.0897
12515SOL    HW142865   5.239   2.751  10.959  0.0218  0.1514 -0.6724
12515SOL    HW242866   5.361   2.708  11.039 -1.1689 -0.0732  1.0854
12516SOL     OW42867  10.881  11.071   5.377  0.2936  0.1022  0.0378
12516SOL    HW142868  10.837  11.126   5.442  0.1346  0.2464 -0.1885
12516SOL    HW242869  10.935  11.012   5.428 -1.4919 -1.2800  0.4201
12517SOL     OW42870   0.215  11.717   7.003  0.1917 -0.4530  0.1918
12517SOL    HW142871   0.266  11.750   6.929 -3.5940 -0.8304 -2.9081
12517SOL    HW242872   0.234  11.624   7.007  0.4149 -0.4276 -0.3085
12518SOL     OW42873   6.380  10.186   3.165 -0.2314  0.3617  0.2188
12518SOL    HW142874   6.350  10.105   3.206  1.0594 -0.2769 -0.0444
12518SOL    HW242875   6.398  10.161   3.074  1.3659  0.6217  0.4415
12519SOL     OW42876   7.926   6.503   4.303 -0.2087 -0.2839 -0.2486
12519SOL    HW142877   7.900   6.469   4.217 -1.9444  1.4927 -0.4875
12519SOL    HW242878   7.921   6.598   4.294  2.3156  0.0767  1.0424
12520SOL     OW42879   2.934  11.785   1.010 -0.0605 -0.6396 -0.3360
12520SOL    HW142880   3.019  11.826   1.020 -1.2225  1.6752  0.9975
12520SOL    HW242881   2.933  11.715   1.076  0.9223 -0.9374 -0.6311
12521SOL     OW42882   0.956   6.045   6.812  0.0062 -0.0175 -0.0826
12521SOL    HW142883   0.973   6.106   6.739 -0.6857  0.5778  0.2374
12521SOL    HW242884   1.043   6.013   6.837  0.3256  0.3831 -0.6500
12522SOL     OW42885  10.790   7.460   1.248 -0.1001 -0.0673  0.5260
12522SOL    HW142886  10.842   7.379   1.248 -0.5261 -0.3493  1.3410
12522SOL    HW242887  10.699   7.431   1.242 -0.2045  0.4781 -3.6365
12523SOL     OW42888  10.187   2.012  10.290  0.0852  0.4653 -0.2281
12523SOL    HW142889  10.226   2.048  10.210 -0.9615  0.9688 -0.5343
12523SOL    HW242890  10.159   1.924  10.266 -0.7263  0.8117 -0.5993
12524SOL     OW42891  10.697   8.273   8.521  0.2158  0.1138  0.2875
12524SOL    HW142892  10.642   8.220   8.463  0.3443  0.1979  0.0911
12524SOL    HW242893  10.778   8.223   8.530  0.1763  0.0747  0.4397
12525SOL     OW42894   2.073   2.953   7.576 -0.4911 -0.2015 -0.4505
12525SOL    HW142895   2.070   3.049   7.572  1.8962 -0.0418 -0.0202
12525SOL    HW242896   2.019   2.930   7.651  2.3138  1.2134  2.2230
12526SOL     OW42897  10.449   5.385   7.918 -0.0398  0.2122 -0.2585
12526SOL    HW142898  10.453   5.393   7.822 -0.7997  0.3906 -0.2869
12526SOL    HW242899  10.415   5.297   7.933  0.8616 -0.1183 -0.1286
12527SOL     OW42900   4.464   5.889   7.141 -0.2259  0.1421 -0.3907
12527SOL    HW142901   4.411   5.964   7.114 -0.0043  0.4706  0.0736
12527SOL    HW242902   4.414   5.849   7.212 -1.9353 -2.0531 -2.6486
12528SOL     OW42903   1.888   0.464   7.136  0.0445  0.1468  0.2078
12528SOL    HW142904   1.960   0.493   7.192  0.7599  1.9087 -1.5239
12528SOL    HW242905   1.825   0.425   7.197  1.3001  0.8853  2.0782
12529SOL     OW42906   5.997   2.431   2.223 -0.0778 -0.2651  0.3211
12529SOL    HW142907   6.038   2.496   2.280  0.5971 -0.1874 -0.2322
12529SOL    HW242908   6.025   2.346   2.258 -0.2824 -0.2404  0.5484
12530SOL     OW42909   4.988   0.583  11.545 -0.1898  0.4069 -0.3190
12530SOL    HW142910   5.082   0.601  11.547 -0.1951  1.5955 -3.9763
12530SOL    HW242911   4.947   0.669  11.550 -1.0433  0.0070 -0.2715
12531SOL     OW42912   5.205  10.421   9.518  0.1324  0.0782  0.2564
12531SOL    HW142913   5.204  10.383   9.607  1.7486  0.7881  0.6156
12531SOL    HW242914   5.219  10.345   9.461  0.4539 -0.2252  0.7246
12532SOL     OW42915   4.464   0.880  10.240 -0.1512  0.6175  0.9393
12532SOL    HW142916   4.403   0.835  10.300  1.0293 -1.6412  0.5474
12532SOL    HW242917   4.502   0.809  10.188  2.9783  1.8933  1.3101
12533SOL     OW42918   8.653   9.925   2.640  0.3537  0.1233 -0.0813
12533SOL    HW142919   8.740   9.885   2.640  0.0737 -0.5057 -0.2365
12533SOL    HW242920   8.651   9.977   2.720  1.6073  1.8336 -1.1037
12534SOL     OW42921   2.703   1.701   0.040  0.1485  0.1428  0.3362
12534SOL    HW142922   2.730   1.656  -0.040 -2.2700  2.9805 -2.3306
12534SOL    HW242923   2.619   1.662   0.063 -0.1361  0.6851  0.2443
12535SOL     OW42924   6.236   4.140   1.778 -0.4291  0.0756 -0.1277
12535SOL    HW142925   6.324   4.175   1.781  0.1339 -1.3335  1.2558
12535SOL    HW242926   6.197   4.180   1.700  1.2463  1.0941 -0.4985
12536SOL     OW42927   9.159   9.742   7.866 -0.1338 -0.4464 -0.1176
12536SOL    HW142928   9.166   9.689   7.786 -1.3372 -0.2316 -0.3784
12536SOL    HW242929   9.222   9.813   7.853 -0.0038 -0.6537 -0.6704
12537SOL     OW42930   8.011   0.968  11.105  0.4977  0.6021 -0.0229
12537SOL    HW142931   7.953   0.923  11.044  0.9450 -0.9464  0.6385
12537SOL    HW242932   7.960   0.973  11.186  1.0520 -0.2619  0.3967
12538SOL     OW42933   7.579   9.755   2.357  0.3797  0.0156  0.4054
12538SOL    HW142934   7.599   9.715   2.272  0.7665 -0.4865  0.7218
12538SOL    HW242935   7.603   9.847   2.347 -1.4818  0.4345 -0.6609
12539SOL     OW42936   2.731   7.357   8.395 -0.1495  0.2531 -0.1628
12539SOL    HW142937   2.760   7.447   8.411 -0.5668  0.6703 -1.6118
12539SOL    HW242938   2.643   7.353   8.435 -0.8936  1.0659 -1.6384
12540SOL     OW42939   5.477   1.135   5.276 -0.1600  0.1190  0.1406
12540SOL    HW142940   5.406   1.153   5.338  0.0587  1.9601 -0.0807
12540SOL    HW242941   5.556   1.130   5.331 -0.1113  0.6947  0.1282
12541SOL     OW42942   8.649   4.051   9.093  0.2396  0.0402  0.7680
12541SOL    HW142943   8.692   3.976   9.051  0.5012  0.6020 -0.0009
12541SOL    HW242944   8.700   4.068   9.172  1.4613  0.6976 -0.1306
12542SOL     OW42945   5.274   2.271   2.568 -0.7345  0.2968  0.8333
12542SOL    HW142946   5.256   2.182   2.598  0.3592 -0.2509 -0.0968
12542SOL    HW242947   5.227   2.327   2.630 -1.5394 -0.9229  1.3524
12543SOL     OW42948  10.240   5.779   0.525 -0.1739 -0.1945 -0.3418
12543SOL    HW142949  10.150   5.797   0.498 -0.3185 -0.1323  0.1707
12543SOL    HW242950  10.294   5.822   0.459 -0.5217 -0.4719 -0.8094
12544SOL     OW42951   2.246   1.298  10.228 -0.0859 -0.2097 -0.3732
12544SOL    HW142952   2.288   1.234  10.170  0.2196 -1.2226  0.9330
12544SOL    HW242953   2.179   1.249  10.275  0.6889  0.2172  1.2416
12545SOL     OW42954  10.243  11.091   0.208 -0.6582  0.4782  0.2325
12545SOL    HW142955  10.295  11.038   0.268 -0.8314 -0.6763 -0.5994
12545SOL    HW242956  10.154  11.055   0.216 -0.7417  0.5145 -0.4716
12546SOL     OW42957   0.874   5.655   9.941 -0.4566  0.4832  0.4756
12546SOL    HW142958   0.856   5.688   9.852  3.4040  0.7147 -0.3673
12546SOL    HW242959   0.831   5.570   9.944  1.6614 -0.8957 -2.8190
12547SOL     OW42960   0.300   5.429   6.630 -0.2691 -0.5109 -0.4741
12547SOL    HW142961   0.235   5.455   6.564 -0.5365 -1.3256 -0.5518
12547SOL    HW242962   0.352   5.362   6.586  0.3997 -0.1213 -0.2853
12548SOL     OW42963   3.853   8.915   7.692  0.2669 -0.1817  0.5582
12548SOL    HW142964   3.790   8.944   7.626  0.3690 -1.8103 -0.2791
12548SOL    HW242965   3.819   8.952   7.774 -0.3218  1.1593 -0.2485
12549SOL     OW42966   7.410   5.295   2.336 -0.1124  0.3645  0.2101
12549SOL    HW142967   7.347   5.244   2.285  0.4544  1.3839 -1.6229
12549SOL    HW242968   7.371   5.300   2.424 -0.8259 -1.9930  0.0971
12550SOL     OW42969   0.248   9.941   6.485 -0.3127  0.6372  0.3620
12550SOL    HW142970   0.241   9.985   6.400  1.4142  1.4572  0.6193
12550SOL    HW242971   0.265   9.849   6.463  2.6575  1.2380 -0.2753
12551SOL     OW42972   5.322   3.301  10.782  0.1969 -0.6138  0.3190
12551SOL    HW142973   5.233   3.288  10.815  0.0948 -0.4572  0.1139
12551SOL    HW242974   5.328   3.242  10.707  0.7909 -1.7592  1.2494
12552SOL     OW42975   2.690   7.785   1.675 -0.5500 -0.1742 -0.3544
12552SOL    HW142976   2.738   7.832   1.744  0.0684 -0.1263 -0.8179
12552SOL    HW242977   2.724   7.696   1.678 -1.7864 -0.6482  0.5820
12553SOL     OW42978   2.370  11.785  11.101 -0.6199 -0.1440  0.0633
12553SOL    HW142979   2.440  11.766  11.163  0.1878 -1.8745 -1.2924
12553SOL    HW242980   2.407  11.849  11.041  0.2570 -1.8556 -1.2978
12554SOL     OW42981  10.305   4.920   4.073 -0.2864  0.1036 -0.2311
12554SOL    HW142982  10.254   4.950   3.998  1.1155  0.9946 -0.8494
12554SOL    HW242983  10.254   4.948   4.149 -0.9852  0.4996 -0.8366
12555SOL     OW42984   2.270   8.588   0.164  0.7058  0.0891  0.0432
12555SOL    HW142985   2.329   8.660   0.144  0.6527  0.3632  0.8098
12555SOL    HW242986   2.190   8.607   0.115  1.6392 -0.9353 -2.0077
12556SOL     OW42987   5.293   9.159   8.476 -0.4487 -0.0194 -0.2180
12556SOL    HW142988   5.210   9.148   8.430 -1.1032  0.6156  0.7598
12556SOL    HW242989   5.326   9.070   8.489 -2.0294 -0.4387  1.2248
12557SOL     OW42990  11.298   5.370   1.757 -0.1902  0.0566 -0.6991
12557SOL    HW142991  11.269   5.281   1.737  0.1723  0.0636 -1.3056
12557SOL    HW242992  11.341   5.363   1.843 -0.7248 -0.2244 -0.4546
12558SOL     OW42993   7.075   7.679   2.801 -0.1187  0.1258 -0.0993
12558SOL    HW142994   7.052   7.646   2.714  2.8114 -2.5489 -0.0440
12558SOL    HW242995   7.000   7.657   2.856 -0.6352 -1.2885 -1.3002
12559SOL     OW42996   8.274   5.440   6.909  0.3323 -0.1394  1.0122
12559SOL    HW142997   8.191   5.415   6.950  1.2957 -0.7981  2.6275
12559SOL    HW242998   8.335   5.453   6.982  1.6944  0.2321 -0.1416
12560SOL     OW42999  10.194   6.716   9.660  0.8784 -0.3615  0.0111
12560SOL    HW143000  10.143   6.690   9.583  2.0679  0.0171 -0.9395
12560SOL    HW243001  10.271   6.660   9.658  0.9910 -0.2509  0.8604
12561SOL     OW43002   7.292   5.025   9.918  0.1673 -0.2190  0.4562
12561SOL    HW143003   7.360   4.958   9.927  0.8296  0.6488  2.7382
12561SOL    HW243004   7.300   5.056   9.828  3.8018  0.8172  0.9734
12562SOL     OW43005   2.463   5.199  10.875  0.2167  0.0238  0.4414
12562SOL    HW143006   2.552   5.167  10.889  0.8955  1.7833  0.3935
12562SOL    HW243007   2.408   5.121  10.881  1.6676 -0.9750  1.3180
12563SOL     OW43008   3.442   9.926  10.690 -0.1047  0.5048  0.3493
12563SOL    HW143009   3.476   9.870  10.759  1.0529  0.6289 -0.0995
12563SOL    HW243010   3.373   9.874  10.649 -0.1798  0.0740  1.0145
12564SOL     OW43011   9.571   6.079  10.535 -0.0574 -0.6690 -0.3608
12564SOL    HW143012   9.489   6.089  10.582  1.7855 -2.2671  3.6480
12564SOL    HW243013   9.622   6.157  10.559  1.0853 -1.7302  0.7983
12565SOL     OW43014   7.626   6.954   0.777  1.0125  0.4480  0.0001
12565SOL    HW143015   7.597   7.006   0.702  0.7087 -2.4455 -2.0743
12565SOL    HW243016   7.710   6.918   0.750  0.3948 -1.5266  0.5674
12566SOL     OW43017   6.634  10.148   5.768 -0.1183  0.8041  0.1879
12566SOL    HW143018   6.635  10.215   5.700  0.9522  1.7167  1.0665
12566SOL    HW243019   6.711  10.166   5.821 -0.5127 -0.3522  1.2088
12567SOL     OW43020   6.213   8.965   6.086  0.0013  0.6157  0.2128
12567SOL    HW143021   6.251   8.880   6.107  0.6937  0.6416 -0.8886
12567SOL    HW243022   6.125   8.962   6.124  0.3353 -0.2468  0.9439
12568SOL     OW43023   7.831   0.066   5.947 -0.1204 -0.1407  0.1248
12568SOL    HW143024   7.825   0.154   5.910 -0.5868  0.6022  1.8704
12568SOL    HW243025   7.924   0.054   5.967 -0.2326  0.5193  1.1158
12569SOL     OW43026   3.631   4.413   9.262 -0.2848  0.0291 -0.0083
12569SOL    HW143027   3.589   4.433   9.346 -1.7211  2.7645 -1.2403
12569SOL    HW243028   3.717   4.378   9.286 -1.0883 -0.4370  2.5831
12570SOL     OW43029   6.421   7.624   0.899  0.4617 -0.1640 -0.1424
12570SOL    HW143030   6.478   7.701   0.896 -0.7266  0.7480  0.0230
12570SOL    HW243031   6.450   7.569   0.826  0.0923  1.3474 -1.4697
12571SOL     OW43032   7.448   6.055   6.161  0.3837  0.0777  0.0873
12571SOL    HW143033   7.520   5.998   6.186  0.2563 -0.1504 -0.0654
12571SOL    HW243034   7.435   6.038   6.067 -2.0806 -2.3959  0.7401
12572SOL     OW43035   3.881   9.529   1.578  0.5703 -0.0067  0.9943
12572SOL    HW143036   3.798   9.510   1.534  0.0041 -0.1321  2.0894
12572SOL    HW243037   3.883   9.468   1.652  0.7238  1.2929  2.0968
12573SOL     OW43038   7.563   0.089   4.969  0.2966  0.5234 -0.0551
12573SOL    HW143039   7.477   0.120   4.939 -1.0888 -2.3152  0.6478
12573SOL    HW243040   7.614   0.077   4.890 -0.0141  1.9896 -0.5072
12574SOL     OW43041   6.024  11.380   6.464  0.0635 -0.2713 -0.3565
12574SOL    HW143042   6.039  11.391   6.370  1.3927  0.0827 -0.1151
12574SOL    HW243043   6.098  11.422   6.505 -0.2273 -0.9077  0.8580
12575SOL     OW43044   3.481   8.008   7.679  0.4267 -0.6723 -0.3072
12575SOL    HW143045   3.518   7.943   7.619 -0.1359  0.5894 -2.1111
12575SOL    HW243046   3.448   8.077   7.622 -1.6644 -0.1572  1.3840
12576SOL     OW43047   7.517   7.114   3.027 -0.3154  0.4074 -0.4263
12576SOL    HW143048   7.500   7.149   3.114  0.4208 -1.3700  0.4773
12576SOL    HW243049   7.579   7.176   2.988  1.7456 -0.3114  1.4955
12577SOL     OW43050   3.458  10.389  11.214 -0.4711  0.5645 -0.3491
12577SOL    HW143051   3.423  10.309  11.174  0.1689 -0.1864  0.5490
12577SOL    HW243052   3.391  10.415  11.277 -0.4148  0.3929 -0.2172
12578SOL     OW43053   9.021   5.957   5.862  1.0264 -0.3611 -0.7443
12578SOL    HW143054   9.032   6.052   5.873 -0.9346 -0.0219 -1.3423
12578SOL    HW243055   9.094   5.919   5.910  0.9272  1.3988  0.9142
12579SOL     OW43056   3.234   0.944   8.010 -0.1344  0.0315  0.2861
12579SOL    HW143057   3.251   1.025   8.060 -0.0330  0.6597 -0.7421
12579SOL    HW243058   3.279   0.957   7.927 -1.9168 -0.1666 -0.7577
12580SOL     OW43059   8.364   3.154   5.072 -0.3091 -0.1154 -0.6168
12580SOL    HW143060   8.419   3.213   5.020 -1.3250  0.8391 -0.6567
12580SOL    HW243061   8.410   3.070   5.070  1.0548  0.5951 -0.7802
12581SOL     OW43062   6.985   1.168   2.557 -0.0338  0.3774 -0.1019
12581SOL    HW143063   6.972   1.125   2.472 -1.5297 -0.1476  0.3616
12581SOL    HW243064   7.056   1.231   2.542  0.1241 -0.1268 -1.5812
12582SOL     OW43065   2.213   9.195   9.586  0.4078  0.2393 -0.4849
12582SOL    HW143066   2.184   9.248   9.660  2.6328 -1.0690  1.4822
12582SOL    HW243067   2.166   9.230   9.510 -2.1662  1.4831  1.5570
12583SOL     OW43068   0.967  10.202   9.258 -0.0971  0.2885 -0.7359
12583SOL    HW143069   0.953  10.176   9.349  2.4139  1.4056  0.0532
12583SOL    HW243070   1.062  10.207   9.249 -0.3142  1.1931 -3.1390
12584SOL     OW43071   6.881   8.022   8.971 -0.4675 -0.0892  0.3046
12584SOL    HW143072   6.941   7.950   8.950  0.3631  0.6762  0.0076
12584SOL    HW243073   6.842   7.997   9.055 -2.1874 -2.1468 -1.0180
12585SOL     OW43074   3.603   5.801  11.067 -0.0301  0.0084 -0.1640
12585SOL    HW143075   3.597   5.819  10.973  1.6370 -0.1514 -0.3177
12585SOL    HW243076   3.512   5.783  11.093 -0.6805  1.1475 -1.4989
12586SOL     OW43077   4.426   9.952   6.924 -0.4252 -0.2778 -0.0173
12586SOL    HW143078   4.502   9.896   6.941  1.1121  0.5439 -3.3822
12586SOL    HW243079   4.364   9.894   6.880 -0.7591 -0.3471  0.5271
12587SOL     OW43080   7.997   0.367   0.442 -0.3362  0.8313  0.8408
12587SOL    HW143081   7.978   0.458   0.466  1.2894  2.0478 -1.9458
12587SOL    HW243082   7.972   0.362   0.350  0.9705 -1.1099  0.5479
12588SOL     OW43083   1.858   7.376   5.970 -0.0357 -0.3416 -0.3682
12588SOL    HW143084   1.925   7.439   5.944 -0.9463  0.4777 -0.8254
12588SOL    HW243085   1.799   7.426   6.027 -0.6087 -0.8563 -0.4942
12589SOL     OW43086   7.340   6.834   8.219  0.3901  0.1501 -0.3253
12589SOL    HW143087   7.327   6.881   8.137 -0.7487  2.2291  0.9648
12589SOL    HW243088   7.256   6.794   8.237  0.8809 -1.0378 -0.5487
12590SOL     OW43089   5.098   5.141   7.050 -0.4414  0.3493 -0.2516
12590SOL    HW143090   5.149   5.186   6.982  0.0936  3.1023  1.8042
12590SOL    HW243091   5.161   5.128   7.121 -1.5754 -0.2025  0.6639
12591SOL     OW43092   1.984   2.143   7.382  0.2231  0.3953  0.0331
12591SOL    HW143093   1.907   2.090   7.360 -0.4305 -0.4525  3.6707
12591SOL    HW243094   1.968   2.227   7.340 -1.2227 -0.6576 -1.6735
12592SOL     OW43095   3.073   8.209   9.231  0.0189  0.2958  0.1462
12592SOL    HW143096   2.990   8.162   9.228  0.7779 -1.1178  0.5507
12592SOL    HW243097   3.118   8.184   9.150  0.1545  0.8905  0.0297
12593SOL     OW43098   1.047   9.402   6.679  0.0345  0.0097  0.2021
12593SOL    HW143099   0.993   9.481   6.678 -0.5746 -0.3965 -0.5632
12593SOL    HW243100   1.049   9.376   6.771  0.2986  0.9470  0.4685
12594SOL     OW43101   7.799   5.951   9.802  0.7302  0.3740 -0.3268
12594SOL    HW143102   7.737   5.981   9.735  0.7890 -0.4849 -0.7677
12594SOL    HW243103   7.825   6.032   9.847 -2.6424  0.5696  1.5968
12595SOL     OW43104   4.002  10.425   4.203  0.3973  0.3629 -0.4756
12595SOL    HW143105   4.076  10.480   4.176  0.4197  0.9696  0.7433
12595SOL    HW243106   4.042  10.357   4.256  0.5168 -1.5961 -2.8832
12596SOL     OW43107   4.411   0.770  11.042  0.2189  0.4119  0.5569
12596SOL    HW143108   4.443   0.767  11.133  0.2057 -0.2281  0.5450
12596SOL    HW243109   4.491   0.768  10.989  0.2152  0.3883  0.5521
12597SOL     OW43110   7.027   0.886   7.086  0.3188  0.2145  0.6912
12597SOL    HW143111   7.013   0.979   7.065  1.0754  0.3851  0.9199
12597SOL    HW243112   6.971   0.840   7.024  0.2878  0.8120  0.2569
12598SOL     OW43113   1.764   4.860   6.387  0.4695  0.3020 -0.2958
12598SOL    HW143114   1.808   4.906   6.316 -0.0333 -0.9737 -1.4882
12598SOL    HW243115   1.771   4.918   6.463  2.8721  0.7859 -0.8294
12599SOL     OW43116   4.032   7.476   0.566  0.3690 -0.0269  0.0596
12599SOL    HW143117   4.018   7.494   0.660 -0.3299 -1.0686  0.1711
12599SOL    HW243118   4.090   7.547   0.537 -0.7611  1.3105  0.8857
12600SOL     OW43119   7.032   6.169   3.310 -0.8671  0.0426 -0.8443
12600SOL    HW143120   6.988   6.191   3.392 -0.2335 -1.1269 -0.1740
12600SOL    HW243121   6.971   6.198   3.242 -1.9124 -0.0173  0.0458
12601SOL     OW43122   8.284   5.458   9.837  0.2378 -0.3411 -0.3274
12601SOL    HW143123   8.252   5.457   9.927 -0.2334  1.1072 -0.4478
12601SOL    HW243124   8.207   5.436   9.784 -0.4667  2.3351 -0.5632
12602SOL     OW43125   1.320   5.856   8.168  0.0444 -0.1100  0.1553
12602SOL    HW143126   1.366   5.819   8.092 -0.0556  0.6421 -0.2828
12602SOL    HW243127   1.228   5.835   8.153 -0.0508  0.5485 -0.2481
12603SOL     OW43128   7.151   8.556   5.504 -0.0893  0.7110  0.3089
12603SOL    HW143129   7.190   8.470   5.489  0.7334  0.9184  1.1703
12603SOL    HW243130   7.225   8.614   5.521 -0.5850  1.7508 -0.9242
12604SOL     OW43131   1.512   6.999   8.135 -0.2351 -0.0745 -0.1268
12604SOL    HW143132   1.577   6.929   8.143  0.2457  0.1651 -1.5635
12604SOL    HW243133   1.431   6.960   8.168  0.5303 -0.5134  1.3148
12605SOL     OW43134   0.773  11.693  11.345 -0.4150  0.2356 -0.0728
12605SOL    HW143135   0.829  11.625  11.382 -0.2325  0.4072 -0.0294
12605SOL    HW243136   0.697  11.696  11.403 -0.5436 -0.1071 -0.2207
12606SOL     OW43137  10.403   8.079   0.076  0.7161 -0.3244 -0.2371
12606SOL    HW143138  10.312   8.050   0.080  1.3496 -2.3987  0.6568
12606SOL    HW243139  10.425   8.102   0.166  1.1905 -0.2068 -0.3770
12607SOL     OW43140   9.488   3.010   4.694  0.3386  0.1584 -0.4200
12607SOL    HW143141   9.530   2.944   4.750 -0.8781  1.5808  2.3681
12607SOL    HW243142   9.557   3.073   4.674  1.0055 -0.8331 -1.3569
12608SOL     OW43143   1.868   7.644   7.737  0.5540  0.1995 -0.4126
12608SOL    HW143144   1.900   7.632   7.648 -1.4160 -2.4136 -0.8795
12608SOL    HW243145   1.936   7.604   7.792  0.6956 -0.2793 -0.9264
12609SOL     OW43146   0.674  11.542   1.115  0.2105 -0.1843 -0.3522
12609SOL    HW143147   0.606  11.484   1.148 -0.2807  0.0619 -0.9337
12609SOL    HW243148   0.668  11.619   1.171 -0.9603  0.4449 -1.3159
12610SOL     OW43149   8.321  10.264   0.775 -0.6788  0.2074  0.4408
12610SOL    HW143150   8.229  10.243   0.761 -0.0756 -3.4087  1.1571
12610SOL    HW243151   8.320  10.337   0.837 -3.0491 -0.0994  0.8440
12611SOL     OW43152   8.646   9.344   8.205  0.1910 -0.4175 -0.1525
12611SOL    HW143153   8.586   9.317   8.275 -0.5959  1.9008  0.1793
12611SOL    HW243154   8.691   9.420   8.241 -1.7773  2.2356 -2.7635
12612SOL     OW43155   2.872   7.217   2.729  0.3439 -0.0509 -0.0249
12612SOL    HW143156   2.815   7.171   2.791 -0.5159  0.2465 -0.5813
12612SOL    HW243157   2.827   7.300   2.713  1.0761  0.3012 -0.2672
12613SOL     OW43158   4.008   9.981   8.197  0.3719 -0.1462 -0.0439
12613SOL    HW143159   3.938  10.014   8.142  0.3808 -0.5622 -0.3124
12613SOL    HW243160   4.023  10.050   8.262 -0.0822  0.0676 -0.1636
12614SOL     OW43161   5.060   3.278   1.527  0.4689  0.4797 -0.3541
12614SOL    HW143162   4.991   3.224   1.565  0.1772  1.6062  0.7700
12614SOL    HW243163   5.041   3.367   1.558  3.1715  0.6373  1.1776
12615SOL     OW43164   6.988  10.806  11.498  0.2735 -0.0424  0.2855
12615SOL    HW143165   7.067  10.751  11.499 -0.6127 -1.3901 -0.8691
12615SOL    HW243166   6.993  10.855  11.580  1.5976 -1.1213  0.8987
12616SOL     OW43167   3.108  10.313   4.081 -0.1686 -0.1318  0.3866
12616SOL    HW143168   3.203  10.307   4.088  0.0877  1.0734 -1.3951
12616SOL    HW243169   3.088  10.406   4.092 -1.2662 -0.4938  1.7098
12617SOL     OW43170   1.727   0.308   8.628  0.5156  0.4098  0.3866
12617SOL    HW143171   1.693   0.240   8.570 -0.8452  0.5201  1.0254
12617SOL    HW243172   1.707   0.390   8.582 -0.6625  0.5026  1.0360
12618SOL     OW43173   6.426   4.007  10.376  0.1750 -0.3094  0.2812
12618SOL    HW143174   6.464   3.937  10.323 -0.4582  0.0516 -0.6662
12618SOL    HW243175   6.489   4.079  10.370 -0.0763 -0.1381 -0.2861
12619SOL     OW43176   4.031   5.097   1.362 -0.7130 -0.0971  0.0262
12619SOL    HW143177   3.983   5.026   1.404 -0.7984 -0.5139 -0.7560
12619SOL    HW243178   3.964   5.161   1.338 -0.8307 -0.4947 -0.7075
12620SOL     OW43179   0.472   0.303   6.414 -0.7970  0.2731 -0.3196
12620SOL    HW143180   0.384   0.276   6.437 -0.7310  1.2679  1.2033
12620SOL    HW243181   0.461   0.383   6.363 -0.7750  0.5001  0.0291
12621SOL     OW43182   4.497   8.684   8.610  0.1472 -0.0290  0.8195
12621SOL    HW143183   4.588   8.679   8.580  0.4036 -2.1356  1.7841
12621SOL    HW243184   4.445   8.654   8.535  0.4340 -1.0217  1.0148
12622SOL     OW43185   1.315   7.313   4.112 -0.4359 -0.5769  0.1515
12622SOL    HW143186   1.232   7.350   4.142 -0.7505  0.8686 -2.2304
12622SOL    HW243187   1.373   7.320   4.187 -1.6472  1.1380  0.9882
12623SOL     OW43188   8.742   9.466  11.724  0.0287  0.0980  0.2396
12623SOL    HW143189   8.691   9.403  11.673 -1.0424 -0.2143  1.6371
12623SOL    HW243190   8.798   9.413  11.780 -2.1116  0.2495  2.6754
12624SOL     OW43191   2.663   4.186   5.930 -0.3474  0.0531 -0.3967
12624SOL    HW143192   2.700   4.252   5.871 -1.2026  0.6714 -0.2553
12624SOL    HW243193   2.737   4.130   5.952  0.3204  0.7542 -0.8008
12625SOL     OW43194   6.143  10.084   9.116  0.2627  0.6496 -0.3152
12625SOL    HW143195   6.193  10.148   9.167  0.1000 -0.5125  1.4081
12625SOL    HW243196   6.209  10.026   9.078  0.3233 -0.1033  0.8796
12626SOL     OW43197   4.387   6.219   4.650 -0.3016  0.1492 -0.2161
12626SOL    HW143198   4.356   6.138   4.691  0.8339 -0.3466 -0.2922
12626SOL    HW243199   4.401   6.280   4.723  0.0993 -0.1703 -0.0189
12627SOL     OW43200  11.019   5.167   7.690  0.1625 -0.4585 -0.0125
12627SOL    HW143201  10.961   5.198   7.621  1.0712  1.6084  0.0878
12627SOL    HW243202  11.034   5.075   7.669 -2.9149 -1.0261 -0.1657
12628SOL     OW43203   9.383   6.120   6.857 -0.1664  0.6589  0.3935
12628SOL    HW143204   9.301   6.098   6.901 -0.1625 -0.0617  0.0521
12628SOL    HW243205   9.427   6.180   6.918  0.4204 -1.3045  2.0195
12629SOL     OW43206   4.086   0.251  11.801  0.1575  0.1806 -0.0236
12629SOL    HW143207   4.096   0.180  11.738 -0.1594  0.4573 -0.3922
12629SOL    HW243208   4.172   0.293  11.803  0.6244 -0.7789  0.9011
12630SOL     OW43209   6.702   5.121   7.264 -0.0197 -0.4629  0.6134
12630SOL    HW143210   6.723   5.071   7.343 -1.5663 -0.5091  1.0303
12630SOL    HW243211   6.614   5.092   7.240  0.4089 -0.4061 -1.1109
12631SOL     OW43212  11.198   1.181  10.618 -0.2229  0.0705  0.2304
12631SOL    HW143213  11.216   1.088  10.622  0.8213  0.0070 -2.9239
12631SOL    HW243214  11.151   1.193  10.535 -0.5560  2.3270  0.6626
12632SOL     OW43215   3.917  10.105   4.623  0.1376  0.0146  0.0211
12632SOL    HW143216   3.978  10.037   4.595  0.0846  0.5520 -1.4975
12632SOL    HW243217   3.885  10.075   4.708  2.7445 -0.1313  1.0419
12633SOL     OW43218   3.814   4.346   1.699  0.2499  0.0144 -0.3804
12633SOL    HW143219   3.909   4.338   1.705  0.2383 -0.0244 -0.2490
12633SOL    HW243220   3.797   4.367   1.607  0.3668 -0.2359 -0.4599
12634SOL     OW43221  11.765   0.956   3.484 -0.0279 -0.0586  0.5407
12634SOL    HW143222  11.825   0.888   3.515  0.4682  0.6963  1.2830
12634SOL    HW243223  11.685   0.944   3.535 -0.1517 -0.4514  0.2526
12635SOL     OW43224   8.646   0.334  11.170 -0.7566  0.8133  0.1048
12635SOL    HW143225   8.680   0.246  11.155 -1.2556  0.7246 -0.5187
12635SOL    HW243226   8.625   0.368  11.083 -1.8301  1.0386  0.4294
12636SOL     OW43227   5.952   6.846   5.534  0.2438 -0.0924 -0.1530
12636SOL    HW143228   5.988   6.907   5.470 -0.0603  1.3126  0.9556
12636SOL    HW243229   6.027   6.820   5.587  0.5361 -1.4316 -1.1780
12637SOL     OW43230   6.492   1.740   9.737 -0.1823 -0.2241 -0.2187
12637SOL    HW143231   6.448   1.799   9.676 -1.6424 -2.3818 -1.3898
12637SOL    HW243232   6.585   1.744   9.712 -0.4012  0.8019 -0.9222
12638SOL     OW43233   9.675   6.575   6.591 -0.4118  0.0058 -0.2975
12638SOL    HW143234   9.607   6.560   6.526  0.9953 -3.3412 -1.1768
12638SOL    HW243235   9.639   6.539   6.672  0.0489 -1.1572 -0.6064
12639SOL     OW43236   0.588   7.921   1.485  0.1226 -0.0005  0.4707
12639SOL    HW143237   0.526   7.989   1.460 -1.4709 -1.7319 -0.5471
12639SOL    HW243238   0.647   7.913   1.410  0.9094  0.8682  0.9773
12640SOL     OW43239   3.477   1.714   3.710 -0.7696  0.0915  0.4940
12640SOL    HW143240   3.443   1.626   3.695  0.5709 -0.0630 -2.2950
12640SOL    HW243241   3.534   1.704   3.786 -1.0591 -1.3195  0.5689
12641SOL     OW43242   7.553   6.474   1.013  0.3299  0.1140 -0.5751
12641SOL    HW143243   7.495   6.445   0.942  0.5760 -2.2229  0.1052
12641SOL    HW243244   7.616   6.532   0.969 -0.6521  0.2543 -1.8900
12642SOL     OW43245   3.348   2.360   2.236  0.1990  0.9234 -0.1439
12642SOL    HW143246   3.400   2.370   2.157 -0.0509  0.9153 -0.3128
12642SOL    HW243247   3.389   2.418   2.300  0.3949  0.9381 -0.2845
12643SOL     OW43248   4.651  10.735   3.820 -0.4009  0.0073 -0.5668
12643SOL    HW143249   4.605  10.702   3.898  0.0301 -0.4938 -0.5164
12643SOL    HW243250   4.735  10.766   3.853 -0.1439 -0.3731 -0.8570
12644SOL     OW43251   2.866  10.509   4.528  0.0985 -0.0473 -0.2184
12644SOL    HW143252   2.825  10.442   4.473 -1.3033  2.1608 -2.0145
12644SOL    HW243253   2.870  10.587   4.473  3.9824  0.7736  0.9292
12645SOL     OW43254   1.247   1.916   2.295  0.5030  0.1413  0.2784
12645SOL    HW143255   1.302   1.938   2.370  0.8515 -0.2783  0.1490
12645SOL    HW243256   1.192   1.993   2.282 -0.9104 -0.4820  2.1553
12646SOL     OW43257  10.043   6.511   4.901 -0.4196  0.7335 -0.1106
12646SOL    HW143258  10.094   6.580   4.859  0.0463  1.4937  1.6107
12646SOL    HW243259  10.032   6.444   4.833  2.4923  0.7457 -0.7341
12647SOL     OW43260   5.818   6.151   4.266 -0.2762 -0.6413  0.4748
12647SOL    HW143261   5.754   6.102   4.316  0.9490 -0.9850  1.7560
12647SOL    HW243262   5.893   6.161   4.325  0.2897  1.0240 -0.4569
12648SOL     OW43263   5.390   0.322   8.216 -0.1843  0.0148  0.6989
12648SOL    HW143264   5.346   0.356   8.294  1.2769  1.6989  0.8788
12648SOL    HW243265   5.320   0.306   8.153 -1.2756 -0.1659  1.9202
12649SOL     OW43266   0.199   4.590   3.502 -0.7402  0.3692  0.5559
12649SOL    HW143267   0.241   4.503   3.500 -2.1610 -0.3747  1.4757
12649SOL    HW243268   0.194   4.612   3.595 -1.9677  0.6169  0.4493
12650SOL     OW43269   6.406   7.183   4.948 -0.2668 -0.4153  0.5712
12650SOL    HW143270   6.428   7.141   5.031 -1.0606 -1.3106  0.3417
12650SOL    HW243271   6.485   7.233   4.925  0.0566 -0.3641  1.7196
12651SOL     OW43272  10.842   3.833   3.878  0.3631 -0.3682  0.2585
12651SOL    HW143273  10.772   3.880   3.833  0.7985 -0.3731 -0.4334
12651SOL    HW243274  10.837   3.863   3.969 -0.2669 -0.0585  0.1239
12652SOL     OW43275  10.115   3.867  10.957 -0.2944  0.1769 -0.0434
12652SOL    HW143276  10.062   3.922  11.014  0.2491  2.2513 -1.4131
12652SOL    HW243277  10.095   3.898  10.868 -0.0168 -1.9384 -0.9075
12653SOL     OW43278   9.867   7.916   5.314  0.4100 -0.3910  0.3587
12653SOL    HW143279   9.896   7.826   5.294 -0.0203 -0.1241 -1.6713
12653SOL    HW243280   9.797   7.933   5.250 -1.2692  0.5270  2.3413
12654SOL     OW43281  11.758  10.146   7.842 -0.3822  0.6354  0.0355
12654SOL    HW143282  11.713  10.061   7.847  2.8466 -1.1857  1.8475
12654SOL    HW243283  11.741  10.177   7.753 -1.2207 -2.2073 -0.9224
12655SOL     OW43284   1.339  10.805  11.622 -0.5050  0.4298  0.0953
12655SOL    HW143285   1.264  10.844  11.668  0.5209  1.3559  1.0452
12655SOL    HW243286   1.415  10.850  11.658  0.3599  1.6636 -2.9900
12656SOL     OW43287   1.425   3.947   1.349  1.3318  0.0941  0.3785
12656SOL    HW143288   1.404   3.997   1.270  2.7721 -1.6222 -1.1932
12656SOL    HW243289   1.383   3.995   1.420 -1.2301  0.9370 -1.5781
12657SOL     OW43290   8.199   4.730   3.621 -0.1636  0.1688 -0.0239
12657SOL    HW143291   8.288   4.742   3.652 -0.5950  0.8733  0.9796
12657SOL    HW243292   8.192   4.789   3.545  1.2795 -2.4724 -2.4122
12658SOL     OW43293   5.023  11.153   8.034 -0.2645 -0.3182  0.1332
12658SOL    HW143294   5.013  11.226   8.096  1.1638 -0.1556  0.2109
12658SOL    HW243295   5.112  11.122   8.048 -0.8412 -2.1052  0.0972
12659SOL     OW43296   4.190   9.779   8.229 -0.0955 -0.0616  0.1276
12659SOL    HW143297   4.143   9.862   8.229 -0.9445 -0.5195  0.9862
12659SOL    HW243298   4.145   9.726   8.295  2.1412 -0.2282  1.6058
12660SOL     OW43299   8.013   5.519   2.730  0.4027 -0.1431  0.6550
12660SOL    HW143300   8.081   5.580   2.700  2.0123 -0.8912  2.6003
12660SOL    HW243301   8.059   5.437   2.747 -0.6373 -0.2488  3.4891
12661SOL     OW43302   6.845   6.382   9.385  0.0249  0.0240  0.0390
12661SOL    HW143303   6.837   6.372   9.480  0.1656 -0.2867  0.0197
12661SOL    HW243304   6.831   6.475   9.369 -0.0851  0.0608  0.3565
12662SOL     OW43305   8.760   5.265   0.692 -0.2716 -0.1794  0.3811
12662SOL    HW143306   8.789   5.352   0.718 -1.4430 -0.5391  3.4122
12662SOL    HW243307   8.818   5.205   0.739 -1.9052 -0.9241  1.5676
12663SOL     OW43308   7.860   9.028   3.190  0.5407 -0.3595  0.7347
12663SOL    HW143309   7.854   9.123   3.177 -1.5796 -0.2567  1.9854
12663SOL    HW243310   7.771   8.996   3.171  0.9099 -1.9188  1.5039
12664SOL     OW43311   3.896  11.616   6.977  0.6028  0.1752  0.1496
12664SOL    HW143312   3.898  11.677   7.051 -1.0735 -0.1433  0.5070
12664SOL    HW243313   3.821  11.645   6.925  1.3313 -0.0482 -1.0433
12665SOL     OW43314   9.008   4.140   7.341  0.4051  0.9232  0.5572
12665SOL    HW143315   8.988   4.200   7.413 -2.2571  0.2799  0.4744
12665SOL    HW243316   9.028   4.057   7.383 -0.0245  0.8359  0.5936
12666SOL     OW43317   9.067   2.371   9.194  0.6950  0.6810  0.3210
12666SOL    HW143318   9.029   2.411   9.273  0.5465  1.2264 -0.0238
12666SOL    HW243319   9.142   2.427   9.173  2.2590 -0.8659  1.4978
12667SOL     OW43320   5.003   5.356   7.667 -0.4750 -0.0409 -0.7893
12667SOL    HW143321   4.958   5.278   7.698  0.6366 -0.2970  0.2238
12667SOL    HW243322   5.072   5.372   7.731  0.7319  0.4832 -2.1688
12668SOL     OW43323   1.261   6.147   4.692  0.4545 -0.0842 -0.3190
12668SOL    HW143324   1.325   6.131   4.762  0.6863 -1.2833 -0.7657
12668SOL    HW243325   1.265   6.241   4.677  3.5694 -0.2696 -1.6101
12669SOL     OW43326   9.517   6.590   8.438 -0.3716  0.0338 -0.7860
12669SOL    HW143327   9.592   6.575   8.380 -0.6092 -3.1163 -0.4564
12669SOL    HW243328   9.554   6.588   8.527 -0.8068 -2.3011 -0.5769
12670SOL     OW43329   2.829   0.546   5.719  0.3831  0.5279  0.5566
12670SOL    HW143330   2.763   0.535   5.788  0.7593  1.8714  1.1703
12670SOL    HW243331   2.825   0.639   5.697  4.8099  1.7325  3.5324
12671SOL     OW43332   9.509   5.069   3.588 -0.5957 -0.1979  0.0073
12671SOL    HW143333   9.425   5.024   3.595  0.2243 -1.5872  1.3427
12671SOL    HW243334   9.499   5.147   3.643 -1.6098  0.6976 -1.3622
12672SOL     OW43335   7.536   5.180   4.661 -0.4114 -0.3926 -0.2752
12672SOL    HW143336   7.518   5.101   4.610 -0.1422 -0.6126 -0.0345
12672SOL    HW243337   7.613   5.158   4.713 -0.5608 -0.1005  0.0748
12673SOL     OW43338   9.460  11.434   0.117 -0.5761  0.5269 -0.1553
12673SOL    HW143339   9.519  11.468   0.050  0.0125 -0.2134 -0.0293
12673SOL    HW243340   9.478  11.340   0.119  0.6044  0.7269  2.1643
12674SOL     OW43341   5.424   7.879   0.028 -0.0597 -0.3803  0.6072
12674SOL    HW143342   5.398   7.805   0.083 -1.8752 -0.2277  0.0120
12674SOL    HW243343   5.347   7.935   0.024  0.1558 -0.1245 -1.6662
12675SOL     OW43344   0.959  11.738   0.513 -0.1652  0.4729  0.3189
12675SOL    HW143345   1.035  11.695   0.552 -1.2895 -0.1723  1.9079
12675SOL    HW243346   0.956  11.824   0.555  0.4232  1.0257 -0.7315
12676SOL     OW43347   1.390   0.795   7.097 -0.3917  0.1265  0.5565
12676SOL    HW143348   1.348   0.853   7.035 -0.1810  0.1741  0.4572
12676SOL    HW243349   1.328   0.723   7.110  0.1368 -0.5895 -0.7567
12677SOL     OW43350   6.671   6.163   5.152  0.1752 -0.1116  0.2410
12677SOL    HW143351   6.664   6.159   5.247  0.7041  0.8380  0.3298
12677SOL    HW243352   6.593   6.118   5.120 -1.2073  1.5785  1.1312
12678SOL     OW43353   6.476   2.750   3.396  0.3349  0.2098  0.0427
12678SOL    HW143354   6.481   2.734   3.490 -0.0695  0.8494  0.1819
12678SOL    HW243355   6.540   2.690   3.357  0.1165 -0.4460  0.6771
12679SOL     OW43356   7.878   0.522   1.972  0.6987  0.1331 -0.4126
12679SOL    HW143357   7.867   0.431   1.945  2.0359  0.3769 -1.9227
12679SOL    HW243358   7.919   0.565   1.897  2.3656  1.4340  1.1459
12680SOL     OW43359   8.946   1.839   7.747 -0.2777 -0.0321  0.4935
12680SOL    HW143360   8.967   1.754   7.785 -2.0245 -0.7156  0.0140
12680SOL    HW243361   8.971   1.830   7.655  2.5966  1.1354  1.0592
12681SOL     OW43362   4.216   4.869   5.682 -0.7882  0.1595  0.0404
12681SOL    HW143363   4.233   4.961   5.661  1.4723 -0.4390 -1.1517
12681SOL    HW243364   4.125   4.867   5.709 -1.4452  2.4616 -1.6516
12682SOL     OW43365   0.757  10.540   2.470  0.3764  0.2123 -0.6520
12682SOL    HW143366   0.712  10.469   2.424 -0.0889  0.7051 -0.9804
12682SOL    HW243367   0.695  10.613   2.467 -0.0073  0.0369  1.4836
12683SOL     OW43368   8.437   1.929   3.707  0.1742 -0.0822 -0.0234
12683SOL    HW143369   8.425   1.970   3.622 -2.2882  1.4587  0.9728
12683SOL    HW243370   8.527   1.895   3.704  0.2291  0.0234 -3.1325
12684SOL     OW43371   0.222   9.775   3.617  0.2967  0.5323  0.1505
12684SOL    HW143372   0.218   9.800   3.710  3.6228  0.9789  0.2977
12684SOL    HW243373   0.254   9.685   3.618 -0.7731  0.1369 -0.5692
12685SOL     OW43374   7.035   1.555   7.036 -0.2126  0.0927  0.5131
12685SOL    HW143375   7.004   1.574   7.124 -0.9787  0.1039  0.2487
12685SOL    HW243376   7.125   1.525   7.048 -0.6357 -0.8825  1.3961
12686SOL     OW43377  11.204   9.622   6.627  0.1212  0.3299  0.1014
12686SOL    HW143378  11.218   9.716   6.613 -0.1257  0.4555  0.6741
12686SOL    HW243379  11.110   9.611   6.615  0.3636 -0.1517 -1.6659
12687SOL     OW43380   1.957   7.923   7.159 -0.1775  0.2407  0.5098
12687SOL    HW143381   1.926   7.854   7.100  2.3213  1.0606 -1.9775
12687SOL    HW243382   2.012   7.877   7.222  1.0059 -0.1866 -0.7766
12688SOL     OW43383   7.795   3.812   2.760  0.3212 -0.2876 -0.1565
12688SOL    HW143384   7.885   3.791   2.786  0.7887  2.7947  1.2053
12688SOL    HW243385   7.745   3.806   2.841  0.2200  1.9648  0.0209
12689SOL     OW43386   5.961  11.390   2.653 -0.1799  0.0367  0.4756
12689SOL    HW143387   6.023  11.316   2.659 -0.2955 -0.1927 -0.8461
12689SOL    HW243388   6.006  11.462   2.695  0.3841 -0.5156  0.8418
12690SOL     OW43389   7.937   6.328   3.038 -0.4141 -0.0606 -0.3945
12690SOL    HW143390   8.013   6.270   3.039  0.0494  0.5434 -0.2357
12690SOL    HW243391   7.935   6.367   3.125 -2.0412 -1.5128  0.2779
12691SOL     OW43392   8.910   3.628  10.234  0.0041  0.5223 -0.1985
12691SOL    HW143393   8.920   3.721  10.212 -1.0807  0.8763  0.6806
12691SOL    HW243394   8.964   3.616  10.312 -0.7401  0.7149  0.3640
12692SOL     OW43395   5.790   5.017  10.372 -0.3807 -0.2100 -0.4315
12692SOL    HW143396   5.817   4.932  10.339  2.1898  0.3766 -0.1370
12692SOL    HW243397   5.855   5.038  10.440 -2.0312  1.1833  0.8215
12693SOL     OW43398   4.620   7.535   9.936 -1.0209  0.3972  0.2981
12693SOL    HW143399   4.612   7.598  10.007 -0.7994  0.3640  0.3532
12693SOL    HW243400   4.530   7.520   9.907 -1.2440 -0.5245  1.3839
12694SOL     OW43401   2.400   2.536   2.892 -0.6865 -0.3994  0.0333
12694SOL    HW143402   2.464   2.502   2.829 -1.1420 -0.4531 -0.4027
12694SOL    HW243403   2.378   2.623   2.859 -0.0199  0.0760  0.7888
12695SOL     OW43404   5.848   9.684   9.519  0.2280 -0.1415 -0.0273
12695SOL    HW143405   5.775   9.623   9.531  0.9266 -0.9798  0.0605
12695SOL    HW243406   5.871   9.712   9.607  0.4705 -0.4204 -0.0042
12696SOL     OW43407   6.342   9.394   9.053  0.2608  0.1089 -0.3887
12696SOL    HW143408   6.275   9.336   9.018 -0.3079  0.6994 -0.2892
12696SOL    HW243409   6.392   9.421   8.976  0.8391 -0.8840 -0.3794
12697SOL     OW43410  10.106   5.884  10.977 -0.3289  0.2472 -0.0321
12697SOL    HW143411  10.142   5.848  11.058  0.7562 -0.3355 -0.7458
12697SOL    HW243412  10.069   5.808  10.931  2.2968 -0.1564 -1.7155
12698SOL     OW43413   7.673   7.329   5.001 -0.0959  0.2571  0.3173
12698SOL    HW143414   7.639   7.414   5.027 -3.4262 -0.5805 -0.7609
12698SOL    HW243415   7.660   7.326   4.906 -1.6613 -1.9705  0.4999
12699SOL     OW43416  11.111  11.561   8.899 -0.1132 -0.5421  0.0691
12699SOL    HW143417  11.038  11.620   8.913  1.2540  1.0681  0.7762
12699SOL    HW243418  11.182  11.617   8.866  1.6238 -1.5024  1.9210
12700SOL     OW43419   7.286   9.942  11.374  0.2290  0.5475  0.0357
12700SOL    HW143420   7.367   9.957  11.326 -0.5490  0.9515 -1.1697
12700SOL    HW243421   7.229  10.015  11.350 -0.7470 -0.1029  0.3203
12701SOL     OW43422   8.603  11.604   4.506 -0.6078 -0.0794  0.0840
12701SOL    HW143423   8.677  11.660   4.486 -0.4298 -0.8062 -1.5030
12701SOL    HW243424   8.542  11.660   4.554  0.3435  0.9244  0.1498
12702SOL     OW43425   4.877   1.527  10.264 -0.0597 -0.2515  0.6612
12702SOL    HW143426   4.898   1.531  10.358  0.8303 -0.9661  0.5092
12702SOL    HW243427   4.884   1.618  10.234  1.3021 -0.2350  0.9629
12703SOL     OW43428   8.041   1.732   2.091  0.4398 -0.2328 -0.0341
12703SOL    HW143429   8.049   1.719   2.185  2.9318 -2.5626 -0.4186
12703SOL    HW243430   7.978   1.665   2.063  0.5706 -0.3163 -0.1319
12704SOL     OW43431   7.364   8.536   2.270  0.0447 -0.6535 -0.1922
12704SOL    HW143432   7.400   8.462   2.317  0.2207 -0.8294 -0.5970
12704SOL    HW243433   7.310   8.582   2.334 -2.1694 -2.5386 -0.5275
12705SOL     OW43434  10.337  10.397   6.859  0.2186 -0.1816  0.1959
12705SOL    HW143435  10.279  10.381   6.784  1.1363 -0.7254 -0.4217
12705SOL    HW243436  10.401  10.460   6.827 -0.2862  0.8012  1.0286
12706SOL     OW43437   5.467   8.609   4.308  0.1651 -0.0167 -0.1465
12706SOL    HW143438   5.401   8.608   4.239  0.9684  1.3370 -0.9707
12706SOL    HW243439   5.509   8.523   4.302  0.1243  0.0231 -1.2502
12707SOL     OW43440   9.755   5.259   5.677  0.0696  0.0169 -0.4098
12707SOL    HW143441   9.807   5.316   5.734 -0.5146 -0.2550  0.4115
12707SOL    HW243442   9.674   5.307   5.664  0.3859  0.2998 -1.4370
12708SOL     OW43443   0.523   6.560   6.322  0.3077  0.1927  0.3787
12708SOL    HW143444   0.517   6.632   6.386 -3.0425  0.3057  0.1285
12708SOL    HW243445   0.497   6.482   6.372  1.9920 -0.5396  0.1652
12709SOL     OW43446   2.617   8.377   5.102  0.1045 -0.3439  0.1410
12709SOL    HW143447   2.704   8.409   5.082 -0.1979 -1.3704 -3.7401
12709SOL    HW243448   2.631   8.289   5.138  0.7088 -0.4145 -0.2509
12710SOL     OW43449  11.419  10.773   3.776 -0.4682 -0.0896  0.0336
12710SOL    HW143450  11.457  10.832   3.711 -0.3104  0.6334  0.7543
12710SOL    HW243451  11.332  10.809   3.794 -0.6940 -0.5525 -0.1144
12711SOL     OW43452   7.331   1.450   3.590  0.5819 -0.1596  0.9073
12711SOL    HW143453   7.300   1.367   3.555  0.8371  0.5107 -1.0584
12711SOL    HW243454   7.426   1.442   3.590  0.7440  0.8515 -1.4471
12712SOL     OW43455   0.574   9.692   7.300  0.2199  0.1219 -0.6146
12712SOL    HW143456   0.495   9.639   7.314 -0.7169  1.2112 -1.6564
12712SOL    HW243457   0.610   9.659   7.218  2.6185 -2.4338  1.2285
12713SOL     OW43458   7.578   2.138   8.235 -0.4493  0.4888  0.4406
12713SOL    HW143459   7.491   2.178   8.235 -1.0277 -0.7023 -0.8188
12713SOL    HW243460   7.567   2.055   8.188  1.9725  1.7217 -2.6889
12714SOL     OW43461   5.677   3.880   6.254 -0.3208  0.5042  0.4739
12714SOL    HW143462   5.613   3.881   6.325 -1.2335  0.4044 -0.3224
12714SOL    HW243463   5.629   3.914   6.179  0.7151  0.8731 -0.0273
12715SOL     OW43464   2.149   9.356   4.365 -0.2529 -0.0331 -0.7812
12715SOL    HW143465   2.054   9.361   4.378 -0.1096 -0.7715  0.8941
12715SOL    HW243466   2.182   9.436   4.406  0.0375 -1.3118  1.7014
12716SOL     OW43467   1.097   6.347   1.908 -0.0869 -0.2847 -0.5801
12716SOL    HW143468   1.177   6.377   1.865  0.7720  0.2280  1.2565
12716SOL    HW243469   1.064   6.277   1.852  0.6105  0.7462 -2.3525
12717SOL     OW43470   7.186   7.550   8.645  0.6278 -0.1372 -0.3980
12717SOL    HW143471   7.103   7.534   8.690  0.9779 -0.2201  0.2352
12717SOL    HW243472   7.170   7.629   8.593  0.8531  1.3207  1.6103
12718SOL     OW43473  10.501   7.605   7.681 -0.5137 -0.3166 -0.2046
12718SOL    HW143474  10.578   7.595   7.737 -1.8228  2.4661  2.3755
12718SOL    HW243475  10.517   7.685   7.631 -0.7894 -0.9758 -1.3867
12719SOL     OW43476   3.208   9.364  11.345  0.0060  0.6751 -0.1810
12719SOL    HW143477   3.267   9.430  11.381 -0.3172  0.6872  0.3391
12719SOL    HW243478   3.185   9.310  11.420 -0.7756  0.7735 -0.3417
12720SOL     OW43479   4.819   0.788   2.432 -0.2218 -0.0199 -0.0075
12720SOL    HW143480   4.833   0.788   2.527  2.2057  1.0954 -0.2953
12720SOL    HW243481   4.793   0.698   2.412  0.7650 -0.6956  1.5201
12721SOL     OW43482   6.813   4.766   4.173  0.1180  0.4666  0.1259
12721SOL    HW143483   6.761   4.714   4.234  0.8211 -0.3870 -0.0016
12721SOL    HW243484   6.794   4.728   4.087  2.1295 -0.8639  0.2334
12722SOL     OW43485   8.468   0.550   7.419  0.6878 -0.5369  0.1016
12722SOL    HW143486   8.430   0.533   7.333  0.6858 -0.4391  0.0839
12722SOL    HW243487   8.421   0.626   7.452  2.5327  1.1603 -0.9593
12723SOL     OW43488   5.756   6.072   8.292 -0.1815 -0.3046 -0.0805
12723SOL    HW143489   5.761   6.124   8.212 -2.4225 -0.0196 -0.0959
12723SOL    HW243490   5.841   6.086   8.334  0.6581  0.3775 -1.8774
12724SOL     OW43491   7.751   9.802   5.906  0.3627  0.0800  0.1569
12724SOL    HW143492   7.795   9.718   5.918 -1.8707 -1.3053 -0.6986
12724SOL    HW243493   7.765   9.849   5.988  2.9298 -0.4442  0.1092
12725SOL     OW43494   0.099   9.984   1.804 -0.0153 -0.0134 -0.2228
12725SOL    HW143495   0.189   9.956   1.792  0.0578 -0.1668  0.6501
12725SOL    HW243496   0.085  10.047   1.733  0.4588 -0.7029 -0.9510
12726SOL     OW43497   0.103   0.203   4.028 -0.1598  0.5475  0.4344
12726SOL    HW143498   0.011   0.178   4.044 -0.0500  1.0019  1.9250
12726SOL    HW243499   0.125   0.260   4.102  0.6522  2.3002 -1.0860
12727SOL     OW43500   5.050   4.889   1.582 -0.3591  0.2629 -0.5573
12727SOL    HW143501   4.998   4.872   1.504  0.6103 -0.3392 -1.1002
12727SOL    HW243502   5.130   4.838   1.568 -0.3888 -0.2768  1.0666
12728SOL     OW43503   9.880   4.783   6.542  0.1680 -0.1048 -0.2849
12728SOL    HW143504   9.785   4.778   6.530 -0.0149 -0.0364  0.9231
12728SOL    HW243505   9.908   4.859   6.491 -0.3073 -0.5477 -1.2281
12729SOL     OW43506   4.590  11.250   8.641 -0.0174 -0.0444  0.1800
12729SOL    HW143507   4.526  11.320   8.644 -1.9066 -1.6585 -0.1394
12729SOL    HW243508   4.663  11.281   8.695 -1.3493  1.5829  1.1316
12730SOL     OW43509   4.471   8.354   3.799  0.6691 -0.0170 -0.1522
12730SOL    HW143510   4.549   8.383   3.846  0.8864 -0.4207 -0.2657
12730SOL    HW243511   4.474   8.259   3.802  0.8092 -0.0546 -1.1893
12731SOL     OW43512   4.008  11.342   1.844  1.1266  0.3625 -0.3954
12731SOL    HW143513   4.016  11.419   1.788 -1.3660  0.6509 -0.4696
12731SOL    HW243514   4.041  11.270   1.791 -0.9749  0.6701 -2.2533
12732SOL     OW43515   0.801   6.048   3.938 -0.0934 -0.8638 -0.3605
12732SOL    HW143516   0.724   6.024   3.887 -0.2796 -0.9537 -0.0345
12732SOL    HW243517   0.844   6.115   3.885 -2.1569  1.6575  0.9313
12733SOL     OW43518   2.612   3.917   8.783 -0.4358  0.2443 -0.2425
12733SOL    HW143519   2.659   3.903   8.701  0.9892  3.4001 -0.1107
12733SOL    HW243520   2.523   3.938   8.755 -0.3012 -0.0186 -0.9046
12734SOL     OW43521   2.445   9.075   5.552  0.2279  0.8392 -0.3929
12734SOL    HW143522   2.482   9.160   5.576  3.1124 -0.0721 -1.1424
12734SOL    HW243523   2.445   9.076   5.456  2.3674 -0.7019 -0.4865
12735SOL     OW43524   8.470  11.373   8.850 -0.9302  0.5896  0.4881
12735SOL    HW143525   8.535  11.443   8.856 -0.2337 -0.1117  1.8032
12735SOL    HW243526   8.522  11.293   8.859 -1.8412 -0.0463  0.1804
12736SOL     OW43527  10.552   1.397   9.569  0.0447 -0.1449 -0.2051
12736SOL    HW143528  10.461   1.382   9.545  0.4438 -1.0595 -1.2009
12736SOL    HW243529  10.581   1.314   9.608  0.4694  0.1197  0.0564
12737SOL     OW43530   7.467   6.760   0.916  0.1266  0.0768  0.0524
12737SOL    HW143531   7.555   6.796   0.908 -0.3163  1.0277 -0.8651
12737SOL    HW243532   7.455   6.710   0.835  0.6614 -2.0427  1.2311
12738SOL     OW43533   9.514   7.487  10.158  0.7970 -0.1113  0.2293
12738SOL    HW143534   9.499   7.534  10.075  0.6502 -0.4193  0.0803
12738SOL    HW243535   9.602   7.453  10.150 -0.2077 -2.6570 -1.0706
12739SOL     OW43536   8.119   1.539   6.679 -0.3330  0.3961 -0.0311
12739SOL    HW143537   8.137   1.448   6.656 -0.0563  0.1963  0.9436
12739SOL    HW243538   8.068   1.572   6.605 -0.4316 -0.5444 -0.4037
12740SOL     OW43539  11.756   4.659   5.050 -0.3893  0.1891 -0.1747
12740SOL    HW143540  11.681   4.697   5.004 -0.0062  1.1693 -0.0098
12740SOL    HW243541  11.730   4.568   5.067 -0.8837  0.0364 -1.5669
12741SOL     OW43542   9.676   8.100   9.214  0.5005  0.1770  0.1087
12741SOL    HW143543   9.618   8.134   9.145  1.1645  2.0190  0.4046
12741SOL    HW243544   9.754   8.071   9.168 -0.0210 -0.8947 -0.1350
12742SOL     OW43545   6.379   6.618   3.247  0.2759 -0.3385 -0.4457
12742SOL    HW143546   6.439   6.654   3.182 -0.3791  0.6020 -0.5504
12742SOL    HW243547   6.368   6.687   3.311 -1.0944 -0.2768 -0.7091
12743SOL     OW43548  10.756   2.751   1.634  0.5898 -0.5420 -0.1903
12743SOL    HW143549  10.715   2.783   1.553  0.5669  3.2217  1.0998
12743SOL    HW243550  10.841   2.717   1.606  0.6538  0.7998 -1.8503
12744SOL     OW43551   6.990   6.447  10.659 -0.5346  0.2131 -0.4929
12744SOL    HW143552   6.906   6.483  10.687 -1.0986 -1.7675  0.5982
12744SOL    HW243553   6.968   6.391  10.584 -0.5242 -1.6508  0.8352
12745SOL     OW43554  10.398   0.333   0.960 -0.4130  0.0693 -0.8112
12745SOL    HW143555  10.399   0.293   1.047 -0.7161 -0.4656 -1.0482
12745SOL    HW243556  10.472   0.293   0.914 -0.6115 -0.0897 -0.9927
12746SOL     OW43557   9.122   0.140   6.884  0.2543  0.1734 -0.4081
12746SOL    HW143558   9.116   0.217   6.828  2.4502  1.1645  0.5734
12746SOL    HW243559   9.064   0.160   6.958  1.6207  1.4669  0.3802
12747SOL     OW43560  10.050   7.780   2.206 -0.0305  0.1737 -0.2697
12747SOL    HW143561  10.023   7.870   2.184 -0.9578  0.3877  1.5463
12747SOL    HW243562  10.117   7.791   2.273  0.1469 -0.5082 -0.3263
12748SOL     OW43563  11.294   8.086   2.026 -0.3891  0.6068 -0.4349
12748SOL    HW143564  11.306   8.177   2.002 -0.3477  0.7352  0.0595
12748SOL    HW243565  11.303   8.038   1.944  1.8460  0.8441 -0.3874
12749SOL     OW43566  10.277   2.280   3.589  0.5289  0.0475 -0.5841
12749SOL    HW143567  10.223   2.200   3.592 -0.9150  1.0005 -0.0622
12749SOL    HW243568  10.311   2.289   3.678 -0.2293  0.6068 -0.3445
12750SOL     OW43569   5.561   2.441   0.950  0.3962  0.0848  0.2583
12750SOL    HW143570   5.514   2.517   0.985  2.6888  2.4683 -1.4815
12750SOL    HW243571   5.492   2.381   0.922 -1.5000  0.7414  3.1234
12751SOL     OW43572   4.700   2.207   7.654  0.4747  0.1897  0.8396
12751SOL    HW143573   4.713   2.221   7.748 -1.1010  1.6532  0.9044
12751SOL    HW243574   4.605   2.201   7.644  0.5954  0.4323 -0.7056
12752SOL     OW43575   4.655   4.106   4.533  0.3642 -0.5114 -0.2720
12752SOL    HW143576   4.559   4.106   4.541  0.3728 -2.1408  0.3104
12752SOL    HW243577   4.683   4.037   4.593  1.7050 -2.0566 -2.5338
12753SOL     OW43578   8.368  10.095   7.016 -0.0178  0.3225 -0.1756
12753SOL    HW143579   8.353  10.183   6.982  1.7449  0.3023 -1.1361
12753SOL    HW243580   8.293  10.044   6.985 -0.1501  1.0952 -1.1777
12754SOL     OW43581   4.483   1.389  11.270  0.1705  0.1720  0.4184
12754SOL    HW143582   4.477   1.320  11.335  1.2209 -0.6696 -0.3494
12754SOL    HW243583   4.476   1.344  11.186  3.0768  0.6417 -0.1757
12755SOL     OW43584  10.878   3.632   2.359 -0.6781  0.1874 -0.2215
12755SOL    HW143585  10.952   3.672   2.404 -0.0168 -1.0341 -0.1764
12755SOL    HW243586  10.816   3.612   2.429 -1.0802  1.2447 -0.2639
12756SOL     OW43587   9.118   4.027   2.497 -0.1585 -0.3126 -0.2865
12756SOL    HW143588   9.198   3.977   2.482  0.0686  0.3543 -1.4665
12756SOL    HW243589   9.145   4.097   2.556  0.5934  0.9292 -2.0170
12757SOL     OW43590   0.196   3.255   7.866  0.1552  0.1034  0.0813
12757SOL    HW143591   0.134   3.184   7.877 -1.0703  0.9054 -1.2722
12757SOL    HW243592   0.279   3.212   7.845  0.3091 -1.0103  2.6142
12758SOL     OW43593   7.178   3.112   7.647  0.3527  0.5184  0.4107
12758SOL    HW143594   7.209   3.025   7.672 -0.7055 -0.1086 -0.3957
12758SOL    HW243595   7.105   3.130   7.706  0.2364  0.6349  0.2314
12759SOL     OW43596   8.471   4.145  11.337  0.0028  0.1304 -0.0694
12759SOL    HW143597   8.414   4.219  11.317  0.9954  1.2575  1.1487
12759SOL    HW243598   8.437   4.074  11.282 -3.4489  0.2985  1.5691
12760SOL     OW43599   8.954  11.534   8.458 -0.2712  0.1685 -0.5674
12760SOL    HW143600   8.963  11.616   8.507  0.8658  0.1525 -0.7215
12760SOL    HW243601   8.861  11.529   8.436 -0.6476  0.5954  0.8487
12761SOL     OW43602   4.657   6.316   1.180 -0.1228 -0.5649  0.1704
12761SOL    HW143603   4.613   6.286   1.101  0.5583  0.1840 -0.5171
12761SOL    HW243604   4.586   6.332   1.243 -0.7479 -0.3738 -0.5676
12762SOL     OW43605   5.105  11.766   6.742 -0.4490  0.0939  0.2003
12762SOL    HW143606   5.194  11.773   6.706 -0.7020 -0.5168 -0.5657
12762SOL    HW243607   5.118  11.734   6.831  0.0829 -0.3749 -0.0400
12763SOL     OW43608   4.069   0.792   9.273  0.1071 -0.2774 -0.1502
12763SOL    HW143609   4.109   0.753   9.195  0.3501 -2.4845  0.9896
12763SOL    HW243610   3.976   0.770   9.267 -0.0418  0.3638 -0.2664
12764SOL     OW43611   9.962  10.157   0.880  0.1285  0.4336 -0.4178
12764SOL    HW143612   9.905  10.200   0.817 -0.2553 -0.7729 -0.9191
12764SOL    HW243613   9.960  10.064   0.856  1.2354  0.1724  0.3870
12765SOL     OW43614  10.087  10.923   4.245 -0.3306 -1.2665 -0.1363
12765SOL    HW143615  10.090  10.846   4.302 -1.8219 -1.5849 -0.4490
12765SOL    HW243616  10.022  10.901   4.178 -0.8941  0.2949 -0.1528
12766SOL     OW43617  10.346   0.807   8.925  0.0825  0.1870 -0.1341
12766SOL    HW143618  10.305   0.720   8.929 -0.8138  0.6254  2.8500
12766SOL    HW243619  10.276   0.867   8.948  1.1640  1.5423 -0.2576
12767SOL     OW43620   4.926   5.311   8.023 -0.3689 -0.2953  0.0497
12767SOL    HW143621   4.900   5.305   8.115  0.9245 -0.6376  0.4077
12767SOL    HW243622   4.929   5.405   8.004 -0.6724 -0.2264  0.3442
12768SOL     OW43623   4.338   8.550   5.176  0.1248 -0.6842  0.5126
12768SOL    HW143624   4.257   8.531   5.224  0.4229 -1.8040  0.6133
12768SOL    HW243625   4.403   8.564   5.244  0.2915 -1.1079  0.4488
12769SOL     OW43626   7.190   8.374   7.804  0.1971 -0.1966  0.1272
12769SOL    HW143627   7.214   8.465   7.817 -0.1775 -0.1485  0.5139
12769SOL    HW243628   7.121   8.375   7.738 -0.4182 -0.1142  0.7554
12770SOL     OW43629   7.258   5.484   2.024 -0.2233  0.9262  0.0991
12770SOL    HW143630   7.243   5.394   1.993 -1.2837  0.6124  1.4441
12770SOL    HW243631   7.215   5.488   2.109  1.0613  2.2940  0.7302
12771SOL     OW43632   0.279   5.764  10.899 -0.4983 -0.3337  0.2109
12771SOL    HW143633   0.196   5.796  10.866 -0.4555 -0.6137 -0.1790
12771SOL    HW243634   0.323   5.727  10.822  0.1809  0.2225  0.3229
12772SOL     OW43635   7.228   3.721   3.714 -0.4308  0.0610  0.5005
12772SOL    HW143636   7.151   3.678   3.751  0.0870 -0.4343  1.0375
12772SOL    HW243637   7.210   3.815   3.724 -0.7938 -0.0542  0.9781
12773SOL     OW43638   7.345  11.681   6.999  0.6857 -0.1131 -0.5926
12773SOL    HW143639   7.253  11.656   7.005  0.3886  0.7641 -1.4279
12773SOL    HW243640   7.345  11.776   6.998  1.5885 -0.1036 -0.8923
12774SOL     OW43641  11.248   6.238   6.176 -0.3308  0.4896 -0.2040
12774SOL    HW143642  11.158   6.243   6.142 -0.2554  1.9583 -0.2488
12774SOL    HW243643  11.303   6.258   6.100  0.1564 -1.9289 -0.5678
12775SOL     OW43644   1.223   0.168   2.664 -0.3505  0.4054  0.3471
12775SOL    HW143645   1.293   0.117   2.705 -1.3853 -1.2003  0.2265
12775SOL    HW243646   1.213   0.129   2.577 -2.0229 -0.0841  0.7090
12776SOL     OW43647   5.964   9.871   4.327 -0.3228 -0.2490 -0.1021
12776SOL    HW143648   5.988   9.832   4.411 -0.0521 -1.0978 -0.5549
12776SOL    HW243649   5.935   9.797   4.274 -1.4888  0.4090 -0.4314
12777SOL     OW43650   8.587  11.614   3.486  0.7880  0.3101  0.1603
12777SOL    HW143651   8.567  11.530   3.445 -0.9439  0.1032  1.2868
12777SOL    HW243652   8.502  11.645   3.519  1.9607  0.5766  3.2871
12778SOL     OW43653   8.682  11.567   2.784  0.2671 -0.3569  0.7996
12778SOL    HW143654   8.772  11.599   2.776  0.2586 -0.6589 -0.6791
12778SOL    HW243655   8.645  11.577   2.697 -0.6722 -1.6307  1.0302
12779SOL     OW43656   2.024  10.854   1.642 -0.1888 -0.5199 -0.1609
12779SOL    HW143657   1.950  10.818   1.692  0.2385  0.4967  1.2595
12779SOL    HW243658   2.094  10.790   1.655 -0.9103 -1.7373 -1.9122
12780SOL     OW43659   0.314   3.160   2.651  0.4558 -0.5078 -0.5781
12780SOL    HW143660   0.302   3.247   2.689 -1.7338 -0.9705 -0.0971
12780SOL    HW243661   0.284   3.169   2.561 -1.8351 -1.1997  0.0559
12781SOL     OW43662   7.245  10.802   9.913  0.4047 -0.1766 -0.0575
12781SOL    HW143663   7.272  10.886   9.877  0.0873 -0.5335 -1.1655
12781SOL    HW243664   7.284  10.799  10.000 -1.0194  1.8531  0.7041
12782SOL     OW43665   2.316   2.032   9.446  0.5000  0.1324  0.6577
12782SOL    HW143666   2.295   2.116   9.404  0.5369  0.1710  0.7171
12782SOL    HW243667   2.308   2.050   9.539  2.0057  0.4701  0.7449
12783SOL     OW43668   8.851   2.440  11.289 -0.1420 -0.4894 -0.3827
12783SOL    HW143669   8.761   2.461  11.314  0.2555  3.1471 -1.4740
12783SOL    HW243670   8.897   2.430  11.373 -0.6050  2.7215  0.3633
12784SOL     OW43671   4.775  10.406   9.108  0.5959  0.0449 -0.3994
12784SOL    HW143672   4.729  10.445   9.183  1.3112 -1.6476  1.0073
12784SOL    HW243673   4.861  10.449   9.108 -0.1540  1.6041 -1.6378
12785SOL     OW43674   6.709   1.327  11.564  0.5307  0.2420  0.1359
12785SOL    HW143675   6.735   1.237  11.546 -1.2591 -0.2334 -0.2335
12785SOL    HW243676   6.708   1.333  11.660 -5.1661 -2.1219  0.6109
12786SOL     OW43677   1.834   2.621   2.973  0.1170  0.4871 -0.1882
12786SOL    HW143678   1.774   2.546   2.972 -0.3899  0.8336 -2.5700
12786SOL    HW243679   1.777   2.698   2.973  0.6209  0.8756  0.5680
12787SOL     OW43680   8.235  10.444   5.112 -0.1336 -0.3685  0.5814
12787SOL    HW143681   8.293  10.391   5.167  0.1198  0.4580  1.1258
12787SOL    HW243682   8.294  10.503   5.066 -0.5684  0.9444  1.6450
12788SOL     OW43683   7.919   1.577   3.958 -0.6346 -0.1078  0.0459
12788SOL    HW143684   7.911   1.616   3.871  2.0643 -1.3675 -0.9049
12788SOL    HW243685   7.974   1.499   3.944 -0.4217 -0.5737  2.8182
12789SOL     OW43686   8.225   3.438   2.498 -0.4157 -0.2093 -0.2332
12789SOL    HW143687   8.216   3.429   2.593  0.0895  1.0043 -0.0499
12789SOL    HW243688   8.308   3.484   2.487 -0.7694  0.1950 -1.2362
12790SOL     OW43689   4.183  11.412   9.204 -0.1046 -0.2255  0.2765
12790SOL    HW143690   4.154  11.498   9.173  1.2931 -0.1137 -0.8427
12790SOL    HW243691   4.279  11.415   9.194  0.1670 -1.1655  2.1925
12791SOL     OW43692   7.112   8.228   8.038 -0.0019 -0.3068  0.1857
12791SOL    HW143693   7.097   8.138   8.009  1.8131 -0.7670  0.5571
12791SOL    HW243694   7.144   8.273   7.961  0.5047 -0.3690  0.3567
12792SOL     OW43695   9.997   5.514   6.826 -0.7118  0.1748 -0.2761
12792SOL    HW143696  10.079   5.482   6.789 -0.6711 -1.0808  0.8407
12792SOL    HW243697  10.012   5.607   6.842 -0.0281  0.2807 -1.4482
12793SOL     OW43698   9.440   9.682  10.051  0.1255 -1.1378  0.8087
12793SOL    HW143699   9.378   9.726  10.109  1.0836  0.6327  0.5735
12793SOL    HW243700   9.501   9.639  10.111  1.1116  0.6807  1.1949
12794SOL     OW43701   7.849   0.867  11.314  0.1244  0.5618 -0.1953
12794SOL    HW143702   7.776   0.846  11.256 -1.3421  2.8538  0.6911
12794SOL    HW243703   7.810   0.876  11.400  1.2325  2.8658  0.1386
12795SOL     OW43704  10.047   5.651   0.009 -0.6402 -0.3958  0.0567
12795SOL    HW143705  10.072   5.560  -0.008  0.9114 -0.1495  0.7793
12795SOL    HW243706   9.990   5.647   0.086 -0.2152 -0.7384  0.3612
12796SOL     OW43707   5.935   8.773   4.213  0.0453  0.5771 -0.0101
12796SOL    HW143708   5.883   8.704   4.255  0.8393 -0.9395 -1.4195
12796SOL    HW243709   5.939   8.842   4.279 -1.9984 -0.0997  0.9092
12797SOL     OW43710   1.252  11.612   8.226  0.4645 -0.8318  0.2790
12797SOL    HW143711   1.293  11.573   8.149  1.3916 -0.8957  0.7804
12797SOL    HW243712   1.212  11.538   8.272  0.0358 -0.8137 -0.0658
12798SOL     OW43713   5.864   1.596   7.352  0.0008  0.4688 -0.0344
12798SOL    HW143714   5.863   1.566   7.261  1.0911  1.5535 -0.4315
12798SOL    HW243715   5.932   1.544   7.394  0.6282  1.0734 -0.2704
12799SOL     OW43716   4.726   1.934   4.125 -0.0219 -0.5165  0.2765
12799SOL    HW143717   4.767   1.882   4.194  0.2637 -0.3860  0.2071
12799SOL    HW243718   4.632   1.927   4.141  0.0552 -0.2575  0.8469
12800SOL     OW43719   1.870   6.923   4.306 -0.2982  0.1065  0.0570
12800SOL    HW143720   1.779   6.934   4.332 -0.8695 -1.6432 -1.0713
12800SOL    HW243721   1.890   6.831   4.323  0.4520 -0.1820 -2.0845
12801SOL     OW43722   6.298   9.656   9.181 -0.1440  0.4534  0.0586
12801SOL    HW143723   6.286   9.571   9.138  0.0990  0.3804  0.1325
12801SOL    HW243724   6.228   9.661   9.245  1.1967 -0.7185  1.6864
12802SOL     OW43725  10.358   8.705   6.591 -0.0765  0.5621  0.4343
12802SOL    HW143726  10.314   8.790   6.595  0.8236  1.0128  1.8972
12802SOL    HW243727  10.408   8.707   6.509 -3.5427 -0.4529 -1.9073
12803SOL     OW43728   5.191   3.949   8.088  0.2025 -0.2945  0.6711
12803SOL    HW143729   5.156   4.037   8.094  0.9578  0.2710 -2.0602
12803SOL    HW243730   5.273   3.958   8.039  0.6771 -2.4155  0.9482
12804SOL     OW43731   2.015  10.077   1.947 -0.1975 -0.1362  0.2381
12804SOL    HW143732   1.937  10.023   1.957 -0.4394  0.2102  0.2486
12804SOL    HW243733   2.085  10.015   1.928 -0.2149 -0.5728  1.5337
12805SOL     OW43734  10.520   3.440  11.139  0.3498  0.1752  0.1708
12805SOL    HW143735  10.443   3.421  11.084 -0.4812  0.7603  1.0906
12805SOL    HW243736  10.588   3.381  11.106 -0.1309  0.4789 -1.4461
12806SOL     OW43737   5.295   9.320   9.780  0.1636 -0.0602  0.0470
12806SOL    HW143738   5.228   9.258   9.808 -1.0969  0.5879 -1.3518
12806SOL    HW243739   5.266   9.404   9.817  0.5980  0.0971  0.0337
12807SOL     OW43740   7.024   1.719   0.207  0.2909  0.0146  0.5617
12807SOL    HW143741   6.986   1.673   0.282  0.0440 -0.4443  0.1579
12807SOL    HW243742   7.109   1.751   0.239  0.5287 -0.8448  0.8075
12808SOL     OW43743   7.525   3.964  11.199  0.8261 -0.1869 -0.1686
12808SOL    HW143744   7.535   4.050  11.160  2.9132 -0.1257  0.3586
12808SOL    HW243745   7.438   3.965  11.239  0.2319  1.1255 -1.4157
12809SOL     OW43746   8.425  10.385   8.744 -0.1780  0.3470  0.4737
12809SOL    HW143747   8.455  10.299   8.772 -1.4052  0.0191  0.8582
12809SOL    HW243748   8.505  10.433   8.723  0.4752 -1.6359 -2.0987
12810SOL     OW43749   1.210  11.416   5.054  0.3358 -0.1919 -0.8053
12810SOL    HW143750   1.190  11.327   5.084 -0.0107  0.2731  0.3837
12810SOL    HW243751   1.126  11.462   5.056  1.0051  1.1544  2.1196
12811SOL     OW43752   2.086   5.816   7.866 -0.2830 -0.2984 -0.1176
12811SOL    HW143753   2.094   5.866   7.785  1.2091  1.7826  1.2544
12811SOL    HW243754   2.165   5.763   7.870  1.0168  1.6437  1.2467
12812SOL     OW43755   6.251   8.330   8.925 -0.2753  0.5353 -0.3677
12812SOL    HW143756   6.284   8.321   9.014  1.5685 -0.2943 -1.0833
12812SOL    HW243757   6.173   8.274   8.923  1.2629 -1.7777  0.0045
12813SOL     OW43758   9.170   7.365   1.400  0.1070 -0.0744 -0.0025
12813SOL    HW143759   9.095   7.324   1.444  0.7372 -0.9623  0.2607
12813SOL    HW243760   9.140   7.379   1.310 -0.5032 -0.0690  0.1986
12814SOL     OW43761   2.840   7.366   2.343  0.2413  0.2415  0.4074
12814SOL    HW143762   2.886   7.335   2.421 -1.7529  0.6041  1.8125
12814SOL    HW243763   2.852   7.460   2.343 -0.6735  0.3643  0.9153
12815SOL     OW43764   3.080  10.996   7.884 -0.0254  0.0496  0.1669
12815SOL    HW143765   3.129  11.058   7.831  0.9646 -0.6463  0.2447
12815SOL    HW243766   3.071  10.919   7.829  0.2082 -0.3443  0.6704
12816SOL     OW43767   9.465   8.693   7.411  0.0202  0.0087  0.1559
12816SOL    HW143768   9.407   8.621   7.390 -0.8368  0.3192  1.3628
12816SOL    HW243769   9.483   8.684   7.505  0.2316  1.1147  0.2448
12817SOL     OW43770   2.635  11.153   5.749 -0.2186  0.5189 -0.4105
12817SOL    HW143771   2.679  11.094   5.688 -1.1933 -2.9474  1.9596
12817SOL    HW243772   2.673  11.239   5.730  2.5849 -1.0694 -2.9491
12818SOL     OW43773   9.229   7.563   0.878  0.2767  0.4262  0.3725
12818SOL    HW143774   9.174   7.534   0.805  0.2817 -0.4700  0.7106
12818SOL    HW243775   9.316   7.527   0.859  0.5551  1.1402  0.2582
12819SOL     OW43776   8.528  11.294   1.576  0.1320 -0.1422  0.5350
12819SOL    HW143777   8.503  11.278   1.485 -1.2085 -0.9045  1.0086
12819SOL    HW243778   8.580  11.374   1.573 -0.3687  0.1529 -0.8260
12820SOL     OW43779   4.029   5.113   6.041 -0.2741  0.1812  0.2169
12820SOL    HW143780   3.970   5.162   6.098 -0.9563 -0.1077 -0.2330
12820SOL    HW243781   3.988   5.028   6.031 -0.3676  0.3501 -1.0142
12821SOL     OW43782  11.055   5.804   6.815 -0.2239 -0.4812 -0.0685
12821SOL    HW143783  10.997   5.879   6.804 -0.2991 -0.7444 -1.6253
12821SOL    HW243784  11.138   5.841   6.846 -0.3884  0.2015 -0.4391
12822SOL     OW43785   3.448  10.212   1.175  0.1120  0.2070 -0.0643
12822SOL    HW143786   3.372  10.178   1.129  0.5849 -0.1562 -0.5973
12822SOL    HW243787   3.416  10.232   1.263 -0.1913 -1.7728  0.3408
12823SOL     OW43788   6.753   2.358   5.870  0.2587 -0.6054 -0.1018
12823SOL    HW143789   6.670   2.311   5.881 -0.6151  0.0774 -2.9436
12823SOL    HW243790   6.804   2.304   5.810  1.8124 -0.8737  1.3972
12824SOL     OW43791   8.847   6.422   1.985  0.4504 -0.1037  0.4208
12824SOL    HW143792   8.806   6.354   1.931  1.6457 -0.6687  0.1772
12824SOL    HW243793   8.934   6.387   2.004  0.3860  0.4992  1.9547
12825SOL     OW43794   4.948   6.863   3.897  0.2331  0.6176 -0.1195
12825SOL    HW143795   4.888   6.853   3.823 -1.4643  0.7026  1.1759
12825SOL    HW243796   5.020   6.915   3.862 -1.1031  1.7006 -1.4117
12826SOL     OW43797   6.207   3.758   8.012 -0.5964 -0.3992  0.7196
12826SOL    HW143798   6.115   3.780   7.995 -0.4444 -0.1364  0.2027
12826SOL    HW243799   6.203   3.675   8.060 -1.0670 -1.4479 -1.0014
12827SOL     OW43800   2.781   4.404  11.054  0.3267  0.3964 -0.1800
12827SOL    HW143801   2.839   4.480  11.065  1.6159 -0.5784 -0.0350
12827SOL    HW243802   2.725   4.406  11.131  0.4638  1.1076 -0.0884
12828SOL     OW43803  10.305   7.521   4.846 -0.3151 -0.0784 -0.3384
12828SOL    HW143804  10.255   7.532   4.927 -0.7541 -2.2108 -0.2535
12828SOL    HW243805  10.239   7.509   4.778  0.0680 -0.1813 -0.6956
12829SOL     OW43806   1.630   5.815   3.920  0.5096 -0.0885 -0.6101
12829SOL    HW143807   1.703   5.844   3.974 -0.0134  0.2555 -0.0738
12829SOL    HW243808   1.582   5.895   3.899 -0.9459 -0.5045  0.8696
12830SOL     OW43809   2.545   4.591   4.738 -0.0356 -0.6146 -0.1221
12830SOL    HW143810   2.612   4.522   4.742  0.8107  0.1356 -0.7827
12830SOL    HW243811   2.542   4.616   4.646  1.7027  2.1037  0.4359
12831SOL     OW43812   7.215   9.067   2.030 -0.0009  0.1285 -0.1752
12831SOL    HW143813   7.189   8.997   2.090  0.1213 -1.6027 -2.0391
12831SOL    HW243814   7.277   9.120   2.081  0.4993 -1.5511  1.0713
12832SOL     OW43815   9.818   9.337  10.500  0.0183  0.4558  0.1113
12832SOL    HW143816   9.871   9.354  10.578 -1.2465 -1.1025  1.3713
12832SOL    HW243817   9.743   9.396  10.508 -0.4826 -0.2182  0.4756
12833SOL     OW43818   4.897  10.774   9.260  0.3302  0.2354  0.0897
12833SOL    HW143819   4.879  10.783   9.166  0.1540 -0.0486  0.0940
12833SOL    HW243820   4.990  10.797   9.269 -0.0974  2.1479  0.1334
12834SOL     OW43821   3.709   9.529   4.952  0.2651  0.2251 -0.1551
12834SOL    HW143822   3.701   9.447   4.903  0.9399  0.0324  0.0519
12834SOL    HW243823   3.703   9.598   4.885  0.4603 -0.0139 -0.4212
12835SOL     OW43824   3.703   8.254   5.353 -0.5801  0.3819  0.0033
12835SOL    HW143825   3.617   8.215   5.340 -1.1989  2.0989 -1.6936
12835SOL    HW243826   3.750   8.234   5.272 -0.5915  2.2271 -0.5053
12836SOL     OW43827   9.740   0.255   0.811  0.3161 -0.4470  0.4688
12836SOL    HW143828   9.804   0.323   0.792  0.6529 -0.6678  0.8017
12836SOL    HW243829   9.662   0.303   0.841  0.5237 -0.2047  0.6188
12837SOL     OW43830   4.793   6.167   1.780 -0.3034 -0.0180  0.1547
12837SOL    HW143831   4.773   6.120   1.699  0.7013  0.3043 -0.2966
12837SOL    HW243832   4.804   6.259   1.753  0.5838  0.0091  0.5490
12838SOL     OW43833   0.253  11.156   4.441  0.7230 -0.7297  0.4294
12838SOL    HW143834   0.173  11.200   4.468  0.2904 -2.5093  2.2565
12838SOL    HW243835   0.314  11.228   4.422  0.0337  0.7183  3.1282
12839SOL     OW43836   7.498   9.807   5.372 -0.1014  0.5262 -0.7936
12839SOL    HW143837   7.440   9.747   5.326 -3.0150  1.4155  1.4184
12839SOL    HW243838   7.512   9.767   5.458  1.8242  0.8207 -0.9217
12840SOL     OW43839   3.503   6.697   0.540 -0.1487  0.0981 -0.5159
12840SOL    HW143840   3.522   6.776   0.489  1.3356  0.0661 -0.0587
12840SOL    HW243841   3.526   6.625   0.481  1.2355  0.0597  0.0134
12841SOL     OW43842   8.913   5.592   5.493  0.4150 -0.3377  0.0156
12841SOL    HW143843   8.942   5.638   5.572 -1.5986 -0.2115  0.7606
12841SOL    HW243844   8.859   5.520   5.526 -0.0348 -0.5984 -1.2429
12842SOL     OW43845   7.740   0.675   6.775 -0.6126 -0.6321 -0.4896
12842SOL    HW143846   7.680   0.623   6.829  1.6246 -0.0449  2.8245
12842SOL    HW243847   7.703   0.763   6.778 -0.0918 -0.4366  0.8432
12843SOL     OW43848   2.601   0.963   4.188 -0.1950 -0.4893 -0.0715
12843SOL    HW143849   2.631   1.037   4.242 -1.1441 -1.6449  2.1821
12843SOL    HW243850   2.660   0.891   4.212 -1.7656 -1.5128  0.8921
12844SOL     OW43851   2.931  10.957   3.441 -0.1161  0.0313  0.4557
12844SOL    HW143852   3.012  10.984   3.484 -0.1460  3.1679 -1.1436
12844SOL    HW243853   2.958  10.892   3.377  1.5471  2.1064 -1.1281
12845SOL     OW43854   3.566   0.537  10.960  0.3784  0.0588  0.2476
12845SOL    HW143855   3.604   0.502  11.040  0.2734  2.0118  1.2291
12845SOL    HW243856   3.510   0.468  10.927  0.0797 -0.6500  2.1182
12846SOL     OW43857   7.284   7.006   4.649  0.5942  0.2484 -0.4810
12846SOL    HW143858   7.262   6.938   4.713 -1.1959  1.7669  0.6207
12846SOL    HW243859   7.308   7.082   4.702 -3.8689  2.5334 -1.2863
12847SOL     OW43860   3.228   4.686   1.472  0.0520  0.9328  0.6603
12847SOL    HW143861   3.268   4.660   1.555  0.2000 -0.0868  0.2814
12847SOL    HW243862   3.221   4.782   1.478  1.2423  0.9993  1.3083
12848SOL     OW43863   0.863  11.600   0.801 -0.6107 -0.2646 -0.0283
12848SOL    HW143864   0.884  11.682   0.845 -2.1962  2.1298 -3.3625
12848SOL    HW243865   0.802  11.556   0.860  2.0701 -0.3846  2.9367
12849SOL     OW43866   0.698   4.242   1.570 -0.2898 -0.0430 -0.1701
12849SOL    HW143867   0.788   4.275   1.572 -0.0679 -0.4229 -1.7915
12849SOL    HW243868   0.650   4.306   1.518 -0.7611 -0.2608 -0.0069
12850SOL     OW43869   6.721   2.700   6.348 -0.1321 -0.0613 -0.1748
12850SOL    HW143870   6.686   2.780   6.388  0.5115 -1.2105  2.9518
12850SOL    HW243871   6.733   2.639   6.421 -2.1234 -3.6956 -2.5742
12851SOL     OW43872   3.676   4.870  10.526 -0.3415 -0.3187 -0.3539
12851SOL    HW143873   3.658   4.959  10.495 -2.7158 -0.4298  0.4847
12851SOL    HW243874   3.761   4.877  10.570 -0.9240  1.7896  0.5925
12852SOL     OW43875   8.342   6.404   2.076 -0.7427  0.1510 -0.4753
12852SOL    HW143876   8.413   6.465   2.095 -1.0349  0.8619 -1.5333
12852SOL    HW243877   8.262   6.454   2.095 -0.9782 -0.1508 -0.6497
12853SOL     OW43878  11.514   3.390   7.631  0.9230 -0.0088 -0.5341
12853SOL    HW143879  11.435   3.414   7.679  0.8732 -0.1185 -0.5591
12853SOL    HW243880  11.499   3.422   7.542  1.0851  0.3391 -0.4358
12854SOL     OW43881   5.878   2.764   5.816 -0.5593 -0.0224 -0.0855
12854SOL    HW143882   5.909   2.750   5.727  0.3788  1.4093 -0.0246
12854SOL    HW243883   5.953   2.741   5.872 -0.5284  0.7461  0.2135
12855SOL     OW43884   0.098   6.072   3.168 -0.4044  0.2871 -1.0035
12855SOL    HW143885   0.074   6.017   3.093 -0.2499 -0.3525 -0.5933
12855SOL    HW243886   0.036   6.048   3.237  0.2104 -0.0115 -0.5443
12856SOL     OW43887   1.342   6.624   5.586 -0.2437  0.9635 -0.1381
12856SOL    HW143888   1.431   6.654   5.602 -0.0781  1.2231 -1.4263
12856SOL    HW243889   1.350   6.530   5.573 -0.6761  0.3183  3.2431
12857SOL     OW43890   6.230   5.496   0.160  0.0903 -0.4157  0.3683
12857SOL    HW143891   6.323   5.478   0.144  0.4734 -0.4961  2.3720
12857SOL    HW243892   6.187   5.475   0.077  1.6033 -2.3045 -0.0215
12858SOL     OW43893   5.853   5.374   6.315  0.2974 -0.2298 -0.0153
12858SOL    HW143894   5.791   5.435   6.356 -0.3894 -1.0019  0.1211
12858SOL    HW243895   5.903   5.428   6.253 -1.9728  0.0190 -1.7476
12859SOL     OW43896   0.037   8.920   5.803  0.6273 -0.3714  0.1646
12859SOL    HW143897   0.008   8.882   5.720  3.4554  1.5204 -1.8677
12859SOL    HW243898   0.130   8.899   5.809  1.0388  1.5483  1.6253
12860SOL     OW43899   9.647   3.357   0.856 -0.0060 -0.6327 -0.1351
12860SOL    HW143900   9.556   3.335   0.836  0.1050  0.2009 -1.7055
12860SOL    HW243901   9.676   3.409   0.781  2.3858 -2.5392 -0.6535
12861SOL     OW43902   6.013   7.777   5.426  0.1412  0.1538  0.4566
12861SOL    HW143903   5.948   7.822   5.481  0.8279 -0.6792  1.9762
12861SOL    HW243904   6.093   7.827   5.438 -0.0304  0.8427 -0.9838
12862SOL     OW43905   5.828   3.803   4.915  0.1962  0.1883 -0.1202
12862SOL    HW143906   5.842   3.811   4.821 -0.2532 -1.7260 -0.3900
12862SOL    HW243907   5.757   3.740   4.924  1.7075 -1.4274  1.5263
12863SOL     OW43908   7.624   0.120   9.219 -0.0425  0.0945 -0.0998
12863SOL    HW143909   7.606   0.080   9.304 -1.0947 -1.1689 -0.8658
12863SOL    HW243910   7.712   0.155   9.226  0.6833 -1.8148  0.8619
12864SOL     OW43911   9.873   5.195   4.699  0.0960  0.3452  0.6380
12864SOL    HW143912   9.883   5.287   4.722  2.0952  0.5504 -0.8009
12864SOL    HW243913   9.900   5.190   4.607  0.4679 -1.7359  0.8116
12865SOL     OW43914   3.782   3.275   4.414  0.4474 -0.2095 -0.8722
12865SOL    HW143915   3.798   3.221   4.491  0.8005 -0.2905 -1.0019
12865SOL    HW243916   3.736   3.217   4.353  0.5379 -0.2670 -0.8853
12866SOL     OW43917   5.688   7.995   2.659 -0.4487  0.1961 -0.1777
12866SOL    HW143918   5.596   8.016   2.644 -1.0365 -1.1702  1.1976
12866SOL    HW243919   5.696   7.903   2.631 -0.0595 -0.3739  1.7021
12867SOL     OW43920   5.025  10.432   0.023  0.0437 -0.2617  0.3635
12867SOL    HW143921   4.999  10.503  -0.037 -0.7569 -0.8579 -0.0200
12867SOL    HW243922   5.079  10.374  -0.030 -0.8654 -0.9175  0.1364
12868SOL     OW43923   8.594   1.598   2.751  0.2090  0.2158  0.8883
12868SOL    HW143924   8.615   1.505   2.763  1.4916  0.5921  1.6903
12868SOL    HW243925   8.589   1.632   2.840  2.1091  1.4153  0.5829
12869SOL     OW43926   0.110   5.006   6.227  0.2478  0.0274 -0.5190
12869SOL    HW143927   0.127   5.084   6.280  0.1530  0.7755 -1.5593
12869SOL    HW243928   0.178   5.008   6.159 -0.1314 -0.4530 -0.9232
12870SOL     OW43929   9.051   4.811   4.721  0.1325  0.3498  0.0075
12870SOL    HW143930   9.083   4.776   4.805 -1.3686  1.1902  0.9719
12870SOL    HW243931   9.044   4.734   4.664  2.0371 -0.1115  0.3243
12871SOL     OW43932   5.183   0.206   6.517 -0.3476 -0.6396 -0.4475
12871SOL    HW143933   5.268   0.161   6.520 -0.2331 -0.5640 -2.0422
12871SOL    HW243934   5.140   0.179   6.598  1.8144  0.6161  1.2634
12872SOL     OW43935   8.390   6.060   8.853  0.8968 -0.1734  0.4159
12872SOL    HW143936   8.343   5.991   8.805 -0.6419  0.8719  0.3453
12872SOL    HW243937   8.444   6.102   8.786  3.4482 -2.5240  0.8374
12873SOL     OW43938   0.391   3.058   1.566  0.5396  0.7735 -0.6313
12873SOL    HW143939   0.361   2.996   1.633  2.5307 -0.4838 -0.8308
12873SOL    HW243940   0.383   3.144   1.607 -2.0221  0.4457 -0.2403
12874SOL     OW43941   6.696   2.571   4.020  0.9286  0.4014  0.2886
12874SOL    HW143942   6.668   2.486   4.055  1.8613 -0.2005 -0.3896
12874SOL    HW243943   6.628   2.593   3.956  1.3258 -0.4504 -0.4467
12875SOL     OW43944   3.496   3.400   2.343  0.5665  0.3956  0.5491
12875SOL    HW143945   3.484   3.349   2.263 -0.8251  0.8540  0.4412
12875SOL    HW243946   3.410   3.399   2.386  1.2278  0.3147  1.9587
12876SOL     OW43947  11.783   6.398   6.980 -0.1153 -0.1128  0.0148
12876SOL    HW143948  11.733   6.379   6.900 -1.0620 -1.2779  0.8471
12876SOL    HW243949  11.874   6.390   6.953 -0.3926 -3.3021 -0.4209
12877SOL     OW43950   1.845  11.522   5.061 -0.5109  0.1068  0.3508
12877SOL    HW143951   1.834  11.589   5.128 -2.5296 -0.4962  0.6985
12877SOL    HW243952   1.822  11.567   4.979  1.3246  0.6684  0.1007
12878SOL     OW43953   9.451   4.217   7.021 -0.1065  0.3640 -0.1706
12878SOL    HW143954   9.360   4.203   6.994  0.0041  1.5094 -1.2369
12878SOL    HW243955   9.494   4.250   6.942  1.4019 -0.7537  0.1257
12879SOL     OW43956   7.571   8.125   4.655 -0.1316 -0.0533 -0.4287
12879SOL    HW143957   7.570   8.175   4.574  1.0193  0.0949 -0.3784
12879SOL    HW243958   7.643   8.164   4.705  1.5523 -2.4392 -0.8408
12880SOL     OW43959   6.519  10.733   6.628  0.5617  0.2811 -0.2743
12880SOL    HW143960   6.479  10.820   6.621 -0.1514  0.0121  0.3606
12880SOL    HW243961   6.455  10.675   6.587 -0.3816 -0.3477  1.9949
12881SOL     OW43962  11.637   6.613  10.655 -0.1546 -0.0212 -0.0256
12881SOL    HW143963  11.550   6.578  10.671 -0.0677 -0.0010  0.5214
12881SOL    HW243964  11.644   6.620  10.560 -1.1343  0.9608 -0.0432
12882SOL     OW43965   4.902   4.055   7.233  0.3088 -0.2917  0.0881
12882SOL    HW143966   4.824   4.100   7.199 -0.0950 -0.2649  1.0324
12882SOL    HW243967   4.870   3.968   7.257 -0.0033  0.4871  2.7284
12883SOL     OW43968   5.451   1.522   0.142  0.0110  0.3497 -0.2363
12883SOL    HW143969   5.535   1.484   0.116  1.7228  3.4693  0.2389
12883SOL    HW243970   5.461   1.541   0.235 -1.0834  1.1022 -0.2529
12884SOL     OW43971   9.647   0.181   1.204 -0.6680  0.0821 -0.0319
12884SOL    HW143972   9.643   0.096   1.247  0.5060 -1.1891 -2.2789
12884SOL    HW243973   9.738   0.191   1.177 -1.3380  0.7431 -2.2616
12885SOL     OW43974  11.793   6.908   7.462  0.2008  0.5566  0.3299
12885SOL    HW143975  11.813   6.822   7.426  0.3541  0.3008  1.0123
12885SOL    HW243976  11.854   6.919   7.535  1.3901  1.9916 -0.8247
12886SOL     OW43977   7.663   1.067   2.226  0.0542  0.2550 -0.3830
12886SOL    HW143978   7.610   1.116   2.289 -0.3907  0.4983 -0.9419
12886SOL    HW243979   7.669   0.979   2.263 -2.6434 -0.4457 -1.3744
12887SOL     OW43980   0.849   0.223   5.822  0.2747 -0.1082  0.4618
12887SOL    HW143981   0.842   0.313   5.852 -2.5259 -0.3893  0.9134
12887SOL    HW243982   0.902   0.180   5.889  0.3172  0.8651  1.0782
12888SOL     OW43983   0.309   7.212   5.154  0.2915 -0.2586 -0.4167
12888SOL    HW143984   0.237   7.159   5.119  1.9702 -2.1862 -1.1645
12888SOL    HW243985   0.378   7.207   5.087  2.1742 -0.8573  1.4600
12889SOL     OW43986  11.780   9.637   2.775  0.2434  0.2295 -0.1976
12889SOL    HW143987  11.794   9.545   2.796 -1.7858 -0.2885 -0.9267
12889SOL    HW243988  11.700   9.661   2.821  0.6140  1.5690 -0.2080
12890SOL     OW43989  10.109   8.216  11.100  0.1561 -0.0037  0.1318
12890SOL    HW143990  10.160   8.144  11.138  0.0972 -0.2498 -0.2501
12890SOL    HW243991  10.147   8.295  11.139  0.8085 -0.1843 -0.1175
12891SOL     OW43992   2.658  10.813   1.825  0.3233 -0.3982  0.2421
12891SOL    HW143993   2.662  10.876   1.753 -0.2301 -0.9468 -0.2837
12891SOL    HW243994   2.648  10.866   1.903  0.7794  0.2046 -0.1016
12892SOL     OW43995  10.177   6.340   6.208  0.3059  0.1961 -0.3108
12892SOL    HW143996  10.211   6.281   6.275 -0.5459 -0.5589 -0.5034
12892SOL    HW243997  10.126   6.282   6.150 -0.3687  1.0900 -0.6374
12893SOL     OW43998   2.912   3.368   8.655 -0.4667  0.3606 -0.5886
12893SOL    HW143999   2.934   3.324   8.738 -0.7881  0.5606 -0.3946
12893SOL    HW244000   2.825   3.404   8.670 -0.6326  0.1805 -1.1055
12894SOL     OW44001   9.528   5.860   5.787 -0.0660  0.6296 -0.1957
12894SOL    HW144002   9.445   5.906   5.769 -0.4779 -0.1930 -0.4516
12894SOL    HW244003   9.503   5.786   5.841  0.3530 -0.1833 -1.0868
12895SOL     OW44004   9.497   2.443   5.871 -0.3430  0.0556 -0.1660
12895SOL    HW144005   9.501   2.498   5.950 -2.8590  0.2794 -0.1215
12895SOL    HW244006   9.519   2.355   5.902 -0.0780  0.3596  0.5331
12896SOL     OW44007   5.562  11.796   4.860  0.0342 -0.1181 -0.1411
12896SOL    HW144008   5.598  11.726   4.805  1.1608 -2.5138  3.3514
12896SOL    HW244009   5.468  11.787   4.850  0.1783 -1.5278 -0.5338
12897SOL     OW44010   5.554   0.483   8.082  0.0354  0.3178  0.2002
12897SOL    HW144011   5.484   0.441   8.132 -1.7042  0.9965 -1.5395
12897SOL    HW244012   5.578   0.418   8.016 -0.0800  0.6731 -0.1925
12898SOL     OW44013  10.531   1.906   5.981 -0.4948  0.0013  0.5180
12898SOL    HW144014  10.579   1.983   5.952  0.8949 -0.3884  1.6989
12898SOL    HW244015  10.448   1.941   6.015 -0.5325  0.8009 -0.3554
12899SOL     OW44016   7.949  10.689  10.838 -0.6446 -0.5057 -0.1374
12899SOL    HW144017   7.941  10.735  10.754 -2.0477  2.2136  1.3395
12899SOL    HW244018   8.016  10.739  10.886 -0.3370 -1.6172  0.6184
12900SOL     OW44019   7.086  10.650   4.870  0.9642  0.2825 -0.0551
12900SOL    HW144020   7.102  10.713   4.940 -0.0614 -0.6018  1.0225
12900SOL    HW244021   7.021  10.590   4.906 -0.8860  0.7664 -2.3578
12901SOL     OW44022   5.161   6.553   5.720  0.4240  0.2605 -0.1508
12901SOL    HW144023   5.226   6.493   5.755  0.2952  0.2948  0.1500
12901SOL    HW244024   5.178   6.555   5.626 -0.9722 -1.9819 -0.5202
12902SOL     OW44025   0.845  10.659   9.856 -0.1536  0.1104 -0.0298
12902SOL    HW144026   0.864  10.734   9.800  0.5860 -0.2946 -0.3382
12902SOL    HW244027   0.779  10.610   9.808  1.4393 -0.9520 -1.2509
12903SOL     OW44028  10.195   2.759  10.297 -0.3528 -0.1856  0.4282
12903SOL    HW144029  10.258   2.831  10.296  0.4606 -0.8520 -1.4882
12903SOL    HW244030  10.123   2.790  10.352  1.1268  1.0503  1.7459
12904SOL     OW44031   6.014   5.514   4.231  0.1126 -0.6169  0.0671
12904SOL    HW144032   6.067   5.570   4.173 -0.6994  0.3834  0.2599
12904SOL    HW244033   6.027   5.426   4.198  0.0237 -0.1131 -1.3641
12905SOL     OW44034   9.040  11.439   0.787 -0.0679  0.1758 -0.2053
12905SOL    HW144035   9.086  11.521   0.806  1.0931 -0.0726 -1.7369
12905SOL    HW244036   9.038  11.392   0.871 -0.4078  1.5733  0.6003
12906SOL     OW44037   3.092   2.107   2.489  0.1567 -0.2366 -0.2770
12906SOL    HW144038   3.123   2.106   2.580  1.7670 -0.0506 -0.7794
12906SOL    HW244039   3.152   2.047   2.443  0.8658  1.4122 -1.6257
12907SOL     OW44040   1.386   1.009   5.161 -0.2836  0.0006  0.1351
12907SOL    HW144041   1.382   0.917   5.135  1.2391  0.0374 -0.3184
12907SOL    HW244042   1.473   1.038   5.132 -0.2160  1.2136  1.4797
12908SOL     OW44043   2.334   7.986   9.816 -0.5075  0.0331  0.1258
12908SOL    HW144044   2.301   7.980   9.906  1.4822  1.1760  0.9986
12908SOL    HW244045   2.414   8.038   9.824 -0.6385  0.7331 -2.4189
12909SOL     OW44046   1.723   1.789   4.872  0.5372  0.1493  0.2214
12909SOL    HW144047   1.803   1.806   4.823  0.0140 -1.0668 -1.1174
12909SOL    HW244048   1.678   1.721   4.823 -0.3561 -0.6628  2.0509
12910SOL     OW44049   5.422  11.431   7.812 -0.1679 -0.1296  0.1213
12910SOL    HW144050   5.417  11.526   7.822 -0.5042 -0.2600  1.3874
12910SOL    HW244051   5.435  11.418   7.718  0.2067  1.1746 -0.0384
12911SOL     OW44052   6.655   6.662   2.396 -0.0280 -0.1127 -0.1727
12911SOL    HW144053   6.669   6.582   2.344  0.9670  0.6632 -1.1387
12911SOL    HW244054   6.563   6.684   2.381 -0.1045 -0.6356 -0.5302
12912SOL     OW44055   3.725   3.557   6.882  1.0589  0.4732 -0.3215
12912SOL    HW144056   3.811   3.514   6.890  0.5714 -0.4864  0.0178
12912SOL    HW244057   3.705   3.554   6.789  1.3716  0.6626 -0.3969
12913SOL     OW44058   2.829   1.514   8.210  0.5666  0.1527  0.7784
12913SOL    HW144059   2.916   1.520   8.249  1.1889  0.4798 -0.5944
12913SOL    HW244060   2.797   1.604   8.209 -0.5157 -0.1449  2.7615
12914SOL     OW44061   8.301  11.240   7.074 -0.2420  0.2192  0.7932
12914SOL    HW144062   8.219  11.191   7.077  0.0369 -0.2262  1.3077
12914SOL    HW244063   8.359  11.195   7.136  0.6921 -0.0211 -0.2161
12915SOL     OW44064   3.550   1.078  11.328 -0.0542 -0.5331  0.6286
12915SOL    HW144065   3.611   1.103  11.397  0.1213  2.3109 -0.4192
12915SOL    HW244066   3.595   1.102  11.246 -1.5608 -0.6850 -0.2864
12916SOL     OW44067  11.046   6.005   3.217  0.7467  0.2712 -0.4114
12916SOL    HW144068  11.013   5.933   3.164  4.1720  0.1942 -2.7279
12916SOL    HW244069  11.041   5.972   3.307  0.1613 -1.9872 -1.1932
12917SOL     OW44070   3.405   1.942   2.978 -0.4117 -0.6156 -0.8126
12917SOL    HW144071   3.475   2.004   2.957 -0.0376 -1.6549 -2.9481
12917SOL    HW244072   3.379   1.905   2.894 -0.9981 -2.9556  0.2937
12918SOL     OW44073   7.493   5.773   3.693 -0.3460  0.6091 -0.3931
12918SOL    HW144074   7.448   5.694   3.723 -0.5550  0.2655 -1.5418
12918SOL    HW244075   7.561   5.740   3.634 -0.1565  1.2619 -0.5483
12919SOL     OW44076   4.486   2.991   2.624 -0.1716  0.2311 -0.1575
12919SOL    HW144077   4.491   2.945   2.540  0.3746  1.4142 -0.7931
12919SOL    HW244078   4.577   2.999   2.653 -0.3710 -0.3691  0.6707
12920SOL     OW44079   2.101   5.775   9.533 -0.0385  0.1063  0.3327
12920SOL    HW144080   2.139   5.693   9.567  0.5006  1.0209  2.0764
12920SOL    HW244081   2.009   5.770   9.556 -0.4715 -0.8954 -1.4388
12921SOL     OW44082   0.185   7.888  10.584 -0.4625  0.4811  0.7355
12921SOL    HW144083   0.132   7.850  10.654 -1.5446 -0.8031 -0.7298
12921SOL    HW244084   0.274   7.858  10.603 -0.8519 -0.4193  1.2113
12922SOL     OW44085  11.108  11.063   7.986 -0.2054  0.3833  0.5212
12922SOL    HW144086  11.016  11.049   7.963 -0.3456 -0.8666  1.7296
12922SOL    HW244087  11.152  10.982   7.961  1.0676  1.7181 -2.0726
12923SOL     OW44088   9.047   9.430  10.003 -0.4516 -0.0883 -0.3978
12923SOL    HW144089   8.962   9.457  10.039 -0.0443  0.2568  0.3436
12923SOL    HW244090   9.086   9.511   9.971 -0.4243 -0.2549 -0.7872
12924SOL     OW44091  10.824   3.558   0.797 -0.1657 -0.4695  0.3354
12924SOL    HW144092  10.786   3.470   0.792  0.4528 -0.9427  2.6696
12924SOL    HW244093  10.897   3.557   0.736 -0.2944 -1.5335  0.1889
12925SOL     OW44094   9.192   1.055   5.647 -0.0807  0.0627 -0.1550
12925SOL    HW144095   9.143   1.083   5.570 -1.0856  3.3271  1.4769
12925SOL    HW244096   9.284   1.060   5.621 -0.4321 -0.3804 -1.5348
12926SOL     OW44097   3.765   7.033   2.728  0.0041 -0.3842  0.2409
12926SOL    HW144098   3.708   7.030   2.805 -0.0310  0.7256  0.2849
12926SOL    HW244099   3.747   6.952   2.681 -2.1939  0.2336 -0.1382
12927SOL     OW44100   9.295   1.488   0.209 -0.1349 -0.2942 -0.6563
12927SOL    HW144101   9.236   1.452   0.143 -0.9129  0.0917 -0.1837
12927SOL    HW244102   9.270   1.579   0.218 -0.2172 -0.3992  0.3464
12928SOL     OW44103   4.159   2.703   8.534 -0.1459  0.0735  0.9832
12928SOL    HW144104   4.150   2.701   8.438  1.6304  0.3371  0.7701
12928SOL    HW244105   4.165   2.796   8.556  1.5318 -0.0218  1.0735
12929SOL     OW44106   1.325   4.146   9.244  0.4557  0.7110  0.2607
12929SOL    HW144107   1.329   4.141   9.149  1.2860 -0.3789  0.3321
12929SOL    HW244108   1.311   4.238   9.263  0.6259  0.9904 -0.9036
12930SOL     OW44109   1.764   9.174   7.369  0.4474 -0.3732 -0.4434
12930SOL    HW144110   1.721   9.181   7.284 -1.4465 -0.2763  0.4587
12930SOL    HW244111   1.782   9.081   7.378  0.9062 -0.3489 -1.0623
12931SOL     OW44112   6.141   4.532   7.432 -0.3626  0.4540  0.1415
12931SOL    HW144113   6.212   4.479   7.467 -0.0804 -0.3016 -1.4648
12931SOL    HW244114   6.103   4.576   7.508  0.6804 -0.5070  1.2517
12932SOL     OW44115   9.233   6.730   8.816  1.0309 -0.2804 -0.0147
12932SOL    HW144116   9.168   6.717   8.885  0.8055 -0.4861 -0.2618
12932SOL    HW244117   9.288   6.651   8.819  0.5380 -0.6555 -0.5803
12933SOL     OW44118  10.476   2.697   1.737  0.0477 -0.0503 -0.5520
12933SOL    HW144119  10.530   2.683   1.658 -0.9213 -0.8563 -1.0922
12933SOL    HW244120  10.501   2.626   1.796 -1.6429 -1.5541 -1.5174
12934SOL     OW44121   7.374  11.064  10.816  0.0765  0.0001 -0.0750
12934SOL    HW144122   7.356  10.971  10.802 -0.4500  0.2905 -1.4404
12934SOL    HW244123   7.432  11.065  10.892  1.2922 -1.5481 -0.9087
12935SOL     OW44124   3.738   3.660  11.766 -0.2094  0.2346  0.1103
12935SOL    HW144125   3.731   3.571  11.801  0.2067  0.7189  1.5129
12935SOL    HW244126   3.785   3.708  11.834 -1.8571  1.9230  0.1455
12936SOL     OW44127   2.091   8.922   1.325 -0.4151  0.3156 -0.3190
12936SOL    HW144128   2.049   9.008   1.318  0.7807  1.2979  2.9123
12936SOL    HW244129   2.042   8.876   1.393  1.7568  0.2985  1.3177
12937SOL     OW44130  10.003   2.646   4.166  0.1699 -0.1169 -0.6021
12937SOL    HW144131   9.936   2.614   4.227  0.7242 -1.3388 -0.6161
12937SOL    HW244132  10.056   2.569   4.145  1.2413  0.7127 -1.0395
12938SOL     OW44133   2.999   2.703   2.371  0.5486  0.4509  0.2797
12938SOL    HW144134   2.951   2.772   2.417  1.3599  0.1318  1.6809
12938SOL    HW244135   3.089   2.712   2.402  0.7697 -0.8863  0.0763
12939SOL     OW44136   9.941   6.834  11.488 -0.2021 -0.7951  0.4504
12939SOL    HW144137   9.849   6.840  11.517 -0.0691 -1.9489  1.2020
12939SOL    HW244138   9.944   6.754  11.435  0.1945 -0.2763 -0.3323
12940SOL     OW44139   3.834   8.749  11.168  0.6308 -0.0714  0.3180
12940SOL    HW144140   3.763   8.773  11.108  0.4866 -0.0551  0.4952
12940SOL    HW244141   3.813   8.660  11.195 -1.2548  1.0778  3.1021
12941SOL     OW44142   7.156   5.123   3.853  0.0294  0.1318  0.7910
12941SOL    HW144143   7.068   5.100   3.881 -0.4291 -1.3832 -1.5544
12941SOL    HW244144   7.143   5.190   3.786  0.6864  0.2600  0.7881
12942SOL     OW44145   0.747  10.083  11.373  0.3955 -0.1906 -0.0186
12942SOL    HW144146   0.657  10.066  11.400  0.2855  0.1356 -0.1733
12942SOL    HW244147   0.793  10.103  11.455 -0.6391  4.0600 -0.2355
12943SOL     OW44148   9.574   5.346   4.779  0.7381  0.0083  0.1142
12943SOL    HW144149   9.636   5.333   4.851  1.0697 -0.6872 -0.2929
12943SOL    HW244150   9.591   5.436   4.750 -0.1023  0.6651  1.5509
12944SOL     OW44151   1.309   1.298   9.576  0.0856 -0.0329  0.1525
12944SOL    HW144152   1.231   1.260   9.617 -0.0390  0.8439  0.7444
12944SOL    HW244153   1.282   1.319   9.487 -0.2043 -0.2079  0.1975
12945SOL     OW44154   5.331   3.711  10.515  0.1582 -0.1991  0.3035
12945SOL    HW144155   5.397   3.647  10.489  0.3472  0.5534 -1.1422
12945SOL    HW244156   5.358   3.738  10.603  1.7219  0.0097 -0.2087
12946SOL     OW44157   4.515   1.085  11.292 -0.2454  0.4008  0.0043
12946SOL    HW144158   4.564   1.055  11.215 -0.9642 -1.7330  0.3170
12946SOL    HW244159   4.576   1.073  11.365 -0.0068  1.1972 -0.0590
12947SOL     OW44160   3.904   1.941   4.929  0.1535  0.3022  0.4718
12947SOL    HW144161   3.900   1.984   5.015 -1.8700 -2.4607  1.9477
12947SOL    HW244162   3.814   1.944   4.896  0.3286 -1.1239 -0.2016
12948SOL     OW44163   3.671   1.627   7.092  0.6366  0.6422 -0.7021
12948SOL    HW144164   3.716   1.582   7.021  2.0152 -0.1095  0.5954
12948SOL    HW244165   3.714   1.712   7.098  0.8744  0.5100 -0.4648
12949SOL     OW44166   0.825   7.407   0.732  0.3050  0.2572 -0.3509
12949SOL    HW144167   0.846   7.390   0.640  0.4682 -1.1736 -0.0772
12949SOL    HW244168   0.890   7.356   0.781  2.0179  3.1517  0.6486
12950SOL     OW44169   5.528   9.559   5.007  0.0630  0.8458 -0.3710
12950SOL    HW144170   5.566   9.646   5.017 -0.4567  0.8723  1.8724
12950SOL    HW244171   5.592   9.499   5.047 -0.3418  0.4064 -0.3618
12951SOL     OW44172  10.057   2.780   1.588 -0.0485  0.1628  0.0761
12951SOL    HW144173  10.119   2.849   1.564  0.1364 -0.3277 -0.9577
12951SOL    HW244174  10.042   2.791   1.682  2.5106 -0.4105  0.6156
12952SOL     OW44175   8.186   9.595   4.432 -0.0666 -0.0646  0.1690
12952SOL    HW144176   8.220   9.529   4.371  0.3301  0.9656 -0.7631
12952SOL    HW244177   8.155   9.545   4.507 -1.5578 -1.4864 -1.3146
12953SOL     OW44178   8.464   9.504   5.109 -0.2115  0.5142  0.1809
12953SOL    HW144179   8.506   9.582   5.074 -1.2571  0.8615 -0.3532
12953SOL    HW244180   8.383   9.496   5.059  0.8433 -2.1339 -1.3009
12954SOL     OW44181   6.224   8.821   9.279 -0.4151  0.1712  0.1899
12954SOL    HW144182   6.132   8.834   9.304 -1.0254  1.3433 -2.3134
12954SOL    HW244183   6.225   8.733   9.240 -0.6209  0.3763 -0.2898
12955SOL     OW44184   0.638   7.667   7.586 -0.0848 -0.5636 -0.1242
12955SOL    HW144185   0.698   7.592   7.586  1.2091  0.4403  0.4706
12955SOL    HW244186   0.554   7.630   7.613  0.5829 -1.7700  0.3824
12956SOL     OW44187  11.475   9.281   6.202 -0.4911  0.3740 -0.3170
12956SOL    HW144188  11.435   9.269   6.116 -2.3634  0.7994  0.4284
12956SOL    HW244189  11.425   9.223   6.260  0.2091  0.6649  0.6106
12957SOL     OW44190   4.303   3.664  10.194 -0.1324 -0.2432  0.0313
12957SOL    HW144191   4.209   3.676  10.179 -0.4641 -1.3178  1.1059
12957SOL    HW244192   4.308   3.605  10.269  1.3979 -0.8137 -0.4782
12958SOL     OW44193   1.537   7.931  11.001  0.0536 -0.2026 -0.5511
12958SOL    HW144194   1.523   8.015  10.956  1.6868  0.6490  0.4737
12958SOL    HW244195   1.448   7.900  11.021 -0.6026  0.8590 -1.6821
12959SOL     OW44196   6.043   6.814   1.270  1.3458  0.2206  0.4173
12959SOL    HW144197   6.134   6.820   1.297  1.4714  2.8303 -0.3183
12959SOL    HW244198   5.993   6.847   1.345  1.3131  2.0614 -0.3465
12960SOL     OW44199   4.968   0.483   3.498  0.1189 -0.1941 -0.2960
12960SOL    HW144200   5.030   0.523   3.437 -0.6209 -0.0304 -0.9663
12960SOL    HW244201   5.004   0.397   3.517 -0.2405 -0.7507 -1.9509
12961SOL     OW44202   1.145   4.783   7.598  0.0155 -0.1878  0.3951
12961SOL    HW144203   1.147   4.759   7.505 -0.5449 -0.0602  0.3442
12961SOL    HW244204   1.210   4.853   7.606  0.7511 -0.8519  0.2922
12962SOL     OW44205   8.721   1.411   3.068  0.6797  0.0927 -0.4230
12962SOL    HW144206   8.734   1.335   3.125 -0.9926  1.2954  1.7038
12962SOL    HW244207   8.665   1.378   2.998  0.6790 -0.8385 -0.0096
12963SOL     OW44208   4.311   7.311   6.086  0.0033  0.0634  0.3682
12963SOL    HW144209   4.234   7.340   6.037  0.2040  0.1170  0.0760
12963SOL    HW244210   4.383   7.322   6.024  0.2888  0.2936  0.7346
12964SOL     OW44211   2.097   7.274  10.783  0.3517  0.4536  0.3365
12964SOL    HW144212   2.178   7.261  10.832  1.0727 -1.7654 -1.2614
12964SOL    HW244213   2.123   7.325  10.707  0.5425 -1.1219 -0.7076
12965SOL     OW44214   4.052   4.797   9.316  0.1144  0.0613 -0.8054
12965SOL    HW144215   4.036   4.860   9.386  0.3952  1.7180 -2.1529
12965SOL    HW244216   3.965   4.769   9.287 -0.0764  1.1702 -1.3337
12966SOL     OW44217   3.482   3.845   5.238  0.3580  0.2178  0.0500
12966SOL    HW144218   3.568   3.804   5.247  1.1223  1.5309 -0.8892
12966SOL    HW244219   3.496   3.916   5.174 -1.0080  1.6066  1.2245
12967SOL     OW44220   6.846  10.146   8.963 -0.4362  0.2174 -0.0906
12967SOL    HW144221   6.774  10.168   8.904  0.8607 -1.2520 -2.3620
12967SOL    HW244222   6.922  10.192   8.928  0.5664 -1.3880 -0.1542
12968SOL     OW44223   7.475  10.410   9.147  0.4566  0.1931  0.6891
12968SOL    HW144224   7.402  10.460   9.184 -0.7617 -1.0019 -0.0581
12968SOL    HW244225   7.493  10.342   9.212  0.7491  0.3187  0.7450
12969SOL     OW44226   7.987   3.060   7.357 -0.1513  0.4133  0.0412
12969SOL    HW144227   7.910   3.115   7.347 -0.8163 -0.2526  1.2501
12969SOL    HW244228   8.061   3.120   7.345 -0.8494  1.3426  0.2409
12970SOL     OW44229  10.271   8.612   2.469  0.4823  0.2542 -0.2279
12970SOL    HW144230  10.302   8.636   2.556  2.4390 -0.4795 -0.6714
12970SOL    HW244231  10.347   8.572   2.426 -1.1015 -1.7029 -1.4003
12971SOL     OW44232   0.577   5.719   9.492 -0.3217  0.2041 -0.0885
12971SOL    HW144233   0.489   5.757   9.483 -1.3275 -1.9467 -0.0823
12971SOL    HW244234   0.636   5.790   9.470 -2.0916  1.5225 -0.8762
12972SOL     OW44235   4.642   4.924   4.293 -0.1435  0.0342 -0.7722
12972SOL    HW144236   4.734   4.911   4.318 -0.2744 -0.4536 -0.5498
12972SOL    HW244237   4.612   4.994   4.352 -0.6273 -1.5150  0.9252
12973SOL     OW44238   5.524   3.892   5.086  0.5925 -0.3066  0.1159
12973SOL    HW144239   5.440   3.907   5.042  0.2629 -2.8748 -0.2500
12973SOL    HW244240   5.581   3.962   5.053 -1.0074  0.7321 -0.6006
12974SOL     OW44241   9.152   9.881  11.377  0.3947  0.1230 -0.0995
12974SOL    HW144242   9.198   9.956  11.414 -1.6464  0.7997  1.1927
12974SOL    HW244243   9.202   9.805  11.408  0.9762  0.8446  0.7753
12975SOL     OW44244  11.030   8.539   5.773 -0.0003  0.1471 -0.6093
12975SOL    HW144245  11.043   8.572   5.684  0.4009 -1.1067 -1.0385
12975SOL    HW244246  11.117   8.546   5.814  0.3048 -1.1629 -0.9949
12976SOL     OW44247   9.792   4.795   7.967  0.2411 -0.0154 -0.3525
12976SOL    HW144248   9.831   4.751   8.042 -0.4502  0.9770  0.6230
12976SOL    HW244249   9.772   4.725   7.906 -0.0903 -0.9731  0.8115
12977SOL     OW44250   5.048   0.576   6.734  0.0619 -0.0587  0.1582
12977SOL    HW144251   5.027   0.483   6.722 -0.8981 -0.1877  2.3738
12977SOL    HW244252   5.000   0.620   6.664 -0.5559 -1.1265 -0.1201
12978SOL     OW44253   4.434   8.112   0.632 -0.1694  0.0345  0.7018
12978SOL    HW144254   4.512   8.056   0.637  0.1597  0.4861  0.7242
12978SOL    HW244255   4.384   8.076   0.559 -0.9044 -1.4532  1.8615
12979SOL     OW44256   7.863   0.816   1.559 -0.3914 -0.1734 -0.1811
12979SOL    HW144257   7.813   0.859   1.628 -2.1091 -0.7531 -1.0043
12979SOL    HW244258   7.809   0.741   1.533  0.0732  0.1553 -2.2955
12980SOL     OW44259   3.113   0.498   2.301 -0.6939 -0.2220  0.4681
12980SOL    HW144260   3.186   0.555   2.275 -2.1338  0.4337 -2.5133
12980SOL    HW244261   3.153   0.432   2.357  2.1244  0.3538 -0.7070
12981SOL     OW44262   0.755   9.432   0.519 -0.1534  0.0623 -0.0770
12981SOL    HW144263   0.799   9.402   0.599 -1.1991 -1.1018  0.0796
12981SOL    HW244264   0.662   9.428   0.540 -0.4589 -0.5469 -1.4532
12982SOL     OW44265   8.090   8.911  10.592 -0.0471  0.4734  0.3964
12982SOL    HW144266   8.172   8.960  10.600 -0.7755  1.7162  0.5954
12982SOL    HW244267   8.036   8.965  10.533 -0.2931 -0.9361 -0.7218
12983SOL     OW44268   8.540   3.226   9.568  0.1742  0.4691  0.4249
12983SOL    HW144269   8.552   3.254   9.477 -2.8700  0.9750  0.0632
12983SOL    HW244270   8.611   3.269   9.616  2.0718 -0.1086 -1.7094
12984SOL     OW44271   3.710   5.085   1.226 -0.0457  0.0373  0.2965
12984SOL    HW144272   3.697   5.160   1.168  0.6338 -0.3707 -0.4082
12984SOL    HW244273   3.752   5.019   1.171  0.5706 -0.3876  1.2497
12985SOL     OW44274   9.717   2.734   9.980  0.2120  0.4719  0.1229
12985SOL    HW144275   9.790   2.682  10.011  0.6725  0.6648 -0.6051
12985SOL    HW244276   9.639   2.692  10.018  0.6014 -0.5194 -0.1425
12986SOL     OW44277   6.272   8.901   8.831  0.5085 -0.5744  0.3600
12986SOL    HW144278   6.220   8.835   8.876  0.4070 -1.2465 -0.6996
12986SOL    HW244279   6.207   8.961   8.793  0.5142 -1.1200 -0.5281
12987SOL     OW44280  11.564   5.282   1.567  0.1215 -0.2362  0.1394
12987SOL    HW144281  11.528   5.339   1.636  0.3537  0.3177 -0.1924
12987SOL    HW244282  11.499   5.286   1.497  1.6961  2.3967 -1.3129
12988SOL     OW44283   3.606   5.291  10.725 -0.2882 -0.1794  0.2159
12988SOL    HW144284   3.639   5.202  10.736 -3.0653 -1.5244 -1.3057
12988SOL    HW244285   3.668   5.331  10.663  0.8404 -1.0927  0.7010
12989SOL     OW44286   5.667   3.642   7.707 -0.4754 -0.2605 -0.2025
12989SOL    HW144287   5.705   3.582   7.771 -0.9115 -0.7028 -0.3561
12989SOL    HW244288   5.572   3.632   7.718 -0.6001  1.6445  0.9613
12990SOL     OW44289   8.816   7.394  10.094 -0.0384 -0.0666 -0.2131
12990SOL    HW144290   8.800   7.476  10.141  3.1976 -0.4998  1.9747
12990SOL    HW244291   8.828   7.421  10.003 -0.7919  1.6045  0.1278
12991SOL     OW44292   1.247   8.585  10.626  0.1752 -0.2492  0.2517
12991SOL    HW144293   1.197   8.658  10.663  1.6820 -0.1553  2.2917
12991SOL    HW244294   1.241   8.596  10.532 -1.1322  1.4625  0.4998
12992SOL     OW44295   5.584   3.366   3.787  0.0092 -0.3026 -0.0467
12992SOL    HW144296   5.593   3.393   3.696 -1.6880 -1.6032 -0.6402
12992SOL    HW244297   5.649   3.297   3.799  0.3808  0.0180 -0.1942
12993SOL     OW44298   5.292   5.284  10.711  0.5776  0.3089  0.1772
12993SOL    HW144299   5.382   5.273  10.682  1.0563  1.7370  1.0050
12993SOL    HW244300   5.288   5.375  10.742 -1.0533  0.1640  0.4632
12994SOL     OW44301  10.147   3.269   8.778  0.1325 -0.5074  0.0126
12994SOL    HW144302  10.141   3.351   8.827  1.4292 -0.6248  0.4139
12994SOL    HW244303  10.138   3.294   8.687 -0.1621 -0.0092  0.1770
12995SOL     OW44304   6.587  10.443  11.418 -0.0962 -0.0109 -0.4783
12995SOL    HW144305   6.598  10.376  11.350 -1.0047 -0.1013 -0.5555
12995SOL    HW244306   6.675  10.479  11.431  0.0811  0.0865 -1.7909
12996SOL     OW44307   9.507  10.726   1.104 -0.0021  0.3241 -0.1125
12996SOL    HW144308   9.460  10.802   1.068 -0.3341  0.7885  1.2375
12996SOL    HW244309   9.456  10.651   1.075  0.6371  0.5403 -1.9389
12997SOL     OW44310   9.144   0.285   8.234  0.5778  0.2549 -0.4464
12997SOL    HW144311   9.175   0.307   8.146  1.5447 -0.5680 -0.3283
12997SOL    HW244312   9.132   0.190   8.232  1.1253  0.1587  0.4602
12998SOL     OW44313   5.139   8.297  11.692  0.5015 -0.5136 -0.6269
12998SOL    HW144314   5.091   8.281  11.611  0.3905  1.8424 -1.1020
12998SOL    HW244315   5.070   8.309  11.758  0.5729 -1.3052 -0.3931
12999SOL     OW44316   2.062   3.842   6.293 -0.0880  0.1604  0.7833
12999SOL    HW144317   2.143   3.815   6.248 -0.5177  0.8674 -0.4697
12999SOL    HW244318   2.010   3.884   6.225 -1.9869 -1.2020  1.3211
13000SOL     OW44319   1.803   2.168   2.294  0.6377 -0.1219 -0.0864
13000SOL    HW144320   1.869   2.146   2.360  0.4191  0.6375  0.4065
13000SOL    HW244321   1.847   2.232   2.237  1.3810 -1.9446 -1.6991
13001SOL     OW44322   3.486   3.840   7.548 -0.3066  0.4110 -0.3483
13001SOL    HW144323   3.409   3.783   7.544 -0.3887  0.5736 -1.4653
13001SOL    HW244324   3.547   3.801   7.485  0.4560  0.3975  0.3789
13002SOL     OW44325   7.901  11.821   7.645  0.4538 -0.3449 -0.5461
13002SOL    HW144326   7.945  11.846   7.564  1.1767  0.5313  0.1008
13002SOL    HW244327   7.812  11.855   7.635  0.9233  0.9864 -0.4236
13003SOL     OW44328   9.127   9.308   4.420 -0.2877  0.0832  0.4564
13003SOL    HW144329   9.087   9.221   4.416  2.2962 -1.1993  0.6503
13003SOL    HW244330   9.082   9.358   4.353 -0.9720 -1.7984 -0.5544
13004SOL     OW44331   5.615   7.248   0.684 -0.3933 -0.0353 -0.6651
13004SOL    HW144332   5.643   7.303   0.611  1.0947  0.8199  0.5027
13004SOL    HW244333   5.606   7.161   0.646 -2.3070  0.8445 -2.4417
13005SOL     OW44334   4.396   5.481   0.679  0.1902 -0.1542 -0.1060
13005SOL    HW144335   4.426   5.568   0.708 -1.8041 -0.1754  2.4884
13005SOL    HW244336   4.387   5.489   0.584 -1.2255  2.9818  0.1596
13006SOL     OW44337   2.401  11.082   6.748 -0.0576 -0.0515 -0.0591
13006SOL    HW144338   2.367  11.172   6.751  0.0927 -0.0290  1.6494
13006SOL    HW244339   2.335  11.030   6.793 -0.5109 -0.9600 -1.7046
13007SOL     OW44340   2.022   6.562  10.310 -0.5274 -0.0517 -0.1272
13007SOL    HW144341   1.987   6.629  10.368 -0.2374  0.1173 -0.1438
13007SOL    HW244342   2.012   6.599  10.222 -1.0703 -0.3540 -0.1995
13008SOL     OW44343   3.674   7.227   2.199 -0.2769 -0.6222  0.1947
13008SOL    HW144344   3.676   7.226   2.104 -1.6179  0.4054  0.1191
13008SOL    HW244345   3.583   7.207   2.221  0.2270 -1.8696  1.3061
13009SOL     OW44346   2.725   0.656  10.080 -0.3457  0.1638 -0.2512
13009SOL    HW144347   2.758   0.576  10.038  1.4858 -0.4093  2.0712
13009SOL    HW244348   2.672   0.624  10.153 -1.8131  1.1383 -0.8347
13010SOL     OW44349   3.876  11.680   5.660  0.5885  0.3136  0.2044
13010SOL    HW144350   3.970  11.672   5.643  0.5096 -0.2848  0.0154
13010SOL    HW244351   3.871  11.732   5.740  1.1204 -0.3831  0.7122
13011SOL     OW44352  10.600   4.179   5.476 -0.4482  0.0516  0.7644
13011SOL    HW144353  10.597   4.104   5.536 -1.3467 -2.3077 -2.0220
13011SOL    HW244354  10.508   4.195   5.453 -0.0729  0.2220 -0.7064
13012SOL     OW44355   2.099   5.414   6.051 -0.7409  0.4797  0.1083
13012SOL    HW144356   2.195   5.411   6.052 -0.6811  1.6093  1.0748
13012SOL    HW244357   2.078   5.507   6.042 -1.7481  0.2687  0.1201
13013SOL     OW44358   7.413   2.407   1.053  0.7068  0.4877 -0.7353
13013SOL    HW144359   7.416   2.335   1.116  0.1896  1.0571 -0.0458
13013SOL    HW244360   7.326   2.445   1.065  0.7034  0.7847 -1.6039
13014SOL     OW44361   1.927  11.448   6.626  0.2525  0.0485 -0.0568
13014SOL    HW144362   1.929  11.420   6.534 -0.6080  0.9024 -0.3532
13014SOL    HW244363   1.881  11.532   6.624 -0.4348 -0.2732  1.2591
13015SOL     OW44364   1.229   9.326   4.377  0.0148  0.2819  0.2558
13015SOL    HW144365   1.196   9.246   4.417  0.9224 -0.5266 -0.5559
13015SOL    HW244366   1.165   9.393   4.401 -0.8019 -0.6971  0.8923
13016SOL     OW44367   2.073   9.518   0.665 -0.2046 -0.0353 -0.1055
13016SOL    HW144368   1.982   9.512   0.638 -0.9818  4.2220  0.7942
13016SOL    HW244369   2.120   9.536   0.583 -0.2451 -1.4357 -0.4582
13017SOL     OW44370   9.236   4.991   0.845  0.4205 -0.1666  0.2637
13017SOL    HW144371   9.328   4.966   0.859  1.0122  1.3606 -0.6308
13017SOL    HW244372   9.188   4.909   0.852  1.9739 -1.1753 -0.2017
13018SOL     OW44373   1.713   4.839   0.044  0.1586 -0.1544 -0.2683
13018SOL    HW144374   1.701   4.932   0.063  1.7062  0.1155 -0.5142
13018SOL    HW244375   1.640   4.817  -0.014  0.7269  1.3450 -1.6240
13019SOL     OW44376   7.016   9.588   6.308 -0.1937  0.0695 -0.4194
13019SOL    HW144377   6.944   9.652   6.308  0.2994  0.8091  2.7379
13019SOL    HW244378   7.085   9.629   6.257 -0.1921  1.7421  0.8516
13020SOL     OW44379  10.373   8.339   6.047 -0.1897 -0.2958  0.3421
13020SOL    HW144380  10.461   8.358   6.014  0.7767 -2.8956  1.1780
13020SOL    HW244381  10.328   8.424   6.046  2.4550  1.2082  0.3381
13021SOL     OW44382   4.095   6.538   6.076 -0.5918  0.0681  0.5767
13021SOL    HW144383   4.003   6.564   6.071 -0.4812  0.3279 -0.4576
13021SOL    HW244384   4.128   6.549   5.986  0.5435  0.3406  1.0031
13022SOL     OW44385   1.215  10.903   7.357  0.4679 -0.2820 -0.1758
13022SOL    HW144386   1.252  10.930   7.441 -0.4724  1.8427 -0.3902
13022SOL    HW244387   1.139  10.850   7.381 -0.0881  0.7247  0.3465
13023SOL     OW44388   7.259   5.171   5.067  0.0067  0.2592 -0.6899
13023SOL    HW144389   7.298   5.108   5.127 -0.7322  1.3418  0.9893
13023SOL    HW244390   7.171   5.186   5.102 -0.5529  0.7031 -2.2211
13024SOL     OW44391   8.623  10.108   4.380 -0.0430  0.1486  0.1814
13024SOL    HW144392   8.556  10.054   4.337  2.0862 -1.3420 -1.5451
13024SOL    HW244393   8.654  10.167   4.311  1.5928 -0.4238  0.3744
13025SOL     OW44394  11.403   6.797   0.397  0.2407  0.0596  0.7131
13025SOL    HW144395  11.481   6.849   0.383 -0.0146  0.5012  0.9279
13025SOL    HW244396  11.338   6.858   0.431 -0.6239 -0.0057 -0.7249
13026SOL     OW44397   0.475   4.113   7.591  0.4234  0.4902 -0.3566
13026SOL    HW144398   0.553   4.058   7.602 -0.1019 -0.3540 -0.7647
13026SOL    HW244399   0.467   4.123   7.496 -1.6685 -1.9690 -0.5363
13027SOL     OW44400   7.648   4.434  11.538  0.2983  0.0347  0.1116
13027SOL    HW144401   7.635   4.448  11.444  0.4182  2.4014  0.3905
13027SOL    HW244402   7.704   4.356  11.543  2.6447  1.4228 -1.9450
13028SOL     OW44403   8.577  10.358   6.937 -0.1633 -0.5595 -0.4262
13028SOL    HW144404   8.487  10.383   6.914 -0.2766  0.1113  0.6444
13028SOL    HW244405   8.602  10.420   7.006  0.6137 -1.6201  0.2757
13029SOL     OW44406  10.050   9.211   4.251  0.0677 -0.2895 -0.7982
13029SOL    HW144407  10.119   9.182   4.192 -0.2084  0.6050 -1.5834
13029SOL    HW244408   9.973   9.223   4.195 -0.0814  1.0201 -0.3609
13030SOL     OW44409  10.705   9.766   9.472 -0.5111 -0.1418 -0.2139
13030SOL    HW144410  10.633   9.820   9.442 -0.8549 -1.5337 -2.1245
13030SOL    HW244411  10.781   9.824   9.474 -1.6156  1.3317  1.8096
13031SOL     OW44412   1.725  10.459   6.703  0.3445  0.1354  0.3789
13031SOL    HW144413   1.702  10.507   6.783 -3.1128 -1.5432  0.5863
13031SOL    HW244414   1.701  10.368   6.722  0.3317 -0.4901 -2.2392
13032SOL     OW44415   8.778   9.671  10.348  0.1665 -0.3439 -0.3644
13032SOL    HW144416   8.826   9.754  10.350  1.6852 -1.1876 -0.3108
13032SOL    HW244417   8.690   9.694  10.376  0.1387  1.5067 -1.7605
13033SOL     OW44418   9.491   0.699  10.105 -0.7633  0.0310 -0.7101
13033SOL    HW144419   9.412   0.692  10.159  0.7174 -1.1186  1.4491
13033SOL    HW244420   9.562   0.710  10.167  0.9973 -0.7006 -2.4817
13034SOL     OW44421   1.891   0.877   5.617  0.0746  0.2181 -0.0102
13034SOL    HW144422   1.919   0.910   5.702  1.5159  0.5027 -0.5624
13034SOL    HW244423   1.914   0.784   5.618 -1.1852 -0.1088  0.4060
13035SOL     OW44424   4.308   5.712  11.306  0.3202  0.3186 -0.2373
13035SOL    HW144425   4.285   5.768  11.232 -1.4079  1.2164  0.9083
13035SOL    HW244426   4.300   5.622  11.272 -1.4871  0.6838 -0.8999
13036SOL     OW44427  10.182   4.711   2.660  0.1939 -0.1932 -0.0635
13036SOL    HW144428  10.146   4.647   2.599  0.1778 -0.0624 -0.1913
13036SOL    HW244429  10.188   4.664   2.743 -0.0081 -0.2990 -0.1080
13037SOL     OW44430   1.055   1.604  11.696 -0.3603 -0.5018 -0.1747
13037SOL    HW144431   0.997   1.590  11.771 -0.4618 -0.7184 -0.2939
13037SOL    HW244432   1.014   1.556  11.625  0.0748 -0.8258 -0.2083
13038SOL     OW44433   6.883   3.793   3.060  0.4906 -0.0565  0.4664
13038SOL    HW144434   6.845   3.752   3.138 -0.9945 -0.2712 -0.3240
13038SOL    HW244435   6.851   3.740   2.987  0.7408  0.9278 -0.3897
13039SOL     OW44436   1.988  10.109  11.385  1.1312 -0.6432  0.3255
13039SOL    HW144437   1.980  10.020  11.419 -0.5874 -1.7100 -2.5104
13039SOL    HW244438   2.049  10.102  11.312  1.1092  0.5334  0.1774
13040SOL     OW44439  11.043  11.230   7.615  0.6304  0.3707  0.2028
13040SOL    HW144440  11.016  11.139   7.621 -1.9602  1.0331 -0.0774
13040SOL    HW244441  11.083  11.238   7.528 -0.2813 -0.2525 -0.2912
13041SOL     OW44442  11.652   1.171   0.526  0.7623  0.3555 -0.4935
13041SOL    HW144443  11.664   1.259   0.490  0.9316  0.9108  0.8584
13041SOL    HW244444  11.562   1.148   0.505  0.6724  0.9143 -0.7287
13042SOL     OW44445   7.610   2.699   0.386 -0.2972 -0.1245  0.9235
13042SOL    HW144446   7.617   2.786   0.345  0.7112  0.6075  2.5481
13042SOL    HW244447   7.536   2.707   0.446 -1.8067 -1.2122 -0.6894
13043SOL     OW44448   7.825  10.155   2.592  0.5201  0.3526  0.0142
13043SOL    HW144449   7.778  10.072   2.585 -0.0616  0.5125  1.5415
13043SOL    HW244450   7.908  10.140   2.547  0.3748 -1.0253  0.1688
13044SOL     OW44451   8.501  11.817   7.005  0.2476  0.0064  0.1077
13044SOL    HW144452   8.483  11.833   7.098  1.0726  1.7351  0.0088
13044SOL    HW244453   8.587  11.775   7.005  0.3247  0.1633  0.1218
13045SOL     OW44454   7.884   9.449   2.844  0.2149 -0.3317 -0.6529
13045SOL    HW144455   7.917   9.406   2.765 -0.2057 -1.1680 -0.3854
13045SOL    HW244456   7.789   9.440   2.837  0.2072 -1.6369  0.6021
13046SOL     OW44457   0.748   2.677   4.182  0.0968  0.3010  0.0584
13046SOL    HW144458   0.668   2.631   4.208  0.2146 -0.0974 -0.2724
13046SOL    HW244459   0.718   2.739   4.115  0.3076 -1.0701 -1.3849
13047SOL     OW44460   9.368   3.548   7.148 -0.5157 -0.5861  0.4544
13047SOL    HW144461   9.348   3.627   7.097  1.0480  0.0397  0.7640
13047SOL    HW244462   9.364   3.477   7.084 -0.3705 -0.0419 -0.1682
13048SOL     OW44463   4.016   8.273  10.408  0.1172  0.0793  0.0486
13048SOL    HW144464   3.976   8.354  10.441  0.7993 -0.0699  1.2804
13048SOL    HW244465   3.984   8.205  10.466 -0.3840 -0.5504 -0.9352
13049SOL     OW44466   2.229   0.970   2.315 -0.4038  0.1935 -0.0892
13049SOL    HW144467   2.156   1.032   2.319  0.0562  0.7443 -0.0117
13049SOL    HW244468   2.298   1.018   2.269 -0.4104 -0.6614 -1.0102
13050SOL     OW44469   0.226   1.024   5.693 -0.3540  0.1027 -0.4280
13050SOL    HW144470   0.288   0.951   5.684 -1.4354 -0.8899 -0.0191
13050SOL    HW244471   0.210   1.053   5.603  1.1579  0.7922 -0.5110
13051SOL     OW44472   1.006  10.010   5.188  0.2578  0.0362 -0.3385
13051SOL    HW144473   1.007  10.042   5.098  1.3405  0.8632 -0.0545
13051SOL    HW244474   1.099   9.999   5.211 -0.0280 -1.4382  0.2506
13052SOL     OW44475  11.795   9.361   1.521 -0.1377 -0.0937  0.2412
13052SOL    HW144476  11.723   9.423   1.533  0.5384  0.7087  0.2005
13052SOL    HW244477  11.852   9.403   1.458 -0.7449 -1.7132 -1.4878
13053SOL     OW44478   3.083   8.108   1.193 -0.1755 -0.8687 -0.0867
13053SOL    HW144479   3.023   8.178   1.218  2.1098  1.0891  0.2159
13053SOL    HW244480   3.052   8.081   1.107 -1.2837  0.3126 -0.1021
13054SOL     OW44481  11.431   1.661  11.167 -0.3553 -0.4715  0.3038
13054SOL    HW144482  11.411   1.607  11.091  1.6427 -0.1357 -0.5385
13054SOL    HW244483  11.454   1.746  11.130 -0.1871 -0.0518  1.3516
13055SOL     OW44484   9.352   7.890   9.678 -0.0211  0.1589  0.2697
13055SOL    HW144485   9.422   7.862   9.619 -0.5948 -0.3677 -0.1767
13055SOL    HW244486   9.306   7.958   9.629 -0.9015 -0.7299 -0.1980
13056SOL     OW44487   6.497   8.535   7.799  0.4725  0.1000  0.3669
13056SOL    HW144488   6.455   8.597   7.857  0.2394 -0.6328  0.9996
13056SOL    HW244489   6.441   8.457   7.802  0.3643  0.0881 -0.9531
13057SOL     OW44490   3.983   7.498   1.168 -0.2770 -0.1458 -0.3327
13057SOL    HW144491   3.990   7.574   1.110 -1.7047  0.1385 -0.1868
13057SOL    HW244492   3.923   7.527   1.237 -0.6957 -1.3356 -0.1718
13058SOL     OW44493   4.062   9.113   4.191  0.7507 -0.2187  0.3333
13058SOL    HW144494   4.155   9.133   4.176  1.0552 -1.4635  0.4619
13058SOL    HW244495   4.017   9.152   4.116  1.5780 -1.1365 -0.6810
13059SOL     OW44496   2.281   1.564   6.743 -0.1348  0.3736  0.4583
13059SOL    HW144497   2.313   1.652   6.722 -2.4622  0.9003 -1.4040
13059SOL    HW244498   2.324   1.542   6.825  0.8646  3.0876  0.7869
13060SOL     OW44499  11.302   9.897   6.537  0.6473  0.5284 -0.1392
13060SOL    HW144500  11.241   9.969   6.548 -0.4972 -0.6633  2.1646
13060SOL    HW244501  11.385   9.931   6.569  1.1951  2.0245 -2.8868
13061SOL     OW44502   8.514  11.114   2.409 -0.5655 -0.2110  0.5252
13061SOL    HW144503   8.546  11.031   2.445  0.0339  0.4359  1.5087
13061SOL    HW244504   8.509  11.097   2.314  0.9279 -0.9300  0.5419
13062SOL     OW44505   6.528   2.766   8.841 -0.0498  0.2733  0.1408
13062SOL    HW144506   6.517   2.680   8.881  0.4659 -0.0710 -0.4326
13062SOL    HW244507   6.537   2.826   8.915  0.1466 -0.2457  0.5431
13063SOL     OW44508  10.866   7.031  11.244 -0.0936  0.1216  0.0417
13063SOL    HW144509  10.802   7.020  11.314 -0.0994 -0.5456 -0.0679
13063SOL    HW244510  10.947   7.055  11.289  0.1375 -1.1925  0.3597
13064SOL     OW44511   1.838   2.498  11.217 -0.4143 -0.3682  0.0556
13064SOL    HW144512   1.904   2.434  11.243 -0.0534  0.4755  1.2797
13064SOL    HW244513   1.760   2.474  11.266 -0.6854 -0.6664 -0.5090
13065SOL     OW44514   9.938   7.826   0.613 -0.1737 -0.7037 -0.3192
13065SOL    HW144515  10.025   7.811   0.649  0.3071 -1.4990 -1.7327
13065SOL    HW244516   9.893   7.879   0.679  1.6742  0.5222  0.0156
13066SOL     OW44517   8.152   4.477   8.384  0.0329  0.0396  0.0260
13066SOL    HW144518   8.168   4.503   8.294 -0.1609 -2.4456 -0.8128
13066SOL    HW244519   8.063   4.506   8.403  0.9137  2.8118  0.3805
13067SOL     OW44520   0.213  11.269   3.967 -0.2432  0.4927  0.3722
13067SOL    HW144521   0.238  11.191   4.015  0.8433  1.6906  1.8447
13067SOL    HW244522   0.118  11.262   3.957 -0.4999  0.1276  2.6303
13068SOL     OW44523   3.082   7.756   9.090  0.0596  0.2415 -0.4258
13068SOL    HW144524   3.003   7.811   9.090 -0.0619  0.1379  1.6627
13068SOL    HW244525   3.066   7.691   9.157  2.0114  0.3368  0.1840
13069SOL     OW44526   3.090   3.409  10.171  0.0703  0.3813  0.4743
13069SOL    HW144527   3.045   3.468  10.110  1.8299  0.4663 -0.8102
13069SOL    HW244528   3.163   3.374  10.121 -0.1478 -1.8961  1.6293
13070SOL     OW44529  10.960  10.832   8.919 -0.0176  0.4867 -0.6934
13070SOL    HW144530  11.034  10.842   8.980  0.7665 -0.3917 -1.4590
13070SOL    HW244531  10.891  10.792   8.972  0.3305  0.5813 -0.1523
13071SOL     OW44532   1.809  11.094  11.777  0.4269 -0.3501 -0.0849
13071SOL    HW144533   1.737  11.092  11.840 -0.0697  0.5971 -0.6049
13071SOL    HW244534   1.832  11.002  11.764 -1.6791 -0.8059 -1.0132
13072SOL     OW44535   3.948   2.431   9.992 -1.2295 -0.0800 -0.0851
13072SOL    HW144536   3.987   2.346   9.971 -0.3440  0.3421 -0.1943
13072SOL    HW244537   3.991   2.492   9.932 -1.2509  0.5785  0.5596
13073SOL     OW44538   7.090   6.617   7.492  0.9422  0.2989 -0.1704
13073SOL    HW144539   6.999   6.635   7.516  1.4907  1.8990  0.8611
13073SOL    HW244540   7.141   6.644   7.568  2.2580 -1.0820 -0.5279
13074SOL     OW44541   9.240   7.386   9.482 -0.2827  0.2505 -0.1249
13074SOL    HW144542   9.189   7.306   9.475 -1.2314  0.8675 -0.5291
13074SOL    HW244543   9.329   7.361   9.456 -0.6202 -0.6036 -0.4879
13075SOL     OW44544   3.707   0.343   0.507  0.2391  0.2833  0.2647
13075SOL    HW144545   3.658   0.292   0.442 -0.0960  0.0450  0.6900
13075SOL    HW244546   3.707   0.287   0.585 -0.1429  0.9370  0.7438
13076SOL     OW44547   9.795   5.895  11.586  0.6451 -0.2983  0.4255
13076SOL    HW144548   9.850   5.827  11.548  0.7421  0.2578 -0.4792
13076SOL    HW244549   9.852   5.972  11.592 -0.0437  0.3465 -0.7208
13077SOL     OW44550   9.524   1.167  11.150 -0.7280 -0.2819  0.1181
13077SOL    HW144551   9.443   1.145  11.105 -0.4372 -1.6615  0.2211
13077SOL    HW244552   9.522   1.262  11.159 -1.7204 -0.1722 -1.0338
13078SOL     OW44553   6.242   2.442   2.639  0.1570 -0.2292  0.8547
13078SOL    HW144554   6.267   2.349   2.641  0.0337 -0.3305 -0.9555
13078SOL    HW244555   6.149   2.441   2.616  0.0248  0.3367  1.3428
13079SOL     OW44556   5.730   9.309   9.201 -0.1410  1.0717  0.1689
13079SOL    HW144557   5.637   9.287   9.213  0.1768 -0.6189 -0.2349
13079SOL    HW244558   5.771   9.287   9.285  0.1407  0.3384 -0.1552
13080SOL     OW44559   1.395   3.542   9.345  0.3602  0.6358 -0.8623
13080SOL    HW144560   1.426   3.478   9.409  1.7758  0.6819 -1.4711
13080SOL    HW244561   1.474   3.571   9.300 -0.4331  1.7696 -1.5628
13081SOL     OW44562   8.143   6.321   9.779 -0.4152 -0.2599  0.1730
13081SOL    HW144563   8.175   6.245   9.732  0.3419  1.0590 -1.5636
13081SOL    HW244564   8.066   6.349   9.728  1.3071  2.0971 -1.3706
13082SOL     OW44565   1.708   5.217   6.926 -0.6082 -0.1466 -0.5797
13082SOL    HW144566   1.753   5.165   6.860 -0.2176 -1.2183  0.4876
13082SOL    HW244567   1.711   5.306   6.893  1.2436 -0.3665 -1.1123
13083SOL     OW44568   8.733   3.762   6.415  0.0272 -0.3245  0.0880
13083SOL    HW144569   8.716   3.852   6.442  0.3833 -0.1318 -0.3216
13083SOL    HW244570   8.758   3.717   6.495  1.0534  0.2375  0.0942
13084SOL     OW44571   1.205   3.100   1.922  0.4375  0.4417  0.1426
13084SOL    HW144572   1.268   3.167   1.948  0.4204 -0.0499  1.5193
13084SOL    HW244573   1.224   3.084   1.830  1.5082  1.1812  0.2161
13085SOL     OW44574   9.211  10.636   1.084 -0.0040 -0.6619  0.2190
13085SOL    HW144575   9.169  10.565   1.132 -0.2055 -0.5816  0.1611
13085SOL    HW244576   9.165  10.639   1.000 -1.0687  0.5690  0.8131
13086SOL     OW44577   1.661   7.657   1.353 -0.1799 -0.3699  0.1491
13086SOL    HW144578   1.724   7.724   1.325 -0.1550 -0.8625 -1.0329
13086SOL    HW244579   1.684   7.580   1.302 -1.4638 -0.6846  0.0183
13087SOL     OW44580   6.608  10.905   0.124 -0.1289  0.3025  0.1767
13087SOL    HW144581   6.632  10.908   0.217 -0.3767  1.0273  0.2264
13087SOL    HW244582   6.657  10.977   0.084 -0.5008  0.3870 -0.1377
13088SOL     OW44583   8.104   6.655  10.414  0.7568 -0.1155 -0.1617
13088SOL    HW144584   8.189   6.672  10.456  0.2454  0.7218  0.5747
13088SOL    HW244585   8.103   6.711  10.337  0.2424  1.1494  0.7138
13089SOL     OW44586   9.521   6.345   0.911 -0.2124 -0.1498 -0.1998
13089SOL    HW144587   9.464   6.374   0.840 -0.6026 -0.6768 -0.1056
13089SOL    HW244588   9.597   6.307   0.866 -0.3624 -0.2930 -0.3352
13090SOL     OW44589   3.835   7.395   9.457  0.0907  0.1292 -0.0710
13090SOL    HW144590   3.762   7.427   9.403  0.0355  0.0854 -0.0218
13090SOL    HW244591   3.810   7.415   9.547  0.2146  0.2644 -0.0657
13091SOL     OW44592   9.799   1.704   4.988 -0.1560 -0.2115 -0.8016
13091SOL    HW144593   9.808   1.721   4.894 -0.4980  2.5075 -0.3963
13091SOL    HW244594   9.886   1.721   5.023 -0.1261 -0.8614 -0.5468
13092SOL     OW44595   3.035   2.141   0.794  0.3869  0.0761  0.1144
13092SOL    HW144596   3.119   2.098   0.777  0.4966  1.2800 -2.9824
13092SOL    HW244597   3.037   2.220   0.740 -1.5522  1.7552  2.3020
13093SOL     OW44598   4.788   5.691   0.170  0.3191 -0.2065 -0.0224
13093SOL    HW144599   4.796   5.751   0.245  2.4694 -1.0736  0.5238
13093SOL    HW244600   4.846   5.727   0.104  0.3486 -0.7735 -0.3147
13094SOL     OW44601   2.627   3.869   3.240  0.5040 -0.2708  0.0581
13094SOL    HW144602   2.561   3.917   3.289  2.1518  1.7117  0.4538
13094SOL    HW244603   2.578   3.821   3.173 -1.3148  1.1867  0.2863
13095SOL     OW44604  11.259  11.386   6.251 -0.2383 -0.2291  0.9646
13095SOL    HW144605  11.213  11.441   6.188  1.4433  1.7889  1.3973
13095SOL    HW244606  11.346  11.373   6.212 -0.0900 -1.2804  1.6152
13096SOL     OW44607   9.928   5.027   4.920 -0.0199 -0.5449  0.5168
13096SOL    HW144608   9.890   5.089   4.857  1.6285 -0.5437 -0.5343
13096SOL    HW244609   9.980   5.081   4.979  1.0131 -0.8511 -0.0916
13097SOL     OW44610  10.034  11.609   4.662 -0.2704  0.2235 -0.2236
13097SOL    HW144611  10.127  11.610   4.641 -0.3182 -0.4386 -0.4769
13097SOL    HW244612  10.029  11.636   4.754  0.2160 -0.3385 -0.0324
13098SOL     OW44613   7.664   8.675   0.055 -0.2953  0.1312  0.1146
13098SOL    HW144614   7.699   8.601   0.104 -0.0783  0.0543 -0.1481
13098SOL    HW244615   7.661   8.747   0.118 -0.5547 -0.1109  0.3846
13099SOL     OW44616   3.862   6.771   2.403 -0.7017  0.3447 -0.4744
13099SOL    HW144617   3.864   6.842   2.340  0.9964 -0.9387 -1.9851
13099SOL    HW244618   3.919   6.704   2.365  0.0516 -0.6765  2.2366
13100SOL     OW44619   6.957   3.106   1.825  0.1956 -1.1685  0.6011
13100SOL    HW144620   6.930   3.185   1.872  0.8523 -0.6283  0.0921
13100SOL    HW244621   6.956   3.131   1.733  1.2013 -1.5042  0.4857
13101SOL     OW44622  10.486   9.176   1.358  0.1876  0.0189 -0.4936
13101SOL    HW144623  10.454   9.087   1.376  2.4925 -0.9686 -0.8882
13101SOL    HW244624  10.558   9.189   1.420 -1.4857  2.5602  1.0964
13102SOL     OW44625  10.617   2.031   7.155  0.0186 -0.2474  0.2719
13102SOL    HW144626  10.532   2.022   7.198 -0.3436  0.2360 -0.3136
13102SOL    HW244627  10.619   2.122   7.125  1.8467  0.5576  2.5266
13103SOL     OW44628   5.838   5.695  10.796  0.2268  0.1377 -0.0034
13103SOL    HW144629   5.838   5.665  10.887 -0.7779  0.3896  0.0890
13103SOL    HW244630   5.864   5.618  10.746  1.6797  0.2325  0.5521
13104SOL     OW44631   4.482  11.672   0.922 -0.7271  0.0766  0.5402
13104SOL    HW144632   4.504  11.754   0.967 -1.3078  0.0585  0.8645
13104SOL    HW244633   4.511  11.604   0.982  0.3704  0.0231 -0.0200
13105SOL     OW44634   9.365   1.162   0.562  0.2288 -0.2825  0.4342
13105SOL    HW144635   9.412   1.213   0.628  1.3637 -1.1138  0.3008
13105SOL    HW244636   9.359   1.074   0.599  1.0620 -0.8139 -0.6157
13106SOL     OW44637   2.176   0.338   5.393  0.6210 -0.1676  0.6739
13106SOL    HW144638   2.185   0.341   5.488  3.2835  0.1696  0.4840
13106SOL    HW244639   2.243   0.276   5.364 -0.0893 -0.2147 -1.0106
13107SOL     OW44640   5.405   5.178   9.223 -0.0835  0.0663 -0.2908
13107SOL    HW144641   5.436   5.256   9.269  0.6925 -0.1849 -0.3698
13107SOL    HW244642   5.399   5.111   9.291  0.0927 -0.0345 -0.3728
13108SOL     OW44643   4.418   3.679   0.427 -0.4114  0.3665  0.2423
13108SOL    HW144644   4.507   3.662   0.459 -1.5544 -1.7956  2.7407
13108SOL    HW244645   4.409   3.622   0.351 -0.0948 -0.5185  0.8510
13109SOL     OW44646   3.583   5.585   9.723 -0.3748  0.4321 -0.6240
13109SOL    HW144647   3.630   5.509   9.689 -0.7134  0.0442 -0.2250
13109SOL    HW244648   3.643   5.658   9.709  0.2288 -0.0128 -0.3910
13110SOL     OW44649   7.219   9.675   6.138 -0.4626 -0.1832 -0.1178
13110SOL    HW144650   7.290   9.627   6.180 -0.7749 -2.4633 -1.9786
13110SOL    HW244651   7.262   9.743   6.086  0.1686 -0.0572  0.5613
13111SOL     OW44652   9.027  11.011   3.794  0.5721 -0.3064 -0.1864
13111SOL    HW144653   9.035  11.042   3.884  3.3719  0.1535 -0.4971
13111SOL    HW244654   8.932  11.007   3.778  0.0002 -0.1811  2.6598
13112SOL     OW44655   6.207   3.080   9.510 -0.0735 -0.3805  0.2872
13112SOL    HW144656   6.116   3.090   9.481  0.2162 -0.8674 -0.8908
13112SOL    HW244657   6.213   2.988   9.535 -0.4922  0.1865  2.6585
13113SOL     OW44658   2.061   3.019   5.071  0.6092  0.1077  0.1765
13113SOL    HW144659   2.136   3.062   5.030 -0.3264  0.7600 -0.8992
13113SOL    HW244660   1.990   3.083   5.065 -1.1796 -1.9162 -2.5496
13114SOL     OW44661   0.409   1.780   6.130  0.1453 -0.5276  0.4588
13114SOL    HW144662   0.388   1.695   6.093  1.6806 -0.7619  0.0684
13114SOL    HW244663   0.360   1.842   6.076 -0.5242 -1.1136  0.3809
13115SOL     OW44664   2.518   9.862   3.778  0.1546 -0.1030 -0.5805
13115SOL    HW144665   2.427   9.879   3.755 -0.2659  0.5913  1.3670
13115SOL    HW244666   2.522   9.878   3.872  2.8629  2.4760 -0.9778
13116SOL     OW44667   6.566   4.068   5.606  0.3849 -0.0070  0.7617
13116SOL    HW144668   6.476   4.079   5.576  0.2719  0.7567  1.3440
13116SOL    HW244669   6.570   3.978   5.638  0.4276 -0.7604 -1.1957
13117SOL     OW44670   8.160  11.067   1.842 -0.3119 -0.5347 -0.3800
13117SOL    HW144671   8.222  10.994   1.837 -1.2112 -1.3754  0.4072
13117SOL    HW244672   8.136  11.084   1.750  0.5036 -0.6970 -0.6267
13118SOL     OW44673  10.137   1.796   6.993 -0.1813  0.2342  0.5125
13118SOL    HW144674  10.141   1.756   6.907 -1.3378  0.8468  0.1479
13118SOL    HW244675  10.188   1.738   7.050  0.4836 -0.2419 -0.5410
13119SOL     OW44676   8.280  10.974   1.272  0.1302 -0.2884 -0.1994
13119SOL    HW144677   8.269  11.066   1.248 -3.1640 -0.2706  0.8113
13119SOL    HW244678   8.283  10.927   1.189 -0.4205  0.5853 -0.7284
13120SOL     OW44679   8.922  11.775  11.011  0.0719  0.4746 -0.2086
13120SOL    HW144680   9.016  11.765  11.021 -0.1300 -0.3761  1.1311
13120SOL    HW244681   8.887  11.686  11.016 -0.7026  0.6231 -2.1952
13121SOL     OW44682   5.613   7.329   0.955  0.4814  0.0825 -0.7282
13121SOL    HW144683   5.676   7.258   0.972 -0.4306 -0.5153  0.3143
13121SOL    HW244684   5.586   7.316   0.865  1.5318  0.0948 -1.0623
13122SOL     OW44685   7.330   5.726   8.467 -0.0391  0.3288 -0.0207
13122SOL    HW144686   7.260   5.678   8.512  0.9066 -0.4852  0.6065
13122SOL    HW244687   7.300   5.732   8.376 -1.2778  0.6697  0.3848
13123SOL     OW44688   9.353   0.061   0.413 -0.1035  0.2561 -0.8633
13123SOL    HW144689   9.397   0.065   0.498 -1.8618  0.8353  0.0701
13123SOL    HW244690   9.283  -0.003   0.426  0.6983 -1.0436 -2.4685
13124SOL     OW44691   8.009   2.880  11.814  0.2177  0.2562  0.4393
13124SOL    HW144692   8.022   2.928  11.733  0.7758 -1.3004 -0.4311
13124SOL    HW244693   7.950   2.935  11.865 -1.4148  0.5441 -1.6445
13125SOL     OW44694   1.400   1.126   0.018 -0.2590  0.2396  0.5865
13125SOL    HW144695   1.351   1.123   0.101 -0.6353  1.2813  0.4113
13125SOL    HW244696   1.358   1.059  -0.036 -1.8420  1.4114  0.2807
13126SOL     OW44697   1.081   9.375   8.373 -0.8559  0.0292 -0.3950
13126SOL    HW144698   1.158   9.329   8.340 -0.9901 -0.4972  0.0221
13126SOL    HW244699   1.117   9.448   8.425 -0.6338 -0.3456 -0.0179
13127SOL     OW44700   9.232   2.708   6.667 -0.0292  0.1461 -0.2787
13127SOL    HW144701   9.323   2.677   6.667  0.2791  1.0368 -0.1476
13127SOL    HW244702   9.189   2.655   6.733  0.4023 -0.2644 -0.3211
13128SOL     OW44703   4.186  11.174   7.912  0.3867 -0.0285 -0.1677
13128SOL    HW144704   4.157  11.241   7.850  0.0687 -1.8232 -2.0806
13128SOL    HW244705   4.114  11.168   7.975 -0.2169  0.4776 -0.7841
13129SOL     OW44706   5.289   0.710  11.310  0.7740  0.0910 -0.1283
13129SOL    HW144707   5.274   0.733  11.218 -3.2222  2.5568  0.9212
13129SOL    HW244708   5.320   0.790  11.351  2.1279 -0.8750  0.8498
13130SOL     OW44709   7.507   4.023  11.573  0.5143 -0.2848  0.3844
13130SOL    HW144710   7.600   4.022  11.596  0.4291 -0.2000  0.7352
13130SOL    HW244711   7.467   3.957  11.630  1.1089 -4.1396 -3.0999
13131SOL     OW44712   2.297   0.520   2.491  0.4883 -0.2435 -0.1342
13131SOL    HW144713   2.354   0.571   2.433 -1.4004  1.6449 -0.4336
13131SOL    HW244714   2.263   0.450   2.434  0.6419  0.0613 -0.6106
13132SOL     OW44715   6.094  11.026   1.093 -0.2585 -0.2514 -0.2107
13132SOL    HW144716   6.137  10.944   1.116  0.4353  0.5305  1.4717
13132SOL    HW244717   6.046  11.051   1.172  0.4660  1.5229 -0.2920
13133SOL     OW44718   2.295   8.153   9.617  0.5125 -0.0137 -0.0012
13133SOL    HW144719   2.283   8.080   9.677  3.4241  1.1657  2.2678
13133SOL    HW244720   2.381   8.138   9.578  0.1084  0.9876 -1.3322
13134SOL     OW44721   6.688   7.750   5.468 -0.0033  0.5175  0.4523
13134SOL    HW144722   6.725   7.824   5.421 -1.9530  1.1759 -0.1633
13134SOL    HW244723   6.594   7.770   5.474 -0.2842 -0.9901  1.9769
13135SOL     OW44724   2.499  11.823   6.141  0.4613  0.2840 -0.2737
13135SOL    HW144725   2.533  11.848   6.055 -0.4166 -3.0840 -1.7862
13135SOL    HW244726   2.483  11.729   6.134 -0.5513  0.0336  3.3180
13136SOL     OW44727  10.820  10.774   2.171  0.3156  0.2843 -0.2266
13136SOL    HW144728  10.727  10.767   2.193  0.2636  1.1867 -0.1127
13136SOL    HW244729  10.860  10.699   2.214 -0.5367 -0.8608 -1.3433
13137SOL     OW44730   5.070   2.096   8.000 -0.1524  0.3944  0.1649
13137SOL    HW144731   5.131   2.034   8.040 -0.5265 -1.0174 -1.3715
13137SOL    HW244732   5.006   2.114   8.069 -0.5608 -1.6578  0.3784
13138SOL     OW44733  10.106   5.616   2.805 -0.1335  0.1154  0.0913
13138SOL    HW144734  10.039   5.684   2.809 -0.2929 -0.0193 -0.3318
13138SOL    HW244735  10.183   5.655   2.847 -0.0175  0.7949 -0.7414
13139SOL     OW44736   8.784   2.199  10.715  0.1438  0.8385 -0.4131
13139SOL    HW144737   8.736   2.230  10.792 -0.8331 -0.4155 -0.4887
13139SOL    HW244738   8.716   2.163  10.658  1.0226  0.4509 -1.2252
13140SOL     OW44739   9.893   9.764   0.375  0.1717  0.2322  0.4240
13140SOL    HW144740   9.820   9.803   0.422 -0.6770  1.9597 -2.0889
13140SOL    HW244741   9.966   9.824   0.388  0.5314 -0.3389  1.1227
13141SOL     OW44742   2.174   9.601   0.419 -0.6342 -0.3698  0.0951
13141SOL    HW144743   2.144   9.640   0.337 -0.7609 -0.0432  0.2966
13141SOL    HW244744   2.242   9.538   0.392 -0.3107  0.1078 -0.2157
13142SOL     OW44745   7.471   2.181  11.297 -0.2921 -0.4608 -0.3253
13142SOL    HW144746   7.453   2.265  11.254  0.2631 -0.3510 -0.3462
13142SOL    HW244747   7.500   2.204  11.385 -0.4896 -0.6488 -0.2077
13143SOL     OW44748   0.738   6.154   6.214  0.2860 -0.5263 -0.0690
13143SOL    HW144749   0.750   6.249   6.205  0.4630 -0.4154  1.1575
13143SOL    HW244750   0.722   6.141   6.307  0.9957 -1.7941 -0.1031
13144SOL     OW44751  11.003   6.322   5.465 -0.0412 -0.2683  0.8806
13144SOL    HW144752  11.092   6.310   5.429 -0.7073 -0.9122 -0.6597
13144SOL    HW244753  11.017   6.364   5.550  1.7118  0.2127  0.4053
13145SOL     OW44754   0.490   5.142  11.136  0.1082  0.2147  0.2915
13145SOL    HW144755   0.454   5.226  11.163 -1.2715  0.5026 -2.1623
13145SOL    HW244756   0.538   5.160  11.055 -2.1145 -1.6040 -1.5835
13146SOL     OW44757   9.537   8.021   8.717 -0.1914 -0.2570 -0.0624
13146SOL    HW144758   9.513   7.942   8.668 -3.0214 -0.2914  1.1805
13146SOL    HW244759   9.589   7.989   8.791  2.6562 -0.3715 -1.9702
13147SOL     OW44760   9.981   5.301   7.957 -0.2502 -0.1648  0.4590
13147SOL    HW144761   9.904   5.320   8.012 -0.6458  1.1919 -0.5128
13147SOL    HW244762  10.051   5.355   7.994 -0.7425  1.4362 -0.8387
13148SOL     OW44763   6.885   1.588   0.422  0.2915 -0.8628  0.3501
13148SOL    HW144764   6.908   1.615   0.511 -0.9764  1.3619  0.0877
13148SOL    HW244765   6.791   1.574   0.426  0.3213 -1.3236 -0.5235
13149SOL     OW44766  11.195   9.664   2.849  0.1274 -0.0129 -0.2245
13149SOL    HW144767  11.258   9.657   2.921 -0.4421 -0.3926  0.2575
13149SOL    HW244768  11.129   9.597   2.870  0.3815 -0.7033 -1.5413
13150SOL     OW44769   4.004   1.739   8.556 -0.0453 -0.3472  0.0789
13150SOL    HW144770   3.979   1.747   8.464 -1.2494  0.9984  0.4804
13150SOL    HW244771   4.075   1.802   8.567  1.2564 -1.7039 -0.2765
13151SOL     OW44772  10.521   4.763   5.410 -0.7787 -0.2009 -0.5127
13151SOL    HW144773  10.546   4.716   5.330  0.9495 -1.0776  0.4656
13151SOL    HW244774  10.500   4.694   5.473  0.4460  0.3447  0.5454
13152SOL     OW44775   6.764  11.316   2.493 -0.5978 -0.1345 -0.4422
13152SOL    HW144776   6.780  11.281   2.405  1.0056 -2.5269  0.6859
13152SOL    HW244777   6.851  11.340   2.525 -1.2583  1.4518  0.2501
13153SOL     OW44778   7.393   3.147   4.442  0.0976  0.3605 -0.2948
13153SOL    HW144779   7.298   3.157   4.435  0.2851  2.2415 -0.4897
13153SOL    HW244780   7.407   3.120   4.533 -0.6490 -0.7072 -0.4670
13154SOL     OW44781   7.000   8.295   2.432 -0.2681  0.4804  0.4413
13154SOL    HW144782   6.977   8.202   2.435 -1.3325  0.7465  1.3413
13154SOL    HW244783   7.095   8.296   2.442 -0.0935 -0.5600 -0.9156
13155SOL     OW44784   9.504   7.576   2.859 -0.4485 -0.5249  0.2580
13155SOL    HW144785   9.557   7.542   2.787  0.7819 -0.1699  0.9624
13155SOL    HW244786   9.414   7.568   2.829  0.0385 -0.4809 -1.2747
13156SOL     OW44787   6.668   2.551  10.875  1.0104  0.7985 -0.7645
13156SOL    HW144788   6.759   2.558  10.847  0.9932  0.0926 -1.0268
13156SOL    HW244789   6.617   2.561  10.795  0.9036  0.1344 -0.7854
13157SOL     OW44790  10.855  11.667   7.364  0.2194 -0.2165  0.3581
13157SOL    HW144791  10.823  11.678   7.275 -0.6009 -0.5663  0.5943
13157SOL    HW244792  10.934  11.614   7.355 -0.6306 -1.4594 -0.0603
13158SOL     OW44793   9.594   0.126   4.332  0.7355  0.0502 -0.1137
13158SOL    HW144794   9.658   0.135   4.261 -0.5543  0.5878 -1.2559
13158SOL    HW244795   9.613   0.199   4.391  1.3644  0.0176 -0.2663
13159SOL     OW44796   6.612  11.426   1.429  0.2805  0.1840  0.6428
13159SOL    HW144797   6.629  11.341   1.470  0.3352 -0.7592 -1.2391
13159SOL    HW244798   6.648  11.490   1.491 -0.0398 -1.1265  2.2476
13160SOL     OW44799   1.429   3.464   7.135  0.7391 -0.2725 -0.4236
13160SOL    HW144800   1.452   3.470   7.042 -2.3985 -0.0722 -1.2788
13160SOL    HW244801   1.512   3.482   7.181  2.3788 -0.3515 -3.1327
13161SOL     OW44802   8.164   8.494   0.243 -0.1209  0.3788 -1.0893
13161SOL    HW144803   8.191   8.508   0.333 -0.4474 -3.3963 -0.2368
13161SOL    HW244804   8.245   8.471   0.197 -0.4528 -1.6760 -0.7336
13162SOL     OW44805   8.761   4.619   1.941  0.0171 -0.0740  0.2064
13162SOL    HW144806   8.815   4.607   1.863 -0.6390 -2.3716  0.0425
13162SOL    HW244807   8.772   4.538   1.991 -1.9967  0.0553  0.9599
13163SOL     OW44808   6.342   1.225   3.937  0.0336 -0.1423  0.0985
13163SOL    HW144809   6.342   1.255   4.028 -1.6121  0.3528 -0.0243
13163SOL    HW244810   6.434   1.229   3.911  0.2327  2.4974  0.8697
13164SOL     OW44811   0.925   8.145  11.676  0.2377  0.6581 -0.3095
13164SOL    HW144812   0.970   8.116  11.597 -0.0043  2.2297 -1.0478
13164SOL    HW244813   0.940   8.074  11.739 -1.7137 -1.8811 -2.4707
13165SOL     OW44814   9.799  10.839   2.524  0.3679  0.3990  0.2265
13165SOL    HW144815   9.853  10.760   2.520  0.0768  0.1901  0.3638
13165SOL    HW244816   9.856  10.905   2.562  0.0804 -0.2148  1.8129
13166SOL     OW44817   5.740   1.980   2.892  0.5307 -0.7392 -0.6141
13166SOL    HW144818   5.717   1.976   2.799 -1.0648 -1.0745 -0.2485
13166SOL    HW244819   5.763   2.072   2.908 -0.9083 -0.2786 -1.0002
13167SOL     OW44820   3.193   6.026   7.290  0.2813 -0.4338 -0.0493
13167SOL    HW144821   3.180   6.024   7.195  1.0072  0.3200 -0.1772
13167SOL    HW244822   3.203   5.934   7.315 -0.3243 -0.6709 -0.6348
13168SOL     OW44823   7.808   5.280   1.390  0.4751 -0.3390 -0.0395
13168SOL    HW144824   7.811   5.366   1.348  0.9392  1.2040  2.8698
13168SOL    HW244825   7.715   5.259   1.397  0.2665  0.6518  0.4486
13169SOL     OW44826   4.843   7.008   6.525  0.4703  0.4386  0.6716
13169SOL    HW144827   4.859   7.070   6.596  0.9453  1.0504  0.0537
13169SOL    HW244828   4.805   7.061   6.455  1.3087  0.1363 -0.0369
13170SOL     OW44829   7.172   4.762   4.306 -0.9971 -0.0753  0.3429
13170SOL    HW144830   7.120   4.832   4.268 -1.4802 -0.7160 -0.1985
13170SOL    HW244831   7.242   4.807   4.353 -0.8061  0.7533 -0.6911
13171SOL     OW44832   0.614   9.591   1.324 -0.3842 -0.2124 -0.3616
13171SOL    HW144833   0.665   9.582   1.405  0.1394 -1.0984 -0.7690
13171SOL    HW244834   0.673   9.633   1.262 -0.7132  0.2757 -0.3455
13172SOL     OW44835   3.157   9.230   0.824 -0.0713  0.3897  0.0166
13172SOL    HW144836   3.105   9.241   0.904  0.8848  1.7857  0.4737
13172SOL    HW244837   3.244   9.263   0.847  0.2283  0.7844 -1.5800
13173SOL     OW44838  11.568   7.541  10.585  0.0213 -0.1352  0.0605
13173SOL    HW144839  11.590   7.625  10.545 -2.8548 -0.5018 -2.7175
13173SOL    HW244840  11.622   7.478  10.538 -0.4606 -0.1620 -0.4732
13174SOL     OW44841   2.371   9.617   3.260  0.3052 -0.3720 -0.7474
13174SOL    HW144842   2.335   9.673   3.191  0.2595  0.9798  0.3403
13174SOL    HW244843   2.434   9.562   3.214  0.8335  1.0152 -1.7793
13175SOL     OW44844  10.374   2.137  10.805  0.5056  0.2814  0.0474
13175SOL    HW144845  10.309   2.072  10.833  0.7621  0.3186  0.7447
13175SOL    HW244846  10.353   2.153  10.713 -0.0952 -0.1547  0.0994
13176SOL     OW44847   0.553   0.124   1.039  0.2450  0.8193 -0.0511
13176SOL    HW144848   0.493   0.069   0.989  0.1362  0.1250  0.8090
13176SOL    HW244849   0.583   0.068   1.110  1.7782  1.2200 -0.3482
13177SOL     OW44850   7.091   7.005   3.912  0.1774  0.5172  0.5925
13177SOL    HW144851   7.175   6.981   3.873  1.1547  3.8475  0.3480
13177SOL    HW244852   7.101   6.985   4.005 -0.9020 -4.1341  0.0062
13178SOL     OW44853   4.002   0.313   4.285 -0.5361 -0.3068  0.0636
13178SOL    HW144854   4.068   0.294   4.352  0.0218  0.5267 -0.2317
13178SOL    HW244855   3.956   0.390   4.318 -1.4173 -0.9269  0.3001
13179SOL     OW44856   8.047   8.532   5.955  0.3120  0.0951  0.1666
13179SOL    HW144857   7.972   8.480   5.926  0.5928 -0.7862  0.9778
13179SOL    HW244858   8.085   8.481   6.026  1.4589  0.7209  0.0146
13180SOL     OW44859   6.659   3.096   1.968 -0.1339 -0.2212 -0.2671
13180SOL    HW144860   6.581   3.101   1.913 -0.3656  0.8532  0.1498
13180SOL    HW244861   6.703   3.016   1.939 -2.1329 -1.6839  0.4741
13181SOL     OW44862   0.238   7.169  11.010 -0.0355  0.2315 -0.1548
13181SOL    HW144863   0.312   7.230  11.012  0.8353 -0.8053  1.0144
13181SOL    HW244864   0.261   7.102  11.074 -1.1476 -1.1054 -1.0931
13182SOL     OW44865  10.815   9.128   6.813 -0.1357 -0.0520 -0.7452
13182SOL    HW144866  10.750   9.082   6.866  1.2514 -0.8085  0.3593
13182SOL    HW244867  10.784   9.117   6.723 -0.2306 -2.6102 -0.4855
13183SOL     OW44868   1.562  10.198   8.773 -0.0756  0.0713  0.1689
13183SOL    HW144869   1.539  10.261   8.704  1.4220  0.7430  0.2322
13183SOL    HW244870   1.498  10.212   8.842 -1.9638 -0.9987 -1.2751
13184SOL     OW44871  10.295   9.653   0.504 -0.9432  0.1565  0.3031
13184SOL    HW144872  10.317   9.683   0.592 -0.2406  0.0461  0.1766
13184SOL    HW244873  10.345   9.571   0.494 -0.3549  0.5957 -0.4882
13185SOL     OW44874   3.215  11.571   9.039 -0.6312 -0.2147  0.4651
13185SOL    HW144875   3.158  11.534   8.972 -0.1424  0.4521 -0.3395
13185SOL    HW244876   3.154  11.607   9.104 -1.1255 -0.1815 -0.0040
13186SOL     OW44877   8.633   0.821  11.572  0.0375 -0.9873 -0.4612
13186SOL    HW144878   8.728   0.818  11.558 -0.0542 -2.3830 -0.9329
13186SOL    HW244879   8.602   0.737  11.538 -1.2577 -0.9150  0.5139
13187SOL     OW44880   4.958   6.893  10.356  0.0666 -0.1223 -0.0997
13187SOL    HW144881   5.022   6.959  10.383 -0.6158 -0.0354  1.3850
13187SOL    HW244882   5.011   6.821  10.322  1.1132 -0.7271  2.5487
13188SOL     OW44883   8.422  10.470   3.470 -0.5039  0.9909 -0.2796
13188SOL    HW144884   8.495  10.531   3.458  0.8316 -0.4645  0.0771
13188SOL    HW244885   8.386  10.460   3.382  0.2297  1.1400 -0.6092
13189SOL     OW44886   4.394   2.830   7.446 -0.0073 -0.8073 -0.1706
13189SOL    HW144887   4.434   2.866   7.366 -0.2171 -1.0694 -0.3962
13189SOL    HW244888   4.413   2.737   7.443 -1.4229 -1.1064 -0.7655
13190SOL     OW44889   7.142   8.803   3.957 -0.3290  0.3183 -0.1184
13190SOL    HW144890   7.092   8.744   3.901  0.8944  0.0808 -0.9993
13190SOL    HW244891   7.205   8.745   4.001 -0.4544  0.6882  0.5626
13191SOL     OW44892  10.283   6.120   7.150 -0.2080 -0.0858  0.7013
13191SOL    HW144893  10.292   6.065   7.228 -0.1954 -0.2547  0.5815
13191SOL    HW244894  10.373   6.142   7.125 -0.1495 -0.9213  0.1084
13192SOL     OW44895   6.665   8.720   0.967 -0.6607  0.1038 -0.0953
13192SOL    HW144896   6.666   8.813   0.991  0.2414 -0.1645  0.9968
13192SOL    HW244897   6.728   8.714   0.895 -0.4725  0.2983  0.0474
13193SOL     OW44898   2.835   1.088   6.472  0.4875  0.0816 -0.2302
13193SOL    HW144899   2.930   1.084   6.484  0.4625 -0.1982 -0.1141
13193SOL    HW244900   2.807   1.165   6.522  0.5425 -0.3417  0.4552
13194SOL     OW44901   2.510  11.309   4.597 -0.3580 -0.1535 -0.0586
13194SOL    HW144902   2.471  11.321   4.511 -0.3254 -0.7024 -0.1540
13194SOL    HW244903   2.500  11.216   4.616 -0.7112  0.0287  0.7032
13195SOL     OW44904   7.924   8.440   9.938  0.0185  0.1574 -0.3345
13195SOL    HW144905   7.982   8.485   9.877  1.1080  1.7731  1.7773
13195SOL    HW244906   7.887   8.510   9.992 -0.5557 -1.2393  1.1668
13196SOL     OW44907   9.875   0.582   6.837  0.3984  0.0776 -0.5692
13196SOL    HW144908   9.912   0.587   6.925  0.7908 -0.4541 -0.6989
13196SOL    HW244909   9.780   0.584   6.851  0.4597  0.1180 -0.1408
13197SOL     OW44910   5.808   2.692   7.566 -0.1349  0.6444  0.2768
13197SOL    HW144911   5.801   2.694   7.470 -2.9742 -0.0379  0.3878
13197SOL    HW244912   5.774   2.606   7.590 -0.5385  1.2488  1.9601
13198SOL     OW44913  10.413   0.345   8.302  0.2752 -0.3239 -0.3875
13198SOL    HW144914  10.349   0.305   8.361 -0.2039 -0.1361 -0.7672
13198SOL    HW244915  10.442   0.423   8.348 -0.8766  0.3909 -0.8230
13199SOL     OW44916   8.742   3.731   6.721  0.3428  0.3897  0.4166
13199SOL    HW144917   8.689   3.652   6.728  1.1903 -0.0714  2.1134
13199SOL    HW244918   8.814   3.717   6.782  1.3102  1.8658 -0.3247
13200SOL     OW44919   6.961   9.795   1.514  0.2295 -0.5441 -0.3183
13200SOL    HW144920   6.994   9.762   1.598  0.2846  0.2092 -0.0383
13200SOL    HW244921   7.010   9.745   1.448  0.6057 -0.7278  0.0963
13201SOL     OW44922   5.841   0.042  10.597 -0.1699 -0.4492  1.0100
13201SOL    HW144923   5.803  -0.046  10.599  0.0904 -0.5937  0.0442
13201SOL    HW244924   5.935   0.028  10.587 -0.2968 -0.0935 -1.3348
13202SOL     OW44925   6.116   9.416  10.857  0.2159 -0.3520 -0.2250
13202SOL    HW144926   6.140   9.327  10.883 -1.4343 -0.9220 -0.4790
13202SOL    HW244927   6.046   9.403  10.792 -2.5698  1.0811  2.2594
13203SOL     OW44928   4.199   6.236   9.095 -0.1105 -0.4921  0.0550
13203SOL    HW144929   4.287   6.268   9.074 -0.2602  0.7965  1.2414
13203SOL    HW244930   4.164   6.204   9.012  0.3732  1.7280 -1.0752
13204SOL     OW44931   6.774   3.960  10.617  0.3372  0.0016 -0.2777
13204SOL    HW144932   6.743   4.033  10.670 -0.0207 -0.4243  0.1037
13204SOL    HW244933   6.701   3.899  10.615  1.1438 -1.0363  0.6690
13205SOL     OW44934   8.223   8.428   1.418 -0.0180 -0.3640  0.2743
13205SOL    HW144935   8.246   8.455   1.329  1.0105 -1.1277  0.2867
13205SOL    HW244936   8.306   8.431   1.466  0.0238 -2.7261  0.4658
13206SOL     OW44937   6.734   3.028   0.789  0.0938 -0.3437  0.2189
13206SOL    HW144938   6.766   3.010   0.877  1.5138 -0.9659 -0.3745
13206SOL    HW244939   6.809   3.009   0.733 -0.3521  1.3415 -1.0251
13207SOL     OW44940   9.655   7.949   7.109 -0.0082 -0.0032  0.3967
13207SOL    HW144941   9.715   7.991   7.172 -1.0213  1.6542  0.3270
13207SOL    HW244942   9.568   7.975   7.139 -0.7331 -2.2421  0.4132
13208SOL     OW44943   1.917   7.710   9.251 -0.3920 -0.2636 -0.0198
13208SOL    HW144944   1.957   7.766   9.185  0.1643  2.0269  2.1435
13208SOL    HW244945   1.823   7.726   9.242 -0.6465 -2.3908 -2.2420
13209SOL     OW44946   9.437  10.931   0.427  0.0439 -0.4830  0.6504
13209SOL    HW144947   9.432  11.000   0.493  1.7748 -2.0124  2.5190
13209SOL    HW244948   9.527  10.899   0.433 -0.7789 -3.1563  0.1893
13210SOL     OW44949   5.742   0.544   9.816 -0.2667 -0.3242  0.1944
13210SOL    HW144950   5.703   0.622   9.855 -0.6509 -0.1787 -0.4687
13210SOL    HW244951   5.829   0.571   9.789  0.7236 -0.9067  2.5654
13211SOL     OW44952   7.529   6.074   0.104  0.1003 -0.3841 -0.7412
13211SOL    HW144953   7.465   6.123   0.052 -0.4389  0.8884  1.0067
13211SOL    HW244954   7.610   6.080   0.054 -0.9443 -1.4875 -2.6973
13212SOL     OW44955  11.766   7.275   1.897 -0.0691 -0.1669 -0.0372
13212SOL    HW144956  11.726   7.313   1.975  0.3209 -0.8125  0.4885
13212SOL    HW244957  11.706   7.205   1.871  0.5971 -0.9956  0.6271
13213SOL     OW44958   9.388   0.150   7.261  0.0308 -0.4117 -0.2237
13213SOL    HW144959   9.328   0.219   7.291  1.2747  0.8279 -0.4726
13213SOL    HW244960   9.421   0.111   7.341  0.3852  0.2452 -0.0426
13214SOL     OW44961   7.472   6.203   9.751  0.3837  0.0931 -0.2725
13214SOL    HW144962   7.492   6.259   9.676 -0.3303 -1.3166 -1.5445
13214SOL    HW244963   7.518   6.121   9.734 -1.2652 -0.9069 -0.1103
13215SOL     OW44964  11.368   8.194   9.252  0.7610 -0.1601 -0.0804
13215SOL    HW144965  11.334   8.268   9.203  2.8641  0.4116 -0.7848
13215SOL    HW244966  11.354   8.218   9.344 -1.7707 -0.5432 -0.2899
13216SOL     OW44967   5.766   9.218   6.573  0.4434 -0.2407 -0.2633
13216SOL    HW144968   5.821   9.292   6.548  0.6999 -0.8978 -1.7299
13216SOL    HW244969   5.743   9.175   6.491  0.5765 -1.9895  0.5527
13217SOL     OW44970   7.561   3.900   8.724  0.2489  0.0176 -0.5669
13217SOL    HW144971   7.509   3.839   8.672 -0.0046  1.0636 -1.5782
13217SOL    HW244972   7.651   3.867   8.717  0.3238  0.4850 -2.2318
13218SOL     OW44973   8.019  11.516   6.108  0.1713  0.2619  0.1755
13218SOL    HW144974   8.057  11.570   6.177 -0.3241  0.6833  0.1221
13218SOL    HW244975   7.942  11.477   6.149  0.4755 -0.3459  0.1883
13219SOL     OW44976   6.008   3.685   9.051 -0.0001 -0.1517 -0.2532
13219SOL    HW144977   6.046   3.755   9.103 -0.6248  0.2495 -0.3236
13219SOL    HW244978   5.960   3.631   9.114  0.8722 -0.8039 -0.1246
13220SOL     OW44979   1.971   6.797   3.045 -0.3403  0.0696 -0.0444
13220SOL    HW144980   1.925   6.881   3.040  1.1806  1.0167  0.9530
13220SOL    HW244981   1.913   6.740   3.095 -0.9697  0.8163  0.0960
13221SOL     OW44982   6.914   5.516   8.552 -0.5084  0.2352  0.6025
13221SOL    HW144983   6.966   5.596   8.539  0.6199 -0.5583  0.0563
13221SOL    HW244984   6.980   5.447   8.558 -1.3444 -0.4468  2.9183
13222SOL     OW44985   3.140   6.308   4.463 -0.4798 -0.5929  0.0828
13222SOL    HW144986   3.084   6.348   4.530 -1.5969 -1.5130 -0.2561
13222SOL    HW244987   3.219   6.361   4.463 -0.4806 -0.5130  2.0704
13223SOL     OW44988   5.382   5.595   9.814  0.1756 -0.4939  0.2929
13223SOL    HW144989   5.437   5.609   9.737 -1.3315  0.2955 -0.6744
13223SOL    HW244990   5.404   5.506   9.843  0.6102 -0.8984 -1.1876
13224SOL     OW44991   2.765   7.525   1.755  0.1159 -0.1438  0.4305
13224SOL    HW144992   2.689   7.558   1.802  0.0158  0.8187 -0.3639
13224SOL    HW244993   2.832   7.512   1.822 -0.8277 -1.3157  1.1922
13225SOL     OW44994  10.513   0.352  11.652 -0.0543  0.2501 -0.1189
13225SOL    HW144995  10.483   0.267  11.684  0.0023  0.2313 -0.1165
13225SOL    HW244996  10.456   0.370  11.577  0.8855 -0.4780 -1.0373
13226SOL     OW44997   2.870   0.760  10.706  0.0021 -0.0279  0.3680
13226SOL    HW144998   2.849   0.666  10.703  2.2080 -0.5520 -0.8961
13226SOL    HW244999   2.952   0.764  10.756 -0.5928  1.3702  1.2812
13227SOL     OW45000   5.204   9.807   1.590 -0.5353 -0.7083  0.6889
13227SOL    HW145001   5.172   9.717   1.585 -1.1612 -0.4248 -1.7800
13227SOL    HW245002   5.153   9.846   1.661 -0.4569 -2.2092  1.6077
13228SOL     OW45003  10.446   0.237   6.863  0.2349 -0.3892 -0.2608
13228SOL    HW145004  10.496   0.276   6.791 -0.9860 -0.3243 -1.1176
13228SOL    HW245005  10.509   0.226   6.933  1.4375 -0.3023 -1.2927
13229SOL     OW45006  11.380   9.015  11.455 -0.4887  0.1044 -0.0434
13229SOL    HW145007  11.370   9.099  11.499 -1.3564 -0.5991  1.1612
13229SOL    HW245008  11.440   8.965  11.510 -0.6034 -0.3465 -0.3204
13230SOL     OW45009   4.895   8.258   5.081  0.4500  0.3207  0.2566
13230SOL    HW145010   4.835   8.317   5.126 -0.8232 -0.4394 -0.3877
13230SOL    HW245011   4.968   8.246   5.142 -0.3427  0.7824  1.3106
13231SOL     OW45012  11.227   0.504   2.841  0.1590 -0.1574 -0.0221
13231SOL    HW145013  11.300   0.478   2.899  0.3727 -1.6275 -0.9035
13231SOL    HW245014  11.267   0.565   2.779  0.8150 -1.3469 -0.8214
13232SOL     OW45015   2.897   7.943   4.789  0.1788 -0.0857  0.4182
13232SOL    HW145016   2.950   7.895   4.853 -0.5638  0.1432  1.2309
13232SOL    HW245017   2.886   7.882   4.716  0.5554 -0.5670  0.7576
13233SOL     OW45018   2.144  10.352   3.370  0.4414 -0.2067  0.1023
13233SOL    HW145019   2.174  10.291   3.438 -1.5098 -1.9527 -0.5046
13233SOL    HW245020   2.176  10.314   3.288 -1.5062 -0.9845 -0.3592
13234SOL     OW45021   3.758   6.904   6.634 -0.1567  0.2947 -0.2985
13234SOL    HW145022   3.733   6.942   6.719  0.4627 -2.3691  1.2102
13234SOL    HW245023   3.853   6.890   6.642 -0.3317 -1.3510 -0.7907
13235SOL     OW45024  10.021   8.330  10.841  0.3351 -0.5293  0.1673
13235SOL    HW145025  10.085   8.338  10.911 -0.0172 -2.7478  0.8000
13235SOL    HW245026  10.073   8.328  10.761  0.6989  2.8796  0.1555
13236SOL     OW45027   1.520   3.918   6.009 -0.6027  0.8233  0.1880
13236SOL    HW145028   1.540   3.899   5.918 -0.7084 -0.3651  0.3911
13236SOL    HW245029   1.485   4.007   6.009 -1.6286  0.4407 -1.0885
13237SOL     OW45030   5.713   1.009   5.105 -0.3587  0.0441  0.0534
13237SOL    HW145031   5.619   1.018   5.091 -0.3537 -0.0355 -0.0306
13237SOL    HW245032   5.751   1.091   5.073 -0.4657  0.3614  0.7132
13238SOL     OW45033   2.596   9.363   2.475 -0.1520  0.7850  0.1494
13238SOL    HW145034   2.572   9.402   2.559 -0.4253  1.3097 -0.1662
13238SOL    HW245035   2.664   9.298   2.496 -1.6353 -0.5501  1.0291
13239SOL     OW45036   8.938   1.407   5.304  0.3861  0.1056 -0.1127
13239SOL    HW145037   8.968   1.464   5.233 -1.4458 -1.5328 -2.3284
13239SOL    HW245038   8.844   1.425   5.312  0.1478 -1.2411  0.4240
13240SOL     OW45039   6.420   7.883   1.046  0.4482 -0.0694  0.3113
13240SOL    HW145040   6.470   7.819   1.097 -0.5396 -0.4907  0.7828
13240SOL    HW245041   6.479   7.908   0.975  0.2691 -2.7737 -0.8966
13241SOL     OW45042   0.870   9.212   7.417 -0.1858  0.0935 -0.0027
13241SOL    HW145043   0.959   9.197   7.386 -0.2434  1.0919 -0.6934
13241SOL    HW245044   0.854   9.305   7.403 -1.4041 -0.0980 -0.0667
13242SOL     OW45045   0.963   3.350   8.814 -0.0408  0.6000 -0.4625
13242SOL    HW145046   0.995   3.264   8.841 -0.5570  0.2114 -1.0631
13242SOL    HW245047   0.945   3.396   8.896 -0.0327  0.0312 -0.1395
13243SOL     OW45048   3.195   6.046   4.446  0.0403  0.3694 -0.1902
13243SOL    HW145049   3.282   6.064   4.412 -0.0947 -0.8541 -1.2860
13243SOL    HW245050   3.150   6.131   4.444  1.7289  1.4053  2.1861
13244SOL     OW45051   8.795   3.622  11.591  0.1117  0.2666 -0.3249
13244SOL    HW145052   8.865   3.645  11.530 -1.4591  0.5074 -2.1257
13244SOL    HW245053   8.767   3.535  11.565 -1.7351  1.0467 -1.1602
13245SOL     OW45054   0.948   1.558   9.260 -0.0168  0.0161  0.5342
13245SOL    HW145055   0.877   1.589   9.204 -0.3506 -0.0040  0.9382
13245SOL    HW245056   0.925   1.590   9.348 -0.6114 -1.7152  1.0525
13246SOL     OW45057   8.409   4.635   6.292 -0.1000 -0.3846 -0.4160
13246SOL    HW145058   8.459   4.714   6.310 -0.9538  0.3803 -1.3044
13246SOL    HW245059   8.335   4.639   6.352 -1.1314  0.4587 -1.6783
13247SOL     OW45060   0.622  10.605  10.779  0.5069 -0.5576  0.0222
13247SOL    HW145061   0.621  10.536  10.846  0.8544 -1.3353 -0.7579
13247SOL    HW245062   0.650  10.561  10.700  0.7090  0.4906 -0.5028
13248SOL     OW45063   3.745   4.961  10.877  0.2760 -0.2550 -0.1946
13248SOL    HW145064   3.723   5.042  10.923 -2.2020 -0.0436 -1.6194
13248SOL    HW245065   3.806   4.988  10.808 -0.8809  0.5227 -0.9446
13249SOL     OW45066   7.545   9.709   5.655 -0.5140  0.1076 -0.2229
13249SOL    HW145067   7.607   9.753   5.714 -0.4817  0.0310 -0.2010
13249SOL    HW245068   7.481   9.669   5.713 -0.9692  0.7551 -0.2615
13250SOL     OW45069   8.320   4.490   4.566  0.3904 -0.6617  0.0324
13250SOL    HW145070   8.295   4.582   4.553  0.7130 -0.5162  0.4303
13250SOL    HW245071   8.241   4.447   4.597  0.6451 -0.1871  1.3784
13251SOL     OW45072   9.343   9.173   6.001  0.4044 -0.2659  0.0553
13251SOL    HW145073   9.344   9.129   5.916 -1.5039 -1.8770  0.7985
13251SOL    HW245074   9.303   9.258   5.984  0.3578 -0.4337 -0.7068
13252SOL     OW45075   5.119   0.114   8.267 -0.2102  0.1341  0.1650
13252SOL    HW145076   5.034   0.098   8.308  0.0807  0.3314  0.8592
13252SOL    HW245077   5.111   0.202   8.230 -0.4413 -0.0075 -0.1311
13253SOL     OW45078   8.096   0.558   1.229 -0.1116  0.4014  0.3850
13253SOL    HW145079   8.161   0.502   1.271  1.0166  1.1351 -0.3373
13253SOL    HW245080   8.132   0.646   1.235  0.6031  0.4571 -2.9000
13254SOL     OW45081   6.687  10.667  11.799  0.2416  0.4524  0.5333
13254SOL    HW145082   6.615  10.617  11.760  1.5638 -0.3059 -1.1019
13254SOL    HW245083   6.645  10.729  11.858 -1.5676 -1.8622  1.8681
13255SOL     OW45084   6.968  11.746   6.801  0.2796  0.6902  0.1490
13255SOL    HW145085   6.986  11.818   6.860  1.0064  0.7005 -0.0820
13255SOL    HW245086   6.911  11.783   6.733  0.1400  0.8860  0.3767
13256SOL     OW45087  10.468   1.509  11.011 -0.5335  0.6336  0.6054
13256SOL    HW145088  10.430   1.423  11.032 -0.2592  0.3586 -0.0157
13256SOL    HW245089  10.395   1.558  10.971 -0.9835  1.0676  1.8859
13257SOL     OW45090  10.825  11.691  10.881 -0.4703  0.4189  0.4270
13257SOL    HW145091  10.759  11.630  10.848 -0.0420 -0.0495  0.4207
13257SOL    HW245092  10.872  11.642  10.949 -0.1033  0.7261  0.3998
13258SOL     OW45093   1.653   0.162   7.746  0.3243 -0.3327  0.1601
13258SOL    HW145094   1.619   0.246   7.714 -0.0656 -0.0725  1.2348
13258SOL    HW245095   1.670   0.112   7.666  0.1991  0.6254 -0.4842
13259SOL     OW45096   0.519   1.875   4.298 -0.1548  0.3405  0.0618
13259SOL    HW145097   0.450   1.936   4.325 -1.8603 -1.0944 -0.8222
13259SOL    HW245098   0.534   1.820   4.375  2.2815  2.4952  1.2960
13260SOL     OW45099   3.584  11.001   5.509 -0.3082  0.8828 -0.1222
13260SOL    HW145100   3.546  11.088   5.497  1.5887  1.8347  0.4341
13260SOL    HW245101   3.661  11.016   5.564  0.6601 -1.0161 -0.8897
13261SOL     OW45102   5.753   0.999   7.259 -0.1578  0.0477  0.0781
13261SOL    HW145103   5.756   0.920   7.314 -0.6894 -0.5473 -0.7236
13261SOL    HW245104   5.744   0.965   7.170 -2.0239  1.0330 -0.1518
13262SOL     OW45105   3.172   2.014   4.444 -0.7693 -0.4142  0.2121
13262SOL    HW145106   3.152   1.997   4.536 -0.6654 -1.1626  0.1056
13262SOL    HW245107   3.168   1.928   4.402 -1.9760  0.0595 -0.7133
13263SOL     OW45108   5.535   9.613   3.599 -0.2131 -0.5531 -0.1119
13263SOL    HW145109   5.451   9.620   3.645 -0.0797 -2.6353  0.5713
13263SOL    HW245110   5.563   9.522   3.614  2.0252 -0.0021 -0.5621
13264SOL     OW45111  11.272   0.974   3.495  0.1129 -0.1823  0.4482
13264SOL    HW145112  11.213   0.900   3.508 -1.7657  1.1241 -0.2730
13264SOL    HW245113  11.345   0.957   3.555 -1.1039 -1.7157  1.5869
13265SOL     OW45114   5.329   1.380   6.103 -0.3608 -0.4357  0.1531
13265SOL    HW145115   5.352   1.298   6.060  2.0750 -0.0714  0.5896
13265SOL    HW245116   5.316   1.355   6.195  1.7856 -0.2033  0.5700
13266SOL     OW45117   2.744   8.527   6.879 -0.7016 -0.5929 -0.2406
13266SOL    HW145118   2.743   8.602   6.820 -1.3193 -1.0368 -0.8155
13266SOL    HW245119   2.653   8.515   6.905 -0.3666 -0.1032  1.2095
13267SOL     OW45120   4.353   1.267   6.140  0.7453 -0.3218 -0.4994
13267SOL    HW145121   4.329   1.305   6.224  1.3857  1.7487 -1.1949
13267SOL    HW245122   4.271   1.265   6.090  0.6864  0.0852 -0.4226
13268SOL     OW45123   4.606   2.119   5.260 -0.2694 -0.1751  0.0635
13268SOL    HW145124   4.636   2.208   5.279  0.0569 -0.7778  2.9804
13268SOL    HW245125   4.566   2.090   5.343 -3.3056 -1.6481 -1.7387
13269SOL     OW45126   0.916   7.310   6.643  0.2392 -0.0778 -0.1423
13269SOL    HW145127   0.847   7.353   6.593  1.3325  1.2122 -0.5885
13269SOL    HW245128   0.869   7.260   6.710 -1.1127  1.1528 -0.1201
13270SOL     OW45129   3.092   3.457   5.694  0.7168 -0.2847 -0.3922
13270SOL    HW145130   3.167   3.508   5.727 -0.5242  0.9507  0.6526
13270SOL    HW245131   3.119   3.366   5.706  3.0960  0.0331 -2.5100
13271SOL     OW45132   1.390   6.600   9.504 -0.0076  0.1169 -0.1851
13271SOL    HW145133   1.399   6.506   9.487  0.9219  0.7210 -3.8973
13271SOL    HW245134   1.479   6.634   9.500 -0.3691  1.2520  0.7581
13272SOL     OW45135   3.573   2.242  11.509  0.3597  0.2842  0.2209
13272SOL    HW145136   3.577   2.328  11.468 -1.1399  0.7343  0.9350
13272SOL    HW245137   3.616   2.183  11.447 -1.3911  1.0078 -1.7927
13273SOL     OW45138   9.659   2.382   9.386  0.5776  0.3290  0.2594
13273SOL    HW145139   9.615   2.315   9.334  1.8348  0.2421 -0.7561
13273SOL    HW245140   9.656   2.349   9.476 -1.7461  0.5408  0.3208
13274SOL     OW45141   4.121   9.409   5.733  0.5941 -0.1220  0.1178
13274SOL    HW145142   4.195   9.404   5.673  1.7897  1.7961  1.3525
13274SOL    HW245143   4.054   9.457   5.684 -0.2520 -2.5826 -1.3114
13275SOL     OW45144   7.242   4.214   6.700 -0.3517  0.0897 -0.1982
13275SOL    HW145145   7.153   4.205   6.735  0.1998 -0.1720  1.2406
13275SOL    HW245146   7.244   4.301   6.661 -0.2120  1.7476  3.1367
13276SOL     OW45147  11.787   3.877   3.620  0.5342  0.2277 -0.4619
13276SOL    HW145148  11.780   3.915   3.708 -1.2862 -0.5454 -0.2233
13276SOL    HW245149  11.863   3.920   3.581  0.2177  2.0219  0.7773
13277SOL     OW45150   0.274  10.545   9.778  0.2600  0.5541 -0.2079
13277SOL    HW145151   0.225  10.581   9.704 -1.4461 -1.3840 -0.1499
13277SOL    HW245152   0.324  10.473   9.740 -1.6310 -1.3102  0.5961
13278SOL     OW45153   2.054   1.256   7.421 -0.6061 -0.3001 -0.3324
13278SOL    HW145154   2.010   1.279   7.503  2.0364  1.6172  0.7049
13278SOL    HW245155   2.087   1.167   7.437  0.4193  0.2738  1.0389
13279SOL     OW45156   3.682   8.879   1.528 -0.1023  0.2966  0.2457
13279SOL    HW145157   3.702   8.916   1.614 -1.2409 -2.5632  1.8832
13279SOL    HW245158   3.596   8.913   1.507 -0.6520 -0.4468  1.1940
13280SOL     OW45159   9.593   6.389   5.924  0.0513 -0.3494 -0.7699
13280SOL    HW145160   9.554   6.379   6.010  1.3515  0.6338 -0.0256
13280SOL    HW245161   9.680   6.425   5.941  0.2471  0.0954 -2.5088
13281SOL     OW45162   1.333  11.085   1.770 -0.0313 -0.0572  1.0322
13281SOL    HW145163   1.407  11.134   1.805  0.7691 -1.5150  1.4479
13281SOL    HW245164   1.261  11.149   1.767  1.4284  1.6265 -0.2074
13282SOL     OW45165   8.214   1.428   9.602  0.9561  0.2986  0.2415
13282SOL    HW145166   8.182   1.347   9.563  0.5165 -0.5594  2.2408
13282SOL    HW245167   8.299   1.405   9.639  0.6300  0.6072  1.2160
13283SOL     OW45168  10.936  11.394  10.063  0.2371  0.2183  0.2870
13283SOL    HW145169  10.884  11.372  10.140 -1.0326 -0.7913 -0.8173
13283SOL    HW245170  10.990  11.469  10.090 -2.0987  1.6141  1.3649
13284SOL     OW45171   9.486   3.152   5.413  0.0671 -0.2185  0.9572
13284SOL    HW145172   9.572   3.128   5.379 -0.5481 -0.4496 -0.5246
13284SOL    HW245173   9.432   3.166   5.335 -1.4754 -0.9192  1.8423
13285SOL     OW45174   8.790   8.948   2.463 -0.1499 -0.7692  0.0602
13285SOL    HW145175   8.859   8.990   2.410 -1.7537  1.3331 -0.4922
13285SOL    HW245176   8.816   8.965   2.553  0.8983 -1.4926 -0.0777
13286SOL     OW45177   6.613   1.574   0.465 -0.0098 -0.5140  0.4287
13286SOL    HW145178   6.640   1.649   0.412  0.4176 -1.2790 -0.4534
13286SOL    HW245179   6.534   1.542   0.423  0.1469 -0.9300  0.4513
13287SOL     OW45180   6.062   2.801   4.773  0.2523 -0.3508  0.2018
13287SOL    HW145181   6.103   2.835   4.852  0.4954 -0.0251 -0.0618
13287SOL    HW245182   6.117   2.832   4.702  0.8662 -1.8392 -0.0199
13288SOL     OW45183   8.013   5.705   6.805 -0.3425  0.5225 -0.0056
13288SOL    HW145184   7.988   5.645   6.875  1.1679 -0.2585 -0.0843
13288SOL    HW245185   8.096   5.743   6.835  0.2862  0.2408 -1.3046
13289SOL     OW45186   8.434   3.806   7.698  0.7635  0.7599  0.4844
13289SOL    HW145187   8.520   3.806   7.655  1.5919  1.4490  2.0774
13289SOL    HW245188   8.418   3.714   7.719  0.6593  0.5030 -0.6553
13290SOL     OW45189   1.341   5.275   7.194 -0.0584  0.5430 -0.2803
13290SOL    HW145190   1.367   5.185   7.176  0.3948  0.4814  0.6155
13290SOL    HW245191   1.416   5.328   7.165  0.7310  0.4345  1.4034
13291SOL     OW45192   6.845   4.262   9.259  0.3163 -0.2427 -0.7134
13291SOL    HW145193   6.754   4.264   9.228  0.2683  0.4021 -0.5345
13291SOL    HW245194   6.892   4.215   9.190 -0.0411 -0.0476 -1.0962
13292SOL     OW45195   5.020  10.747   5.299 -0.1335 -0.0701 -0.1059
13292SOL    HW145196   4.987  10.670   5.345 -0.5123  0.2116  0.0924
13292SOL    HW245197   4.958  10.762   5.228 -0.2095  0.2093  0.0171
13293SOL     OW45198   6.811   7.665   4.537 -0.2648 -0.0718 -0.6281
13293SOL    HW145199   6.873   7.603   4.500  0.9659  0.9866 -0.4361
13293SOL    HW245200   6.776   7.712   4.462  1.2998  1.2222 -0.6202
13294SOL     OW45201   4.311   6.932   8.781 -0.3007  0.0451  0.4356
13294SOL    HW145202   4.372   6.952   8.853 -0.0172 -3.4558  1.3266
13294SOL    HW245203   4.262   6.856   8.812 -1.0699 -0.7903 -2.5799
13295SOL     OW45204   6.623   7.873  10.376  0.1835  0.8825  0.0378
13295SOL    HW145205   6.637   7.803  10.440  0.0712 -1.5125 -2.3739
13295SOL    HW245206   6.531   7.897  10.385  0.8229  2.7672  2.7017
13296SOL     OW45207   8.951   5.301   3.522 -0.0234  0.0259  0.4297
13296SOL    HW145208   8.933   5.390   3.551  2.0588  0.3574  0.8426
13296SOL    HW245209   8.940   5.304   3.427 -1.1756  0.3934  0.5673
13297SOL     OW45210   6.037  11.461   2.326  0.1022 -0.0479 -0.4100
13297SOL    HW145211   6.099  11.519   2.372  2.5868 -2.7169 -0.1158
13297SOL    HW245212   6.024  11.388   2.386 -0.1159 -1.4860 -2.1282
13298SOL     OW45213   7.003   4.972  10.343  0.2246 -0.3039 -0.5653
13298SOL    HW145214   7.068   4.950  10.276 -0.1405  0.4684 -1.1891
13298SOL    HW245215   6.985   4.889  10.387  1.6713 -0.5160 -0.3409
13299SOL     OW45216  10.720   7.650   1.762 -0.6386 -0.0799  0.2558
13299SOL    HW145217  10.630   7.675   1.743 -0.7532 -1.9777 -2.2381
13299SOL    HW245218  10.771   7.728   1.743 -1.5133  0.1851 -1.1658
13300SOL     OW45219  10.352   8.733   9.657  0.3671  0.1928  0.1669
13300SOL    HW145220  10.283   8.667   9.649  0.1512  0.6182 -3.3635
13300SOL    HW245221  10.430   8.692   9.621  1.5345  0.3851  2.3040
13301SOL     OW45222   0.137   1.588  11.289 -0.4144  0.2315 -0.3511
13301SOL    HW145223   0.155   1.553  11.376  0.5032  0.4620 -0.4449
13301SOL    HW245224   0.073   1.658  11.304 -0.1651  0.3537  0.1551
13302SOL     OW45225   2.560   7.583   5.487  0.0007  0.5746 -0.6423
13302SOL    HW145226   2.599   7.583   5.399  1.2542  0.2144 -0.1062
13302SOL    HW245227   2.480   7.531   5.477  0.2128  0.3953 -1.5359
13303SOL     OW45228   6.853   6.851  11.275  0.5979 -0.1396  0.3365
13303SOL    HW145229   6.939   6.852  11.317  1.2326 -1.2601 -0.8609
13303SOL    HW245230   6.804   6.919  11.320  1.5608 -0.5824  2.1892
13304SOL     OW45231   3.968   7.990   6.689 -0.3124  0.0980 -0.0200
13304SOL    HW145232   4.043   7.937   6.717 -0.1231 -0.8385 -2.1151
13304SOL    HW245233   4.002   8.079   6.685 -0.3306  0.2970  2.4630
13305SOL     OW45234   0.020   1.110  11.146 -0.7197 -0.3462  0.9229
13305SOL    HW145235   0.049   1.053  11.217  0.2744  0.7188  1.4174
13305SOL    HW245236   0.101   1.151  11.114 -1.2124 -0.4296 -0.4939
13306SOL     OW45237  11.285   7.887  10.027  0.6380 -0.0255  0.0237
13306SOL    HW145238  11.301   7.923   9.940  1.0928 -1.5894 -0.5799
13306SOL    HW245239  11.373   7.874  10.064  0.4341  1.5771  1.1528
13307SOL     OW45240   7.691   3.912   6.773 -0.2428 -0.2133  0.4050
13307SOL    HW145241   7.648   3.833   6.805 -0.4059  0.2560  1.3730
13307SOL    HW245242   7.773   3.881   6.734  0.0130 -0.7885  1.3859
13308SOL     OW45243   0.918   7.494   5.860  0.3280 -0.3919 -0.1727
13308SOL    HW145244   0.951   7.408   5.835 -0.9487 -0.8038 -0.5264
13308SOL    HW245245   0.945   7.552   5.789 -1.1308 -1.0643 -1.3408
13309SOL     OW45246  11.402  10.313   8.763 -0.1032  0.1380  0.4959
13309SOL    HW145247  11.315  10.342   8.793  0.7760  1.9594  1.4550
13309SOL    HW245248  11.408  10.344   8.673 -0.8860 -1.0783 -0.0048
13310SOL     OW45249   9.776   3.497   7.903 -0.3147 -0.9476  0.2842
13310SOL    HW145250   9.821   3.495   7.987 -0.7770 -0.0199  0.5555
13310SOL    HW245251   9.824   3.433   7.849 -0.0013 -1.5248  1.2255
13311SOL     OW45252   4.859   8.795  10.904 -0.0640 -0.2583 -0.1908
13311SOL    HW145253   4.883   8.759  10.989  0.4096 -0.8845 -0.5786
13311SOL    HW245254   4.811   8.725  10.861 -0.0780 -0.0354 -0.5404
13312SOL     OW45255   9.028  11.437   2.218  0.4873  0.1100  0.1695
13312SOL    HW145256   9.063  11.502   2.280 -1.5356  1.1030  0.3432
13312SOL    HW245257   8.985  11.489   2.151  1.2532 -1.0138 -1.2364
13313SOL     OW45258   5.670   7.301   2.321 -0.1129  0.5847 -0.6322
13313SOL    HW145259   5.624   7.231   2.369  0.3522  1.1975  0.7796
13313SOL    HW245260   5.746   7.257   2.283  0.5220  0.3957  0.7729
13314SOL     OW45261   0.558   7.124  11.338 -0.1070 -0.0651 -0.5946
13314SOL    HW145262   0.643   7.083  11.352  0.2916  1.1094  0.6892
13314SOL    HW245263   0.553   7.138  11.244  0.0976 -2.2178 -0.9728
13315SOL     OW45264   2.529   4.355   8.929 -0.0099  0.5049  0.7802
13315SOL    HW145265   2.485   4.330   8.848  1.8076  0.8498 -0.3754
13315SOL    HW245266   2.527   4.277   8.983 -0.4370 -0.0197  0.0259
13316SOL     OW45267   1.255  10.666  10.393 -0.6305 -0.1074  0.2678
13316SOL    HW145268   1.214  10.580  10.388  0.5158 -0.7382  1.1155
13316SOL    HW245269   1.285  10.673  10.484 -2.4266  2.0298  0.7778
13317SOL     OW45270   1.795  11.431  10.278  0.0500 -0.1207 -0.1652
13317SOL    HW145271   1.705  11.463  10.266  0.0602  0.4333  1.0227
13317SOL    HW245272   1.813  11.379  10.200 -1.6777 -1.0994  0.0363
13318SOL     OW45273   9.061   6.875   8.654  0.3471  0.4629 -0.7127
13318SOL    HW145274   9.123   6.832   8.712 -1.2363 -0.6268  0.2356
13318SOL    HW245275   9.004   6.926   8.712 -0.0443  0.9380 -1.4878
13319SOL     OW45276   4.561   0.454   0.653 -0.0560  0.8388 -0.0821
13319SOL    HW145277   4.485   0.404   0.683  1.4445 -0.7376  1.2225
13319SOL    HW245278   4.560   0.444   0.558  0.4828 -2.1795  0.1516
13320SOL     OW45279  10.079   0.739   9.669 -0.0231  0.0264 -0.7642
13320SOL    HW145280  10.148   0.676   9.649 -0.3292 -0.4221 -0.4592
13320SOL    HW245281  10.124   0.815   9.705  0.2074 -0.9444  1.0965
13321SOL     OW45282  11.219   0.767   9.485 -0.0121 -0.2308  0.8523
13321SOL    HW145283  11.137   0.782   9.438 -0.0965  0.9645  1.3438
13321SOL    HW245284  11.250   0.683   9.452 -0.9450 -0.2491 -0.0512
13322SOL     OW45285   8.213   1.237   6.257  1.1648  0.0339 -0.0672
13322SOL    HW145286   8.141   1.222   6.196  0.3418 -1.5134  1.2029
13322SOL    HW245287   8.188   1.187   6.336  1.4122  3.1377  2.1511
13323SOL     OW45288   4.808   4.422   1.713 -0.2829 -0.0875 -0.2698
13323SOL    HW145289   4.881   4.393   1.768 -0.9287 -1.9439 -0.3063
13323SOL    HW245290   4.732   4.377   1.749 -1.2493  1.0532 -0.8263
13324SOL     OW45291   6.883   7.799  11.502 -0.3889  0.1688  0.4211
13324SOL    HW145292   6.875   7.890  11.473 -1.1378 -0.1024 -0.2519
13324SOL    HW245293   6.950   7.802  11.570 -1.7911  1.5733  1.8509
13325SOL     OW45294   8.959  11.513   4.438  0.2422 -0.7741  0.1951
13325SOL    HW145295   8.970  11.418   4.447 -1.1744 -0.8356  1.9769
13325SOL    HW245296   8.866  11.528   4.455  0.2697  0.8745 -0.9091
13326SOL     OW45297   0.620   3.620   2.302 -0.4049  0.1547  0.1982
13326SOL    HW145298   0.679   3.588   2.233 -1.0480 -1.5296  0.3898
13326SOL    HW245299   0.673   3.615   2.382 -0.2574  0.3246  0.1132
13327SOL     OW45300   4.904   1.370   9.348  0.5614  0.0242 -0.0895
13327SOL    HW145301   4.900   1.403   9.438  0.3848  2.0194 -0.7753
13327SOL    HW245302   4.997   1.359   9.330  0.5567 -1.5102  0.6848
13328SOL     OW45303   2.381  10.651   6.587 -0.1391 -0.2222  0.1332
13328SOL    HW145304   2.380  10.746   6.575  2.8015 -0.0460  0.5764
13328SOL    HW245305   2.383  10.638   6.681 -3.0053 -0.8995  0.1879
13329SOL     OW45306   7.466  10.587   1.789  0.2314  0.3506  0.5306
13329SOL    HW145307   7.445  10.677   1.765 -0.1936  0.3114  0.7438
13329SOL    HW245308   7.537  10.562   1.730  0.8289  1.0533  0.9407
13330SOL     OW45309   5.790   0.883   1.061 -0.5361 -0.7919 -0.2970
13330SOL    HW145310   5.882   0.890   1.084 -0.4733 -0.1149 -0.7081
13330SOL    HW245311   5.753   0.969   1.083 -0.7851 -0.6263 -1.3206
13331SOL     OW45312  10.915   9.820   4.340  0.4499  0.0847  0.0439
13331SOL    HW145313  10.874   9.906   4.349 -0.1571 -0.2039  0.0707
13331SOL    HW245314  10.998   9.828   4.389 -0.6850 -0.0607  2.1063
13332SOL     OW45315   4.635   2.815   5.601 -0.0420  0.4268  0.2618
13332SOL    HW145316   4.543   2.807   5.625 -0.0809  0.4105  0.1047
13332SOL    HW245317   4.669   2.726   5.605  0.1905  0.5430  1.2186
13333SOL     OW45318   0.097   1.531   7.374  0.0523  0.6734 -0.4590
13333SOL    HW145319   0.133   1.486   7.451 -0.1272  0.1394 -0.6801
13333SOL    HW245320   0.160   1.600   7.356  0.1403  0.7554  0.1199
13334SOL     OW45321   8.978  11.030   4.747  0.0415  0.5562 -0.1121
13334SOL    HW145322   9.027  10.953   4.778 -0.9214 -0.6332 -1.3977
13334SOL    HW245323   8.943  11.002   4.662 -1.6235  1.8943  0.1020
13335SOL     OW45324   5.346   8.542  11.237 -0.2357  0.4883  0.0759
13335SOL    HW145325   5.411   8.494  11.288  0.0424  1.7069  0.8920
13335SOL    HW245326   5.280   8.568  11.301 -0.5366  0.9293 -0.4116
13336SOL     OW45327   6.676  10.206  11.283  0.2598 -0.2651 -0.0219
13336SOL    HW145328   6.768  10.208  11.257  0.4842  1.3334  0.7582
13336SOL    HW245329   6.669  10.130  11.342  2.0866  1.7488  3.1000
13337SOL     OW45330   3.050   8.234   0.617 -0.3953  0.3706  0.0659
13337SOL    HW145331   3.092   8.148   0.612  0.0444  0.6033 -0.3394
13337SOL    HW245332   3.120   8.293   0.643 -0.7234  0.5899  0.4546
13338SOL     OW45333   5.353  10.458  11.341  0.3988  0.0402 -0.0513
13338SOL    HW145334   5.329  10.441  11.432 -0.1371 -0.5727 -0.2999
13338SOL    HW245335   5.317  10.545  11.323 -0.5241 -0.3243 -0.0214
13339SOL     OW45336  11.532   1.650   9.201  0.4909  0.1368 -0.0706
13339SOL    HW145337  11.529   1.567   9.154 -1.3530  1.2721 -2.0979
13339SOL    HW245338  11.500   1.628   9.289  0.2684 -1.3431 -0.4910
13340SOL     OW45339   0.764   5.402   9.947 -0.5682  0.2777  0.3775
13340SOL    HW145340   0.798   5.313   9.954 -1.0019  0.1220  0.4619
13340SOL    HW245341   0.693   5.396   9.884  1.9755  1.2864 -2.8788
13341SOL     OW45342  10.560   2.170   8.890  0.0942  0.5279 -0.0184
13341SOL    HW145343  10.652   2.146   8.882  0.3531  1.6607 -0.6140
13341SOL    HW245344  10.530   2.124   8.968  1.3709  0.7617  0.6346
13342SOL     OW45345   7.399   1.683   7.569  0.0967  0.3945 -0.8887
13342SOL    HW145346   7.451   1.604   7.556 -0.7079  0.0134 -1.8432
13342SOL    HW245347   7.369   1.677   7.660  1.6491  0.5916 -0.3405
13343SOL     OW45348   7.008   6.236   0.112 -0.5627 -0.1957 -0.3927
13343SOL    HW145349   6.955   6.235   0.191  0.7901  0.7500  0.5843
13343SOL    HW245350   7.017   6.329   0.090 -0.5311 -0.4204 -1.3870
13344SOL     OW45351   9.898   4.490   2.418  0.4882  0.2807 -0.0988
13344SOL    HW145352   9.978   4.539   2.436  0.6672  0.2613 -0.7789
13344SOL    HW245353   9.869   4.457   2.503  0.7480  0.9846  0.2644
13345SOL     OW45354   2.524   1.600   0.280 -0.1799  0.7424  0.2968
13345SOL    HW145355   2.518   1.589   0.374 -0.0016 -0.0230  0.2257
13345SOL    HW245356   2.605   1.556   0.255 -1.1410 -0.6990 -0.4428
13346SOL     OW45357  10.328   3.478   9.254  0.1320  0.4652 -0.1683
13346SOL    HW145358  10.348   3.471   9.348  0.3207  0.6750 -0.1930
13346SOL    HW245359  10.247   3.528   9.250  0.6684  1.3465 -0.1646
13347SOL     OW45360   3.874   8.385   5.517  0.0447 -0.4299  0.1904
13347SOL    HW145361   3.886   8.329   5.593 -0.3597 -0.4169  0.2647
13347SOL    HW245362   3.806   8.342   5.465 -0.5014  0.1548  0.4120
13348SOL     OW45363   8.812   1.937   3.893  0.3715  0.6585 -0.5460
13348SOL    HW145364   8.775   1.921   3.806 -1.3308  0.0953  0.2284
13348SOL    HW245365   8.764   2.013   3.926  1.0883  0.9466 -0.1381
13349SOL     OW45366   0.347   9.276   5.485 -0.7315  0.4850 -0.2001
13349SOL    HW145367   0.280   9.237   5.541 -1.2970  0.4191 -0.9195
13349SOL    HW245368   0.354   9.217   5.410  1.0154 -0.1846  0.4342
13350SOL     OW45369   9.312   1.890   9.482  0.1132  0.2633 -0.6168
13350SOL    HW145370   9.306   1.804   9.440  0.7863 -0.1013  0.0135
13350SOL    HW245371   9.406   1.907   9.489 -0.0109  0.9186 -0.4663
13351SOL     OW45372  11.200   1.887   0.663  0.0019  0.0963 -0.4013
13351SOL    HW145373  11.157   1.871   0.579 -0.8273  1.7442 -0.3163
13351SOL    HW245374  11.136   1.936   0.714  1.2319  0.8379  0.4744
13352SOL     OW45375  10.621   8.470   4.384 -0.1257  0.1009 -0.0083
13352SOL    HW145376  10.599   8.477   4.291  0.5003 -0.9812 -0.2558
13352SOL    HW245377  10.578   8.545   4.424  0.3724  1.1381 -1.3173
13353SOL     OW45378   9.549   4.042   4.592  0.2969 -0.0259 -0.0668
13353SOL    HW145379   9.554   4.129   4.553  1.0700  0.2126  0.5305
13353SOL    HW245380   9.458   4.016   4.583 -0.1199  1.1843  0.4516
13354SOL     OW45381   9.261  10.971   5.387  0.3495 -1.1292  0.0163
13354SOL    HW145382   9.234  11.063   5.387  1.4854 -0.7903  0.2558
13354SOL    HW245383   9.354  10.973   5.406  0.5470 -2.2912 -0.7570
13355SOL     OW45384   5.536   8.946   9.255  1.1335 -0.1345 -0.6398
13355SOL    HW145385   5.511   8.927   9.346  0.2261 -0.0923 -0.8719
13355SOL    HW245386   5.529   9.041   9.247 -1.7136 -0.3225 -1.5358
13356SOL     OW45387   9.159   4.839   0.112  0.9406  0.1921 -0.1443
13356SOL    HW145388   9.166   4.864   0.020  0.8607  2.9740  0.5226
13356SOL    HW245389   9.067   4.853   0.135  1.0262 -0.1671  0.4497
13357SOL     OW45390   9.234  10.779  10.247  0.1676  0.0866  0.4355
13357SOL    HW145391   9.142  10.775  10.218  0.8212 -1.4737 -1.7102
13357SOL    HW245392   9.231  10.755  10.339 -1.7963  2.4762  1.0998
13358SOL     OW45393   7.466   5.515   0.100  0.2800 -0.0546  0.2494
13358SOL    HW145394   7.542   5.457   0.097  0.6049  0.3605 -2.4922
13358SOL    HW245395   7.491   5.590   0.047 -1.7182  0.5014  0.0012
13359SOL     OW45396   0.979   2.729   1.435 -0.0819  0.3773  0.2165
13359SOL    HW145397   0.889   2.724   1.467 -0.4162 -1.0359 -0.7981
13359SOL    HW245398   1.011   2.638   1.439  0.8299  0.6321 -0.6896
13360SOL     OW45399   4.453  10.222   8.868  0.0425 -0.0357  0.1720
13360SOL    HW145400   4.396  10.150   8.843 -0.3128  0.3123 -0.0121
13360SOL    HW245401   4.394  10.293   8.892  0.3930  0.2858  0.0950
13361SOL     OW45402   2.699   4.797  11.576  0.3208  0.7277 -0.0348
13361SOL    HW145403   2.770   4.788  11.512  0.9021 -0.5793  0.7555
13361SOL    HW245404   2.716   4.728  11.641 -0.6546  1.5523  1.1468
13362SOL     OW45405   8.629   4.756   3.429  0.2465  0.4440 -0.1439
13362SOL    HW145406   8.656   4.664   3.427  1.9803  0.9195 -0.8459
13362SOL    HW245407   8.594   4.772   3.341 -2.0229 -0.0287  0.6002
13363SOL     OW45408   5.512   1.764  10.494 -0.2567 -0.4366  0.0138
13363SOL    HW145409   5.437   1.797  10.543 -0.3113 -0.8885  0.2432
13363SOL    HW245410   5.520   1.672  10.521  0.8564 -0.1860  0.5753
13364SOL     OW45411   4.957   9.429   6.303  0.6896 -0.4190  0.2054
13364SOL    HW145412   5.027   9.485   6.271  1.0583 -0.8620  0.2205
13364SOL    HW245413   4.877   9.467   6.268  1.0249 -0.4739 -0.6393
13365SOL     OW45414   8.442   7.265   3.703 -0.2815  0.1055 -0.8169
13365SOL    HW145415   8.362   7.244   3.751  0.3616 -1.4507 -0.3703
13365SOL    HW245416   8.513   7.238   3.761  0.5260 -1.5881 -2.4648
13366SOL     OW45417   1.318   2.151   7.810  0.0375  0.1576  0.3000
13366SOL    HW145418   1.374   2.098   7.866 -1.7562 -0.9558  1.1347
13366SOL    HW245419   1.324   2.239   7.846  2.1576  0.3437 -0.3958
13367SOL     OW45420   4.378   3.138   5.998 -0.1914 -0.2129 -0.0984
13367SOL    HW145421   4.350   3.188   6.075 -0.5605 -0.7724  0.1450
13367SOL    HW245422   4.352   3.048   6.019  1.6647 -0.7450  0.0631
13368SOL     OW45423   7.275   5.581   8.758  0.4554 -0.2975  0.1951
13368SOL    HW145424   7.223   5.597   8.837  1.3421  0.9571  0.5592
13368SOL    HW245425   7.295   5.487   8.761 -0.7583 -0.5575  0.6736
13369SOL     OW45426  11.194  10.043   7.318  0.0713 -0.2700 -0.4475
13369SOL    HW145427  11.128  10.109   7.295  0.8072  0.0876 -1.6485
13369SOL    HW245428  11.144   9.964   7.336 -0.7500  0.2585 -0.3638
13370SOL     OW45429  11.742   5.689   6.184 -0.1520  0.0180  0.2066
13370SOL    HW145430  11.685   5.687   6.107 -1.3894 -2.1994  1.0965
13370SOL    HW245431  11.711   5.764   6.235  0.2894  1.1471 -1.1029
13371SOL     OW45432   0.961   4.936  10.384  0.1623  0.2174  0.4568
13371SOL    HW145433   1.000   4.877  10.448  2.5774 -1.0502 -1.9860
13371SOL    HW245434   0.912   4.879  10.325 -0.5502  1.1266  0.1499
13372SOL     OW45435   0.968   5.591   5.117  0.2543  0.1655  0.6030
13372SOL    HW145436   0.948   5.549   5.201  0.4080 -0.9419  0.1087
13372SOL    HW245437   1.049   5.640   5.133 -0.2040  0.6977  1.3328
13373SOL     OW45438   4.129   9.729   3.613  0.3531  0.1191 -0.1924
13373SOL    HW145439   4.158   9.818   3.631 -2.7340  0.7942  2.4442
13373SOL    HW245440   4.198   9.673   3.649  1.2417  1.4736  0.2761
13374SOL     OW45441  11.185   0.455   8.675  0.0604  0.7197  0.0830
13374SOL    HW145442  11.154   0.449   8.585 -0.7755 -1.7530  0.4696
13374SOL    HW245443  11.265   0.403   8.676  0.1589  0.8795  0.7505
13375SOL     OW45444   6.479   7.262  10.279 -0.1859 -0.0944  1.0055
13375SOL    HW145445   6.426   7.294  10.206 -0.6010 -1.0979  0.8556
13375SOL    HW245446   6.460   7.323  10.351 -0.0284  0.7032  0.3867
13376SOL     OW45447   4.433   9.752   6.725 -0.8727  0.1046 -0.4648
13376SOL    HW145448   4.428   9.840   6.689 -0.3450 -0.0830 -1.0076
13376SOL    HW245449   4.524   9.725   6.712 -1.3958 -1.1232 -1.7852
13377SOL     OW45450   1.122  10.654  10.960  0.2204 -0.3704  0.5248
13377SOL    HW145451   1.148  10.605  11.038 -0.9085 -0.4033  0.9038
13377SOL    HW245452   1.123  10.590  10.889  0.5786 -0.5025  0.6501
13378SOL     OW45453   2.982   9.547   0.885 -0.6556  0.0021 -0.2281
13378SOL    HW145454   2.935   9.616   0.838 -2.9072 -0.8725  0.5968
13378SOL    HW245455   2.998   9.480   0.819 -0.1185  0.5304 -0.6340
13379SOL     OW45456   8.214   6.487   7.962  0.2658 -0.1116  0.4669
13379SOL    HW145457   8.203   6.542   7.885 -0.0883  0.1510  0.7052
13379SOL    HW245458   8.201   6.545   8.036  1.2313 -0.2253  0.7440
13380SOL     OW45459   8.241   9.820   4.079  0.2077 -0.2966  0.1842
13380SOL    HW145460   8.258   9.890   4.142 -0.6578 -0.0137  0.1197
13380SOL    HW245461   8.299   9.749   4.106  1.4663  0.6057 -0.0546
13381SOL     OW45462   0.912   2.159   7.486  0.2089  0.0749 -0.2669
13381SOL    HW145463   0.827   2.141   7.525  0.1020  0.7893 -0.1434
13381SOL    HW245464   0.976   2.124   7.548  0.0168  0.1663 -0.0162
13382SOL     OW45465   2.908   7.535   2.003  0.2146 -0.2557 -0.0644
13382SOL    HW145466   2.876   7.587   2.078 -1.9906 -0.2429 -0.9326
13382SOL    HW245467   2.851   7.458   2.002  0.1970 -0.2547 -1.7068
13383SOL     OW45468   6.582   1.852   8.988 -0.2162 -0.6964  0.2862
13383SOL    HW145469   6.564   1.892   8.903  0.1065 -0.1098  0.4899
13383SOL    HW245470   6.593   1.926   9.048 -1.4966 -1.1131  1.0723
13384SOL     OW45471  11.535   0.412   0.081 -0.8986 -0.0528 -0.1595
13384SOL    HW145472  11.625   0.437   0.060 -0.7269  0.5295  1.1780
13384SOL    HW245473  11.485   0.436   0.003 -0.3494  2.3876  0.1605
13385SOL     OW45474   1.107   0.963   2.873  0.1919  0.6359 -0.4788
13385SOL    HW145475   1.095   1.044   2.922 -0.6789  0.3726 -0.2399
13385SOL    HW245476   1.085   0.893   2.934 -2.1302  0.3421 -1.5307
13386SOL     OW45477   6.371  10.735   6.075 -0.4763 -0.9745 -0.3477
13386SOL    HW145478   6.317  10.757   6.151 -0.9926 -0.2461 -0.9151
13386SOL    HW245479   6.427  10.812   6.063 -0.1288 -1.2476 -0.4713
13387SOL     OW45480   6.062   2.149   9.903  0.0326 -0.2147  0.1123
13387SOL    HW145481   6.032   2.072   9.952 -0.3697  0.4480  0.9482
13387SOL    HW245482   5.989   2.170   9.845 -0.7339  0.7422  1.3625
13388SOL     OW45483   1.891   0.742   1.763  0.2282 -0.3779  0.4223
13388SOL    HW145484   1.979   0.757   1.798  0.2776 -3.0075  1.6433
13388SOL    HW245485   1.835   0.739   1.841 -0.3017 -2.4863  0.0102
13389SOL     OW45486   3.483   3.912   2.194  0.1883 -0.1884  0.0585
13389SOL    HW145487   3.423   3.839   2.208 -0.6326  0.2497 -1.1051
13389SOL    HW245488   3.433   3.977   2.145  0.6018  1.5673  1.8013
13390SOL     OW45489   8.257   9.453   8.614  0.4514  0.1999 -0.4384
13390SOL    HW145490   8.229   9.523   8.673  2.0437  0.4390  0.0700
13390SOL    HW245491   8.204   9.377   8.641 -0.7598  0.9919 -0.5186
13391SOL     OW45492   3.242  10.835   6.555 -0.2689  0.5325  0.2676
13391SOL    HW145493   3.336  10.832   6.537 -0.5530  1.2388 -1.4644
13391SOL    HW245494   3.227  10.922   6.592 -0.3795  0.7865 -0.3644
13392SOL     OW45495   9.315   4.451  11.672  0.1239 -0.4225 -0.1356
13392SOL    HW145496   9.226   4.453  11.706  0.2793 -1.4878  0.3977
13392SOL    HW245497   9.368   4.488  11.742  0.0856  0.3690 -0.5211
13393SOL     OW45498  10.797   5.064   3.717 -0.3616 -0.0023  0.4044
13393SOL    HW145499  10.734   4.998   3.747 -0.1567  0.0241  0.9027
13393SOL    HW245500  10.868   5.060   3.781  0.0066  0.1781  0.0152
13394SOL     OW45501   0.248   9.570   4.634  0.6205  0.0177 -0.6661
13394SOL    HW145502   0.163   9.551   4.594  0.4864 -0.9538  0.0452
13394SOL    HW245503   0.228   9.617   4.715  0.8334  0.8525 -1.0804
13395SOL     OW45504   7.170   9.140   5.131 -0.0021 -0.6243  0.2267
13395SOL    HW145505   7.166   9.073   5.063 -1.9020 -0.6009  0.2675
13395SOL    HW245506   7.090   9.126   5.183 -0.0504  1.1878  0.6916
13396SOL     OW45507   7.283  10.168   9.206 -0.0802 -0.3076  0.0780
13396SOL    HW145508   7.237  10.204   9.282 -0.6058 -0.0405 -0.3563
13396SOL    HW245509   7.369  10.211   9.208  0.6745 -1.7734  1.6371
13397SOL     OW45510   7.111   1.168   7.698  0.0006  0.4231  0.2644
13397SOL    HW145511   7.138   1.241   7.642 -1.1251  1.5865  1.1888
13397SOL    HW245512   7.115   1.203   7.787  1.3092 -1.2569  0.9190
13398SOL     OW45513   4.661   8.940   1.743 -0.3002  0.6359  0.4106
13398SOL    HW145514   4.645   8.895   1.660 -0.4454 -0.2218  0.8850
13398SOL    HW245515   4.581   8.991   1.758  0.2294  1.7926 -0.5742
13399SOL     OW45516   3.482  10.150   4.125 -0.1829  0.2328 -0.2439
13399SOL    HW145517   3.495  10.056   4.122 -1.9472 -0.0841  0.5653
13399SOL    HW245518   3.403  10.162   4.178 -1.0606  2.0518 -1.8280
13400SOL     OW45519   6.288   0.127   8.019 -0.1519  0.3824  0.1710
13400SOL    HW145520   6.268   0.203   8.075 -0.2303  0.4254  0.0855
13400SOL    HW245521   6.290   0.053   8.080 -1.0755  0.2969  0.1148
13401SOL     OW45522   7.073   7.247   4.129  0.1122 -0.4438  0.1383
13401SOL    HW145523   7.137   7.180   4.104 -0.6396 -0.7133 -1.1830
13401SOL    HW245524   7.126   7.324   4.148  1.0072 -1.3801  1.7321
13402SOL     OW45525   6.022   5.391   2.276  0.1119 -0.1745  0.0516
13402SOL    HW145526   5.995   5.481   2.298  1.2839 -0.0407  1.0507
13402SOL    HW245527   5.984   5.337   2.346 -0.0073 -0.3713 -0.1641
13403SOL     OW45528   5.824   0.663   4.348  0.3471  0.2055 -0.0801
13403SOL    HW145529   5.817   0.756   4.329 -1.6474  0.8239  2.9842
13403SOL    HW245530   5.850   0.658   4.440  1.1497 -2.3118 -0.3387
13404SOL     OW45531   6.428   9.687   2.349  0.5204 -0.1253  0.5425
13404SOL    HW145532   6.442   9.764   2.403  0.1482  0.3291  0.0005
13404SOL    HW245533   6.342   9.700   2.309 -0.0862 -1.3778  1.3712
13405SOL     OW45534   9.004   0.562  11.378  0.7047 -0.1509  1.1882
13405SOL    HW145535   9.060   0.582  11.453  0.2759 -0.1169  1.4981
13405SOL    HW245536   8.922   0.530  11.416 -0.1992  1.5735  0.7723
13406SOL     OW45537  10.474   0.295   1.498  0.0259  0.2378  0.4057
13406SOL    HW145538  10.554   0.329   1.457  0.0557 -1.6314 -1.2738
13406SOL    HW245539  10.503   0.261   1.583  1.6143 -2.4742 -1.0801
13407SOL     OW45540   6.032   9.189   2.883 -0.0525 -0.1290  0.2036
13407SOL    HW145541   6.040   9.148   2.797 -3.5846 -1.5778  0.3985
13407SOL    HW245542   6.021   9.282   2.863 -1.6091 -0.5274 -1.0487
13408SOL     OW45543   7.147  10.931   2.706 -0.1954 -0.2905 -0.0105
13408SOL    HW145544   7.058  10.951   2.735  0.0165  0.1353  0.3644
13408SOL    HW245545   7.201  10.947   2.783  0.2054 -0.5535 -0.2366
13409SOL     OW45546   0.214   1.132   1.240  0.1105  0.2502 -0.1579
13409SOL    HW145547   0.213   1.219   1.199 -0.4698  0.6547  0.6925
13409SOL    HW245548   0.125   1.120   1.272 -0.3780 -1.5046 -1.9835
13410SOL     OW45549   4.898  11.145  10.204  0.2474  0.5239 -0.3063
13410SOL    HW145550   4.847  11.129  10.284  1.0105  0.6234  0.2082
13410SOL    HW245551   4.952  11.067  10.194  0.5580  0.7525 -0.4135
13411SOL     OW45552  11.579  11.015   2.518 -0.7076 -0.4270 -0.0208
13411SOL    HW145553  11.599  10.934   2.470  0.0428 -0.9679  1.1333
13411SOL    HW245554  11.599  10.993   2.609 -1.2894  0.8206  0.4263
13412SOL     OW45555   7.095   2.327  10.306 -0.0830  0.2566 -0.1484
13412SOL    HW145556   7.098   2.292  10.395 -0.5552  0.5952  0.0021
13412SOL    HW245557   7.022   2.280  10.265 -0.2583  0.5424 -0.1646
13413SOL     OW45558   0.243  11.421   5.387  0.4866  0.1970 -0.6258
13413SOL    HW145559   0.247  11.338   5.434  0.0387  1.4868  1.8106
13413SOL    HW245560   0.151  11.445   5.388  0.7498  1.2367 -0.3540
13414SOL     OW45561   1.809   3.526   5.869 -0.6223 -0.1137  0.4424
13414SOL    HW145562   1.829   3.538   5.962  1.0922 -0.5275  0.1545
13414SOL    HW245563   1.875   3.577   5.823 -1.5932  0.2784 -0.5669
13415SOL     OW45564   4.433   8.147   2.383 -0.3346 -0.1309 -0.4694
13415SOL    HW145565   4.346   8.184   2.399  1.0596  2.5206  1.8835
13415SOL    HW245566   4.424   8.055   2.407 -1.8882  0.7049  2.7771
13416SOL     OW45567   6.394   8.100   5.016 -0.9454 -0.4219 -0.3751
13416SOL    HW145568   6.361   8.146   4.939 -0.5253 -2.2220 -1.7014
13416SOL    HW245569   6.331   8.029   5.030 -1.1660  0.0276  1.1489
13417SOL     OW45570   8.726   7.710   9.913 -0.4331 -0.0602  0.4310
13417SOL    HW145571   8.648   7.671   9.873 -0.2770 -0.4087  0.4583
13417SOL    HW245572   8.796   7.691   9.851 -0.3726  0.2709  0.3953
13418SOL     OW45573   8.377   0.431  11.093 -0.0929 -0.0784  0.1589
13418SOL    HW145574   8.388   0.485  11.171 -0.2336 -0.8875  0.7565
13418SOL    HW245575   8.284   0.439  11.071 -0.2385 -0.5295  0.5926
13419SOL     OW45576   8.129   4.197  11.597 -0.1031 -0.4013  0.0963
13419SOL    HW145577   8.037   4.221  11.606  0.4440  2.3397 -0.7785
13419SOL    HW245578   8.171   4.235  11.673  0.4469 -0.9453  0.0717
13420SOL     OW45579   9.724   7.325   0.811  0.0641  0.1615 -0.4559
13420SOL    HW145580   9.776   7.253   0.847  1.0842  1.6336  1.1833
13420SOL    HW245581   9.789   7.387   0.778 -0.7953  0.4022 -1.7493
13421SOL     OW45582   3.835   0.441   8.635 -0.5216 -0.2971 -0.1139
13421SOL    HW145583   3.757   0.385   8.636  0.3186 -1.5792 -1.6151
13421SOL    HW245584   3.870   0.432   8.547  2.5312 -1.4795  1.0795
13422SOL     OW45585   3.254   7.969   3.309 -0.5856 -0.2964  0.2796
13422SOL    HW145586   3.311   7.995   3.237 -1.3628  0.6652 -0.0098
13422SOL    HW245587   3.313   7.958   3.383  0.3802 -2.4627 -0.7513
13423SOL     OW45588   5.641  11.486  11.711  0.1917 -0.1394  0.5296
13423SOL    HW145589   5.690  11.525  11.638 -0.1844 -0.7113 -0.0387
13423SOL    HW245590   5.660  11.543  11.786  1.4741 -0.1646  0.2500
13424SOL     OW45591   0.211   5.321   9.846 -0.4094  0.3064  0.4902
13424SOL    HW145592   0.183   5.407   9.815  0.4775  1.1049  1.8078
13424SOL    HW245593   0.146   5.261   9.812 -1.4103  1.5853  0.0734
13425SOL     OW45594  10.665   8.452   1.943 -0.2661 -0.0688  0.6084
13425SOL    HW145595  10.586   8.405   1.971 -0.5523 -0.3796 -0.6543
13425SOL    HW245596  10.636   8.542   1.930 -0.6231 -0.3493 -0.6399
13426SOL     OW45597   0.151   4.427   5.875  0.3545  0.4271  0.5417
13426SOL    HW145598   0.059   4.456   5.879  0.0048 -0.6090  0.3501
13426SOL    HW245599   0.160   4.366   5.947  1.1496  1.1551  1.0819
13427SOL     OW45600  11.379   8.727  10.880  0.2255 -0.7273  0.4307
13427SOL    HW145601  11.347   8.741  10.791  0.3504 -0.4257  0.4318
13427SOL    HW245602  11.367   8.634  10.895  1.2880 -0.9947 -0.3263
13428SOL     OW45603   2.315  10.432   0.307  0.2347  0.2735  0.1377
13428SOL    HW145604   2.312  10.355   0.251 -0.8359 -1.1158  1.9803
13428SOL    HW245605   2.248  10.491   0.271 -0.2228 -0.4683 -0.2398
13429SOL     OW45606  10.042  10.795  10.356  0.2325  0.4515 -0.5003
13429SOL    HW145607  10.001  10.710  10.344 -0.8080  1.0694 -1.5419
13429SOL    HW245608  10.006  10.850  10.286 -0.3342  2.1891  1.0528
13430SOL     OW45609   7.253   7.827   0.060  0.8717  0.4466  0.4135
13430SOL    HW145610   7.341   7.792   0.065  1.3452  1.4505 -0.4162
13430SOL    HW245611   7.262   7.920   0.081  0.0487  0.6035  0.1348
13431SOL     OW45612   1.234   8.856   3.042  0.7255  0.0919 -0.1075
13431SOL    HW145613   1.213   8.949   3.030  1.4926  0.4876  1.3998
13431SOL    HW245614   1.228   8.819   2.954 -0.5750  1.3537 -0.5925
13432SOL     OW45615   6.845   9.837   7.876 -0.0215  0.7623 -0.2663
13432SOL    HW145616   6.913   9.843   7.943  1.3348  0.2913 -1.5344
13432SOL    HW245617   6.765   9.820   7.925  0.9741  0.0630  1.2221
13433SOL     OW45618   4.211   6.447   2.177  0.0830 -0.0715  0.0178
13433SOL    HW145619   4.281   6.506   2.208 -0.8799  0.6014  0.9765
13433SOL    HW245620   4.194   6.390   2.252  0.5397 -1.1629 -0.6837
13434SOL     OW45621  11.251   4.635   8.388  0.8473 -0.3513 -0.0431
13434SOL    HW145622  11.231   4.729   8.389  0.5181 -0.2615 -3.1488
13434SOL    HW245623  11.166   4.593   8.372  1.4455 -0.8231 -2.3229
13435SOL     OW45624   8.823  10.124   5.925  0.7883 -0.1695  0.0811
13435SOL    HW145625   8.859  10.171   5.850  0.1915 -0.0141 -0.1160
13435SOL    HW245626   8.738  10.093   5.895  0.8425 -0.7113  0.4678
13436SOL     OW45627  10.115   2.194   8.661 -0.2356  0.5020  0.3455
13436SOL    HW145628  10.156   2.212   8.577 -0.4099 -1.2704 -0.1636
13436SOL    HW245629  10.049   2.262   8.672  0.9517  1.7645 -0.1177
13437SOL     OW45630   9.695   4.338   2.378 -0.4758  0.5871  0.0825
13437SOL    HW145631   9.616   4.392   2.366  0.2643  1.5636 -0.5076
13437SOL    HW245632   9.766   4.401   2.389  0.2282 -0.2847  0.6398
13438SOL     OW45633   9.064  10.098   2.985  0.4413 -0.2613 -0.5438
13438SOL    HW145634   9.130  10.088   2.916  0.7876  0.8449 -0.3958
13438SOL    HW245635   9.061  10.192   3.001  0.6350 -0.5270  1.2087
13439SOL     OW45636   4.082   6.365   5.000  0.0487  0.6955  0.0316
13439SOL    HW145637   4.052   6.353   4.909  0.5345  0.3650 -0.0869
13439SOL    HW245638   4.174   6.339   4.999 -0.1780 -0.1996  0.8158
13440SOL     OW45639   8.315   9.347   5.574  0.5810 -0.1458  0.0727
13440SOL    HW145640   8.237   9.389   5.611 -0.1896 -2.2579  1.0400
13440SOL    HW245641   8.386   9.410   5.589 -0.6940  1.2544  0.4170
13441SOL     OW45642   2.409   6.242   1.152  0.2128 -0.5085  0.1707
13441SOL    HW145643   2.329   6.246   1.205  0.2818 -1.3634  0.3454
13441SOL    HW245644   2.379   6.247   1.062 -0.0547 -1.0443  0.2291
13442SOL     OW45645   6.753   6.146   2.541  0.5684 -0.6581 -0.6959
13442SOL    HW145646   6.712   6.230   2.521  1.1842 -0.5233 -1.4211
13442SOL    HW245647   6.845   6.166   2.554  0.3277 -0.8123  1.8963
13443SOL     OW45648   1.968   1.914   4.794  0.0464  0.5350  0.4552
13443SOL    HW145649   2.058   1.933   4.820 -0.0666  0.8255  0.6393
13443SOL    HW245650   1.961   1.952   4.706 -0.0274  0.9183  0.6212
13444SOL     OW45651  10.469   5.915  10.937 -0.1450 -0.1347  0.2814
13444SOL    HW145652  10.539   5.979  10.950 -1.6551  1.5211  0.5715
13444SOL    HW245653  10.497   5.866  10.859  1.5357  0.1623  0.6492
13445SOL     OW45654  11.319   6.032  10.793  0.3189  0.4570  0.0270
13445SOL    HW145655  11.392   6.038  10.732  0.3061 -0.6528 -0.1176
13445SOL    HW245656  11.325   6.111  10.846  0.5185  1.2818 -1.1962
13446SOL     OW45657   9.285   9.222   5.540 -0.0952 -0.2446  0.5338
13446SOL    HW145658   9.225   9.226   5.466 -0.0897 -0.6763  0.5019
13446SOL    HW245659   9.372   9.211   5.501 -0.0874 -0.4323  0.6015
13447SOL     OW45660   4.911   8.990   3.568 -0.2665 -0.2817  0.2679
13447SOL    HW145661   4.967   9.043   3.624 -1.4315  2.1326 -0.6983
13447SOL    HW245662   4.824   8.996   3.608 -0.6625 -0.4068 -0.5443
13448SOL     OW45663   7.254  11.502   4.706  0.1189 -0.3282 -0.6857
13448SOL    HW145664   7.334  11.454   4.724  0.7095  0.7994 -0.2173
13448SOL    HW245665   7.193  11.436   4.675  0.9493 -1.3471 -0.2008
13449SOL     OW45666   5.148   9.485   9.960 -0.6051 -0.2069  0.0762
13449SOL    HW145667   5.121   9.572   9.929 -2.0228 -1.0010 -0.9770
13449SOL    HW245668   5.204   9.504  10.036 -0.5557  1.6336 -0.3621
13450SOL     OW45669   4.314   9.251   6.615  0.3363  0.1372  0.0641
13450SOL    HW145670   4.265   9.205   6.683  0.6978  0.7768  0.7696
13450SOL    HW245671   4.247   9.276   6.551  0.1804 -1.6819 -0.5471
13451SOL     OW45672  10.449  11.485   0.522  0.3678 -0.3291  0.5350
13451SOL    HW145673  10.415  11.554   0.466  0.9978  1.1433  1.8906
13451SOL    HW245674  10.497  11.427   0.463 -0.6524  0.0689 -0.7134
13452SOL     OW45675   1.540   1.470   6.091 -0.3963 -0.1059  1.1774
13452SOL    HW145676   1.561   1.523   6.168  1.5860  2.9930 -1.2467
13452SOL    HW245677   1.625   1.443   6.057 -1.1679 -0.6445 -0.3999
13453SOL     OW45678   0.276  10.228   0.725 -0.2138  0.3913 -0.3474
13453SOL    HW145679   0.182  10.247   0.726 -0.5646 -1.2063  0.7570
13453SOL    HW245680   0.289  10.177   0.645 -0.1762  1.0504 -0.7685
13454SOL     OW45681   7.926   6.380   7.661 -0.1611  0.1544  0.5692
13454SOL    HW145682   7.897   6.369   7.570  0.7421  1.1915  0.1239
13454SOL    HW245683   8.016   6.348   7.661 -0.8752 -1.9983  1.6705
13455SOL     OW45684   6.455  10.662  11.565 -0.0869 -0.5756 -0.0844
13455SOL    HW145685   6.361  10.647  11.578 -1.0598  2.6489 -2.1254
13455SOL    HW245686   6.484  10.588  11.512 -0.6854 -3.1128  2.8742
13456SOL     OW45687   6.345   4.123   4.855 -0.4695  0.2416 -0.2637
13456SOL    HW145688   6.375   4.197   4.802 -0.5026  0.9830  0.7185
13456SOL    HW245689   6.304   4.164   4.932  4.7645 -0.5867  3.5102
13457SOL     OW45690   0.104   6.198   1.805 -0.1761  0.0629 -0.1266
13457SOL    HW145691   0.071   6.220   1.717 -1.2811 -1.6898 -0.2011
13457SOL    HW245692   0.124   6.283   1.845 -1.0819  0.9819 -1.5318
13458SOL     OW45693   0.159   7.794   7.808  0.1968 -0.0473  0.3136
13458SOL    HW145694   0.211   7.717   7.828  1.3181  0.6695  0.2177
13458SOL    HW245695   0.188   7.821   7.721 -0.7392  0.0369  0.0185
13459SOL     OW45696   3.377   7.376   8.760 -0.6194 -0.0253  0.4194
13459SOL    HW145697   3.439   7.396   8.690  0.8808  0.3454  1.7802
13459SOL    HW245698   3.376   7.280   8.765 -0.4407 -0.0413  0.1470
13460SOL     OW45699   5.151   2.836   0.535  0.0844 -0.4649  0.0397
13460SOL    HW145700   5.242   2.861   0.546 -0.0242 -0.4724  1.0082
13460SOL    HW245701   5.106   2.871   0.612 -0.1946 -3.0116  1.1312
13461SOL     OW45702   1.954   6.821   4.955 -0.4257  0.1360  0.2079
13461SOL    HW145703   1.899   6.752   4.992 -0.0319 -0.1435  0.2827
13461SOL    HW245704   1.948   6.809   4.860  0.0701 -0.3456  0.2336
13462SOL     OW45705   6.337   8.893   3.906  0.1838 -0.4879  0.0514
13462SOL    HW145706   6.245   8.869   3.904  0.0190  0.2014 -0.9834
13462SOL    HW245707   6.356   8.907   3.999 -0.8797 -0.1233  0.2233
13463SOL     OW45708   5.929   5.437   2.547 -0.1348 -0.4364  0.6298
13463SOL    HW145709   5.881   5.462   2.626 -0.3052  0.5313  0.2375
13463SOL    HW245710   6.010   5.486   2.551 -1.5737  2.3973 -1.4361
13464SOL     OW45711   4.681   3.342  10.210 -0.0816 -0.0148 -0.2559
13464SOL    HW145712   4.750   3.276  10.215  0.4124  0.1299 -3.1667
13464SOL    HW245713   4.727   3.423  10.189 -0.8182  1.0432  1.9290
13465SOL     OW45714   4.873   2.304   1.389  0.0006  0.2326 -0.1622
13465SOL    HW145715   4.910   2.387   1.420 -1.5138  0.8467  0.1199
13465SOL    HW245716   4.828   2.268   1.466 -0.8094  0.0193 -0.7181
13466SOL     OW45717   0.416   9.290   2.999  0.1857 -0.6783 -0.4032
13466SOL    HW145718   0.412   9.354   2.928 -0.9861 -0.0709  0.1914
13466SOL    HW245719   0.359   9.218   2.971  0.3464 -0.8015 -0.4191
13467SOL     OW45720   8.073   6.552  11.172 -0.5585 -0.3333 -0.4627
13467SOL    HW145721   8.127   6.592  11.240 -1.1682  0.2025 -0.2751
13467SOL    HW245722   8.056   6.623  11.110 -0.8683 -0.5443 -0.6243
13468SOL     OW45723  11.075   5.116   7.030 -0.1145 -0.4640  0.1762
13468SOL    HW145724  11.095   5.174   7.104 -3.3019  0.6966  0.2792
13468SOL    HW245725  11.024   5.045   7.069 -0.1728 -0.8769 -0.6420
13469SOL     OW45726   7.143   3.039   3.539 -0.3121 -0.0536 -0.3502
13469SOL    HW145727   7.077   3.002   3.480 -0.1412 -0.8286 -0.0720
13469SOL    HW245728   7.226   3.006   3.507 -0.0880  0.5983 -0.4586
13470SOL     OW45729   3.404   9.728   7.998 -1.0111  0.0294 -0.3485
13470SOL    HW145730   3.445   9.726   8.084 -0.3625 -0.5376 -0.6626
13470SOL    HW245731   3.385   9.636   7.978  0.1672 -0.0133 -1.4116
13471SOL     OW45732   7.403   2.163   6.630  0.0743  0.6140  0.0823
13471SOL    HW145733   7.380   2.247   6.668  2.3747  2.0442 -1.4515
13471SOL    HW245734   7.341   2.151   6.558 -0.5731  0.7393  0.6178
13472SOL     OW45735   1.814   8.856   6.959  0.0741  0.5315  0.0534
13472SOL    HW145736   1.750   8.790   6.932  0.2762  0.7661 -1.0493
13472SOL    HW245737   1.777   8.939   6.930 -0.1435  0.9155  1.3745
13473SOL     OW45738  10.104   2.056   6.178  0.3173 -0.2749 -0.2315
13473SOL    HW145739  10.127   2.039   6.086  1.2283 -1.6718  0.2239
13473SOL    HW245740  10.050   1.982   6.204  2.5905 -1.5758  1.1919
13474SOL     OW45741  10.690   7.899   7.933  0.4887 -0.4594 -0.1333
13474SOL    HW145742  10.669   7.879   7.842  2.4638 -0.8492 -0.5488
13474SOL    HW245743  10.723   7.816   7.968  0.8700 -0.0146  0.5780
13475SOL     OW45744   3.051   8.159   9.628 -0.1031 -0.1122 -0.6564
13475SOL    HW145745   3.007   8.238   9.660  1.6563  0.8728 -0.5286
13475SOL    HW245746   3.130   8.192   9.586  0.4144 -1.7977 -1.0553
13476SOL     OW45747   5.994  11.665   7.941  0.3681  0.6443 -1.1706
13476SOL    HW145748   6.017  11.579   7.975  0.2320  0.7876 -0.7154
13476SOL    HW245749   5.947  11.647   7.859 -3.5479  0.0415  0.9658
13477SOL     OW45750   1.632   4.171   0.042  0.2383  0.1422 -0.3449
13477SOL    HW145751   1.648   4.232   0.114  0.8120 -0.3042 -0.0886
13477SOL    HW245752   1.605   4.226  -0.031  1.2364  0.7519 -0.2688
13478SOL     OW45753   0.736   2.176   2.751 -0.1215 -0.4667  0.1940
13478SOL    HW145754   0.783   2.123   2.687 -1.1532 -0.3442 -0.6834
13478SOL    HW245755   0.779   2.261   2.748  0.9199 -0.9343  0.9169
13479SOL     OW45756  10.226   3.809   4.917  0.1872  0.0566  0.1797
13479SOL    HW145757  10.210   3.761   4.999  0.4282  0.4642  0.4683
13479SOL    HW245758  10.312   3.780   4.888 -0.5577 -1.2797 -0.7738
13480SOL     OW45759   5.287   0.061   2.241  1.0183  0.2897  0.2794
13480SOL    HW145760   5.258  -0.028   2.222  0.2482  0.6145 -0.1084
13480SOL    HW245761   5.212   0.116   2.220  2.0816  1.2268 -1.3487
13481SOL     OW45762   0.554   8.257   2.389 -0.0537  0.3940 -0.2688
13481SOL    HW145763   0.584   8.239   2.300  2.2516 -2.1500  0.8476
13481SOL    HW245764   0.621   8.314   2.425 -1.0008  1.4507 -0.1411
13482SOL     OW45765   6.237   8.979   7.604 -0.7501  0.6313 -0.1293
13482SOL    HW145766   6.257   9.064   7.644 -1.0582  1.7869 -2.3091
13482SOL    HW245767   6.230   8.920   7.679  1.6404  2.0231  1.3470
13483SOL     OW45768   1.599  10.271   9.776 -0.5235  0.2879 -0.8560
13483SOL    HW145769   1.640  10.324   9.708 -0.1357  0.0817 -0.7900
13483SOL    HW245770   1.644  10.296   9.856 -1.4363  1.0146 -0.5573
13484SOL     OW45771   4.690   4.832   5.518  0.0461  0.8185  0.2003
13484SOL    HW145772   4.766   4.786   5.554 -0.2853  0.3548  0.3190
13484SOL    HW245773   4.726   4.885   5.446  0.9322  2.7208  1.9231
13485SOL     OW45774   6.766   3.559  11.593 -0.1967  0.2139 -0.6570
13485SOL    HW145775   6.706   3.562  11.519  0.5286  1.2808 -1.2219
13485SOL    HW245776   6.846   3.519  11.559 -0.0984  0.0819 -0.2783
13486SOL     OW45777   2.461   8.867   5.923 -0.0449 -0.0843  0.0801
13486SOL    HW145778   2.380   8.903   5.888  0.0980  0.8962  0.6963
13486SOL    HW245779   2.444   8.774   5.935 -0.7207 -0.0774 -0.7862
13487SOL     OW45780  11.139   0.022   7.378 -0.1300  0.4595  0.4792
13487SOL    HW145781  11.140  -0.056   7.323  0.7690  1.0562 -0.3872
13487SOL    HW245782  11.069   0.006   7.442 -1.4869 -0.1042 -1.0691
13488SOL     OW45783  10.668   4.437   0.262  0.8185 -0.0651 -0.3923
13488SOL    HW145784  10.595   4.376   0.254  0.8162 -0.3017  1.1143
13488SOL    HW245785  10.644   4.495   0.335  2.1081 -0.1346  0.1168
13489SOL     OW45786   8.268   2.978   4.422  0.3576  0.5816  0.3468
13489SOL    HW145787   8.210   2.911   4.385 -0.8220  1.8394 -0.1638
13489SOL    HW245788   8.210   3.051   4.443  1.4906  1.1333  1.7163
13490SOL     OW45789   9.871   7.491   0.652 -0.2637  0.2265 -0.1927
13490SOL    HW145790   9.900   7.410   0.610 -2.2362  0.2151 -1.6910
13490SOL    HW245791   9.927   7.559   0.616 -0.4548 -0.0985 -1.1283
13491SOL     OW45792   7.100   1.597   8.002 -0.1444  0.4075  0.6786
13491SOL    HW145793   7.081   1.596   8.095 -0.9234  2.0232  0.5768
13491SOL    HW245794   7.079   1.686   7.974 -1.2745 -0.4166 -1.3143
13492SOL     OW45795   3.915   5.839   2.930  0.2232 -0.1574 -1.1142
13492SOL    HW145796   3.888   5.920   2.973  1.4534 -0.9095  1.2728
13492SOL    HW245797   3.833   5.788   2.922 -0.1699  0.3523 -0.4067
13493SOL     OW45798   5.788   2.834   7.854 -0.0041  0.1036 -0.4600
13493SOL    HW145799   5.694   2.827   7.839 -0.0274  1.1067 -0.8647
13493SOL    HW245800   5.816   2.904   7.794  1.0018 -0.2131 -0.3733
13494SOL     OW45801   4.471   4.100   3.714  0.1330 -0.1611 -0.4395
13494SOL    HW145802   4.454   4.105   3.620  0.2684 -0.3168 -0.4737
13494SOL    HW245803   4.556   4.057   3.720 -0.4082 -1.2325 -0.2107
13495SOL     OW45804   7.126   9.635   7.093 -0.2913 -0.4826 -0.1469
13495SOL    HW145805   7.076   9.674   7.022 -1.1893  0.7141  1.0961
13495SOL    HW245806   7.212   9.678   7.088  0.0263 -1.2042 -1.1547
13496SOL     OW45807   7.675   0.778   7.927  0.3474 -0.0611  0.2381
13496SOL    HW145808   7.752   0.730   7.958  0.1868  0.6525  1.8492
13496SOL    HW245809   7.654   0.838   7.999 -2.4439 -1.0745  0.4023
13497SOL     OW45810   4.666   9.454   8.566  0.1183  0.1037 -0.3281
13497SOL    HW145811   4.654   9.486   8.656  0.2930 -0.4942 -0.0815
13497SOL    HW245812   4.739   9.505   8.532 -0.1655  0.5678 -0.2415
13498SOL     OW45813   4.129   7.871   8.087  0.4307  0.2109 -0.4940
13498SOL    HW145814   4.190   7.799   8.068  1.4268  0.6631  0.8050
13498SOL    HW245815   4.171   7.948   8.050  1.1114  0.6602  1.1013
13499SOL     OW45816  10.544  11.226   0.324  0.0700  0.0955 -0.2950
13499SOL    HW145817  10.474  11.271   0.277 -1.7616 -1.8485  0.3813
13499SOL    HW245818  10.595  11.182   0.256 -1.9471 -1.8705 -0.6941
13500SOL     OW45819   1.281   6.005   7.354  0.7803 -0.3746  0.1953
13500SOL    HW145820   1.335   5.931   7.326  1.5583  0.6722 -1.2490
13500SOL    HW245821   1.235   6.032   7.274 -2.4795 -1.6207  1.4897
13501SOL     OW45822   9.094  11.628   9.001 -0.0124  0.1782 -0.3395
13501SOL    HW145823   9.142  11.553   8.967 -1.0107 -0.7767  0.2939
13501SOL    HW245824   9.107  11.624   9.095 -0.5689  0.4449 -0.2495
13502SOL     OW45825   4.055   5.673   2.040  0.2046  0.4098 -0.3154
13502SOL    HW145826   4.022   5.584   2.051 -1.4791  0.9671 -0.6098
13502SOL    HW245827   4.132   5.677   2.097 -1.2887 -0.3889  1.8932
13503SOL     OW45828   3.086   0.900   7.091 -0.2058  0.1839 -0.1808
13503SOL    HW145829   3.099   0.978   7.145 -1.5311  0.8426 -0.7805
13503SOL    HW245830   3.136   0.917   7.011  2.7252 -1.2745  1.1543
13504SOL     OW45831  11.284   2.127   8.383  0.4450 -0.7736  0.7836
13504SOL    HW145832  11.309   2.203   8.331 -0.0181 -0.2892  1.2570
13504SOL    HW245833  11.331   2.054   8.342 -0.3982 -0.5265 -0.7214
13505SOL     OW45834   5.922   1.062   6.306  0.1399 -0.9458  0.2513
13505SOL    HW145835   5.940   1.028   6.393  0.4072 -0.6638  0.3062
13505SOL    HW245836   5.881   1.147   6.320  4.6467  1.5867  0.1938
13506SOL     OW45837   4.424   2.181   4.515 -0.0844  0.5558  0.0977
13506SOL    HW145838   4.483   2.227   4.574  0.9913 -1.5075  0.7078
13506SOL    HW245839   4.338   2.188   4.558  0.6097 -0.6098  1.7911
13507SOL     OW45840   6.823   5.512   6.130  0.2630  0.4495  0.0727
13507SOL    HW145841   6.742   5.534   6.177  0.7680  0.3464  1.0060
13507SOL    HW245842   6.887   5.494   6.199  1.5473  2.1208 -0.6216
13508SOL     OW45843  10.210   7.096   4.988 -0.0475 -0.2438  0.3309
13508SOL    HW145844  10.156   7.110   4.910  0.2024 -1.3701 -0.0680
13508SOL    HW245845  10.287   7.151   4.975  1.1729 -2.2412 -1.4379
13509SOL     OW45846   0.195   8.384   6.413  0.4112 -0.2395 -0.3843
13509SOL    HW145847   0.186   8.311   6.474  0.1028  0.4871  0.4556
13509SOL    HW245848   0.288   8.384   6.389  0.7774  0.1130  0.9291
13510SOL     OW45849   8.057   3.779   2.848 -0.1383 -0.1838  0.3633
13510SOL    HW145850   8.013   3.754   2.929  0.4528  0.0091  0.7486
13510SOL    HW245851   8.151   3.775   2.869  0.0677 -1.4863 -0.7046
13511SOL     OW45852   4.708   0.794  10.473 -0.0924 -0.4077  0.1690
13511SOL    HW145853   4.765   0.866  10.448 -1.0507 -0.1132 -1.3328
13511SOL    HW245854   4.625   0.836  10.495 -0.2330 -0.9465  0.6769
13512SOL     OW45855   9.456   4.849   5.502  0.8183  0.3205  0.0489
13512SOL    HW145856   9.479   4.760   5.474 -0.0699 -0.4141  1.5578
13512SOL    HW245857   9.538   4.885   5.537  0.8786 -0.3872  0.6465
13513SOL     OW45858   3.817   9.973   9.348  0.1251 -0.1004  0.1147
13513SOL    HW145859   3.756  10.002   9.281  1.0340  1.1658 -0.2093
13513SOL    HW245860   3.801  10.031   9.422  0.6957  0.0179  0.1499
13514SOL     OW45861   6.858   2.752   0.298 -0.0510 -0.4793  0.1134
13514SOL    HW145862   6.801   2.783   0.227 -1.0845 -2.8465 -0.1915
13514SOL    HW245863   6.825   2.664   0.318  3.2445 -1.8294  0.2104
13515SOL     OW45864   7.916   0.981  10.617  0.1258  0.4558  0.4278
13515SOL    HW145865   7.914   0.999  10.523  0.1010 -3.7839 -0.6107
13515SOL    HW245866   7.832   1.012  10.650  0.3585  2.5135 -0.7500
13516SOL     OW45867   6.982   3.625  11.001 -0.1187 -0.5668  0.1581
13516SOL    HW145868   7.023   3.570  11.068  2.5776  0.3176 -0.6021
13516SOL    HW245869   6.988   3.572  10.921  1.3019  0.2427 -0.3138
13517SOL     OW45870  10.378  11.817   5.181  0.4342  0.2060  0.1068
13517SOL    HW145871  10.286  11.797   5.164  0.2716  1.0042 -0.0019
13517SOL    HW245872  10.419  11.731   5.195 -0.6441 -0.0679  1.8611
13518SOL     OW45873   6.915   5.674  10.528 -0.1166 -0.5391  0.1941
13518SOL    HW145874   6.959   5.655  10.445 -0.3001  0.1802 -0.0718
13518SOL    HW245875   6.905   5.588  10.569 -1.3437 -1.0927 -1.1743
13519SOL     OW45876   6.901   6.821   0.435 -0.5095  0.2945 -0.4409
13519SOL    HW145877   6.928   6.750   0.494 -0.1561  1.7403  1.2037
13519SOL    HW245878   6.935   6.795   0.349  2.6137  0.0624  0.7387
13520SOL     OW45879  10.591   1.235   3.231  0.0585  0.0663 -0.0237
13520SOL    HW145880  10.615   1.182   3.154 -0.8798  1.1689 -1.1129
13520SOL    HW245881  10.523   1.293   3.199 -0.1047  0.7925  1.5873
13521SOL     OW45882   6.236  10.783   1.189  0.0831  0.5883 -0.2145
13521SOL    HW145883   6.268  10.799   1.101 -3.3520 -0.5618 -1.8792
13521SOL    HW245884   6.232  10.687   1.196 -1.1939  0.6680  0.5320
13522SOL     OW45885   4.278   0.195   0.928  0.1700  0.0726 -1.1813
13522SOL    HW145886   4.184   0.184   0.945  0.3079 -0.7099 -0.8761
13522SOL    HW245887   4.282   0.238   0.842 -0.4644  0.1690 -1.1703
13523SOL     OW45888   0.092   6.457   1.923  0.3619 -0.4573  0.5208
13523SOL    HW145889   0.075   6.539   1.968 -0.2270 -0.4751  0.3442
13523SOL    HW245890   0.148   6.481   1.849 -2.3093  0.3447 -1.3955
13524SOL     OW45891   2.323   7.433   2.265  0.1066  0.3639 -0.2086
13524SOL    HW145892   2.418   7.420   2.255 -0.0118 -1.8238  0.8568
13524SOL    HW245893   2.295   7.468   2.180  1.4671 -1.8356 -1.6849
13525SOL     OW45894   4.489   5.148  11.756 -0.5034 -0.3335 -0.5380
13525SOL    HW145895   4.442   5.193  11.827 -0.0256 -0.3347 -0.2121
13525SOL    HW245896   4.574   5.190  11.754  0.6879 -2.4529  1.0777
13526SOL     OW45897   6.163   8.182   9.487  0.4266 -0.3849 -0.0931
13526SOL    HW145898   6.141   8.121   9.417  0.5929 -0.2729 -0.2442
13526SOL    HW245899   6.256   8.200   9.475 -0.1428  1.9747 -1.7403
13527SOL     OW45900   3.002   1.988  10.931  0.3088  0.1286  0.4757
13527SOL    HW145901   2.946   2.064  10.916 -0.6172 -0.4249  1.0633
13527SOL    HW245902   3.089   2.017  10.904  0.1670  1.7381  1.6228
13528SOL     OW45903   6.493   9.006   3.396  0.8680  0.2298 -0.1915
13528SOL    HW145904   6.493   9.102   3.396  0.3258  0.2948  2.1930
13528SOL    HW245905   6.584   8.981   3.386  1.2893  1.0911  1.1745
13529SOL     OW45906  10.369   3.535   0.619  0.2273 -0.1403  0.3319
13529SOL    HW145907  10.276   3.544   0.597  0.3303  0.1067 -0.0122
13529SOL    HW245908  10.399   3.462   0.566  0.3131  0.0113  0.1706
13530SOL     OW45909   9.410   0.795   4.153 -0.4583  0.1322 -1.3296
13530SOL    HW145910   9.439   0.777   4.243 -2.3274  0.5555 -0.6010
13530SOL    HW245911   9.408   0.709   4.110  1.6727  0.0605 -1.4091
13531SOL     OW45912   3.175  11.575  10.094  0.1381 -0.0636 -0.0169
13531SOL    HW145913   3.090  11.542  10.124  0.3734 -1.9991 -1.2999
13531SOL    HW245914   3.154  11.648  10.037 -0.7982 -1.3231 -1.3611
13532SOL     OW45915   6.522  10.244  11.579 -0.2598 -0.2399 -0.0653
13532SOL    HW145916   6.604  10.196  11.591 -0.2462 -0.2909 -0.3528
13532SOL    HW245917   6.548  10.328  11.542  0.0104  1.1819  3.0303
13533SOL     OW45918   6.912   5.380  11.293 -0.3296  0.1385  0.1767
13533SOL    HW145919   6.938   5.414  11.379  0.2304  0.2542 -0.0348
13533SOL    HW245920   6.828   5.338  11.309 -0.1923  0.0876  0.8038
13534SOL     OW45921   5.903   9.385   6.907 -0.1762 -0.3761 -0.6973
13534SOL    HW145922   5.955   9.457   6.943 -0.7407 -0.2190 -0.1763
13534SOL    HW245923   5.964   9.337   6.851  0.4765 -0.0774 -0.2573
13535SOL     OW45924   6.290   0.754   3.435 -0.4330  0.4605 -0.2818
13535SOL    HW145925   6.291   0.662   3.409  0.7729 -0.3281  2.1790
13535SOL    HW245926   6.341   0.799   3.368  0.4504 -0.9935 -0.6342
13536SOL     OW45927   6.671   6.921   4.808  0.0334 -0.5140  0.3508
13536SOL    HW145928   6.711   6.849   4.758  1.2721 -0.7366  1.6014
13536SOL    HW245929   6.742   6.953   4.864 -0.8749  0.8064  0.7819
13537SOL     OW45930   7.728   1.495   1.344 -0.8580 -0.2788  0.2143
13537SOL    HW145931   7.792   1.547   1.294 -0.6591 -1.0085 -0.3035
13537SOL    HW245932   7.686   1.440   1.278 -1.7596 -0.0824  0.6153
13538SOL     OW45933   1.339   0.703   9.517  0.1066  0.1113 -0.2383
13538SOL    HW145934   1.305   0.767   9.454  0.7886  0.1243 -0.6026
13538SOL    HW245935   1.397   0.754   9.574 -0.8234  0.1796  0.6721
13539SOL     OW45936   4.128   5.966  10.805 -0.2135 -0.0582  0.4370
13539SOL    HW145937   4.222   5.986  10.805 -0.4533  1.0905  1.1482
13539SOL    HW245938   4.116   5.914  10.725  0.8331  0.7192 -0.2606
13540SOL     OW45939   9.639   0.326   6.207  0.2843  0.2741 -0.3548
13540SOL    HW145940   9.641   0.383   6.130 -0.8006  2.4351  1.1006
13540SOL    HW245941   9.726   0.334   6.246  0.3950  0.2810 -0.6005
13541SOL     OW45942   5.718  10.661   4.303  0.1762 -0.1192  0.3471
13541SOL    HW145943   5.730  10.753   4.279  0.3025 -0.1494  0.2944
13541SOL    HW245944   5.786  10.644   4.367  0.4567 -0.3095  0.0006
13542SOL     OW45945   3.879   3.458   3.497 -0.0513  0.3195  0.1269
13542SOL    HW145946   3.955   3.444   3.554  0.6859  1.9581 -0.3838
13542SOL    HW245947   3.902   3.411   3.416 -0.6107 -1.0727  0.7453
13543SOL     OW45948   6.071   5.760   1.067 -0.2327  0.3284  0.4067
13543SOL    HW145949   6.098   5.785   1.156 -0.5096  0.2823  0.5034
13543SOL    HW245950   5.977   5.778   1.064 -0.3272 -0.1829  0.2951
13544SOL     OW45951   2.562   5.347   2.239  0.1484 -0.0231  0.0750
13544SOL    HW145952   2.649   5.347   2.278 -0.2531 -0.1877  1.0096
13544SOL    HW245953   2.527   5.260   2.258  0.4896 -0.6615 -1.9906
13545SOL     OW45954   3.047   8.003  11.254 -0.1065 -0.6092 -0.1549
13545SOL    HW145955   3.056   7.935  11.187  1.1299 -0.4547 -0.1718
13545SOL    HW245956   3.074   7.961  11.335 -1.8765 -0.8777  0.3287
13546SOL     OW45957   5.055   2.654   0.757 -0.2703  0.4020 -0.2739
13546SOL    HW145958   5.151   2.647   0.751 -0.2833  1.0550 -1.3747
13546SOL    HW245959   5.028   2.693   0.674 -1.7501 -2.1319 -1.0896
13547SOL     OW45960   2.705   5.232   0.297 -0.5248 -0.0972  0.3323
13547SOL    HW145961   2.724   5.318   0.334 -0.7824 -0.0277  0.3058
13547SOL    HW245962   2.619   5.209   0.333  0.7904 -1.6657  2.7696
13548SOL     OW45963   6.882   7.654   4.852 -0.1184 -0.3320  0.4558
13548SOL    HW145964   6.894   7.740   4.893 -0.2024  0.5562 -1.2897
13548SOL    HW245965   6.855   7.674   4.763  1.2406 -2.1622 -0.4188
13549SOL     OW45966   9.448   6.738   5.289 -0.0823 -0.5744 -0.5772
13549SOL    HW145967   9.541   6.738   5.267  0.2318 -1.1748  0.6558
13549SOL    HW245968   9.425   6.645   5.293  0.0614 -0.5724  2.1707
13550SOL     OW45969   3.981   2.197  11.088 -0.2465  0.8170 -0.1930
13550SOL    HW145970   4.055   2.139  11.072  1.0791  2.4237 -0.1564
13550SOL    HW245971   4.004   2.244  11.168 -1.3808  1.2524 -0.1001
13551SOL     OW45972   2.493   8.288   9.073  0.4589 -0.3863  0.5068
13551SOL    HW145973   2.424   8.249   9.127 -0.3978 -0.0638 -0.3382
13551SOL    HW245974   2.556   8.322   9.137 -1.4999  1.7991  1.4196
13552SOL     OW45975   7.592   4.615   0.002  0.5405  0.2612 -0.5675
13552SOL    HW145976   7.631   4.563  -0.067  0.9579  0.2236 -0.3081
13552SOL    HW245977   7.578   4.554   0.074  3.5315  0.9625  0.7548
13553SOL     OW45978   9.100   4.392   1.786 -0.0950 -0.1616  0.4733
13553SOL    HW145979   9.146   4.358   1.710  0.8084  1.9377  0.0129
13553SOL    HW245980   9.131   4.339   1.859  1.1517 -0.4119 -0.2208
13554SOL     OW45981   4.425   8.821   4.489 -0.1280 -0.1064 -0.6619
13554SOL    HW145982   4.354   8.885   4.486  0.3266  0.4651  0.3076
13554SOL    HW245983   4.394   8.747   4.436 -2.1624 -0.5968  1.0800
13555SOL     OW45984   4.886  10.472   7.970  0.2202  0.5002  0.4040
13555SOL    HW145985   4.825  10.399   7.960 -1.3178  1.8758 -0.6963
13555SOL    HW245986   4.875  10.500   8.061 -0.1937  0.2361  0.4384
13556SOL     OW45987   5.636   1.092   6.076  0.0528 -0.3863 -0.0484
13556SOL    HW145988   5.672   1.063   5.992  0.0630  0.3645 -0.3112
13556SOL    HW245989   5.701   1.153   6.111 -0.8133  0.7793 -0.4094
13557SOL     OW45990   2.226   1.466   9.572 -0.3304  0.5757 -0.1525
13557SOL    HW145991   2.192   1.391   9.523  1.2155 -1.1724  1.2834
13557SOL    HW245992   2.288   1.508   9.511 -0.7498  0.3165 -0.7619
13558SOL     OW45993   3.219   4.319   2.149  0.2449 -0.6019  0.6972
13558SOL    HW145994   3.213   4.311   2.054  0.4051 -1.6500  0.7708
13558SOL    HW245995   3.150   4.262   2.183  1.0323 -1.2619  1.2346
13559SOL     OW45996   3.734   9.707   4.765 -0.2383  0.9224  0.2455
13559SOL    HW145997   3.702   9.681   4.679 -0.3187  1.9041 -0.0338
13559SOL    HW245998   3.665   9.764   4.800 -0.0986  0.7236  0.8629
13560SOL     OW45999   9.418   3.496   6.054  0.3441 -0.0399 -0.0627
13560SOL    HW146000   9.504   3.532   6.031 -0.5522  0.0964 -3.8459
13560SOL    HW246001   9.389   3.550   6.128  2.6347  1.2914 -0.0332
13561SOL     OW46002  10.392   8.261   8.713  0.2105 -0.3764  0.2987
13561SOL    HW146003  10.442   8.191   8.754  0.9629  0.6409  1.1650
13561SOL    HW246004  10.317   8.274   8.771  0.1556 -0.3618  0.2246
13562SOL     OW46005   3.047   5.991   8.730 -0.3920 -0.3280  0.1413
13562SOL    HW146006   3.124   6.004   8.785 -0.1800 -0.4199 -0.1332
13562SOL    HW246007   3.071   6.028   8.645 -0.3323 -1.1412 -0.2017
13563SOL     OW46008   8.362   8.985  10.191  0.3523 -0.2523 -0.6554
13563SOL    HW146009   8.346   9.063  10.245  1.0836 -1.1863  0.9848
13563SOL    HW246010   8.279   8.937  10.194  1.0693 -1.4729  1.7091
13564SOL     OW46011   3.164   9.944   2.894 -0.7525 -0.1779 -0.1587
13564SOL    HW146012   3.171  10.036   2.921 -2.2754  0.4319 -1.6801
13564SOL    HW246013   3.139   9.898   2.974  1.0993  0.5184  0.8813
13565SOL     OW46014  11.349   9.389   5.186  0.2275 -0.1713  0.0880
13565SOL    HW146015  11.306   9.474   5.187  0.1614 -0.1880  1.9604
13565SOL    HW246016  11.426   9.400   5.242  1.6599 -0.6615 -1.7025
13566SOL     OW46017   6.048   4.215   6.369  0.1813  0.3061  0.0050
13566SOL    HW146018   5.966   4.249   6.405  0.6837  0.0624  1.4085
13566SOL    HW246019   6.033   4.120   6.361 -0.4319  0.4992 -1.8536
13567SOL     OW46020   0.977   2.937   7.762  0.0186 -0.3590  0.5284
13567SOL    HW146021   0.965   2.844   7.747 -1.4183 -0.0610 -0.4599
13567SOL    HW246022   1.008   2.971   7.678  2.5172 -0.2105  1.4473
13568SOL     OW46023   3.207   3.741   7.995  0.5243  0.2852  0.4676
13568SOL    HW146024   3.199   3.832   8.024 -1.1527 -0.4153  2.4897
13568SOL    HW246025   3.140   3.731   7.927 -0.3295  0.2259  1.2945
13569SOL     OW46026   3.352   9.340  10.145  0.4835 -0.3073 -0.2052
13569SOL    HW146027   3.375   9.277  10.214 -0.0553  0.4094  0.6553
13569SOL    HW246028   3.258   9.330  10.133  0.3928  0.3356 -0.0536
13570SOL     OW46029   5.510   7.824   6.356 -0.6465  0.5070 -0.3293
13570SOL    HW146030   5.459   7.899   6.384  1.1293  2.3758 -1.8052
13570SOL    HW246031   5.459   7.785   6.284 -0.8609  1.2604 -0.5936
13571SOL     OW46032   7.668   6.417   1.252  0.0440  0.4710  0.2873
13571SOL    HW146033   7.754   6.418   1.211  0.3351  2.3492  0.8533
13571SOL    HW246034   7.607   6.429   1.180  0.2944 -0.0777 -0.0230
13572SOL     OW46035   3.561  10.460   2.016  0.2211 -0.4642 -0.6428
13572SOL    HW146036   3.607  10.532   1.973 -0.5882  0.2460 -0.3777
13572SOL    HW246037   3.496  10.432   1.952 -0.2266 -0.1737 -0.3219
13573SOL     OW46038   9.374  10.245   2.818 -0.5325  0.6541 -0.1652
13573SOL    HW146039   9.458  10.202   2.834 -0.3912  0.9452 -0.1148
13573SOL    HW246040   9.394  10.338   2.821 -0.7806  0.7226 -0.5801
13574SOL     OW46041   8.416   8.930   2.687 -0.0854 -0.8525 -0.3037
13574SOL    HW146042   8.371   8.880   2.619 -0.7083 -0.6656 -0.0288
13574SOL    HW246043   8.503   8.889   2.692  0.0236 -0.7766 -1.3049
13575SOL     OW46044   8.714   9.288   4.580  0.3610  0.2871  0.2378
13575SOL    HW146045   8.689   9.276   4.671  2.0855  0.0563  0.7214
13575SOL    HW246046   8.640   9.253   4.530 -0.0628 -0.7996  1.5582
13576SOL     OW46047   1.036   0.220  10.991  0.2170 -0.2104 -0.1049
13576SOL    HW146048   0.980   0.161  11.042 -0.6033 -0.4111 -1.2019
13576SOL    HW246049   1.085   0.269  11.057 -2.3453  1.0663  1.0133
13577SOL     OW46050   1.500   7.956  11.386  0.5262 -0.4890  0.0062
13577SOL    HW146051   1.571   7.988  11.331  0.1243  0.6424  0.1099
13577SOL    HW246052   1.425   7.948  11.326 -0.1679  1.6385  0.4916
13578SOL     OW46053   6.302   5.854  10.883  0.5129 -0.0187 -0.8190
13578SOL    HW146054   6.222   5.833  10.835  1.3870  0.5721 -2.6288
13578SOL    HW246055   6.321   5.775  10.934 -0.9086 -0.3650 -0.7854
13579SOL     OW46056  10.105   1.794   5.945 -0.0239 -0.0182  0.4554
13579SOL    HW146057  10.044   1.806   6.017 -0.8204  1.2276 -0.3808
13579SOL    HW246058  10.144   1.881   5.932  0.4387 -0.3321 -0.3197
13580SOL     OW46059   0.801   5.679   6.827 -0.0835  0.0828  0.2610
13580SOL    HW146060   0.786   5.765   6.865 -1.7688  0.0337 -0.2157
13580SOL    HW246061   0.862   5.636   6.887  0.9111  1.6424  0.4145
13581SOL     OW46062   8.889   8.349   3.792 -0.2305 -0.3756 -0.2183
13581SOL    HW146063   8.882   8.260   3.828 -3.6863  0.1889  0.8592
13581SOL    HW246064   8.903   8.405   3.868  0.4881  0.1617 -0.7266
13582SOL     OW46065  11.550   4.971   9.800 -0.2388 -0.1444 -0.3283
13582SOL    HW146066  11.574   4.906   9.734 -0.4908 -0.3416 -0.2270
13582SOL    HW246067  11.547   4.922   9.882 -0.8531 -0.0941 -0.3195
13583SOL     OW46068   2.884   1.340   1.326 -0.0887  0.3150  0.1205
13583SOL    HW146069   2.872   1.245   1.326 -0.3413  0.3106 -1.8177
13583SOL    HW246070   2.834   1.371   1.402 -0.0089 -1.0759  0.7736
13584SOL     OW46071   4.557   7.258   3.444 -0.2046  0.0070  0.2083
13584SOL    HW146072   4.561   7.274   3.350 -1.7831 -0.3676  0.0463
13584SOL    HW246073   4.560   7.344   3.484 -0.6429  0.2339 -0.2422
13585SOL     OW46074   1.266   0.085   4.422  0.3658 -0.5022 -0.8324
13585SOL    HW146075   1.227   0.156   4.371 -0.1235 -0.1635 -0.0123
13585SOL    HW246076   1.202   0.068   4.492  1.8191  0.3424  0.7952
13586SOL     OW46077   0.104  10.695   7.282 -0.2408 -0.2539 -0.1066
13586SOL    HW146078   0.170  10.658   7.341  0.5450 -0.5956 -1.1653
13586SOL    HW246079   0.062  10.619   7.242  0.0295 -0.0266 -0.8366
13587SOL     OW46080   2.311   1.954   4.809 -0.3139 -0.2705 -0.1074
13587SOL    HW146081   2.359   1.999   4.879 -0.0523  0.8477 -0.9622
13587SOL    HW246082   2.334   1.862   4.819  1.6849  0.1689 -0.1989
13588SOL     OW46083   7.665   2.072   0.918  0.6310 -0.3229  0.0969
13588SOL    HW146084   7.684   2.158   0.881  0.6583 -1.2083 -2.1107
13588SOL    HW246085   7.621   2.091   1.001 -0.6340  1.8443 -0.9761
13589SOL     OW46086   3.628  10.284   8.738 -0.1983 -0.4040  0.0702
13589SOL    HW146087   3.641  10.311   8.647  0.2919 -0.2185  0.1907
13589SOL    HW246088   3.710  10.308   8.782 -0.3075 -0.7884  0.4912
13590SOL     OW46089   5.571   6.332   3.089 -0.3582  0.2789 -0.2012
13590SOL    HW146090   5.554   6.339   3.183  2.2251 -0.1195  0.3538
13590SOL    HW246091   5.605   6.243   3.078  0.0039  0.5557 -1.4057
13591SOL     OW46092   5.448   2.393   5.050 -0.5561  0.2250 -0.2300
13591SOL    HW146093   5.414   2.372   5.137 -1.2093 -2.0752 -0.9815
13591SOL    HW246094   5.542   2.377   5.056 -0.1716  2.4252  0.6578
13592SOL     OW46095   7.537   2.988   5.633  0.0280  0.0737  0.0541
13592SOL    HW146096   7.467   3.051   5.617 -0.7290 -0.0527  2.5137
13592SOL    HW246097   7.608   3.041   5.669 -0.4174 -0.3521  1.6241
13593SOL     OW46098   2.486  11.245   9.944 -0.2348 -0.2895  0.3562
13593SOL    HW146099   2.539  11.190   9.887 -1.6008 -0.3736 -0.8945
13593SOL    HW246100   2.399  11.204   9.942 -0.2983 -0.3799  2.6358
13594SOL     OW46101   7.246  11.498  11.694 -0.1384 -0.4509 -0.3048
13594SOL    HW146102   7.301  11.431  11.655  2.5745  1.7196 -0.4674
13594SOL    HW246103   7.229  11.560  11.623 -0.8395  0.1128  0.3328
13595SOL     OW46104   4.172  11.007  11.418  0.0874 -0.3983  0.0156
13595SOL    HW146105   4.105  10.994  11.351  0.2460  0.5259 -0.3389
13595SOL    HW246106   4.255  10.999  11.370  0.2007  1.8534 -0.2527
13596SOL     OW46107   6.785   6.434   5.290  0.0743 -0.1701 -0.5660
13596SOL    HW146108   6.877   6.435   5.313  0.1889  0.2227 -1.0144
13596SOL    HW246109   6.762   6.342   5.286  0.5659 -0.2837 -0.8886
13597SOL     OW46110   2.505   2.820   0.745 -0.0706 -0.3035 -0.1533
13597SOL    HW146111   2.488   2.764   0.670 -0.7623 -0.0529 -0.1895
13597SOL    HW246112   2.592   2.857   0.728 -0.6700  0.6162 -1.3838
13598SOL     OW46113   2.235   9.185  10.511  0.2731  0.5429  0.3306
13598SOL    HW146114   2.319   9.148  10.486  1.1546  0.7696  2.7014
13598SOL    HW246115   2.195   9.119  10.567 -1.9467 -0.2709 -1.9909
13599SOL     OW46116  10.681  10.756   4.468  0.0043  0.2990  0.5972
13599SOL    HW146117  10.723  10.773   4.384 -1.1401  0.7200  0.0916
13599SOL    HW246118  10.667  10.843   4.506 -0.9978  0.2143  0.4495
13600SOL     OW46119  11.367  11.347   9.087  0.3586  0.8623  0.5696
13600SOL    HW146120  11.343  11.388   9.170 -1.2234  2.0943 -0.4318
13600SOL    HW246121  11.332  11.406   9.021 -0.2765 -1.1363 -0.9736
13601SOL     OW46122  10.537   3.770   5.378 -0.0426 -0.0849 -0.4513
13601SOL    HW146123  10.468   3.728   5.327 -0.6077  0.7785 -0.4088
13601SOL    HW246124  10.577   3.833   5.318 -0.1605  0.3496 -0.0786
13602SOL     OW46125   6.919   5.237   9.830 -0.1431  0.3529  0.1652
13602SOL    HW146126   6.827   5.251   9.854 -0.3123  0.8166 -0.7310
13602SOL    HW246127   6.931   5.142   9.834 -0.8330  0.2394 -0.3116
13603SOL     OW46128   5.893   7.612  10.642 -0.1982 -0.1169 -0.6329
13603SOL    HW146129   5.965   7.655  10.596  0.6834 -0.2882  0.5294
13603SOL    HW246130   5.913   7.518  10.636 -1.0672 -0.2626 -1.4746
13604SOL     OW46131   9.120   7.481  11.316 -0.2114  0.0073  0.2785
13604SOL    HW146132   9.087   7.472  11.227 -1.3486  1.6169  0.4797
13604SOL    HW246133   9.076   7.559  11.350  0.9421  0.0098  1.9171
13605SOL     OW46134  11.253   4.515   6.867 -0.4492  0.6345 -0.1490
13605SOL    HW146135  11.283   4.431   6.903 -0.1414  0.5649 -0.5665
13605SOL    HW246136  11.180   4.492   6.810  0.3274  0.5185 -1.1251
13606SOL     OW46137  11.301   1.424  10.569  0.2024  0.2336 -0.3004
13606SOL    HW146138  11.216   1.445  10.532  0.7438  0.5445 -1.3955
13606SOL    HW246139  11.293   1.334  10.599  0.2213 -0.6158 -2.6672
13607SOL     OW46140  11.688   4.333   6.320 -0.2307 -0.1096  0.3571
13607SOL    HW146141  11.726   4.271   6.258  1.2348 -0.9516  2.0206
13607SOL    HW246142  11.596   4.308   6.325 -0.0035 -1.1206 -0.1879
13608SOL     OW46143   4.691   4.007   1.860 -0.2295 -0.8679  0.4770
13608SOL    HW146144   4.769   4.041   1.904  0.7922 -1.2325 -0.9670
13608SOL    HW246145   4.722   3.929   1.814 -1.1071 -0.1959 -1.3193
13609SOL     OW46146   1.210   7.234   1.636 -0.5231  0.1139  0.0716
13609SOL    HW146147   1.149   7.241   1.710 -0.8614  0.2259 -0.2177
13609SOL    HW246148   1.268   7.310   1.647  0.6767 -0.9407  1.3343
13610SOL     OW46149   0.086   4.755   1.020  0.1255 -0.1222 -0.1119
13610SOL    HW146150   0.177   4.729   1.032  0.5388  1.7313  1.1843
13610SOL    HW246151   0.038   4.709   1.089  0.3636  0.1997  0.2712
13611SOL     OW46152   4.872   5.350   3.111  0.3002 -0.4486 -0.0649
13611SOL    HW146153   4.854   5.256   3.118 -0.3121 -0.5287 -1.9857
13611SOL    HW246154   4.928   5.358   3.033  1.8218  0.6347  1.0792
13612SOL     OW46155   4.790   2.381   1.871 -0.7205 -0.2299  0.0229
13612SOL    HW146156   4.765   2.431   1.793  1.4717  0.7727 -0.0950
13612SOL    HW246157   4.814   2.448   1.936 -4.1935 -0.9170  2.3195
13613SOL     OW46158   2.469   5.330   7.355  0.6258 -0.2058  0.0824
13613SOL    HW146159   2.453   5.257   7.295  1.0343 -0.2964  0.0847
13613SOL    HW246160   2.564   5.330   7.369  0.3888 -1.1881  1.9907
13614SOL     OW46161   4.461   0.276   9.177  0.2874 -0.0266 -0.1747
13614SOL    HW146162   4.505   0.232   9.249 -0.4373  0.1610  0.3916
13614SOL    HW246163   4.411   0.206   9.134 -0.4996  0.1455  0.4462
13615SOL     OW46164   2.250   1.007  10.120  0.1876  0.1268  0.6570
13615SOL    HW146165   2.259   0.914  10.143 -0.6504  0.3333  1.9109
13615SOL    HW246166   2.189   1.007  10.047 -0.3840 -0.2668  1.1236
13616SOL     OW46167   5.988   7.391   0.160  0.2792  0.7448  0.2277
13616SOL    HW146168   5.987   7.357   0.071  0.9975 -0.2111  0.5676
13616SOL    HW246169   5.926   7.464   0.159 -1.3550 -0.5893 -0.5399
13617SOL     OW46170   7.141   6.666   5.653  0.5714 -0.9942 -0.0547
13617SOL    HW146171   7.119   6.690   5.743  2.5694 -0.4555  0.3247
13617SOL    HW246172   7.088   6.726   5.600 -0.9395 -1.5907  0.7033
13618SOL     OW46173   7.504   8.339   7.102 -0.0406 -0.1734  0.1587
13618SOL    HW146174   7.451   8.275   7.149  0.9387 -1.9680 -1.0649
13618SOL    HW246175   7.590   8.334   7.144  0.0689  0.3122  0.0068
13619SOL     OW46176  10.686   5.084   0.225 -0.3031  0.3553  0.3841
13619SOL    HW146177  10.780   5.072   0.217 -0.0710  1.6199  0.9096
13619SOL    HW246178  10.670   5.087   0.320 -1.1494 -1.6122  0.3622
13620SOL     OW46179   6.620   6.772   0.702 -0.1341 -0.0982 -0.6591
13620SOL    HW146180   6.685   6.827   0.658 -0.6049  0.4795 -0.6280
13620SOL    HW246181   6.567   6.832   0.752 -0.4706 -0.6150 -0.3873
13621SOL     OW46182   6.128  11.106   1.565 -0.1443 -0.5102 -0.2174
13621SOL    HW146183   6.191  11.156   1.513 -1.9809  1.6376 -0.5677
13621SOL    HW246184   6.106  11.164   1.638 -1.2106 -1.4439  0.2335
13622SOL     OW46185   1.850   5.324   2.702  0.6264  0.0439 -0.3900
13622SOL    HW146186   1.832   5.242   2.747 -1.1996 -0.6466 -2.1977
13622SOL    HW246187   1.764   5.364   2.690  1.2287  1.0296 -1.6807
13623SOL     OW46188  10.310   2.406   3.208  0.2918  0.1678 -0.2245
13623SOL    HW146189  10.331   2.452   3.127 -0.7429  1.2456  0.0874
13623SOL    HW246190  10.271   2.324   3.179  2.9582 -0.9964 -0.7933
13624SOL     OW46191  10.695   8.843   7.625  0.2605 -0.0721 -0.6709
13624SOL    HW146192  10.696   8.766   7.682  0.2960 -0.0169 -0.5983
13624SOL    HW246193  10.786   8.852   7.596  0.4057  0.3938 -0.0800
13625SOL     OW46194   3.258   6.657   3.017  0.8490  0.1951  0.3208
13625SOL    HW146195   3.318   6.731   3.012 -0.4554  1.2357 -2.0404
13625SOL    HW246196   3.281   6.603   2.941 -1.3379  0.8317 -0.8866
13626SOL     OW46197   1.505  11.742   8.987  0.2477 -0.6391  0.2618
13626SOL    HW146198   1.587  11.783   9.013  0.2243 -1.1222  1.1433
13626SOL    HW246199   1.438  11.805   9.010  0.3589 -0.2419 -0.4632
13627SOL     OW46200   4.153   6.127   0.939  0.1686 -0.0315  0.1730
13627SOL    HW146201   4.118   6.055   0.887  0.5276  0.7601 -1.2258
13627SOL    HW246202   4.078   6.184   0.956 -0.2959 -1.1080  2.0202
13628SOL     OW46203   1.632  11.521   7.110 -0.3677  0.0147  0.1781
13628SOL    HW146204   1.699  11.453   7.116 -0.4801 -0.5886 -3.2276
13628SOL    HW246205   1.681  11.603   7.105  0.1550 -0.3507 -1.3731
13629SOL     OW46206   9.995   5.657   2.317 -1.0126 -0.1991  0.1153
13629SOL    HW146207  10.070   5.598   2.324 -1.0993 -0.2854  0.3196
13629SOL    HW246208  10.000   5.691   2.227 -0.1006  0.6386  0.4593
13630SOL     OW46209   4.944   2.395   2.128  0.2307  0.1459 -0.2850
13630SOL    HW146210   4.904   2.482   2.132 -0.9864 -0.3863 -0.5926
13630SOL    HW246211   4.989   2.386   2.212  1.1474  1.4191 -0.5993
13631SOL     OW46212  11.114   1.664   9.279  0.2437 -0.2324  0.1589
13631SOL    HW146213  11.022   1.638   9.273  0.8373 -2.4305 -0.4600
13631SOL    HW246214  11.134   1.701   9.193  0.2918 -1.1932 -0.2652
13632SOL     OW46215   4.852   4.339   9.665  0.0366  0.1076  0.0043
13632SOL    HW146216   4.873   4.394   9.590 -1.9045  1.3262  0.2780
13632SOL    HW246217   4.802   4.396   9.723 -0.1259 -1.3394  1.3506
13633SOL     OW46218   4.931  11.615  11.593  0.6688  0.4876 -0.8080
13633SOL    HW146219   4.855  11.669  11.612 -1.0725 -1.6532 -1.2426
13633SOL    HW246220   4.919  11.537  11.648  1.6816 -0.6238 -2.0907
13634SOL     OW46221   8.589  11.644   2.049 -0.1655  0.0055  0.9923
13634SOL    HW146222   8.574  11.554   2.076  1.0001 -0.4542  0.1950
13634SOL    HW246223   8.605  11.692   2.130 -2.0258 -0.2308  1.5310
13635SOL     OW46224   4.830   8.472   1.364 -0.1348 -0.1703  0.4904
13635SOL    HW146225   4.906   8.414   1.356 -0.2561 -0.1325 -1.1728
13635SOL    HW246226   4.857   8.536   1.431  1.3661 -0.0702 -0.1664
13636SOL     OW46227   8.557  10.031   9.130  0.3694 -0.1627 -0.7690
13636SOL    HW146228   8.487  10.082   9.171  0.0597 -0.8694 -0.3982
13636SOL    HW246229   8.538   9.940   9.154  0.9142 -0.4553 -1.4145
13637SOL     OW46230  10.583   1.594  11.444  0.6303 -0.3892  0.4387
13637SOL    HW146231  10.608   1.614  11.353 -0.9045 -1.0687 -0.1730
13637SOL    HW246232  10.503   1.543  11.435  0.9145 -1.1800  2.1723
13638SOL     OW46233  11.010   5.167  11.601  0.1207  0.5655 -0.1962
13638SOL    HW146234  11.084   5.119  11.637 -0.5267 -0.9056 -0.7422
13638SOL    HW246235  10.993   5.237  11.664  2.4018  1.3897 -0.4233
13639SOL     OW46236   6.860   4.386   1.902  0.1479 -0.2730  0.0955
13639SOL    HW146237   6.790   4.450   1.894  0.7820  0.3786 -0.4088
13639SOL    HW246238   6.878   4.382   1.996  0.3016  0.5373  0.1128
13640SOL     OW46239   1.450   7.844   2.531  0.1147  0.3968 -0.2791
13640SOL    HW146240   1.494   7.928   2.518  0.0144  0.4889 -0.0219
13640SOL    HW246241   1.482   7.789   2.459 -1.1750  1.1967 -1.5137
13641SOL     OW46242  11.576   1.503   4.869  0.0217  0.4883 -0.0551
13641SOL    HW146243  11.639   1.536   4.933 -0.0367  0.5182 -0.0130
13641SOL    HW246244  11.542   1.423   4.909  0.0293  0.4750 -0.0755
13642SOL     OW46245   4.175  10.246   5.817 -0.2505  0.3615 -0.8375
13642SOL    HW146246   4.191  10.172   5.875  1.7916  1.2046 -0.2385
13642SOL    HW246247   4.105  10.296   5.861  0.9477  0.7444  0.7143
13643SOL     OW46248   5.353   9.002   3.122 -0.0111  0.0151  0.0261
13643SOL    HW146249   5.333   9.091   3.150  0.0816  0.0968 -0.1704
13643SOL    HW246250   5.323   8.947   3.195 -1.1616  0.1167 -0.3466
13644SOL     OW46251   9.956   0.946   9.139  0.0687  0.0938  0.2230
13644SOL    HW146252  10.043   0.912   9.157 -0.4299 -1.5883 -0.3583
13644SOL    HW246253   9.897   0.873   9.159 -1.2598  1.3577  1.0879
13645SOL     OW46254   1.618   2.044   8.584 -0.8793  0.7086  0.1933
13645SOL    HW146255   1.578   1.992   8.654  0.1020  1.4149  1.3047
13645SOL    HW246256   1.663   1.979   8.530 -1.8747  0.1257  0.0314
13646SOL     OW46257   4.596   0.192   6.549  0.2374 -0.1901  0.4022
13646SOL    HW146258   4.682   0.156   6.568  0.3573  0.3523  0.9129
13646SOL    HW246259   4.544   0.173   6.627 -0.3773 -1.3292 -0.2719
13647SOL     OW46260   5.017  10.938   2.083 -0.2209  0.2462 -0.3389
13647SOL    HW146261   5.035  10.975   1.996 -1.0098 -1.8574 -1.4853
13647SOL    HW246262   4.952  10.869   2.066 -0.1631 -0.4207  1.8958
13648SOL     OW46263   7.011   2.627   6.234  0.5764 -0.6152  0.2104
13648SOL    HW146264   6.964   2.710   6.248  1.1551  0.0819 -1.7132
13648SOL    HW246265   6.998   2.607   6.142 -0.7479 -3.4829  0.9377
13649SOL     OW46266   8.872   1.363  11.776 -0.0248 -1.3045  0.4188
13649SOL    HW146267   8.784   1.401  11.770 -0.2826 -1.7836  1.0685
13649SOL    HW246268   8.857   1.270  11.794  0.6182 -1.0929  2.2143
13650SOL     OW46269   5.104  10.742  10.587 -0.0479 -0.1033  0.2462
13650SOL    HW146270   5.040  10.811  10.607  0.0337 -0.0896  0.4600
13650SOL    HW246271   5.180  10.790  10.555 -0.4127 -0.1580 -0.7430
13651SOL     OW46272   9.574   4.687   4.746 -0.2196 -0.1968  0.2173
13651SOL    HW146273   9.524   4.753   4.794  0.3361  0.7181 -0.4554
13651SOL    HW246274   9.628   4.736   4.685  1.4904 -1.1746  0.8771
13652SOL     OW46275   2.691   7.900  11.246 -0.4321  0.4593  0.4299
13652SOL    HW146276   2.736   7.899  11.330  0.7997  1.6339 -0.1741
13652SOL    HW246277   2.629   7.827  11.250 -0.1306  0.2732  2.1955
13653SOL     OW46278   9.927   9.555   3.983  0.8650 -0.1903 -0.1161
13653SOL    HW146279   9.841   9.540   4.024  0.7325 -2.2523 -1.0213
13653SOL    HW246280   9.948   9.471   3.941  2.0178  1.1398 -2.3435
13654SOL     OW46281   6.512   1.610   7.520  0.4681 -0.1379 -0.0951
13654SOL    HW146282   6.602   1.643   7.525  0.7361 -0.7599 -0.6275
13654SOL    HW246283   6.511   1.533   7.577 -0.1265  0.6910  1.0618
13655SOL     OW46284   3.995   8.881   1.664 -0.5844  0.0151  0.3982
13655SOL    HW146285   3.909   8.859   1.627 -0.3889 -0.2511  0.0976
13655SOL    HW246286   4.033   8.796   1.686 -0.3911  0.1329  0.5138
13656SOL     OW46287   9.018  10.371   2.301  0.6061  0.0238  0.2316
13656SOL    HW146288   9.069  10.435   2.351  1.0670  1.3310 -1.7900
13656SOL    HW246289   9.006  10.297   2.361  2.0749  1.0333  1.8501
13657SOL     OW46290   0.870   4.661   6.790 -0.3558  0.3995 -0.4074
13657SOL    HW146291   0.952   4.711   6.787 -0.3654  0.4427  0.0370
13657SOL    HW246292   0.883   4.598   6.860 -0.6035  0.2269 -0.5165
13658SOL     OW46293   5.163   5.814   0.960 -0.3389  0.0941 -0.3854
13658SOL    HW146294   5.156   5.835   0.867  0.3381  0.8092 -0.2840
13658SOL    HW246295   5.188   5.896   1.002  0.0453 -0.3769  0.3353
13659SOL     OW46296   4.869   5.329   5.276 -0.1396 -0.0306 -0.1430
13659SOL    HW146297   4.957   5.365   5.267 -0.4657  0.8184 -0.0235
13659SOL    HW246298   4.837   5.365   5.359 -1.0243  0.6097 -0.7398
13660SOL     OW46299   9.995  11.661   3.973 -0.5392 -0.4785  0.6101
13660SOL    HW146300  10.075  11.699   3.936 -0.3301 -1.2661  0.2318
13660SOL    HW246301   9.942  11.737   3.998 -1.0714  0.1024 -2.0629
13661SOL     OW46302   7.003  10.036   4.475  0.4620  0.4883  0.0667
13661SOL    HW146303   6.966   9.948   4.485 -1.4895  1.4134  1.9877
13661SOL    HW246304   7.035  10.058   4.563 -0.0979  2.0883 -0.0978
13662SOL     OW46305   0.865   5.010   9.641 -0.6288 -0.0666  0.4170
13662SOL    HW146306   0.859   4.919   9.668  0.6391  0.3340  2.2345
13662SOL    HW246307   0.775   5.035   9.620 -0.8232 -2.0953 -1.5899
13663SOL     OW46308   9.367   0.795   5.342 -0.3072 -0.0048 -0.4443
13663SOL    HW146309   9.369   0.817   5.435 -0.4219 -1.4270 -0.0813
13663SOL    HW246310   9.278   0.761   5.327 -0.0388 -0.5286 -0.8843
13664SOL     OW46311   3.314  10.593   2.193 -0.1745  0.4312 -0.2624
13664SOL    HW146312   3.365  10.633   2.263 -1.4207  1.4402  0.1145
13664SOL    HW246313   3.366  10.518   2.164 -0.4333 -1.1682  2.9961
13665SOL     OW46314   2.718   3.729   8.960  0.5053 -0.2924  0.1586
13665SOL    HW146315   2.753   3.701   8.875 -0.6031  0.2500 -0.4970
13665SOL    HW246316   2.718   3.824   8.956 -1.4533 -0.2603 -0.0738
13666SOL     OW46317   8.483   4.249   7.768 -0.0005  0.4904  0.7854
13666SOL    HW146318   8.449   4.324   7.719  0.9415  0.0934 -0.5428
13666SOL    HW246319   8.413   4.183   7.762  0.4562  0.1095 -0.8849
13667SOL     OW46320   9.241   7.564   3.514 -0.0039 -0.4488  0.0553
13667SOL    HW146321   9.322   7.517   3.530  2.4474  2.7163 -1.7397
13667SOL    HW246322   9.197   7.515   3.445  0.3283 -2.2402  1.0749
13668SOL     OW46323   6.105   3.675   0.508  0.5040 -0.2997  0.3340
13668SOL    HW146324   6.084   3.592   0.464  0.2232 -0.2403  0.3516
13668SOL    HW246325   6.100   3.741   0.439  0.5572 -0.2751  0.3540
13669SOL     OW46326  11.136   6.051   2.169 -0.1813  0.0058  0.4180
13669SOL    HW146327  11.115   6.024   2.079  0.3570 -1.1391  0.6303
13669SOL    HW246328  11.215   6.104   2.160  2.0747 -3.1177  0.5438
13670SOL     OW46329   0.885   8.741   6.524  0.7149 -0.2518 -0.5471
13670SOL    HW146330   0.925   8.658   6.500  1.0473 -0.2024 -0.1883
13670SOL    HW246331   0.822   8.719   6.592  1.7632 -0.0638  0.5295
13671SOL     OW46332   6.225   9.447   0.491  0.3781 -0.2835  0.5795
13671SOL    HW146333   6.146   9.394   0.483  0.0946  0.2721 -0.4514
13671SOL    HW246334   6.247   9.444   0.584 -0.7963 -0.5316  0.8588
13672SOL     OW46335  11.355   9.990   7.106 -0.5845  0.2988  0.1451
13672SOL    HW146336  11.444   9.976   7.138 -0.3623  2.5639  0.6599
13672SOL    HW246337  11.306  10.017   7.184 -1.8301 -1.2100 -0.0720
13673SOL     OW46338   7.943  10.544   4.356 -0.4190  0.1729 -0.2199
13673SOL    HW146339   7.890  10.467   4.338 -1.1258  0.6236 -0.1279
13673SOL    HW246340   8.011  10.543   4.289  0.4192 -1.2680  0.6102
13674SOL     OW46341   0.983  11.437   4.066 -0.2053 -0.2433  0.0895
13674SOL    HW146342   1.025  11.425   3.981  0.5210  1.1002  0.2403
13674SOL    HW246343   0.910  11.374   4.065 -0.2009 -0.2713 -1.5125
13675SOL     OW46344  11.424   7.383   5.599  0.4415  0.3895 -0.5687
13675SOL    HW146345  11.348   7.378   5.541  0.1054  0.2045 -0.1162
13675SOL    HW246346  11.486   7.439   5.552  1.8531 -2.9169 -3.0094
13676SOL     OW46347   9.214   1.919   1.839 -0.0396 -0.2163 -0.1105
13676SOL    HW146348   9.128   1.954   1.813 -0.0144 -1.0217 -1.3772
13676SOL    HW246349   9.250   1.986   1.897 -1.5921  0.0688  0.5956
13677SOL     OW46350   1.196   5.809   6.362  0.8619 -0.2867 -0.2150
13677SOL    HW146351   1.157   5.895   6.346 -0.5047 -0.7624  0.4408
13677SOL    HW246352   1.285   5.829   6.393  2.0965  0.7514 -3.9388
13678SOL     OW46353   9.365   4.033   1.471 -0.8157 -0.3399 -0.1275
13678SOL    HW146354   9.310   3.957   1.448 -0.9310 -0.2083 -0.2878
13678SOL    HW246355   9.432   4.035   1.402 -2.5087  1.4353 -1.8356
13679SOL     OW46356   4.882   0.804   4.346  0.5079 -0.2009  0.2852
13679SOL    HW146357   4.797   0.842   4.369  0.6046 -1.3186  2.8326
13679SOL    HW246358   4.938   0.880   4.330 -0.3360  0.6444  1.1732
13680SOL     OW46359   3.662   0.809   1.015  0.2611 -0.2129  0.3916
13680SOL    HW146360   3.679   0.816   0.921 -0.5298  1.2196  0.3198
13680SOL    HW246361   3.583   0.862   1.029  0.9680  0.4828  2.0166
13681SOL     OW46362   1.426   2.945   2.594  0.2257 -0.2769 -0.0531
13681SOL    HW146363   1.517   2.972   2.586 -0.4013  1.8406 -0.6167
13681SOL    HW246364   1.401   2.915   2.507  0.4986 -1.3637  0.2241
13682SOL     OW46365   0.747   9.110   0.616  0.0997 -0.5384 -0.5107
13682SOL    HW146366   0.823   9.062   0.585  0.6866  0.6954 -1.0449
13682SOL    HW246367   0.783   9.186   0.662 -0.7903  0.0461 -0.7444
13683SOL     OW46368   9.880   6.528   0.781 -0.0769  0.2154  0.0292
13683SOL    HW146369   9.914   6.602   0.831 -0.9758  0.8505 -0.2713
13683SOL    HW246370   9.927   6.452   0.815  0.5203  0.8587  0.6702
13684SOL     OW46371  10.354   8.557   7.455  0.2572  0.0072 -0.0055
13684SOL    HW146372  10.279   8.596   7.410 -0.1873  1.7277  2.0759
13684SOL    HW246373  10.378   8.621   7.522  2.6149 -1.2159  0.4257
13685SOL     OW46374   0.726   4.570   9.011 -0.1004  0.1754  0.1424
13685SOL    HW146375   0.691   4.587   8.924  0.0370  0.2180  0.0955
13685SOL    HW246376   0.788   4.498   8.999  0.2827  0.5033  0.1172
13686SOL     OW46377  10.598   2.035   1.320 -0.2660  0.0491 -0.2350
13686SOL    HW146378  10.649   2.115   1.302 -0.1171  0.3116  1.2088
13686SOL    HW246379  10.646   1.966   1.275 -0.9023  0.8653 -2.3070
13687SOL     OW46380   8.703   4.739   8.983 -0.3359 -0.0497  0.3721
13687SOL    HW146381   8.753   4.742   9.065  0.6389 -0.1085 -0.2009
13687SOL    HW246382   8.661   4.825   8.977  0.6101  0.4253  0.3205
13688SOL     OW46383   8.821   7.792   4.190  0.3727 -0.5161  0.2148
13688SOL    HW146384   8.888   7.806   4.122 -0.7686  0.7258 -0.6857
13688SOL    HW246385   8.751   7.854   4.169 -0.3506 -0.6234  2.1123
13689SOL     OW46386   1.727   6.132   4.045  0.4737 -0.1267  0.1831
13689SOL    HW146387   1.782   6.207   4.067  1.0409 -0.6482  0.5803
13689SOL    HW246388   1.774   6.057   4.080 -1.5763 -0.4014  2.6193
13690SOL     OW46389   3.051  10.429   6.023  0.0168  0.2086 -0.1405
13690SOL    HW146390   3.124  10.490   6.031 -0.3902  0.7893 -0.7973
13690SOL    HW246391   3.076  10.355   6.078  1.0727  0.4269 -0.3039
13691SOL     OW46392   6.712   8.718   9.675  0.1496 -0.5687  0.2652
13691SOL    HW146393   6.699   8.644   9.616 -0.9770 -0.8301  0.8140
13691SOL    HW246394   6.656   8.787   9.641  0.0147 -0.4945  0.6303
13692SOL     OW46395   9.485   4.133   9.832  0.0628  0.1187 -0.0725
13692SOL    HW146396   9.457   4.146   9.923 -0.0294 -1.6278  0.1840
13692SOL    HW246397   9.404   4.117   9.785  0.1789  0.3081 -0.3388
13693SOL     OW46398   1.666  11.807  10.529  0.2374  0.2053  0.6132
13693SOL    HW146399   1.646  11.765  10.446  0.1507 -0.0966  0.7843
13693SOL    HW246400   1.647  11.740  10.595  2.2147 -0.2518  0.7734
13694SOL     OW46401  10.923   5.869  10.983  0.3316 -0.1219 -0.0961
13694SOL    HW146402  11.013   5.840  10.999  0.3686  0.9565  1.9403
13694SOL    HW246403  10.914   5.867  10.887  2.3621 -0.6568 -0.3249
13695SOL     OW46404   5.155  10.673   7.498  0.0574 -0.7062  0.0947
13695SOL    HW146405   5.155  10.658   7.592  0.6051  1.2750  0.4533
13695SOL    HW246406   5.234  10.724   7.481 -0.0698 -0.9479 -1.4410
13696SOL     OW46407   1.489   6.841   6.826 -0.1424 -0.5661  0.1954
13696SOL    HW146408   1.459   6.780   6.758 -0.2800 -0.4922  0.1893
13696SOL    HW246409   1.437   6.920   6.812  0.4275 -0.2469 -0.1435
13697SOL     OW46410  10.047   2.311  11.187  0.1031 -0.2810  0.2004
13697SOL    HW146411  10.099   2.312  11.107 -2.0088 -1.8086 -1.3038
13697SOL    HW246412  10.052   2.220  11.219 -1.2153 -0.3631  0.2577
13698SOL     OW46413   2.538  11.535   7.496 -0.1895 -0.5100 -0.3187
13698SOL    HW146414   2.606  11.600   7.481  0.1327 -0.4539  1.2037
13698SOL    HW246415   2.505  11.555   7.584 -2.0759 -0.6340 -0.9381
13699SOL     OW46416   3.095   5.219   1.987 -0.2294  0.2812 -0.4086
13699SOL    HW146417   3.025   5.213   1.921  0.7931 -0.9778 -1.4408
13699SOL    HW246418   3.111   5.128   2.013 -0.4683  0.7371  1.4853
13700SOL     OW46419   8.483   7.354   8.735 -0.9159  0.1663  0.1497
13700SOL    HW146420   8.421   7.302   8.786 -1.4158 -0.2376 -0.8558
13700SOL    HW246421   8.465   7.444   8.761 -1.7036  0.0273  0.1149
13701SOL     OW46422   6.890   4.048   5.049 -0.1706  0.1920  0.0090
13701SOL    HW146423   6.923   3.963   5.079 -0.4035 -0.3486 -1.2079
13701SOL    HW246424   6.966   4.106   5.055  0.2096 -0.3033  0.1059
13702SOL     OW46425   8.647   3.242   0.328  0.0904 -0.3002  0.2314
13702SOL    HW146426   8.640   3.305   0.399 -3.8002 -0.0480 -0.1249
13702SOL    HW246427   8.635   3.157   0.370 -2.1285 -0.1564  0.0177
13703SOL     OW46428   7.177   6.452   7.308 -0.1207 -0.2191  0.5595
13703SOL    HW146429   7.127   6.494   7.378 -0.9420  0.4140 -0.3791
13703SOL    HW246430   7.111   6.414   7.251  0.3335  1.7107 -1.3890
13704SOL     OW46431   2.931   7.209   0.658 -0.0221 -1.0237 -0.0037
13704SOL    HW146432   2.905   7.128   0.614 -1.0981 -0.2030 -0.9717
13704SOL    HW246433   3.020   7.193   0.688 -0.3383 -2.6817  0.1577
13705SOL     OW46434   7.993   9.753  10.372  0.4713  0.4308 -0.0651
13705SOL    HW146435   7.932   9.790  10.437  0.0298 -2.6707  1.4755
13705SOL    HW246436   7.964   9.790  10.289 -0.5532  2.6108  1.1587
13706SOL     OW46437   9.325  10.857   6.685 -0.4386 -0.5328 -0.2173
13706SOL    HW146438   9.261  10.916   6.645 -1.1516 -1.0276  0.1516
13706SOL    HW246439   9.396  10.851   6.621 -0.3814  0.6629 -0.2803
13707SOL     OW46440   9.215   0.760   9.977  0.6814  0.0795  0.0705
13707SOL    HW146441   9.268   0.748   9.898  2.9041  1.2193  1.2951
13707SOL    HW246442   9.156   0.832   9.956  1.0289  0.1608 -0.6653
13708SOL     OW46443   5.537   2.719   7.076 -0.0673  0.4200 -0.1271
13708SOL    HW146444   5.527   2.778   7.151  0.8292 -0.6372  0.8469
13708SOL    HW246445   5.479   2.756   7.009 -0.0404  2.0195  0.6831
13709SOL     OW46446  10.280   7.130  10.124 -0.0482 -0.2130  0.2537
13709SOL    HW146447  10.306   7.221  10.116 -0.7473 -0.0302 -0.0517
13709SOL    HW246448  10.349   7.081  10.079  0.2178  0.1860  0.2261
13710SOL     OW46449   7.856   1.430   6.428 -0.2828 -0.7048 -0.6066
13710SOL    HW146450   7.935   1.483   6.417  1.3931 -2.8149  0.6952
13710SOL    HW246451   7.822   1.419   6.339 -0.1384  1.6167 -1.0195
13711SOL     OW46452   4.420   0.001  10.392  0.1491 -0.4952  0.8389
13711SOL    HW146453   4.340  -0.024  10.345 -0.1226 -1.1581  1.6327
13711SOL    HW246454   4.489  -0.053  10.354  0.3771  0.5839 -0.3400
13712SOL     OW46455   6.993   7.575   6.594  0.0928  0.4302  0.1300
13712SOL    HW146456   7.047   7.503   6.563  1.5961  0.7166  1.8571
13712SOL    HW246457   7.027   7.652   6.549  0.6616  0.4964  0.6514
13713SOL     OW46458   1.775   9.897   3.714  0.1831 -0.5724 -0.0206
13713SOL    HW146459   1.723   9.977   3.722 -0.5428 -1.0709  0.3500
13713SOL    HW246460   1.763   9.869   3.623  0.6639 -0.1160 -0.2288
13714SOL     OW46461   8.902   2.820   9.949  0.5033  0.0215  0.1324
13714SOL    HW146462   8.896   2.837  10.043  0.7218  0.8387  0.0040
13714SOL    HW246463   8.992   2.841   9.927  0.5847 -0.6218 -0.1822
13715SOL     OW46464   0.176   9.389   7.158  0.4113 -1.0723  0.1095
13715SOL    HW146465   0.250   9.332   7.177  0.1453 -0.1512  5.4973
13715SOL    HW246466   0.102   9.346   7.201 -0.4179  1.7315  1.7297
13716SOL     OW46467   6.343   4.893   1.196 -0.0202 -0.0764 -0.0591
13716SOL    HW146468   6.429   4.934   1.197 -0.4592  0.9953 -1.9440
13716SOL    HW246469   6.288   4.953   1.146 -1.3124 -1.7719 -0.7928
13717SOL     OW46470   9.690   3.011   8.819  0.4591  0.1238  0.0009
13717SOL    HW146471   9.704   3.035   8.910  0.0789  0.3622  0.0018
13717SOL    HW246472   9.696   2.915   8.818  1.8864  0.1949  0.0141
13718SOL     OW46473   4.370   7.356   0.894 -0.6400  0.1865  0.0696
13718SOL    HW146474   4.439   7.408   0.853 -0.7626  0.8677  0.6828
13718SOL    HW246475   4.409   7.325   0.975 -1.2403  1.1482  0.7560
13719SOL     OW46476   3.613   9.332   8.110 -0.4295  0.1073  0.1961
13719SOL    HW146477   3.677   9.381   8.162 -1.4505  0.5893  1.0328
13719SOL    HW246478   3.645   9.340   8.020  0.1838  1.1281  0.4788
13720SOL     OW46479   1.857   6.348   5.864  0.0327 -0.0957 -0.0546
13720SOL    HW146480   1.894   6.415   5.806 -0.2272 -0.3613 -0.5300
13720SOL    HW246481   1.932   6.318   5.916  0.2078  0.3616 -0.0407
13721SOL     OW46482   0.624   4.952  11.331  0.2221  0.2194  0.0476
13721SOL    HW146483   0.696   4.934  11.271 -0.2109  1.9594 -1.0852
13721SOL    HW246484   0.576   5.024  11.289 -2.5763 -1.2736  0.4062
13722SOL     OW46485   2.505   2.100   9.711  0.1824 -0.4085 -0.0121
13722SOL    HW146486   2.578   2.078   9.653 -0.5820  0.6271 -1.4167
13722SOL    HW246487   2.545   2.151   9.781  0.8010  0.2949 -0.8565
13723SOL     OW46488   5.940  11.556   5.116  0.5796 -0.4493  0.0599
13723SOL    HW146489   5.989  11.537   5.196  0.2285  0.9524  0.6418
13723SOL    HW246490   5.868  11.612   5.145  1.2902  1.3373 -1.4141
13724SOL     OW46491  10.367   6.441   5.426  0.0417 -0.1814 -0.5002
13724SOL    HW146492  10.277   6.410   5.414  0.3790 -1.8335  0.7948
13724SOL    HW246493  10.361   6.536   5.419 -1.5944 -0.3394 -1.6378
13725SOL     OW46494   7.080   7.774  11.317  0.0081  0.5561  0.3014
13725SOL    HW146495   7.019   7.741  11.382  0.3635  0.7059  0.7202
13725SOL    HW246496   7.128   7.844  11.362  2.2721 -1.2210  0.8314
13726SOL     OW46497   6.630   5.856   0.147  0.1402 -0.4530 -0.3036
13726SOL    HW146498   6.636   5.773   0.100 -0.4731 -0.6935  0.0383
13726SOL    HW246499   6.718   5.870   0.182  0.3921 -0.6739 -0.8369
13727SOL     OW46500   6.933   1.632   4.037 -0.6643 -0.3080 -0.1040
13727SOL    HW146501   6.913   1.553   4.087 -1.9513  0.2667  0.3217
13727SOL    HW246502   6.868   1.633   3.967 -1.0912  0.7256  0.2998
13728SOL     OW46503   3.414   0.166   0.894 -0.4683  0.4957 -0.3430
13728SOL    HW146504   3.503   0.147   0.865 -0.6777 -0.3465 -0.4740
13728SOL    HW246505   3.401   0.258   0.873  0.8370  1.0072  0.9041
13729SOL     OW46506   6.331   6.812   5.374 -0.0198 -0.0087  0.2390
13729SOL    HW146507   6.334   6.796   5.469 -1.9715 -0.8866  0.2089
13729SOL    HW246508   6.264   6.880   5.364 -0.2914 -0.3856 -0.5526
13730SOL     OW46509   9.763   3.066  11.385  0.2270  0.3072  0.3226
13730SOL    HW146510   9.840   3.010  11.386 -0.2508 -0.4188 -0.8946
13730SOL    HW246511   9.764   3.107  11.298 -0.3482  0.8721  0.5734
13731SOL     OW46512   6.849   2.803   7.587 -0.1724 -1.0112  0.2293
13731SOL    HW146513   6.869   2.896   7.591  0.0266 -1.0798  1.2399
13731SOL    HW246514   6.929   2.762   7.555  0.1128 -0.9316  0.8255
13732SOL     OW46515   1.014   8.282   3.670  0.2833  0.0709 -0.0688
13732SOL    HW146516   1.049   8.251   3.753  0.5835  2.0918  0.6175
13732SOL    HW246517   1.073   8.353   3.644 -2.2058  2.4458  0.2770
13733SOL     OW46518   2.191   3.582  11.628  0.4797  1.3057  0.5935
13733SOL    HW146519   2.184   3.565  11.535  0.6379  0.6633  0.6931
13733SOL    HW246520   2.119   3.533  11.668  1.3102  0.3366  0.9440
13734SOL     OW46521   0.177   4.728  10.604 -0.0175 -0.2326  0.0065
13734SOL    HW146522   0.133   4.813  10.604 -0.8008 -0.6202 -0.7635
13734SOL    HW246523   0.124   4.674  10.664 -0.2789 -0.5394 -0.4949
13735SOL     OW46524  10.295   6.133   2.883 -0.1895  0.2185 -0.0937
13735SOL    HW146525  10.347   6.213   2.876 -1.7647  1.3153  0.3040
13735SOL    HW246526  10.309   6.103   2.973 -0.4126  0.6339  0.0810
13736SOL     OW46527   7.963   8.169   7.394 -0.5711 -0.3471 -0.4921
13736SOL    HW146528   8.000   8.081   7.398 -0.6448 -0.3511  0.3198
13736SOL    HW246529   7.882   8.164   7.445 -0.0453  0.4294  0.4509
13737SOL     OW46530  10.976   8.490   8.063 -0.5340  0.2571  0.2992
13737SOL    HW146531  10.892   8.471   8.104  0.3945 -0.0717  2.1598
13737SOL    HW246532  10.964   8.465   7.971 -2.0890 -0.9289  0.7730
13738SOL     OW46533   3.131   1.500   2.987 -0.7268 -0.0516 -0.8988
13738SOL    HW146534   3.136   1.591   3.015 -0.3814 -0.0723 -0.8857
13738SOL    HW246535   3.111   1.504   2.893 -0.9391  0.0322 -0.8504
13739SOL     OW46536   0.293   1.919   0.983  0.1090 -0.1734 -0.1428
13739SOL    HW146537   0.379   1.946   0.951  0.1488 -0.0312  0.0831
13739SOL    HW246538   0.243   2.000   0.988 -0.3068 -0.3647 -1.0819
13740SOL     OW46539   2.884   6.882   9.168  1.1019  0.7441  0.0044
13740SOL    HW146540   2.940   6.818   9.212  0.7900  0.3829 -0.1210
13740SOL    HW246541   2.894   6.962   9.219 -0.5336 -0.0805  1.7569
13741SOL     OW46542   9.831  10.428   0.451 -0.1895 -0.8078  0.4524
13741SOL    HW146543   9.875  10.352   0.412 -0.4923 -0.3222 -0.9045
13741SOL    HW246544   9.739  10.416   0.428 -0.2190  0.0251  0.1161
13742SOL     OW46545   8.942   2.882   3.413 -0.0845 -0.3707 -0.4174
13742SOL    HW146546   8.897   2.945   3.468  1.2289 -0.5421  0.9072
13742SOL    HW246547   8.887   2.804   3.416 -0.0268 -0.3880  0.7055
13743SOL     OW46548   4.650   5.919   0.848  0.6294 -0.3402 -0.1008
13743SOL    HW146549   4.626   5.981   0.916  1.6652 -1.6265  1.5283
13743SOL    HW246550   4.746   5.919   0.848  0.6493 -1.4147 -0.5320
13744SOL     OW46551  11.193  10.656   9.960  0.2525  0.5344  0.4388
13744SOL    HW146552  11.276  10.704   9.953 -0.0437  1.1285  0.9702
13744SOL    HW246553  11.207  10.578   9.907  1.2592  0.4867  0.7457
13745SOL     OW46554   8.900   1.388   4.363 -0.4214  0.0784  0.2943
13745SOL    HW146555   8.849   1.414   4.287  2.2711 -0.3225 -1.7840
13745SOL    HW246556   8.872   1.298   4.381  0.0578 -0.4421 -1.3541
13746SOL     OW46557   7.757   7.873   0.518  0.7912  0.3282 -0.1952
13746SOL    HW146558   7.679   7.818   0.513 -0.1811  1.4062  1.8011
13746SOL    HW246559   7.822   7.819   0.564 -0.5984  1.1338  3.0196
13747SOL     OW46560   8.563  10.871   3.521 -0.2576  0.4332 -0.5340
13747SOL    HW146561   8.554  10.781   3.489 -0.1325  0.3428 -0.3175
13747SOL    HW246562   8.611  10.917   3.452 -0.5391  0.3939 -0.7542
13748SOL     OW46563   9.953   8.227   2.089  0.3031 -0.8805  0.2979
13748SOL    HW146564   9.878   8.208   2.033 -0.2571  1.9415 -0.0422
13748SOL    HW246565   9.916   8.245   2.175  0.5921  0.0195  0.2504
13749SOL     OW46566   4.098   2.386   2.467  0.3119  0.2878 -0.2881
13749SOL    HW146567   4.155   2.310   2.460  0.5327  0.4543 -0.3335
13749SOL    HW246568   4.158   2.461   2.464  0.0524  0.4812 -0.9065
13750SOL     OW46569   0.144   8.922  10.758 -0.0237  0.0786 -0.2216
13750SOL    HW146570   0.155   8.871  10.677  2.6506  0.5649 -0.2513
13750SOL    HW246571   0.061   8.891  10.794  0.5826 -3.0081 -1.1523
13751SOL     OW46572   9.355   3.270   9.595  0.1527 -0.0341 -0.8681
13751SOL    HW146573   9.388   3.331   9.529 -0.1285  0.3215 -0.6858
13751SOL    HW246574   9.403   3.189   9.579 -0.1985 -0.0759 -1.7599
13752SOL     OW46575   8.061   4.802   5.714  0.1313  1.3787 -0.2020
13752SOL    HW146576   8.156   4.799   5.711  0.1350 -0.6714  0.5249
13752SOL    HW246577   8.034   4.711   5.728 -1.9181  1.9732  0.1131
13753SOL     OW46578  11.281   9.503   0.120  0.2847  0.4690  0.1802
13753SOL    HW146579  11.192   9.519   0.153  1.0281  1.7783  1.6439
13753SOL    HW246580  11.287   9.407   0.114 -0.1409  0.1240  3.3292
13754SOL     OW46581   4.200   2.056   7.541  0.0380  0.4902  0.1934
13754SOL    HW146582   4.107   2.064   7.520  0.2262  1.2970 -0.3674
13754SOL    HW246583   4.219   1.962   7.531 -0.7665  0.2760  0.5766
13755SOL     OW46584   1.545   1.186   6.850  0.1206 -0.3544  0.0293
13755SOL    HW146585   1.599   1.265   6.860 -0.6285  0.0388  1.0810
13755SOL    HW246586   1.484   1.208   6.779 -0.8557  0.4786  1.0931
13756SOL     OW46587   9.967   6.798  10.297  0.7158  0.1816  0.0780
13756SOL    HW146588  10.014   6.760  10.222  1.6882 -0.0247  0.7825
13756SOL    HW246589  10.028   6.862  10.334  0.4926 -0.1625  1.0665
13757SOL     OW46590   4.379   1.273   1.274 -0.7744 -0.0416  0.2727
13757SOL    HW146591   4.452   1.223   1.237 -0.7169 -0.6152  1.1546
13757SOL    HW246592   4.307   1.210   1.282 -0.8907  0.1544  0.8368
13758SOL     OW46593   7.858   7.323   9.952 -0.4791  0.4151  0.3245
13758SOL    HW146594   7.844   7.230   9.935  0.5392  0.2565  0.3006
13758SOL    HW246595   7.942   7.343   9.910 -2.0911  2.0901 -2.3512
13759SOL     OW46596   5.537   6.760   1.103 -0.4321  0.2819  0.6393
13759SOL    HW146597   5.630   6.765   1.085 -0.8895  1.0845 -1.9206
13759SOL    HW246598   5.500   6.837   1.060 -2.3944 -0.5193  0.7697
13760SOL     OW46599   3.298   9.017   5.379  0.9957 -0.0214  0.0602
13760SOL    HW146600   3.346   8.995   5.300 -1.0124  0.2310 -1.3198
13760SOL    HW246601   3.332   9.102   5.405  1.7358 -0.1408 -0.5020
13761SOL     OW46602   9.277   3.062   8.551 -0.2110 -0.3977 -0.2549
13761SOL    HW146603   9.356   3.097   8.593 -0.1296  0.5960 -1.1716
13761SOL    HW246604   9.304   2.977   8.516  0.1397 -0.5563  0.3851
13762SOL     OW46605   2.110   5.589   5.689 -0.3453  0.0790 -0.8961
13762SOL    HW146606   2.190   5.546   5.720 -0.6775  0.1036  0.0165
13762SOL    HW246607   2.076   5.635   5.765 -1.2433  0.0546 -1.2686
13763SOL     OW46608   0.758   5.224   1.887 -0.3954  0.6472 -0.3172
13763SOL    HW146609   0.759   5.307   1.934 -0.8514  1.0623 -1.0346
13763SOL    HW246610   0.666   5.203   1.877 -0.3087 -0.9262  1.5253
13764SOL     OW46611   6.720   6.561   0.884  0.1466  0.1756 -0.3388
13764SOL    HW146612   6.679   6.622   0.822 -2.6341 -2.0989 -0.9857
13764SOL    HW246613   6.678   6.580   0.968  0.5088  0.2802 -0.1843
13765SOL     OW46614   1.236  10.468   8.615 -0.5483 -0.5557 -0.8679
13765SOL    HW146615   1.328  10.479   8.638 -1.3519  1.5582  1.8131
13765SOL    HW246616   1.232  10.382   8.575  2.5932 -0.6621 -1.2319
13766SOL     OW46617   0.585   9.964   7.122  0.0147 -0.0804  0.2432
13766SOL    HW146618   0.655   9.900   7.139  1.3783  1.0782 -0.7739
13766SOL    HW246619   0.552   9.987   7.209  0.2015 -1.3942  0.6830
13767SOL     OW46620   7.194   4.272  11.478 -0.1509  0.0811 -0.1945
13767SOL    HW146621   7.159   4.312  11.558  0.6659 -0.4418  0.4377
13767SOL    HW246622   7.138   4.306  11.408 -1.5470 -0.2896  0.7136
13768SOL     OW46623   3.493   0.848   6.716 -0.0869 -0.2644 -0.0407
13768SOL    HW146624   3.502   0.753   6.719  1.0164 -0.2982 -2.3577
13768SOL    HW246625   3.572   0.881   6.757  1.3192 -0.4469 -2.4162
13769SOL     OW46626   7.258   7.503   0.958 -0.5230 -0.4468  0.0975
13769SOL    HW146627   7.310   7.434   0.916 -2.4022 -1.6444 -0.3978
13769SOL    HW246628   7.173   7.462   0.975 -1.3412  1.4330  0.8455
13770SOL     OW46629   1.698   3.511  10.699 -0.2227 -0.5384 -0.2506
13770SOL    HW146630   1.618   3.470  10.732 -0.2554 -0.5325 -0.3229
13770SOL    HW246631   1.672   3.600  10.677 -0.0412 -0.3276  0.3581
13771SOL     OW46632   7.002   8.869  10.388 -0.3399 -0.2253 -0.0157
13771SOL    HW146633   6.954   8.861  10.306  0.6659  2.5087 -1.0130
13771SOL    HW246634   6.943   8.918  10.445 -0.3036 -0.4337  0.1993
13772SOL     OW46635   2.099   0.765   6.282  0.6174  0.5148  0.2391
13772SOL    HW146636   2.012   0.743   6.317  0.4489  1.5782  0.5078
13772SOL    HW246637   2.152   0.686   6.299 -0.6812 -0.7818 -1.3662
13773SOL     OW46638   6.425   0.559   9.130 -0.8591 -0.5190 -0.3378
13773SOL    HW146639   6.330   0.566   9.115 -0.9305  3.4465  0.9472
13773SOL    HW246640   6.433   0.527   9.219 -1.0488  0.3274 -0.0095
13774SOL     OW46641   5.311   8.148   5.451  0.0933 -0.3182 -0.2029
13774SOL    HW146642   5.240   8.101   5.495 -0.6290  1.1792  0.2905
13774SOL    HW246643   5.268   8.220   5.407  1.1854 -0.0782 -0.9203
13775SOL     OW46644   0.596  11.379   8.762  0.4795 -0.8840  0.1561
13775SOL    HW146645   0.668  11.330   8.801  0.1608 -2.0552 -0.7049
13775SOL    HW246646   0.552  11.317   8.705 -1.4037 -0.2743  0.8676
13776SOL     OW46647   1.949   0.247   2.144  0.3718  0.2564  0.4011
13776SOL    HW146648   2.029   0.261   2.194  2.2555  1.0043 -2.5894
13776SOL    HW246649   1.912   0.335   2.132  1.6690  0.5744 -1.9988
13777SOL     OW46650   9.696   5.142   6.173 -0.8206  0.5550  0.4925
13777SOL    HW146651   9.605   5.147   6.146 -0.8775  0.2092  0.6122
13777SOL    HW246652   9.742   5.107   6.097 -0.6368  1.5871  0.1126
13778SOL     OW46653   9.449   8.130   7.922 -0.6083 -0.3821  0.5053
13778SOL    HW146654   9.535   8.107   7.958 -1.5695 -2.2068  1.7941
13778SOL    HW246655   9.419   8.202   7.977 -0.2892 -0.3755  0.6755
13779SOL     OW46656   9.568   4.845   0.448 -0.0821 -0.0532 -0.6644
13779SOL    HW146657   9.505   4.898   0.398  0.1072  0.8362  0.0112
13779SOL    HW246658   9.627   4.809   0.381 -1.2161 -0.7960 -1.2914
13780SOL     OW46659  10.516   5.960   6.755 -0.3164  0.2706  0.1186
13780SOL    HW146660  10.509   6.023   6.826 -1.9744  1.3107 -0.9068
13780SOL    HW246661  10.579   5.998   6.694  0.5625 -0.2822  0.6591
13781SOL     OW46662   5.189   5.585   1.685 -0.7978  0.0217 -0.4884
13781SOL    HW146663   5.120   5.571   1.751  0.0219  0.7053  0.5507
13781SOL    HW246664   5.158   5.660   1.634 -0.9209  0.2226 -0.1296
13782SOL     OW46665   6.327   5.840   0.701 -0.4882  0.3173  0.3306
13782SOL    HW146666   6.373   5.859   0.783 -1.4686  0.7516  0.7961
13782SOL    HW246667   6.397   5.825   0.638  0.2940  0.8215  1.0499
13783SOL     OW46668   9.769   3.705   4.069 -0.2014  0.6492  0.0327
13783SOL    HW146669   9.764   3.673   4.159  0.7398  2.4603  0.7930
13783SOL    HW246670   9.689   3.673   4.027 -0.7481 -0.0777  1.5553
13784SOL     OW46671   8.564   2.743   0.009  0.0441  0.6562 -0.1873
13784SOL    HW146672   8.546   2.796  -0.069 -2.1412  0.3976  0.0781
13784SOL    HW246673   8.484   2.749   0.061  1.2595  0.4198  1.8361
13785SOL     OW46674  10.726  11.236   4.778  0.4822  0.7304  0.2358
13785SOL    HW146675  10.675  11.317   4.771  2.0776  1.7940  0.4730
13785SOL    HW246676  10.814  11.260   4.749  0.8625 -1.0624 -0.2028
13786SOL     OW46677   8.629   7.274   3.197  0.3433  0.5003  0.4098
13786SOL    HW146678   8.695   7.342   3.207  0.6517  0.2777 -0.0907
13786SOL    HW246679   8.679   7.193   3.189  0.0117  0.3461 -0.1111
13787SOL     OW46680   2.201   4.636   9.961 -0.3182  0.0221  0.5151
13787SOL    HW146681   2.213   4.711   9.903 -0.7464 -0.5795 -0.3684
13787SOL    HW246682   2.265   4.650  10.031 -0.0652  0.9622  0.1139
13788SOL     OW46683   2.208   3.363   3.238  0.3732 -0.4294  0.1776
13788SOL    HW146684   2.219   3.298   3.308  1.1925 -1.7220 -1.0934
13788SOL    HW246685   2.295   3.369   3.197  0.2008  1.1767 -0.0078
13789SOL     OW46686  11.082   6.496   1.133  0.4607  0.6542  0.0983
13789SOL    HW146687  11.124   6.471   1.051  0.2159  0.5372  0.0055
13789SOL    HW246688  11.022   6.567   1.109  0.9649  1.1539  0.3172
13790SOL     OW46689   9.575   4.001   6.730 -0.1468 -0.0965  0.1766
13790SOL    HW146690   9.618   4.046   6.803 -0.3632 -1.9325  1.4957
13790SOL    HW246691   9.484   4.030   6.734 -0.5382 -1.3916  1.7075
13791SOL     OW46692   7.118   0.192   9.314  0.2570 -0.0366  0.0069
13791SOL    HW146693   7.060   0.197   9.390  2.3688  1.2052  1.6561
13791SOL    HW246694   7.180   0.123   9.335  1.1504  0.6335 -0.3600
13792SOL     OW46695   7.936   2.805   2.846  0.3278 -0.3466 -0.3577
13792SOL    HW146696   7.959   2.827   2.937 -0.1680  0.9134 -0.5199
13792SOL    HW246697   7.856   2.753   2.854 -0.7890  1.3366 -0.1359
13793SOL     OW46698   4.942  11.206   9.267  0.1832  0.0553  0.0910
13793SOL    HW146699   4.996  11.230   9.192 -0.5879  0.1898 -0.4301
13793SOL    HW246700   4.862  11.168   9.229  0.0837 -0.5323  0.8511
13794SOL     OW46701   3.216   3.187   8.318 -0.1800 -0.6800  0.3140
13794SOL    HW146702   3.182   3.100   8.296  0.3950 -1.0449  0.8487
13794SOL    HW246703   3.256   3.218   8.237  0.1040 -1.1506  0.2693
13795SOL     OW46704   0.142   8.610   5.677 -0.7451  0.2334 -0.0868
13795SOL    HW146705   0.238   8.617   5.681 -0.6857  0.0681 -0.8807
13795SOL    HW246706   0.116   8.582   5.764 -0.1211  0.8497  0.3114
13796SOL     OW46707  11.697   6.237   3.520 -0.3896  0.0689 -0.1782
13796SOL    HW146708  11.602   6.242   3.524 -0.4908 -1.4450 -0.0515
13796SOL    HW246709  11.726   6.257   3.609 -0.6140  0.1052 -0.1117
13797SOL     OW46710   5.624  10.161   4.314 -0.3722 -0.6780  0.5988
13797SOL    HW146711   5.628  10.256   4.304 -1.9432 -0.7602 -1.3999
13797SOL    HW246712   5.694  10.140   4.376  0.4862  1.6863  0.5103
13798SOL     OW46713  10.955   7.241   1.266  0.2981  0.5007 -0.0346
13798SOL    HW146714  10.974   7.208   1.354 -1.3217 -0.2766  0.0534
13798SOL    HW246715  10.997   7.178   1.207  1.3565  1.0030  0.1516
13799SOL     OW46716   4.670  10.269   6.435  0.2160  0.1206 -0.2972
13799SOL    HW146717   4.628  10.299   6.354 -1.8328 -1.6385  0.0294
13799SOL    HW246718   4.644  10.333   6.501  0.2003  0.4385 -0.6049
13800SOL     OW46719   7.393   0.754  11.730 -0.4753  0.2928  0.0641
13800SOL    HW146720   7.427   0.837  11.764 -0.9073  0.2906  0.5216
13800SOL    HW246721   7.301   0.752  11.758 -0.4400 -0.3945  0.1617
13801SOL     OW46722   7.446  10.489   5.776  0.1314 -0.1692  0.1862
13801SOL    HW146723   7.374  10.430   5.754  1.4124 -1.2752 -1.2697
13801SOL    HW246724   7.521  10.430   5.788  0.9150  0.9901  1.1537
13802SOL     OW46725   8.161  11.628   2.031  0.2219 -0.0926  0.1373
13802SOL    HW146726   8.217  11.573   2.087 -1.3228 -0.3963  1.4678
13802SOL    HW246727   8.217  11.651   1.957  1.7019 -1.4214  0.7677
13803SOL     OW46728   3.932   7.605   8.046 -0.6441 -0.2546 -0.5574
13803SOL    HW146729   3.913   7.694   8.018 -1.3242 -0.7154 -1.6532
13803SOL    HW246730   3.992   7.615   8.119 -1.6159  1.1298  0.0984
13804SOL     OW46731   1.332   0.382   8.363  0.3880  0.0767  0.5252
13804SOL    HW146732   1.294   0.469   8.357  0.5749  0.0468 -3.1961
13804SOL    HW246733   1.260   0.322   8.342  0.5278 -0.6189  1.9200
13805SOL     OW46734  10.021   3.588  10.831 -0.1263  0.4721 -0.3369
13805SOL    HW146735   9.982   3.518  10.779 -0.9475  0.6160  0.0650
13805SOL    HW246736   9.994   3.668  10.787  0.8651  0.5573 -0.8340
13806SOL     OW46737   4.220   5.831   2.989 -0.9483  0.1660 -0.7102
13806SOL    HW146738   4.221   5.891   3.064 -2.4077  1.8025 -1.8906
13806SOL    HW246739   4.127   5.821   2.967 -0.6317 -1.2613 -1.5526
13807SOL     OW46740  10.095   5.668   2.025  0.2653  0.5126  0.0611
13807SOL    HW146741  10.151   5.594   2.049 -0.1753  0.0361 -0.3545
13807SOL    HW246742  10.156   5.741   2.012  0.5750  0.7159  2.2133
13808SOL     OW46743   7.292   9.419   1.326 -0.6453 -0.8076 -0.7105
13808SOL    HW146744   7.336   9.375   1.253 -0.2277  0.4291 -1.2318
13808SOL    HW246745   7.328   9.377   1.404  1.5510  0.1725 -1.1189
13809SOL     OW46746   5.617   3.174  10.146 -0.4674  0.0628  0.1653
13809SOL    HW146747   5.544   3.234  10.164 -0.5997 -0.3418  1.0381
13809SOL    HW246748   5.575   3.092  10.121 -0.2850  0.5746 -2.0074
13810SOL     OW46749   6.609   7.155   8.383 -0.1449 -0.0026  0.3580
13810SOL    HW146750   6.544   7.086   8.377  0.8263 -0.8685 -0.5831
13810SOL    HW246751   6.620   7.186   8.293 -0.5524  1.3853  0.7580
13811SOL     OW46752   1.281   6.625   1.122  0.3644 -0.2849  0.0917
13811SOL    HW146753   1.336   6.624   1.201  0.4723 -3.3710  0.1081
13811SOL    HW246754   1.193   6.646   1.154  0.5859 -0.5040  0.8748
13812SOL     OW46755  10.229  10.216   4.696  0.8910 -0.2470 -0.1956
13812SOL    HW146756  10.249  10.149   4.761 -0.6070  0.7622  1.3788
13812SOL    HW246757  10.136  10.234   4.708  1.0503  1.4739 -1.2071
13813SOL     OW46758   5.252   8.368   7.075  0.5031 -0.2394 -0.2467
13813SOL    HW146759   5.202   8.445   7.047 -0.4498 -0.4048  0.9391
13813SOL    HW246760   5.268   8.319   6.994 -1.1717 -0.1273 -0.6720
13814SOL     OW46761   7.990   9.176   1.411  0.2395 -0.3588  0.0853
13814SOL    HW146762   7.959   9.170   1.501  0.6040  0.1996  0.2575
13814SOL    HW246763   7.910   9.185   1.359  0.0657  0.3830  0.4576
13815SOL     OW46764   7.148   6.927   4.158  0.2796  0.3797  0.0495
13815SOL    HW146765   7.131   6.834   4.174  1.6727  0.4830  2.5489
13815SOL    HW246766   7.227   6.946   4.207  1.7207  2.2778 -2.7226
13816SOL     OW46767   4.959  10.543  10.119 -0.2369 -0.1969 -0.3544
13816SOL    HW146768   5.041  10.589  10.139 -0.0652 -0.7632  0.2759
13816SOL    HW246769   4.978  10.496  10.037  0.1210 -0.4449 -0.1326
13817SOL     OW46770  10.860   8.723  10.416 -0.2438 -0.5832 -0.3320
13817SOL    HW146771  10.952   8.698  10.416 -0.5016 -1.5694 -1.1347
13817SOL    HW246772  10.814   8.648  10.454 -0.6274  0.3584  1.1865
13818SOL     OW46773   1.584   8.130   3.285 -0.4646  0.5350 -0.0697
13818SOL    HW146774   1.611   8.184   3.359 -0.2244  1.8136 -1.0380
13818SOL    HW246775   1.566   8.193   3.215  0.1990 -0.6580 -1.3732
13819SOL     OW46776  11.626   4.216   7.242 -0.2024  0.0206 -0.4862
13819SOL    HW146777  11.533   4.215   7.265 -0.1843  0.3877 -0.4038
13819SOL    HW246778  11.670   4.181   7.320 -0.2754 -0.2485 -0.5613
13820SOL     OW46779   1.718   5.942  10.689 -0.2272 -0.0258  0.2022
13820SOL    HW146780   1.765   6.017  10.650 -1.8419  1.1535  0.4339
13820SOL    HW246781   1.628   5.972  10.698 -1.0923 -2.2692 -0.3251
13821SOL     OW46782  11.239  11.572   5.561 -0.2999  0.6691 -0.2098
13821SOL    HW146783  11.224  11.483   5.529 -0.5349  0.6633 -0.0846
13821SOL    HW246784  11.326  11.595   5.529  1.5639 -1.0998  3.0644
13822SOL     OW46785   2.021   0.678   9.287 -0.2987  0.1251  0.1313
13822SOL    HW146786   2.000   0.623   9.362  0.1793  0.1744  0.3038
13822SOL    HW246787   1.967   0.756   9.298 -1.4196 -0.5514 -0.4222
13823SOL     OW46788   1.848   6.853   5.607  0.5097  0.0078 -0.4333
13823SOL    HW146789   1.847   6.932   5.662  0.0562  1.4236 -2.3392
13823SOL    HW246790   1.940   6.829   5.602  0.5154 -0.4609  1.2923
13824SOL     OW46791   3.471   1.843  10.144 -0.5247  0.6638 -0.8077
13824SOL    HW146792   3.399   1.789  10.114 -1.5565  2.6424 -2.0670
13824SOL    HW246793   3.549   1.806  10.102 -0.9242 -0.7823 -0.3366
13825SOL     OW46794   7.980   8.669   1.905 -0.4588  0.4328 -0.0429
13825SOL    HW146795   7.893   8.629   1.911  0.4651 -1.9912 -1.2903
13825SOL    HW246796   7.977   8.720   1.824 -0.5300 -0.2528 -0.4841
13826SOL     OW46797   7.859   1.918  10.897 -0.7008  0.2800  0.0821
13826SOL    HW146798   7.765   1.938  10.888 -0.8070  0.3668  1.2186
13826SOL    HW246799   7.896   1.998  10.934 -0.6300 -0.6183  2.0252
13827SOL     OW46800   7.530   1.492  10.530  0.9543 -0.5336  0.0119
13827SOL    HW146801   7.572   1.513  10.446  0.0966  0.1274 -0.2629
13827SOL    HW246802   7.583   1.421  10.566  5.3583  3.2436  1.9790
13828SOL     OW46803   1.576   9.347   9.348 -0.0260  0.0676  0.4849
13828SOL    HW146804   1.523   9.410   9.299  0.5618 -0.3143 -0.6896
13828SOL    HW246805   1.517   9.274   9.365 -0.5478  0.6745  1.3410
13829SOL     OW46806  10.160  10.530   3.850  0.0813 -0.0495  0.5534
13829SOL    HW146807  10.107  10.452   3.833  0.3603 -0.6703  2.3103
13829SOL    HW246808  10.248  10.506   3.822 -0.1620  0.2492 -0.4759
13830SOL     OW46809   7.055   6.503   4.285  0.6200 -0.2263 -0.1947
13830SOL    HW146810   6.974   6.543   4.254 -1.2845 -2.5300  1.4654
13830SOL    HW246811   7.067   6.538   4.374 -0.8912 -2.7951  1.1529
13831SOL     OW46812  10.880   2.074  11.587 -0.7688 -0.1563  0.1899
13831SOL    HW146813  10.886   1.985  11.552  0.1460 -0.0645  0.0666
13831SOL    HW246814  10.787   2.093  11.590 -0.9377 -0.7781 -0.6671
13832SOL     OW46815   3.812   3.851   0.288  0.6447  0.2167  0.4459
13832SOL    HW146816   3.719   3.830   0.281  0.3621  1.4582  0.2852
13832SOL    HW246817   3.850   3.825   0.204  0.8687 -2.1508  1.1980
13833SOL     OW46818  11.575   3.890   2.733 -0.3623 -0.3072 -0.4324
13833SOL    HW146819  11.503   3.876   2.794 -1.1691  1.2594 -0.9542
13833SOL    HW246820  11.649   3.843   2.771 -1.4844 -1.4414  0.4392
13834SOL     OW46821   2.417   6.279   2.572 -0.5254 -0.3886  0.3646
13834SOL    HW146822   2.363   6.201   2.576  0.4073 -1.0065  1.9106
13834SOL    HW246823   2.506   6.247   2.558 -0.0106  0.2903  1.8010
13835SOL     OW46824   7.401  10.374   4.688 -0.0241  0.4831 -0.4577
13835SOL    HW146825   7.379  10.296   4.637  0.5942 -1.5936  2.2402
13835SOL    HW246826   7.496  10.376   4.689 -0.0168  0.3340  0.7479
13836SOL     OW46827   4.617   4.253   1.792  0.0371  0.4390 -0.1925
13836SOL    HW146828   4.587   4.279   1.879 -0.1263  0.2678 -0.1973
13836SOL    HW246829   4.636   4.159   1.800  2.2389  0.8851  0.2783
13837SOL     OW46830   7.073   4.262   2.455  0.2096  0.5767  0.0914
13837SOL    HW146831   7.026   4.341   2.428  1.9791  1.5066 -0.4582
13837SOL    HW246832   7.144   4.295   2.510 -0.6113 -0.9043  2.1517
13838SOL     OW46833   5.025   5.735  11.026 -0.4874  0.1639 -0.1595
13838SOL    HW146834   5.104   5.751  11.077  1.4839 -1.0162 -2.5835
13838SOL    HW246835   5.021   5.807  10.964 -1.1561  0.0672 -0.2364
13839SOL     OW46836   6.302   0.201   2.173 -0.2611 -0.3607  0.0436
13839SOL    HW146837   6.260   0.116   2.182 -0.1647 -0.4919 -0.6593
13839SOL    HW246838   6.383   0.193   2.224 -0.3080 -0.6524  0.0767
13840SOL     OW46839   8.820   3.120   2.094  0.1500 -0.6132 -0.4019
13840SOL    HW146840   8.892   3.163   2.140  0.3387 -2.0992  0.7510
13840SOL    HW246841   8.746   3.127   2.154 -0.3089 -0.3278 -0.9836
13841SOL     OW46842   8.862   7.783   7.644  0.0880  0.0182 -0.0756
13841SOL    HW146843   8.928   7.813   7.707 -0.7692 -1.4814  1.6005
13841SOL    HW246844   8.778   7.805   7.684 -0.4798  0.0273 -1.2249
13842SOL     OW46845   5.482   2.630   6.473  0.0994 -0.1676 -0.3257
13842SOL    HW146846   5.392   2.651   6.499  0.5699  0.6593  0.6767
13842SOL    HW246847   5.537   2.677   6.536  1.2269 -1.7745 -0.0648
13843SOL     OW46848   9.799  11.160   5.893 -0.5391 -0.7764  0.1052
13843SOL    HW146849   9.858  11.150   5.968 -0.4487 -1.1517 -0.0126
13843SOL    HW246850   9.837  11.104   5.825 -0.5804 -0.3842 -0.2466
13844SOL     OW46851   8.214   7.233   8.746 -0.2611  0.0854 -0.4488
13844SOL    HW146852   8.146   7.269   8.803 -0.2421  2.3318 -1.7344
13844SOL    HW246853   8.181   7.146   8.722  0.0086 -1.2410  3.3237
13845SOL     OW46854   0.321   3.061  11.740 -0.1270  0.1979 -0.4881
13845SOL    HW146855   0.263   2.987  11.721  0.8409 -0.1273 -2.3644
13845SOL    HW246856   0.327   3.062  11.836 -2.4706 -0.3145 -0.2753
13846SOL     OW46857  10.237   4.310   0.168  0.1568  0.0942  0.0753
13846SOL    HW146858  10.178   4.348   0.102  1.9088  1.1760 -0.9460
13846SOL    HW246859  10.220   4.216   0.163 -0.6423  0.2708 -1.0316
13847SOL     OW46860   0.078   1.214   0.294  0.6223  0.0383 -0.2098
13847SOL    HW146861   0.148   1.271   0.328  0.1820 -0.3074  1.3643
13847SOL    HW246862   0.123   1.153   0.236  1.3940  0.7752 -0.4064
13848SOL     OW46863   9.537   4.738  11.282  0.1299  0.2632  0.0416
13848SOL    HW146864   9.556   4.822  11.242  0.2102  0.5960  0.7629
13848SOL    HW246865   9.499   4.686  11.211  1.5280  0.3586 -0.8297
13849SOL     OW46866   2.049   2.046  11.014  0.0797  0.5041  0.2478
13849SOL    HW146867   2.008   1.962  10.998 -1.3740  1.6805 -3.0370
13849SOL    HW246868   2.004   2.080  11.092  0.5866 -1.6016  1.5264
13850SOL     OW46869   2.480   7.269   4.199  0.2117  0.1970  0.2870
13850SOL    HW146870   2.411   7.327   4.168  0.6304  1.2852  1.3484
13850SOL    HW246871   2.553   7.284   4.139  0.5064  1.1920  0.8811
13851SOL     OW46872   6.602  10.512  10.926 -0.3952  0.3693  0.3944
13851SOL    HW146873   6.581  10.555  11.009  1.6378 -0.0222  1.1787
13851SOL    HW246874   6.602  10.583  10.862  1.1602  1.3030  1.3489
13852SOL     OW46875   2.153   7.473   3.666 -0.2010  0.0955 -0.3690
13852SOL    HW146876   2.115   7.450   3.751  1.7206  1.8318  1.0775
13852SOL    HW246877   2.109   7.554   3.642  0.8228  0.8479  0.1703
13853SOL     OW46878   6.067   7.015   5.828  0.3510  0.0098  0.6649
13853SOL    HW146879   6.014   6.936   5.841  1.6637 -0.9458  0.3598
13853SOL    HW246880   6.033   7.053   5.747 -1.0854  0.4483  1.4300
13854SOL     OW46881   3.327  10.219  10.213  0.0871  0.1461 -0.5465
13854SOL    HW146882   3.342  10.137  10.258 -2.0941 -0.7015 -1.2469
13854SOL    HW246883   3.298  10.280  10.281  0.8130  0.0896 -0.1799
13855SOL     OW46884   4.962  10.511   5.436 -0.3598 -0.5536  0.2486
13855SOL    HW146885   4.889  10.545   5.487  0.6869 -1.4017  2.4961
13855SOL    HW246886   4.922  10.455   5.369 -1.7901  0.1852  0.4658
13856SOL     OW46887   3.335   3.570   6.806 -0.1787  0.0807 -0.1740
13856SOL    HW146888   3.366   3.479   6.804  1.7923  0.6903  0.7811
13856SOL    HW246889   3.257   3.566   6.861  0.2676 -0.9296  0.4203
13857SOL     OW46890   7.540  10.430   1.403 -0.0874  0.1650  0.0416
13857SOL    HW146891   7.469  10.493   1.389  0.2415  0.4152 -0.5109
13857SOL    HW246892   7.495  10.345   1.412 -0.4710  0.3583 -0.0426
13858SOL     OW46893   9.928   9.365   7.351 -0.1645  0.2373 -0.3443
13858SOL    HW146894   9.895   9.282   7.318 -0.5904  0.6811 -1.0755
13858SOL    HW246895   9.890   9.374   7.438 -1.2210  0.2977 -0.8038
13859SOL     OW46896  10.907   5.094   4.452 -0.3071 -0.4866 -0.1701
13859SOL    HW146897  10.904   5.067   4.544  0.7962 -1.3773 -0.3715
13859SOL    HW246898  10.925   5.014   4.404 -0.0991  0.1015 -1.1053
13860SOL     OW46899   5.745   3.414   2.338  0.4156  0.1564  0.0655
13860SOL    HW146900   5.722   3.344   2.399 -0.6067 -1.0401 -1.5975
13860SOL    HW246901   5.820   3.458   2.378  2.7612 -3.4469  0.0959
13861SOL     OW46902   4.241   7.911   1.925  0.2112  0.3170  0.2925
13861SOL    HW146903   4.320   7.904   1.872  1.5788  2.6258  1.9070
13861SOL    HW246904   4.172   7.929   1.861  1.4745  1.1423 -0.8925
13862SOL     OW46905   2.264   0.212   8.006  0.1833 -0.0083  0.2116
13862SOL    HW146906   2.229   0.208   8.095 -1.6268 -0.0900 -0.4616
13862SOL    HW246907   2.356   0.234   8.017 -0.5463  2.6602  2.0514
13863SOL     OW46908  11.657   9.263   9.511  0.3741  0.0472 -0.1595
13863SOL    HW146909  11.656   9.170   9.533 -0.2924 -0.3310 -1.6456
13863SOL    HW246910  11.749   9.285   9.500  0.4773 -0.7334 -0.9262
13864SOL     OW46911   6.201   9.021   3.394 -0.2450  0.2075 -0.2245
13864SOL    HW146912   6.114   9.024   3.354 -0.2366 -0.4065 -0.2954
13864SOL    HW246913   6.252   9.085   3.345 -0.7531  0.8271  0.0491
13865SOL     OW46914   2.870   4.048  11.781 -0.3186 -0.0327  0.1622
13865SOL    HW146915   2.962   4.049  11.755 -1.1792 -0.9686 -3.4845
13865SOL    HW246916   2.860   3.964  11.827  0.6120  0.0516  0.5479
13866SOL     OW46917  11.593   9.516   6.156  0.3798 -0.1503  0.4813
13866SOL    HW146918  11.637   9.538   6.238 -1.2140 -0.4782  1.4642
13866SOL    HW246919  11.564   9.426   6.167  0.7110 -0.4188 -0.7116
13867SOL     OW46920   1.399   1.472   4.518 -0.6347 -0.3739  0.2117
13867SOL    HW146921   1.349   1.494   4.439 -0.8566 -0.9205  0.1937
13867SOL    HW246922   1.471   1.535   4.519  0.1631 -1.2188 -1.1798
13868SOL     OW46923   2.915   7.723   3.969 -0.2209 -0.1756 -0.1830
13868SOL    HW146924   2.859   7.752   3.897 -0.1664  0.5889  0.0678
13868SOL    HW246925   2.854   7.701   4.039 -0.2152  0.8440  0.1566
13869SOL     OW46926  11.537   6.866  10.057  0.2352 -0.2470  0.3482
13869SOL    HW146927  11.463   6.911  10.098 -0.6852 -0.5775 -0.8913
13869SOL    HW246928  11.497   6.809   9.991  1.7019  1.4447 -2.1756
13870SOL     OW46929   2.703   4.668   2.058  0.1495 -0.5740 -0.0646
13870SOL    HW146930   2.762   4.610   2.106  0.4692 -0.2037 -0.0124
13870SOL    HW246931   2.706   4.635   1.968  0.6234 -0.4030 -0.1129
13871SOL     OW46932   4.966   1.746  10.519 -0.3382  0.1381  0.3131
13871SOL    HW146933   4.998   1.805  10.451 -1.8609 -0.5325 -1.0697
13871SOL    HW246934   4.906   1.799  10.571 -1.0664  0.0478 -0.4145
13872SOL     OW46935   5.333   5.372  11.787 -0.3920 -0.1119 -0.0262
13872SOL    HW146936   5.300   5.302  11.730  0.5015 -1.2343  0.8033
13872SOL    HW246937   5.366   5.438  11.726 -1.8117 -0.0926 -0.8298
13873SOL     OW46938   9.362  10.022   3.199  0.2317 -0.3947  0.3884
13873SOL    HW146939   9.272  10.010   3.169 -0.0879  1.1350  0.6718
13873SOL    HW246940   9.383  10.113   3.179  2.0717 -0.9751 -0.5636
13874SOL     OW46941   5.758   2.790  10.340 -0.0800 -0.4963 -0.7594
13874SOL    HW146942   5.779   2.808  10.249  0.3469  1.1054 -0.3696
13874SOL    HW246943   5.828   2.831  10.390 -0.1782 -1.5382  0.3027
13875SOL     OW46944   0.127   6.100   4.465  0.2506 -0.0958  0.0042
13875SOL    HW146945   0.038   6.084   4.494  0.1386 -1.1539 -0.8562
13875SOL    HW246946   0.121   6.180   4.412  0.1643  0.8792  1.4401
13876SOL     OW46947   9.503   4.980   3.331 -0.1924  0.3919  0.0099
13876SOL    HW146948   9.413   5.008   3.316 -0.5258 -1.4301 -1.7974
13876SOL    HW246949   9.528   5.023   3.413 -2.9641  0.2652  1.0258
13877SOL     OW46950   3.722   7.931   4.799  0.2401 -0.2930 -0.4226
13877SOL    HW146951   3.714   7.840   4.770 -2.0332 -0.2489 -0.0851
13877SOL    HW246952   3.761   7.925   4.887  3.6209 -0.6406 -1.8154
13878SOL     OW46953  10.819   6.584   3.865  0.0749 -1.0945 -0.0961
13878SOL    HW146954  10.808   6.489   3.867 -0.0729 -1.0634  0.7183
13878SOL    HW246955  10.912   6.597   3.886  0.4073 -1.1017 -1.4486
13879SOL     OW46956   6.065   7.791   8.466  0.6604  0.0576 -0.2403
13879SOL    HW146957   6.064   7.809   8.372 -2.2439  0.5947 -0.1958
13879SOL    HW246958   6.150   7.824   8.496  0.4377  2.7228 -2.1774
13880SOL     OW46959   1.392  11.023   8.899  0.1849 -0.4080 -0.0150
13880SOL    HW146960   1.340  11.095   8.861 -1.1850 -0.8797  0.8686
13880SOL    HW246961   1.356  11.012   8.987  1.5601 -1.0317  0.4921
13881SOL     OW46962   6.467  10.888   7.820 -0.5270  0.0316  0.3027
13881SOL    HW146963   6.442  10.810   7.868  1.0409 -0.5846  0.1780
13881SOL    HW246964   6.535  10.859   7.759 -0.8346  1.2373 -0.6676
13882SOL     OW46965   5.526   2.882   7.781 -0.7315  0.2090 -0.0363
13882SOL    HW146966   5.434   2.877   7.803 -1.0734  1.4691 -1.0652
13882SOL    HW246967   5.532   2.845   7.693 -0.4547  1.2034 -0.4460
13883SOL     OW46968  10.391   1.736   1.651 -0.4314 -0.2708 -0.3015
13883SOL    HW146969  10.392   1.831   1.659  0.3586 -0.3694  0.9487
13883SOL    HW246970  10.459   1.705   1.712 -0.5095 -1.6210 -0.8526
13884SOL     OW46971   5.497  10.976   5.439  0.5971  0.4246 -0.1608
13884SOL    HW146972   5.407  10.999   5.417  0.4044 -1.0822 -1.0925
13884SOL    HW246973   5.501  10.979   5.535 -0.0559  1.8215 -0.1606
13885SOL     OW46974   4.120   4.449   2.189  0.3364  0.6945  0.1285
13885SOL    HW146975   4.144   4.530   2.234  0.1017  1.3906 -0.9491
13885SOL    HW246976   4.025   4.449   2.189  0.3161  0.9810 -0.7815
13886SOL     OW46977  11.046   5.725   9.102 -0.0925 -0.1188  0.4317
13886SOL    HW146978  11.051   5.794   9.168 -1.0687 -0.8791  1.3245
13886SOL    HW246979  11.004   5.651   9.147 -0.1332 -0.8990 -0.8355
13887SOL     OW46980   9.652   1.972   2.843  0.6068 -0.5985 -0.2782
13887SOL    HW146981   9.621   1.945   2.757 -0.5301  0.8246 -0.3442
13887SOL    HW246982   9.589   2.038   2.872 -0.2918 -2.5267  2.5918
13888SOL     OW46983   1.613   0.432   0.598 -0.3502 -0.1538 -0.2477
13888SOL    HW146984   1.690   0.427   0.542 -0.1929  0.9561 -0.1516
13888SOL    HW246985   1.543   0.390   0.547 -0.4219  1.5960 -1.6815
13889SOL     OW46986   9.515   0.915   0.077  0.1511 -0.3041 -0.0333
13889SOL    HW146987   9.521   1.010   0.082 -2.9546  0.0779 -1.2918
13889SOL    HW246988   9.494   0.888   0.166 -0.3529  0.3899  0.0745
13890SOL     OW46989   5.940  10.736   0.718  0.6007 -0.1017 -1.0786
13890SOL    HW146990   5.935  10.641   0.733 -0.6104 -0.2270 -2.1274
13890SOL    HW246991   5.934  10.774   0.806 -0.5395 -0.9603 -0.7618
13891SOL     OW46992   3.309   5.993   8.864 -0.3271  0.1093 -0.0874
13891SOL    HW146993   3.371   5.953   8.925  1.0383 -0.4660 -1.7823
13891SOL    HW246994   3.363   6.048   8.807 -1.5888  0.7725 -0.6824
13892SOL     OW46995   4.329   8.590   6.866  0.2584  0.0054 -0.2301
13892SOL    HW146996   4.314   8.663   6.806  0.5242 -0.8333 -1.3439
13892SOL    HW246997   4.424   8.583   6.871  0.2439  0.3044  0.5949
13893SOL     OW46998   6.895   2.804   9.433 -0.1468  0.7085 -0.4809
13893SOL    HW146999   6.931   2.863   9.367 -0.9818  0.2452 -1.3899
13893SOL    HW247000   6.871   2.861   9.506  0.4785  1.2829 -0.7193
13894SOL     OW47001   4.932  10.397   4.296  0.6715 -0.1248 -0.2034
13894SOL    HW147002   4.987  10.393   4.374 -0.9217  0.2207  0.9869
13894SOL    HW247003   4.882  10.477   4.306  0.7769  0.1800 -1.8522
13895SOL     OW47004   7.840   7.335   1.904 -0.2992  0.5123 -0.4607
13895SOL    HW147005   7.809   7.344   1.814 -0.8356  0.1407 -0.3193
13895SOL    HW247006   7.781   7.271   1.944  0.8814 -0.4989 -0.2836
13896SOL     OW47007   4.680   1.086   8.292 -0.0559  0.1857 -0.1207
13896SOL    HW147008   4.697   1.005   8.244 -1.5084  0.3843 -1.0200
13896SOL    HW247009   4.597   1.071   8.336  0.4185  0.6407  0.9679
13897SOL     OW47010   7.940   7.456   8.299  0.0351 -0.2836  0.2798
13897SOL    HW147011   7.933   7.369   8.338  0.1104 -0.3790  0.0794
13897SOL    HW247012   7.887   7.512   8.355 -1.3116 -0.7457 -0.5038
13898SOL     OW47013   4.257   3.913   7.925  0.2638  0.7419  0.1911
13898SOL    HW147014   4.326   3.862   7.882  0.2401  1.4258 -0.6694
13898SOL    HW247015   4.227   3.856   7.997 -0.4127 -0.8907 -1.2985
13899SOL     OW47016   3.308   6.357  10.599 -0.1042  0.6093 -0.4492
13899SOL    HW147017   3.273   6.307  10.524  0.1565  1.0596 -0.8727
13899SOL    HW247018   3.288   6.448  10.578 -0.0084  0.7384  0.0250
13900SOL     OW47019   4.781   9.614   1.263  0.0503  0.6545 -0.2296
13900SOL    HW147020   4.729   9.655   1.333  0.6983  0.4736  0.3733
13900SOL    HW247021   4.722   9.549   1.224 -0.6879  1.5308 -0.6018
13901SOL     OW47022   9.461   2.350   2.403  0.0844  0.5141 -0.1450
13901SOL    HW147023   9.512   2.430   2.407 -0.6906  1.0113  0.1134
13901SOL    HW247024   9.457   2.319   2.493  1.9484 -0.8529 -0.4870
13902SOL     OW47025   0.151   3.110  11.345 -0.2520  0.0315  0.2144
13902SOL    HW147026   0.056   3.104  11.356 -0.2422  0.1141  0.3374
13902SOL    HW247027   0.169   3.204  11.340 -0.0905  0.0453  0.9204
13903SOL     OW47028   9.411   5.052  10.968 -0.0796  0.0281  0.5608
13903SOL    HW147029   9.348   4.981  10.963  0.5776 -0.4830 -0.8249
13903SOL    HW247030   9.391   5.108  10.892  0.2351  0.6199  0.9021
13904SOL     OW47031   2.625   2.407   8.986  0.8662  0.0659  0.1012
13904SOL    HW147032   2.638   2.481   8.928 -1.0886  1.4847  1.3422
13904SOL    HW247033   2.712   2.387   9.020  1.3917  2.1459  0.1139
13905SOL     OW47034  11.813   1.110   8.233 -0.0574 -0.0180  0.1566
13905SOL    HW147035  11.809   1.018   8.261 -0.6982  0.0571  0.3318
13905SOL    HW247036  11.728   1.126   8.192  0.5044  0.1524 -0.9921
13906SOL     OW47037   2.813   8.376   0.566 -0.1751 -0.0788  0.5116
13906SOL    HW147038   2.889   8.323   0.542 -0.2106 -0.6713  1.6347
13906SOL    HW247039   2.844   8.431   0.637 -0.6644  0.0211  0.6506
13907SOL     OW47040   4.407   7.630   6.555 -0.4763 -0.2494 -0.8780
13907SOL    HW147041   4.394   7.550   6.503  0.7835 -0.8119 -0.3825
13907SOL    HW247042   4.439   7.694   6.492  0.2329 -0.6841 -0.9793
13908SOL     OW47043   0.017   0.916   6.594 -0.1402  0.6967 -0.3396
13908SOL    HW147044   0.019   0.882   6.505  1.6423 -0.8360  0.2032
13908SOL    HW247045   0.075   0.992   6.593 -1.9004  2.1058 -0.9254
13909SOL     OW47046  11.693  10.644   4.054  0.2911 -0.2128 -0.3117
13909SOL    HW147047  11.626  10.699   4.012  0.7999 -0.1267 -1.0246
13909SOL    HW247048  11.646  10.599   4.124 -1.5235 -3.1305 -3.1422
13910SOL     OW47049   3.619   2.958   5.611 -0.3859  0.4185  0.5368
13910SOL    HW147050   3.630   3.007   5.693  3.2321  0.3449  0.2684
13910SOL    HW247051   3.534   2.985   5.577 -0.9291  2.2854  3.1042
13911SOL     OW47052   0.099   6.728   0.376  0.5126 -0.0399 -0.6718
13911SOL    HW147053   0.101   6.819   0.406 -0.6239 -0.1916 -0.0428
13911SOL    HW247054   0.012   6.719   0.335  0.6418 -0.8191 -0.7857
13912SOL     OW47055   9.261   9.354   3.320  0.2136  0.1246 -0.0839
13912SOL    HW147056   9.326   9.423   3.331  0.5733  0.3851 -3.0775
13912SOL    HW247057   9.193   9.393   3.265 -0.6234 -1.2720 -0.0990
13913SOL     OW47058   1.941   3.821   7.598  0.2906 -0.1237 -0.6608
13913SOL    HW147059   1.850   3.819   7.628  0.6234 -0.2170  0.3927
13913SOL    HW247060   1.992   3.823   7.679  1.1966  1.4188 -1.2401
13914SOL     OW47061   7.324   5.568   2.283  0.1499 -0.0362 -0.4490
13914SOL    HW147062   7.405   5.617   2.269  0.1735 -0.1633 -0.7550
13914SOL    HW247063   7.354   5.483   2.316  0.0386  0.9010  2.3523
13915SOL     OW47064   7.655  10.819   6.912 -0.0808  0.1978 -0.1286
13915SOL    HW147065   7.613  10.903   6.896 -0.2300 -0.1693 -1.8897
13915SOL    HW247066   7.581  10.759   6.928  0.0239  0.3661  1.1090
13916SOL     OW47067   4.163  10.208   0.406 -0.0392  0.2729  0.2672
13916SOL    HW147068   4.180  10.299   0.430 -1.2578  1.0575 -1.6848
13916SOL    HW247069   4.250  10.170   0.395  0.4813  1.3661  0.4554
13917SOL     OW47070   6.500   6.600   3.570  0.6281  0.4794 -0.6945
13917SOL    HW147071   6.431   6.660   3.541  1.7022  2.2352  0.1743
13917SOL    HW247072   6.493   6.524   3.512 -0.4907  1.6629 -2.1715
13918SOL     OW47073   2.823   7.807   7.493 -0.1306 -0.5506  0.2551
13918SOL    HW147074   2.842   7.740   7.428  0.9691  0.1211 -0.1345
13918SOL    HW247075   2.823   7.760   7.576 -0.9428 -1.3051 -0.1662
13919SOL     OW47076   6.226   2.233  11.738  0.5091 -0.2123  0.6974
13919SOL    HW147077   6.233   2.171  11.811 -0.4935 -0.7579  0.3464
13919SOL    HW247078   6.168   2.190  11.675 -0.2496  1.1040  0.4576
13920SOL     OW47079   5.195   8.689   6.199 -0.1301  0.0762  0.6820
13920SOL    HW147080   5.231   8.777   6.209  2.4676 -0.9410  1.3183
13920SOL    HW247081   5.146   8.673   6.279  1.9375 -0.0730  1.9923
13921SOL     OW47082   7.151  10.879   5.023 -0.2498 -0.1030 -0.2914
13921SOL    HW147083   7.232  10.921   5.050 -0.3502  1.0806 -1.7175
13921SOL    HW247084   7.082  10.933   5.061 -0.3738  0.2431 -0.9999
13922SOL     OW47085   3.424   4.786   2.545 -0.1667  0.0228  0.7701
13922SOL    HW147086   3.334   4.808   2.521  0.2463  0.0935 -0.8253
13922SOL    HW247087   3.476   4.863   2.521  0.6360 -0.8883 -0.6447
13923SOL     OW47088   9.393   0.175   9.990 -0.0603 -0.0603 -0.0920
13923SOL    HW147089   9.388   0.143  10.080  0.3083  1.9473  0.6915
13923SOL    HW247090   9.332   0.249   9.988 -1.9749 -1.5504 -2.2278
13924SOL     OW47091   9.295   6.819   5.985 -0.2261 -0.9589 -0.7728
13924SOL    HW147092   9.310   6.864   6.069  1.6403 -1.0340 -1.0411
13924SOL    HW247093   9.319   6.884   5.919  1.4426 -1.9390 -1.1755
13925SOL     OW47094   0.929   5.039   2.743 -0.1046  0.5485 -0.2963
13925SOL    HW147095   0.930   5.124   2.701 -0.4964  0.1631 -1.1040
13925SOL    HW247096   0.942   4.976   2.672 -0.2152 -0.0855  0.2300
13926SOL     OW47097   9.218   4.579  10.082  0.4267  0.2512 -0.9765
13926SOL    HW147098   9.133   4.603  10.119  0.2122 -0.7226 -0.7996
13926SOL    HW247099   9.272   4.657  10.093  0.5460 -0.1160  1.8863
13927SOL     OW47100   0.262   7.932   7.563  0.2576  0.0691 -0.1712
13927SOL    HW147101   0.209   7.865   7.519  0.0937  0.6999 -0.9738
13927SOL    HW247102   0.280   7.996   7.494  1.3917  0.2708  0.2933
13928SOL     OW47103   1.652   8.425   4.434 -0.2310  0.2730  0.3093
13928SOL    HW147104   1.695   8.367   4.498 -1.5136 -0.5028  0.5086
13928SOL    HW247105   1.567   8.445   4.474 -0.1002  1.7227 -0.0963
13929SOL     OW47106   9.902   2.432  11.671  0.0461 -0.2982  0.4055
13929SOL    HW147107   9.905   2.477  11.755 -0.9189  1.8826 -0.6282
13929SOL    HW247108   9.810   2.432  11.647  0.4825  1.4208 -1.7009
13930SOL     OW47109   3.423   5.617   7.636  0.0593  0.3116 -0.4961
13930SOL    HW147110   3.342   5.571   7.618 -0.4410  0.8928  0.2160
13930SOL    HW247111   3.490   5.548   7.641 -0.8589 -0.5109  1.7449
13931SOL     OW47112   6.007   9.594   7.236  0.0186 -0.4921  0.2951
13931SOL    HW147113   5.996   9.516   7.290  0.8956 -0.9816 -0.2104
13931SOL    HW247114   6.056   9.564   7.160  0.0556  0.4786 -0.0810
13932SOL     OW47115  10.979   8.404   0.118 -0.0819  0.5494 -0.3633
13932SOL    HW147116  10.977   8.356   0.035 -0.5163  0.7538 -0.4740
13932SOL    HW247117  11.020   8.488   0.096  1.0819  0.0727 -0.0793
13933SOL     OW47118   8.981   8.404   9.209 -0.0977 -0.6415 -0.3427
13933SOL    HW147119   9.051   8.468   9.220 -1.3173  1.1477 -2.1749
13933SOL    HW247120   8.918   8.424   9.279  0.5955 -1.4301  0.5319
13934SOL     OW47121   3.095   1.979   5.709  0.6707  0.2372  0.1161
13934SOL    HW147122   3.112   1.995   5.616  3.5126 -0.0382  0.4817
13934SOL    HW247123   3.107   1.884   5.719  0.4309  0.2751  0.7684
13935SOL     OW47124   2.850   7.125   4.464 -0.2296 -0.5134  0.6822
13935SOL    HW147125   2.864   7.173   4.545  0.1068 -0.3547  0.5305
13935SOL    HW247126   2.936   7.121   4.423 -0.7278  1.0331 -0.5783
13936SOL     OW47127   3.994   6.737  11.733  0.3390  0.0379 -0.3641
13936SOL    HW147128   3.966   6.788  11.809  0.3879 -1.5237  0.7504
13936SOL    HW247129   3.941   6.770  11.661 -1.4717 -0.0712  0.8461
13937SOL     OW47130   9.956  10.506  11.140  0.4283  0.1852  0.7455
13937SOL    HW147131  10.000  10.575  11.090 -0.6327  0.1596 -0.2874
13937SOL    HW247132  10.025  10.464  11.191  1.3463  1.0064  0.1954
13938SOL     OW47133   9.925   0.811   4.482  0.3537  0.2216  0.2707
13938SOL    HW147134   9.885   0.898   4.485  0.4650  0.4214 -2.0790
13938SOL    HW247135   9.881   0.767   4.409 -1.5210 -2.7133  2.9519
13939SOL     OW47136   0.416   3.764   7.484 -0.8267 -0.3874 -0.2546
13939SOL    HW147137   0.321   3.769   7.495 -1.0238 -0.7566 -1.5335
13939SOL    HW247138   0.445   3.855   7.483 -1.3611 -0.2131 -1.2193
13940SOL     OW47139   7.778   1.900   5.458  0.0795  0.7228  0.0016
13940SOL    HW147140   7.776   1.835   5.388  0.7393  1.0143 -0.2933
13940SOL    HW247141   7.779   1.984   5.413  0.5455  0.9111  0.3567
13941SOL     OW47142   9.143   7.643   4.458  0.5087 -0.2763  0.2275
13941SOL    HW147143   9.145   7.725   4.507 -1.4838 -0.6302  0.9943
13941SOL    HW247144   9.173   7.577   4.521  0.3758 -0.3877  0.1744
13942SOL     OW47145   2.471   3.727   3.045  0.0682 -0.8403 -0.5295
13942SOL    HW147146   2.511   3.645   3.073  0.2005 -0.8379 -0.7152
13942SOL    HW247147   2.487   3.732   2.951  1.2566  0.0534 -0.3070
13943SOL     OW47148   2.291   8.377  11.039 -0.1164  0.0617 -0.2863
13943SOL    HW147149   2.257   8.465  11.024 -0.3291 -0.1698 -1.2595
13943SOL    HW247150   2.240   8.344  11.113 -0.3985  0.5655 -0.2505
13944SOL     OW47151   7.734   9.419   7.388 -0.0517  0.2801 -0.3361
13944SOL    HW147152   7.694   9.457   7.310  1.0474  0.8979 -0.6262
13944SOL    HW247153   7.758   9.331   7.362  0.9996  0.7338 -0.9580
13945SOL     OW47154   3.730   9.796   8.666 -0.3683  0.1877  0.3278
13945SOL    HW147155   3.814   9.775   8.707 -0.1879  3.0945  1.6690
13945SOL    HW247156   3.753   9.833   8.581 -0.3568  0.3444  0.4005
13946SOL     OW47157   5.576   9.684   0.323  0.2681 -0.0095 -0.2573
13946SOL    HW147158   5.508   9.740   0.286  1.3883  2.0865  0.6691
13946SOL    HW247159   5.650   9.743   0.338  1.2575 -1.5949  1.5120
13947SOL     OW47160   7.129   5.657  11.171 -0.0994  0.0600 -0.0850
13947SOL    HW147161   7.094   5.683  11.086 -0.4536  2.4357  0.7165
13947SOL    HW247162   7.217   5.695  11.173 -0.1572  0.1815  0.6586
13948SOL     OW47163  11.300   7.030   0.515 -0.0583  0.4746 -0.4937
13948SOL    HW147164  11.357   7.082   0.572  0.4088 -0.0111 -0.5083
13948SOL    HW247165  11.234   7.092   0.484  1.0443  1.2808 -1.2770
13949SOL     OW47166   4.394   6.041   3.251 -0.3467 -0.4660  0.1851
13949SOL    HW147167   4.411   6.120   3.201  0.6974  0.6834  2.2007
13949SOL    HW247168   4.464   5.981   3.226 -1.9177 -1.4049 -2.3927
13950SOL     OW47169   5.757  11.671  11.551 -0.1490 -0.8175  0.5098
13950SOL    HW147170   5.786  11.711  11.469  0.3523 -0.5655  0.8090
13950SOL    HW247171   5.781  11.734  11.619 -1.6180 -0.4881  0.7476
13951SOL     OW47172   6.610   2.197   7.762  0.1877  0.6398 -0.1887
13951SOL    HW147173   6.643   2.212   7.673  1.8938  1.4942  0.5439
13951SOL    HW247174   6.609   2.284   7.802  2.2821 -0.0587  1.5361
13952SOL     OW47175   2.352  11.507   4.812  0.0766  0.3861  0.6344
13952SOL    HW147176   2.417  11.463   4.757 -1.4431 -0.6095 -0.4243
13952SOL    HW247177   2.327  11.442   4.877  1.7015  1.4831  2.4794
13953SOL     OW47178   7.290   7.056   1.969  0.0677  0.3941 -0.1461
13953SOL    HW147179   7.222   7.115   2.002  0.0001  0.4442 -0.3733
13953SOL    HW247180   7.300   6.990   2.037  1.1239  1.4447  0.7761
13954SOL     OW47181   5.408   2.283   5.308 -0.0718  0.9955 -0.1986
13954SOL    HW147182   5.422   2.188   5.309 -2.8901  0.4531 -1.5296
13954SOL    HW247183   5.344   2.299   5.377 -0.3417  1.7662 -0.6162
13955SOL     OW47184   1.869  11.655   2.725  0.0030 -0.4237 -0.0255
13955SOL    HW147185   1.893  11.742   2.692  1.1004 -0.1221  1.4815
13955SOL    HW247186   1.944  11.627   2.776 -0.9788 -1.5820  0.8320
13956SOL     OW47187   1.380   7.947   9.138 -0.1092 -0.5795  0.2986
13956SOL    HW147188   1.289   7.975   9.131  0.3634  0.6911 -1.4136
13956SOL    HW247189   1.429   8.006   9.080  1.5291 -2.4063 -0.3280
13957SOL     OW47190   9.372   6.932   5.519  0.3770 -0.1656  0.4268
13957SOL    HW147191   9.425   6.862   5.481 -0.4291 -0.3622 -0.3742
13957SOL    HW247192   9.293   6.887   5.551 -0.6133  0.4741 -1.0083
13958SOL     OW47193   4.834   8.697   0.816 -0.6182 -0.1075  0.2974
13958SOL    HW147194   4.870   8.650   0.892 -1.7085 -0.0413  0.8809
13958SOL    HW247195   4.751   8.652   0.798 -1.6341  1.4853  0.7821
13959SOL     OW47196   4.103   2.409   6.755 -0.4774  0.2090 -0.0412
13959SOL    HW147197   4.048   2.410   6.676 -1.5119  0.1579  0.6607
13959SOL    HW247198   4.110   2.317   6.777 -0.8385  0.2753  0.3596
13960SOL     OW47199   8.461   6.500   1.734  0.2970  0.2942  0.0615
13960SOL    HW147200   8.421   6.452   1.662  0.3874  0.5493 -0.1586
13960SOL    HW247201   8.467   6.436   1.805  1.5112 -0.3814 -0.6132
13961SOL     OW47202   4.651   9.144   4.310  0.3346 -0.5870  0.7828
13961SOL    HW147203   4.689   9.229   4.333  0.2971 -0.1525 -0.6201
13961SOL    HW247204   4.604   9.160   4.228  2.8277 -2.5312 -1.2273
13962SOL     OW47205   0.767   1.565   2.264 -0.0665 -0.0910  0.2261
13962SOL    HW147206   0.705   1.492   2.267 -2.2749  1.6349 -0.6947
13962SOL    HW247207   0.758   1.601   2.176  1.6319  0.7836  0.3618
13963SOL     OW47208  11.807   7.337   6.317 -0.2245  0.3117 -0.1508
13963SOL    HW147209  11.796   7.244   6.299 -0.5995 -0.1524  2.1816
13963SOL    HW247210  11.889   7.361   6.275 -1.0223 -0.5892 -2.3557
13964SOL     OW47211   9.335   9.396   8.036 -0.1530  0.2040  0.3942
13964SOL    HW147212   9.332   9.303   8.055 -1.5729 -0.0534 -0.8798
13964SOL    HW247213   9.280   9.437   8.103 -0.4128 -0.0083  0.3109
13965SOL     OW47214   7.779   1.931  11.375  0.0771 -0.0662  0.0985
13965SOL    HW147215   7.689   1.949  11.346 -0.2416 -1.2475  0.2846
13965SOL    HW247216   7.827   1.912  11.295 -0.3521 -1.4628  0.1370
13966SOL     OW47217   9.788   7.453   8.879  0.9174  0.2166  0.1011
13966SOL    HW147218   9.776   7.359   8.896 -1.0072  0.5651  0.8947
13966SOL    HW247219   9.706   7.493   8.908  2.1539  2.3030  0.8804
13967SOL     OW47220   1.014   8.842   5.433 -0.1217  0.1610 -0.5181
13967SOL    HW147221   0.984   8.760   5.471 -2.6008  0.4201 -1.7417
13967SOL    HW247222   0.938   8.900   5.438  0.3869  1.1582 -3.0498
13968SOL     OW47223   3.927   1.541   4.767  0.8460 -0.1419 -0.3568
13968SOL    HW147224   3.992   1.499   4.711  0.3349  0.7108 -1.6242
13968SOL    HW247225   3.976   1.569   4.844  1.8886  0.0960 -1.0989
13969SOL     OW47226   3.083   6.199   8.550 -0.5103 -0.3675 -0.1186
13969SOL    HW147227   3.152   6.231   8.492  1.3239 -0.8688  1.6859
13969SOL    HW247228   3.048   6.277   8.592  1.4767 -0.2923  1.5783
13970SOL     OW47229   5.400   7.901   9.784 -0.2022 -0.4361 -0.2062
13970SOL    HW147230   5.359   7.828   9.738 -0.2115 -0.6796  0.1838
13970SOL    HW247231   5.370   7.979   9.737 -0.3010 -0.6742 -0.5403
13971SOL     OW47232   6.703   2.720   5.103 -0.6051  0.0176  0.0557
13971SOL    HW147233   6.634   2.727   5.037 -0.3039  0.9857 -0.1701
13971SOL    HW247234   6.657   2.698   5.183 -1.2654  1.2674  0.0380
13972SOL     OW47235   9.630   9.790   1.425 -0.4172 -0.4430 -0.2215
13972SOL    HW147236   9.562   9.832   1.477 -1.4070 -1.7246 -0.4343
13972SOL    HW247237   9.606   9.808   1.335 -0.1005 -0.3402 -0.2856
13973SOL     OW47238   8.194   6.888  11.544 -0.1875  0.0757  0.2309
13973SOL    HW147239   8.162   6.914  11.458  0.3856  0.5245  0.1372
13973SOL    HW247240   8.290   6.891  11.535 -0.1238  0.3495  0.9398
13974SOL     OW47241   7.381   4.168   1.127  0.4945 -0.6464  0.4498
13974SOL    HW147242   7.362   4.262   1.136  0.8003 -0.3596 -1.4597
13974SOL    HW247243   7.473   4.160   1.151  1.1015 -0.0332 -1.4415
13975SOL     OW47244   3.234   7.920   7.739 -0.2875  0.0014 -0.3708
13975SOL    HW147245   3.317   7.967   7.741  0.3096 -1.0339  1.5405
13975SOL    HW247246   3.237   7.869   7.657  1.5649 -1.0199  0.2823
13976SOL     OW47247   1.512   0.594   4.901 -0.3460  0.5521 -0.5445
13976SOL    HW147248   1.547   0.671   4.856  0.0104  0.1624 -0.9403
13976SOL    HW247249   1.581   0.569   4.962 -0.1668  0.1275 -0.9177
13977SOL     OW47250   9.327   9.332   4.216  0.3384  0.4770 -0.2187
13977SOL    HW147251   9.256   9.295   4.269  0.6727 -1.3049 -0.9563
13977SOL    HW247252   9.290   9.413   4.180 -1.5671 -0.7543 -1.1367
13978SOL     OW47253  10.248   5.878   0.204 -0.6298  0.2970 -0.4081
13978SOL    HW147254  10.221   5.786   0.209 -0.9781  0.3359 -1.3205
13978SOL    HW247255  10.227   5.904   0.114  0.0572  1.0870 -0.3500
13979SOL     OW47256   7.727  10.680   4.428 -0.3077  0.5146  0.3113
13979SOL    HW147257   7.822  10.669   4.432 -0.3893  0.1612  2.0567
13979SOL    HW247258   7.703  10.653   4.339  1.3033  1.3970 -0.4398
13980SOL     OW47259   5.737  11.128   0.502 -0.4671  0.5509  0.5400
13980SOL    HW147260   5.646  11.099   0.496 -0.2994  0.0192  0.4846
13980SOL    HW247261   5.788  11.053   0.472 -0.0866  1.4926 -1.2648
13981SOL     OW47262  10.092   6.611   5.247  0.0039  0.7254  0.8143
13981SOL    HW147263  10.012   6.562   5.234 -0.7808  2.2179 -0.4113
13981SOL    HW247264  10.064   6.703   5.249  1.4646  1.2028  2.3535
13982SOL     OW47265   1.256   6.733   7.361 -0.5434  0.4700 -0.3220
13982SOL    HW147266   1.276   6.825   7.347  0.3506  0.2749 -0.3936
13982SOL    HW247267   1.171   6.720   7.318 -0.9437  1.3718  0.1568
13983SOL     OW47268   7.537   9.376  10.951 -0.5058 -0.1928  0.2834
13983SOL    HW147269   7.494   9.308  11.003  0.9203 -1.3933 -0.0146
13983SOL    HW247270   7.475   9.396  10.880 -1.1467 -0.8423  0.6520
13984SOL     OW47271   5.364   4.474  10.903 -0.4787  0.3821 -0.2811
13984SOL    HW147272   5.431   4.533  10.869  1.1115 -1.2650 -0.1640
13984SOL    HW247273   5.320   4.440  10.824 -0.5398  0.7418 -0.4039
13985SOL     OW47274   3.198   7.411  11.148  0.2695  0.2714  0.0806
13985SOL    HW147275   3.136   7.351  11.190 -0.3898  0.5084 -0.5478
13985SOL    HW247276   3.163   7.425  11.060  0.5819  1.3284  0.1118
13986SOL     OW47277   3.044   3.050   9.738 -0.1053 -0.4611  0.5892
13986SOL    HW147278   3.138   3.050   9.757  0.0139  1.1670  0.1926
13986SOL    HW247279   3.028   2.966   9.696  1.5727 -0.0747 -0.9937
13987SOL     OW47280   7.081   6.195  10.812  0.3787  0.2629  0.2475
13987SOL    HW147281   6.993   6.164  10.834  0.3162  0.4198  0.2169
13987SOL    HW247282   7.067   6.282  10.775  0.6484  0.7844  1.3405
13988SOL     OW47283   3.146   9.229  10.563 -0.4241  0.0229 -0.0439
13988SOL    HW147284   3.134   9.165  10.493 -0.2526  0.8954 -0.8923
13988SOL    HW247285   3.201   9.297  10.524 -0.7972  0.8059  0.7547
13989SOL     OW47286  10.264   2.598   6.579  0.3795 -0.1185 -0.5077
13989SOL    HW147287  10.231   2.585   6.490  2.8629  0.9745 -1.6618
13989SOL    HW247288  10.211   2.670   6.613  0.9215  1.0073 -1.9679
13990SOL     OW47289   4.670  10.927   8.667  0.1621  0.0764 -0.1556
13990SOL    HW147290   4.684  11.021   8.664  0.3646  0.0335 -0.7263
13990SOL    HW247291   4.752  10.890   8.633  0.0157 -0.2954 -0.1070
13991SOL     OW47292  11.626   2.557   2.110 -0.0516  0.0730 -0.2244
13991SOL    HW147293  11.707   2.599   2.141 -0.2391  0.0156  0.3571
13991SOL    HW247294  11.649   2.523   2.024  0.0927  1.3900 -0.7307
13992SOL     OW47295   4.827   9.306   1.256 -0.4327 -0.1502  0.3150
13992SOL    HW147296   4.777   9.385   1.234 -1.9643 -0.7182  1.5971
13992SOL    HW247297   4.761   9.242   1.283  0.8863 -1.4468  0.6134
13993SOL     OW47298   5.357   9.897   5.926 -0.2764 -0.0829 -0.2194
13993SOL    HW147299   5.282   9.838   5.933 -0.7762  0.4156 -1.0788
13993SOL    HW247300   5.409   9.881   6.005 -1.8880  0.3703  0.9801
13994SOL     OW47301   1.531  10.382   5.513 -0.0397  0.5085 -0.3845
13994SOL    HW147302   1.569  10.358   5.598  0.1202 -0.0814 -0.6198
13994SOL    HW247303   1.487  10.303   5.483  1.0377  0.3056 -1.4730
13995SOL     OW47304   3.028   4.188   3.803  0.1186  0.1149 -0.3663
13995SOL    HW147305   2.971   4.125   3.759 -0.5606  1.0714 -0.8946
13995SOL    HW247306   3.095   4.208   3.738  0.6362 -0.4396 -0.0138
13996SOL     OW47307   8.726   4.051   3.852 -0.0727 -0.1947 -0.0371
13996SOL    HW147308   8.641   4.009   3.836  0.0916 -1.1867  1.4556
13996SOL    HW247309   8.704   4.128   3.905  0.0294 -1.1796  1.5001
13997SOL     OW47310   7.376   3.841  11.762 -0.1932 -0.3515  0.1558
13997SOL    HW147311   7.340   3.760  11.725  0.8009 -1.8211  2.2352
13997SOL    HW247312   7.306   3.873  11.820 -1.0530  0.9917 -1.5357
13998SOL     OW47313   0.840   4.035   9.058 -0.5954  0.5205  0.2134
13998SOL    HW147314   0.847   3.988   8.975 -0.5053  2.3418 -0.8597
13998SOL    HW247315   0.774   3.986   9.108 -0.5407 -0.6898 -0.8490
13999SOL     OW47316   2.614  11.764   4.756  0.4346 -0.2729 -0.1179
13999SOL    HW147317   2.676  11.819   4.707  1.0604  0.7015  1.7021
13999SOL    HW247318   2.667  11.689   4.785  1.2969  1.3097  2.7719
14000SOL     OW47319   8.266  10.071   3.755 -0.3689  0.1390  0.2716
14000SOL    HW147320   8.332  10.137   3.733 -1.0641  0.7619  0.0237
14000SOL    HW247321   8.308  10.017   3.822  0.1502  0.9360  0.6089
14001SOL     OW47322  10.698   0.913   7.749  0.1789  0.2069 -0.4271
14001SOL    HW147323  10.758   0.956   7.809  0.1617  0.3507 -0.5115
14001SOL    HW247324  10.712   0.957   7.665 -2.5172  2.7311  0.2558
14002SOL     OW47325  11.145   9.332   8.489  0.1922  0.4493 -0.3523
14002SOL    HW147326  11.162   9.378   8.571  1.8158 -0.5067 -0.1109
14002SOL    HW247327  11.105   9.249   8.516 -0.1012  0.5064 -0.6014
14003SOL     OW47328   2.049   4.391   1.930 -0.1408  0.2345  0.1146
14003SOL    HW147329   2.102   4.331   1.877  0.5040 -0.6741  1.7135
14003SOL    HW247330   1.962   4.387   1.889  0.8508  1.4815 -2.3401
14004SOL     OW47331   9.602   9.921   9.486  0.9017 -0.5809 -0.0756
14004SOL    HW147332   9.689   9.883   9.473  0.4079 -1.6175 -0.4179
14004SOL    HW247333   9.614  10.015   9.470  1.7951 -0.8192 -0.8663
14005SOL     OW47334   2.351   7.291   6.622 -0.4814  0.3120 -0.5981
14005SOL    HW147335   2.438   7.323   6.600 -0.1339  0.4170  0.8273
14005SOL    HW247336   2.330   7.227   6.554  0.6471  0.3996 -1.0384
14006SOL     OW47337   1.570  11.643   9.985 -0.0650 -0.4449  0.2482
14006SOL    HW147338   1.629  11.578  10.022  0.2152 -0.0322  0.5401
14006SOL    HW247339   1.487  11.627  10.029  0.1164 -0.3292  0.6391
14007SOL     OW47340   0.393   6.941   9.123 -0.4983 -0.2064  0.2783
14007SOL    HW147341   0.330   6.904   9.062  1.0475  0.0614 -1.5959
14007SOL    HW247342   0.387   7.036   9.109 -0.8806 -0.0695  1.3322
14008SOL     OW47343   9.504   2.465   1.061 -0.3655  0.0478  0.5067
14008SOL    HW147344   9.429   2.468   1.121  0.2146 -0.6044  1.2992
14008SOL    HW247345   9.539   2.553   1.063 -1.0051  0.3158  0.2626
14009SOL     OW47346   3.483   9.910   6.968  0.6054  0.4778 -0.6524
14009SOL    HW147347   3.414   9.974   6.948  1.2158  1.3156 -0.1672
14009SOL    HW247348   3.518   9.939   7.052  0.8114 -0.5842 -0.3640
14010SOL     OW47349   3.608   8.157   7.881  0.6299  0.0169  0.1334
14010SOL    HW147350   3.548   8.101   7.832  0.9173  0.0737 -0.2884
14010SOL    HW247351   3.571   8.244   7.873  0.9845  0.1146 -0.4690
14011SOL     OW47352  10.921   6.399   3.608  0.4865 -0.0980 -0.3956
14011SOL    HW147353  10.916   6.307   3.583  0.8891 -0.1526 -0.2834
14011SOL    HW247354  10.839   6.437   3.577  0.2544 -0.5269 -0.3098
14012SOL     OW47355   3.095   0.887   9.819 -0.4375 -0.3394  0.4614
14012SOL    HW147356   3.070   0.860   9.908  0.2495 -1.9028  0.2180
14012SOL    HW247357   3.179   0.843   9.803 -0.1469  0.5698 -0.6703
14013SOL     OW47358  10.928   3.444  10.619  0.0140  0.3966  0.2895
14013SOL    HW147359  10.902   3.501  10.692 -0.9375  0.6183 -0.2038
14013SOL    HW247360  10.957   3.504  10.550 -1.4849  0.3496 -0.4249
14014SOL     OW47361   5.165   0.922  10.661  0.4023 -0.4437 -0.2670
14014SOL    HW147362   5.123   0.889  10.741  1.5344 -1.3528 -0.0366
14014SOL    HW247363   5.257   0.934  10.685  0.5507  0.3013 -1.1389
14015SOL     OW47364   3.642   2.104   3.202  0.4407 -0.5364  0.0609
14015SOL    HW147365   3.565   2.158   3.222  0.4984 -0.7624  0.9106
14015SOL    HW247366   3.713   2.167   3.192  0.0425 -0.2716 -1.3496
14016SOL     OW47367   4.523  11.523  10.174 -0.8222 -0.2929  0.0984
14016SOL    HW147368   4.593  11.457  10.173 -0.6957 -0.1630  0.2743
14016SOL    HW247369   4.442  11.472  10.176 -0.7543 -0.4487 -0.7818
14017SOL     OW47370   9.571  11.592   1.535 -0.1840 -0.5450  0.3423
14017SOL    HW147371   9.476  11.600   1.542 -0.5771 -1.6733 -2.3004
14017SOL    HW247372   9.597  11.665   1.478  0.4406 -0.6983  0.4207
14018SOL     OW47373  10.233   6.087   0.573  0.2534 -0.0610 -0.5292
14018SOL    HW147374  10.233   6.000   0.534 -1.6642 -0.1040 -0.5152
14018SOL    HW247375  10.216   6.072   0.666 -2.1031  0.3870 -0.8372
14019SOL     OW47376   2.859   9.490   8.465  0.1553 -0.4516  0.2022
14019SOL    HW147377   2.943   9.444   8.459  0.3187 -0.6316  2.7450
14019SOL    HW247378   2.793   9.422   8.448  0.4077 -1.7203  3.5262
14020SOL     OW47379   7.916   6.090   2.112 -0.1279  0.3751 -0.4381
14020SOL    HW147380   7.980   6.152   2.078  2.7948 -2.1688 -0.0667
14020SOL    HW247381   7.895   6.034   2.038 -0.5082  0.1159 -0.1374
14021SOL     OW47382   2.134   5.199  10.922  0.1024  0.6107 -0.7565
14021SOL    HW147383   2.164   5.258  10.991 -0.1258 -1.1815  0.9671
14021SOL    HW247384   2.200   5.130  10.919 -1.2920 -0.8203 -0.2994
14022SOL     OW47385   8.915   5.561  10.412  0.4135  0.0605  0.1757
14022SOL    HW147386   8.873   5.640  10.446 -1.0802 -0.7797  0.3759
14022SOL    HW247387   9.007   5.584  10.404  0.5900  0.8294  3.2172
14023SOL     OW47388  10.779   9.961   0.589  0.0666 -0.5075 -0.2123
14023SOL    HW147389  10.776   9.866   0.594  1.5108 -0.5877 -0.4687
14023SOL    HW247390  10.794   9.990   0.679 -0.3044 -0.5159 -0.1453
14024SOL     OW47391   4.910  11.529  11.324  0.3383  0.0663  0.1796
14024SOL    HW147392   4.940  11.590  11.392 -0.5479 -0.4108  1.0297
14024SOL    HW247393   4.914  11.443  11.366 -0.1070 -0.2533 -0.4182
14025SOL     OW47394   5.859   1.299   4.154 -0.2005 -0.4027 -0.6414
14025SOL    HW147395   5.855   1.377   4.099 -0.2231 -0.2426 -0.4134
14025SOL    HW247396   5.773   1.258   4.144  0.2002 -1.0228 -1.6663
14026SOL     OW47397   5.494   0.742   4.217  0.3749  0.5435  0.2868
14026SOL    HW147398   5.417   0.720   4.165 -0.4243 -1.6950  2.2312
14026SOL    HW247399   5.476   0.829   4.251  0.2349  1.4055 -1.8631
14027SOL     OW47400   3.430   4.078   9.059 -0.0695  0.1047 -0.3227
14027SOL    HW147401   3.347   4.121   9.040  0.0558  0.7677  0.5341
14027SOL    HW247402   3.496   4.146   9.046 -0.0422  0.9597  3.1523
14028SOL     OW47403   8.104   9.460   7.315  0.3802  0.3940 -0.1818
14028SOL    HW147404   8.036   9.398   7.290  0.0630  0.3837  0.6615
14028SOL    HW247405   8.057   9.542   7.331  0.6218  0.5063 -0.0346
14029SOL     OW47406   8.304  10.437   1.410  0.9619 -0.6288  0.1961
14029SOL    HW147407   8.215  10.418   1.437  1.2459 -1.2808  0.7083
14029SOL    HW247408   8.355  10.433   1.491  1.1469  1.8540  0.2871
14030SOL     OW47409  10.714   0.594   2.339 -0.7465 -0.0264  0.0698
14030SOL    HW147410  10.718   0.688   2.356 -0.6793  0.1174 -0.7106
14030SOL    HW247411  10.795   0.560   2.377 -1.3673  0.0229  1.5056
14031SOL     OW47412   4.003   1.604   1.581 -0.6359  0.4004 -0.3380
14031SOL    HW147413   3.973   1.559   1.660  1.2104 -0.6738 -0.1686
14031SOL    HW247414   3.928   1.655   1.551 -1.4310  0.7084  2.0084
14032SOL     OW47415   6.024  10.642   6.147 -0.9307 -0.2550  0.3033
14032SOL    HW147416   6.021  10.649   6.242  2.3485 -2.1036  0.6914
14032SOL    HW247417   6.115  10.624   6.127 -0.7161  3.4220 -3.5618
14033SOL     OW47418   4.127   5.785   3.668 -0.1417  0.6868 -0.7073
14033SOL    HW147419   4.169   5.700   3.654 -1.0842  0.2641 -1.0729
14033SOL    HW247420   4.180   5.846   3.617  0.7382  0.3860 -0.1822
14034SOL     OW47421   0.561   3.363  10.671 -0.2193 -0.3414 -0.5083
14034SOL    HW147422   0.544   3.442  10.722  1.7629  0.3991 -0.8809
14034SOL    HW247423   0.501   3.297  10.706 -1.0272  0.9837  0.6699
14035SOL     OW47424   3.356   9.831   1.649  0.2398 -0.2029  0.4701
14035SOL    HW147425   3.417   9.799   1.582 -0.3637  0.8259 -0.6069
14035SOL    HW247426   3.296   9.758   1.663  0.9563 -0.7757  0.6225
14036SOL     OW47427   1.146   2.958   7.971 -0.2555 -0.5755 -0.4856
14036SOL    HW147428   1.073   2.944   8.031 -0.4946  3.5294  0.4942
14036SOL    HW247429   1.103   2.977   7.887 -0.3936  1.0532 -0.0914
14037SOL     OW47430  10.879   6.358   8.002 -1.0078 -0.1935 -0.3391
14037SOL    HW147431  10.791   6.349   8.039 -0.7168 -0.7011  0.2568
14037SOL    HW247432  10.923   6.421   8.060 -0.5993 -0.8730  0.1050
14038SOL     OW47433   7.748   0.630   5.941  0.3465 -0.6386  0.0714
14038SOL    HW147434   7.657   0.635   5.971  0.4080 -0.7336  0.2792
14038SOL    HW247435   7.800   0.632   6.022  0.6378  1.8112 -0.1034
14039SOL     OW47436   8.862   5.691   6.747 -0.2965  0.0093 -0.0009
14039SOL    HW147437   8.887   5.661   6.834 -0.1080 -0.2952 -0.1562
14039SOL    HW247438   8.873   5.614   6.691  0.8043  0.5184 -0.5244
14040SOL     OW47439  10.391   7.604   6.994  0.5250 -0.0511  0.3153
14040SOL    HW147440  10.324   7.590   7.061  0.2814 -0.2830  0.0248
14040SOL    HW247441  10.474   7.592   7.040  0.3528 -0.5573  0.5001
14041SOL     OW47442   2.710  10.849   7.940  0.6895  0.2081  0.1385
14041SOL    HW147443   2.703  10.866   7.846  0.2288 -1.6821 -0.2094
14041SOL    HW247444   2.802  10.825   7.953  0.3148 -1.6314 -0.2695
14042SOL     OW47445   0.045   9.220   9.100 -0.3278  0.3405  0.4171
14042SOL    HW147446   0.084   9.206   9.013 -2.4269 -2.5074 -0.2000
14042SOL    HW247447  -0.013   9.295   9.089 -0.6912 -0.0886 -0.7426
14043SOL     OW47448   7.061   4.469   4.876  0.7080 -0.2312 -0.0029
14043SOL    HW147449   7.121   4.401   4.907  1.9243 -0.0470 -1.8284
14043SOL    HW247450   6.973   4.434   4.895  1.3298 -1.6382  0.4043
14044SOL     OW47451  10.527   2.584   6.357  0.0843 -0.2384 -0.0701
14044SOL    HW147452  10.618   2.577   6.328 -0.2692 -1.1990 -1.0130
14044SOL    HW247453  10.494   2.662   6.311 -0.2287 -1.2671 -1.6688
14045SOL     OW47454   5.744   4.198   5.471  0.4665 -0.0957  0.3683
14045SOL    HW147455   5.665   4.252   5.479 -0.1151 -0.9239  0.4114
14045SOL    HW247456   5.761   4.194   5.377 -0.3349 -0.9954  0.2442
14046SOL     OW47457   3.978   5.503   8.514  0.2185  0.4365  0.1367
14046SOL    HW147458   4.064   5.486   8.475 -0.1406  0.3137 -0.6226
14046SOL    HW247459   3.992   5.495   8.608  0.4413 -2.4422 -0.0589
14047SOL     OW47460   3.531   1.989   7.006 -0.2372  0.0660 -0.2392
14047SOL    HW147461   3.618   1.950   7.016  0.1493  0.9043 -0.2660
14047SOL    HW247462   3.535   2.070   7.057 -1.1525 -0.1047  0.1329
14048SOL     OW47463   2.669   6.273   4.395 -0.2139 -0.0956 -0.6910
14048SOL    HW147464   2.587   6.264   4.443 -0.8317  0.0613 -1.7003
14048SOL    HW247465   2.665   6.360   4.355  0.8316  0.2640 -0.0556
14049SOL     OW47466   6.705  10.818   6.053  0.1565  0.2917 -0.3727
14049SOL    HW147467   6.772  10.874   6.091 -0.3958  1.3588 -0.9041
14049SOL    HW247468   6.640  10.880   6.018 -2.3737 -0.6419  2.2740
14050SOL     OW47469   1.980   9.492   8.469  0.5212 -0.2729 -0.1896
14050SOL    HW147470   2.007   9.460   8.555  0.8092 -0.9827 -0.5314
14050SOL    HW247471   2.035   9.569   8.453 -0.2328  0.4689  0.6811
14051SOL     OW47472   6.699   6.694   5.410 -0.2086  0.0232 -0.4769
14051SOL    HW147473   6.772   6.633   5.402  0.1552  0.6152 -1.9387
14051SOL    HW247474   6.621   6.639   5.406  0.1208 -0.5589  0.5919
14052SOL     OW47475   2.558  10.673   3.144  0.1029  0.0500  0.2445
14052SOL    HW147476   2.503  10.747   3.116 -1.7511 -2.0238 -2.1215
14052SOL    HW247477   2.521  10.647   3.228 -0.8964  0.3244 -0.0830
14053SOL     OW47478   5.347   9.138   2.139 -0.7086 -0.3898  0.2978
14053SOL    HW147479   5.427   9.107   2.097 -0.3298  1.2511 -0.2871
14053SOL    HW247480   5.377   9.180   2.220 -0.5328  2.7890 -1.2620
14054SOL     OW47481   4.367   3.686   6.390  0.5173 -0.4528 -0.2472
14054SOL    HW147482   4.356   3.673   6.484 -2.1332  0.2657 -0.3621
14054SOL    HW247483   4.321   3.769   6.373  2.6897  0.4934 -1.8978
14055SOL     OW47484   9.371   4.203  11.021  0.0230  0.0737  0.0018
14055SOL    HW147485   9.283   4.164  11.017 -0.1250  0.3315  0.6976
14055SOL    HW247486   9.398   4.193  11.112  0.4010  0.6903 -0.0392
14056SOL     OW47487   2.373   8.462   4.895 -0.6720 -0.2112  0.1753
14056SOL    HW147488   2.433   8.536   4.897 -0.6565 -0.2282  0.3491
14056SOL    HW247489   2.295   8.493   4.941 -0.1951 -0.7101  1.3634
14057SOL     OW47490   1.051   2.256   6.775 -0.2444 -0.3647  0.2371
14057SOL    HW147491   1.080   2.327   6.717 -1.8680  0.4750  0.3847
14057SOL    HW247492   1.121   2.191   6.770  0.7969  0.7713 -0.7445
14058SOL     OW47493   4.257  10.002   1.870 -0.0618 -0.3975  0.0768
14058SOL    HW147494   4.313  10.062   1.821 -0.0367 -0.5262 -0.0512
14058SOL    HW247495   4.301   9.917   1.864 -1.5167 -1.0724 -2.1405
14059SOL     OW47496   7.620   7.836   8.899  0.0637 -0.2120 -0.4642
14059SOL    HW147497   7.676   7.774   8.852  0.3439  0.1091 -0.5542
14059SOL    HW247498   7.598   7.790   8.980 -0.6347 -0.8717 -1.0103
14060SOL     OW47499   1.693   3.268   5.341  0.1703  0.0373  0.2455
14060SOL    HW147500   1.623   3.256   5.406  0.1189  1.5384  0.4909
14060SOL    HW247501   1.765   3.215   5.373 -0.1557  0.0805  1.0710
14061SOL     OW47502   9.078   5.536   6.395  0.0028  0.2121 -0.1929
14061SOL    HW147503   9.104   5.618   6.437  0.4263  0.1697 -0.3668
14061SOL    HW247504   9.073   5.473   6.467 -0.7972  0.4985  0.0089
14062SOL     OW47505  10.404  10.907   0.386 -0.2854  0.0393 -0.6372
14062SOL    HW147506  10.426  10.878   0.297  1.1291  0.6190 -0.4968
14062SOL    HW247507  10.488  10.912   0.432 -1.1277 -1.8124  1.2481
14063SOL     OW47508   1.411   5.755  11.322 -0.1368 -0.2057 -0.7979
14063SOL    HW147509   1.412   5.808  11.242  0.8923 -2.0401 -2.1081
14063SOL    HW247510   1.320   5.728  11.333 -0.2516 -0.1312 -1.5214
14064SOL     OW47511   6.234  10.673   4.652  0.1348 -0.0728  0.7529
14064SOL    HW147512   6.189  10.596   4.685  1.2890 -0.4524  1.4746
14064SOL    HW247513   6.179  10.747   4.681 -0.6992 -0.5734  0.4924
14065SOL     OW47514   2.183   1.587   2.747  0.4023 -0.1836  0.4298
14065SOL    HW147515   2.144   1.533   2.816  0.6981  0.9448  1.5032
14065SOL    HW247516   2.273   1.557   2.741  0.7318  0.5376  1.4332
14066SOL     OW47517   3.588   4.608   9.475  0.4809  0.2843 -0.2960
14066SOL    HW147518   3.641   4.618   9.555  2.0375  0.4361 -1.2956
14066SOL    HW247519   3.553   4.696   9.459  0.3947  0.3179  0.0784
14067SOL     OW47520   8.683   4.932   5.070 -0.3053  0.4103 -0.1073
14067SOL    HW147521   8.715   5.022   5.056  0.8028  0.0087 -0.2422
14067SOL    HW247522   8.762   4.878   5.066 -1.0664 -0.6751 -0.8905
14068SOL     OW47523   3.214   6.548  11.462  0.1564 -0.7200  0.1804
14068SOL    HW147524   3.300   6.511  11.444 -0.1838 -2.3228  1.5897
14068SOL    HW247525   3.215   6.569  11.555  0.4240  3.2953 -0.5862
14069SOL     OW47526   6.047   2.390   4.465  0.5270 -0.2871 -0.8852
14069SOL    HW147527   6.057   2.454   4.535 -1.2480  0.6065 -1.3937
14069SOL    HW247528   5.952   2.378   4.456  0.7357 -4.2101  0.2185
14070SOL     OW47529   9.594   5.915   7.153 -0.2112 -0.3259 -0.0078
14070SOL    HW147530   9.525   5.941   7.215  0.6075  2.2017 -0.0499
14070SOL    HW247531   9.674   5.954   7.189  0.2802  1.3314 -2.6799
14071SOL     OW47532   4.747   5.064  10.560 -0.0294 -0.2397  0.1839
14071SOL    HW147533   4.732   5.156  10.579 -0.6424 -0.2607 -0.1764
14071SOL    HW247534   4.838   5.048  10.586  0.5153  0.7969 -1.0022
14072SOL     OW47535   4.998   9.565   5.910  0.3899 -0.3949  0.2560
14072SOL    HW147536   4.946   9.623   5.855  1.1570  2.4582  2.3443
14072SOL    HW247537   4.935   9.523   5.968  0.0713  0.3393  0.4420
14073SOL     OW47538   3.272   5.793   6.498  0.2961 -0.1010  0.2290
14073SOL    HW147539   3.263   5.699   6.485 -0.0699  0.0774 -0.9337
14073SOL    HW247540   3.182   5.826   6.497  0.3634  0.1926  1.3870
14074SOL     OW47541   8.863   8.789   0.603  0.3225  0.2879  0.0312
14074SOL    HW147542   8.905   8.873   0.586 -0.9755  1.0782  0.5004
14074SOL    HW247543   8.927   8.724   0.576  0.2585  1.3939 -3.1796
14075SOL     OW47544   7.209   9.510   2.301 -0.2384 -0.8480 -0.6888
14075SOL    HW147545   7.113   9.509   2.299 -0.2502  0.1021 -1.0584
14075SOL    HW247546   7.235   9.524   2.210  0.1642  1.7296 -0.2637
14076SOL     OW47547   4.979   1.386   2.667 -0.7371  0.6343  0.1814
14076SOL    HW147548   5.003   1.429   2.749  1.6761  1.5617 -0.9166
14076SOL    HW247549   5.011   1.297   2.676 -2.2866  0.1128  0.9620
14077SOL     OW47550   6.559   4.146   7.647  0.0319  0.0656  0.0071
14077SOL    HW147551   6.596   4.081   7.588  0.7815 -0.6089  1.1856
14077SOL    HW247552   6.635   4.185   7.691 -0.5650 -0.3671  1.4661
14078SOL     OW47553   5.111   4.842   4.589  0.2070 -0.0870  0.7659
14078SOL    HW147554   5.131   4.911   4.652  0.0122  0.2036  0.5161
14078SOL    HW247555   5.187   4.785   4.591 -0.1601 -0.5554  1.8860
14079SOL     OW47556   8.517   4.861   9.316  0.1250 -0.2302  0.0464
14079SOL    HW147557   8.610   4.882   9.305 -0.1979  1.1724 -0.2340
14079SOL    HW247558   8.471   4.934   9.274 -1.1066 -0.8284  0.3078
14080SOL     OW47559   8.917   8.671   3.341  0.2430  0.5027  0.2333
14080SOL    HW147560   8.949   8.584   3.318  1.0129  0.8938 -0.2226
14080SOL    HW247561   8.988   8.710   3.392  0.2327  1.1423 -0.2234
14081SOL     OW47562   3.899   4.911   0.184 -0.4024  0.6860  0.3809
14081SOL    HW147563   3.812   4.902   0.143 -0.2102  0.6953 -0.0380
14081SOL    HW247564   3.881   4.916   0.277 -0.7030 -1.4265  0.4759
14082SOL     OW47565   2.241   1.944   4.375  0.1957 -1.1244  0.7275
14082SOL    HW147566   2.211   1.856   4.349 -1.6403 -0.1397 -0.7654
14082SOL    HW247567   2.198   1.959   4.459 -1.1760 -0.9004  0.0159
14083SOL     OW47568   4.448   4.640   9.182 -0.2423 -0.3108 -0.0801
14083SOL    HW147569   4.534   4.676   9.161 -0.4672 -1.0648 -2.5816
14083SOL    HW247570   4.438   4.565   9.123 -1.7434 -1.5992  1.6538
14084SOL     OW47571   0.116   5.460  10.923  0.2060 -0.3048 -0.1927
14084SOL    HW147572   0.079   5.496  10.842  1.0702  0.3309 -0.3102
14084SOL    HW247573   0.041   5.455  10.982 -0.0083  1.5638 -0.2230
14085SOL     OW47574   6.076   9.231   7.106  0.4061 -0.3717  0.3778
14085SOL    HW147575   6.076   9.143   7.144  0.6677 -0.6094 -0.1656
14085SOL    HW247576   5.983   9.252   7.096  0.3355 -0.3717  0.9941
14086SOL     OW47577   0.663   9.163   1.717 -0.5396  0.3313 -0.1277
14086SOL    HW147578   0.571   9.166   1.691 -0.7153  1.0616  0.5460
14086SOL    HW247579   0.711   9.193   1.640 -0.9542  1.1031 -0.0985
14087SOL     OW47580   6.830   2.682   1.484  0.8415 -0.5508 -0.1208
14087SOL    HW147581   6.753   2.670   1.539  1.7448 -0.4792  1.2181
14087SOL    HW247582   6.874   2.597   1.485  1.4261 -0.2504  0.1611
14088SOL     OW47583   1.815   8.136   1.028  0.0668 -0.6337 -0.7047
14088SOL    HW147584   1.832   8.139   1.122  1.1849  1.9395 -0.8832
14088SOL    HW247585   1.895   8.098   0.991  0.8953  1.0588 -0.7577
14089SOL     OW47586  10.626   9.674   9.734  0.4578  0.4067 -0.2232
14089SOL    HW147587  10.698   9.721   9.692  0.4037  0.0499 -0.7167
14089SOL    HW247588  10.649   9.582   9.726 -0.3328  0.2549 -0.9133
14090SOL     OW47589  10.601  11.483   7.967  0.2220  0.1324  0.1678
14090SOL    HW147590  10.614  11.562   7.915 -0.8364  0.8140  0.9023
14090SOL    HW247591  10.621  11.411   7.907  0.9353  0.9433 -0.5909
14091SOL     OW47592   5.106   8.554   9.812  0.5062 -1.0053  0.0059
14091SOL    HW147593   5.103   8.458   9.821 -3.4503 -1.0120  0.1334
14091SOL    HW247594   5.108   8.586   9.902  1.5165 -0.9343 -0.0324
14092SOL     OW47595   9.241   3.975   3.461  0.3277  0.3008  0.0169
14092SOL    HW147596   9.278   3.904   3.513 -0.7488 -0.3940 -0.1332
14092SOL    HW247597   9.234   3.939   3.372 -2.2222 -0.2094  0.3665
14093SOL     OW47598   3.866   0.364  10.023 -0.2028  0.3448  1.1171
14093SOL    HW147599   3.945   0.323  10.059 -0.2354 -0.3798  0.3920
14093SOL    HW247600   3.839   0.306   9.952 -0.1622  1.7108 -0.0655
14094SOL     OW47601   9.433   2.505   0.391 -0.0957 -0.0747 -0.1516
14094SOL    HW147602   9.411   2.455   0.470 -3.6823 -0.6176 -1.2825
14094SOL    HW247603   9.466   2.439   0.330 -1.9177 -0.6323 -0.6150
14095SOL     OW47604   0.144   0.238   5.516  0.0836 -1.1838 -0.2649
14095SOL    HW147605   0.108   0.252   5.603 -0.8141  1.1408 -0.9364
14095SOL    HW247606   0.072   0.198   5.466  0.0034 -0.8933 -0.3845
14096SOL     OW47607   4.275   8.218   3.562 -0.3418  0.4905 -0.1336
14096SOL    HW147608   4.187   8.250   3.582 -0.2313  0.0686  1.1313
14096SOL    HW247609   4.311   8.193   3.647  0.0005 -1.8754 -0.9180
14097SOL     OW47610   2.385   0.869   7.563 -0.0297 -0.5336  0.4931
14097SOL    HW147611   2.362   0.844   7.652  1.7137 -1.4295  0.7450
14097SOL    HW247612   2.481   0.862   7.560 -0.0483 -0.6008 -1.4687
14098SOL     OW47613   8.213  10.697   3.682 -0.3983 -0.3302 -0.2712
14098SOL    HW147614   8.136  10.738   3.722 -0.0565 -0.9191  1.0310
14098SOL    HW247615   8.282  10.764   3.689 -0.4163 -0.3233 -0.1732
14099SOL     OW47616   9.370   8.710   9.849  0.2640 -0.4634  0.4266
14099SOL    HW147617   9.378   8.650   9.923  0.0278  0.0474  0.8743
14099SOL    HW247618   9.455   8.754   9.843  0.0952 -0.0862  0.7651
14100SOL     OW47619  11.806  10.129   8.643 -0.5538  0.5536 -0.2224
14100SOL    HW147620  11.723  10.087   8.663 -0.1140  0.3836  1.3886
14100SOL    HW247621  11.791  10.222   8.660 -0.5631  0.5912 -0.4368
14101SOL     OW47622   0.021   9.083   2.678  0.0825  0.3808 -0.2855
14101SOL    HW147623   0.038   9.134   2.599  0.4374 -0.4157 -0.7313
14101SOL    HW247624   0.102   9.035   2.693 -0.3186 -0.2136  0.0070
14102SOL     OW47625   3.199   2.156   0.068  0.2043  0.1492  0.1098
14102SOL    HW147626   3.152   2.074   0.053 -2.4101  1.6377 -0.4523
14102SOL    HW247627   3.264   2.135   0.135 -0.7862 -2.2247  0.4050
14103SOL     OW47628   0.574   2.130   8.982  0.2439  0.1022 -0.1453
14103SOL    HW147629   0.480   2.123   8.999  0.1898  1.1690  0.0527
14103SOL    HW247630   0.606   2.040   8.988 -0.5526 -0.1270  1.0559
14104SOL     OW47631   8.712   8.753  10.759  0.0334  0.1992 -0.3788
14104SOL    HW147632   8.710   8.664  10.795 -0.6757  0.0754 -0.7164
14104SOL    HW247633   8.802   8.763  10.727  0.6620  0.2635  1.2777
14105SOL     OW47634   6.989   8.263   1.375 -0.3003  0.0082  0.2040
14105SOL    HW147635   6.953   8.240   1.460  1.0967 -2.2214  0.3057
14105SOL    HW247636   7.065   8.318   1.394 -2.3431  3.0931  0.0830
14106SOL     OW47637   8.414  10.300   7.373  0.0141  0.1900 -0.0522
14106SOL    HW147638   8.445  10.283   7.462 -0.1867  3.8154  0.8397
14106SOL    HW247639   8.445  10.224   7.322  0.7251 -1.6702  2.9070
14107SOL     OW47640   3.144   2.521   4.719  0.2325  0.0125  0.3269
14107SOL    HW147641   3.187   2.606   4.707 -1.3076  0.8778  0.5584
14107SOL    HW247642   3.052   2.544   4.736 -0.1409 -1.6969  0.7721
14108SOL     OW47643  10.574   5.736   1.754  0.2901 -0.0506 -0.3007
14108SOL    HW147644  10.505   5.689   1.800  0.9251 -0.0978  0.6370
14108SOL    HW247645  10.628   5.774   1.823  1.5836 -0.5694 -0.9872
14109SOL     OW47646   0.597  10.495   8.314 -0.7865 -0.4724  0.6431
14109SOL    HW147647   0.552  10.572   8.349 -0.0057 -0.0433  0.7372
14109SOL    HW247648   0.591  10.505   8.219 -2.8807 -1.6199  0.5902
14110SOL     OW47649   9.049   5.261   7.820 -0.4051 -0.2513 -0.1246
14110SOL    HW147650   8.996   5.276   7.742 -1.7997  0.5811  0.9177
14110SOL    HW247651   9.081   5.172   7.812 -0.4175 -0.1351 -1.6924
14111SOL     OW47652   0.876   5.386   3.362 -0.3726  0.1373  0.1773
14111SOL    HW147653   0.866   5.479   3.383  0.4718  0.4224 -0.6044
14111SOL    HW247654   0.913   5.348   3.442  1.9154  1.0234 -0.3772
14112SOL     OW47655   0.174   8.264   8.035 -0.9663  0.0916  0.4899
14112SOL    HW147656   0.184   8.355   8.007 -1.2822  0.4134  1.3740
14112SOL    HW247657   0.208   8.213   7.962  2.1427  0.9605  1.1906
14113SOL     OW47658   4.821   3.447   8.422 -0.5949  0.5562  0.1107
14113SOL    HW147659   4.850   3.448   8.331 -1.7215  0.7652 -0.2693
14113SOL    HW247660   4.736   3.403   8.418 -0.8336  0.9310  1.0008
14114SOL     OW47661   0.950   6.394   8.318 -0.4385 -0.0511 -0.4510
14114SOL    HW147662   1.008   6.401   8.242  0.6801 -2.9577 -0.0005
14114SOL    HW247663   0.862   6.402   8.282  0.1348  1.1361 -1.6542
14115SOL     OW47664   9.278  11.186   3.329  0.2909 -0.0348 -0.6789
14115SOL    HW147665   9.245  11.109   3.375  2.9824  0.5062  2.4768
14115SOL    HW247666   9.245  11.260   3.379  1.3470  0.7042 -1.0445
14116SOL     OW47667   3.679   8.735  10.689 -0.2168 -0.0557 -0.0512
14116SOL    HW147668   3.756   8.728  10.746  0.4082 -2.1422 -1.0297
14116SOL    HW247669   3.636   8.650  10.697 -2.0284  0.8146 -0.1201
14117SOL     OW47670   2.565   8.592  10.741 -0.0324  0.2905  0.3321
14117SOL    HW147671   2.536   8.683  10.736  1.1426  0.7058  0.8838
14117SOL    HW247672   2.633   8.592  10.808 -0.7491 -1.1944  1.1073
14118SOL     OW47673   6.130   7.273   2.051  0.3496 -0.2959  0.1846
14118SOL    HW147674   6.084   7.285   2.135 -1.1518  2.0372 -0.8553
14118SOL    HW247675   6.147   7.180   2.046  0.2260 -0.5525  2.9646
14119SOL     OW47676   3.286  10.321   5.301 -0.1002 -0.3942  0.2254
14119SOL    HW147677   3.319  10.253   5.242 -0.5691 -0.8662  0.5027
14119SOL    HW247678   3.236  10.273   5.367  0.9605  0.0629  1.3974
14120SOL     OW47679   2.833   5.936   4.184  0.3072  0.0918 -0.1973
14120SOL    HW147680   2.854   6.029   4.194  1.1287 -0.1681  0.5820
14120SOL    HW247681   2.784   5.914   4.264 -0.7277  0.0757 -0.8210
14121SOL     OW47682   8.285   8.803   9.447  0.3884  0.2737 -0.2194
14121SOL    HW147683   8.365   8.778   9.401  0.1798  0.1643 -0.5280
14121SOL    HW247684   8.314   8.826   9.535  0.6061 -0.9632  0.0584
14122SOL     OW47685   5.065   7.484   3.068 -0.0899 -0.1985 -0.2455
14122SOL    HW147686   5.073   7.392   3.042  1.2396  0.0210 -0.6756
14122SOL    HW247687   4.996   7.519   3.012 -0.9652 -1.0513  0.2730
14123SOL     OW47688   7.371   5.324   5.742  0.1271 -0.5527  0.1191
14123SOL    HW147689   7.386   5.231   5.723  0.8920 -0.2198 -0.9802
14123SOL    HW247690   7.443   5.369   5.698  0.1558  0.5231  1.2147
14124SOL     OW47691   6.403   7.450   3.956  0.4345  0.0648 -0.4070
14124SOL    HW147692   6.396   7.431   4.049 -2.9529  0.5631 -0.4422
14124SOL    HW247693   6.379   7.368   3.913 -1.5359  0.7649 -0.7289
14125SOL     OW47694   1.192   2.857   4.288 -0.3578  0.1094  0.1192
14125SOL    HW147695   1.129   2.786   4.275 -1.3091  0.6008  1.7131
14125SOL    HW247696   1.277   2.814   4.282 -0.8408 -0.7591 -1.0687
14126SOL     OW47697   1.130   8.786  10.064 -0.1883  0.2676  0.0491
14126SOL    HW147698   1.182   8.772  10.143  1.0004  0.9221 -0.5907
14126SOL    HW247699   1.150   8.711  10.008  0.4571  0.7553 -0.3894
14127SOL     OW47700   1.486   2.578   1.485  0.2902 -0.4104 -0.2821
14127SOL    HW147701   1.461   2.505   1.428  1.4172  0.4671 -1.9676
14127SOL    HW247702   1.530   2.536   1.559  2.4385 -1.4574 -2.0175
14128SOL     OW47703   4.862   5.958   4.259 -0.0884 -0.3810 -0.0567
14128SOL    HW147704   4.816   5.878   4.230  0.8966 -0.8684 -0.2974
14128SOL    HW247705   4.880   6.005   4.179 -0.0431 -0.2517  0.0298
14129SOL     OW47706   7.111   0.264   6.334  0.2897 -0.3770  0.4053
14129SOL    HW147707   7.104   0.351   6.374 -1.9625  0.3423 -1.2859
14129SOL    HW247708   7.070   0.275   6.248  1.6279 -2.7038 -0.5983
14130SOL     OW47709   7.804   7.807   2.081  0.2219 -0.3441 -0.3117
14130SOL    HW147710   7.774   7.716   2.078 -2.0045  0.3597 -1.2812
14130SOL    HW247711   7.789   7.834   2.172 -0.6301 -0.4885 -0.4029
14131SOL     OW47712   7.459   0.988   1.607  0.1455 -0.3403 -0.1376
14131SOL    HW147713   7.398   0.914   1.608  0.4936 -0.6833  2.0605
14131SOL    HW247714   7.431   1.043   1.680  1.4104  0.3722 -0.1612
14132SOL     OW47715   3.596   4.159   2.764 -0.4690  0.6750  0.3377
14132SOL    HW147716   3.682   4.118   2.762 -1.7334 -2.3099  0.9852
14132SOL    HW247717   3.587   4.191   2.854  0.0250  1.1273  0.2258
14133SOL     OW47718   8.264   4.865   5.501 -0.0630 -0.0577  0.2311
14133SOL    HW147719   8.284   4.784   5.455  0.3025  0.9049 -1.3678
14133SOL    HW247720   8.170   4.860   5.518 -0.0003 -0.9072  0.3745
14134SOL     OW47721   0.542   1.455   9.007  0.0440 -0.8531  0.0009
14134SOL    HW147722   0.491   1.530   9.038 -0.0222 -0.2569 -1.4389
14134SOL    HW247723   0.530   1.388   9.074 -1.8645 -0.4020  0.1768
14135SOL     OW47724   3.741   5.809   7.451 -0.1867 -0.1335 -0.5607
14135SOL    HW147725   3.693   5.844   7.375 -1.2530 -0.6510 -0.1471
14135SOL    HW247726   3.822   5.860   7.454 -0.3929  0.2878 -1.7035
14136SOL     OW47727   1.487   8.557   4.844 -0.5547 -0.0261  0.1666
14136SOL    HW147728   1.568   8.574   4.892 -0.4026 -0.1263 -0.0515
14136SOL    HW247729   1.445   8.487   4.894 -0.3776 -0.1593  0.1324
14137SOL     OW47730   2.109   3.624   0.623 -0.1261 -0.0632  0.4230
14137SOL    HW147731   2.052   3.641   0.547 -1.6140  1.7555  1.8261
14137SOL    HW247732   2.147   3.710   0.643  0.8107 -0.6716  1.3028
14138SOL     OW47733   0.807   8.951   7.210 -0.5255  0.0985  0.1862
14138SOL    HW147734   0.859   8.896   7.151  0.7077  0.9214  0.4687
14138SOL    HW247735   0.823   9.040   7.181 -1.1449  0.4172  0.7914
14139SOL     OW47736  11.045  11.150   0.224 -0.3330  0.2899  0.2172
14139SOL    HW147737  11.001  11.171   0.306  1.1017  2.5708  0.5037
14139SOL    HW247738  11.104  11.224   0.209  1.9261 -1.6347 -1.1440
14140SOL     OW47739  10.487  11.726  11.263 -0.7393 -0.0866  0.1651
14140SOL    HW147740  10.416  11.664  11.275 -0.2957 -0.7414 -0.5251
14140SOL    HW247741  10.558  11.675  11.223 -0.2758  0.7970 -0.1797
14141SOL     OW47742   5.834   2.492   9.702  0.2151  0.5758  0.0015
14141SOL    HW147743   5.779   2.549   9.648 -0.5339 -0.7664 -0.7094
14141SOL    HW247744   5.794   2.497   9.789 -1.3292 -0.6532 -0.5813
14142SOL     OW47745   4.262   8.914   0.466  0.3557 -0.4144  0.7644
14142SOL    HW147746   4.268   8.985   0.402 -0.5337  0.5375  1.6878
14142SOL    HW247747   4.296   8.952   0.547 -0.3292 -0.9676  1.3288
14143SOL     OW47748   6.144   0.461   4.533 -0.0551  0.2713 -0.6252
14143SOL    HW147749   6.167   0.458   4.626 -0.3828 -0.9491 -0.5632
14143SOL    HW247750   6.066   0.517   4.529 -0.7219 -0.5795  0.0085
14144SOL     OW47751   1.763   5.193   0.800  0.1565  0.0907  0.0721
14144SOL    HW147752   1.836   5.175   0.741  0.5863 -0.2542  0.6961
14144SOL    HW247753   1.690   5.216   0.742 -0.1354 -2.6019 -0.7806
14145SOL     OW47754   2.415   5.115   7.161  0.0885 -0.4154 -0.0500
14145SOL    HW147755   2.413   5.174   7.087 -1.1226 -0.6237 -0.2033
14145SOL    HW247756   2.450   5.033   7.126 -0.6008 -0.5514 -0.4178
14146SOL     OW47757   8.918   4.222  10.728 -0.2254 -0.4165 -0.2541
14146SOL    HW147758   8.903   4.251  10.818  1.5679 -2.2244  0.7150
14146SOL    HW247759   8.981   4.284  10.692 -1.4719  0.7284 -0.5835
14147SOL     OW47760   8.673  11.095   9.170  0.4227  0.3024 -0.1847
14147SOL    HW147761   8.692  11.005   9.197 -0.5111  0.7645  2.3394
14147SOL    HW247762   8.578  11.105   9.184 -0.1000  0.8226 -3.3788
14148SOL     OW47763   8.889   1.412   4.009  0.1587  0.3042 -0.0211
14148SOL    HW147764   8.851   1.498   4.029 -1.0284  0.0687 -1.0960
14148SOL    HW247765   8.891   1.409   3.913 -2.6464 -1.9894 -0.1430
14149SOL     OW47766   0.091  10.775   4.477 -0.0344 -0.2631 -0.0069
14149SOL    HW147767   0.018  10.762   4.537  0.4023 -1.0573  0.3671
14149SOL    HW247768   0.142  10.694   4.483  0.3533 -0.1032 -0.9809
14150SOL     OW47769   9.959   0.689   8.324  0.2267 -0.1839 -0.0923
14150SOL    HW147770  10.019   0.735   8.265  0.2405  0.9676  0.7739
14150SOL    HW247771   9.954   0.746   8.401 -1.5109 -0.5581  0.1077
14151SOL     OW47772   7.981   4.831   9.203 -0.2490  0.4349 -0.4579
14151SOL    HW147773   8.038   4.754   9.206 -1.4007 -0.4957  2.6467
14151SOL    HW247774   8.019   4.887   9.136  3.0171 -1.0520 -0.0577
14152SOL     OW47775   9.535   1.857   2.639 -0.5721  0.1266 -0.3787
14152SOL    HW147776   9.457   1.876   2.587  0.8304  2.2255 -1.8652
14152SOL    HW247777   9.570   1.777   2.600 -0.3007  0.9078 -1.8151
14153SOL     OW47778   1.352   3.351   4.807 -0.1658  0.3099  0.1116
14153SOL    HW147779   1.425   3.289   4.817  0.8819  1.1545 -1.7086
14153SOL    HW247780   1.275   3.302   4.835  0.8771 -1.1948  0.4931
14154SOL     OW47781   9.677  10.708   3.987  0.1528 -0.7106  0.3129
14154SOL    HW147782   9.652  10.718   4.079 -1.5927  0.1550 -0.2201
14154SOL    HW247783   9.640  10.624   3.960  1.3331 -1.3419  0.5749
14155SOL     OW47784  11.001   9.230   9.858  0.0564  0.0912  0.4426
14155SOL    HW147785  10.907   9.233   9.839 -0.1804 -0.5993  1.4176
14155SOL    HW247786  11.040   9.190   9.781 -0.6209 -0.8315  0.5599
14156SOL     OW47787  10.084  11.446   9.668 -0.5643  0.3153 -0.0603
14156SOL    HW147788  10.036  11.529   9.672  0.0548  0.6467  1.2054
14156SOL    HW247789  10.162  11.466   9.616 -1.4469 -0.0656 -1.5981
14157SOL     OW47790   6.943   7.646   1.540 -0.0346 -0.5743 -0.2540
14157SOL    HW147791   7.011   7.688   1.488  0.1547  0.6489  0.9251
14157SOL    HW247792   6.990   7.604   1.612 -0.3354 -1.7543 -0.7310
14158SOL     OW47793   6.334   6.919   7.347  0.0003  0.3692  0.8245
14158SOL    HW147794   6.299   6.982   7.410 -0.8003 -0.4205  1.1841
14158SOL    HW247795   6.363   6.973   7.274  0.3630  1.2476  1.5937
14159SOL     OW47796   9.623   3.288   9.314 -0.0568  0.0268 -0.0812
14159SOL    HW147797   9.547   3.230   9.308 -0.2066  0.1091  0.9027
14159SOL    HW247798   9.695   3.230   9.341 -0.0169  0.1460  0.0667
14160SOL     OW47799   8.112   7.304   1.870 -0.3420  0.2061  0.0951
14160SOL    HW147800   8.021   7.326   1.887 -0.3347  0.4954 -0.2341
14160SOL    HW247801   8.148   7.382   1.828  0.1972  0.3008  0.7123
14161SOL     OW47802   6.941   6.445   1.283 -0.1168  0.5100  0.6677
14161SOL    HW147803   6.919   6.535   1.307 -1.6409 -0.0179  1.4146
14161SOL    HW247804   6.876   6.392   1.330  0.2665 -0.9273 -0.3725
14162SOL     OW47805   2.969   4.810   6.630  0.3742  0.0404 -0.2851
14162SOL    HW147806   2.901   4.822   6.564  0.8508 -0.7827 -0.9467
14162SOL    HW247807   2.962   4.718   6.655  1.1723 -0.0308 -0.2966
14163SOL     OW47808   2.489  11.248  11.587 -0.3168  0.2697 -0.1234
14163SOL    HW147809   2.394  11.239  11.587 -0.3153 -0.0401 -1.4456
14163SOL    HW247810   2.513  11.240  11.494  1.1334 -1.2008  0.3380
14164SOL     OW47811   1.258  11.008   6.437 -0.2562  0.1077  0.4171
14164SOL    HW147812   1.319  11.031   6.507  1.1171 -1.0838 -0.3341
14164SOL    HW247813   1.308  10.950   6.380 -1.1039  1.5488 -1.9413
14165SOL     OW47814   8.536   5.316   7.565  0.2800 -0.0957 -0.0822
14165SOL    HW147815   8.540   5.226   7.599  1.8283  0.2688  0.7557
14165SOL    HW247816   8.590   5.367   7.625 -1.1785  1.5648 -0.1173
14166SOL     OW47817   2.528   9.306   5.665  0.1097 -0.3007  0.7736
14166SOL    HW147818   2.568   9.280   5.748 -1.3710 -1.4210  1.1784
14166SOL    HW247819   2.586   9.373   5.630  2.2072 -1.7120  1.4103
14167SOL     OW47820   4.079   7.589   7.304 -0.2037  0.5782 -0.3043
14167SOL    HW147821   4.156   7.638   7.336 -0.9988  2.3730 -0.9991
14167SOL    HW247822   4.075   7.512   7.361 -0.4891  2.6719  2.7703
14168SOL     OW47823   3.920   9.926   0.411 -0.4113  0.1543  0.2774
14168SOL    HW147824   3.853   9.937   0.478 -3.0642 -1.4679 -1.8969
14168SOL    HW247825   3.928  10.012   0.371 -0.1553  0.6855  1.4136
14169SOL     OW47826   5.460   6.583   0.122 -0.2455  0.4924 -0.5618
14169SOL    HW147827   5.403   6.654   0.093 -0.1551 -0.3270 -3.0491
14169SOL    HW247828   5.504   6.617   0.199 -2.3638  2.0128  0.0698
14170SOL     OW47829   7.423   6.279   5.472  0.4103  0.6691  0.0247
14170SOL    HW147830   7.357   6.344   5.493 -2.8326 -2.4931  0.5837
14170SOL    HW247831   7.389   6.234   5.394  2.7197 -0.1503 -0.6067
14171SOL     OW47832   3.701   5.828   9.506 -0.2457 -0.6279  0.0679
14171SOL    HW147833   3.605   5.826   9.507 -0.3555  1.7575  0.5935
14171SOL    HW247834   3.725   5.791   9.421 -1.7396  0.4631 -0.8842
14172SOL     OW47835   8.504   4.630   5.419 -0.2669 -0.0989  0.1112
14172SOL    HW147836   8.418   4.590   5.410 -0.5774  0.3761  0.9001
14172SOL    HW247837   8.496   4.714   5.373 -0.5868  0.4680  1.1866
14173SOL     OW47838   8.400   3.037   8.488  0.0786  0.0836 -0.5794
14173SOL    HW147839   8.355   3.064   8.569  0.8955 -0.1347 -0.0349
14173SOL    HW247840   8.480   3.091   8.487 -0.1593  0.4270 -1.4967
14174SOL     OW47841  11.508   7.505   9.807  0.0694  0.6368  0.6608
14174SOL    HW147842  11.499   7.428   9.751  1.7836  1.3442 -0.7024
14174SOL    HW247843  11.437   7.563   9.781 -0.3888  0.0981  0.7034
14175SOL     OW47844   8.484   5.975  11.402 -0.0892 -0.3958  0.1268
14175SOL    HW147845   8.429   5.898  11.418 -1.3862  0.2593 -0.9588
14175SOL    HW247846   8.555   5.966  11.465 -1.1092 -1.6065  1.1929
14176SOL     OW47847   9.784   8.537   8.248  0.1667 -0.0785 -0.3660
14176SOL    HW147848   9.721   8.508   8.182 -0.7165  0.0746  0.3930
14176SOL    HW247849   9.797   8.630   8.230 -1.2547  0.3249  0.6093
14177SOL     OW47850   3.721   8.684   3.919  0.2314 -0.2115 -0.4148
14177SOL    HW147851   3.722   8.611   3.858  1.3375 -0.9501  0.4591
14177SOL    HW247852   3.671   8.653   3.994 -1.3970  0.8021 -1.0324
14178SOL     OW47853   7.566  11.103   3.942 -0.4366 -0.1079  0.1582
14178SOL    HW147854   7.498  11.070   4.001 -0.1036 -0.1897  0.4976
14178SOL    HW247855   7.646  11.058   3.969 -0.4029 -0.6401 -0.7822
14179SOL     OW47856   2.304   3.607   9.164 -0.2881 -0.0467  0.4392
14179SOL    HW147857   2.347   3.639   9.085  0.8382 -1.5543  0.3754
14179SOL    HW247858   2.351   3.526   9.185 -3.9403 -2.6642 -0.4232
14180SOL     OW47859  10.635   1.297   2.796 -0.0345 -0.2071 -0.4135
14180SOL    HW147860  10.697   1.334   2.734  0.0124 -0.7679 -0.7091
14180SOL    HW247861  10.589   1.372   2.833  1.1667  0.2502  0.1922
14181SOL     OW47862   0.807   1.411   8.274  0.7226 -0.1875  0.1827
14181SOL    HW147863   0.720   1.435   8.306  1.2375  1.8041  0.2086
14181SOL    HW247864   0.866   1.431   8.347  1.5660  1.6832 -0.9428
14182SOL     OW47865   8.676   9.047   1.409  0.0979  0.1875 -0.6445
14182SOL    HW147866   8.610   9.115   1.424 -0.8354 -0.8732  0.3059
14182SOL    HW247867   8.673   9.031   1.314 -0.6311  0.5526 -0.6937
14183SOL     OW47868   3.364  11.256  10.247  0.0668 -0.0607 -0.5087
14183SOL    HW147869   3.321  11.329  10.291  0.8866  0.2333 -0.1719
14183SOL    HW247870   3.293  11.197  10.223 -0.5601  0.6260 -0.3676
14184SOL     OW47871   1.317   1.534  11.689 -0.4239 -0.1205 -0.0855
14184SOL    HW147872   1.327   1.581  11.606 -0.5516  0.0698  0.0076
14184SOL    HW247873   1.223   1.533  11.705 -0.3527  0.4146  0.3868
14185SOL     OW47874  11.476   8.169   2.448  0.0033 -0.6509  0.3712
14185SOL    HW147875  11.489   8.113   2.371  0.2279  1.0079 -0.8699
14185SOL    HW247876  11.563   8.202   2.469 -0.1364 -0.6911  1.0288
14186SOL     OW47877   6.992   4.220   1.053  0.3496 -0.5828  0.3048
14186SOL    HW147878   6.984   4.290   1.118  0.4263 -0.6000  0.3326
14186SOL    HW247879   7.004   4.140   1.104  0.7094 -0.5580  0.2639
14187SOL     OW47880   7.415   2.203   1.227 -0.0355  0.0720  0.8170
14187SOL    HW147881   7.505   2.171   1.228 -0.0797 -0.1484 -0.5537
14187SOL    HW247882   7.387   2.199   1.319  1.1781 -0.3142  1.1882
14188SOL     OW47883  11.336   1.505   2.116 -0.0989  0.4002  0.1118
14188SOL    HW147884  11.428   1.529   2.111 -0.4008  1.3962 -1.1050
14188SOL    HW247885  11.289   1.588   2.104 -1.1524 -0.2573 -0.4530
14189SOL     OW47886   4.002   6.373   4.711 -0.1905  0.0294  0.1186
14189SOL    HW147887   4.037   6.459   4.690  0.6471  0.3044  2.3754
14189SOL    HW247888   3.922   6.366   4.659  0.3153  1.6732 -0.9589
14190SOL     OW47889   2.061   0.513   7.351 -0.3839  0.0944  0.1310
14190SOL    HW147890   2.045   0.492   7.443 -1.0489  0.7578  0.1811
14190SOL    HW247891   2.104   0.599   7.353  0.0581 -0.1171 -0.1560
14191SOL     OW47892   6.146   9.687   1.424 -0.0653  0.5200 -0.3991
14191SOL    HW147893   6.135   9.676   1.518 -1.0925 -0.7773 -0.6339
14191SOL    HW247894   6.133   9.599   1.388 -0.8256  1.1752 -1.8316
14192SOL     OW47895   3.427   8.228   5.304  0.2335 -0.0840 -0.8201
14192SOL    HW147896   3.384   8.256   5.223 -1.4277 -0.8402 -0.2423
14192SOL    HW247897   3.418   8.132   5.304  0.0248 -0.0769  0.3500
14193SOL     OW47898   4.666   4.585   9.796  1.0440 -0.1508 -0.3319
14193SOL    HW147899   4.627   4.525   9.860  0.4768  1.0335  0.4798
14193SOL    HW247900   4.726   4.639   9.848 -0.2399  1.5660 -0.5416
14194SOL     OW47901   2.884   9.306   3.829  0.4536  0.2503 -0.1896
14194SOL    HW147902   2.873   9.211   3.823 -1.6851  0.4295 -0.1346
14194SOL    HW247903   2.807   9.336   3.878  3.0008  1.7029  3.3383
14195SOL     OW47904   1.161   1.960   6.151 -0.7732  0.4788 -0.2259
14195SOL    HW147905   1.198   1.980   6.237 -1.2391  0.2832  0.0209
14195SOL    HW247906   1.075   2.002   6.151 -1.3694 -0.6965 -0.0576
14196SOL     OW47907  10.420   4.750   1.809  0.0092  0.2470 -0.0962
14196SOL    HW147908  10.434   4.817   1.876 -1.6272  3.5391 -2.6820
14196SOL    HW247909  10.442   4.794   1.727 -0.7024 -2.6226 -1.9756
14197SOL     OW47910   0.236   7.979  10.142 -0.1800 -0.3769 -0.5527
14197SOL    HW147911   0.266   7.949  10.056 -1.0691  1.7886 -1.7008
14197SOL    HW247912   0.297   8.049  10.165  0.5063 -1.4212  0.9852
14198SOL     OW47913  10.270   0.734   6.821 -0.3832  0.4744 -0.0983
14198SOL    HW147914  10.358   0.714   6.790  0.7421  1.0768  2.4529
14198SOL    HW247915  10.215   0.664   6.785  1.0608  0.1915 -1.8887
14199SOL     OW47916  11.451   4.158   0.765 -0.2851 -0.1086  0.3822
14199SOL    HW147917  11.434   4.072   0.727 -0.0187 -0.0656  0.1664
14199SOL    HW247918  11.381   4.214   0.730  0.5231  0.1656 -0.8284
14200SOL     OW47919   6.910   7.236   8.672  0.0185 -0.7987 -0.1378
14200SOL    HW147920   6.881   7.179   8.600 -0.7728  0.3004 -0.7090
14200SOL    HW247921   6.867   7.200   8.750 -0.5287 -0.9442 -0.5018
14201SOL     OW47922   6.465   0.976   2.710 -0.2898 -0.4002 -0.3894
14201SOL    HW147923   6.445   0.886   2.687 -3.3326 -0.1533  0.8227
14201SOL    HW247924   6.501   1.014   2.629 -1.2486 -2.0589 -1.6617
14202SOL     OW47925   4.996   4.293   1.926  0.0976  0.3321  0.4622
14202SOL    HW147926   5.037   4.208   1.942 -0.8076  0.0592  1.4078
14202SOL    HW247927   5.070   4.355   1.923  0.5755 -0.0223  2.9595
14203SOL     OW47928   2.231   8.206  10.821 -0.5757  0.0709 -0.9947
14203SOL    HW147929   2.282   8.235  10.745  0.0229  1.2321 -0.1726
14203SOL    HW247930   2.232   8.281  10.880  1.1377 -1.6462  1.3090
14204SOL     OW47931   0.938   7.586   3.013  0.2434 -0.4585  0.1331
14204SOL    HW147932   1.026   7.560   3.039  0.7098  0.3781 -0.5534
14204SOL    HW247933   0.880   7.543   3.076  1.2247  0.1091  1.4666
14205SOL     OW47934   3.576   0.353  11.632 -0.0917 -0.0357  1.0088
14205SOL    HW147935   3.540   0.330  11.546 -1.0927 -1.8196  1.8530
14205SOL    HW247936   3.644   0.418  11.613 -0.5623 -0.0908 -1.0856
14206SOL     OW47937  10.461   0.698   8.171 -0.5412  0.2049 -0.3451
14206SOL    HW147938  10.479   0.789   8.198  1.2784 -0.3004  0.3042
14206SOL    HW247939  10.453   0.650   8.254  1.6748 -0.7620 -0.6272
14207SOL     OW47940   5.640   0.852   5.439  0.2685 -0.6420  0.1157
14207SOL    HW147941   5.626   0.813   5.353 -2.6135 -0.6980  0.5064
14207SOL    HW247942   5.566   0.821   5.491  0.9936  0.7934  2.1128
14208SOL     OW47943   2.511   7.301   1.110 -0.1485  0.2865 -0.0896
14208SOL    HW147944   2.498   7.390   1.144 -0.8850  0.4231 -0.7128
14208SOL    HW247945   2.511   7.245   1.188  0.7357  0.8686  0.3449
14209SOL     OW47946   6.512   5.167  11.117  0.5223  0.6323 -0.1480
14209SOL    HW147947   6.435   5.222  11.113  1.1545  1.6541  0.9433
14209SOL    HW247948   6.560   5.198  11.194  0.6595 -1.7705  0.8206
14210SOL     OW47949  11.468   6.203   0.118 -0.0308  0.3933  0.5135
14210SOL    HW147950  11.395   6.152   0.084 -0.7889  1.7666  0.0161
14210SOL    HW247951  11.541   6.141   0.121 -0.5739 -0.3997 -1.2694
14211SOL     OW47952   3.560   6.740   9.092  0.1201 -0.0697 -0.6979
14211SOL    HW147953   3.509   6.675   9.042 -0.2161 -1.0321  0.8427
14211SOL    HW247954   3.597   6.797   9.025 -1.4333 -0.4923 -1.9772
14212SOL     OW47955   2.626  11.234   9.097 -0.1726 -0.1095 -0.0674
14212SOL    HW147956   2.535  11.210   9.078  0.0932 -1.2931  0.0938
14212SOL    HW247957   2.657  11.275   9.016 -1.0087  0.8141  0.0642
14213SOL     OW47958  11.155  11.682   6.494  0.0320  0.1940 -0.6652
14213SOL    HW147959  11.122  11.609   6.442 -0.6398  0.6998 -0.9661
14213SOL    HW247960  11.250  11.675   6.488 -0.0332  0.0023 -1.6249
14214SOL     OW47961   6.977   0.708   4.163 -0.2445  0.0246  0.3760
14214SOL    HW147962   7.022   0.630   4.196  0.3719 -0.0260 -0.5615
14214SOL    HW247963   6.898   0.674   4.123 -1.0504  0.0927  1.8260
14215SOL     OW47964   3.682   7.983   6.247  0.0041 -0.4659  0.2178
14215SOL    HW147965   3.760   8.034   6.224 -0.5362  0.1898 -0.1709
14215SOL    HW247966   3.687   7.974   6.342  0.5124 -0.3705  0.2060
14216SOL     OW47967   2.732   5.487   8.132 -0.3334  0.2093  0.6533
14216SOL    HW147968   2.812   5.506   8.083 -0.4842 -1.8129 -0.5140
14216SOL    HW247969   2.671   5.556   8.107  1.0226  1.8088  1.6022
14217SOL     OW47970   2.518  10.961   1.585 -0.0484 -0.3637 -0.0417
14217SOL    HW147971   2.446  10.950   1.523 -0.4243 -0.6749  0.4466
14217SOL    HW247972   2.479  11.004   1.661  0.2849 -0.4908  0.2078
14218SOL     OW47973   5.835   9.440   2.177  0.0545  0.4138 -0.9090
14218SOL    HW147974   5.904   9.477   2.121  0.2570  0.7569 -0.4362
14218SOL    HW247975   5.768   9.508   2.179  0.5710  0.9308  0.2331
14219SOL     OW47976   8.212   6.080   1.804  0.0092 -0.4383 -0.2802
14219SOL    HW147977   8.169   6.003   1.766 -2.8322  0.7726  0.2405
14219SOL    HW247978   8.147   6.150   1.798  1.7903  1.4649  1.0023
14220SOL     OW47979   4.551   5.992   0.344  0.2774  0.2645  0.0183
14220SOL    HW147980   4.524   6.071   0.390  0.0822  0.6356 -0.7246
14220SOL    HW247981   4.476   5.970   0.288  0.8170  0.2702 -0.7112
14221SOL     OW47982   4.367   8.692   8.834 -0.0217  0.6984  0.1651
14221SOL    HW147983   4.406   8.689   8.746  1.1970 -0.9696  0.7167
14221SOL    HW247984   4.383   8.605   8.870  0.4463  1.6757  2.4447
14222SOL     OW47985   3.208   7.682   9.507 -0.0654  0.0310 -0.1286
14222SOL    HW147986   3.196   7.729   9.589 -1.3153 -2.3745  1.1584
14222SOL    HW247987   3.127   7.698   9.458  0.9077  1.9391 -1.2450
14223SOL     OW47988   0.497   4.151   1.923  0.0240 -0.1257  0.4250
14223SOL    HW147989   0.535   4.239   1.924  0.3819 -0.2662 -0.2182
14223SOL    HW247990   0.403   4.166   1.916  0.1053  0.2127 -0.0539
14224SOL     OW47991   3.435   7.532   8.267  0.4265  0.2885 -0.5176
14224SOL    HW147992   3.375   7.491   8.329  2.0035 -0.3383  0.6508
14224SOL    HW247993   3.439   7.624   8.294  0.6223  0.1533 -0.0882
14225SOL     OW47994   5.913   5.837   4.276 -0.4733  0.1361  0.2228
14225SOL    HW147995   5.990   5.826   4.331  0.1057  0.4912 -0.4943
14225SOL    HW247996   5.948   5.866   4.192 -1.2241 -1.4723 -0.6986
14226SOL     OW47997   9.192  10.768   5.524  0.1757 -0.3902 -0.2038
14226SOL    HW147998   9.213  10.836   5.461  1.8916 -0.5197  0.1534
14226SOL    HW247999   9.260  10.776   5.591 -0.6205 -1.3170  0.7470
14227SOL     OW48000   3.214   8.338   7.817  0.9706  0.3058 -0.1353
14227SOL    HW148001   3.237   8.326   7.724  1.4259 -0.8332  0.1138
14227SOL    HW248002   3.239   8.429   7.835  1.7865  0.2466 -0.8759
14228SOL     OW48003   3.493   9.637   8.584 -0.1825 -0.3375 -0.7288
14228SOL    HW148004   3.555   9.579   8.628 -0.9781 -0.9457 -0.3854
14228SOL    HW248005   3.542   9.718   8.570 -0.4551  0.7128  3.1552
14229SOL     OW48006   5.898   8.340   7.632 -0.0255 -0.4737 -0.1933
14229SOL    HW148007   5.819   8.367   7.586 -0.2183 -1.5244 -0.4980
14229SOL    HW248008   5.903   8.399   7.707 -1.9047 -1.2870  0.6390
14230SOL     OW48009   5.413   7.805   2.833  0.1995 -0.3582  0.3521
14230SOL    HW148010   5.469   7.791   2.757  0.2432  2.1430 -0.1681
14230SOL    HW248011   5.358   7.727   2.837  1.2104 -1.2091 -1.3540
14231SOL     OW48012   0.978   6.933   8.108 -0.4251  0.8999  0.4587
14231SOL    HW148013   1.025   6.933   8.025 -1.3138  1.4913 -0.0571
14231SOL    HW248014   0.996   6.847   8.146 -0.5636  0.3593 -0.6603
14232SOL     OW48015  11.647  10.558  11.458  0.7012  0.6242  0.2009
14232SOL    HW148016  11.631  10.606  11.377 -0.2571  0.3590  0.2098
14232SOL    HW248017  11.734  10.586  11.487  1.1523  0.5394 -1.0371
14233SOL     OW48018   6.765   9.962   6.286  0.1809 -0.0805 -0.3389
14233SOL    HW148019   6.837   9.957   6.223  0.2186  1.2107 -0.4234
14233SOL    HW248020   6.688   9.981   6.233  0.0491  0.0889 -0.0872
14234SOL     OW48021   5.154   7.335   6.248 -0.4893  0.1532 -0.8692
14234SOL    HW148022   5.070   7.290   6.240 -0.7190  0.6418 -1.2426
14234SOL    HW248023   5.195   7.324   6.163  0.7605 -1.8688 -0.0908
14235SOL     OW48024   3.471   1.939   7.445 -0.2554 -0.4326  0.3454
14235SOL    HW148025   3.477   2.033   7.429  0.0120 -0.5569 -0.3075
14235SOL    HW248026   3.396   1.930   7.504  1.1784  0.4194  2.4371
14236SOL     OW48027   5.699   8.075   6.586 -0.2807 -0.4888 -0.4604
14236SOL    HW148028   5.644   8.010   6.542  0.4258 -0.7474 -0.9877
14236SOL    HW248029   5.754   8.110   6.516 -1.3604  1.4335 -0.3925
14237SOL     OW48030   9.829   7.241   1.576  0.0674  0.0670  0.1089
14237SOL    HW148031   9.836   7.222   1.483 -0.0938  0.9518 -0.0934
14237SOL    HW248032   9.736   7.232   1.595  0.1007 -0.1181  0.1882
14238SOL     OW48033   2.242   2.739   7.631  0.0943 -0.4079 -0.3649
14238SOL    HW148034   2.199   2.816   7.595 -0.1404  0.1847  1.1484
14238SOL    HW248035   2.335   2.753   7.614  0.0606  0.2614 -0.0047
14239SOL     OW48036   9.643   5.046   1.708  0.2018  0.2109  0.5222
14239SOL    HW148037   9.639   5.141   1.722  0.3599  0.3278 -0.1943
14239SOL    HW248038   9.583   5.010   1.773 -0.2013  0.8355  0.5040
14240SOL     OW48039  11.066  10.366   0.750  0.4342  0.5003  0.0495
14240SOL    HW148040  11.079  10.293   0.690 -0.5961 -0.3188  0.7895
14240SOL    HW248041  11.131  10.353   0.819 -1.2550 -1.0896  1.4201
14241SOL     OW48042   8.088   6.548   7.434  0.3317 -0.6172  0.3388
14241SOL    HW148043   8.146   6.500   7.375 -1.7946 -1.2385 -1.3514
14241SOL    HW248044   8.148   6.594   7.494  2.6332 -0.0280 -2.2055
14242SOL     OW48045   7.192   4.464   6.312 -0.4279  0.1752  0.8308
14242SOL    HW148046   7.231   4.525   6.375 -1.1785  2.8232 -1.0672
14242SOL    HW248047   7.257   4.457   6.242 -0.0777 -1.8476  1.2847
14243SOL     OW48048  10.584  11.115  10.378  0.2499  0.0917  0.5373
14243SOL    HW148049  10.556  11.197  10.417 -1.5785 -1.0014  1.6890
14243SOL    HW248050  10.605  11.137  10.287  1.0516  2.0239  1.1484
14244SOL     OW48051   3.177   2.539  11.086 -0.2935 -0.1041 -0.0719
14244SOL    HW148052   3.184   2.580  10.999 -0.0154 -0.1689 -0.0796
14244SOL    HW248053   3.192   2.446  11.070  1.0714  0.0518  0.2339
14245SOL     OW48054   2.010   3.911  11.671 -0.7293 -0.4126  0.9205
14245SOL    HW148055   1.991   3.902  11.765 -1.2045  1.5917  1.0686
14245SOL    HW248056   2.102   3.938  11.667 -1.7214  3.7724  1.2298
14246SOL     OW48057   9.935   0.091   4.057  0.1506  0.3348  0.4573
14246SOL    HW148058   9.882   0.158   4.101 -1.8154 -0.0502 -1.2004
14246SOL    HW248059  10.010   0.140   4.022  0.0761  1.1925  1.4226
14247SOL     OW48060   2.298   2.292   3.630 -0.1072  0.0366 -0.0962
14247SOL    HW148061   2.243   2.258   3.559 -1.3874  1.4718  0.1349
14247SOL    HW248062   2.236   2.313   3.700  1.0692 -0.7464  1.2216
14248SOL     OW48063   3.119   2.711   8.440 -0.1460 -0.3952  0.3445
14248SOL    HW148064   3.193   2.749   8.393  0.0219 -0.9849  0.1228
14248SOL    HW248065   3.156   2.637   8.488 -0.8264 -1.6582 -0.9814
14249SOL     OW48066   7.183  11.495   7.616  0.3538  0.1824 -0.1630
14249SOL    HW148067   7.108  11.435   7.617 -0.5332  1.2761  0.4541
14249SOL    HW248068   7.213  11.497   7.707  2.3356 -1.6640 -0.6903
14250SOL     OW48069  10.850   6.014   2.763 -0.2090 -0.1651  0.4429
14250SOL    HW148070  10.792   5.962   2.819 -0.5982 -1.0671 -0.7429
14250SOL    HW248071  10.814   6.103   2.768 -2.0156 -0.7800 -0.5851
14251SOL     OW48072   7.660  11.706  11.066  0.0343 -0.1056 -0.0621
14251SOL    HW148073   7.615  11.784  11.034 -0.4807 -0.0166  0.8662
14251SOL    HW248074   7.594  11.637  11.062  0.1444 -0.2274  0.2417
14252SOL     OW48075   8.097   3.748   0.143  0.1156  0.6084  0.2838
14252SOL    HW148076   8.097   3.770   0.237  1.2802  0.5370  0.3160
14252SOL    HW248077   8.153   3.672   0.136  0.5865  1.0160 -0.5618
14253SOL     OW48078   5.341   9.652   8.965  0.2163 -0.1717  0.0862
14253SOL    HW148079   5.340   9.676   9.058 -2.4327 -1.1013  0.3661
14253SOL    HW248080   5.297   9.567   8.962 -2.6945  1.2460 -2.3058
14254SOL     OW48081   7.507   6.598   7.648  0.4297  0.3439 -0.1919
14254SOL    HW148082   7.589   6.549   7.653 -1.1396 -2.3016  1.2980
14254SOL    HW248083   7.476   6.583   7.559  0.2205 -0.9769  0.0935
14255SOL     OW48084   1.345   7.944   5.163  0.1452 -0.0128 -0.0651
14255SOL    HW148085   1.379   7.857   5.184  1.8979  0.1418 -1.9765
14255SOL    HW248086   1.265   7.927   5.113 -1.1396 -0.4167  1.9977
14256SOL     OW48087   7.638   6.195   8.744  0.1637  0.1542  0.2190
14256SOL    HW148088   7.650   6.106   8.775  0.3776 -0.0050 -0.3108
14256SOL    HW248089   7.543   6.206   8.739  0.1391 -0.2146 -0.1930
14257SOL     OW48090   5.893  10.537   4.012  0.3970 -0.0572  0.3081
14257SOL    HW148091   5.933  10.499   4.090 -0.0216  0.0937  0.6010
14257SOL    HW248092   5.962  10.534   3.946  0.3418 -1.4064  0.2863
14258SOL     OW48093   9.104   4.748  10.774  0.6997  0.2642  0.0506
14258SOL    HW148094   9.079   4.834  10.739 -0.1860  0.1441  0.3600
14258SOL    HW248095   9.130   4.766  10.864 -2.0330 -0.0967  1.0179
14259SOL     OW48096   6.580   2.226   1.950  0.1427  0.6472  0.5013
14259SOL    HW148097   6.552   2.304   1.903 -0.8676 -0.2034 -0.3488
14259SOL    HW248098   6.501   2.193   1.993  0.1876 -0.7610 -0.4246
14260SOL     OW48099   3.827   6.735   2.884 -0.3811 -0.0335 -0.4453
14260SOL    HW148100   3.806   6.749   2.792 -0.2174  1.1951 -0.3205
14260SOL    HW248101   3.747   6.758   2.931 -0.2858 -0.0836 -0.2551
14261SOL     OW48102   7.973   8.127  11.088  0.2096  0.0906  0.0437
14261SOL    HW148103   8.061   8.117  11.051  0.0621  0.9740 -0.5858
14261SOL    HW248104   7.987   8.131  11.182  0.8136 -0.1024 -0.0294
14262SOL     OW48105   7.766   1.460   0.534 -0.0691  0.0379 -0.1052
14262SOL    HW148106   7.712   1.402   0.586  2.1475 -0.1664  2.1759
14262SOL    HW248107   7.708   1.532   0.509 -2.1533 -1.7234 -0.6408
14263SOL     OW48108  10.449   4.862   0.662  0.4296 -0.3739 -0.1153
14263SOL    HW148109  10.463   4.927   0.594  3.5002 -0.0176  0.7020
14263SOL    HW248110  10.460   4.777   0.618  0.2239 -0.2256 -0.4551
14264SOL     OW48111   1.458   9.817  10.391  0.2670 -0.5658  0.1961
14264SOL    HW148112   1.395   9.824  10.319  0.5520 -0.0617 -0.0144
14264SOL    HW248113   1.407   9.786  10.466  0.0828 -1.6491 -0.3679
14265SOL     OW48114   1.155   4.360   9.001 -0.3044 -0.1251  0.1424
14265SOL    HW148115   1.217   4.289   8.987 -1.9875 -1.3563 -1.7551
14265SOL    HW248116   1.075   4.317   9.030 -0.4154  1.4021  2.3732
14266SOL     OW48117   8.254   7.242   6.406 -0.3540 -0.6693  0.1954
14266SOL    HW148118   8.243   7.289   6.488  0.0682 -1.3384  0.6417
14266SOL    HW248119   8.171   7.196   6.393 -0.3336 -0.7552  0.3695
14267SOL     OW48120  10.574   5.490   9.753  0.4419  0.3384 -0.3891
14267SOL    HW148121  10.510   5.436   9.800  1.1780 -1.0184 -0.8836
14267SOL    HW248122  10.578   5.571   9.802 -0.4166 -0.2033  0.6174
14268SOL     OW48123   7.870   3.150   0.926 -0.5931  0.0330 -0.3245
14268SOL    HW148124   7.820   3.178   0.849  0.9792 -0.4110 -1.5470
14268SOL    HW248125   7.880   3.230   0.978 -2.8612  0.0728  0.1816
14269SOL     OW48126   3.418   3.593   2.634 -0.7114  0.0550 -0.3942
14269SOL    HW148127   3.426   3.666   2.572  1.1280 -0.7340 -1.1441
14269SOL    HW248128   3.414   3.515   2.578 -0.4608 -0.5712  0.4476
14270SOL     OW48129   6.042   8.558   5.628 -0.3692  0.3533 -0.0003
14270SOL    HW148130   6.107   8.488   5.620 -2.0726 -1.1408 -2.1697
14270SOL    HW248131   5.962   8.512   5.657 -1.1650  1.6575 -0.0537
14271SOL     OW48132   0.290  11.015  10.314  0.1096  0.2712 -0.2520
14271SOL    HW148133   0.375  11.035  10.274  0.4791 -0.0898  0.3436
14271SOL    HW248134   0.229  11.015  10.241  0.2882  2.3571 -0.4749
14272SOL     OW48135   6.623  10.508   3.082  0.3909 -0.0368  0.4015
14272SOL    HW148136   6.592  10.449   3.151 -0.4229  1.0663  1.0291
14272SOL    HW248137   6.600  10.464   3.000  1.7866 -1.5789  0.8058
14273SOL     OW48138   9.240   4.197   6.858  0.7486  0.0465  0.1061
14273SOL    HW148139   9.163   4.220   6.806  0.9617  1.4281  0.3536
14273SOL    HW248140   9.315   4.228   6.807  1.0082  0.6289  0.8191
14274SOL     OW48141   1.832  11.471   7.962 -0.4420  0.1174 -0.1661
14274SOL    HW148142   1.840  11.383   7.926  0.9866  0.5109 -0.8846
14274SOL    HW248143   1.761  11.512   7.912 -1.7917 -0.9045  0.8370
14275SOL     OW48144   5.180   7.986   6.809 -0.2036  0.3269 -0.0882
14275SOL    HW148145   5.145   7.940   6.732 -0.9909 -0.3698  0.6568
14275SOL    HW248146   5.169   7.923   6.880  0.0995  1.1354  0.6791
14276SOL     OW48147   7.167   8.626   2.442  0.8483 -0.2746 -0.1748
14276SOL    HW148148   7.167   8.568   2.518  1.0656 -1.2809 -0.9116
14276SOL    HW248149   7.076   8.625   2.412  0.7671  0.1038  0.0523
14277SOL     OW48150   2.821   4.092   2.342  0.0575  0.3866 -0.0172
14277SOL    HW148151   2.846   4.100   2.249 -0.1570 -1.4160 -0.2639
14277SOL    HW248152   2.885   4.030   2.378  0.1013  1.0312  1.0466
14278SOL     OW48153   4.294   6.060   5.405 -0.1077  0.1276 -0.2669
14278SOL    HW148154   4.338   5.976   5.390 -0.6021 -0.2838  0.5734
14278SOL    HW248155   4.201   6.039   5.401 -0.2692  0.2325  1.9831
14279SOL     OW48156   2.945   9.878   7.530  0.0290 -0.1711 -0.3123
14279SOL    HW148157   2.927   9.832   7.612 -2.1531  1.0483 -0.0084
14279SOL    HW248158   2.903   9.825   7.462 -1.0845  0.4914 -0.1678
14280SOL     OW48159  11.050   0.703  10.315  0.0385  0.3843  0.4028
14280SOL    HW148160  11.017   0.759  10.386  0.3968  1.3316 -0.1579
14280SOL    HW248161  11.113   0.758  10.269 -0.2426 -0.1907 -0.6983
14281SOL     OW48162   3.781   7.752   9.654 -0.3108 -0.1395 -0.4078
14281SOL    HW148163   3.701   7.708   9.623 -0.6329  0.5057 -0.5148
14281SOL    HW248164   3.823   7.688   9.711 -2.0811  0.3155  1.5260
14282SOL     OW48165   4.151   6.530   3.629  0.2383  0.3683 -0.2051
14282SOL    HW148166   4.145   6.574   3.714 -1.8649 -0.7385  0.2910
14282SOL    HW248167   4.104   6.587   3.569  0.6375  0.5330 -0.3658
14283SOL     OW48168   8.048   7.892   2.473 -0.2885  0.2272 -0.4569
14283SOL    HW148169   8.072   7.848   2.392 -0.4278  0.8875 -0.8661
14283SOL    HW248170   7.969   7.941   2.452 -0.1452  0.6653 -0.0185
14284SOL     OW48171   6.165   3.568   9.452  0.4307 -0.1187  0.2381
14284SOL    HW148172   6.207   3.482   9.461 -0.1881 -0.5583 -0.8950
14284SOL    HW248173   6.225   3.618   9.396  1.6897  0.8466  2.3105
14285SOL     OW48174   5.424   9.934   3.277 -0.2453 -0.7468 -0.4469
14285SOL    HW148175   5.472   9.999   3.225 -0.3181 -1.2880 -1.2081
14285SOL    HW248176   5.487   9.863   3.291  0.0611 -0.2444  0.9761
14286SOL     OW48177  10.625  10.936   1.754 -0.6566 -0.6106  0.8498
14286SOL    HW148178  10.651  10.856   1.708  0.5183 -0.2611  0.8688
14286SOL    HW248179  10.676  11.005   1.713 -2.3950  0.3195  0.1597
14287SOL     OW48180   0.144   7.157   7.359  0.4836 -0.6923 -0.5531
14287SOL    HW148181   0.191   7.074   7.353  0.2575 -0.7777 -1.2658
14287SOL    HW248182   0.064   7.136   7.406  0.8347 -0.6862  0.0597
14288SOL     OW48183   2.370   0.099   7.029 -0.1732 -0.6652 -0.2430
14288SOL    HW148184   2.368   0.047   6.949  0.1049  0.3546 -0.9224
14288SOL    HW248185   2.344   0.187   7.002  1.1551 -0.0074  0.5421
14289SOL     OW48186  10.793   3.278   9.650 -0.1430  0.4582 -0.0116
14289SOL    HW148187  10.873   3.238   9.615  0.5432  1.5773  0.2197
14289SOL    HW248188  10.729   3.269   9.579  0.2814 -0.1679 -0.3227
14290SOL     OW48189   3.926   9.010  11.407 -0.2125  0.3086  0.0878
14290SOL    HW148190   3.875   8.974  11.334 -0.5238 -0.3078  0.5906
14290SOL    HW248191   3.960   8.932  11.452  1.4244  0.7119 -0.3947
14291SOL     OW48192  11.232   6.544   7.270  0.1775  0.1634 -0.5575
14291SOL    HW148193  11.150   6.517   7.229 -0.6162  0.3731  0.8335
14291SOL    HW248194  11.275   6.462   7.296 -1.0716  0.0734  1.4512
14292SOL     OW48195  10.978  11.567   6.294 -0.5706 -0.6107 -0.3293
14292SOL    HW148196  10.915  11.639   6.290  0.0348  0.0405  1.2393
14292SOL    HW248197  11.049  11.594   6.236 -0.3851  0.0232  0.1879
14293SOL     OW48198   4.136   7.691   0.423 -0.2724  0.5974 -0.1371
14293SOL    HW148199   4.146   7.784   0.443  0.5444  0.4550  0.1562
14293SOL    HW248200   4.103   7.689   0.333  0.7340  1.1518 -0.5362
14294SOL     OW48201   8.844   1.388   5.616 -0.7111  0.3824  0.3010
14294SOL    HW148202   8.812   1.308   5.574  2.1552 -0.2375 -0.9675
14294SOL    HW248203   8.818   1.379   5.707  0.2093 -2.4898  0.4070
14295SOL     OW48204   8.070   1.856  11.490  0.8321 -0.4699  0.1769
14295SOL    HW148205   8.070   1.766  11.457  0.9379 -0.8484  1.1750
14295SOL    HW248206   7.987   1.892  11.457  0.3266 -1.2392  0.5620
14296SOL     OW48207  11.490   8.808   4.068  0.3743  0.3232 -0.1449
14296SOL    HW148208  11.449   8.884   4.027 -0.7142 -0.2362 -0.1387
14296SOL    HW248209  11.491   8.742   3.998 -1.5591 -0.6650  0.7025
14297SOL     OW48210  11.346   8.429   3.779  0.0848 -0.2908 -0.1095
14297SOL    HW148211  11.426   8.480   3.789 -0.2629 -0.0266  1.4782
14297SOL    HW248212  11.370   8.359   3.717  1.4500 -0.0473  0.1161
14298SOL     OW48213   1.154   8.852   2.275 -0.0126 -0.3353  0.0311
14298SOL    HW148214   1.128   8.918   2.211  2.2028  0.4450 -0.1549
14298SOL    HW248215   1.082   8.789   2.276 -1.5160  1.2978 -0.8859
14299SOL     OW48216   0.269   3.470   5.119  0.0865 -0.0291  0.1271
14299SOL    HW148217   0.229   3.383   5.111  2.0572 -1.2806  2.3331
14299SOL    HW248218   0.208   3.519   5.174 -0.3547 -0.5162  0.0832
14300SOL     OW48219   8.417  11.612  10.629 -0.3363  0.3481  0.8749
14300SOL    HW148220   8.337  11.579  10.670 -0.9607 -1.4218 -1.5474
14300SOL    HW248221   8.458  11.534  10.591  1.0341  1.6393 -0.4244
14301SOL     OW48222   4.375   4.866   9.830 -0.2241 -0.5687  0.1602
14301SOL    HW148223   4.315   4.840   9.901 -0.6651 -1.7992 -0.6196
14301SOL    HW248224   4.317   4.897   9.761 -0.0725 -2.5678 -0.9324
14302SOL     OW48225   5.940   8.684   1.992  0.0839  0.5542  0.0913
14302SOL    HW148226   6.004   8.739   1.945 -0.9019  0.9233 -0.8515
14302SOL    HW248227   5.929   8.607   1.936  1.1848 -0.4929  1.2348
14303SOL     OW48228   0.478   0.183  11.543  0.4500 -0.2775 -0.0154
14303SOL    HW148229   0.491   0.275  11.521 -0.8524  0.2756  1.3457
14303SOL    HW248230   0.535   0.168  11.619 -1.8990  0.4793  2.0615
14304SOL     OW48231   9.682   1.805   1.493  0.2691  0.0429 -0.1853
14304SOL    HW148232   9.731   1.856   1.556  1.4073  0.2323 -1.1807
14304SOL    HW248233   9.711   1.715   1.507 -0.7226 -0.1596  0.6580
14305SOL     OW48234  10.295   1.323  10.607  0.4146  0.7455  0.7679
14305SOL    HW148235  10.229   1.275  10.656 -0.8612  1.1789 -0.4487
14305SOL    HW248236  10.376   1.275  10.623 -0.1889  0.1623  2.2540
14306SOL     OW48237   2.979   1.273   0.776 -0.0362  0.1807  0.2354
14306SOL    HW148238   3.033   1.331   0.831 -0.2107  4.9353 -3.8677
14306SOL    HW248239   3.042   1.219   0.729  0.5325  0.2220  0.9319
14307SOL     OW48240  10.849  10.401   3.991  0.3129  0.2590  0.4384
14307SOL    HW148241  10.863  10.443   3.906  0.8445 -0.1412  0.3254
14307SOL    HW248242  10.847  10.473   4.054 -0.4867  0.5930  0.0451
14308SOL     OW48243   6.611   0.381  10.170  0.1259 -0.3218 -0.1169
14308SOL    HW148244   6.612   0.406  10.262  0.2903 -0.6666 -0.0237
14308SOL    HW248245   6.693   0.333  10.157  0.4565  0.3706 -0.6251
14309SOL     OW48246  11.451  10.608   5.602 -0.6251  0.2727  0.3444
14309SOL    HW148247  11.495  10.538   5.649  0.5152  1.0518  0.4804
14309SOL    HW248248  11.442  10.574   5.513 -0.2647 -0.1291  0.4545
14310SOL     OW48249   7.834   8.720   4.237  0.1163 -0.3181 -0.0842
14310SOL    HW148250   7.863   8.808   4.211 -1.6783  0.6485  0.9923
14310SOL    HW248251   7.866   8.709   4.326 -2.2063  0.5699  0.9433
14311SOL     OW48252   4.909   6.622   8.824  0.5756  0.5516  0.3255
14311SOL    HW148253   4.825   6.631   8.869  1.3538  0.7450  1.7686
14311SOL    HW248254   4.906   6.689   8.755 -0.0672  1.2118  0.9745
14312SOL     OW48255  10.519   8.213   2.453  0.3952  0.2398  0.4043
14312SOL    HW148256  10.458   8.139   2.464 -1.3607  1.4955 -0.4849
14312SOL    HW248257  10.570   8.190   2.376  0.6368 -0.5363  0.7782
14313SOL     OW48258   8.134   2.771   7.936 -0.4838  0.1982 -0.6544
14313SOL    HW148259   8.183   2.714   7.877 -0.3749 -0.5126  0.1035
14313SOL    HW248260   8.060   2.801   7.884 -0.4947 -0.5670 -1.1030
14314SOL     OW48261   2.793  10.589   3.750 -0.3830 -0.5612 -0.5358
14314SOL    HW148262   2.750  10.542   3.679 -0.5719  0.8121 -1.3693
14314SOL    HW248263   2.728  10.652   3.780 -0.2882 -1.0972  0.8580
14315SOL     OW48264   2.996   4.305   8.510  0.3090 -0.1710 -0.6913
14315SOL    HW148265   2.977   4.389   8.468 -1.4629  0.6475  1.5769
14315SOL    HW248266   2.922   4.249   8.487  0.3258 -0.3511 -0.3137
14316SOL     OW48267   8.475   5.350   2.227 -0.6210  0.6038  0.6988
14316SOL    HW148268   8.424   5.367   2.147  0.0537  0.7359  0.2945
14316SOL    HW248269   8.456   5.258   2.247  0.6574 -0.0214 -0.6987
14317SOL     OW48270   3.560   1.349   9.978 -0.5361 -0.5990  0.3300
14317SOL    HW148271   3.597   1.437   9.982 -1.2299 -0.1620 -1.8357
14317SOL    HW248272   3.603   1.307   9.904 -0.5929 -1.9396  1.0136
14318SOL     OW48273   9.756   2.744   8.783 -0.5150  0.3623  0.0125
14318SOL    HW148274   9.679   2.691   8.759 -1.1095  0.3374  1.8249
14318SOL    HW248275   9.791   2.701   8.861  1.6992  0.0743 -1.0732
14319SOL     OW48276   6.991   8.989   4.483  0.2118 -0.3654  0.4656
14319SOL    HW148277   6.997   9.034   4.399  2.8524  0.2042  0.8760
14319SOL    HW248278   6.991   8.896   4.460 -0.7881 -0.2090 -0.2075
14320SOL     OW48279   1.070   5.910   9.294 -0.0353  0.5671  0.1823
14320SOL    HW148280   1.137   5.950   9.351  0.6163 -0.2923  0.0310
14320SOL    HW248281   0.987   5.937   9.333  0.3984  0.0574  1.5147
14321SOL     OW48282   9.228   1.225  10.224 -0.0236 -0.1387 -0.4540
14321SOL    HW148283   9.211   1.214  10.130 -2.0134 -0.1295 -0.1555
14321SOL    HW248284   9.301   1.167  10.242  0.8329  0.3512 -2.1273
14322SOL     OW48285   2.964   8.441   3.223  0.0649 -0.2198  0.6038
14322SOL    HW148286   2.897   8.505   3.245  0.2931 -0.1374  1.0675
14322SOL    HW248287   2.946   8.367   3.282  1.3206  0.4220  1.8439
14323SOL     OW48288   9.644   7.510   3.330 -0.8017  0.9732 -0.0645
14323SOL    HW148289   9.585   7.555   3.269 -2.5778  0.8859  1.5206
14323SOL    HW248290   9.586   7.471   3.395  0.9891  0.2691  1.1716
14324SOL     OW48291  10.489   6.814   8.900  0.3029  0.0687  0.0668
14324SOL    HW148292  10.431   6.738   8.889  0.9880 -0.3109 -1.1790
14324SOL    HW248293  10.569   6.777   8.936  0.6476  0.1907 -0.5674
14325SOL     OW48294  11.307  10.101   0.362  0.1043 -0.1831  1.0036
14325SOL    HW148295  11.323  10.186   0.404  0.0105  0.0570  0.5617
14325SOL    HW248296  11.239  10.061   0.415 -0.7184  0.5365  0.5258
14326SOL     OW48297   8.394   1.175   0.193 -0.0520 -0.2369 -0.5484
14326SOL    HW148298   8.359   1.255   0.154  1.0308 -0.3573 -1.8483
14326SOL    HW248299   8.326   1.109   0.180 -1.7202  0.7967  2.0961
14327SOL     OW48300   9.947   1.420  10.752  0.1250 -0.2406 -0.3541
14327SOL    HW148301  10.013   1.356  10.779  0.2143  0.6149  1.5451
14327SOL    HW248302   9.980   1.504  10.782 -1.6938  0.2523  0.4191
14328SOL     OW48303   1.941   7.084   7.097 -0.4593  0.0477  0.3500
14328SOL    HW148304   1.939   7.155   7.161  0.8941 -0.0494  0.5174
14328SOL    HW248305   1.916   7.125   7.014 -1.0016  0.4291  0.7009
14329SOL     OW48306  11.501   7.021   6.427  0.2931 -0.2402 -0.1933
14329SOL    HW148307  11.509   7.088   6.495 -1.4780 -0.3149  0.1152
14329SOL    HW248308  11.506   7.069   6.344 -0.6139  0.2348  0.0227
14330SOL     OW48309   5.857   1.745   5.880  0.5969  0.4765 -0.6063
14330SOL    HW148310   5.872   1.770   5.971 -0.8405  1.7150 -0.6663
14330SOL    HW248311   5.849   1.650   5.882  0.0685  0.5228  0.6644
14331SOL     OW48312  11.382   3.725   0.961 -0.0130  0.1976  0.1156
14331SOL    HW148313  11.309   3.750   0.904  0.6658  0.1319 -0.8095
14331SOL    HW248314  11.439   3.802   0.961  0.0695  0.1370  0.5842
14332SOL     OW48315  11.418   4.346   9.641  0.6615 -0.1599 -0.1870
14332SOL    HW148316  11.512   4.356   9.632  0.5121  1.5059 -0.2122
14332SOL    HW248317  11.396   4.399   9.718  0.0736 -2.6804  1.4745
14333SOL     OW48318   7.661   0.596   7.691 -1.0551  0.2283 -0.3510
14333SOL    HW148319   7.727   0.627   7.628  0.6385 -1.8458  0.3019
14333SOL    HW248320   7.682   0.641   7.772 -0.8780  0.0769 -0.3137
14334SOL     OW48321   7.176   3.015   6.912  0.1322 -0.4235 -0.3974
14334SOL    HW148322   7.142   2.994   6.825  0.8247 -1.4595 -0.4402
14334SOL    HW248323   7.268   3.036   6.897  0.0883  0.0584  0.0015
14335SOL     OW48324   5.309   0.718   0.314 -0.1552  0.3672  0.0206
14335SOL    HW148325   5.350   0.632   0.299  0.2923  0.7782 -1.2840
14335SOL    HW248326   5.369   0.780   0.273 -0.5509  1.2997  0.8361
14336SOL     OW48327   2.162  10.421   4.983 -0.0461  0.1786 -0.1735
14336SOL    HW148328   2.242  10.455   4.943 -0.5350  0.5742 -0.8465
14336SOL    HW248329   2.141  10.484   5.053 -0.5977  0.9386 -1.0004
14337SOL     OW48330   6.805  10.953   4.383 -0.0343  0.0069  0.4863
14337SOL    HW148331   6.845  11.039   4.396  3.0919 -1.0152 -1.4168
14337SOL    HW248332   6.758  10.962   4.299 -1.1033  0.2718  1.0956
14338SOL     OW48333   8.660   9.627   1.552  0.0692 -0.1922 -0.0792
14338SOL    HW148334   8.747   9.586   1.551  0.3010  0.2944 -0.2070
14338SOL    HW248335   8.608   9.571   1.610  1.1785  0.9313  2.1465
14339SOL     OW48336  10.314   0.910   2.597  0.0414 -0.4486  0.2604
14339SOL    HW148337  10.370   0.918   2.674 -0.3372 -0.1980  0.5139
14339SOL    HW248338  10.272   0.825   2.606  1.0616 -1.0489 -0.3994
14340SOL     OW48339   1.901  10.076   9.918  0.0932  0.1794  0.2642
14340SOL    HW148340   1.879   9.986   9.940 -1.1562  0.1895 -0.8028
14340SOL    HW248341   1.936  10.113   9.999 -1.0838 -0.7388  1.2266
14341SOL     OW48342   0.481   9.072   3.470 -0.4203  0.3150  0.0487
14341SOL    HW148343   0.556   9.101   3.522 -0.7602  0.4752  0.4522
14341SOL    HW248344   0.520   9.038   3.389  0.1646 -0.5110  0.6556
14342SOL     OW48345   6.580   2.264   5.593  0.2598  0.3227  0.1345
14342SOL    HW148346   6.572   2.318   5.672 -0.2801  0.4472  0.0029
14342SOL    HW248347   6.491   2.260   5.559  0.1515 -1.1968  0.5046
14343SOL     OW48348   6.819   2.846   2.334 -0.6380  0.2914 -0.0094
14343SOL    HW148349   6.764   2.907   2.287  0.3505 -0.7594 -2.7163
14343SOL    HW248350   6.758   2.782   2.371 -1.3443 -0.5678 -2.5018
14344SOL     OW48351   0.884   7.719   7.976 -0.3696  0.2560  0.2750
14344SOL    HW148352   0.828   7.642   7.984  0.2551 -0.1987  0.3152
14344SOL    HW248353   0.838   7.777   7.915 -0.2907 -0.6339 -0.6355
14345SOL     OW48354  11.623   9.043   6.061 -0.2281 -0.2964  0.1270
14345SOL    HW148355  11.619   9.115   6.123 -2.2085  0.5799 -0.9263
14345SOL    HW248356  11.699   9.062   6.006  2.0444 -1.5043  2.6500
14346SOL     OW48357   1.333   1.536  10.756  0.0958 -0.4423 -0.0901
14346SOL    HW148358   1.278   1.601  10.713  1.0887  1.9485  2.0197
14346SOL    HW248359   1.392   1.505  10.688 -0.1365  1.1950 -1.0728
14347SOL     OW48360   6.369  11.027  10.701 -0.0803  0.2246 -0.4143
14347SOL    HW148361   6.438  11.045  10.765  0.3966 -1.3041 -0.4535
14347SOL    HW248362   6.393  10.942  10.663 -2.5767 -0.9556  0.4081
14348SOL     OW48363   8.302   8.423   9.515 -0.1817 -0.2610 -0.6803
14348SOL    HW148364   8.356   8.451   9.589 -0.4859 -0.6835 -0.2909
14348SOL    HW248365   8.365   8.389   9.451  0.1474  0.8242 -0.9471
14349SOL     OW48366   2.379   5.700   3.798  0.5555  0.7084  0.7649
14349SOL    HW148367   2.384   5.792   3.772  0.7596  0.9267  1.5445
14349SOL    HW248368   2.327   5.658   3.729 -0.2936  1.5768  0.8558
14350SOL     OW48369   6.047   7.509   5.376  0.3690 -0.2204  0.1320
14350SOL    HW148370   6.043   7.602   5.400  1.7433  0.0860 -0.7097
14350SOL    HW248371   6.137   7.496   5.345  0.0524 -1.7201 -0.2419
14351SOL     OW48372   6.997   3.469  11.497  0.7139 -0.0510  0.4772
14351SOL    HW148373   7.004   3.374  11.509  0.1636 -0.4502 -1.7559
14351SOL    HW248374   6.959   3.478  11.409  0.9895  2.2480  0.5534
14352SOL     OW48375   8.680  11.125   0.554 -0.2889 -0.0518  0.6461
14352SOL    HW148376   8.765  11.117   0.598 -0.9431  0.3872  2.0234
14352SOL    HW248377   8.636  11.042   0.571  0.6901 -1.2267 -2.0006
14353SOL     OW48378   1.822   5.404   8.204  0.1638 -0.0487  0.3207
14353SOL    HW148379   1.833   5.381   8.297  5.4634 -0.5926 -0.0935
14353SOL    HW248380   1.812   5.499   8.204  1.0707  0.0854  1.5134
14354SOL     OW48381   7.280  11.255   0.191 -0.1549 -0.9056 -0.6277
14354SOL    HW148382   7.316  11.231   0.277 -1.9187  1.7042  1.0058
14354SOL    HW248383   7.350  11.303   0.148 -0.0551  0.0255  0.5040
14355SOL     OW48384   1.330  11.674   5.669 -0.2141  0.4134 -0.2298
14355SOL    HW148385   1.249  11.726   5.674  0.8686  2.1150  0.5989
14355SOL    HW248386   1.348  11.649   5.760 -0.4483 -1.0280 -0.5637
14356SOL     OW48387   9.756   9.142   1.191 -0.3406 -0.0077 -0.5466
14356SOL    HW148388   9.712   9.186   1.263  2.9651  1.9293  0.4975
14356SOL    HW248389   9.759   9.050   1.217  0.3336  0.5774  1.6461
14357SOL     OW48390  10.486   4.582   5.624 -0.5421 -0.5892 -0.4443
14357SOL    HW148391  10.399   4.613   5.649  0.1093 -0.2962  1.6634
14357SOL    HW248392  10.484   4.488   5.642 -0.0852 -0.3869  0.7342
14358SOL     OW48393   2.427   3.767   8.956  0.7169  0.0017  0.7589
14358SOL    HW148394   2.395   3.845   9.000 -0.1275  0.0916  0.0182
14358SOL    HW248395   2.521   3.781   8.947  0.6083  0.8186  0.8594
14359SOL     OW48396   2.612  11.292   6.957  0.1091  0.4206 -0.0486
14359SOL    HW148397   2.607  11.199   6.981 -1.6133  0.4495 -0.2195
14359SOL    HW248398   2.618  11.292   6.862  2.1610  0.4687  0.0204
14360SOL     OW48399   5.776   8.825   6.350  0.6139  0.1059 -0.4294
14360SOL    HW148400   5.754   8.748   6.298  2.7649 -0.5813 -0.4356
14360SOL    HW248401   5.702   8.884   6.340 -0.9755 -1.8444 -0.6477
14361SOL     OW48402   3.900   0.858   2.095  0.3235  0.2263  1.3211
14361SOL    HW148403   3.844   0.936   2.092 -0.5839 -0.3396  2.5308
14361SOL    HW248404   3.973   0.879   2.037 -0.6117  1.4156  0.5140
14362SOL     OW48405   2.215   9.334   6.161 -0.2283 -0.5216 -0.1517
14362SOL    HW148406   2.150   9.281   6.115 -0.5831 -0.9049  0.7796
14362SOL    HW248407   2.295   9.281   6.158 -0.2785 -0.5928 -0.2319
14363SOL     OW48408   4.281   3.108   8.068  0.0154 -0.0068 -0.4636
14363SOL    HW148409   4.205   3.164   8.055  1.5779  2.0247 -1.5454
14363SOL    HW248410   4.257   3.051   8.141 -2.4021  0.7425 -0.5957
14364SOL     OW48411   8.448   1.708   0.156  0.6944  0.2985  0.0253
14364SOL    HW148412   8.415   1.774   0.095 -2.6942 -0.8789  0.3667
14364SOL    HW248413   8.374   1.689   0.213  2.1104 -2.4847  1.1264
14365SOL     OW48414   6.728   3.906   2.530  0.0955 -0.5549 -0.5749
14365SOL    HW148415   6.714   3.993   2.491  1.6867 -0.4576 -0.9731
14365SOL    HW248416   6.813   3.912   2.572 -0.3167 -1.5797  0.4398
14366SOL     OW48417   1.076   3.056   2.383 -0.4834 -0.4360  0.4461
14366SOL    HW148418   1.142   3.111   2.341 -0.9267 -1.3800 -1.6179
14366SOL    HW248419   0.993   3.083   2.344 -0.6960 -2.5557 -0.7014
14367SOL     OW48420   7.121   2.534  11.361  0.4573 -0.0219 -0.3672
14367SOL    HW148421   7.143   2.442  11.351  0.4163 -0.1279  0.5086
14367SOL    HW248422   7.029   2.540  11.338  0.5343 -0.1448 -0.7132
14368SOL     OW48423   3.590   8.499   2.600  0.3941  0.1311 -0.3685
14368SOL    HW148424   3.680   8.466   2.595  0.0762 -0.7892 -0.1773
14368SOL    HW248425   3.568   8.523   2.510  0.2953 -1.1238 -0.6918
14369SOL     OW48426  11.757   0.698   4.755 -0.0553  0.1300  0.1456
14369SOL    HW148427  11.807   0.700   4.837  0.2373  0.7868 -0.0507
14369SOL    HW248428  11.723   0.608   4.751  0.1902 -0.0020  0.8277
14370SOL     OW48429   4.190   2.586   3.884  0.0468 -0.2820 -0.3185
14370SOL    HW148430   4.130   2.635   3.940  1.0221  0.5673  0.0043
14370SOL    HW248431   4.236   2.526   3.943 -0.1529 -0.6121 -0.4927
14371SOL     OW48432  10.186   9.502  11.742  0.1178  0.2111  0.1347
14371SOL    HW148433  10.214   9.468  11.827 -0.6414 -0.2217  0.2173
14371SOL    HW248434  10.237   9.583  11.731 -0.2474  0.6151  1.2979
14372SOL     OW48435  11.257   4.718   1.809  0.6994 -0.7699 -0.2036
14372SOL    HW148436  11.320   4.778   1.848  1.0717 -1.6366  0.5338
14372SOL    HW248437  11.174   4.766   1.812  1.2291  0.2148 -0.8201
14373SOL     OW48438   8.378   7.460   0.907  0.3221 -0.4021  0.3683
14373SOL    HW148439   8.470   7.439   0.888  0.0020 -1.9979  0.3692
14373SOL    HW248440   8.336   7.462   0.821  0.4509  0.9004  0.3244
14374SOL     OW48441  11.261   6.844   5.717  0.1280  0.4591  0.2642
14374SOL    HW148442  11.235   6.894   5.795  0.0933  2.2621 -0.8588
14374SOL    HW248443  11.345   6.883   5.691 -0.9219  1.4600 -1.8778
14375SOL     OW48444   0.938   0.076   2.437  0.3541  0.7583  0.5814
14375SOL    HW148445   1.032   0.073   2.418  0.5306  2.4328  1.0014
14375SOL    HW248446   0.905  -0.009   2.409  1.8837  0.3734 -0.1681
14376SOL     OW48447  11.594   5.365   8.213 -0.2417 -0.0662  0.0211
14376SOL    HW148448  11.648   5.443   8.199 -0.4224  0.7367  3.0245
14376SOL    HW248449  11.636   5.320   8.287 -1.2385 -1.8077 -0.4201
14377SOL     OW48450   0.261   7.059   1.663 -0.1239 -0.3934 -0.5353
14377SOL    HW148451   0.337   7.038   1.609 -0.8700 -1.2414 -1.3025
14377SOL    HW248452   0.240   7.150   1.640 -0.1256 -0.5810 -1.3207
14378SOL     OW48453  11.793   6.201   1.545 -0.0451 -0.3861 -0.3386
14378SOL    HW148454  11.882   6.170   1.526 -0.3299 -0.4147 -1.7385
14378SOL    HW248455  11.739   6.122   1.544 -0.3245 -0.1897 -1.0444
14379SOL     OW48456   0.905   6.511   3.663  0.2065  0.2926  0.4966
14379SOL    HW148457   0.941   6.443   3.606  1.3134  1.1096  0.1674
14379SOL    HW248458   0.959   6.588   3.644 -0.0528  0.8568  1.9272
14380SOL     OW48459   6.515   9.172   1.352 -0.1913 -0.4962  0.2268
14380SOL    HW148460   6.488   9.081   1.363 -1.1232 -0.4564 -1.4655
14380SOL    HW248461   6.597   9.167   1.302 -0.9741 -0.3806 -1.0962
14381SOL     OW48462  11.508  10.077  10.452 -0.3408 -0.2975 -0.0034
14381SOL    HW148463  11.477  10.028  10.376 -0.1942  0.1157 -0.3370
14381SOL    HW248464  11.528  10.011  10.517  1.1519 -0.7892 -0.9163
14382SOL     OW48465   8.616   5.599   6.456 -0.2080  0.0144  0.0228
14382SOL    HW148466   8.599   5.636   6.543 -0.4058 -1.3636  0.5921
14382SOL    HW248467   8.604   5.673   6.396 -0.3484  0.9227  1.1281
14383SOL     OW48468   5.980   0.586   1.542 -0.2594  0.2967 -0.5386
14383SOL    HW148469   5.988   0.659   1.602 -4.3581  1.8425 -1.5120
14383SOL    HW248470   5.970   0.626   1.456 -2.1085 -1.3380 -1.1848
14384SOL     OW48471   7.910   2.379  10.503  0.2827  0.3926 -0.3156
14384SOL    HW148472   7.901   2.471  10.527  1.0337  0.8652 -1.6944
14384SOL    HW248473   8.005   2.365  10.497  0.1625  0.0397 -1.8552
14385SOL     OW48474  10.242   0.185   8.755  0.1631 -0.7291  0.5148
14385SOL    HW148475  10.196   0.101   8.766 -2.1993  0.5923  1.5711
14385SOL    HW248476  10.172   0.249   8.745  1.9104  1.1199 -0.5071
14386SOL     OW48477   8.012  11.398  11.524  0.0809 -0.5758 -1.0420
14386SOL    HW148478   7.992  11.423  11.615  0.9753  2.1011 -1.4731
14386SOL    HW248479   7.942  11.439  11.473  0.8413 -0.1176 -1.7213
14387SOL     OW48480   4.455  11.142  10.569 -0.2143  0.4512  0.3661
14387SOL    HW148481   4.362  11.157  10.586  0.0353  1.5022  0.9116
14387SOL    HW248482   4.458  11.109  10.480 -1.1669 -0.3205  0.6030
14388SOL     OW48483   2.267   1.766   0.886  0.4003 -0.1546 -0.1404
14388SOL    HW148484   2.348   1.775   0.837  0.0276 -0.0066 -0.7354
14388SOL    HW248485   2.275   1.830   0.957  0.3462  0.6284 -0.8304
14389SOL     OW48486  11.709   6.280   3.079  0.4250  0.0277 -0.0096
14389SOL    HW148487  11.642   6.328   3.031 -0.6618 -0.8816  0.5355
14389SOL    HW248488  11.791   6.306   3.039 -0.0043  2.9437  0.7741
14390SOL     OW48489   8.638   8.386   1.353  0.6078 -0.5420  0.1309
14390SOL    HW148490   8.733   8.371   1.350  0.6269 -0.8977  1.5963
14390SOL    HW248491   8.622   8.455   1.289  2.0159  0.2970  0.6485
14391SOL     OW48492   0.573   4.500  11.641  0.0031 -0.1815  0.6548
14391SOL    HW148493   0.567   4.518  11.547  1.2550  0.1526  0.6257
14391SOL    HW248494   0.632   4.426  11.649  0.4398  0.2095  1.2103
14392SOL     OW48495   6.029   6.959   3.320  0.2494  0.5353  0.1571
14392SOL    HW148496   6.014   7.053   3.327  2.4999  1.2139 -2.1815
14392SOL    HW248497   6.108   6.952   3.267  0.1134 -2.7063  0.1826
14393SOL     OW48498   1.851   3.629   9.345 -0.1433  0.0240 -0.1805
14393SOL    HW148499   1.831   3.659   9.257 -0.6805 -1.3421 -0.5534
14393SOL    HW248500   1.803   3.688   9.403 -2.1441 -0.7926 -0.9177
14394SOL     OW48501   8.302   1.877  10.995 -0.3869 -0.2488 -0.2667
14394SOL    HW148502   8.373   1.819  11.019  0.3075  0.3117 -0.9161
14394SOL    HW248503   8.244   1.823  10.941 -0.3083 -0.6310  0.0295
14395SOL     OW48504   9.235  11.113   4.430  0.2721 -0.1356 -0.4112
14395SOL    HW148505   9.251  11.155   4.515  0.1635  1.6013 -1.2146
14395SOL    HW248506   9.141  11.094   4.430 -0.0567  1.3741 -0.7710
14396SOL     OW48507  10.105   0.981   9.468 -0.3056  0.4601 -0.0311
14396SOL    HW148508  10.140   0.992   9.557  0.5144 -0.7438 -0.1766
14396SOL    HW248509  10.064   1.065   9.448 -0.7424  0.6725  1.5840
14397SOL     OW48510  10.277   0.647   6.493 -0.1595 -0.0289 -0.6333
14397SOL    HW148511  10.215   0.610   6.555 -0.6099  0.2912 -0.8865
14397SOL    HW248512  10.279   0.741   6.514 -1.4017  0.3435 -2.0050
14398SOL     OW48513   7.911   7.494   9.366 -0.4877 -0.0986  0.4788
14398SOL    HW148514   7.896   7.495   9.460  0.0818  1.3024  0.5748
14398SOL    HW248515   7.932   7.403   9.346 -0.9717 -0.4767  1.6437
14399SOL     OW48516   2.789   9.957   0.814  0.1480  0.3284  0.7818
14399SOL    HW148517   2.835   9.938   0.732  0.4900  2.4603  0.4156
14399SOL    HW248518   2.841   9.915   0.882  1.0746  0.3698  0.1089
14400SOL     OW48519   5.180   4.086   4.146  0.2652 -0.2809 -0.0351
14400SOL    HW148520   5.088   4.079   4.123  0.0252 -2.7820  1.3173
14400SOL    HW248521   5.226   4.089   4.062 -0.9683 -0.2781 -0.7296
14401SOL     OW48522   9.550   3.755   5.329 -0.0819 -0.3069  0.0046
14401SOL    HW148523   9.470   3.705   5.345 -1.5646  1.0937 -2.3813
14401SOL    HW248524   9.586   3.719   5.248  0.1458  0.8232 -0.4293
14402SOL     OW48525   8.242   4.575  10.607  0.0313  0.3353  0.3795
14402SOL    HW148526   8.237   4.654  10.661  2.5845  0.3243  0.7804
14402SOL    HW248527   8.289   4.602  10.529 -0.0389 -0.5467  0.0207
14403SOL     OW48528   7.057   9.983  11.160  0.1105  0.1646 -0.1142
14403SOL    HW148529   7.058  10.071  11.120  1.6613  1.0457  1.7136
14403SOL    HW248530   6.964   9.958  11.159 -0.4200  1.9762 -0.3626
14404SOL     OW48531   7.538  11.294  10.504 -0.6759  0.3478 -0.0408
14404SOL    HW148532   7.588  11.244  10.569 -0.8167  0.2586  0.0003
14404SOL    HW248533   7.451  11.303  10.543 -0.8258  0.1062 -0.3144
14405SOL     OW48534   1.380   0.470   9.271 -0.1919 -0.2387 -0.5003
14405SOL    HW148535   1.322   0.393   9.262  2.0423 -2.0327 -0.4839
14405SOL    HW248536   1.388   0.482   9.365  2.1291 -2.2528 -0.3505
14406SOL     OW48537   3.234   6.981   5.196 -0.3362  0.6005  1.1770
14406SOL    HW148538   3.170   7.008   5.262 -1.9815 -0.7236  0.2228
14406SOL    HW248539   3.191   6.909   5.149  1.7435 -0.1380  0.2578
14407SOL     OW48540   9.856   1.403   2.311 -0.0080  0.4071  0.3507
14407SOL    HW148541   9.939   1.358   2.328 -0.5518 -0.4516  0.7822
14407SOL    HW248542   9.873   1.456   2.234  0.6605 -0.5174 -0.1592
14408SOL     OW48543   2.289   0.583   7.072 -0.5543  0.3578  0.6143
14408SOL    HW148544   2.346   0.632   7.012 -1.4502  0.0863 -0.4808
14408SOL    HW248545   2.300   0.627   7.156 -0.6923  1.9326 -0.1563
14409SOL     OW48546   2.832   2.321  10.534 -0.3941 -0.0181  0.6708
14409SOL    HW148547   2.927   2.313  10.523 -0.2769 -1.8353  2.4090
14409SOL    HW248548   2.802   2.232  10.550 -2.2657  0.6354  1.0635
14410SOL     OW48549   9.979   4.878  10.256 -0.0348  0.2020 -0.0756
14410SOL    HW148550   9.887   4.853  10.264 -0.2389  1.0441  0.3307
14410SOL    HW248551   9.999   4.923  10.338  0.9966 -0.7499  0.2132
14411SOL     OW48552   4.632   2.060   1.379  0.2805 -0.8910 -0.2122
14411SOL    HW148553   4.561   1.997   1.391  0.5047 -2.0419 -3.7237
14411SOL    HW248554   4.709   2.019   1.418 -0.3335 -0.9690  0.9724
14412SOL     OW48555   5.331   2.493   9.347 -0.3431  0.3247  0.5353
14412SOL    HW148556   5.422   2.467   9.355  0.0873  2.0517  2.0450
14412SOL    HW248557   5.303   2.511   9.437 -2.1555 -0.0762  0.0971
14413SOL     OW48558   5.583   1.966   2.642  0.1710  0.1146  0.0685
14413SOL    HW148559   5.538   1.891   2.682 -1.0624  0.6140 -0.3234
14413SOL    HW248560   5.570   1.954   2.548  0.6292  0.4123 -0.0326
14414SOL     OW48561   4.408   4.020   6.033  0.6363  0.1916  0.2595
14414SOL    HW148562   4.313   4.026   6.022  0.2568 -0.1562  2.6945
14414SOL    HW248563   4.428   4.084   6.101  2.0519 -0.1582  0.2036
14415SOL     OW48564  10.218   5.222   5.496 -0.2633 -0.3574 -0.9466
14415SOL    HW148565  10.130   5.259   5.497  0.2706  0.9374 -0.2591
14415SOL    HW248566  10.207   5.133   5.531 -1.0804  0.3185  0.5947
14416SOL     OW48567   9.979   3.997   3.708  0.5241  0.2461 -0.1389
14416SOL    HW148568   9.975   4.013   3.803 -0.8794  0.7129 -0.2538
14416SOL    HW248569   9.919   3.924   3.694  0.0361  0.7560 -0.7740
14417SOL     OW48570   7.758   7.257  11.814  0.7447 -0.0619  0.0819
14417SOL    HW148571   7.691   7.323  11.793  1.0825 -0.1266 -1.2783
14417SOL    HW248572   7.741   7.185  11.754  1.6731 -0.3318  0.1218
14418SOL     OW48573   8.468   1.338   7.455  0.5843  0.0849 -0.2352
14418SOL    HW148574   8.444   1.398   7.526 -0.4884  0.2368 -0.6988
14418SOL    HW248575   8.420   1.258   7.474 -1.6001  0.8759 -1.9602
14419SOL     OW48576   1.840   1.708   7.638 -0.4934  0.4513 -0.5945
14419SOL    HW148577   1.760   1.706   7.587 -1.1570  2.3564  0.2799
14419SOL    HW248578   1.871   1.798   7.631  1.0501 -0.0023 -0.1193
14420SOL     OW48579   7.713  10.721   1.369 -0.3007  0.0409  0.2865
14420SOL    HW148580   7.642  10.760   1.318  0.9353  0.8404 -0.9147
14420SOL    HW248581   7.745  10.649   1.315  0.2668  0.1572  0.4553
14421SOL     OW48582   9.079   4.853   3.305 -0.4746 -0.0956  0.5290
14421SOL    HW148583   9.038   4.772   3.336  1.0051 -0.7067  0.9416
14421SOL    HW248584   9.044   4.921   3.363 -0.2908 -0.7307  1.4057
14422SOL     OW48585   8.701  10.407   7.817 -0.6605  0.2490  0.2816
14422SOL    HW148586   8.684  10.496   7.847  0.2440  0.6361 -0.3132
14422SOL    HW248587   8.624  10.357   7.843 -0.3809  0.7963  2.2648
14423SOL     OW48588   5.119   6.737   1.610  0.0513 -0.6154  0.0012
14423SOL    HW148589   5.145   6.750   1.701 -1.0725 -0.6216  0.3391
14423SOL    HW248590   5.131   6.823   1.570 -1.7328  0.0569  0.7762
14424SOL     OW48591   5.703   7.298   0.152 -0.2872 -0.3611  0.0470
14424SOL    HW148592   5.779   7.248   0.183  1.0629 -0.4749 -3.0608
14424SOL    HW248593   5.674   7.251   0.074 -1.5092  1.4946 -0.6711
14425SOL     OW48594   2.599   8.314   5.888 -0.0328 -0.3282  0.3758
14425SOL    HW148595   2.533   8.357   5.832 -0.1411 -0.4898  0.3783
14425SOL    HW248596   2.662   8.278   5.826 -0.1815 -0.5537  0.3560
14426SOL     OW48597   8.488   2.426  11.085 -0.3450  0.3993  0.2793
14426SOL    HW148598   8.422   2.486  11.051 -1.9409 -0.7470  1.1812
14426SOL    HW248599   8.503   2.454  11.175  1.1567  1.2251 -0.1926
14427SOL     OW48600   1.698   7.623   2.759 -0.8263  0.6144 -0.2526
14427SOL    HW148601   1.691   7.717   2.740  1.0799  0.6483 -1.0043
14427SOL    HW248602   1.789   7.602   2.739 -1.3083 -1.4792 -0.4196
14428SOL     OW48603   4.412   1.268   9.517 -0.1848  0.0799  0.0425
14428SOL    HW148604   4.454   1.278   9.602 -1.8639 -0.7663  1.0285
14428SOL    HW248605   4.434   1.179   9.490 -0.9761 -0.2338  0.3888
14429SOL     OW48606   0.983   9.810   0.638  0.5873 -0.6468  0.4274
14429SOL    HW148607   1.059   9.759   0.666  1.0662  1.6328  3.8790
14429SOL    HW248608   1.016   9.861   0.563  2.1833 -0.3949  1.2522
14430SOL     OW48609   2.796   4.342   5.134  0.2735 -0.1918 -0.2082
14430SOL    HW148610   2.834   4.254   5.141  2.0280  0.6455  2.9026
14430SOL    HW248611   2.861   4.392   5.086 -0.9915 -0.6095 -2.5063
14431SOL     OW48612   5.707   4.568   5.394  0.0002 -0.5786 -0.1933
14431SOL    HW148613   5.741   4.585   5.482  1.5188  0.9093 -1.0227
14431SOL    HW248614   5.748   4.634   5.339 -2.2131 -0.4193 -1.7677
14432SOL     OW48615   3.081  10.781   4.476 -0.3867  0.5342  0.2319
14432SOL    HW148616   3.015  10.765   4.408  0.2904 -3.3837  0.2631
14432SOL    HW248617   3.045  10.739   4.554  1.2677  0.0270  0.7578
14433SOL     OW48618   8.463   5.324   7.904 -0.0141 -0.2051  0.0185
14433SOL    HW148619   8.432   5.395   7.960  0.6648 -0.3492  0.5809
14433SOL    HW248620   8.552   5.307   7.933 -0.4109 -1.8057  0.3962
14434SOL     OW48621   9.293  10.407   7.241  0.5690  0.2545  0.3223
14434SOL    HW148622   9.301  10.463   7.318  0.2013 -0.4671  0.8951
14434SOL    HW248623   9.231  10.453   7.185  1.6679  1.3311 -0.0546
14435SOL     OW48624   9.152   9.238   1.336  0.5341  0.1259  0.1484
14435SOL    HW148625   9.210   9.269   1.267  1.6627  0.0316  1.0203
14435SOL    HW248626   9.211   9.203   1.403 -0.6175 -2.6766 -0.1845
14436SOL     OW48627   5.116   5.677   7.747 -0.0391 -0.3206  0.1189
14436SOL    HW148628   5.160   5.651   7.828  0.7937 -0.1437 -0.2639
14436SOL    HW248629   5.187   5.709   7.690 -0.5186 -1.0593 -0.9240
14437SOL     OW48630   7.292   0.872   0.996  0.1945 -0.0989  0.3460
14437SOL    HW148631   7.295   0.889   0.901  0.3294 -0.4217  0.2911
14437SOL    HW248632   7.377   0.901   1.028 -0.4599  1.5606  0.6374
14438SOL     OW48633   0.617   6.213   6.457  0.5187  0.0830  0.2221
14438SOL    HW148634   0.645   6.296   6.496 -1.5727  0.8889  0.1632
14438SOL    HW248635   0.585   6.161   6.531  0.7092 -0.1866  0.1157
14439SOL     OW48636   5.813  11.123  11.296 -0.0528 -0.4918  0.1836
14439SOL    HW148637   5.737  11.098  11.243  2.0866 -1.1003 -2.8510
14439SOL    HW248638   5.813  11.218  11.294  0.0806 -0.5069 -1.0931
14440SOL     OW48639   5.219   7.864   5.923 -0.3099 -0.2945 -0.6100
14440SOL    HW148640   5.296   7.917   5.905  0.4191 -1.3330 -0.6377
14440SOL    HW248641   5.145   7.923   5.910  0.4621  0.5982 -1.0052
14441SOL     OW48642  11.352   8.757   1.386 -0.6352 -0.4555  0.5209
14441SOL    HW148643  11.398   8.730   1.306 -1.4574  0.2079 -0.1857
14441SOL    HW248644  11.414   8.737   1.456  0.4123 -0.3318 -0.3375
14442SOL     OW48645  11.325  11.182   1.877  0.2373  0.1785  0.5752
14442SOL    HW148646  11.328  11.245   1.805  0.8548  0.5353  0.9040
14442SOL    HW248647  11.393  11.212   1.938 -1.8750  1.3131  2.5204
14443SOL     OW48648   6.532   7.372   8.511 -0.0265 -0.4443  0.1569
14443SOL    HW148649   6.569   7.296   8.466  1.3680 -0.0258  0.5424
14443SOL    HW248650   6.561   7.362   8.602  1.5933  1.3539 -0.0861
14444SOL     OW48651   2.466  10.128   3.457 -0.2636  0.0677  0.0817
14444SOL    HW148652   2.395  10.094   3.511  0.3135 -0.3030  0.6260
14444SOL    HW248653   2.541  10.072   3.478 -0.1762 -0.4870 -1.5705
14445SOL     OW48654   6.187   2.467   4.963 -0.0488 -0.5994  0.2732
14445SOL    HW148655   6.114   2.525   4.984 -0.8694 -1.4004 -0.2426
14445SOL    HW248656   6.255   2.488   5.027 -0.3738  0.8074  0.1901
14446SOL     OW48657   5.301   9.918   7.423  0.2957 -0.0308  0.7042
14446SOL    HW148658   5.298   9.852   7.492 -0.7123 -0.5796  0.1509
14446SOL    HW248659   5.391   9.914   7.390  0.9831  0.6475  2.3440
14447SOL     OW48660   2.311   7.785   5.733 -0.2527 -0.3317 -0.0977
14447SOL    HW148661   2.388   7.732   5.756 -0.1669 -0.6142 -1.0297
14447SOL    HW248662   2.343   7.848   5.669 -0.5477  0.3022  0.3694
14448SOL     OW48663   4.711   5.311   1.273 -0.4989 -0.7398 -0.2079
14448SOL    HW148664   4.701   5.230   1.223 -0.5624 -0.3681 -0.8087
14448SOL    HW248665   4.796   5.345   1.245 -0.0001 -1.1115  0.8077
14449SOL     OW48666   5.900   1.548   0.546  0.1015  0.4486 -0.6772
14449SOL    HW148667   5.833   1.610   0.575 -0.7173  0.3353 -2.2632
14449SOL    HW248668   5.932   1.584   0.464  2.2442  0.6516  0.1859
14450SOL     OW48669   6.773   6.624   9.076 -0.2085  0.0536 -0.3891
14450SOL    HW148670   6.685   6.617   9.038 -0.1252 -2.0631 -0.3257
14450SOL    HW248671   6.830   6.579   9.014  0.3719 -0.9436  0.8107
14451SOL     OW48672   5.470   6.755  10.025  0.2003  0.4024  0.3953
14451SOL    HW148673   5.461   6.740   9.931 -1.0488 -2.5516  0.8849
14451SOL    HW248674   5.563   6.774  10.037  0.7799 -1.0544 -1.2570
14452SOL     OW48675   4.968   0.177   7.553 -0.2965  0.0242  0.0916
14452SOL    HW148676   4.923   0.236   7.614  0.5438  0.2867  0.4847
14452SOL    HW248677   4.921   0.094   7.560 -0.9929  0.4179  0.1458
14453SOL     OW48678   1.154   5.752  11.398 -0.2589  0.4505 -0.0574
14453SOL    HW148679   1.153   5.845  11.376  0.1804  0.5583  0.3468
14453SOL    HW248680   1.064   5.731  11.421 -0.5563  0.5399 -1.0800
14454SOL     OW48681   9.541  10.372   5.313 -0.2553  0.1580  0.6112
14454SOL    HW148682   9.607  10.328   5.259  0.2823  0.8089  0.7333
14454SOL    HW248683   9.458  10.348   5.272  0.1337  0.5468 -0.4428
14455SOL     OW48684   5.963   9.461   5.592  0.5805 -0.4619  0.1445
14455SOL    HW148685   5.956   9.408   5.671  0.8161 -0.8103 -0.0691
14455SOL    HW248686   6.002   9.543   5.621 -0.2718 -0.1966  0.5707
14456SOL     OW48687   1.157   2.903  11.322 -0.0677  0.4688 -0.1957
14456SOL    HW148688   1.178   2.917  11.414 -0.1924  0.4119 -0.1579
14456SOL    HW248689   1.152   2.991  11.285 -0.1884  0.4972 -0.1101
14457SOL     OW48690  10.006   5.130   0.625 -0.0097 -0.5337  0.3908
14457SOL    HW148691  10.096   5.110   0.651 -0.0036 -0.7685  0.2021
14457SOL    HW248692   9.981   5.205   0.678 -0.2038 -1.3462  1.4914
14458SOL     OW48693   4.868   7.427   2.096 -0.0517  0.1860 -0.4509
14458SOL    HW148694   4.947   7.412   2.045 -0.9432 -0.4511 -1.6834
14458SOL    HW248695   4.821   7.344   2.093 -1.0160  0.7085 -0.1711
14459SOL     OW48696   7.108   2.601   2.136 -0.5169 -0.2101 -0.0982
14459SOL    HW148697   7.059   2.561   2.065 -1.4237  2.7973 -1.3167
14459SOL    HW248698   7.161   2.669   2.094 -0.2831  0.9702  1.9421
14460SOL     OW48699  10.870   5.145   6.203 -0.0827 -0.1072 -0.6045
14460SOL    HW148700  10.781   5.181   6.194 -0.3872 -0.6481  0.1502
14460SOL    HW248701  10.898   5.130   6.113 -1.8126 -2.4111 -0.8799
14461SOL     OW48702   1.187   5.293   8.315 -0.1575  0.0830  0.3466
14461SOL    HW148703   1.277   5.262   8.303 -0.3130 -0.1517 -0.2207
14461SOL    HW248704   1.190   5.342   8.398  0.6450  0.6295  0.0059
14462SOL     OW48705   8.254   3.289   5.683  0.8044 -0.1524  0.6142
14462SOL    HW148706   8.243   3.238   5.763  1.0519  0.7476  1.2432
14462SOL    HW248707   8.334   3.340   5.698  0.2327  0.8833  0.2868
14463SOL     OW48708   0.323   1.641   9.406 -0.3931 -0.8974 -0.2852
14463SOL    HW148709   0.407   1.613   9.444 -0.2861 -1.9321 -1.2305
14463SOL    HW248710   0.304   1.575   9.340 -2.5981 -1.3813  0.7482
14464SOL     OW48711   6.812   1.080   0.096  0.4356 -1.0604 -0.3141
14464SOL    HW148712   6.902   1.058   0.073  1.2510  0.7476  0.9045
14464SOL    HW248713   6.800   1.041   0.183  0.8443  0.5580  0.5010
14465SOL     OW48714   3.848  11.749   0.499  0.4596  0.5876  0.1513
14465SOL    HW148715   3.840  11.817   0.567  2.0648  0.3087  0.6532
14465SOL    HW248716   3.824  11.668   0.544 -0.2985  0.6490 -0.1310
14466SOL     OW48717   1.510   4.166  10.149 -0.2348  0.5768  0.1599
14466SOL    HW148718   1.591   4.201  10.185  0.3773 -0.5172 -0.1125
14466SOL    HW248719   1.474   4.237  10.096  1.2407  0.6324 -0.8212
14467SOL     OW48720   2.922  10.834   1.057  1.1002 -0.5521 -0.3433
14467SOL    HW148721   2.951  10.743   1.060  1.0319 -0.5871 -0.6782
14467SOL    HW248722   2.988  10.882   1.106  2.3227 -0.4812 -1.9727
14468SOL     OW48723   8.392   6.467  11.739  0.4567 -0.4929 -0.0409
14468SOL    HW148724   8.318   6.429  11.787 -0.0715 -0.0754 -0.5196
14468SOL    HW248725   8.429   6.531  11.800  0.4314 -0.7032  0.2000
14469SOL     OW48726   1.607   4.877   9.968 -0.5279 -0.3944 -0.2733
14469SOL    HW148727   1.512   4.874   9.978 -0.4027 -0.4954  1.0356
14469SOL    HW248728   1.640   4.892  10.056  0.6586  0.1648 -0.7907
14470SOL     OW48729   8.964   0.403   8.994  0.1070 -0.3093  0.5714
14470SOL    HW148730   8.959   0.433   9.085 -0.6225  2.0073 -0.1386
14470SOL    HW248731   8.874   0.409   8.962  0.4493 -0.4887 -0.4685
14471SOL     OW48732   6.626   1.034   2.442 -0.0215 -0.0461 -0.1031
14471SOL    HW148733   6.593   1.045   2.352 -0.4475 -0.2764  0.0250
14471SOL    HW248734   6.682   1.111   2.456  0.5022 -0.3016 -0.7699
14472SOL     OW48735   6.794  11.802   4.608  0.3738  0.3610  0.4593
14472SOL    HW148736   6.746  11.867   4.659  1.6718  0.5528  1.4951
14472SOL    HW248737   6.865  11.774   4.666  0.3020 -1.4135 -0.2717
14473SOL     OW48738   9.759   1.922  11.499  0.1572  0.0161  0.1420
14473SOL    HW148739   9.841   1.962  11.468 -0.1794  1.1168  0.6392
14473SOL    HW248740   9.710   1.905  11.418  0.0262  1.2518 -0.0661
14474SOL     OW48741   7.726   5.683   6.705 -0.3845  0.2624 -0.4281
14474SOL    HW148742   7.701   5.595   6.677 -0.5537  0.6202 -1.4282
14474SOL    HW248743   7.821   5.680   6.710 -0.4464 -0.3225  0.7535
14475SOL     OW48744   5.589   2.977  11.539 -0.1497 -0.7429 -0.0238
14475SOL    HW148745   5.655   2.907  11.539  0.9471  0.2510  1.0243
14475SOL    HW248746   5.579   3.001  11.631 -2.0807 -0.9216 -0.1477
14476SOL     OW48747   2.790   5.751   9.488  0.2103 -0.4155  0.0423
14476SOL    HW148748   2.858   5.763   9.554  3.6310 -0.3862 -3.1055
14476SOL    HW248749   2.795   5.658   9.466  0.0266 -0.1931 -0.9812
14477SOL     OW48750  10.715  11.298   5.519 -0.0496  0.3748 -0.1566
14477SOL    HW148751  10.665  11.281   5.600  0.4363 -0.9453 -0.1132
14477SOL    HW248752  10.799  11.332   5.550 -0.5497  1.7064 -0.1974
14478SOL     OW48753   2.320   4.908   5.501 -0.3971 -0.4833 -0.1937
14478SOL    HW148754   2.370   4.830   5.478 -0.6410 -0.9851  0.9007
14478SOL    HW248755   2.359   4.938   5.583  1.6174  2.2552 -1.9472
14479SOL     OW48756   1.842   5.997   3.504  0.0083 -0.5502  0.2923
14479SOL    HW148757   1.750   5.973   3.514 -0.0169 -0.8377 -0.5922
14479SOL    HW248758   1.862   5.981   3.412  1.0860 -0.9816  0.5877
14480SOL     OW48759   2.883   8.589   1.228 -0.4228  0.4565  0.5431
14480SOL    HW148760   2.823   8.555   1.294 -1.6496 -0.6507 -1.0607
14480SOL    HW248761   2.827   8.640   1.169  0.1447 -0.6963 -1.0573
14481SOL     OW48762   8.957   5.394   5.049 -1.0582  0.3219  0.5530
14481SOL    HW148763   8.981   5.480   5.015  1.3437 -0.6574 -0.4050
14481SOL    HW248764   8.983   5.396   5.141  2.7605 -0.5773 -0.3581
14482SOL     OW48765   0.744   8.007   9.399  0.1725  0.6435  0.4155
14482SOL    HW148766   0.685   8.066   9.352  0.2683  0.5326  0.1574
14482SOL    HW248767   0.830   8.050   9.394  0.3393  0.2420 -0.1947
14483SOL     OW48768   4.001   3.732   7.113  0.2469 -0.0853 -0.3577
14483SOL    HW148769   3.963   3.684   7.186  1.1214 -0.6036 -0.2283
14483SOL    HW248770   3.934   3.795   7.088  0.9251  2.0338  2.6641
14484SOL     OW48771   4.025   2.960  10.799  0.1074  0.3368 -0.0251
14484SOL    HW148772   4.016   2.903  10.876 -1.4738  0.6945  0.0873
14484SOL    HW248773   4.011   2.901  10.725 -2.3623  0.6395  0.1115
14485SOL     OW48774   7.223   8.644   0.636 -0.3155  0.2337 -0.3722
14485SOL    HW148775   7.294   8.707   0.619  0.2921 -0.6223 -1.1440
14485SOL    HW248776   7.202   8.656   0.728  2.1674 -0.7986  0.3978
14486SOL     OW48777   4.182   8.908   8.452  0.2948 -0.0107 -0.0004
14486SOL    HW148778   4.276   8.922   8.458  0.1641  1.0139 -0.1099
14486SOL    HW248779   4.162   8.845   8.521  0.9903  0.1613  0.3668
14487SOL     OW48780  10.388   2.135  10.159  0.0967  0.3505  0.6023
14487SOL    HW148781  10.449   2.061  10.156  0.6481  0.8283 -0.6649
14487SOL    HW248782  10.444   2.211  10.180 -0.2744  0.6047  0.6779
14488SOL     OW48783   9.973   7.430   3.631 -0.0045 -0.1429  0.1188
14488SOL    HW148784   9.882   7.410   3.607 -0.2328  0.4275  0.4674
14488SOL    HW248785   9.986   7.520   3.600 -0.3847  0.7214  2.2420
14489SOL     OW48786   9.721   5.583   7.162 -0.5451 -0.0594  0.2211
14489SOL    HW148787   9.716   5.678   7.150  0.2665  0.0206  0.4435
14489SOL    HW248788   9.698   5.547   7.076  1.0795  0.4033 -0.4390
14490SOL     OW48789   0.278   9.813   9.075  0.1067  0.2470 -0.2566
14490SOL    HW148790   0.284   9.724   9.109  0.1397 -0.3919 -1.8619
14490SOL    HW248791   0.245   9.803   8.986  0.4561  1.8123 -0.5996
14491SOL     OW48792   8.682   6.747   6.492  0.4607  0.0810 -0.5462
14491SOL    HW148793   8.777   6.730   6.492  0.7494  1.5407 -0.3516
14491SOL    HW248794   8.672   6.828   6.442 -0.5573  0.5372  0.3481
14492SOL     OW48795   7.033   8.108   8.353  0.2401  0.4901  0.0184
14492SOL    HW148796   7.044   8.129   8.445  1.4251 -3.0186  0.8102
14492SOL    HW248797   7.109   8.148   8.310  0.3285  1.0978  0.7317
14493SOL     OW48798   2.497   6.560   5.239  0.2733 -0.0979  0.2433
14493SOL    HW148799   2.551   6.633   5.211 -0.4924 -0.0840 -1.2737
14493SOL    HW248800   2.508   6.494   5.170 -0.7708 -0.5275  0.4688
14494SOL     OW48801   1.293   8.949   3.690  0.3332 -0.4008  0.4456
14494SOL    HW148802   1.255   8.980   3.772  0.0079 -0.4208  0.3039
14494SOL    HW248803   1.257   9.007   3.623 -0.1016 -0.9339  0.2066
14495SOL     OW48804   5.057   5.983   6.380  0.0340 -0.0437  0.0679
14495SOL    HW148805   5.090   5.981   6.291 -0.6082 -0.0711 -0.1728
14495SOL    HW248806   5.135   5.975   6.435  0.4336  0.0291 -0.4881
14496SOL     OW48807   6.817   5.957  11.527  0.4679 -0.5864 -0.3345
14496SOL    HW148808   6.815   6.007  11.445  0.4375 -0.6546 -0.3754
14496SOL    HW248809   6.846   6.020  11.593 -1.2224 -0.0404 -0.0575
14497SOL     OW48810   6.119   5.401   3.572 -0.0278  0.4759 -0.1980
14497SOL    HW148811   6.033   5.374   3.540  0.5276  0.0369 -1.3435
14497SOL    HW248812   6.126   5.494   3.547 -0.1665  0.5168 -0.0887
14498SOL     OW48813   6.211   5.480   9.358  0.0932 -0.4949 -0.6195
14498SOL    HW148814   6.141   5.417   9.345 -0.4100 -1.0093  3.2352
14498SOL    HW248815   6.201   5.543   9.287 -0.7618 -3.4460 -3.3495
14499SOL     OW48816   0.860   3.304   4.798  0.6555 -0.0417  0.1945
14499SOL    HW148817   0.924   3.252   4.846  1.9056  0.0674 -1.2607
14499SOL    HW248818   0.888   3.395   4.810  0.3781  0.0564  0.1144
14500SOL     OW48819   4.527   2.558   5.889  0.3132 -0.2435 -0.0430
14500SOL    HW148820   4.573   2.572   5.807  0.0982  0.6453 -0.0249
14500SOL    HW248821   4.445   2.606   5.879  1.5610  2.5324  1.7935
14501SOL     OW48822   6.684   0.418   9.561 -0.0000  0.2271 -0.6022
14501SOL    HW148823   6.612   0.470   9.596  0.4813  1.0773 -0.8430
14501SOL    HW248824   6.691   0.344   9.621 -3.4649 -1.9872 -2.5458
14502SOL     OW48825  10.374   6.549   1.622 -0.3167 -0.3150 -0.0832
14502SOL    HW148826  10.295   6.536   1.674  0.5154  0.3983  1.3927
14502SOL    HW248827  10.436   6.591   1.681  1.2036 -0.8901 -1.1952
14503SOL     OW48828   6.579  11.573   2.429 -0.4519  0.4840  0.4221
14503SOL    HW148829   6.654  11.632   2.436 -1.4375  1.6419  2.1723
14503SOL    HW248830   6.606  11.493   2.473  0.2609  0.2857 -0.3404
14504SOL     OW48831   3.101   0.878   1.442 -0.5788  0.5966  0.9513
14504SOL    HW148832   3.157   0.802   1.458 -1.2186 -0.3577 -1.0500
14504SOL    HW248833   3.147   0.928   1.375 -1.4332  0.5411  0.3090
14505SOL     OW48834   6.089   8.077   2.536 -0.2456 -0.3290  0.2121
14505SOL    HW148835   6.119   8.032   2.457 -0.3347 -0.9995  0.5560
14505SOL    HW248836   6.167   8.084   2.591 -0.2965 -0.3335  0.2844
14506SOL     OW48837   8.598   4.041   2.882 -0.3352  0.1353 -0.3918
14506SOL    HW148838   8.604   3.952   2.918  0.3388 -0.3167 -1.5666
14506SOL    HW248839   8.548   4.090   2.948 -1.5708 -1.3462 -0.1656
14507SOL     OW48840  10.496   6.153  10.086 -0.2891  0.1180 -0.1445
14507SOL    HW148841  10.578   6.191  10.118 -0.1566  1.2232 -1.6996
14507SOL    HW248842  10.432   6.224  10.095 -1.1664 -0.7855  1.2214
14508SOL     OW48843   7.194   5.082  10.728 -0.2041 -0.1903 -0.3057
14508SOL    HW148844   7.213   5.050  10.640 -1.3976  0.0622 -0.6762
14508SOL    HW248845   7.160   5.006  10.774 -0.2983 -0.1433 -0.2973
14509SOL     OW48846   9.998  10.684   1.739 -0.0307 -0.4862  0.2238
14509SOL    HW148847   9.990  10.592   1.763  0.9404 -0.7169 -0.2424
14509SOL    HW248848  10.073  10.716   1.789  0.5043 -0.3339 -0.6468
14510SOL     OW48849   1.118   4.286  11.422 -0.8915 -0.4274 -0.0217
14510SOL    HW148850   1.083   4.209  11.468  0.4069 -0.6579  0.6511
14510SOL    HW248851   1.209   4.291  11.451 -1.0728  1.6562  0.3219
14511SOL     OW48852   3.964   1.689   4.172 -0.3194  0.4981  0.4903
14511SOL    HW148853   3.892   1.713   4.229  0.1255  1.3729  0.7004
14511SOL    HW248854   3.987   1.770   4.126 -0.3760 -0.0836 -0.6084
14512SOL     OW48855  10.924  10.800   6.622  0.2750 -0.2992  0.3186
14512SOL    HW148856  10.952  10.830   6.536  0.8597 -0.8525  0.3097
14512SOL    HW248857  10.966  10.715   6.633 -0.0618 -0.3857  1.0135
14513SOL     OW48858   9.768   9.449   9.097  0.2546  0.1978  0.1186
14513SOL    HW148859   9.830   9.452   9.170  1.2855 -1.4324 -0.6251
14513SOL    HW248860   9.794   9.372   9.047 -1.0093  0.7404 -1.4669
14514SOL     OW48861   9.673   7.973  10.892  0.0710  0.1834 -0.7366
14514SOL    HW148862   9.584   7.964  10.859 -0.1579 -0.1257 -0.0591
14514SOL    HW248863   9.721   8.014  10.820 -0.2458 -1.0788 -1.6958
14515SOL     OW48864  10.161   2.817   3.842 -0.1780 -0.1420 -0.0466
14515SOL    HW148865  10.136   2.823   3.750 -1.6076 -1.1912  0.2432
14515SOL    HW248866  10.110   2.885   3.885 -2.4803 -2.0968  0.5022
14516SOL     OW48867   7.118   6.640   8.277 -0.2626 -0.0036  0.0181
14516SOL    HW148868   7.161   6.670   8.357 -1.5559  0.2584  0.6290
14516SOL    HW248869   7.032   6.683   8.278 -0.7620 -0.9428 -0.9054
14517SOL     OW48870  11.622   4.512   0.595 -0.4600 -0.3724 -0.3615
14517SOL    HW148871  11.551   4.508   0.660  0.1062 -0.8305  0.2405
14517SOL    HW248872  11.621   4.603   0.565  0.1461  0.2306  1.3108
14518SOL     OW48873   1.621   1.572   6.625 -0.0340  0.7123 -0.2768
14518SOL    HW148874   1.562   1.496   6.628 -0.7903  1.2736 -0.4308
14518SOL    HW248875   1.656   1.571   6.536  0.6940  0.0130  0.0085
14519SOL     OW48876   8.847   5.127  10.853 -0.3701  0.7174  0.6763
14519SOL    HW148877   8.839   5.188  10.780 -0.1091  0.3930  0.3737
14519SOL    HW248878   8.913   5.165  10.911  2.0844 -0.7278 -0.9952
14520SOL     OW48879  11.633   3.255   2.531  0.3502 -0.3915 -0.4374
14520SOL    HW148880  11.644   3.168   2.493  1.2591 -1.9842  3.1190
14520SOL    HW248881  11.641   3.242   2.625 -1.2118  3.3279  0.3875
14521SOL     OW48882   7.410   2.033   2.985  0.0087 -0.1542 -0.1071
14521SOL    HW148883   7.325   2.054   2.946  1.2213  2.3300 -1.6567
14521SOL    HW248884   7.472   2.039   2.913  1.5192 -2.4652  0.8654
14522SOL     OW48885  10.884   6.485   5.892 -0.0606  0.4508  0.1016
14522SOL    HW148886  10.830   6.565   5.891 -1.4194 -0.3878  1.5636
14522SOL    HW248887  10.974   6.517   5.895 -0.3131  1.9196 -3.2946
14523SOL     OW48888   5.183   1.799  11.732  0.0149 -0.3522  0.0291
14523SOL    HW148889   5.262   1.775  11.782 -0.3025  0.1527  0.7993
14523SOL    HW248890   5.216   1.833  11.649  0.6462  0.4221  0.5839
14524SOL     OW48891   3.773  11.195   9.921  0.1853 -0.4753 -0.2588
14524SOL    HW148892   3.820  11.184   9.839 -1.7408 -1.7284 -1.2799
14524SOL    HW248893   3.821  11.263   9.968  1.3989  0.2015 -2.3655
14525SOL     OW48894   7.444   2.448  11.083 -0.1056  0.2000  0.2785
14525SOL    HW148895   7.387   2.517  11.049  0.3601  0.2350 -0.4695
14525SOL    HW248896   7.530   2.489  11.087  0.3790 -0.6154 -1.1526
14526SOL     OW48897   9.708   7.302  11.785 -0.3579  0.0632  0.0798
14526SOL    HW148898   9.742   7.216  11.762  1.7485  0.6870  0.6270
14526SOL    HW248899   9.675   7.292  11.874 -1.1285 -0.4178 -0.2506
14527SOL     OW48900   3.613   1.157   4.464  0.1983  0.1796 -0.0821
14527SOL    HW148901   3.692   1.208   4.445  1.9299 -1.4115  2.2530
14527SOL    HW248902   3.625   1.075   4.416 -1.1848  0.7655 -1.5145
14528SOL     OW48903   8.852   6.961   4.231 -0.1295  0.3059 -0.0940
14528SOL    HW148904   8.803   6.934   4.309 -0.1129  0.5826  0.0111
14528SOL    HW248905   8.900   6.882   4.205 -1.4479 -0.3054 -0.8318
14529SOL     OW48906  10.083   6.932   0.278  0.0155 -0.0123  0.4860
14529SOL    HW148907  10.127   6.849   0.294  2.3547  1.0135 -0.1575
14529SOL    HW248908  10.087   6.943   0.183 -3.7468 -0.8880  0.0885
14530SOL     OW48909   9.224   1.997   0.874  0.1445  0.2710  0.5123
14530SOL    HW148910   9.150   1.936   0.871 -0.3275  0.8571 -0.7504
14530SOL    HW248911   9.207   2.051   0.951 -0.8949  0.5629  0.1003
14531SOL     OW48912  10.704   1.518   8.598  0.1646 -0.2389 -0.2345
14531SOL    HW148913  10.639   1.462   8.640 -1.5823 -0.8631 -3.4257
14531SOL    HW248914  10.788   1.482   8.625 -0.8322 -1.4809  1.4179
14532SOL     OW48915   6.715  11.249   5.154  0.3810  1.1273  0.3480
14532SOL    HW148916   6.797  11.200   5.154  0.2337  0.7169 -2.1571
14532SOL    HW248917   6.659  11.201   5.092 -1.2589  2.1800  0.9448
14533SOL     OW48918  11.133   1.986   7.347 -0.1244  0.0588 -0.8867
14533SOL    HW148919  11.079   1.910   7.327  0.9748 -1.0779  0.3266
14533SOL    HW248920  11.153   1.979   7.440  0.5463  1.4736 -0.8864
14534SOL     OW48921   0.987  11.469   4.732  0.7418 -0.1993  0.3148
14534SOL    HW148922   1.073  11.435   4.708  1.2834  0.8563  0.7325
14534SOL    HW248923   0.937  11.391   4.758  1.4905 -0.8421 -0.1230
14535SOL     OW48924   8.694  10.716   0.486  0.2979 -0.0076 -0.3263
14535SOL    HW148925   8.788  10.698   0.480  0.4796  0.7083  0.1839
14535SOL    HW248926   8.687  10.786   0.551 -0.4794  0.7113 -1.1486
14536SOL     OW48927   6.437   6.714   1.540 -0.0489 -0.2669  0.6478
14536SOL    HW148928   6.493   6.790   1.523 -0.8520  0.2462  0.2394
14536SOL    HW248929   6.498   6.646   1.567  0.6098  0.7682  1.8819
14537SOL     OW48930   1.015   7.938  10.939  0.1123 -0.1824  0.3266
14537SOL    HW148931   0.999   7.984  10.857 -1.0514  0.6372  0.9784
14537SOL    HW248932   0.967   7.855  10.930  0.6449 -0.4461 -0.1197
14538SOL     OW48933   5.734   9.150  10.125 -0.3715  0.0397  0.3727
14538SOL    HW148934   5.640   9.166  10.133 -0.7781 -2.1715  0.4919
14538SOL    HW248935   5.748   9.136  10.031 -1.2655 -5.0330  0.7252
14539SOL     OW48936   9.228  11.382   7.797 -0.3247  0.4396  0.9349
14539SOL    HW148937   9.301  11.426   7.839 -0.0729 -0.4118  1.4200
14539SOL    HW248938   9.247  11.386   7.703  0.8144 -0.5667  1.1052
14540SOL     OW48939   5.981   7.975   6.300  0.4722 -0.4394  0.7880
14540SOL    HW148940   6.016   7.986   6.212 -1.4152  2.0781  0.2093
14540SOL    HW248941   5.904   7.919   6.289  0.6385 -0.6997  0.9510
14541SOL     OW48942   9.080   1.547   5.103  0.1219  0.1161  0.0227
14541SOL    HW148943   9.139   1.619   5.080  2.4974 -1.8090 -0.2627
14541SOL    HW248944   8.993   1.581   5.083  0.9963  3.3348  1.0824
14542SOL     OW48945   3.614   8.047   0.519  0.1385 -0.2671  0.2522
14542SOL    HW148946   3.577   8.088   0.441  1.9516 -0.3289 -0.7002
14542SOL    HW248947   3.574   7.960   0.522  0.5238 -0.5058 -1.0149
14543SOL     OW48948   1.173  10.972   2.259 -0.0881  0.2931 -0.2347
14543SOL    HW148949   1.216  10.904   2.208 -0.6927 -0.9834  0.9105
14543SOL    HW248950   1.089  10.985   2.216  0.0999  0.4700 -0.5581
14544SOL     OW48951   3.791   3.599   9.386  0.0443  0.2403  0.4861
14544SOL    HW148952   3.800   3.688   9.420  0.5406 -0.2191  1.6123
14544SOL    HW248953   3.831   3.544   9.453 -1.7827 -0.9983  0.6466
14545SOL     OW48954   5.664   4.763   2.464 -0.5865 -0.3245 -0.7591
14545SOL    HW148955   5.614   4.813   2.529 -0.3752 -0.3733 -0.5559
14545SOL    HW248956   5.741   4.733   2.512 -0.3312 -0.1928 -1.0898
14546SOL     OW48957   0.251  10.307   3.824  0.1348 -0.0574  0.7049
14546SOL    HW148958   0.283  10.333   3.738  0.2868  0.0029  0.7784
14546SOL    HW248959   0.188  10.375   3.848 -1.1755 -0.9713 -0.0897
14547SOL     OW48960  10.143   7.761  11.522  0.3895  0.0820  0.5932
14547SOL    HW148961  10.054   7.795  11.519  0.5763  0.5431  0.1391
14547SOL    HW248962  10.161   7.750  11.615  0.0568  0.5171  0.7140
14548SOL     OW48963   5.426   6.329   5.170  0.0783 -0.1024 -0.5544
14548SOL    HW148964   5.515   6.359   5.153 -1.0011  2.6806 -1.7604
14548SOL    HW248965   5.380   6.343   5.088 -1.4202 -1.8707 -0.0691
14549SOL     OW48966   0.730   6.268  11.281 -0.3360  0.1012 -0.1194
14549SOL    HW148967   0.667   6.327  11.323 -0.3656  1.0298 -1.4080
14549SOL    HW248968   0.678   6.218  11.218  0.0817  0.3313 -0.6542
14550SOL     OW48969   9.099   7.501   0.600 -0.0723  0.1019  0.0920
14550SOL    HW148970   9.085   7.451   0.520  1.5837 -1.9293  0.9620
14550SOL    HW248971   9.193   7.521   0.599 -0.1099  0.4190  1.3240
14551SOL     OW48972   5.214   2.107   1.550 -0.3812  0.5858 -0.3442
14551SOL    HW148973   5.291   2.058   1.524  0.7561  2.8905 -1.6007
14551SOL    HW248974   5.225   2.122   1.644  0.5679  0.7168 -0.4764
14552SOL     OW48975   5.690   1.100   5.432 -0.0937  0.1659 -0.2296
14552SOL    HW148976   5.675   1.007   5.449  2.6038 -0.6763 -1.8625
14552SOL    HW248977   5.751   1.127   5.500  2.2635 -0.4121 -1.9762
14553SOL     OW48978   2.569   3.318   3.580  0.7460  0.1423  0.1054
14553SOL    HW148979   2.486   3.311   3.533  0.9720  0.7858 -0.4113
14553SOL    HW248980   2.632   3.348   3.514  1.3119  0.0064  0.5692
14554SOL     OW48981   7.097  10.089  10.628 -0.0941  0.1309 -0.2342
14554SOL    HW148982   7.085  10.172  10.675 -2.5560 -0.3463  0.1213
14554SOL    HW248983   7.094  10.113  10.536 -1.1118  0.4484 -0.1366
14555SOL     OW48984   9.287   1.371   5.172  0.3563 -0.0382 -0.1628
14555SOL    HW148985   9.332   1.434   5.229 -1.2958 -0.4890  1.7817
14555SOL    HW248986   9.210   1.419   5.141  0.3455 -0.3508 -0.6225
14556SOL     OW48987   9.159   7.075   4.159  0.4676  0.4564  0.0840
14556SOL    HW148988   9.193   7.007   4.101  1.2020  0.4678  0.4801
14556SOL    HW248989   9.069   7.049   4.178  0.6094 -0.1788 -0.1002
14557SOL     OW48990   9.917   9.532   3.118  0.4683 -0.0632  0.0506
14557SOL    HW148991   9.873   9.447   3.115  1.2533 -0.4501 -1.8401
14557SOL    HW248992  10.003   9.513   3.154  0.4026  0.0559  0.2719
14558SOL     OW48993   5.122   3.060   2.982 -0.2486  0.2073  0.3118
14558SOL    HW148994   5.102   3.128   3.047  1.1464 -0.1613  1.1775
14558SOL    HW248995   5.208   3.084   2.949  1.3575 -2.3117  2.3208
14559SOL     OW48996  11.757   6.632   7.326  0.4057 -0.3827  0.0135
14559SOL    HW148997  11.688   6.578   7.287 -1.1891  0.1368  1.9686
14559SOL    HW248998  11.808   6.571   7.379  0.8832 -0.6027 -0.6927
14560SOL     OW48999   5.438   8.453   2.399 -0.2581  0.3225  0.3756
14560SOL    HW149000   5.464   8.440   2.490 -1.9525  3.5657  1.5103
14560SOL    HW249001   5.353   8.410   2.391  0.6931 -1.5274 -0.2966
14561SOL     OW49002   3.366   8.321   6.747 -0.4083  0.1420 -0.0244
14561SOL    HW149003   3.302   8.365   6.803  0.0786  2.5681 -1.2411
14561SOL    HW249004   3.319   8.243   6.714 -1.7255  0.3191  1.3010
14562SOL     OW49005   1.068   2.682   0.395  0.2519  0.3663 -0.2994
14562SOL    HW149006   1.124   2.757   0.378 -0.0713  0.3006 -1.7542
14562SOL    HW249007   0.988   2.720   0.433 -0.2912  0.8973 -1.8843
14563SOL     OW49008   7.560   2.262   5.229 -0.1679  0.1963 -0.3683
14563SOL    HW149009   7.480   2.219   5.199  1.2003 -2.6087 -0.2878
14563SOL    HW249010   7.563   2.344   5.179 -2.5391 -0.0724 -1.0811
14564SOL     OW49011   8.850  10.805   6.114  0.5886 -0.0752  0.1033
14564SOL    HW149012   8.832  10.809   6.208  1.6355  0.3665  0.2912
14564SOL    HW249013   8.770  10.840   6.073  0.3840  0.3576  0.8561
14565SOL     OW49014   1.211   7.607   8.611  0.2781  0.1059 -0.7407
14565SOL    HW149015   1.247   7.652   8.534  0.1404 -0.6413 -1.2557
14565SOL    HW249016   1.122   7.582   8.584 -1.0479  2.7199  0.8141
14566SOL     OW49017   4.182  10.175   3.623  0.4768 -0.2615 -0.0100
14566SOL    HW149018   4.092  10.142   3.618  0.4285 -0.0688 -0.4806
14566SOL    HW249019   4.226  10.116   3.684 -0.2267  0.2272  0.9895
14567SOL     OW49020  11.135   2.802   4.368 -0.2276  0.0712  0.0379
14567SOL    HW149021  11.162   2.885   4.406 -0.5650 -0.0477  0.5531
14567SOL    HW249022  11.116   2.746   4.443 -0.6765 -0.2447 -0.2996
14568SOL     OW49023   0.365   1.538   5.088  0.1216  0.0842 -0.3337
14568SOL    HW149024   0.349   1.602   5.157  1.0050  0.9453 -0.9122
14568SOL    HW249025   0.459   1.522   5.091  0.0784 -0.3086 -0.9583
14569SOL     OW49026  11.163   9.976   4.833  0.0290 -0.4743 -0.2645
14569SOL    HW149027  11.180  10.046   4.770 -0.4114  0.7273  0.9183
14569SOL    HW249028  11.238   9.979   4.893  0.3376 -1.4663 -0.5787
14570SOL     OW49029   1.577  10.871   8.788 -0.5072  0.1089  0.2392
14570SOL    HW149030   1.524  10.934   8.837 -1.2878  0.8232 -1.4165
14570SOL    HW249031   1.513  10.827   8.731  0.2704 -1.0817  0.2634
14571SOL     OW49032   7.517   4.203   2.384  0.0316  0.6891  0.6975
14571SOL    HW149033   7.607   4.226   2.360 -0.0207  1.1175  0.8941
14571SOL    HW249034   7.511   4.109   2.367 -0.0985  1.0134 -1.3260
14572SOL     OW49035   6.032   1.396   4.328 -0.2084 -0.0909 -0.3572
14572SOL    HW149036   5.984   1.372   4.248 -1.4700 -0.0121  0.3522
14572SOL    HW249037   5.965   1.432   4.386  0.9139  1.0617  0.2627
14573SOL     OW49038   3.994  10.886   7.596 -0.8270 -0.4730  0.6328
14573SOL    HW149039   3.959  10.970   7.566  0.1609 -0.0103  0.7114
14573SOL    HW249040   3.986  10.828   7.521 -1.4328 -0.2786  0.5461
14574SOL     OW49041   1.922   4.047   1.798  0.4605  0.3893  0.7132
14574SOL    HW149042   1.906   4.138   1.774  0.5943  0.1733 -0.2180
14574SOL    HW249043   1.849   3.998   1.761  1.6964 -0.2086 -1.0616
14575SOL     OW49044   3.993   5.240   9.226 -0.5813  0.7053  0.3833
14575SOL    HW149045   3.916   5.256   9.280 -0.3169  1.7745  0.4677
14575SOL    HW249046   3.958   5.212   9.142 -1.0303  0.2378  0.7188
14576SOL     OW49047   7.718   4.056   6.516 -0.0779 -0.0165 -0.5041
14576SOL    HW149048   7.683   3.971   6.490 -0.6667 -0.2350  0.9085
14576SOL    HW249049   7.640   4.108   6.538  0.3571  0.0939  0.9017
14577SOL     OW49050   3.379   5.836   2.866  0.0391 -0.1258 -0.2710
14577SOL    HW149051   3.464   5.857   2.828 -1.0267  1.6925 -1.8236
14577SOL    HW249052   3.395   5.829   2.960  1.8965  0.1061 -0.5418
14578SOL     OW49053   8.627  10.561   8.220  0.1864 -1.2545 -0.1777
14578SOL    HW149054   8.582  10.478   8.203  1.4574 -1.6695 -1.7592
14578SOL    HW249055   8.713  10.536   8.252  0.1353 -0.5159  0.5598
14579SOL     OW49056   3.629   0.651   2.588 -0.4884 -0.0886  0.4577
14579SOL    HW149057   3.682   0.669   2.511 -0.8551  0.0898  0.2454
14579SOL    HW249058   3.579   0.572   2.565  0.6035 -1.0040  1.1242
14580SOL     OW49059   9.321   4.202   0.169 -0.1554 -0.4239 -0.1306
14580SOL    HW149060   9.397   4.223   0.114 -2.0473  2.7438 -1.8654
14580SOL    HW249061   9.260   4.160   0.109 -0.8546 -0.3355  0.5156
14581SOL     OW49062  10.397   2.760   4.626 -0.2234  0.0859 -0.0319
14581SOL    HW149063  10.432   2.799   4.706 -1.1012  0.8821 -0.0267
14581SOL    HW249064  10.440   2.806   4.555  1.7143 -1.6450 -0.0796
14582SOL     OW49065   7.293   1.025   0.719 -0.5062 -0.1739  0.0070
14582SOL    HW149066   7.290   1.112   0.759 -1.9505 -0.0388 -0.3422
14582SOL    HW249067   7.379   0.990   0.744 -0.5350  0.7169  1.4803
14583SOL     OW49068   2.295   0.328   3.698  0.2766 -0.9280 -0.1591
14583SOL    HW149069   2.304   0.234   3.679  1.0195 -0.9378  0.2413
14583SOL    HW249070   2.338   0.371   3.624  0.3169 -0.9020 -0.1195
14584SOL     OW49071  10.906   4.859   1.231  0.2842  0.0600 -0.0100
14584SOL    HW149072  10.914   4.954   1.240  1.5388  0.2002 -1.9674
14584SOL    HW249073  10.821   4.838   1.270 -0.7387  2.2054 -0.9105
14585SOL     OW49074   3.940   1.969   1.446  0.2197  0.3779  0.2520
14585SOL    HW149075   4.015   2.029   1.445  0.5781 -0.0196 -1.5015
14585SOL    HW249076   3.946   1.923   1.362 -1.8595  0.1612  0.1748
14586SOL     OW49077  11.335   3.622   0.578  0.3940  0.1678  0.6128
14586SOL    HW149078  11.396   3.696   0.587  0.3445  0.1533  1.1303
14586SOL    HW249079  11.257   3.650   0.625  0.7101 -0.5688  1.6139
14587SOL     OW49080   1.141   7.095   3.763 -0.3559  0.0388 -0.1635
14587SOL    HW149081   1.122   7.082   3.856 -2.8694 -0.7383 -0.7046
14587SOL    HW249082   1.129   7.188   3.748  0.7167  0.2861  0.3721
14588SOL     OW49083   4.886   5.542   4.128 -0.0280  0.4772  0.0897
14588SOL    HW149084   4.899   5.588   4.045 -2.0510 -1.0886 -1.1802
14588SOL    HW249085   4.972   5.545   4.170  0.8450  2.0833 -1.6296
14589SOL     OW49086   5.799  10.562   7.880 -0.6599 -0.2743  0.0603
14589SOL    HW149087   5.864  10.594   7.817 -0.8184  1.8845  0.9043
14589SOL    HW249088   5.775  10.475   7.847  0.5318  0.0481 -1.8561
14590SOL     OW49089   5.600   5.285   9.001 -0.2752  0.3455 -0.5755
14590SOL    HW149090   5.522   5.249   9.044  1.1460  0.7547  2.7047
14590SOL    HW249091   5.599   5.378   9.026  1.2815  0.3296 -0.4035
14591SOL     OW49092   8.477  10.134   2.340 -0.3226  0.0650  0.5204
14591SOL    HW149093   8.567  10.158   2.361 -0.5902  0.3890  1.3495
14591SOL    HW249094   8.434  10.128   2.425 -1.1555  0.2022  0.1165
14592SOL     OW49095   4.644   9.565   3.616 -0.4200 -0.1689  0.5608
14592SOL    HW149096   4.698   9.489   3.637 -0.3685 -0.2761  0.0529
14592SOL    HW249097   4.701   9.640   3.632  0.2106 -0.3086 -0.8703
14593SOL     OW49098   0.803   4.302   7.324  0.0788 -0.3587 -0.3865
14593SOL    HW149099   0.804   4.346   7.410 -4.3773  0.2652 -0.4367
14593SOL    HW249100   0.804   4.209   7.345 -0.5652 -0.2110  0.3410
14594SOL     OW49101   8.934   8.965  10.940  0.0648 -0.6748  0.3532
14594SOL    HW149102   9.008   9.013  10.902 -1.2148  1.2284  0.0983
14594SOL    HW249103   8.857   9.019  10.918 -1.0659 -0.8643  3.3400
14595SOL     OW49104  11.284   7.386   8.406  0.1691  0.5044  0.3232
14595SOL    HW149105  11.244   7.391   8.492  0.1925 -1.3416  0.4658
14595SOL    HW249106  11.374   7.359   8.423 -0.0023 -0.4902 -0.3115
14596SOL     OW49107   9.446   3.947  10.634  0.1113 -0.1020  0.1156
14596SOL    HW149108   9.446   3.857  10.601  2.4682 -0.5854  1.2164
14596SOL    HW249109   9.531   3.982  10.608 -0.9121  2.0124 -0.6618
14597SOL     OW49110   5.844   8.835   2.913 -0.2087  0.1086 -0.2799
14597SOL    HW149111   5.781   8.763   2.925  1.2580 -1.3288 -0.8683
14597SOL    HW249112   5.850   8.876   2.999  1.2637 -2.4953  0.9655
14598SOL     OW49113   2.486   0.337   7.674  0.1662  0.2197  0.1953
14598SOL    HW149114   2.467   0.262   7.619  1.2108  0.0570  0.0339
14598SOL    HW249115   2.581   0.344   7.672  0.4489 -0.9839  3.5167
14599SOL     OW49116   5.954   2.133   8.462  0.7931  0.6660  0.0726
14599SOL    HW149117   5.952   2.041   8.487  1.4899  1.2375  2.5114
14599SOL    HW249118   5.920   2.179   8.539  1.0870  2.4971 -0.8439
14600SOL     OW49119   8.459   3.971   1.396  0.1834  0.2431 -0.0800
14600SOL    HW149120   8.500   4.056   1.381  1.2688 -0.5395 -1.8877
14600SOL    HW249121   8.526   3.907   1.371 -0.6801 -1.1598  1.0046
14601SOL     OW49122   1.450   2.012   0.184  0.0723  0.0710  0.8141
14601SOL    HW149123   1.379   2.036   0.125 -0.7740 -0.2697  1.6722
14601SOL    HW249124   1.412   1.945   0.241  1.0954 -0.1457  1.2632
14602SOL     OW49125   6.349   6.472   0.293 -0.3709 -0.5144  0.4196
14602SOL    HW149126   6.311   6.552   0.256 -0.4717  0.1595  1.9279
14602SOL    HW249127   6.291   6.448   0.365  0.7648 -0.7781  1.2809
14603SOL     OW49128   5.749   4.534   2.998 -0.3759 -0.0601 -0.6566
14603SOL    HW149129   5.790   4.493   3.074 -1.0071  0.3349 -0.0961
14603SOL    HW249130   5.822   4.573   2.950 -0.2097  2.2529  1.3019
14604SOL     OW49131   9.054   9.252   5.760 -0.3860 -0.7498 -0.1090
14604SOL    HW149132   9.023   9.247   5.669  0.6520  1.3771 -0.6350
14604SOL    HW249133   9.146   9.278   5.753 -0.1943 -0.9002  1.5456
14605SOL     OW49134   2.716   2.824   7.222  0.1408 -0.1180 -0.0964
14605SOL    HW149135   2.807   2.801   7.241  0.4790 -0.3047 -1.7667
14605SOL    HW249136   2.676   2.742   7.192  0.0466  0.4072 -1.4766
14606SOL     OW49137  10.959   1.132   8.244 -0.1685 -0.2144  0.2213
14606SOL    HW149138  10.875   1.118   8.287 -0.7456 -0.7967 -1.0723
14606SOL    HW249139  10.984   1.222   8.270 -0.6556 -0.4068  1.4456
14607SOL     OW49140   8.730   4.324   0.245 -0.0679  0.8202  0.0710
14607SOL    HW149141   8.643   4.308   0.206 -0.5538  1.0035  1.0453
14607SOL    HW249142   8.790   4.319   0.171 -0.5136 -2.3991 -0.2232
14608SOL     OW49143   6.384   6.374  11.307  0.4459 -0.6454  0.4029
14608SOL    HW149144   6.450   6.428  11.262  0.1876 -1.4579 -1.0132
14608SOL    HW249145   6.419   6.361  11.395  1.2702  0.4954  0.2608
14609SOL     OW49146   6.029   4.161   6.108 -0.3802 -0.4326 -0.3193
14609SOL    HW149147   6.021   4.229   6.041 -3.5365  0.1477  0.4924
14609SOL    HW249148   6.038   4.209   6.191  0.9590 -1.1080 -0.0357
14610SOL     OW49149   1.016   9.963   0.106 -0.1793  0.6279 -0.1513
14610SOL    HW149150   1.048  10.039   0.057  0.4463  0.2116 -0.3995
14610SOL    HW249151   0.978   9.906   0.039  2.0886 -0.6767 -0.4357
14611SOL     OW49152   9.099   6.602   0.934 -0.6791 -0.0057 -0.0519
14611SOL    HW149153   9.167   6.586   0.999 -0.5893 -1.0089 -0.3695
14611SOL    HW249154   9.071   6.515   0.907 -0.2793  0.3621 -1.8080
14612SOL     OW49155   9.833   8.312   9.342 -0.1627 -0.5207  0.2859
14612SOL    HW149156   9.788   8.229   9.326 -0.4954 -0.1745 -0.6299
14612SOL    HW249157   9.765   8.379   9.328  0.5378 -0.0074 -0.7893
14613SOL     OW49158   9.583  10.381   0.323  0.7824  0.2712  0.2757
14613SOL    HW149159   9.564  10.445   0.253  2.1898 -0.2724 -0.6438
14613SOL    HW249160   9.513  10.395   0.387 -0.5117  0.8689 -1.1814
14614SOL     OW49161   3.216  11.529   7.982  0.1035  0.1346 -0.1098
14614SOL    HW149162   3.213  11.616   7.944 -0.0278  0.6516  1.0279
14614SOL    HW249163   3.129  11.516   8.019  0.3765 -0.1169  0.4696
14615SOL     OW49164   6.761   9.047   8.161  0.2154 -0.5541 -0.6899
14615SOL    HW149165   6.699   8.987   8.202  1.2381 -0.9485  0.3132
14615SOL    HW249166   6.734   9.133   8.192  0.2707 -0.7389 -0.1155
14616SOL     OW49167   6.168   5.346   9.066  0.0529  0.2376  0.3120
14616SOL    HW149168   6.119   5.428   9.074  0.6376  1.0832 -3.0837
14616SOL    HW249169   6.225   5.359   8.990 -0.1350 -3.4515 -0.6648
14617SOL     OW49170   7.392   4.525  10.185 -0.7246 -0.0504  0.4424
14617SOL    HW149171   7.333   4.594  10.154 -0.4276 -0.0567 -0.1556
14617SOL    HW249172   7.362   4.446  10.141 -1.3605 -0.4065  1.4917
14618SOL     OW49173   9.334   7.401   2.469 -0.4464  0.1475  0.1294
14618SOL    HW149174   9.257   7.427   2.417  0.3878 -0.5549 -1.5431
14618SOL    HW249175   9.392   7.477   2.464  1.0488 -1.0293 -2.8963
14619SOL     OW49176   8.934   1.854   0.585  0.0258 -0.9476  0.5280
14619SOL    HW149177   9.025   1.884   0.585 -0.8537  2.1057  0.6433
14619SOL    HW249178   8.923   1.813   0.500 -0.0430  4.6824 -2.6857
14620SOL     OW49179   7.884   4.671   1.873  0.6706 -0.5779  0.0038
14620SOL    HW149180   7.864   4.607   1.942 -1.0553 -0.2887 -0.1830
14620SOL    HW249181   7.866   4.756   1.914 -1.2852 -0.4387 -1.0319
14621SOL     OW49182   0.985   0.607   7.882  0.2049  0.0021  0.1931
14621SOL    HW149183   0.914   0.581   7.823 -0.3172  0.4145  0.6234
14621SOL    HW249184   0.984   0.702   7.880  4.3594  0.2841 -4.0837
14622SOL     OW49185   0.083   0.858   7.391  0.1406  0.0178 -0.2821
14622SOL    HW149186   0.147   0.892   7.328  0.8045 -0.8628 -0.1025
14622SOL    HW249187   0.002   0.903   7.370  0.9474  1.6105 -0.1421
14623SOL     OW49188  11.298   2.750   9.750  0.6239  0.4102  0.2636
14623SOL    HW149189  11.362   2.728   9.818  0.6398  0.4845  0.2732
14623SOL    HW249190  11.280   2.667   9.706  0.3785  0.3022  0.5642
14624SOL     OW49191   8.644   6.402   2.351 -0.0887 -0.1115 -0.8310
14624SOL    HW149192   8.565   6.394   2.405 -0.5293 -0.1888 -1.4788
14624SOL    HW249193   8.612   6.430   2.266  0.6461  0.3932 -0.9457
14625SOL     OW49194   0.931   7.271   8.763  0.2831 -0.2571 -0.0006
14625SOL    HW149195   0.954   7.239   8.676  0.3033 -0.6007  0.1283
14625SOL    HW249196   0.874   7.346   8.747 -0.3185 -0.7719 -0.3095
14626SOL     OW49197   4.590   1.914   0.708 -0.2223 -1.0998  0.0410
14626SOL    HW149198   4.538   1.992   0.690 -1.7011 -1.5752  1.9996
14626SOL    HW249199   4.532   1.841   0.689  0.8765 -1.7444 -0.9707
14627SOL     OW49200   4.869  10.572   5.092  0.1245  0.0125 -0.1445
14627SOL    HW149201   4.859  10.548   5.000 -1.5262  0.4573 -0.1259
14627SOL    HW249202   4.840  10.663   5.096  0.0674 -0.0366  0.8210
14628SOL     OW49203   7.557   6.926   8.968  0.0531  0.2926 -0.0078
14628SOL    HW149204   7.651   6.943   8.971  0.3649 -1.3811  0.6391
14628SOL    HW249205   7.547   6.858   8.902 -0.7697  0.7265 -0.3484
14629SOL     OW49206   5.577   0.179   7.383  0.3107 -0.8661 -0.2101
14629SOL    HW149207   5.612   0.248   7.440 -0.6772 -0.8164  0.3595
14629SOL    HW249208   5.616   0.196   7.298  0.9362 -0.2626  0.1880
14630SOL     OW49209   5.770   9.889   4.099  0.1485 -0.9178 -0.0944
14630SOL    HW149210   5.824   9.921   4.172 -0.2431  0.8688 -0.5342
14630SOL    HW249211   5.826   9.828   4.053  1.6683  0.5239 -0.2526
14631SOL     OW49212   5.124   6.157   0.644  0.9775  0.3002  0.1303
14631SOL    HW149213   5.174   6.075   0.642 -0.6994 -0.7437 -1.0749
14631SOL    HW249214   5.177   6.217   0.592  1.4796 -0.4757 -0.2839
14632SOL     OW49215   1.428   8.799   5.577 -0.4470  0.0109  0.1924
14632SOL    HW149216   1.389   8.774   5.661 -0.6127  0.7933  0.3525
14632SOL    HW249217   1.420   8.894   5.574 -1.0809 -0.0643 -1.0292
14633SOL     OW49218   2.715   5.472   0.787 -0.1123 -0.3989  0.2812
14633SOL    HW149219   2.635   5.508   0.750  0.0792 -0.6596 -0.4154
14633SOL    HW249220   2.747   5.412   0.720  0.0634 -1.1596  1.0279
14634SOL     OW49221  11.165   6.404   4.499  0.2396  0.1694 -0.4313
14634SOL    HW149222  11.096   6.344   4.528  1.3572 -1.2203 -0.5490
14634SOL    HW249223  11.218   6.352   4.438  1.2505  1.2783 -0.5400
14635SOL     OW49224   8.942   9.294   8.984  0.4597 -0.3171  0.0971
14635SOL    HW149225   9.036   9.309   8.976  0.4453 -0.9415 -1.6476
14635SOL    HW249226   8.903   9.379   8.967  0.6998 -0.1881  0.1852
14636SOL     OW49227   3.335  10.582   8.951  0.2672  0.0762 -0.3604
14636SOL    HW149228   3.362  10.646   9.017 -0.6019  0.3081 -0.2267
14636SOL    HW249229   3.416  10.563   8.903  0.5667  1.1662 -0.3174
14637SOL     OW49230   1.431   4.094  11.581 -0.0547 -0.1564  0.4419
14637SOL    HW149231   1.505   4.062  11.531 -0.8256 -0.2252 -0.7087
14637SOL    HW249232   1.467   4.162  11.638  0.8891 -0.2254 -0.0634
14638SOL     OW49233  10.693   2.114   5.173 -1.0157 -0.5258  0.2810
14638SOL    HW149234  10.622   2.134   5.110 -1.3778 -0.0115  0.8438
14638SOL    HW249235  10.665   2.155   5.254 -0.7094 -1.4807  0.8838
14639SOL     OW49236   7.119   2.139  10.534 -0.3914 -0.2104  0.0488
14639SOL    HW149237   7.031   2.103  10.531 -0.0500 -1.5416  2.7957
14639SOL    HW249238   7.173   2.072  10.491 -0.2521 -1.4166  1.9688
14640SOL     OW49239   0.552  11.465   9.875 -0.4405 -0.5531  0.4481
14640SOL    HW149240   0.497  11.530   9.830 -0.7416 -0.1428  1.3837
14640SOL    HW249241   0.580  11.405   9.806 -0.8261  0.1087 -0.2971
14641SOL     OW49242   8.312   7.971   7.729 -0.3786 -0.0368 -0.2207
14641SOL    HW149243   8.279   7.953   7.817 -1.7076 -1.7163 -1.0062
14641SOL    HW249244   8.269   8.053   7.703 -2.0645 -0.9041 -0.2761
14642SOL     OW49245   3.593   6.365   4.941  0.6549 -0.4033  0.1742
14642SOL    HW149246   3.649   6.389   5.014 -0.7614  0.1132  1.1430
14642SOL    HW249247   3.570   6.448   4.900  1.1784 -0.6664 -0.6747
14643SOL     OW49248   4.147   8.420   2.803 -0.0734 -0.3785  0.3619
14643SOL    HW149249   4.226   8.437   2.751  0.4969  1.8054  1.7868
14643SOL    HW249250   4.101   8.504   2.803 -1.6270 -1.2004  0.8571
14644SOL     OW49251   1.821   3.943   2.550  0.3860  0.0595 -0.0287
14644SOL    HW149252   1.763   4.019   2.553 -0.6704 -0.7305  0.2758
14644SOL    HW249253   1.842   3.933   2.457 -1.0834 -0.4311 -0.3383
14645SOL     OW49254   0.250  10.100   4.627  0.4969  0.0600 -0.1088
14645SOL    HW149255   0.327  10.158   4.625  0.0516  0.6633 -1.5990
14645SOL    HW249256   0.287  10.012   4.633  1.2047  0.4481  1.6759
14646SOL     OW49257   5.127   2.359   5.755 -0.0082 -0.3780  0.0825
14646SOL    HW149258   5.077   2.339   5.834  0.7921 -1.3511  0.3577
14646SOL    HW249259   5.067   2.413   5.702 -0.6287  0.1072  1.2427
14647SOL     OW49260   2.396  11.371   3.515  0.1643  0.7038  0.3091
14647SOL    HW149261   2.314  11.420   3.517 -1.3801 -1.6757 -0.5296
14647SOL    HW249262   2.415  11.352   3.607 -0.5096  0.8590  0.4852
14648SOL     OW49263   6.627   3.190   7.581  0.3437  0.1860  0.0298
14648SOL    HW149264   6.590   3.209   7.495  0.8760 -0.2122 -0.2998
14648SOL    HW249265   6.722   3.183   7.565  0.6098  1.4898  0.8922
14649SOL     OW49266   3.387   3.774   4.598 -0.5848 -0.3354 -0.1390
14649SOL    HW149267   3.392   3.843   4.531 -0.0888  0.8302  1.0396
14649SOL    HW249268   3.297   3.742   4.593 -0.6150 -0.1067 -1.1982
14650SOL     OW49269   1.125   7.881  10.101  0.1086 -0.1149  0.1540
14650SOL    HW149270   1.092   7.947  10.163  0.3102 -1.0393  1.2798
14650SOL    HW249271   1.161   7.932  10.029 -1.2229  0.9748  0.2165
14651SOL     OW49272   6.887   2.400   6.939  0.1161  0.5946 -0.1766
14651SOL    HW149273   6.850   2.350   6.865  1.0849  0.1340 -0.3625
14651SOL    HW249274   6.833   2.374   7.014 -1.6811  1.9877 -0.9069
14652SOL     OW49275   7.653   9.239  10.610 -0.2421  0.0036  0.8160
14652SOL    HW149276   7.639   9.206  10.699  0.3710 -1.1742  0.4923
14652SOL    HW249277   7.571   9.221  10.564 -0.7846  1.1681  1.2807
14653SOL     OW49278   8.925   0.040   9.115  0.2160  0.5889 -0.0221
14653SOL    HW149279   8.936   0.113   9.177  1.9896  0.1625  0.2102
14653SOL    HW249280   8.927  -0.038   9.170 -1.4662  0.3158 -0.2951
14654SOL     OW49281  11.343   8.540   2.050 -0.2348  0.6763 -0.7300
14654SOL    HW149282  11.332   8.464   1.993  0.1300  0.0014  0.0972
14654SOL    HW249283  11.276   8.602   2.019 -1.5488 -0.5544 -0.4567
14655SOL     OW49284   3.822  10.738   0.393 -0.7381  0.6166 -0.4990
14655SOL    HW149285   3.892  10.736   0.459 -1.5520  0.9819  0.4117
14655SOL    HW249286   3.800  10.831   0.385 -0.7755  0.5512 -1.1535
14656SOL     OW49287   5.999   0.581   0.771  0.2729  0.3172 -0.7211
14656SOL    HW149288   5.949   0.511   0.812  1.3027 -0.8014 -1.2855
14656SOL    HW249289   5.954   0.599   0.689 -0.2490  0.6468 -0.3671
14657SOL     OW49290   6.050   4.497   4.295 -0.5303 -0.0708 -0.2685
14657SOL    HW149291   6.011   4.486   4.381 -1.7719 -0.1345 -0.8123
14657SOL    HW249292   6.038   4.590   4.275  0.1319  0.0321 -0.2048
14658SOL     OW49293   8.235   7.543   2.505  0.0060  0.0186  0.0035
14658SOL    HW149294   8.192   7.475   2.452  0.0554 -0.1768  0.2097
14658SOL    HW249295   8.319   7.557   2.462  0.3227 -0.6137  0.4003
14659SOL     OW49296   2.392  11.662   0.518 -0.1457  0.0905 -0.4036
14659SOL    HW149297   2.459  11.609   0.474 -0.1792  1.0292 -1.6417
14659SOL    HW249298   2.413  11.752   0.492  0.6592  0.8889  2.5964
14660SOL     OW49299   0.730   0.179   0.851 -0.0844  0.3090  0.1300
14660SOL    HW149300   0.809   0.125   0.857 -1.0482 -1.1848 -0.1275
14660SOL    HW249301   0.679   0.155   0.929  0.8182  3.2160  1.7958
14661SOL     OW49302   8.227   7.788  10.311  0.2211  0.2052  0.3708
14661SOL    HW149303   8.197   7.730  10.381 -1.6926  0.1569 -0.4549
14661SOL    HW249304   8.160   7.856  10.306  0.9895  0.9091 -0.5789
14662SOL     OW49305  10.614   5.187  10.594  0.4661  0.4894  0.2505
14662SOL    HW149306  10.576   5.273  10.579  1.0307  0.6559 -0.2615
14662SOL    HW249307  10.546   5.126  10.562 -0.6101  0.6582  2.0831
14663SOL     OW49308   3.756   4.244   3.466 -1.0702 -0.1946 -0.2608
14663SOL    HW149309   3.775   4.332   3.498 -1.3162 -0.4473  0.5890
14663SOL    HW249310   3.727   4.195   3.543 -1.2061 -0.9467 -0.7736
14664SOL     OW49311   8.983   8.018  10.587  0.1128  0.0679 -0.4603
14664SOL    HW149312   9.050   8.087  10.594 -0.9107  1.2399 -1.6288
14664SOL    HW249313   9.032   7.936  10.596  1.3398  0.9169  1.2043
14665SOL     OW49314   0.526   1.027   9.964  0.2430 -0.0335  0.2178
14665SOL    HW149315   0.437   1.042   9.996 -0.1755  1.6454 -1.5237
14665SOL    HW249316   0.569   1.113   9.972  0.5798  0.0806 -2.1483
14666SOL     OW49317   2.295   0.194  11.765 -0.3422  0.1094  0.6361
14666SOL    HW149318   2.280   0.111  11.812  2.2457 -0.6230  0.3130
14666SOL    HW249319   2.375   0.229  11.803  0.4034  0.8095 -1.4619
14667SOL     OW49320   6.649  11.491   7.453  0.1164 -0.1879 -0.2826
14667SOL    HW149321   6.610  11.566   7.406  1.3902  0.3569 -0.5199
14667SOL    HW249322   6.589  11.419   7.436 -0.9011  0.6591 -0.4500
14668SOL     OW49323   7.345   5.203  10.415  0.0459  0.1110 -0.0623
14668SOL    HW149324   7.436   5.211  10.386 -0.4310  0.3637 -1.5657
14668SOL    HW249325   7.330   5.283  10.466  0.7198 -0.0409  0.3949
14669SOL     OW49326   9.258   4.066   7.202 -0.4536  0.4459  0.2806
14669SOL    HW149327   9.176   4.116   7.204 -0.7505  0.0979 -1.5388
14669SOL    HW249328   9.234   3.978   7.230 -1.1122 -0.1219 -1.8880
14670SOL     OW49329   1.471  11.785   1.732  0.6213 -0.9646  0.1889
14670SOL    HW149330   1.391  11.836   1.737  0.6615 -0.9169  0.3610
14670SOL    HW249331   1.441  11.695   1.718  0.5748 -0.7928 -0.9126
14671SOL     OW49332   7.911   2.397   4.626 -0.1418  0.3099  0.4036
14671SOL    HW149333   7.866   2.314   4.612  0.1989  0.2346 -0.2285
14671SOL    HW249334   7.964   2.382   4.705 -0.2379 -0.0037  0.4116
14672SOL     OW49335  10.689   8.870   9.162  0.0029 -0.2726  0.0593
14672SOL    HW149336  10.626   8.936   9.132  0.0677 -0.4601 -0.4995
14672SOL    HW249337  10.744   8.853   9.086 -1.9639 -3.2998 -0.8492
14673SOL     OW49338   8.080  10.459  10.727 -0.3121  0.0515 -0.1379
14673SOL    HW149339   8.045  10.544  10.756 -0.0295  0.1640 -0.1259
14673SOL    HW249340   8.140  10.433  10.796  1.7412  1.1625 -1.4162
14674SOL     OW49341   8.346   0.144   6.837  0.1275  0.2464  0.0916
14674SOL    HW149342   8.315   0.074   6.779  3.4046  0.9646 -2.8801
14674SOL    HW249343   8.404   0.100   6.898  0.8108  0.1091 -0.6425
14675SOL     OW49344   8.487  11.125   8.194 -0.3612  0.1977 -0.2124
14675SOL    HW149345   8.520  11.036   8.207  0.3214  0.4175 -0.4247
14675SOL    HW249346   8.530  11.156   8.115  0.4091  1.1784  0.5565
14676SOL     OW49347   0.757   6.788   0.082  0.3914 -0.0477 -0.3551
14676SOL    HW149348   0.675   6.836   0.069 -0.3081 -1.2108 -0.4000
14676SOL    HW249349   0.744   6.742   0.165  0.9160 -0.3968 -0.4624
14677SOL     OW49350   2.655   4.680   8.340 -0.1022  0.3189  0.0431
14677SOL    HW149351   2.623   4.758   8.386  1.9369  1.8005 -0.8805
14677SOL    HW249352   2.652   4.705   8.248 -0.5319 -1.1758 -0.3659
14678SOL     OW49353   0.331   8.926   1.330  0.3561  0.8170 -0.0718
14678SOL    HW149354   0.308   9.010   1.370  0.2798  0.4691  0.6377
14678SOL    HW249355   0.423   8.913   1.355  0.0879  0.2427  0.6404
14679SOL     OW49356   1.009  11.558   2.597  0.5945  0.8477 -0.1312
14679SOL    HW149357   1.031  11.601   2.514  1.5406  0.0651 -0.2972
14679SOL    HW249358   0.916  11.537   2.588  0.8578  0.0997 -1.3235
14680SOL     OW49359  11.344   5.608  10.295 -0.6418  0.1393 -0.9465
14680SOL    HW149360  11.421   5.660  10.274  0.3816 -1.4729 -1.3551
14680SOL    HW249361  11.322   5.633  10.384 -1.0195  2.2244 -1.5571
14681SOL     OW49362   2.875   5.675   7.063 -0.1715  0.3423  0.1034
14681SOL    HW149363   2.813   5.704   6.996 -0.8831  0.6586  0.8930
14681SOL    HW249364   2.826   5.613   7.116  0.2662  0.4073  0.5890
14682SOL     OW49365  10.188   2.212   5.708 -0.4364  0.1446 -0.1298
14682SOL    HW149366  10.206   2.299   5.742  0.0584  0.5615 -1.3992
14682SOL    HW249367  10.142   2.228   5.625 -1.1300 -0.8181  0.0539
14683SOL     OW49368   9.796   2.337  10.967 -0.1534 -0.3536 -0.3012
14683SOL    HW149369   9.708   2.371  10.951  0.0282 -0.1186 -0.8328
14683SOL    HW249370   9.851   2.415  10.978 -0.2828 -0.4818  1.6994
14684SOL     OW49371  11.332  10.649   6.103  0.1609 -0.4743 -0.2751
14684SOL    HW149372  11.280  10.578   6.067  0.2356 -1.8871  2.1843
14684SOL    HW249373  11.422  10.625   6.083  0.1628 -0.9356  0.2396
14685SOL     OW49374   3.080   9.465  11.126 -0.8183 -0.2112 -0.4304
14685SOL    HW149375   3.087   9.389  11.069  2.8133  0.2592 -0.8354
14685SOL    HW249376   3.129   9.442  11.205  0.3121  1.6246 -0.5320
14686SOL     OW49377  11.181   3.421   0.849 -0.5035  0.0441 -0.0532
14686SOL    HW149378  11.150   3.509   0.829  0.1660  0.0180 -1.3064
14686SOL    HW249379  11.236   3.397   0.774 -1.2350 -1.7166 -0.0950
14687SOL     OW49380   1.398   7.906   4.604 -0.0252 -0.4759 -0.0206
14687SOL    HW149381   1.492   7.897   4.618 -0.0295  0.0597  0.3789
14687SOL    HW249382   1.386   7.890   4.511  0.3623 -1.3075  0.0586
14688SOL     OW49383   9.098   0.611  11.654  0.1558  0.2477  0.0397
14688SOL    HW149384   9.020   0.629  11.706 -0.1129  1.3373 -0.6894
14688SOL    HW249385   9.163   0.580  11.717 -0.3320  1.0007  0.9391
14689SOL     OW49386   7.940   2.149  10.300 -0.0159 -0.1233 -0.1138
14689SOL    HW149387   7.935   2.123  10.392  1.0116 -1.9240 -0.5188
14689SOL    HW249388   7.858   2.116  10.261  0.3400 -0.9734 -0.1797
14690SOL     OW49389   1.079   5.183   4.516  0.6082  0.3284  0.2523
14690SOL    HW149390   1.000   5.233   4.494 -0.8553 -1.8989  0.0793
14690SOL    HW249391   1.074   5.171   4.611  1.1267  0.7701  0.3386
14691SOL     OW49392   7.700   8.792   4.904  0.2844  0.2492  0.0648
14691SOL    HW149393   7.663   8.880   4.915  0.0370  0.2413 -0.6482
14691SOL    HW249394   7.637   8.746   4.850  1.1758  0.1345 -0.9099
14692SOL     OW49395   4.280  11.136  11.795 -0.0331  0.2185 -0.1641
14692SOL    HW149396   4.314  11.046  11.796 -0.2322  0.1425 -0.2704
14692SOL    HW249397   4.354  11.189  11.825  0.3082  0.0989 -0.7858
14693SOL     OW49398   4.220   7.141   3.327 -0.2574  0.0050 -0.4764
14693SOL    HW149399   4.141   7.087   3.315 -0.5259 -0.2762  2.0232
14693SOL    HW249400   4.278   7.085   3.378  0.6488  1.0569 -0.3445
14694SOL     OW49401   6.402   3.039   2.933 -0.2666 -0.0791 -0.1623
14694SOL    HW149402   6.419   2.950   2.963  2.1979  0.6346  0.8421
14694SOL    HW249403   6.339   3.029   2.862  0.1048 -2.6225 -0.2299
14695SOL     OW49404   2.980   7.276   9.574 -0.6348  0.6983  0.0721
14695SOL    HW149405   2.924   7.353   9.578 -0.9542  0.4331  1.0806
14695SOL    HW249406   3.046   7.290   9.642  2.2822  2.2764 -2.7791
14696SOL     OW49407  10.861   0.282   2.732 -0.5645 -0.1472  0.5533
14696SOL    HW149408  10.776   0.244   2.709 -0.6668 -0.3224  1.1922
14696SOL    HW249409  10.853   0.304   2.825  0.0775 -0.1310  0.6095
14697SOL     OW49410   9.918   6.348  10.924 -0.4750  0.4371 -0.3448
14697SOL    HW149411   9.882   6.393  10.848 -0.9497  0.6838  0.0249
14697SOL    HW249412   9.843   6.332  10.981  0.0293  1.2402  0.5816
14698SOL     OW49413   9.931   5.438   0.982  0.6227  0.4299  0.0572
14698SOL    HW149414   9.900   5.361   1.030  0.0641  0.8660  0.4110
14698SOL    HW249415   9.924   5.509   1.045  0.8500  0.8258 -0.3641
14699SOL     OW49416   8.108   6.936   9.026 -0.9533  0.5177 -0.0801
14699SOL    HW149417   8.064   6.999   9.083 -1.3631  0.5394 -0.4104
14699SOL    HW249418   8.096   6.972   8.938 -1.6226 -0.2655 -0.3195
14700SOL     OW49419   8.406   8.597   3.138  0.1970  0.0765 -1.2368
14700SOL    HW149420   8.431   8.513   3.178  1.4214  0.7318 -0.5674
14700SOL    HW249421   8.313   8.588   3.120 -0.1467 -0.7097  0.6557
14701SOL     OW49422   9.559  11.421   4.814  0.0101 -0.2542 -0.2071
14701SOL    HW149423   9.625  11.465   4.760 -0.5854  0.2734 -0.5166
14701SOL    HW249424   9.610  11.363   4.871  0.7799  0.5323 -0.0684
14702SOL     OW49425   3.541  11.319   1.880  0.8014 -0.3944  0.1158
14702SOL    HW149426   3.480  11.275   1.938 -0.3843  0.6406 -0.3046
14702SOL    HW249427   3.566  11.253   1.815 -1.0297 -0.4546 -0.5761
14703SOL     OW49428   7.498   6.906   3.360 -0.6723  0.2436 -0.3745
14703SOL    HW149429   7.409   6.936   3.379 -1.3179 -1.6484 -0.1599
14703SOL    HW249430   7.500   6.816   3.392  1.8273  0.7287  1.0430
14704SOL     OW49431   7.021   1.134   5.230  0.1191  0.2718 -0.4522
14704SOL    HW149432   7.104   1.111   5.271  0.3266  0.9076 -0.5020
14704SOL    HW249433   7.032   1.226   5.205  0.1510 -0.2077 -2.2954
14705SOL     OW49434  10.979   6.437   4.917 -0.2569 -0.3393 -0.6931
14705SOL    HW149435  10.993   6.505   4.850 -2.3885 -1.5528 -2.5036
14705SOL    HW249436  10.885   6.439   4.934  0.1442 -0.5014  1.9061
14706SOL     OW49437  10.408  11.729   4.023 -0.3764  0.2272 -0.1641
14706SOL    HW149438  10.345  11.710   3.953 -0.9185  4.6621 -1.1374
14706SOL    HW249439  10.362  11.790   4.081  1.7842  0.6030  1.2596
14707SOL     OW49440   3.715   4.397   5.086 -0.6547 -0.3054 -0.0767
14707SOL    HW149441   3.771   4.417   5.011  1.5599 -0.1381  1.5539
14707SOL    HW249442   3.745   4.455   5.156 -1.5778 -1.5707  1.4508
14708SOL     OW49443   4.578   4.257   8.195 -0.2984  0.4747 -0.1689
14708SOL    HW149444   4.631   4.237   8.117  0.1070  0.7690  0.0251
14708SOL    HW249445   4.502   4.304   8.160  0.1516  1.0964 -0.3434
14709SOL     OW49446   4.970   9.759   6.251  0.4157  0.4765 -0.3657
14709SOL    HW149447   4.961   9.798   6.164  0.7963  0.9627 -0.1900
14709SOL    HW249448   5.061   9.730   6.255  0.8687  1.9358  0.4757
14710SOL     OW49449   7.571   0.146   6.622 -0.4771  0.6391  0.1608
14710SOL    HW149450   7.518   0.211   6.576 -1.8008 -0.4122  0.1542
14710SOL    HW249451   7.508   0.089   6.664  0.6526 -0.8337 -0.0719
14711SOL     OW49452   5.160   8.248   7.303 -0.0063  0.1550 -0.3814
14711SOL    HW149453   5.186   8.267   7.213  0.2749 -1.1921 -0.6126
14711SOL    HW249454   5.093   8.313   7.323  0.3134  0.8076 -1.3744
14712SOL     OW49455   2.283  10.027   2.540 -0.1626  0.2861 -0.2612
14712SOL    HW149456   2.375  10.004   2.539 -0.2322 -0.0142  0.0097
14712SOL    HW249457   2.266  10.054   2.631 -0.2498  0.7068 -0.4025
14713SOL     OW49458   1.924   1.771   6.415 -0.6272  0.1374  0.3963
14713SOL    HW149459   1.927   1.863   6.440 -0.4057  0.5013 -0.9178
14713SOL    HW249460   1.882   1.727   6.489  0.5671  1.0656  1.6744
14714SOL     OW49461  10.274   2.610   2.742  0.2194 -0.4502 -0.7876
14714SOL    HW149462  10.206   2.555   2.704 -0.8408  0.8874 -0.9006
14714SOL    HW249463  10.253   2.699   2.713 -0.5989  0.6900  2.7555
14715SOL     OW49464   4.103   8.409   0.601 -0.3786 -0.5060 -0.3551
14715SOL    HW149465   4.109   8.367   0.515  1.0071 -0.2665 -0.3924
14715SOL    HW249466   4.049   8.487   0.585  0.3029 -0.1761 -1.1425
14716SOL     OW49467   2.282   4.822   9.767 -0.1180  0.0530 -0.1805
14716SOL    HW149468   2.265   4.913   9.790  1.3487  0.4928 -0.7228
14716SOL    HW249469   2.310   4.825   9.676 -0.3231 -0.9776 -0.2863
14717SOL     OW49470   6.817   1.293   3.336 -0.2566 -0.1450 -0.3883
14717SOL    HW149471   6.847   1.252   3.418 -0.4157  1.5905  0.5862
14717SOL    HW249472   6.868   1.374   3.330 -2.3476  1.2339 -0.4183
14718SOL     OW49473  10.287   0.047   0.351  0.2444  0.0086  0.2760
14718SOL    HW149474  10.336   0.087   0.423 -0.0378 -0.1433  0.5535
14718SOL    HW249475  10.204   0.094   0.350  0.0414 -0.3432  0.3895
14719SOL     OW49476   9.639   5.944   0.170  0.4477 -0.4620  0.0863
14719SOL    HW149477   9.666   5.881   0.104  1.2912  0.8159 -0.8414
14719SOL    HW249478   9.543   5.948   0.162  0.5388 -0.3736 -1.0293
14720SOL     OW49479   6.164  11.431   7.487  0.5446 -0.7403  0.8129
14720SOL    HW149480   6.121  11.430   7.573 -1.3472 -2.0571 -0.0891
14720SOL    HW249481   6.144  11.518   7.452  0.1960 -0.6725  1.1656
14721SOL     OW49482   0.706   6.612   3.803 -0.0685 -0.7740  0.4400
14721SOL    HW149483   0.706   6.556   3.880  1.8594 -0.7675  0.5107
14721SOL    HW249484   0.772   6.573   3.746 -1.2662 -0.6141 -1.1031
14722SOL     OW49485   1.221  11.355  10.780  0.7551 -0.1843  0.5536
14722SOL    HW149486   1.256  11.321  10.862 -2.2717 -1.0424  1.6415
14722SOL    HW249487   1.127  11.363  10.796  0.2833  1.2538 -2.3031
14723SOL     OW49488   8.130   4.008   9.229 -0.0825 -0.5273  0.0717
14723SOL    HW149489   8.141   3.946   9.157  0.2706  0.6607 -0.9336
14723SOL    HW249490   8.182   3.972   9.300  0.9878 -0.8604 -0.8466
14724SOL     OW49491  10.633   3.132   2.925  0.6072 -0.0626  0.0408
14724SOL    HW149492  10.689   3.143   2.848 -0.3991  1.6952 -0.5060
14724SOL    HW249493  10.545   3.156   2.895 -0.2041 -1.4129  1.2167
14725SOL     OW49494   5.334   9.712   2.131 -0.2522 -0.0865 -0.3262
14725SOL    HW149495   5.353   9.618   2.127 -0.5878 -0.1368 -0.9206
14725SOL    HW249496   5.420   9.754   2.134 -0.0844 -0.4524  1.5071
14726SOL     OW49497   5.005   9.947   7.469  0.4671  0.0149 -0.1744
14726SOL    HW149498   5.099   9.936   7.452  0.6434  0.2580  0.5795
14726SOL    HW249499   4.984   9.879   7.533  0.1435 -0.0035 -0.2979
14727SOL     OW49500   6.988   8.525  10.749  0.2705  1.5655  0.4530
14727SOL    HW149501   7.053   8.496  10.813 -0.2837 -0.2032  0.2665
14727SOL    HW249502   6.996   8.463  10.676 -1.4674  1.4228  0.3361
14728SOL     OW49503  11.713  10.358   2.792  0.4549  1.0524 -0.3970
14728SOL    HW149504  11.663  10.298   2.848  3.2345  0.6129  1.8332
14728SOL    HW249505  11.673  10.443   2.808  0.7269  0.8326  1.8179
14729SOL     OW49506   8.484   1.593   6.653 -0.4015 -0.9915  0.0545
14729SOL    HW149507   8.442   1.596   6.739 -0.9148  0.5243 -0.2171
14729SOL    HW249508   8.487   1.499   6.631 -0.3754 -1.3917  1.6486
14730SOL     OW49509   1.911   0.036   6.403 -0.1671 -0.6519  0.1708
14730SOL    HW149510   1.816   0.046   6.391 -0.3112 -0.8800  1.0625
14730SOL    HW249511   1.948   0.111   6.357 -0.7746 -0.5957 -0.2474
14731SOL     OW49512   2.543  10.939   0.635 -0.2028 -0.1492  0.4081
14731SOL    HW149513   2.547  10.929   0.730 -0.5294  1.4418  0.6278
14731SOL    HW249514   2.614  10.885   0.601 -0.4487 -1.2000  1.5046
14732SOL     OW49515  11.250  10.167   4.657  0.1825  0.4143 -0.4050
14732SOL    HW149516  11.253  10.126   4.570  3.1930  0.9403 -0.6661
14732SOL    HW249517  11.259  10.261   4.639  1.4040  0.4828  0.4494
14733SOL     OW49518   9.876   5.839   5.013 -0.5344 -0.5681 -0.4987
14733SOL    HW149519   9.868   5.896   4.937  0.5317 -0.1025 -0.2746
14733SOL    HW249520   9.800   5.780   5.007 -0.8662 -0.0553 -1.5018
14734SOL     OW49521   1.978   3.502  10.067 -0.0090  0.3953  0.1535
14734SOL    HW149522   1.999   3.526  10.157  2.4158 -1.5710  0.2398
14734SOL    HW249523   1.955   3.409  10.072  0.2801  0.2283 -1.2557
14735SOL     OW49524   8.082  11.034  10.286 -0.2742 -0.4852 -0.7257
14735SOL    HW149525   8.148  10.985  10.334  0.7052  0.8643 -0.6415
14735SOL    HW249526   8.122  11.051  10.200  0.6502  2.5437  0.1670
14736SOL     OW49527   3.300  10.273   0.761  0.1680  0.3648  0.0924
14736SOL    HW149528   3.265  10.216   0.693 -0.4984 -1.2977  1.7625
14736SOL    HW249529   3.394  10.255   0.762  0.7610  2.7107 -2.4291
14737SOL     OW49530   6.727   9.194   6.064  0.0975  0.1859  0.4706
14737SOL    HW149531   6.771   9.201   6.148 -0.1676  1.1951  0.5321
14737SOL    HW249532   6.634   9.199   6.085  0.0272  0.3474  0.1270
14738SOL     OW49533   6.792   0.171   3.911 -0.0827  0.4876 -0.6921
14738SOL    HW149534   6.793   0.100   3.976 -1.5496  0.9345 -0.1561
14738SOL    HW249535   6.718   0.226   3.936 -1.9322 -0.3349 -3.7955
14739SOL     OW49536   1.252   0.239  10.523  0.2823 -0.1314  0.3450
14739SOL    HW149537   1.225   0.325  10.554  1.0632  0.0805  0.4511
14739SOL    HW249538   1.207   0.177  10.581 -0.2758  0.1957  0.2695
14740SOL     OW49539   8.076  11.729   5.798  0.4852 -0.6764 -0.3855
14740SOL    HW149540   8.029  11.649   5.820 -0.2869 -0.3109 -0.6582
14740SOL    HW249541   8.084  11.776   5.881 -1.0988  0.0075 -0.5778
14741SOL     OW49542   6.533   2.908   1.100 -0.4508 -0.4269  0.7487
14741SOL    HW149543   6.502   2.819   1.082  1.5249 -1.1340  0.5425
14741SOL    HW249544   6.582   2.933   1.021 -3.0977  1.9459 -0.3061
14742SOL     OW49545   9.759   4.487   7.926 -0.0651 -0.8211 -0.3209
14742SOL    HW149546   9.715   4.405   7.904  1.0850 -1.2734 -1.0395
14742SOL    HW249547   9.748   4.541   7.848 -1.4857  0.0453  0.4279
14743SOL     OW49548   6.040   0.364   0.570 -0.1159 -0.6716 -0.2596
14743SOL    HW149549   6.121   0.321   0.597 -0.5279 -0.6072  1.1517
14743SOL    HW249550   5.972   0.321   0.622 -1.0629 -0.9978 -1.6908
14744SOL     OW49551   5.855   6.882  10.722 -0.2614 -0.1990  0.1706
14744SOL    HW149552   5.770   6.840  10.707 -0.3426  0.6508 -2.2698
14744SOL    HW249553   5.917   6.809  10.733 -0.9643 -0.8738 -0.2593
14745SOL     OW49554   6.126   4.681   1.908  0.0144 -0.1690 -0.0770
14745SOL    HW149555   6.033   4.694   1.892  0.3429  1.0896 -1.1479
14745SOL    HW249556   6.157   4.629   1.835  0.1876 -0.4446  0.1897
14746SOL     OW49557   1.686   9.370   6.521 -0.0734  0.4072 -0.1610
14746SOL    HW149558   1.730   9.424   6.586  0.2161 -0.8636  0.7337
14746SOL    HW249559   1.754   9.350   6.456  0.5014 -0.8672  0.7863
14747SOL     OW49560  10.475   7.442   3.460  0.1300  0.1366 -0.4473
14747SOL    HW149561  10.532   7.372   3.494 -0.7415 -0.4867 -0.2421
14747SOL    HW249562  10.388   7.421   3.494  0.0142  1.8919  0.4660
14748SOL     OW49563   0.578  10.101   3.198 -0.2161  0.2940  0.0301
14748SOL    HW149564   0.582  10.039   3.271 -0.4325  2.6324  2.1545
14748SOL    HW249565   0.668  10.105   3.164  0.5770  1.2951  2.1099
14749SOL     OW49566   8.048   5.278   1.850  0.2757  0.4726  0.6024
14749SOL    HW149567   8.043   5.237   1.763  0.4659 -1.9419  1.6497
14749SOL    HW249568   7.972   5.243   1.897  0.8081  0.8403  1.7668
14750SOL     OW49569   6.142   8.838  11.360 -0.0081 -0.0328  0.1623
14750SOL    HW149570   6.116   8.848  11.451  0.1185 -0.6906  0.2769
14750SOL    HW249571   6.231   8.870  11.356 -0.1287  0.3090  0.1981
14751SOL     OW49572   1.369   4.994  11.632  0.7649  0.2416  0.1608
14751SOL    HW149573   1.392   5.054  11.703 -0.3436  1.1461 -0.2211
14751SOL    HW249574   1.290   5.032  11.593  0.5912 -0.9584 -0.7046
14752SOL     OW49575  10.592   4.454  11.614  0.0794  0.0328  0.0226
14752SOL    HW149576  10.523   4.516  11.635 -0.2212 -0.2845 -0.0196
14752SOL    HW249577  10.671   4.493  11.650 -0.2659 -0.0243  0.8759
14753SOL     OW49578   6.700  10.691   4.476 -0.5389  0.1718 -0.5857
14753SOL    HW149579   6.720  10.781   4.452 -0.2281 -0.1604 -1.6299
14753SOL    HW249580   6.726  10.639   4.400 -1.3271 -0.7311 -0.2677
14754SOL     OW49581   9.433   2.402   4.376 -0.6603 -0.7227 -0.2793
14754SOL    HW149582   9.509   2.440   4.331  0.3109 -0.9157  1.1427
14754SOL    HW249583   9.384   2.358   4.306 -0.7382  1.3626 -1.6254
14755SOL     OW49584  10.813   4.616  11.671  0.3695 -0.1755  0.7149
14755SOL    HW149585  10.813   4.698  11.720  0.8630 -0.1417  0.6655
14755SOL    HW249586  10.829   4.643  11.580  3.0505 -0.4839  1.0170
14756SOL     OW49587   6.209   3.633   1.650 -0.3877 -0.6924 -0.5300
14756SOL    HW149588   6.300   3.654   1.672 -0.5704  0.2192 -0.6066
14756SOL    HW249589   6.158   3.681   1.715 -0.8264 -1.1736 -0.5115
14757SOL     OW49590   2.115   1.895   1.258  0.1559 -0.0046 -0.4311
14757SOL    HW149591   2.053   1.921   1.189 -0.5441 -0.2960  0.0762
14757SOL    HW249592   2.066   1.908   1.339  0.0826 -2.0179 -0.1007
14758SOL     OW49593  11.329   0.005  10.662  0.7697 -0.6843 -0.0293
14758SOL    HW149594  11.271  -0.015  10.736  0.8120 -0.7905 -0.0250
14758SOL    HW249595  11.319  -0.070  10.603 -1.7518  0.8134 -1.6958
14759SOL     OW49596  11.351   6.402  10.689 -0.0029  0.2429 -0.3740
14759SOL    HW149597  11.348   6.335  10.757  0.8641  0.4665 -0.0970
14759SOL    HW249598  11.328   6.356  10.608 -0.6128 -0.1185  0.0016
14760SOL     OW49599   7.706   8.456   2.351  0.2595 -0.3597 -0.0263
14760SOL    HW149600   7.753   8.386   2.306 -2.1591 -1.8284 -0.4112
14760SOL    HW249601   7.672   8.511   2.280 -2.3367 -1.8656 -0.0393
14761SOL     OW49602   2.507   7.346   0.314 -0.6356 -0.0723  0.4042
14761SOL    HW149603   2.573   7.279   0.330 -0.0404  0.7759  1.7268
14761SOL    HW249604   2.456   7.349   0.396  0.9037  2.7201  1.3753
14762SOL     OW49605   8.365   0.725   9.664  0.0692 -0.2364  0.3754
14762SOL    HW149606   8.416   0.648   9.640 -1.3531 -1.0794 -0.0403
14762SOL    HW249607   8.289   0.723   9.607 -1.1060  0.2599  1.8414
14763SOL     OW49608   5.534   1.197   2.572  0.0446  0.1928 -0.3060
14763SOL    HW149609   5.621   1.214   2.537  0.4610 -1.0815  0.0774
14763SOL    HW249610   5.540   1.110   2.611 -0.8067  0.9205  1.6007
14764SOL     OW49611   7.518  10.223   7.114  0.1175 -0.1711  0.6794
14764SOL    HW149612   7.553  10.171   7.041  0.0271  0.1577  0.4011
14764SOL    HW249613   7.561  10.187   7.191  1.5366  0.6037  0.2852
14765SOL     OW49614   6.592   8.538   3.970 -0.1545 -0.1591 -0.5465
14765SOL    HW149615   6.669   8.489   3.998 -0.3942 -0.7142 -0.8669
14765SOL    HW249616   6.628   8.621   3.936  0.1935  0.2311  0.7052
14766SOL     OW49617   0.266   0.973   7.228 -0.3750  0.5219  0.6547
14766SOL    HW149618   0.279   1.066   7.245 -2.5780  0.4721  3.4399
14766SOL    HW249619   0.287   0.962   7.135  4.1952  2.8617  1.1342
14767SOL     OW49620  10.530   6.742  11.089  0.1979 -0.5785  0.1679
14767SOL    HW149621  10.600   6.739  11.154  0.2683 -0.1502  0.1179
14767SOL    HW249622  10.466   6.803  11.127  1.0250  1.0519 -0.9285
14768SOL     OW49623   6.221   3.930   6.227 -0.2244  0.6036  0.3161
14768SOL    HW149624   6.137   3.925   6.272  0.5771 -1.7454  1.7367
14768SOL    HW249625   6.202   3.976   6.145 -2.6538  1.0007  1.0290
14769SOL     OW49626  11.267   7.749  11.474 -0.1716 -0.4369  0.3661
14769SOL    HW149627  11.351   7.791  11.459 -0.7134  0.4639 -0.2187
14769SOL    HW249628  11.239   7.782  11.560 -0.0368 -0.5571  0.4569
14770SOL     OW49629   6.858   5.178   2.220 -0.5937  0.1407  0.0181
14770SOL    HW149630   6.833   5.225   2.299 -0.0820  1.0939 -0.3700
14770SOL    HW249631   6.932   5.123   2.246 -0.5244  0.3376  0.2374
14771SOL     OW49632   9.551   0.974   2.899  0.6431  0.2171  0.1215
14771SOL    HW149633   9.573   0.990   2.991  0.4931 -1.5912  0.5172
14771SOL    HW249634   9.478   1.033   2.881  1.0771  1.0395  0.9610
14772SOL     OW49635  10.121   2.731  10.966  0.1490 -0.1100  0.2624
14772SOL    HW149636  10.129   2.753  11.059 -3.9465 -1.3636  1.1538
14772SOL    HW249637  10.114   2.816  10.922 -1.9653  0.5897  1.7652
14773SOL     OW49638   7.903   1.653   2.842  0.0809 -0.1666  0.5517
14773SOL    HW149639   7.952   1.612   2.914  0.2275 -0.6185  0.1962
14773SOL    HW249640   7.858   1.581   2.799  1.5703 -0.2065 -1.0460
14774SOL     OW49641   8.935   0.876   3.107  0.4702  0.3112 -0.3094
14774SOL    HW149642   8.980   0.874   3.023 -0.0994  1.7894 -0.6746
14774SOL    HW249643   8.847   0.909   3.087  0.7547  2.0165  1.0213
14775SOL     OW49644   8.427   2.196   0.041  0.3395 -0.4157  0.4968
14775SOL    HW149645   8.378   2.140  -0.020 -1.0768  2.0514 -0.8506
14775SOL    HW249646   8.422   2.151   0.125  1.2657 -3.3464 -0.8959
14776SOL     OW49647   2.257   8.181  11.705  0.5421 -0.0265 -0.0475
14776SOL    HW149648   2.264   8.165  11.610 -2.2124 -2.0538 -0.0463
14776SOL    HW249649   2.242   8.275  11.712  0.2815  0.0984 -1.6930
14777SOL     OW49650   8.818   8.692   8.656 -0.5811  0.3174 -0.0506
14777SOL    HW149651   8.893   8.705   8.713 -0.8796 -3.4823  1.4951
14777SOL    HW249652   8.742   8.693   8.715 -1.0895 -1.7712 -0.5767
14778SOL     OW49653   3.638   4.262   4.789 -0.1786  0.0838  0.0073
14778SOL    HW149654   3.718   4.224   4.825 -0.4128 -1.7477 -1.2633
14778SOL    HW249655   3.650   4.258   4.694 -1.4498  0.5323 -0.1985
14779SOL     OW49656  11.795   8.645   3.980  0.0674 -0.8248  0.1953
14779SOL    HW149657  11.883   8.649   3.942 -0.1195 -0.3473 -0.1931
14779SOL    HW249658  11.808   8.667   4.073  0.5805 -2.3851  0.5250
14780SOL     OW49659   1.219   1.974  11.066 -0.6437  0.1732  0.1561
14780SOL    HW149660   1.239   2.053  11.115 -1.3472  1.6247 -1.7935
14780SOL    HW249661   1.297   1.919  11.076 -0.0416  1.2136  1.3218
14781SOL     OW49662   8.623   8.612   1.207 -0.1227  0.1053 -0.1364
14781SOL    HW149663   8.579   8.694   1.228 -2.5253 -1.3708  1.0721
14781SOL    HW249664   8.611   8.602   1.112 -0.4444  0.8021 -0.1762
14782SOL     OW49665   9.175   0.334   9.553 -0.2948 -0.0637 -0.0096
14782SOL    HW149666   9.089   0.369   9.532 -0.6308 -0.2874  0.9470
14782SOL    HW249667   9.228   0.352   9.475 -0.3888  2.6691  0.4580
14783SOL     OW49668   9.271   8.491   7.339  0.0203  0.4166  0.0198
14783SOL    HW149669   9.274   8.396   7.347  0.9191  0.0023 -3.5183
14783SOL    HW249670   9.199   8.508   7.278 -0.5894  2.1026  1.1351
14784SOL     OW49671   3.429   7.907   9.496 -0.4370  0.6175  0.4383
14784SOL    HW149672   3.340   7.926   9.466 -0.8699 -0.1137  1.2284
14784SOL    HW249673   3.421   7.900   9.591  0.3631  0.0293  0.4684
14785SOL     OW49674   5.963   3.310  11.814 -0.3009 -0.0797 -1.4122
14785SOL    HW149675   5.967   3.242  11.880  1.4813  0.4264 -0.9528
14785SOL    HW249676   5.908   3.378  11.853  3.8638  2.0758  1.5171
14786SOL     OW49677   9.519   3.905   1.666 -0.2530  0.4547 -0.3125
14786SOL    HW149678   9.468   3.916   1.586 -0.5865 -0.0583 -0.1776
14786SOL    HW249679   9.466   3.845   1.720  0.9555 -0.9105 -0.5821
14787SOL     OW49680   8.347   7.593   3.643  0.3666  0.0612  0.3514
14787SOL    HW149681   8.423   7.614   3.588  0.6967  0.4811  0.9625
14787SOL    HW249682   8.309   7.678   3.665 -0.7094 -0.1675 -0.5254
14788SOL     OW49683   9.801   2.437   5.672 -0.2177  0.2799 -0.4093
14788SOL    HW149684   9.814   2.425   5.766  1.0820 -0.2407 -0.6292
14788SOL    HW249685   9.747   2.363   5.645 -2.0983  1.3653  0.1919
14789SOL     OW49686  10.974   2.381   8.497 -0.7023  0.0947  0.1806
14789SOL    HW149687  11.058   2.428   8.500 -0.5646 -0.1608  0.3167
14789SOL    HW249688  10.998   2.292   8.471 -1.0171  0.2319 -0.5996
14790SOL     OW49689   8.327  10.639   9.515  0.3193  0.5149  0.0676
14790SOL    HW149690   8.343  10.560   9.567  0.5238  0.3370 -0.2568
14790SOL    HW249691   8.321  10.709   9.579  1.7784  0.4901  0.2676
14791SOL     OW49692   0.671  11.097  10.554  0.1295  0.3103 -0.3336
14791SOL    HW149693   0.615  11.021  10.572  2.0464 -0.9845  0.4289
14791SOL    HW249694   0.741  11.063  10.499 -0.9744  2.4056 -3.3749
14792SOL     OW49695   2.284   0.628   8.903 -0.1627 -0.6173  0.0935
14792SOL    HW149696   2.303   0.540   8.870 -1.0269 -0.9386  0.4139
14792SOL    HW249697   2.199   0.619   8.947 -0.8550  0.6614 -0.9305
14793SOL     OW49698   6.580   6.147   6.954  0.3012 -0.0532 -0.1149
14793SOL    HW149699   6.613   6.059   6.973 -1.3298 -0.4153  1.2300
14793SOL    HW249700   6.569   6.188   7.039  1.2565  1.5877 -0.7204
14794SOL     OW49701   3.314   6.644   3.584 -0.6112  0.0133 -0.2096
14794SOL    HW149702   3.312   6.634   3.679 -2.2443 -0.5970 -0.2823
14794SOL    HW249703   3.389   6.702   3.568 -0.4318  0.2919  1.4521
14795SOL     OW49704   8.204  11.117   2.816  0.2102 -0.3280 -0.5377
14795SOL    HW149705   8.214  11.068   2.734  0.3117 -0.9023 -0.1785
14795SOL    HW249706   8.195  11.051   2.884  1.2887  0.1340  0.0767
14796SOL     OW49707   3.632   9.604   3.706  0.0574 -0.4174  0.3890
14796SOL    HW149708   3.726   9.621   3.712  0.5481 -2.8201  0.3838
14796SOL    HW249709   3.594   9.650   3.781  1.3071 -0.0221  0.7937
14797SOL     OW49710   2.519   1.178   7.748  0.3151  0.5026  0.1069
14797SOL    HW149711   2.545   1.242   7.682 -0.2413  0.1040 -0.5188
14797SOL    HW249712   2.431   1.205   7.775  0.6036  0.7531  0.8025
14798SOL     OW49713   5.134   1.832   7.880 -0.4926 -0.1767  0.7739
14798SOL    HW149714   5.151   1.739   7.896 -0.0739 -0.2137  0.1460
14798SOL    HW249715   5.192   1.877   7.941  0.1998 -0.3269  0.2469
14799SOL     OW49716   6.401  10.861   4.798 -0.6863  0.2161  0.5189
14799SOL    HW149717   6.358  10.900   4.874 -1.1381 -1.1108  0.9614
14799SOL    HW249718   6.360  10.775   4.787  1.7827 -1.1099  0.9300
14800SOL     OW49719   5.608   6.359   1.507 -0.0442  0.4197  0.3169
14800SOL    HW149720   5.548   6.285   1.495 -1.5084  1.6391 -0.0540
14800SOL    HW249721   5.560   6.422   1.560  1.6773  0.5922  1.7672
14801SOL     OW49722   1.922   6.156   4.801  0.0234  0.1146  0.4176
14801SOL    HW149723   1.976   6.234   4.815  1.0981 -0.7844  1.4600
14801SOL    HW249724   1.854   6.162   4.868  0.5827 -0.2362  1.0267
14802SOL     OW49725  11.304   0.117   6.913  0.2183  0.4625  0.6397
14802SOL    HW149726  11.246   0.102   6.838  0.7030 -0.1258  0.3727
14802SOL    HW249727  11.351   0.198   6.891  1.7168 -0.6753 -0.5883
14803SOL     OW49728   6.701   1.319   2.368 -0.1587  0.5785 -0.6413
14803SOL    HW149729   6.768   1.378   2.404 -0.4658  0.0606  0.8835
14803SOL    HW249730   6.751   1.252   2.321  0.2235  1.6971 -1.9000
14804SOL     OW49731   3.933  10.104  10.309  0.4179  0.4900  0.1016
14804SOL    HW149732   4.002  10.155  10.352  1.1243 -0.3474 -0.0314
14804SOL    HW249733   3.977  10.027  10.274 -0.4434  0.3292 -0.6861
14805SOL     OW49734   5.722   4.812   5.038  0.1734 -0.1543 -0.0616
14805SOL    HW149735   5.772   4.824   5.119  1.4230  1.1427 -0.9744
14805SOL    HW249736   5.775   4.750   4.987 -0.0685 -0.1489 -0.3175
14806SOL     OW49737   1.472   0.560   6.452  0.6033 -0.1619 -0.0195
14806SOL    HW149738   1.549   0.567   6.395  0.8247 -0.9406  0.1776
14806SOL    HW249739   1.431   0.647   6.447  2.3177  0.7657  1.0489
14807SOL     OW49740   2.638   3.513   3.390 -0.3586  0.5228  0.5337
14807SOL    HW149741   2.693   3.582   3.353  1.5318 -0.9159  0.4950
14807SOL    HW249742   2.591   3.476   3.315 -0.8223  1.2669  0.4517
14808SOL     OW49743   7.463   2.731  10.340  0.4755 -0.2257 -0.5471
14808SOL    HW149744   7.372   2.724  10.367  0.4731  0.3522 -0.3855
14808SOL    HW249745   7.505   2.653  10.375  0.3688  0.2589  0.7152
14809SOL     OW49746   9.246   9.297   6.505  0.1968  0.0025  0.0563
14809SOL    HW149747   9.193   9.307   6.584 -2.0983 -1.5926 -1.1626
14809SOL    HW249748   9.187   9.322   6.433  1.1353 -1.6364 -1.3533
14810SOL     OW49749   7.733   3.445   4.355 -0.1911  0.3702 -0.4319
14810SOL    HW149750   7.715   3.533   4.388  0.4542 -0.1999  1.5525
14810SOL    HW249751   7.805   3.457   4.293 -0.7125  1.3392 -0.8737
14811SOL     OW49752   8.515   2.840   6.449  0.3592  0.5176 -0.3200
14811SOL    HW149753   8.574   2.797   6.511  0.0496 -1.1168 -1.1226
14811SOL    HW249754   8.510   2.781   6.374 -2.0796  0.6975 -0.3974
14812SOL     OW49755   2.185   2.115   6.238 -0.1461 -0.4265  0.5460
14812SOL    HW149756   2.203   2.054   6.167 -1.8833 -0.5575  0.1709
14812SOL    HW249757   2.225   2.197   6.209 -0.4929 -0.5800 -0.4074
14813SOL     OW49758   7.662  11.059   0.445  0.0497 -0.1044  0.9625
14813SOL    HW149759   7.726  10.988   0.441 -1.1017 -1.3135  2.5545
14813SOL    HW249760   7.709  11.132   0.486  0.4799 -0.9281  1.9821
14814SOL     OW49761   5.942   1.730   3.639  0.3509 -0.3101 -0.5715
14814SOL    HW149762   6.025   1.683   3.639  0.4080 -0.2134 -0.9002
14814SOL    HW249763   5.933   1.765   3.727  2.3778  2.7119 -1.4088
14815SOL     OW49764   5.852   6.674   1.125 -0.4110 -0.4696 -0.4998
14815SOL    HW149765   5.812   6.627   1.197 -0.2769 -0.0410 -0.1398
14815SOL    HW249766   5.930   6.715   1.163 -0.6722  0.2716 -0.7305
14816SOL     OW49767   3.887   3.840   1.504 -0.1069 -0.4242  0.3228
14816SOL    HW149768   3.977   3.867   1.521 -0.1206  0.6405 -1.0891
14816SOL    HW249769   3.842   3.852   1.588  1.1893 -1.6157  1.2130
14817SOL     OW49770   3.796   0.007   3.529 -0.3123  0.2459 -0.2291
14817SOL    HW149771   3.851  -0.063   3.564 -1.0192  0.2260  0.8697
14817SOL    HW249772   3.789  -0.013   3.435  1.1669  0.0051 -0.3104
14818SOL     OW49773   5.827   2.889  10.700 -0.1715  0.1795 -0.5563
14818SOL    HW149774   5.869   2.887  10.614  1.8368 -0.0078  0.3776
14818SOL    HW249775   5.892   2.851  10.759 -2.4284 -2.0175  0.6989
14819SOL     OW49776   9.023   2.822   1.689  0.1927 -0.0105 -0.0274
14819SOL    HW149777   9.092   2.883   1.664  0.6529  0.0234  1.2875
14819SOL    HW249778   9.030   2.751   1.624  1.0904  0.2615 -0.2441
14820SOL     OW49779   7.771  11.818   1.408  0.5571  0.2677  0.2021
14820SOL    HW149780   7.786  11.730   1.443  0.6378 -0.3965 -1.4201
14820SOL    HW249781   7.770  11.806   1.313  0.9619  2.0923 -0.0652
14821SOL     OW49782   9.014  10.216   1.768 -0.6992 -0.1708  0.2024
14821SOL    HW149783   9.051  10.270   1.699 -0.4708 -1.9550 -1.1540
14821SOL    HW249784   9.040  10.259   1.850  1.7758  0.3060 -0.7479
14822SOL     OW49785   1.858   0.642   6.439 -0.3408  0.1713 -0.1330
14822SOL    HW149786   1.877   0.726   6.482  0.1097 -0.1853  0.3727
14822SOL    HW249787   1.842   0.582   6.512  0.0972 -0.3608 -0.4748
14823SOL     OW49788   9.485   8.481   2.733 -0.3812 -0.1959  0.7190
14823SOL    HW149789   9.396   8.507   2.712 -0.0983 -0.1066 -0.4536
14823SOL    HW249790   9.539   8.555   2.705  0.3142 -1.3984 -1.4199
14824SOL     OW49791   2.893   9.027   3.789 -0.2360 -0.5141  0.7579
14824SOL    HW149792   2.901   9.025   3.885 -2.4635  0.1333  1.0078
14824SOL    HW249793   2.885   8.936   3.764  0.6304 -0.7098  1.1472
14825SOL     OW49794   4.383   8.447   6.493  0.0133  0.4349 -0.3995
14825SOL    HW149795   4.376   8.469   6.400 -2.3512  0.3544 -0.2925
14825SOL    HW249796   4.305   8.485   6.533 -0.1553 -1.4106  1.1726
14826SOL     OW49797   1.409   2.423   9.984 -0.3660  0.1451  0.2150
14826SOL    HW149798   1.374   2.470  10.059 -0.6014  0.6661 -0.2122
14826SOL    HW249799   1.431   2.336  10.018  0.9279  0.8419  1.2348
14827SOL     OW49800   0.215   6.820   9.482 -0.6319 -0.1344 -0.1136
14827SOL    HW149801   0.134   6.810   9.432 -0.5240  0.2950 -0.3801
14827SOL    HW249802   0.282   6.779   9.427 -0.7079 -0.7317  0.2299
14828SOL     OW49803   0.328   3.493  11.018  0.5488  0.2119 -0.2667
14828SOL    HW149804   0.288   3.432  10.957  0.9739 -0.4199  0.0770
14828SOL    HW249805   0.409   3.522  10.975  0.2642  0.6692 -0.5015
14829SOL     OW49806   6.915   5.231   0.516  0.4467 -0.2175 -0.1233
14829SOL    HW149807   6.945   5.265   0.601  1.0883 -0.6765 -0.1563
14829SOL    HW249808   6.978   5.162   0.495  1.9971  1.7353 -2.3370
14830SOL     OW49809  11.265   8.371   9.484 -0.1317  0.2129 -0.1901
14830SOL    HW149810  11.290   8.458   9.453 -0.1194  0.7075  1.1057
14830SOL    HW249811  11.184   8.351   9.437 -0.2476  1.0301 -0.3569
14831SOL     OW49812   5.656   7.490   6.852 -0.1934  0.0971  0.2295
14831SOL    HW149813   5.583   7.527   6.802 -0.3973  0.2090  0.6073
14831SOL    HW249814   5.731   7.495   6.793  0.0683  2.2062  0.6669
14832SOL     OW49815   6.624  10.801   5.725  0.0098 -0.1052  0.2666
14832SOL    HW149816   6.668  10.725   5.764 -0.7746 -0.8303 -0.2374
14832SOL    HW249817   6.624  10.867   5.795  0.9113 -0.4754  0.6295
14833SOL     OW49818   7.990   4.743   3.238 -0.4074 -0.7877  0.1441
14833SOL    HW149819   8.015   4.668   3.291 -1.1780 -2.5153 -1.8042
14833SOL    HW249820   7.905   4.771   3.274 -0.6029 -1.5110  0.2585
14834SOL     OW49821  11.658   6.773   6.449 -0.2096  0.0604 -0.0672
14834SOL    HW149822  11.659   6.866   6.427 -0.9704  0.2327  0.5971
14834SOL    HW249823  11.571   6.743   6.423 -0.2524 -0.2811  0.4527
14835SOL     OW49824   7.037   4.183   5.610  0.1189 -0.1208  0.3349
14835SOL    HW149825   6.971   4.203   5.543  0.2170  2.6759  0.9376
14835SOL    HW249826   7.053   4.089   5.600 -0.4588 -0.0183 -2.9954
14836SOL     OW49827   1.994  11.775   8.831  0.1182  0.7815 -0.5908
14836SOL    HW149828   1.968  11.780   8.739 -0.0473  0.2688 -0.5773
14836SOL    HW249829   2.085  11.804   8.832 -0.9512  4.6188 -0.3535
14837SOL     OW49830  10.080   0.771   5.339  0.4859  0.3153  0.3991
14837SOL    HW149831  10.013   0.832   5.309  0.0506 -0.3936 -0.1238
14837SOL    HW249832  10.101   0.799   5.428 -0.5378  0.5225  0.5804
14838SOL     OW49833  10.177   5.190   3.171  0.3047 -0.3617 -0.0993
14838SOL    HW149834  10.170   5.244   3.092 -0.6365 -0.1139  0.1460
14838SOL    HW249835  10.179   5.252   3.243  0.9213 -0.5990  0.0914
14839SOL     OW49836  10.753   7.537   7.834  0.3321 -0.4374  0.1249
14839SOL    HW149837  10.717   7.449   7.844  2.8686 -1.4896  0.9466
14839SOL    HW249838  10.735   7.580   7.917  0.5182 -0.7746  0.3419
14840SOL     OW49839   2.951   8.658   7.934 -0.4890  0.0713  0.0700
14840SOL    HW149840   2.875   8.621   7.890 -0.5435  0.0015  0.2217
14840SOL    HW249841   2.970   8.739   7.887 -0.6088  0.0489 -0.0153
14841SOL     OW49842   5.013  11.655   3.763 -0.3950 -0.0933  0.1365
14841SOL    HW149843   5.043  11.742   3.739 -0.3370  0.1735  1.1320
14841SOL    HW249844   5.059  11.596   3.703  0.3493  0.4835  0.1354
14842SOL     OW49845   5.847   7.615   9.373  0.0800  0.2587 -0.1870
14842SOL    HW149846   5.799   7.666   9.438 -0.1075 -1.7322  1.3248
14842SOL    HW249847   5.926   7.587   9.418  1.1989  0.9109 -1.6561
14843SOL     OW49848   1.034   2.614   0.761 -0.0119  0.2924  0.3011
14843SOL    HW149849   1.126   2.640   0.759 -0.2268  1.1079  0.4283
14843SOL    HW249850   1.021   2.580   0.850 -0.2483  1.8503  0.8994
14844SOL     OW49851   8.430   2.585   6.877 -0.1669 -0.4372 -0.0184
14844SOL    HW149852   8.453   2.674   6.902  0.7900 -0.5260 -0.5196
14844SOL    HW249853   8.336   2.578   6.894 -0.0968  0.4006  0.7935
14845SOL     OW49854   4.744   0.272   8.476 -0.0128 -0.0383  1.0396
14845SOL    HW149855   4.741   0.271   8.571 -2.7621 -0.7326  1.0120
14845SOL    HW249856   4.680   0.339   8.451 -1.0170 -1.4590 -0.3180
14846SOL     OW49857   9.649   4.763   6.152 -0.0201  0.0335  0.0456
14846SOL    HW149858   9.630   4.770   6.059  1.1489  0.1778 -0.1976
14846SOL    HW249859   9.744   4.775   6.158 -0.2186  1.1656  1.3677
14847SOL     OW49860   9.131   0.390   6.755  0.1959  0.1214 -0.1627
14847SOL    HW149861   9.083   0.461   6.799 -0.6439 -0.0831 -0.7268
14847SOL    HW249862   9.080   0.373   6.676 -0.0034 -1.5934  0.3047
14848SOL     OW49863   3.834   4.152   8.971 -0.6831 -0.1504  0.3047
14848SOL    HW149864   3.741   4.168   8.984 -0.2836  2.7412  0.2137
14848SOL    HW249865   3.876   4.198   9.044  0.7391  0.4967 -0.8753
14849SOL     OW49866   9.294   2.356   0.580  0.1603 -0.0281  0.0847
14849SOL    HW149867   9.339   2.356   0.664 -0.0058 -1.2363  0.1848
14849SOL    HW249868   9.209   2.396   0.598  1.1765  2.4341 -0.1384
14850SOL     OW49869  11.682   9.484   5.011  0.4330 -0.1448 -0.3095
14850SOL    HW149870  11.736   9.481   5.090  0.3952  0.6426 -0.2413
14850SOL    HW249871  11.626   9.407   5.018 -0.7061  0.7635  1.2720
14851SOL     OW49872   3.250   4.590  11.146  0.2178  0.4628 -0.6390
14851SOL    HW149873   3.342   4.581  11.123  1.1471  1.2327  2.3359
14851SOL    HW249874   3.245   4.676  11.189 -1.8556  0.3467 -0.5605
14852SOL     OW49875   4.243   6.834   4.703  0.4344  0.0379 -0.4526
14852SOL    HW149876   4.322   6.789   4.734  1.7002  0.7803 -2.4226
14852SOL    HW249877   4.186   6.763   4.672  0.6655 -0.4487  0.2079
14853SOL     OW49878   7.595   1.892   0.356 -0.5103 -0.2441 -0.6152
14853SOL    HW149879   7.647   1.890   0.437 -0.8786 -0.7993 -0.3846
14853SOL    HW249880   7.507   1.869   0.385 -0.9489  0.9792 -0.9579
14854SOL     OW49881   6.877   1.555  11.688  0.3338 -0.3111 -0.0054
14854SOL    HW149882   6.955   1.502  11.705  0.2042 -0.8824 -1.0827
14854SOL    HW249883   6.821   1.498  11.636 -0.8169  0.0870  0.7459
14855SOL     OW49884   1.492   3.663   6.482 -0.3976  0.6946 -0.5913
14855SOL    HW149885   1.537   3.632   6.404 -1.6166 -2.1052 -0.2848
14855SOL    HW249886   1.530   3.613   6.554 -1.2765  1.1422  0.2067
14856SOL     OW49887  10.463   3.575   9.490  0.4942  0.0173 -0.5620
14856SOL    HW149888  10.464   3.669   9.475 -0.6947  0.3038  0.9673
14856SOL    HW249889  10.546   3.556   9.533  0.3717  0.5149 -0.1062
14857SOL     OW49890  10.333   4.292   7.357 -0.5897 -0.0460 -0.8683
14857SOL    HW149891  10.303   4.206   7.328 -2.0911  0.0820  0.1575
14857SOL    HW249892  10.270   4.353   7.318 -0.5880  0.4140 -0.1686
14858SOL     OW49893   7.327   7.141  10.983 -0.2857 -0.1102  1.0846
14858SOL    HW149894   7.371   7.124  10.899 -0.9949  1.2031  0.4057
14858SOL    HW249895   7.361   7.227  11.010 -2.1392  0.7941  0.6996
14859SOL     OW49896   5.111   5.276   4.800  0.5048  0.7710  0.0825
14859SOL    HW149897   5.169   5.348   4.775 -0.9883  1.9018 -0.3230
14859SOL    HW249898   5.049   5.316   4.861 -0.4081 -0.1432 -0.2142
14860SOL     OW49899   0.932   7.923   0.897  0.4846  0.0666 -0.6925
14860SOL    HW149900   0.946   7.849   0.955 -0.5713  0.3772  0.0059
14860SOL    HW249901   1.008   7.924   0.839  1.7607 -0.0350  0.9200
14861SOL     OW49902  11.437   4.547   2.485 -0.8049 -0.1079  0.1257
14861SOL    HW149903  11.400   4.497   2.558 -0.7931 -1.2746 -0.6510
14861SOL    HW249904  11.401   4.635   2.496 -0.5682 -0.1793  1.7045
14862SOL     OW49905  11.437   4.449   7.306 -0.3006  0.6734 -0.3591
14862SOL    HW149906  11.353   4.435   7.350 -0.7257  2.5808 -0.4991
14862SOL    HW249907  11.417   4.502   7.230  0.8371 -0.2073 -1.3219
14863SOL     OW49908   4.308   5.780   7.346  0.2297  0.3222  0.4252
14863SOL    HW149909   4.339   5.691   7.332 -2.4295 -0.4922 -0.9373
14863SOL    HW249910   4.264   5.776   7.431  1.9766  0.9657  1.4102
14864SOL     OW49911   5.473  11.447   3.982 -0.0700 -0.1542 -0.5918
14864SOL    HW149912   5.457  11.485   4.069  1.7915  1.0126 -0.7017
14864SOL    HW249913   5.433  11.360   3.987  0.4373 -0.3330  1.6350
14865SOL     OW49914   5.502   9.163   0.612 -0.1933 -1.0075  0.1010
14865SOL    HW149915   5.491   9.198   0.700  2.3783 -3.3513  1.5383
14865SOL    HW249916   5.414   9.142   0.583 -1.2974  1.6203  1.2539
14866SOL     OW49917   3.896  11.798   1.837  0.6169  0.1569 -0.0812
14866SOL    HW149918   3.849  11.879   1.821 -0.3876 -0.6638 -1.4375
14866SOL    HW249919   3.866  11.770   1.924 -1.5540 -0.4035 -0.9446
14867SOL     OW49920   3.502   9.561  10.198  0.2858 -0.0243 -0.8826
14867SOL    HW149921   3.454   9.479  10.185  0.7764 -0.2644 -1.2308
14867SOL    HW249922   3.594   9.536  10.192  0.5665  0.0387  1.9334
14868SOL     OW49923   7.943  10.346   8.292  0.5280  0.1849  0.3359
14868SOL    HW149924   8.012  10.403   8.258  0.8657  0.3426  1.2604
14868SOL    HW249925   7.931  10.280   8.223  0.9290  0.7037 -0.2468
14869SOL     OW49926   3.233   8.399   4.217 -0.1195  0.0832 -0.5424
14869SOL    HW149927   3.247   8.449   4.298 -0.1488  0.3667 -0.7124
14869SOL    HW249928   3.214   8.465   4.151  3.0118  0.1993 -1.5169
14870SOL     OW49929   2.115   9.163   9.089  0.3895 -0.6965 -0.0305
14870SOL    HW149930   2.186   9.167   9.025  0.9885 -1.1752  0.5893
14870SOL    HW249931   2.035   9.162   9.035  0.8406 -0.1555 -0.7318
14871SOL     OW49932   5.190   7.419   9.448  0.1198  0.3226  0.0432
14871SOL    HW149933   5.240   7.427   9.529 -0.8605  1.8890  0.5353
14871SOL    HW249934   5.125   7.352   9.467 -1.2865  1.9465  1.2430
14872SOL     OW49935   4.908   7.876   1.793  0.0384  0.7934 -0.1789
14872SOL    HW149936   4.870   7.795   1.760  0.0522  0.0919  1.4364
14872SOL    HW249937   4.842   7.943   1.777  0.2372  0.6150 -2.0163
14873SOL     OW49938   9.025   6.404   1.372  0.0180  0.0729 -0.4621
14873SOL    HW149939   9.057   6.314   1.371 -0.8714 -0.2456 -0.9191
14873SOL    HW249940   9.031   6.430   1.464  1.2164 -0.0903 -0.4720
14874SOL     OW49941   1.388   8.248   6.070 -0.3391  0.5044 -0.0522
14874SOL    HW149942   1.333   8.207   6.138  1.1281 -1.2492  0.1547
14874SOL    HW249943   1.365   8.341   6.074 -2.7962 -0.0347  0.4508
14875SOL     OW49944   8.246   8.524   3.494 -0.5424  0.1214 -0.6307
14875SOL    HW149945   8.337   8.554   3.499 -0.4535 -0.3057  0.8904
14875SOL    HW249946   8.254   8.430   3.476 -0.5089 -0.5520  2.3026
14876SOL     OW49947   3.720   2.151   6.429 -0.0487 -0.6569 -0.0317
14876SOL    HW149948   3.691   2.111   6.347  1.4812 -0.1611 -0.8395
14876SOL    HW249949   3.749   2.239   6.404 -1.3230  0.2155  1.3592
14877SOL     OW49950   5.778   5.271  10.741  0.9337  0.1963 -0.3009
14877SOL    HW149951   5.804   5.357  10.708 -0.4165  0.1440 -1.6159
14877SOL    HW249952   5.731   5.289  10.822 -0.2550  0.8124 -1.1045
14878SOL     OW49953   4.525   6.185   5.898  0.4370  0.2948  0.0249
14878SOL    HW149954   4.486   6.130   5.965  1.1280 -0.6242 -0.3077
14878SOL    HW249955   4.483   6.270   5.910  0.4864  0.1350  1.5597
14879SOL     OW49956   1.311   7.842   8.480 -0.1159 -0.5349  0.4806
14879SOL    HW149957   1.405   7.830   8.469  0.3659  3.3888 -1.6291
14879SOL    HW249958   1.272   7.799   8.404  0.5714  1.9612 -1.4120
14880SOL     OW49959   6.130  11.333   3.600 -0.1295  0.0551 -0.2422
14880SOL    HW149960   6.113  11.239   3.595  0.3512 -0.1373  1.2137
14880SOL    HW249961   6.139  11.351   3.693 -1.3684  1.7813 -0.4111
14881SOL     OW49962   9.192  10.389   9.117  0.3167 -0.0490  0.3295
14881SOL    HW149963   9.118  10.329   9.118  0.6889 -0.6263 -1.4564
14881SOL    HW249964   9.154  10.476   9.109 -0.1945 -0.3609 -0.8350
14882SOL     OW49965   2.524   1.872   6.102  0.2701 -0.1210  0.0307
14882SOL    HW149966   2.593   1.808   6.121 -1.1033 -1.5557  0.4208
14882SOL    HW249967   2.562   1.956   6.125  1.4491 -1.0054  1.4880
14883SOL     OW49968   0.065   7.561   6.850 -0.2103 -0.0221  0.0805
14883SOL    HW149969   0.083   7.551   6.756  1.6069  0.0293  0.3762
14883SOL    HW249970   0.054   7.471   6.882  2.0063 -0.2852  0.2694
14884SOL     OW49971   2.344   5.275   7.983  0.2475  0.1664  0.1959
14884SOL    HW149972   2.385   5.275   8.069  1.5522  1.5278 -0.3778
14884SOL    HW249973   2.407   5.320   7.926 -1.7766  1.8363 -0.8805
14885SOL     OW49974   3.845   0.621   1.181 -0.2228  0.1492 -0.1054
14885SOL    HW149975   3.783   0.566   1.229  0.4690  0.2195  0.8963
14885SOL    HW249976   3.791   0.665   1.114 -0.9042 -1.2075 -0.4778
14886SOL     OW49977   9.133   0.159  10.158 -0.0597 -0.6297 -0.0702
14886SOL    HW149978   9.059   0.114  10.116 -1.4883  0.1977  1.4956
14886SOL    HW249979   9.141   0.241  10.110 -0.3717 -0.5690 -0.0184
14887SOL     OW49980   2.163  11.675   9.955  0.3480  0.0356 -0.3567
14887SOL    HW149981   2.229  11.696   9.890  1.0307  1.0873  0.6478
14887SOL    HW249982   2.092  11.634   9.905  0.8232  0.8696 -1.7543
14888SOL     OW49983   3.317  11.499   4.094  0.5148 -0.2138  0.1520
14888SOL    HW149984   3.253  11.552   4.048  0.2902 -0.7496 -0.1690
14888SOL    HW249985   3.382  11.476   4.027  1.1851  0.5367  0.5307
14889SOL     OW49986   2.538   1.884   6.994 -0.0813 -0.3104  0.7045
14889SOL    HW149987   2.623   1.906   6.958  0.2183 -0.8828  1.0472
14889SOL    HW249988   2.522   1.794   6.966 -1.0630  0.1269 -0.2600
14890SOL     OW49989   2.361  11.498  10.450  0.2491 -0.1795 -0.4248
14890SOL    HW149990   2.306  11.424  10.476 -1.0777  0.7069 -0.5490
14890SOL    HW249991   2.431  11.500  10.515  0.1383 -1.3671 -0.2579
14891SOL     OW49992   2.162   8.693   0.616  0.0451 -0.0699 -0.3126
14891SOL    HW149993   2.156   8.607   0.573  1.0959 -0.3358  0.0476
14891SOL    HW249994   2.192   8.674   0.705  0.6351  0.6880 -0.3353
14892SOL     OW49995   8.795  11.418   7.526  0.1666  0.0887 -0.4824
14892SOL    HW149996   8.880  11.404   7.483  0.2906  0.5690 -0.4009
14892SOL    HW249997   8.775  11.511   7.510  0.4439  0.4027  0.8799
14893SOL     OW49998   8.494   3.428   5.644 -0.4822 -0.7530 -0.0035
14893SOL    HW149999   8.549   3.506   5.642 -0.0758 -0.9830 -3.3851
14893SOL    HW250000   8.555   3.355   5.643 -0.8478 -1.0607 -0.2100
14894SOL     OW50001   4.282  10.268  11.098 -0.6780  0.0301  0.1088
14894SOL    HW150002   4.216  10.208  11.132 -0.6951 -0.1111 -0.1706
14894SOL    HW250003   4.232  10.342  11.063 -0.6236  0.5794  1.1581
14895SOL     OW50004   2.994   4.987   3.470 -0.0452 -0.0708 -0.0362
14895SOL    HW150005   2.979   4.906   3.422  1.8757 -1.1708  1.0982
14895SOL    HW250006   2.945   4.977   3.551  0.5688 -0.3017  0.3073
14896SOL     OW50007   5.628   4.882  10.583  0.7513 -0.4221 -0.0215
14896SOL    HW150008   5.698   4.891  10.519  0.8704 -2.2243 -0.1949
14896SOL    HW250009   5.605   4.790  10.580 -0.4717 -0.1873  1.2613
14897SOL     OW50010   6.195   3.474   1.139 -0.0662 -0.1467  0.3131
14897SOL    HW150011   6.159   3.506   1.056 -0.4614 -1.2526  0.0344
14897SOL    HW250012   6.228   3.552   1.183 -0.7956  0.5953 -0.4240
14898SOL     OW50013   8.313   9.335  10.735  0.3285 -0.2055 -0.0977
14898SOL    HW150014   8.252   9.409  10.729 -0.0531 -0.6236 -3.2956
14898SOL    HW250015   8.262   9.265  10.776 -0.7802  0.0199 -1.0262
14899SOL     OW50016   4.038   8.096   9.519  0.4297  0.6301 -0.4787
14899SOL    HW150017   4.084   8.012   9.517  2.7214  1.7044  1.6341
14899SOL    HW250018   4.106   8.161   9.500 -0.5766  2.2051  1.0511
14900SOL     OW50019   4.353   0.868   8.845 -0.4362  0.2409 -0.1824
14900SOL    HW150020   4.446   0.852   8.834 -0.1899  1.4492 -0.0467
14900SOL    HW250021   4.347   0.963   8.861 -1.4614 -0.1132  2.0180
14901SOL     OW50022   1.040  11.312   5.539  0.1059  0.6857  0.5868
14901SOL    HW150023   1.025  11.405   5.524 -0.9581  0.6201  1.1215
14901SOL    HW250024   0.953  11.273   5.539  0.6216 -0.5919 -1.2271
14902SOL     OW50025   5.849   3.119   0.692 -0.2601  0.3264  0.6242
14902SOL    HW150026   5.940   3.098   0.712 -0.5149  0.4642  1.9981
14902SOL    HW250027   5.800   3.041   0.716 -0.4138 -0.2230 -1.2646
14903SOL     OW50028   1.325   8.286   3.966  0.6176 -0.2963 -0.3315
14903SOL    HW150029   1.394   8.228   3.999 -0.0692 -1.7304 -1.3209
14903SOL    HW250030   1.360   8.322   3.885  0.0645 -1.3808 -1.0740
14904SOL     OW50031   9.696   4.499   7.192  0.4304 -0.1430  0.1830
14904SOL    HW150032   9.654   4.566   7.245  2.2197  0.2180  1.2193
14904SOL    HW250033   9.715   4.542   7.108  1.9610  0.8375  0.9878
14905SOL     OW50034   9.251   1.749   0.290 -0.0177 -0.0646  0.0082
14905SOL    HW150035   9.225   1.809   0.360 -0.2720  1.2842 -1.1929
14905SOL    HW250036   9.302   1.804   0.230  1.3334 -1.5017 -0.2042
14906SOL     OW50037   3.052  10.027   4.441  0.0895  0.0766 -0.3058
14906SOL    HW150038   3.037  10.108   4.393  2.2439  1.2088  0.7389
14906SOL    HW250039   2.997  10.035   4.519 -0.4967  0.0323 -0.7103
14907SOL     OW50040   2.724   1.546   6.472  0.0386  0.7891 -0.9135
14907SOL    HW150041   2.798   1.592   6.512  0.9967  0.6940 -2.4708
14907SOL    HW250042   2.711   1.469   6.527  0.9159  0.9734 -0.4248
14908SOL     OW50043   3.932   9.628   8.775 -0.4000  0.5695 -0.5428
14908SOL    HW150044   4.012   9.615   8.724  0.5962  3.0838  0.2301
14908SOL    HW250045   3.961   9.629   8.866 -1.7455 -1.0780 -0.0444
14909SOL     OW50046   2.551   5.405   7.826  0.6144  0.0439  0.7167
14909SOL    HW150047   2.624   5.349   7.801  1.6402 -0.3710  4.1243
14909SOL    HW250048   2.589   5.493   7.834 -0.0884  0.5120 -0.7127
14910SOL     OW50049   3.893  11.099   4.921 -0.4256  0.2778  0.1713
14910SOL    HW150050   3.869  11.187   4.894  0.9317  0.8207  0.6511
14910SOL    HW250051   3.940  11.111   5.004  2.7704 -0.4917 -1.3693
14911SOL     OW50052   3.274  10.913  11.147 -0.6067 -0.0983 -0.8780
14911SOL    HW150053   3.235  10.948  11.067 -0.3195 -1.4751 -1.6635
14911SOL    HW250054   3.284  10.819  11.129  0.6534 -0.2147  0.2791
14912SOL     OW50055  11.500   6.102   6.718 -0.5681 -0.3746  0.0954
14912SOL    HW150056  11.540   6.048   6.649  1.8869 -0.4887  1.5153
14912SOL    HW250057  11.467   6.038   6.782 -1.3130 -0.2367 -0.1426
14913SOL     OW50058   0.481   4.301   7.267 -0.1415  0.0005 -0.0342
14913SOL    HW150059   0.530   4.321   7.348  1.1933  4.3703 -1.6189
14913SOL    HW250060   0.532   4.232   7.225 -0.6569 -2.1130  2.5204
14914SOL     OW50061   8.624   2.520  10.446  0.5252 -0.3310  0.0480
14914SOL    HW150062   8.660   2.510  10.358 -1.8356  0.1809 -1.0450
14914SOL    HW250063   8.688   2.477  10.503  1.7714 -1.3067 -1.9786
14915SOL     OW50064   5.181   6.609   6.305 -0.2540  0.0507 -0.2444
14915SOL    HW150065   5.107   6.616   6.244 -0.9519 -0.5091  0.5263
14915SOL    HW250066   5.188   6.516   6.323 -0.6609  0.2885  1.2550
14916SOL     OW50067   2.595   9.220   5.023  0.2463  0.5783  0.0779
14916SOL    HW150068   2.623   9.136   5.060 -1.0697  0.5435  1.0746
14916SOL    HW250069   2.567   9.199   4.934  0.4726  0.0721  0.1221
14917SOL     OW50070   1.574   7.191   0.425 -0.4353  0.6146 -0.4080
14917SOL    HW150071   1.536   7.279   0.432 -1.5988  0.1214 -0.2167
14917SOL    HW250072   1.543   7.145   0.503 -1.5314 -0.5665 -1.4933
14918SOL     OW50073   4.094   5.986   6.420 -0.4786  0.1627 -0.1829
14918SOL    HW150074   4.024   6.035   6.464  0.7885  0.3635  1.6991
14918SOL    HW250075   4.166   6.048   6.414  0.2530 -0.6759 -0.1995
14919SOL     OW50076   0.734   8.356   7.579  0.3403  0.1293 -0.4211
14919SOL    HW150077   0.722   8.279   7.523  0.2138 -0.0614 -0.1321
14919SOL    HW250078   0.784   8.324   7.653  1.6971  0.6764 -1.0686
14920SOL     OW50079  10.545   8.425   0.174 -0.0381 -0.4081 -0.3173
14920SOL    HW150080  10.574   8.515   0.155 -0.5986 -0.1254  0.1307
14920SOL    HW250081  10.450   8.432   0.183  0.0568 -0.7592  1.2100
14921SOL     OW50082  11.497   1.253   8.719  0.1759 -0.5075  0.0204
14921SOL    HW150083  11.488   1.306   8.640  0.8267 -0.0622  0.2417
14921SOL    HW250084  11.539   1.172   8.690 -1.2962 -1.1577 -0.4133
14922SOL     OW50085   4.944   3.058   2.776  0.0001 -0.5134  0.3721
14922SOL    HW150086   4.863   3.016   2.803 -0.3817  0.4759  0.8186
14922SOL    HW250087   4.992   3.072   2.857  0.2872 -0.4140  0.1882
14923SOL     OW50088   9.763  11.378   9.426 -0.3084  0.1387 -0.2798
14923SOL    HW150089   9.806  11.307   9.379  0.6249  0.9338 -0.6507
14923SOL    HW250090   9.827  11.449   9.427 -1.7214  1.5082 -1.1961
14924SOL     OW50091   4.728   8.943   7.139 -0.1116  0.2654  0.2806
14924SOL    HW150092   4.691   8.924   7.225  1.0175  1.4835  1.0693
14924SOL    HW250093   4.698   9.031   7.118  0.6882  0.4922  0.0388
14925SOL     OW50094   4.899   6.772  11.729  0.1082  0.3593 -0.2880
14925SOL    HW150095   4.951   6.710  11.677 -1.5005 -3.0792  1.8016
14925SOL    HW250096   4.947   6.781  11.811 -0.5594  0.4406  0.1009
14926SOL     OW50097   7.005   9.893   7.676 -0.0479 -0.5980  0.3522
14926SOL    HW150098   6.958   9.957   7.623 -0.6071  1.0410  2.6885
14926SOL    HW250099   6.949   9.879   7.752  1.0350 -2.3372  0.8857
14927SOL     OW50100   2.923   1.055   3.853 -0.0402  0.2683 -0.1049
14927SOL    HW150101   2.829   1.044   3.843 -0.0345 -0.3286  0.4229
14927SOL    HW250102   2.933   1.131   3.910 -0.2580 -0.6729  1.2271
14928SOL     OW50103  10.500   4.400   9.740  0.2114  0.6907 -0.2536
14928SOL    HW150104  10.482   4.470   9.802  1.0890  1.8034 -1.2153
14928SOL    HW250105  10.570   4.349   9.781  0.3612  1.0578 -0.0481
14929SOL     OW50106   2.879   4.863  11.368  0.3807  0.3205 -0.2404
14929SOL    HW150107   2.963   4.856  11.414  0.8866 -0.7188 -1.2718
14929SOL    HW250108   2.854   4.955  11.377 -0.3065 -0.0658  3.3681
14930SOL     OW50109   2.993   1.710   6.629  0.5669  0.3910  0.5493
14930SOL    HW150110   3.011   1.617   6.646  0.3907  0.1769 -0.3803
14930SOL    HW250111   3.037   1.756   6.701  0.4193 -0.4236  1.1791
14931SOL     OW50112  11.283   9.234   0.180 -0.0763 -0.4500 -0.2140
14931SOL    HW150113  11.189   9.233   0.161 -0.0972 -0.6198 -0.1118
14931SOL    HW250114  11.289   9.213   0.273 -0.0083  1.0219  0.1336
14932SOL     OW50115   8.743  10.071   9.335  0.1628  0.0135 -0.6410
14932SOL    HW150116   8.704  10.015   9.402  2.5173 -0.9861  0.0194
14932SOL    HW250117   8.684  10.065   9.260 -1.2363 -0.8614  0.4889
14933SOL     OW50118   7.032   0.507   0.722 -0.1398 -0.2125 -0.0324
14933SOL    HW150119   7.057   0.597   0.742  0.3211 -0.6281  1.3882
14933SOL    HW250120   7.078   0.454   0.787 -1.4134 -1.3670 -0.0157
14934SOL     OW50121   8.874   8.078   5.421  0.0190 -0.2244 -0.0324
14934SOL    HW150122   8.963   8.095   5.451  0.1773 -0.0235 -0.6171
14934SOL    HW250123   8.822   8.148   5.460  0.1801 -0.1188 -0.0063
14935SOL     OW50124   1.067   7.420  11.356 -0.1963  0.2430 -0.5067
14935SOL    HW150125   1.054   7.459  11.270  0.6803 -0.5919 -1.0417
14935SOL    HW250126   1.162   7.416  11.367 -0.2257 -1.9153 -0.6071
14936SOL     OW50127   6.045   0.079   6.061 -0.1092  0.3217 -0.5881
14936SOL    HW150128   6.052   0.044   5.972 -0.4886 -1.9849  0.2274
14936SOL    HW250129   5.951   0.085   6.077 -0.2689 -3.8932  1.2242
14937SOL     OW50130   6.257   7.710   6.519  0.1311 -0.1554  0.1309
14937SOL    HW150131   6.168   7.716   6.484  0.9944 -0.3675 -2.2423
14937SOL    HW250132   6.271   7.616   6.532  0.0554 -0.1298  0.4056
14938SOL     OW50133  11.434   5.879   9.871 -0.2734 -0.3076 -0.2343
14938SOL    HW150134  11.398   5.796   9.841  0.7263 -1.1110  0.7066
14938SOL    HW250135  11.358   5.927   9.904 -0.9107 -0.6845 -1.1143
14939SOL     OW50136   7.005   0.222   4.710 -0.0675 -0.2015  0.0174
14939SOL    HW150137   6.911   0.227   4.698 -0.0012  2.9212 -0.0283
14939SOL    HW250138   7.018   0.220   4.805 -0.1597 -1.6837  0.0166
14940SOL     OW50139   3.809   0.911   9.568  0.2455  0.0147  0.4300
14940SOL    HW150140   3.817   0.850   9.642 -0.0836 -1.2235 -0.5227
14940SOL    HW250141   3.773   0.858   9.497  1.4178  0.9446 -0.9135
14941SOL     OW50142   6.539   4.244   3.549 -0.0244  0.4621  0.1790
14941SOL    HW150143   6.490   4.318   3.515  0.9197  0.7594 -0.5529
14941SOL    HW250144   6.531   4.176   3.481 -1.7723 -0.5484  1.2850
14942SOL     OW50145   3.865  10.107   0.772 -0.1081  0.4064 -0.2087
14942SOL    HW150146   3.939  10.049   0.755  0.1741  0.4556  0.8330
14942SOL    HW250147   3.800  10.051   0.815 -0.1282  0.6838  0.1290
14943SOL     OW50148   7.962   9.668   7.923  0.5105  0.4620 -0.0630
14943SOL    HW150149   7.897   9.627   7.867  0.2326  2.0948 -0.9937
14943SOL    HW250150   8.044   9.664   7.873  0.7098  0.1163  0.2873
14944SOL     OW50151   7.157   7.170   1.279 -0.0449 -0.4255  0.1570
14944SOL    HW150152   7.114   7.256   1.280  0.1921 -0.3100  0.5304
14944SOL    HW250153   7.087   7.107   1.295 -0.1881 -0.2880  0.0762
14945SOL     OW50154   3.454   4.314   8.036  0.1530 -0.2255 -0.5260
14945SOL    HW150155   3.501   4.392   8.008  0.1684  0.0512  0.2486
14945SOL    HW250156   3.450   4.321   8.131  1.0056 -1.6405 -0.3523
14946SOL     OW50157   9.030   9.011   1.262  0.1898 -0.3165 -0.1326
14946SOL    HW150158   9.070   9.083   1.311 -1.0671 -0.1191  0.6351
14946SOL    HW250159   9.009   8.945   1.328 -0.4040 -0.5713 -0.5600
14947SOL     OW50160   1.862   5.824   2.937  0.3186 -0.7306  0.3970
14947SOL    HW150161   1.905   5.743   2.966  0.1071 -1.7893 -1.9934
14947SOL    HW250162   1.913   5.853   2.862 -0.8216  0.2096 -0.0517
14948SOL     OW50163  10.529  10.906   5.477 -0.1222  0.3057 -0.3522
14948SOL    HW150164  10.569  10.903   5.391  1.0944 -0.8688  0.2177
14948SOL    HW250165  10.472  10.983   5.475  3.4654  3.2596 -0.6749
14949SOL     OW50166   0.202   3.212   2.121 -0.3531 -0.0130  0.3697
14949SOL    HW150167   0.145   3.287   2.133  1.4139  1.3620  0.5686
14949SOL    HW250168   0.143   3.140   2.099 -2.1719  1.2123  1.0396
14950SOL     OW50169   3.328  11.708  11.381  0.0837 -0.1708 -0.4348
14950SOL    HW150170   3.247  11.663  11.358 -0.1610  0.8064 -1.5848
14950SOL    HW250171   3.395  11.665  11.328  0.4056 -1.1703  0.7275
14951SOL     OW50172   2.942   9.993   3.684  0.0550 -0.2705 -0.2956
14951SOL    HW150173   2.953  10.039   3.767  1.5242 -0.7049 -0.2163
14951SOL    HW250174   2.946  10.062   3.618 -0.2732 -0.0152 -0.0528
14952SOL     OW50175   4.673   8.134   4.970  0.4413 -0.3377  0.0233
14952SOL    HW150176   4.644   8.071   5.036  1.4302 -1.5189 -0.6122
14952SOL    HW250177   4.747   8.179   5.011 -0.0008  0.1176  0.3254
14953SOL     OW50178   4.799   7.023   2.204 -0.0698 -0.3907  0.4793
14953SOL    HW150179   4.711   7.032   2.242 -0.3581  0.0290 -0.2669
14953SOL    HW250180   4.803   7.090   2.136  0.9194 -0.2558  0.6554
14954SOL     OW50181   4.412  11.654   5.236 -0.0354  0.5639  0.3304
14954SOL    HW150182   4.499  11.689   5.252  0.9954 -0.6679 -2.1010
14954SOL    HW250183   4.426  11.565   5.207 -2.2360 -0.1160  1.0954
14955SOL     OW50184  11.299   6.539   4.697 -0.0284 -0.0447  0.0032
14955SOL    HW150185  11.250   6.480   4.639 -1.2476  0.8751  0.0473
14955SOL    HW250186  11.239   6.554   4.770  0.0318  1.6423 -0.2598
14956SOL     OW50187  10.706   3.553   4.664 -0.1817 -0.0964 -0.6653
14956SOL    HW150188  10.786   3.600   4.684 -0.3775  0.7634 -1.7996
14956SOL    HW250189  10.686   3.504   4.744  1.7058 -0.6930 -0.5069
14957SOL     OW50190   1.839   6.845   4.710 -0.6325 -0.3323 -0.9196
14957SOL    HW150191   1.811   6.925   4.755  1.4522 -1.2285  2.3222
14957SOL    HW250192   1.763   6.788   4.713 -1.0192  0.2145  0.1490
14958SOL     OW50193   1.684   7.333   4.460 -0.3602 -0.2348  0.0391
14958SOL    HW150194   1.639   7.411   4.493 -1.0229 -1.2399  1.6603
14958SOL    HW250195   1.615   7.281   4.419  0.3989  0.8317 -2.7910
14959SOL     OW50196   1.720   1.003   5.997  0.1203 -0.0727  0.1068
14959SOL    HW150197   1.715   1.025   6.090  1.4526  0.3782  0.0866
14959SOL    HW250198   1.681   1.078   5.952 -0.4829 -0.2706  0.2945
14960SOL     OW50199   9.539   5.237   6.800 -0.2033 -0.9428  0.4724
14960SOL    HW150200   9.572   5.201   6.718 -0.3031  0.5393 -0.2635
14960SOL    HW250201   9.615   5.278   6.841 -0.3296 -0.9336  0.6976
14961SOL     OW50202  11.795   6.123   5.961  0.1817 -0.0578 -0.6532
14961SOL    HW150203  11.870   6.067   5.982 -0.2973 -0.8908 -1.1087
14961SOL    HW250204  11.724   6.091   6.016  0.1766  0.8084 -0.1344
14962SOL     OW50205   8.265   2.273   6.340  0.2077 -0.2612  0.1174
14962SOL    HW150206   8.337   2.298   6.281  0.6092 -0.1739  0.6327
14962SOL    HW250207   8.308   2.257   6.424 -0.4533  0.3792  0.5875
14963SOL     OW50208   0.319   5.355   3.464 -0.2873  0.2731  0.1453
14963SOL    HW150209   0.365   5.375   3.545 -0.4335  1.8760 -0.1313
14963SOL    HW250210   0.379   5.298   3.416  2.0950  3.2599 -0.7373
14964SOL     OW50211   2.758   8.185   3.285 -0.2964  0.0257 -0.0388
14964SOL    HW150212   2.787   8.094   3.274 -0.6430 -0.0725 -0.1586
14964SOL    HW250213   2.719   8.208   3.201 -1.1934 -0.0774  0.3372
14965SOL     OW50214   2.521   2.997   9.257 -0.1587  0.3519  0.2962
14965SOL    HW150215   2.462   2.973   9.185  0.4919  0.3577 -0.2463
14965SOL    HW250216   2.467   2.986   9.336 -0.3327 -1.5410 -0.0227
14966SOL     OW50217  11.792   9.732  11.215  0.0922 -0.3232  0.6242
14966SOL    HW150218  11.735   9.718  11.139 -0.3211  1.8003  0.4774
14966SOL    HW250219  11.848   9.655  11.217  0.8108 -0.0334 -2.4598
14967SOL     OW50220   0.899   3.691   6.702  0.0824 -0.0981  0.3808
14967SOL    HW150221   0.961   3.650   6.761  0.7440 -0.4672 -0.5443
14967SOL    HW250222   0.813   3.666   6.737  0.4602 -0.5942  0.9847
14968SOL     OW50223   3.054   1.501   8.000  0.2994  0.1109 -0.8216
14968SOL    HW150224   3.048   1.482   7.906 -3.1648  0.5753 -0.8370
14968SOL    HW250225   2.995   1.575   8.013 -0.2574 -0.7013  1.8861
14969SOL     OW50226   6.281  11.813   1.846 -0.3643 -0.6441  0.3747
14969SOL    HW150227   6.317  11.757   1.914  0.5995 -0.2220  0.2327
14969SOL    HW250228   6.354  11.827   1.786 -1.0224 -0.4907 -0.4063
14970SOL     OW50229   0.188   6.697  10.244  0.1713  0.7924  0.0160
14970SOL    HW150230   0.136   6.731  10.171 -1.1806 -0.2415  0.4517
14970SOL    HW250231   0.138   6.720  10.322 -0.3633 -1.3209  0.3774
14971SOL     OW50232   6.377  11.632  11.775  0.2162  0.1151  0.7084
14971SOL    HW150233   6.371  11.566  11.843 -0.0173 -0.3137  0.2820
14971SOL    HW250234   6.431  11.702  11.812 -1.3749  0.7284  1.9853
14972SOL     OW50235   9.628  10.192   3.134  0.2148 -0.3158 -0.1663
14972SOL    HW150236   9.649  10.220   3.045 -0.7700  1.6771  0.1898
14972SOL    HW250237   9.537  10.218   3.147  0.3253 -0.6360  1.4166
14973SOL     OW50238   6.771   8.253   8.851 -0.3749  0.8547 -0.3474
14973SOL    HW150239   6.680   8.242   8.822 -0.5390 -0.3566  0.5593
14973SOL    HW250240   6.795   8.169   8.889  1.3830  0.9177 -1.1992
14974SOL     OW50241   3.319   2.532   0.331 -0.1653 -0.2251  0.5017
14974SOL    HW150242   3.357   2.607   0.284 -1.1090  0.7843  1.2993
14974SOL    HW250243   3.392   2.495   0.380  0.0539  1.0187  1.1593
14975SOL     OW50244   8.331   2.094   0.288  0.0992  0.3761  0.4298
14975SOL    HW150245   8.325   2.010   0.334 -0.7888 -0.2861 -0.8156
14975SOL    HW250246   8.377   2.152   0.348  0.4383 -0.9164  1.4544
14976SOL     OW50247   0.014   9.614   1.996 -0.3836  0.1953 -0.7272
14976SOL    HW150248  -0.027   9.531   2.021 -0.7157  1.0630  1.9349
14976SOL    HW250249  -0.038   9.681   2.041  1.7190  1.6172 -0.2761
14977SOL     OW50250  10.402   7.214   9.183  0.9296  0.3119 -0.8775
14977SOL    HW150251  10.395   7.124   9.151 -0.5899  0.0604  0.0719
14977SOL    HW250252  10.424   7.266   9.106 -1.1003 -0.4649 -2.0450
14978SOL     OW50253  11.187   1.452   6.477  0.2529 -0.0244  0.2739
14978SOL    HW150254  11.244   1.428   6.549 -1.1818 -0.6996  1.2246
14978SOL    HW250255  11.099   1.446   6.512 -0.4074  3.4080 -0.4042
14979SOL     OW50256  10.348   2.387   7.245  0.2836 -0.0426  0.5946
14979SOL    HW150257  10.384   2.315   7.297 -1.2699 -1.1659  0.1830
14979SOL    HW250258  10.365   2.362   7.154 -1.0740 -0.3849  0.4102
14980SOL     OW50259   6.558   1.955   0.967  0.6438  0.2123  0.2015
14980SOL    HW150260   6.613   1.915   1.035  0.5415 -0.8107 -0.2978
14980SOL    HW250261   6.469   1.949   1.002  0.7093  0.7951  0.4914
14981SOL     OW50262  11.587   6.051   9.577 -0.3292 -0.3988 -0.5998
14981SOL    HW150263  11.590   5.955   9.582 -0.3265 -0.3613  0.2220
14981SOL    HW250264  11.575   6.069   9.484  2.6543 -1.1243 -1.2342
14982SOL     OW50265   1.331   4.471   8.048 -0.2687  0.6576 -0.4408
14982SOL    HW150266   1.262   4.498   8.108  0.3637 -1.4730  1.3686
14982SOL    HW250267   1.382   4.551   8.033 -1.5793  1.6642  0.2715
14983SOL     OW50268   0.745   8.265   7.835  0.0683  0.3064  0.5963
14983SOL    HW150269   0.772   8.247   7.925 -1.3378  0.5027  1.0897
14983SOL    HW250270   0.807   8.216   7.781  0.0927 -0.9669  1.7167
14984SOL     OW50271   4.522   1.382   0.307 -0.1659  0.6946  1.0298
14984SOL    HW150272   4.483   1.424   0.384 -1.0536  0.0162  0.9669
14984SOL    HW250273   4.493   1.437   0.234 -1.0092  0.2143  0.9865
14985SOL     OW50274  10.321   7.175  11.512  0.5354 -0.0794 -0.0050
14985SOL    HW150275  10.391   7.135  11.461  0.9141  0.0139  0.4315
14985SOL    HW250276  10.242   7.127  11.487  0.8880 -0.7126  0.0828
14986SOL     OW50277   7.783   1.759   6.182  0.4211  0.1706 -0.0078
14986SOL    HW150278   7.776   1.810   6.101  0.6525  1.7687  0.9357
14986SOL    HW250279   7.868   1.714   6.174 -0.3468 -1.1147 -1.4018
14987SOL     OW50280   6.653   0.632   1.520 -0.2910 -0.1626 -0.4452
14987SOL    HW150281   6.703   0.674   1.590 -1.1715  0.6040 -0.2509
14987SOL    HW250282   6.652   0.539   1.543 -1.0255  0.1539  0.8615
14988SOL     OW50283   6.084   0.281   3.393 -0.3160  0.1729  0.0235
14988SOL    HW150284   6.028   0.203   3.394 -2.2875  1.5028 -0.6535
14988SOL    HW250285   6.053   0.334   3.466  0.8136  0.4698  0.3018
14989SOL     OW50286   4.628   7.991   1.641  0.3064  0.3704 -0.8075
14989SOL    HW150287   4.591   7.903   1.630 -0.7475  0.2998  2.3630
14989SOL    HW250288   4.599   8.039   1.563 -2.3954 -1.0634 -0.7925
14990SOL     OW50289   9.184  10.544   5.364 -0.5039 -0.6263 -0.4090
14990SOL    HW150290   9.153  10.627   5.400 -2.0871 -1.4506  0.2328
14990SOL    HW250291   9.231  10.501   5.436  1.5825  0.2841 -1.1568
14991SOL     OW50292  11.412   5.485   3.387  0.3215 -0.2892 -0.3779
14991SOL    HW150293  11.479   5.541   3.347  0.2996  0.1637  0.2036
14991SOL    HW250294  11.329   5.530   3.370  0.2325 -0.4872 -0.4806
14992SOL     OW50295  11.323   8.225   0.819 -0.5223  0.5281  0.9586
14992SOL    HW150296  11.342   8.318   0.830  2.4127  0.0294  0.9136
14992SOL    HW250297  11.290   8.197   0.904  0.9388  1.1575  1.7727
14993SOL     OW50298   5.862   3.031   7.663 -0.0699  0.0980  0.3401
14993SOL    HW150299   5.830   2.986   7.584 -0.8234  0.2863  0.5244
14993SOL    HW250300   5.923   3.097   7.630 -0.3137  0.1165 -0.0786
14994SOL     OW50301  10.473  10.482   8.061 -0.5944 -0.4189 -0.4947
14994SOL    HW150302  10.539  10.487   8.130  0.4004  0.1126 -1.4711
14994SOL    HW250303  10.515  10.434   7.990 -1.1011  0.2899 -1.2986
14995SOL     OW50304   3.452   7.565   2.425 -0.2054  0.1445 -0.4798
14995SOL    HW150305   3.498   7.525   2.352  2.3219  0.2872  0.9109
14995SOL    HW250306   3.507   7.640   2.449  0.3896 -1.2215  2.9762
14996SOL     OW50307   5.449   2.104   9.345  0.1413 -0.5457  0.2838
14996SOL    HW150308   5.423   2.050   9.270 -1.2158  1.1388 -0.5310
14996SOL    HW250309   5.406   2.063   9.420  0.5750 -1.5905 -0.0225
14997SOL     OW50310   7.467   7.433   7.378 -0.4512 -0.1869 -0.1561
14997SOL    HW150311   7.447   7.402   7.466  0.2412 -0.9576 -0.2611
14997SOL    HW250312   7.550   7.391   7.355 -2.1551 -2.6600 -2.4568
14998SOL     OW50313   8.712   2.142   1.109 -0.4497  0.0711 -0.1456
14998SOL    HW150314   8.682   2.087   1.181 -2.4864  1.9810  0.5726
14998SOL    HW250315   8.643   2.137   1.044  0.1486  0.4289 -0.8203
14999SOL     OW50316   8.804   9.052   2.960 -0.4330 -0.2294  0.0141
14999SOL    HW150317   8.749   9.008   3.025 -1.6390 -0.1830 -0.9327
14999SOL    HW250318   8.842   9.126   3.007 -0.1667 -1.0007  1.0314
15000SOL     OW50319   4.278  11.069   3.715 -0.2694  0.1170 -0.2966
15000SOL    HW150320   4.226  10.996   3.681  1.3726 -0.7775 -1.0498
15000SOL    HW250321   4.299  11.043   3.805 -1.0213  0.4329 -0.0252
15001SOL     OW50322  10.679   3.457   7.393  0.0664  0.8416  0.2438
15001SOL    HW150323  10.691   3.362   7.388 -0.7284  0.6642  1.4801
15001SOL    HW250324  10.608   3.475   7.331 -1.4001  0.2940  1.7171
15002SOL     OW50325   5.465   2.022   3.015  0.3354 -0.1285  0.5261
15002SOL    HW150326   5.547   2.070   3.023  0.7707 -0.4203 -1.5727
15002SOL    HW250327   5.446   2.022   2.921 -0.3878 -2.8274  0.5979
15003SOL     OW50328  10.944   6.752   5.654 -0.4454  0.4219  0.1690
15003SOL    HW150329  10.862   6.702   5.664  0.6734 -1.4958  0.2821
15003SOL    HW250330  10.970   6.737   5.564  0.4867 -0.1474  0.5234
15004SOL     OW50331   6.197   0.739   9.482  0.2391 -0.1577 -0.1963
15004SOL    HW150332   6.259   0.811   9.468  0.6916 -0.7145 -1.1643
15004SOL    HW250333   6.170   0.748   9.574 -0.6735  1.9729 -0.6217
15005SOL     OW50334  11.367   2.153   0.974 -0.2127  0.5569 -0.3110
15005SOL    HW150335  11.355   2.141   1.068 -0.6378 -1.5088 -0.5646
15005SOL    HW250336  11.296   2.211   0.948 -1.2100 -0.2944  0.4001
15006SOL     OW50337   4.588  10.728   8.890  0.3213  0.1803  0.0985
15006SOL    HW150338   4.507  10.778   8.886 -0.2144 -0.6621  0.2797
15006SOL    HW250339   4.612  10.715   8.798  0.2536  0.4221  0.0440
15007SOL     OW50340   5.680   1.057   1.863 -0.0584 -0.2186 -0.3994
15007SOL    HW150341   5.646   0.970   1.841  1.0229 -1.3030  1.8862
15007SOL    HW250342   5.774   1.045   1.871  0.0846  1.1209  0.1682
15008SOL     OW50343   1.750   6.556   5.488  0.4449  0.0491  0.4495
15008SOL    HW150344   1.845   6.556   5.501  0.4244  0.7540  0.6264
15008SOL    HW250345   1.714   6.586   5.571  0.1049  0.5606  0.1225
15009SOL     OW50346  10.520  11.128   7.721  0.2233 -0.1953  0.5394
15009SOL    HW150347  10.571  11.074   7.661  0.1110 -1.0130  1.1577
15009SOL    HW250348  10.544  11.096   7.808  1.4232  1.8592  1.0467
15010SOL     OW50349   1.884   4.541   2.887 -0.2147 -0.4166  0.2563
15010SOL    HW150350   1.844   4.513   2.970  0.2766 -2.0762 -0.0317
15010SOL    HW250351   1.974   4.563   2.910 -0.4409  0.4132  0.3788
15011SOL     OW50352   8.982  10.337   7.459 -0.2110 -0.1442 -0.0360
15011SOL    HW150353   8.998  10.315   7.550 -2.8852 -0.4889  0.4286
15011SOL    HW250354   8.995  10.255   7.411 -0.8141 -0.4814  0.3600
15012SOL     OW50355   6.876   4.511   6.784 -0.5656  0.8701  0.5466
15012SOL    HW150356   6.852   4.451   6.714 -0.9639 -0.4915  1.8122
15012SOL    HW250357   6.795   4.558   6.805 -0.8860  0.0075  1.2812
15013SOL     OW50358   1.706   3.343   5.654 -0.3114  0.4051 -0.6214
15013SOL    HW150359   1.720   3.252   5.682 -0.4658  0.9236  1.2458
15013SOL    HW250360   1.737   3.396   5.727 -1.5880  1.8428 -1.0670
15014SOL     OW50361   8.263   6.608   0.190  0.2209  0.0939  0.7013
15014SOL    HW150362   8.218   6.544   0.135  0.5171 -0.4698  1.1173
15014SOL    HW250363   8.204   6.684   0.189  0.2182  0.0954 -0.3863
15015SOL     OW50364   3.829   1.600   1.272 -0.8334 -0.1731 -0.0925
15015SOL    HW150365   3.815   1.652   1.350 -1.0883 -1.3226  0.6506
15015SOL    HW250366   3.924   1.585   1.269 -0.3025  2.7397 -1.9414
15016SOL     OW50367   8.203   2.295   5.287  0.0175  0.1818 -0.5782
15016SOL    HW150368   8.242   2.382   5.286  0.7637 -0.0632  1.7261
15016SOL    HW250369   8.274   2.236   5.262 -0.0751  0.0877 -0.6233
15017SOL     OW50370   6.688  10.895   0.419  0.0865  0.8632  0.4253
15017SOL    HW150371   6.636  10.950   0.479 -1.2851  0.7875 -0.6356
15017SOL    HW250372   6.740  10.958   0.369 -0.2335  1.0885  0.3671
15018SOL     OW50373   4.751  10.180   5.432  0.1015  0.0093 -0.1428
15018SOL    HW150374   4.795  10.200   5.515  1.5133 -1.2272 -0.5552
15018SOL    HW250375   4.779  10.250   5.372  3.0225 -1.6548 -0.8918
15019SOL     OW50376   7.168   3.739   8.929  0.1784  0.0368  0.6538
15019SOL    HW150377   7.135   3.714   8.842  0.4253  0.8329  0.3229
15019SOL    HW250378   7.263   3.739   8.919  0.2084  0.1038  0.9407
15020SOL     OW50379  11.377   1.214   6.773  0.1234 -0.3627  0.4381
15020SOL    HW150380  11.383   1.301   6.735  0.1107 -0.5720 -0.0484
15020SOL    HW250381  11.297   1.216   6.826 -0.7036 -0.5278 -0.7602
15021SOL     OW50382   7.594   2.633   0.741  0.1791 -0.3689 -0.2629
15021SOL    HW150383   7.593   2.562   0.805  0.9014  0.2304  0.4298
15021SOL    HW250384   7.527   2.694   0.772  0.1655 -0.3287 -0.3715
15022SOL     OW50385   3.200   5.355   4.892  0.5308 -0.2894  0.3293
15022SOL    HW150386   3.243   5.274   4.865 -0.2443 -1.2052  1.6742
15022SOL    HW250387   3.252   5.424   4.852  0.7838 -1.4492 -1.4753
15023SOL     OW50388   4.498   1.222   4.974  0.1446  0.5690  0.1525
15023SOL    HW150389   4.524   1.244   5.063  0.1980 -0.7828  0.4885
15023SOL    HW250390   4.565   1.262   4.919 -0.7680  2.8569  0.5559
15024SOL     OW50391   7.692  10.482   9.366  0.4607 -0.5332 -0.0607
15024SOL    HW150392   7.727  10.410   9.314 -2.3981 -2.5471  0.5257
15024SOL    HW250393   7.675  10.443   9.452  1.2704  1.6123  1.1570
15025SOL     OW50394   1.619   8.549   5.186  0.1687  0.1989 -0.2069
15025SOL    HW150395   1.613   8.465   5.140 -0.2547  0.5021 -0.7182
15025SOL    HW250396   1.660   8.607   5.122  1.6347  0.0821  0.5729
15026SOL     OW50397   3.747  11.268  10.717  0.5192  0.6511  0.1142
15026SOL    HW150398   3.831  11.299  10.749  1.3452 -0.6887 -0.6693
15026SOL    HW250399   3.753  11.173  10.721  0.6861  0.3060 -3.7263
15027SOL     OW50400   6.701   9.403  10.116 -0.3980 -0.0612  0.0322
15027SOL    HW150401   6.743   9.416  10.031 -0.4385  2.4536  0.3069
15027SOL    HW250402   6.607   9.416  10.098 -0.6659 -1.6867  0.1187
15028SOL     OW50403   1.418   2.572   2.162 -0.0945  0.2417 -0.5416
15028SOL    HW150404   1.378   2.495   2.122  0.3585 -0.0412 -0.4590
15028SOL    HW250405   1.389   2.569   2.253 -0.4461  0.4186 -0.6498
15029SOL     OW50406   8.884   0.439   8.593 -1.1066  0.1172  0.3328
15029SOL    HW150407   8.864   0.437   8.687  1.9949  0.8784  1.1202
15029SOL    HW250408   8.959   0.498   8.586  0.3042 -1.7991 -2.3185
15030SOL     OW50409   6.376   9.157   2.651  0.1994  0.4048 -0.4329
15030SOL    HW150410   6.408   9.235   2.697  2.3582 -1.5906  1.7352
15030SOL    HW250411   6.453   9.100   2.645 -1.6773 -2.2958 -0.3315
15031SOL     OW50412  11.112  10.285   9.176  0.5667 -0.1947 -0.4116
15031SOL    HW150413  11.097  10.215   9.112  0.7361 -0.4980 -0.1234
15031SOL    HW250414  11.095  10.243   9.261 -0.9327  0.5336 -0.3177
15032SOL     OW50415   9.921   6.243   0.548  0.2381 -0.0808 -1.0729
15032SOL    HW150416  10.007   6.285   0.537  0.8097 -1.0220 -0.3433
15032SOL    HW250417   9.906   6.198   0.465 -0.4857  1.6725 -1.9591
15033SOL     OW50418   7.602   9.599  11.766 -0.0563  0.4063 -1.0170
15033SOL    HW150419   7.558   9.520  11.799  0.2116  1.1150  1.1648
15033SOL    HW250420   7.664   9.622  11.835 -0.4927  2.8313 -1.3691
15034SOL     OW50421   5.622   6.717   9.538 -0.2445 -0.4572  0.5528
15034SOL    HW150422   5.594   6.752   9.454  0.6394 -1.8362 -0.3654
15034SOL    HW250423   5.680   6.784   9.574 -1.3294  0.5403  0.5119
15035SOL     OW50424   1.656   9.573   1.330 -0.3208  0.3698  0.3957
15035SOL    HW150425   1.654   9.668   1.321 -0.1840  0.4626  1.2831
15035SOL    HW250426   1.570   9.550   1.364 -0.3910  0.1605  0.0850
15036SOL     OW50427   9.835   8.952   2.863 -0.2251 -0.4711 -0.2629
15036SOL    HW150428   9.883   9.026   2.825 -0.2113  0.5147  1.5891
15036SOL    HW250429   9.901   8.902   2.910 -0.2059 -1.8068 -1.6116
15037SOL     OW50430   6.296   6.133   4.495  0.1733  0.0244 -0.4573
15037SOL    HW150431   6.370   6.116   4.436  1.7919  0.3950  1.3754
15037SOL    HW250432   6.272   6.048   4.529  0.1293 -0.0241 -0.6070
15038SOL     OW50433   3.949   2.083   8.430  0.2369  0.1574  0.1337
15038SOL    HW150434   3.929   2.172   8.459 -1.1503  0.1324 -0.6760
15038SOL    HW250435   3.952   2.089   8.334  2.1759 -0.2751  0.1307
15039SOL     OW50436   6.393   7.661  10.259 -0.1416  0.2881 -0.1905
15039SOL    HW150437   6.306   7.619  10.257  0.1645 -0.3981  0.3782
15039SOL    HW250438   6.377   7.750  10.228 -0.9339 -0.0363 -0.7622
15040SOL     OW50439  10.311   1.186   5.058  0.0973  0.4703  0.2186
15040SOL    HW150440  10.231   1.141   5.030  1.5999 -1.7477 -0.7858
15040SOL    HW250441  10.342   1.136   5.133  1.1001  0.6583 -0.0537
15041SOL     OW50442   1.541   4.522   7.296 -0.0118  0.0515 -0.2384
15041SOL    HW150443   1.538   4.531   7.201 -0.7533 -1.2757 -0.3619
15041SOL    HW250444   1.632   4.498   7.315 -0.1602 -0.9113 -0.7370
15042SOL     OW50445   8.764   4.830  11.642 -0.0703  0.2537 -0.3453
15042SOL    HW150446   8.843   4.775  11.646 -0.2092  0.1260  0.9775
15042SOL    HW250447   8.753   4.862  11.731 -0.7278  1.4118 -0.8283
15043SOL     OW50448   1.271   1.725   7.655 -0.2751  0.3994  0.5023
15043SOL    HW150449   1.216   1.802   7.669 -1.4933  0.0012 -1.7148
15043SOL    HW250450   1.226   1.655   7.701 -1.1923  0.2539 -0.5957
15044SOL     OW50451   5.652   7.235   1.634  0.3382  0.6030 -0.6360
15044SOL    HW150452   5.642   7.255   1.727 -1.1869 -0.0511 -0.6278
15044SOL    HW250453   5.665   7.140   1.632  1.4790  0.7472 -1.0465
15045SOL     OW50454   3.301   3.621   5.772  0.3735 -0.4403 -0.0707
15045SOL    HW150455   3.382   3.642   5.726  0.8568 -2.0991 -0.0483
15045SOL    HW250456   3.316   3.534   5.809 -1.2960 -0.6539  0.2075
15046SOL     OW50457  11.123   2.786   6.481 -0.5708 -0.0134  0.2186
15046SOL    HW150458  11.150   2.813   6.568 -0.6482  2.3143 -0.4167
15046SOL    HW250459  11.068   2.858   6.449 -0.0344 -0.5038 -1.9766
15047SOL     OW50460   8.880   1.782   2.539 -0.3234 -0.3724 -0.1110
15047SOL    HW150461   8.954   1.795   2.599 -0.7079 -0.0897  0.3080
15047SOL    HW250462   8.841   1.869   2.531 -0.1672 -0.3742 -0.9151
15048SOL     OW50463   6.360   8.961   0.818 -0.5213 -0.0667 -0.4876
15048SOL    HW150464   6.409   8.886   0.786  1.0647  0.9079 -0.4804
15048SOL    HW250465   6.310   8.928   0.893  1.1046 -0.8634  0.2868
15049SOL     OW50466   0.401   0.547   5.839 -0.0196  0.0099 -0.0293
15049SOL    HW150467   0.416   0.489   5.764 -1.1765  1.0935 -1.1406
15049SOL    HW250468   0.404   0.489   5.915 -1.5268 -1.6147 -1.1227
15050SOL     OW50469   9.790   5.390   4.925 -0.7577  0.0746  0.2197
15050SOL    HW150470   9.771   5.460   4.987  1.4383  0.1309  0.9375
15050SOL    HW250471   9.882   5.405   4.901  0.0573 -2.9821  1.0275
15051SOL     OW50472   1.922  10.116   4.780  0.1845 -0.5355  0.0126
15051SOL    HW150473   1.883  10.116   4.867 -2.0846  1.4706 -0.8977
15051SOL    HW250474   1.858  10.071   4.724  0.1135  0.8924 -1.1279
15052SOL     OW50475   6.324   0.739   1.813  0.2441  0.0368  0.6397
15052SOL    HW150476   6.369   0.824   1.810 -1.5088  1.1003  2.2034
15052SOL    HW250477   6.359   0.696   1.892 -0.5830  0.3705  1.2035
15053SOL     OW50478   2.826   7.530  11.079 -0.4430 -0.0603  0.3101
15053SOL    HW150479   2.894   7.574  11.029  0.6789 -1.8450  0.1673
15053SOL    HW250480   2.744   7.565  11.045  0.2962 -0.6335 -2.2406
15054SOL     OW50481   3.778   7.285   3.835 -0.5425 -0.5651 -1.1047
15054SOL    HW150482   3.695   7.265   3.878 -0.3826  0.2836 -0.3775
15054SOL    HW250483   3.770   7.376   3.807 -0.1605 -0.7262 -1.7733
15055SOL     OW50484   6.339   3.333  10.495  0.4336  0.4584  0.0458
15055SOL    HW150485   6.261   3.301  10.450  0.7263 -0.0179 -0.1254
15055SOL    HW250486   6.316   3.330  10.588  1.2319 -2.5360  0.2618
15056SOL     OW50487   0.597  11.046   3.394 -0.2547  0.2196 -0.3999
15056SOL    HW150488   0.631  11.073   3.480  1.3318  1.0729 -1.2491
15056SOL    HW250489   0.670  11.061   3.334 -1.5955  0.3999 -2.0445
15057SOL     OW50490  10.477   7.985   3.059  0.5344 -0.6267 -0.3953
15057SOL    HW150491  10.499   8.060   3.005 -1.1602  0.8645  0.8389
15057SOL    HW250492  10.462   7.913   2.997 -1.0245  0.9237 -1.8955
15058SOL     OW50493   7.347   4.700  10.758  0.0525 -0.1687 -0.1669
15058SOL    HW150494   7.422   4.716  10.701 -0.6571  0.0604 -1.0616
15058SOL    HW250495   7.359   4.610  10.788  1.6836  0.4668  1.2555
15059SOL     OW50496   5.634   8.987   1.665 -0.3394 -0.0213 -0.1602
15059SOL    HW150497   5.565   8.923   1.647 -0.6926 -0.0228  1.1023
15059SOL    HW250498   5.634   9.045   1.589  2.1755 -3.3364 -2.9744
15060SOL     OW50499   2.831   9.405  10.202 -0.4677 -0.0559  0.2247
15060SOL    HW150500   2.757   9.359  10.161  0.1661 -1.4911  0.6159
15060SOL    HW250501   2.790   9.469  10.260 -1.3986  1.6706 -2.1346
15061SOL     OW50502   8.069   4.965   8.999 -0.3119 -0.0073 -0.3372
15061SOL    HW150503   8.164   4.976   8.988 -0.2576  1.8479  1.4377
15061SOL    HW250504   8.034   4.975   8.910  1.0749  0.1107 -0.9084
15062SOL     OW50505   4.783   9.556   4.976 -0.6833  0.2550 -0.3557
15062SOL    HW150506   4.768   9.466   5.005  2.1898  0.0395  0.8422
15062SOL    HW250507   4.731   9.610   5.035  0.3740 -0.4920  1.3074
15063SOL     OW50508   2.135   4.634   6.191  0.0252 -0.0216 -0.2839
15063SOL    HW150509   2.191   4.674   6.258  0.9327  0.4250 -1.2909
15063SOL    HW250510   2.186   4.560   6.159 -1.6594 -2.1446  1.6025
15064SOL     OW50511  10.042   8.910   0.593  0.1995 -0.4205 -0.5602
15064SOL    HW150512   9.981   8.879   0.526 -1.5283  0.6157  0.4706
15064SOL    HW250513  10.074   8.830   0.634 -1.5031 -0.9920 -0.2468
15065SOL     OW50514   4.974   3.594  10.778 -0.2968  0.1604 -0.4732
15065SOL    HW150515   4.987   3.533  10.705  0.0452  1.7991 -1.8505
15065SOL    HW250516   4.960   3.679  10.736 -0.7500  1.0539  1.3744
15066SOL     OW50517   6.228   7.392   9.499 -0.3978  0.8603 -0.3119
15066SOL    HW150518   6.220   7.389   9.404 -1.1594  0.4161 -0.2422
15066SOL    HW250519   6.150   7.440   9.529 -1.3590 -0.9389  0.2118
15067SOL     OW50520   7.220   5.198  11.516 -0.3804  0.4888 -0.1634
15067SOL    HW150521   7.217   5.145  11.595  2.4498 -1.0033 -0.8879
15067SOL    HW250522   7.148   5.166  11.462 -1.6268  0.7352  1.3061
15068SOL     OW50523   3.452   4.487   1.933  0.2803  0.3375  0.7922
15068SOL    HW150524   3.543   4.498   1.905  0.2412  2.1426  1.2148
15068SOL    HW250525   3.400   4.525   1.862 -0.0834  0.3110  1.0399
15069SOL     OW50526   5.842   8.582   3.870 -0.4755  0.0966 -0.3247
15069SOL    HW150527   5.771   8.592   3.933 -0.5384 -0.0572 -0.3720
15069SOL    HW250528   5.804   8.609   3.786 -0.3742  0.3622 -0.2862
15070SOL     OW50529   0.109   1.741   4.801  0.0815 -0.0628  0.3967
15070SOL    HW150530   0.021   1.773   4.781  0.5142  0.0271 -1.6131
15070SOL    HW250531   0.124   1.765   4.892 -1.2791  1.5749  0.2343
15071SOL     OW50532  11.538   4.940   0.088 -0.4121  0.0199  0.2887
15071SOL    HW150533  11.570   5.004   0.025  0.1472 -1.8135 -1.3943
15071SOL    HW250534  11.617   4.904   0.128 -0.7465  0.8128  1.7133
15072SOL     OW50535   6.409  11.355   7.780 -0.2748  0.3162 -0.4306
15072SOL    HW150536   6.466  11.431   7.769 -0.5342  0.3267 -1.9445
15072SOL    HW250537   6.468  11.285   7.807  0.7657  0.0055 -3.1814
15073SOL     OW50538   2.503   4.073   0.074 -0.4947 -0.0116 -0.0771
15073SOL    HW150539   2.535   4.053   0.162  0.5072 -0.9888 -0.6395
15073SOL    HW250540   2.409   4.053   0.078 -0.7895  1.4177  1.1681
15074SOL     OW50541   9.989   9.928   4.108 -0.1272  0.4473  0.0286
15074SOL    HW150542  10.022  10.012   4.140 -0.3952  0.7288 -0.4394
15074SOL    HW250543  10.008   9.928   4.014 -1.4724  0.6221 -0.2574
15075SOL     OW50544   5.024   9.983   1.427  0.0069 -0.0536  0.1922
15075SOL    HW150545   5.117   9.964   1.441  0.3165  1.0009 -0.3247
15075SOL    HW250546   4.981   9.957   1.508  0.7434 -0.6244  0.4036
15076SOL     OW50547  11.824   9.362   4.235  0.7071  0.1613  0.0253
15076SOL    HW150548  11.778   9.303   4.176  1.1081  0.1442 -0.2739
15076SOL    HW250549  11.872   9.421   4.178  0.6333  0.5183  0.3282
15077SOL     OW50550   3.716   1.063  11.111 -0.3734  0.2265  0.5741
15077SOL    HW150551   3.695   1.061  11.017 -2.7704  0.1436  1.0451
15077SOL    HW250552   3.811   1.052  11.115 -0.5079 -3.1548 -1.7027
15078SOL     OW50553   0.107   5.145  10.601  0.2453  0.4926 -0.1687
15078SOL    HW150554   0.074   5.074  10.656 -1.2862  0.7656 -0.6981
15078SOL    HW250555   0.168   5.102  10.541  1.0202  0.0008  0.9254
15079SOL     OW50556   5.664   0.639  11.150 -0.2950  0.2179 -0.3534
15079SOL    HW150557   5.645   0.612  11.240 -3.0212  0.7541 -0.6823
15079SOL    HW250558   5.741   0.587  11.125 -0.5462 -1.2485  1.6865
15080SOL     OW50559   1.773   8.472   1.929  0.2209 -0.4959 -0.0909
15080SOL    HW150560   1.805   8.401   1.985 -0.6902 -0.4594  0.4871
15080SOL    HW250561   1.755   8.544   1.989 -0.0298 -0.1928 -0.5280
15081SOL     OW50562   0.961   7.260   3.159 -0.6313  0.0098  0.0945
15081SOL    HW150563   0.985   7.189   3.099  0.2520  1.2891 -1.1419
15081SOL    HW250564   1.045   7.293   3.191 -1.0098  0.6723  0.4264
15082SOL     OW50565   3.139   7.581   3.017 -0.2806 -0.1897  0.4139
15082SOL    HW150566   3.204   7.639   3.057 -0.9558  0.0604  1.1768
15082SOL    HW250567   3.167   7.493   3.042  1.3445 -0.3250 -1.6157
15083SOL     OW50568   1.419   5.097   3.598  0.1054 -0.0565 -0.2492
15083SOL    HW150569   1.427   5.010   3.637  1.4515  0.1336 -0.0520
15083SOL    HW250570   1.359   5.144   3.656 -0.2605 -0.6945 -0.0965
15084SOL     OW50571   5.180   8.649   5.928 -0.4959  0.1689 -0.0951
15084SOL    HW150572   5.149   8.558   5.926 -0.9021  0.2987  0.1034
15084SOL    HW250573   5.209   8.661   6.018  0.6800 -0.1284 -0.4279
15085SOL     OW50574   5.093   3.225   3.535  0.1023  0.2400 -0.2056
15085SOL    HW150575   5.146   3.151   3.506  0.1216 -0.1910  0.8832
15085SOL    HW250576   5.148   3.272   3.597 -0.5973  0.0638  0.5663
15086SOL     OW50577   1.463   6.005  10.709  0.5323 -0.3061 -0.4865
15086SOL    HW150578   1.433   5.914  10.713  1.1594 -0.4809  3.3014
15086SOL    HW250579   1.383   6.056  10.696 -0.0003 -1.2985 -1.2340
15087SOL     OW50580   0.228  10.174   4.090  0.1157 -0.0922  0.4738
15087SOL    HW150581   0.276  10.190   4.009  0.4989  0.9568  0.8916
15087SOL    HW250582   0.136  10.188   4.067  0.4188  4.2546  1.0258
15088SOL     OW50583   7.776   5.858   0.677 -0.2337  0.0816  0.1831
15088SOL    HW150584   7.846   5.912   0.639  0.3030 -0.1613  0.8041
15088SOL    HW250585   7.696   5.909   0.663 -0.2002 -0.4227 -2.0785
15089SOL     OW50586   1.143   2.563  11.478 -0.2909 -0.7864 -0.4861
15089SOL    HW150587   1.094   2.521  11.549 -1.8072  0.4585 -0.7583
15089SOL    HW250588   1.130   2.505  11.403 -1.2452 -0.5524 -0.5121
15090SOL     OW50589   6.316   2.601   4.146  0.7627  0.3385 -0.0846
15090SOL    HW150590   6.256   2.661   4.192  0.7638  1.0854 -1.0149
15090SOL    HW250591   6.262   2.525   4.125  0.2960  0.7417 -0.3744
15091SOL     OW50592  11.821   7.571   4.673  0.1896 -0.1405  0.2339
15091SOL    HW150593  11.830   7.544   4.764  1.6235 -0.6130 -0.0338
15091SOL    HW250594  11.737   7.533   4.645  0.2988 -0.9799  1.0086
15092SOL     OW50595   5.084   7.816   4.665  0.3200  0.5258  0.1984
15092SOL    HW150596   5.034   7.860   4.734 -2.3053 -2.2067  0.2527
15092SOL    HW250597   5.053   7.857   4.584 -0.2813  0.4600  0.3842
15093SOL     OW50598   2.823   4.492   7.973 -0.1617  0.2107 -0.1132
15093SOL    HW150599   2.846   4.582   7.952  0.4262 -0.0577 -0.6709
15093SOL    HW250600   2.778   4.460   7.894 -1.5014  0.3919  0.5522
15094SOL     OW50601   1.814   1.763   8.654 -0.4777  0.3296  0.3093
15094SOL    HW150602   1.848   1.825   8.718 -0.7801  1.3285 -0.4720
15094SOL    HW250603   1.863   1.781   8.574 -0.6723 -0.3496  0.0284
15095SOL     OW50604   6.152   9.096  11.125  0.3201 -0.0886  0.3345
15095SOL    HW150605   6.191   9.168  11.174 -1.9599  0.0429  2.0917
15095SOL    HW250606   6.084   9.062  11.183 -2.6713  0.1493 -2.7861
15096SOL     OW50607  10.536  11.312   1.334 -0.3323 -0.7989 -0.5089
15096SOL    HW150608  10.571  11.268   1.411 -0.2880 -1.8096 -1.0791
15096SOL    HW250609  10.576  11.266   1.260 -0.7519 -0.1767 -1.1402
15097SOL     OW50610   9.158   2.686   1.905  0.1354  0.6101  0.4472
15097SOL    HW150611   9.200   2.608   1.869 -1.5367 -0.8439  1.4624
15097SOL    HW250612   9.118   2.728   1.829  2.3736  1.4244 -0.3598
15098SOL     OW50613   1.130   6.699   5.753 -0.5577  0.2897 -0.3001
15098SOL    HW150614   1.077   6.738   5.684 -0.2707 -2.0060 -1.9383
15098SOL    HW250615   1.213   6.677   5.711  0.0746 -0.1268  1.0859
15099SOL     OW50616   3.525   8.792   4.379  0.0344  0.0235 -0.1318
15099SOL    HW150617   3.466   8.839   4.320 -0.6615 -1.1018 -0.3733
15099SOL    HW250618   3.572   8.731   4.322  1.4205  0.8814  0.0675
15100SOL     OW50619   8.916  10.886   4.374  0.1000 -0.4128 -0.4928
15100SOL    HW150620   9.008  10.867   4.356  0.4110  0.7924 -0.3101
15100SOL    HW250621   8.881  10.805   4.410  1.3469 -0.6006  0.3700
15101SOL     OW50622   6.531   2.474   3.455 -0.0265  0.7304  0.5045
15101SOL    HW150623   6.529   2.412   3.528 -2.8439 -0.1799 -0.2071
15101SOL    HW250624   6.618   2.463   3.417  0.2154 -1.4966  1.5015
15102SOL     OW50625   0.121   2.921   4.311 -0.1695 -0.0768  0.3334
15102SOL    HW150626   0.085   2.839   4.348 -0.6671 -0.2352 -0.4678
15102SOL    HW250627   0.123   2.905   4.217  0.2942  0.6272  0.2220
15103SOL     OW50628   2.591   3.985   9.463  0.9535  0.4360 -0.0878
15103SOL    HW150629   2.514   3.938   9.429  0.7453 -0.2305  1.2482
15103SOL    HW250630   2.556   4.067   9.497  0.7904  0.0417  0.7098
15104SOL     OW50631   8.048   8.983   8.554  0.1699 -0.5226  0.0487
15104SOL    HW150632   7.967   8.992   8.606  0.6193  0.4559  0.6161
15104SOL    HW250633   8.035   9.042   8.480  0.0356 -0.9766 -0.2892
15105SOL     OW50634   9.604  11.585   6.693  0.1804  0.0632 -0.1996
15105SOL    HW150635   9.609  11.522   6.622  0.1741 -2.1208  1.6221
15105SOL    HW250636   9.549  11.543   6.759  4.0471 -0.3462  3.1982
15106SOL     OW50637   7.843   5.784   0.931  0.0588  0.2689  0.0962
15106SOL    HW150638   7.826   5.771   0.838 -0.4712 -0.9035  0.3378
15106SOL    HW250639   7.809   5.871   0.949 -3.1567 -0.8216 -0.0966
15107SOL     OW50640   6.888   3.471   4.318 -0.2882 -0.8983 -0.0211
15107SOL    HW150641   6.958   3.506   4.263 -1.8010  0.0488 -1.4355
15107SOL    HW250642   6.921   3.480   4.408  0.8307  0.8873 -0.5518
15108SOL     OW50643  10.382   2.868   8.131 -0.4750 -0.3237 -0.0566
15108SOL    HW150644  10.305   2.831   8.174 -2.0292  0.6772 -1.8348
15108SOL    HW250645  10.364   2.962   8.127  0.6495 -0.1249 -0.8443
15109SOL     OW50646   6.210   2.620   3.436  0.4713 -0.1104 -0.2284
15109SOL    HW150647   6.186   2.639   3.527  0.0541 -0.3854 -0.2801
15109SOL    HW250648   6.271   2.690   3.412  1.5077 -0.6732  0.6350
15110SOL     OW50649   4.251   7.210   5.014 -0.0111  0.4087  0.2845
15110SOL    HW150650   4.282   7.120   5.008 -2.1351 -0.2681 -2.7292
15110SOL    HW250651   4.328   7.263   4.995  0.5590 -0.9518 -1.3937
15111SOL     OW50652   7.188  10.297   7.528 -0.1332  0.3132 -0.0112
15111SOL    HW150653   7.205  10.234   7.599  0.9512  1.0988  0.4594
15111SOL    HW250654   7.175  10.242   7.451  0.6393 -0.5104  0.4156
15112SOL     OW50655  11.197   9.811   4.612  0.4240  0.0615  0.1484
15112SOL    HW150656  11.159   9.856   4.687  0.3797 -1.1355  0.8771
15112SOL    HW250657  11.148   9.729   4.605  0.3771  0.1767 -1.2530
15113SOL     OW50658   9.390   1.710   6.593  0.2277 -0.4237  0.1532
15113SOL    HW150659   9.398   1.675   6.682  2.7298  1.7261  0.8743
15113SOL    HW250660   9.476   1.698   6.554 -0.0015  1.2317 -0.9682
15114SOL     OW50661   5.447   4.048   7.689  0.3149  0.6702 -0.7390
15114SOL    HW150662   5.454   3.967   7.639 -0.5808  0.2572 -0.2132
15114SOL    HW250663   5.518   4.103   7.656  1.3631 -0.5810 -0.6356
15115SOL     OW50664   1.486   1.658   3.772 -0.0909  0.7388 -0.2195
15115SOL    HW150665   1.427   1.711   3.827  0.5197 -1.1494  2.4275
15115SOL    HW250666   1.552   1.624   3.833  0.2374 -2.0738 -1.9704
15116SOL     OW50667   9.000   4.348   3.510  0.2072  0.8636 -0.1045
15116SOL    HW150668   9.073   4.316   3.457 -0.5000  1.4839 -1.5098
15116SOL    HW250669   9.010   4.303   3.594  1.5458  0.0870 -0.6452
15117SOL     OW50670   2.990   5.411  11.606 -0.6446  0.3187 -0.4238
15117SOL    HW150671   2.965   5.461  11.683  0.4167 -0.1556  0.2626
15117SOL    HW250672   2.909   5.397  11.558 -1.3759  0.3318  0.7837
15118SOL     OW50673   5.656   2.081   7.260 -0.7285  0.2202  0.2710
15118SOL    HW150674   5.717   2.090   7.187  0.0364 -0.9321  0.7366
15118SOL    HW250675   5.690   2.007   7.311 -1.4358  0.7722  1.6024
15119SOL     OW50676   2.053   2.935   7.249  0.1625  0.0828  0.5170
15119SOL    HW150677   2.050   2.908   7.340 -3.4239 -1.3921  0.1089
15119SOL    HW250678   2.100   3.019   7.250 -0.9424  0.7759  3.8943
15120SOL     OW50679   0.143   5.402  11.518  0.0780  0.1530  0.3511
15120SOL    HW150680   0.148   5.316  11.559  1.3674 -0.0791 -0.2592
15120SOL    HW250681   0.232   5.420  11.487 -0.3459  1.3512 -0.2472
15121SOL     OW50682  11.238   8.422   8.518  0.1591 -0.0514 -0.0351
15121SOL    HW150683  11.278   8.369   8.448  1.8846  0.9347  0.1588
15121SOL    HW250684  11.144   8.421   8.497  0.6724  0.8110 -2.8167
15122SOL     OW50685   8.122  10.700   1.321 -0.4631  0.4742 -0.2052
15122SOL    HW150686   8.135  10.736   1.233  0.4592  1.9912  0.5194
15122SOL    HW250687   8.186  10.630   1.327  1.3300  2.0750  0.1456
15123SOL     OW50688   5.526   1.828   1.673 -0.2487  0.2476  0.0562
15123SOL    HW150689   5.559   1.747   1.635 -1.1806  0.2023 -0.7117
15123SOL    HW250690   5.547   1.895   1.608 -0.0228  0.5279  0.4112
15124SOL     OW50691   2.478   8.987   2.631 -0.2777 -0.0542  0.1649
15124SOL    HW150692   2.561   9.033   2.617 -0.5375  0.2715 -0.3061
15124SOL    HW250693   2.447   8.965   2.543 -0.5623 -0.4138  0.3504
15125SOL     OW50694  10.453  11.426  11.016  0.0812 -0.3561  0.4932
15125SOL    HW150695  10.395  11.462  10.948 -0.8473 -3.4444 -0.5253
15125SOL    HW250696  10.493  11.349  10.975  1.5130 -0.8431  2.6549
15126SOL     OW50697   1.788   8.249   2.448  0.0877  0.0560 -0.0401
15126SOL    HW150698   1.772   8.327   2.501 -1.3364  0.0998 -0.4914
15126SOL    HW250699   1.778   8.279   2.357 -0.3485 -0.6213 -0.2208
15127SOL     OW50700   2.150   8.690   6.341 -0.5221  0.0453  0.3401
15127SOL    HW150701   2.166   8.710   6.249 -2.0520  0.9607  0.2446
15127SOL    HW250702   2.221   8.631   6.365  1.4162  1.8177 -0.7179
15128SOL     OW50703   4.727   6.111  11.373  0.0829  0.6632  0.0080
15128SOL    HW150704   4.664   6.039  11.382 -0.3746  1.2064  1.6013
15128SOL    HW250705   4.674   6.186  11.346  0.3707  0.6696 -0.5397
15129SOL     OW50706   9.135   1.975   4.854 -0.7427  0.2967  0.0895
15129SOL    HW150707   9.104   2.013   4.936 -2.0233  0.7823 -0.5962
15129SOL    HW250708   9.093   1.889   4.849 -1.1537  0.5170 -0.3348
15130SOL     OW50709   4.461   2.596   4.742 -0.2209 -0.9653  0.7438
15130SOL    HW150710   4.427   2.674   4.698 -2.0566 -0.5622  2.7142
15130SOL    HW250711   4.413   2.592   4.825  2.0218 -2.5066  2.0631
15131SOL     OW50712   7.125   5.672   5.208  0.0300 -0.4630 -0.3604
15131SOL    HW150713   7.172   5.756   5.203 -0.4020 -0.1077  1.0443
15131SOL    HW250714   7.166   5.627   5.282 -1.4886 -0.3481  0.5799
15132SOL     OW50715   0.859  11.252   2.826  0.0145  1.0768 -0.0189
15132SOL    HW150716   0.906  11.280   2.748  1.8990 -1.4849  0.0898
15132SOL    HW250717   0.780  11.208   2.792 -0.7586  2.6332 -0.3112
15133SOL     OW50718   2.529   7.816   9.017 -1.0689  0.5687 -0.3649
15133SOL    HW150719   2.439   7.847   9.032 -1.4338 -0.8548  0.6094
15133SOL    HW250720   2.522   7.760   8.939 -1.4643 -1.0529  0.7656
15134SOL     OW50721  11.419   1.896  10.795  1.2117  0.8586 -0.3719
15134SOL    HW150722  11.411   1.874  10.888  3.0531  1.3442 -0.0461
15134SOL    HW250723  11.496   1.954  10.791  1.5574  0.3411 -2.2775
15135SOL     OW50724  10.083   7.685   2.508  0.5257  0.1281 -0.1906
15135SOL    HW150725  10.164   7.724   2.539 -0.3186 -0.7510  3.5907
15135SOL    HW250726  10.024   7.759   2.494  0.4244  0.5586  2.2102
15136SOL     OW50727   3.103   4.300   6.005  0.1743  0.1368 -0.0493
15136SOL    HW150728   3.116   4.363   6.075  1.1724  0.4797 -0.5139
15136SOL    HW250729   3.066   4.351   5.933  2.0697  0.4858 -0.8309
15137SOL     OW50730   8.435   8.100   6.257 -0.2706  0.1116  0.1878
15137SOL    HW150731   8.407   8.177   6.306 -0.1701  1.2893 -1.4957
15137SOL    HW250732   8.492   8.052   6.317 -1.2413  0.7287  1.6609
15138SOL     OW50733   9.966   8.690   2.144  0.2062 -0.1304 -0.0825
15138SOL    HW150734   9.964   8.627   2.072  0.3737  0.5877 -0.7251
15138SOL    HW250735   9.874   8.715   2.156  0.2610  0.3469 -0.5943
15139SOL     OW50736   7.860   6.163   3.801 -0.4140 -0.1417 -0.1424
15139SOL    HW150737   7.878   6.079   3.759  0.3306 -0.4603  0.7872
15139SOL    HW250738   7.784   6.145   3.858 -0.6500 -0.0227 -0.4186
15140SOL     OW50739   2.325   0.098   1.863  0.0324 -0.3873 -0.0691
15140SOL    HW150740   2.230   0.087   1.869  0.2265 -3.4843 -1.2247
15140SOL    HW250741   2.349   0.141   1.946 -2.2875 -0.0305  0.4828
15141SOL     OW50742   5.670  11.432   9.058  0.1375  0.0312  0.2160
15141SOL    HW150743   5.600  11.469   9.004  1.5320  0.3702 -1.4741
15141SOL    HW250744   5.745  11.490   9.042  1.4275 -1.5864  0.1406
15142SOL     OW50745   5.870   3.762   9.867 -0.2562 -0.2135 -0.0893
15142SOL    HW150746   5.794   3.704   9.866  0.2662 -0.9064 -0.0520
15142SOL    HW250747   5.833   3.850   9.872 -1.0422 -0.5741  0.5706
15143SOL     OW50748   5.564  11.301   9.772 -0.2753 -0.1841  0.4001
15143SOL    HW150749   5.522  11.358   9.837  0.4915 -0.0539  0.7959
15143SOL    HW250750   5.648  11.278   9.811  0.4320  0.3093 -0.7573
15144SOL     OW50751   6.979   8.027   2.097 -0.3568 -0.1941 -0.2752
15144SOL    HW150752   7.070   8.020   2.068 -0.6780 -2.7841 -0.9109
15144SOL    HW250753   6.958   8.120   2.086  2.4016  0.6492  0.6663
15145SOL     OW50754   5.339   9.830   2.355  0.7673 -0.1927  0.0328
15145SOL    HW150755   5.351   9.924   2.342  1.8534 -0.3655 -0.3367
15145SOL    HW250756   5.299   9.799   2.274  0.7432 -0.1079  0.0121
15146SOL     OW50757   6.319   2.869   7.216 -0.0623 -0.7338 -0.1880
15146SOL    HW150758   6.348   2.942   7.161 -0.8880  0.2137  0.6044
15146SOL    HW250759   6.396   2.848   7.270 -0.5792  1.4213  1.5437
15147SOL     OW50760   9.109   6.672   4.682  0.3481  0.3726 -0.6953
15147SOL    HW150761   9.148   6.698   4.765 -0.0132  0.5643 -0.5825
15147SOL    HW250762   9.156   6.722   4.616 -0.7596  1.8273 -0.4322
15148SOL     OW50763   5.629   1.409   9.165 -0.0468  0.1438  0.3458
15148SOL    HW150764   5.626   1.487   9.110 -0.7912 -1.7829 -2.5739
15148SOL    HW250765   5.566   1.426   9.235  0.3032  2.3696  0.1886
15149SOL     OW50766   1.124   9.695  11.250 -0.0498  0.1132 -0.0722
15149SOL    HW150767   1.190   9.628  11.266  0.9197  1.1920  0.6090
15149SOL    HW250768   1.043   9.646  11.234  0.9377 -1.2486 -1.1490
15150SOL     OW50769  10.098  10.167   3.423 -0.2441  0.2546 -0.1726
15150SOL    HW150770  10.146  10.115   3.487 -0.7112 -0.7169 -0.5940
15150SOL    HW250771  10.088  10.253   3.465  1.1074  0.2277  0.2678
15151SOL     OW50772   3.130   3.751   6.262 -0.2639  0.1981 -0.4133
15151SOL    HW150773   3.192   3.681   6.283 -0.2551  0.1709 -0.5268
15151SOL    HW250774   3.083   3.768   6.344 -1.8709 -1.5252 -0.8923
15152SOL     OW50775   3.125   8.378  10.273 -0.0649  0.2722  0.3410
15152SOL    HW150776   3.078   8.418  10.199 -0.5274 -1.1900 -0.2058
15152SOL    HW250777   3.080   8.295  10.287  1.0052 -0.1764  1.2623
15153SOL     OW50778   8.524   4.439   8.901  0.0978  0.2807  0.1679
15153SOL    HW150779   8.613   4.407   8.886 -0.6392 -1.0891 -1.6640
15153SOL    HW250780   8.474   4.361   8.924 -1.0194  0.6880 -0.7681
15154SOL     OW50781   5.423   9.063   7.467 -0.1703  0.2481 -0.5440
15154SOL    HW150782   5.391   9.079   7.378 -1.7358  0.5747  0.0570
15154SOL    HW250783   5.388   8.977   7.489  0.2189  0.1692 -0.2300
15155SOL     OW50784  10.390   6.776   8.291 -0.7611  0.5923 -0.0045
15155SOL    HW150785  10.456   6.844   8.284 -0.3513  0.4220  1.6882
15155SOL    HW250786  10.307   6.822   8.290 -0.5581  0.9529 -0.5314
15156SOL     OW50787   6.429   3.226  10.110 -0.0961 -0.1739 -0.1650
15156SOL    HW150788   6.338   3.209  10.085 -0.0635  0.3676 -0.6610
15156SOL    HW250789   6.479   3.155  10.069 -0.0252  0.7600 -1.7657
15157SOL     OW50790   0.917  10.878   9.261  0.1945 -0.1875 -0.5020
15157SOL    HW150791   0.995  10.930   9.280 -0.0510  0.2525 -0.6823
15157SOL    HW250792   0.944  10.819   9.191  0.2095  0.3445 -0.9472
15158SOL     OW50793   5.752   5.534   2.333  0.3133  0.4938  0.0094
15158SOL    HW150794   5.806   5.505   2.406 -0.1616  0.0283  0.1823
15158SOL    HW250795   5.676   5.576   2.375  1.6009  3.2460 -0.2147
15159SOL     OW50796  10.688   0.334   8.426  0.0327 -0.3930  0.1660
15159SOL    HW150797  10.655   0.415   8.387  0.3524  0.9779  2.5269
15159SOL    HW250798  10.617   0.303   8.482 -0.1674 -1.9098 -0.8737
15160SOL     OW50799   7.489   9.599   2.983 -0.5786 -0.1572  0.2947
15160SOL    HW150800   7.532   9.577   3.066 -2.0661  0.3768  1.2659
15160SOL    HW250801   7.473   9.693   2.988 -1.0963 -0.1974 -0.3880
15161SOL     OW50802   5.772   3.471   9.203  0.0448 -0.1358 -0.6018
15161SOL    HW150803   5.727   3.398   9.160 -2.7008  2.0435 -1.6843
15161SOL    HW250804   5.746   3.464   9.295  0.4947 -0.9517 -0.5209
15162SOL     OW50805  11.288   8.146  10.206  0.0746  0.5671 -0.5677
15162SOL    HW150806  11.251   8.113  10.288 -1.5252  1.3345 -0.9484
15162SOL    HW250807  11.266   8.079  10.141 -0.6623  1.0202 -0.7934
15163SOL     OW50808   7.968   1.788   5.005  0.8947 -0.7047 -0.1505
15163SOL    HW150809   8.012   1.750   4.929  1.2621  0.1863 -0.3917
15163SOL    HW250810   7.926   1.867   4.972  2.5246  0.6773  0.8992
15164SOL     OW50811   3.956   3.794   0.047  0.3466 -0.0790  0.5190
15164SOL    HW150812   3.980   3.840  -0.034  2.7125 -0.3075  1.0209
15164SOL    HW250813   4.038   3.755   0.078 -0.8529 -1.5298  2.0890
15165SOL     OW50814   6.658  11.496   8.722  0.2672  0.4881  0.2115
15165SOL    HW150815   6.602  11.571   8.738  0.3706  0.5198  0.4340
15165SOL    HW250816   6.744  11.522   8.756  0.2698  0.2218  0.4183
15166SOL     OW50817   0.518   7.814   5.556  0.5936  0.2603  0.0376
15166SOL    HW150818   0.468   7.775   5.484  0.8799 -0.0551  0.0092
15166SOL    HW250819   0.473   7.897   5.573  0.0785 -0.0010 -0.0119
15167SOL     OW50820  10.180   7.188   1.716 -0.0736  0.2762 -0.0171
15167SOL    HW150821  10.114   7.257   1.716 -0.8925 -0.4598  1.7805
15167SOL    HW250822  10.144   7.120   1.772  0.7980 -1.5645 -1.5793
15168SOL     OW50823   8.235   9.275   7.923 -0.1656 -0.6024 -0.3931
15168SOL    HW150824   8.224   9.191   7.878  1.4410 -0.4904 -1.0273
15168SOL    HW250825   8.214   9.341   7.856 -1.7125 -0.4659  0.1836
15169SOL     OW50826   6.898  11.392   8.088 -0.4854  0.9144  0.4300
15169SOL    HW150827   6.933  11.359   8.005 -1.3359 -0.5339  0.6188
15169SOL    HW250828   6.807  11.417   8.068 -1.2548 -1.0221  1.2476
15170SOL     OW50829   6.256   5.953   4.180 -0.2168 -0.5363 -0.2495
15170SOL    HW150830   6.278   5.946   4.273 -0.5108 -2.3664 -0.2641
15170SOL    HW250831   6.336   5.986   4.139  0.8087 -2.1097  0.3583
15171SOL     OW50832   4.241   0.230   5.085  0.2737 -0.0891 -0.1186
15171SOL    HW150833   4.168   0.254   5.142 -0.0528  1.1788 -1.0142
15171SOL    HW250834   4.317   0.226   5.143 -0.4915 -1.5147  0.8378
15172SOL     OW50835   3.898   8.903   4.304 -0.0354  0.0619 -0.2622
15172SOL    HW150836   3.817   8.907   4.253 -0.3467 -0.7050  0.1536
15172SOL    HW250837   3.948   8.980   4.276 -0.2410 -0.2773 -1.6469
15173SOL     OW50838   4.970   1.447   6.465 -0.3016  0.5039 -0.3549
15173SOL    HW150839   4.916   1.473   6.540 -0.8410 -0.2380 -0.4758
15173SOL    HW250840   4.912   1.455   6.390 -1.2480 -3.0739 -0.1720
15174SOL     OW50841   3.155   0.107   1.638  0.7241  0.0724 -0.2420
15174SOL    HW150842   3.232   0.061   1.605  1.1159 -0.1247  0.8857
15174SOL    HW250843   3.081   0.052   1.614  1.0625 -0.4033 -0.1972
15175SOL     OW50844   3.054   4.450   8.129  0.0055 -0.0452 -0.0479
15175SOL    HW150845   2.980   4.453   8.068  1.1358 -0.1022 -1.4746
15175SOL    HW250846   3.073   4.542   8.149 -1.3328 -0.0544  1.5001
15176SOL     OW50847   1.575   2.976   8.470  0.2023  0.1904  0.1182
15176SOL    HW150848   1.603   2.885   8.463 -2.7024 -0.9619  1.6486
15176SOL    HW250849   1.544   2.998   8.382 -0.9957 -1.0915  0.1660
15177SOL     OW50850   2.757   5.417   4.638  0.3785 -0.1270  0.3640
15177SOL    HW150851   2.852   5.428   4.645  0.4861 -0.8884  0.1079
15177SOL    HW250852   2.722   5.506   4.646  1.1401  0.2131 -0.0239
15178SOL     OW50853   6.592   8.906   8.320 -0.0552  0.3495  0.3306
15178SOL    HW150854   6.508   8.865   8.303  0.9393 -1.4233 -0.4978
15178SOL    HW250855   6.657   8.837   8.308  1.5053  1.4845  1.5951
15179SOL     OW50856   1.133   1.943   4.112  0.1094 -0.7177 -0.4171
15179SOL    HW150857   1.112   1.904   4.027 -0.8068 -1.5995  0.1939
15179SOL    HW250858   1.207   1.892   4.145  0.0386 -0.8060 -0.3948
15180SOL     OW50859   0.527   3.602   1.524  0.2544 -0.0151  0.5244
15180SOL    HW150860   0.534   3.568   1.613  0.1300 -0.1288  0.4918
15180SOL    HW250861   0.437   3.635   1.517 -0.8338 -2.8369 -0.5165
15181SOL     OW50862   9.044  11.037   8.777 -0.1849  0.2437 -0.5257
15181SOL    HW150863   9.012  11.033   8.867  0.3924 -0.0814 -0.3277
15181SOL    HW250864   8.972  11.075   8.727 -0.9184 -0.5862 -0.1206
15182SOL     OW50865   7.651   6.443   3.266 -0.6524 -0.1096  0.6840
15182SOL    HW150866   7.580   6.420   3.206 -1.0536  0.3369  0.9819
15182SOL    HW250867   7.685   6.526   3.233  0.4642 -0.8561 -0.0975
15183SOL     OW50868   6.587  11.731   6.390 -0.7306  0.5249 -0.7540
15183SOL    HW150869   6.593  11.660   6.454 -0.3981  1.3616  0.1566
15183SOL    HW250870   6.505  11.714   6.344  0.1095 -1.3508 -1.6577
15184SOL     OW50871   1.881   9.480   2.551  0.3070  0.4540  0.1807
15184SOL    HW150872   1.964   9.490   2.597  1.2287  0.7766 -1.4738
15184SOL    HW250873   1.898   9.413   2.485  0.1973  2.5960 -2.1565
15185SOL     OW50874  11.372   3.105   6.933 -0.0671 -0.1969  0.4191
15185SOL    HW150875  11.414   3.019   6.943 -1.0617 -0.7458  0.0376
15185SOL    HW250876  11.439   3.159   6.891  0.0001 -1.2987 -0.9733
15186SOL     OW50877  11.697   1.343   9.262 -0.4022  0.0263 -0.3921
15186SOL    HW150878  11.734   1.428   9.241  0.6325  0.1759  1.7105
15186SOL    HW250879  11.645   1.358   9.342  0.9691 -1.5114  0.8643
15187SOL     OW50880   3.272  10.137   4.289  0.4302 -0.5192 -0.1247
15187SOL    HW150881   3.245  10.118   4.379  0.3525  0.4409  0.0626
15187SOL    HW250882   3.191  10.133   4.239  0.3114 -0.0135  0.0272
15188SOL     OW50883   4.667   6.680   6.099  0.0683  0.3292  0.0747
15188SOL    HW150884   4.699   6.601   6.055  0.3479  1.1392 -1.2541
15188SOL    HW250885   4.597   6.649   6.157 -0.1878 -0.8353 -0.8098
15189SOL     OW50886   5.673  11.240   0.749 -0.4326  0.2222 -0.6693
15189SOL    HW150887   5.578  11.238   0.756 -0.4483  0.5784 -0.8023
15189SOL    HW250888   5.693  11.185   0.674 -0.5293  0.1311 -0.6291
15190SOL     OW50889   1.657   0.408   5.494  0.5470 -0.2050  0.0909
15190SOL    HW150890   1.580   0.356   5.469 -0.4401  1.7103 -1.1001
15190SOL    HW250891   1.621   0.494   5.517  2.3854  1.0055 -1.3210
15191SOL     OW50892   6.111   9.184  10.588 -0.0273 -0.3806  0.0214
15191SOL    HW150893   6.018   9.207  10.595  0.1112  0.3292 -0.3140
15191SOL    HW250894   6.144   9.191  10.677 -0.3460 -0.8785  0.1831
15192SOL     OW50895   6.266   2.231   4.370 -0.0042  0.0655  0.0829
15192SOL    HW150896   6.181   2.276   4.371  0.0296  0.1272  0.1262
15192SOL    HW250897   6.258   2.162   4.436  0.4355  0.8927  1.0212
15193SOL     OW50898   3.876   6.553   5.655 -0.1166 -0.0378 -0.0268
15193SOL    HW150899   3.889   6.486   5.721 -2.0010  0.7675  1.2476
15193SOL    HW250900   3.811   6.612   5.693 -1.9151  0.0115 -2.8894
15194SOL     OW50901   7.167   7.245  10.497 -0.2720  0.0045 -0.3642
15194SOL    HW150902   7.222   7.221  10.422  1.6624  0.2297  0.9079
15194SOL    HW250903   7.127   7.162  10.524  0.3031 -0.3879 -0.6720
15195SOL     OW50904   6.619   6.933   1.472 -0.9420 -0.4559  0.0624
15195SOL    HW150905   6.693   6.959   1.526 -0.1729 -0.6752 -0.8646
15195SOL    HW250906   6.558   7.007   1.479 -0.1501  0.2333 -0.0465
15196SOL     OW50907   0.589   1.159  10.828  0.7997 -0.6651  0.2518
15196SOL    HW150908   0.675   1.135  10.862  0.0825 -0.7978  2.1425
15196SOL    HW250909   0.530   1.143  10.902 -0.9335 -1.1383 -1.1859
15197SOL     OW50910   8.611   7.049  11.326  0.3817 -0.1490  0.0759
15197SOL    HW150911   8.654   7.097  11.397  0.1478  0.0251  0.1006
15197SOL    HW250912   8.679   6.991  11.291  0.6790  0.2414  0.0084
15198SOL     OW50913   1.625   2.213   5.424  0.0423  0.4452  0.1667
15198SOL    HW150914   1.585   2.133   5.391  0.0520  0.5793 -0.1782
15198SOL    HW250915   1.710   2.218   5.378 -1.2914  2.3159 -2.3324
15199SOL     OW50916   6.185   7.738   3.313 -0.6275  0.1929  0.1223
15199SOL    HW150917   6.256   7.675   3.310 -0.4913  0.1382  2.3238
15199SOL    HW250918   6.106   7.688   3.290 -0.2266 -0.2336 -0.3311
15200SOL     OW50919   1.311   2.713   6.042  0.2280 -0.0937 -0.0028
15200SOL    HW150920   1.334   2.654   6.114 -0.9852  0.2975  0.7410
15200SOL    HW250921   1.238   2.669   5.998  1.3657 -0.6371 -1.4203
15201SOL     OW50922  10.969   0.685   9.083 -0.2645 -0.0632 -0.1510
15201SOL    HW150923  11.044   0.667   9.025  1.1317  0.8861  1.2687
15201SOL    HW250924  10.904   0.726   9.026  1.1217  0.9837 -1.0438
15202SOL     OW50925   6.309   0.202   3.077  0.7356  0.1940 -0.6842
15202SOL    HW150926   6.378   0.248   3.125 -1.1382  1.2266  1.1687
15202SOL    HW250927   6.319   0.231   2.987  3.3778 -0.5638 -0.7319
15203SOL     OW50928   2.964   8.283   4.779 -0.0992  0.2683 -0.5231
15203SOL    HW150929   2.879   8.321   4.758 -0.4445 -0.6506 -0.8581
15203SOL    HW250930   2.978   8.306   4.871 -2.1309 -2.0469  0.4867
15204SOL     OW50931   2.862   7.773   5.123 -0.3903  0.6869  0.2684
15204SOL    HW150932   2.899   7.784   5.036  0.3900 -1.4866  0.2551
15204SOL    HW250933   2.938   7.764   5.181 -0.8646 -0.5021  0.7462
15205SOL     OW50934  10.379   3.977   4.672 -0.0379 -0.3440  0.1938
15205SOL    HW150935  10.337   4.011   4.593  0.8031  0.8020  0.2092
15205SOL    HW250936  10.362   3.883   4.670  0.7367 -0.5016 -1.8312
15206SOL     OW50937   9.827   9.643   1.112 -0.3878 -0.0350  0.5956
15206SOL    HW150938   9.839   9.568   1.055 -0.5393  0.8820 -0.6857
15206SOL    HW250939   9.899   9.638   1.175  0.4320 -0.4577 -0.3612
15207SOL     OW50940   7.977  10.129   2.219  0.1892  0.2843 -0.0248
15207SOL    HW150941   7.937  10.205   2.177  0.0657  1.0545  1.4369
15207SOL    HW250942   8.030  10.089   2.150 -1.7666  0.1755 -1.5656
15208SOL     OW50943   7.869   6.661   3.833  0.3624  0.2561  0.0240
15208SOL    HW150944   7.855   6.609   3.754  0.4224  1.6936 -0.9657
15208SOL    HW250945   7.797   6.723   3.833 -0.0879 -0.2318  1.5583
15209SOL     OW50946  10.313   2.709   5.918  0.1234 -0.0974  0.7814
15209SOL    HW150947  10.370   2.773   5.959  0.9770  0.2744 -0.9118
15209SOL    HW250948  10.237   2.759   5.890  0.5429  0.0826 -0.0520
15210SOL     OW50949   3.976  11.507   7.337 -0.4983  0.9243  0.0179
15210SOL    HW150950   3.886  11.530   7.361 -1.1333  3.1555 -3.7243
15210SOL    HW250951   4.026  11.586   7.352  0.2773  0.5271 -0.4203
15211SOL     OW50952   1.015   0.001   1.975 -0.7646 -0.0289 -0.5735
15211SOL    HW150953   0.946  -0.059   1.946  0.2501 -0.5259 -2.0615
15211SOL    HW250954   0.970   0.064   2.032 -1.9806 -1.8039  0.5292
15212SOL     OW50955  10.195   9.097   6.955 -0.0421  0.0714  0.0176
15212SOL    HW150956  10.237   9.130   6.875  0.9947 -1.8262 -0.2812
15212SOL    HW250957  10.256   9.120   7.025 -1.0878  1.9940  0.3690
15213SOL     OW50958   0.120   2.487   0.984  0.3530  0.2196  0.0039
15213SOL    HW150959   0.201   2.528   1.014 -0.4934  1.2807  0.9041
15213SOL    HW250960   0.082   2.449   1.064 -0.0510 -0.2525 -0.4093
15214SOL     OW50961   8.188   9.913   0.100  0.0908  0.6183  0.1674
15214SOL    HW150962   8.208   9.957   0.017 -0.0394  0.7237  0.1914
15214SOL    HW250963   8.188   9.983   0.165 -2.7764  1.0747 -0.1839
15215SOL     OW50964   9.703   7.157   7.865 -0.2147  0.0079 -0.2080
15215SOL    HW150965   9.714   7.225   7.798 -0.5563 -0.1681 -0.4484
15215SOL    HW250966   9.787   7.155   7.911  0.1896 -0.1849 -0.9291
15216SOL     OW50967   3.383   2.813   4.266  0.2946  0.6393 -0.0297
15216SOL    HW150968   3.289   2.832   4.269  0.4391  1.2653  0.8711
15216SOL    HW250969   3.415   2.865   4.192 -0.1916 -0.2526 -0.9042
15217SOL     OW50970   5.416   5.353   2.990  0.0286  0.1152  0.1635
15217SOL    HW150971   5.329   5.384   3.018 -1.0405  2.1497 -4.4549
15217SOL    HW250972   5.398   5.279   2.932  1.3263  0.6806 -1.0168
15218SOL     OW50973   4.884   8.240  11.112 -0.2813 -0.2255 -0.5062
15218SOL    HW150974   4.816   8.228  11.178  0.0482  0.8626  0.0544
15218SOL    HW250975   4.849   8.305  11.051 -1.0935 -2.1205 -2.1619
15219SOL     OW50976   4.436  10.796   3.127  0.3485 -0.1176  0.2722
15219SOL    HW150977   4.453  10.890   3.125 -0.8157  0.1141  0.4722
15219SOL    HW250978   4.504  10.758   3.072 -0.4601  1.0717 -1.6539
15220SOL     OW50979   7.638   6.209   0.767  0.2292 -0.2097 -0.0434
15220SOL    HW150980   7.615   6.154   0.691  1.4417 -1.5056  0.4843
15220SOL    HW250981   7.633   6.298   0.734  0.0976 -0.7208 -1.4785
15221SOL     OW50982   2.022   8.691   9.544  0.2481 -0.3816 -0.2391
15221SOL    HW150983   1.933   8.724   9.560  0.4323  0.0946 -0.1900
15221SOL    HW250984   2.079   8.766   9.562  0.8881 -1.3939  2.5743
15222SOL     OW50985   1.940   0.163   7.523 -0.0540 -0.2802 -0.2536
15222SOL    HW150986   1.982   0.082   7.551 -1.8274 -0.6476  1.5605
15222SOL    HW250987   1.995   0.233   7.558 -0.5278 -0.7502  1.5165
15223SOL     OW50988   2.186   4.000   1.840 -0.4985 -0.3488  0.3484
15223SOL    HW150989   2.201   3.966   1.929  0.8422 -1.8492 -0.4046
15223SOL    HW250990   2.091   4.010   1.834 -0.5639  0.6476  2.2453
15224SOL     OW50991   2.462   8.779   0.108 -0.1747  0.5169 -0.0062
15224SOL    HW150992   2.528   8.710   0.116 -0.2469  0.5332  0.8473
15224SOL    HW250993   2.468   8.827   0.191  0.8075  2.3773 -1.0940
15225SOL     OW50994   3.384   0.787   0.913 -0.5547  0.2353  0.7774
15225SOL    HW150995   3.383   0.744   0.999 -0.7315 -0.2828  0.5199
15225SOL    HW250996   3.322   0.736   0.861  1.4994 -1.1377 -0.4743
15226SOL     OW50997   1.760  10.142   6.196 -0.2385  0.3664  1.0423
15226SOL    HW150998   1.816  10.153   6.119 -0.8438  0.4806  0.6123
15226SOL    HW250999   1.797  10.201   6.261 -0.6701  1.5012  0.3020
15227SOL     OW51000   3.056   2.626   2.995 -0.2472 -0.2491 -0.5592
15227SOL    HW151001   3.105   2.628   2.914 -0.9498  1.3638 -0.9761
15227SOL    HW251002   3.043   2.718   3.018 -0.3773 -0.6696  1.1909
15228SOL     OW51003   2.266   0.420   2.891  0.1153 -0.7059  0.3153
15228SOL    HW151004   2.266   0.516   2.898  1.4029 -0.6484 -0.0666
15228SOL    HW251005   2.317   0.403   2.811 -0.2469 -1.7050  0.2931
15229SOL     OW51006   0.613   6.405   9.889 -0.4680 -0.1981  0.4277
15229SOL    HW151007   0.656   6.349   9.824 -2.9644 -0.8537 -0.7896
15229SOL    HW251008   0.582   6.344   9.956 -0.5556  0.1069  0.6653
15230SOL     OW51009   3.563   9.810   7.786 -0.5449  0.2239  0.5375
15230SOL    HW151010   3.484   9.769   7.819 -0.8710 -0.7509 -1.3548
15230SOL    HW251011   3.632   9.780   7.845 -1.1586 -1.1592  0.5834
15231SOL     OW51012   3.467   1.530  11.387 -0.6948 -0.7011  0.0373
15231SOL    HW151013   3.556   1.531  11.350 -0.5167  2.6314  0.2593
15231SOL    HW251014   3.465   1.450  11.440  2.6083 -0.3611  0.9438
15232SOL     OW51015   6.262   5.779   5.047 -0.3514 -0.0626 -0.7482
15232SOL    HW151016   6.181   5.831   5.048  0.4075  1.1573  0.1311
15232SOL    HW251017   6.258   5.730   4.965 -2.7475 -1.2989  0.0069
15233SOL     OW51018   5.043   7.918   3.388  0.3280 -0.0932 -0.7153
15233SOL    HW151019   5.042   7.848   3.322  0.4232 -0.5883 -0.1925
15233SOL    HW251020   5.007   7.878   3.467  2.1988 -0.1509  0.1703
15234SOL     OW51021   8.404   8.610   1.556  0.0766 -0.3307  0.4515
15234SOL    HW151022   8.431   8.665   1.482  0.8510  0.5622  1.3545
15234SOL    HW251023   8.336   8.662   1.600 -0.9818 -1.2242 -0.0815
15235SOL     OW51024   3.938  10.609   8.697  0.0807 -0.2758  0.2639
15235SOL    HW151025   4.004  10.665   8.738  0.0510 -0.5206  0.6515
15235SOL    HW251026   3.951  10.621   8.603  1.4632 -1.2203  0.3101
15236SOL     OW51027   4.768   5.987   9.760  0.1638 -0.2594  0.4983
15236SOL    HW151028   4.830   6.058   9.745  0.6372 -0.8332 -0.3879
15236SOL    HW251029   4.686   6.017   9.721  0.7566 -0.7717 -1.2341
15237SOL     OW51030   3.724   7.882  10.383  0.0594 -0.3307  0.2621
15237SOL    HW151031   3.812   7.845  10.388 -0.5734 -1.7893  1.1148
15237SOL    HW251032   3.672   7.829  10.443 -1.5352  0.1410 -0.6427
15238SOL     OW51033   6.096  11.270   1.804 -0.2629 -0.1477  0.2156
15238SOL    HW151034   6.015  11.322   1.803 -0.0320  0.2124 -0.0030
15238SOL    HW251035   6.166  11.335   1.804  0.0313 -0.4560  0.8207
15239SOL     OW51036   1.814   1.405   3.721 -0.0499  0.6698 -0.1435
15239SOL    HW151037   1.816   1.337   3.654  0.7027  0.6665 -0.1193
15239SOL    HW251038   1.905   1.420   3.744 -0.2462  1.2579  0.2928
15240SOL     OW51039   6.545  11.478   0.526  0.0655  0.8474 -0.3543
15240SOL    HW151040   6.537  11.545   0.458  0.4892  0.7932 -0.4604
15240SOL    HW251041   6.480  11.503   0.592 -1.3830  0.0948 -1.4375
15241SOL     OW51042   9.549   5.779   2.609  0.7013 -0.4465 -0.3253
15241SOL    HW151043   9.553   5.868   2.645 -3.2530 -0.1039 -0.2908
15241SOL    HW251044   9.565   5.791   2.515 -0.6625  0.4992 -0.4681
15242SOL     OW51045   9.947   2.758   2.848 -0.0056 -0.0419  0.5114
15242SOL    HW151046   9.857   2.776   2.821  0.2087 -1.9697 -1.8279
15242SOL    HW251047   9.993   2.841   2.834 -1.0809  0.5295  0.2133
15243SOL     OW51048   7.844  10.198   7.598  0.3033 -0.0656  0.3655
15243SOL    HW151049   7.912  10.154   7.650 -0.1176  1.0010  1.9006
15243SOL    HW251050   7.882  10.284   7.578 -0.3803  0.3454  0.8019
15244SOL     OW51051  11.627   2.875   0.732 -0.0489  0.3338  0.2401
15244SOL    HW151052  11.691   2.886   0.662  2.0014  0.4655  2.0373
15244SOL    HW251053  11.639   2.785   0.762 -1.7515 -0.1133 -0.3211
15245SOL     OW51054  11.358   9.179   7.373 -0.3901 -0.2469  0.4118
15245SOL    HW151055  11.422   9.118   7.337  1.1660  1.0060  0.9317
15245SOL    HW251056  11.369   9.259   7.321 -2.8004 -0.5019 -0.6555
15246SOL     OW51057   4.265   8.427  10.695 -0.1955 -0.2262 -0.0952
15246SOL    HW151058   4.184   8.428  10.746 -0.0367 -0.8246  0.1712
15246SOL    HW251059   4.235   8.429  10.604 -0.5026 -0.0866  0.0063
15247SOL     OW51060  10.811   8.598   7.488 -0.1970 -0.2825 -0.0064
15247SOL    HW151061  10.749   8.530   7.461 -0.5836 -0.6745  1.7672
15247SOL    HW251062  10.780   8.627   7.574  0.9152  0.9769  0.0033
15248SOL     OW51063   5.131   2.422   2.740 -0.3217  0.1048  0.7535
15248SOL    HW151064   5.159   2.373   2.817  0.0433  0.2162  0.6918
15248SOL    HW251065   5.095   2.504   2.774 -0.0762  0.1932  0.8008
15249SOL     OW51066   9.842   1.033   2.891 -0.0192 -0.2002 -0.1124
15249SOL    HW151067   9.933   1.022   2.916 -0.4109  0.0855  1.4985
15249SOL    HW251068   9.800   0.950   2.916 -1.0770  1.2224  3.4087
15250SOL     OW51069   7.250   2.674   4.996  0.3505  0.2384 -0.3361
15250SOL    HW151070   7.313   2.605   5.015  0.2010  0.3907  0.7631
15250SOL    HW251071   7.193   2.637   4.930  0.2155 -0.7381  0.3150
15251SOL     OW51072   8.092   6.274   2.034  0.4293  0.8272  0.0327
15251SOL    HW151073   8.063   6.324   1.958  0.4569  1.3990  0.3979
15251SOL    HW251074   8.184   6.297   2.045  0.5721  0.3382 -0.0749
15252SOL     OW51075   2.055   4.465   3.953  0.8531 -0.1944  0.0614
15252SOL    HW151076   2.013   4.551   3.953  1.7033  0.2395  0.2354
15252SOL    HW251077   1.988   4.405   3.920  0.3523  0.5903 -0.3910
15253SOL     OW51078   2.914   0.807   0.731  0.1998  0.1833 -0.0094
15253SOL    HW151079   2.846   0.782   0.669  0.6388 -2.0919  0.3372
15253SOL    HW251080   2.871   0.805   0.816  0.8780 -2.5178  0.3650
15254SOL     OW51081   4.501   7.212  10.939  0.4653  0.1042  0.1205
15254SOL    HW151082   4.520   7.144  11.004 -2.0334  0.0561  0.9132
15254SOL    HW251083   4.565   7.281  10.958  1.9453 -1.2770  0.4187
15255SOL     OW51084   5.584   1.313   8.701  0.0642 -0.5085  0.0078
15255SOL    HW151085   5.607   1.339   8.612 -1.9003 -0.9854 -0.6851
15255SOL    HW251086   5.653   1.350   8.756  0.2353  1.5495 -1.4839
15256SOL     OW51087   4.032   6.566  11.231  0.1884 -0.6162 -0.0339
15256SOL    HW151088   4.044   6.651  11.273 -0.1063 -1.4588  1.8274
15256SOL    HW251089   3.954   6.578  11.176 -0.4831  0.0502  1.0184
15257SOL     OW51090   4.680   0.130   2.666  0.2617  0.1994 -0.1009
15257SOL    HW151091   4.678   0.225   2.657  0.4580  0.3817  1.4316
15257SOL    HW251092   4.591   0.106   2.693  0.2622 -0.0259 -0.2941
15258SOL     OW51093   3.125   3.807   6.732 -0.3849  0.4237 -0.1848
15258SOL    HW151094   3.060   3.737   6.724 -0.7005  0.7491 -0.5070
15258SOL    HW251095   3.126   3.829   6.825 -1.2799  0.9322 -0.2928
15259SOL     OW51096  10.406   4.244   7.619  0.0649 -0.4466  0.2677
15259SOL    HW151097  10.377   4.257   7.529  0.4495  0.2773  0.2341
15259SOL    HW251098  10.350   4.175   7.653 -1.6427  0.8415  0.1908
15260SOL     OW51099   7.207  10.661   2.145 -0.1101 -0.1365  0.5880
15260SOL    HW151100   7.159  10.604   2.084 -1.1339  2.4513 -1.1865
15260SOL    HW251101   7.275  10.702   2.091  2.0902 -1.2302  2.3405
15261SOL     OW51102   9.261   3.511   1.653 -0.2291  0.0865 -0.3919
15261SOL    HW151103   9.223   3.488   1.569  1.3914 -1.6812 -0.7078
15261SOL    HW251104   9.194   3.487   1.717 -0.7520 -0.2880 -1.0663
15262SOL     OW51105   3.548   5.325   1.521 -0.0096 -0.0836 -0.1447
15262SOL    HW151106   3.588   5.244   1.552  0.4667  0.8768  1.8774
15262SOL    HW251107   3.616   5.391   1.531 -0.4769  0.6589 -1.5162
15263SOL     OW51108  11.749   3.456   6.747 -0.3600  0.6294  0.4244
15263SOL    HW151109  11.767   3.517   6.819  1.3790  0.3237  0.3046
15263SOL    HW251110  11.793   3.495   6.672  0.2150 -0.4386  0.1931
15264SOL     OW51111   7.451   0.185   0.878  0.5100  0.2505  0.3952
15264SOL    HW151112   7.410   0.193   0.792  1.3481 -2.5312 -0.3764
15264SOL    HW251113   7.520   0.251   0.878  1.0397 -0.2471 -1.4668
15265SOL     OW51114   3.714   3.488   3.727  0.2767  0.2085 -0.0836
15265SOL    HW151115   3.732   3.473   3.634 -0.5601  1.2379 -0.4310
15265SOL    HW251116   3.789   3.540   3.756 -0.5587  1.8933 -0.7870
15266SOL     OW51117   9.248   5.970   5.588  0.0544  0.0401  0.0040
15266SOL    HW151118   9.249   5.947   5.495 -0.6457  1.1284 -0.2985
15266SOL    HW251119   9.172   6.027   5.598  0.6530  0.7024  1.0603
15267SOL     OW51120  10.312   3.106   4.718 -0.2698  0.5464  0.3362
15267SOL    HW151121  10.240   3.050   4.688 -1.1059  0.7738  1.7994
15267SOL    HW251122  10.277   3.149   4.797  1.3543  0.9412  0.8680
15268SOL     OW51123   7.181   5.767   1.242 -0.3761 -0.0112  0.1251
15268SOL    HW151124   7.202   5.840   1.300  0.7570  1.9516 -2.5249
15268SOL    HW251125   7.131   5.806   1.170  0.5052 -1.7414 -1.5414
15269SOL     OW51126  10.896   8.603  11.657  0.1754  0.3326 -0.0814
15269SOL    HW151127  10.956   8.611  11.583  0.4278  0.9887  0.1850
15269SOL    HW251128  10.833   8.536  11.631 -1.1888  2.2007 -1.8665
15270SOL     OW51129  10.574   0.838   0.589 -0.1262  0.3878  0.0903
15270SOL    HW151130  10.649   0.831   0.529 -1.7358  2.1653 -2.3223
15270SOL    HW251131  10.513   0.770   0.559 -0.8280  1.0992 -0.1314
15271SOL     OW51132  10.203   9.559  11.417  0.6158 -0.3993 -0.6170
15271SOL    HW151133  10.293   9.545  11.389  0.1641 -2.1676 -1.3711
15271SOL    HW251134  10.206   9.550  11.512  1.6561  2.4822 -0.2923
15272SOL     OW51135   5.332   8.644   9.688  0.7295  0.6333  0.1097
15272SOL    HW151136   5.262   8.609   9.743 -0.1707  1.9230 -0.1646
15272SOL    HW251137   5.348   8.575   9.623 -2.3196  1.3502 -1.6009
15273SOL     OW51138   4.058   0.605   5.135  0.6127 -0.4693  0.2582
15273SOL    HW151139   4.130   0.636   5.079 -0.7132  0.0953 -1.2255
15273SOL    HW251140   3.985   0.663   5.113 -0.4707 -1.4144  1.2704
15274SOL     OW51141   7.604   4.856   8.044  0.1570 -0.3868 -0.0683
15274SOL    HW151142   7.569   4.773   8.011  0.9348 -0.6636 -0.2170
15274SOL    HW251143   7.687   4.867   7.998 -0.0194  0.5695 -0.1880
15275SOL     OW51144   7.104  10.804   6.528 -0.0924 -0.2364  0.1892
15275SOL    HW151145   7.021  10.818   6.574  0.6438  1.8573  0.9831
15275SOL    HW251146   7.078  10.780   6.439 -1.5730  1.0378  0.2267
15276SOL     OW51147   6.317   7.857   9.851  0.5280  0.0489 -0.2793
15276SOL    HW151148   6.373   7.805   9.793  0.9034  0.5858 -0.4066
15276SOL    HW251149   6.281   7.926   9.795 -1.4608 -1.1402 -0.5582
15277SOL     OW51150   1.177   2.341   8.863  0.8498 -0.0858 -0.7967
15277SOL    HW151151   1.215   2.254   8.850  1.3982  0.0831 -0.3410
15277SOL    HW251152   1.087   2.324   8.892  1.2119 -0.5115  0.1009
15278SOL     OW51153   3.553  10.656   0.150  0.2404  0.7077  0.1911
15278SOL    HW151154   3.513  10.696   0.227 -0.5435  2.5131 -1.0870
15278SOL    HW251155   3.630  10.610   0.184 -0.7331  0.4324  2.1748
15279SOL     OW51156   8.689   7.900   4.507  0.1360  0.7935  0.3395
15279SOL    HW151157   8.697   7.984   4.552  0.8044  1.4063 -0.8836
15279SOL    HW251158   8.715   7.836   4.573  2.1825  1.7524  0.5347
15280SOL     OW51159   0.105   0.714   5.197 -0.5345 -0.0765 -0.0187
15280SOL    HW151160   0.096   0.654   5.271 -0.7956 -1.3194 -1.0263
15280SOL    HW251161   0.062   0.794   5.227 -0.0745 -0.3226  1.4022
15281SOL     OW51162   7.759   2.047   2.691 -0.1507 -0.0804  0.9724
15281SOL    HW151163   7.777   2.132   2.650 -0.5560 -1.2687 -1.8849
15281SOL    HW251164   7.800   1.983   2.633 -0.5257 -1.9368  2.6314
15282SOL     OW51165   5.273   2.521   8.652  0.1050  0.2149  0.3828
15282SOL    HW151166   5.201   2.462   8.673  1.2039 -0.8317  1.3398
15282SOL    HW251167   5.350   2.479   8.690  1.0952  1.7137  0.0987
15283SOL     OW51168   7.231   1.759   6.552 -0.0973 -0.3925 -0.2366
15283SOL    HW151169   7.323   1.777   6.531 -0.2369 -0.9655 -1.4523
15283SOL    HW251170   7.189   1.749   6.466 -1.1680 -0.7501  0.3152
15284SOL     OW51171   2.788   6.951  10.810 -0.4136 -0.7914  0.5015
15284SOL    HW151172   2.753   6.924  10.895  1.0371 -1.0248  1.0680
15284SOL    HW251173   2.867   6.897  10.799  0.5433  0.6487 -0.0270
15285SOL     OW51174   0.289  11.065   4.172  0.1660 -0.8048  0.0330
15285SOL    HW151175   0.288  11.092   4.264 -1.1619 -1.5083  0.2444
15285SOL    HW251176   0.272  10.971   4.174 -2.7325 -0.3932 -1.0298
15286SOL     OW51177   5.358   6.524   9.619 -0.0406  0.2857 -0.0747
15286SOL    HW151178   5.283   6.543   9.563  0.4798  1.6462 -0.3553
15286SOL    HW251179   5.378   6.433   9.602 -0.7324  0.3054 -1.0930
15287SOL     OW51180   7.773   8.333   7.691  0.3202  0.0211  0.3556
15287SOL    HW151181   7.782   8.256   7.747  0.3553 -0.9098 -0.8648
15287SOL    HW251182   7.849   8.387   7.712  0.1928 -0.1781  1.3711
15288SOL     OW51183   6.311  10.488   9.000  0.3354  0.9539  0.0138
15288SOL    HW151184   6.397  10.527   8.985  0.0658  0.6149 -3.1346
15288SOL    HW251185   6.252  10.563   9.010  0.4363  1.3227 -1.8972
15289SOL     OW51186   0.073   3.185  11.694  0.1682 -0.1799  0.3479
15289SOL    HW151187   0.026   3.200  11.776  0.9957  0.4747  0.7160
15289SOL    HW251188   0.163   3.170  11.721  1.1419  3.1676 -0.5671
15290SOL     OW51189   9.403   6.516   8.843  0.6177  0.4868  0.3872
15290SOL    HW151190   9.403   6.548   8.933  1.0284  1.9287 -0.0990
15290SOL    HW251191   9.438   6.428   8.849  0.0615  0.3304  1.7142
15291SOL     OW51192   2.249   5.290   9.679  0.5018  0.2735 -0.3456
15291SOL    HW151193   2.213   5.379   9.676  1.1314  0.6961  2.0690
15291SOL    HW251194   2.173   5.232   9.673  0.1719  0.8633 -3.1818
15292SOL     OW51195  10.229   4.228   4.821  0.1427 -0.1066 -0.2282
15292SOL    HW151196  10.270   4.164   4.762  1.2419 -0.2723  0.6890
15292SOL    HW251197  10.218   4.307   4.767  1.3087 -0.1937 -0.6121
15293SOL     OW51198   6.530   6.413   5.899  0.1630  0.0421  0.5791
15293SOL    HW151199   6.625   6.430   5.897  0.1629  0.0513 -1.8943
15293SOL    HW251200   6.513   6.360   5.821 -1.8570 -0.1517  1.0932
15294SOL     OW51201   4.695   8.459   2.898 -0.0662  0.2101 -0.0055
15294SOL    HW151202   4.647   8.394   2.845 -1.5737  0.1605  1.3146
15294SOL    HW251203   4.642   8.538   2.892 -0.3135  0.1817  1.4330
15295SOL     OW51204   8.433   2.103  10.860  0.2427 -0.1362  0.0297
15295SOL    HW151205   8.396   2.037  10.919  1.7212 -1.0715 -0.0309
15295SOL    HW251206   8.364   2.119  10.796 -0.2048 -1.5138  0.1352
15296SOL     OW51207   2.696   4.436   3.299  0.5027 -0.1572 -0.1533
15296SOL    HW151208   2.685   4.351   3.340 -1.4441 -0.1870 -0.6669
15296SOL    HW251209   2.627   4.440   3.232  1.6223  1.1370 -1.2996
15297SOL     OW51210   1.425   2.420   8.353 -0.2928  0.7291 -0.5128
15297SOL    HW151211   1.373   2.404   8.431 -1.7331  1.9663 -1.1608
15297SOL    HW251212   1.464   2.335   8.332 -3.2082 -0.6816 -0.7630
15298SOL     OW51213   9.204  11.148   6.930 -0.2174 -1.1870  0.1662
15298SOL    HW151214   9.123  11.134   6.881  0.5275  2.6851 -2.6184
15298SOL    HW251215   9.178  11.206   7.002  0.0406  0.3705 -0.9510
15299SOL     OW51216   5.763   8.347   1.393  0.0595  0.4314  0.2361
15299SOL    HW151217   5.844   8.396   1.408  0.4891 -0.4854  1.0307
15299SOL    HW251218   5.792   8.256   1.381 -0.7259  0.3307 -1.0934
15300SOL     OW51219   2.368   7.017   7.490  1.1534 -0.3313 -0.0691
15300SOL    HW151220   2.319   7.090   7.453 -0.1981 -2.0684 -1.8951
15300SOL    HW251221   2.318   6.991   7.567  0.2771 -0.8565 -0.8065
15301SOL     OW51222   9.525  10.733   8.002 -0.2009  0.6206 -0.4595
15301SOL    HW151223   9.547  10.647   8.038 -0.4294  0.1442 -1.4399
15301SOL    HW251224   9.575  10.740   7.921 -1.6168  0.5851 -1.3853
15302SOL     OW51225   7.595   6.977   8.654  0.1480 -0.1193 -0.0642
15302SOL    HW151226   7.678   7.021   8.672 -0.0381 -0.1386  0.8849
15302SOL    HW251227   7.621   6.893   8.613  0.5608  0.1466 -0.3613
15303SOL     OW51228   7.152   0.935   2.884 -0.5849  0.0191  0.3626
15303SOL    HW151229   7.064   0.968   2.863 -0.5540 -0.8712 -1.3400
15303SOL    HW251230   7.209   0.976   2.819  0.3219  0.6846  1.5330
15304SOL     OW51231  10.598   4.764   2.115 -0.1460  0.4722 -0.3241
15304SOL    HW151232  10.631   4.831   2.055 -0.7064 -0.0866 -1.2849
15304SOL    HW251233  10.642   4.782   2.198  0.0826  1.7239 -0.6934
15305SOL     OW51234   0.357   2.225   7.387 -0.5786  0.0138  0.3428
15305SOL    HW151235   0.400   2.143   7.363  1.8373  1.6987 -1.7058
15305SOL    HW251236   0.353   2.223   7.482  1.7424 -1.4370  0.4978
15306SOL     OW51237   9.340  10.509   1.835 -0.4296  1.0458 -0.3995
15306SOL    HW151238   9.299  10.535   1.753 -1.1694  2.4492  0.3826
15306SOL    HW251239   9.401  10.580   1.856  0.6769  0.1133 -0.3388
15307SOL     OW51240   1.419   2.706   5.694 -0.1728  0.8956  0.2424
15307SOL    HW151241   1.439   2.703   5.601  3.0351 -1.3301  0.8445
15307SOL    HW251242   1.379   2.621   5.714 -1.7658  1.7242  0.7943
15308SOL     OW51243   1.564  10.278   3.407  0.4128 -0.0089  0.1801
15308SOL    HW151244   1.624  10.343   3.370 -0.1810  1.0192  0.9630
15308SOL    HW251245   1.612  10.241   3.482 -0.1831  1.3775  1.2921
15309SOL     OW51246   0.573   2.294   0.989  0.6854  1.0255  0.3707
15309SOL    HW151247   0.518   2.359   0.946  2.2974  0.7144 -2.3468
15309SOL    HW251248   0.562   2.215   0.936  2.1524  0.3739  1.0045
15310SOL     OW51249   9.237   2.491   6.420 -0.5524  0.0256  0.4830
15310SOL    HW151250   9.259   2.452   6.504  1.3098  0.3969  0.2203
15310SOL    HW251251   9.156   2.448   6.393  0.7113 -2.7553  0.7855
15311SOL     OW51252   0.843  10.316   7.624 -0.3171  0.1653  0.8177
15311SOL    HW151253   0.775  10.375   7.592  1.8468  2.4075 -0.0343
15311SOL    HW251254   0.867  10.351   7.710  1.3213  0.9046  0.0988
15312SOL     OW51255  10.989   3.359   6.777  0.0818  0.4181 -0.3258
15312SOL    HW151256  10.968   3.268   6.797  0.0930 -0.0195 -2.1064
15312SOL    HW251257  11.042   3.388   6.851 -0.5882 -0.7571  0.6595
15313SOL     OW51258   7.891   7.633   0.192  0.3692 -0.7263 -0.2778
15313SOL    HW151259   7.913   7.593   0.109  1.2729 -1.1233  0.1394
15313SOL    HW251260   7.854   7.562   0.244  0.1803 -0.5733 -0.2027
15314SOL     OW51261   1.955  10.413   6.117 -0.0184 -0.1997  0.2837
15314SOL    HW151262   1.918  10.463   6.190  1.5075  0.6707  0.5098
15314SOL    HW251263   2.016  10.352   6.158  0.4122 -0.1112 -0.2138
15315SOL     OW51264   2.517  11.438   0.427 -0.3856 -0.1777 -0.3916
15315SOL    HW151265   2.499  11.354   0.470 -1.4232 -0.4532 -1.3095
15315SOL    HW251266   2.578  11.415   0.356 -0.0394 -0.0100 -0.1532
15316SOL     OW51267   1.427  10.774   0.124 -0.7962  0.2213 -0.1516
15316SOL    HW151268   1.337  10.800   0.103 -1.1070 -1.3920 -0.9234
15316SOL    HW251269   1.417  10.702   0.186  0.0041  0.7198  0.5735
15317SOL     OW51270  11.298   2.460  10.405 -0.1195 -0.0749  0.1211
15317SOL    HW151271  11.278   2.462  10.312  2.6051 -1.8938 -0.6281
15317SOL    HW251272  11.379   2.511  10.414 -1.3214  1.7008  1.8928
15318SOL     OW51273   1.346   3.156  11.481 -0.0204  0.0719 -0.0833
15318SOL    HW151274   1.336   3.101  11.559  0.2154  1.6203  1.0832
15318SOL    HW251275   1.428   3.204  11.496 -0.9171  1.7546 -0.3909
15319SOL     OW51276   8.288   4.329  11.373 -0.4841 -0.0791  0.1111
15319SOL    HW151277   8.232   4.299  11.444 -0.2802 -0.2305  0.2076
15319SOL    HW251278   8.240   4.401  11.333  0.8259  2.3218  2.5203
15320SOL     OW51279   4.648   9.217   7.159  0.0082 -0.1662  0.0716
15320SOL    HW151280   4.606   9.295   7.123  0.2901 -0.2677 -0.4897
15320SOL    HW251281   4.625   9.218   7.252 -1.8650 -0.6288 -0.3496
15321SOL     OW51282   8.340   0.997   1.960 -0.3580 -0.1676  0.2073
15321SOL    HW151283   8.262   1.043   1.993 -0.2299 -0.2783  0.6614
15321SOL    HW251284   8.306   0.938   1.893 -0.3992  1.3708 -1.1909
15322SOL     OW51285   4.474   7.251  10.663 -0.2544 -0.2972  0.0373
15322SOL    HW151286   4.561   7.287  10.644 -0.4480  0.1078 -0.0749
15322SOL    HW251287   4.472   7.244  10.759 -0.8160  1.5296  0.1980
15323SOL     OW51288   8.913   2.143   0.348  0.6881 -0.7016  0.0530
15323SOL    HW151289   8.931   2.075   0.283 -1.2471 -4.0843  2.7388
15323SOL    HW251290   8.982   2.133   0.414  0.4064  0.0108  0.4798
15324SOL     OW51291   4.833   9.181   8.816 -0.8059 -0.2612 -0.1121
15324SOL    HW151292   4.771   9.186   8.743  0.5049  0.0393 -1.2331
15324SOL    HW251293   4.789   9.125   8.880 -2.4129  0.2698 -0.6819
15325SOL     OW51294   8.864   3.774   7.158  0.1645  0.2070  0.0735
15325SOL    HW151295   8.773   3.746   7.166  0.1463  0.4493  0.8121
15325SOL    HW251296   8.889   3.801   7.247  1.5730 -1.7334  0.3163
15326SOL     OW51297   5.050   3.235   0.723  0.1421  0.3663 -0.0259
15326SOL    HW151298   5.014   3.252   0.636 -0.2803 -0.8617 -0.1124
15326SOL    HW251299   5.140   3.205   0.707 -0.3281 -1.0623 -0.1589
15327SOL     OW51300   7.368   4.021   9.182 -0.3708 -0.5971 -0.1942
15327SOL    HW151301   7.392   4.070   9.104  2.2022  1.7165  1.8782
15327SOL    HW251302   7.431   3.949   9.186  1.8645  1.3153  1.4514
15328SOL     OW51303  11.779   7.111   8.231 -0.5232 -0.1783 -0.1643
15328SOL    HW151304  11.860   7.075   8.267 -0.3480 -1.0077 -1.3268
15328SOL    HW251305  11.795   7.115   8.137 -1.4735  0.6133 -0.3008
15329SOL     OW51306   1.841   6.206   0.086 -0.2011 -0.2891  0.6294
15329SOL    HW151307   1.879   6.176   0.168  0.5038 -0.3211  0.3048
15329SOL    HW251308   1.915   6.208   0.025 -0.7473 -0.4345 -0.0495
15330SOL     OW51309  11.117   7.678   0.195  0.1438 -0.3294 -0.0774
15330SOL    HW151310  11.161   7.725   0.266  0.7686 -0.2984 -0.4798
15330SOL    HW251311  11.142   7.726   0.116 -1.1931  0.1263 -0.2523
15331SOL     OW51312   5.682   0.126  10.822 -0.4369  0.0725 -0.6584
15331SOL    HW151313   5.599   0.151  10.781 -0.0772  1.0223 -0.8260
15331SOL    HW251314   5.721   0.064  10.760 -0.8273 -0.0594 -0.7767
15332SOL     OW51315   5.658   1.861   5.704  0.4194  0.0811 -0.4772
15332SOL    HW151316   5.731   1.838   5.761  1.2377  0.2211 -1.4546
15332SOL    HW251317   5.612   1.778   5.689  1.0319 -0.2048 -0.7686
15333SOL     OW51318   4.087  10.646   3.465  0.5259 -0.4207 -0.5728
15333SOL    HW151319   4.065  10.558   3.496 -0.2043 -0.4405 -1.1056
15333SOL    HW251320   4.172  10.635   3.423  0.1201 -1.0334 -1.2644
15334SOL     OW51321   2.497  11.496   5.858 -0.1031  0.3596 -0.3566
15334SOL    HW151322   2.587  11.469   5.841  0.1420  1.2669 -0.5355
15334SOL    HW251323   2.500  11.535   5.945  0.1467  2.4158 -1.2472
15335SOL     OW51324   9.210   0.042   4.331  0.0362  0.6869 -0.1981
15335SOL    HW151325   9.294   0.035   4.287  1.7230  2.9788  2.3548
15335SOL    HW251326   9.212  -0.027   4.398 -0.0380  0.8844  0.0083
15336SOL     OW51327   8.829   8.212   5.953 -0.2428 -0.7462 -0.0697
15336SOL    HW151328   8.848   8.265   6.030 -2.4970 -1.1066  0.8413
15336SOL    HW251329   8.902   8.150   5.947  1.7305  1.4745 -0.3465
15337SOL     OW51330   0.732   5.681   1.567  0.0669 -0.0185 -0.1032
15337SOL    HW151331   0.724   5.690   1.662 -1.1944  0.4620 -0.2367
15337SOL    HW251332   0.762   5.767   1.537  0.2813 -0.1125 -0.1618
15338SOL     OW51333   3.347   7.521   7.189 -0.8931  0.0794  0.4485
15338SOL    HW151334   3.372   7.512   7.097 -0.6651  1.2067  0.3794
15338SOL    HW251335   3.371   7.437   7.229 -1.5849 -0.6526 -0.6379
15339SOL     OW51336   3.742   1.766   2.403 -0.2260  0.5249 -0.5524
15339SOL    HW151337   3.740   1.860   2.421 -1.1548  0.6906 -1.4353
15339SOL    HW251338   3.660   1.748   2.357 -0.0702 -0.7271 -0.3974
15340SOL     OW51339   6.347   8.452   0.166 -0.2149 -0.0048  0.3434
15340SOL    HW151340   6.421   8.416   0.117 -0.8084 -0.9324  0.1088
15340SOL    HW251341   6.369   8.544   0.177  1.8756 -0.6094  1.9082
15341SOL     OW51342   6.973   5.675   8.206  0.6368  0.0494  0.2254
15341SOL    HW151343   6.985   5.601   8.147  1.3102 -0.7341  1.2963
15341SOL    HW251344   7.061   5.695   8.237  0.2366  0.0656  1.3978
15342SOL     OW51345   4.232   1.874   6.837 -0.2707 -0.1111  0.4490
15342SOL    HW151346   4.301   1.812   6.814  0.2752  0.3380  0.8448
15342SOL    HW251347   4.244   1.889   6.931 -0.7093  0.2111  0.4590
15343SOL     OW51348   8.725   7.836   2.738  0.0740 -0.2894  0.1724
15343SOL    HW151349   8.738   7.797   2.825 -0.0582 -2.3870 -0.6989
15343SOL    HW251350   8.639   7.879   2.744  1.1797  1.9407  1.8283
15344SOL     OW51351   5.683   5.379   6.999  0.1001  0.2398  0.1726
15344SOL    HW151352   5.630   5.300   7.006 -0.5959  0.7779  1.1753
15344SOL    HW251353   5.699   5.389   6.905 -1.1169 -0.2296 -0.1006
15345SOL     OW51354   9.932   8.696   1.153  0.0265  0.0594 -0.4550
15345SOL    HW151355   9.846   8.711   1.194 -0.2824  1.1053 -1.4358
15345SOL    HW251356   9.913   8.691   1.059  1.0809  0.6072 -0.7096
15346SOL     OW51357   4.169   5.568  11.502 -0.4034  0.5103  0.2182
15346SOL    HW151358   4.224   5.635  11.461  0.9666  0.5984  2.0322
15346SOL    HW251359   4.089   5.568  11.451  0.2967  2.2178 -0.9877
15347SOL     OW51360   4.238   5.724  10.021 -0.2051  0.7323  0.4527
15347SOL    HW151361   4.260   5.701   9.931 -1.5097  2.0379 -0.2379
15347SOL    HW251362   4.302   5.790  10.046  1.5427 -1.1691  1.3205
15348SOL     OW51363   9.828   4.817   9.370  0.2379  0.2991 -0.5030
15348SOL    HW151364   9.924   4.819   9.363  0.3234 -0.8374  0.0073
15348SOL    HW251365   9.811   4.743   9.429 -0.8824  1.7760  1.0927
15349SOL     OW51366   6.394   9.919   4.670  0.8156 -0.0394 -0.2563
15349SOL    HW151367   6.440   9.874   4.599  1.1439 -1.5287  0.8550
15349SOL    HW251368   6.439  10.003   4.677  0.7314  0.1731 -1.8337
15350SOL     OW51369   8.383   5.908   2.915 -0.0553  0.2139 -0.5405
15350SOL    HW151370   8.402   5.817   2.936 -0.6665 -0.0285 -1.0001
15350SOL    HW251371   8.404   5.916   2.822 -0.6963  0.3374 -0.6854
15351SOL     OW51372  11.124   3.197   9.493 -0.3992 -0.2684  0.1161
15351SOL    HW151373  11.156   3.287   9.505  0.2213 -0.3192 -1.0506
15351SOL    HW251374  11.204   3.145   9.486 -0.7586 -0.7342 -0.4967
15352SOL     OW51375   1.406  10.450   9.190 -0.6206 -0.1285  0.2959
15352SOL    HW151376   1.469  10.448   9.262 -0.1756 -0.6529 -0.1066
15352SOL    HW251377   1.458  10.468   9.112 -0.9188 -0.8596 -0.0790
15353SOL     OW51378   9.565   8.989   2.913 -0.8043  0.0783 -0.3339
15353SOL    HW151379   9.657   8.966   2.908 -1.0523 -0.8863 -0.5801
15353SOL    HW251380   9.560   9.056   2.982  0.1283  0.4423 -0.6145
15354SOL     OW51381   9.594  10.215  11.735  0.1403  0.1926  0.1906
15354SOL    HW151382   9.609  10.201  11.829  0.6941 -0.4729  0.0119
15354SOL    HW251383   9.681  10.206  11.696 -0.2212 -0.4547 -0.4904
15355SOL     OW51384   2.854   5.472   3.237 -0.0949 -0.5046 -0.4482
15355SOL    HW151385   2.851   5.385   3.198  0.5334 -0.6152 -0.2655
15355SOL    HW251386   2.769   5.511   3.217 -0.7668 -1.5246  0.3222
15356SOL     OW51387  10.719  10.448   9.150 -0.1296 -0.1523 -0.0358
15356SOL    HW151388  10.722  10.359   9.188  1.8710 -0.1513 -0.0930
15356SOL    HW251389  10.810  10.478   9.152 -0.7177  1.7888 -0.3357
15357SOL     OW51390   6.694   3.918   1.271  0.3822 -0.1291 -0.0793
15357SOL    HW151391   6.712   3.841   1.217  1.1870 -0.1133  0.1457
15357SOL    HW251392   6.600   3.915   1.287  0.2012 -0.3554 -1.1290
15358SOL     OW51393   8.359  11.301   7.430 -0.0165  0.1935 -0.3373
15358SOL    HW151394   8.266  11.288   7.450  0.1331  0.5412  0.6678
15358SOL    HW251395   8.383  11.227   7.375  0.2495 -2.7153  3.2686
15359SOL     OW51396  11.649   0.020  11.221 -0.3896 -0.1795  0.2689
15359SOL    HW151397  11.629   0.033  11.128 -0.9140  3.3271  0.7612
15359SOL    HW251398  11.564   0.004  11.261 -0.3805  0.0796  0.3912
15360SOL     OW51399   8.336   7.934   9.796  0.1511  0.0744  0.5310
15360SOL    HW151400   8.350   7.893   9.882 -0.0624  0.9807  1.0070
15360SOL    HW251401   8.267   7.998   9.811  0.1785  0.3121 -0.3048
15361SOL     OW51402   1.371   2.695   0.015 -0.4902 -0.0227 -0.6635
15361SOL    HW151403   1.310   2.624   0.034 -0.5783 -0.0969 -1.1921
15361SOL    HW251404   1.377   2.696  -0.081  0.3858 -0.0571 -0.6174
15362SOL     OW51405   4.031  11.649   8.822  0.3113 -0.1196  0.0908
15362SOL    HW151406   4.025  11.741   8.798  1.5639 -0.2923 -0.9686
15362SOL    HW251407   4.052  11.650   8.916 -1.5927  0.6003  0.5710
15363SOL     OW51408   1.534   6.120   9.550  0.5488 -0.0745 -0.2961
15363SOL    HW151409   1.525   6.026   9.536 -1.9334 -0.3281  2.0673
15363SOL    HW251410   1.588   6.127   9.629  1.3303  0.5448 -0.8741
15364SOL     OW51411   4.920   6.189   9.980 -0.2710 -0.6584 -0.1080
15364SOL    HW151412   4.847   6.188   9.919  0.0825  2.2047 -0.7272
15364SOL    HW251413   4.974   6.263   9.952  0.3226  0.3300  3.1940
15365SOL     OW51414   1.246   8.501   6.650 -0.3145 -0.3032  0.6188
15365SOL    HW151415   1.291   8.526   6.569 -2.3129  0.5150 -0.3134
15365SOL    HW251416   1.250   8.581   6.704 -3.1317  0.8604 -0.6982
15366SOL     OW51417   9.072   1.119   6.908  0.5462  0.4488  0.9348
15366SOL    HW151418   9.110   1.198   6.947 -0.8036  0.9261  1.3271
15366SOL    HW251419   8.993   1.149   6.863  0.9095 -0.4333 -0.3530
15367SOL     OW51420   5.991   9.204   0.405  0.0407  0.2896 -0.1268
15367SOL    HW151421   6.037   9.149   0.468  1.2370  1.5149  0.1118
15367SOL    HW251422   6.019   9.171   0.319 -1.2675 -1.1072 -0.0594
15368SOL     OW51423  10.186   3.348   3.314  0.5161 -0.6843  0.1366
15368SOL    HW151424  10.159   3.408   3.384 -2.4686 -0.2373 -1.2588
15368SOL    HW251425  10.143   3.265   3.336  1.0078 -1.0413 -0.2371
15369SOL     OW51426   9.848   9.022   4.754 -0.1220 -0.2913 -0.3459
15369SOL    HW151427   9.907   8.960   4.711  0.0677 -0.3728  0.0365
15369SOL    HW251428   9.904   9.097   4.775 -0.0494 -0.5582  0.4360
15370SOL     OW51429   1.716   6.536   6.504  0.0975 -0.1627  0.1988
15370SOL    HW151430   1.636   6.529   6.556 -0.4881 -0.8114 -0.7559
15370SOL    HW251431   1.787   6.527   6.568 -0.5878 -0.2876  0.9639
15371SOL     OW51432   7.554   5.795  11.816 -0.2197 -0.2691 -0.0412
15371SOL    HW151433   7.489   5.826  11.753  0.0524  2.3224  0.8323
15371SOL    HW251434   7.638   5.807  11.771 -0.1687 -0.9262 -0.1299
15372SOL     OW51435   1.915   2.863  10.632  0.6161  0.2441 -0.2650
15372SOL    HW151436   2.000   2.821  10.647  0.1193 -1.1158 -1.1006
15372SOL    HW251437   1.897   2.908  10.714  1.4286 -0.7475  0.5004
15373SOL     OW51438   9.949   8.109   4.894 -0.0898 -0.1871 -0.2301
15373SOL    HW151439  10.032   8.086   4.851 -0.2214 -0.4709 -0.3317
15373SOL    HW251440   9.900   8.027   4.898 -0.3808 -0.0135 -0.1988
15374SOL     OW51441   0.850   5.532   1.808  0.3292  0.1386 -0.0376
15374SOL    HW151442   0.813   5.503   1.891  1.4351  0.9807  0.7817
15374SOL    HW251443   0.805   5.479   1.742  0.1818 -1.3002  1.1595
15375SOL     OW51444  10.210   9.336   4.866  0.7921  0.2613  0.1968
15375SOL    HW151445  10.204   9.404   4.799 -0.3031  0.9432  0.9567
15375SOL    HW251446  10.130   9.284   4.854  0.6953  0.2594  0.8119
15376SOL     OW51447   2.431   9.553   2.922 -0.3603  0.8650  0.4728
15376SOL    HW151448   2.413   9.506   3.004 -1.9708  1.3890  0.4667
15376SOL    HW251449   2.382   9.635   2.932 -1.8736  0.2953 -1.6129
15377SOL     OW51450   9.476   3.954   4.284  0.2601  0.3585  0.5083
15377SOL    HW151451   9.477   3.923   4.374 -0.0756  0.1339  0.4370
15377SOL    HW251452   9.388   3.989   4.271  0.1987  0.0850  0.1666
15378SOL     OW51453   7.092   2.106   1.113  0.1979  0.1417  0.0161
15378SOL    HW151454   7.184   2.084   1.099  0.2788  0.3144  0.2634
15378SOL    HW251455   7.044   2.033   1.076  0.4678 -0.8123  1.4662
15379SOL     OW51456   3.636   0.374   2.917  0.5853 -0.2265  0.2470
15379SOL    HW151457   3.574   0.324   2.971  1.8415 -0.4916  1.4967
15379SOL    HW251458   3.599   0.370   2.829 -0.4146 -1.6084  0.6948
15380SOL     OW51459   3.288   3.273   8.064  0.0517 -0.0911 -0.1218
15380SOL    HW151460   3.257   3.216   7.994 -1.1678  1.0257 -0.5420
15380SOL    HW251461   3.258   3.360   8.039 -1.8256  0.1714  2.5004
15381SOL     OW51462   2.630   7.637   4.559  0.3516 -1.0381 -0.1392
15381SOL    HW151463   2.606   7.561   4.506  1.2698 -2.1066  0.9231
15381SOL    HW251464   2.548   7.666   4.597 -0.1003 -1.1228 -1.0085
15382SOL     OW51465   7.374   1.381   5.428  0.5538  0.0454 -0.3307
15382SOL    HW151466   7.440   1.449   5.444 -0.3939  1.1423 -0.9443
15382SOL    HW251467   7.339   1.360   5.514  1.5750 -0.4270 -0.0179
15383SOL     OW51468   8.760  11.370  11.090  0.8288  0.3466  0.4164
15383SOL    HW151469   8.715  11.445  11.051  0.1419 -0.7156 -0.9005
15383SOL    HW251470   8.846  11.370  11.049  0.9058  0.5305  0.5750
15384SOL     OW51471   6.984   2.703   3.003  0.0120  0.4505 -0.7797
15384SOL    HW151472   7.022   2.758   2.934 -2.5223  2.0976 -1.0024
15384SOL    HW251473   7.031   2.728   3.082  1.1617  0.4811 -1.4500
15385SOL     OW51474   8.043   1.304   3.845  0.4548  0.6976  0.2572
15385SOL    HW151475   8.071   1.214   3.862 -0.8779  0.4137  1.1212
15385SOL    HW251476   8.020   1.305   3.752  0.7104  0.2247  0.1855
15386SOL     OW51477   8.937   3.910  10.197 -0.1284 -0.1852  0.4358
15386SOL    HW151478   8.967   3.999  10.214 -2.3049  1.1371 -1.9848
15386SOL    HW251479   8.861   3.920  10.140  1.5552 -3.7112 -2.8967
15387SOL     OW51480   6.153   5.098   4.909 -0.3118 -0.3034 -0.2931
15387SOL    HW151481   6.115   5.031   4.966  0.6306 -1.2283 -0.7077
15387SOL    HW251482   6.146   5.061   4.821 -1.5116  0.9897 -0.7685
15388SOL     OW51483   8.596  10.272   1.800  0.3080 -0.3167 -0.0559
15388SOL    HW151484   8.540  10.276   1.878  1.5808  2.2571  0.8522
15388SOL    HW251485   8.538  10.295   1.728 -0.8218 -2.4156  0.0898
15389SOL     OW51486   6.839  11.038   5.012 -0.0485  0.1762  0.1199
15389SOL    HW151487   6.799  11.037   4.925  0.2731  0.4464 -0.0321
15389SOL    HW251488   6.915  11.095   5.003 -1.4366  2.3402  1.2030
15390SOL     OW51489   4.525  10.298   5.534 -0.1843 -0.2090  0.5661
15390SOL    HW151490   4.602  10.241   5.527  0.4300  0.6672 -0.0826
15390SOL    HW251491   4.539  10.347   5.614 -0.5850 -0.7735  0.9882
15391SOL     OW51492   1.850   6.047   9.330 -0.1445  0.1625 -0.4046
15391SOL    HW151493   1.787   5.983   9.297  1.3828 -1.7742  0.2549
15391SOL    HW251494   1.917   6.053   9.261  0.4340 -0.0336  0.1317
15392SOL     OW51495   0.186  11.681   3.510 -0.2655  0.2309 -0.0335
15392SOL    HW151496   0.149  11.660   3.425  0.9581  0.2053 -0.5825
15392SOL    HW251497   0.248  11.609   3.528 -0.5307  0.2165  0.8890
15393SOL     OW51498  11.572  10.914   4.309 -0.0031  0.1416 -0.1259
15393SOL    HW151499  11.543  10.966   4.234 -0.5545 -0.2358 -0.1781
15393SOL    HW251500  11.648  10.962   4.343 -0.7027  1.1651  0.0337
15394SOL     OW51501   9.994   2.883   1.205 -0.3348  0.6944  0.5286
15394SOL    HW151502   9.955   2.916   1.124  1.7329 -0.2412 -0.9444
15394SOL    HW251503  10.049   2.955   1.236  0.8246  0.2075 -0.3240
15395SOL     OW51504   3.722   3.540   7.156 -0.0942 -0.7715  0.6531
15395SOL    HW151505   3.735   3.536   7.061 -0.4555  1.0254  0.4747
15395SOL    HW251506   3.733   3.450   7.186 -2.3958 -1.8915 -1.4202
15396SOL     OW51507   8.290   3.069   8.757 -0.1220  0.0655 -0.4877
15396SOL    HW151508   8.215   3.125   8.736 -0.0707 -0.0324 -0.9430
15396SOL    HW251509   8.260   2.980   8.739 -0.1666 -0.0474  0.1307
15397SOL     OW51510   4.116   9.356   1.487 -0.3575  0.2055  0.1325
15397SOL    HW151511   4.124   9.386   1.578 -2.4224 -0.4854  0.5994
15397SOL    HW251512   4.024   9.369   1.465 -0.4494 -1.8713 -1.0218
15398SOL     OW51513   2.786  11.712   3.285  0.0313  0.0515 -0.2829
15398SOL    HW151514   2.853  11.715   3.354  0.3966  0.7784 -0.6645
15398SOL    HW251515   2.705  11.690   3.331  0.9004 -3.2858 -0.0960
15399SOL     OW51516   4.572  10.802   6.682 -0.1475 -0.4346  0.1669
15399SOL    HW151517   4.521  10.877   6.650 -2.4052 -1.4750  1.1461
15399SOL    HW251518   4.663  10.833   6.679 -0.6831  1.2804 -2.2980
15400SOL     OW51519   3.384  11.336   5.958  0.0734 -0.2719  0.1551
15400SOL    HW151520   3.361  11.283   5.882 -1.7127 -2.8760  2.2768
15400SOL    HW251521   3.305  11.335   6.012  0.5785  3.1905  1.1836
15401SOL     OW51522   6.870   9.163   7.280  0.1999  0.0835 -0.3104
15401SOL    HW151523   6.798   9.225   7.265  1.3732  1.3869 -0.8284
15401SOL    HW251524   6.864   9.102   7.207  0.5292  1.1244 -1.2482
15402SOL     OW51525   1.848   7.001   6.781 -0.2929 -0.0550 -0.1560
15402SOL    HW151526   1.774   7.033   6.730 -0.4682  0.7456  0.5712
15402SOL    HW251527   1.819   6.916   6.813 -1.9467  1.2322  2.1145
15403SOL     OW51528   6.926  10.758  10.251 -0.5643  0.2398 -0.0496
15403SOL    HW151529   6.934  10.853  10.248  1.2652  0.1135 -0.3606
15403SOL    HW251530   6.966  10.728  10.169 -1.2672 -0.8045 -0.0409
15404SOL     OW51531   4.383   4.780   1.028  0.1906 -0.3616 -0.6910
15404SOL    HW151532   4.347   4.847   1.086  0.4998 -1.3078  0.6496
15404SOL    HW251533   4.425   4.829   0.958  0.2099  0.8416  0.1280
15405SOL     OW51534  11.116   6.809  11.179  0.3480 -0.3387 -0.0097
15405SOL    HW151535  11.210   6.828  11.179  0.4573 -0.8366 -0.5468
15405SOL    HW251536  11.076   6.887  11.216  0.7159  1.3712 -2.8791
15406SOL     OW51537   1.358  10.756   5.586  0.0987 -0.1537 -0.6969
15406SOL    HW151538   1.438  10.724   5.544 -0.5438 -0.7545 -1.5097
15406SOL    HW251539   1.292  10.689   5.565 -0.2107 -0.5849  1.4577
15407SOL     OW51540   9.092   7.015   6.430 -0.7353 -0.0278  0.6236
15407SOL    HW151541   9.078   7.107   6.406 -1.5223 -0.0064  1.1390
15407SOL    HW251542   9.170   6.990   6.380 -2.4344 -0.0753 -2.2553
15408SOL     OW51543   0.397   9.828   5.836  0.0990  0.6943 -0.7125
15408SOL    HW151544   0.415   9.737   5.858 -0.0156  1.0945  1.1819
15408SOL    HW251545   0.483   9.864   5.812  0.8646  0.9651  2.0836
15409SOL     OW51546   3.334   5.518   6.138 -0.1823 -0.1867 -0.7186
15409SOL    HW151547   3.392   5.489   6.068 -1.1918 -2.8324 -0.5551
15409SOL    HW251548   3.385   5.507   6.218  0.3612  1.1626 -0.8543
15410SOL     OW51549   7.469  10.659   6.563 -0.2868  0.6184 -0.4741
15410SOL    HW151550   7.406  10.641   6.632  1.1783 -1.6554  0.3760
15410SOL    HW251551   7.425  10.632   6.482 -1.2258  1.2822 -0.1948
15411SOL     OW51552  10.231   5.939  11.334  0.5271  0.7312  0.0314
15411SOL    HW151553  10.185   6.014  11.296  2.3958  1.9804  0.0848
15411SOL    HW251554  10.309   5.978  11.375 -0.2270 -0.8159  3.1928
15412SOL     OW51555   8.172   0.670  10.799  0.4158  0.2011  0.5525
15412SOL    HW151556   8.165   0.606  10.870 -0.6386  0.3153  0.5684
15412SOL    HW251557   8.089   0.662  10.752  1.1669  0.0080 -0.7812
15413SOL     OW51558  10.157   1.089   4.700  0.3650 -0.9295  0.0910
15413SOL    HW151559  10.081   1.076   4.756  0.0372 -0.8329 -0.3307
15413SOL    HW251560  10.179   1.001   4.668 -1.5914 -0.6046 -2.4171
15414SOL     OW51561   3.472   4.547   4.499 -0.0189 -0.2532 -0.0637
15414SOL    HW151562   3.485   4.612   4.568  1.1034  0.8790 -1.3019
15414SOL    HW251563   3.560   4.526   4.468 -0.5235 -0.3347 -1.5239
15415SOL     OW51564   8.012   3.624   7.017  0.5511  0.0575  0.2928
15415SOL    HW151565   7.979   3.665   6.937  0.2580 -1.7751 -0.5543
15415SOL    HW251566   8.106   3.644   7.017  0.5296  0.1819 -0.4239
15416SOL     OW51567   8.729   4.489   8.367  0.1359 -0.1151 -0.2091
15416SOL    HW151568   8.766   4.414   8.320  0.5586 -0.4543  0.6444
15416SOL    HW251569   8.804   4.545   8.386  0.0318 -0.1981  0.4505
15417SOL     OW51570   8.793   1.210  10.767 -0.4891 -0.2077  0.4966
15417SOL    HW151571   8.723   1.273  10.780 -1.2883 -0.6675 -1.3288
15417SOL    HW251572   8.750   1.124  10.771  0.3218 -0.6052  1.3443
15418SOL     OW51573   6.479   8.672  10.837  0.4175  0.4960  0.4507
15418SOL    HW151574   6.540   8.729  10.884  0.8339  0.5443 -0.1352
15418SOL    HW251575   6.530   8.594  10.816 -0.3461 -0.4241  1.8619
15419SOL     OW51576   8.450   3.368   2.035  0.1907  0.1200 -0.8269
15419SOL    HW151577   8.429   3.435   2.099 -2.9556  0.5163 -2.0495
15419SOL    HW251578   8.541   3.384   2.011  0.0062  2.9806  0.0167
15420SOL     OW51579   4.975   1.430   1.325  0.4283 -0.1287 -0.6427
15420SOL    HW151580   4.979   1.341   1.361  1.7972 -0.5458 -1.7707
15420SOL    HW251581   4.882   1.443   1.304  0.4625 -2.0242 -2.2133
15421SOL     OW51582   5.330   2.695   0.034  0.2976 -0.3545  0.0574
15421SOL    HW151583   5.279   2.692  -0.047  1.9437  0.0125 -1.0682
15421SOL    HW251584   5.307   2.779   0.074  1.3161  0.6560 -1.3760
15422SOL     OW51585   8.107  10.108  10.901  0.6378  0.1373 -0.4086
15422SOL    HW151586   8.067  10.022  10.903  1.6435 -0.3291  1.4695
15422SOL    HW251587   8.199  10.091  10.878  0.8593  0.7054  0.0372
15423SOL     OW51588  11.400   4.719   6.755  0.4789 -0.3886 -0.2695
15423SOL    HW151589  11.368   4.635   6.788 -0.1555 -0.9750 -2.2704
15423SOL    HW251590  11.372   4.783   6.821  3.1656 -1.9251  2.6601
15424SOL     OW51591   0.551  10.826   7.444 -0.2030 -0.1656  0.3092
15424SOL    HW151592   0.641  10.858   7.454 -0.2030 -0.0780  0.0254
15424SOL    HW251593   0.509  10.889   7.386 -0.4617 -0.1852  0.4740
15425SOL     OW51594   6.683   5.785   2.960 -0.6908 -0.2827  0.1236
15425SOL    HW151595   6.687   5.729   3.038 -0.0636 -0.3640  0.0437
15425SOL    HW251596   6.703   5.727   2.887  0.4758  0.1242  0.0912
15426SOL     OW51597   2.396  10.553  10.300  0.0478  0.9788 -0.4352
15426SOL    HW151598   2.339  10.563  10.377 -0.8399  3.4006 -1.3009
15426SOL    HW251599   2.381  10.633  10.249  1.1892 -0.1960 -2.7572
15427SOL     OW51600   6.366  10.288   5.324 -0.1876 -0.1246  0.7254
15427SOL    HW151601   6.303  10.221   5.299 -1.0723  0.2522  1.8638
15427SOL    HW251602   6.442  10.239   5.356 -0.4178 -0.5804  0.5797
15428SOL     OW51603   3.781   3.250   7.226 -0.1637 -0.3536  0.2150
15428SOL    HW151604   3.851   3.209   7.175 -0.1583  0.1078 -0.1631
15428SOL    HW251605   3.802   3.231   7.317  0.2807 -0.4891  0.0837
15429SOL     OW51606   2.853   6.489   6.835  0.1627  0.4228  0.1818
15429SOL    HW151607   2.824   6.419   6.777 -1.3490 -0.8190  2.2613
15429SOL    HW251608   2.852   6.568   6.781 -0.7330 -0.7082 -1.5457
15430SOL     OW51609  11.802   2.207   2.764  0.7211  0.2120  0.2794
15430SOL    HW151610  11.829   2.160   2.685  0.1932  1.5561 -0.7206
15430SOL    HW251611  11.706   2.209   2.760  0.7285  1.1078  0.4731
15431SOL     OW51612  11.002   0.833   9.308 -0.0507  0.8084 -0.7341
15431SOL    HW151613  10.997   0.788   9.224 -0.3713  1.5860 -1.1430
15431SOL    HW251614  10.923   0.807   9.354 -0.1441  0.8020 -0.8966
15432SOL     OW51615   5.985   0.602   8.912  0.1680  0.0217  0.3416
15432SOL    HW151616   5.911   0.550   8.880 -0.8368  0.0602  2.4560
15432SOL    HW251617   5.992   0.674   8.849 -0.7691 -0.6676 -0.5895
15433SOL     OW51618   3.940   0.366   1.222 -0.5063 -0.5381  0.0950
15433SOL    HW151619   3.890   0.444   1.247  0.1530 -0.4140  1.0777
15433SOL    HW251620   3.886   0.324   1.155 -0.4955  1.1900 -1.0836
15434SOL     OW51621   7.894   8.922  11.465  0.9513  0.0722  0.0806
15434SOL    HW151622   7.985   8.895  11.478  0.7359 -1.1411 -0.8782
15434SOL    HW251623   7.895   8.970  11.383  0.4041 -1.6648 -0.9845
15435SOL     OW51624   6.987   4.335  11.315 -0.2819 -0.0616 -0.5052
15435SOL    HW151625   6.992   4.280  11.237  1.7372 -1.2147  0.3738
15435SOL    HW251626   6.920   4.293  11.369 -0.9346  0.1397 -1.1388
15436SOL     OW51627   2.119   8.440   7.906  0.0112 -0.1717 -0.2373
15436SOL    HW151628   2.172   8.499   7.853 -1.1711  1.3365  0.1850
15436SOL    HW251629   2.120   8.478   7.994  1.2410 -2.1716  0.6818
15437SOL     OW51630   7.144   8.768  11.478  0.3841 -0.2340  0.9582
15437SOL    HW151631   7.144   8.840  11.415  1.2724 -0.4723  0.6695
15437SOL    HW251632   7.121   8.809  11.562 -1.9014 -0.0988  0.3141
15438SOL     OW51633   2.161   3.622   8.148  0.1236 -0.0005 -0.3696
15438SOL    HW151634   2.128   3.686   8.210  1.5823 -0.3469  0.8205
15438SOL    HW251635   2.237   3.664   8.108  0.8926 -0.8319  0.1814
15439SOL     OW51636   6.367   5.334   4.321  0.4278 -0.5211 -0.0939
15439SOL    HW151637   6.462   5.343   4.327  0.2618  0.7409  1.3095
15439SOL    HW251638   6.333   5.417   4.355 -1.1813 -0.9103 -0.6716
15440SOL     OW51639   5.689   6.606   3.757  0.1215  0.0089 -0.1148
15440SOL    HW151640   5.679   6.530   3.701 -0.3854  0.1949 -0.2783
15440SOL    HW251641   5.658   6.577   3.843  1.0232 -0.3166  0.1153
15441SOL     OW51642   3.884   9.929   2.035 -0.1448  0.7211  0.0670
15441SOL    HW151643   3.969   9.973   2.041 -0.1833  1.2537 -2.1976
15441SOL    HW251644   3.821  10.001   2.028 -0.5206  0.3242 -0.6990
15442SOL     OW51645   9.390   8.526   0.777  0.2436  0.4163 -0.5867
15442SOL    HW151646   9.461   8.551   0.717  0.4975  0.6430 -0.2001
15442SOL    HW251647   9.429   8.534   0.864 -0.2805  0.6053 -0.3654
15443SOL     OW51648   5.682   2.649   3.403 -0.0755  0.3598 -0.2494
15443SOL    HW151649   5.738   2.611   3.335 -0.2876  0.7260 -0.6341
15443SOL    HW251650   5.734   2.720   3.440  0.9078 -1.1834  1.4751
15444SOL     OW51651   6.665  11.473   3.315  0.2461  0.3778 -0.0658
15444SOL    HW151652   6.716  11.431   3.384 -1.9852 -1.4713  0.6028
15444SOL    HW251653   6.609  11.535   3.361 -0.9662 -0.5758 -0.1920
15445SOL     OW51654  10.129   3.407   8.106  0.1427 -0.0344  0.5290
15445SOL    HW151655  10.192   3.341   8.075  1.2985  0.2076  2.2341
15445SOL    HW251656  10.115   3.464   8.030  0.9735 -0.8529 -0.2651
15446SOL     OW51657   1.546  10.038   7.022 -0.5195 -0.2721  0.4274
15446SOL    HW151658   1.517  10.111   7.077 -2.5816 -0.6792 -0.0341
15446SOL    HW251659   1.522   9.960   7.071 -0.7123 -0.6361 -0.2295
15447SOL     OW51660   3.078   5.506   2.738  0.2383 -0.0499 -0.1495
15447SOL    HW151661   3.078   5.410   2.735 -1.5712 -0.1759  1.7108
15447SOL    HW251662   3.170   5.529   2.748  0.5888 -1.7197  1.0652
15448SOL     OW51663   6.950   8.806   7.918 -0.0819  0.6471  0.0129
15448SOL    HW151664   7.018   8.739   7.907 -0.0006  0.3467  1.9929
15448SOL    HW251665   6.995   8.889   7.903  0.7143  0.4412  1.1587
15449SOL     OW51666   3.818   0.192   9.805 -0.0732  0.3189  0.5024
15449SOL    HW151667   3.887   0.181   9.739  1.1578  0.9991  1.6224
15449SOL    HW251668   3.758   0.256   9.766  1.1127  1.3999  0.3820
15450SOL     OW51669   7.232   9.808   4.192  0.6462 -0.6308  0.2925
15450SOL    HW151670   7.266   9.880   4.138 -0.8335  0.6554  0.9783
15450SOL    HW251671   7.243   9.730   4.138  1.7629  0.1841 -0.7243
15451SOL     OW51672  11.708   8.529   0.849 -0.3545 -0.4139  0.1895
15451SOL    HW151673  11.613   8.524   0.857 -0.3480 -0.4841  0.2235
15451SOL    HW251674  11.724   8.524   0.754 -0.3851 -0.3745  0.1819
15452SOL     OW51675   9.861   1.597   5.838  0.0856 -0.3450  0.5105
15452SOL    HW151676   9.906   1.559   5.762  2.1357  0.4474  1.2355
15452SOL    HW251677   9.884   1.538   5.910 -0.1715 -0.0071  0.8667
15453SOL     OW51678   0.766   7.904   1.247 -0.1367  0.8078 -0.4475
15453SOL    HW151679   0.761   7.852   1.167 -0.1318  0.9992 -0.5715
15453SOL    HW251680   0.791   7.992   1.218 -0.3278  0.9279 -0.2555
15454SOL     OW51681   9.602   3.478   1.113  0.4600 -0.1600  0.4175
15454SOL    HW151682   9.591   3.494   1.019  1.7862  1.0826  0.4310
15454SOL    HW251683   9.528   3.423   1.137  0.0373 -0.4174 -1.3354
15455SOL     OW51684  11.360   8.817   0.308  0.2456  0.7643  0.0792
15455SOL    HW151685  11.353   8.862   0.223 -0.0788  0.0163 -0.2963
15455SOL    HW251686  11.298   8.863   0.365 -0.9056  0.1138 -0.6140
15456SOL     OW51687   2.245   0.190   5.937 -0.1789  0.4027  0.1083
15456SOL    HW151688   2.161   0.233   5.953 -0.0651  0.1887  1.4026
15456SOL    HW251689   2.310   0.247   5.977  0.4480  1.0882 -1.7682
15457SOL     OW51690   0.666   7.721   9.645  0.2204  0.0291  0.5036
15457SOL    HW151691   0.610   7.704   9.721  0.9514  1.3850  1.3768
15457SOL    HW251692   0.644   7.810   9.619 -0.0756 -0.4477 -0.9547
15458SOL     OW51693  11.598   9.884   1.112  0.2460 -0.4842  0.5735
15458SOL    HW151694  11.621   9.795   1.085  1.5349  0.3049 -1.1545
15458SOL    HW251695  11.681   9.933   1.106 -0.3502  0.7539  1.8537
15459SOL     OW51696  11.821   1.148   6.327  0.6106 -0.0569 -0.1814
15459SOL    HW151697  11.784   1.234   6.344  0.8989  0.1550 -0.6197
15459SOL    HW251698  11.757   1.087   6.364  0.9290  0.3603  1.1111
15460SOL     OW51699   0.919   1.368   6.351  0.3313 -0.7155  0.3200
15460SOL    HW151700   0.834   1.381   6.309  0.1187 -0.9526  0.6780
15460SOL    HW251701   0.906   1.294   6.410  1.1297 -1.6425 -0.6067
15461SOL     OW51702   0.019  10.549   6.873 -0.4396 -0.9697  0.1048
15461SOL    HW151703   0.013  10.576   6.781 -1.0473 -0.4596  0.2851
15461SOL    HW251704   0.113  10.543   6.890 -0.3046 -0.2771 -0.3342
15462SOL     OW51705   1.234  11.418   6.777 -0.6406 -0.1579  0.4732
15462SOL    HW151706   1.222  11.508   6.807  1.0958  0.8993 -1.6790
15462SOL    HW251707   1.194  11.416   6.690 -1.7401 -1.8732  0.9611
15463SOL     OW51708   3.651  10.549  11.334  0.1690 -0.3412  0.0451
15463SOL    HW151709   3.580  10.488  11.315 -0.8087  1.0236 -0.9624
15463SOL    HW251710   3.653  10.555  11.429 -1.3892 -0.0874  0.0919
15464SOL     OW51711   1.259   2.707   8.071 -0.3782  0.1576  0.4384
15464SOL    HW151712   1.274   2.760   7.994 -1.6145  0.7686  0.5830
15464SOL    HW251713   1.336   2.720   8.126 -0.4263  1.4109  0.2347
15465SOL     OW51714   2.646   1.802   5.767  0.3379 -0.0918 -0.0226
15465SOL    HW151715   2.605   1.728   5.812  1.4604 -0.3319  0.6467
15465SOL    HW251716   2.613   1.879   5.813 -1.8543 -0.0323 -1.5344
15466SOL     OW51717   4.112   6.137   7.898 -1.0823  0.0157  0.3685
15466SOL    HW151718   4.049   6.067   7.914  0.7833 -1.8025  0.2858
15466SOL    HW251719   4.107   6.153   7.804 -0.6386 -0.9541  0.1664
15467SOL     OW51720   9.541   2.181   2.965  0.4827  0.2630  0.0008
15467SOL    HW151721   9.547   2.178   3.060  1.1539  0.0434 -0.0447
15467SOL    HW251722   9.565   2.271   2.942  0.4746  0.2728  0.0303
15468SOL     OW51723   3.240   0.380  11.225 -0.3377 -0.4343 -0.2565
15468SOL    HW151724   3.224   0.440  11.152  0.1909  1.5445  1.1698
15468SOL    HW251725   3.289   0.307  11.185  2.8361  2.0820 -1.4169
15469SOL     OW51726  10.161  10.016   8.676  0.0008 -0.1480  0.4788
15469SOL    HW151727  10.167   9.933   8.627  1.0763  1.0539 -1.5834
15469SOL    HW251728  10.077  10.011   8.721 -1.7236 -0.8697 -2.5328
15470SOL     OW51729  10.066   6.480   0.062  0.3619  0.5554 -0.3491
15470SOL    HW151730  10.006   6.487  -0.012 -0.5626  1.6880  0.4892
15470SOL    HW251731  10.017   6.512   0.137  1.1414 -0.9618  0.8620
15471SOL     OW51732   3.490  10.707   2.357  0.0456 -0.6825 -0.2795
15471SOL    HW151733   3.580  10.739   2.347  0.2635 -1.0434  0.4133
15471SOL    HW251734   3.489  10.666   2.444 -0.5317 -1.5201 -0.6652
15472SOL     OW51735   3.011   7.213  11.712 -0.2996  0.8714 -0.2232
15472SOL    HW151736   3.069   7.179  11.643 -2.9179 -0.8707 -1.7221
15472SOL    HW251737   3.024   7.152  11.785 -0.1860  0.5234 -0.5296
15473SOL     OW51738   8.071   4.307  10.358  0.3162 -0.1756 -0.0635
15473SOL    HW151739   8.102   4.310  10.268 -0.5833 -1.3232 -0.4314
15473SOL    HW251740   8.150   4.318  10.411  0.7948  0.9623 -0.9733
15474SOL     OW51741   2.173   4.501   5.600 -0.2977  0.3917  0.1926
15474SOL    HW151742   2.263   4.471   5.588 -0.4161 -0.0055  0.2873
15474SOL    HW251743   2.177   4.595   5.582  0.7714  1.0982  3.4082
15475SOL     OW51744   3.246   9.707   9.620 -0.3300 -0.4080 -0.0015
15475SOL    HW151745   3.323   9.764   9.617 -0.0067 -0.8400  0.0539
15475SOL    HW251746   3.216   9.712   9.711 -2.0381  1.9460 -0.5725
15476SOL     OW51747   5.401  11.287   0.702  0.2878 -0.1184  0.0021
15476SOL    HW151748   5.347  11.208   0.693 -0.1228 -0.0928  1.8483
15476SOL    HW251749   5.338  11.359   0.705  0.6061  0.1928 -0.5879
15477SOL     OW51750   8.700  11.726  10.126 -0.0238 -0.2073 -0.1871
15477SOL    HW151751   8.791  11.755  10.129  0.5456 -1.9402 -0.1754
15477SOL    HW251752   8.649  11.807  10.134  1.4946  0.9701 -1.6941
15478SOL     OW51753   3.385   5.007   8.927  0.0029 -0.3911 -0.3269
15478SOL    HW151754   3.354   5.076   8.869 -0.8497 -0.8386 -0.4209
15478SOL    HW251755   3.429   4.945   8.869 -1.1766 -1.0265 -0.5715
15479SOL     OW51756  11.668   9.892   7.876 -0.2170 -0.1283 -0.1931
15479SOL    HW151757  11.675   9.881   7.970  0.3545  0.1969 -0.1892
15479SOL    HW251758  11.712   9.815   7.839  2.7910  1.4066 -0.1674
15480SOL     OW51759   7.257   7.934   9.132 -0.2703  0.5131  0.2848
15480SOL    HW151760   7.336   7.940   9.079 -0.3158 -1.9172 -0.1602
15480SOL    HW251761   7.196   7.997   9.093  0.9706  1.4759 -0.1624
15481SOL     OW51762   8.461   8.660   2.314  0.1864  0.2322  0.3999
15481SOL    HW151763   8.498   8.618   2.237  2.7363  1.2706  0.9572
15481SOL    HW251764   8.396   8.721   2.280  0.0533 -0.5423 -0.7734
15482SOL     OW51765   5.120   4.698   0.020 -0.4405 -0.3337 -0.0830
15482SOL    HW151766   5.156   4.610   0.014  1.1768  0.3710 -1.6932
15482SOL    HW251767   5.080   4.714  -0.066  0.0770  0.8050 -0.1354
15483SOL     OW51768   9.341   6.932   2.577 -0.3379  0.2263 -0.0064
15483SOL    HW151769   9.387   7.016   2.579 -1.0325  0.6328 -0.4345
15483SOL    HW251770   9.363   6.890   2.660 -1.7618  1.8141  1.2491
15484SOL     OW51771   3.222   1.903   4.046  0.3782  0.1756  0.2650
15484SOL    HW151772   3.308   1.909   4.005  0.0969 -2.1242 -0.8161
15484SOL    HW251773   3.238   1.855   4.127  0.1922  0.2697  0.3568
15485SOL     OW51774   5.827   2.045   4.383  0.2454  0.7042 -0.0152
15485SOL    HW151775   5.800   2.053   4.475  0.9071 -0.0677  0.2562
15485SOL    HW251776   5.848   1.952   4.373  1.8889  1.1063 -0.4734
15486SOL     OW51777  11.429  10.818   2.273 -0.1067  0.3313  0.4639
15486SOL    HW151778  11.338  10.815   2.304 -0.2042 -0.9347  0.1282
15486SOL    HW251779  11.445  10.910   2.254 -1.4619  0.5223  0.1258
15487SOL     OW51780   5.789  11.356   7.523 -0.5929 -0.6059  0.3273
15487SOL    HW151781   5.840  11.286   7.483 -1.6498 -1.4017  0.3318
15487SOL    HW251782   5.798  11.430   7.463  0.5091 -0.7507  0.3035
15488SOL     OW51783   8.476  11.569   2.456 -0.1544 -0.2226  0.5946
15488SOL    HW151784   8.505  11.478   2.461 -0.5304 -0.7358 -3.3398
15488SOL    HW251785   8.398  11.572   2.512 -2.7405 -3.6382 -2.3688
15489SOL     OW51786   9.916   6.335  11.520  0.1652 -0.0585 -0.7540
15489SOL    HW151787   9.876   6.383  11.448  1.0937 -0.0592 -1.2859
15489SOL    HW251788   9.906   6.392  11.596  0.9605  0.8292 -1.3069
15490SOL     OW51789   6.419   6.695   4.590  0.2210  0.6101  0.2293
15490SOL    HW151790   6.506   6.667   4.561 -0.0931 -0.2838  0.1170
15490SOL    HW251791   6.412   6.661   4.679  0.4054  1.6304  0.6430
15491SOL     OW51792  10.029   9.661   6.560  0.1838  0.8421 -0.3740
15491SOL    HW151793  10.060   9.734   6.507  4.2900  0.1477  0.6936
15491SOL    HW251794  10.056   9.583   6.512 -0.3604  0.1025  0.4737
15492SOL     OW51795   6.783   0.184   7.859  0.4309  0.2134  0.1409
15492SOL    HW151796   6.781   0.168   7.765 -1.9478  1.6287 -0.1390
15492SOL    HW251797   6.786   0.096   7.898 -0.1831 -0.4741 -1.2667
15493SOL     OW51798   2.409   8.600   1.071 -0.3105  0.0973  0.4145
15493SOL    HW151799   2.369   8.677   1.111 -1.1877 -1.1251  1.9841
15493SOL    HW251800   2.387   8.528   1.130  1.4131 -1.1878 -0.4283
15494SOL     OW51801  11.685   0.858  11.088  0.1752  0.3057  0.1459
15494SOL    HW151802  11.731   0.940  11.072  0.8069  0.2008  1.2924
15494SOL    HW251803  11.703   0.804  11.011  0.3960  0.9595 -0.2636
15495SOL     OW51804   1.830   9.460   6.782  0.4920 -0.3696 -0.1394
15495SOL    HW151805   1.915   9.416   6.789  0.4330 -0.6743 -1.1042
15495SOL    HW251806   1.846   9.533   6.722 -0.1454 -1.0760 -1.2203
15496SOL     OW51807   5.470   4.503   5.303 -0.7260  0.0583 -1.2598
15496SOL    HW151808   5.547   4.531   5.352 -2.6171  1.6135  1.0763
15496SOL    HW251809   5.469   4.561   5.226 -0.3912  1.1585 -0.4717
15497SOL     OW51810   3.683   0.121   6.401 -0.1370 -1.0575 -0.2651
15497SOL    HW151811   3.609   0.182   6.398 -0.7580 -1.8157 -0.9979
15497SOL    HW251812   3.700   0.099   6.309  1.5239 -0.2955 -0.1582
15498SOL     OW51813  10.205   7.544   7.172  0.2480  0.5027  0.0520
15498SOL    HW151814  10.112   7.549   7.190  0.3760  0.8136  0.6308
15498SOL    HW251815  10.232   7.459   7.208  0.6312  1.3967  1.9815
15499SOL     OW51816  11.757   5.166   1.212 -0.3160  0.0358  0.1751
15499SOL    HW151817  11.665   5.189   1.204 -0.1675  0.9466  0.9077
15499SOL    HW251818  11.763   5.118   1.295  0.1224  1.4538  0.9920
15500SOL     OW51819   6.227   1.814   0.808  0.3596 -0.3764 -0.4050
15500SOL    HW151820   6.310   1.812   0.761  0.8906 -0.1399  0.4837
15500SOL    HW251821   6.230   1.736   0.865  0.3758  0.1101  0.2741
15501SOL     OW51822   3.277  11.285   8.465 -0.2309  0.1702 -0.8020
15501SOL    HW151823   3.278  11.377   8.489 -1.4416  0.2473 -0.9464
15501SOL    HW251824   3.256  11.284   8.372 -1.3089 -0.2499 -0.5809
15502SOL     OW51825   6.516   8.822   9.214  0.1387 -0.0559 -0.1432
15502SOL    HW151826   6.440   8.782   9.256 -0.7857  1.6396 -0.1375
15502SOL    HW251827   6.574   8.845   9.287  0.4361 -0.8706 -0.1118
15503SOL     OW51828  11.777   9.612  10.281 -0.7281 -0.1691 -0.0891
15503SOL    HW151829  11.757   9.700  10.248  1.9692  0.1752 -1.0695
15503SOL    HW251830  11.767   9.620  10.376  0.4592  1.5460 -0.0519
15504SOL     OW51831  10.163   0.102   2.629  0.4352 -0.3866  0.2457
15504SOL    HW151832  10.141   0.136   2.543 -0.0614 -0.7460  0.2269
15504SOL    HW251833  10.234   0.040   2.613  0.0831 -0.7431  0.0408
15505SOL     OW51834  10.359   3.793   2.154 -0.1220  0.1274  0.2893
15505SOL    HW151835  10.340   3.859   2.221 -0.3485  0.0413  0.3097
15505SOL    HW251836  10.363   3.711   2.203  1.6922  0.3105  0.5148
15506SOL     OW51837   3.399  10.702  11.743  0.0446  0.4532  0.3040
15506SOL    HW151838   3.457  10.772  11.712  0.4954  0.9777  2.2104
15506SOL    HW251839   3.440  10.672  11.824  0.1544 -2.4207 -0.7005
15507SOL     OW51840   5.528   7.974   3.584 -0.0666 -0.3485 -0.3137
15507SOL    HW151841   5.437   8.001   3.571  0.0901  0.1463 -0.4180
15507SOL    HW251842   5.532   7.885   3.551 -0.6583 -0.5926  0.2604
15508SOL     OW51843  11.352  11.013  10.372 -0.3496  1.0406 -0.6701
15508SOL    HW151844  11.354  11.066  10.292 -1.5298 -0.0662 -1.4789
15508SOL    HW251845  11.367  10.924  10.342 -0.5779  0.6301  0.3829
15509SOL     OW51846  10.505  11.631   4.931  0.1439 -0.1405 -0.2542
15509SOL    HW151847  10.415  11.610   4.907  0.3001 -1.0797 -0.0610
15509SOL    HW251848  10.513  11.602   5.022  0.5312  0.3093 -0.1385
15510SOL     OW51849   7.117   6.496   8.752 -0.0295  0.5706 -0.0259
15510SOL    HW151850   7.175   6.428   8.718 -0.7606  0.8308 -1.8918
15510SOL    HW251851   7.176   6.566   8.781  0.6825  1.6866 -3.6853
15511SOL     OW51852   5.431   9.144   9.572 -0.3398 -0.1041  0.2223
15511SOL    HW151853   5.392   9.060   9.548 -1.1487  0.3982 -0.2623
15511SOL    HW251854   5.369   9.184   9.631 -0.8601  0.9421 -0.9839
15512SOL     OW51855   5.412   6.479   9.009  0.0795  0.1439  0.2616
15512SOL    HW151856   5.503   6.458   8.986 -0.0332 -0.1286  0.0613
15512SOL    HW251857   5.419   6.557   9.063  0.4208  0.2500  0.0711
15513SOL     OW51858  10.409   7.458   4.421  0.3386  0.4606 -0.1077
15513SOL    HW151859  10.408   7.450   4.516  1.7834 -0.8550 -0.1625
15513SOL    HW251860  10.329   7.413   4.393 -0.2708  1.1559  0.4876
15514SOL     OW51861   7.977   9.552  11.018  0.1465 -0.8215  0.0463
15514SOL    HW151862   7.899   9.510  10.980 -0.0608 -1.9078  1.5668
15514SOL    HW251863   8.027   9.480  11.055  1.2801  0.0025  0.1522
15515SOL     OW51864  10.509   9.623   1.398 -0.5424 -0.1742  0.3627
15515SOL    HW151865  10.448   9.556   1.366 -1.9989  1.5195 -0.6036
15515SOL    HW251866  10.586   9.574   1.425 -0.2414 -2.0531 -3.2730
15516SOL     OW51867   8.541   7.392   6.228  0.3252 -0.8460  0.3887
15516SOL    HW151868   8.553   7.423   6.139 -0.3384  1.6069  1.0787
15516SOL    HW251869   8.627   7.361   6.255  0.3963 -2.2446 -1.2608
15517SOL     OW51870   5.683   5.082   1.409  0.2258  0.3895 -0.1691
15517SOL    HW151871   5.755   5.142   1.430  0.7547 -0.3966  0.3118
15517SOL    HW251872   5.725   5.010   1.362  0.1960 -1.2702  2.1730
15518SOL     OW51873   9.270   5.771   0.971 -0.0482 -0.4334  0.4552
15518SOL    HW151874   9.246   5.773   1.064 -0.1979  0.6086  0.4030
15518SOL    HW251875   9.313   5.686   0.960  0.2955 -0.4297  1.5587
15519SOL     OW51876   7.986   9.655   5.811  0.4120  0.1520  0.1250
15519SOL    HW151877   8.038   9.696   5.880 -0.6899  0.4962  0.7656
15519SOL    HW251878   7.992   9.561   5.829 -0.1139  0.2546  0.8891
15520SOL     OW51879   0.308   7.037   0.341  0.2632  0.5548 -0.0652
15520SOL    HW151880   0.232   7.094   0.329 -0.2915 -0.0600  0.4490
15520SOL    HW251881   0.382   7.097   0.347 -0.4324  1.3240  1.5792
15521SOL     OW51882   2.681   0.526   5.479 -0.5438 -0.0447 -0.4677
15521SOL    HW151883   2.727   0.608   5.461  0.9192 -0.8105 -0.3256
15521SOL    HW251884   2.708   0.503   5.568 -0.1560 -1.1769 -0.8693
15522SOL     OW51885   8.775   0.483   6.668 -0.5769  0.0767  0.4056
15522SOL    HW151886   8.742   0.394   6.680  1.0477 -0.5301  0.5410
15522SOL    HW251887   8.698   0.539   6.682 -1.5800 -1.2790  0.5083
15523SOL     OW51888   1.271   1.763   1.005 -0.0428 -0.4712  0.1503
15523SOL    HW151889   1.338   1.721   0.950  0.4667 -0.1878  0.5525
15523SOL    HW251890   1.188   1.722   0.976  0.5004 -2.2856  1.0002
15524SOL     OW51891   3.770   9.535  10.180  0.2781  0.1871  0.0256
15524SOL    HW151892   3.815   9.611  10.218 -1.2076 -0.5139  3.5542
15524SOL    HW251893   3.790   9.463  10.239 -0.4379 -1.6312 -1.8307
15525SOL     OW51894   2.179   4.205   6.852  0.0166  0.2567  0.1542
15525SOL    HW151895   2.104   4.264   6.859  0.2522  0.5592  0.1205
15525SOL    HW251896   2.140   4.117   6.854 -0.7011  0.3585 -3.3750
15526SOL     OW51897  10.392   4.042  10.828  0.0810  0.5939 -0.4494
15526SOL    HW151898  10.437   4.115  10.871 -1.3348  0.9112  0.5586
15526SOL    HW251899  10.300   4.054  10.850  0.0556 -3.3264  2.7785
15527SOL     OW51900   5.470   0.515  11.663 -0.5605 -0.0019  0.5573
15527SOL    HW151901   5.520   0.576  11.716 -0.4305 -0.4677  0.9694
15527SOL    HW251902   5.391   0.564  11.639 -0.2984  0.4448  0.5954
15528SOL     OW51903   5.707   3.049   4.374  0.0515  0.0171 -0.1098
15528SOL    HW151904   5.796   3.083   4.388 -0.0199 -0.2065  1.0350
15528SOL    HW251905   5.686   3.004   4.456 -1.4740  0.8815  0.0121
15529SOL     OW51906   5.826  10.117  11.423 -0.8234  0.8530 -0.2463
15529SOL    HW151907   5.918  10.129  11.444 -1.1744 -1.5759  3.8156
15529SOL    HW251908   5.825  10.053  11.352  0.7658 -1.3563  1.5778
15530SOL     OW51909   0.111  10.544   3.381  0.0371  0.2616 -0.0052
15530SOL    HW151910   0.091  10.451   3.395  0.7448  0.1369  0.1945
15530SOL    HW251911   0.092  10.585   3.465 -0.2387  0.2931 -0.0819
15531SOL     OW51912   2.038   4.713   6.580  0.1527  0.1988  0.0005
15531SOL    HW151913   1.988   4.795   6.584  0.8380  0.6420 -0.3007
15531SOL    HW251914   2.089   4.721   6.500  1.6593  0.3180  0.9412
15532SOL     OW51915   0.057   8.989   4.507  0.1204 -0.1183 -0.2641
15532SOL    HW151916   0.004   9.017   4.432  2.0623 -0.0087 -1.6777
15532SOL    HW251917   0.070   9.069   4.558 -1.1529 -0.1772  0.1924
15533SOL     OW51918   1.864  10.234   5.926 -0.0917  0.0286  0.6851
15533SOL    HW151919   1.884  10.297   5.995  0.2623 -2.3486  2.8886
15533SOL    HW251920   1.950  10.207   5.893 -0.1592 -0.4845  0.9165
15534SOL     OW51921   9.810  11.008   5.065  0.0754 -0.1592 -0.6079
15534SOL    HW151922   9.766  10.944   5.009  0.3277 -0.9368  0.0552
15534SOL    HW251923   9.896  11.019   5.025 -0.4444  0.7870 -1.4773
15535SOL     OW51924   2.298   0.590   5.637 -0.0248  0.0109  0.8309
15535SOL    HW151925   2.370   0.620   5.693  0.0870  0.5925  0.3835
15535SOL    HW251926   2.322   0.501   5.612  1.8701  1.0440 -1.4380
15536SOL     OW51927   1.380  10.452  11.335  0.1220 -0.4130 -0.5076
15536SOL    HW151928   1.449  10.441  11.399 -1.4274 -1.1894  1.1277
15536SOL    HW251929   1.363  10.547  11.333  0.5058 -0.3360 -0.1193
15537SOL     OW51930   6.669   6.321   7.722  0.2618 -0.4894 -0.4464
15537SOL    HW151931   6.731   6.356   7.786 -1.0534 -0.6704  0.9920
15537SOL    HW251932   6.667   6.386   7.652  0.5239  0.5376  0.4760
15538SOL     OW51933   7.540   8.391   1.380 -0.3981 -0.2527  0.3450
15538SOL    HW151934   7.450   8.364   1.399 -0.6933 -0.1584 -0.8119
15538SOL    HW251935   7.579   8.408   1.466 -1.9642  1.2661  0.8190
15539SOL     OW51936  11.175   8.136   6.586  0.2745 -0.0902  0.7310
15539SOL    HW151937  11.188   8.069   6.518  1.3510  0.1670  0.6696
15539SOL    HW251938  11.261   8.146   6.627 -0.3730 -0.2709  2.1759
15540SOL     OW51939   3.297   9.469  11.733  0.1461 -0.5380  0.5051
15540SOL    HW151940   3.277   9.381  11.765 -0.7505  0.0141  1.5336
15540SOL    HW251941   3.342   9.511  11.806  1.4391 -0.4195 -0.3165
15541SOL     OW51942   3.497   5.510  11.358  0.3024  0.4568 -0.2989
15541SOL    HW151943   3.567   5.479  11.414  1.2492  0.5356 -1.4051
15541SOL    HW251944   3.428   5.539  11.418  1.3234  0.6446  0.8027
15542SOL     OW51945   1.901   7.724   3.216  0.4027 -0.7740  0.0316
15542SOL    HW151946   1.807   7.733   3.234  0.1494 -1.2026 -0.9970
15542SOL    HW251947   1.935   7.813   3.225 -0.1100 -0.6033  0.3483
15543SOL     OW51948   1.212   9.623   0.368  0.0637  0.1833  0.6500
15543SOL    HW151949   1.118   9.626   0.387  0.7505  1.7020  4.7339
15543SOL    HW251950   1.240   9.538   0.402  0.2267 -0.2196 -0.4602
15544SOL     OW51951   7.175   9.811   8.224 -0.1287 -0.1271 -0.0327
15544SOL    HW151952   7.141   9.841   8.139  0.1924 -0.2135 -0.1915
15544SOL    HW251953   7.265   9.843   8.227  0.1827 -0.9628 -0.1564
15545SOL     OW51954   7.887   8.242  10.267  0.5744 -0.0373  0.5597
15545SOL    HW151955   7.885   8.172  10.332 -0.6445  0.3256  0.9526
15545SOL    HW251956   7.880   8.196  10.183  2.1822 -0.5099  0.6505
15546SOL     OW51957   2.435   9.747   5.406 -0.3118  0.5104  0.4053
15546SOL    HW151958   2.430   9.836   5.441  0.0477  0.2830  1.0516
15546SOL    HW251959   2.405   9.755   5.316  1.0390  1.5449  0.0071
15547SOL     OW51960   4.039   6.989   2.840  0.4267 -0.0738 -0.6008
15547SOL    HW151961   3.952   7.004   2.804 -0.1384  0.3039  0.8725
15547SOL    HW251962   4.068   7.074   2.871  0.5749 -0.5101  0.5049
15548SOL     OW51963   9.042   7.805   8.206 -0.3413  0.1078 -0.3521
15548SOL    HW151964   9.049   7.891   8.247 -1.1345 -0.0869  0.2233
15548SOL    HW251965   8.999   7.821   8.122 -0.0222  0.3340 -0.4716
15549SOL     OW51966   8.790  11.001  10.666 -0.8355  0.3674  0.9723
15549SOL    HW151967   8.870  11.000  10.614 -1.1923  0.5922  0.4153
15549SOL    HW251968   8.798  11.079  10.721 -0.8820  0.6417  0.5883
15550SOL     OW51969   1.323   5.532   6.486  0.6350  0.3287  0.0578
15550SOL    HW151970   1.350   5.526   6.578  3.6760  0.8556 -0.6930
15550SOL    HW251971   1.337   5.444   6.451 -0.7753  0.0607  0.1328
15551SOL     OW51972   6.685   9.632   9.828 -0.3594  0.3515 -0.2583
15551SOL    HW151973   6.753   9.699   9.834  0.2915 -0.2470 -0.7463
15551SOL    HW251974   6.612   9.667   9.879  0.8252  0.3827  1.4870
15552SOL     OW51975   8.096  11.185   6.831  0.4014  0.2420 -0.0791
15552SOL    HW151976   8.054  11.111   6.785  0.6425  0.2983 -0.3930
15552SOL    HW251977   8.069  11.174   6.922 -0.8811  0.6740 -0.3791
15553SOL     OW51978   8.423   0.757   8.251  0.0638  0.3344  0.4223
15553SOL    HW151979   8.459   0.839   8.284 -0.9552  1.0089 -0.1070
15553SOL    HW251980   8.387   0.714   8.329  1.9606 -0.3709  0.9723
15554SOL     OW51981  10.082   7.124   5.877 -0.1828  0.4104  0.4161
15554SOL    HW151982  10.043   7.037   5.871  0.4332  0.2072 -0.8009
15554SOL    HW251983  10.154   7.123   5.815 -1.4966  2.4866 -1.2925
15555SOL     OW51984   9.194   1.882   0.540 -0.1590 -0.3073  0.4219
15555SOL    HW151985   9.195   1.978   0.540  0.0659 -0.3093  0.5692
15555SOL    HW251986   9.283   1.857   0.564  0.0250 -0.5594 -0.4933
15556SOL     OW51987   5.742   4.255   3.082  0.1549 -0.1819  0.3097
15556SOL    HW151988   5.768   4.346   3.066  1.2118 -0.3752  0.8707
15556SOL    HW251989   5.772   4.237   3.171 -0.3680 -0.9778  0.3352
15557SOL     OW51990   9.946   4.808   7.558 -0.5293 -0.2126  0.1625
15557SOL    HW151991   9.987   4.777   7.477 -1.2901  0.4989 -0.5268
15557SOL    HW251992  10.019   4.838   7.612 -0.0256 -0.4157 -0.3859
15558SOL     OW51993   6.002   2.431   3.763 -0.0772  0.1707 -0.2448
15558SOL    HW151994   6.083   2.383   3.781  0.2418  0.6319 -0.4199
15558SOL    HW251995   5.959   2.381   3.694 -0.3949 -0.5744  0.4798
15559SOL     OW51996   5.137   8.613   7.585 -0.3580  0.5720  0.2205
15559SOL    HW151997   5.042   8.613   7.575 -0.2437 -0.7983 -1.2020
15559SOL    HW251998   5.152   8.565   7.666 -0.8566  0.0386  0.0039
15560SOL     OW51999   1.010   2.939   6.377  0.6118  0.1385  0.3404
15560SOL    HW152000   1.007   2.854   6.333  1.7386 -0.8024  1.9660
15560SOL    HW252001   1.027   2.917   6.469  0.6100  2.1213  0.8508
15561SOL     OW52002  10.535  10.861   6.685  0.4033 -0.4116 -0.5343
15561SOL    HW152003  10.586  10.924   6.736 -0.4075  0.3404 -0.6466
15561SOL    HW252004  10.511  10.908   6.605  2.0699 -1.7064 -1.9121
15562SOL     OW52005   9.228   0.348   0.678 -0.3974 -0.3145 -0.5093
15562SOL    HW152006   9.290   0.418   0.658  1.3222 -1.8199 -0.7297
15562SOL    HW252007   9.179   0.336   0.598  0.0370 -0.0606 -0.8185
15563SOL     OW52008   1.376   9.458   2.553 -0.4591 -0.0037 -0.5090
15563SOL    HW152009   1.410   9.378   2.594 -1.0922  0.2227  0.4772
15563SOL    HW252010   1.453   9.498   2.514 -0.1393 -1.1278 -1.0941
15564SOL     OW52011   1.379   2.377  11.661  0.2117 -0.2289 -0.1766
15564SOL    HW152012   1.389   2.300  11.717  0.8592  1.7220  2.6386
15564SOL    HW252013   1.288   2.375  11.632  0.1409 -1.8664  0.0990
15565SOL     OW52014  10.267   9.553   9.879  0.1162 -0.1004  0.0925
15565SOL    HW152015  10.352   9.520   9.909  1.4970  3.0312  0.0146
15565SOL    HW252016  10.263   9.529   9.787  2.3835  2.0993 -0.7069
15566SOL     OW52017   0.446   9.475   2.799 -0.2180 -0.3714  0.2061
15566SOL    HW152018   0.530   9.454   2.759  0.2711  0.1225  0.9752
15566SOL    HW252019   0.392   9.505   2.726  0.4510 -0.1242 -0.1909
15567SOL     OW52020   8.678   3.615  10.374 -0.2024 -0.0451  0.0092
15567SOL    HW152021   8.755   3.601  10.320 -1.4288  1.4072 -2.2578
15567SOL    HW252022   8.692   3.701  10.414 -0.8958  0.5232 -0.9346
15568SOL     OW52023   5.464   9.971   2.054  0.4616 -0.2366  0.3937
15568SOL    HW152024   5.412  10.017   2.120  0.3165 -1.0434  0.8498
15568SOL    HW252025   5.401   9.948   1.985  0.6075  0.5773 -0.0269
15569SOL     OW52026   8.367  10.664   8.146 -0.0645  0.4841  0.2105
15569SOL    HW152027   8.363  10.716   8.066 -0.5109 -0.2151 -0.2384
15569SOL    HW252028   8.460  10.659   8.168 -0.0181  1.4969  0.2911
15570SOL     OW52029   7.366  10.485   7.897 -0.0717  1.2039  0.2375
15570SOL    HW152030   7.439  10.547   7.893  0.6762  0.5960  2.5920
15570SOL    HW252031   7.400  10.410   7.946 -0.7451 -1.4859 -3.0757
15571SOL     OW52032   2.916   5.403  10.602 -0.2484  0.7040 -0.0333
15571SOL    HW152033   2.972   5.326  10.590  0.0850  0.8974  0.2919
15571SOL    HW252034   2.838   5.383  10.549  0.0510  0.3649 -0.3582
15572SOL     OW52035   0.765   3.332   7.785  0.3215 -0.0839 -0.1863
15572SOL    HW152036   0.718   3.262   7.830  2.9451 -2.2708 -0.5677
15572SOL    HW252037   0.797   3.388   7.856  0.4320 -0.7982  0.3358
15573SOL     OW52038   0.070   8.989   7.409  0.4348 -0.2303 -0.2359
15573SOL    HW152039   0.057   9.073   7.452  0.1871 -0.1225 -0.5229
15573SOL    HW252040   0.164   8.985   7.392  0.6400 -0.5362  0.8577
15574SOL     OW52041   8.616   1.703   1.228 -0.0831 -0.5276 -0.5335
15574SOL    HW152042   8.668   1.695   1.308  0.2217  3.2627 -0.1912
15574SOL    HW252043   8.673   1.668   1.159  0.6180 -1.5881  0.5313
15575SOL     OW52044  11.350   9.021   3.946  0.1755 -0.1523 -0.0591
15575SOL    HW152045  11.264   9.046   3.911 -0.0393 -0.2209  0.4030
15575SOL    HW252046  11.413   9.060   3.886 -0.1833 -0.3127 -0.5511
15576SOL     OW52047   9.431   4.455   2.349 -0.0802  0.0430 -0.1685
15576SOL    HW152048   9.372   4.483   2.279  0.1631 -0.8579 -0.7669
15576SOL    HW252049   9.402   4.502   2.426 -2.2487 -1.1324 -0.1895
15577SOL     OW52050  11.433   1.721   2.306 -0.0174  0.4686 -0.0911
15577SOL    HW152051  11.417   1.793   2.367  0.5477 -0.2034  0.8775
15577SOL    HW252052  11.498   1.666   2.350  0.6985  0.1576 -1.4689
15578SOL     OW52053   6.411  11.143  10.401  0.3706 -0.2831 -0.0946
15578SOL    HW152054   6.418  11.213  10.466  0.0003  0.4037 -0.7655
15578SOL    HW252055   6.420  11.062  10.450  0.6234  0.2383  0.7298
15579SOL     OW52056   6.296   2.099   8.953  0.0876  0.6130  0.2858
15579SOL    HW152057   6.257   2.112   8.867  0.6404 -1.0675 -0.2537
15579SOL    HW252058   6.225   2.116   9.014 -0.3532  1.6838 -0.4886
15580SOL     OW52059   2.752   7.914   8.552  0.1616  0.1432 -0.4584
15580SOL    HW152060   2.674   7.929   8.605 -1.8298 -0.8918 -2.8856
15580SOL    HW252061   2.778   7.824   8.572  0.0901  0.1302 -0.4228
15581SOL     OW52062   4.097   2.208   9.972 -0.2424  0.0288 -0.2491
15581SOL    HW152063   4.116   2.144  10.041 -2.0631  1.8670  2.1508
15581SOL    HW252064   4.113   2.161   9.890  0.3375 -2.8375  1.3769
15582SOL     OW52065   4.877   6.106  10.986 -0.8625 -0.6098  0.5385
15582SOL    HW152066   4.921   6.089  11.070 -1.1768 -1.2039  0.5945
15582SOL    HW252067   4.906   6.034  10.929  0.5614  0.6295 -0.3577
15583SOL     OW52068  11.696   4.214   0.869  0.2833  0.8016 -0.2363
15583SOL    HW152069  11.699   4.305   0.898 -0.5704  0.5948  0.5567
15583SOL    HW252070  11.607   4.202   0.836  0.2533  0.1435  0.0589
15584SOL     OW52071  11.486   4.962   1.530 -0.1994  0.3565  0.1917
15584SOL    HW152072  11.441   5.031   1.579 -0.4107 -0.2847  0.9284
15584SOL    HW252073  11.539   4.917   1.596  1.9080  1.3489 -0.7059
15585SOL     OW52074   7.868   5.420  11.072  0.3726 -0.1029  0.1507
15585SOL    HW152075   7.852   5.392  11.162  1.5327  0.8433  0.6653
15585SOL    HW252076   7.886   5.513  11.078 -1.8109  0.5124 -1.3509
15586SOL     OW52077   7.864  10.097   1.164 -0.0486 -0.4762 -0.0444
15586SOL    HW152078   7.886  10.004   1.169  1.2413 -0.1385  1.5192
15586SOL    HW252079   7.903  10.126   1.082 -3.4184 -1.9364 -2.3942
15587SOL     OW52080   3.295   7.657   0.744 -0.2355 -0.1178  0.7490
15587SOL    HW152081   3.303   7.650   0.839 -0.2055 -0.9786  0.6935
15587SOL    HW252082   3.205   7.631   0.725 -0.1448 -0.2831  0.5230
15588SOL     OW52083   9.529   3.128   2.955 -0.0158 -0.3631  0.0126
15588SOL    HW152084   9.441   3.163   2.966  0.4564  0.4721  1.4042
15588SOL    HW252085   9.549   3.141   2.862 -0.3509  1.9902  0.2054
15589SOL     OW52086   7.409  10.296  11.243  0.5988  0.2437  0.0956
15589SOL    HW152087   7.375  10.365  11.300  0.7943  0.7779 -0.4232
15589SOL    HW252088   7.501  10.318  11.232  0.5342  0.2241 -0.5304
15590SOL     OW52089   4.450   7.781   7.130  0.1036 -0.2315  0.0432
15590SOL    HW152090   4.504   7.812   7.202 -0.5037 -1.0950  0.8872
15590SOL    HW252091   4.512   7.758   7.061  0.9407 -2.2847  1.4049
15591SOL     OW52092   6.438   2.239   2.289  0.2000 -0.1380 -0.0970
15591SOL    HW152093   6.501   2.295   2.243  0.2495 -2.4225 -3.1197
15591SOL    HW252094   6.490   2.194   2.356  0.7612  1.1556  0.3856
15592SOL     OW52095   9.771   8.353   7.836  0.0687 -0.0930 -0.0557
15592SOL    HW152096   9.739   8.399   7.914  1.6297  0.5038  0.2623
15592SOL    HW252097   9.695   8.304   7.805 -0.4291 -0.9650  2.2796
15593SOL     OW52098  10.065   5.461   9.028  0.0533 -0.6474  0.0769
15593SOL    HW152099  10.075   5.521   8.955  1.5298  0.2149  0.9361
15593SOL    HW252100  10.031   5.380   8.989  0.6333 -0.1430 -1.5242
15594SOL     OW52101   9.384   1.410   5.970 -0.1097  0.0406  0.4958
15594SOL    HW152102   9.318   1.353   5.930 -1.3039  1.3337  0.5362
15594SOL    HW252103   9.433   1.353   6.029 -0.4365 -1.2019 -0.4033
15595SOL     OW52104   3.910   3.213   9.933 -0.2407  0.8490  0.0334
15595SOL    HW152105   4.006   3.211   9.927 -0.2364  0.6946  0.1525
15595SOL    HW252106   3.892   3.224  10.026 -0.3714 -3.0260  0.6257
15596SOL     OW52107  10.029   6.830  11.117 -0.4305 -0.3265 -0.6136
15596SOL    HW152108  10.045   6.761  11.052  0.3833 -0.7234 -0.0138
15596SOL    HW252109   9.968   6.890  11.074  0.0391 -0.6155 -1.7137
15597SOL     OW52110   5.953   0.551   9.425  0.6493  0.2534  0.1606
15597SOL    HW152111   5.932   0.591   9.509  0.8708  0.7010  0.0027
15597SOL    HW252112   6.041   0.583   9.403 -0.3553  2.1307 -1.4121
15598SOL     OW52113   1.239   9.822   6.543 -0.8576 -0.3334  0.2021
15598SOL    HW152114   1.184   9.794   6.470 -0.1605 -0.4463 -0.2964
15598SOL    HW252115   1.325   9.836   6.504 -0.1241 -1.7123  1.2548
15599SOL     OW52116   2.539   3.198   2.709  0.4780  0.0031  0.0429
15599SOL    HW152117   2.537   3.116   2.758 -1.3248 -0.4694 -0.7521
15599SOL    HW252118   2.529   3.266   2.776 -3.2037 -0.6711  0.4274
15600SOL     OW52119   3.369  10.542   7.553  0.0775  0.0891  0.1318
15600SOL    HW152120   3.290  10.488   7.553 -0.0420  0.2546 -0.4392
15600SOL    HW252121   3.339  10.629   7.529  0.7367 -0.3725 -2.7876
15601SOL     OW52122  10.770   2.877   5.147 -0.0850 -0.0526 -0.0947
15601SOL    HW152123  10.842   2.866   5.210 -0.2568 -1.6517 -0.1373
15601SOL    HW252124  10.775   2.969   5.121  1.7417 -0.0478  0.1531
15602SOL     OW52125   0.154   5.902   6.504  0.0339  0.1646 -0.6261
15602SOL    HW152126   0.089   5.933   6.567  3.6221  3.5132  1.9226
15602SOL    HW252127   0.177   5.814   6.533 -1.2820  0.0527  0.1300
15603SOL     OW52128   9.742   7.245   3.346 -0.3085 -0.2453 -0.6419
15603SOL    HW152129   9.701   7.325   3.312 -0.0291  0.0944 -0.1930
15603SOL    HW252130   9.836   7.263   3.344 -0.2530 -0.4930 -0.3818
15604SOL     OW52131   3.713   1.247   4.194  0.3804 -0.0508 -0.7792
15604SOL    HW152132   3.760   1.282   4.270 -0.8535  1.1992 -0.5457
15604SOL    HW252133   3.639   1.306   4.183 -0.0681 -0.8500 -2.3069
15605SOL     OW52134   9.357   2.168   8.656  0.4356 -0.0926 -1.1736
15605SOL    HW152135   9.389   2.217   8.581 -0.3374  0.9286 -0.8647
15605SOL    HW252136   9.422   2.099   8.670  3.0042  2.3333 -0.0656
15606SOL     OW52137   0.763   1.921   4.744  0.2625 -0.0092 -0.1211
15606SOL    HW152138   0.834   1.863   4.721  2.9115  2.4293  1.2453
15606SOL    HW252139   0.787   2.006   4.706 -1.1809  1.2479  1.5549
15607SOL     OW52140   8.204   6.844   2.708  0.2734  0.5720  0.1069
15607SOL    HW152141   8.218   6.928   2.663  1.4193  1.1988  1.5646
15607SOL    HW252142   8.116   6.850   2.745  0.9888  1.9102  1.7119
15608SOL     OW52143   6.029   5.583   1.711  0.3881 -0.7484 -0.0491
15608SOL    HW152144   5.978   5.535   1.646 -0.3331  0.8170 -0.6855
15608SOL    HW252145   6.118   5.547   1.703 -0.2943 -2.5907  0.1653
15609SOL     OW52146   1.066  10.474   4.907 -0.5880  0.0831 -0.6299
15609SOL    HW152147   1.093  10.518   4.827 -0.0514  0.0556 -0.4678
15609SOL    HW252148   0.986  10.428   4.883 -0.8411  0.6828 -0.9474
15610SOL     OW52149   0.479   8.006  10.620 -0.5409 -0.4237  0.0179
15610SOL    HW152150   0.524   7.994  10.536 -0.1763 -0.9799  0.2872
15610SOL    HW252151   0.445   8.095  10.616 -0.2888 -0.3491 -0.6100
15611SOL     OW52152   7.891  10.729   6.721  0.4572 -0.3799 -0.2161
15611SOL    HW152153   7.813  10.750   6.771 -0.6233 -1.4984 -1.3516
15611SOL    HW252154   7.859  10.683   6.643  2.2623 -1.3385 -0.4688
15612SOL     OW52155   6.679   4.228   1.306 -0.2906  0.2609  0.2318
15612SOL    HW152156   6.669   4.266   1.219  1.1138  0.5402  0.1612
15612SOL    HW252157   6.660   4.135   1.294 -2.1356  0.6154  0.0712
15613SOL     OW52158   8.147   0.465   2.025  0.1672 -0.0731 -0.1960
15613SOL    HW152159   8.221   0.518   1.994 -1.0227  0.6835 -1.9416
15613SOL    HW252160   8.072   0.524   2.018 -0.5825 -0.7086  1.8709
15614SOL     OW52161   1.924   5.950   3.240  0.1983 -0.0662  0.0153
15614SOL    HW152162   2.014   5.979   3.228  0.3305 -0.0195  1.0030
15614SOL    HW252163   1.919   5.865   3.195  0.7205 -0.0473 -0.0749
15615SOL     OW52164   8.323   9.685   0.285  0.0766  0.3351  0.0440
15615SOL    HW152165   8.282   9.750   0.229 -0.0641 -1.3205 -1.8741
15615SOL    HW252166   8.412   9.675   0.250  1.3449  1.9081  2.4751
15616SOL     OW52167   4.128   0.711   7.646  0.0474  0.2380 -0.7940
15616SOL    HW152168   4.109   0.624   7.610 -1.2078  0.5656 -0.9840
15616SOL    HW252169   4.070   0.719   7.722  2.4195 -0.3077  1.1910
15617SOL     OW52170   1.575   0.641   8.149 -0.5917 -0.1410 -0.1872
15617SOL    HW152171   1.579   0.667   8.057  0.3074 -0.4103 -0.2355
15617SOL    HW252172   1.536   0.716   8.194  0.9760  0.8981 -0.4782
15618SOL     OW52173   0.688   5.121   5.692 -0.2495  0.1117 -0.0473
15618SOL    HW152174   0.686   5.215   5.677  1.9665  0.0957 -0.7164
15618SOL    HW252175   0.633   5.108   5.769  0.6199  2.1542  0.9860
15619SOL     OW52176   2.473   9.998  10.630 -0.3709  0.0630  0.0360
15619SOL    HW152177   2.464   9.996  10.534  0.2721 -0.8469 -0.0245
15619SOL    HW252178   2.528  10.075  10.647  0.8592 -0.6724 -0.4755
15620SOL     OW52179   8.448   1.314   9.215  0.6489  0.0706 -0.2862
15620SOL    HW152180   8.532   1.267   9.215  0.8443  0.4128  0.2598
15620SOL    HW252181   8.451   1.367   9.294 -1.4094 -2.2919  1.5210
15621SOL     OW52182   0.004   6.305   9.058  0.1042  0.0113  0.0210
15621SOL    HW152183  -0.042   6.271   8.981 -0.0116 -0.5133  0.3213
15621SOL    HW252184   0.088   6.259   9.059 -0.0657 -0.2967  0.4444
15622SOL     OW52185   1.474   1.968   0.958 -0.5111  0.5817  0.9226
15622SOL    HW152186   1.427   1.903   1.012 -1.1557 -0.1073 -0.4263
15622SOL    HW252187   1.563   1.966   0.992  0.7219 -4.1968 -1.6336
15623SOL     OW52188   5.721   4.208   3.956  0.5994  0.0162 -0.2338
15623SOL    HW152189   5.795   4.238   3.903  0.3521  0.3680 -0.3801
15623SOL    HW252190   5.759   4.189   4.041  0.8739  0.1178 -0.3334
15624SOL     OW52191   2.761   8.587   8.595 -0.0967 -0.2180 -0.0327
15624SOL    HW152192   2.740   8.631   8.513  0.7816  0.0843 -0.1036
15624SOL    HW252193   2.683   8.599   8.649 -1.4686 -2.0471 -1.4668
15625SOL     OW52194   3.817   3.973   7.794  0.3779  0.7740 -0.1628
15625SOL    HW152195   3.863   3.894   7.766 -1.5637 -0.5462  0.1650
15625SOL    HW252196   3.754   3.989   7.724 -0.4632  0.9603  0.6272
15626SOL     OW52197  10.805  10.280   8.590 -0.2000  0.0403  0.5108
15626SOL    HW152198  10.795  10.187   8.570  0.8755 -0.5616  2.4692
15626SOL    HW252199  10.898  10.298   8.577 -0.3457  0.7908  0.4167
15627SOL     OW52200   3.135   8.681  10.346 -0.2621 -0.3858  0.7069
15627SOL    HW152201   3.219   8.709  10.381  0.2141 -1.7461  0.7025
15627SOL    HW252202   3.123   8.592  10.381 -1.8057 -0.1266  0.9060
15628SOL     OW52203   8.661   4.530   0.449 -0.3568  0.5759  0.3020
15628SOL    HW152204   8.754   4.536   0.473 -0.8497  0.3952  2.4783
15628SOL    HW252205   8.660   4.476   0.371  1.3065 -0.2099  0.7767
15629SOL     OW52206   8.982   3.932   0.040  0.4911 -0.5040 -0.2067
15629SOL    HW152207   9.031   3.860   0.081 -1.0616 -0.4721  1.8440
15629SOL    HW252208   8.897   3.931   0.083 -0.3749  1.1621 -1.7491
15630SOL     OW52209   5.828   7.370   4.195 -0.6354  0.0792  0.5175
15630SOL    HW152210   5.816   7.276   4.181 -0.4603  0.2484 -0.9590
15630SOL    HW252211   5.739   7.406   4.199 -0.7040 -0.0576  0.2606
15631SOL     OW52212   9.381   0.041   7.013 -0.5539 -0.4516 -0.4155
15631SOL    HW152213   9.401   0.087   7.095 -0.8632 -0.4873 -0.3187
15631SOL    HW252214   9.291   0.065   6.994 -0.0524  0.6613 -1.4775
15632SOL     OW52215   8.408   4.162   9.002 -0.0637  0.0548  0.2964
15632SOL    HW152216   8.363   4.099   8.946 -1.9107  2.8601 -1.6394
15632SOL    HW252217   8.495   4.124   9.015 -0.6657 -2.2940 -1.7203
15633SOL     OW52218   8.220   3.721   2.300 -0.7745  0.3997  0.3298
15633SOL    HW152219   8.240   3.814   2.294 -0.7382  0.4025  0.5040
15633SOL    HW252220   8.141   3.716   2.354  0.0956  0.2239  1.6189
15634SOL     OW52221   6.382   7.860   5.225 -0.0478  0.0543 -0.1449
15634SOL    HW152222   6.297   7.890   5.192 -0.4993 -1.3893 -0.3832
15634SOL    HW252223   6.384   7.767   5.202  1.8280  0.1756 -0.6176
15635SOL     OW52224  11.157   3.099   2.221 -0.1656 -0.0842  0.4760
15635SOL    HW152225  11.066   3.070   2.216 -0.0993 -0.2992  0.4995
15635SOL    HW252226  11.208   3.018   2.227  0.1355 -0.0392 -0.9968
15636SOL     OW52227   8.784   6.444   4.608 -0.3035 -0.1978 -0.2019
15636SOL    HW152228   8.733   6.521   4.580 -2.1413 -0.8770  1.0595
15636SOL    HW252229   8.722   6.372   4.603  1.2716 -1.5682 -0.9177
15637SOL     OW52230  10.110   6.325   3.276 -0.1050 -0.5382  0.3598
15637SOL    HW152231  10.056   6.394   3.313  0.3258 -0.1906  0.3475
15637SOL    HW252232  10.134   6.270   3.351  0.8608  0.2293  0.6379
15638SOL     OW52233   1.873   5.192   4.393 -0.7931  0.1351  0.1650
15638SOL    HW152234   1.811   5.264   4.391  2.2952  3.0498 -1.1016
15638SOL    HW252235   1.873   5.157   4.304  1.1645  2.0601 -0.7098
15639SOL     OW52236   6.311   6.318   0.922 -0.1980  0.0090  0.1923
15639SOL    HW152237   6.281   6.233   0.954  1.9565 -0.6946  0.5015
15639SOL    HW252238   6.391   6.299   0.873  0.0883  1.8066 -0.1306
15640SOL     OW52239   1.588   1.555  11.787  0.5669  0.0852 -1.3831
15640SOL    HW152240   1.494   1.544  11.780  0.6322 -0.0072 -2.1297
15640SOL    HW252241   1.624   1.470  11.763  0.8972  0.5800 -2.7500
15641SOL     OW52242  10.901   6.967   5.820 -0.0670  0.9219  0.2866
15641SOL    HW152243  10.841   7.019   5.765 -2.3513 -1.2979  0.4572
15641SOL    HW252244  10.952   6.915   5.757 -0.3593  0.7682  0.1714
15642SOL     OW52245   4.668   2.241   6.391  0.0528 -0.4286 -0.2985
15642SOL    HW152246   4.619   2.166   6.425 -0.5671  0.8003  1.6897
15642SOL    HW252247   4.740   2.253   6.452 -0.5470  1.2905  0.1334
15643SOL     OW52248   3.660   0.149   9.274  0.0077  0.2320  0.3311
15643SOL    HW152249   3.737   0.192   9.235 -0.0543 -0.2939 -0.3917
15643SOL    HW252250   3.697   0.087   9.337  0.2647 -0.8497 -0.8323
15644SOL     OW52251   4.820   7.739   3.960  0.7052 -0.3030 -0.3444
15644SOL    HW152252   4.788   7.724   4.049  1.0487  0.5438 -0.0622
15644SOL    HW252253   4.913   7.759   3.972  0.6409  0.3322 -0.8334
15645SOL     OW52254   4.261  11.029   2.246 -0.5604  0.0197 -0.0996
15645SOL    HW152255   4.208  11.108   2.244 -0.2344  0.2345 -0.2188
15645SOL    HW252256   4.332  11.048   2.307 -0.8333 -0.4056  0.3580
15646SOL     OW52257   5.380   4.988   3.824  0.2702  0.6542  0.3776
15646SOL    HW152258   5.475   4.976   3.834  0.0236 -1.3246  0.8649
15646SOL    HW252259   5.367   5.083   3.825  2.1384  0.9501  1.3137
15647SOL     OW52260   5.426   5.114   1.475 -0.2389  0.3312 -0.0011
15647SOL    HW152261   5.520   5.127   1.490 -0.3778  0.4117  0.8354
15647SOL    HW252262   5.419   5.023   1.445  0.0378  0.1101  0.5913
15648SOL     OW52263   3.518  10.668  10.054 -0.1850 -0.5915 -0.3813
15648SOL    HW152264   3.475  10.620   9.984 -0.1214 -1.4269  0.1439
15648SOL    HW252265   3.582  10.606  10.090 -1.5004 -0.8562  1.6485
15649SOL     OW52266   0.181   9.515   7.527 -0.4489 -0.3209 -0.2617
15649SOL    HW152267   0.194   9.544   7.617  1.0834 -0.9117 -0.2674
15649SOL    HW252268   0.155   9.423   7.536  1.3519 -0.8795 -0.4465
15650SOL     OW52269   3.209   0.550   6.963  0.3996 -0.1667 -0.2221
15650SOL    HW152270   3.302   0.560   6.985  0.6758  0.8144 -1.7017
15650SOL    HW252271   3.207   0.487   6.892 -0.0058  0.2679 -0.6035
15651SOL     OW52272   4.451   8.541   8.307 -0.1857  0.0167 -1.1263
15651SOL    HW152273   4.547   8.549   8.314 -0.2478  1.4919 -1.4551
15651SOL    HW252274   4.428   8.471   8.368  0.9088  1.1290  0.6896
15652SOL     OW52275   5.074   7.936   2.083 -0.0795 -0.2066 -0.1991
15652SOL    HW152276   5.024   7.929   2.002 -2.9033 -1.3271  1.5269
15652SOL    HW252277   5.148   7.877   2.070  0.4224  0.7955 -2.4791
15653SOL     OW52278  10.148   1.822   2.617  0.0729  0.3533 -0.5991
15653SOL    HW152279  10.140   1.837   2.711  1.4636  2.4366 -0.7339
15653SOL    HW252280  10.119   1.732   2.604 -0.8593  0.2652  1.7050
15654SOL     OW52281  10.218  10.502  11.716 -0.4400  0.2763  0.1372
15654SOL    HW152282  10.171  10.534  11.639 -1.0491 -0.7853  0.0545
15654SOL    HW252283  10.305  10.477  11.683 -0.9793 -0.9643 -0.3807
15655SOL     OW52284   2.285   7.900   8.084  0.0875 -0.4865  0.1300
15655SOL    HW152285   2.213   7.892   8.147 -0.9465  1.2081 -0.7567
15655SOL    HW252286   2.351   7.951   8.129 -1.5557  2.6689 -0.7599
15656SOL     OW52287  11.388   0.699   9.167 -0.2727 -0.2437 -0.0739
15656SOL    HW152288  11.426   0.732   9.248 -2.1007  1.6890  0.0551
15656SOL    HW252289  11.334   0.625   9.194 -1.5993  0.9468  0.6578
15657SOL     OW52290  11.512   9.174   1.661 -0.0713 -0.0885 -0.4186
15657SOL    HW152291  11.551   9.255   1.691 -0.3693  0.0995 -0.5323
15657SOL    HW252292  11.492   9.189   1.568 -0.3986 -0.1859 -0.3652
15658SOL     OW52293   8.698   2.540   2.197  0.1981  0.0596  0.5215
15658SOL    HW152294   8.761   2.593   2.149  1.1558 -0.8656  0.7069
15658SOL    HW252295   8.640   2.603   2.240  1.0063  0.9280  0.3563
15659SOL     OW52296   5.817   2.412   8.846  0.3349 -0.3101 -0.0956
15659SOL    HW152297   5.760   2.487   8.866  1.4693  0.4284  0.5051
15659SOL    HW252298   5.860   2.392   8.929  0.2861 -1.4399 -0.3286
15660SOL     OW52299   7.357   6.209  10.007 -0.1134 -0.3362 -0.0207
15660SOL    HW152300   7.406   6.204   9.925 -0.6788 -2.7077 -0.2721
15660SOL    HW252301   7.401   6.278  10.056 -0.3270  1.8479 -2.6427
15661SOL     OW52302   3.321   6.138   0.121 -0.3437 -0.5038  0.0986
15661SOL    HW152303   3.276   6.081   0.059 -0.7162 -1.0515  0.8461
15661SOL    HW252304   3.309   6.094   0.206  1.7399 -0.7780  0.3074
15662SOL     OW52305   7.247   9.272  10.798  0.5471 -0.5385  0.1565
15662SOL    HW152306   7.199   9.246  10.719  0.4998 -1.4251  0.4663
15662SOL    HW252307   7.326   9.219  10.797  0.6751 -0.3598  0.5721
15663SOL     OW52308   5.203   5.807  11.584 -0.4001  0.2098 -0.1226
15663SOL    HW152309   5.123   5.812  11.531 -1.3252 -2.3227  0.9052
15663SOL    HW252310   5.206   5.716  11.614  3.3469 -0.0426 -0.8137
15664SOL     OW52311   1.416   1.959   9.513  0.1429 -0.2159  0.1298
15664SOL    HW152312   1.483   1.941   9.447 -2.2033 -2.8956 -1.7623
15664SOL    HW252313   1.444   1.911   9.590  0.3093 -1.5136 -0.7231
15665SOL     OW52314  10.290   9.426   6.140 -0.0953 -0.4158 -0.3947
15665SOL    HW152315  10.332   9.496   6.190 -1.9030 -0.0892  0.7849
15665SOL    HW252316  10.282   9.354   6.203 -0.1744 -0.9079 -0.9670
15666SOL     OW52317  10.911  10.533   1.224 -0.0426  0.2875  0.0155
15666SOL    HW152318  10.842  10.568   1.167 -1.6159  1.9927  2.7334
15666SOL    HW252319  10.992  10.550   1.176 -1.3283  0.3535 -2.2932
15667SOL     OW52320   3.819   6.400   5.125  0.1755  0.5729  0.0915
15667SOL    HW152321   3.905   6.412   5.085  0.0980  0.7273 -0.0318
15667SOL    HW252322   3.831   6.425   5.216 -0.0284  1.8405 -0.1964
15668SOL     OW52323  10.203   3.379   6.634  0.2570 -0.7111 -0.4546
15668SOL    HW152324  10.216   3.340   6.721  0.2805 -0.8656 -0.5272
15668SOL    HW252325  10.182   3.470   6.652  0.2814 -0.7381 -0.2859
15669SOL     OW52326  10.248  10.089   4.953  0.7437 -0.4250  0.6381
15669SOL    HW152327  10.299  10.084   5.033  0.2291 -2.8691  0.8809
15669SOL    HW252328  10.222   9.999   4.935  0.8247  0.0396 -2.2873
15670SOL     OW52329   5.615   0.958   7.885  0.0060 -0.1661 -0.8113
15670SOL    HW152330   5.618   0.863   7.888  0.4035 -0.1378  0.3787
15670SOL    HW252331   5.558   0.982   7.959  1.3549  0.5568  0.0273
15671SOL     OW52332   0.130   2.165   0.986 -0.0151 -0.0410  0.3685
15671SOL    HW152333   0.059   2.115   0.947 -0.0109 -0.7289  1.2039
15671SOL    HW252334   0.093   2.199   1.068  0.7238 -0.7276  1.0000
15672SOL     OW52335   3.003   0.556   2.946  0.3641 -0.2448  0.2475
15672SOL    HW152336   3.025   0.497   3.018  1.7184 -0.2097 -0.1193
15672SOL    HW252337   3.017   0.504   2.867  2.6029  0.8235 -0.1372
15673SOL     OW52338   3.198   3.191  11.429 -0.2841  0.0439 -0.0624
15673SOL    HW152339   3.158   3.153  11.507  0.5438 -0.6724  0.0398
15673SOL    HW252340   3.163   3.139  11.356  2.1567 -2.2256  0.2084
15674SOL     OW52341   2.069   9.274   0.964  0.3971  0.4620  0.1181
15674SOL    HW152342   2.119   9.327   1.027  2.3819 -2.2923  1.0105
15674SOL    HW252343   2.133   9.244   0.900 -0.9246  0.1482 -1.1241
15675SOL     OW52344   4.078   5.042   7.783 -0.0253  0.3899  0.0897
15675SOL    HW152345   4.167   5.023   7.755 -0.5441 -0.3598 -1.1375
15675SOL    HW252346   4.044   4.957   7.813 -0.7269  0.3829 -0.6692
15676SOL     OW52347   1.429  10.976   4.351 -0.1487  0.7276  0.3981
15676SOL    HW152348   1.342  10.959   4.314  0.6558  1.5091 -2.0344
15676SOL    HW252349   1.487  10.916   4.303  0.6421 -0.1530  2.3508
15677SOL     OW52350   8.802   5.344   0.168  0.1211 -0.4038 -0.3339
15677SOL    HW152351   8.724   5.399   0.174  0.3681  0.0316 -1.0563
15677SOL    HW252352   8.815   5.311   0.257 -1.0269 -0.6834 -0.2669
15678SOL     OW52353   4.602   4.085   6.673  0.1862  0.0865 -0.3826
15678SOL    HW152354   4.526   4.113   6.724 -0.7803 -1.5473 -0.8527
15678SOL    HW252355   4.650   4.166   6.655 -2.6199  1.5234 -1.9590
15679SOL     OW52356   8.730   2.183   0.758  0.4691 -0.6033 -0.0445
15679SOL    HW152357   8.771   2.127   0.824 -1.1746 -0.8633  0.8140
15679SOL    HW252358   8.643   2.202   0.794 -0.7468 -1.3112 -2.4308
15680SOL     OW52359   3.521  10.155   9.542  0.4935 -0.3017  0.5373
15680SOL    HW152360   3.448  10.093   9.534 -0.6534  0.8736  1.3806
15680SOL    HW252361   3.479  10.241   9.533  1.8984  0.3779  0.3357
15681SOL     OW52362   4.559   2.253   2.115 -0.0152 -0.3967 -0.5793
15681SOL    HW152363   4.555   2.257   2.210 -0.8316 -1.9561 -0.5167
15681SOL    HW252364   4.634   2.308   2.092  0.6774 -0.6224  1.0035
15682SOL     OW52365   8.744   4.104   7.836 -0.4437  0.1976 -0.4419
15682SOL    HW152366   8.655   4.138   7.828 -0.2586  0.6156 -0.7293
15682SOL    HW252367   8.769   4.124   7.926 -0.2529  1.0317 -0.6751
15683SOL     OW52368   3.337   8.318   2.295  0.5541  0.1868  0.2479
15683SOL    HW152369   3.281   8.241   2.299  3.2515 -1.9479  0.5686
15683SOL    HW252370   3.319   8.366   2.376 -1.5245  0.1970 -0.1853
15684SOL     OW52371   1.020   3.551  11.553  0.1318 -0.3126  0.8386
15684SOL    HW152372   1.080   3.477  11.549 -1.2822 -1.4468 -2.5317
15684SOL    HW252373   1.052   3.613  11.487 -0.9957  0.1952  0.7315
15685SOL     OW52374   8.189  11.663   6.289  0.7244 -0.2947 -0.0659
15685SOL    HW152375   8.268  11.610   6.274  0.5183 -0.6138 -0.0364
15685SOL    HW252376   8.222  11.750   6.311  1.0691  0.2793 -2.5627
15686SOL     OW52377   2.908   0.647   4.517 -0.9934  0.5252 -0.3085
15686SOL    HW152378   2.960   0.727   4.532 -2.3955  1.3125  0.6090
15686SOL    HW252379   2.904   0.606   4.603 -2.9155  1.1487 -0.0670
15687SOL     OW52380   3.236  11.643   0.305 -0.5259 -0.6822 -0.0543
15687SOL    HW152381   3.276  11.681   0.383  0.5936 -1.3450 -0.2793
15687SOL    HW252382   3.146  11.624   0.330 -0.0702 -1.2689  1.2101
15688SOL     OW52383   7.441   7.393   7.646 -0.3923  0.8218  0.7186
15688SOL    HW152384   7.502   7.465   7.665 -0.5419  1.7949 -1.9628
15688SOL    HW252385   7.476   7.318   7.693  1.2123  2.0653  1.6029
15689SOL     OW52386  11.361   5.625   5.906  0.3930  0.0415  0.2460
15689SOL    HW152387  11.293   5.681   5.944 -0.7052  0.3607 -2.0064
15689SOL    HW252388  11.317   5.542   5.889  0.7041  0.0613 -0.7142
15690SOL     OW52389   8.582   4.489   3.736  0.0348  0.2769  0.4175
15690SOL    HW152390   8.544   4.404   3.759  0.0081  0.3860  0.7772
15690SOL    HW252391   8.533   4.552   3.789 -0.4334  0.5978 -0.3671
15691SOL     OW52392   4.620  11.592  11.432  0.1962 -0.2762  0.6815
15691SOL    HW152393   4.712  11.571  11.418  0.2953  0.2247  0.5607
15691SOL    HW252394   4.605  11.672  11.380  0.2046  0.8076  2.2666
15692SOL     OW52395   5.726   8.418   7.872 -0.3532 -0.9949  0.5445
15692SOL    HW152396   5.648   8.416   7.927 -1.3588  0.2018 -0.7533
15692SOL    HW252397   5.693   8.429   7.783  1.2975  1.2594  0.1074
15693SOL     OW52398   5.705   4.330   1.760  0.4789  0.5445 -0.2246
15693SOL    HW152399   5.688   4.340   1.666  1.7275 -0.2366 -0.5657
15693SOL    HW252400   5.782   4.385   1.776  1.2954 -0.6320 -0.0215
15694SOL     OW52401   5.348   0.738   8.733  0.9866  0.3665  0.2035
15694SOL    HW152402   5.367   0.707   8.644  0.3698 -0.7227  0.4224
15694SOL    HW252403   5.276   0.800   8.722 -1.4126 -2.2134  0.1739
15695SOL     OW52404   5.632   6.592   8.840 -0.1828 -0.4227  0.1529
15695SOL    HW152405   5.561   6.634   8.791 -0.3287 -0.4928  0.3039
15695SOL    HW252406   5.651   6.512   8.791  1.6032  0.8657 -1.4153
15696SOL     OW52407  10.665   7.466   6.378  0.6053 -0.0613 -0.3123
15696SOL    HW152408  10.584   7.487   6.425  1.3970 -0.6465  1.3940
15696SOL    HW252409  10.654   7.376   6.350  0.3019  0.1556 -0.9057
15697SOL     OW52410   9.778   1.866   2.416  0.2225  0.0747 -0.5079
15697SOL    HW152411   9.799   1.874   2.323  2.2926 -0.5798 -0.1417
15697SOL    HW252412   9.844   1.921   2.460  1.6665 -2.4881  0.7532
15698SOL     OW52413   0.508   4.116   8.170  0.6317  0.2539  0.1704
15698SOL    HW152414   0.581   4.054   8.172  0.6010  0.0955 -2.0111
15698SOL    HW252415   0.437   4.069   8.127  0.4219  1.6004 -1.0269
15699SOL     OW52416   8.018  11.186   7.984  0.2831  0.0307 -0.6715
15699SOL    HW152417   8.044  11.277   7.996 -0.5021  0.1143  0.6116
15699SOL    HW252418   7.937  11.177   8.035  0.6839 -1.5521 -0.2493
15700SOL     OW52419   3.332   3.697   3.617 -0.8376  0.2664 -0.2217
15700SOL    HW152420   3.298   3.689   3.527 -0.6496 -1.4177 -0.1753
15700SOL    HW252421   3.298   3.620   3.662 -0.8887  1.0672  1.1705
15701SOL     OW52422   9.527   1.660  10.972  0.3364  0.0681  0.4545
15701SOL    HW152423   9.605   1.642  11.024  0.2066 -1.4617  0.1621
15701SOL    HW252424   9.538   1.606  10.893 -1.4684 -0.9806  0.8552
15702SOL     OW52425  11.575   5.596   1.168 -0.2240 -0.7941  0.0357
15702SOL    HW152426  11.499   5.586   1.226 -0.8788  0.0789 -0.6513
15702SOL    HW252427  11.605   5.685   1.182  0.7832 -1.1686  0.3925
15703SOL     OW52428   3.392   5.290   1.118 -0.0090 -0.2457  0.0106
15703SOL    HW152429   3.480   5.270   1.085 -0.3529 -1.6515 -0.1128
15703SOL    HW252430   3.407   5.354   1.188  0.9223  1.0276 -1.2985
15704SOL     OW52431   8.913   8.462   1.923 -0.6730  0.2585  0.4920
15704SOL    HW152432   8.937   8.554   1.913 -0.0784  0.1983  1.2525
15704SOL    HW252433   8.824   8.464   1.957 -1.0463  0.5267 -0.4834
15705SOL     OW52434   3.002  11.349  11.456  0.6941 -0.5092 -0.0003
15705SOL    HW152435   3.053  11.395  11.523  0.7826 -2.1013  1.0736
15705SOL    HW252436   3.059  11.278  11.426  0.0812 -0.7300 -0.6758
15706SOL     OW52437   0.542  11.706   5.529  0.3927 -0.0468 -0.4401
15706SOL    HW152438   0.452  11.698   5.561 -0.2579  1.1217 -1.8704
15706SOL    HW252439   0.594  11.718   5.608 -0.9904  1.3766  0.3246
15707SOL     OW52440   0.406   1.096   7.029  0.1233  0.8356 -0.2030
15707SOL    HW152441   0.387   1.187   7.049  0.0158  0.9766 -0.9427
15707SOL    HW252442   0.500   1.086   7.047  0.2726  1.2559 -0.7403
15708SOL     OW52443   5.446   5.485   4.526  0.6835 -0.1208  0.5220
15708SOL    HW152444   5.487   5.534   4.455  0.5002 -0.3310  0.2695
15708SOL    HW252445   5.472   5.394   4.510 -0.7010 -0.4153 -0.2367
15709SOL     OW52446   0.321   5.279   3.157 -0.3507 -0.1989  0.1376
15709SOL    HW152447   0.351   5.217   3.223 -0.1731  1.2091  1.4324
15709SOL    HW252448   0.236   5.308   3.189  0.1080  1.1283  0.1902
15710SOL     OW52449   3.778   4.644   7.839  0.1167  0.1307 -0.3436
15710SOL    HW152450   3.733   4.585   7.899  0.3298  0.1936 -0.1218
15710SOL    HW252451   3.742   4.622   7.753  0.7319 -0.8315 -0.3697
15711SOL     OW52452   9.052   9.219   0.740  0.2270  0.4958 -0.5053
15711SOL    HW152453   9.056   9.156   0.667 -0.5332 -1.4848  1.0717
15711SOL    HW252454   9.030   9.166   0.816  2.6891  2.1845  1.5633
15712SOL     OW52455   7.761   6.118   6.108 -0.8665 -0.2086  0.0124
15712SOL    HW152456   7.729   6.068   6.183 -0.9423 -1.0665 -0.5732
15712SOL    HW252457   7.773   6.052   6.039  1.0831  0.2386 -0.1343
15713SOL     OW52458   2.414   3.458  11.763 -0.4248  0.0957  0.5175
15713SOL    HW152459   2.345   3.448  11.698  0.9932 -1.5757 -0.8355
15713SOL    HW252460   2.428   3.552  11.770 -2.2782  0.4242  0.2733
15714SOL     OW52461   7.105   5.394   3.222  0.0294 -0.8086  0.0782
15714SOL    HW152462   7.155   5.319   3.191 -0.5072 -1.3024  0.3946
15714SOL    HW252463   7.170   5.463   3.235  0.3009 -0.5799 -2.0973
15715SOL     OW52464   3.586   4.311   5.655  0.0037  0.3378  0.4292
15715SOL    HW152465   3.628   4.296   5.740  0.7317  1.3308  0.2705
15715SOL    HW252466   3.508   4.363   5.675  0.3392  0.8329  0.4700
15716SOL     OW52467   8.990   2.704   5.700 -0.1240 -0.2210 -0.9317
15716SOL    HW152468   8.999   2.711   5.795 -1.7462 -0.8039 -0.7054
15716SOL    HW252469   8.983   2.795   5.671 -1.5873 -0.0780 -0.2409
15717SOL     OW52470   4.764   0.730   4.940 -0.0094 -0.0833  0.4953
15717SOL    HW152471   4.707   0.787   4.992 -0.0924 -0.4442  0.8052
15717SOL    HW252472   4.850   0.774   4.942 -0.5839  1.2355 -1.2004
15718SOL     OW52473   6.033  10.011   6.158 -0.2573 -0.3110  0.6519
15718SOL    HW152474   6.102  10.062   6.116 -0.6167  0.7928  1.3696
15718SOL    HW252475   6.055  10.014   6.251 -1.3055  0.1245  0.9025
15719SOL     OW52476   2.405   6.624   1.894 -0.1054 -1.0447  0.1032
15719SOL    HW152477   2.312   6.642   1.878  0.3704  1.1103 -0.5154
15719SOL    HW252478   2.427   6.557   1.829 -0.7616 -0.0991 -1.1323
15720SOL     OW52479   2.159   4.356   8.911  0.3814  0.5311  0.6339
15720SOL    HW152480   2.209   4.425   8.868  0.9519  1.6064  2.8449
15720SOL    HW252481   2.161   4.282   8.850  0.3898  2.1973 -1.4849
15721SOL     OW52482   2.725  10.066  10.172  0.1507 -0.5925  0.2181
15721SOL    HW152483   2.664  10.089  10.243 -1.5389 -1.6415 -0.8078
15721SOL    HW252484   2.677  10.088  10.092  1.8526  0.1673 -0.6251
15722SOL     OW52485   6.621  10.632   2.367  0.1266 -0.2978  0.4121
15722SOL    HW152486   6.681  10.656   2.437 -0.5162  1.9681  0.2545
15722SOL    HW252487   6.668  10.565   2.317  0.8461 -1.4890  2.5964
15723SOL     OW52488   1.610   8.090   2.595 -0.0238  0.3750 -0.0285
15723SOL    HW152489   1.686   8.133   2.555  1.3789 -0.9209  1.1000
15723SOL    HW252490   1.535   8.141   2.565  1.4000  2.5947 -0.0577
15724SOL     OW52491   6.387   0.369   9.660  0.3188 -0.2636 -0.2349
15724SOL    HW152492   6.404   0.438   9.725 -1.0269 -2.1836  2.3436
15724SOL    HW252493   6.292   0.358   9.663  0.0989  0.0567 -3.1931
15725SOL     OW52494   5.013   9.571   3.795 -0.5245 -0.7143 -0.3175
15725SOL    HW152495   4.982   9.649   3.841 -0.7071 -0.5327 -0.7443
15725SOL    HW252496   5.017   9.503   3.862  1.5461  0.1375  0.5259
15726SOL     OW52497   8.585   5.531   3.163  0.0578  0.9808 -0.0478
15726SOL    HW152498   8.648   5.584   3.212  1.9560  1.5849 -2.8895
15726SOL    HW252499   8.633   5.451   3.142 -0.7787  0.6271 -0.6592
15727SOL     OW52500   6.060   8.894   4.902 -0.0260  0.2291  0.4648
15727SOL    HW152501   6.136   8.840   4.881  0.7099  0.3499  2.5611
15727SOL    HW252502   6.082   8.981   4.870  0.6420  0.2054  0.8354
15728SOL     OW52503   6.809   8.020   2.578  0.3923 -0.1516  0.1915
15728SOL    HW152504   6.904   8.028   2.571  0.3806  0.7201  0.9116
15728SOL    HW252505   6.785   7.957   2.510  1.2257  1.3565 -1.5719
15729SOL     OW52506   6.030  10.473  10.792 -0.3666 -0.8034 -0.0271
15729SOL    HW152507   6.083  10.545  10.825 -0.8806  0.3725 -1.6466
15729SOL    HW252508   6.092  10.404  10.770  0.3182 -0.0817 -0.3545
15730SOL     OW52509   2.680   2.438   6.971 -0.1288 -0.2057  0.4113
15730SOL    HW152510   2.761   2.471   7.011 -0.0088  1.4295 -1.0762
15730SOL    HW252511   2.698   2.438   6.877 -1.6635 -0.3681  0.0952
15731SOL     OW52512   7.350   8.397   0.007  0.0972 -0.2312  0.6644
15731SOL    HW152513   7.439   8.363  -0.001  0.3871  0.7996 -1.0686
15731SOL    HW252514   7.357   8.469   0.070  0.7101  0.4869 -0.2112
15732SOL     OW52515  11.160   6.785   6.977 -0.0961  0.4187 -0.1638
15732SOL    HW152516  11.204   6.767   7.061  0.1430 -0.0871 -0.3894
15732SOL    HW252517  11.222   6.841   6.930 -0.1758  0.6026 -0.0507
15733SOL     OW52518   4.415   6.376   0.520  0.0610 -0.2362 -0.0941
15733SOL    HW152519   4.457   6.395   0.604  0.9092 -0.1224 -0.5328
15733SOL    HW252520   4.483   6.336   0.467  0.0666  1.2902 -1.3311
15734SOL     OW52521   0.854   8.279   1.411  0.4679 -0.5103 -0.6767
15734SOL    HW152522   0.919   8.212   1.433 -1.8239 -2.3937  0.8887
15734SOL    HW252523   0.844   8.331   1.490 -0.6189 -0.9051 -0.5278
15735SOL     OW52524   8.666   6.818   6.126 -0.1883 -0.1316  0.8244
15735SOL    HW152525   8.690   6.734   6.167 -0.6946 -0.7460 -0.0913
15735SOL    HW252526   8.570   6.817   6.125 -0.2054  0.6154  1.0905
15736SOL     OW52527   5.608   1.273   0.588  0.3113  0.0381  0.1500
15736SOL    HW152528   5.646   1.217   0.656 -0.3641  0.2720  0.7355
15736SOL    HW252529   5.562   1.341   0.636 -1.6741 -0.7707 -0.4943
15737SOL     OW52530   7.898   4.611   4.722 -0.1608 -0.7359 -0.8607
15737SOL    HW152531   7.949   4.679   4.764  0.0565 -0.9406 -0.7952
15737SOL    HW252532   7.865   4.652   4.641 -0.4553 -0.3938 -0.5698
15738SOL     OW52533   2.545   5.943   2.171  0.4778  0.4183  0.2227
15738SOL    HW152534   2.496   5.951   2.252  0.6325 -2.2910  0.6854
15738SOL    HW252535   2.636   5.931   2.199  0.3682 -1.8472 -0.1923
15739SOL     OW52536   4.042   4.572   0.343  0.3691 -0.4700 -0.1735
15739SOL    HW152537   4.041   4.637   0.414 -0.1985 -0.0515 -0.5519
15739SOL    HW252538   4.003   4.494   0.382  1.3718 -0.7082  0.3850
15740SOL     OW52539   3.147   4.421   7.101  0.7983 -0.1605 -0.2011
15740SOL    HW152540   3.201   4.497   7.121  0.6661 -0.3227  0.8179
15740SOL    HW252541   3.085   4.452   7.035  0.9514  0.5241 -0.0256
15741SOL     OW52542   5.404   7.893  10.479 -0.2706  0.0677  0.3912
15741SOL    HW152543   5.363   7.806  10.475  0.0309 -0.0561 -0.0287
15741SOL    HW252544   5.436   7.900  10.568 -0.6775 -0.0788  0.5526
15742SOL     OW52545   2.217   5.263  11.616 -0.4698 -0.2728 -0.2222
15742SOL    HW152546   2.122   5.275  11.614 -0.3888  0.9706  1.4578
15742SOL    HW252547   2.243   5.284  11.706  1.4501 -0.1252 -0.7482
15743SOL     OW52548   9.570   2.833   7.573  0.2636 -0.9391  0.2066
15743SOL    HW152549   9.596   2.845   7.665  0.2239 -0.3656  0.1503
15743SOL    HW252550   9.474   2.833   7.575  0.2583 -0.3886  0.1067
15744SOL     OW52551   9.176   2.034   9.304 -0.1453 -0.3450  0.2249
15744SOL    HW152552   9.150   2.110   9.356 -0.8969 -0.3560 -0.1247
15744SOL    HW252553   9.204   1.969   9.369  2.5629  0.9208  0.4592
15745SOL     OW52554   4.924   4.839   1.345 -0.1965 -0.3911  0.0240
15745SOL    HW152555   4.957   4.857   1.257  0.5774  0.8851  0.5526
15745SOL    HW252556   4.848   4.896   1.354  0.1957  0.0727  0.4536
15746SOL     OW52557   1.177   9.104   3.418 -0.2042 -0.2766  0.2000
15746SOL    HW152558   1.097   9.053   3.400 -0.8530  0.9022 -0.3740
15746SOL    HW252559   1.216   9.118   3.332  0.3385 -0.3588  0.4248
15747SOL     OW52560   2.102  10.213  10.627 -0.4327 -0.5066 -0.6153
15747SOL    HW152561   2.015  10.193  10.662 -0.0823 -0.7496  0.1294
15747SOL    HW252562   2.159  10.147  10.665  0.5208  1.0736  0.8614
15748SOL     OW52563   0.126   7.143   9.243  0.1824 -0.2656 -0.3632
15748SOL    HW152564   0.153   7.187   9.161 -0.6780 -1.2300 -1.1890
15748SOL    HW252565   0.047   7.096   9.219 -0.4972  0.0289  1.2475
15749SOL     OW52566   7.104   6.716   0.665  0.5390 -0.3225 -0.4204
15749SOL    HW152567   7.041   6.647   0.687  0.3315 -0.1953 -0.6118
15749SOL    HW252568   7.190   6.677   0.683  0.3783 -0.2364  0.5614
15750SOL     OW52569  11.170   2.896  11.730  0.0338  0.0824 -0.4589
15750SOL    HW152570  11.150   2.828  11.665  0.1669  0.7909 -1.2667
15750SOL    HW252571  11.262   2.917  11.715  0.1523  0.0360  0.1802
15751SOL     OW52572   7.193   7.730   4.930  0.1175 -0.0641  0.0093
15751SOL    HW152573   7.171   7.810   4.978  0.5143  0.4229 -0.5933
15751SOL    HW252574   7.115   7.675   4.937  0.0678  0.1206  0.9478
15752SOL     OW52575  10.875   7.600   0.312 -0.2547 -0.3096 -0.0676
15752SOL    HW152576  10.954   7.620   0.261 -0.7263  1.9934 -0.0042
15752SOL    HW252577  10.803   7.637   0.261 -0.8939  0.7038  1.4884
15753SOL     OW52578   1.760   9.573  10.330 -0.3409  0.1417 -0.1701
15753SOL    HW152579   1.751   9.658  10.372 -1.5106 -1.1653  2.4860
15753SOL    HW252580   1.685   9.568  10.270 -0.6733  0.6735  0.1979
15754SOL     OW52581   9.265  11.550   8.431 -0.0900  0.4937  0.5478
15754SOL    HW152582   9.205  11.545   8.357 -1.6023  1.8768  1.6174
15754SOL    HW252583   9.209  11.548   8.508  1.3766  0.1442  1.6566
15755SOL     OW52584   5.148   0.335   0.488  0.1472 -0.1020 -0.4844
15755SOL    HW152585   5.093   0.379   0.424 -0.2810  0.5251  0.2995
15755SOL    HW252586   5.235   0.332   0.448 -0.0195  0.6841 -0.9074
15756SOL     OW52587   3.036  10.795   9.691 -0.0911  0.1135  1.2530
15756SOL    HW152588   3.099  10.779   9.761  0.7163 -0.1854  0.4743
15756SOL    HW252589   3.088  10.833   9.620 -0.4613 -1.5697  0.0062
15757SOL     OW52590   0.108   8.096   2.892  0.1542  0.9006 -0.2842
15757SOL    HW152591   0.070   8.010   2.911 -0.2701  1.1948  0.2144
15757SOL    HW252592   0.191   8.096   2.939  0.2285  0.7038 -0.4136
15758SOL     OW52593   4.496   0.707   1.883 -1.0489  0.3162  0.4064
15758SOL    HW152594   4.534   0.623   1.857 -0.9484  0.2924  0.6265
15758SOL    HW252595   4.416   0.684   1.930 -0.2808  0.2707  1.7445
15759SOL     OW52596   0.838   7.873   6.952  0.4199  0.2586 -0.0916
15759SOL    HW152597   0.890   7.883   6.873  0.3371 -0.8966 -0.3131
15759SOL    HW252598   0.821   7.779   6.958 -0.4818  0.4551  0.7193
15760SOL     OW52599   3.487   0.332  11.361 -0.5219  0.3076 -0.6600
15760SOL    HW152600   3.562   0.338  11.301  0.0570  0.6888  0.0904
15760SOL    HW252601   3.412   0.353  11.306 -0.0294  0.4326 -1.3126
15761SOL     OW52602   9.747   0.492   3.672  0.1872 -0.0862  0.1134
15761SOL    HW152603   9.662   0.535   3.671  0.2113 -0.0393  0.0697
15761SOL    HW252604   9.774   0.494   3.764  0.5219  0.6525  0.0027
15762SOL     OW52605  11.756   6.393   5.375  0.1856  0.5391 -0.5921
15762SOL    HW152606  11.669   6.424   5.349  0.2167  0.9330 -0.2479
15762SOL    HW252607  11.741   6.341   5.453  0.4514  2.2608  0.6674
15763SOL     OW52608   6.432   8.443   5.799  0.0032 -0.2146 -0.2262
15763SOL    HW152609   6.477   8.463   5.717  0.7795 -0.3447  0.1627
15763SOL    HW252610   6.501   8.446   5.866 -0.8457  1.2831  0.6378
15764SOL     OW52611   4.845   5.148   2.527  0.1596 -0.4517  0.2062
15764SOL    HW152612   4.892   5.216   2.478 -1.5919  0.4798 -0.2403
15764SOL    HW252613   4.878   5.156   2.616  0.5125  0.5017  0.0061
15765SOL     OW52614   2.304   5.643   6.571 -0.1188 -0.7888 -0.4065
15765SOL    HW152615   2.385   5.605   6.538 -0.2637 -0.3515 -1.3078
15765SOL    HW252616   2.235   5.585   6.537 -0.2895 -0.1652 -1.1678
15766SOL     OW52617   6.443  11.148   4.172 -0.2970  0.1992 -0.9669
15766SOL    HW152618   6.519  11.201   4.196  0.8414 -1.3545 -0.9110
15766SOL    HW252619   6.460  11.063   4.214 -2.0372 -0.2180 -1.0297
15767SOL     OW52620   2.822   1.525   5.383 -0.1396  0.3411 -0.4748
15767SOL    HW152621   2.798   1.555   5.296 -2.0767  0.0860 -0.0573
15767SOL    HW252622   2.886   1.590   5.414  1.4884 -0.1978 -2.4785
15768SOL     OW52623   2.634  10.406   7.088 -0.3666 -0.0982 -0.1105
15768SOL    HW152624   2.714  10.413   7.036 -1.1018  0.6192 -1.1718
15768SOL    HW252625   2.665  10.391   7.177  0.9430  0.0088 -0.5262
15769SOL     OW52626   5.147   9.170   1.931 -0.4493 -0.1522 -0.0674
15769SOL    HW152627   5.213   9.166   2.000 -0.8276  0.5134  0.3337
15769SOL    HW252628   5.159   9.088   1.882  1.1066  0.2449 -0.4034
15770SOL     OW52629   6.846   1.079   0.365  0.2490  0.1915  0.1525
15770SOL    HW152630   6.822   0.993   0.399  1.1876  0.0337  0.4445
15770SOL    HW252631   6.773   1.135   0.389 -0.0124 -0.3515  0.6594
15771SOL     OW52632   2.419  10.302   4.094 -0.3878  0.3319 -0.3019
15771SOL    HW152633   2.423  10.397   4.111 -2.5726  0.1101  2.1518
15771SOL    HW252634   2.427  10.262   4.181  2.1047 -1.8928 -1.4263
15772SOL     OW52635   9.054   7.336  10.209 -0.4807  0.1820  0.3956
15772SOL    HW152636   9.042   7.246  10.242  0.4318 -0.2626 -0.4167
15772SOL    HW252637   8.968   7.361  10.176 -1.0292  0.0456  1.6539
15773SOL     OW52638   7.584   1.314   0.333 -0.2165 -0.2199 -0.2186
15773SOL    HW152639   7.489   1.318   0.319 -0.2611  0.4186  0.2012
15773SOL    HW252640   7.619   1.389   0.285 -0.1761  0.8586  1.3979
15774SOL     OW52641   9.139   5.673   9.873  0.8786 -0.1170  0.0332
15774SOL    HW152642   9.162   5.664   9.966 -0.2487  0.5019  0.3804
15774SOL    HW252643   9.124   5.584   9.843 -0.9620 -0.1831  1.0395
15775SOL     OW52644   9.457  11.519  10.018  0.1287 -0.2257 -0.2662
15775SOL    HW152645   9.486  11.569  10.094  2.2515 -0.7857 -0.6560
15775SOL    HW252646   9.477  11.575   9.943  1.8328 -1.2944 -0.6544
15776SOL     OW52647   9.514   1.786   5.445 -0.2210  0.3518  0.8929
15776SOL    HW152648   9.454   1.776   5.371  0.1738  2.5171  0.2096
15776SOL    HW252649   9.579   1.717   5.432  0.2320  1.1062 -1.2182
15777SOL     OW52650   0.710   0.974   0.844 -0.1043  0.2426  0.2569
15777SOL    HW152651   0.787   0.992   0.898  0.4674 -0.7451 -0.2029
15777SOL    HW252652   0.736   1.000   0.756 -0.9621  1.6497  0.3837
15778SOL     OW52653   7.055   1.904   8.879 -0.0435  0.1706 -0.0037
15778SOL    HW152654   6.972   1.928   8.837  1.3805  1.9700 -2.0106
15778SOL    HW252655   7.116   1.889   8.806  2.1165  1.7296  1.3493
15779SOL     OW52656   4.891   3.361   8.810  0.4742 -0.5550 -0.3611
15779SOL    HW152657   4.911   3.321   8.895  1.2870  0.4665 -0.0471
15779SOL    HW252658   4.798   3.382   8.814  0.3335 -1.2305 -0.0308
15780SOL     OW52659   8.439   5.891   3.372  0.1300  0.0740 -0.2882
15780SOL    HW152660   8.389   5.836   3.312  0.6169 -0.3558 -0.3017
15780SOL    HW252661   8.389   5.973   3.376  1.3531  1.0986 -3.2081
15781SOL     OW52662   6.656   9.362   5.828 -0.3875 -0.3133  0.4204
15781SOL    HW152663   6.680   9.291   5.887 -0.0820 -1.2625 -0.8128
15781SOL    HW252664   6.712   9.435   5.853  3.1843 -2.0914 -1.6364
15782SOL     OW52665  11.204   6.434   1.613 -0.1733 -0.3129  0.8364
15782SOL    HW152666  11.215   6.508   1.674  0.7085  0.1291  0.1659
15782SOL    HW252667  11.120   6.451   1.570 -0.9378 -0.7679  2.0955
15783SOL     OW52668   2.205   2.499   7.416 -0.2149  0.3342 -0.1006
15783SOL    HW152669   2.244   2.572   7.464 -2.2618  1.3861  0.0637
15783SOL    HW252670   2.189   2.433   7.483 -1.3650  1.0703  0.3856
15784SOL     OW52671   7.993   1.913   3.632 -0.3715  0.2393  0.8885
15784SOL    HW152672   8.020   1.932   3.722  0.7548  0.5856  0.4930
15784SOL    HW252673   8.006   1.996   3.585 -0.5735 -0.0478  0.3188
15785SOL     OW52674   1.516   0.249  11.622  0.1273 -0.3998 -0.4212
15785SOL    HW152675   1.560   0.334  11.613 -0.1459 -0.0935  0.8494
15785SOL    HW252676   1.441   0.254  11.563 -0.1773  0.4666  0.0102
15786SOL     OW52677  10.531   2.730   0.561 -0.4450  0.6728  0.1529
15786SOL    HW152678  10.568   2.813   0.591  0.8252  0.1740  0.0286
15786SOL    HW252679  10.595   2.697   0.498 -0.9467 -0.3950  0.1900
15787SOL     OW52680   6.993   4.800   0.143  0.6867 -0.1614  0.5631
15787SOL    HW152681   7.072   4.746   0.135  1.4168  1.0771 -1.2562
15787SOL    HW252682   7.025   4.884   0.175  0.4502  0.9264 -1.8417
15788SOL     OW52683   4.132   7.476   8.275  0.1775  0.4667 -0.7528
15788SOL    HW152684   4.092   7.395   8.307 -0.6137  1.1704  0.0819
15788SOL    HW252685   4.076   7.545   8.309  2.1217  1.5049  0.5091
15789SOL     OW52686   2.821  10.691   5.587 -0.5977 -0.4158 -0.5128
15789SOL    HW152687   2.804  10.631   5.514 -1.0132  0.5869 -1.2565
15789SOL    HW252688   2.734  10.717   5.618 -0.4219 -0.4332  0.0147
15790SOL     OW52689   8.134   0.405   2.353  0.4053  0.0144 -0.0418
15790SOL    HW152690   8.117   0.317   2.317  0.9898  0.0937 -0.5279
15790SOL    HW252691   8.205   0.439   2.299  0.7718  0.4473  0.7108
15791SOL     OW52692   7.942   1.414   0.192  0.0248 -0.9970  0.4162
15791SOL    HW152693   7.878   1.379   0.255 -1.1564 -1.6522 -1.0886
15791SOL    HW252694   7.928   1.508   0.193 -1.6795 -1.2148 -0.6042
15792SOL     OW52695   7.211   2.938  10.129  0.6165  0.1024 -0.0081
15792SOL    HW152696   7.205   2.848  10.098 -0.4207 -0.5313  1.8803
15792SOL    HW252697   7.304   2.949  10.152  0.7887 -0.4094 -0.4289
15793SOL     OW52698   9.458   3.154  10.829 -0.1668 -0.3814  0.0913
15793SOL    HW152699   9.395   3.200  10.774 -1.3043 -0.1449  1.5570
15793SOL    HW252700   9.474   3.072  10.783 -1.7460 -0.5542 -0.1921
15794SOL     OW52701   7.924   6.155   5.065  0.3742 -1.2491 -0.4370
15794SOL    HW152702   7.972   6.157   5.148 -0.7471 -1.1905  0.2275
15794SOL    HW252703   7.945   6.238   5.023 -1.5443  0.1779  1.2719
15795SOL     OW52704   1.820   9.172   4.640  0.2968 -0.5155 -0.9848
15795SOL    HW152705   1.747   9.112   4.658  1.5286 -2.2026 -1.3238
15795SOL    HW252706   1.898   9.117   4.647  1.8601  1.7549  2.1588
15796SOL     OW52707   4.059   1.451  10.780 -0.3236 -0.0972 -0.3705
15796SOL    HW152708   4.114   1.392  10.729 -0.8621 -0.0941 -0.9666
15796SOL    HW252709   4.115   1.525  10.800  0.3020 -0.7104  0.2126
15797SOL     OW52710   5.895   3.057   4.152  0.5871  0.0757 -0.5467
15797SOL    HW152711   5.808   3.021   4.133  0.3048  0.3906  0.1370
15797SOL    HW252712   5.944   2.983   4.189 -0.1904  0.4894  1.4591
15798SOL     OW52713  10.233   3.650   7.540 -0.3698 -0.6504  0.0742
15798SOL    HW152714  10.294   3.644   7.467 -1.2922 -0.2916 -0.7484
15798SOL    HW252715  10.164   3.709   7.510 -0.3916  0.1146  1.5215
15799SOL     OW52716   1.244   9.307   0.249  1.2185 -0.6216  0.0176
15799SOL    HW152717   1.291   9.247   0.308  0.9885 -0.3071  0.5243
15799SOL    HW252718   1.156   9.312   0.286  0.6927 -1.4101 -1.0766
15800SOL     OW52719   7.177   8.800   7.036  0.7080 -0.2032  0.0510
15800SOL    HW152720   7.222   8.817   7.119 -0.9411  0.9301  0.7511
15800SOL    HW252721   7.118   8.873   7.025  0.3372 -0.7342 -1.7695
15801SOL     OW52722   0.033   4.575   6.662  0.1067  0.1432 -0.0393
15801SOL    HW152723  -0.000   4.502   6.714  1.5290  0.9440  2.1766
15801SOL    HW252724  -0.026   4.648   6.682  0.3722  0.3278  0.0848
15802SOL     OW52725  10.621   1.139   6.581 -0.3109 -0.0899  0.3384
15802SOL    HW152726  10.599   1.076   6.513  0.6263  0.9334 -0.9892
15802SOL    HW252727  10.572   1.218   6.557  0.1258  0.3213  0.7762
15803SOL     OW52728   3.760   6.555   2.142 -0.0682 -0.2223  0.1123
15803SOL    HW152729   3.831   6.615   2.167 -0.5476 -0.4055  2.1571
15803SOL    HW252730   3.705   6.607   2.083  0.8466  0.4997 -0.1326
15804SOL     OW52731   2.938   7.354   4.602  0.2960 -0.3061  0.0028
15804SOL    HW152732   3.011   7.315   4.554  0.2433 -1.4411  0.8188
15804SOL    HW252733   2.974   7.435   4.639  0.3284  0.6229 -1.9182
15805SOL     OW52734   7.360  11.241   3.578 -0.3462 -0.3747 -0.6525
15805SOL    HW152735   7.277  11.243   3.532 -0.0855 -0.6293 -1.1387
15805SOL    HW252736   7.407  11.167   3.540  0.2798  0.0328 -0.6880
15806SOL     OW52737   0.927   8.477   4.828 -0.0233 -0.7164 -0.0659
15806SOL    HW152738   0.958   8.516   4.909 -0.7002  0.1649 -0.2181
15806SOL    HW252739   0.872   8.404   4.856 -2.3916  1.1492  0.3887
15807SOL     OW52740   2.286  11.678   0.770 -0.6407  0.3535  0.0472
15807SOL    HW152741   2.194  11.684   0.748 -1.1001 -2.9205  0.5635
15807SOL    HW252742   2.331  11.678   0.685 -1.1855  0.9581 -0.2493
15808SOL     OW52743   6.590   5.873   3.457  0.1425  0.7102 -0.5150
15808SOL    HW152744   6.547   5.795   3.421 -0.5484  0.9691 -0.2774
15808SOL    HW252745   6.675   5.877   3.414  0.3680 -0.4321 -0.2017
15809SOL     OW52746   9.854   4.412   3.651  0.0426  0.1449  0.1177
15809SOL    HW152747   9.838   4.324   3.687 -0.2419 -0.3062 -1.0728
15809SOL    HW252748   9.939   4.405   3.609 -0.0400  0.3985 -0.0925
15810SOL     OW52749   7.727  10.792   2.936  0.2813  0.1201 -0.0028
15810SOL    HW152750   7.742  10.709   2.891 -1.1658  0.3304 -0.9149
15810SOL    HW252751   7.782  10.855   2.889 -0.3286  0.1092 -0.7317
15811SOL     OW52752   4.830  11.074   1.399  0.2809  0.2638  0.0075
15811SOL    HW152753   4.855  11.073   1.306  1.2960 -1.6671  0.2579
15811SOL    HW252754   4.883  11.145   1.436  1.4463 -0.3032 -0.5127
15812SOL     OW52755   2.757  10.425   2.419 -0.4846  0.0500 -0.0655
15812SOL    HW152756   2.751  10.450   2.511  0.0799  0.1061 -0.0413
15812SOL    HW252757   2.851  10.424   2.400 -0.5009 -1.5535 -0.2060
15813SOL     OW52758   7.150  11.726   2.685 -0.2690 -0.2085 -0.0071
15813SOL    HW152759   7.190  11.656   2.632 -0.2323 -0.0774 -0.1559
15813SOL    HW252760   7.123  11.683   2.765 -1.4527 -0.6715 -0.6381
15814SOL     OW52761   1.881   3.968   3.546 -0.5928  0.4733  0.1279
15814SOL    HW152762   1.910   3.878   3.529 -2.1186  0.0803 -0.6276
15814SOL    HW252763   1.824   3.988   3.472 -1.6231  1.4445  1.1484
15815SOL     OW52764   2.205   3.257   1.480 -0.0841 -1.0437 -0.0952
15815SOL    HW152765   2.175   3.348   1.490 -2.1029 -1.1991 -3.1721
15815SOL    HW252766   2.181   3.215   1.562  2.5425  1.4496  2.1968
15816SOL     OW52767   8.431   4.400   5.868 -0.5132  0.6079  0.1544
15816SOL    HW152768   8.473   4.469   5.920  1.4480 -1.1441  1.0517
15816SOL    HW252769   8.430   4.324   5.926  0.2748 -0.9821 -1.7849
15817SOL     OW52770   8.148   4.468   2.671 -0.2375 -0.2744 -0.3911
15817SOL    HW152771   8.168   4.501   2.584  0.5144 -0.6397 -0.3728
15817SOL    HW252772   8.164   4.374   2.666  1.7375 -0.0559  0.6164
15818SOL     OW52773   9.887   8.119   3.546 -0.0118 -0.3759  0.0116
15818SOL    HW152774   9.982   8.111   3.538  0.1344  0.3029  0.9667
15818SOL    HW252775   9.859   8.153   3.461  0.8796  1.6174  0.4615
15819SOL     OW52776   1.255   6.070   4.441 -0.3515 -0.2569  0.1177
15819SOL    HW152777   1.340   6.034   4.419 -0.5005  0.3366 -1.5470
15819SOL    HW252778   1.264   6.099   4.532  0.7648 -1.4506  0.4150
15820SOL     OW52779  10.674   7.308   9.602 -0.3555  0.1822  0.0044
15820SOL    HW152780  10.604   7.294   9.537  0.2834  0.4695 -0.7625
15820SOL    HW252781  10.658   7.396   9.636 -0.2335  0.3416 -0.3437
15821SOL     OW52782   5.732   1.936   0.331  0.0924  0.5978 -0.3883
15821SOL    HW152783   5.802   2.001   0.319  0.0070  0.7159 -0.2548
15821SOL    HW252784   5.688   1.964   0.411 -0.2377  0.6413 -0.5838
15822SOL     OW52785   5.728  11.330   3.372 -0.0344  0.0554 -0.5087
15822SOL    HW152786   5.685  11.258   3.327  0.9832  0.2322 -1.8373
15822SOL    HW252787   5.685  11.409   3.339 -0.4692  0.1229  0.1874
15823SOL     OW52788   0.962  11.524   5.844  0.1946  0.1085 -0.6241
15823SOL    HW152789   0.972  11.436   5.809 -1.5108  0.6051 -2.4868
15823SOL    HW252790   1.037  11.572   5.809 -0.3863  0.0828 -1.9188
15824SOL     OW52791   7.627   4.545   6.368  0.5814 -0.3113 -0.6483
15824SOL    HW152792   7.623   4.534   6.463  0.0825 -0.3738 -0.6775
15824SOL    HW252793   7.636   4.640   6.355  2.7944 -0.4253 -0.4733
15825SOL     OW52794  10.199   4.807   8.060  0.0764 -0.2450  0.2995
15825SOL    HW152795  10.162   4.894   8.073  1.6577  0.3945  0.6863
15825SOL    HW252796  10.228   4.780   8.147 -0.4002 -1.1812  0.1870
15826SOL     OW52797  11.252   5.796   9.370  0.3344  0.2472 -0.3160
15826SOL    HW152798  11.315   5.869   9.365  0.6628  0.1548  1.4972
15826SOL    HW252799  11.170   5.838   9.397  0.7546 -0.1056  1.6601
15827SOL     OW52800   7.192   8.251   5.003  0.0749 -0.0662  0.2597
15827SOL    HW152801   7.153   8.270   5.089  0.9849 -2.2952  1.2619
15827SOL    HW252802   7.237   8.332   4.979 -1.9311  1.3096  0.8456
15828SOL     OW52803   9.267   9.274   5.062  0.3147  0.3542 -0.5476
15828SOL    HW152804   9.300   9.187   5.038  0.8707  0.4966 -0.3206
15828SOL    HW252805   9.304   9.333   4.996 -2.0628  0.1139 -2.2035
15829SOL     OW52806  10.475   8.659   4.930  0.3286 -0.4538 -0.0866
15829SOL    HW152807  10.540   8.619   4.988  0.7582  1.8165  1.1267
15829SOL    HW252808  10.407   8.691   4.989  0.4019  1.2396 -0.8539
15830SOL     OW52809   8.428   0.028   6.563  0.0600 -0.2618 -0.0926
15830SOL    HW152810   8.492   0.096   6.588 -0.6979  0.5864 -0.4017
15830SOL    HW252811   8.479  -0.053   6.563  1.3404  0.4905 -1.0891
15831SOL     OW52812   8.131   4.345   5.940  0.0945 -0.3569 -0.0148
15831SOL    HW152813   8.118   4.250   5.933 -0.8948 -0.1973 -0.4563
15831SOL    HW252814   8.219   4.360   5.905  0.7377 -1.2400  1.1441
15832SOL     OW52815   5.580   5.119   5.893 -0.1863 -0.2235 -0.0950
15832SOL    HW152816   5.636   5.196   5.893  0.1164 -0.4317 -0.5784
15832SOL    HW252817   5.624   5.058   5.834 -0.5323 -0.6826  0.1126
15833SOL     OW52818   6.883   4.142   5.860  0.6249 -0.5007 -0.2667
15833SOL    HW152819   6.966   4.167   5.818 -0.2005  0.0386 -1.6379
15833SOL    HW252820   6.863   4.056   5.824  0.0582 -0.1685 -0.7472
15834SOL     OW52821   5.444  10.902   3.317  0.2071 -0.2304 -0.3064
15834SOL    HW152822   5.381  10.973   3.304 -1.1122 -1.4268 -0.8667
15834SOL    HW252823   5.393  10.823   3.298  1.6682 -1.3077  0.1245
15835SOL     OW52824   4.695  11.657   0.511  0.4100 -0.8936 -0.2431
15835SOL    HW152825   4.646  11.737   0.491 -1.1673 -1.6273  0.4658
15835SOL    HW252826   4.642  11.587   0.473  0.7987 -1.7416  0.7444
15836SOL     OW52827   2.923   1.931   7.629  0.2485  0.0064  0.6780
15836SOL    HW152828   2.844   1.970   7.591  0.7466 -0.3827 -0.8477
15836SOL    HW252829   2.905   1.926   7.723 -1.0895  0.9438  0.4973
15837SOL     OW52830   5.901   9.668   9.165  1.1641 -0.5139 -0.5185
15837SOL    HW152831   5.811   9.642   9.184  0.4807  0.9053 -1.6605
15837SOL    HW252832   5.954   9.617   9.226 -0.4775 -0.6196  0.8820
15838SOL     OW52833   1.844  10.590  10.919 -0.8349  0.3194  0.3129
15838SOL    HW152834   1.938  10.588  10.937 -0.6643 -0.0937 -0.5243
15838SOL    HW252835   1.802  10.580  11.004 -0.0825 -2.3200  0.4580
15839SOL     OW52836   9.567   5.859   4.981 -0.1726 -0.0671 -0.1983
15839SOL    HW152837   9.549   5.926   5.046 -0.0191 -0.0076 -0.2172
15839SOL    HW252838   9.508   5.787   5.005 -1.8126  0.8217 -1.3707
15840SOL     OW52839   0.481   8.495   8.891 -0.0480  0.1281  0.3215
15840SOL    HW152840   0.494   8.529   8.980 -0.7006  0.9191  0.1245
15840SOL    HW252841   0.390   8.516   8.870  0.1258  0.0254 -0.5727
15841SOL     OW52842   5.749   9.500   1.499 -0.2634  0.6244 -0.2911
15841SOL    HW152843   5.720   9.475   1.412 -1.1500 -0.9464  0.4139
15841SOL    HW252844   5.736   9.595   1.503  0.4348  0.8289 -2.0724
15842SOL     OW52845   7.246   4.010   9.943  0.0208 -0.4735  0.0516
15842SOL    HW152846   7.181   3.967   9.888  1.0873 -0.5996 -1.1554
15842SOL    HW252847   7.252   3.955  10.021  1.1706 -2.4727 -1.3499
15843SOL     OW52848   4.339   4.987   6.631  0.3361  0.0597 -0.0063
15843SOL    HW152849   4.284   5.006   6.707  0.9472 -1.2204  0.7713
15843SOL    HW252850   4.373   5.073   6.605  0.4184  0.4777  1.3963
15844SOL     OW52851  11.416   4.476   1.800  0.1430 -0.2577  0.0561
15844SOL    HW152852  11.474   4.434   1.864  1.9917  1.6947 -0.2122
15844SOL    HW252853  11.366   4.540   1.851  1.1246  0.8173 -0.2768
15845SOL     OW52854   1.328   4.506  10.038  0.6219  0.2128 -0.1588
15845SOL    HW152855   1.253   4.550  10.079  0.9851  0.0376  0.7151
15845SOL    HW252856   1.391   4.496  10.109  0.0231 -2.9958  0.0576
15846SOL     OW52857   4.085   4.485   5.064  0.2906  0.3298  0.4667
15846SOL    HW152858   4.028   4.523   4.997  0.3080 -1.4304 -0.6046
15846SOL    HW252859   4.070   4.391   5.058  2.0133 -0.0417  1.3698
15847SOL     OW52860   8.643  10.987   1.065  0.9814  0.1869  0.4621
15847SOL    HW152861   8.614  10.895   1.069 -2.4833  1.0369 -1.2303
15847SOL    HW252862   8.619  11.024   1.150  0.7337 -0.0609  0.5012
15848SOL     OW52863   9.606   8.503   8.622 -0.1911  0.3807  0.3254
15848SOL    HW152864   9.597   8.470   8.712  0.0086  1.6542  0.8353
15848SOL    HW252865   9.521   8.542   8.602 -0.4728 -0.5390 -0.3221
15849SOL     OW52866   8.290   9.620   8.350  0.1345  0.3771 -0.6574
15849SOL    HW152867   8.379   9.608   8.317  0.6378  0.3748  0.6320
15849SOL    HW252868   8.287   9.569   8.431 -0.8906  0.7847 -0.4168
15850SOL     OW52869   8.680   1.993   0.015 -0.1932 -0.7076 -0.0178
15850SOL    HW152870   8.692   1.947  -0.068  0.4348  0.1686 -0.4367
15850SOL    HW252871   8.696   2.085  -0.006 -0.8808 -0.3620  0.9053
15851SOL     OW52872   7.646   8.757  11.292  0.5659 -0.1542  0.3688
15851SOL    HW152873   7.683   8.822  11.351  1.0343  0.5738 -0.6920
15851SOL    HW252874   7.722   8.712  11.255  0.4541  1.1783 -1.6345
15852SOL     OW52875   4.070   1.919   5.729 -0.2198  0.1160  0.3600
15852SOL    HW152876   4.010   1.860   5.775  0.4872  0.6681  2.0657
15852SOL    HW252877   4.015   1.991   5.699 -0.6261 -0.0409  0.7212
15853SOL     OW52878  10.877   1.688   8.940 -0.1571  0.0148  0.0529
15853SOL    HW152879  10.866   1.594   8.921  0.7917 -0.5627  2.1059
15853SOL    HW252880  10.960   1.694   8.987 -0.6921  1.7541  0.8666
15854SOL     OW52881   4.158   1.878   4.817  0.1965 -0.2376  0.0210
15854SOL    HW152882   4.091   1.922   4.869  0.5758  0.0229  0.2970
15854SOL    HW252883   4.163   1.790   4.854  1.5462  0.3908  1.4915
15855SOL     OW52884   5.860   8.623   8.019 -0.0095  0.5754 -0.1202
15855SOL    HW152885   5.852   8.535   7.982 -0.8160  0.1606  0.9536
15855SOL    HW252886   5.791   8.674   7.977  0.7675  0.8477 -1.1007
15856SOL     OW52887  11.198   6.361   8.516  0.0362  0.5167 -0.4223
15856SOL    HW152888  11.232   6.426   8.454  1.3955  0.1708 -0.0735
15856SOL    HW252889  11.255   6.369   8.593 -1.3039  0.5855  0.6012
15857SOL     OW52890   4.545   6.934   5.594  0.3804  0.0013 -0.2730
15857SOL    HW152891   4.599   6.907   5.520  0.2312 -1.8657  0.2501
15857SOL    HW252892   4.462   6.887   5.582  0.8053 -1.3810  1.7177
15858SOL     OW52893   6.500   0.105  10.504  0.0948 -0.0626 -0.2612
15858SOL    HW152894   6.565   0.038  10.483  0.5347  0.6202 -1.1801
15858SOL    HW252895   6.430   0.092  10.439  1.0340  1.4892 -1.6611
15859SOL     OW52896   0.423   0.364   6.900 -0.1281  0.7514 -0.7388
15859SOL    HW152897   0.332   0.335   6.889 -0.4259  1.8248 -1.1443
15859SOL    HW252898   0.430   0.443   6.847  0.5086  1.7712  0.8060
15860SOL     OW52899   1.162   8.966   9.286 -0.0814  0.0277 -0.6750
15860SOL    HW152900   1.155   9.034   9.353 -0.3562  0.0572 -0.7346
15860SOL    HW252901   1.240   8.917   9.311 -1.1843 -1.0870  0.6983
15861SOL     OW52902  11.652   2.172   7.028  0.0435 -0.4359 -0.2750
15861SOL    HW152903  11.589   2.115   6.984 -0.2889 -0.3868  0.1295
15861SOL    HW252904  11.602   2.211   7.100  0.4850 -0.2479 -0.0704
15862SOL     OW52905   0.720   9.302   9.276 -0.3906  0.1035 -0.2450
15862SOL    HW152906   0.638   9.297   9.326 -0.4390  1.0245 -0.2182
15862SOL    HW252907   0.732   9.214   9.241 -0.9308 -0.2698  0.4838
15863SOL     OW52908   8.857  10.590   1.156 -0.4165  0.3852 -0.2188
15863SOL    HW152909   8.867  10.632   1.071  0.5249 -0.9764 -0.8280
15863SOL    HW252910   8.837  10.498   1.135 -0.2581  0.0428  1.0256
15864SOL     OW52911   9.965   3.835   8.659  0.5930  0.2112 -0.5295
15864SOL    HW152912   9.953   3.743   8.635  1.2713  0.3650 -1.5138
15864SOL    HW252913  10.058   3.843   8.680  0.1397  0.2162  1.6907
15865SOL     OW52914  10.169   9.326   9.705  0.3883 -0.6102  0.1354
15865SOL    HW152915  10.120   9.354   9.629  0.1974 -0.9621  0.1235
15865SOL    HW252916  10.116   9.353   9.780  0.4364 -0.5141  0.1347
15866SOL     OW52917   0.212   6.255  11.738 -0.0397  0.2679 -0.5047
15866SOL    HW152918   0.207   6.239  11.644 -1.5475 -1.2911 -0.2207
15866SOL    HW252919   0.301   6.285  11.753  0.8645 -1.3741 -2.1774
15867SOL     OW52920   7.176   7.097   1.656  0.1772  0.0972 -0.5091
15867SOL    HW152921   7.231   7.089   1.578  0.7687 -0.4730 -0.0394
15867SOL    HW252922   7.154   7.007   1.679 -0.6943  0.3020 -0.4980
15868SOL     OW52923   8.256   1.343   3.248 -0.4799  0.2839  0.0321
15868SOL    HW152924   8.228   1.385   3.330 -0.7102 -0.3697  0.2951
15868SOL    HW252925   8.330   1.396   3.219  0.0757  0.1146  1.0540
15869SOL     OW52926   7.457   3.180   0.168 -0.1972 -0.3840 -0.3863
15869SOL    HW152927   7.448   3.232   0.248  0.1705 -2.0432  0.7918
15869SOL    HW252928   7.486   3.243   0.102 -2.7013  1.5113  0.1439
15870SOL     OW52929   8.031  11.107   0.665 -0.0977 -0.0579  0.3293
15870SOL    HW152930   8.073  11.118   0.579 -0.2021 -0.1238  0.2691
15870SOL    HW252931   7.989  11.191   0.682  1.1878  0.4656  1.0112
15871SOL     OW52932  11.437   2.256   5.852 -0.2832 -0.6984  0.0043
15871SOL    HW152933  11.424   2.249   5.757  1.5883 -2.1346 -0.2204
15871SOL    HW252934  11.532   2.250   5.863 -0.4206  0.0392  1.9430
15872SOL     OW52935   8.140   0.634  10.139 -0.6660 -0.3151 -0.0169
15872SOL    HW152936   8.112   0.635  10.231 -1.9459  0.0257 -0.3896
15872SOL    HW252937   8.195   0.711  10.130 -2.7873  1.2653 -0.1659
15873SOL     OW52938   7.678   4.135  10.504  0.3564  0.1228 -0.5590
15873SOL    HW152939   7.683   4.076  10.429 -1.0140 -1.2805  0.3912
15873SOL    HW252940   7.678   4.223  10.465  0.5048 -0.5389 -2.1334
15874SOL     OW52941   2.763   6.635   5.712  0.3076 -0.0265  0.2286
15874SOL    HW152942   2.858   6.642   5.711  0.2717  0.5132 -0.1205
15874SOL    HW252943   2.744   6.562   5.771  0.9967 -1.0700 -0.7865
15875SOL     OW52944   7.906   3.657   4.239  0.0983  0.8054  0.3589
15875SOL    HW152945   7.938   3.711   4.312 -0.1100  0.7207  0.5118
15875SOL    HW252946   7.866   3.720   4.179  0.7320  0.9426  0.0630
15876SOL     OW52947   4.156   0.678   9.511  0.0728  0.2099 -0.3134
15876SOL    HW152948   4.102   0.714   9.441 -2.2181 -0.9979  0.7299
15876SOL    HW252949   4.203   0.605   9.470 -0.4210  0.1843 -0.8509
15877SOL     OW52950   3.613   0.553   1.317 -0.3588 -0.4547 -0.0178
15877SOL    HW152951   3.584   0.479   1.370  1.0667  0.4229  2.1394
15877SOL    HW252952   3.662   0.608   1.378  0.1039  1.4017 -1.9502
15878SOL     OW52953  10.593   8.229   9.981 -0.2952  0.5459 -0.4163
15878SOL    HW152954  10.684   8.202   9.965 -0.5743 -0.7517  0.0581
15878SOL    HW252955  10.600   8.306  10.038  0.5123  0.6876 -0.6953
15879SOL     OW52956   2.526   7.089   9.015 -0.6097 -0.6534 -0.0027
15879SOL    HW152957   2.604   7.119   9.062 -1.2098  0.2867  0.4267
15879SOL    HW252958   2.528   6.994   9.024  1.1186 -0.7507 -1.0330
15880SOL     OW52959  10.755  10.889   9.915  0.6556 -0.2878  0.3657
15880SOL    HW152960  10.770  10.945   9.992  0.5082  0.8169 -0.3865
15880SOL    HW252961  10.660  10.885   9.907  0.6763 -0.1125  0.0330
15881SOL     OW52962   5.409   2.323   2.026 -0.1931  0.2401 -0.3403
15881SOL    HW152963   5.375   2.330   2.116  2.1286 -0.4674  0.6641
15881SOL    HW252964   5.403   2.412   1.992  0.3110  0.8579  1.1026
15882SOL     OW52965   7.290   1.458   6.713 -0.2661  0.5001 -0.2829
15882SOL    HW152966   7.338   1.516   6.654 -0.9257  0.3587 -0.9783
15882SOL    HW252967   7.309   1.370   6.679 -1.0471  0.4479 -0.5993
15883SOL     OW52968   4.212   4.572   0.794 -0.0499  0.0259  0.0940
15883SOL    HW152969   4.187   4.490   0.835 -0.9709  0.6050  0.7306
15883SOL    HW252970   4.134   4.628   0.802  0.2729  0.6784 -1.0673
15884SOL     OW52971   5.242  11.706   7.030 -0.4521  0.1306 -0.2199
15884SOL    HW152972   5.306  11.670   7.092  2.8586 -2.3594 -4.4774
15884SOL    HW252973   5.192  11.629   7.001  0.4041  0.4443 -2.8288
15885SOL     OW52974   1.235   6.395   0.170  0.4991  0.2826 -0.1068
15885SOL    HW152975   1.144   6.374   0.190 -0.4870  2.9486 -1.3034
15885SOL    HW252976   1.271   6.314   0.134 -1.1120 -1.0784  1.1987
15886SOL     OW52977   0.424   9.493   6.500  0.4525  0.3815 -0.1950
15886SOL    HW152978   0.505   9.454   6.532  0.2348 -1.4086 -1.6050
15886SOL    HW252979   0.383   9.531   6.578  1.3262 -1.1554  1.0858
15887SOL     OW52980   8.299   8.718   6.124  0.1021  0.6054 -0.0501
15887SOL    HW152981   8.362   8.647   6.111 -0.1154  0.1469  1.2426
15887SOL    HW252982   8.250   8.721   6.041  0.2970 -0.5749 -0.2362
15888SOL     OW52983   7.407   2.618   9.501  0.8151  0.1204 -0.3832
15888SOL    HW152984   7.363   2.638   9.584  1.3152  1.9296 -0.5116
15888SOL    HW252985   7.490   2.666   9.506  0.6755  0.5948 -2.0916
15889SOL     OW52986   4.278   9.242   4.489 -0.3516  0.3521  0.3073
15889SOL    HW152987   4.226   9.322   4.497 -1.8457 -0.3977 -1.2000
15889SOL    HW252988   4.315   9.246   4.400  0.2214 -0.2659  0.5086
15890SOL     OW52989   5.229   1.900   3.100 -0.3106 -0.1194 -0.7421
15890SOL    HW152990   5.297   1.941   3.045 -0.4634  0.2059 -0.6952
15890SOL    HW252991   5.248   1.807   3.097  0.1370 -0.0319 -0.7364
15891SOL     OW52992  11.578   5.528   6.041  0.8034  0.2636  0.0768
15891SOL    HW152993  11.516   5.557   5.974  0.8404 -1.7942 -0.9000
15891SOL    HW252994  11.528   5.529   6.123 -0.1255 -0.1343 -0.4838
15892SOL     OW52995   1.797   4.029   4.148 -0.1443 -0.0401  0.3085
15892SOL    HW152996   1.752   3.975   4.212  0.2219 -0.1669  0.4629
15892SOL    HW252997   1.889   4.002   4.154 -0.2910 -0.9805 -1.1896
15893SOL     OW52998   8.634  10.388   9.320 -0.3698 -0.2008 -0.2350
15893SOL    HW152999   8.697  10.324   9.355 -0.9415 -0.1683  0.8961
15893SOL    HW253000   8.616  10.447   9.394 -1.8807 -0.3364 -0.4641
15894SOL     OW53001   8.952   7.914   5.908  0.0624 -0.2228  0.0272
15894SOL    HW153002   8.980   7.853   5.976 -1.2230 -1.5387 -0.5470
15894SOL    HW253003   8.913   7.857   5.841 -1.0889  1.2289 -0.5814
15895SOL     OW53004   9.991   7.531   4.801  0.0553  0.6161 -0.0085
15895SOL    HW153005   9.984   7.436   4.810  0.1919  0.5478 -0.5570
15895SOL    HW253006   9.930   7.566   4.866  1.1339  0.1848  1.2905
15896SOL     OW53007  11.244  11.366   0.575 -0.6820 -0.5091 -0.1203
15896SOL    HW153008  11.240  11.422   0.653 -1.0810 -1.1943  0.3554
15896SOL    HW253009  11.308  11.299   0.596  0.4924  0.2716 -1.0477
15897SOL     OW53010   1.049  11.801   6.344 -0.3670 -0.7183  0.0745
15897SOL    HW153011   1.055  11.818   6.250  0.4320  0.9291  0.3759
15897SOL    HW253012   1.106  11.867   6.383 -2.4572  0.1823  1.8502
15898SOL     OW53013   7.195   8.139   6.217 -0.1502 -0.4190  0.2579
15898SOL    HW153014   7.197   8.075   6.287 -0.4807 -0.8995 -0.1662
15898SOL    HW253015   7.234   8.218   6.255  2.3790 -1.5172  0.1247
15899SOL     OW53016   9.726   8.949   9.969 -0.7044  0.0428  0.0002
15899SOL    HW153017   9.722   8.987   9.881 -0.3768 -0.4658 -0.2425
15899SOL    HW253018   9.637   8.961  10.004 -0.5886  1.0726 -0.0401
15900SOL     OW53019   2.213   1.990   6.928  0.6371  0.7651  0.8770
15900SOL    HW153020   2.201   1.918   6.990 -2.6313  0.3075 -0.0988
15900SOL    HW253021   2.234   1.947   6.845 -0.5439  0.9000  0.4762
15901SOL     OW53022   2.042   4.070   5.169 -0.7057  0.2175  0.2229
15901SOL    HW153023   1.994   4.043   5.090 -1.7819  0.3092  0.8195
15901SOL    HW253024   2.023   4.002   5.233  0.7514 -0.2320  0.2027
15902SOL     OW53025   0.146   7.173   8.849 -0.3019  0.5372  0.5553
15902SOL    HW153026   0.128   7.260   8.814 -1.1440 -0.1040 -0.7281
15902SOL    HW253027   0.240   7.172   8.867 -0.2822  1.6872  0.5544
15903SOL     OW53028   7.235   6.054   1.745  0.3884  0.2914  0.3046
15903SOL    HW153029   7.210   6.130   1.798  1.5925  2.9826 -2.6063
15903SOL    HW253030   7.331   6.062   1.736  0.2169  0.4108 -2.6155
15904SOL     OW53031   2.129   4.576   2.989 -0.2193  0.0662  0.0456
15904SOL    HW153032   2.150   4.484   3.003 -1.0474 -0.1849 -0.2510
15904SOL    HW253033   2.114   4.611   3.077 -1.1474 -0.4165  0.1014
15905SOL     OW53034  11.671  11.202   5.909  0.0941  0.7700  0.4911
15905SOL    HW153035  11.607  11.193   5.979 -0.6349 -0.9190 -0.3237
15905SOL    HW253036  11.620  11.193   5.829  1.3985 -1.4795 -0.1883
15906SOL     OW53037  10.749   2.495   7.117 -0.6257  0.2698 -0.4610
15906SOL    HW153038  10.810   2.525   7.049 -0.0438 -1.7087 -0.8870
15906SOL    HW253039  10.803   2.493   7.197 -0.1789 -1.1383 -0.7670
15907SOL     OW53040   1.753   9.963   6.386  0.0345  0.6546 -0.4550
15907SOL    HW153041   1.817   9.892   6.386 -1.5968 -0.9542 -2.2772
15907SOL    HW253042   1.770  10.012   6.305  1.7507  3.0649  1.2213
15908SOL     OW53043   9.082   4.306   7.560  0.4613 -0.0706  0.0973
15908SOL    HW153044   9.062   4.387   7.606  0.3717  0.8601 -1.4901
15908SOL    HW253045   9.178   4.304   7.557  0.4696  0.9099 -1.3474
15909SOL     OW53046  10.490   2.349   9.590 -0.1810  0.1884  0.1786
15909SOL    HW153047  10.481   2.282   9.658  0.1501 -1.3952 -1.2383
15909SOL    HW253048  10.556   2.312   9.530 -1.9995  0.4669 -2.1187
15910SOL     OW53049  10.741   4.398   9.121 -0.6440 -0.3441  0.2833
15910SOL    HW153050  10.683   4.358   9.186 -0.7181 -0.5195  0.1085
15910SOL    HW253051  10.697   4.385   9.037 -1.8832  2.2140  0.4217
15911SOL     OW53052   3.316   9.564   4.661  0.1856 -0.4630 -0.0719
15911SOL    HW153053   3.412   9.559   4.654  0.3695  1.0773  0.7658
15911SOL    HW253054   3.291   9.625   4.592 -0.0104  0.3068  0.6644
15912SOL     OW53055   5.561   2.268   2.626 -0.0248  0.5473 -0.1315
15912SOL    HW153056   5.575   2.178   2.656  1.0196  0.8427  0.3318
15912SOL    HW253057   5.466   2.276   2.620 -0.1975 -0.1855  1.1201
15913SOL     OW53058   0.170   4.298   7.902  0.2239 -0.5816 -0.6172
15913SOL    HW153059   0.151   4.213   7.941  0.8873 -0.2478  0.4527
15913SOL    HW253060   0.084   4.332   7.875  0.0426 -1.9924 -1.9756
15914SOL     OW53061   3.680   2.855   8.314  0.3194 -0.0665 -0.1596
15914SOL    HW153062   3.774   2.855   8.332  0.8037  2.6559 -2.0013
15914SOL    HW253063   3.646   2.930   8.364 -0.9684 -1.1155  0.6245
15915SOL     OW53064   4.903   8.376   7.373 -0.2018  0.1615  0.1557
15915SOL    HW153065   4.854   8.329   7.306 -2.0335  1.4017  0.5488
15915SOL    HW253066   4.883   8.331   7.455  0.9798 -0.5467  0.0839
15916SOL     OW53067   4.077   6.710   8.549 -0.3463 -0.7906  0.1773
15916SOL    HW153068   3.993   6.753   8.565 -0.3730 -0.6411 -0.3210
15916SOL    HW253069   4.114   6.696   8.636 -0.6793 -0.4429  0.3803
15917SOL     OW53070  11.406   5.421   9.025  0.6494  0.0874 -0.0868
15917SOL    HW153071  11.359   5.460   9.098 -0.4647 -1.1506 -0.1125
15917SOL    HW253072  11.499   5.432   9.047  0.3396  0.7766  0.9226
15918SOL     OW53073   9.938   9.056  10.089 -0.2682 -0.1701 -0.1419
15918SOL    HW153074   9.923   9.141  10.131  0.2587  0.0098 -0.3071
15918SOL    HW253075   9.851   9.027  10.062 -0.2477  1.6609 -2.6292
15919SOL     OW53076   2.800   0.109   9.546  0.1746  0.2464  0.2509
15919SOL    HW153077   2.776   0.123   9.455 -2.6761 -1.5387  0.6187
15919SOL    HW253078   2.847   0.025   9.546 -1.2112 -0.5664  0.5417
15920SOL     OW53079   7.338  11.612  11.322 -0.2994  0.5114 -0.3670
15920SOL    HW153080   7.364  11.575  11.238  0.1421  2.0739 -0.9527
15920SOL    HW253081   7.416  11.656  11.354 -0.5347  0.1372  0.7717
15921SOL     OW53082   8.277  10.617   4.462 -0.7027  0.7033  0.3508
15921SOL    HW153083   8.368  10.631   4.436 -0.8695 -1.1142 -1.4793
15921SOL    HW253084   8.229  10.689   4.421 -0.0074  2.5364  2.5340
15922SOL     OW53085   9.657   8.774   9.595  0.3655 -0.1723 -0.5984
15922SOL    HW153086   9.639   8.865   9.572  0.2638 -0.1151 -0.2826
15922SOL    HW253087   9.588   8.724   9.552  0.8276 -0.1703 -1.3688
15923SOL     OW53088   8.784   0.437  10.218  0.3999 -0.2505 -0.1429
15923SOL    HW153089   8.777   0.479  10.304  0.9581 -0.6339  0.1021
15923SOL    HW253090   8.862   0.381  10.226  0.3402 -0.4375 -0.8364
15924SOL     OW53091   3.187   8.242  11.288  0.0494 -0.0123  0.3555
15924SOL    HW153092   3.119   8.179  11.265  0.3073 -0.0277 -0.4169
15924SOL    HW253093   3.265   8.210  11.243 -0.0601  1.4026 -0.9188
15925SOL     OW53094   2.221   0.828   6.648 -0.2998  0.1484  0.3322
15925SOL    HW153095   2.194   0.894   6.584 -0.2050 -1.1943 -1.1351
15925SOL    HW253096   2.298   0.787   6.610 -0.0806 -0.5197  1.4414
15926SOL     OW53097   4.350   0.475  10.465  0.2529  0.1879 -0.3318
15926SOL    HW153098   4.319   0.443  10.381 -1.7455  3.0861 -0.8824
15926SOL    HW253099   4.271   0.476  10.520  0.5740  2.1607  0.1945
15927SOL     OW53100   9.269   5.202   2.644 -0.2808 -0.4095 -0.1124
15927SOL    HW153101   9.187   5.167   2.610 -0.6785  0.6679 -0.2937
15927SOL    HW253102   9.288   5.148   2.721 -1.2291 -0.5666  0.0198
15928SOL     OW53103  11.766   5.312  11.122 -0.3518 -0.3114  0.2331
15928SOL    HW153104  11.748   5.238  11.065  0.9270  0.4259 -1.2130
15928SOL    HW253105  11.849   5.290  11.164 -0.0137  0.2455 -0.1331
15929SOL     OW53106   1.109   1.372   7.107 -0.1918 -0.0195 -0.2657
15929SOL    HW153107   1.181   1.371   7.170 -0.0457  2.0095 -0.3558
15929SOL    HW253108   1.087   1.464   7.095 -2.6557 -0.5394 -0.4448
15930SOL     OW53109   1.747  10.553   7.367 -0.4193 -0.5414  0.4205
15930SOL    HW153110   1.673  10.578   7.422  0.0939 -1.0038  1.3438
15930SOL    HW253111   1.821  10.543   7.428  0.5743  0.5520 -0.5439
15931SOL     OW53112  10.161   8.235   2.624  0.1972  0.0100 -0.0925
15931SOL    HW153113  10.159   8.328   2.601  2.2693 -0.1212 -1.0067
15931SOL    HW253114  10.170   8.190   2.540  0.8765 -0.9020  0.4513
15932SOL     OW53115  11.704   2.808   5.675  0.2132 -0.1072  0.1598
15932SOL    HW153116  11.641   2.800   5.747 -1.0884 -0.1728 -0.9478
15932SOL    HW253117  11.750   2.890   5.693 -0.6770  0.3077  0.6315
15933SOL     OW53118   0.896   7.703  10.918  0.0838  0.2695 -0.6354
15933SOL    HW153119   0.911   7.619  10.875  0.4753  0.0360 -0.0681
15933SOL    HW253120   0.817   7.738  10.878 -0.9793 -1.0862  0.1832
15934SOL     OW53121   0.531   9.536   8.284  0.0891  0.1122  0.0227
15934SOL    HW153122   0.485   9.454   8.266  0.0663 -0.1406  1.1769
15934SOL    HW253123   0.606   9.510   8.338  0.1574  0.8335  0.2811
15935SOL     OW53124   1.546   4.855   6.699  0.0066 -0.1458  0.0259
15935SOL    HW153125   1.460   4.878   6.663  0.5930  1.3308 -0.4959
15935SOL    HW253126   1.590   4.809   6.628 -0.2321 -0.6321  0.1891
15936SOL     OW53127  11.818   2.979   5.354  0.2703  0.6650  0.3449
15936SOL    HW153128  11.725   2.991   5.334  0.3794  0.7957 -0.0828
15936SOL    HW253129  11.864   3.021   5.282  0.6653 -1.2098 -0.5445
15937SOL     OW53130   9.957   5.606   5.481 -0.7001  0.2909 -0.7856
15937SOL    HW153131   9.971   5.568   5.568 -0.8784  0.1752 -0.8074
15937SOL    HW253132  10.027   5.569   5.428 -0.5090  0.4682 -0.6587
15938SOL     OW53133   4.002   6.854   9.729  0.1122 -0.0819  0.4307
15938SOL    HW153134   4.024   6.926   9.789 -0.4549  2.6387 -2.3737
15938SOL    HW253135   4.078   6.796   9.732  0.1152 -0.0967  3.6495
15939SOL     OW53136   1.704   2.920   0.180 -0.1424 -0.4972  0.0197
15939SOL    HW153137   1.717   3.011   0.154  0.8681 -0.4933  0.4799
15939SOL    HW253138   1.617   2.918   0.220 -0.0464  0.3309  0.2804
15940SOL     OW53139   7.042   6.550   4.785 -0.5186 -0.1168 -0.3681
15940SOL    HW153140   7.073   6.459   4.779  2.1579  0.6959 -0.2513
15940SOL    HW253141   6.948   6.544   4.771 -0.1352 -2.6581 -2.6342
15941SOL     OW53142  11.018  10.801  11.429 -0.7307  0.5268 -0.2116
15941SOL    HW153143  10.935  10.785  11.383 -0.7459  2.7570 -1.1148
15941SOL    HW253144  10.993  10.854  11.505 -0.3480 -0.7134  0.8223
15942SOL     OW53145  11.109   8.879  11.425  0.1743  0.0722 -0.1002
15942SOL    HW153146  11.188   8.932  11.420 -0.0298  0.3693 -0.1907
15942SOL    HW253147  11.126   8.804  11.368  0.2412  0.3302 -0.4206
15943SOL     OW53148   7.557   7.654   9.952 -0.0044 -0.5963 -0.0923
15943SOL    HW153149   7.570   7.582  10.014  3.4642  0.6914  0.8904
15943SOL    HW253150   7.574   7.615   9.867 -1.4157 -1.6089  0.0516
15944SOL     OW53151   0.218   8.345   7.006 -0.3862 -0.2918  0.0316
15944SOL    HW153152   0.247   8.417   6.950 -0.4443  0.2168  0.6445
15944SOL    HW253153   0.242   8.266   6.958 -1.0712  0.1279 -1.0351
15945SOL     OW53154   2.223   0.009   7.241 -0.0377 -0.4174  0.0701
15945SOL    HW153155   2.282   0.031   7.169  0.5876  0.5354  0.8666
15945SOL    HW253156   2.194   0.093   7.275 -0.3187 -0.8597  0.9506
15946SOL     OW53157  10.950   9.082   4.740 -0.1206 -0.0318 -0.1022
15946SOL    HW153158  10.856   9.089   4.729 -0.2684 -1.6262 -0.1678
15946SOL    HW253159  10.962   9.068   4.834 -0.1101 -1.4677 -0.2943
15947SOL     OW53160   3.133   1.255   8.081 -1.1208  0.4520  0.7365
15947SOL    HW153161   3.096   1.338   8.052 -2.9924 -0.3152  0.7978
15947SOL    HW253162   3.211   1.243   8.027 -3.6962 -0.2891 -3.2256
15948SOL     OW53163  10.570   5.458   8.141  0.0448  0.4489 -0.3794
15948SOL    HW153164  10.526   5.412   8.069  0.0756 -1.2614  0.6457
15948SOL    HW253165  10.564   5.550   8.117 -1.9522  0.0941 -1.4688
15949SOL     OW53166   5.442   4.051   4.259  0.4079 -0.5812  0.4318
15949SOL    HW153167   5.469   4.005   4.180 -0.0129 -0.8172  0.4228
15949SOL    HW253168   5.350   4.075   4.244  0.0914 -1.2822  1.1349
15950SOL     OW53169   9.269   9.725  10.622  0.2189 -0.0499 -0.1422
15950SOL    HW153170   9.220   9.756  10.698 -1.0521 -0.1260 -0.8999
15950SOL    HW253171   9.247   9.632  10.615  0.0222  0.0430 -0.8181
15951SOL     OW53172   5.973   5.314  11.454 -0.0426 -0.3649 -0.6400
15951SOL    HW153173   6.056   5.320  11.407  1.5503  0.3525  2.0387
15951SOL    HW253174   5.975   5.228  11.496 -0.2934 -0.0342  0.0602
15952SOL     OW53175   0.721   9.040   7.892 -0.1114 -0.3315 -0.1983
15952SOL    HW153176   0.737   9.091   7.971 -2.0371 -0.4207  0.3049
15952SOL    HW253177   0.796   9.059   7.836 -0.0817  2.0097  0.5078
15953SOL     OW53178  10.830  11.485   6.696 -0.3689 -0.1829  0.3138
15953SOL    HW153179  10.803  11.453   6.610 -0.8368 -3.8736  1.6374
15953SOL    HW253180  10.918  11.449   6.708 -0.2089  0.4803  1.3103
15954SOL     OW53181   7.685   1.077  10.658 -0.2002  0.2054 -0.1811
15954SOL    HW153182   7.599   1.039  10.676 -0.2227  1.2465  2.3252
15954SOL    HW253183   7.670   1.137  10.585 -1.6837  0.6173  0.4341
15955SOL     OW53184   9.869   8.578  10.957  0.0766 -0.6677 -0.1867
15955SOL    HW153185   9.785   8.591  11.001  0.4770  0.8176  0.1956
15955SOL    HW253186   9.849   8.517  10.886 -1.3201 -0.3340 -0.1201
15956SOL     OW53187   9.998   7.941   8.222 -0.3413  0.0696  0.5756
15956SOL    HW153188   9.926   7.904   8.171 -0.3339 -1.7312  1.7691
15956SOL    HW253189  10.047   7.864   8.252  1.6337  1.2251  0.4425
15957SOL     OW53190   4.234   5.474   5.920  0.0893  0.3042 -0.0050
15957SOL    HW153191   4.201   5.555   5.957  1.9718  0.4392  1.5645
15957SOL    HW253192   4.298   5.443   5.984 -2.2490 -3.7300  0.7223
15958SOL     OW53193   0.938  10.608  10.232 -0.5983  0.5378  0.2305
15958SOL    HW153194   0.844  10.599  10.213 -0.6133 -0.8109  0.8245
15958SOL    HW253195   0.945  10.589  10.326  0.4390 -0.9054 -0.1011
15959SOL     OW53196   4.230   4.730   6.205  0.1563 -0.2835  0.2342
15959SOL    HW153197   4.237   4.755   6.113 -0.8971  3.0770  0.9282
15959SOL    HW253198   4.288   4.791   6.250  0.5946 -1.8148  1.8695
15960SOL     OW53199   0.791   4.425   5.511 -0.8264  0.3923 -0.0383
15960SOL    HW153200   0.780   4.414   5.605 -0.3682 -0.7883 -0.1083
15960SOL    HW253201   0.885   4.428   5.497 -0.8753 -0.3591 -0.5532
15961SOL     OW53202   6.137   5.353  10.743  0.0401 -0.8694  0.2910
15961SOL    HW153203   6.100   5.277  10.787 -0.0135 -1.6564 -1.0760
15961SOL    HW253204   6.203   5.317  10.684  0.8829  0.2591  0.5145
15962SOL     OW53205   7.202   7.332   8.471  0.4702  0.0651  0.1599
15962SOL    HW153206   7.283   7.285   8.490  0.6688  0.5897  0.6441
15962SOL    HW253207   7.149   7.320   8.549 -0.5074 -1.4565 -0.6965
15963SOL     OW53208   5.394   3.657   4.419  0.2725 -0.1589 -0.2213
15963SOL    HW153209   5.314   3.610   4.398  0.8957 -1.7072  0.6556
15963SOL    HW253210   5.463   3.608   4.373  0.7232  1.3219 -1.2158
15964SOL     OW53211   6.287   0.110  10.290  0.1157 -0.1269  0.2471
15964SOL    HW153212   6.327   0.194  10.270  0.9940 -0.5473  0.1999
15964SOL    HW253213   6.350   0.045  10.258 -0.1985 -0.8015  0.9696
15965SOL     OW53214   1.655   0.122   3.295 -0.5338 -0.2784  0.0342
15965SOL    HW153215   1.562   0.105   3.305 -0.9318  2.3168  1.9897
15965SOL    HW253216   1.689   0.120   3.385  0.9876  0.1905 -0.4989
15966SOL     OW53217   8.687   6.395   6.024 -0.3296  0.0164 -0.4316
15966SOL    HW153218   8.649   6.444   5.951 -0.6902 -0.3963 -0.5226
15966SOL    HW253219   8.620   6.331   6.048 -0.5208  0.6316  0.7600
15967SOL     OW53220   4.250   6.935   1.826 -0.0437 -0.1655 -0.1119
15967SOL    HW153221   4.266   7.027   1.806 -1.6615  0.2085  0.1166
15967SOL    HW253222   4.237   6.894   1.741 -0.5643  0.0960 -0.1672
15968SOL     OW53223  11.530   2.512   8.848 -0.1186 -0.8272  0.4515
15968SOL    HW153224  11.618   2.513   8.810 -0.4660  0.2615 -0.3589
15968SOL    HW253225  11.541   2.544   8.937 -0.0406  2.1083 -0.5206
15969SOL     OW53226   5.676   9.120   8.845 -0.1303 -0.0661  0.1487
15969SOL    HW153227   5.759   9.159   8.870 -1.2318  1.4842  1.5601
15969SOL    HW253228   5.669   9.040   8.898  0.9236 -0.8177 -0.8003
15970SOL     OW53229   1.701   3.523   2.849  0.6517 -0.2808  0.1778
15970SOL    HW153230   1.610   3.501   2.831  0.2514  1.5848 -0.3238
15970SOL    HW253231   1.748   3.501   2.768  0.2445  0.7271 -0.3527
15971SOL     OW53232   0.689   5.926  10.447  0.3141 -0.1057  0.0880
15971SOL    HW153233   0.722   6.015  10.437 -0.4321  0.2588  0.8030
15971SOL    HW253234   0.715   5.882  10.366  1.4722  0.5031  0.1042
15972SOL     OW53235   5.113   6.412   8.811  0.0821  0.2577 -0.0009
15972SOL    HW153236   5.035   6.463   8.833  0.1954  0.9021 -1.0377
15972SOL    HW253237   5.111   6.338   8.873 -0.4331  1.1547  1.0986
15973SOL     OW53238   5.360   8.395   7.690  0.4498 -0.3061 -0.2618
15973SOL    HW153239   5.339   8.319   7.635 -1.0462 -2.4307  2.9311
15973SOL    HW253240   5.275   8.435   7.709  0.4276 -1.4738  2.7483
15974SOL     OW53241   8.162   4.891   3.407  0.0757 -0.4579  0.1191
15974SOL    HW153242   8.205   4.949   3.345 -0.2505  0.1100  0.4204
15974SOL    HW253243   8.082   4.862   3.362  0.1095 -0.4718  0.0681
15975SOL     OW53244   7.160   6.381  10.235  0.0459  0.6710 -0.3882
15975SOL    HW153245   7.188   6.297  10.198 -1.4713 -0.5909  1.1826
15975SOL    HW253246   7.181   6.374  10.328 -1.3965  1.4504  0.0115
15976SOL     OW53247   6.718   1.869  11.091  0.6125 -0.1756  0.7766
15976SOL    HW153248   6.653   1.914  11.144 -0.4573  1.5092 -1.7576
15976SOL    HW253249   6.680   1.783  11.074 -1.0287  0.7706 -0.6258
15977SOL     OW53250   8.909  11.256   5.455 -0.0568  0.0521  0.4104
15977SOL    HW153251   8.934  11.341   5.417  0.0493  0.4929  1.4311
15977SOL    HW253252   8.860  11.212   5.386  2.0141 -0.1103 -1.0449
15978SOL     OW53253   7.821   1.674   4.596  0.3533  0.0644  0.0229
15978SOL    HW153254   7.727   1.666   4.609  0.2404  2.2221  0.9975
15978SOL    HW253255   7.859   1.643   4.678  0.6909 -2.7793 -1.0964
15979SOL     OW53256   2.303   3.042   7.986 -0.2132 -0.0373 -0.0207
15979SOL    HW153257   2.387   3.017   7.948  0.9903  0.8745  1.8525
15979SOL    HW253258   2.257   2.960   8.000  1.0390 -0.6988  0.3341
15980SOL     OW53259   0.119   3.605   5.967  0.1271  0.3152 -0.4644
15980SOL    HW153260   0.027   3.617   5.990 -1.0210 -0.6620 -3.9702
15980SOL    HW253261   0.137   3.514   5.992  0.4256  0.7155  0.8747
15981SOL     OW53262   1.423  11.431   4.043  0.4444 -0.1904 -0.0734
15981SOL    HW153263   1.367  11.371   4.093 -0.1942  1.1618  0.8929
15981SOL    HW253264   1.503  11.438   4.095  0.6306 -0.4331 -0.3301
15982SOL     OW53265   9.187  10.626   6.344 -0.2195 -0.2430  0.1410
15982SOL    HW153266   9.264  10.679   6.365  0.8892 -1.6468 -0.1632
15982SOL    HW253267   9.112  10.681   6.366  0.8631  1.4138 -0.1696
15983SOL     OW53268   8.814   0.973   7.229 -0.0697  0.2192  0.1036
15983SOL    HW153269   8.746   0.934   7.283 -0.7484 -0.8824 -1.4618
15983SOL    HW253270   8.778   1.057   7.203 -0.5873 -0.0880 -0.2047
15984SOL     OW53271  11.366   0.505   3.601  1.0790 -0.3292  0.1814
15984SOL    HW153272  11.283   0.508   3.650  0.8945 -3.0211  0.2045
15984SOL    HW253273  11.432   0.486   3.668  0.9676 -2.9933 -0.3582
15985SOL     OW53274   0.279  11.045   8.329 -0.6718 -0.3007  0.2818
15985SOL    HW153275   0.214  11.077   8.267  0.9569  0.2121 -1.2431
15985SOL    HW253276   0.304  10.959   8.296 -1.2728 -0.9578  1.4447
15986SOL     OW53277   9.988   9.312   3.889  0.5306  1.2394 -0.1853
15986SOL    HW153278   9.925   9.269   3.946  0.7065  1.5837  0.2793
15986SOL    HW253279  10.057   9.248   3.876 -0.8601  0.0767 -2.3877
15987SOL     OW53280   4.480   1.929   5.469 -0.3886  0.0338  0.0284
15987SOL    HW153281   4.490   1.853   5.411 -1.2977  0.3352 -0.5419
15987SOL    HW253282   4.468   1.891   5.556 -1.3050 -0.5124 -0.3166
15988SOL     OW53283   9.736   0.609   3.279 -0.3371  0.1059  0.1910
15988SOL    HW153284   9.784   0.538   3.321 -1.9480 -1.2466 -0.1353
15988SOL    HW253285   9.740   0.589   3.185  2.1319  2.3868 -0.3110
15989SOL     OW53286   8.332   6.534   4.095  0.1139  0.0871 -0.2636
15989SOL    HW153287   8.249   6.567   4.059  0.4998  1.5043  0.0771
15989SOL    HW253288   8.359   6.466   4.034 -1.0581 -0.0524 -0.6489
15990SOL     OW53289   7.005   9.524   2.900 -0.1051 -0.0047 -0.3837
15990SOL    HW153290   7.008   9.540   2.994 -0.2490  0.7385 -0.5020
15990SOL    HW253291   7.095   9.540   2.870 -0.2033  0.3881 -0.4707
15991SOL     OW53292   5.458  11.401   0.430 -0.5318  0.7341  0.2860
15991SOL    HW153293   5.444  11.363   0.517 -0.4803  0.9847  0.4023
15991SOL    HW253294   5.375  11.445   0.409 -1.4399 -1.3419 -0.8119
15992SOL     OW53295   0.519   5.883   4.161  0.0301 -0.3117 -0.3761
15992SOL    HW153296   0.442   5.910   4.210 -0.1780 -0.1847 -0.7762
15992SOL    HW253297   0.524   5.943   4.087  2.3750  1.8534  1.3645
15993SOL     OW53298   0.856   3.168   2.299  0.9149 -0.5857 -0.1803
15993SOL    HW153299   0.763   3.147   2.299  1.0631 -1.2557 -0.7362
15993SOL    HW253300   0.872   3.209   2.214  1.0378 -0.0463  0.0979
15994SOL     OW53301  11.414  11.724  11.412 -0.0693  0.0595  0.2163
15994SOL    HW153302  11.410  11.628  11.410 -0.3529  0.0645 -2.0156
15994SOL    HW253303  11.337  11.752  11.364  1.0265  1.3538 -0.8672
15995SOL     OW53304   0.105   0.452   9.588 -0.3810  0.3656 -0.0777
15995SOL    HW153305   0.030   0.395   9.604  0.7191 -1.4482 -1.0658
15995SOL    HW253306   0.098   0.521   9.655 -2.1723 -0.4936  0.6778
15996SOL     OW53307   7.770   3.543   3.985 -0.8502 -0.6146  0.1364
15996SOL    HW153308   7.790   3.628   4.023  0.6134 -1.8356  2.3171
15996SOL    HW253309   7.690   3.557   3.935  0.3540  2.4359 -1.1899
15997SOL     OW53310   9.198  11.479   4.152  0.6145 -0.0198 -0.3588
15997SOL    HW153311   9.130  11.519   4.205  1.5058  4.0267 -1.9215
15997SOL    HW253312   9.151  11.417   4.095 -1.0158 -0.6356  1.5350
15998SOL     OW53313   5.678   0.327   5.354 -0.3025  0.0060 -0.2222
15998SOL    HW153314   5.720   0.294   5.275  0.5429  1.0333 -0.2197
15998SOL    HW253315   5.596   0.367   5.323  0.3106  0.9398 -0.6712
15999SOL     OW53316   8.301   0.635   5.549  0.3119  0.0592 -0.1842
15999SOL    HW153317   8.355   0.714   5.543 -0.4566  0.4964 -1.8955
15999SOL    HW253318   8.354   0.567   5.507  0.2365  0.0772 -0.3073
16000SOL     OW53319   0.029  11.812   1.775  0.3673  0.3333 -0.3777
16000SOL    HW153320   0.034  11.759   1.696  1.2245  0.0452 -0.1372
16000SOL    HW253321   0.030  11.748   1.847 -2.8182  0.4051 -0.1224
16001SOL     OW53322   8.335   2.973   6.981 -0.2319  0.1243  0.7643
16001SOL    HW153323   8.326   3.065   7.005 -2.8905  0.5406 -1.4319
16001SOL    HW253324   8.396   2.973   6.907  0.3284 -0.0127  1.2132
16002SOL     OW53325  11.293  10.168   6.677  0.2285 -0.4003 -0.1092
16002SOL    HW153326  11.312  10.237   6.613  2.5948 -0.8673 -0.0012
16002SOL    HW253327  11.214  10.198   6.721 -0.3980  0.8456 -1.9768
16003SOL     OW53328   9.372   8.844   2.456 -0.3106  0.2719 -0.0718
16003SOL    HW153329   9.327   8.928   2.460  1.4542  1.2667 -0.4108
16003SOL    HW253330   9.462   8.863   2.482  0.1652 -1.4865 -0.2944
16004SOL     OW53331  11.199   5.664   2.927  0.5290  0.2724  0.6044
16004SOL    HW153332  11.115   5.688   2.966  0.2485 -2.0537  1.5580
16004SOL    HW253333  11.257   5.649   3.001  1.6149  1.1562 -0.0336
16005SOL     OW53334  10.010  10.581   6.370 -0.0170 -0.1485 -0.4807
16005SOL    HW153335  10.090  10.541   6.335 -0.7024 -1.0393 -1.0857
16005SOL    HW253336   9.974  10.514   6.428 -1.3550 -0.5866 -1.7650
16006SOL     OW53337   7.076   8.295   3.942 -0.1348  0.4703  0.3694
16006SOL    HW153338   7.154   8.318   3.892 -0.6630  0.8627 -0.3116
16006SOL    HW253339   7.033   8.227   3.890 -0.6116  0.7729  0.3510
16007SOL     OW53340   7.466  11.038  11.743 -0.0229 -0.3242  0.1475
16007SOL    HW153341   7.481  11.130  11.722  0.0043  0.0765  1.8488
16007SOL    HW253342   7.512  11.024  11.825 -1.1171 -1.5148  0.5847
16008SOL     OW53343   9.725   4.928   6.757  0.0176  0.2348  0.1763
16008SOL    HW153344   9.668   4.928   6.680  0.2773 -0.1077 -0.0181
16008SOL    HW253345   9.814   4.931   6.721  0.1206  1.8548  0.4855
16009SOL     OW53346   5.265   3.497   2.352  0.0603 -0.1755 -0.2969
16009SOL    HW153347   5.351   3.520   2.385  1.0096 -0.5293 -2.3260
16009SOL    HW253348   5.242   3.416   2.398  0.4711  0.3234  0.7968
16010SOL     OW53349   8.786   4.262   3.376  0.7499  0.0594 -0.4508
16010SOL    HW153350   8.855   4.283   3.439 -0.4801 -0.9419  1.3272
16010SOL    HW253351   8.801   4.170   3.354  0.3560  0.0177 -0.5521
16011SOL     OW53352   3.040   5.628   3.360 -0.4239  0.4393 -0.0688
16011SOL    HW153353   3.121   5.601   3.316 -0.6583  0.4704 -0.5226
16011SOL    HW253354   2.972   5.573   3.321 -0.6909  0.7242 -0.0042
16012SOL     OW53355  11.129   2.796   6.803 -0.3529 -0.0079 -0.2764
16012SOL    HW153356  11.178   2.718   6.828 -1.1779 -0.2556  0.6562
16012SOL    HW253357  11.039   2.777   6.830 -0.8402  0.6920 -1.3400
16013SOL     OW53358   5.883   0.678   0.283  0.2775 -0.3548 -0.3946
16013SOL    HW153359   5.803   0.670   0.233  0.3509 -0.3364 -0.5139
16013SOL    HW253360   5.929   0.752   0.245  0.3518 -0.3654 -0.3269
16014SOL     OW53361   3.413  10.008  11.660  0.1445  0.4892  0.5059
16014SOL    HW153362   3.448  10.005  11.749  0.7608  0.1844  0.2547
16014SOL    HW253363   3.336   9.952  11.662  0.9129 -0.5961  0.5222
16015SOL     OW53364   4.496   1.002   7.259 -0.0106 -0.1006  0.4162
16015SOL    HW153365   4.535   0.916   7.243  1.0169  0.1031  1.6961
16015SOL    HW253366   4.534   1.030   7.342 -2.2757  0.4810  1.3159
16016SOL     OW53367   2.410   6.595   4.043 -0.2599 -0.3711  0.0079
16016SOL    HW153368   2.401   6.668   4.105  2.4826 -1.5089  1.9483
16016SOL    HW253369   2.438   6.636   3.961  0.2708  0.8696  0.7783
16017SOL     OW53370   9.998   9.073   9.485  0.2186  0.1968  0.0220
16017SOL    HW153371  10.029   9.156   9.449  2.2949 -0.4375  0.1890
16017SOL    HW253372  10.078   9.025   9.508 -0.9314 -0.9355  2.0463
16018SOL     OW53373   0.049  10.826   6.489 -0.1867 -0.1325 -0.0202
16018SOL    HW153374   0.113  10.851   6.422 -1.1432 -1.1515 -1.3620
16018SOL    HW253375   0.091  10.851   6.572  1.0157  1.1853 -0.9730
16019SOL     OW53376   1.586  10.522   8.975  0.2737 -0.1154  0.0932
16019SOL    HW153377   1.508  10.480   8.937  0.6375  0.0644 -0.8922
16019SOL    HW253378   1.659  10.490   8.921  0.8220  0.0964  0.7009
16020SOL     OW53379   6.448   9.683   8.207 -0.4312 -0.1768  0.5540
16020SOL    HW153380   6.393   9.741   8.260  1.5481  2.0167  0.3641
16020SOL    HW253381   6.510   9.645   8.269  1.5230  1.9541  0.0352
16021SOL     OW53382   5.670   6.183   4.898 -0.2275 -0.0387 -0.0450
16021SOL    HW153383   5.652   6.277   4.900 -1.8792 -0.3207  1.6812
16021SOL    HW253384   5.604   6.148   4.837 -0.4641 -0.2149  0.3101
16022SOL     OW53385   5.940   9.137   9.113  0.1088  0.0716  0.2278
16022SOL    HW153386   5.892   9.211   9.148 -0.4679  0.4975 -1.3646
16022SOL    HW253387   5.876   9.066   9.111  0.4706 -0.2879  1.1154
16023SOL     OW53388   1.237  10.927   2.556 -0.4593 -0.2011 -0.1560
16023SOL    HW153389   1.199  10.855   2.505 -1.8481  0.0926  0.4204
16023SOL    HW253390   1.227  11.004   2.500  0.2472 -0.2949 -0.4214
16024SOL     OW53391   2.780   2.271   8.024  0.2537 -0.3144  0.2014
16024SOL    HW153392   2.716   2.305   8.087  0.5250 -0.5507  0.6094
16024SOL    HW253393   2.865   2.288   8.065  0.4604  0.0755 -0.3767
16025SOL     OW53394   0.854   2.727   7.270  0.1835  0.2206 -0.0516
16025SOL    HW153395   0.932   2.759   7.315 -0.3888  0.6163  0.6794
16025SOL    HW253396   0.856   2.771   7.185 -0.1393  1.5726  0.6159
16026SOL     OW53397   1.325   5.348  10.060  0.4446 -0.3825 -0.1567
16026SOL    HW153398   1.377   5.311   9.989  0.7991 -0.5479  0.1864
16026SOL    HW253399   1.389   5.373  10.127  0.1500  0.1450 -0.0638
16027SOL     OW53400   4.749   0.510   6.046 -0.1713  0.5062  0.3533
16027SOL    HW153401   4.669   0.559   6.025 -0.3806 -0.0705 -0.2057
16027SOL    HW253402   4.793   0.499   5.962 -0.2902 -0.5455  0.4168
16028SOL     OW53403   8.393   5.712  11.517 -0.7367 -0.2579  0.4152
16028SOL    HW153404   8.381   5.624  11.552  1.1523 -0.4561  0.6547
16028SOL    HW253405   8.455   5.753  11.577 -0.7240  0.8612 -0.3322
16029SOL     OW53406   8.114   7.510   8.681  0.8933  0.0802 -0.0018
16029SOL    HW153407   8.153   7.424   8.698 -1.4824 -0.8007  1.6228
16029SOL    HW253408   8.113   7.516   8.585  3.2085 -0.6051 -0.1393
16030SOL     OW53409   7.616   2.410   3.958 -0.1587 -0.7960 -0.8658
16030SOL    HW153410   7.588   2.338   4.014 -0.0409 -0.5718 -0.5123
16030SOL    HW253411   7.708   2.390   3.939  1.0773  1.0478  2.2260
16031SOL     OW53412   9.700   8.206   9.690  0.4130  0.1739 -0.2796
16031SOL    HW153413   9.789   8.210   9.725  0.4404 -1.6729 -0.0211
16031SOL    HW253414   9.645   8.240   9.761  0.7391 -0.7834  0.4616
16032SOL     OW53415   0.496   9.397   1.562  0.4869 -0.0315 -0.3532
16032SOL    HW153416   0.552   9.462   1.604  0.6896  0.3191 -1.1454
16032SOL    HW253417   0.434   9.371   1.630 -1.0934  2.6987 -0.6325
16033SOL     OW53418   5.680   9.357  10.992 -0.2723 -0.5761 -0.0860
16033SOL    HW153419   5.715   9.415  10.924 -1.1573  0.1892  0.0968
16033SOL    HW253420   5.601   9.320  10.954  0.7950 -2.5017 -0.5888
16034SOL     OW53421   8.006   6.344   0.975  0.0566 -0.4002  0.1011
16034SOL    HW153422   7.955   6.263   0.972 -1.6838  0.6374 -1.0107
16034SOL    HW253423   8.034   6.357   0.884  1.4463 -0.4036  0.5149
16035SOL     OW53424   2.416   6.139   4.174  0.0566  0.2190 -0.2296
16035SOL    HW153425   2.473   6.138   4.097 -0.8202 -0.2798 -0.8986
16035SOL    HW253426   2.397   6.232   4.190 -0.7797  0.2748 -1.4183
16036SOL     OW53427  10.447   1.832  10.882  0.1914 -0.7998 -0.7741
16036SOL    HW153428  10.377   1.767  10.870 -1.4264  0.8832 -0.8882
16036SOL    HW253429  10.419   1.884  10.958  2.2815 -1.2213  0.3672
16037SOL     OW53430   3.145   0.367  10.741 -0.1075 -0.3641 -0.5446
16037SOL    HW153431   3.124   0.311  10.815 -0.6480 -1.1325 -1.2763
16037SOL    HW253432   3.082   0.344  10.673  0.5604  0.1192 -1.3571
16038SOL     OW53433   8.687   4.370   6.363 -0.1970  0.3817 -0.2307
16038SOL    HW153434   8.643   4.409   6.439  0.4606 -0.7880  0.7872
16038SOL    HW253435   8.776   4.352   6.394 -0.4990 -2.0346 -0.5770
16039SOL     OW53436   2.344   4.207   4.153 -0.0742  0.6039  0.2096
16039SOL    HW153437   2.309   4.128   4.111 -0.3989  0.3707  0.9099
16039SOL    HW253438   2.268   4.265   4.161  0.1459  0.9553 -0.2197
16040SOL     OW53439   0.405   9.196   9.790 -0.2748  0.1686 -0.3940
16040SOL    HW153440   0.405   9.232   9.878 -1.0426 -2.0761  0.6000
16040SOL    HW253441   0.439   9.267   9.735  0.1001  1.6721  1.6531
16041SOL     OW53442   1.435   5.234  11.786  0.0313 -0.5603 -0.2659
16041SOL    HW153443   1.495   5.309  11.784 -0.6299 -0.0181 -0.3790
16041SOL    HW253444   1.352   5.270  11.755 -0.0334 -1.5974 -1.3456
16042SOL     OW53445   3.144   0.784   9.364  0.3908 -0.3432  0.4324
16042SOL    HW153446   3.137   0.691   9.341  0.6973 -0.2716  0.0478
16042SOL    HW253447   3.207   0.786   9.436  1.0305 -0.3483 -0.1186
16043SOL     OW53448  10.102   7.042  11.437  0.2201 -0.2188 -0.7864
16043SOL    HW153449  10.055   6.959  11.444  2.2787 -1.4250 -0.2870
16043SOL    HW253450  10.073   7.080  11.355 -0.9501 -1.3187 -0.9076
16044SOL     OW53451   0.456   1.276  10.274 -0.5974 -0.3253 -0.4731
16044SOL    HW153452   0.496   1.300  10.191 -1.0336  2.5661  0.0452
16044SOL    HW253453   0.529   1.260  10.333 -0.2906 -1.8879 -1.2231
16045SOL     OW53454   0.512   6.818   5.402 -0.6102 -0.1437  0.2111
16045SOL    HW153455   0.466   6.901   5.416 -0.3326  0.3136 -1.4489
16045SOL    HW253456   0.459   6.771   5.338  1.0541  0.2962 -1.5542
16046SOL     OW53457   0.179   6.823   8.987  0.3002  0.1444  0.8879
16046SOL    HW153458   0.218   6.834   8.900  3.4159 -0.4730  2.0686
16046SOL    HW253459   0.173   6.728   8.999 -0.9226  0.2228  1.0693
16047SOL     OW53460   8.651   5.959   2.048  0.1939  0.1201 -0.1879
16047SOL    HW153461   8.656   6.002   2.134 -0.8840 -1.3295  0.6521
16047SOL    HW253462   8.557   5.948   2.032  0.3744  0.6152 -1.7091
16048SOL     OW53463   5.539   3.939   9.367 -0.6963  0.5986  0.4461
16048SOL    HW153464   5.558   3.848   9.343  0.4154  0.8102  0.4632
16048SOL    HW253465   5.454   3.957   9.328  0.2851  0.4173 -1.9742
16049SOL     OW53466   1.804   5.287   3.282 -0.0784  0.2161 -0.3242
16049SOL    HW153467   1.882   5.232   3.288 -0.0264  0.2170 -0.9712
16049SOL    HW253468   1.737   5.238   3.330  0.2960  0.1846  0.1806
16050SOL     OW53469   5.995   1.304   6.933 -0.0263 -0.1154 -0.8683
16050SOL    HW153470   6.038   1.271   6.854  0.4314  2.2289 -1.6800
16050SOL    HW253471   6.056   1.286   7.003  0.9030  0.3730 -1.5303
16051SOL     OW53472   7.393   4.232   6.360  0.2969 -0.8941  0.5075
16051SOL    HW153473   7.410   4.295   6.289 -1.2223 -0.0742  0.8300
16051SOL    HW253474   7.315   4.184   6.331  1.7632 -3.0977 -0.0007
16052SOL     OW53475   2.716   1.779   5.500 -0.6403  0.0163 -0.0869
16052SOL    HW153476   2.699   1.815   5.588 -3.0082  1.0129 -0.8661
16052SOL    HW253477   2.695   1.686   5.508  0.9047 -0.2956  0.7905
16053SOL     OW53478   0.072  10.928   9.325  0.8672 -0.3164  0.5170
16053SOL    HW153479   0.007  10.859   9.335  1.3342 -1.3891 -2.5563
16053SOL    HW253480   0.043  10.977   9.248  1.6550  1.6868  1.4225
16054SOL     OW53481   5.912   0.635  10.611  0.1386 -0.5063 -0.4469
16054SOL    HW153482   5.868   0.629  10.696  1.2037 -1.2142  0.0786
16054SOL    HW253483   5.949   0.723  10.609 -0.0405 -0.4255 -0.2562
16055SOL     OW53484   3.992   2.107   0.686  0.4513 -0.0614 -0.0671
16055SOL    HW153485   3.906   2.112   0.646  0.0724 -0.1151  0.7204
16055SOL    HW253486   4.051   2.086   0.614 -0.2582 -0.4676 -0.5383
16056SOL     OW53487   1.177   8.005   5.517 -0.1602 -0.1475  0.2851
16056SOL    HW153488   1.225   8.029   5.438 -2.4690  1.7614 -0.6619
16056SOL    HW253489   1.102   7.954   5.484 -0.4486 -0.4574  1.3917
16057SOL     OW53490   2.139   9.940   5.557 -0.6961 -0.8434  0.5871
16057SOL    HW153491   2.113   9.882   5.630  1.0451 -1.9472  0.3724
16057SOL    HW253492   2.218   9.983   5.588 -0.4313 -0.6620 -0.3292
16058SOL     OW53493   1.014   7.595   1.856 -0.0571 -0.1419 -0.5895
16058SOL    HW153494   0.931   7.555   1.829 -0.6097  0.1587  0.6089
16058SOL    HW253495   1.023   7.673   1.801 -0.6265 -0.1110 -0.6403
16059SOL     OW53496   0.711   6.836   4.879  0.6517  0.1842 -0.7515
16059SOL    HW153497   0.650   6.884   4.935 -0.4898  0.2305 -1.9917
16059SOL    HW253498   0.791   6.888   4.881 -0.5585  2.2413 -2.1038
16060SOL     OW53499   3.929   2.483   5.638 -0.0712  0.2829  0.5713
16060SOL    HW153500   4.014   2.439   5.650 -0.5406 -0.7174  0.3656
16060SOL    HW253501   3.892   2.486   5.726 -0.5974 -0.9454  0.4152
16061SOL     OW53502   7.538  11.397   3.984  0.3662 -0.1627 -0.0606
16061SOL    HW153503   7.548  11.302   3.973  0.1556 -0.5041  2.2337
16061SOL    HW253504   7.487  11.424   3.908 -1.5438 -2.2943  0.3429
16062SOL     OW53505   9.969  10.787  11.367 -0.6182  0.1117  0.0584
16062SOL    HW153506   9.886  10.775  11.414 -0.8414 -0.4816 -0.4686
16062SOL    HW253507   9.979  10.882  11.361 -1.1591  0.1906  0.2977
16063SOL     OW53508   9.299   5.212   0.211 -0.0723  0.3054 -0.1593
16063SOL    HW153509   9.377   5.261   0.235  0.9891 -0.9571 -0.8981
16063SOL    HW253510   9.307   5.199   0.116 -0.3755 -1.1435 -0.0138
16064SOL     OW53511   2.170   0.741   1.889 -0.7877 -0.6286 -0.5512
16064SOL    HW153512   2.258   0.779   1.897 -0.1590 -2.1436  0.2584
16064SOL    HW253513   2.174   0.661   1.942 -2.7150 -0.6537 -0.3671
16065SOL     OW53514   6.837   3.134   2.304  0.4284 -0.0694 -0.2633
16065SOL    HW153515   6.835   3.229   2.292 -1.1901  0.0024  0.3151
16065SOL    HW253516   6.841   3.122   2.399 -1.2741 -0.5413 -0.2137
16066SOL     OW53517   0.379   5.840   1.403 -0.1152  0.3477  0.9040
16066SOL    HW153518   0.413   5.895   1.474 -0.5051  0.8916  0.6785
16066SOL    HW253519   0.306   5.793   1.443  0.3911 -0.2260  1.1731
16067SOL     OW53520   8.377   8.360   0.608  0.1471 -0.5193 -0.1180
16067SOL    HW153521   8.422   8.344   0.525  1.9776 -0.8495  0.8700
16067SOL    HW253522   8.384   8.277   0.655  2.2111  0.5745  1.7029
16068SOL     OW53523   5.399   4.288   3.266 -0.4771  0.0152  0.0106
16068SOL    HW153524   5.401   4.195   3.243 -3.0966  0.2033 -1.3549
16068SOL    HW253525   5.374   4.331   3.185 -2.9429  1.5227  1.4833
16069SOL     OW53526   8.251   0.602  11.608  0.1985 -0.2038  0.4802
16069SOL    HW153527   8.180   0.663  11.628  0.7924  1.6500 -2.4493
16069SOL    HW253528   8.324   0.632  11.662  0.3482  1.5272 -0.5926
16070SOL     OW53529   1.079   9.402   3.645 -0.2875  0.1259 -0.2341
16070SOL    HW153530   1.105   9.313   3.670 -1.5250  0.4677  2.5993
16070SOL    HW253531   1.038   9.391   3.559 -0.0326 -1.9788 -0.1421
16071SOL     OW53532   4.298  11.378   7.554  0.4030 -0.7383  0.1435
16071SOL    HW153533   4.219  11.327   7.536  0.1302 -0.5922  0.8837
16071SOL    HW253534   4.273  11.469   7.535  1.5854 -1.0195 -3.5456
16072SOL     OW53535  10.703  11.276  10.601 -0.5509  0.2726  0.2540
16072SOL    HW153536  10.733  11.311  10.685  1.1143  0.3161 -0.3228
16072SOL    HW253537  10.658  11.195  10.624 -0.8497  0.6924  1.2433
16073SOL     OW53538   1.434   8.739   4.021 -0.4421 -0.3889 -0.8295
16073SOL    HW153539   1.486   8.817   4.042  1.0755 -1.3494 -0.8444
16073SOL    HW253540   1.344   8.765   4.039  0.1909  0.7585  1.0027
16074SOL     OW53541   0.604   9.888   1.555 -0.2478 -0.0335  0.1463
16074SOL    HW153542   0.551   9.809   1.558 -1.2898  0.6360 -0.3142
16074SOL    HW253543   0.558   9.947   1.495 -2.2034  2.8275  4.0225
16075SOL     OW53544  10.308   6.607   8.902  0.0326 -0.5894 -0.3436
16075SOL    HW153545  10.385   6.553   8.922  0.1693  0.1184  1.1688
16075SOL    HW253546  10.233   6.551   8.923  0.1743 -0.0440  1.8599
16076SOL     OW53547  10.965  11.633  10.389 -0.0534 -0.0808 -0.2044
16076SOL    HW153548  10.972  11.587  10.472  1.1083  0.9692  0.3090
16076SOL    HW253549  10.944  11.723  10.412 -1.4344 -0.1171 -1.1515
16077SOL     OW53550  10.539   4.428  11.114 -0.1255 -0.1212 -0.8420
16077SOL    HW153551  10.484   4.507  11.115 -0.0157  0.0282 -2.6624
16077SOL    HW253552  10.582   4.428  11.199 -1.1579  1.0419 -0.2761
16078SOL     OW53553   9.852   5.228   2.355 -0.4420 -0.2915  0.0545
16078SOL    HW153554   9.940   5.211   2.389 -0.6173  0.0062  0.6653
16078SOL    HW253555   9.815   5.141   2.340 -1.8056 -0.6693  4.3482
16079SOL     OW53556   4.465   3.772   8.331 -0.2680  0.2493  0.2025
16079SOL    HW153557   4.546   3.725   8.311  0.0666  1.3349 -1.1118
16079SOL    HW253558   4.484   3.863   8.310 -1.4365  0.7279  1.1039
16080SOL     OW53559   1.165   7.656   4.593 -0.5693  0.7467  0.0542
16080SOL    HW153560   1.241   7.621   4.640 -1.1410  0.7185  0.9826
16080SOL    HW253561   1.156   7.600   4.516  1.0287  1.4499 -0.6796
16081SOL     OW53562   3.446   8.338   1.774  0.6040 -0.4977  0.3408
16081SOL    HW153563   3.404   8.399   1.713  2.7526  0.2071 -0.5271
16081SOL    HW253564   3.419   8.252   1.744 -1.2101 -0.0717  0.6187
16082SOL     OW53565   4.309   7.994  10.872  0.5570  0.1797  0.1297
16082SOL    HW153566   4.345   8.051  10.803  0.1708 -1.1260 -1.1984
16082SOL    HW253567   4.371   7.921  10.876 -0.3240 -0.5874 -0.0434
16083SOL     OW53568  11.123   6.232   1.790  0.3610  0.0938 -0.1364
16083SOL    HW153569  11.154   6.284   1.717  0.6809 -0.1266 -0.1607
16083SOL    HW253570  11.056   6.286   1.832 -0.1509  0.0346 -0.8591
16084SOL     OW53571   3.356   7.495  10.195 -0.0430  0.2833  0.1930
16084SOL    HW153572   3.321   7.517  10.281 -0.2890  0.4498  0.0521
16084SOL    HW253573   3.449   7.515  10.201  0.1172 -0.6051  0.7190
16085SOL     OW53574   1.901  11.363   9.358  0.1583 -0.2741  0.1673
16085SOL    HW153575   1.896  11.296   9.289  0.9721 -1.1855  0.9678
16085SOL    HW253576   1.872  11.443   9.315  0.5616 -0.8429 -1.2246
16086SOL     OW53577   0.072   0.099   4.621  0.0596 -0.1616  0.4798
16086SOL    HW153578  -0.017   0.071   4.643  0.3322  0.1830  2.2024
16086SOL    HW253579   0.123   0.018   4.623 -0.0698 -0.2479  0.3062
16087SOL     OW53580   6.067   0.485   0.332  0.0729 -0.4544  0.1532
16087SOL    HW153581   6.053   0.462   0.424 -0.8637  0.7470  0.3419
16087SOL    HW253582   5.999   0.550   0.313  0.6298 -0.2355 -1.2228
16088SOL     OW53583   0.358   1.545   1.683 -0.0845 -0.6017 -0.5233
16088SOL    HW153584   0.358   1.534   1.778 -0.1490 -0.2423 -0.4796
16088SOL    HW253585   0.387   1.460   1.649  1.2201 -0.3438 -0.1332
16089SOL     OW53586   7.950   2.328   6.072 -0.3046  0.0837  0.2123
16089SOL    HW153587   7.997   2.398   6.027 -0.9390  0.4622  0.1174
16089SOL    HW253588   7.945   2.258   6.007 -1.9171  0.9297 -0.6301
16090SOL     OW53589   5.181   0.780   3.891 -0.0269 -0.5833 -0.3037
16090SOL    HW153590   5.241   0.854   3.901  1.1036 -1.4659 -0.4131
16090SOL    HW253591   5.116   0.811   3.828 -0.4259  0.8187  0.7230
16091SOL     OW53592  11.498   0.082   1.500 -0.0827 -0.1853  0.2913
16091SOL    HW153593  11.580   0.120   1.470  0.6453 -1.2709  0.8709
16091SOL    HW253594  11.475   0.019   1.431  1.4766 -2.5210  1.7735
16092SOL     OW53595   7.700   8.565   9.659  0.2039  0.1453  0.0552
16092SOL    HW153596   7.645   8.643   9.657 -0.3504 -0.2355 -1.4024
16092SOL    HW253597   7.656   8.506   9.719  0.5758  0.8958  1.0921
16093SOL     OW53598   5.857   0.123   8.338  0.3770  0.4337  0.2838
16093SOL    HW153599   5.848   0.109   8.244 -0.7788 -1.0718  0.5711
16093SOL    HW253600   5.937   0.077   8.362  1.2778  1.7456 -0.1012
16094SOL     OW53601  11.682   8.395  10.402  0.1553 -0.2060  0.2083
16094SOL    HW153602  11.748   8.453  10.440  0.4990  0.2709 -1.0733
16094SOL    HW253603  11.724   8.309  10.399  2.2116  0.6946 -3.8411
16095SOL     OW53604  10.505   6.312  11.591  0.5875 -0.1030 -0.6672
16095SOL    HW153605  10.436   6.378  11.591  1.1409  0.5378 -2.6677
16095SOL    HW253606  10.576   6.352  11.540  1.6261 -1.5474 -0.3968
16096SOL     OW53607   4.160   5.519   8.214 -0.1236  0.1767  0.4911
16096SOL    HW153608   4.237   5.553   8.260 -0.1807 -1.1363  1.6080
16096SOL    HW253609   4.186   5.432   8.185 -1.0824 -0.1506  0.5809
16097SOL     OW53610   9.723   9.841   6.816  0.1417 -0.0321  0.4145
16097SOL    HW153611   9.647   9.895   6.836  0.9659  0.9076  1.1310
16097SOL    HW253612   9.695   9.752   6.835 -0.9259  0.2399  0.1845
16098SOL     OW53613   2.215   3.276  11.543  0.8620  0.0545  0.1628
16098SOL    HW153614   2.255   3.193  11.514  0.9307 -0.1111  0.7211
16098SOL    HW253615   2.197   3.263  11.636  1.2256  0.8049  0.3470
16099SOL     OW53616   8.657   7.683   4.696 -0.0753  0.1130  0.2734
16099SOL    HW153617   8.711   7.711   4.771  0.9653  2.4043 -1.2166
16099SOL    HW253618   8.666   7.588   4.695  0.6307  0.0819  2.4930
16100SOL     OW53619   8.314   1.884   0.464 -0.3120 -0.3496 -0.4428
16100SOL    HW153620   8.405   1.887   0.494 -0.3168  1.9704 -0.4351
16100SOL    HW253621   8.262   1.894   0.544 -0.3814  2.8312 -0.7236
16101SOL     OW53622   7.453   7.346   1.444  0.4015 -0.4301  0.3971
16101SOL    HW153623   7.542   7.381   1.436  0.3994 -0.5605 -0.2683
16101SOL    HW253624   7.402   7.393   1.378  0.0119 -0.4730  0.6643
16102SOL     OW53625   3.059   6.022   9.059  0.6995 -0.0520 -0.4988
16102SOL    HW153626   3.067   5.936   9.019 -0.1439 -1.3465  1.9151
16102SOL    HW253627   2.981   6.016   9.114  0.8564  2.1259  0.0658
16103SOL     OW53628   1.842   3.985   9.234  0.3101 -0.2355  0.3097
16103SOL    HW153629   1.864   3.937   9.154  0.6706 -0.9353  0.8139
16103SOL    HW253630   1.925   3.991   9.281  0.3970  1.3991  0.0014
16104SOL     OW53631   4.544  11.232  11.360 -0.4240  0.1766  0.2448
16104SOL    HW153632   4.601  11.179  11.304 -1.5378 -0.0444 -0.7229
16104SOL    HW253633   4.559  11.198  11.448  3.6623  2.5159  0.7076
16105SOL     OW53634   5.607   6.432   0.928  0.1519  0.3605 -0.2696
16105SOL    HW153635   5.651   6.351   0.952  0.0037  0.5082  0.5044
16105SOL    HW253636   5.675   6.486   0.887  0.4734  0.2250  0.0896
16106SOL     OW53637   4.744   4.832   8.164 -0.3935  0.1238  0.3245
16106SOL    HW153638   4.743   4.901   8.230  2.1517 -0.9413  1.6283
16106SOL    HW253639   4.680   4.768   8.196  0.4896 -0.1679  1.5694
16107SOL     OW53640   8.836   6.447   8.709 -0.0583 -0.2956  0.1960
16107SOL    HW153641   8.821   6.357   8.739 -1.0184  0.0571  0.7895
16107SOL    HW253642   8.749   6.485   8.699  0.2282 -0.0503 -2.0930
16108SOL     OW53643   3.900   9.030   9.650 -0.1066 -0.2326 -0.1870
16108SOL    HW153644   3.914   9.087   9.725 -0.5897  0.2730 -0.4759
16108SOL    HW253645   3.982   8.980   9.643  0.0800 -0.0289  0.4488
16109SOL     OW53646  10.599   9.807   5.287  0.1672  0.1223 -0.3004
16109SOL    HW153647  10.532   9.777   5.349 -0.3239  0.4412 -0.6766
16109SOL    HW253648  10.621   9.896   5.316  1.0099 -0.2595  0.2980
16110SOL     OW53649  10.093   3.524   0.254  0.1937 -0.2540 -0.5039
16110SOL    HW153650  10.015   3.575   0.235  0.7955 -0.1354 -2.9542
16110SOL    HW253651  10.155   3.588   0.291  0.0506  0.2394 -1.1072
16111SOL     OW53652   7.135   9.454   8.690  0.7136 -0.4992  0.2725
16111SOL    HW153653   7.078   9.405   8.749  0.8148 -0.5040  0.3650
16111SOL    HW253654   7.172   9.524   8.743  0.0530  0.0847 -0.0161
16112SOL     OW53655  10.765   9.516   6.082 -0.3537  0.0399 -0.2150
16112SOL    HW153656  10.811   9.498   6.164 -0.4147 -1.9832 -0.5571
16112SOL    HW253657  10.812   9.464   6.017 -0.9284  0.8135 -1.2771
16113SOL     OW53658   4.387   0.378   3.449 -0.0210  0.1102 -0.1846
16113SOL    HW153659   4.451   0.433   3.495 -2.3215  0.7983  2.4841
16113SOL    HW253660   4.343   0.438   3.388 -0.8447  0.7082  0.9511
16114SOL     OW53661   5.239   8.648   8.944  0.0501 -0.5526 -0.5685
16114SOL    HW153662   5.300   8.675   9.013 -0.5339 -2.1100  0.6097
16114SOL    HW253663   5.245   8.718   8.879  1.8559  0.1516  0.2728
16115SOL     OW53664   8.117   0.047   6.035  0.0457 -0.4232 -0.0903
16115SOL    HW153665   8.147  -0.012   6.104 -2.4329 -1.2753  0.3729
16115SOL    HW253666   8.161   0.130   6.052  2.9220 -1.8162 -0.1920
16116SOL     OW53667   6.210   7.012   1.947  0.7531  0.3589  0.3569
16116SOL    HW153668   6.262   6.968   1.880  1.0595  0.0686  0.7785
16116SOL    HW253669   6.270   7.022   2.021  0.8684  1.9639  0.0969
16117SOL     OW53670   1.775   5.390  11.169 -0.1018  0.0496  0.4490
16117SOL    HW153671   1.809   5.422  11.085  1.3686  0.4076  1.1533
16117SOL    HW253672   1.716   5.459  11.198 -0.9513 -0.2642 -0.4720
16118SOL     OW53673   2.406   1.159   4.959 -0.4911 -0.2024 -0.7127
16118SOL    HW153674   2.363   1.198   4.883 -0.9949 -1.0181 -0.8514
16118SOL    HW253675   2.401   1.228   5.026 -2.3306 -0.3671 -0.6155
16119SOL     OW53676   7.472  10.845   5.962 -0.4583 -0.4427 -0.3179
16119SOL    HW153677   7.513  10.848   6.048  0.0884  0.7729 -0.5864
16119SOL    HW253678   7.418  10.766   5.963  0.6468 -1.2312  0.6251
16120SOL     OW53679   4.220   3.925   1.483 -0.1598  0.2571 -0.4428
16120SOL    HW153680   4.211   3.831   1.467  1.1676  0.4918 -3.1672
16120SOL    HW253681   4.312   3.937   1.506 -0.9464  0.6270  3.0928
16121SOL     OW53682   8.543   0.596  11.393 -0.1934  0.5823 -0.3513
16121SOL    HW153683   8.557   0.655  11.319 -0.8968  2.3854  0.8781
16121SOL    HW253684   8.452   0.568  11.384 -1.4841  3.5867  1.5773
16122SOL     OW53685   6.729   8.210   2.336 -0.4904 -0.0876  0.3131
16122SOL    HW153686   6.725   8.116   2.320  1.8571 -0.2472  0.3226
16122SOL    HW253687   6.719   8.219   2.431  0.3639 -0.4391  0.4433
16123SOL     OW53688  10.044   3.213   0.934 -0.1769  0.5460 -0.0441
16123SOL    HW153689   9.959   3.185   0.967  0.0523  0.0244  0.1074
16123SOL    HW253690  10.097   3.229   1.012  0.0103  0.4119 -0.1415
16124SOL     OW53691   8.574   6.077   6.626 -0.7668  0.6981 -0.1893
16124SOL    HW153692   8.572   5.982   6.643 -1.9453  0.4336 -1.6382
16124SOL    HW253693   8.662   6.093   6.592 -0.7820  0.0048 -0.5752
16125SOL     OW53694  11.027   7.891  11.119 -0.5653  0.5763 -1.0660
16125SOL    HW153695  11.004   7.849  11.202 -2.9692  2.9422 -0.3734
16125SOL    HW253696  10.992   7.832  11.052 -2.7098  0.7641 -0.1916
16126SOL     OW53697   8.930   0.199   2.571 -0.1373  0.2102  0.1682
16126SOL    HW153698   8.965   0.216   2.484 -1.3465  1.1765 -0.1570
16126SOL    HW253699   9.006   0.204   2.629  0.7177 -0.6599 -0.8335
16127SOL     OW53700   1.184   7.043   4.986  0.3946 -0.1940 -0.1351
16127SOL    HW153701   1.279   7.053   4.999  0.4300  0.2644 -0.6743
16127SOL    HW253702   1.163   6.958   5.024  0.6575  0.5836  1.8700
16128SOL     OW53703   2.786   5.433   2.401  0.3341  0.0365 -0.0647
16128SOL    HW153704   2.778   5.529   2.399  2.1794  0.2337 -1.8419
16128SOL    HW253705   2.858   5.414   2.340  0.2986 -2.4676  0.5674
16129SOL     OW53706   2.525  10.939   2.807  0.0999  0.1433  0.5367
16129SOL    HW153707   2.516  10.865   2.747 -1.4582  1.6617 -1.2163
16129SOL    HW253708   2.452  10.929   2.868  0.4062 -0.2244  0.8479
16130SOL     OW53709  10.461  10.594   9.827  0.0064  0.3162 -0.4921
16130SOL    HW153710  10.512  10.625   9.752  0.6849 -0.4051 -0.3442
16130SOL    HW253711  10.415  10.517   9.795  1.0719 -0.5806  0.0861
16131SOL     OW53712   8.236   4.212   7.536  0.7138  0.3998  0.2706
16131SOL    HW153713   8.150   4.200   7.577  0.7540 -0.5538  0.0920
16131SOL    HW253714   8.268   4.123   7.522  1.6209  0.7489  0.0972
16132SOL     OW53715   5.735  11.017   9.781 -0.3431 -0.2068 -0.6500
16132SOL    HW153716   5.664  10.972   9.735  0.1536 -0.4939 -1.1509
16132SOL    HW253717   5.699  11.036   9.868 -0.6291 -1.4187 -0.4802
16133SOL     OW53718  11.389   2.393   7.044 -0.3771 -0.4435 -0.0662
16133SOL    HW153719  11.358   2.471   7.090 -0.7045 -1.6872  1.9103
16133SOL    HW253720  11.470   2.421   7.001 -0.6690  1.0643  0.3184
16134SOL     OW53721   2.683   7.430   3.210 -0.0161  0.3796  0.3101
16134SOL    HW153722   2.752   7.483   3.170  0.2548  0.2025  0.5408
16134SOL    HW253723   2.671   7.357   3.149 -1.5697  1.5595 -0.8783
16135SOL     OW53724  11.665   7.788   8.624  0.1674  0.1117 -0.2217
16135SOL    HW153725  11.737   7.792   8.686 -0.5058  3.2483  0.5184
16135SOL    HW253726  11.708   7.793   8.538  0.9403 -1.5541  0.0145
16136SOL     OW53727   0.676   5.788   8.907  0.1522 -0.4853 -0.1405
16136SOL    HW153728   0.753   5.819   8.858  0.7534 -0.6198  0.7116
16136SOL    HW253729   0.677   5.839   8.988 -0.5983 -0.5798 -0.0624
16137SOL     OW53730   5.890   8.338   6.647  0.3748  0.1013  0.3212
16137SOL    HW153731   5.803   8.318   6.683 -0.4297  3.0122  0.2550
16137SOL    HW253732   5.900   8.277   6.574 -1.0948 -1.1150  1.0835
16138SOL     OW53733   3.800  11.405   9.540  0.0203  0.2745  0.0516
16138SOL    HW153734   3.826  11.468   9.473 -1.8176 -0.1009 -1.0592
16138SOL    HW253735   3.873  11.406   9.602  0.2328  3.2378 -0.0855
16139SOL     OW53736   5.490   9.686   9.463 -0.1500  0.1249  0.2541
16139SOL    HW153737   5.511   9.677   9.370 -0.7708  0.2168  0.0972
16139SOL    HW253738   5.505   9.599   9.500 -0.2656 -0.0108 -0.0135
16140SOL     OW53739  11.324   9.621   7.218  0.2016  0.6930 -0.5111
16140SOL    HW153740  11.274   9.687   7.169 -0.0676 -0.0345 -1.2253
16140SOL    HW253741  11.395   9.670   7.259  0.0791  1.4047 -1.1396
16141SOL     OW53742   6.001   5.206   1.622 -0.1683  0.6949  0.1465
16141SOL    HW153743   5.959   5.292   1.618 -1.1529  0.1987 -0.6439
16141SOL    HW253744   6.058   5.204   1.546 -1.4428  0.0229 -0.8289
16142SOL     OW53745   6.216   0.922   3.662 -0.1647 -0.4101  0.2574
16142SOL    HW153746   6.250   0.852   3.606  1.3896 -0.4575  1.1853
16142SOL    HW253747   6.213   0.999   3.606  0.7810 -0.5910 -0.0577
16143SOL     OW53748  10.285   7.186   3.376  0.5094  0.2050 -0.1843
16143SOL    HW153749  10.260   7.264   3.427 -1.4513 -0.2819 -0.3145
16143SOL    HW253750  10.323   7.127   3.441  0.3784  0.5845  0.2471
16144SOL     OW53751   3.097   2.337  10.556  0.4963 -0.3567 -0.2113
16144SOL    HW153752   3.101   2.422  10.599  1.4822  0.9396 -2.6654
16144SOL    HW253753   3.126   2.274  10.622 -0.7404  1.0865  1.8220
16145SOL     OW53754   0.083  11.365   1.365 -0.1527  0.3605  0.0228
16145SOL    HW153755   0.055  11.368   1.456 -0.1658  1.1842 -0.0013
16145SOL    HW253756   0.170  11.325   1.368 -0.5015 -0.3902  0.3043
16146SOL     OW53757   3.636  11.046   7.894 -0.3280 -0.0286 -0.1435
16146SOL    HW153758   3.716  11.008   7.933 -0.8872 -0.0606  1.0151
16146SOL    HW253759   3.568  11.028   7.958 -1.3332 -0.2136 -1.2313
16147SOL     OW53760   7.320   7.898   5.807  0.2055 -0.0016 -0.0494
16147SOL    HW153761   7.411   7.907   5.779  0.2797 -0.7603 -0.0603
16147SOL    HW253762   7.315   7.949   5.888  0.2091  1.4465 -0.9353
16148SOL     OW53763   4.666   4.745   4.836 -0.0209 -0.3389  0.2256
16148SOL    HW153764   4.662   4.816   4.772  0.7410  0.1018  0.6575
16148SOL    HW253765   4.730   4.774   4.901 -0.9499 -0.6643  1.3220
16149SOL     OW53766   7.703  11.206  10.718 -0.2237 -0.2330  0.3140
16149SOL    HW153767   7.727  11.283  10.769 -0.1318 -0.0477 -0.0090
16149SOL    HW253768   7.649  11.154  10.777 -1.5529  0.7872  0.0395
16150SOL     OW53769  10.644   9.412   9.706 -0.5572 -0.0314 -0.3468
16150SOL    HW153770  10.551   9.389   9.715 -0.3528 -0.4053  1.1081
16150SOL    HW253771  10.689   9.348   9.761  0.4857  0.7701 -0.2532
16151SOL     OW53772   5.146  11.219   4.430 -0.3319 -0.2754  0.4141
16151SOL    HW153773   5.051  11.214   4.438 -0.4774 -0.5955 -1.1261
16151SOL    HW253774   5.161  11.293   4.372  0.2250 -1.3806 -0.9190
16152SOL     OW53775   1.622   0.490  10.478 -0.2467  0.0279 -0.4447
16152SOL    HW153776   1.599   0.490  10.385 -0.2020  0.7636 -0.4551
16152SOL    HW253777   1.594   0.403  10.509 -2.0444  0.4660 -0.7086
16153SOL     OW53778   1.907   0.809  10.858  0.1178 -0.0485 -0.1779
16153SOL    HW153779   1.966   0.830  10.786  0.8656  2.1021  0.9747
16153SOL    HW253780   1.820   0.834  10.825  0.7070  3.1965  0.3272
16154SOL     OW53781   4.813   0.635   2.955  0.4104  0.2336  0.3535
16154SOL    HW153782   4.874   0.587   2.899 -1.5248 -0.9032 -0.8872
16154SOL    HW253783   4.755   0.568   2.991 -1.4225  1.4602 -0.1921
16155SOL     OW53784   8.993   5.223   2.756  0.2489  0.0748 -0.1062
16155SOL    HW153785   8.902   5.255   2.758  0.4191  0.7044 -1.3501
16155SOL    HW253786   9.045   5.300   2.778  0.4777 -0.4232  1.1832
16156SOL     OW53787   8.884   6.557  10.757 -0.0363  0.1655 -0.2707
16156SOL    HW153788   8.825   6.595  10.691 -0.0571  0.5505 -0.0370
16156SOL    HW253789   8.944   6.628  10.778  0.8647 -0.3972 -0.9121
16157SOL     OW53790   6.346  11.495   5.809 -0.3104 -0.2222  0.0510
16157SOL    HW153791   6.316  11.416   5.854 -0.2446  0.3964  1.2145
16157SOL    HW253792   6.336  11.565   5.874 -0.9782  0.8501 -1.1611
16158SOL     OW53793   5.697   7.199   7.134 -0.5256  0.8386  0.4856
16158SOL    HW153794   5.766   7.141   7.166  0.3240  0.4178 -1.9037
16158SOL    HW253795   5.616   7.151   7.148  0.0896 -0.5838 -0.5979
16159SOL     OW53796   7.166   7.437   3.909 -0.3338 -0.2406 -0.4800
16159SOL    HW153797   7.196   7.354   3.871  1.3362  0.6959 -1.3625
16159SOL    HW253798   7.246   7.478   3.943 -1.2500  0.6469  0.7134
16160SOL     OW53799   5.384   3.507   9.921  0.4839  0.4123  0.2935
16160SOL    HW153800   5.297   3.517   9.958 -0.1677  1.3668 -1.3853
16160SOL    HW253801   5.385   3.420   9.881  0.2993  0.4111  0.2941
16161SOL     OW53802  11.760   4.411   2.674 -0.0665  0.1780  0.1400
16161SOL    HW153803  11.740   4.357   2.597  1.4984 -0.0471 -0.1480
16161SOL    HW253804  11.775   4.348   2.744  1.5209  0.1961 -0.1375
16162SOL     OW53805   2.743   2.296   6.411 -0.8109  0.3672 -0.3924
16162SOL    HW153806   2.805   2.260   6.475 -1.5381 -0.5414 -0.1901
16162SOL    HW253807   2.670   2.235   6.410 -0.4900 -0.0668 -2.6906
16163SOL     OW53808   6.643   4.928   1.815 -0.3176 -0.5639 -0.4572
16163SOL    HW153809   6.621   4.837   1.796 -0.2966 -0.8375  0.7808
16163SOL    HW253810   6.634   4.936   1.910 -0.9644  0.8999 -0.6189
16164SOL     OW53811  10.183   4.038   0.171  1.1190  0.1609 -0.2528
16164SOL    HW153812  10.266   4.022   0.126  0.5425  1.0028 -1.6703
16164SOL    HW253813  10.120   4.052   0.101  0.0321  0.8379  0.8191
16165SOL     OW53814  10.987   6.457   0.035 -0.5955 -0.3705 -0.5142
16165SOL    HW153815  11.070   6.504   0.040 -0.9679  0.1746  2.3339
16165SOL    HW253816  11.000   6.378   0.086 -1.2822 -1.2637 -1.6701
16166SOL     OW53817   1.901   5.341   6.601  0.3260 -0.8495  0.0687
16166SOL    HW153818   1.874   5.271   6.542 -0.9758 -1.0492  0.8416
16166SOL    HW253819   1.825   5.398   6.606  0.8182 -0.2328  0.6727
16167SOL     OW53820   7.740   8.643   5.397 -0.1839  0.3583 -0.3851
16167SOL    HW153821   7.818   8.607   5.355  0.0827  0.2666  0.1722
16167SOL    HW253822   7.670   8.629   5.334  0.4151  1.2803 -1.2936
16168SOL     OW53823   1.006   0.682   6.548 -0.0130 -0.3292  0.3632
16168SOL    HW153824   1.037   0.614   6.608 -0.6277  1.8732  3.4320
16168SOL    HW253825   1.047   0.763   6.580 -4.7217  1.9372  1.5870
16169SOL     OW53826   9.384  10.293   3.175 -0.1715  0.6243 -0.3702
16169SOL    HW153827   9.378  10.295   3.271 -0.7855 -0.7624 -0.3456
16169SOL    HW253828   9.309  10.344   3.145 -1.1353 -0.5617 -0.0754
16170SOL     OW53829   6.276   4.139   2.710 -0.2403  0.1848 -0.8310
16170SOL    HW153830   6.292   4.119   2.802  0.1434 -1.4192 -1.2137
16170SOL    HW253831   6.335   4.212   2.690  1.1175 -0.7409 -0.3004
16171SOL     OW53832   7.324   9.117   9.674  0.1237 -0.3617 -0.0591
16171SOL    HW153833   7.327   9.164   9.591  2.7812 -0.1768  0.0491
16171SOL    HW253834   7.278   9.176   9.733 -1.2295 -0.2127 -1.2147
16172SOL     OW53835   8.927  10.337   3.317 -0.1986  0.4719  0.3569
16172SOL    HW153836   8.840  10.333   3.276 -0.0119 -1.4514  0.0638
16172SOL    HW253837   8.911  10.376   3.403 -1.3896  0.0329  0.3572
16173SOL     OW53838   6.163   5.586   2.548 -0.2311 -0.4427 -0.2388
16173SOL    HW153839   6.132   5.662   2.597  0.2543 -0.6084  0.3432
16173SOL    HW253840   6.189   5.621   2.463 -1.9104 -0.2898 -0.7194
16174SOL     OW53841  11.592   1.418   3.777 -0.2411  0.7608  0.1682
16174SOL    HW153842  11.654   1.431   3.705  0.5156 -0.3370  0.5944
16174SOL    HW253843  11.612   1.331   3.811 -1.9558  0.4167  0.3958
16175SOL     OW53844  10.256   9.679   4.160 -0.0102  0.0541 -0.0526
16175SOL    HW153845  10.272   9.757   4.213 -0.9376  0.1347  0.1331
16175SOL    HW253846  10.329   9.620   4.180  0.4884  0.7212  0.0986
16176SOL     OW53847   6.169   9.461  11.593  0.0969  0.3258 -0.6013
16176SOL    HW153848   6.208   9.534  11.641  1.4008  1.8845 -3.8029
16176SOL    HW253849   6.244   9.411  11.560 -0.7773 -1.2980 -0.2623
16177SOL     OW53850   3.826   4.660  10.850  0.6356 -0.1681  0.2328
16177SOL    HW153851   3.846   4.713  10.773  1.6056 -1.3361 -0.3489
16177SOL    HW253852   3.743   4.695  10.882  2.3846  3.4008  1.4121
16178SOL     OW53853   3.492   1.805   4.181  0.4442  0.3125 -0.1774
16178SOL    HW153854   3.442   1.728   4.153 -1.0258  0.9779  0.5267
16178SOL    HW253855   3.566   1.769   4.230 -0.4140 -0.6528  0.4532
16179SOL     OW53856   8.057   7.514  11.576  0.5493 -0.1102 -0.1262
16179SOL    HW153857   7.982   7.549  11.625 -0.8739 -1.3157 -1.3277
16179SOL    HW253858   8.087   7.587  11.522  0.2143  0.3746  0.3301
16180SOL     OW53859   7.851   0.254   3.918  0.2600 -0.0545  0.7187
16180SOL    HW153860   7.767   0.279   3.956  0.0042 -1.5526  1.2283
16180SOL    HW253861   7.915   0.279   3.985 -0.0683 -1.4674  1.6035
16181SOL     OW53862   8.558   5.118   0.619  0.2481 -0.3297 -0.0006
16181SOL    HW153863   8.625   5.182   0.642 -0.5332  0.7181 -0.5477
16181SOL    HW253864   8.606   5.045   0.579  1.1291  0.0133  0.4263
16182SOL     OW53865  10.780   8.918   0.217  0.4842 -0.2582 -0.0850
16182SOL    HW153866  10.728   8.916   0.297  0.0551 -0.5197 -0.3612
16182SOL    HW253867  10.718   8.946   0.149  0.6174 -0.8840 -0.4780
16183SOL     OW53868   2.413  11.708   8.764 -0.5856 -0.2072  0.3476
16183SOL    HW153869   2.418  11.625   8.812 -1.4146 -0.4562  0.0136
16183SOL    HW253870   2.502  11.723   8.734 -0.5043 -1.1914  0.0618
16184SOL     OW53871   7.625   5.882  11.444  0.1397 -0.6431 -0.3382
16184SOL    HW153872   7.555   5.824  11.472 -0.8021  0.9624  0.7852
16184SOL    HW253873   7.581   5.963  11.419  1.5442  0.2269 -0.1404
16185SOL     OW53874   3.477   0.222   2.005  0.0223  0.4728  0.1379
16185SOL    HW153875   3.491   0.178   1.921  0.9097 -1.5050  1.2495
16185SOL    HW253876   3.542   0.293   2.006  0.2044  0.3312 -0.7172
16186SOL     OW53877   3.294   2.620   6.252  0.1275  0.1504  0.1342
16186SOL    HW153878   3.242   2.675   6.311  0.2562 -0.3779  0.7543
16186SOL    HW253879   3.287   2.663   6.167 -0.3429  0.7414  0.4607
16187SOL     OW53880   7.917   5.241   0.836 -0.4351 -0.6759  0.1795
16187SOL    HW153881   7.857   5.202   0.900 -2.5415 -0.3904 -1.4768
16187SOL    HW253882   7.904   5.188   0.757  1.4890 -0.5388 -0.2728
16188SOL     OW53883   5.987   4.739   4.957 -0.1154 -0.3502 -0.5141
16188SOL    HW153884   5.971   4.747   5.051 -0.8921  1.7115 -0.7610
16188SOL    HW253885   6.082   4.733   4.949 -0.0367 -0.4096  0.3994
16189SOL     OW53886   9.524  10.557   0.142  0.2473  0.3531  0.4307
16189SOL    HW153887   9.445  10.521   0.101  0.2617  0.3287  0.4236
16189SOL    HW253888   9.541  10.638   0.094 -0.0276  0.5838  0.7143
16190SOL     OW53889   4.406   3.576   0.191  0.5914 -0.3211  0.1237
16190SOL    HW153890   4.450   3.492   0.206 -0.4818 -1.0759 -0.7369
16190SOL    HW253891   4.319   3.551   0.159 -0.4766  1.1004  1.7367
16191SOL     OW53892   6.806   6.866   5.212  0.5462 -0.0634  0.1378
16191SOL    HW153893   6.743   6.919   5.163 -0.8676 -1.1709  0.6934
16191SOL    HW253894   6.762   6.847   5.295  2.0929  0.0952  1.0369
16192SOL     OW53895  11.526   3.041   9.285  0.0162 -0.5869  0.1209
16192SOL    HW153896  11.523   2.946   9.280 -0.7149 -0.5482 -0.2649
16192SOL    HW253897  11.553   3.070   9.198  0.0454 -0.4361  0.1783
16193SOL     OW53898   8.746   5.257   1.633  0.1566 -0.4463 -0.1678
16193SOL    HW153899   8.654   5.250   1.605  0.5661  0.6642 -1.9512
16193SOL    HW253900   8.796   5.247   1.552  1.4336  2.5727  0.1174
16194SOL     OW53901   4.415   0.718   6.221 -0.3211 -0.2693 -0.6460
16194SOL    HW153902   4.416   0.806   6.183  1.8662 -0.1222 -0.3518
16194SOL    HW253903   4.354   0.726   6.295  1.3931  1.6283  0.6788
16195SOL     OW53904   8.651   9.301   7.486 -0.4149 -0.2650  0.2634
16195SOL    HW153905   8.563   9.265   7.498 -0.2855 -0.3538  0.9841
16195SOL    HW253906   8.637   9.394   7.470 -0.6332 -0.2317  0.6309
16196SOL     OW53907   2.716   7.906   2.578  0.7327  0.2371 -0.1107
16196SOL    HW153908   2.763   7.868   2.652  0.7229  0.7913  0.1883
16196SOL    HW253909   2.633   7.935   2.615 -0.3515 -1.7449 -0.8615
16197SOL     OW53910   6.663   7.035   1.906  0.2913  0.0331  0.0306
16197SOL    HW153911   6.698   7.114   1.946 -3.2512  1.3707  0.9374
16197SOL    HW253912   6.678   6.966   1.971  3.1757 -0.0712 -0.6516
16198SOL     OW53913  10.439   4.666   7.021  0.2223 -0.6548  0.3194
16198SOL    HW153914  10.494   4.734   6.982 -1.8195  0.4006 -0.8513
16198SOL    HW253915  10.438   4.596   6.956  0.1484 -0.6699  0.3371
16199SOL     OW53916   5.128   0.245   2.778  0.5370 -0.1989  0.0911
16199SOL    HW153917   5.190   0.244   2.706  0.0372 -0.9233 -0.3424
16199SOL    HW253918   5.125   0.154   2.808 -1.7446 -0.6014 -1.1650
16200SOL     OW53919   3.388  10.415   6.687 -0.3624  0.2141 -0.8085
16200SOL    HW153920   3.439  10.340   6.657  1.2427  1.2801 -0.8717
16200SOL    HW253921   3.446  10.490   6.674 -0.6965  1.1068  2.1596
16201SOL     OW53922   0.983   3.797   3.440 -0.3127  0.8184  0.1344
16201SOL    HW153923   1.041   3.871   3.456  0.0249  0.3899  0.9735
16201SOL    HW253924   1.040   3.720   3.440 -0.9259  0.3070  1.7003
16202SOL     OW53925   4.619   8.957   5.149  0.1486  0.2782  0.6818
16202SOL    HW153926   4.535   8.916   5.132 -0.1278  1.3222 -0.6563
16202SOL    HW253927   4.684   8.894   5.118 -0.2771  0.9713 -1.7858
16203SOL     OW53928   8.879   9.791   3.841  0.0244  0.3832 -0.6811
16203SOL    HW153929   8.888   9.886   3.840 -1.6619  0.5598 -1.5401
16203SOL    HW253930   8.888   9.765   3.750 -0.4893 -0.1738 -0.5775
16204SOL     OW53931   0.592   4.762   4.125 -0.1997 -0.1422  0.2436
16204SOL    HW153932   0.668   4.815   4.104 -1.6461  2.3240  0.8586
16204SOL    HW253933   0.599   4.746   4.219 -0.2083 -0.2923  0.2185
16205SOL     OW53934   6.075   7.136   0.234 -0.6793  0.0747 -0.5674
16205SOL    HW153935   5.998   7.091   0.199 -0.8471 -0.6751  0.7345
16205SOL    HW253936   6.075   7.220   0.187 -3.0401  0.6486  0.2848
16206SOL     OW53937   6.190   3.866   4.513  0.3298 -0.2042  0.1073
16206SOL    HW153938   6.144   3.932   4.563 -1.0798  0.2861 -1.7042
16206SOL    HW253939   6.121   3.820   4.464  1.1759 -3.3267  1.5638
16207SOL     OW53940   0.071   3.111   9.712 -0.3569  0.3126  0.0162
16207SOL    HW153941  -0.010   3.147   9.676  0.1657  0.7769 -0.7155
16207SOL    HW253942   0.140   3.163   9.672  0.4560 -1.7411 -1.3846
16208SOL     OW53943   8.125  10.241   8.588 -0.2919  0.1974  0.7982
16208SOL    HW153944   8.123  10.218   8.681  2.4080 -0.6735  0.7188
16208SOL    HW253945   8.075  10.172   8.545 -0.0862 -0.3839  1.4684
16209SOL     OW53946  11.654   8.860   1.706 -0.4050  0.0557  0.2675
16209SOL    HW153947  11.710   8.848   1.629 -1.2280 -1.0404 -0.1933
16209SOL    HW253948  11.660   8.953   1.726 -2.3634  1.0143 -2.8982
16210SOL     OW53949   6.774   5.825   8.115  0.2998  0.1658  0.6685
16210SOL    HW153950   6.831   5.764   8.163  1.7988  0.3739 -0.7207
16210SOL    HW253951   6.826   5.850   8.038 -0.6403  2.4738  0.6959
16211SOL     OW53952   2.783   0.540   7.108 -0.6120  0.6417  0.0198
16211SOL    HW153953   2.697   0.537   7.150 -0.1592  0.7135  0.9744
16211SOL    HW253954   2.821   0.623   7.137  1.5229 -1.2295  3.1976
16212SOL     OW53955  10.066   6.641  10.942 -0.0427  0.0082  0.0383
16212SOL    HW153956  10.076   6.547  10.930 -1.0670 -0.0107 -0.8802
16212SOL    HW253957  10.112   6.679  10.867  1.8366  0.3485  1.2874
16213SOL     OW53958   2.206   9.911   5.973 -0.0114  0.2971  0.7025
16213SOL    HW153959   2.291   9.893   5.933 -0.3435  0.6418 -0.1746
16213SOL    HW253960   2.144   9.906   5.901 -0.6976  0.3972  1.2766
16214SOL     OW53961   5.705   8.616   8.802  0.6434 -0.2323  0.1258
16214SOL    HW153962   5.775   8.560   8.770 -0.1663 -0.6048 -1.0722
16214SOL    HW253963   5.681   8.670   8.727  0.2208  0.4919  0.7643
16215SOL     OW53964   2.910   7.410   1.120 -0.1587 -0.1021  0.3149
16215SOL    HW153965   2.890   7.388   1.029 -0.6004 -1.4406  0.7212
16215SOL    HW253966   2.828   7.399   1.166  0.6897 -2.3647  1.4044
16216SOL     OW53967   1.845   9.511   0.510  0.5943  0.4348 -0.2584
16216SOL    HW153968   1.867   9.573   0.440 -1.4125  2.2141  0.5546
16216SOL    HW253969   1.750   9.518   0.519  0.6375 -0.7624  1.7224
16217SOL     OW53970   5.263   6.706   1.027 -0.0851  0.1775 -0.1701
16217SOL    HW153971   5.327   6.716   1.098 -0.4103 -0.0719  0.1559
16217SOL    HW253972   5.221   6.791   1.020  0.4977  0.4424 -0.6000
16218SOL     OW53973   6.320   3.349   9.455  0.4156 -0.0806  0.2034
16218SOL    HW153974   6.379   3.329   9.383  0.0039 -0.0199 -0.1556
16218SOL    HW253975   6.289   3.263   9.485 -1.5191 -0.0359 -1.4771
16219SOL     OW53976   9.668   1.976   5.337 -0.1781 -0.0616 -0.1088
16219SOL    HW153977   9.612   1.912   5.381 -0.9779 -0.0606 -1.0975
16219SOL    HW253978   9.620   2.058   5.343 -0.6056 -0.1853 -1.4970
16220SOL     OW53979   4.804   4.779  10.203  0.6407 -0.5675  0.0304
16220SOL    HW153980   4.807   4.778  10.298 -3.4754 -1.1369  0.3045
16220SOL    HW253981   4.754   4.858  10.181 -0.3424 -1.5607 -1.5087
16221SOL     OW53982   2.435   8.945   3.015  0.5775  0.2907 -1.0366
16221SOL    HW153983   2.448   8.851   3.024 -2.1988 -0.0685  0.1597
16221SOL    HW253984   2.445   8.980   3.104 -0.4520  0.7931 -1.0999
16222SOL     OW53985   6.929   1.690   6.838  0.1553  0.7049 -0.1673
16222SOL    HW153986   6.972   1.640   6.908 -0.5381 -0.8823 -0.8206
16222SOL    HW253987   6.877   1.756   6.884  0.7289  0.5446  0.7521
16223SOL     OW53988   4.248   0.503   5.375 -0.3429  0.0137 -0.9812
16223SOL    HW153989   4.225   0.537   5.288  1.3649  2.4578 -0.5953
16223SOL    HW253990   4.343   0.489   5.371 -0.4107 -0.9474  0.1723
16224SOL     OW53991  10.542   7.740   9.962 -0.3172 -0.2644 -0.1978
16224SOL    HW153992  10.589   7.660   9.938  0.7867  0.1814  0.3678
16224SOL    HW253993  10.536   7.790   9.880  0.3344 -0.2691 -0.2526
16225SOL     OW53994   3.290   1.984   2.337  0.1046  0.4361  0.0105
16225SOL    HW153995   3.234   1.922   2.290  0.4225  0.6662 -0.6923
16225SOL    HW253996   3.364   1.998   2.278  1.0778 -0.1270  1.0720
16226SOL     OW53997   4.203   0.819   6.392 -0.2225 -0.1442 -0.6604
16226SOL    HW153998   4.111   0.837   6.374 -0.6739 -0.7874  0.8341
16226SOL    HW253999   4.206   0.726   6.412  0.5633  0.0758  0.3423
16227SOL     OW54000  11.395   1.665   4.677 -0.4648  0.3126 -0.2644
16227SOL    HW154001  11.404   1.635   4.768 -0.3450  1.0923 -0.0106
16227SOL    HW254002  11.478   1.640   4.636 -0.7704 -0.6200 -0.3416
16228SOL     OW54003   4.539   1.858   8.629  0.3623 -0.0565  0.0540
16228SOL    HW154004   4.486   1.823   8.700  0.4027  0.3089  0.2643
16228SOL    HW254005   4.606   1.911   8.672  0.4372  0.1018 -0.2521
16229SOL     OW54006   2.111  10.533   3.002  0.1992  0.1747  0.0888
16229SOL    HW154007   2.161  10.605   2.965 -0.7806  1.8547  1.8725
16229SOL    HW254008   2.176  10.466   3.021  1.6585  1.8637  1.3884
16230SOL     OW54009  10.391  10.913   1.465  0.4372 -0.3487  0.5485
16230SOL    HW154010  10.441  10.902   1.384 -0.3300 -0.9048  0.1319
16230SOL    HW254011  10.357  10.826   1.484 -0.0111 -0.0719  1.0527
16231SOL     OW54012   1.015   6.130   4.303  0.0962  0.2416 -0.7162
16231SOL    HW154013   1.015   6.034   4.296 -0.8533  0.1936 -0.2875
16231SOL    HW254014   1.103   6.152   4.333  0.1904 -0.5381 -0.3850
16232SOL     OW54015   1.305   9.647   1.233  0.1385  0.6312  0.3143
16232SOL    HW154016   1.382   9.627   1.180 -1.3235 -1.3496 -1.2580
16232SOL    HW254017   1.308   9.584   1.305 -0.2962  0.1046 -0.1128
16233SOL     OW54018  10.005   1.825  11.343  0.4644  0.2637 -0.7474
16233SOL    HW154019   9.930   1.768  11.359  0.0910  0.9661  0.0844
16233SOL    HW254020   9.998   1.849  11.251  0.0074 -0.1526 -0.8233
16234SOL     OW54021   3.512   6.389   1.989 -0.3083  0.1043 -0.3214
16234SOL    HW154022   3.565   6.335   1.931 -1.2654 -1.6785  0.3950
16234SOL    HW254023   3.422   6.380   1.956 -0.6558  0.2232  0.5636
16235SOL     OW54024  10.287  11.533  11.341 -0.1118 -0.4930 -0.2936
16235SOL    HW154025  10.254  11.566  11.424 -1.5090 -0.3877 -0.8655
16235SOL    HW254026  10.322  11.447  11.362 -1.9102 -1.1673  0.1624
16236SOL     OW54027   4.879   0.506   4.530  0.0687  0.9724  0.5388
16236SOL    HW154028   4.871   0.480   4.622  0.7528  0.5107  0.4719
16236SOL    HW254029   4.917   0.594   4.533 -2.2246  2.0513  0.7665
16237SOL     OW54030  11.317   4.335   7.726  0.6778 -0.8269 -0.5733
16237SOL    HW154031  11.376   4.401   7.762  2.2669 -2.0658 -0.7877
16237SOL    HW254032  11.234   4.381   7.715  1.1496  0.5914  1.1684
16238SOL     OW54033   7.119   5.790   0.055 -0.2509 -0.1636  0.2397
16238SOL    HW154034   7.122   5.876   0.012 -0.0633  0.2703  1.0927
16238SOL    HW254035   7.034   5.754   0.031 -0.7167  0.6589  0.6119
16239SOL     OW54036   7.852  10.527   5.307  0.6143 -0.2134 -0.0856
16239SOL    HW154037   7.891  10.574   5.381  1.2167  0.0145 -0.5347
16239SOL    HW254038   7.852  10.435   5.334  1.4316 -0.2115 -0.0585
16240SOL     OW54039   0.783  10.574   9.024  0.3319 -0.4168  0.0208
16240SOL    HW154040   0.770  10.548   8.933  0.5546  0.1522 -0.1748
16240SOL    HW254041   0.878  10.569   9.037  0.2157 -1.6463  0.5738
16241SOL     OW54042  10.607   2.281   5.403  0.4462 -0.7023  0.5637
16241SOL    HW154043  10.544   2.251   5.469  0.1313  2.9213  2.1572
16241SOL    HW254044  10.692   2.279   5.448  0.2447  1.6766  1.2092
16242SOL     OW54045  11.494   9.490   8.518 -0.3805  0.4474  0.0026
16242SOL    HW154046  11.443   9.507   8.596  0.6121 -0.3821  0.8677
16242SOL    HW254047  11.430   9.489   8.447 -1.3692  0.7071  0.8693
16243SOL     OW54048   1.768  11.009   9.721  0.4367 -0.1791 -0.2967
16243SOL    HW154049   1.764  10.960   9.802  0.2010 -0.2797 -0.3708
16243SOL    HW254050   1.791  11.098   9.748  0.2007 -0.1766 -0.1093
16244SOL     OW54051   0.271   9.953   0.653 -0.0625 -0.4472  0.0409
16244SOL    HW154052   0.349   9.946   0.709  0.3042 -1.0416 -0.5310
16244SOL    HW254053   0.305   9.952   0.564 -0.6649  0.2213 -0.2018
16245SOL     OW54054   4.939   0.704  10.278 -0.0416  0.3100 -0.1936
16245SOL    HW154055   4.886   0.775  10.315 -1.3775 -0.9191  0.3530
16245SOL    HW254056   5.030   0.734  10.288 -0.5526  1.8042  0.2733
16246SOL     OW54057   8.821   2.777  11.060 -0.2410  0.0462  0.4908
16246SOL    HW154058   8.890   2.745  11.002 -1.1915 -0.3424 -0.4705
16246SOL    HW254059   8.785   2.853  11.015 -2.0393 -1.1777 -0.2805
16247SOL     OW54060   8.122  10.901  10.951 -0.1005 -0.8232  0.2636
16247SOL    HW154061   8.049  10.961  10.938  0.1741  0.0468  2.2775
16247SOL    HW254062   8.163  10.931  11.032  2.8648 -0.9243 -1.0904
16248SOL     OW54063  11.804   8.551   1.594 -0.4259 -0.1286 -0.1899
16248SOL    HW154064  11.735   8.593   1.646 -1.1362 -1.2303 -0.2108
16248SOL    HW254065  11.760   8.479   1.550  0.1681  0.7283 -2.3223
16249SOL     OW54066   5.919   4.227   2.832  0.3821 -0.1044 -0.1453
16249SOL    HW154067   6.007   4.211   2.867 -0.4626 -3.2035  0.8968
16249SOL    HW254068   5.860   4.205   2.905 -1.3432 -2.9164 -2.1875
16250SOL     OW54069   6.877   6.908   2.998  0.1890 -0.2385 -0.1215
16250SOL    HW154070   6.965   6.941   2.977 -0.1830  0.6050 -0.3894
16250SOL    HW254071   6.883   6.882   3.090  0.6984 -0.1129 -0.1144
16251SOL     OW54072   7.030   8.036   5.415 -0.4340  0.5538  0.1931
16251SOL    HW154073   6.979   7.974   5.467  0.2633 -0.9013 -0.7811
16251SOL    HW254074   7.121   8.018   5.438 -0.1084 -0.1194 -1.4359
16252SOL     OW54075   2.163   7.268   5.819  0.4941  0.1527 -0.3011
16252SOL    HW154076   2.201   7.351   5.848 -0.9682 -0.4000  4.0545
16252SOL    HW254077   2.234   7.205   5.830  0.0744  0.0053  2.4842
16253SOL     OW54078  11.463   6.984   9.216  0.4060 -0.0111  0.1060
16253SOL    HW154079  11.444   6.958   9.306  1.7012 -1.4990  0.0073
16253SOL    HW254080  11.534   7.048   9.225  0.2850  0.1148  0.1635
16254SOL     OW54081   2.648   8.448   5.428 -0.5837  0.1639  0.1062
16254SOL    HW154082   2.742   8.454   5.411 -0.6188  0.0137 -0.1430
16254SOL    HW254083   2.632   8.510   5.499 -0.2935  0.1790  0.1578
16255SOL     OW54084   7.824   4.421  11.115  0.4157 -0.4110 -0.0304
16255SOL    HW154085   7.910   4.432  11.075  1.0779 -1.9968  0.8596
16255SOL    HW254086   7.801   4.330  11.097 -1.3728  0.1537 -0.7779
16256SOL     OW54087   2.357   7.046   5.779  0.2844  0.5080  0.7727
16256SOL    HW154088   2.334   6.983   5.710 -2.5757 -0.9019  2.8273
16256SOL    HW254089   2.404   6.994   5.844  0.2161  1.0988  1.2967
16257SOL     OW54090   2.686   4.155   2.950  0.8129  0.4435  0.1192
16257SOL    HW154091   2.662   4.071   2.910  0.6772 -0.0849  1.2671
16257SOL    HW254092   2.666   4.220   2.883  0.8948 -0.4396 -0.7830
16258SOL     OW54093  11.297   5.748   3.728  0.5927 -0.5086 -0.0746
16258SOL    HW154094  11.364   5.693   3.770 -0.1155 -1.0826  0.3243
16258SOL    HW254095  11.264   5.803   3.799  0.2390 -0.6282 -0.1464
16259SOL     OW54096   5.723  11.126   2.959  0.4341  0.0253 -0.4536
16259SOL    HW154097   5.670  11.049   2.936 -0.5076  0.9170 -1.3577
16259SOL    HW254098   5.720  11.129   3.054  0.5871 -1.1295 -0.3978
16260SOL     OW54099   4.638   4.182   9.821  0.0405  0.3530 -0.2345
16260SOL    HW154100   4.588   4.217   9.747 -0.6846  0.6358  0.3706
16260SOL    HW254101   4.657   4.259   9.875 -0.3970  0.0020  0.4265
16261SOL     OW54102   8.574  11.067   1.684 -0.3603 -0.0617 -0.2205
16261SOL    HW154103   8.588  11.089   1.777 -1.9690  0.4633 -0.0702
16261SOL    HW254104   8.563  11.152   1.641 -1.2205 -0.3556 -0.6007
16262SOL     OW54105   3.973  10.145   4.046  0.1933 -0.2568 -0.3982
16262SOL    HW154106   3.937  10.114   4.129 -1.3415  0.8024 -0.6383
16262SOL    HW254107   3.988  10.065   3.995 -0.7064 -0.7949  0.1658
16263SOL     OW54108   0.719   1.929   6.613  0.3642 -0.6703 -0.0571
16263SOL    HW154109   0.798   1.961   6.657  0.1205 -1.0474  0.6667
16263SOL    HW254110   0.743   1.842   6.581  0.2861 -0.7245  0.0328
16264SOL     OW54111   8.428   0.201  11.624 -0.2119  0.0236 -0.6989
16264SOL    HW154112   8.522   0.190  11.610 -0.1387  1.0600 -1.1025
16264SOL    HW254113   8.418   0.203  11.719  0.1429 -0.2563 -0.6498
16265SOL     OW54114   3.752   3.900   8.051  0.1553  0.9131 -0.3165
16265SOL    HW154115   3.803   3.940   7.981 -0.4449  1.1057 -0.6481
16265SOL    HW254116   3.663   3.934   8.039  0.0363  0.9051  0.5038
16266SOL     OW54117   5.542  10.327   8.198 -0.2313  0.1646 -0.4432
16266SOL    HW154118   5.519  10.403   8.144  0.2075 -0.4283 -1.5070
16266SOL    HW254119   5.542  10.253   8.136  1.1888 -0.3922  0.1732
16267SOL     OW54120  11.013   1.106   4.391  0.1668  0.0151 -0.1466
16267SOL    HW154121  11.049   1.077   4.307  4.2196  1.9093  0.6761
16267SOL    HW254122  11.067   1.062   4.457 -1.1635  0.6183  1.4259
16268SOL     OW54123   3.050   4.453  11.739 -0.0699 -0.4606 -0.2843
16268SOL    HW154124   3.069   4.458  11.833  0.3290 -1.6462 -0.2831
16268SOL    HW254125   3.103   4.523  11.701 -0.9131  0.6194  0.4474
16269SOL     OW54126   0.934   3.587   9.461  0.1172  0.3359  0.0272
16269SOL    HW154127   1.024   3.617   9.454  0.5705 -0.5916  1.5257
16269SOL    HW254128   0.921   3.568   9.554 -0.9938 -1.4078 -0.4342
16270SOL     OW54129   3.030  10.942  10.371  0.1737 -0.4481  0.0069
16270SOL    HW154130   2.957  10.991  10.333 -0.0847  1.1896  2.3461
16270SOL    HW254131   2.987  10.871  10.420  0.3647 -1.3007 -1.0461
16271SOL     OW54132   1.830   3.741   4.884  0.4061  0.0876  0.2364
16271SOL    HW154133   1.741   3.723   4.912  0.6918 -2.1589 -0.1023
16271SOL    HW254134   1.881   3.667   4.917  1.7628  0.2645 -1.3132
16272SOL     OW54135   9.187   5.947   6.190  0.0433 -0.2926  0.8289
16272SOL    HW154136   9.250   5.903   6.248  0.7296  0.0313  0.3359
16272SOL    HW254137   9.176   5.886   6.117 -0.4422 -0.4786  1.0549
16273SOL     OW54138   6.144   0.861   7.498 -0.9550 -0.1016  0.6374
16273SOL    HW154139   6.074   0.927   7.493 -0.1309  1.0223  2.7957
16273SOL    HW254140   6.099   0.781   7.523 -1.7421  0.0814 -0.1484
16274SOL     OW54141   7.667   0.606   9.167 -0.5658  0.4447 -0.0221
16274SOL    HW154142   7.662   0.609   9.262 -1.3268 -0.2244 -0.0276
16274SOL    HW254143   7.614   0.530   9.143  2.3835 -1.5781 -0.7596
16275SOL     OW54144   9.204  11.819   5.857  0.0186 -0.9879  0.4793
16275SOL    HW154145   9.239  11.899   5.818 -1.1383 -1.2164 -1.1038
16275SOL    HW254146   9.275  11.787   5.913  0.1700  1.6619  1.9879
16276SOL     OW54147   8.116   4.423   9.683  0.6990 -0.1447  0.7387
16276SOL    HW154148   8.135   4.330   9.694  0.2655 -0.3508 -0.1799
16276SOL    HW254149   8.070   4.429   9.600 -0.0285  0.7959  1.1886
16277SOL     OW54150   8.423   8.381   3.759 -0.4081  0.3621 -0.4494
16277SOL    HW154151   8.432   8.427   3.842  1.8191  0.1299 -0.4995
16277SOL    HW254152   8.419   8.450   3.693 -0.1958  0.5269 -0.2903
16278SOL     OW54153  11.535   7.784   6.757  0.0643  0.3565 -0.1748
16278SOL    HW154154  11.469   7.837   6.801 -0.2318 -1.0277  1.1443
16278SOL    HW254155  11.489   7.742   6.685  0.0152  0.9153 -0.4798
16279SOL     OW54156   2.730  10.144  10.659 -0.8735  0.0387 -0.1702
16279SOL    HW154157   2.778  10.168  10.737 -2.1890  0.4598  0.5476
16279SOL    HW254158   2.723  10.226  10.609 -0.0359 -0.2292 -0.7373
16280SOL     OW54159   4.820   6.731   2.033 -0.4197 -0.0885  0.2809
16280SOL    HW154160   4.906   6.762   2.006 -0.2149 -1.5277 -0.8197
16280SOL    HW254161   4.763   6.753   1.960 -0.2382 -2.3297 -0.6096
16281SOL     OW54162   7.720   2.183   7.799 -0.2463 -0.4238  0.3097
16281SOL    HW154163   7.632   2.221   7.804  0.0640  0.3503  0.0124
16281SOL    HW254164   7.714   2.117   7.731 -0.5594 -0.2637  0.1821
16282SOL     OW54165   7.711   0.379   5.166  0.0494  1.0029  0.1142
16282SOL    HW154166   7.626   0.348   5.136  0.1653  2.0325 -1.4031
16282SOL    HW254167   7.769   0.369   5.090  0.5535  3.0328  0.1495
16283SOL     OW54168   5.747   7.246   3.784 -0.2090 -0.3780 -0.4625
16283SOL    HW154169   5.677   7.274   3.725  0.1738  0.4893 -0.5083
16283SOL    HW254170   5.703   7.190   3.848 -1.4207  2.0252  0.9247
16284SOL     OW54171   7.751   8.507   6.137  0.0479 -0.5800 -0.6275
16284SOL    HW154172   7.658   8.489   6.150  0.1944  0.0241  2.0194
16284SOL    HW254173   7.792   8.477   6.219  1.9302  0.6574 -1.0570
16285SOL     OW54174   9.575   5.241   5.107  0.2998 -0.0480  0.3299
16285SOL    HW154175   9.650   5.300   5.101 -0.7084  1.5261  1.8904
16285SOL    HW254176   9.499   5.298   5.095 -0.6805 -1.6545 -1.5887
16286SOL     OW54177   4.395  11.159   7.735 -0.4490  0.0664 -0.5433
16286SOL    HW154178   4.328  11.161   7.803 -0.0263 -0.2705 -0.1103
16286SOL    HW254179   4.373  11.232   7.677 -0.4954  0.6972  0.2564
16287SOL     OW54180   3.990   7.869   7.256 -0.1340 -0.2438  0.1106
16287SOL    HW154181   3.935   7.796   7.286  1.0918 -1.4327 -0.4374
16287SOL    HW254182   4.032   7.901   7.335  0.7292 -1.3682  0.1431
16288SOL     OW54183   6.674   3.549   4.713 -0.5465 -0.0071 -0.0088
16288SOL    HW154184   6.654   3.632   4.756  0.8581  1.5400 -2.1030
16288SOL    HW254185   6.595   3.527   4.664 -1.5118 -0.8429  1.8390
16289SOL     OW54186   9.312   4.670   6.641 -0.6043  0.3333  0.1916
16289SOL    HW154187   9.295   4.646   6.732  0.2628  2.0064  0.8336
16289SOL    HW254188   9.292   4.763   6.637 -0.9767  0.2172 -1.4429
16290SOL     OW54189   0.034   1.758   5.115 -0.2266 -0.4448 -0.4254
16290SOL    HW154190   0.029   1.663   5.125  1.4815 -0.5200  0.0744
16290SOL    HW254191  -0.035   1.792   5.172  0.0769 -1.3473  0.5083
16291SOL     OW54192   4.081   6.616   4.621  0.2862 -0.1454  0.3723
16291SOL    HW154193   4.012   6.683   4.624  2.2099  1.9313  0.4441
16291SOL    HW254194   4.087   6.593   4.528  0.3768  0.6465  0.1749
16292SOL     OW54195   4.717   3.178   5.723  0.5748 -0.4764 -0.4759
16292SOL    HW154196   4.727   3.178   5.628  1.1487  0.3207 -0.4235
16292SOL    HW254197   4.656   3.107   5.740  0.4504 -0.6199 -1.4440
16293SOL     OW54198   3.052  10.911  11.320 -0.4355 -0.1156 -0.5417
16293SOL    HW154199   3.034  11.004  11.336  0.8368  0.1964 -0.8050
16293SOL    HW254200   3.118  10.911  11.251  0.6291 -1.1795  0.4434
16294SOL     OW54201   7.192  10.238   3.464 -0.2221 -0.1620 -0.5233
16294SOL    HW154202   7.267  10.253   3.407  0.3224  1.0160  0.4490
16294SOL    HW254203   7.119  10.278   3.417  0.4674  2.0182  0.1463
16295SOL     OW54204   9.977   5.873   5.549  0.4756 -0.5406  0.2652
16295SOL    HW154205   9.954   5.802   5.489  0.4973 -0.6060  0.3356
16295SOL    HW254206   9.951   5.842   5.635 -0.3236 -0.1087  0.1827
16296SOL     OW54207  11.428   3.677   9.437  0.0218  0.0618 -0.3439
16296SOL    HW154208  11.397   3.671   9.347  1.2851  0.9867 -0.8751
16296SOL    HW254209  11.352   3.709   9.487 -0.4800  0.2173 -1.1964
16297SOL     OW54210   6.572   7.397   5.235  0.2125 -0.0717 -0.2537
16297SOL    HW154211   6.628   7.427   5.307  1.4754  0.4550 -1.4031
16297SOL    HW254212   6.587   7.462   5.165  0.4931 -1.5874 -1.6588
16298SOL     OW54213   3.281   4.147   5.075  0.6378  0.6841  0.5427
16298SOL    HW154214   3.185   4.148   5.080  0.5971 -1.0985  0.5640
16298SOL    HW254215   3.309   4.215   5.137 -0.5784  0.1276  1.7417
16299SOL     OW54216   5.066   5.820   4.874  0.3449 -0.3537  0.4401
16299SOL    HW154217   5.029   5.895   4.828  1.4718  1.1722  1.8815
16299SOL    HW254218   5.027   5.823   4.962  1.9541 -0.1442  1.2023
16300SOL     OW54219  11.489   9.873  10.642 -0.0449  0.2920 -0.2570
16300SOL    HW154220  11.418   9.894  10.703  0.1638  1.6013 -0.4255
16300SOL    HW254221  11.567   9.868  10.697 -0.3689 -2.0885  0.0669
16301SOL     OW54222   0.861   1.843   6.267 -0.6583  0.0208  0.2710
16301SOL    HW154223   0.819   1.810   6.187  0.8323  1.1403 -1.0526
16301SOL    HW254224   0.904   1.766   6.305 -1.4141 -0.5356  0.0196
16302SOL     OW54225   4.924  10.003   9.030  0.0172 -0.3111  0.6526
16302SOL    HW154226   4.857  10.071   9.034 -0.0634 -0.2580 -0.9539
16302SOL    HW254227   4.995  10.041   8.979 -0.1611 -1.4994 -0.5440
16303SOL     OW54228   3.071   0.248   7.702 -0.4562 -0.5693  0.5040
16303SOL    HW154229   3.040   0.317   7.761 -0.2771 -0.3531  0.3485
16303SOL    HW254230   3.159   0.277   7.676  0.6440 -2.0468  2.3450
16304SOL     OW54231   3.984   6.476  10.835  0.2027 -0.3624 -0.2536
16304SOL    HW154232   3.954   6.447  10.921 -0.1052  0.8214  0.0434
16304SOL    HW254233   3.905   6.480  10.782  0.3929 -1.0953 -0.6095
16305SOL     OW54234   9.434   7.329   0.376 -0.1284  0.0021 -0.4283
16305SOL    HW154235   9.514   7.326   0.322  1.8497  0.6704  2.2513
16305SOL    HW254236   9.407   7.237   0.382  1.1267 -0.4014 -0.4809
16306SOL     OW54237   8.031   1.683   1.015  0.1705 -0.3643  0.2101
16306SOL    HW154238   7.970   1.613   0.990 -2.0735  1.5043  0.0767
16306SOL    HW254239   8.044   1.733   0.935  4.2074 -2.1672 -0.5022
16307SOL     OW54240   4.387   7.764   4.776 -0.2030 -0.1402  0.1929
16307SOL    HW154241   4.381   7.854   4.744  3.9821 -0.0011 -0.7636
16307SOL    HW254242   4.363   7.769   4.868 -2.2003  1.4364 -0.3321
16308SOL     OW54243   5.818   4.213   5.827  0.4844 -0.8586 -0.6481
16308SOL    HW154244   5.905   4.248   5.846  0.4712 -1.2258  0.1298
16308SOL    HW254245   5.821   4.122   5.857 -0.8925 -0.2242  1.6256
16309SOL     OW54246  10.664   9.728   7.984  0.1975  0.5319 -0.0047
16309SOL    HW154247  10.675   9.673   8.062 -0.6139 -1.2650 -1.0863
16309SOL    HW254248  10.571   9.750   7.983 -0.2679 -1.2063 -1.4919
16310SOL     OW54249   4.510   1.834   3.302 -0.7698 -0.2821  0.1487
16310SOL    HW154250   4.532   1.905   3.242 -0.1433 -0.4022  0.2291
16310SOL    HW254251   4.432   1.794   3.265  1.1442 -2.1589 -2.1663
16311SOL     OW54252   3.794   4.156   5.438  0.3552  0.5687  0.3135
16311SOL    HW154253   3.791   4.060   5.442 -1.6384  0.6003  0.6194
16311SOL    HW254254   3.750   4.178   5.356  0.3466  1.2336  0.4928
16312SOL     OW54255   5.102   8.567   6.946 -0.7464 -0.2166  0.3812
16312SOL    HW154256   5.024   8.612   6.913 -0.2810  2.6713  2.8308
16312SOL    HW254257   5.174   8.603   6.894 -0.6014  0.4330  1.0128
16313SOL     OW54258   9.539  11.302   5.666  0.6261 -0.0388 -0.0305
16313SOL    HW154259   9.578  11.224   5.628  0.4167  1.3921 -3.6270
16313SOL    HW254260   9.458  11.272   5.706  0.1315 -1.6127 -2.0665
16314SOL     OW54261   4.085  11.413   0.236 -0.1120  0.1711  0.0198
16314SOL    HW154262   4.010  11.448   0.283 -0.7273  1.5984 -1.8746
16314SOL    HW254263   4.074  11.444   0.146  0.4408 -3.2289 -1.3865
16315SOL     OW54264   6.795   3.102   5.627 -0.6145 -0.6479 -0.5491
16315SOL    HW154265   6.797   3.111   5.722  2.5828  0.1875 -0.5750
16315SOL    HW254266   6.793   3.192   5.594  0.7996 -0.8163 -1.1848
16316SOL     OW54267   2.157   2.632  10.028 -0.3352  0.1060 -0.5773
16316SOL    HW154268   2.132   2.654  10.118  1.2950  0.3187 -0.1492
16316SOL    HW254269   2.227   2.568  10.038  1.4704  1.8209 -1.6082
16317SOL     OW54270   4.599   6.355  11.394 -0.1719  0.0301  0.0405
16317SOL    HW154271   4.569   6.320  11.478  0.3365 -2.1555 -0.6261
16317SOL    HW254272   4.684   6.394  11.413 -0.5554  0.5369  0.7409
16318SOL     OW54273   5.757   5.298   6.047  0.4389  0.7386 -0.5501
16318SOL    HW154274   5.832   5.269   5.995  0.3995  0.8502 -0.6694
16318SOL    HW254275   5.773   5.263   6.135  0.1161 -0.1135 -0.8244
16319SOL     OW54276   7.540   3.620  10.713  0.0202  0.4884  0.1038
16319SOL    HW154277   7.598   3.546  10.696 -0.7095  0.0794 -0.6814
16319SOL    HW254278   7.563   3.685  10.647  0.7854  1.0558  0.9057
16320SOL     OW54279   4.629   7.962   8.870  0.2380 -0.0404  0.1830
16320SOL    HW154280   4.562   7.932   8.932 -0.0864  1.7129  0.7275
16320SOL    HW254281   4.621   7.902   8.796 -1.5824 -0.2109  0.4719
16321SOL     OW54282   5.599   9.979   3.674  0.1664 -0.1927 -0.4557
16321SOL    HW154283   5.553   9.956   3.755  0.6428  0.2275 -0.0605
16321SOL    HW254284   5.532  10.018   3.619 -0.0796 -0.1201 -0.1083
16322SOL     OW54285   3.062   9.999   4.068 -0.0739 -0.8105 -0.2875
16322SOL    HW154286   3.018   9.988   4.153  2.5649  0.2187  1.3309
16322SOL    HW254287   3.023  10.079   4.032  0.1435 -0.1234  0.9233
16323SOL     OW54288  10.392   3.473   0.146  0.1020  0.4649  0.1863
16323SOL    HW154289  10.306   3.455   0.108  0.4844 -1.2882  0.0635
16323SOL    HW254290  10.443   3.511   0.074 -0.2519  0.4953 -0.0495
16324SOL     OW54291   2.489   8.687   1.602  0.1706  0.4210  0.5587
16324SOL    HW154292   2.513   8.718   1.515  3.0971 -1.7427  0.4402
16324SOL    HW254293   2.562   8.715   1.658  0.0815 -1.1987  1.5463
16325SOL     OW54294   2.827   1.671   3.119  0.2110 -0.6482  0.1429
16325SOL    HW154295   2.739   1.647   3.145 -0.6329  0.9685 -1.0316
16325SOL    HW254296   2.875   1.680   3.201 -0.8184 -1.1482  0.8154
16326SOL     OW54297   8.687   3.889   4.860 -0.5603 -0.3435  0.3088
16326SOL    HW154298   8.600   3.919   4.886 -0.5882 -0.0778 -0.0862
16326SOL    HW254299   8.708   3.820   4.924  1.0171  2.8390  3.5798
16327SOL     OW54300   8.076   6.690   1.759  0.1906  0.0221 -0.0506
16327SOL    HW154301   7.987   6.718   1.780  0.1791 -0.5445  0.7191
16327SOL    HW254302   8.130   6.724   1.830  0.2782 -1.2739  0.5360
16328SOL     OW54303   6.948   1.970   9.464 -0.4554 -0.2717  0.1377
16328SOL    HW154304   6.915   1.881   9.451 -0.2329 -0.1849 -1.2036
16328SOL    HW254305   6.966   1.976   9.558 -1.1012 -1.4173  0.3512
16329SOL     OW54306   4.066   8.563   8.292 -0.0274 -0.4771  0.3303
16329SOL    HW154307   4.122   8.503   8.342 -0.1233 -0.0028  1.0195
16329SOL    HW254308   3.989   8.577   8.348  0.1226  0.5075  0.3095
16330SOL     OW54309   7.841  11.106   3.351 -0.3723 -0.1066 -0.1868
16330SOL    HW154310   7.846  11.157   3.270 -0.4306  0.2898  0.0570
16330SOL    HW254311   7.869  11.018   3.325  0.5607  0.2466 -0.4267
16331SOL     OW54312   9.290  10.168  11.162  0.0023  1.0318 -0.3621
16331SOL    HW154313   9.369  10.205  11.202  0.2881 -0.6413  0.7236
16331SOL    HW254314   9.218  10.217  11.201  0.4393  1.6025 -0.2631
16332SOL     OW54315   7.073   6.713   9.680 -0.1328  0.4651  0.0459
16332SOL    HW154316   7.103   6.622   9.681  1.7067  0.9144  3.8710
16332SOL    HW254317   7.130   6.756   9.617 -0.4609 -0.8261 -1.1834
16333SOL     OW54318   7.359   6.203  11.742  0.1709 -0.4164  0.0310
16333SOL    HW154319   7.285   6.190  11.683 -0.9291  3.0328  0.4239
16333SOL    HW254320   7.422   6.253  11.691  0.1644  0.7090  1.0939
16334SOL     OW54321   5.942   2.090   2.528  0.3018  1.3711 -0.1498
16334SOL    HW154322   5.855   2.090   2.487  0.1540  0.9444  0.1608
16334SOL    HW254323   6.002   2.109   2.456 -0.0630  1.8423 -0.3366
16335SOL     OW54324   3.185   5.383  11.253  0.2580 -0.7229 -0.1542
16335SOL    HW154325   3.220   5.425  11.175  0.5899 -1.0622 -0.1913
16335SOL    HW254326   3.103   5.428  11.269  0.0075 -0.8841 -0.9114
16336SOL     OW54327   5.342   3.995   7.337 -0.1349  0.3903  0.0433
16336SOL    HW154328   5.273   3.929   7.332 -0.6128  0.8105  0.8240
16336SOL    HW254329   5.415   3.949   7.380 -0.5914  0.4486  0.9149
16337SOL     OW54330  11.138   0.553  11.103 -0.0569 -0.3157  0.5141
16337SOL    HW154331  11.095   0.494  11.165  0.1242 -0.7105  0.2735
16337SOL    HW254332  11.125   0.511  11.018  1.0361 -0.5853  0.4647
16338SOL     OW54333   7.993   9.950   8.034 -0.1861 -0.6555  0.5675
16338SOL    HW154334   7.957   9.863   8.014  0.8808 -0.7537 -1.0504
16338SOL    HW254335   8.056   9.933   8.104  1.3511 -1.5387 -0.9552
16339SOL     OW54336   5.387  10.509   4.040  0.5140 -0.8523  0.4578
16339SOL    HW154337   5.322  10.556   4.093  1.0240  0.7515 -0.2753
16339SOL    HW254338   5.350  10.507   3.952  1.6740  0.6620 -0.1199
16340SOL     OW54339   7.373  11.799   5.820  0.4674 -0.6802 -0.0808
16340SOL    HW154340   7.401  11.841   5.739  0.6465 -0.0249  0.3133
16340SOL    HW254341   7.428  11.720   5.826  3.2391  1.1758  1.2954
16341SOL     OW54342   1.217   4.238   4.297 -0.3350 -0.1203  0.3990
16341SOL    HW154343   1.165   4.172   4.342 -0.1608  0.4249  1.4156
16341SOL    HW254344   1.237   4.199   4.212 -2.5515 -0.2730 -0.1157
16342SOL     OW54345  10.922   4.810   7.284  0.6047  0.2454  0.4035
16342SOL    HW154346  10.891   4.835   7.197  0.8324  1.2348  0.5890
16342SOL    HW254347  10.844   4.783   7.331  0.4718 -0.2352 -0.0934
16343SOL     OW54348   0.297   8.434   2.350  0.2885 -0.1410  0.2276
16343SOL    HW154349   0.359   8.373   2.390 -0.1844 -2.0085 -1.6920
16343SOL    HW254350   0.227   8.378   2.316 -1.0072  1.6434 -0.1736
16344SOL     OW54351   1.436   2.330   5.279  0.3839  0.4161 -0.3859
16344SOL    HW154352   1.515   2.304   5.326  0.2819  1.2711  0.2712
16344SOL    HW254353   1.364   2.299   5.333  0.2643  0.2893 -0.6145
16345SOL     OW54354   7.506   5.950   4.222 -0.4055  0.0238 -0.4578
16345SOL    HW154355   7.457   5.882   4.177  0.0694 -1.0870  0.6217
16345SOL    HW254356   7.579   5.971   4.164  0.2024 -1.3850 -0.2507
16346SOL     OW54357   4.526   3.691   3.903 -0.3379  0.3938  1.1296
16346SOL    HW154358   4.463   3.754   3.938 -1.7012  0.1038 -0.6709
16346SOL    HW254359   4.594   3.746   3.862 -0.5109  0.7010  1.2478
16347SOL     OW54360   5.645   5.123   7.982  1.1632  0.4023  0.5839
16347SOL    HW154361   5.594   5.152   8.058  1.0014  2.2560 -0.1694
16347SOL    HW254362   5.620   5.031   7.970 -1.3566  0.9746  0.7998
16348SOL     OW54363   7.861   7.640   1.600 -0.4089  0.3503  0.1373
16348SOL    HW154364   7.883   7.630   1.692 -0.5592 -2.6941 -0.0549
16348SOL    HW254365   7.945   7.638   1.554 -0.4614 -0.7812  0.0690
16349SOL     OW54366   8.653   4.497   4.536 -0.4421 -0.3068 -0.1271
16349SOL    HW154367   8.649   4.590   4.556  0.2995  0.0563 -1.5661
16349SOL    HW254368   8.624   4.490   4.445  0.6806 -1.3209 -0.4343
16350SOL     OW54369   0.382   3.210   8.169 -0.3638 -0.4686 -0.1204
16350SOL    HW154370   0.312   3.166   8.217 -0.4503 -1.1270 -0.8166
16350SOL    HW254371   0.336   3.271   8.110 -0.2677  0.2008  0.4790
16351SOL     OW54372   1.879   5.540   4.872  0.1810 -0.3728 -0.1574
16351SOL    HW154373   1.952   5.486   4.843 -0.2038 -0.3852 -1.1787
16351SOL    HW254374   1.857   5.593   4.795 -1.4472 -1.0023 -0.1644
16352SOL     OW54375   4.382   7.891   5.991 -0.2414 -0.4029 -0.2615
16352SOL    HW154376   4.371   7.946   5.914  0.2887 -1.9717 -1.5265
16352SOL    HW254377   4.471   7.911   6.021 -0.4221  0.1642 -0.0936
16353SOL     OW54378   9.807   2.066   9.331 -0.6272  0.0823  0.2068
16353SOL    HW154379   9.865   1.996   9.303 -3.2306 -2.0501 -0.2557
16353SOL    HW254380   9.814   2.131   9.261  0.3114 -0.6360 -0.4034
16354SOL     OW54381  11.179   5.571   2.383 -0.6808  0.0826  0.1603
16354SOL    HW154382  11.188   5.645   2.324 -0.2264 -0.3942 -0.3774
16354SOL    HW254383  11.186   5.609   2.471  0.4390  0.5540 -0.1286
16355SOL     OW54384   0.128   7.466   1.015  0.3561 -0.2356 -0.6194
16355SOL    HW154385   0.152   7.402   0.948 -1.6981  0.1088 -1.7597
16355SOL    HW254386   0.041   7.496   0.989  0.1771  1.0939  1.3483
16356SOL     OW54387  10.502   6.231   5.306 -0.3893  0.3385 -0.6959
16356SOL    HW154388  10.453   6.313   5.312 -0.5133  0.2606 -0.6244
16356SOL    HW254389  10.586   6.249   5.347 -0.7378  0.1864  0.0999
16357SOL     OW54390   7.009   5.036   0.325  0.1181 -0.3104  0.0349
16357SOL    HW154391   6.974   5.078   0.246  0.3437  0.6169  0.4149
16357SOL    HW254392   6.933   5.022   0.381  0.1801  0.6989  0.3990
16358SOL     OW54393  10.267   6.713   3.508 -0.0177  0.0086 -0.9276
16358SOL    HW154394  10.243   6.733   3.418  0.7822  2.6911 -0.6194
16358SOL    HW254395  10.193   6.745   3.560 -0.2007 -0.9655 -0.5698
16359SOL     OW54396   1.223   2.956   8.993 -0.1991  0.3866  0.2810
16359SOL    HW154397   1.224   2.906   8.912 -1.5320  0.9290 -0.1034
16359SOL    HW254398   1.145   2.926   9.039 -0.6919  1.6536  0.3195
16360SOL     OW54399  11.374   8.753  10.299  0.2311 -0.4289  0.4429
16360SOL    HW154400  11.396   8.787  10.213  1.0173 -0.5849  0.5807
16360SOL    HW254401  11.408   8.664  10.300 -1.0718 -0.9595  0.3864
16361SOL     OW54402  11.747   4.045   1.949  0.7026  0.0249 -0.0267
16361SOL    HW154403  11.717   3.978   2.012 -1.6492  0.6578 -0.3518
16361SOL    HW254404  11.667   4.070   1.902  1.9445  1.4291 -1.5015
16362SOL     OW54405   2.141   5.323   4.960 -0.3268 -0.5149  0.3982
16362SOL    HW154406   2.195   5.276   5.023 -0.1022 -1.5082 -0.5078
16362SOL    HW254407   2.201   5.381   4.914 -0.1992 -0.8914  0.0794
16363SOL     OW54408   0.539   9.664   4.390  0.1411 -0.3476  0.1281
16363SOL    HW154409   0.540   9.688   4.482  2.7831 -1.9802  0.6526
16363SOL    HW254410   0.489   9.583   4.386  0.2789 -0.4357  0.1901
16364SOL     OW54411   5.739   4.951   0.089  0.3422  0.5251  0.3606
16364SOL    HW154412   5.713   5.002   0.165 -0.0958  0.6937  0.1000
16364SOL    HW254413   5.747   5.015   0.018  0.9165  0.3938  0.2983
16365SOL     OW54414   7.184   4.042   6.241 -0.1901  0.0159 -0.3085
16365SOL    HW154415   7.150   4.004   6.160 -0.3224 -1.3325  0.3641
16365SOL    HW254416   7.213   3.968   6.293  2.3873  1.0117 -0.1730
16366SOL     OW54417   2.086   4.584   9.372 -0.1441  0.1832 -0.2583
16366SOL    HW154418   2.030   4.564   9.448 -0.6453 -2.2404 -1.1989
16366SOL    HW254419   2.173   4.554   9.398 -0.5293 -1.6702 -0.9848
16367SOL     OW54420   7.583   0.988   1.068  0.2835  0.2134 -1.1059
16367SOL    HW154421   7.582   1.080   1.040 -0.1044  0.0364 -1.6876
16367SOL    HW254422   7.564   0.991   1.162  3.0052  0.9308 -0.4871
16368SOL     OW54423   6.055   5.660   6.778  0.4998 -0.7609 -0.1911
16368SOL    HW154424   6.126   5.721   6.800  1.1875 -1.0052 -1.6293
16368SOL    HW254425   6.052   5.600   6.853 -0.8567  1.5236  1.7342
16369SOL     OW54426   2.682   4.575  10.379  0.4757  0.6512  0.0033
16369SOL    HW154427   2.645   4.590  10.292  1.6128 -0.7288 -0.7562
16369SOL    HW254428   2.765   4.531  10.363  0.2392 -0.5705  1.8195
16370SOL     OW54429   5.897   2.911   5.319 -0.1265 -0.0701 -0.1680
16370SOL    HW154430   5.835   2.977   5.350 -1.8119 -1.8016  0.3669
16370SOL    HW254431   5.889   2.913   5.224  1.1480  1.6349 -0.2899
16371SOL     OW54432  10.411   1.479  10.185  0.0501  0.4111 -0.0196
16371SOL    HW154433  10.374   1.565  10.165  1.1123  0.9304  0.1624
16371SOL    HW254434  10.502   1.486  10.156  0.1330 -0.6738 -0.0331
16372SOL     OW54435   7.672   9.702   0.492  0.4081 -0.5583  0.0064
16372SOL    HW154436   7.678   9.794   0.469 -0.1566 -0.3006  0.8370
16372SOL    HW254437   7.760   9.667   0.477  1.5471  0.8550  2.8219
16373SOL     OW54438   6.120  10.649   0.498  0.6000 -0.2397 -0.2315
16373SOL    HW154439   6.064  10.573   0.515 -0.8898  0.5004 -1.5467
16373SOL    HW254440   6.100  10.709   0.570  0.9615 -0.6463  0.2134
16374SOL     OW54441   1.100  10.214   0.008 -0.0520 -0.1685  0.1678
16374SOL    HW154442   1.176  10.231  -0.049  1.5945 -0.2308  2.2274
16374SOL    HW254443   1.048  10.294   0.003  2.3357  1.6273  1.8748
16375SOL     OW54444   5.253   3.118   5.671  0.5975  0.1690  0.5205
16375SOL    HW154445   5.206   3.137   5.590  1.2985 -1.0956 -0.2136
16375SOL    HW254446   5.186   3.083   5.730  0.0376  1.3118  0.6014
16376SOL     OW54447   2.743   0.362   6.612  0.2119  0.1106  0.4431
16376SOL    HW154448   2.716   0.353   6.704  1.2452 -2.8619  0.5416
16376SOL    HW254449   2.671   0.324   6.562  0.0323  0.9560  0.0319
16377SOL     OW54450   8.944  10.413   5.006 -0.2720  0.2937 -0.3986
16377SOL    HW154451   8.926  10.396   5.099 -2.0355  0.4785 -0.6853
16377SOL    HW254452   8.887  10.352   4.959  1.7428 -0.9394 -1.4053
16378SOL     OW54453   1.094   4.860   7.146 -0.3508  0.5952  0.9238
16378SOL    HW154454   1.000   4.847   7.136 -0.4692  1.8320  0.3531
16378SOL    HW254455   1.130   4.845   7.059 -0.0954  0.7560  1.0003
16379SOL     OW54456   2.512   1.260   1.544 -0.2663  1.0893  0.2070
16379SOL    HW154457   2.463   1.216   1.475  2.3800  0.2789 -1.3384
16379SOL    HW254458   2.544   1.189   1.600  0.2371  1.4395  0.3742
16380SOL     OW54459   7.736   6.503   1.779 -0.7554  0.3011  0.6245
16380SOL    HW154460   7.732   6.530   1.687 -0.4259 -2.2560 -0.1917
16380SOL    HW254461   7.657   6.541   1.818 -0.2985  2.4300 -0.3646
16381SOL     OW54462   3.509   9.435   7.140  0.0008 -0.1739 -0.2350
16381SOL    HW154463   3.423   9.473   7.160 -0.7427 -2.0432  0.3574
16381SOL    HW254464   3.491   9.369   7.073  0.7632 -1.3981  0.7211
16382SOL     OW54465   0.213   5.324   7.694 -0.6415  0.3209  0.0837
16382SOL    HW154466   0.157   5.382   7.643  0.3512  0.6763 -0.6327
16382SOL    HW254467   0.188   5.236   7.665 -0.2920  0.5063 -0.8065
16383SOL     OW54468   7.419   7.415   6.497  0.0968 -0.6624 -0.4459
16383SOL    HW154469   7.344   7.378   6.451  0.2495 -0.7345 -0.6389
16383SOL    HW254470   7.495   7.371   6.459  0.1745 -1.3499  0.4709
16384SOL     OW54471   8.106   6.556   3.927  0.6929  0.0216  0.1652
16384SOL    HW154472   8.022   6.589   3.893 -0.8387  0.5224  3.9686
16384SOL    HW254473   8.093   6.461   3.934  0.7940 -0.0104 -0.0658
16385SOL     OW54474  10.290  11.147   8.359  0.3651 -0.0010  0.1595
16385SOL    HW154475  10.287  11.243   8.353 -0.5097  0.0395  0.9336
16385SOL    HW254476  10.199  11.121   8.368  0.6190 -0.8883  0.2469
16386SOL     OW54477  11.020   7.266   0.722 -0.0114 -0.2522 -0.1363
16386SOL    HW154478  11.018   7.170   0.712 -4.3471 -0.3640 -0.3548
16386SOL    HW254479  11.040   7.299   0.635  0.0826 -0.9829 -0.3990
16387SOL     OW54480   3.507   4.092   1.108 -0.2568 -0.3099 -0.3964
16387SOL    HW154481   3.508   4.138   1.191 -0.1840  1.3294 -1.2735
16387SOL    HW254482   3.419   4.106   1.073  0.0848  0.0383 -1.1410
16388SOL     OW54483   1.112   0.942   8.293  0.7632  0.4703  0.4713
16388SOL    HW154484   1.114   0.909   8.383  1.9096  1.6574  0.9142
16388SOL    HW254485   1.113   1.037   8.301  0.5109  0.6106 -0.8052
16389SOL     OW54486   8.680   3.283   3.377 -0.0755 -0.2131 -0.1993
16389SOL    HW154487   8.699   3.336   3.454 -0.3982 -2.2919  1.3693
16389SOL    HW254488   8.588   3.259   3.386 -0.2379 -0.1557 -1.4700
16390SOL     OW54489   4.036  10.820   2.395  0.6533  0.3020 -0.1920
16390SOL    HW154490   4.018  10.850   2.306  0.3493  1.3153  0.1865
16390SOL    HW254491   4.115  10.868   2.420  0.6663  0.1170  0.1284
16391SOL     OW54492  10.377   2.279   8.720  0.3308  0.2227 -0.2801
16391SOL    HW154493  10.285   2.256   8.731  0.3709  0.2049  0.0198
16391SOL    HW254494  10.421   2.240   8.796  0.5916  0.1930 -0.4444
16392SOL     OW54495   2.909   2.461   2.476  0.2239  0.3452 -0.6160
16392SOL    HW154496   2.934   2.548   2.445  0.6371 -0.2130 -1.9236
16392SOL    HW254497   2.927   2.403   2.402  1.3232 -1.0859  0.6889
16393SOL     OW54498   3.147   8.757  11.729  0.1715 -0.4433  0.3144
16393SOL    HW154499   3.143   8.697  11.803  0.6559  1.1010  1.6351
16393SOL    HW254500   3.148   8.844  11.768 -0.5047  0.4524 -1.5419
16394SOL     OW54501  10.298   4.878   6.372  0.1916 -0.2852 -0.2413
16394SOL    HW154502  10.372   4.938   6.379  0.6334 -0.9159  0.8509
16394SOL    HW254503  10.240   4.918   6.308  0.8628  0.8870 -0.1415
16395SOL     OW54504  11.168  11.818   3.868  0.0999  0.1909  0.0515
16395SOL    HW154505  11.224  11.747   3.901 -1.5456 -0.2186  2.1141
16395SOL    HW254506  11.080  11.796   3.898 -1.0865  1.2925 -2.3249
16396SOL     OW54507   7.581   1.847   3.541  0.1695  0.4136 -0.2894
16396SOL    HW154508   7.561   1.913   3.475  0.9247  1.8457  0.8704
16396SOL    HW254509   7.594   1.766   3.490  0.5463  1.4131 -1.8577
16397SOL     OW54510   8.145  10.387   5.869 -0.0578  0.2395  0.2919
16397SOL    HW154511   8.193  10.442   5.808  2.6935 -1.1057  1.0827
16397SOL    HW254512   8.106  10.449   5.931  1.4171  1.4127  0.1088
16398SOL     OW54513   5.003   5.299   1.628  0.5389 -0.5760 -0.1425
16398SOL    HW154514   4.991   5.380   1.577 -0.5750  0.4139  1.6052
16398SOL    HW254515   5.097   5.281   1.623  0.8052  0.8095 -0.5915
16399SOL     OW54516   3.033   1.229   5.290 -0.1177 -0.0792 -0.3728
16399SOL    HW154517   3.041   1.301   5.353  0.7026 -1.9476  1.7557
16399SOL    HW254518   3.111   1.236   5.236 -0.5589  1.2145 -0.8963
16400SOL     OW54519   4.772  11.161   0.095 -0.2598  0.0039  0.0098
16400SOL    HW154520   4.809  11.214   0.167  0.6734  0.6717 -0.9282
16400SOL    HW254521   4.717  11.096   0.139 -0.4989  1.0144  1.2717
16401SOL     OW54522   7.722   2.885   8.746 -0.0837  0.6026 -0.0732
16401SOL    HW154523   7.684   2.871   8.832 -0.2120 -0.2710 -0.2601
16401SOL    HW254524   7.652   2.863   8.684 -0.7429  3.3821 -0.4380
16402SOL     OW54525   7.173   9.368   1.632  0.1045 -0.4603  0.1930
16402SOL    HW154526   7.101   9.313   1.602 -0.5633  1.7463 -2.6181
16402SOL    HW254527   7.252   9.326   1.598 -0.2917 -0.3158 -0.9111
16403SOL     OW54528   0.885   2.370   0.328  0.0085  0.0703  0.1628
16403SOL    HW154529   0.878   2.274   0.329 -1.6655  0.0333 -2.5337
16403SOL    HW254530   0.941   2.391   0.403  0.2099 -2.9718  1.0246
16404SOL     OW54531  11.464   2.558  10.831 -0.5284  0.1685 -0.7034
16404SOL    HW154532  11.391   2.619  10.820 -0.2832  0.3169 -1.5680
16404SOL    HW254533  11.493   2.571  10.921 -1.1745  0.5470 -0.5470
16405SOL     OW54534   2.282   3.881  10.891  0.0173 -0.5281 -0.2129
16405SOL    HW154535   2.297   3.976  10.898 -0.1282 -0.0763 -4.0830
16405SOL    HW254536   2.201   3.867  10.941  1.3280  0.8292  2.5394
16406SOL     OW54537   8.922   1.759   4.538  0.4923 -0.2957  0.3595
16406SOL    HW154538   9.001   1.796   4.578  0.6241  1.2239 -1.1879
16406SOL    HW254539   8.917   1.670   4.572  2.3808 -0.1339  1.1731
16407SOL     OW54540   9.012  11.566  10.524  0.2796  0.1752  0.4040
16407SOL    HW154541   9.092  11.599  10.564  1.0107 -2.1503  1.0173
16407SOL    HW254542   9.013  11.601  10.435  0.8838  1.8379  1.0247
16408SOL     OW54543  10.536  10.231  11.634  0.4484  0.0354  0.4347
16408SOL    HW154544  10.620  10.241  11.588  0.9138  0.5266  1.3528
16408SOL    HW254545  10.508  10.321  11.650  0.5215 -0.1265  1.4973
16409SOL     OW54546   5.631   5.570   9.499 -0.2550 -0.1097 -0.0908
16409SOL    HW154547   5.666   5.547   9.586 -0.2013 -0.6215 -0.2448
16409SOL    HW254548   5.594   5.658   9.511 -0.1478 -0.1287  0.4234
16410SOL     OW54549  10.197   7.640   5.493  0.5192  0.2516  0.0615
16410SOL    HW154550  10.124   7.579   5.485  0.0464  1.0518 -3.3260
16410SOL    HW254551  10.264   7.604   5.435  1.9016  0.8040  1.2691
16411SOL     OW54552   9.848   3.430  10.119  0.5750 -0.4276  0.1886
16411SOL    HW154553   9.791   3.432  10.196  0.5037  0.5258  0.1225
16411SOL    HW254554   9.800   3.379  10.055  0.8883 -1.7436  0.9537
16412SOL     OW54555   2.372  11.491   8.133 -0.4112 -0.3570 -0.1821
16412SOL    HW154556   2.419  11.475   8.051 -0.7776 -1.3187 -0.2149
16412SOL    HW254557   2.322  11.571   8.116  0.8740  0.4508 -0.2800
16413SOL     OW54558  10.476   5.619   3.895  0.6694 -0.0084  0.2566
16413SOL    HW154559  10.483   5.552   3.826  1.5525  0.9354 -0.6126
16413SOL    HW254560  10.410   5.584   3.955  0.8780 -1.5143 -0.3242
16414SOL     OW54561   0.354   0.161   2.182 -0.0845 -0.1978 -0.2897
16414SOL    HW154562   0.429   0.102   2.188  1.1601  1.0674 -2.3373
16414SOL    HW254563   0.290   0.113   2.129  1.0367  0.3034 -2.1899
16415SOL     OW54564  11.668   3.717   6.881  0.7380 -0.4053 -0.3132
16415SOL    HW154565  11.695   3.724   6.789  1.3522  0.4370 -0.0781
16415SOL    HW254566  11.749   3.723   6.930  0.4802 -1.4808  0.2816
16416SOL     OW54567   2.504   9.611   8.422  0.5401 -0.5390  0.4256
16416SOL    HW154568   2.446   9.684   8.402  2.4892  0.7449 -0.9418
16416SOL    HW254569   2.589   9.639   8.388  1.7919 -2.6406  1.6555
16417SOL     OW54570   8.706   8.643   4.070  0.8970 -0.0451 -0.2908
16417SOL    HW154571   8.752   8.664   4.151 -0.2593  0.0107  0.3855
16417SOL    HW254572   8.641   8.712   4.060  0.1367 -0.7724 -0.5369
16418SOL     OW54573  11.601   1.813   6.799  0.5048  0.2143 -0.2185
16418SOL    HW154574  11.683   1.829   6.753  1.4613 -0.5847  1.1409
16418SOL    HW254575  11.603   1.720   6.820 -0.9572  0.0923 -0.5137
16419SOL     OW54576  10.209   6.392   5.098  0.0334 -0.3852 -0.3836
16419SOL    HW154577  10.154   6.436   5.032 -0.4248  0.6752  0.6686
16419SOL    HW254578  10.227   6.460   5.163  0.1455 -1.5211  0.7989
16420SOL     OW54579   6.399   0.123  10.845 -0.4471  0.6743 -0.2965
16420SOL    HW154580   6.390   0.182  10.920  0.4306 -0.9785  1.1894
16420SOL    HW254581   6.470   0.160  10.793  2.0190 -0.3788  2.0611
16421SOL     OW54582  11.149   1.745   2.581 -0.2614  0.3158 -0.1224
16421SOL    HW154583  11.172   1.654   2.562  0.7747  0.8234 -1.4803
16421SOL    HW254584  11.066   1.740   2.630 -2.2032 -1.2623 -3.2629
16422SOL     OW54585   9.884   6.531   1.113 -0.4324  0.2175  0.7017
16422SOL    HW154586   9.911   6.485   1.192 -2.7947 -0.9415  0.8974
16422SOL    HW254587   9.796   6.499   1.094 -0.6654  1.8245 -1.3708
16423SOL     OW54588   7.882   1.225   2.128 -0.2667 -0.1366  0.1309
16423SOL    HW154589   7.872   1.316   2.103  0.0139  0.2263  1.2538
16423SOL    HW254590   7.794   1.197   2.153 -0.1976  0.1124  0.6680
16424SOL     OW54591   3.051   4.805  10.381 -0.1493  0.1281  1.0255
16424SOL    HW154592   3.041   4.857  10.301 -1.4681  0.0629  1.1124
16424SOL    HW254593   3.144   4.811  10.403 -0.0446  1.4208  0.3389
16425SOL     OW54594   6.674   4.206   5.100 -0.7503  0.1855 -0.3288
16425SOL    HW154595   6.756   4.164   5.073 -1.4022  0.0832 -2.3752
16425SOL    HW254596   6.655   4.170   5.186  1.2588  0.0733  0.1099
16426SOL     OW54597   8.939   3.686   0.994 -0.5282 -0.1076 -0.3648
16426SOL    HW154598   8.881   3.761   1.005  1.6036  1.4041  1.0569
16426SOL    HW254599   9.007   3.716   0.934  0.4002 -0.8561  0.2739
16427SOL     OW54600   0.966   8.023   4.964  0.3916 -0.9938 -0.4547
16427SOL    HW154601   1.014   8.069   4.896 -0.3967  2.7251  1.2804
16427SOL    HW254602   0.875   8.027   4.936  0.1797 -0.3668  0.3016
16428SOL     OW54603   8.843   5.361   6.691 -0.1618 -0.2021  0.9077
16428SOL    HW154604   8.831   5.373   6.597  0.3627 -0.1371  0.8469
16428SOL    HW254605   8.759   5.326   6.722 -1.0475  1.7101  0.7735
16429SOL     OW54606   8.900   7.579   4.341 -0.5576  0.2479 -0.4147
16429SOL    HW154607   8.868   7.646   4.280 -0.8118 -0.7629 -1.4187
16429SOL    HW254608   8.976   7.620   4.383 -2.0338  2.0256  0.7114
16430SOL     OW54609   0.312   0.595  10.069 -0.4411  0.2076  0.4243
16430SOL    HW154610   0.324   0.643   9.988 -0.4735 -0.7104 -0.1355
16430SOL    HW254611   0.261   0.654  10.125 -0.0034  1.0328 -0.0422
16431SOL     OW54612   6.178   5.656   5.948 -0.0355  0.7996 -0.0500
16431SOL    HW154613   6.264   5.618   5.960 -1.2395 -1.8615  0.9323
16431SOL    HW254614   6.194   5.739   5.902  2.9865  0.4253  0.1547
16432SOL     OW54615   1.988   0.317   7.932 -0.3285 -0.3632  0.2615
16432SOL    HW154616   1.984   0.410   7.912 -1.5874 -0.4615  0.0033
16432SOL    HW254617   2.075   0.304   7.969 -0.0216  0.8489 -0.0150
16433SOL     OW54618   3.368   8.142   2.531  0.0585 -0.0785 -0.8506
16433SOL    HW154619   3.334   8.230   2.544  0.5947 -0.0978  0.8275
16433SOL    HW254620   3.293   8.092   2.498 -0.5197  0.7429 -0.8122
16434SOL     OW54621   9.996  11.388   3.998 -0.0774  0.0296 -1.0392
16434SOL    HW154622  10.086  11.389   3.966 -0.3806 -0.2771 -1.9142
16434SOL    HW254623   9.973  11.481   4.007  0.0615  0.1181 -1.5725
16435SOL     OW54624   0.696   3.029   7.773 -0.1063  0.4614 -0.2627
16435SOL    HW154625   0.787   3.001   7.774 -0.3239 -0.3326  1.5948
16435SOL    HW254626   0.646   2.952   7.800 -1.4172  0.7055 -1.8096
16436SOL     OW54627  10.683   7.753   5.610  0.3458 -0.1394 -0.6293
16436SOL    HW154628  10.616   7.789   5.669  1.5192 -0.4548  0.9811
16436SOL    HW254629  10.729   7.830   5.576 -0.4564  0.0534 -1.3124
16437SOL     OW54630   7.668   4.364   2.624  0.8185  0.8967 -0.0895
16437SOL    HW154631   7.761   4.344   2.614  0.6011 -0.5206  0.4750
16437SOL    HW254632   7.640   4.309   2.698 -0.8303  0.0287 -1.2923
16438SOL     OW54633   8.766   5.278   5.893 -0.2715 -0.1062 -0.1601
16438SOL    HW154634   8.740   5.186   5.884  0.5865 -0.3890  0.1058
16438SOL    HW254635   8.690   5.321   5.931  0.0583 -1.1373  1.7861
16439SOL     OW54636  10.419  11.770   6.450 -0.1471  0.4792 -0.1968
16439SOL    HW154637  10.398  11.791   6.541  0.4173  1.8687 -0.3543
16439SOL    HW254638  10.334  11.760   6.408 -0.4153 -0.3469  0.5130
16440SOL     OW54639   8.905   1.301   3.388  0.1773  0.3662  0.2314
16440SOL    HW154640   8.817   1.299   3.427  0.7489 -2.1996  1.5867
16440SOL    HW254641   8.922   1.394   3.372 -2.0391  1.0880  1.6400
16441SOL     OW54642   3.523   3.717   5.641 -0.5736  0.5976 -0.4857
16441SOL    HW154643   3.578   3.660   5.589 -1.2298 -0.2186 -0.3015
16441SOL    HW254644   3.531   3.803   5.600 -1.2883 -0.0708 -2.1077
16442SOL     OW54645   2.732   8.799   4.421 -0.1090  0.7060  0.4187
16442SOL    HW154646   2.683   8.717   4.412  0.8636 -0.1439  2.0960
16442SOL    HW254647   2.822   8.775   4.397  0.0267  1.5011  0.1196
16443SOL     OW54648   5.797   7.117   4.170  0.4124  0.4910 -0.2387
16443SOL    HW154649   5.815   7.027   4.143 -0.1321  0.0051  0.9433
16443SOL    HW254650   5.726   7.109   4.234  1.1937  1.6425  0.8097
16444SOL     OW54651   3.530  11.797   9.665 -0.0529  0.0192  0.1792
16444SOL    HW154652   3.539  11.714   9.712 -3.3023 -0.4322  0.2478
16444SOL    HW254653   3.502  11.772   9.577  0.7761  1.0202 -0.3869
16445SOL     OW54654   8.291   9.650   1.064 -0.2503  0.4451 -0.4891
16445SOL    HW154655   8.301   9.618   1.154  2.7300  3.3135  0.3918
16445SOL    HW254656   8.335   9.584   1.011 -0.7824 -0.5826  0.3058
16446SOL     OW54657   1.348   7.649   0.234 -0.0947 -0.4033 -0.3079
16446SOL    HW154658   1.285   7.664   0.305 -0.6384  0.2321 -0.9129
16446SOL    HW254659   1.330   7.718   0.171  1.5815  0.1306 -0.2449
16447SOL     OW54660   5.928   0.891   3.513 -0.3245 -0.6351 -0.1460
16447SOL    HW154661   5.855   0.875   3.574 -1.1286  0.7369 -0.7122
16447SOL    HW254662   5.991   0.942   3.564 -0.7028 -0.0399 -0.2772
16448SOL     OW54663   3.688   0.228  10.370  0.5799 -0.0425 -0.0028
16448SOL    HW154664   3.780   0.254  10.365  1.0669 -1.8355 -1.4415
16448SOL    HW254665   3.684   0.146  10.320 -1.6165 -0.5145  0.8637
16449SOL     OW54666   3.628   2.632   7.661  0.1750 -0.6649  0.1178
16449SOL    HW154667   3.677   2.614   7.580  1.3740 -0.6793  0.8144
16449SOL    HW254668   3.665   2.714   7.693 -1.2534  0.0646 -0.0480
16450SOL     OW54669   3.029   3.246   6.316 -0.0985 -0.0905  0.1441
16450SOL    HW154670   2.934   3.254   6.309 -0.1212 -0.8320 -0.4795
16450SOL    HW254671   3.052   3.173   6.259  0.9500  0.6753 -0.4766
16451SOL     OW54672   6.534   2.707   4.328  0.2992 -0.2338  0.0437
16451SOL    HW154673   6.583   2.687   4.248  0.5339 -0.0524  0.1394
16451SOL    HW254674   6.445   2.677   4.310  0.4405 -0.5486 -0.1411
16452SOL     OW54675   1.501   8.371  10.416 -0.1021 -0.1902  0.0323
16452SOL    HW154676   1.455   8.454  10.407 -0.4073 -0.4159 -0.5582
16452SOL    HW254677   1.592   8.395  10.430 -0.3988  0.2654  1.3316
16453SOL     OW54678   7.449   1.015   0.021 -0.2730  0.4919  0.0131
16453SOL    HW154679   7.490   0.982   0.100 -0.7987 -0.0416  0.0657
16453SOL    HW254680   7.446   1.110   0.033  0.2688  0.4683  0.3289
16454SOL     OW54681   1.393   9.340  11.044  0.4459 -0.1360 -0.7278
16454SOL    HW154682   1.374   9.430  11.069 -2.6563 -1.0432  0.6340
16454SOL    HW254683   1.365   9.334  10.953  1.1814  0.3669 -0.9994
16455SOL     OW54684   9.551   5.945  10.278  0.1450  0.0397 -0.0971
16455SOL    HW154685   9.605   5.999  10.220  1.0988  0.0873  0.8087
16455SOL    HW254686   9.553   5.991  10.362 -2.2249  0.6239 -0.2977
16456SOL     OW54687   6.388   4.739   2.902  1.3682 -0.4948  0.2222
16456SOL    HW154688   6.429   4.824   2.888  1.3656 -0.5394 -0.0782
16456SOL    HW254689   6.331   4.751   2.977 -0.0271  0.2730 -0.9133
16457SOL     OW54690   1.460   3.760  11.799 -0.3925 -0.2461  0.4975
16457SOL    HW154691   1.493   3.752  11.709 -0.3311  0.6554  0.4341
16457SOL    HW254692   1.365   3.767  11.789 -0.2543  2.0456  0.3212
16458SOL     OW54693   9.176   5.882   2.846  0.4984 -0.0021 -0.2126
16458SOL    HW154694   9.110   5.895   2.778  0.7589 -2.7491 -1.1356
16458SOL    HW254695   9.129   5.838   2.917  0.6778  0.9391  0.5019
16459SOL     OW54696   5.388   7.207   7.736 -0.0659 -0.0247  0.0627
16459SOL    HW154697   5.368   7.248   7.820  0.1175 -1.8618  1.0723
16459SOL    HW254698   5.403   7.280   7.676 -0.2115  1.3416  1.6137
16460SOL     OW54699   3.081   2.785   1.272  0.5344 -0.0526 -0.8762
16460SOL    HW154700   3.002   2.731   1.270 -1.4226  2.3429  2.3560
16460SOL    HW254701   3.053   2.871   1.241  2.0654  0.6721 -0.3799
16461SOL     OW54702   8.006   3.428   5.686 -0.1314 -0.2105  0.0640
16461SOL    HW154703   7.942   3.373   5.641 -0.1778  0.2763 -0.4662
16461SOL    HW254704   8.082   3.372   5.698 -0.5350 -0.6951  0.4170
16462SOL     OW54705   7.068   9.922   2.589  0.0233  0.4372  0.2821
16462SOL    HW154706   7.022   9.890   2.666  0.4210 -1.5034 -0.2120
16462SOL    HW254707   7.046  10.015   2.584 -1.0560  0.3201  1.9670
16463SOL     OW54708   7.629   5.966   8.886 -0.4738  0.1794  0.4274
16463SOL    HW154709   7.569   5.988   8.957 -1.9329 -0.8370 -0.4183
16463SOL    HW254710   7.584   5.897   8.837  1.6544 -1.0523  0.0589
16464SOL     OW54711  10.822  10.730  11.246  0.1426  0.6880  0.3378
16464SOL    HW154712  10.768  10.809  11.241 -0.7395  0.0399 -3.8628
16464SOL    HW254713  10.765  10.664  11.285 -0.5442  1.1383  0.1083
16465SOL     OW54714   6.389   8.385   4.622 -0.1298  0.0519  1.0890
16465SOL    HW154715   6.396   8.473   4.659  2.7809  0.4669 -0.1730
16465SOL    HW254716   6.346   8.398   4.537  0.4596  0.3154  0.8233
16466SOL     OW54717   4.414   6.709   7.182  0.0223 -0.2203 -0.3419
16466SOL    HW154718   4.427   6.621   7.147  2.8665 -0.2087  0.4441
16466SOL    HW254719   4.491   6.758   7.153 -1.2249  1.8959 -0.2977
16467SOL     OW54720   9.884  11.011  11.117 -0.0637 -0.2631  0.6002
16467SOL    HW154721   9.801  10.964  11.128 -0.1445 -0.8476 -1.9239
16467SOL    HW254722   9.937  10.953  11.064  1.0694  1.1472  0.1454
16468SOL     OW54723  10.901   4.268  11.769  0.1063 -0.0463 -0.0123
16468SOL    HW154724  10.894   4.172  11.766  2.0675 -0.2302 -0.4323
16468SOL    HW254725  10.876   4.291  11.858  1.3382 -1.1700  0.6680
16469SOL     OW54726  10.158   4.864  10.027  0.4829  0.0174 -0.1275
16469SOL    HW154727  10.099   4.870  10.102 -1.3196  0.0646 -1.4788
16469SOL    HW254728  10.126   4.789   9.977  1.5114  0.1122 -0.9670
16470SOL     OW54729   8.398   0.909  10.364 -0.0029  0.4167 -0.2289
16470SOL    HW154730   8.493   0.905  10.378 -0.0936  0.2912  0.3726
16470SOL    HW254731   8.361   0.867  10.441 -0.5331 -0.0924 -0.7461
16471SOL     OW54732   0.887   4.974   1.878  0.0881 -0.2677  0.2590
16471SOL    HW154733   0.830   5.050   1.867 -0.2988 -0.5189  0.4887
16471SOL    HW254734   0.891   4.934   1.791  0.0260 -0.1675  0.2099
16472SOL     OW54735   5.414   7.599   0.397 -0.2014 -0.1047  0.1053
16472SOL    HW154736   5.509   7.592   0.389 -0.0938 -1.1125  1.7298
16472SOL    HW254737   5.381   7.524   0.347 -0.1651  0.4000 -0.6844
16473SOL     OW54738  10.769   9.682  10.656  0.3289  0.5282 -0.3263
16473SOL    HW154739  10.777   9.621  10.729 -0.2985  0.8951  0.0644
16473SOL    HW254740  10.687   9.659  10.613 -0.3615  1.6315  0.3542
16474SOL     OW54741  10.285   1.356   8.346 -0.5333 -0.1203  0.1632
16474SOL    HW154742  10.347   1.373   8.417 -0.0718 -0.6818 -0.0888
16474SOL    HW254743  10.329   1.391   8.268 -1.7445  1.9934  0.3641
16475SOL     OW54744   4.055  11.616  11.221  0.3703  0.2688  0.2408
16475SOL    HW154745   4.109  11.676  11.271  1.1904  0.6369 -1.0242
16475SOL    HW254746   4.058  11.534  11.270  1.7228  0.4099  0.4447
16476SOL     OW54747   3.558   6.435   9.337  0.2967  0.3908  0.4135
16476SOL    HW154748   3.486   6.409   9.395  0.8360  0.0208  0.9363
16476SOL    HW254749   3.570   6.360   9.278  1.3814 -0.2947  1.4564
16477SOL     OW54750   6.963   9.413   2.672 -0.7076  0.6387  0.1490
16477SOL    HW154751   6.933   9.481   2.612  1.1791  0.1349 -1.4856
16477SOL    HW254752   7.003   9.461   2.744 -1.1283  1.2715 -0.0334
16478SOL     OW54753   3.369  11.798   1.515  0.1189  0.5197  0.1056
16478SOL    HW154754   3.459  11.809   1.547  0.5754 -2.3011  0.0643
16478SOL    HW254755   3.377  11.808   1.420 -0.1069  2.6213  0.2557
16479SOL     OW54756   1.332   6.483  10.948 -0.2531  0.5746 -0.3848
16479SOL    HW154757   1.340   6.462  10.855  0.6837  1.9019 -0.6308
16479SOL    HW254758   1.355   6.575  10.954 -0.5208  0.5686  1.1467
16480SOL     OW54759   5.543  11.416   3.001  0.2591 -0.1617 -0.3326
16480SOL    HW154760   5.469  11.354   3.000  0.5435 -0.5144  0.0534
16480SOL    HW254761   5.548  11.445   3.092  0.6719 -0.2312 -0.3324
16481SOL     OW54762   3.155   2.179   0.452  0.3688  0.0483 -0.2184
16481SOL    HW154763   3.177   2.108   0.512  0.4089  0.4145  0.2046
16481SOL    HW254764   3.216   2.169   0.378  0.0702 -0.6264 -0.3760
16482SOL     OW54765   9.292   9.356   1.118 -0.1604 -0.4182  0.3947
16482SOL    HW154766   9.357   9.322   1.057 -1.1795 -2.5049  0.3902
16482SOL    HW254767   9.225   9.396   1.062 -1.8863 -3.7098 -0.1021
16483SOL     OW54768   0.249   6.564   9.027 -0.1019 -0.2399 -0.5768
16483SOL    HW154769   0.256   6.491   8.965  2.3418  0.3504 -1.0974
16483SOL    HW254770   0.338   6.575   9.061 -0.4908  2.2253 -0.1968
16484SOL     OW54771   9.709   6.764  10.374  0.2476  0.6772  0.1086
16484SOL    HW154772   9.713   6.826  10.447 -0.0812 -0.1568  0.8611
16484SOL    HW254773   9.797   6.765  10.337  0.1495  1.8748 -0.1560
16485SOL     OW54774   4.309  11.383   8.826 -0.0716  0.5674  0.9385
16485SOL    HW154775   4.340  11.474   8.828  2.1961 -0.0646 -0.8377
16485SOL    HW254776   4.253  11.379   8.748  1.2939  0.0910 -0.0598
16486SOL     OW54777   8.349   4.262   2.376  0.0482 -0.5559 -0.7959
16486SOL    HW154778   8.312   4.292   2.294  0.3533 -2.0095 -1.5078
16486SOL    HW254779   8.353   4.166   2.367 -0.2229 -0.7821  1.0367
16487SOL     OW54780   9.474  10.261   1.208 -0.4604  0.2701 -0.1539
16487SOL    HW154781   9.562  10.283   1.238 -1.5645  0.6750  3.1151
16487SOL    HW254782   9.484  10.175   1.167  1.3003 -0.1866  1.1021
16488SOL     OW54783   2.946   8.901   0.186 -0.2681  0.1609 -0.2429
16488SOL    HW154784   2.893   8.874   0.111 -3.3660  2.4629  0.8946
16488SOL    HW254785   3.020   8.949   0.148 -0.2443 -1.0721 -1.8407
16489SOL     OW54786  10.736   6.254   2.830  0.5275 -0.0980 -0.3240
16489SOL    HW154787  10.641   6.244   2.822  0.5322 -0.1811 -0.2770
16489SOL    HW254788  10.760   6.315   2.761  0.1712  1.5565  0.9647
16490SOL     OW54789   2.502   8.598   2.584  0.1225  0.5363  0.3987
16490SOL    HW154790   2.596   8.612   2.597 -0.0573  0.4741  1.9279
16490SOL    HW254791   2.476   8.539   2.655 -0.9303 -0.0860 -0.4766
16491SOL     OW54792  10.211   4.675   5.662  0.1095 -0.4532 -0.5606
16491SOL    HW154793  10.227   4.691   5.756  0.3176 -0.0972 -0.6541
16491SOL    HW254794  10.116   4.677   5.653  0.1172  1.2796 -0.6477
16492SOL     OW54795   3.443   8.746   4.622 -0.0906 -0.5742 -0.5327
16492SOL    HW154796   3.479   8.767   4.535  1.0127  0.7440  0.2193
16492SOL    HW254797   3.467   8.654   4.635  1.5600 -0.2107 -0.7801
16493SOL     OW54798  10.988   2.114   9.401  0.1623 -0.1807 -0.2950
16493SOL    HW154799  10.998   2.193   9.348 -0.2378  0.1563  0.1184
16493SOL    HW254800  10.955   2.048   9.340  0.8155 -0.1244 -0.7149
16494SOL     OW54801   9.867  10.936   9.200 -0.3944  0.5844 -0.2969
16494SOL    HW154802   9.801  10.953   9.267 -0.1613 -0.7626  0.3112
16494SOL    HW254803   9.949  10.932   9.249 -0.1038  0.4450 -0.7958
16495SOL     OW54804  10.345   4.851   7.264 -0.5603 -0.1184 -0.4246
16495SOL    HW154805  10.382   4.775   7.219 -2.7231 -1.2948 -0.3811
16495SOL    HW254806  10.300   4.900   7.195  0.3732  0.8477 -0.3600
16496SOL     OW54807   8.492   4.690   1.927  0.3150  0.3079  0.1538
16496SOL    HW154808   8.483   4.778   1.962  2.0050  0.4185  0.3806
16496SOL    HW254809   8.585   4.669   1.936 -0.1028 -1.6781  0.5266
16497SOL     OW54810   7.582   3.850   5.646 -0.4798  0.0281 -0.3606
16497SOL    HW154811   7.558   3.764   5.612 -0.9899 -0.5033  1.2372
16497SOL    HW254812   7.521   3.910   5.604 -1.2041 -0.6271 -0.2795
16498SOL     OW54813   0.112   6.933   3.498 -0.6153  0.2365  0.0400
16498SOL    HW154814   0.154   6.936   3.412 -0.7250 -1.1370 -0.0875
16498SOL    HW254815   0.183   6.920   3.560 -0.7658 -1.7617 -0.1459
16499SOL     OW54816   6.789   1.310   4.816  0.5208 -0.4042 -0.3310
16499SOL    HW154817   6.788   1.261   4.734  2.0260  0.2041 -0.7305
16499SOL    HW254818   6.710   1.364   4.813 -0.2109 -1.4640 -0.6912
16500SOL     OW54819   9.561   7.611   6.675  0.1325  0.0230  0.3804
16500SOL    HW154820   9.539   7.689   6.727  0.4320 -0.2873  0.9799
16500SOL    HW254821   9.650   7.627   6.644  0.0080  0.1423  0.0811
16501SOL     OW54822   4.567   6.723   3.662  0.6578 -0.1110  0.3186
16501SOL    HW154823   4.533   6.680   3.583 -0.0181  2.2901 -0.8103
16501SOL    HW254824   4.494   6.776   3.693  2.2562  2.5353 -0.1746
16502SOL     OW54825   1.311   5.377   9.575  0.1588  0.6649 -0.5284
16502SOL    HW154826   1.303   5.312   9.645 -1.6064 -0.3777 -1.6086
16502SOL    HW254827   1.228   5.424   9.576 -0.2590  0.0666 -2.3857
16503SOL     OW54828   0.793   3.881  10.096  0.2821 -0.1265  0.1411
16503SOL    HW154829   0.700   3.904  10.103 -0.0884 -0.8199 -1.7823
16503SOL    HW254830   0.831   3.908  10.179 -1.7501 -0.3341  1.2050
16504SOL     OW54831   0.742  10.074   5.917  0.7456 -0.2025 -0.2396
16504SOL    HW154832   0.813  10.120   5.960  0.4522  0.5619 -0.5535
16504SOL    HW254833   0.764  10.076   5.824  0.0447  0.5435 -0.4027
16505SOL     OW54834   6.780   5.278   1.540  0.4427 -0.1042 -0.6293
16505SOL    HW154835   6.748   5.194   1.508  2.3864 -0.4469 -1.8224
16505SOL    HW254836   6.786   5.267   1.635 -0.3946 -0.8952 -0.6574
16506SOL     OW54837   2.857  11.582   4.885  0.3946  0.1546 -0.0967
16506SOL    HW154838   2.826  11.615   4.969  1.1594  2.3487 -0.6196
16506SOL    HW254839   2.796  11.511   4.863 -1.0125  0.8585  1.3483
16507SOL     OW54840   0.248   2.544   8.665  0.5331 -0.6002  0.4275
16507SOL    HW154841   0.203   2.605   8.606 -1.3311 -2.1080  0.2043
16507SOL    HW254842   0.313   2.597   8.710 -1.7243  1.8005  1.0447
16508SOL     OW54843   7.758  11.343   1.215  0.0306 -0.2702  0.0672
16508SOL    HW154844   7.682  11.386   1.255  0.9277  1.7341 -0.2156
16508SOL    HW254845   7.724  11.264   1.175 -1.4290 -0.8002  2.1868
16509SOL     OW54846  10.447   8.756   3.802  0.5957  0.3982 -0.0434
16509SOL    HW154847  10.429   8.677   3.752 -1.4551  0.1951  0.9218
16509SOL    HW254848  10.429   8.732   3.893  1.5937  1.5180  0.4805
16510SOL     OW54849   8.014   2.149   1.382 -0.3094 -0.2234 -0.2030
16510SOL    HW154850   7.958   2.085   1.425 -0.0484 -0.4186 -0.1523
16510SOL    HW254851   8.086   2.164   1.444 -0.7520  0.6766  0.1154
16511SOL     OW54852   7.078   5.778   9.108  0.6950  0.0567 -0.2623
16511SOL    HW154853   7.141   5.783   9.036  1.2159  3.0153  0.2601
16511SOL    HW254854   7.008   5.838   9.082 -0.3804 -0.8104  0.5689
16512SOL     OW54855   5.384   6.000   5.032 -0.1061  0.2203  0.2272
16512SOL    HW154856   5.306   6.054   5.040  0.8807  1.8385 -0.5997
16512SOL    HW254857   5.452   6.049   5.079  0.5884 -0.8309  0.3624
16513SOL     OW54858   9.689   2.497   4.682 -0.0672 -0.3440 -0.4998
16513SOL    HW154859   9.775   2.538   4.684 -0.2207 -0.0335 -0.2830
16513SOL    HW254860   9.634   2.553   4.736 -0.1148 -1.2038  0.3817
16514SOL     OW54861   6.940  11.455   9.285 -0.2719  0.3184 -0.1626
16514SOL    HW154862   7.024  11.450   9.330  0.3307  1.0816 -1.1682
16514SOL    HW254863   6.936  11.544   9.251 -1.7649  0.4872  0.3718
16515SOL     OW54864   3.604   4.444   2.571 -0.0998 -0.2774  0.1562
16515SOL    HW154865   3.536   4.510   2.581 -0.8488 -1.1096  0.7356
16515SOL    HW254866   3.597   4.390   2.650 -0.2404 -1.7065 -0.7929
16516SOL     OW54867   4.064   9.262   3.121 -0.0229 -0.0122  0.0180
16516SOL    HW154868   4.094   9.332   3.062 -3.0928  0.5706 -1.0418
16516SOL    HW254869   3.985   9.298   3.162 -0.8032 -2.2784  0.6385
16517SOL     OW54870   9.777   0.363   0.331  0.3149  0.5653  0.4187
16517SOL    HW154871   9.792   0.322   0.417  0.3189  1.2066  0.7313
16517SOL    HW254872   9.693   0.409   0.340 -0.9954 -1.4597 -0.7398
16518SOL     OW54873   3.086   5.312   1.046  0.2314  0.3106 -0.7880
16518SOL    HW154874   3.090   5.218   1.064 -1.7241 -0.0665 -2.0591
16518SOL    HW254875   3.171   5.332   1.008 -0.0073 -1.4186 -2.4172
16519SOL     OW54876   6.159   5.107  11.297  0.1108 -0.2893  0.0394
16519SOL    HW154877   6.174   5.201  11.304  0.9381 -0.3470 -0.7790
16519SOL    HW254878   6.064   5.098  11.300 -0.0090  0.6359 -0.5095
16520SOL     OW54879   0.968  11.389   1.561 -0.0228 -0.2320  0.1515
16520SOL    HW154880   0.879  11.379   1.595  0.0128 -2.5049 -0.2635
16520SOL    HW254881   0.962  11.363   1.469  1.3074 -1.8807  0.4898
16521SOL     OW54882   4.170   3.979   7.382  0.1005 -0.1465 -0.2690
16521SOL    HW154883   4.200   3.998   7.471 -0.9432 -0.0840  0.0824
16521SOL    HW254884   4.090   3.928   7.394 -0.2900  0.2347 -1.1716
16522SOL     OW54885   6.651   1.627   7.946  0.3724 -0.3638  0.3731
16522SOL    HW154886   6.583   1.681   7.906 -0.2709 -1.1581  0.3715
16522SOL    HW254887   6.714   1.690   7.980  0.3212  0.3545 -0.8004
16523SOL     OW54888   7.244  11.205   1.852  0.6815  0.0799  0.1915
16523SOL    HW154889   7.324  11.152   1.855  0.3099 -0.4636  1.2205
16523SOL    HW254890   7.259  11.275   1.914  0.8754  0.7682 -0.6170
16524SOL     OW54891   0.364   3.234  10.056 -0.0961  0.5675  0.0235
16524SOL    HW154892   0.298   3.300  10.077  0.2167  1.2473 -1.0389
16524SOL    HW254893   0.348   3.163  10.118 -0.3684  1.6829  1.2777
16525SOL     OW54894   7.292   5.436   4.964 -0.4306  0.4606  0.1692
16525SOL    HW154895   7.309   5.342   4.972 -0.1864  0.4276 -0.6358
16525SOL    HW254896   7.210   5.450   5.011 -0.6899 -0.2284 -0.0758
16526SOL     OW54897   8.277   2.024   6.129  0.2074  0.4275  0.0003
16526SOL    HW154898   8.256   2.104   6.176  0.2670  0.5528 -0.1867
16526SOL    HW254899   8.361   2.042   6.087  0.7766 -0.1176  0.8694
16527SOL     OW54900   9.060  11.312   3.990  0.8561 -0.2177  0.4679
16527SOL    HW154901   9.072  11.217   3.982  1.1410 -0.1729  0.3519
16527SOL    HW254902   9.037  11.341   3.902  1.3654 -0.0979  0.3686
16528SOL     OW54903   3.997   7.094   9.941 -0.0244 -0.0011 -0.5687
16528SOL    HW154904   3.950   7.166   9.899 -0.3730 -0.3272 -0.7458
16528SOL    HW254905   4.064   7.136   9.994 -0.2227  0.4534 -0.6783
16529SOL     OW54906   4.960  11.496   2.035 -0.7736 -0.5739  0.2287
16529SOL    HW154907   4.921  11.548   1.965 -0.1275 -1.6208 -0.9428
16529SOL    HW254908   4.885  11.455   2.078 -1.1495 -0.2270 -0.0853
16530SOL     OW54909   9.872   4.648  10.864  0.2718 -0.3302 -0.2065
16530SOL    HW154910   9.834   4.586  10.802 -0.7871  0.2564 -0.1575
16530SOL    HW254911   9.920   4.593  10.926 -0.2525 -1.0614 -0.4416
16531SOL     OW54912   5.502   4.926   0.785  0.0265  0.4922 -0.1344
16531SOL    HW154913   5.417   4.885   0.801 -0.7277  1.4601 -1.4474
16531SOL    HW254914   5.501   4.946   0.691  0.7016  2.6706  0.2689
16532SOL     OW54915   4.577   2.204  11.593  0.4191  0.2069  0.0901
16532SOL    HW154916   4.664   2.176  11.623  0.2100  0.4722  0.9724
16532SOL    HW254917   4.526   2.123  11.587  0.9188 -0.0412 -1.1343
16533SOL     OW54918   1.107   8.401   5.524 -0.4012  0.0984  0.4783
16533SOL    HW154919   1.150   8.372   5.604 -1.1198 -0.1355  0.7881
16533SOL    HW254920   1.135   8.492   5.513 -0.5390  0.2294  1.1604
16534SOL     OW54921   4.063   8.371   3.050  0.1168 -0.2897 -0.0477
16534SOL    HW154922   3.973   8.395   3.029 -0.1339 -0.9748  0.1985
16534SOL    HW254923   4.114   8.398   2.974 -0.1369  0.9917  0.2160
16535SOL     OW54924   1.289  10.158  11.319  0.0097  0.3838 -0.2858
16535SOL    HW154925   1.317  10.247  11.340 -1.6083  0.7709  0.3360
16535SOL    HW254926   1.326  10.104  11.388  1.2746  0.4981 -0.8468
16536SOL     OW54927   7.812   3.425   2.328 -0.4209 -0.6342  0.3995
16536SOL    HW154928   7.834   3.337   2.359  1.0812 -0.0507  1.0796
16536SOL    HW254929   7.866   3.437   2.250  0.5136  0.2108  1.1515
16537SOL     OW54930  11.080  10.450   4.674 -0.3429 -0.3314  0.1647
16537SOL    HW154931  11.140  10.522   4.692 -0.2517 -0.7310  1.5669
16537SOL    HW254932  11.085  10.438   4.579  0.1781  1.0285 -0.0043
16538SOL     OW54933   7.967   1.041   2.750  0.3303  0.1304  0.1049
16538SOL    HW154934   8.018   0.960   2.738  0.3523  0.2162 -0.3770
16538SOL    HW254935   7.966   1.053   2.845  1.7034  0.4454  0.1103
16539SOL     OW54936   1.569   4.980  11.448 -0.1982  0.1080  0.1391
16539SOL    HW154937   1.493   5.010  11.498 -0.1211  0.8901 -0.1926
16539SOL    HW254938   1.597   5.058  11.399  0.9862 -0.0813  0.4782
16540SOL     OW54939   6.841   9.096   0.629 -0.5296 -0.5045 -0.7654
16540SOL    HW154940   6.782   9.169   0.650  0.2948 -0.5868  2.3549
16540SOL    HW254941   6.821   9.074   0.539 -2.5388  1.9792 -1.0381
16541SOL     OW54942   1.780   5.458  10.848 -0.7810  0.6770 -0.4573
16541SOL    HW154943   1.857   5.506  10.880 -0.6020  1.4300 -1.9023
16541SOL    HW254944   1.719   5.527  10.821 -0.8222  0.1158 -1.8945
16542SOL     OW54945   0.508   8.299   9.926 -0.3335  0.3664  0.0064
16542SOL    HW154946   0.576   8.307   9.994 -1.2189  0.5967  0.8908
16542SOL    HW254947   0.492   8.389   9.898 -0.0866  0.2861 -0.3917
16543SOL     OW54948   0.219   2.778   6.159  0.0695 -0.1541  0.3472
16543SOL    HW154949   0.211   2.859   6.109 -0.8166  0.9006  2.1144
16543SOL    HW254950   0.306   2.782   6.199 -0.0632  0.0318  0.6162
16544SOL     OW54951  10.721   8.165   6.995 -0.0675  0.3999 -0.0320
16544SOL    HW154952  10.661   8.222   7.043 -1.1940 -2.0227  1.6233
16544SOL    HW254953  10.716   8.196   6.905 -2.8025  1.1481  0.2835
16545SOL     OW54954   1.790  10.859   8.594 -0.3869  1.0246 -0.6129
16545SOL    HW154955   1.749  10.825   8.673 -0.9495  1.0581 -0.8818
16545SOL    HW254956   1.783  10.788   8.530  0.3137  0.8958 -0.5522
16546SOL     OW54957   1.447   8.988   2.798 -0.3174  0.1158  0.7853
16546SOL    HW154958   1.380   8.930   2.762 -1.6234  0.7311  2.1153
16546SOL    HW254959   1.523   8.931   2.810 -0.6947 -0.6864 -0.4211
16547SOL     OW54960   2.477   6.995   6.028 -0.0599 -0.1940 -0.0369
16547SOL    HW154961   2.466   7.088   6.009 -0.1403 -0.3809 -0.9604
16547SOL    HW254962   2.478   6.990   6.124  2.1024  1.0330  0.0854
16548SOL     OW54963   4.606   7.502   2.315  0.7376 -0.1170 -0.2232
16548SOL    HW154964   4.624   7.426   2.369 -0.3333 -0.3492 -0.1738
16548SOL    HW254965   4.590   7.467   2.227  1.2028  0.1425 -0.4167
16549SOL     OW54966   2.509  10.060   2.252  0.3728 -0.2343 -0.3265
16549SOL    HW154967   2.501  10.062   2.348  0.5668 -0.9912 -0.2880
16549SOL    HW254968   2.596  10.095   2.234 -0.5757  2.2926 -0.3920
16550SOL     OW54969   5.421   7.530  10.082  0.5887  0.2370  0.2291
16550SOL    HW154970   5.429   7.494   9.994  1.5930 -1.4587  0.9638
16550SOL    HW254971   5.333   7.506  10.110  1.0618 -1.2514  0.5058
16551SOL     OW54972   2.201   2.875   6.305  0.2942 -0.4655 -0.0130
16551SOL    HW154973   2.228   2.788   6.276  0.9893 -0.4149  0.4473
16551SOL    HW254974   2.199   2.869   6.401 -3.2917 -1.0236  0.0076
16552SOL     OW54975   5.619   6.523   1.794 -0.0448  0.5680 -0.1236
16552SOL    HW154976   5.648   6.602   1.840  0.0131  0.1012  0.6521
16552SOL    HW254977   5.552   6.485   1.850  0.4433 -0.3294 -0.1318
16553SOL     OW54978   1.059   3.616   5.248  0.0192  0.4125  0.1712
16553SOL    HW154979   1.139   3.661   5.221 -1.1655  3.4582  1.3723
16553SOL    HW254980   1.079   3.583   5.336  0.5059 -0.4763 -0.2546
16554SOL     OW54981  10.169   3.090   1.269 -0.5424  0.0805  0.7713
16554SOL    HW154982  10.115   3.158   1.310 -1.0788  0.1171  0.0279
16554SOL    HW254983  10.214   3.134   1.198  1.0077  0.1972  1.7887
16555SOL     OW54984   2.048   7.854   5.012 -0.1911  0.7771 -0.1294
16555SOL    HW154985   2.066   7.794   5.084 -0.0614  0.9424 -0.0247
16555SOL    HW254986   2.048   7.941   5.051  0.3222  0.9095 -0.3974
16556SOL     OW54987   9.250   6.019   0.848  0.0397 -0.0809  0.3089
16556SOL    HW154988   9.269   6.005   0.755 -0.8215 -1.8404  0.3539
16556SOL    HW254989   9.241   5.931   0.884 -1.1980  0.5881  1.7341
16557SOL     OW54990   5.942   3.903  10.168 -0.2398 -0.0518 -0.3557
16557SOL    HW154991   6.015   3.847  10.194 -0.3295  0.0156  0.0362
16557SOL    HW254992   5.959   3.922  10.076  0.8433  0.8778  0.0164
16558SOL     OW54993   5.229  10.294   3.614  0.0149  0.1436 -0.4518
16558SOL    HW154994   5.289  10.220   3.621  0.9208  1.0218  2.0737
16558SOL    HW254995   5.281  10.365   3.575  0.4677  0.6961  1.0974
16559SOL     OW54996   8.053   6.975   2.366 -0.0695 -0.9405 -0.3287
16559SOL    HW154997   8.041   7.023   2.447 -0.7190 -0.6394 -0.6003
16559SOL    HW254998   8.140   7.001   2.336  1.4470 -3.2263  1.7086
16560SOL     OW54999   9.306   5.291  10.878  0.6991  0.3891  0.3657
16560SOL    HW155000   9.305   5.383  10.904 -0.6932  0.2987  0.7139
16560SOL    HW255001   9.240   5.250  10.934  1.7718 -0.9616  0.6813
16561SOL     OW55002  10.610   1.084   2.992 -0.1856  0.5553  0.0233
16561SOL    HW155003  10.600   1.148   2.920 -1.0169 -0.7888 -1.1122
16561SOL    HW255004  10.565   1.006   2.960  2.5212 -1.3303  0.4971
16562SOL     OW55005   6.731   5.251   6.004  0.3391 -0.0050  0.8446
16562SOL    HW155006   6.701   5.231   6.093 -1.2694  1.4588  0.6895
16562SOL    HW255007   6.775   5.336   6.012  1.0567 -0.3328  0.4049
16563SOL     OW55008   0.099   7.204   0.299  0.3730  0.0276  0.0763
16563SOL    HW155009   0.144   7.271   0.248  0.5259  1.0609  1.5170
16563SOL    HW255010   0.014   7.195   0.257  0.8879  0.0367 -1.0119
16564SOL     OW55011   3.864  10.624   5.304  0.0578  0.6895 -0.0060
16564SOL    HW155012   3.902  10.693   5.358  1.9636 -0.2060 -0.1101
16564SOL    HW255013   3.912  10.545   5.328 -2.3995 -0.7632  0.4783
16565SOL     OW55014   8.715   2.480   9.346  0.5958 -0.4986 -0.4026
16565SOL    HW155015   8.639   2.524   9.309 -0.0028 -0.7964  0.4506
16565SOL    HW255016   8.740   2.534   9.421  0.6036 -0.9499 -0.0767
16566SOL     OW55017   3.512   4.364   2.946  0.2459 -0.6090  0.4505
16566SOL    HW155018   3.453   4.327   3.012  0.9796 -2.2786  0.2360
16566SOL    HW255019   3.558   4.435   2.991 -2.5254  1.3895  0.3549
16567SOL     OW55020   8.184   9.782   0.822  0.0432  0.1189 -0.3685
16567SOL    HW155021   8.203   9.776   0.916 -0.5378 -0.2021 -0.2684
16567SOL    HW255022   8.270   9.796   0.781  0.3622 -0.2231  0.1664
16568SOL     OW55023  11.732   4.191   8.849 -0.5054  0.3491 -0.0450
16568SOL    HW155024  11.756   4.246   8.925  3.8447 -0.4348 -0.5602
16568SOL    HW255025  11.682   4.249   8.792 -1.1901  1.9137  2.0304
16569SOL     OW55026   2.015   7.529   4.110  0.0513 -0.4055  0.5670
16569SOL    HW155027   1.966   7.460   4.156  0.5558 -0.6246  0.7747
16569SOL    HW255028   2.001   7.510   4.017 -0.9376  0.0136  0.6123
16570SOL     OW55029   2.043   8.659   0.054 -0.2113  0.5386  0.0686
16570SOL    HW155030   1.992   8.656  -0.027  0.0817 -0.7351 -0.1023
16570SOL    HW255031   1.982   8.690   0.120 -0.5564  1.2461 -0.5678
16571SOL     OW55032  10.256   1.090   6.955 -0.1020 -0.3798 -0.5044
16571SOL    HW155033  10.287   1.116   6.869  4.4526 -0.0859  0.9541
16571SOL    HW255034  10.243   1.173   7.002 -0.2070 -0.5520 -0.2223
16572SOL     OW55035   7.636   1.639   0.996 -0.1499 -0.0485  0.2229
16572SOL    HW155036   7.600   1.683   1.073  0.5788  2.0992 -0.6031
16572SOL    HW255037   7.692   1.704   0.954  1.3860 -1.9365 -0.8337
16573SOL     OW55038   7.301   2.712   0.463 -0.2830 -0.2448  0.3600
16573SOL    HW155039   7.259   2.738   0.381 -1.0335 -0.0362  0.7959
16573SOL    HW255040   7.250   2.636   0.492  0.2681 -0.6007  0.4010
16574SOL     OW55041   1.899   4.860   7.826 -0.3054 -0.1722  0.0093
16574SOL    HW155042   1.962   4.789   7.843 -0.7992 -0.5962  0.0856
16574SOL    HW255043   1.931   4.901   7.745  0.5167  0.1259  0.4778
16575SOL     OW55044  11.601   4.532   9.181  0.2808 -0.6575 -0.2273
16575SOL    HW155045  11.524   4.501   9.229 -0.2773 -0.5336 -1.0230
16575SOL    HW255046  11.664   4.460   9.189  0.1529 -0.6927  0.5648
16576SOL     OW55047   2.125  11.301   2.998  0.2839  0.1754  0.6288
16576SOL    HW155048   2.178  11.240   3.049  1.7476  0.0908 -0.9163
16576SOL    HW255049   2.163  11.387   3.015  1.0330  0.1058 -0.5438
16577SOL     OW55050   8.900  10.938   7.753 -0.2989 -0.4898 -0.6222
16577SOL    HW155051   8.866  10.969   7.670  0.1288  1.5218 -0.0918
16577SOL    HW255052   8.974  10.881   7.730  1.0433  1.5670 -1.6106
16578SOL     OW55053   6.120   1.803   5.767 -0.2433  0.4627 -0.1937
16578SOL    HW155054   6.072   1.829   5.847 -1.2065  0.9926 -0.9224
16578SOL    HW255055   6.195   1.754   5.800 -1.0088  0.0416  1.0181
16579SOL     OW55056   5.485   5.308  10.410 -0.4470  0.7032 -0.1195
16579SOL    HW155057   5.513   5.394  10.439  0.3446  0.5086 -0.2894
16579SOL    HW255058   5.502   5.251  10.485 -0.6325  0.6240 -0.1358
16580SOL     OW55059   1.194  11.593   1.523 -0.2724  0.6357  0.5006
16580SOL    HW155060   1.236  11.548   1.596 -0.6418  1.6475  1.3748
16580SOL    HW255061   1.129  11.532   1.490 -0.7196  0.4826  1.6161
16581SOL     OW55062   8.593   7.836   0.151 -0.3429  0.2420  0.0405
16581SOL    HW155063   8.654   7.774   0.113  0.3500  0.4065  0.8478
16581SOL    HW255064   8.548   7.787   0.220  0.2201  0.6080  0.6944
16582SOL     OW55065   3.742   0.262   6.816  0.4645  0.8089  0.2080
16582SOL    HW155066   3.748   0.207   6.894  0.9855  1.0958  0.3794
16582SOL    HW255067   3.814   0.325   6.827  0.5803  0.8070 -0.5342
16583SOL     OW55068   8.320   0.171  10.426  0.4860 -0.1840  0.3989
16583SOL    HW155069   8.308   0.263  10.448  1.7942  0.2908 -0.7394
16583SOL    HW255070   8.243   0.127  10.463 -0.6643  1.5033  0.1040
16584SOL     OW55071   9.407   6.756   7.742  0.5603 -0.2066 -0.4752
16584SOL    HW155072   9.408   6.705   7.823  0.5151 -1.6197 -1.3236
16584SOL    HW255073   9.482   6.815   7.749 -0.8382  1.4757  1.6388
16585SOL     OW55074   8.851   6.640   0.374  0.0648  0.1621 -0.2315
16585SOL    HW155075   8.852   6.559   0.322 -1.0208 -1.0517  1.5123
16585SOL    HW255076   8.938   6.642   0.415 -0.2039 -0.6229  0.4060
16586SOL     OW55077   4.219   6.735   7.492 -0.0220  0.6401  0.0795
16586SOL    HW155078   4.305   6.733   7.452 -0.1624 -1.2556 -0.2208
16586SOL    HW255079   4.189   6.644   7.490 -1.7531  1.1446  0.7709
16587SOL     OW55080   0.986   0.964   7.043 -0.2851  0.3773 -0.0012
16587SOL    HW155081   0.989   0.962   7.139 -0.1563  1.9457  0.0535
16587SOL    HW255082   0.935   1.042   7.022  0.5811  0.6436 -1.2220
16588SOL     OW55083   5.186   8.166   5.898  0.4040  0.6205 -0.1437
16588SOL    HW155084   5.116   8.212   5.943 -0.6133 -0.1120 -0.9385
16588SOL    HW255085   5.266   8.202   5.935 -0.3805  1.8375  0.4253
16589SOL     OW55086  10.426   8.861   7.026  0.1316  0.4469  0.1487
16589SOL    HW155087  10.437   8.781   6.975 -0.1425  0.8371 -0.5354
16589SOL    HW255088  10.512   8.903   7.023 -0.2043  1.0831 -1.0626
16590SOL     OW55089   1.326   9.675   3.669 -0.5368  0.2118  0.3573
16590SOL    HW155090   1.245   9.660   3.620  0.0220 -1.6172 -0.0659
16590SOL    HW255091   1.334   9.770   3.673 -2.3811  0.4196 -0.1279
16591SOL     OW55092   0.919   6.916   2.605 -0.1952  0.0337  0.1865
16591SOL    HW155093   0.917   7.012   2.614 -2.2575  0.0661 -0.2188
16591SOL    HW255094   0.924   6.884   2.695  0.5800  0.5117  0.3233
16592SOL     OW55095   1.274   4.564   3.422  0.0442  0.0572  0.5764
16592SOL    HW155096   1.322   4.593   3.345  0.5300 -0.9497  0.4862
16592SOL    HW255097   1.209   4.633   3.437  0.2480  0.4904 -0.4469
16593SOL     OW55098   9.121  11.234   2.898  0.0351  0.3431 -0.0609
16593SOL    HW155099   9.137  11.178   2.974  0.7736 -0.5467 -0.8444
16593SOL    HW255100   9.101  11.173   2.827 -0.2195  1.1318 -0.6845
16594SOL     OW55101   6.707   8.193   0.692 -0.3715 -0.0536  0.3751
16594SOL    HW155102   6.704   8.180   0.787  0.0905  1.3933  0.6226
16594SOL    HW255103   6.800   8.207   0.673 -0.5092  0.0474 -0.2260
16595SOL     OW55104   8.320   9.366   2.534  0.2742  0.0650  0.6235
16595SOL    HW155105   8.333   9.298   2.600  0.1396  1.1052  1.7546
16595SOL    HW255106   8.292   9.443   2.584 -1.5851  0.3900 -0.8265
16596SOL     OW55107   8.201   3.950   5.123 -0.1026  0.1099  0.3115
16596SOL    HW155108   8.109   3.968   5.143  0.0247  2.2789 -0.6981
16596SOL    HW255109   8.247   3.962   5.206 -0.7032 -0.9182  0.8043
16597SOL     OW55110   8.204   9.363   6.703  0.1209  0.2683 -0.0324
16597SOL    HW155111   8.264   9.432   6.733 -0.4328  0.3600  0.9146
16597SOL    HW255112   8.121   9.385   6.745 -0.2101 -0.6507 -0.2006
16598SOL     OW55113  10.783  11.058   3.677 -0.1386  0.1674  0.0145
16598SOL    HW155114  10.688  11.060   3.689 -0.2986 -0.2551 -1.0777
16598SOL    HW255115  10.814  11.138   3.719 -1.0789  0.7898 -0.4454
16599SOL     OW55116   3.356   1.825   7.883 -0.5013  0.5998 -0.5626
16599SOL    HW155117   3.444   1.816   7.918 -0.6364  2.9022  0.5152
16599SOL    HW255118   3.350   1.756   7.817  1.3476 -0.9527  0.7674
16600SOL     OW55119   4.084  10.522   1.279  0.1061  0.0100  0.1059
16600SOL    HW155120   4.175  10.508   1.307  0.2355  1.9445  0.8295
16600SOL    HW255121   4.090  10.546   1.187  0.5499  1.6351  0.5110
16601SOL     OW55122  10.141   9.339   5.932 -0.2037  0.4631  0.1617
16601SOL    HW155123  10.174   9.365   6.018 -0.5389  0.8511  0.1753
16601SOL    HW255124  10.118   9.247   5.942 -0.3889  0.5488  0.5301
16602SOL     OW55125   9.423   2.278  10.003 -0.5143  0.1985  0.2779
16602SOL    HW155126   9.355   2.270  10.070 -0.9889 -1.3743 -0.3314
16602SOL    HW255127   9.396   2.352   9.949 -0.8071  0.6655  1.0458
16603SOL     OW55128   6.245   3.571  11.025  0.0469 -0.2342  0.1109
16603SOL    HW155129   6.292   3.505  11.076 -0.6407  0.5011  1.7821
16603SOL    HW255130   6.178   3.522  10.977  0.7172 -0.9495 -0.1057
16604SOL     OW55131  10.889   7.493   8.489  0.1939 -0.1508  0.0520
16604SOL    HW155132  10.981   7.467   8.499 -0.1275 -1.7501 -0.6998
16604SOL    HW255133  10.842   7.437   8.552 -0.2798  0.5636  0.3386
16605SOL     OW55134   5.429  10.312  10.663 -0.5991 -0.1331 -0.2216
16605SOL    HW155135   5.444  10.226  10.624 -0.0752 -0.2261  0.1700
16605SOL    HW255136   5.377  10.359  10.598  0.6132 -0.1290 -1.2261
16606SOL     OW55137   7.974  11.490   7.676  0.2901  0.1254 -0.2007
16606SOL    HW155138   7.976  11.583   7.695  0.2638  0.1127 -0.1356
16606SOL    HW255139   7.901  11.479   7.615  1.0052  0.3181 -1.1196
16607SOL     OW55140   9.368   8.842   3.922  0.0587  0.1681 -0.3070
16607SOL    HW155141   9.356   8.858   4.016 -0.9494  1.7043 -0.6613
16607SOL    HW255142   9.406   8.923   3.888  0.0770 -0.2369 -1.2885
16608SOL     OW55143   3.758  10.242  10.054  0.4625 -0.4558 -0.2198
16608SOL    HW155144   3.712  10.175  10.104  2.2819  0.1842  2.5214
16608SOL    HW255145   3.811  10.193   9.992 -0.2279 -1.3879 -0.1032
16609SOL     OW55146   1.468   4.486   5.938 -0.1898 -0.1039 -0.5271
16609SOL    HW155147   1.531   4.479   6.009 -1.6760  0.5795  0.9271
16609SOL    HW255148   1.514   4.451   5.862  1.8129  0.0922  0.5179
16610SOL     OW55149   3.367  11.239  10.830 -0.3004 -0.0188  0.4740
16610SOL    HW155150   3.340  11.203  10.745  0.4436 -0.1393  0.2810
16610SOL    HW255151   3.431  11.307  10.808 -0.4573  0.2802  0.9225
16611SOL     OW55152  10.904  10.963  11.617  0.2822  0.0422 -0.1649
16611SOL    HW155153  10.851  11.040  11.634  1.2901  0.3398  1.9407
16611SOL    HW255154  10.851  10.890  11.650  0.2443  0.0812 -0.1399
16612SOL     OW55155   5.984   6.485   6.124  0.3572  0.0024  0.2628
16612SOL    HW155156   5.971   6.563   6.071 -0.4598 -1.2051 -1.3839
16612SOL    HW255157   6.004   6.416   6.061  1.0423 -1.1421  1.6763
16613SOL     OW55158  10.754   9.094  10.727 -0.4304 -0.0592  0.2502
16613SOL    HW155159  10.749   9.012  10.679  0.6439  0.2950 -0.4857
16613SOL    HW255160  10.704   9.156  10.674 -0.2316  0.0523  0.1947
16614SOL     OW55161   9.354   7.014   5.809 -0.8916 -0.0571 -0.2915
16614SOL    HW155162   9.360   7.106   5.833  0.8395 -0.3583  0.5092
16614SOL    HW255163   9.359   7.014   5.713 -0.3378  0.6444 -0.2697
16615SOL     OW55164   0.467  11.024   1.819  0.6824  0.1554 -0.1065
16615SOL    HW155165   0.523  11.032   1.742 -1.1732  0.2022 -1.5202
16615SOL    HW255166   0.510  11.078   1.886  2.4094 -0.0060 -1.0355
16616SOL     OW55167   7.384   3.040   2.411 -0.5682  0.2219 -0.2946
16616SOL    HW155168   7.476   3.015   2.409 -0.5690  0.2328 -2.0882
16616SOL    HW255169   7.355   3.034   2.320 -2.7696 -1.3561  0.4107
16617SOL     OW55170   9.484   5.326   9.360 -0.3268 -0.5493  0.4062
16617SOL    HW155171   9.536   5.278   9.296 -0.5438 -2.0315  1.2993
16617SOL    HW255172   9.546   5.348   9.430  0.0680  1.6523 -0.5401
16618SOL     OW55173   6.885   7.361   3.396  0.2094  0.0366 -0.1716
16618SOL    HW155174   6.859   7.275   3.428 -1.1571  0.1234 -0.9899
16618SOL    HW255175   6.897   7.349   3.302  1.6551  0.3843 -0.0621
16619SOL     OW55176  10.681   5.507   2.814  0.1597 -0.2669  0.1318
16619SOL    HW155177  10.701   5.504   2.908 -1.3854 -0.9690  0.4677
16619SOL    HW255178  10.718   5.426   2.779  0.5291 -0.1183  0.1711
16620SOL     OW55179  10.130   6.127   0.189 -0.2518 -0.2083 -0.0458
16620SOL    HW155180  10.150   6.166   0.103  0.3291 -0.1312  0.1188
16620SOL    HW255181  10.204   6.069   0.206  0.9470  1.6754  1.5414
16621SOL     OW55182   4.103   9.749   0.374  0.6408 -0.1789  0.1890
16621SOL    HW155183   4.072   9.670   0.419 -0.1619  0.6026  1.0614
16621SOL    HW255184   4.030   9.810   0.379  0.1055 -0.3933 -3.1896
16622SOL     OW55185   6.486   3.445   6.235  0.5928  0.7728  0.5887
16622SOL    HW155186   6.407   3.402   6.269 -0.4402  1.2768 -1.0233
16622SOL    HW255187   6.460   3.537   6.228  2.2002  1.4188  2.3979
16623SOL     OW55188   7.268   8.689   9.196 -0.1715 -0.3558  0.2158
16623SOL    HW155189   7.341   8.631   9.176  1.3897  1.5522  0.0722
16623SOL    HW255190   7.264   8.750   9.122 -0.6789  0.7270  1.1043
16624SOL     OW55191  11.563  11.291   6.752  0.0676 -0.6467  0.2884
16624SOL    HW155192  11.525  11.209   6.719  1.8040 -1.2704 -0.2459
16624SOL    HW255193  11.569  11.278   6.846 -0.1176 -0.9370  0.2613
16625SOL     OW55194   1.259   6.032   0.843 -0.2163 -0.6730  0.0984
16625SOL    HW155195   1.213   6.062   0.764 -0.4984 -0.3669  0.3741
16625SOL    HW255196   1.321   6.103   0.862 -0.3091 -0.6429  0.2844
16626SOL     OW55197   1.403   4.995   0.441 -0.2893  0.4197  0.1633
16626SOL    HW155198   1.413   4.904   0.468 -1.3309  0.4758  0.7947
16626SOL    HW255199   1.491   5.023   0.416 -0.0433 -0.9158 -0.5729
16627SOL     OW55200   3.238  10.418   3.815 -0.0186 -0.1275  1.0605
16627SOL    HW155201   3.174  10.480   3.780 -0.6920  0.2111  2.7964
16627SOL    HW255202   3.264  10.455   3.899  0.1265 -1.8376  1.8109
16628SOL     OW55203   6.437   2.931   5.360  0.1163  0.1555  0.5215
16628SOL    HW155204   6.514   2.882   5.392 -0.2991  0.1239  1.5142
16628SOL    HW255205   6.472   3.015   5.333  1.1297 -1.1887 -2.8173
16629SOL     OW55206   4.823   0.437   6.304 -0.0847  0.5915 -0.7164
16629SOL    HW155207   4.766   0.498   6.350  0.0901 -0.6346  1.2455
16629SOL    HW255208   4.804   0.452   6.212 -2.4310  1.3141 -0.1932
16630SOL     OW55209   6.921   2.410   9.998 -0.0806 -0.3474  0.2221
16630SOL    HW155210   6.867   2.333   9.977 -1.9661  0.9332  0.0698
16630SOL    HW255211   7.009   2.386   9.968 -0.5997 -2.4122  0.1451
16631SOL     OW55212   7.408   8.033   3.402 -0.1977  0.5107 -0.2418
16631SOL    HW155213   7.494   7.999   3.427 -0.2065 -0.4224 -1.3759
16631SOL    HW255214   7.414   8.127   3.417  0.4587  0.2634  1.2491
16632SOL     OW55215   8.918   9.257   3.101 -0.6920  0.2257 -0.3810
16632SOL    HW155216   8.912   9.320   3.173 -1.2958 -0.2921  0.0301
16632SOL    HW255217   8.993   9.287   3.049  2.5510 -1.8020  2.7723
16633SOL     OW55218   3.236   8.858   4.748  0.2510  0.5460 -0.1246
16633SOL    HW155219   3.186   8.787   4.789 -0.6038  1.4112  0.3948
16633SOL    HW255220   3.310   8.815   4.706 -0.7533 -0.7552 -0.6269
16634SOL     OW55221   3.844   0.670  10.483 -0.1642 -0.0773  0.1384
16634SOL    HW155222   3.771   0.613  10.457 -0.8340  0.7344  0.1808
16634SOL    HW255223   3.880   0.703  10.401  0.0734 -0.3693  0.1225
16635SOL     OW55224   0.634   4.241  10.019 -0.4251  0.0810 -0.3241
16635SOL    HW155225   0.581   4.170   9.984 -0.9304  0.2824  0.0181
16635SOL    HW255226   0.673   4.282   9.942  0.7985 -1.2615 -0.4714
16636SOL     OW55227   7.446   3.282  10.714  0.0144  0.0810 -0.4832
16636SOL    HW155228   7.395   3.202  10.730 -1.0179  0.8154 -0.0160
16636SOL    HW255229   7.424   3.339  10.787  1.1204  0.6172 -0.5618
16637SOL     OW55230  10.727   7.775  11.450 -0.0622 -0.2512  0.1576
16637SOL    HW155231  10.822   7.773  11.448  0.0034  0.9577  0.7898
16637SOL    HW255232  10.700   7.757  11.360  0.8451  1.2613 -0.4543
16638SOL     OW55233   3.788   4.244   8.733 -0.2736  0.5212  0.4567
16638SOL    HW155234   3.774   4.238   8.827 -0.9910 -1.6391  0.2580
16638SOL    HW255235   3.732   4.177   8.695  0.7534  0.6488 -1.4454
16639SOL     OW55236   5.495   8.317   3.542 -0.4075 -0.6895  0.4404
16639SOL    HW155237   5.560   8.267   3.493  0.1288 -1.2606  1.6766
16639SOL    HW255238   5.493   8.402   3.500 -0.4171 -1.3492 -0.9325
16640SOL     OW55239   9.771   1.026   5.965 -0.4126 -0.0735 -0.9787
16640SOL    HW155240   9.758   0.947   5.911 -1.5755 -1.0775  0.6728
16640SOL    HW255241   9.758   0.995   6.055 -1.3664  2.1179 -0.3150
16641SOL     OW55242  10.804   6.067   0.184 -0.0481 -0.0260 -0.5561
16641SOL    HW155243  10.804   5.987   0.237  1.5455 -1.1786 -2.1830
16641SOL    HW255244  10.763   6.041   0.102  0.5299  0.8004 -1.1176
16642SOL     OW55245  10.879   9.133  10.181 -0.3848 -0.7141  0.1498
16642SOL    HW155246  10.947   9.195  10.205  0.9965 -1.5759 -1.3679
16642SOL    HW255247  10.905   9.100  10.095 -0.8353 -3.6390  1.0205
16643SOL     OW55248   7.055   9.564   1.840  0.2653 -0.4501 -0.5026
16643SOL    HW155249   7.062   9.530   1.751  0.2343 -1.1263 -0.2493
16643SOL    HW255250   7.143   9.551   1.877  1.1906  2.5074 -1.3539
16644SOL     OW55251   9.943  10.974   0.980 -0.0272  0.0743 -0.1296
16644SOL    HW155252   9.994  10.945   0.904 -0.3700 -0.3527 -0.2016
16644SOL    HW255253   9.908  10.893   1.018  0.3186  0.2653  0.6189
16645SOL     OW55254   6.229   5.426   6.334 -0.4858  0.0408  0.0882
16645SOL    HW155255   6.147   5.465   6.301 -0.8776  0.8823  1.9061
16645SOL    HW255256   6.227   5.444   6.428  1.9136  0.2789  0.1432
16646SOL     OW55257   2.439   6.170   8.461 -0.4504  0.3573  0.4096
16646SOL    HW155258   2.449   6.224   8.383  0.5897 -0.7461 -0.2576
16646SOL    HW255259   2.353   6.130   8.452 -0.4043  0.3672 -0.1067
16647SOL     OW55260   3.035   3.806   8.663  0.5459  0.0606  0.3465
16647SOL    HW155261   2.966   3.845   8.610 -0.0687 -0.1664  0.9501
16647SOL    HW255262   3.071   3.736   8.609  0.5849  0.4545 -0.1352
16648SOL     OW55263   7.374   2.034   5.633  0.3033  0.1140  0.5344
16648SOL    HW155264   7.419   1.982   5.567 -2.2075  0.5151 -1.6232
16648SOL    HW255265   7.388   2.125   5.607 -1.0324  0.2678  0.3072
16649SOL     OW55266   6.900  10.532   5.408 -0.7678  0.2607 -0.5793
16649SOL    HW155267   6.947  10.607   5.444  0.0541 -0.0848 -0.9054
16649SOL    HW255268   6.847  10.568   5.337  0.5894  0.3813 -1.5881
16650SOL     OW55269   9.635  11.779   0.103 -0.4956 -0.2583  0.2957
16650SOL    HW155270   9.728  11.797   0.112 -0.2821 -1.9780  2.3402
16650SOL    HW255271   9.628  11.727   0.023  0.0212  1.2880 -0.7963
16651SOL     OW55272  11.752   9.343  10.216  0.3604  0.5436  0.0320
16651SOL    HW155273  11.845   9.324  10.221  0.3989  0.7529  0.1377
16651SOL    HW255274  11.746   9.438  10.230  0.1998  0.6563 -0.7841
16652SOL     OW55275  11.331   1.270   1.664 -0.4495  0.6659  0.0384
16652SOL    HW155276  11.396   1.234   1.725 -0.4865 -0.7647 -0.7353
16652SOL    HW255277  11.380   1.288   1.584 -1.0854 -1.0571 -0.7856
16653SOL     OW55278   0.422   4.841   9.761  0.5642 -0.6522  0.0837
16653SOL    HW155279   0.373   4.911   9.718  3.0259  0.9368 -0.3849
16653SOL    HW255280   0.435   4.872   9.851  1.3372 -0.6615 -0.0151
16654SOL     OW55281   9.093   1.275   1.937 -0.2954  0.6069 -0.3896
16654SOL    HW155282   9.001   1.255   1.919 -0.6821  1.4255  0.5699
16654SOL    HW255283   9.121   1.204   1.996  0.2431 -0.6543 -2.0839
16655SOL     OW55284   8.341   1.806   2.049  0.1799  0.1353  0.2681
16655SOL    HW155285   8.247   1.799   2.069 -0.1412 -1.4650 -1.5307
16655SOL    HW255286   8.377   1.721   2.075  0.6964 -0.0791 -1.0950
16656SOL     OW55287   6.985   4.039   2.031 -0.0341  0.3891 -0.0600
16656SOL    HW155288   6.948   4.070   1.948  0.1039  0.7899  0.0257
16656SOL    HW255289   6.947   3.952   2.042  0.1465  0.2223 -0.6739
16657SOL     OW55290   4.116   6.421   1.918  0.5225  0.0477 -0.1689
16657SOL    HW155291   4.136   6.438   2.010 -0.8875  0.2096  0.1289
16657SOL    HW255292   4.096   6.507   1.881  3.6876  0.3938 -1.3498
16658SOL     OW55293   5.803   5.221   9.463  0.2775 -0.1399 -0.2153
16658SOL    HW155294   5.846   5.170   9.531  1.4829 -0.3280 -1.0784
16658SOL    HW255295   5.843   5.308   9.470 -1.3283  0.5455  0.8571
16659SOL     OW55296   9.821   3.611   0.214 -0.0354  0.6555 -0.0994
16659SOL    HW155297   9.729   3.591   0.195  0.7370 -2.7280 -0.7663
16659SOL    HW255298   9.827   3.706   0.198 -3.5388  1.1944  0.7756
16660SOL     OW55299   5.327   8.163  11.128 -0.3125 -0.1514  0.1702
16660SOL    HW155300   5.377   8.088  11.096  0.3100  0.5017 -0.4318
16660SOL    HW255301   5.368   8.238  11.086 -1.4267  0.4572  0.1445
16661SOL     OW55302  11.791   1.185   5.116  0.2948 -0.1171  0.5173
16661SOL    HW155303  11.817   1.115   5.176  2.8255 -0.8731 -1.2661
16661SOL    HW255304  11.808   1.149   5.029 -0.4640  1.9506 -0.5529
16662SOL     OW55305  11.386  11.453   8.351  0.1459  0.2335  0.1342
16662SOL    HW155306  11.415  11.545   8.352 -4.4072  1.9299  0.9427
16662SOL    HW255307  11.372  11.434   8.258 -2.5124  1.8684  0.1017
16663SOL     OW55308   3.329   3.462  11.348  0.0329 -0.3848 -0.4081
16663SOL    HW155309   3.265   3.391  11.341 -0.1121 -0.2675 -0.2902
16663SOL    HW255310   3.308   3.504  11.432  1.1935 -1.2515  0.3431
16664SOL     OW55311   3.686   4.888   6.224  0.2788  0.9096  0.4548
16664SOL    HW155312   3.756   4.886   6.159  0.8014  0.5118  1.0199
16664SOL    HW255313   3.698   4.970   6.270 -1.0587  1.9593 -0.9717
16665SOL     OW55314  10.950   7.838   6.422 -0.0279 -0.8130 -0.1051
16665SOL    HW155315  11.038   7.822   6.456  0.1021 -1.8527 -0.9023
16665SOL    HW255316  10.965   7.871   6.333 -0.4048  0.6494  0.3470
16666SOL     OW55317   5.144   3.548   8.713  0.1529 -0.3966  0.3766
16666SOL    HW155318   5.048   3.547   8.715  0.0791 -1.6952 -1.2311
16666SOL    HW255319   5.166   3.530   8.621  1.9531  1.2548  0.4209
16667SOL     OW55320   1.900  11.404  11.045 -0.4167 -0.1531 -0.0805
16667SOL    HW155321   1.835  11.349  11.089 -0.3606  0.2387  0.5000
16667SOL    HW255322   1.963  11.342  11.008  0.0153 -0.4624  1.1462
16668SOL     OW55323   9.166   5.139  10.389 -0.0743  0.8629  0.1050
16668SOL    HW155324   9.164   5.069  10.324  0.6450  1.4890 -0.6222
16668SOL    HW255325   9.086   5.188  10.375 -0.0904  0.7856 -0.0725
16669SOL     OW55326   3.403  11.805   1.253  0.2907 -0.5190 -0.0474
16669SOL    HW155327   3.343  11.818   1.179  0.1045 -1.0122  0.0128
16669SOL    HW255328   3.490  11.816   1.216  0.1600  0.6119 -0.0550
16670SOL     OW55329   7.135   9.009   7.334  0.0301  0.4901  0.0296
16670SOL    HW155330   7.149   9.101   7.312 -1.4035  0.9100  0.7494
16670SOL    HW255331   7.220   8.967   7.318  0.6815  1.9165 -0.3796
16671SOL     OW55332   4.982   5.598   1.857  0.0391  0.4306  0.0334
16671SOL    HW155333   4.902   5.547   1.863 -0.1902  0.6089 -1.2343
16671SOL    HW255334   4.952   5.689   1.846  0.4384  0.7435  1.3037
16672SOL     OW55335   6.068   7.748   3.673  0.2690 -0.6111 -0.0588
16672SOL    HW155336   6.112   7.801   3.740  0.4566 -0.7348 -0.0821
16672SOL    HW255337   6.099   7.659   3.690 -2.1666 -1.1956  1.7545
16673SOL     OW55338   8.663   4.977   0.036  0.0474  0.3385  0.2584
16673SOL    HW155339   8.678   4.897   0.085 -2.5669 -0.2685  0.2292
16673SOL    HW255340   8.600   5.026   0.088 -1.0693  0.7152 -1.3480
16674SOL     OW55341   8.690   2.938  11.636  0.0408  0.1367 -0.2614
16674SOL    HW155342   8.629   2.956  11.565 -0.3170 -0.6343 -0.1532
16674SOL    HW255343   8.648   2.974  11.715  0.9995  2.1396 -0.6000
16675SOL     OW55344  11.337   4.954  10.698  0.7232 -0.1980 -0.0888
16675SOL    HW155345  11.263   5.015  10.691 -0.1398 -1.1426  0.5280
16675SOL    HW255346  11.374   4.971  10.785  1.3149  0.3295 -0.4262
16676SOL     OW55347   3.482   6.503   5.744  0.1324  0.0253 -0.4508
16676SOL    HW155348   3.474   6.520   5.650  0.2190  0.5560 -0.3625
16676SOL    HW255349   3.538   6.573   5.777 -0.9330  0.5948  0.2183
16677SOL     OW55350   8.642   2.088   9.848 -0.0470 -0.1063 -0.0647
16677SOL    HW155351   8.658   2.026   9.777  2.1789  0.2661  0.0394
16677SOL    HW255352   8.613   2.168   9.804 -1.9555 -0.8530 -0.2665
16678SOL     OW55353   6.550  11.161   2.166  0.2206  0.3249 -0.3323
16678SOL    HW155354   6.510  11.195   2.247 -1.3054  0.2134 -1.0060
16678SOL    HW255355   6.493  11.089   2.140  0.7077  0.3516 -1.5121
16679SOL     OW55356   4.485   5.492   4.068 -0.2553  0.2048  0.0415
16679SOL    HW155357   4.456   5.438   3.995  0.7775  1.0629 -1.0401
16679SOL    HW255358   4.516   5.429   4.133 -0.9577 -0.5624 -0.3481
16680SOL     OW55359   2.066   6.626   7.988  0.4534  0.1318 -0.8386
16680SOL    HW155360   2.034   6.561   7.926 -0.5835 -1.2373  1.0553
16680SOL    HW255361   2.076   6.579   8.070 -0.9252  2.4503  0.7846
16681SOL     OW55362   1.031   0.472   2.250  0.1528 -0.2499 -0.7266
16681SOL    HW155363   1.021   0.469   2.345  0.0928 -3.6338 -0.7429
16681SOL    HW255364   0.954   0.520   2.220 -0.9347 -0.9243  0.8467
16682SOL     OW55365  10.407   7.887  11.669 -0.5835  0.2165  0.4512
16682SOL    HW155366  10.421   7.948  11.741  1.0405  0.9153 -0.4197
16682SOL    HW255367  10.426   7.801  11.707  0.5402  0.6023  0.7909
16683SOL     OW55368   7.211   8.722   8.618  0.1629 -0.3444  0.2349
16683SOL    HW155369   7.252   8.807   8.602 -1.4152  0.2022 -1.1430
16683SOL    HW255370   7.285   8.662   8.630  1.4097  0.6422 -1.8437
16684SOL     OW55371   8.905  11.477   3.823  0.1986  0.2274  0.3688
16684SOL    HW155372   8.907  11.570   3.847 -3.6332 -0.0541  2.5336
16684SOL    HW255373   8.837  11.471   3.757  0.4532 -1.0640  0.2006
16685SOL     OW55374   1.059   6.828   9.799  0.5124 -1.1207  0.0161
16685SOL    HW155375   1.142   6.852   9.758 -0.8413  3.6986 -0.4645
16685SOL    HW255376   1.082   6.754   9.856  4.9993 -0.4378 -0.4996
16686SOL     OW55377   8.124   7.798   3.529 -0.2461 -0.0650 -0.4515
16686SOL    HW155378   8.040   7.763   3.558  0.4038 -1.9456 -0.7359
16686SOL    HW255379   8.137   7.877   3.582 -1.2955 -0.8112  0.9714
16687SOL     OW55380   2.323  11.269   5.330  0.2967  0.0551 -0.0344
16687SOL    HW155381   2.296  11.178   5.319 -0.8683  0.0745  2.1903
16687SOL    HW255382   2.417  11.269   5.312  0.4674 -1.7446  0.7158
16688SOL     OW55383  10.393   3.311   1.559  0.5097  0.0848 -0.7888
16688SOL    HW155384  10.364   3.402   1.566  1.4732  0.2810  1.2274
16688SOL    HW255385  10.370   3.272   1.644 -0.4503 -1.7559 -1.8281
16689SOL     OW55386  11.683   5.748   2.824 -0.0441 -0.0468 -0.1186
16689SOL    HW155387  11.747   5.815   2.847 -1.4792  0.7169  1.8774
16689SOL    HW255388  11.599   5.794   2.824 -0.9400 -1.6127  0.1315
16690SOL     OW55389   7.371   7.642   2.635 -0.3126 -0.0145  0.7985
16690SOL    HW155390   7.304   7.596   2.585  0.2091  1.0703 -1.0274
16690SOL    HW255391   7.323   7.686   2.705 -1.7682  1.6805 -1.1296
16691SOL     OW55392   4.244   3.936   6.395  0.3564  0.2664  0.9992
16691SOL    HW155393   4.187   3.911   6.322  3.1371  0.2613 -1.3376
16691SOL    HW255394   4.219   4.027   6.415 -1.3765 -0.1813  1.0785
16692SOL     OW55395   6.158   3.583   2.712 -0.2954  0.0147 -0.0025
16692SOL    HW155396   6.186   3.492   2.708  0.8325  0.3851 -1.1084
16692SOL    HW255397   6.227   3.627   2.763 -1.1501  0.1580  1.0695
16693SOL     OW55398   2.177   8.588   2.877  0.1981  0.6597 -0.1875
16693SOL    HW155399   2.243   8.648   2.844  0.7317  1.3724  2.0437
16693SOL    HW255400   2.215   8.552   2.958 -1.6062  0.1129  0.4653
16694SOL     OW55401   5.550   7.388   4.255  0.3261  0.1507 -0.3162
16694SOL    HW155402   5.525   7.352   4.341  2.7398  0.1082  0.4465
16694SOL    HW255403   5.549   7.483   4.268 -0.2826  0.1810 -0.5576
16695SOL     OW55404  11.053   1.799   6.197  0.1188 -0.1222  0.1990
16695SOL    HW155405  11.001   1.769   6.123 -0.9974  0.4214  0.7470
16695SOL    HW255406  11.140   1.816   6.160 -0.0930 -1.0010 -0.7324
16696SOL     OW55407   2.649  11.754   8.612  0.2475 -0.0899 -0.3052
16696SOL    HW155408   2.631  11.742   8.519 -0.8492  2.0642 -0.4072
16696SOL    HW255409   2.741  11.781   8.615  0.7904 -1.7830 -0.5780
16697SOL     OW55410  11.242   4.623   6.533 -0.2214 -0.4835 -0.3277
16697SOL    HW155411  11.318   4.591   6.485 -0.0601  0.4488 -0.7159
16697SOL    HW255412  11.275   4.651   6.618 -0.0253  0.4033 -0.6841
16698SOL     OW55413   8.067   7.743   7.069 -0.4035 -0.6744 -0.1086
16698SOL    HW155414   8.122   7.760   6.992 -0.1896 -0.1035  0.1608
16698SOL    HW255415   8.036   7.653   7.057 -0.9419 -0.3596 -1.2161
16699SOL     OW55416   5.252   4.152  10.833 -0.1364  0.2916  0.1581
16699SOL    HW155417   5.213   4.239  10.831 -0.6420  0.0822 -1.7453
16699SOL    HW255418   5.333   4.161  10.782  1.3986  0.2903  2.4783
16700SOL     OW55419   5.767   4.078   4.629 -0.0539 -0.0635  0.1773
16700SOL    HW155420   5.748   4.163   4.668 -0.5520 -0.8072  1.6286
16700SOL    HW255421   5.688   4.057   4.579  0.6425  0.9567 -1.4284
16701SOL     OW55422   7.655   1.676   8.635 -0.1224 -0.7106 -0.6072
16701SOL    HW155423   7.626   1.683   8.726 -2.0913 -1.1285 -1.1575
16701SOL    HW255424   7.736   1.727   8.632 -0.2071 -0.3947  1.2929
16702SOL     OW55425   3.382   9.095   4.026  0.4522 -0.5940  0.0276
16702SOL    HW155426   3.415   9.178   4.063 -0.0506 -0.2851 -0.2027
16702SOL    HW255427   3.300   9.120   3.983 -0.9747 -1.6168  1.9793
16703SOL     OW55428   4.376   9.368  11.526  0.0180  0.3884 -0.2781
16703SOL    HW155429   4.347   9.430  11.592  0.1409  0.7311 -0.5419
16703SOL    HW255430   4.413   9.295  11.575 -0.8950  0.1432  0.0543
16704SOL     OW55431   5.011   1.568   5.275 -0.0424 -0.0562  0.1993
16704SOL    HW155432   5.014   1.640   5.212 -1.1978 -0.3474 -0.2136
16704SOL    HW255433   5.102   1.536   5.279  0.3664  1.0180 -0.0652
16705SOL     OW55434  11.571   6.467   1.815  0.3098 -0.0767 -0.2187
16705SOL    HW155435  11.665   6.480   1.802  0.6118  0.2830  1.9032
16705SOL    HW255436  11.563   6.446   1.908 -1.6215 -1.1974 -0.5904
16706SOL     OW55437   0.085   8.047   3.349  0.4891 -0.2036  0.2979
16706SOL    HW155438   0.030   8.101   3.293  1.2309  1.4297  1.0873
16706SOL    HW255439   0.070   8.081   3.438  1.8021 -0.5530  0.6762
16707SOL     OW55440   9.077   1.409   9.368 -0.3524 -0.3299 -0.2094
16707SOL    HW155441   9.124   1.450   9.441 -1.0453 -0.5856  0.3908
16707SOL    HW255442   9.001   1.367   9.408  0.2313 -2.0749 -0.8326
16708SOL     OW55443  11.287   8.885   6.692  0.6732 -0.8320 -0.4832
16708SOL    HW155444  11.288   8.903   6.598  2.6460  0.1129 -0.3322
16708SOL    HW255445  11.363   8.829   6.707 -0.5032 -2.3026  0.3660
16709SOL     OW55446  11.687   5.200   4.667  0.0808  0.2068  0.3455
16709SOL    HW155447  11.726   5.183   4.753  0.9957  0.0529 -0.0906
16709SOL    HW255448  11.710   5.291   4.648 -2.2162  1.0709  1.3240
16710SOL     OW55449  11.438  11.360   5.068 -0.2031  0.6019  0.4636
16710SOL    HW155450  11.417  11.278   5.113 -0.9403  0.4627 -0.1331
16710SOL    HW255451  11.363  11.378   5.012  1.7567 -0.6570 -2.8546
16711SOL     OW55452  11.649   6.301   2.556  0.2410 -0.5406 -0.4542
16711SOL    HW155453  11.595   6.225   2.536  1.1669 -0.8963 -1.7379
16711SOL    HW255454  11.726   6.292   2.501  0.5709  1.1308 -0.3478
16712SOL     OW55455   3.607   0.514   6.254 -0.6326 -0.1167  0.3261
16712SOL    HW155456   3.690   0.524   6.208 -1.5153 -2.4710 -2.0391
16712SOL    HW255457   3.556   0.590   6.229 -0.0952  0.0459 -0.2964
16713SOL     OW55458   1.049   3.110   4.910 -0.4637 -0.7432 -0.3430
16713SOL    HW155459   1.081   3.061   4.986  0.2818  0.9046  0.4390
16713SOL    HW255460   1.108   3.085   4.839  0.6818 -0.0565  0.3536
16714SOL     OW55461   1.827   3.156   0.472 -0.0368  0.0041 -0.0057
16714SOL    HW155462   1.826   3.186   0.380 -0.9361 -1.3055 -0.4467
16714SOL    HW255463   1.899   3.205   0.512 -1.5109  2.9074 -0.6103
16715SOL     OW55464  11.301   5.988   7.563  0.2247 -0.5298  0.4503
16715SOL    HW155465  11.262   6.076   7.560 -0.1522 -0.6820  0.8338
16715SOL    HW255466  11.346   5.986   7.648  1.2007 -0.3016 -0.0530
16716SOL     OW55467   1.719  11.025   0.899 -0.2001 -0.1084  0.3773
16716SOL    HW155468   1.700  10.951   0.957  0.9807  0.5222  1.6164
16716SOL    HW255469   1.697  10.993   0.812 -1.0047 -1.4498  1.0423
16717SOL     OW55470   0.004   5.310   8.712 -0.4683 -0.3269  0.3828
16717SOL    HW155471  -0.006   5.261   8.794 -1.4924 -0.4007  0.2326
16717SOL    HW255472  -0.000   5.402   8.738  0.2616 -0.3305  0.5276
16718SOL     OW55473  11.818   3.344   9.323 -0.6571 -0.2726  0.0862
16718SOL    HW155474  11.777   3.308   9.402 -0.3791  0.4829  0.5785
16718SOL    HW255475  11.797   3.437   9.325 -1.3751 -0.3736 -1.1836
16719SOL     OW55476   9.328   1.163   8.730  0.3279 -0.4695 -0.6315
16719SOL    HW155477   9.383   1.085   8.723  1.5030  0.1325  1.2511
16719SOL    HW255478   9.369   1.216   8.799 -0.2794  1.9495 -2.0045
16720SOL     OW55479   7.992   2.598   7.616 -0.5243  0.3661  0.0497
16720SOL    HW155480   8.017   2.685   7.585 -0.1874 -0.3827 -1.9350
16720SOL    HW255481   8.066   2.542   7.594 -1.1389 -0.6075  0.3721
16721SOL     OW55482   5.434   6.537  10.307 -0.4274  0.1537  0.0365
16721SOL    HW155483   5.502   6.546  10.240 -0.3015 -0.8313  0.0129
16721SOL    HW255484   5.399   6.449  10.293 -1.4792  0.5175  0.2723
16722SOL     OW55485   9.224   2.055  10.882  0.3110  0.1674 -0.3489
16722SOL    HW155486   9.164   1.981  10.895 -1.1509  1.3024 -0.3029
16722SOL    HW255487   9.303   2.016  10.846  0.3062 -1.6702  1.4434
16723SOL     OW55488  11.674   9.697   4.446  0.2837  0.7894  0.2574
16723SOL    HW155489  11.602   9.744   4.489  0.4644 -0.0281  1.4963
16723SOL    HW255490  11.632   9.650   4.374 -0.5237  0.0223  1.1914
16724SOL     OW55491   7.530   6.613   4.715  0.3852  0.0999  0.3211
16724SOL    HW155492   7.472   6.640   4.787  0.1585  0.1030  0.1371
16724SOL    HW255493   7.507   6.521   4.699  2.7787 -1.0211  2.5528
16725SOL     OW55494   6.451   1.208   0.897 -0.3216  0.2571  0.2739
16725SOL    HW155495   6.519   1.258   0.852  0.7826 -0.0195  1.5720
16725SOL    HW255496   6.457   1.120   0.860  0.1248  0.2015  0.4712
16726SOL     OW55497   6.888   8.164   6.168 -0.1587 -0.5169  0.5091
16726SOL    HW155498   6.936   8.235   6.212 -1.0051  2.1492 -2.5772
16726SOL    HW255499   6.957   8.101   6.145  1.5460  1.7778 -1.1565
16727SOL     OW55500   8.979   4.968   9.946 -0.8307 -0.4866  0.1635
16727SOL    HW155501   9.020   4.935   9.866 -2.7200  0.7513 -1.4118
16727SOL    HW255502   9.014   5.056   9.957 -0.2864 -0.7907  0.9500
16728SOL     OW55503  10.360  11.375   0.220  0.3409  0.1463  0.5647
16728SOL    HW155504  10.308  11.297   0.201  0.7132 -0.1008  0.5562
16728SOL    HW255505  10.302  11.431   0.271 -0.4463  0.5231 -0.7139
16729SOL     OW55506  11.040   6.565   6.210 -0.6249 -0.5603  0.0537
16729SOL    HW155507  11.038   6.590   6.302 -1.9472  1.3211 -0.4398
16729SOL    HW255508  11.083   6.638   6.166 -1.5412 -0.6472 -1.0215
16730SOL     OW55509   8.623   9.773   2.940  0.0721 -0.1211  0.4990
16730SOL    HW155510   8.712   9.740   2.946  0.3055  0.6669  1.5394
16730SOL    HW255511   8.573   9.720   3.003  0.2442  0.7857  1.4315
16731SOL     OW55512   7.117   3.633   5.866 -0.5583 -0.3833  0.0540
16731SOL    HW155513   7.089   3.541   5.873 -4.8063  0.7749  0.9878
16731SOL    HW255514   7.103   3.655   5.774 -0.5677 -0.3891  0.0541
16732SOL     OW55515   7.612   4.978  11.250  0.1882  0.6470  0.1523
16732SOL    HW155516   7.553   4.990  11.324 -0.2656  2.9639 -0.5103
16732SOL    HW255517   7.589   4.892  11.214 -2.5092  1.2821  0.1879
16733SOL     OW55518   0.492   7.973   7.694 -0.1622  0.0877 -0.2383
16733SOL    HW155519   0.418   7.941   7.642  0.5607 -0.3798 -1.0092
16733SOL    HW255520   0.476   8.068   7.701 -1.2493 -0.1182  0.3146
16734SOL     OW55521   8.091   8.770   2.349 -0.1253 -0.6016  0.0849
16734SOL    HW155522   8.005   8.742   2.319 -0.8632  0.9466  0.6164
16734SOL    HW255523   8.146   8.767   2.271 -1.0014 -0.3831 -0.5590
16735SOL     OW55524   2.719   6.405   9.336 -0.2239  0.2736 -0.5235
16735SOL    HW155525   2.815   6.399   9.327 -0.3206 -0.9419 -1.0750
16735SOL    HW255526   2.687   6.403   9.246 -0.8678 -2.9135 -0.3736
16736SOL     OW55527   0.326   3.261   7.073  0.5846 -0.3931 -0.0842
16736SOL    HW155528   0.241   3.291   7.042  0.6755  0.5189  0.4922
16736SOL    HW255529   0.389   3.323   7.036  0.9817 -0.9367 -0.3375
16737SOL     OW55530   2.259   7.583   0.316  0.5713 -0.3405  0.2811
16737SOL    HW155531   2.254   7.532   0.234 -1.8634  0.0071  0.1254
16737SOL    HW255532   2.241   7.519   0.384  0.8113 -0.2934  0.3891
16738SOL     OW55533  10.882  11.545   0.445 -0.8348 -0.2491  0.1382
16738SOL    HW155534  10.811  11.536   0.382 -1.3310 -1.9581  0.8960
16738SOL    HW255535  10.848  11.605   0.512 -0.6738  0.7654 -0.6591
16739SOL     OW55536   7.343   2.359  10.227 -0.1719  0.4393 -0.4407
16739SOL    HW155537   7.250   2.344  10.245 -0.1210 -1.3812 -1.4496
16739SOL    HW255538   7.364   2.298  10.155  1.1675  2.6883 -2.0723
16740SOL     OW55539   1.310   8.445   7.822 -0.0186  0.1208  0.3636
16740SOL    HW155540   1.266   8.362   7.841  0.1349 -0.1951 -0.6241
16740SOL    HW255541   1.345   8.434   7.734  2.4107  0.2203  1.2616
16741SOL     OW55542   0.870   7.155  10.358  0.8370  0.2197  0.4047
16741SOL    HW155543   0.900   7.124  10.444  0.4680  1.8492  1.1623
16741SOL    HW255544   0.896   7.247  10.356 -0.1507  0.4881 -0.7781
16742SOL     OW55545   0.664   7.053   1.060  0.4669  0.3884 -0.1216
16742SOL    HW155546   0.679   7.090   1.147  1.1387  1.6871 -0.7460
16742SOL    HW255547   0.739   7.083   1.009 -0.0141 -0.1936 -1.1950
16743SOL     OW55548   3.006   7.379  10.065 -0.1444  0.4738  0.6249
16743SOL    HW155549   2.979   7.291  10.040  0.2722  0.6461 -0.4709
16743SOL    HW255550   2.936   7.436  10.035  0.3609  0.6828 -0.1936
16744SOL     OW55551   3.000   3.364   5.332  0.1124 -0.2260  0.3450
16744SOL    HW155552   3.075   3.348   5.390  0.0662  1.3100  0.8746
16744SOL    HW255553   3.038   3.408   5.256 -0.2289  0.3773  0.5227
16745SOL     OW55554   4.948  10.228  11.280  0.1356 -0.6166  0.0703
16745SOL    HW155555   4.883  10.196  11.218  0.1159 -0.1022 -0.1718
16745SOL    HW255556   5.032  10.198  11.245  0.2078  0.4120 -0.6760
16746SOL     OW55557   3.525   6.347   4.141  0.0870 -0.5506 -0.7553
16746SOL    HW155558   3.600   6.395   4.176  0.4038 -1.6829  0.1945
16746SOL    HW255559   3.556   6.311   4.058  0.3130 -0.3033 -0.7786
16747SOL     OW55560   6.184   0.820   7.855 -0.3380 -0.1619  0.2981
16747SOL    HW155561   6.155   0.729   7.849 -0.4502 -0.2137  1.4882
16747SOL    HW255562   6.218   0.840   7.768 -3.5990 -0.1744 -1.0995
16748SOL     OW55563   4.892   3.623   4.992 -0.1153 -0.0593  0.0345
16748SOL    HW155564   4.811   3.670   4.971  0.7128  1.2204 -0.4314
16748SOL    HW255565   4.890   3.612   5.087 -1.1607 -0.6753 -0.0507
16749SOL     OW55566   3.325   4.632   1.747  0.1183  0.0962  0.5655
16749SOL    HW155567   3.264   4.680   1.802 -0.0666  0.1788  0.2902
16749SOL    HW255568   3.400   4.690   1.737  0.6132 -0.3338  1.5885
16750SOL     OW55569   1.627   1.782   6.955 -0.3529  0.0315 -0.1454
16750SOL    HW155570   1.637   1.825   6.870  0.2828  0.2043  0.0155
16750SOL    HW255571   1.544   1.815   6.989  1.3369  3.2901  1.1997
16751SOL     OW55572   3.312   4.848  10.339  0.0006 -0.1832  0.5394
16751SOL    HW155573   3.370   4.860  10.263 -1.5468 -0.2466 -0.7069
16751SOL    HW255574   3.317   4.754  10.357 -0.4691 -0.3666 -0.2196
16752SOL     OW55575  11.022   9.704   6.017  0.1873  0.0712 -0.2108
16752SOL    HW155576  11.050   9.624   6.063  0.4178 -1.0440 -2.1613
16752SOL    HW255577  11.059   9.776   6.068 -0.6160 -0.9951  2.0235
16753SOL     OW55578   9.717   9.667   6.557  0.0779 -0.0952 -0.4312
16753SOL    HW155579   9.631   9.625   6.550 -0.6056  1.2808 -0.7964
16753SOL    HW255580   9.708   9.726   6.632  1.1669 -0.9135  0.3626
16754SOL     OW55581   7.498   4.102  10.185 -0.4857  0.7434  0.7199
16754SOL    HW155582   7.521   4.150  10.105 -0.9189  0.1646  0.2392
16754SOL    HW255583   7.427   4.153  10.224  0.1537  1.3718  1.0783
16755SOL     OW55584   2.589   4.017   7.111 -0.0510  0.1657  0.3846
16755SOL    HW155585   2.609   4.025   7.018  2.2304  0.9857  0.8796
16755SOL    HW255586   2.494   4.013   7.115 -0.1853 -0.7389 -2.0244
16756SOL     OW55587   7.532   4.935   5.010  0.5629 -0.2758 -0.2775
16756SOL    HW155588   7.570   4.969   4.929 -1.2760 -0.9399 -1.4862
16756SOL    HW255589   7.573   4.849   5.023  1.9058  0.4227  0.3249
16757SOL     OW55590   0.779   9.358   1.247 -0.2799  0.0484 -0.2040
16757SOL    HW155591   0.843   9.389   1.183 -0.3702  0.0710 -0.2855
16757SOL    HW255592   0.708   9.422   1.242  0.4605  1.0251  1.1621
16758SOL     OW55593   3.367   7.115   8.720  0.2702 -0.3381  0.3363
16758SOL    HW155594   3.273   7.119   8.703 -0.5548 -2.3032  3.5577
16758SOL    HW255595   3.375   7.060   8.798  4.0672  0.3254  0.6087
16759SOL     OW55596   1.117   0.540   1.631 -0.3806 -0.0936  0.2434
16759SOL    HW155597   1.156   0.459   1.597 -1.3308  0.1640 -1.5571
16759SOL    HW255598   1.030   0.514   1.659 -0.9860  0.4212 -1.0851
16760SOL     OW55599   7.571   6.108   9.277 -0.7105 -0.1105 -0.5159
16760SOL    HW155600   7.617   6.024   9.281  0.2322  0.2715 -2.3417
16760SOL    HW255601   7.504   6.096   9.210  0.4663  1.0139 -1.9660
16761SOL     OW55602   3.060   7.938   4.350 -1.0206  0.5727 -0.4445
16761SOL    HW155603   2.992   7.874   4.373 -0.3375  0.7231  2.3703
16761SOL    HW255604   3.067   7.994   4.428  0.9774  1.7734 -1.4103
16762SOL     OW55605   7.232   4.862   7.421 -0.3896  0.3082 -0.0440
16762SOL    HW155606   7.233   4.958   7.424 -1.5241  0.3401 -0.1674
16762SOL    HW255607   7.321   4.836   7.445  0.1083  1.4078 -0.6413
16763SOL     OW55608   0.874   6.710   2.414 -0.3145 -0.6856  0.1838
16763SOL    HW155609   0.887   6.766   2.491  0.1233 -2.0589  1.1306
16763SOL    HW255610   0.789   6.738   2.379 -0.1698  0.4746  0.7053
16764SOL     OW55611   8.253   7.921  11.558  0.1930 -0.3603 -0.0943
16764SOL    HW155612   8.304   7.948  11.482  0.2570 -0.1189  0.0333
16764SOL    HW255613   8.319   7.893  11.623  0.1764  0.1335  0.1414
16765SOL     OW55614   6.024   9.700  10.567  0.7785  0.0868  0.0386
16765SOL    HW155615   5.978   9.723  10.647  0.8852  0.2769  0.0459
16765SOL    HW255616   5.984   9.618  10.539 -1.3975  1.5538 -1.4120
16766SOL     OW55617   6.464   6.152  10.231  0.4905 -0.1794 -0.2455
16766SOL    HW155618   6.379   6.112  10.213 -1.1342  2.2905  1.2716
16766SOL    HW255619   6.496   6.180  10.146 -0.3187 -0.9288 -0.8193
16767SOL     OW55620   6.236   3.915   7.287 -0.3556  0.1690 -0.0221
16767SOL    HW155621   6.167   3.938   7.225  0.6760  1.0583 -0.8806
16767SOL    HW255622   6.232   3.983   7.354  1.1823  1.6307 -1.3301
16768SOL     OW55623   3.313   1.439   1.823 -0.7049 -0.3060 -0.1967
16768SOL    HW155624   3.323   1.482   1.908 -0.8153  0.2941 -0.4838
16768SOL    HW255625   3.323   1.346   1.842  0.9609 -0.0677  0.2132
16769SOL     OW55626   0.481   1.458   0.178 -0.4143 -0.0644  0.4455
16769SOL    HW155627   0.525   1.417   0.103 -0.4431 -0.2929  0.5512
16769SOL    HW255628   0.545   1.519   0.213  0.1372 -0.9828  1.0981
16770SOL     OW55629  10.816  10.282  11.570 -0.0042 -0.2462  0.4103
16770SOL    HW155630  10.829  10.376  11.578  0.5560 -0.3165  0.3200
16770SOL    HW255631  10.875  10.243  11.634 -1.3412 -0.4843  1.5316
16771SOL     OW55632   7.627   3.173  11.679 -0.0934  0.0607 -0.0269
16771SOL    HW155633   7.566   3.116  11.632  1.0103 -0.2157 -1.1852
16771SOL    HW255634   7.577   3.253  11.696 -0.8651 -0.2605 -0.7047
16772SOL     OW55635   5.561   4.725   0.271  0.2015  0.0649 -0.4661
16772SOL    HW155636   5.643   4.684   0.298  0.2020 -0.0235 -0.6035
16772SOL    HW255637   5.580   4.762   0.184  0.3397  0.7489 -0.1522
16773SOL     OW55638   4.298   4.642   6.583  0.4945 -0.7684 -0.1105
16773SOL    HW155639   4.378   4.601   6.551  2.9613  2.4904  1.3616
16773SOL    HW255640   4.277   4.709   6.518  0.1735 -0.2229  0.5402
16774SOL     OW55641   7.888   6.052   8.972  0.3685  0.5865  0.1423
16774SOL    HW155642   7.796   6.047   8.943  0.4979  0.5744 -0.2808
16774SOL    HW255643   7.921   5.963   8.958  0.3706  0.5257  0.5457
16775SOL     OW55644   6.781   6.909   5.727 -0.1214 -0.2273  0.0557
16775SOL    HW155645   6.692   6.907   5.691  0.2942  2.5087 -1.4437
16775SOL    HW255646   6.838   6.903   5.650  0.8540  2.0787  0.5032
16776SOL     OW55647   3.644   4.313   4.288 -0.3203  0.1235  0.4215
16776SOL    HW155648   3.633   4.266   4.205  0.2468 -0.3390  0.6045
16776SOL    HW255649   3.704   4.385   4.267 -0.4698  0.2291  0.3501
16777SOL     OW55650   4.892   0.696   8.328  0.2050  0.0264  0.1846
16777SOL    HW155651   4.838   0.661   8.399 -1.6025  0.1590 -1.0569
16777SOL    HW255652   4.934   0.774   8.365 -1.8342  0.9252  0.7271
16778SOL     OW55653  11.295  10.932   6.179 -0.1304  0.4264  0.2671
16778SOL    HW155654  11.360  10.968   6.239 -0.5726  1.1426  0.3317
16778SOL    HW255655  11.331  10.848   6.152  1.5936  1.4980 -0.9487
16779SOL     OW55656   6.821   4.167   2.554 -0.6389 -0.2494 -0.3945
16779SOL    HW155657   6.913   4.189   2.538 -0.8681 -0.1010 -1.5772
16779SOL    HW255658   6.824   4.097   2.620  0.4028 -1.3846 -1.5876
16780SOL     OW55659  10.433   5.517   9.416  0.0430 -0.2970  0.0508
16780SOL    HW155660  10.382   5.504   9.336 -0.1949  0.2781  0.1077
16780SOL    HW255661  10.367   5.536   9.483  0.3120  0.2463  0.1667
16781SOL     OW55662   3.716   9.410   9.338 -0.2268 -0.3663  0.4070
16781SOL    HW155663   3.756   9.475   9.396  1.7693 -0.1015 -1.1518
16781SOL    HW255664   3.732   9.327   9.382  2.7906 -0.3421 -0.4420
16782SOL     OW55665   8.943   7.104   7.727 -0.2572  0.7026  0.1353
16782SOL    HW155666   9.011   7.159   7.688 -0.6925  0.8550 -0.4321
16782SOL    HW255667   8.990   7.044   7.785  0.2426  1.5863  0.6627
16783SOL     OW55668   0.513   0.733   4.136  0.1427 -0.0288  0.2849
16783SOL    HW155669   0.534   0.660   4.077 -1.1245 -0.3552  0.2122
16783SOL    HW255670   0.592   0.788   4.135 -0.0274  0.2772 -2.1828
16784SOL     OW55671   2.842   9.064   4.646  0.0225 -0.2711 -0.8062
16784SOL    HW155672   2.936   9.053   4.663 -0.2292  0.3440  1.2374
16784SOL    HW255673   2.800   8.995   4.698 -0.7594  0.8909  0.1426
16785SOL     OW55674  11.250   3.613   5.335  0.4241  0.5920  0.4806
16785SOL    HW155675  11.238   3.682   5.269  0.9975 -0.8655 -1.2157
16785SOL    HW255676  11.344   3.612   5.351  0.2354  1.3157  1.8155
16786SOL     OW55677   7.244  11.484   5.046 -0.0312 -0.4196  0.5348
16786SOL    HW155678   7.283  11.535   5.118  0.3878 -0.0692  0.0654
16786SOL    HW255679   7.226  11.549   4.978  1.9980 -1.0909 -0.7282
16787SOL     OW55680   3.059   3.588   8.524  0.4352 -0.4738  0.0979
16787SOL    HW155681   3.120   3.562   8.455  0.3592 -0.5779  0.0702
16787SOL    HW255682   2.996   3.516   8.529  0.2541 -0.3202  0.0556
16788SOL     OW55683   3.670   7.649   3.662  0.1416  0.7874  0.0760
16788SOL    HW155684   3.711   7.725   3.621  2.0601 -0.2630 -0.0490
16788SOL    HW255685   3.714   7.641   3.747 -0.3134  0.0395  0.2482
16789SOL     OW55686   8.764   0.161   5.930 -0.4668  0.1661 -0.1314
16789SOL    HW155687   8.829   0.098   5.960 -0.4230  0.2221 -0.1072
16789SOL    HW255688   8.717   0.186   6.010 -0.4384  0.2155 -0.1296
16790SOL     OW55689   5.049   8.722   1.477  0.1835 -0.5448  0.0598
16790SOL    HW155690   5.086   8.683   1.557  0.6106  0.2007  0.2416
16790SOL    HW255691   5.125   8.756   1.430 -0.0818 -0.8555 -0.6101
16791SOL     OW55692   3.679   3.863  10.090  0.2675  0.6535  0.3682
16791SOL    HW155693   3.725   3.938  10.126  0.1341  0.1063  1.7336
16791SOL    HW255694   3.594   3.898  10.062  0.4074  1.1111  0.5093
16792SOL     OW55695   3.053   8.128   4.540 -0.5955 -0.0200 -0.0552
16792SOL    HW155696   2.990   8.195   4.513 -0.9576  0.1106  1.0802
16792SOL    HW255697   3.047   8.126   4.635  0.8263 -0.3060  0.0509
16793SOL     OW55698   6.601   2.930   4.526 -0.0374  0.1620  0.4423
16793SOL    HW155699   6.657   2.885   4.462 -0.1271 -0.3547  0.7229
16793SOL    HW255700   6.560   3.000   4.476  0.0502 -0.1102 -0.0199
16794SOL     OW55701   6.911   6.423   7.814  0.6518 -0.4381 -0.5469
16794SOL    HW155702   6.947   6.476   7.744 -0.4833  0.0209 -0.8169
16794SOL    HW255703   6.957   6.452   7.893 -0.1271  1.1786 -0.6471
16795SOL     OW55704   4.343   3.408   5.512  0.9793  0.3429 -0.3741
16795SOL    HW155705   4.379   3.392   5.599 -0.0651  2.0343  0.4063
16795SOL    HW255706   4.286   3.484   5.522  0.4940  0.3286 -2.4531
16796SOL     OW55707  11.578   6.827   7.212  0.0490 -0.3362 -0.2739
16796SOL    HW155708  11.584   6.918   7.241  1.4912 -0.5444  0.1262
16796SOL    HW255709  11.633   6.778   7.272  0.4870 -1.2638 -1.3840
16797SOL     OW55710   4.542  10.031   6.312 -0.6808 -0.5337 -0.3037
16797SOL    HW155711   4.596   9.962   6.352 -0.1448 -0.5795 -1.0997
16797SOL    HW255712   4.575  10.112   6.350  0.4886 -0.4893 -1.3637
16798SOL     OW55713  11.278   1.311   2.301 -0.1556 -0.6071 -0.0885
16798SOL    HW155714  11.207   1.362   2.339 -0.1956 -1.0366  0.4297
16798SOL    HW255715  11.315   1.367   2.233  0.0940  0.2902  0.7666
16799SOL     OW55716   5.656   0.374   3.482 -0.4334 -0.9801  0.2639
16799SOL    HW155717   5.620   0.455   3.518  0.5823 -1.2144  1.9265
16799SOL    HW255718   5.652   0.312   3.555 -0.8635 -2.3479 -0.8717
16800SOL     OW55719   0.534   5.738   3.345  0.6458  0.8161 -0.0609
16800SOL    HW155720   0.462   5.680   3.321  1.8961 -0.3680 -1.1765
16800SOL    HW255721   0.513   5.767   3.434 -0.7795 -0.1721 -0.0435
16801SOL     OW55722   5.043   7.032   6.224 -0.2845 -0.2079  0.4914
16801SOL    HW155723   4.959   7.032   6.271 -0.6917 -2.9737 -0.0620
16801SOL    HW255724   5.029   7.093   6.151 -2.1577 -1.1842 -0.0452
16802SOL     OW55725  10.995   3.268   6.142  0.1382 -0.3243  0.4040
16802SOL    HW155726  11.075   3.320   6.142  0.8998 -1.4416 -0.0106
16802SOL    HW255727  10.927   3.328   6.171  0.4618  1.6339 -2.5172
16803SOL     OW55728   2.379   4.115  11.268  0.1920 -0.2105 -0.1672
16803SOL    HW155729   2.473   4.120  11.287  0.0001  0.7088  0.6307
16803SOL    HW255730   2.353   4.206  11.254 -0.2599 -0.6089 -2.1521
16804SOL     OW55731   2.873   8.349  11.545 -0.0641  0.4255  0.4027
16804SOL    HW155732   2.915   8.295  11.613 -2.7528  0.4308  2.2270
16804SOL    HW255733   2.863   8.289  11.470  0.3293 -0.4904  1.0583
16805SOL     OW55734   2.412   4.957  10.090  0.4995 -0.7928 -0.3387
16805SOL    HW155735   2.442   4.932  10.003  1.7903 -2.0339  0.4191
16805SOL    HW255736   2.383   4.874  10.130 -1.2431 -0.0577 -0.0058
16806SOL     OW55737   5.435   8.011   8.597  0.2509 -0.5168  0.1475
16806SOL    HW155738   5.389   7.931   8.573  1.2264 -0.9974 -0.1884
16806SOL    HW255739   5.411   8.027   8.688  1.2973 -2.1109  0.7541
16807SOL     OW55740   6.999   8.545   9.813  0.1758  0.1456  0.4849
16807SOL    HW155741   6.974   8.579   9.727  3.9715  0.9127 -0.4675
16807SOL    HW255742   6.933   8.580   9.873  0.1856  3.7823 -1.3959
16808SOL     OW55743   5.279   1.099   5.472 -0.0615  0.0977  0.5522
16808SOL    HW155744   5.227   1.169   5.512  0.9221  1.1210  0.0821
16808SOL    HW255745   5.237   1.018   5.501 -0.1086  0.8286  2.6266
16809SOL     OW55746   0.922   0.686   8.631 -0.2373  0.4726 -0.2941
16809SOL    HW155747   0.967   0.623   8.687  0.4282 -0.2622 -1.6106
16809SOL    HW255748   0.881   0.633   8.563 -0.8644  1.3588 -0.6282
16810SOL     OW55749   1.864   6.200   8.861  0.4806  0.0105 -0.1470
16810SOL    HW155750   1.774   6.171   8.841  0.7397  0.0412 -1.4957
16810SOL    HW255751   1.856   6.294   8.875  0.1470 -0.1554  0.8325
16811SOL     OW55752   5.362   9.479   4.313 -0.2321 -0.1678 -0.2039
16811SOL    HW155753   5.362   9.559   4.261 -3.4966 -0.0853 -0.2888
16811SOL    HW255754   5.324   9.505   4.397  0.3461 -1.2772  0.4309
16812SOL     OW55755   0.202   9.456  10.278 -0.0290 -0.2198  0.4229
16812SOL    HW155756   0.138   9.528  10.270 -2.0775 -2.0480 -0.7512
16812SOL    HW255757   0.195   9.428  10.369  0.4451  0.7259  0.7679
16813SOL     OW55758   7.250   1.939   3.697  0.2666  0.5151 -0.7271
16813SOL    HW155759   7.181   1.872   3.702  0.1472  0.6472 -0.5572
16813SOL    HW255760   7.278   1.939   3.606  1.0495 -0.5448 -0.4981
16814SOL     OW55761   9.809   1.785  10.609 -0.3960 -0.0700 -0.9672
16814SOL    HW155762   9.892   1.782  10.560  0.5152 -1.4003  0.5647
16814SOL    HW255763   9.809   1.872  10.649 -0.2612  0.3377 -1.8323
16815SOL     OW55764  11.322   7.612   1.179  0.1517 -0.1665  0.1208
16815SOL    HW155765  11.266   7.535   1.170  0.1444  0.0205 -1.9896
16815SOL    HW255766  11.388   7.602   1.110  2.3118  0.0091  2.0359
16816SOL     OW55767   1.037   1.665   7.037 -0.1074 -0.3738 -0.1882
16816SOL    HW155768   0.951   1.697   7.064 -0.1527  1.7156 -2.4321
16816SOL    HW255769   1.092   1.743   7.032  1.6402 -1.5258  0.1510
16817SOL     OW55770   6.290  11.307   3.301 -0.5476 -0.0696  0.3551
16817SOL    HW155771   6.197  11.330   3.293 -0.6475  0.5094  2.5993
16817SOL    HW255772   6.337  11.390   3.290 -0.2946 -0.3399 -0.6503
16818SOL     OW55773  11.294   9.922   6.848 -0.1886 -0.3061  0.0502
16818SOL    HW155774  11.297   9.942   6.941 -0.7883  1.8013 -0.3197
16818SOL    HW255775  11.299  10.008   6.805 -2.4356 -0.9868 -1.7761
16819SOL     OW55776   4.162   8.560   7.654  0.4022 -0.2671 -0.0371
16819SOL    HW155777   4.084   8.507   7.666 -1.1319  1.7938 -0.2705
16819SOL    HW255778   4.203   8.564   7.740 -0.8452  0.1702  0.5628
16820SOL     OW55779  10.387   4.228   8.677  0.4501  0.1886 -0.2901
16820SOL    HW155780  10.389   4.248   8.771  0.8638 -0.1873 -0.2128
16820SOL    HW255781  10.311   4.275   8.644  1.4393  2.0062 -0.1329
16821SOL     OW55782   8.890  11.815  11.529  0.0935  0.1075 -0.0503
16821SOL    HW155783   8.867  11.747  11.466  0.5286 -0.4833  0.4251
16821SOL    HW255784   8.805  11.849  11.559 -0.1202  0.5884 -1.1426
16822SOL     OW55785   3.643  10.880   7.513 -0.0614 -0.2542 -0.2550
16822SOL    HW155786   3.557  10.866   7.554 -1.0081  0.8165 -1.7570
16822SOL    HW255787   3.642  10.973   7.488  1.8336 -0.0466  0.3190
16823SOL     OW55788   7.515  10.330   8.634 -0.5918 -0.1439 -0.2164
16823SOL    HW155789   7.437  10.291   8.594 -0.9137  1.3147 -1.0769
16823SOL    HW255790   7.588  10.278   8.600 -1.0370 -0.2185 -1.0927
16824SOL     OW55791   6.080   1.940   3.039  0.0491  0.0781 -0.2111
16824SOL    HW155792   6.051   1.856   3.006 -1.6197  0.0718  1.1450
16824SOL    HW255793   6.115   1.921   3.126 -1.6807  0.9207  0.7216
16825SOL     OW55794  10.746   2.322   1.799 -0.2193 -0.0219 -0.0708
16825SOL    HW155795  10.717   2.296   1.886 -0.9536  0.7177 -0.0772
16825SOL    HW255796  10.679   2.289   1.740 -0.3134  0.4488 -0.2351
16826SOL     OW55797   4.691   5.380   4.220  0.3263 -0.2924 -0.6601
16826SOL    HW155798   4.723   5.292   4.200  1.1103  0.3411 -2.4122
16826SOL    HW255799   4.756   5.438   4.182 -0.6934  1.0548 -0.4182
16827SOL     OW55800   9.082   2.264   4.474 -0.3196  0.2644  0.5058
16827SOL    HW155801   9.049   2.353   4.466 -2.5403 -0.4716  0.7676
16827SOL    HW255802   9.078   2.245   4.568  0.8785  0.1089  0.5477
16828SOL     OW55803   1.709   8.321   2.189 -0.1840 -0.3616 -0.6516
16828SOL    HW155804   1.686   8.413   2.180 -2.2977 -0.6968  0.6639
16828SOL    HW255805   1.647   8.275   2.134 -1.6195 -1.1846  1.5213
16829SOL     OW55806   4.306  10.623  10.047 -0.3420  0.0300  0.0964
16829SOL    HW155807   4.351  10.570   9.980 -0.8180 -0.5651  0.2433
16829SOL    HW255808   4.214  10.618  10.023 -0.4870  0.0205  0.6540
16830SOL     OW55809  10.023   3.518   1.278  0.0961  0.1331 -0.0622
16830SOL    HW155810   9.930   3.527   1.298 -0.0696 -1.8798  0.2780
16830SOL    HW255811  10.026   3.512   1.182  0.1546  2.4251 -0.2676
16831SOL     OW55812  11.308   8.584   5.794  0.0800  0.2398 -0.0941
16831SOL    HW155813  11.312   8.673   5.760 -0.4675  0.0038 -0.7874
16831SOL    HW255814  11.342   8.530   5.723 -0.1115 -0.1590  0.1167
16832SOL     OW55815   0.124   4.240   7.446  0.1314  0.3070 -0.3485
16832SOL    HW155816   0.195   4.280   7.497  0.5009  0.3247 -0.8711
16832SOL    HW255817   0.085   4.176   7.506  2.1424 -1.4597 -0.8311
16833SOL     OW55818   2.645  11.216   7.796  0.0674  0.2239  0.1972
16833SOL    HW155819   2.704  11.285   7.764 -0.8011  1.0929  0.4491
16833SOL    HW255820   2.690  11.134   7.772  1.7203  0.8466  0.9907
16834SOL     OW55821   5.134   3.478  10.063  0.2907 -0.2627  0.1032
16834SOL    HW155822   5.136   3.437  10.150 -2.7312 -1.3679 -0.2409
16834SOL    HW255823   5.078   3.420  10.011  2.0110  0.3813 -2.6283
16835SOL     OW55824   6.364   6.689   6.720 -0.3925  0.0871  0.0110
16835SOL    HW155825   6.332   6.775   6.692  2.6513  2.2651  2.3841
16835SOL    HW255826   6.441   6.674   6.665 -0.3124 -0.6268  0.3109
16836SOL     OW55827   8.472   3.599   4.072  0.6576  0.3148 -0.1225
16836SOL    HW155828   8.458   3.576   4.164 -2.7095  0.2052 -0.5534
16836SOL    HW255829   8.487   3.693   4.073  1.4841  0.1879  0.5803
16837SOL     OW55830   4.668   5.901   4.797 -0.1099  0.1358  0.4537
16837SOL    HW155831   4.588   5.849   4.786  0.5121 -0.6096 -0.7985
16837SOL    HW255832   4.658   5.974   4.736 -0.4797  0.8840  1.3878
16838SOL     OW55833   3.434   5.646   4.990  0.0940 -0.1214 -0.1982
16838SOL    HW155834   3.356   5.700   4.982 -1.2408 -1.8391  0.6510
16838SOL    HW255835   3.462   5.631   4.900 -2.0633 -1.5411 -0.6983
16839SOL     OW55836   6.757   4.363  11.597 -0.7145 -0.8532  0.7535
16839SOL    HW155837   6.764   4.271  11.622 -1.0942 -0.5589  2.0384
16839SOL    HW255838   6.793   4.411  11.672  0.6067  0.0197 -0.4035
16840SOL     OW55839   5.511   3.108  10.871 -0.0297  0.2431  0.1066
16840SOL    HW155840   5.600   3.140  10.854 -0.0423 -0.7713 -2.3628
16840SOL    HW255841   5.456   3.186  10.868  0.6752  0.7876  0.9136
16841SOL     OW55842  10.242   5.027   9.550 -0.2384  0.0661 -0.5177
16841SOL    HW155843  10.316   5.077   9.515  0.7197 -1.7817 -1.3175
16841SOL    HW255844  10.237   5.052   9.642  2.2616 -0.6466 -0.0982
16842SOL     OW55845   2.045   0.587   0.476  0.3847  0.1432 -1.0285
16842SOL    HW155846   1.993   0.565   0.399 -0.0778 -0.8659 -0.4329
16842SOL    HW255847   2.113   0.520   0.479 -1.2616 -1.5376  1.0117
16843SOL     OW55848  11.494   3.345   9.200 -0.6521  0.1602  0.0097
16843SOL    HW155849  11.502   3.288   9.278 -0.1532 -0.6508 -0.6160
16843SOL    HW255850  11.553   3.305   9.136 -1.4520  0.5225 -0.9641
16844SOL     OW55851   8.889   8.060  11.064  0.4431 -0.0543  0.2738
16844SOL    HW155852   8.821   8.077  11.130 -0.9716 -0.7296 -0.9657
16844SOL    HW255853   8.863   8.113  10.989  1.1344 -0.5520 -0.3306
16845SOL     OW55854  11.364  11.759   2.756  0.5294  0.0327  0.1442
16845SOL    HW155855  11.365  11.666   2.736 -3.6594 -0.1020 -0.4023
16845SOL    HW255856  11.371  11.802   2.671 -0.3131  0.0994  0.1052
16846SOL     OW55857   9.361  10.847   0.728 -0.3321  0.0528  0.7995
16846SOL    HW155858   9.387  10.897   0.806 -0.3456  2.3525 -0.5718
16846SOL    HW255859   9.411  10.766   0.734  0.6375  0.7264  2.5624
16847SOL     OW55860   3.491  10.750   9.102  0.2337  0.1539  0.0104
16847SOL    HW155861   3.543  10.692   9.157  0.9486 -0.0884 -0.8796
16847SOL    HW255862   3.493  10.834   9.146  2.3900  0.4701 -0.5344
16848SOL     OW55863   4.809   7.638  10.290  0.5531  0.2464  0.2710
16848SOL    HW155864   4.814   7.621  10.384 -1.0589 -0.8585  0.1894
16848SOL    HW255865   4.740   7.704  10.282 -0.0084 -0.3816 -0.1904
16849SOL     OW55866   6.120   0.529   9.158  0.0455  0.5291  0.8508
16849SOL    HW155867   6.091   0.538   9.068 -1.8143  1.2330  1.4758
16849SOL    HW255868   6.066   0.459   9.195 -0.2001  1.1831  1.7769
16850SOL     OW55869   3.667   0.644   1.959 -0.4658  0.0330  0.3222
16850SOL    HW155870   3.749   0.617   1.917 -0.9575  0.6933 -1.1428
16850SOL    HW255871   3.641   0.568   2.011  0.8458 -0.3429  0.4824
16851SOL     OW55872   7.792   6.551   4.824  0.3215 -0.1684 -0.0347
16851SOL    HW155873   7.758   6.587   4.906 -0.2625  0.4713 -0.5419
16851SOL    HW255874   7.717   6.553   4.765 -0.4241 -4.2664  0.4691
16852SOL     OW55875   1.361   3.698   1.396 -0.8630  0.4764  0.3125
16852SOL    HW155876   1.271   3.687   1.366 -0.9875 -0.9732  1.1039
16852SOL    HW255877   1.375   3.793   1.398 -2.5622  0.7456  0.7191
16853SOL     OW55878   3.255   4.911   9.624  0.3576 -0.0089 -0.1118
16853SOL    HW155879   3.205   4.936   9.546 -1.0459  0.2932  0.8352
16853SOL    HW255880   3.274   4.993   9.668 -1.4271 -0.3007  1.3293
16854SOL     OW55881   0.820  11.635   3.913  0.2301  0.5019  0.0500
16854SOL    HW155882   0.862  11.638   3.828 -0.1351 -0.9967 -0.2100
16854SOL    HW255883   0.884  11.592   3.970  0.6218  1.8207  0.6452
16855SOL     OW55884   0.316   0.156   8.165  0.0977 -0.1993 -0.0720
16855SOL    HW155885   0.227   0.122   8.154 -0.4905  1.3459 -0.2911
16855SOL    HW255886   0.355   0.101   8.233 -2.3566  1.5177  2.9310
16856SOL     OW55887   1.379   7.217   0.651 -0.0895 -0.2413 -0.3952
16856SOL    HW155888   1.324   7.157   0.701 -0.5948  0.4268 -0.1528
16856SOL    HW255889   1.320   7.286   0.621  0.3736 -0.1608 -1.1658
16857SOL     OW55890   0.253   0.787  11.213  0.6805  0.4969 -0.0166
16857SOL    HW155891   0.277   0.855  11.151 -1.3940 -0.2199 -1.7208
16857SOL    HW255892   0.232   0.833  11.294 -1.4473  2.0336 -1.3523
16858SOL     OW55893   9.758   1.893   3.072 -0.2033 -0.0745  0.6535
16858SOL    HW155894   9.718   1.933   2.994  0.2972  0.4732  0.6632
16858SOL    HW255895   9.767   1.801   3.050  0.0717  0.1005 -0.0050
16859SOL     OW55896   6.561   6.849   0.171 -0.3637  0.4825  0.1970
16859SOL    HW155897   6.489   6.874   0.113 -1.3159 -1.2309  0.5909
16859SOL    HW255898   6.605   6.932   0.190 -0.9385  1.2827 -1.7379
16860SOL     OW55899   2.451   0.903   0.774 -0.0848  0.0323 -0.5165
16860SOL    HW155900   2.504   0.924   0.698  0.8173 -0.3236  0.0013
16860SOL    HW255901   2.462   0.808   0.786 -1.1857 -0.1315 -0.6537
16861SOL     OW55902   4.223   6.327  10.225 -0.5389  0.2123 -0.0604
16861SOL    HW155903   4.138   6.305  10.263 -0.8037  1.2345 -0.0317
16861SOL    HW255904   4.251   6.246  10.181 -1.4689 -0.1690  0.0157
16862SOL     OW55905  11.571   5.821   6.378 -0.9058  0.0467 -0.1504
16862SOL    HW155906  11.485   5.782   6.392 -0.9778  0.0173 -0.6442
16862SOL    HW255907  11.561   5.912   6.408 -1.5723  0.4942 -1.6180
16863SOL     OW55908  11.347   7.053   1.602 -0.4501 -0.3265  0.3793
16863SOL    HW155909  11.345   7.058   1.697 -1.3962  0.7896  0.3271
16863SOL    HW255910  11.410   6.984   1.582  0.3736 -0.0138  1.7946
16864SOL     OW55911   8.090   9.161   2.481  0.4692  0.0457  0.0852
16864SOL    HW155912   8.035   9.113   2.419  0.6550  1.0872 -0.9200
16864SOL    HW255913   8.180   9.136   2.458  0.4790 -1.5989  1.6780
16865SOL     OW55914   7.614   4.369   8.489 -0.7450 -0.2663  0.2878
16865SOL    HW155915   7.540   4.427   8.510  0.6149  1.9504 -0.7025
16865SOL    HW255916   7.618   4.308   8.563 -3.8333 -0.8355  0.1491
16866SOL     OW55917   7.236   4.637   6.509  0.6363 -0.4842  0.3226
16866SOL    HW155918   7.262   4.728   6.494  0.4856 -0.3044  1.1031
16866SOL    HW255919   7.207   4.636   6.600 -1.5833 -0.7951 -0.3296
16867SOL     OW55920   3.864   5.930  10.346 -0.2056  0.4155  0.1855
16867SOL    HW155921   3.787   5.987  10.349 -1.0051 -0.4669 -1.6045
16867SOL    HW255922   3.836   5.849  10.389 -1.0835 -0.6731 -2.2065
16868SOL     OW55923   6.773   0.603   2.590 -0.1731 -0.3725  0.2601
16868SOL    HW155924   6.830   0.648   2.652  1.5198 -1.5785 -0.3490
16868SOL    HW255925   6.770   0.660   2.514 -1.0760  0.4229  0.8711
16869SOL     OW55926   8.284   5.481  10.574 -0.7819 -0.0174 -0.4501
16869SOL    HW155927   8.344   5.554  10.589 -0.5271  0.3759 -2.9759
16869SOL    HW255928   8.341   5.404  10.566 -0.9345 -0.2657  0.6633
16870SOL     OW55929   3.390   6.770   9.364  1.1993 -0.0854  0.0345
16870SOL    HW155930   3.335   6.692   9.364 -2.1515  2.0679 -0.1296
16870SOL    HW255931   3.431   6.772   9.278 -1.4156  0.0255 -1.2754
16871SOL     OW55932   2.060   2.190   4.830  0.2072 -0.3390  0.0986
16871SOL    HW155933   1.966   2.207   4.837  0.1505 -0.0705 -1.1141
16871SOL    HW255934   2.089   2.176   4.920 -0.7815  0.7259  0.6023
16872SOL     OW55935   7.462   7.127  10.733 -0.1188 -0.1711  0.3714
16872SOL    HW155936   7.423   7.161  10.653 -0.5247 -2.0162 -0.2614
16872SOL    HW255937   7.524   7.061  10.703  0.3099 -0.3267  1.5541
16873SOL     OW55938   4.799   0.730   9.841  0.0521 -0.6541  0.0907
16873SOL    HW155939   4.838   0.767   9.920  1.2335 -3.5470  1.0173
16873SOL    HW255940   4.872   0.727   9.778 -0.1980 -0.7669 -0.1978
16874SOL     OW55941   0.342   2.718   7.279  0.1314  0.3018  0.1397
16874SOL    HW155942   0.404   2.646   7.271  0.9281  1.0243 -0.2621
16874SOL    HW255943   0.328   2.749   7.190 -0.8698  0.1014  0.2181
16875SOL     OW55944   9.186  11.116   7.951 -0.1138 -0.1999 -0.1434
16875SOL    HW155945   9.100  11.149   7.976  0.0107 -1.1715  1.7845
16875SOL    HW255946   9.225  11.187   7.900 -0.7849  1.6463  1.7708
16876SOL     OW55947   1.378  10.593   6.611  0.0683  0.3677 -0.1390
16876SOL    HW155948   1.429  10.531   6.559 -0.0091 -0.9224  1.2621
16876SOL    HW255949   1.296  10.549   6.628 -0.5629  1.4461 -0.2813
16877SOL     OW55950  11.441   9.266   4.742 -0.3997 -0.5774 -0.0190
16877SOL    HW155951  11.428   9.195   4.679  0.9955 -2.0969  1.3412
16877SOL    HW255952  11.520   9.311   4.712 -0.6361 -0.2826 -0.2203
16878SOL     OW55953   1.398   3.548   2.813  0.3166  0.6481  0.4654
16878SOL    HW155954   1.373   3.512   2.728  0.1833  0.8668  0.4107
16878SOL    HW255955   1.339   3.505   2.875  1.5782 -0.8459  0.6864
16879SOL     OW55956   4.012   8.347   2.136  0.2054  0.6291  0.9393
16879SOL    HW155957   3.929   8.314   2.102 -0.2363 -0.4235  2.8807
16879SOL    HW255958   4.072   8.342   2.062 -1.4009  1.2286 -0.4519
16880SOL     OW55959   5.939   3.366   7.323  0.0322 -0.3175 -0.0607
16880SOL    HW155960   5.977   3.408   7.400  0.2701 -0.8846  0.1318
16880SOL    HW255961   5.981   3.409   7.248 -0.5512  0.5684  0.1123
16881SOL     OW55962   9.272  10.797   7.106 -0.0576 -0.0836 -0.6644
16881SOL    HW155963   9.318  10.840   7.034  0.0531  1.8958  0.5145
16881SOL    HW255964   9.317  10.826   7.185 -0.8079 -1.3878  0.3022
16882SOL     OW55965   2.405   8.647   2.171 -0.2446 -0.0670 -0.1815
16882SOL    HW155966   2.322   8.690   2.193 -0.2313 -0.3979  0.5624
16882SOL    HW255967   2.382   8.586   2.101 -0.8290 -0.7988  0.6170
16883SOL     OW55968   1.311   4.497   3.899  0.3666 -0.3748  0.1860
16883SOL    HW155969   1.243   4.444   3.941 -0.7641  0.1608 -0.8971
16883SOL    HW255970   1.383   4.435   3.884 -0.0375 -1.0583  0.9518
16884SOL     OW55971   7.929  11.790   4.919 -0.2040 -0.4738 -0.1906
16884SOL    HW155972   7.998  11.725   4.934  1.8903  1.3989 -1.1477
16884SOL    HW255973   7.887  11.801   5.005  1.8054 -0.5032  0.8448
16885SOL     OW55974   8.797   8.852   6.198 -0.0311  0.3699 -0.3132
16885SOL    HW155975   8.757   8.924   6.149  0.1507  0.1167 -0.8332
16885SOL    HW255976   8.883   8.886   6.224 -0.4986  0.8559  0.6672
16886SOL     OW55977   6.888  10.939   2.370 -0.3394  0.5246 -0.8886
16886SOL    HW155978   6.866  11.031   2.356  1.1001  0.7251 -2.0340
16886SOL    HW255979   6.977  10.930   2.335 -0.1096 -1.1023  0.0235
16887SOL     OW55980   8.689   0.338   5.025  0.7300  0.1306 -0.5991
16887SOL    HW155981   8.756   0.306   5.085  0.2282 -0.1920 -0.2149
16887SOL    HW255982   8.641   0.260   4.998 -0.5938  0.5482  0.4609
16888SOL     OW55983   6.228  10.835   4.008 -0.4319  0.6060 -0.2551
16888SOL    HW155984   6.252  10.927   4.020 -2.6592  1.1871  0.0427
16888SOL    HW255985   6.300  10.799   3.956  1.4395  2.0048  1.2234
16889SOL     OW55986   3.438  11.290   9.800  0.0242  0.0559  0.1310
16889SOL    HW155987   3.444  11.301   9.894 -0.3260  1.5408  0.0065
16889SOL    HW255988   3.358  11.238   9.786  0.5621 -0.9514  0.6690
16890SOL     OW55989   6.344  10.740   1.738  0.1195  0.3115 -0.6921
16890SOL    HW155990   6.397  10.807   1.780  0.5353 -0.4985  0.1056
16890SOL    HW255991   6.275  10.788   1.693  1.1391  1.3469 -1.1899
16891SOL     OW55992   4.234   4.856   3.968 -0.1726  0.4386  0.0595
16891SOL    HW155993   4.141   4.848   3.987 -0.4408 -1.1504 -1.6143
16891SOL    HW255994   4.257   4.773   3.926  1.7420  1.2324 -0.5739
16892SOL     OW55995   2.990   8.914   2.654  0.1746  0.1886 -0.0784
16892SOL    HW155996   3.028   8.959   2.730 -0.4960  0.2226  0.2486
16892SOL    HW255997   3.015   8.968   2.579 -0.3077  0.9183  0.2704
16893SOL     OW55998   7.905   2.880   7.794  0.1184 -0.2485 -0.4232
16893SOL    HW155999   7.903   2.970   7.764  0.2972 -0.3323 -0.6952
16893SOL    HW256000   7.840   2.835   7.740 -0.2316 -0.2073 -0.0362
16894SOL     OW56001   8.002   7.539   3.306 -0.4170  0.1377 -0.0698
16894SOL    HW156002   7.991   7.457   3.258 -0.8189  1.2067 -1.8628
16894SOL    HW256003   8.092   7.565   3.288 -0.1247 -0.1440  0.9218
16895SOL     OW56004  11.332   1.131   8.903 -0.0682  0.0170 -0.9120
16895SOL    HW156005  11.265   1.081   8.856 -1.0445  0.4135  0.0140
16895SOL    HW256006  11.358   1.200   8.842 -0.6361 -0.0330 -1.2144
16896SOL     OW56007   7.116   6.118   7.397  0.4571  0.6042 -0.0201
16896SOL    HW156008   7.091   6.039   7.445  0.4425  0.8955  0.4550
16896SOL    HW256009   7.185   6.157   7.450  1.0000  0.5149 -0.6400
16897SOL     OW56010   8.772   6.549   1.334  0.2453 -0.8935  0.3678
16897SOL    HW156011   8.768   6.568   1.240  1.4514 -1.6611  0.1300
16897SOL    HW256012   8.860   6.512   1.346  0.2363 -0.4694  1.8632
16898SOL     OW56013   3.125   9.784   5.831 -0.3419 -0.7618 -0.1166
16898SOL    HW156014   3.154   9.873   5.849  1.0260 -1.1206 -0.3607
16898SOL    HW256015   3.079   9.757   5.910 -0.9559  0.2287 -0.1233
16899SOL     OW56016   5.691   6.281   9.386 -0.2263  0.2386  0.2063
16899SOL    HW156017   5.616   6.303   9.331 -0.4854 -1.3131 -0.0948
16899SOL    HW256018   5.751   6.234   9.327 -0.6031 -1.6500  1.2528
16900SOL     OW56019  11.395   5.897   7.875  0.0681 -0.2488  0.2687
16900SOL    HW156020  11.472   5.872   7.824 -1.7926 -2.3125 -1.7418
16900SOL    HW256021  11.429   5.960   7.939  3.0536  0.4349 -1.7383
16901SOL     OW56022   6.451   6.710  11.413 -0.5733 -0.0544 -0.1437
16901SOL    HW156023   6.409   6.795  11.402 -2.1337 -0.6729  0.8088
16901SOL    HW256024   6.382   6.652  11.443  0.6523 -1.4767  0.0735
16902SOL     OW56025   3.675   2.025  10.471 -0.5341 -0.1739 -0.1314
16902SOL    HW156026   3.730   1.948  10.485  0.1820  0.1198 -1.2020
16902SOL    HW256027   3.586   1.990  10.465 -0.2089 -0.9346 -0.6766
16903SOL     OW56028   3.340   8.806  10.449 -0.4637 -0.6971  0.0529
16903SOL    HW156029   3.330   8.890  10.494 -1.3479 -1.5958  1.6504
16903SOL    HW256030   3.375   8.829  10.363  0.5160  1.1950  0.8861
16904SOL     OW56031   2.252   4.241   4.819 -0.5221 -0.0181  0.1500
16904SOL    HW156032   2.315   4.263   4.750 -1.2879 -1.9809 -1.2728
16904SOL    HW256033   2.291   4.165   4.864 -0.9022  0.0716  0.6344
16905SOL     OW56034   6.054  10.846   4.751 -0.1171 -0.0017  0.3034
16905SOL    HW156035   6.074  10.936   4.780 -0.2515  0.0679  0.1775
16905SOL    HW256036   5.984  10.817   4.810 -1.0005  0.4516 -0.5034
16906SOL     OW56037   8.460   0.942   4.600 -0.4587  0.1988  0.2280
16906SOL    HW156038   8.457   0.954   4.695 -0.2100  0.9872  0.1395
16906SOL    HW256039   8.416   1.020   4.565 -1.6027 -0.6330 -0.2764
16907SOL     OW56040   3.264   0.098   5.045  0.5633 -0.6270  0.3627
16907SOL    HW156041   3.345   0.138   5.014  0.5217 -0.9031 -0.1114
16907SOL    HW256042   3.207   0.096   4.968  0.6283 -1.7472  0.3263
16908SOL     OW56043   6.538   7.474   7.776 -0.7890  0.3661 -0.4679
16908SOL    HW156044   6.484   7.544   7.740 -2.6418  0.2218  1.7505
16908SOL    HW256045   6.482   7.397   7.773  0.7078 -0.7208 -1.5549
16909SOL     OW56046   1.758   9.956   1.910  0.5256 -0.0914  0.0873
16909SOL    HW156047   1.699   9.967   1.985  0.0439  0.8796 -0.4205
16909SOL    HW256048   1.721  10.011   1.842  1.7507  0.1417 -0.4131
16910SOL     OW56049   4.649   4.821   8.959  0.3201 -0.7707  0.2119
16910SOL    HW156050   4.649   4.869   9.041  1.1476 -0.0190 -0.2039
16910SOL    HW256051   4.672   4.731   8.983  2.2974 -0.2019  0.6420
16911SOL     OW56052   5.615   1.817   3.887  0.6614 -0.0663  0.5517
16911SOL    HW156053   5.532   1.783   3.920  0.3937  0.1616  0.1172
16911SOL    HW256054   5.601   1.828   3.793  1.2829 -0.3114  0.4252
16912SOL     OW56055   8.210  10.716   2.018  0.1849 -0.2270  0.2086
16912SOL    HW156056   8.259  10.751   1.945 -0.3402 -2.6852 -1.4384
16912SOL    HW256057   8.274  10.664   2.068 -0.0657 -1.0080 -0.2594
16913SOL     OW56058  10.043   9.013   9.821 -0.7604 -0.3507  0.2246
16913SOL    HW156059   9.955   9.040   9.795 -0.3769  1.6475  0.7916
16913SOL    HW256060  10.059   9.059   9.904  1.8738  1.8544 -1.2972
16914SOL     OW56061   9.268   6.078   2.082  0.3205 -0.1397 -0.1570
16914SOL    HW156062   9.293   6.052   2.171  1.2962 -0.3363 -0.4773
16914SOL    HW256063   9.313   6.161   2.068 -3.0734  2.1344  1.0079
16915SOL     OW56064   8.024   3.677   6.004 -0.1458 -0.1522  0.1425
16915SOL    HW156065   7.935   3.702   6.028 -0.2490 -0.4728  0.1099
16915SOL    HW256066   8.020   3.661   5.910 -0.8458 -3.1938  0.5555
16916SOL     OW56067   3.649   2.917  10.808 -0.6155  0.2411  0.0218
16916SOL    HW156068   3.625   2.901  10.717 -0.5713 -0.9232  0.2053
16916SOL    HW256069   3.743   2.898  10.812 -0.9968 -1.6929  0.7251
16917SOL     OW56070   1.426   2.843   0.232 -0.7181 -0.0047  0.6986
16917SOL    HW156071   1.393   2.784   0.164  1.0985  0.1157 -0.3692
16917SOL    HW256072   1.460   2.785   0.300  2.7047 -0.4299 -1.1335
16918SOL     OW56073   8.121   8.232   2.967  0.3774 -0.6719 -0.4743
16918SOL    HW156074   8.143   8.311   2.918  0.1354 -0.0154  0.4368
16918SOL    HW256075   8.182   8.166   2.935  3.4316  0.9122  1.5048
16919SOL     OW56076   3.305   0.117   9.638  0.4270 -0.1116 -0.2929
16919SOL    HW156077   3.328   0.177   9.566  0.4682  0.3776  0.1254
16919SOL    HW256078   3.389   0.090   9.674  0.5113 -1.9425 -1.6840
16920SOL     OW56079   4.837   3.178  11.576 -1.0454  0.2286  0.5158
16920SOL    HW156080   4.832   3.084  11.560  3.0111  0.1267 -1.2966
16920SOL    HW256081   4.857   3.185  11.670  1.6858 -1.0698  0.1423
16921SOL     OW56082   7.375   2.868   2.664 -0.5005  0.4464  0.3494
16921SOL    HW156083   7.341   2.911   2.585  0.1228  0.1754 -0.0745
16921SOL    HW256084   7.464   2.902   2.672 -0.5857  0.5280  0.9859
16922SOL     OW56085   9.956   7.102   8.021  0.3015  0.7315 -0.0740
16922SOL    HW156086  10.045   7.096   8.056  0.0664 -2.7696  0.2784
16922SOL    HW256087   9.954   7.038   7.950 -2.1721  0.0018  0.5572
16923SOL     OW56088  11.094   9.539   5.515  0.2056 -0.5195  0.3170
16923SOL    HW156089  11.091   9.538   5.611  4.1540  3.0882  0.7861
16923SOL    HW256090  11.003   9.553   5.489 -0.6360  2.2220  3.8383
16924SOL     OW56091   3.566   5.543   3.297 -0.3990 -0.3327  0.2753
16924SOL    HW156092   3.595   5.472   3.239  1.8870 -3.5377  4.6978
16924SOL    HW256093   3.471   5.548   3.284 -0.0268 -0.5092 -3.7514
16925SOL     OW56094   7.067   0.683   3.856 -0.4056  0.1846 -0.2441
16925SOL    HW156095   7.067   0.662   3.949 -1.3767 -1.2324 -0.5291
16925SOL    HW256096   7.159   0.678   3.830 -0.1787  0.1867  0.5406
16926SOL     OW56097   8.486   2.485   3.874  0.1448  0.4399 -0.0201
16926SOL    HW156098   8.428   2.485   3.951 -0.9421  1.0006 -0.8131
16926SOL    HW256099   8.505   2.577   3.858  0.9070  0.2867 -0.0440
16927SOL     OW56100   9.491  11.445  11.413 -0.1743  0.0105 -0.2441
16927SOL    HW156101   9.441  11.467  11.491  0.0098  0.5303 -0.2696
16927SOL    HW256102   9.470  11.513  11.349  0.3541  0.0893 -0.3456
16928SOL     OW56103   4.336   3.451   3.975 -0.2749 -0.3082 -0.0927
16928SOL    HW156104   4.360   3.433   4.066 -1.0508 -1.7974 -0.1510
16928SOL    HW256105   4.357   3.543   3.963  1.9424 -0.6107  0.9205
16929SOL     OW56106   7.556   9.983  11.243 -0.0078  0.3498 -0.2233
16929SOL    HW156107   7.559   9.987  11.147  1.8197  0.8609 -0.1770
16929SOL    HW256108   7.565  10.074  11.270  0.8504  0.0748  0.4434
16930SOL     OW56109   9.992   3.076   3.450 -0.4057 -0.2680  0.0941
16930SOL    HW156110  10.005   3.034   3.366 -0.6460 -0.3624  0.1048
16930SOL    HW256111   9.897   3.081   3.461 -0.3833  0.5542 -0.0457
16931SOL     OW56112   6.877   2.002   9.077  0.0117  0.1886 -0.1377
16931SOL    HW156113   6.887   1.908   9.090  0.5857  0.1562 -0.7312
16931SOL    HW256114   6.956   2.027   9.028 -0.1478  0.9707  0.0032
16932SOL     OW56115   0.776   8.284  11.410 -0.4191 -0.2422 -0.1820
16932SOL    HW156116   0.707   8.250  11.354  0.0319 -1.1929 -0.1822
16932SOL    HW256117   0.823   8.206  11.440  0.5788  0.3772 -0.0935
16933SOL     OW56118   9.695  11.518  11.766  0.8518  0.0258 -0.4425
16933SOL    HW156119   9.680  11.494  11.675  0.7038  0.0902 -0.4351
16933SOL    HW256120   9.786  11.494  11.782 -0.0634 -3.4138  0.4381
16934SOL     OW56121   3.698  11.576   1.659  0.4168 -0.0301  0.5249
16934SOL    HW156122   3.794  11.570   1.659  0.6585  1.8192  3.4139
16934SOL    HW256123   3.673  11.560   1.567  3.6311  1.4493 -0.7668
16935SOL     OW56124   7.421   8.934   9.972 -0.4388  0.2903 -0.6842
16935SOL    HW156125   7.342   8.884   9.991 -0.6317  0.5418 -0.8255
16935SOL    HW256126   7.392   9.006   9.915 -0.7880  2.4203  1.9516
16936SOL     OW56127   4.473   6.482   7.685 -0.3644 -0.5224  0.8780
16936SOL    HW156128   4.484   6.509   7.594 -2.1942  0.2522  0.8449
16936SOL    HW256129   4.559   6.448   7.710  0.2744 -0.4628 -1.0244
16937SOL     OW56130   5.871   9.585  10.211  0.7225 -0.5751 -0.4490
16937SOL    HW156131   5.954   9.548  10.184  1.3866  0.0888  0.6110
16937SOL    HW256132   5.826   9.514  10.256  1.1554 -0.6548 -0.1383
16938SOL     OW56133   4.734   0.110   2.946 -0.3279  0.5048 -0.4455
16938SOL    HW156134   4.773   0.139   2.863  1.0390 -0.2424 -0.0811
16938SOL    HW256135   4.761   0.019   2.955 -1.0292  0.3742  0.5137
16939SOL     OW56136   4.125   1.363   6.685  0.0485  0.1543  0.5328
16939SOL    HW156137   4.173   1.367   6.768 -0.6265  0.8338  0.9007
16939SOL    HW256138   4.174   1.420   6.627 -0.6207  1.3157  1.0823
16940SOL     OW56139  11.357   1.645   1.691 -0.1042 -0.2093 -0.4812
16940SOL    HW156140  11.373   1.657   1.597 -0.0971  1.0189 -0.3430
16940SOL    HW256141  11.418   1.576   1.718  1.4958  0.9785 -0.9336
16941SOL     OW56142   6.127  10.492   4.931 -0.6838  0.7062  0.1459
16941SOL    HW156143   6.063  10.449   4.874  1.8066 -0.5193 -1.9546
16941SOL    HW256144   6.178  10.420   4.967 -0.2233  1.6651  1.4749
16942SOL     OW56145   4.929  11.546   0.670  0.1013  0.0260 -0.2810
16942SOL    HW156146   4.855  11.560   0.611  0.2449 -2.1083 -1.0309
16942SOL    HW256147   4.984  11.623   0.657 -0.7471  0.4430 -1.6032
16943SOL     OW56148   3.563   0.717   9.785  0.0669 -0.1770  0.1367
16943SOL    HW156149   3.535   0.806   9.764  2.8098  1.0076  0.9787
16943SOL    HW256150   3.642   0.704   9.733 -0.2328 -2.1285  0.0947
16944SOL     OW56151   0.052   2.679   4.603  1.2639  0.6472  0.0254
16944SOL    HW156152  -0.039   2.669   4.630  1.0947 -1.5511 -1.0677
16944SOL    HW256153   0.101   2.621   4.662  1.6812  0.3951 -0.5535
16945SOL     OW56154   5.791   8.517   5.478  0.2173  0.0239 -0.6105
16945SOL    HW156155   5.780   8.610   5.498  0.5687  0.0163 -0.3693
16945SOL    HW256156   5.815   8.515   5.385 -1.8670  0.0291 -1.2032
16946SOL     OW56157   7.345   9.789   7.028 -0.0498  0.2858 -0.4638
16946SOL    HW156158   7.353   9.876   6.988 -0.6398  0.6544  0.2057
16946SOL    HW256159   7.389   9.731   6.966  1.3539  1.2075 -0.3833
16947SOL     OW56160   4.937  10.379   8.676 -0.0436  0.4334  0.3325
16947SOL    HW156161   4.894  10.397   8.593 -0.3870  1.0232  0.6255
16947SOL    HW256162   4.875  10.412   8.742  0.7655  1.1304  0.7708
16948SOL     OW56163   1.807   7.414   9.052 -0.2103  0.7272  0.1210
16948SOL    HW156164   1.754   7.493   9.064  1.7263  2.3805 -1.4520
16948SOL    HW256165   1.777   7.378   8.968 -0.7708  0.0260  0.6123
16949SOL     OW56166  10.734   3.093  10.274 -0.3132 -0.3958 -0.0105
16949SOL    HW156167  10.807   3.059  10.222 -0.2877 -1.4336  0.6595
16949SOL    HW256168  10.682   3.145  10.213  1.0691  0.4863 -0.4548
16950SOL     OW56169   5.617   8.436  10.247 -0.6425 -0.4825 -0.6482
16950SOL    HW156170   5.630   8.531  10.239 -0.4703 -0.4592 -0.1724
16950SOL    HW256171   5.524   8.425  10.265 -0.6238 -0.3840 -0.4880
16951SOL     OW56172  11.698   1.433   3.532 -0.3957 -0.5543  0.6579
16951SOL    HW156173  11.772   1.462   3.479 -0.6714  0.5692  0.8590
16951SOL    HW256174  11.627   1.420   3.469 -0.3941 -0.3635  0.6171
16952SOL     OW56175   7.384   8.114   5.991  0.5502 -0.2919  0.2417
16952SOL    HW156176   7.324   8.122   6.065 -0.5382  1.8852 -0.7841
16952SOL    HW256177   7.469   8.141   6.026  0.1800  0.0994  0.8698
16953SOL     OW56178   2.597   5.185   8.775  0.0914 -0.4582 -0.0984
16953SOL    HW156179   2.589   5.121   8.846  1.3975 -0.4790  0.0501
16953SOL    HW256180   2.662   5.248   8.806 -0.7670  0.6633 -0.4689
16954SOL     OW56181   2.265  11.314   5.022 -0.4203  0.0855  0.2152
16954SOL    HW156182   2.320  11.241   4.993 -0.8579 -0.1287 -0.0819
16954SOL    HW256183   2.272  11.313   5.117  0.3180  0.2353  0.1697
16955SOL     OW56184   6.825   3.163   4.498  0.0446  0.0196 -0.2496
16955SOL    HW156185   6.823   3.191   4.407 -0.9670  1.5435  0.2042
16955SOL    HW256186   6.758   3.094   4.503  1.3256 -1.3352 -0.9989
16956SOL     OW56187   7.403   9.397   9.569 -0.1531  0.0326 -0.3839
16956SOL    HW156188   7.383   9.404   9.476 -0.2260 -0.4662 -0.4057
16956SOL    HW256189   7.344   9.460   9.611  0.4867  0.9027 -0.7481
16957SOL     OW56190   8.668  11.073   1.317 -0.0370 -0.0824  0.1377
16957SOL    HW156191   8.759  11.047   1.305 -0.4119 -0.9768 -0.9066
16957SOL    HW256192   8.641  11.030   1.398  0.1587 -0.7141 -0.1243
16958SOL     OW56193   8.136   9.364   1.567  0.2824 -0.0701  0.0572
16958SOL    HW156194   8.052   9.349   1.525  0.2663  0.8149 -0.2330
16958SOL    HW256195   8.118   9.356   1.661 -0.2010  0.4584  0.0161
16959SOL     OW56196   2.171   9.785   0.694 -0.8361 -0.4004  0.5790
16959SOL    HW156197   2.144   9.693   0.690 -1.1499 -0.2764 -0.4770
16959SOL    HW256198   2.252   9.784   0.744 -1.1121 -1.1894  1.0313
16960SOL     OW56199   1.492   2.137   2.657  0.1574  0.0658 -0.1077
16960SOL    HW156200   1.448   2.088   2.726  0.6753 -1.9122 -1.1266
16960SOL    HW256201   1.533   2.071   2.602  2.1522  1.7067 -0.7349
16961SOL     OW56202   9.600   3.869  10.896 -0.0404  0.4121  0.0370
16961SOL    HW156203   9.686   3.907  10.882  1.4564 -2.2669  1.1019
16961SOL    HW256204   9.561   3.864  10.809  0.5246  2.3344 -0.3645
16962SOL     OW56205   8.970   7.486   8.495 -0.6964 -0.3776 -0.0370
16962SOL    HW156206   8.922   7.557   8.537  0.6009  1.0032 -0.7758
16962SOL    HW256207   8.921   7.406   8.518 -1.5094  0.5978  1.8176
16963SOL     OW56208   6.577   0.207   9.364  0.0952 -0.3021  0.3155
16963SOL    HW156209   6.622   0.152   9.427  0.0468 -1.7692 -0.8810
16963SOL    HW256210   6.641   0.274   9.340  0.5221 -0.4604  0.9956
16964SOL     OW56211  10.528   2.571   7.355 -0.0030 -0.1417 -0.2605
16964SOL    HW156212  10.584   2.568   7.277  0.1381  0.8765 -0.2070
16964SOL    HW256213  10.486   2.485   7.356  3.6257 -2.1557  1.2593
16965SOL     OW56214   3.568   2.930   9.134  0.2253 -0.0081 -0.0485
16965SOL    HW156215   3.585   2.844   9.095 -0.9570 -0.6721  0.8496
16965SOL    HW256216   3.652   2.975   9.128  0.4208 -0.5045 -2.2582
16966SOL     OW56217   5.162   9.179   5.207  0.2281  0.4021  0.1446
16966SOL    HW156218   5.149   9.141   5.294  1.3544 -1.3170 -0.3801
16966SOL    HW256219   5.255   9.198   5.202  0.1109  0.8498 -0.5588
16967SOL     OW56220   1.616   2.878  11.651  0.5863  0.3679 -0.7038
16967SOL    HW156221   1.568   2.800  11.625  1.6557 -1.1358  1.4623
16967SOL    HW256222   1.558   2.923  11.713  1.7032 -1.3188  1.7231
16968SOL     OW56223   5.694   8.262   0.510 -0.0141  0.5925 -0.0646
16968SOL    HW156224   5.655   8.175   0.519  0.6445  0.1778 -1.0959
16968SOL    HW256225   5.659   8.312   0.585 -0.5347 -0.4929  0.4332
16969SOL     OW56226   5.425   3.552   0.048 -0.0747  0.2409  0.2318
16969SOL    HW156227   5.433   3.647   0.037  1.4165  0.0743 -0.4141
16969SOL    HW256228   5.347   3.529  -0.002  1.2686  0.7843 -2.3176
16970SOL     OW56229   5.132   8.698   6.617 -0.5599  0.9017  0.1441
16970SOL    HW156230   5.043   8.718   6.590  0.0051  1.7350 -1.1832
16970SOL    HW256231   5.187   8.753   6.562  0.8509 -0.6190 -0.0564
16971SOL     OW56232   2.647   0.293   2.464 -0.0845  0.1722  0.2864
16971SOL    HW156233   2.649   0.306   2.369 -0.9540 -0.7458  0.1306
16971SOL    HW256234   2.734   0.320   2.493  0.5363 -0.4469 -0.8988
16972SOL     OW56235   7.347   9.393   8.546 -0.6775  0.1407 -0.1342
16972SOL    HW156236   7.273   9.415   8.603 -0.0802 -0.5009  0.9346
16972SOL    HW256237   7.318   9.415   8.458 -1.1697  2.3798  0.5343
16973SOL     OW56238   8.999   1.541   7.804  0.5129 -0.7345 -0.2962
16973SOL    HW156239   8.972   1.479   7.736  0.3753 -1.5758  0.5001
16973SOL    HW256240   9.081   1.577   7.771  0.5022 -1.2041 -0.8664
16974SOL     OW56241   3.008  10.822   8.110  0.0626  0.0566 -0.2607
16974SOL    HW156242   3.060  10.902   8.107 -0.1691  0.2476  0.5890
16974SOL    HW256243   3.006  10.791   8.019  0.9259  0.5096 -0.4413
16975SOL     OW56244   5.571   4.709   2.180 -0.6671 -0.0681 -0.1707
16975SOL    HW156245   5.494   4.766   2.180 -0.4724  0.1980 -0.3052
16975SOL    HW256246   5.621   4.736   2.257 -0.0251  0.7073 -0.8253
16976SOL     OW56247   9.888   8.729   0.902 -0.1296 -1.2044 -0.3468
16976SOL    HW156248   9.922   8.814   0.931  2.1523 -2.3737  0.7147
16976SOL    HW256249   9.946   8.703   0.831 -0.7166 -1.9620 -0.5585
16977SOL     OW56250   3.940   4.850   6.664  0.4545 -0.1636 -0.2596
16977SOL    HW156251   3.919   4.937   6.630  2.3346  1.0235  1.4285
16977SOL    HW256252   4.009   4.818   6.606 -1.3130 -1.3140 -1.8657
16978SOL     OW56253   6.547  11.231   9.251 -0.2573 -0.6832  0.0186
16978SOL    HW156254   6.578  11.220   9.341 -1.1162 -0.2288  0.3840
16978SOL    HW256255   6.623  11.266   9.204 -0.0404 -0.1050  0.7692
16979SOL     OW56256   8.696   8.083   1.977  0.0153  0.0273 -1.0745
16979SOL    HW156257   8.623   8.086   2.039  0.6470  1.3554 -0.3674
16979SOL    HW256258   8.708   7.989   1.959 -0.9461 -0.2988 -0.1111
16980SOL     OW56259   8.740   0.111   3.821 -0.0963 -0.1900 -0.0608
16980SOL    HW156260   8.682   0.182   3.793 -0.8349 -0.3564  0.9794
16980SOL    HW256261   8.805   0.153   3.877  0.6729 -0.0395 -1.0438
16981SOL     OW56262  10.254   3.925   7.060  0.1121  0.1242  0.1053
16981SOL    HW156263  10.329   3.889   7.106  1.0645  2.2263  0.3275
16981SOL    HW256264  10.284   3.938   6.971  0.0513  1.0076  0.2019
16982SOL     OW56265   5.101   0.602   2.447 -0.7032  0.4987 -0.5125
16982SOL    HW156266   5.104   0.621   2.353 -1.9178  1.6540 -0.3415
16982SOL    HW256267   5.076   0.510   2.453  1.6983 -0.2805 -1.3228
16983SOL     OW56268   3.197   9.413   5.940 -0.0020 -0.2942  0.5712
16983SOL    HW156269   3.179   9.325   5.909  0.5587  0.2304 -1.3694
16983SOL    HW256270   3.146   9.421   6.021 -1.6886 -1.6937 -0.2935
16984SOL     OW56271  10.544  10.450   3.959 -0.3105  0.3407 -0.2863
16984SOL    HW156272  10.628  10.462   3.915 -0.2028  0.1681 -0.1298
16984SOL    HW256273  10.542  10.517   4.026  1.0934 -1.5373  1.8031
16985SOL     OW56274   3.758   9.544  11.251 -0.2922 -0.0406 -0.5752
16985SOL    HW156275   3.798   9.618  11.207  1.9343 -0.5087  0.4804
16985SOL    HW256276   3.774   9.469  11.193 -0.1816 -0.1318 -0.4284
16986SOL     OW56277  10.974   8.816   0.663 -0.3308 -0.0278  0.0952
16986SOL    HW156278  10.900   8.868   0.694  1.4779  1.6007  2.0332
16986SOL    HW256279  11.006   8.770   0.741 -0.0153 -1.7009 -0.9543
16987SOL     OW56280   8.925   6.853   9.893 -0.1010  0.4556  0.0282
16987SOL    HW156281   8.937   6.900   9.976 -1.2034  1.4254 -0.3474
16987SOL    HW256282   8.991   6.890   9.835  0.9800 -0.5426  0.5731
16988SOL     OW56283   5.417   3.800   4.659 -0.1335 -0.4694 -0.1735
16988SOL    HW156284   5.420   3.739   4.586  0.4947 -2.6537  1.5857
16988SOL    HW256285   5.448   3.883   4.621 -0.3736 -1.3454 -2.4766
16989SOL     OW56286   7.405   3.667   5.889 -0.0314 -0.4718 -0.0975
16989SOL    HW156287   7.422   3.757   5.917  0.2065 -0.4229 -0.3984
16989SOL    HW256288   7.324   3.643   5.934 -0.5072  0.1543 -0.5925
16990SOL     OW56289   3.784   8.861   0.594 -0.1053 -0.3511  0.5401
16990SOL    HW156290   3.773   8.817   0.679  2.3840 -1.2893  0.4648
16990SOL    HW256291   3.822   8.794   0.537 -0.0864  0.7658 -0.8154
16991SOL     OW56292   8.589   2.656   8.047  0.4360 -0.5637  0.0873
16991SOL    HW156293   8.613   2.748   8.058 -1.7975  0.1153 -0.1864
16991SOL    HW256294   8.495   2.658   8.028  0.6178 -2.8138 -1.3799
16992SOL     OW56295  10.357   4.534  11.483 -0.2949  0.1782  0.0377
16992SOL    HW156296  10.426   4.591  11.449  0.4828 -0.5712  0.3374
16992SOL    HW256297  10.277   4.567  11.441  0.6265 -0.8339 -2.7725
16993SOL     OW56298   5.949   1.238   2.165 -0.3442 -0.8536 -0.3699
16993SOL    HW156299   6.028   1.191   2.137 -0.4026 -0.6386 -0.9044
16993SOL    HW256300   5.979   1.328   2.177 -0.8168 -0.4237 -2.0881
16994SOL     OW56301   3.349   2.782   1.799  0.4537  0.1125  0.1168
16994SOL    HW156302   3.413   2.786   1.870 -1.4976 -0.1761  1.9773
16994SOL    HW256303   3.366   2.698   1.756  0.2967 -0.7289  1.6354
16995SOL     OW56304   0.464   6.258   2.500  0.0863  0.3164 -0.1043
16995SOL    HW156305   0.537   6.227   2.445  0.0095  0.2199 -0.1520
16995SOL    HW256306   0.427   6.331   2.450  0.2665  0.4850  0.0072
16996SOL     OW56307   7.468   5.058   0.670 -0.1757  0.1215  0.0304
16996SOL    HW156308   7.490   5.131   0.727  0.5623  1.1631 -1.5165
16996SOL    HW256309   7.529   4.988   0.694  1.5204  1.2459 -0.7885
16997SOL     OW56310   4.867   0.319   7.988 -0.4763 -0.4910 -0.2115
16997SOL    HW156311   4.882   0.344   7.897  0.4385 -0.5217 -0.0820
16997SOL    HW256312   4.905   0.231   7.994 -0.2546 -0.3612  0.2741
16998SOL     OW56313   0.647   9.387   8.510  0.3492  0.1263 -0.0367
16998SOL    HW156314   0.579   9.331   8.547 -0.8256  0.5934 -1.4089
16998SOL    HW256315   0.687   9.431   8.585 -2.7250  1.9575  0.6642
16999SOL     OW56316   5.166   1.782   1.049  0.2155  0.1299 -0.1612
16999SOL    HW156317   5.183   1.692   1.023  0.6423 -0.4528  1.8995
16999SOL    HW256318   5.071   1.792   1.045  0.2283 -0.1138 -1.2378
17000SOL     OW56319   4.246   3.537   7.398 -1.4228  0.0980 -0.3705
17000SOL    HW156320   4.158   3.572   7.414 -1.0631 -0.0212  2.4317
17000SOL    HW256321   4.304   3.595   7.448 -0.2323 -1.3396 -0.0066
17001SOL     OW56322  10.202   9.066   6.127 -0.2227 -0.6220 -0.2271
17001SOL    HW156323  10.294   9.092   6.136 -0.0942 -1.0548 -0.2586
17001SOL    HW256324  10.206   8.973   6.105 -0.7036 -1.2520  2.0073
17002SOL     OW56325   0.865  11.428  11.466 -0.0464 -0.1191 -0.2959
17002SOL    HW156326   0.783  11.378  11.465 -1.1022  1.3917 -3.4195
17002SOL    HW256327   0.925  11.375  11.414  0.9153 -1.0199  1.6406
17003SOL     OW56328   2.110   2.698   5.825 -0.1773  0.2641 -0.3351
17003SOL    HW156329   2.065   2.616   5.806  0.1286 -0.1572  0.6644
17003SOL    HW256330   2.053   2.743   5.887  0.3971  0.0809  0.3331
17004SOL     OW56331   8.867   5.111   9.380 -0.0933 -0.2837 -0.6058
17004SOL    HW156332   8.955   5.118   9.418 -0.3012 -1.5202  0.1485
17004SOL    HW256333   8.808   5.125   9.454 -0.5129 -1.1477 -0.7623
17005SOL     OW56334   7.484   0.604   4.221  0.1490  0.1973  0.0695
17005SOL    HW156335   7.395   0.594   4.187 -0.1978  1.5301  0.5211
17005SOL    HW256336   7.541   0.577   4.149 -0.5918  1.5952 -1.0765
17006SOL     OW56337   5.750   1.006   3.098 -0.1467  0.3211  0.1244
17006SOL    HW156338   5.734   1.076   3.034 -1.7625 -0.3820 -0.2898
17006SOL    HW256339   5.721   0.927   3.054  1.6329 -0.6596  0.5953
17007SOL     OW56340   2.666  10.392   1.963  0.0471  0.2117  0.0514
17007SOL    HW156341   2.642  10.302   1.941 -0.8678  0.6559 -0.9059
17007SOL    HW256342   2.761  10.392   1.967  0.0524 -0.8032  0.1131
17008SOL     OW56343   6.657   1.774  10.186  0.1449  0.5468 -0.0082
17008SOL    HW156344   6.586   1.724  10.145  0.0103  0.3412  0.4774
17008SOL    HW256345   6.639   1.865  10.163 -1.6406  0.7984  2.1137
17009SOL     OW56346   1.103  10.583  11.471  0.2913  0.4905 -0.4050
17009SOL    HW156347   1.188  10.616  11.439 -0.0592  0.0900 -1.8140
17009SOL    HW256348   1.042  10.655  11.454  0.4692  1.1558  1.4765
17010SOL     OW56349   1.234  10.260   0.323  0.3872  0.3477  0.2778
17010SOL    HW156350   1.139  10.272   0.322  0.3399  0.1296  1.3874
17010SOL    HW256351   1.265  10.306   0.244 -0.6471  0.2780 -0.1786
17011SOL     OW56352   6.362   3.325   1.898 -0.2713 -0.6116  0.3799
17011SOL    HW156353   6.326   3.266   1.964 -1.1668 -0.3515  0.1450
17011SOL    HW256354   6.337   3.285   1.814 -0.2647 -0.2762  0.2156
17012SOL     OW56355  10.107  11.749   7.944 -0.0868 -0.5813 -0.4330
17012SOL    HW156356  10.152  11.729   8.026 -1.2526 -1.7127 -0.0230
17012SOL    HW256357  10.143  11.687   7.881 -0.8784 -1.3596 -0.1504
17013SOL     OW56358   6.674   4.624   7.427  0.1520  0.1142 -0.7951
17013SOL    HW156359   6.693   4.677   7.504 -1.0304 -1.2529  0.4909
17013SOL    HW256360   6.753   4.571   7.413  0.3740  0.3791 -0.5354
17014SOL     OW56361   7.927   4.775   9.751  0.0180  0.4323 -0.2611
17014SOL    HW156362   7.967   4.843   9.698 -0.3631  0.0211 -1.1084
17014SOL    HW256363   7.902   4.707   9.688 -1.4790  0.4233  0.2840
17015SOL     OW56364   6.602   6.137   3.360 -0.0360  0.3135  0.0986
17015SOL    HW156365   6.534   6.074   3.382 -0.5494  1.1719  1.0774
17015SOL    HW256366   6.648   6.098   3.286 -0.6334 -0.9730  0.3811
17016SOL     OW56367   6.369   6.773   1.298  0.0247 -0.2835 -0.8364
17016SOL    HW156368   6.356   6.686   1.260 -0.9779  0.0809 -1.3600
17016SOL    HW256369   6.415   6.756   1.380 -1.2518 -1.4152 -0.3237
17017SOL     OW56370   7.334   9.535   1.926 -0.3743 -0.5211  0.1365
17017SOL    HW156371   7.417   9.501   1.958  0.0031 -0.4533 -0.7318
17017SOL    HW256372   7.358   9.612   1.875 -1.0636  0.0494  0.6567
17018SOL     OW56373   7.672   7.015   4.847 -0.3476  0.0643  0.5338
17018SOL    HW156374   7.745   7.012   4.785 -0.9306  0.1128 -0.1661
17018SOL    HW256375   7.683   7.099   4.892 -0.8080  0.7728 -0.6272
17019SOL     OW56376   9.470   8.572   8.346 -0.2572  0.2829 -0.6596
17019SOL    HW156377   9.412   8.644   8.323 -1.0910 -0.0136  0.4080
17019SOL    HW256378   9.550   8.614   8.376 -1.1921  0.8493  1.1820
17020SOL     OW56379   7.130   0.137   0.109  0.4698 -0.1300 -0.2811
17020SOL    HW156380   7.058   0.199   0.108  2.3038  2.2720  1.8164
17020SOL    HW256381   7.122   0.091   0.193 -0.5124 -2.3817 -1.5438
17021SOL     OW56382   3.797   4.704   9.229  0.2417  0.0652 -0.1756
17021SOL    HW156383   3.726   4.642   9.248  0.8892 -1.1457 -1.4811
17021SOL    HW256384   3.753   4.781   9.193 -0.4755 -0.3264 -0.1563
17022SOL     OW56385  10.824   9.617  11.119  0.2668 -0.6598 -0.1643
17022SOL    HW156386  10.824   9.679  11.191  1.2399 -1.1828  0.2978
17022SOL    HW256387  10.855   9.535  11.157 -0.8498 -1.4137 -0.7882
17023SOL     OW56388   8.010   9.954   7.215  0.3426  0.8088  0.1635
17023SOL    HW156389   8.087   9.957   7.271 -0.8571  2.6072  1.8539
17023SOL    HW256390   7.986  10.046   7.201  0.9191  0.5379 -3.9393
17024SOL     OW56391  11.669   2.900   9.749 -0.5365  0.7222 -0.2864
17024SOL    HW156392  11.693   2.820   9.704 -2.4414 -0.3668  0.4828
17024SOL    HW256393  11.737   2.963   9.726  1.6922 -1.4269  0.0420
17025SOL     OW56394  11.802  11.413   9.146  0.1223 -0.2546 -0.8452
17025SOL    HW156395  11.895  11.422   9.126 -0.0392 -0.5696 -1.7780
17025SOL    HW256396  11.783  11.321   9.132 -0.8335  0.2026 -3.0073
17026SOL     OW56397   8.615   4.535   2.910  0.6232 -0.2382  0.2913
17026SOL    HW156398   8.661   4.585   2.842  1.7174  0.4115  1.4601
17026SOL    HW256399   8.529   4.517   2.872  1.5006 -0.6963 -1.6169
17027SOL     OW56400   8.249   3.380   7.048 -0.5846  0.4849  0.4015
17027SOL    HW156401   8.311   3.449   7.023 -0.3166  0.3095  0.5814
17027SOL    HW256402   8.203   3.358   6.966  0.3635 -0.1560  0.0225
17028SOL     OW56403   6.193   2.757   0.276  0.5940  0.1254  0.2869
17028SOL    HW156404   6.245   2.681   0.303  0.8693  0.1396 -0.1989
17028SOL    HW256405   6.220   2.827   0.335  1.9762  0.4505 -0.6684
17029SOL     OW56406   8.489   6.333   7.479  0.1792 -0.0197  0.1302
17029SOL    HW156407   8.535   6.280   7.543 -1.8449 -2.2097 -0.0843
17029SOL    HW256408   8.440   6.397   7.531  1.3290  0.5785  0.5002
17030SOL     OW56409  11.588   4.699   7.610 -0.1919 -0.8744 -0.4458
17030SOL    HW156410  11.543   4.783   7.600 -1.7224 -1.4739  0.9928
17030SOL    HW256411  11.681   4.723   7.610 -0.5782  0.7755 -0.4351
17031SOL     OW56412   4.488   2.357  10.319 -0.1467 -0.3571 -0.4250
17031SOL    HW156413   4.431   2.391  10.388 -0.0010  0.7142 -0.8144
17031SOL    HW256414   4.528   2.279  10.357  0.1635  0.3775  0.8220
17032SOL     OW56415  10.940   1.056   8.548  0.2111 -0.3614 -0.6738
17032SOL    HW156416  10.865   0.996   8.551 -1.2082  1.3850  1.1011
17032SOL    HW256417  10.902   1.143   8.557  2.4757  0.5832  0.4634
17033SOL     OW56418   5.766   3.569   6.325  0.1750 -0.1509 -0.1825
17033SOL    HW156419   5.856   3.585   6.351  0.0191  1.1090 -0.3269
17033SOL    HW256420   5.740   3.491   6.374  1.5271 -0.9302 -0.6378
17034SOL     OW56421   7.646   3.733   2.975 -0.2836  0.6018 -0.5567
17034SOL    HW156422   7.655   3.649   2.930 -0.0629 -0.0030  0.5764
17034SOL    HW256423   7.644   3.710   3.068  1.7077  2.0014 -0.1133
17035SOL     OW56424   2.334   9.631   1.581  0.4342 -1.2183 -0.2142
17035SOL    HW156425   2.410   9.601   1.532 -0.6842 -1.7769 -1.6727
17035SOL    HW256426   2.300   9.552   1.623  0.9624 -0.8711  0.9068
17036SOL     OW56427   8.780  11.821   6.395  0.1001 -0.3761  0.4190
17036SOL    HW156428   8.836  11.751   6.362  1.1471  0.7495 -0.2635
17036SOL    HW256429   8.696  11.808   6.351 -0.3729 -2.3129  1.7395
17037SOL     OW56430  11.702  11.423   6.501  0.3554 -0.1696 -0.4165
17037SOL    HW156431  11.654  11.391   6.577 -1.3156 -0.2065 -1.4500
17037SOL    HW256432  11.667  11.374   6.427  0.0185  1.7473 -1.5912
17038SOL     OW56433  11.709  10.180   3.521  0.1018 -0.0132  0.2944
17038SOL    HW156434  11.693  10.269   3.550  0.3642  0.3625 -0.6662
17038SOL    HW256435  11.710  10.186   3.425  0.0762 -1.0502  0.2193
17039SOL     OW56436   3.046   3.479   4.042 -0.0839 -0.1464  0.2638
17039SOL    HW156437   3.026   3.520   4.126  2.3897  1.6135  0.1316
17039SOL    HW256438   3.008   3.537   3.976 -0.6721 -0.6786  0.1237
17040SOL     OW56439   0.676   4.041   8.518  0.3968 -0.1258  0.1493
17040SOL    HW156440   0.653   3.949   8.531  1.2912 -0.3373  0.2768
17040SOL    HW256441   0.746   4.039   8.453  1.0174  0.4019  0.7872
17041SOL     OW56442   0.955   0.997  10.169 -0.3458  0.8232  0.1843
17041SOL    HW156443   1.018   1.055  10.211  0.5807  0.2351 -0.3597
17041SOL    HW256444   1.002   0.961  10.093 -1.0894 -0.1910  0.1794
17042SOL     OW56445   7.445   3.710   3.882  0.3713 -0.1159  0.8549
17042SOL    HW156446   7.377   3.750   3.828  1.7472  2.8288  1.1070
17042SOL    HW256447   7.466   3.628   3.837  0.7544  1.6900 -2.6115
17043SOL     OW56448   6.229   2.113   6.437  0.1408 -0.7819 -0.0868
17043SOL    HW156449   6.260   2.100   6.527 -1.5362 -2.0649  0.3679
17043SOL    HW256450   6.287   2.179   6.401  0.8129 -0.1641  1.9702
17044SOL     OW56451   9.740  11.795   7.308  0.0607 -0.2201  0.3585
17044SOL    HW156452   9.760  11.837   7.224  0.6984 -1.0321  0.0908
17044SOL    HW256453   9.730  11.868   7.369 -2.5507  0.5283 -0.8154
17045SOL     OW56454   1.507   6.024   3.390 -0.3518  0.3051  0.6498
17045SOL    HW156455   1.542   5.954   3.444  0.7596  0.8570  0.6827
17045SOL    HW256456   1.528   5.998   3.300 -1.0370  0.0142  0.5673
17046SOL     OW56457   9.212  10.431  10.041  0.4420  0.0557 -0.1640
17046SOL    HW156458   9.174  10.368   9.979 -0.1050  1.1916 -1.0096
17046SOL    HW256459   9.151  10.433  10.114 -0.5686  1.0184 -1.0048
17047SOL     OW56460   6.574   9.744  10.057 -0.2048  0.0105  0.4428
17047SOL    HW156461   6.595   9.832  10.025  1.0876 -0.3266  0.3011
17047SOL    HW256462   6.479   9.743  10.066 -0.2941  1.1790 -0.2619
17048SOL     OW56463   0.239   9.704   0.343  0.7830  0.4666  0.1627
17048SOL    HW156464   0.280   9.789   0.355  0.2508  0.4547  2.6332
17048SOL    HW256465   0.146   9.719   0.359  0.7841 -0.6624  1.5192
17049SOL     OW56466   3.744  10.753  11.774 -0.3515  0.0021  0.3854
17049SOL    HW156467   3.671  10.736  11.834 -2.5139  0.1180 -2.0437
17049SOL    HW256468   3.753  10.848  11.774 -0.1694 -0.0153  0.7335
17050SOL     OW56469  11.588   4.277   7.963 -0.2940  0.4412  0.0230
17050SOL    HW156470  11.549   4.361   7.941  1.2520  0.6113 -2.5797
17050SOL    HW256471  11.615   4.241   7.878 -1.6070 -3.0716  0.9475
17051SOL     OW56472   9.495   2.216   5.316  0.0834  0.1506 -0.3034
17051SOL    HW156473   9.556   2.270   5.266  0.2770  0.9617  0.7603
17051SOL    HW256474   9.422   2.199   5.256  1.5914 -1.3812 -1.8165
17052SOL     OW56475   7.811   8.342  11.364 -0.4573  0.3903 -0.4959
17052SOL    HW156476   7.808   8.436  11.383 -0.7854  0.5454 -1.2466
17052SOL    HW256477   7.900   8.315  11.386 -0.9702  0.3827  1.8693
17053SOL     OW56478   8.325  11.713   3.579  0.2724 -0.5883 -0.0944
17053SOL    HW156479   8.264  11.641   3.591 -0.2527 -0.1112  0.1356
17053SOL    HW256480   8.270  11.791   3.580  0.2934 -0.3220 -4.0085
17054SOL     OW56481   9.165  11.305   0.057 -0.8519 -0.1366 -0.3961
17054SOL    HW156482   9.124  11.391   0.072  2.5636  2.0685 -2.4589
17054SOL    HW256483   9.243  11.305   0.112 -0.6843 -1.8808 -0.5753
17055SOL     OW56484   1.219   5.990   3.434 -0.3596 -0.5016 -0.0883
17055SOL    HW156485   1.307   6.025   3.422  0.3494 -1.9649  0.6292
17055SOL    HW256486   1.161   6.066   3.421  1.0932  0.9327  1.2850
17056SOL     OW56487   5.174   6.720   9.497 -0.1897 -0.7922  0.6528
17056SOL    HW156488   5.084   6.722   9.464  0.5090 -0.8166 -1.4169
17056SOL    HW256489   5.185   6.803   9.543 -1.3741 -0.9518  1.2536
17057SOL     OW56490   6.783   7.565   7.057  0.6875 -0.3682 -0.2164
17057SOL    HW156491   6.815   7.632   6.998  0.1384 -0.2948 -0.4342
17057SOL    HW256492   6.690   7.557   7.037  0.4864 -0.3323  0.6466
17058SOL     OW56493   2.879   5.340   5.076  0.1297  0.2982  0.0284
17058SOL    HW156494   2.894   5.247   5.062 -0.0906  0.0294  1.4538
17058SOL    HW256495   2.856   5.347   5.169 -0.8120  1.6455 -0.2752
17059SOL     OW56496   9.709  11.377  10.110  0.6174 -0.0518 -0.4465
17059SOL    HW156497   9.697  11.336  10.195 -0.1241  3.0609  1.0996
17059SOL    HW256498   9.620  11.399  10.082  0.9378 -0.1094 -1.5573
17060SOL     OW56499   2.177   9.151   4.175 -0.0925  0.8254 -0.5190
17060SOL    HW156500   2.125   9.201   4.238 -0.6664 -1.7138  1.2014
17060SOL    HW256501   2.254   9.123   4.226 -0.5508 -1.2700 -0.8961
17061SOL     OW56502   5.685   0.226   6.010  0.1730  0.0682  0.0255
17061SOL    HW156503   5.730   0.182   5.938  1.1809 -0.7083  1.0959
17061SOL    HW256504   5.682   0.318   5.983  1.2628 -0.0755 -0.6576
17062SOL     OW56505   6.229   8.492  11.499  0.0021 -0.1867  0.2732
17062SOL    HW156506   6.185   8.486  11.414 -0.2381 -0.3187  0.4069
17062SOL    HW256507   6.315   8.530  11.479 -1.0546  2.3986  0.2947
17063SOL     OW56508  10.548   5.902   4.958  0.0789 -0.5078 -0.0303
17063SOL    HW156509  10.570   5.809   4.957  0.4502 -0.4355  0.4548
17063SOL    HW256510  10.626   5.944   4.995 -0.5858 -0.1503  1.0173
17064SOL     OW56511  10.560   0.111   4.363 -0.1552  0.4858  0.5014
17064SOL    HW156512  10.468   0.135   4.356 -0.0948  1.0866  1.5601
17064SOL    HW256513  10.603   0.163   4.294 -0.4986  0.8273  0.5408
17065SOL     OW56514   0.601   6.143   0.684  0.7025 -0.1164  0.5604
17065SOL    HW156515   0.556   6.224   0.710  1.7878 -0.1226  2.6469
17065SOL    HW256516   0.646   6.167   0.603  0.7084  1.2748  0.9380
17066SOL     OW56517   3.425   1.607   2.882  0.9789 -0.6432  0.4683
17066SOL    HW156518   3.353   1.651   2.837  2.0380  1.5865  0.8346
17066SOL    HW256519   3.392   1.593   2.971  1.0679  0.7008  0.7413
17067SOL     OW56520   6.789   3.888   5.756  0.1426  0.6244  0.4709
17067SOL    HW156521   6.874   3.852   5.729  0.5648  2.1509 -0.3169
17067SOL    HW256522   6.731   3.869   5.682 -0.6798 -1.7778  1.6066
17068SOL     OW56523   7.436   8.486   5.288 -0.2424 -0.4598  0.3361
17068SOL    HW156524   7.358   8.531   5.255 -0.0002 -0.1081  0.2394
17068SOL    HW256525   7.508   8.523   5.237  0.1215 -0.0071  1.1640
17069SOL     OW56526   3.031   0.318   9.815  0.3433 -0.1710  0.0989
17069SOL    HW156527   3.031   0.231   9.775 -1.0033 -0.1774  0.0565
17069SOL    HW256528   3.052   0.377   9.744  0.2736 -0.3850 -0.1020
17070SOL     OW56529   9.267   4.389   5.481  0.0302 -0.7197  0.2405
17070SOL    HW156530   9.240   4.471   5.524  1.1724 -0.1264 -0.1469
17070SOL    HW256531   9.339   4.356   5.535  0.3832 -0.8362 -0.2989
17071SOL     OW56532   6.687  10.875   8.580  0.1264 -0.2768 -0.5826
17071SOL    HW156533   6.643  10.919   8.508 -1.0462 -0.8411 -0.2384
17071SOL    HW256534   6.681  10.782   8.559 -1.2895 -0.5390  0.7697
17072SOL     OW56535   3.162   6.526   7.340 -0.1686  0.0417 -0.4004
17072SOL    HW156536   3.124   6.476   7.267  0.4960 -0.4778 -0.3988
17072SOL    HW256537   3.087   6.547   7.396 -0.6339  0.1303 -1.0452
17073SOL     OW56538   0.573   1.940   2.438 -0.1256  0.2386  0.0952
17073SOL    HW156539   0.651   1.887   2.450 -0.1247  0.4202  0.9198
17073SOL    HW256540   0.521   1.893   2.372  0.0618 -0.5623  0.5182
17074SOL     OW56541   5.493   6.895   0.111  0.2716  0.2556 -0.0975
17074SOL    HW156542   5.420   6.839   0.137  1.6190 -1.4118  0.2357
17074SOL    HW256543   5.548   6.839   0.056  2.2615  0.8684  1.1971
17075SOL     OW56544   6.292   7.899  10.111 -0.0107 -0.9883 -0.0045
17075SOL    HW156545   6.205   7.929  10.083 -0.0731 -1.2377 -0.0844
17075SOL    HW256546   6.331   7.862  10.032  0.1716 -0.8685  0.0296
17076SOL     OW56547   7.808   9.019   5.256 -0.6079  0.2283 -0.0042
17076SOL    HW156548   7.719   8.987   5.245 -0.6578  0.6432 -0.9703
17076SOL    HW256549   7.805   9.077   5.331 -1.4654  1.2966 -0.8310
17077SOL     OW56550  10.141   2.278  10.175  0.0551  0.1662  0.3189
17077SOL    HW156551  10.097   2.264  10.091  1.4002  2.4191 -0.8426
17077SOL    HW256552  10.203   2.205  10.181 -2.3083 -1.9519  1.0782
17078SOL     OW56553   4.511   6.034   1.179 -0.1441 -0.2792 -0.3072
17078SOL    HW156554   4.539   6.090   1.107  1.2508  0.2028  0.5621
17078SOL    HW256555   4.472   6.094   1.243  0.6494 -0.3843  0.2891
17079SOL     OW56556  11.014   2.177   9.124 -0.8301 -0.2336  0.0454
17079SOL    HW156557  10.978   2.247   9.178 -0.7818 -0.5604  0.5140
17079SOL    HW256558  11.103   2.205   9.105 -0.8927 -0.0509  0.0226
17080SOL     OW56559   5.877   0.184   9.542 -0.0448  0.8670  0.4777
17080SOL    HW156560   5.869   0.155   9.451  2.6197  0.1564  0.3733
17080SOL    HW256561   5.894   0.104   9.591 -1.1756  1.2825  1.5938
17081SOL     OW56562   7.368   3.811   3.024 -0.6614  0.3312  0.0339
17081SOL    HW156563   7.310   3.874   2.982  0.7932  1.8597  0.1847
17081SOL    HW256564   7.454   3.829   2.986  0.7297  1.7249  3.3897
17082SOL     OW56565   9.348   5.807   1.997 -0.0515  0.0063 -0.1019
17082SOL    HW156566   9.331   5.902   1.992  1.9184  0.4992  1.4413
17082SOL    HW256567   9.271   5.772   2.042 -0.3433  1.0297  0.2351
17083SOL     OW56568   0.304   3.549   6.865  0.2072  0.7347  0.5350
17083SOL    HW156569   0.393   3.547   6.831  0.4235 -2.7729  0.9266
17083SOL    HW256570   0.249   3.554   6.786  0.7597 -0.0889  0.0772
17084SOL     OW56571   4.268   6.235   6.428 -0.6060 -0.0498  0.4429
17084SOL    HW156572   4.326   6.254   6.501 -1.0461  0.2408  0.7202
17084SOL    HW256573   4.219   6.316   6.414 -0.9791 -0.3055  0.2407
17085SOL     OW56574   4.204   7.490  11.417 -0.2063  0.1189 -0.0835
17085SOL    HW156575   4.284   7.542  11.417 -0.0964 -0.0224  0.8927
17085SOL    HW256576   4.134   7.553  11.400 -0.1494  0.7643  1.7918
17086SOL     OW56577   2.506   5.675   1.457  0.5963 -0.6162 -0.9405
17086SOL    HW156578   2.412   5.679   1.440  0.7235  0.6092 -1.3934
17086SOL    HW256579   2.512   5.673   1.553  0.1632  1.9281 -0.8070
17087SOL     OW56580   9.496   0.792   9.839 -0.3120  0.6986  0.8393
17087SOL    HW156581   9.455   0.738   9.907 -2.0328  1.2837  0.3244
17087SOL    HW256582   9.589   0.788   9.858 -0.6005 -0.6339  2.1387
17088SOL     OW56583   1.832   0.799   1.271 -0.2729  0.6199 -0.1253
17088SOL    HW156584   1.755   0.829   1.222 -1.0372 -2.3187 -0.9269
17088SOL    HW256585   1.902   0.795   1.206 -0.6822 -1.0371 -0.5114
17089SOL     OW56586   8.673   9.434   6.331 -0.0934  0.5814  0.4088
17089SOL    HW156587   8.713   9.477   6.407 -2.3037 -1.4001  2.8783
17089SOL    HW256588   8.613   9.499   6.296  0.4831  1.3092  0.7240
17090SOL     OW56589   0.626   2.918   7.182  0.4583  0.1134  0.0190
17090SOL    HW156590   0.696   2.904   7.246  0.8440 -3.1550 -0.9563
17090SOL    HW256591   0.655   2.993   7.130  2.6114 -0.3600  0.4739
17091SOL     OW56592   1.793   9.011  10.420  1.0382 -0.2975 -0.1776
17091SOL    HW156593   1.851   8.952  10.372  1.0203 -0.0684 -0.4802
17091SOL    HW256594   1.846   9.089  10.436  0.3048  0.6339 -1.9763
17092SOL     OW56595   5.853   1.796   7.026  0.1477  0.0483 -0.1720
17092SOL    HW156596   5.818   1.885   7.035 -0.3935 -0.0857 -0.8491
17092SOL    HW256597   5.935   1.797   7.075  0.8899  1.3305 -1.3867
17093SOL     OW56598   8.155   5.406  10.053 -0.2539  0.1965  0.0663
17093SOL    HW156599   8.095   5.338  10.023 -0.1481 -0.0902  0.4804
17093SOL    HW256600   8.100   5.469  10.099 -0.1106 -0.6987  1.5368
17094SOL     OW56601   7.804  11.820   2.882  0.0429  0.4390 -0.3070
17094SOL    HW156602   7.870  11.879   2.848  1.7381 -1.0285  0.2798
17094SOL    HW256603   7.853  11.748   2.921 -1.8149 -2.6482 -3.0964
17095SOL     OW56604   2.622   4.553   7.137  0.7010  0.1933  0.3002
17095SOL    HW156605   2.668   4.530   7.056 -1.9362 -1.6703 -0.8229
17095SOL    HW256606   2.533   4.576   7.108 -0.6272 -1.5099  2.6936
17096SOL     OW56607   9.003   7.014  11.060 -0.1298  0.1495  0.1495
17096SOL    HW156608   9.077   6.954  11.071 -0.4479 -0.0428  1.5068
17096SOL    HW256609   8.935   6.962  11.017  0.1140 -0.0340 -0.0091
17097SOL     OW56610   4.062   7.721  11.361  0.1408 -0.2917 -0.1399
17097SOL    HW156611   4.123   7.792  11.378  0.4448 -0.6658  0.3493
17097SOL    HW256612   3.978   7.754  11.392  0.5141 -0.6138  1.2481
17098SOL     OW56613   2.812   6.118   4.972  0.0544 -0.0914 -0.1310
17098SOL    HW156614   2.744   6.154   4.915  0.1522  1.0797  0.4578
17098SOL    HW256615   2.764   6.065   5.035  0.0622 -2.7780 -2.1926
17099SOL     OW56616   4.154  10.586  10.349  0.0221  0.0909  0.5197
17099SOL    HW156617   4.153  10.682  10.350 -1.1191  0.0895  0.5091
17099SOL    HW256618   4.091  10.562  10.282  0.8641 -0.6762 -0.0137
17100SOL     OW56619   6.458  10.048   0.602  0.0740  0.6632  0.0320
17100SOL    HW156620   6.506  10.117   0.649  0.4492 -0.5591  1.5370
17100SOL    HW256621   6.489  10.055   0.512  2.0600  0.8461  0.6651
17101SOL     OW56622   1.970   9.588  11.310  0.4550 -0.4707  0.1422
17101SOL    HW156623   2.042   9.588  11.373  3.0224  0.2232 -2.5291
17101SOL    HW256624   1.903   9.643  11.350  2.2677  0.5894  1.9127
17102SOL     OW56625   5.682   9.312   4.007 -0.0524  0.6575 -0.0844
17102SOL    HW156626   5.687   9.218   3.990 -1.4299  0.6146 -0.4196
17102SOL    HW256627   5.647   9.319   4.096  1.4675  0.8717  0.5162
17103SOL     OW56628   7.906  11.682  10.927  0.0595 -0.2886 -0.2102
17103SOL    HW156629   7.811  11.681  10.936  0.1503 -0.7576  0.9769
17103SOL    HW256630   7.931  11.773  10.944  0.0699 -0.8108  3.3866
17104SOL     OW56631   9.115   3.706   6.243 -0.1349  0.2775 -0.0619
17104SOL    HW156632   9.174   3.646   6.287  1.5795 -0.1498 -2.7147
17104SOL    HW256633   9.121   3.788   6.294  0.5875 -0.5750  1.2757
17105SOL     OW56634   6.882  11.398   6.556  0.0298  0.4643 -0.3269
17105SOL    HW156635   6.945  11.375   6.488  0.0209 -0.2198 -0.1085
17105SOL    HW256636   6.799  11.406   6.510 -0.2549 -1.4096 -0.2011
17106SOL     OW56637   8.454  11.090   9.524  0.4546  0.4547 -0.5459
17106SOL    HW156638   8.478  11.148   9.596  0.4203  0.4991 -0.5704
17106SOL    HW256639   8.362  11.067   9.540 -0.9734  3.7793 -2.7206
17107SOL     OW56640  11.294   9.190   5.552 -0.7449 -0.5075 -0.5546
17107SOL    HW156641  11.271   9.262   5.611 -0.0884 -0.4797 -0.3216
17107SOL    HW256642  11.232   9.120   5.574 -0.8107 -0.3253 -0.1608
17108SOL     OW56643   0.247   6.129  10.680  0.4472  0.0140  0.3596
17108SOL    HW156644   0.255   6.041  10.645  0.3332 -1.1129  2.9667
17108SOL    HW256645   0.301   6.183  10.622  0.2444 -1.6627 -1.4879
17109SOL     OW56646   2.159   7.445   6.754  0.2272 -0.0217 -0.1159
17109SOL    HW156647   2.205   7.507   6.812 -0.4953 -0.6885  1.2083
17109SOL    HW256648   2.229   7.398   6.709  0.8133  0.2302  0.5170
17110SOL     OW56649  10.324   6.673   4.550  0.0340  0.2875  0.1265
17110SOL    HW156650  10.340   6.603   4.487  2.8240  0.7246  0.2395
17110SOL    HW256651  10.316   6.752   4.497  0.6835  0.4079  0.1990
17111SOL     OW56652   0.237   8.123   9.145 -0.7126  0.0340  0.6233
17111SOL    HW156653   0.150   8.160   9.158 -0.5960  0.1622  1.0943
17111SOL    HW256654   0.294   8.200   9.136 -0.7932 -0.0569 -0.7505
17112SOL     OW56655   1.601   6.093  10.980 -0.4626 -0.2037 -0.0931
17112SOL    HW156656   1.551   6.118  10.902  1.6841  0.8836 -1.1846
17112SOL    HW256657   1.616   6.175  11.026  1.3740 -0.3069 -0.4618
17113SOL     OW56658   3.499   7.518  10.705 -0.0554  0.1279 -0.1026
17113SOL    HW156659   3.575   7.474  10.743 -0.2527  0.7833  1.0820
17113SOL    HW256660   3.470   7.459  10.636  1.5250 -0.1355 -0.5903
17114SOL     OW56661   7.373   2.385   0.787  0.0584 -0.4270  0.0338
17114SOL    HW156662   7.326   2.303   0.771  0.9775 -1.5348  2.5147
17114SOL    HW256663   7.391   2.385   0.881 -0.2978  2.8943  0.2250
17115SOL     OW56664   7.080   2.051   1.487 -0.0295 -0.0549 -0.6555
17115SOL    HW156665   6.991   2.075   1.462 -0.5359 -0.4890  0.6507
17115SOL    HW256666   7.132   2.129   1.471 -0.9664  0.7532  0.1351
17116SOL     OW56667   7.211   4.436   7.569  0.1911  0.1467  0.2831
17116SOL    HW156668   7.298   4.474   7.576  0.7188 -0.9307 -0.2238
17116SOL    HW256669   7.226   4.343   7.553 -1.0571 -0.2154  1.0641
17117SOL     OW56670   8.002   1.104   3.599  0.0052 -0.5795 -0.0482
17117SOL    HW156671   7.941   1.134   3.531  0.3341 -2.3334 -1.1826
17117SOL    HW256672   7.945   1.068   3.667 -0.2715 -0.5396 -0.2551
17118SOL     OW56673  10.408   5.602  11.666 -0.3531 -0.0815  0.2197
17118SOL    HW156674  10.401   5.696  11.677  0.3136 -0.1652  1.7224
17118SOL    HW256675  10.322   5.568  11.691 -0.3698  0.0870  0.3939
17119SOL     OW56676   3.637   9.479   0.960 -0.1760 -0.3123 -0.0671
17119SOL    HW156677   3.714   9.474   0.903  0.1350  1.0864  0.1931
17119SOL    HW256678   3.664   9.538   1.030 -2.3442  2.4966 -1.4135
17120SOL     OW56679  10.008   1.871   9.258 -0.3573  0.0660  0.2981
17120SOL    HW156680  10.095   1.894   9.225 -1.2529  3.6321 -0.0602
17120SOL    HW256681  10.022   1.844   9.348  1.1304  0.5456  0.2340
17121SOL     OW56682   6.882   0.510  11.608  0.3087  0.3379  0.1099
17121SOL    HW156683   6.794   0.535  11.639 -0.3907 -1.1482 -0.5922
17121SOL    HW256684   6.867   0.435  11.551  1.8079  1.5002 -1.9490
17122SOL     OW56685   4.931   6.272   4.825 -0.1304  0.3762 -0.1444
17122SOL    HW156686   4.929   6.182   4.794  0.4224 -0.2157  1.4029
17122SOL    HW256687   4.943   6.325   4.747 -1.3646 -0.8261 -1.1773
17123SOL     OW56688   9.507   5.667   6.094  0.1497  0.1765  0.5124
17123SOL    HW156689   9.544   5.750   6.123 -1.6871  0.8950  0.9848
17123SOL    HW256690   9.414   5.674   6.115 -0.2280 -1.6173 -0.3436
17124SOL     OW56691   3.069   2.063   8.748  0.3914  0.2781 -0.5444
17124SOL    HW156692   2.984   2.083   8.709 -0.6215  0.4207  1.5458
17124SOL    HW256693   3.101   1.986   8.701 -0.6369  0.5364 -1.7116
17125SOL     OW56694   7.625   6.275   6.808 -0.5141  0.3402  0.2496
17125SOL    HW156695   7.669   6.320   6.736 -0.9937 -0.9840 -0.8999
17125SOL    HW256696   7.669   6.190   6.814 -1.6554 -0.2509  0.3479
17126SOL     OW56697   9.947   6.856   5.974  0.1680  0.6357  0.0947
17126SOL    HW156698   9.985   6.771   5.953 -0.0773  0.4872  0.2479
17126SOL    HW256699   9.956   6.864   6.069  0.3188  0.8449  0.0658
17127SOL     OW56700  11.701   3.753   6.597 -0.1791 -0.3065  0.6585
17127SOL    HW156701  11.787   3.712   6.600  0.1202  0.2875  0.3769
17127SOL    HW256702  11.709   3.822   6.530 -2.2495 -3.3409 -3.1639
17128SOL     OW56703   2.958   7.485   9.031  0.3164  0.0056 -0.3110
17128SOL    HW156704   3.041   7.519   9.064 -0.1820  0.5653  0.3990
17128SOL    HW256705   2.976   7.393   9.011  1.4969  0.4706 -1.5697
17129SOL     OW56706  11.494  11.305   2.923  0.0037 -0.0947  0.1052
17129SOL    HW156707  11.429  11.343   2.864  0.0732  0.1798  0.2054
17129SOL    HW256708  11.448  11.233   2.966 -0.3377  0.3209  0.4354
17130SOL     OW56709   4.837  10.559   8.481  0.1092  0.1302  0.1643
17130SOL    HW156710   4.821  10.639   8.531  0.7382  1.3178 -1.4669
17130SOL    HW256711   4.752  10.514   8.480 -0.3066  0.8669  0.9349
17131SOL     OW56712   5.771   7.058   4.937 -0.2834 -0.5669 -0.6799
17131SOL    HW156713   5.789   6.971   4.902  1.0037 -0.7736  0.4031
17131SOL    HW256714   5.721   7.043   5.018  1.1774 -0.4369  0.2977
17132SOL     OW56715   2.635   7.047   3.283 -0.5314 -0.7428  0.0857
17132SOL    HW156716   2.697   6.994   3.233 -1.1519 -0.1615 -1.3598
17132SOL    HW256717   2.572   6.983   3.317 -0.9511 -1.0220 -1.1570
17133SOL     OW56718   2.194   5.476   8.541 -0.5122 -0.1656 -0.4001
17133SOL    HW156719   2.190   5.392   8.495 -0.2258 -1.3850  1.6769
17133SOL    HW256720   2.222   5.539   8.475 -2.3867 -1.3533 -2.4458
17134SOL     OW56721  11.114   9.226  11.199 -0.4577  0.2095  0.2869
17134SOL    HW156722  11.153   9.152  11.152  2.8185  0.3282  2.4790
17134SOL    HW256723  11.059   9.185  11.266  2.2746 -0.5252  2.2855
17135SOL     OW56724   9.016   9.078   7.370 -0.0630 -0.7370  0.0261
17135SOL    HW156725   9.080   9.092   7.300  1.4910 -0.7502  1.3854
17135SOL    HW256726   9.020   9.159   7.421  0.3459 -1.5042  1.2444
17136SOL     OW56727   3.256   4.434   2.504  0.5269 -0.2315 -0.3388
17136SOL    HW156728   3.293   4.354   2.467 -0.1572 -0.2466 -1.0159
17136SOL    HW256729   3.307   4.449   2.583  0.5225 -1.4611 -0.0795
17137SOL     OW56730   2.943  11.668   9.577  0.6436  0.1537 -0.5947
17137SOL    HW156731   2.858  11.626   9.562 -0.2044  0.7371  1.9747
17137SOL    HW256732   3.006  11.596   9.573 -0.3724 -0.8417  0.4103
17138SOL     OW56733   2.731   5.913  10.769 -0.2293 -0.0786  0.2788
17138SOL    HW156734   2.709   5.991  10.820 -2.4889  0.8326 -1.8753
17138SOL    HW256735   2.656   5.901  10.711  2.3152 -0.7555 -3.1415
17139SOL     OW56736   2.267   9.335  11.565 -0.0372 -0.2934 -0.0081
17139SOL    HW156737   2.361   9.353  11.572  0.0755 -1.0724  0.5640
17139SOL    HW256738   2.242   9.300  11.650 -1.2195  1.4765  0.4414
17140SOL     OW56739  11.558   7.303   8.072  0.1865 -0.3456  0.1595
17140SOL    HW156740  11.482   7.348   8.108 -0.0564 -0.2249 -0.4840
17140SOL    HW256741  11.597   7.258   8.146  0.6614  1.2248  0.9068
17141SOL     OW56742   4.734   3.178   0.359  0.5466 -0.2566 -0.2985
17141SOL    HW156743   4.828   3.193   0.366  0.5024 -0.4754  0.9866
17141SOL    HW256744   4.726   3.095   0.311  1.0872 -1.3062  1.3523
17142SOL     OW56745   7.471   4.766   3.093  0.0355 -0.0253  0.1604
17142SOL    HW156746   7.468   4.751   3.187  0.5596  1.6651  0.4913
17142SOL    HW256747   7.549   4.720   3.063 -1.0698 -2.0420  0.2021
17143SOL     OW56748   9.874   0.077  11.046 -0.2463 -0.1755 -0.6780
17143SOL    HW156749   9.782   0.101  11.033 -0.0779  0.5937 -0.5070
17143SOL    HW256750   9.874  -0.019  11.046 -0.9375 -0.1879 -1.4448
17144SOL     OW56751   1.752   6.856   1.375  0.1714 -0.0450 -0.8644
17144SOL    HW156752   1.830   6.902   1.344  0.4858 -0.2331 -0.3689
17144SOL    HW256753   1.781   6.810   1.453 -0.6787  0.7037 -0.0765
17145SOL     OW56754   4.366   0.489   1.626 -0.5722 -0.5450 -0.3992
17145SOL    HW156755   4.418   0.416   1.659  1.2764  1.3705  1.2035
17145SOL    HW256756   4.416   0.523   1.551 -0.1266  0.5023  0.3434
17146SOL     OW56757   4.154   8.778   1.308  0.4530 -0.7405 -0.1171
17146SOL    HW156758   4.068   8.762   1.347 -0.2201  0.9777 -0.8089
17146SOL    HW256759   4.140   8.769   1.214  1.3714 -1.8050 -0.1821
17147SOL     OW56760   4.351   9.721   9.331 -0.0422 -0.2988 -0.3727
17147SOL    HW156761   4.388   9.734   9.419 -2.9657 -0.4788  0.9878
17147SOL    HW256762   4.288   9.650   9.341 -1.8317  0.9250 -2.1553
17148SOL     OW56763   2.360   6.991   4.456  0.0388 -0.4901  0.2819
17148SOL    HW156764   2.449   6.994   4.423 -0.6128  0.7951 -1.5151
17148SOL    HW256765   2.365   7.030   4.543  1.3194 -1.1347  0.5198
17149SOL     OW56766   0.370   3.899   8.639  0.5724  0.1938  0.0177
17149SOL    HW156767   0.329   3.926   8.557  0.0302  0.5014  0.3856
17149SOL    HW256768   0.453   3.860   8.612 -0.0653 -0.6723 -0.7528
17150SOL     OW56769   4.319   2.837  10.898  0.6349  0.2481  0.1428
17150SOL    HW156770   4.322   2.798  10.986  0.0889  2.0137  0.9977
17150SOL    HW256771   4.225   2.846  10.879  0.7517  0.4284 -0.3626
17151SOL     OW56772   6.863   1.034   2.759 -0.7262 -0.4662  0.0827
17151SOL    HW156773   6.807   1.101   2.799  0.1237  0.0207  0.4762
17151SOL    HW256774   6.901   1.076   2.682 -0.3859 -0.5742  0.1893
17152SOL     OW56775   3.550  10.807   6.386  0.2282 -0.3362  0.0611
17152SOL    HW156776   3.610  10.829   6.315 -0.0910 -2.6125 -1.0212
17152SOL    HW256777   3.567  10.873   6.453  2.3535  0.3987 -1.0872
17153SOL     OW56778   2.308   1.661   4.981  0.6223 -0.1662 -0.2104
17153SOL    HW156779   2.313   1.615   5.065 -1.0048  0.7516  0.4257
17153SOL    HW256780   2.297   1.753   5.004  0.6286  0.1563 -1.4341
17154SOL     OW56781   4.359   5.306   3.913 -0.2014  0.2553  0.0172
17154SOL    HW156782   4.314   5.315   3.829 -2.1907 -0.4842  0.9287
17154SOL    HW256783   4.380   5.213   3.919 -0.3804  0.2433  0.4733
17155SOL     OW56784   8.962   9.589   7.225 -0.4259 -0.6049  0.4493
17155SOL    HW156785   8.954   9.685   7.229  0.6339 -0.4989  0.3156
17155SOL    HW256786   9.053   9.574   7.200 -0.6397 -1.6517  0.2633
17156SOL     OW56787  11.133   2.784   6.103  0.2581 -0.0610 -0.2141
17156SOL    HW156788  11.055   2.833   6.076  0.7405  0.3305 -0.9191
17156SOL    HW256789  11.177   2.843   6.164  0.0151 -0.2794  0.1783
17157SOL     OW56790   8.289   6.346  11.522 -0.0853  0.0633 -0.1533
17157SOL    HW156791   8.330   6.386  11.599 -2.7856  0.7691  1.0392
17157SOL    HW256792   8.204   6.388  11.516 -0.7095 -1.3552 -2.4514
17158SOL     OW56793   3.492   2.772   2.690 -0.1899  0.1542 -0.5965
17158SOL    HW156794   3.430   2.781   2.763  0.3221 -1.4036  0.0695
17158SOL    HW256795   3.507   2.678   2.683  0.7155  0.3769 -1.9360
17159SOL     OW56796   4.849   5.342  11.015 -0.1648 -0.2936  0.4783
17159SOL    HW156797   4.772   5.321  11.069  0.4019 -0.8308  1.0848
17159SOL    HW256798   4.852   5.271  10.950  0.2953 -0.7322  0.9721
17160SOL     OW56799   9.981   4.265  11.394 -0.6584 -0.0980  0.5509
17160SOL    HW156800   9.946   4.338  11.445 -0.9010  0.1248  0.0688
17160SOL    HW256801  10.076   4.274  11.403 -0.6723  0.5451  0.1361
17161SOL     OW56802   0.806   0.375   9.943  0.1759  0.1725  0.0725
17161SOL    HW156803   0.819   0.465   9.912 -1.1801  0.6408  0.7921
17161SOL    HW256804   0.717   0.374   9.978 -1.0877 -2.3225 -2.8050
17162SOL     OW56805   7.278   3.970   3.605 -0.3260 -0.6250  0.0462
17162SOL    HW156806   7.254   4.007   3.520  1.7136 -0.1016 -0.3515
17162SOL    HW256807   7.291   4.047   3.661 -2.6450 -0.9794  1.1860
17163SOL     OW56808   0.823   9.029   9.989  0.6133 -0.2195 -0.3374
17163SOL    HW156809   0.755   9.011   9.924  0.4638 -1.5255  0.1491
17163SOL    HW256810   0.803   8.970  10.061 -0.1531  2.2723  1.6194
17164SOL     OW56811   7.918   4.888   4.328  0.4630  0.4070 -0.0909
17164SOL    HW156812   8.005   4.918   4.301  0.5575  0.7094  0.5412
17164SOL    HW256813   7.858   4.931   4.267  0.5174  2.6743  1.3777
17165SOL     OW56814   2.978   0.118   5.720 -0.9400  0.6794  0.1599
17165SOL    HW156815   2.884   0.124   5.737 -0.9169 -0.2737  0.6786
17165SOL    HW256816   2.989   0.037   5.670 -0.1999 -0.2401  1.7313
17166SOL     OW56817   7.674   9.630   4.147 -0.4486  0.1837  0.6603
17166SOL    HW156818   7.748   9.619   4.207 -0.9100  1.2336  1.4522
17166SOL    HW256819   7.649   9.722   4.156 -0.7069  0.3157 -0.9660
17167SOL     OW56820   7.784  10.522   9.877  0.3202  0.1549 -0.0271
17167SOL    HW156821   7.790  10.487   9.965  1.3860 -1.2447 -0.6218
17167SOL    HW256822   7.717  10.591   9.883  1.1057  0.8059  2.0695
17168SOL     OW56823   3.161   5.188   9.713  0.2250 -0.1529  0.2670
17168SOL    HW156824   3.192   5.232   9.792  0.0811 -0.5920  0.5736
17168SOL    HW256825   3.166   5.254   9.644  1.8781 -0.2180  0.2884
17169SOL     OW56826   2.377   8.810   3.309  0.5617 -0.4962 -0.3528
17169SOL    HW156827   2.404   8.902   3.307 -1.8282  0.3060  0.9375
17169SOL    HW256828   2.402   8.780   3.396 -1.8653  0.0749  0.6219
17170SOL     OW56829   2.200   7.883  10.068  0.0737 -0.1224 -0.8105
17170SOL    HW156830   2.111   7.885  10.033 -0.4511 -0.7729  0.4193
17170SOL    HW256831   2.203   7.959  10.127  0.6002  0.3383 -1.4111
17171SOL     OW56832  10.380  11.408   8.302  0.3654  0.2314 -0.0186
17171SOL    HW156833  10.445  11.337   8.307  2.2443  1.5925 -2.4768
17171SOL    HW256834  10.406  11.469   8.370 -0.8495 -1.0235  1.6552
17172SOL     OW56835   9.741   0.458   2.652  0.0170 -0.1307  0.0856
17172SOL    HW156836   9.721   0.507   2.573  0.9587 -0.2358 -0.2329
17172SOL    HW256837   9.834   0.476   2.669  0.2559 -1.4083  0.2275
17173SOL     OW56838   7.567  11.569   0.575  0.4695  0.0935 -0.3213
17173SOL    HW156839   7.523  11.485   0.590  2.8944 -1.7026 -2.3993
17173SOL    HW256840   7.624  11.580   0.651  0.7646 -0.6199 -0.4297
17174SOL     OW56841   3.382   9.657   5.960 -0.5038  0.0365 -0.3026
17174SOL    HW156842   3.362   9.747   5.931 -2.0502 -0.4930 -0.9890
17174SOL    HW256843   3.313   9.636   6.022  0.6432 -0.2148  0.9269
17175SOL     OW56844   8.235   0.791   1.226 -0.8166 -0.2938 -0.3938
17175SOL    HW156845   8.256   0.843   1.149 -0.0848 -0.4052 -0.2779
17175SOL    HW256846   8.253   0.849   1.300 -0.5276 -0.5264 -0.2808
17176SOL     OW56847   0.606  10.414  11.601 -0.1557  0.2302 -0.4113
17176SOL    HW156848   0.598  10.510  11.601 -0.8210  0.2033  1.0907
17176SOL    HW256849   0.641  10.394  11.688  1.8924 -0.7814 -1.3947
17177SOL     OW56850   1.349   3.986   8.318  0.3498  0.2304 -0.1819
17177SOL    HW156851   1.328   3.925   8.247  1.0258  0.2948 -0.4453
17177SOL    HW256852   1.282   4.054   8.312 -0.4413 -0.5035  0.1443
17178SOL     OW56853   3.608   3.667   4.804 -0.1670 -0.6501 -0.4750
17178SOL    HW156854   3.579   3.758   4.811  0.4309 -0.4611 -0.4260
17178SOL    HW256855   3.703   3.672   4.811 -0.1022 -1.2357 -0.9308
17179SOL     OW56856  10.195   1.978   9.958  0.0113 -0.4689 -0.8308
17179SOL    HW156857  10.167   1.909  10.018 -0.7106 -0.1916 -0.8325
17179SOL    HW256858  10.289   1.967   9.950  0.5147  0.8727  2.0957
17180SOL     OW56859  10.560   2.458   5.043  0.2884 -0.1563  0.3879
17180SOL    HW156860  10.588   2.403   4.970  0.3264  0.0944  0.2116
17180SOL    HW256861  10.468   2.438   5.055  0.0734  0.3937 -0.2622
17181SOL     OW56862  10.085   0.839  10.740  0.6141  0.4769 -0.5108
17181SOL    HW156863  10.158   0.900  10.754 -1.1192  2.3541  1.0143
17181SOL    HW256864  10.027   0.886  10.681  0.0626 -0.4608 -0.7193
17182SOL     OW56865  10.269   6.269   8.226  0.7715 -0.0019  0.2082
17182SOL    HW156866  10.287   6.352   8.271  0.0521 -1.1855  2.8595
17182SOL    HW256867  10.351   6.248   8.181  1.2186  1.7446  0.1243
17183SOL     OW56868  10.241   7.410  10.451 -0.0285 -0.5205  0.0252
17183SOL    HW156869  10.334   7.431  10.461 -0.4079  1.4645 -0.0745
17183SOL    HW256870  10.230   7.390  10.359  0.1478  0.2532 -0.1745
17184SOL     OW56871   5.773   9.655   1.815  0.2713  0.3203 -0.3228
17184SOL    HW156872   5.710   9.583   1.822 -0.2429  0.7311 -0.5910
17184SOL    HW256873   5.751   9.697   1.732  0.2473  1.0740  0.0617
17185SOL     OW56874   7.570   9.536   9.233  0.4051  0.8259 -0.3040
17185SOL    HW156875   7.501   9.477   9.202  0.1164  0.2488  1.3183
17185SOL    HW256876   7.651   9.492   9.212  0.2444  0.7792 -0.8403
17186SOL     OW56877   8.533   7.117   7.287 -0.3049  0.2997  0.4992
17186SOL    HW156878   8.591   7.064   7.233 -0.2039 -0.6609  1.5148
17186SOL    HW256879   8.584   7.136   7.366 -1.1894 -0.1396  1.1936
17187SOL     OW56880   7.123   4.387  10.336  0.2733  0.0866 -0.6859
17187SOL    HW156881   7.181   4.461  10.352  0.5697  0.1328 -1.8716
17187SOL    HW256882   7.044   4.425  10.299 -0.6433  0.0458  1.1377
17188SOL     OW56883   1.964   7.985   3.339 -0.6220  0.2004 -0.0658
17188SOL    HW156884   1.957   8.001   3.244  1.9501 -0.5115 -0.4510
17188SOL    HW256885   1.997   8.068   3.374  2.3684 -0.7175 -0.4738
17189SOL     OW56886   7.138   4.005  11.468 -0.3330 -0.1995 -0.3873
17189SOL    HW156887   7.218   3.965  11.432  0.0886 -0.1413  0.4660
17189SOL    HW256888   7.160   4.098  11.477 -0.1578 -0.3318  0.7145
17190SOL     OW56889   4.157   4.545   5.925 -0.6855  0.4911 -0.3767
17190SOL    HW156890   4.211   4.621   5.947 -0.4822  0.6513 -1.3877
17190SOL    HW256891   4.183   4.522   5.836 -0.9485 -0.5940 -0.1908
17191SOL     OW56892  10.798  10.514   0.290 -0.1820 -0.1670  0.1743
17191SOL    HW156893  10.780  10.441   0.349  0.0213 -0.4643 -0.1313
17191SOL    HW256894  10.745  10.497   0.212  0.7485 -0.6059 -0.3796
17192SOL     OW56895   0.305   5.534  10.014 -0.1028  0.1011 -0.2584
17192SOL    HW156896   0.285   5.462   9.954  0.2896  0.2559 -0.5855
17192SOL    HW256897   0.220   5.565  10.043 -0.3365  0.4886 -1.3004
17193SOL     OW56898   4.473   5.140   4.629  0.2167 -0.4065 -1.1155
17193SOL    HW156899   4.479   5.229   4.662 -4.1702 -0.4436  0.5082
17193SOL    HW256900   4.472   5.150   4.533  2.0519  0.9492 -1.0374
17194SOL     OW56901   3.145  10.942   6.879  0.4866 -0.4503 -0.0337
17194SOL    HW156902   3.143  10.965   6.972 -1.9517 -1.1440  0.1431
17194SOL    HW256903   3.164  11.025   6.835 -2.2664  0.8055  0.9093
17195SOL     OW56904  10.350   1.945   7.212  0.2063 -0.4486 -0.1069
17195SOL    HW156905  10.316   2.031   7.189 -2.1139 -1.1940  0.2084
17195SOL    HW256906  10.275   1.899   7.251  2.3067 -1.3441  3.3340
17196SOL     OW56907   0.880   6.272   3.093  0.0411 -0.0921  0.6164
17196SOL    HW156908   0.973   6.272   3.069 -0.3502 -0.8454 -1.1231
17196SOL    HW256909   0.873   6.335   3.164  1.5212  1.7341 -0.7404
17197SOL     OW56910   4.085   0.395   9.024  0.1853 -0.3273 -0.0382
17197SOL    HW156911   4.080   0.442   8.941  0.6452  0.9875  0.6414
17197SOL    HW256912   4.178   0.397   9.048 -0.0234 -0.1343  0.8029
17198SOL     OW56913   8.328   0.609   1.507  0.3768  0.6696 -0.3666
17198SOL    HW156914   8.354   0.590   1.417 -1.1981 -1.2398 -0.4999
17198SOL    HW256915   8.409   0.630   1.552  1.4059  0.1310 -1.8893
17199SOL     OW56916  10.326   9.301   5.477  0.4857  0.1199  0.2344
17199SOL    HW156917  10.258   9.235   5.465 -0.3148  1.2723 -2.1935
17199SOL    HW256918  10.328   9.316   5.571  1.0045 -3.5888  0.9739
17200SOL     OW56919   9.578   2.938  10.656  0.3387 -0.4185  0.1556
17200SOL    HW156920   9.555   2.850  10.628  0.4282 -0.6105  0.6692
17200SOL    HW256921   9.611   2.981  10.577  1.7638 -1.3359  0.2069
17201SOL     OW56922   2.625   3.763   4.634  0.4696  0.0886  0.0086
17201SOL    HW156923   2.559   3.699   4.660 -1.7522  1.9197 -0.7613
17201SOL    HW256924   2.651   3.806   4.716  0.4958 -0.4607  0.2891
17202SOL     OW56925  10.774   1.417   2.616  0.6357 -0.8608  0.3197
17202SOL    HW156926  10.802   1.507   2.600  1.1037 -0.9589  0.5899
17202SOL    HW256927  10.732   1.390   2.534  0.8960 -0.5519  0.0838
17203SOL     OW56928   1.963   3.853   3.828  0.2784 -0.1595 -0.3176
17203SOL    HW156929   1.908   3.775   3.826  0.5938 -0.6455  3.2579
17203SOL    HW256930   1.930   3.908   3.756 -1.4761 -2.5575 -1.4665
17204SOL     OW56931   9.876   6.878   1.116  0.0505  0.0275  0.1862
17204SOL    HW156932   9.786   6.869   1.147 -0.2027 -2.0324 -0.9417
17204SOL    HW256933   9.929   6.830   1.180  0.6055  2.4002  1.6205
17205SOL     OW56934   5.657   8.511  10.880 -0.5469  0.2428 -0.5367
17205SOL    HW156935   5.661   8.605  10.898 -3.2891  0.6759 -1.6880
17205SOL    HW256936   5.716   8.498  10.806  1.5851  0.5752  1.0039
17206SOL     OW56937   5.873   9.365   4.899  0.3180  0.3890  0.1171
17206SOL    HW156938   5.828   9.447   4.878  0.4619  0.3753 -0.2452
17206SOL    HW256939   5.949   9.364   4.841  1.4448  0.9707  1.5387
17207SOL     OW56940   1.847   7.615   8.114 -0.3112  0.4761 -0.3924
17207SOL    HW156941   1.909   7.596   8.044 -0.6013  0.3158 -0.6045
17207SOL    HW256942   1.894   7.592   8.194 -0.4063 -0.4979 -0.6048
17208SOL     OW56943   3.738   0.982   6.471 -0.0430 -0.1095  0.8282
17208SOL    HW156944   3.732   1.077   6.483 -1.4096 -0.3484  2.3313
17208SOL    HW256945   3.696   0.966   6.386  0.1433  0.6101  0.5903
17209SOL     OW56946   0.853   1.800   1.230 -0.3159  0.0780 -0.0925
17209SOL    HW156947   0.899   1.782   1.148  0.8727 -0.4042  0.6450
17209SOL    HW256948   0.802   1.721   1.247 -0.1858 -0.0170 -0.1381
17210SOL     OW56949   5.309   5.753   4.161  0.1691 -0.1027  0.1754
17210SOL    HW156950   5.290   5.821   4.226  1.0077  0.4428 -0.1255
17210SOL    HW256951   5.386   5.708   4.197  0.4850  0.0435 -0.3124
17211SOL     OW56952   5.670   8.789   7.928  0.0727 -0.7904 -0.2718
17211SOL    HW156953   5.609   8.733   7.880 -0.1089 -0.7071 -0.1404
17211SOL    HW256954   5.673   8.870   7.876 -2.0874  0.3034  1.1393
17212SOL     OW56955   6.055   8.312   1.490 -0.2017  0.7801 -0.3115
17212SOL    HW156956   6.145   8.295   1.461 -0.4248 -0.1462 -0.5154
17212SOL    HW256957   6.013   8.226   1.488 -1.3704  1.3384 -1.1883
17213SOL     OW56958   8.510   8.472   2.637 -0.3467  0.4859  0.5973
17213SOL    HW156959   8.571   8.546   2.637  0.4484 -0.0386  3.2876
17213SOL    HW256960   8.433   8.505   2.590  0.9938  2.0498 -0.6589
17214SOL     OW56961   4.627   0.109   0.455  0.1317  0.2041  0.5037
17214SOL    HW156962   4.563   0.096   0.525  2.0899 -0.8745  2.1854
17214SOL    HW256963   4.705   0.141   0.500  0.5529  2.4372 -1.6048
17215SOL     OW56964   0.623   8.587  10.111  0.1286 -0.0902  0.8277
17215SOL    HW156965   0.624   8.635  10.193 -0.5123 -0.9011  1.3289
17215SOL    HW256966   0.678   8.510  10.127  0.3930 -0.0088  0.3394
17216SOL     OW56967   1.571   0.864   8.591  0.6677  0.5601 -0.4688
17216SOL    HW156968   1.591   0.910   8.509  0.5243  0.6997 -0.4272
17216SOL    HW256969   1.608   0.921   8.659  1.8405 -0.1460 -0.5000
17217SOL     OW56970   5.790   8.981   0.972  0.3179 -0.1293 -0.1926
17217SOL    HW156971   5.833   8.898   0.989 -1.5516 -0.9390  0.9572
17217SOL    HW256972   5.833   9.015   0.894  1.0542 -2.2311 -0.7775
17218SOL     OW56973   8.308   2.492  10.328  0.2056  0.0833  0.1823
17218SOL    HW156974   8.248   2.557  10.364  0.1345  1.9006 -2.8273
17218SOL    HW256975   8.382   2.491  10.389 -1.1883  0.5964  1.9678
17219SOL     OW56976   4.549   1.267   2.267 -0.3143  0.1632  0.5194
17219SOL    HW156977   4.567   1.183   2.309  1.2588  0.6140  0.8060
17219SOL    HW256978   4.473   1.250   2.211 -0.7482 -1.1326  1.4621
17220SOL     OW56979  10.108   2.825   7.803  0.0526 -0.1023 -0.4969
17220SOL    HW156980  10.149   2.739   7.813 -1.4909 -0.7526  0.6931
17220SOL    HW256981  10.041   2.812   7.735 -1.8472 -0.5650  1.3568
17221SOL     OW56982   2.801   0.076   8.295 -0.4957 -0.4433 -0.5722
17221SOL    HW156983   2.796   0.171   8.288 -0.7626 -0.4891 -1.0479
17221SOL    HW256984   2.893   0.058   8.311 -0.7750  0.0274  1.8404
17222SOL     OW56985   7.996   6.611   2.947 -0.3130  0.7566  0.1089
17222SOL    HW156986   8.006   6.565   3.031  0.8355 -0.4098 -0.6114
17222SOL    HW256987   7.955   6.547   2.889  1.2483  0.6143 -0.9031
17223SOL     OW56988   4.839   5.060   2.028 -0.2840  0.4226  0.3511
17223SOL    HW156989   4.887   5.051   1.946 -0.4034 -1.7377  0.4831
17223SOL    HW256990   4.837   5.155   2.043  1.8579  0.7341 -0.8615
17224SOL     OW56991   0.299   9.864   2.061 -0.1186  0.5539 -0.0312
17224SOL    HW156992   0.382   9.826   2.088 -0.5629 -0.0465  0.5153
17224SOL    HW256993   0.241   9.788   2.048 -0.9794  1.0237  0.9358
17225SOL     OW56994   5.592   4.597   4.791  0.8043 -0.3573 -0.0632
17225SOL    HW156995   5.553   4.659   4.852  0.6913 -1.2124  0.7638
17225SOL    HW256996   5.546   4.612   4.709  0.6751  0.5383  0.1662
17226SOL     OW56997   3.344   1.323   5.618  0.3488  0.3011 -0.1718
17226SOL    HW156998   3.341   1.234   5.583  0.3888 -0.1394  0.9036
17226SOL    HW256999   3.253   1.344   5.639  0.2871  0.6710 -0.7535
17227SOL     OW57000   0.368   8.892   7.377 -0.1645 -0.4330  0.1564
17227SOL    HW157001   0.389   8.814   7.325 -1.6144 -1.3708  0.9419
17227SOL    HW257002   0.373   8.863   7.468 -0.5221  0.4529  0.4696
17228SOL     OW57003   7.141   2.643   5.783  0.2915  0.3593 -0.6788
17228SOL    HW157004   7.110   2.658   5.693  1.9931  1.9945 -1.0547
17228SOL    HW257005   7.183   2.725   5.807 -0.8627  0.2563  1.9754
17229SOL     OW57006   2.587   6.633   8.954  0.2518 -1.0094  0.7865
17229SOL    HW157007   2.665   6.581   8.977  0.6883 -0.1289  1.3779
17229SOL    HW257008   2.552   6.662   9.039  0.9756  0.9980  0.4618
17230SOL     OW57009   4.097   8.312   6.368 -0.8120 -0.6305 -0.2765
17230SOL    HW157010   4.067   8.277   6.452 -2.9963 -0.7022 -1.0264
17230SOL    HW257011   4.072   8.404   6.370  1.4428  0.0306  0.1304
17231SOL     OW57012   5.509   4.320   5.486 -0.0700  0.3304  0.4088
17231SOL    HW157013   5.474   4.356   5.568 -0.0287  0.3806  0.4045
17231SOL    HW257014   5.477   4.380   5.418 -0.1960  0.2266  0.3768
17232SOL     OW57015   5.212   8.948   1.477 -0.3927 -0.8490 -0.4226
17232SOL    HW157016   5.239   8.967   1.567  1.4870 -2.1666 -0.6299
17232SOL    HW257017   5.268   9.003   1.423 -1.7829  0.2278 -0.8150
17233SOL     OW57018   9.832  10.704   0.950  0.0482  0.1048  0.2391
17233SOL    HW157019   9.819  10.682   0.857  2.0871 -0.9903  0.1424
17233SOL    HW257020   9.763  10.656   0.995 -0.6374  0.2105 -0.6615
17234SOL     OW57021  11.667   3.648  11.509  0.1441  0.1650  0.0437
17234SOL    HW157022  11.699   3.618  11.423 -0.8810  0.8470 -0.5964
17234SOL    HW257023  11.677   3.572  11.566  1.6239 -0.0458 -0.4638
17235SOL     OW57024   9.113   8.849   3.041  0.0013 -0.1436  0.5896
17235SOL    HW157025   9.100   8.930   3.091  0.0224  0.2112  0.0285
17235SOL    HW257026   9.026   8.813   3.032 -0.0860  0.1348  0.3126
17236SOL     OW57027   8.916   8.805   1.417 -0.4929  0.0792  0.5652
17236SOL    HW157028   8.842   8.759   1.456 -0.5225 -0.9680 -0.6624
17236SOL    HW257029   8.978   8.817   1.490 -2.9695  3.6621  2.4206
17237SOL     OW57030   8.224   1.464  11.498 -0.1589 -0.1115  0.0923
17237SOL    HW157031   8.222   1.409  11.576  0.6250 -0.2371  0.0349
17237SOL    HW257032   8.244   1.405  11.426  2.2972  0.4222  0.2465
17238SOL     OW57033   4.207   7.096   8.084 -0.0496  0.5852 -0.2967
17238SOL    HW157034   4.242   7.171   8.133 -0.5512 -0.9978  2.6775
17238SOL    HW257035   4.277   7.031   8.087 -1.3414 -0.8190  1.4888
17239SOL     OW57036   1.388  11.019   5.570  0.2471  0.0157 -0.1442
17239SOL    HW157037   1.453  11.031   5.638  0.3801 -0.5276 -0.1722
17239SOL    HW257038   1.369  10.925   5.570  2.0634 -0.4415 -2.4928
17240SOL     OW57039  11.559   5.819   5.875  0.2847 -0.1978  0.1808
17240SOL    HW157040  11.532   5.889   5.934  1.9892 -0.2060  1.0357
17240SOL    HW257041  11.479   5.768   5.860 -0.6734  1.1263  0.6421
17241SOL     OW57042   4.334  11.341   0.314 -0.6749 -0.1543 -0.6723
17241SOL    HW157043   4.244  11.374   0.305 -0.4892  1.0821  1.3534
17241SOL    HW257044   4.382  11.381   0.242 -1.2860  0.9406 -0.4856
17242SOL     OW57045   1.191   7.383  10.211  0.0830 -0.0002  0.5915
17242SOL    HW157046   1.243   7.454  10.249 -1.2959  0.5954  1.4617
17242SOL    HW257047   1.254   7.313  10.194  1.0856  0.4766  2.1181
17243SOL     OW57048   1.016   6.327   7.631 -0.0487 -0.1303 -0.2312
17243SOL    HW157049   1.086   6.265   7.607 -0.6591 -0.4532 -1.2313
17243SOL    HW257050   1.042   6.359   7.717 -0.1398 -2.4311  0.7280
17244SOL     OW57051   1.164   6.701   0.899 -0.4604 -0.6029 -0.4417
17244SOL    HW157052   1.182   6.666   0.811 -0.2025  0.4219 -0.8076
17244SOL    HW257053   1.215   6.645   0.957  0.3322 -0.5536 -1.0605
17245SOL     OW57054   8.157   7.004   2.941 -0.1011  0.4450 -0.2275
17245SOL    HW157055   8.196   7.090   2.958  0.2127  0.1552  0.5945
17245SOL    HW257056   8.226   6.942   2.966 -0.7123 -0.0591  0.2244
17246SOL     OW57057  10.897   6.040   5.606  0.0529 -0.2359 -0.7016
17246SOL    HW157058  10.908   5.945   5.613 -1.2829 -0.3916 -0.4213
17246SOL    HW257059  10.929   6.073   5.690 -2.1468 -0.7379  0.3986
17247SOL     OW57060   1.914  11.794   6.827  0.2239 -0.1109  0.4745
17247SOL    HW157061   1.940  11.873   6.780  1.1543 -0.7557 -0.1518
17247SOL    HW257062   1.865  11.743   6.763 -0.1242 -0.1675  0.7854
17248SOL     OW57063   8.858   3.388   0.552 -0.8361 -0.0367 -0.1811
17248SOL    HW157064   8.773   3.417   0.586  0.0904  1.3272  1.0370
17248SOL    HW257065   8.921   3.414   0.618  0.3559 -2.9598 -0.0271
17249SOL     OW57066   3.491   8.775   9.293 -0.1613 -0.1823 -0.5092
17249SOL    HW157067   3.404   8.750   9.262 -0.3992  0.5433 -0.4452
17249SOL    HW257068   3.547   8.769   9.216 -0.3518 -0.2510 -0.6418
17250SOL     OW57069   7.637   8.213   2.209 -0.7526  0.1773  0.2044
17250SOL    HW157070   7.598   8.276   2.148 -0.4843 -0.6763 -0.8898
17250SOL    HW257071   7.565   8.156   2.234 -0.9659  0.8135  1.0877
17251SOL     OW57072   7.993   6.729   9.475  0.1506 -0.4050 -0.3095
17251SOL    HW157073   7.904   6.712   9.447 -0.4580  2.0052 -0.0819
17251SOL    HW257074   7.986   6.746   9.569  0.6665  0.7070 -0.4519
17252SOL     OW57075   6.365   3.594  10.415 -0.4776 -0.0697  0.4146
17252SOL    HW157076   6.372   3.504  10.446 -0.6471 -0.3621 -0.3880
17252SOL    HW257077   6.271   3.613  10.418 -0.7681 -0.8355 -1.9139
17253SOL     OW57078  10.911   5.908   2.391  0.6627  0.7440  0.0227
17253SOL    HW157079  10.993   5.899   2.438 -0.4150  1.7683  2.2917
17253SOL    HW257080  10.906   6.001   2.368  0.2768  0.6344 -0.3638
17254SOL     OW57081   0.664   5.535  10.316 -0.1531  1.0035  0.5242
17254SOL    HW157082   0.694   5.475  10.385 -1.9684  0.1409  0.6069
17254SOL    HW257083   0.740   5.591  10.299  1.0748 -0.2589  1.5916
17255SOL     OW57084  10.069   8.251   3.759  0.1445  0.1662 -0.4639
17255SOL    HW157085   9.998   8.314   3.743  0.4510  0.5244 -0.4146
17255SOL    HW257086  10.025   8.174   3.796 -0.1825  0.5017 -0.1499
17256SOL     OW57087   0.184   1.631  11.576  0.4715 -0.0321  0.2207
17256SOL    HW157088   0.269   1.593  11.595  0.3429 -0.3523  0.1581
17256SOL    HW257089   0.192   1.723  11.603  0.8389 -0.0571  0.1986
17257SOL     OW57090   7.298   4.728  11.818 -0.5805  0.4228 -0.5779
17257SOL    HW157091   7.339   4.687  11.741  0.3706  1.6283 -0.7316
17257SOL    HW257092   7.348   4.695  11.892 -0.0848  0.9674 -0.6665
17258SOL     OW57093   9.849   6.109   2.294 -0.0624  0.0022 -0.6248
17258SOL    HW157094   9.783   6.053   2.253  0.4061  0.0587 -1.4775
17258SOL    HW257095   9.798   6.168   2.350 -0.5536 -1.2586  0.2778
17259SOL     OW57096   5.834   3.706   2.558 -0.3758 -0.0982  0.3938
17259SOL    HW157097   5.765   3.667   2.612  0.0008  1.1931  1.8752
17259SOL    HW257098   5.803   3.794   2.537 -0.3466 -0.4463 -1.2230
17260SOL     OW57099   8.583   7.357   5.307 -0.2655 -0.5391  0.4038
17260SOL    HW157100   8.624   7.284   5.353  2.0784 -0.1563 -0.8817
17260SOL    HW257101   8.607   7.434   5.358  0.0949 -0.3760 -0.0028
17261SOL     OW57102   0.402   6.953  11.481  0.1637  0.2052  0.2849
17261SOL    HW157103   0.374   6.883  11.423 -1.0248  2.5451 -2.1790
17261SOL    HW257104   0.442   7.018  11.423  0.8448  1.7610  2.3794
17262SOL     OW57105   2.708   6.901   3.051 -0.3115 -0.1907  0.2906
17262SOL    HW157106   2.669   6.953   2.982  2.0019  1.3650  0.0293
17262SOL    HW257107   2.674   6.813   3.038 -1.1541  0.4039 -1.8454
17263SOL     OW57108   5.377  10.862   1.912 -0.2419  0.3795  0.1567
17263SOL    HW157109   5.418  10.776   1.911 -0.9021  0.0293 -1.9156
17263SOL    HW257110   5.309  10.857   1.846 -0.1764  2.5577 -0.1623
17264SOL     OW57111   1.683   8.415   1.547 -0.8217  0.0939  0.0326
17264SOL    HW157112   1.725   8.408   1.461 -1.0193  0.6958 -0.1170
17264SOL    HW257113   1.659   8.325   1.569  0.0652 -0.1862 -0.1181
17265SOL     OW57114   1.369   4.824   8.686 -0.0357  0.1019 -0.1682
17265SOL    HW157115   1.378   4.796   8.777 -1.9831 -0.1534 -0.0129
17265SOL    HW257116   1.333   4.913   8.691 -1.5936 -0.4673 -0.6486
17266SOL     OW57117   9.455   5.395  11.781  0.2388 -0.5466  0.5186
17266SOL    HW157118   9.405   5.327  11.736 -1.0891 -0.1600  1.3457
17266SOL    HW257119   9.436   5.381  11.874 -0.1243  0.9711  0.7088
17267SOL     OW57120   0.330   6.034   0.649 -0.4798  0.0485  0.2127
17267SOL    HW157121   0.420   6.067   0.651 -0.2311 -0.6308  1.3642
17267SOL    HW257122   0.277   6.111   0.631  0.3654  0.3548 -1.1050
17268SOL     OW57123   3.066   5.623   7.263 -0.1707  0.5155 -0.4446
17268SOL    HW157124   3.117   5.698   7.294  0.5928  0.9627 -2.6078
17268SOL    HW257125   3.033   5.650   7.177 -0.0426 -1.5551 -1.2052
17269SOL     OW57126  10.634   5.673   3.545 -0.2795 -0.0555 -0.0074
17269SOL    HW157127  10.602   5.755   3.507 -0.3558  0.0439  0.2664
17269SOL    HW257128  10.697   5.640   3.481 -1.3075 -0.5176 -0.7975
17270SOL     OW57129   9.975   9.927  10.768  0.1398 -0.2545 -0.0702
17270SOL    HW157130   9.994   9.874  10.846 -2.1897 -0.9283  0.1175
17270SOL    HW257131  10.060   9.962  10.742  1.4153 -2.1725  1.2054
17271SOL     OW57132   9.940   2.832   4.961  0.1225  0.1960  0.2311
17271SOL    HW157133   9.938   2.792   4.874  0.2240  1.6236 -0.4543
17271SOL    HW257134   9.885   2.775   5.015 -0.2016 -0.5391 -0.8429
17272SOL     OW57135   2.807   5.166   2.846  0.2566  0.3705 -0.0818
17272SOL    HW157136   2.764   5.088   2.812  0.0441  0.6928 -0.5564
17272SOL    HW257137   2.769   5.238   2.797  2.0609  0.5763 -1.2730
17273SOL     OW57138   3.935   9.878   4.291 -0.5150  0.0578  0.6143
17273SOL    HW157139   3.962   9.792   4.323 -0.0252 -0.1534 -0.3270
17273SOL    HW257140   3.840   9.871   4.280 -0.1862 -1.2395 -1.9092
17274SOL     OW57141   2.986   4.173   9.264 -0.3404 -0.1722  0.0231
17274SOL    HW157142   3.026   4.146   9.347 -0.5545 -3.4259 -0.7868
17274SOL    HW257143   3.001   4.099   9.205 -1.9697  1.1734 -2.2367
17275SOL     OW57144   6.950  10.427   5.053 -0.1291 -0.4081  0.2331
17275SOL    HW157145   6.920  10.346   5.094  1.9820 -0.9508  0.8410
17275SOL    HW257146   7.020  10.459   5.110  1.4967 -0.0745 -1.8203
17276SOL     OW57147   6.166   5.335   5.662  0.6605  0.2087  0.3192
17276SOL    HW157148   6.100   5.375   5.718 -0.7430  0.6063 -1.5045
17276SOL    HW257149   6.169   5.243   5.689 -1.1406  0.0412  0.0135
17277SOL     OW57150   6.125  10.314   0.343 -0.1458  0.4883 -0.2921
17277SOL    HW157151   6.091  10.246   0.285 -1.5294  0.4177  0.5666
17277SOL    HW257152   6.207  10.341   0.302  0.1946 -1.3467 -0.9105
17278SOL     OW57153   8.072   4.896   6.189  0.0155  0.7280  0.1380
17278SOL    HW157154   8.034   4.808   6.179  0.4472  0.7137 -1.7316
17278SOL    HW257155   8.155   4.881   6.235 -0.6339  0.3562  1.2119
17279SOL     OW57156   1.328   3.538   8.049  0.2399  0.4187  0.6475
17279SOL    HW157157   1.415   3.504   8.072  0.3125  0.4097  0.3630
17279SOL    HW257158   1.297   3.481   7.979 -1.0795 -1.1376  2.4127
17280SOL     OW57159   5.579   1.993   4.757 -0.3720 -0.5443  0.2781
17280SOL    HW157160   5.498   2.029   4.721 -0.4061  0.3814  1.2383
17280SOL    HW257161   5.554   1.905   4.786 -0.7647 -0.6527 -0.3462
17281SOL     OW57162  11.425   4.019   4.900 -0.2434  0.1073 -0.5462
17281SOL    HW157163  11.512   3.988   4.928 -0.8935 -0.2260  1.2157
17281SOL    HW257164  11.370   4.010   4.978 -1.4740  1.8893 -1.1603
17282SOL     OW57165   5.487  10.166  11.652 -0.0160 -0.2525 -0.1909
17282SOL    HW157166   5.400  10.206  11.653 -1.2328 -2.6153  2.8655
17282SOL    HW257167   5.478  10.088  11.599  0.6490  0.1557 -0.9334
17283SOL     OW57168   7.448   1.343   9.619  0.3638  0.6361 -0.0321
17283SOL    HW157169   7.427   1.355   9.712 -0.9815  1.0487 -0.3766
17283SOL    HW257170   7.426   1.427   9.579 -2.4247 -0.5852 -1.2885
17284SOL     OW57171   5.849   8.220   5.454 -0.1078  0.4770 -0.5576
17284SOL    HW157172   5.935   8.252   5.426  0.6724 -2.2504 -1.6448
17284SOL    HW257173   5.803   8.298   5.485  2.0146  2.3597 -1.8298
17285SOL     OW57174   9.066   4.526   0.810 -0.5879  0.4193 -0.0400
17285SOL    HW157175   9.149   4.573   0.808 -1.1936  1.6540  1.4865
17285SOL    HW257176   9.087   4.439   0.776  1.3784  0.6210  0.5224
17286SOL     OW57177   3.699  11.042   2.721 -0.0634 -0.4106  0.2836
17286SOL    HW157178   3.711  10.967   2.779  1.5003 -0.7780 -0.4831
17286SOL    HW257179   3.759  11.108   2.754 -0.9582  0.2963  0.5494
17287SOL     OW57180   4.656   6.825   6.413  0.3223  0.2347 -0.2025
17287SOL    HW157181   4.671   6.916   6.387 -1.7491  1.7395  3.1711
17287SOL    HW257182   4.732   6.802   6.466  0.1536  0.5852  0.2002
17288SOL     OW57183   2.860   4.280  10.824 -0.7825  0.1411  0.1038
17288SOL    HW157184   2.904   4.355  10.784 -0.2481  0.4122  1.1668
17288SOL    HW257185   2.827   4.313  10.907 -0.8502 -0.7136  0.4267
17289SOL     OW57186   7.202   7.463  11.603 -0.7615 -0.2844 -0.2924
17289SOL    HW157187   7.153   7.543  11.624 -0.2224  0.1139 -0.5095
17289SOL    HW257188   7.290   7.495  11.583 -0.1992 -1.0640  0.8791
17290SOL     OW57189   7.331  10.482   2.301 -0.3207  0.0296 -0.4847
17290SOL    HW157190   7.273  10.550   2.267  1.4313  0.3260 -3.2152
17290SOL    HW257191   7.401  10.531   2.345 -0.2918 -0.1401 -0.3400
17291SOL     OW57192   5.039   5.407   9.971 -0.5107  0.1691 -0.2002
17291SOL    HW157193   4.991   5.486   9.993 -1.7339 -0.0083 -2.0154
17291SOL    HW257194   5.100   5.434   9.902  0.2152 -0.1451  0.3029
17292SOL     OW57195   8.381   5.990   2.023  0.0643 -0.0491  0.1294
17292SOL    HW157196   8.319   6.006   1.951  0.3756  0.4599 -0.0262
17292SOL    HW257197   8.349   5.909   2.063 -1.1971  0.6363  0.5737
17293SOL     OW57198   7.048   0.941   5.529  0.6036  0.1741 -0.2962
17293SOL    HW157199   6.999   0.997   5.469  0.9330 -0.6126 -1.3485
17293SOL    HW257200   6.982   0.908   5.591  0.3389  1.3630  0.0742
17294SOL     OW57201   7.362   1.259   2.723 -0.9024  0.4964  0.3296
17294SOL    HW157202   7.382   1.167   2.706 -0.6223 -0.0085  2.9376
17294SOL    HW257203   7.416   1.307   2.661 -1.1439 -1.0603 -1.1773
17295SOL     OW57204   8.835   2.933   1.892 -0.3509 -0.2268 -0.5429
17295SOL    HW157205   8.819   3.001   1.957 -0.1071 -1.2212  0.5889
17295SOL    HW257206   8.891   2.975   1.827  0.4161  0.4527  0.5178
17296SOL     OW57207   6.513   1.372   4.317  0.0793 -0.0040  0.1189
17296SOL    HW157208   6.432   1.337   4.280 -0.2649 -0.7650  1.5094
17296SOL    HW257209   6.565   1.399   4.241 -0.7514 -1.1158 -0.8756
17297SOL     OW57210   4.841   0.052   9.108 -0.1950  0.2605  0.2647
17297SOL    HW157211   4.912   0.116   9.104 -0.3252  0.5063  1.5833
17297SOL    HW257212   4.776   0.085   9.045 -0.3202  1.5168  1.0206
17298SOL     OW57213   7.415   7.242  11.305  0.4369 -0.1731  0.2192
17298SOL    HW157214   7.449   7.317  11.353 -2.5882  3.0465 -2.1922
17298SOL    HW257215   7.419   7.268  11.213 -4.2321 -1.1883 -0.5161
17299SOL     OW57216   5.062   9.736  10.853  0.4501  0.2437 -0.3262
17299SOL    HW157217   5.081   9.678  10.779 -1.4762 -0.4745 -0.3153
17299SOL    HW257218   5.148   9.769  10.880  1.6427 -2.3523 -0.5574
17300SOL     OW57219   3.677   8.003  10.907 -0.1760 -0.3836  0.3848
17300SOL    HW157220   3.673   8.096  10.926  1.5107 -0.0466 -0.7399
17300SOL    HW257221   3.684   7.961  10.993  3.4402  0.8396  0.8333
17301SOL     OW57222   8.975   5.734   2.345  0.1229 -0.1378  0.1696
17301SOL    HW157223   9.034   5.756   2.417 -1.3360  1.5642  0.9054
17301SOL    HW257224   8.953   5.642   2.360  0.2774  0.0340  1.6155
17302SOL     OW57225   7.171   6.071   2.896 -0.2854 -0.4737 -0.2731
17302SOL    HW157226   7.120   5.997   2.929 -0.4496 -1.3004 -2.2713
17302SOL    HW257227   7.105   6.135   2.870 -0.1518  0.2531  1.0729
17303SOL     OW57228   1.833   8.554   8.856  0.3180 -0.1497 -0.3477
17303SOL    HW157229   1.746   8.591   8.871 -0.6086 -2.2573 -0.1994
17303SOL    HW257230   1.863   8.595   8.775  0.1453  2.1942  0.6935
17304SOL     OW57231   0.240  10.921   7.660 -0.5995  0.1991 -0.6725
17304SOL    HW157232   0.183  10.907   7.584 -2.1785  1.9277  0.1239
17304SOL    HW257233   0.201  10.994   7.707 -0.3882 -1.5231  2.4933
17305SOL     OW57234   8.813   9.697   7.958  0.5963  0.3443  0.7423
17305SOL    HW157235   8.819   9.790   7.937 -1.1153  0.6985  1.6684
17305SOL    HW257236   8.875   9.685   8.030  1.7368  0.4696 -0.1837
17306SOL     OW57237   1.841   2.158  10.119  0.8078 -0.1839 -0.0915
17306SOL    HW157238   1.892   2.142  10.198 -0.5704 -0.9974  0.6727
17306SOL    HW257239   1.815   2.071  10.090  0.5244  0.1743 -0.9157
17307SOL     OW57240   4.359   1.000   4.669  0.8634 -0.0864  0.2721
17307SOL    HW157241   4.303   0.924   4.658 -0.8577  1.2311 -0.5251
17307SOL    HW257242   4.444   0.964   4.693 -0.1901 -2.1766  1.0952
17308SOL     OW57243   7.960   2.084   1.861  0.2097  0.3846  0.2967
17308SOL    HW157244   7.979   2.174   1.888  1.6901 -0.7499  3.6308
17308SOL    HW257245   8.045   2.039   1.866 -0.6577 -1.4103 -0.2760
17309SOL     OW57246   7.417   7.437   5.930  0.0240  0.1095 -0.5958
17309SOL    HW157247   7.361   7.359   5.921  0.3517 -0.1360 -0.5201
17309SOL    HW257248   7.355   7.510   5.934 -0.3390 -0.2478  0.5214
17310SOL     OW57249   4.457   5.947   2.423  0.6021 -0.3528  0.1029
17310SOL    HW157250   4.411   5.917   2.345  1.3170  0.3710 -0.6139
17310SOL    HW257251   4.405   5.913   2.496 -0.2463 -0.7826 -0.6811
17311SOL     OW57252   3.703   4.997   9.545 -0.1171 -0.0526  0.8330
17311SOL    HW157253   3.671   5.087   9.555  0.3856  0.2697 -0.3192
17311SOL    HW257254   3.631   4.950   9.503  0.1851  0.1933  0.0313
17312SOL     OW57255   5.050   5.141   6.092  0.6711  0.4443  0.1179
17312SOL    HW157256   5.120   5.199   6.062  3.7747 -3.2726 -0.4906
17312SOL    HW257257   5.004   5.115   6.013  0.3003  0.8312  0.2036
17313SOL     OW57258  11.268   6.153   5.090 -0.0333  0.7176  0.0027
17313SOL    HW157259  11.229   6.240   5.086  0.5558  1.0353  0.9050
17313SOL    HW257260  11.206   6.101   5.142 -1.1894  0.1311 -1.8685
17314SOL     OW57261   4.826   2.544   7.803 -0.8590 -0.6080  0.0259
17314SOL    HW157262   4.884   2.620   7.793  2.4590 -2.5618  2.4845
17314SOL    HW257263   4.766   2.569   7.873  0.2250 -0.2178  0.8458
17315SOL     OW57264   3.371   1.419   6.746 -0.4051  0.7030 -0.0222
17315SOL    HW157265   3.347   1.333   6.781  0.1741  0.2147 -0.7929
17315SOL    HW257266   3.333   1.481   6.807  0.3480 -0.1218  1.3371
17316SOL     OW57267   1.822  10.478   0.298 -0.0682 -0.6945 -0.5844
17316SOL    HW157268   1.798  10.490   0.206 -0.6889 -1.1020 -0.4826
17316SOL    HW257269   1.742  10.497   0.347  0.8894  2.1305  0.0966
17317SOL     OW57270   4.784   8.116  11.414 -0.3117 -0.0776 -0.1002
17317SOL    HW157271   4.813   8.025  11.402  0.7067  0.3373 -1.0133
17317SOL    HW257272   4.689   8.111  11.416 -0.2967 -1.0776 -1.0190
17318SOL     OW57273   7.462   8.549   5.850 -0.0111  0.3636 -0.2662
17318SOL    HW157274   7.497   8.635   5.872  0.2475  0.2400 -0.1925
17318SOL    HW257275   7.455   8.504   5.934 -0.1897  0.3287 -0.2997
17319SOL     OW57276   4.881   4.664   2.466  0.5784 -0.0949  0.4740
17319SOL    HW157277   4.912   4.703   2.547  1.2231  0.7071 -0.1302
17319SOL    HW257278   4.822   4.729   2.429  1.7754  0.4340 -0.6137
17320SOL     OW57279   1.181   9.178   2.195 -0.1216 -0.5904  0.3912
17320SOL    HW157280   1.226   9.223   2.124 -1.5805 -0.3832 -0.4384
17320SOL    HW257281   1.189   9.238   2.270 -0.6572  0.3162 -0.2590
17321SOL     OW57282   7.231   2.687   9.281  0.1616 -0.2197  0.1994
17321SOL    HW157283   7.297   2.647   9.338  0.7003  0.4035  0.0263
17321SOL    HW257284   7.174   2.735   9.341  1.3148  1.2693  0.1619
17322SOL     OW57285   0.183   6.268   0.639 -0.0589  0.4543  0.5658
17322SOL    HW157286   0.091   6.261   0.664  0.0476  1.8003  1.4338
17322SOL    HW257287   0.184   6.330   0.567  0.1320  0.0977  0.2564
17323SOL     OW57288   2.206  10.415   8.643  0.2305  0.8891  0.1700
17323SOL    HW157289   2.142  10.437   8.710 -0.0487 -0.9346  0.5581
17323SOL    HW257290   2.289  10.448   8.678  0.2072 -0.6277  1.7808
17324SOL     OW57291   8.956   5.718   9.235 -0.2143  0.4033 -0.5341
17324SOL    HW157292   8.988   5.743   9.321  0.4058 -0.3249 -0.5448
17324SOL    HW257293   9.012   5.766   9.174  1.6858 -1.6754 -0.5800
17325SOL     OW57294   4.513   6.298   6.277 -0.3021  0.0875 -0.4019
17325SOL    HW157295   4.525   6.374   6.334  0.5820 -0.8937  0.7554
17325SOL    HW257296   4.418   6.287   6.271 -0.4279  0.9399 -0.1329
17326SOL     OW57297   2.571  10.919   8.331 -0.7084  0.5119 -0.5813
17326SOL    HW157298   2.526  10.932   8.248 -2.0801  1.7491  0.3119
17326SOL    HW257299   2.504  10.886   8.390  0.1104  0.1935  0.1934
17327SOL     OW57300   0.558   7.488   0.400  0.3044  0.5106  0.0640
17327SOL    HW157301   0.502   7.493   0.478  0.0653 -0.2474 -0.0525
17327SOL    HW257302   0.553   7.575   0.362  1.1613  1.1852  1.4007
17328SOL     OW57303   1.342  10.957   3.764  0.1782  0.0008 -0.3510
17328SOL    HW157304   1.331  10.870   3.801  1.1578 -0.3299 -0.8108
17328SOL    HW257305   1.392  10.943   3.684  0.0560  0.9472 -0.6024
17329SOL     OW57306  10.871   9.147   2.595 -0.7921  0.3471  0.1160
17329SOL    HW157307  10.911   9.224   2.635  1.4795 -1.0885  0.7671
17329SOL    HW257308  10.904   9.146   2.505 -0.8479  0.1625  0.0959
17330SOL     OW57309   4.839   2.812   2.567  0.1723  0.2668  0.5570
17330SOL    HW157310   4.805   2.863   2.641 -0.7592  1.1715 -0.4559
17330SOL    HW257311   4.858   2.877   2.500 -0.2465 -0.6471 -0.4761
17331SOL     OW57312  11.476   4.578   8.247 -0.1883 -0.7489 -0.7692
17331SOL    HW157313  11.431   4.541   8.171  0.1882 -0.5890 -1.0713
17331SOL    HW257314  11.406   4.596   8.309 -0.4284 -1.5094 -0.8093
17332SOL     OW57315   9.306   3.074   3.896  0.2801  0.2797 -0.0144
17332SOL    HW157316   9.355   3.001   3.858 -0.5943  0.7802 -2.2545
17332SOL    HW257317   9.214   3.047   3.888 -0.0478  1.5570 -0.7907
17333SOL     OW57318  10.308   3.601   4.628  0.1175  0.0356 -0.1635
17333SOL    HW157319  10.217   3.631   4.635 -0.3064 -0.5113 -2.3551
17333SOL    HW257320  10.327   3.605   4.534  1.8635 -1.3291  0.0755
17334SOL     OW57321   8.352  10.926   3.736 -0.3778 -0.2272 -0.5326
17334SOL    HW157322   8.390  10.920   3.824 -1.3256  2.7717  0.2017
17334SOL    HW257323   8.427  10.925   3.677  0.6848  2.0366  0.6609
17335SOL     OW57324   8.141   2.543   9.273  0.9075 -0.1679  0.2603
17335SOL    HW157325   8.208   2.531   9.206  1.5392 -1.3233  1.0632
17335SOL    HW257326   8.128   2.456   9.310 -1.6486 -0.1363 -0.4086
17336SOL     OW57327  10.844   9.663   5.524  0.1547  0.1923 -0.0807
17336SOL    HW157328  10.788   9.672   5.600 -0.2202 -0.2449 -0.3021
17336SOL    HW257329  10.843   9.749   5.482  1.7039  0.9459  1.3109
17337SOL     OW57330   1.836   9.250   8.927 -0.1597  0.4028 -0.4701
17337SOL    HW157331   1.804   9.215   9.010  1.0169 -1.6177 -0.7895
17337SOL    HW257332   1.766   9.231   8.864  0.1330 -0.7511 -0.4766
17338SOL     OW57333   2.189   3.618   4.316  0.2678  0.3146 -0.1948
17338SOL    HW157334   2.126   3.676   4.274  1.0210  1.2460 -0.0717
17338SOL    HW257335   2.145   3.534   4.321 -0.7065  0.7833 -0.7221
17339SOL     OW57336   6.020  11.492  11.456 -0.5393  0.3927  0.3328
17339SOL    HW157337   5.953  11.445  11.407 -1.4833  3.2086 -1.2608
17339SOL    HW257338   5.976  11.522  11.535 -0.1877 -0.5197  0.8978
17340SOL     OW57339   4.817  10.924   6.691  0.7068  0.3287  0.3039
17340SOL    HW157340   4.811  11.012   6.656  0.4389 -0.4848 -1.8326
17340SOL    HW257341   4.884  10.881   6.639  0.2018 -0.9990  0.6947
17341SOL     OW57342   8.008   0.164   6.519 -0.3709  0.0216  0.4466
17341SOL    HW157343   7.933   0.108   6.498  0.6159 -0.9689 -0.6039
17341SOL    HW257344   8.019   0.155   6.613 -0.3046 -1.4759  0.3106
17342SOL     OW57345   7.265   7.699   0.741  0.0390 -0.4611  0.9156
17342SOL    HW157346   7.212   7.770   0.777  0.2415 -0.6344  1.5724
17342SOL    HW257347   7.266   7.633   0.810  2.1654  0.0717  1.4658
17343SOL     OW57348   1.157   6.317   6.496  0.2945 -0.2077  0.1543
17343SOL    HW157349   1.178   6.301   6.588 -1.0012  3.6832  1.3236
17343SOL    HW257350   1.071   6.277   6.484  0.5666 -0.9310  0.5552
17344SOL     OW57351   1.071   6.866   3.881 -0.0728  0.6224 -0.2426
17344SOL    HW157352   1.117   6.927   3.823  1.2822 -0.5589 -0.4874
17344SOL    HW257353   1.024   6.808   3.821  1.9204 -1.0681 -0.3184
17345SOL     OW57354   6.897   4.594  10.755 -0.6016 -0.0636  0.4175
17345SOL    HW157355   6.851   4.638  10.683 -1.2686  0.9281  1.3997
17345SOL    HW257356   6.892   4.501  10.734 -0.8056  0.2046 -0.7946
17346SOL     OW57357   9.660   4.897   3.717  0.2704 -0.1912 -0.0727
17346SOL    HW157358   9.641   4.806   3.694  1.2124 -0.0863 -1.3775
17346SOL    HW257359   9.602   4.948   3.661  0.9506  0.0295 -0.5899
17347SOL     OW57360  11.330   0.063   3.408  0.7684 -0.3359 -0.6278
17347SOL    HW157361  11.270   0.039   3.478  2.2911 -2.7957 -0.0238
17347SOL    HW257362  11.312   0.155   3.391  0.0518  0.2622  2.7050
17348SOL     OW57363   2.994   2.990   6.652  0.0955 -0.1888 -0.0240
17348SOL    HW157364   3.009   2.961   6.742  0.3895  0.7367  0.2361
17348SOL    HW257365   2.931   2.927   6.617 -0.6394 -0.1005  1.0839
17349SOL     OW57366   4.733   8.665   1.174  0.2861  0.2530  0.0498
17349SOL    HW157367   4.774   8.608   1.239  1.4836  1.1330  0.1012
17349SOL    HW257368   4.787   8.744   1.174 -0.8549  1.0564 -0.6128
17350SOL     OW57369   6.557   5.184  10.830  0.1311 -0.3444  0.2607
17350SOL    HW157370   6.563   5.277  10.809 -0.0058 -0.3175  0.3366
17350SOL    HW257371   6.517   5.182  10.917  0.2565 -0.4695  0.3164
17351SOL     OW57372   8.149   8.012   4.876 -0.1105 -0.2864 -0.3620
17351SOL    HW157373   8.141   8.008   4.780 -2.1239  3.6215 -0.5579
17351SOL    HW257374   8.235   8.051   4.891 -0.1684 -0.0620 -0.6101
17352SOL     OW57375   9.861   8.703  10.691  0.2929 -0.2804  0.5058
17352SOL    HW157376   9.930   8.752  10.735 -0.1479  0.9297 -0.0877
17352SOL    HW257377   9.780   8.750  10.712 -0.1632 -0.8088 -0.0044
17353SOL     OW57378   0.771   1.460   2.932 -0.2995 -0.5456  0.1373
17353SOL    HW157379   0.838   1.522   2.901 -2.1900  1.2392 -0.6661
17353SOL    HW257380   0.742   1.497   3.015 -1.1582 -0.5637 -0.1468
17354SOL     OW57381  10.150   1.328   9.165  0.1870  0.4050 -0.6435
17354SOL    HW157382  10.161   1.390   9.237  0.5078 -0.3065 -0.0671
17354SOL    HW257383  10.193   1.248   9.195  0.1009  0.0138 -1.5237
17355SOL     OW57384   0.580  11.546   1.515  0.8417 -0.0641  0.6447
17355SOL    HW157385   0.578  11.609   1.444  0.4834 -0.4161  0.3364
17355SOL    HW257386   0.525  11.473   1.485 -0.8697  0.5705  2.0031
17356SOL     OW57387   7.238   3.553   0.001 -0.2418 -0.4809 -0.3354
17356SOL    HW157388   7.279   3.467  -0.004  3.0966  0.8496  1.1985
17356SOL    HW257389   7.239   3.575   0.094  1.0701  2.0562 -0.8630
17357SOL     OW57390   6.274   1.460   0.909  1.3273 -0.1445  0.1699
17357SOL    HW157391   6.301   1.372   0.884  1.7103  0.1515 -0.5086
17357SOL    HW257392   6.179   1.454   0.922  1.2099 -0.4671 -0.7654
17358SOL     OW57393  10.122   0.175   2.360 -0.3411 -0.2486 -0.1612
17358SOL    HW157394  10.172   0.225   2.295  1.0256  0.8034  1.6194
17358SOL    HW257395  10.114   0.088   2.321  0.9956  0.1613 -1.4582
17359SOL     OW57396   9.037   2.470   6.996 -0.1094  0.9106  0.0857
17359SOL    HW157397   9.031   2.375   6.986  3.5421  0.5727 -0.4809
17359SOL    HW257398   9.014   2.505   6.910 -0.7685  0.5146  0.0937
17360SOL     OW57399   8.066   3.248   1.758  0.1135 -0.2912  0.2244
17360SOL    HW157400   8.097   3.311   1.823 -0.8257 -1.1034  1.5178
17360SOL    HW257401   8.002   3.296   1.706  1.0592  0.4433 -0.2930
17361SOL     OW57402   5.121   3.798   9.748  0.4289  0.3145  0.4164
17361SOL    HW157403   5.068   3.807   9.827  2.4090 -0.0935  1.8731
17361SOL    HW257404   5.194   3.858   9.762 -1.5597  4.2379 -3.4299
17362SOL     OW57405   6.605   7.886   8.623  0.2001 -0.1908  0.1221
17362SOL    HW157406   6.593   7.804   8.575 -0.3567 -2.2571  3.4426
17362SOL    HW257407   6.674   7.866   8.686 -0.5393  1.6175  1.5907
17363SOL     OW57408  10.468   3.180   5.275  0.5335 -0.3900  0.5416
17363SOL    HW157409  10.406   3.225   5.332  0.8243 -0.3409  0.8195
17363SOL    HW257410  10.495   3.247   5.212  0.7496 -0.2544  0.7795
17364SOL     OW57411   1.491   9.386   3.475 -0.2871  0.5443  0.0914
17364SOL    HW157412   1.410   9.419   3.436  0.0187 -0.2487 -1.2426
17364SOL    HW257413   1.515   9.311   3.422  0.1865 -0.5684  1.7920
17365SOL     OW57414   9.735   5.927   1.209  0.3233  0.0393  0.2013
17365SOL    HW157415   9.670   5.994   1.228 -0.1294 -0.0029 -1.1201
17365SOL    HW257416   9.758   5.940   1.118  1.3519 -0.6604  0.3401
17366SOL     OW57417   3.112   1.685   6.270  0.7129  0.2321  0.3428
17366SOL    HW157418   3.038   1.627   6.251  0.3844  0.8953 -0.4240
17366SOL    HW257419   3.088   1.729   6.351  0.0641  0.7799 -0.1443
17367SOL     OW57420   3.588   8.223   6.064 -0.2591 -0.0110  0.3527
17367SOL    HW157421   3.555   8.265   5.985  1.9199  0.2207 -0.5175
17367SOL    HW257422   3.576   8.288   6.133 -0.0988  0.6837 -0.2696
17368SOL     OW57423   0.068   5.661   2.149 -0.0919  0.1275 -0.3958
17368SOL    HW157424   0.079   5.660   2.054 -1.7482  0.1549 -0.6070
17368SOL    HW257425   0.083   5.752   2.174 -0.7793  0.3493 -0.7792
17369SOL     OW57426   6.366   3.390   9.835  0.4098  0.2921  0.5510
17369SOL    HW157427   6.280   3.425   9.812 -0.0650 -1.8256 -1.2597
17369SOL    HW257428   6.347   3.314   9.889  1.2184  0.4457  1.0720
17370SOL     OW57429   2.664   0.499   8.846 -0.2672 -0.4076 -0.0738
17370SOL    HW157430   2.622   0.569   8.896  0.6388 -0.0548  0.2153
17370SOL    HW257431   2.649   0.523   8.754  1.4651  1.1009 -0.0149
17371SOL     OW57432   0.574   0.644   1.317 -0.2063 -0.0276  0.4160
17371SOL    HW157433   0.522   0.574   1.279  1.9085 -2.5189  1.7765
17371SOL    HW257434   0.594   0.702   1.244 -2.1338 -0.7222 -0.7270
17372SOL     OW57435   4.421   3.352   9.597  0.0663  0.9057 -0.9684
17372SOL    HW157436   4.467   3.401   9.529  0.2664  2.3475  0.1462
17372SOL    HW257437   4.430   3.407   9.675 -0.5405 -0.4816  0.1084
17373SOL     OW57438   4.140   1.819   8.107  0.0816  0.1756  0.0505
17373SOL    HW157439   4.157   1.910   8.132 -1.0819  0.6285 -0.7505
17373SOL    HW257440   4.216   1.771   8.140 -0.5046  0.9863  2.8508
17374SOL     OW57441   1.272   2.100   9.076  0.2344 -0.2040  0.0636
17374SOL    HW157442   1.178   2.104   9.092  0.2282 -0.6639  0.1612
17374SOL    HW257443   1.305   2.037   9.140  0.5512 -0.3319 -0.2193
17375SOL     OW57444   3.298   3.199  10.484 -0.0508 -0.2695  0.2990
17375SOL    HW157445   3.216   3.244  10.463  0.4727  1.1427  1.1249
17375SOL    HW257446   3.335   3.176  10.399 -1.4125 -1.1760 -0.0783
17376SOL     OW57447   2.771  11.434   3.528  0.2550 -0.4292  0.4981
17376SOL    HW157448   2.730  11.355   3.562  0.8826  0.0014  2.3934
17376SOL    HW257449   2.865  11.420   3.543  0.4072  0.4651  0.4171
17377SOL     OW57450   6.525  11.822   0.045  0.2662  0.6977 -0.0675
17377SOL    HW157451   6.533  11.882  -0.028  1.2318 -0.1469 -0.6917
17377SOL    HW257452   6.614  11.812   0.079 -0.0182  0.3551  0.6255
17378SOL     OW57453   5.199   7.148   5.201  0.0947 -0.0815  0.0845
17378SOL    HW157454   5.178   7.236   5.234 -1.1124 -1.1563  2.3893
17378SOL    HW257455   5.252   7.109   5.270 -2.4996 -2.4169  0.9454
17379SOL     OW57456   2.423  11.577   6.143  0.2057  0.6569  0.0760
17379SOL    HW157457   2.346  11.519   6.150  0.7789 -0.0277  0.8637
17379SOL    HW257458   2.468  11.567   6.227  1.2294  0.9536 -0.4279
17380SOL     OW57459   0.356   7.929   0.238  0.0753 -0.4321 -0.0209
17380SOL    HW157460   0.444   7.963   0.250 -0.5042  1.0889  0.1984
17380SOL    HW257461   0.299   8.003   0.258 -1.2298 -0.9931 -1.4813
17381SOL     OW57462  11.649   4.238   9.934  0.2892  0.7017  0.5148
17381SOL    HW157463  11.741   4.224   9.910  0.1340  0.6676 -0.0751
17381SOL    HW257464  11.600   4.223   9.853 -0.2788  0.2853  0.9207
17382SOL     OW57465   8.309   6.579   6.231  0.8668 -0.5739 -0.0899
17382SOL    HW157466   8.299   6.666   6.192  0.6962 -0.3101  0.5361
17382SOL    HW257467   8.303   6.518   6.156  2.0369 -0.0042 -0.6756
17383SOL     OW57468   1.063   4.553   7.710 -0.2274  0.4036 -0.5822
17383SOL    HW157469   1.071   4.630   7.653 -0.3390  0.2931 -0.7479
17383SOL    HW257470   1.036   4.588   7.794  2.4702  0.8819  0.1764
17384SOL     OW57471   5.385   1.093   9.854  0.0792 -0.0202 -0.1766
17384SOL    HW157472   5.436   1.163   9.813  0.9397 -1.3899 -1.4826
17384SOL    HW257473   5.407   1.014   9.806 -4.0838 -0.5796 -1.5860
17385SOL     OW57474   2.264   0.860  10.432  0.3343 -0.4096  0.6644
17385SOL    HW157475   2.193   0.842  10.371  1.1206 -1.6295  0.0615
17385SOL    HW257476   2.285   0.774  10.470  2.5273 -0.3990 -0.3714
17386SOL     OW57477   8.967   8.898  10.307 -0.2415  0.9246 -0.0544
17386SOL    HW157478   8.975   8.877  10.214  0.2328 -0.6797  0.3256
17386SOL    HW257479   8.873   8.891  10.326 -0.3462  1.3236 -0.4199
17387SOL     OW57480   3.214   9.309   1.811 -0.3849  0.3257  0.5068
17387SOL    HW157481   3.170   9.308   1.896 -1.0112  1.0448  0.2003
17387SOL    HW257482   3.236   9.401   1.797  0.8919  0.0277  0.4758
17388SOL     OW57483   7.675   3.966   9.010 -0.3522 -0.0672 -0.0186
17388SOL    HW157484   7.709   4.055   8.999 -0.7477  0.0747 -0.0989
17388SOL    HW257485   7.631   3.947   8.927 -1.7065  0.2907  0.5926
17389SOL     OW57486   9.306   2.840   4.527 -0.2456 -0.9460  0.3623
17389SOL    HW157487   9.349   2.758   4.553  0.3517 -1.6487 -2.5125
17389SOL    HW257488   9.367   2.908   4.555  0.5170 -1.6591  0.5040
17390SOL     OW57489   3.533   6.853   5.072 -0.0520 -0.1993 -0.3894
17390SOL    HW157490   3.586   6.932   5.075  0.3796 -0.5154  1.0173
17390SOL    HW257491   3.443   6.883   5.083 -0.0587  0.2302 -1.5422
17391SOL     OW57492   8.468  11.269   3.160  0.2261  0.3627 -0.0884
17391SOL    HW157493   8.459  11.173   3.157 -0.2154  0.4213 -0.7705
17391SOL    HW257494   8.413  11.300   3.089 -0.4965  1.1973  0.8239
17392SOL     OW57495   8.486   1.075   0.628  0.6546  0.3700 -0.2057
17392SOL    HW157496   8.424   1.002   0.627  0.0293  0.8831  0.1104
17392SOL    HW257497   8.538   1.063   0.707 -0.2367  0.8971  0.4797
17393SOL     OW57498   8.109   9.262   9.122 -0.0383  0.3808 -0.0551
17393SOL    HW157499   8.165   9.339   9.125 -0.3290  0.5798  1.6418
17393SOL    HW257500   8.154   9.201   9.065  1.7736  0.6562  1.0092
17394SOL     OW57501   6.023   9.828  10.049  0.1981 -0.4398 -0.1014
17394SOL    HW157502   6.005   9.759  10.113 -0.6769 -0.4427 -0.3413
17394SOL    HW257503   6.115   9.850  10.063 -0.4452  0.9883  2.5277
17395SOL     OW57504   8.030   5.158   9.243 -0.1541 -0.7006 -0.1809
17395SOL    HW157505   8.075   5.100   9.182  0.7660 -0.3424  0.1370
17395SOL    HW257506   8.067   5.135   9.329 -0.6139 -0.4275  0.0939
17396SOL     OW57507   8.617   6.521   5.142  0.4027 -0.3597 -0.7108
17396SOL    HW157508   8.691   6.567   5.101  0.5328 -0.1279 -0.2370
17396SOL    HW257509   8.639   6.428   5.135  1.7390 -0.2401  1.1891
17397SOL     OW57510   9.189   8.929   9.934  0.1527  0.3692  0.1396
17397SOL    HW157511   9.279   8.955   9.917  0.5237 -0.1346  1.2729
17397SOL    HW257512   9.162   8.985  10.007 -0.0799 -0.2598  0.5372
17398SOL     OW57513   8.348   5.946   5.410  0.3286  0.0521  0.1604
17398SOL    HW157514   8.400   5.949   5.329  2.6582 -0.8374  1.5153
17398SOL    HW257515   8.329   5.853   5.422 -1.6694  0.3581 -0.2899
17399SOL     OW57516   3.649   5.610   2.170 -0.5091  0.2814 -0.3159
17399SOL    HW157517   3.580   5.668   2.138 -0.1294  1.0191  0.1717
17399SOL    HW257518   3.680   5.564   2.092 -0.7556  0.8001 -0.7291
17400SOL     OW57519  11.423  11.219   3.479 -0.3513 -0.4279  0.0153
17400SOL    HW157520  11.499  11.246   3.531 -1.6244  2.7269  0.4253
17400SOL    HW257521  11.458  11.207   3.391  0.7633  0.2233  0.3464
17401SOL     OW57522   9.429   7.201  10.498 -0.1987  0.0474  0.0262
17401SOL    HW157523   9.464   7.208  10.587  0.4576 -1.6399 -0.0599
17401SOL    HW257524   9.488   7.255  10.445  2.2035 -2.4208 -0.0533
17402SOL     OW57525  11.638   0.819   8.844  0.0026  0.1226 -0.4437
17402SOL    HW157526  11.559   0.766   8.853 -0.2988  0.1251 -2.4589
17402SOL    HW257527  11.710   0.756   8.850 -0.3757 -0.7738 -3.5462
17403SOL     OW57528   3.754   2.572   2.396 -0.2302 -0.9895  0.1788
17403SOL    HW157529   3.739   2.556   2.489  0.1403 -0.5651  0.3132
17403SOL    HW257530   3.849   2.567   2.386 -0.2687 -1.0116 -0.1749
17404SOL     OW57531   3.431   4.468   1.258  0.3406  0.0166 -0.2534
17404SOL    HW157532   3.479   4.550   1.270 -0.5440  0.8385 -1.9637
17404SOL    HW257533   3.401   4.444   1.346 -0.5323  2.2402  0.1084
17405SOL     OW57534   0.821   0.641   9.871 -0.7779 -0.2553  0.4217
17405SOL    HW157535   0.892   0.686   9.825 -1.3471 -0.4026 -0.6308
17405SOL    HW257536   0.785   0.707   9.930 -0.8935  0.3485 -0.3104
17406SOL     OW57537   9.825  11.152   7.701  0.1688  0.7640  0.2925
17406SOL    HW157538   9.906  11.162   7.751  1.1825 -1.6187 -0.7457
17406SOL    HW257539   9.848  11.096   7.628 -2.6768 -1.1308  0.6765
17407SOL     OW57540   5.348   1.364   3.250 -0.0287 -0.0950 -0.1288
17407SOL    HW157541   5.432   1.324   3.228  0.6171 -0.9349  3.2585
17407SOL    HW257542   5.296   1.292   3.286 -0.8609  1.0822  1.1146
17408SOL     OW57543   0.497   8.290   0.513 -0.5066  0.2938 -0.5209
17408SOL    HW157544   0.554   8.351   0.562 -0.1712 -1.5477  1.5447
17408SOL    HW257545   0.411   8.332   0.514 -0.2878  0.7888  0.8865
17409SOL     OW57546   4.350   8.338   7.913  0.0039 -0.1320 -0.2989
17409SOL    HW157547   4.310   8.425   7.901  0.1389  0.0713  0.6267
17409SOL    HW257548   4.443   8.357   7.926 -0.1170 -0.3176  0.9447
17410SOL     OW57549   3.399  10.864   3.904  0.6311  0.3128  0.8942
17410SOL    HW157550   3.412  10.832   3.814 -0.0318  1.5985  0.3260
17410SOL    HW257551   3.413  10.958   3.898 -1.1276  0.6563  1.7994
17411SOL     OW57552   6.188   0.743   0.560  0.7321  0.4626 -0.3499
17411SOL    HW157553   6.180   0.787   0.645  1.5284 -2.1920  1.1985
17411SOL    HW257554   6.106   0.694   0.550  0.6836  0.6823 -1.0983
17412SOL     OW57555   8.085   3.452   8.706 -0.3250 -0.3802 -0.3917
17412SOL    HW157556   8.165   3.411   8.675 -0.3568  0.8094 -2.1345
17412SOL    HW257557   8.100   3.546   8.697 -1.5708 -0.1025  0.1459
17413SOL     OW57558  10.234   4.744   9.548 -0.4230  0.2780  0.3139
17413SOL    HW157559  10.270   4.712   9.465 -0.5913 -1.5303  0.8960
17413SOL    HW257560  10.240   4.839   9.541  0.0253  0.1602 -1.5637
17414SOL     OW57561   2.269   9.147   3.363  0.1029 -0.1932  0.0616
17414SOL    HW157562   2.354   9.119   3.329 -1.1961 -1.9203 -2.0326
17414SOL    HW257563   2.267   9.112   3.452  2.2775  1.5190  0.8816
17415SOL     OW57564   1.650  11.576   9.451 -0.4521  0.7015  0.3781
17415SOL    HW157565   1.582  11.516   9.419  0.9277 -1.4131  1.1841
17415SOL    HW257566   1.727  11.556   9.398  0.9308 -0.5698  2.7175
17416SOL     OW57567   9.782   7.651   8.320 -0.7472 -0.0073 -0.0975
17416SOL    HW157568   9.805   7.564   8.287 -0.1538 -0.2713  0.9465
17416SOL    HW257569   9.734   7.633   8.401  0.1114  0.6363  0.5722
17417SOL     OW57570   2.309   8.755   5.304  0.0490  0.1348 -0.2166
17417SOL    HW157571   2.357   8.682   5.265 -1.5737 -1.7051  1.0497
17417SOL    HW257572   2.334   8.753   5.397 -1.8200 -0.4085  0.3232
17418SOL     OW57573   2.369   7.312   1.787 -0.4459  0.4666 -0.0763
17418SOL    HW157574   2.311   7.386   1.768 -1.2431 -0.1259 -0.0048
17418SOL    HW257575   2.325   7.265   1.859  0.7788  0.7281  0.8763
17419SOL     OW57576   9.755   5.977   3.379 -0.8366 -0.0857  0.2730
17419SOL    HW157577   9.780   6.012   3.294  0.4298 -0.3368  0.5174
17419SOL    HW257578   9.796   5.891   3.382 -0.1980  0.2301  1.4264
17420SOL     OW57579  10.074   5.828   6.466 -0.5574  0.5771 -0.4689
17420SOL    HW157580   9.994   5.843   6.516 -1.2003 -0.3144 -1.2007
17420SOL    HW257581  10.144   5.859   6.523 -1.5514  4.1207 -0.9016
17421SOL     OW57582   5.314   3.851   8.336 -0.3814  0.7384  0.1260
17421SOL    HW157583   5.393   3.903   8.351  0.5694 -0.5893 -0.1355
17421SOL    HW257584   5.298   3.858   8.242 -0.7205  1.2033  0.2169
17422SOL     OW57585   2.183   1.454   5.524  0.3516 -0.5442  0.1101
17422SOL    HW157586   2.215   1.365   5.538 -0.5167 -0.8618  0.1521
17422SOL    HW257587   2.099   1.443   5.479 -0.2090  0.2143  0.9215
17423SOL     OW57588  10.868   5.144   2.492 -0.1454 -0.2240  0.6133
17423SOL    HW157589  10.900   5.184   2.572  0.6173 -2.6879  1.6392
17423SOL    HW257590  10.924   5.180   2.423 -0.1218  1.1259  1.3082
17424SOL     OW57591   4.481   9.389   6.391  0.0587 -0.8001 -0.1303
17424SOL    HW157592   4.493   9.468   6.338 -0.7869 -0.5035  0.1171
17424SOL    HW257593   4.391   9.362   6.375  0.0961 -1.2671  0.4078
17425SOL     OW57594   9.234   6.156   6.591  0.2756  0.4150 -0.0082
17425SOL    HW157595   9.300   6.147   6.660 -0.9766 -1.0945  1.0480
17425SOL    HW257596   9.164   6.207   6.631 -0.3280 -0.2003 -0.2761
17426SOL     OW57597   3.038   4.102   7.446 -0.0699  0.0885 -0.1509
17426SOL    HW157598   3.062   4.011   7.462 -1.3582 -0.2450 -0.0111
17426SOL    HW257599   2.948   4.098   7.416 -0.2457  1.3554  0.1520
17427SOL     OW57600   4.834   2.123   0.246  0.0887  0.2545  0.1147
17427SOL    HW157601   4.884   2.044   0.225 -0.4835 -0.0988  0.0813
17427SOL    HW257602   4.894   2.195   0.225  0.3918 -0.1521 -0.4416
17428SOL     OW57603   8.873   4.447   8.031  0.1791 -0.9393  0.6473
17428SOL    HW157604   8.882   4.429   8.124  0.7515 -1.3544  0.5215
17428SOL    HW257605   8.779   4.458   8.017  0.0058 -1.7290  1.1198
17429SOL     OW57606   9.647   7.358   7.678  0.4686 -0.2381 -0.0476
17429SOL    HW157607   9.674   7.372   7.587 -1.4415  0.6088 -0.5301
17429SOL    HW257608   9.663   7.443   7.720  1.2246 -0.5902  0.3930
17430SOL     OW57609   0.225   7.433   7.487  0.4256  0.1749  0.3642
17430SOL    HW157610   0.130   7.439   7.473  0.4486  1.3189  0.5887
17430SOL    HW257611   0.245   7.340   7.476 -0.8992 -0.2725  1.3677
17431SOL     OW57612   6.330   1.855  10.399  0.1723  0.3336 -0.0774
17431SOL    HW157613   6.276   1.851  10.478 -0.3095  0.0040 -0.4182
17431SOL    HW257614   6.368   1.942  10.400 -1.5333  1.1297 -0.5999
17432SOL     OW57615   8.255   1.829   7.241  0.2121 -0.2204 -0.1510
17432SOL    HW157616   8.273   1.777   7.320  0.3140  2.3043  1.6348
17432SOL    HW257617   8.209   1.906   7.275 -0.1886  0.7183 -2.6770
17433SOL     OW57618   4.713   2.010   4.516 -0.2920  0.3763 -0.0777
17433SOL    HW157619   4.800   2.048   4.526 -0.5478  0.5679  1.6435
17433SOL    HW257620   4.661   2.078   4.473  0.3908  0.2347 -1.1779
17434SOL     OW57621  11.746   7.398   5.920  0.1173 -0.3502  0.3052
17434SOL    HW157622  11.673   7.357   5.875 -2.4327  1.1963  2.7030
17434SOL    HW257623  11.819   7.338   5.907 -1.9653 -2.8264 -0.8731
17435SOL     OW57624   8.175   4.975   1.906  0.1135  0.1711 -0.1415
17435SOL    HW157625   8.090   5.011   1.930  0.9896  1.2262  1.6409
17435SOL    HW257626   8.161   4.880   1.906 -1.8755  0.3234 -3.4565
17436SOL     OW57627   1.480   2.699   7.773  0.1549 -0.4372 -0.0595
17436SOL    HW157628   1.522   2.693   7.687  0.8159 -0.9457  0.2887
17436SOL    HW257629   1.539   2.652   7.832 -1.2079 -1.6976  0.3488
17437SOL     OW57630  10.019   3.551   4.108 -0.4007  0.2484 -0.0589
17437SOL    HW157631  10.052   3.636   4.080 -0.2875  0.5041  0.8026
17437SOL    HW257632   9.935   3.541   4.065  0.4294 -0.0593 -1.6748
17438SOL     OW57633   5.146   3.625  11.775 -0.7062  0.1858  0.6589
17438SOL    HW157634   5.103   3.688  11.719 -0.2233  1.4443  1.6547
17438SOL    HW257635   5.116   3.646  11.863 -1.0558 -1.4144  0.9670
17439SOL     OW57636   6.070   0.947  11.177 -0.5126 -0.1328  0.1246
17439SOL    HW157637   6.027   1.002  11.111  0.0467  1.1663  0.8187
17439SOL    HW257638   6.003   0.933  11.244 -1.4245 -2.3100 -1.1215
17440SOL     OW57639   6.454   8.143   3.803  0.7324  0.0964  0.8859
17440SOL    HW157640   6.447   8.173   3.894 -2.0437  0.6480  0.5782
17440SOL    HW257641   6.381   8.185   3.758  1.8906 -0.3452 -1.5936
17441SOL     OW57642   9.206   9.780   1.304  0.2114  0.5066  0.3220
17441SOL    HW157643   9.113   9.779   1.327  0.2697  1.2627  0.6314
17441SOL    HW257644   9.243   9.706   1.352 -0.3642 -0.2942 -0.4436
17442SOL     OW57645   2.460   5.278   6.668  0.1959  0.1316 -0.3159
17442SOL    HW157646   2.411   5.279   6.586 -1.0309 -0.3010  0.3849
17442SOL    HW257647   2.423   5.205   6.718  1.3601 -0.0185  0.3716
17443SOL     OW57648   9.079   8.694   9.912  0.4627 -0.4837  0.4969
17443SOL    HW157649   9.142   8.627   9.939  0.3628 -1.0854 -0.6972
17443SOL    HW257650   9.129   8.776   9.911  1.1810 -0.9155 -0.2057
17444SOL     OW57651   1.426   0.794   7.956 -0.3299 -0.1947  0.3141
17444SOL    HW157652   1.354   0.831   7.905  0.5253  1.2753  0.1194
17444SOL    HW257653   1.396   0.797   8.047 -0.4474  0.5927  0.2539
17445SOL     OW57654   5.826   1.052   2.432  0.6529  0.2896  0.6501
17445SOL    HW157655   5.822   1.145   2.455  1.5802  0.3315  0.6828
17445SOL    HW257656   5.836   1.051   2.337  1.5579  0.2542  0.7418
17446SOL     OW57657   0.032   2.304   7.930 -0.1791 -0.2462 -0.2905
17446SOL    HW157658  -0.002   2.321   7.842  0.4999 -2.4141 -1.0359
17446SOL    HW257659   0.128   2.306   7.920 -0.0887 -1.4493  0.1638
17447SOL     OW57660   8.340   5.085   5.287 -0.9568 -0.4300 -0.1569
17447SOL    HW157661   8.295   5.091   5.202 -1.0985 -0.0259 -0.0538
17447SOL    HW257662   8.271   5.059   5.349 -0.8352 -0.8153 -0.1784
17448SOL     OW57663   5.340   3.162   2.863  0.2929 -0.3980 -0.5792
17448SOL    HW157664   5.349   3.228   2.795  0.0001 -1.7703 -1.9976
17448SOL    HW257665   5.421   3.168   2.913  1.1949 -0.4043 -2.0065
17449SOL     OW57666   8.356   2.468   0.801 -0.9686  0.2796 -0.1214
17449SOL    HW157667   8.345   2.377   0.775 -2.8936  0.1827  0.8904
17449SOL    HW257668   8.386   2.464   0.892  2.4835  0.6725 -1.0915
17450SOL     OW57669   6.805  10.377   1.623 -0.0983 -0.0684 -0.1807
17450SOL    HW157670   6.747  10.329   1.563  1.0380  0.6625 -1.9679
17450SOL    HW257671   6.843  10.447   1.569  2.7211 -0.7252  0.7618
17451SOL     OW57672   6.831   2.165  11.288 -0.1291  0.0590  0.2432
17451SOL    HW157673   6.880   2.221  11.227 -1.2038 -0.2751 -0.9590
17451SOL    HW257674   6.887   2.088  11.299  1.1643  1.1281  1.5765
17452SOL     OW57675  11.796   2.445   1.275 -0.0389 -0.3748  0.5511
17452SOL    HW157676  11.737   2.370   1.269 -0.1784 -0.3714  1.6062
17452SOL    HW257677  11.822   2.448   1.368  1.3692 -0.1901  0.1792
17453SOL     OW57678   4.794   7.915   1.380 -0.3964  0.3813 -0.1372
17453SOL    HW157679   4.884   7.944   1.389 -0.3627  0.8591 -1.6774
17453SOL    HW257680   4.741   7.989   1.409 -0.3413 -0.3235  1.9384
17454SOL     OW57681   3.128   1.082   5.955  0.2806  0.3157 -0.0230
17454SOL    HW157682   3.044   1.037   5.969 -0.7062  2.3986  1.2176
17454SOL    HW257683   3.180   1.060   6.031  1.3196 -1.7656 -1.2448
17455SOL     OW57684   8.758   7.942  10.019  0.4530  0.5915 -0.1859
17455SOL    HW157685   8.672   7.975  10.045  0.9317  1.3909  0.4259
17455SOL    HW257686   8.740   7.855   9.984 -0.5540  0.5591  0.3590
17456SOL     OW57687   6.773   2.397   3.365 -0.3578  0.1404  0.1044
17456SOL    HW157688   6.852   2.370   3.411  0.6696  3.3870  0.4635
17456SOL    HW257689   6.785   2.365   3.276  0.6534 -0.6256  0.4930
17457SOL     OW57690   3.184   6.183  10.140  0.5395 -0.3314  0.4514
17457SOL    HW157691   3.196   6.278  10.143 -0.2754 -0.2378  1.8156
17457SOL    HW257692   3.164   6.164  10.049  0.3412  0.8618  0.2337
17458SOL     OW57693   8.380   7.500   6.462 -0.4274 -0.4799 -0.2447
17458SOL    HW157694   8.472   7.478   6.473  0.1210  0.2270 -2.7530
17458SOL    HW257695   8.355   7.542   6.545  0.9795 -2.1942  1.1236
17459SOL     OW57696   5.685   4.987   0.412 -0.0440  0.1580  0.3374
17459SOL    HW157697   5.596   5.019   0.427 -0.4171  0.7237 -2.5609
17459SOL    HW257698   5.674   4.896   0.385  0.3795 -0.1232  1.0752
17460SOL     OW57699   7.948   0.202   2.264 -0.1619  0.1022 -0.1312
17460SOL    HW157700   7.875   0.182   2.204 -0.4768 -0.7357  0.5033
17460SOL    HW257701   8.013   0.134   2.247 -0.6646 -0.7411  1.1171
17461SOL     OW57702   7.748   6.746   5.016 -0.2310 -0.2571 -0.4750
17461SOL    HW157703   7.804   6.818   5.046 -0.5317  0.5234 -1.6848
17461SOL    HW257704   7.673   6.790   4.974 -1.6984 -1.2668  0.9551
17462SOL     OW57705   3.618   0.280   7.581  0.4331  0.2005 -0.1778
17462SOL    HW157706   3.534   0.324   7.576  0.2010 -0.2723 -0.4891
17462SOL    HW257707   3.670   0.320   7.511  0.4855  0.5166  0.0373
17463SOL     OW57708   5.602  11.482   0.902 -0.5029  0.2628  0.4882
17463SOL    HW157709   5.526  11.482   0.960 -1.4419  0.3935 -0.6993
17463SOL    HW257710   5.608  11.393   0.869 -0.7065  0.4708 -0.1245
17464SOL     OW57711   7.846   2.676   0.007  0.0734 -0.1889 -0.5580
17464SOL    HW157712   7.761   2.714   0.029  0.0614 -1.1186  1.2202
17464SOL    HW257713   7.901   2.751  -0.016 -1.1041  0.4532 -1.3807
17465SOL     OW57714   2.735   1.400   0.254  0.2275  0.1996 -0.2494
17465SOL    HW157715   2.803   1.454   0.295  0.4905 -0.0193 -0.3979
17465SOL    HW257716   2.696   1.351   0.327  0.9667 -0.4918 -0.3074
17466SOL     OW57717   5.868   4.906   1.170  0.3600 -0.2022  0.0295
17466SOL    HW157718   5.793   4.879   1.223  0.0676 -0.9392 -0.7334
17466SOL    HW257719   5.932   4.836   1.181 -0.0103 -0.7443 -1.1914
17467SOL     OW57720  10.695   8.385   0.614 -0.0884  0.5675  0.1940
17467SOL    HW157721  10.703   8.475   0.581  0.5604  0.4755  0.0775
17467SOL    HW257722  10.775   8.342   0.584 -0.9285 -0.3777 -0.7068
17468SOL     OW57723   2.485   4.286   3.170 -0.0926 -0.0280  0.3379
17468SOL    HW157724   2.548   4.256   3.104 -0.4240  1.6006 -0.7735
17468SOL    HW257725   2.414   4.222   3.165  0.5345 -0.7362  0.1640
17469SOL     OW57726   4.682   0.976   2.317  0.1321 -0.5321  0.2469
17469SOL    HW157727   4.730   0.909   2.367 -0.7321 -0.8957  0.5988
17469SOL    HW257728   4.674   0.939   2.229  0.8854 -0.2726  0.0616
17470SOL     OW57729   8.758   5.614  11.198  0.4091 -0.7052  0.2927
17470SOL    HW157730   8.810   5.681  11.155  3.1016 -1.8902  1.4712
17470SOL    HW257731   8.793   5.531  11.165 -2.1088 -1.6328 -0.3240
17471SOL     OW57732   8.350   8.808   3.892  0.4668  0.2264 -0.1018
17471SOL    HW157733   8.309   8.888   3.859  0.6804  1.9396  3.3292
17471SOL    HW257734   8.443   8.829   3.898  0.9082 -1.1843 -1.3347
17472SOL     OW57735   9.108   8.000   6.695  0.0607  0.3341  0.1799
17472SOL    HW157736   9.054   8.045   6.760  1.9744  1.2088  1.2445
17472SOL    HW257737   9.160   8.069   6.655  1.0291 -0.5692 -0.1788
17473SOL     OW57738   8.305  11.298  11.071  0.7428  0.6765 -0.4281
17473SOL    HW157739   8.295  11.301  11.166 -0.8207 -0.1258 -0.5355
17473SOL    HW257740   8.386  11.249  11.057  1.8191  2.1096  0.4757
17474SOL     OW57741   3.985   1.368  11.386 -0.0344 -0.1452  0.0916
17474SOL    HW157742   4.053   1.362  11.320 -1.1348  0.5420 -1.1512
17474SOL    HW257743   4.031   1.392  11.467  1.4428 -1.8334 -0.1844
17475SOL     OW57744   1.088   1.536  10.280 -0.0298 -0.0634 -0.2941
17475SOL    HW157745   1.165   1.509  10.229  1.0652  0.0060  1.2349
17475SOL    HW257746   1.123   1.554  10.367 -1.6089  1.1343  0.1400
17476SOL     OW57747   6.144   6.782   9.878  0.1971 -0.7451  0.4506
17476SOL    HW157748   6.200   6.766   9.954  1.6742  2.5157  0.2278
17476SOL    HW257749   6.203   6.817   9.811 -1.6970  0.3497 -0.7497
17477SOL     OW57750   6.130   7.712  10.489  0.0848 -0.4245  0.4361
17477SOL    HW157751   6.110   7.703  10.395  0.5767  0.9997  0.1626
17477SOL    HW257752   6.224   7.700  10.495 -0.0132 -1.0250  0.8325
17478SOL     OW57753   3.451   4.770  10.628  0.0609  0.1675  0.1869
17478SOL    HW157754   3.528   4.804  10.581  0.0431  0.5096  0.4016
17478SOL    HW257755   3.410   4.709  10.566 -0.3030  1.0642 -0.4749
17479SOL     OW57756   7.862   1.992   3.991  0.3150  0.6410 -0.9670
17479SOL    HW157757   7.835   1.909   4.031 -1.5001  1.0155 -1.3260
17479SOL    HW257758   7.813   1.996   3.909 -1.0957  2.9135 -0.0996
17480SOL     OW57759   1.183   4.037  11.055  0.4749 -0.3292 -0.0243
17480SOL    HW157760   1.096   4.060  11.024  1.9718  1.8489 -3.0203
17480SOL    HW257761   1.200   4.098  11.127 -0.9482 -1.8383  1.7152
17481SOL     OW57762   5.478   8.147   6.742  0.3483  0.1286  0.0570
17481SOL    HW157763   5.556   8.109   6.703  1.2310  0.7791  1.1300
17481SOL    HW257764   5.410   8.080   6.729  1.3222 -0.8829 -0.0077
17482SOL     OW57765   4.782   5.775   8.942 -0.6330 -0.6288  0.0617
17482SOL    HW157766   4.832   5.804   9.019 -0.9974  1.3255 -0.3832
17482SOL    HW257767   4.702   5.736   8.979 -1.3472  1.3207  0.7232
17483SOL     OW57768   3.497   4.734   2.811 -0.1721 -0.4070  0.1046
17483SOL    HW157769   3.590   4.710   2.818 -0.2841 -0.4934  2.0009
17483SOL    HW257770   3.478   4.730   2.718  1.8099 -0.0883 -0.3672
17484SOL     OW57771   1.780   0.046   3.062 -0.2901  0.2474  0.3139
17484SOL    HW157772   1.725   0.094   3.125  0.0866  2.2402 -0.7893
17484SOL    HW257773   1.767   0.092   2.979  0.5806 -1.2388 -0.6857
17485SOL     OW57774   9.637   6.590   7.949  0.4214 -0.2905 -0.1955
17485SOL    HW157775   9.551   6.552   7.969  1.7739 -3.3241  0.5528
17485SOL    HW257776   9.653   6.651   8.021 -0.9216  0.0063 -0.1198
17486SOL     OW57777   8.559   5.170   5.436 -0.3112  0.0374 -0.1555
17486SOL    HW157778   8.576   5.090   5.485 -0.5042  0.5912  0.8510
17486SOL    HW257779   8.517   5.141   5.355 -0.3957 -0.8687  0.2075
17487SOL     OW57780   8.797   7.307   6.186  0.7012 -0.1691  0.6988
17487SOL    HW157781   8.792   7.231   6.128 -1.0123  0.8753 -0.6134
17487SOL    HW257782   8.860   7.282   6.252 -0.9346 -3.3879  1.2476
17488SOL     OW57783   9.527   5.742   9.963 -0.0754  0.2147 -0.0354
17488SOL    HW157784   9.444   5.712  10.001  0.2580  0.2305  0.7082
17488SOL    HW257785   9.517   5.726   9.869 -1.2984  1.1103 -0.0792
17489SOL     OW57786   4.000   0.781   7.869 -0.4603  0.1436 -0.0509
17489SOL    HW157787   4.026   0.873   7.860  1.8058 -0.5940 -2.1982
17489SOL    HW257788   4.007   0.763   7.963 -1.1918  2.1906  0.4484
17490SOL     OW57789   4.519   6.206   0.955 -0.5253 -0.2112 -1.0434
17490SOL    HW157790   4.428   6.238   0.952 -1.1876 -1.8320  0.0150
17490SOL    HW257791   4.560   6.242   0.876 -2.3685 -0.1991 -2.0636
17491SOL     OW57792  11.064   9.009   3.720  0.2358 -0.0519 -0.2815
17491SOL    HW157793  11.022   8.925   3.704  1.2170 -1.0055  1.8226
17491SOL    HW257794  11.139   9.010   3.660 -0.1005 -0.4119 -0.7180
17492SOL     OW57795   7.382  11.588   6.469  0.1340 -0.0109 -0.8591
17492SOL    HW157796   7.397  11.666   6.414 -0.5448  0.9597  0.2926
17492SOL    HW257797   7.305  11.610   6.522 -0.4933 -1.7458 -0.9797
17493SOL     OW57798   1.516   7.080   3.709  0.2077  0.3298  0.2585
17493SOL    HW157799   1.449   7.061   3.774 -1.3019  1.5315 -0.8674
17493SOL    HW257800   1.511   7.008   3.646  0.6730 -0.0893  0.6948
17494SOL     OW57801   9.282   3.787  10.423 -0.1869  0.3210  0.2499
17494SOL    HW157802   9.342   3.751  10.488  0.1832  1.5409  0.6215
17494SOL    HW257803   9.336   3.804  10.346 -0.5503 -0.7808 -0.2629
17495SOL     OW57804   7.348   6.252   6.797  0.6285  0.0263  0.1686
17495SOL    HW157805   7.338   6.158   6.811 -0.1324 -0.0044 -0.5163
17495SOL    HW257806   7.443   6.267   6.800  0.8565 -0.9899 -1.1097
17496SOL     OW57807   3.624   6.908   8.861  0.5007 -0.5079 -0.3396
17496SOL    HW157808   3.670   6.990   8.879  0.3846 -0.4011 -0.5351
17496SOL    HW257809   3.532   6.930   8.866  0.4688 -0.6819 -0.1422
17497SOL     OW57810   4.610   6.843   6.926  0.1083 -0.0253 -0.3086
17497SOL    HW157811   4.602   6.876   7.015  2.4202 -0.7057  0.2124
17497SOL    HW257812   4.562   6.906   6.873 -3.5020 -0.9031  1.5935
17498SOL     OW57813   3.777   1.005   4.064  0.1143 -0.8387  0.7324
17498SOL    HW157814   3.745   0.946   4.132 -2.1954 -0.6951 -0.1333
17498SOL    HW257815   3.746   1.092   4.092 -0.7476 -0.7613 -0.3909
17499SOL     OW57816   6.373   7.943  10.925 -0.3100 -0.0840 -0.0008
17499SOL    HW157817   6.362   7.982  10.839 -4.8848  0.2533  0.4759
17499SOL    HW257818   6.447   7.989  10.964  0.6604  1.0810 -2.9771
17500SOL     OW57819   4.396   4.300   6.501 -0.2238  0.2795  0.2663
17500SOL    HW157820   4.353   4.360   6.440 -2.4070 -3.5353 -2.3485
17500SOL    HW257821   4.475   4.272   6.455 -1.1626 -1.5561 -0.3358
17501SOL     OW57822  10.392   2.052   2.721 -0.2024 -0.8319 -0.3416
17501SOL    HW157823  10.467   2.094   2.678 -1.5774  0.3804 -1.6627
17501SOL    HW257824  10.341   2.016   2.648 -1.4381 -0.7129  0.4456
17502SOL     OW57825   4.387   8.820   6.678  0.1794 -0.1862  0.0153
17502SOL    HW157826   4.435   8.881   6.621  0.8036  0.3527  1.0945
17502SOL    HW257827   4.395   8.858   6.765  0.3314 -1.6800  0.6709
17503SOL     OW57828  10.956   4.327   7.161 -0.5225 -0.5567 -0.1173
17503SOL    HW157829  10.893   4.372   7.104 -0.0477 -0.1620 -0.3359
17503SOL    HW257830  10.973   4.244   7.118 -1.0180 -0.7403  0.0290
17504SOL     OW57831  10.102   6.221   7.837  0.0506 -0.7467  0.6020
17504SOL    HW157832  10.134   6.150   7.891 -0.3371 -1.1384  0.3194
17504SOL    HW257833  10.083   6.181   7.752 -0.2255 -0.3221  0.4574
17505SOL     OW57834   3.082   1.613   0.008  0.0188 -0.3503 -0.3843
17505SOL    HW157835   3.105   1.543   0.070  0.7270  0.8322  0.7413
17505SOL    HW257836   3.160   1.622  -0.047  1.9440  2.6184  2.4565
17506SOL     OW57837   0.397   7.197   3.276  0.1608 -0.3635 -0.2544
17506SOL    HW157838   0.345   7.209   3.196  0.4788  0.7963 -0.3006
17506SOL    HW257839   0.355   7.255   3.340 -0.3557 -1.6006  0.5677
17507SOL     OW57840   4.831   1.957   6.067 -0.3984 -0.1538 -0.7119
17507SOL    HW157841   4.754   1.983   6.118 -0.9473 -0.8815 -1.1656
17507SOL    HW257842   4.826   1.862   6.062 -0.5228 -0.0915 -2.3751
17508SOL     OW57843   6.039   9.324   6.468  0.4459  0.0439  0.3006
17508SOL    HW157844   6.114   9.381   6.456 -0.7051  1.3071 -1.3188
17508SOL    HW257845   5.963   9.382   6.459 -0.7539 -1.5425 -0.2931
17509SOL     OW57846   7.764   4.375   3.644 -0.0266 -0.2629  0.5510
17509SOL    HW157847   7.725   4.462   3.636  0.9276  0.2397  1.1273
17509SOL    HW257848   7.754   4.353   3.737  1.5707  0.1465  0.8462
17510SOL     OW57849   4.202  11.716  10.687 -0.3323  0.1005  0.2843
17510SOL    HW157850   4.165  11.656  10.623 -1.4228 -0.5571  1.4755
17510SOL    HW257851   4.139  11.787  10.695 -1.7945 -1.3317  2.7684
17511SOL     OW57852   1.111   7.101   4.363 -0.6942  0.8101 -0.1763
17511SOL    HW157853   1.017   7.097   4.380 -0.5214  1.1439  0.9651
17511SOL    HW257854   1.149   7.123   4.448  0.5147 -0.4176 -0.3819
17512SOL     OW57855   8.444   6.346   1.507 -0.1793  0.0851 -0.1538
17512SOL    HW157856   8.527   6.303   1.527  0.2447  1.2953  0.7951
17512SOL    HW257857   8.469   6.429   1.466 -0.9714 -0.2096 -1.2901
17513SOL     OW57858   1.505   2.676   0.429 -0.2885 -0.1108  0.5010
17513SOL    HW157859   1.429   2.646   0.478  1.1810  0.2618  3.1953
17513SOL    HW257860   1.564   2.712   0.495  1.5977  1.0311 -1.6401
17514SOL     OW57861   5.280   2.392  11.472  0.2059  0.2610 -0.1383
17514SOL    HW157862   5.237   2.321  11.520 -2.0287  1.5698 -0.1095
17514SOL    HW257863   5.347   2.424  11.532 -0.1195 -0.4927  0.6473
17515SOL     OW57864   2.729   8.813   3.236 -0.3717 -0.5499 -0.0328
17515SOL    HW157865   2.801   8.858   3.281  0.0411 -0.2709 -0.9518
17515SOL    HW257866   2.663   8.881   3.222 -1.1103 -0.9393  1.3648
17516SOL     OW57867   9.253   7.173  11.343 -0.3088 -0.2869  0.1927
17516SOL    HW157868   9.303   7.253  11.357 -0.8907  0.2909 -0.8747
17516SOL    HW257869   9.316   7.112  11.304 -0.2805  0.2397 -0.6080
17517SOL     OW57870   2.206   6.213   8.800 -0.3090 -0.0290 -0.1289
17517SOL    HW157871   2.269   6.227   8.871  1.0149 -0.4051 -1.2026
17517SOL    HW257872   2.183   6.120   8.805 -2.6852  0.5451  1.7446
17518SOL     OW57873  11.163   0.073  11.029 -0.2065  0.0002  0.3037
17518SOL    HW157874  11.096   0.077  10.960 -1.2076 -0.0450  1.2447
17518SOL    HW257875  11.204  -0.013  11.017  0.4982  0.4794 -0.9873
17519SOL     OW57876   5.134   9.413   7.141 -0.4761 -0.3233  0.5366
17519SOL    HW157877   5.068   9.344   7.129  0.5591 -1.2190 -0.1992
17519SOL    HW257878   5.203   9.392   7.078  0.4778  0.6533  1.2097
17520SOL     OW57879   5.450   3.925   6.072 -0.2785 -0.5496  0.0831
17520SOL    HW157880   5.401   3.920   6.154 -2.3791  0.7759 -1.0124
17520SOL    HW257881   5.388   3.895   6.005  2.0140 -3.6379 -0.8926
17521SOL     OW57882   9.761   9.831  10.207 -0.5897 -0.1969 -0.2465
17521SOL    HW157883   9.708   9.762  10.247 -0.2015 -1.6666 -2.1364
17521SOL    HW257884   9.700   9.903  10.192 -1.1646 -0.3748  1.0813
17522SOL     OW57885  10.252  10.361  10.994  0.1855  0.1865  0.3570
17522SOL    HW157886  10.247  10.355  11.090 -1.0257 -0.7837  0.2624
17522SOL    HW257887  10.319  10.297  10.969 -0.3373 -0.4212  0.4906
17523SOL     OW57888   6.178   8.624   4.159 -0.1603 -0.1393 -0.0986
17523SOL    HW157889   6.104   8.684   4.168  0.9311  1.4177 -0.8981
17523SOL    HW257890   6.145   8.552   4.107 -1.5089 -0.2374  0.8347
17524SOL     OW57891   1.851   6.542   0.510 -0.2552  0.2696  0.0865
17524SOL    HW157892   1.769   6.591   0.508 -0.2035  0.3459 -0.6912
17524SOL    HW257893   1.837   6.474   0.576 -1.0298  0.1418 -0.1988
17525SOL     OW57894   6.463   2.758   6.171 -0.8783 -0.4596 -0.2794
17525SOL    HW157895   6.490   2.777   6.261 -0.0645  1.1901 -0.8184
17525SOL    HW257896   6.520   2.686   6.143 -2.0521 -1.8963  0.9302
17526SOL     OW57897  10.298  10.241   8.910  0.1033 -0.0654 -0.0096
17526SOL    HW157898  10.210  10.240   8.949 -0.1719 -0.6558 -0.6321
17526SOL    HW257899  10.351  10.289   8.973 -0.5337 -0.2313  0.6698
17527SOL     OW57900   1.016   3.232   6.424 -0.2137  0.1325 -0.0167
17527SOL    HW157901   0.950   3.164   6.432 -0.1517  0.1759  0.9209
17527SOL    HW257902   1.031   3.239   6.330 -0.8805 -0.5071 -0.1823
17528SOL     OW57903   5.758  10.183   3.786 -0.5465  0.4638  0.2687
17528SOL    HW157904   5.720  10.112   3.735  0.6919 -0.7479  0.9618
17528SOL    HW257905   5.760  10.257   3.726 -0.4364 -0.5223 -0.9940
17529SOL     OW57906   7.714  11.251  11.741  0.0177  0.1738  0.8619
17529SOL    HW157907   7.708  11.212  11.654 -2.3729  1.6169  0.2931
17529SOL    HW257908   7.802  11.228  11.771 -0.1661 -3.0122 -0.6040
17530SOL     OW57909   3.037   2.712   0.138  0.2463 -0.0877  0.1181
17530SOL    HW157910   2.944   2.715   0.115 -0.1563 -0.0727  1.6400
17530SOL    HW257911   3.074   2.792   0.099 -0.7674  0.8338  0.9865
17531SOL     OW57912   7.312   2.409   6.738 -0.4331  0.0536  0.4565
17531SOL    HW157913   7.292   2.428   6.830 -1.1300  1.9945 -0.0421
17531SOL    HW257914   7.226   2.406   6.695 -0.0275  2.1926 -0.6227
17532SOL     OW57915   4.768  10.744  11.118  0.0351  0.1077 -0.3321
17532SOL    HW157916   4.679  10.708  11.110 -0.0121  0.3467 -0.9254
17532SOL    HW257917   4.824  10.667  11.128 -0.3789  0.0048  1.6390
17533SOL     OW57918   9.428   4.199   5.609  0.0980  0.4340  0.2925
17533SOL    HW157919   9.426   4.104   5.624 -1.1826  0.4149  0.0545
17533SOL    HW257920   9.460   4.208   5.519  0.5894  0.2502  0.4450
17534SOL     OW57921   8.878   5.701  10.879 -0.1240 -0.1269  0.2796
17534SOL    HW157922   8.942   5.650  10.829 -0.5057 -0.3120 -0.0312
17534SOL    HW257923   8.801   5.704  10.822 -0.9278 -1.1918  1.2529
17535SOL     OW57924   1.090   9.750   1.093 -0.2500 -0.0508  0.2646
17535SOL    HW157925   1.098   9.687   1.021 -2.2226 -0.5864  0.4648
17535SOL    HW257926   1.154   9.721   1.158 -0.5879 -1.4039  0.0166
17536SOL     OW57927   5.816   0.987   2.144 -0.0762 -0.2793 -0.0902
17536SOL    HW157928   5.844   0.925   2.077  1.8515  0.0635  0.3360
17536SOL    HW257929   5.847   1.072   2.112 -0.4979  0.1081  0.5068
17537SOL     OW57930   2.382   1.222   2.199 -0.4893  0.3466 -0.0874
17537SOL    HW157931   2.473   1.200   2.221 -0.5170  0.0610 -0.2590
17537SOL    HW257932   2.366   1.176   2.117 -0.3488  1.4930 -0.7736
17538SOL     OW57933   2.047   7.319   8.364 -0.1495  0.0447  0.2995
17538SOL    HW157934   2.120   7.350   8.310  0.5657  0.1736  1.3080
17538SOL    HW257935   2.000   7.259   8.307  0.9841 -0.3607 -0.2530
17539SOL     OW57936   8.240   7.676   3.315 -0.1304 -0.4059  0.1361
17539SOL    HW157937   8.246   7.755   3.261 -0.6452 -0.3880  0.1089
17539SOL    HW257938   8.201   7.706   3.397  1.2703 -0.2946  0.8096
17540SOL     OW57939   7.192   9.285   9.848 -0.3881 -0.9505  0.2504
17540SOL    HW157940   7.112   9.233   9.852 -0.1823 -1.4560 -1.5245
17540SOL    HW257941   7.162   9.375   9.836 -0.7189 -1.2515 -1.3972
17541SOL     OW57942   2.540   4.197   6.701 -0.4147  0.1339 -0.2203
17541SOL    HW157943   2.553   4.156   6.615 -0.0359  0.1667 -0.1840
17541SOL    HW257944   2.491   4.132   6.752 -0.3323 -0.0300 -0.3505
17542SOL     OW57945   6.231  11.574   3.515 -0.5514  0.4067 -0.0045
17542SOL    HW157946   6.275  11.617   3.589 -1.5200  1.6664 -0.1152
17542SOL    HW257947   6.205  11.489   3.549  1.6306 -0.2644  0.1563
17543SOL     OW57948   6.121   2.812   3.969  0.1273 -0.4397  0.7603
17543SOL    HW157949   6.065   2.737   3.988  0.0176  0.0501  2.5948
17543SOL    HW257950   6.177   2.821   4.047  0.1091  1.3851  0.6157
17544SOL     OW57951  11.266   3.480   1.459 -0.1951  0.2690 -0.0868
17544SOL    HW157952  11.223   3.422   1.396  0.6156 -0.8609  0.3592
17544SOL    HW257953  11.205   3.485   1.532 -0.4001  0.2153 -0.2537
17545SOL     OW57954   4.535   5.409   9.873 -0.1028 -0.0160 -0.3662
17545SOL    HW157955   4.481   5.472   9.826  0.0987  1.5982  1.4493
17545SOL    HW257956   4.515   5.425   9.965  0.3806 -2.2524  0.1854
17546SOL     OW57957   9.971   2.169  10.401  0.0756  0.3117  0.4761
17546SOL    HW157958  10.045   2.109  10.406 -0.4860 -0.7608 -2.3063
17546SOL    HW257959   9.899   2.116  10.368 -2.1937  1.2090  3.4814
17547SOL     OW57960   3.256  11.584   3.214 -0.4154  0.4343  0.4433
17547SOL    HW157961   3.271  11.550   3.302  0.2370 -1.3851 -0.3284
17547SOL    HW257962   3.335  11.634   3.193 -0.4701  0.6701  0.7895
17548SOL     OW57963   7.566  10.421   3.858 -0.6312 -0.4480 -0.6116
17548SOL    HW157964   7.626  10.363   3.903  1.5344  1.2897 -1.0747
17548SOL    HW257965   7.533  10.369   3.785 -2.1260 -2.4114  1.3248
17549SOL     OW57966   0.776   6.885   6.601 -0.0758 -0.5984  0.0851
17549SOL    HW157967   0.823   6.801   6.606  0.3697 -0.4485 -1.2792
17549SOL    HW257968   0.841   6.946   6.566 -0.7961  0.0189 -0.1861
17550SOL     OW57969  10.918   2.981   8.269 -0.0097  0.4942 -0.2374
17550SOL    HW157970  11.005   2.948   8.245 -0.6906 -1.7969  0.2304
17550SOL    HW257971  10.858   2.938   8.208 -1.0144  0.3352  0.8246
17551SOL     OW57972   9.165   2.900   6.123  0.2588 -0.1151 -0.1804
17551SOL    HW157973   9.140   2.931   6.210 -0.9242  0.7041 -0.7821
17551SOL    HW257974   9.167   2.979   6.069 -1.3351 -0.8589 -1.4215
17552SOL     OW57975   3.738   2.982  11.388 -0.1213  0.3249  0.1570
17552SOL    HW157976   3.733   3.067  11.345  1.4671  0.6565  0.5767
17552SOL    HW257977   3.695   2.995  11.473 -2.2353 -0.0326 -0.7739
17553SOL     OW57978   9.450   7.088   8.930 -0.8362  0.4617 -0.1238
17553SOL    HW157979   9.465   7.165   8.875  0.6979 -2.5002 -4.3307
17553SOL    HW257980   9.372   7.046   8.893  0.5821 -1.9426 -0.6289
17554SOL     OW57981   8.572  10.054   5.233 -0.0703  0.5436 -0.6985
17554SOL    HW157982   8.540   9.979   5.182 -0.5473 -0.5798  1.1655
17554SOL    HW257983   8.640  10.018   5.289 -0.5143  1.4321  0.4517
17555SOL     OW57984   5.537   1.794   7.600 -0.3756 -0.4578  0.1377
17555SOL    HW157985   5.457   1.818   7.554 -1.1006 -1.5733  0.7753
17555SOL    HW257986   5.555   1.868   7.658 -0.0739  0.4651 -1.0878
17556SOL     OW57987   9.337   6.474   0.747 -0.0184 -0.0702  0.0797
17556SOL    HW157988   9.413   6.503   0.697 -1.0546  1.4059 -0.7493
17556SOL    HW257989   9.272   6.544   0.733 -1.6765 -1.4869  0.3716
17557SOL     OW57990   2.051   6.175   1.032 -0.1781  0.4420  0.5866
17557SOL    HW157991   2.004   6.132   0.961 -0.5449  0.1024  1.0306
17557SOL    HW257992   2.127   6.216   0.989  0.2967 -0.8164  0.1922
17558SOL     OW57993   7.915   3.252   0.508 -0.0455  0.0387  0.1440
17558SOL    HW157994   7.848   3.267   0.575  0.5085 -0.4227  0.8150
17558SOL    HW257995   7.938   3.160   0.517 -0.8075 -0.3431 -1.5045
17559SOL     OW57996   9.290   5.268   7.230  0.7751 -0.2169 -0.0144
17559SOL    HW157997   9.376   5.300   7.258  0.7135  0.1254 -0.2140
17559SOL    HW257998   9.242   5.347   7.205  0.2513 -0.3614  0.5111
17560SOL     OW57999   6.523   3.712   0.375  0.4448  0.8916  0.7156
17560SOL    HW158000   6.472   3.790   0.398  0.5487  1.4966 -0.9873
17560SOL    HW258001   6.600   3.746   0.329  0.3883 -0.2187 -0.2414
17561SOL     OW58002   2.105   8.063   9.310  0.0665 -0.4996 -0.3421
17561SOL    HW158003   2.044   8.032   9.378  2.0280  0.3266  1.9206
17561SOL    HW258004   2.058   8.134   9.267 -1.1991 -0.9669  0.2026
17562SOL     OW58005   9.565   2.995   4.214  0.6040  0.4771 -0.1175
17562SOL    HW158006   9.584   2.932   4.283  1.5840  0.2102 -0.6243
17562SOL    HW258007   9.572   3.080   4.258 -1.4802  0.2593  0.7540
17563SOL     OW58008  11.022   8.454   1.930 -0.0145  0.3719  0.2101
17563SOL    HW158009  11.018   8.480   2.022  0.0476  0.1763  0.2661
17563SOL    HW258010  10.962   8.380   1.923  0.1537  0.2417  0.1397
17564SOL     OW58011   1.750   6.924   8.948  0.0573  0.4641 -0.2907
17564SOL    HW158012   1.833   6.884   8.922  0.7535 -0.0292  2.4044
17564SOL    HW258013   1.774   6.989   9.013 -1.6747  0.2335  0.6406
17565SOL     OW58014   6.192  10.635  11.603  0.3186  0.3162  0.0067
17565SOL    HW158015   6.115  10.682  11.635  0.1440 -0.1398  0.2724
17565SOL    HW258016   6.183  10.547  11.639  0.7883  0.1590 -0.2459
17566SOL     OW58017  10.707  10.093   6.847  0.4483  0.1487 -0.1038
17566SOL    HW158018  10.765  10.072   6.773 -0.3266  0.7394 -0.9086
17566SOL    HW258019  10.702  10.012   6.897 -0.0271 -0.6874 -1.4354
17567SOL     OW58020   9.892   8.777   9.471 -0.0165 -0.1167  0.2215
17567SOL    HW158021   9.919   8.864   9.442 -1.3753  0.3201  0.1698
17567SOL    HW258022   9.797   8.776   9.459  0.0011 -1.7148 -0.0413
17568SOL     OW58023   9.974  10.734   9.048  0.3181  0.0164 -0.0253
17568SOL    HW158024   9.998  10.717   9.139 -0.8582 -0.6288  0.1828
17568SOL    HW258025   9.895  10.787   9.054 -0.4735 -1.0611 -0.6505
17569SOL     OW58026   4.701   4.135   1.516 -0.0932  0.0506  0.0878
17569SOL    HW158027   4.779   4.175   1.480  1.1302 -0.0017  2.4623
17569SOL    HW258028   4.695   4.169   1.605 -0.7399 -2.6223  1.1763
17570SOL     OW58029  11.542   8.162   3.899 -0.3738 -0.1092  0.4649
17570SOL    HW158030  11.514   8.218   3.827 -0.8673 -0.1669  0.6096
17570SOL    HW258031  11.552   8.221   3.973 -0.4521 -0.1435  0.5023
17571SOL     OW58032   1.616   5.018   5.555 -0.2124 -1.3522  0.6185
17571SOL    HW158033   1.693   5.010   5.498 -1.4986  0.2784 -1.5046
17571SOL    HW258034   1.623   5.106   5.592 -1.9911 -0.3431 -1.2279
17572SOL     OW58035   3.235   8.026   0.133  0.4110 -0.0471  0.2542
17572SOL    HW158036   3.168   7.974   0.178  0.4002 -0.1004  0.1758
17572SOL    HW258037   3.290   8.061   0.204  0.2815  0.0232  0.3199
17573SOL     OW58038  10.357  11.287  10.062  0.3195  0.0959 -0.4713
17573SOL    HW158039  10.281  11.300  10.005 -1.0373  0.4901  1.3502
17573SOL    HW258040  10.391  11.375  10.078  0.6499 -0.0063 -0.6039
17574SOL     OW58041   8.664   1.064   5.844 -0.3545 -0.3307 -0.2182
17574SOL    HW158042   8.675   0.971   5.865  0.5107 -0.1821  0.0316
17574SOL    HW258043   8.569   1.077   5.839 -0.4768 -1.3226 -0.6973
17575SOL     OW58044   2.737   3.263   6.308 -0.6858  0.3215  0.3755
17575SOL    HW158045   2.688   3.341   6.279  1.2109  0.5423 -2.6836
17575SOL    HW258046   2.700   3.192   6.256 -1.1486 -0.5101  1.8047
17576SOL     OW58047   2.379   5.702   9.769  0.3887 -0.7272  0.3016
17576SOL    HW158048   2.372   5.654   9.687  1.0341  0.6983 -0.6323
17576SOL    HW258049   2.317   5.659   9.828 -3.1413  0.6032 -2.1424
17577SOL     OW58050   2.957   0.971   1.703  0.2123  0.3613  0.1304
17577SOL    HW158051   3.045   0.999   1.728 -0.3135  0.5172  2.0241
17577SOL    HW258052   2.967   0.880   1.677  1.0292  0.5804 -0.3701
17578SOL     OW58053   7.207   8.367   1.209  0.1440  0.5106 -0.0965
17578SOL    HW158054   7.226   8.273   1.202 -2.0696  0.0516 -0.8613
17578SOL    HW258055   7.239   8.392   1.295  0.8834 -0.9202  0.0762
17579SOL     OW58056   7.454   3.216   0.687 -0.0197 -0.2752 -0.2788
17579SOL    HW158057   7.437   3.205   0.780  2.3001  1.6492  0.4675
17579SOL    HW258058   7.441   3.129   0.649  0.0425 -1.3376  2.0218
17580SOL     OW58059  11.057   3.246   5.826 -0.1891  0.3624 -0.0710
17580SOL    HW158060  11.123   3.223   5.892  1.8103 -0.1112 -2.1047
17580SOL    HW258061  11.019   3.163   5.799 -1.9926  0.6626  1.3653
17581SOL     OW58062  11.335  11.097  11.182  0.1943 -0.2997 -0.1194
17581SOL    HW158063  11.291  11.180  11.202  2.9268  0.8519  1.5853
17581SOL    HW258064  11.267  11.030  11.195 -1.1178  1.3512  2.2320
17582SOL     OW58065   4.354   0.235   0.216 -0.1440 -0.1457  0.4834
17582SOL    HW158066   4.311   0.254   0.132 -2.5397  0.5732  1.7735
17582SOL    HW258067   4.411   0.161   0.198  0.5001  0.8606 -2.0823
17583SOL     OW58068  10.388  11.168   8.617  0.3290  0.0725  0.1352
17583SOL    HW158069  10.478  11.201   8.611  0.6953 -0.6156  1.5126
17583SOL    HW258070  10.363  11.150   8.526  0.8945  2.0234 -0.4597
17584SOL     OW58071   7.687   3.011   1.085  0.1135  0.4264 -0.7394
17584SOL    HW158072   7.708   3.009   1.179  0.7637 -2.6440 -0.8356
17584SOL    HW258073   7.764   3.051   1.044  0.6052  0.1671 -0.0921
17585SOL     OW58074  10.876   1.713   6.453  0.2149 -0.3951  0.7739
17585SOL    HW158075  10.921   1.768   6.517  1.4952 -1.4132  0.8016
17585SOL    HW258076  10.891   1.756   6.369 -0.1689  0.1346  0.9694
17586SOL     OW58077   8.523   5.954   4.929  0.2704  0.2079  0.3648
17586SOL    HW158078   8.465   6.005   4.985 -1.4831 -1.2126 -0.0494
17586SOL    HW258079   8.493   5.864   4.939  0.1527 -0.1622 -2.4873
17587SOL     OW58080  10.789   4.285  10.530 -0.1138  0.0885  0.3064
17587SOL    HW158081  10.780   4.380  10.525 -1.0933 -0.0027  0.2552
17587SOL    HW258082  10.806   4.257  10.440  0.0357  0.2001  0.2999
17588SOL     OW58083   2.829  10.866   4.718 -0.1356 -0.6032 -0.8424
17588SOL    HW158084   2.892  10.837   4.783  1.0443  1.5572 -0.9454
17588SOL    HW258085   2.744  10.839   4.753  0.7497 -3.2213 -0.5125
17589SOL     OW58086   5.887   7.158  10.711 -0.2726  0.6278 -0.0663
17589SOL    HW158087   5.867   7.065  10.701 -1.6372  0.8899  0.0012
17589SOL    HW258088   5.891   7.171  10.806 -0.3628  0.6991 -0.0730
17590SOL     OW58089  11.475   8.315   4.437  0.2746 -0.4039  0.1649
17590SOL    HW158090  11.435   8.351   4.359  0.2472 -0.6462  0.0653
17590SOL    HW258091  11.415   8.337   4.508  1.0997  1.2733  0.3970
17591SOL     OW58092   4.950   9.497   2.099  0.1487 -0.2007  0.1319
17591SOL    HW158093   4.983   9.488   2.188  0.5264  0.4486  0.0631
17591SOL    HW258094   4.924   9.408   2.074 -0.5768 -0.2807  1.1189
17592SOL     OW58095   5.365   4.716  10.781 -0.3561 -0.4949  0.1365
17592SOL    HW158096   5.349   4.810  10.771  0.1562 -0.5484 -1.4401
17592SOL    HW258097   5.287   4.674  10.746  0.3875 -0.6656 -1.3820
17593SOL     OW58098   5.823   3.324   8.137  0.1682 -0.1293 -0.0160
17593SOL    HW158099   5.766   3.338   8.213  0.4018  1.5244 -0.1027
17593SOL    HW258100   5.894   3.269   8.170 -0.5322 -0.7196  0.5529
17594SOL     OW58101   0.456   1.115   8.424 -0.5740  0.5484 -0.0903
17594SOL    HW158102   0.386   1.081   8.480  0.2138  0.9769  1.1952
17594SOL    HW258103   0.527   1.136   8.484  0.5463  0.4522 -1.3361
17595SOL     OW58104   2.525   3.224   5.479  0.0177  0.3469 -0.3185
17595SOL    HW158105   2.559   3.238   5.390 -1.0691  0.1396 -0.7817
17595SOL    HW258106   2.434   3.251   5.474  0.2152  1.3067  1.0193
17596SOL     OW58107  11.066   6.285  10.780 -0.0494 -0.1973  0.6238
17596SOL    HW158108  10.999   6.336  10.736  2.4999  2.8687 -0.0175
17596SOL    HW258109  11.094   6.220  10.716 -1.3486 -0.5616  0.4034
17597SOL     OW58110   5.040   0.990   3.735  0.9349  0.3831 -0.1493
17597SOL    HW158111   4.965   0.953   3.689 -0.0561  2.8101 -0.6453
17597SOL    HW258112   5.111   0.989   3.671  1.4870 -2.1550  0.3988
17598SOL     OW58113   3.402   5.329   8.973 -0.4267 -0.4550 -0.0034
17598SOL    HW158114   3.345   5.272   8.921  0.4129  0.3365 -1.8859
17598SOL    HW258115   3.468   5.270   9.009 -0.5651 -0.9157 -0.4874
17599SOL     OW58116   2.652   9.180   6.385 -0.2563 -0.1849 -0.0129
17599SOL    HW158117   2.693   9.248   6.438 -0.5210 -0.4665  0.5635
17599SOL    HW258118   2.726   9.136   6.342 -0.1433  1.2550 -1.4088
17600SOL     OW58119   1.258   1.116   7.496  0.7970  0.6718 -0.2865
17600SOL    HW158120   1.301   1.111   7.582  2.5896  0.1963 -1.1736
17600SOL    HW258121   1.257   1.025   7.465  1.3970  1.0146 -1.3453
17601SOL     OW58122   5.344   1.469   8.773  0.4165 -0.3864 -0.3611
17601SOL    HW158123   5.423   1.421   8.747 -0.4044 -1.8922 -0.2265
17601SOL    HW258124   5.365   1.504   8.860  0.9448 -0.7591 -0.3334
17602SOL     OW58125   9.263   8.673   3.273 -0.4496 -0.2608  0.3256
17602SOL    HW158126   9.343   8.633   3.306 -0.2713 -0.4874 -0.3684
17602SOL    HW258127   9.233   8.730   3.344 -0.7505 -1.6599  1.3671
17603SOL     OW58128   5.486  10.492   2.666  0.1320 -0.0820  0.3638
17603SOL    HW158129   5.557  10.443   2.624 -1.3056  0.3848 -2.9254
17603SOL    HW258130   5.528  10.574   2.694  1.1146 -0.2048 -0.6592
17604SOL     OW58131   8.265   0.801   1.763  0.1395 -0.4155  0.3429
17604SOL    HW158132   8.350   0.780   1.724  0.1015  1.6891 -1.0667
17604SOL    HW258133   8.203   0.743   1.719  0.5400 -0.2911 -0.3954
17605SOL     OW58134   7.278  10.773   3.603 -0.4413 -0.1528 -0.1602
17605SOL    HW158135   7.240  10.776   3.691 -0.2588 -0.9668 -0.0451
17605SOL    HW258136   7.204  10.783   3.544 -0.4776  1.1900  0.0804
17606SOL     OW58137   2.597   3.825   1.598 -0.3885  0.3109  0.3835
17606SOL    HW158138   2.572   3.898   1.542  2.1194  2.5645  1.9505
17606SOL    HW258139   2.627   3.757   1.538 -1.1117  1.2165 -1.0624
17607SOL     OW58140   4.264   2.526   2.078  0.5746 -0.2082 -0.0081
17607SOL    HW158141   4.346   2.532   2.029  1.1942  0.1963  1.0316
17607SOL    HW258142   4.290   2.489   2.163 -0.7853 -3.1637 -0.7236
17608SOL     OW58143  11.176   5.856   0.585 -0.6553  0.4102  0.2165
17608SOL    HW158144  11.102   5.907   0.618 -1.2757  0.2544 -0.8903
17608SOL    HW258145  11.191   5.890   0.497  0.9602  0.8122  0.6007
17609SOL     OW58146   1.250   9.209  11.802 -0.1907 -0.5507  0.1438
17609SOL    HW158147   1.234   9.294  11.843  2.2804  0.7165 -1.3329
17609SOL    HW258148   1.296   9.158  11.869 -1.7161 -0.8102  1.0459
17610SOL     OW58149   0.278   0.649   2.626 -0.4789  0.8712 -0.5931
17610SOL    HW158150   0.198   0.649   2.574 -1.4349 -1.3617  0.7362
17610SOL    HW258151   0.334   0.584   2.584 -1.8849 -2.1670  1.8401
17611SOL     OW58152   1.423   1.621   5.466 -0.0833 -0.1965  0.1612
17611SOL    HW158153   1.414   1.547   5.526  0.3933 -1.4642 -1.2812
17611SOL    HW258154   1.511   1.612   5.429 -0.1584  0.8802 -0.3280
17612SOL     OW58155   5.946   3.197   2.153 -0.0768 -0.0207  0.3410
17612SOL    HW158156   6.028   3.230   2.116 -0.2706  0.4942  0.3783
17612SOL    HW258157   5.943   3.234   2.241  0.8650 -1.9991  1.2710
17613SOL     OW58158   3.536  10.597  11.026 -0.0973  0.5443  0.1891
17613SOL    HW158159   3.442  10.615  11.031 -0.6324 -1.7544 -0.5835
17613SOL    HW258160   3.555  10.545  11.103  0.3471  0.1877 -0.1576
17614SOL     OW58161   4.301   0.753   5.746  0.5502 -0.0358  0.8541
17614SOL    HW158162   4.262   0.667   5.731  0.2760  0.2757 -0.3893
17614SOL    HW258163   4.346   0.773   5.664 -0.0725  1.3452  0.8203
17615SOL     OW58164  11.585   1.108   2.745  0.4582 -0.3365  0.7127
17615SOL    HW158165  11.523   1.145   2.683 -0.5829 -1.1705  1.2402
17615SOL    HW258166  11.531   1.076   2.817  1.5316 -0.7016  1.3766
17616SOL     OW58167   4.477   2.156   7.303 -0.0681  0.5853 -0.1086
17616SOL    HW158168   4.397   2.205   7.284  0.0202 -0.0883 -2.5873
17616SOL    HW258169   4.547   2.206   7.261  0.3726 -0.2995 -0.4584
17617SOL     OW58170  10.615   7.230   6.944  0.2757  0.3816 -0.0880
17617SOL    HW158171  10.700   7.195   6.970 -0.9486 -1.4561  1.6773
17617SOL    HW258172  10.616   7.321   6.975  1.1633  0.0374  0.9299
17618SOL     OW58173   1.685   4.751   8.273  0.1393 -0.1404  0.0010
17618SOL    HW158174   1.690   4.669   8.225 -1.4393  0.0671 -0.6063
17618SOL    HW258175   1.613   4.738   8.335  0.6397  0.3909  0.7118
17619SOL     OW58176   9.661   7.614   7.741  0.0949 -0.3613 -0.0423
17619SOL    HW158177   9.597   7.627   7.811 -0.2199  1.4658 -0.6025
17619SOL    HW258178   9.745   7.611   7.785 -0.0245  1.6343  0.4018
17620SOL     OW58179   3.714  10.944   4.720  0.1560  0.0599  0.0683
17620SOL    HW158180   3.784  10.913   4.663  0.0953  1.2317 -0.6802
17620SOL    HW258181   3.758  10.970   4.800  0.5797  0.6779 -0.3527
17621SOL     OW58182   6.615  11.290   7.974  0.1626 -0.1405 -0.3849
17621SOL    HW158183   6.577  11.309   8.060  0.9155 -0.2854 -0.0117
17621SOL    HW258184   6.658  11.372   7.949 -0.8325  0.1941 -1.0502
17622SOL     OW58185   1.564   3.908   2.168  0.2476 -0.4529 -0.9500
17622SOL    HW158186   1.477   3.893   2.207  0.1422  0.0166 -0.9949
17622SOL    HW258187   1.598   3.821   2.151 -1.0629 -0.6683 -2.8210
17623SOL     OW58188   9.923   0.397   1.485 -0.1905 -0.1104  0.0068
17623SOL    HW158189   9.849   0.337   1.492 -1.1018  1.1382  1.9341
17623SOL    HW258190   9.934   0.411   1.391  1.1797 -4.4960 -0.7194
17624SOL     OW58191   2.989   1.776   2.500 -0.1321  0.0704 -0.6524
17624SOL    HW158192   3.049   1.828   2.554 -0.7323 -2.0937  2.3474
17624SOL    HW258193   2.937   1.726   2.562 -1.9073 -1.6226 -3.2609
17625SOL     OW58194   4.653   6.569   9.610  0.0984 -0.0382  0.3043
17625SOL    HW158195   4.573   6.519   9.624 -1.4561  2.8805  3.1171
17625SOL    HW258196   4.625   6.651   9.571  2.2711 -0.3035 -2.0798
17626SOL     OW58197   7.052   2.971   7.341 -0.4548 -0.7828 -0.2823
17626SOL    HW158198   7.148   2.966   7.339 -0.4393 -0.3681 -0.9492
17626SOL    HW258199   7.027   2.988   7.250 -1.0320  1.0314  0.1577
17627SOL     OW58200   0.537   5.336   9.839  0.0616 -0.0973 -0.2100
17627SOL    HW158201   0.550   5.269   9.771  3.0284 -0.2962  0.4235
17627SOL    HW258202   0.475   5.397   9.800 -2.0078 -2.6126 -1.2070
17628SOL     OW58203   0.362   1.881   4.964  0.1731  0.1272 -0.6988
17628SOL    HW158204   0.300   1.872   4.892 -0.2518 -1.1044 -0.2148
17628SOL    HW258205   0.362   1.974   4.985 -0.2543  0.3880 -1.7868
17629SOL     OW58206   6.430   7.414   1.361  0.2708 -0.4310  0.4367
17629SOL    HW158207   6.405   7.426   1.270  0.7130 -1.4334  0.1735
17629SOL    HW258208   6.393   7.490   1.406 -1.1037 -0.6153 -0.3407
17630SOL     OW58209   7.536   8.217   6.825  0.2898  0.2948 -0.3862
17630SOL    HW158210   7.607   8.258   6.776  0.9188 -0.1514  0.1343
17630SOL    HW258211   7.546   8.251   6.914  0.6197 -0.7315 -0.0221
17631SOL     OW58212   0.627  10.992   7.820 -0.1601  0.1742 -0.3661
17631SOL    HW158213   0.608  10.984   7.727 -0.5670 -0.0770 -0.2629
17631SOL    HW258214   0.645  10.903   7.849  0.4501  0.3123 -0.3023
17632SOL     OW58215   0.015  11.019   2.969 -0.0585  0.0818 -0.3156
17632SOL    HW158216  -0.013  10.936   2.931 -0.8454  0.8341 -1.4290
17632SOL    HW258217   0.102  11.001   3.004  0.1763 -0.9668 -1.3814
17633SOL     OW58218   1.550   9.415   5.055 -0.1033  0.1655 -0.3090
17633SOL    HW158219   1.513   9.333   5.022 -0.7445  0.0439  0.6628
17633SOL    HW258220   1.585   9.459   4.977 -0.1704 -0.8084 -0.9074
17634SOL     OW58221  10.056  11.251   4.634  0.0924  0.1970 -0.1116
17634SOL    HW158222  10.019  11.206   4.558 -1.5788  2.6687 -0.8622
17634SOL    HW258223  10.147  11.268   4.610 -0.2019  0.2406 -1.2389
17635SOL     OW58224   4.911   0.457   5.840 -0.4086  0.2386  0.1117
17635SOL    HW158225   4.973   0.401   5.886 -1.7148 -0.8376  0.5912
17635SOL    HW258226   4.914   0.427   5.749 -1.5768 -1.0773  0.4862
17636SOL     OW58227   3.150   1.372  11.039 -0.4870  0.2564 -0.7518
17636SOL    HW158228   3.182   1.422  11.113 -0.8305 -2.5589  1.4798
17636SOL    HW258229   3.065   1.410  11.018 -1.4148 -0.1973  1.8299
17637SOL     OW58230   4.549   0.029   0.210 -0.1718  0.2965  0.0969
17637SOL    HW158231   4.476  -0.032   0.219  0.4111 -1.0736 -3.1742
17637SOL    HW258232   4.590   0.030   0.297 -1.9899 -1.6232  1.0630
17638SOL     OW58233   2.776   8.357   2.483  0.3050  0.2375 -0.2183
17638SOL    HW158234   2.800   8.272   2.444 -0.6673 -0.0389 -0.2429
17638SOL    HW258235   2.806   8.351   2.574  0.7997  0.1175 -0.3826
17639SOL     OW58236   4.360   2.830   4.644 -0.3322 -0.4667 -0.2207
17639SOL    HW158237   4.408   2.892   4.700  1.3882 -0.9613 -1.0924
17639SOL    HW258238   4.268   2.853   4.658  0.1755  1.2721  0.6519
17640SOL     OW58239   6.276   7.496   3.033 -0.1995  0.0391  0.1568
17640SOL    HW158240   6.287   7.531   3.121 -1.8993  0.1654  0.3487
17640SOL    HW258241   6.248   7.406   3.045 -2.6050  0.6842 -0.1507
17641SOL     OW58242   1.198   3.638   7.685 -0.1394 -0.1408  0.9931
17641SOL    HW158243   1.207   3.549   7.718 -0.9373 -0.6319 -0.0499
17641SOL    HW258244   1.155   3.628   7.600  0.0190  1.2195  0.7276
17642SOL     OW58245   8.929   6.004   2.290 -0.0618  0.5322  0.2936
17642SOL    HW158246   8.904   6.023   2.199 -0.3223 -2.0730 -0.2665
17642SOL    HW258247   8.927   5.908   2.296  1.7044  0.5446  2.5717
17643SOL     OW58248   3.507  10.424   0.991 -0.0153  0.1078 -0.5964
17643SOL    HW158249   3.597  10.399   0.968  0.2536  0.1885  0.3143
17643SOL    HW258250   3.475  10.351   1.044  0.1821  0.8914  0.6506
17644SOL     OW58251   3.694   1.442   9.015 -0.2728 -0.0314 -0.1447
17644SOL    HW158252   3.647   1.359   9.023 -1.5330  0.7351  0.8247
17644SOL    HW258253   3.779   1.418   8.979 -0.9984 -1.6088 -0.9180
17645SOL     OW58254   7.786   9.847   9.499  0.4217 -0.2560 -0.0595
17645SOL    HW158255   7.759   9.833   9.590  1.2693 -0.6277  0.1524
17645SOL    HW258256   7.872   9.889   9.506  1.0854 -1.4320 -0.6581
17646SOL     OW58257   7.227   9.012   0.819  0.0263 -0.3468  0.3964
17646SOL    HW158258   7.266   8.966   0.745  0.6078 -2.4978  1.9508
17646SOL    HW258259   7.134   8.988   0.815 -0.3118  0.9672 -0.5773
17647SOL     OW58260   3.164   2.412   4.252 -0.4623  0.0794  0.5891
17647SOL    HW158261   3.212   2.329   4.246 -2.0207 -0.8714  0.7884
17647SOL    HW258262   3.158   2.442   4.161  2.2601  1.3228  0.7135
17648SOL     OW58263   9.312   6.429   6.598  0.2788 -0.0875  0.0075
17648SOL    HW158264   9.369   6.469   6.533 -0.3534  0.8084 -0.0121
17648SOL    HW258265   9.268   6.358   6.551  0.0526  0.3592 -0.4670
17649SOL     OW58266   9.216   6.457   6.933  0.1976  0.0232  0.1144
17649SOL    HW158267   9.222   6.423   6.844  0.3311 -0.3629  0.2661
17649SOL    HW258268   9.182   6.545   6.923 -1.1007 -0.4941 -0.2329
17650SOL     OW58269   4.718   4.893   2.457  0.0232 -0.3077 -0.4556
17650SOL    HW158270   4.625   4.890   2.432  0.3969 -0.4725 -1.8555
17650SOL    HW258271   4.744   4.983   2.443 -0.5080  0.3801  2.2944
17651SOL     OW58272   9.327   0.716  10.466 -0.0186 -0.4743  0.1035
17651SOL    HW158273   9.273   0.777  10.416 -0.8714 -1.1799  0.1369
17651SOL    HW258274   9.265   0.651  10.500  0.6280 -0.4046  1.4958
17652SOL     OW58275   2.639   2.813   1.548 -0.1233 -0.1225  0.6810
17652SOL    HW158276   2.657   2.775   1.634  0.1443 -1.6820 -0.0253
17652SOL    HW258277   2.710   2.874   1.534  1.8419 -2.3673  0.1604
17653SOL     OW58278   1.804   5.777   6.961 -0.3704  0.0096 -0.0630
17653SOL    HW158279   1.778   5.688   6.938  0.6983 -0.8103  1.6584
17653SOL    HW258280   1.890   5.788   6.920 -1.8009  1.4868 -2.9388
17654SOL     OW58281   2.842  10.358  11.185  0.2312 -0.7753  0.1339
17654SOL    HW158282   2.870  10.297  11.252  0.4202  0.0220  0.8000
17654SOL    HW258283   2.903  10.432  11.192  0.9679 -1.1617 -1.6745
17655SOL     OW58284   9.148   5.714   8.085  0.9104 -0.4179 -0.4850
17655SOL    HW158285   9.206   5.783   8.054  0.3283 -0.8810 -2.8488
17655SOL    HW258286   9.066   5.730   8.039  0.2797 -1.7824  0.1115
17656SOL     OW58287   1.489   2.814   6.753  0.0439  0.2088 -0.0525
17656SOL    HW158288   1.507   2.729   6.793  2.1026 -0.6497 -2.5375
17656SOL    HW258289   1.539   2.813   6.672 -2.6213  2.4554 -1.8946
17657SOL     OW58290   2.231   2.833   8.381  0.3470 -0.3085 -0.1110
17657SOL    HW158291   2.218   2.831   8.475  1.9953  0.3473  0.1538
17657SOL    HW258292   2.257   2.923   8.361 -0.5894 -0.2614 -1.3070
17658SOL     OW58293   2.621  10.915  10.216 -0.7812 -0.6156  0.4741
17658SOL    HW158294   2.699  10.965  10.241 -0.1220 -1.3528 -0.0668
17658SOL    HW258295   2.641  10.882  10.128 -2.2775  0.3469 -0.2694
17659SOL     OW58296   1.325   6.550   4.925  0.5546  0.1681 -0.2613
17659SOL    HW158297   1.368   6.619   4.976 -1.2403  0.6384  0.7440
17659SOL    HW258298   1.235   6.583   4.914 -0.3492 -1.9979  0.2271
17660SOL     OW58299   5.093   7.123   2.472  0.0140 -0.4376  0.1456
17660SOL    HW158300   5.181   7.127   2.508  0.4895  1.5554 -1.0791
17660SOL    HW258301   5.051   7.204   2.504 -0.8947 -0.6623 -0.4470
17661SOL     OW58302   7.237   5.300  10.040  0.5057 -0.4276 -0.2938
17661SOL    HW158303   7.255   5.208  10.021  0.3088 -0.3825 -0.7218
17661SOL    HW258304   7.323   5.339  10.055  0.6716 -0.4615 -1.1379
17662SOL     OW58305  10.336   1.250   7.314 -0.5407 -0.0507  0.2442
17662SOL    HW158306  10.333   1.284   7.224 -0.8193 -1.7961 -0.4492
17662SOL    HW258307  10.246   1.261   7.346 -0.5234  0.2704  0.1843
17663SOL     OW58308   2.861  10.135   7.107 -0.3566 -0.1583 -0.2372
17663SOL    HW158309   2.768  10.113   7.113 -0.0016 -1.6816  0.1662
17663SOL    HW258310   2.897  10.070   7.047  0.4355  0.4771 -0.4662
17664SOL     OW58311   9.595   9.480   3.053  0.6935  0.3716 -0.1968
17664SOL    HW158312   9.627   9.568   3.071  0.1194  0.5301  0.0747
17664SOL    HW258313   9.499   9.488   3.056  0.6253 -0.0819 -1.0312
17665SOL     OW58314   4.108   6.940   0.372  0.1100  0.1119 -0.5288
17665SOL    HW158315   4.183   6.956   0.315  0.6124 -0.8495 -0.1721
17665SOL    HW258316   4.039   6.909   0.314  1.4125 -3.4313 -0.4474
17666SOL     OW58317   0.416   7.508   4.054  0.0888 -0.1123 -0.2662
17666SOL    HW158318   0.418   7.454   4.133  1.9061 -0.3142 -0.3824
17666SOL    HW258319   0.377   7.590   4.081 -1.7343 -1.0847  0.1870
17667SOL     OW58320   8.014  10.137  10.395 -0.5201  0.5833 -0.1290
17667SOL    HW158321   8.033  10.070  10.460  0.0470  1.1402  0.2900
17667SOL    HW258322   7.934  10.107  10.352 -0.8564  0.1715  0.7646
17668SOL     OW58323   5.054   9.739   9.899 -0.1654  0.0640 -0.1807
17668SOL    HW158324   4.984   9.698   9.849  0.5515  0.3699 -1.4790
17668SOL    HW258325   5.073   9.821   9.852  1.2878 -0.1775 -0.0756
17669SOL     OW58326   0.318   7.831  11.454  1.1753 -0.6103  0.2978
17669SOL    HW158327   0.341   7.918  11.489  2.4848 -0.5244 -0.7124
17669SOL    HW258328   0.306   7.777  11.532 -1.1871  0.7899  1.0244
17670SOL     OW58329   8.789   6.625  11.708 -0.1054 -0.2399 -0.1572
17670SOL    HW158330   8.785   6.704  11.654  1.1875  0.9869  1.4220
17670SOL    HW258331   8.748   6.652  11.791  1.3410 -0.8405  0.7916
17671SOL     OW58332   8.164   1.828   8.581 -0.0900 -0.1419  0.2079
17671SOL    HW158333   8.245   1.878   8.579 -1.2011  1.8885  1.9198
17671SOL    HW258334   8.184   1.753   8.638  0.6756  0.1165  0.2928
17672SOL     OW58335   3.281  11.547   8.477 -0.7140 -0.0065  0.0248
17672SOL    HW158336   3.292  11.576   8.567 -1.4430 -2.4613  1.0046
17672SOL    HW258337   3.367  11.559   8.437  0.6323 -1.8784  2.0672
17673SOL     OW58338   0.300   3.099   8.570  0.2041 -0.6709 -0.1887
17673SOL    HW158339   0.256   3.041   8.632 -2.0119 -0.7893 -1.7708
17673SOL    HW258340   0.381   3.052   8.547  0.0460 -1.5794  1.0056
17674SOL     OW58341   4.228   1.860   9.948  0.2663 -0.7748 -0.2315
17674SOL    HW158342   4.273   1.859   9.863 -0.6602 -2.3818 -0.7578
17674SOL    HW258343   4.138   1.833   9.928 -0.2395 -0.2061  1.1419
17675SOL     OW58344   4.334   1.924  11.786  0.4009  0.1295 -0.1007
17675SOL    HW158345   4.252   1.887  11.820  0.5666 -1.6626 -1.4674
17675SOL    HW258346   4.401   1.895  11.847  0.2638 -0.1518 -0.0811
17676SOL     OW58347   0.732   6.674   3.316 -0.4856  0.2739 -0.0222
17676SOL    HW158348   0.758   6.760   3.349 -2.2100  0.9976 -0.4003
17676SOL    HW258349   0.649   6.656   3.359 -1.3393 -0.0984 -1.7092
17677SOL     OW58350   9.512   6.593  10.411 -0.4463 -0.5475  0.2029
17677SOL    HW158351   9.584   6.656  10.403  0.8480 -1.7329  1.7883
17677SOL    HW258352   9.447   6.638  10.464 -0.3261  0.1027 -0.1962
17678SOL     OW58353   2.166   7.261   4.036  0.0209  0.1116  0.2604
17678SOL    HW158354   2.238   7.236   3.977 -0.6391  0.4994 -0.7247
17678SOL    HW258355   2.160   7.188   4.097  1.3052  0.1066  0.4102
17679SOL     OW58356   2.776  10.181   2.259  0.2854  0.0705 -0.3291
17679SOL    HW158357   2.762  10.211   2.170 -1.0481  0.6805  0.0475
17679SOL    HW258358   2.813  10.256   2.305 -1.0457  0.4993  0.1070
17680SOL     OW58359   6.216   8.478  10.316 -0.0292  0.3597  0.0103
17680SOL    HW158360   6.261   8.544  10.369  1.1662 -1.9997  2.1140
17680SOL    HW258361   6.123   8.500  10.326  0.3055  1.4507  1.0125
17681SOL     OW58362   6.126   5.021   2.354  0.4726  0.3073 -0.1771
17681SOL    HW158363   6.172   5.084   2.410  0.0023  1.2431 -0.8267
17681SOL    HW258364   6.036   5.054   2.350  0.2667 -0.2993 -0.6888
17682SOL     OW58365   2.730   4.816   4.111  0.1216 -0.2773  0.6955
17682SOL    HW158366   2.677   4.736   4.112  0.4757 -0.5169  1.1640
17682SOL    HW258367   2.745   4.834   4.019 -3.0110  1.3197  0.3750
17683SOL     OW58368   6.987   4.385   7.002 -0.4029  0.5460 -0.0125
17683SOL    HW158369   6.947   4.421   6.923 -1.2226  0.2302  0.2400
17683SOL    HW258370   6.986   4.457   7.065 -0.7912  0.4866  0.0574
17684SOL     OW58371   6.923   4.582   6.378  0.0430  0.3984  0.2377
17684SOL    HW158372   6.885   4.513   6.323  0.1981  0.8020 -0.3857
17684SOL    HW258373   7.014   4.555   6.391 -0.0877  0.1206  0.6066
17685SOL     OW58374  11.236   0.086   5.736 -0.1688  0.4740  0.0532
17685SOL    HW158375  11.168   0.121   5.678  1.4198  1.6712 -1.1710
17685SOL    HW258376  11.318   0.117   5.698  0.9642  1.4893  3.0679
17686SOL     OW58377  11.437   2.353   8.277  0.4009 -0.7014  0.6686
17686SOL    HW158378  11.500   2.424   8.284 -1.0659  0.7435 -0.2233
17686SOL    HW258379  11.469   2.299   8.205  0.1939  0.4999 -0.3474
17687SOL     OW58380   1.709   5.647   5.784 -0.1441  0.1708  0.0384
17687SOL    HW158381   1.779   5.680   5.841  1.8038 -2.4291 -0.6875
17687SOL    HW258382   1.743   5.566   5.748 -3.2149 -0.7439 -1.1323
17688SOL     OW58383   2.976   3.883   5.624  0.5354 -0.1898  0.2039
17688SOL    HW158384   2.927   3.842   5.695  1.5242 -1.3362  0.2569
17688SOL    HW258385   3.068   3.872   5.650  0.9683 -1.6535 -1.7678
17689SOL     OW58386   9.937   7.442   8.607  0.4560  0.8073 -0.1944
17689SOL    HW158387   9.955   7.458   8.514 -2.4414 -0.5965 -1.1126
17689SOL    HW258388   9.925   7.347   8.613  0.2709  0.9110  1.5879
17690SOL     OW58389   4.309   6.336   3.494 -0.4447  0.1448  0.0932
17690SOL    HW158390   4.255   6.383   3.557 -0.3482 -0.2051  0.4439
17690SOL    HW258391   4.366   6.280   3.548 -0.3298 -0.1251 -0.2997
17691SOL     OW58392   9.204   4.080   6.252 -0.0339 -0.1741 -0.9621
17691SOL    HW158393   9.282   4.069   6.306  0.9283 -0.7311 -2.4015
17691SOL    HW258394   9.136   4.031   6.299  0.5402  0.0926  0.1780
17692SOL     OW58395   6.629   3.214  11.408  0.1339 -0.5222  0.3446
17692SOL    HW158396   6.620   3.241  11.499  0.3122 -0.6833  0.4108
17692SOL    HW258397   6.697   3.147  11.409  0.4765 -0.1904  0.0259
17693SOL     OW58398   2.690   3.583   7.915 -0.5720  0.1942  0.2036
17693SOL    HW158399   2.617   3.634   7.879 -1.4620 -1.8684 -1.0900
17693SOL    HW258400   2.728   3.540   7.839  0.0831 -1.1360  1.2511
17694SOL     OW58401   6.367  11.503   6.847  1.1561  0.3103 -0.1530
17694SOL    HW158402   6.358  11.542   6.934 -2.3269  0.0286 -0.2315
17694SOL    HW258403   6.448  11.453   6.851  0.9681  0.0775  3.0431
17695SOL     OW58404   6.755   1.872   1.130  0.3505 -0.2562 -0.0383
17695SOL    HW158405   6.849   1.886   1.123  0.3084  0.8876  1.1902
17695SOL    HW258406   6.737   1.877   1.224 -1.1164  0.9822 -0.3442
17696SOL     OW58407   8.533  11.554  10.280 -0.0155 -0.9573 -0.1669
17696SOL    HW158408   8.449  11.596  10.262 -0.1860  0.7014  3.4802
17696SOL    HW258409   8.595  11.601  10.225 -0.8713  1.1528  0.5516
17697SOL     OW58410  10.686   1.466  10.071 -0.3700 -0.1217  0.1124
17697SOL    HW158411  10.762   1.509  10.110 -0.6824 -1.1483  2.0402
17697SOL    HW258412  10.718   1.428   9.989  1.2306 -0.5600  0.9063
17698SOL     OW58413   7.609  10.319   8.324  0.3453 -0.1061 -1.1429
17698SOL    HW158414   7.621  10.381   8.253  1.8031 -1.3145 -1.9850
17698SOL    HW258415   7.686  10.329   8.379 -0.1495 -0.0998 -0.4279
17699SOL     OW58416   4.428   4.674   0.661  0.8069  0.3756  0.0841
17699SOL    HW158417   4.412   4.760   0.623 -0.0530  0.6079  0.9239
17699SOL    HW258418   4.348   4.654   0.710  1.1787 -0.6921  0.2865
17700SOL     OW58419   5.748   8.456   4.892 -0.3221  0.4732  0.0894
17700SOL    HW158420   5.675   8.455   4.954  0.1253  1.9966  0.6887
17700SOL    HW258421   5.777   8.547   4.892  1.6900 -0.1328  0.0151
17701SOL     OW58422   1.554   3.350   1.666 -0.5292  0.0177 -0.7978
17701SOL    HW158423   1.579   3.260   1.647  1.1518  0.3839 -0.4290
17701SOL    HW258424   1.499   3.344   1.744  2.6296 -0.4428  1.5950
17702SOL     OW58425   6.869   2.703   9.146 -0.4985  0.0431  0.1603
17702SOL    HW158426   6.822   2.775   9.187 -3.8617 -3.0790  2.4874
17702SOL    HW258427   6.914   2.659   9.219  3.6309  1.0053 -1.5396
17703SOL     OW58428   2.892   0.315   6.388  0.4095  0.4601  0.1544
17703SOL    HW158429   2.843   0.350   6.463 -0.4800 -0.0536 -0.1773
17703SOL    HW258430   2.835   0.332   6.312  0.7070 -0.2045 -0.2266
17704SOL     OW58431   1.787   6.246   5.472  0.6165  0.3629  0.0687
17704SOL    HW158432   1.750   6.162   5.497 -0.5937  0.3432 -1.6111
17704SOL    HW258433   1.727   6.311   5.508 -1.2333  0.3307 -2.6935
17705SOL     OW58434   6.187   7.074   5.433 -0.0763  0.2260 -0.4098
17705SOL    HW158435   6.228   7.119   5.358 -0.7861  0.5704 -0.6002
17705SOL    HW258436   6.139   7.143   5.478  0.8259  0.1408  0.7183
17706SOL     OW58437   8.443   2.813  11.398 -0.4542 -0.7991 -0.2966
17706SOL    HW158438   8.365   2.832  11.450 -0.5560 -0.5838 -0.5294
17706SOL    HW258439   8.439   2.874  11.325 -0.9228 -1.8648 -1.1892
17707SOL     OW58440   3.879   9.867  11.788 -0.0561 -0.0434 -0.4240
17707SOL    HW158441   3.885   9.960  11.768  0.2954 -0.0985 -0.5706
17707SOL    HW258442   3.892   9.823  11.704 -1.9428 -0.1818 -0.6846
17708SOL     OW58443   9.681  10.885  11.236 -0.1961  0.2536 -0.6024
17708SOL    HW158444   9.663  10.813  11.176  0.8427  0.0106 -0.6417
17708SOL    HW258445   9.626  10.957  11.205 -1.1764 -0.4763 -0.6207
17709SOL     OW58446   7.601  10.695  11.749  0.0200 -0.4958 -0.2749
17709SOL    HW158447   7.575  10.759  11.682  0.0052 -0.8183 -0.5842
17709SOL    HW258448   7.533  10.628  11.745 -0.6856  0.1082  0.9660
17710SOL     OW58449   3.251   4.055   1.031 -0.2749 -0.0369  0.1154
17710SOL    HW158450   3.220   4.112   1.101 -2.3065 -1.9390  0.8818
17710SOL    HW258451   3.207   4.088   0.952  0.3932  0.8392  0.0957
17711SOL     OW58452   8.388   8.622   2.867 -0.1252  0.2562  0.5980
17711SOL    HW158453   8.477   8.618   2.831 -0.7507  2.1744 -1.4130
17711SOL    HW258454   8.400   8.612   2.962  2.1465 -0.1743  0.3274
17712SOL     OW58455   5.516   8.361   3.181 -0.1499  0.6493  0.4860
17712SOL    HW158456   5.429   8.381   3.147 -1.0749 -0.2811  2.1782
17712SOL    HW258457   5.543   8.442   3.225  0.4692  1.3957 -1.1840
17713SOL     OW58458   9.946   7.539   7.219  0.0354  0.3531  0.4662
17713SOL    HW158459   9.869   7.538   7.276 -0.3501  3.2143  0.1712
17713SOL    HW258460   9.930   7.469   7.155 -1.3924 -0.3407  1.5320
17714SOL     OW58461  11.646   3.463   4.389  0.1291 -0.1746  0.5877
17714SOL    HW158462  11.588   3.396   4.426  0.1006 -0.2458  0.4138
17714SOL    HW258463  11.601   3.493   4.310 -0.0781  0.3729  0.9089
17715SOL     OW58464  11.422   6.348   4.079 -0.8465 -0.6769 -0.1539
17715SOL    HW158465  11.392   6.306   4.160 -0.8000  0.5587  0.5409
17715SOL    HW258466  11.441   6.439   4.106  2.3899 -1.0560 -0.7661
17716SOL     OW58467   0.938   2.172   0.006 -0.7206 -0.1056 -0.1800
17716SOL    HW158468   0.993   2.186   0.083 -1.7949 -0.4651  0.6837
17716SOL    HW258469   0.852   2.204   0.032 -1.3257 -1.0763 -0.9041
17717SOL     OW58470   8.017   4.516   5.043  0.0379  0.0029 -0.3405
17717SOL    HW158471   7.963   4.554   4.973 -0.9142 -1.8831 -0.7053
17717SOL    HW258472   8.093   4.480   4.997  0.3923  0.4811 -0.1365
17718SOL     OW58473   1.057   2.685   3.089 -0.3676 -0.9584  0.4313
17718SOL    HW158474   1.009   2.768   3.097 -0.0700 -0.8941  1.7994
17718SOL    HW258475   1.149   2.710   3.102 -0.3394 -1.5851  1.4889
17719SOL     OW58476   7.111   9.844   1.771  0.1654 -0.5732 -0.4749
17719SOL    HW158477   7.090   9.873   1.682 -1.0118 -0.2539 -0.1001
17719SOL    HW258478   7.167   9.913   1.806  1.4322 -1.1516 -1.2717
17720SOL     OW58479   6.332   9.378   1.911  0.2574  0.0611 -0.0877
17720SOL    HW158480   6.417   9.370   1.954 -0.7266  0.7573  2.1376
17720SOL    HW258481   6.275   9.419   1.976 -1.7474 -0.1531 -1.5758
17721SOL     OW58482   3.880   3.561   6.188 -0.1208  0.0030  0.1971
17721SOL    HW158483   3.960   3.530   6.147 -0.2986 -0.0658 -0.1000
17721SOL    HW258484   3.865   3.501   6.261 -0.5816 -0.7439 -0.5018
17722SOL     OW58485   1.080   5.858   9.999 -0.1525 -0.1615  0.3360
17722SOL    HW158486   1.155   5.799  10.006 -0.0111 -0.1134 -0.6415
17722SOL    HW258487   1.020   5.814   9.940 -0.3344  0.3694  0.1153
17723SOL     OW58488   4.932   0.886   7.333 -0.0004 -0.4353  0.4314
17723SOL    HW158489   4.904   0.930   7.253 -2.1572 -0.7956  0.9338
17723SOL    HW258490   4.946   0.957   7.395 -1.7259 -0.3002  0.7138
17724SOL     OW58491   4.348   4.340   2.074 -0.5562 -0.0512  0.1595
17724SOL    HW158492   4.333   4.309   1.984 -1.5233 -1.6516  0.8294
17724SOL    HW258493   4.261   4.356   2.109 -0.2587 -0.4961  1.1486
17725SOL     OW58494   0.708   3.459   9.040  0.3566 -0.2775  0.0469
17725SOL    HW158495   0.792   3.474   9.084 -0.3729 -0.7845  1.6756
17725SOL    HW258496   0.642   3.485   9.104 -0.7526 -0.3049 -1.0428
17726SOL     OW58497   6.418   5.140  10.148 -0.1432  0.4595  0.0743
17726SOL    HW158498   6.491   5.079  10.135 -1.8494 -1.7729  0.4990
17726SOL    HW258499   6.408   5.184  10.064  0.3863 -0.6987 -0.6132
17727SOL     OW58500   8.970   3.246  11.166 -0.1299 -0.3121  0.2253
17727SOL    HW158501   8.951   3.153  11.179 -0.5847 -0.2468  0.0437
17727SOL    HW258502   8.900   3.277  11.108  0.1185  0.1034  0.1438
17728SOL     OW58503   1.923   0.650  11.755 -0.1843  0.5453 -0.1261
17728SOL    HW158504   1.946   0.565  11.718  0.5559  1.5145 -2.0302
17728SOL    HW258505   1.862   0.630  11.826  0.0302 -1.5582 -0.4786
17729SOL     OW58506   1.677   3.906   7.687 -0.1490 -0.0205  0.4612
17729SOL    HW158507   1.684   3.901   7.782 -1.7094  1.1541  0.6827
17729SOL    HW258508   1.585   3.929   7.671 -0.7175 -3.1660 -1.4817
17730SOL     OW58509   6.802   6.472   5.940  0.1261  0.2685  0.4346
17730SOL    HW158510   6.821   6.508   5.854  1.4700 -0.0045  0.6001
17730SOL    HW258511   6.882   6.485   5.990 -0.5681  0.2402  1.5878
17731SOL     OW58512  11.348   0.404  10.155  0.3649 -0.0958 -0.2835
17731SOL    HW158513  11.360   0.437  10.066  0.5689  0.8139  0.0733
17731SOL    HW258514  11.437   0.399  10.191  0.3012 -0.6587 -0.1945
17732SOL     OW58515   4.945   1.128   9.154 -0.1749 -0.7095  0.3863
17732SOL    HW158516   4.938   1.223   9.143  0.7292 -0.8335 -1.7709
17732SOL    HW258517   4.898   1.110   9.235  0.5865  1.7085  1.4796
17733SOL     OW58518   3.270   2.795  11.589 -0.0201  0.3193  0.1782
17733SOL    HW158519   3.330   2.745  11.534  0.0317 -0.0681  0.5772
17733SOL    HW258520   3.200   2.822  11.530 -0.1348 -0.3761 -0.0135
17734SOL     OW58521   5.017   3.579   2.271 -0.0099 -0.6193  0.0210
17734SOL    HW158522   5.109   3.565   2.294  0.0368 -1.4610 -0.6407
17734SOL    HW258523   4.995   3.663   2.311  0.7341 -0.9151  1.1023
17735SOL     OW58524   5.570   4.100   2.372 -0.4947  0.0399 -0.3750
17735SOL    HW158525   5.478   4.083   2.353 -0.6631  1.5230 -1.0334
17735SOL    HW258526   5.597   4.166   2.308  0.9398 -0.1185  0.0157
17736SOL     OW58527   7.985   3.501   7.816  0.5009 -0.3303 -0.2653
17736SOL    HW158528   7.903   3.546   7.793  0.9169  0.0156 -1.1271
17736SOL    HW258529   7.975   3.479   7.909 -1.0409 -1.3229 -0.6225
17737SOL     OW58530   1.110   0.270  11.816  0.0396 -0.4416  0.8785
17737SOL    HW158531   1.049   0.310  11.878  0.1621  1.3349 -0.0547
17737SOL    HW258532   1.058   0.257  11.737  0.8425  1.2873 -0.0004
17738SOL     OW58533   9.650   7.742   3.004 -0.2969 -0.4319  0.5548
17738SOL    HW158534   9.603   7.679   2.950  1.1418 -2.1750  1.2405
17738SOL    HW258535   9.582   7.801   3.037 -1.6632 -1.4644 -0.3146
17739SOL     OW58536   8.917  10.118   6.510  0.3457  0.2270  0.2686
17739SOL    HW158537   8.886  10.144   6.597 -2.8838 -1.9040 -0.0872
17739SOL    HW258538   8.879  10.183   6.450  1.1196  0.6864  0.2597
17740SOL     OW58539   3.579   3.843   3.633  0.2036 -0.2966  0.4332
17740SOL    HW158540   3.490   3.810   3.619  0.5654 -2.0411  1.8291
17740SOL    HW258541   3.635   3.784   3.582  0.5856  0.7786 -0.4224
17741SOL     OW58542   3.265   7.199   9.095  0.3445  0.1622  0.4499
17741SOL    HW158543   3.225   7.184   9.180  0.1075  0.7313  0.4448
17741SOL    HW258544   3.191   7.210   9.035  0.4960 -1.4110 -0.0624
17742SOL     OW58545   1.638   4.247   4.743 -0.2420  0.4295  0.4960
17742SOL    HW158546   1.704   4.315   4.728  0.0543  0.3809  1.5561
17742SOL    HW258547   1.667   4.202   4.822 -0.3675 -1.0093 -0.2431
17743SOL     OW58548   0.976  10.761   4.461  0.1839 -0.0151 -0.0295
17743SOL    HW158549   1.044  10.746   4.396 -0.5188  0.0125 -0.7887
17743SOL    HW258550   0.928  10.837   4.429 -1.1266 -0.9214 -0.3238
17744SOL     OW58551   2.976   8.645   4.379  0.0728 -0.0327 -0.2432
17744SOL    HW158552   3.028   8.631   4.300 -0.0903 -0.1321 -0.3322
17744SOL    HW258553   3.025   8.711   4.428  0.4883 -0.3947 -0.1497
17745SOL     OW58554  10.237   3.867   3.364 -0.4947 -0.2324 -0.3281
17745SOL    HW158555  10.277   3.849   3.278  1.1516  3.3906 -0.5155
17745SOL    HW258556  10.154   3.908   3.343 -1.1836 -1.4603 -0.0788
17746SOL     OW58557   5.948  10.102   7.751  1.0288  0.2109  0.6083
17746SOL    HW158558   5.909  10.071   7.833  0.7561 -0.5314  0.2006
17746SOL    HW258559   5.992  10.026   7.714 -1.1063 -0.1938 -1.2635
17747SOL     OW58560   3.675   9.883   6.021  0.1251 -0.9210  0.3063
17747SOL    HW158561   3.656   9.911   6.111  1.5103 -0.5579  0.5120
17747SOL    HW258562   3.652   9.791   6.019 -0.0229 -0.9086  1.0067
17748SOL     OW58563   7.893   3.423   2.901 -0.1766  0.2891  0.1297
17748SOL    HW158564   7.799   3.429   2.885 -0.3771 -1.6921  0.3936
17748SOL    HW258565   7.908   3.333   2.929  1.8603  0.4471 -0.2644
17749SOL     OW58566   4.464   5.436   0.405  0.5434 -0.0336 -0.6195
17749SOL    HW158567   4.501   5.525   0.407  0.9713 -0.1591 -2.0365
17749SOL    HW258568   4.539   5.378   0.414  0.0701 -0.3119  2.6573
17750SOL     OW58569   1.864   0.220   4.947 -0.0785  0.4184 -0.6258
17750SOL    HW158570   1.857   0.279   5.023 -0.2810  0.7178 -0.8748
17750SOL    HW258571   1.958   0.209   4.934  0.0424 -1.8507  1.3686
17751SOL     OW58572   1.163   8.052   8.440 -0.3352 -0.8559 -0.2707
17751SOL    HW158573   1.229   7.985   8.461 -0.6260 -0.9980  0.1956
17751SOL    HW258574   1.105   8.010   8.377  1.2740 -0.0177 -2.4440
17752SOL     OW58575   1.845  10.909   6.591 -0.5952  0.4794  0.2679
17752SOL    HW158576   1.923  10.872   6.632 -0.6423  0.3669  0.2586
17752SOL    HW258577   1.877  10.982   6.538 -0.3543 -0.2201 -0.5859
17753SOL     OW58578   3.872   8.394   3.665 -0.1246  0.3512 -0.4110
17753SOL    HW158579   3.848   8.319   3.610 -1.9695  0.6644 -0.0903
17753SOL    HW258580   3.968   8.390   3.671  0.0294 -0.3937 -2.6270
17754SOL     OW58581   0.067   7.807   8.761  0.3943  0.3043 -0.1703
17754SOL    HW158582   0.089   7.795   8.853  0.2541  0.4499 -0.1158
17754SOL    HW258583   0.151   7.807   8.716  0.3787 -1.2734 -0.2306
17755SOL     OW58584  11.427   6.030  11.469 -0.4278 -0.1533  0.6064
17755SOL    HW158585  11.442   6.100  11.533 -1.0207 -0.1064  0.7027
17755SOL    HW258586  11.495   6.043  11.403  0.4333 -0.4388  1.4144
17756SOL     OW58587   1.223   7.670   8.316 -0.3531  0.2967 -0.3247
17756SOL    HW158588   1.252   7.588   8.275  0.9038  2.2301 -3.7249
17756SOL    HW258589   1.128   7.662   8.323 -0.2994 -1.2542 -1.0412
17757SOL     OW58590   0.430   7.618   9.057  0.2593 -0.1502  0.1228
17757SOL    HW158591   0.386   7.672   8.990 -1.6660  0.2747  1.6455
17757SOL    HW258592   0.499   7.674   9.091 -0.3837  0.5898  0.2326
17758SOL     OW58593   3.066   5.959  10.530  0.3448  0.1167  0.4082
17758SOL    HW158594   2.974   5.963  10.507  0.1656  2.7706  1.2536
17758SOL    HW258595   3.070   5.901  10.606 -0.6201  0.0630  0.4253
17759SOL     OW58596  10.264   3.609   9.969 -0.2064 -0.3911 -0.1926
17759SOL    HW158597  10.212   3.562  10.034 -0.8256 -0.9788 -1.0870
17759SOL    HW258598  10.318   3.541   9.928  2.6134  0.4250  1.8608
17760SOL     OW58599   3.601   2.003   0.817 -0.3424 -0.2618  0.0371
17760SOL    HW158600   3.625   2.073   0.757  0.8264 -0.2083  0.5397
17760SOL    HW258601   3.664   1.933   0.800 -1.4440 -1.1731 -0.4014
17761SOL     OW58602   0.468   9.846   5.255  0.1064 -0.5180  0.6035
17761SOL    HW158603   0.505   9.878   5.338  0.5875  0.8823 -0.1301
17761SOL    HW258604   0.404   9.912   5.230  0.0775 -0.8486 -0.2286
17762SOL     OW58605   4.659   0.198   5.124  0.1164  0.3232  0.1834
17762SOL    HW158606   4.725   0.266   5.115 -0.6352  0.8926 -1.3019
17762SOL    HW258607   4.583   0.231   5.075 -0.1610 -1.7003 -0.8488
17763SOL     OW58608   6.524   7.582   1.758 -0.2001 -0.0869 -0.2554
17763SOL    HW158609   6.577   7.656   1.786  0.1807 -0.2072 -0.6538
17763SOL    HW258610   6.474   7.614   1.683 -0.6107 -0.0094  0.0449
17764SOL     OW58611   2.731   0.919  10.546 -0.2292 -0.0353  0.3630
17764SOL    HW158612   2.790   0.864  10.597  1.4691  1.4071  0.0499
17764SOL    HW258613   2.781   0.942  10.468 -1.8879 -0.2166 -0.8104
17765SOL     OW58614   9.409   5.692   5.452  0.3840  0.7458  0.2499
17765SOL    HW158615   9.499   5.674   5.424  0.8987  0.1147  2.1631
17765SOL    HW258616   9.419   5.738   5.536 -1.0536 -1.3262  1.6536
17766SOL     OW58617   1.485   8.396   8.431 -0.3715 -0.0017 -0.6064
17766SOL    HW158618   1.482   8.324   8.367  0.6844 -0.4952 -0.1279
17766SOL    HW258619   1.422   8.460   8.397 -1.5002 -1.2259 -0.9431
17767SOL     OW58620  10.022   1.743   8.085 -0.4572  0.5518  0.2938
17767SOL    HW158621   9.963   1.819   8.079  0.0662  1.0315  1.0047
17767SOL    HW258622  10.068   1.756   8.168  0.0162 -0.2764  0.1637
17768SOL     OW58623   7.834   9.456   8.137  0.3749  0.4690 -0.4374
17768SOL    HW158624   7.789   9.450   8.222  0.4206 -0.9149 -0.4844
17768SOL    HW258625   7.765   9.479   8.075  0.3301  1.4342 -0.0538
17769SOL     OW58626   4.298   2.864   6.839 -0.5897  0.1726 -0.2071
17769SOL    HW158627   4.249   2.935   6.797  0.2288  0.2163 -1.1258
17769SOL    HW258628   4.260   2.784   6.802 -0.0835  0.2010 -0.7902
17770SOL     OW58629   3.479   1.371   0.925  0.5319 -0.6364  0.3415
17770SOL    HW158630   3.523   1.447   0.963  0.8835 -0.5462 -0.2421
17770SOL    HW258631   3.424   1.408   0.856  1.2680 -0.9804 -0.4445
17771SOL     OW58632  10.579   0.263   9.424  0.0002 -0.0650 -0.1720
17771SOL    HW158633  10.642   0.288   9.491  1.0270 -0.0148 -1.1337
17771SOL    HW258634  10.592   0.168   9.414 -0.4706 -0.1526  0.0104
17772SOL     OW58635   8.240   5.378   0.382 -0.4601  0.0429  0.1608
17772SOL    HW158636   8.333   5.355   0.378 -0.6713 -0.7489 -0.6930
17772SOL    HW258637   8.222   5.388   0.475  0.1511 -1.2597  0.4524
17773SOL     OW58638   7.047   3.610   7.929  0.2371 -0.4582  0.2617
17773SOL    HW158639   7.114   3.542   7.921  1.2445  0.4590  0.7166
17773SOL    HW258640   7.074   3.662   8.005  0.0081  0.9882 -0.6040
17774SOL     OW58641   6.715   2.881   7.199  0.4918  0.0957  0.3248
17774SOL    HW158642   6.672   2.963   7.225  1.4181  0.6552  0.1671
17774SOL    HW258643   6.686   2.867   7.109 -0.6664 -0.4395  0.7707
17775SOL     OW58644   1.608   8.735   7.619  0.0536 -0.1439  0.6156
17775SOL    HW158645   1.522   8.734   7.575  0.5993 -2.7092 -0.5565
17775SOL    HW258646   1.590   8.705   7.708 -0.4121  0.5920  0.7827
17776SOL     OW58647   0.977   3.515   0.429 -0.3905 -0.3097  0.8868
17776SOL    HW158648   0.889   3.481   0.448 -0.2436 -0.4780  1.2664
17776SOL    HW258649   0.971   3.546   0.338 -0.3676 -1.8648  0.3353
17777SOL     OW58650  10.944   5.093   5.521  0.1871 -1.1319  0.2983
17777SOL    HW158651  10.904   5.179   5.513  1.5465 -0.4454  0.6442
17777SOL    HW258652  10.880   5.033   5.481 -1.4260 -0.1831  1.3338
17778SOL     OW58653   8.727   3.438   1.992  0.3629  0.4713  0.2950
17778SOL    HW158654   8.766   3.521   1.966  3.5137 -1.3755 -1.5325
17778SOL    HW258655   8.784   3.406   2.062 -1.1730  0.0663  1.4115
17779SOL     OW58656   3.798   7.462   8.273  0.5208 -0.0171 -0.3291
17779SOL    HW158657   3.837   7.546   8.248  0.1429  0.0361 -0.7627
17779SOL    HW258658   3.761   7.428   8.191  0.8849 -0.7213 -0.2101
17780SOL     OW58659   7.858   7.509   5.982  0.4917 -0.6276  0.3301
17780SOL    HW158660   7.895   7.430   5.942 -1.5028 -0.8708 -1.2211
17780SOL    HW258661   7.793   7.475   6.044 -1.3499 -0.2889 -1.3219
17781SOL     OW58662   8.699   2.291   2.090  0.6249 -0.3073  0.6437
17781SOL    HW158663   8.682   2.381   2.119 -1.2096  0.4754 -2.4160
17781SOL    HW258664   8.795   2.285   2.090  0.8328  1.9233  0.2541
17782SOL     OW58665   1.174   4.342   9.788  0.5279  0.3217  0.5313
17782SOL    HW158666   1.159   4.320   9.696  0.2425  2.1796  0.1118
17782SOL    HW258667   1.244   4.407   9.786  0.4445  0.4596  1.6349
17783SOL     OW58668   3.849   9.968   6.532  0.0623 -0.3344  0.2259
17783SOL    HW158669   3.804   9.979   6.616  0.6466 -1.2924  0.6861
17783SOL    HW258670   3.839   9.875   6.512 -0.1272 -0.0992 -0.8059
17784SOL     OW58671   7.689   7.997   3.901 -0.4991  0.2453  0.0314
17784SOL    HW158672   7.757   8.061   3.878  1.1936 -0.9141  1.4691
17784SOL    HW258673   7.662   7.959   3.817  1.0162  0.3933 -0.5538
17785SOL     OW58674   0.021   4.306   1.822 -0.8312 -0.6198 -0.0044
17785SOL    HW158675   0.053   4.384   1.866 -1.1933 -0.7245  0.4531
17785SOL    HW258676  -0.025   4.257   1.891 -1.9745 -0.4716 -0.6379
17786SOL     OW58677   9.756   7.009   2.051  0.5238  0.3794 -0.0078
17786SOL    HW158678   9.806   6.959   1.986 -0.2720  2.3237 -2.2803
17786SOL    HW258679   9.790   7.098   2.043 -0.3311  0.8682  1.5455
17787SOL     OW58680   5.973   6.181   1.940 -0.2146 -0.6419  0.4463
17787SOL    HW158681   5.910   6.224   1.882 -0.6179 -0.0439  1.3021
17787SOL    HW258682   5.919   6.134   2.003  0.2273 -1.9839 -0.1445
17788SOL     OW58683   0.106   4.560   8.904  0.4801  0.4525  0.5142
17788SOL    HW158684   0.086   4.652   8.888  0.1214  0.3234  0.2143
17788SOL    HW258685   0.132   4.525   8.819  1.1455  0.4054  0.7316
17789SOL     OW58686   4.895   9.268   7.039  0.0425  0.8408  0.0571
17789SOL    HW158687   4.821   9.250   7.097 -0.2571  1.4489 -0.1293
17789SOL    HW258688   4.856   9.284   6.954  0.4751  0.0604 -0.3016
17790SOL     OW58689   9.733   2.217  11.230 -0.0307  0.3357  0.0945
17790SOL    HW158690   9.710   2.181  11.144 -0.4125 -0.3704  0.4786
17790SOL    HW258691   9.683   2.298  11.236 -3.5094 -1.6700  1.3540
17791SOL     OW58692   5.324   0.241   4.766  0.6317 -0.6097  0.3064
17791SOL    HW158693   5.415   0.268   4.777  0.2367  0.1437  1.8890
17791SOL    HW258694   5.325   0.187   4.686  2.6783 -1.6519  0.9571
17792SOL     OW58695   2.911   0.759   1.048 -0.0105  0.3626 -0.0715
17792SOL    HW158696   2.926   0.852   1.032 -0.7554  0.1583 -2.3227
17792SOL    HW258697   2.817   0.753   1.066 -0.1117 -0.0338 -0.7181
17793SOL     OW58698  10.631   1.277  11.380  0.4841  0.1629 -0.5480
17793SOL    HW158699  10.553   1.332  11.383 -0.7107 -1.4971  0.1587
17793SOL    HW258700  10.669   1.284  11.468  0.0397 -0.5195 -0.2952
17794SOL     OW58701   8.747   9.385  11.101 -0.1921 -0.0766  0.1213
17794SOL    HW158702   8.813   9.389  11.032 -1.0512  1.5231 -0.6505
17794SOL    HW258703   8.682   9.323  11.068 -0.6919  0.8201 -0.6074
17795SOL     OW58704   0.468   2.883   6.286  0.3479  0.3315 -0.2980
17795SOL    HW158705   0.489   2.846   6.372 -0.1227  1.1512  0.1803
17795SOL    HW258706   0.553   2.894   6.244  0.4900 -1.5597 -0.5889
17796SOL     OW58707   6.120   5.285   1.875  0.1843  0.5286  0.3209
17796SOL    HW158708   6.106   5.249   1.788  1.0792 -0.0714  0.4183
17796SOL    HW258709   6.171   5.365   1.861 -3.3841  3.0104 -0.0831
17797SOL     OW58710   9.589   8.009   1.800 -0.9466  0.2413 -0.0273
17797SOL    HW158711   9.544   7.934   1.837 -0.4760  0.7657  1.6995
17797SOL    HW258712   9.646   7.973   1.732 -0.9141 -0.9280  0.6046
17798SOL     OW58713   7.468   4.223   2.763  0.1252  0.9886  0.4541
17798SOL    HW158714   7.395   4.207   2.823 -0.0040 -1.4461 -0.2425
17798SOL    HW258715   7.447   4.170   2.686  1.2382  2.5025 -0.9518
17799SOL     OW58716   3.611   2.628   4.008  0.5686 -0.2275 -0.3200
17799SOL    HW158717   3.621   2.551   4.064 -1.3532  0.9997  1.8587
17799SOL    HW258718   3.660   2.697   4.053 -0.8889  0.7491 -0.1652
17800SOL     OW58719   2.756   3.960   5.154 -0.2540 -0.4586 -0.1586
17800SOL    HW158720   2.777   3.914   5.235  0.1274 -0.6454 -0.3587
17800SOL    HW258721   2.833   3.947   5.099  1.1009  2.6564  0.7449
17801SOL     OW58722  10.921  10.535  11.595 -0.4781  0.1870  0.1691
17801SOL    HW158723  10.981  10.549  11.521  0.1095 -2.0483  0.1599
17801SOL    HW258724  10.867  10.614  11.597  0.4138  0.9104 -1.7808
17802SOL     OW58725   3.354  11.464   1.217 -0.4107  0.4490 -0.2376
17802SOL    HW158726   3.325  11.378   1.186 -0.8386  0.4527  0.1436
17802SOL    HW258727   3.395  11.505   1.140  3.5609 -1.6638  0.4854
17803SOL     OW58728   8.378   0.139   2.142 -0.3791 -0.4447 -0.0161
17803SOL    HW158729   8.410   0.222   2.177 -0.7858 -0.3656  0.1744
17803SOL    HW258730   8.441   0.074   2.173  1.3176  0.0820 -2.1751
17804SOL     OW58731   4.942   0.058   8.601 -0.1134 -0.4244  0.2160
17804SOL    HW158732   4.880   0.013   8.659 -2.2454  0.6340 -1.1202
17804SOL    HW258733   5.003   0.102   8.661 -0.8825 -1.1776  1.6070
17805SOL     OW58734   9.485   1.596   9.957 -0.2759  0.4207  0.1666
17805SOL    HW158735   9.425   1.578  10.029 -1.1666  2.0569 -0.1385
17805SOL    HW258736   9.454   1.678   9.919 -0.1612 -0.6337 -2.4128
17806SOL     OW58737   0.287   6.960   6.928  0.2875  0.4552 -0.5612
17806SOL    HW158738   0.283   6.986   6.836 -3.1273  0.4429 -0.5157
17806SOL    HW258739   0.299   6.866   6.925 -0.7157  0.3294 -1.0479
17807SOL     OW58740   0.371   3.970   0.174  0.0067 -0.0477 -0.3326
17807SOL    HW158741   0.341   3.885   0.207 -2.1861  0.3901 -1.0449
17807SOL    HW258742   0.293   4.026   0.176  1.4625  2.0967  0.4713
17808SOL     OW58743   8.691   0.637  10.873  0.2994 -0.5814  0.4939
17808SOL    HW158744   8.780   0.604  10.880  0.5661 -0.7977 -2.4555
17808SOL    HW258745   8.696   0.728  10.903  1.7368 -0.3239 -0.4575
17809SOL     OW58746  10.834  11.135   1.910 -0.4852  0.8393 -0.1717
17809SOL    HW158747  10.868  11.118   1.822  0.2983  1.8117 -0.0745
17809SOL    HW258748  10.759  11.193   1.895 -1.5372 -0.4913 -0.3087
17810SOL     OW58749   1.374   9.693   1.987 -0.1523  0.3696  0.1775
17810SOL    HW158750   1.408   9.615   1.942 -1.3359 -0.4218  0.5947
17810SOL    HW258751   1.326   9.741   1.919 -0.0662  0.3371  0.0932
17811SOL     OW58752  10.383   8.028   3.681 -0.0459  0.2192 -0.6081
17811SOL    HW158753  10.307   7.973   3.662 -0.3692 -0.9570  3.1960
17811SOL    HW258754  10.347   8.116   3.689 -0.8877 -0.1682  0.1242
17812SOL     OW58755  11.047   8.998   1.576 -0.1011  0.2930  0.0282
17812SOL    HW158756  10.981   8.929   1.587 -0.7234  0.8899  0.0943
17812SOL    HW258757  11.007   9.059   1.514  0.1039  1.0171  0.6022
17813SOL     OW58758   6.171   0.095   2.444  0.1443  0.7181 -0.1093
17813SOL    HW158759   6.202   0.057   2.362 -0.4186 -1.3493  0.5727
17813SOL    HW258760   6.223   0.051   2.512 -0.8292  0.8574  0.7542
17814SOL     OW58761   6.360   0.603  10.628 -0.5474  0.4538  0.0129
17814SOL    HW158762   6.427   0.626  10.692  0.7259 -2.5213 -0.1297
17814SOL    HW258763   6.289   0.565  10.680 -1.4523  2.0116 -0.0108
17815SOL     OW58764   9.488  10.040   3.701  0.4837 -0.4915 -0.0492
17815SOL    HW158765   9.538  10.098   3.759 -1.2690  1.3752 -0.2876
17815SOL    HW258766   9.437   9.985   3.760  1.5776 -1.2946  0.1754
17816SOL     OW58767  11.166   6.256   6.804  0.2053 -0.1972  0.2365
17816SOL    HW158768  11.128   6.344   6.799  0.3314 -0.1546  0.0364
17816SOL    HW258769  11.223   6.250   6.728 -0.4307 -0.7517 -0.2071
17817SOL     OW58770   2.468   5.973   8.658  0.1150  0.1323  0.3915
17817SOL    HW158771   2.431   6.030   8.590 -2.4657 -0.9284  0.7739
17817SOL    HW258772   2.538   5.925   8.614  0.2351  1.3108 -0.7813
17818SOL     OW58773   5.093   6.207   0.946 -0.6608  0.2851  0.2752
17818SOL    HW158774   5.088   6.210   0.850 -0.4087  0.3956  0.2645
17818SOL    HW258775   5.119   6.295   0.971  2.4678 -0.4864  0.2384
17819SOL     OW58776  10.952  10.520   7.449  0.5696  0.4839 -0.6679
17819SOL    HW158777  10.908  10.465   7.513  1.2267 -0.1337 -0.7327
17819SOL    HW258778  10.882  10.570   7.408 -0.0967 -0.6502 -0.9398
17820SOL     OW58779   6.989   5.493   2.336  0.7394 -0.0409  0.0470
17820SOL    HW158780   6.913   5.496   2.277  0.8695  0.3905 -0.1026
17820SOL    HW258781   7.037   5.574   2.317  1.3649 -0.4269 -0.0304
17821SOL     OW58782   2.267   4.094   3.576 -0.1884  0.0282 -0.3832
17821SOL    HW158783   2.213   4.029   3.622  1.0385 -0.5777  0.2382
17821SOL    HW258784   2.260   4.172   3.630 -1.6155  0.4228 -1.0963
17822SOL     OW58785   2.199  11.501   6.462  0.2620  0.3215  0.5611
17822SOL    HW158786   2.117  11.466   6.427  0.2356 -0.3413  1.2590
17822SOL    HW258787   2.202  11.592   6.430  0.1786 -0.1974 -1.0254
17823SOL     OW58788   2.477   2.433   2.034  0.2817  0.8732  0.4951
17823SOL    HW158789   2.569   2.406   2.038  1.1238  2.3562 -3.7562
17823SOL    HW258790   2.443   2.390   1.956 -2.2979  1.4278  1.2282
17824SOL     OW58791   1.267   6.903   8.240  0.9661 -0.0991  0.5521
17824SOL    HW158792   1.190   6.959   8.229  0.4402 -1.0811 -1.0586
17824SOL    HW258793   1.269   6.884   8.334 -0.3675  0.4765  0.7257
17825SOL     OW58794   5.050   5.382   8.783  0.9443  0.3584 -0.6515
17825SOL    HW158795   5.047   5.456   8.844  0.0465 -0.5254  0.4279
17825SOL    HW258796   5.135   5.341   8.800 -0.0208 -0.9516  1.3874
17826SOL     OW58797   0.912   6.637   6.606  0.4091  0.4058 -0.3318
17826SOL    HW158798   0.957   6.601   6.530 -1.2351  1.5389 -1.9443
17826SOL    HW258799   0.969   6.617   6.680  1.6571 -1.5146 -1.7257
17827SOL     OW58800   3.459   3.597   7.990 -0.0581 -0.4445  0.2593
17827SOL    HW158801   3.383   3.654   8.001  0.9235  0.7985  0.8677
17827SOL    HW258802   3.446   3.557   7.904 -1.1151  0.1839  0.1075
17828SOL     OW58803  10.740  10.351   6.690  0.1956 -0.5982 -0.0381
17828SOL    HW158804  10.768  10.430   6.736  0.6563  1.2758 -3.2084
17828SOL    HW258805  10.684  10.305   6.752  0.3813  1.9201  2.1642
17829SOL     OW58806  10.450   8.093   7.377 -0.0453 -0.2044  0.1127
17829SOL    HW158807  10.378   8.062   7.322  0.0682 -0.9980  0.4042
17829SOL    HW258808  10.413   8.166   7.426  0.3505  1.7993 -2.3487
17830SOL     OW58809   5.481   6.300   5.575  0.4873  0.4828 -0.2600
17830SOL    HW158810   5.426   6.292   5.497  2.0569 -1.2921 -1.2836
17830SOL    HW258811   5.500   6.393   5.582  1.2779  0.5709 -2.7516
17831SOL     OW58812   6.045   5.121  10.956  0.5174 -0.1906  0.0683
17831SOL    HW158813   6.108   5.049  10.962  1.8304  0.6874 -1.8592
17831SOL    HW258814   5.960   5.079  10.953  1.1448 -1.5511  0.5662
17832SOL     OW58815   9.980   5.920   1.858  0.3130  0.6298 -0.2285
17832SOL    HW158816   9.886   5.907   1.847  0.3688  0.5595 -0.6132
17832SOL    HW258817   9.995   6.010   1.832  0.6632  0.0538 -2.1293
17833SOL     OW58818   7.969  10.514   0.695 -0.0221 -0.1386 -0.5154
17833SOL    HW158819   7.900  10.449   0.707 -1.0233  0.4935 -2.4092
17833SOL    HW258820   7.951  10.552   0.609  2.7384  0.0340 -1.0896
17834SOL     OW58821   1.392   5.744   0.878 -0.8295 -0.8295 -0.3027
17834SOL    HW158822   1.353   5.826   0.847 -1.2489 -0.3100  1.4877
17834SOL    HW258823   1.479   5.770   0.910 -0.7691 -1.1790 -0.1790
17835SOL     OW58824   0.466   2.255   0.108 -0.2049 -0.1557 -0.2395
17835SOL    HW158825   0.416   2.187   0.152 -1.3614  0.2978 -0.8110
17835SOL    HW258826   0.538   2.274   0.168 -0.5746 -0.9938  0.4954
17836SOL     OW58827  10.254   4.474   7.606 -0.3518 -0.2848  0.6002
17836SOL    HW158828  10.309   4.399   7.629 -0.6259 -0.9293 -0.7760
17836SOL    HW258829  10.192   4.481   7.679 -0.5691 -1.6424  0.5636
17837SOL     OW58830   4.302   7.176   5.630  0.5754  0.1808  0.6524
17837SOL    HW158831   4.343   7.248   5.582  1.1893 -0.0034  0.8913
17837SOL    HW258832   4.371   7.142   5.686  0.1233 -0.2137  0.9817
17838SOL     OW58833  11.039   6.818   7.676 -0.2253 -0.2663  0.4508
17838SOL    HW158834  10.995   6.892   7.717 -0.5519 -0.0953 -0.1952
17838SOL    HW258835  11.070   6.852   7.592  2.8021  0.1790  1.6184
17839SOL     OW58836   6.422   1.572   2.106  0.0198  0.3061 -0.5430
17839SOL    HW158837   6.513   1.559   2.078 -0.0291 -0.6337 -0.3133
17839SOL    HW258838   6.370   1.535   2.035 -0.1827  0.8081 -0.6552
17840SOL     OW58839   6.075   9.978  10.549 -0.2838  0.0007  0.3277
17840SOL    HW158840   6.001  10.023  10.590  0.2433  0.1678  1.1053
17840SOL    HW258841   6.054   9.885  10.557  0.6486 -0.0844  2.6813
17841SOL     OW58842   5.876   9.978   8.838  0.2652 -0.7740  0.6610
17841SOL    HW158843   5.956   9.949   8.793 -0.3975  1.3799 -2.2509
17841SOL    HW258844   5.899  10.064   8.873 -1.0080  0.4552 -1.3299
17842SOL     OW58845  10.444   0.843   7.435 -0.5268 -0.2483 -0.3154
17842SOL    HW158846  10.408   0.865   7.349  1.0855 -0.3113 -1.0516
17842SOL    HW258847  10.442   0.925   7.484 -0.1213  0.1507 -0.9450
17843SOL     OW58848   3.661   2.637   3.339 -0.3926  0.3768  0.6064
17843SOL    HW158849   3.737   2.584   3.362 -1.5697 -2.1875 -0.9849
17843SOL    HW258850   3.679   2.668   3.250 -0.6940  0.7219  0.6643
17844SOL     OW58851  10.276   7.601   9.010 -0.3236  0.0258 -0.8170
17844SOL    HW158852  10.227   7.629   8.933 -2.0111  0.3580  0.3383
17844SOL    HW258853  10.228   7.525   9.043  0.1743  0.1030  0.1124
17845SOL     OW58854   2.812   9.029   9.214 -0.1344 -0.2749  0.7495
17845SOL    HW158855   2.719   9.044   9.229 -0.5670 -2.2749  0.3884
17845SOL    HW258856   2.836   8.962   9.278 -0.0376 -2.9233 -1.8419
17846SOL     OW58857   2.902  10.714   7.540  0.1718  0.0071  0.1381
17846SOL    HW158858   2.913  10.780   7.472  0.6817  1.2774  1.4088
17846SOL    HW258859   2.957  10.641   7.511  1.1646  0.9135 -0.3384
17847SOL     OW58860   7.618   6.919   2.501  0.2411  0.8123 -0.3078
17847SOL    HW158861   7.578   6.874   2.425  1.5800 -4.0345  1.4596
17847SOL    HW258862   7.550   6.917   2.568  0.6808  0.2074  0.1397
17848SOL     OW58863  10.103   4.996   8.861 -0.3551 -0.0038  0.1640
17848SOL    HW158864  10.100   4.903   8.881 -1.7580 -0.3366 -1.3917
17848SOL    HW258865  10.176   5.005   8.799 -0.8867 -0.2597 -0.5085
17849SOL     OW58866   9.153   8.292  11.542 -0.7303 -0.0060  0.4146
17849SOL    HW158867   9.165   8.367  11.599  1.4346 -0.7421  0.9983
17849SOL    HW258868   9.195   8.317  11.460 -0.1027 -0.5102  0.5736
17850SOL     OW58869   1.805   1.930   0.384 -0.4961  0.4936 -0.0981
17850SOL    HW158870   1.790   2.018   0.350  1.1770  1.1826  0.8268
17850SOL    HW258871   1.764   1.931   0.471  1.4079  1.1627  0.8636
17851SOL     OW58872  10.395   9.870   2.509  0.0755  0.1167  0.8359
17851SOL    HW158873  10.468   9.875   2.570 -0.8984  0.0356  2.0648
17851SOL    HW258874  10.374   9.961   2.488  1.2781  0.1157 -0.4994
17852SOL     OW58875   2.780  10.206   6.024  0.2108 -0.0349  0.6935
17852SOL    HW158876   2.718  10.242   5.961 -0.5055  0.5314  1.6751
17852SOL    HW258877   2.822  10.134   5.979 -0.1843  0.4401 -0.4644
17853SOL     OW58878  10.342   6.182   9.477 -0.4033 -0.0115  0.3926
17853SOL    HW158879  10.284   6.107   9.465  0.3354 -0.3706 -1.1077
17853SOL    HW258880  10.328   6.208   9.568 -1.9702 -0.8643  0.4328
17854SOL     OW58881   1.721   2.600   5.761  0.6792  0.3695 -0.4658
17854SOL    HW158882   1.638   2.634   5.796  1.3588  0.8692  0.7436
17854SOL    HW258883   1.703   2.583   5.669 -0.4872  1.4382 -0.4682
17855SOL     OW58884   9.540   6.888   3.865 -0.0559  0.2428  0.0234
17855SOL    HW158885   9.628   6.920   3.844 -0.2601  0.9795  0.2514
17855SOL    HW258886   9.540   6.797   3.836  1.4294 -0.3731  1.7428
17856SOL     OW58887   8.961   1.471   0.377  0.1010 -0.0615  0.4149
17856SOL    HW158888   9.030   1.462   0.442  0.5090 -0.5396 -0.0697
17856SOL    HW258889   8.899   1.401   0.398 -0.6904  0.9125  1.3827
17857SOL     OW58890   0.026   6.530   4.623  0.5348 -0.2603  0.2554
17857SOL    HW158891   0.040   6.548   4.716  0.9464 -2.3031  0.6366
17857SOL    HW258892  -0.026   6.450   4.622  0.9635 -0.5481 -1.2705
17858SOL     OW58893   8.658   5.449   8.960 -1.0108 -0.3888 -0.3204
17858SOL    HW158894   8.612   5.533   8.949 -1.9941 -1.0470 -1.5026
17858SOL    HW258895   8.710   5.461   9.039 -1.5644  1.1477 -0.1450
17859SOL     OW58896   8.823  10.039   1.648 -0.2148  0.0919 -0.4760
17859SOL    HW158897   8.813   9.951   1.684  0.9592  0.2884  0.3916
17859SOL    HW258898   8.909  10.068   1.677 -0.5938  1.5577 -0.6899
17860SOL     OW58899  11.803   7.620  11.808 -0.0108  0.1013 -0.1167
17860SOL    HW158900  11.794   7.715  11.804  1.5926  0.3362  0.9515
17860SOL    HW258901  11.713   7.587  11.816 -0.4976  1.7902  3.2843
17861SOL     OW58902   3.437   1.758   4.439  0.2950  0.3848 -0.0917
17861SOL    HW158903   3.532   1.760   4.429  0.8610 -3.2172  2.5799
17861SOL    HW258904   3.421   1.800   4.524  0.1237 -2.5563  1.4643
17862SOL     OW58905   0.319  11.477   8.537 -0.3559  0.2830  0.0343
17862SOL    HW158906   0.375  11.432   8.474 -2.3686 -1.1745 -0.8012
17862SOL    HW258907   0.367  11.470   8.620  0.6675 -0.9708 -0.6250
17863SOL     OW58908  11.273   4.857   4.464 -0.2189 -0.5793  0.3162
17863SOL    HW158909  11.216   4.837   4.390  0.1153 -0.6115  0.0705
17863SOL    HW258910  11.260   4.950   4.481  0.9786 -0.1753 -0.8629
17864SOL     OW58911   3.162  11.050   0.442  0.6978  0.1966 -0.6441
17864SOL    HW158912   3.142  11.105   0.366  1.3981 -0.7630 -1.5542
17864SOL    HW258913   3.080  11.005   0.461  0.1569  1.4133  0.0202
17865SOL     OW58914   2.087   5.237   3.331  0.3239 -0.1849  0.4902
17865SOL    HW158915   2.104   5.143   3.336 -0.7428 -0.4426 -0.2555
17865SOL    HW258916   2.112   5.261   3.242 -1.0381 -0.1466  0.0889
17866SOL     OW58917  11.776   9.703   0.546  0.5131 -0.4723  0.1709
17866SOL    HW158918  11.759   9.748   0.463 -0.3533  0.8075  1.0082
17866SOL    HW258919  11.723   9.623   0.541 -1.4105  0.7115  0.3918
17867SOL     OW58920   2.490   6.014   6.818 -0.9132  0.0923 -0.4929
17867SOL    HW158921   2.528   6.092   6.858 -1.6190 -0.4319  1.3275
17867SOL    HW258922   2.439   6.047   6.744  0.3382  1.1331 -0.9294
17868SOL     OW58923   7.808   3.572  10.901 -0.3781  0.1939  0.0500
17868SOL    HW158924   7.781   3.659  10.872  1.8654  1.2304  0.8721
17868SOL    HW258925   7.741   3.546  10.965 -0.0360  2.2033  1.2927
17869SOL     OW58926   7.070   9.209   5.454  0.3069  0.2390 -0.0692
17869SOL    HW158927   6.981   9.210   5.490 -0.2328 -0.1983 -1.3182
17869SOL    HW258928   7.089   9.116   5.442  1.0803  0.3177  0.5125
17870SOL     OW58929   7.056   0.780   2.449 -0.1136 -0.6735  0.0887
17870SOL    HW158930   6.966   0.794   2.418  0.5949  0.7040 -1.4988
17870SOL    HW258931   7.108   0.842   2.399  1.4872 -0.0326  2.4012
17871SOL     OW58932   7.399   7.725   7.238  0.4012 -0.3149  0.3678
17871SOL    HW158933   7.439   7.676   7.166 -1.6679 -0.1016 -1.0019
17871SOL    HW258934   7.366   7.658   7.297 -0.5143 -0.5808 -0.4164
17872SOL     OW58935   5.069   4.163   3.565  0.1019  0.5850  0.0217
17872SOL    HW158936   5.020   4.241   3.587  0.0939  0.3933  0.6885
17872SOL    HW258937   5.050   4.149   3.472  0.3452  1.5358 -0.1769
17873SOL     OW58938   8.422   8.387   0.153  0.2242 -0.9431 -0.5806
17873SOL    HW158939   8.481   8.371   0.227  0.0125 -2.2649 -0.6749
17873SOL    HW258940   8.464   8.457   0.103  1.0087 -0.9150  0.1009
17874SOL     OW58941   3.366   3.137   4.735 -0.0584 -0.2011 -0.1912
17874SOL    HW158942   3.447   3.120   4.784 -0.1193  0.1960  0.0519
17874SOL    HW258943   3.381   3.098   4.649 -0.0365 -1.1111  0.2175
17875SOL     OW58944   4.109   6.777   3.042 -0.6099  0.0895  0.1247
17875SOL    HW158945   4.110   6.832   2.964 -1.5844  0.8683  0.6450
17875SOL    HW258946   4.028   6.727   3.036  0.1241 -1.1090 -0.1916
17876SOL     OW58947   0.786   1.990   8.469 -0.1683  0.9654  0.3934
17876SOL    HW158948   0.855   2.055   8.458  1.0592 -0.6733 -3.0058
17876SOL    HW258949   0.828   1.916   8.511 -0.1522  0.4785 -0.4489
17877SOL     OW58950   8.221   0.148   7.567 -0.1506  1.0349 -0.5525
17877SOL    HW158951   8.168   0.173   7.643  0.4522 -0.1189  0.2699
17877SOL    HW258952   8.305   0.121   7.603 -0.9847 -3.0345 -1.2042
17878SOL     OW58953   3.339   1.531   6.514  0.8895  0.6282  0.2674
17878SOL    HW158954   3.322   1.616   6.555 -0.0317  0.6458 -0.1314
17878SOL    HW258955   3.346   1.470   6.587 -0.3379  0.7324  0.5007
17879SOL     OW58956  10.172   7.298   4.384  0.2704  0.2806 -0.0938
17879SOL    HW158957  10.142   7.381   4.346  1.5702  0.3654 -1.0216
17879SOL    HW258958  10.169   7.237   4.310 -0.1600 -0.3675  0.4564
17880SOL     OW58959   5.268   7.926   5.111 -0.5923  0.0171 -0.0929
17880SOL    HW158960   5.342   7.943   5.052  0.9785 -0.8244  1.5301
17880SOL    HW258961   5.194   7.970   5.069  1.3332  3.2284 -0.5172
17881SOL     OW58962   9.616   3.274   4.260  0.3669 -0.7304  0.3718
17881SOL    HW158963   9.707   3.286   4.288  0.1738  2.4708  0.0151
17881SOL    HW258964   9.612   3.313   4.173 -1.1752 -1.6703 -0.0232
17882SOL     OW58965   0.956   4.854   8.906 -0.0451  0.1006  0.0382
17882SOL    HW158966   0.877   4.868   8.958 -0.4989 -0.1699 -0.5655
17882SOL    HW258967   0.936   4.777   8.852  0.9464 -0.5038  0.4897
17883SOL     OW58968  11.273   2.034   2.246  0.0908  0.2179  0.3405
17883SOL    HW158969  11.354   2.067   2.208 -0.4881  0.5788 -0.6202
17883SOL    HW258970  11.232   2.111   2.285 -0.9436  0.5544 -1.3204
17884SOL     OW58971   4.130   4.300   0.918 -0.4292 -0.7040 -0.1416
17884SOL    HW158972   4.155   4.299   1.011 -2.0338 -0.7396  0.3255
17884SOL    HW258973   4.154   4.213   0.886 -0.9939 -1.1311  0.5715
17885SOL     OW58974   0.788   4.862   9.988  0.2259 -0.2777 -0.4797
17885SOL    HW158975   0.742   4.783   9.959  0.7136 -1.0352  0.7640
17885SOL    HW258976   0.874   4.855   9.947  0.7521 -1.1108  0.7351
17886SOL     OW58977   2.193   8.124   6.834  0.1336  0.4115  0.2800
17886SOL    HW158978   2.260   8.179   6.793  0.1732  0.7982  0.8510
17886SOL    HW258979   2.161   8.176   6.908 -0.4174  0.0074  0.3363
17887SOL     OW58980  11.529   2.992   4.820 -0.0283 -0.0225 -0.1248
17887SOL    HW158981  11.457   2.929   4.817  0.2614 -0.4963  1.5804
17887SOL    HW258982  11.586   2.960   4.891  0.2779  1.9856  0.5990
17888SOL     OW58983   2.892  11.087   9.810  0.0202  0.8807  0.4213
17888SOL    HW158984   2.829  11.071   9.739  0.0030 -0.4071  0.7157
17888SOL    HW258985   2.960  11.141   9.769 -1.3108  2.4280  0.1322
17889SOL     OW58986   0.881   2.341  11.393  0.4054 -0.1118  0.3394
17889SOL    HW158987   0.829   2.314  11.318  0.8870  0.1666 -0.1056
17889SOL    HW258988   0.955   2.389  11.355 -0.1093  1.3349  1.0584
17890SOL     OW58989   7.042   7.287  11.432  0.5548 -0.1013 -0.4192
17890SOL    HW158990   7.065   7.336  11.353  1.2201  0.4716  0.1177
17890SOL    HW258991   7.104   7.318  11.499 -1.3311  1.0210  0.9147
17891SOL     OW58992  10.254   6.820   6.228 -0.3813  0.0254  0.2821
17891SOL    HW158993  10.159   6.835   6.229 -0.4218 -0.2017  1.8515
17891SOL    HW258994  10.264   6.739   6.178 -0.9961  0.1527 -0.0587
17892SOL     OW58995   2.892   4.893   0.175  0.0990 -0.5420 -0.0741
17892SOL    HW158996   2.824   4.852   0.228  0.1046 -0.2374  0.1740
17892SOL    HW258997   2.864   4.984   0.166 -0.0671 -0.6600 -0.8747
17893SOL     OW58998   2.335   9.688  10.593  0.2978 -0.4153  0.1054
17893SOL    HW158999   2.371   9.612  10.638 -1.2712 -1.0256  0.3984
17893SOL    HW259000   2.261   9.654  10.543 -2.6215  1.3005  2.8830
17894SOL     OW59001  10.381   0.782   8.617 -0.4125 -0.2092 -0.7417
17894SOL    HW159002  10.403   0.785   8.711  1.8257 -0.4608 -1.1989
17894SOL    HW259003  10.290   0.752   8.615 -0.7105  0.3282  1.3607
17895SOL     OW59004   9.893   6.520   2.233  0.2675  0.0966 -0.1927
17895SOL    HW159005   9.957   6.586   2.260 -1.0411  1.0789  0.6331
17895SOL    HW259006   9.866   6.477   2.314 -1.5399  1.0642 -0.2249
17896SOL     OW59007   1.094   6.474  11.109  0.2585 -0.6176 -0.1193
17896SOL    HW159008   1.039   6.417  11.054  1.1761 -0.9540 -0.7091
17896SOL    HW259009   1.182   6.465  11.072  0.4548  1.0858 -0.1367
17897SOL     OW59010   9.720   1.023   2.620 -0.1828 -0.1061 -0.1044
17897SOL    HW159011   9.661   1.099   2.623  0.7982  0.7263 -1.1494
17897SOL    HW259012   9.756   1.017   2.709 -0.3301  0.6067  0.0093
17898SOL     OW59013   7.185   2.086   5.820 -0.2293  0.6231  0.3980
17898SOL    HW159014   7.199   2.181   5.820  0.0010  0.5992 -0.7379
17898SOL    HW259015   7.244   2.053   5.753  0.9025 -0.5434  1.9056
17899SOL     OW59016   6.834   9.638   3.650  0.1804  0.1347  0.2564
17899SOL    HW159017   6.887   9.631   3.730 -0.1124  0.3895  0.4713
17899SOL    HW259018   6.783   9.718   3.662  0.1707  0.1983 -0.2092
17900SOL     OW59019   0.195   5.681   7.920  0.0860  0.0809 -0.3760
17900SOL    HW159020   0.290   5.690   7.913 -0.0106  0.8542 -0.8620
17900SOL    HW259021   0.182   5.597   7.963  0.9641 -0.9568 -2.0169
17901SOL     OW59022  11.486   2.196  11.607 -0.0678 -0.2725  0.3908
17901SOL    HW159023  11.461   2.151  11.688  1.0009 -2.3613 -0.3763
17901SOL    HW259024  11.556   2.143  11.570  1.1668  1.9580 -0.7105
17902SOL     OW59025   7.467   2.196   9.976 -0.0950 -0.2248  0.4100
17902SOL    HW159026   7.478   2.124  10.038 -2.1706 -0.9723  0.0079
17902SOL    HW259027   7.514   2.167   9.898  0.9503 -0.1180  0.9824
17903SOL     OW59028   1.468   8.593   7.006  0.2336  0.4810 -0.3611
17903SOL    HW159029   1.514   8.600   7.090  2.0245 -0.1457 -1.2453
17903SOL    HW259030   1.461   8.499   6.991  0.5971  0.5920 -1.2598
17904SOL     OW59031   6.250   9.129   1.849  0.4750  0.1066  0.4986
17904SOL    HW159032   6.261   9.077   1.929 -0.0348  1.4634  1.4862
17904SOL    HW259033   6.298   9.209   1.866  0.1127  0.5400 -0.4551
17905SOL     OW59034   8.501  10.521   0.520 -0.4857 -0.5725 -0.5967
17905SOL    HW159035   8.526  10.428   0.514 -1.0807 -0.8273  0.4662
17905SOL    HW259036   8.577  10.568   0.486 -0.2615 -1.4523 -1.3764
17906SOL     OW59037   5.017   3.360   9.454 -0.1672 -0.7503 -0.6943
17906SOL    HW159038   5.034   3.452   9.472  0.0414 -0.9240  0.0464
17906SOL    HW259039   4.935   3.342   9.500 -0.7782 -0.6815 -1.7135
17907SOL     OW59040   5.193   1.656   9.626 -0.0255  0.2278  0.1294
17907SOL    HW159041   5.218   1.579   9.575 -0.5842  0.1203  0.0106
17907SOL    HW259042   5.269   1.714   9.620 -0.1230  0.2617 -0.9149
17908SOL     OW59043   7.100   7.739   1.845  0.4998  0.0262  0.6713
17908SOL    HW159044   7.116   7.804   1.913 -1.5402  1.9493 -0.5313
17908SOL    HW259045   7.005   7.739   1.834  0.7554  0.1672 -2.4650
17909SOL     OW59046   3.907   4.878  11.091  0.7591 -0.0969  0.0905
17909SOL    HW159047   3.858   4.866  11.010 -0.4687  0.0226  0.7960
17909SOL    HW259048   3.873   4.959  11.128  1.6173  0.0763  0.5218
17910SOL     OW59049   2.140   3.769   7.389  0.0021  0.0753  0.2000
17910SOL    HW159050   2.155   3.679   7.417  1.1058  0.2340  0.1814
17910SOL    HW259051   2.067   3.799   7.442  0.1769 -0.5652  0.8161
17911SOL     OW59052   6.723   4.348  10.645 -0.3000  0.3539 -0.3000
17911SOL    HW159053   6.723   4.438  10.612 -1.2554  0.2259 -0.6745
17911SOL    HW259054   6.801   4.308  10.604 -1.2489  0.2989 -2.1813
17912SOL     OW59055   7.475  11.284  10.218  0.7245 -0.3185 -0.1846
17912SOL    HW159056   7.519  11.292  10.303  2.3165  0.6186 -1.0302
17912SOL    HW259057   7.523  11.215  10.172 -0.3793 -1.0997 -0.2031
17913SOL     OW59058   4.286   7.352   4.493  0.0681  0.1037 -0.6028
17913SOL    HW159059   4.208   7.347   4.549  0.0949 -0.9849 -0.6310
17913SOL    HW259060   4.358   7.327   4.550 -0.0160 -1.9002 -1.2910
17914SOL     OW59061   0.510  10.426  10.443  0.0053 -0.1679 -0.0924
17914SOL    HW159062   0.599  10.433  10.480 -0.3771 -0.7775  0.9838
17914SOL    HW259063   0.478  10.516  10.443  1.1878  0.3191 -2.0324
17915SOL     OW59064   6.297   9.797   0.949 -0.0026 -0.3416 -0.7455
17915SOL    HW159065   6.239   9.751   0.888  1.0325 -4.5568  1.1201
17915SOL    HW259066   6.244   9.809   1.028 -0.0084  1.1295 -0.9456
17916SOL     OW59067   7.467   4.435   3.163 -0.1629  0.0892 -0.3405
17916SOL    HW159068   7.465   4.518   3.116  2.2442  0.0041 -0.6859
17916SOL    HW259069   7.538   4.386   3.122 -0.0716 -1.2505  1.3288
17917SOL     OW59070  10.532   6.413   6.252 -0.0402 -0.4938  0.0021
17917SOL    HW159071  10.608   6.464   6.281 -1.5930  1.7191  0.5201
17917SOL    HW259072  10.507   6.362   6.329  0.7748 -1.0528 -0.0967
17918SOL     OW59073   9.766   5.545   6.211 -0.4370  0.2045 -0.4738
17918SOL    HW159074   9.693   5.537   6.272 -0.0756 -2.2631 -0.2380
17918SOL    HW259075   9.726   5.575   6.130 -1.3924  0.8045  0.1987
17919SOL     OW59076   7.572   4.994   1.996 -0.2870  0.1006 -0.5282
17919SOL    HW159077   7.626   4.915   2.007  1.5628  1.2574 -0.8626
17919SOL    HW259078   7.483   4.965   2.015  0.5796 -1.6451  1.1779
17920SOL     OW59079   1.747   5.943   2.482 -0.0283  0.7350 -0.5659
17920SOL    HW159080   1.703   5.991   2.552  0.8158  0.9129 -0.1493
17920SOL    HW259081   1.839   5.970   2.488  0.7989 -1.9819  0.6629
17921SOL     OW59082   7.940   4.221  10.603  0.1045  0.0444 -0.0814
17921SOL    HW159083   7.856   4.184  10.577  1.2908 -3.9569  1.1411
17921SOL    HW259084   7.987   4.235  10.520 -0.3946 -1.2907 -0.6061
17922SOL     OW59085   1.384   7.636  11.069  0.4247 -0.0726 -0.0910
17922SOL    HW159086   1.459   7.654  11.012  0.5534 -1.3403 -0.3485
17922SOL    HW259087   1.355   7.723  11.097  0.8541  0.5425 -1.4404
17923SOL     OW59088  10.985   9.533   7.052 -0.2054 -0.1880 -0.0085
17923SOL    HW159089  11.022   9.451   7.086  2.4668  0.8939 -0.0579
17923SOL    HW259090  11.055   9.570   6.998 -1.6914  1.6902 -0.7517
17924SOL     OW59091   9.309   0.577  10.789  0.6516 -0.0156 -0.2482
17924SOL    HW159092   9.403   0.572  10.808  0.6324 -1.2106 -0.3489
17924SOL    HW259093   9.282   0.485  10.783 -0.4685  0.3222 -0.4976
17925SOL     OW59094   4.900   5.862   1.847 -0.0434  0.1115  0.2526
17925SOL    HW159095   4.894   5.913   1.766  3.1474  0.7645  0.2781
17925SOL    HW259096   4.904   5.928   1.916 -0.8367 -0.3751  0.7752
17926SOL     OW59097   1.279   2.815   4.582  0.1267  0.5281  0.2058
17926SOL    HW159098   1.303   2.724   4.596 -3.5198 -0.2105  3.0468
17926SOL    HW259099   1.284   2.827   4.487 -1.4258 -3.3880 -0.5468
17927SOL     OW59100  10.492   8.939   1.003 -0.3901 -0.1531 -0.1828
17927SOL    HW159101  10.439   8.866   0.971  0.5548  0.3468 -3.1783
17927SOL    HW259102  10.436   9.016   0.994 -0.0789  0.0082 -0.7698
17928SOL     OW59103   1.452   8.488   1.901  0.0525 -0.4016 -0.1125
17928SOL    HW159104   1.486   8.551   1.837 -1.1190 -0.7660 -1.1175
17928SOL    HW259105   1.525   8.428   1.916  0.4589 -0.1070 -0.8514
17929SOL     OW59106  10.350   9.212   1.953  0.1249  0.0509  0.0810
17929SOL    HW159107  10.293   9.229   2.028  0.0361  4.6768 -0.7395
17929SOL    HW259108  10.297   9.158   1.895 -0.9248 -1.1467  2.0432
17930SOL     OW59109   7.845   9.394  11.717  0.5204  0.4426  0.0488
17930SOL    HW159110   7.816   9.474  11.675  0.9907  0.3879 -0.3848
17930SOL    HW259111   7.791   9.325  11.678 -1.5018  0.7724  2.0349
17931SOL     OW59112   3.792  10.339   6.485  0.6873 -0.8236 -0.7746
17931SOL    HW159113   3.773  10.404   6.418  1.9005 -1.0834 -1.3905
17931SOL    HW259114   3.758  10.257   6.450 -0.7930 -0.5672 -0.0213
17932SOL     OW59115   3.746  10.364   3.460  0.0868 -0.1169  0.0373
17932SOL    HW159116   3.653  10.348   3.442  0.1154 -2.0393  1.3688
17932SOL    HW259117   3.793  10.312   3.395  0.2708  0.5104 -0.3516
17933SOL     OW59118   3.340   5.281   6.398  1.1433  0.4506  0.2208
17933SOL    HW159119   3.395   5.206   6.418 -0.7256 -1.0256  0.1028
17933SOL    HW259120   3.278   5.250   6.332 -0.8004  1.5187  1.4092
17934SOL     OW59121  11.525   9.171   3.820  0.1772  0.1858 -0.1416
17934SOL    HW159122  11.608   9.178   3.773 -0.2632  0.6630 -0.8620
17934SOL    HW259123  11.498   9.262   3.835 -1.1481  0.0619 -1.5969
17935SOL     OW59124   8.818   7.123   5.968  0.0731  0.4181  0.1048
17935SOL    HW159125   8.838   7.156   5.881 -0.8638 -1.4370 -0.8701
17935SOL    HW259126   8.883   7.053   5.982 -1.4007 -1.0898 -0.2714
17936SOL     OW59127  10.080   6.408   9.319  0.3638 -0.1637 -1.0440
17936SOL    HW159128  10.168   6.396   9.281  0.2336 -2.1797 -0.8239
17936SOL    HW259129  10.083   6.360   9.401 -0.6863  0.5406 -0.5800
17937SOL     OW59130   4.376   2.848   2.054  0.2260 -0.1132  0.4897
17937SOL    HW159131   4.399   2.865   1.962 -1.4612  1.4128  0.2773
17937SOL    HW259132   4.394   2.755   2.066 -0.5194 -0.6272 -1.7416
17938SOL     OW59133   8.047   2.386   2.889  0.1888 -0.2663 -0.7406
17938SOL    HW159134   8.071   2.414   2.977 -0.5310  0.3265 -0.7214
17938SOL    HW259135   7.986   2.314   2.902  1.2730 -1.2142 -0.7810
17939SOL     OW59136   2.948   7.672   1.059  0.4259 -0.5500 -1.0613
17939SOL    HW159137   3.041   7.686   1.043  0.7138 -2.5821 -1.5320
17939SOL    HW259138   2.940   7.577   1.071 -1.7370 -0.6063 -2.3113
17940SOL     OW59139   7.428  11.496   3.540  0.1722  0.3692 -0.0302
17940SOL    HW159140   7.394  11.408   3.560  2.2845 -0.2326  1.1989
17940SOL    HW259141   7.369  11.555   3.586 -1.2244 -0.3812 -0.7787
17941SOL     OW59142   3.686   9.703   8.917  0.5562  0.2716  0.7758
17941SOL    HW159143   3.694   9.722   8.823  0.5573 -0.0622  0.7071
17941SOL    HW259144   3.736   9.773   8.959  0.0808  0.7504  0.5582
17942SOL     OW59145   1.454   1.464   3.103  0.0100  0.2850 -0.2198
17942SOL    HW159146   1.457   1.516   3.183  0.8801 -0.5294  0.2942
17942SOL    HW259147   1.405   1.518   3.041  2.0693  2.3465 -0.1592
17943SOL     OW59148   9.373   7.405  11.382 -0.1603 -0.5938  0.5938
17943SOL    HW159149   9.460   7.429  11.349 -0.5163  0.8271  0.5856
17943SOL    HW259150   9.315   7.471  11.344 -1.0259 -0.6841  1.7172
17944SOL     OW59151   6.016  10.252   8.623 -0.1837  0.0024  0.2966
17944SOL    HW159152   5.964  10.172   8.631  1.3933 -1.1739 -0.6686
17944SOL    HW259153   6.105  10.225   8.644  1.1716  0.4578 -3.9477
17945SOL     OW59154  11.392  11.616   6.423  0.1958 -0.1076  0.0705
17945SOL    HW159155  11.472  11.588   6.466  0.2700  1.0601  0.7557
17945SOL    HW259156  11.422  11.657   6.341  0.2915  0.1115  0.2117
17946SOL     OW59157   0.685  11.076   8.800  0.0514  0.5799 -0.0274
17946SOL    HW159158   0.681  11.022   8.879  0.4852 -0.3563 -0.6210
17946SOL    HW259159   0.774  11.111   8.800 -0.4034  1.8001  0.6570
17947SOL     OW59160   9.657   5.600   7.812  0.3761  0.8067 -0.4406
17947SOL    HW159161   9.641   5.520   7.862  2.4042 -0.4634 -1.6985
17947SOL    HW259162   9.699   5.659   7.874 -1.2833  1.0040  0.5440
17948SOL     OW59163   0.675   4.364   2.297  0.1537 -0.3016  0.5133
17948SOL    HW159164   0.720   4.293   2.342  0.6917  0.7085  1.5972
17948SOL    HW259165   0.717   4.368   2.211 -0.0426 -1.4266  0.3471
17949SOL     OW59166   2.379   4.819   3.221  0.6718 -0.0859 -0.1095
17949SOL    HW159167   2.394   4.814   3.315 -2.4226  1.7266  0.5866
17949SOL    HW259168   2.373   4.727   3.193  2.2363 -0.6560  1.2820
17950SOL     OW59169   8.850   7.108   8.350  0.0072 -0.1603 -0.7257
17950SOL    HW159170   8.898   7.098   8.268  1.4779  3.3556 -0.4876
17950SOL    HW259171   8.875   7.031   8.401  1.8496 -0.7191 -2.3163
17951SOL     OW59172   1.880   4.393   8.965  0.0737  0.0101  0.0382
17951SOL    HW159173   1.864   4.479   8.926  2.2134  0.7727  0.6856
17951SOL    HW259174   1.974   4.378   8.951 -0.0832 -1.8535  0.7030
17952SOL     OW59175   8.200  10.179   1.591  0.2515  0.1089 -0.2285
17952SOL    HW159176   8.280  10.182   1.538  1.2062 -0.3693  1.1488
17952SOL    HW259177   8.156  10.262   1.572  2.0280  1.2560  0.4174
17953SOL     OW59178   9.049   6.959   3.901 -0.1522 -0.0776  0.6855
17953SOL    HW159179   8.959   6.969   3.873 -0.3425  0.6211  1.5050
17953SOL    HW259180   9.076   7.046   3.928  0.9079 -0.1948  0.0662
17954SOL     OW59181  11.162  10.402   9.569 -0.0607  0.9391 -0.2534
17954SOL    HW159182  11.077  10.438   9.543  0.0675  0.5486 -1.2340
17954SOL    HW259183  11.158  10.310   9.543  0.4245  0.7564  0.2990
17955SOL     OW59184   0.930   1.779   4.584  0.0906 -0.3345 -0.1590
17955SOL    HW159185   0.947   1.697   4.537  0.6779 -0.2801 -0.0458
17955SOL    HW259186   0.921   1.845   4.516  1.8707 -0.0806 -0.1900
17956SOL     OW59187   8.385   8.853   9.031 -0.1258  0.2147 -0.0508
17956SOL    HW159188   8.386   8.764   9.067  2.4954 -0.0088 -0.4376
17956SOL    HW259189   8.300   8.861   8.989 -0.6844 -1.8835  0.5446
17957SOL     OW59190   5.224   9.331   9.252 -0.2013  0.3094 -0.0808
17957SOL    HW159191   5.201   9.293   9.168 -0.5253  1.3366 -0.4665
17957SOL    HW259192   5.188   9.419   9.250 -0.5524  0.2250  1.2913
17958SOL     OW59193   1.658   0.872   6.475 -0.0272 -0.5864 -0.0554
17958SOL    HW159194   1.732   0.914   6.519 -0.0183 -1.0195  0.3410
17958SOL    HW259195   1.694   0.840   6.393  0.3101 -1.0898  0.2813
17959SOL     OW59196   6.132   8.991   0.631 -0.1263 -0.5619 -0.0105
17959SOL    HW159197   6.219   8.985   0.670  0.4927 -0.6551 -1.3535
17959SOL    HW259198   6.109   8.901   0.608  0.7955 -0.2417 -2.4727
17960SOL     OW59199  10.369   9.099   4.852 -0.0567 -0.0699  0.0882
17960SOL    HW159200  10.315   9.027   4.819  0.1636 -0.7383  1.1610
17960SOL    HW259201  10.324   9.178   4.822 -1.0598 -0.6287  0.0752
17961SOL     OW59202   8.579  10.904   9.809 -0.3562  0.4484  0.3613
17961SOL    HW159203   8.660  10.903   9.759 -0.3619  1.7849  0.3034
17961SOL    HW259204   8.584  10.982   9.863 -1.7176  0.7088  0.1598
17962SOL     OW59205   1.487   7.522   9.892 -0.0706  0.0202 -0.0853
17962SOL    HW159206   1.398   7.555   9.883 -0.4491 -0.5616  1.3481
17962SOL    HW259207   1.540   7.599   9.912 -0.5125  0.1557  0.5899
17963SOL     OW59208   0.483   0.481   6.203  0.2245 -0.3299  0.4007
17963SOL    HW159209   0.560   0.526   6.236 -0.8532  1.3094  0.8068
17963SOL    HW259210   0.515   0.427   6.131  1.5918  1.1119 -0.1191
17964SOL     OW59211   9.270   1.888   7.676 -0.0158 -0.0498 -0.2483
17964SOL    HW159212   9.204   1.878   7.744 -1.2587  0.5094 -1.3301
17964SOL    HW259213   9.271   1.804   7.631  0.2769 -0.1752 -0.0130
17965SOL     OW59214  10.529   6.964   2.014 -0.2539 -0.2187 -0.0378
17965SOL    HW159215  10.486   7.023   2.076  1.0821  1.3206 -0.5029
17965SOL    HW259216  10.621   6.987   2.020  0.0019 -0.6212 -1.9838
17966SOL     OW59217  11.139   1.015  10.914  0.3658 -0.2986 -0.3195
17966SOL    HW159218  11.047   1.000  10.891 -1.1850  3.2030  2.5080
17966SOL    HW259219  11.181   1.037  10.832 -2.2807  1.5596 -1.3124
17967SOL     OW59220   8.483   5.835   6.982 -0.0403  0.1778  0.0818
17967SOL    HW159221   8.417   5.898   6.951  0.4161 -0.3357 -2.0948
17967SOL    HW259222   8.434   5.755   6.997 -0.0870  0.0723 -0.5947
17968SOL     OW59223  10.737   0.079   8.256  0.3421 -0.1909  0.3833
17968SOL    HW159224  10.669   0.088   8.323  0.8400  0.8676  0.7711
17968SOL    HW259225  10.719   0.150   8.195  0.0311 -1.0135 -0.4989
17969SOL     OW59226  10.209   9.726   5.468 -0.3806 -0.2770 -0.2724
17969SOL    HW159227  10.300   9.705   5.486 -0.4212  0.4947  0.9456
17969SOL    HW259228  10.194   9.811   5.510 -1.3280  0.2112 -1.5243
17970SOL     OW59229   3.529   0.861   8.216  0.3975 -0.4218 -0.2229
17970SOL    HW159230   3.564   0.932   8.271  0.4486  1.1411 -2.1884
17970SOL    HW259231   3.602   0.835   8.160  0.5773 -2.5547  0.8624
17971SOL     OW59232  11.513   4.549   5.532 -0.4219  0.4481 -0.9256
17971SOL    HW159233  11.587   4.489   5.539 -1.2217 -0.5574 -0.8705
17971SOL    HW259234  11.542   4.615   5.468  0.3022 -0.2351 -1.3222
17972SOL     OW59235   6.666   2.637   2.426  0.4400  0.0433 -0.7645
17972SOL    HW159236   6.610   2.561   2.445  0.4553  0.1629 -0.2300
17972SOL    HW259237   6.615   2.712   2.456  1.4357  0.0534  1.0234
17973SOL     OW59238   6.719   8.197   0.982  0.0767  0.2261  0.2208
17973SOL    HW159239   6.808   8.185   1.014 -0.2402  0.3711  1.1838
17973SOL    HW259240   6.694   8.285   1.012 -1.1292 -0.5988  1.8227
17974SOL     OW59241   7.508   2.978  10.497  0.2111 -0.1774  0.1007
17974SOL    HW159242   7.450   3.052  10.479  1.2387  0.9151  1.0323
17974SOL    HW259243   7.481   2.910  10.436 -1.2712  0.6967 -0.2676
17975SOL     OW59244   4.339   3.360   3.133  0.5428  0.5792 -0.3725
17975SOL    HW159245   4.413   3.415   3.158  1.9423 -0.4705 -1.9636
17975SOL    HW259246   4.278   3.368   3.206  1.9286  1.9963  0.7152
17976SOL     OW59247   0.131   8.432   8.283  0.2215  0.1658  0.1699
17976SOL    HW159248   0.119   8.370   8.211 -2.3792  1.6522 -0.7897
17976SOL    HW259249   0.142   8.376   8.360  2.3461 -1.4586 -1.1586
17977SOL     OW59250   9.704   0.160   2.811  0.1302 -0.1710  0.4803
17977SOL    HW159251   9.674   0.125   2.895  0.7673  0.6985  1.0900
17977SOL    HW259252   9.635   0.221   2.785  1.4219  2.1783  2.1084
17978SOL     OW59253   4.128   8.440   3.707 -0.1864 -0.3177 -0.6775
17978SOL    HW159254   4.171   8.452   3.791  1.2886  0.2502 -1.4811
17978SOL    HW259255   4.190   8.474   3.643 -0.4419 -2.4389 -2.1653
17979SOL     OW59256  11.643   6.144   4.865  0.2700 -0.3992  0.1795
17979SOL    HW159257  11.613   6.097   4.943  0.6096 -1.0263 -0.0619
17979SOL    HW259258  11.651   6.235   4.894  0.0582 -0.5678  0.7831
17980SOL     OW59259   8.025   7.150   6.864  0.4843 -0.7159  0.5111
17980SOL    HW159260   7.940   7.117   6.893  0.1634 -1.5990 -1.2878
17980SOL    HW259261   8.088   7.087   6.898  0.4149 -0.1505  1.7119
17981SOL     OW59262  10.062  11.153   3.270  0.0716  0.0739  0.4444
17981SOL    HW159263  10.155  11.173   3.279  0.0702  0.2869 -0.0155
17981SOL    HW259264  10.055  11.105   3.188 -0.2028 -0.0935  0.5625
17982SOL     OW59265   9.650  10.825   2.871 -0.0305  0.3477  0.3728
17982SOL    HW159266   9.680  10.735   2.878  2.0533  0.9824  0.4178
17982SOL    HW259267   9.725  10.872   2.834 -1.1010  2.0434  0.2493
17983SOL     OW59268   9.982   0.262   5.858 -0.7546  0.6406  0.1652
17983SOL    HW159269   9.978   0.276   5.953  0.6016  0.7499  0.2211
17983SOL    HW259270   9.896   0.226   5.836 -0.8781  0.0276  1.5323
17984SOL     OW59271   4.337   5.306  11.112 -0.0436  0.3384 -0.4927
17984SOL    HW159272   4.412   5.304  11.052  0.8719  2.1507  0.5167
17984SOL    HW259273   4.279   5.373  11.075 -1.7746 -1.7779 -1.8638
17985SOL     OW59274   1.749   6.294  11.166 -0.0563 -0.6401  0.0562
17985SOL    HW159275   1.720   6.337  11.086  1.1365  0.1984  0.0483
17985SOL    HW259276   1.844   6.286  11.157  0.2975  0.6738  1.9376
17986SOL     OW59277   8.674   0.491   4.172  0.4222 -0.5434  0.1998
17986SOL    HW159278   8.708   0.405   4.197  1.3070  0.2109  1.7104
17986SOL    HW259279   8.746   0.532   4.124  0.7085  0.0523  1.1145
17987SOL     OW59280  10.298   3.909   0.374  0.1862  0.5729  0.0822
17987SOL    HW159281  10.364   3.861   0.324 -0.0538  0.0208  0.2933
17987SOL    HW259282  10.248   3.958   0.309 -0.8376 -0.9915 -0.3457
17988SOL     OW59283   2.614   3.549   0.708  0.3983  0.0751 -0.4667
17988SOL    HW159284   2.528   3.510   0.725  0.8028 -0.2987  0.8876
17988SOL    HW259285   2.676   3.486   0.744  1.2220  0.5615 -1.0078
17989SOL     OW59286   0.713  11.082   1.669  0.1422  0.6112  0.4323
17989SOL    HW159287   0.702  11.084   1.574  0.8024  0.0844  0.3387
17989SOL    HW259288   0.734  11.172   1.693 -0.2768  0.7985  0.1180
17990SOL     OW59289   9.003   5.417   9.769 -0.2021  0.2519  0.5615
17990SOL    HW159290   8.961   5.331   9.762  2.6571 -1.1911 -0.4812
17990SOL    HW259291   9.006   5.434   9.863 -2.5736  0.2556  0.7184
17991SOL     OW59292   5.069   8.315   1.694  0.4600  0.2242 -0.3555
17991SOL    HW159293   5.082   8.250   1.625 -0.0622  1.2799 -1.5004
17991SOL    HW259294   4.990   8.363   1.668  0.2440  0.6545  0.9907
17992SOL     OW59295   3.094  10.994  10.905  0.6481  0.0771 -0.4039
17992SOL    HW159296   3.110  11.005  10.811 -1.0403  0.9961 -0.6216
17992SOL    HW259297   3.062  11.079  10.934  1.3737 -0.1285  1.0724
17993SOL     OW59298  10.749   5.532   3.088 -0.2615  0.1509 -0.7927
17993SOL    HW159299  10.833   5.487   3.091  0.8124  2.0659  0.0609
17993SOL    HW259300  10.706   5.508   3.170 -0.7723 -1.1548 -1.4129
17994SOL     OW59301   0.239   2.984   8.812  0.0391 -0.2653  0.3565
17994SOL    HW159302   0.308   3.007   8.874 -0.3244 -1.2491  1.1559
17994SOL    HW259303   0.161   2.973   8.865 -0.7046  0.6410 -0.5196
17995SOL     OW59304   3.604   1.105   7.523 -0.1918 -0.0519  0.0225
17995SOL    HW159305   3.542   1.174   7.499 -0.2366 -0.8201 -2.2912
17995SOL    HW259306   3.652   1.085   7.442  2.1467 -0.4560  1.3946
17996SOL     OW59307   1.334   8.771  11.670  0.0275  0.3655  0.2105
17996SOL    HW159308   1.389   8.705  11.629  0.1938  0.9348 -0.5085
17996SOL    HW259309   1.386   8.805  11.743  0.4557  0.5837 -0.1931
17997SOL     OW59310   0.461   2.930   8.288 -0.0057  0.2016  0.3048
17997SOL    HW159311   0.441   3.020   8.264 -1.2966  0.0063  0.5694
17997SOL    HW259312   0.512   2.896   8.214  0.9532  1.2804  0.4344
17998SOL     OW59313   4.887   9.641   1.735 -0.1992  0.0749  0.4460
17998SOL    HW159314   4.822   9.693   1.782  0.4092  1.6671 -0.4038
17998SOL    HW259315   4.968   9.654   1.785  0.0853  0.4452 -0.1011
17999SOL     OW59316   1.748   9.980   4.177  0.2642  0.2476  0.1317
17999SOL    HW159317   1.707  10.052   4.129  1.1263  0.5383 -0.1908
17999SOL    HW259318   1.776   9.918   4.109  2.7174  1.2944  0.0803
18000SOL     OW59319   4.264   7.522   4.817  0.3223 -0.1251  0.0711
18000SOL    HW159320   4.312   7.602   4.796  0.7917  0.3275  2.5160
18000SOL    HW259321   4.314   7.482   4.888 -1.3177 -1.1995  0.6844
18001SOL     OW59322  10.165   7.106   5.345  0.0583  0.6153 -0.1688
18001SOL    HW159323  10.083   7.134   5.303  0.3111  1.2443 -0.2541
18001SOL    HW259324  10.162   7.146   5.432 -1.5266 -2.5108  1.3470
18002SOL     OW59325   0.214   2.048   4.760  0.0084  0.2391  0.1350
18002SOL    HW159326   0.137   2.043   4.817  0.7541 -0.5203  1.1110
18002SOL    HW259327   0.180   2.037   4.672 -1.1056  0.8315  0.4762
18003SOL     OW59328   7.399   9.536   9.959 -0.0475  0.2148  0.1585
18003SOL    HW159329   7.415   9.602   9.891 -1.2517  0.2461 -0.1168
18003SOL    HW259330   7.426   9.453   9.919 -1.2036  0.1675 -0.5468
18004SOL     OW59331   4.058   0.457   7.151  0.8315 -0.5250 -0.3439
18004SOL    HW159332   4.077   0.369   7.117 -2.5853 -0.6052 -2.5680
18004SOL    HW259333   3.987   0.444   7.214  2.7152  0.3881  2.1456
18005SOL     OW59334   1.744   0.592   5.918 -0.0390  0.1474  0.1463
18005SOL    HW159335   1.673   0.656   5.910 -0.4288 -0.0437  1.7893
18005SOL    HW259336   1.812   0.625   5.858 -1.2605  0.6376 -1.0303
18006SOL     OW59337   6.978   3.485   7.266  0.0916 -0.0305  0.1729
18006SOL    HW159338   7.067   3.503   7.235 -0.2161  0.2329 -0.5827
18006SOL    HW259339   6.990   3.426   7.340  0.8537 -0.7902 -0.5319
18007SOL     OW59340   3.069   6.704   9.307  0.3295 -0.2165  0.2531
18007SOL    HW159341   3.059   6.613   9.337 -2.3334 -0.2774 -0.5634
18007SOL    HW259342   3.041   6.757   9.382 -1.5839 -0.2317 -0.3962
18008SOL     OW59343   7.344  10.172   6.457 -0.1924  0.3504 -0.5771
18008SOL    HW159344   7.274  10.235   6.440 -1.0518 -0.4542 -0.0690
18008SOL    HW259345   7.328  10.141   6.546  0.7086  0.0224 -0.5146
18009SOL     OW59346   0.736   5.978   0.905 -0.1341 -0.0613  0.1057
18009SOL    HW159347   0.680   6.033   0.850  0.4021  0.7416  0.3337
18009SOL    HW259348   0.691   5.894   0.909 -0.2523 -0.0858 -1.4244
18010SOL     OW59349   2.716  11.199   2.229  0.2048 -0.2495  0.0321
18010SOL    HW159350   2.726  11.199   2.134  0.5724 -0.9828  0.0679
18010SOL    HW259351   2.641  11.141   2.246 -0.1481  0.2383  0.1635
18011SOL     OW59352   6.996  10.680   9.999  0.2339 -0.5354 -0.3033
18011SOL    HW159353   7.078  10.709   9.957  0.2855  0.5818  0.5215
18011SOL    HW259354   7.012  10.588  10.021  1.4894 -0.1772  0.3573
18012SOL     OW59355   8.791   7.121   7.033 -0.4255 -0.3995 -0.0221
18012SOL    HW159356   8.872   7.126   6.982  0.9325 -1.6510  1.8973
18012SOL    HW259357   8.815   7.154   7.119 -2.0395 -0.6010  0.5319
18013SOL     OW59358   8.016   4.178   1.511  0.2147 -0.0247 -0.0185
18013SOL    HW159359   8.074   4.186   1.435  0.2113  0.8259  0.0519
18013SOL    HW259360   7.979   4.266   1.522 -0.2316 -0.2826  0.6133
18014SOL     OW59361   4.040   3.462   4.793  0.2816  0.5979  0.0552
18014SOL    HW159362   4.046   3.442   4.699  1.4359 -3.8004  0.8246
18014SOL    HW259363   4.130   3.483   4.819  0.2422  0.3366  0.4138
18015SOL     OW59364   5.782   0.408   1.350 -0.2833  0.4389  0.3796
18015SOL    HW159365   5.714   0.409   1.283  0.3021  0.6782 -0.2220
18015SOL    HW259366   5.747   0.462   1.421 -1.7034 -1.3430  1.1065
18016SOL     OW59367   8.394   8.251  11.334  0.3586 -0.8019 -0.0416
18016SOL    HW159368   8.328   8.317  11.315  1.3508  0.2001 -0.1524
18016SOL    HW259369   8.367   8.212  11.417 -0.2303 -0.2274  0.0428
18017SOL     OW59370   5.333   4.018   2.648  0.0517 -0.0007  0.0412
18017SOL    HW159371   5.320   3.962   2.724 -0.6089 -0.3104 -0.2854
18017SOL    HW259372   5.249   4.063   2.637 -0.1933 -0.6816 -1.0598
18018SOL     OW59373   3.601  10.545   4.310  0.0312 -0.0458 -0.5216
18018SOL    HW159374   3.639  10.531   4.397  0.9141 -1.5039 -1.1188
18018SOL    HW259375   3.538  10.616   4.324  0.3106 -0.0828  1.2577
18019SOL     OW59376   5.476   8.041  10.240 -0.3036  0.3013  0.1650
18019SOL    HW159377   5.457   8.010  10.329  1.0761 -0.3247  0.2692
18019SOL    HW259378   5.467   7.963  10.185  0.1323  0.4030 -0.0522
18020SOL     OW59379   0.089   9.080   6.022 -0.1127  0.1745  0.3972
18020SOL    HW159380   0.070   9.009   5.961 -0.6396  1.3859 -0.9074
18020SOL    HW259381   0.181   9.068   6.044 -0.8093 -2.4921  2.4017
18021SOL     OW59382   8.015  11.426   8.696  0.6217 -0.1698  0.3793
18021SOL    HW159383   7.929  11.468   8.683  1.7913  2.6752  1.1598
18021SOL    HW259384   8.051  11.420   8.607  0.7126  1.2196  0.2976
18022SOL     OW59385   2.414   6.816  11.687  0.2022  0.6553  0.1896
18022SOL    HW159386   2.340   6.774  11.731  0.7337 -0.1360  0.3445
18022SOL    HW259387   2.446   6.881  11.750  2.2491 -1.8492  1.9503
18023SOL     OW59388  10.209   8.174   3.462 -0.0117 -0.0438 -0.3251
18023SOL    HW159389  10.272   8.102   3.459  2.2017  1.8064 -0.6035
18023SOL    HW259390  10.215   8.215   3.376 -2.6540 -0.5780 -0.8708
18024SOL     OW59391   3.177   4.992   2.098  0.3836 -0.3668 -0.0603
18024SOL    HW159392   3.092   5.002   2.140 -0.6681 -1.0531 -1.9340
18024SOL    HW259393   3.240   5.016   2.167 -1.2049 -1.7425  2.0059
18025SOL     OW59394   1.822   6.697   6.119  0.6080  0.2001  0.0071
18025SOL    HW159395   1.868   6.746   6.188 -0.9877  1.5862  0.1384
18025SOL    HW259396   1.878   6.707   6.042  0.1099  2.7766 -0.1271
18026SOL     OW59397   0.781   4.969   5.959 -0.7081 -0.2935  0.5107
18026SOL    HW159398   0.816   4.997   5.875 -2.9230  0.2336 -0.3169
18026SOL    HW259399   0.777   4.873   5.952  0.4635 -0.3574  0.6102
18027SOL     OW59400   2.313   0.659   7.357  0.5951  0.2897 -0.0942
18027SOL    HW159401   2.320   0.610   7.438  2.2569  0.1316 -0.3038
18027SOL    HW259402   2.290   0.748   7.384  0.5798  0.1067  0.4922
18028SOL     OW59403   5.658   6.400   7.530  0.0605 -0.0574  0.3782
18028SOL    HW159404   5.591   6.467   7.518 -2.0371 -1.8135  1.4143
18028SOL    HW259405   5.676   6.400   7.624  1.0713 -0.0345  0.1933
18029SOL     OW59406   6.408   3.469  10.823  0.0107 -0.0902 -0.2059
18029SOL    HW159407   6.392   3.507  10.910 -0.4048  2.8323 -1.4602
18029SOL    HW259408   6.329   3.418  10.805  0.1266 -0.7986  1.1302
18030SOL     OW59409   4.440   2.829   6.201 -0.5906 -0.5583 -0.6410
18030SOL    HW159410   4.445   2.829   6.106 -1.0797 -3.1877 -0.7376
18030SOL    HW259411   4.370   2.768   6.222 -1.3935  0.9563  1.4207
18031SOL     OW59412   9.606   5.180   4.575  0.2718 -0.6084  0.0095
18031SOL    HW159413   9.606   5.214   4.665 -0.6633  1.0153 -0.5609
18031SOL    HW259414   9.697   5.154   4.560  1.3156  2.4071  0.3091
18032SOL     OW59415  10.184   5.211   4.770  0.0789 -0.4623 -0.1889
18032SOL    HW159416  10.103   5.257   4.792 -0.2476 -0.9362 -0.3618
18032SOL    HW259417  10.162   5.118   4.780  0.4122 -0.6229 -0.8454
18033SOL     OW59418   5.496   0.677   0.818 -0.1484 -0.0205 -0.1027
18033SOL    HW159419   5.495   0.674   0.914 -1.5704 -0.9255 -0.1192
18033SOL    HW259420   5.525   0.590   0.791  2.1343  0.7880 -0.5394
18034SOL     OW59421   0.544   5.555   6.560 -0.1980 -0.2007 -0.4134
18034SOL    HW159422   0.450   5.558   6.576 -0.6159 -1.6515 -2.2104
18034SOL    HW259423   0.573   5.473   6.601 -0.0951 -0.7452 -1.5636
18035SOL     OW59424   5.814   6.444   6.356 -0.0834 -0.2985 -0.4481
18035SOL    HW159425   5.877   6.448   6.284 -0.7761 -0.5886 -1.0855
18035SOL    HW259426   5.780   6.533   6.363  0.9447  0.0454  0.4146
18036SOL     OW59427  11.410   9.875   7.844  0.6303 -0.0128  0.4787
18036SOL    HW159428  11.394   9.794   7.892 -1.8382 -0.8625 -1.5096
18036SOL    HW259429  11.502   9.896   7.860  0.4255 -1.2303  3.8909
18037SOL     OW59430   7.182  11.417   8.828  0.2346 -0.3591 -0.0753
18037SOL    HW159431   7.144  11.403   8.741 -1.0442  1.2073  0.1917
18037SOL    HW259432   7.114  11.386   8.889  1.6844 -2.8426  0.4354
18038SOL     OW59433   9.274   8.547   6.924  0.8962  0.5264 -0.5120
18038SOL    HW159434   9.272   8.610   6.851  1.4911  0.6778 -0.4080
18038SOL    HW259435   9.194   8.496   6.914  1.2458  0.1685 -1.6128
18039SOL     OW59436   4.704   6.501   0.985  0.4472  0.7507 -0.0778
18039SOL    HW159437   4.664   6.472   1.067  2.4016 -0.0599  0.6510
18039SOL    HW259438   4.707   6.597   0.992  0.6083  0.6830  0.8035
18040SOL     OW59439   4.942   4.536   4.861 -0.6822  0.0087  0.1772
18040SOL    HW159440   4.921   4.624   4.892  0.5885  0.3561  0.1101
18040SOL    HW259441   4.886   4.524   4.784 -0.8401  0.7835  0.1605
18041SOL     OW59442   7.336   1.194   6.606  0.1504 -0.3389 -0.0991
18041SOL    HW159443   7.326   1.177   6.512 -0.0124 -0.0036 -0.1416
18041SOL    HW259444   7.302   1.115   6.647 -0.0620 -0.3613 -0.3146
18042SOL     OW59445   8.346   1.334   1.687  0.0855 -0.4027  0.0930
18042SOL    HW159446   8.272   1.273   1.681 -1.1480  0.8687  1.4427
18042SOL    HW259447   8.315   1.413   1.643  0.8475 -0.0303  0.2130
18043SOL     OW59448   6.317  10.212   1.014  0.0369 -0.0827 -0.6520
18043SOL    HW159449   6.262  10.154   1.068  0.2887  2.2351  2.3842
18043SOL    HW259450   6.272  10.217   0.930 -1.9072 -1.8327  0.1996
18044SOL     OW59451  10.102   2.586   0.837  0.4163 -0.1945 -0.0362
18044SOL    HW159452  10.006   2.590   0.830  0.3168  0.3584  1.3371
18044SOL    HW259453  10.118   2.566   0.929  1.6347  0.0121 -0.1939
18045SOL     OW59454   2.684   1.954   8.039  0.1602  0.4637  0.1473
18045SOL    HW159455   2.680   2.048   8.050  1.0138  0.6844 -1.1504
18045SOL    HW259456   2.623   1.935   7.968  0.2371  0.0824  0.1773
18046SOL     OW59457  10.711  11.194   9.788 -0.3718  0.1823 -0.0787
18046SOL    HW159458  10.806  11.182   9.790 -0.2874  0.8458  0.1339
18046SOL    HW259459  10.684  11.183   9.879 -0.7060 -1.4794 -0.3442
18047SOL     OW59460   0.924   1.568   8.768 -0.1393  0.1679 -0.2017
18047SOL    HW159461   0.837   1.528   8.774 -0.6239  1.2475  0.3960
18047SOL    HW259462   0.978   1.518   8.829 -0.3379 -0.4932 -0.5531
18048SOL     OW59463   7.635   5.783   1.556  0.6444  0.5105  0.1717
18048SOL    HW159464   7.596   5.779   1.643  0.2548  2.3370  0.1160
18048SOL    HW259465   7.729   5.778   1.572  0.5645  0.5734  0.6682
18049SOL     OW59466   7.918   7.499   4.794  0.4638  0.0364  0.1837
18049SOL    HW159467   7.940   7.553   4.870  0.1204  1.9073 -1.0013
18049SOL    HW259468   8.002   7.473   4.757  0.6320  0.0631  0.5396
18050SOL     OW59469   8.534   7.236   7.820 -0.4876 -0.4667  0.3671
18050SOL    HW159470   8.537   7.244   7.915 -2.1514  0.3791  0.3768
18050SOL    HW259471   8.614   7.279   7.790 -0.6302  0.4884  1.3116
18051SOL     OW59472   1.001   7.030   2.349 -0.6263  0.1427 -0.4903
18051SOL    HW159473   0.967   6.964   2.410 -2.5932  0.6332 -0.9708
18051SOL    HW259474   1.058   6.980   2.290 -1.0063 -0.8928 -0.0220
18052SOL     OW59475  10.491   8.436   6.301  0.4025 -0.8105  0.4130
18052SOL    HW159476  10.456   8.367   6.244 -0.3467 -0.0931  0.0053
18052SOL    HW259477  10.417   8.463   6.355  0.8400 -0.7136  0.9720
18053SOL     OW59478   4.543   6.011   8.652  0.0011  0.1763  0.4299
18053SOL    HW159479   4.462   6.063   8.645  0.1796  0.4384  0.2769
18053SOL    HW259480   4.582   6.039   8.735  0.9826  1.5962 -0.4522
18054SOL     OW59481   5.368  11.205   2.948  0.0280  0.6221 -0.0594
18054SOL    HW159482   5.342  11.138   3.012 -2.4092  2.1268  0.6411
18054SOL    HW259483   5.338  11.171   2.864 -1.6129  0.9491  0.3513
18055SOL     OW59484   3.833   5.226   8.272  0.1383  0.5074  0.4528
18055SOL    HW159485   3.883   5.300   8.238 -0.7485  0.2822 -1.4844
18055SOL    HW259486   3.749   5.231   8.226 -0.2225 -1.2625  0.8481
18056SOL     OW59487   4.183   2.047  10.926  0.2427 -0.4640  0.2531
18056SOL    HW159488   4.192   1.964  10.878  1.0036 -0.0711 -0.3017
18056SOL    HW259489   4.229   2.033  11.008  2.4373  0.1327 -0.7971
18057SOL     OW59490   9.950   9.444   4.522  0.6172 -0.1035  0.3498
18057SOL    HW159491  10.020   9.477   4.465 -0.1020  1.8192  0.5195
18057SOL    HW259492   9.916   9.521   4.566  0.4431 -1.4114  2.6438
18058SOL     OW59493  11.565   2.824   3.211  0.3128 -0.5530  0.0236
18058SOL    HW159494  11.567   2.828   3.115 -0.2851 -0.2952  0.0180
18058SOL    HW259495  11.632   2.760   3.234  0.2666 -0.8254 -0.5852
18059SOL     OW59496   8.731   3.914  10.005 -0.0842  0.1116 -0.1055
18059SOL    HW159497   8.641   3.939  10.027  0.6332  0.5281  2.7721
18059SOL    HW259498   8.721   3.841   9.944 -2.4059 -0.5601  0.9621
18060SOL     OW59499   8.388   9.701   7.918 -0.4577  0.2272  0.0176
18060SOL    HW159500   8.384   9.679   7.825 -0.4930 -0.8252  0.2648
18060SOL    HW259501   8.372   9.619   7.964  0.0413  0.6361  0.9624
18061SOL     OW59502   1.485   6.058   5.822  0.5024 -0.3228 -0.4428
18061SOL    HW159503   1.564   6.097   5.857  0.9287  1.6042 -3.1810
18061SOL    HW259504   1.446   6.010   5.895  2.3327  1.5821  1.9084
18062SOL     OW59505   5.719   9.219   2.320  0.1948  0.2359 -0.0429
18062SOL    HW159506   5.748   9.291   2.264  0.8391 -0.5172 -0.7039
18062SOL    HW259507   5.800   9.182   2.355 -0.1831  0.4807  1.1430
18063SOL     OW59508   0.306   0.086   3.156  0.0438  0.5774 -0.4903
18063SOL    HW159509   0.304  -0.009   3.168  0.3422  0.3636 -1.8614
18063SOL    HW259510   0.257   0.121   3.229  0.7098 -0.5811  0.5567
18064SOL     OW59511   8.667   7.008   0.291  0.1053 -0.0256 -0.5730
18064SOL    HW159512   8.628   7.054   0.217  0.7266 -0.1197 -0.9689
18064SOL    HW259513   8.599   6.948   0.321  0.2760 -0.9044 -1.8905
18065SOL     OW59514   9.049   4.454  11.805 -0.1282  0.0086  0.1882
18065SOL    HW159515   9.045   4.469  11.900  0.0314 -0.3491  0.2533
18065SOL    HW259516   8.990   4.380  11.791 -1.0750  0.8140 -0.1559
18066SOL     OW59517   8.947   0.263  10.414 -0.0586  0.1641 -0.0665
18066SOL    HW159518   8.893   0.206  10.470 -0.4078  0.2489 -0.3135
18066SOL    HW259519   8.940   0.349  10.455  0.2058  0.0966  0.1224
18067SOL     OW59520   1.668   4.167   4.984 -0.4696 -0.6747  0.1020
18067SOL    HW159521   1.670   4.255   5.021 -1.2694 -0.4108 -0.4798
18067SOL    HW259522   1.576   4.141   4.988 -0.2837 -1.3683 -0.0171
18068SOL     OW59523   0.270   1.506   3.912 -0.4907 -0.1244 -0.0240
18068SOL    HW159524   0.281   1.536   3.822 -2.4285 -1.7601 -0.8895
18068SOL    HW259525   0.300   1.580   3.966 -1.1069  1.6752 -2.0037
18069SOL     OW59526   7.316   6.139   0.271 -0.7480  0.0111  0.1282
18069SOL    HW159527   7.287   6.210   0.213 -0.5745 -1.0176 -1.2596
18069SOL    HW259528   7.387   6.097   0.223  0.0137 -0.3216  1.5059
18070SOL     OW59529   0.721   7.823   6.597  0.7676 -0.2899  0.5448
18070SOL    HW159530   0.726   7.754   6.530  0.8751 -0.3578  0.6206
18070SOL    HW259531   0.684   7.779   6.674 -0.4932  0.0727  0.1709
18071SOL     OW59532   5.483   6.408   4.322  0.0874 -0.0845  0.0792
18071SOL    HW159533   5.576   6.425   4.311  0.1451 -0.8232 -0.6606
18071SOL    HW259534   5.478   6.320   4.359 -0.3253 -0.0822  0.0414
18072SOL     OW59535  10.723  11.641   5.686  0.2145  0.0898  0.1570
18072SOL    HW159536  10.662  11.599   5.625 -0.4302  0.1437  0.7566
18072SOL    HW259537  10.794  11.672   5.630 -0.6447  0.6518 -0.6663
18073SOL     OW59538   4.277   2.590   5.452 -0.0002 -0.1802 -0.1465
18073SOL    HW159539   4.349   2.534   5.482 -0.1141 -0.6487 -0.7414
18073SOL    HW259540   4.255   2.556   5.365 -0.6627  0.2258 -0.1380
18074SOL     OW59541   8.531   4.954   4.168  0.2197  0.2253  0.3399
18074SOL    HW159542   8.593   4.886   4.197  0.2643  0.1789  0.1363
18074SOL    HW259543   8.456   4.943   4.226  0.3374  0.1780  0.4863
18075SOL     OW59544   7.798   1.180   0.888  0.2011 -0.7010 -0.2113
18075SOL    HW159545   7.800   1.155   0.980  1.2016  1.4952  0.4400
18075SOL    HW259546   7.889   1.172   0.859  0.2971  0.7005 -0.3606
18076SOL     OW59547  11.223   4.001  11.787  0.0648  0.0395  0.3971
18076SOL    HW159548  11.128   4.000  11.775  0.2487 -0.5567 -1.3476
18076SOL    HW259549  11.237   4.054  11.865 -1.6544  0.8837  0.1848
18077SOL     OW59550   6.895   6.316   2.351  0.0093 -0.1873  0.2539
18077SOL    HW159551   6.939   6.401   2.349  0.6223 -0.5076 -2.1106
18077SOL    HW259552   6.805   6.335   2.322  0.4625 -0.4663 -1.4248
18078SOL     OW59553   7.673  11.065   5.820 -0.5102  0.7456  0.0960
18078SOL    HW159554   7.620  11.135   5.781 -1.5286  0.2194  0.4901
18078SOL    HW259555   7.615  10.988   5.818  0.7215 -0.2051 -0.6945
18079SOL     OW59556   8.900   8.972   8.469 -0.2954  0.3957 -0.6527
18079SOL    HW159557   8.937   8.991   8.383  2.0832  2.1718  0.6306
18079SOL    HW259558   8.861   8.885   8.460  1.3927 -0.2174 -3.0477
18080SOL     OW59559   1.519  11.042   2.811 -0.1149 -0.3316  0.6307
18080SOL    HW159560   1.606  11.037   2.852  0.3919  1.5114 -0.0937
18080SOL    HW259561   1.480  11.120   2.851  0.3832  1.5276 -2.2130
18081SOL     OW59562   1.988   0.917   0.266 -0.0784  0.4257 -0.1430
18081SOL    HW159563   1.947   0.913   0.180  1.7833  0.1748 -1.0736
18081SOL    HW259564   2.044   0.994   0.263  0.0174  0.4165  0.8570
18082SOL     OW59565   7.407   0.124  11.109 -0.1097 -0.6666  0.2566
18082SOL    HW159566   7.449   0.181  11.174  1.0826 -0.3997 -0.7148
18082SOL    HW259567   7.329   0.091  11.154 -1.0300  1.9566  0.7927
18083SOL     OW59568   9.417   3.853  11.108  0.0291  0.5295 -0.1633
18083SOL    HW159569   9.439   3.762  11.087  0.7296  0.3231  1.2988
18083SOL    HW259570   9.381   3.888  11.027 -2.3486 -1.6643 -0.2009
18084SOL     OW59571  10.517   9.912   6.293  0.0768  0.1805 -0.4677
18084SOL    HW159572  10.462   9.986   6.319 -0.6123 -0.6598  0.5430
18084SOL    HW259573  10.532   9.863   6.374 -2.0566 -2.4723 -1.5259
18085SOL     OW59574   5.480   5.141   3.591  0.2628  0.4559 -1.0170
18085SOL    HW159575   5.458   5.193   3.668  0.8836  0.2475 -0.6898
18085SOL    HW259576   5.426   5.063   3.598  0.5731  0.2751 -0.6013
18086SOL     OW59577  11.505   2.295  10.764  0.2901 -0.0137 -0.0781
18086SOL    HW159578  11.434   2.269  10.705  0.2575  0.5588 -0.3009
18086SOL    HW259579  11.491   2.389  10.777  0.8925  0.0602  0.0408
18087SOL     OW59580  11.457   1.612   4.303 -0.6193 -0.1027  0.5181
18087SOL    HW159581  11.535   1.571   4.264  0.1344 -0.0582  1.9289
18087SOL    HW259582  11.468   1.601   4.397 -1.8822  0.7244  0.7888
18088SOL     OW59583   3.328   8.828   8.926 -0.2237  0.8898  0.7559
18088SOL    HW159584   3.307   8.872   9.009 -3.7092 -0.8646  1.0142
18088SOL    HW259585   3.292   8.740   8.936 -1.7039  0.8827 -2.9308
18089SOL     OW59586   7.668   3.775  10.518  0.2612  0.0731 -0.3191
18089SOL    HW159587   7.657   3.864  10.486 -2.2421 -0.2383 -0.5120
18089SOL    HW259588   7.759   3.753  10.496  0.4222  1.9572 -1.8101
18090SOL     OW59589   8.348   7.508   4.860 -0.1720 -0.3907 -0.0200
18090SOL    HW159590   8.269   7.541   4.816  0.0164  0.5025  0.3047
18090SOL    HW259591   8.373   7.577   4.921  0.4208 -0.9998  0.4439
18091SOL     OW59592   7.956   3.881   1.168 -0.1621  0.0378 -0.4361
18091SOL    HW159593   7.923   3.900   1.256 -1.2224 -0.4180 -0.7214
18091SOL    HW259594   8.048   3.906   1.171 -0.8154  2.7601 -0.0231
18092SOL     OW59595   6.673   2.951  11.684 -0.6757 -0.2349  0.2126
18092SOL    HW159596   6.702   3.041  11.667 -0.1047 -0.2272  1.1465
18092SOL    HW259597   6.722   2.898  11.620  0.0754 -0.0299  0.6072
18093SOL     OW59598  11.644   1.799   2.095  0.3941  0.2559 -0.2978
18093SOL    HW159599  11.698   1.823   2.170 -0.6779  0.5407  0.4149
18093SOL    HW259600  11.554   1.805   2.128 -0.2185  2.1893 -2.0978
18094SOL     OW59601   9.560   6.850  11.551 -0.2787  0.6415 -0.6206
18094SOL    HW159602   9.566   6.772  11.495  0.1039  0.1690  0.0715
18094SOL    HW259603   9.493   6.827  11.616  2.3048 -0.5576  1.8001
18095SOL     OW59604  10.390   2.500   1.159 -0.0646  0.0318  0.4540
18095SOL    HW159605  10.385   2.525   1.251  0.5967 -2.3748  1.2069
18095SOL    HW259606  10.304   2.524   1.123  0.0700  2.0887  1.3391
18096SOL     OW59607   5.836   7.621   5.614 -0.6629 -0.8908  0.3936
18096SOL    HW159608   5.846   7.669   5.696 -1.0497 -0.1954  0.0459
18096SOL    HW259609   5.917   7.637   5.566 -0.3721 -1.4284  0.7056
18097SOL     OW59610   6.021   4.367  10.433  0.3976 -0.2703  0.0092
18097SOL    HW159611   6.049   4.284  10.472  0.5175 -0.6713 -0.8864
18097SOL    HW259612   6.092   4.390  10.373  1.8149  2.0520  2.3761
18098SOL     OW59613   1.908   0.212   9.269  0.3415 -0.5713 -0.3399
18098SOL    HW159614   1.887   0.225   9.176  0.9340 -0.9947 -0.5389
18098SOL    HW259615   1.998   0.180   9.269  0.4780 -0.2057  0.4085
18099SOL     OW59616   7.898   6.551   0.676 -0.0300  0.1265 -0.1003
18099SOL    HW159617   7.977   6.497   0.676  0.1513  0.3823  0.7223
18099SOL    HW259618   7.838   6.504   0.617  0.8562  0.1440 -1.0643
18100SOL     OW59619   2.892   3.488  10.962 -0.2489 -0.3769 -0.8924
18100SOL    HW159620   2.835   3.539  10.903 -1.4791 -1.1540 -0.4202
18100SOL    HW259621   2.893   3.400  10.924 -0.4709 -0.7057 -0.1575
18101SOL     OW59622   4.021   1.922  10.431  0.1304 -0.4235 -0.1465
18101SOL    HW159623   4.112   1.913  10.459 -0.1018 -0.6785  0.5446
18101SOL    HW259624   3.971   1.869  10.493 -0.6729  1.1249  0.5958
18102SOL     OW59625  10.109   6.806   9.069  0.1455  0.3842  0.0012
18102SOL    HW159626  10.103   6.849   8.984  3.3385 -0.0509 -0.5487
18102SOL    HW259627  10.018   6.784   9.091 -0.8281  0.9260 -3.0504
18103SOL     OW59628  11.144   2.821   7.263  0.4022 -0.3049 -0.3726
18103SOL    HW159629  11.068   2.821   7.205  0.6655  0.5152 -0.7445
18103SOL    HW259630  11.108   2.806   7.350 -0.3516  1.2810 -0.3731
18104SOL     OW59631   0.705   2.970   4.526 -0.1389  0.0434  0.1133
18104SOL    HW159632   0.744   2.930   4.448 -1.8561 -2.1775  0.3172
18104SOL    HW259633   0.753   3.052   4.536  3.3125 -1.6704 -0.6047
18105SOL     OW59634   6.569   6.052   7.470  0.2508  0.0938  0.9393
18105SOL    HW159635   6.515   6.044   7.549  0.3526 -0.8691  0.9289
18105SOL    HW259636   6.644   6.106   7.497  0.3288 -0.2985  1.5355
18106SOL     OW59637   2.568  10.661   8.111 -0.4021 -0.3731  0.2149
18106SOL    HW159638   2.594  10.714   8.186  1.3956  0.7095 -1.0771
18106SOL    HW259639   2.623  10.694   8.039 -2.1818 -1.2225 -1.6152
18107SOL     OW59640   8.096   3.141   1.155 -0.4120  0.7366 -0.6842
18107SOL    HW159641   8.133   3.177   1.235  0.2030 -1.1830 -0.0452
18107SOL    HW259642   8.026   3.201   1.132  0.0499  1.8759  0.7280
18108SOL     OW59643   4.974   7.512   5.342 -0.0916 -0.4371 -0.2146
18108SOL    HW159644   4.973   7.479   5.432  1.1709 -3.4545 -1.1779
18108SOL    HW259645   4.882   7.524   5.320 -0.7104 -3.2980  0.3676
18109SOL     OW59646   3.181   3.683   9.236 -0.0082 -0.1274 -0.4451
18109SOL    HW159647   3.155   3.766   9.277  2.4437  0.9359 -0.8815
18109SOL    HW259648   3.198   3.706   9.144  0.3594 -1.1939 -0.6591
18110SOL     OW59649   6.062   2.480   5.500 -0.0512  0.1943 -0.3501
18110SOL    HW159650   6.026   2.569   5.505 -0.3029  0.0981 -0.4594
18110SOL    HW259651   6.155   2.491   5.522 -0.4486  0.2340  1.5053
18111SOL     OW59652   3.477   7.288   7.294 -0.2321 -0.6564  0.0243
18111SOL    HW159653   3.502   7.298   7.386 -1.6605  1.9004  0.2379
18111SOL    HW259654   3.549   7.240   7.254  3.2751  2.9747  1.3249
18112SOL     OW59655   1.576  11.236   8.586 -0.6260  0.3922 -0.0790
18112SOL    HW159656   1.617  11.171   8.528 -0.0441  0.0275  0.7268
18112SOL    HW259657   1.496  11.194   8.617 -1.3430  0.8852 -1.2027
18113SOL     OW59658   0.557   2.927   5.840 -0.1524 -0.6110 -0.2161
18113SOL    HW159659   0.639   2.962   5.875 -0.2223 -0.0706 -0.5702
18113SOL    HW259660   0.547   2.841   5.882 -0.0974 -0.1078  0.8531
18114SOL     OW59661   8.800   2.643   5.274 -0.5692  0.0147  0.0613
18114SOL    HW159662   8.866   2.647   5.204  0.3729  1.4577  0.9838
18114SOL    HW259663   8.844   2.597   5.345 -0.9637 -0.0186  0.2854
18115SOL     OW59664   1.335   2.274   6.008  0.3548  0.6884  0.0444
18115SOL    HW159665   1.309   2.319   5.928 -0.7924  2.6969  1.4713
18115SOL    HW259666   1.252   2.254   6.053  0.9847  0.1947  1.0369
18116SOL     OW59667   4.310   0.326   0.686 -0.4800 -0.0202  0.5222
18116SOL    HW159668   4.289   0.285   0.602 -0.2227  0.0300  0.4326
18116SOL    HW259669   4.231   0.375   0.709  0.0685  1.5089 -0.6136
18117SOL     OW59670   9.308  11.018   9.024 -0.6542 -0.1147  0.3967
18117SOL    HW159671   9.286  11.099   9.069 -0.2757 -0.3039  0.9221
18117SOL    HW259672   9.338  11.046   8.937  0.3071  0.3730  0.8727
18118SOL     OW59673  10.953   3.146   8.476 -0.2738 -0.3170  0.8581
18118SOL    HW159674  10.948   3.071   8.417 -0.4729  0.7482 -0.5340
18118SOL    HW259675  10.947   3.222   8.418  2.0283  0.8125  1.9754
18119SOL     OW59676   7.237   3.722   0.569  0.0730 -0.7986  0.1518
18119SOL    HW159677   7.222   3.801   0.622  0.3659 -0.2662 -0.5374
18119SOL    HW259678   7.320   3.738   0.525  0.3692 -1.7088  0.3607
18120SOL     OW59679   4.738   4.979   7.552  0.5253  0.0529  0.3408
18120SOL    HW159680   4.667   5.011   7.608  0.8468  0.1990  0.6709
18120SOL    HW259681   4.762   5.054   7.499  0.5655  0.0593  0.3680
18121SOL     OW59682   9.539   5.221   7.790  0.6691  0.1699 -0.3011
18121SOL    HW159683   9.592   5.280   7.738 -0.0802  1.1925  0.0603
18121SOL    HW259684   9.487   5.172   7.726  0.6462  0.5428 -0.5716
18122SOL     OW59685   5.282   2.817   7.947  0.5617 -0.2011  0.5840
18122SOL    HW159686   5.278   2.896   8.001 -2.7990 -0.7314  1.2826
18122SOL    HW259687   5.244   2.748   8.002  1.1586 -1.7852 -0.8976
18123SOL     OW59688   8.172   4.135   1.980 -0.1279 -0.5079  0.4365
18123SOL    HW159689   8.137   4.099   1.899 -0.0369  0.8786 -0.2419
18123SOL    HW259690   8.265   4.147   1.964 -0.4252  1.5565  0.0307
18124SOL     OW59691  11.677   9.494   3.619 -0.2487 -0.5447  0.4695
18124SOL    HW159692  11.584   9.498   3.596  0.1322 -0.1594 -1.1352
18124SOL    HW259693  11.682   9.534   3.706 -1.6108 -0.8395  0.7085
18125SOL     OW59694   6.657   0.872   5.167  0.3839  0.1389 -0.2099
18125SOL    HW159695   6.627   0.902   5.253  0.9858 -0.1991  0.1206
18125SOL    HW259696   6.730   0.929   5.146  1.6659 -1.1799  0.5115
18126SOL     OW59697  10.695   2.359   2.361 -0.0486  0.6307 -0.1394
18126SOL    HW159698  10.703   2.325   2.272 -2.2009 -1.6388  0.4195
18126SOL    HW259699  10.786   2.375   2.388  0.6758  1.4497 -2.6928
18127SOL     OW59700   4.763   5.612   5.818 -0.5819  0.4977 -0.7298
18127SOL    HW159701   4.761   5.517   5.804 -0.1413  0.3627  0.1022
18127SOL    HW259702   4.787   5.622   5.910  1.4282  1.4410 -1.3031
18128SOL     OW59703  10.557   1.971   0.324 -0.2438 -0.2805 -0.1362
18128SOL    HW159704  10.523   2.060   0.335 -0.5824 -0.4171 -0.0798
18128SOL    HW259705  10.652   1.980   0.337 -0.0106  0.4068 -1.9476
18129SOL     OW59706   2.885   9.623   7.471  0.2440  0.3203 -0.4368
18129SOL    HW159707   2.974   9.612   7.436 -0.0688 -2.4890 -0.5846
18129SOL    HW259708   2.828   9.608   7.395 -0.3521 -0.2869  0.1179
18130SOL     OW59709   0.953   1.164   7.500 -0.3572  0.2900 -0.2764
18130SOL    HW159710   0.964   1.095   7.435 -1.1602  0.1832 -0.3095
18130SOL    HW259711   1.038   1.208   7.503  0.2049 -0.7773 -0.1533
18131SOL     OW59712   4.255   0.498   3.715 -0.4208 -0.3176  0.3356
18131SOL    HW159713   4.306   0.560   3.662 -0.9118 -1.3255 -1.3923
18131SOL    HW259714   4.164   0.513   3.689 -0.5306 -1.8625 -0.2867
18132SOL     OW59715   2.721   6.626   3.984  0.1086  0.2973  0.5059
18132SOL    HW159716   2.769   6.562   3.931  0.8755  1.4617 -0.2416
18132SOL    HW259717   2.674   6.680   3.922 -0.4999  0.5015  1.1292
18133SOL     OW59718   4.010   4.726   0.838  0.3331 -0.0877  0.7633
18133SOL    HW159719   3.993   4.793   0.905  1.6542 -0.0222  1.0638
18133SOL    HW259720   3.942   4.741   0.772 -0.9253 -0.0537  1.9975
18134SOL     OW59721   7.458   3.474   8.842  0.0146  0.1041 -0.4356
18134SOL    HW159722   7.505   3.419   8.904  0.1034 -0.4428 -0.9825
18134SOL    HW259723   7.367   3.443   8.846 -0.1812  0.7026  0.1100
18135SOL     OW59724  11.066   3.000  10.343  0.0187  0.0580  0.2562
18135SOL    HW159725  11.046   2.918  10.389 -0.2487 -0.3220 -0.5264
18135SOL    HW259726  11.054   3.068  10.409  1.9359 -0.6552  1.4257
18136SOL     OW59727   4.787   5.962   7.893  0.1985  0.1315  0.5252
18136SOL    HW159728   4.773   5.971   7.799  0.5477  0.6853  0.5235
18136SOL    HW259729   4.701   5.936   7.928  0.7402 -3.2737 -0.3228
18137SOL     OW59730   5.820   7.386   5.237  0.0875  0.1685  0.0241
18137SOL    HW159731   5.807   7.305   5.286 -0.4898 -0.8746 -1.7375
18137SOL    HW259732   5.898   7.425   5.275 -1.0572  0.1623  2.6353
18138SOL     OW59733   1.581   5.583   7.370  0.2848  0.2127  0.3819
18138SOL    HW159734   1.652   5.542   7.320 -0.9632  0.4213 -1.6815
18138SOL    HW259735   1.588   5.676   7.349 -2.2287 -0.0543 -2.2036
18139SOL     OW59736   5.535   3.555   2.425  0.2909  0.3655 -0.3939
18139SOL    HW159737   5.599   3.492   2.392  2.0770  0.2162  2.8909
18139SOL    HW259738   5.574   3.641   2.410 -0.4576  0.5341 -1.5541
18140SOL     OW59739   8.213   5.660   3.580  0.2665  0.5494 -0.8162
18140SOL    HW159740   8.275   5.633   3.512 -1.5038 -0.6337 -2.0223
18140SOL    HW259741   8.128   5.658   3.537 -0.7505  1.1534  1.0756
18141SOL     OW59742   7.382   4.878  11.472 -0.1141 -0.4393 -0.1108
18141SOL    HW159743   7.418   4.804  11.522 -1.6346 -0.8171  0.4715
18141SOL    HW259744   7.340   4.933  11.538 -0.4858  0.0553 -0.7527
18142SOL     OW59745   4.876   9.107  10.616 -0.3647 -0.0930  0.1143
18142SOL    HW159746   4.919   9.110  10.530 -0.0823 -0.0143  0.2601
18142SOL    HW259747   4.791   9.148  10.601  0.5142  1.9349  0.3584
18143SOL     OW59748   3.978   7.316  10.438  0.0073 -0.2021 -0.0964
18143SOL    HW159749   3.942   7.237  10.397 -2.0472  2.0582 -2.9892
18143SOL    HW259750   4.068   7.291  10.461  0.1519 -2.7584 -2.8399
18144SOL     OW59751   4.287   0.711   6.846 -0.6413 -0.1263 -0.1693
18144SOL    HW159752   4.344   0.661   6.787 -1.3461 -2.2718  0.8697
18144SOL    HW259753   4.343   0.781   6.880  0.7534 -0.8861 -0.8018
18145SOL     OW59754   4.670  10.412   4.118 -0.0536  0.2294 -0.3725
18145SOL    HW159755   4.734  10.388   4.185  1.8401  0.5849 -1.9474
18145SOL    HW259756   4.720  10.464   4.055 -1.9681  0.6905 -1.5927
18146SOL     OW59757  10.240   2.987  10.909 -0.7108 -0.3367 -0.1858
18146SOL    HW159758  10.199   3.072  10.922  2.6224  1.5185 -0.8066
18146SOL    HW259759  10.275   2.963  10.995 -3.0473 -2.0627  0.4155
18147SOL     OW59760   1.333   1.399   2.716 -0.2279  0.2760  0.1732
18147SOL    HW159761   1.257   1.362   2.671 -0.3222  0.9656 -0.2322
18147SOL    HW259762   1.316   1.493   2.720  1.6005  0.7720 -1.8880
18148SOL     OW59763   3.778   0.981   8.779 -0.4487  0.1373 -0.3631
18148SOL    HW159764   3.778   0.889   8.752 -1.1600 -0.1858  0.6765
18148SOL    HW259765   3.686   1.006   8.779 -0.5842 -0.1134  2.4337
18149SOL     OW59766   4.861   5.656   2.766  0.1222 -0.0906  0.4471
18149SOL    HW159767   4.810   5.731   2.798  0.3143  0.7738 -1.1439
18149SOL    HW259768   4.900   5.618   2.845 -2.0063 -0.0702  1.5821
18150SOL     OW59769   6.977  10.433   6.624  0.5272  0.8008 -0.6213
18150SOL    HW159770   6.911  10.502   6.634  0.5214  0.8471 -0.9609
18150SOL    HW259771   7.023  10.432   6.707 -0.8350 -0.2132  0.1672
18151SOL     OW59772   2.033   8.380   4.690 -0.2110  0.5333 -0.1530
18151SOL    HW159773   1.982   8.459   4.673 -0.7034  0.2066 -0.1879
18151SOL    HW259774   2.118   8.397   4.649 -0.5164  0.8017 -0.6742
18152SOL     OW59775   0.130   5.411   4.904  0.1805  0.6267  0.0080
18152SOL    HW159776   0.140   5.446   4.816 -0.4482 -0.8718 -0.7075
18152SOL    HW259777   0.064   5.467   4.946 -0.5936  0.4950 -0.9920
18153SOL     OW59778   2.534   2.977   8.926 -0.2970 -0.3685 -0.4364
18153SOL    HW159779   2.550   2.898   8.977  1.4006 -0.3689 -0.9141
18153SOL    HW259780   2.447   3.006   8.954  0.9410  0.2701  3.2958
18154SOL     OW59781   9.344   1.058   5.893  0.4987  0.6605 -0.0615
18154SOL    HW159782   9.347   0.964   5.874 -1.6560  0.2489  1.2543
18154SOL    HW259783   9.435   1.087   5.887  1.0009 -1.1206 -2.2618
18155SOL     OW59784   1.498   3.480   1.436 -0.0513 -0.3540 -0.7699
18155SOL    HW159785   1.519   3.467   1.528  2.4180  0.9411 -1.0654
18155SOL    HW259786   1.444   3.560   1.435  0.4840  0.0188 -0.4773
18156SOL     OW59787   9.981  10.030   3.187 -0.4712 -0.1462  0.2791
18156SOL    HW159788  10.041  10.088   3.232  0.9192 -0.0105 -1.6130
18156SOL    HW259789   9.943  10.084   3.118 -1.0103 -0.8447  0.0172
18157SOL     OW59790   9.362  10.984   9.909 -0.2130 -0.0549 -0.1224
18157SOL    HW159791   9.333  11.068   9.944 -0.3030  0.7580 -2.0169
18157SOL    HW259792   9.448  10.969   9.950 -0.8721  0.1609  1.4086
18158SOL     OW59793   1.111   6.324   3.547 -0.1784 -0.1958  0.6916
18158SOL    HW159794   1.197   6.332   3.505  0.3169  2.5808  1.9793
18158SOL    HW259795   1.127   6.271   3.625  0.0076 -0.9300  0.1692
18159SOL     OW59796   7.475   6.130   3.474 -0.7391 -0.1049  0.2870
18159SOL    HW159797   7.439   6.100   3.558  0.0568 -0.4339  0.5161
18159SOL    HW259798   7.399   6.134   3.417 -1.1356 -0.9198  0.7312
18160SOL     OW59799  10.929   2.250   4.873 -0.6451  0.1582  0.3350
18160SOL    HW159800  11.004   2.267   4.815 -0.7280  0.7973  0.4023
18160SOL    HW259801  10.931   2.156   4.888  0.5703  0.2482  0.8913
18161SOL     OW59802   1.039   7.802  11.279 -0.0299 -0.5706  0.0294
18161SOL    HW159803   1.012   7.761  11.197  0.4684 -0.0650 -0.3885
18161SOL    HW259804   0.995   7.749  11.347 -2.0519  0.2006 -0.5979
18162SOL     OW59805   8.472   8.481   9.735 -0.1174  0.6209  0.0768
18162SOL    HW159806   8.531   8.411   9.706 -0.6855  1.0417 -2.3169
18162SOL    HW259807   8.524   8.561   9.725 -0.6830  0.8781 -0.8714
18163SOL     OW59808   3.726   6.367   7.371  0.4637  0.7822 -0.1009
18163SOL    HW159809   3.647   6.420   7.381 -0.4704 -0.7001  0.8025
18163SOL    HW259810   3.765   6.366   7.459 -0.9429 -2.0423  0.6036
18164SOL     OW59811   3.634   0.264   8.582  0.1376  0.0590 -0.2283
18164SOL    HW159812   3.543   0.236   8.578 -0.1018  0.8061 -0.0096
18164SOL    HW259813   3.684   0.182   8.577 -0.5436 -0.3682 -0.1238
18165SOL     OW59814   3.279   2.918  11.097 -0.9936  0.1029 -0.5416
18165SOL    HW159815   3.265   2.869  11.016 -0.3130 -0.6252 -0.2333
18165SOL    HW259816   3.374   2.933  11.099 -0.7953 -1.1545  0.8213
18166SOL     OW59817   4.661   4.240   6.342  0.4110 -0.1429 -0.4517
18166SOL    HW159818   4.708   4.290   6.275  1.3168 -0.2753  0.0694
18166SOL    HW259819   4.651   4.152   6.304  0.9299 -0.2197 -0.4135
18167SOL     OW59820   5.807   1.356   6.719 -0.3209  0.1664 -0.1942
18167SOL    HW159821   5.803   1.448   6.744  1.6430  0.2017  0.0925
18167SOL    HW259822   5.888   1.324   6.757 -1.6396 -2.0717  0.9286
18168SOL     OW59823   3.314   4.220   1.777  0.1319  0.2027  0.0156
18168SOL    HW159824   3.380   4.253   1.716  0.3412 -0.7650 -0.2923
18168SOL    HW259825   3.270   4.299   1.809  2.8088  1.0960  1.8543
18169SOL     OW59826   8.205   7.728   1.675  0.2178  0.0521  0.4164
18169SOL    HW159827   8.154   7.803   1.644 -2.1613 -1.8220 -0.5791
18169SOL    HW259828   8.229   7.751   1.765 -0.1863  2.0814  0.0633
18170SOL     OW59829   4.700  10.907   4.094 -0.3728 -0.1193  0.2977
18170SOL    HW159830   4.742  10.979   4.047  0.9103 -0.9129  0.1848
18170SOL    HW259831   4.772  10.857   4.132 -1.2939 -0.6889  1.3593
18171SOL     OW59832  10.760   0.820   3.596  0.0522  0.2110  0.1097
18171SOL    HW159833  10.669   0.818   3.566  0.4314 -0.8458 -1.0764
18171SOL    HW259834  10.781   0.728   3.614  0.5474  0.5728  1.4679
18172SOL     OW59835   3.616  10.477   5.184  0.1163 -0.4821 -0.0007
18172SOL    HW159836   3.643  10.553   5.235 -0.4736  0.0467 -0.4612
18172SOL    HW259837   3.698  10.434   5.159  0.4102 -1.1496  1.9586
18173SOL     OW59838   6.272  11.589   1.547  0.6390  0.1818 -0.1631
18173SOL    HW159839   6.328  11.655   1.589 -0.1060 -0.2887  1.6479
18173SOL    HW259840   6.198  11.639   1.513  0.4710  0.3999  0.5006
18174SOL     OW59841   5.132   5.972   2.224 -0.5772 -0.2279  0.2313
18174SOL    HW159842   5.053   5.924   2.198  0.7224 -2.1190 -0.4142
18174SOL    HW259843   5.141   5.955   2.317 -1.7933  1.3724  0.6849
18175SOL     OW59844   1.651   6.819   4.158 -0.2354 -0.2332  0.0167
18175SOL    HW159845   1.722   6.754   4.164 -1.1001 -1.2073 -0.0204
18175SOL    HW259846   1.606   6.796   4.076 -2.8011 -1.9898  1.7856
18176SOL     OW59847   3.470   9.557   3.489 -0.3007  0.6042  0.1593
18176SOL    HW159848   3.430   9.642   3.506 -0.4256  0.8193 -1.1236
18176SOL    HW259849   3.535   9.547   3.558 -0.3231  1.7235  0.3626
18177SOL     OW59850   9.582   6.160   9.636  0.0089 -0.0128  0.1244
18177SOL    HW159851   9.637   6.210   9.576  0.3308  0.8946  1.1418
18177SOL    HW259852   9.639   6.139   9.709  0.0100 -2.3139 -0.4549
18178SOL     OW59853   2.521   3.239   6.555  1.0877  0.2476  0.2117
18178SOL    HW159854   2.435   3.242   6.598 -0.4361 -2.4210 -2.3013
18178SOL    HW259855   2.557   3.154   6.580  1.6895  0.1363 -0.9705
18179SOL     OW59856   8.707  10.366   0.057 -0.5093  0.5904 -0.3472
18179SOL    HW159857   8.666  10.279   0.061 -0.5736  0.6123 -0.5296
18179SOL    HW259858   8.800  10.349   0.050 -0.4909  0.5385  0.0017
18180SOL     OW59859   3.984   5.083   2.284  0.5060  0.3150 -0.2472
18180SOL    HW159860   4.077   5.080   2.260  0.1573 -0.4568 -1.5866
18180SOL    HW259861   3.937   5.088   2.201 -0.6446  1.5736  0.4478
18181SOL     OW59862   1.060   7.339   1.186 -0.1620 -0.5731 -0.7252
18181SOL    HW159863   1.108   7.376   1.111 -0.8120  1.1197 -0.3627
18181SOL    HW259864   1.123   7.338   1.257  0.0403 -0.7759 -0.9043
18182SOL     OW59865   1.901   3.504   8.065  0.0504 -0.3241 -1.0503
18182SOL    HW159866   1.856   3.557   8.000 -0.0183  0.1835 -0.5966
18182SOL    HW259867   1.974   3.558   8.094 -1.0637  0.3214  0.7355
18183SOL     OW59868   3.968   8.134   7.788 -0.3449 -0.1011 -0.6132
18183SOL    HW159869   4.056   8.128   7.749  0.1308 -1.9481  0.5745
18183SOL    HW259870   3.979   8.193   7.863 -0.2162  0.0014 -0.7112
18184SOL     OW59871   5.744  10.669   9.249 -0.1389 -0.2807 -0.2359
18184SOL    HW159872   5.787  10.626   9.323  0.3444 -0.9259 -0.8801
18184SOL    HW259873   5.804  10.738   9.222 -0.6989  0.5077  0.4972
18185SOL     OW59874   0.770  10.163  11.107 -0.5772 -0.6263 -0.5164
18185SOL    HW159875   0.797  10.076  11.076  1.8603 -1.1007  2.5042
18185SOL    HW259876   0.762  10.153  11.202  1.6494  2.8415  0.2174
18186SOL     OW59877  10.103   2.156   7.136  0.4294  0.3416  0.6481
18186SOL    HW159878  10.117   2.215   7.209  0.5276  1.3013 -0.1315
18186SOL    HW259879  10.148   2.197   7.062 -3.5583  1.9324 -1.1895
18187SOL     OW59880   8.906   5.309  10.323 -0.0069 -0.1741  0.4434
18187SOL    HW159881   8.822   5.276  10.353 -0.4964 -0.8652 -1.5083
18187SOL    HW259882   8.922   5.386  10.377 -0.9507 -1.1050  2.1413
18188SOL     OW59883   5.766   9.080   0.513  0.6099  0.2967 -0.6887
18188SOL    HW159884   5.818   9.126   0.447  1.0238 -1.0665 -1.3341
18188SOL    HW259885   5.676   9.106   0.493  0.7833  0.3873 -1.3957
18189SOL     OW59886   0.123   7.464   8.791 -0.4949 -0.1158 -0.7522
18189SOL    HW159887   0.183   7.539   8.788 -1.8277  1.2395  2.0987
18189SOL    HW259888   0.052   7.487   8.732  0.2686 -0.3153 -1.7756
18190SOL     OW59889  10.478   6.682   0.029 -0.4407 -0.2394  0.3518
18190SOL    HW159890  10.434   6.604   0.062  0.2473 -0.4952  0.6683
18190SOL    HW259891  10.444   6.693  -0.060  0.5780 -1.7669 -0.2551
18191SOL     OW59892   7.490  11.750   8.737  0.1152 -0.0175 -0.1652
18191SOL    HW159893   7.483  11.659   8.709  0.6311  0.5498 -2.3792
18191SOL    HW259894   7.400  11.784   8.731 -0.2921 -0.6286  1.8064
18192SOL     OW59895   4.859   2.253   6.600 -0.5077 -0.2651  0.5067
18192SOL    HW159896   4.894   2.285   6.683 -0.4713  2.4750 -0.4561
18192SOL    HW259897   4.936   2.233   6.547 -0.3771  1.5686 -0.0846
18193SOL     OW59898  11.536   6.969   1.071  0.1096 -0.3189 -0.7487
18193SOL    HW159899  11.525   6.912   1.147 -0.7724  0.7852 -0.0069
18193SOL    HW259900  11.630   6.967   1.053  0.3767 -0.4348  0.5209
18194SOL     OW59901   5.700   4.810   5.773  0.4827 -0.4759  0.2061
18194SOL    HW159902   5.788   4.841   5.752  1.6082 -2.7836  1.1746
18194SOL    HW259903   5.705   4.715   5.767 -1.6473 -0.7380  1.3602
18195SOL     OW59904  10.094   7.638   0.008  0.1812 -0.0276 -0.0860
18195SOL    HW159905  10.007   7.674   0.025  0.7511  1.0024  0.7765
18195SOL    HW259906  10.081   7.543   0.006 -0.6310 -0.0382  2.2646
18196SOL     OW59907   9.897   0.660   5.990 -0.2949 -0.3372 -0.1697
18196SOL    HW159908   9.803   0.659   6.009 -0.0709  1.4680  1.3546
18196SOL    HW259909   9.930   0.577   6.023 -1.0363 -0.0724  1.3251
18197SOL     OW59910   8.545  10.038   2.077  0.3380  0.2689 -0.9344
18197SOL    HW159911   8.530  10.074   2.165 -0.1557 -0.3298 -0.7639
18197SOL    HW259912   8.460  10.003   2.051  1.5715 -4.8377  0.7433
18198SOL     OW59913   2.622   3.094   1.858 -0.4133 -0.0719 -0.0978
18198SOL    HW159914   2.624   3.146   1.778 -1.1474 -0.0867 -0.1379
18198SOL    HW259915   2.689   3.027   1.845  1.0189  1.2415  0.2390
18199SOL     OW59916   7.007   9.652  11.176  0.0426 -0.1844 -0.1572
18199SOL    HW159917   6.962   9.620  11.099  0.3444  0.2145 -0.5021
18199SOL    HW259918   7.047   9.735  11.149  0.8281 -0.4329  0.1846
18200SOL     OW59919   8.787  11.307   6.493 -0.3920  0.3788  0.7006
18200SOL    HW159920   8.821  11.346   6.573 -0.7422 -0.0740  1.0764
18200SOL    HW259921   8.692  11.304   6.505 -0.4057 -0.2083  0.5131
18201SOL     OW59922   2.122   5.036   6.592 -0.5781  0.5829 -0.2431
18201SOL    HW159923   2.147   5.079   6.510  0.2336 -0.1236 -0.3780
18201SOL    HW259924   2.172   5.082   6.659 -0.3431  0.3934 -0.2876
18202SOL     OW59925  11.107   0.263   9.658 -0.2376 -0.2721 -0.0233
18202SOL    HW159926  11.066   0.178   9.675  1.7683 -0.9999  1.5314
18202SOL    HW259927  11.104   0.308   9.742  3.5127 -1.0370  0.6659
18203SOL     OW59928   1.224  11.450  11.267 -0.1365  0.0566 -0.7518
18203SOL    HW159929   1.301  11.481  11.218  0.7592 -0.5874  0.1927
18203SOL    HW259930   1.250  11.458  11.359 -1.0719 -0.5027 -0.4295
18204SOL     OW59931  11.817   2.740  10.510  0.2520 -0.0311 -0.4819
18204SOL    HW159932  11.741   2.737  10.568  0.8455 -1.2617  0.2931
18204SOL    HW259933  11.809   2.823  10.462 -1.1467  0.2146  0.1420
18205SOL     OW59934   1.536   8.605   0.960 -0.2471 -0.3520  0.2649
18205SOL    HW159935   1.606   8.543   0.941  0.9717  0.1240  2.7320
18205SOL    HW259936   1.581   8.690   0.967 -1.4690  0.3772 -0.5172
18206SOL     OW59937   8.972  11.786   4.238  0.2459  0.0560  0.5909
18206SOL    HW159938   9.063  11.815   4.251  0.5198 -0.7046  0.4251
18206SOL    HW259939   8.940  11.770   4.327  0.4217 -0.1216  0.6222
18207SOL     OW59940  10.590   6.256   1.241 -0.2289 -0.2416  0.1093
18207SOL    HW159941  10.564   6.347   1.257  1.2656  0.3744 -0.7505
18207SOL    HW259942  10.674   6.263   1.195 -0.9136 -2.0327 -1.5415
18208SOL     OW59943   7.383   5.149   9.089  0.2744 -0.3049  0.2603
18208SOL    HW159944   7.322   5.087   9.128  1.5877 -1.2515  0.8741
18208SOL    HW259945   7.391   5.218   9.155  1.7878 -1.4497  1.3266
18209SOL     OW59946   0.724   6.906   4.471 -0.0045 -0.1630  0.4435
18209SOL    HW159947   0.664   6.851   4.522 -0.0031  0.2134  0.8576
18209SOL    HW259948   0.672   6.983   4.447  0.6793  0.8579  2.0274
18210SOL     OW59949   2.225   9.480   4.037  0.1480 -0.4736 -0.0110
18210SOL    HW159950   2.138   9.517   4.022  0.5356 -0.0104 -1.2366
18210SOL    HW259951   2.284   9.554   4.032  0.5127 -0.5333  2.3853
18211SOL     OW59952   9.066   4.954   7.815 -0.3301  0.1765 -0.5509
18211SOL    HW159953   9.072   4.900   7.736 -1.2229  1.4032 -1.5090
18211SOL    HW259954   9.110   4.903   7.883  2.0170 -0.1937 -2.2318
18212SOL     OW59955   3.308   9.850   9.134  0.0157  0.0200  0.3394
18212SOL    HW159956   3.365   9.824   9.062  1.2591 -0.5263  1.4577
18212SOL    HW259957   3.247   9.778   9.145  0.2280 -0.1800  0.2179
18213SOL     OW59958  10.594   5.664  11.272  0.1585 -0.4097 -0.3576
18213SOL    HW159959  10.647   5.744  11.273  0.8187 -0.8410 -0.1889
18213SOL    HW259960  10.524   5.683  11.209 -0.0658  0.5264  0.1478
18214SOL     OW59961   3.523   2.545   9.206  0.4016 -0.3692 -0.5212
18214SOL    HW159962   3.436   2.518   9.175  0.4941 -0.2964 -0.8372
18214SOL    HW259963   3.571   2.567   9.127  0.6401 -0.1992 -0.3269
18215SOL     OW59964   5.044   5.214   3.730  0.0941  0.2910 -0.1930
18215SOL    HW159965   4.956   5.179   3.744  0.6453 -0.7526  0.8952
18215SOL    HW259966   5.056   5.213   3.635 -0.4600 -1.1419 -0.2700
18216SOL     OW59967   2.376   4.542   3.235  0.3654  0.4474 -0.4490
18216SOL    HW159968   2.411   4.453   3.229  0.0954  0.2889  0.2806
18216SOL    HW259969   2.294   4.533   3.283  1.4516  1.3661  1.7281
18217SOL     OW59970   4.001   9.607   8.053 -0.1767 -0.2810 -0.7105
18217SOL    HW159971   4.085   9.561   8.058 -1.0086 -1.7143  1.0547
18217SOL    HW259972   4.012   9.685   8.108  0.2697  0.0689 -1.2742
18218SOL     OW59973   9.809   5.027   9.092 -0.0665 -0.3004  0.7331
18218SOL    HW159974   9.755   4.976   9.153 -0.2634 -0.2387  0.6133
18218SOL    HW259975   9.855   4.961   9.041 -0.9048 -0.3834  0.0609
18219SOL     OW59976   7.144   9.217   7.915 -1.0859  0.3858 -0.5882
18219SOL    HW159977   7.226   9.171   7.899 -1.0215  0.2757  0.0347
18219SOL    HW259978   7.143   9.288   7.850 -0.1833  0.8014 -0.1694
18220SOL     OW59979  10.430   0.956   3.681  0.0715  0.3531 -0.0063
18220SOL    HW159980  10.381   0.905   3.745  2.5481  0.5375  2.2059
18220SOL    HW259981  10.389   0.935   3.597 -1.4583 -2.2242  1.2652
18221SOL     OW59982   8.507   2.736   2.351 -0.3735 -0.1398 -0.3631
18221SOL    HW159983   8.491   2.734   2.446  1.8123  0.8032  0.0804
18221SOL    HW259984   8.464   2.815   2.321 -1.0471 -0.4234 -0.1655
18222SOL     OW59985   5.400   0.497   8.886  0.3789 -0.4201 -0.0733
18222SOL    HW159986   5.436   0.470   8.801 -0.5971 -0.7677 -0.3877
18222SOL    HW259987   5.377   0.589   8.873  0.6489 -0.3440 -0.0329
18223SOL     OW59988   0.791   1.982   7.027 -0.4272  0.4630  0.1736
18223SOL    HW159989   0.791   2.070   6.989 -0.6137 -0.3993 -1.9918
18223SOL    HW259990   0.807   1.996   7.120  2.4325  2.5905 -0.5092
18224SOL     OW59991   0.641   6.399   3.070  0.1688  0.4578 -0.2976
18224SOL    HW159992   0.727   6.360   3.058  1.3154  2.2240  1.4213
18224SOL    HW259993   0.611   6.365   3.155 -0.9141 -0.2475 -0.9417
18225SOL     OW59994   4.450   9.059   6.479  0.0663  0.1334  0.1262
18225SOL    HW159995   4.378   9.013   6.434  1.1197 -0.9763 -0.5039
18225SOL    HW259996   4.407   9.127   6.531 -1.2700  0.8987 -1.8895
18226SOL     OW59997   8.227   8.329   7.083  0.1245 -1.0009 -0.1802
18226SOL    HW159998   8.233   8.400   7.146 -1.0355 -1.3362  0.3313
18226SOL    HW259999   8.307   8.336   7.031 -0.2812  1.1121 -0.6164
18227SOL     OW60000   5.484   5.510  11.018 -0.1455  0.1594  0.3406
18227SOL    HW160001   5.525   5.594  10.999 -2.2761  0.8410 -1.7730
18227SOL    HW260002   5.550   5.445  10.994  0.8043  1.1930  0.0550
18228SOL     OW60003   4.815   6.530   4.437 -0.0932  0.2943  0.1328
18228SOL    HW160004   4.855   6.474   4.371 -1.1731 -0.6874  0.2710
18228SOL    HW260005   4.795   6.612   4.392  2.3630  0.9897  0.1570
18229SOL     OW60006  11.349   9.873   6.134  0.4161 -0.3137  0.5445
18229SOL    HW160007  11.332   9.779   6.125  0.5716 -0.3503  0.6187
18229SOL    HW260008  11.444   9.881   6.125  0.2304  0.0661 -1.3177
18230SOL     OW60009   2.546   9.882  10.877 -0.5926  0.0560 -0.7742
18230SOL    HW160010   2.514   9.856  10.791  2.9850  0.8186 -2.5368
18230SOL    HW260011   2.641   9.889  10.866 -0.2058  2.6326  2.5934
18231SOL     OW60012   4.615  11.469   5.960  0.3891 -0.2775 -0.0825
18231SOL    HW160013   4.584  11.519   5.885 -1.4100 -1.4521 -0.1762
18231SOL    HW260014   4.664  11.396   5.923  2.4842  0.9778  0.0401
18232SOL     OW60015  10.368   3.012   9.945 -0.3123  0.0174 -0.0126
18232SOL    HW160016  10.277   2.990   9.923  0.1355 -0.4862 -1.5090
18232SOL    HW260017  10.410   2.926   9.957  0.3253  0.1775 -0.9824
18233SOL     OW60018   8.539   4.450   1.627  0.4302 -0.7709 -0.0039
18233SOL    HW160019   8.505   4.525   1.676 -0.3852 -0.4555 -0.9952
18233SOL    HW260020   8.598   4.488   1.562  0.1933 -0.9986 -0.3597
18234SOL     OW60021   7.954   1.800   1.294  0.3290 -0.7096 -0.0476
18234SOL    HW160022   7.951   1.875   1.235  2.8816 -1.0774 -0.7671
18234SOL    HW260023   7.973   1.725   1.237  2.1276 -1.1928  1.1166
18235SOL     OW60024   9.176   5.451   5.632  0.2045 -0.3344  0.1856
18235SOL    HW160025   9.217   5.463   5.547  0.0467 -2.4522 -0.2608
18235SOL    HW260026   9.086   5.424   5.612 -0.0574 -0.1208  1.0338
18236SOL     OW60027   5.896  11.123   7.116 -0.3373 -0.0034 -0.4796
18236SOL    HW160028   5.845  11.042   7.117  2.0338 -1.6120  0.3499
18236SOL    HW260029   5.900  11.151   7.207  0.9426 -0.4238 -0.3802
18237SOL     OW60030   4.570   9.380   6.649 -0.2288 -0.1433 -0.0187
18237SOL    HW160031   4.549   9.371   6.556 -0.8357  0.2554  0.0704
18237SOL    HW260032   4.493   9.345   6.694  0.2397 -0.7349  0.3430
18238SOL     OW60033   4.903   2.071   9.688  1.1696 -0.1216 -0.2778
18238SOL    HW160034   4.915   2.078   9.782  1.0594  2.3592 -0.3694
18238SOL    HW260035   4.919   2.160   9.655 -1.1640 -0.3196 -2.2958
18239SOL     OW60036   2.775   1.133   6.175  0.2559 -0.1112  0.3628
18239SOL    HW160037   2.702   1.195   6.182  1.0839  1.1152 -1.2906
18239SOL    HW260038   2.784   1.098   6.264 -1.6672  0.4592  0.8404
18240SOL     OW60039   8.395   6.719   6.593 -0.4986  0.4079 -0.1926
18240SOL    HW160040   8.426   6.807   6.617  1.8186 -0.6077  0.8375
18240SOL    HW260041   8.307   6.714   6.629 -0.5471  2.1944  0.0192
18241SOL     OW60042   6.834   0.665   7.266 -0.0677  0.0619 -0.0818
18241SOL    HW160043   6.828   0.759   7.281 -1.7197 -0.1547  0.8438
18241SOL    HW260044   6.828   0.655   7.171  2.0561  0.9717 -0.3669
18242SOL     OW60045   6.305   3.286   6.379  0.5510  0.5142 -0.1297
18242SOL    HW160046   6.305   3.378   6.405 -1.0814  0.8395 -1.0925
18242SOL    HW260047   6.281   3.238   6.458  0.5354  0.9917  0.1590
18243SOL     OW60048   4.615   6.569  10.356 -0.3156 -0.0900 -0.2583
18243SOL    HW160049   4.531   6.533  10.384  0.2235 -0.5496  0.7932
18243SOL    HW260050   4.618   6.657  10.394  0.2485 -0.5714  0.8521
18244SOL     OW60051   3.609   5.016   5.900 -0.3881 -0.0680 -0.1527
18244SOL    HW160052   3.567   5.102   5.906 -0.4190  0.0462 -1.5367
18244SOL    HW260053   3.645   5.000   5.987 -0.6102  1.2369  0.1953
18245SOL     OW60054   1.604   6.368   4.778  0.4538 -0.4249  0.3923
18245SOL    HW160055   1.641   6.332   4.859  0.8394 -0.7460  0.0796
18245SOL    HW260056   1.680   6.378   4.720  0.1956 -0.0854  0.1128
18246SOL     OW60057   6.539   3.473   1.749  0.0828  0.5739 -0.7669
18246SOL    HW160058   6.517   3.405   1.812  0.0575 -0.7701 -2.1614
18246SOL    HW260059   6.498   3.553   1.783  0.0093 -0.1201  0.8407
18247SOL     OW60060   2.354   4.740   5.854 -0.1864  0.0904 -0.5910
18247SOL    HW160061   2.436   4.706   5.819  0.1256  0.9548 -0.7130
18247SOL    HW260062   2.349   4.830   5.822 -1.1218  0.0900 -0.4803
18248SOL     OW60063   7.744   2.305  10.798  0.4453  0.1925  0.0661
18248SOL    HW160064   7.690   2.313  10.719  1.6661  0.7335 -0.7568
18248SOL    HW260065   7.763   2.396  10.823  0.6099  0.0115  0.5993
18249SOL     OW60066   4.309   0.385   7.571  0.1147 -0.0310 -0.0797
18249SOL    HW160067   4.345   0.354   7.655  1.3850  3.1358  0.7052
18249SOL    HW260068   4.218   0.407   7.591 -0.2655 -1.4322 -0.1821
18250SOL     OW60069   1.832   5.685   5.378 -0.0195  0.2362 -0.0110
18250SOL    HW160070   1.746   5.672   5.337  0.9763  1.0926 -2.5377
18250SOL    HW260071   1.895   5.658   5.312  1.7263 -1.3773  2.1567
18251SOL     OW60072  10.914  10.533  11.057 -0.5687 -0.7480 -0.3155
18251SOL    HW160073  10.995  10.530  11.109 -0.5517 -1.5018 -0.3765
18251SOL    HW260074  10.854  10.586  11.109  0.8856  2.3947 -1.6208
18252SOL     OW60075   0.897   0.324   1.206 -0.2885 -0.0744 -0.2115
18252SOL    HW160076   0.956   0.393   1.237  0.6293 -0.6896 -0.5569
18252SOL    HW260077   0.847   0.365   1.136  0.3517  0.1987 -0.5108
18253SOL     OW60078   7.740   1.812   2.283  0.4731 -0.8149  0.2154
18253SOL    HW160079   7.755   1.744   2.216 -0.0009 -1.5108  0.7985
18253SOL    HW260080   7.782   1.890   2.247  1.6769 -1.5908 -0.1616
18254SOL     OW60081   9.487   3.660   6.661  0.1384 -0.3732 -0.3307
18254SOL    HW160082   9.512   3.749   6.686  2.3495 -0.9873 -0.1353
18254SOL    HW260083   9.515   3.652   6.569 -2.0029 -0.2367 -1.0635
18255SOL     OW60084   7.268   8.325   4.155 -0.1485  0.2739 -1.1355
18255SOL    HW160085   7.353   8.288   4.130  0.4649  0.9274 -0.1159
18255SOL    HW260086   7.205   8.281   4.099  0.3228 -3.4347  0.9138
18256SOL     OW60087   4.154   5.807   7.582  0.4008  0.0776  0.9089
18256SOL    HW160088   4.206   5.838   7.656  0.4610  1.8902  0.1562
18256SOL    HW260089   4.098   5.739   7.619  2.9480 -1.6773  1.8510
18257SOL     OW60090   1.372   8.099  11.586  0.0148 -0.2024  0.0647
18257SOL    HW160091   1.422   8.049  11.651 -1.9872 -2.7732 -0.1996
18257SOL    HW260092   1.417   8.081  11.503  0.7883  0.6065  0.2864
18258SOL     OW60093   9.525   4.032  11.562 -0.1099 -0.4058 -0.6939
18258SOL    HW160094   9.435   4.066  11.560 -0.4297 -1.2486 -1.4120
18258SOL    HW260095   9.578   4.105  11.592 -1.3207 -0.5479  2.0267
18259SOL     OW60096   4.168   1.534   4.254  0.2436 -0.2285 -0.3175
18259SOL    HW160097   4.096   1.586   4.219  0.9938  0.5304 -0.7638
18259SOL    HW260098   4.168   1.552   4.348 -0.7078 -0.9462 -0.1661
18260SOL     OW60099   2.779   4.245   5.559  0.2474  0.0484  0.1467
18260SOL    HW160100   2.709   4.180   5.564 -0.3826  0.6314 -0.7132
18260SOL    HW260101   2.783   4.284   5.647 -1.0126  0.5135  0.0082
18261SOL     OW60102   5.512   0.277   1.724  0.4287  0.2158  0.4846
18261SOL    HW160103   5.558   0.285   1.808  0.0012  0.6510  0.6783
18261SOL    HW260104   5.580   0.246   1.663  0.8549  0.3497  0.8820
18262SOL     OW60105   5.978  10.220   7.275  0.0391 -0.1076 -0.3338
18262SOL    HW160106   6.011  10.280   7.209  0.2741 -1.2008 -1.2328
18262SOL    HW260107   5.883  10.232   7.272  0.0517 -0.1106 -0.8279
18263SOL     OW60108  10.222   5.534   0.301  0.0323  0.2148  0.1179
18263SOL    HW160109  10.268   5.541   0.385 -1.2865 -0.3520  0.9323
18263SOL    HW260110  10.230   5.441   0.278 -1.2167 -0.0346  0.6082
18264SOL     OW60111   3.907   5.851   3.320  0.3518  0.1244 -0.1976
18264SOL    HW160112   3.954   5.932   3.301 -0.5020  0.4534 -0.9692
18264SOL    HW260113   3.935   5.790   3.252  2.5782 -0.9499  1.5397
18265SOL     OW60114   6.554   4.522   8.305  0.1299  0.1733 -0.3676
18265SOL    HW160115   6.610   4.589   8.266  0.9799  0.3871  1.1511
18265SOL    HW260116   6.549   4.545   8.398 -0.6621 -1.1171 -0.0584
18266SOL     OW60117   2.042   0.262   0.043 -0.4112 -0.1189 -0.3824
18266SOL    HW160118   2.137   0.271   0.048 -0.2714 -0.7270 -1.7073
18266SOL    HW260119   2.025   0.233  -0.046 -1.8867  0.4696 -0.3197
18267SOL     OW60120   1.913   1.566   4.069 -0.1699 -0.0489 -0.1669
18267SOL    HW160121   1.970   1.634   4.033  2.3636 -1.2055  1.2926
18267SOL    HW260122   1.974   1.502   4.106 -2.4668 -0.9788  2.3444
18268SOL     OW60123   0.314   2.779   9.121 -0.8947 -0.5878  0.4073
18268SOL    HW160124   0.336   2.712   9.056 -1.8395 -1.0196  0.5158
18268SOL    HW260125   0.332   2.862   9.077  1.1180 -0.8919  0.5701
18269SOL     OW60126   4.220   0.636  11.548 -0.2769  0.2881  0.3207
18269SOL    HW160127   4.182   0.664  11.632  1.2436  2.2592  0.4434
18269SOL    HW260128   4.274   0.711  11.521  1.5848 -1.4253 -0.9676
18270SOL     OW60129   5.025  10.025   8.561  0.0134 -0.2476  0.0710
18270SOL    HW160130   4.997  10.095   8.619  0.0936 -2.1061  2.5445
18270SOL    HW260131   5.006   9.945   8.609 -0.0934 -1.9844 -2.6069
18271SOL     OW60132   9.496   5.731  11.313  0.4113  0.3409  0.6958
18271SOL    HW160133   9.465   5.740  11.403 -2.7442  0.1676 -0.2477
18271SOL    HW260134   9.548   5.651  11.314 -3.2493 -2.3270  1.6353
18272SOL     OW60135   2.002   5.706   3.902  0.2893 -0.3969 -0.1414
18272SOL    HW160136   2.027   5.664   3.819  0.0337  0.2689 -0.5593
18272SOL    HW260137   1.910   5.683   3.913  0.3112 -0.4469 -0.0572
18273SOL     OW60138  11.108   6.718   7.977 -0.2517 -0.6002 -0.2202
18273SOL    HW160139  11.144   6.794   7.931  0.2108 -0.1316  0.8906
18273SOL    HW260140  11.069   6.754   8.057 -0.5511 -1.4653  0.0353
18274SOL     OW60141   7.916   4.978   8.745  0.2659 -0.1080 -0.3721
18274SOL    HW160142   7.954   4.967   8.658  1.1354  0.1889 -0.0357
18274SOL    HW260143   7.901   4.888   8.776 -1.1053 -0.2161 -1.2633
18275SOL     OW60144   9.148  10.732  10.510  0.0332 -0.0572  0.0600
18275SOL    HW160145   9.242  10.744  10.528 -0.2262  1.6325  0.5012
18275SOL    HW260146   9.133  10.639  10.524  1.5504 -0.2738  0.4997
18276SOL     OW60147   3.717   9.937  10.115  0.2943 -0.4320  0.2238
18276SOL    HW160148   3.631   9.896  10.122  0.0609  0.1463  0.7793
18276SOL    HW260149   3.749   9.941  10.205  0.6793 -0.1687  0.0789
18277SOL     OW60150   4.890   3.872   7.444 -0.8484 -0.5078  0.1147
18277SOL    HW160151   4.963   3.875   7.506  0.2459  0.0473 -1.1351
18277SOL    HW260152   4.832   3.805   7.478  0.5710 -1.4241  0.8141
18278SOL     OW60153   5.981   8.912   7.943 -0.2479 -0.4216  0.6165
18278SOL    HW160154   5.890   8.888   7.963 -0.3033 -0.5414  0.2349
18278SOL    HW260155   5.973   8.989   7.886 -0.1180 -0.5983  0.3600
18279SOL     OW60156   7.523   6.716   6.761 -0.3981 -0.2156 -0.3460
18279SOL    HW160157   7.517   6.752   6.673 -1.8698 -1.3680 -0.7672
18279SOL    HW260158   7.510   6.791   6.819 -0.0132  0.4543 -1.1116
18280SOL     OW60159  11.391   8.789   3.663 -0.1768 -0.3741 -0.3588
18280SOL    HW160160  11.413   8.715   3.719 -0.9643 -1.4875 -1.4519
18280SOL    HW260161  11.475   8.830   3.642  0.3101 -1.1777 -0.0164
18281SOL     OW60162   6.682   6.442   2.245 -0.6379  0.1667  0.3822
18281SOL    HW160163   6.713   6.482   2.164  0.5000 -1.5594 -0.0816
18281SOL    HW260164   6.597   6.404   2.222 -0.1274 -0.6802 -0.1313
18282SOL     OW60165   9.506   2.668   1.317 -0.2974  0.5284 -0.3729
18282SOL    HW160166   9.557   2.749   1.318  0.5639  0.1123 -3.2377
18282SOL    HW260167   9.415   2.697   1.328  0.2441  1.4889  2.2298
18283SOL     OW60168   3.407  10.779   7.859  0.0178  0.3376 -0.0497
18283SOL    HW160169   3.498  10.760   7.881 -0.3847 -1.8221 -0.0902
18283SOL    HW260170   3.374  10.825   7.937  1.1604  1.3946 -0.1404
18284SOL     OW60171  11.411   9.374   7.190  0.3262  0.2255 -0.3128
18284SOL    HW160172  11.367   9.457   7.209  0.6812  0.8082 -1.8353
18284SOL    HW260173  11.453   9.389   7.105  0.8094 -1.3613 -0.3800
18285SOL     OW60174  10.843   2.290   0.657 -0.1066 -0.7409  0.7238
18285SOL    HW160175  10.804   2.203   0.648 -0.5864 -0.4867  0.2753
18285SOL    HW260176  10.785   2.336   0.718  0.1663 -0.7499  0.9887
18286SOL     OW60177   6.422   4.196   4.047  0.2865  0.2842  0.0767
18286SOL    HW160178   6.505   4.198   4.094  0.5754  2.4921 -0.4239
18286SOL    HW260179   6.447   4.185   3.955 -0.0664 -0.4691  0.0676
18287SOL     OW60180   3.075   7.531   1.313  0.2166 -0.5778  0.6004
18287SOL    HW160181   3.018   7.490   1.248 -0.1931  2.0925 -0.8385
18287SOL    HW260182   3.014   7.569   1.377  0.4760  0.2548  0.3529
18288SOL     OW60183   0.088   2.500   4.988 -0.4475 -0.3966  0.0870
18288SOL    HW160184   0.139   2.579   4.972  1.0373 -1.4188 -0.3822
18288SOL    HW260185  -0.002   2.525   4.969 -0.2652  1.6516  1.6029
18289SOL     OW60186   7.180   0.376   7.387  0.6972  0.3546 -0.4236
18289SOL    HW160187   7.106   0.426   7.421  1.6073  2.3148 -1.1588
18289SOL    HW260188   7.254   0.401   7.442  1.2875  0.2555 -1.1463
18290SOL     OW60189   0.018   9.904   5.258 -0.2309 -0.6072 -0.3993
18290SOL    HW160190   0.029   9.877   5.166  0.4580 -1.8933  0.0281
18290SOL    HW260191  -0.049   9.845   5.292 -1.2612  0.5682 -0.3254
18291SOL     OW60192   8.017   3.108   4.145  0.2870 -0.0774  0.2244
18291SOL    HW160193   7.999   3.150   4.229 -2.2579 -0.3959 -0.0874
18291SOL    HW260194   7.955   3.149   4.084  2.1501  0.2326 -1.5570
18292SOL     OW60195  11.540   9.484   3.865 -0.0818  0.3624 -0.2035
18292SOL    HW160196  11.610   9.530   3.912 -0.4906  0.1229  0.6525
18292SOL    HW260197  11.462   9.538   3.881 -0.6460 -0.7827  1.1151
18293SOL     OW60198   7.325  10.022   2.476  0.6027 -0.1578  0.3186
18293SOL    HW160199   7.283  10.106   2.456  0.4345 -0.1980  0.4952
18293SOL    HW260200   7.402  10.019   2.419  1.3040  0.6760  1.1838
18294SOL     OW60201   4.929   6.005   5.230 -0.1230  0.5558  0.5150
18294SOL    HW160202   4.988   5.930   5.219 -0.3401  0.6181 -1.4149
18294SOL    HW260203   4.894   5.995   5.318  4.2495  1.6043  2.6553
18295SOL     OW60204   6.092  11.238   5.077 -0.2294 -0.1465  0.1031
18295SOL    HW160205   6.002  11.208   5.092  0.1691 -0.5923  1.8305
18295SOL    HW260206   6.085  11.333   5.075 -0.7484 -0.1780  0.1183
18296SOL     OW60207   7.238   1.435   8.339 -0.3147 -0.2336 -1.4214
18296SOL    HW160208   7.170   1.500   8.322 -1.6837 -1.0059  0.7800
18296SOL    HW260209   7.227   1.370   8.270 -0.2868  0.7821 -2.4138
18297SOL     OW60210   5.928   7.389   0.751  0.7426 -0.0065  0.4620
18297SOL    HW160211   5.934   7.387   0.656  4.8029 -0.5593  0.5543
18297SOL    HW260212   5.932   7.297   0.777  3.0386  0.2002  1.1112
18298SOL     OW60213  11.308   4.240   1.673 -0.1063  0.0615 -0.6996
18298SOL    HW160214  11.335   4.319   1.719  0.0328  0.4249 -1.3992
18298SOL    HW260215  11.309   4.264   1.580 -1.7631 -0.2194 -0.8274
18299SOL     OW60216   0.654   1.857   9.058  0.2591 -0.3795 -0.0315
18299SOL    HW160217   0.744   1.881   9.036  0.1879  2.9524  2.5319
18299SOL    HW260218   0.650   1.864   9.153 -3.0564  1.2212 -0.1597
18300SOL     OW60219  10.239   6.853   3.211  0.0552  0.1858 -0.1687
18300SOL    HW160220  10.219   6.794   3.138 -1.9975  3.6813 -2.8043
18300SOL    HW260221  10.317   6.901   3.183 -0.6200  1.4108 -0.0479
18301SOL     OW60222   8.737   7.143   3.881  0.9008  0.1778 -0.1975
18301SOL    HW160223   8.782   7.151   3.797 -1.2438  0.3936 -1.3824
18301SOL    HW260224   8.746   7.229   3.922  0.5969  0.5672 -0.9403
18302SOL     OW60225   9.181   7.606   8.333  0.1976 -0.1252 -0.2153
18302SOL    HW160226   9.110   7.551   8.367 -0.0230  0.0465 -0.3876
18302SOL    HW260227   9.137   7.686   8.303 -0.0289 -1.2592 -3.3140
18303SOL     OW60228   3.121  10.031   2.552  0.2728  0.2306  0.7390
18303SOL    HW160229   3.052  10.012   2.489  0.0778 -0.5467  1.1755
18303SOL    HW260230   3.160  10.113   2.521  0.5824 -0.4418 -0.7263
18304SOL     OW60231   7.195   4.493   1.289  0.3390  0.3349 -0.3039
18304SOL    HW160232   7.156   4.409   1.312  0.6205  0.3577  0.2748
18304SOL    HW260233   7.271   4.471   1.235 -0.2440  0.2758 -1.1215
18305SOL     OW60234   7.603   1.380   3.661  0.2670 -0.6147 -0.1386
18305SOL    HW160235   7.615   1.426   3.745  0.5845  0.9000 -0.9813
18305SOL    HW260236   7.622   1.288   3.681  0.4716 -0.2603  1.4178
18306SOL     OW60237   6.108  10.407   1.972 -0.2502 -0.3118  0.5353
18306SOL    HW160238   6.136  10.335   1.916 -1.2652 -0.4994  0.2406
18306SOL    HW260239   6.097  10.481   1.912  0.3646 -0.0177  0.7706
18307SOL     OW60240   4.846   4.371   3.310 -0.1507  0.0151  0.0252
18307SOL    HW160241   4.875   4.287   3.274  1.7982 -0.1245  1.7103
18307SOL    HW260242   4.763   4.352   3.352 -0.0034 -0.9609 -0.0969
18308SOL     OW60243   3.739   3.717   5.467 -0.0647 -0.4081  0.3648
18308SOL    HW160244   3.743   3.756   5.379 -0.4060 -0.0471  0.5083
18308SOL    HW260245   3.783   3.781   5.523 -0.5973 -0.2422  0.5949
18309SOL     OW60246  10.903   0.386   2.422 -0.1773 -0.0272 -0.2136
18309SOL    HW160247  10.842   0.319   2.452 -1.2240  1.2577  0.6213
18309SOL    HW260248  10.953   0.408   2.501  0.8161 -0.4661 -0.7019
18310SOL     OW60249   6.639   6.873   8.788  0.1149 -0.1999  0.2127
18310SOL    HW160250   6.707   6.810   8.763  1.4603  1.1778  0.3117
18310SOL    HW260251   6.601   6.837   8.868  1.2962 -0.5786  0.6204
18311SOL     OW60252   4.672   0.780   7.310  0.1864 -0.4514 -0.1904
18311SOL    HW160253   4.646   0.792   7.402 -0.0325 -0.2118 -0.2816
18311SOL    HW260254   4.755   0.733   7.315 -0.0992 -0.9292  0.1126
18312SOL     OW60255   9.385  11.489   9.145  0.1927  0.7734 -0.2624
18312SOL    HW160256   9.479  11.474   9.134  0.3842  2.0997 -0.5585
18312SOL    HW260257   9.379  11.548   9.220 -0.4131  0.6701 -0.2243
18313SOL     OW60258   0.528   0.174   7.735 -0.2131  0.0580  0.0278
18313SOL    HW160259   0.524   0.112   7.662 -1.3743  0.3939 -0.2121
18313SOL    HW260260   0.437   0.198   7.752  0.1458  1.0405  0.6846
18314SOL     OW60261   1.643   1.284  11.794 -0.3087  0.0662 -0.6159
18314SOL    HW160262   1.567   1.226  11.796 -0.6560  0.5073 -0.8037
18314SOL    HW260263   1.654   1.314  11.884 -0.1810 -0.2129 -0.5350
18315SOL     OW60264   8.100   4.227   8.770 -0.0017  0.2077  0.0535
18315SOL    HW160265   8.044   4.220   8.693  0.4887 -0.2604 -0.2729
18315SOL    HW260266   8.187   4.200   8.739 -0.0486 -1.2009  1.0446
18316SOL     OW60267   6.936   5.917   7.912 -0.0803  0.0807  0.2681
18316SOL    HW160268   6.874   5.969   7.860 -2.4890 -2.3199  0.4958
18316SOL    HW260269   6.978   5.859   7.849  0.2885  0.1581  0.4367
18317SOL     OW60270   6.199  11.596   4.440 -0.2151  0.0928 -0.2539
18317SOL    HW160271   6.108  11.567   4.433 -0.1653 -0.0428 -0.3395
18317SOL    HW260272   6.193  11.683   4.480 -0.2296 -1.1463  2.7187
18318SOL     OW60273   5.700   2.616  11.139  0.4274 -0.3194  0.1508
18318SOL    HW160274   5.757   2.655  11.073  1.7012 -0.8560  0.9019
18318SOL    HW260275   5.708   2.522  11.125  2.4159 -0.5703  2.3647
18319SOL     OW60276  10.120   1.245   0.393 -0.2657  0.5565  0.2465
18319SOL    HW160277  10.040   1.226   0.443 -0.5679  1.1623 -0.0022
18319SOL    HW260278  10.122   1.178   0.325 -1.6154  1.6938 -0.9632
18320SOL     OW60279   8.499   0.375   2.623 -0.2321  0.3574  0.6019
18320SOL    HW160280   8.531   0.344   2.707  0.6174 -1.8435 -0.4410
18320SOL    HW260281   8.415   0.331   2.610 -0.6167  1.0924  0.5098
18321SOL     OW60282   8.183   2.761  11.553 -0.4718  0.0990  0.1434
18321SOL    HW160283   8.185   2.704  11.630  0.6415  1.6380  1.3146
18321SOL    HW260284   8.190   2.849  11.588 -2.9942  1.0962 -1.5469
18322SOL     OW60285   3.197   6.809   3.345 -0.4090 -0.2191  0.2835
18322SOL    HW160286   3.166   6.850   3.425 -3.5731 -0.6050 -0.5986
18322SOL    HW260287   3.220   6.882   3.287  1.3120  0.0667  1.2701
18323SOL     OW60288   7.698   2.917  11.772 -0.9152 -0.4690  0.2260
18323SOL    HW160289   7.718   2.983  11.839 -2.1053 -0.5160  0.6488
18323SOL    HW260290   7.741   2.950  11.693 -0.7650  0.3724  0.6423
18324SOL     OW60291   6.273   4.469   9.394  0.2211 -0.0620  0.4544
18324SOL    HW160292   6.303   4.391   9.442 -0.5970 -0.0314  1.0303
18324SOL    HW260293   6.177   4.462   9.394  0.1360  1.0045  0.5970
18325SOL     OW60294  10.626   3.570   2.235 -0.1044 -0.3002  0.0848
18325SOL    HW160295  10.628   3.665   2.222 -0.7331  0.0078  1.9504
18325SOL    HW260296  10.661   3.558   2.324 -1.2836 -1.6879  0.3924
18326SOL     OW60297   4.028   7.560   2.080 -0.9876  0.2583  0.6305
18326SOL    HW160298   4.092   7.597   2.141  0.4944 -1.9518  0.5397
18326SOL    HW260299   4.035   7.616   2.002  2.0410 -0.7466  0.0333
18327SOL     OW60300   9.999   0.549   7.683  0.3213  0.2806 -0.3242
18327SOL    HW160301  10.024   0.581   7.769  0.4321  1.4805 -0.7958
18327SOL    HW260302  10.008   0.453   7.690  3.1797  0.4978  0.1125
18328SOL     OW60303   4.507   8.626  11.598  0.2713  0.9850  0.5890
18328SOL    HW160304   4.435   8.565  11.616  0.3736  0.0396 -1.8599
18328SOL    HW260305   4.468   8.693  11.542  1.2412  0.5045 -0.7060
18329SOL     OW60306  10.764   8.126   6.559 -0.0676  0.5785  0.6046
18329SOL    HW160307  10.843   8.110   6.611  0.2094  1.1683  0.3756
18329SOL    HW260308  10.796   8.167   6.479 -0.6210  0.9531  0.5711
18330SOL     OW60309  10.058   4.142   3.524  0.2435  0.1520  0.7410
18330SOL    HW160310  10.033   4.093   3.446  0.2941  1.5360 -0.1737
18330SOL    HW260311  10.038   4.083   3.597 -1.8996 -0.3218 -0.1610
18331SOL     OW60312  10.270   3.361  10.315  0.5259 -0.0826 -0.0656
18331SOL    HW160313  10.317   3.421  10.373 -0.7093 -0.5056  1.4258
18331SOL    HW260314  10.335   3.294  10.292  1.8920  1.6898 -1.6755
18332SOL     OW60315   4.444   9.263   9.641  0.1578  0.4109  0.5621
18332SOL    HW160316   4.503   9.281   9.714 -0.4008 -0.6694  1.3064
18332SOL    HW260317   4.500   9.266   9.564  1.1206 -0.1933  1.2112
18333SOL     OW60318   7.701   9.919   2.743  0.7518  0.0374 -0.2591
18333SOL    HW160319   7.729   9.956   2.827  0.3595 -1.1153  0.3960
18333SOL    HW260320   7.781   9.880   2.706  1.0756  1.1329 -0.7610
18334SOL     OW60321   6.909   3.819   9.324 -0.6957  0.0578 -0.4958
18334SOL    HW160322   6.990   3.834   9.275 -1.2753  2.2955 -0.8905
18334SOL    HW260323   6.930   3.851   9.412 -0.8466 -0.2983 -0.3325
18335SOL     OW60324   5.370   6.584   7.556 -0.6755  0.0714  0.6016
18335SOL    HW160325   5.327   6.520   7.500 -1.1631  0.4581  0.5249
18335SOL    HW260326   5.320   6.665   7.543  0.6231  0.7719 -0.1655
18336SOL     OW60327   8.026   4.476   9.957  0.2704  0.1864  0.7962
18336SOL    HW160328   8.061   4.517   9.878 -0.7354  0.0011  0.2374
18336SOL    HW260329   8.102   4.437  10.000  0.8888  0.6488  0.1412
18337SOL     OW60330   0.894   8.016   7.399  0.1218  0.5662  0.9450
18337SOL    HW160331   0.928   7.980   7.317  1.6206  1.9625  0.8981
18337SOL    HW260332   0.927   7.956   7.467  0.1075  0.2152  0.6461
18338SOL     OW60333   9.794   5.096   2.009  0.2888 -0.3252  0.7661
18338SOL    HW160334   9.709   5.135   1.988  1.1214  0.3602 -1.6234
18338SOL    HW260335   9.776   5.003   2.019 -0.9819  0.0160  1.9907
18339SOL     OW60336   9.950   3.722  10.469 -0.1768 -0.5787  0.5145
18339SOL    HW160337  10.029   3.732  10.416 -1.4975  1.1603 -1.2096
18339SOL    HW260338   9.938   3.627  10.475  0.5920 -0.8436 -1.4341
18340SOL     OW60339   4.551   5.335   5.565  0.0506  0.4900  0.1017
18340SOL    HW160340   4.524   5.309   5.477 -1.1960 -1.0290  0.8851
18340SOL    HW260341   4.535   5.430   5.568 -0.9506  0.3805 -0.9501
18341SOL     OW60342   7.171   1.781   8.337 -0.6003 -0.1197  0.6127
18341SOL    HW160343   7.256   1.739   8.349 -1.0525 -0.9066  1.1765
18341SOL    HW260344   7.191   1.874   8.324  0.4120 -0.4630 -0.4217
18342SOL     OW60345  10.336  11.233  11.448 -0.2565  0.1619  0.3715
18342SOL    HW160346  10.427  11.249  11.424 -0.3321  0.6754  0.4127
18342SOL    HW260347  10.293  11.210  11.366  0.1014 -1.0209  0.4980
18343SOL     OW60348   9.355   5.399   5.079 -0.5174 -0.2649  0.7044
18343SOL    HW160349   9.355   5.492   5.058 -0.2043 -0.5183 -0.5133
18343SOL    HW260350   9.357   5.355   4.993  2.4949 -1.3837  1.2388
18344SOL     OW60351   3.841   6.189  10.774  0.6469  0.0128 -0.4080
18344SOL    HW160352   3.834   6.275  10.733  1.9710 -0.3923 -1.5732
18344SOL    HW260353   3.840   6.206  10.868 -2.5764  0.9781 -0.4984
18345SOL     OW60354   5.819  10.170   8.169  0.3491 -0.2038 -0.5673
18345SOL    HW160355   5.854  10.186   8.082  0.7515  1.6669 -0.1118
18345SOL    HW260356   5.758  10.243   8.184  1.4913  0.4331  1.3077
18346SOL     OW60357   4.237   7.679   9.178  0.3809  0.7742 -0.1688
18346SOL    HW160358   4.144   7.660   9.167  0.3388  0.6349  0.3780
18346SOL    HW260359   4.258   7.648   9.266  1.0286  0.4827 -0.4159
18347SOL     OW60360  11.601  10.305   8.361  0.1807 -0.8163  0.4270
18347SOL    HW160361  11.685  10.342   8.334  0.7231 -2.0895  0.2947
18347SOL    HW260362  11.538  10.344   8.301  0.4717  1.1112  1.3202
18348SOL     OW60363   5.506   6.663   4.982  0.4290 -0.0437  0.2155
18348SOL    HW160364   5.532   6.754   4.965 -0.0928  0.3610  1.4764
18348SOL    HW260365   5.543   6.643   5.067 -1.4658 -0.1858  1.0620
18349SOL     OW60366   7.916   8.933   7.025  0.8592 -0.1216 -0.3146
18349SOL    HW160367   7.995   8.939   7.078  0.8084 -0.9400 -0.1394
18349SOL    HW260368   7.946   8.950   6.935  1.1454  0.0462 -0.1884
18350SOL     OW60369  11.671   7.375   3.053  0.2012 -0.1321 -0.5337
18350SOL    HW160370  11.590   7.350   3.097  0.5870  0.7419  0.7195
18350SOL    HW260371  11.699   7.455   3.097  0.0483  1.4316 -3.0890
18351SOL     OW60372   9.044   1.360   2.310 -0.0024 -0.0517 -0.1183
18351SOL    HW160373   9.118   1.373   2.251 -0.8739  1.9403 -0.8695
18351SOL    HW260374   9.028   1.265   2.307  2.1006 -0.4514 -0.3971
18352SOL     OW60375   6.475   8.257   9.495  0.1373  0.5536  0.2107
18352SOL    HW160376   6.566   8.234   9.479 -0.0503  0.7874 -1.2882
18352SOL    HW260377   6.474   8.286   9.586  1.3609 -0.3799  0.5549
18353SOL     OW60378   3.978   4.327   8.514 -0.1854  0.5001 -0.2892
18353SOL    HW160379   3.929   4.324   8.596  0.5463  1.1055  0.1884
18353SOL    HW260380   3.917   4.367   8.451 -1.3753 -1.5580 -0.5304
18354SOL     OW60381   0.653   2.219   3.731 -0.2293 -0.3090 -0.6523
18354SOL    HW160382   0.690   2.302   3.763 -0.9928 -0.0257 -0.4911
18354SOL    HW260383   0.624   2.174   3.810  0.5048 -0.8987 -0.7074
18355SOL     OW60384   9.241   4.600   0.532 -0.0136  0.3272  0.1188
18355SOL    HW160385   9.291   4.585   0.612  0.7589 -0.2235 -0.4552
18355SOL    HW260386   9.299   4.651   0.476 -0.7733  1.2254  0.1284
18356SOL     OW60387  10.981   1.857   8.156  0.2384 -0.0764  0.4355
18356SOL    HW160388  10.889   1.859   8.128  0.6877  2.3701 -1.1371
18356SOL    HW260389  10.977   1.881   8.249 -0.7518 -1.1205  0.6951
18357SOL     OW60390   5.605   8.868   0.695  0.5264  0.2180  0.8427
18357SOL    HW160391   5.560   8.912   0.768  1.8434 -1.1866  2.5872
18357SOL    HW260392   5.626   8.939   0.634 -1.8355  1.2587  1.1155
18358SOL     OW60393  10.110   7.415   2.055  0.3929  0.3655  0.1875
18358SOL    HW160394  10.097   7.443   2.146  0.4635  0.7628  0.0765
18358SOL    HW260395  10.096   7.320   2.057 -1.8112  0.6465  0.2143
18359SOL     OW60396   3.793   1.078   1.072  0.2825  0.4666 -0.1625
18359SOL    HW160397   3.882   1.052   1.051 -0.5182 -1.1457 -1.7829
18359SOL    HW260398   3.748   0.996   1.093 -0.9299  1.2007  0.2097
18360SOL     OW60399   9.390   5.538   9.199 -0.2966 -0.7732 -0.1978
18360SOL    HW160400   9.424   5.468   9.256  0.6061  0.4880  0.8818
18360SOL    HW260401   9.383   5.614   9.257  0.3197  0.4775 -1.7016
18361SOL     OW60402   6.379  10.011   3.477 -0.2778  0.4246  0.3579
18361SOL    HW160403   6.320   9.998   3.403  0.5175  1.0443 -0.4092
18361SOL    HW260404   6.467  10.001   3.439  0.1282 -0.1220  1.3971
18362SOL     OW60405   6.643   6.461   3.783 -0.1807  0.5084 -0.3151
18362SOL    HW160406   6.722   6.458   3.729  0.5020  3.5217  0.3528
18362SOL    HW260407   6.575   6.491   3.724 -0.9164 -2.0409 -0.8774
18363SOL     OW60408   5.437   6.283   8.782 -0.3500 -0.4320  0.2098
18363SOL    HW160409   5.525   6.290   8.818 -0.4278 -0.5416  0.4205
18363SOL    HW260410   5.385   6.345   8.834 -1.2103 -2.9143  2.5752
18364SOL     OW60411   8.767   6.808  11.182  0.1777 -0.1700  0.8336
18364SOL    HW160412   8.768   6.843  11.093  0.4673 -1.5295  0.2655
18364SOL    HW260413   8.780   6.714  11.170 -1.3110 -0.5937  2.2230
18365SOL     OW60414  10.131   5.385   4.296 -0.8678 -0.4093  0.3249
18365SOL    HW160415  10.187   5.444   4.347 -3.1533  3.2118 -0.9762
18365SOL    HW260416  10.146   5.410   4.205 -2.6506 -1.1645 -0.2135
18366SOL     OW60417  10.375   5.518   3.240  0.2733  0.1612 -0.7571
18366SOL    HW160418  10.353   5.609   3.259  1.2782  0.2285  0.2321
18366SOL    HW260419  10.305   5.467   3.281  0.3092  0.4603 -0.3123
18367SOL     OW60420   9.519   7.873   5.818  0.0971  0.7930 -0.6472
18367SOL    HW160421   9.607   7.835   5.811  0.8275  1.8312  1.7347
18367SOL    HW260422   9.484   7.871   5.729  1.9161 -1.0533 -1.3993
18368SOL     OW60423  11.367   6.138   9.763  0.3089 -0.2604  0.4105
18368SOL    HW160424  11.452   6.121   9.722  1.3527 -0.5119  2.5392
18368SOL    HW260425  11.304   6.095   9.706  1.3918  1.1749 -2.0645
18369SOL     OW60426   6.409   7.260   4.671 -0.6604 -0.6292  0.1086
18369SOL    HW160427   6.481   7.234   4.728 -1.4698 -1.1461  0.9099
18369SOL    HW260428   6.347   7.187   4.675 -2.4402  0.8791  1.4707
18370SOL     OW60429   8.640   9.269   3.751 -0.5138 -0.1613  0.8610
18370SOL    HW160430   8.659   9.321   3.673 -0.6557 -0.5189  0.5862
18370SOL    HW260431   8.700   9.303   3.818 -0.2369 -0.0018  0.5324
18371SOL     OW60432   5.901   7.873   9.574  0.4126 -0.5669  0.5569
18371SOL    HW160433   5.889   7.894   9.481 -0.1841  0.7972  0.9133
18371SOL    HW260434   5.991   7.840   9.580  0.3182 -1.0667 -0.5603
18372SOL     OW60435  10.290   2.418   5.071  0.3474  0.2149 -0.0796
18372SOL    HW160436  10.267   2.501   5.112 -1.0061 -0.1827  0.0246
18372SOL    HW260437  10.249   2.422   4.984 -0.2981 -0.6000  0.1752
18373SOL     OW60438   0.030   7.351   4.084  0.6161 -0.1306 -0.3766
18373SOL    HW160439   0.026   7.256   4.079  0.4899 -0.1569  0.1752
18373SOL    HW260440   0.101   7.375   4.024  1.7014 -0.6815  0.6456
18374SOL     OW60441   5.953   0.379   7.202  0.7029 -0.3115 -0.1263
18374SOL    HW160442   5.988   0.308   7.255 -5.0740 -2.0781  2.1306
18374SOL    HW260443   5.916   0.335   7.125 -0.7955  0.5322  0.0758
18375SOL     OW60444   6.138   2.287   0.907  0.1522 -0.0387 -0.3734
18375SOL    HW160445   6.175   2.375   0.920  0.7489  0.0041 -2.0780
18375SOL    HW260446   6.211   2.235   0.873  0.0666 -1.5035  1.5381
18376SOL     OW60447   7.650   1.422   9.038  0.4158  0.0803  0.7089
18376SOL    HW160448   7.575   1.371   9.068 -0.1364  0.2569 -0.3393
18376SOL    HW260449   7.680   1.468   9.117  0.0105 -0.7078  1.3385
18377SOL     OW60450  11.435   6.553  11.096 -0.3511  0.0248  0.2316
18377SOL    HW160451  11.417   6.508  11.179  1.7804 -1.1270  0.1547
18377SOL    HW260452  11.418   6.645  11.114  0.7597 -0.1011  2.2199
18378SOL     OW60453   2.539   9.947   2.602  0.3615  0.9265 -0.2466
18378SOL    HW160454   2.585   9.868   2.573  0.6197  1.0027 -0.0553
18378SOL    HW260455   2.605  10.016   2.594  0.2601  1.0484 -0.0326
18379SOL     OW60456   3.553   1.287   2.044 -0.2139 -0.4824 -0.1585
18379SOL    HW160457   3.538   1.316   2.134  0.0173 -1.6262  0.2667
18379SOL    HW260458   3.477   1.232   2.024  0.1441 -0.9002 -0.3684
18380SOL     OW60459   4.481   3.981   1.540 -0.3092  0.4119  0.4179
18380SOL    HW160460   4.525   3.945   1.618 -1.5302  0.0152  0.9489
18380SOL    HW260461   4.537   4.054   1.513  1.4572 -0.9498  0.1846
18381SOL     OW60462   4.224   7.212  10.591 -0.1255 -0.4191 -0.2214
18381SOL    HW160463   4.319   7.213  10.595 -0.1375 -1.2256  0.4239
18381SOL    HW260464   4.201   7.120  10.580 -0.8324 -0.2328 -0.3593
18382SOL     OW60465  10.051  10.308  10.809  0.4138 -0.9106  0.1962
18382SOL    HW160466  10.124  10.330  10.867  0.1576  2.0425 -0.4111
18382SOL    HW260467   9.980  10.283  10.867  0.4563  1.0483  1.1765
18383SOL     OW60468  11.589   4.206   2.202  0.1378 -0.0852  0.2500
18383SOL    HW160469  11.680   4.179   2.214  0.0661 -0.0044  1.0353
18383SOL    HW260470  11.543   4.172   2.280 -0.7076 -0.9833 -0.6062
18384SOL     OW60471   2.504  10.279   4.761  0.2569 -0.5566 -0.0556
18384SOL    HW160472   2.452  10.346   4.805 -0.4900 -0.0046 -1.6824
18384SOL    HW260473   2.573  10.327   4.715  0.0675 -0.9432 -0.7650
18385SOL     OW60474   7.029   2.658   2.393 -0.2584 -0.5062  0.3621
18385SOL    HW160475   7.076   2.643   2.310 -0.8536 -1.3654  0.1618
18385SOL    HW260476   6.981   2.739   2.379  0.1020 -0.3399  0.0754
18386SOL     OW60477   1.400   4.307   2.454 -0.6777 -0.0764  0.2242
18386SOL    HW160478   1.466   4.365   2.416  0.5272 -0.9234  0.9271
18386SOL    HW260479   1.415   4.311   2.548 -1.1176 -0.8752  0.3412
18387SOL     OW60480  11.215   6.169   3.713 -0.3789 -0.0178 -0.1971
18387SOL    HW160481  11.156   6.139   3.782 -0.2697  0.5374  0.1512
18387SOL    HW260482  11.288   6.107   3.714  0.6777  1.1282  1.6543
18388SOL     OW60483   9.384   9.396   7.048 -0.0209  0.3796 -0.0285
18388SOL    HW160484   9.440   9.473   7.049  0.1787  0.2400  1.2468
18388SOL    HW260485   9.419   9.341   6.978  0.7742  0.7695  0.0569
18389SOL     OW60486   1.390   4.405  11.416  0.1370  0.4104 -1.1168
18389SOL    HW160487   1.448   4.398  11.492  0.8940  0.9658 -1.6257
18389SOL    HW260488   1.350   4.491  11.424  0.9611  0.8861 -1.8345
18390SOL     OW60489   6.325   4.482   6.858 -0.2872 -0.2719 -0.4326
18390SOL    HW160490   6.375   4.540   6.915 -1.0833  0.0968 -0.0979
18390SOL    HW260491   6.283   4.541   6.795 -1.1179 -0.4758 -0.0765
18391SOL     OW60492   9.419   1.746   3.162 -0.3589 -0.2724  0.3030
18391SOL    HW160493   9.420   1.710   3.073  0.7625 -1.4496  0.7656
18391SOL    HW260494   9.400   1.671   3.218 -2.5713  0.7334  0.9889
18392SOL     OW60495   2.373   1.156   1.131 -0.3687  0.2178  0.0129
18392SOL    HW160496   2.382   1.143   1.225 -0.7292  2.7217  0.4864
18392SOL    HW260497   2.444   1.107   1.092 -0.3550 -1.0598  1.5660
18393SOL     OW60498   3.237  10.091   8.116  0.3683 -0.4181  0.1276
18393SOL    HW160499   3.183  10.103   8.194  0.8427 -0.4108  0.4586
18393SOL    HW260500   3.285  10.173   8.107  1.5764 -1.0108  0.8192
18394SOL     OW60501   0.335   3.796   7.021  0.1483 -0.0675 -0.4622
18394SOL    HW160502   0.397   3.837   6.961 -1.2837  0.8838 -1.3506
18394SOL    HW260503   0.328   3.705   6.991  1.9801 -0.5551  0.4130
18395SOL     OW60504   2.172   6.232   9.550  0.1750  0.0711  0.3400
18395SOL    HW160505   2.261   6.196   9.542  0.2704  0.5555 -1.2396
18395SOL    HW260506   2.158   6.278   9.467 -0.2891  2.9344  1.9107
18396SOL     OW60507   0.354   0.071   5.343  0.0399  0.0863 -0.5736
18396SOL    HW160508   0.436   0.102   5.382  0.0452  0.9024 -1.2115
18396SOL    HW260509   0.303   0.040   5.418  1.5312 -1.9165 -0.3146
18397SOL     OW60510   6.636   9.132   8.471 -0.0686  0.2029 -0.6528
18397SOL    HW160511   6.578   9.085   8.531  1.0940 -1.0592 -0.4645
18397SOL    HW260512   6.627   9.085   8.388  1.3912 -0.6610 -0.3657
18398SOL     OW60513   3.549   5.723   8.667  0.0163  0.5159  0.3030
18398SOL    HW160514   3.570   5.688   8.581 -1.0688  1.2351 -0.2825
18398SOL    HW260515   3.453   5.717   8.672  0.0736  0.4417  1.4745
18399SOL     OW60516   9.471   0.920  10.900  0.1938 -0.0674  0.0109
18399SOL    HW160517   9.502   0.971  10.826  0.3683 -0.3984 -0.1499
18399SOL    HW260518   9.381   0.898  10.879  0.0115  0.4479  0.2327
18400SOL     OW60519   5.818  10.949   3.489  0.1422  0.2816  0.8518
18400SOL    HW160520   5.835  10.994   3.406  1.0721 -0.7700  0.4456
18400SOL    HW260521   5.725  10.962   3.505 -0.1244  0.2293 -0.5457
18401SOL     OW60522   9.272   5.551   3.550  0.2290 -0.2797 -0.9427
18401SOL    HW160523   9.256   5.466   3.509  0.0152 -1.1074  0.7908
18401SOL    HW260524   9.352   5.538   3.601  0.5503  0.7658 -1.1454
18402SOL     OW60525   9.312   1.392  10.948 -0.0663  0.3721 -0.0752
18402SOL    HW160526   9.255   1.321  10.919 -2.0869  1.4235  1.0961
18402SOL    HW260527   9.313   1.453  10.874  0.6987 -0.2735 -0.6186
18403SOL     OW60528   6.298  10.765   8.581 -0.3589  0.4452 -0.3030
18403SOL    HW160529   6.213  10.799   8.609 -0.8920 -0.6254 -0.5510
18403SOL    HW260530   6.317  10.811   8.499 -1.3592 -0.2530 -0.9589
18404SOL     OW60531  10.169   3.355   2.855  0.6381  0.2157  0.6055
18404SOL    HW160532  10.110   3.297   2.904  2.2594 -1.0425  1.1695
18404SOL    HW260533  10.118   3.383   2.779 -1.1866  0.4156  1.8520
18405SOL     OW60534   0.458   1.337   1.558 -0.4261 -0.4361  0.1979
18405SOL    HW160535   0.433   1.404   1.494  2.6823  2.8434  2.0331
18405SOL    HW260536   0.552   1.328   1.546 -0.0566 -1.0491  3.0563
18406SOL     OW60537   6.163   9.854   1.183 -0.8188  0.1491  0.0345
18406SOL    HW160538   6.165   9.798   1.261 -0.9046 -2.6705 -1.8424
18406SOL    HW260539   6.079   9.835   1.142 -0.3492  0.7879 -1.2737
18407SOL     OW60540   9.227   6.466   9.413 -0.3701  0.1083  0.4262
18407SOL    HW160541   9.270   6.438   9.494  0.4297  1.2653  0.4258
18407SOL    HW260542   9.270   6.548   9.390 -1.5932  0.5537 -0.3861
18408SOL     OW60543   7.406   9.051   7.295  0.4291 -0.3069 -0.0158
18408SOL    HW160544   7.456   8.972   7.314  1.7649  0.5672  0.2288
18408SOL    HW260545   7.389   9.090   7.381 -0.4801 -0.4685 -0.1153
18409SOL     OW60546   7.644   2.818   2.979 -0.7432  0.2434 -0.0660
18409SOL    HW160547   7.654   2.912   2.992  0.7637  0.2669 -1.0915
18409SOL    HW260548   7.559   2.809   2.936 -1.0919  1.0833  0.4201
18410SOL     OW60549   8.917   5.791   7.963 -0.1369  0.0515  0.3255
18410SOL    HW160550   8.847   5.772   7.902  1.3997  1.7777 -2.1796
18410SOL    HW260551   8.873   5.823   8.042 -2.1413  0.9254 -1.0839
18411SOL     OW60552   4.196   4.713   1.308  0.3543 -0.5822  0.5833
18411SOL    HW160553   4.196   4.678   1.397  2.5171 -2.4565 -0.0493
18411SOL    HW260554   4.222   4.804   1.318  0.8312 -0.8361  1.8411
18412SOL     OW60555  10.556  10.309   4.645 -0.1818  0.2439  0.5252
18412SOL    HW160556  10.560  10.405   4.644  1.3841  0.2482  1.9182
18412SOL    HW260557  10.468  10.289   4.676 -0.1697  1.2655  1.2798
18413SOL     OW60558  11.819   8.837   5.536 -0.1222 -0.3740  0.2895
18413SOL    HW160559  11.725   8.836   5.521 -0.2386 -0.6256  1.0201
18413SOL    HW260560  11.857   8.861   5.451 -0.9097  1.2226  0.3549
18414SOL     OW60561   4.669   2.322   9.434  0.1452 -0.1313 -0.1429
18414SOL    HW160562   4.582   2.330   9.395 -0.1494  0.7186  0.6354
18414SOL    HW260563   4.696   2.413   9.451  0.7330 -0.4277  0.5643
18415SOL     OW60564  11.750   5.168   8.928  0.0227  0.2781  0.7131
18415SOL    HW160565  11.692   5.107   8.974  0.8231  1.1038  2.9318
18415SOL    HW260566  11.837   5.129   8.934  0.2481  0.7289  0.4746
18416SOL     OW60567   5.289  10.766   5.239 -0.3116 -0.4636 -0.2676
18416SOL    HW160568   5.199  10.782   5.268  0.4613 -0.1697  2.2096
18416SOL    HW260569   5.317  10.849   5.200 -0.9569 -0.4174 -0.6431
18417SOL     OW60570   1.729   3.799  10.331  0.6746 -0.3479  0.5045
18417SOL    HW160571   1.686   3.814  10.415 -0.5466  1.9126 -0.4517
18417SOL    HW260572   1.659   3.772  10.272  1.3836 -1.1224 -0.0155
18418SOL     OW60573   7.587   3.155   6.309 -0.2488 -0.2945  0.1419
18418SOL    HW160574   7.578   3.060   6.303 -0.1748 -0.2239 -1.5605
18418SOL    HW260575   7.606   3.171   6.401 -0.5971 -1.8944  0.5297
18419SOL     OW60576   9.915   7.312   7.498 -0.0831  0.5742 -0.4019
18419SOL    HW160577   9.865   7.231   7.484  0.1537  0.0496  1.5809
18419SOL    HW260578   9.869   7.377   7.444  0.6692 -1.1488 -3.3817
18420SOL     OW60579   9.723  10.696   7.100 -0.0444 -0.4997 -0.4778
18420SOL    HW160580   9.780  10.644   7.044  0.3090 -0.9272  0.2672
18420SOL    HW260581   9.671  10.631   7.148 -0.9837 -0.1212 -0.9592
18421SOL     OW60582   2.477   2.627   1.309  0.3703  0.1264  0.4365
18421SOL    HW160583   2.452   2.627   1.402 -0.2231 -1.4075  0.3039
18421SOL    HW260584   2.556   2.572   1.306  0.3932  0.1803  0.0436
18422SOL     OW60585   7.301   4.991   1.478 -0.6421 -0.9616  0.3756
18422SOL    HW160586   7.319   4.897   1.483  1.8141 -0.5105  1.6974
18422SOL    HW260587   7.341   5.028   1.557 -0.5837  1.3210 -0.6273
18423SOL     OW60588   7.467   6.267  10.923 -0.4557 -0.5150  0.2544
18423SOL    HW160589   7.406   6.327  10.966  2.4505  2.6273  0.3613
18423SOL    HW260590   7.463   6.291  10.831  0.2196 -0.6774  0.1806
18424SOL     OW60591   8.145   9.327   0.093 -0.0258 -0.4140 -0.6519
18424SOL    HW160592   8.061   9.284   0.106 -0.5179  0.6644 -0.1009
18424SOL    HW260593   8.124   9.408   0.046  0.4311  0.7337  1.0159
18425SOL     OW60594   4.084   2.440   8.782 -0.4288  0.1111 -0.6838
18425SOL    HW160595   4.010   2.430   8.842 -0.6989 -1.7727 -1.2847
18425SOL    HW260596   4.133   2.514   8.818  0.2766 -1.8500  2.8129
18426SOL     OW60597   7.193   4.622   5.412  0.3118 -0.6127 -0.0026
18426SOL    HW160598   7.103   4.598   5.433 -0.3371  0.4448 -1.3884
18426SOL    HW260599   7.245   4.585   5.483 -0.9184 -3.3285 -0.3812
18427SOL     OW60600   9.223   9.053   9.662  0.3315 -0.2760  0.3482
18427SOL    HW160601   9.310   9.048   9.701  0.7709  0.0565 -0.5675
18427SOL    HW260602   9.165   9.076   9.735  0.9554 -0.8081  1.0243
18428SOL     OW60603   9.303  11.079   6.074  0.1738 -0.2445  0.2857
18428SOL    HW160604   9.243  11.004   6.067 -2.9636  1.8534  2.5260
18428SOL    HW260605   9.352  11.063   6.155  0.6644 -0.5469 -0.0562
18429SOL     OW60606   4.366   4.315   3.911  0.2546 -0.0917 -0.2618
18429SOL    HW160607   4.399   4.282   3.995  1.6210 -1.0582 -1.1397
18429SOL    HW260608   4.399   4.253   3.846 -1.6932  0.0073 -1.4366
18430SOL     OW60609   4.792   1.542   6.662 -0.0759  0.0803  0.2434
18430SOL    HW160610   4.790   1.611   6.595 -1.1338 -0.7428 -0.6123
18430SOL    HW260611   4.738   1.577   6.733  1.6103  1.2517  1.0286
18431SOL     OW60612  11.009  10.162   6.345  0.1027 -0.0957 -0.1904
18431SOL    HW160613  11.039  10.217   6.416  0.6516  2.8664 -2.5190
18431SOL    HW260614  10.927  10.202   6.316 -0.0255 -1.1207 -1.3360
18432SOL     OW60615   4.073   4.391   1.555 -0.6478 -0.5104  0.5782
18432SOL    HW160616   4.139   4.326   1.581 -0.0310 -0.2169 -0.1930
18432SOL    HW260617   4.114   4.476   1.573  0.3255 -0.2482 -2.3459
18433SOL     OW60618   1.872  11.617   5.331  0.2071  0.6018 -0.3491
18433SOL    HW160619   1.825  11.700   5.322  0.2168  0.9928  2.4457
18433SOL    HW260620   1.838  11.579   5.412  2.6879 -0.4550  0.2749
18434SOL     OW60621   3.871   2.454   8.957  0.7728 -0.7996  0.4302
18434SOL    HW160622   3.864   2.541   8.997  0.7302 -1.0853  1.0441
18434SOL    HW260623   3.783   2.418   8.962  1.1430 -1.5500  1.7032
18435SOL     OW60624   8.854   8.778   3.083 -0.0454 -0.2578 -0.5469
18435SOL    HW160625   8.786   8.838   3.112  2.7697  2.3932  1.1383
18435SOL    HW260626   8.873   8.724   3.160  1.0162  0.3211 -0.3921
18436SOL     OW60627   0.571   9.042   6.850 -0.0389 -0.1125  0.1659
18436SOL    HW160628   0.572   9.134   6.825  1.5076 -0.1339  0.0540
18436SOL    HW260629   0.526   8.998   6.777 -0.1593  0.4553 -0.1106
18437SOL     OW60630   6.710   6.396   0.064 -0.4365  0.7104  0.2682
18437SOL    HW160631   6.712   6.371   0.157  2.0101  0.8756  0.3317
18437SOL    HW260632   6.730   6.315   0.017 -0.0312  0.9557  0.0084
18438SOL     OW60633  10.588   4.594  10.378 -0.5913 -0.1683  0.1002
18438SOL    HW160634  10.599   4.513  10.328  1.0707  0.2870 -0.3477
18438SOL    HW260635  10.538   4.651  10.319 -0.0033 -0.1818 -0.4281
18439SOL     OW60636   0.206   6.937   1.063 -0.3152  0.2917  0.4574
18439SOL    HW160637   0.289   6.939   1.016 -0.6490  0.9106 -0.1302
18439SOL    HW260638   0.197   7.024   1.101  0.6247 -0.6191  2.9311
18440SOL     OW60639   8.939   7.483   7.626  0.4756  0.0348  0.2678
18440SOL    HW160640   8.903   7.465   7.539  2.0340  0.3129 -0.4630
18440SOL    HW260641   8.907   7.570   7.648  0.1856  0.0173 -0.0673
18441SOL     OW60642   3.396   8.269   9.349  0.1669 -0.1845 -0.1735
18441SOL    HW160643   3.327   8.275   9.282 -0.4507 -0.5831  0.4128
18441SOL    HW260644   3.469   8.319   9.312 -0.0568 -0.6300 -1.2700
18442SOL     OW60645   2.802  10.614   9.123  0.5497 -0.8767  0.0939
18442SOL    HW160646   2.807  10.680   9.192  0.2781  0.0631 -0.7701
18442SOL    HW260647   2.886  10.621   9.078  0.3669 -0.8512 -0.2432
18443SOL     OW60648   9.085   3.770   0.721  0.2166 -0.4242  0.0196
18443SOL    HW160649   9.159   3.717   0.692  2.1690  0.7020  2.5317
18443SOL    HW260650   9.098   3.855   0.679 -0.3753 -0.5710 -0.4796
18444SOL     OW60651   1.515   9.871   2.120 -0.4949  0.3896 -0.2079
18444SOL    HW160652   1.482   9.798   2.069  0.3273  0.2176 -0.5001
18444SOL    HW260653   1.456   9.944   2.099 -1.0543 -0.0674 -0.2424
18445SOL     OW60654   8.500   2.972   7.916  0.4513 -0.0105  0.0475
18445SOL    HW160655   8.566   3.032   7.881 -0.1800  0.6850  0.0200
18445SOL    HW260656   8.476   3.009   8.001 -0.5187  0.2446 -0.3139
18446SOL     OW60657   9.941  11.240   3.777  0.0441  0.6178  0.3380
18446SOL    HW160658   9.993  11.283   3.846  0.7902 -1.7887  1.3878
18446SOL    HW260659   9.996  11.167   3.748 -1.6508 -0.4067 -0.4316
18447SOL     OW60660   1.908   1.595   8.230  0.3697  0.0427  0.1233
18447SOL    HW160661   1.918   1.608   8.324 -2.3051  0.0837  0.4625
18447SOL    HW260662   1.948   1.673   8.191  0.5494  0.5422  1.2592
18448SOL     OW60663   7.427   3.163   2.971  0.1476 -0.1575 -0.3117
18448SOL    HW160664   7.484   3.093   3.003  2.8702  1.3127 -1.5475
18448SOL    HW260665   7.403   3.212   3.050 -0.0491 -1.2443  0.3203
18449SOL     OW60666   0.322  11.504  11.013 -0.1992 -0.1588 -0.2946
18449SOL    HW160667   0.414  11.492  10.990 -0.0076  1.2786 -0.3904
18449SOL    HW260668   0.275  11.495  10.930 -0.5457 -3.7892  0.1260
18450SOL     OW60669  10.736   4.831   2.336  0.1603 -0.0455  0.6522
18450SOL    HW160670  10.733   4.927   2.328 -0.6825 -0.1327 -0.2855
18450SOL    HW260671  10.653   4.808   2.377  0.5436 -0.3465  1.2627
18451SOL     OW60672   7.827  11.281   0.499  0.0369  0.1124 -0.2873
18451SOL    HW160673   7.867  11.261   0.415  1.5321 -0.8975  0.6099
18451SOL    HW260674   7.838  11.376   0.509  1.0024  0.0583 -0.6932
18452SOL     OW60675   7.659   4.017   9.701 -0.2288  0.3693 -0.2788
18452SOL    HW160676   7.710   4.097   9.690 -0.6991  0.7920  0.4815
18452SOL    HW260677   7.642   3.987   9.612  1.4114  0.1543 -0.5455
18453SOL     OW60678   4.124   9.429   2.894  0.6027  0.0718  0.1991
18453SOL    HW160679   4.053   9.377   2.855  1.3970 -0.7337 -0.1905
18453SOL    HW260680   4.201   9.407   2.842  1.4814 -0.2924  1.6197
18454SOL     OW60681   4.539  10.034   2.218  0.0327  0.0792 -0.5937
18454SOL    HW160682   4.484   9.957   2.205  0.7188 -0.5447  0.1063
18454SOL    HW260683   4.478  10.102   2.248 -0.1742 -1.1018  1.9719
18455SOL     OW60684  10.248   9.323   8.843 -0.1936  0.0053 -0.0788
18455SOL    HW160685  10.334   9.331   8.885 -0.2341 -1.0199  0.2164
18455SOL    HW260686  10.227   9.230   8.850 -1.9928  0.4652  1.1777
18456SOL     OW60687   2.583   4.836   6.761 -0.3912 -0.1836 -0.3212
18456SOL    HW160688   2.538   4.784   6.695 -1.6965  1.1502 -0.5334
18456SOL    HW260689   2.625   4.906   6.712  0.5014 -0.4410  0.0568
18457SOL     OW60690   4.228   5.767   0.720 -0.1716 -0.2452  0.8726
18457SOL    HW160691   4.198   5.723   0.640  1.7975 -0.2914  0.1089
18457SOL    HW260692   4.160   5.832   0.738 -0.0852  0.6412 -1.5821
18458SOL     OW60693   5.887  10.288   9.631  0.4444 -0.3793  0.3698
18458SOL    HW160694   5.937  10.225   9.579 -0.0519  0.5748 -1.3573
18458SOL    HW260695   5.824  10.234   9.679  0.5224 -1.2810 -0.5023
18459SOL     OW60696   1.471   2.244   6.476  0.2584 -0.9222  0.0153
18459SOL    HW160697   1.530   2.176   6.511  0.3674 -0.5576  0.5447
18459SOL    HW260698   1.530   2.310   6.440  0.2080 -2.4435 -3.2936
18460SOL     OW60699   2.345  11.789   9.311  0.1116  0.3194 -0.1234
18460SOL    HW160700   2.432  11.756   9.288 -0.1650 -0.5587  0.0438
18460SOL    HW260701   2.303  11.716   9.356  0.2697  1.6415  2.3090
18461SOL     OW60702   4.206  10.459   6.210 -0.2345 -0.1580 -0.3962
18461SOL    HW160703   4.221  10.381   6.263 -0.0050  0.2857  0.2018
18461SOL    HW260704   4.119  10.490   6.235 -0.8459 -0.9020 -1.5222
18462SOL     OW60705   1.602   6.873   7.388 -0.2907 -0.1270 -0.4773
18462SOL    HW160706   1.662   6.803   7.415  0.7921 -0.3674 -3.1902
18462SOL    HW260707   1.634   6.900   7.302 -1.4718  2.8409 -0.0852
18463SOL     OW60708  11.148   3.930   5.509 -0.5474  0.6893  0.5945
18463SOL    HW160709  11.214   3.885   5.562  0.3562 -0.0618 -1.0819
18463SOL    HW260710  11.185   3.930   5.420 -2.0665  1.7498 -0.0776
18464SOL     OW60711   8.531   6.931   0.572 -0.2611 -0.2782 -0.0018
18464SOL    HW160712   8.549   6.916   0.665  0.5670  0.0129 -0.1130
18464SOL    HW260713   8.547   6.846   0.531  0.1687 -0.2045  0.0075
18465SOL     OW60714   9.726  10.758  11.475  0.2991  0.2417  0.0169
18465SOL    HW160715   9.682  10.805  11.404  1.5617 -1.0309 -1.6866
18465SOL    HW260716   9.688  10.670  11.473  0.9921 -0.0722  0.3252
18466SOL     OW60717   4.913   7.596   2.307 -0.1622  0.1659 -0.4994
18466SOL    HW160718   4.832   7.587   2.357 -0.3327  0.8583 -0.6424
18466SOL    HW260719   4.894   7.551   2.224 -0.0776 -0.4749 -0.1762
18467SOL     OW60720  10.075   5.779   6.884  0.3084 -0.0055 -0.5247
18467SOL    HW160721  10.162   5.754   6.915 -0.0988  0.3710  1.0394
18467SOL    HW260722  10.073   5.875   6.892 -0.5144 -0.0704  0.2648
18468SOL     OW60723   8.277   3.853  10.402 -0.0825  0.0295 -0.8426
18468SOL    HW160724   8.247   3.762  10.407  0.4141 -0.2392 -2.3676
18468SOL    HW260725   8.372   3.847  10.412 -0.2357  0.7232  2.2465
18469SOL     OW60726   3.922   6.319   3.728 -0.1308  0.0089 -0.0901
18469SOL    HW160727   3.938   6.291   3.818 -1.0318 -0.9682 -0.2154
18469SOL    HW260728   3.997   6.374   3.706  0.6139 -0.5768  0.9082
18470SOL     OW60729   9.849   8.300  11.118  0.3178  0.3086  0.3793
18470SOL    HW160730   9.858   8.389  11.082 -0.2019 -0.0480 -0.6774
18470SOL    HW260731   9.938   8.266  11.120  0.3889  0.3969 -0.4706
18471SOL     OW60732   9.057   6.702   2.801 -0.0009 -0.4047  0.3562
18471SOL    HW160733   9.087   6.651   2.725 -0.6201  0.5991 -0.5957
18471SOL    HW260734   8.999   6.642   2.848 -0.6307 -0.6393 -0.6819
18472SOL     OW60735  11.384  11.006   2.952  0.2413  0.4455  0.1742
18472SOL    HW160736  11.298  10.970   2.932  0.4576 -0.2301  0.4030
18472SOL    HW260737  11.407  10.965   3.036  0.9531  0.3120 -0.0847
18473SOL     OW60738  11.075   5.373   9.164 -0.4437  0.9522  0.8649
18473SOL    HW160739  11.043   5.421   9.088 -0.1088  1.0961  0.8133
18473SOL    HW260740  10.995   5.345   9.210 -0.8711 -2.9487 -1.8161
18474SOL     OW60741   4.898   4.119   4.130  0.2330 -0.2656 -0.3103
18474SOL    HW160742   4.896   4.166   4.213 -4.0294  1.8507 -1.3078
18474SOL    HW260743   4.829   4.053   4.138  0.5125 -0.7766 -1.7936
18475SOL     OW60744   1.292   4.853   3.299 -0.3172  0.9748  0.1380
18475SOL    HW160745   1.211   4.849   3.350 -0.9403  0.6239 -0.8469
18475SOL    HW260746   1.274   4.800   3.221  1.9156 -1.7954  1.3384
18476SOL     OW60747   9.590   7.147   9.791 -0.2444 -0.8182 -0.4126
18476SOL    HW160748   9.528   7.179   9.856  0.5019 -0.8718  0.3424
18476SOL    HW260749   9.653   7.218   9.781 -1.6341  0.2225 -2.8881
18477SOL     OW60750  10.911   3.301   7.686  0.9693  0.1122  0.1493
18477SOL    HW160751  10.886   3.242   7.757  3.7245 -1.7342 -0.2558
18477SOL    HW260752  10.833   3.355   7.671 -0.3270 -0.6881  3.2556
18478SOL     OW60753   8.417   7.257   9.097  0.3277 -0.2883 -0.9510
18478SOL    HW160754   8.489   7.291   9.150 -0.3849  0.4215 -0.4198
18478SOL    HW260755   8.460   7.207   9.027  1.2947 -1.5601  0.4801
18479SOL     OW60756  11.051   7.857  10.543  0.3526 -0.2388  0.1017
18479SOL    HW160757  11.024   7.768  10.520 -0.1778 -0.2451  0.7301
18479SOL    HW260758  10.995   7.881  10.617  0.2165  0.7716 -0.3174
18480SOL     OW60759   1.226  11.716   5.114  0.2619  0.6523  0.0762
18480SOL    HW160760   1.147  11.765   5.091 -0.6356 -0.4506  0.6609
18480SOL    HW260761   1.262  11.687   5.031 -0.1777  0.8319 -0.1799
18481SOL     OW60762   0.882   7.519   4.486 -0.0705  0.3147 -0.6717
18481SOL    HW160763   0.929   7.564   4.415  0.7729  1.3450  0.4970
18481SOL    HW260764   0.825   7.586   4.524 -0.6227 -0.2625 -0.4615
18482SOL     OW60765   7.656   0.935   7.633  0.7348  0.3121  0.2384
18482SOL    HW160766   7.702   0.928   7.716  3.1659  1.1662 -0.9518
18482SOL    HW260767   7.653   0.845   7.600  2.4757  0.3480 -0.0942
18483SOL     OW60768   4.510  10.116   2.723  0.1171 -0.3613 -0.4857
18483SOL    HW160769   4.579  10.051   2.734  0.8171  0.6446  1.7191
18483SOL    HW260770   4.555  10.194   2.692 -0.4322 -0.3675 -1.3345
18484SOL     OW60771   8.970   4.036   8.712  0.0304 -1.0264 -0.3341
18484SOL    HW160772   9.052   3.989   8.694  2.1421  2.2811 -0.1396
18484SOL    HW260773   8.951   4.083   8.631 -1.1602 -0.9675 -0.0439
18485SOL     OW60774   8.344  11.234   8.388  0.7174 -0.6426 -0.2188
18485SOL    HW160775   8.390  11.188   8.318  2.1828  0.2562  0.1228
18485SOL    HW260776   8.336  11.324   8.357  2.4788  0.0611  1.2256
18486SOL     OW60777   9.797   1.820   6.880  0.6220  0.1794  0.1323
18486SOL    HW160778   9.870   1.852   6.827 -0.9376  0.8515 -1.7292
18486SOL    HW260779   9.798   1.876   6.958  1.0051  1.4107 -0.7192
18487SOL     OW60780   1.576  11.599   0.032 -0.5219  0.4564 -0.4026
18487SOL    HW160781   1.613  11.619   0.118 -1.0614  0.3538 -0.1431
18487SOL    HW260782   1.535  11.680   0.003 -4.8814 -0.6953  1.7321
18488SOL     OW60783   1.479   7.864   1.310 -0.2145  0.5844  0.0906
18488SOL    HW160784   1.395   7.835   1.346 -0.4507  1.6984  0.4832
18488SOL    HW260785   1.542   7.799   1.340 -0.5847  0.9101  1.6731
18489SOL     OW60786   0.449   2.779   9.370 -0.1517 -0.6964  0.0499
18489SOL    HW160787   0.380   2.765   9.306 -0.0152 -0.8526 -0.0646
18489SOL    HW260788   0.511   2.837   9.326 -0.5007 -0.0713  0.3657
18490SOL     OW60789   7.396   3.888   1.964  0.2070 -0.2408 -0.1047
18490SOL    HW160790   7.471   3.930   2.006  0.4247 -1.7675  1.1116
18490SOL    HW260791   7.416   3.795   1.965 -0.1845 -0.4447 -2.8849
18491SOL     OW60792   9.534   6.706   0.082  0.5193 -0.2696  0.8055
18491SOL    HW160793   9.458   6.711   0.024  0.4683  1.9380  0.9854
18491SOL    HW260794   9.513   6.636   0.143 -2.0420  1.1623  1.7200
18492SOL     OW60795  10.316  10.154   6.124 -0.2112  0.4412  0.1188
18492SOL    HW160796  10.233  10.130   6.166 -1.2693 -0.5845 -2.3682
18492SOL    HW260797  10.345  10.073   6.083  2.2447  0.7039  1.1800
18493SOL     OW60798   3.267   7.327   5.905  0.2994  0.3411 -0.6316
18493SOL    HW160799   3.203   7.393   5.877 -0.7569 -0.6597 -0.6594
18493SOL    HW260800   3.306   7.295   5.823  0.7918  0.9008 -0.6195
18494SOL     OW60801   9.802   9.561   8.307  0.6022  0.4128  0.3629
18494SOL    HW160802   9.884   9.522   8.339  1.0100  2.5630  2.1412
18494SOL    HW260803   9.812   9.560   8.211  1.5037 -1.7448  0.4060
18495SOL     OW60804   8.679   5.415  11.704 -0.3883  0.0317 -0.2471
18495SOL    HW160805   8.602   5.467  11.728  0.0161  0.1671  0.8221
18495SOL    HW260806   8.690   5.355  11.777  1.6893  1.3338  0.6013
18496SOL     OW60807   2.913   9.463   7.053 -0.0975  0.1952  0.2178
18496SOL    HW160808   2.929   9.555   7.070  1.0678  0.2178 -0.8133
18496SOL    HW260809   2.966   9.417   7.118 -1.4965  0.2151  1.4187
18497SOL     OW60810   9.095   0.333   5.381 -0.2940 -0.1897  0.5315
18497SOL    HW160811   9.022   0.394   5.369  0.1367  0.3603  0.6506
18497SOL    HW260812   9.055   0.253   5.416 -1.1284 -0.6525 -1.3824
18498SOL     OW60813   6.420   1.130   4.890 -0.3652 -0.3069 -0.0933
18498SOL    HW160814   6.352   1.196   4.883 -0.1912 -0.3339 -2.8946
18498SOL    HW260815   6.487   1.170   4.947 -0.4550  1.7681 -1.3691
18499SOL     OW60816   3.931   1.184   0.529  0.4334  0.7281 -0.0552
18499SOL    HW160817   3.997   1.132   0.484 -0.1150  0.8371 -1.0158
18499SOL    HW260818   3.925   1.145   0.616  0.9980  0.0542 -0.3105
18500SOL     OW60819   5.530   1.775   0.960 -0.3888  0.7131  0.3715
18500SOL    HW160820   5.493   1.846   0.907 -0.6821  1.3458  1.3856
18500SOL    HW260821   5.565   1.713   0.896  0.9937  2.3529 -0.5556
18501SOL     OW60822  10.800   1.874   5.300 -0.0671 -0.3556  0.0417
18501SOL    HW160823  10.793   1.952   5.244  0.1953  1.0066  1.8154
18501SOL    HW260824  10.715   1.869   5.344  0.2219 -0.5495  0.5840
18502SOL     OW60825   3.910  10.793   5.895  0.3201 -0.6812 -1.0721
18502SOL    HW160826   3.883  10.720   5.840 -1.3808 -0.4042 -0.6622
18502SOL    HW260827   3.907  10.869   5.836 -1.2740 -0.4227 -0.7071
18503SOL     OW60828   8.346   3.022   9.628  0.1317 -0.4219  0.0562
18503SOL    HW160829   8.370   2.944   9.677 -0.4537  0.3801  1.7114
18503SOL    HW260830   8.427   3.072   9.622  0.4069 -0.9356 -0.6079
18504SOL     OW60831   7.020   8.954   9.158 -0.3622  0.3680 -0.7455
18504SOL    HW160832   7.030   8.870   9.114 -0.5619 -0.1980  0.2591
18504SOL    HW260833   6.926   8.973   9.154 -0.2458  0.8494 -1.4885
18505SOL     OW60834   6.810   0.530  10.625 -0.2147 -0.3991 -0.4454
18505SOL    HW160835   6.846   0.612  10.594  1.6520 -1.1426 -0.3586
18505SOL    HW260836   6.747   0.556  10.693 -1.2162  1.0082 -1.8336
18506SOL     OW60837   3.520   5.601   4.219  0.5012 -0.4892 -0.1499
18506SOL    HW160838   3.447   5.541   4.202 -0.1800 -0.8069  3.1809
18506SOL    HW260839   3.518   5.663   4.146 -2.1018 -1.4335 -0.9922
18507SOL     OW60840   0.830   6.942   3.342 -0.5613 -0.2562  0.3140
18507SOL    HW160841   0.909   6.927   3.289  0.2268 -0.9888  1.6165
18507SOL    HW260842   0.790   7.020   3.304  1.3975  0.8153  0.2690
18508SOL     OW60843   7.721   1.823   1.940  0.0726  0.1249  0.3347
18508SOL    HW160844   7.652   1.790   1.883  0.4354  0.0185 -0.0496
18508SOL    HW260845   7.751   1.746   1.989 -1.2798  0.4794  1.8180
18509SOL     OW60846   8.030  11.720   7.132 -0.2565  0.3648 -0.3646
18509SOL    HW160847   8.042  11.625   7.126 -0.3332  0.3013  0.4740
18509SOL    HW260848   8.040  11.740   7.225  0.2072  1.2437 -0.5926
18510SOL     OW60849   3.028   5.275   8.180  0.1863 -0.3404  0.2352
18510SOL    HW160850   2.994   5.328   8.109 -0.1038 -1.4949 -0.5175
18510SOL    HW260851   2.961   5.280   8.248  0.0766  0.1063  0.0929
18511SOL     OW60852   3.262   2.121   5.506 -0.1739  0.2046  0.8844
18511SOL    HW160853   3.342   2.084   5.468 -0.1088  0.6355  0.6050
18511SOL    HW260854   3.293   2.177   5.577 -0.2830 -0.4032  1.4251
18512SOL     OW60855   8.471   1.961   1.238 -0.1170 -0.3886  0.0977
18512SOL    HW160856   8.498   1.870   1.227  0.2486 -0.1802 -0.8564
18512SOL    HW260857   8.403   1.973   1.171  0.5434  0.3123 -0.4587
18513SOL     OW60858   1.380   4.022   0.086  0.7063  0.5734  0.2118
18513SOL    HW160859   1.453   4.084   0.088  0.2786  1.0649  0.6966
18513SOL    HW260860   1.421   3.939   0.060  1.8054  0.3663  2.3594
18514SOL     OW60861   3.103  10.950   1.254  0.2090 -0.0812  0.4556
18514SOL    HW160862   3.176  10.933   1.314 -0.1580 -0.2475  0.8591
18514SOL    HW260863   3.098  11.046   1.250  1.5419 -0.0142 -0.9285
18515SOL     OW60864   1.264   7.863  10.901 -0.1785 -0.3845  0.6032
18515SOL    HW160865   1.307   7.917  10.834 -0.8808 -0.7853 -0.1864
18515SOL    HW260866   1.176   7.900  10.909 -0.1107 -0.3519  1.3060
18516SOL     OW60867   5.500   0.029   7.992 -0.3756  0.5971  0.2697
18516SOL    HW160868   5.451   0.006   7.913  1.1806  0.5900 -0.7171
18516SOL    HW260869   5.523  -0.056   8.031  1.1431  0.5021 -0.7409
18517SOL     OW60870   5.344   2.087   6.468  0.0896 -0.6014 -0.3636
18517SOL    HW160871   5.325   2.026   6.540  1.0318  1.1275  1.4583
18517SOL    HW260872   5.355   2.030   6.392 -0.2691 -2.5980  0.9666
18518SOL     OW60873  10.560  10.134   5.287 -0.1039  0.1920 -0.6603
18518SOL    HW160874  10.625  10.108   5.222  1.1851 -0.2960  0.7969
18518SOL    HW260875  10.584  10.224   5.310 -0.1299  0.1098 -0.3201
18519SOL     OW60876   0.608   0.799   2.281 -0.3652 -0.0435 -0.0614
18519SOL    HW160877   0.535   0.835   2.332  0.8568  0.9687  1.0567
18519SOL    HW260878   0.621   0.863   2.210 -0.9445 -0.5436 -0.6264
18520SOL     OW60879   5.420   3.617   9.042  0.2265  0.0899 -0.0575
18520SOL    HW160880   5.390   3.578   9.124  0.9873 -0.1441  0.1122
18520SOL    HW260881   5.339   3.644   8.998 -0.1768  0.6185  0.9643
18521SOL     OW60882  11.669   0.267   4.214 -0.7133  0.2748 -0.2973
18521SOL    HW160883  11.712   0.306   4.290 -0.1820 -0.2386 -0.3328
18521SOL    HW260884  11.699   0.176   4.213 -1.6612 -0.0544 -0.4199
18522SOL     OW60885   3.210   1.547  11.249 -0.1112 -0.3172 -0.0044
18522SOL    HW160886   3.146   1.505  11.306 -1.4562  1.8841  0.2388
18522SOL    HW260887   3.292   1.541  11.296 -0.2969 -2.2371  0.1827
18523SOL     OW60888   7.017   8.462   4.879 -0.3403 -0.0128  0.1210
18523SOL    HW160889   6.940   8.408   4.898 -1.3592  0.6996 -1.7487
18523SOL    HW260890   7.084   8.399   4.855 -0.0998 -0.6804  2.2754
18524SOL     OW60891   1.924   7.537   4.672  0.0233  0.0341  0.2436
18524SOL    HW160892   1.998   7.513   4.617 -1.9269 -1.0647 -2.1126
18524SOL    HW260893   1.943   7.626   4.701  2.1765 -0.1690 -0.3963
18525SOL     OW60894   7.852   3.346   8.643  0.0650  0.4094  0.1280
18525SOL    HW160895   7.888   3.259   8.663  0.6179  0.3870 -0.8526
18525SOL    HW260896   7.924   3.406   8.659  0.1210  0.5230 -0.5024
18526SOL     OW60897   5.373  10.656   9.621  0.4068 -0.4417 -0.2565
18526SOL    HW160898   5.307  10.589   9.638  0.6293 -0.7316 -0.5109
18526SOL    HW260899   5.330  10.738   9.642  0.7473 -0.7857  1.9535
18527SOL     OW60900   5.277   3.172   1.059 -0.3387 -0.0977 -0.0936
18527SOL    HW160901   5.260   3.206   1.147  1.9051  0.6537  0.1261
18527SOL    HW260902   5.245   3.240   1.000  0.8548  0.7826  0.2501
18528SOL     OW60903  10.299   6.291   7.697 -0.3956 -0.5396  0.5243
18528SOL    HW160904  10.242   6.257   7.765 -0.9237  1.6890  1.2683
18528SOL    HW260905  10.329   6.376   7.730  1.8418 -0.7753 -0.6799
18529SOL     OW60906   1.134   9.791  10.967 -0.0498  0.3671 -0.3473
18529SOL    HW160907   1.153   9.782  11.060 -1.0041 -0.8568 -0.2391
18529SOL    HW260908   1.143   9.702  10.933 -1.8090  0.4005 -0.9930
18530SOL     OW60909   4.952   0.364  11.761  0.1264 -0.2734 -0.1918
18530SOL    HW160910   5.031   0.327  11.799 -0.4868  0.7414  2.2597
18530SOL    HW260911   4.981   0.445  11.719  0.7801 -1.3122 -1.8583
18531SOL     OW60912   6.544   6.581   2.657  0.4929 -0.0016 -0.7198
18531SOL    HW160913   6.487   6.590   2.733  2.6882  1.7282  0.8613
18531SOL    HW260914   6.505   6.639   2.591 -0.8008 -0.6466 -0.5624
18532SOL     OW60915   2.322   4.913  10.681  0.3698  0.0737 -0.6600
18532SOL    HW160916   2.335   4.943  10.591  3.7590  0.0913 -0.3194
18532SOL    HW260917   2.411   4.897  10.713 -0.7658 -0.6173  2.4731
18533SOL     OW60918   7.602   0.814   0.528  0.1494 -0.1638  0.5502
18533SOL    HW160919   7.640   0.732   0.559  1.0051  0.1567  0.3671
18533SOL    HW260920   7.641   0.881   0.584 -1.4145  0.0399  1.4816
18534SOL     OW60921   7.557   2.931   9.910  0.3709 -0.2729  0.1058
18534SOL    HW160922   7.642   2.975   9.910  0.3480 -0.1622  1.6626
18534SOL    HW260923   7.505   2.980   9.974 -0.6669 -0.7060 -0.3875
18535SOL     OW60924   8.711  11.567   0.056  0.1911 -0.3393  0.4266
18535SOL    HW160925   8.720  11.623   0.134  1.3354 -0.9727  0.7688
18535SOL    HW260926   8.630  11.597   0.015 -0.7958 -0.4061  2.2002
18536SOL     OW60927   9.903  11.086   7.271  0.5196 -0.1568 -0.1352
18536SOL    HW160928   9.935  11.089   7.362  0.7001  1.6375 -0.2275
18536SOL    HW260929   9.968  11.033   7.225  0.3203 -1.2552  0.8125
18537SOL     OW60930  11.101   2.333   7.626  0.8095  0.8578 -0.5906
18537SOL    HW160931  11.133   2.261   7.571  2.5600 -0.5000  2.0007
18537SOL    HW260932  11.019   2.300   7.662  0.9537  0.6836 -0.4181
18538SOL     OW60933   5.686   4.104   0.362 -0.5444 -0.1212  0.4489
18538SOL    HW160934   5.660   4.108   0.454 -0.2123 -2.0907  0.6752
18538SOL    HW260935   5.658   4.017   0.332 -1.5159  0.8241 -1.6146
18539SOL     OW60936   1.613   8.122   5.999  0.4258  0.8358  0.4402
18539SOL    HW160937   1.524   8.155   6.014 -0.7353 -0.5939 -2.5542
18539SOL    HW260938   1.623   8.052   6.065 -1.7608 -0.7362 -0.7572
18540SOL     OW60939  11.578  11.194   4.534 -0.6182 -0.0832  0.6101
18540SOL    HW160940  11.564  11.276   4.487  0.5171 -0.8557 -1.2230
18540SOL    HW260941  11.655  11.155   4.491 -1.7626 -2.5900  0.6570
18541SOL     OW60942   6.885   9.907  10.699  0.0476  0.1459  0.3637
18541SOL    HW160943   6.917   9.821  10.673 -0.5805  0.3761 -1.3075
18541SOL    HW260944   6.952   9.968  10.669  0.7503  0.2503  2.0162
18542SOL     OW60945   0.070   0.123   0.958  0.5867  0.0485 -0.1085
18542SOL    HW160946   0.011   0.058   0.998  1.1229 -1.2565 -1.3529
18542SOL    HW260947   0.125   0.152   1.031  0.5310 -1.1265  0.4354
18543SOL     OW60948   0.659  11.637   6.438  0.0908 -0.1362 -0.3601
18543SOL    HW160949   0.744  11.630   6.483 -0.1994  0.1589  0.2473
18543SOL    HW260950   0.676  11.605   6.349  0.5677 -1.1786  0.0864
18544SOL     OW60951   7.388   3.040  10.859  0.1771 -0.5550  0.7163
18544SOL    HW160952   7.411   2.948  10.868  0.8706 -0.4370  0.2271
18544SOL    HW260953   7.464   3.088  10.894 -0.8289 -0.1620  2.4703
18545SOL     OW60954  11.797   7.095   6.098 -0.0640 -0.4491 -0.0734
18545SOL    HW160955  11.819   7.151   6.024 -1.0038  1.1289  0.7655
18545SOL    HW260956  11.702   7.084   6.092 -0.2814  0.3836  1.2982
18546SOL     OW60957  11.585  11.008   2.785  0.4070  0.0707  0.2805
18546SOL    HW160958  11.511  10.999   2.844  0.6505  1.1573  0.7638
18546SOL    HW260959  11.660  10.980   2.836  0.6085  0.9480  0.4818
18547SOL     OW60960  10.769   7.376   4.855 -0.0273  0.3834 -0.1071
18547SOL    HW160961  10.828   7.372   4.780  0.5321 -1.7942  0.3655
18547SOL    HW260962  10.735   7.465   4.855 -0.5728  0.2766 -3.3277
18548SOL     OW60963   4.836   8.135   1.906  0.5430  0.2943 -0.5748
18548SOL    HW160964   4.819   8.214   1.956 -0.8777  2.2680 -3.8670
18548SOL    HW260965   4.916   8.154   1.856 -0.3183  0.0857 -2.0945
18549SOL     OW60966   9.221   0.098   5.008  0.4092 -0.7530  0.3363
18549SOL    HW160967   9.169   0.038   4.955  0.2706 -1.3410  1.1254
18549SOL    HW260968   9.204   0.072   5.098  0.4634  0.3806  0.6904
18550SOL     OW60969   7.193   3.175   9.954 -0.3629 -0.3694  0.2416
18550SOL    HW160970   7.202   3.101  10.015  1.6586  0.0093  0.4603
18550SOL    HW260971   7.217   3.139   9.869 -0.8014 -0.3115  0.0932
18551SOL     OW60972   1.724   4.934  10.194 -0.4177 -0.2185 -0.2926
18551SOL    HW160973   1.702   5.021  10.229  0.0482 -0.4334  0.5650
18551SOL    HW260974   1.805   4.949  10.145 -0.0224 -0.2617  0.3313
18552SOL     OW60975   8.804   4.926   3.009  0.4176  0.1861 -0.1486
18552SOL    HW160976   8.846   4.864   2.950 -0.6972 -0.0372 -0.7203
18552SOL    HW260977   8.857   5.006   3.001  0.9768 -0.2154 -0.5343
18553SOL     OW60978   4.983  10.252   3.133  0.1358  0.2299 -0.1762
18553SOL    HW160979   4.979  10.158   3.149 -0.2781  0.7104  3.0703
18553SOL    HW260980   4.951  10.292   3.213 -2.7810  3.1693 -2.5355
18554SOL     OW60981   6.046   9.778   6.503 -0.0383 -0.4871 -0.1950
18554SOL    HW160982   6.124   9.793   6.450 -0.1885  1.2114  0.0012
18554SOL    HW260983   6.022   9.865   6.536 -0.6404 -1.3193  1.7010
18555SOL     OW60984   7.178   6.429   2.943 -0.1636  0.1876 -0.0681
18555SOL    HW160985   7.222   6.381   2.873 -0.0824 -0.2692  0.2912
18555SOL    HW260986   7.243   6.492   2.973  0.2957 -0.5658  0.5424
18556SOL     OW60987  11.362   4.062   7.657 -0.0002  0.0033  0.3507
18556SOL    HW160988  11.347   4.156   7.650 -0.6607 -0.2419 -2.4040
18556SOL    HW260989  11.293   4.023   7.604  0.8103 -2.0086  0.7066
18557SOL     OW60990   7.752   0.731   4.094 -0.6287 -0.6288 -0.0945
18557SOL    HW160991   7.665   0.771   4.100 -1.0937 -1.7463  0.9061
18557SOL    HW260992   7.812   0.806   4.090 -1.5941  0.1605 -0.4539
18558SOL     OW60993   7.691  11.326  11.230  0.0320  0.4050  0.0181
18558SOL    HW160994   7.726  11.405  11.271 -1.5681  1.4109 -0.4581
18558SOL    HW260995   7.758  11.259  11.245 -0.3491  0.6917  4.1473
18559SOL     OW60996   3.156  10.043   7.481 -0.3142 -0.0453 -0.4611
18559SOL    HW160997   3.138  10.093   7.560 -3.1888  0.7400 -1.4623
18559SOL    HW260998   3.093   9.971   7.483  0.9507 -1.1992 -1.0592
18560SOL     OW60999  10.494  10.072   5.623 -0.1662  0.3687  0.0924
18560SOL    HW161000  10.415  10.125   5.615  0.0730  0.7410  0.1876
18560SOL    HW261001  10.470  10.001   5.682 -0.4282  0.4847  0.1235
18561SOL     OW61002   9.860  10.204   1.160 -0.3907  0.1209 -0.2317
18561SOL    HW161003   9.911  10.166   1.088  0.0285 -0.8107  0.5266
18561SOL    HW261004   9.878  10.297   1.155 -1.6673  0.3264 -2.3286
18562SOL     OW61005   4.120   0.403   7.885  0.4480 -0.4140  0.6336
18562SOL    HW161006   4.201   0.454   7.886  1.4062 -1.8103 -0.6660
18562SOL    HW261007   4.057   0.460   7.841  1.6341 -0.4359 -1.2459
18563SOL     OW61008   5.774   8.767   4.602  0.3607 -0.5665 -0.2403
18563SOL    HW161009   5.778   8.802   4.513 -0.0729 -0.0175 -0.0519
18563SOL    HW261010   5.708   8.698   4.598 -1.0436  0.6965  0.0399
18564SOL     OW61011   4.741  11.742   2.085 -0.2205  0.3578  0.3145
18564SOL    HW161012   4.651  11.733   2.055 -0.5381  0.9185  1.0713
18564SOL    HW261013   4.785  11.792   2.016 -0.4965  0.1215 -0.0332
18565SOL     OW61014   7.688   2.037   7.382 -0.1452 -0.6423  0.0510
18565SOL    HW161015   7.720   2.106   7.324 -0.3751 -1.1343 -0.6776
18565SOL    HW261016   7.643   1.976   7.324 -0.1264 -1.3003  0.7107
18566SOL     OW61017   0.489  11.527   5.305  0.0518 -0.1431  0.1265
18566SOL    HW161018   0.521  11.576   5.381  1.9160  0.6449 -1.1021
18566SOL    HW261019   0.395  11.521   5.319 -0.0327  2.3260  1.1885
18567SOL     OW61020  11.176   8.856   2.663 -0.2513  0.2633 -0.4610
18567SOL    HW161021  11.239   8.822   2.726 -1.2574 -0.2657  0.2823
18567SOL    HW261022  11.159   8.782   2.604 -1.4622 -0.1704  0.3843
18568SOL     OW61023   6.705   2.207   5.012 -0.1653 -0.1594  0.7299
18568SOL    HW161024   6.794   2.210   5.046  0.0059 -1.2370  0.4226
18568SOL    HW261025   6.712   2.233   4.920 -0.3228  0.6993  0.9493
18569SOL     OW61026   8.185   7.435   3.988 -0.2705 -0.0247 -0.2137
18569SOL    HW161027   8.187   7.409   4.080 -0.5623  1.0418  0.1068
18569SOL    HW261028   8.273   7.466   3.969 -0.7571  1.8738  0.3720
18570SOL     OW61029   3.961   6.314  11.364 -0.4276  0.5534 -0.1561
18570SOL    HW161030   4.055   6.312  11.381 -0.7055 -0.6550  1.5467
18570SOL    HW261031   3.939   6.407  11.359  0.5763  0.8945  1.2505
18571SOL     OW61032   1.684   6.720   7.916  0.1976  0.1082  0.5143
18571SOL    HW161033   1.726   6.635   7.900  1.0215  0.9501 -2.4278
18571SOL    HW261034   1.598   6.712   7.875  0.6172  0.9157 -0.5784
18572SOL     OW61035   9.838   4.794   0.294  0.0386  0.1215  0.4659
18572SOL    HW161036   9.885   4.869   0.332  1.6001  0.3025 -1.6600
18572SOL    HW261037   9.903   4.724   0.291 -1.5389 -1.5937  2.8929
18573SOL     OW61038   7.074   1.504  10.478 -0.2530 -0.3827  0.3225
18573SOL    HW161039   7.152   1.534  10.431  0.6076 -1.2868  1.1304
18573SOL    HW261040   7.002   1.552  10.437  0.5411 -0.5940 -1.4362
18574SOL     OW61041   2.807   6.324   7.251  0.3224 -0.0992  0.0030
18574SOL    HW161042   2.847   6.246   7.291  1.2336  0.9758  1.3151
18574SOL    HW261043   2.858   6.338   7.171  0.8022 -0.2950  0.2672
18575SOL     OW61044   4.856   6.608   3.232  0.3638  0.1249  0.3151
18575SOL    HW161045   4.911   6.572   3.162  0.7349  2.5660 -0.7618
18575SOL    HW261046   4.886   6.564   3.312  0.2282 -2.4197 -0.9505
18576SOL     OW61047  10.846   4.975   2.717  0.0373 -0.4946 -0.2484
18576SOL    HW161048  10.896   4.895   2.734  0.2381 -0.4426 -0.5939
18576SOL    HW261049  10.822   4.969   2.624  1.7750  0.8043 -0.8285
18577SOL     OW61050   7.575   9.668   4.937  0.0440 -0.8197 -0.0074
18577SOL    HW161051   7.495   9.720   4.942 -0.2605 -1.2033 -0.6973
18577SOL    HW261052   7.544   9.578   4.925  0.5731 -1.0759  0.5240
18578SOL     OW61053   8.390   6.423   2.462 -0.0999  0.8229 -0.5952
18578SOL    HW161054   8.363   6.332   2.446  0.2339  0.5499  0.3387
18578SOL    HW261055   8.335   6.452   2.534  2.3870  0.0514  1.7788
18579SOL     OW61056   7.606   4.493   2.007  0.0743 -0.5540 -0.3271
18579SOL    HW161057   7.693   4.454   2.022 -1.0748 -2.9918  0.4770
18579SOL    HW261058   7.546   4.434   2.051 -1.9035  1.9563  0.5670
18580SOL     OW61059   6.517   4.704   6.976  0.0363  0.7718  0.0304
18580SOL    HW161060   6.540   4.718   7.068  2.6212 -1.4788 -0.1634
18580SOL    HW261061   6.574   4.765   6.928  2.0897 -1.1667 -0.1864
18581SOL     OW61062   8.869   5.632   7.305 -0.1989 -0.1470 -0.1561
18581SOL    HW161063   8.915   5.711   7.335 -1.7929  0.4086  0.9622
18581SOL    HW261064   8.824   5.599   7.383 -0.2537 -1.6849 -0.8105
18582SOL     OW61065   5.869   0.804   4.967 -0.4014 -0.3833  0.1413
18582SOL    HW161066   5.959   0.832   4.953  0.0702 -1.2190  1.3009
18582SOL    HW261067   5.829   0.873   5.021 -0.7720  0.4710 -1.1943
18583SOL     OW61068   3.752   4.148   1.448  0.3188 -0.4966 -0.2242
18583SOL    HW161069   3.835   4.113   1.479  0.6521  1.3595  1.1678
18583SOL    HW261070   3.775   4.229   1.403 -0.7506  0.3189  0.6292
18584SOL     OW61071   8.455   4.667   2.572  0.2968 -0.2937 -0.2795
18584SOL    HW161072   8.393   4.704   2.510 -0.8898 -2.3940 -0.4432
18584SOL    HW261073   8.526   4.633   2.517  0.4018 -0.0749 -0.2820
18585SOL     OW61074   2.544   1.559   5.930 -0.3083  0.0926  0.1522
18585SOL    HW161075   2.637   1.543   5.914 -0.4130  0.7316 -1.3550
18585SOL    HW261076   2.502   1.475   5.913 -0.2780  0.4585 -2.1718
18586SOL     OW61077   5.967   1.525  10.221 -0.9545  0.0228  0.2761
18586SOL    HW161078   5.984   1.433  10.203 -1.5370 -0.0539  0.0804
18586SOL    HW261079   5.875   1.537  10.198 -0.3854  1.1331 -1.6549
18587SOL     OW61080   9.592   4.752   2.304 -0.0979  0.3460 -0.3344
18587SOL    HW161081   9.498   4.744   2.316 -0.1862  0.6778 -0.7875
18587SOL    HW261082   9.618   4.669   2.262 -0.2913  0.5139 -0.7969
18588SOL     OW61083   0.209   7.283   8.217 -0.0405 -0.4923  0.2311
18588SOL    HW161084   0.144   7.255   8.153  0.1948  0.1637 -0.3009
18588SOL    HW261085   0.281   7.221   8.208 -0.2900 -0.7953  0.3253
18589SOL     OW61086   3.049   8.051   8.342  0.5771  0.1992 -0.3170
18589SOL    HW161087   3.009   8.097   8.268 -0.8515  1.0935  0.9403
18589SOL    HW261088   3.112   7.991   8.302 -1.8333 -1.1134 -2.4153
18590SOL     OW61089   5.775   2.206   8.676 -0.0515 -0.4567  0.0206
18590SOL    HW161090   5.712   2.143   8.712  0.0299 -0.2461  0.5457
18590SOL    HW261091   5.797   2.263   8.750  0.0285  0.0677 -0.3979
18591SOL     OW61092   8.252   9.424   0.370  0.4859 -0.3512 -0.5222
18591SOL    HW161093   8.159   9.411   0.350  0.2692 -0.4718  0.4813
18591SOL    HW261094   8.275   9.505   0.325  0.0771 -0.6936 -1.3586
18592SOL     OW61095   9.560   9.139   7.072  0.4547  0.2180 -1.0713
18592SOL    HW161096   9.608   9.056   7.066  0.2921  0.0637 -0.2874
18592SOL    HW261097   9.501   9.137   6.996  0.1007 -0.6137 -0.7875
18593SOL     OW61098   2.057   0.068   9.624  0.4511  0.5815  0.6800
18593SOL    HW161099   2.114   0.143   9.607  0.3903  0.4466 -0.1712
18593SOL    HW261100   1.969   0.105   9.625  0.3758  0.4514 -0.2786
18594SOL     OW61101  11.526   3.256   5.312  0.0851 -0.1399 -0.3831
18594SOL    HW161102  11.539   3.182   5.253 -1.0210 -0.4198 -0.3062
18594SOL    HW261103  11.434   3.281   5.299  0.0905  0.4064  0.5224
18595SOL     OW61104  11.567   1.571   5.300 -0.2359 -0.2927  0.0410
18595SOL    HW161105  11.507   1.568   5.375 -0.9527  1.1788 -0.4399
18595SOL    HW261106  11.619   1.650   5.314  0.3923 -0.6015 -0.4698
18596SOL     OW61107   5.325   0.180   7.115  0.2611  0.0476  0.3051
18596SOL    HW161108   5.287   0.096   7.089 -0.6057  1.1954 -2.5519
18596SOL    HW261109   5.287   0.199   7.201 -2.2794 -0.8784 -0.5504
18597SOL     OW61110   4.636  10.681  10.447  0.0114 -0.4836  0.2860
18597SOL    HW161111   4.552  10.640  10.469  0.9215 -2.1139  0.9535
18597SOL    HW261112   4.702  10.625  10.489  1.4826  0.3392 -0.8003
18598SOL     OW61113   5.084   5.918   3.429  0.4700 -0.1147 -0.2507
18598SOL    HW161114   5.117   5.951   3.512  1.7228 -0.9341 -0.4021
18598SOL    HW261115   5.109   5.985   3.365  0.9132 -0.2324 -0.2029
18599SOL     OW61116   1.828   8.897   1.532 -0.6220  0.4199  0.2244
18599SOL    HW161117   1.896   8.948   1.576 -0.5117  0.1800  0.3330
18599SOL    HW261118   1.774   8.963   1.487  1.7701  0.4976 -2.9264
18600SOL     OW61119   7.090   2.340   0.846  0.6434  0.1645  0.6548
18600SOL    HW161120   7.001   2.306   0.833  1.2812 -1.1836 -0.5802
18600SOL    HW261121   7.079   2.418   0.899 -1.6528  1.9885 -2.1888
18601SOL     OW61122   1.873  10.388   0.679 -0.2603  0.5238 -0.1429
18601SOL    HW161123   1.787  10.350   0.692  0.4476 -0.6771  1.3648
18601SOL    HW261124   1.926  10.317   0.643  0.5027  0.7521  0.4995
18602SOL     OW61125   2.358   5.539   7.603  0.2631 -0.1209  0.2508
18602SOL    HW161126   2.357   5.585   7.519 -0.4644  2.8119  1.7297
18602SOL    HW261127   2.450   5.513   7.615  0.7152  0.9762 -0.6646
18603SOL     OW61128   9.533   6.485   5.008  0.0172  0.0179  0.0055
18603SOL    HW161129   9.591   6.554   4.976  0.2302  0.7808  1.8962
18603SOL    HW261130   9.585   6.436   5.071 -0.3479 -1.4988 -0.8187
18604SOL     OW61131   8.372   3.436   6.441 -0.4679 -0.6499  0.0898
18604SOL    HW161132   8.426   3.390   6.505  0.1577  0.5841  0.4929
18604SOL    HW261133   8.428   3.509   6.412 -1.5021 -0.0097 -0.3325
18605SOL     OW61134   4.877  11.260   4.412  0.2304 -0.4062 -0.1845
18605SOL    HW161135   4.882  11.321   4.339  2.0297 -0.9518 -0.5724
18605SOL    HW261136   4.798  11.209   4.396 -0.2647  0.5497 -0.8678
18606SOL     OW61137   9.234   3.014   1.628 -0.4836  0.6090 -0.3233
18606SOL    HW161138   9.312   2.995   1.576 -0.4429  1.0289 -0.4227
18606SOL    HW261139   9.182   3.071   1.571 -0.4314  1.0840  0.1078
18607SOL     OW61140  10.091  11.030   3.677  0.3283 -0.1891 -0.4875
18607SOL    HW161141  10.134  11.013   3.761  0.4629 -0.2104 -0.5602
18607SOL    HW261142  10.161  11.019   3.612  0.8272  2.2435 -0.4246
18608SOL     OW61143   9.600   2.445   3.370  0.1150 -0.7984  0.0526
18608SOL    HW161144   9.550   2.494   3.306  2.6397  0.6550 -0.9484
18608SOL    HW261145   9.603   2.356   3.335  0.2990 -0.3374 -1.1490
18609SOL     OW61146   7.939  11.790  11.377 -0.3898 -0.0597  0.3996
18609SOL    HW161147   7.971  11.705  11.347 -0.6400 -0.1306  0.3308
18609SOL    HW261148   7.983  11.853  11.320  0.1417 -0.1171  0.7498
18610SOL     OW61149   5.642   7.722   2.580 -0.4705 -0.1382  1.0182
18610SOL    HW161150   5.682   7.638   2.558  1.7854  1.1438 -0.1189
18610SOL    HW261151   5.567   7.730   2.522 -1.0866 -1.5930  1.5687
18611SOL     OW61152   8.868  10.337   0.564  0.0811 -0.7727  0.3232
18611SOL    HW161153   8.793  10.317   0.508 -0.0151  1.1121 -0.2921
18611SOL    HW261154   8.942  10.295   0.522 -0.1936 -0.3810 -0.5713
18612SOL     OW61155  10.696   1.728   8.428  0.1683 -0.1908  0.1347
18612SOL    HW161156  10.713   1.667   8.500 -0.7497  0.2381  0.7279
18612SOL    HW261157  10.711   1.814   8.465  2.5019 -0.0458 -0.9887
18613SOL     OW61158   9.487   7.638   7.956 -0.3023  0.2637 -0.2764
18613SOL    HW161159   9.442   7.722   7.942  2.3158  1.8841  0.3410
18613SOL    HW261160   9.476   7.620   8.049  0.8237  1.0249  0.0243
18614SOL     OW61161   0.820   8.336   0.487  0.0730 -0.2134  0.4519
18614SOL    HW161162   0.869   8.279   0.546  0.0569  0.2560  0.9284
18614SOL    HW261163   0.788   8.406   0.543 -3.0524 -1.6207  0.6395
18615SOL     OW61164   0.970   9.614   8.678 -0.1720 -0.6880  0.3903
18615SOL    HW161165   0.987   9.702   8.643 -3.6259 -1.0280 -2.6817
18615SOL    HW261166   1.057   9.572   8.680  1.2406  1.9770 -0.3318
18616SOL     OW61167   7.507   1.706   2.412  0.0622 -0.5400 -0.2526
18616SOL    HW161168   7.581   1.659   2.451  0.7750  1.4678  0.9723
18616SOL    HW261169   7.547   1.765   2.348 -0.5570 -0.0048 -0.1554
18617SOL     OW61170   9.991   1.566   2.545  0.2062  0.0752 -0.1997
18617SOL    HW161171   9.925   1.550   2.478 -0.6523 -0.4156  0.7380
18617SOL    HW261172  10.072   1.533   2.507 -0.2755 -0.2443 -0.9758
18618SOL     OW61173   8.791  10.025   6.261 -0.5684  0.3580  0.3886
18618SOL    HW161174   8.828   9.979   6.186  1.7445  0.9979  1.0377
18618SOL    HW261175   8.867  10.058   6.308 -2.0356  3.4806  0.8160
18619SOL     OW61176   3.226   8.038   3.673  0.0434 -0.0357  0.1929
18619SOL    HW161177   3.162   8.003   3.611 -0.3591  1.6491 -0.3754
18619SOL    HW261178   3.305   8.053   3.621 -0.3713  1.6138 -0.0007
18620SOL     OW61179   3.570   0.648   7.695  0.1867 -0.3930 -0.8152
18620SOL    HW161180   3.644   0.707   7.679 -0.2606  0.3922 -0.0809
18620SOL    HW261181   3.554   0.607   7.610  3.7093 -3.3178 -0.2883
18621SOL     OW61182   2.086   0.956   7.779 -0.2082  0.2800  0.2089
18621SOL    HW161183   2.102   0.863   7.765 -0.4085  0.3557 -0.5872
18621SOL    HW261184   2.136   0.978   7.857  3.3335  0.4155 -1.8798
18622SOL     OW61185   6.608   0.439  10.961  1.1901 -0.0098 -0.1150
18622SOL    HW161186   6.644   0.369  10.907  0.4207  0.4922 -1.3395
18622SOL    HW261187   6.582   0.506  10.898  0.6029  0.7708  0.9231
18623SOL     OW61188  11.727   8.266   2.211 -0.7461  0.1837 -0.4011
18623SOL    HW161189  11.801   8.280   2.269  0.2922  1.3115 -1.9290
18623SOL    HW261190  11.711   8.171   2.215  1.4683 -0.2618 -0.8615
18624SOL     OW61191   6.168   2.813   1.111  0.5045 -0.3026  0.1245
18624SOL    HW161192   6.237   2.747   1.105  0.9869  0.1847  0.2696
18624SOL    HW261193   6.171   2.844   1.201  0.2109 -0.1567  0.0859
18625SOL     OW61194  10.008   6.912   0.004 -0.1188 -0.1966  0.1321
18625SOL    HW161195  10.002   7.004  -0.019  1.4459  0.2645  1.4111
18625SOL    HW261196   9.920   6.877  -0.013 -1.1954  1.8836  1.0650
18626SOL     OW61197   6.974   4.000   1.215 -0.4542 -0.2912  0.1380
18626SOL    HW161198   6.879   3.992   1.208 -0.2636 -1.8117 -1.0376
18626SOL    HW261199   6.997   3.950   1.293 -0.5623 -0.2528  0.1948
18627SOL     OW61200   0.289   9.585   2.557 -0.0529 -0.0867  0.2670
18627SOL    HW161201   0.321   9.594   2.467  1.6758 -1.0411  0.7507
18627SOL    HW261202   0.240   9.503   2.556 -2.3612  1.2140 -0.3940
18628SOL     OW61203   1.033   9.423  11.606  0.2119  0.1644  0.2665
18628SOL    HW161204   1.041   9.340  11.653  1.0570 -0.2512 -0.6002
18628SOL    HW261205   0.938   9.436  11.597  0.0774 -1.2621 -0.5693
18629SOL     OW61206   9.286   2.306   5.704  0.3728 -0.0504  0.1799
18629SOL    HW161207   9.295   2.245   5.777  0.3037 -2.5522 -1.7607
18629SOL    HW261208   9.195   2.298   5.677  0.1644  1.5213  0.3237
18630SOL     OW61209  10.042   6.947   7.781 -0.4461  0.4033 -0.5342
18630SOL    HW161210  10.109   6.900   7.831  0.3630  1.5168 -0.5312
18630SOL    HW261211   9.977   6.880   7.759 -0.4641 -0.2821  1.3614
18631SOL     OW61212   2.653   2.869   4.671 -0.0668 -1.1070  0.2031
18631SOL    HW161213   2.629   2.776   4.678 -2.1220 -0.5195  1.8421
18631SOL    HW261214   2.624   2.908   4.754 -2.2694  1.6250 -1.6619
18632SOL     OW61215  10.228   5.220   6.398 -0.2615 -0.3854 -0.4818
18632SOL    HW161216  10.322   5.234   6.393 -0.3678 -0.0078 -2.5162
18632SOL    HW261217  10.190   5.308   6.401 -0.5597 -0.5384  1.2748
18633SOL     OW61218   5.373   2.978   8.674  0.0922 -0.1408 -0.2766
18633SOL    HW161219   5.395   2.971   8.767  3.5763  0.5637 -0.8842
18633SOL    HW261220   5.413   3.061   8.646 -0.4088 -0.5750 -2.4893
18634SOL     OW61221   6.397   9.927   7.713 -0.3400 -0.2777 -0.1943
18634SOL    HW161222   6.437   9.957   7.794 -1.9769  2.1939 -0.2079
18634SOL    HW261223   6.354   9.845   7.736 -1.7554  0.9559  1.7836
18635SOL     OW61224   7.270   7.072   9.269 -0.0690  0.0935  0.3444
18635SOL    HW161225   7.271   7.167   9.258  2.5991 -0.0795 -1.8658
18635SOL    HW261226   7.257   7.038   9.181 -2.6354 -1.6907  1.2947
18636SOL     OW61227   9.897   5.160   7.464  0.0914  0.0308 -0.3565
18636SOL    HW161228   9.966   5.098   7.489 -0.0683  0.7894  2.2133
18636SOL    HW261229   9.825   5.105   7.435  0.7619 -0.8945 -0.3286
18637SOL     OW61230   6.241  10.407   3.628  1.0444  0.0665  0.4307
18637SOL    HW161231   6.285  10.325   3.649  0.5933 -0.8070 -1.7820
18637SOL    HW261232   6.294  10.444   3.557 -0.2662  0.3385 -0.4256
18638SOL     OW61233   6.550   8.860   7.989 -0.3150  0.1659 -0.1172
18638SOL    HW161234   6.488   8.810   8.043 -0.8731  0.4088 -0.5256
18638SOL    HW261235   6.632   8.857   8.038 -1.5095  2.9309  2.2964
18639SOL     OW61236   0.275  10.786   4.250  0.1039 -0.0626  0.1034
18639SOL    HW161237   0.247  10.800   4.340  0.7130  0.9485  0.1483
18639SOL    HW261238   0.365  10.755   4.257  0.1708  0.0683 -0.1650
18640SOL     OW61239   4.070  11.660   9.122 -0.1384 -0.1921 -0.1507
18640SOL    HW161240   3.975  11.663   9.114 -0.0119  0.8870 -1.7036
18640SOL    HW261241   4.094  11.743   9.164  0.3540  1.8478 -3.9755
18641SOL     OW61242   6.476  11.632   6.052  0.0838 -1.0874  0.1544
18641SOL    HW161243   6.470  11.647   6.146  2.1543  1.4668 -0.0237
18641SOL    HW261244   6.482  11.537   6.043  0.4907 -1.3535  2.6437
18642SOL     OW61245   6.167   4.184   4.155 -0.0345 -0.4513  0.1586
18642SOL    HW161246   6.172   4.217   4.245 -0.6651  3.4356 -1.0257
18642SOL    HW261247   6.257   4.170   4.129  0.1715 -1.3000  1.2601
18643SOL     OW61248   1.407   9.144   9.237  0.0714  0.2734 -0.1367
18643SOL    HW161249   1.460   9.071   9.205  0.3154 -0.1985  1.2954
18643SOL    HW261250   1.391   9.197   9.159  0.2998 -1.0393 -1.1194
18644SOL     OW61251   0.596   3.136   4.006 -0.2873 -0.0316  0.0123
18644SOL    HW161252   0.560   3.198   3.942  1.3368  0.9588 -0.0012
18644SOL    HW261253   0.523   3.119   4.066 -2.2159 -1.8654 -2.6447
18645SOL     OW61254  11.589   1.417   0.080 -0.3618  0.3249  0.8464
18645SOL    HW161255  11.671   1.448   0.119 -0.7469  0.5848  1.4679
18645SOL    HW261256  11.574   1.476   0.006  1.2194 -1.1769 -0.7465
18646SOL     OW61257   4.683   6.218   5.469  0.0052  0.1873 -0.0242
18646SOL    HW161258   4.626   6.216   5.393  0.1601  1.3130 -0.1842
18646SOL    HW261259   4.676   6.307   5.503  1.5018  0.3025  0.0700
18647SOL     OW61260   9.219   5.327   9.374 -0.5984  0.0654  0.1129
18647SOL    HW161261   9.192   5.402   9.427 -1.9021 -0.0422 -0.3803
18647SOL    HW261262   9.315   5.329   9.378 -0.6462  0.4283  1.9308
18648SOL     OW61263   7.503   7.821   0.794 -0.0742 -0.1004  0.1213
18648SOL    HW161264   7.421   7.774   0.776 -0.5304  0.6952  0.0875
18648SOL    HW261265   7.493   7.905   0.749  0.4441  0.3095  0.7548
18649SOL     OW61266  11.260   4.446   1.380  0.3958 -0.2414 -0.3614
18649SOL    HW161267  11.341   4.460   1.429  0.4036 -0.8211 -0.1923
18649SOL    HW261268  11.202   4.517   1.407  1.1291  0.6670 -1.1056
18650SOL     OW61269   1.449   2.200   9.330 -0.1193  0.5653 -0.4206
18650SOL    HW161270   1.376   2.190   9.269 -1.6487 -0.6576  1.4804
18650SOL    HW261271   1.450   2.119   9.380  2.3216  0.7185 -0.0682
18651SOL     OW61272   0.493  10.441  10.014 -0.4518 -0.9538 -0.9466
18651SOL    HW161273   0.430  10.504   9.980  0.7386  0.7847 -0.0732
18651SOL    HW261274   0.444  10.359  10.020 -2.0886 -0.1029 -2.0002
18652SOL     OW61275   5.156  11.239   1.668  0.0356 -0.2964  0.2612
18652SOL    HW161276   5.225  11.246   1.601  0.3705 -0.7952  0.5545
18652SOL    HW261277   5.147  11.328   1.701 -0.3763  0.0280 -0.6924
18653SOL     OW61278   8.118   1.186   1.695  0.7687 -0.0608 -0.1779
18653SOL    HW161279   8.028   1.210   1.715  1.5333  2.0383  1.0793
18653SOL    HW261280   8.111   1.120   1.627 -1.7031  0.0478 -0.1117
18654SOL     OW61281   8.867   2.186   2.682  0.4648 -0.5015 -0.7393
18654SOL    HW161282   8.829   2.129   2.616  0.9720 -0.4650 -1.0685
18654SOL    HW261283   8.948   2.219   2.642  0.0432  0.6806 -0.6793
18655SOL     OW61284   6.206   8.526   5.098  0.4885  0.4395  0.3320
18655SOL    HW161285   6.158   8.533   5.181  1.2947 -0.6513  0.9207
18655SOL    HW261286   6.221   8.616   5.071 -0.5107  0.8027  0.9416
18656SOL     OW61287   6.438   7.013   6.839  0.0399 -0.1289 -0.3562
18656SOL    HW161288   6.423   6.973   6.754 -2.1796  1.3050 -0.7157
18656SOL    HW261289   6.395   6.954   6.901  2.6128 -1.7713  0.0032
18657SOL     OW61290   9.454   3.566   2.832 -0.1220  0.0197  0.0125
18657SOL    HW161291   9.409   3.483   2.845  1.7624 -1.0248  0.1726
18657SOL    HW261292   9.396   3.616   2.775 -1.2111 -1.4759 -0.2368
18658SOL     OW61293   5.767   3.103   5.883 -0.0671  0.4761  0.3628
18658SOL    HW161294   5.776   3.163   5.809  1.3550 -0.0903  0.0540
18658SOL    HW261295   5.692   3.048   5.860  0.1810  0.4932 -0.5161
18659SOL     OW61296   4.143   4.982   8.391 -0.1814 -0.0934  0.1098
18659SOL    HW161297   4.219   5.041   8.391 -0.1286 -0.1540 -0.2097
18659SOL    HW261298   4.109   4.988   8.302 -2.6113  2.5223  1.0989
18660SOL     OW61299   1.055   7.632   5.444  0.2999 -0.1897  0.0440
18660SOL    HW161300   1.139   7.589   5.461  0.5825  0.6687  0.8644
18660SOL    HW261301   1.006   7.621   5.526  0.1220  0.4698  0.0277
18661SOL     OW61302   4.210   3.851   0.441  0.3889 -0.2375 -0.2587
18661SOL    HW161303   4.232   3.918   0.506 -0.0027  0.2233 -0.5834
18661SOL    HW261304   4.284   3.792   0.441  2.1201  1.7649 -2.0019
18662SOL     OW61305   7.221  10.701   0.955  0.2358 -0.6309 -0.1459
18662SOL    HW161306   7.266  10.692   1.038 -0.0661  0.6165  0.1723
18662SOL    HW261307   7.128  10.696   0.977  0.1657 -1.3124 -0.5545
18663SOL     OW61308   3.838   4.991   7.031 -0.9836 -0.1340  0.3314
18663SOL    HW161309   3.850   4.899   7.009 -0.7136 -0.3097  1.1931
18663SOL    HW261310   3.797   5.029   6.952  0.4093 -0.6233 -0.6617
18664SOL     OW61311   0.331   8.997   8.986  0.1788  0.5680  0.0918
18664SOL    HW161312   0.254   9.017   8.933  0.5587  0.3947 -0.5429
18664SOL    HW261313   0.353   8.907   8.963  1.5675  1.1579 -1.0339
18665SOL     OW61314   0.796   3.282   3.445 -1.0260 -0.0345  0.2876
18665SOL    HW161315   0.801   3.371   3.480 -1.3038  0.1519 -0.1458
18665SOL    HW261316   0.745   3.234   3.510 -2.4124  0.5553 -0.3355
18666SOL     OW61317   8.047   5.206   2.949 -0.2563  0.7002  0.9113
18666SOL    HW161318   8.110   5.266   2.910 -0.3601  0.8570  0.9837
18666SOL    HW261319   8.063   5.122   2.905  0.3027  0.6294  1.2471
18667SOL     OW61320   4.347   5.392   3.135  0.5143 -0.6446  0.6673
18667SOL    HW161321   4.441   5.391   3.154  0.7172  1.6616  0.1137
18667SOL    HW261322   4.342   5.401   3.040 -0.2828 -0.8788  0.6809
18668SOL     OW61323   9.147   5.702   2.133  0.1277 -0.5794  0.2033
18668SOL    HW161324   9.226   5.665   2.171  0.0261 -1.0678 -0.0492
18668SOL    HW261325   9.089   5.716   2.208  0.1728 -0.9241  0.3065
18669SOL     OW61326   0.781  11.124   5.282 -0.4957 -0.0847 -0.5145
18669SOL    HW161327   0.760  11.209   5.245 -2.3711 -0.9669 -1.6333
18669SOL    HW261328   0.762  11.132   5.375  1.1201  1.2169 -0.2631
18670SOL     OW61329  11.444  11.250   2.459 -0.3365  0.1244 -0.1315
18670SOL    HW161330  11.438  11.205   2.374  0.0320  1.1105 -0.7055
18670SOL    HW261331  11.492  11.189   2.515  0.7685  0.0693 -1.0894
18671SOL     OW61332   5.714  10.264  10.716  0.3371 -0.3950  0.4241
18671SOL    HW161333   5.738  10.271  10.808  0.3205 -1.8291  0.5524
18671SOL    HW261334   5.623  10.292  10.712 -0.2483 -2.0522  1.1707
18672SOL     OW61335   7.076   5.423   4.034  0.3314  0.0015  0.4030
18672SOL    HW161336   7.076   5.516   4.011 -0.3115  0.2648  1.4577
18672SOL    HW261337   7.152   5.413   4.092  0.6972 -0.2422 -0.1080
18673SOL     OW61338   9.087  11.657   5.627  0.3949 -0.2795 -0.5644
18673SOL    HW161339   9.116  11.672   5.717 -1.9319  0.3133  0.1772
18673SOL    HW261340   9.154  11.601   5.588  1.3381 -0.7579  1.6272
18674SOL     OW61341   6.689   3.483   3.171  0.0933  0.0319  0.0853
18674SOL    HW161342   6.739   3.402   3.161  1.4000  0.2818  3.2882
18674SOL    HW261343   6.633   3.487   3.094  2.3818 -2.1637 -1.8690
18675SOL     OW61344  10.686   6.751  10.278 -1.0822 -0.2508  0.3670
18675SOL    HW161345  10.737   6.805  10.339  0.7387 -3.4101  1.9046
18675SOL    HW261346  10.598   6.749  10.316 -0.7951  0.4044  1.1149
18676SOL     OW61347   9.334   7.533  10.380 -0.5616  0.1671 -0.0131
18676SOL    HW161348   9.288   7.577  10.308 -0.7718  1.4824  0.8947
18676SOL    HW261349   9.404   7.485  10.337 -0.9136  0.6223 -1.1413
18677SOL     OW61350  11.296   6.507   8.743 -0.0013  0.6189  0.3192
18677SOL    HW161351  11.270   6.580   8.798 -0.3563  1.2937 -0.7231
18677SOL    HW261352  11.358   6.457   8.797  0.7989  2.0679  0.7897
18678SOL     OW61353  11.321   9.269  10.991 -0.0458 -0.0899 -0.4812
18678SOL    HW161354  11.267   9.320  11.052 -1.0941 -1.7752  0.0571
18678SOL    HW261355  11.291   9.298  10.904 -1.4061 -0.5561 -0.1863
18679SOL     OW61356  10.663   7.267   3.554 -0.0946 -0.0770  0.1414
18679SOL    HW161357  10.636   7.186   3.510  0.5285 -0.3827  0.3071
18679SOL    HW261358  10.747   7.290   3.514 -0.4452  0.6948 -0.1642
18680SOL     OW61359   7.486   4.633   7.914  0.3901 -0.0536  0.7369
18680SOL    HW161360   7.553   4.597   7.856 -1.4959 -0.7702 -1.1097
18680SOL    HW261361   7.464   4.561   7.973  0.8140 -0.0052  0.9556
18681SOL     OW61362   2.495   1.373   8.035  0.1501 -0.0244  0.8307
18681SOL    HW161363   2.485   1.455   7.987 -1.1778 -0.4168  0.3949
18681SOL    HW261364   2.412   1.327   8.022  1.3144 -2.0344 -0.0570
18682SOL     OW61365  11.192   5.948  11.350  0.1564 -0.1197 -0.1837
18682SOL    HW161366  11.263   5.991  11.398 -0.0537  0.7137 -0.5995
18682SOL    HW261367  11.220   5.951  11.259 -0.2957 -0.0218 -0.3186
18683SOL     OW61368  10.950   5.803   3.715 -0.1450  0.4983 -0.3419
18683SOL    HW161369  10.861   5.801   3.751  0.3378  0.2543  0.9091
18683SOL    HW261370  11.003   5.840   3.786  0.7829  0.4250 -0.9868
18684SOL     OW61371   2.392   6.166   3.367  0.6597  0.0833  0.1446
18684SOL    HW161372   2.415   6.249   3.325  0.9011 -0.5433 -0.9836
18684SOL    HW261373   2.475   6.118   3.371  0.6946  0.2260  1.5916
18685SOL     OW61374   4.767   5.987   7.627  0.5347 -0.1614  0.0181
18685SOL    HW161375   4.717   5.993   7.546  1.1127  0.9097 -0.2824
18685SOL    HW261376   4.819   5.907   7.618 -0.1063 -0.5509 -0.2547
18686SOL     OW61377   5.900  10.058   9.961 -0.2131  0.2039 -0.1211
18686SOL    HW161378   5.865  10.112  10.032 -0.0941 -0.6422  0.6028
18686SOL    HW261379   5.939   9.983  10.005  2.0493  0.8152 -0.9138
18687SOL     OW61380  11.437   4.787  11.722 -0.6412 -0.3009  0.1826
18687SOL    HW161381  11.469   4.866  11.766  0.0577  1.5141 -3.2146
18687SOL    HW261382  11.512   4.727  11.723  0.3547  0.8471 -0.8822
18688SOL     OW61383   5.404   3.042   2.200 -0.5266  0.5358 -0.5474
18688SOL    HW161384   5.315   3.041   2.164 -0.2186 -1.8385 -1.4556
18688SOL    HW261385   5.435   2.952   2.188  1.4010  0.8816  1.2898
18689SOL     OW61386   4.538   5.224   7.434 -0.3452  0.3231  0.1458
18689SOL    HW161387   4.502   5.159   7.373  1.7080 -0.0811 -0.7305
18689SOL    HW261388   4.471   5.234   7.501 -2.5413  0.4641 -1.9413
18690SOL     OW61389   2.980   1.743   5.474  0.0546  0.3200  0.3184
18690SOL    HW161390   2.890   1.771   5.492 -0.0556  0.2971 -0.1854
18690SOL    HW261391   3.020   1.819   5.430  0.0483  0.0550 -0.1567
18691SOL     OW61392   2.698   4.989   9.321  0.4622  0.0859 -0.0212
18691SOL    HW161393   2.763   5.011   9.387  1.3949 -0.9494 -0.5501
18691SOL    HW261394   2.748   4.944   9.252 -0.8145 -0.7753 -0.4304
18692SOL     OW61395   9.079   1.816   6.892  0.5577 -0.9928  0.2242
18692SOL    HW161396   9.084   1.770   6.808 -0.1445 -1.7581  0.5832
18692SOL    HW261397   9.020   1.890   6.875 -0.3121 -1.6608  0.2507
18693SOL     OW61398   7.611   9.155   5.998  0.1569  0.6146 -0.1786
18693SOL    HW161399   7.585   9.168   5.907  0.3843  1.7066 -0.1012
18693SOL    HW261400   7.672   9.081   5.996 -0.6126 -0.0257 -0.7645
18694SOL     OW61401   4.262   4.144   1.900  0.0476  0.2285  0.1086
18694SOL    HW161402   4.319   4.067   1.900  0.0331  0.2072  1.1595
18694SOL    HW261403   4.237   4.156   1.808  0.8681 -0.4112 -0.2047
18695SOL     OW61404   8.173   7.461   7.327 -0.3853 -0.5713 -0.0763
18695SOL    HW161405   8.088   7.503   7.333 -0.6297 -0.5486 -2.5848
18695SOL    HW261406   8.233   7.531   7.300 -0.1738 -1.1476 -1.1656
18696SOL     OW61407   5.673   4.664   7.571  0.5047  0.3510  0.4271
18696SOL    HW161408   5.623   4.588   7.598  1.7573 -0.0016  1.8834
18696SOL    HW261409   5.610   4.719   7.525 -0.6989 -1.0045  0.3940
18697SOL     OW61410   0.636   8.272   9.650  0.2596 -0.2605  0.0041
18697SOL    HW161411   0.728   8.287   9.672  0.9643 -3.4948 -0.1222
18697SOL    HW261412   0.634   8.276   9.554  0.4637 -0.8092 -0.0328
18698SOL     OW61413   6.187   0.678  11.295  0.1746 -0.3227  0.0736
18698SOL    HW161414   6.168   0.585  11.281 -1.6059 -0.1981  1.2670
18698SOL    HW261415   6.282   0.682  11.303  0.2972 -2.0253 -0.1610
18699SOL     OW61416  10.713   0.152   1.244 -0.1388 -0.0368 -0.3772
18699SOL    HW161417  10.739   0.178   1.332 -1.3010  2.3911 -0.6812
18699SOL    HW261418  10.760   0.213   1.187 -1.8895  0.5483 -1.2362
18700SOL     OW61419   2.003   1.518   7.722 -0.3476 -0.2079  0.7461
18700SOL    HW161420   1.939   1.574   7.678  1.0231  1.3143  0.5923
18700SOL    HW261421   2.001   1.547   7.814 -0.3560 -0.6031  0.8702
18701SOL     OW61422   7.440   1.812  11.036  0.0574 -0.5868 -0.2343
18701SOL    HW161423   7.450   1.722  11.008  1.5170 -0.1036 -1.4296
18701SOL    HW261424   7.348   1.833  11.022  0.1326 -1.2693 -1.9660
18702SOL     OW61425   8.739   7.632   7.931  0.1734  0.0040  0.3083
18702SOL    HW161426   8.647   7.656   7.941 -0.1351 -0.1054 -1.8271
18702SOL    HW261427   8.753   7.564   7.997 -0.5765  1.6511  2.3010
18703SOL     OW61428   7.112  10.341   5.447 -0.0499 -0.3104 -0.0498
18703SOL    HW161429   7.050  10.392   5.395 -1.0095 -1.0141  0.3494
18703SOL    HW261430   7.066  10.258   5.464  1.7132 -1.6143 -1.2791
18704SOL     OW61431   1.003   6.287   4.574  0.6041  0.2214  0.1453
18704SOL    HW161432   0.964   6.286   4.661  0.8684  1.9132  0.3126
18704SOL    HW261433   0.986   6.199   4.539  0.4028 -0.4417  1.8404
18705SOL     OW61434   4.579  10.404  10.119 -0.3769  0.3780 -0.1002
18705SOL    HW161435   4.559  10.468  10.051  1.4947  1.5165  0.3303
18705SOL    HW261436   4.659  10.438  10.161  1.3980 -2.7747 -0.5838
18706SOL     OW61437   7.460   4.595   2.383  0.0234  0.0598 -0.0992
18706SOL    HW161438   7.538   4.647   2.401  0.3982 -0.9862  1.5778
18706SOL    HW261439   7.387   4.647   2.416 -0.0419  1.0692 -1.7297
18707SOL     OW61440  10.785   9.672   7.193 -0.0841 -0.3130 -0.4475
18707SOL    HW161441  10.833   9.738   7.243  1.5559 -1.7797 -0.0021
18707SOL    HW261442  10.852   9.626   7.143 -0.9916 -2.4354  0.1804
18708SOL     OW61443   0.758  11.456   3.500  0.3142  0.1764  0.6745
18708SOL    HW161444   0.689  11.441   3.565 -0.0393 -0.2408  0.2061
18708SOL    HW261445   0.738  11.542   3.464 -1.2432 -0.8304 -0.9927
18709SOL     OW61446   9.951   7.240   0.598 -0.4937 -0.0431  0.1147
18709SOL    HW161447   9.948   7.220   0.504  2.6879 -0.2243 -0.0651
18709SOL    HW261448   9.982   7.159   0.638 -0.6679  0.4014  1.1687
18710SOL     OW61449   7.933   4.629   1.220  1.0773  0.0032 -0.2097
18710SOL    HW161450   7.939   4.565   1.150  0.3986 -0.7561  0.4020
18710SOL    HW261451   7.995   4.698   1.196  1.4076 -0.6135 -1.1548
18711SOL     OW61452   2.944   4.303   1.370 -0.3067  0.0004 -0.4452
18711SOL    HW161453   2.911   4.382   1.413 -0.6644  0.6225 -1.7914
18711SOL    HW261454   2.884   4.290   1.297 -0.6956 -1.9662  0.1692
18712SOL     OW61455   3.289   7.141   2.907  0.0248 -0.2331  0.3800
18712SOL    HW161456   3.257   7.224   2.941  1.2585  0.6444 -0.4974
18712SOL    HW261457   3.231   7.122   2.832 -0.1848 -0.1050  0.5097
18713SOL     OW61458   3.302   1.222   5.231  0.0562 -0.3431 -0.2197
18713SOL    HW161459   3.337   1.199   5.317 -3.2443  2.1977  2.0261
18713SOL    HW261460   3.365   1.285   5.196  0.7622 -0.3761  0.9366
18714SOL     OW61461   2.463   6.598   4.656 -0.1156  0.3680  0.0737
18714SOL    HW161462   2.491   6.669   4.714  0.0997 -0.0892  0.5432
18714SOL    HW261463   2.368   6.597   4.663 -0.0416 -0.3792  1.2911
18715SOL     OW61464   7.556   5.318   2.068  0.1176  0.3157 -0.1505
18715SOL    HW161465   7.484   5.377   2.045 -0.2460  0.6491  1.6789
18715SOL    HW261466   7.518   5.254   2.128  1.1633  0.0069  0.2178
18716SOL     OW61467   9.341   9.001   7.808  0.3241  0.2677  0.0298
18716SOL    HW161468   9.291   8.920   7.801 -0.4160  0.6869  0.3013
18716SOL    HW261469   9.402   8.998   7.734  0.9969 -0.9821  0.6010
18717SOL     OW61470   6.363   3.676   5.812 -0.3856  0.1318 -0.0822
18717SOL    HW161471   6.332   3.647   5.898 -0.6924  2.8040  0.8075
18717SOL    HW261472   6.311   3.625   5.750 -2.1950  0.0833  1.3633
18718SOL     OW61473   6.650   5.719   3.736  0.0708 -0.3054 -0.3220
18718SOL    HW161474   6.631   5.813   3.732 -0.4919 -0.3504  1.0523
18718SOL    HW261475   6.665   5.695   3.644  0.0903  1.0899 -0.7163
18719SOL     OW61476   0.759   9.869   7.990 -0.2176 -0.0578  0.1295
18719SOL    HW161477   0.757   9.895   8.082  1.6789  1.7952 -0.2785
18719SOL    HW261478   0.687   9.918   7.950 -0.1664  0.2327  0.3849
18720SOL     OW61479   2.918   9.958   5.961  0.1088  0.0100 -0.1332
18720SOL    HW161480   2.970   9.938   6.039 -1.7559 -0.0826  1.1585
18720SOL    HW261481   2.848   9.893   5.962 -1.2670  1.4209 -0.5703
18721SOL     OW61482   5.735   1.548  11.663 -0.1395 -0.4703  0.4092
18721SOL    HW161483   5.788   1.519  11.589  2.0686  0.7101  1.4181
18721SOL    HW261484   5.729   1.643  11.653 -0.2725 -0.3566  1.4628
18722SOL     OW61485   3.107   7.304   6.663 -0.3355  0.1570  0.4372
18722SOL    HW161486   3.144   7.377   6.612 -0.7766 -0.1454 -0.3315
18722SOL    HW261487   3.177   7.239   6.667  0.2264  0.7932  1.5254
18723SOL     OW61488  10.073   1.324   6.702 -0.1873 -0.4266  0.7014
18723SOL    HW161489  10.022   1.282   6.633 -0.2754 -1.1072  1.1724
18723SOL    HW261490  10.009   1.376   6.750 -0.4175 -1.1431  1.1861
18724SOL     OW61491   2.487   5.743   3.457 -0.1447 -0.6830  0.0717
18724SOL    HW161492   2.403   5.703   3.482 -0.4498  0.2124  0.5144
18724SOL    HW261493   2.484   5.748   3.362 -1.4052  1.0090  0.1470
18725SOL     OW61494   1.511   2.916   4.690 -0.4524  1.0472  0.0583
18725SOL    HW161495   1.418   2.895   4.687 -0.5504  1.4035  0.5556
18725SOL    HW261496   1.542   2.875   4.771  0.1611 -0.4196 -0.8792
18726SOL     OW61497   9.255   7.347   2.819  0.4569  0.0567 -0.1164
18726SOL    HW161498   9.215   7.332   2.905 -0.6619  0.4861 -0.5385
18726SOL    HW261499   9.186   7.390   2.768  1.1538 -0.0604 -1.1854
18727SOL     OW61500   5.020   5.456  11.193  0.5500  0.0763  0.5184
18727SOL    HW161501   5.011   5.545  11.161  3.0091  0.4326  0.5977
18727SOL    HW261502   4.977   5.402  11.127 -0.2242  1.2574  0.0390
18728SOL     OW61503   4.941   3.188   5.017 -0.2734 -0.3175 -0.7522
18728SOL    HW161504   4.936   3.232   5.102  1.8609  0.3766 -0.9146
18728SOL    HW261505   4.983   3.104   5.036  1.3650  0.3438 -1.2093
18729SOL     OW61506   0.627  10.193   4.974 -0.6960  0.6938 -0.8305
18729SOL    HW161507   0.695  10.199   4.907  0.6054  0.7750  0.4567
18729SOL    HW261508   0.570  10.269   4.957  0.3268  1.4260 -1.0686
18730SOL     OW61509   5.690   0.260   1.911  0.0939 -0.0110  0.1571
18730SOL    HW161510   5.684   0.292   2.000 -1.1288  1.4944 -0.4202
18730SOL    HW261511   5.784   0.249   1.895  0.3264 -0.2148  1.5777
18731SOL     OW61512  10.775   5.624   1.297 -0.6608 -0.1150  0.1361
18731SOL    HW161513  10.864   5.590   1.294 -0.7683 -0.4167  0.2398
18731SOL    HW261514  10.746   5.625   1.206 -1.2554 -1.9614  0.2624
18732SOL     OW61515   6.210   8.933   2.048  0.7057 -0.4216  0.5945
18732SOL    HW161516   6.128   8.955   2.093  0.2435 -0.1335 -0.3500
18732SOL    HW261517   6.249   8.864   2.101 -0.1296 -0.5239  1.0912
18733SOL     OW61518   1.464   4.429   8.913  0.1561 -0.3005 -0.3314
18733SOL    HW161519   1.472   4.516   8.874  0.3663 -0.7572 -1.3627
18733SOL    HW261520   1.455   4.370   8.838 -3.4835 -0.8742  0.3948
18734SOL     OW61521   8.915  11.326   1.435  0.5429  0.1729  0.6225
18734SOL    HW161522   8.962  11.253   1.475 -0.0131 -0.8511 -0.5435
18734SOL    HW261523   8.860  11.286   1.368  2.0640  1.8826 -1.8022
18735SOL     OW61524  10.611   8.308   2.690 -0.7397  0.3524  0.7461
18735SOL    HW161525  10.576   8.276   2.607 -2.0649  1.4380  0.8394
18735SOL    HW261526  10.690   8.356   2.666  0.2176 -1.3346  0.4094
18736SOL     OW61527   0.386   6.468   9.398 -0.2983 -0.4740 -0.7375
18736SOL    HW161528   0.392   6.559   9.369 -1.6580 -0.3517 -0.6832
18736SOL    HW261529   0.473   6.449   9.435 -0.4946  1.3322  0.7907
18737SOL     OW61530   4.997  11.114  10.824  0.2374  0.1206  0.2892
18737SOL    HW161531   5.083  11.074  10.823  0.8146  1.3357 -0.1519
18737SOL    HW261532   4.967  11.104  10.915  2.5880  3.1941  1.5906
18738SOL     OW61533   9.540   1.422   5.035 -0.2968 -0.4554 -0.0331
18738SOL    HW161534   9.582   1.338   5.014  2.3315  0.3241  1.6466
18738SOL    HW261535   9.457   1.397   5.076  1.1003 -2.3850  1.8577
18739SOL     OW61536  10.854   5.221   6.495  0.6605 -0.1821  0.4921
18739SOL    HW161537  10.946   5.224   6.523  1.5519 -0.8387 -2.0985
18739SOL    HW261538  10.858   5.221   6.399 -2.0443 -0.9740  0.2994
18740SOL     OW61539   9.111   5.791   4.688 -0.0168  0.0176 -0.4822
18740SOL    HW161540   9.086   5.782   4.780  1.2683  1.6253  0.0830
18740SOL    HW261541   9.061   5.723   4.642 -1.9394  0.2354  1.1553
18741SOL     OW61542   0.342   3.971   8.037  0.0412 -0.5248  0.2247
18741SOL    HW161543   0.288   3.895   8.060  2.1383 -1.9808  0.5966
18741SOL    HW261544   0.300   4.008   7.959 -1.3215 -1.7175  0.3498
18742SOL     OW61545  11.371   9.772  11.635  0.1089 -0.5410  0.3693
18742SOL    HW161546  11.397   9.843  11.693 -1.8774  0.9207 -0.4204
18742SOL    HW261547  11.354   9.814  11.551  0.4514 -2.2211 -0.5932
18743SOL     OW61548   3.481   4.968  11.668 -0.4265  0.7485 -0.0438
18743SOL    HW161549   3.490   5.024  11.591 -1.7495 -1.5197 -1.9693
18743SOL    HW261550   3.417   5.013  11.723  0.7622  2.5499 -0.0556
18744SOL     OW61551   7.161  10.653  10.439 -0.2295 -0.7911  0.3218
18744SOL    HW161552   7.082  10.658  10.386  0.6012 -1.6483 -1.0385
18744SOL    HW261553   7.180  10.744  10.462 -0.8372 -0.4497 -0.4894
18745SOL     OW61554   5.356   0.815   5.542  0.6070 -0.0959  0.4169
18745SOL    HW161555   5.387   0.881   5.604  0.2305  0.2814  0.2109
18745SOL    HW261556   5.260   0.823   5.546  0.4792 -1.7402  1.6070
18746SOL     OW61557   9.439   7.780   8.600 -0.0729 -0.4455 -0.2517
18746SOL    HW161558   9.385   7.704   8.622  2.3907 -1.5867  2.4612
18746SOL    HW261559   9.513   7.744   8.550  0.4504  0.3781 -0.0845
18747SOL     OW61560   3.259   2.327   7.244  0.1597 -0.5206  0.3059
18747SOL    HW161561   3.208   2.287   7.174  1.5626  0.3712 -1.3041
18747SOL    HW261562   3.200   2.392   7.282 -0.9679 -1.7146  0.6902
18748SOL     OW61563   5.927   4.500   3.881 -0.0961 -0.1498  0.2500
18748SOL    HW161564   5.945   4.469   3.970  2.8890 -0.9625 -0.5458
18748SOL    HW261565   5.924   4.421   3.828 -1.3842  0.3681 -0.4958
18749SOL     OW61566   5.406   9.572   7.628 -0.2069 -0.6820  0.2872
18749SOL    HW161567   5.409   9.481   7.657  0.9106 -0.6867  0.2027
18749SOL    HW261568   5.491   9.586   7.585  0.1562  0.7518  1.4027
18750SOL     OW61569   0.906   9.089   7.650  0.3302  0.4169 -0.0540
18750SOL    HW161570   0.889   9.003   7.612  3.2582 -0.8210  1.1203
18750SOL    HW261571   0.909   9.148   7.575 -0.9320 -0.6087 -0.9684
18751SOL     OW61572   0.557  10.462   6.522 -0.5143  0.0445  0.7176
18751SOL    HW161573   0.539  10.407   6.445 -1.2022 -0.6348  1.3477
18751SOL    HW261574   0.553  10.402   6.596 -1.4940  0.9685  1.4404
18752SOL     OW61575   9.573   2.014   8.062 -0.1260 -0.1544  0.3780
18752SOL    HW161576   9.522   1.934   8.051 -0.4603  0.0412  0.4713
18752SOL    HW261577   9.551   2.067   7.985  0.0934 -0.1531  0.3174
18753SOL     OW61578   8.064   6.902   5.306 -0.4845  0.1448 -0.5312
18753SOL    HW161579   8.112   6.820   5.291 -2.8321 -1.3795 -0.2420
18753SOL    HW261580   8.127   6.971   5.285  1.3938 -1.7304 -1.4108
18754SOL     OW61581   9.008   0.306   4.974 -0.5248 -0.1665  0.0338
18754SOL    HW161582   9.082   0.246   4.987 -1.0229 -0.8598 -0.2536
18754SOL    HW261583   9.026   0.348   4.891 -1.4308 -1.8465 -1.0822
18755SOL     OW61584   5.570   6.987   7.277 -0.1461  0.2181 -0.2329
18755SOL    HW161585   5.624   7.026   7.346  0.0897  1.0201 -0.8529
18755SOL    HW261586   5.617   6.908   7.252 -1.5964 -1.6346  2.3757
18756SOL     OW61587  11.451   6.501   6.923  0.5052 -0.0132 -0.7162
18756SOL    HW161588  11.490   6.560   6.858  0.3118  1.4610  0.4492
18756SOL    HW261589  11.357   6.519   6.918  0.3287 -1.0131 -1.0916
18757SOL     OW61590  10.627   1.529   5.711 -0.2624  0.0521 -0.1899
18757SOL    HW161591  10.698   1.507   5.651 -0.3356  0.2357 -0.3415
18757SOL    HW261592  10.611   1.448   5.759  0.6126  0.2234  0.4249
18758SOL     OW61593   9.300   9.599   9.070  0.3835 -0.0366 -0.0117
18758SOL    HW161594   9.328   9.552   8.992 -0.1803  0.5886 -0.6156
18758SOL    HW261595   9.220   9.554   9.098  0.5271 -0.1953  0.1402
18759SOL     OW61596   4.073  10.651   1.601 -0.5342  0.5555  0.3069
18759SOL    HW161597   4.135  10.581   1.582 -2.8624 -1.1680 -1.5017
18759SOL    HW261598   4.097  10.722   1.542  0.5460  0.4903  0.6529
18760SOL     OW61599   2.694  11.644   6.936 -0.6386  0.5362  0.0442
18760SOL    HW161600   2.653  11.588   6.871 -3.1653  2.0553  0.1599
18760SOL    HW261601   2.732  11.584   7.000 -2.1976 -1.0317 -0.4413
18761SOL     OW61602   1.869   0.326   5.701  0.0085 -1.3155 -0.3391
18761SOL    HW161603   1.797   0.317   5.764 -0.8881 -3.3094 -1.5507
18761SOL    HW261604   1.827   0.355   5.620  0.7253 -1.5122 -0.7928
18762SOL     OW61605   0.165   8.434   9.005 -0.0252 -0.4743  0.1271
18762SOL    HW161606   0.116   8.492   8.947 -0.2802 -1.0576 -0.2568
18762SOL    HW261607   0.100   8.371   9.036  0.4128 -1.0555 -0.1248
18763SOL     OW61608  10.707   2.045   2.350  0.0295  0.4468  0.8064
18763SOL    HW161609  10.716   2.114   2.285 -0.1285  0.7752  1.1271
18763SOL    HW261610  10.679   1.969   2.300 -1.9769  1.1813  0.7121
18764SOL     OW61611   5.072   6.204   8.166  0.4029  0.0661  0.1430
18764SOL    HW161612   5.079   6.222   8.072  3.0206 -2.1529 -0.1833
18764SOL    HW261613   4.997   6.145   8.174 -0.3534  0.9125 -0.3675
18765SOL     OW61614   3.517   4.839   7.668 -0.6151  0.2376  0.4150
18765SOL    HW161615   3.511   4.861   7.761 -2.0407 -1.2701  0.7261
18765SOL    HW261616   3.439   4.880   7.629 -0.4665  0.1680  0.0402
18766SOL     OW61617   9.005   8.773   8.869 -0.1592 -0.2467  0.1301
18766SOL    HW161618   9.048   8.688   8.866 -0.9670 -0.6555 -0.0020
18766SOL    HW261619   8.993   8.791   8.962  0.5508  0.0037  0.1768
18767SOL     OW61620   8.106   9.252   8.690  0.7268 -0.0713  0.1722
18767SOL    HW161621   8.065   9.201   8.621 -0.1580  0.5634  0.2080
18767SOL    HW261622   8.106   9.194   8.766 -1.3957  0.3581  0.5570
18768SOL     OW61623  11.566   8.795   6.517  1.1558  0.3417 -0.0291
18768SOL    HW161624  11.643   8.782   6.572  0.9533 -0.5298  0.0685
18768SOL    HW261625  11.601   8.809   6.429  1.4758  1.5478  0.2659
18769SOL     OW61626   5.376   7.522   6.723 -0.5467  0.4854 -0.2865
18769SOL    HW161627   5.437   7.577   6.674  0.4977 -0.0929  0.3113
18769SOL    HW261628   5.343   7.460   6.658  1.0831 -0.4951 -0.2449
18770SOL     OW61629   3.736   1.286   9.819  0.8560  0.4015 -0.6068
18770SOL    HW161630   3.738   1.268   9.725  0.1360 -1.9932 -0.2344
18770SOL    HW261631   3.828   1.296   9.843  1.0868  0.4419 -1.4702
18771SOL     OW61632  11.535   2.205   7.315  0.0056 -0.3879 -0.0425
18771SOL    HW161633  11.545   2.112   7.293  2.7641  0.1646 -1.6469
18771SOL    HW261634  11.600   2.220   7.383 -1.4257  0.1362  1.2688
18772SOL     OW61635   8.395   3.872   4.934  0.2831 -0.3764 -0.2995
18772SOL    HW161636   8.403   3.777   4.922 -0.3859 -0.4162 -0.4411
18772SOL    HW261637   8.321   3.883   4.994  0.4801  0.0529 -0.1256
18773SOL     OW61638   2.711   4.758   0.321 -0.3550  0.4006 -0.0495
18773SOL    HW161639   2.659   4.825   0.276 -0.8596 -0.9093 -1.5070
18773SOL    HW261640   2.648   4.689   0.341  0.5820 -0.6686 -0.7122
18774SOL     OW61641   8.355   0.823  10.652 -0.2249  0.2235  0.1962
18774SOL    HW161642   8.290   0.883  10.689 -1.3230 -0.7525 -0.0559
18774SOL    HW261643   8.343   0.742  10.702 -0.8134 -0.6969 -1.3726
18775SOL     OW61644   2.122   7.765   9.649 -0.0648  0.1661  0.1517
18775SOL    HW161645   2.087   7.676   9.638  1.7438 -0.6188  0.4200
18775SOL    HW261646   2.200   7.753   9.703  1.7912  1.5454 -2.0724
18776SOL     OW61647   7.333   1.529   3.877  0.6551 -0.0744  0.0968
18776SOL    HW161648   7.422   1.526   3.913  0.4586 -1.4659  0.4823
18776SOL    HW261649   7.345   1.506   3.784  0.4817 -2.3983  0.6026
18777SOL     OW61650   1.808   2.833   1.827  0.3378  0.2545 -0.4205
18777SOL    HW161651   1.859   2.763   1.867 -1.0130 -0.4302  0.1590
18777SOL    HW261652   1.773   2.883   1.901  1.0555  1.3950 -0.8224
18778SOL     OW61653   2.882  11.579   8.584 -0.1368 -0.4599  0.2422
18778SOL    HW161654   2.854  11.491   8.610 -1.9374  0.0415  0.1726
18778SOL    HW261655   2.874  11.631   8.664 -2.3144  0.3151 -0.3885
18779SOL     OW61656   1.176   5.443   0.180  0.3915 -0.2324  0.0212
18779SOL    HW161657   1.175   5.379   0.109 -0.3490 -0.4307  0.2053
18779SOL    HW261658   1.090   5.486   0.175  0.3135 -0.2839  0.8267
18780SOL     OW61659   3.279   8.405   0.670  0.1630  0.2076  0.0145
18780SOL    HW161660   3.327   8.403   0.587 -2.1605 -0.2852 -1.4090
18780SOL    HW261661   3.298   8.492   0.706  1.2826  0.4035 -0.9745
18781SOL     OW61662   8.928   6.378   0.762 -0.2013  0.0676 -0.1436
18781SOL    HW161663   8.904   6.315   0.830 -0.1516  0.2185  0.0151
18781SOL    HW261664   8.899   6.338   0.680  1.7360 -1.1289 -0.2874
18782SOL     OW61665  10.476   9.926   9.456 -0.1830 -0.5038  0.3442
18782SOL    HW161666  10.491  10.017   9.430 -0.1667 -0.8042 -0.7283
18782SOL    HW261667  10.462   9.931   9.551  0.8138  0.4871  0.4656
18783SOL     OW61668   4.502   4.433   1.395  0.0169 -0.3431 -0.5615
18783SOL    HW161669   4.589   4.409   1.425 -0.2211 -0.5069  0.0240
18783SOL    HW261670   4.510   4.525   1.370 -0.1233  0.3217  1.5786
18784SOL     OW61671   1.553   6.600   1.808 -0.1377 -0.2534 -0.0140
18784SOL    HW161672   1.494   6.667   1.841 -0.6322 -0.7129  0.0617
18784SOL    HW261673   1.581   6.631   1.722  2.1166  1.5518  1.2513
18785SOL     OW61674   9.185   8.418   2.515  0.3616  0.2828 -0.1335
18785SOL    HW161675   9.212   8.507   2.540 -0.8379  0.9802 -1.2656
18785SOL    HW261676   9.090   8.423   2.506  0.4509 -0.6680 -1.9412
18786SOL     OW61677   0.650   9.067   4.851  0.5372 -0.3037 -0.6210
18786SOL    HW161678   0.700   8.991   4.879 -0.1425 -0.1906  1.0280
18786SOL    HW261679   0.716   9.135   4.837  0.9482 -0.4094  0.6401
18787SOL     OW61680   1.527  11.234   6.878 -0.0627  0.3194  0.2393
18787SOL    HW161681   1.593  11.231   6.948 -1.0036 -0.1778  1.1361
18787SOL    HW261682   1.573  11.273   6.804  1.0049  0.7597  1.0950
18788SOL     OW61683  10.485   0.415   4.528 -0.3077  0.5558  0.7857
18788SOL    HW161684  10.420   0.483   4.547  0.2809  1.1285  0.8223
18788SOL    HW261685  10.498   0.370   4.611 -0.4790  0.6088  0.8403
18789SOL     OW61686   2.003   1.333   2.825 -0.3164 -0.2707 -0.2759
18789SOL    HW161687   2.014   1.267   2.893  0.3990  0.1981  0.0846
18789SOL    HW261688   1.913   1.364   2.835  0.0909  0.5558  1.1899
18790SOL     OW61689   8.567  10.653   3.131 -0.2471 -0.3383  0.5388
18790SOL    HW161690   8.512  10.587   3.088 -1.2952  0.3451  0.7912
18790SOL    HW261691   8.505  10.707   3.181  0.6680  0.4035  0.9017
18791SOL     OW61692   0.532  11.761   7.555 -0.7110 -0.6674 -0.2782
18791SOL    HW161693   0.618  11.720   7.561  0.5501  1.3786 -2.4113
18791SOL    HW261694   0.480  11.719   7.623  1.4535 -3.1785 -0.0180
18792SOL     OW61695   0.527   2.936   0.948 -0.1585 -0.4959  0.7277
18792SOL    HW161696   0.593   2.880   0.990  1.7874  1.3671  0.3218
18792SOL    HW261697   0.443   2.903   0.981  0.7923 -3.8834  0.2061
18793SOL     OW61698   1.101   9.434   9.370 -0.1486  0.1419  0.8361
18793SOL    HW161699   1.008   9.439   9.347  0.7878  2.2707 -3.5161
18793SOL    HW261700   1.119   9.518   9.413 -0.0609  0.0080  1.0652
18794SOL     OW61701   0.702   3.577   3.349 -0.6283 -0.1870 -0.3319
18794SOL    HW161702   0.630   3.539   3.399 -0.3531 -2.5527 -1.6025
18794SOL    HW261703   0.781   3.551   3.398 -0.5262  1.0293  0.1873
18795SOL     OW61704   8.137   6.154   0.755 -0.0823 -0.0343  0.7515
18795SOL    HW161705   8.074   6.133   0.686  2.0591  0.7096 -1.5985
18795SOL    HW261706   8.148   6.072   0.803  1.2242 -1.8975 -2.3651
18796SOL     OW61707   6.889  10.748   4.156  0.1259 -0.0037  0.4954
18796SOL    HW161708   6.871  10.779   4.245 -0.4439 -1.8117  1.0697
18796SOL    HW261709   6.963  10.800   4.127 -0.1601  1.1566  1.7386
18797SOL     OW61710   2.166  11.710   2.839 -0.3571  0.1968 -0.1931
18797SOL    HW161711   2.200  11.770   2.906 -0.3091  0.4900 -0.4803
18797SOL    HW261712   2.125  11.767   2.774  1.1641  0.0424 -1.3314
18798SOL     OW61713   2.713   1.458   2.957  0.1237 -0.1029  0.1210
18798SOL    HW161714   2.766   1.532   2.986  1.1042 -1.0237  0.7188
18798SOL    HW261715   2.663   1.433   3.035  0.1175 -0.3518  0.0363
18799SOL     OW61716   2.017  11.446   8.196  0.1253  0.2926 -0.2940
18799SOL    HW161717   1.953  11.423   8.130  0.2501 -1.4760  0.1397
18799SOL    HW261718   2.025  11.541   8.191 -0.5604  0.2779 -2.1436
18800SOL     OW61719  10.476   6.235   8.080  0.4120  0.8308  0.7915
18800SOL    HW161720  10.550   6.292   8.101 -0.0381  1.7678 -0.0566
18800SOL    HW261721  10.504   6.188   8.002  0.2554  0.9154  0.6843
18801SOL     OW61722   4.652  10.001   0.722  0.4349 -0.2761  0.3449
18801SOL    HW161723   4.603  10.034   0.798  2.6976 -0.3669  1.9365
18801SOL    HW261724   4.705   9.930   0.758 -0.1509 -1.9351 -1.8607
18802SOL     OW61725  10.909   8.783   4.340  0.0506 -0.2155 -0.0936
18802SOL    HW161726  10.824   8.741   4.324 -0.0689  0.4485 -1.3249
18802SOL    HW261727  10.911   8.797   4.434 -1.0576 -0.5711  0.0030
18803SOL     OW61728  11.129   8.799   8.968 -0.4862  0.4402 -0.7529
18803SOL    HW161729  11.185   8.737   8.921 -0.0178  1.0079 -0.9615
18803SOL    HW261730  11.064   8.744   9.011  0.8953 -0.3540  0.4334
18804SOL     OW61731   7.603   6.965  10.050 -0.2387  0.1610  0.1233
18804SOL    HW161732   7.664   6.891  10.056 -1.2319 -0.7441 -0.4763
18804SOL    HW261733   7.518   6.924  10.037 -0.5806  1.4138 -2.2230
18805SOL     OW61734   5.034   7.646  11.448 -0.4108  0.1247 -0.5012
18805SOL    HW161735   4.970   7.582  11.480 -0.6576  0.4350 -0.3802
18805SOL    HW261736   4.996   7.731  11.467  0.2136  0.3177 -0.0786
18806SOL     OW61737   0.523  10.088   7.372 -0.0244  0.2855 -0.4951
18806SOL    HW161738   0.470  10.141   7.431 -1.3371 -0.1388 -1.2464
18806SOL    HW261739   0.514   9.998   7.404 -0.0312  0.1652 -0.8238
18807SOL     OW61740   7.816   9.341   9.123  0.1819  0.1425  0.2971
18807SOL    HW161741   7.890   9.288   9.150 -1.0843 -1.4769  0.7821
18807SOL    HW261742   7.846   9.386   9.044  1.3030 -1.4155 -0.2260
18808SOL     OW61743   0.981   5.605   0.616 -0.1867 -0.1373 -0.0693
18808SOL    HW161744   1.050   5.560   0.568 -1.3293 -2.0253 -0.0580
18808SOL    HW261745   1.019   5.690   0.639  1.5875 -0.5399 -1.3054
18809SOL     OW61746   5.636   6.221  10.997  0.5628 -0.2678 -0.2175
18809SOL    HW161747   5.618   6.216  10.903  3.6588  0.7083 -0.9677
18809SOL    HW261748   5.730   6.238  11.003  0.1611  1.7855  3.0082
18810SOL     OW61749   9.245   6.291   8.097  0.4028  0.2528 -0.6082
18810SOL    HW161750   9.258   6.329   8.184  0.2526 -0.0154 -0.4682
18810SOL    HW261751   9.283   6.204   8.103  0.8062  0.4030 -0.9517
18811SOL     OW61752   6.614   3.568  10.105 -0.1973  0.0166 -0.4067
18811SOL    HW161753   6.536   3.527  10.067 -0.2607  0.8468 -1.2000
18811SOL    HW261754   6.687   3.523  10.062 -0.2385 -0.4482  0.0014
18812SOL     OW61755   4.079   0.104  10.996 -0.0664 -0.3445  0.1691
18812SOL    HW161756   4.132   0.171  11.039 -0.2489  0.8824 -1.4419
18812SOL    HW261757   4.132   0.024  11.003  0.7788  0.2549  0.9222
18813SOL     OW61758  10.855   9.399   3.411 -0.2084  0.5177  0.3698
18813SOL    HW161759  10.772   9.357   3.433 -0.8111  1.4733  0.0164
18813SOL    HW261760  10.920   9.329   3.415 -1.2680 -0.5948 -0.9191
18814SOL     OW61761   3.733   9.977   3.812 -0.1795  0.2079  0.2077
18814SOL    HW161762   3.803   9.918   3.842  0.4972  1.9386  2.2890
18814SOL    HW261763   3.676   9.921   3.759  1.6012 -1.7762  0.2267
18815SOL     OW61764  10.123   3.684   6.590 -0.6010  0.4867  0.0751
18815SOL    HW161765  10.099   3.777   6.585 -0.7104  0.4640  0.1855
18815SOL    HW261766  10.080   3.644   6.514  0.5969  0.7776 -0.7905
18816SOL     OW61767   5.601   8.212   2.097 -1.1210 -0.9236  0.7064
18816SOL    HW161768   5.525   8.188   2.149 -1.8653 -1.1916 -0.4843
18816SOL    HW261769   5.566   8.231   2.010  0.0853 -0.3882  0.3156
18817SOL     OW61770  11.589   9.838   9.022 -0.4180  0.5797 -0.0580
18817SOL    HW161771  11.622   9.779   9.089 -0.2998  2.2207  1.3865
18817SOL    HW261772  11.539   9.781   8.963  1.0997 -1.2070  0.2989
18818SOL     OW61773   8.115   1.761  10.840 -0.3349 -0.7540  0.1302
18818SOL    HW161774   8.074   1.769  10.754  0.2306  0.1689 -0.0618
18818SOL    HW261775   8.048   1.790  10.901 -0.0455  0.6063 -0.1712
18819SOL     OW61776   6.731   9.840  11.815 -0.0099 -0.1145 -0.2291
18819SOL    HW161777   6.658   9.827  11.875  0.5171 -1.1588  0.2114
18819SOL    HW261778   6.755   9.752  11.787  1.1629  0.2033 -0.2648
18820SOL     OW61779   6.352   1.661   5.079  0.4002 -0.0066 -0.2711
18820SOL    HW161780   6.327   1.751   5.099 -1.8398 -0.6184 -0.1134
18820SOL    HW261781   6.444   1.656   5.108  0.1539  1.8091  1.0470
18821SOL     OW61782   7.925   7.126   1.707  0.1963 -0.0864 -0.0934
18821SOL    HW161783   7.900   7.218   1.700  0.0469  0.0030  1.3481
18821SOL    HW261784   7.999   7.125   1.767  1.2021 -0.7732 -1.2907
18822SOL     OW61785   0.815  10.524   1.309 -0.0683  0.2678 -0.2915
18822SOL    HW161786   0.773  10.600   1.269 -1.9377 -1.3288 -1.5521
18822SOL    HW261787   0.823  10.547   1.402 -0.6625  1.9239 -0.6121
18823SOL     OW61788   3.875  11.322   5.292 -0.8584  0.3120 -0.7196
18823SOL    HW161789   3.934  11.274   5.234 -0.2762 -0.2764  0.3149
18823SOL    HW261790   3.810  11.361   5.234 -1.6952 -2.1720 -1.5624
18824SOL     OW61791   7.573   9.214   9.255 -0.1504  0.2797  0.4469
18824SOL    HW161792   7.659   9.244   9.227  0.0978 -0.1911  0.6962
18824SOL    HW261793   7.513   9.250   9.190  0.1881  0.9274  0.4827
18825SOL     OW61794  11.283   3.351  11.209  0.3924 -0.0468  0.6497
18825SOL    HW161795  11.275   3.392  11.295  0.5488 -0.6351  0.9456
18825SOL    HW261796  11.344   3.278  11.223  0.2801 -0.2504  0.0789
18826SOL     OW61797   0.126   9.827   2.679 -0.5269 -0.2500  0.3024
18826SOL    HW161798   0.211   9.783   2.670  1.1674  2.7125  0.7923
18826SOL    HW261799   0.069   9.760   2.717  1.5050 -2.3899 -0.1501
18827SOL     OW61800   3.798  11.241   2.278  0.0649 -0.1217 -0.7186
18827SOL    HW161801   3.824  11.325   2.316 -1.3420 -0.0628  0.1974
18827SOL    HW261802   3.837  11.175   2.336  0.9064 -0.0926 -1.2540
18828SOL     OW61803  10.752  10.744   9.087  0.2486  0.2830 -0.3469
18828SOL    HW161804  10.674  10.784   9.125  0.2795  0.6528 -0.6681
18828SOL    HW261805  10.740  10.650   9.099 -0.1109  0.3561 -0.1402
18829SOL     OW61806   9.575  10.875   1.567  0.1829 -0.3361 -0.5711
18829SOL    HW161807   9.486  10.898   1.541 -0.2640 -1.2579  0.0759
18829SOL    HW261808   9.603  10.808   1.505  0.3646 -0.1719 -0.6693
18830SOL     OW61809  11.327   5.805   6.658  0.2491  0.0400  0.1096
18830SOL    HW161810  11.347   5.880   6.714 -0.0774 -0.3516  0.7623
18830SOL    HW261811  11.345   5.728   6.712 -1.6315 -0.3501  0.2859
18831SOL     OW61812  11.011   7.100   7.795 -0.0432  0.0795 -0.0357
18831SOL    HW161813  10.999   7.191   7.820 -0.6872 -0.1313  0.4568
18831SOL    HW261814  10.925   7.073   7.763 -0.0590 -0.5634  0.5265
18832SOL     OW61815   2.438   0.969  11.775 -1.0118 -0.5360  0.2775
18832SOL    HW161816   2.383   1.043  11.750 -1.9652 -1.4080 -0.3151
18832SOL    HW261817   2.523   0.986  11.735 -1.5543 -0.3013 -0.8090
18833SOL     OW61818   1.176   0.904   6.108 -0.0310 -0.0674  0.1229
18833SOL    HW161819   1.155   0.812   6.095  3.0329 -0.7468 -0.6966
18833SOL    HW261820   1.266   0.904   6.139  1.0134  2.7281 -2.4443
18834SOL     OW61821   7.885   4.779  11.296 -0.4762 -0.4614 -0.0968
18834SOL    HW161822   7.914   4.871  11.301 -1.3951 -0.0125 -1.9457
18834SOL    HW261823   7.817   4.771  11.363 -1.9565  0.8813 -1.3576
18835SOL     OW61824   5.064   6.111  10.223 -0.5260 -0.1424  0.4041
18835SOL    HW161825   5.137   6.058  10.191  1.8811  2.3656  1.2817
18835SOL    HW261826   5.011   6.130  10.146  1.4287  0.3600 -0.8664
18836SOL     OW61827   1.342   1.637   3.297 -0.4578 -0.1730  0.4316
18836SOL    HW161828   1.350   1.592   3.381 -1.1164 -1.6996 -0.2920
18836SOL    HW261829   1.358   1.729   3.318 -1.1418 -0.4406  2.3166
18837SOL     OW61830   1.402   0.524   6.875 -0.0789 -0.7875 -0.5443
18837SOL    HW161831   1.467   0.550   6.940 -0.6948  0.9768 -0.5680
18837SOL    HW261832   1.349   0.457   6.919 -1.3614  1.3214  1.3927
18838SOL     OW61833   3.446   9.362   4.044  1.0584 -0.9197  0.0414
18838SOL    HW161834   3.437   9.375   3.950  1.1747  1.6028  0.3170
18838SOL    HW261835   3.388   9.428   4.083  1.2853 -1.6772  1.7533
18839SOL     OW61836  10.965   8.794   7.029 -0.1478 -0.5555  0.3322
18839SOL    HW161837  10.963   8.724   6.963 -0.7648  1.0058 -1.4076
18839SOL    HW261838  10.908   8.762   7.099 -1.9394 -1.0798 -1.2526
18840SOL     OW61839   7.327   6.709   2.456 -0.5966  0.4174  0.1449
18840SOL    HW161840   7.361   6.623   2.479 -0.8257  0.6132  1.2373
18840SOL    HW261841   7.397   6.749   2.405 -0.8421 -0.7459 -1.1727
18841SOL     OW61842   2.713   1.754   8.258 -0.9486  0.2380 -0.2753
18841SOL    HW161843   2.788   1.785   8.309 -1.7037  1.3634  0.1923
18841SOL    HW261844   2.689   1.829   8.203 -1.6342 -0.1636 -0.5393
18842SOL     OW61845   7.403   9.922   1.504  0.0976  0.4032 -0.3997
18842SOL    HW161846   7.333   9.862   1.530  0.4815 -0.7052 -1.8374
18842SOL    HW261847   7.472   9.908   1.568 -0.3434  0.3102  0.0624
18843SOL     OW61848   6.897   7.434   9.629 -0.6675  0.1467  0.2419
18843SOL    HW161849   6.819   7.459   9.580 -1.1323  1.4673  1.5682
18843SOL    HW261850   6.963   7.498   9.604 -0.9659  0.9548  1.4213
18844SOL     OW61851   8.671   0.168   0.479 -0.3471 -0.2283 -0.0388
18844SOL    HW161852   8.704   0.112   0.549  0.1309 -0.4452 -0.4277
18844SOL    HW261853   8.581   0.139   0.464  0.0679 -1.2822 -0.6156
18845SOL     OW61854   6.675   9.288   1.582 -0.2107  0.1925 -0.2155
18845SOL    HW161855   6.608   9.270   1.515  0.0206  0.6648 -0.5833
18845SOL    HW261856   6.649   9.234   1.657 -1.8166  1.4082  0.1692
18846SOL     OW61857  10.165  11.474   8.598 -0.3092  0.3018 -0.3114
18846SOL    HW161858  10.177  11.510   8.686 -0.4948  1.3608 -0.6984
18846SOL    HW261859  10.243  11.420   8.584 -0.3196  0.0476  0.5301
18847SOL     OW61860  11.061   1.259   3.319  0.3164  0.6474 -0.5878
18847SOL    HW161861  10.997   1.325   3.291 -0.0941  0.8145  0.7077
18847SOL    HW261862  11.021   1.175   3.292 -0.9689  0.6689  1.0943
18848SOL     OW61863  11.765   4.048   4.128  0.2748 -0.2674 -0.7008
18848SOL    HW161864  11.801   4.125   4.171  0.3027 -1.2789  1.1711
18848SOL    HW261865  11.670   4.060   4.132  0.2656 -0.5356  0.0281
18849SOL     OW61866   5.233  10.627   2.687  0.2156  0.3042  0.0776
18849SOL    HW161867   5.316  10.580   2.681 -0.7123 -1.3235 -0.6725
18849SOL    HW261868   5.236  10.691   2.616  0.8033  0.2470  0.0447
18850SOL     OW61869   7.245  10.485   3.983 -0.2475 -0.0230  0.0309
18850SOL    HW161870   7.313  10.551   3.973 -0.9117  0.4363 -1.9383
18850SOL    HW261871   7.246  10.437   3.900 -2.1216 -0.1763  0.0444
18851SOL     OW61872   7.959   6.277  11.087  0.1614 -0.3444 -0.0394
18851SOL    HW161873   7.979   6.369  11.070  4.6204 -1.1969 -0.5493
18851SOL    HW261874   7.952   6.238  11.000 -0.6762 -0.7271  0.1856
18852SOL     OW61875   8.221   9.798   2.499  0.3168 -0.4986 -0.0513
18852SOL    HW161876   8.193   9.826   2.412  0.9563  0.2840 -0.0166
18852SOL    HW261877   8.308   9.762   2.487  0.3451 -0.5334  0.2427
18853SOL     OW61878  10.322   1.918   6.639 -0.3095 -0.3423 -0.0191
18853SOL    HW161879  10.297   1.857   6.571 -1.9004  0.9116 -0.6245
18853SOL    HW261880  10.301   2.004   6.603  1.7561  0.5857  0.8358
18854SOL     OW61881   7.595   1.112   9.601  0.3503  0.1347 -0.0844
18854SOL    HW161882   7.540   1.182   9.636  0.9542  0.0453  1.0960
18854SOL    HW261883   7.585   1.119   9.506 -2.6232 -0.6491  0.0651
18855SOL     OW61884  10.077   2.427   2.936  0.1688  0.1070 -0.0606
18855SOL    HW161885  10.112   2.338   2.927  0.3869  0.2180 -0.3345
18855SOL    HW261886  10.063   2.456   2.846 -1.5702 -0.2972  0.0544
18856SOL     OW61887   4.521   3.334   0.235 -0.1105  0.5191  0.4150
18856SOL    HW161888   4.474   3.270   0.181  2.1625 -0.0373 -1.0321
18856SOL    HW261889   4.569   3.281   0.299 -0.4793  0.9994  1.1053
18857SOL     OW61890  10.966   8.875   7.553  0.1809 -0.3222 -0.1883
18857SOL    HW161891  11.038   8.914   7.504  0.0984  0.4903  0.3066
18857SOL    HW261892  11.007   8.811   7.611  0.1782 -2.0818 -2.0107
18858SOL     OW61893   3.022   0.673   1.615  0.6138  0.5442  0.2831
18858SOL    HW161894   3.051   0.585   1.639 -1.1059  0.1816  1.2642
18858SOL    HW261895   3.027   0.675   1.520  2.0062 -0.1036  0.3195
18859SOL     OW61896   0.334   9.591   6.754  0.4702 -0.0164 -0.2706
18859SOL    HW161897   0.377   9.593   6.839  0.3702 -0.3446 -0.2093
18859SOL    HW261898   0.317   9.683   6.733  0.9502  0.0979 -0.1682
18860SOL     OW61899   1.416   5.874   9.274 -0.6913 -0.6457  0.1102
18860SOL    HW161900   1.353   5.812   9.310  0.3210 -1.3562  0.6964
18860SOL    HW261901   1.476   5.821   9.223  0.0775 -0.1204  0.4536
18861SOL     OW61902  10.117  10.573   1.037  0.3139 -0.5935 -0.2732
18861SOL    HW161903  10.028  10.556   1.068 -0.1726  1.1256 -0.6389
18861SOL    HW261904  10.106  10.628   0.959  1.6970  0.2038  0.0556
18862SOL     OW61905   7.507   6.844   1.477 -0.2865 -0.5354 -0.2215
18862SOL    HW161906   7.443   6.885   1.419  0.6437 -1.1725 -1.7485
18862SOL    HW261907   7.566   6.915   1.501  0.6645 -0.7003 -1.9471
18863SOL     OW61908   1.719   0.836   0.895  0.1480  0.0248 -0.0308
18863SOL    HW161909   1.699   0.757   0.846  1.0760  0.4997 -1.2349
18863SOL    HW261910   1.813   0.832   0.911  0.1428  0.7004  0.2163
18864SOL     OW61911   9.895   0.962  10.180  0.1868  0.2148 -0.1923
18864SOL    HW161912   9.887   1.055  10.162 -1.1237  0.0820 -0.3354
18864SOL    HW261913   9.958   0.930  10.114 -0.9327  0.6184 -1.4931
18865SOL     OW61914   8.263   6.112   3.388  0.0125  0.5644 -0.1038
18865SOL    HW161915   8.187   6.140   3.337 -0.4689  0.3631  0.4867
18865SOL    HW261916   8.302   6.193   3.420 -0.5862  0.6303  0.4827
18866SOL     OW61917  10.195  10.990   3.925  0.1911 -0.0502 -0.1194
18866SOL    HW161918  10.227  11.025   4.008 -1.4330  0.1448  0.4500
18866SOL    HW261919  10.145  10.912   3.950 -0.5579  0.1759 -0.8838
18867SOL     OW61920   1.906   5.638   7.771 -0.6178  0.0518  0.5917
18867SOL    HW161921   1.864   5.698   7.710 -0.0440  0.8760  0.9929
18867SOL    HW261922   1.969   5.692   7.819 -0.2652 -0.8154  1.1344
18868SOL     OW61923  11.339   4.267   5.506 -0.5129 -0.0582 -0.4689
18868SOL    HW161924  11.415   4.284   5.561  1.1257 -4.6458 -0.9350
18868SOL    HW261925  11.265   4.304   5.555  1.2832 -0.7160  3.0465
18869SOL     OW61926   2.509   4.766   9.556 -0.1999  0.4886 -0.2688
18869SOL    HW161927   2.545   4.677   9.554 -1.2671 -0.1757  3.1425
18869SOL    HW261928   2.583   4.822   9.577  0.2420  0.2837 -1.2113
18870SOL     OW61929   9.058   0.472   2.266 -0.3149  0.1127 -0.0676
18870SOL    HW161930   9.141   0.468   2.314  0.5114 -1.2697 -1.4942
18870SOL    HW261931   9.054   0.561   2.232  0.5224  0.2280  0.1109
18871SOL     OW61932  10.473   6.701   2.979 -0.2408  0.4624  0.6683
18871SOL    HW161933  10.498   6.619   3.023  1.0944 -0.1508 -1.1296
18871SOL    HW261934  10.388   6.682   2.940  0.1707 -0.1766  0.0573
18872SOL     OW61935  10.576   0.080   9.850  0.6278  0.2192  0.4036
18872SOL    HW161936  10.583   0.173   9.871  2.3501  0.4379 -0.9392
18872SOL    HW261937  10.666   0.051   9.837  0.0803 -1.4992  0.1713
18873SOL     OW61938   3.514   3.360   8.166  0.1918 -0.1487 -0.0115
18873SOL    HW161939   3.510   3.424   8.095 -2.3181  1.8999  1.8082
18873SOL    HW261940   3.432   3.312   8.160  0.5787 -0.9100  0.6751
18874SOL     OW61941   8.494   8.398   5.610 -0.0201  0.4893  0.0697
18874SOL    HW161942   8.399   8.387   5.598 -0.2316  2.4148 -0.4745
18874SOL    HW261943   8.507   8.388   5.704 -1.0440  1.6828  0.3765
18875SOL     OW61944   8.719   8.525  10.894  1.3851  0.6741 -0.0294
18875SOL    HW161945   8.698   8.452  10.952  0.0126  0.2828 -0.9871
18875SOL    HW261946   8.789   8.491  10.837  2.7481  1.0673  1.3538
18876SOL     OW61947   0.135   0.965  11.395 -0.1628  0.0517 -0.3209
18876SOL    HW161948   0.159   0.935  11.483 -0.4012  0.6270 -0.0514
18876SOL    HW261949   0.194   1.038  11.377  0.6032 -0.7408 -1.0874
18877SOL     OW61950   2.336   1.509   3.622  0.5606  0.2545 -0.7871
18877SOL    HW161951   2.269   1.557   3.574  0.3542 -0.1996 -0.9595
18877SOL    HW261952   2.287   1.449   3.678  0.7765  1.2070  0.4636
18878SOL     OW61953   4.793   8.483   4.341  0.0791 -0.1323  0.1721
18878SOL    HW161954   4.715   8.509   4.291 -0.6265  1.0292  1.8076
18878SOL    HW261955   4.863   8.538   4.305 -0.1645 -0.1575 -0.3514
18879SOL     OW61956   1.203   6.445   9.143  0.0386  0.1849 -0.0599
18879SOL    HW161957   1.288   6.421   9.178 -1.1672 -1.2328  2.1421
18879SOL    HW261958   1.153   6.363   9.141 -1.7551  1.2021  0.2186
18880SOL     OW61959   5.350   1.789   5.131 -0.0315 -0.1795 -0.2717
18880SOL    HW161960   5.391   1.758   5.211 -0.0469  1.6699  0.5030
18880SOL    HW261961   5.257   1.768   5.141  0.0215 -0.2463  0.0619
18881SOL     OW61962   2.636  10.459   4.348  0.3575  0.3439  0.1956
18881SOL    HW161963   2.545  10.442   4.372  0.8346 -1.1396  1.0431
18881SOL    HW261964   2.647  10.416   4.263  0.2042  0.7468 -0.0302
18882SOL     OW61965   6.520   4.509   5.363  0.1062 -0.1435 -0.0960
18882SOL    HW161966   6.584   4.449   5.401  0.5911 -0.4912 -1.4218
18882SOL    HW261967   6.480   4.551   5.439  1.4888 -0.3328  0.7829
18883SOL     OW61968   7.735   2.704   7.560  0.1852  0.1363 -0.3147
18883SOL    HW161969   7.812   2.655   7.533 -0.4805 -1.8250  1.1047
18883SOL    HW261970   7.663   2.643   7.552 -0.9640  1.3909  0.0167
18884SOL     OW61971   8.347   2.428   4.113 -0.2469 -0.2555 -0.3750
18884SOL    HW161972   8.387   2.404   4.197  1.9025 -0.1796 -1.3164
18884SOL    HW261973   8.281   2.361   4.098  0.0498 -0.8679  0.8810
18885SOL     OW61974  10.698   5.182  11.498  0.1446  0.2510  0.0517
18885SOL    HW161975  10.663   5.271  11.496 -1.0957 -0.1259  2.0567
18885SOL    HW261976  10.750   5.179  11.578  1.6942 -0.3300 -0.9413
18886SOL     OW61977  11.601  11.791   6.513  0.2274  0.4913  0.0850
18886SOL    HW161978  11.532  11.808   6.449  0.1770 -0.2123 -0.0558
18886SOL    HW261979  11.555  11.789   6.597 -0.0782 -0.7539 -0.0814
18887SOL     OW61980   3.634   9.722   6.829  0.6666 -0.7687 -0.2413
18887SOL    HW161981   3.580   9.770   6.892 -0.0166 -0.8959 -0.7257
18887SOL    HW261982   3.639   9.633   6.865  0.5537 -0.7581 -0.2003
18888SOL     OW61983   4.428   6.776   4.371 -0.0030  0.1523  0.0052
18888SOL    HW161984   4.520   6.758   4.390 -0.3179 -1.2215  0.3479
18888SOL    HW261985   4.385   6.691   4.379 -1.2627  0.7275 -0.4128
18889SOL     OW61986   2.398   7.753   4.680 -0.6015 -0.1428  0.1265
18889SOL    HW161987   2.372   7.796   4.761 -1.0280  0.9176 -0.5451
18889SOL    HW261988   2.351   7.669   4.681 -2.3732  0.7868 -0.0089
18890SOL     OW61989   5.041  11.233   2.251 -0.2817  0.0310  0.1972
18890SOL    HW161990   5.003  11.320   2.268 -0.0930  0.3722 -1.0481
18890SOL    HW261991   5.136  11.247   2.253 -0.2485 -0.1786  0.1364
18891SOL     OW61992   1.494   9.117   7.467 -0.0541  0.2656  0.3530
18891SOL    HW161993   1.561   9.180   7.441 -0.4452  0.3785 -0.4229
18891SOL    HW261994   1.474   9.139   7.558 -2.0501  3.0136 -0.6044
18892SOL     OW61995   7.126   5.301   7.800  0.0516  0.5725  0.3503
18892SOL    HW161996   7.173   5.361   7.858  0.2768  0.3949  0.3534
18892SOL    HW261997   7.121   5.348   7.716 -0.7967  1.0762  0.6722
18893SOL     OW61998  10.915   7.562   0.726  0.3925 -0.0973  0.2479
18893SOL    HW161999  11.008   7.561   0.705  0.1073 -2.0915 -1.1675
18893SOL    HW262000  10.900   7.482   0.776 -0.3991  0.7634  1.4632
18894SOL     OW62001   9.444   1.903   8.702  0.2911 -0.0818 -0.0857
18894SOL    HW162002   9.517   1.842   8.695  0.1269 -0.6222  2.3196
18894SOL    HW262003   9.387   1.880   8.628  1.1688 -1.5623 -0.3399
18895SOL     OW62004   9.661  10.806   8.402  0.0488  0.1590 -0.0951
18895SOL    HW162005   9.611  10.832   8.325 -4.5316 -2.2074  1.7039
18895SOL    HW262006   9.665  10.886   8.455 -1.7125  0.5630 -0.4806
18896SOL     OW62007   1.765   5.853   7.657  0.0982 -0.1111  0.2761
18896SOL    HW162008   1.761   5.913   7.731 -1.1942  0.1197  0.0305
18896SOL    HW262009   1.796   5.907   7.583 -0.5078  0.1221  0.1901
18897SOL     OW62010  10.641  10.975  11.224  0.7675 -0.2315 -0.5022
18897SOL    HW162011  10.552  10.938  11.227  0.6823  0.0163  0.3518
18897SOL    HW262012  10.634  11.057  11.272  1.8162 -0.9942  1.0219
18898SOL     OW62013   9.939   0.331  11.601  0.1334 -0.1147  0.3635
18898SOL    HW162014   9.973   0.244  11.623 -1.9182 -1.2986 -0.8938
18898SOL    HW262015   9.981   0.353  11.518  0.2347 -0.1285  0.4105
18899SOL     OW62016   2.020   3.389  11.384 -0.4079  0.2780  0.1797
18899SOL    HW162017   2.053   3.464  11.335  0.6151 -1.8743 -2.7755
18899SOL    HW262018   2.093   3.362  11.439  0.5012 -0.4751 -1.3127
18900SOL     OW62019   7.194   8.455   6.691  0.0151  0.3420  0.6916
18900SOL    HW162020   7.270   8.424   6.740  1.0959 -0.7361 -1.5284
18900SOL    HW262021   7.164   8.532   6.740  2.8602  1.1302  1.3597
18901SOL     OW62022   0.516   0.922   6.079 -0.0563  0.2244 -0.3853
18901SOL    HW162023   0.580   0.950   6.144  0.5250  0.1442 -0.9057
18901SOL    HW262024   0.513   0.994   6.016 -0.0679 -0.0071 -0.6522
18902SOL     OW62025   0.815   5.462   0.775 -0.3032 -0.2897 -0.7244
18902SOL    HW162026   0.750   5.530   0.792 -1.3256 -1.8575  2.3195
18902SOL    HW262027   0.875   5.501   0.711 -0.7570  3.4996  0.9205
18903SOL     OW62028   4.440   5.449  10.149 -0.5229 -0.3472  0.4777
18903SOL    HW162029   4.357   5.413  10.181  0.5162 -1.7798  1.7240
18903SOL    HW262030   4.451   5.531  10.197 -0.6746 -0.7412  1.2049
18904SOL     OW62031   1.378   7.958   8.239  0.4933 -0.4547  0.2682
18904SOL    HW162032   1.376   7.878   8.187 -0.3016 -1.5055  1.8454
18904SOL    HW262033   1.290   7.993   8.233  0.0426 -1.2288  1.7969
18905SOL     OW62034   2.823   8.971  10.124 -0.5082 -0.0549 -0.3325
18905SOL    HW162035   2.887   8.900  10.114 -0.9757 -0.3946 -0.9654
18905SOL    HW262036   2.740   8.933  10.097 -0.6699  0.8980 -1.2613
18906SOL     OW62037   1.148   9.752   2.878  0.1234 -0.2357 -0.2144
18906SOL    HW162038   1.238   9.772   2.854  0.4883 -0.2998  1.0252
18906SOL    HW262039   1.127   9.674   2.827  1.1861 -0.9159  0.3465
18907SOL     OW62040  11.475   6.075   8.053  0.2749 -0.0701  0.1327
18907SOL    HW162041  11.552   6.054   8.106  0.5036 -0.8611 -0.4968
18907SOL    HW262042  11.428   6.141   8.104  0.4603 -0.8505  1.3521
18908SOL     OW62043   7.394   3.715   4.181 -0.8963  0.2462 -0.1900
18908SOL    HW162044   7.362   3.805   4.190  0.7324  0.9225 -0.8769
18908SOL    HW262045   7.430   3.711   4.093  0.9698 -0.4460  0.5660
18909SOL     OW62046   2.656   1.351   1.866  0.1105 -0.0414 -0.5510
18909SOL    HW162047   2.691   1.293   1.798  0.1127  1.5645 -1.9796
18909SOL    HW262048   2.721   1.348   1.936  0.3238 -1.4062 -0.7791
18910SOL     OW62049   5.919  11.795   2.510 -0.3031  0.7417  0.4767
18910SOL    HW162050   5.998  11.813   2.460 -1.3613  1.6223 -0.9590
18910SOL    HW262051   5.942  11.815   2.600  1.7865 -1.2392  0.4707
18911SOL     OW62052   2.053   8.203   7.797 -0.1331  0.1029  0.6919
18911SOL    HW162053   2.092   8.224   7.713  0.0127 -2.6031  0.0116
18911SOL    HW262054   2.077   8.277   7.854  2.4299  0.5070 -0.7847
18912SOL     OW62055   2.073   8.992   4.958  0.5580 -0.0028 -0.4540
18912SOL    HW162056   2.041   9.006   5.047  1.2553 -0.3892 -0.1337
18912SOL    HW262057   2.055   8.900   4.940 -1.4732  0.5430 -1.5092
18913SOL     OW62058   6.001   5.050  11.590  0.1219  0.1412  1.1254
18913SOL    HW162059   6.020   4.970  11.542  1.2293  1.0732 -0.0763
18913SOL    HW262060   6.084   5.073  11.632 -0.3448  0.3363  1.9533
18914SOL     OW62061  11.669   4.470   2.339  0.0632  0.0510  0.1800
18914SOL    HW162062  11.588   4.517   2.361 -0.1269  0.2807 -0.9341
18914SOL    HW262063  11.671   4.396   2.399 -0.7881  0.2534  0.4697
18915SOL     OW62064   8.209   4.668   7.285 -0.7133 -0.2810  0.3097
18915SOL    HW162065   8.131   4.696   7.237  0.7828  0.6422 -1.7388
18915SOL    HW262066   8.215   4.574   7.268  0.0104  0.0946 -1.7536
18916SOL     OW62067   7.816   4.800  11.022  0.4385 -0.3980 -0.1917
18916SOL    HW162068   7.733   4.846  11.034  0.5470 -0.5874  1.5098
18916SOL    HW262069   7.851   4.789  11.110  1.1169 -2.4374 -0.6424
18917SOL     OW62070  10.091   3.796   1.684  0.1441 -0.0954  0.6081
18917SOL    HW162071  10.180   3.787   1.719  0.5073  1.5926  0.1693
18917SOL    HW262072  10.035   3.771   1.758  0.9374 -1.9452  0.6614
18918SOL     OW62073   5.520   4.794   8.748 -0.7292  0.4461 -0.2731
18918SOL    HW162074   5.552   4.738   8.819  1.7204 -0.5970 -2.0292
18918SOL    HW262075   5.493   4.732   8.680 -0.6231  1.3943 -1.1918
18919SOL     OW62076   4.414   7.270   9.215  0.1430  0.2049  0.2722
18919SOL    HW162077   4.359   7.195   9.194  2.9683 -2.2760  1.0070
18919SOL    HW262078   4.402   7.281   9.310  0.5163 -0.0225  0.3476
18920SOL     OW62079  11.572  10.492   6.057  0.2338 -0.0964 -0.2241
18920SOL    HW162080  11.530  10.421   6.007  0.6668  0.0066 -0.7416
18920SOL    HW262081  11.641  10.524   5.999  1.5056 -0.7340  0.8907
18921SOL     OW62082   0.435   7.485   2.387  0.3749 -0.7222 -0.2038
18921SOL    HW162083   0.395   7.534   2.315 -0.2360 -1.6350 -0.5143
18921SOL    HW262084   0.372   7.416   2.407  1.7644 -2.2015 -0.6920
18922SOL     OW62085   4.421   1.427   8.927  0.1971  0.3081 -0.4504
18922SOL    HW162086   4.432   1.447   9.020 -0.3754 -0.2638 -0.2463
18922SOL    HW262087   4.455   1.503   8.881 -0.0854  0.8656  0.2474
18923SOL     OW62088  10.570   3.683   0.719 -0.1803 -0.0918 -0.7429
18923SOL    HW162089  10.516   3.628   0.663  1.3696  0.6188 -3.0950
18923SOL    HW262090  10.635   3.622   0.756 -0.6752 -0.4235 -0.4122
18924SOL     OW62091   1.869   1.127  10.731 -0.1465 -0.6059  0.0122
18924SOL    HW162092   1.957   1.090  10.722  0.2693  0.8168 -2.6970
18924SOL    HW262093   1.857   1.180  10.653 -2.7058  0.8080  1.2440
18925SOL     OW62094   7.422   8.836   9.414 -0.3475 -0.5211  0.1005
18925SOL    HW162095   7.433   8.771   9.344  0.5663  1.1828 -1.4100
18925SOL    HW262096   7.362   8.901   9.378 -1.3477 -0.5400  1.6406
18926SOL     OW62097  10.029   4.487   4.184 -0.0395  0.0033  0.0256
18926SOL    HW162098   9.977   4.415   4.146 -2.4551  0.8719  1.4589
18926SOL    HW262099  10.004   4.564   4.133  1.0064  0.2044 -0.2086
18927SOL     OW62100  10.054   2.475   2.655  0.5601 -0.1427  0.5600
18927SOL    HW162101  10.017   2.404   2.602  2.6264 -0.2866 -0.8230
18927SOL    HW262102  10.002   2.552   2.631 -1.8752 -1.1296  2.2656
18928SOL     OW62103  10.390  11.185   6.705 -0.1459 -0.1989 -0.3357
18928SOL    HW162104  10.384  11.279   6.687  0.4033  0.0235  0.5295
18928SOL    HW262105  10.381  11.143   6.620  0.4513  0.6872 -0.8551
18929SOL     OW62106   5.856  11.638   6.234  0.3688  0.3411 -0.0660
18929SOL    HW162107   5.891  11.550   6.250  1.9505  0.8461 -0.5700
18929SOL    HW262108   5.791  11.626   6.166 -0.6213 -0.6595  1.0034
18930SOL     OW62109   7.608   5.029  10.539  0.0317 -0.0295 -0.2889
18930SOL    HW162110   7.604   5.062  10.629 -0.0856  0.2593 -0.3979
18930SOL    HW262111   7.599   5.108  10.485  1.4720 -0.0247 -0.5542
18931SOL     OW62112   5.049   9.169   3.771 -0.8002  0.6073 -0.2115
18931SOL    HW162113   5.021   9.203   3.856  0.9055  1.9487 -0.1070
18931SOL    HW262114   5.137   9.134   3.788 -0.6004  0.5322 -1.3328
18932SOL     OW62115  11.664   6.613   5.699 -0.0200  0.6042  0.4628
18932SOL    HW162116  11.589   6.638   5.644 -1.4740  0.2833  2.2160
18932SOL    HW262117  11.709   6.695   5.718  0.2417  0.7740 -0.7929
18933SOL     OW62118   7.578   5.065   7.526  0.6263  0.1685  0.2536
18933SOL    HW162119   7.529   5.118   7.464  2.0716  0.2189 -0.9089
18933SOL    HW262120   7.541   4.977   7.518 -0.2022  0.4953  0.4460
18934SOL     OW62121   7.804   8.387   5.841 -0.1898 -0.0515  0.5956
18934SOL    HW162122   7.732   8.427   5.889 -1.1462 -1.1758  0.1557
18934SOL    HW262123   7.796   8.421   5.752 -0.1564 -0.1343  0.5601
18935SOL     OW62124   1.430   1.994   3.084  0.3039 -0.3673 -0.2647
18935SOL    HW162125   1.421   2.065   3.148  0.4222 -0.5706 -0.0258
18935SOL    HW262126   1.520   2.000   3.054 -0.3279  1.1774 -2.0954
18936SOL     OW62127   1.516   9.449   8.363 -0.3243  0.1113 -0.3396
18936SOL    HW162128   1.571   9.526   8.377  0.8502 -0.6236 -0.7402
18936SOL    HW262129   1.471   9.466   8.280 -0.7583  0.7498  0.0226
18937SOL     OW62130   5.590   8.124   9.550  0.5367  0.0024  0.0588
18937SOL    HW162131   5.514   8.145   9.605 -0.0397 -0.1903 -0.6579
18937SOL    HW262132   5.663   8.117   9.612  0.6374  3.2498  0.5086
18938SOL     OW62133   7.179  10.528  10.977  0.4554  0.0513 -0.1780
18938SOL    HW162134   7.156  10.618  11.000  0.7343 -0.5696  2.9638
18938SOL    HW262135   7.275  10.527  10.978  0.4610 -0.2322 -0.5765
18939SOL     OW62136   6.094   5.244   9.291  0.2192  0.5398  0.1724
18939SOL    HW162137   6.122   5.274   9.205 -0.2548 -0.7708 -0.4756
18939SOL    HW262138   6.042   5.165   9.273 -1.5472  1.3258  1.5226
18940SOL     OW62139   6.321   7.331   8.341  0.2685  0.4779 -0.4423
18940SOL    HW162140   6.309   7.236   8.344  0.3759  0.4758  1.9960
18940SOL    HW262141   6.391   7.349   8.404  1.0543  2.1080 -1.6803
18941SOL     OW62142   1.602   3.232   6.514 -0.2054  0.6002  0.1351
18941SOL    HW162143   1.589   3.305   6.455 -0.5384  0.7655  0.4098
18941SOL    HW262144   1.530   3.171   6.494  1.1901 -0.6188 -1.5052
18942SOL     OW62145   1.678   0.593   6.244 -0.2289  0.0832 -0.4892
18942SOL    HW162146   1.701   0.611   6.153  0.2979 -0.1978 -0.4182
18942SOL    HW262147   1.760   0.602   6.292 -0.7109  1.3687  0.1465
18943SOL     OW62148  10.606   3.514   5.684  0.4309  0.3329 -0.3292
18943SOL    HW162149  10.623   3.488   5.775 -2.2060 -0.6835 -0.0480
18943SOL    HW262150  10.642   3.603   5.678  1.0283  0.2689  1.5768
18944SOL     OW62151   3.464   5.589   6.663  0.4451 -0.1507  0.1229
18944SOL    HW162152   3.429   5.650   6.599 -1.1832 -0.5512  0.5920
18944SOL    HW262153   3.496   5.644   6.734  1.5928  0.2585 -0.6877
18945SOL     OW62154   7.869   5.079  11.331 -0.2527 -0.0471  0.0028
18945SOL    HW162155   7.872   5.174  11.340  1.1747 -0.2497  2.6920
18945SOL    HW262156   7.786   5.062  11.288 -0.9181  2.3899  0.1750
18946SOL     OW62157  10.228   2.503  10.350 -0.4160  0.9738 -0.3791
18946SOL    HW162158  10.314   2.491  10.390 -0.5668 -0.7017 -0.5052
18946SOL    HW262159  10.220   2.598  10.340  1.1901  1.1953  0.1001
18947SOL     OW62160   9.031   0.753   7.264  0.2110  0.0444 -0.3042
18947SOL    HW162161   8.978   0.819   7.220  0.4986  0.1527 -0.4904
18947SOL    HW262162   9.088   0.803   7.322  0.8736  0.0126 -0.9148
18948SOL     OW62163   0.511   5.750   4.761 -0.1177 -0.3370 -0.1664
18948SOL    HW162164   0.488   5.729   4.671 -2.4348  1.2165  0.0123
18948SOL    HW262165   0.579   5.817   4.754 -1.0680  0.5672 -0.7614
18949SOL     OW62166  11.389   0.471  11.678 -0.6957 -0.4534 -0.0162
18949SOL    HW162167  11.372   0.478  11.584  0.5265 -0.5843 -0.2740
18949SOL    HW262168  11.308   0.439  11.716 -0.9766 -1.1033 -1.1347
18950SOL     OW62169   7.701   1.622   0.306 -0.8529 -0.0385  0.0857
18950SOL    HW162170   7.662   1.708   0.321 -1.1239  0.0399 -0.9841
18950SOL    HW262171   7.664   1.593   0.223  1.9023  0.3495 -1.3848
18951SOL     OW62172   8.605  11.752  11.173 -0.1278 -0.4098  0.7643
18951SOL    HW162173   8.648  11.700  11.106  1.2125 -1.5171  2.4032
18951SOL    HW262174   8.532  11.794  11.128  1.6424  0.2055 -1.7543
18952SOL     OW62175   0.089   8.219   8.452  0.0901 -0.2980  0.3614
18952SOL    HW162176   0.000   8.184   8.442  0.5194 -0.7408 -2.8968
18952SOL    HW262177   0.146   8.148   8.424  1.3474  0.8186  0.0072
18953SOL     OW62178   9.364   3.358   1.241 -0.2933 -0.1295 -0.4897
18953SOL    HW162179   9.372   3.419   1.314 -0.6089 -2.1114  1.3173
18953SOL    HW262180   9.360   3.271   1.283 -1.0954 -1.3122 -2.8324
18954SOL     OW62181   5.011   6.309   9.340 -0.1089 -0.3609  0.4118
18954SOL    HW162182   5.008   6.214   9.330  0.2477 -0.3104 -0.2866
18954SOL    HW262183   4.940   6.329   9.401 -2.2694 -0.8075 -1.7693
18955SOL     OW62184   5.208   3.308   7.865  0.0867  0.1374 -0.1587
18955SOL    HW162185   5.261   3.240   7.909 -0.0524 -0.2740 -0.6196
18955SOL    HW262186   5.242   3.390   7.900  0.1051 -0.1730  0.5833
18956SOL     OW62187   9.341   7.059   2.877  0.6418  0.2336 -0.8271
18956SOL    HW162188   9.433   7.045   2.897  0.2208 -0.6566  0.5717
18956SOL    HW262189   9.293   7.006   2.940 -0.8814  1.7866 -0.5780
18957SOL     OW62190   7.750   1.836   0.847  0.5806 -0.1032  0.8894
18957SOL    HW162191   7.715   1.923   0.866  0.1338  0.3347 -1.5390
18957SOL    HW262192   7.843   1.851   0.830  0.5902 -0.1642  0.8886
18958SOL     OW62193   8.405  10.812  11.409  0.4102  0.2386 -0.1976
18958SOL    HW162194   8.454  10.731  11.397  1.2599  0.6235  0.4889
18958SOL    HW262195   8.335  10.789  11.470  1.4939  0.2860  1.1451
18959SOL     OW62196   0.733  10.874   9.010 -0.3936  0.2515 -0.2711
18959SOL    HW162197   0.749  10.779   9.012 -0.2611  0.2072 -1.9476
18959SOL    HW262198   0.817  10.911   8.980 -0.0967  1.0134  1.4211
18960SOL     OW62199   0.762   0.140   6.623 -0.4388  0.8086  0.3172
18960SOL    HW162200   0.753   0.200   6.697 -1.1055  1.4975 -0.3053
18960SOL    HW262201   0.793   0.195   6.551 -0.2254  0.2304 -0.0437
18961SOL     OW62202   3.367   9.418   9.212  0.0046 -0.0977  0.0417
18961SOL    HW162203   3.452   9.445   9.176 -0.7167 -0.3018 -1.9243
18961SOL    HW262204   3.303   9.451   9.149 -1.1658 -3.1314 -0.5355
18962SOL     OW62205   2.236   8.926   8.871  0.6627 -0.1302 -0.2411
18962SOL    HW162206   2.309   8.985   8.854  1.4461 -1.2246 -0.7902
18962SOL    HW262207   2.264   8.842   8.834 -0.9841 -0.5095 -0.6873
18963SOL     OW62208   0.263   1.026   8.649  0.0665 -0.9314  0.1667
18963SOL    HW162209   0.188   1.000   8.594  1.5752 -0.9977 -2.0061
18963SOL    HW262210   0.235   1.008   8.738 -2.8445 -0.1019 -0.4739
18964SOL     OW62211   1.549   0.116   7.271 -0.0775  0.1283 -0.3499
18964SOL    HW162212   1.564   0.088   7.181  1.1354 -0.4183  0.0015
18964SOL    HW262213   1.453   0.120   7.280 -0.2335 -0.9119 -1.3234
18965SOL     OW62214   8.804  10.675   4.871  0.4574 -0.6440 -0.0146
18965SOL    HW162215   8.737  10.728   4.915 -1.6344 -2.7917 -0.4226
18965SOL    HW262216   8.887  10.710   4.903 -0.8502  1.4747  1.3146
18966SOL     OW62217   0.225   4.206   6.085 -0.0691  0.1433  0.0990
18966SOL    HW162218   0.268   4.214   6.170 -0.2945  2.5912  0.0521
18966SOL    HW262219   0.137   4.174   6.105  0.0563  0.1866  0.7347
18967SOL     OW62220   7.989   6.502   2.326 -0.4751  0.5739  0.1542
18967SOL    HW162221   7.997   6.457   2.410 -0.8537  0.2410  0.0174
18967SOL    HW262222   7.941   6.582   2.346  0.2643  0.9592  0.4116
18968SOL     OW62223  11.319   4.710   8.853 -0.2265 -0.0725 -0.2520
18968SOL    HW162224  11.291   4.763   8.779  0.3737  0.9488  0.2276
18968SOL    HW262225  11.238   4.696   8.904 -0.2111  1.3662  0.2082
18969SOL     OW62226   3.615   5.634   4.484  0.0396  0.9676 -0.5892
18969SOL    HW162227   3.611   5.628   4.389  1.8270  2.8198 -0.8416
18969SOL    HW262228   3.705   5.610   4.507 -0.5734 -0.2524  0.7539
18970SOL     OW62229   2.636   4.916   6.275 -0.2119  0.3176  0.2454
18970SOL    HW162230   2.635   4.871   6.359 -2.9858 -0.3136 -0.0448
18970SOL    HW262231   2.654   4.847   6.211 -1.5891  0.1015  0.0583
18971SOL     OW62232   5.849   9.037   7.174  0.8638  0.1156 -0.1536
18971SOL    HW162233   5.859   8.974   7.245  1.6134 -1.6721 -1.7358
18971SOL    HW262234   5.858   8.984   7.094 -1.0711  1.8276 -1.6166
18972SOL     OW62235   8.536   7.589   2.917  0.0972  0.2443 -0.1600
18972SOL    HW162236   8.475   7.633   2.857 -0.6582  0.7076  0.9220
18972SOL    HW262237   8.607   7.652   2.929  0.6659 -0.1809 -1.1977
18973SOL     OW62238   8.971   1.103   1.006 -0.0641 -0.2824 -0.2711
18973SOL    HW162239   8.911   1.036   0.974  0.2742  0.4572 -2.6079
18973SOL    HW262240   9.030   1.119   0.933 -0.2151  2.6574  0.1373
18974SOL     OW62241   3.378   2.566   3.795 -0.3234  0.8845  0.1886
18974SOL    HW162242   3.448   2.569   3.860 -0.5669  1.4895  0.4335
18974SOL    HW262243   3.367   2.657   3.768 -1.6068  0.9355  0.7983
18975SOL     OW62244   8.258   9.959   8.745  0.4821 -0.3499 -0.2648
18975SOL    HW162245   8.196  10.023   8.779  1.2574  0.2392  0.0695
18975SOL    HW262246   8.342   9.983   8.785  1.3467  0.1100 -2.2658
18976SOL     OW62247   7.562   9.506   6.497  0.1452 -0.0036 -0.3392
18976SOL    HW162248   7.491   9.485   6.557  0.2436  0.0519 -0.2017
18976SOL    HW262249   7.619   9.429   6.500  0.6480  0.3787  0.3710
18977SOL     OW62250   8.650   1.227   7.673 -0.3305  0.3811  0.1779
18977SOL    HW162251   8.604   1.251   7.753 -1.2166 -1.8014  0.3931
18977SOL    HW262252   8.587   1.246   7.603 -0.3513  0.3625  0.1915
18978SOL     OW62253   6.263   4.205   0.628 -0.3772  0.2434 -0.0458
18978SOL    HW162254   6.253   4.160   0.544 -1.3880  0.6434 -0.1515
18978SOL    HW262255   6.357   4.224   0.633 -0.1602 -0.6005 -0.6548
18979SOL     OW62256   9.574   0.609   0.073 -0.0990  0.1407 -0.7259
18979SOL    HW162257   9.559   0.703   0.073 -1.3972 -0.0458 -0.0829
18979SOL    HW262258   9.523   0.576  -0.001  0.8253 -0.0048 -1.3154
18980SOL     OW62259   2.800   1.775   2.185 -0.5852 -0.1740  0.1439
18980SOL    HW162260   2.745   1.697   2.191  0.3751 -0.8630  0.3690
18980SOL    HW262261   2.878   1.745   2.137  0.0236  0.5026  0.6849
18981SOL     OW62262  10.558   1.329   5.892 -0.1870 -1.0226  0.2211
18981SOL    HW162263  10.501   1.252   5.900 -2.9171  0.9626  1.7211
18981SOL    HW262264  10.576   1.355   5.982 -1.7949  1.6578 -0.1295
18982SOL     OW62265   9.003   0.189   8.577 -0.2050  0.0839 -0.0666
18982SOL    HW162266   8.979   0.279   8.557 -0.7894  0.1333  0.7967
18982SOL    HW262267   9.096   0.183   8.556 -0.4947  0.4627 -1.5270
18983SOL     OW62268   0.844   8.542   7.221  0.0268  0.2834  0.1466
18983SOL    HW162269   0.826   8.448   7.230 -1.2399  0.0473 -3.2475
18983SOL    HW262270   0.937   8.546   7.198  0.8836  0.2254  3.1896
18984SOL     OW62271   0.478   6.992   9.553 -0.3546 -0.3987  0.0357
18984SOL    HW162272   0.425   6.913   9.565  1.4814 -1.3942  2.4148
18984SOL    HW262273   0.463   7.043   9.633  0.1138  0.6444 -0.5235
18985SOL     OW62274   9.877   2.845  10.723  0.0965 -0.4318 -0.3379
18985SOL    HW162275   9.819   2.921  10.729  1.0245  0.1922  1.5279
18985SOL    HW262276   9.824   2.771  10.754 -0.2630 -0.2091 -0.4179
18986SOL     OW62277   2.346   9.694   9.283 -0.2245 -0.4885 -0.5408
18986SOL    HW162278   2.268   9.643   9.305  0.1545 -1.2962 -1.0535
18986SOL    HW262279   2.359   9.679   9.190  0.2227  0.0982 -0.5751
18987SOL     OW62280   9.346   8.748   9.080 -0.8226 -0.1878  0.4701
18987SOL    HW162281   9.291   8.695   9.138 -1.5124 -0.1912 -0.1762
18987SOL    HW262282   9.338   8.707   8.995 -1.7268  1.1999 -0.1465
18988SOL     OW62283   3.992   1.674   2.439  0.3409 -0.1472 -0.6898
18988SOL    HW162284   4.037   1.746   2.482 -0.6663  0.1359 -0.0646
18988SOL    HW262285   3.901   1.705   2.429 -0.0680 -1.2529 -0.5482
18989SOL     OW62286   1.694   4.509   9.430 -0.7225  0.0422 -0.1293
18989SOL    HW162287   1.751   4.494   9.355 -0.4147 -0.3406  0.1776
18989SOL    HW262288   1.750   4.552   9.495 -0.7762 -0.3559  0.1828
18990SOL     OW62289   7.077   6.760   0.198 -0.4651 -0.4633  0.5929
18990SOL    HW162290   7.079   6.802   0.112 -0.9424  1.1043  1.2971
18990SOL    HW262291   7.092   6.668   0.180 -0.2955 -0.1412 -1.1437
18991SOL     OW62292  10.179   8.252   0.567 -0.8230 -0.3182  0.2681
18991SOL    HW162293  10.175   8.183   0.501  1.9633  0.6511 -1.1091
18991SOL    HW262294  10.273   8.259   0.587 -1.1311  2.3405  1.0982
18992SOL     OW62295   0.672   0.263   2.597  0.2161  1.0141  0.3522
18992SOL    HW162296   0.760   0.240   2.628  0.7248  2.0974 -0.2243
18992SOL    HW262297   0.657   0.206   2.522  1.3860  2.3635 -0.9586
18993SOL     OW62298   4.844  11.269   9.571 -0.2281 -0.0847 -0.1233
18993SOL    HW162299   4.921  11.317   9.543  0.7028 -0.6306  1.3716
18993SOL    HW262300   4.776  11.292   9.508  0.8453  1.2846 -0.8100
18994SOL     OW62301   7.579   5.534  10.589  0.6225 -0.7883  0.1116
18994SOL    HW162302   7.642   5.512  10.658  1.1002  1.1725  0.3398
18994SOL    HW262303   7.548   5.622  10.611 -1.1019 -1.1089 -0.8252
18995SOL     OW62304   7.421   6.500   8.579 -0.0918 -0.3638 -0.3833
18995SOL    HW162305   7.503   6.484   8.625 -0.2324  0.8003  0.3317
18995SOL    HW262306   7.447   6.530   8.492  0.4060  2.4387  0.6019
18996SOL     OW62307   4.869   3.586  11.186 -0.5703  0.3942 -0.3082
18996SOL    HW162308   4.870   3.665  11.131 -0.2636  1.2670  0.9115
18996SOL    HW262309   4.916   3.611  11.265  2.1405 -1.8871 -1.0342
18997SOL     OW62310   5.531   5.082  10.228 -0.0867 -0.0609  0.1115
18997SOL    HW162311   5.520   5.175  10.211 -1.4803 -0.1517  0.4031
18997SOL    HW262312   5.624   5.072  10.246  0.2843  1.0916 -0.9777
18998SOL     OW62313   6.881   1.893   0.037 -0.6544  0.0216 -0.3584
18998SOL    HW162314   6.809   1.839   0.005  0.5450 -0.5228 -2.3821
18998SOL    HW262315   6.929   1.836   0.097 -0.3533 -0.6263 -1.1865
18999SOL     OW62316   2.028  10.476   9.604 -0.5074  0.0631 -0.4060
18999SOL    HW162317   2.083  10.478   9.525  1.2260  0.0955  0.7503
18999SOL    HW262318   2.026  10.384   9.629  0.3258  0.2499  0.4053
19000SOL     OW62319   9.596  10.724   5.610 -0.2549  0.0269 -0.5084
19000SOL    HW162320   9.569  10.648   5.559 -1.1429 -0.0676  0.0729
19000SOL    HW262321   9.662  10.692   5.670  0.0608 -0.0788 -0.9114
19001SOL     OW62322   6.636   6.974  11.421 -1.0767  0.4754 -0.0709
19001SOL    HW162323   6.623   6.946  11.512 -1.8014  1.2707  0.0847
19001SOL    HW262324   6.547   6.988  11.387 -0.8108  0.2603 -0.8817
19002SOL     OW62325   0.875   0.727   1.358 -0.1545 -0.1260 -0.0158
19002SOL    HW162326   0.786   0.710   1.330  0.0856 -1.4404 -0.0373
19002SOL    HW262327   0.924   0.737   1.277 -0.1315 -0.2680 -0.0203
19003SOL     OW62328   3.316   1.440   2.150 -0.2561  0.4977 -0.1343
19003SOL    HW162329   3.242   1.382   2.128 -2.2244  2.3367  1.2036
19003SOL    HW262330   3.291   1.479   2.234  0.7127  3.5866 -1.1367
19004SOL     OW62331   0.270   7.463   5.290  0.3889 -0.2002  0.0180
19004SOL    HW162332   0.312   7.388   5.248  0.5061  0.5873 -1.3299
19004SOL    HW262333   0.218   7.425   5.361  1.7816 -1.3732  0.4452
19005SOL     OW62334   7.880   3.176   7.750 -0.2212  0.4611  0.1648
19005SOL    HW162335   7.844   3.206   7.667 -0.0231  1.3155  0.3745
19005SOL    HW262336   7.900   3.256   7.798  2.8490  0.1085 -0.3281
19006SOL     OW62337   1.974  11.211   9.599 -0.0440  0.0339 -0.4642
19006SOL    HW162338   2.015  11.136   9.555 -0.1123  0.7548 -1.8236
19006SOL    HW262339   1.947  11.269   9.527 -1.0226  0.8317  0.5098
19007SOL     OW62340   5.286   1.148   2.952 -0.8224 -0.1144 -0.3291
19007SOL    HW162341   5.206   1.113   2.992  0.1723 -2.8027 -0.4650
19007SOL    HW262342   5.298   1.096   2.872  0.7225  0.6705 -0.6568
19008SOL     OW62343   1.446   3.819   7.465 -0.3957 -0.4112  0.5821
19008SOL    HW162344   1.412   3.782   7.384  0.0731  0.7308 -0.1722
19008SOL    HW262345   1.429   3.913   7.456 -0.2205 -0.2590  1.7556
19009SOL     OW62346   3.799   1.049   5.976 -0.3903  0.3648  0.0211
19009SOL    HW162347   3.801   0.997   6.056  1.4175 -0.2768 -0.3897
19009SOL    HW262348   3.741   0.999   5.917 -0.4580 -0.0044  0.3951
19010SOL     OW62349   5.493   9.688  11.307 -0.8068 -0.1052  0.6283
19010SOL    HW162350   5.432   9.719  11.373 -1.3386 -1.1771  0.6534
19010SOL    HW262351   5.439   9.644  11.242 -0.1152 -0.6359  0.3982
19011SOL     OW62352   8.729   8.434  10.218 -0.0465 -0.6018 -0.6608
19011SOL    HW162353   8.702   8.412  10.129 -0.7621  0.4861 -0.7224
19011SOL    HW262354   8.750   8.349  10.258  0.2964 -1.0975 -1.8529
19012SOL     OW62355   4.896  10.842   1.519 -0.7195 -0.5171  0.1915
19012SOL    HW162356   4.873  10.926   1.479  0.6475 -0.0822  0.2550
19012SOL    HW262357   4.912  10.784   1.444 -0.1711 -0.2805  0.1187
19013SOL     OW62358   7.754   9.840   8.692 -0.2911 -0.2639  0.3498
19013SOL    HW162359   7.828   9.798   8.648  1.2630  2.0654  0.5544
19013SOL    HW262360   7.760   9.811   8.783  0.4652 -0.0103  0.3874
19014SOL     OW62361   0.074   0.315  10.319  0.5136 -0.3477 -0.0347
19014SOL    HW162362   0.157   0.309  10.271 -0.0465  0.2004 -1.0918
19014SOL    HW262363   0.065   0.229  10.361  1.5588 -0.4512  0.0078
19015SOL     OW62364   8.540   0.503   6.840 -0.3083 -0.1684 -0.0226
19015SOL    HW162365   8.466   0.558   6.813  0.2735  0.7977  0.3122
19015SOL    HW262366   8.514   0.414   6.814 -1.4558  0.1897 -0.1815
19016SOL     OW62367   1.196   9.306   4.847  0.5580  0.0804  0.0699
19016SOL    HW162368   1.274   9.359   4.830  1.3408  0.4795  4.0757
19016SOL    HW262369   1.228   9.233   4.901 -1.3658 -1.6654 -1.0236
19017SOL     OW62370   2.979   9.239   2.871  0.5544  0.4493  0.1121
19017SOL    HW162371   3.033   9.173   2.827 -0.7100 -0.5393 -0.0187
19017SOL    HW262372   2.981   9.215   2.963 -0.2223 -0.0247  0.0143
19018SOL     OW62373   5.634   6.757   7.104  0.3547  0.3876  0.1660
19018SOL    HW162374   5.687   6.725   7.031  1.8186 -0.6208  1.6134
19018SOL    HW262375   5.554   6.704   7.101  1.3639 -1.2026  0.5933
19019SOL     OW62376   8.006   3.512  11.217  0.2045 -0.3945 -0.3625
19019SOL    HW162377   7.994   3.541  11.127  1.3060  0.1420 -0.3620
19019SOL    HW262378   7.919   3.483  11.246 -0.3843  0.4558 -1.2364
19020SOL     OW62379   3.952  10.999  11.258  0.1191 -0.1567 -0.0152
19020SOL    HW162380   3.900  10.919  11.263  0.1706 -0.2255 -0.4754
19020SOL    HW262381   3.901  11.064  11.306 -0.3555 -0.2460 -0.3901
19021SOL     OW62382   3.997  11.101   3.478 -0.1223  0.6670 -0.8910
19021SOL    HW162383   3.999  11.183   3.528 -0.3556 -0.6020  1.3666
19021SOL    HW262384   4.036  11.036   3.538  1.5048 -0.6063 -3.1680
19022SOL     OW62385   7.103   2.922   4.166  0.0259 -0.2160 -0.0393
19022SOL    HW162386   7.147   2.868   4.232 -1.5616 -1.2544  0.2245
19022SOL    HW262387   7.012   2.925   4.194 -0.4546  0.3113 -1.5477
19023SOL     OW62388   0.987   2.691   7.652 -0.3280 -0.7456 -0.2991
19023SOL    HW162389   0.975   2.674   7.558 -1.1204 -0.1797 -0.3149
19023SOL    HW262390   1.068   2.646   7.674  0.0361 -0.6239 -1.3231
19024SOL     OW62391   2.661   7.645   3.400  0.3441  0.3280  0.2427
19024SOL    HW162392   2.587   7.624   3.457  0.5533  1.8864  1.1799
19024SOL    HW262393   2.680   7.564   3.353 -3.5744  0.4825 -1.9803
19025SOL     OW62394  11.495   9.113   0.459 -0.3570 -0.1438 -0.0494
19025SOL    HW162395  11.409   9.131   0.497 -0.4529 -1.0218  0.1775
19025SOL    HW262396  11.508   9.019   0.472  0.0684 -0.2695 -1.2560
19026SOL     OW62397   9.746   4.495   5.994 -0.1518 -0.2275 -0.7757
19026SOL    HW162398   9.768   4.570   6.050 -1.3244 -0.6301  0.2688
19026SOL    HW262399   9.650   4.498   5.987 -0.1606 -1.2805 -1.2338
19027SOL     OW62400  11.129   2.511  11.645 -0.2672 -0.0491  0.6126
19027SOL    HW162401  11.123   2.427  11.601  0.5382 -0.2752  0.9216
19027SOL    HW262402  11.118   2.576  11.575  3.0016 -0.3614 -0.3323
19028SOL     OW62403  11.460  11.140   8.676  0.0889  0.2569 -0.0288
19028SOL    HW162404  11.519  11.155   8.750 -0.0562 -0.4042  0.2349
19028SOL    HW262405  11.405  11.066   8.704  0.7463 -0.7164 -1.2067
19029SOL     OW62406  10.797   9.586   4.315 -0.3272  0.4935 -0.7302
19029SOL    HW162407  10.837   9.673   4.323  0.2474  0.4029 -2.2102
19029SOL    HW262408  10.868   9.530   4.282 -1.2288 -0.0327 -1.8616
19030SOL     OW62409   3.269   2.182   8.612  0.0531  0.2910 -0.0135
19030SOL    HW162410   3.246   2.213   8.525 -0.9846  1.4654  0.6372
19030SOL    HW262411   3.201   2.118   8.633 -0.0276  0.4217  0.1335
19031SOL     OW62412   6.611   8.202   1.698 -0.0781 -0.2291  0.2044
19031SOL    HW162413   6.621   8.123   1.645  0.1355 -0.6099  0.8150
19031SOL    HW262414   6.516   8.215   1.703 -0.0990 -0.1046 -0.3885
19032SOL     OW62415   7.329   6.118   3.248  0.1356 -0.2336  0.1818
19032SOL    HW162416   7.343   6.024   3.248 -0.0890 -0.2651  0.1551
19032SOL    HW262417   7.235   6.130   3.238  0.2797  0.0148 -1.0479
19033SOL     OW62418   9.984   6.648   8.543  0.1593  0.0249  0.0668
19033SOL    HW162419   9.998   6.607   8.628 -0.9101  0.4654  0.4768
19033SOL    HW262420  10.067   6.691   8.522 -0.3081  2.1723  2.1761
19034SOL     OW62421   9.395   1.866   5.688  0.0920 -0.1514  0.1729
19034SOL    HW162422   9.416   1.786   5.737  1.5295  0.4773  0.6578
19034SOL    HW262423   9.433   1.850   5.601  0.2656 -0.0590  0.2305
19035SOL     OW62424   7.657   2.943   7.491  0.4623  0.3760 -0.1360
19035SOL    HW162425   7.626   2.970   7.404  0.4902  1.0847  0.0675
19035SOL    HW262426   7.679   2.850   7.480  0.1400  0.3634 -0.7952
19036SOL     OW62427   1.876   4.756   5.724 -0.1816  0.1192 -0.0017
19036SOL    HW162428   1.935   4.690   5.760  0.5368  0.6827 -0.1268
19036SOL    HW262429   1.923   4.792   5.649 -2.0358 -1.6994 -2.1796
19037SOL     OW62430   7.283  10.492   3.618  0.4946 -0.2330 -0.7708
19037SOL    HW162431   7.308  10.584   3.622  0.9945 -0.3164 -1.7004
19037SOL    HW262432   7.218  10.489   3.547  0.2232 -0.5370 -0.5089
19038SOL     OW62433   8.437   9.440   6.917  0.1688 -0.1820 -0.1655
19038SOL    HW162434   8.439   9.381   6.992 -0.6603  1.3182  1.1069
19038SOL    HW262435   8.351   9.483   6.923  0.0367 -0.1204 -2.0545
19039SOL     OW62436   0.749  10.484  10.544  0.2594 -0.0729  0.3893
19039SOL    HW162437   0.738  10.576  10.523 -1.4341 -0.2333  0.4240
19039SOL    HW262438   0.833  10.479  10.589  0.6790  1.3364 -0.2034
19040SOL     OW62439   3.858   6.881  11.514 -0.1900  0.6470  0.2970
19040SOL    HW162440   3.818   6.801  11.480  2.7005 -0.3142 -1.2411
19040SOL    HW262441   3.785   6.939  11.533 -2.2953 -1.3850 -1.0799
19041SOL     OW62442   2.189  11.632   3.777 -0.0075  0.8221 -0.2331
19041SOL    HW162443   2.134  11.710   3.769  0.8363  1.4561  0.0594
19041SOL    HW262444   2.171  11.582   3.698  0.6934  2.1350 -1.2666
19042SOL     OW62445   8.168   8.457   1.908 -0.2002 -0.2815 -0.3969
19042SOL    HW162446   8.090   8.511   1.895  0.7135  1.3103  0.5383
19042SOL    HW262447   8.171   8.401   1.830 -2.8034 -1.1211 -0.0065
19043SOL     OW62448   4.123   8.744   2.064  0.6575 -0.1368  0.5655
19043SOL    HW162449   4.139   8.837   2.082  1.1015 -0.1473  0.2565
19043SOL    HW262450   4.198   8.717   2.011 -0.3990 -0.1760 -1.0010
19044SOL     OW62451  11.522   8.554   7.562  0.1971 -1.0076 -0.1347
19044SOL    HW162452  11.436   8.594   7.569  1.8240  2.7829  0.6528
19044SOL    HW262453  11.547   8.535   7.653  0.6739 -0.8665 -0.2325
19045SOL     OW62454   9.676   5.551   8.536 -0.3527  0.2054 -0.7854
19045SOL    HW162455   9.604   5.531   8.595 -0.0580 -1.5696 -0.9833
19045SOL    HW262456   9.634   5.575   8.454 -0.7338  1.2817 -0.2946
19046SOL     OW62457   7.350  10.902   3.875  0.1701  0.1704 -0.0026
19046SOL    HW162458   7.403  10.822   3.864  0.5881  0.4629 -0.1611
19046SOL    HW262459   7.260  10.871   3.876  0.2555 -0.1692 -1.4268
19047SOL     OW62460  10.390   9.555   2.463 -0.0783 -0.0114  0.2975
19047SOL    HW162461  10.309   9.604   2.449  0.4370  0.5779 -0.7659
19047SOL    HW262462  10.396   9.496   2.388  2.3882  2.7135 -1.9336
19048SOL     OW62463   2.123   9.267   7.059  0.6585 -0.1851 -0.4915
19048SOL    HW162464   2.102   9.177   7.086  1.7463 -0.8203 -1.6247
19048SOL    HW262465   2.181   9.299   7.128 -3.1435  1.3649  2.3284
19049SOL     OW62466   6.910   1.620  10.065  0.5755 -0.1743 -0.3169
19049SOL    HW162467   6.873   1.696  10.019 -0.4873  1.0447  2.3674
19049SOL    HW262468   7.003   1.640  10.073  0.4483  0.4579 -0.3691
19050SOL     OW62469  11.648   0.033   7.431  0.0331 -0.1679 -0.0113
19050SOL    HW162470  11.660   0.054   7.338 -3.3693 -1.0356 -0.7659
19050SOL    HW262471  11.676  -0.058   7.439 -2.5281 -1.1243 -0.9897
19051SOL     OW62472   7.135   5.100   7.535  0.3212 -0.1355  0.1487
19051SOL    HW162473   7.043   5.094   7.510  0.9202  0.6924 -2.5170
19051SOL    HW262474   7.135   5.089   7.630 -3.0777  4.7936  1.0916
19052SOL     OW62475   6.603   6.849  11.669 -0.4681 -0.2138 -0.4709
19052SOL    HW162476   6.533   6.788  11.694  0.5332 -0.1592  2.9151
19052SOL    HW262477   6.683   6.808  11.700  0.4106  2.0625  0.4939
19053SOL     OW62478   3.834   6.268   6.220  0.1934 -0.0048  0.1066
19053SOL    HW162479   3.820   6.277   6.314 -1.8504  0.2566 -0.1748
19053SOL    HW262480   3.786   6.341   6.182  0.0792 -0.7272 -1.1898
19054SOL     OW62481   7.950   4.779   7.419 -0.4038 -0.7423 -0.3731
19054SOL    HW162482   7.929   4.794   7.327 -1.7727 -0.3169 -0.0216
19054SOL    HW262483   7.936   4.864   7.461  1.0533 -0.7152  0.1020
19055SOL     OW62484   9.091   1.133   4.470  0.3958  0.2452  0.3121
19055SOL    HW162485   9.104   1.039   4.466  1.3263  0.3000  1.3664
19055SOL    HW262486   8.998   1.144   4.488  0.5627 -0.5624  1.8580
19056SOL     OW62487   2.528   7.554   0.632  0.2660 -0.4824 -0.2292
19056SOL    HW162488   2.456   7.538   0.570  0.4259 -0.3873 -0.4431
19056SOL    HW262489   2.506   7.502   0.709 -0.5455  0.3287  0.1025
19057SOL     OW62490   2.814   1.088   4.732  0.6022  0.7978 -0.1625
19057SOL    HW162491   2.876   1.147   4.689  0.5709 -0.3817 -1.8771
19057SOL    HW262492   2.728   1.122   4.708  0.5435  1.3961  0.7933
19058SOL     OW62493   7.182   4.813   3.652 -0.1477  0.1062  0.7425
19058SOL    HW162494   7.213   4.885   3.597 -0.4761 -0.8935 -0.8013
19058SOL    HW262495   7.089   4.831   3.665  0.0318  0.6023  1.4236
19059SOL     OW62496   7.149  11.223   6.556 -0.1765 -0.1678  0.4088
19059SOL    HW162497   7.210  11.149   6.559  2.5147  1.8419 -0.3913
19059SOL    HW262498   7.158  11.264   6.643  0.6759  0.8686 -0.1411
19060SOL     OW62499   7.328   4.132   4.696 -0.1308 -0.4045 -0.7180
19060SOL    HW162500   7.294   4.045   4.674  1.3156 -1.2646  0.3007
19060SOL    HW262501   7.422   4.126   4.678 -0.0920  1.1432 -1.1499
19061SOL     OW62502   1.405  11.020   0.446 -0.3322  0.1542 -0.6437
19061SOL    HW162503   1.450  11.008   0.529 -1.7463 -1.9007 -0.0960
19061SOL    HW262504   1.454  11.089   0.401  0.4694  1.3052  1.8515
19062SOL     OW62505   5.525   1.204  11.515  0.5163  0.1472 -0.2079
19062SOL    HW162506   5.533   1.199  11.420  0.7986  2.6319 -0.3779
19062SOL    HW262507   5.480   1.288  11.531 -3.0711 -1.8868  1.7155
19063SOL     OW62508   5.420  10.285   5.162 -0.4902 -0.1309 -0.2343
19063SOL    HW162509   5.436  10.350   5.093 -1.2579 -0.1034 -0.3933
19063SOL    HW262510   5.371  10.333   5.229  1.2722  0.1614  0.8959
19064SOL     OW62511   4.437   0.901   6.941 -0.3662 -0.3415 -0.3726
19064SOL    HW162512   4.514   0.888   6.885  0.0690  0.8926 -0.0934
19064SOL    HW262513   4.472   0.938   7.022 -1.1976 -0.2250 -0.0579
19065SOL     OW62514   7.733   6.631   0.893  0.0223  0.3642 -0.4252
19065SOL    HW162515   7.751   6.605   0.803 -1.5307 -1.9505 -0.1406
19065SOL    HW262516   7.799   6.698   0.912  0.0140  1.3807 -3.4413
19066SOL     OW62517   6.166   4.018   9.949 -0.9774  0.0187  0.1604
19066SOL    HW162518   6.147   4.075  10.023 -0.4599 -1.6319  1.6098
19066SOL    HW262519   6.244   3.969   9.975 -1.1056 -0.9944 -1.2374
19067SOL     OW62520   6.344   4.295   1.477  0.6832  0.1852 -0.3482
19067SOL    HW162521   6.256   4.299   1.514  1.0327  2.6553  0.3956
19067SOL    HW262522   6.333   4.327   1.387  0.8628  1.1200 -0.0563
19068SOL     OW62523   4.093   7.625   1.818  0.7819 -0.4272 -0.0044
19068SOL    HW162524   4.043   7.570   1.759  1.2029  0.2296 -0.9991
19068SOL    HW262525   4.087   7.713   1.781  2.3580 -0.2683  0.0322
19069SOL     OW62526   8.493   4.814   1.338 -0.5463 -0.8699 -0.0845
19069SOL    HW162527   8.406   4.792   1.372 -1.0936 -0.3879 -1.1315
19069SOL    HW262528   8.483   4.903   1.304 -0.1594 -1.4838 -1.8955
19070SOL     OW62529   4.756   9.861   1.157  0.4617 -0.0559 -0.2830
19070SOL    HW162530   4.771   9.774   1.194 -0.3370 -0.4761 -0.9059
19070SOL    HW262531   4.666   9.858   1.124  0.3504  1.0795 -0.1270
19071SOL     OW62532   1.401   0.906   3.393  0.3681  0.2472  0.2926
19071SOL    HW162533   1.344   0.877   3.464  0.1553  0.2422  0.1219
19071SOL    HW262534   1.394   0.837   3.326  0.2146  0.4684  0.0780
19072SOL     OW62535   2.276   5.702   4.055  0.6569  0.3259  0.2853
19072SOL    HW162536   2.311   5.710   3.966  2.2297 -2.1270  0.5840
19072SOL    HW262537   2.353   5.685   4.109 -0.4510  0.1252  1.8484
19073SOL     OW62538   0.626   6.262   3.341  0.2612  0.6203 -0.2826
19073SOL    HW162539   0.584   6.297   3.419  0.8957  0.9692 -0.0915
19073SOL    HW262540   0.719   6.255   3.364  0.3882  0.3140 -0.8564
19074SOL     OW62541   1.599   3.248  11.554  0.0224  0.4893 -0.6520
19074SOL    HW162542   1.568   3.242  11.644  0.2863  3.0260 -0.3085
19074SOL    HW262543   1.691   3.221  11.559 -0.0572  0.2869 -0.2163
19075SOL     OW62544   4.729   0.516  10.539  0.0697 -0.0029  0.2672
19075SOL    HW162545   4.685   0.466  10.470 -0.4792 -1.3294  1.5320
19075SOL    HW262546   4.719   0.608  10.512 -0.9167 -0.4406 -0.9437
19076SOL     OW62547   1.481   2.174  10.095 -0.0135  0.1433 -0.1814
19076SOL    HW162548   1.498   2.158  10.188  0.1901 -0.8488 -0.3839
19076SOL    HW262549   1.556   2.137  10.049  0.5832  1.8904 -0.6799
19077SOL     OW62550  10.232   5.136  10.344 -0.0335 -0.1412  0.1321
19077SOL    HW162551  10.254   5.146  10.251 -2.0868  0.2576 -0.3657
19077SOL    HW262552  10.139   5.158  10.349 -0.0692 -0.5546  2.2346
19078SOL     OW62553   1.529   1.810   6.678  0.5338  0.0756 -0.1722
19078SOL    HW162554   1.547   1.716   6.675 -0.1578 -0.3908  4.0693
19078SOL    HW262555   1.434   1.816   6.672  0.4074  0.2393  1.5067
19079SOL     OW62556  10.648   0.081   5.098 -0.2524  0.0616  0.0412
19079SOL    HW162557  10.704   0.003   5.092  0.4992  0.3538  2.2710
19079SOL    HW262558  10.561   0.046   5.118 -0.7162 -0.3356 -2.3792
19080SOL     OW62559   1.775   3.175   0.093 -0.0965  0.1286 -0.3250
19080SOL    HW162560   1.848   3.177   0.031 -0.2979 -1.0807 -0.6296
19080SOL    HW262561   1.795   3.244   0.156  0.8676  0.3887 -0.9007
19081SOL     OW62562   4.309   9.419   5.535 -0.2125  0.1560 -0.3467
19081SOL    HW162563   4.395   9.446   5.503 -0.3523  2.3141  0.9237
19081SOL    HW262564   4.247   9.465   5.479 -0.5772 -1.0551 -0.9796
19082SOL     OW62565   9.466  10.974   0.964  0.1964 -0.1301 -0.2012
19082SOL    HW162566   9.424  11.042   1.016  0.8114 -0.0818  0.2386
19082SOL    HW262567   9.521  11.022   0.902 -0.0775 -0.2084 -0.5129
19083SOL     OW62568   4.467   7.185  11.279 -0.0345  0.8313  0.5984
19083SOL    HW162569   4.420   7.102  11.286  2.0701 -0.7355 -2.0284
19083SOL    HW262570   4.551   7.169  11.322  0.9226  1.0824 -1.0880
19084SOL     OW62571   7.548   0.945   0.768  0.0032 -0.6053  0.1209
19084SOL    HW162572   7.616   0.980   0.825 -0.9961  1.5244  0.1179
19084SOL    HW262573   7.568   0.852   0.760  3.8374  0.1735 -1.2196
19085SOL     OW62574   8.100   1.601   5.163  0.3656  0.3816 -0.2413
19085SOL    HW162575   8.113   1.610   5.068  1.9453 -0.0534 -0.0930
19085SOL    HW262576   8.102   1.690   5.196  2.4168  0.4194 -0.3465
19086SOL     OW62577   0.402  10.390   7.205  0.4091  0.2010 -0.1020
19086SOL    HW162578   0.489  10.372   7.242  0.6754  1.2846 -0.1663
19086SOL    HW262579   0.414  10.382   7.110  0.7387  1.4599 -0.1895
19087SOL     OW62580  11.775   7.794  10.871  0.0084  0.3222 -0.4545
19087SOL    HW162581  11.760   7.888  10.885 -0.9448  0.0654  0.3858
19087SOL    HW262582  11.690   7.754  10.888 -0.5716 -0.4020 -4.1057
19088SOL     OW62583  10.927   1.937  10.955  0.1000 -0.5171  0.3251
19088SOL    HW162584  11.010   1.984  10.944  2.1452 -3.3911  2.2548
19088SOL    HW262585  10.883   1.982  11.028  0.4410  0.3392  0.0165
19089SOL     OW62586   7.337   4.182   7.497 -0.0024 -0.4704 -0.5779
19089SOL    HW162587   7.401   4.111   7.495  0.3414 -0.2395  0.8338
19089SOL    HW262588   7.253   4.140   7.480  0.2943 -1.0921 -0.5285
19090SOL     OW62589   8.772   6.615   3.795  0.4493 -0.2144  0.4824
19090SOL    HW162590   8.773   6.520   3.793 -0.5424 -0.2250 -0.4250
19090SOL    HW262591   8.694   6.638   3.846  0.9717  0.1255  1.1515
19091SOL     OW62592   5.968   1.504   9.101 -0.2171 -0.6349  0.0441
19091SOL    HW162593   5.961   1.554   9.182  1.8409  1.1326 -0.7628
19091SOL    HW262594   5.884   1.517   9.057 -0.5467  0.2418  0.9006
19092SOL     OW62595   3.104   4.438   4.762 -0.2927  0.0913  0.0752
19092SOL    HW162596   3.102   4.400   4.674 -0.9719  1.8848 -0.7179
19092SOL    HW262597   3.169   4.385   4.809  0.4149 -0.6202 -1.6227
19093SOL     OW62598   0.192  10.782   0.838  0.2827  0.4923 -0.4256
19093SOL    HW162599   0.282  10.756   0.821  0.3660  1.5115 -1.7116
19093SOL    HW262600   0.199  10.863   0.889  0.1304  0.8414 -0.9394
19094SOL     OW62601   3.287   5.638  11.498 -0.0902 -0.5521 -0.3282
19094SOL    HW162602   3.335   5.667  11.575  0.9788 -1.1830 -0.7355
19094SOL    HW262603   3.245   5.717  11.464 -0.6264 -0.2775  0.9126
19095SOL     OW62604   5.632   0.284   9.601 -0.2731 -0.2324 -0.3811
19095SOL    HW162605   5.723   0.261   9.580 -0.5879 -2.6740  0.6033
19095SOL    HW262606   5.633   0.299   9.696 -0.7569  0.7076 -0.5049
19096SOL     OW62607   5.242  11.205   5.639 -0.6528 -0.4828 -0.3094
19096SOL    HW162608   5.219  11.257   5.716 -1.0169 -2.4383  0.9624
19096SOL    HW262609   5.272  11.122   5.674  0.9315 -0.8076 -2.2424
19097SOL     OW62610   2.473   7.316   8.470 -0.4926 -0.3964 -0.4349
19097SOL    HW162611   2.468   7.254   8.542 -0.5892 -0.1152 -0.1980
19097SOL    HW262612   2.468   7.262   8.391  1.8329 -0.9484 -0.2838
19098SOL     OW62613   8.162   1.290   4.938 -0.3725 -0.1304 -0.5181
19098SOL    HW162614   8.236   1.351   4.934 -0.7044  0.2408 -1.3169
19098SOL    HW262615   8.188   1.216   4.882  0.8968 -1.7586  2.0540
19099SOL     OW62616   1.230   9.598   8.524 -0.5733 -0.1992 -0.1541
19099SOL    HW162617   1.274   9.639   8.450 -1.2764  1.1806  0.1532
19099SOL    HW262618   1.273   9.635   8.601 -0.8653 -0.4432  0.1275
19100SOL     OW62619  11.003   1.395   8.969  0.1883  0.1770  0.1041
19100SOL    HW162620  10.913   1.383   9.000  0.1511  1.0059  0.3447
19100SOL    HW262621  11.057   1.344   9.030 -0.2713 -2.2648 -1.3807
19101SOL     OW62622   5.297   4.970   8.368 -0.2692  0.0140 -0.3591
19101SOL    HW162623   5.314   5.033   8.298  0.2989  0.6112  0.2914
19101SOL    HW262624   5.384   4.950   8.404 -0.3554 -1.6910 -0.9990
19102SOL     OW62625   5.584   8.971   6.244 -0.1949  0.0230  0.3225
19102SOL    HW162626   5.648   8.996   6.177 -1.1594 -0.8215 -0.9599
19102SOL    HW262627   5.528   9.048   6.254 -0.6559 -0.1717 -0.6103
19103SOL     OW62628   1.551   0.164   6.968  0.1893  0.1515  0.1287
19103SOL    HW162629   1.604   0.085   6.977  0.6389  0.5363  1.0040
19103SOL    HW262630   1.609   0.227   6.926  0.1292  0.2898  0.2522
19104SOL     OW62631   6.453   9.135   6.025 -0.4493  0.1695 -0.1924
19104SOL    HW162632   6.467   9.125   5.930  0.2733  0.1272 -0.0880
19104SOL    HW262633   6.366   9.099   6.040 -0.7037  0.4726 -0.8940
19105SOL     OW62634   2.098   3.427   0.807 -0.8028  0.0920 -0.0782
19105SOL    HW162635   2.140   3.471   0.881 -0.6067  1.3418 -0.8989
19105SOL    HW262636   2.102   3.491   0.736 -1.7043 -0.7808 -0.9447
19106SOL     OW62637  10.830   1.045   7.967 -0.4298  0.7885  0.0090
19106SOL    HW162638  10.753   1.101   7.955 -1.3570 -0.7708 -1.9968
19106SOL    HW262639  10.899   1.087   7.916 -0.5923  1.0300 -0.0149
19107SOL     OW62640  10.812   9.028   9.576  0.0674 -0.1414  0.4850
19107SOL    HW162641  10.827   9.036   9.482  2.5413 -2.2691  0.5871
19107SOL    HW262642  10.870   9.093   9.616  0.1298 -0.2364  0.5526
19108SOL     OW62643   4.415   8.182  10.721  0.2137  0.0707  0.0282
19108SOL    HW162644   4.394   8.275  10.725  1.2938  0.3654 -0.7193
19108SOL    HW262645   4.508   8.179  10.697 -0.1224 -1.2189 -1.2402
19109SOL     OW62646   4.810   4.029   4.801 -0.0901 -0.3760  0.0586
19109SOL    HW162647   4.782   4.120   4.806  0.4339 -0.2013 -0.1694
19109SOL    HW262648   4.800   3.996   4.890  1.0198  0.2981  0.4488
19110SOL     OW62649   4.784   9.294   6.776 -0.4843 -0.6556 -0.6788
19110SOL    HW162650   4.725   9.339   6.715 -0.5578  0.9989  0.5549
19110SOL    HW262651   4.774   9.201   6.754 -1.9297 -0.2520 -1.9162
19111SOL     OW62652  10.508   8.711   8.416  0.1174  0.8719  0.2840
19111SOL    HW162653  10.480   8.729   8.505 -1.8446  1.4673 -0.3974
19111SOL    HW262654  10.464   8.777   8.363  0.1625 -0.2732 -1.2633
19112SOL     OW62655   5.798   8.808   1.750 -0.8488  0.4117  0.6574
19112SOL    HW162656   5.876   8.859   1.773 -0.1062 -0.1965 -0.4003
19112SOL    HW262657   5.731   8.874   1.733  0.0248  1.0703 -0.4286
19113SOL     OW62658   3.881   9.010   2.261  0.5491 -0.5261  0.2524
19113SOL    HW162659   3.868   8.916   2.269  1.1769 -0.7892 -1.4799
19113SOL    HW262660   3.965   9.019   2.217  1.5026  0.9162  2.1768
19114SOL     OW62661   3.058   5.789   4.163  0.1253  0.1433  0.1825
19114SOL    HW162662   2.971   5.827   4.175  1.0038  1.7791  1.8599
19114SOL    HW262663   3.095   5.786   4.251  1.0085 -2.5634 -0.1874
19115SOL     OW62664   4.154   9.037   2.116  0.4877 -0.1484 -0.0018
19115SOL    HW162665   4.126   9.085   2.038  0.4546  1.8385  1.1702
19115SOL    HW262666   4.238   9.078   2.139 -0.1090  0.1663  1.7003
19116SOL     OW62667   4.950   7.204   5.099  0.1358  0.7138  0.3968
19116SOL    HW162668   4.947   7.145   5.174  0.1813  1.1217  0.7240
19116SOL    HW262669   5.021   7.170   5.045 -1.5864 -1.1783 -0.8228
19117SOL     OW62670   7.758   6.547   6.760  0.4205 -0.4973 -0.4026
19117SOL    HW162671   7.786   6.566   6.671  0.0892 -0.6634 -0.5407
19117SOL    HW262672   7.699   6.619   6.783 -1.8261 -1.9563 -1.3689
19118SOL     OW62673   7.684   8.634   6.412 -0.0571 -0.0169 -0.5261
19118SOL    HW162674   7.732   8.677   6.483 -0.9315  0.8717 -0.4460
19118SOL    HW262675   7.654   8.551   6.449  2.4217 -1.1982 -0.9571
19119SOL     OW62676   4.557  11.788   8.125 -0.8207  0.0843  0.0032
19119SOL    HW162677   4.546  11.876   8.162  2.5900  0.8334 -0.4813
19119SOL    HW262678   4.569  11.802   8.031  1.3001 -0.6975  0.1141
19120SOL     OW62679   9.523   6.312   7.841 -0.3227  0.0886  0.5264
19120SOL    HW162680   9.563   6.278   7.921 -0.4319 -0.8537  0.1939
19120SOL    HW262681   9.478   6.392   7.869 -0.0372 -0.0215  1.3283
19121SOL     OW62682  10.553   2.173   3.165  0.1612 -0.1405  0.0991
19121SOL    HW162683  10.475   2.197   3.214  0.8606  0.7838  0.8087
19121SOL    HW262684  10.607   2.124   3.228  0.9961  0.9150  0.2319
19122SOL     OW62685   6.041   7.870   7.258 -0.0314 -0.0524  0.1420
19122SOL    HW162686   6.108   7.905   7.317 -1.1053  0.9951  0.7967
19122SOL    HW262687   6.036   7.935   7.188  0.6346 -0.8612 -0.6757
19123SOL     OW62688   3.952   1.263  11.711  0.1211  0.0152 -0.1808
19123SOL    HW162689   4.016   1.191  11.713 -2.0200 -2.2826 -3.3306
19123SOL    HW262690   3.901   1.253  11.791  1.0994 -0.7298  0.3656
19124SOL     OW62691   2.086   2.227   4.561 -0.8602  0.7027 -0.0663
19124SOL    HW162692   2.099   2.202   4.653 -2.1823  0.7037  0.1315
19124SOL    HW262693   2.001   2.271   4.559 -1.9634 -1.3147 -1.6483
19125SOL     OW62694   6.088   9.705   0.208 -0.3820 -0.3777 -0.1467
19125SOL    HW162695   6.012   9.736   0.158 -1.2197 -0.3476  1.0969
19125SOL    HW262696   6.103   9.774   0.274 -0.1547 -1.0291  0.4951
19126SOL     OW62697   9.972   1.948   8.699  0.1658 -0.0788  0.2045
19126SOL    HW162698   9.977   2.044   8.701 -1.3684  0.0278 -0.0172
19126SOL    HW262699   9.949   1.927   8.608 -1.2553 -0.5248  0.6382
19127SOL     OW62700   3.659   2.752   9.896  0.2595  0.1858 -0.4803
19127SOL    HW162701   3.743   2.798   9.906  0.3031 -0.2419  1.4693
19127SOL    HW262702   3.683   2.659   9.893 -0.0251  0.1304 -1.9535
19128SOL     OW62703   7.514   2.473  10.052  0.5611 -0.0576  0.3507
19128SOL    HW162704   7.547   2.389  10.020 -0.6935  0.6849 -3.3461
19128SOL    HW262705   7.443   2.449  10.111  0.1314 -1.6278 -0.7250
19129SOL     OW62706   6.342   9.080   6.622 -0.1516 -0.1581 -0.3868
19129SOL    HW162707   6.399   9.005   6.636  1.3229  0.6527 -1.7145
19129SOL    HW262708   6.253   9.044   6.625  0.5109 -1.8793 -0.6219
19130SOL     OW62709   0.926   1.678   2.818 -0.0965 -0.3596  0.1229
19130SOL    HW162710   1.016   1.649   2.800  0.3370  1.4765 -0.9455
19130SOL    HW262711   0.937   1.764   2.860 -1.3321  0.4346 -1.0896
19131SOL     OW62712   5.697   0.391   7.523  0.6757 -0.0005 -0.0967
19131SOL    HW162713   5.776   0.378   7.576 -0.0173 -1.7936  0.5646
19131SOL    HW262714   5.719   0.464   7.466  2.4405  0.2213  0.7915
19132SOL     OW62715   7.984  10.376  11.467 -0.0539 -0.1299  0.1439
19132SOL    HW162716   8.015  10.286  11.459  1.0539  0.2457  0.0935
19132SOL    HW262717   7.956  10.384  11.559  2.4228  0.2482  0.9207
19133SOL     OW62718   4.613  10.310   6.135 -0.8088  0.1331 -0.1644
19133SOL    HW162719   4.637  10.235   6.080 -0.4330  1.1210 -1.3843
19133SOL    HW262720   4.528  10.337   6.103 -0.3959  0.9822 -0.5691
19134SOL     OW62721   7.803   6.839   3.483 -0.7981 -0.2075  0.3613
19134SOL    HW162722   7.826   6.931   3.491  0.6033 -0.5791  1.0236
19134SOL    HW262723   7.832   6.814   3.395  0.9328 -0.5188  0.9697
19135SOL     OW62724   5.712   4.576   4.477  0.3265 -0.0700 -0.0375
19135SOL    HW162725   5.738   4.635   4.406  1.9746  2.6164  2.5427
19135SOL    HW262726   5.620   4.597   4.493  0.0026 -0.5404 -1.1889
19136SOL     OW62727   8.572   9.632   9.444 -0.0979  0.4736  0.7943
19136SOL    HW162728   8.580   9.540   9.470  1.6165  0.0374 -1.1024
19136SOL    HW262729   8.569   9.631   9.349  0.0985  2.3947  0.7188
19137SOL     OW62730   8.652   3.345   7.329 -0.2608  0.2910 -0.2821
19137SOL    HW162731   8.570   3.365   7.373 -0.2731  1.2444 -0.7183
19137SOL    HW262732   8.650   3.397   7.249  0.4885 -0.1632 -0.6104
19138SOL     OW62733   0.813   5.432   8.618  0.1272  0.1824  0.0623
19138SOL    HW162734   0.855   5.447   8.703  2.5933 -0.0730 -1.0296
19138SOL    HW262735   0.836   5.342   8.595  0.0605  0.4609 -1.1620
19139SOL     OW62736   9.115   2.236   2.557  0.1621  0.2657 -0.0149
19139SOL    HW162737   9.152   2.156   2.518  0.9004  1.2852 -1.5397
19139SOL    HW262738   9.115   2.299   2.485 -0.7283  1.5498  1.0638
19140SOL     OW62739   5.830   3.520  11.133  0.0847 -0.1762  0.5333
19140SOL    HW162740   5.860   3.470  11.056 -0.1727 -0.8248  0.8485
19140SOL    HW262741   5.910   3.562  11.166  0.1025  0.5948 -0.4264
19141SOL     OW62742   2.884   1.533   6.251 -0.0632  0.2806 -0.0994
19141SOL    HW162743   2.799   1.536   6.296  0.7612  0.1108  1.5252
19141SOL    HW262744   2.932   1.462   6.293  1.1621  0.8407 -0.5028
19142SOL     OW62745   4.656   6.659   0.703  0.4037 -0.0150 -0.1061
19142SOL    HW162746   4.742   6.700   0.710  0.6930 -0.4249 -1.0444
19142SOL    HW262747   4.635   6.631   0.792  1.6142 -0.6392  0.0013
19143SOL     OW62748   6.794   2.135   9.879 -0.2129  0.2680 -0.4145
19143SOL    HW162749   6.866   2.102   9.826 -0.4576 -0.6583 -0.1837
19143SOL    HW262750   6.716   2.119   9.827 -0.3766  0.0858 -0.1160
19144SOL     OW62751   4.665   6.739  11.273 -0.1977  0.5659  0.5012
19144SOL    HW162752   4.703   6.661  11.315 -0.0829 -0.6118 -1.6475
19144SOL    HW262753   4.573   6.737  11.298  0.3548  1.5111  2.9332
19145SOL     OW62754   5.137   4.062   1.066 -0.4480 -0.3533 -0.4968
19145SOL    HW162755   5.120   4.156   1.056 -0.8013 -0.2258  0.9787
19145SOL    HW262756   5.228   4.057   1.097 -0.3893 -0.5011 -0.6942
19146SOL     OW62757   0.905   8.446   9.739 -0.0004 -0.1243 -0.2243
19146SOL    HW162758   0.830   8.497   9.769 -0.4398 -1.1188  0.4309
19146SOL    HW262759   0.942   8.497   9.667  0.8554  2.1667  1.7122
19147SOL     OW62760   7.702  11.368   1.884  0.4323  0.2608  0.1671
19147SOL    HW162761   7.648  11.290   1.872  0.7435  0.1162 -0.3446
19147SOL    HW262762   7.695  11.415   1.800  2.5814 -0.7097 -0.6157
19148SOL     OW62763   5.418  10.151   5.892  0.1886 -0.4568 -0.2716
19148SOL    HW162764   5.401  10.158   5.798 -0.9146 -1.0691 -0.1348
19148SOL    HW262765   5.417  10.057   5.909  3.1782 -0.5725 -0.1032
19149SOL     OW62766   6.950   3.889   7.417  0.3286 -0.2568 -0.0367
19149SOL    HW162767   7.038   3.863   7.444  0.9784  2.2672  0.5349
19149SOL    HW262768   6.932   3.835   7.340  2.6423 -0.3983 -0.5424
19150SOL     OW62769   1.562   1.349   8.200  0.0630  0.0195  0.6306
19150SOL    HW162770   1.590   1.263   8.230 -0.8953 -0.5983 -0.2061
19150SOL    HW262771   1.488   1.332   8.142  0.6508  1.3077 -0.5548
19151SOL     OW62772  11.592   3.025   5.197 -0.3296 -0.2103  0.5163
19151SOL    HW162773  11.631   2.957   5.143  0.3450  0.1296  0.5601
19151SOL    HW262774  11.500   3.000   5.205 -0.2754 -0.6531 -0.1750
19152SOL     OW62775   9.824   4.254   9.892 -0.0903  0.0101 -0.8794
19152SOL    HW162776   9.788   4.303   9.966  0.2993 -0.4160 -0.4031
19152SOL    HW262777   9.768   4.176   9.885  0.0551 -0.0972 -0.8439
19153SOL     OW62778  10.400   4.355   5.710 -0.4916  0.7560 -0.4284
19153SOL    HW162779  10.355   4.282   5.667  2.0782 -0.7122 -0.8535
19153SOL    HW262780  10.357   4.364   5.795 -0.2321 -2.0579  0.1063
19154SOL     OW62781   7.286   1.866   9.838  0.1575 -0.2074 -0.2654
19154SOL    HW162782   7.250   1.946   9.877 -1.4092 -0.7793 -0.4537
19154SOL    HW262783   7.258   1.796   9.897 -1.6277 -1.0075 -1.9397
19155SOL     OW62784   2.269   3.416   7.994 -0.2531  0.2250  0.2768
19155SOL    HW162785   2.218   3.494   8.020  0.4116  0.0931  2.1748
19155SOL    HW262786   2.338   3.411   8.060  1.0472 -0.7346 -1.1109
19156SOL     OW62787   5.466   1.251   6.424  0.0649  0.6222 -0.2269
19156SOL    HW162788   5.375   1.279   6.413 -0.0436  0.1965 -0.4282
19156SOL    HW262789   5.518   1.322   6.387 -0.1763  0.9922  0.1363
19157SOL     OW62790   6.713   4.440   2.571 -0.2939  0.5010 -0.2766
19157SOL    HW162791   6.683   4.446   2.480  1.9259  0.4754 -1.0707
19157SOL    HW262792   6.778   4.369   2.569  1.3218  1.8895  0.8613
19158SOL     OW62793   9.057   2.656   9.653 -0.6308  0.4375 -0.3288
19158SOL    HW162794   9.044   2.653   9.748 -0.5661  1.5888 -0.2751
19158SOL    HW262795   9.131   2.714   9.641 -1.3284  1.1880 -1.1362
19159SOL     OW62796  11.650  11.483   5.820  0.6900  0.0578  0.2258
19159SOL    HW162797  11.603  11.419   5.766 -0.4918  0.6516  0.5176
19159SOL    HW262798  11.687  11.430   5.891 -0.8553 -0.2682  0.8487
19160SOL     OW62799   7.565   1.385   1.132 -0.7119  0.4307  0.0947
19160SOL    HW162800   7.596   1.430   1.053  0.9109 -0.0945  0.3940
19160SOL    HW262801   7.534   1.300   1.101  0.9652 -0.2254  0.1141
19161SOL     OW62802   5.984   7.526   9.630  0.3035 -0.0903  0.3770
19161SOL    HW162803   6.051   7.529   9.699 -0.9617  0.7665  1.6257
19161SOL    HW262804   5.902   7.546   9.675 -0.4854  1.2401 -1.4924
19162SOL     OW62805   8.850  11.023   1.673  0.1793  0.1568 -0.0893
19162SOL    HW162806   8.758  11.019   1.699  0.2133  2.6134  0.6348
19162SOL    HW262807   8.883  10.934   1.686 -1.7706 -0.4744  0.8590
19163SOL     OW62808   5.893   8.344   3.133 -0.2801  0.6596  0.0719
19163SOL    HW162809   5.851   8.266   3.098 -1.0550  0.5962  1.0826
19163SOL    HW262810   5.974   8.312   3.173 -0.9446  0.2292  1.1289
19164SOL     OW62811   7.303   9.817   7.327  0.1780 -0.0843  0.0731
19164SOL    HW162812   7.343   9.897   7.361 -1.4990  0.1706  1.6056
19164SOL    HW262813   7.324   9.817   7.234  1.0024  1.6571  0.2262
19165SOL     OW62814   6.394   3.834   3.095  0.3687 -0.1364 -0.4092
19165SOL    HW162815   6.358   3.751   3.126 -1.0820  0.0446 -1.5350
19165SOL    HW262816   6.358   3.900   3.154  0.7643 -0.1867 -0.1015
19166SOL     OW62817   9.410   0.052   1.740  0.6773 -0.0213  0.0236
19166SOL    HW162818   9.385   0.051   1.833 -0.4015  0.8315 -0.2389
19166SOL    HW262819   9.372  -0.027   1.704  0.5922 -0.0505  0.1774
19167SOL     OW62820   9.879   2.048  11.009  0.5259 -0.0952  0.8402
19167SOL    HW162821   9.888   2.143  11.008  0.3165 -0.0784  0.5687
19167SOL    HW262822   9.966   2.015  10.985 -0.0952  0.0713 -1.9891
19168SOL     OW62823   0.100   8.391  10.825 -0.4056 -0.0741 -0.1844
19168SOL    HW162824   0.185   8.406  10.866 -0.6771 -2.2014  1.3708
19168SOL    HW262825   0.118   8.333  10.751 -0.4280 -0.1802 -0.1092
19169SOL     OW62826   6.176   2.971   6.903  0.0107 -0.6270 -0.2555
19169SOL    HW162827   6.095   2.992   6.855 -0.9306  3.7318  2.6698
19169SOL    HW262828   6.153   2.893   6.954 -1.3781 -1.0433 -1.4153
19170SOL     OW62829  11.046   3.766   8.131 -0.2465 -0.2095 -0.1374
19170SOL    HW162830  11.084   3.797   8.213  1.7081 -0.0430 -1.0551
19170SOL    HW262831  11.065   3.835   8.068 -0.5604 -0.9065 -1.0222
19171SOL     OW62832   7.132   0.522   0.131 -0.0074 -0.6992 -0.0727
19171SOL    HW162833   7.165   0.525   0.221  1.0943 -0.2007 -0.4679
19171SOL    HW262834   7.200   0.474   0.083 -0.4845 -0.7734 -0.6889
19172SOL     OW62835   6.486  11.668   9.765 -0.2141  0.2020  0.3796
19172SOL    HW162836   6.427  11.741   9.745  2.6144  2.5112 -0.2265
19172SOL    HW262837   6.523  11.644   9.680  2.0329  0.9982  1.0864
19173SOL     OW62838   9.566   4.227   6.199  0.1009 -0.0767  0.2537
19173SOL    HW162839   9.503   4.270   6.140 -0.1266  0.1724  0.6759
19173SOL    HW262840   9.599   4.298   6.254  0.3984 -0.2899  0.3496
19174SOL     OW62841   5.588   0.456   0.720 -0.1074  0.0262 -0.0689
19174SOL    HW162842   5.618   0.427   0.633 -0.3303 -1.8434  0.4310
19174SOL    HW262843   5.658   0.429   0.779  0.1877  1.5742  0.3271
19175SOL     OW62844   0.761   3.293   1.046  0.4766  0.3190  0.2519
19175SOL    HW162845   0.677   3.310   1.002  1.6355  0.5677 -1.9962
19175SOL    HW262846   0.737   3.242   1.123 -1.6840 -0.3649 -0.7754
19176SOL     OW62847  11.820  11.109   6.248 -0.3641  0.1414 -0.0158
19176SOL    HW162848  11.739  11.156   6.265 -0.5537 -0.0213 -0.4660
19176SOL    HW262849  11.861  11.099   6.334 -1.1077 -0.3088  0.2859
19177SOL     OW62850   1.297  11.519  11.523  0.0197 -0.0249 -0.7928
19177SOL    HW162851   1.351  11.593  11.497 -0.6744  0.4465 -0.9078
19177SOL    HW262852   1.334  11.489  11.606 -1.0457  1.8656  0.4321
19178SOL     OW62853  10.970   1.292   2.857  0.5958  0.0014  0.2319
19178SOL    HW162854  11.031   1.299   2.783  0.4105  2.3305  0.2437
19178SOL    HW262855  10.932   1.379   2.865 -1.3908 -0.9137  1.4050
19179SOL     OW62856   4.220   2.654   8.244  0.0443 -0.0327  0.2166
19179SOL    HW162857   4.219   2.694   8.158 -0.5229  0.0345  0.2488
19179SOL    HW262858   4.273   2.712   8.298 -1.2189  0.9984  0.4052
19180SOL     OW62859   2.325   4.666   8.320  0.1567  0.3254  0.3567
19180SOL    HW162860   2.395   4.710   8.369 -1.6638  1.5625  2.0235
19180SOL    HW262861   2.322   4.712   8.236  1.5652  0.0006  0.1130
19181SOL     OW62862  10.677   2.826   8.163  0.0635 -0.1053 -0.0991
19181SOL    HW162863  10.585   2.848   8.175  0.3298  0.9859  0.0201
19181SOL    HW262864  10.710   2.809   8.251  0.3709  1.1945  0.0610
19182SOL     OW62865   7.987   5.279   2.179  0.0425  0.7622 -0.2607
19182SOL    HW162866   7.982   5.253   2.271  1.2365  1.0800 -0.0856
19182SOL    HW262867   7.937   5.360   2.174  0.9492  1.3748  0.3695
19183SOL     OW62868   9.170   5.823  10.199  0.1173  0.1773 -0.3722
19183SOL    HW162869   9.207   5.848  10.283  0.0889  1.0134 -0.5984
19183SOL    HW262870   9.089   5.873  10.192  0.3433  0.4642 -1.0828
19184SOL     OW62871   1.618   4.908   7.979 -0.2500 -0.4831  0.5415
19184SOL    HW162872   1.708   4.910   8.010  1.1728  1.0221 -3.1542
19184SOL    HW262873   1.598   4.815   7.968  0.8110 -0.8374  1.4473
19185SOL     OW62874   2.660   0.647  10.943 -0.7757 -0.4010  0.2260
19185SOL    HW162875   2.751   0.619  10.960 -0.1955 -0.0361 -1.9548
19185SOL    HW262876   2.608   0.568  10.960  0.2417 -1.3274 -0.7408
19186SOL     OW62877   4.303  10.457   4.180 -0.0456  0.0196 -0.1801
19186SOL    HW162878   4.354  10.384   4.145 -1.3801 -1.3729  0.6506
19186SOL    HW262879   4.328  10.463   4.272 -0.5911  0.0123 -0.0260
19187SOL     OW62880   0.649   8.417   4.108  0.2268 -0.1666 -0.6085
19187SOL    HW162881   0.614   8.470   4.179  1.7560 -0.3156  0.2851
19187SOL    HW262882   0.611   8.330   4.122  1.3242 -0.4714  0.6829
19188SOL     OW62883   0.996   9.495   4.421  0.7949 -0.0265 -0.0901
19188SOL    HW162884   0.962   9.474   4.508  0.8834 -0.1087 -0.0752
19188SOL    HW262885   0.920   9.531   4.374  1.0725  1.2915  0.4402
19189SOL     OW62886   9.052   1.804   1.461 -0.0354 -0.0938  0.4223
19189SOL    HW162887   9.116   1.785   1.530  0.9364  0.7083 -0.2283
19189SOL    HW262888   9.057   1.899   1.450 -0.3813 -0.1762 -0.5551
19190SOL     OW62889   8.570   6.977   5.334  0.7565 -0.3503  0.4729
19190SOL    HW162890   8.624   7.047   5.369 -1.7229  1.6931  0.5000
19190SOL    HW262891   8.573   6.989   5.239 -0.4949  0.5307  0.5177
19191SOL     OW62892  10.453   7.371   5.783 -0.0379 -0.3498  0.5912
19191SOL    HW162893  10.412   7.455   5.761 -1.8894 -1.1476  0.7345
19191SOL    HW262894  10.498   7.345   5.703 -1.7086 -0.4442 -0.3622
19192SOL     OW62895   6.046   4.684   8.132  0.0448 -0.5726 -0.0767
19192SOL    HW162896   6.057   4.779   8.139  0.4110 -0.6215  0.0195
19192SOL    HW262897   6.128   4.653   8.094  0.4866 -0.9995  1.1782
19193SOL     OW62898   1.629   5.787   8.627 -0.4047 -0.2993 -0.2560
19193SOL    HW162899   1.557   5.823   8.575  1.5752 -0.0495 -3.0372
19193SOL    HW262900   1.593   5.709   8.668 -2.3993  0.1388 -1.0811
19194SOL     OW62901   4.566   1.943  11.250 -0.3334 -0.0952  0.1453
19194SOL    HW162902   4.603   1.914  11.333 -0.1042 -0.8042 -0.1974
19194SOL    HW262903   4.630   2.005  11.215  0.3667 -1.0356 -0.2703
19195SOL     OW62904   8.939  10.561   8.185 -0.1910 -0.2773  0.2256
19195SOL    HW162905   8.912  10.520   8.267 -0.9912  1.8465  1.1019
19195SOL    HW262906   9.023  10.603   8.205 -0.5376  0.5171  0.0882
19196SOL     OW62907   3.699  10.838   8.327 -0.3853 -0.0502  0.2216
19196SOL    HW162908   3.757  10.900   8.371  0.6742  0.6321 -1.9451
19196SOL    HW262909   3.754  10.761   8.313 -1.4921 -1.2969  2.2943
19197SOL     OW62910   4.506   1.171   0.072  0.1626  0.0105  0.0638
19197SOL    HW162911   4.552   1.210  -0.003  0.6967  1.7849  1.2577
19197SOL    HW262912   4.576   1.135   0.127  0.1341  1.9115  1.4366
19198SOL     OW62913   1.612   6.649   0.204 -0.0965 -0.6618 -0.7216
19198SOL    HW162914   1.625   6.603   0.287 -2.5363 -1.0897 -0.4790
19198SOL    HW262915   1.631   6.584   0.137  2.1244 -0.2464 -0.5713
19199SOL     OW62916   8.038   4.420   4.574  0.1163  0.2505  0.0640
19199SOL    HW162917   8.049   4.338   4.623  0.8683  0.3843  0.1231
19199SOL    HW262918   7.991   4.478   4.634 -1.5508 -0.5373 -0.4221
19200SOL     OW62919   8.452  10.788  10.881 -0.2381  0.3246 -0.2990
19200SOL    HW162920   8.395  10.713  10.862 -0.0497 -0.1263  0.8353
19200SOL    HW262921   8.409  10.862  10.839 -0.6095 -0.3561 -1.1501
19201SOL     OW62922   7.253   1.283   8.094  0.0860 -0.0768 -0.0546
19201SOL    HW162923   7.179   1.287   8.033 -0.3101  0.7780  0.4619
19201SOL    HW262924   7.276   1.190   8.098  0.9577 -0.0407 -2.4706
19202SOL     OW62925   5.639   1.253   1.659 -0.4576 -0.3752  0.6066
19202SOL    HW162926   5.562   1.308   1.671 -0.2874 -0.2160  0.9790
19202SOL    HW262927   5.639   1.194   1.734  0.1609  0.0852  0.9826
19203SOL     OW62928   7.250   5.181   3.040  0.0189 -0.0341  0.6277
19203SOL    HW162929   7.345   5.187   3.051 -0.2248  0.5574  2.7331
19203SOL    HW262930   7.221   5.125   3.112 -1.1620 -1.0179 -0.5536
19204SOL     OW62931  11.349  11.110   0.683 -0.1647  0.3246  0.6582
19204SOL    HW162932  11.399  11.063   0.616 -0.7202  0.2131  0.3137
19204SOL    HW262933  11.288  11.045   0.717 -0.1621  0.4925  0.9874
19205SOL     OW62934   1.911   3.024  10.141  0.3897 -0.2369  0.2253
19205SOL    HW162935   2.003   3.051  10.131  0.6541  0.1449  2.9480
19205SOL    HW262936   1.913   2.956  10.208 -1.1704 -1.5135 -0.9631
19206SOL     OW62937   6.501   7.185   1.474 -0.9694 -0.0181 -0.2703
19206SOL    HW162938   6.468   7.171   1.563  0.4298 -1.5096  0.0670
19206SOL    HW262939   6.469   7.272   1.450 -3.4770 -0.5672  0.7162
19207SOL     OW62940   8.332   0.883   7.690  0.0058 -0.4039 -0.3977
19207SOL    HW162941   8.372   0.809   7.737 -0.5323 -0.4668 -0.0293
19207SOL    HW262942   8.290   0.934   7.759 -0.3991 -0.2433 -0.7646
19208SOL     OW62943   7.659   5.265   8.064  0.5107  0.2350  0.3428
19208SOL    HW162944   7.701   5.350   8.080  0.6329  0.5159 -1.2585
19208SOL    HW262945   7.716   5.222   8.001  0.7221 -1.2828  1.5158
19209SOL     OW62946   4.971   7.975   0.058  0.5675 -0.1941 -0.2203
19209SOL    HW162947   4.936   7.915   0.123 -2.5093  1.0598 -0.5025
19209SOL    HW262948   4.899   7.986  -0.005  1.2447  3.1109 -0.6004
19210SOL     OW62949   3.602   4.732  10.305  0.2500  0.1409 -0.2464
19210SOL    HW162950   3.636   4.776  10.383  0.1761 -0.6340  0.2316
19210SOL    HW262951   3.574   4.804  10.248 -0.1108  0.7096  0.6201
19211SOL     OW62952   8.587   6.923   0.853 -0.5291  0.9677  0.2392
19211SOL    HW162953   8.560   6.975   0.929  0.0428 -1.5912  2.3525
19211SOL    HW262954   8.571   6.832   0.880  1.3456 -0.1310 -2.0498
19212SOL     OW62955   8.943  10.509   7.917 -0.2715  0.4865 -0.0753
19212SOL    HW162956   8.863  10.498   7.865 -0.8711  1.3950  0.6329
19212SOL    HW262957   8.913  10.523   8.006  0.6670  1.2237  0.1457
19213SOL     OW62958   7.207   9.800   3.462 -0.2297  0.6118 -0.3550
19213SOL    HW162959   7.283   9.779   3.409 -0.5358  0.8694 -0.9067
19213SOL    HW262960   7.232   9.775   3.551  0.7686  1.3470 -0.4039
19214SOL     OW62961   9.373   7.882   9.945  0.1421 -0.4256  0.2417
19214SOL    HW162962   9.375   7.899   9.851  0.5636 -2.1379 -0.1018
19214SOL    HW262963   9.406   7.792   9.953 -0.8094 -0.6575  1.9401
19215SOL     OW62964   3.033   8.358   6.578  0.5416  0.2184 -0.2530
19215SOL    HW162965   3.010   8.266   6.568  2.9434 -0.5157  0.2718
19215SOL    HW262966   3.082   8.361   6.661  3.2016  1.3091 -1.7275
19216SOL     OW62967   9.427   5.275   1.051 -0.2319  0.2876 -0.4022
19216SOL    HW162968   9.425   5.236   1.138 -0.0396 -0.8548 -0.8901
19216SOL    HW262969   9.336   5.271   1.021 -0.1444 -0.1615 -0.6110
19217SOL     OW62970   8.547   6.488  10.383  0.0275  0.2724  0.2788
19217SOL    HW162971   8.506   6.513  10.300  1.2529  0.4675 -0.2919
19217SOL    HW262972   8.583   6.401  10.367  1.3331  0.8091  0.1882
19218SOL     OW62973   4.318   3.846   8.852  0.0645  0.2196  0.5334
19218SOL    HW162974   4.391   3.891   8.808 -0.2469 -1.3312 -1.7178
19218SOL    HW262975   4.243   3.903   8.837 -0.0225 -0.2547 -0.9716
19219SOL     OW62976   0.581  11.506   3.963  0.4558  0.2168  0.0418
19219SOL    HW162977   0.608  11.428   4.011  0.5569  0.2747  0.0796
19219SOL    HW262978   0.663  11.549   3.939  0.4112  1.4526  1.8876
19220SOL     OW62979   0.926   5.641   8.472 -0.0968  0.4118 -0.3969
19220SOL    HW162980   0.912   5.579   8.544 -0.8595  1.0127 -0.0022
19220SOL    HW262981   0.871   5.608   8.401  0.2018  0.1450 -0.5097
19221SOL     OW62982   8.696   4.453  10.902  0.4550 -0.4108  0.0286
19221SOL    HW162983   8.660   4.541  10.917 -1.5588 -1.0438 -0.6858
19221SOL    HW262984   8.778   4.468  10.855 -1.5987  1.1010 -3.4641
19222SOL     OW62985   4.190   1.378  11.188  0.2896 -0.3685  0.3562
19222SOL    HW162986   4.117   1.378  11.126  0.8135 -0.4750 -0.2727
19222SOL    HW262987   4.247   1.449  11.159 -2.4141  4.0308  4.3941
19223SOL     OW62988   6.255   7.462   6.642 -0.2629  0.0390  0.5859
19223SOL    HW162989   6.311   7.392   6.677 -0.4029 -0.1293  0.4721
19223SOL    HW262990   6.230   7.513   6.719 -1.2146 -0.7890  0.8506
19224SOL     OW62991   8.683   2.159   1.417 -0.0682  0.1991 -0.1553
19224SOL    HW162992   8.601   2.118   1.388 -0.2799  0.4717  0.0603
19224SOL    HW262993   8.655   2.232   1.472  0.3035  0.9669 -0.9773
19225SOL     OW62994   9.248   8.040   2.944  0.2797 -0.4172  0.0851
19225SOL    HW162995   9.206   7.967   2.897  0.5946 -0.5355 -0.0131
19225SOL    HW262996   9.312   8.075   2.883 -0.3580  0.4090 -0.1310
19226SOL     OW62997   6.879   4.046   1.787 -0.0726  0.6746 -0.6308
19226SOL    HW162998   6.805   3.986   1.790 -0.7571  1.4395 -1.4571
19226SOL    HW262999   6.840   4.133   1.799  0.8923  0.9776  0.5743
19227SOL     OW63000   6.451   4.070   1.390  0.2550  0.2561 -0.1045
19227SOL    HW163001   6.445   4.165   1.404 -1.5369  0.1958 -0.2986
19227SOL    HW263002   6.372   4.048   1.340  0.8661 -1.2798 -0.4456
19228SOL     OW63003   1.179   8.947   1.161  0.6474 -0.4138  0.3797
19228SOL    HW163004   1.181   9.043   1.157  1.3172 -0.2318  2.8459
19228SOL    HW263005   1.139   8.919   1.079 -1.5360  2.0787  0.4931
19229SOL     OW63006   0.778   1.681   6.501  0.2106  0.2337 -0.0180
19229SOL    HW163007   0.707   1.704   6.441  0.5070 -0.5792 -0.7055
19229SOL    HW263008   0.851   1.658   6.443 -0.3100 -3.3241  0.5059
19230SOL     OW63009   3.223   2.713  10.496  0.5965  0.4046 -0.0833
19230SOL    HW163010   3.207   2.654  10.570  1.4882 -0.4575 -0.5470
19230SOL    HW263011   3.257   2.793  10.535 -1.4024  0.9740  0.6314
19231SOL     OW63012   3.135   3.511  11.821 -0.1771  0.7582 -0.0122
19231SOL    HW163013   3.090   3.435  11.784 -0.6016  0.6835  0.6420
19231SOL    HW263014   3.183   3.550  11.747  1.0853 -0.8699 -0.1017
19232SOL     OW63015  10.663   7.287   4.123 -0.2979 -0.7409  0.9338
19232SOL    HW163016  10.627   7.201   4.143 -0.9604 -0.1110  2.5855
19232SOL    HW263017  10.593   7.349   4.144  0.2517  0.2421  0.0247
19233SOL     OW63018  11.286   0.733   6.563 -0.2737 -0.2897 -0.3937
19233SOL    HW163019  11.284   0.829   6.564  1.6923 -0.1757 -1.6038
19233SOL    HW263020  11.275   0.710   6.471  3.0875 -0.9668 -0.7654
19234SOL     OW63021   6.488  10.440   1.313 -0.5386  0.4482 -0.5730
19234SOL    HW163022   6.422  10.397   1.258 -1.5937 -1.3282  1.8782
19234SOL    HW263023   6.437  10.489   1.377  0.5667  0.4218  0.3481
19235SOL     OW63024   7.183   1.764   2.337 -0.0081  0.4175 -0.4292
19235SOL    HW163025   7.130   1.696   2.295  1.2561  0.1150 -1.5852
19235SOL    HW263026   7.273   1.746   2.310  0.4078  2.3668 -0.5355
19236SOL     OW63027   0.113   8.420  11.744  0.7615 -0.2238 -0.0731
19236SOL    HW163028   0.143   8.431  11.835  1.2853 -0.4624 -0.2097
19236SOL    HW263029   0.194   8.407  11.694  0.4212 -0.9992 -0.4396
19237SOL     OW63030  10.521   2.584   8.895  0.2569 -0.0440  0.0998
19237SOL    HW163031  10.459   2.513   8.911 -0.2995  0.2340 -0.7648
19237SOL    HW263032  10.532   2.586   8.800 -0.8351  1.9161 -0.0489
19238SOL     OW63033   9.493   2.488   7.571  0.2823  0.5164 -0.2736
19238SOL    HW163034   9.503   2.511   7.664 -0.9972  0.2572 -0.0540
19238SOL    HW263035   9.399   2.500   7.554  0.7711  2.2857 -2.0045
19239SOL     OW63036   9.647   6.981   4.515 -0.0295  0.8684 -0.0095
19239SOL    HW163037   9.620   6.895   4.485 -1.0472  0.7788  1.0821
19239SOL    HW263038   9.605   7.042   4.454  0.2611  0.6175 -0.4650
19240SOL     OW63039   1.956  10.320   8.426 -0.5392 -0.4728  0.5154
19240SOL    HW163040   1.911  10.246   8.465 -0.2867 -0.4341  0.8861
19240SOL    HW263041   2.046  10.315   8.460 -0.0696 -0.9463 -0.7405
19241SOL     OW63042   6.833   3.015  11.432  0.1666 -0.1538  0.4837
19241SOL    HW163043   6.871   2.955  11.368 -0.5521  1.1970 -1.3086
19241SOL    HW263044   6.905   3.076  11.453 -0.0484  0.3857 -0.3193
19242SOL     OW63045   2.548   5.026   3.167 -0.3803 -0.3708 -0.3029
19242SOL    HW163046   2.505   4.950   3.206 -0.7993  0.6408  1.3285
19242SOL    HW263047   2.642   5.008   3.176 -0.4789 -0.6331  0.2383
19243SOL     OW63048   6.451  10.474   4.092 -0.3714  0.4383 -0.1749
19243SOL    HW163049   6.452  10.540   4.161  1.7085  0.7328 -0.4079
19243SOL    HW263050   6.429  10.523   4.012 -1.5750  0.3157  0.0647
19244SOL     OW63051   3.269   5.686   8.709  0.0226 -0.4040 -0.0377
19244SOL    HW163052   3.205   5.754   8.691 -0.7372 -0.6308  1.6121
19244SOL    HW263053   3.226   5.605   8.686 -1.1231 -0.7364  2.8595
19245SOL     OW63054   5.668   5.716   4.341 -0.3670 -0.1393 -0.4419
19245SOL    HW163055   5.640   5.645   4.284  0.3419  1.0317 -2.3093
19245SOL    HW263056   5.758   5.735   4.315 -0.4813  1.3362  0.1272
19246SOL     OW63057   8.167   6.135   2.848 -0.1732 -0.0482  0.4355
19246SOL    HW163058   8.205   6.073   2.785  0.8066 -0.2635  1.2166
19246SOL    HW263059   8.215   6.216   2.834  0.8247 -0.4009  1.6227
19247SOL     OW63060   6.889   6.510  10.937  0.0431  0.0084  0.1516
19247SOL    HW163061   6.820   6.544  10.879 -0.1470 -1.2733 -0.4072
19247SOL    HW263062   6.916   6.428  10.897  1.2525  0.0228  0.8808
19248SOL     OW63063   2.148   0.012  10.471 -0.0394 -0.1843  0.1391
19248SOL    HW163064   2.112  -0.017  10.388  0.6056 -0.4488 -0.0516
19248SOL    HW263065   2.077  -0.002  10.534 -0.9263  1.0683 -0.5431
19249SOL     OW63066   4.541   3.673   5.020  0.5699  0.4019 -0.0724
19249SOL    HW163067   4.600   3.673   5.095  2.1537  1.0644 -1.2576
19249SOL    HW263068   4.545   3.583   4.988  0.7027  0.3659  0.0413
19250SOL     OW63069   0.962   7.737   9.952  0.0892 -0.0830 -0.3125
19250SOL    HW163070   0.881   7.709   9.995 -1.0928  1.0563 -1.6818
19250SOL    HW263071   1.009   7.785  10.020 -0.9011  0.1635  0.2250
19251SOL     OW63072   1.015   4.395  10.424  0.3081 -0.1419 -1.2559
19251SOL    HW163073   1.052   4.433  10.504  0.0246  1.3026 -1.7730
19251SOL    HW263074   0.960   4.323  10.454 -0.1427  0.6525 -0.1052
19252SOL     OW63075  10.609  10.973   6.108 -0.3276 -0.1423  0.0416
19252SOL    HW163076  10.679  10.927   6.154  0.0134  0.0691 -0.2510
19252SOL    HW263077  10.637  10.972   6.016  0.6138  2.2042  0.2343
19253SOL     OW63078   7.817   2.089   4.595  0.4496 -0.7484  0.5083
19253SOL    HW163079   7.757   2.016   4.606  0.4840 -0.9286 -0.3817
19253SOL    HW263080   7.765   2.156   4.550  0.2503  0.0177  1.8125
19254SOL     OW63081  11.535  11.570   7.026  0.1237  0.1049  0.5705
19254SOL    HW163082  11.440  11.569   7.037  0.0659 -0.7336  0.0792
19254SOL    HW263083  11.558  11.478   7.010  1.0726  0.2255  1.1710
19255SOL     OW63084   1.133  11.275   1.742  0.3998 -0.4184 -0.3351
19255SOL    HW163085   1.076  11.323   1.681 -0.4036  0.0947  0.7890
19255SOL    HW263086   1.152  11.339   1.811  1.1679 -1.0436  0.0361
19256SOL     OW63087  10.789   8.179   1.551  0.5957  0.1690 -0.1815
19256SOL    HW163088  10.746   8.265   1.542 -1.4527 -0.3629  2.8837
19256SOL    HW263089  10.877   8.200   1.582  0.3731  1.1671 -0.1695
19257SOL     OW63090   6.574  10.112   4.737 -0.1950 -0.5962 -0.3523
19257SOL    HW163091   6.637  10.127   4.667 -0.2866 -0.0277 -0.3192
19257SOL    HW263092   6.533  10.198   4.751 -0.0649 -0.6695  0.5034
19258SOL     OW63093  11.785   7.719   0.807  0.0543 -0.4599 -0.2976
19258SOL    HW163094  11.730   7.794   0.782  0.9520  0.8152  1.3326
19258SOL    HW263095  11.786   7.722   0.902  0.5030 -2.2973 -0.2239
19259SOL     OW63096   9.735   7.074   3.543 -0.2322  0.0474 -0.3509
19259SOL    HW163097   9.826   7.048   3.549 -0.9679 -2.6262  0.5898
19259SOL    HW263098   9.731   7.133   3.467  2.2763  0.5447 -0.1849
19260SOL     OW63099   4.747   8.115   3.928  0.7220 -0.3922 -0.9353
19260SOL    HW163100   4.689   8.039   3.939  0.4790 -0.0686  0.1335
19260SOL    HW263101   4.825   8.079   3.885  0.2325 -1.0656 -1.2771
19261SOL     OW63102  10.796   2.586  11.600 -0.4166  0.0049  0.5029
19261SOL    HW163103  10.876   2.547  11.567 -1.1177 -1.2495  0.2081
19261SOL    HW263104  10.743   2.603  11.522  0.1856  2.3797  0.5447
19262SOL     OW63105   6.993   9.886  11.479  0.1108  0.3119 -0.0865
19262SOL    HW163106   6.980   9.828  11.404 -1.5607 -1.2136  1.2842
19262SOL    HW263107   7.086   9.908  11.477  0.6979 -1.9894 -1.0033
19263SOL     OW63108   6.616   9.060  11.802 -0.3044 -0.8492 -0.1447
19263SOL    HW163109   6.603   8.970  11.772  0.3756 -0.5396 -1.4367
19263SOL    HW263110   6.584   9.115  11.730 -0.0668 -0.0620  0.3283
19264SOL     OW63111   3.046  11.707   8.418  0.0276  0.5010  0.5018
19264SOL    HW163112   2.989  11.666   8.483  0.2875 -0.4428  0.1462
19264SOL    HW263113   3.130  11.661   8.426 -0.4845 -1.0446 -1.8171
19265SOL     OW63114   2.748   6.669   4.788 -0.0920 -0.1941  0.0317
19265SOL    HW163115   2.779   6.712   4.709  0.4339 -0.8165 -0.1105
19265SOL    HW263116   2.762   6.576   4.772  2.3995 -0.2269  1.8157
19266SOL     OW63117   5.997   9.084   3.740  0.1045  0.8750  0.2207
19266SOL    HW163118   6.042   9.034   3.808  1.9276  0.8940 -0.9171
19266SOL    HW263119   5.905   9.084   3.768  0.6956  0.4080  2.3601
19267SOL     OW63120   9.924   2.942   2.262 -0.6471  0.5286  0.0569
19267SOL    HW163121   9.863   2.988   2.204  0.5374  1.2709 -0.6377
19267SOL    HW263122   9.930   2.998   2.339 -1.6095 -0.0665  0.5957
19268SOL     OW63123   3.342   7.977   2.852 -0.3089 -0.1328  0.2193
19268SOL    HW163124   3.316   8.001   2.763 -0.9615 -2.6835 -0.3397
19268SOL    HW263125   3.433   8.004   2.858  0.0261 -0.7544 -1.5605
19269SOL     OW63126   2.422   4.308   7.397  0.2001  0.2080  0.1007
19269SOL    HW163127   2.376   4.231   7.364  0.4533  0.2170 -0.2863
19269SOL    HW263128   2.408   4.306   7.492  1.3063 -1.0648  0.2711
19270SOL     OW63129   7.994  11.519   0.418  0.1945  0.4169  0.0589
19270SOL    HW163130   7.914  11.539   0.370  0.2351  0.6053  0.0685
19270SOL    HW263131   7.988  11.571   0.498 -0.4244 -0.7729  0.8213
19271SOL     OW63132   2.041   4.967   3.865 -0.2251  0.1321 -0.1442
19271SOL    HW163133   1.980   5.041   3.876 -0.2108 -0.0737  1.6240
19271SOL    HW263134   2.103   4.976   3.937  0.5206 -0.9317 -0.6238
19272SOL     OW63135   8.183   5.057   0.439  0.2794 -0.6582 -0.0806
19272SOL    HW163136   8.250   4.992   0.421  0.9457  0.4227 -1.7770
19272SOL    HW263137   8.165   5.097   0.354 -1.5993 -0.0461  0.5657
19273SOL     OW63138   7.721   0.602   1.423  0.3236  0.4835  0.9061
19273SOL    HW163139   7.719   0.559   1.509 -0.0119 -0.0572  0.6310
19273SOL    HW263140   7.792   0.559   1.376 -1.5891 -1.5728 -0.2771
19274SOL     OW63141  11.321   0.285   7.816  0.0073  0.8033 -0.2060
19274SOL    HW163142  11.229   0.305   7.800 -0.3980  0.3044  1.3284
19274SOL    HW263143  11.334   0.305   7.909  1.5128  1.0873 -0.4480
19275SOL     OW63144   7.185   3.897   8.384 -0.5484  0.3246 -0.3369
19275SOL    HW163145   7.236   3.974   8.409  0.5321 -0.7758  1.0755
19275SOL    HW263146   7.094   3.927   8.384 -0.4230  1.0630  2.7904
19276SOL     OW63147   8.871   9.499   4.479  0.0284 -0.3692  0.2280
19276SOL    HW163148   8.837   9.424   4.527 -0.2535 -0.4858 -0.1517
19276SOL    HW263149   8.895   9.464   4.393  1.2613 -0.3268  0.5343
19277SOL     OW63150   0.198   7.098   2.639 -0.7009 -0.2054 -0.2721
19277SOL    HW163151   0.151   7.014   2.646  0.1426 -0.5940  1.3200
19277SOL    HW263152   0.256   7.099   2.716 -0.3150  1.6174 -0.5432
19278SOL     OW63153   6.675   6.338   6.563  0.3984 -0.1635 -0.5476
19278SOL    HW163154   6.623   6.419   6.572 -1.3096 -1.2440 -0.1328
19278SOL    HW263155   6.641   6.297   6.484  1.2360 -0.5088 -0.7374
19279SOL     OW63156   9.332   0.393   6.466  0.0367  0.0814 -0.9143
19279SOL    HW163157   9.243   0.366   6.489 -0.1451  1.6664  0.4109
19279SOL    HW263158   9.388   0.349   6.530  0.1174  0.0378 -1.0119
19280SOL     OW63159  11.416   4.711   1.420 -0.8354 -0.2113 -0.0813
19280SOL    HW163160  11.402   4.805   1.428 -0.6183 -0.2085  0.3006
19280SOL    HW263161  11.399   4.692   1.328 -2.4412 -0.0700  0.1635
19281SOL     OW63162   8.084   3.223   8.145  1.0382  0.2230  0.5970
19281SOL    HW163163   8.178   3.228   8.129  0.5454  2.0214 -2.9185
19281SOL    HW263164   8.054   3.153   8.086 -0.2316  2.8955 -2.2285
19282SOL     OW63165   3.813   7.100  10.332 -0.5291 -0.5218 -0.2497
19282SOL    HW163166   3.761   7.129  10.256  1.0814  1.9268 -0.5406
19282SOL    HW263167   3.769   7.021  10.362 -3.1487  0.2294 -1.7526
19283SOL     OW63168   1.801   9.952   7.787 -0.3792  0.2339 -0.1166
19283SOL    HW163169   1.737   9.883   7.772  0.2873 -0.3636 -0.2608
19283SOL    HW263170   1.814   9.993   7.701 -1.0349  0.7760  0.0383
19284SOL     OW63171   9.439   7.936   5.565  0.3979  0.2269 -0.3075
19284SOL    HW163172   9.521   7.977   5.536  0.1308  1.3162  0.4262
19284SOL    HW263173   9.371   7.984   5.518  0.0011  1.5200  1.5001
19285SOL     OW63174   8.466   3.563   4.326 -0.2801  0.4253  0.2295
19285SOL    HW163175   8.503   3.581   4.413 -1.9786  1.3618  0.8103
19285SOL    HW263176   8.396   3.501   4.343  0.5686 -0.8679 -0.7741
19286SOL     OW63177   1.284   8.438  10.901  0.4945 -0.4497 -0.2516
19286SOL    HW163178   1.286   8.364  10.840  0.0024 -0.0770 -0.7367
19286SOL    HW263179   1.211   8.492  10.870  0.0209 -0.4168  0.8693
19287SOL     OW63180   5.701   8.177   0.228  0.0322 -0.4044 -0.0931
19287SOL    HW163181   5.616   8.132   0.230 -0.5323  0.6520  0.5585
19287SOL    HW263182   5.729   8.170   0.136 -0.8605 -0.6024 -0.3641
19288SOL     OW63183   4.957   1.371   3.363  0.0094 -0.2519  0.5326
19288SOL    HW163184   4.886   1.428   3.395  0.1239  0.0834  0.2034
19288SOL    HW263185   4.946   1.372   3.268  1.2404  0.8573  0.3685
19289SOL     OW63186   4.177   0.633   2.585  0.2891  0.2968  0.3763
19289SOL    HW163187   4.208   0.602   2.500 -1.1976  0.7361 -0.3630
19289SOL    HW263188   4.190   0.559   2.644 -2.5845 -1.6576 -1.1938
19290SOL     OW63189   6.172   7.488  10.876  0.4672  0.0354  0.4600
19290SOL    HW163190   6.081   7.504  10.904  0.3731  0.6125 -0.1471
19290SOL    HW263191   6.198   7.570  10.834 -0.7871 -1.8666 -4.8649
19291SOL     OW63192   3.557   8.582   2.333 -0.0007 -0.0988  0.0265
19291SOL    HW163193   3.464   8.584   2.307 -0.1365 -2.2663  0.1539
19291SOL    HW263194   3.604   8.616   2.257 -0.9224  2.3050  0.4329
19292SOL     OW63195   8.691   9.741   9.703 -0.5907 -0.8063  0.4434
19292SOL    HW163196   8.701   9.656   9.661  1.8262  0.0884 -1.0084
19292SOL    HW263197   8.780   9.768   9.724 -1.0226  2.1677 -0.9438
19293SOL     OW63198   3.969   5.465  10.788 -0.3712  0.0702  0.4707
19293SOL    HW163199   3.923   5.487  10.707 -1.9912 -0.8714  1.0772
19293SOL    HW263200   3.971   5.547  10.838 -0.6340  0.3172  0.0775
19294SOL     OW63201   9.811   2.085   5.120  0.2978  0.2712 -0.0583
19294SOL    HW163202   9.782   2.173   5.146  0.9990  0.1775  1.0551
19294SOL    HW263203   9.779   2.027   5.189  1.1105 -0.1452 -0.0185
19295SOL     OW63204   2.044   9.672   6.063  0.4757  0.4107 -0.3979
19295SOL    HW163205   2.084   9.759   6.057  0.8115  0.1876 -1.7790
19295SOL    HW263206   2.117   9.611   6.050  0.0118 -0.0353 -0.9677
19296SOL     OW63207   4.859   8.532   9.648  0.4701 -0.2977 -0.1848
19296SOL    HW163208   4.933   8.551   9.705 -0.6305  2.2323  0.5374
19296SOL    HW263209   4.790   8.500   9.706 -0.0680  0.5634 -0.3260
19297SOL     OW63210   6.595   2.625  10.630 -0.6173  0.2735 -0.2530
19297SOL    HW163211   6.519   2.677  10.656  0.1234  1.5658 -0.5683
19297SOL    HW263212   6.641   2.681  10.568  1.0547 -0.1109  0.5996
19298SOL     OW63213   4.304   1.585  11.042 -0.1009  0.0761 -0.1744
19298SOL    HW163214   4.331   1.530  10.968 -1.4139 -1.4724  0.4429
19298SOL    HW263215   4.381   1.641  11.059 -0.0349  1.0895 -3.1745
19299SOL     OW63216   4.253   3.145   0.463 -0.1633 -0.3477 -0.8493
19299SOL    HW163217   4.337   3.104   0.443 -0.0354 -1.4056  1.5768
19299SOL    HW263218   4.275   3.236   0.482  0.5040 -0.7003  0.1085
19300SOL     OW63219   8.142   8.206   0.773 -0.2731  0.0416  0.0483
19300SOL    HW163220   8.111   8.163   0.694  0.6303 -0.7448  0.0970
19300SOL    HW263221   8.233   8.176   0.782 -0.5405 -0.3916  1.7090
19301SOL     OW63222   3.389   7.002   7.098  0.7435 -0.1381 -0.6124
19301SOL    HW163223   3.386   6.909   7.122  1.0107  0.0962  0.3755
19301SOL    HW263224   3.482   7.025   7.101  0.5937  0.4183  0.2260
19302SOL     OW63225   6.194   1.926   1.747 -0.0126 -0.2926 -0.4227
19302SOL    HW163226   6.256   1.857   1.768 -0.0373 -0.2450 -0.1924
19302SOL    HW263227   6.140   1.936   1.826 -0.3428 -0.3663 -0.6377
19303SOL     OW63228  11.019  10.343   4.944  0.0432  0.5961  0.0184
19303SOL    HW163229  11.055  10.349   4.855 -1.2228 -0.7231 -0.6216
19303SOL    HW263230  10.929  10.373   4.936 -0.3445 -0.3487  0.6696
19304SOL     OW63231   2.541   7.869  10.825 -0.2443  0.3553 -0.1711
19304SOL    HW163232   2.593   7.917  10.760  0.7648  0.7761  0.9137
19304SOL    HW263233   2.451   7.882  10.797  0.1682  0.5076 -1.5002
19305SOL     OW63234  10.212   5.440   3.636  0.2677  0.2167  0.0735
19305SOL    HW163235  10.306   5.459   3.636  0.6439 -0.8073  3.7618
19305SOL    HW263236  10.170   5.525   3.649  0.7329  0.5588 -0.6292
19306SOL     OW63237   3.358   2.870   2.919 -0.3853  0.2200 -0.4473
19306SOL    HW163238   3.404   2.952   2.933 -1.3859  0.6791  0.2735
19306SOL    HW263239   3.266   2.895   2.909 -0.5058 -0.6539 -1.9794
19307SOL     OW63240   2.585   3.982   9.137 -0.2007  0.1609 -0.5079
19307SOL    HW163241   2.627   3.924   9.201  1.8514  2.0689  0.0139
19307SOL    HW263242   2.492   3.977   9.158  0.2431 -0.4753  1.6346
19308SOL     OW63243   6.975   2.957   2.121  0.0886  0.5611  0.0783
19308SOL    HW163244   6.939   2.981   2.036 -0.3560 -0.3477  0.0003
19308SOL    HW263245   6.923   3.005   2.185 -0.6181  0.0202 -0.0868
19309SOL     OW63246   6.695  11.603  11.093  0.2496  0.4080 -0.2891
19309SOL    HW163247   6.685  11.691  11.129 -0.5186  0.4205 -0.5160
19309SOL    HW263248   6.630  11.598  11.023 -0.9100 -0.9003  0.8046
19310SOL     OW63249   0.609  11.142   2.766 -0.0191  0.6933 -0.2484
19310SOL    HW163250   0.543  11.140   2.697 -0.4038  1.2512  0.0993
19310SOL    HW263251   0.590  11.221   2.816 -0.6194 -0.4361  1.3782
19311SOL     OW63252   5.676   9.154   5.332 -0.0658  0.2280 -0.2460
19311SOL    HW163253   5.738   9.217   5.367  0.3427 -1.2335  1.8441
19311SOL    HW263254   5.725   9.106   5.265  0.2831  0.7012 -0.3306
19312SOL     OW63255   4.635   3.790   1.697  0.1808  0.1848 -0.3658
19312SOL    HW163256   4.551   3.769   1.737 -0.2611  1.7715 -0.4042
19312SOL    HW263257   4.695   3.723   1.731 -0.9050 -0.4689  0.3132
19313SOL     OW63258   2.135   2.749  10.750  0.5005 -0.2038 -0.3944
19313SOL    HW163259   2.206   2.704  10.705  3.3747 -1.0749  4.3018
19313SOL    HW263260   2.087   2.680  10.797  0.1012  0.8724  0.8607
19314SOL     OW63261  11.721  11.595   7.492 -0.2654 -0.0886  0.0552
19314SOL    HW163262  11.675  11.567   7.571 -1.4941 -0.1142 -0.6451
19314SOL    HW263263  11.770  11.517   7.464 -0.8643 -0.4801  0.0734
19315SOL     OW63264   6.957  11.027   1.103 -0.7928  0.3922  0.0023
19315SOL    HW163265   6.893  11.098   1.115  0.5342  1.3197  2.1497
19315SOL    HW263266   7.038  11.072   1.079  0.5688 -0.0826  3.1808
19316SOL     OW63267   5.885   1.808   4.713  0.5287  0.2423  0.1909
19316SOL    HW163268   5.910   1.771   4.797 -0.6594 -1.8646 -0.3065
19316SOL    HW263269   5.961   1.860   4.686  1.9942 -1.1684  1.3690
19317SOL     OW63270   8.923   2.493   7.445 -0.3766  0.5822 -0.0972
19317SOL    HW163271   8.852   2.475   7.383  0.2935  0.1792 -0.7491
19317SOL    HW263272   8.962   2.575   7.414 -1.1922  1.3544  0.8520
19318SOL     OW63273   9.510  11.430   5.239 -0.1820  0.1730 -0.6140
19318SOL    HW163274   9.594  11.457   5.277 -1.2027  0.7726  1.3865
19318SOL    HW263275   9.497  11.341   5.272 -1.4544  0.9856  1.2580
19319SOL     OW63276   7.988   4.274   7.084 -0.5112  0.5054 -0.2610
19319SOL    HW163277   8.045   4.208   7.123 -0.5192  0.7339  0.1543
19319SOL    HW263278   7.915   4.224   7.047 -1.1935  0.3363  1.2017
19320SOL     OW63279   5.717   1.614   2.742  0.0497 -0.0764  0.0445
19320SOL    HW163280   5.787   1.627   2.806  0.3731  0.4506 -0.4030
19320SOL    HW263281   5.762   1.608   2.658 -0.4863  1.4606 -0.3963
19321SOL     OW63282   1.133   6.864   6.202  0.2616 -0.3454 -0.4082
19321SOL    HW163283   1.051   6.906   6.177  0.7538 -0.2567 -1.9238
19321SOL    HW263284   1.202   6.925   6.173  0.8936 -0.8410  0.0112
19322SOL     OW63285   4.529   3.021  10.501 -0.1807 -0.0207 -0.4137
19322SOL    HW163286   4.601   3.085  10.497  0.8539 -1.1247  0.1117
19322SOL    HW263287   4.540   2.978  10.586 -0.7772 -0.9907 -0.8164
19323SOL     OW63288   2.493   0.238   6.698  0.0227 -0.0844 -0.2917
19323SOL    HW163289   2.420   0.176   6.689  0.6933 -0.8822 -0.3987
19323SOL    HW263290   2.517   0.259   6.608 -1.2140  1.5870 -0.2664
19324SOL     OW63291   5.959   2.389  11.661  0.4529 -0.3368  0.4352
19324SOL    HW163292   5.948   2.360  11.570 -1.3291 -0.4824  0.6545
19324SOL    HW263293   5.907   2.327  11.712  1.3689 -0.2067  1.5682
19325SOL     OW63294   7.315   6.888  10.383  0.3951 -0.3266 -0.2174
19325SOL    HW163295   7.225   6.870  10.356  0.0005  0.2124  0.7047
19325SOL    HW263296   7.324   6.983  10.377  0.5150 -0.2536  0.8231
19326SOL     OW63297   8.525   0.651  10.093  0.2728  0.4144  0.4295
19326SOL    HW163298   8.498   0.574  10.144 -1.0896  1.6718  1.7220
19326SOL    HW263299   8.445   0.680  10.050  0.6575  1.3827  0.3426
19327SOL     OW63300   3.694  10.834   6.150 -0.6398 -0.5425  0.3752
19327SOL    HW163301   3.659  10.861   6.065 -1.2770 -0.4091  0.6799
19327SOL    HW263302   3.782  10.803   6.130 -0.6059 -0.0559 -0.2644
19328SOL     OW63303  10.979   1.242   2.518  0.1851 -0.0423 -0.8720
19328SOL    HW163304  11.000   1.317   2.462  1.0978  1.4911  1.3757
19328SOL    HW263305  10.907   1.273   2.573 -1.4825 -1.9078 -1.8794
19329SOL     OW63306  10.647   8.902   0.464  0.3046  0.1891  0.0526
19329SOL    HW163307  10.581   8.885   0.530  0.3338 -0.0113  0.0312
19329SOL    HW263308  10.687   8.985   0.490 -2.1807  2.0753 -1.7244
19330SOL     OW63309   6.624   7.504   3.715  0.2433  0.0947 -0.2450
19330SOL    HW163310   6.619   7.423   3.766  1.3125  0.0309 -0.2200
19330SOL    HW263311   6.718   7.517   3.699  0.1208  1.4410 -0.0505
19331SOL     OW63312   2.419   8.052  10.307 -0.0148  0.3509  0.0344
19331SOL    HW163313   2.385   8.011  10.386  1.1904 -0.3850  0.2002
19331SOL    HW263314   2.349   8.112  10.278 -0.8166 -0.0236  1.1469
19332SOL     OW63315   6.487   2.256   9.494  0.0171  0.7160  0.2831
19332SOL    HW163316   6.577   2.225   9.487  0.3435  1.6201  0.3799
19332SOL    HW263317   6.482   2.299   9.579 -0.8047 -0.2440  0.7385
19333SOL     OW63318  10.845   7.392   8.139 -0.3022 -0.1090  0.1732
19333SOL    HW163319  10.771   7.337   8.163 -2.2454  2.0680 -0.4788
19333SOL    HW263320  10.920   7.352   8.183 -1.6290 -2.9721  0.0749
19334SOL     OW63321   0.052   3.270   5.660  0.1034  0.2339  0.0658
19334SOL    HW163322   0.006   3.346   5.625 -0.2597  0.3455  0.7601
19334SOL    HW263323   0.125   3.306   5.709 -0.1426  0.1447  0.5027
19335SOL     OW63324   7.803   9.608   9.365 -0.4698 -0.2041  0.0915
19335SOL    HW163325   7.716   9.585   9.331 -0.9984  0.6731  0.7995
19335SOL    HW263326   7.787   9.684   9.422  0.7283 -0.1911  0.4331
19336SOL     OW63327   2.174   1.547   4.776 -0.3897 -0.3023  0.3819
19336SOL    HW163328   2.227   1.570   4.699 -0.0345  0.8496  0.9480
19336SOL    HW263329   2.208   1.603   4.846 -1.6340 -0.3297  1.0304
19337SOL     OW63330  11.689   3.943   4.685 -0.1553 -1.0017  0.4477
19337SOL    HW163331  11.642   3.883   4.626  1.4087 -0.3175 -1.6505
19337SOL    HW263332  11.663   4.031   4.655  1.7659 -0.6258 -0.2422
19338SOL     OW63333   8.147   2.192   4.547 -0.3813  0.5462  0.2518
19338SOL    HW163334   8.152   2.135   4.470  0.9475  0.6481  0.2353
19338SOL    HW263335   8.159   2.280   4.513  0.2528  0.5885  0.5652
19339SOL     OW63336   7.360  10.680   4.215 -0.6517 -0.4113  0.1766
19339SOL    HW163337   7.454  10.661   4.217 -0.7944 -1.0789  0.8892
19339SOL    HW263338   7.328  10.651   4.301 -1.1867  1.4993  0.6840
19340SOL     OW63339   0.163  10.851   0.036 -0.1115 -0.2265  0.0211
19340SOL    HW163340   0.150  10.916  -0.034 -1.2829 -0.9040 -0.4277
19340SOL    HW263341   0.151  10.901   0.117 -0.2816  0.2656 -0.2994
19341SOL     OW63342   6.527  10.492   5.377  0.0755 -0.0960 -0.0147
19341SOL    HW163343   6.591  10.476   5.307 -0.3659 -0.7437 -0.2735
19341SOL    HW263344   6.458  10.427   5.362 -0.7098  0.6777  0.1837
19342SOL     OW63345   5.299   7.114   2.628 -0.0254 -0.2510  0.3825
19342SOL    HW163346   5.313   7.019   2.627 -1.4235 -0.4967  1.4364
19342SOL    HW263347   5.333   7.142   2.712 -0.5400  0.0246  0.4987
19343SOL     OW63348   5.875  10.953   2.044  0.5132  0.2210 -0.5341
19343SOL    HW163349   5.807  10.925   2.106  1.7188 -0.8763  0.3439
19343SOL    HW263350   5.876  11.048   2.052  1.9364  0.0685  2.6939
19344SOL     OW63351   0.551   0.546   3.938 -0.5074 -0.6047 -0.2661
19344SOL    HW163352   0.526   0.454   3.944 -0.8100 -0.5406 -0.5539
19344SOL    HW263353   0.626   0.546   3.878 -0.7320 -0.6171 -0.5432
19345SOL     OW63354   6.047   2.172   8.213  0.0089  0.1452 -0.1725
19345SOL    HW163355   5.960   2.149   8.178 -0.6192  1.5319  0.4013
19345SOL    HW263356   6.034   2.180   8.307  1.3430 -2.0129  0.2431
19346SOL     OW63357   4.999  10.092   0.884  0.2314 -0.1728 -0.1111
19346SOL    HW163358   4.919  10.135   0.915  1.3611  2.0925 -0.1761
19346SOL    HW263359   5.042  10.061   0.963 -0.1341 -0.3692  0.0134
19347SOL     OW63360   8.158  10.994   4.036  0.2047 -0.1372  0.0406
19347SOL    HW163361   8.096  11.054   4.077 -0.6589 -1.2798  0.4650
19347SOL    HW263362   8.244  11.027   4.061 -0.2559  0.7489  0.4906
19348SOL     OW63363   1.166   5.639   9.756 -0.3973 -0.1078  0.4932
19348SOL    HW163364   1.115   5.711   9.718  2.4307  0.5095 -2.5912
19348SOL    HW263365   1.107   5.564   9.754 -2.0083  1.1208 -0.4266
19349SOL     OW63366   9.980  11.566  10.114  0.7926 -0.1451 -0.5482
19349SOL    HW163367   9.918  11.507  10.156  0.3850 -0.8219 -2.0572
19349SOL    HW263368   9.942  11.653  10.126 -0.2922 -0.5208 -1.1963
19350SOL     OW63369   4.713   8.472   7.752 -0.0168  0.7913  0.0454
19350SOL    HW163370   4.724   8.426   7.835  1.0429 -0.8045 -0.9059
19350SOL    HW263371   4.656   8.416   7.700  0.3259  1.1417 -0.7342
19351SOL     OW63372   3.957   0.769   2.743  0.3649 -0.0390 -0.1789
19351SOL    HW163373   4.041   0.802   2.776  0.2300 -1.6698  1.9757
19351SOL    HW263374   3.974   0.678   2.720 -0.3989  0.1322 -1.5617
19352SOL     OW63375   0.291   0.262   7.858 -0.4232 -0.1004  0.5868
19352SOL    HW163376   0.199   0.282   7.873 -0.1111  1.2093  0.8421
19352SOL    HW263377   0.322   0.224   7.940 -0.4848  0.4083  0.8460
19353SOL     OW63378   2.809   8.640  10.963  0.0738  0.3886  0.0245
19353SOL    HW163379   2.835   8.678  10.879 -1.8417 -0.4567 -1.0272
19353SOL    HW263380   2.861   8.560  10.970  1.0915  1.0472  0.2463
19354SOL     OW63381   4.810   2.117   3.461  0.1740  0.0985  0.1056
19354SOL    HW163382   4.790   2.041   3.515 -1.2991  0.9176  0.7715
19354SOL    HW263383   4.873   2.085   3.397  0.1757 -1.4813  0.8511
19355SOL     OW63384   5.812   1.729  10.996 -0.0538  0.2670  0.3619
19355SOL    HW163385   5.827   1.742  11.090  0.1793  0.9473  0.2391
19355SOL    HW263386   5.887   1.772  10.954 -1.2596  1.9423 -0.2107
19356SOL     OW63387   5.646   2.389   2.125  0.2828 -0.1372  0.4263
19356SOL    HW163388   5.612   2.335   2.054 -1.2509 -0.1166  1.0979
19356SOL    HW263389   5.718   2.439   2.086 -1.4309  0.9755 -1.5248
19357SOL     OW63390   3.363   7.611  11.298  0.1802 -0.4751  0.0761
19357SOL    HW163391   3.420   7.536  11.307  1.4433  0.1932 -1.8153
19357SOL    HW263392   3.282   7.576  11.261  1.1144 -0.8465 -1.7522
19358SOL     OW63393   1.272   6.917  10.034  0.4558  0.0023  0.5611
19358SOL    HW163394   1.314   6.855   9.974 -1.2458 -0.1707 -0.5014
19358SOL    HW263395   1.239   6.987   9.978  0.4863  0.8162  1.5170
19359SOL     OW63396  11.673   7.808  10.499  0.5853 -0.1016 -0.0309
19359SOL    HW163397  11.750   7.807  10.441 -0.1173 -0.5617 -0.9806
19359SOL    HW263398  11.688   7.883  10.556  2.1839 -0.7084  0.4119
19360SOL     OW63399   8.409   1.996   8.491  0.4667  0.0761  0.6402
19360SOL    HW163400   8.349   2.070   8.481 -0.5810 -0.8404 -0.2377
19360SOL    HW263401   8.403   1.950   8.408  1.9599 -0.3896  0.7630
19361SOL     OW63402  11.662   8.828  10.588  0.7125  0.2656  0.1284
19361SOL    HW163403  11.637   8.919  10.601  0.9052  0.3809 -0.2613
19361SOL    HW263404  11.715   8.806  10.665  1.6149  0.8419 -0.3012
19362SOL     OW63405   4.916   2.348   7.624  0.0287  0.0538 -0.6358
19362SOL    HW163406   4.835   2.299   7.631  0.1357 -0.2797 -1.5222
19362SOL    HW263407   4.892   2.438   7.644 -0.2347 -0.2900  0.6937
19363SOL     OW63408  10.396  11.015   6.482 -0.4535 -0.0108  0.1266
19363SOL    HW163409  10.442  11.070   6.419 -1.2953  2.0166  1.1974
19363SOL    HW263410  10.303  11.037   6.472 -0.7194 -0.4821  1.2767
19364SOL     OW63411  10.190  11.666  11.047 -0.0517  0.0699  0.5245
19364SOL    HW163412  10.098  11.693  11.048  0.0469  0.4498 -0.0780
19364SOL    HW263413  10.199  11.607  11.122 -0.8647 -0.2478  0.3791
19365SOL     OW63414   9.769   4.817   2.950  0.0127 -0.1884 -0.1344
19365SOL    HW163415   9.831   4.858   2.891  0.1007 -1.6756 -1.1198
19365SOL    HW263416   9.807   4.731   2.970 -1.9367 -1.3684 -1.2127
19366SOL     OW63417   8.149   6.249   7.527  0.3220 -0.1180 -0.1421
19366SOL    HW163418   8.147   6.292   7.442 -1.0931 -0.6366 -0.3995
19366SOL    HW263419   8.109   6.163   7.512 -0.6768  0.0733  1.1986
19367SOL     OW63420   8.590   9.588   7.488  0.5998 -0.5088 -0.2115
19367SOL    HW163421   8.622   9.675   7.464 -0.3687 -0.2375 -0.5466
19367SOL    HW263422   8.611   9.581   7.581  2.2856 -0.6464 -0.5628
19368SOL     OW63423   2.960   6.248   2.534  0.0630 -0.6461 -0.0356
19368SOL    HW163424   2.978   6.341   2.521 -0.8393 -0.3651  0.7087
19368SOL    HW263425   2.964   6.210   2.446  0.2891  0.1167 -0.3559
19369SOL     OW63426   7.062   9.357   8.121 -0.0988  0.2447 -0.1312
19369SOL    HW163427   7.026   9.430   8.070  0.3167  0.6236  0.1059
19369SOL    HW263428   7.096   9.297   8.054 -0.2440  0.3747 -0.3241
19370SOL     OW63429   9.052   0.883   3.646  0.5312  0.3319 -0.0318
19370SOL    HW163430   9.131   0.933   3.625  0.0552  0.5530 -1.4274
19370SOL    HW263431   9.049   0.814   3.580 -0.0422 -0.1248  0.4648
19371SOL     OW63432  10.041   9.594   3.478  0.0354 -0.0711  0.2957
19371SOL    HW163433   9.956   9.630   3.450 -0.2823 -1.4581 -0.6489
19371SOL    HW263434  10.105   9.644   3.428 -0.3129  0.0999  0.0126
19372SOL     OW63435   2.254  10.681   9.844  0.1719  0.2596 -0.3801
19372SOL    HW163436   2.259  10.666   9.939  0.2561  2.1624 -0.0399
19372SOL    HW263437   2.164  10.661   9.822 -0.1753  0.9448  0.3494
19373SOL     OW63438   7.684   2.813   9.436 -0.0904 -0.3784 -0.3716
19373SOL    HW163439   7.676   2.818   9.531 -1.3544 -2.8712 -0.2556
19373SOL    HW263440   7.778   2.806   9.420  0.1995  0.9086  0.5920
19374SOL     OW63441   9.417   3.004  10.205  0.4265 -0.0643  0.1950
19374SOL    HW163442   9.324   2.990  10.223  0.8914 -3.4253  0.6173
19374SOL    HW263443   9.424   3.097  10.185 -3.0889  0.2158 -0.3121
19375SOL     OW63444   9.503   7.303  10.732 -0.1100 -0.1896  0.2542
19375SOL    HW163445   9.480   7.296  10.824  0.3831 -1.8304  0.3016
19375SOL    HW263446   9.593   7.336  10.732 -1.0393  2.5457  0.2098
19376SOL     OW63447   3.131  10.534   1.388  0.3822 -0.3229 -0.2902
19376SOL    HW163448   3.196  10.599   1.362 -0.6615  0.7143 -0.4421
19376SOL    HW263449   3.163  10.499   1.471  0.6916  0.8427  0.1072
19377SOL     OW63450   8.761   9.858   5.335  0.0549  0.6430 -0.3051
19377SOL    HW163451   8.690   9.805   5.371 -1.4975  2.7606 -0.0444
19377SOL    HW263452   8.778   9.820   5.249 -2.1301  0.6220 -0.8064
19378SOL     OW63453   6.430   7.637  10.509  0.2795  0.6995  0.0246
19378SOL    HW163454   6.425   7.652  10.414 -0.6566  0.1872 -0.0201
19378SOL    HW263455   6.449   7.544  10.518 -0.3766  0.5930  0.3442
19379SOL     OW63456   4.264   0.776  10.441  0.0057 -0.1731 -0.4361
19379SOL    HW163457   4.243   0.683  10.434  0.8317 -0.6866  2.3496
19379SOL    HW263458   4.187   0.815  10.483  0.7968 -0.2580  1.1946
19380SOL     OW63459   2.407   4.178   9.476 -0.1619 -0.5395 -0.0231
19380SOL    HW163460   2.363   4.148   9.396 -2.2675 -3.1357  1.9210
19380SOL    HW263461   2.337   4.213   9.531  1.2164  1.0913  0.7975
19381SOL     OW63462   7.236   4.712   5.154  0.8661 -0.9449 -0.1220
19381SOL    HW163463   7.194   4.797   5.170  1.8561 -0.2518 -1.0654
19381SOL    HW263464   7.227   4.666   5.238  1.2892  0.5310  0.7847
19382SOL     OW63465  10.262   2.554   3.529 -0.1058 -0.0652  0.0438
19382SOL    HW163466  10.202   2.536   3.601  0.4551  1.1916  0.8714
19382SOL    HW263467  10.277   2.468   3.488 -2.5651 -0.3835 -0.3236
19383SOL     OW63468   9.217   4.998   4.390 -0.4625 -0.8844  0.0665
19383SOL    HW163469   9.302   5.034   4.365  0.2245 -1.4371  1.5174
19383SOL    HW263470   9.231   4.903   4.391 -1.4063 -1.0468 -0.7373
19384SOL     OW63471   9.170   6.662   9.131 -0.0494  0.0415  0.2776
19384SOL    HW163472   9.160   6.715   9.210  0.7132  1.2507 -0.3932
19384SOL    HW263473   9.265   6.652   9.120 -0.1290  0.1608 -0.6411
19385SOL     OW63474   2.476   5.685   2.465 -0.5503  0.2038  0.0472
19385SOL    HW163475   2.561   5.665   2.425 -0.4076 -0.8657  0.8588
19385SOL    HW263476   2.498   5.714   2.554 -1.0371 -0.0344  0.2452
19386SOL     OW63477  10.602   2.927   8.892 -0.0032  0.4923 -0.0906
19386SOL    HW163478  10.687   2.903   8.855 -0.0445  0.4547 -0.1608
19386SOL    HW263479  10.538   2.887   8.833 -0.0674 -0.1826  0.4223
19387SOL     OW63480   7.726   4.507   9.672  0.2556  0.7038  0.6254
19387SOL    HW163481   7.743   4.451   9.596 -1.2578  0.0948  0.7040
19387SOL    HW263482   7.745   4.450   9.747  0.2642  0.8157  0.7072
19388SOL     OW63483  11.808   4.119   6.150 -0.0816  0.4308 -0.1043
19388SOL    HW163484  11.750   4.119   6.074 -1.0204  1.3946  0.5745
19388SOL    HW263485  11.809   4.029   6.180  1.3233 -0.2395 -1.9792
19389SOL     OW63486   0.065   4.658   9.462 -0.2407 -0.3399 -0.4088
19389SOL    HW163487   0.125   4.628   9.531 -0.0144 -1.4715 -1.0657
19389SOL    HW263488   0.044   4.748   9.486 -1.0585 -1.0411  1.7647
19390SOL     OW63489  11.376   1.689   7.013 -0.1452 -0.2675 -0.2209
19390SOL    HW163490  11.343   1.701   6.923 -2.3852  0.1594  0.5738
19390SOL    HW263491  11.371   1.595   7.028  2.1159 -0.5942 -1.1375
19391SOL     OW63492   1.420   5.511   6.793 -0.2827  0.1345  0.4309
19391SOL    HW163493   1.424   5.607   6.791 -0.8038  0.1512  0.0287
19391SOL    HW263494   1.354   5.491   6.859 -1.5595  0.1055 -0.8042
19392SOL     OW63495   2.700   2.530   6.293  0.3245  0.1791 -0.3417
19392SOL    HW163496   2.708   2.436   6.309  1.5296  0.3289  0.0329
19392SOL    HW263497   2.717   2.540   6.200 -0.2219 -0.0019 -0.4694
19393SOL     OW63498   4.990   7.607   9.412  0.0672  0.5215 -0.0881
19393SOL    HW163499   5.077   7.565   9.410  0.3334  0.8428  2.1487
19393SOL    HW263500   4.930   7.537   9.388  0.8165 -0.1369 -0.1075
19394SOL     OW63501   6.069  11.799   3.967  0.4235 -0.2537  0.2889
19394SOL    HW163502   5.979  11.831   3.970  0.4699 -0.2047  1.6873
19394SOL    HW263503   6.110  11.848   3.896  0.0773  1.7476  1.3995
19395SOL     OW63504   4.697   4.270   4.854 -0.4180 -0.3833 -0.5307
19395SOL    HW163505   4.614   4.234   4.886  0.2620 -2.5874 -1.0605
19395SOL    HW263506   4.676   4.360   4.829 -2.1109 -0.1740  1.3783
19396SOL     OW63507   5.463   4.389   9.748 -0.4898  0.1839 -0.1304
19396SOL    HW163508   5.464   4.480   9.776  0.8465 -0.1808  1.1424
19396SOL    HW263509   5.539   4.380   9.690  0.8135 -0.5774  1.5672
19397SOL     OW63510   7.176   4.270  10.686  0.8042  0.1330  0.6217
19397SOL    HW163511   7.137   4.199  10.635 -1.5771  3.2945 -2.4169
19397SOL    HW263512   7.252   4.297  10.636  0.5057  0.9996  0.6205
19398SOL     OW63513   7.205   2.393   6.256 -0.5603 -0.1633  0.3542
19398SOL    HW163514   7.146   2.464   6.233 -1.4162 -1.0088 -0.1001
19398SOL    HW263515   7.290   2.436   6.269 -0.6245  0.6932 -1.7383
19399SOL     OW63516   3.134   9.039  10.366  0.0045  0.5241 -0.0747
19399SOL    HW163517   3.080   8.961  10.375  1.2879 -0.4847 -0.7981
19399SOL    HW263518   3.145   9.050  10.272 -0.1485  1.5756  0.0202
19400SOL     OW63519   7.569  10.765   8.385  0.0454 -0.1120  0.8263
19400SOL    HW163520   7.628  10.837   8.408 -1.2121  0.6897  1.6888
19400SOL    HW263521   7.624  10.687   8.388  0.9814  0.5500  2.0864
19401SOL     OW63522   5.095   8.570   8.194  1.2524  0.3694 -0.2902
19401SOL    HW163523   5.166   8.612   8.243  0.8759 -0.4782  1.0356
19401SOL    HW263524   5.021   8.631   8.202  0.5745 -0.6215  1.9963
19402SOL     OW63525  11.453   2.876   4.379  0.7388 -0.1517 -0.0458
19402SOL    HW163526  11.363   2.844   4.386  0.0981  1.3434 -0.9311
19402SOL    HW263527  11.465   2.930   4.458 -0.3195  2.2675 -1.4298
19403SOL     OW63528   7.326   4.359   2.512  0.5464 -0.0010  0.8881
19403SOL    HW163529   7.358   4.434   2.462 -1.6486  0.6467  0.3324
19403SOL    HW263530   7.399   4.297   2.512  1.4778  1.0101 -0.9738
19404SOL     OW63531  10.782   1.338  10.533  0.7843 -0.0940 -0.7109
19404SOL    HW163532  10.706   1.392  10.514  0.3572  0.0795  1.3112
19404SOL    HW263533  10.845   1.398  10.573  2.3307 -0.0797 -2.9221
19405SOL     OW63534   1.386   5.711   2.060 -0.4264 -0.6420  0.1630
19405SOL    HW163535   1.320   5.666   2.008 -0.5277 -0.7031  0.3444
19405SOL    HW263536   1.347   5.719   2.147  0.2642 -1.7360  0.5997
19406SOL     OW63537   6.356   3.654   4.818 -0.1201  0.2331 -0.0326
19406SOL    HW163538   6.283   3.710   4.843 -0.5061 -0.1456 -0.3140
19406SOL    HW263539   6.376   3.604   4.897 -2.5902 -2.3709 -0.8808
19407SOL     OW63540   4.927   1.572   9.624 -0.0823  0.2681  0.9324
19407SOL    HW163541   5.015   1.610   9.628  0.8355 -1.4335 -0.9300
19407SOL    HW263542   4.870   1.645   9.600  1.4836  0.7565 -1.7179
19408SOL     OW63543   4.196   0.408  10.995  0.3823  0.3274  0.1288
19408SOL    HW163544   4.184   0.502  10.987  0.9923  0.3044 -1.3479
19408SOL    HW263545   4.285   0.397  11.029  0.3760  0.2858  0.1325
19409SOL     OW63546   4.253   2.637   6.249  0.3695 -0.7707 -0.3923
19409SOL    HW163547   4.296   2.619   6.333 -0.8531 -1.3010  0.1469
19409SOL    HW263548   4.203   2.557   6.230  0.1237 -0.4140 -1.2995
19410SOL     OW63549   0.447   0.127  10.075  0.4388 -0.0115  0.1560
19410SOL    HW163550   0.493   0.096   9.998 -0.2756 -1.3036  0.2125
19410SOL    HW263551   0.396   0.051  10.105  0.8271  0.3939  1.9924
19411SOL     OW63552   5.048   6.527   7.834  0.1451 -0.0618  0.2199
19411SOL    HW163553   5.035   6.599   7.895 -1.0600  0.2802 -0.3919
19411SOL    HW263554   5.076   6.569   7.752 -0.3392 -0.2930 -0.0722
19412SOL     OW63555  10.924   7.623   7.363 -0.0213  0.3298 -0.3423
19412SOL    HW163556  10.901   7.538   7.327  1.1596 -0.3648  0.4612
19412SOL    HW263557  10.939   7.607   7.456 -0.4403  1.5559 -0.0452
19413SOL     OW63558   9.847  10.285   1.914 -0.1377 -0.4066 -0.3078
19413SOL    HW163559   9.766  10.315   1.874 -0.0966 -0.3899 -0.3785
19413SOL    HW263560   9.830  10.194   1.939 -1.0511  0.3481  2.0228
19414SOL     OW63561   4.830   9.371   5.977 -0.0648  0.3260  0.0778
19414SOL    HW163562   4.795   9.326   5.900  0.2225 -1.6554  1.0494
19414SOL    HW263563   4.755   9.380   6.035  0.3190 -1.0270  0.8287
19415SOL     OW63564   0.814   7.837   8.443 -0.9073  0.1872 -0.2247
19415SOL    HW163565   0.823   7.900   8.372  0.5496  0.2262 -0.0396
19415SOL    HW263566   0.818   7.752   8.400 -1.0540  0.2147 -0.2931
19416SOL     OW63567   1.691   8.373   0.029 -0.0575  0.1447 -0.1124
19416SOL    HW163568   1.726   8.418  -0.049 -1.4154  0.0778 -0.7920
19416SOL    HW263569   1.704   8.280   0.010  0.8385  0.1705  0.3527
19417SOL     OW63570  11.069   2.367   4.631 -0.6618  0.6106 -0.1051
19417SOL    HW163571  11.127   2.296   4.601  0.3663  1.3449  0.0957
19417SOL    HW263572  10.982   2.339   4.603  0.0246  0.4478 -2.3020
19418SOL     OW63573   2.196   4.831   7.694  0.5629  0.4845 -0.1026
19418SOL    HW163574   2.215   4.919   7.727  0.2985  0.4268  0.2143
19418SOL    HW263575   2.203   4.839   7.599 -1.3433  1.3278 -0.2193
19419SOL     OW63576   8.625   7.948   4.090  0.2965  0.2819 -0.1031
19419SOL    HW163577   8.556   7.906   4.039  0.1220 -1.1957  1.2773
19419SOL    HW263578   8.685   7.983   4.024 -0.3177 -0.8837 -1.3222
19420SOL     OW63579   9.326   3.025   7.462 -0.4650  0.3260 -0.4510
19420SOL    HW163580   9.347   3.069   7.544  1.3214 -0.2148 -0.5843
19420SOL    HW263581   9.301   3.095   7.403 -1.6479  0.7406  0.4869
19421SOL     OW63582   8.766   2.468   2.922  0.2459  0.2456  0.0377
19421SOL    HW163583   8.727   2.386   2.953  1.8199 -0.1998  0.9349
19421SOL    HW263584   8.744   2.471   2.829  0.0215 -1.1145  0.0288
19422SOL     OW63585  10.541   6.316   4.374 -0.0005 -0.8114  0.5404
19422SOL    HW163586  10.517   6.224   4.383 -1.3373 -0.4793  0.6085
19422SOL    HW263587  10.628   6.322   4.412  0.3520 -2.1572  0.0026
19423SOL     OW63588   8.175   3.394   6.089 -0.0889  0.3645  0.8140
19423SOL    HW163589   8.082   3.391   6.066 -0.2892  0.6962  1.5688
19423SOL    HW263590   8.181   3.340   6.167  0.3749  0.2656  0.7089
19424SOL     OW63591  11.671   3.893   4.985 -0.1694 -0.1905  0.0185
19424SOL    HW163592  11.741   3.946   4.947 -1.2042  0.7113 -0.6802
19424SOL    HW263593  11.658   3.822   4.921  0.5032 -0.7083  0.4446
19425SOL     OW63594   3.639   5.610   1.485 -0.4217 -0.1104  0.0223
19425SOL    HW163595   3.684   5.663   1.551  0.5997 -0.5522 -0.3060
19425SOL    HW263596   3.690   5.622   1.405 -2.5226  1.6891 -1.1798
19426SOL     OW63597   4.279   2.637   6.529 -0.0806  0.5623 -0.6760
19426SOL    HW163598   4.256   2.730   6.534 -0.5333  0.3924  1.7379
19426SOL    HW263599   4.345   2.625   6.598  0.5324 -0.7702 -1.4536
19427SOL     OW63600   8.848   3.516   8.603  0.0768 -0.2772 -0.8595
19427SOL    HW163601   8.832   3.456   8.676 -1.5285  0.5153 -0.5157
19427SOL    HW263602   8.834   3.463   8.525 -1.3325 -0.3786 -0.5574
19428SOL     OW63603   3.654  10.640   2.595  0.0194  0.0207 -0.0127
19428SOL    HW163604   3.693  10.684   2.670 -0.2240  1.8947 -0.9071
19428SOL    HW263605   3.729  10.617   2.539  0.1265 -0.3747  0.2926
19429SOL     OW63606   2.207  11.035   5.250 -0.6456  0.0397  0.0539
19429SOL    HW163607   2.134  11.013   5.307 -1.0830  3.0164  0.8179
19429SOL    HW263608   2.167  11.055   5.166 -0.7276  1.1640  0.3330
19430SOL     OW63609   3.769  10.717   2.365 -0.4790  0.1344  0.0681
19430SOL    HW163610   3.859  10.745   2.347 -1.0171  1.1995 -1.0796
19430SOL    HW263611   3.764  10.630   2.327  0.0989  0.0067  0.2618
19431SOL     OW63612   0.737   0.720   7.698 -0.0147 -0.4766  0.7622
19431SOL    HW163613   0.750   0.636   7.742 -0.3320 -0.7074  0.4134
19431SOL    HW263614   0.650   0.748   7.727  0.3191  0.0056  1.3272
19432SOL     OW63615   7.966   4.750  10.420  0.4208  0.2934  0.5193
19432SOL    HW163616   7.910   4.711  10.487 -0.9730  1.7062  0.2399
19432SOL    HW263617   7.965   4.687  10.348  0.7215 -0.5498  1.2408
19433SOL     OW63618  11.672  10.346   1.517  0.0151  0.0960  0.2621
19433SOL    HW163619  11.606  10.336   1.585 -0.5546  0.6201 -0.1921
19433SOL    HW263620  11.621  10.357   1.436  0.6613  0.1911 -0.1417
19434SOL     OW63621   7.754   4.395   0.500 -0.1294 -0.3990 -0.5433
19434SOL    HW163622   7.706   4.396   0.418  0.7480 -0.1719 -1.0726
19434SOL    HW263623   7.842   4.365   0.476  0.4230  0.6245  0.1374
19435SOL     OW63624   4.479   2.730   8.066 -0.2054 -0.8241  0.3921
19435SOL    HW163625   4.402   2.711   8.013 -0.0867  0.7893 -0.4142
19435SOL    HW263626   4.512   2.813   8.032  0.6861 -0.4248  2.1092
19436SOL     OW63627   7.601   6.475   3.928  0.6288  0.2668  0.2561
19436SOL    HW163628   7.595   6.556   3.978 -0.0998  0.0126  0.5935
19436SOL    HW263629   7.517   6.431   3.943  0.9954 -0.5283  0.0424
19437SOL     OW63630  10.039   8.546  10.272 -0.0537  0.1185 -0.1084
19437SOL    HW163631  10.128   8.562  10.302 -0.0470 -0.7814  0.3868
19437SOL    HW263632   9.986   8.612  10.317  0.3411  0.5773 -0.3089
19438SOL     OW63633   1.217   0.073   3.539  0.7398 -0.3038 -0.3691
19438SOL    HW163634   1.198  -0.010   3.584 -0.2329 -0.4807 -1.0822
19438SOL    HW263635   1.275   0.120   3.600 -0.7539 -0.4100  1.2015
19439SOL     OW63636  10.257   8.025   4.950 -0.1354  0.5221 -0.1805
19439SOL    HW163637  10.207   8.023   5.031  1.4598 -0.1514  0.8389
19439SOL    HW263638  10.291   7.936   4.940  1.0693  1.0158 -0.6679
19440SOL     OW63639   3.757   2.893   7.713  0.1106  0.0969 -0.6451
19440SOL    HW163640   3.846   2.884   7.749  0.2362  0.7125 -0.7945
19440SOL    HW263641   3.744   2.987   7.704 -0.2021 -0.0195 -1.5107
19441SOL     OW63642  10.862   7.102  10.201 -0.0602  0.2782 -0.4499
19441SOL    HW163643  10.902   7.181  10.239  0.4306  0.0122 -0.4075
19441SOL    HW263644  10.831   7.130  10.115  0.0220  0.5428 -0.3955
19442SOL     OW63645   6.996  11.099   5.744  0.2945 -0.5761  0.5051
19442SOL    HW163646   6.924  11.072   5.687  0.0158  0.2788  0.4248
19442SOL    HW263647   7.041  11.167   5.694  0.7616 -0.6466  0.8256
19443SOL     OW63648   6.817   1.131   5.473  0.2300  0.2767  0.1833
19443SOL    HW163649   6.833   1.196   5.404 -1.0958  0.1838 -0.2420
19443SOL    HW263650   6.768   1.179   5.540  1.1291  0.2523  0.8736
19444SOL     OW63651   3.131   8.403   5.124  0.4073  0.6613 -0.3772
19444SOL    HW163652   3.215   8.374   5.088  0.6157 -1.5703  1.6337
19444SOL    HW263653   3.153   8.450   5.204 -0.2144  1.6440 -0.7604
19445SOL     OW63654  10.221   1.558   5.869  0.3689  0.5054 -0.0797
19445SOL    HW163655  10.158   1.626   5.892  0.9649  0.7491  0.8807
19445SOL    HW263656  10.298   1.605   5.838  0.6232  0.2651  0.1741
19446SOL     OW63657   0.150   9.114   5.139 -0.2272  0.1127 -0.5587
19446SOL    HW163658   0.153   9.046   5.207  0.2538 -1.7273 -2.3407
19446SOL    HW263659   0.241   9.127   5.114 -0.5451 -0.9098 -2.3971
19447SOL     OW63660  11.641  11.600   8.649  0.0515  0.6077 -0.3051
19447SOL    HW163661  11.687  11.673   8.607  1.0262 -0.2472 -0.7754
19447SOL    HW263662  11.673  11.522   8.603 -3.3580  0.0639 -2.1113
19448SOL     OW63663   6.145   8.307   2.301  0.6240 -0.4630  0.1904
19448SOL    HW163664   6.085   8.305   2.376  0.0080 -0.9821 -0.3010
19448SOL    HW263665   6.124   8.389   2.256  0.9036 -0.2155  0.5057
19449SOL     OW63666   7.938   8.412  11.101 -1.0118 -0.5119 -0.4918
19449SOL    HW163667   7.855   8.418  11.054 -1.8693 -1.2259  0.8730
19449SOL    HW263668   7.933   8.329  11.148 -0.5084  0.4976  1.4430
19450SOL     OW63669   1.439   6.660   7.793  0.2128  0.2600 -0.1873
19450SOL    HW163670   1.422   6.655   7.699 -0.3573  0.3382 -0.0882
19450SOL    HW263671   1.387   6.735   7.823 -1.8277 -1.4191  0.6855
19451SOL     OW63672   0.755   8.758  11.042  0.1171 -0.3198  0.0633
19451SOL    HW163673   0.676   8.717  11.076 -0.4261  0.3589 -0.3439
19451SOL    HW263674   0.784   8.700  10.971 -0.5713 -0.0880 -0.4239
19452SOL     OW63675  11.754   7.417   1.656  0.2183 -0.3158  0.1887
19452SOL    HW163676  11.710   7.362   1.591  1.1523  0.4229 -1.1168
19452SOL    HW263677  11.795   7.355   1.716  1.0811 -1.0786 -1.1367
19453SOL     OW63678   5.115   4.162   6.045 -0.1435  0.0138  0.0886
19453SOL    HW163679   5.053   4.148   6.117  2.4463 -0.5294  2.3688
19453SOL    HW263680   5.127   4.076   6.006 -0.3803  0.0124  0.0182
19454SOL     OW63681   4.973  11.752  10.945  0.3657  0.2898  0.1971
19454SOL    HW163682   5.047  11.738  10.885  0.4934 -1.3906  0.6936
19454SOL    HW263683   5.014  11.759  11.031  0.0396  0.8359  0.3118
19455SOL     OW63684   4.778   7.754   4.246 -0.4583  0.3421  0.2668
19455SOL    HW163685   4.686   7.758   4.222 -0.8437 -0.4479  1.5214
19455SOL    HW263686   4.781   7.694   4.320  0.9171  1.1845  0.9364
19456SOL     OW63687  10.705   8.012  11.626 -0.7815  0.5042 -0.0913
19456SOL    HW163688  10.796   8.038  11.611 -0.7694  1.8236  1.8967
19456SOL    HW263689  10.708   7.961  11.707 -1.5443 -1.5243 -1.2656
19457SOL     OW63690   9.161   2.356   0.980  0.4893  0.5479 -0.3395
19457SOL    HW163691   9.079   2.396   0.951  0.4583  0.4044 -0.4494
19457SOL    HW263692   9.178   2.396   1.065 -0.2745 -0.2351  0.1932
19458SOL     OW63693   7.431   4.090   3.904  0.2859 -0.4067  0.3469
19458SOL    HW163694   7.354   4.105   3.958 -1.1911  0.5993 -1.8700
19458SOL    HW263695   7.476   4.174   3.902  1.3747 -0.9268  1.4379
19459SOL     OW63696   4.531   0.224   7.897 -0.0884 -0.4303  0.5108
19459SOL    HW163697   4.620   0.227   7.862 -0.5016  0.5007 -0.5430
19459SOL    HW263698   4.488   0.156   7.846 -0.3331  0.0348  0.0838
19460SOL     OW63699   0.204   5.464   2.270 -0.3461  0.3970  0.0544
19460SOL    HW163700   0.242   5.437   2.186 -2.4121 -2.2895 -0.1583
19460SOL    HW263701   0.140   5.531   2.247  0.1226  0.7126 -0.3375
19461SOL     OW63702  10.895   6.142   2.263  0.3548 -0.0567 -0.0912
19461SOL    HW163703  10.986   6.136   2.232  0.5467 -0.9870  0.6204
19461SOL    HW263704  10.846   6.173   2.186  0.7899 -2.5049 -1.4565
19462SOL     OW63705   3.802   2.187   1.802 -0.0783 -0.1484  0.3785
19462SOL    HW163706   3.797   2.248   1.875 -2.1773 -2.1107  2.0090
19462SOL    HW263707   3.712   2.159   1.788  0.4222 -0.6988 -2.2752
19463SOL     OW63708  11.272   6.216   1.397 -0.4470 -0.3201  0.2432
19463SOL    HW163709  11.331   6.264   1.456  0.6099 -0.9706 -0.2406
19463SOL    HW263710  11.185   6.250   1.416  0.2838  2.0048 -0.3050
19464SOL     OW63711   7.283   8.748   7.306 -0.3195  0.0110 -0.3940
19464SOL    HW163712   7.281   8.653   7.293 -0.9356 -0.2488  1.3853
19464SOL    HW263713   7.373   8.766   7.335 -0.3872 -0.1215 -0.0991
19465SOL     OW63714   3.143   7.922   1.816  0.6395  0.2975  0.0715
19465SOL    HW163715   3.146   8.017   1.810  0.2664  0.4089  1.3078
19465SOL    HW263716   3.088   7.894   1.743 -0.5164  1.1603  0.5787
19466SOL     OW63717   4.489   8.951   2.441  0.1656 -0.2841 -0.4602
19466SOL    HW163718   4.529   9.033   2.471 -0.2188 -0.4843  0.6645
19466SOL    HW263719   4.492   8.956   2.346 -1.4460  1.8423 -0.4804
19467SOL     OW63720   2.775   9.087   3.107 -0.4110 -0.5569 -0.4536
19467SOL    HW163721   2.731   9.039   3.037 -1.1198 -0.9416  0.2354
19467SOL    HW263722   2.704   9.111   3.167  0.1320  0.1150 -0.0687
19468SOL     OW63723   2.088   9.571  10.509  0.1993 -0.0016  0.3296
19468SOL    HW163724   2.003   9.541  10.542 -0.5261  0.9945 -0.5823
19468SOL    HW263725   2.115   9.501  10.449 -0.0497 -0.2453  0.4937
19469SOL     OW63726   8.861   4.593   7.371 -0.4099 -0.4105 -0.3818
19469SOL    HW163727   8.920   4.653   7.417 -0.8424  0.0998 -0.4868
19469SOL    HW263728   8.918   4.542   7.314 -0.0901  0.2158 -0.6292
19470SOL     OW63729   5.031   2.948   0.745 -0.2773  0.6868 -0.0042
19470SOL    HW163730   4.981   2.922   0.823 -0.9963 -0.4472 -0.8196
19470SOL    HW263731   5.020   3.043   0.741 -0.8686  0.6667  0.8520
19471SOL     OW63732   1.491   5.754   0.458 -0.3148 -0.3089  0.2785
19471SOL    HW163733   1.530   5.711   0.382  0.9340 -0.0493  0.7370
19471SOL    HW263734   1.397   5.737   0.451 -0.5489  1.5191 -2.5095
19472SOL     OW63735   8.435   2.422   4.943 -0.3394  0.0419  0.1072
19472SOL    HW163736   8.388   2.340   4.952  0.6453 -0.4835  0.5800
19472SOL    HW263737   8.372   2.489   4.969 -0.3441 -0.7713  2.3673
19473SOL     OW63738   5.402   6.212   1.452 -0.3716 -0.2284 -0.8952
19473SOL    HW163739   5.336   6.171   1.507 -0.1299  0.2093 -0.2700
19473SOL    HW263740   5.392   6.170   1.366 -0.5797 -1.0971 -0.4514
19474SOL     OW63741   0.810   2.127   0.951  0.0232 -0.5173  0.4396
19474SOL    HW163742   0.856   2.138   1.034  0.7797 -0.1692 -0.0180
19474SOL    HW263743   0.757   2.207   0.941  2.0126  0.7554 -0.6858
19475SOL     OW63744   4.803   1.363  10.016  0.5023 -0.8248 -0.2197
19475SOL    HW163745   4.843   1.423  10.079  0.7601 -1.0522 -0.1611
19475SOL    HW263746   4.712   1.355  10.044 -0.4847  2.1360 -2.1546
19476SOL     OW63747   5.888   1.495   3.931 -0.1670  0.9567  0.0885
19476SOL    HW163748   5.981   1.515   3.923  0.0820  0.4356  1.4733
19476SOL    HW263749   5.867   1.449   3.850  0.9800  0.3404  0.1194
19477SOL     OW63750   0.910   7.190   2.694  0.1211 -0.1394 -0.9256
19477SOL    HW163751   0.861   7.224   2.619  0.0875 -1.1665 -1.3832
19477SOL    HW263752   0.866   7.228   2.770  0.1832  0.9558 -1.4049
19478SOL     OW63753   9.883   2.814   7.672  0.3173 -0.3642  0.2570
19478SOL    HW163754   9.807   2.768   7.707  0.7845 -0.3920  1.2699
19478SOL    HW263755   9.848   2.896   7.638 -0.1669 -0.3754  0.7149
19479SOL     OW63756  11.618   1.602   7.447  0.1137  0.6738  0.1242
19479SOL    HW163757  11.586   1.537   7.510  0.2500 -0.2668 -0.7391
19479SOL    HW263758  11.691   1.558   7.402 -0.5562  0.9635 -1.3166
19480SOL     OW63759   0.140  11.362   2.685 -0.2745 -0.7744 -0.1265
19480SOL    HW163760   0.201  11.392   2.752 -0.8161  1.1566 -0.4425
19480SOL    HW263761   0.071  11.316   2.733  0.0682 -0.6530  0.4903
19481SOL     OW63762   0.769   7.328   2.890  0.1990 -0.0409 -0.4069
19481SOL    HW163763   0.796   7.358   2.977 -0.4815 -0.3763 -0.0749
19481SOL    HW263764   0.748   7.409   2.843  1.1883  0.1886 -0.4834
19482SOL     OW63765   7.500   9.561   0.927 -0.0953 -0.6415  0.5254
19482SOL    HW163766   7.418   9.568   0.878  1.0546 -1.2837 -1.5839
19482SOL    HW263767   7.487   9.487   0.986 -2.2226  1.3498  2.7895
19483SOL     OW63768   8.878  10.083   3.845 -0.2995 -0.6190  0.1847
19483SOL    HW163769   8.839  10.164   3.812  0.6248  0.2094  1.0590
19483SOL    HW263770   8.926  10.109   3.924  1.6136 -1.6695 -0.5506
19484SOL     OW63771  11.643  10.556   9.151  0.0245  0.1168 -0.1589
19484SOL    HW163772  11.582  10.623   9.120  1.3847  1.0812 -0.8471
19484SOL    HW263773  11.634  10.484   9.087  1.4589  1.3343 -1.8385
19485SOL     OW63774  11.454   2.557  11.332 -0.6659 -0.0328  0.1083
19485SOL    HW163775  11.493   2.514  11.256  0.2917  2.1783 -0.7388
19485SOL    HW263776  11.505   2.524  11.406 -1.0061 -1.5074 -0.2741
19486SOL     OW63777   7.668   7.516  10.845 -0.0976  0.1967 -0.7024
19486SOL    HW163778   7.696   7.481  10.930  0.9571  1.3746 -0.5447
19486SOL    HW263779   7.746   7.509  10.790  0.5481  3.2334 -0.3534
19487SOL     OW63780   1.731   8.334   4.202 -0.3331  0.2481  0.2046
19487SOL    HW163781   1.712   8.376   4.286  1.7895  0.8216  0.4475
19487SOL    HW263782   1.670   8.375   4.140 -0.6938  1.1290  1.1231
19488SOL     OW63783   5.608   2.500   9.263 -0.8291  0.0297  0.3903
19488SOL    HW163784   5.564   2.509   9.178 -2.6756 -1.8017  1.0978
19488SOL    HW263785   5.691   2.457   9.242  0.4966  2.9088 -0.8677
19489SOL     OW63786   5.289  10.506   2.971  0.2360  0.1850 -0.0727
19489SOL    HW163787   5.272  10.521   2.878  0.0560  0.5820  0.0219
19489SOL    HW263788   5.369  10.555   2.990  1.3186 -1.3588 -0.4252
19490SOL     OW63789   8.411   7.224   6.721  0.7511 -0.0281  0.1109
19490SOL    HW163790   8.399   7.287   6.793 -1.5643  0.0491 -0.2690
19490SOL    HW263791   8.486   7.257   6.673 -0.3932  2.5405 -0.1015
19491SOL     OW63792   4.326   4.713  11.655  0.2308  0.2043 -0.0757
19491SOL    HW163793   4.270   4.689  11.581  0.6041  1.9557 -0.9830
19491SOL    HW263794   4.361   4.799  11.632  2.3455 -0.2849  1.0195
19492SOL     OW63795   4.859  10.277   8.364 -0.4530  0.3768 -0.0435
19492SOL    HW163796   4.935  10.221   8.382  0.0476  0.9008 -0.4891
19492SOL    HW263797   4.823  10.243   8.282 -0.4643  0.3805 -0.0402
19493SOL     OW63798   6.332   4.945   2.167  0.0890 -0.2109  0.0093
19493SOL    HW163799   6.296   4.987   2.089  0.0992 -2.0817 -1.0801
19493SOL    HW263800   6.273   4.971   2.238 -1.0294  0.0338 -0.9794
19494SOL     OW63801   4.699   0.015   6.780 -0.0582  0.2217 -0.3236
19494SOL    HW163802   4.769   0.067   6.820 -0.3519 -0.8768  1.7328
19494SOL    HW263803   4.744  -0.043   6.719  0.6293  0.6895 -0.2670
19495SOL     OW63804   0.101   4.870   1.559 -0.3691 -0.0064 -0.1263
19495SOL    HW163805   0.088   4.951   1.607 -0.6477 -1.3961  2.2954
19495SOL    HW263806   0.099   4.801   1.625 -1.0021 -2.1060 -2.1649
19496SOL     OW63807   6.033   9.075   5.204  0.0564  0.0404 -0.3460
19496SOL    HW163808   6.118   9.046   5.171 -0.1073  0.2603 -0.9691
19496SOL    HW263809   6.039   9.171   5.205 -0.9664  0.1796 -2.5844
19497SOL     OW63810   5.733   1.326  10.378 -0.1719 -0.1460  0.1349
19497SOL    HW163811   5.707   1.309  10.287  1.6432  1.8809 -0.8765
19497SOL    HW263812   5.696   1.253  10.428 -0.7740 -1.6325 -2.2988
19498SOL     OW63813   7.212   1.216   1.063  0.0562 -0.7496 -0.6034
19498SOL    HW163814   7.201   1.239   1.156  0.7035 -1.3411 -0.3738
19498SOL    HW263815   7.130   1.172   1.040 -1.0456  1.3249 -0.9380
19499SOL     OW63816   2.922   7.714   3.362  0.6175  0.3459  0.0571
19499SOL    HW163817   2.978   7.650   3.405 -0.1370  0.5625  1.4020
19499SOL    HW263818   2.835   7.675   3.365  0.4113  0.7463 -0.5222
19500SOL     OW63819   7.850   7.816  11.395 -0.1860 -0.3983 -0.2617
19500SOL    HW163820   7.828   7.831  11.487 -0.1106  0.5509 -0.3963
19500SOL    HW263821   7.939   7.780  11.398 -0.4050 -0.9312  0.0615
19501SOL     OW63822   6.852   8.108   3.838 -0.7656 -0.0814  0.4463
19501SOL    HW163823   6.833   8.196   3.808 -0.9924  0.2865  1.6085
19501SOL    HW263824   6.905   8.069   3.769 -0.9281  0.8524 -0.2160
19502SOL     OW63825   1.635   2.434   2.890  0.0602 -0.5279 -0.4045
19502SOL    HW163826   1.693   2.371   2.847 -0.0373 -0.3118 -0.8499
19502SOL    HW263827   1.618   2.501   2.824  0.5236  0.2109  0.2175
19503SOL     OW63828   7.753   4.760  11.513  0.0098  0.1457 -0.2288
19503SOL    HW163829   7.806   4.757  11.593  1.6896 -0.2441 -1.3042
19503SOL    HW263830   7.670   4.719  11.539  0.0999  0.9732  1.5675
19504SOL     OW63831   0.317   8.500   4.237  0.0708 -0.9047 -0.0492
19504SOL    HW163832   0.240   8.514   4.291  0.9567 -0.5661  1.1774
19504SOL    HW263833   0.383   8.559   4.273  0.6787 -0.6108 -1.5647
19505SOL     OW63834   6.847   0.691   0.909 -0.1076  0.0782  0.3496
19505SOL    HW163835   6.933   0.698   0.952  0.1208  1.3932 -0.2494
19505SOL    HW263836   6.785   0.716   0.978 -0.0429 -1.0720  0.8443
19506SOL     OW63837   3.913   9.694   9.437  0.0028  0.3486  0.1854
19506SOL    HW163838   3.951   9.613   9.472  0.0291  0.5911  0.7312
19506SOL    HW263839   3.851   9.722   9.504  0.5100  1.1595  0.3299
19507SOL     OW63840   9.331   1.353   2.197 -0.1476 -0.5926  0.4117
19507SOL    HW163841   9.309   1.445   2.183 -1.1680 -0.9931 -0.7793
19507SOL    HW263842   9.426   1.352   2.208  0.0857  0.4194 -1.2611
19508SOL     OW63843   7.083   4.929   5.224  0.1813 -0.0028 -0.2316
19508SOL    HW163844   7.005   4.888   5.261  0.7821 -0.1658  0.9156
19508SOL    HW263845   7.061   5.022   5.220  0.7340  0.3460  2.4486
19509SOL     OW63846   0.302   9.639   8.818  0.4601  0.2301  0.2844
19509SOL    HW163847   0.329   9.618   8.728  2.2570  1.2312  0.5355
19509SOL    HW263848   0.207   9.646   8.814  0.4459 -0.4880 -1.3795
19510SOL     OW63849   2.035   8.484   9.050  0.1259  0.2743 -0.2804
19510SOL    HW163850   2.053   8.569   9.090  2.2800 -0.0394 -0.4906
19510SOL    HW263851   1.979   8.504   8.975  0.3241  1.4623 -0.1309
19511SOL     OW63852   9.176   3.377   0.254 -0.0565  0.3800  0.5439
19511SOL    HW163853   9.106   3.429   0.294 -0.4536 -0.1104  0.4974
19511SOL    HW263854   9.138   3.344   0.173 -0.4389 -1.3919  1.3826
19512SOL     OW63855   0.191   7.687   5.864  0.8650  0.0566  0.6032
19512SOL    HW163856   0.179   7.608   5.812  2.7706 -0.9892  1.6325
19512SOL    HW263857   0.286   7.697   5.872  0.7036  2.6526  0.2568
19513SOL     OW63858  11.144  11.127   8.862 -0.5136 -0.0708  0.1289
19513SOL    HW163859  11.087  11.152   8.789 -1.0889 -2.1462 -0.2002
19513SOL    HW263860  11.154  11.207   8.914 -0.4369  1.3710 -1.9694
19514SOL     OW63861   0.522   8.627  10.871 -0.5703  0.3008 -0.3657
19514SOL    HW163862   0.443   8.587  10.836  0.2628 -1.6068 -0.1804
19514SOL    HW263863   0.499   8.654  10.960 -0.0185 -3.9436  1.2769
19515SOL     OW63864   2.231  10.183   3.608 -0.1042 -0.0659 -0.1191
19515SOL    HW163865   2.227  10.215   3.698 -0.4616 -0.3650 -0.0231
19515SOL    HW263866   2.169  10.110   3.607 -0.6677  0.4241 -0.8116
19516SOL     OW63867   4.802   2.189   8.569 -0.3431 -0.8468 -0.4684
19516SOL    HW163868   4.789   2.206   8.476 -0.0653  0.5062 -0.2833
19516SOL    HW263869   4.821   2.095   8.574  1.0178 -0.6942 -1.9399
19517SOL     OW63870   9.563   8.890  10.462  0.0007  0.2281 -0.1409
19517SOL    HW163871   9.635   8.828  10.453  0.1608  0.2287  1.0208
19517SOL    HW263872   9.603   8.975  10.444 -0.1479  0.0543 -1.3999
19518SOL     OW63873   1.915   9.654   6.639  0.0679  0.0263 -0.1810
19518SOL    HW163874   1.874   9.695   6.563  0.5438  2.2742  0.7013
19518SOL    HW263875   2.003   9.630   6.609 -0.1301 -0.1213 -0.6471
19519SOL     OW63876   9.723  10.375   4.918  1.0688  0.0854 -0.3353
19519SOL    HW163877   9.730  10.470   4.930 -0.2011  0.3845 -1.6876
19519SOL    HW263878   9.672  10.365   4.839 -0.6409 -1.7542  0.9154
19520SOL     OW63879   5.588   2.996   4.106 -0.0952 -0.3818 -0.3034
19520SOL    HW163880   5.590   2.900   4.113 -0.8477 -0.3397  0.8856
19520SOL    HW263881   5.583   3.026   4.197  1.1317  0.8397 -0.6023
19521SOL     OW63882   4.762   0.206   7.277  0.1848  0.3824  0.3691
19521SOL    HW163883   4.820   0.214   7.353  0.2065  1.2919  0.2756
19521SOL    HW263884   4.674   0.223   7.312  0.0120 -0.5907  0.4374
19522SOL     OW63885   9.371   8.529   3.660 -0.1471  0.8471 -0.2100
19522SOL    HW163886   9.416   8.568   3.585  0.8028 -1.5253 -1.0028
19522SOL    HW263887   9.440   8.515   3.725 -0.7530  1.8501  0.6583
19523SOL     OW63888   9.823   2.003   0.668 -0.3446  0.1919 -0.5466
19523SOL    HW163889   9.826   1.915   0.706 -2.1060  0.2503 -0.1874
19523SOL    HW263890   9.748   2.045   0.711  0.9905  2.1896 -0.0656
19524SOL     OW63891   2.347   0.573   8.420 -0.1625 -0.1359  0.2201
19524SOL    HW163892   2.405   0.567   8.345 -2.1955 -0.5049 -1.4223
19524SOL    HW263893   2.276   0.512   8.401 -1.7766  1.2314  1.4673
19525SOL     OW63894   2.149   7.093   5.317  0.1794  0.3538 -0.2381
19525SOL    HW163895   2.092   7.028   5.277 -0.4809 -0.3648  1.7636
19525SOL    HW263896   2.222   7.043   5.353 -0.3055  0.6572  1.2714
19526SOL     OW63897   5.895   0.400   7.700 -0.3123 -0.0424  0.1001
19526SOL    HW163898   5.988   0.420   7.686 -0.1624 -0.0261  1.0461
19526SOL    HW263899   5.888   0.384   7.794 -0.7869 -2.6583 -0.3162
19527SOL     OW63900  11.775   5.048   5.657  0.4277 -0.1331 -0.5101
19527SOL    HW163901  11.825   5.039   5.576 -1.4952 -0.7657 -1.6944
19527SOL    HW263902  11.726   4.966   5.665 -0.8725  0.6767  0.2643
19528SOL     OW63903   4.608   7.762   9.456  0.0758  0.7921 -0.1185
19528SOL    HW163904   4.562   7.844   9.476  0.3614  1.0181 -0.3977
19528SOL    HW263905   4.555   7.694   9.499  1.2482  1.3503  2.3800
19529SOL     OW63906   9.869   4.134   0.088  0.4841 -0.7060  0.7712
19529SOL    HW163907   9.927   4.183   0.030  0.8072 -1.3057  0.5720
19529SOL    HW263908   9.851   4.194   0.161 -1.0443  0.5698 -0.5854
19530SOL     OW63909   4.825   0.433   1.523 -0.3010 -0.1573  0.1928
19530SOL    HW163910   4.819   0.382   1.442 -0.4587  0.2729 -0.0668
19530SOL    HW263911   4.916   0.462   1.526 -0.7204  1.3680 -0.7804
19531SOL     OW63912   3.450   5.904   7.591  0.3093 -0.0630  0.3155
19531SOL    HW163913   3.531   5.855   7.576 -0.9195 -2.0420 -0.2122
19531SOL    HW263914   3.390   5.874   7.522 -0.8425  1.4511  0.6052
19532SOL     OW63915   5.787   3.143   2.717 -0.0775 -0.1283  0.4770
19532SOL    HW163916   5.861   3.179   2.668 -1.0599  0.9436 -0.2822
19532SOL    HW263917   5.827   3.083   2.780  1.1716 -2.5762 -2.4051
19533SOL     OW63918   7.070   6.736   5.908 -0.2177 -0.2362 -0.0846
19533SOL    HW163919   7.001   6.795   5.939  0.4447  0.7528 -0.4163
19533SOL    HW263920   7.045   6.650   5.940 -0.5051  0.4493  1.6476
19534SOL     OW63921   9.446   7.604   9.893 -0.0813  0.5603  0.1414
19534SOL    HW163922   9.379   7.549   9.854  0.6770 -1.3275  1.3565
19534SOL    HW263923   9.508   7.621   9.822  0.0291 -0.7748 -0.1104
19535SOL     OW63924   9.201   4.077   4.287 -0.3599 -0.0667 -0.5581
19535SOL    HW163925   9.202   4.048   4.196  1.0281  0.4214 -0.7241
19535SOL    HW263926   9.131   4.026   4.328  0.8571 -2.4512 -1.2404
19536SOL     OW63927   1.651   7.118   2.408 -0.0622  0.1968  0.2753
19536SOL    HW163928   1.697   7.142   2.488  1.9148  1.3789 -1.1183
19536SOL    HW263929   1.708   7.053   2.366  1.2183  2.6447 -2.1301
19537SOL     OW63930   8.514   6.210   1.937 -0.0049  0.4463  0.1756
19537SOL    HW163931   8.461   6.139   1.974  0.5713 -0.0848  0.0086
19537SOL    HW263932   8.495   6.286   1.992 -1.4717  0.4587 -0.3089
19538SOL     OW63933   0.254   6.633   2.212 -0.2498 -0.4485  0.3387
19538SOL    HW163934   0.160   6.614   2.215 -0.3895  0.2229  0.3278
19538SOL    HW263935   0.263   6.698   2.142 -0.0265  0.8275  1.5074
19539SOL     OW63936   2.653   2.266   5.299  0.2090  0.0204 -0.2873
19539SOL    HW163937   2.728   2.325   5.302  1.8238 -1.9561  2.2327
19539SOL    HW263938   2.689   2.182   5.272 -1.0894 -0.9513  0.8415
19540SOL     OW63939   7.462   8.001   8.717 -0.0541  0.6567  0.1677
19540SOL    HW163940   7.491   7.959   8.798 -0.0134  0.5051  0.0748
19540SOL    HW263941   7.542   8.010   8.665 -0.2577 -0.3258 -0.3496
19541SOL     OW63942   9.401   3.453   3.451 -0.4208  0.2395 -0.2451
19541SOL    HW163943   9.351   3.433   3.372 -0.1054  0.7315 -0.5743
19541SOL    HW263944   9.363   3.535   3.483 -2.0364 -1.0618  1.3727
19542SOL     OW63945   6.169   6.077   5.801 -0.5630 -0.3169  0.2386
19542SOL    HW163946   6.077   6.070   5.777 -0.2067  0.8913 -1.6534
19542SOL    HW263947   6.199   5.986   5.809 -1.3675 -0.7576 -1.4348
19543SOL     OW63948  11.763   5.849   2.402 -0.4477  1.1385 -0.3167
19543SOL    HW163949  11.787   5.795   2.477 -2.1160  0.6955 -0.0566
19543SOL    HW263950  11.714   5.790   2.344  0.5389  1.5471 -1.6302
19544SOL     OW63951  10.605   1.582   6.513  0.3353 -0.1370 -0.4174
19544SOL    HW163952  10.611   1.519   6.440  0.5356 -0.1584 -0.3828
19544SOL    HW263953  10.682   1.638   6.502  0.0702  0.2053 -0.5416
19545SOL     OW63954   7.269   2.657   0.165  0.2085  0.2231  0.2126
19545SOL    HW163955   7.194   2.711   0.189  0.1905  0.1291  0.3704
19545SOL    HW263956   7.305   2.699   0.087 -0.4570 -0.1563 -0.3096
19546SOL     OW63957  10.231   4.188   6.738  0.0504 -0.0655  0.9788
19546SOL    HW163958  10.238   4.201   6.833  1.1158  0.6759  0.8146
19546SOL    HW263959  10.204   4.274   6.704 -2.6161 -0.9008  0.8048
19547SOL     OW63960   5.232   6.305   4.639  0.0543  0.0093 -0.5598
19547SOL    HW163961   5.163   6.372   4.638  0.5814  0.5938  0.8283
19547SOL    HW263962   5.227   6.266   4.552  0.9517  3.1076 -2.1671
19548SOL     OW63963   9.091   0.213   9.821  0.3887 -0.3503  0.1933
19548SOL    HW163964   9.133   0.287   9.864  1.1537 -0.3661 -0.5003
19548SOL    HW263965   9.042   0.251   9.749  0.2272 -0.4580  0.2453
19549SOL     OW63966   4.466   3.738   5.347  0.2519 -0.0849 -0.2296
19549SOL    HW163967   4.450   3.653   5.305  1.0919  0.2561 -1.2542
19549SOL    HW263968   4.400   3.742   5.416 -0.6805 -0.9864 -1.0258
19550SOL     OW63969   2.617   5.524   9.748 -0.1742  0.3046  0.7649
19550SOL    HW163970   2.555   5.574   9.695 -0.5387 -1.2766 -0.3493
19550SOL    HW263971   2.701   5.568   9.734 -0.4643  0.5659 -0.2577
19551SOL     OW63972   5.411   0.742   3.505  0.1052 -0.2670  0.2226
19551SOL    HW163973   5.348   0.805   3.539 -0.6490 -0.1669 -1.2511
19551SOL    HW263974   5.393   0.739   3.411  3.0285  0.5844 -0.4769
19552SOL     OW63975   1.699   9.036  10.670 -0.1539 -0.4322 -0.8658
19552SOL    HW163976   1.690   8.997  10.583 -0.1196 -2.0411 -0.1771
19552SOL    HW263977   1.651   8.976  10.728 -1.8860  1.6241 -0.0212
19553SOL     OW63978  10.054   2.418   8.380  0.2025  0.0361 -0.3572
19553SOL    HW163979  10.007   2.448   8.457 -0.4507 -0.2687 -0.6359
19553SOL    HW263980   9.996   2.436   8.306  0.1433 -1.1153 -0.6226
19554SOL     OW63981   4.629   3.938   6.347  0.3541 -0.8058  0.6515
19554SOL    HW163982   4.651   3.878   6.418 -1.4222 -1.1771  0.9115
19554SOL    HW263983   4.534   3.935   6.340  0.3126  0.9625 -0.2363
19555SOL     OW63984   4.403   1.480   8.217  0.2968 -0.5821  0.2275
19555SOL    HW163985   4.395   1.576   8.210  2.3193 -0.3730  0.1943
19555SOL    HW263986   4.494   1.466   8.240  0.4433 -2.6015 -1.3496
19556SOL     OW63987   6.293   0.370  11.342  0.1596  0.7139  0.4470
19556SOL    HW163988   6.321   0.321  11.265  0.3906 -0.1654  1.0654
19556SOL    HW263989   6.211   0.328  11.369  0.8601 -0.0146  1.5560
19557SOL     OW63990  10.028   6.901   3.400  0.1227 -0.3376 -0.1521
19557SOL    HW163991  10.110   6.887   3.353 -0.3542 -3.7733 -0.1906
19557SOL    HW263992   9.961   6.908   3.332  0.0841  0.1879 -0.0670
19558SOL     OW63993   6.670   7.580   1.403  0.3382 -0.0367  0.1946
19558SOL    HW163994   6.755   7.608   1.437  0.6644 -1.6182  0.7922
19558SOL    HW263995   6.686   7.493   1.367 -1.0269 -0.3821  0.3567
19559SOL     OW63996   0.982   7.539   8.531  0.6662  0.5623 -0.0853
19559SOL    HW163997   0.902   7.518   8.580  0.2574  2.3776  0.0835
19559SOL    HW263998   0.951   7.566   8.445  1.1371  0.8538 -0.1617
19560SOL     OW63999  10.088   4.621   1.304 -0.1069  0.0729  0.1830
19560SOL    HW164000  10.047   4.570   1.373 -0.1718  0.5684  0.5197
19560SOL    HW264001  10.081   4.567   1.225 -2.1834  0.4907  0.0269
19561SOL     OW64002   9.840   2.647   3.846 -0.3670  0.1226 -0.3117
19561SOL    HW164003   9.792   2.567   3.826 -0.7811 -0.0624  1.2732
19561SOL    HW264004   9.773   2.709   3.872 -0.1136  1.2456 -2.1575
19562SOL     OW64005   7.003   8.168   5.191 -0.5226  0.1638 -0.0285
19562SOL    HW164006   6.997   8.116   5.271 -2.0216  0.4565  0.0915
19562SOL    HW264007   6.929   8.139   5.138 -0.6864  1.3160 -0.4683
19563SOL     OW64008   4.361  11.350   3.311  0.0951 -0.2936 -0.8767
19563SOL    HW164009   4.266  11.357   3.304 -0.0108 -0.0469  0.5173
19563SOL    HW264010   4.395  11.389   3.230 -0.9645  0.4497 -0.9732
19564SOL     OW64011   5.473   2.236   1.774  0.2333 -0.4059 -0.2026
19564SOL    HW164012   5.557   2.282   1.771 -0.1896  0.3691 -1.7852
19564SOL    HW264013   5.444   2.244   1.865  1.1934  0.6035  0.0379
19565SOL     OW64014   3.127   4.182  11.698 -0.2619 -0.4092  0.2127
19565SOL    HW164015   3.136   4.183  11.793  0.9545 -0.0862  0.1130
19565SOL    HW264016   3.096   4.270  11.676  2.3908  0.5966  0.1075
19566SOL     OW64017   8.587   9.363   8.625 -0.1028  0.2357 -0.6483
19566SOL    HW164018   8.679   9.341   8.642  0.1020  1.0555 -0.6482
19566SOL    HW264019   8.556   9.293   8.567  0.8440  0.5431 -1.5647
19567SOL     OW64020  10.259   9.741   3.834  0.2109  0.6641  0.4689
19567SOL    HW164021  10.345   9.723   3.797 -0.6562  0.4931 -1.5709
19567SOL    HW264022  10.277   9.796   3.911  2.0684  1.5201 -0.5270
19568SOL     OW64023   1.401   6.933   3.895 -0.4035  0.4638  0.2301
19568SOL    HW164024   1.414   6.844   3.930  0.0735  0.8585  1.0729
19568SOL    HW264025   1.337   6.972   3.953 -0.2053  0.8589  0.1820
19569SOL     OW64026   3.285   3.955  11.075  0.0217 -0.0780 -0.1792
19569SOL    HW164027   3.232   4.029  11.046 -1.2497 -0.5968  0.6840
19569SOL    HW264028   3.251   3.881  11.025 -0.9712 -0.6440  1.2620
19570SOL     OW64029   6.142   7.703   0.977  0.2890 -0.2954  0.3638
19570SOL    HW164030   6.235   7.693   0.958 -0.0100 -2.8111 -0.1483
19570SOL    HW264031   6.115   7.779   0.925  1.6955 -0.6522 -0.9670
19571SOL     OW64032   5.058   8.600   4.303  0.2096  0.6163 -0.0254
19571SOL    HW164033   5.073   8.679   4.356  2.1026  0.0670  0.3574
19571SOL    HW264034   5.124   8.538   4.335 -1.1373 -1.0832 -0.4218
19572SOL     OW64035  10.705   3.906  10.809  0.4269  0.1015  0.1334
19572SOL    HW164036  10.623   3.872  10.845 -0.0809  1.0266 -0.1306
19572SOL    HW264037  10.699   4.001  10.821  1.5665  0.1626  0.3259
19573SOL     OW64038   5.539   4.005   2.969 -0.0155  0.5477  0.1008
19573SOL    HW164039   5.558   4.025   2.877 -1.3002  1.5850  0.0399
19573SOL    HW264040   5.624   3.980   3.006  0.6203  0.6752 -1.2237
19574SOL     OW64041   7.444   1.674   8.260  0.5410 -0.1749 -0.4680
19574SOL    HW164042   7.451   1.582   8.233 -3.4821 -0.2890 -1.8073
19574SOL    HW264043   7.430   1.722   8.179 -0.0977  1.2438  0.4441
19575SOL     OW64044   8.767   7.830   1.126 -0.4143 -0.1928 -0.7893
19575SOL    HW164045   8.710   7.831   1.203 -1.5454  1.2543 -1.6068
19575SOL    HW264046   8.741   7.906   1.075  1.2308 -0.3555 -1.9645
19576SOL     OW64047   4.895   4.663   8.507  0.7107 -0.3642  0.2699
19576SOL    HW164048   4.976   4.696   8.469 -0.1402  0.5786 -0.7679
19576SOL    HW264049   4.880   4.718   8.584  1.4124 -1.0191  0.9000
19577SOL     OW64050   0.165   0.347   3.083 -0.4322  0.2177  0.4986
19577SOL    HW164051   0.164   0.442   3.066  1.9984 -0.0981 -2.1431
19577SOL    HW264052   0.192   0.308   3.000  0.4949 -2.6866  2.0390
19578SOL     OW64053   5.228   2.889   2.020  0.4762  0.1233 -0.0393
19578SOL    HW164054   5.172   2.966   2.026  0.2259 -0.0945  0.4592
19578SOL    HW264055   5.180   2.820   2.066 -0.3150 -0.9410 -2.3094
19579SOL     OW64056   3.151   8.156  10.981  0.6615  0.2288 -0.3380
19579SOL    HW164057   3.218   8.196  11.037 -0.0005  1.3054 -0.2834
19579SOL    HW264058   3.158   8.062  10.999  0.0876  0.5770  1.9942
19580SOL     OW64059   6.938   5.589   1.695 -0.4326  0.0669 -0.4091
19580SOL    HW164060   6.892   5.673   1.692  0.5491  0.8615  2.6432
19580SOL    HW264061   7.029   5.612   1.710 -0.3492 -1.4380  2.0101
19581SOL     OW64062   7.416   8.529  10.784  0.5811  1.0480  0.4709
19581SOL    HW164063   7.387   8.593  10.719  1.0977 -0.1323 -0.9719
19581SOL    HW264064   7.492   8.487  10.744 -0.5507 -1.4308  0.7528
19582SOL     OW64065   5.211   4.463  10.678 -0.2129  0.5748  0.2678
19582SOL    HW164066   5.121   4.430  10.686 -0.1435 -0.0649 -1.1899
19582SOL    HW264067   5.247   4.416  10.602  1.8484 -0.2686  1.6815
19583SOL     OW64068   4.952   4.088   6.315 -0.5044  0.7261 -0.0050
19583SOL    HW164069   4.955   4.076   6.410  2.3288 -0.4509 -0.1420
19583SOL    HW264070   4.933   4.000   6.281 -0.0706  0.8452 -0.5545
19584SOL     OW64071   3.814   2.578   3.830 -0.5550  0.7810  0.2137
19584SOL    HW164072   3.733   2.617   3.863  0.1780  1.8201  0.8702
19584SOL    HW264073   3.848   2.529   3.904 -0.9916 -0.3443 -0.3194
19585SOL     OW64074   4.039  10.625   6.745 -0.4276  0.1984 -0.0012
19585SOL    HW164075   4.090  10.706   6.746 -1.6243  0.9650  1.6676
19585SOL    HW264076   3.956  10.649   6.704 -0.4908 -0.3965 -0.2326
19586SOL     OW64077   6.897  11.596   8.803  0.2170  0.3829 -0.0526
19586SOL    HW164078   6.931  11.685   8.789  0.0525  0.4160 -0.2505
19586SOL    HW264079   6.923  11.548   8.724  0.2674  0.2664  0.0348
19587SOL     OW64080   4.503   6.814   5.889  0.0310  0.1056  0.2314
19587SOL    HW164081   4.568   6.808   5.960  1.0842  1.2763 -0.5796
19587SOL    HW264082   4.553   6.796   5.809 -0.7859  0.3913 -0.3595
19588SOL     OW64083  10.539   9.734  10.442  0.4235  0.1875 -0.3016
19588SOL    HW164084  10.463   9.728  10.500 -0.7628  0.0463 -1.7903
19588SOL    HW264085  10.520   9.809  10.386  1.0603 -0.2595 -1.1431
19589SOL     OW64086   1.611   5.215   8.617  0.1129 -0.6960 -0.3171
19589SOL    HW164087   1.632   5.136   8.667 -1.6913 -0.0952  1.5414
19589SOL    HW264088   1.529   5.246   8.655  0.0990  1.3699 -1.8641
19590SOL     OW64089   0.056   0.954   2.778  0.4431 -0.5441  0.2525
19590SOL    HW164090  -0.007   1.007   2.828  0.2102 -0.2895 -0.3041
19590SOL    HW264091   0.039   0.977   2.687  3.7122  2.2469  0.1618
19591SOL     OW64092   0.266   3.988   8.407  0.1732 -0.3804  0.3078
19591SOL    HW164093   0.182   3.986   8.360  0.6343  1.4598 -0.6904
19591SOL    HW264094   0.325   3.934   8.354  0.5501  1.2624 -1.0215
19592SOL     OW64095  10.603   9.497   9.423 -0.0533 -0.5756 -0.1341
19592SOL    HW164096  10.636   9.586   9.410  0.1249 -0.8845 -2.0641
19592SOL    HW264097  10.642   9.469   9.506 -2.4987  2.1748  2.1298
19593SOL     OW64098   5.723   1.679   2.303  0.0520  0.6605  0.1552
19593SOL    HW164099   5.786   1.657   2.234  0.0812  0.7993  0.1358
19593SOL    HW264100   5.750   1.626   2.378  1.3123  2.0397  0.7239
19594SOL     OW64101   1.389   4.423   4.766  0.2925 -0.2635  0.8788
19594SOL    HW164102   1.362   4.349   4.821  0.0684  1.1624  2.8018
19594SOL    HW264103   1.478   4.402   4.739 -0.4179 -2.0774 -0.2016
19595SOL     OW64104   1.439   3.808   2.949  0.2161 -0.1395  0.0739
19595SOL    HW164105   1.507   3.833   2.886  0.3383 -0.0722  0.2303
19595SOL    HW264106   1.407   3.724   2.918 -1.5823  1.0951 -1.5809
19596SOL     OW64107   5.507   1.503   0.425  1.0346  0.3622  0.7290
19596SOL    HW164108   5.426   1.514   0.474  0.5019 -1.1883  0.2540
19596SOL    HW264109   5.541   1.418   0.453 -0.0087 -1.3002 -2.4523
19597SOL     OW64110   9.312   3.208   0.521 -0.5171  0.0695  0.9420
19597SOL    HW164111   9.334   3.115   0.515  1.8302  0.6934 -1.9873
19597SOL    HW264112   9.230   3.216   0.473 -0.2884 -0.3791  0.4641
19598SOL     OW64113   5.295  10.101   2.261 -0.2896  0.1717  0.6128
19598SOL    HW164114   5.209  10.083   2.300  0.1184 -2.5910  0.4225
19598SOL    HW264115   5.277  10.164   2.191 -1.7502  1.4996  2.0984
19599SOL     OW64116   0.669   3.525  10.186  0.6990 -0.1631  0.5999
19599SOL    HW164117   0.730   3.590  10.220  0.9960 -0.5947  0.8990
19599SOL    HW264118   0.653   3.466  10.259 -1.2751  0.7925  1.0043
19600SOL     OW64119   3.225   4.294   7.501 -0.4413 -0.3415 -0.3594
19600SOL    HW164120   3.285   4.234   7.545  1.9870  0.8117 -1.9172
19600SOL    HW264121   3.158   4.237   7.462 -0.3926 -1.6656  1.3528
19601SOL     OW64122   3.945   9.281  10.571 -0.4464 -0.4657  0.2302
19601SOL    HW164123   4.011   9.293  10.639  0.3546 -2.1315 -0.2069
19601SOL    HW264124   3.901   9.199  10.594 -1.9291  0.2781  0.1382
19602SOL     OW64125  10.134   7.600   8.046  0.2269 -0.5491 -0.3753
19602SOL    HW164126  10.229   7.590   8.051  0.1394 -2.4275 -1.6539
19602SOL    HW264127  10.099   7.531   8.103 -0.4154  1.0392  1.2549
19603SOL     OW64128   7.915   3.313  10.873 -0.1483  0.0046  0.2169
19603SOL    HW164129   7.911   3.409  10.869 -0.9744 -0.0079  0.6177
19603SOL    HW264130   7.926   3.294  10.966 -0.4323 -0.3046  0.1867
19604SOL     OW64131   4.485   3.570   6.174  0.2897  0.8581 -1.3993
19604SOL    HW164132   4.439   3.599   6.253  0.3906  0.0571 -1.0409
19604SOL    HW264133   4.549   3.506   6.205 -0.1059  0.0436 -2.2066
19605SOL     OW64134   1.465   7.008   5.005  0.4175  0.5146 -0.1592
19605SOL    HW164135   1.481   7.100   4.982 -0.7942  1.3734  2.0893
19605SOL    HW264136   1.500   7.000   5.094  0.3987 -1.2019 -0.2809
19606SOL     OW64137   1.457   1.744   1.583 -0.5349  0.2999  0.6571
19606SOL    HW164138   1.475   1.656   1.549 -1.2478  0.0361  0.9456
19606SOL    HW264139   1.455   1.799   1.505  3.6439  0.8304  0.6539
19607SOL     OW64140   9.259   3.135   7.063 -0.1458  0.5170 -0.2908
19607SOL    HW164141   9.267   3.185   7.144 -0.1168  1.7762 -1.0360
19607SOL    HW264142   9.273   3.200   6.994 -0.6374 -0.4378 -1.3136
19608SOL     OW64143   7.262   7.386   6.769  0.7678  0.1239  0.2494
19608SOL    HW164144   7.238   7.417   6.682  1.4162  0.4246  0.1727
19608SOL    HW264145   7.182   7.395   6.821  0.2334 -0.5305 -0.4367
19609SOL     OW64146   7.878   8.925   9.094  0.3316 -0.2809  0.3174
19609SOL    HW164147   7.908   8.983   9.164  1.9726 -0.7150  0.0053
19609SOL    HW264148   7.931   8.846   9.103  0.6131 -0.3291 -1.4371
19610SOL     OW64149  10.715   6.823   7.548  0.6468 -0.3815 -0.0626
19610SOL    HW164150  10.729   6.917   7.550  0.6675 -0.3895  0.2966
19610SOL    HW264151  10.785   6.788   7.493  0.2923 -0.1305 -0.6811
19611SOL     OW64152   1.335   7.733   3.322 -0.4366  0.1939 -0.6265
19611SOL    HW164153   1.257   7.700   3.366 -0.5663  1.0792 -0.1802
19611SOL    HW264154   1.333   7.828   3.336 -0.2682  0.4607 -2.1816
19612SOL     OW64155   9.143   9.305   1.653  0.1362  0.1381  0.2157
19612SOL    HW164156   9.217   9.265   1.608 -0.6240 -1.5040  0.3315
19612SOL    HW264157   9.068   9.250   1.629 -0.7430  0.7744  1.3908
19613SOL     OW64158   7.404   9.234   5.265 -0.0671  0.9055 -0.0853
19613SOL    HW164159   7.451   9.150   5.263 -0.5532  0.6296 -0.1075
19613SOL    HW264160   7.318   9.213   5.227 -0.0755  1.4845 -0.3872
19614SOL     OW64161   8.560   0.924  10.977  0.0897  0.0388  0.4502
19614SOL    HW164162   8.547   1.016  11.001 -1.1259 -0.3656  1.5310
19614SOL    HW264163   8.472   0.885  10.985  0.4823 -1.1095 -0.4956
19615SOL     OW64164   6.423  11.478   9.168 -0.8975 -0.4290 -0.2375
19615SOL    HW164165   6.445  11.388   9.191  1.4400  0.6572  2.2206
19615SOL    HW264166   6.368  11.508   9.240 -1.0035  0.3745 -0.6443
19616SOL     OW64167   0.824   7.278   5.613 -0.1603  0.1365 -0.2774
19616SOL    HW164168   0.737   7.287   5.651  0.2047 -0.9049  0.8642
19616SOL    HW264169   0.822   7.333   5.535 -1.8965 -0.0336 -0.3767
19617SOL     OW64170   7.929   8.753   4.502 -0.7382 -0.2766  0.1424
19617SOL    HW164171   7.995   8.732   4.568 -0.3721  1.8660  0.5384
19617SOL    HW264172   7.857   8.791   4.552 -1.3660 -0.5902 -0.5082
19618SOL     OW64173   7.231  11.423   3.892  0.0941 -0.1455  0.1299
19618SOL    HW164174   7.252  11.332   3.873  0.5769  0.0902 -0.5111
19618SOL    HW264175   7.212  11.461   3.806 -1.3714  0.0567  0.5002
19619SOL     OW64176   8.449   6.854   4.257 -0.3269  0.4672  0.5291
19619SOL    HW164177   8.500   6.877   4.179  0.7224  0.9294  1.3325
19619SOL    HW264178   8.460   6.759   4.265 -2.1313  0.0417 -1.0135
19620SOL     OW64179   5.589  11.624   8.127 -0.6656 -0.2891 -0.6368
19620SOL    HW164180   5.654  11.615   8.197 -0.6627  3.1124 -0.0177
19620SOL    HW264181   5.633  11.592   8.049  0.5188 -1.1550  0.3511
19621SOL     OW64182  10.858  11.079   1.640  0.3101  0.3175 -0.1806
19621SOL    HW164183  10.931  11.024   1.612 -1.5120 -2.3962  0.0257
19621SOL    HW264184  10.815  11.104   1.558 -1.5636 -2.6676 -0.2716
19622SOL     OW64185   8.846   3.338   2.265 -0.7517  0.3266 -0.1640
19622SOL    HW164186   8.900   3.328   2.343  1.2723 -0.2113 -1.5528
19622SOL    HW264187   8.770   3.388   2.295 -0.2219 -0.1497  2.1956
19623SOL     OW64188   7.262   5.907   3.446  0.6180 -0.5780 -0.6021
19623SOL    HW164189   7.183   5.957   3.428  1.7733  0.5755 -2.9015
19623SOL    HW264190   7.301   5.950   3.523  0.3392  0.4975 -1.0479
19624SOL     OW64191   7.799   5.802   2.757 -0.0805 -0.1962 -0.0126
19624SOL    HW164192   7.838   5.858   2.824  2.3066 -0.6272 -0.9549
19624SOL    HW264193   7.798   5.715   2.797 -0.3082 -0.1426  0.0985
19625SOL     OW64194   4.058   4.670   8.143 -0.5464 -0.3306 -0.2611
19625SOL    HW164195   4.147   4.706   8.136 -1.2671  1.7800  0.6058
19625SOL    HW264196   4.002   4.738   8.105 -1.8308 -1.4985 -0.5236
19626SOL     OW64197   5.377  11.181   8.555 -0.0415 -0.5369  0.0289
19626SOL    HW164198   5.457  11.220   8.591 -1.6428  2.7741  0.3342
19626SOL    HW264199   5.404  11.147   8.470  1.6921  0.5502  0.0852
19627SOL     OW64200   3.449  11.797   7.122 -0.0236 -0.5053 -0.0786
19627SOL    HW164201   3.404  11.714   7.103  1.6704 -1.0035 -2.3989
19627SOL    HW264202   3.429  11.852   7.046  1.8281 -0.1590 -0.3514
19628SOL     OW64203   7.034   0.863   8.391 -0.1417  0.2835 -0.5423
19628SOL    HW164204   7.078   0.857   8.475 -0.9331  1.3548 -0.0202
19628SOL    HW264205   7.044   0.777   8.352  1.6607  0.2501 -0.0872
19629SOL     OW64206   9.245   2.084   7.148 -0.7252  0.3176 -0.6334
19629SOL    HW164207   9.315   2.137   7.186  0.5755  0.2773 -2.8228
19629SOL    HW264208   9.285   1.998   7.134 -1.9197 -0.4002  0.1128
19630SOL     OW64209  10.918   6.549  10.747  0.6815 -0.0731  0.0176
19630SOL    HW164210  10.991   6.546  10.685  0.7457  2.6225 -0.1700
19630SOL    HW264211  10.941   6.620  10.807 -0.9149 -0.4407  1.1220
19631SOL     OW64212  10.472  10.729   9.195  0.0050 -0.0024  0.3152
19631SOL    HW164213  10.399  10.705   9.138  1.9689 -0.0499 -2.4236
19631SOL    HW264214  10.449  10.814   9.231 -1.5214 -0.1534 -0.2465
19632SOL     OW64215   9.450   4.102   7.809  0.0254 -0.2853 -0.0085
19632SOL    HW164216   9.528   4.157   7.799  0.2785 -0.4502  0.9970
19632SOL    HW264217   9.440   4.059   7.724 -0.1414  1.2502 -0.7933
19633SOL     OW64218   9.820   6.251   2.899 -0.7800 -0.1237  0.4109
19633SOL    HW164219   9.770   6.243   2.818  0.3713 -1.7558 -0.2058
19633SOL    HW264220   9.757   6.281   2.964 -2.4389 -1.6177 -0.4285
19634SOL     OW64221   5.207   9.258  11.729  0.0408  0.2127 -0.1585
19634SOL    HW164222   5.201   9.172  11.688 -1.1609  0.7227 -1.0972
19634SOL    HW264223   5.119   9.275  11.763  0.7257  0.2712  1.7367
19635SOL     OW64224  11.655  10.156   7.586 -0.2044 -0.9901 -0.4707
19635SOL    HW164225  11.576  10.195   7.548  1.6739  0.3726 -3.3330
19635SOL    HW264226  11.667  10.075   7.538  0.1370 -1.1986 -0.0418
19636SOL     OW64227  10.615   9.412   1.677  0.0492 -0.0837 -0.0308
19636SOL    HW164228  10.683   9.390   1.741 -0.0160  1.2927  0.5518
19636SOL    HW264229  10.636   9.359   1.600  2.5470  1.1664 -0.3315
19637SOL     OW64230   7.629   0.836   8.341 -0.0284  0.4985 -0.1315
19637SOL    HW164231   7.564   0.851   8.410 -0.9609  0.1592 -0.9075
19637SOL    HW264232   7.586   0.866   8.261  0.4249 -0.5800 -0.7957
19638SOL     OW64233   6.452   9.491   1.255 -0.3084 -0.1485  0.0713
19638SOL    HW164234   6.374   9.519   1.303  0.2356  0.3476  0.6814
19638SOL    HW264235   6.503   9.440   1.318 -0.1035 -0.4062 -0.2992
19639SOL     OW64236   8.951   6.074   6.265  0.3689  0.3094  0.0870
19639SOL    HW164237   9.029   6.018   6.262  0.0509 -0.2201  1.3132
19639SOL    HW264238   8.915   6.061   6.352 -1.4949  0.0008 -0.6766
19640SOL     OW64239   7.364  10.195   0.543  0.0281 -0.6859 -0.1179
19640SOL    HW164240   7.275  10.173   0.571 -0.0416 -0.8757 -0.4902
19640SOL    HW264241   7.413  10.113   0.553 -0.0403 -0.8049 -0.7283
19641SOL     OW64242   0.900   2.905   3.171  0.3549 -0.1519  0.1029
19641SOL    HW164243   0.847   2.984   3.183  1.8614  0.5261  3.5164
19641SOL    HW264244   0.881   2.851   3.248  3.2593 -0.6308  0.5904
19642SOL     OW64245   8.482   8.794   0.870  0.2266 -0.1267  0.1617
19642SOL    HW164246   8.548   8.726   0.879 -0.7804 -1.3091 -1.0067
19642SOL    HW264247   8.449   8.807   0.959  2.4280  0.9821  0.8929
19643SOL     OW64248   2.611   8.770  11.119 -0.2612  0.2943  0.2229
19643SOL    HW164249   2.639   8.741  11.206 -0.6950  1.5186  0.7971
19643SOL    HW264250   2.633   8.697  11.061  0.3859 -0.3908  1.2946
19644SOL     OW64251   8.986   2.142   9.150  0.2021  0.2335  0.3786
19644SOL    HW164252   9.015   2.232   9.167  2.6718  0.0114 -1.8942
19644SOL    HW264253   9.057   2.088   9.184 -0.4986 -0.7771  0.2663
19645SOL     OW64254  10.647   7.285   0.500 -0.3369  0.3610 -0.1465
19645SOL    HW164255  10.680   7.330   0.578 -0.6871  1.1673 -0.4624
19645SOL    HW264256  10.634   7.354   0.435  0.6319 -0.3691 -1.1761
19646SOL     OW64257   1.084   6.622   3.385 -0.7411  0.4943 -0.0129
19646SOL    HW164258   1.063   6.680   3.312  0.7446  0.0403 -0.8528
19646SOL    HW264259   1.176   6.641   3.406 -0.5355 -0.7923  0.3908
19647SOL     OW64260   6.214   0.486   5.493  0.2642  0.2638  0.0072
19647SOL    HW164261   6.147   0.552   5.509 -0.4153  0.0887 -1.9072
19647SOL    HW264262   6.201   0.421   5.562 -3.4283 -1.2037 -1.8321
19648SOL     OW64263   7.657   0.752  11.135 -0.1987  0.0671  0.0657
19648SOL    HW164264   7.691   0.755  11.046  2.5364 -0.0244  1.0179
19648SOL    HW264265   7.675   0.662  11.165  0.4559  0.5700  1.2425
19649SOL     OW64266   7.443   1.203   0.954 -0.1590 -0.4153 -0.0942
19649SOL    HW164267   7.432   1.236   0.864  0.3987  0.5272  0.1694
19649SOL    HW264268   7.354   1.193   0.987 -0.3561 -0.1809 -0.5428
19650SOL     OW64269   8.933   2.443   7.866  0.2667 -0.1348  0.6789
19650SOL    HW164270   8.907   2.535   7.858  0.3653 -0.2330 -1.1371
19650SOL    HW264271   8.970   2.436   7.955 -1.3853  1.1281  1.5177
19651SOL     OW64272   4.312   4.676   7.508  0.3474 -1.0264 -0.5524
19651SOL    HW164273   4.367   4.709   7.579  0.6112  4.3651 -2.7957
19651SOL    HW264274   4.232   4.646   7.552  0.8185  1.2451  2.1355
19652SOL     OW64275   7.815   2.184  11.461  0.5608 -0.4358  0.3768
19652SOL    HW164276   7.798   2.099  11.420 -2.2834  0.7418 -1.1943
19652SOL    HW264277   7.810   2.167  11.555  1.0917 -2.1727  0.1197
19653SOL     OW64278   5.594  11.414   5.015  0.5523 -0.3472 -0.1140
19653SOL    HW164279   5.596  11.465   5.096  0.9645 -0.7011  0.1033
19653SOL    HW264280   5.548  11.333   5.039 -0.0371 -0.1146 -0.4395
19654SOL     OW64281   8.531  10.173   1.130  0.4367 -0.1500 -0.0491
19654SOL    HW164282   8.445  10.175   1.088 -1.3794 -1.5272  3.1958
19654SOL    HW264283   8.567  10.088   1.106  1.2425  0.6788 -1.9170
19655SOL     OW64284   7.677   6.244  11.652 -0.6174  0.6908  0.7879
19655SOL    HW164285   7.663   6.185  11.577  0.3573  0.4990  0.7551
19655SOL    HW264286   7.615   6.316  11.637  0.0075  0.9806 -0.5434
19656SOL     OW64287  11.383   6.983   8.609  0.1443 -0.3457 -0.3852
19656SOL    HW164288  11.457   7.006   8.552 -0.7965 -0.1075 -1.5630
19656SOL    HW264289  11.360   6.894   8.584 -1.1935  0.2676 -1.4491
19657SOL     OW64290  11.777   5.437  11.775 -0.6905  0.8667  0.4384
19657SOL    HW164291  11.704   5.497  11.755 -0.7552  1.4133  2.1181
19657SOL    HW264292  11.838   5.447  11.702 -2.1918  0.5400 -0.9175
19658SOL     OW64293  11.413   5.864   2.016  0.3025  0.0095 -0.1099
19658SOL    HW164294  11.371   5.927   1.957  0.3321  0.1841  0.0594
19658SOL    HW264295  11.398   5.779   1.973 -1.7551 -0.1536  0.7941
19659SOL     OW64296   1.647   4.060  10.735  0.3077 -0.4415  0.2950
19659SOL    HW164297   1.699   4.051  10.815  2.5205  0.1679 -0.9603
19659SOL    HW264298   1.685   4.136  10.691 -2.9299  1.2012  0.0821
19660SOL     OW64299   0.392  11.649   9.698 -0.2959  0.0545  0.2339
19660SOL    HW164300   0.360  11.619   9.613  0.9328  0.4875 -0.4006
19660SOL    HW264301   0.319  11.633   9.758 -0.8117 -1.2266 -0.6922
19661SOL     OW64302   0.973   8.812   7.043 -0.1963  0.2750  0.2022
19661SOL    HW164303   1.063   8.826   7.072 -0.2410  0.0933  0.4266
19661SOL    HW264304   0.969   8.853   6.957  0.3790 -0.5733 -0.2410
19662SOL     OW64305   6.911   5.802   5.429 -0.4229  0.3713 -0.1204
19662SOL    HW164306   6.945   5.876   5.378 -0.4235  0.4244 -0.0449
19662SOL    HW264307   6.988   5.763   5.470 -0.2288 -0.5864 -1.3416
19663SOL     OW64308   8.429   7.279   1.774  1.0388  0.0511 -1.0262
19663SOL    HW164309   8.360   7.303   1.712 -1.1987 -0.6265  1.0485
19663SOL    HW264310   8.446   7.186   1.756  0.3699 -0.1529 -0.6399
19664SOL     OW64311   0.895   2.086   4.574 -0.4014  0.0786 -0.0075
19664SOL    HW164312   0.962   2.032   4.532  0.2891 -0.1462  1.3268
19664SOL    HW264313   0.924   2.176   4.560 -0.3635  0.0270 -0.2799
19665SOL     OW64314  10.412   8.074  10.572 -0.0276  0.0330  0.2796
19665SOL    HW164315  10.439   8.092  10.662 -0.4104 -1.0171  0.6139
19665SOL    HW264316  10.435   7.983  10.557  0.1718  0.2430 -0.7461
19666SOL     OW64317   3.357   0.213   2.242 -0.1994 -0.0218  0.5186
19666SOL    HW164318   3.321   0.125   2.231 -0.8462  0.1883  0.8852
19666SOL    HW264319   3.417   0.224   2.168 -0.0413 -0.8032  0.5247
19667SOL     OW64320  11.358   2.284  11.139 -0.2914  0.1733 -0.1714
19667SOL    HW164321  11.387   2.194  11.151  0.7792  0.4017 -0.9581
19667SOL    HW264322  11.283   2.292  11.198  1.0889 -0.4919  1.7971
19668SOL     OW64323   4.802  10.212  10.809  0.3627  0.4220  0.3808
19668SOL    HW164324   4.883  10.160  10.816 -0.4009 -1.2160 -1.9489
19668SOL    HW264325   4.787  10.221  10.715 -1.7511  1.3943  0.7620
19669SOL     OW64326   4.518   1.439  10.242  0.2870 -0.4252  0.0905
19669SOL    HW164327   4.537   1.448  10.335 -1.2695 -1.7352  0.5887
19669SOL    HW264328   4.502   1.529  10.212  1.7082  0.1026  0.8496
19670SOL     OW64329   5.677  11.619  11.225 -0.5623 -0.1731  0.2532
19670SOL    HW164330   5.621  11.692  11.199 -0.6306 -0.2283  0.2490
19670SOL    HW264331   5.749  11.621  11.161  1.0874  1.7888  2.0211
19671SOL     OW64332   4.432   8.447   8.932 -0.3108  0.1964 -0.4392
19671SOL    HW164333   4.361   8.388   8.958 -0.4975 -0.1767 -1.7273
19671SOL    HW264334   4.455   8.493   9.012  0.2141 -1.9952  0.7475
19672SOL     OW64335  11.360   8.553   6.050 -0.2187 -0.1718  0.0880
19672SOL    HW164336  11.337   8.464   6.076  0.4065 -0.9681 -1.8600
19672SOL    HW264337  11.347   8.555   5.955  1.8831  1.1194 -0.2528
19673SOL     OW64338   5.649   5.683   1.569  0.4951 -0.0209  0.3737
19673SOL    HW164339   5.626   5.754   1.509 -1.0297  0.8387  1.8843
19673SOL    HW264340   5.574   5.623   1.566  0.3973  0.0313  1.3919
19674SOL     OW64341   0.671   2.446   9.477  0.1681  0.3278 -0.0121
19674SOL    HW164342   0.764   2.462   9.492 -0.3420  1.0058  2.9893
19674SOL    HW264343   0.627   2.515   9.526 -1.9611 -0.6331 -0.4726
19675SOL     OW64344   5.641   1.207   9.507 -0.3605  0.1032  0.1164
19675SOL    HW164345   5.716   1.253   9.545  0.3832  0.4448 -1.6444
19675SOL    HW264346   5.644   1.120   9.546  0.3129  0.4519  0.8707
19676SOL     OW64347   6.893   0.891   0.715 -0.1048 -0.3362 -0.1915
19676SOL    HW164348   6.824   0.951   0.744  1.8701  0.8343  2.5159
19676SOL    HW264349   6.879   0.812   0.766  1.2348  0.3971  1.4146
19677SOL     OW64350   0.214   0.315   3.793  0.0372  0.1179  0.5692
19677SOL    HW164351   0.181   0.273   3.872 -1.0929  1.0752  0.6481
19677SOL    HW264352   0.278   0.254   3.757 -0.0822 -0.7246  1.7444
19678SOL     OW64353   4.069   6.392   9.557 -0.8728  0.0960 -0.3554
19678SOL    HW164354   4.016   6.426   9.629  0.7612 -1.3788  1.6742
19678SOL    HW264355   4.118   6.467   9.525 -1.5348  0.7505  0.1247
19679SOL     OW64356   3.208   1.821  10.621 -0.2190  0.0880  0.5490
19679SOL    HW164357   3.222   1.911  10.652  0.7228 -0.0954  0.6762
19679SOL    HW264358   3.279   1.771  10.660  0.4196 -0.3431 -1.1049
19680SOL     OW64359  11.308   2.227   9.018  0.2792 -0.9402 -0.0109
19680SOL    HW164360  11.403   2.221   9.018  0.3870  0.4471  0.6547
19680SOL    HW264361  11.287   2.287   9.089 -1.1982 -2.3949  0.8594
19681SOL     OW64362   1.328   4.040   3.196  0.0262 -0.1238  0.4619
19681SOL    HW164363   1.423   4.047   3.186 -0.2249  0.7571 -2.0728
19681SOL    HW264364   1.304   4.113   3.253  0.7554  0.5921 -0.1208
19682SOL     OW64365   1.880   7.099   1.846 -0.5967 -0.6883 -0.2492
19682SOL    HW164366   1.867   7.152   1.924 -0.3682 -0.2289 -0.5168
19682SOL    HW264367   1.901   7.012   1.880 -2.3100 -0.9590  0.1834
19683SOL     OW64368   6.408  11.803   0.861 -0.6385  0.7619  0.1956
19683SOL    HW164369   6.389  11.837   0.948 -3.0914  1.2601 -0.4533
19683SOL    HW264370   6.436  11.879   0.811  0.0247  0.6141  0.3284
19684SOL     OW64371   9.451   8.977   8.525 -0.7320  0.6039  0.6726
19684SOL    HW164372   9.386   9.047   8.536 -0.1247  1.1864  0.6654
19684SOL    HW264373   9.474   8.981   8.433 -2.9355 -1.6657 -0.0665
19685SOL     OW64374   8.973   6.038   9.231  0.0008  0.2328  0.0186
19685SOL    HW164375   8.975   6.053   9.326 -0.9312 -0.4802  0.1633
19685SOL    HW264376   9.062   6.012   9.209  0.4408  1.2226  0.5522
19686SOL     OW64377   1.005   7.373  10.440 -0.4649 -0.1252  0.1762
19686SOL    HW164378   1.051   7.426  10.505  0.3361 -1.0500  0.3926
19686SOL    HW264379   1.059   7.380  10.361 -2.3142  2.3699 -0.9735
19687SOL     OW64380   5.152   6.267  10.448 -0.5200  0.0337 -0.1648
19687SOL    HW164381   5.107   6.349  10.430 -3.3037 -1.4138 -0.4883
19687SOL    HW264382   5.144   6.217  10.367  1.8803 -0.2859 -0.2614
19688SOL     OW64383   4.854   3.614   7.087  0.2390  0.0508  0.8563
19688SOL    HW164384   4.844   3.689   7.029  1.5704 -0.7202 -0.4607
19688SOL    HW264385   4.777   3.559   7.068 -0.2612  0.6235  1.1665
19689SOL     OW64386   5.961  10.353   7.988  0.1382 -0.1489  0.1915
19689SOL    HW164387   5.916  10.437   7.997 -0.4730 -0.4833  0.3216
19689SOL    HW264388   6.042  10.364   8.039 -0.3386  0.0754  0.9197
19690SOL     OW64389   9.841   6.655   5.391 -0.6114  0.2757 -0.3779
19690SOL    HW164390   9.918   6.693   5.432 -1.6935  0.9209  1.1313
19690SOL    HW264391   9.837   6.565   5.425 -0.3038  0.1123 -0.7723
19691SOL     OW64392   7.598   9.958   9.351 -0.2681  0.1328 -0.3523
19691SOL    HW164393   7.679   9.920   9.383 -0.2111  0.6212  0.0915
19691SOL    HW264394   7.531   9.892   9.372 -0.8046  1.7114  3.8771
19692SOL     OW64395   7.174   2.492   0.586 -0.2228 -0.1885 -0.0977
19692SOL    HW164396   7.124   2.420   0.547  0.5078 -0.6567 -0.1837
19692SOL    HW264397   7.236   2.449   0.644  0.2789  0.3713 -0.2117
19693SOL     OW64398   0.113   6.851   5.373 -0.1066  0.4907 -0.1582
19693SOL    HW164399   0.185   6.839   5.310 -2.2026  0.3784 -2.7003
19693SOL    HW264400   0.106   6.767   5.417  1.8952  0.8003  0.9096
19694SOL     OW64401   7.607   0.080   9.788 -0.1362 -0.2034  0.1396
19694SOL    HW164402   7.666   0.035   9.849  0.8534 -0.9272 -1.2741
19694SOL    HW264403   7.520   0.067   9.825  0.3626 -1.2659  1.0158
19695SOL     OW64404  10.187  10.295   6.654  0.7767  0.7302  0.3064
19695SOL    HW164405  10.162  10.204   6.636  1.7412  0.8873 -2.3037
19695SOL    HW264406  10.121  10.348   6.610 -0.3781  1.4259  2.6728
19696SOL     OW64407   7.771   6.157  10.840 -0.2135 -0.1182  0.3360
19696SOL    HW164408   7.722   6.081  10.871 -1.1412  0.3424  0.0245
19696SOL    HW264409   7.814   6.127  10.760 -0.6038 -0.3125  0.1969
19697SOL     OW64410   7.120  10.734   3.027  0.1845  0.1800 -0.0157
19697SOL    HW164411   7.126  10.815   3.077 -0.0197  1.0482 -1.3330
19697SOL    HW264412   7.190  10.679   3.062  0.3349  0.9293  0.9015
19698SOL     OW64413  10.811   6.660   0.111 -0.2382  0.4052  0.3523
19698SOL    HW164414  10.853   6.580   0.080 -2.9991 -1.6423  1.5273
19698SOL    HW264415  10.768   6.696   0.034 -1.1456 -0.7279  0.3046
19699SOL     OW64416   3.134  10.716  11.483  0.5703 -0.4190 -0.8729
19699SOL    HW164417   3.073  10.649  11.515 -1.6535  1.3234 -1.1876
19699SOL    HW264418   3.079  10.774  11.429  2.0022  2.5094  0.5982
19700SOL     OW64419   2.331   8.331   0.204  0.5339 -0.6951 -0.3431
19700SOL    HW164420   2.285   8.292   0.130  0.5031 -1.3928  0.0387
19700SOL    HW264421   2.306   8.424   0.200 -1.1485 -1.0847  0.0074
19701SOL     OW64422   7.934   5.540   3.141 -0.5431  0.1782  0.0610
19701SOL    HW164423   7.908   5.563   3.052  0.0871  1.6625  0.2256
19701SOL    HW264424   7.877   5.592   3.198 -1.3899 -1.2377  0.5837
19702SOL     OW64425   5.467   8.094   2.847 -0.1582  0.3197 -0.1358
19702SOL    HW164426   5.435   8.004   2.856 -0.2610  0.3641 -0.0455
19702SOL    HW264427   5.422   8.128   2.771 -1.4919  0.8766  0.8720
19703SOL     OW64428   4.757   4.971   6.330  0.2945  0.0986  0.2789
19703SOL    HW164429   4.799   4.982   6.416  2.8351  0.8028 -0.9316
19703SOL    HW264430   4.827   4.939   6.274 -0.6888  1.7171 -2.0198
19704SOL     OW64431   9.953  11.753   6.696  0.0405  0.5217  0.5368
19704SOL    HW164432   9.870  11.706   6.693  0.9735 -1.1926  0.1654
19704SOL    HW264433   9.972  11.761   6.790  0.1902 -0.4859  0.6053
19705SOL     OW64434  10.839   8.251   1.918 -0.1718 -0.4465  0.7720
19705SOL    HW164435  10.770   8.317   1.918 -1.1384 -1.4098 -0.8450
19705SOL    HW264436  10.793   8.168   1.931  0.7862 -1.0080  0.6480
19706SOL     OW64437   3.849   6.321   1.540  0.1582  0.4028 -0.4703
19706SOL    HW164438   3.937   6.322   1.503  0.9136 -0.5444  1.1912
19706SOL    HW264439   3.841   6.406   1.584  0.2685  0.4619 -0.5633
19707SOL     OW64440   8.461  11.615  11.746 -0.3546  0.1618  0.6070
19707SOL    HW164441   8.395  11.684  11.758  0.0349  0.9601 -1.5486
19707SOL    HW264442   8.456  11.592  11.654  1.4142 -0.7718  0.6983
19708SOL     OW64443   7.520  11.444   1.352  0.1973 -0.9188 -0.5028
19708SOL    HW164444   7.453  11.403   1.407  0.3594 -1.6289 -0.8157
19708SOL    HW264445   7.476  11.517   1.310 -0.4640 -1.5342 -0.9048
19709SOL     OW64446   2.760   3.122   0.099 -0.4104  0.2682 -0.1199
19709SOL    HW164447   2.699   3.057   0.134 -1.2594 -1.1404 -3.7813
19709SOL    HW264448   2.728   3.206   0.133 -3.7412 -0.5341 -0.9619
19710SOL     OW64449   6.674   9.831   5.819  0.1970  0.6688 -0.0892
19710SOL    HW164450   6.652   9.920   5.792 -0.4541  0.1925 -1.2096
19710SOL    HW264451   6.590   9.792   5.842  0.4439  0.2667  0.1255
19711SOL     OW64452   8.807   9.079   1.873 -0.1921 -0.0204  0.1349
19711SOL    HW164453   8.786   9.084   1.780  0.8962  1.6711 -0.0600
19711SOL    HW264454   8.901   9.063   1.875 -0.5774 -2.7350  0.9894
19712SOL     OW64455   3.255   7.619  10.420  0.3179  0.1930 -0.0002
19712SOL    HW164456   3.168   7.584  10.399 -0.5710  1.9409  0.5222
19712SOL    HW264457   3.261   7.612  10.516  1.0573 -0.5257 -0.0879
19713SOL     OW64458   8.742  10.791   4.631 -0.0453  0.0783 -0.6257
19713SOL    HW164459   8.776  10.760   4.715 -1.9392 -0.7479 -0.1187
19713SOL    HW264460   8.758  10.719   4.570 -1.2185 -0.4984 -0.2811
19714SOL     OW64461  11.278   6.571   7.853 -0.0448 -0.3722  0.3479
19714SOL    HW164462  11.225   6.607   7.924  1.6871 -1.9844  2.5859
19714SOL    HW264463  11.327   6.646   7.819 -1.3652  0.5382  0.3793
19715SOL     OW64464  10.873   7.293   1.697 -0.2554 -0.0814  0.0069
19715SOL    HW164465  10.904   7.319   1.611  0.2452  0.0392  0.2233
19715SOL    HW264466  10.911   7.207   1.712 -0.2666 -0.0624  0.1470
19716SOL     OW64467   3.652   3.337   7.855 -0.3097 -0.5071 -0.4538
19716SOL    HW164468   3.710   3.292   7.794 -0.2442 -0.2239 -0.6024
19716SOL    HW264469   3.591   3.385   7.799 -0.9468 -1.1277 -0.3049
19717SOL     OW64470   0.792   3.084   7.050  0.7179  0.0033  0.1452
19717SOL    HW164471   0.839   3.131   7.119 -1.6207  0.5406  1.4571
19717SOL    HW264472   0.779   3.150   6.982  1.4286 -0.0306 -0.0350
19718SOL     OW64473   5.286   2.786   9.625  0.2275 -0.4136 -0.2765
19718SOL    HW164474   5.377   2.763   9.641 -0.0100 -0.6899  0.8175
19718SOL    HW264475   5.248   2.793   9.713 -1.0494 -1.2851 -0.7357
19719SOL     OW64476   6.640   2.179  11.573  0.0922 -0.0593 -0.1864
19719SOL    HW164477   6.625   2.222  11.489  0.7699 -0.7734 -0.6872
19719SOL    HW264478   6.583   2.225  11.634  0.9604  1.6960 -0.6505
19720SOL     OW64479   5.187   4.143   7.549 -0.6651 -0.0117  0.3472
19720SOL    HW164480   5.179   4.219   7.491  0.0366  0.1051  0.3903
19720SOL    HW264481   5.265   4.098   7.518 -1.5906 -1.2419 -0.2627
19721SOL     OW64482   5.908   8.905   0.303  0.2519  0.1927  0.1618
19721SOL    HW164483   5.837   8.906   0.368 -1.1969 -1.7727 -1.2643
19721SOL    HW264484   5.952   8.821   0.317 -0.3520 -0.4560 -1.6044
19722SOL     OW64485  10.810  10.623   7.718  0.6460 -0.4962  0.3626
19722SOL    HW164486  10.900  10.606   7.688  0.5035 -0.0246 -0.3633
19722SOL    HW264487  10.816  10.624   7.813  1.4908 -0.1120  0.3165
19723SOL     OW64488   8.405   2.152   6.564 -0.1408 -0.1155  0.3458
19723SOL    HW164489   8.370   2.067   6.589 -1.3355  0.0267 -0.7649
19723SOL    HW264490   8.351   2.215   6.613  1.3097  0.0215  1.8594
19724SOL     OW64491   6.643   6.669   3.982  0.5887  0.3243 -0.9154
19724SOL    HW164492   6.559   6.648   4.022  1.1905 -0.2274  0.0931
19724SOL    HW264493   6.642   6.623   3.898  0.5464 -1.0488 -0.1832
19725SOL     OW64494   6.877   0.266  10.519 -0.0224  0.2271 -0.2747
19725SOL    HW164495   6.856   0.357  10.539  0.2138 -0.0750  1.4810
19725SOL    HW264496   6.802   0.217  10.552 -0.8788 -0.1367 -2.6088
19726SOL     OW64497   9.051  11.384   7.418 -0.4468 -0.0603 -0.0959
19726SOL    HW164498   9.081  11.319   7.482  0.7701  0.2447 -0.3265
19726SOL    HW264499   9.074  11.346   7.333  0.1489  0.5915 -0.2373
19727SOL     OW64500   3.416   2.606   2.411  0.1793 -0.2850  0.2795
19727SOL    HW164501   3.388   2.597   2.502 -1.4935 -0.7504 -0.2466
19727SOL    HW264502   3.366   2.680   2.378 -0.1560 -0.8736 -0.5736
19728SOL     OW64503   1.184   0.516   0.446  0.4973 -0.0908  0.5207
19728SOL    HW164504   1.262   0.536   0.394 -0.0994 -1.3381 -0.9214
19728SOL    HW264505   1.194   0.424   0.471  0.7701  0.4606  2.7106
19729SOL     OW64506   8.615   0.968   9.440 -0.0128  0.0733  0.5695
19729SOL    HW164507   8.658   1.023   9.374 -0.6070 -0.1272 -0.0041
19729SOL    HW264508   8.684   0.914   9.477  0.3937  0.4609  0.3784
19730SOL     OW64509   5.132  11.514   1.657  0.4199  0.1644  0.2517
19730SOL    HW164510   5.040  11.529   1.678 -0.0666 -0.6886 -1.1124
19730SOL    HW264511   5.136  11.522   1.562  1.2277 -2.2208 -0.0024
19731SOL     OW64512  11.220   0.319   0.588 -0.1046 -0.3474  0.0861
19731SOL    HW164513  11.153   0.252   0.575 -0.1015  0.0112 -2.0792
19731SOL    HW264514  11.172   0.396   0.617 -0.4756 -0.4139 -0.3544
19732SOL     OW64515   2.652   5.220   8.515 -0.1120 -0.1239 -0.2099
19732SOL    HW164516   2.629   5.307   8.481 -2.4903 -1.4623 -2.3733
19732SOL    HW264517   2.613   5.218   8.603 -0.9853  0.6622 -0.5532
19733SOL     OW64518   8.082   9.351  10.332 -0.5385 -0.1143  0.2146
19733SOL    HW164519   8.152   9.290  10.355 -0.6617  0.2237  1.5616
19733SOL    HW264520   8.011   9.330  10.391 -0.7168  1.0989  0.4691
19734SOL     OW64521   3.111   7.464   1.839 -0.1057 -0.1449 -0.2894
19734SOL    HW164522   3.109   7.370   1.817  0.4755 -0.3835  0.6085
19734SOL    HW264523   3.035   7.477   1.895  0.6057 -0.4152  0.7762
19735SOL     OW64524   5.720   0.294  11.455 -0.2737 -0.0897  0.2819
19735SOL    HW164525   5.678   0.334  11.378  0.8626 -0.7964 -0.7436
19735SOL    HW264526   5.655   0.235  11.490  0.5176 -3.0951 -2.7558
19736SOL     OW64527   3.563   7.717   8.044  0.0717  0.0070  0.4068
19736SOL    HW164528   3.493   7.781   8.063 -0.1513 -0.3749  0.8958
19736SOL    HW264529   3.561   7.657   8.119 -0.5322 -1.2999 -0.6136
19737SOL     OW64530   6.678  10.130   7.991  0.4810 -0.0621 -0.0069
19737SOL    HW164531   6.590  10.093   7.986 -0.1766  1.3097  0.8315
19737SOL    HW264532   6.696  10.161   7.902 -0.6562  1.2716  0.1895
19738SOL     OW64533   4.137   7.215   0.802  0.3315  0.0201  0.0284
19738SOL    HW164534   4.218   7.264   0.815  0.9270 -1.1938  1.0452
19738SOL    HW264535   4.164   7.135   0.758 -0.0698 -1.0539  1.6544
19739SOL     OW64536   2.727  10.232   9.729 -0.0739 -0.0864 -0.2025
19739SOL    HW164537   2.666  10.302   9.750 -0.3166 -0.5724  0.7807
19739SOL    HW264538   2.675  10.165   9.685 -0.0501 -0.0791 -0.2413
19740SOL     OW64539   6.591   6.238   7.985  0.0925 -0.5763 -0.4265
19740SOL    HW164540   6.558   6.285   7.909 -0.0520 -0.3394 -0.2169
19740SOL    HW264541   6.605   6.148   7.954 -0.5242 -0.6224 -0.5770
19741SOL     OW64542   7.275   3.845   6.379 -0.0285  0.0588  0.5951
19741SOL    HW164543   7.330   3.818   6.306  0.1937  0.1151  0.7407
19741SOL    HW264544   7.197   3.791   6.372 -0.7240  1.1586 -0.6285
19742SOL     OW64545  10.983   7.659   8.225 -0.4094  0.1947 -0.2496
19742SOL    HW164546  11.059   7.622   8.182 -0.5202  0.1546 -0.4109
19742SOL    HW264547  10.950   7.589   8.281 -0.6693  0.0199 -0.6201
19743SOL     OW64548   6.588   8.816   9.932 -0.1809 -0.0352 -0.4192
19743SOL    HW164549   6.523   8.863   9.880 -1.4498 -0.1437  0.9898
19743SOL    HW264550   6.647   8.778   9.868  0.7065  3.1390 -1.6525
19744SOL     OW64551   1.130   6.086   0.080  0.5036  0.0231 -0.4996
19744SOL    HW164552   1.071   6.134   0.139 -0.0199  1.9040 -2.4307
19744SOL    HW264553   1.199   6.052   0.138 -1.3163 -0.4651  1.5336
19745SOL     OW64554  11.532   7.750   4.510  0.3622  0.0208 -0.7184
19745SOL    HW164555  11.561   7.797   4.431 -1.1241  0.9221 -0.7575
19745SOL    HW264556  11.448   7.711   4.485 -1.3687  2.2962  1.0563
19746SOL     OW64557   6.296   8.948   0.321  0.1062  0.3369  0.4668
19746SOL    HW164558   6.220   8.998   0.290 -0.6352 -0.5078  0.8868
19746SOL    HW264559   6.259   8.883   0.380  0.9793 -1.0381 -0.4503
19747SOL     OW64560   3.424   4.986  11.016  0.3965 -0.5163 -0.1027
19747SOL    HW164561   3.390   4.917  10.959 -0.4093 -1.5684  1.5852
19747SOL    HW264562   3.357   5.054  11.015  0.7259 -0.1927 -0.9662
19748SOL     OW64563   1.444   1.337   0.565  0.7112 -0.0089  0.3831
19748SOL    HW164564   1.490   1.253   0.559  2.8386  1.1394 -0.1542
19748SOL    HW264565   1.454   1.375   0.478  1.7527  1.7737  1.2414
19749SOL     OW64566   3.019   6.457   7.063 -0.3384 -0.1521 -0.0966
19749SOL    HW164567   2.966   6.532   7.090 -0.3810 -0.2433  0.0762
19749SOL    HW264568   2.986   6.433   6.976 -0.9602 -0.5607  0.2467
19750SOL     OW64569   2.140  10.304   9.900 -0.0988 -0.3329  0.3372
19750SOL    HW164570   2.206  10.330   9.964  0.8330  1.2944 -1.2106
19750SOL    HW264571   2.072  10.370   9.908 -0.6637 -0.9277  0.5919
19751SOL     OW64572   1.173   0.900   7.833 -0.5234  0.3817 -0.9732
19751SOL    HW164573   1.115   0.903   7.909 -0.0477  0.6353 -0.6165
19751SOL    HW264574   1.115   0.917   7.758 -1.0041  0.0556 -0.6811
19752SOL     OW64575  11.791   7.865   3.023  0.3538 -0.0150  0.2992
19752SOL    HW164576  11.868   7.858   3.080  1.4779  0.8859 -1.0535
19752SOL    HW264577  11.817   7.821   2.942 -1.1152 -1.0145  0.3278
19753SOL     OW64578   7.078   7.615  11.036  0.3129 -0.2074  0.0173
19753SOL    HW164579   7.075   7.696  10.985 -0.3201  0.0295  0.4143
19753SOL    HW264580   7.163   7.619  11.080  0.2501  0.2954  0.1088
19754SOL     OW64581   1.688   7.865   3.281 -0.2669  0.3119 -0.3581
19754SOL    HW164582   1.679   7.896   3.371  1.2199  1.2158 -0.4826
19754SOL    HW264583   1.659   7.938   3.227 -0.4046  0.0640 -0.6212
19755SOL     OW64584   1.288   1.586   8.925  0.3113 -0.2856  0.3081
19755SOL    HW164585   1.359   1.525   8.906  1.7999  1.0695  1.3541
19755SOL    HW264586   1.275   1.634   8.843 -1.5937 -2.5875 -0.8779
19756SOL     OW64587   3.797   6.978   1.251 -0.2457  0.6116 -0.1248
19756SOL    HW164588   3.817   7.056   1.303  0.5049 -0.2794  0.9745
19756SOL    HW264589   3.857   6.984   1.176 -1.8400  2.2815 -1.3699
19757SOL     OW64590   9.299   9.112   2.432 -0.6669  0.3942  0.1784
19757SOL    HW164591   9.364   9.153   2.489 -1.9987  0.9815  1.3107
19757SOL    HW264592   9.328   9.135   2.343  0.1528  1.4434  0.6939
19758SOL     OW64593   8.478   1.923   2.886  0.2171  0.2288  0.3777
19758SOL    HW164594   8.527   1.843   2.906 -0.8559 -0.5455  0.0287
19758SOL    HW264595   8.543   1.993   2.890  1.3452 -0.7560 -0.0385
19759SOL     OW64596   3.583  11.744  10.787 -0.8555  0.2005  0.6638
19759SOL    HW164597   3.590  11.648  10.785  0.2662  0.2459 -2.1516
19759SOL    HW264598   3.647  11.772  10.852 -0.6416 -0.9353  0.9572
19760SOL     OW64599   8.708   8.680   1.541 -0.0850  0.1223 -0.5891
19760SOL    HW164600   8.631   8.695   1.486 -1.2766 -0.9726  0.6995
19760SOL    HW264601   8.675   8.686   1.631  1.3851 -0.1641 -0.0078
19761SOL     OW64602   2.868   3.789   2.381  0.0815  0.0017  0.5143
19761SOL    HW164603   2.803   3.765   2.315  1.5199  1.6064 -1.6041
19761SOL    HW264604   2.817   3.824   2.453 -1.4607  1.0562 -1.0106
19762SOL     OW64605   3.138   9.806   0.756 -0.7544  0.1985  0.2268
19762SOL    HW164606   3.183   9.741   0.702  0.8449  1.4298 -0.0070
19762SOL    HW264607   3.172   9.791   0.845 -0.1608  0.8569  0.1248
19763SOL     OW64608   7.966   2.345   5.208 -0.3398  0.4279  0.5553
19763SOL    HW164609   8.044   2.303   5.244 -0.6703  0.5206  1.3851
19763SOL    HW264610   7.900   2.275   5.206 -0.4092  0.4960  0.3889
19764SOL     OW64611  11.488   3.789   7.458 -0.0417  0.4490  0.1709
19764SOL    HW164612  11.443   3.849   7.399  0.3659  0.1099 -0.4914
19764SOL    HW264613  11.428   3.716   7.470  0.9909 -0.8934 -2.1703
19765SOL     OW64614   1.449   3.588   2.421  0.0668  0.4568 -0.6792
19765SOL    HW164615   1.425   3.598   2.328  0.6079  1.8232 -0.6934
19765SOL    HW264616   1.545   3.598   2.422 -0.0083  1.2043  0.1086
19766SOL     OW64617   3.046  10.705   5.303 -0.6225 -0.2229 -0.3203
19766SOL    HW164618   3.010  10.679   5.219  0.9885  0.4244 -1.2417
19766SOL    HW264619   3.108  10.774   5.283  0.3920 -0.6012  1.3194
19767SOL     OW64620   5.224   0.613  10.330 -0.4624  0.6678 -0.1820
19767SOL    HW164621   5.231   0.618  10.235  1.2733 -2.5032 -0.3489
19767SOL    HW264622   5.298   0.665  10.362  0.1254  0.1434 -0.6630
19768SOL     OW64623   9.950   0.854  11.794 -0.1123  0.4043 -0.0230
19768SOL    HW164624   9.875   0.899  11.755  0.1833  0.1779 -0.8765
19768SOL    HW264625   9.995   0.814  11.720  1.4109  1.3528  0.3369
19769SOL     OW64626  11.302   7.104   3.687  0.4648  0.4279  0.4288
19769SOL    HW164627  11.211   7.114   3.659  0.6942  0.4229 -0.3281
19769SOL    HW264628  11.353   7.154   3.624  0.9058  1.4045  1.5172
19770SOL     OW64629   8.820   9.988   4.601 -0.6091 -0.2371 -0.1383
19770SOL    HW164630   8.761  10.044   4.551 -2.1152 -1.8310 -0.2373
19770SOL    HW264631   8.877  10.050   4.647  0.2918  1.3056 -3.0651
19771SOL     OW64632   6.041   0.943   0.152 -0.4440 -0.1589  0.5140
19771SOL    HW164633   6.124   0.992   0.149 -1.3469  1.3894 -0.2581
19771SOL    HW264634   6.045   0.885   0.076 -0.3049  0.2983  0.1705
19772SOL     OW64635   7.832   6.414   2.792  0.7907  0.0514 -0.3127
19772SOL    HW164636   7.796   6.343   2.738  0.5547  0.6398 -0.9409
19772SOL    HW264637   7.848   6.373   2.877 -2.4750  0.0094  0.3949
19773SOL     OW64638   3.215   0.687   7.308 -0.5058 -0.9085  0.1377
19773SOL    HW164639   3.296   0.708   7.261 -0.3906 -1.5755  0.0353
19773SOL    HW264640   3.145   0.715   7.248 -0.4187 -3.9885 -1.5773
19774SOL     OW64641   9.192   2.020   8.114  0.0390  0.1441  0.0342
19774SOL    HW164642   9.238   1.937   8.105 -0.2395  0.0650 -0.7154
19774SOL    HW264643   9.156   2.018   8.203 -0.1272 -0.6126 -0.0481
19775SOL     OW64644   8.703   5.779   9.562  0.0376  0.5194 -0.4264
19775SOL    HW164645   8.672   5.713   9.623 -0.7922  1.2809 -0.0098
19775SOL    HW264646   8.676   5.862   9.600 -0.3095  1.0186 -1.7177
19776SOL     OW64647   9.101   8.964   1.621 -0.1606  0.4104 -0.2073
19776SOL    HW164648   9.100   8.987   1.714 -0.7336 -0.8088  0.1144
19776SOL    HW264649   9.193   8.972   1.596 -0.1998  2.1017  0.0821
19777SOL     OW64650  11.444   1.735   0.768  0.0471 -0.0553 -0.5484
19777SOL    HW164651  11.385   1.735   0.693 -0.4351  0.6211 -0.1791
19777SOL    HW264652  11.422   1.655   0.816 -1.9062  1.0946  0.6004
19778SOL     OW64653   3.213   7.625   1.039  0.1060 -0.0627 -0.0217
19778SOL    HW164654   3.301   7.661   1.053 -0.5134  0.7822  2.0456
19778SOL    HW264655   3.212   7.545   1.091 -0.7081  0.5822  0.9997
19779SOL     OW64656   0.986   4.098   1.765 -0.4193 -0.0068 -0.3053
19779SOL    HW164657   0.957   4.162   1.830  0.6194 -0.6224  0.8034
19779SOL    HW264658   1.027   4.151   1.696 -1.3643  0.6362 -0.3944
19780SOL     OW64659   8.388   3.775   3.655 -0.4046 -0.8849  0.0917
19780SOL    HW164660   8.468   3.790   3.605 -0.4838  0.8209  0.4109
19780SOL    HW264661   8.329   3.734   3.592 -0.1680  0.3198 -0.9756
19781SOL     OW64662  10.954  10.564  10.791  0.0165 -0.0126  0.4451
19781SOL    HW164663  10.944  10.556  10.885  0.3337 -1.4082  0.3751
19781SOL    HW264664  10.962  10.474  10.759  1.2748  0.4740 -0.7461
19782SOL     OW64665   6.548   9.628   8.929 -0.3295 -0.2444  0.6003
19782SOL    HW164666   6.572   9.615   9.021  0.5003  0.0595  0.4391
19782SOL    HW264667   6.618   9.683   8.894 -0.6236 -0.3801 -0.2239
19783SOL     OW64668   3.649   0.930  10.410 -0.1874 -0.6440 -0.1358
19783SOL    HW164669   3.726   0.984  10.391 -1.7814  1.6302 -0.4891
19783SOL    HW264670   3.658   0.854  10.352  1.5145 -0.1869 -0.5225
19784SOL     OW64671   1.663   9.987   8.620  0.4860 -0.2556 -0.2009
19784SOL    HW164672   1.601   9.953   8.556 -0.4361 -1.2634  1.1690
19784SOL    HW264673   1.612  10.051   8.671  1.0782  0.2224 -0.1933
19785SOL     OW64674   4.965   1.154  10.171 -0.1260  0.0738  0.2980
19785SOL    HW164675   5.027   1.211  10.217 -1.6511  1.6511  0.5223
19785SOL    HW264676   4.923   1.211  10.107  0.5609 -1.6246 -1.7684
19786SOL     OW64677   6.268   3.510   0.675 -0.9138 -0.0115 -0.0086
19786SOL    HW164678   6.313   3.452   0.613 -2.3678 -1.9902  0.6698
19786SOL    HW264679   6.240   3.585   0.623  0.6376 -0.0966 -1.0333
19787SOL     OW64680   2.604   8.174   1.477 -0.3099  0.1569  0.4315
19787SOL    HW164681   2.686   8.190   1.523 -0.1041 -0.9029  0.4466
19787SOL    HW264682   2.538   8.219   1.529  0.0282 -0.3628  1.3303
19788SOL     OW64683   0.339   9.973   0.385  0.0934  0.1920 -0.3204
19788SOL    HW164684   0.301  10.059   0.404  0.1817 -0.2601  2.2286
19788SOL    HW264685   0.433   9.984   0.399  0.2300 -0.1206 -0.9125
19789SOL     OW64686   8.314   7.252   3.208 -0.3387  0.3686 -0.9011
19789SOL    HW164687   8.404   7.221   3.196  0.3891  1.8105  0.4033
19789SOL    HW264688   8.313   7.290   3.296 -1.7277  1.9782 -1.5387
19790SOL     OW64689  10.339   7.089   6.718  0.0348 -0.1206  0.4653
19790SOL    HW164690  10.292   7.116   6.639  1.1552  0.5533  0.0171
19790SOL    HW264691  10.397   7.019   6.689  0.4812  0.1588  0.6826
19791SOL     OW64692  10.592   3.330   1.290 -0.3484  0.3909  0.2931
19791SOL    HW164693  10.499   3.350   1.307 -0.2752  1.2277 -0.2432
19791SOL    HW264694  10.614   3.383   1.214  0.3877 -0.3517 -0.0192
19792SOL     OW64695   8.069   7.896   7.307  0.5590 -0.2559  0.3001
19792SOL    HW164696   8.060   7.869   7.215  0.1921  0.3535  0.1540
19792SOL    HW264697   8.067   7.814   7.356 -0.3495 -0.5115 -0.1469
19793SOL     OW64698   3.860  10.009   5.342  0.3366  0.1462  0.4020
19793SOL    HW164699   3.764  10.003   5.342  0.3786 -1.0783 -0.7386
19793SOL    HW264700   3.880  10.076   5.408 -1.2307 -0.7934  1.9332
19794SOL     OW64701   9.407   2.280   6.582  0.2218 -0.1550 -0.6688
19794SOL    HW164702   9.497   2.285   6.549  0.3113 -0.1568 -0.4241
19794SOL    HW264703   9.369   2.205   6.536  0.3268 -0.1169 -0.8176
19795SOL     OW64704   1.029  10.614   8.223 -0.0449 -0.0355 -0.0022
19795SOL    HW164705   0.971  10.569   8.161  0.1981 -2.0663  1.1838
19795SOL    HW264706   0.985  10.698   8.239 -1.2427 -0.3855 -1.2141
19796SOL     OW64707   2.357   3.037   0.543  0.0921  0.1373  0.2231
19796SOL    HW164708   2.349   2.946   0.570 -1.6694  0.5842  1.4608
19796SOL    HW264709   2.318   3.040   0.456  1.8436 -0.5746 -0.6270
19797SOL     OW64710   3.968   8.252   1.319 -0.2993  0.2263 -0.1117
19797SOL    HW164711   3.896   8.228   1.376 -0.2286  0.9860  0.3106
19797SOL    HW264712   3.940   8.335   1.279 -0.1677 -0.0799 -0.8526
19798SOL     OW64713   2.492   7.569   8.833 -1.0681  0.2242 -0.3634
19798SOL    HW164714   2.414   7.548   8.884 -1.2768 -1.3654 -1.2758
19798SOL    HW264715   2.458   7.603   8.750 -0.8163 -0.5808 -0.8072
19799SOL     OW64716   3.776   5.239   2.144 -0.0619 -0.0817 -0.4845
19799SOL    HW164717   3.750   5.149   2.121 -1.3612  0.3131 -0.6597
19799SOL    HW264718   3.693   5.286   2.152  0.6294  1.2609 -1.0004
19800SOL     OW64719   3.441   7.984   3.498 -0.4664 -0.1490  0.5908
19800SOL    HW164720   3.466   8.076   3.496 -1.6116  0.2071  1.5468
19800SOL    HW264721   3.524   7.937   3.509  0.2363  0.6740 -0.8737
19801SOL     OW64722   0.320   3.505   2.469  0.8649 -0.3386  0.2151
19801SOL    HW164723   0.392   3.443   2.476  0.7394 -0.3475  1.8236
19801SOL    HW264724   0.241   3.454   2.490  0.7762  0.3324  1.7173
19802SOL     OW64725  10.450   8.515   7.970  0.5802  0.3652  0.2549
19802SOL    HW164726  10.372   8.538   7.919  1.0901 -0.6342 -1.0407
19802SOL    HW264727  10.420   8.511   8.060 -1.1629 -1.1483 -0.3423
19803SOL     OW64728   1.466   5.436   1.897  0.0259  0.1955  0.1585
19803SOL    HW164729   1.469   5.370   1.967  0.1568  0.1112  0.0740
19803SOL    HW264730   1.374   5.461   1.892  0.1507  0.8834  0.9988
19804SOL     OW64731   9.527  10.276  11.357 -0.2351  0.2143  0.1378
19804SOL    HW164732   9.583  10.336  11.308  0.4407  0.4128  1.1244
19804SOL    HW264733   9.524  10.313  11.446 -1.8548  0.1510  0.1371
19805SOL     OW64734   6.360   3.250   9.161 -0.6939 -0.1887  0.0082
19805SOL    HW164735   6.373   3.238   9.067  1.0960  2.1184 -0.1382
19805SOL    HW264736   6.443   3.224   9.200 -1.3101 -0.7981  0.9446
19806SOL     OW64737  10.129  10.845   0.770  0.2033  0.5927 -0.1197
19806SOL    HW164738  10.098  10.758   0.744 -0.2914  0.3594  1.2024
19806SOL    HW264739  10.140  10.892   0.687 -0.5947 -0.3647 -0.7890
19807SOL     OW64740  11.580   5.571   4.401 -0.0277 -0.4874  0.0634
19807SOL    HW164741  11.573   5.571   4.306  1.0310 -1.7837 -0.0378
19807SOL    HW264742  11.526   5.645   4.429 -0.4765 -0.1836 -1.5238
19808SOL     OW64743   2.825   4.940   0.512 -0.7044 -0.1777 -0.0053
19808SOL    HW164744   2.798   4.854   0.481 -0.5367 -0.5299  0.7950
19808SOL    HW264745   2.776   4.952   0.593  0.1514 -0.0372  0.5011
19809SOL     OW64746   6.417   0.877   2.408 -0.2913 -0.0000  0.3045
19809SOL    HW164747   6.465   0.957   2.432 -0.2650 -0.3744  1.5586
19809SOL    HW264748   6.439   0.863   2.316  1.3748  0.2955  0.6204
19810SOL     OW64749   8.515   2.005  11.216  0.3715  0.2322  0.0460
19810SOL    HW164750   8.528   1.911  11.208  1.0861  0.3708 -0.6147
19810SOL    HW264751   8.421   2.018  11.200  0.2155 -0.3904  0.4500
19811SOL     OW64752   4.249   8.098   5.180 -0.9457  0.0430 -0.4393
19811SOL    HW164753   4.227   8.129   5.268 -0.0563  0.7650 -0.4565
19811SOL    HW264754   4.256   8.003   5.190  0.5383  0.2232  0.6175
19812SOL     OW64755  11.552   4.674   3.432  0.2113 -0.1996 -1.0606
19812SOL    HW164756  11.547   4.579   3.442  0.9173 -0.2413 -1.0920
19812SOL    HW264757  11.598   4.704   3.511 -0.5585  0.1813 -0.7458
19813SOL     OW64758  11.608   9.664   8.324  0.2551  0.0870  0.6775
19813SOL    HW164759  11.540   9.661   8.392  0.4375  1.7666  0.9845
19813SOL    HW264760  11.690   9.661   8.373  0.3897  1.8109  0.5930
19814SOL     OW64761  10.835   5.181  11.123  0.0167  0.2477 -0.0899
19814SOL    HW164762  10.814   5.111  11.061  1.2119 -0.2814  0.0816
19814SOL    HW264763  10.875   5.137  11.197 -0.1499  1.0215  0.4691
19815SOL     OW64764   3.186   5.281   7.088 -0.1025 -0.3017  0.2864
19815SOL    HW164765   3.198   5.187   7.074  0.6296  0.0833 -2.1586
19815SOL    HW264766   3.106   5.303   7.040 -0.8890  0.1754  1.7543
19816SOL     OW64767   2.940  10.934   5.723  0.1304  0.3729 -0.7540
19816SOL    HW164768   2.873  10.923   5.655  1.2988 -1.0646 -1.7369
19816SOL    HW264769   2.890  10.947   5.804 -1.4521 -2.4899 -1.1187
19817SOL     OW64770   2.252   2.147   2.645 -0.5101  0.7876 -0.1616
19817SOL    HW164771   2.327   2.089   2.633 -0.3703  0.8017  0.6185
19817SOL    HW264772   2.218   2.160   2.556 -0.3152 -0.1795 -0.3947
19818SOL     OW64773   7.316   9.328   6.222  0.2328 -0.3284  0.2406
19818SOL    HW164774   7.270   9.309   6.304 -1.3622 -1.8804 -0.9642
19818SOL    HW264775   7.370   9.251   6.207 -0.5242 -0.6625 -0.8477
19819SOL     OW64776   3.544   2.787   3.533  0.0193 -0.4495  0.4774
19819SOL    HW164777   3.583   2.733   3.464  0.2000  0.0067  0.2150
19819SOL    HW264778   3.467   2.826   3.493 -0.2353 -0.6891  0.7351
19820SOL     OW64779   1.565   9.535   8.751 -0.4899  0.0383  0.1847
19820SOL    HW164780   1.566   9.522   8.846  1.0394 -0.3190  0.1344
19820SOL    HW264781   1.572   9.446   8.714  1.1145  0.3076 -0.2280
19821SOL     OW64782   0.446   1.032   5.458  0.2617 -0.0827  0.2567
19821SOL    HW164783   0.351   1.041   5.448  0.0396  1.4622  2.7995
19821SOL    HW264784   0.482   1.067   5.376 -1.3453  0.9199 -0.0717
19822SOL     OW64785   8.228   4.779   8.715  0.3815 -0.0245 -0.9259
19822SOL    HW164786   8.136   4.755   8.705  0.6477 -0.6467 -2.0292
19822SOL    HW264787   8.272   4.696   8.735  0.6796  0.3060 -0.1823
19823SOL     OW64788  11.051   5.865   3.463 -0.3742 -0.3317 -0.0431
19823SOL    HW164789  10.999   5.830   3.535  1.7206 -0.4869  1.4993
19823SOL    HW264790  11.129   5.809   3.460  0.5589  0.9471 -1.0506
19824SOL     OW64791   1.740  10.220   4.003  0.0459  0.6377 -0.8011
19824SOL    HW164792   1.697  10.197   3.921  0.6467  0.3001 -1.0265
19824SOL    HW264793   1.689  10.295   4.036 -1.9331 -0.9470 -0.0610
19825SOL     OW64794   4.928  10.402  11.508  0.9459  0.2576 -0.1482
19825SOL    HW164795   5.017  10.380  11.534  1.0607 -0.6297 -1.2059
19825SOL    HW264796   4.913  10.351  11.428 -0.8256 -0.3172  0.5063
19826SOL     OW64797  11.631  10.032   4.592 -0.1838 -0.0328  0.2671
19826SOL    HW164798  11.698   9.997   4.532  0.6150  0.0553  1.0828
19826SOL    HW264799  11.576   9.957   4.613  1.6248 -0.9358  2.1476
19827SOL     OW64800   7.536   1.576   5.639  0.8675 -0.1307  0.2182
19827SOL    HW164801   7.558   1.487   5.665 -0.8794 -0.3161  1.1966
19827SOL    HW264802   7.564   1.631   5.712 -0.1151 -0.1633  0.6398
19828SOL     OW64803   4.296  11.245   5.803 -0.0956  0.0940  0.4175
19828SOL    HW164804   4.203  11.244   5.827  0.1489 -2.1227  1.5617
19828SOL    HW264805   4.310  11.332   5.765 -2.7974  0.2360 -0.5163
19829SOL     OW64806   1.894   7.965  10.200 -0.2088 -0.0715  0.1732
19829SOL    HW164807   1.864   8.053  10.222  1.3167  0.2495  1.1340
19829SOL    HW264808   1.829   7.907  10.240  0.1699  0.5929  1.8275
19830SOL     OW64809   8.383   9.695   3.754 -0.0713 -0.2056 -0.2669
19830SOL    HW164810   8.418   9.760   3.692 -0.4833  1.3927  1.0831
19830SOL    HW264811   8.288   9.707   3.749 -0.0744  1.5027  2.1326
19831SOL     OW64812   5.827  10.675   0.395  0.2643  0.4655 -0.2318
19831SOL    HW164813   5.785  10.692   0.310  0.3945  0.2307 -0.3445
19831SOL    HW264814   5.813  10.582   0.411 -0.5534  0.6903  0.4441
19832SOL     OW64815   6.747   6.668   0.019  0.0709 -0.2998 -1.1713
19832SOL    HW164816   6.730   6.574   0.015  2.2622 -0.8677  0.7925
19832SOL    HW264817   6.716   6.694   0.105  1.1565  0.3579 -0.9553
19833SOL     OW64818  10.941  10.904   4.608 -0.1457  0.1217 -0.5213
19833SOL    HW164819  10.954  10.990   4.566 -4.4431  0.9716 -0.5547
19833SOL    HW264820  10.850  10.906   4.638 -0.2060 -4.2280  0.1179
19834SOL     OW64821   9.692   2.310   7.839 -0.1923 -0.2183  0.6812
19834SOL    HW164822   9.777   2.349   7.819 -0.2487 -1.2952 -2.2199
19834SOL    HW264823   9.636   2.385   7.859  1.3046  0.5320  2.3571
19835SOL     OW64824   3.594   9.998   5.367  0.0575  0.1252 -0.2812
19835SOL    HW164825   3.536   9.951   5.307 -1.2289  1.5488 -0.1845
19835SOL    HW264826   3.553   9.989   5.453  1.1145 -0.6437  0.1658
19836SOL     OW64827   0.707   2.752   1.528  0.1036 -0.3684 -0.7198
19836SOL    HW164828   0.663   2.668   1.537  0.8544 -0.7726 -0.7524
19836SOL    HW264829   0.655   2.812   1.583 -0.6217 -0.7658 -0.9513
19837SOL     OW64830   5.752   5.411   3.500 -0.5525 -0.1576  0.0244
19837SOL    HW164831   5.697   5.476   3.544 -1.3552 -0.4852 -0.4677
19837SOL    HW264832   5.774   5.451   3.415 -1.4383 -0.7011 -0.4757
19838SOL     OW64833   2.842   4.737   4.359  0.0957 -0.4362 -0.1418
19838SOL    HW164834   2.846   4.810   4.421 -1.1602 -0.3764 -0.1094
19838SOL    HW264835   2.787   4.770   4.288 -0.7320 -1.4472  0.0120
19839SOL     OW64836  10.539   5.776   9.510 -0.4769 -0.2678  0.5296
19839SOL    HW164837  10.495   5.691   9.512 -2.7393  0.8091 -0.1743
19839SOL    HW264838  10.468   5.840   9.508  1.0495  1.5600 -2.2118
19840SOL     OW64839   7.459   6.708  10.193 -0.1208 -0.7120  0.0182
19840SOL    HW164840   7.375   6.671  10.166 -1.1379  0.9897  0.6738
19840SOL    HW264841   7.436   6.776  10.255  1.7837 -0.3306  0.3708
19841SOL     OW64842   4.638   1.456   5.430  0.4757  0.1491  0.0933
19841SOL    HW164843   4.605   1.367   5.430  0.5390  0.1196 -0.7229
19841SOL    HW264844   4.679   1.467   5.516  0.9043 -0.7691  0.0122
19842SOL     OW64845   4.532   5.316   9.310 -0.3348 -0.0065 -0.6745
19842SOL    HW164846   4.452   5.313   9.257 -0.1080  0.2116 -1.0345
19842SOL    HW264847   4.601   5.340   9.248 -0.1696  0.8759 -0.1625
19843SOL     OW64848  10.064   2.944   9.088 -0.0889 -0.1115 -0.4687
19843SOL    HW164849  10.069   2.978   9.177  0.6368 -1.1368 -0.0965
19843SOL    HW264850  10.141   2.981   9.044 -0.5930  0.6078 -0.7522
19844SOL     OW64851   9.341   4.595   2.562 -0.6579 -0.3296 -0.6089
19844SOL    HW164852   9.384   4.659   2.618 -0.7094  0.6864 -1.6827
19844SOL    HW264853   9.248   4.616   2.568 -1.0395 -2.2584  1.3842
19845SOL     OW64854   0.342  11.393  11.372  0.5782  0.1536 -0.2047
19845SOL    HW164855   0.361  11.486  11.370  0.8391  0.2489  2.8009
19845SOL    HW264856   0.254  11.385  11.334  0.4477  1.6507 -0.2486
19846SOL     OW64857  11.205   3.894   6.793  0.1228  0.5482 -0.6591
19846SOL    HW164858  11.187   3.875   6.701  3.1906  0.3121 -1.3484
19846SOL    HW264859  11.229   3.987   6.794 -0.6108  0.7387  0.0579
19847SOL     OW64860   6.646   6.851   3.590  0.0938  0.0673 -0.4308
19847SOL    HW164861   6.564   6.815   3.622 -1.2828  2.5778 -0.9179
19847SOL    HW264862   6.704   6.852   3.667 -1.4371  1.2210  0.7644
19848SOL     OW64863   3.121   7.935   6.767 -0.3904 -0.1882 -0.5692
19848SOL    HW164864   3.146   8.012   6.716  0.2311 -1.2789 -1.9811
19848SOL    HW264865   3.169   7.944   6.849  1.2306 -0.0375 -1.4989
19849SOL     OW64866   4.305   2.979   4.085  0.4530 -0.5763 -0.0564
19849SOL    HW164867   4.376   2.999   4.146 -0.2702 -0.2080  0.6855
19849SOL    HW264868   4.243   2.927   4.137  0.7926 -2.0683 -1.0614
19850SOL     OW64869  10.878   7.996   9.967 -0.5729  0.1742 -0.1067
19850SOL    HW164870  10.888   7.913  10.013 -1.1328  0.8921  1.3659
19850SOL    HW264871  10.829   7.974   9.888 -0.9405 -0.8615  0.3911
19851SOL     OW64872  10.354   3.610   4.363  0.2411 -0.2178  0.4754
19851SOL    HW164873  10.317   3.565   4.287 -0.2308  0.3702  0.3569
19851SOL    HW264874  10.449   3.598   4.353  0.1110 -1.6964  0.7631
19852SOL     OW64875   2.837   6.558   0.925 -0.2483 -0.2407 -0.2759
19852SOL    HW164876   2.836   6.641   0.877 -0.4015 -0.2673 -0.3199
19852SOL    HW264877   2.795   6.579   1.008 -2.5981 -0.8264 -1.2255
19853SOL     OW64878   1.016   9.572   7.125 -0.0712 -0.4728 -0.2796
19853SOL    HW164879   1.040   9.482   7.104 -0.1796 -0.0767 -2.3775
19853SOL    HW264880   0.937   9.589   7.073 -0.3591  0.6619  0.4832
19854SOL     OW64881  11.187   1.259   9.135 -0.2758  0.3690 -0.1272
19854SOL    HW164882  11.212   1.193   9.069  0.1309  0.9449 -0.5582
19854SOL    HW264883  11.266   1.311   9.147 -0.6303  0.8442  0.1317
19855SOL     OW64884   5.884  11.602   7.703 -0.2066 -0.1472 -0.1116
19855SOL    HW164885   5.876  11.681   7.648 -0.2519  0.5464  0.8633
19855SOL    HW264886   5.938  11.543   7.651  1.4225  1.2493 -0.0898
19856SOL     OW64887   2.685   0.969   2.006  0.1903 -0.5982 -0.5473
19856SOL    HW164888   2.706   0.980   2.099  1.3297  1.6977 -1.0003
19856SOL    HW264889   2.611   1.029   1.992  1.4620  0.8018 -1.5398
19857SOL     OW64890   6.866   1.191   3.049  0.5101  0.2321  0.0982
19857SOL    HW164891   6.822   1.209   3.132  2.0778  0.3419  0.9447
19857SOL    HW264892   6.795   1.187   2.985 -0.6752  0.8497  1.3131
19858SOL     OW64893   8.799   5.025   8.905  0.2609 -0.0033  0.7808
19858SOL    HW164894   8.803   5.120   8.895 -1.1014  0.0507  0.5262
19858SOL    HW264895   8.843   5.007   8.988  0.5347  0.8475  0.8255
19859SOL     OW64896   9.025   8.992   6.213  0.3843 -0.3721  0.1368
19859SOL    HW164897   9.034   9.074   6.165  0.0015 -0.5164 -0.1853
19859SOL    HW264898   9.088   9.000   6.285  0.1394  0.3220  0.2825
19860SOL     OW64899   1.274   9.301   5.681 -0.1124  0.2639  0.2125
19860SOL    HW164900   1.249   9.260   5.598 -0.9217  0.3430  0.4026
19860SOL    HW264901   1.195   9.295   5.735  0.3341  0.4220  0.8953
19861SOL     OW64902   9.189  11.704  11.744 -0.0901  0.0779 -0.2949
19861SOL    HW164903   9.281  11.723  11.764  0.3346 -1.3383 -0.7398
19861SOL    HW264904   9.168  11.762  11.671  0.4394  0.4423 -0.1634
19862SOL     OW64905  11.097  11.774   4.503  0.1470  0.3527 -0.2960
19862SOL    HW164906  11.049  11.721   4.566 -0.8037  1.2454 -0.2333
19862SOL    HW264907  11.119  11.714   4.432  2.8136 -1.1443  1.5974
19863SOL     OW64908   6.822   1.182   9.030  0.1605 -0.2933  0.3719
19863SOL    HW164909   6.828   1.090   9.005 -0.8484 -0.3022  0.1319
19863SOL    HW264910   6.748   1.216   8.980  1.5791  1.1002 -0.8455
19864SOL     OW64911   1.328   1.193   4.124  0.5019  0.5762  0.0005
19864SOL    HW164912   1.308   1.284   4.101  1.5338  0.5823 -0.9552
19864SOL    HW264913   1.248   1.144   4.103 -0.6029  1.4439  1.9121
19865SOL     OW64914   3.280   6.677   8.042 -0.0906  0.7762  0.1863
19865SOL    HW164915   3.340   6.742   8.079 -0.7139  0.3041  2.1212
19865SOL    HW264916   3.219   6.657   8.113 -0.4868 -1.2370 -0.6523
19866SOL     OW64917   8.735   9.808  11.065 -0.0508 -0.1749 -0.5610
19866SOL    HW164918   8.687   9.763  11.134 -0.4951 -0.2307 -0.9020
19866SOL    HW264919   8.814   9.840  11.108  0.2232 -1.1899 -0.2964
19867SOL     OW64920   0.201   1.433   8.185  0.3476  0.1183 -0.0665
19867SOL    HW164921   0.279   1.471   8.145 -0.1113 -0.2117 -1.3040
19867SOL    HW264922   0.136   1.431   8.115 -0.2096 -1.2691  0.4541
19868SOL     OW64923   6.561   9.609   9.210 -0.1304  0.2071 -0.0569
19868SOL    HW164924   6.469   9.635   9.208  0.3960  2.3024 -2.2341
19868SOL    HW264925   6.570   9.558   9.290 -3.0769  0.2750  0.4320
19869SOL     OW64926  10.331   6.211  10.557 -0.1247  0.0109 -0.6172
19869SOL    HW164927  10.360   6.178  10.642 -0.9585 -0.0451 -0.3426
19869SOL    HW264928  10.389   6.168  10.493  1.4526  1.1269 -0.0145
19870SOL     OW64929   9.741   9.368   0.362 -0.5436  0.3176  0.5919
19870SOL    HW164930   9.745   9.272   0.357  0.8700  0.3302  0.9833
19870SOL    HW264931   9.700   9.386   0.447  0.4803  0.0327  1.1673
19871SOL     OW64932   5.145  11.602   7.322  0.6196 -0.2840  0.2224
19871SOL    HW164933   5.185  11.550   7.392  0.8246  1.6945  1.6896
19871SOL    HW264934   5.220  11.637   7.273  0.4714 -2.0807 -1.4025
19872SOL     OW64935  10.846   4.656   6.597 -0.6027  0.7109 -1.0832
19872SOL    HW164936  10.912   4.633   6.531 -1.9180 -1.2133 -1.8132
19872SOL    HW264937  10.846   4.752   6.598  0.7432  0.7737 -2.5556
19873SOL     OW64938   8.757   5.168   8.421 -0.2307  0.1790  0.0412
19873SOL    HW164939   8.815   5.142   8.492 -0.5701 -0.5284  0.0684
19873SOL    HW264940   8.769   5.100   8.354 -1.7145 -0.5145  0.4332
19874SOL     OW64941  10.664  10.573  11.382  0.0283 -0.9873  0.1955
19874SOL    HW164942  10.625  10.572  11.470 -1.2032  0.8709 -0.2720
19874SOL    HW264943  10.636  10.490  11.343  0.2753 -1.6728  1.4142
19875SOL     OW64944   3.863   6.585   1.668 -0.0979  0.0063  0.8071
19875SOL    HW164945   3.851   6.660   1.609  2.8873 -1.0139 -1.3541
19875SOL    HW264946   3.942   6.606   1.718  1.4885 -2.0768 -0.6670
19876SOL     OW64947   0.214   3.195   2.390 -0.0407 -0.2376  0.2508
19876SOL    HW164948   0.239   3.194   2.298 -0.3379 -1.7404  0.1650
19876SOL    HW264949   0.173   3.280   2.403  1.2981  0.5814 -0.6304
19877SOL     OW64950   2.720   1.385   9.509 -0.3234  0.6765  0.5897
19877SOL    HW164951   2.762   1.313   9.555 -0.1283  0.5556  0.2221
19877SOL    HW264952   2.740   1.463   9.563 -0.5180  0.4642  0.9734
19878SOL     OW64953  11.474   0.709   7.773  0.3465 -0.0403  0.4145
19878SOL    HW164954  11.491   0.626   7.730  0.1463 -1.1295  2.3158
19878SOL    HW264955  11.378   0.714   7.779  0.3539  0.3724  0.2244
19879SOL     OW64956   2.258   5.596   2.314 -0.3114  0.4305 -0.2993
19879SOL    HW164957   2.329   5.579   2.376  0.8723  0.7026 -1.5342
19879SOL    HW264958   2.191   5.531   2.335  0.1117  0.4433  1.1694
19880SOL     OW64959   7.494   4.810   7.455  0.0766  0.1170  0.3212
19880SOL    HW164960   7.499   4.802   7.360  1.0886  1.7427  0.2028
19880SOL    HW264961   7.518   4.723   7.487  0.6846 -0.1942 -0.9088
19881SOL     OW64962   5.912  10.132   5.475 -0.5032  0.5271  0.1324
19881SOL    HW164963   5.831  10.182   5.471 -0.5299  0.8009  2.4578
19881SOL    HW264964   5.950  10.155   5.560  2.0863  0.4943 -0.9203
19882SOL     OW64965   2.796   3.793  10.984  0.4656  0.1309 -0.2648
19882SOL    HW164966   2.847   3.829  10.911  1.1899  0.4586  0.3837
19882SOL    HW264967   2.726   3.857  10.998  1.2223  0.8676  0.2974
19883SOL     OW64968   2.731   7.229   0.019  0.4078  0.1970  0.2502
19883SOL    HW164969   2.753   7.228   0.112 -0.4459 -0.9092  0.4644
19883SOL    HW264970   2.814   7.214  -0.026  0.5397 -1.3329  0.9393
19884SOL     OW64971   1.910   3.444   7.668  0.0822 -0.3401 -0.5732
19884SOL    HW164972   1.831   3.485   7.705  0.2439 -1.4526  1.1424
19884SOL    HW264973   1.885   3.352   7.655  1.8891 -1.5635  3.0613
19885SOL     OW64974   5.753   7.370   9.979  0.1853  0.5013  0.3705
19885SOL    HW164975   5.688   7.300   9.984  1.1958 -0.4783  0.1224
19885SOL    HW264976   5.721   7.437  10.040 -1.6947  0.6204 -0.6631
19886SOL     OW64977   0.848   7.523   9.115  0.8363  0.1661  0.7228
19886SOL    HW164978   0.899   7.598   9.087  0.3230  0.5987  0.9191
19886SOL    HW264979   0.826   7.541   9.206  0.4968 -0.0986  0.6970
19887SOL     OW64980  11.369  10.042   1.046  0.2014  0.0598 -0.3824
19887SOL    HW164981  11.442   9.981   1.060 -0.4078 -0.3664  1.1142
19887SOL    HW264982  11.329  10.013   0.964  2.1333  0.7731 -1.6741
19888SOL     OW64983   1.182   9.155   9.785 -0.8890 -0.3655 -0.2087
19888SOL    HW164984   1.175   9.126   9.876 -1.9991  0.4663 -0.0036
19888SOL    HW264985   1.105   9.117   9.742 -0.3246 -0.8297 -0.8448
19889SOL     OW64986   9.819   3.721  11.671  0.5748  0.3061 -0.9662
19889SOL    HW164987   9.860   3.774  11.603  0.3987  0.2162 -1.1435
19889SOL    HW264988   9.749   3.777  11.706  0.6267  0.3297 -0.9003
19890SOL     OW64989   6.014   1.728   6.647 -0.0431 -0.5832 -0.0990
19890SOL    HW164990   5.977   1.692   6.727  0.0910 -1.5986 -0.4781
19890SOL    HW264991   6.018   1.653   6.587 -0.2307  0.1709 -1.0835
19891SOL     OW64992  11.351   6.889   2.123 -0.0255  0.0459  0.0119
19891SOL    HW164993  11.439   6.852   2.123  0.1036  0.1475  2.8397
19891SOL    HW264994  11.317   6.870   2.210 -3.2486 -0.8944 -1.2837
19892SOL     OW64995  10.986   1.315   7.625 -0.3624  0.8774  0.3751
19892SOL    HW164996  11.044   1.264   7.681 -2.6507 -0.7677  1.3997
19892SOL    HW264997  10.936   1.369   7.686 -1.2950  0.7723 -0.2807
19893SOL     OW64998  11.654   3.641   1.717 -0.1167 -0.5650 -0.3128
19893SOL    HW164999  11.584   3.692   1.757  0.6513 -0.6056  1.1587
19893SOL    HW265000  11.610   3.567   1.677 -0.9278 -0.6077  0.6130
19894SOL     OW65001   9.993   3.561   6.356  0.2468 -0.4851 -0.0321
19894SOL    HW165002   9.993   3.465   6.355 -0.7929 -0.5188  1.1590
19894SOL    HW265003   9.924   3.585   6.294  0.4810 -0.5017 -0.3015
19895SOL     OW65004   5.389   2.384   7.895 -0.5279 -0.1200  0.4008
19895SOL    HW165005   5.416   2.421   7.979  1.1702 -0.2285 -0.0627
19895SOL    HW265006   5.315   2.438   7.868  0.7333  1.8092  0.5889
19896SOL     OW65007   1.632   6.097   8.287  0.5092  0.6732 -0.2496
19896SOL    HW165008   1.601   6.013   8.254  1.6498 -0.7522  2.0237
19896SOL    HW265009   1.601   6.161   8.223 -0.7547 -1.4052 -1.8558
19897SOL     OW65010   7.244  11.283  10.990  0.0743  0.2854  0.3455
19897SOL    HW165011   7.185  11.358  10.994 -1.4670 -0.7942 -0.8028
19897SOL    HW265012   7.308  11.306  10.923  0.5939  1.1847  1.1171
19898SOL     OW65013   9.755  10.305  10.251  0.3630  0.4309 -0.5669
19898SOL    HW165014   9.823  10.261  10.302  1.1323 -0.0504 -1.9666
19898SOL    HW265015   9.706  10.357  10.316 -0.9284 -2.8131  1.2825
19899SOL     OW65016   9.469   8.508   7.656 -0.0864  0.4104 -0.1956
19899SOL    HW165017   9.470   8.447   7.582  0.2222  1.0842 -0.7640
19899SOL    HW265018   9.399   8.476   7.713 -0.6451  0.1391 -1.0083
19900SOL     OW65019  10.990   1.826   4.918 -0.1102 -0.5004 -0.4392
19900SOL    HW165020  11.025   1.833   4.830  0.4385 -0.9015 -0.2623
19900SOL    HW265021  10.910   1.879   4.917  1.0549  1.3310 -0.5541
19901SOL     OW65022   1.244  11.501   9.055 -0.0883  0.3128 -0.1625
19901SOL    HW165023   1.318  11.513   8.995  0.2174  0.8789  0.3184
19901SOL    HW265024   1.173  11.551   9.016 -0.0151  0.3383 -0.2641
19902SOL     OW65025  10.554   2.479   2.007  0.2812 -0.2480 -0.4367
19902SOL    HW165026  10.633   2.479   2.060 -0.1972 -2.4511  0.3509
19902SOL    HW265027  10.490   2.527   2.059  0.2722 -1.0224  0.2800
19903SOL     OW65028   0.280   6.876   5.606  0.0212 -0.5707 -0.1853
19903SOL    HW165029   0.231   6.845   5.530  0.0297 -1.6229  0.2216
19903SOL    HW265030   0.251   6.966   5.619  0.6860 -0.0604 -1.9711
19904SOL     OW65031   9.145   5.343   8.570 -0.2063  0.4168  0.3889
19904SOL    HW165032   9.185   5.287   8.504 -1.1602  0.4632 -0.2477
19904SOL    HW265033   9.166   5.301   8.653  1.3479  0.5755  0.1016
19905SOL     OW65034   5.256   7.937   0.888  0.0633 -1.0285 -0.1114
19905SOL    HW165035   5.262   7.979   0.802 -0.7217 -2.0595 -0.6858
19905SOL    HW265036   5.264   8.010   0.950  2.6503 -0.4678 -0.9729
19906SOL     OW65037   5.972  10.807   2.320  0.0918  0.6532  0.3521
19906SOL    HW165038   6.015  10.826   2.404 -0.2745 -0.8540  0.9258
19906SOL    HW265039   5.903  10.873   2.313 -0.3265  0.3812  1.6054
19907SOL     OW65040   9.845   5.211   1.083 -0.6578 -0.0350 -0.1620
19907SOL    HW165041   9.805   5.186   1.166 -3.0349 -0.7842 -1.4555
19907SOL    HW265042   9.886   5.131   1.051 -1.2416 -0.1915 -0.5189
19908SOL     OW65043   4.477  10.801   1.223  0.0303  0.4997 -0.1588
19908SOL    HW165044   4.541  10.767   1.161 -0.0805 -1.8551  0.9215
19908SOL    HW265045   4.514  10.783   1.309 -1.4989  0.2084  0.4759
19909SOL     OW65046  11.245   4.953   6.608  0.4611  0.0648 -0.1994
19909SOL    HW165047  11.197   5.012   6.550  0.4952 -0.0997 -0.3938
19909SOL    HW265048  11.205   4.868   6.593 -0.5259  0.2662  1.0871
19910SOL     OW65049   2.442  10.871   9.840 -0.1820 -0.4075 -0.1252
19910SOL    HW165050   2.407  10.956   9.817  0.4494 -0.1479 -0.1368
19910SOL    HW265051   2.365  10.813   9.843 -0.7672  0.3953  1.0077
19911SOL     OW65052   4.119   6.747   8.889 -0.2353  0.4822  0.1732
19911SOL    HW165053   4.106   6.665   8.939 -0.0284  0.7067  0.6027
19911SOL    HW265054   4.039   6.757   8.839  0.0984 -0.4557 -0.5719
19912SOL     OW65055   0.123   7.899   7.116  0.0524  0.5486 -0.1049
19912SOL    HW165056   0.193   7.834   7.113  0.1181  0.6038  0.2577
19912SOL    HW265057   0.070   7.880   7.038  1.0419  1.1595 -0.9518
19913SOL     OW65058  10.232   1.614   2.821  0.0543 -0.1580 -0.0728
19913SOL    HW165059  10.302   1.564   2.864  0.4261 -0.3546 -0.8878
19913SOL    HW265060  10.238   1.702   2.860  2.9429  0.8442 -2.3971
19914SOL     OW65061   7.377   1.458   8.578 -0.4234 -0.4216  0.0532
19914SOL    HW165062   7.315   1.442   8.507 -0.3881  1.9312 -0.5812
19914SOL    HW265063   7.463   1.454   8.536 -0.4514  2.4366 -0.4584
19915SOL     OW65064  11.132   7.068  10.741  0.5316 -0.1724 -0.3486
19915SOL    HW165065  11.198   7.062  10.672  1.1852 -0.2169  0.2684
19915SOL    HW265066  11.179   7.104  10.816  0.0629 -1.0340  0.3775
19916SOL     OW65067   5.409   9.897   0.263 -0.1758  0.6920  0.4899
19916SOL    HW165068   5.383   9.930   0.349 -0.5446  0.5718  0.4251
19916SOL    HW265069   5.366   9.956   0.201  0.2098  0.8684  0.3880
19917SOL     OW65070   5.644  10.545   1.452  0.1356 -0.2381  0.4347
19917SOL    HW165071   5.571  10.538   1.514  0.0779 -0.2387  0.3663
19917SOL    HW265072   5.695  10.619   1.485  1.4006 -1.6656  1.8471
19918SOL     OW65073   7.905   2.050   7.521 -0.7274  0.2805 -0.0240
19918SOL    HW165074   7.954   2.008   7.450 -0.1157  2.5303 -1.0309
19918SOL    HW265075   7.819   2.067   7.483 -0.6910  0.6699  0.0605
19919SOL     OW65076   0.031   9.369   7.785  0.5480  0.1905 -0.5359
19919SOL    HW165077  -0.045   9.414   7.821  0.0917 -0.0630 -1.1475
19919SOL    HW265078   0.002   9.341   7.698  0.8974 -1.0541 -0.2704
19920SOL     OW65079   8.354   3.533   3.831  0.2470 -0.1942 -0.0590
19920SOL    HW165080   8.375   3.611   3.780  0.9454 -0.2388  0.1441
19920SOL    HW265081   8.399   3.546   3.915 -0.0197 -0.5955  0.1499
19921SOL     OW65082   9.231   2.446   7.518 -0.1379 -0.0316  0.0815
19921SOL    HW165083   9.248   2.352   7.514 -0.5128 -0.0673 -1.0302
19921SOL    HW265084   9.208   2.470   7.428  0.2050  1.1734  0.3032
19922SOL     OW65085   0.093  10.937   3.801  0.5602 -0.1529 -0.1650
19922SOL    HW165086   0.132  10.886   3.872 -0.2142 -1.0813 -0.3871
19922SOL    HW265087   0.020  10.983   3.841  0.6869  0.0510 -0.1662
19923SOL     OW65088   8.476   0.096   1.241  0.2194 -0.2928 -0.4565
19923SOL    HW165089   8.512   0.178   1.207 -0.7673  0.8994  1.2317
19923SOL    HW265090   8.502   0.030   1.176 -2.0987  1.8723 -3.9547
19924SOL     OW65091   8.554   3.994   7.265  0.6246  0.2591 -0.1017
19924SOL    HW165092   8.476   3.966   7.216 -0.0543 -0.5169  1.3616
19924SOL    HW265093   8.620   4.009   7.198 -0.5024 -0.0035 -1.3128
19925SOL     OW65094   7.290   0.041   1.254 -0.7867  0.2324 -0.7993
19925SOL    HW165095   7.349   0.115   1.237 -1.5108  1.2859  0.9747
19925SOL    HW265096   7.209   0.082   1.284 -0.7614 -1.2724  1.5316
19926SOL     OW65097   3.755   7.321   8.067 -0.0161  0.3843 -0.9476
19926SOL    HW165098   3.674   7.292   8.108 -0.3360  1.1385 -1.0484
19926SOL    HW265099   3.823   7.269   8.110 -0.5620 -0.3754 -0.9814
19927SOL     OW65100   6.360   4.077   9.001  0.4240  0.5026  0.0074
19927SOL    HW165101   6.434   4.085   8.941  1.2528  1.6262  1.0972
19927SOL    HW265102   6.287   4.119   8.956  1.1093  1.6033 -0.1164
19928SOL     OW65103   1.620   2.457  11.334  0.0040  0.7214 -0.4015
19928SOL    HW165104   1.533   2.497  11.326 -0.7480 -0.8277 -0.2959
19928SOL    HW265105   1.610   2.393  11.404  0.6126 -0.9741 -1.7904
19929SOL     OW65106   9.983  10.435   5.782  0.2632 -0.1341 -0.2617
19929SOL    HW165107   9.952  10.345   5.789  0.5290 -0.3080 -1.2394
19929SOL    HW265108   9.902  10.487   5.778  0.0704 -0.1225  2.2316
19930SOL     OW65109  11.174   5.515  10.605 -0.0840  0.0689  0.3085
19930SOL    HW165110  11.189   5.428  10.569  0.1259  0.3355 -0.2540
19930SOL    HW265111  11.101   5.503  10.666  0.0226 -0.5210  0.3283
19931SOL     OW65112   2.616   8.783   2.055 -0.2847 -0.0904  0.1332
19931SOL    HW165113   2.528   8.756   2.082 -0.3060  0.5839  0.7941
19931SOL    HW265114   2.667   8.780   2.136  0.0161  0.6123 -0.0257
19932SOL     OW65115   9.870   6.512   1.610 -0.1726  0.5665 -0.3440
19932SOL    HW165116   9.792   6.565   1.595  1.4813  3.1153 -0.7015
19932SOL    HW265117   9.890   6.473   1.526 -0.8469  0.2253 -0.3459
19933SOL     OW65118   3.181   9.826   4.588  0.2385  0.2175  0.5980
19933SOL    HW165119   3.272   9.815   4.560  0.2705 -1.2902  1.2224
19933SOL    HW265120   3.147   9.895   4.530  1.2925 -0.3409 -0.7526
19934SOL     OW65121   1.588   7.242   2.759 -0.1590 -0.1535  0.1421
19934SOL    HW165122   1.583   7.307   2.688 -0.1256  0.1952  0.4579
19934SOL    HW265123   1.500   7.238   2.795 -0.3423 -0.8387 -0.3624
19935SOL     OW65124   1.581   9.503   1.915 -0.1904 -0.2655  0.1800
19935SOL    HW165125   1.565   9.465   1.829  2.4292 -0.6792 -0.2147
19935SOL    HW265126   1.632   9.582   1.897 -0.2883  0.0688  1.3163
19936SOL     OW65127  11.517  10.995  10.638 -0.3742 -0.4622  0.2427
19936SOL    HW165128  11.446  10.986  10.575 -0.0964 -2.0283  0.1166
19936SOL    HW265129  11.587  10.940  10.603  1.0757  1.3277  0.1632
19937SOL     OW65130   7.370   3.476   9.802 -0.1965  0.5023 -0.2648
19937SOL    HW165131   7.363   3.549   9.864 -1.2603  1.1693 -1.1229
19937SOL    HW265132   7.310   3.499   9.731  1.3337 -0.0030 -1.7964
19938SOL     OW65133  10.856   6.984   9.835 -0.0746 -0.1650 -0.3441
19938SOL    HW165134  10.948   7.004   9.848 -0.4718  1.5482  0.1920
19938SOL    HW265135  10.835   6.921   9.904 -0.2437  2.7037  2.4691
19939SOL     OW65136   1.466   0.348  11.166 -0.0195 -0.4117  0.3032
19939SOL    HW165137   1.523   0.413  11.208 -0.6998  0.5643 -0.2515
19939SOL    HW265138   1.525   0.298  11.109  0.3494  0.3060  0.0461
19940SOL     OW65139   1.415  10.991   9.427  0.0814 -0.3602  0.6426
19940SOL    HW165140   1.447  11.062   9.482 -1.2760 -0.6811  1.8883
19940SOL    HW265141   1.445  10.911   9.471 -1.1179 -0.6209  1.0145
19941SOL     OW65142   4.407   8.279  10.291 -0.6863  0.3247  0.6124
19941SOL    HW165143   4.493   8.280  10.333 -0.9230 -0.7346  1.1417
19941SOL    HW265144   4.375   8.190  10.302 -2.1527  0.8607  1.0231
19942SOL     OW65145   7.031   5.880   6.412  0.2636 -0.3132  0.2293
19942SOL    HW165146   7.026   5.969   6.446  1.2994 -0.5428  1.0229
19942SOL    HW265147   7.016   5.824   6.488  1.5497 -0.8256  0.1239
19943SOL     OW65148  11.018  10.090   5.024 -0.3817  0.1714 -0.0129
19943SOL    HW165149  11.079  10.034   4.977 -0.1516  0.6631 -0.3008
19943SOL    HW265150  11.025  10.176   4.982 -1.5562  0.1418 -0.3050
19944SOL     OW65151   1.209   4.086   6.026  0.3884  0.0863  0.3239
19944SOL    HW165152   1.217   4.166   6.079  1.5728 -0.7781  1.5132
19944SOL    HW265153   1.126   4.047   6.054 -0.2092  0.8965 -0.2848
19945SOL     OW65154   5.647   3.782   8.789 -0.2830  0.1544  0.4500
19945SOL    HW165155   5.737   3.751   8.779 -0.4587 -0.5262  0.9279
19945SOL    HW265156   5.616   3.741   8.870 -0.9086  0.6581  0.4729
19946SOL     OW65157  11.476  11.825   8.692 -0.0739  0.4862 -0.1550
19946SOL    HW165158  11.517  11.743   8.667 -0.7877 -1.1905  3.4644
19946SOL    HW265159  11.542  11.869   8.746 -0.3719  1.4086 -0.5234
19947SOL     OW65160  11.514   5.936   3.425 -0.0306  0.4272 -0.0184
19947SOL    HW165161  11.609   5.939   3.427 -0.0366  2.7347 -0.3693
19947SOL    HW265162  11.489   6.012   3.373 -2.1046  1.3721  2.1838
19948SOL     OW65163   6.445   5.941   5.240 -0.4413  0.1431  0.0887
19948SOL    HW165164   6.513   5.892   5.286 -1.0413  0.3095  1.1949
19948SOL    HW265165   6.401   5.876   5.185 -0.9140 -0.4842  1.1758
19949SOL     OW65166  10.556   4.866   6.866  0.2267 -0.2491 -0.0045
19949SOL    HW165167  10.628   4.929   6.861  0.7028 -0.8370 -0.7101
19949SOL    HW265168  10.514   4.871   6.780  1.4653 -2.2548 -0.8029
19950SOL     OW65169   0.482   2.502   9.810 -0.1163  0.2222 -0.3229
19950SOL    HW165170   0.534   2.530   9.735  0.7945  0.1384  0.2505
19950SOL    HW265171   0.544   2.505   9.884 -1.8791  4.0738  1.2484
19951SOL     OW65172   4.608   7.797   3.812  0.6454  0.3078  0.5781
19951SOL    HW165173   4.694   7.778   3.849  0.2249 -1.7765  0.6419
19951SOL    HW265174   4.623   7.805   3.718  0.6295 -3.0937  0.1349
19952SOL     OW65175   1.234   7.982   4.162 -0.0619 -0.4022  0.1172
19952SOL    HW165176   1.301   8.036   4.120 -0.6772  0.0261 -0.3164
19952SOL    HW265177   1.283   7.930   4.227  0.4625  1.1647  1.0415
19953SOL     OW65178   7.040   0.892   6.011 -0.1900 -0.2393  0.0161
19953SOL    HW165179   6.956   0.846   6.006 -0.3867  0.1600 -0.3932
19953SOL    HW265180   7.080   0.880   5.925  0.8715 -1.7043  0.6655
19954SOL     OW65181   3.662   7.149   9.551  0.2174 -0.0061  0.1855
19954SOL    HW165182   3.567   7.140   9.561  0.1631  0.2891 -0.0594
19954SOL    HW265183   3.675   7.165   9.458  0.4498  0.6924  0.3322
19955SOL     OW65184   7.820   4.236  11.599 -0.3457  0.1775 -0.1651
19955SOL    HW165185   7.805   4.207  11.689 -1.9603  0.2540 -0.3776
19955SOL    HW265186   7.807   4.157  11.546 -0.2472  0.3117 -0.3918
19956SOL     OW65187   3.359  11.334   0.468  0.2124 -0.2976 -0.2156
19956SOL    HW165188   3.375  11.383   0.388 -0.5613  0.7963  0.2826
19956SOL    HW265189   3.269  11.355   0.492  0.4114 -0.6490  0.9105
19957SOL     OW65190   1.521   4.980   9.455 -0.1510  0.6063  0.3072
19957SOL    HW165191   1.465   4.910   9.488  0.6330  0.2603  0.9295
19957SOL    HW265192   1.577   5.003   9.529  1.1470  0.3165 -0.5512
19958SOL     OW65193   3.868   4.078   1.146 -0.3670  0.3019 -0.0115
19958SOL    HW165194   3.940   4.097   1.206  0.0924 -0.5474 -0.2874
19958SOL    HW265195   3.793   4.059   1.203  0.3764 -1.7674  0.3471
19959SOL     OW65196   8.026   4.478   0.728  0.0748 -0.2643  0.1143
19959SOL    HW165197   8.038   4.432   0.645  1.0302  1.0171 -0.4936
19959SOL    HW265198   7.944   4.442   0.763  0.0209 -1.3384 -1.0267
19960SOL     OW65199   8.342   8.130   3.187 -0.2866  0.2153  0.2786
19960SOL    HW165200   8.435   8.112   3.201 -0.4868  0.5852  2.4160
19960SOL    HW265201   8.336   8.225   3.183 -0.6054  0.2076  0.5064
19961SOL     OW65202   8.813   5.721   0.210  0.1170  0.2484 -0.3408
19961SOL    HW165203   8.752   5.648   0.205 -0.5912  0.8827 -1.5710
19961SOL    HW265204   8.809   5.750   0.301 -0.7648 -0.2635 -0.2029
19962SOL     OW65205   2.039   2.554   9.152 -0.3990 -0.4890  0.0998
19962SOL    HW165206   2.056   2.464   9.125 -2.2893 -0.4480 -1.4542
19962SOL    HW265207   1.961   2.548   9.207  0.3683  0.0561  1.2821
19963SOL     OW65208   4.871  11.159   5.123 -0.0104  0.5264 -0.1843
19963SOL    HW165209   4.894  11.140   5.032 -1.0213  0.4030 -0.4291
19963SOL    HW265210   4.775  11.169   5.122 -0.1830 -0.7082  1.0845
19964SOL     OW65211   2.181   7.401   8.147  0.7719  0.5852 -0.0911
19964SOL    HW165212   2.198   7.494   8.133 -0.6896  1.0217  0.7928
19964SOL    HW265213   2.205   7.359   8.065 -0.8810  2.0666 -1.3920
19965SOL     OW65214   1.813   4.188   7.676  0.4496  0.3780  0.3153
19965SOL    HW165215   1.786   4.130   7.605  0.6679  0.6662 -0.0074
19965SOL    HW265216   1.800   4.136   7.755  2.8908 -1.0204 -0.0951
19966SOL     OW65217   9.405   8.665  10.900  0.2045  0.3164 -0.0974
19966SOL    HW165218   9.334   8.725  10.921 -1.7386 -1.8017 -0.2480
19966SOL    HW265219   9.414   8.670  10.805 -1.0901 -0.7680 -0.3021
19967SOL     OW65220   6.045   7.730   1.234  0.5223  0.7813  0.2300
19967SOL    HW165221   6.077   7.675   1.162  2.9204  0.8134  1.1714
19967SOL    HW265222   5.969   7.683   1.267  0.3932 -0.1194 -1.2397
19968SOL     OW65223   2.090   2.619  10.336 -0.5280  0.4692 -0.5960
19968SOL    HW165224   2.172   2.573  10.354 -0.6738  0.6533  0.6197
19968SOL    HW265225   2.024   2.570  10.386 -1.0851  0.5929 -1.2026
19969SOL     OW65226   7.986  10.767  11.337 -0.1872  0.0394 -0.1461
19969SOL    HW165227   7.944  10.703  11.280  1.0375 -0.6066 -0.3702
19969SOL    HW265228   8.048  10.715  11.389  1.0705  1.0600 -0.5613
19970SOL     OW65229   3.492   5.613   0.717 -0.1437 -0.0892  0.7451
19970SOL    HW165230   3.461   5.704   0.724  1.7488  0.6882 -0.2077
19970SOL    HW265231   3.526   5.607   0.628 -0.5908 -1.8961  0.6590
19971SOL     OW65232   4.588   0.572   1.463 -0.1603  0.2106 -0.1844
19971SOL    HW165233   4.670   0.542   1.502 -1.2579  0.6834  2.7337
19971SOL    HW265234   4.601   0.665   1.446  0.4808 -0.0936 -1.5284
19972SOL     OW65235   0.722   7.081   0.572  0.2027 -0.0621  0.2659
19972SOL    HW165236   0.808   7.044   0.596 -0.3726 -1.2000  0.6483
19972SOL    HW265237   0.670   7.005   0.547  0.0658  0.8223 -2.5296
19973SOL     OW65238  11.701   1.232   6.024 -0.8359 -0.1750 -0.1027
19973SOL    HW165239  11.737   1.144   6.037 -2.0792 -0.5932  0.7149
19973SOL    HW265240  11.608   1.222   6.043 -1.4246  0.8377 -2.2310
19974SOL     OW65241   9.264   0.170   8.530  0.8480  0.1594  0.2016
19974SOL    HW165242   9.322   0.197   8.458  1.4369 -1.1252  0.1534
19974SOL    HW265243   9.317   0.184   8.609  0.2366  1.4772  0.3962
19975SOL     OW65244   5.629   7.580   5.215  0.2426  0.4582  0.3083
19975SOL    HW165245   5.565   7.549   5.150  0.2002  3.0817 -1.0634
19975SOL    HW265246   5.702   7.518   5.207 -1.6362 -2.0542  1.2341
19976SOL     OW65247  10.437   2.604   4.299  0.5439  0.1657  0.0739
19976SOL    HW165248  10.457   2.512   4.283  0.2244 -0.5006  2.9149
19976SOL    HW265249  10.358   2.602   4.354  0.6198  2.1301  0.3197
19977SOL     OW65250  10.741  11.741   4.800 -1.1561  0.6553 -0.5216
19977SOL    HW165251  10.654  11.737   4.839 -0.6494  0.0313  0.5917
19977SOL    HW265252  10.731  11.798   4.724 -3.0379 -1.1134 -1.7232
19978SOL     OW65253  11.079   4.651   9.614  0.2241  1.0990  0.6705
19978SOL    HW165254  11.052   4.614   9.698  1.8793 -1.6632  0.0857
19978SOL    HW265255  11.020   4.725   9.601 -1.8544 -0.0122  2.9867
19979SOL     OW65256   2.522   0.458  10.643  0.4980 -0.3090 -0.2655
19979SOL    HW165257   2.492   0.456  10.734  0.9518 -0.1655 -0.1106
19979SOL    HW265258   2.496   0.545  10.612 -2.2916 -1.3572 -1.1941
19980SOL     OW65259   6.219   2.244   8.519 -0.0572  0.5431 -0.0508
19980SOL    HW165260   6.199   2.330   8.556  0.1405  0.0114  1.3499
19980SOL    HW265261   6.133   2.203   8.507 -0.0764 -0.0222  1.7277
19981SOL     OW65262   8.082  10.780   7.972 -0.2097  0.2289  0.2931
19981SOL    HW165263   8.085  10.748   8.062  0.5031  0.0514  0.2085
19981SOL    HW265264   8.049  10.870   7.980 -0.7917 -0.0081  0.6640
19982SOL     OW65265   3.959  11.547   9.359 -0.5239 -0.3266  0.2042
19982SOL    HW165266   4.010  11.558   9.439  0.3501  0.1141 -0.3892
19982SOL    HW265267   4.006  11.600   9.294 -1.0001 -0.9757 -0.6863
19983SOL     OW65268   4.097   8.066   3.841  0.0217  0.0425 -0.1449
19983SOL    HW165269   4.037   8.114   3.783  1.0811  1.2670 -0.2780
19983SOL    HW265270   4.115   7.985   3.794  1.4867  1.3499 -2.0025
19984SOL     OW65271   9.634   3.636   8.459 -0.0695  0.1000  0.3822
19984SOL    HW165272   9.621   3.701   8.390 -0.1752 -1.2078 -0.8730
19984SOL    HW265273   9.666   3.687   8.534 -1.0702  1.7233 -0.2327
19985SOL     OW65274  11.713   7.906   1.739 -0.0827 -0.5684  0.1194
19985SOL    HW165275  11.663   7.847   1.683  2.3404 -2.5355 -0.1697
19985SOL    HW265276  11.777   7.849   1.782  2.2149  1.7828  0.0870
19986SOL     OW65277   8.810   3.330   8.828  0.3537 -0.1919 -0.0307
19986SOL    HW165278   8.730   3.280   8.842 -0.0459  0.9055  2.1885
19986SOL    HW265279   8.878   3.264   8.816 -0.8901 -1.1401 -2.4800
19987SOL     OW65280   4.314   1.840  10.409  0.0801 -0.0672  0.0240
19987SOL    HW165281   4.293   1.748  10.391  0.6281 -0.3140  0.5775
19987SOL    HW265282   4.399   1.836  10.452  0.4550  0.7649 -0.6193
19988SOL     OW65283   0.581  11.751   3.696 -0.1431  0.0866  0.1607
19988SOL    HW165284   0.536  11.729   3.778  0.1823 -0.3493  0.2258
19988SOL    HW265285   0.592  11.846   3.700  3.1035 -0.2152  2.3384
19989SOL     OW65286   8.342   8.738   8.006  0.5503 -0.2222  0.1809
19989SOL    HW165287   8.370   8.741   7.915  1.0305 -1.6839  0.2544
19989SOL    HW265288   8.253   8.772   8.005  0.4447 -0.5024 -0.8841
19990SOL     OW65289   9.531   9.382   4.373  0.3178  0.1846  0.0970
19990SOL    HW165290   9.589   9.387   4.297 -0.0607  0.4151 -0.1786
19990SOL    HW265291   9.447   9.351   4.338  0.3611 -0.4604  0.5464
19991SOL     OW65292   0.192   5.223  10.268  0.1594  0.1844 -0.3399
19991SOL    HW165293   0.231   5.236  10.181  0.5139 -0.1906 -0.2411
19991SOL    HW265294   0.261   5.181  10.319 -1.0233 -2.4266 -0.7456
19992SOL     OW65295   4.650  10.928  10.750  0.8886  0.4443 -0.0382
19992SOL    HW165296   4.653  11.019  10.780  1.6118  0.9077 -1.4328
19992SOL    HW265297   4.588  10.929  10.678  0.4312 -0.3154  0.3346
19993SOL     OW65298   8.289   1.008   8.654  0.0670 -0.0942 -0.9443
19993SOL    HW165299   8.352   1.033   8.721 -0.5257  0.6008 -0.6312
19993SOL    HW265300   8.296   0.913   8.649 -0.0302 -0.1778  0.2655
19994SOL     OW65301   6.859   0.440   0.144 -0.3441  0.1959 -0.1279
19994SOL    HW165302   6.810   0.488   0.076  1.1710  2.8114  0.4795
19994SOL    HW265303   6.951   0.453   0.121  0.2112  1.0610  2.2991
19995SOL     OW65304   9.127   3.344   7.632  0.1971 -0.0939  0.1950
19995SOL    HW165305   9.063   3.329   7.562  0.6007  0.7853 -0.3712
19995SOL    HW265306   9.154   3.435   7.622  1.7048 -0.4986  0.2865
19996SOL     OW65307   6.597   2.448   8.370  0.4492 -0.4695  0.0349
19996SOL    HW165308   6.595   2.515   8.301 -0.1555 -1.9361 -1.4325
19996SOL    HW265309   6.517   2.465   8.421 -0.9899 -1.4372 -1.7596
19997SOL     OW65310   7.734   2.654   4.165  0.1070  0.3583 -0.2259
19997SOL    HW165311   7.800   2.592   4.133 -0.2681 -0.4266  0.5011
19997SOL    HW265312   7.756   2.668   4.257 -0.1979  0.8096 -0.2177
19998SOL     OW65313   9.552   1.372   5.660  0.0863  0.7863 -0.0650
19998SOL    HW165314   9.550   1.305   5.729 -1.9416  0.3470 -0.4885
19998SOL    HW265315   9.578   1.452   5.705 -0.1359  0.2818  1.0057
19999SOL     OW65316   4.784   3.469   3.122  0.2891 -0.2798 -0.5803
19999SOL    HW165317   4.812   3.447   3.211  0.8790 -1.1166 -0.9596
19999SOL    HW265318   4.845   3.537   3.094  0.8379 -0.8396 -0.7586
20000SOL     OW65319   6.958   5.345   5.837 -0.4213 -0.3283 -0.3026
20000SOL    HW165320   7.033   5.370   5.891 -1.8897  3.4986  0.2996
20000SOL    HW265321   6.895   5.308   5.899 -0.6863  0.6337  0.0250
20001SOL     OW65322   5.560   1.968   0.120  0.1404  0.3179  0.6835
20001SOL    HW165323   5.476   1.947   0.161 -0.0798 -0.9257 -0.3507
20001SOL    HW265324   5.625   1.938   0.183 -0.1986 -0.3764  0.7118
20002SOL     OW65325   7.688   9.045   5.655 -0.0106 -0.4883 -0.3145
20002SOL    HW165326   7.619   9.108   5.673  0.4516  0.2683 -1.1044
20002SOL    HW265327   7.656   8.994   5.581  0.3164 -0.0608 -0.7556
20003SOL     OW65328   2.987   8.174   9.950  0.5853  0.3771 -0.2547
20003SOL    HW165329   2.996   8.160  10.044  0.6989  0.7911 -0.2032
20003SOL    HW265330   2.902   8.134   9.928 -0.2021  1.6884  0.3161
20004SOL     OW65331  10.163   4.543   2.409 -0.2462 -0.1764 -0.1708
20004SOL    HW165332  10.228   4.472   2.412 -2.4720 -2.4183 -1.2895
20004SOL    HW265333  10.141   4.551   2.316  0.0615  2.2029 -0.1021
20005SOL     OW65334   1.500   8.702   9.209  0.2301  0.6477 -0.2246
20005SOL    HW165335   1.469   8.623   9.252 -1.4575  1.4008  0.0374
20005SOL    HW265336   1.592   8.685   9.189 -0.0388 -1.2649  0.0319
20006SOL     OW65337   9.302   8.525   4.391 -0.0409 -0.6365  0.3497
20006SOL    HW165338   9.350   8.601   4.423  2.1422 -1.4230 -0.9183
20006SOL    HW265339   9.339   8.451   4.440 -0.1412 -1.2377 -0.4712
20007SOL     OW65340   0.329   6.662   0.137 -0.6597  0.0977 -0.2411
20007SOL    HW165341   0.387   6.737   0.152 -0.5582  0.3301 -1.6587
20007SOL    HW265342   0.251   6.681   0.189  0.5154 -0.2301  1.7281
20008SOL     OW65343  10.945   8.020   4.160  0.2308  0.2502 -0.1958
20008SOL    HW165344  10.990   8.006   4.076  0.6190 -1.1949  0.2180
20008SOL    HW265345  10.852   8.009   4.140  0.3475 -0.4381 -0.3765
20009SOL     OW65346   1.909  11.108   8.271 -0.3035  0.0731 -0.1120
20009SOL    HW165347   1.931  11.191   8.228  0.7096 -1.0361 -1.8122
20009SOL    HW265348   1.986  11.053   8.258 -1.1180 -1.2953  0.6473
20010SOL     OW65349   4.412   4.796   7.729  0.0089  0.6222  0.1385
20010SOL    HW165350   4.503   4.801   7.757  0.4663 -1.8526 -0.6498
20010SOL    HW265351   4.385   4.887   7.719  2.7662  1.4454 -0.7499
20011SOL     OW65352   7.902  11.506   3.495  0.0693  0.6360  0.4504
20011SOL    HW165353   7.921  11.566   3.566  0.5275 -0.3098  1.1451
20011SOL    HW265354   7.861  11.430   3.537  3.8161 -1.6727  0.3544
20012SOL     OW65355   1.069   0.018   9.510  0.3414  0.0950 -0.2602
20012SOL    HW165356   1.013  -0.025   9.575  0.9203 -0.7736 -0.3089
20012SOL    HW265357   1.013   0.029   9.433  0.3913 -1.3235 -0.5235
20013SOL     OW65358   9.273   0.312   9.307  0.3258 -0.2676 -0.0144
20013SOL    HW165359   9.273   0.367   9.228 -1.4989 -1.1927 -0.7268
20013SOL    HW265360   9.365   0.289   9.320  0.8405  1.0486 -1.0385
20014SOL     OW65361   1.140   1.169   8.664  0.7166 -0.0438 -0.3019
20014SOL    HW165362   1.154   1.177   8.759  1.8356  1.1011 -0.5324
20014SOL    HW265363   1.201   1.101   8.636  2.2081  1.3209 -0.5269
20015SOL     OW65364   4.197   4.756   2.030  0.4303 -0.3365 -0.1321
20015SOL    HW165365   4.227   4.729   2.117  0.6467 -0.0727 -0.1244
20015SOL    HW265366   4.183   4.851   2.038 -0.6578 -0.4915 -0.0562
20016SOL     OW65367  11.710  11.502   3.878  0.2867  0.4928 -0.6607
20016SOL    HW165368  11.796  11.534   3.850 -0.1639  0.2686 -2.4066
20016SOL    HW265369  11.722  11.408   3.891  1.0245  0.8809  2.1690
20017SOL     OW65370   7.903   1.943   9.043  0.4810  0.0619  0.2083
20017SOL    HW165371   7.861   2.016   8.997 -2.7003 -0.4487  2.0038
20017SOL    HW265372   7.886   1.961   9.136  0.2797 -2.5480  0.7502
20018SOL     OW65373   0.120   6.034   7.077  0.1026 -0.0503 -0.4169
20018SOL    HW165374   0.032   6.065   7.056  0.5330  1.1667 -0.5574
20018SOL    HW265375   0.107   5.967   7.144 -0.9560 -0.2850 -0.8431
20019SOL     OW65376   6.824   4.770   6.595 -0.0903  0.1451 -0.1622
20019SOL    HW165377   6.881   4.718   6.538  0.4336 -0.7055  1.0859
20019SOL    HW265378   6.883   4.835   6.634  0.1186 -0.8544  1.2773
20020SOL     OW65379   4.568   1.293   3.269 -0.4791  0.2651  0.4652
20020SOL    HW165380   4.537   1.357   3.334 -1.3569  0.9194 -0.5762
20020SOL    HW265381   4.634   1.241   3.317 -1.3836  0.4547  2.0015
20021SOL     OW65382  10.024  10.457   5.162  0.6501 -0.0251  0.4691
20021SOL    HW165383   9.986  10.378   5.124 -0.1375  0.1748  0.8263
20021SOL    HW265384  10.093  10.482   5.100  0.7446 -0.8523  0.2309
20022SOL     OW65385   1.920  10.067   8.550 -0.6061 -0.3352  0.6609
20022SOL    HW165386   1.827  10.058   8.573 -0.5447 -2.1308  0.3684
20022SOL    HW265387   1.961  10.101   8.630 -1.3728 -0.4134  1.1007
20023SOL     OW65388   1.363   1.497  11.230 -0.3075 -0.3958  0.5324
20023SOL    HW165389   1.373   1.581  11.274 -1.9349  0.4400 -0.6061
20023SOL    HW265390   1.317   1.442  11.293  0.6805 -0.4413  1.2438
20024SOL     OW65391   4.055   8.348  10.843 -0.3093 -0.8138  0.2055
20024SOL    HW165392   3.986   8.404  10.877  0.3925  1.3096 -1.6385
20024SOL    HW265393   4.012   8.264  10.827 -2.0208 -0.0782  0.7619
20025SOL     OW65394   8.987   4.096   1.550  0.4380  0.2791  0.1781
20025SOL    HW165395   9.052   4.165   1.541  0.6850  0.1784  1.0374
20025SOL    HW265396   9.036   4.015   1.536  0.2566  0.2544 -0.3164
20026SOL     OW65397   9.436   1.487   1.355  0.2023 -0.2093 -0.0557
20026SOL    HW165398   9.457   1.549   1.425 -0.1533  0.9259 -0.9323
20026SOL    HW265399   9.508   1.496   1.293 -0.5881  0.4351 -0.9090
20027SOL     OW65400   0.357   0.361   9.520  0.0774 -0.4562 -0.0946
20027SOL    HW165401   0.266   0.392   9.523  0.9433  2.5810 -0.9982
20027SOL    HW265402   0.380   0.368   9.427  1.6800  0.4541  0.3373
20028SOL     OW65403   8.478   6.812  10.381  0.0773  0.0958  0.2881
20028SOL    HW165404   8.567   6.831  10.353 -0.4984  1.7819 -0.4989
20028SOL    HW265405   8.485   6.729  10.429  1.9753 -0.0237 -0.1355
20029SOL     OW65406   3.760   7.288   7.760  1.0005  0.3001  0.1387
20029SOL    HW165407   3.807   7.223   7.708 -0.9568 -0.7837 -0.4240
20029SOL    HW265408   3.672   7.250   7.771  0.0989  2.3921  0.7000
20030SOL     OW65409   0.391   7.774   4.475  0.2344 -0.0183 -0.0773
20030SOL    HW165410   0.393   7.869   4.460  0.2878 -0.3974 -3.3286
20030SOL    HW265411   0.300   7.749   4.455  0.5703 -0.7949 -0.7055
20031SOL     OW65412  10.375   1.083   7.533 -0.3620 -0.2608  0.3406
20031SOL    HW165413  10.400   1.150   7.470  0.7030  0.2927  1.3160
20031SOL    HW265414  10.379   1.127   7.618 -1.6491 -1.0159  0.8293
20032SOL     OW65415   1.712  11.252   9.102  0.3221  0.1219  0.2358
20032SOL    HW165416   1.671  11.272   9.186  0.6547  0.9518  0.2069
20032SOL    HW265417   1.704  11.333   9.051  0.8180 -0.1248 -0.2443
20033SOL     OW65418   8.599   9.649   1.291  0.1702 -0.0352  0.6854
20033SOL    HW165419   8.623   9.654   1.383  1.9971 -0.6937  0.3019
20033SOL    HW265420   8.568   9.559   1.279  4.0848 -1.4915 -0.1149
20034SOL     OW65421   9.300   7.020   0.613 -0.1691  0.5640  0.3950
20034SOL    HW165422   9.259   6.947   0.660 -0.2107  0.0596 -0.3999
20034SOL    HW265423   9.348   7.068   0.680  0.8299 -0.8827  0.7596
20035SOL     OW65424   9.048   6.721   8.196  0.5267  0.6260  0.2910
20035SOL    HW165425   8.991   6.760   8.262 -1.6084 -1.1047 -0.4134
20035SOL    HW265426   9.129   6.701   8.242 -0.0080  1.6679  1.7480
20036SOL     OW65427   5.446   0.116   6.637  0.2087  0.3333  0.6053
20036SOL    HW165428   5.448   0.021   6.650 -0.1004  0.3770  1.0244
20036SOL    HW265429   5.494   0.131   6.556  0.4718 -0.1586  0.6685
20037SOL     OW65430   7.192   7.957   6.407 -0.1417  0.4326 -0.5266
20037SOL    HW165431   7.202   7.894   6.335  1.1910  0.6495 -0.5682
20037SOL    HW265432   7.246   7.920   6.477 -2.6107 -0.5769  0.9703
20038SOL     OW65433   6.016  10.998   5.260  0.6358 -0.0765  0.0641
20038SOL    HW165434   6.044  10.939   5.330 -0.7998  1.1589  1.7800
20038SOL    HW265435   5.998  11.081   5.304 -0.4528  0.7239 -1.7598
20039SOL     OW65436   5.082   8.067   6.330 -0.5914  0.3712 -0.0395
20039SOL    HW165437   5.017   8.105   6.389 -0.7681 -2.5198  1.8150
20039SOL    HW265438   5.032   8.011   6.271 -0.0084  0.0979 -0.2837
20040SOL     OW65439   2.603   5.270  10.534 -0.8629 -0.9824  0.2735
20040SOL    HW165440   2.530   5.321  10.568  1.5987  2.4055  0.9675
20040SOL    HW265441   2.638   5.224  10.610  1.2503  2.2033  1.4038
20041SOL     OW65442  10.686   1.768  10.331  0.5095 -0.2750 -0.0076
20041SOL    HW165443  10.591   1.768  10.315  0.5237 -0.4596 -0.0939
20041SOL    HW265444  10.701   1.693  10.388  0.5042  0.1904  0.6172
20042SOL     OW65445   6.039   4.982   3.165 -0.1987 -0.7688  0.1129
20042SOL    HW165446   6.010   5.012   3.079 -1.0860  0.6707  0.8732
20042SOL    HW265447   5.998   5.042   3.227  1.7417 -0.7266  1.4724
20043SOL     OW65448   2.418   1.679   5.414 -0.1004 -0.1034 -0.3022
20043SOL    HW165449   2.371   1.633   5.484  1.5841 -2.0711 -0.3491
20043SOL    HW265450   2.446   1.761   5.454 -1.1228 -0.1736  0.5970
20044SOL     OW65451   7.808   9.615  11.330  0.0127  0.7910 -0.0504
20044SOL    HW165452   7.724   9.659  11.341 -0.7715 -0.9844  1.7281
20044SOL    HW265453   7.786   9.529  11.295  1.2246  0.7625 -0.7948
20045SOL     OW65454   8.022   0.187   9.007  0.0787  0.6866 -0.4476
20045SOL    HW165455   8.105   0.219   8.971  0.6196 -0.7210 -0.5163
20045SOL    HW265456   7.960   0.192   8.934  1.0297 -1.6272 -1.5158
20046SOL     OW65457   4.361   9.746   1.913 -0.1455 -0.3706  0.4140
20046SOL    HW165458   4.309   9.670   1.887 -0.3457 -0.3003  0.6070
20046SOL    HW265459   4.359   9.745   2.009  0.8794 -0.8324  0.4392
20047SOL     OW65460   8.499   9.034   2.106 -0.2329 -0.0828  0.5405
20047SOL    HW165461   8.535   9.073   2.186 -1.2501  0.5848  0.6934
20047SOL    HW265462   8.475   9.108   2.051  0.3368 -0.5373 -0.3556
20048SOL     OW65463   8.354  10.914   1.539  0.6186 -0.2988 -0.2606
20048SOL    HW165464   8.329  10.928   1.447  0.5192  0.8670 -0.0616
20048SOL    HW265465   8.448  10.897   1.536  0.4932 -0.9859 -0.6353
20049SOL     OW65466   4.484   4.517  10.949 -0.2528 -0.6332  0.1821
20049SOL    HW165467   4.535   4.457  10.894 -0.6412  0.6906 -1.7189
20049SOL    HW265468   4.401   4.527  10.902 -0.1507  1.4590  0.3797
20050SOL     OW65469   4.345   7.653  10.331 -0.4725  0.1831 -0.9363
20050SOL    HW165470   4.370   7.672  10.422 -1.3671 -0.0277 -0.6352
20050SOL    HW265471   4.409   7.700  10.278  1.1401 -1.1219 -0.2079
20051SOL     OW65472   7.793   0.242   1.076  0.2810 -0.3604 -1.0390
20051SOL    HW165473   7.815   0.329   1.110  0.9581  0.1039 -2.5975
20051SOL    HW265474   7.872   0.191   1.090 -0.6925 -1.3470  1.5875
20052SOL     OW65475  11.724   2.369   4.718 -0.3355 -0.0160  0.4022
20052SOL    HW165476  11.680   2.454   4.720  0.7767  0.6397 -0.9592
20052SOL    HW265477  11.654   2.305   4.731 -1.3091  1.0768  0.6649
20053SOL     OW65478   1.397   0.188   2.032  0.2523 -0.6494  0.2110
20053SOL    HW165479   1.365   0.098   2.032 -0.5620 -0.3673  0.2485
20053SOL    HW265480   1.369   0.224   2.116  1.0993 -0.5377  0.4546
20054SOL     OW65481   5.011   7.514   7.678  0.5322  0.0527  0.1297
20054SOL    HW165482   4.975   7.552   7.758  0.2868  0.6683 -0.2659
20054SOL    HW265483   5.106   7.522   7.689  0.4926  1.7314 -0.3629
20055SOL     OW65484   1.469   9.736   5.727  0.1213 -0.2012 -0.1647
20055SOL    HW165485   1.488   9.655   5.679 -1.0921 -0.9795  0.6224
20055SOL    HW265486   1.443   9.708   5.814 -1.7298  0.9211 -0.2885
20056SOL     OW65487  11.417   5.885   2.841  0.2381 -0.2241  0.0797
20056SOL    HW165488  11.327   5.887   2.871 -0.1233  0.8366 -1.0285
20056SOL    HW265489  11.411   5.885   2.745  1.4098  2.0085 -0.0591
20057SOL     OW65490   2.845   6.663   2.574  0.4559 -0.4299  0.5007
20057SOL    HW165491   2.896   6.742   2.595 -0.7154  0.2701  0.7684
20057SOL    HW265492   2.909   6.604   2.534  1.1049  1.1906 -1.0250
20058SOL     OW65493  10.051   5.088   1.307 -0.0327 -0.4296  0.2689
20058SOL    HW165494   9.964   5.050   1.299  0.3236 -1.2904  0.3048
20058SOL    HW265495  10.105   5.017   1.342  0.6829  0.0821  0.2342
20059SOL     OW65496   2.339   8.899   4.677  0.3360  0.3282  0.6376
20059SOL    HW165497   2.333   8.899   4.581  0.6535  0.6848  0.6151
20059SOL    HW265498   2.433   8.892   4.695  0.3286  0.9391  0.9139
20060SOL     OW65499   4.977   5.797   7.067  0.4036  0.3429 -0.2977
20060SOL    HW165500   5.017   5.763   7.148  1.2823 -1.1392 -1.3086
20060SOL    HW265501   5.048   5.798   7.003 -0.5299  0.4280 -1.3636
20061SOL     OW65502   0.097  11.307   1.616  0.0461  0.1663 -0.9004
20061SOL    HW165503   0.110  11.323   1.709 -0.3806 -2.2467 -0.3603
20061SOL    HW265504   0.185  11.301   1.579  0.2544 -0.6099 -0.2951
20062SOL     OW65505   2.415   6.382   1.773  0.0583 -0.2316 -0.3347
20062SOL    HW165506   2.384   6.292   1.779 -1.6214  0.2178 -1.4666
20062SOL    HW265507   2.436   6.394   1.681  0.2638  0.5300 -0.1978
20063SOL     OW65508   9.532   0.256   2.638 -0.3381  0.4719 -0.2709
20063SOL    HW165509   9.595   0.327   2.631  0.5707 -0.0870  1.5963
20063SOL    HW265510   9.462   0.280   2.577  0.2599  2.6160 -0.1912
20064SOL     OW65511   1.351   9.767  10.041  0.1906 -0.2989  0.1106
20064SOL    HW165512   1.373   9.860  10.036  0.0783 -0.3287 -2.7807
20064SOL    HW265513   1.257   9.766  10.060  0.5619  0.0647  2.2176
20065SOL     OW65514  11.276   4.154   9.952 -0.1899 -0.0798  0.7540
20065SOL    HW165515  11.282   4.123   9.861  0.8665 -1.5926  1.3094
20065SOL    HW265516  11.208   4.100   9.991  1.8605 -2.0882  1.8046
20066SOL     OW65517   6.689   3.983   4.865 -0.3159  1.3596  0.5106
20066SOL    HW165518   6.657   4.068   4.834 -0.7111  1.5725  1.4709
20066SOL    HW265519   6.754   4.005   4.932  0.5869  0.9057 -0.1810
20067SOL     OW65520   3.687  10.776   1.250  0.1561  0.1309  0.3584
20067SOL    HW165521   3.711  10.751   1.339  0.1715  1.4120  0.7346
20067SOL    HW265522   3.769  10.771   1.201  1.0255  3.0893  1.3126
20068SOL     OW65523   3.051   0.442   4.394  0.1321  0.5488 -0.1728
20068SOL    HW165524   3.003   0.524   4.404  1.2893  1.2517 -0.2096
20068SOL    HW265525   2.984   0.377   4.371 -0.5241  1.9882 -2.7678
20069SOL     OW65526   1.236   6.396   4.449 -0.6476  0.4947 -0.2109
20069SOL    HW165527   1.294   6.404   4.525  0.5343 -1.2047 -0.8723
20069SOL    HW265528   1.155   6.361   4.485  0.2629 -1.3541  0.2068
20070SOL     OW65529   6.113   6.724  10.828  0.2697 -0.4470 -0.0162
20070SOL    HW165530   6.142   6.763  10.745 -1.1243  0.2425 -0.2118
20070SOL    HW265531   6.189   6.732  10.886  0.9765 -0.1460 -0.9572
20071SOL     OW65532   0.290   8.059   4.754  0.7582 -0.8125 -0.4640
20071SOL    HW165533   0.226   8.002   4.797  1.4584 -2.2077 -1.1891
20071SOL    HW265534   0.245   8.091   4.676  0.2067  0.0282  0.1776
20072SOL     OW65535   7.839   9.221   7.205  0.2180  0.3074 -0.3907
20072SOL    HW165536   7.813   9.129   7.209 -0.8098  0.5160 -1.6347
20072SOL    HW265537   7.800   9.253   7.123  3.7296  0.8722 -2.0245
20073SOL     OW65538   3.538   5.646   0.439 -0.3151 -0.1830 -0.1510
20073SOL    HW165539   3.554   5.621   0.349 -0.0896 -0.1817 -0.1104
20073SOL    HW265540   3.550   5.741   0.441  1.9792 -0.4309  0.3606
20074SOL     OW65541   8.840   3.779   0.416 -0.2843  0.0433  0.3385
20074SOL    HW165542   8.758   3.733   0.405 -0.5025  0.3982  0.4519
20074SOL    HW265543   8.907   3.711   0.414 -0.2761 -0.0050 -2.9285
20075SOL     OW65544   8.603   8.744   6.351 -0.4754 -0.2965  0.4039
20075SOL    HW165545   8.529   8.804   6.341  0.6448  0.8961 -1.5155
20075SOL    HW265546   8.669   8.778   6.290  2.1354 -0.6073  2.8720
20076SOL     OW65547   5.347  10.206   7.765  0.2916  0.0958  0.5335
20076SOL    HW165548   5.380  10.243   7.684  0.6503 -0.6621  0.3264
20076SOL    HW265549   5.253  10.197   7.751  0.4710 -0.8435 -0.1346
20077SOL     OW65550   4.195  10.125   4.859 -0.6241  0.1971 -0.5039
20077SOL    HW165551   4.201  10.212   4.900  0.1660 -0.0822  0.0162
20077SOL    HW265552   4.244  10.068   4.919  1.1277 -0.1162 -2.1663
20078SOL     OW65553   6.775   1.361   5.321 -0.3540 -0.2164  0.0650
20078SOL    HW165554   6.734   1.439   5.357 -0.1347 -0.2621  0.4151
20078SOL    HW265555   6.829   1.393   5.248  0.0125  0.0031  0.4293
20079SOL     OW65556   0.274   6.878   3.740 -0.2504  0.0975  0.1680
20079SOL    HW165557   0.351   6.827   3.714 -0.5153 -0.7653  1.0537
20079SOL    HW265558   0.311   6.958   3.778  0.2153 -0.4251  0.8240
20080SOL     OW65559   6.242   6.972   0.348  0.6196 -0.2643  0.2238
20080SOL    HW165560   6.177   7.034   0.314 -0.4571 -0.7596  1.3179
20080SOL    HW265561   6.265   7.007   0.434  1.6107 -0.2558 -0.0324
20081SOL     OW65562   6.131   6.506   3.845 -0.6342 -0.2866  0.6641
20081SOL    HW165563   6.146   6.499   3.750 -2.6406  0.2114  0.2708
20081SOL    HW265564   6.219   6.513   3.882  0.2530 -1.6723 -1.0453
20082SOL     OW65565   0.767   2.489   5.632 -0.1351  0.1195 -0.1839
20082SOL    HW165566   0.827   2.421   5.662 -0.2931 -0.1541 -0.4890
20082SOL    HW265567   0.680   2.459   5.659 -0.3262 -0.3265 -1.2606
20083SOL     OW65568   3.607   7.502   5.425 -0.3400 -0.2545 -0.0810
20083SOL    HW165569   3.549   7.558   5.373  0.0702  0.4320  0.1889
20083SOL    HW265570   3.556   7.481   5.503  1.1310  3.8879  2.3189
20084SOL     OW65571   5.617   9.546   7.439  0.2280  0.0213 -0.1270
20084SOL    HW165572   5.652   9.583   7.358 -0.2373 -0.1463 -0.4091
20084SOL    HW265573   5.647   9.455   7.439 -0.4882 -0.2198 -0.5402
20085SOL     OW65574   3.143  10.643   8.275  0.4949 -0.2442 -0.2024
20085SOL    HW165575   3.182  10.688   8.350  0.6862 -0.7226 -0.0105
20085SOL    HW265576   3.101  10.713   8.224  0.1498  0.0588  0.4806
20086SOL     OW65577   3.118  11.033   4.862 -0.1094  0.2311 -0.5079
20086SOL    HW165578   3.066  10.959   4.891  1.0191 -0.1571  0.5836
20086SOL    HW265579   3.121  11.092   4.937  0.5778  0.4842 -0.7219
20087SOL     OW65580   7.474   7.941   4.999 -0.8425 -0.2572  0.4941
20087SOL    HW165581   7.486   7.920   4.906 -0.0861  1.6572  0.1017
20087SOL    HW265582   7.553   7.908   5.041  1.4908  3.3971 -0.4786
20088SOL     OW65583   2.242   8.662   9.358  0.1313  0.1345 -0.0823
20088SOL    HW165584   2.158   8.659   9.402  0.0658 -0.5013 -0.2498
20088SOL    HW265585   2.282   8.577   9.375  0.4752  0.2042 -0.5092
20089SOL     OW65586   7.690   5.378   0.046  0.0162  0.8713  0.0491
20089SOL    HW165587   7.763   5.439   0.055  1.2071 -0.6755  1.4395
20089SOL    HW265588   7.731   5.295   0.023 -1.4693  0.3272 -0.7766
20090SOL     OW65589   7.385   8.640  10.512 -0.3549  0.5327 -0.0195
20090SOL    HW165590   7.309   8.654  10.454 -1.1872 -1.9594  0.3390
20090SOL    HW265591   7.455   8.613  10.453 -0.1347  1.4780 -0.2056
20091SOL     OW65592   1.696  10.961   3.756  0.0656  0.2908  0.3950
20091SOL    HW165593   1.688  10.876   3.798  1.2191 -0.1078 -0.1466
20091SOL    HW265594   1.748  11.013   3.817  0.8932  0.0234 -0.0630
20092SOL     OW65595   9.786   6.372   4.548  0.0065 -0.4213 -0.0609
20092SOL    HW165596   9.841   6.314   4.601 -0.8441 -1.2097 -0.0178
20092SOL    HW265597   9.837   6.387   4.468  0.0296 -1.6680 -0.3019
20093SOL     OW65598   2.150   5.208   4.369 -0.2777  0.2527 -0.0914
20093SOL    HW165599   2.223   5.263   4.342 -0.9700  0.4794 -1.6114
20093SOL    HW265600   2.085   5.218   4.299 -2.3455  1.1342  1.8243
20094SOL     OW65601   6.188   5.859   1.312  0.1964  0.4415  0.5960
20094SOL    HW165602   6.247   5.922   1.354  0.6474 -0.2170  0.9843
20094SOL    HW265603   6.117   5.847   1.375  0.6894 -0.2762  1.0313
20095SOL     OW65604   2.146  11.196   6.854  0.4085  0.3296 -0.1317
20095SOL    HW165605   2.084  11.264   6.880 -1.0298  0.3342 -3.1753
20095SOL    HW265606   2.194  11.233   6.780  0.7223 -1.3541 -0.8333
20096SOL     OW65607   8.268   1.969  10.122  0.1435 -0.1541 -0.2683
20096SOL    HW165608   8.261   1.969  10.026 -1.5590 -2.7224 -0.2328
20096SOL    HW265609   8.351   1.927  10.140  0.4433  0.2789 -0.6127
20097SOL     OW65610   7.727   0.018   4.738 -0.5588  0.4119  0.6248
20097SOL    HW165611   7.742   0.111   4.719 -0.4421  0.3811  0.5651
20097SOL    HW265612   7.796  -0.006   4.799  1.0300 -0.2740 -1.3032
20098SOL     OW65613  10.552   2.260  10.974  0.0975 -0.3616  0.2289
20098SOL    HW165614  10.484   2.227  10.915 -0.5296 -2.8119  2.1706
20098SOL    HW265615  10.633   2.220  10.942 -0.4771 -3.0094  1.8295
20099SOL     OW65616   4.598   0.725   6.009  0.0311 -0.5192  0.3216
20099SOL    HW165617   4.558   0.805   5.974 -1.2764 -1.2695  0.0451
20099SOL    HW265618   4.550   0.707   6.089  0.2277 -1.1022  0.3089
20100SOL     OW65619   8.859   6.509   2.955  0.7945  0.1144 -0.4004
20100SOL    HW165620   8.831   6.423   2.986  0.8985 -0.8250 -2.7351
20100SOL    HW265621   8.782   6.564   2.966  0.3519 -0.5707  0.0354
20101SOL     OW65622   4.197  11.773   1.614  0.3329 -0.1643 -0.3546
20101SOL    HW165623   4.171  11.795   1.704 -0.3879  0.0577 -0.6088
20101SOL    HW265624   4.291  11.754   1.620  0.4580  0.6041  0.3067
20102SOL     OW65625   1.643   5.497   6.326  0.1460 -0.3647  0.0392
20102SOL    HW165626   1.588   5.420   6.308 -0.7865  0.5170 -1.0747
20102SOL    HW265627   1.637   5.509   6.420  0.3733 -1.7065  0.2396
20103SOL     OW65628  11.578   1.862   5.094 -0.3721 -0.1169  0.2891
20103SOL    HW165629  11.563   1.922   5.167  1.2043  3.2827 -1.8922
20103SOL    HW265630  11.508   1.797   5.100 -0.2756 -0.0825  4.7327
20104SOL     OW65631   8.725   3.100   2.918  0.2392 -0.1989  0.3012
20104SOL    HW165632   8.643   3.075   2.961  0.5336  0.3159  1.1829
20104SOL    HW265633   8.698   3.151   2.842 -0.2841 -1.0627 -0.1106
20105SOL     OW65634   5.306  10.618   3.780 -0.4102  0.2183  0.6602
20105SOL    HW165635   5.382  10.647   3.731 -0.5840  0.2840  0.4252
20105SOL    HW265636   5.247  10.694   3.780 -0.2175  0.3766  1.3698
20106SOL     OW65637   9.996   5.324   8.594  0.2032  0.0315  0.0809
20106SOL    HW165638   9.955   5.240   8.610  0.2055 -0.5488 -2.5741
20106SOL    HW265639   9.923   5.384   8.579  0.2316  0.0263 -0.0839
20107SOL     OW65640   6.575   3.431   8.348 -0.0322 -0.2848 -0.5320
20107SOL    HW165641   6.670   3.438   8.339 -0.2173  1.3883 -1.3625
20107SOL    HW265642   6.543   3.419   8.259 -0.7507  1.5409 -0.5598
20108SOL     OW65643   4.786  10.185   2.275 -0.2089 -0.4116  0.7760
20108SOL    HW165644   4.734  10.256   2.312  0.3314  1.7594 -2.2398
20108SOL    HW265645   4.722  10.115   2.260 -2.2595  1.7483 -1.7828
20109SOL     OW65646   6.868   7.157   7.580 -0.5171 -0.2584 -0.1898
20109SOL    HW165647   6.816   7.237   7.587 -1.8804 -1.2069  1.7230
20109SOL    HW265648   6.929   7.173   7.509 -1.9770  1.7717 -1.0731
20110SOL     OW65649  11.677   3.945   6.416 -0.5744 -0.1145 -0.1187
20110SOL    HW165650  11.590   3.983   6.403  0.1918  1.3820 -1.1979
20110SOL    HW265651  11.694   3.897   6.335  0.2985  1.1060 -0.6893
20111SOL     OW65652   9.671  10.472   5.516 -0.1004 -0.4295  0.2023
20111SOL    HW165653   9.637  10.418   5.444 -0.2247 -0.9459  0.6418
20111SOL    HW265654   9.752  10.508   5.482 -1.3848  1.3747 -1.1213
20112SOL     OW65655   6.987   3.772   0.358 -0.6837  0.4936 -1.1162
20112SOL    HW165656   7.001   3.863   0.383 -0.9177  0.0373  0.8902
20112SOL    HW265657   7.066   3.748   0.310  1.4960  0.5883  2.0781
20113SOL     OW65658   2.535   7.237   2.652 -0.3587  0.5785  0.2539
20113SOL    HW165659   2.443   7.236   2.679 -0.7852  1.7196 -1.0157
20113SOL    HW265660   2.559   7.330   2.655  0.7608  0.2916  0.5466
20114SOL     OW65661   0.567   9.578   3.045  0.1205 -0.2764 -0.7582
20114SOL    HW165662   0.525   9.553   2.963 -1.1756 -0.5095 -0.0518
20114SOL    HW265663   0.558   9.673   3.049 -2.0646 -0.4608  0.2315
20115SOL     OW65664   5.718   6.128   7.826 -0.1143  0.5400 -0.1194
20115SOL    HW165665   5.649   6.100   7.766 -0.9619  1.0049  0.6203
20115SOL    HW265666   5.679   6.200   7.876  0.8194  0.6438  0.4868
20116SOL     OW65667  10.349   3.965  10.227  0.4742 -0.6950  0.0520
20116SOL    HW165668  10.397   4.048  10.232  1.7471 -1.4169  0.0509
20116SOL    HW265669  10.365   3.933  10.139  1.2554 -1.6787  0.5370
20117SOL     OW65670   6.204   0.156   8.409 -0.9126 -0.2138 -0.1210
20117SOL    HW165671   6.183   0.076   8.361  0.6159 -1.4150  1.1488
20117SOL    HW265672   6.237   0.127   8.494 -0.3260  1.7553  0.3919
20118SOL     OW65673   2.763   5.905   2.668  0.1366 -0.1685 -0.8887
20118SOL    HW165674   2.781   5.816   2.637  0.4576 -0.3021 -0.3302
20118SOL    HW265675   2.848   5.948   2.669  0.1715 -0.2264 -0.0280
20119SOL     OW65676  10.472   5.851   7.263 -0.0261  0.5279  0.0503
20119SOL    HW165677  10.467   5.794   7.340 -2.5370  0.7478  0.1463
20119SOL    HW265678  10.565   5.859   7.245  0.4973 -2.1948  1.0682
20120SOL     OW65679   2.998  10.929   7.282 -0.3216 -0.3104 -0.1482
20120SOL    HW165680   3.024  10.960   7.369 -1.6591  2.5571 -0.6686
20120SOL    HW265681   3.051  10.980   7.221 -0.2265 -1.4725 -1.0857
20121SOL     OW65682   1.379  10.770  10.630 -0.1962  0.4300  0.1464
20121SOL    HW165683   1.342  10.796  10.714 -1.0597 -3.9161  1.3899
20121SOL    HW265684   1.470  10.748  10.650  0.0542  0.9081 -0.4456
20122SOL     OW65685   2.920   0.990   8.411  0.1072 -0.0483  0.1916
20122SOL    HW165686   2.847   0.928   8.423 -0.5792  1.0794  2.2939
20122SOL    HW265687   2.904   1.029   8.325 -0.7461 -1.0975 -0.1527
20123SOL     OW65688   0.379   4.468   0.235 -0.1191 -0.0368  0.4774
20123SOL    HW165689   0.429   4.515   0.169 -1.2285  0.6915  0.1346
20123SOL    HW265690   0.399   4.376   0.219 -0.1659  0.1433 -0.7048
20124SOL     OW65691   9.679   1.414   6.723  0.1555 -0.6610 -0.0377
20124SOL    HW165692   9.732   1.367   6.788  0.9687  0.0196 -0.1918
20124SOL    HW265693   9.593   1.423   6.764  0.1915 -1.6193  0.2919
20125SOL     OW65694   5.241   1.481   8.542 -0.5312 -0.0236 -0.3954
20125SOL    HW165695   5.262   1.488   8.635  1.5019 -2.1535 -0.6042
20125SOL    HW265696   5.320   1.511   8.496 -1.0508 -0.1538 -1.4178
20126SOL     OW65697   0.564   9.356   6.898  0.1066 -0.7451 -0.0875
20126SOL    HW165698   0.600   9.445   6.896 -1.4363 -0.1021 -0.6719
20126SOL    HW265699   0.552   9.332   6.806  0.2790 -1.4679  0.0683
20127SOL     OW65700   4.024   2.054   5.330 -0.3679 -0.1649  0.1667
20127SOL    HW165701   4.109   2.070   5.370 -0.2906  0.2718 -0.1622
20127SOL    HW265702   3.990   1.976   5.375  1.2711 -1.8568 -1.3577
20128SOL     OW65703   4.288   6.048   8.112  0.0059 -0.7403 -0.4885
20128SOL    HW165704   4.331   6.133   8.114 -1.2682 -0.0907  1.0871
20128SOL    HW265705   4.213   6.060   8.053  0.9356 -1.3817 -1.8595
20129SOL     OW65706  11.689   3.206   9.063 -0.0998  0.0061  0.2367
20129SOL    HW165707  11.757   3.256   9.018  0.2661  0.0540  0.8307
20129SOL    HW265708  11.728   3.119   9.075 -0.8474 -0.5331 -1.0702
20130SOL     OW65709   0.390   2.422   9.006  0.2382  0.4092  0.5385
20130SOL    HW165710   0.339   2.381   8.936 -1.9568  1.4684  1.3987
20130SOL    HW265711   0.404   2.352   9.069  2.0323 -0.4974 -0.7824
20131SOL     OW65712   4.848   6.966   1.533 -0.2088  0.2754 -0.0369
20131SOL    HW165713   4.842   7.061   1.520  1.1066  0.4887  0.7555
20131SOL    HW265714   4.808   6.929   1.455 -2.4721  1.4549  0.4450
20132SOL     OW65715   2.889   5.746   8.356  0.2794  0.1872 -0.2386
20132SOL    HW165716   2.932   5.832   8.354  0.6332  0.1093  1.7597
20132SOL    HW265717   2.948   5.688   8.307  1.0425  0.6688  0.0890
20133SOL     OW65718   5.495   7.246   5.338 -0.2319  0.2338  0.4223
20133SOL    HW165719   5.410   7.289   5.339  0.0558  0.7957  1.4895
20133SOL    HW265720   5.557   7.313   5.366  0.8614  0.4007 -2.0560
20134SOL     OW65721   4.377   0.229   3.684  0.0345 -0.0555  0.2549
20134SOL    HW165722   4.355   0.274   3.765 -0.0485  0.4148 -0.0265
20134SOL    HW265723   4.372   0.296   3.617  1.3286 -0.1580  0.0308
20135SOL     OW65724   3.930   4.422   8.172 -0.2985  0.0554 -0.0234
20135SOL    HW165725   3.850   4.440   8.222 -0.1828 -0.4791  0.3667
20135SOL    HW265726   3.969   4.508   8.157  0.4921  0.1382  2.1986
20136SOL     OW65727  10.206   1.560   5.507  0.2578  0.2302 -0.3937
20136SOL    HW165728  10.299   1.550   5.487  0.4535 -0.5807  0.8576
20136SOL    HW265729  10.199   1.648   5.546  0.7341 -0.2052  0.7122
20137SOL     OW65730   1.591   8.266   0.737 -0.5646  0.4457  0.1110
20137SOL    HW165731   1.617   8.357   0.746 -0.3506  0.2737  1.3782
20137SOL    HW265732   1.667   8.222   0.699  0.6700  0.1601  2.7359
20138SOL     OW65733   0.376   1.746   5.718 -0.1118  0.1048 -0.2750
20138SOL    HW165734   0.339   1.699   5.642 -0.2712 -0.0399 -0.1108
20138SOL    HW265735   0.455   1.697   5.740 -0.9148 -0.8359  0.6487
20139SOL     OW65736   1.898   9.117   4.276  0.1448  0.2662  0.0687
20139SOL    HW165737   1.964   9.105   4.207  1.1044  1.2756  0.7787
20139SOL    HW265738   1.816   9.091   4.235  0.5901  1.4328 -1.7031
20140SOL     OW65739   0.170  10.480  10.517  0.0378  0.1864  0.2219
20140SOL    HW165740   0.191  10.487  10.424  2.5594  3.2779  0.8716
20140SOL    HW265741   0.211  10.398  10.545 -0.5803 -0.6790 -1.2599
20141SOL     OW65742   8.449   3.938  11.093 -0.1375  0.2341 -0.1089
20141SOL    HW165743   8.431   3.967  11.004  0.1780 -0.3456 -0.3689
20141SOL    HW265744   8.471   3.845  11.084  1.2929  0.4921  0.3977
20142SOL     OW65745   8.385   3.497   5.085  0.1926  0.3166  0.0197
20142SOL    HW165746   8.293   3.514   5.064  1.0952  2.0520 -3.1557
20142SOL    HW265747   8.419   3.452   5.008  2.2824  0.8594  0.5799
20143SOL     OW65748   2.707  11.369   3.220 -0.6893  0.1066  0.4550
20143SOL    HW165749   2.615  11.386   3.242 -0.6738 -0.1758  0.7458
20143SOL    HW265750   2.757  11.405   3.293 -0.4194  2.1716 -0.6692
20144SOL     OW65751   4.921   4.356   2.664  0.2202 -0.4195 -0.0765
20144SOL    HW165752   4.845   4.350   2.606 -1.0194  3.7919  0.7408
20144SOL    HW265753   4.884   4.346   2.752  0.3027  2.4985  0.3805
20145SOL     OW65754   7.368   6.189   4.353 -0.1453 -1.3501  0.0534
20145SOL    HW165755   7.332   6.102   4.334  0.7962 -1.4031 -1.7323
20145SOL    HW265756   7.444   6.196   4.295 -0.2548  0.7093  0.0980
20146SOL     OW65757   5.217   1.336   6.333  0.9248  0.6974  0.2649
20146SOL    HW165758   5.138   1.381   6.364  1.1043 -0.0731  1.9673
20146SOL    HW265759   5.184   1.252   6.299  0.9409  0.6349  0.4021
20147SOL     OW65760   4.649   7.897   5.170  0.1502 -0.3250 -0.4150
20147SOL    HW165761   4.699   7.821   5.140  2.9496  1.2026  0.0449
20147SOL    HW265762   4.575   7.860   5.218  1.0409 -2.7412 -0.7743
20148SOL     OW65763   5.892   5.171   4.465 -0.2991  0.4356 -0.2241
20148SOL    HW165764   5.976   5.136   4.436 -0.7594 -0.6246 -0.3188
20148SOL    HW265765   5.844   5.191   4.384 -0.6705 -0.2830 -0.1868
20149SOL     OW65766   9.287   9.223   2.834  0.0208  0.5463 -0.2550
20149SOL    HW165767   9.217   9.287   2.823 -0.1493  0.5763  0.8752
20149SOL    HW265768   9.280   9.195   2.925  0.0105 -1.2002 -0.7579
20150SOL     OW65769  10.451   7.743   1.696  0.6899  0.3992  0.2071
20150SOL    HW165770  10.433   7.833   1.726  1.0752  0.5304  0.0510
20150SOL    HW265771  10.477   7.753   1.605  1.0166  0.1633  0.2710
20151SOL     OW65772   8.497   8.157   6.606  0.1167  0.1648  0.4625
20151SOL    HW165773   8.583   8.167   6.565 -0.9105 -0.6163 -2.0495
20151SOL    HW265774   8.515   8.115   6.690  2.1695  0.0290  0.0046
20152SOL     OW65775   8.632   9.113   6.032 -0.4511  0.5661  0.1694
20152SOL    HW165776   8.561   9.050   6.040 -0.0301 -0.0972 -1.0453
20152SOL    HW265777   8.652   9.115   5.938  0.7303  1.1742  0.4095
20153SOL     OW65778   6.574   7.354   2.669 -0.4998 -0.1497 -0.2564
20153SOL    HW165779   6.595   7.442   2.638 -1.6512  0.8777  1.6367
20153SOL    HW265780   6.636   7.297   2.624  2.0217  1.9268  0.3402
20154SOL     OW65781   2.239   9.609   8.192  0.0573 -0.0433  0.0955
20154SOL    HW165782   2.204   9.672   8.256 -0.0282  1.3420 -1.2709
20154SOL    HW265783   2.177   9.611   8.120  1.2525  0.0134 -0.9629
20155SOL     OW65784   9.505   3.074   6.986 -0.5881  0.3742  0.5943
20155SOL    HW165785   9.489   3.085   6.892  0.2066 -0.7985  0.3006
20155SOL    HW265786   9.418   3.078   7.025 -0.9941  0.2009 -0.2627
20156SOL     OW65787   9.016  10.457   3.956  0.0944  0.0061 -0.6706
20156SOL    HW165788   9.073  10.533   3.946 -0.3881  0.2073 -2.0202
20156SOL    HW265789   9.066  10.385   3.919 -0.2224  0.0435 -1.1771
20157SOL     OW65790   1.654   0.072   3.774 -0.3488 -0.0163  0.5444
20157SOL    HW165791   1.673   0.018   3.852  1.0236  1.0499  0.9818
20157SOL    HW265792   1.636   0.159   3.809  1.8466  0.8799 -0.3627
20158SOL     OW65793   4.750   6.957   0.419  0.5494 -0.4346  0.4018
20158SOL    HW165794   4.740   6.994   0.331  0.5838 -0.9257  0.1895
20158SOL    HW265795   4.701   6.875   0.417  0.5849 -0.4695  0.8281
20159SOL     OW65796   9.002   5.281   1.682  0.5095  0.0299  0.3309
20159SOL    HW165797   8.912   5.308   1.664  0.4099 -1.1536 -1.1094
20159SOL    HW265798   9.042   5.359   1.721 -1.4965  0.1482  2.3856
20160SOL     OW65799   2.366   8.892  11.091 -0.0912  0.5387  0.0741
20160SOL    HW165800   2.446   8.841  11.089  0.6269  1.6632 -1.6650
20160SOL    HW265801   2.387   8.967  11.148 -0.4826 -0.0257  0.9815
20161SOL     OW65802   0.613   5.383  11.233 -0.0756 -0.0696  0.1467
20161SOL    HW165803   0.610   5.479  11.228 -0.6510 -0.0269  1.1271
20161SOL    HW265804   0.684   5.364  11.294 -1.4181 -0.1745  1.7444
20162SOL     OW65805   9.889   8.536   1.913 -0.2223 -0.4090  0.0225
20162SOL    HW165806   9.805   8.579   1.931 -0.5166 -1.1046  0.3456
20162SOL    HW265807   9.866   8.444   1.898  0.5053 -0.6454  0.3200
20163SOL     OW65808   6.772   7.611   4.034 -0.3101 -0.2730  0.1023
20163SOL    HW165809   6.761   7.656   3.950 -0.2712 -2.6246 -1.2528
20163SOL    HW265810   6.861   7.633   4.061 -1.0963  2.4271  0.8271
20164SOL     OW65811   5.926   1.310  11.322 -0.1993  0.4872 -0.5440
20164SOL    HW165812   5.853   1.312  11.260 -1.9943  0.2935  1.4304
20164SOL    HW265813   5.917   1.225  11.366  2.2210 -0.2420 -1.2896
20165SOL     OW65814  10.298   9.228   9.256 -0.0675  0.2119  0.2195
20165SOL    HW165815  10.307   9.138   9.288 -0.8697 -0.1907 -0.6141
20165SOL    HW265816  10.203   9.243   9.254  0.0791  1.5428  1.5442
20166SOL     OW65817   3.700  11.239   6.946 -0.1023  0.8312  0.2118
20166SOL    HW165818   3.780  11.272   6.985  1.0459  0.0818 -1.4161
20166SOL    HW265819   3.666  11.312   6.894 -1.3302  1.6411  2.0378
20167SOL     OW65820   1.478   2.323   0.999 -0.8427 -0.0160  0.1122
20167SOL    HW165821   1.408   2.384   1.019 -0.8614  0.0051 -0.0198
20167SOL    HW265822   1.436   2.254   0.947 -0.4142  0.8884 -1.4754
20168SOL     OW65823   0.556  10.985   4.575  0.1364 -0.7362 -0.1477
20168SOL    HW165824   0.497  11.060   4.581  2.1905  0.9482  0.2660
20168SOL    HW265825   0.565  10.968   4.481  1.7447  1.3774 -0.4362
20169SOL     OW65826   5.878   0.670   3.345 -0.1109  0.1992 -0.2792
20169SOL    HW165827   5.893   0.755   3.386 -1.2560 -0.0142  0.6163
20169SOL    HW265828   5.806   0.686   3.283  2.0535  0.6879 -2.8378
20170SOL     OW65829  11.665   8.118   8.468 -0.0482 -0.5789 -0.4224
20170SOL    HW165830  11.620   8.047   8.422 -0.4571  0.8526 -2.3693
20170SOL    HW265831  11.637   8.109   8.559  1.7235 -4.2649 -0.0353
20171SOL     OW65832   0.230   4.077   2.923 -0.0696 -0.2214  0.0325
20171SOL    HW165833   0.253   4.070   3.016  2.3365  1.8613 -0.3064
20171SOL    HW265834   0.145   4.122   2.923 -0.3488 -0.6878  1.1884
20172SOL     OW65835   3.366   6.994   8.965  0.4478  0.4982 -0.0732
20172SOL    HW165836   3.295   6.941   9.002 -1.0963  2.0616 -0.6580
20172SOL    HW265837   3.375   7.067   9.026  0.4559  1.1274 -0.8103
20173SOL     OW65838  10.045   0.912   7.316  0.1740  0.1786  0.1061
20173SOL    HW165839  10.103   0.885   7.387 -0.7410  1.1219  1.2490
20173SOL    HW265840  10.095   0.892   7.236  0.9144 -1.6421  0.9481
20174SOL     OW65841   7.258   6.637   4.144  0.7134 -0.7624  0.2032
20174SOL    HW165842   7.221   6.642   4.056  0.6900  0.0457  0.2508
20174SOL    HW265843   7.206   6.569   4.188  1.0271 -1.4929 -0.5410
20175SOL     OW65844   4.544  11.260   1.422 -0.5258 -0.1313  0.2236
20175SOL    HW165845   4.536  11.275   1.516 -2.1924  0.2375  0.0387
20175SOL    HW265846   4.618  11.315   1.395 -0.1139 -0.1483  1.2852
20176SOL     OW65847   5.397   9.467   5.930 -0.3752 -0.4727 -0.5346
20176SOL    HW165848   5.445   9.384   5.929 -0.0714 -0.2951 -1.1725
20176SOL    HW265849   5.465   9.535   5.928 -0.6286 -0.2123 -0.4407
20177SOL     OW65850   9.325   8.559   5.334  0.0685 -0.0954 -0.0468
20177SOL    HW165851   9.342   8.491   5.270 -0.1242  0.7266 -0.9902
20177SOL    HW265852   9.302   8.511   5.414 -1.7671 -1.1429 -1.1383
20178SOL     OW65853  10.002   4.061   9.932 -0.0080 -0.0637  0.0262
20178SOL    HW165854  10.038   4.004   9.864 -0.2614 -0.0403 -0.1285
20178SOL    HW265855   9.918   4.090   9.897 -0.0878  0.0413  0.3004
20179SOL     OW65856   2.721   9.226  11.357  0.6168  0.2755 -0.7451
20179SOL    HW165857   2.646   9.262  11.405  1.4859  0.6291  0.4110
20179SOL    HW265858   2.777   9.189  11.425  0.0319 -2.9138 -1.8390
20180SOL     OW65859  11.046   9.327   5.065 -0.4786  0.0999 -0.0456
20180SOL    HW165860  11.073   9.237   5.044 -2.1181 -0.2029 -1.0170
20180SOL    HW265861  11.097   9.382   5.005  1.6681  0.0235  1.5546
20181SOL     OW65862   7.322   7.513  10.118  0.0536  0.3841 -0.2524
20181SOL    HW165863   7.230   7.515  10.144 -0.0881  2.1010 -0.7868
20181SOL    HW265864   7.321   7.484  10.027  0.2659 -1.9686  0.4389
20182SOL     OW65865   2.689   1.278   3.800  0.4057  0.0098  1.0824
20182SOL    HW165866   2.674   1.338   3.874 -1.8066  1.6502 -0.5535
20182SOL    HW265867   2.728   1.333   3.732 -2.2149 -0.1074 -0.6695
20183SOL     OW65868   0.045  10.297  10.184 -0.0988 -0.0278  0.6223
20183SOL    HW165869   0.055  10.209  10.220 -0.3413 -0.7354 -0.9627
20183SOL    HW265870  -0.050  10.310  10.178 -0.0815  0.7190  1.6800
20184SOL     OW65871   6.062   0.217   4.377 -0.4816  0.5541 -0.1693
20184SOL    HW165872   5.994   0.185   4.318  0.0540  1.0480 -1.0818
20184SOL    HW265873   6.035   0.306   4.401  1.2095  1.9389 -2.8919
20185SOL     OW65874   0.705   6.440   6.632 -0.5548 -0.1294  0.2194
20185SOL    HW165875   0.758   6.396   6.698 -0.0120  1.7852  1.1272
20185SOL    HW265876   0.752   6.521   6.613 -2.1623  0.6960 -0.4114
20186SOL     OW65877  10.408   8.257  11.132 -0.2360 -0.0245 -0.5993
20186SOL    HW165878  10.412   8.349  11.160 -2.2775 -0.5756  1.7102
20186SOL    HW265879  10.500   8.235  11.113  0.2078  2.7661 -2.4636
20187SOL     OW65880   9.969   5.195  10.406 -0.1954  0.0377  0.4429
20187SOL    HW165881   9.961   5.224  10.496  1.0281  2.1090 -0.0572
20187SOL    HW265882   9.911   5.253  10.356  2.2359  1.7878 -0.5641
20188SOL     OW65883   6.333   6.522   8.196 -0.1247  0.4192 -0.0283
20188SOL    HW165884   6.316   6.456   8.129 -0.8867  0.0616  0.5029
20188SOL    HW265885   6.412   6.567   8.166  0.5550 -0.8898 -0.2826
20189SOL     OW65886  10.875   5.527   9.727 -0.1884 -0.5870 -0.4798
20189SOL    HW165887  10.866   5.621   9.711 -0.9527 -0.5953 -0.1640
20189SOL    HW265888  10.802   5.487   9.679 -0.4440 -0.9244  0.1707
20190SOL     OW65889   2.017   1.890   9.392  0.0221  0.2516 -0.0974
20190SOL    HW165890   1.971   1.820   9.346 -0.1177  0.1810  0.1445
20190SOL    HW265891   1.962   1.908   9.469  0.5660 -0.0548  0.3722
20191SOL     OW65892   4.638   4.126   7.945 -0.0236 -0.0762  0.0109
20191SOL    HW165893   4.655   4.168   7.861 -0.4538 -0.9941 -0.5503
20191SOL    HW265894   4.543   4.133   7.957  0.1860  1.3195  1.1267
20192SOL     OW65895   9.298  11.432   8.875  0.2786 -0.3968 -0.3326
20192SOL    HW165896   9.343  11.351   8.852  0.4850 -0.1925 -0.6608
20192SOL    HW265897   9.329  11.452   8.964  1.0768 -0.0986 -0.6685
20193SOL     OW65898   6.944   8.816  11.053  0.7131  0.3368  0.7018
20193SOL    HW165899   7.018   8.755  11.062  0.4774  0.0033  0.3883
20193SOL    HW265900   6.910   8.825  11.142  1.1032  0.4597  0.8444
20194SOL     OW65901   6.087   8.315   1.072 -0.4569 -0.0234  0.3485
20194SOL    HW165902   6.064   8.308   0.979  0.5285  0.6621  0.0499
20194SOL    HW265903   6.108   8.225   1.097 -0.9281 -0.2474 -0.0344
20195SOL     OW65904  11.060   5.617   1.225  0.7364  0.2977  0.5002
20195SOL    HW165905  11.123   5.609   1.296  0.3689  0.4946  0.8537
20195SOL    HW265906  11.074   5.539   1.171 -0.5026 -1.0550  2.0192
20196SOL     OW65907   9.417  11.442   7.597  0.3950 -0.6910  0.2937
20196SOL    HW165908   9.497  11.391   7.610  0.0837 -0.4527  4.6261
20196SOL    HW265909   9.444  11.517   7.543  2.9245 -1.0135  0.9905
20197SOL     OW65910   5.525  10.602   6.452  0.2185  0.2864 -0.1100
20197SOL    HW165911   5.613  10.571   6.470 -0.3581 -2.2684 -1.2841
20197SOL    HW265912   5.467  10.531   6.480 -1.4249  1.4859 -0.2710
20198SOL     OW65913   4.642   4.374   8.844  0.5638 -0.2093  0.0059
20198SOL    HW165914   4.572   4.398   8.783 -0.6682 -2.5895  0.3519
20198SOL    HW265915   4.604   4.303   8.897  2.1661  0.6157  2.4178
20199SOL     OW65916   2.229   7.764  11.102  0.0492  0.3132 -0.1263
20199SOL    HW165917   2.147   7.785  11.058  0.4657  1.6897 -0.3060
20199SOL    HW265918   2.241   7.670  11.088 -1.4685  0.1019 -0.1173
20200SOL     OW65919   1.649   7.762   9.191 -0.0970  0.2378 -0.5505
20200SOL    HW165920   1.610   7.841   9.153 -0.8351 -0.4624 -1.2823
20200SOL    HW265921   1.599   7.747   9.271 -1.5481 -0.7755 -1.5918
20201SOL     OW65922   3.229  10.325   6.267  0.4744  0.3614  0.2253
20201SOL    HW165923   3.302  10.293   6.214 -0.8767  0.2502 -1.6786
20201SOL    HW265924   3.251  10.416   6.285  2.1940 -0.3263  1.7668
20202SOL     OW65925   2.812   9.372   6.543 -0.1713  0.6296  0.3691
20202SOL    HW165926   2.838   9.463   6.527  0.8950  0.3858  0.7021
20202SOL    HW265927   2.861   9.346   6.620 -0.8330 -0.0943  0.5587
20203SOL     OW65928   6.611   0.937   8.819  0.5536  0.2582  0.2676
20203SOL    HW165929   6.636   0.880   8.892  1.1698 -0.6602 -0.6385
20203SOL    HW265930   6.529   0.978   8.848  0.6499 -0.2861  1.3644
20204SOL     OW65931   2.135   2.159   4.100 -0.0139  0.6369  0.2841
20204SOL    HW165932   2.045   2.134   4.120 -0.6101  2.5689  0.2092
20204SOL    HW265933   2.173   2.183   4.184  0.5980 -0.5725  0.3779
20205SOL     OW65934   5.459   7.525   5.999 -0.0732 -0.1306  0.1172
20205SOL    HW165935   5.536   7.467   6.000  0.2297  0.1899 -1.5371
20205SOL    HW265936   5.477   7.587   5.927 -1.2829  0.7798  0.5726
20206SOL     OW65937   1.797   2.203   6.673 -0.2306 -0.1617 -0.4853
20206SOL    HW165938   1.863   2.212   6.742 -0.2936  0.1597 -0.4678
20206SOL    HW265939   1.791   2.290   6.634  0.0541 -0.4220 -1.1310
20207SOL     OW65940   8.264   7.712   5.662 -0.1020  0.3775  0.0409
20207SOL    HW165941   8.193   7.777   5.666 -0.5760 -0.1593  0.5718
20207SOL    HW265942   8.220   7.630   5.640  0.3548  0.0469  0.3428
20208SOL     OW65943   8.631  10.746   1.914  0.0486  0.2747 -0.0467
20208SOL    HW165944   8.587  10.688   1.976  1.8326 -1.4230 -0.2540
20208SOL    HW265945   8.698  10.790   1.966  0.2859  0.3111 -0.3806
20209SOL     OW65946   8.838   0.211   7.987  0.7133  0.0433 -0.1118
20209SOL    HW165947   8.850   0.271   8.061  1.4763 -0.1956 -0.0406
20209SOL    HW265948   8.827   0.268   7.911  0.7448  0.2807  0.0626
20210SOL     OW65949  11.042   8.865   8.378  0.6246 -0.4984  0.6061
20210SOL    HW165950  11.064   8.798   8.442 -1.0029 -1.5068  0.1750
20210SOL    HW265951  10.971   8.826   8.327  1.5452  0.4479 -1.5078
20211SOL     OW65952   8.537   2.695   8.321  0.0211 -0.5562  0.6582
20211SOL    HW165953   8.559   2.665   8.233 -1.9929  0.0396 -0.0896
20211SOL    HW265954   8.607   2.660   8.376  0.7364 -1.8632 -1.0024
20212SOL     OW65955   1.299   4.089   4.671 -0.1027  0.1685 -0.4413
20212SOL    HW165956   1.352   4.022   4.627  1.7559  2.0861 -1.3112
20212SOL    HW265957   1.335   4.092   4.760  2.2867  2.3218 -1.3663
20213SOL     OW65958   5.966   8.564   6.780 -0.2045 -0.2282  0.0770
20213SOL    HW165959   5.904   8.632   6.753 -1.2377 -0.5924  1.4610
20213SOL    HW265960   5.948   8.491   6.720 -1.4573 -0.5014  0.7576
20214SOL     OW65961   4.212   7.087   6.454 -0.0167 -0.0539  0.4588
20214SOL    HW165962   4.206   7.013   6.516  0.1931  0.7486  1.4665
20214SOL    HW265963   4.186   7.050   6.370 -2.1250 -0.7821  1.3633
20215SOL     OW65964   7.193   7.041  11.797 -0.5077 -0.2890 -0.3595
20215SOL    HW165965   7.250   7.047  11.874  0.2661  0.0966 -0.9508
20215SOL    HW265966   7.212   7.120  11.747 -2.2314  0.3115 -0.1353
20216SOL     OW65967   7.186   1.970   6.297 -0.3029  0.2771 -0.8583
20216SOL    HW165968   7.279   1.953   6.281 -0.2046 -0.2986  0.2546
20216SOL    HW265969   7.185   2.045   6.357 -0.5245 -0.1839 -0.2791
20217SOL     OW65970   3.125  11.383  10.615 -0.1172 -0.3015  0.7844
20217SOL    HW165971   3.208  11.422  10.642 -0.6993 -0.0075  2.2502
20217SOL    HW265972   3.111  11.416  10.526  1.4817 -0.6341  0.3813
20218SOL     OW65973   0.360   6.431   4.290 -0.1438 -0.1361  0.4335
20218SOL    HW165974   0.355   6.336   4.297 -1.9228 -0.0365  0.9794
20218SOL    HW265975   0.271   6.461   4.310  0.6769  1.7205  1.4833
20219SOL     OW65976   0.078   2.079   9.841 -0.0336  0.1049  0.3704
20219SOL    HW165977   0.005   2.064   9.901 -1.2279 -0.4250 -1.1487
20219SOL    HW265978   0.056   2.161   9.797  0.0392 -0.2968 -0.4245
20220SOL     OW65979  10.130   6.015   0.888  0.2139  0.3991 -0.0663
20220SOL    HW165980  10.123   5.919   0.882  2.3249  0.2400 -1.0619
20220SOL    HW265981  10.104   6.035   0.978 -2.1261 -0.8560 -0.3837
20221SOL     OW65982  10.594   2.290   7.074  0.4435 -0.6279 -0.0664
20221SOL    HW165983  10.634   2.375   7.091 -0.4951 -0.6864  2.9536
20221SOL    HW265984  10.530   2.306   7.005 -0.4128  1.3784  1.1251
20222SOL     OW65985   5.232   1.268   8.358 -0.1422  0.1621 -0.3379
20222SOL    HW165986   5.218   1.190   8.412  3.4252 -0.1201  0.4594
20222SOL    HW265987   5.247   1.339   8.421  0.0378  0.7241 -0.9941
20223SOL     OW65988   7.511   9.874   3.019  0.4337  0.2778  0.5871
20223SOL    HW165989   7.537   9.958   2.982 -0.5830  0.1083 -0.6103
20223SOL    HW265990   7.542   9.876   3.109  1.0297  1.6488  0.3748
20224SOL     OW65991   4.237   4.648   2.586  0.4151  0.0636 -0.1058
20224SOL    HW165992   4.267   4.688   2.667 -2.2815  1.2398  0.4233
20224SOL    HW265993   4.274   4.560   2.587 -0.4898 -0.3891  3.0387
20225SOL     OW65994   1.689   6.995   7.159 -0.1361 -0.2303  0.3808
20225SOL    HW165995   1.688   6.921   7.099 -1.1572  0.1298 -0.0653
20225SOL    HW265996   1.775   7.036   7.145 -0.5859  0.2229 -1.3251
20226SOL     OW65997   7.895   0.759   0.801  0.7305  0.9596 -0.2866
20226SOL    HW165998   7.820   0.752   0.860  0.6197  0.5323 -0.4685
20226SOL    HW265999   7.971   0.738   0.855  0.5631 -0.1019 -0.4385
20227SOL     OW66000   7.782   6.939   6.719  0.0631 -0.0699  0.1381
20227SOL    HW166001   7.792   6.892   6.802 -0.5684 -0.4398  0.0051
20227SOL    HW266002   7.822   6.882   6.653  1.3498  0.6016  0.2862
20228SOL     OW66003  10.226  10.008   3.627  0.0755 -0.3316 -0.6512
20228SOL    HW166004  10.315  10.034   3.650 -0.1997  0.1914 -0.1734
20228SOL    HW266005  10.176  10.016   3.708 -0.4938 -0.2502 -1.0035
20229SOL     OW66006   3.955  11.330   7.069 -0.9722 -0.4405  0.1375
20229SOL    HW166007   3.933  11.413   7.026  0.7580  0.3055  0.6068
20229SOL    HW266008   3.980  11.356   7.158  0.5813 -1.3312 -0.0180
20230SOL     OW66009   7.622   6.791   7.366  0.3719 -0.0455 -0.2728
20230SOL    HW166010   7.543   6.774   7.417  0.9158  0.2697  0.6932
20230SOL    HW266011   7.672   6.710   7.372  0.0612 -0.3018 -1.0200
20231SOL     OW66012   1.145   0.823   2.649  0.0242 -0.1073  0.2180
20231SOL    HW166013   1.073   0.857   2.596  1.1497  1.0477 -0.6370
20231SOL    HW266014   1.144   0.874   2.729 -0.3690 -0.4017  0.4049
20232SOL     OW66015   4.127   2.868   9.026  0.6790 -0.6076  0.2351
20232SOL    HW166016   4.137   2.834   8.937  0.1610  2.4027 -1.0709
20232SOL    HW266017   4.209   2.914   9.043  0.2929 -0.1278  0.8383
20233SOL     OW66018   8.738   1.375   2.027  0.1178  0.3938  0.2563
20233SOL    HW166019   8.759   1.468   2.019 -0.7568  0.6493  0.7658
20233SOL    HW266020   8.644   1.371   2.013  0.3383 -0.5928 -1.0634
20234SOL     OW66021   9.429   2.873   8.170 -0.0819 -0.1824 -0.6960
20234SOL    HW166022   9.518   2.857   8.138  0.6911  2.8773 -0.4564
20234SOL    HW266023   9.404   2.956   8.130 -1.6366  0.5418  1.5585
20235SOL     OW66024   4.499   7.791   0.335 -0.5968  0.0854  0.3954
20235SOL    HW166025   4.585   7.751   0.344  0.5255  2.1404 -0.4723
20235SOL    HW266026   4.442   7.720   0.307  1.1003 -1.0756 -0.2520
20236SOL     OW66027   0.387   3.320   3.282  0.2538  1.2066 -0.4989
20236SOL    HW166028   0.435   3.366   3.351  1.9866 -1.1634 -0.0313
20236SOL    HW266029   0.454   3.278   3.229 -1.2176 -1.4023 -0.4438
20237SOL     OW66030  10.448   1.834  10.541 -1.2066 -0.3100 -0.0763
20237SOL    HW166031  10.420   1.743  10.553 -1.4015 -0.0652  1.6454
20237SOL    HW266032  10.520   1.845  10.602 -1.5349  0.8390  0.1297
20238SOL     OW66033  10.705   6.814   4.319 -0.0487  0.0909 -0.1104
20238SOL    HW166034  10.795   6.846   4.323 -0.3997  1.2535 -1.0128
20238SOL    HW266035  10.679   6.802   4.410  0.6971  0.6783  0.1841
20239SOL     OW66036   2.347   3.953   6.146  0.0988  0.2156 -0.3984
20239SOL    HW166037   2.369   3.861   6.162  0.1656  0.3796  0.5119
20239SOL    HW266038   2.333   3.990   6.234 -1.8764  0.5975 -0.8471
20240SOL     OW66039   5.244   0.309  10.990 -0.3077  0.8962  0.4354
20240SOL    HW166040   5.303   0.351  11.053  0.0028 -0.7957  1.3474
20240SOL    HW266041   5.242   0.217  11.017 -0.6986  0.2347 -1.6522
20241SOL     OW66042   2.166  11.005   8.229 -0.3643 -0.3057 -0.3747
20241SOL    HW166043   2.184  11.086   8.277  0.1068 -0.5671 -0.1033
20241SOL    HW266044   2.246  10.988   8.180 -1.3703  0.8525 -2.6231
20242SOL     OW66045   3.653  10.929  11.083 -0.8800  0.1417  0.1732
20242SOL    HW166046   3.706  10.852  11.105 -1.0134  0.0440  0.1556
20242SOL    HW266047   3.618  10.959  11.167 -0.2018  0.6514  0.2870
20243SOL     OW66048   4.936   4.537  10.932  0.0166 -0.2997  0.3610
20243SOL    HW166049   4.945   4.485  10.852  0.5528  0.5212 -0.1326
20243SOL    HW266050   5.010   4.598  10.930 -0.5147  0.3925  0.9862
20244SOL     OW66051   5.622  11.413   4.333  0.1556 -0.2398  0.1492
20244SOL    HW166052   5.539  11.366   4.330 -0.5450  0.7031  2.4697
20244SOL    HW266053   5.653  11.401   4.423  0.7421  2.3861  0.3576
20245SOL     OW66054   9.765   8.716   6.879 -0.3344  0.8176 -0.3983
20245SOL    HW166055   9.711   8.795   6.890 -0.9372  0.4935 -0.9323
20245SOL    HW266056   9.705   8.652   6.841  0.7572  0.8565 -2.3230
20246SOL     OW66057   5.853   7.366   2.010  0.3399 -0.4463  0.6060
20246SOL    HW166058   5.949   7.368   2.005  0.2838 -0.1774 -0.7010
20246SOL    HW266059   5.829   7.283   1.969 -0.0249 -0.0893  0.0893
20247SOL     OW66060  10.839   9.814   6.405  0.6991 -0.0600 -0.1026
20247SOL    HW166061  10.855   9.839   6.314 -1.3380  0.4279 -0.3722
20247SOL    HW266062  10.852   9.895   6.454  0.1052  0.0843 -0.1836
20248SOL     OW66063   5.927   0.713   1.308 -0.1047 -0.2275  0.1141
20248SOL    HW166064   5.968   0.635   1.270 -0.2138 -0.4139  0.3793
20248SOL    HW266065   5.963   0.786   1.257 -0.8964 -0.5335 -0.9315
20249SOL     OW66066   6.951   7.240   3.825 -0.2175  0.3803 -0.1789
20249SOL    HW166067   6.987   7.302   3.887  0.5016 -0.9430  0.7721
20249SOL    HW266068   6.976   7.154   3.859 -3.3037 -0.5968 -0.0740
20250SOL     OW66069   5.965   0.339  10.573 -0.2341 -0.0726 -0.4813
20250SOL    HW166070   6.051   0.312  10.541 -0.4635 -1.4548  0.0038
20250SOL    HW266071   5.915   0.258  10.578 -0.1299 -0.0839  3.5835
20251SOL     OW66072   7.379   9.665   4.668 -0.6125 -0.1561 -0.1312
20251SOL    HW166073   7.300   9.693   4.622 -0.7359  2.4983  1.4522
20251SOL    HW266074   7.356   9.672   4.761  1.3874  0.5088  0.3773
20252SOL     OW66075   8.725   5.653   5.295  0.3248  0.0267  0.1100
20252SOL    HW166076   8.808   5.636   5.339  0.6778  0.0553 -0.5318
20252SOL    HW266077   8.672   5.575   5.310  0.5018 -0.0295  0.4393
20253SOL     OW66078   3.839   8.470  10.545  0.7094 -0.7064  0.2373
20253SOL    HW166079   3.799   8.492  10.629 -0.1952  0.0957 -0.3865
20253SOL    HW266080   3.770   8.424  10.497  1.4355 -1.7591  0.1712
20254SOL     OW66081  10.658   2.071   4.656  0.0454  0.9512 -0.0556
20254SOL    HW166082  10.585   2.133   4.656  0.4112  1.3822 -0.3749
20254SOL    HW266083  10.676   2.056   4.563 -0.9663 -0.7229 -0.0320
20255SOL     OW66084   3.833   2.748   4.166  0.1388  0.6739 -0.0273
20255SOL    HW166085   3.774   2.713   4.232 -1.0145  2.5140 -0.0468
20255SOL    HW266086   3.873   2.670   4.127 -0.9270 -0.5338  1.1958
20256SOL     OW66087   6.169   1.814   9.039  0.7532  0.0184  0.3476
20256SOL    HW166088   6.135   1.794   8.952  1.3655  0.4463 -0.0031
20256SOL    HW266089   6.200   1.905   9.033  1.7849 -0.2981  0.6925
20257SOL     OW66090   7.897  11.604   6.402  0.2353  0.2014 -0.6611
20257SOL    HW166091   7.812  11.647   6.406  0.2075  0.0946  0.2168
20257SOL    HW266092   7.943  11.635   6.480  1.0711  0.3924 -1.2104
20258SOL     OW66093   9.719   7.327   1.140  0.0131  0.0879  0.2929
20258SOL    HW166094   9.762   7.389   1.080 -0.5624 -0.7484 -1.0272
20258SOL    HW266095   9.791   7.277   1.178  0.4616  1.3187  1.1311
20259SOL     OW66096   7.063   7.245  10.850 -0.0730  0.9247 -0.7018
20259SOL    HW166097   6.982   7.224  10.897  0.3001  0.5241 -0.2223
20259SOL    HW266098   7.126   7.180  10.882  0.5926  1.5925 -0.6405
20260SOL     OW66099  11.047   9.676   2.252 -0.1153  0.1618  0.6591
20260SOL    HW166100  10.961   9.634   2.243  0.0819 -0.3414  1.0475
20260SOL    HW266101  11.082   9.639   2.333 -0.1385  1.4490  1.2687
20261SOL     OW66102   6.407   4.833   5.549 -0.0630 -0.4916 -0.3552
20261SOL    HW166103   6.411   4.740   5.571  0.3362 -0.5415 -0.6261
20261SOL    HW266104   6.493   4.868   5.573 -0.7429  0.1673  1.2617
20262SOL     OW66105  10.863   3.650   6.036  0.1528 -0.4106  0.1598
20262SOL    HW166106  10.903   3.733   6.060 -0.6169 -0.0508  0.2116
20262SOL    HW266107  10.911   3.622   5.958  0.6652 -0.1090  0.3622
20263SOL     OW66108   8.159  11.268   0.960  0.0850  0.2658  0.2117
20263SOL    HW166109   8.230  11.204   0.952 -0.4420 -0.2120 -0.9077
20263SOL    HW266110   8.155  11.309   0.874 -0.0146  1.3519  0.7283
20264SOL     OW66111   6.015   8.013   0.006  0.3007  0.1881 -0.2454
20264SOL    HW166112   6.087   7.998  -0.055 -1.4858  0.0507 -2.4607
20264SOL    HW266113   5.974   8.094  -0.024  2.1471  2.9437  3.7795
20265SOL     OW66114  10.858  10.519   6.414  0.0275 -0.2799 -0.2170
20265SOL    HW166115  10.765  10.518   6.435  0.3820 -0.9561  1.5364
20265SOL    HW266116  10.864  10.562   6.329 -1.9426 -0.9221 -0.7101
20266SOL     OW66117   3.695   2.948  10.258  0.3536  0.5275 -0.3118
20266SOL    HW166118   3.781   2.988  10.274  0.6754 -0.5730  0.8595
20266SOL    HW266119   3.704   2.858  10.291 -0.3835 -0.5146 -2.7380
20267SOL     OW66120  11.102  11.603   2.803  0.4757 -0.2831 -0.3193
20267SOL    HW166121  11.103  11.674   2.739  1.2678 -0.4227 -0.4812
20267SOL    HW266122  11.011  11.575   2.807  0.1366  0.7547 -0.2354
20268SOL     OW66123   2.072  11.092   1.751  0.3310 -0.1506  0.2235
20268SOL    HW166124   2.163  11.099   1.781  0.3622 -0.7973  0.2841
20268SOL    HW266125   2.067  11.005   1.710  0.0174  0.2947 -0.7152
20269SOL     OW66126   7.862  10.597  11.802 -0.2168  0.3543  0.5361
20269SOL    HW166127   7.830  10.507  11.800 -1.4768  0.7977 -0.3466
20269SOL    HW266128   7.786  10.651  11.781  0.0216  1.7888  2.9685
20270SOL     OW66129   3.134   5.283   2.412 -0.1654  0.6269  0.0206
20270SOL    HW166130   3.087   5.346   2.356 -1.0317  0.6001  0.6846
20270SOL    HW266131   3.066   5.223   2.442  0.1978  0.8702  1.4097
20271SOL     OW66132   3.391   5.944  10.563  0.4116 -0.3426  0.1034
20271SOL    HW166133   3.330   6.011  10.531  1.9439  1.3106  0.4215
20271SOL    HW266134   3.337   5.884  10.613 -1.3673 -0.5774 -1.9798
20272SOL     OW66135  11.621   1.583   3.261 -0.1732  0.1712  0.1625
20272SOL    HW166136  11.564   1.648   3.219 -1.0625  0.3478  1.5913
20272SOL    HW266137  11.566   1.542   3.327  1.7455  1.5131  2.7903
20273SOL     OW66138   6.946   5.939   4.557 -0.4162  0.4316 -0.3546
20273SOL    HW166139   6.928   5.847   4.573  1.4168  0.1209  0.2054
20273SOL    HW266140   6.986   5.970   4.639 -0.4107  1.5460 -0.7598
20274SOL     OW66141   0.894   0.534   1.800 -0.1382  0.6308  0.0017
20274SOL    HW166142   0.906   0.566   1.890  1.2503 -1.9210  0.8078
20274SOL    HW266143   0.832   0.462   1.809 -0.5572  0.8126 -1.2345
20275SOL     OW66144   6.983   0.955   9.946  0.0805  0.4799 -0.1699
20275SOL    HW166145   7.049   0.897   9.984 -1.8699 -1.2618  0.7374
20275SOL    HW266146   6.958   0.914   9.864  0.8906  1.7398 -1.0792
20276SOL     OW66147   1.008   2.480  10.103  0.5194  0.1941  0.1442
20276SOL    HW166148   0.976   2.392  10.121  0.1340  0.1687 -0.6489
20276SOL    HW266149   1.077   2.468  10.038 -0.7206  0.6177 -1.2879
20277SOL     OW66150   9.483   2.529   6.698 -0.0949  0.1637  0.0093
20277SOL    HW166151   9.461   2.442   6.666  0.0729  0.8737 -2.1556
20277SOL    HW266152   9.488   2.519   6.793 -1.0296 -1.9561 -0.1231
20278SOL     OW66153   3.426   0.075   2.631 -0.1379 -0.2548 -0.8184
20278SOL    HW166154   3.381   0.033   2.558  0.9509 -4.0340  0.4398
20278SOL    HW266155   3.519   0.059   2.614  0.4109  2.1147 -0.3981
20279SOL     OW66156   6.853  10.124   3.654  0.4437  0.6956 -0.3404
20279SOL    HW166157   6.797  10.178   3.598 -0.8137 -0.6670 -0.4501
20279SOL    HW266158   6.895  10.063   3.594  1.2489  1.0150 -0.1171
20280SOL     OW66159   0.510   5.490   5.643  0.2093 -0.3064  0.5799
20280SOL    HW166160   0.594   5.455   5.673  0.0060 -0.2896  1.1814
20280SOL    HW266161   0.454   5.413   5.632  0.3218 -0.3258  0.0951
20281SOL     OW66162   4.618   0.950   8.901  0.4110  0.0658 -0.1004
20281SOL    HW166163   4.704   0.964   8.940 -0.0779  2.0845  0.3570
20281SOL    HW266164   4.623   0.994   8.816 -0.1468  0.1264 -0.1054
20282SOL     OW66165   4.884   4.662   9.955 -0.1942 -0.5399  0.4620
20282SOL    HW166166   4.857   4.726  10.021 -0.3239 -0.9359  0.7988
20282SOL    HW266167   4.973   4.687   9.931 -1.6966  2.6681 -2.8631
20283SOL     OW66168   8.527   8.941   7.350 -0.7076  0.1574 -0.1776
20283SOL    HW166169   8.527   8.958   7.256 -2.4613 -0.0182 -0.2453
20283SOL    HW266170   8.605   8.985   7.383 -0.4337  0.7889 -1.6088
20284SOL     OW66171   4.003  10.772   0.091  0.3573  0.3165  0.3679
20284SOL    HW166172   3.923  10.720   0.085  0.8769 -0.9331  2.9995
20284SOL    HW266173   3.978  10.857   0.055 -2.5716  0.3866  2.2076
20285SOL     OW66174   1.090  11.227   7.523  0.2261  0.3373 -0.3417
20285SOL    HW166175   1.157  11.277   7.477 -0.3738  2.1172  0.6239
20285SOL    HW266176   1.047  11.175   7.455  0.7441  1.3001 -1.4367
20286SOL     OW66177   8.012   8.945   3.404  0.4434 -0.5462  0.0860
20286SOL    HW166178   8.055   9.022   3.442  0.0949 -0.3544  0.0927
20286SOL    HW266179   7.944   8.980   3.348  0.0759 -0.8564  0.3318
20287SOL     OW66180   3.658   5.218   0.090  0.2122  0.2816  0.6372
20287SOL    HW166181   3.707   5.170   0.023 -0.6470 -0.4465  0.5038
20287SOL    HW266182   3.566   5.202   0.068 -0.1049 -0.5471  2.3522
20288SOL     OW66183   1.981   0.304   6.357 -0.1508 -0.7864 -0.1747
20288SOL    HW166184   1.943   0.365   6.294 -1.5923 -1.5583 -0.0986
20288SOL    HW266185   1.986   0.353   6.439  1.4020  0.1075 -0.7666
20289SOL     OW66186  10.572   7.739   6.675  0.4987  0.0501 -0.3354
20289SOL    HW166187  10.555   7.776   6.588  0.0343 -1.0588 -0.7320
20289SOL    HW266188  10.491   7.695   6.699  1.1356 -0.9873 -0.0274
20290SOL     OW66189   4.546   2.714   2.772 -0.1525  0.3764  0.4285
20290SOL    HW166190   4.553   2.759   2.857  0.4253  0.8228  0.1479
20290SOL    HW266191   4.519   2.782   2.711 -1.5772 -0.1480  0.4185
20291SOL     OW66192  10.840  10.570  10.057  0.0913 -0.4723  0.2491
20291SOL    HW166193  10.859  10.564   9.964  1.3175 -0.7069  0.4916
20291SOL    HW266194  10.826  10.664  10.072 -0.5881 -0.4877 -0.2435
20292SOL     OW66195   0.587  11.439   7.611  0.7354  0.3291 -0.2326
20292SOL    HW166196   0.635  11.359   7.594  1.4923  0.6697  0.2549
20292SOL    HW266197   0.649  11.496   7.657  0.0496  0.9933 -0.0929
20293SOL     OW66198   3.435  11.471   6.205 -0.7544  0.7567 -0.4321
20293SOL    HW166199   3.349  11.434   6.185 -0.8562  1.2408 -0.9003
20293SOL    HW266200   3.424  11.511   6.291 -0.3091 -1.3457  0.6708
20294SOL     OW66201   1.671   7.887   7.392  0.0179  0.2593  0.7536
20294SOL    HW166202   1.652   7.894   7.298  0.9802 -0.3934  0.5014
20294SOL    HW266203   1.655   7.975   7.426 -1.3972  0.2574  0.1899
20295SOL     OW66204  11.808  11.059   0.751 -0.1796 -0.0342  0.4015
20295SOL    HW166205  11.871  11.096   0.813 -1.7694  1.8415  0.9623
20295SOL    HW266206  11.733  11.034   0.804 -1.3056  0.9784 -0.6499
20296SOL     OW66207   0.344   7.136   5.398 -0.3444  0.5320  0.0727
20296SOL    HW166208   0.299   7.153   5.315  0.5524  1.1470 -0.2989
20296SOL    HW266209   0.433   7.168   5.384 -0.2132  0.7548  1.3108
20297SOL     OW66210  10.124   9.791   3.240 -0.1873 -0.8533 -0.1972
20297SOL    HW166211  10.084   9.878   3.238  1.1888 -0.1958 -0.6966
20297SOL    HW266212  10.177   9.791   3.320 -0.0908 -1.1885 -0.2605
20298SOL     OW66213   8.407   2.935   5.804 -0.9493 -0.0223  0.1685
20298SOL    HW166214   8.421   2.882   5.882 -0.2652 -0.7780 -0.4503
20298SOL    HW266215   8.403   3.025   5.836 -0.8682 -0.3405  1.0864
20299SOL     OW66216  10.572   7.574   4.898  0.6564 -0.0012  0.1772
20299SOL    HW166217  10.489   7.535   4.870  0.7678 -0.4852  0.4954
20299SOL    HW266218  10.596   7.634   4.828  0.6741 -0.8016 -0.5164
20300SOL     OW66219   6.220  11.159   9.387  0.5370  0.0243 -0.3422
20300SOL    HW166220   6.277  11.211   9.444 -0.3193 -0.4626  0.9845
20300SOL    HW266221   6.168  11.224   9.340  1.6774  0.4545 -1.0624
20301SOL     OW66222   3.890   0.334   0.224  0.7463  0.0009  0.2610
20301SOL    HW166223   3.817   0.273   0.234  0.2173  0.7761  1.2707
20301SOL    HW266224   3.922   0.317   0.135 -0.3678 -0.6696 -0.0455
20302SOL     OW66225   8.152   8.313   1.682 -0.0839  0.3520 -0.1473
20302SOL    HW166226   8.067   8.271   1.672  0.1662 -0.7330  1.7001
20302SOL    HW266227   8.183   8.327   1.593 -1.4038 -0.8918 -0.8412
20303SOL     OW66228   3.141   3.220   7.502 -0.7156 -0.2553  0.3656
20303SOL    HW166229   3.055   3.246   7.469 -0.9036 -1.4758 -0.1624
20303SOL    HW266230   3.186   3.184   7.426 -0.9417 -2.5906  1.2456
20304SOL     OW66231   7.992   2.687   1.479 -0.4768  0.4396 -0.4194
20304SOL    HW166232   8.007   2.597   1.451  0.5102 -0.4990  2.6793
20304SOL    HW266233   7.908   2.711   1.440 -0.3562 -1.4839 -2.0215
20305SOL     OW66234   2.798   4.113   8.392 -0.1464 -0.3060 -0.0303
20305SOL    HW166235   2.704   4.094   8.389  0.0637 -1.5378  0.3904
20305SOL    HW266236   2.831   4.086   8.306 -0.5159  2.4009 -1.1262
20306SOL     OW66237   9.325   2.454   9.820 -0.2532 -0.4141 -0.0649
20306SOL    HW166238   9.264   2.519   9.856  1.0405 -0.1693  1.8363
20306SOL    HW266239   9.347   2.488   9.733 -2.2343 -0.1448 -0.5117
20307SOL     OW66240   4.402   9.251   6.089 -0.5821  0.1091 -0.0079
20307SOL    HW166241   4.393   9.346   6.097 -2.5830 -0.1095  0.8178
20307SOL    HW266242   4.329   9.225   6.034  0.4323 -0.9043 -0.9377
20308SOL     OW66243   0.006   5.148   1.537 -0.5966 -0.4780 -0.2103
20308SOL    HW166244  -0.088   5.150   1.554 -0.5232  0.7038  0.1158
20308SOL    HW266245   0.047   5.148   1.623 -0.2856  0.9112 -0.3358
20309SOL     OW66246   9.221   2.843  10.810 -0.5423  0.3029 -0.2597
20309SOL    HW166247   9.197   2.770  10.868  0.2804 -0.6808 -1.1096
20309SOL    HW266248   9.254   2.911  10.870 -0.5014 -0.3627  0.4934
20310SOL     OW66249   9.276   2.500   8.769  0.1498 -0.1694  0.0372
20310SOL    HW166250   9.193   2.537   8.739  0.2043  1.3416  1.5627
20310SOL    HW266251   9.250   2.426   8.825 -0.1833  0.2300  0.4214
20311SOL     OW66252   9.356   4.966   0.287 -0.2568  0.3864  0.3768
20311SOL    HW166253   9.328   5.053   0.261  3.6145  1.4134 -1.0803
20311SOL    HW266254   9.315   4.907   0.223  1.9664  1.9568 -2.8023
20312SOL     OW66255   0.021   4.011   3.862 -0.1705 -0.8154  0.3869
20312SOL    HW166256   0.022   4.041   3.953  3.1228 -1.6566  0.7581
20312SOL    HW266257   0.019   4.092   3.810  0.6903 -0.1971  1.2703
20313SOL     OW66258   5.334   5.925   8.447 -0.4058 -0.3731 -0.6585
20313SOL    HW166259   5.381   5.947   8.528  1.3652 -0.9826 -1.4684
20313SOL    HW266260   5.312   6.009   8.408 -0.5008 -0.0794  0.0068
20314SOL     OW66261   0.543   3.451   1.846 -0.0988  0.4138  0.4630
20314SOL    HW166262   0.606   3.422   1.912 -2.7124  0.1014  3.0135
20314SOL    HW266263   0.503   3.529   1.885 -2.7494 -0.6240 -0.0025
20315SOL     OW66264   4.191   9.239   3.527 -0.5014  0.2413  0.2177
20315SOL    HW166265   4.197   9.229   3.622  0.1010 -0.5519  0.1012
20315SOL    HW266266   4.262   9.186   3.492 -1.3079 -0.2575 -0.7233
20316SOL     OW66267   8.853   3.313   6.498  0.1598 -0.3713  0.0662
20316SOL    HW166268   8.803   3.312   6.416  0.0886 -0.8713  0.1150
20316SOL    HW266269   8.799   3.262   6.559 -1.1036  2.1350  1.2095
20317SOL     OW66270   0.271   8.967   2.700  0.3527 -0.0884  0.1046
20317SOL    HW166271   0.263   8.971   2.604  1.1381  3.0084  0.0729
20317SOL    HW266272   0.365   8.953   2.715  0.0786 -1.7598  0.4899
20318SOL     OW66273   3.472   2.958   7.008 -0.2687  0.7114  0.8060
20318SOL    HW166274   3.455   2.866   7.027  1.1489  0.1749 -0.3799
20318SOL    HW266275   3.399   3.005   7.049 -1.4625 -0.9884  0.7071
20319SOL     OW66276   6.234   4.329   5.032 -0.4742 -0.0553 -0.2161
20319SOL    HW166277   6.326   4.338   5.054  0.5060 -2.6094 -2.6935
20319SOL    HW266278   6.189   4.390   5.091  2.8554  2.3943  0.0859
20320SOL     OW66279   5.262   9.271   8.722 -0.1225 -0.4897 -0.1609
20320SOL    HW166280   5.314   9.306   8.651 -1.2622 -1.3200 -1.4674
20320SOL    HW266281   5.209   9.202   8.681 -0.6802 -1.1249  1.5282
20321SOL     OW66282   4.712   2.954   2.781  0.3508 -0.0783 -0.0740
20321SOL    HW166283   4.684   2.875   2.826  1.2168 -0.0974  0.4517
20321SOL    HW266284   4.688   3.026   2.839 -1.0960  0.1248 -0.8753
20322SOL     OW66285   4.416   0.745   7.503 -0.2848 -0.1143  0.5558
20322SOL    HW166286   4.354   0.701   7.561 -0.8945  1.0846  0.8574
20322SOL    HW266287   4.379   0.736   7.416 -0.3220 -0.3223  0.5925
20323SOL     OW66288   6.057   6.224  10.844 -0.1577  0.6614  0.4929
20323SOL    HW166289   6.077   6.152  10.785  1.2880  1.1084  0.4049
20323SOL    HW266290   6.134   6.231  10.901 -0.3876  1.9434  0.6812
20324SOL     OW66291   6.520   6.263  10.862 -0.2503  0.1893  0.0887
20324SOL    HW166292   6.450   6.328  10.874 -1.4768 -0.9385 -0.6292
20324SOL    HW266293   6.483   6.199  10.800  0.3355 -2.0068  1.8722
20325SOL     OW66294   9.906   7.211   1.313  0.4342 -0.1688 -0.3191
20325SOL    HW166295   9.946   7.154   1.378 -0.2159  2.1305  2.2809
20325SOL    HW266296   9.975   7.275   1.293  0.1562 -0.0088 -0.7744
20326SOL     OW66297   4.686  10.051   1.826 -0.0731 -0.1213 -0.4740
20326SOL    HW166298   4.751  10.065   1.757  0.4835  0.0378  0.0780
20326SOL    HW266299   4.606  10.090   1.791  0.6194  1.4753 -0.3567
20327SOL     OW66300   4.349   7.718   1.104 -0.2574  0.0323  0.4799
20327SOL    HW166301   4.391   7.792   1.061 -0.7027  1.7902  2.8499
20327SOL    HW266302   4.421   7.667   1.141 -0.0167  0.2170  0.2648
20328SOL     OW66303   0.485  10.702   4.405  0.0611  0.0105  0.2939
20328SOL    HW166304   0.560  10.676   4.351 -0.0305  0.8558 -0.2556
20328SOL    HW266305   0.467  10.625   4.460  1.7673  0.0343  0.9436
20329SOL     OW66306   5.530   8.353   0.045 -0.0967  0.0436 -0.2233
20329SOL    HW166307   5.504   8.318  -0.041  1.4073  0.2554 -0.7850
20329SOL    HW266308   5.609   8.404   0.027 -0.8971  1.7939  0.9696
20330SOL     OW66309   6.343   9.427  10.476  0.2064 -0.0191 -0.5174
20330SOL    HW166310   6.351   9.373  10.397  0.1971 -2.3846  1.0053
20330SOL    HW266311   6.255   9.465  10.471  0.2333 -0.0671 -1.6401
20331SOL     OW66312   6.054   3.273   6.851 -0.2195  0.7979 -0.1111
20331SOL    HW166313   5.983   3.218   6.884  0.8477 -0.6082 -0.0910
20331SOL    HW266314   6.058   3.346   6.913 -0.9342  0.3232  0.5095
20332SOL     OW66315   2.168   1.528   6.496  0.2280  0.6452  0.8226
20332SOL    HW166316   2.205   1.544   6.582 -0.7638  0.9496  1.2089
20332SOL    HW266317   2.103   1.459   6.511  0.3517  0.3937  0.2361
20333SOL     OW66318   7.363   7.236   1.118 -0.0441 -0.2524  0.1742
20333SOL    HW166319   7.331   7.239   1.028 -0.1876 -1.1094  0.1860
20333SOL    HW266320   7.286   7.214   1.170 -0.0701  0.7387  0.5775
20334SOL     OW66321   0.469   8.870   4.024 -0.0351 -0.4638 -0.0770
20334SOL    HW166322   0.563   8.854   4.028  0.2816  0.6517 -1.8997
20334SOL    HW266323   0.438   8.816   3.951 -0.8616 -0.9501  0.6107
20335SOL     OW66324   8.549   0.907   1.276  0.2647  0.4017 -0.2613
20335SOL    HW166325   8.619   0.866   1.327 -1.4455 -1.4319  0.7489
20335SOL    HW266326   8.482   0.930   1.341 -1.0753 -0.0582 -1.4410
20336SOL     OW66327  10.913  11.012   9.218 -0.0327  0.5369  0.2665
20336SOL    HW166328  10.889  11.012   9.311  0.2847  0.9472  0.3531
20336SOL    HW266329  10.938  10.922   9.199 -2.1407 -0.0597  0.0363
20337SOL     OW66330  10.450   6.065  11.436  0.2191 -0.1073 -0.0590
20337SOL    HW166331  10.451   6.145  11.489 -1.0995  0.9410 -1.5427
20337SOL    HW266332  10.539   6.059  11.400  0.6562  0.0356  0.9544
20338SOL     OW66333   7.521   3.576   7.990 -0.5627  0.4229 -0.1962
20338SOL    HW166334   7.605   3.555   8.031 -1.7976 -2.6296  1.0897
20338SOL    HW266335   7.540   3.651   7.933  2.6964  0.6720  0.9975
20339SOL     OW66336   0.981   6.277  11.391  0.0530 -0.0550 -0.3616
20339SOL    HW166337   0.977   6.321  11.475 -0.8249 -3.3688  1.4967
20339SOL    HW266338   0.893   6.288  11.354 -1.0353 -2.3527  1.3522
20340SOL     OW66339   0.180   2.625   0.564  0.5093 -0.6185 -0.7372
20340SOL    HW166340   0.094   2.645   0.600  1.6988  1.7342  1.0447
20340SOL    HW266341   0.161   2.582   0.480 -2.3744  0.6369 -0.8473
20341SOL     OW66342   7.886   8.717   2.161 -0.1253 -0.1823 -0.0791
20341SOL    HW166343   7.928   8.697   2.078 -2.2319 -1.3524 -0.9320
20341SOL    HW266344   7.793   8.722   2.141 -0.4436  4.4722  1.2621
20342SOL     OW66345   8.242   9.518   2.939  0.1921 -0.1935  0.1110
20342SOL    HW166346   8.218   9.552   2.853 -1.9513  1.1355  1.1316
20342SOL    HW266347   8.189   9.439   2.950  0.7832 -0.6039  0.0594
20343SOL     OW66348   8.258  10.479   5.603 -0.0433  0.1473 -0.5231
20343SOL    HW166349   8.304  10.543   5.548  2.9788 -0.5062  1.0184
20343SOL    HW266350   8.297  10.395   5.577 -1.2570 -0.6118  0.0669
20344SOL     OW66351  10.646  11.159   6.837 -0.2453  0.2368  0.6306
20344SOL    HW166352  10.559  11.180   6.801  0.4452 -0.6721 -1.7773
20344SOL    HW266353  10.669  11.235   6.890 -2.4784  0.5048  1.3234
20345SOL     OW66354   6.472   0.549   2.541 -0.1178 -0.5144  0.4374
20345SOL    HW166355   6.425   0.629   2.563  0.6803 -0.2030  1.0217
20345SOL    HW266356   6.531   0.574   2.470  0.3841 -0.4981  0.8588
20346SOL     OW66357  11.665   2.783   7.759  0.0230 -0.1343 -0.1865
20346SOL    HW166358  11.570   2.779   7.771  0.3885 -1.1894  4.0111
20346SOL    HW266359  11.686   2.702   7.713 -1.0351 -0.3147 -0.3923
20347SOL     OW66360   3.204   9.832  11.736 -0.3217 -0.2288  0.0269
20347SOL    HW166361   3.226   9.835  11.829 -0.2255 -0.8645  0.0301
20347SOL    HW266362   3.125   9.886  11.729 -0.5195 -0.4369  0.5360
20348SOL     OW66363  10.836   7.246  11.079  0.1628  0.0406  0.5937
20348SOL    HW166364  10.840   7.204  11.165 -0.5364 -2.2373 -0.3950
20348SOL    HW266365  10.744   7.272  11.069 -0.1171 -1.0757 -0.0051
20349SOL     OW66366   7.102  11.297   2.850 -0.0736 -0.1384 -0.6384
20349SOL    HW166367   7.177  11.344   2.886 -2.7325  3.1327  1.2066
20349SOL    HW266368   7.057  11.260   2.926 -1.0863 -0.8749 -1.5496
20350SOL     OW66369  11.675  11.443   7.987 -0.1656  0.1499  0.1325
20350SOL    HW166370  11.723  11.432   7.905 -0.4100 -0.7046  0.0973
20350SOL    HW266371  11.743  11.465   8.052  0.4583 -2.0834  0.3091
20351SOL     OW66372  10.179  10.475   4.575 -0.1516  0.2847 -0.3409
20351SOL    HW166373  10.187  10.381   4.592  1.3604  0.3061 -0.7443
20351SOL    HW266374  10.087  10.495   4.589 -1.0554 -1.7413 -2.6767
20352SOL     OW66375   5.758   7.829  10.384  0.6771 -0.1915  0.3574
20352SOL    HW166376   5.707   7.780  10.448 -0.3572 -0.4227 -0.6157
20352SOL    HW266377   5.759   7.919  10.418  0.1623 -0.3110  0.7008
20353SOL     OW66378   7.785   9.951   1.950 -0.1430  0.0498 -0.5856
20353SOL    HW166379   7.852   9.924   1.886 -0.2187 -1.2210 -0.1588
20353SOL    HW266380   7.835   9.992   2.020  0.0191  0.6883 -1.0630
20354SOL     OW66381   1.410   0.202   8.149 -0.3880 -0.1832 -0.0485
20354SOL    HW166382   1.449   0.252   8.221 -0.7339 -1.6196  1.1864
20354SOL    HW266383   1.465   0.223   8.073  0.3562  0.9058  0.7602
20355SOL     OW66384   6.000   1.224  11.635  0.1521 -0.1562 -0.3707
20355SOL    HW166385   5.977   1.286  11.705 -0.5592  1.8860 -2.3211
20355SOL    HW266386   5.917   1.201  11.594  0.5231 -1.6333 -0.3774
20356SOL     OW66387   9.551   4.654  10.596  0.3933 -0.3429 -0.3174
20356SOL    HW166388   9.488   4.717  10.631 -2.3540 -2.2387 -1.5151
20356SOL    HW266389   9.600   4.626  10.673 -1.2875  0.0975  0.9954
20357SOL     OW66390   7.310  11.175   7.269  0.2385  0.8349 -0.4899
20357SOL    HW166391   7.220  11.151   7.247 -0.0813  1.5189  0.0297
20357SOL    HW266392   7.335  11.113   7.337  0.4550  0.1225 -1.2043
20358SOL     OW66393   3.001   9.613   3.298  0.0250 -0.2999  0.0532
20358SOL    HW166394   3.038   9.526   3.315  0.7886  0.1158  0.5819
20358SOL    HW266395   2.917   9.612   3.344 -0.1449 -0.8847 -0.2519
20359SOL     OW66396   9.697   5.381   9.533  0.6429 -0.1081  0.2744
20359SOL    HW166397   9.746   5.405   9.612  0.4322 -1.7153  0.9179
20359SOL    HW266398   9.710   5.456   9.475  0.9529  1.0454  1.7460
20360SOL     OW66399   6.915   3.826   6.958  0.2362 -0.0948  0.4851
20360SOL    HW166400   6.830   3.783   6.965 -0.1399  0.6490  0.6401
20360SOL    HW266401   6.902   3.911   6.999  0.8337  0.3508 -0.2200
20361SOL     OW66402   8.303   6.741   1.949  0.0139  0.3631 -0.2440
20361SOL    HW166403   8.266   6.674   2.007 -0.3392  0.6658 -0.1118
20361SOL    HW266404   8.385   6.703   1.918 -0.0310 -0.0041  0.0706
20362SOL     OW66405   5.487   9.615   5.480 -0.0873  0.5236  0.8101
20362SOL    HW166406   5.533   9.571   5.551  1.5782 -0.7998 -0.9758
20362SOL    HW266407   5.419   9.552   5.453  0.4223  0.2594  0.1198
20363SOL     OW66408   2.618   8.094   0.436 -0.3655 -0.2000 -0.0963
20363SOL    HW166409   2.713   8.097   0.424 -0.3327  1.1497  0.4294
20363SOL    HW266410   2.606   8.070   0.528 -0.5269  0.2631  0.0051
20364SOL     OW66411   9.108  10.505   9.602  0.3726 -0.2812  0.2404
20364SOL    HW166412   9.139  10.420   9.634  0.9651  0.0630  0.6058
20364SOL    HW266413   9.053  10.483   9.527  1.3431 -0.9420 -0.3159
20365SOL     OW66414   3.876   3.980   0.633 -0.1542 -0.0062 -0.5558
20365SOL    HW166415   3.860   4.060   0.682 -1.1185  0.1930 -1.1728
20365SOL    HW266416   3.961   3.948   0.665 -0.2955  0.6506  0.5000
20366SOL     OW66417   6.830   6.644   9.337  0.1754  0.4605 -0.3051
20366SOL    HW166418   6.766   6.704   9.376  0.4621  0.1086  0.7589
20366SOL    HW266419   6.814   6.648   9.243  0.0244  2.0104 -0.2296
20367SOL     OW66420   0.956   0.194   2.721  0.3339 -0.2860 -0.0675
20367SOL    HW166421   1.050   0.209   2.723  0.5304 -1.4293  0.1497
20367SOL    HW266422   0.940   0.146   2.640 -0.4008  1.7882 -1.2144
20368SOL     OW66423   1.618   6.149   1.710  0.0330  0.4413 -0.3596
20368SOL    HW166424   1.524   6.128   1.706  0.2500 -0.5405 -0.3064
20368SOL    HW266425   1.631   6.179   1.801 -0.0167 -0.4494 -0.0514
20369SOL     OW66426  10.101   7.512  10.642 -0.0625 -0.2753 -0.4342
20369SOL    HW166427  10.048   7.590  10.625 -0.5094  0.1474  2.3959
20369SOL    HW266428  10.147   7.495  10.560 -0.6329  2.4318 -1.3979
20370SOL     OW66429   1.978   8.568   1.123  0.8649 -0.5328  0.2705
20370SOL    HW166430   1.989   8.544   1.215 -0.6538 -0.7591  0.4202
20370SOL    HW266431   1.971   8.484   1.077  0.3748 -0.4189  0.1300
20371SOL     OW66432   4.869   6.468  10.403 -0.0514 -0.7638  0.1405
20371SOL    HW166433   4.783   6.500  10.376  0.9269  1.3547 -0.7186
20371SOL    HW266434   4.859   6.373  10.406 -2.0613 -0.6701 -1.2189
20372SOL     OW66435   7.703  10.727   0.340 -0.1418 -0.0120 -0.2050
20372SOL    HW166436   7.684  10.636   0.317  0.4629 -0.1368 -0.2477
20372SOL    HW266437   7.675  10.735   0.431 -2.2314  0.3882 -0.8310
20373SOL     OW66438  10.614  10.690   2.964  0.3219  0.2636 -0.0480
20373SOL    HW166439  10.578  10.620   3.019 -0.6193  0.9808  0.2679
20373SOL    HW266440  10.708  10.688   2.980  0.3923 -1.3065 -0.4831
20374SOL     OW66441  11.749   0.695   3.664 -0.1009  0.7535 -0.7068
20374SOL    HW166442  11.840   0.725   3.654 -0.7789  2.6537 -1.6689
20374SOL    HW266443  11.757   0.612   3.710  2.2268  0.1439 -2.0137
20375SOL     OW66444  10.576   8.282   6.761  0.6696 -0.1651 -0.1524
20375SOL    HW166445  10.623   8.316   6.685  2.5323 -0.5647  0.7584
20375SOL    HW266446  10.572   8.357   6.821  0.9170 -0.3664  0.1161
20376SOL     OW66447   6.614   4.584   4.271 -0.1547  0.4691 -0.2241
20376SOL    HW166448   6.559   4.537   4.334 -2.6549  1.5310 -1.4460
20376SOL    HW266449   6.554   4.607   4.200  2.2480  0.4360 -2.4184
20377SOL     OW66450   2.847   9.311   3.329  0.8729 -0.3267  0.3077
20377SOL    HW166451   2.854   9.365   3.408 -0.5279 -1.4023  1.1961
20377SOL    HW266452   2.769   9.258   3.342 -0.5788  0.8218 -2.6569
20378SOL     OW66453  10.910  11.371   4.976  0.1663  0.2108 -0.2895
20378SOL    HW166454  10.910  11.324   5.059 -1.5698  0.2295 -0.2351
20378SOL    HW266455  10.996  11.353   4.938  0.4610 -0.9588  0.8534
20379SOL     OW66456   8.949   6.800   5.772  1.2896  0.7121  0.0423
20379SOL    HW166457   8.868   6.798   5.721  1.2574  1.7255  0.0410
20379SOL    HW266458   8.934   6.737   5.843  1.3497 -0.7342 -1.1842
20380SOL     OW66459   3.690   1.503   5.052  0.4935 -0.2579 -0.4522
20380SOL    HW166460   3.716   1.423   5.007 -0.4023  0.2956 -2.0542
20380SOL    HW266461   3.766   1.527   5.105  1.0313 -1.7656 -0.4902
20381SOL     OW66462   5.114  10.985  10.097  0.0343 -0.1762  0.3334
20381SOL    HW166463   5.116  10.895  10.130  0.1348 -0.4211 -0.3258
20381SOL    HW266464   5.172  11.033  10.156 -0.0837 -0.5247  0.7375
20382SOL     OW66465   2.769   5.445   5.727 -0.1339  0.8652 -0.2910
20382SOL    HW166466   2.842   5.473   5.671  0.8756 -0.9021  0.0492
20382SOL    HW266467   2.811   5.417   5.808 -0.9756 -1.6655 -0.6457
20383SOL     OW66468   9.688   8.264   7.281 -0.0581  0.5391  0.0073
20383SOL    HW166469   9.609   8.257   7.334 -0.1369 -0.8405 -0.2510
20383SOL    HW266470   9.729   8.177   7.288  0.5770  0.7286 -1.1711
20384SOL     OW66471   3.572   6.437   6.920 -0.2697  0.0057 -0.5266
20384SOL    HW166472   3.501   6.480   6.968  0.2869 -0.8317  1.1077
20384SOL    HW266473   3.643   6.501   6.918 -0.3575  0.1056 -0.4031
20385SOL     OW66474   5.224   7.407   5.282  0.2826 -0.6343 -0.4275
20385SOL    HW166475   5.279   7.461   5.339  2.0001 -1.8040 -0.8645
20385SOL    HW266476   5.145   7.459   5.267  1.1506  1.0260  0.4645
20386SOL     OW66477   8.713   5.508   1.371  0.4620  0.6657  0.4251
20386SOL    HW166478   8.710   5.541   1.281 -1.7364 -0.9136 -0.1598
20386SOL    HW266479   8.627   5.529   1.407  1.5402  1.9546  2.5045
20387SOL     OW66480  11.542   8.878  11.624 -0.2023  0.1731  0.3785
20387SOL    HW166481  11.627   8.873  11.580 -0.4332 -1.5946  0.0415
20387SOL    HW266482  11.557   8.932  11.701  1.3623 -0.4644  0.5549
20388SOL     OW66483   5.461   2.064   6.764 -0.2949 -0.6976 -0.0992
20388SOL    HW166484   5.458   2.046   6.858  0.5661 -0.4897 -0.0254
20388SOL    HW266485   5.376   2.104   6.745  0.0157  0.4705  0.8481
20389SOL     OW66486   9.410   6.963   5.156 -0.2672  0.1249  0.0322
20389SOL    HW166487   9.409   6.874   5.191 -1.3408  0.2265  0.2980
20389SOL    HW266488   9.471   7.011   5.213  1.2943 -0.7027 -0.8634
20390SOL     OW66489   5.323   2.473  10.785  0.0961 -0.2613 -0.3897
20390SOL    HW166490   5.296   2.557  10.823 -1.9677 -1.0725  0.0791
20390SOL    HW266491   5.352   2.421  10.860 -1.8285 -1.0781 -0.1465
20391SOL     OW66492   4.859   7.933   8.053  0.5118  0.0101  0.3511
20391SOL    HW166493   4.852   7.923   8.148  2.9586 -0.8082  0.4908
20391SOL    HW266494   4.902   8.018   8.041  1.0583 -0.3125  0.0183
20392SOL     OW66495   3.105   3.962   3.340  0.0065 -0.1182 -0.1389
20392SOL    HW166496   3.130   4.035   3.282 -0.8002  0.5019  0.2785
20392SOL    HW266497   3.034   3.918   3.293  2.1860 -2.3219 -1.6674
20393SOL     OW66498   9.768   0.963   9.466  0.5939 -0.1921 -0.7019
20393SOL    HW166499   9.816   1.034   9.423 -0.5670  0.5123 -0.8910
20393SOL    HW266500   9.805   0.960   9.555  1.5323 -0.2167 -1.0865
20394SOL     OW66501   5.192  11.454   6.150 -0.3313  0.5057  0.7403
20394SOL    HW166502   5.124  11.457   6.082 -0.5927 -2.2155  0.7731
20394SOL    HW266503   5.234  11.369   6.138  0.0859  0.2305  3.5479
20395SOL     OW66504   3.118   2.073   1.983 -0.0947 -0.4433  0.1951
20395SOL    HW166505   3.110   2.009   1.912  0.5914  0.4687 -0.7267
20395SOL    HW266506   3.211   2.093   1.987 -0.3752  1.0087 -0.0044
20396SOL     OW66507   3.024   4.637   3.450 -0.0683 -0.1146  0.5384
20396SOL    HW166508   3.085   4.666   3.518 -0.5342 -0.3906  1.0862
20396SOL    HW266509   2.985   4.557   3.485  2.5649 -2.6416 -1.6974
20397SOL     OW66510   8.696   0.214   9.557  0.0352  0.5745 -0.1410
20397SOL    HW166511   8.747   0.295   9.556  1.0314  0.0374  1.9167
20397SOL    HW266512   8.606   0.242   9.572  0.4887  1.2991  1.4024
20398SOL     OW66513  10.412   1.046  11.488  0.1298 -0.5564 -1.0259
20398SOL    HW166514  10.414   0.955  11.458 -0.2713 -0.3717 -1.6398
20398SOL    HW266515  10.504   1.067  11.506  0.2763 -0.9598 -1.2757
20399SOL     OW66516   7.408   6.786   9.405  0.1897 -0.0592 -0.2204
20399SOL    HW166517   7.372   6.868   9.371 -1.9385 -0.9267 -0.2466
20399SOL    HW266518   7.450   6.811   9.488  1.0255  1.2744 -1.0153
20400SOL     OW66519   1.191   7.552   1.455 -0.0339 -0.5808  0.1138
20400SOL    HW166520   1.135   7.474   1.457  0.2875 -0.8216 -0.1208
20400SOL    HW266521   1.279   7.518   1.472  0.2419 -0.3930 -0.8759
20401SOL     OW66522   6.892  10.567   8.587  0.2505 -0.0371  0.2472
20401SOL    HW166523   6.817  10.544   8.643 -0.6007  3.5638  0.8622
20401SOL    HW266524   6.968  10.557   8.643  0.0548 -1.6452  0.2865
20402SOL     OW66525   2.848  11.387   7.739  0.4384 -0.4542  0.2328
20402SOL    HW166526   2.904  11.368   7.664  0.5993  0.9524 -0.0310
20402SOL    HW266527   2.881  11.469   7.774 -1.6123  0.5861 -0.1120
20403SOL     OW66528   6.847   6.725   8.691  0.3112 -0.9847 -0.6836
20403SOL    HW166529   6.909   6.673   8.640  1.2431  2.4753 -3.4766
20403SOL    HW266530   6.897   6.801   8.720 -1.9498  0.6281 -0.7212
20404SOL     OW66531   1.168   1.080   8.946 -0.0396 -0.2617  0.0971
20404SOL    HW166532   1.140   0.989   8.936 -0.6198  0.0192 -0.9982
20404SOL    HW266533   1.186   1.090   9.039 -2.6375 -0.7462  0.7227
20405SOL     OW66534   4.030   1.517  11.717 -0.4523  0.2113 -0.3984
20405SOL    HW166535   4.019   1.422  11.721  1.1943 -0.0356 -0.9376
20405SOL    HW266536   3.942   1.552  11.734 -1.1573 -1.4000 -0.5095
20406SOL     OW66537   6.680  11.154   3.676 -0.0852  0.6515  0.5416
20406SOL    HW166538   6.597  11.137   3.632  0.0425  1.2133  0.0707
20406SOL    HW266539   6.662  11.138   3.769 -0.4950 -0.0364  0.3497
20407SOL     OW66540   5.496   0.190   1.162  0.3561 -0.2499 -0.0346
20407SOL    HW166541   5.440   0.133   1.215  0.9483 -0.1039  0.7644
20407SOL    HW266542   5.478   0.278   1.193  2.4714 -0.3325  1.7014
20408SOL     OW66543   4.097   3.661   1.180 -0.1722  0.1992 -0.2772
20408SOL    HW166544   4.111   3.592   1.114 -0.6520  0.5229 -0.7251
20408SOL    HW266545   4.073   3.738   1.129 -0.8150  0.3838  0.2903
20409SOL     OW66546   6.050   4.408   5.246 -0.0816 -0.5114  0.1932
20409SOL    HW166547   6.069   4.316   5.223  1.2926 -0.2737  0.2964
20409SOL    HW266548   6.097   4.423   5.327  1.0991  0.7464 -0.6743
20410SOL     OW66549   1.767   1.830   3.816  0.3503  0.2400 -0.1799
20410SOL    HW166550   1.821   1.877   3.880  0.2267  1.6199 -1.0317
20410SOL    HW266551   1.764   1.740   3.848  1.2631  0.6344  1.1057
20411SOL     OW66552   8.360  10.005   4.279  0.7225  0.0063 -0.0835
20411SOL    HW166553   8.352   9.985   4.372 -0.6770  0.3837 -0.1087
20411SOL    HW266554   8.310  10.086   4.267 -1.0212 -1.2225 -1.5484
20412SOL     OW66555   6.495   0.303   8.874  0.0342  0.1267  0.4320
20412SOL    HW166556   6.518   0.266   8.959 -0.3311 -1.8531 -0.2783
20412SOL    HW266557   6.401   0.284   8.864  0.3021 -0.6367 -0.8611
20413SOL     OW66558   5.905   2.448   8.580 -0.3324  0.3368  0.2482
20413SOL    HW166559   5.873   2.534   8.608 -1.4644 -0.2355  0.7619
20413SOL    HW266560   5.831   2.389   8.591  0.7845 -0.9803  1.1190
20414SOL     OW66561   7.025   3.961   4.029 -0.4072 -0.1090 -0.2073
20414SOL    HW166562   7.025   3.906   4.108 -0.3185 -1.0298 -0.8223
20414SOL    HW266563   6.932   3.968   4.005 -0.4126 -0.0776 -0.1754
20415SOL     OW66564   9.201   3.155  10.373 -0.5595  0.2493 -0.5602
20415SOL    HW166565   9.186   3.234  10.425 -0.5752  0.7216 -1.2703
20415SOL    HW266566   9.245   3.095  10.434 -0.9227  0.6406  0.1090
20416SOL     OW66567   6.168   1.230   6.449 -0.6838  0.5770  0.0289
20416SOL    HW166568   6.213   1.288   6.387  1.0465 -0.6861  0.0360
20416SOL    HW266569   6.154   1.149   6.400 -0.1438 -0.1074  0.9843
20417SOL     OW66570   9.844   9.099   2.151  0.2121 -0.1240 -0.3233
20417SOL    HW166571   9.785   9.169   2.123  1.0498  0.2947 -1.0774
20417SOL    HW266572   9.813   9.022   2.103 -2.2286 -0.9245  2.2880
20418SOL     OW66573   7.260   2.685   3.651 -0.4036  0.2074  0.0155
20418SOL    HW166574   7.278   2.630   3.575 -0.0152 -0.0693  0.2966
20418SOL    HW266575   7.318   2.761   3.640 -0.9774  0.5862 -0.3987
20419SOL     OW66576   7.735   8.972   8.541  0.6749  0.0024 -0.2975
20419SOL    HW166577   7.739   9.003   8.451  0.9780  1.5930  0.2327
20419SOL    HW266578   7.667   8.905   8.541 -0.2623  0.9328 -1.4377
20420SOL     OW66579  11.401   9.947   2.911  0.3397  0.1939  0.5656
20420SOL    HW166580  11.352   9.928   2.831  1.9983 -1.0739 -0.2247
20420SOL    HW266581  11.338   9.989   2.969 -0.3934  3.3976 -2.2380
20421SOL     OW66582   8.983   9.227   6.049  0.2798  0.4569 -0.2571
20421SOL    HW166583   9.014   9.244   5.960  1.7928  2.9631  0.6511
20421SOL    HW266584   8.901   9.276   6.055  0.3418  0.5450 -0.1521
20422SOL     OW66585   5.111   9.137   7.955 -0.4152 -0.4571 -0.7455
20422SOL    HW166586   5.138   9.125   7.864  1.1435 -1.1507 -0.2198
20422SOL    HW266587   5.029   9.186   7.949  0.1795  0.4126 -2.4781
20423SOL     OW66588   1.090   7.003   7.384  0.4013  0.2659  0.5812
20423SOL    HW166589   1.137   6.995   7.301 -1.0597 -0.9992 -0.1859
20423SOL    HW266590   1.152   7.045   7.443  2.2940 -0.8480 -0.5068
20424SOL     OW66591   0.803   5.336   6.149  0.5378 -0.4524 -0.5308
20424SOL    HW166592   0.763   5.280   6.082  0.3724 -1.7415  0.5864
20424SOL    HW266593   0.778   5.425   6.125  0.4581 -0.8831 -2.1447
20425SOL     OW66594   4.757   1.136   3.393 -0.2896  0.4300 -0.1387
20425SOL    HW166595   4.742   1.073   3.464  1.0104 -0.8002 -0.8894
20425SOL    HW266596   4.839   1.180   3.417 -0.4500  0.8350 -0.3221
20426SOL     OW66597   7.395   6.847   2.852  0.6174 -0.3243  0.3512
20426SOL    HW166598   7.419   6.890   2.770  1.1951  0.6081  0.9943
20426SOL    HW266599   7.434   6.902   2.920  1.3890 -1.8629  1.1987
20427SOL     OW66600   5.260   1.787   1.858  0.2551 -0.2216  0.0462
20427SOL    HW166601   5.319   1.760   1.930 -0.8651 -0.0370  1.0682
20427SOL    HW266602   5.280   1.879   1.845  0.0060 -0.0807  0.6025
20428SOL     OW66603   2.476   5.602   8.231  0.4317 -0.2671 -0.0644
20428SOL    HW166604   2.408   5.602   8.298 -0.2356  0.3079 -0.7211
20428SOL    HW266605   2.441   5.547   8.161  0.3881  0.4867 -0.6434
20429SOL     OW66606   5.961   0.513   2.180  0.0381  0.0921 -0.6015
20429SOL    HW166607   5.955   0.437   2.121 -0.9242  0.0594 -0.4781
20429SOL    HW266608   6.054   0.523   2.196  0.2230 -0.7015 -1.1001
20430SOL     OW66609   5.715   4.317   4.745 -0.6906 -0.1265  0.0983
20430SOL    HW166610   5.667   4.274   4.816  2.1034  0.2129  2.3843
20430SOL    HW266611   5.688   4.408   4.750 -1.5512 -0.3568 -0.2272
20431SOL     OW66612   1.004   1.505   1.982 -0.1777 -0.3344 -0.5901
20431SOL    HW166613   1.079   1.544   2.026  1.7039 -0.1695 -3.6826
20431SOL    HW266614   0.934   1.571   1.991  0.4617  0.1924  0.9804
20432SOL     OW66615   6.280   6.775   4.199  0.8949  0.2612  0.3061
20432SOL    HW166616   6.343   6.734   4.259  2.1355  1.1892 -0.3122
20432SOL    HW266617   6.240   6.845   4.250  0.0213 -0.5937  0.8323
20433SOL     OW66618  11.300   2.319   0.419 -0.4571  0.1120 -0.2681
20433SOL    HW166619  11.214   2.360   0.427  0.1814  1.5509 -0.4812
20433SOL    HW266620  11.315   2.277   0.504 -1.3173 -0.0644 -0.1982
20434SOL     OW66621   1.060   5.619   5.410 -0.1978  0.0687  0.0429
20434SOL    HW166622   0.973   5.638   5.444 -0.1226 -0.0989  0.3329
20434SOL    HW266623   1.081   5.532   5.445 -0.4483 -0.4620 -1.0826
20435SOL     OW66624   8.375   3.390  10.585  0.2237  0.3776 -0.1735
20435SOL    HW166625   8.305   3.326  10.567  0.3470  0.4645 -1.0297
20435SOL    HW266626   8.400   3.422  10.498  2.1046 -0.4638  0.0095
20436SOL     OW66627   4.117   7.413   7.523  0.0504 -0.6871 -0.2961
20436SOL    HW166628   4.196   7.437   7.571 -0.8110 -0.7838  1.2365
20436SOL    HW266629   4.131   7.322   7.496  0.0385 -1.0694  0.9278
20437SOL     OW66630   1.450   7.872   4.336 -0.4786  0.1951  0.2351
20437SOL    HW166631   1.522   7.815   4.310  0.5130  0.5803  1.9599
20437SOL    HW266632   1.491   7.958   4.350 -1.1029  0.2500  1.9725
20438SOL     OW66633   8.816   5.216   9.829 -0.2381 -0.0587  0.1217
20438SOL    HW166634   8.861   5.204   9.913  1.3037 -0.9604 -0.7828
20438SOL    HW266635   8.729   5.250   9.852 -0.7079 -2.3955  2.2557
20439SOL     OW66636   0.653   3.881   8.142 -0.0569 -0.0707  0.1725
20439SOL    HW166637   0.728   3.822   8.140 -0.8407 -1.0817 -0.4222
20439SOL    HW266638   0.622   3.883   8.051 -1.1340 -0.1906  0.5158
20440SOL     OW66639   2.771   3.633   5.182  0.4054  0.0319  0.1436
20440SOL    HW166640   2.792   3.681   5.262  1.4151 -1.2096  0.6507
20440SOL    HW266641   2.856   3.605   5.148 -0.1322 -0.9918 -0.3947
20441SOL     OW66642  11.001   7.785  11.383 -0.1593  0.3875  0.2590
20441SOL    HW166643  10.982   7.692  11.378 -0.6281  0.4511  0.7813
20441SOL    HW266644  11.095   7.789  11.402  0.4170  0.0717 -2.2007
20442SOL     OW66645   0.898   7.707   2.535 -0.1889 -0.7019  0.3200
20442SOL    HW166646   0.821   7.649   2.531  0.5779 -1.9373  2.0164
20442SOL    HW266647   0.888   7.753   2.618  0.4106 -0.1396  0.0843
20443SOL     OW66648   7.407   1.865   2.654  0.4560  0.7522  0.4629
20443SOL    HW166649   7.425   1.959   2.657  0.3327  0.8533 -1.2852
20443SOL    HW266650   7.388   1.847   2.562  0.6088 -1.0146  0.7489
20444SOL     OW66651   8.734   0.526  10.485  0.0581  0.3822  0.4013
20444SOL    HW166652   8.782   0.579  10.549  0.6711 -0.2104  0.4479
20444SOL    HW266653   8.671   0.476  10.537  0.7767 -0.3411  0.5964
20445SOL     OW66654   0.434   7.926   4.029 -0.2684 -0.3863  0.1866
20445SOL    HW166655   0.480   7.881   3.958  0.8085 -0.2377  0.7572
20445SOL    HW266656   0.361   7.869   4.051 -0.9486 -0.1718 -1.3940
20446SOL     OW66657   6.345   4.430   3.483 -0.5049 -0.2257 -0.3821
20446SOL    HW166658   6.300   4.469   3.558  1.7533  0.3639  0.7510
20446SOL    HW266659   6.379   4.504   3.434 -1.4348 -0.6315 -1.7048
20447SOL     OW66660  10.843   8.237   1.282 -0.4662  0.4671  0.2318
20447SOL    HW166661  10.857   8.331   1.284  2.2178  0.1499  0.7303
20447SOL    HW266662  10.806   8.215   1.368 -1.4912  1.0848 -0.0409
20448SOL     OW66663  11.282   8.568   3.481  0.3702  0.0563 -0.3552
20448SOL    HW166664  11.263   8.619   3.403 -1.9259 -1.3318 -0.8071
20448SOL    HW266665  11.293   8.634   3.550 -3.3209  1.3377 -0.7220
20449SOL     OW66666   0.752   7.060   6.351  0.6419  0.2307 -0.0897
20449SOL    HW166667   0.710   7.143   6.373 -2.2245 -0.9246 -0.7059
20449SOL    HW266668   0.825   7.052   6.412  0.2491  2.6281  0.7692
20450SOL     OW66669   7.944   6.056   0.580 -0.1272 -0.4954 -0.4376
20450SOL    HW166670   8.029   6.045   0.537 -0.1735  0.0503 -0.6733
20450SOL    HW266671   7.893   6.110   0.519 -0.8341 -1.2829 -0.5569
20451SOL     OW66672   9.651   5.977   3.113  0.2596 -0.3442 -0.3834
20451SOL    HW166673   9.556   5.971   3.107  0.0637 -0.1437  1.7047
20451SOL    HW266674   9.682   5.970   3.022 -1.7951  0.6958 -1.2261
20452SOL     OW66675   5.935   4.345   4.099  0.2121 -0.3357  0.3798
20452SOL    HW166676   6.020   4.302   4.091  0.5245  0.0538  1.4505
20452SOL    HW266677   5.942   4.398   4.178 -0.9802 -0.1781  0.4031
20453SOL     OW66678   6.073   7.184   9.125  0.5589 -0.1087  0.1809
20453SOL    HW166679   6.017   7.258   9.148 -0.3675 -0.6502 -0.3165
20453SOL    HW266680   6.087   7.138   9.208  0.9688  0.5010  0.4549
20454SOL     OW66681   8.891   7.079   4.774  0.5314 -0.3631 -0.2071
20454SOL    HW166682   8.899   7.108   4.865  1.5428 -0.6491 -0.1825
20454SOL    HW266683   8.877   6.984   4.781 -1.4739 -0.1145 -0.3174
20455SOL     OW66684   6.765   5.862  10.391 -0.1940 -0.2225 -0.7553
20455SOL    HW166685   6.816   5.866  10.310 -0.5367 -1.5450 -1.0733
20455SOL    HW266686   6.816   5.804  10.448  0.8787  1.9782  0.6407
20456SOL     OW66687   0.107  10.125   2.058  0.0911 -0.1782 -0.1665
20456SOL    HW166688   0.087  10.047   2.007  0.3791 -0.4012  0.0632
20456SOL    HW266689   0.153  10.183   1.997  2.0904 -1.1829  0.3233
20457SOL     OW66690   4.198   7.956  10.532  0.6285  0.5478 -0.1263
20457SOL    HW166691   4.247   7.875  10.545  1.4983  1.2244  1.0467
20457SOL    HW266692   4.258   8.025  10.559 -0.0128  1.6129 -1.3244
20458SOL     OW66693   1.272   7.289   5.480 -0.2611 -0.5831  0.2745
20458SOL    HW166694   1.256   7.314   5.571 -0.6397 -2.0868  0.6442
20458SOL    HW266695   1.188   7.304   5.437  0.1785  1.0605 -0.0828
20459SOL     OW66696  11.213   3.635   1.787  0.1629 -0.0809  0.2498
20459SOL    HW166697  11.299   3.643   1.828  1.0993 -0.5090 -1.5149
20459SOL    HW266698  11.170   3.719   1.805  1.6891  0.8990 -0.3705
20460SOL     OW66699   7.573   7.866  10.765 -0.1124  0.1329  0.1007
20460SOL    HW166700   7.544   7.778  10.789 -0.2158  0.0582 -0.2803
20460SOL    HW266701   7.493   7.918  10.766 -0.0953  0.1599  0.0628
20461SOL     OW66702   3.938   1.614  10.424  0.6588  0.0693  0.2254
20461SOL    HW166703   3.886   1.665  10.362 -0.2981 -1.8913 -0.6818
20461SOL    HW266704   3.958   1.675  10.495 -1.0846  1.4658 -0.4159
20462SOL     OW66705   5.676   1.532   4.166  0.6955 -0.3805 -0.1180
20462SOL    HW166706   5.698   1.551   4.075  0.6819  0.1885 -0.0055
20462SOL    HW266707   5.621   1.453   4.161 -0.5057  0.4583 -0.7294
20463SOL     OW66708  10.446  11.278   9.398  0.0757 -0.1487  0.1919
20463SOL    HW166709  10.351  11.273   9.393  0.1086  0.2582 -2.4649
20463SOL    HW266710  10.467  11.260   9.489 -2.4836 -1.1051  0.6559
20464SOL     OW66711  10.870   0.323   6.378  0.1003 -0.3281  0.5581
20464SOL    HW166712  10.883   0.415   6.401  0.0675 -0.2760  0.3654
20464SOL    HW266713  10.958   0.291   6.359  0.0760 -0.2618  0.3395
20465SOL     OW66714   1.234   8.221  11.246  0.3606  0.1643 -0.4251
20465SOL    HW166715   1.329   8.231  11.243  0.6292 -1.7157  0.3780
20465SOL    HW266716   1.201   8.308  11.268  1.8408  0.9530 -1.1788
20466SOL     OW66717  10.780   2.544   0.923 -0.0655 -0.0352  0.2050
20466SOL    HW166718  10.765   2.527   1.016  0.8484  0.5095  0.4647
20466SOL    HW266719  10.724   2.619   0.903 -0.0718  0.0055  0.3754
20467SOL     OW66720   9.004   4.692  11.671  0.0575 -0.0757 -0.5296
20467SOL    HW166721   9.046   4.613  11.703  0.6944 -0.3383 -1.9586
20467SOL    HW266722   9.068   4.762  11.686  0.1749 -0.1219 -0.8135
20468SOL     OW66723  11.230   1.780   2.147 -0.0351  0.0154  0.2456
20468SOL    HW166724  11.298   1.740   2.200  1.6814 -0.8073 -2.3973
20468SOL    HW266725  11.242   1.874   2.159 -0.2500 -0.1379  1.8988
20469SOL     OW66726  10.347  10.737  10.344 -0.0035 -0.0411 -0.1845
20469SOL    HW166727  10.368  10.682  10.269  0.2744 -2.7738  1.7668
20469SOL    HW266728  10.252  10.728  10.355  0.1804 -0.9592  0.7277
20470SOL     OW66729  10.649   0.806   5.656  0.1449 -0.3680 -0.3337
20470SOL    HW166730  10.592   0.743   5.611 -0.0262 -0.3155 -0.1884
20470SOL    HW266731  10.685   0.757   5.730  0.3562 -0.4269 -0.4746
20471SOL     OW66732   0.468   8.611   7.309 -0.1599 -0.3258  0.5593
20471SOL    HW166733   0.449   8.563   7.389  0.5682 -1.2975  0.1589
20471SOL    HW266734   0.551   8.654   7.326 -1.1668  1.4859  1.2034
20472SOL     OW66735   0.913   9.097   4.104  0.0431 -0.4408 -0.3287
20472SOL    HW166736   0.854   9.166   4.072 -0.4491 -0.4193  0.5848
20472SOL    HW266737   0.995   9.143   4.124 -0.2227 -0.1437  0.1024
20473SOL     OW66738   3.418   9.081  10.329  0.4310  0.0727  0.4330
20473SOL    HW166739   3.430   9.021  10.256  2.0298  0.1219  0.6209
20473SOL    HW266740   3.325   9.075  10.350 -0.4096  1.1501 -2.5386
20474SOL     OW66741   0.001   5.626   9.459 -0.2178  0.3431 -0.0161
20474SOL    HW166742  -0.081   5.595   9.422  0.4830 -1.3517 -0.2100
20474SOL    HW266743  -0.001   5.721   9.445 -1.3077  0.1064 -1.6808
20475SOL     OW66744   5.757   0.623   1.876  0.3341 -0.4930 -1.1505
20475SOL    HW166745   5.840   0.661   1.905  0.0871 -0.5543 -0.3567
20475SOL    HW266746   5.708   0.606   1.956 -0.3727 -0.6406 -1.6011
20476SOL     OW66747   7.158   8.832   8.264  0.4303 -0.1352 -0.2886
20476SOL    HW166748   7.074   8.790   8.285  0.4530  0.9515  2.5298
20476SOL    HW266749   7.156   8.914   8.315  2.6771  0.5251 -1.1707
20477SOL     OW66750   9.643   9.536   3.647  0.7515  0.0671  0.2350
20477SOL    HW166751   9.661   9.630   3.655  1.1221 -0.0653  1.1003
20477SOL    HW266752   9.730   9.496   3.642  0.6097 -0.2805  0.5768
20478SOL     OW66753   4.089   7.700   3.049 -0.4103  0.3506 -0.1792
20478SOL    HW166754   4.066   7.712   2.956  0.1196  0.0368 -0.3504
20478SOL    HW266755   4.083   7.788   3.086 -0.4350  0.5085 -0.5513
20479SOL     OW66756  10.210   7.068   8.096 -0.0881  0.8117  0.2125
20479SOL    HW166757  10.281   7.112   8.143  1.2174 -0.2681 -0.6644
20479SOL    HW266758  10.247   7.048   8.010 -1.8210  1.1393 -0.6483
20480SOL     OW66759  10.016   6.347   2.732  0.1630 -0.2683  0.4126
20480SOL    HW166760   9.957   6.313   2.800 -0.9260  1.1741  0.2409
20480SOL    HW266761  10.069   6.413   2.778  1.1661 -1.0448  0.3986
20481SOL     OW66762   8.299   2.489   9.008 -0.3412 -0.0707  0.4008
20481SOL    HW166763   8.256   2.476   8.924 -0.3246 -0.4443  0.4475
20481SOL    HW266764   8.364   2.419   9.013  0.9513  1.0530 -0.1038
20482SOL     OW66765   6.967   3.885  11.288 -0.1252  0.4883  0.0548
20482SOL    HW166766   7.040   3.942  11.310 -0.4750  0.9849 -0.0768
20482SOL    HW266767   7.009   3.805  11.254  0.3485  1.1308 -0.9186
20483SOL     OW66768   7.519   3.770   0.162  0.4622 -0.1180 -0.4970
20483SOL    HW166769   7.474   3.788   0.079  0.0211 -1.3907 -0.5632
20483SOL    HW266770   7.608   3.747   0.136  1.0788  1.9661 -0.3992
20484SOL     OW66771   9.661   1.894   3.684 -0.1405  0.5638 -0.2224
20484SOL    HW166772   9.606   1.844   3.625 -1.4435  0.1698  1.2679
20484SOL    HW266773   9.673   1.979   3.641 -0.5524  0.0837 -1.3017
20485SOL     OW66774   1.979   6.065   0.299  0.0211 -0.1084  0.2259
20485SOL    HW166775   1.930   6.083   0.379 -3.7868 -1.8780 -1.4416
20485SOL    HW266776   2.058   6.019   0.328 -1.7270 -1.6109  2.9227
20486SOL     OW66777  10.387   4.078   2.610  0.1104  0.6749 -0.1424
20486SOL    HW166778  10.302   4.036   2.601 -0.2495  1.5545 -1.0714
20486SOL    HW266779  10.384   4.120   2.696 -0.0276 -0.0488  0.2195
20487SOL     OW66780   5.865   9.679   5.209  0.2975  0.0572  0.0949
20487SOL    HW166781   5.871   9.716   5.297  1.6287  0.8776 -0.3005
20487SOL    HW266782   5.825   9.748   5.156  0.1786 -0.1439 -0.0781
20488SOL     OW66783   1.934   1.456   1.128 -0.3314  0.0228  0.3791
20488SOL    HW166784   2.008   1.516   1.119 -0.6764  0.3254 -0.5644
20488SOL    HW266785   1.886   1.489   1.204  0.0792  0.2857  0.5291
20489SOL     OW66786   4.921   3.211   6.762 -0.6599 -0.5960 -0.0264
20489SOL    HW166787   4.906   3.213   6.667 -0.6150 -0.5540 -0.0325
20489SOL    HW266788   4.849   3.159   6.796  0.1129 -1.8597 -0.2405
20490SOL     OW66789   7.403  10.494   7.233 -0.2660 -0.2210 -0.3555
20490SOL    HW166790   7.460  10.523   7.305 -1.2654  1.4935 -0.1801
20490SOL    HW266791   7.425  10.402   7.221  1.1436 -0.1212  0.9981
20491SOL     OW66792   1.404  11.311   6.389  0.1033 -0.5257 -0.7321
20491SOL    HW166793   1.408  11.241   6.455  0.9576 -1.2343 -1.5150
20491SOL    HW266794   1.491  11.313   6.350  0.1428  1.0969 -0.6327
20492SOL     OW66795   2.038  10.720   5.008 -0.3676  0.1623  0.1144
20492SOL    HW166796   2.099  10.790   5.031  1.7915 -2.0432  1.4947
20492SOL    HW266797   1.992  10.700   5.089 -1.3918  0.3142 -0.4076
20493SOL     OW66798   1.115   4.575   8.246 -0.0145 -0.6792  0.4023
20493SOL    HW166799   1.123   4.670   8.250 -0.8009 -0.4437 -1.8251
20493SOL    HW266800   1.167   4.543   8.319  0.9745  1.4336  0.6967
20494SOL     OW66801   2.599   7.346  11.639  0.5269 -0.2205  0.3184
20494SOL    HW166802   2.505   7.350  11.660  0.3080  0.5531 -0.7382
20494SOL    HW266803   2.638   7.301  11.714 -0.4939  0.7026  1.4545
20495SOL     OW66804  10.571  11.106   1.115  0.7543  0.3439  0.3740
20495SOL    HW166805  10.604  11.021   1.144  0.1746  0.1691  0.5385
20495SOL    HW266806  10.575  11.101   1.019 -0.0529 -0.1887  0.3592
20496SOL     OW66807   4.472   3.881   2.734 -0.1416 -0.2506  0.1555
20496SOL    HW166808   4.455   3.843   2.820  0.4329  0.4806  0.5974
20496SOL    HW266809   4.433   3.968   2.739 -0.7047 -0.4545 -0.5620
20497SOL     OW66810   9.915   2.165   3.142 -0.2968 -0.0782 -0.1672
20497SOL    HW166811   9.855   2.091   3.144 -0.0563 -0.2709 -0.0135
20497SOL    HW266812   9.879   2.228   3.204 -0.0369 -0.4302  0.3458
20498SOL     OW66813   8.236   1.010   7.887 -0.2289 -0.3285  0.3930
20498SOL    HW166814   8.245   1.105   7.888  2.0770 -0.5027  0.2204
20498SOL    HW266815   8.277   0.981   7.968  0.3014 -1.2504 -0.1860
20499SOL     OW66816  10.601  11.479  11.566 -0.1340  0.2000  0.2753
20499SOL    HW166817  10.524  11.460  11.619  0.5460  0.4894  1.3893
20499SOL    HW266818  10.600  11.412  11.498 -0.3361 -0.9496  1.3749
20500SOL     OW66819   0.904   4.167   8.145 -0.1464  0.1209 -0.3603
20500SOL    HW166820   0.916   4.082   8.187  1.0665  0.0347 -0.8713
20500SOL    HW266821   0.818   4.160   8.103 -0.2826 -0.6656  0.0221
20501SOL     OW66822  10.944   0.386  10.897  0.0408  0.4690  0.0297
20501SOL    HW166823  10.945   0.327  10.973  2.6918 -0.8959 -0.9638
20501SOL    HW266824  11.020   0.361  10.846  0.1340  3.4795 -1.5065
20502SOL     OW66825   5.366   0.979   2.747  0.0069 -0.1248 -0.0747
20502SOL    HW166826   5.458   0.971   2.722  0.1283 -0.2993  0.4208
20502SOL    HW266827   5.323   0.906   2.702  0.3733 -0.9790  0.8946
20503SOL     OW66828   1.885   5.755   5.968  0.8113  0.4678  0.1201
20503SOL    HW166829   1.981   5.751   5.970  0.8114  0.7184  0.7347
20503SOL    HW266830   1.861   5.799   6.050  0.2562  1.7524 -0.6899
20504SOL     OW66831   4.129   6.705   2.503  0.5254 -0.4162 -0.5779
20504SOL    HW166832   4.151   6.612   2.506 -0.3730 -0.6354  2.9459
20504SOL    HW266833   4.033   6.708   2.513  0.7062  0.8389  1.4354
20505SOL     OW66834  10.923   0.669   8.777  0.0701 -0.1557  0.0881
20505SOL    HW166835  10.942   0.657   8.684 -1.8465 -0.1014 -0.3509
20505SOL    HW266836  10.945   0.585   8.818 -1.1909 -0.9488 -0.8108
20506SOL     OW66837   1.602   1.724   0.326 -0.4344 -0.1117 -0.7380
20506SOL    HW166838   1.649   1.647   0.292  1.3785  0.6998 -0.1929
20506SOL    HW266839   1.671   1.782   0.357 -1.7472  1.8619 -1.3409
20507SOL     OW66840  10.210   2.618   4.434 -0.5722 -0.4702 -0.4058
20507SOL    HW166841  10.122   2.638   4.404 -0.8500 -0.5571  0.3195
20507SOL    HW266842  10.233   2.690   4.492  0.0553 -0.1705 -1.0092
20508SOL     OW66843   6.984   3.110   2.821 -0.0809 -0.0856 -0.4425
20508SOL    HW166844   6.903   3.093   2.869  0.0855 -0.9861 -0.4680
20508SOL    HW266845   6.993   3.036   2.761  1.4563 -0.6930  0.4971
20509SOL     OW66846   6.826   3.486  11.279  0.2684 -0.6024 -0.8028
20509SOL    HW166847   6.812   3.562  11.224  1.9874 -0.9814 -1.8458
20509SOL    HW266848   6.794   3.412  11.228 -1.5458 -0.6175  0.2701
20510SOL     OW66849  10.182   2.047   5.914  0.6745 -0.0326 -0.1568
20510SOL    HW166850  10.159   2.106   5.842 -0.0769  1.3247  1.1430
20510SOL    HW266851  10.263   2.083   5.950  1.5063 -1.1862 -0.7902
20511SOL     OW66852   3.235   0.958   0.149  0.0533 -0.0578  0.2961
20511SOL    HW166853   3.160   1.009   0.119  0.2978 -0.1910 -0.5591
20511SOL    HW266854   3.197   0.895   0.210 -0.2761  1.0260  1.2494
20512SOL     OW66855   9.680  11.243   4.989 -0.1102  0.0569  0.0886
20512SOL    HW166856   9.623  11.225   5.064 -0.9174  0.8494 -0.3059
20512SOL    HW266857   9.730  11.162   4.976  0.1862 -0.0164  1.5901
20513SOL     OW66858   3.598   9.885   1.953 -0.1940 -0.2036  0.1553
20513SOL    HW166859   3.548   9.953   1.908  1.0581  0.7541  0.1693
20513SOL    HW266860   3.653   9.846   1.884  0.4380  0.0669  0.4980
20514SOL     OW66861   3.549   9.567   9.794  0.5269  0.2432 -0.4506
20514SOL    HW166862   3.574   9.593   9.705  1.1357 -0.3589 -0.4640
20514SOL    HW266863   3.629   9.530   9.832 -0.4653 -2.3980 -0.7210
20515SOL     OW66864   6.965   1.222   9.932 -0.0122 -0.1850 -0.0668
20515SOL    HW166865   6.955   1.279  10.008 -1.4679  0.3567 -0.6327
20515SOL    HW266866   6.942   1.135   9.964 -3.4265  0.4484 -0.4482
20516SOL     OW66867   1.997   2.522  10.864  0.2266 -0.0272  0.1893
20516SOL    HW166868   2.014   2.462  10.937 -1.2568  0.4052  0.9118
20516SOL    HW266869   1.914   2.563  10.885  0.6825  1.5041 -0.8387
20517SOL     OW66870   1.320   8.978  10.735  0.1166  0.4856 -0.4087
20517SOL    HW166871   1.387   8.915  10.759  1.5067  1.9501 -0.2507
20517SOL    HW266872   1.366   9.042  10.680 -1.3101  1.1754 -0.8494
20518SOL     OW66873  10.007   8.902   6.971  0.3235  0.0162  0.0573
20518SOL    HW166874  10.078   8.963   6.953  0.3974  0.1288  0.7072
20518SOL    HW266875  10.039   8.818   6.938  1.1105 -0.1081  1.0847
20519SOL     OW66876   2.443   5.115   0.343  0.1289 -0.1478 -0.5445
20519SOL    HW166877   2.361   5.099   0.297  0.5409 -0.6126 -1.1205
20519SOL    HW266878   2.434   5.203   0.379 -0.7112 -0.2845 -0.4133
20520SOL     OW66879   0.105   8.627   6.526 -0.3645 -0.0434  0.2567
20520SOL    HW166880   0.190   8.663   6.551 -0.5143 -0.6899  1.7873
20520SOL    HW266881   0.123   8.536   6.503 -0.4996  0.0947 -0.4254
20521SOL     OW66882   0.532   8.258   6.107  1.0997  0.2004 -0.4179
20521SOL    HW166883   0.463   8.268   6.042  0.4647  1.2657  0.3801
20521SOL    HW266884   0.488   8.272   6.191  1.7673 -1.7413  0.3221
20522SOL     OW66885   9.135   4.436   2.984  0.0959 -0.1885 -0.0488
20522SOL    HW166886   9.209   4.435   2.923  0.2892 -1.0183  0.1881
20522SOL    HW266887   9.143   4.354   3.032 -0.7010 -0.0537  0.3204
20523SOL     OW66888   6.326   6.571   4.013 -0.4282  0.3289  0.1812
20523SOL    HW166889   6.298   6.638   4.075 -0.6029 -0.7466  1.3028
20523SOL    HW266890   6.316   6.489   4.060  0.9074 -0.4098 -0.7451
20524SOL     OW66891   3.263  11.368   6.887  0.3220 -0.1258 -0.3676
20524SOL    HW166892   3.169  11.350   6.884  0.7169 -2.5829 -0.5845
20524SOL    HW266893   3.288  11.379   6.795  0.3804 -0.4062 -0.3871
20525SOL     OW66894  11.229   7.513   5.800  0.4397 -0.0312  0.5867
20525SOL    HW166895  11.170   7.442   5.825  0.7145 -0.1884  0.7878
20525SOL    HW266896  11.274   7.481   5.722 -1.5598  1.0682 -1.1104
20526SOL     OW66897   4.870   3.802  11.030 -0.2473  0.1094 -0.3338
20526SOL    HW166898   4.871   3.883  11.081  0.8433 -0.3920  0.4878
20526SOL    HW266899   4.943   3.810  10.969 -0.1412 -0.2356 -0.2596
20527SOL     OW66900   7.832   2.459  11.373 -0.3896  0.7843 -0.3197
20527SOL    HW166901   7.855   2.367  11.387 -2.6342  0.2248  0.1210
20527SOL    HW266902   7.913   2.501  11.346  0.7561 -1.2633 -0.2069
20528SOL     OW66903   5.185   4.567   8.564  0.1510  0.5271 -0.1172
20528SOL    HW166904   5.184   4.475   8.536 -0.0858  0.1944  0.9334
20528SOL    HW266905   5.164   4.617   8.485  0.9816 -0.2720 -0.8708
20529SOL     OW66906   0.293   6.389   8.818  0.4426 -0.5757 -0.0311
20529SOL    HW166907   0.311   6.388   8.723 -0.2755  0.5654 -0.1957
20529SOL    HW266908   0.359   6.330   8.855  2.2351  0.7091 -1.0008
20530SOL     OW66909   8.911  10.752   9.539  0.0128 -0.3682  0.3103
20530SOL    HW166910   8.927  10.768   9.632  1.1218 -1.5448  0.3509
20530SOL    HW266911   8.859  10.671   9.537  0.7316 -0.8360 -0.1009
20531SOL     OW66912   4.739   2.982   7.606 -0.4668  0.1223  0.0922
20531SOL    HW166913   4.703   3.070   7.599 -0.3009  0.0920 -1.5574
20531SOL    HW266914   4.666   2.928   7.635 -0.8681  0.6057 -0.0125
20532SOL     OW66915   1.780   7.990   3.535  0.1982  0.0598 -0.2560
20532SOL    HW166916   1.749   8.080   3.544  0.3280  0.2028 -1.1392
20532SOL    HW266917   1.844   7.993   3.464 -0.2430 -0.8284 -0.7108
20533SOL     OW66918  10.595   1.092   2.094 -0.3333  0.2290  0.0811
20533SOL    HW166919  10.554   1.136   2.169  0.3750 -0.5075  0.9115
20533SOL    HW266920  10.686   1.123   2.095 -0.1120 -0.4022  0.0200
20534SOL     OW66921  11.080   2.864   7.856 -0.5971 -0.3598 -0.3528
20534SOL    HW166922  11.084   2.913   7.938  0.3356 -1.1452  0.0849
20534SOL    HW266923  11.010   2.907   7.807  0.5330  1.7841 -0.2391
20535SOL     OW66924   1.710   2.479   6.509  0.2685  0.1548  0.1802
20535SOL    HW166925   1.805   2.482   6.512  0.2990 -1.0028  1.7028
20535SOL    HW266926   1.682   2.568   6.528  1.0400  0.3563  0.4055
20536SOL     OW66927   7.378   7.722   3.803  0.1011  0.5129  0.5627
20536SOL    HW166928   7.399   7.640   3.848  0.3146 -0.4692 -1.2252
20536SOL    HW266929   7.289   7.710   3.771 -0.0010  1.1348  0.6025
20537SOL     OW66930   9.480   5.585   3.774  0.4387  0.3641  0.1442
20537SOL    HW166931   9.453   5.645   3.844 -0.0934 -1.0503  1.1894
20537SOL    HW266932   9.575   5.594   3.771  0.6883 -0.8068  2.3021
20538SOL     OW66933   8.171  11.380   5.912  0.4116  0.2957  0.4339
20538SOL    HW166934   8.092  11.362   5.861  0.6612  0.5742 -0.0655
20538SOL    HW266935   8.139  11.406   5.998 -0.0419  0.5238  0.1986
20539SOL     OW66936   8.360   2.205   1.986 -0.2347  0.0343  0.2629
20539SOL    HW166937   8.394   2.265   1.920 -0.0931 -0.7144 -0.3467
20539SOL    HW266938   8.436   2.182   2.039 -0.7457  2.6301  2.3538
20540SOL     OW66939   9.847   5.056   5.291 -0.1419  0.1907  0.4170
20540SOL    HW166940   9.923   4.997   5.282 -0.1918  0.3118 -1.2308
20540SOL    HW266941   9.772   5.000   5.270 -0.3917  0.3635  0.8501
20541SOL     OW66942   3.685   1.367   6.051 -0.4790 -0.5146  0.2986
20541SOL    HW166943   3.765   1.318   6.031  0.1393  1.1106 -1.6105
20541SOL    HW266944   3.628   1.353   5.976 -0.6937  0.8157  0.1738
20542SOL     OW66945   5.513   7.281   4.565 -0.1844 -0.1318 -0.1975
20542SOL    HW166946   5.489   7.261   4.656  0.1984 -0.2700 -0.1251
20542SOL    HW266947   5.604   7.252   4.557  0.0114  0.5262 -0.4214
20543SOL     OW66948   9.813   1.582  10.251 -0.0025 -0.0198 -0.5135
20543SOL    HW166949   9.866   1.608  10.326 -0.2143 -0.4110 -0.2270
20543SOL    HW266950   9.876   1.541  10.191 -0.3776 -3.3514  1.1483
20544SOL     OW66951  10.794   2.257  10.883 -0.5873 -0.2584 -0.2479
20544SOL    HW166952  10.812   2.333  10.827  0.6840 -1.2828 -1.3099
20544SOL    HW266953  10.880   2.217  10.897 -1.0076 -0.5689  1.7036
20545SOL     OW66954   4.455   3.769   4.495  0.0689  0.0249 -0.2934
20545SOL    HW166955   4.449   3.734   4.406 -1.2973 -2.3079  0.6349
20545SOL    HW266956   4.512   3.708   4.542 -1.1682 -0.1818  1.0103
20546SOL     OW66957  11.314   7.520  11.629 -0.7458  0.3846  0.0501
20546SOL    HW166958  11.265   7.577  11.688  0.2110  0.2967  0.9622
20546SOL    HW266959  11.336   7.577  11.555  0.0479  1.1833  0.8660
20547SOL     OW66960   8.003  11.039  10.584 -0.7256  0.0881  0.3546
20547SOL    HW166961   8.035  11.080  10.504  0.3805 -1.9358 -0.3381
20547SOL    HW266962   7.929  10.985  10.555 -1.4273  0.6822  1.0190
20548SOL     OW66963   2.093   9.189   5.874  0.5520 -0.6011 -0.4688
20548SOL    HW166964   2.159   9.255   5.857 -1.1367  1.2652 -0.1247
20548SOL    HW266965   2.011   9.228   5.845 -0.5633 -2.4520 -0.0002
20549SOL     OW66966   4.789   2.586   7.363 -0.3766 -0.2112  0.5076
20549SOL    HW166967   4.705   2.584   7.408  0.2079 -0.7773  1.6066
20549SOL    HW266968   4.846   2.638   7.420 -0.3579  1.5237 -0.9646
20550SOL     OW66969   3.546   8.584   6.919 -0.1946 -0.3681 -0.2936
20550SOL    HW166970   3.579   8.585   6.830  1.3424 -1.4508  0.2205
20550SOL    HW266971   3.624   8.594   6.974 -1.1218  0.4339  0.9366
20551SOL     OW66972   2.408   8.559   6.587 -0.1826 -0.1080  0.1508
20551SOL    HW166973   2.378   8.649   6.582 -0.5260 -0.2712 -1.2460
20551SOL    HW266974   2.414   8.531   6.495  0.0872 -1.4403  0.5539
20552SOL     OW66975   0.880   8.897   1.176 -0.0425  0.3218  0.2980
20552SOL    HW166976   0.811   8.963   1.183 -0.5631 -0.3678  2.9284
20552SOL    HW266977   0.947   8.927   1.237 -0.2130 -1.4118  1.4166
20553SOL     OW66978   1.584  11.006   9.097 -0.3160 -0.1962 -0.2815
20553SOL    HW166979   1.497  11.038   9.074 -1.9251 -1.8235  2.8683
20553SOL    HW266980   1.639  11.084   9.102 -2.3794  1.2789  0.5984
20554SOL     OW66981   7.185   1.996   9.354 -0.4067  0.3390  0.7364
20554SOL    HW166982   7.091   2.004   9.371 -0.4518 -0.4291  0.9180
20554SOL    HW266983   7.200   2.045   9.274 -1.0136  0.2558  0.5683
20555SOL     OW66984   2.388   8.827   2.442 -0.4415 -0.1148 -0.4210
20555SOL    HW166985   2.361   8.785   2.360 -0.2911  0.3300 -0.7013
20555SOL    HW266986   2.442   8.762   2.487  0.1395 -0.0701 -1.0459
20556SOL     OW66987   1.447  10.829   6.340 -0.1777 -0.1927 -0.4299
20556SOL    HW166988   1.496  10.784   6.409 -1.9117 -0.8748  0.4303
20556SOL    HW266989   1.463  10.777   6.261  0.3952 -0.4545 -0.1444
20557SOL     OW66990   0.201   4.364   9.968  0.1231 -0.3299  0.3157
20557SOL    HW166991   0.204   4.332  10.058 -0.1546  1.0950  0.8491
20557SOL    HW266992   0.113   4.399   9.958  0.1824 -0.3942 -0.4887
20558SOL     OW66993   2.482   7.888   1.529  0.3716  0.6655  0.0721
20558SOL    HW166994   2.560   7.857   1.575 -0.2911 -0.2257  0.6308
20558SOL    HW266995   2.503   7.978   1.503  1.5504  0.4603  0.2691
20559SOL     OW66996  10.140   8.070   0.359  0.2450 -0.0638  0.0209
20559SOL    HW166997  10.146   8.001   0.293 -1.0444 -0.9601  0.7924
20559SOL    HW266998  10.192   8.037   0.433 -0.7881 -0.4779  0.5860
20560SOL     OW66999   8.831   3.014   6.104 -0.0952  0.3429  0.2324
20560SOL    HW167000   8.856   3.002   6.012 -1.7244  0.1661 -0.2099
20560SOL    HW267001   8.869   2.938   6.149 -2.8617 -2.0101 -1.0630
20561SOL     OW67002   9.232   5.577   1.233 -0.7327  0.3310 -0.2713
20561SOL    HW167003   9.213   5.504   1.293  0.6590 -0.8157 -1.1597
20561SOL    HW267004   9.312   5.616   1.267 -0.8458  0.7308 -0.4632
20562SOL     OW67005   0.617   0.244  11.144  0.3659  0.2086 -0.1085
20562SOL    HW167006   0.690   0.183  11.132  1.0277  0.4548  2.2274
20562SOL    HW267007   0.622   0.270  11.236 -3.3381 -0.5981  0.4959
20563SOL     OW67008   9.817   3.231   1.565  0.0698  0.9076 -0.7733
20563SOL    HW167009   9.758   3.163   1.534  1.8290 -0.8621 -0.4524
20563SOL    HW267010   9.764   3.311   1.564 -1.7535 -0.2275 -2.2244
20564SOL     OW67011   8.624   2.343   8.237  0.0554 -0.1492  0.3796
20564SOL    HW167012   8.641   2.250   8.224  0.2202 -0.2051  0.9598
20564SOL    HW267013   8.690   2.370   8.301  1.5255  0.8910 -1.4622
20565SOL     OW67014  10.117   0.568  10.308 -0.0655 -0.0223 -0.1663
20565SOL    HW167015  10.090   0.582  10.399  0.0073  0.8501 -0.2760
20565SOL    HW267016  10.165   0.485  10.310 -0.6294 -0.3432  0.4694
20566SOL     OW67017   5.164  10.119   5.533 -0.0182  0.2438  0.7920
20566SOL    HW167018   5.173  10.115   5.438  0.6871  0.6558  0.8405
20566SOL    HW267019   5.105  10.046   5.554  0.5296 -0.3974  0.1381
20567SOL     OW67020   7.617   5.198   7.001  0.1972  0.2079 -0.0119
20567SOL    HW167021   7.671   5.186   7.079  0.1261 -2.0447 -0.2201
20567SOL    HW267022   7.528   5.206   7.035  0.1259 -1.1079  0.1677
20568SOL     OW67023   1.445   0.122  10.758 -0.2280  0.5069 -0.1461
20568SOL    HW167024   1.500   0.044  10.751  0.3175  0.9389 -0.7234
20568SOL    HW267025   1.356   0.087  10.771  0.0333 -0.2044 -0.2258
20569SOL     OW67026  11.167   7.298  11.612 -0.3106 -0.7642 -0.2099
20569SOL    HW167027  11.222   7.376  11.619  1.3380 -1.8287 -0.7889
20569SOL    HW267028  11.189   7.246  11.690 -0.6123 -1.1360 -0.3664
20570SOL     OW67029   8.609   5.921   7.268 -0.2446 -0.1338  0.3481
20570SOL    HW167030   8.628   6.014   7.260 -0.5577  0.0123  1.1828
20570SOL    HW267031   8.663   5.879   7.201 -1.0388  0.7497 -0.8644
20571SOL     OW67032   5.230   4.619   5.369 -1.0190 -0.0686  0.5365
20571SOL    HW167033   5.296   4.570   5.320 -2.3496  0.5398 -2.0661
20571SOL    HW267034   5.206   4.561   5.442 -1.1451 -2.4925 -1.2937
20572SOL     OW67035   5.617   6.234   3.366  0.2350 -0.2898  0.2635
20572SOL    HW167036   5.583   6.309   3.416 -3.4502 -2.0604  0.7468
20572SOL    HW267037   5.702   6.216   3.406  0.5517  2.6160  1.1762
20573SOL     OW67038   4.686   5.648   7.436 -0.3617 -0.1878  0.5290
20573SOL    HW167039   4.607   5.610   7.398 -0.5803  0.2761  0.5158
20573SOL    HW267040   4.757   5.611   7.384 -0.6982  1.0433 -0.8722
20574SOL     OW67041   1.802   5.047   3.441 -0.2677  0.1164  0.3334
20574SOL    HW167042   1.892   5.029   3.413 -0.4581 -0.2704 -0.0522
20574SOL    HW267043   1.760   4.960   3.443 -0.9123  0.3923 -0.5030
20575SOL     OW67044   2.400   9.361   5.219  0.4107 -0.2227 -0.2179
20575SOL    HW167045   2.446   9.278   5.210 -0.4451 -0.6783 -0.4009
20575SOL    HW267046   2.451   9.422   5.165  0.3115 -0.9242 -1.1213
20576SOL     OW67047   9.536   4.668   8.300 -0.0932 -0.1068  0.4813
20576SOL    HW167048   9.542   4.758   8.332  0.0679  0.0953 -0.1053
20576SOL    HW267049   9.485   4.622   8.367 -0.0263  0.3787  0.8695
20577SOL     OW67050   4.242   4.565  10.829 -0.6697  0.0208 -0.0925
20577SOL    HW167051   4.152   4.544  10.854 -0.7040  0.7276  0.4376
20577SOL    HW267052   4.233   4.643  10.773 -0.3745  0.2331  0.1561
20578SOL     OW67053   2.821   0.907  10.275  0.3196  0.2332 -0.2178
20578SOL    HW167054   2.816   0.926  10.181 -1.4501  0.3969 -0.1227
20578SOL    HW267055   2.888   0.839  10.282 -1.7495 -2.1538 -2.0013
20579SOL     OW67056   3.020   5.835  10.789  0.2312 -0.0885  0.1412
20579SOL    HW167057   2.933   5.868  10.812 -0.0469  1.5958 -2.8183
20579SOL    HW267058   3.079   5.882  10.848 -0.7478 -0.5427  1.5378
20580SOL     OW67059   6.011  10.953   9.437  0.4666  0.7807 -0.3916
20580SOL    HW167060   6.031  10.897   9.512  0.8766  0.3868 -0.7875
20580SOL    HW267061   6.076  11.024   9.441 -0.1403  1.3139  0.1893
20581SOL     OW67062   4.292   4.932   4.668 -0.6903  0.2135 -0.6671
20581SOL    HW167063   4.213   4.954   4.718  0.0960 -0.3180  0.8634
20581SOL    HW267064   4.340   5.014   4.662 -0.3851  0.1134  0.2285
20582SOL     OW67065   3.808   1.995   5.165 -0.6022 -0.3961  0.0290
20582SOL    HW167066   3.774   1.944   5.238  0.8530 -0.2243  0.8749
20582SOL    HW267067   3.866   2.059   5.206 -1.5441  1.2409 -1.1046
20583SOL     OW67068   9.304  11.470   4.957 -0.0594  0.9775  0.0568
20583SOL    HW167069   9.399  11.467   4.947 -0.1240  0.0957 -0.4608
20583SOL    HW267070   9.270  11.476   4.868 -0.5220 -0.9105  0.0570
20584SOL     OW67071   9.223   1.169  11.684 -0.0318 -0.1044  0.0418
20584SOL    HW167072   9.191   1.258  11.668 -1.1314 -0.3540  0.6774
20584SOL    HW267073   9.300   1.160  11.628 -0.7900  0.7288 -1.1845
20585SOL     OW67074   1.621   6.630   1.545  0.1408 -0.2678  0.3172
20585SOL    HW167075   1.675   6.682   1.604 -0.8601  1.3072 -0.1101
20585SOL    HW267076   1.680   6.609   1.472  0.4807  0.5421  0.3478
20586SOL     OW67077   6.332   7.438   8.066 -0.3547  0.0115 -0.4403
20586SOL    HW167078   6.337   7.410   8.158  0.5158 -0.5403 -0.6474
20586SOL    HW267079   6.391   7.379   8.020  0.0365  0.9787 -1.2029
20587SOL     OW67080   9.521   8.178   8.473 -0.1747  0.7881  0.1230
20587SOL    HW167081   9.512   8.112   8.542 -0.7824 -0.6910 -1.3101
20587SOL    HW267082   9.571   8.134   8.405  0.3208  2.1839 -0.4516
20588SOL     OW67083   8.361   7.799   1.085  0.1888  0.2052  0.1273
20588SOL    HW167084   8.410   7.777   1.006  0.2323 -0.0713  0.2282
20588SOL    HW267085   8.384   7.890   1.104  1.3173 -0.1711  0.6469
20589SOL     OW67086   6.632   9.908   9.176 -0.0658  0.1047  0.2082
20589SOL    HW167087   6.713   9.956   9.189 -0.3456  0.9817 -1.0080
20589SOL    HW267088   6.656   9.816   9.184  0.5871  0.3984  2.0664
20590SOL     OW67089   2.113   7.572   5.066  0.1493  0.7155 -0.3835
20590SOL    HW167090   2.104   7.536   5.154  2.7523  1.3864  0.2476
20590SOL    HW267091   2.024   7.575   5.032 -1.0151  0.9887  2.4340
20591SOL     OW67092   3.660   7.723   9.151 -0.4678 -0.3124 -0.5272
20591SOL    HW167093   3.716   7.801   9.147  1.0760 -1.3605 -0.4042
20591SOL    HW267094   3.675   7.679   9.067 -1.5072 -0.3719 -0.6938
20592SOL     OW67095   6.328   4.491   4.274  0.2698 -0.1662  0.1994
20592SOL    HW167096   6.235   4.476   4.292  0.3406  0.0335  0.7688
20592SOL    HW267097   6.372   4.465   4.356  0.9274 -2.3834 -0.7839
20593SOL     OW67098   7.677   2.364   6.551 -0.0370  0.2010  0.2467
20593SOL    HW167099   7.713   2.340   6.466 -0.3338  0.2428  0.1086
20593SOL    HW267100   7.588   2.394   6.532 -0.3249 -0.3745  0.6422
20594SOL     OW67101   0.815   7.814   2.759  0.4291 -0.3165 -0.2403
20594SOL    HW167102   0.859   7.837   2.841  2.3155 -1.7354 -0.7819
20594SOL    HW267103   0.784   7.898   2.724  0.6049  0.4472  1.3372
20595SOL     OW67104   8.746   1.548   8.135 -0.0395  0.3023  0.1883
20595SOL    HW167105   8.785   1.577   8.218  0.3398 -0.0092  0.1200
20595SOL    HW267106   8.810   1.574   8.068  0.0782 -0.2608  0.0817
20596SOL     OW67107   0.189   4.313   2.101  0.1421 -0.0552 -0.7949
20596SOL    HW167108   0.268   4.342   2.148 -0.3466  0.2305 -0.1318
20596SOL    HW267109   0.120   4.371   2.133 -0.5700 -1.0437 -0.5158
20597SOL     OW67110   6.308   8.896   8.373  0.4861  0.6380  0.1296
20597SOL    HW167111   6.322   8.915   8.280  0.1312  1.9572  0.3289
20597SOL    HW267112   6.219   8.862   8.378  0.2612  1.2222  0.0778
20598SOL     OW67113   0.858   1.021   9.167 -0.0300 -0.9886  0.3323
20598SOL    HW167114   0.763   1.012   9.171 -0.1958  0.5243  0.6721
20598SOL    HW267115   0.872   1.092   9.104  0.9218 -1.7369 -0.3243
20599SOL     OW67116   3.356   2.069   8.245  0.2358 -0.1783  0.3845
20599SOL    HW167117   3.435   2.044   8.292  0.4581  1.6969  1.0477
20599SOL    HW267118   3.388   2.101   8.160  0.1299 -0.0678  0.3865
20600SOL     OW67119  11.266   3.463  10.028  0.5934 -0.2163  0.3643
20600SOL    HW167120  11.277   3.493   9.938  3.2963 -0.2543  0.6241
20600SOL    HW267121  11.173   3.440  10.034  0.3570 -0.2460 -2.3959
20601SOL     OW67122   8.179   0.586   9.179  0.2589 -0.7043 -0.3748
20601SOL    HW167123   8.093   0.551   9.156  0.8277 -1.3525 -1.6420
20601SOL    HW267124   8.187   0.667   9.129 -0.4826  0.5538  1.4662
20602SOL     OW67125   8.483   3.174   1.839  0.1942 -0.2694  0.1434
20602SOL    HW167126   8.463   3.246   1.780  3.0062  0.8193  0.3531
20602SOL    HW267127   8.473   3.212   1.927  1.2123 -0.2027  0.2545
20603SOL     OW67128   1.931   8.887  10.232  0.3074 -0.2355 -0.1110
20603SOL    HW167129   2.017   8.846  10.225  0.1955 -0.8729  1.7219
20603SOL    HW267130   1.870   8.813  10.235 -0.1849  0.1714  0.0117
20604SOL     OW67131   7.698  10.515   2.858  0.1390 -0.0751  0.3065
20604SOL    HW167132   7.660  10.435   2.821 -0.6002  1.2074 -1.9272
20604SOL    HW267133   7.623  10.574   2.870  0.6523  0.2665  2.0334
20605SOL     OW67134  11.102  11.308   7.865  0.0174  0.1997  0.1553
20605SOL    HW167135  11.116  11.228   7.915 -1.3022  0.1854  0.5290
20605SOL    HW267136  11.121  11.283   7.774  0.1770 -0.3875  0.3477
20606SOL     OW67137   9.105  10.725   1.941  0.2227 -0.1184 -0.4772
20606SOL    HW167138   9.146  10.642   1.919  2.2111  0.8842 -0.8187
20606SOL    HW267139   9.118  10.735   2.035  0.6300  0.1236 -0.5571
20607SOL     OW67140   0.086   4.160   9.830  0.3086  0.0691 -0.0858
20607SOL    HW167141   0.138   4.117   9.762  1.1601  2.7508 -1.2408
20607SOL    HW267142   0.141   4.233   9.860 -0.6674 -0.1438  2.4561
20608SOL     OW67143   2.569   2.235  10.555 -0.0263 -0.4139 -0.2260
20608SOL    HW167144   2.609   2.304  10.608  0.0124 -1.9954  1.8924
20608SOL    HW267145   2.476   2.236  10.580 -0.1579 -0.7396 -0.6767
20609SOL     OW67146   0.383  11.383  10.706  0.0283  0.1052  0.0393
20609SOL    HW167147   0.477  11.393  10.695  0.2912 -1.5583  0.5048
20609SOL    HW267148   0.357  11.319  10.639 -1.0883  1.7703 -1.1946
20610SOL     OW67149   3.878   9.153  11.826 -0.3889 -0.3475  0.2668
20610SOL    HW167150   3.924   9.196  11.753 -2.6411  0.4674 -0.7603
20610SOL    HW267151   3.934   9.080  11.850  1.7773  0.9826 -0.4205
20611SOL     OW67152   5.915   7.203   5.996  0.0083 -0.4233 -0.1711
20611SOL    HW167153   5.977   7.276   6.000 -0.3970 -0.1261  1.0264
20611SOL    HW267154   5.962   7.135   5.948  0.4796  0.5280 -1.1071
20612SOL     OW67155   1.780  11.451   8.390  0.0246 -0.0513 -0.5994
20612SOL    HW167156   1.870  11.438   8.360  0.4136  2.0510 -0.5049
20612SOL    HW267157   1.786  11.446   8.486 -0.0825 -0.4967 -0.6131
20613SOL     OW67158   1.963   1.268   3.236 -0.3179  0.3085  0.5256
20613SOL    HW167159   1.889   1.259   3.297 -0.5103  0.2633  0.2857
20613SOL    HW267160   1.995   1.357   3.250 -1.4779  0.9221 -0.5691
20614SOL     OW67161   5.420  11.326   8.077 -0.2501  0.1576  0.5640
20614SOL    HW167162   5.404  11.232   8.064 -2.8907  0.3547  1.6377
20614SOL    HW267163   5.405  11.364   7.991  0.8319 -0.3815  0.1203
20615SOL     OW67164   9.307   3.755   3.253 -0.5482 -0.1472  0.3442
20615SOL    HW167165   9.267   3.712   3.328  1.6231 -0.4535  1.4163
20615SOL    HW267166   9.234   3.782   3.198 -2.1671 -0.5808  2.1959
20616SOL     OW67167   8.389   9.578   6.199  0.2080  0.4529  0.4621
20616SOL    HW167168   8.335   9.655   6.218  1.4646  1.4895 -0.0322
20616SOL    HW267169   8.326   9.506   6.192 -0.9543  1.3339  1.3816
20617SOL     OW67170   2.811  10.123   7.967  0.3258  0.1875 -0.8292
20617SOL    HW167171   2.833  10.031   7.980 -0.9725 -0.1076 -0.5983
20617SOL    HW267172   2.716  10.125   7.960  0.2426  1.6379  0.1795
20618SOL     OW67173   1.296  10.429   1.536 -0.5033 -0.0086  0.0809
20618SOL    HW167174   1.220  10.372   1.520  0.3246 -0.7874 -1.2521
20618SOL    HW267175   1.270  10.513   1.498 -0.5009 -0.4288 -0.8766
20619SOL     OW67176  11.733   7.125   3.440  0.7490  0.4803 -0.3617
20619SOL    HW167177  11.802   7.091   3.497  1.0126 -1.9985 -2.0335
20619SOL    HW267178  11.711   7.053   3.382 -0.4879  2.4326 -2.5088
20620SOL     OW67179   2.398   6.437   6.275  0.1592  0.3947 -0.6801
20620SOL    HW167180   2.405   6.526   6.241 -2.5165  0.4140 -1.3606
20620SOL    HW267181   2.389   6.383   6.196  3.6906 -0.8466 -0.4278
20621SOL     OW67182  10.377  11.457   6.656  0.1609  0.1463  0.5092
20621SOL    HW167183  10.458  11.502   6.635 -0.2031  0.8430  0.5707
20621SOL    HW267184  10.332  11.515   6.717 -0.5274 -0.0849  0.2369
20622SOL     OW67185   5.347   2.385  11.217 -0.5587  0.1371 -0.0031
20622SOL    HW167186   5.330   2.399  11.310 -0.0892  2.5531 -0.2159
20622SOL    HW267187   5.441   2.369  11.212 -0.0517  2.6845 -0.2144
20623SOL     OW67188   6.064   8.317   8.075  0.5464 -0.3390 -0.1551
20623SOL    HW167189   6.131   8.256   8.106  0.1471 -1.8529 -2.0770
20623SOL    HW267190   5.981   8.272   8.093  0.0790  0.8307  0.7835
20624SOL     OW67191   1.226   7.823   1.448 -0.1953 -0.3099 -0.2228
20624SOL    HW167192   1.139   7.861   1.453 -0.4791 -0.9939  0.2728
20624SOL    HW267193   1.211   7.728   1.442  0.5165 -0.4663  0.2865
20625SOL     OW67194   1.583   6.942   7.701  0.2040 -0.0402  0.5569
20625SOL    HW167195   1.499   6.897   7.693 -0.6820  1.3737  1.5038
20625SOL    HW267196   1.620   6.939   7.613 -0.7395 -0.8668  0.1675
20626SOL     OW67197   6.152  10.810   1.576 -0.2829  0.2652 -0.4634
20626SOL    HW167198   6.077  10.762   1.539 -0.6488 -0.9091  1.6225
20626SOL    HW267199   6.126  10.902   1.572 -1.2226 -0.0080 -1.0950
20627SOL     OW67200   1.049   7.421   4.179 -0.3739  0.0434 -0.0075
20627SOL    HW167201   1.089   7.491   4.229 -1.4062  0.5509  0.1349
20627SOL    HW267202   0.966   7.458   4.147 -2.3024 -1.8782  2.3342
20628SOL     OW67203   0.051   2.409   0.230  0.0038 -0.0826 -0.5605
20628SOL    HW167204   0.056   2.402   0.325  0.5743  0.4113 -0.5459
20628SOL    HW267205   0.079   2.324   0.197 -1.8742 -0.8755 -0.2794
20629SOL     OW67206  10.402  10.102   9.976 -0.1755  0.4653  0.0791
20629SOL    HW167207  10.318  10.059   9.987  0.0575  0.0845  0.4115
20629SOL    HW267208  10.415  10.152  10.057  0.6994 -0.8641  0.8012
20630SOL     OW67209   3.940   8.443   3.339 -0.1540 -0.1999 -0.5713
20630SOL    HW167210   3.967   8.352   3.329 -0.3941 -0.3079 -0.2746
20630SOL    HW267211   3.975   8.487   3.262 -0.1265 -0.5629 -0.7709
20631SOL     OW67212   4.679   7.843  10.421 -0.6067 -0.9022 -0.1237
20631SOL    HW167213   4.766   7.871  10.450 -1.6524  1.3895  1.0299
20631SOL    HW267214   4.637   7.808  10.500 -1.2062 -0.7103 -0.3525
20632SOL     OW67215  11.129   8.209  10.476  0.0413 -0.5622 -0.5114
20632SOL    HW167216  11.075   8.259  10.416  0.7890  1.8828  0.7175
20632SOL    HW267217  11.071   8.188  10.550  0.3043  0.5888  0.0381
20633SOL     OW67218   5.303  10.496   0.824 -0.1560  0.4070  0.5774
20633SOL    HW167219   5.315  10.491   0.729  1.1385 -1.5382  0.7738
20633SOL    HW267220   5.381  10.542   0.855 -0.7666  1.3948  0.7014
20634SOL     OW67221   5.647  10.313  11.474  0.1770  0.0879  0.2611
20634SOL    HW167222   5.708  10.240  11.467 -0.6381 -0.5925  0.0568
20634SOL    HW267223   5.569  10.275  11.516 -0.0721  0.9580  0.6104
20635SOL     OW67224   1.898   0.021   7.262 -0.5282 -0.5165 -0.0751
20635SOL    HW167225   1.966  -0.038   7.294 -1.0933 -0.9178  0.4075
20635SOL    HW267226   1.933   0.109   7.278 -0.3496 -0.7177  0.6958
20636SOL     OW67227   8.173   3.410   1.964 -0.0193 -0.1175  0.6032
20636SOL    HW167228   8.130   3.421   2.049 -0.1809  0.3244  0.4677
20636SOL    HW267229   8.266   3.405   1.984  0.2075  2.5814  0.6303
20637SOL     OW67230   7.095   8.656   0.061  0.0856 -0.6313 -0.3682
20637SOL    HW167231   7.077   8.661   0.155  0.3763  0.5957 -0.3647
20637SOL    HW267232   7.180   8.699   0.050 -0.2881 -0.1057 -1.2851
20638SOL     OW67233  10.540   2.467   7.666  0.7770  0.8777 -0.9394
20638SOL    HW167234  10.497   2.514   7.738  0.4471 -0.4865 -0.2203
20638SOL    HW267235  10.477   2.469   7.595 -0.0055 -0.0748 -0.2891
20639SOL     OW67236  10.999  11.241   4.696 -0.1252  0.2265  0.5681
20639SOL    HW167237  11.087  11.277   4.687  0.1981 -0.9384 -1.9246
20639SOL    HW267238  11.009  11.165   4.752  0.4091  0.2810  0.5458
20640SOL     OW67239   9.666   2.058   2.071 -0.1786 -0.2481 -0.1356
20640SOL    HW167240   9.747   2.098   2.103  0.8253 -1.4061 -1.0769
20640SOL    HW267241   9.597   2.099   2.122  1.1943 -1.2337  2.7458
20641SOL     OW67242   9.729   7.455   6.287 -0.1106 -0.1444  0.2978
20641SOL    HW167243   9.637   7.429   6.277 -0.1510 -0.1153  0.5692
20641SOL    HW267244   9.737   7.477   6.380  0.3265 -0.7601  0.4111
20642SOL     OW67245   0.588  11.102   6.840 -0.5646 -0.9589  0.6743
20642SOL    HW167246   0.501  11.094   6.802 -0.6441  0.0195  0.6339
20642SOL    HW267247   0.633  11.167   6.786  0.3664 -1.7950  0.4026
20643SOL     OW67248  10.920   9.825  10.465 -0.2087  0.2165  0.5220
20643SOL    HW167249  10.855   9.879  10.420 -1.5371 -0.4471  1.5949
20643SOL    HW267250  10.869   9.765  10.518  1.2731  0.5585  2.4452
20644SOL     OW67251   6.460  10.171   7.036 -0.3244 -0.8243 -0.0046
20644SOL    HW167252   6.493  10.160   6.947 -0.5878 -0.7390 -0.1139
20644SOL    HW267253   6.475  10.086   7.077 -0.7286 -1.0440 -0.3063
20645SOL     OW67254  10.954   2.509   5.775 -0.2929 -0.5806 -0.2330
20645SOL    HW167255  11.045   2.513   5.802 -0.7739  1.1918  1.3526
20645SOL    HW267256  10.945   2.581   5.712 -0.5616 -0.8413 -0.4928
20646SOL     OW67257   9.923   2.387   6.793  0.4683 -0.0953  0.5241
20646SOL    HW167258   9.887   2.303   6.766  0.2923 -0.0334  0.5587
20646SOL    HW267259   9.879   2.451   6.737  1.5162 -0.1276 -0.3482
20647SOL     OW67260   4.482   1.696  10.084  0.1930 -0.3097 -0.0088
20647SOL    HW167261   4.501   1.677   9.993 -0.1441 -0.0403 -0.1383
20647SOL    HW267262   4.386   1.703  10.088  0.2827  1.7149 -0.0596
20648SOL     OW67263   7.514  10.361  10.576 -0.2267 -0.2493 -0.1264
20648SOL    HW167264   7.424  10.388  10.596  0.0484 -0.8813  2.1960
20648SOL    HW267265   7.550  10.334  10.660  1.1569 -2.9937 -1.4981
20649SOL     OW67266   8.581   8.997   3.713  0.0506  0.1389 -1.0341
20649SOL    HW167267   8.659   8.961   3.755  0.5391  0.9414 -1.2286
20649SOL    HW267268   8.585   9.091   3.732 -1.7387 -0.0250  0.3407
20650SOL     OW67269   2.608   6.983   8.286  0.1195  0.3335 -1.0148
20650SOL    HW167270   2.529   7.037   8.285 -0.2231 -0.1654 -0.8940
20650SOL    HW267271   2.587   6.908   8.232  0.0758 -0.3965 -0.0202
20651SOL     OW67272   1.862   2.009   7.636 -0.2759 -0.3809 -0.1064
20651SOL    HW167273   1.768   2.003   7.655  0.1761 -2.3836  1.9017
20651SOL    HW267274   1.883   2.102   7.650 -1.6894 -0.1500  0.7109
20652SOL     OW67275   4.472   7.918   0.913  0.7279 -0.7866  0.1642
20652SOL    HW167276   4.557   7.931   0.955  1.3835  1.3994 -1.6501
20652SOL    HW267277   4.493   7.900   0.821 -0.7617 -0.2805 -0.3107
20653SOL     OW67278  11.110   3.562   0.119 -0.2631 -0.1139 -0.7217
20653SOL    HW167279  11.068   3.497   0.063 -1.1689  0.2707 -0.5218
20653SOL    HW267280  11.096   3.529   0.208  0.1297 -0.1370 -0.6698
20654SOL     OW67281   3.201   6.180   0.953 -0.1697 -0.1603 -0.0835
20654SOL    HW167282   3.286   6.206   0.986  0.6722 -0.4230 -1.9094
20654SOL    HW267283   3.174   6.254   0.898 -0.1729 -0.9063 -1.1123
20655SOL     OW67284   1.471   7.585   7.285  0.0210 -0.3967  0.4102
20655SOL    HW167285   1.474   7.517   7.352 -0.4132  0.8717  1.7488
20655SOL    HW267286   1.396   7.640   7.309  0.5254  0.7181 -0.4703
20656SOL     OW67287  11.431   0.036   2.481 -0.2467  0.1422 -0.0523
20656SOL    HW167288  11.444   0.007   2.390 -0.7605 -0.1130 -0.0501
20656SOL    HW267289  11.351   0.089   2.478 -2.1980 -2.5408  0.7756
20657SOL     OW67290  11.672   4.130   5.933 -0.4460  0.3506  0.8367
20657SOL    HW167291  11.599   4.084   5.975  0.0450  0.1396  1.4773
20657SOL    HW267292  11.690   4.079   5.853 -0.6863  0.1294  0.9222
20658SOL     OW67293   8.674   8.230   5.503 -0.4189  0.4063  0.3035
20658SOL    HW167294   8.686   8.176   5.581  0.7485  1.2689  0.7361
20658SOL    HW267295   8.611   8.297   5.530 -0.7096  0.1743  0.2156
20659SOL     OW67296   7.111   8.346   6.458 -0.2769 -0.0867 -0.2796
20659SOL    HW167297   7.051   8.282   6.496 -2.7177  1.2814 -1.5982
20659SOL    HW267298   7.135   8.402   6.532 -3.1726  1.1958 -0.1831
20660SOL     OW67299  10.522   7.445   3.914 -0.5201  0.2612 -0.1372
20660SOL    HW167300  10.512   7.490   3.998  0.3396  0.2281 -0.0090
20660SOL    HW267301  10.582   7.500   3.864 -1.6005  0.6749 -1.0367
20661SOL     OW67302   2.860   2.136   4.522  0.4540  0.0062 -0.1055
20661SOL    HW167303   2.856   2.044   4.549  0.7467  0.3533  1.2157
20661SOL    HW267304   2.890   2.133   4.431  3.7678 -1.1348  0.8755
20662SOL     OW67305   4.990   9.405   4.551 -0.1079 -0.3805 -0.0153
20662SOL    HW167306   4.994   9.321   4.597 -0.5322  0.4728  1.6553
20662SOL    HW267307   5.039   9.390   4.470  0.6840 -1.9492  0.7067
20663SOL     OW67308   8.001   8.439   7.317  0.3856 -0.2790 -0.5842
20663SOL    HW167309   8.097   8.432   7.315  0.4049 -0.1198 -0.3539
20663SOL    HW267310   7.971   8.354   7.348  0.5441  0.1860  0.9432
20664SOL     OW67311   4.739   1.592   8.972 -0.0613  0.0868 -0.4384
20664SOL    HW167312   4.759   1.504   9.002  0.3333 -0.0588 -1.1159
20664SOL    HW267313   4.711   1.581   8.881 -0.3290  0.6216 -0.4279
20665SOL     OW67314   0.137   4.935   3.120  0.1130  0.1381 -0.1680
20665SOL    HW167315   0.082   4.894   3.187  0.6960  0.3790  0.4656
20665SOL    HW267316   0.109   4.894   3.038 -2.0140  1.2693 -0.0907
20666SOL     OW67317   9.260   0.980   8.329  0.7164 -0.1913  0.0593
20666SOL    HW167318   9.237   1.041   8.260  1.6270  1.3328  1.0439
20666SOL    HW267319   9.248   0.893   8.290 -0.2520  0.6058 -1.4848
20667SOL     OW67320   7.232   4.222   3.138 -0.1782 -0.6308  0.1691
20667SOL    HW167321   7.209   4.221   3.045  0.3249  1.8019 -0.0482
20667SOL    HW267322   7.285   4.301   3.149 -0.8124 -0.4709  2.6600
20668SOL     OW67323   2.993  10.408   0.223  0.1975  0.0909 -0.2904
20668SOL    HW167324   2.904  10.384   0.249  0.1911  0.2279 -0.1815
20668SOL    HW267325   3.044  10.329   0.237  0.0503 -0.0518 -0.5606
20669SOL     OW67326   3.027   5.042   8.577 -0.0767  0.5268  0.2407
20669SOL    HW167327   3.017   5.136   8.598 -0.2371  0.3619  0.9436
20669SOL    HW267328   3.121   5.029   8.571 -0.0811  0.9463 -0.8971
20670SOL     OW67329   4.885   1.191   5.597 -0.1540 -0.4736 -0.2523
20670SOL    HW167330   4.832   1.121   5.636 -0.4888  1.5444  3.3893
20670SOL    HW267331   4.844   1.272   5.627  3.1079  1.2275  0.0706
20671SOL     OW67332   3.621  10.142   5.050  0.2570  0.3734 -0.1358
20671SOL    HW167333   3.562  10.206   5.011  0.9698 -0.3834 -2.6524
20671SOL    HW267334   3.681  10.193   5.103 -0.7562  1.4710 -0.0084
20672SOL     OW67335   9.650   9.347   5.815  0.1582 -0.3859 -0.1039
20672SOL    HW167336   9.708   9.416   5.847 -1.9360  0.9151  1.1557
20672SOL    HW267337   9.660   9.276   5.878  1.3720 -0.7301 -0.6712
20673SOL     OW67338   3.222   8.753   5.473  0.5919  0.2069  0.0174
20673SOL    HW167339   3.279   8.755   5.549  1.7638 -0.9906 -0.7923
20673SOL    HW267340   3.221   8.843   5.441  2.3685  0.1701 -0.1924
20674SOL     OW67341   1.867  10.788   7.256  0.3147 -0.2312  0.0205
20674SOL    HW167342   1.815  10.720   7.299 -0.9554  0.6037 -0.1456
20674SOL    HW267343   1.898  10.843   7.327  1.7544 -1.2114  0.2026
20675SOL     OW67344   8.438   7.773  11.690  0.5278 -0.1005 -0.1126
20675SOL    HW167345   8.418   7.680  11.678 -0.3844  0.2897 -1.9053
20675SOL    HW267346   8.510   7.790  11.629  1.5490  0.1280  1.1102
20676SOL     OW67347   5.258  10.668   9.115 -0.0794  0.0654  0.6385
20676SOL    HW167348   5.293  10.613   9.185 -1.2949 -1.9095 -0.2187
20676SOL    HW267349   5.318  10.656   9.042 -0.9588 -1.1241  0.0711
20677SOL     OW67350   6.564   8.085   7.776 -0.0051 -0.0400 -0.0808
20677SOL    HW167351   6.550   8.105   7.683 -0.3197  0.4210  0.0585
20677SOL    HW267352   6.496   8.135   7.821 -0.4937 -1.0519  0.3362
20678SOL     OW67353   6.322   3.077   1.006 -0.5955 -0.2270 -0.0780
20678SOL    HW167354   6.373   3.060   0.927  0.0917  1.5830 -0.0842
20678SOL    HW267355   6.370   3.034   1.076  0.9585  1.3593 -0.1046
20679SOL     OW67356   9.621  10.918   8.809 -0.0152 -0.4345  0.0645
20679SOL    HW167357   9.693  10.975   8.837 -1.0509  0.4569  0.9730
20679SOL    HW267358   9.629  10.841   8.865 -0.9202  0.5186  1.5877
20680SOL     OW67359   3.595  11.535   9.733  0.3310 -0.0555  0.3456
20680SOL    HW167360   3.522  11.474   9.729  0.0391  0.3006  0.0852
20680SOL    HW267361   3.654  11.507   9.663  1.0081 -1.0339  1.2824
20681SOL     OW67362  11.417  10.198   9.608 -0.0155 -0.0742  0.1412
20681SOL    HW167363  11.483  10.250   9.654  0.4802  0.4231 -1.0917
20681SOL    HW267364  11.440  10.206   9.516 -1.4874 -0.3413 -0.2773
20682SOL     OW67365   5.305   0.971   7.792  0.5218 -0.1571  0.1676
20682SOL    HW167366   5.230   0.918   7.765  1.2584 -0.7269 -0.8206
20682SOL    HW267367   5.378   0.909   7.799  0.7265  0.2097  2.0703
20683SOL     OW67368   1.909   6.685   9.171  0.3631 -0.2810 -0.6946
20683SOL    HW167369   1.844   6.630   9.216  0.3361 -1.0248 -1.6304
20683SOL    HW267370   1.874   6.696   9.083  0.7664  0.5927 -0.7563
20684SOL     OW67371   6.160   9.406   7.819 -0.2428  0.3852 -0.0124
20684SOL    HW167372   6.173   9.322   7.863  0.1628  1.7285  2.6136
20684SOL    HW267373   6.216   9.467   7.866  0.3020  1.9843 -2.5202
20685SOL     OW67374   2.053  11.714   1.261 -0.0730  0.5393  0.1553
20685SOL    HW167375   2.084  11.771   1.331  1.4043 -1.2592  1.0511
20685SOL    HW267376   2.125  11.714   1.197 -1.2467  1.8574 -1.2491
20686SOL     OW67377  10.408   4.467   2.591 -0.2464  0.0425  0.7299
20686SOL    HW167378  10.492   4.434   2.621 -0.2997  1.0947  2.1395
20686SOL    HW267379  10.429   4.528   2.521  0.1229 -0.1030  0.7146
20687SOL     OW67380   4.427   0.169   6.794 -0.3197  0.2824 -0.5129
20687SOL    HW167381   4.376   0.240   6.832 -2.6145 -2.4851  2.1688
20687SOL    HW267382   4.507   0.167   6.846 -0.9624 -0.0314  0.4923
20688SOL     OW67383   1.971   4.683  10.477 -0.2030  0.4044 -0.0870
20688SOL    HW167384   1.998   4.747  10.543 -1.1024  0.6738  0.0342
20688SOL    HW267385   2.050   4.632  10.460 -0.3018 -0.7133  2.3512
20689SOL     OW67386   6.387   8.943  10.211  0.1177  0.2031  0.6637
20689SOL    HW167387   6.480   8.921  10.222 -0.1788 -0.7538  1.4699
20689SOL    HW267388   6.359   8.973  10.297 -0.4119  0.0875  0.5363
20690SOL     OW67389   1.255   9.629   9.697  0.4120  0.5859  0.2186
20690SOL    HW167390   1.204   9.554   9.729 -1.0155  0.7441 -1.5001
20690SOL    HW267391   1.345   9.596   9.691 -0.0867 -0.8411  0.0022
20691SOL     OW67392   3.667   9.310   6.259 -0.0559 -0.0174 -0.0369
20691SOL    HW167393   3.707   9.342   6.340  0.0196 -0.8877  0.2761
20691SOL    HW267394   3.572   9.317   6.275 -0.0410  0.2276 -0.0471
20692SOL     OW67395   3.884   3.561   9.067 -0.0349 -0.6519 -0.4775
20692SOL    HW167396   3.825   3.601   9.005 -1.3521  0.0356  1.1399
20692SOL    HW267397   3.829   3.501   9.117  0.9802 -1.1900  0.0271
20693SOL     OW67398   7.398  11.795   6.752  0.0582  0.6993 -0.1307
20693SOL    HW167399   7.360  11.709   6.767  0.8265  0.3379 -0.1851
20693SOL    HW267400   7.435  11.821   6.837  0.2484  0.7627 -0.2320
20694SOL     OW67401   6.236   7.766   0.092  0.2291  0.4843 -0.1801
20694SOL    HW167402   6.163   7.708   0.113  1.7620 -2.1369 -1.6276
20694SOL    HW267403   6.198   7.834   0.036 -1.4102  0.3073  0.6664
20695SOL     OW67404   4.484   7.549  11.411 -0.1659  0.0547  0.0691
20695SOL    HW167405   4.562   7.597  11.383  0.7377 -1.2293  0.3179
20695SOL    HW267406   4.515   7.488  11.477 -1.3270 -0.7005 -0.0457
20696SOL     OW67407   9.848  10.521   9.613 -0.2659  0.0950  0.1577
20696SOL    HW167408   9.869  10.467   9.536 -0.7144  0.9815 -0.6038
20696SOL    HW267409   9.753  10.524   9.615 -0.2586  1.6877 -0.4358
20697SOL     OW67410   9.686   5.234   4.175  0.4357  0.2177  0.2090
20697SOL    HW167411   9.655   5.304   4.231  1.2276  0.6306  0.1421
20697SOL    HW267412   9.768   5.267   4.138 -0.0017 -0.0906 -1.0948
20698SOL     OW67413   5.085   9.327   1.150 -0.3745  0.0551 -0.8182
20698SOL    HW167414   5.001   9.298   1.184 -0.2366 -0.1781 -0.6708
20698SOL    HW267415   5.099   9.413   1.189 -0.5809  0.1275 -0.9056
20699SOL     OW67416  10.937   9.361   5.336  0.8752  0.4397  0.4299
20699SOL    HW167417  10.865   9.310   5.298 -0.1890  0.6484  2.0809
20699SOL    HW267418  11.003   9.364   5.266 -1.2833  1.5307 -1.7164
20700SOL     OW67419   9.558   7.147   4.339  0.2770  0.2823  0.2267
20700SOL    HW167420   9.601   7.233   4.333  2.1291 -0.6183 -0.2312
20700SOL    HW267421   9.579   7.104   4.256 -1.2024 -0.3879  0.1664
20701SOL     OW67422   4.546   6.069   0.623 -0.4565 -0.1480 -0.3041
20701SOL    HW167423   4.626   6.119   0.639 -1.5460  1.7100 -0.3716
20701SOL    HW267424   4.549   5.998   0.686  1.0859  0.0606 -0.0946
20702SOL     OW67425   0.653   0.637   3.447 -0.1362 -0.6687  0.5005
20702SOL    HW167426   0.706   0.573   3.493  1.0136 -0.7466 -0.8605
20702SOL    HW267427   0.641   0.601   3.359 -1.5329 -0.1339  0.4394
20703SOL     OW67428   7.739  10.385   9.653  0.7421  0.5070  0.0469
20703SOL    HW167429   7.754  10.425   9.739  1.3751  1.1739 -0.3550
20703SOL    HW267430   7.811  10.323   9.643 -0.0214 -0.4683  0.5031
20704SOL     OW67431   1.866   9.390   7.533 -0.1977  0.0452 -0.1875
20704SOL    HW167432   1.833   9.307   7.498  0.9732  0.2377 -1.8678
20704SOL    HW267433   1.911   9.431   7.459 -1.2229  2.4636  0.4330
20705SOL     OW67434   3.490   6.862   3.513 -0.0488 -0.0063  0.0565
20705SOL    HW167435   3.452   6.947   3.534  0.0639  0.1503 -0.3593
20705SOL    HW267436   3.576   6.862   3.555  0.3473  0.4684 -0.7340
20706SOL     OW67437   1.496   7.390   3.883  0.2168  0.2855 -0.4941
20706SOL    HW167438   1.433   7.334   3.928  1.3494 -1.8383 -1.4071
20706SOL    HW267439   1.562   7.409   3.949 -0.6949  1.4973  0.1164
20707SOL     OW67440  10.741   6.993   2.392 -0.0911 -0.1407  0.2196
20707SOL    HW167441  10.800   7.067   2.405 -0.7046  0.0769  2.0335
20707SOL    HW267442  10.788   6.935   2.332 -0.2381  2.3812 -2.5656
20708SOL     OW67443   8.134   8.820  10.118 -0.2515  0.6998 -0.1128
20708SOL    HW167444   8.044   8.798  10.143 -0.1053 -0.2820 -0.4323
20708SOL    HW267445   8.136   8.807  10.023  0.6486 -0.8643  0.0964
20709SOL     OW67446   4.422  10.679   9.179 -0.2614  0.4144 -0.1957
20709SOL    HW167447   4.331  10.678   9.150 -0.2742  0.7994 -0.1822
20709SOL    HW267448   4.473  10.663   9.099 -0.3750 -1.0291  0.0017
20710SOL     OW67449   5.343   8.523   4.681 -0.3791 -0.2456  0.0512
20710SOL    HW167450   5.286   8.491   4.751 -1.3964 -2.1699 -1.5458
20710SOL    HW267451   5.305   8.486   4.601  3.1013 -1.6867 -1.1253
20711SOL     OW67452   4.492   2.192   9.928  0.0808  0.1330  0.0692
20711SOL    HW167453   4.490   2.282   9.962 -0.9465 -0.0036  0.4090
20711SOL    HW267454   4.427   2.146   9.981 -0.2762 -0.5167 -0.9163
20712SOL     OW67455   2.224   9.830   3.891 -0.2818 -0.3734 -0.3384
20712SOL    HW167456   2.158   9.824   3.960  0.8378  0.3916  0.8678
20712SOL    HW267457   2.190   9.776   3.820 -2.1823 -0.0058  0.2321
20713SOL     OW67458   6.229   4.454   4.004 -0.0097  0.1293 -0.2229
20713SOL    HW167459   6.240   4.373   4.054 -1.4867 -0.0067 -0.0684
20713SOL    HW267460   6.282   4.518   4.050  0.1605 -0.4519  0.4048
20714SOL     OW67461   2.229   5.323   7.214 -0.7977  0.7636  0.2153
20714SOL    HW167462   2.282   5.243   7.211 -2.7789 -0.6285 -1.4269
20714SOL    HW267463   2.276   5.382   7.272  2.5123 -0.3254 -1.1135
20715SOL     OW67464   5.407   1.611   3.610  0.3950  0.0321 -0.7888
20715SOL    HW167465   5.389   1.645   3.698 -0.7804 -2.2266 -0.1013
20715SOL    HW267466   5.351   1.662   3.552 -0.3359  0.1837  0.0367
20716SOL     OW67467  11.414   2.914  11.671 -0.3302 -0.0057  0.0309
20716SOL    HW167468  11.464   2.834  11.684  1.1319  0.6970 -0.9885
20716SOL    HW267469  11.422   2.961  11.755 -1.7538 -1.1636  0.8667
20717SOL     OW67470   8.671   2.603   4.427 -0.0426  0.4690  0.1880
20717SOL    HW167471   8.578   2.620   4.412  0.5880  1.6262 -3.0534
20717SOL    HW267472   8.697   2.543   4.357  1.7760  0.6059  0.6859
20718SOL     OW67473   6.288   5.045   7.940  0.4086 -0.3391 -0.4968
20718SOL    HW167474   6.299   4.978   8.008  0.4741  1.5031  1.4286
20718SOL    HW267475   6.378   5.063   7.910  0.9185  1.5057  1.7855
20719SOL     OW67476   9.591   7.707  10.933  0.3998 -0.0236  0.0916
20719SOL    HW167477   9.664   7.767  10.947  1.4361 -1.3823  0.7679
20719SOL    HW267478   9.549   7.699  11.018 -0.6550  0.8564 -0.3251
20720SOL     OW67479   9.116   8.168   4.615  0.6197 -0.5769  0.1976
20720SOL    HW167480   9.087   8.181   4.705  0.8918 -0.6646  0.3003
20720SOL    HW267481   9.038   8.140   4.568  0.6942 -1.5747  0.6357
20721SOL     OW67482   5.205   1.805   6.545  0.7074  0.2104  0.2460
20721SOL    HW167483   5.241   1.776   6.628  0.9509 -0.2855 -0.0244
20721SOL    HW267484   5.253   1.754   6.479 -0.8612 -0.9118 -0.1074
20722SOL     OW67485   0.329   9.703   5.568  0.2858  0.0238 -0.1764
20722SOL    HW167486   0.255   9.743   5.521  1.1013  1.0484 -0.6464
20722SOL    HW267487   0.340   9.758   5.646  0.1602 -0.5042  0.2164
20723SOL     OW67488   6.103   7.698   8.919  0.5581 -0.7776  0.0328
20723SOL    HW167489   6.148   7.649   8.850  0.4206  0.7602 -1.2349
20723SOL    HW267490   6.037   7.638   8.952  0.8292 -1.6702 -0.9770
20724SOL     OW67491   6.023   0.868  10.540  0.6544 -0.2574  0.0338
20724SOL    HW167492   6.099   0.813  10.523  1.3736  0.9202 -0.6811
20724SOL    HW267493   6.056   0.937  10.597 -0.1511 -0.3517  0.6286
20725SOL     OW67494   9.315   9.610   5.153 -0.1281 -0.1948 -0.2120
20725SOL    HW167495   9.306   9.635   5.245  2.4403 -1.1352  0.3934
20725SOL    HW267496   9.249   9.661   5.107 -1.3926  0.4124  2.1261
20726SOL     OW67497   9.444   0.372  11.515  0.1718 -0.5056 -0.4873
20726SOL    HW167498   9.525   0.382  11.566 -1.3142  2.1972  1.5946
20726SOL    HW267499   9.435   0.454  11.467 -1.2615 -0.8194 -0.8027
20727SOL     OW67500   7.918   6.610   8.288 -0.2982 -0.4319 -0.8986
20727SOL    HW167501   7.859   6.654   8.226  0.7926 -1.2811 -2.6083
20727SOL    HW267502   7.891   6.519   8.285 -1.1086 -0.3000  0.9649
20728SOL     OW67503   8.963   1.584   0.855  0.0312 -1.1394  0.5167
20728SOL    HW167504   9.038   1.576   0.796 -1.8382 -0.7695 -2.1491
20728SOL    HW267505   8.904   1.513   0.829 -1.0348 -0.7370  1.7133
20729SOL     OW67506   1.515   8.722   6.563  0.2278 -0.2690  0.2308
20729SOL    HW167507   1.479   8.778   6.494  0.6679 -0.5839 -0.2650
20729SOL    HW267508   1.580   8.668   6.518  1.2269  0.1978  1.0713
20730SOL     OW67509   1.229   3.207   1.411  0.1495  0.0391  0.3630
20730SOL    HW167510   1.217   3.286   1.464 -0.6807 -0.0602  0.3342
20730SOL    HW267511   1.252   3.240   1.324 -0.7243  0.2841  0.2075
20731SOL     OW67512  11.223   2.586   7.162  0.5289  0.8694 -0.2774
20731SOL    HW167513  11.217   2.673   7.202  0.0863  0.6555  0.1365
20731SOL    HW267514  11.148   2.583   7.102  0.1152  0.5131  0.2442
20732SOL     OW67515   5.660   7.956  11.745 -0.1117 -0.1421 -0.3917
20732SOL    HW167516   5.580   7.927  11.790  0.0403  0.9275  0.6245
20732SOL    HW267517   5.728   7.952  11.812  0.1608  1.3134 -0.5470
20733SOL     OW67518   8.450   3.841   6.783  0.5369  0.2674  0.6509
20733SOL    HW167519   8.544   3.825   6.784  0.4530 -0.2494  0.5587
20733SOL    HW267520   8.442   3.936   6.783  1.0745  0.3330 -0.6434
20734SOL     OW67521   3.717   4.601   0.903 -0.2955 -0.5641  0.3785
20734SOL    HW167522   3.751   4.633   0.819 -0.5151 -2.6139 -0.5448
20734SOL    HW267523   3.759   4.516   0.915 -1.8920 -1.2659  1.2874
20735SOL     OW67524   2.486   5.056   8.312 -0.2563 -0.0312  0.3558
20735SOL    HW167525   2.472   5.138   8.265  0.5410  0.3313  0.7305
20735SOL    HW267526   2.580   5.040   8.304 -0.4540 -1.0698  0.0341
20736SOL     OW67527   9.744   8.680  10.095  0.0970 -0.2968  0.3979
20736SOL    HW167528   9.831   8.674  10.134  0.8159  0.4893 -1.0124
20736SOL    HW267529   9.746   8.760  10.043 -1.0310 -0.9438 -0.7074
20737SOL     OW67530   0.155   3.246  10.434  0.0532 -0.9342 -0.2593
20737SOL    HW167531   0.110   3.168  10.402 -2.5387 -0.8701  2.6971
20737SOL    HW267532   0.210   3.214  10.506  0.2952 -0.2284 -0.1241
20738SOL     OW67533   0.332   4.678   1.038  0.4396  0.3419 -0.4400
20738SOL    HW167534   0.388   4.605   1.015 -0.6895 -0.4549 -0.7568
20738SOL    HW267535   0.388   4.737   1.088  1.7099 -0.1069 -1.2967
20739SOL     OW67536   0.012   6.788   5.093  0.0673 -0.0854 -0.4297
20739SOL    HW167537   0.095   6.804   5.048 -0.0858  0.8356 -0.4151
20739SOL    HW267538   0.025   6.826   5.180  0.0105 -0.9418 -0.0386
20740SOL     OW67539   2.568   2.780   6.371  0.1994  0.2602 -0.1345
20740SOL    HW167540   2.516   2.793   6.450  1.8066  1.5142  0.7785
20740SOL    HW267541   2.597   2.689   6.375 -2.6587 -0.8173 -1.2044
20741SOL     OW67542   8.996  10.328   5.854 -0.6115  0.2390  0.4685
20741SOL    HW167543   9.069  10.302   5.910  0.2584  1.5508 -0.0129
20741SOL    HW267544   9.018  10.417   5.825 -0.6805 -0.5934 -2.4970
20742SOL     OW67545  10.563  10.656   5.510 -0.3256 -0.0776  0.3951
20742SOL    HW167546  10.560  10.752   5.512 -0.8930 -0.0520 -1.0795
20742SOL    HW267547  10.558  10.631   5.603 -4.4110  1.2237  0.7426
20743SOL     OW67548   3.414   5.062   5.056  0.3819 -0.0425  0.2039
20743SOL    HW167549   3.389   5.118   5.129 -1.3598 -1.9923  1.2412
20743SOL    HW267550   3.357   5.089   4.984  0.3321  0.2543  0.3535
20744SOL     OW67551   5.941   5.720   8.090 -0.4157  0.1017 -0.1786
20744SOL    HW167552   5.873   5.769   8.044  1.0884  1.9461 -0.5726
20744SOL    HW267553   6.023   5.749   8.050  0.6270 -2.0846  0.2327
20745SOL     OW67554   2.707   7.300   6.901 -0.5193  0.1157  0.0454
20745SOL    HW167555   2.664   7.249   6.970  2.7051 -1.4492  1.0897
20745SOL    HW267556   2.797   7.310   6.931  0.0856  2.7551 -2.2338
20746SOL     OW67557  10.728   8.826  10.640  0.4668  0.2385  0.3683
20746SOL    HW167558  10.775   8.758  10.688 -2.7072 -4.2336 -2.1023
20746SOL    HW267559  10.785   8.848  10.566  1.8392  0.9852  1.5916
20747SOL     OW67560   5.819   8.186   8.084  0.0600 -0.1145 -0.4540
20747SOL    HW167561   5.806   8.097   8.053  1.6808 -0.1858 -0.9812
20747SOL    HW267562   5.761   8.239   8.028 -0.5612 -0.7576 -0.4380
20748SOL     OW67563   3.116   5.483   5.158 -0.1227 -0.4111 -0.1647
20748SOL    HW167564   3.167   5.515   5.083  0.1864 -0.5121 -0.0000
20748SOL    HW267565   3.036   5.449   5.119 -1.8469  3.1871 -0.1400
20749SOL     OW67566   8.468  11.555  11.436 -0.4449  0.3038 -0.2906
20749SOL    HW167567   8.399  11.620  11.423 -1.1133 -0.1365  0.8685
20749SOL    HW267568   8.549  11.605  11.428 -0.9054  0.9828 -0.8978
20750SOL     OW67569   3.108   4.357  11.064 -0.0198 -0.2344  0.4845
20750SOL    HW167570   3.161   4.429  11.098 -1.9281  1.0009  0.9982
20750SOL    HW267571   3.166   4.311  11.004  1.7403  0.8023  1.3059
20751SOL     OW67572   8.087   6.608   5.441  0.1580  0.1595 -0.4084
20751SOL    HW167573   8.047   6.523   5.458  1.2317 -0.5621 -1.2808
20751SOL    HW267574   8.108   6.605   5.347  1.3288  0.8873 -0.1807
20752SOL     OW67575   9.591   8.077  10.155 -0.6001 -0.0599 -0.5603
20752SOL    HW167576   9.518   8.025  10.122 -1.2413  1.5650 -1.8258
20752SOL    HW267577   9.562   8.109  10.240 -0.6979 -0.7127 -0.3422
20753SOL     OW67578   6.107   6.481   0.839 -0.3457  0.8672  0.0875
20753SOL    HW167579   6.168   6.555   0.832  1.5689 -0.5441  0.7920
20753SOL    HW267580   6.162   6.408   0.867 -2.2532 -0.7268 -0.1224
20754SOL     OW67581   6.093   4.330   3.326  0.4446  0.0759  0.1495
20754SOL    HW167582   6.159   4.386   3.368 -1.3583 -0.3977  4.0374
20754SOL    HW267583   6.090   4.251   3.381 -2.0704 -0.6824 -0.9255
20755SOL     OW67584   3.210  11.140   2.674 -0.0695 -0.1190  0.1413
20755SOL    HW167585   3.275  11.073   2.653 -2.1469 -2.1028 -0.3901
20755SOL    HW267586   3.166  11.105   2.752 -1.5765  0.3372 -0.4875
20756SOL     OW67587   0.445  10.694   7.075 -0.3834 -0.6210  0.1245
20756SOL    HW167588   0.397  10.629   7.025  0.5501  0.4312 -2.2890
20756SOL    HW267589   0.531  10.655   7.090 -1.3107 -1.8516  3.0547
20757SOL     OW67590   4.922   3.437   7.339  0.1489 -0.3415  0.3658
20757SOL    HW167591   4.860   3.368   7.313 -0.2744  0.2230 -0.1643
20757SOL    HW267592   4.925   3.495   7.263 -0.2143  0.7291  1.1404
20758SOL     OW67593  10.208   3.353   5.356  0.2320  0.1855  0.2776
20758SOL    HW167594  10.278   3.414   5.380 -0.7477  1.1024  0.9267
20758SOL    HW267595  10.184   3.378   5.267 -1.0850  1.7169  1.0086
20759SOL     OW67596   8.304   3.650   1.620  0.1172  0.1875  0.3030
20759SOL    HW167597   8.380   3.635   1.563  1.6815  1.3160  1.9829
20759SOL    HW267598   8.299   3.745   1.629  0.4407  0.0333  2.6659
20760SOL     OW67599   2.169   5.890   9.887  0.2339 -0.1882  0.4332
20760SOL    HW167600   2.190   5.799   9.908  0.4418 -0.3560 -0.4617
20760SOL    HW267601   2.230   5.913   9.816  2.4275  1.6593  2.7101
20761SOL     OW67602   6.698   3.380   7.295  0.1499  0.2330  0.3228
20761SOL    HW167603   6.724   3.469   7.319  1.7060  0.1076 -0.7259
20761SOL    HW267604   6.758   3.356   7.225 -0.5493 -1.4817  0.2663
20762SOL     OW67605   3.197   4.517   0.909  0.1770 -0.3300 -0.4798
20762SOL    HW167606   3.286   4.494   0.936  1.0119  2.8635 -0.1343
20762SOL    HW267607   3.209   4.567   0.828 -1.3040  0.1739 -0.4098
20763SOL     OW67608  10.278   2.027   4.046 -0.4995  0.4723 -0.0230
20763SOL    HW167609  10.195   2.042   4.000 -0.2358 -0.2952 -0.7673
20763SOL    HW267610  10.345   2.064   3.989 -0.2844  0.6863  0.3637
20764SOL     OW67611   9.982   0.383  11.354  0.1644  0.7942  0.6720
20764SOL    HW167612  10.003   0.355  11.265  1.2631 -0.9647  1.4149
20764SOL    HW267613   9.987   0.478  11.351 -0.1871  0.7902 -1.2192
20765SOL     OW67614   8.717   5.868   9.161  0.3774  0.0593  0.8513
20765SOL    HW167615   8.795   5.824   9.194  1.4539  1.9910  1.0138
20765SOL    HW267616   8.746   5.908   9.079 -1.2085 -1.4059 -0.5107
20766SOL     OW67617   3.031   8.240   6.188 -0.0574 -0.0282  0.1197
20766SOL    HW167618   3.101   8.306   6.191 -1.2828  1.3028  0.0566
20766SOL    HW267619   2.950   8.289   6.199 -0.8752 -1.8624  3.8524
20767SOL     OW67620   9.639  10.488   7.485  0.1932 -0.1410  0.4211
20767SOL    HW167621   9.639  10.482   7.389 -0.6712  0.9477  0.3298
20767SOL    HW267622   9.731  10.496   7.509  0.4104 -0.3221 -0.3225
20768SOL     OW67623   7.076   1.958   3.150  0.1810 -0.1473  0.3793
20768SOL    HW167624   7.160   1.916   3.170  2.0196  1.8227 -2.4127
20768SOL    HW267625   7.014   1.886   3.139  2.1448 -1.8522 -0.0357
20769SOL     OW67626  10.051   0.197   6.695 -0.2518  0.0744 -0.1108
20769SOL    HW167627  10.101   0.224   6.618  0.3883 -0.3870  0.1294
20769SOL    HW267628   9.984   0.138   6.660 -1.7915  2.0685 -0.6580
20770SOL     OW67629   8.834   3.147   5.415 -0.1956 -0.4013 -0.6241
20770SOL    HW167630   8.822   3.078   5.350 -1.3173  0.8445 -1.8056
20770SOL    HW267631   8.880   3.216   5.368 -2.8325  1.3765 -0.8122
20771SOL     OW67632  10.375   9.009   9.381  0.3775  0.6659 -0.7100
20771SOL    HW167633  10.437   8.937   9.393 -0.0366 -0.0694 -2.5878
20771SOL    HW267634  10.320   9.007   9.459  1.7303  0.3593  0.2822
20772SOL     OW67635   8.838   0.882   0.639  0.3314  0.5817  0.6935
20772SOL    HW167636   8.905   0.813   0.636 -0.6883 -0.7584  4.0838
20772SOL    HW267637   8.888   0.963   0.651  1.4470 -0.1764  1.3764
20773SOL     OW67638   9.256   8.246   9.113  0.1385  0.1667 -0.1389
20773SOL    HW167639   9.163   8.240   9.093  0.6484  1.3075 -3.4627
20773SOL    HW267640   9.259   8.266   9.207 -2.8782 -0.7958  0.2691
20774SOL     OW67641   4.968   7.498   3.512 -0.0186  0.2776  0.0654
20774SOL    HW167642   4.897   7.454   3.466  0.2447  0.2583 -0.3251
20774SOL    HW267643   5.039   7.502   3.449  0.4310  0.0327  0.5415
20775SOL     OW67644   3.861   2.838   5.678 -0.2100 -0.3923 -0.3772
20775SOL    HW167645   3.823   2.764   5.629 -1.2052 -0.0427 -0.1530
20775SOL    HW267646   3.814   2.915   5.645  1.8787  0.3680 -1.7276
20776SOL     OW67647   3.219  10.122   2.016  0.0122  0.2074  0.3944
20776SOL    HW167648   3.154  10.192   2.012 -0.4455 -0.2840 -2.2219
20776SOL    HW267649   3.170  10.042   1.998  0.8751 -0.5886  1.3976
20777SOL     OW67650  10.430   6.486   5.700  0.0541 -0.0852  0.0514
20777SOL    HW167651  10.440   6.423   5.628 -0.3691 -1.3887  1.0898
20777SOL    HW267652  10.388   6.562   5.660  2.7478  0.6060 -1.7957
20778SOL     OW67653   5.250   4.437   1.979 -0.6763  0.2368 -0.3683
20778SOL    HW167654   5.253   4.437   2.075 -2.3448 -2.2313 -0.2350
20778SOL    HW267655   5.341   4.424   1.953 -0.4198 -0.8878  0.9560
20779SOL     OW67656   9.363   2.925   7.840 -0.1235 -0.1698  0.0920
20779SOL    HW167657   9.276   2.887   7.849  0.4547 -1.1414  2.3012
20779SOL    HW267658   9.348   3.015   7.813 -1.8755 -0.0417  1.3504
20780SOL     OW67659   8.547   1.350   6.575  0.1214  0.2347 -0.6550
20780SOL    HW167660   8.553   1.266   6.620 -1.3675  0.7905  0.6456
20780SOL    HW267661   8.637   1.369   6.547  0.4254 -1.9182 -1.2617
20781SOL     OW67662   6.756  10.209   5.141  0.7011 -0.2136 -0.4746
20781SOL    HW167663   6.704  10.244   5.213  1.0233 -0.8957  0.0956
20781SOL    HW267664   6.691  10.166   5.084  0.4422  0.3541 -0.6113
20782SOL     OW67665   0.198   7.542   3.118 -0.0512 -0.1077  0.1965
20782SOL    HW167666   0.190   7.566   3.026  0.5503  0.1493  0.2065
20782SOL    HW267667   0.224   7.623   3.162 -0.8707 -0.0948  0.6853
20783SOL     OW67668   0.334   8.529   0.397  0.1613 -0.2753 -0.1353
20783SOL    HW167669   0.279   8.466   0.444  2.6913 -1.5026  1.3965
20783SOL    HW267670   0.321   8.612   0.444 -0.3200 -0.5466  0.2219
20784SOL     OW67671   9.694   5.045   9.484  0.1566 -0.6319 -0.3733
20784SOL    HW167672   9.720   4.981   9.418 -1.2183  0.3684 -1.9508
20784SOL    HW267673   9.606   5.073   9.458 -0.0815  0.4456  1.3963
20785SOL     OW67674   3.218   0.821   7.545 -0.0507 -0.2971  0.4080
20785SOL    HW167675   3.201   0.772   7.465 -1.1754 -0.7735  0.9233
20785SOL    HW267676   3.237   0.755   7.611  1.0229  0.1007  0.5211
20786SOL     OW67677   2.656   8.063   1.240  0.3373 -0.5359 -0.4065
20786SOL    HW167678   2.731   8.005   1.250  0.5261 -0.1183  0.7703
20786SOL    HW267679   2.652   8.111   1.322 -0.3749  0.4548 -0.9965
20787SOL     OW67680   5.597   3.070  11.790 -0.5659 -0.5928 -0.1094
20787SOL    HW167681   5.587   3.152  11.742 -0.2188 -1.8816 -2.5528
20787SOL    HW267682   5.678   3.081  11.840 -0.3631  0.4370 -0.6489
20788SOL     OW67683   5.940   0.404   1.735  0.2833  0.4444 -0.2984
20788SOL    HW167684   5.956   0.440   1.647  1.5108 -0.6544 -0.5653
20788SOL    HW267685   5.888   0.471   1.779  1.5930  2.1006 -1.1031
20789SOL     OW67686   1.113   4.798   5.667  0.3434  0.1397 -0.8090
20789SOL    HW167687   1.187   4.844   5.626  2.0030 -2.5013 -1.0130
20789SOL    HW267688   1.114   4.826   5.758  2.9246 -1.2497 -0.3211
20790SOL     OW67689   2.852   2.253   9.016  0.1498  0.1210  0.2410
20790SOL    HW167690   2.858   2.167   8.975 -1.1485  0.9148 -1.7683
20790SOL    HW267691   2.932   2.298   8.990 -0.2513  0.3071 -0.7021
20791SOL     OW67692   9.235   5.051  11.206 -0.5893  0.5981 -0.4838
20791SOL    HW167693   9.319   5.096  11.197  0.0953 -0.8795 -2.0631
20791SOL    HW267694   9.231   5.025  11.299  0.1832  1.6065 -0.1577
20792SOL     OW67695   5.001  11.436  11.098 -0.9756 -0.5642  0.3428
20792SOL    HW167696   4.965  11.482  11.173  0.2503 -0.1298  0.6950
20792SOL    HW267697   5.051  11.363  11.136  2.1201  1.3138  0.2389
20793SOL     OW67698  10.771   4.271   4.537  0.6278 -0.6420 -0.0128
20793SOL    HW167699  10.757   4.317   4.455  0.8223 -1.8136 -0.7194
20793SOL    HW267700  10.732   4.185   4.524  0.0378 -0.6067  1.3770
20794SOL     OW67701   6.069   9.270  10.049 -0.2141 -0.0454 -0.0050
20794SOL    HW167702   6.132   9.227   9.992  0.7563  1.5992 -0.2560
20794SOL    HW267703   6.083   9.231  10.135  0.9599  0.0877 -0.1241
20795SOL     OW67704  11.656   4.735   2.000 -0.1584 -0.7130 -0.6190
20795SOL    HW167705  11.683   4.821   2.033  0.4175 -1.6821  1.6414
20795SOL    HW267706  11.738   4.687   1.991 -0.6588 -1.9194  0.9369
20796SOL     OW67707   8.932   2.538  10.372  0.2184  0.1531 -0.5016
20796SOL    HW167708   8.977   2.454  10.382 -1.4914 -0.6853  0.5822
20796SOL    HW267709   8.874   2.526  10.297 -1.5535 -0.3994  0.8949
20797SOL     OW67710   9.796  10.326   8.101 -0.0489 -0.7282 -0.4859
20797SOL    HW167711   9.743  10.259   8.143  0.4268 -0.3501  0.7665
20797SOL    HW267712   9.874  10.333   8.156  0.3994  0.0940 -1.1983
20798SOL     OW67713   0.584  10.002  11.803  0.0546 -0.1438  0.3250
20798SOL    HW167714   0.640   9.988  11.879  1.6878  2.5358 -0.2626
20798SOL    HW267715   0.495  10.002  11.839  0.7885  1.6288  2.4131
20799SOL     OW67716   7.845   3.783   1.823  0.0942  0.4614  0.9874
20799SOL    HW167717   7.909   3.795   1.753 -0.3797 -0.1785  0.4358
20799SOL    HW267718   7.897   3.766   1.901  0.6097  0.5684  0.6699
20800SOL     OW67719  10.455   1.973   8.665 -0.5110  0.0169  0.2336
20800SOL    HW167720  10.485   1.974   8.756  0.7187  1.3953 -0.1406
20800SOL    HW267721  10.520   2.025   8.618 -0.1586 -2.0580 -1.7658
20801SOL     OW67722   6.504  10.910   7.239  0.2675 -0.7803  0.2353
20801SOL    HW167723   6.518  10.911   7.145  0.0214 -1.8592  0.1742
20801SOL    HW267724   6.411  10.932   7.250 -0.3760 -3.0475  0.0340
20802SOL     OW67725   6.430   6.648   1.949  0.3307  0.3121 -0.0977
20802SOL    HW167726   6.480   6.726   1.974  2.1089 -0.5498 -0.7431
20802SOL    HW267727   6.365   6.637   2.019  1.1804  1.3827  0.9013
20803SOL     OW67728   4.375   4.850   4.211  0.1081  0.0370  0.4493
20803SOL    HW167729   4.450   4.908   4.219  0.9290 -0.8802 -0.3692
20803SOL    HW267730   4.339   4.869   4.124 -0.3793  0.1946  0.6801
20804SOL     OW67731  11.418   7.952   7.732 -0.6146 -1.2789 -0.0955
20804SOL    HW167732  11.495   8.010   7.738  0.6762 -2.7553 -1.3660
20804SOL    HW267733  11.366   7.989   7.661 -0.2927 -1.1441 -0.2616
20805SOL     OW67734   6.941   9.659   2.551 -0.1282 -0.0877  0.2248
20805SOL    HW167735   6.908   9.707   2.627 -2.5938 -2.3090  0.7008
20805SOL    HW267736   6.894   9.697   2.476 -0.4701 -0.2983  0.3268
20806SOL     OW67737   2.855   0.870  11.757  0.0767  0.6920 -0.3247
20806SOL    HW167738   2.916   0.944  11.764  0.9275  0.1123 -1.2529
20806SOL    HW267739   2.782   0.904  11.706 -0.6481  1.5374  1.2115
20807SOL     OW67740   8.250   8.350   5.230  0.0656  0.4958 -0.1255
20807SOL    HW167741   8.252   8.442   5.203  1.4236  0.4336 -0.2994
20807SOL    HW267742   8.262   8.352   5.325 -3.2904  0.6365  0.4161
20808SOL     OW67743   9.350   5.287   9.722  0.0458  0.1135 -0.0342
20808SOL    HW167744   9.326   5.353   9.657 -3.7825 -0.2364  0.8272
20808SOL    HW267745   9.345   5.204   9.675 -0.9394 -0.0001  0.2636
20809SOL     OW67746   0.798   9.737   5.419 -0.8931 -0.3472  0.3516
20809SOL    HW167747   0.754   9.817   5.393  2.0066  0.8561 -1.2734
20809SOL    HW267748   0.883   9.740   5.375  0.6131 -2.7927  2.7537
20810SOL     OW67749   5.636   7.754   9.842 -0.8513  0.1014 -0.0578
20810SOL    HW167750   5.568   7.816   9.817 -0.3298  0.6755 -0.0981
20810SOL    HW267751   5.717   7.806   9.840 -0.3958 -0.6014 -0.1662
20811SOL     OW67752   4.412   7.776   5.297 -0.3339 -0.6284 -0.1077
20811SOL    HW167753   4.430   7.775   5.391 -1.1830 -0.5488  0.0632
20811SOL    HW267754   4.450   7.694   5.264  1.0040 -0.1156  0.0897
20812SOL     OW67755  10.049   9.335   5.215  0.5012 -0.1943 -0.1171
20812SOL    HW167756  10.033   9.311   5.124 -1.5085  3.0009 -0.7800
20812SOL    HW267757  10.074   9.253   5.258 -1.0974 -2.3521 -2.9646
20813SOL     OW67758   9.544   4.888   5.878 -0.1340 -0.2073  0.5152
20813SOL    HW167759   9.456   4.905   5.913 -0.6779 -1.3024 -0.2399
20813SOL    HW267760   9.543   4.928   5.791 -0.0771 -0.6989  0.2877
20814SOL     OW67761   3.377   8.823  11.275 -0.4240 -0.0114 -0.3988
20814SOL    HW167762   3.371   8.887  11.204  0.3002 -0.3023 -0.7398
20814SOL    HW267763   3.298   8.836  11.326 -1.8639 -0.9587 -2.2350
20815SOL     OW67764   1.125  11.359   8.343  0.5622 -0.2613 -0.5965
20815SOL    HW167765   1.031  11.363   8.324 -0.0594 -1.2118  1.8677
20815SOL    HW267766   1.155  11.280   8.298 -0.2561 -1.0222  0.1534
20816SOL     OW67767   7.577  11.646   1.963  0.3136 -0.3148  0.2615
20816SOL    HW167768   7.633  11.581   1.922  1.2052  0.5217  0.1354
20816SOL    HW267769   7.631  11.725   1.969 -1.2925  0.9844 -1.2532
20817SOL     OW67770   1.251   9.403   3.329 -0.3423  0.3543  0.3866
20817SOL    HW167771   1.245   9.400   3.233 -0.8767 -0.9875  0.4546
20817SOL    HW267772   1.190   9.337   3.359  0.0637  0.5423  1.6609
20818SOL     OW67773  11.673   9.961   9.296  0.3082  0.0034 -0.8740
20818SOL    HW167774  11.718   9.987   9.215 -0.2295  0.3816 -1.0546
20818SOL    HW267775  11.648   9.869   9.280  0.6708 -0.0877 -0.9265
20819SOL     OW67776   1.819   7.320   0.648 -0.1202  0.0280 -0.4568
20819SOL    HW167777   1.755   7.359   0.589 -0.9759 -1.1100 -0.2955
20819SOL    HW267778   1.772   7.250   0.693  1.3869 -1.2694 -0.8098
20820SOL     OW67779   9.227   5.456   5.909  0.0286  0.0605  0.6128
20820SOL    HW167780   9.217   5.485   5.819  0.7067  0.6026  0.7051
20820SOL    HW267781   9.170   5.379   5.916 -1.0601  0.8040  0.1126
20821SOL     OW67782   5.772  11.053   9.427 -0.2741  0.1134  0.1853
20821SOL    HW167783   5.765  11.142   9.392  0.4056 -0.0021 -0.2575
20821SOL    HW267784   5.866  11.041   9.443 -0.3608 -0.5393  0.2063
20822SOL     OW67785   1.154   8.025   2.197  0.3988 -0.4123 -0.0845
20822SOL    HW167786   1.133   7.969   2.272  0.2170 -0.2924 -0.0445
20822SOL    HW267787   1.155   7.966   2.122 -3.1295 -0.0128 -0.6082
20823SOL     OW67788   9.367   0.275  11.755 -0.5737  0.0280 -0.2425
20823SOL    HW167789   9.301   0.341  11.778  0.8750  1.3265  0.3299
20823SOL    HW267790   9.412   0.311  11.679 -1.0525 -1.2674 -1.1862
20824SOL     OW67791   7.645   6.571   7.146  0.5259 -0.2054 -0.3270
20824SOL    HW167792   7.613   6.655   7.112 -0.6923 -0.5168  0.0453
20824SOL    HW267793   7.610   6.506   7.086 -3.2769 -0.9756  2.3985
20825SOL     OW67794   4.997  10.150   8.119 -0.0945  0.0396  0.2543
20825SOL    HW167795   4.936  10.128   8.049 -0.9982  0.9905  0.6999
20825SOL    HW267796   5.003  10.071   8.172  0.3908 -0.5996 -0.7229
20826SOL     OW67797   3.957   7.313   3.127 -0.0340 -0.4261  0.0186
20826SOL    HW167798   3.972   7.396   3.173 -1.9172 -0.2516  0.3998
20826SOL    HW267799   3.938   7.250   3.197 -0.4635 -0.7297 -0.3645
20827SOL     OW67800   9.540   4.321   0.342 -0.5315  0.4957 -0.2205
20827SOL    HW167801   9.563   4.254   0.406 -2.4788  2.0494  2.3070
20827SOL    HW267802   9.478   4.278   0.283 -0.5916 -0.3418  0.4347
20828SOL     OW67803  11.377   9.771   1.278 -0.3978  0.2020  0.3113
20828SOL    HW167804  11.402   9.855   1.240  3.5044  0.8120  3.5383
20828SOL    HW267805  11.442   9.709   1.244 -2.1295 -1.2283 -0.5974
20829SOL     OW67806  10.394  10.362   3.754 -0.1217  0.2159 -0.0677
20829SOL    HW167807  10.365  10.275   3.728 -1.7162  0.5024  0.5908
20829SOL    HW267808  10.450  10.348   3.830  0.6165 -0.2978 -0.6981
20830SOL     OW67809   9.359   8.022   6.482 -0.0568  0.1297 -0.1843
20830SOL    HW167810   9.442   7.992   6.520 -0.1158 -0.2165 -0.3252
20830SOL    HW267811   9.333   8.095   6.537 -0.2680 -0.5138  0.5975
20831SOL     OW67812   8.840   3.573   7.762 -0.1888  0.5919  0.2779
20831SOL    HW167813   8.815   3.662   7.736 -2.2668  0.4719  1.6059
20831SOL    HW267814   8.759   3.522   7.754  0.6369 -0.8586  0.8281
20832SOL     OW67815   0.960   6.722   9.480  0.1399 -0.2858  0.1110
20832SOL    HW167816   0.910   6.743   9.559  1.4584 -1.8916  1.4460
20832SOL    HW267817   1.007   6.803   9.460 -0.6115  0.3065  0.6335
20833SOL     OW67818   4.647   4.344  10.757  0.0443 -0.1252 -0.3593
20833SOL    HW167819   4.680   4.283  10.691 -0.0053 -0.3860 -0.1463
20833SOL    HW267820   4.554   4.354  10.736 -0.3502 -1.4494  0.6055
20834SOL     OW67821  10.057   7.728   5.717 -1.2094  0.4485  0.3273
20834SOL    HW167822  10.095   7.716   5.631 -2.5892  0.8133 -0.3720
20834SOL    HW267823  10.095   7.659   5.771  2.0168  2.0513  0.3012
20835SOL     OW67824   1.930   1.502   2.060 -0.0143 -0.0960 -0.2969
20835SOL    HW167825   1.911   1.419   2.103  0.8318 -1.3413 -2.2224
20835SOL    HW267826   1.893   1.568   2.119  1.5734 -1.6043  2.6128
20836SOL     OW67827   2.798   3.704   0.556 -0.1547 -0.3657 -0.1782
20836SOL    HW167828   2.744   3.670   0.627  2.0823 -2.3521  0.6853
20836SOL    HW267829   2.766   3.659   0.477 -0.2011 -0.9947  0.1999
20837SOL     OW67830   0.776   1.224   2.245 -0.1389 -0.4369 -0.5864
20837SOL    HW167831   0.751   1.152   2.188  1.1906 -0.5553 -1.0415
20837SOL    HW267832   0.721   1.298   2.216 -1.5738 -1.2493 -0.0542
20838SOL     OW67833   5.955   1.053   3.762 -0.8581  0.0900  0.3059
20838SOL    HW167834   6.007   1.125   3.727 -1.8293  0.7396  0.1307
20838SOL    HW267835   5.974   1.053   3.856  0.2367 -0.3654  0.0930
20839SOL     OW67836  11.389   5.059   3.063  0.0137 -0.5592 -0.0699
20839SOL    HW167837  11.474   5.093   3.035 -0.5903  0.8241 -0.3629
20839SOL    HW267838  11.371   5.105   3.145 -1.5269  1.1296 -1.2636
20840SOL     OW67839   7.053   7.559   5.763 -0.2987  0.1276 -0.5040
20840SOL    HW167840   6.961   7.577   5.784 -1.0797 -1.4748 -2.2524
20840SOL    HW267841   7.061   7.584   5.670  0.8378 -0.4344 -0.5738
20841SOL     OW67842   5.601   4.007   3.414  0.1753  0.2288  0.2784
20841SOL    HW167843   5.618   3.914   3.428  0.6342  0.0989 -0.9536
20841SOL    HW267844   5.522   4.009   3.360  0.3834  0.5305 -0.0196
20842SOL     OW67845   3.982   6.000  10.016  0.1292 -0.0176  0.2930
20842SOL    HW167846   3.966   6.085   9.974 -0.6376 -0.9115 -1.2927
20842SOL    HW267847   3.916   5.994  10.085  1.6146  1.6117  1.9946
20843SOL     OW67848   0.803  11.125   5.547 -0.4744  0.1858 -0.0871
20843SOL    HW167849   0.716  11.135   5.586 -0.3510 -0.3726  0.3567
20843SOL    HW267850   0.837  11.044   5.586 -0.0290  0.0371 -0.7686
20844SOL     OW67851  10.498   8.378   9.303  0.9125 -0.5401 -0.1503
20844SOL    HW167852  10.591   8.375   9.277  1.4793 -1.3143  1.8342
20844SOL    HW267853  10.500   8.398   9.396 -0.9683  0.0082 -0.1956
20845SOL     OW67854   9.026   2.452   0.673 -0.3691  0.2444 -0.0311
20845SOL    HW167855   8.956   2.458   0.607 -0.0134  1.6169 -0.3177
20845SOL    HW267856   8.980   2.432   0.755 -0.9564 -0.1511 -0.4479
20846SOL     OW67857   2.394   1.299   4.733  0.0855 -0.1089 -0.5782
20846SOL    HW167858   2.485   1.288   4.703 -0.2844  1.5287 -2.5994
20846SOL    HW267859   2.376   1.392   4.719 -1.0231  0.2675  2.5715
20847SOL     OW67860   0.316   8.733   4.641  0.3203  0.2131  0.2550
20847SOL    HW167861   0.283   8.751   4.553 -0.0771  2.7353  0.8276
20847SOL    HW267862   0.330   8.820   4.679 -1.1407 -0.7335  3.2704
20848SOL     OW67863   9.492   6.622   7.002  0.6835  0.3127  0.2898
20848SOL    HW167864   9.406   6.618   7.044  0.3863 -1.8932 -0.4425
20848SOL    HW267865   9.554   6.610   7.074  0.2938 -0.2820  0.5297
20849SOL     OW67866   7.990   2.794   7.279 -0.4370 -0.0425 -0.3671
20849SOL    HW167867   8.042   2.789   7.199  1.7780 -1.0045  1.0178
20849SOL    HW267868   7.991   2.887   7.303  0.3432  0.0074 -0.5678
20850SOL     OW67869  10.929   4.060  11.489  0.4770 -0.1778  0.5846
20850SOL    HW167870  10.976   4.128  11.537 -0.6825  1.2967 -0.3015
20850SOL    HW267871  10.846   4.051  11.534 -0.6818  1.3206 -1.1326
20851SOL     OW67872   0.899   2.855   4.327 -0.1576  0.8001  1.0071
20851SOL    HW167873   0.867   2.786   4.269 -0.2440  1.3206  0.4256
20851SOL    HW267874   0.942   2.808   4.399  0.9958  0.1449 -0.0684
20852SOL     OW67875   4.142   5.654   4.180  0.4136  0.0342 -0.6591
20852SOL    HW167876   4.116   5.574   4.133  1.6478 -0.4900 -0.4966
20852SOL    HW267877   4.126   5.725   4.117 -0.1558 -0.4014 -1.0164
20853SOL     OW67878  10.418  10.729  11.140 -0.1437 -0.3132  0.0418
20853SOL    HW167879  10.425  10.743  11.046  0.2171  0.4210  0.1725
20853SOL    HW267880  10.366  10.804  11.171 -1.9188 -1.5334  0.1721
20854SOL     OW67881   9.887  10.450   7.855  0.4662  0.5847 -0.3953
20854SOL    HW167882   9.826  10.432   7.926 -0.1001  1.9364 -0.4974
20854SOL    HW267883   9.861  10.389   7.786  0.2033  0.1216  0.1042
20855SOL     OW67884   5.846   6.347   3.010 -0.0856 -0.3364 -0.3677
20855SOL    HW167885   5.863   6.439   2.990  0.5498 -0.2557  0.4763
20855SOL    HW267886   5.751   6.342   3.020  0.0767  1.2206  3.8729
20856SOL     OW67887   8.868   5.060   0.872 -0.0906  0.2651 -0.0479
20856SOL    HW167888   8.941   5.011   0.835 -1.3963 -0.5951 -1.5920
20856SOL    HW267889   8.791   5.007   0.853 -1.2842  1.7691  0.3978
20857SOL     OW67890   8.595   0.002   4.095 -0.5252  0.1802 -0.1059
20857SOL    HW167891   8.538  -0.033   4.163 -1.2369  2.4093  0.5381
20857SOL    HW267892   8.577   0.096   4.095  0.0310  0.3654 -2.8524
20858SOL     OW67893   8.268   3.164   7.854  0.5501  0.4887  0.3280
20858SOL    HW167894   8.358   3.131   7.857  1.3197  2.3070 -0.8074
20858SOL    HW267895   8.228   3.120   7.779  0.9053  0.6157  0.0613
20859SOL     OW67896  11.003   4.458   9.437  0.6875  0.7082  0.1546
20859SOL    HW167897  11.049   4.514   9.498  0.7570  0.8156  0.0044
20859SOL    HW267898  11.045   4.475   9.352  2.5348 -1.4964  0.5201
20860SOL     OW67899   6.878   2.394   8.557 -0.0590  0.0377  0.2291
20860SOL    HW167900   6.797   2.409   8.605  0.1066  0.3522  0.4192
20860SOL    HW267901   6.946   2.432   8.613  0.4554 -1.8268  0.9505
20861SOL     OW67902   7.478   3.762   6.220  0.7079 -0.2276  0.3359
20861SOL    HW167903   7.521   3.686   6.180  1.1084  0.3170 -0.2926
20861SOL    HW267904   7.468   3.825   6.148 -0.2580  0.0478  0.6946
20862SOL     OW67905  11.046  10.359   6.551 -0.0002 -0.4098  0.2452
20862SOL    HW167906  11.055  10.397   6.638  0.8075 -0.8707  0.3834
20862SOL    HW267907  10.978  10.410   6.508 -1.2503 -0.9124  1.5523
20863SOL     OW67908   7.669   6.202   8.088  0.4655 -0.2304  0.3463
20863SOL    HW167909   7.758   6.229   8.064  0.0474  0.9593  0.0418
20863SOL    HW267910   7.675   6.108   8.101  1.1840 -0.6808 -2.5212
20864SOL     OW67911   2.824   4.257   1.123 -0.2115  0.3663 -0.1023
20864SOL    HW167912   2.735   4.264   1.089 -0.9847  1.3702  1.9820
20864SOL    HW267913   2.875   4.316   1.067 -0.9992  0.3706 -0.8424
20865SOL     OW67914   8.014   6.407   2.584 -0.7296  0.4276 -0.0326
20865SOL    HW167915   7.958   6.418   2.661 -0.7281  0.2535 -0.0046
20865SOL    HW267916   7.993   6.319   2.552 -0.9417  0.6078 -0.4004
20866SOL     OW67917   1.234   7.285   8.595  0.2887  0.4929 -0.3846
20866SOL    HW167918   1.293   7.356   8.571  0.0296  0.4737 -1.1046
20866SOL    HW267919   1.165   7.289   8.529 -1.0051  1.0967  0.9395
20867SOL     OW67920   9.354   6.047   1.607  0.0100  0.2268 -0.5708
20867SOL    HW167921   9.272   6.016   1.647  1.5060 -1.5033  1.4266
20867SOL    HW267922   9.364   5.993   1.528  0.2888 -1.2415  0.4146
20868SOL     OW67923   9.510   0.876   1.716 -0.0965 -0.9390 -0.2760
20868SOL    HW167924   9.593   0.905   1.677 -0.0409 -0.6580  0.0527
20868SOL    HW267925   9.443   0.910   1.656  0.0824 -3.4009 -2.0507
20869SOL     OW67926   9.488   4.008   2.402  0.5930  0.1381 -0.1359
20869SOL    HW167927   9.582   4.027   2.410  0.6226 -0.4988  1.5041
20869SOL    HW267928   9.454   4.076   2.344  1.3993  2.7961  2.2873
20870SOL     OW67929   4.641   0.536   7.564 -0.1508  0.3145  0.0885
20870SOL    HW167930   4.594   0.609   7.604  0.1333  0.9646 -0.7446
20870SOL    HW267931   4.579   0.499   7.502 -0.0449  0.2817  0.0025
20871SOL     OW67932  10.011   0.995  11.438 -0.0041 -0.3975 -0.2145
20871SOL    HW167933  10.030   0.912  11.483  0.0645  0.5574  1.6319
20871SOL    HW267934   9.944   1.036  11.493  0.5029  1.1041 -0.6694
20872SOL     OW67935   8.174   2.418   0.170  0.3211 -0.3697  0.3153
20872SOL    HW167936   8.184   2.348   0.105  2.0933  0.2137 -0.0979
20872SOL    HW267937   8.250   2.409   0.227 -0.3842  0.1260  1.3706
20873SOL     OW67938  11.733  10.707  11.757  0.5725 -0.0386 -0.0611
20873SOL    HW167939  11.771  10.652  11.689 -0.5948 -0.7929 -0.1449
20873SOL    HW267940  11.768  10.794  11.741  0.6801 -0.3019 -1.3416
20874SOL     OW67941   8.252  11.363   0.383  0.3024  0.2464 -0.8016
20874SOL    HW167942   8.181  11.426   0.378 -0.5903 -0.8472 -2.6842
20874SOL    HW267943   8.296  11.369   0.298 -0.2889 -2.1731 -1.3437
20875SOL     OW67944   8.443   6.736   2.513  0.1038 -0.0539  0.2782
20875SOL    HW167945   8.537   6.732   2.500  0.3338  1.4560  1.2824
20875SOL    HW267946   8.415   6.644   2.514  1.3273 -0.4746 -1.4349
20876SOL     OW67947   6.933   5.525   5.628  0.1873 -0.2402  0.1152
20876SOL    HW167948   6.866   5.588   5.656  0.4192  0.7865 -1.4950
20876SOL    HW267949   6.941   5.465   5.702 -0.5368  1.2129  1.4572
20877SOL     OW67950   1.657   2.180   3.061 -0.2672 -0.4599  0.0570
20877SOL    HW167951   1.655   2.254   3.001  2.8448 -0.8545 -0.7223
20877SOL    HW267952   1.686   2.217   3.144  3.3340 -0.9157 -0.8444
20878SOL     OW67953   5.731   1.957  11.151  0.2839 -0.0023 -0.6713
20878SOL    HW167954   5.730   1.918  11.064  0.7883 -0.1167 -0.6282
20878SOL    HW267955   5.771   2.043  11.139  0.6458 -0.1459 -0.4995
20879SOL     OW67956   9.948   2.671  11.502 -0.0347 -0.1526 -0.4870
20879SOL    HW167957   9.916   2.629  11.422 -0.8318  0.8594 -0.7212
20879SOL    HW267958   9.932   2.608  11.571  1.1717 -1.2771 -1.1903
20880SOL     OW67959  10.819  10.557   9.756  0.4223 -0.4007  0.1935
20880SOL    HW167960  10.829  10.474   9.803 -0.0670  1.0150  3.0264
20880SOL    HW267961  10.730  10.553   9.720 -0.4876 -0.2424  2.2907
20881SOL     OW67962   9.059   2.784   0.579 -0.1752  0.2965 -0.1792
20881SOL    HW167963   9.078   2.703   0.533 -1.1994  0.5637 -1.1459
20881SOL    HW267964   8.987   2.823   0.529 -0.5693  1.1641  1.0141
20882SOL     OW67965   0.559   1.448   2.689  0.1079 -0.3586 -0.0160
20882SOL    HW167966   0.574   1.542   2.690  0.6725 -0.4376 -0.7618
20882SOL    HW267967   0.525   1.430   2.602  0.4429 -0.9143 -0.0371
20883SOL     OW67968   7.582  11.070  10.123  0.2562 -0.4866 -0.2003
20883SOL    HW167969   7.668  11.089  10.161 -0.0278 -2.0097  1.3352
20883SOL    HW267970   7.601  11.027  10.040  1.0116 -1.5181  0.4906
20884SOL     OW67971   8.597   9.122   2.380  0.2415 -0.0521  0.0830
20884SOL    HW167972   8.669   9.062   2.398  1.0578  0.8020 -0.2373
20884SOL    HW267973   8.640   9.207   2.369 -0.9397  0.7506  1.3189
20885SOL     OW67974   2.934   1.116   7.858 -0.7295 -0.0195  0.0326
20885SOL    HW167975   2.919   1.175   7.932  0.3636 -0.4008  0.5829
20885SOL    HW267976   2.993   1.163   7.800 -0.3240 -0.3319  0.1851
20886SOL     OW67977   4.523   3.953   9.449  0.2163 -0.1821 -0.0151
20886SOL    HW167978   4.474   3.878   9.414  0.4033 -0.7659  0.9270
20886SOL    HW267979   4.520   3.940   9.544 -0.1675  1.2793  0.1969
20887SOL     OW67980   4.996   3.381  11.518 -0.4863  0.4559  0.1202
20887SOL    HW167981   5.055   3.367  11.592  0.1366 -0.5656 -0.5285
20887SOL    HW267982   4.940   3.303  11.517  1.0561 -0.7290 -1.8204
20888SOL     OW67983   6.734   8.783   4.305 -0.4780  0.6726 -0.7545
20888SOL    HW167984   6.670   8.726   4.346  2.2306 -2.4170 -0.4581
20888SOL    HW267985   6.779   8.728   4.240  1.7241  2.6794 -1.1032
20889SOL     OW67986   6.337   0.173   6.745  0.2845  0.3298 -0.8706
20889SOL    HW167987   6.421   0.125   6.742  0.1057 -0.2163  0.9640
20889SOL    HW267988   6.275   0.114   6.703  0.2465 -0.7191  0.5673
20890SOL     OW67989   1.843   1.815   1.333  0.5026  0.5806 -0.0373
20890SOL    HW167990   1.815   1.729   1.364  1.2295  0.6681  0.9074
20890SOL    HW267991   1.889   1.854   1.407  0.7749  1.5110 -0.6716
20891SOL     OW67992  11.468   2.813   5.461  0.1423 -0.3312  0.4122
20891SOL    HW167993  11.537   2.850   5.515 -0.0091 -0.4614  0.6967
20891SOL    HW267994  11.394   2.873   5.472  0.4455  0.2169 -0.4786
20892SOL     OW67995  11.031  11.774   8.048 -0.1033  0.2471  0.1010
20892SOL    HW167996  11.127  11.780   8.047 -0.0536 -0.4149 -1.1888
20892SOL    HW267997  11.002  11.865   8.053  0.5741  0.4347  0.9974
20893SOL     OW67998   9.198   0.781   1.709  0.2736 -0.4638  0.4920
20893SOL    HW167999   9.212   0.855   1.651 -1.2942 -0.5668 -0.0673
20893SOL    HW268000   9.231   0.705   1.659 -1.1809 -0.5714 -0.3788
20894SOL     OW68001   5.794   5.650   7.356  0.2712 -0.3709  0.8649
20894SOL    HW168002   5.807   5.609   7.270 -1.6397 -0.6383  0.6617
20894SOL    HW268003   5.776   5.577   7.415  0.2603 -0.0773  1.2268
20895SOL     OW68004   0.971   8.559   8.346  0.2837 -0.1149 -0.0560
20895SOL    HW168005   0.959   8.560   8.251  0.9734  0.1573 -0.1450
20895SOL    HW268006   1.063   8.533   8.358  0.2797  0.1279  0.5264
20896SOL     OW68007   7.128   0.870   3.142 -0.4722  0.3609  0.5085
20896SOL    HW168008   7.081   0.787   3.135 -2.0584  1.2671  0.0623
20896SOL    HW268009   7.141   0.898   3.052 -0.5531  0.9355  0.6738
20897SOL     OW68010  11.259   5.747   8.934 -0.6423 -0.1959  0.0910
20897SOL    HW168011  11.195   5.728   9.002 -0.5542 -1.4654 -0.1504
20897SOL    HW268012  11.207   5.765   8.856 -0.7481  1.4385  0.4935
20898SOL     OW68013   3.379   2.402   6.564 -0.3316  0.2394  0.2691
20898SOL    HW168014   3.287   2.407   6.540 -0.5294 -0.4953  0.8470
20898SOL    HW268015   3.381   2.420   6.658  0.0209 -0.5157  0.4136
20899SOL     OW68016   9.904   3.018   6.133  0.1036  0.3705  0.1092
20899SOL    HW168017   9.951   2.965   6.069 -1.1206  0.6315 -1.0538
20899SOL    HW268018   9.814   3.020   6.101 -0.7734 -0.2425  2.3447
20900SOL     OW68019   6.881  11.170   3.998  0.2118  0.0128 -0.1126
20900SOL    HW168020   6.937  11.172   3.920 -0.8739  0.2767 -0.9069
20900SOL    HW268021   6.798  11.134   3.967  0.3736 -1.7088  1.3602
20901SOL     OW68022  11.620   5.794  11.076  0.3685 -0.5216 -0.0492
20901SOL    HW168023  11.533   5.832  11.072 -0.4477 -2.2392  0.4689
20901SOL    HW268024  11.677   5.866  11.103 -1.0473  0.4033  0.5545
20902SOL     OW68025   4.567   2.963   5.892 -0.4286 -0.2060  0.6325
20902SOL    HW168026   4.523   2.899   5.835  0.9187  1.9243 -3.2129
20902SOL    HW268027   4.496   3.008   5.937 -1.7335 -1.1469 -0.3900
20903SOL     OW68028   1.965   9.890   9.646  0.5727  0.0745  0.3156
20903SOL    HW168029   2.000   9.978   9.654  0.1388  0.1594  1.4156
20903SOL    HW268030   1.870   9.901   9.654  0.5197 -0.4850  0.5102
20904SOL     OW68031   7.433   4.441   6.171 -1.0645  0.0871 -0.1123
20904SOL    HW168032   7.448   4.432   6.077 -1.8288 -1.8889 -0.0746
20904SOL    HW268033   7.504   4.499   6.201  0.1162 -0.5012 -1.6471
20905SOL     OW68034   0.826   0.106  10.714  0.5012  0.7936  0.1763
20905SOL    HW168035   0.758   0.157  10.670  0.3567 -1.5098 -2.5456
20905SOL    HW268036   0.783   0.023  10.737  2.1264 -0.4393 -0.9795
20906SOL     OW68037   5.550   2.902  10.610  0.0103 -0.0669  0.4340
20906SOL    HW168038   5.633   2.929  10.648 -0.4396  1.3963  0.4680
20906SOL    HW268039   5.517   2.981  10.567 -1.6048 -0.4608  0.8812
20907SOL     OW68040   0.016   7.748   0.532  0.0731  0.1348  0.5333
20907SOL    HW168041  -0.019   7.735   0.620  0.0634 -0.1649  0.4876
20907SOL    HW268042   0.069   7.670   0.515  0.0384  0.1688  0.2568
20908SOL     OW68043   7.359   3.546   2.966 -0.0909  0.2850  0.4639
20908SOL    HW168044   7.343   3.637   2.990 -1.0838  0.0861  0.5753
20908SOL    HW268045   7.295   3.527   2.898 -1.5117 -1.0215  2.0779
20909SOL     OW68046   3.518   8.139   0.253  0.4731 -0.3650 -0.0008
20909SOL    HW168047   3.496   8.082   0.179  0.4821 -2.0231  1.1954
20909SOL    HW268048   3.610   8.161   0.241  0.1654  0.4060 -1.1010
20910SOL     OW68049   7.524   0.046   2.533  0.1145  0.7868  0.2458
20910SOL    HW168050   7.489   0.017   2.617  0.3265 -0.7709 -0.1685
20910SOL    HW268051   7.619   0.049   2.546  0.3416 -1.6108 -0.5186
20911SOL     OW68052   6.602   8.939   1.955 -0.0683 -0.5003  0.6204
20911SOL    HW168053   6.692   8.908   1.943  0.7718  1.4762  1.3846
20911SOL    HW268054   6.576   8.972   1.868  0.0906 -0.7248  0.4871
20912SOL     OW68055   0.352   1.378   5.668  0.5800 -0.0066  0.7751
20912SOL    HW168056   0.400   1.429   5.733  0.0936  2.3284 -0.5529
20912SOL    HW268057   0.269   1.425   5.658 -0.5260 -1.9277  0.4770
20913SOL     OW68058   7.163   9.165  11.603  0.1453 -0.0729 -0.1210
20913SOL    HW168059   7.192   9.239  11.656 -0.5520  0.1729 -0.0696
20913SOL    HW268060   7.071   9.183  11.586  0.6094  0.4280 -2.3683
20914SOL     OW68061   1.694  10.656   6.897  0.1177 -0.2122 -0.4331
20914SOL    HW168062   1.640  10.654   6.976 -0.9900 -0.2461 -1.1622
20914SOL    HW268063   1.680  10.744   6.860  0.2196 -0.3677 -0.8538
20915SOL     OW68064   2.174   4.199   9.617  0.0528  0.0571  0.3211
20915SOL    HW168065   2.193   4.290   9.640  1.9458 -0.3001  0.3245
20915SOL    HW268066   2.153   4.157   9.701 -0.3395  0.3708  0.3832
20916SOL     OW68067   8.026   2.772   2.590 -0.2739  0.4852  0.4840
20916SOL    HW168068   8.115   2.808   2.591 -0.7422  1.7197 -0.1746
20916SOL    HW268069   7.996   2.780   2.681  0.6627 -0.9748  0.9475
20917SOL     OW68070   0.777   0.440   7.754  0.0373  0.2052  0.2984
20917SOL    HW168071   0.751   0.371   7.816  1.3046 -1.4601 -0.9430
20917SOL    HW268072   0.736   0.414   7.671  3.8046 -1.4864 -1.2446
20918SOL     OW68073   3.651  10.087   2.405 -0.4297 -0.2370 -0.4607
20918SOL    HW168074   3.730  10.111   2.358 -0.7067  0.0345 -0.7873
20918SOL    HW268075   3.595  10.047   2.339 -0.1002 -1.5252  0.0039
20919SOL     OW68076   1.933   5.767   2.670 -0.7300 -0.1372 -0.3138
20919SOL    HW168077   1.941   5.840   2.609 -1.3647  0.6403  0.5116
20919SOL    HW268078   2.016   5.720   2.662  0.7098  2.0204  0.8228
20920SOL     OW68079   3.790   7.360  10.770  0.0911 -0.1355  0.0293
20920SOL    HW168080   3.765   7.323  10.686  1.9150 -0.3032 -0.4865
20920SOL    HW268081   3.868   7.311  10.795  2.5325  3.1107 -0.5835
20921SOL     OW68082   7.796   0.026   2.591  0.3473  0.4714  0.4628
20921SOL    HW168083   7.795   0.000   2.683 -0.9157 -1.0302  0.0603
20921SOL    HW268084   7.871  -0.022   2.554  0.0386  0.0064  0.4322
20922SOL     OW68085   6.318   4.878   5.192  0.7109 -0.2527 -0.2044
20922SOL    HW168086   6.327   4.969   5.223  0.3245 -0.1403 -0.4071
20922SOL    HW268087   6.294   4.829   5.271 -2.6386  0.4215 -0.6191
20923SOL     OW68088   0.070   5.333   8.351  0.0994 -0.3573 -0.0434
20923SOL    HW168089   0.077   5.428   8.358  2.8722 -0.3014 -1.7995
20923SOL    HW268090   0.105   5.300   8.433  0.6697  0.1704 -0.0639
20924SOL     OW68091   6.986  11.513   1.005 -0.3952  0.0483  0.2509
20924SOL    HW168092   7.071  11.479   0.975  0.0354  2.0445 -0.9937
20924SOL    HW268093   6.926  11.493   0.933 -1.2266 -1.9659  1.4078
20925SOL     OW68094   0.696   6.257   2.342  0.4084  0.1624 -0.6612
20925SOL    HW168095   0.775   6.310   2.352  1.9759 -1.9758 -1.0710
20925SOL    HW268096   0.654   6.292   2.264  0.3351  2.0099  0.1460
20926SOL     OW68097   7.279   7.466   9.575  0.0159 -0.4891 -0.5517
20926SOL    HW168098   7.349   7.532   9.575  0.2776 -0.7627 -0.1327
20926SOL    HW268099   7.292   7.418   9.493  0.7231 -0.9525 -0.1822
20927SOL     OW68100   9.963   9.652  10.632 -0.3557 -0.1507  0.0598
20927SOL    HW168101   9.967   9.693  10.718 -1.7252 -0.0043  0.0757
20927SOL    HW268102  10.035   9.590  10.632  0.6273  0.9428  0.7222
20928SOL     OW68103   1.054   1.213  11.809 -0.2945  0.2252 -0.2372
20928SOL    HW168104   1.042   1.127  11.850  2.8487 -0.8149 -1.1634
20928SOL    HW268105   1.085   1.193  11.720  0.0063  2.3076 -0.6526
20929SOL     OW68106   6.932   9.635   9.040 -0.2431 -0.3863 -0.4372
20929SOL    HW168107   6.884   9.674   8.967  0.5396  1.6326  0.0618
20929SOL    HW268108   6.877   9.653   9.117  1.0988  1.6496  0.0902
20930SOL     OW68109  11.537   6.071   6.431  0.0093 -0.1708  0.0007
20930SOL    HW168110  11.616   6.106   6.390  0.2704 -0.8430 -0.0888
20930SOL    HW268111  11.466   6.128   6.400  0.6588  1.5346  1.4717
20931SOL     OW68112   0.025   0.231   7.555 -0.0040 -0.5523  0.4552
20931SOL    HW168113   0.093   0.168   7.578 -0.9850 -1.8688 -0.1454
20931SOL    HW268114  -0.038   0.181   7.502 -1.1805  0.7530  0.5562
20932SOL     OW68115  11.721   5.986  11.629  0.4148  0.1381 -0.4861
20932SOL    HW168116  11.698   5.923  11.698 -1.0199  1.1368 -0.0208
20932SOL    HW268117  11.656   6.055  11.637  0.3291  0.3759 -2.7569
20933SOL     OW68118   2.462   9.881   5.927  0.7494  0.0214  0.4112
20933SOL    HW168119   2.531   9.907   5.867 -0.9757  0.4754 -1.4577
20933SOL    HW268120   2.506   9.825   5.991  3.1685  1.7298  0.3783
20934SOL     OW68121   7.028   2.528   9.478  0.0713  0.6274  0.7331
20934SOL    HW168122   6.996   2.618   9.491  0.2556  0.8600 -0.3611
20934SOL    HW268123   7.048   2.523   9.385  1.2946 -0.1585  1.0232
20935SOL     OW68124   2.259   7.156   1.095  0.7631 -1.1035  0.3228
20935SOL    HW168125   2.275   7.147   1.189 -0.6850  1.2983  0.8932
20935SOL    HW268126   2.339   7.194   1.060  0.6773 -0.3217  0.9484
20936SOL     OW68127   6.408  10.645   3.877 -0.3922 -0.3152 -0.1084
20936SOL    HW168128   6.495  10.619   3.846 -0.0770  0.6301 -0.0501
20936SOL    HW268129   6.352  10.638   3.800 -0.1578 -0.4295 -0.2712
20937SOL     OW68130   9.975   3.046   2.743  0.0905  0.5954  0.5141
20937SOL    HW168131   9.948   3.053   2.652 -0.6635  1.0613  0.7584
20937SOL    HW268132   9.918   3.107   2.790  1.0940  1.0735  1.1707
20938SOL     OW68133   2.769   4.449   0.400 -0.2565 -0.0247 -0.1361
20938SOL    HW168134   2.674   4.441   0.395 -0.2119 -0.0544 -0.9794
20938SOL    HW268135   2.802   4.404   0.323  0.4681 -0.3472  0.3523
20939SOL     OW68136  11.157   8.545   1.580  0.1133 -0.1016 -0.9106
20939SOL    HW168137  11.062   8.560   1.582 -0.2316 -1.8187 -2.1532
20939SOL    HW268138  11.189   8.583   1.662 -1.4600  1.5337 -0.9883
20940SOL     OW68139   1.805   7.069   0.419  0.2867 -0.1504 -0.1943
20940SOL    HW168140   1.739   7.138   0.421  0.5484  0.1028 -0.2607
20940SOL    HW268141   1.813   7.046   0.327  0.5514  0.0716 -0.2278
20941SOL     OW68142  11.527   6.056   5.087  0.1205  0.1470 -0.2047
20941SOL    HW168143  11.503   5.965   5.104  1.3856 -0.4031 -1.1225
20941SOL    HW268144  11.444   6.101   5.077 -0.5381 -1.0308 -0.2798
20942SOL     OW68145  10.179   1.541   3.899 -0.2069 -0.3909 -0.3688
20942SOL    HW168146  10.183   1.449   3.927  1.3177 -0.0601  0.6184
20942SOL    HW268147  10.111   1.542   3.831 -3.6587 -1.4144  2.7188
20943SOL     OW68148   6.037  10.726   6.922  0.1146  0.0152 -0.1153
20943SOL    HW168149   5.988  10.780   6.861 -0.7653  0.1643  0.6926
20943SOL    HW268150   5.987  10.644   6.927 -0.1627  0.2289  0.8397
20944SOL     OW68151   9.435   9.118   9.316  0.1412 -0.1294  0.2497
20944SOL    HW168152   9.399   9.205   9.297  0.4570  0.3078  1.5635
20944SOL    HW268153   9.475   9.090   9.233  1.3419  1.6192  0.1950
20945SOL     OW68154   7.206   5.072   0.604 -0.5643  0.1514 -0.1007
20945SOL    HW168155   7.185   5.152   0.652 -0.1687  0.3764 -0.2964
20945SOL    HW268156   7.299   5.058   0.621 -0.7763 -0.6411  0.4781
20946SOL     OW68157   6.702  10.225   7.728  0.6739  0.4203  0.5700
20946SOL    HW168158   6.623  10.242   7.676  0.7426 -1.4875 -0.2478
20946SOL    HW268159   6.764  10.293   7.702  0.2439  0.2870 -0.8752
20947SOL     OW68160   3.579   8.072   7.286 -0.1178 -0.0263 -0.0794
20947SOL    HW168161   3.564   7.985   7.250  1.4360  0.6297 -2.5923
20947SOL    HW268162   3.650   8.060   7.349 -0.3326 -0.6504  0.0535
20948SOL     OW68163  11.112   6.774   3.685 -0.1420  0.1526 -0.2273
20948SOL    HW168164  11.112   6.695   3.631 -0.7528 -1.3360  1.8454
20948SOL    HW268165  11.022   6.805   3.683 -0.0416  0.4447 -0.4893
20949SOL     OW68166   8.612   5.676   8.564  0.4701 -0.2961  0.7460
20949SOL    HW168167   8.534   5.708   8.518 -0.4629  1.0665  3.1163
20949SOL    HW268168   8.604   5.580   8.562  0.7691 -0.3543 -2.2705
20950SOL     OW68169   8.419  11.618   0.286 -0.1607 -0.0743  0.6419
20950SOL    HW168170   8.386  11.683   0.224  1.2966  0.2735  0.2071
20950SOL    HW268171   8.419  11.536   0.237  1.9204  0.3746 -0.1897
20951SOL     OW68172   5.032   3.372   4.101  0.0587 -0.0523  0.4994
20951SOL    HW168173   4.957   3.316   4.125 -1.1599  0.9028 -0.8859
20951SOL    HW268174   5.021   3.450   4.156  0.3464 -0.1237  0.6602
20952SOL     OW68175   8.803   4.440   3.189 -0.2153 -0.1922 -0.5497
20952SOL    HW168176   8.823   4.414   3.099  1.1543  0.0725 -0.3423
20952SOL    HW268177   8.801   4.357   3.238  1.1742 -0.1940 -0.4480
20953SOL     OW68178   3.777   4.079  10.656 -0.1629  0.0371  0.3208
20953SOL    HW168179   3.728   4.125  10.588  1.1584  0.6498 -0.2386
20953SOL    HW268180   3.749   3.988  10.648 -0.5817  0.2318 -0.5336
20954SOL     OW68181   5.845   8.717   4.860  0.0645 -0.3658 -0.0697
20954SOL    HW168182   5.811   8.744   4.775  0.7237 -0.1386 -0.2715
20954SOL    HW268183   5.906   8.787   4.884  0.7259 -0.9739  0.0670
20955SOL     OW68184   6.144   9.300   1.540 -0.4250 -0.6609 -0.0952
20955SOL    HW168185   6.115   9.209   1.536 -0.4905 -0.6960  0.8101
20955SOL    HW268186   6.100   9.336   1.618  1.1092 -0.4259  0.7017
20956SOL     OW68187   3.907   5.739   8.211  0.0726  0.2318  0.0745
20956SOL    HW168188   3.949   5.682   8.147  0.1143  1.8690 -1.4257
20956SOL    HW268189   3.961   5.818   8.212 -1.1302  1.0748  0.5521
20957SOL     OW68190   0.510   4.890   1.100  0.0461 -0.0462  0.3631
20957SOL    HW168191   0.456   4.969   1.106  0.2158  0.2758 -1.6363
20957SOL    HW268192   0.576   4.901   1.169 -1.3993  0.3334  1.7516
20958SOL     OW68193  10.374   3.254   0.553  0.6417  0.0026 -0.2090
20958SOL    HW168194  10.403   3.220   0.469  0.1846  1.2164 -0.8919
20958SOL    HW268195  10.285   3.220   0.564  1.1394 -1.1488  0.3833
20959SOL     OW68196   6.795  10.218   9.472  0.1827  0.2024 -0.3324
20959SOL    HW168197   6.835  10.201   9.387 -0.3011  2.0145 -0.9765
20959SOL    HW268198   6.860  10.271   9.519  1.5894 -2.9433  1.5329
20960SOL     OW68199   1.703   6.733   2.953  0.5261 -0.4423 -0.1933
20960SOL    HW168200   1.634   6.681   2.911 -1.7256  0.2578  2.3622
20960SOL    HW268201   1.687   6.823   2.923  1.2440 -0.4644 -0.6706
20961SOL     OW68202   2.803   8.109   5.034 -0.0942 -0.6402  0.1763
20961SOL    HW168203   2.838   8.053   4.964  0.5725 -0.7303  0.5722
20961SOL    HW268204   2.832   8.197   5.011  0.3320 -0.7037  0.4606
20962SOL     OW68205  10.011   9.273   1.128 -0.2428  0.2045 -0.0543
20962SOL    HW168206   9.936   9.223   1.161 -0.3265  1.4877  1.8120
20962SOL    HW268207  10.074   9.273   1.200  1.4519 -0.5048 -1.4389
20963SOL     OW68208   9.198  11.319   5.760 -0.3541 -0.1049 -0.2632
20963SOL    HW168209   9.215  11.350   5.671  0.4150 -2.0983 -0.8779
20963SOL    HW268210   9.252  11.240   5.768 -1.3189 -0.6306  1.5555
20964SOL     OW68211   9.237   1.778   5.084  0.2467  0.0727 -0.8765
20964SOL    HW168212   9.297   1.822   5.145  0.5863  0.7531 -1.6661
20964SOL    HW268213   9.288   1.770   5.003  0.4736 -2.5343 -0.5510
20965SOL     OW68214   3.397   4.310   0.281  0.3898  0.1572 -0.5267
20965SOL    HW168215   3.308   4.328   0.251  0.6708  1.4652 -0.6199
20965SOL    HW268216   3.417   4.380   0.343  1.3819 -0.0790 -0.5511
20966SOL     OW68217   6.468   1.950   8.755  0.7846 -0.6711  0.1346
20966SOL    HW168218   6.481   2.032   8.707 -0.1421 -0.5395  0.0795
20966SOL    HW268219   6.374   1.932   8.745  0.9262 -1.5807  0.4029
20967SOL     OW68220   5.699  11.180   5.532 -0.4511 -0.5876  0.5439
20967SOL    HW168221   5.673  11.270   5.549  0.1411 -0.3637  0.3042
20967SOL    HW268222   5.627  11.143   5.480  0.1272  0.3200 -0.9768
20968SOL     OW68223   2.244  10.832   9.477  0.0064 -0.5505 -0.2796
20968SOL    HW168224   2.280  10.903   9.423  0.1714 -0.0380  0.5004
20968SOL    HW268225   2.155  10.860   9.498 -0.2110 -0.9546 -0.6443
20969SOL     OW68226   6.707   4.321   9.563  0.2537 -0.3585  0.0411
20969SOL    HW168227   6.664   4.242   9.529 -0.2684 -0.1249  0.1440
20969SOL    HW268228   6.801   4.305   9.551  0.1506 -0.9953  0.0628
20970SOL     OW68229   9.257   6.465   3.563  0.2236 -0.0647  0.4225
20970SOL    HW168230   9.256   6.505   3.476  3.3115 -0.1745  0.2001
20970SOL    HW268231   9.202   6.521   3.617 -1.0369  0.5067 -1.3997
20971SOL     OW68232   4.287   1.144   9.788  0.1109  0.5413 -0.0336
20971SOL    HW168233   4.308   1.183   9.703 -0.5718 -2.3857 -1.7167
20971SOL    HW268234   4.192   1.153   9.795  0.0950  0.2535  0.1384
20972SOL     OW68235   1.216   7.893   3.745  0.1229 -0.1437  0.6803
20972SOL    HW168236   1.236   7.850   3.661 -0.4086  1.0304 -0.0617
20972SOL    HW268237   1.296   7.881   3.797  0.4686 -0.8649  0.0086
20973SOL     OW68238   9.098  10.824   4.857 -0.0887  0.1110 -0.3820
20973SOL    HW168239   9.115  10.838   4.950 -1.0339 -0.8022 -0.0453
20973SOL    HW268240   9.127  10.734   4.841  0.8052  0.5248 -1.1664
20974SOL     OW68241   9.135   3.405  10.813 -0.4409 -0.4141 -0.2755
20974SOL    HW168242   9.168   3.490  10.783 -0.7382 -0.9547 -2.2406
20974SOL    HW268243   9.183   3.388  10.894 -0.0127  1.3810 -0.1061
20975SOL     OW68244   3.436   2.057   2.117 -0.2464  0.1213  0.1839
20975SOL    HW168245   3.501   2.024   2.055 -1.5068 -0.3596 -0.9261
20975SOL    HW268246   3.443   2.152   2.111  0.3834  0.0756  0.1237
20976SOL     OW68247   9.074   8.395   2.145  0.2893  0.2135 -0.3609
20976SOL    HW168248   9.004   8.389   2.080 -0.3565 -2.6449  0.4280
20976SOL    HW268249   9.078   8.487   2.168 -1.2219  0.9091 -2.5366
20977SOL     OW68250  10.427   7.736   2.959  0.2796  0.4549  0.1717
20977SOL    HW168251  10.470   7.693   2.886 -1.2490  1.0582 -1.1593
20977SOL    HW268252  10.399   7.665   3.017  2.2342  0.0225  0.6511
20978SOL     OW68253   7.634   0.735  10.873 -0.0258 -0.0780 -0.2223
20978SOL    HW168254   7.565   0.795  10.900  0.4301  0.8395 -1.0450
20978SOL    HW268255   7.588   0.659  10.839 -0.6114 -0.7266  1.8724
20979SOL     OW68256   3.374  10.192   3.757  0.2336  0.3056  0.2650
20979SOL    HW168257   3.310  10.263   3.757  1.8162  1.7963  0.5037
20979SOL    HW268258   3.458  10.236   3.766  1.2984 -1.6011  0.0643
20980SOL     OW68259   2.800   7.136   1.241 -0.1923  0.4358  0.2354
20980SOL    HW168260   2.782   7.225   1.213 -2.6502 -0.3284 -0.8941
20980SOL    HW268261   2.756   7.127   1.325 -0.5907  0.0853 -0.0049
20981SOL     OW68262   4.024   9.205   7.926 -0.0074 -0.0892 -0.3411
20981SOL    HW168263   3.939   9.160   7.922 -0.2865  0.3745  0.2501
20981SOL    HW268264   4.023   9.251   8.010  1.2937 -0.9889  0.1966
20982SOL     OW68265  10.561   7.407   1.661 -0.0348 -0.0541 -0.6885
20982SOL    HW168266  10.478   7.455   1.661 -1.1553 -1.7006  2.2280
20982SOL    HW268267  10.542   7.327   1.611  0.2547  0.2203 -1.2408
20983SOL     OW68268  10.872   3.753   0.088  0.7213  0.1530 -0.3930
20983SOL    HW168269  10.951   3.717   0.128 -0.1412 -0.7516  0.5621
20983SOL    HW268270  10.860   3.702   0.008 -0.1995 -1.4022  0.6818
20984SOL     OW68271   9.244   9.074   8.895  0.0219 -0.3101 -0.4105
20984SOL    HW168272   9.172   9.070   8.833 -0.1858  0.8572 -0.2754
20984SOL    HW268273   9.209   9.037   8.976 -0.0864 -0.7140 -0.6403
20985SOL     OW68274  11.540   3.231   7.848  0.2046  0.1690 -0.1197
20985SOL    HW168275  11.579   3.297   7.790  0.6521 -1.7023 -2.0839
20985SOL    HW268276  11.449   3.259   7.858 -0.3070 -0.1563 -3.0038
20986SOL     OW68277   2.426   7.791   9.628  0.4639  0.0725 -0.2322
20986SOL    HW168278   2.453   7.834   9.547 -1.3846  0.8270 -0.5027
20986SOL    HW268279   2.421   7.862   9.692 -2.2282  0.3240 -0.5862
20987SOL     OW68280   2.229   0.343   8.824  0.0085  0.1610  0.0398
20987SOL    HW168281   2.154   0.315   8.771  0.0379  0.3633 -0.1121
20987SOL    HW268282   2.303   0.293   8.788 -0.4162 -1.7424  1.6459
20988SOL     OW68283   7.366   3.588  10.439 -0.3130  0.7092  0.2318
20988SOL    HW168284   7.280   3.613  10.405 -0.2081  0.5211 -0.1802
20988SOL    HW268285   7.355   3.588  10.534 -1.6474 -2.2479  0.2041
20989SOL     OW68286  11.643   9.308  11.753  0.4440  0.1354  0.1011
20989SOL    HW168287  11.599   9.375  11.805  0.5108  0.3526 -0.1176
20989SOL    HW268288  11.630   9.336  11.662  1.7072  0.6471  0.0570
20990SOL     OW68289   4.449   5.630   1.213 -0.1179 -0.3412  0.0707
20990SOL    HW168290   4.413   5.675   1.137  1.7681 -0.1553 -0.7884
20990SOL    HW268291   4.507   5.563   1.176  0.3833 -0.6402  1.3349
20991SOL     OW68292   7.450   0.341   5.911  0.1604 -0.3325 -0.0588
20991SOL    HW168293   7.428   0.410   5.973  0.4665 -1.7641  1.7406
20991SOL    HW268294   7.544   0.331   5.919  0.3498  0.0994 -1.5071
20992SOL     OW68295   2.338   8.009  11.065  0.1240 -0.2215  0.5195
20992SOL    HW168296   2.297   7.936  11.112  1.9307 -0.4632  1.8336
20992SOL    HW268297   2.393   7.968  10.999 -1.5325  0.0971 -1.1306
20993SOL     OW68298   0.824   7.741   6.141 -0.7159 -0.2716 -0.1520
20993SOL    HW168299   0.789   7.673   6.084  0.2243  0.2775 -1.4210
20993SOL    HW268300   0.899   7.776   6.094  0.8645 -0.6356  1.9715
20994SOL     OW68301   0.745   7.871   1.693  0.3209 -0.5946 -0.0984
20994SOL    HW168302   0.771   7.782   1.670 -0.4993 -0.6927 -0.7000
20994SOL    HW268303   0.679   7.894   1.628 -1.5998 -0.6182  1.7453
20995SOL     OW68304   2.406   4.038  10.312  0.2413 -0.2023 -0.0773
20995SOL    HW168305   2.328   4.051  10.258 -0.1610  0.4353  0.6340
20995SOL    HW268306   2.371   4.023  10.400  0.7649 -3.5777 -0.3038
20996SOL     OW68307   5.709   9.470   2.562 -0.2713 -0.0124 -0.1596
20996SOL    HW168308   5.666   9.510   2.486  0.8234  0.6316 -0.4712
20996SOL    HW268309   5.798   9.453   2.532  0.0231 -0.2319  0.8266
20997SOL     OW68310  11.774   6.818   8.658  0.2066  0.5788  0.2407
20997SOL    HW168311  11.841   6.755   8.684  0.8914  1.2944  0.2473
20997SOL    HW268312  11.724   6.834   8.738 -1.4141 -1.6122 -0.2422
20998SOL     OW68313   3.615   3.980   7.024  0.0189  0.2644 -0.1463
20998SOL    HW168314   3.607   3.908   6.961  1.5808 -0.4301  0.4110
20998SOL    HW268315   3.559   3.954   7.097 -0.1861  0.0908 -0.3626
20999SOL     OW68316   7.177   2.887   8.150 -0.4156 -0.3779 -0.5280
20999SOL    HW168317   7.180   2.802   8.194 -1.3847  0.7482  1.8661
20999SOL    HW268318   7.265   2.899   8.117  1.2240 -0.2680  3.3411
21000SOL     OW68319   4.304   0.387  11.816 -0.1250  0.8001 -0.2643
21000SOL    HW168320   4.386   0.364  11.771  0.5549  0.3162  1.1451
21000SOL    HW268321   4.311   0.481  11.832 -0.5250  1.0431 -1.4285
21001SOL     OW68322   1.786   2.067   7.015  0.0417  0.2864 -0.3206
21001SOL    HW168323   1.813   1.993   6.960 -0.9076  1.9237 -3.2295
21001SOL    HW268324   1.801   2.038   7.105  3.5796 -1.9216 -1.4157
21002SOL     OW68325   4.188   3.761   2.809 -0.0151 -0.4060  0.1497
21002SOL    HW168326   4.266   3.801   2.848 -0.1268 -0.8886  0.8799
21002SOL    HW268327   4.214   3.670   2.792 -0.4908 -0.6301  0.6031
21003SOL     OW68328   3.978   8.151   4.130 -0.1995  0.0115  0.3082
21003SOL    HW168329   4.026   8.223   4.090  1.4292 -1.0728  0.2117
21003SOL    HW268330   3.920   8.119   4.061  1.2037 -0.6164 -0.6310
21004SOL     OW68331  10.400   4.533   8.110 -0.1644  0.1043  0.2401
21004SOL    HW168332  10.395   4.600   8.178  0.2806  0.8100 -0.4007
21004SOL    HW268333  10.468   4.473   8.140  0.0018  0.3880  0.4372
21005SOL     OW68334   5.944   7.936   6.762  0.1892  0.3769  0.1165
21005SOL    HW168335   5.976   7.975   6.843  0.4606  0.8637 -0.2180
21005SOL    HW268336   5.855   7.969   6.753 -0.2036 -0.4692  0.7177
21006SOL     OW68337   7.511   6.874  11.494 -0.1538 -0.4522  0.0768
21006SOL    HW168338   7.555   6.848  11.413  1.0509  0.3181  0.4603
21006SOL    HW268339   7.458   6.949  11.470 -0.6761 -0.9059 -0.2215
21007SOL     OW68340   1.694   2.972   7.634 -0.0756  0.8012 -0.1653
21007SOL    HW168341   1.607   3.009   7.650 -0.4432  0.6480 -1.6623
21007SOL    HW268342   1.749   3.048   7.614  0.1378  0.8926  0.7273
21008SOL     OW68343   6.754  11.806   3.556 -0.2124 -0.4407  0.4351
21008SOL    HW168344   6.791  11.718   3.545  0.0178 -0.2388 -0.5661
21008SOL    HW268345   6.660  11.794   3.543  0.0921 -0.1120 -3.0559
21009SOL     OW68346   2.060   8.918   2.560  0.5283  0.1141 -0.0535
21009SOL    HW168347   2.144   8.872   2.570  0.1447 -0.6408 -0.2677
21009SOL    HW268348   2.001   8.853   2.523 -0.0147  0.8006 -0.4204
21010SOL     OW68349   5.570   9.445   0.515  0.1754 -0.6230  0.6209
21010SOL    HW168350   5.569   9.356   0.551 -0.3438 -0.7193  0.3737
21010SOL    HW268351   5.522   9.497   0.579  1.6678 -0.2399  1.4602
21011SOL     OW68352   6.810   0.239   5.598 -0.4649  0.0779 -0.4080
21011SOL    HW168353   6.788   0.269   5.686 -2.0849 -0.2045 -0.6864
21011SOL    HW268354   6.867   0.307   5.563  1.2194 -0.4007  1.2738
21012SOL     OW68355  10.387   2.365   9.050  0.5671 -0.1793  0.0615
21012SOL    HW168356  10.403   2.393   9.141  0.8929  0.1754 -0.1025
21012SOL    HW268357  10.452   2.297   9.035 -0.5277 -1.3900  0.6150
21013SOL     OW68358   0.305   1.476   6.360 -0.1202 -0.0323  0.3626
21013SOL    HW168359   0.335   1.405   6.416  0.7728  0.2216  0.2238
21013SOL    HW268360   0.278   1.433   6.279  0.0880 -0.2429  0.4041
21014SOL     OW68361  10.465   9.248   0.730  0.3693 -0.4852 -0.1217
21014SOL    HW168362  10.374   9.226   0.750 -0.0113 -0.4013 -1.6749
21014SOL    HW268363  10.489   9.310   0.799 -0.7369 -0.5287  0.3326
21015SOL     OW68364  11.229   9.438   7.889  0.2197  0.1911 -0.0490
21015SOL    HW168365  11.147   9.428   7.939  0.4360 -0.3838  0.1923
21015SOL    HW268366  11.225   9.371   7.822 -0.0509  0.9419 -0.8022
21016SOL     OW68367   4.470   8.393   0.400 -0.3306  0.1215  0.1502
21016SOL    HW168368   4.440   8.376   0.489  1.2166 -2.1669  0.3236
21016SOL    HW268369   4.535   8.324   0.383  1.8000  2.3819 -1.5975
21017SOL     OW68370  10.407   9.490   9.238 -0.4610  0.3321  0.1756
21017SOL    HW168371  10.475   9.465   9.300 -0.9910 -1.8824 -0.0477
21017SOL    HW268372  10.356   9.410   9.225 -1.1061  1.0433 -2.1857
21018SOL     OW68373  11.306   4.937  10.286  0.3363  0.2643 -0.2583
21018SOL    HW168374  11.310   5.022  10.330  2.0462  0.3722 -0.5403
21018SOL    HW268375  11.302   4.873  10.357 -0.6356  0.5475 -0.0410
21019SOL     OW68376   7.705   1.731  10.107  0.0919 -0.5490  0.1520
21019SOL    HW168377   7.708   1.800  10.174  1.5816 -0.1186 -0.3074
21019SOL    HW268378   7.673   1.775  10.028  0.0071 -0.6451  0.1330
21020SOL     OW68379   6.395   9.808   6.487  0.0812  0.3210 -0.1423
21020SOL    HW168380   6.416   9.735   6.544  2.2167  0.9015 -0.0841
21020SOL    HW268381   6.386   9.883   6.546  0.0165  0.4981 -0.3741
21021SOL     OW68382   6.216   4.861   0.900  0.5577  0.2585  0.3449
21021SOL    HW168383   6.241   4.942   0.856 -0.0242  0.4624  0.3843
21021SOL    HW268384   6.159   4.817   0.838  0.7789 -0.0684  0.3728
21022SOL     OW68385  11.682   5.982   4.626  0.2435  0.5518  0.3943
21022SOL    HW168386  11.661   6.063   4.673 -0.8538  0.7496 -0.4126
21022SOL    HW268387  11.648   5.913   4.683  1.1732  0.6406  1.0794
21023SOL     OW68388   8.627   9.114   6.663  0.0010 -0.4444  0.3250
21023SOL    HW168389   8.631   9.126   6.568 -0.7922  0.1317  0.3444
21023SOL    HW268390   8.564   9.043   6.675 -1.2495  0.6252  0.4456
21024SOL     OW68391  10.764   5.453   1.879  0.6215  0.2275  0.6673
21024SOL    HW168392  10.781   5.481   1.789  2.7356  0.8310  1.2006
21024SOL    HW268393  10.712   5.525   1.916 -1.3992 -0.6201 -0.3895
21025SOL     OW68394   8.688  11.410   8.569 -0.2220 -0.4166 -0.2448
21025SOL    HW168395   8.643  11.492   8.552 -3.0207 -1.6749  0.4191
21025SOL    HW268396   8.647  11.376   8.648  2.5135 -1.3847  0.9027
21026SOL     OW68397   2.941   2.801   6.278  0.3472  0.3136 -0.2481
21026SOL    HW168398   2.857   2.828   6.242 -0.3845  1.5174  2.1215
21026SOL    HW268399   3.006   2.856   6.234 -0.0214 -0.8116 -2.2885
21027SOL     OW68400  10.051   8.621  11.667 -0.0370 -0.0393 -0.3979
21027SOL    HW168401  10.004   8.661  11.594  0.0589  0.7812 -0.0124
21027SOL    HW268402  10.072   8.693  11.725  0.3848 -0.6112  0.1742
21028SOL     OW68403   5.420   6.696   8.687  0.2060 -0.6921 -0.1940
21028SOL    HW168404   5.343   6.666   8.640  0.1390 -1.5386  0.4324
21028SOL    HW268405   5.393   6.777   8.730 -0.2857 -0.8872 -0.1286
21029SOL     OW68406   9.605   6.866   8.867  0.0707  0.1344 -0.0026
21029SOL    HW168407   9.586   6.865   8.773 -1.3303 -1.8591  0.2404
21029SOL    HW268408   9.555   6.940   8.901 -1.1364 -0.4016 -0.5560
21030SOL     OW68409   0.833  11.107   7.050  0.5504 -0.0984 -0.7959
21030SOL    HW168410   0.777  11.184   7.041  1.0641  0.3424 -0.2853
21030SOL    HW268411   0.856  11.084   6.960 -0.5810 -0.3892 -1.0244
21031SOL     OW68412   8.762   2.440   5.865  0.1590 -0.0225  0.3931
21031SOL    HW168413   8.723   2.524   5.888  0.2818 -0.3342  1.8229
21031SOL    HW268414   8.722   2.417   5.781 -1.9766  0.1561  1.3164
21032SOL     OW68415   1.443   6.367   2.421 -0.1273 -0.3857  0.2059
21032SOL    HW168416   1.409   6.384   2.333 -1.2902 -2.6382  0.1473
21032SOL    HW268417   1.376   6.401   2.479  0.3390  0.5091  0.2441
21033SOL     OW68418   5.666   3.218   2.088  0.1956  0.2016  0.6612
21033SOL    HW168419   5.761   3.208   2.083 -0.0637 -3.5840  0.3635
21033SOL    HW268420   5.648   3.238   2.180  1.1868 -1.0000  1.1285
21034SOL     OW68421   1.657  11.409  10.636 -0.4981  0.2736  0.0173
21034SOL    HW168422   1.697  11.323  10.641 -2.7838 -0.7806  2.2503
21034SOL    HW268423   1.594  11.403  10.564 -0.5331  0.1332  0.0607
21035SOL     OW68424   9.082   7.676   9.526 -0.2640 -0.0456  0.3037
21035SOL    HW168425   9.159   7.647   9.575 -1.6722 -0.9881  2.1042
21035SOL    HW268426   9.109   7.675   9.435  2.4466  1.5583  0.9710
21036SOL     OW68427   8.560   9.696  10.536  0.0803  0.4944 -0.1980
21036SOL    HW168428   8.597   9.776  10.573  0.7661 -0.1740  0.5730
21036SOL    HW268429   8.576   9.629  10.601 -1.9479  0.0289 -0.1100
21037SOL     OW68430  10.522   3.737   6.562 -0.3535 -0.1776 -0.1314
21037SOL    HW168431  10.466   3.810   6.535 -0.2573  0.6800  1.8445
21037SOL    HW268432  10.471   3.691   6.629  0.8729  0.0515  1.0007
21038SOL     OW68433   8.104   9.579   9.554  0.3099  0.4902  0.0945
21038SOL    HW168434   8.056   9.635   9.616 -0.8353  1.9619 -1.9725
21038SOL    HW268435   8.053   9.499   9.550 -0.2511  0.8328  0.2209
21039SOL     OW68436   4.943   3.708   9.058 -0.0897 -0.0383 -0.4328
21039SOL    HW168437   5.033   3.708   9.025  0.3265 -1.3402  0.6411
21039SOL    HW268438   4.900   3.780   9.010  1.8210  1.4190 -0.0743
21040SOL     OW68439   0.346   1.730  11.138 -0.0939 -0.5025 -0.1013
21040SOL    HW168440   0.289   1.665  11.180  1.0295 -1.4141  0.0425
21040SOL    HW268441   0.356   1.799  11.204  0.9676 -1.5212  0.8464
21041SOL     OW68442   5.984  10.685   7.688  0.4036 -0.4400 -0.0967
21041SOL    HW168443   5.988  10.590   7.677 -2.7993 -0.5989 -1.0458
21041SOL    HW268444   6.073  10.715   7.671  1.2989 -3.1550 -0.8124
21042SOL     OW68445   3.822   2.175   1.128  0.0984  0.0845  0.1438
21042SOL    HW168446   3.895   2.130   1.085 -0.5086 -1.8204  0.9986
21042SOL    HW268447   3.761   2.105   1.151 -1.5328  1.5234  0.3649
21043SOL     OW68448   4.906   4.094   6.876  0.1262  0.1281 -0.4187
21043SOL    HW168449   4.998   4.071   6.859 -0.2788 -0.9129 -1.3973
21043SOL    HW268450   4.907   4.189   6.890  1.4206  0.0499  0.1909
21044SOL     OW68451   2.081   7.681   0.957  0.6299  0.0277 -0.1498
21044SOL    HW168452   2.097   7.641   1.043 -2.5675 -0.1073  0.5476
21044SOL    HW268453   1.997   7.727   0.969 -0.3702 -0.7307 -3.4122
21045SOL     OW68454   2.815  10.683  11.371  0.0816  0.3412  0.7922
21045SOL    HW168455   2.792  10.762  11.322 -2.2638 -1.1935 -0.8347
21045SOL    HW268456   2.860  10.628  11.307 -1.2208 -0.8964  0.8885
21046SOL     OW68457   4.714  11.513   5.509  0.2808 -0.1694 -0.4261
21046SOL    HW168458   4.659  11.435   5.519  1.7105 -1.3004 -1.0683
21046SOL    HW268459   4.724  11.523   5.414  1.3365 -0.1148 -0.3174
21047SOL     OW68460   8.935   8.203  11.411 -0.5319 -0.1902  0.0016
21047SOL    HW168461   9.004   8.219  11.476 -1.8736  0.1498  1.4058
21047SOL    HW268462   8.942   8.110  11.390 -1.4588 -0.8552  2.3648
21048SOL     OW68463   4.745   7.128   6.270  0.3485  0.4351  0.2686
21048SOL    HW168464   4.651   7.116   6.257  0.4167  1.2294 -1.0543
21048SOL    HW268465   4.760   7.221   6.258  1.5296  0.0988 -1.2153
21049SOL     OW68466   1.760   2.178  11.009  0.2314  0.1088 -0.2054
21049SOL    HW168467   1.802   2.189  11.094 -0.5362 -0.1894  0.2190
21049SOL    HW268468   1.666   2.177  11.028  0.0326  0.3954 -1.0966
21050SOL     OW68469   0.163   0.267   5.834  0.1918  0.0712 -0.3308
21050SOL    HW168470   0.213   0.204   5.885  0.3844  1.5786  1.4463
21050SOL    HW268471   0.229   0.326   5.798 -0.1642  1.4778  1.2037
21051SOL     OW68472   6.027   5.795  10.596 -0.8072  0.6241 -0.8617
21051SOL    HW168473   5.968   5.805  10.670  0.5620  1.5415  0.1598
21051SOL    HW268474   6.088   5.869  10.604  1.2111 -0.9300 -1.1533
21052SOL     OW68475   5.182   1.666  11.087  0.0994 -0.3834  0.0831
21052SOL    HW168476   5.191   1.602  11.017 -1.9634  2.4940 -3.1801
21052SOL    HW268477   5.258   1.723  11.078 -0.1854  0.0137  0.1472
21053SOL     OW68478   8.112   7.501   5.424 -0.5999  0.1370  0.5856
21053SOL    HW168479   8.123   7.594   5.402 -1.2582  0.1010  0.0649
21053SOL    HW268480   8.034   7.499   5.479 -0.8972 -0.1613  0.1627
21054SOL     OW68481   5.855  10.553   0.113  0.4272 -0.5380  0.4688
21054SOL    HW168482   5.943  10.590   0.119  1.3693 -2.4497 -0.3944
21054SOL    HW268483   5.869  10.458   0.115 -1.5764 -0.9004 -0.1459
21055SOL     OW68484   4.296   6.666   0.203 -0.2552  0.1215  0.0569
21055SOL    HW168485   4.245   6.629   0.275  0.5610  1.4006  1.3339
21055SOL    HW268486   4.273   6.611   0.127 -0.8311 -1.5028  1.3447
21056SOL     OW68487   1.193   8.164   0.992  0.4287 -0.0375 -0.1992
21056SOL    HW168488   1.280   8.126   0.982 -0.0030 -1.2700  0.4321
21056SOL    HW268489   1.141   8.094   1.032 -0.8840  0.6251 -0.6782
21057SOL     OW68490   7.723   2.912   6.610 -0.0660 -0.2062  0.1283
21057SOL    HW168491   7.688   2.999   6.630  0.3192 -0.0319  0.0489
21057SOL    HW268492   7.655   2.871   6.556 -0.2219  0.0667  0.1160
21058SOL     OW68493   7.586   7.204   9.641  0.6067 -0.1768 -0.1055
21058SOL    HW168494   7.505   7.164   9.673 -0.2002  1.4063 -0.0963
21058SOL    HW268495   7.651   7.181   9.708  0.2984 -1.7869 -0.3053
21059SOL     OW68496   3.701  10.635   9.329 -0.0652 -0.0730 -0.3312
21059SOL    HW168497   3.721  10.563   9.270  1.0537  0.4158 -0.5790
21059SOL    HW268498   3.783  10.683   9.337 -0.6905  0.9684  0.1136
21060SOL     OW68499   0.220   6.000   6.047  0.5390 -0.2171 -0.1987
21060SOL    HW168500   0.252   5.910   6.049  2.4471  0.4231  1.2549
21060SOL    HW268501   0.169   6.008   6.128  0.6021  0.0863 -0.1883
21061SOL     OW68502   8.446   1.003   9.013  0.0443  0.4412  0.1509
21061SOL    HW168503   8.476   1.073   9.071  2.1176 -0.5410  0.3732
21061SOL    HW268504   8.464   1.036   8.925 -1.9688  1.4326  0.0545
21062SOL     OW68505   2.229   1.520   7.562  0.2714 -0.0394 -0.7677
21062SOL    HW168506   2.162   1.519   7.629  2.3760  0.8154  1.4904
21062SOL    HW268507   2.281   1.441   7.579  1.9608  1.1582 -0.0590
21063SOL     OW68508   2.638   4.001  10.168  0.4714  0.9915 -0.5239
21063SOL    HW168509   2.550   3.999  10.207  0.6834 -1.3664  0.0179
21063SOL    HW268510   2.624   3.989  10.075  0.1727  1.3756 -0.5272
21064SOL     OW68511   2.034   1.984   3.357 -0.1780  0.3054  0.8560
21064SOL    HW168512   1.952   1.977   3.404 -0.6113  1.2828  0.2877
21064SOL    HW268513   2.017   1.942   3.272  0.7054 -1.7726  1.6561
21065SOL     OW68514   2.442   0.135   7.475  0.3357  0.6530  0.1186
21065SOL    HW168515   2.387   0.115   7.400  0.2656 -2.5996  0.8917
21065SOL    HW268516   2.528   0.154   7.438  0.3345 -1.0305 -0.8141
21066SOL     OW68517   6.751   9.503   7.109 -0.0107  0.1890 -0.4153
21066SOL    HW168518   6.754   9.517   7.203  0.5017  0.1956 -0.4329
21066SOL    HW268519   6.727   9.411   7.099  1.7537 -0.3181 -0.2561
21067SOL     OW68520   0.173   2.065   6.840  0.0293 -0.3839  0.1970
21067SOL    HW168521   0.266   2.074   6.821  0.5908 -4.0317  0.3890
21067SOL    HW268522   0.166   2.083   6.933  0.7752 -1.0496  0.3981
21068SOL     OW68523   6.298   5.114   0.094  0.0844  0.3746 -0.2739
21068SOL    HW168524   6.286   5.034   0.043 -1.5459  1.3166 -1.4571
21068SOL    HW268525   6.224   5.116   0.154 -0.7046  1.6648 -1.2390
21069SOL     OW68526   2.877   2.111   7.270 -0.1379  0.5216 -0.3055
21069SOL    HW168527   2.788   2.135   7.298 -0.0124 -0.1816  0.7866
21069SOL    HW268528   2.911   2.059   7.343  0.2045 -1.4885 -1.7861
21070SOL     OW68529   2.875   5.518   1.505  0.4682  0.3017 -0.1883
21070SOL    HW168530   2.953   5.465   1.489 -0.2533 -0.1559 -2.5463
21070SOL    HW268531   2.900   5.606   1.475  0.7408  0.6683  1.0658
21071SOL     OW68532   9.691   9.678   2.516  0.1934 -0.8046  0.0673
21071SOL    HW168533   9.705   9.766   2.552 -0.0744 -1.3213  1.4944
21071SOL    HW268534   9.658   9.694   2.428 -2.6536  0.6349  1.2613
21072SOL     OW68535   5.187   0.086   3.260 -0.3916  0.0281  0.2920
21072SOL    HW168536   5.166   0.063   3.169 -0.7604 -1.5083  0.7500
21072SOL    HW268537   5.279   0.062   3.270 -1.1247 -2.6811  1.1626
21073SOL     OW68538  10.529   5.591   0.534 -0.2728  0.0140 -0.9895
21073SOL    HW168539  10.502   5.499   0.536  0.9386 -0.3446  0.7237
21073SOL    HW268540  10.568   5.602   0.447 -0.5595 -1.0523 -1.2729
21074SOL     OW68541  11.160   8.083   1.091 -0.4950 -0.0273 -0.4436
21074SOL    HW168542  11.105   8.039   1.155 -0.2166 -0.2327 -0.3427
21074SOL    HW268543  11.247   8.087   1.132 -0.6527  1.1795 -0.1809
21075SOL     OW68544   2.976   4.106   5.448 -0.2905 -0.6722 -0.0981
21075SOL    HW168545   2.967   4.031   5.507 -1.2148 -1.1276 -0.7938
21075SOL    HW268546   2.913   4.170   5.481  0.1742 -0.3687  0.2197
21076SOL     OW68547   5.201   5.182   8.494  0.4222  0.2232  0.6727
21076SOL    HW168548   5.131   5.146   8.549  1.3265 -0.6747  1.2728
21076SOL    HW268549   5.240   5.105   8.452  0.7190  0.7651 -0.0753
21077SOL     OW68550   8.922   9.718   1.300 -0.1570  0.7708  0.4164
21077SOL    HW168551   8.830   9.725   1.325  0.1403  1.3294  1.4336
21077SOL    HW268552   8.944   9.626   1.314 -0.0638  1.0159  2.1030
21078SOL     OW68553   0.584   9.106   0.049 -0.1834 -0.4289  0.1661
21078SOL    HW168554   0.623   9.088  -0.037  0.0485  0.2594  0.1263
21078SOL    HW268555   0.632   9.182   0.082  0.7541 -1.5636  1.5584
21079SOL     OW68556   5.473   2.499   7.563 -0.2624  0.2805  0.2449
21079SOL    HW168557   5.470   2.504   7.659  0.6253 -0.8298  0.3557
21079SOL    HW268558   5.565   2.481   7.543 -0.3820  0.8049 -0.8362
21080SOL     OW68559   0.432   7.218   4.620 -0.3192 -0.4591  0.0028
21080SOL    HW168560   0.428   7.183   4.531 -0.4638 -0.0959 -0.1351
21080SOL    HW268561   0.390   7.304   4.614  0.1241 -0.2159  0.3152
21081SOL     OW68562   7.837   3.008  10.182  0.2164  0.1797 -0.4276
21081SOL    HW168563   7.803   3.070  10.247  0.1598  0.6308 -0.8857
21081SOL    HW268564   7.888   2.945  10.234  0.0680  0.4635  0.0688
21082SOL     OW68565   7.416   6.376   4.602  0.0511 -0.0718 -0.0560
21082SOL    HW168566   7.345   6.358   4.664 -0.7282  0.7589 -0.6950
21082SOL    HW268567   7.398   6.317   4.528 -0.8504  1.1928 -0.8756
21083SOL     OW68568   8.123   5.209  10.644 -0.0855  0.7577 -1.0095
21083SOL    HW168569   8.211   5.212  10.605  1.7588 -2.5459  2.2925
21083SOL    HW268570   8.135   5.245  10.732 -1.7734 -0.6735 -0.1424
21084SOL     OW68571   4.862   8.222   7.632 -0.0572 -0.1426 -0.0504
21084SOL    HW168572   4.785   8.218   7.689  0.9710  0.1459  1.4316
21084SOL    HW268573   4.899   8.133   7.636 -0.1738 -0.2147 -0.5546
21085SOL     OW68574   8.689  11.346   2.935  0.7575  0.1389 -0.0280
21085SOL    HW168575   8.631  11.274   2.910 -0.0203  1.1463 -1.2404
21085SOL    HW268576   8.676  11.412   2.866  2.5571  0.8286  0.2430
21086SOL     OW68577   5.256   4.941   8.752 -0.0524 -0.0572 -0.1786
21086SOL    HW168578   5.336   4.890   8.739  0.1720  0.6929 -2.1536
21086SOL    HW268579   5.268   4.983   8.837  1.4449 -0.3571 -0.2055
21087SOL     OW68580   7.304  11.236   4.351 -0.3492 -0.3796 -0.3755
21087SOL    HW168581   7.395  11.226   4.381 -0.4468  1.1106  0.5552
21087SOL    HW268582   7.262  11.153   4.374  0.1190 -0.0887  1.8188
21088SOL     OW68583   8.371  10.929   8.829  0.0284 -0.3020 -0.4228
21088SOL    HW168584   8.280  10.947   8.852  0.0636  0.2101 -0.6701
21088SOL    HW268585   8.405  10.879   8.903  0.2907  1.7809  0.9441
21089SOL     OW68586   9.308   5.924   1.360  0.5526  0.3535  0.3545
21089SOL    HW168587   9.348   5.837   1.350 -0.7099 -0.3592  1.1156
21089SOL    HW268588   9.224   5.916   1.315  0.1563  0.9793  0.9698
21090SOL     OW68589   2.180  10.558   4.583  0.5020  0.0856 -0.2247
21090SOL    HW168590   2.211  10.632   4.635 -0.0551  0.2425 -0.1076
21090SOL    HW268591   2.153  10.493   4.647  1.1353 -0.2904 -0.3275
21091SOL     OW68592   3.462   3.051   8.404 -0.3356 -0.1352 -0.3612
21091SOL    HW168593   3.499   3.139   8.400  0.7469 -0.5772 -0.3602
21091SOL    HW268594   3.369   3.066   8.424 -0.2205  1.0060 -0.5777
21092SOL     OW68595   4.783   8.834   5.763 -0.3694 -0.7376  0.0185
21092SOL    HW168596   4.763   8.873   5.849 -2.8629 -2.2981  0.2603
21092SOL    HW268597   4.878   8.834   5.759 -0.0857 -1.5595  3.3057
21093SOL     OW68598  10.592   0.650   0.221 -0.3798  0.1196 -0.7656
21093SOL    HW168599  10.553   0.688   0.142 -1.5397  0.0558 -0.2458
21093SOL    HW268600  10.520   0.603   0.263  0.6868 -1.4947 -0.6660
21094SOL     OW68601   9.376   3.851   7.951  0.4902 -0.2998  0.3052
21094SOL    HW168602   9.311   3.865   7.883 -0.4478 -0.2971  1.1720
21094SOL    HW268603   9.445   3.800   7.908  0.3403  0.4516 -0.8564
21095SOL     OW68604  10.667   2.697  11.370  0.2442 -0.3873  0.0478
21095SOL    HW168605  10.716   2.716  11.290  0.3058  0.8222  0.3502
21095SOL    HW268606  10.589   2.651  11.340  0.0092  0.5107 -0.7780
21096SOL     OW68607   0.295  11.691   5.623 -0.5796 -0.7077  0.0309
21096SOL    HW168608   0.266  11.657   5.708 -2.3187  0.9999  0.1877
21096SOL    HW268609   0.239  11.646   5.559  0.5927 -1.8437 -0.2367
21097SOL     OW68610   9.833   6.039   7.234 -0.4897 -0.0273 -0.0024
21097SOL    HW168611   9.809   6.037   7.327 -1.2110  0.9629 -0.1558
21097SOL    HW268612   9.925   6.011   7.233  0.6757  3.1879  1.4287
21098SOL     OW68613  10.114   7.461   3.948  0.0620 -0.1234 -0.1937
21098SOL    HW168614  10.157   7.532   3.995  0.7902  0.4378 -1.6563
21098SOL    HW268615  10.061   7.504   3.881 -0.4405 -0.9220 -0.3277
21099SOL     OW68616  10.821   9.394   7.564  0.0427  0.5310  0.2067
21099SOL    HW168617  10.845   9.458   7.631 -0.2627  1.0129 -0.1379
21099SOL    HW268618  10.842   9.309   7.604  2.1948  0.9000 -0.0208
21100SOL     OW68619   6.972  10.450   0.412 -0.7833 -0.0737  0.1099
21100SOL    HW168620   6.908  10.382   0.391 -0.5765 -0.4767  0.7477
21100SOL    HW268621   6.961  10.516   0.344 -0.8481 -0.8471 -0.6412
21101SOL     OW68622   1.842   6.324   9.424  0.6796 -0.4758  0.0273
21101SOL    HW168623   1.913   6.360   9.370  0.9698 -2.0768 -0.7105
21101SOL    HW268624   1.832   6.234   9.394 -1.3981 -0.4250  0.4141
21102SOL     OW68625   4.120   6.157   9.664 -0.5821 -0.5582 -0.0275
21102SOL    HW168626   4.117   6.233   9.607  0.1419 -0.7489 -0.3374
21102SOL    HW268627   4.104   6.082   9.605 -3.4055 -0.5499  0.5893
21103SOL     OW68628   7.522   8.353   2.001 -0.2043 -0.0672  0.1792
21103SOL    HW168629   7.439   8.394   2.025 -1.1191 -1.4489 -0.4557
21103SOL    HW268630   7.567   8.419   1.947 -0.6556  0.8827  0.9441
21104SOL     OW68631   5.434   6.041  10.882  0.1610 -0.0535 -1.0462
21104SOL    HW168632   5.501   6.096  10.842 -0.3397  1.2799 -0.1088
21104SOL    HW268633   5.379   6.101  10.931  0.6874 -1.5730  1.6011
21105SOL     OW68634   6.767   9.714   6.442  0.1930 -0.0481  0.4727
21105SOL    HW168635   6.767   9.803   6.406 -1.5837  0.0866  0.7103
21105SOL    HW268636   6.740   9.725   6.533 -1.5412 -0.9492  0.0978
21106SOL     OW68637   3.672  11.363   0.485  0.0754 -0.1527  0.5557
21106SOL    HW168638   3.614  11.397   0.417 -1.1555 -1.4132  0.9311
21106SOL    HW268639   3.663  11.426   0.557  1.3863  1.1878 -0.3711
21107SOL     OW68640   2.900  10.828   1.457  0.3069 -0.2882  0.1968
21107SOL    HW168641   2.948  10.847   1.376 -0.8451  0.3454 -0.3587
21107SOL    HW268642   2.827  10.772   1.429  0.8675 -1.4976  1.0774
21108SOL     OW68643   9.853   1.920   1.687  0.0069 -0.1910  0.1633
21108SOL    HW168644   9.907   1.953   1.615 -1.0734 -0.5597 -0.8435
21108SOL    HW268645   9.878   1.975   1.762  0.4331  0.8725 -0.7170
21109SOL     OW68646   6.528   6.444   2.909 -0.5799 -0.2280 -0.5355
21109SOL    HW168647   6.568   6.520   2.952 -1.1204  0.1425 -0.6913
21109SOL    HW268648   6.601   6.383   2.898 -0.5487 -0.6484  1.5731
21110SOL     OW68649   6.037   9.945   1.512 -0.1959 -0.5387  0.4371
21110SOL    HW168650   6.054   9.862   1.466  0.4640  0.2328 -0.7653
21110SOL    HW268651   5.947   9.968   1.486  0.0679 -0.2587 -0.2464
21111SOL     OW68652   4.569   1.516   6.970 -0.2622 -0.7190  0.7582
21111SOL    HW168653   4.611   1.600   6.988  0.7097 -0.6832 -1.3014
21111SOL    HW268654   4.479   1.526   7.000  0.6451 -0.0900  3.4633
21112SOL     OW68655   5.487   2.054   0.844 -0.0477  0.6260 -0.0980
21112SOL    HW168656   5.580   2.058   0.864 -0.3603 -0.2568  1.7912
21112SOL    HW268657   5.458   2.146   0.845  0.6001  0.8292  0.3924
21113SOL     OW68658   0.865  10.214  11.627  0.4051 -0.2596 -0.3408
21113SOL    HW168659   0.934  10.150  11.642  0.8784  0.3450  0.0801
21113SOL    HW268660   0.838  10.241  11.714 -0.2521 -0.3649 -0.5049
21114SOL     OW68661  10.355   0.196   9.217 -0.0274 -0.0488 -0.1845
21114SOL    HW168662  10.379   0.113   9.259  0.1886 -0.2299 -0.6509
21114SOL    HW268663  10.437   0.227   9.178  0.2434  1.1629  1.2741
21115SOL     OW68664  10.601   0.825   8.843  0.1576 -0.5748  0.0692
21115SOL    HW168665  10.655   0.747   8.835  1.1128  0.1001 -0.2472
21115SOL    HW268666  10.517   0.793   8.877  0.5631 -1.7117  0.0384
21116SOL     OW68667  10.709   9.237   9.892 -0.1073  0.6141 -0.7916
21116SOL    HW168668  10.640   9.178   9.862  1.5291 -1.9043  0.0526
21116SOL    HW268669  10.700   9.237   9.987  1.5479 -0.4820 -0.6021
21117SOL     OW68670  10.109   6.895   5.178  0.1449  0.0696  0.5777
21117SOL    HW168671  10.147   6.947   5.249  1.1958  0.2801 -0.1140
21117SOL    HW268672  10.149   6.930   5.098 -0.4254 -0.6699 -0.0525
21118SOL     OW68673  11.035   1.329   8.031  0.2411  0.3803  0.2067
21118SOL    HW168674  11.051   1.344   8.124  0.5698 -0.7320  0.3485
21118SOL    HW268675  11.064   1.238   8.016  2.0135  1.1308 -1.3919
21119SOL     OW68676  10.034   6.567   8.796 -0.5246  0.4456 -0.0874
21119SOL    HW168677   9.982   6.625   8.851 -0.9391  0.0173 -0.0166
21119SOL    HW268678   9.992   6.481   8.805  1.2555 -0.3447  1.4086
21120SOL     OW68679   7.982   7.080   4.417 -0.1990  0.1919 -0.5919
21120SOL    HW168680   7.932   7.122   4.488  0.0987 -0.6793  0.1620
21120SOL    HW268681   7.951   7.122   4.337 -2.8360 -0.9532 -0.2619
21121SOL     OW68682   7.549  10.853   1.647 -0.2175  0.0129 -0.0428
21121SOL    HW168683   7.479  10.856   1.581  0.4721 -1.6966 -0.9063
21121SOL    HW268684   7.619  10.905   1.610 -0.5273  0.6300  0.2239
21122SOL     OW68685   1.922   6.671  10.547  0.2992  0.3994 -0.0292
21122SOL    HW168686   1.830   6.645  10.542  0.4401  0.0421 -3.6462
21122SOL    HW268687   1.948   6.648  10.636 -2.3541 -2.1796  0.2731
21123SOL     OW68688  11.497   2.915   6.603 -0.0219 -0.0315 -0.8534
21123SOL    HW168689  11.459   2.834   6.571 -1.2543 -0.0828  0.6206
21123SOL    HW268690  11.433   2.983   6.580  0.0692  0.2230 -0.3833
21124SOL     OW68691   8.639  10.622   3.456  0.2305  0.1143 -0.0290
21124SOL    HW168692   8.706  10.682   3.423 -0.5864  0.8661 -0.3702
21124SOL    HW268693   8.689  10.549   3.493  1.2131  0.0438 -1.4029
21125SOL     OW68694   2.604  10.992   2.004 -0.2758  0.2432 -0.5126
21125SOL    HW168695   2.538  10.962   2.067 -0.8247  1.7788 -0.3094
21125SOL    HW268696   2.553  11.037   1.936  0.5041  0.9718 -0.6337
21126SOL     OW68697   4.665   5.785   3.946  0.6419 -0.2769 -0.3604
21126SOL    HW168698   4.651   5.754   4.036 -0.5645  1.6959  0.1952
21126SOL    HW268699   4.737   5.731   3.913  0.6732 -1.5080  1.5476
21127SOL     OW68700   3.197   5.765   4.412 -0.7702  0.0234 -0.1891
21127SOL    HW168701   3.235   5.853   4.415 -0.4128 -0.1153 -0.5182
21127SOL    HW268702   3.113   5.773   4.458 -0.8438  0.5899 -0.4144
21128SOL     OW68703   0.044   6.681   6.792 -0.3230  0.4305  0.3749
21128SOL    HW168704  -0.010   6.743   6.840 -0.1436  0.5907  0.3726
21128SOL    HW268705  -0.017   6.614   6.760 -0.3306 -0.1540  1.5506
21129SOL     OW68706   1.639   3.652   2.134 -0.2608 -0.4462  0.6093
21129SOL    HW168707   1.697   3.592   2.088  0.5028 -0.6677  1.8272
21129SOL    HW268708   1.677   3.661   2.221  1.2146  3.8593 -0.2300
21130SOL     OW68709   2.430   8.485   7.125 -0.0560 -0.3743  0.3709
21130SOL    HW168710   2.475   8.471   7.041  0.8851 -0.1643  0.8243
21130SOL    HW268711   2.377   8.564   7.110  0.2843 -0.2039  0.0375
21131SOL     OW68712   5.777  10.882   6.858  0.3298 -1.3017 -0.2961
21131SOL    HW168713   5.861  10.885   6.813  0.6243 -0.3367  0.2868
21131SOL    HW268714   5.714  10.912   6.792  1.0719  2.5625  0.5141
21132SOL     OW68715   3.717   1.027   9.181  0.9372  0.0693 -0.0405
21132SOL    HW168716   3.754   0.942   9.158 -0.2932 -0.4003 -0.3274
21132SOL    HW268717   3.793   1.085   9.190  1.7186 -0.8276 -0.7906
21133SOL     OW68718   3.282   4.663   6.976 -0.4568  0.4962 -0.6966
21133SOL    HW168719   3.307   4.587   6.924 -0.4250  1.5911 -2.3838
21133SOL    HW268720   3.213   4.706   6.924 -2.0670  0.4330  1.2840
21134SOL     OW68721   1.061   0.753   9.813 -0.2163  0.9568 -0.2996
21134SOL    HW168722   1.093   0.814   9.879  2.2788  0.1288 -0.6346
21134SOL    HW268723   1.025   0.809   9.744  1.9168  2.1392 -0.5601
21135SOL     OW68724   8.499   9.291   7.142  0.8910  0.3859 -0.3555
21135SOL    HW168725   8.434   9.313   7.208  0.8299 -0.7545 -0.0236
21135SOL    HW268726   8.581   9.324   7.178  1.0496 -1.1785  0.8450
21136SOL     OW68727  10.433   8.820   7.569 -0.0454 -0.5562  0.0376
21136SOL    HW168728  10.525   8.840   7.588 -0.1515 -0.8372  0.8626
21136SOL    HW268729  10.418   8.858   7.482 -0.2717  3.2007  1.5177
21137SOL     OW68730   7.903   8.689   8.721  0.3652 -0.0385  0.3944
21137SOL    HW168731   7.849   8.691   8.801  0.5878  1.6833  0.5289
21137SOL    HW268732   7.890   8.774   8.681  1.2294 -0.4351 -0.7870
21138SOL     OW68733   2.367  10.342  10.090  0.3985  0.4466 -0.3084
21138SOL    HW168734   2.378  10.433  10.118  1.9541  0.6529 -1.4500
21138SOL    HW268735   2.349  10.294  10.170 -0.1468  1.7043  0.3577
21139SOL     OW68736   5.016   9.648   4.359  0.1801  0.7368  0.2690
21139SOL    HW168737   4.973   9.707   4.421  0.7818  1.6618 -0.1576
21139SOL    HW268738   5.091   9.613   4.408  0.6900  1.5130  0.0750
21140SOL     OW68739   9.724   7.601  10.338  0.1835  0.2142  0.1577
21140SOL    HW168740   9.706   7.673  10.398  0.8325 -0.4608  1.2064
21140SOL    HW268741   9.649   7.599  10.278 -1.9348 -0.8210  2.6650
21141SOL     OW68742   5.965   5.212   2.096 -0.6380  0.1758  0.3785
21141SOL    HW168743   5.978   5.258   2.179  0.0177  0.0649  0.3442
21141SOL    HW268744   6.030   5.251   2.037 -0.1329 -0.7176  0.3197
21142SOL     OW68745  10.097   1.549   4.715 -0.7957 -0.5782 -0.1093
21142SOL    HW168746  10.101   1.487   4.643 -2.7884 -0.2041 -0.6194
21142SOL    HW268747  10.093   1.635   4.673 -1.9173 -0.3534  0.4121
21143SOL     OW68748   0.236   5.057   4.414  0.0906  0.4093 -0.5242
21143SOL    HW168749   0.252   5.110   4.491  1.9094 -0.5580 -0.1900
21143SOL    HW268750   0.305   5.081   4.353 -0.5582  0.2186 -1.3629
21144SOL     OW68751   3.826   7.488   1.659  0.4472  0.3690 -0.5695
21144SOL    HW168752   3.769   7.552   1.702  1.0884 -0.3405  1.4833
21144SOL    HW268753   3.827   7.414   1.719  0.5152 -1.1963 -2.4151
21145SOL     OW68754   7.726   4.625   3.055  0.2563  0.2084  0.3900
21145SOL    HW168755   7.821   4.615   3.046 -0.0058 -0.6137 -2.9522
21145SOL    HW268756   7.691   4.543   3.019 -1.7470  0.4822  1.6119
21146SOL     OW68757   9.711   2.246   5.928  0.2054 -0.5512 -0.1412
21146SOL    HW168758   9.795   2.290   5.943 -0.2649  1.0215 -1.7718
21146SOL    HW268759   9.729   2.184   5.857 -0.8034  2.9218 -3.7908
21147SOL     OW68760   9.824  11.575   7.090  0.7882  0.3419  0.2355
21147SOL    HW168761   9.870  11.491   7.085  1.1457  0.3461  2.4237
21147SOL    HW268762   9.787  11.577   7.178 -1.6991  1.2475 -0.7447
21148SOL     OW68763   6.439   1.408  11.470  0.1563 -0.1813  0.1129
21148SOL    HW168764   6.371   1.344  11.490  0.6152 -0.0994  2.2597
21148SOL    HW268765   6.518   1.357  11.455  0.3094 -0.1750  0.8576
21149SOL     OW68766  11.349   6.706   2.323 -0.2890  0.2465  0.1424
21149SOL    HW168767  11.256   6.692   2.306 -0.1989  0.1851 -0.3018
21149SOL    HW268768  11.369   6.647   2.396 -0.6650  0.4807  0.4382
21150SOL     OW68769   0.433   2.122   6.771  0.2042 -0.1976  0.3293
21150SOL    HW168770   0.394   2.176   6.702  2.7406  0.4538 -0.7275
21150SOL    HW268771   0.481   2.184   6.826  0.7083 -1.0327  0.8663
21151SOL     OW68772   7.184   0.753   8.602 -0.6582  0.4712 -0.9109
21151SOL    HW168773   7.259   0.731   8.656 -0.6665  1.6674 -0.3702
21151SOL    HW268774   7.117   0.782   8.665 -2.2919 -2.3024 -1.1754
21152SOL     OW68775   1.465   8.921   7.048 -0.1868  0.0483  0.3152
21152SOL    HW168776   1.434   8.900   6.960  0.8143 -0.0026 -0.0299
21152SOL    HW268777   1.472   8.837   7.092 -1.6321  0.1389  0.7881
21153SOL     OW68778   4.625   8.635   3.509 -0.2013 -0.8846  0.2073
21153SOL    HW168779   4.603   8.646   3.602 -1.4926 -0.1029 -0.1742
21153SOL    HW268780   4.717   8.608   3.510 -0.3586 -1.4554  1.7325
21154SOL     OW68781   1.115   8.366  10.662  0.0615  0.7535 -0.1664
21154SOL    HW168782   1.165   8.445  10.642 -0.7641  1.2328 -0.3850
21154SOL    HW268783   1.040   8.369  10.602 -0.6920  0.5147  0.7347
21155SOL     OW68784  10.450  10.707   1.075 -0.2326  0.6312  0.1212
21155SOL    HW168785  10.449  10.613   1.062 -0.1058  0.8602 -1.8382
21155SOL    HW268786  10.519  10.721   1.140  0.8661 -0.5267 -0.7335
21156SOL     OW68787   1.934   7.524   3.861 -0.2609  0.9796  0.3223
21156SOL    HW168788   1.872   7.500   3.792 -2.1777  0.8487  1.9738
21156SOL    HW268789   1.939   7.619   3.858 -1.1744  1.0482  0.6441
21157SOL     OW68790   9.308   5.167   8.253  0.2521  0.4812 -0.4384
21157SOL    HW168791   9.255   5.197   8.180  2.4369  0.8948 -1.9609
21157SOL    HW268792   9.345   5.247   8.291  2.8339  0.0984 -1.9233
21158SOL     OW68793  10.114  10.237  10.570  0.3234 -0.9991  0.2429
21158SOL    HW168794  10.154  10.150  10.564 -0.9044 -1.6655  1.2223
21158SOL    HW268795  10.090  10.246  10.663 -1.0302 -0.2979 -0.1470
21159SOL     OW68796   2.310   2.488   5.070  0.5096  0.2397  0.1925
21159SOL    HW168797   2.331   2.509   4.979  0.3194 -0.4812 -0.0261
21159SOL    HW268798   2.287   2.572   5.109  1.1350  0.6368 -0.2758
21160SOL     OW68799   6.916   7.162   9.218 -0.7404 -0.1230  0.1116
21160SOL    HW168800   6.955   7.110   9.288 -1.8396  0.4029  1.1565
21160SOL    HW268801   6.888   7.098   9.153  2.7366 -0.4828 -1.2500
21161SOL     OW68802  10.443   5.539   6.600 -0.1706  0.6827  0.0036
21161SOL    HW168803  10.536   5.555   6.589  0.0146 -1.3990 -2.3645
21161SOL    HW268804  10.403   5.572   6.519 -1.7132  2.6345  1.4709
21162SOL     OW68805   2.092   9.480   1.422 -0.7936 -0.2407  0.2551
21162SOL    HW168806   2.176   9.436   1.427 -1.0531 -0.7895 -0.0709
21162SOL    HW268807   2.076   9.512   1.511 -0.8189 -1.2270  0.6175
21163SOL     OW68808   0.656   6.095  10.003  0.2672  0.1738  0.3163
21163SOL    HW168809   0.658   6.055   9.915  0.4407 -0.2058  0.4910
21163SOL    HW268810   0.626   6.025  10.060  1.4232  0.0274  0.7655
21164SOL     OW68811   6.880   3.451  10.055  0.6042 -0.2233  0.2352
21164SOL    HW168812   6.975   3.451  10.051  0.8492 -0.3711  3.2586
21164SOL    HW268813   6.859   3.388  10.124 -1.6655  0.0798 -0.0883
21165SOL     OW68814   6.261   5.851   6.786 -0.4338 -0.2073 -0.2187
21165SOL    HW168815   6.200   5.918   6.817 -0.9983 -1.0711  0.6039
21165SOL    HW268816   6.318   5.834   6.861  2.1187  1.9215 -1.5253
21166SOL     OW68817   2.621   0.642   3.997  0.2907  0.0881 -0.2112
21166SOL    HW168818   2.715   0.649   3.980  0.1612  0.8000 -0.6771
21166SOL    HW268819   2.615   0.601   4.083  1.0997  2.3396  0.9992
21167SOL     OW68820   3.531   8.950  10.733 -0.0191  0.0047 -0.3027
21167SOL    HW168821   3.472   8.894  10.682  1.1284 -0.9607 -0.6135
21167SOL    HW268822   3.590   8.888  10.777  1.3654  0.9747 -0.7414
21168SOL     OW68823  11.647   7.268   1.453  0.4344 -0.3337  0.5514
21168SOL    HW168824  11.642   7.334   1.384  0.0090 -0.4426  0.4760
21168SOL    HW268825  11.560   7.229   1.455  0.3321 -0.0967  1.3807
21169SOL     OW68826   1.167   8.118   8.028  0.2573 -0.5205  0.0930
21169SOL    HW168827   1.186   8.127   7.934 -0.5520  1.6770  0.0822
21169SOL    HW268828   1.157   8.208   8.059 -3.3159 -1.2383  1.4687
21170SOL     OW68829   4.555   7.718   1.595 -0.7601  0.4610 -0.2207
21170SOL    HW168830   4.505   7.644   1.558 -0.0744 -0.1948  0.1481
21170SOL    HW268831   4.506   7.743   1.673 -0.7250  0.0679 -0.0707
21171SOL     OW68832   1.458   1.499   1.453  0.8137 -0.1052 -0.1232
21171SOL    HW168833   1.473   1.444   1.376  0.3116 -0.6973  0.1906
21171SOL    HW268834   1.494   1.449   1.526 -1.0045 -0.7623  0.3896
21172SOL     OW68835   2.376   2.775   6.559  0.0567 -0.0942  0.5960
21172SOL    HW168836   2.328   2.837   6.614  0.6755  1.2717 -0.3333
21172SOL    HW268837   2.404   2.705   6.619 -1.5681 -0.0306  1.4724
21173SOL     OW68838   3.721  11.489   8.993  0.1299  0.2013 -0.0378
21173SOL    HW168839   3.741  11.396   8.997 -0.3893  0.0765 -0.2196
21173SOL    HW268840   3.671  11.499   8.911  0.4488  0.6877 -0.1755
21174SOL     OW68841   8.088   3.507   4.586  0.7439  0.1741 -0.1523
21174SOL    HW168842   7.995   3.493   4.605  0.7899 -3.1520 -1.5829
21174SOL    HW268843   8.090   3.587   4.534 -1.4882 -0.1732 -0.9070
21175SOL     OW68844  11.824   9.290   0.825  0.5160  0.2375  0.3648
21175SOL    HW168845  11.743   9.249   0.796  0.6113 -0.0154  0.4611
21175SOL    HW268846  11.814   9.382   0.801  1.2094 -0.2092 -1.8709
21176SOL     OW68847   4.720  11.581   7.777  0.4969 -0.6196  0.5558
21176SOL    HW168848   4.787  11.539   7.832  1.8021 -0.1733 -0.6193
21176SOL    HW268849   4.702  11.517   7.708  0.3765 -0.3848  0.3688
21177SOL     OW68850   7.241   5.287   1.094  0.2034  0.0395 -0.1090
21177SOL    HW168851   7.317   5.230   1.103  0.0307 -0.4359 -1.4519
21177SOL    HW268852   7.232   5.328   1.180  1.3691 -0.6448  0.3689
21178SOL     OW68853  10.041   8.733   2.407  0.0271 -0.2389 -0.5322
21178SOL    HW168854  10.122   8.683   2.421 -0.8522 -1.4925  0.2319
21178SOL    HW268855  10.014   8.709   2.319  0.3589  0.0171 -0.7090
21179SOL     OW68856  11.821   6.509   9.831  0.3677 -0.2517  0.4127
21179SOL    HW168857  11.729   6.513   9.858  0.4285  0.0480  0.5865
21179SOL    HW268858  11.853   6.426   9.867  0.8404  0.7809  2.5694
21180SOL     OW68859   1.422   4.752   0.531  0.0295  0.5256 -0.6787
21180SOL    HW168860   1.339   4.761   0.578 -0.2827  0.6904 -1.2508
21180SOL    HW268861   1.460   4.671   0.565 -0.6258  0.1603 -0.8010
21181SOL     OW68862   9.981   6.250   0.807  0.3429 -0.0314  0.3516
21181SOL    HW168863   9.951   6.233   0.717  0.6834  1.3205 -0.0325
21181SOL    HW268864  10.002   6.163   0.841 -0.5544 -0.6489 -0.5982
21182SOL     OW68865   1.014   1.953   2.867  0.1044 -0.4897  0.2926
21182SOL    HW168866   1.103   1.956   2.902 -0.3858 -0.0168  1.5377
21182SOL    HW268867   0.997   2.043   2.839  1.0881 -1.1564 -2.8191
21183SOL     OW68868   6.763   4.607  10.522  0.0763 -0.5760  0.4005
21183SOL    HW168869   6.810   4.589  10.440  0.1621  0.3442  0.2386
21183SOL    HW268870   6.700   4.675  10.499  1.2138  0.8915  1.4372
21184SOL     OW68871   2.526   6.784   0.678  0.3825  0.1580 -0.3866
21184SOL    HW168872   2.581   6.857   0.649  0.1856  0.0978 -0.9145
21184SOL    HW268873   2.502   6.806   0.768  0.0021  0.9325 -0.6723
21185SOL     OW68874   2.000   6.615   4.376  0.1876 -0.3241 -0.1883
21185SOL    HW168875   2.024   6.688   4.433  1.1677 -1.6749  1.2324
21185SOL    HW268876   2.077   6.558   4.377 -0.5577 -1.4038 -1.2208
21186SOL     OW68877   5.119   6.616   9.087  0.0164 -0.4787 -0.1119
21186SOL    HW168878   5.203   6.609   9.040 -1.1002  0.2561 -2.3623
21186SOL    HW268879   5.053   6.607   9.019 -1.7598 -0.8058  1.5852
21187SOL     OW68880   5.006   7.725   7.048  0.2876 -0.3785  0.0967
21187SOL    HW168881   5.070   7.719   6.977 -1.0791  1.2300 -1.3811
21187SOL    HW268882   5.021   7.647   7.101  1.1085 -1.8838 -2.2096
21188SOL     OW68883   6.582   7.715   1.176 -0.1704  0.0305 -0.2824
21188SOL    HW168884   6.591   7.673   1.262 -0.8081 -1.3482 -0.8637
21188SOL    HW268885   6.665   7.761   1.163  0.7035 -1.3346  0.2484
21189SOL     OW68886  10.430  10.415   5.416 -0.0036  0.4413  0.1791
21189SOL    HW168887  10.499  10.480   5.430 -0.3879  1.4099 -1.9878
21189SOL    HW268888  10.369  10.457   5.356 -1.0446 -1.3968 -0.1440
21190SOL     OW68889   7.728   2.787   1.489  0.0323 -0.2781  0.1331
21190SOL    HW168890   7.665   2.808   1.420 -1.4598 -0.2110  1.4251
21190SOL    HW268891   7.675   2.790   1.570  1.7598 -0.0391  1.3010
21191SOL     OW68892   3.515   3.540   4.552 -0.3113 -0.0479 -0.6128
21191SOL    HW168893   3.539   3.619   4.600  2.1787 -0.9178 -0.2450
21191SOL    HW268894   3.425   3.522   4.578  0.3075  0.5838  2.2823
21192SOL     OW68895  10.813   9.471   0.077  0.1300  0.1719 -0.0107
21192SOL    HW168896  10.737   9.421   0.047 -0.6767  2.2542 -1.6261
21192SOL    HW268897  10.780   9.524   0.149  0.4466 -0.0245  0.2839
21193SOL     OW68898   4.503  10.864   7.099  0.0622 -0.5041  0.0478
21193SOL    HW168899   4.462  10.941   7.138 -2.3975 -0.7992 -1.7354
21193SOL    HW268900   4.555  10.827   7.170 -0.5287  1.5070  1.6358
21194SOL     OW68901   9.208   2.611   0.823  0.1584 -0.1903  0.6149
21194SOL    HW168902   9.270   2.539   0.816 -0.1125 -0.4045  0.4032
21194SOL    HW268903   9.129   2.579   0.780  0.4116  0.6635 -0.5403
21195SOL     OW68904   1.374  10.123  11.690  1.1274 -0.2084 -0.5496
21195SOL    HW168905   1.317  10.188  11.650  1.9629 -0.4261 -2.1600
21195SOL    HW268906   1.315  10.049  11.710  0.2232  0.8838  1.0718
21196SOL     OW68907   0.659   2.381   9.034  0.9287 -0.3114 -0.8754
21196SOL    HW168908   0.581   2.436   9.044  0.2758 -1.2434 -0.6886
21196SOL    HW268909   0.625   2.291   9.037  2.0413 -0.7325 -0.5833
21197SOL     OW68910   5.050  10.086  10.509 -0.0258 -0.5836  0.0337
21197SOL    HW168911   5.018  10.000  10.481 -1.1548 -0.1942  0.0505
21197SOL    HW268912   4.972  10.131  10.542  0.8427 -0.1556  1.6022
21198SOL     OW68913   1.784   8.658   7.402  0.2298 -0.0374 -0.0867
21198SOL    HW168914   1.747   8.686   7.486  0.5475 -0.2217  0.1187
21198SOL    HW268915   1.823   8.572   7.421  2.2168  0.8545  0.1323
21199SOL     OW68916   6.620   5.871  10.002 -0.7347  0.2659 -0.3884
21199SOL    HW168917   6.608   5.832   9.916  1.5531  0.9293 -1.0909
21199SOL    HW268918   6.601   5.964   9.988 -0.6789  0.3196 -0.0992
21200SOL     OW68919   4.757   1.227   8.616  0.2230  0.3506 -0.2477
21200SOL    HW168920   4.752   1.300   8.554 -0.3612  1.2836  0.8562
21200SOL    HW268921   4.849   1.225   8.643  0.9973 -1.4709 -2.7201
21201SOL     OW68922   3.759   7.851   8.479 -0.3114 -0.4481 -0.5544
21201SOL    HW168923   3.680   7.838   8.531  0.0137  1.0469  0.3634
21201SOL    HW268924   3.826   7.875   8.544  1.3044 -3.0882 -1.0971
21202SOL     OW68925   5.285  10.836  10.342 -0.1916 -0.4917 -0.0238
21202SOL    HW168926   5.296  10.759  10.288  1.3339  0.3376 -0.9693
21202SOL    HW268927   5.363  10.838  10.398  1.3835  1.8586 -2.0556
21203SOL     OW68928  10.959   0.674   4.867  0.2407 -0.1150  0.2081
21203SOL    HW168929  10.995   0.692   4.954  0.9877  3.0410 -0.6336
21203SOL    HW268930  10.879   0.624   4.883  0.0887  0.8415  2.7468
21204SOL     OW68931   6.525   5.750   7.071  0.4230 -0.5722 -0.5658
21204SOL    HW168932   6.545   5.679   7.010  1.3553 -0.5466 -0.3055
21204SOL    HW268933   6.571   5.826   7.036 -0.3124 -0.1679 -0.6723
21205SOL     OW68934   2.108   0.210   8.229  0.2135  0.8831  0.0646
21205SOL    HW168935   2.018   0.178   8.240  0.1134  1.0489 -0.2504
21205SOL    HW268936   2.152   0.188   8.312  0.8518 -2.2752 -0.9854
21206SOL     OW68937   0.744   8.151   4.295  0.4378 -0.5670  0.0743
21206SOL    HW168938   0.792   8.119   4.218 -0.6973 -1.1250 -0.4239
21206SOL    HW268939   0.656   8.170   4.263  0.3691  0.6853  0.9193
21207SOL     OW68940   7.534   8.377   3.385  0.2342 -0.5870 -0.9625
21207SOL    HW168941   7.442   8.396   3.403  0.3696 -0.2933 -0.5839
21207SOL    HW268942   7.572   8.461   3.360  1.0446 -0.1074  1.6188
21208SOL     OW68943   7.469   6.462   5.745  0.1024 -0.0187 -0.1795
21208SOL    HW168944   7.384   6.446   5.705  0.8351  0.7512 -2.1759
21208SOL    HW268945   7.531   6.418   5.687  0.9818 -2.6273  2.4882
21209SOL     OW68946   9.180   5.739   2.530 -0.0440 -0.0840 -0.6379
21209SOL    HW168947   9.246   5.793   2.485 -0.4888 -0.5841 -1.9375
21209SOL    HW268948   9.231   5.673   2.577  0.4143  0.0500 -0.9400
21210SOL     OW68949   2.017   8.933  11.480 -0.1833 -0.1362 -0.2649
21210SOL    HW168950   2.101   8.892  11.461  0.2366 -0.0655  1.2887
21210SOL    HW268951   2.011   8.932  11.576 -1.4591  0.8391 -0.3078
21211SOL     OW68952   2.206   1.799   6.441 -0.6047  0.2340  0.3154
21211SOL    HW168953   2.206   1.703   6.438 -1.8642  0.1960  0.9189
21211SOL    HW268954   2.118   1.824   6.414  0.3363  1.3541 -1.9849
21212SOL     OW68955  11.414   3.503   2.863  0.3174 -0.3153  0.1648
21212SOL    HW168956  11.360   3.554   2.803  2.4535  1.1602 -0.6476
21212SOL    HW268957  11.502   3.507   2.825  1.6459  0.1531  3.0274
21213SOL     OW68958   3.135   8.249  11.812  0.6092 -0.5026  0.3242
21213SOL    HW168959   3.163   8.170  11.859  3.0456  0.4366  0.6176
21213SOL    HW268960   3.133   8.222  11.720  0.6798 -1.0901  0.4877
21214SOL     OW68961  11.119   5.683   4.839 -0.4036 -0.3209  0.0333
21214SOL    HW168962  11.205   5.659   4.803 -0.7065 -2.2654  0.5230
21214SOL    HW268963  11.110   5.776   4.817  1.5670 -0.2093 -0.5349
21215SOL     OW68964   3.821   6.624   0.252  0.9104 -0.0132 -0.2019
21215SOL    HW168965   3.731   6.608   0.279  1.0690  0.0362  0.3885
21215SOL    HW268966   3.867   6.644   0.334  1.7887 -1.5568 -0.2755
21216SOL     OW68967   7.781   0.468   8.529  0.5531 -0.0121 -0.0552
21216SOL    HW168968   7.766   0.392   8.473 -0.8292 -0.5039  0.9386
21216SOL    HW268969   7.866   0.450   8.570  0.2207 -1.0745  0.2094
21217SOL     OW68970   4.069   5.848   7.226  0.0960  0.1078 -0.1390
21217SOL    HW168971   4.054   5.794   7.149 -2.3110  0.0215  0.3198
21217SOL    HW268972   4.153   5.817   7.262 -0.3700 -2.1363 -0.8518
21218SOL     OW68973   9.039   1.860  10.881  0.6405  0.2734 -0.0649
21218SOL    HW168974   8.966   1.922  10.879  0.8141  0.4570 -1.4718
21218SOL    HW268975   9.014   1.790  10.821  0.0964 -1.5066  2.1014
21219SOL     OW68976   0.973  10.312   2.473  0.3568 -0.4371  0.6403
21219SOL    HW168977   0.934  10.373   2.536  0.7389 -0.3265  0.7678
21219SOL    HW268978   0.976  10.362   2.391 -1.2870 -0.9865  0.2097
21220SOL     OW68979   3.345  11.397   4.335  0.0403 -0.1489  0.1651
21220SOL    HW168980   3.355  11.447   4.253 -0.6656  1.5274  1.0539
21220SOL    HW268981   3.277  11.332   4.315 -0.3452  0.4465 -0.4961
21221SOL     OW68982  11.420   0.047   6.336 -0.9656 -0.4940 -0.1812
21221SOL    HW168983  11.376   0.011   6.260  1.3536  0.4796 -2.1148
21221SOL    HW268984  11.394   0.139   6.337 -0.1798 -0.2667 -0.4305
21222SOL     OW68985   6.175   5.905   3.847 -0.3348 -0.1077  0.3481
21222SOL    HW168986   6.255   5.957   3.843 -0.4989  0.2084  1.0199
21222SOL    HW268987   6.204   5.817   3.869 -0.1053 -0.1756 -0.2136
21223SOL     OW68988   4.727   7.621   0.236 -0.4004  0.0244 -0.1189
21223SOL    HW168989   4.786   7.637   0.163 -1.1673  0.5093 -0.6539
21223SOL    HW268990   4.670   7.550   0.206 -0.4751 -0.0374  0.1584
21224SOL     OW68991   9.969   5.383  11.692  0.4338 -0.1486 -0.0929
21224SOL    HW168992   9.884   5.422  11.673 -0.2050 -0.7057  1.4488
21224SOL    HW268993   9.950   5.289  11.703  1.1441 -0.2024  0.7680
21225SOL     OW68994  11.602   1.735   1.003 -0.2334 -0.5248 -0.1245
21225SOL    HW168995  11.571   1.748   0.914 -1.7674 -0.5078  0.3857
21225SOL    HW268996  11.641   1.648   1.003 -0.9663 -0.8556 -0.6037
21226SOL     OW68997   6.579   8.160   5.250 -0.1167 -0.0654  0.2518
21226SOL    HW168998   6.495   8.129   5.219  0.3493 -1.6315  0.4828
21226SOL    HW268999   6.560   8.245   5.292 -1.8623 -1.1605  1.8110
21227SOL     OW69000   4.488   5.277  10.885  0.0334  0.2014 -0.5329
21227SOL    HW169001   4.394   5.292  10.872  0.8852  6.0481 -3.0355
21227SOL    HW269002   4.513   5.218  10.814 -1.4200  0.5466 -1.3638
21228SOL     OW69003   3.022   6.501   1.661  0.2594 -1.1663 -0.0406
21228SOL    HW169004   3.017   6.534   1.571  0.2574  0.6170  0.5732
21228SOL    HW269005   3.064   6.416   1.652  0.5203 -0.9083 -1.7117
21229SOL     OW69006  11.824   9.601   8.069 -0.1303 -0.0162 -0.1029
21229SOL    HW169007  11.855   9.576   8.156 -0.0373  0.9570  0.1629
21229SOL    HW269008  11.889   9.665   8.038  0.2926 -0.9565 -1.2450
21230SOL     OW69009  10.618   7.428   0.248 -0.6854  0.5070  0.1870
21230SOL    HW169010  10.576   7.366   0.188 -0.9148  0.6407  0.2045
21230SOL    HW269011  10.638   7.504   0.193  1.0497 -0.1960 -0.1872
21231SOL     OW69012   7.524   1.445  11.560  0.0307  0.7457 -0.5135
21231SOL    HW169013   7.480   1.368  11.524 -0.0576  0.4362  0.2421
21231SOL    HW269014   7.491   1.518  11.508 -1.3147  0.5147 -0.0251
21232SOL     OW69015   2.305   8.624   1.775  0.2882 -0.1529 -0.0453
21232SOL    HW169016   2.367   8.583   1.836  0.3618  0.3768  0.2395
21232SOL    HW269017   2.357   8.649   1.699 -0.0943 -2.3984 -1.1308
21233SOL     OW69018  11.405   1.478   0.895  0.4743  0.3051  0.6544
21233SOL    HW169019  11.351   1.438   0.963 -2.4088 -0.9691 -2.1473
21233SOL    HW269020  11.462   1.408   0.864 -0.2698  0.0581 -0.1697
21234SOL     OW69021   9.951   5.249   8.937 -0.0371  0.5890 -0.1682
21234SOL    HW169022   9.878   5.220   8.991  0.9088 -0.6287  0.5004
21234SOL    HW269023  10.001   5.169   8.919  1.1126  1.3889 -0.6299
21235SOL     OW69024   7.333  10.367   8.875 -0.0801  0.1686  0.1539
21235SOL    HW169025   7.404  10.371   8.810  0.8882 -0.8352  1.0955
21235SOL    HW269026   7.365  10.418   8.949  0.0522 -0.9562  0.9075
21236SOL     OW69027  10.496   7.017   8.551 -0.6484  1.0125 -0.0423
21236SOL    HW169028  10.545   6.945   8.511 -0.6214  0.7550  0.4540
21236SOL    HW269029  10.558   7.090   8.553 -0.8204  1.1926 -0.9714
21237SOL     OW69030   1.241   1.324   3.653 -0.1530 -0.0672 -0.8194
21237SOL    HW169031   1.302   1.292   3.719 -1.1712  0.4343  0.4248
21237SOL    HW269032   1.290   1.389   3.604 -0.0701  1.4576  1.1465
21238SOL     OW69033   0.566   5.190   3.634  0.0337 -0.3091  0.1450
21238SOL    HW169034   0.610   5.182   3.718  0.8326 -0.4396 -0.2807
21238SOL    HW269035   0.489   5.133   3.642 -0.5268  0.5665  1.1796
21239SOL     OW69036   5.437   6.483   7.874  0.2880 -0.0558 -0.4239
21239SOL    HW169037   5.435   6.440   7.960 -0.6052  2.1675  0.7244
21239SOL    HW269038   5.404   6.571   7.890  2.2451  1.1950 -2.6304
21240SOL     OW69039   0.767  10.834   4.157  0.1090 -0.5584  0.0079
21240SOL    HW169040   0.744  10.755   4.205  1.6212 -0.9423  0.1497
21240SOL    HW269041   0.721  10.825   4.073 -1.6476 -0.4112  0.9199
21241SOL     OW69042  10.231   6.074   8.421  0.1711 -0.1071  0.2296
21241SOL    HW169043  10.185   6.133   8.480 -2.1086 -0.8518 -0.6885
21241SOL    HW269044  10.227   6.117   8.335  0.1121 -0.7240 -0.0877
21242SOL     OW69045   9.189   9.698   6.423 -0.4736 -0.1241 -0.1979
21242SOL    HW169046   9.254   9.654   6.478  0.1894  0.8184 -0.2022
21242SOL    HW269047   9.190   9.789   6.453 -0.2140  0.3739 -1.6533
21243SOL     OW69048   1.984   9.329   5.432 -0.4597  0.4478 -0.4693
21243SOL    HW169049   2.019   9.240   5.431 -2.1750 -0.3141  0.6860
21243SOL    HW269050   2.060   9.386   5.426  0.7436 -1.0992 -0.3968
21244SOL     OW69051   8.447   2.393   2.546  0.4158 -0.2025  0.6506
21244SOL    HW169052   8.393   2.447   2.604  1.1744  0.4880  0.7386
21244SOL    HW269053   8.430   2.430   2.459  1.2440  0.4676  0.7589
21245SOL     OW69054   1.131  11.543   0.846 -0.0938 -0.0597 -0.5826
21245SOL    HW169055   1.161  11.620   0.894  1.7231 -0.9838 -0.1360
21245SOL    HW269056   1.049  11.570   0.805  1.2916  2.6636 -1.7814
21246SOL     OW69057   5.580   9.353   3.721 -0.0396  0.2821 -0.0910
21246SOL    HW169058   5.636   9.279   3.700 -0.9366 -0.4050 -0.1218
21246SOL    HW269059   5.573   9.352   3.817  1.8783  1.7982  0.1227
21247SOL     OW69060   1.075   5.314   2.170  0.6026  0.0296 -0.0915
21247SOL    HW169061   1.141   5.246   2.157  1.3536  0.8771 -0.8507
21247SOL    HW269062   1.023   5.313   2.089  0.5828  0.3199 -0.0841
21248SOL     OW69063  11.101   4.691   9.038  0.3575 -0.2110 -0.4639
21248SOL    HW169064  11.118   4.635   9.115 -2.4193  1.6894  1.7125
21248SOL    HW269065  11.028   4.649   8.994 -0.7487  0.8257  0.3271
21249SOL     OW69066   0.622   8.932   6.342 -0.4273  0.1234  0.2939
21249SOL    HW169067   0.708   8.905   6.373 -0.7793  0.2575  1.4407
21249SOL    HW269068   0.640   8.977   6.259  0.5903  0.0461  0.4548
21250SOL     OW69069   3.833   1.549   5.301  0.0450  0.0865 -0.4051
21250SOL    HW169070   3.779   1.535   5.379 -1.3189 -0.4545 -1.3925
21250SOL    HW269071   3.888   1.471   5.296 -0.1943 -0.0943 -0.2385
21251SOL     OW69072   7.414   5.390  11.534 -0.0553  0.0872 -0.5055
21251SOL    HW169073   7.458   5.377  11.618  0.1869  0.0874 -0.6289
21251SOL    HW269074   7.355   5.315  11.526  0.2101 -0.1247 -0.5125
21252SOL     OW69075   2.245   7.910  10.777  0.1052  0.3147  0.0249
21252SOL    HW169076   2.155   7.901  10.810 -0.5416  0.9608 -1.4665
21252SOL    HW269077   2.277   7.991  10.816  0.1801 -0.1065  0.8528
21253SOL     OW69078   4.760   0.625   8.548  0.4429  0.4149  0.4810
21253SOL    HW169079   4.790   0.671   8.625  0.1413  0.9236  0.2971
21253SOL    HW269080   4.676   0.586   8.574  0.2925  0.6711  0.3761
21254SOL     OW69081   1.458   4.703   9.450 -0.4233  0.1653  0.8823
21254SOL    HW169082   1.521   4.632   9.436  0.4262  0.9255  0.7717
21254SOL    HW269083   1.380   4.660   9.486 -1.4372 -1.4572 -2.7238
21255SOL     OW69084   0.178   3.357  10.846  0.4087 -0.1788  0.6097
21255SOL    HW169085   0.105   3.314  10.891 -0.0504 -0.2865 -0.2097
21255SOL    HW269086   0.222   3.287  10.798  1.1019 -0.1254  1.1522
21256SOL     OW69087   3.014   5.374  10.233  0.2967 -0.1489  0.1211
21256SOL    HW169088   2.950   5.308  10.259  0.7355 -0.5113  0.2855
21256SOL    HW269089   3.095   5.326  10.221  0.7601  0.4466  0.7966
21257SOL     OW69090   9.031   7.753   1.743 -0.4691 -0.0972  0.1141
21257SOL    HW169091   8.996   7.777   1.658 -1.4041  0.0659  0.5337
21257SOL    HW269092   9.009   7.661   1.754  1.1381 -0.5912 -0.5272
21258SOL     OW69093   7.251   2.414   4.539 -0.6089 -0.2865 -0.2005
21258SOL    HW169094   7.247   2.416   4.635 -0.5543  0.2052 -0.2079
21258SOL    HW269095   7.188   2.480   4.511 -1.4199 -1.1832 -0.5253
21259SOL     OW69096   6.127  11.413   7.770  0.3008 -0.5856  0.3261
21259SOL    HW169097   6.216  11.380   7.760  0.3336 -0.5959  0.6654
21259SOL    HW269098   6.097  11.377   7.853 -0.2494 -1.1174 -0.0925
21260SOL     OW69099   3.567   6.808   9.583 -0.2220 -0.0533  0.4102
21260SOL    HW169100   3.525   6.761   9.512  0.0704  0.7360 -0.3031
21260SOL    HW269101   3.604   6.886   9.542  3.2013 -1.3725  0.6632
21261SOL     OW69102  11.496   3.113   2.271  0.9212  0.0876 -0.4594
21261SOL    HW169103  11.560   3.079   2.333 -0.8027  0.0299  1.3858
21261SOL    HW269104  11.484   3.041   2.208  2.2517 -0.0909 -0.5316
21262SOL     OW69105   8.714   6.758   2.166  0.4381  0.0010 -0.2333
21262SOL    HW169106   8.699   6.747   2.260  0.5282 -0.8613 -0.3086
21262SOL    HW269107   8.809   6.753   2.156  0.5383  1.5206 -0.2153
21263SOL     OW69108   7.826   8.261   8.393  0.5564 -0.0791 -0.4880
21263SOL    HW169109   7.913   8.253   8.355  1.3047  0.8425  0.9352
21263SOL    HW269110   7.827   8.345   8.439 -0.5479 -0.7410  0.8430
21264SOL     OW69111   0.191   7.192  10.735  0.3267  0.7505 -0.0398
21264SOL    HW169112   0.259   7.171  10.670  1.7227  2.4420  0.7814
21264SOL    HW269113   0.234   7.177  10.819 -0.0528  2.4841  0.5085
21265SOL     OW69114   6.946   5.570   1.215 -0.3158  0.6132 -0.5222
21265SOL    HW169115   6.913   5.633   1.279  1.9053 -0.0772  1.4444
21265SOL    HW269116   6.967   5.493   1.267 -0.8026 -0.9511 -2.5379
21266SOL     OW69117   1.672   3.042   2.595  0.3241 -0.6235  0.1654
21266SOL    HW169118   1.743   3.032   2.658 -0.2964  1.4045  1.2538
21266SOL    HW269119   1.717   3.066   2.513  1.0110 -1.3720  0.3129
21267SOL     OW69120   4.178   1.371   3.458  0.0113  0.2270  0.4344
21267SOL    HW169121   4.259   1.397   3.502 -0.1659  2.9247 -0.6516
21267SOL    HW269122   4.112   1.432   3.492 -1.3894 -1.2672  0.5448
21268SOL     OW69123   8.818   5.414   6.417 -0.0272 -1.0039 -0.2027
21268SOL    HW169124   8.734   5.457   6.429  1.0460  0.6368  2.1615
21268SOL    HW269125   8.872   5.479   6.372  1.1223 -0.4327  1.9091
21269SOL     OW69126   4.979  10.811   0.139  0.3611  0.0272  0.0299
21269SOL    HW169127   4.904  10.762   0.172  0.1034  0.7051  0.4718
21269SOL    HW269128   4.998  10.874   0.209  1.0104  0.2069 -0.3079
21270SOL     OW69129   1.849   7.151  11.723  0.1320  0.0726 -0.4277
21270SOL    HW169130   1.842   7.202  11.642 -0.9637 -1.3638 -1.2613
21270SOL    HW269131   1.779   7.087  11.718  0.7746 -0.8040  1.1256
21271SOL     OW69132   0.813   1.692  10.448 -0.1127  0.1422  0.3435
21271SOL    HW169133   0.737   1.727  10.401 -0.7196  0.4781  1.5272
21271SOL    HW269134   0.876   1.764  10.449 -0.3796  0.3757  0.6445
21272SOL     OW69135  11.440   0.216   3.633 -0.2909  0.3870 -0.3016
21272SOL    HW169136  11.400   0.246   3.714  0.5555  0.2187  0.1925
21272SOL    HW269137  11.401   0.270   3.565 -2.5043 -0.8029 -0.0570
21273SOL     OW69138   4.801   7.662   1.685  0.5400 -0.1863  0.2803
21273SOL    HW169139   4.717   7.696   1.655  0.8074  0.3435  0.1179
21273SOL    HW269140   4.781   7.576   1.721 -0.2176  0.3123  1.0772
21274SOL     OW69141  11.654   8.928   2.788 -0.4732 -0.0259 -0.1578
21274SOL    HW169142  11.696   9.001   2.743  1.5031 -0.2284  1.2396
21274SOL    HW269143  11.672   8.942   2.880 -1.5543 -1.3871  0.3064
21275SOL     OW69144   6.422   0.181   9.918 -0.1765 -0.0703 -0.3777
21275SOL    HW169145   6.447   0.167   9.827  0.7909 -0.0329 -0.1351
21275SOL    HW269146   6.501   0.158   9.968 -0.4246  0.6949  0.3921
21276SOL     OW69147   8.130   7.021   9.343  0.2828 -0.3554 -0.4235
21276SOL    HW169148   8.096   7.068   9.420  1.7833 -0.5511  0.4000
21276SOL    HW269149   8.092   7.067   9.268  0.6208  1.3253  0.3966
21277SOL     OW69150  10.075   6.076   2.716 -0.0394  0.0453 -0.4581
21277SOL    HW169151  10.156   6.072   2.767 -2.4656 -1.3636  3.7353
21277SOL    HW269152  10.065   6.169   2.695  1.7943  0.4919  0.4252
21278SOL     OW69153   3.312   1.581   8.433 -0.0151 -0.0951  0.6737
21278SOL    HW169154   3.362   1.500   8.434  1.2547  0.6623  1.3283
21278SOL    HW269155   3.355   1.637   8.498 -2.0082  0.4430  1.6216
21279SOL     OW69156   3.319   6.471   2.813 -0.1295 -0.7503  0.0616
21279SOL    HW169157   3.379   6.478   2.739  0.7894  1.0295  0.9179
21279SOL    HW269158   3.246   6.418   2.779  0.2549  0.0011 -2.1036
21280SOL     OW69159   3.592   6.364   1.446 -0.5706  0.4517 -0.6518
21280SOL    HW169160   3.675   6.315   1.443  0.3759  2.0188 -0.7539
21280SOL    HW269161   3.565   6.371   1.355 -1.0531 -0.4209 -0.5859
21281SOL     OW69162   6.704   1.812   9.377  0.2113  0.1857 -0.5431
21281SOL    HW169163   6.699   1.808   9.472  0.3724  1.7784 -0.4465
21281SOL    HW269164   6.617   1.785   9.347 -0.7596  2.3291  0.1770
21282SOL     OW69165   4.102   9.278   0.576 -0.1472 -0.5505 -0.2998
21282SOL    HW169166   4.079   9.332   0.500  0.5498 -0.2896 -0.3318
21282SOL    HW269167   4.120   9.341   0.646 -3.6249 -0.7897  0.9958
21283SOL     OW69168  11.208  10.073   4.423 -0.2416 -0.2210 -0.0321
21283SOL    HW169169  11.234   9.994   4.375 -1.9385 -0.4914 -0.5835
21283SOL    HW269170  11.121  10.093   4.390 -0.1269  1.4986  0.6189
21284SOL     OW69171   6.904   5.252   8.890  0.0713  0.3986  0.1613
21284SOL    HW169172   6.853   5.305   8.951  0.3162  0.6444  0.1572
21284SOL    HW269173   6.986   5.300   8.881  0.2533  0.0720  0.0722
21285SOL     OW69174   8.530   8.302   5.879 -0.2959  0.4900  0.2050
21285SOL    HW169175   8.570   8.304   5.966  2.1695  2.2541 -0.8584
21285SOL    HW269176   8.488   8.216   5.874  1.2101 -0.4687  2.3900
21286SOL     OW69177   3.014   3.960   9.078  0.1966  0.2643 -0.0558
21286SOL    HW169178   2.938   3.992   9.029 -0.4558 -0.6684  0.2998
21286SOL    HW269179   3.028   3.871   9.044  2.0030  0.9006 -1.0896
21287SOL     OW69180   3.637   6.921   5.992  0.7615  0.0323  0.6222
21287SOL    HW169181   3.627   7.010   6.025  1.3540  0.7503 -1.0589
21287SOL    HW269182   3.562   6.874   6.027 -0.7189  1.7110 -0.1722
21288SOL     OW69183  10.124   4.958   1.888  0.2056 -0.3401 -0.0403
21288SOL    HW169184  10.182   4.911   1.948 -0.6882 -0.1647  1.0003
21288SOL    HW269185  10.060   4.893   1.859 -1.0334  0.1808  1.4040
21289SOL     OW69186   4.697   3.370   9.821 -0.3595 -0.6044 -0.1150
21289SOL    HW169187   4.608   3.399   9.840 -0.3144  0.0622 -0.8628
21289SOL    HW269188   4.702   3.368   9.725  0.4965 -0.4089 -0.0883
21290SOL     OW69189  11.793   8.799  11.254  0.0528 -0.7032 -0.1855
21290SOL    HW169190  11.796   8.839  11.341  0.5017  0.6109 -0.7890
21290SOL    HW269191  11.705   8.819  11.221  0.8977  1.5125 -1.2493
21291SOL     OW69192   6.832   8.065   3.345  0.2413  0.3581 -0.6536
21291SOL    HW169193   6.871   8.011   3.414 -0.6623  0.6357  0.1008
21291SOL    HW269194   6.764   8.009   3.307 -1.4581  1.2661  0.8704
21292SOL     OW69195   7.417   4.441  10.866  0.2004 -0.2136 -0.0976
21292SOL    HW169196   7.376   4.409  10.946  0.8226 -1.4359 -0.2403
21292SOL    HW269197   7.506   4.465  10.893 -0.4651  2.1652  0.1576
21293SOL     OW69198   8.029   7.024   9.820  0.6026  0.2414 -0.1176
21293SOL    HW169199   8.071   7.058   9.900  1.6517  1.2265 -1.0338
21293SOL    HW269200   8.102   6.987   9.770 -0.3246 -2.1353  0.1936
21294SOL     OW69201  10.951   0.698   7.707  0.3301  0.0738  0.3977
21294SOL    HW169202  10.912   0.760   7.645  0.6946  0.4005  0.4893
21294SOL    HW269203  10.914   0.613   7.683  0.8013  0.1242 -0.5520
21295SOL     OW69204   8.853   5.218   3.751  0.3430 -0.9694  0.0006
21295SOL    HW169205   8.856   5.239   3.657  1.5761  1.2014  0.4692
21295SOL    HW269206   8.942   5.235   3.782 -0.7274  1.2868  2.1142
21296SOL     OW69207   5.091  11.613   8.569 -1.2271  0.2444 -0.0746
21296SOL    HW169208   5.152  11.539   8.562 -0.9824  0.2842  1.4407
21296SOL    HW269209   5.141  11.688   8.539 -0.5717  0.2428  0.9722
21297SOL     OW69210   9.433  11.488   7.211 -0.1234  0.3208  0.5058
21297SOL    HW169211   9.442  11.393   7.201  0.2775  0.4468 -0.4971
21297SOL    HW269212   9.508  11.514   7.264  2.0179  0.5197 -2.3754
21298SOL     OW69213   7.198  11.179  10.227  0.0925 -0.6328 -0.3358
21298SOL    HW169214   7.291  11.201  10.229  0.1165 -0.6651 -0.9746
21298SOL    HW269215   7.175  11.180  10.135 -0.2203 -2.0116 -0.2872
21299SOL     OW69216   5.643  10.746   5.368  0.0489 -0.5069  0.3878
21299SOL    HW169217   5.578  10.814   5.386 -0.2467 -1.0854  1.5396
21299SOL    HW269218   5.723  10.779   5.408  0.4313  0.0580 -0.7648
21300SOL     OW69219   0.157   8.191   2.639 -0.5498  0.7408 -0.3710
21300SOL    HW169220   0.146   8.160   2.729 -1.8752  1.4494 -0.2729
21300SOL    HW269221   0.227   8.256   2.644 -1.0784  1.2736  0.2798
21301SOL     OW69222   2.933   9.846   7.967  0.6829  0.1457  0.2842
21301SOL    HW169223   2.906   9.797   7.889 -0.8320 -0.1866  0.9582
21301SOL    HW269224   3.026   9.863   7.955  0.4607  0.1935 -1.6306
21302SOL     OW69225   2.852   5.871   3.090 -0.2053  0.1382 -0.3117
21302SOL    HW169226   2.912   5.861   3.016 -0.1618 -2.4715 -0.0079
21302SOL    HW269227   2.910   5.881   3.166 -0.1864  0.0439 -0.3129
21303SOL     OW69228   3.032   4.445   3.891  0.3755 -0.2536 -0.2087
21303SOL    HW169229   3.016   4.353   3.870  1.3578 -0.5298  0.2103
21303SOL    HW269230   2.946   4.487   3.880 -0.7030 -1.6796  1.9699
21304SOL     OW69231   5.451   9.777   7.868 -0.4302 -0.2778  0.2708
21304SOL    HW169232   5.361   9.779   7.899 -0.3544  1.8198  0.5052
21304SOL    HW269233   5.443   9.769   7.773 -0.8123 -1.2314  0.3732
21305SOL     OW69234   9.289   4.796  10.590 -0.1498 -0.0491  0.1077
21305SOL    HW169235   9.218   4.758  10.642  0.1070 -0.0976  0.4239
21305SOL    HW269236   9.305   4.881  10.630 -1.4876  0.9177 -1.2775
21306SOL     OW69237  11.497   0.666  10.353 -0.2245  0.0788  0.4639
21306SOL    HW169238  11.565   0.694  10.292  0.2954  0.6600  1.2807
21306SOL    HW269239  11.471   0.579  10.324  0.6489 -0.0101 -0.0459
21307SOL     OW69240   6.298   0.979   1.041 -0.4217  0.4944 -0.5575
21307SOL    HW169241   6.226   1.040   1.029 -0.8665  0.0477 -0.1759
21307SOL    HW269242   6.298   0.960   1.135  0.1100  0.3842 -0.5728
21308SOL     OW69243   4.216  11.122   2.992  0.1694 -0.1007 -0.0568
21308SOL    HW169244   4.157  11.101   3.064 -0.9612 -1.0480 -1.2081
21308SOL    HW269245   4.299  11.143   3.035 -0.7599  0.4748  1.5643
21309SOL     OW69246   2.690   7.398  10.741 -0.3259 -0.5434 -0.0563
21309SOL    HW169247   2.680   7.311  10.780  0.1383 -0.8058 -0.5164
21309SOL    HW269248   2.600   7.429  10.728 -0.5508 -1.7634 -1.6936
21310SOL     OW69249   5.669   9.201   4.640  0.0726 -0.2491  0.6617
21310SOL    HW169250   5.608   9.164   4.577 -0.6377  0.0872  1.1425
21310SOL    HW269251   5.638   9.291   4.654  0.9415  0.0833  0.5685
21311SOL     OW69252   9.794   4.339   0.249  0.2048  0.0545  0.2102
21311SOL    HW169253   9.704   4.343   0.283 -0.2821  1.2201 -1.1327
21311SOL    HW269254   9.845   4.391   0.312 -0.6807  2.1532 -0.6912
21312SOL     OW69255   4.326   0.851   0.318 -0.5578 -0.1112 -0.7880
21312SOL    HW169256   4.368   0.810   0.394 -2.7701 -0.3211  0.4262
21312SOL    HW269257   4.371   0.934   0.308  1.1038 -0.9347 -0.5212
21313SOL     OW69258   4.094   7.874   0.200  0.0430 -0.0571 -0.7148
21313SOL    HW169259   4.020   7.903   0.253  0.9005  1.4831 -0.2976
21313SOL    HW269260   4.150   7.951   0.193  2.0651 -1.3973 -0.2385
21314SOL     OW69261   9.155   2.146   0.460 -0.6944 -0.1055  0.2928
21314SOL    HW169262   9.218   2.163   0.389 -1.6592 -2.0530 -1.1419
21314SOL    HW269263   9.196   2.182   0.538  0.3556  2.3072 -1.2530
21315SOL     OW69264   6.144   6.133   8.743  0.2398 -0.1424 -0.6696
21315SOL    HW169265   6.128   6.057   8.798  1.0246 -0.1936 -0.4953
21315SOL    HW269266   6.224   6.172   8.779  0.2826  0.3112 -1.2408
21316SOL     OW69267   8.231   9.917   7.372 -0.0499 -0.3654 -0.0106
21316SOL    HW169268   8.304   9.978   7.372 -0.4569  0.1427  0.6672
21316SOL    HW269269   8.271   9.831   7.361  0.7550 -0.1931  1.3120
21317SOL     OW69270   2.970   3.027   1.612  0.2551 -0.1595  0.2360
21317SOL    HW169271   2.913   3.025   1.535  0.7053 -1.3177 -0.0905
21317SOL    HW269272   3.015   2.942   1.611  1.2795  0.3519  1.0144
21318SOL     OW69273   4.883   8.267   0.680  0.5290 -0.4497  0.2163
21318SOL    HW169274   4.971   8.286   0.649 -0.2008  1.6426 -0.7417
21318SOL    HW269275   4.879   8.306   0.768  0.9364 -1.7441  0.8423
21319SOL     OW69276   6.962   5.081   3.363 -0.1822  0.4238 -0.4384
21319SOL    HW169277   6.970   5.048   3.452  0.0216  2.6804  0.4370
21319SOL    HW269278   6.869   5.071   3.343 -0.1598 -0.4629 -0.1315
21320SOL     OW69279   9.266   0.453   1.273 -0.3987 -0.0611 -0.4715
21320SOL    HW169280   9.205   0.527   1.282 -2.3613 -1.5319 -0.9403
21320SOL    HW269281   9.227   0.384   1.326  2.2051 -0.3471  1.2107
21321SOL     OW69282   5.152   3.355   4.431  0.3269  0.2904  0.0912
21321SOL    HW169283   5.197   3.298   4.369 -1.0307  0.0488 -0.7365
21321SOL    HW269284   5.212   3.365   4.504  1.1283 -1.1374 -0.3415
21322SOL     OW69285   2.329   3.941   5.176 -0.1899  0.1088 -0.4223
21322SOL    HW169286   2.382   3.907   5.248 -0.0931 -1.3636 -1.1590
21322SOL    HW269287   2.241   3.949   5.212  0.3024  1.7466  0.5574
21323SOL     OW69288   2.156   8.243   1.500  0.4988  0.4120  0.5320
21323SOL    HW169289   2.168   8.173   1.435 -0.4783  0.8256 -0.1181
21323SOL    HW269290   2.088   8.209   1.558  0.1546  0.7496  0.3241
21324SOL     OW69291  10.297   5.233   4.537 -0.0953 -0.1146 -0.4645
21324SOL    HW169292  10.299   5.328   4.533  0.9524 -0.1593 -2.5575
21324SOL    HW269293  10.243   5.212   4.613  0.6703  2.1392  0.7778
21325SOL     OW69294   5.057   2.667   2.437 -0.2406 -0.5317 -0.2000
21325SOL    HW169295   5.030   2.755   2.412  0.0939 -1.0431 -2.5435
21325SOL    HW269296   4.990   2.638   2.499 -1.5966  0.5208 -1.1230
21326SOL     OW69297   6.633   3.251   9.634  0.6779  0.7938 -0.5295
21326SOL    HW169298   6.714   3.291   9.665  0.6713  0.6674 -0.3490
21326SOL    HW269299   6.565   3.287   9.691  0.6719  0.5275 -0.3669
21327SOL     OW69300  11.716   8.547   9.241 -0.0625  0.1994  0.1799
21327SOL    HW169301  11.727   8.509   9.155 -0.0731  1.0208 -0.1982
21327SOL    HW269302  11.624   8.533   9.262 -0.0856  0.0933  0.0079
21328SOL     OW69303   3.108   1.085   7.401 -0.1968 -0.1027  0.2250
21328SOL    HW169304   3.018   1.059   7.382 -0.9236  0.9362  1.9818
21328SOL    HW269305   3.139   1.021   7.465 -1.5280  2.3171  3.5258
21329SOL     OW69306   7.173   0.829   6.259 -0.5962  0.2614 -0.0617
21329SOL    HW169307   7.132   0.809   6.174 -0.1876  1.0167 -0.4417
21329SOL    HW269308   7.238   0.760   6.270  0.5477  1.1049 -1.1975
21330SOL     OW69309   7.340   3.844  11.410 -0.0653  0.4413 -0.2632
21330SOL    HW169310   7.288   3.807  11.481  0.0823 -0.3623 -0.5682
21330SOL    HW269311   7.412   3.890  11.453 -0.0074  0.0048  0.1072
21331SOL     OW69312   3.580   5.138  10.434 -0.1053  0.2554 -0.4775
21331SOL    HW169313   3.494   5.179  10.445 -0.7624 -1.0938 -0.3056
21331SOL    HW269314   3.635   5.207  10.397 -1.5263  0.8743 -1.5466
21332SOL     OW69315   1.322   4.271   6.864  0.1987 -0.2160  0.1216
21332SOL    HW169316   1.302   4.296   6.774  1.1812 -2.3218 -0.7584
21332SOL    HW269317   1.407   4.312   6.882 -0.5215  1.1282  0.5119
21333SOL     OW69318   9.597  11.139   3.043 -0.7085 -0.2008 -0.0645
21333SOL    HW169319   9.518  11.184   3.013 -1.4982 -1.3715  0.1810
21333SOL    HW269320   9.604  11.161   3.135 -0.0371  0.8931 -0.3614
21334SOL     OW69321   8.282   0.527  11.358  0.2895 -0.3531 -0.0844
21334SOL    HW169322   8.264   0.535  11.451 -0.7701 -4.9208  0.3392
21334SOL    HW269323   8.206   0.566  11.315  0.1149  0.5080  0.9583
21335SOL     OW69324  10.608  11.658   6.683 -0.4537 -0.5143 -0.1121
21335SOL    HW169325  10.660  11.735   6.661 -0.3063 -0.6402 -0.2035
21335SOL    HW269326  10.672  11.586   6.688 -0.3545 -0.3607  1.5207
21336SOL     OW69327   3.150   2.622   2.748  0.0581  0.4140 -0.4498
21336SOL    HW169328   3.083   2.556   2.726  0.2988 -0.0901  0.2964
21336SOL    HW269329   3.233   2.578   2.732  0.2498  1.3434 -2.2760
21337SOL     OW69330   3.620   5.866   2.725  0.3954 -0.0679  0.3259
21337SOL    HW169331   3.593   5.895   2.637  0.7908  0.1658  0.2764
21337SOL    HW269332   3.697   5.811   2.709  0.4230 -0.0850  0.5209
21338SOL     OW69333  10.301   7.833   6.480  0.1380 -0.2449  0.4934
21338SOL    HW169334  10.272   7.875   6.560 -0.2437 -0.3263  0.4002
21338SOL    HW269335  10.390   7.865   6.466  0.3169 -0.4751  1.1168
21339SOL     OW69336   9.353   5.554  10.924 -0.0945  0.4089  0.3243
21339SOL    HW169337   9.407   5.558  10.845 -0.6259 -1.3910 -0.1599
21339SOL    HW269338   9.415   5.535  10.994  0.4152  2.2493  0.4446
21340SOL     OW69339   1.051   7.036   2.979  0.0792  0.1240 -0.2705
21340SOL    HW169340   0.975   6.993   2.940  0.2593 -0.5372  0.0801
21340SOL    HW269341   1.095   7.079   2.906 -0.4171  0.1882 -0.5381
21341SOL     OW69342   1.269   9.021   5.920  0.1771  0.0082  0.1552
21341SOL    HW169343   1.229   8.974   5.847 -0.7358  1.0910 -0.0828
21341SOL    HW269344   1.360   8.991   5.922  0.0182 -0.5798 -0.9574
21342SOL     OW69345  10.902   5.241   7.951 -0.3841 -0.2630 -0.0070
21342SOL    HW169346  10.825   5.208   7.906 -0.4111 -0.9542  0.5340
21342SOL    HW269347  10.872   5.262   8.039 -0.0770 -0.0146  0.0405
21343SOL     OW69348  11.624   1.700   8.581 -0.3115 -0.4344 -0.2708
21343SOL    HW169349  11.537   1.674   8.553 -1.1046  0.4171  1.2407
21343SOL    HW269350  11.645   1.640   8.652 -0.2401  0.1739  0.2328
21344SOL     OW69351   8.917   1.029  11.409 -0.0744  0.0853 -0.2406
21344SOL    HW169352   8.897   0.980  11.489 -1.3768 -1.1371 -1.2488
21344SOL    HW269353   8.910   1.121  11.434 -0.6729 -0.2766  0.9931
21345SOL     OW69354   3.411   1.444   2.535 -0.0532 -0.3468 -0.2422
21345SOL    HW169355   3.357   1.436   2.456 -0.5431  1.7719 -0.1662
21345SOL    HW269356   3.419   1.538   2.550  0.1068 -0.6852  2.2048
21346SOL     OW69357  10.660   2.349  10.268 -0.0177 -0.2561  0.2570
21346SOL    HW169358  10.651   2.254  10.276  0.2582 -0.2709  0.3970
21346SOL    HW269359  10.742   2.369  10.313 -1.2553  0.3252  2.4370
21347SOL     OW69360   1.437   1.571   7.884  0.1794  0.2310  0.2829
21347SOL    HW169361   1.500   1.499   7.882 -1.1752 -0.9933  0.5086
21347SOL    HW269362   1.375   1.550   7.814 -0.5235  0.8971  0.6956
21348SOL     OW69363   0.088   7.371   2.296 -0.2700 -0.4579  0.2627
21348SOL    HW169364   0.140   7.306   2.248 -0.7271 -0.4862 -0.2067
21348SOL    HW269365   0.140   7.390   2.374  1.1416  0.5778 -0.8546
21349SOL     OW69366   9.362   5.314   3.738  0.7044  0.3857  0.2753
21349SOL    HW169367   9.339   5.295   3.647  0.8436  1.2149  0.0619
21349SOL    HW269368   9.421   5.389   3.733  2.4699 -0.8894  0.8967
21350SOL     OW69369   1.103   8.367   8.149  0.4081  0.0375 -0.2555
21350SOL    HW169370   1.103   8.329   8.237  1.9122 -0.6035 -0.4936
21350SOL    HW269371   1.173   8.432   8.151  0.9838 -0.5357 -1.1872
21351SOL     OW69372   0.465   9.923   8.689  0.7122  0.4654 -0.0866
21351SOL    HW169373   0.495   9.847   8.639 -1.0860  0.8199 -1.8334
21351SOL    HW269374   0.375   9.900   8.714  1.3457  0.5439  2.5773
21352SOL     OW69375   3.910   9.376   2.143  0.2739  0.2242 -0.1809
21352SOL    HW169376   3.891   9.413   2.230  1.2077  1.6442 -0.5498
21352SOL    HW269377   3.986   9.319   2.158 -0.1789 -0.3239  0.0957
21353SOL     OW69378   8.621   0.337   1.842  0.7700  0.9590 -0.4267
21353SOL    HW169379   8.527   0.348   1.829  0.5439 -0.4640 -0.2188
21353SOL    HW269380   8.646   0.409   1.900 -0.4227  0.7142  0.4409
21354SOL     OW69381  10.980   9.491   4.093  0.0139  0.0420  0.3356
21354SOL    HW169382  11.024   9.474   4.176 -0.4969 -0.1427  0.5723
21354SOL    HW269383  10.940   9.408   4.069 -0.1616  0.1903  0.1039
21355SOL     OW69384   1.852   6.757   3.678 -0.6498  0.1544  0.4485
21355SOL    HW169385   1.830   6.850   3.671 -0.3678  0.1751 -0.3582
21355SOL    HW269386   1.946   6.756   3.698 -0.8111  0.0443  1.2242
21356SOL     OW69387   1.518   2.813   3.311  1.1158 -0.1692  0.1211
21356SOL    HW169388   1.438   2.861   3.332  0.6903 -0.8272  0.0504
21356SOL    HW269389   1.572   2.875   3.262  0.4546  0.1426 -0.2250
21357SOL     OW69390  10.422   5.153   1.869 -0.4151  0.0582  0.0982
21357SOL    HW169391  10.428   5.126   1.960 -0.9387 -0.3661  0.0112
21357SOL    HW269392  10.342   5.111   1.836  0.3309 -0.6864 -0.8500
21358SOL     OW69393  10.524   7.048  10.010 -1.1120  0.5998  0.3350
21358SOL    HW169394  10.588   7.108   9.970 -0.5331 -0.0511  0.2756
21358SOL    HW269395  10.497   6.991   9.938 -1.2446  0.4285  0.5195
21359SOL     OW69396   6.963   4.640  10.058  0.1317 -0.5283  0.1968
21359SOL    HW169397   7.051   4.661  10.088  1.2794 -0.0562 -3.0321
21359SOL    HW269398   6.972   4.631   9.963 -2.9445 -2.4267 -0.0640
21360SOL     OW69399   3.239   3.512   9.800 -0.1082 -0.1186 -0.4577
21360SOL    HW169400   3.257   3.587   9.744  0.2478 -1.0435 -1.6192
21360SOL    HW269401   3.191   3.451   9.744  1.4260 -1.6278 -0.1907
21361SOL     OW69402  10.114   9.967   7.308 -0.3831 -0.2523 -0.2700
21361SOL    HW169403  10.202   9.936   7.327  0.1362  0.9639 -0.5943
21361SOL    HW269404  10.087   9.918   7.230  0.5080  0.2521 -0.9116
21362SOL     OW69405   4.944   3.216   2.558  0.5049 -0.5736 -0.2975
21362SOL    HW169406   4.922   3.308   2.572  0.9333 -0.4668 -0.3133
21362SOL    HW269407   4.953   3.179   2.646  0.4661 -0.5683 -0.2913
21363SOL     OW69408   3.960   1.312   5.208 -0.4219  0.4812  0.3130
21363SOL    HW169409   3.985   1.328   5.117 -1.8560  1.2435  0.0306
21363SOL    HW269410   4.043   1.290   5.252  0.0973 -1.4067 -1.4551
21364SOL     OW69411   3.778   5.793   1.647  0.0921 -0.4538  0.3370
21364SOL    HW169412   3.782   5.882   1.611 -2.0748 -0.4552 -0.0639
21364SOL    HW269413   3.813   5.801   1.735 -0.6860  0.9662  0.5492
21365SOL     OW69414   7.709  11.585   0.802 -0.2558  0.8944  0.1700
21365SOL    HW169415   7.674  11.573   0.890  0.5353 -0.1376  0.3569
21365SOL    HW269416   7.802  11.602   0.815  0.1564 -0.6922 -0.5264
21366SOL     OW69417   2.789   1.493   5.835 -0.5183 -0.5535 -0.0493
21366SOL    HW169418   2.883   1.496   5.854 -1.0158 -0.3714  2.9063
21366SOL    HW269419   2.783   1.486   5.740  2.4584  2.7164 -0.6959
21367SOL     OW69420   6.354   1.803   2.424  0.2564 -0.4639 -0.0389
21367SOL    HW169421   6.385   1.724   2.470 -0.0216 -0.5151  0.0593
21367SOL    HW269422   6.264   1.814   2.453  0.3285 -0.0446  0.0315
21368SOL     OW69423   5.494   5.759   6.705  0.1134  0.2427  0.1883
21368SOL    HW169424   5.521   5.679   6.661  2.6145  0.1790  1.6423
21368SOL    HW269425   5.569   5.818   6.695 -1.1728  1.9522  0.2354
21369SOL     OW69426   6.192   6.975   5.088 -0.4822 -0.0752 -0.6306
21369SOL    HW169427   6.282   6.969   5.118 -0.9178 -2.4938  0.3885
21369SOL    HW269428   6.188   6.919   5.011 -1.4155 -1.2312  0.2202
21370SOL     OW69429   7.294   6.566   8.054 -0.5001 -0.1647 -0.1068
21370SOL    HW169430   7.289   6.626   8.128  4.1453  1.3807 -0.7885
21370SOL    HW269431   7.329   6.485   8.092 -1.2391 -0.5081 -0.1388
21371SOL     OW69432   4.470   9.178   0.504 -0.1458 -0.0987 -0.1457
21371SOL    HW169433   4.454   9.261   0.550  2.7226  0.5623 -0.1659
21371SOL    HW269434   4.434   9.112   0.562 -1.6127  1.0799  0.3502
21372SOL     OW69435   9.909   3.793   0.493  0.3310 -0.7750  0.2806
21372SOL    HW169436   9.957   3.874   0.485  1.0067 -0.8580  2.9156
21372SOL    HW269437   9.973   3.724   0.473  0.1291 -0.7406 -0.5262
21373SOL     OW69438  10.150   8.030   9.901 -0.3711  0.0549  0.4780
21373SOL    HW169439  10.087   8.009   9.970 -0.3696  1.6471  0.9976
21373SOL    HW269440  10.234   8.033   9.945 -0.1787 -0.2799  0.1355
21374SOL     OW69441  11.084   0.309   3.562  0.3966  0.5315  0.2868
21374SOL    HW169442  11.089   0.294   3.657  0.7356  3.3338  0.8249
21374SOL    HW269443  11.011   0.369   3.551  0.0066 -0.1934 -1.3352
21375SOL     OW69444   4.276   1.198   0.888  0.2470 -0.2672 -0.1810
21375SOL    HW169445   4.245   1.279   0.848  1.6421  0.7070  0.6492
21375SOL    HW269446   4.247   1.203   0.979  0.2514 -0.7607 -0.1481
21376SOL     OW69447   6.948  11.067   8.543  0.0127  0.4297  0.3052
21376SOL    HW169448   6.972  10.988   8.494 -1.2482  0.1174  0.1504
21376SOL    HW269449   6.905  11.123   8.478  1.5854  1.6219  0.2211
21377SOL     OW69450   9.675  11.779   0.785  0.3047 -0.3098  0.0937
21377SOL    HW169451   9.628  11.848   0.739  1.2962  0.7800  0.6562
21377SOL    HW269452   9.641  11.698   0.748  1.1361  0.4921 -2.6765
21378SOL     OW69453  10.925  11.156   4.450 -0.8812  0.0346  0.2914
21378SOL    HW169454  10.949  11.197   4.533 -1.2053 -1.1012  0.9766
21378SOL    HW269455  11.007  11.150   4.402 -0.2099 -1.4364  1.5339
21379SOL     OW69456   0.367   7.314   0.080 -0.1514 -0.0332 -0.1194
21379SOL    HW169457   0.291   7.363   0.110  0.1846 -0.1725  0.9885
21379SOL    HW269458   0.402   7.366   0.008 -1.8698 -0.4803 -1.3447
21380SOL     OW69459   3.765   1.773  10.296  0.4085 -0.2744  0.1114
21380SOL    HW169460   3.761   1.861  10.258  0.2323 -0.1584  0.3953
21380SOL    HW269461   3.767   1.714  10.220  0.3198 -0.0342 -0.0791
21381SOL     OW69462   8.941  10.836   0.196 -0.0558 -0.6927  0.1498
21381SOL    HW169463   8.940  10.928   0.170 -0.1944 -0.3822  1.1855
21381SOL    HW269464   8.900  10.789   0.124  0.0984  0.0494 -0.4237
21382SOL     OW69465  11.707   0.794   4.118  0.3128 -0.4780 -0.1876
21382SOL    HW169466  11.780   0.767   4.062 -0.2959 -1.5553 -0.4969
21382SOL    HW269467  11.743   0.796   4.206  1.1089  0.5540 -0.5266
21383SOL     OW69468   0.717   0.044   1.545 -0.2720  0.5835  0.4087
21383SOL    HW169469   0.650  -0.013   1.583  0.8535 -1.1633 -0.1442
21383SOL    HW269470   0.705   0.036   1.451  2.4707 -2.1471  0.1317
21384SOL     OW69471   3.087   1.885   6.813 -0.1536 -0.3494 -0.2785
21384SOL    HW169472   3.163   1.943   6.818  0.3381 -1.0001 -0.0399
21384SOL    HW269473   3.044   1.894   6.898 -1.1016  1.0077 -0.8684
21385SOL     OW69474   0.736   5.836   1.790  0.0994  0.4362  0.4832
21385SOL    HW169475   0.664   5.885   1.751  0.6303  1.4891  0.7720
21385SOL    HW269476   0.735   5.861   1.882  1.5058  1.3604  0.2847
21386SOL     OW69477   8.961   6.129  11.724  0.5884 -0.8979 -0.2854
21386SOL    HW169478   8.950   6.041  11.759 -1.7408 -1.2924 -1.7812
21386SOL    HW269479   9.004   6.116  11.639  0.9526 -0.5131 -0.1647
21387SOL     OW69480   1.295  10.048  10.164  0.1587  0.0688 -0.3262
21387SOL    HW169481   1.261   9.999  10.238 -0.6424  0.4061 -0.4621
21387SOL    HW269482   1.222  10.102  10.135  0.4619 -0.0555 -1.3653
21388SOL     OW69483   2.753   6.482   8.324 -0.5159 -0.2138  0.1294
21388SOL    HW169484   2.712   6.507   8.406 -1.4283  0.3188 -0.4746
21388SOL    HW269485   2.807   6.557   8.300 -0.7588 -0.1032 -0.0789
21389SOL     OW69486   5.310  11.026   0.667 -0.2101 -0.3723  0.0751
21389SOL    HW169487   5.234  10.973   0.641  0.2240 -1.1661  0.3701
21389SOL    HW269488   5.360  10.968   0.726 -0.4404  0.8604  1.5420
21390SOL     OW69489   5.978   1.126   9.492  0.2289  0.0175  0.8346
21390SOL    HW169490   5.929   1.175   9.427  0.3397 -0.2877  0.5150
21390SOL    HW269491   5.974   1.180   9.571 -2.8449 -1.1565  1.6364
21391SOL     OW69492   3.439   6.801  10.324 -0.0619  0.4618 -0.1865
21391SOL    HW169493   3.463   6.743  10.252  1.4132 -0.3131  0.8697
21391SOL    HW269494   3.378   6.864  10.285 -0.5812 -0.9169 -1.6952
21392SOL     OW69495   8.857   2.019   4.363 -0.2713 -0.1960 -0.0821
21392SOL    HW169496   8.783   2.060   4.319 -0.5947  0.0241  0.6430
21392SOL    HW269497   8.820   1.939   4.402 -0.0348 -0.2998 -0.0700
21393SOL     OW69498  10.915   4.263  11.252  0.1889  0.1413  0.0027
21393SOL    HW169499  10.972   4.241  11.326  0.1336 -2.2812 -0.6042
21393SOL    HW269500  10.842   4.310  11.292  0.8151  0.0522  1.3040
21394SOL     OW69501   5.554   7.913   0.765  0.3530 -0.2423  0.4296
21394SOL    HW169502   5.509   7.877   0.841  1.0925 -0.7123  0.6588
21394SOL    HW269503   5.632   7.955   0.802 -1.0418  2.6968  0.3267
21395SOL     OW69504   5.806  10.561   9.492 -0.4967 -0.2518 -0.1027
21395SOL    HW169505   5.747  10.601   9.556  1.4875  1.4445  0.7764
21395SOL    HW269506   5.861  10.502   9.544  0.7662  0.7252 -0.2693
21396SOL     OW69507   6.840   3.158   9.397 -0.1302  0.0703 -0.3455
21396SOL    HW169508   6.890   3.227   9.440  1.3889 -1.2225  0.0639
21396SOL    HW269509   6.905   3.111   9.344 -1.0622 -1.2207 -0.3939
21397SOL     OW69510   8.277   3.407  11.257 -0.3946  0.0255 -0.0778
21397SOL    HW169511   8.187   3.430  11.236 -0.3514  1.7585  1.4154
21397SOL    HW269512   8.322   3.491  11.268  0.6169 -0.7323  2.3346
21398SOL     OW69513  10.078   7.574   4.295 -0.6159  0.0372  0.1528
21398SOL    HW169514  10.000   7.615   4.257 -0.5803  0.8022  0.8787
21398SOL    HW269515  10.091   7.619   4.378 -0.8437 -1.7935  1.2251
21399SOL     OW69516   9.576   4.428   4.215 -0.0833  0.0127 -0.0808
21399SOL    HW169517   9.641   4.443   4.147  0.3573  0.1786  0.3756
21399SOL    HW269518   9.492   4.448   4.173  0.0731 -0.9658 -0.9138
21400SOL     OW69519   0.932  11.213   5.792 -0.6811  0.4706  0.1050
21400SOL    HW169520   0.929  11.129   5.747  0.9791  1.0187 -1.1583
21400SOL    HW269521   0.842  11.231   5.817 -1.1922 -1.2713 -0.3602
21401SOL     OW69522   2.360  10.465   4.411 -0.4119  0.1056  0.1839
21401SOL    HW169523   2.380  10.518   4.334  1.1648 -1.3402 -0.4578
21401SOL    HW269524   2.321  10.527   4.473 -0.7360  1.5181 -1.3609
21402SOL     OW69525  11.785  11.284   2.862 -0.4270 -0.0933  0.1599
21402SOL    HW169526  11.690  11.288   2.854 -0.6858 -3.0598  0.8223
21402SOL    HW269527  11.803  11.201   2.906  2.5866 -1.3718 -2.9449
21403SOL     OW69528   7.014   9.220   4.839  0.0032  0.1078 -0.3878
21403SOL    HW169529   7.020   9.129   4.867  0.8445  0.5900  1.0992
21403SOL    HW269530   6.925   9.247   4.863  1.2505  1.1034  4.0418
21404SOL     OW69531   5.297   7.592   7.663  0.2508  0.1934  0.2239
21404SOL    HW169532   5.341   7.667   7.705  0.3217  0.1005  0.3152
21404SOL    HW269533   5.368   7.530   7.646  0.0368 -0.2924  1.0920
21405SOL     OW69534   5.271   6.332   3.086  0.6045 -0.3926 -0.2513
21405SOL    HW169535   5.354   6.296   3.055  0.4375 -1.9059  0.9673
21405SOL    HW269536   5.221   6.257   3.117 -1.4006  0.4267 -1.2745
21406SOL     OW69537   2.889  10.300   8.605  0.2766  0.2657 -0.1805
21406SOL    HW169538   2.957  10.357   8.570  1.2144 -1.4523 -1.3093
21406SOL    HW269539   2.856  10.253   8.529 -0.4322 -0.7198  0.7079
21407SOL     OW69540   7.594   5.507   5.612  0.1010 -0.1027  0.5072
21407SOL    HW169541   7.659   5.489   5.680 -0.9135  1.0771  1.8336
21407SOL    HW269542   7.601   5.601   5.595 -0.0952 -0.2629 -0.5963
21408SOL     OW69543  10.315   0.531   3.663  0.6494 -0.6940 -0.1864
21408SOL    HW169544  10.250   0.511   3.596  0.4549  3.9054 -1.7408
21408SOL    HW269545  10.398   0.539   3.615  1.5741 -2.2195  1.0569
21409SOL     OW69546   6.858   4.869   5.430  0.6966  0.5249  0.4921
21409SOL    HW169547   6.807   4.907   5.501  0.1854 -0.2380  0.5408
21409SOL    HW269548   6.804   4.880   5.352  1.4978  1.8760  0.0954
21410SOL     OW69549   0.897   3.778   8.101 -0.1485  0.6065  0.3635
21410SOL    HW169550   0.960   3.707   8.113 -2.5056 -1.5702  0.6688
21410SOL    HW269551   0.903   3.800   8.008 -0.3949 -1.0577 -0.0711
21411SOL     OW69552   8.196   9.604  10.294  0.0296  0.2562 -0.0145
21411SOL    HW169553   8.120   9.648  10.332  0.7930 -0.0859  2.0616
21411SOL    HW269554   8.178   9.510  10.305 -0.4831  0.0545 -2.1457
21412SOL     OW69555   1.493   3.704   3.211 -0.2476 -0.0713  0.0272
21412SOL    HW169556   1.523   3.613   3.205  0.2030 -0.0532  1.5381
21412SOL    HW269557   1.486   3.733   3.120 -0.4269 -1.6179 -0.4894
21413SOL     OW69558   8.935   8.314   2.394 -0.1425 -0.3009  0.1060
21413SOL    HW169559   8.986   8.329   2.314  0.1035 -0.3103  0.2633
21413SOL    HW269560   8.846   8.299   2.362 -0.2130  0.5562 -0.1193
21414SOL     OW69561   6.395   9.270   7.334 -0.0412 -0.1251 -0.0600
21414SOL    HW169562   6.348   9.295   7.413 -2.6040  0.4196 -1.6501
21414SOL    HW269563   6.358   9.325   7.265  1.6215 -1.0330 -1.7709
21415SOL     OW69564   7.294   0.828  10.635  0.2557 -0.1347 -0.3278
21415SOL    HW169565   7.271   0.846  10.726  0.1483 -1.8804  0.0289
21415SOL    HW269566   7.306   0.733  10.632 -1.0377 -0.3022 -2.4020
21416SOL     OW69567   3.024   3.808   9.434 -0.2053  0.3755 -0.4114
21416SOL    HW169568   3.066   3.892   9.449  0.7104  0.1132 -1.3706
21416SOL    HW269569   3.067   3.748   9.495 -0.3831  0.4652 -0.1992
21417SOL     OW69570  10.752   3.995  10.098  0.0512 -0.1751 -0.2416
21417SOL    HW169571  10.693   3.978  10.024 -1.7272  0.2427  1.0205
21417SOL    HW269572  10.707   3.956  10.173  0.8337  1.1746  0.9640
21418SOL     OW69573   4.865   6.655   4.779 -0.0905 -0.7103 -0.0023
21418SOL    HW169574   4.808   6.705   4.721  0.5501  2.2991  1.7832
21418SOL    HW269575   4.940   6.712   4.795 -0.3618 -1.2171  3.9515
21419SOL     OW69576   4.629   7.621   0.804 -0.3602  0.7036 -0.0273
21419SOL    HW169577   4.695   7.653   0.865 -0.1268  0.0732  0.0530
21419SOL    HW269578   4.670   7.548   0.759 -0.1100  1.8947 -1.8126
21420SOL     OW69579   4.161   6.476   7.402  0.2010 -0.2242  0.6932
21420SOL    HW169580   4.113   6.397   7.425  1.3956 -1.0314  0.5110
21420SOL    HW269581   4.237   6.444   7.353  1.2996  0.9434  1.5831
21421SOL     OW69582   6.811   9.196   5.502  0.0497 -0.0059  1.1090
21421SOL    HW169583   6.814   9.242   5.418  1.3679 -0.1890  1.0341
21421SOL    HW269584   6.746   9.243   5.553 -1.1862 -0.2323 -0.2124
21422SOL     OW69585  11.234  11.416   9.908 -0.3875  0.2642  0.9388
21422SOL    HW169586  11.330  11.414   9.909 -0.3573  0.3755 -0.3242
21422SOL    HW269587  11.209  11.336   9.955  0.3391 -0.0702  0.7845
21423SOL     OW69588  11.625   0.907   7.633  0.8979 -0.2398 -0.0733
21423SOL    HW169589  11.546   0.855   7.650  0.6349  0.5416  1.2651
21423SOL    HW269590  11.618   0.931   7.541  0.2673 -1.3097 -0.3259
21424SOL     OW69591   9.567   7.798   8.260  0.7486 -0.2146  0.4303
21424SOL    HW169592   9.508   7.725   8.243 -0.8655  1.1393 -0.1412
21424SOL    HW269593   9.649   7.758   8.290 -0.5745 -2.1676  1.6253
21425SOL     OW69594   8.260  10.055   4.598  0.2510 -0.3769 -0.0217
21425SOL    HW169595   8.209   9.974   4.597  0.6936 -0.7240  1.8958
21425SOL    HW269596   8.195  10.125   4.595 -0.2163 -0.8137 -0.1012
21426SOL     OW69597   4.798  10.611   4.344 -0.5272 -0.1022  0.1731
21426SOL    HW169598   4.706  10.614   4.318 -0.0037 -1.0006 -1.9792
21426SOL    HW269599   4.822  10.703   4.354 -1.5124  0.1697  0.1701
21427SOL     OW69600   3.733   7.818   1.614 -0.2433 -0.0151  0.1000
21427SOL    HW169601   3.678   7.749   1.651 -0.2784  0.4541  0.9418
21427SOL    HW269602   3.704   7.825   1.523 -1.1998 -0.1470  0.3837
21428SOL     OW69603   0.022   1.479   5.104 -0.3011  0.2313  0.2475
21428SOL    HW169604   0.105   1.484   5.055 -0.8860  1.1317 -0.6863
21428SOL    HW269605  -0.002   1.386   5.100 -0.2877  0.2662 -1.1083
21429SOL     OW69606   4.403   1.590  11.426  0.3084 -0.4000  0.1162
21429SOL    HW169607   4.447   1.547  11.352 -0.7858  0.8814 -1.3487
21429SOL    HW269608   4.465   1.657  11.454  0.1833 -0.0114 -0.5242
21430SOL     OW69609  10.406  10.849   2.356  0.1443 -0.9571 -0.8615
21430SOL    HW169610  10.317  10.824   2.380  0.4370 -1.3008 -0.1053
21430SOL    HW269611  10.400  10.943   2.339 -0.5586 -1.1593 -1.7857
21431SOL     OW69612   0.309   8.935  11.416 -0.3655  0.3314 -0.0865
21431SOL    HW169613   0.234   8.993  11.399 -0.8711 -0.2366  0.1499
21431SOL    HW269614   0.307   8.874  11.342  0.2795  0.7288 -0.4342
21432SOL     OW69615   2.114   4.809  10.955 -0.5254  0.2770 -0.7971
21432SOL    HW169616   2.175   4.882  10.964 -0.3665 -0.0174  0.6252
21432SOL    HW269617   2.142   4.765  10.875  0.7902  0.4542 -0.4609
21433SOL     OW69618   4.511   0.111   1.011  0.1598 -0.1475 -0.2610
21433SOL    HW169619   4.424   0.137   0.982 -0.4700 -0.3153  1.3716
21433SOL    HW269620   4.567   0.186   0.991 -0.2387 -0.2226 -1.7569
21434SOL     OW69621   2.425   0.415   1.138 -0.1757  0.2600  0.4443
21434SOL    HW169622   2.391   0.430   1.050  0.7620 -0.6791 -0.1003
21434SOL    HW269623   2.506   0.366   1.124 -1.1855 -1.9836  1.9315
21435SOL     OW69624   6.747   7.047   0.244 -0.5138  0.2740 -0.2316
21435SOL    HW169625   6.796   7.055   0.325 -0.0592 -0.2242 -0.4513
21435SOL    HW269626   6.811   7.018   0.179 -0.3402  2.9300 -1.3486
21436SOL     OW69627  10.524   9.479   0.039 -0.0323  0.3209  0.6044
21436SOL    HW169628  10.520   9.569   0.071  1.3837  0.7703 -0.3864
21436SOL    HW269629  10.504   9.485  -0.054  0.1739 -0.3764  0.5063
21437SOL     OW69630   3.561   8.758   6.262  0.6133 -0.4718 -0.2397
21437SOL    HW169631   3.481   8.787   6.219  0.8684 -0.7603 -0.9199
21437SOL    HW269632   3.574   8.668   6.233  0.2962 -1.0029  1.1830
21438SOL     OW69633   6.363   1.170   9.399 -0.1753 -0.1519 -0.0125
21438SOL    HW169634   6.458   1.166   9.399 -0.1401  0.2394  1.5500
21438SOL    HW269635   6.342   1.256   9.363  0.1072  0.3323  0.9716
21439SOL     OW69636  10.052   5.634   5.035 -0.5079 -0.0381 -0.4059
21439SOL    HW169637  10.001   5.709   5.064 -1.3047 -1.4482  2.1144
21439SOL    HW269638  10.017   5.614   4.948 -2.1734  0.8462  0.0185
21440SOL     OW69639  11.018   3.756   5.191 -0.5149 -0.5713 -0.5425
21440SOL    HW169640  11.057   3.701   5.123  0.3913  1.5818 -1.8496
21440SOL    HW269641  11.091   3.806   5.227 -1.5943  1.3309 -0.9058
21441SOL     OW69642   5.447   8.890   0.941 -0.2701 -0.6498  0.1652
21441SOL    HW169643   5.483   8.829   1.005 -1.7797 -1.7099  0.0554
21441SOL    HW269644   5.404   8.958   0.993  1.2804  0.2784  0.2848
21442SOL     OW69645   8.203  10.742   2.833  0.2831  0.0050  1.3803
21442SOL    HW169646   8.151  10.806   2.785  0.1253 -0.0299  1.5032
21442SOL    HW269647   8.148  10.717   2.907  0.2470 -0.4381  1.2072
21443SOL     OW69648   2.451   6.054   6.252  0.1047 -0.6653  0.2441
21443SOL    HW169649   2.388   6.051   6.179 -0.6836 -0.0262  0.8816
21443SOL    HW269650   2.437   5.972   6.299  0.4473 -0.9696 -0.1738
21444SOL     OW69651   4.819   7.594  11.662 -0.2445  0.6571 -0.3800
21444SOL    HW169652   4.756   7.662  11.639 -1.0311 -0.0511 -0.3528
21444SOL    HW269653   4.855   7.622  11.747 -0.2630  1.2381 -0.5630
21445SOL     OW69654   5.451  10.880   9.825  0.3665 -0.1567  0.3403
21445SOL    HW169655   5.401  10.959   9.844 -1.3584 -1.0977 -0.0645
21445SOL    HW269656   5.448  10.872   9.729  1.2019 -0.3066  0.3179
21446SOL     OW69657   1.347  10.382   8.906 -0.1198 -0.6099 -0.0277
21446SOL    HW169658   1.278  10.444   8.930 -0.2119 -0.8945  0.4675
21446SOL    HW269659   1.303  10.297   8.904 -1.0394 -0.2872 -4.9584
21447SOL     OW69660   9.850   9.634   5.108  0.4787 -0.2342  0.5105
21447SOL    HW169661   9.919   9.583   5.151  1.0137  0.5623  0.6176
21447SOL    HW269662   9.857   9.721   5.147 -0.7835 -0.2052  0.7373
21448SOL     OW69663  10.473   9.650   1.677  0.0290  0.1256 -0.2143
21448SOL    HW169664  10.444   9.685   1.592  1.1540  1.8491  0.0664
21448SOL    HW269665  10.506   9.562   1.657  0.5590  0.6236 -1.6277
21449SOL     OW69666   6.798   6.639   9.701 -0.4866 -0.1981 -0.6085
21449SOL    HW169667   6.794   6.546   9.681 -1.3486 -0.3032 -0.0207
21449SOL    HW269668   6.887   6.666   9.677 -0.2094 -1.1836 -0.7089
21450SOL     OW69669  11.121   2.175   5.403 -0.1443 -0.2547  0.8683
21450SOL    HW169670  11.071   2.179   5.321 -1.0545 -0.5598  1.3993
21450SOL    HW269671  11.190   2.241   5.392 -0.1694 -0.3838 -0.1968
21451SOL     OW69672   6.578   0.540   7.458 -0.0654  0.3057  0.4462
21451SOL    HW169673   6.646   0.485   7.419 -0.2940  0.0800  0.3673
21451SOL    HW269674   6.573   0.616   7.401  1.8669  1.5309  1.7903
21452SOL     OW69675   1.499   1.594   0.896 -0.0722 -0.0635  0.2811
21452SOL    HW169676   1.588   1.592   0.930  0.4360  1.5958 -0.8260
21452SOL    HW269677   1.461   1.510   0.922  1.8718 -0.8935  0.5870
21453SOL     OW69678   0.057   0.038  10.357  0.3669  0.2111  0.0456
21453SOL    HW169679   0.040   0.014  10.266  1.5301 -0.6357  0.0367
21453SOL    HW269680   0.003  -0.022  10.408  0.8155 -0.2694 -0.0485
21454SOL     OW69681   4.321   9.912   9.126  0.3060 -0.3090  0.3953
21454SOL    HW169682   4.245   9.904   9.069 -1.2020 -2.5873  2.5182
21454SOL    HW269683   4.322   9.831   9.177  2.8686  0.6235  2.0456
21455SOL     OW69684   8.498   9.324   9.599  0.3509  0.4292  0.1856
21455SOL    HW169685   8.428   9.279   9.647  0.8675  0.0386  0.5822
21455SOL    HW269686   8.470   9.321   9.507  0.6169 -1.1891  0.1271
21456SOL     OW69687   8.110   5.813   4.562  0.0539  0.1405 -0.0942
21456SOL    HW169688   8.194   5.808   4.608 -0.3525  1.1589  0.7681
21456SOL    HW269689   8.117   5.891   4.507  0.5166 -1.0206 -1.8044
21457SOL     OW69690   4.923   1.496   4.148  0.3283  0.2097  0.6087
21457SOL    HW169691   4.901   1.581   4.187 -0.7148  0.3505 -0.2612
21457SOL    HW269692   4.983   1.456   4.211  0.2979  1.3036  1.3557
21458SOL     OW69693  11.622   8.885   3.548  0.0493  0.1501 -0.5850
21458SOL    HW169694  11.653   8.960   3.498  0.7488  0.6737  0.5689
21458SOL    HW269695  11.701   8.850   3.590 -0.5597  0.0146  0.5013
21459SOL     OW69696   7.901   0.964   9.313  0.0338 -0.0699  0.4195
21459SOL    HW169697   7.882   0.886   9.365  0.3829 -0.3529  0.1200
21459SOL    HW269698   7.829   0.969   9.250  0.3961 -0.5619 -0.0372
21460SOL     OW69699   8.034  10.270   1.841  0.1956 -0.3323  0.3539
21460SOL    HW169700   8.120  10.235   1.817 -0.8338 -2.2449 -0.8488
21460SOL    HW269701   7.974  10.227   1.780 -1.6964  0.4677  1.5800
21461SOL     OW69702   7.917  10.608   3.787 -0.9807 -0.0879  0.0309
21461SOL    HW169703   7.999  10.655   3.778  0.3873 -2.1811  0.9130
21461SOL    HW269704   7.885  10.632   3.874  0.1053 -1.3127  0.7967
21462SOL     OW69705   2.887   1.023   4.356  0.2436  0.3938 -0.2380
21462SOL    HW169706   2.898   1.117   4.340  1.3197  0.6480  1.6878
21462SOL    HW269707   2.807   1.017   4.409  0.3500  0.2641 -0.0922
21463SOL     OW69708   5.809   8.177   3.827  0.0037 -0.9861 -0.2085
21463SOL    HW169709   5.714   8.185   3.817 -0.0026 -0.3264  0.2805
21463SOL    HW269710   5.824   8.183   3.921  0.6981  1.2877 -0.4050
21464SOL     OW69711   1.838  11.121   3.912 -0.0039 -0.1088 -0.0279
21464SOL    HW169712   1.768  11.143   3.974  0.5863 -0.7679  0.8787
21464SOL    HW269713   1.893  11.059   3.958  0.9002 -0.0047 -0.9338
21465SOL     OW69714  10.501  11.599   5.234 -0.1692  0.1847 -0.1973
21465SOL    HW169715  10.438  11.541   5.276  0.2502 -0.9953 -1.1422
21465SOL    HW269716  10.584  11.581   5.279 -0.2477  0.8372  0.2189
21466SOL     OW69717   0.480   5.765   2.435  0.2069 -0.2620 -0.4026
21466SOL    HW169718   0.403   5.802   2.478  0.5188  0.1504 -0.1916
21466SOL    HW269719   0.554   5.802   2.483  0.6127  1.4504 -2.2448
21467SOL     OW69720   0.350   6.533   1.380  0.5072 -0.4896  0.2442
21467SOL    HW169721   0.362   6.613   1.432 -1.7393  1.3091 -1.7568
21467SOL    HW269722   0.439   6.504   1.360  1.4109  1.2187  1.4518
21468SOL     OW69723   5.243   9.950   3.804  0.1763 -0.0460  0.5992
21468SOL    HW169724   5.212   9.932   3.716  0.1075 -2.1103  0.9939
21468SOL    HW269725   5.335   9.921   3.803 -0.0604 -0.8806  1.3951
21469SOL     OW69726   9.958   1.585   8.633 -0.6663  0.7694 -0.4727
21469SOL    HW169727   9.943   1.532   8.711 -0.2202 -0.0371 -0.9275
21469SOL    HW269728  10.020   1.652   8.661 -0.3576  0.3678 -0.1887
21470SOL     OW69729  11.295   0.376   7.450 -0.9826 -0.1578  0.7040
21470SOL    HW169730  11.304   0.444   7.384 -0.7616  0.0478  0.9467
21470SOL    HW269731  11.315   0.294   7.404 -3.5717 -0.3693 -0.2141
21471SOL     OW69732   8.263   0.258   2.559  0.0136 -0.5297  0.3631
21471SOL    HW169733   8.245   0.167   2.534 -0.0207 -0.3069 -0.4596
21471SOL    HW269734   8.220   0.310   2.491  0.9332  0.0765  0.2270
21472SOL     OW69735   5.175   3.610   6.504  0.5117  0.2714  0.1767
21472SOL    HW169736   5.200   3.565   6.424  0.2497  0.4021  0.0219
21472SOL    HW269737   5.194   3.702   6.488  2.3257  0.0717  0.9823
21473SOL     OW69738   9.743   2.849   1.331  0.8148 -0.0492 -0.6240
21473SOL    HW169739   9.693   2.927   1.307 -0.9720 -1.0649 -0.3805
21473SOL    HW269740   9.820   2.852   1.275 -0.4681  0.5783 -2.4384
21474SOL     OW69741   8.601   7.857   7.759 -0.4608 -0.4782 -0.0013
21474SOL    HW169742   8.619   7.906   7.839  0.0415  1.5941 -1.3186
21474SOL    HW269743   8.519   7.893   7.726  0.2775  0.0022 -1.3672
21475SOL     OW69744  10.294   8.996   2.337 -0.4855  0.6222  0.3943
21475SOL    HW169745  10.375   9.040   2.359  0.3411 -1.2391  1.3242
21475SOL    HW269746  10.239   9.006   2.414 -0.6337  0.7758  0.2698
21476SOL     OW69747   7.813   0.988   1.352  0.2424  0.7387 -0.9125
21476SOL    HW169748   7.814   0.904   1.397  2.2824  0.5858 -1.1755
21476SOL    HW269749   7.721   1.001   1.329 -0.1570 -1.2890 -0.6625
21477SOL     OW69750   8.126   2.723   5.200  0.3870 -0.2711  0.9321
21477SOL    HW169751   8.127   2.818   5.192  0.3286 -0.3593 -0.2703
21477SOL    HW269752   8.054   2.694   5.143  0.1726 -1.0150  1.5569
21478SOL     OW69753   9.691   3.485   9.745 -0.1583 -0.3036 -0.0415
21478SOL    HW169754   9.776   3.522   9.722 -0.7612  1.0895 -0.0873
21478SOL    HW269755   9.632   3.515   9.676 -0.6393 -1.5360 -0.1959
21479SOL     OW69756  11.712   2.076  10.037 -0.5033 -0.1443  0.2308
21479SOL    HW169757  11.714   2.037  10.124 -2.3098  1.3132  0.9888
21479SOL    HW269758  11.619   2.079  10.014 -0.1265  0.2953 -1.3778
21480SOL     OW69759   6.542   7.228  11.737 -0.0595  0.2672 -0.3200
21480SOL    HW169760   6.635   7.252  11.747 -0.4026  0.8935  1.9217
21480SOL    HW269761   6.501   7.308  11.704  0.2309 -0.1343 -1.7111
21481SOL     OW69762   1.478   7.774   6.232 -0.3587  0.1457  0.2298
21481SOL    HW169763   1.385   7.753   6.242  0.0974 -2.5388 -0.3774
21481SOL    HW269764   1.523   7.711   6.288  1.1231  1.9703  1.2052
21482SOL     OW69765   3.527   1.233   4.717  0.2207  0.2408  0.0457
21482SOL    HW169766   3.589   1.233   4.791 -1.0979 -2.1739  1.2637
21482SOL    HW269767   3.569   1.179   4.651 -0.3113 -0.9713  0.6706
21483SOL     OW69768   6.624   5.946   8.337  0.0818  0.3867 -0.1101
21483SOL    HW169769   6.654   5.910   8.253  0.2163  0.8518 -0.2621
21483SOL    HW269770   6.679   5.903   8.402 -0.8121 -0.8767 -0.1445
21484SOL     OW69771   2.140   1.306  11.778  0.6320 -0.2442  0.0978
21484SOL    HW169772   2.232   1.332  11.782  0.5494  0.1100 -0.1920
21484SOL    HW269773   2.138   1.231  11.719  0.6035  0.3757 -0.6925
21485SOL     OW69774   8.233   2.305   8.016  0.1795  0.2671  0.0741
21485SOL    HW169775   8.216   2.362   8.091 -1.2073  1.3184 -0.9576
21485SOL    HW269776   8.146   2.275   7.989  0.5911  0.2283 -1.3154
21486SOL     OW69777   3.496   0.233   4.961  0.2444 -0.0530 -0.1724
21486SOL    HW169778   3.479   0.245   4.868 -3.2775  0.1867  0.3725
21486SOL    HW269779   3.516   0.321   4.993  3.3872 -0.3807 -0.8792
21487SOL     OW69780   2.589   1.818   4.496 -0.1571 -0.1941  0.0401
21487SOL    HW169781   2.623   1.740   4.540  3.1581  2.3614  2.5332
21487SOL    HW269782   2.638   1.823   4.414  0.1318 -0.3632  0.2010
21488SOL     OW69783  10.429   6.057   9.042  0.2142 -0.0309  0.0116
21488SOL    HW169784  10.449   6.057   9.135 -1.1057  1.5988  0.3424
21488SOL    HW269785  10.383   5.974   9.027 -0.9848  0.3965  1.1634
21489SOL     OW69786   0.877   6.864   8.456  0.1648  0.2428  0.3946
21489SOL    HW169787   0.928   6.830   8.383 -0.6103 -1.0504  0.4218
21489SOL    HW269788   0.905   6.813   8.532  0.0827  0.7251  0.7583
21490SOL     OW69789   4.158   8.242   7.254 -0.2084 -0.1761 -0.4531
21490SOL    HW169790   4.224   8.195   7.204  0.3950  0.5953 -0.3964
21490SOL    HW269791   4.170   8.334   7.230 -1.8567 -0.0997 -1.1467
21491SOL     OW69792   8.104   3.820  11.712  0.1514 -0.3138  0.0448
21491SOL    HW169793   8.093   3.806  11.807 -0.6371  1.9795  0.3351
21491SOL    HW269794   8.026   3.868  11.685  0.6355 -0.4340 -1.6923
21492SOL     OW69795  11.200   6.724   8.863  0.0979  0.6283 -0.6595
21492SOL    HW169796  11.128   6.774   8.902 -0.0226 -1.0096  1.4076
21492SOL    HW269797  11.272   6.786   8.859 -1.1563  2.0926 -2.0585
21493SOL     OW69798   9.110   1.255   1.544  0.3140  0.3261  0.0351
21493SOL    HW169799   9.135   1.329   1.489 -0.4980  0.5428 -0.0629
21493SOL    HW269800   9.025   1.280   1.580 -0.0725 -0.6483 -0.1725
21494SOL     OW69801   8.871   9.126   1.604 -0.2327 -0.1589 -0.5054
21494SOL    HW169802   8.937   9.058   1.616  0.2079 -0.1344 -2.3914
21494SOL    HW269803   8.819   9.095   1.530 -1.5172  0.4565  0.1085
21495SOL     OW69804   3.269   2.941   6.645 -0.0013  0.1942  0.8660
21495SOL    HW169805   3.292   3.033   6.634 -0.3070  0.1508 -0.2369
21495SOL    HW269806   3.176   2.937   6.623 -0.0512 -0.3359  1.1643
21496SOL     OW69807   5.734   0.355  11.003 -0.0820  0.5771  0.2500
21496SOL    HW169808   5.767   0.303  10.929  1.5864  1.3352  0.4152
21496SOL    HW269809   5.676   0.419  10.963  0.2130  0.4966 -0.3184
21497SOL     OW69810   3.387   1.601   4.006  0.2293  0.2770  0.2599
21497SOL    HW169811   3.334   1.548   4.066  0.6498  0.0908  0.4685
21497SOL    HW269812   3.394   1.548   3.927 -0.0696  0.3924  0.1539
21498SOL     OW69813   7.861   9.855   4.488  0.5655 -0.0997 -0.1405
21498SOL    HW169814   7.854   9.877   4.395  1.5365 -0.1063 -0.2268
21498SOL    HW269815   7.771   9.834   4.514  0.1137  0.8560 -0.8371
21499SOL     OW69816   8.174  10.959   2.222  0.1003 -0.1324 -0.6716
21499SOL    HW169817   8.183  10.867   2.197  1.7591 -0.9089  2.3652
21499SOL    HW269818   8.263  10.988   2.242 -0.5157  1.8341 -0.5319
21500SOL     OW69819   8.582   1.289   2.477  0.1845 -0.2192  0.6576
21500SOL    HW169820   8.642   1.362   2.492 -1.2603  1.0380  0.6438
21500SOL    HW269821   8.507   1.329   2.432 -0.7257 -1.6844  0.8137
21501SOL     OW69822   7.192   2.236   8.554 -0.6035  0.1051  0.4003
21501SOL    HW169823   7.275   2.238   8.601 -0.9434 -0.4561  1.0327
21501SOL    HW269824   7.216   2.249   8.462 -0.0053  2.1418  0.7919
21502SOL     OW69825   1.628   1.165   5.052  0.2379 -0.5052  0.7222
21502SOL    HW169826   1.694   1.160   5.122  2.4071 -0.2239 -1.1892
21502SOL    HW269827   1.591   1.253   5.060  0.4748 -0.4661  1.4852
21503SOL     OW69828   6.377  10.745   2.685 -0.8514  0.3077 -0.0108
21503SOL    HW169829   6.408  10.662   2.649  0.9560  0.7316  0.4289
21503SOL    HW269830   6.361  10.800   2.608 -0.5927  0.0310 -0.2662
21504SOL     OW69831  11.647   5.975   9.083  0.5966 -0.2975  0.0558
21504SOL    HW169832  11.624   5.906   9.021 -2.1482 -0.3126  0.9785
21504SOL    HW269833  11.632   6.056   9.034  0.7818 -0.3118 -0.0287
21505SOL     OW69834   1.286  11.595   8.673  0.0077 -0.0869 -0.3813
21505SOL    HW169835   1.346  11.636   8.735 -1.1999  0.8698  0.2092
21505SOL    HW269836   1.342  11.565   8.601  1.0581  2.0400 -0.5368
21506SOL     OW69837  11.219   8.160   5.655 -0.4049  0.4630 -0.2221
21506SOL    HW169838  11.298   8.140   5.706  0.4405  0.1484 -1.6148
21506SOL    HW269839  11.250   8.212   5.581 -0.7509 -2.9944 -3.1118
21507SOL     OW69840   7.835   7.832   7.823 -0.1122 -0.4191 -0.3318
21507SOL    HW169841   7.860   7.757   7.769 -0.1604 -0.3445 -0.4584
21507SOL    HW269842   7.821   7.795   7.910  0.4116 -0.4634 -0.2667
21508SOL     OW69843   2.146   4.391   4.233 -0.5715 -0.2896 -0.4136
21508SOL    HW169844   2.066   4.360   4.275 -0.1437 -1.6369 -0.5586
21508SOL    HW269845   2.115   4.444   4.160 -1.3370 -0.6690 -0.3792
21509SOL     OW69846   6.298   6.374   4.657  0.3060 -0.5251 -0.1027
21509SOL    HW169847   6.357   6.410   4.590 -0.5621  1.1445 -0.0217
21509SOL    HW269848   6.283   6.283   4.630  1.5999 -0.4892 -1.0172
21510SOL     OW69849   9.140  11.366   3.474  0.1926 -0.1681 -0.1852
21510SOL    HW169850   9.095  11.446   3.500  0.0485 -0.1210 -0.5765
21510SOL    HW269851   9.152  11.318   3.556  1.1595  0.6964  0.1983
21511SOL     OW69852   7.066   7.940   3.197  0.0473  0.4814  0.3225
21511SOL    HW169853   6.993   8.003   3.198  0.0971  0.5442  0.1571
21511SOL    HW269854   7.135   7.986   3.148  0.2379  0.4662  0.5790
21512SOL     OW69855   5.137  10.516  10.947  0.6158  0.4274 -0.1430
21512SOL    HW169856   5.112  10.501  10.855  0.9842 -0.3096 -0.1321
21512SOL    HW269857   5.230  10.492  10.950  0.2810 -0.7983  0.7021
21513SOL     OW69858  11.516  11.064   8.406 -0.3666 -0.0958 -0.7661
21513SOL    HW169859  11.500  11.106   8.490  2.7380  0.9153 -0.5436
21513SOL    HW269860  11.490  10.972   8.419 -2.7762  0.6386  0.2404
21514SOL     OW69861   6.027   3.368  11.000  0.3759  0.4210 -0.2928
21514SOL    HW169862   6.013   3.326  11.085 -0.4690  0.0501 -0.6096
21514SOL    HW269863   6.086   3.308  10.953  1.5026  1.0210  0.3139
21515SOL     OW69864   7.877   7.486   9.641  0.0288  0.2040  0.0518
21515SOL    HW169865   7.809   7.467   9.706 -0.7313 -1.2016 -1.1057
21515SOL    HW269866   7.959   7.461   9.684 -0.6339 -2.6323 -0.1497
21516SOL     OW69867   4.896   5.846   2.175  0.1130  0.0315 -0.4276
21516SOL    HW169868   4.834   5.918   2.187  1.0044  0.6635  0.6105
21516SOL    HW269869   4.869   5.781   2.240  0.5906  0.3623  0.1148
21517SOL     OW69870   2.721   6.488   3.418  0.1330 -0.1912  0.1032
21517SOL    HW169871   2.646   6.471   3.362 -1.0039  1.4995  1.0107
21517SOL    HW269872   2.703   6.574   3.458  3.2563  1.0600 -0.7888
21518SOL     OW69873   8.042  10.372   1.457  0.0518 -0.1826  0.2280
21518SOL    HW169874   7.986  10.319   1.400 -0.5402 -0.5285  1.1142
21518SOL    HW269875   7.989  10.449   1.477  0.1232 -0.2237  0.5810
21519SOL     OW69876   3.943   0.627   6.127  0.4970  0.4443 -0.0705
21519SOL    HW169877   4.008   0.618   6.196 -0.0807 -0.7213  0.3420
21519SOL    HW269878   3.994   0.624   6.046  1.0094  0.0842  0.2597
21520SOL     OW69879   2.929   5.968   7.936  0.0012  0.1715  0.4326
21520SOL    HW169880   2.923   6.032   7.865 -0.8844 -0.8492 -0.4398
21520SOL    HW269881   3.022   5.971   7.962  0.3428  0.5682 -0.7529
21521SOL     OW69882   5.054   7.510  11.200 -0.0572  0.0498 -0.0913
21521SOL    HW169883   4.996   7.562  11.256  1.4660  0.1686  1.4568
21521SOL    HW269884   5.055   7.423  11.239 -0.7105 -0.5303 -1.2839
21522SOL     OW69885   9.733   5.468   0.371  0.1023  0.5691  0.4105
21522SOL    HW169886   9.805   5.530   0.354 -1.1401  1.6298 -1.2041
21522SOL    HW269887   9.767   5.384   0.341  0.8546  0.9603  0.1221
21523SOL     OW69888   1.675   3.374   6.043  0.4593  0.2477  0.2181
21523SOL    HW169889   1.599   3.344   5.993  0.4422  1.3205 -0.4340
21523SOL    HW269890   1.732   3.415   5.978  0.8527  0.8739  0.9414
21524SOL     OW69891   8.131   9.391   7.706  0.4179 -0.2828  0.1976
21524SOL    HW169892   8.109   9.309   7.662  0.4623  1.0337 -2.4996
21524SOL    HW269893   8.051   9.444   7.698  0.9177  0.5121  0.4279
21525SOL     OW69894   6.740   4.802   9.023 -0.0843  0.2707 -0.2840
21525SOL    HW169895   6.794   4.805   8.945 -0.3626  0.2385 -0.4776
21525SOL    HW269896   6.692   4.885   9.023 -1.6188 -0.5683 -1.2510
21526SOL     OW69897   3.434  10.007   0.512  0.3034 -0.4389  0.4567
21526SOL    HW169898   3.429  10.053   0.429  2.7476 -1.1672 -0.1735
21526SOL    HW269899   3.344  10.003   0.543 -0.5474  0.6385 -1.7084
21527SOL     OW69900   2.263   9.323   5.669  0.5060 -0.0076  0.2161
21527SOL    HW169901   2.256   9.361   5.581 -0.8834 -0.4451  0.0989
21527SOL    HW269902   2.355   9.300   5.679  0.7124  0.1931 -1.0729
21528SOL     OW69903   8.642   6.856   9.111 -0.2588 -0.2673  0.5696
21528SOL    HW169904   8.629   6.762   9.123  0.7312 -0.8290 -2.0110
21528SOL    HW269905   8.557   6.896   9.133 -0.7807 -1.7864  1.4038
21529SOL     OW69906   4.982   0.063   6.360 -0.2626 -0.4968 -0.0881
21529SOL    HW169907   5.062   0.113   6.340 -0.9405  1.1120  1.0238
21529SOL    HW269908   4.926   0.076   6.284  0.2428 -1.0378 -0.5617
21530SOL     OW69909   4.925   6.194   9.661  0.2744 -0.2245  0.1638
21530SOL    HW169910   4.870   6.250   9.606  2.6816  2.2481  0.0339
21530SOL    HW269911   4.967   6.254   9.723  2.5203 -1.9567  0.4680
21531SOL     OW69912   4.381   8.618   2.035  0.6145  0.0237  0.1529
21531SOL    HW169913   4.469   8.645   2.010  0.8106  0.1529  0.9554
21531SOL    HW269914   4.388   8.594   2.128  0.4421 -2.7457 -0.4896
21532SOL     OW69915   6.679   4.258  11.160 -0.3264 -0.1709 -0.0698
21532SOL    HW169916   6.744   4.190  11.175 -0.8839 -0.8450 -0.6519
21532SOL    HW269917   6.683   4.312  11.239 -0.5343 -1.4187  0.8309
21533SOL     OW69918   0.273   7.413   4.524 -0.0293  0.3461 -0.3211
21533SOL    HW169919   0.204   7.443   4.465 -1.2811  0.1578  0.9876
21533SOL    HW269920   0.232   7.411   4.610  1.0013 -1.7677  0.2016
21534SOL     OW69921   3.854   2.334   3.712 -0.4057  0.4595 -0.2722
21534SOL    HW169922   3.870   2.428   3.705 -1.3876  0.7367  0.8115
21534SOL    HW269923   3.891   2.310   3.797  0.5795 -0.3310 -0.8868
21535SOL     OW69924   6.008   0.320   5.587 -0.1979  0.2812  0.0710
21535SOL    HW169925   5.992   0.245   5.530 -0.6163 -0.0063  0.5500
21535SOL    HW269926   5.931   0.376   5.577 -1.3222 -0.8170  1.9383
21536SOL     OW69927   1.038   2.858   8.706 -0.7458  0.1330 -0.5575
21536SOL    HW169928   1.091   2.800   8.759 -0.0177  1.3894  0.1184
21536SOL    HW269929   1.098   2.893   8.640 -1.0093  0.6345 -0.5407
21537SOL     OW69930  11.732   7.812   3.425  0.7219 -0.0211  0.2430
21537SOL    HW169931  11.806   7.851   3.378  1.2964 -1.9085 -0.5002
21537SOL    HW269932  11.771   7.766   3.499  0.1390  0.2069  0.7014
21538SOL     OW69933   6.802  11.740   0.639 -0.7259 -1.4084  0.5341
21538SOL    HW169934   6.765  11.769   0.722 -0.4114  0.0288  0.1837
21538SOL    HW269935   6.897  11.746   0.651 -0.6808  0.8703 -0.6070
21539SOL     OW69936  10.752   9.209   3.770 -0.3455  0.6502  0.0552
21539SOL    HW169937  10.781   9.131   3.722  0.7247  0.3382  1.1800
21539SOL    HW269938  10.675   9.179   3.819 -0.2763  0.4594  0.0461
21540SOL     OW69939  10.236   9.791  11.136 -0.5313 -0.1195  0.2835
21540SOL    HW169940  10.324   9.806  11.172 -0.7535 -0.9530  1.2098
21540SOL    HW269941  10.188   9.871  11.160 -0.0552  0.3227 -0.1889
21541SOL     OW69942   9.735  11.312   3.993 -0.5184 -0.1587 -0.1648
21541SOL    HW169943   9.830  11.304   3.996 -0.6491 -1.9177  0.4760
21541SOL    HW269944   9.713  11.364   4.071 -0.1242 -0.4027  0.1142
21542SOL     OW69945   4.598  11.220  11.059 -0.3326  0.1912 -0.2115
21542SOL    HW169946   4.596  11.243  10.966  0.1067 -0.2550 -0.3343
21542SOL    HW269947   4.535  11.148  11.068  0.0834 -0.1860 -0.2835
21543SOL     OW69948   7.338  10.507   7.605 -0.2212  0.2696 -0.1715
21543SOL    HW169949   7.331  10.491   7.700 -3.0574  0.4391 -0.2638
21543SOL    HW269950   7.316  10.423   7.565  2.0410 -0.1177 -0.7788
21544SOL     OW69951   4.347   6.013   4.813  0.3833  0.2970  0.0260
21544SOL    HW169952   4.368   5.922   4.794 -2.9217 -0.3493 -1.0521
21544SOL    HW269953   4.345   6.018   4.909  1.1276 -0.5966  0.0996
21545SOL     OW69954   9.713   5.544   1.764  0.4398  0.1635 -0.2278
21545SOL    HW169955   9.808   5.543   1.779  0.2585 -0.7404  0.9661
21545SOL    HW269956   9.693   5.456   1.733 -0.0837  0.1973  0.0101
21546SOL     OW69957   2.689   0.197   0.609  0.1826 -0.5957  0.4180
21546SOL    HW169958   2.641   0.262   0.660 -0.4436 -1.8880  1.5388
21546SOL    HW269959   2.623   0.160   0.551  0.2168 -1.1757  0.7481
21547SOL     OW69960   7.010   3.737   6.379  0.1570 -0.0451  0.7551
21547SOL    HW169961   6.979   3.726   6.469  0.1695  0.0859  0.7757
21547SOL    HW269962   6.932   3.764   6.330  0.2758  0.4974  0.8487
21548SOL     OW69963   4.837   6.376   3.722 -0.1137  0.2375 -0.0965
21548SOL    HW169964   4.761   6.427   3.749 -2.0516 -1.4038 -2.0963
21548SOL    HW269965   4.819   6.352   3.631  1.6480 -2.2541  0.1021
21549SOL     OW69966   2.809   5.356   5.336 -0.5347 -0.8989 -0.1452
21549SOL    HW169967   2.828   5.266   5.363 -0.6350 -0.7392  0.4739
21549SOL    HW269968   2.799   5.404   5.418 -0.0358 -0.2252 -0.4665
21550SOL     OW69969   8.830   2.710   6.197 -0.3225 -0.0785  0.6122
21550SOL    HW169970   8.892   2.669   6.138 -0.2830 -0.3059  0.8070
21550SOL    HW269971   8.867   2.696   6.284  0.1862  1.2225  0.6220
21551SOL     OW69972   7.619  11.576   7.718 -0.1336  0.5972  0.6726
21551SOL    HW169973   7.558  11.649   7.706 -2.5265 -1.2658  0.6760
21551SOL    HW269974   7.599  11.543   7.806  0.8462 -0.1320  0.6326
21552SOL     OW69975   8.032   2.463   0.403  0.7224 -0.2976  0.0279
21552SOL    HW169976   8.061   2.440   0.315  2.4640 -1.8617  0.9360
21552SOL    HW269977   7.943   2.428   0.409  0.5862 -0.1877 -1.0780
21553SOL     OW69978   9.075   4.817   5.249  0.0180 -0.2491  0.2244
21553SOL    HW169979   9.031   4.888   5.296 -0.1880  0.8458 -1.5148
21553SOL    HW269980   9.016   4.796   5.176  1.1189 -0.6304 -0.5937
21554SOL     OW69981   4.049   3.027   3.207  0.2077  0.2750 -0.0859
21554SOL    HW169982   4.030   3.119   3.226  1.0032  0.3543  0.3804
21554SOL    HW269983   3.991   2.978   3.265  1.8156  0.5143  1.8377
21555SOL     OW69984   0.071   9.209   1.721  0.7657  0.6993  0.6108
21555SOL    HW169985  -0.003   9.185   1.777  0.6228 -0.2770  0.0255
21555SOL    HW269986   0.030   9.242   1.641  0.9360 -0.9148 -0.1663
21556SOL     OW69987   9.930   7.277   6.407  0.0444 -0.2009 -0.0231
21556SOL    HW169988   9.889   7.363   6.395 -0.2299 -0.3623 -0.2614
21556SOL    HW269989   9.894   7.223   6.337 -0.8117 -0.8875  0.9225
21557SOL     OW69990  11.217   9.212   7.684  0.3112 -0.3599  0.2042
21557SOL    HW169991  11.217   9.242   7.593  1.0584 -0.9050  0.0213
21557SOL    HW269992  11.240   9.119   7.680  0.6081 -0.3317  0.9658
21558SOL     OW69993   4.074   0.788   0.794 -0.5069 -0.5501  0.5134
21558SOL    HW169994   4.095   0.749   0.879 -2.3250  0.6008  1.5771
21558SOL    HW269995   4.020   0.723   0.750 -1.8029 -0.1132  1.4079
21559SOL     OW69996   6.078   5.408   7.818 -0.5211 -0.4850 -0.5215
21559SOL    HW169997   5.996   5.450   7.842  0.5043  2.4936 -1.7825
21559SOL    HW269998   6.125   5.398   7.901 -1.1101  0.1818 -0.0912
21560SOL     OW69999   8.161   3.167   0.115  0.1336 -0.4787 -0.0254
21560SOL    HW170000   8.073   3.131   0.129  0.3200 -0.5207  1.1316
21560SOL    HW270001   8.181   3.214   0.196  1.9949 -2.1719  0.5684
21561SOL     OW70002   9.741  10.992   0.805  0.2131 -0.7289 -0.0185
21561SOL    HW170003   9.807  10.973   0.872 -0.3228 -1.4588  0.3186
21561SOL    HW270004   9.759  10.928   0.736 -0.9121 -1.7945  0.6333
21562SOL     OW70005   6.933   8.995   3.459 -0.6919 -0.1968 -0.2484
21562SOL    HW170006   6.935   9.085   3.492 -0.7786  0.5477 -2.1102
21562SOL    HW270007   6.959   8.941   3.533  1.2937  1.5281  0.4078
21563SOL     OW70008   7.602   7.182   8.161 -0.3637 -0.3015  0.7629
21563SOL    HW170009   7.521   7.217   8.123 -0.6415  0.3305  1.8934
21563SOL    HW270010   7.574   7.111   8.218 -0.0429 -0.5760  0.5840
21564SOL     OW70011  10.816   0.459   6.887 -0.1161 -0.7457  0.3151
21564SOL    HW170012  10.760   0.462   6.810 -2.6476  1.0781  2.0651
21564SOL    HW270013  10.904   0.445   6.853 -0.3189  4.3777 -3.3954
21565SOL     OW70014   9.798   0.641  11.595  0.2498 -0.7941  0.1984
21565SOL    HW170015   9.839   0.557  11.575 -0.6690 -0.8803 -1.4323
21565SOL    HW270016   9.704   0.627  11.579  0.0335  0.4457  0.2547
21566SOL     OW70017  10.811   3.670   9.064  0.4501  0.6754 -0.1942
21566SOL    HW170018  10.869   3.702   8.994  1.2523 -1.3618 -0.5381
21566SOL    HW270019  10.733   3.639   9.018 -0.5621  2.5288  0.1849
21567SOL     OW70020   2.936   9.997   5.696 -0.2489 -0.1129 -0.1767
21567SOL    HW170021   2.904  10.084   5.675 -0.3859  0.2624  1.4258
21567SOL    HW270022   2.953  10.000   5.790  1.5395 -1.2527 -0.4216
21568SOL     OW70023  11.798   2.546   2.632  0.2078 -0.3239  0.1180
21568SOL    HW170024  11.880   2.501   2.652  0.9354  0.7834 -0.2824
21568SOL    HW270025  11.785   2.531   2.539  1.0870  1.2333 -0.2926
21569SOL     OW70026   2.754   2.092   3.730 -0.0140  0.1501  0.0147
21569SOL    HW170027   2.725   2.001   3.733  1.1783 -0.2285  0.4637
21569SOL    HW270028   2.765   2.110   3.636  0.3464 -0.3734 -0.0484
21570SOL     OW70029   3.785   7.317   1.865  0.3112 -0.2433  0.2879
21570SOL    HW170030   3.772   7.388   1.927 -0.9136 -0.6143  0.4761
21570SOL    HW270031   3.701   7.272   1.861  0.8511 -1.2440 -0.3794
21571SOL     OW70032   4.247   4.608   8.385 -0.0573  0.5326  0.0447
21571SOL    HW170033   4.172   4.648   8.342 -0.2540 -1.1659 -1.3136
21571SOL    HW270034   4.312   4.598   8.316  0.4604 -0.2644  0.6258
21572SOL     OW70035   3.931   7.226   9.186 -1.1231 -0.6866 -0.7633
21572SOL    HW170036   3.937   7.275   9.268  0.0964  0.2674 -1.3894
21572SOL    HW270037   3.919   7.135   9.214  1.2047 -0.6657  0.5443
21573SOL     OW70038   0.942   1.054   6.037  0.2303  0.5855  0.2484
21573SOL    HW170039   0.927   1.030   5.945  0.1076 -0.0215  0.4252
21573SOL    HW270040   1.028   1.017   6.058 -0.5331 -0.8880  0.9117
21574SOL     OW70041   1.021  11.224   5.221  0.1049  0.3802 -0.1420
21574SOL    HW170042   0.944  11.170   5.241 -1.5654  2.7741  0.3965
21574SOL    HW270043   1.047  11.261   5.305  0.8870  0.7849 -0.5522
21575SOL     OW70044   5.421   9.508   2.674 -0.3304  0.8176  0.3026
21575SOL    HW170045   5.332   9.475   2.678  0.1134 -0.5570 -0.4678
21575SOL    HW270046   5.411   9.604   2.673 -1.6855  0.7260  1.7895
21576SOL     OW70047   2.523   5.657   4.164  0.0850 -0.7515 -0.0823
21576SOL    HW170048   2.578   5.593   4.210  2.5560  1.8172  0.8598
21576SOL    HW270049   2.564   5.667   4.078  0.8278  0.7816  0.4187
21577SOL     OW70050   8.020   0.825  11.650 -0.3145  0.2276  0.6779
21577SOL    HW170051   7.933   0.824  11.610  0.5717 -1.4270 -1.3842
21577SOL    HW270052   8.064   0.901  11.611  0.6390 -1.5295 -1.9453
21578SOL     OW70053   8.530   3.327   3.833 -0.0713 -0.0787 -1.1705
21578SOL    HW170054   8.613   3.373   3.826 -0.6839  1.4275  0.7546
21578SOL    HW270055   8.464   3.396   3.835 -1.0695 -1.0004  1.2472
21579SOL     OW70056  10.186  11.168   1.074  0.3657 -0.1084 -0.6009
21579SOL    HW170057  10.218  11.079   1.092  0.6775  0.2081  0.4538
21579SOL    HW270058  10.205  11.217   1.153 -1.0195  0.5769 -0.6536
21580SOL     OW70059   1.311   5.502   5.146  0.2203  0.7283  0.5512
21580SOL    HW170060   1.385   5.454   5.110 -0.1470  1.5651 -1.4282
21580SOL    HW270061   1.349   5.553   5.218  1.3121  0.2402  0.3425
21581SOL     OW70062   3.413   1.936   4.712 -1.0558  0.5656 -0.0142
21581SOL    HW170063   3.474   2.008   4.695 -0.2392  0.1973  1.2659
21581SOL    HW270064   3.459   1.879   4.773 -1.0952 -1.8227 -2.0326
21582SOL     OW70065   4.853   8.468   6.507  0.3771 -0.0378  0.2733
21582SOL    HW170066   4.766   8.482   6.546 -0.0259  0.5707 -0.8053
21582SOL    HW270067   4.880   8.554   6.476  0.4506 -0.5641 -1.2220
21583SOL     OW70068   5.991  10.402   7.714 -0.0104  0.3221 -0.3099
21583SOL    HW170069   5.946  10.347   7.779 -0.3667  2.0275  0.9345
21583SOL    HW270070   6.069  10.352   7.691  0.1843 -0.2728  1.5328
21584SOL     OW70071  11.159   8.804   3.292  0.4123  0.5459 -0.2483
21584SOL    HW170072  11.171   8.890   3.331  0.2015  0.9106 -0.9666
21584SOL    HW270073  11.212   8.806   3.212  0.0267  0.1806 -0.5190
21585SOL     OW70074   8.743   3.691   1.817 -0.0319 -0.0540  0.2293
21585SOL    HW170075   8.775   3.766   1.766 -1.3063  1.5984  1.7267
21585SOL    HW270076   8.648   3.700   1.816 -0.1309 -0.0445  2.6620
21586SOL     OW70077   9.169   6.686   5.217  0.3768  0.0464  0.2674
21586SOL    HW170078   9.114   6.668   5.294 -0.0903  2.0690  0.4702
21586SOL    HW270079   9.250   6.721   5.253  0.4416  0.3136 -0.1315
21587SOL     OW70080   6.057   9.450   0.153 -0.4167  0.3980 -0.4041
21587SOL    HW170081   6.072   9.544   0.161 -1.6993  0.4619  2.9482
21587SOL    HW270082   6.144   9.411   0.157 -0.0005  1.3807  0.4284
21588SOL     OW70083   9.088   4.713   5.706 -0.0171 -0.3752  0.2815
21588SOL    HW170084   9.023   4.647   5.731  0.3779 -0.8144  0.1730
21588SOL    HW270085   9.082   4.718   5.610 -1.1305  0.8909  0.3863
21589SOL     OW70086   9.067   2.519   9.915  0.5141 -0.2002 -0.1749
21589SOL    HW170087   8.973   2.536   9.921  0.4220 -0.0507 -1.5821
21589SOL    HW270088   9.103   2.550   9.998 -0.6417  0.0138  0.2616
21590SOL     OW70089   3.150   3.015   0.725  0.5183 -0.0801 -0.0472
21590SOL    HW170090   3.185   3.032   0.638  0.2451 -0.9900 -0.3508
21590SOL    HW270091   3.166   2.921   0.740 -0.4325 -0.1898  0.4123
21591SOL     OW70092   2.177   9.718  11.135 -0.6339 -0.2493  0.3417
21591SOL    HW170093   2.086   9.696  11.159 -0.6878 -2.5566 -1.5124
21591SOL    HW270094   2.172   9.735  11.040  0.7968  0.1375  0.3263
21592SOL     OW70095   4.593   5.660   8.003 -0.1311 -0.6819  0.1325
21592SOL    HW170096   4.514   5.703   8.035 -0.4802 -0.7183 -0.6513
21592SOL    HW270097   4.593   5.678   7.909  0.1305 -1.7246 -0.0765
21593SOL     OW70098   9.218   0.532   0.998 -0.0591 -0.1300 -0.1223
21593SOL    HW170099   9.256   0.520   1.085  0.4343  0.0663 -0.3080
21593SOL    HW270100   9.186   0.446   0.974  0.2665 -0.2990  0.0388
21594SOL     OW70101   3.051   3.841   7.514  0.6253  0.4365 -0.1304
21594SOL    HW170102   2.980   3.865   7.574  0.5579  0.0312 -0.0431
21594SOL    HW270103   3.022   3.758   7.476 -0.5455  1.8929 -2.6467
21595SOL     OW70104  11.393   5.753  11.531 -0.3286  0.2135 -0.0409
21595SOL    HW170105  11.381   5.848  11.532  0.9556  0.4715 -2.3364
21595SOL    HW270106  11.383   5.729  11.439 -0.6306 -1.8935  0.5004
21596SOL     OW70107   8.497   3.225  11.070 -0.0650 -0.0806  0.6696
21596SOL    HW170108   8.408   3.232  11.036  0.0271 -0.4149  0.3553
21596SOL    HW270109   8.512   3.309  11.114 -0.1860  0.3564 -0.0989
21597SOL     OW70110   4.076   2.655   0.614 -0.0749  0.5733 -0.5766
21597SOL    HW170111   4.115   2.592   0.675 -0.9150  1.0121  0.4574
21597SOL    HW270112   3.986   2.623   0.601 -0.0543  0.7578 -1.2095
21598SOL     OW70113   6.913   3.568   4.600  0.1736 -0.5363 -0.3187
21598SOL    HW170114   6.942   3.639   4.657  0.5660 -0.1478 -0.9745
21598SOL    HW270115   6.823   3.549   4.627  0.1932 -0.0387  0.1023
21599SOL     OW70116   0.244   2.395   8.406 -0.2312  0.0922  0.1635
21599SOL    HW170117   0.242   2.427   8.496 -0.5609  0.1379  0.1412
21599SOL    HW270118   0.313   2.329   8.405  0.2040  0.5424  0.2975
21600SOL     OW70119   5.113   2.769  10.477 -0.7157 -0.2044  0.4324
21600SOL    HW170120   5.120   2.864  10.488 -1.6209  0.1364 -1.4941
21600SOL    HW270121   5.033   2.746  10.524 -1.4493  0.2807 -0.5608
21601SOL     OW70122   2.536   8.464   8.113  0.2460 -0.3393 -0.2242
21601SOL    HW170123   2.477   8.491   8.043  0.0268 -0.3306 -0.0362
21601SOL    HW270124   2.514   8.372   8.128 -1.9421  0.4318  2.0082
21602SOL     OW70125  10.896   6.764   2.700  0.3550  0.0029 -0.2105
21602SOL    HW170126  10.911   6.859   2.702  2.2833 -0.2511 -0.2500
21602SOL    HW270127  10.802   6.755   2.708  0.1310  1.9231 -0.0060
21603SOL     OW70128   8.929  11.463   9.452 -0.4404  0.4837 -0.3751
21603SOL    HW170129   8.954  11.372   9.464 -0.3830  0.6201  0.6657
21603SOL    HW270130   8.861  11.479   9.518 -0.5278  1.1640 -0.6107
21604SOL     OW70131  11.513   1.156   2.489  0.2834  0.6909 -0.0224
21604SOL    HW170132  11.487   1.248   2.491  0.8601  0.9585 -2.2777
21604SOL    HW270133  11.502   1.130   2.398 -1.2377 -1.9208  0.8136
21605SOL     OW70134  10.873  11.384   6.103 -0.0508  0.4960 -0.6338
21605SOL    HW170135  10.884  11.436   6.023 -0.1051  0.7938 -0.4526
21605SOL    HW270136  10.923  11.432   6.169 -3.6452  2.9263  0.6737
21606SOL     OW70137   6.972   0.467   9.101  0.5072 -0.0514  0.0048
21606SOL    HW170138   6.880   0.491   9.111  0.3304 -0.9247  0.5978
21606SOL    HW270139   7.009   0.472   9.189  1.0212  0.2280 -0.2168
21607SOL     OW70140   9.918   4.739   7.015 -0.4760 -0.2337  0.5119
21607SOL    HW170141   9.896   4.820   7.061  1.5079  1.2689 -1.0006
21607SOL    HW270142  10.010   4.724   7.036 -0.2479 -0.9048 -0.8986
21608SOL     OW70143   9.513   4.525   8.063 -0.3324  0.9291 -0.1889
21608SOL    HW170144   9.595   4.546   8.020 -1.0505  2.5524 -0.8767
21608SOL    HW270145   9.502   4.594   8.129 -0.9678  0.5410  0.1245
21609SOL     OW70146   5.657   8.833   5.200  0.1325  0.2785 -0.7526
21609SOL    HW170147   5.603   8.805   5.126 -0.9558 -0.9669  0.4537
21609SOL    HW270148   5.747   8.814   5.172  0.1917  3.3104 -3.1986
21610SOL     OW70149   8.195   4.260   6.391 -0.1546 -0.2955  0.3191
21610SOL    HW170150   8.200   4.166   6.374 -3.2355 -0.1497 -2.2146
21610SOL    HW270151   8.106   4.274   6.424 -0.5100  1.9386 -1.3608
21611SOL     OW70152  10.041   8.280   5.086  0.2188 -0.0808  0.1157
21611SOL    HW170153  10.002   8.226   5.017 -2.3239  2.3086 -0.4654
21611SOL    HW270154  10.109   8.330   5.041 -1.4501  1.4957 -0.7784
21612SOL     OW70155   8.223   1.786   5.995 -0.2539  0.6539 -0.5503
21612SOL    HW170156   8.295   1.743   6.042 -0.3814 -0.4885 -1.3468
21612SOL    HW270157   8.224   1.876   6.027  2.7700  1.2437 -1.9223
21613SOL     OW70158   9.246   8.067  10.377  0.2076  0.1024 -0.8281
21613SOL    HW170159   9.240   8.104  10.289 -0.7720  1.0207 -0.3877
21613SOL    HW270160   9.189   8.122  10.431  0.3749 -0.7710  0.2807
21614SOL     OW70161   5.822  10.230   0.984  0.0429 -0.0081 -0.3621
21614SOL    HW170162   5.839  10.306   0.930  0.2810  0.5596  0.4893
21614SOL    HW270163   5.897  10.224   1.043 -0.7412  0.0942  0.6858
21615SOL     OW70164   8.145   9.549   2.145  0.5678  0.0896 -0.3626
21615SOL    HW170165   8.210   9.501   2.196  1.1941  0.0563 -1.1751
21615SOL    HW270166   8.105   9.483   2.088 -1.0426 -0.1394  0.9218
21616SOL     OW70167   3.584  11.487   7.689 -0.5738 -0.0766 -0.2773
21616SOL    HW170168   3.573  11.408   7.635 -0.6998 -0.0936 -0.2283
21616SOL    HW270169   3.613  11.454   7.774 -0.0783 -0.0269 -0.4276
21617SOL     OW70170  11.665   7.993   2.179 -0.2863 -0.8224 -0.3539
21617SOL    HW170171  11.731   7.959   2.119  0.1596 -0.7238  0.0701
21617SOL    HW270172  11.692   7.960   2.265  0.4802  1.0004  0.1659
21618SOL     OW70173   4.417   3.716   3.621  0.1557  0.2289  0.4756
21618SOL    HW170174   4.344   3.774   3.643 -0.2583 -0.6802  1.6477
21618SOL    HW270175   4.460   3.699   3.705  0.3634 -1.0013  0.1406
21619SOL     OW70176   2.107   8.762   4.805  0.1839 -0.3794  0.1897
21619SOL    HW170177   2.181   8.812   4.771  1.1411 -1.0621  1.1599
21619SOL    HW270178   2.147   8.702   4.869 -0.7512 -2.9800 -1.5093
21620SOL     OW70179   4.509  11.728   9.978 -0.0074  0.9385 -0.3479
21620SOL    HW170180   4.427  11.733   9.929 -0.6854  1.2014  0.7795
21620SOL    HW270181   4.494  11.659  10.042  1.3601 -0.3699 -1.3601
21621SOL     OW70182   3.938   8.695   8.092  0.2053 -0.4312 -0.8013
21621SOL    HW170183   3.970   8.627   8.152 -1.2541 -0.5241 -0.0997
21621SOL    HW270184   3.971   8.777   8.130 -1.7366 -0.3648  0.9049
21622SOL     OW70185  11.149   0.252  10.781 -1.0973 -0.3431 -0.3306
21622SOL    HW170186  11.225   0.238  10.838 -1.2221  0.6923  0.1219
21622SOL    HW270187  11.185   0.247  10.693 -0.5883 -0.3415 -0.1286
21623SOL     OW70188   8.279   4.580   3.038 -0.4731  0.0484  0.5947
21623SOL    HW170189   8.325   4.566   3.121  1.1835  1.5439 -0.0008
21623SOL    HW270190   8.311   4.511   2.981 -1.2036 -0.6556  1.0148
21624SOL     OW70191   2.546   1.667   4.810  0.2971 -0.0798  0.1634
21624SOL    HW170192   2.553   1.614   4.889  1.5699  0.5560  0.4969
21624SOL    HW270193   2.463   1.640   4.771  0.2049 -1.2433  1.0965
21625SOL     OW70194   5.827   4.750  11.034 -0.2252 -0.2304 -0.3570
21625SOL    HW170195   5.776   4.736  11.114  1.1168 -0.8064  0.4150
21625SOL    HW270196   5.840   4.663  10.998  2.0126 -0.3559  0.6122
21626SOL     OW70197  11.252   5.730   6.399 -0.3502 -0.1089  0.0526
21626SOL    HW170198  11.277   5.731   6.491  0.9665  1.5707 -0.2617
21626SOL    HW270199  11.175   5.673   6.395  0.0277 -0.8268  2.0431
21627SOL     OW70200   5.638   3.504   2.043 -0.7189  0.0517 -0.1517
21627SOL    HW170201   5.638   3.410   2.024  1.9174  0.3774 -2.4112
21627SOL    HW270202   5.701   3.513   2.115 -0.5955  0.1575 -0.2743
21628SOL     OW70203   7.000   2.620   3.803  0.6459 -0.0585  0.0708
21628SOL    HW170204   6.918   2.572   3.795  0.4147  0.3154  0.1525
21628SOL    HW270205   6.974   2.707   3.833  1.1249 -0.1282  0.7119
21629SOL     OW70206  11.456   8.312   6.227  0.7346  0.4325 -0.8703
21629SOL    HW170207  11.362   8.297   6.226  0.4666  1.7731  0.4983
21629SOL    HW270208  11.487   8.278   6.143 -1.2280  1.5892 -2.1477
21630SOL     OW70209  10.661  11.508  11.173 -0.1038  0.2145  0.1662
21630SOL    HW170210  10.674  11.418  11.204 -1.3908  0.5435  1.8112
21630SOL    HW270211  10.592  11.501  11.107 -1.2101  0.1160  1.2891
21631SOL     OW70212   2.023   7.961   5.541 -0.4412 -0.5230  0.0163
21631SOL    HW170213   1.948   7.970   5.599 -0.5032 -1.8431  0.1787
21631SOL    HW270214   2.027   8.043   5.493  0.6028  1.3579  3.0554
21632SOL     OW70215   7.285  10.858   1.796 -0.2874  0.6585  0.0162
21632SOL    HW170216   7.194  10.882   1.780 -0.8793 -0.3650  1.5771
21632SOL    HW270217   7.318  10.831   1.711 -1.9445 -0.4789 -0.3181
21633SOL     OW70218   0.636   5.234  10.905 -0.1110 -0.0656  0.5802
21633SOL    HW170219   0.702   5.298  10.880 -1.2796  0.2298 -2.0858
21633SOL    HW270220   0.669   5.150  10.872 -0.2845 -0.2146  0.7786
21634SOL     OW70221   2.848   6.785   6.751  0.1878 -0.4351  0.1385
21634SOL    HW170222   2.801   6.864   6.778 -0.1219 -0.5255 -0.1241
21634SOL    HW270223   2.783   6.734   6.703  0.5865 -0.5032 -0.3426
21635SOL     OW70224   9.660   8.069   5.160 -0.3054  1.0828 -0.2728
21635SOL    HW170225   9.572   8.034   5.143  0.4865 -1.3100  0.2398
21635SOL    HW270226   9.697   8.083   5.072 -0.3326 -0.2917 -0.5277
21636SOL     OW70227   7.124   3.944   6.754  0.3771  0.3943  0.2836
21636SOL    HW170228   7.066   3.890   6.808 -1.4972  0.2841 -1.6699
21636SOL    HW270229   7.072   4.023   6.736  1.2818  0.8079 -0.5985
21637SOL     OW70230  10.600   8.419   7.433  0.2754 -0.4060 -0.1245
21637SOL    HW170231  10.527   8.480   7.436  2.6697  2.7118 -0.4883
21637SOL    HW270232  10.595   8.380   7.345  0.8756  2.3808 -1.5056
21638SOL     OW70233   3.913   4.534   6.033  0.1948  0.5040  1.0051
21638SOL    HW170234   3.997   4.516   5.991 -0.0683  0.9408  0.2795
21638SOL    HW270235   3.896   4.626   6.014 -1.1081  0.0738 -0.0658
21639SOL     OW70236   6.589   8.448   1.594  0.4490  0.6064 -0.1598
21639SOL    HW170237   6.606   8.362   1.632  0.4610  0.0153 -1.4440
21639SOL    HW270238   6.496   8.463   1.607  0.2394 -0.0781 -0.8653
21640SOL     OW70239   7.231   3.539   9.541 -0.5546  0.0520  0.3475
21640SOL    HW170240   7.137   3.556   9.544 -0.6384  0.1498 -1.6555
21640SOL    HW270241   7.270   3.625   9.525 -0.2657 -0.2145 -0.4315
21641SOL     OW70242   8.840   5.853   2.990 -0.5114  0.2014  0.2164
21641SOL    HW170243   8.796   5.789   2.933 -1.1768  0.4811  0.4108
21641SOL    HW270244   8.777   5.924   2.999  0.1468  0.7880  0.1837
21642SOL     OW70245   1.740   1.347   7.607  0.0004  0.0289 -0.2446
21642SOL    HW170246   1.798   1.271   7.618 -1.0837 -0.7941 -0.0815
21642SOL    HW270247   1.795   1.413   7.563  0.8990 -0.9154 -0.5768
21643SOL     OW70248  10.439   1.239   2.277 -0.1140 -0.0642 -0.3005
21643SOL    HW170249  10.375   1.229   2.348 -1.2929  1.7522 -1.0357
21643SOL    HW270250  10.511   1.287   2.318 -0.6600  0.7159 -0.2210
21644SOL     OW70251   0.296   0.821   2.826 -0.2062  0.3356  0.3051
21644SOL    HW170252   0.217   0.873   2.815 -0.2197  0.6165  1.5439
21644SOL    HW270253   0.286   0.748   2.766 -1.6398  0.1073  0.7823
21645SOL     OW70254   3.487   7.291   8.156 -0.4112  0.1816 -0.9381
21645SOL    HW170255   3.482   7.386   8.169 -0.4047  0.1628 -0.7924
21645SOL    HW270256   3.404   7.257   8.190  0.1493 -0.0040  0.3190
21646SOL     OW70257   1.663   4.365   2.067  0.1893 -0.2361 -0.5862
21646SOL    HW170258   1.699   4.317   2.142 -1.1604  0.5189  0.6092
21646SOL    HW270259   1.702   4.323   1.990 -1.1639 -3.4709  0.3269
21647SOL     OW70260   3.548   0.057  11.490 -0.1378  0.1815 -0.3900
21647SOL    HW170261   3.517   0.143  11.461 -1.7347 -0.4875 -0.7614
21647SOL    HW270262   3.482  -0.004  11.459  0.4182 -1.0790  0.7975
21648SOL     OW70263   7.162   3.968   0.725  0.0842 -0.3002 -0.2756
21648SOL    HW170264   7.138   4.053   0.761  1.5909  0.4645 -0.9797
21648SOL    HW270265   7.190   3.917   0.801  0.2503  0.2285  0.0256
21649SOL     OW70266   6.208   6.668   8.903 -0.3985  0.1978 -0.1860
21649SOL    HW170267   6.204   6.574   8.920  2.0038 -0.1813 -1.2582
21649SOL    HW270268   6.208   6.674   8.807  2.0744  1.0602 -0.1805
21650SOL     OW70269   9.403   0.775   1.009  0.3880 -0.2383 -0.0429
21650SOL    HW170270   9.403   0.837   0.936 -3.1413  2.2549  1.8040
21650SOL    HW270271   9.349   0.702   0.978  0.5704 -0.1601 -0.5688
21651SOL     OW70272  11.311  11.658  10.479  0.3228 -0.0191 -0.0353
21651SOL    HW170273  11.343  11.616  10.400 -2.6495 -1.3160 -0.6982
21651SOL    HW270274  11.246  11.597  10.515 -0.8116  1.9631  1.5614
21652SOL     OW70275   3.362   4.062   2.669 -0.1656 -0.2597  1.0385
21652SOL    HW170276   3.298   4.108   2.723 -0.5086  1.3353 -0.6191
21652SOL    HW270277   3.445   4.107   2.686 -0.6383  1.6260 -1.1483
21653SOL     OW70278   3.845   1.365   8.789  0.1339  0.2290  0.2499
21653SOL    HW170279   3.922   1.401   8.746 -0.3880 -2.3272 -3.3171
21653SOL    HW270280   3.873   1.279   8.821 -0.6001  0.3328  1.2057
21654SOL     OW70281   8.372   5.703   4.905  0.6681  0.1995  0.0304
21654SOL    HW170282   8.291   5.662   4.938 -0.2053  1.7189 -0.1290
21654SOL    HW270283   8.413   5.635   4.852 -0.7057 -0.5042 -0.1865
21655SOL     OW70284   0.658   1.132   7.506 -0.5158  0.3297  0.3201
21655SOL    HW170285   0.596   1.069   7.470 -2.8301  3.7357 -2.4197
21655SOL    HW270286   0.744   1.103   7.475 -1.3314 -1.8593 -0.0581
21656SOL     OW70287   7.421   7.517   5.224  0.3279 -0.1236 -0.4891
21656SOL    HW170288   7.420   7.611   5.243  1.4408 -0.1020 -0.4725
21656SOL    HW270289   7.473   7.509   5.144 -0.0727 -0.6864 -0.6931
21657SOL     OW70290   7.945   6.387  11.366  0.2097 -0.2154 -0.4665
21657SOL    HW170291   7.986   6.430  11.291  1.2064  0.7351  0.5759
21657SOL    HW270292   7.886   6.453  11.403  1.8348  0.3999  1.2139
21658SOL     OW70293   6.823   6.837   2.548 -0.2018 -0.2480 -0.0014
21658SOL    HW170294   6.756   6.773   2.573  0.4856 -1.5182 -1.2272
21658SOL    HW270295   6.805   6.856   2.456 -0.6894  1.7580  0.4525
21659SOL     OW70296   7.477   2.918   8.140  0.1542  0.0652 -0.2591
21659SOL    HW170297   7.571   2.897   8.132 -0.0409 -0.8498 -0.2708
21659SOL    HW270298   7.473   2.987   8.205  0.7802 -0.4620  0.3571
21660SOL     OW70299   0.501   6.398   3.619 -0.3440  0.1876 -0.1252
21660SOL    HW170300   0.447   6.467   3.580 -0.5970 -0.1521 -0.3963
21660SOL    HW270301   0.498   6.414   3.713 -1.9929 -0.5692 -0.0145
21661SOL     OW70302   6.515   6.382  10.579 -1.0704 -0.6498  0.2116
21661SOL    HW170303   6.571   6.387  10.502 -0.7565 -1.3128  0.3849
21661SOL    HW270304   6.516   6.289  10.603  0.4589 -0.1965  2.2124
21662SOL     OW70305   2.547   4.617   8.868 -0.0976  0.3156  0.2243
21662SOL    HW170306   2.513   4.536   8.905  1.9136 -0.6489  0.0989
21662SOL    HW270307   2.578   4.592   8.781 -0.8654  1.5930 -0.4480
21663SOL     OW70308   2.730   8.981   6.718 -0.0138 -0.6874  0.0738
21663SOL    HW170309   2.782   9.008   6.794 -1.3403 -0.1695  0.8493
21663SOL    HW270310   2.781   9.008   6.642 -0.2872  2.2145  0.8018
21664SOL     OW70311   6.473   3.673   5.373 -0.0171 -0.0697 -0.0076
21664SOL    HW170312   6.461   3.765   5.351  1.9279  0.2025 -0.1236
21664SOL    HW270313   6.472   3.628   5.288  2.0627  0.2866 -0.2855
21665SOL     OW70314   1.875   3.097   5.481  0.5012 -0.1688 -0.4405
21665SOL    HW170315   1.942   3.072   5.543  1.4746 -0.0179 -1.3900
21665SOL    HW270316   1.826   3.017   5.463  0.0761 -0.1646  0.6565
21666SOL     OW70317   2.134   3.622  11.338  0.4501  0.0979 -0.2864
21666SOL    HW170318   2.158   3.685  11.271 -1.3394  1.1189 -0.0377
21666SOL    HW270319   2.052   3.656  11.375  0.1815 -1.6261  0.8419
21667SOL     OW70320   0.688   5.959   4.771 -0.7631 -0.3352 -0.3241
21667SOL    HW170321   0.745   5.960   4.847 -2.8512  0.5154  1.3260
21667SOL    HW270322   0.712   6.037   4.722 -0.3587 -0.1219  0.2075
21668SOL     OW70323   0.736   8.435   6.369  0.0979  0.4458  0.2198
21668SOL    HW170324   0.680   8.512   6.378  0.7831  0.8850  0.8252
21668SOL    HW270325   0.825   8.468   6.385  0.8555  0.2501 -2.9623
21669SOL     OW70326   6.365   2.409   6.329 -0.4791 -0.1196 -0.0459
21669SOL    HW170327   6.287   2.379   6.283 -0.8138 -0.2291  0.5790
21669SOL    HW270328   6.333   2.444   6.412  0.1432 -0.2874  0.2796
21670SOL     OW70329   5.119  11.744   3.014 -0.0418 -0.1102  0.2968
21670SOL    HW170330   5.103  11.749   2.920 -0.1293  3.0608  0.3819
21670SOL    HW270331   5.210  11.719   3.022 -0.2097 -1.0463 -0.6021
21671SOL     OW70332   1.968   1.266   0.398  0.3403 -0.7444 -0.4140
21671SOL    HW170333   2.025   1.250   0.323 -1.1112 -2.8813 -1.1550
21671SOL    HW270334   2.007   1.215   0.469  2.1499  1.8829  0.6232
21672SOL     OW70335   0.845   4.790   7.088 -0.0207 -0.0102 -0.0894
21672SOL    HW170336   0.753   4.813   7.104 -0.3377 -1.0664 -0.3446
21672SOL    HW270337   0.845   4.695   7.082  0.5371  0.0902 -3.3506
21673SOL     OW70338   8.113   4.994  10.124 -0.0789 -0.3504 -0.2805
21673SOL    HW170339   8.146   4.908  10.151  0.7428 -0.2611 -0.9686
21673SOL    HW270340   8.171   5.021  10.053 -1.4611 -0.0625 -1.3471
21674SOL     OW70341   8.693  11.802   9.329 -0.5843  0.3383 -1.0448
21674SOL    HW170342   8.758  11.738   9.299  0.9998  1.0320  0.6929
21674SOL    HW270343   8.692  11.791   9.424 -0.5883  2.5882 -0.7456
21675SOL     OW70344   5.473   6.434   2.093  0.1419 -0.5919 -0.5020
21675SOL    HW170345   5.562   6.423   2.127  0.6297  1.1112 -1.1113
21675SOL    HW270346   5.439   6.345   2.085  1.8860 -1.2963 -0.4941
21676SOL     OW70347   7.030   6.466   6.770  0.1390 -0.3215 -0.4706
21676SOL    HW170348   7.011   6.508   6.854  1.8567 -1.8445  0.7600
21676SOL    HW270349   7.124   6.450   6.772 -0.0208 -1.7747 -2.0217
21677SOL     OW70350  11.560  10.151   3.007 -0.0155 -0.8108 -0.3133
21677SOL    HW170351  11.501  10.093   2.958 -0.0881  0.0158 -1.2345
21677SOL    HW270352  11.640  10.099   3.020  0.1043 -0.9561 -1.5501
21678SOL     OW70353  11.122   4.630  10.094  0.2456 -0.3086  0.3916
21678SOL    HW170354  11.074   4.654  10.173 -0.4212  0.7066 -0.2991
21678SOL    HW270355  11.202   4.588  10.126  0.3789  0.8190  1.6298
21679SOL     OW70356   5.585   4.684  11.201 -0.0177  0.1739 -0.1038
21679SOL    HW170357   5.553   4.670  11.290 -1.3348 -0.4202 -0.6437
21679SOL    HW270358   5.506   4.696  11.148  0.7415  0.6206 -1.1833
21680SOL     OW70359   7.218   8.348   4.701  0.3643 -0.2659 -0.0635
21680SOL    HW170360   7.196   8.357   4.608  0.5021  1.6057  0.0429
21680SOL    HW270361   7.247   8.257   4.710 -0.7769 -0.8372 -1.5980
21681SOL     OW70362   0.522   2.825   3.752 -0.2133 -0.3792 -0.5429
21681SOL    HW170363   0.492   2.873   3.675  1.2393 -1.4899 -1.8738
21681SOL    HW270364   0.605   2.867   3.776 -1.3797  0.9456  1.4311
21682SOL     OW70365   2.498   5.096   5.969 -0.5441  0.6580 -0.1169
21682SOL    HW170366   2.407   5.076   5.992 -0.2904  0.9913  1.2944
21682SOL    HW270367   2.543   5.103   6.054  0.6141  1.3679 -0.7638
21683SOL     OW70368   5.808   3.725   2.964  0.1431 -0.1372 -0.2804
21683SOL    HW170369   5.901   3.737   2.982  0.4175  0.4739 -1.9298
21683SOL    HW270370   5.775   3.813   2.946 -1.1585 -0.1131  1.8909
21684SOL     OW70371   5.410  10.478   5.732  0.4395  0.4544  0.6848
21684SOL    HW170372   5.494  10.456   5.774  1.6521  3.6184  0.2024
21684SOL    HW270373   5.430  10.481   5.639 -0.8546 -1.0305  0.3226
21685SOL     OW70374   2.181   9.594   6.549 -0.8747  0.1930 -0.3233
21685SOL    HW170375   2.135   9.572   6.468 -1.0383  0.0803 -0.1996
21685SOL    HW270376   2.273   9.593   6.525 -0.9432  0.5581 -0.6060
21686SOL     OW70377   5.801   9.914   0.791 -0.9901 -0.6356  0.3951
21686SOL    HW170378   5.844   9.831   0.814 -0.6198 -0.7402 -0.6532
21686SOL    HW270379   5.873   9.976   0.779 -1.1366 -0.7176 -0.9998
21687SOL     OW70380   7.080   6.922   7.277 -0.3117 -0.1520  0.2311
21687SOL    HW170381   7.037   6.983   7.336 -0.2562 -0.1960  0.3181
21687SOL    HW270382   7.091   6.842   7.329  0.5759  0.1106  0.4624
21688SOL     OW70383   9.219   8.154  10.648 -0.1605 -0.1350  0.0014
21688SOL    HW170384   9.304   8.112  10.650 -0.2178 -0.2542 -0.0389
21688SOL    HW270385   9.233   8.240  10.687  0.2720  0.3897 -1.2636
21689SOL     OW70386  10.812   7.791   5.933  0.1047  0.8571  0.5241
21689SOL    HW170387  10.753   7.782   5.859 -0.9881 -0.3421  1.4881
21689SOL    HW270388  10.824   7.885   5.943 -0.4346  1.0669 -0.6211
21690SOL     OW70389   2.988   8.022   7.879 -0.7228  0.6755  0.5467
21690SOL    HW170390   3.038   7.996   7.802 -2.8790  1.2541 -1.1544
21690SOL    HW270391   2.952   7.940   7.913 -0.7326  0.5417  0.2172
21691SOL     OW70392  11.292   0.595   1.170  0.1603 -0.0992 -0.6780
21691SOL    HW170393  11.346   0.534   1.120 -1.1673 -0.3534 -1.8708
21691SOL    HW270394  11.272   0.548   1.251 -0.6920 -1.2433 -1.4990
21692SOL     OW70395   0.581   0.067   6.298 -0.5097 -0.3887 -0.6268
21692SOL    HW170396   0.584  -0.008   6.358  0.4304  0.7276  0.7765
21692SOL    HW270397   0.573   0.143   6.354 -1.4156  0.6047 -2.0312
21693SOL     OW70398   1.803  10.501   5.209  0.0465  0.0296 -0.2391
21693SOL    HW170399   1.844  10.586   5.193  0.3505 -0.2539 -0.9964
21693SOL    HW270400   1.795  10.496   5.305  0.2564  0.7955 -0.1726
21694SOL     OW70401  11.277   3.872   4.738  0.7923 -0.2671  0.1380
21694SOL    HW170402  11.347   3.905   4.795 -0.2271  0.9335  0.7640
21694SOL    HW270403  11.203   3.930   4.757 -0.3561 -1.4815 -0.5367
21695SOL     OW70404   2.384   4.365   8.324  0.1407  0.3428  0.4089
21695SOL    HW170405   2.364   4.458   8.330  0.7426  0.6078 -1.1332
21695SOL    HW270406   2.365   4.343   8.232  1.5024 -0.6649  0.3367
21696SOL     OW70407   9.809   7.880   4.938 -0.4610  1.0068  0.0213
21696SOL    HW170408   9.714   7.868   4.945 -0.3547  0.8992  2.2699
21696SOL    HW270409   9.846   7.794   4.958  0.1214  1.0612 -0.7755
21697SOL     OW70410   9.526   1.944   4.171 -0.4389 -0.2149  0.2100
21697SOL    HW170411   9.620   1.928   4.166 -0.7031 -1.5001 -1.2143
21697SOL    HW270412   9.503   1.926   4.262  0.6988  0.3045  0.6227
21698SOL     OW70413   9.852   9.277   6.072  0.0310 -0.2772 -0.1758
21698SOL    HW170414   9.914   9.215   6.034  0.9371  1.8662 -2.4885
21698SOL    HW270415   9.767   9.236   6.063  0.8554 -2.5008  1.3585
21699SOL     OW70416   4.199   3.916   5.583 -0.2917 -0.3588 -0.1517
21699SOL    HW170417   4.184   3.953   5.496  0.3157  0.9090  0.2458
21699SOL    HW270418   4.277   3.962   5.614  0.4190 -1.9094  0.4533
21700SOL     OW70419   1.018   2.154   6.455 -0.5045  0.0642 -0.5601
21700SOL    HW170420   1.107   2.137   6.424  0.4919  0.9261  1.6024
21700SOL    HW270421   0.966   2.163   6.375  1.3412 -0.4435 -1.8843
21701SOL     OW70422   0.174   1.076   5.439 -0.3571  0.4461  0.1322
21701SOL    HW170423   0.118   1.041   5.370 -3.0549 -0.1196  2.4144
21701SOL    HW270424   0.171   1.171   5.426 -2.9297  0.5312  0.8340
21702SOL     OW70425   9.376  10.830   5.742 -0.0497  0.6146  0.1749
21702SOL    HW170426   9.419  10.818   5.827 -0.7567  0.1134  0.4717
21702SOL    HW270427   9.436  10.788   5.679  0.9145  1.7597  0.2832
21703SOL     OW70428   7.895   6.407   5.220 -0.5787  0.2439 -0.2860
21703SOL    HW170429   7.922   6.371   5.305 -0.3118  0.4888 -0.2613
21703SOL    HW270430   7.805   6.378   5.209 -0.9229  0.9377  0.5024
21704SOL     OW70431  10.539  10.367   2.289 -0.1017 -0.3469  0.1901
21704SOL    HW170432  10.479  10.392   2.220  0.7209  2.6332  0.4154
21704SOL    HW270433  10.492  10.386   2.371  0.6745  0.9841  0.3653
21705SOL     OW70434   2.073  11.221   4.145 -0.3471 -0.0846  0.2168
21705SOL    HW170435   2.148  11.178   4.103 -0.4165  1.0562 -1.1552
21705SOL    HW270436   2.059  11.171   4.225  0.5733 -1.6061 -0.5142
21706SOL     OW70437   1.329   2.185   4.438  0.2080  0.1555  0.4139
21706SOL    HW170438   1.422   2.192   4.416  0.5146 -2.1120  0.7818
21706SOL    HW270439   1.323   2.216   4.529  0.7846 -0.6035  0.7165
21707SOL     OW70440   7.927   3.754   2.074 -0.0531  0.4296 -0.0768
21707SOL    HW170441   7.912   3.809   2.150 -0.6146  0.4432 -0.1885
21707SOL    HW270442   7.929   3.665   2.108 -0.9723  0.3782 -0.1148
21708SOL     OW70443   2.878   5.661   0.507 -0.1082  0.2801  0.2472
21708SOL    HW170444   2.934   5.676   0.584 -0.4216  1.5627  0.2487
21708SOL    HW270445   2.843   5.748   0.486 -1.7999 -0.4207  0.0161
21709SOL     OW70446   7.265  10.879   9.081  0.0428 -0.1724  0.0589
21709SOL    HW170447   7.180  10.835   9.082  0.4087 -0.8897 -0.0681
21709SOL    HW270448   7.243  10.972   9.072 -0.8397 -0.0460  2.5847
21710SOL     OW70449   4.077   2.808   5.366 -0.0995 -0.1511  0.1325
21710SOL    HW170450   4.030   2.778   5.288 -0.0008  0.5470 -0.2037
21710SOL    HW270451   4.125   2.731   5.395  0.6124 -0.1872 -1.0538
21711SOL     OW70452  10.822   5.023   8.587  0.3280  0.2291  0.2705
21711SOL    HW170453  10.879   5.071   8.647  0.1345 -0.3449  0.9237
21711SOL    HW270454  10.877   4.954   8.551  0.2655  0.1622  0.3028
21712SOL     OW70455   3.431  11.412   8.721  0.0367 -0.6318  0.2161
21712SOL    HW170456   3.443  11.340   8.783  0.0454 -0.3105  0.5957
21712SOL    HW270457   3.437  11.491   8.776 -1.4456 -0.3765  0.0444
21713SOL     OW70458   1.940   5.673   0.095  0.0072 -0.2472  0.2247
21713SOL    HW170459   1.962   5.590   0.053  0.3085 -0.1427  0.1735
21713SOL    HW270460   1.982   5.739   0.041  1.5155 -0.1898  1.4064
21714SOL     OW70461   8.482   2.291   7.370 -0.0528 -0.2587 -0.7235
21714SOL    HW170462   8.535   2.297   7.449 -0.9201 -0.3459 -0.1147
21714SOL    HW270463   8.537   2.246   7.306  0.9337  0.4873 -0.4161
21715SOL     OW70464   3.560   0.570   7.438 -0.4840  0.2320 -0.1455
21715SOL    HW170465   3.551   0.645   7.379  0.0274 -0.4035 -1.0655
21715SOL    HW270466   3.647   0.534   7.417 -1.0162 -1.0550 -0.2692
21716SOL     OW70467  10.690   5.588   6.611 -1.0181  0.0711 -0.0463
21716SOL    HW170468  10.708   5.674   6.573 -0.0058 -0.7278 -1.4850
21716SOL    HW270469  10.776   5.552   6.630 -1.4667 -0.2563  1.4535
21717SOL     OW70470   5.727   2.497   0.748 -0.3967  0.0166  0.1349
21717SOL    HW170471   5.655   2.484   0.810 -1.2439  0.4647 -0.7270
21717SOL    HW270472   5.703   2.578   0.702  0.2919 -0.2339 -0.6696
21718SOL     OW70473   0.770   4.961  10.814  0.2288 -0.2022  0.5047
21718SOL    HW170474   0.813   4.877  10.833  0.7250 -0.3492 -1.0830
21718SOL    HW270475   0.837   5.012  10.768 -1.0008 -0.1339 -1.3264
21719SOL     OW70476   3.255   1.531  11.645  0.0931  0.9729  0.4649
21719SOL    HW170477   3.335   1.501  11.604 -0.3627 -0.9498  0.8979
21719SOL    HW270478   3.185   1.490  11.595 -0.5317  0.3864  1.7773
21720SOL     OW70479  10.903   3.936   0.715  0.0409  0.5473  0.0550
21720SOL    HW170480  10.871   3.937   0.624  0.8925  0.3481 -0.2504
21720SOL    HW270481  10.948   3.853   0.724  0.5622  0.8672  0.4489
21721SOL     OW70482   1.131   0.602   8.331  0.2345  0.1905  0.0545
21721SOL    HW170483   1.107   0.533   8.269  0.6074 -0.8835  1.0682
21721SOL    HW270484   1.049   0.648   8.349  0.0165  0.1401 -0.7775
21722SOL     OW70485   1.824   3.076   2.370 -0.0711 -0.2927 -0.1022
21722SOL    HW170486   1.839   3.009   2.303 -2.7855 -2.5050  1.3152
21722SOL    HW270487   1.751   3.127   2.336 -1.2855 -1.2572  0.9766
21723SOL     OW70488   6.349   8.475   2.414  0.2976 -0.1296 -0.2075
21723SOL    HW170489   6.305   8.469   2.499 -0.1690  0.7440 -0.3737
21723SOL    HW270490   6.278   8.468   2.350  0.7472 -1.8072 -0.5818
21724SOL     OW70491   2.834   6.678   4.258  0.4450  0.0277 -0.3098
21724SOL    HW170492   2.825   6.656   4.165  0.3434  1.4119 -0.6546
21724SOL    HW270493   2.753   6.648   4.298  0.4169 -0.4221 -0.6939
21725SOL     OW70494   8.821   2.302   8.442  0.0372  0.1231  0.8239
21725SOL    HW170495   8.905   2.260   8.462  1.3401  1.9536 -0.5069
21725SOL    HW270496   8.787   2.329   8.527 -0.0507 -2.0475  1.5518
21726SOL     OW70497   9.577   1.271   1.168  0.0065 -0.3419 -0.2385
21726SOL    HW170498   9.557   1.178   1.161 -2.2056  0.1316 -1.0325
21726SOL    HW270499   9.510   1.314   1.115 -0.8270  1.9003  2.4013
21727SOL     OW70500  11.685   5.607   7.640 -0.3644  0.3349  0.2660
21727SOL    HW170501  11.681   5.556   7.721 -1.8088  0.9998  0.6572
21727SOL    HW270502  11.679   5.698   7.670 -0.5155  0.6009 -0.5579
21728SOL     OW70503   2.349   8.396   7.418  0.2540  0.0815  0.3984
21728SOL    HW170504   2.438   8.373   7.446  0.4974  0.2890 -0.1819
21728SOL    HW270505   2.362   8.441   7.335 -0.3912  0.2162  0.3696
21729SOL     OW70506   5.424   2.687   1.015  0.2067 -0.0444 -0.2324
21729SOL    HW170507   5.450   2.779   1.015 -0.0423  0.0896  2.3586
21729SOL    HW270508   5.350   2.683   0.954 -0.0407  1.5486 -0.0704
21730SOL     OW70509   6.733   3.293   3.927 -0.7334  0.2025  0.0043
21730SOL    HW170510   6.718   3.319   3.836  3.1753  1.3172 -0.4759
21730SOL    HW270511   6.711   3.371   3.979 -3.0107 -0.4489  0.1560
21731SOL     OW70512   5.986   8.061  11.490 -0.0396  0.5380 -0.1055
21731SOL    HW170513   5.963   7.974  11.522  0.1757  1.3277  2.4088
21731SOL    HW270514   5.919   8.081  11.424  0.0856 -1.5976 -0.9453
21732SOL     OW70515  10.008   2.444   2.361 -0.2245  0.0684 -0.4219
21732SOL    HW170516   9.939   2.386   2.391 -0.2850  0.2942 -0.1171
21732SOL    HW270517  10.024   2.418   2.270  0.6057 -1.2549  0.0691
21733SOL     OW70518   7.347   7.346   5.592  0.3781  0.3494  0.5280
21733SOL    HW170519   7.340   7.440   5.577 -0.2493  0.1101 -0.8664
21733SOL    HW270520   7.286   7.307   5.529  0.1087 -0.9620  1.5523
21734SOL     OW70521   9.524   6.439   6.782 -0.8269  0.1243 -0.0494
21734SOL    HW170522   9.523   6.506   6.851  0.8406  0.5364 -0.3807
21734SOL    HW270523   9.439   6.449   6.738 -0.0841  3.1284 -1.0846
21735SOL     OW70524   0.952   9.610   2.522  0.0586  0.4099 -0.1646
21735SOL    HW170525   0.929   9.524   2.487 -0.4831 -0.1926  1.5924
21735SOL    HW270526   0.892   9.624   2.596  1.3851  1.4527  0.7719
21736SOL     OW70527  10.313   1.474   6.859 -0.3133  0.6146  0.0159
21736SOL    HW170528  10.268   1.537   6.803  0.4568  0.5647 -0.6789
21736SOL    HW270529  10.401   1.467   6.821 -0.1808 -0.3691  0.4832
21737SOL     OW70530   2.657   4.777   8.094 -0.2615  0.0062  0.0435
21737SOL    HW170531   2.722   4.743   8.033  0.9189 -1.5029  2.0206
21737SOL    HW270532   2.612   4.846   8.045  2.3440  0.6682 -1.6590
21738SOL     OW70533   2.905   3.067   4.669 -0.5162  0.4818  0.3551
21738SOL    HW170534   2.963   3.081   4.744  1.8406 -0.1123 -1.2266
21738SOL    HW270535   2.861   2.984   4.687 -0.7877  0.8656  1.5302
21739SOL     OW70536   3.127   8.533   8.222 -1.0179  0.1962  0.0659
21739SOL    HW170537   3.072   8.597   8.176 -0.6852 -0.0453 -0.6766
21739SOL    HW270538   3.125   8.562   8.313 -0.3060  1.6928 -0.3517
21740SOL     OW70539   0.236   2.761   7.004  0.2655 -0.2885 -0.2157
21740SOL    HW170540   0.300   2.826   7.031  0.9922 -0.8520 -0.5466
21740SOL    HW270541   0.156   2.811   6.986  0.5194  0.3831  0.4723
21741SOL     OW70542   3.680   7.380   2.964 -1.0929  0.8179 -0.4041
21741SOL    HW170543   3.672   7.469   2.930  0.1462  0.8676 -0.6451
21741SOL    HW270544   3.734   7.390   3.042 -0.4969  0.2259 -0.7339
21742SOL     OW70545   3.181   1.693   1.138 -0.1161 -0.6796 -0.3014
21742SOL    HW170546   3.134   1.755   1.193  0.1640 -0.4917 -0.2719
21742SOL    HW270547   3.269   1.730   1.129  0.3345 -1.5183  0.4658
21743SOL     OW70548  10.502   7.893   0.670 -0.4140 -0.1683  0.7807
21743SOL    HW170549  10.562   7.886   0.596 -1.4273  1.2569 -0.2262
21743SOL    HW270550  10.525   7.819   0.726  2.4291  0.4646  0.5841
21744SOL     OW70551   1.141  11.646   7.250 -0.1724  0.3116  0.1767
21744SOL    HW170552   1.230  11.611   7.256 -0.7364 -1.2558 -0.0090
21744SOL    HW270553   1.090  11.575   7.210 -1.5639  1.0581  0.5435
21745SOL     OW70554   5.840   1.443   5.224  0.0047 -0.1164  0.3766
21745SOL    HW170555   5.884   1.359   5.214  0.4963  0.3721 -2.2775
21745SOL    HW270556   5.911   1.507   5.226 -0.3889  0.3248  1.9290
21746SOL     OW70557   5.026  10.093   6.969  0.7857 -0.0051 -0.6315
21746SOL    HW170558   5.075  10.175   6.961 -0.5002  0.7403 -1.2343
21746SOL    HW270559   5.042  10.065   7.059  0.2508  1.5843 -0.0022
21747SOL     OW70560   2.665   8.862   5.328  0.2248  0.2023  0.2060
21747SOL    HW170561   2.700   8.921   5.395 -2.4133 -0.2368  2.1288
21747SOL    HW270562   2.702   8.777   5.350 -0.6229  0.0633  1.1143
21748SOL     OW70563   9.794   7.892  10.171 -0.5350 -0.2201 -0.1804
21748SOL    HW170564   9.888   7.908  10.156 -0.7845  1.5694 -0.0348
21748SOL    HW270565   9.754   7.979  10.167 -2.4227 -1.0834 -1.6321
21749SOL     OW70566   7.380  10.397   5.342 -0.0148 -0.1416 -0.6368
21749SOL    HW170567   7.298  10.348   5.347 -0.8293  1.2522  0.4408
21749SOL    HW270568   7.361  10.480   5.385  1.9746  0.2172 -0.3514
21750SOL     OW70569  10.743   8.831  11.704 -0.7235 -0.2503  0.2966
21750SOL    HW170570  10.816   8.892  11.697 -0.6503 -0.0546  2.2216
21750SOL    HW270571  10.778   8.748  11.673 -1.2496  0.8718 -3.8528
21751SOL     OW70572   0.897   3.681   3.014 -0.0359  0.5499  0.4465
21751SOL    HW170573   0.967   3.629   3.053  0.7305  1.4703  0.3496
21751SOL    HW270574   0.876   3.747   3.080 -0.8545  0.2475  0.4942
21752SOL     OW70575   7.660   6.190   2.080 -0.2722  0.2354  0.2227
21752SOL    HW170576   7.655   6.227   1.992  0.3485 -0.9125 -0.3145
21752SOL    HW270577   7.753   6.179   2.097 -0.2931  1.7561  1.6292
21753SOL     OW70578  11.549   2.616  10.080 -0.0454  0.3484  0.1446
21753SOL    HW170579  11.630   2.570  10.101 -0.6104 -0.4639  0.6038
21753SOL    HW270580  11.577   2.696  10.037  0.9868 -0.1433 -0.1284
21754SOL     OW70581  11.111   4.624   5.149  0.1873 -0.0496  0.0571
21754SOL    HW170582  11.097   4.718   5.160  0.0077 -0.2582  1.9259
21754SOL    HW270583  11.107   4.588   5.238 -0.6165 -1.9575 -0.6973
21755SOL     OW70584   8.888   2.077   8.800  0.1067  0.6014  0.0020
21755SOL    HW170585   8.892   2.011   8.869  1.2515  0.3445 -0.3001
21755SOL    HW270586   8.797   2.073   8.768  0.0354 -0.4784  0.3157
21756SOL     OW70587   2.214  10.315   7.689 -0.3636 -0.3462 -0.6391
21756SOL    HW170588   2.265  10.278   7.761 -3.2550 -0.6728  1.3895
21756SOL    HW270589   2.181  10.239   7.641  0.5055 -0.1399 -1.6189
21757SOL     OW70590  10.309   8.891  11.603  0.1797  0.4218  0.1668
21757SOL    HW170591  10.356   8.974  11.598  0.8465  0.3314  2.9562
21757SOL    HW270592  10.370   8.831  11.646 -0.4058 -1.4576 -1.4510
21758SOL     OW70593   9.286  11.745   9.279  0.4759 -0.2023  0.2703
21758SOL    HW170594   9.207  11.790   9.309 -0.7120 -1.2279 -1.2252
21758SOL    HW270595   9.336  11.728   9.360 -0.2050  1.5605  1.1025
21759SOL     OW70596   8.416   1.501   2.453 -0.0399 -0.2240  0.1492
21759SOL    HW170597   8.453   1.589   2.463  1.2522 -0.7597  0.3310
21759SOL    HW270598   8.328   1.508   2.489 -0.6417  1.4364 -1.5011
21760SOL     OW70599   2.383   9.984   4.035 -0.3994  0.5334  0.2303
21760SOL    HW170600   2.374  10.077   4.017 -1.3255  0.2211 -1.1501
21760SOL    HW270601   2.332   9.942   3.966  0.2016 -1.0076  0.6824
21761SOL     OW70602   6.656   8.303   4.817 -0.2419 -0.2465 -0.4278
21761SOL    HW170603   6.645   8.346   4.902  3.4109  0.7879 -0.3177
21761SOL    HW270604   6.571   8.314   4.774 -1.2725  1.9140  1.8802
21762SOL     OW70605   0.702   9.109   1.173 -0.2918 -0.0646  0.2342
21762SOL    HW170606   0.615   9.148   1.164  0.2811  1.0919 -0.5028
21762SOL    HW270607   0.733   9.140   1.258  0.5283  1.9285 -0.7341
21763SOL     OW70608   3.291   5.060   1.233 -0.5481 -0.4279  0.0713
21763SOL    HW170609   3.316   5.152   1.233 -0.0249 -0.5659  0.0692
21763SOL    HW270610   3.275   5.040   1.141 -0.1049 -0.4819  0.0023
21764SOL     OW70611   1.364  10.064   5.735 -0.6226  0.1060  0.3141
21764SOL    HW170612   1.339  10.120   5.809  0.8093 -0.7956  1.5375
21764SOL    HW270613   1.325   9.979   5.756  0.0351 -0.2289  0.2044
21765SOL     OW70614   5.954   5.013   5.997 -0.8530 -0.1550  0.3253
21765SOL    HW170615   6.029   5.018   6.056 -0.5194  1.9933 -0.1970
21765SOL    HW270616   5.885   4.973   6.050  0.4478 -1.5648  1.0166
21766SOL     OW70617   2.711  10.067   6.279 -0.2139  0.0236  0.3918
21766SOL    HW170618   2.623  10.031   6.289 -0.2151  0.1051  0.6834
21766SOL    HW270619   2.719  10.087   6.186 -0.5219  0.0685  0.3758
21767SOL     OW70620   7.481   7.746   9.154  0.3538  0.1482  0.2693
21767SOL    HW170621   7.409   7.780   9.207  0.9191 -0.2629  1.3488
21767SOL    HW270622   7.440   7.684   9.094 -0.3050  0.6355  0.2075
21768SOL     OW70623   4.172   2.176   5.054 -0.6263 -0.2162 -0.3477
21768SOL    HW170624   4.252   2.196   5.103 -0.5251  1.1166 -1.0119
21768SOL    HW270625   4.134   2.101   5.099  1.0974 -0.9962 -0.1267
21769SOL     OW70626   8.841  11.393   4.122 -0.1044 -0.3357 -0.0392
21769SOL    HW170627   8.785  11.442   4.062 -1.5525 -1.5697  0.2453
21769SOL    HW270628   8.918  11.369   4.070  0.2204  1.4438 -0.4221
21770SOL     OW70629  11.021   3.370   8.763 -0.0684  0.4600  0.3221
21770SOL    HW170630  10.932   3.361   8.730 -0.5011  1.7874  1.0184
21770SOL    HW270631  11.077   3.341   8.691 -1.0579 -0.9764  0.0929
21771SOL     OW70632  10.408   0.154   5.726 -0.5011 -0.5361 -0.2700
21771SOL    HW170633  10.440   0.139   5.637 -2.2221 -1.0523 -0.8436
21771SOL    HW270634  10.313   0.145   5.719 -1.0205  2.4692  1.0025
21772SOL     OW70635   6.900   0.389   4.160 -0.4990 -0.2568  0.3844
21772SOL    HW170636   6.910   0.323   4.229 -0.5215 -0.4224  0.2316
21772SOL    HW270637   6.972   0.371   4.099  1.6303  2.0013  2.0309
21773SOL     OW70638   3.880   1.176   2.117 -0.6334  0.1244 -0.2716
21773SOL    HW170639   3.795   1.150   2.154 -0.9271  0.7178 -0.5116
21773SOL    HW270640   3.867   1.171   2.023 -0.7745  1.3252 -0.3338
21774SOL     OW70641   1.757   7.510   3.017  0.5733  0.4233 -0.1753
21774SOL    HW170642   1.714   7.540   2.937  0.1721 -1.3739 -0.6971
21774SOL    HW270643   1.712   7.555   3.088 -0.5417  0.4028 -0.8586
21775SOL     OW70644   0.657   1.470   1.825  0.0954 -0.0622 -0.2074
21775SOL    HW170645   0.588   1.528   1.792  1.2214  0.5652 -1.5490
21775SOL    HW270646   0.701   1.438   1.746  2.8955  1.4568  0.6026
21776SOL     OW70647   9.529   3.501   6.334 -1.2120 -0.2706 -0.3788
21776SOL    HW170648   9.614   3.504   6.377 -1.6467 -0.2951  0.5163
21776SOL    HW270649   9.545   3.455   6.252  0.0269  1.4799 -1.1679
21777SOL     OW70650   3.686  11.323   0.090  0.0068  0.3920  0.4192
21777SOL    HW170651   3.744  11.340   0.015  1.8402  1.2050  1.9211
21777SOL    HW270652   3.683  11.227   0.097  2.9499  0.2858  1.5061
21778SOL     OW70653   1.403   7.519   5.351 -0.6660  0.0207 -0.1819
21778SOL    HW170654   1.387   7.425   5.351 -0.8240  0.0164 -1.5471
21778SOL    HW270655   1.388   7.547   5.441  0.3190 -1.3970  0.4580
21779SOL     OW70656   0.938   1.161   9.876 -0.4070 -0.4161 -0.4732
21779SOL    HW170657   0.909   1.228   9.813  1.1231 -0.8752 -1.7310
21779SOL    HW270658   0.921   1.078   9.832 -0.1807 -0.7902  0.1383
21780SOL     OW70659   2.624   6.314   0.452 -0.3853 -0.0202  0.2207
21780SOL    HW170660   2.566   6.330   0.378  0.4184  0.8958 -0.2411
21780SOL    HW270661   2.599   6.381   0.516 -1.9765 -1.6343  1.3645
21781SOL     OW70662   7.060   4.906   7.192 -0.3944  0.0414 -0.4234
21781SOL    HW170663   7.110   4.903   7.274  1.2493 -0.9718 -1.4094
21781SOL    HW270664   7.017   4.992   7.194 -1.2179 -0.3467  1.9276
21782SOL     OW70665  10.888   5.036  11.367  0.3346 -0.0183  0.2306
21782SOL    HW170666  10.964   5.075  11.410 -0.1194 -0.2405  1.2685
21782SOL    HW270667  10.812   5.077  11.409 -0.1707 -2.1572  1.5805
21783SOL     OW70668   0.237   4.244   2.487  0.1667  0.2012 -0.5541
21783SOL    HW170669   0.241   4.227   2.393  0.7169 -0.9235 -0.3369
21783SOL    HW270670   0.256   4.160   2.528 -2.6140  0.0172  0.5973
21784SOL     OW70671  11.804   4.873   2.354 -0.4878 -0.1937 -0.3743
21784SOL    HW170672  11.730   4.903   2.302 -1.2771 -0.2700  0.6786
21784SOL    HW270673  11.765   4.816   2.421  0.2369  1.4318  1.5379
21785SOL     OW70674   4.685   2.098   4.960  0.5133 -0.2630  0.3328
21785SOL    HW170675   4.766   2.099   4.910  0.8619  0.6440  0.8948
21785SOL    HW270676   4.713   2.090   5.051  0.0619  1.2511  0.6421
21786SOL     OW70677   2.906  11.375   2.393 -0.7559  0.2553  0.0458
21786SOL    HW170678   2.995  11.342   2.402 -0.5402  0.2854 -1.7010
21786SOL    HW270679   2.856  11.300   2.360 -0.9168  0.7804 -0.9536
21787SOL     OW70680   4.022   3.343   2.812 -0.9510  0.7107 -0.1756
21787SOL    HW170681   4.029   3.251   2.839  2.5732  1.6768  2.9119
21787SOL    HW270682   4.042   3.341   2.718  2.3426 -1.4719  0.4164
21788SOL     OW70683   6.359   8.201   7.926 -0.3286 -0.0695  0.1783
21788SOL    HW170684   6.283   8.152   7.895  0.5275 -1.7252  0.5497
21788SOL    HW270685   6.394   8.148   7.998 -0.5028  2.1208  1.9853
21789SOL     OW70686   9.891   8.966   8.229 -0.5328 -0.0662 -0.3834
21789SOL    HW170687   9.890   9.023   8.306 -0.4745 -1.6428  0.8362
21789SOL    HW270688   9.813   8.912   8.238 -1.1918  0.5120 -2.1114
21790SOL     OW70689   2.405   9.347  11.114 -0.0614  0.4034  0.1632
21790SOL    HW170690   2.327   9.324  11.063 -1.0467  0.7872  1.4455
21790SOL    HW270691   2.376   9.415  11.174  1.4998  1.1966  0.0859
21791SOL     OW70692   6.336   5.524   3.177 -0.5023 -0.6103  0.5682
21791SOL    HW170693   6.365   5.582   3.107 -0.2823 -0.5519  0.7055
21791SOL    HW270694   6.241   5.533   3.178 -0.4911 -0.4614  0.4085
21792SOL     OW70695   3.923   8.736  10.857  0.6392 -0.2582  0.3061
21792SOL    HW170696   4.018   8.743  10.850  0.8576 -0.5600  2.4126
21792SOL    HW270697   3.908   8.650  10.896 -0.3704  0.5324  1.7477
21793SOL     OW70698   6.249   6.433   6.280  0.5254 -0.2778 -0.1335
21793SOL    HW170699   6.269   6.350   6.237 -0.8723 -0.7039 -0.0128
21793SOL    HW270700   6.160   6.454   6.252  0.9507  1.3449 -0.3898
21794SOL     OW70701   9.367   3.213   4.130 -0.0775  0.0014 -0.0862
21794SOL    HW170702   9.352   3.170   4.046 -0.4787 -0.8417  0.3955
21794SOL    HW270703   9.462   3.219   4.137 -0.0131  2.9940 -1.9950
21795SOL     OW70704  10.904   5.402   3.380 -0.4858  0.4701  0.7690
21795SOL    HW170705  10.813   5.421   3.360 -0.1836  2.2420  0.9065
21795SOL    HW270706  10.903   5.316   3.421 -1.8740 -0.3577 -0.8693
21796SOL     OW70707  11.084   9.806   2.010  0.3419 -0.4856  0.3727
21796SOL    HW170708  11.070   9.747   2.084 -1.2490 -1.5924 -0.7517
21796SOL    HW270709  11.115   9.887   2.049 -0.6285 -0.9830  2.2718
21797SOL     OW70710   5.574   2.439   6.314  0.2840  0.0995  0.2468
21797SOL    HW170711   5.523   2.440   6.233  0.4954  1.8185  0.0885
21797SOL    HW270712   5.531   2.503   6.371  2.2046  1.6437  0.0998
21798SOL     OW70713   9.408   3.653   5.783  0.0714  0.2122 -0.5756
21798SOL    HW170714   9.351   3.623   5.712 -1.2406 -1.9600  1.2662
21798SOL    HW270715   9.361   3.631   5.863  3.5165 -1.9997  1.0927
21799SOL     OW70716   3.670   8.264   0.730  0.5179  0.3596  0.6538
21799SOL    HW170717   3.723   8.326   0.680 -1.7360  2.0924  0.2845
21799SOL    HW270718   3.612   8.225   0.666  1.2598 -1.4967  1.0594
21800SOL     OW70719   7.391  10.845  10.141  0.1156 -0.6358  0.2794
21800SOL    HW170720   7.397  10.797  10.224  0.2009 -0.3085  0.4653
21800SOL    HW270721   7.443  10.924  10.156  0.8783 -1.0007 -0.3871
21801SOL     OW70722   5.243   3.872  11.652 -0.8742 -0.1657  0.4068
21801SOL    HW170723   5.232   3.832  11.565  0.6829  1.5272 -0.6385
21801SOL    HW270724   5.326   3.919  11.646 -0.4774 -0.4045  3.0157
21802SOL     OW70725  10.875   7.654   4.913  0.2909  0.2007 -0.1815
21802SOL    HW170726  10.852   7.652   4.820  0.1446 -0.5563 -0.1298
21802SOL    HW270727  10.970   7.657   4.914  0.2985  0.0002 -0.3513
21803SOL     OW70728   5.989   5.930   1.819 -0.7019 -0.2726 -0.1888
21803SOL    HW170729   5.913   5.874   1.805 -0.9092  0.2131 -1.0691
21803SOL    HW270730   6.011   5.918   1.911 -1.6704 -0.6385  0.0037
21804SOL     OW70731   6.059   2.561   4.690 -0.3110  0.0448 -0.0297
21804SOL    HW170732   6.059   2.654   4.714  0.0093  0.5265 -1.7295
21804SOL    HW270733   5.975   2.528   4.722 -0.2176  0.7908  1.0410
21805SOL     OW70734   3.637  10.591   5.573  0.1444  0.1074 -0.0436
21805SOL    HW170735   3.646  10.684   5.552  1.4066  0.0814  0.3444
21805SOL    HW270736   3.547  10.570   5.549 -0.5706  1.7322  1.0122
21806SOL     OW70737   7.472   4.725   0.565  0.0620  0.4008  0.4343
21806SOL    HW170738   7.401   4.671   0.529  0.8198 -0.0507 -0.4183
21806SOL    HW270739   7.434   4.765   0.644 -0.4591 -1.5417  1.2212
21807SOL     OW70740   7.020   1.150   6.988  0.3793  0.1584 -0.1023
21807SOL    HW170741   7.090   1.170   7.050 -0.2575  1.8746  0.1149
21807SOL    HW270742   7.023   1.222   6.925 -2.6778  1.6790  1.2577
21808SOL     OW70743   3.498  11.202   8.888 -0.1355  0.0583 -0.0853
21808SOL    HW170744   3.443  11.139   8.933  1.7568 -1.3843  0.3467
21808SOL    HW270745   3.588  11.173   8.906  0.7606  1.5061 -1.8428
21809SOL     OW70746   7.640   9.774   6.479 -0.3351 -0.7492 -0.4981
21809SOL    HW170747   7.589   9.693   6.487 -2.2635  0.4361  0.0425
21809SOL    HW270748   7.628   9.801   6.388 -1.3741 -0.0814 -0.1850
21810SOL     OW70749   0.377   6.116   2.148 -0.3570  0.0621 -0.3036
21810SOL    HW170750   0.454   6.164   2.118  1.0603 -1.5321  0.6452
21810SOL    HW270751   0.303   6.163   2.109  1.1561  0.2830 -3.1795
21811SOL     OW70752   5.953   1.049   1.894  0.2034 -0.5028 -0.1062
21811SOL    HW170753   6.020   0.985   1.869  1.4774  1.3562 -1.8463
21811SOL    HW270754   6.003   1.129   1.913 -1.3688  0.2181  1.1907
21812SOL     OW70755  10.380   2.941   9.356 -0.3264  0.3725  0.2505
21812SOL    HW170756  10.405   2.889   9.280  0.6254 -0.9309  1.4146
21812SOL    HW270757  10.393   3.032   9.329 -1.2497 -0.0075 -1.5566
21813SOL     OW70758   5.142   9.468  11.535  0.6308  0.6759 -0.1726
21813SOL    HW170759   5.157   9.376  11.557  0.9011  0.8601  0.4323
21813SOL    HW270760   5.104   9.506  11.614  1.4629  1.3168 -0.0659
21814SOL     OW70761   4.686   1.548  11.313 -0.1413 -0.1918  0.3652
21814SOL    HW170762   4.675   1.617  11.248  1.6880 -0.3416 -0.1528
21814SOL    HW270763   4.607   1.495  11.307 -0.8143  0.8762 -0.4103
21815SOL     OW70764   1.434   5.381   9.012 -0.4904 -0.2788 -0.0394
21815SOL    HW170765   1.417   5.418   9.099 -0.1235 -0.2082  0.0024
21815SOL    HW270766   1.371   5.425   8.955  1.2326  1.9309 -0.3743
21816SOL     OW70767   9.500  10.616   8.599  0.2841  0.1667  0.0453
21816SOL    HW170768   9.482  10.678   8.670  1.4766  0.3981  0.1619
21816SOL    HW270769   9.434  10.635   8.533 -0.6272  0.1917  0.9351
21817SOL     OW70770   3.529   6.880   0.302 -0.1391 -0.1062  0.0004
21817SOL    HW170771   3.586   6.955   0.316 -0.0630 -0.4633  1.9397
21817SOL    HW270772   3.586   6.814   0.262  0.8555 -0.4369  1.8523
21818SOL     OW70773   7.975   7.228   2.178 -0.2544  0.4673 -0.8860
21818SOL    HW170774   7.961   7.295   2.111 -1.4344 -0.5748 -1.7271
21818SOL    HW270775   7.887   7.201   2.204  0.1896 -1.0069 -0.8299
21819SOL     OW70776   7.826   8.231   3.975  0.0224 -0.2241 -0.3193
21819SOL    HW170777   7.864   8.305   4.023  0.8969 -1.8268  1.5990
21819SOL    HW270778   7.732   8.238   3.992 -0.4788  2.4173 -3.1657
21820SOL     OW70779   0.020  11.492  11.417 -0.2256 -0.5536  0.3660
21820SOL    HW170780  -0.007  11.545  11.492 -1.6807 -0.8145  0.0701
21820SOL    HW270781   0.048  11.555  11.351 -0.7475 -0.2115  0.4645
21821SOL     OW70782  10.200   7.663   1.144  0.5254  0.0331 -0.6754
21821SOL    HW170783  10.203   7.717   1.223  0.8444 -0.3083 -0.4534
21821SOL    HW270784  10.219   7.724   1.072 -0.7108  0.5487 -0.5956
21822SOL     OW70785   3.386   9.219   2.891 -0.5390 -0.2114 -0.0066
21822SOL    HW170786   3.478   9.245   2.887 -0.2462 -1.0339  1.1588
21822SOL    HW270787   3.344   9.287   2.943 -1.3350  2.0563 -3.2782
21823SOL     OW70788   7.059   5.420   9.480  0.3960 -0.0713 -0.1077
21823SOL    HW170789   6.972   5.406   9.445  1.0723 -3.0162 -0.8519
21823SOL    HW270790   7.106   5.465   9.410 -0.6088  2.0681  0.5187
21824SOL     OW70791   1.388  10.407   3.169 -0.0982  0.6380 -0.2183
21824SOL    HW170792   1.309  10.459   3.184 -0.1798  0.3200  0.5120
21824SOL    HW270793   1.401  10.360   3.251  1.6066  1.6962  0.1717
21825SOL     OW70794   2.054  10.193   6.687 -0.2695 -0.4920 -0.0632
21825SOL    HW170795   2.095  10.116   6.727  0.9857 -0.5538 -1.3520
21825SOL    HW270796   1.973  10.159   6.649 -0.5503 -0.8163  0.8007
21826SOL     OW70797  10.804   0.432   1.822  0.3834  0.5030  0.3394
21826SOL    HW170798  10.835   0.427   1.912  0.1799 -1.1647  0.3661
21826SOL    HW270799  10.756   0.350   1.809  2.2981 -0.3908 -1.9673
21827SOL     OW70800   9.848  11.723   4.474 -0.0459  0.3156  0.3784
21827SOL    HW170801   9.914  11.679   4.528 -0.5408 -0.4921  0.3383
21827SOL    HW270802   9.868  11.816   4.483  1.1661  0.0816  0.2933
21828SOL     OW70803   3.345   0.988   4.909  0.2797  0.0494 -0.2136
21828SOL    HW170804   3.253   0.993   4.881  0.9403 -0.1390 -2.6502
21828SOL    HW270805   3.348   0.910   4.964 -1.1075  0.3489  0.3387
21829SOL     OW70806   5.665   1.975   8.403 -0.0235  0.6380  0.3735
21829SOL    HW170807   5.720   1.946   8.475 -0.7547 -1.2634  0.2532
21829SOL    HW270808   5.578   1.984   8.442 -0.8220 -2.1334 -0.4860
21830SOL     OW70809   8.381  11.449   2.186  0.3243 -0.2587 -0.1778
21830SOL    HW170810   8.451  11.385   2.174  1.7716  0.5145  3.0735
21830SOL    HW270811   8.420  11.518   2.240 -1.1645  3.4447 -3.3272
21831SOL     OW70812  11.263   4.318  10.406 -0.6260 -0.0450  1.3045
21831SOL    HW170813  11.227   4.342  10.321  0.7476  0.3129  0.8048
21831SOL    HW270814  11.232   4.228  10.420  0.2531 -0.6339 -0.2331
21832SOL     OW70815   8.350   5.053   0.071 -0.2812 -0.0880  0.6145
21832SOL    HW170816   8.273   5.067   0.127 -0.4294  0.1588  0.3489
21832SOL    HW270817   8.348   4.959   0.052  0.6932 -0.5052  2.3642
21833SOL     OW70818   8.297   4.027   4.493 -0.1992 -0.0836 -0.5090
21833SOL    HW170819   8.325   4.112   4.460 -1.7766 -0.2878 -2.6367
21833SOL    HW270820   8.374   3.971   4.487  0.7223  1.0446  0.4668
21834SOL     OW70821   9.598   3.106   0.947  0.4379  0.3952 -0.2133
21834SOL    HW170822   9.625   3.194   0.920 -0.6426  1.2821  1.4263
21834SOL    HW270823   9.515   3.092   0.901 -0.2334  0.9508  0.7938
21835SOL     OW70824   1.807   2.711   0.013  0.0419 -0.1574 -0.3789
21835SOL    HW170825   1.752   2.780   0.049  0.9029  0.6618 -0.5978
21835SOL    HW270826   1.745   2.644  -0.016 -0.8013  0.4341  0.0007
21836SOL     OW70827   4.523   3.606   3.128 -0.5849 -0.0589 -0.0741
21836SOL    HW170828   4.513   3.612   3.223 -1.9962 -0.0447 -0.2008
21836SOL    HW270829   4.608   3.563   3.115 -0.6409 -0.6008  1.2029
21837SOL     OW70830   9.758   7.653   3.527  0.3884  0.2345 -0.0201
21837SOL    HW170831   9.696   7.725   3.514  0.8722  0.4809 -1.0168
21837SOL    HW270832   9.743   7.594   3.453  1.0760  0.1046 -0.0592
21838SOL     OW70833  11.604   7.769   6.023  0.4008  0.3443  0.5334
21838SOL    HW170834  11.682   7.714   6.029 -1.1074 -2.4345 -2.5864
21838SOL    HW270835  11.618   7.823   5.945 -0.8534 -0.4184 -0.2538
21839SOL     OW70836  10.081   6.382   4.655  0.0178  0.1928  0.1723
21839SOL    HW170837  10.144   6.309   4.656 -0.9217 -0.6572 -0.4408
21839SOL    HW270838  10.120   6.446   4.595 -0.1851 -0.8167 -1.0918
21840SOL     OW70839   1.074  10.040  11.595 -0.1847 -0.3314 -0.3382
21840SOL    HW170840   1.066  10.003  11.683 -0.7214  0.2839 -0.1158
21840SOL    HW270841   1.127   9.977  11.547 -0.2496 -0.8890  0.3057
21841SOL     OW70842   1.613   5.768  11.527  0.3764 -0.5505  0.4149
21841SOL    HW170843   1.605   5.851  11.575  0.9539  0.6967 -1.5025
21841SOL    HW270844   1.534   5.764  11.473  0.1839 -1.4413  0.7552
21842SOL     OW70845   2.683   7.599   9.108  0.1954  0.3697 -0.0312
21842SOL    HW170846   2.743   7.570   9.039  0.4027 -3.3706  1.5127
21842SOL    HW270847   2.615   7.648   9.061  1.0075 -0.9031 -2.7480
21843SOL     OW70848   5.717   0.180   6.755 -0.0397 -0.1056  0.0728
21843SOL    HW170849   5.744   0.089   6.746 -0.1296 -0.0029 -1.6546
21843SOL    HW270850   5.623   0.180   6.735  0.1561  0.4814 -0.9167
21844SOL     OW70851   6.285   7.034   3.055 -0.0455 -0.2041 -0.7821
21844SOL    HW170852   6.281   6.947   3.017 -1.2664  0.0330 -1.2475
21844SOL    HW270853   6.364   7.073   3.017  0.2037 -0.9015 -1.0014
21845SOL     OW70854   3.734   5.912   4.551  0.4936 -0.5932  0.1750
21845SOL    HW170855   3.788   5.966   4.609  1.9563  0.1527 -1.7932
21845SOL    HW270856   3.774   5.825   4.555  0.3087 -0.6616  0.6107
21846SOL     OW70857   1.943   7.836   2.177 -0.0092  0.1452  0.2100
21846SOL    HW170858   1.863   7.815   2.128 -0.9830  0.8467  1.4488
21846SOL    HW270859   1.912   7.855   2.265  1.5830  0.1179  0.7892
21847SOL     OW70860   7.094   8.267   9.683  0.4977 -0.3920  0.0093
21847SOL    HW170861   7.039   8.344   9.700 -0.7293 -0.4580 -3.0216
21847SOL    HW270862   7.081   8.211   9.759 -1.0233  1.0536  0.8814
21848SOL     OW70863   9.003  11.161   6.193  0.8997 -0.2364 -0.0408
21848SOL    HW170864   8.955  11.227   6.144 -0.2150 -0.6101  0.5022
21848SOL    HW270865   9.032  11.098   6.127  0.6892  0.0336 -0.3941
21849SOL     OW70866  10.847  10.157   3.114  0.0695 -0.3295 -0.0400
21849SOL    HW170867  10.834  10.099   3.039 -0.7117  0.1413 -0.2867
21849SOL    HW270868  10.859  10.244   3.074 -1.0304  0.0349  0.3867
21850SOL     OW70869   9.004   2.733   6.465  0.3235  0.3695 -0.2910
21850SOL    HW170870   9.001   2.828   6.451 -0.4764  0.4384  0.3016
21850SOL    HW270871   9.071   2.721   6.532  0.9610  0.4406 -0.9050
21851SOL     OW70872   1.745  11.811   7.040  0.4819 -0.7993  0.3151
21851SOL    HW170873   1.788  11.827   7.124 -0.8903 -1.6370  1.2127
21851SOL    HW270874   1.818  11.798   6.979  1.5258  1.1482  1.0576
21852SOL     OW70875   3.420   7.834   0.598  0.4680 -0.0889  0.3546
21852SOL    HW170876   3.361   7.786   0.657  1.2284 -0.6757  0.6557
21852SOL    HW270877   3.459   7.766   0.543  0.0230  0.4162 -0.6096
21853SOL     OW70878   7.337   2.418   0.342  0.1441  0.4097  0.2824
21853SOL    HW170879   7.270   2.361   0.304  0.4309  0.1343  0.1835
21853SOL    HW270880   7.334   2.498   0.288  0.2451  0.1964 -0.0446
21854SOL     OW70881   6.377   3.161   1.671  0.0773  0.1062 -0.1245
21854SOL    HW170882   6.423   3.090   1.715 -0.1073  0.2567  0.3207
21854SOL    HW270883   6.395   3.148   1.578 -0.5737 -0.9689 -0.1180
21855SOL     OW70884   7.581   2.460   5.068  0.3053  0.0282 -0.2990
21855SOL    HW170885   7.620   2.538   5.109  1.2487 -0.6823  0.1941
21855SOL    HW270886   7.578   2.481   4.975  1.0491  0.4654 -0.2360
21856SOL     OW70887   2.048   8.042   5.938 -0.3767 -0.3740  0.1630
21856SOL    HW170888   2.051   7.946   5.942 -0.0830 -0.3336  1.4736
21856SOL    HW270889   2.109   8.070   6.006 -1.0243  0.7374  0.3067
21857SOL     OW70890   7.951   4.471   9.420  0.2985 -0.0152  0.2659
21857SOL    HW170891   7.923   4.383   9.394  0.7628 -0.3442  0.8744
21857SOL    HW270892   7.885   4.529   9.382 -0.4577 -0.6804  0.5541
21858SOL     OW70893   5.806   7.907   9.319 -0.3136 -0.1305 -0.3791
21858SOL    HW170894   5.711   7.914   9.334 -0.4031 -0.9243 -0.5202
21858SOL    HW270895   5.816   7.916   9.225 -0.1029  1.2622 -0.2505
21859SOL     OW70896   3.948   4.971   4.397 -0.4338 -0.7275 -0.1440
21859SOL    HW170897   3.961   5.058   4.435 -1.6390  0.0282 -1.3711
21859SOL    HW270898   3.855   4.967   4.376 -0.2940 -2.1100 -0.6054
21860SOL     OW70899  11.191   7.793   0.937  0.5987 -0.3002  0.8871
21860SOL    HW170900  11.099   7.815   0.926  0.6852  0.3545  1.4226
21860SOL    HW270901  11.191   7.716   0.994  0.3010 -1.6431 -0.8449
21861SOL     OW70902   5.167   2.433   6.891 -0.3912  0.1833  0.8862
21861SOL    HW170903   5.179   2.419   6.985 -0.7306  0.9542  1.0473
21861SOL    HW270904   5.196   2.351   6.852  1.2576  0.4110  1.5513
21862SOL     OW70905   0.672   8.443   0.678 -0.1369 -0.1251 -0.0452
21862SOL    HW170906   0.702   8.434   0.768  1.8065  0.9339 -0.5161
21862SOL    HW270907   0.625   8.527   0.677  0.7428  0.3784 -0.2080
21863SOL     OW70908   0.770   8.409   5.223 -0.1175 -0.7537  0.6185
21863SOL    HW170909   0.799   8.393   5.313  0.6608 -1.7066  0.2132
21863SOL    HW270910   0.823   8.350   5.170 -0.2032  0.1664 -0.5271
21864SOL     OW70911   4.853   0.925  10.802 -0.4653 -0.1946  0.0176
21864SOL    HW170912   4.903   0.979  10.741  2.6563 -0.1233  2.3851
21864SOL    HW270913   4.808   0.988  10.858  1.6181  0.0581  1.5396
21865SOL     OW70914   5.272   5.032   1.946 -0.4945 -0.1645 -0.5594
21865SOL    HW170915   5.268   5.125   1.922  0.3719  0.0220 -0.0301
21865SOL    HW270916   5.194   4.993   1.906 -1.5969  1.0543  0.3210
21866SOL     OW70917   6.110  11.347   3.882  0.2196 -0.3457  0.3510
21866SOL    HW170918   6.018  11.325   3.863 -0.1146  0.7130  0.6842
21866SOL    HW270919   6.105  11.422   3.942  1.2970  0.6324 -0.7310
21867SOL     OW70920  10.641   6.563  10.920 -0.2009  0.2591 -0.0082
21867SOL    HW170921  10.729   6.589  10.891 -0.3237  1.0235  0.2928
21867SOL    HW270922  10.614   6.632  10.981 -1.2610  0.3539 -0.5621
21868SOL     OW70923   2.998   0.602   6.302  0.3196  0.0526 -0.2028
21868SOL    HW170924   2.946   0.671   6.344  1.7197  1.4311 -0.6022
21868SOL    HW270925   2.990   0.527   6.360 -0.2046  0.9714  0.9630
21869SOL     OW70926   8.939  11.121   9.493  0.1924  0.0939  0.1434
21869SOL    HW170927   8.854  11.077   9.486  0.6971 -0.7533 -1.4149
21869SOL    HW270928   8.986  11.073   9.561 -0.7591  0.9497  1.4433
21870SOL     OW70929   5.280   6.791   4.784  0.1683  0.3269  0.3948
21870SOL    HW170930   5.246   6.723   4.843 -0.3849  2.5746  2.8125
21870SOL    HW270931   5.206   6.811   4.727 -0.1812  0.0364  0.7371
21871SOL     OW70932   1.475   4.332   4.081  0.3185  0.1570 -0.0336
21871SOL    HW170933   1.552   4.314   4.135 -0.2110  0.1198  0.7223
21871SOL    HW270934   1.450   4.422   4.104 -0.4555 -0.1849  0.4641
21872SOL     OW70935   7.057   8.118   9.913  0.4930 -0.0745  0.4835
21872SOL    HW170936   7.051   8.132  10.007  1.0031 -0.2559  0.5474
21872SOL    HW270937   6.986   8.057   9.892  2.0690 -2.3178  1.2253
21873SOL     OW70938   7.697  11.524   1.638 -0.1376  0.4789 -0.0242
21873SOL    HW170939   7.685  11.440   1.593 -2.4702 -0.3256  1.8823
21873SOL    HW270940   7.630  11.581   1.602  0.2399  0.9577  0.0153
21874SOL     OW70941   4.974   4.961   0.145  0.3422  0.0046 -0.5553
21874SOL    HW170942   5.049   4.922   0.190 -0.1262 -0.6706 -0.3473
21874SOL    HW270943   4.943   4.892   0.087  0.6451  0.7057 -1.5728
21875SOL     OW70944   1.717   5.681  10.683 -0.4234  0.2603 -0.3873
21875SOL    HW170945   1.788   5.688  10.619  0.4961 -0.9661  0.4303
21875SOL    HW270946   1.685   5.770  10.694  1.6397  1.0120 -0.0881
21876SOL     OW70947   0.598  10.918   8.304 -0.2616  0.2559 -0.1608
21876SOL    HW170948   0.625  11.000   8.346  0.2148  0.1348 -0.2228
21876SOL    HW270949   0.540  10.946   8.233 -2.0173  0.3885  1.2849
21877SOL     OW70950   5.784   1.957   9.489  0.7684 -0.2406  0.1020
21877SOL    HW170951   5.709   2.017   9.490  1.5881  0.9384 -1.9528
21877SOL    HW270952   5.819   1.960   9.578 -0.8339  0.1942  0.7494
21878SOL     OW70953   4.259   9.786  11.270 -0.6039  0.4251 -0.1783
21878SOL    HW170954   4.236   9.755  11.183  0.0072  0.0072 -0.1983
21878SOL    HW270955   4.180   9.827  11.303 -1.1810 -0.4045 -0.4937
21879SOL     OW70956   5.177   8.668  10.336 -0.0717  0.0524 -0.0716
21879SOL    HW170957   5.170   8.723  10.414  1.9867  2.8651 -1.6687
21879SOL    HW270958   5.100   8.689  10.283 -0.1295  0.1575  0.0568
21880SOL     OW70959  10.766  10.080   5.135 -0.0126  0.5312  0.3541
21880SOL    HW170960  10.827  10.083   5.208 -1.6682  0.8847  1.7923
21880SOL    HW270961  10.804  10.017   5.074  1.6379  0.5765  1.2947
21881SOL     OW70962   6.004   0.078   7.001 -0.0110  0.0284  0.3046
21881SOL    HW170963   6.090   0.107   7.030  0.0685 -0.3638  0.4633
21881SOL    HW270964   5.961   0.158   6.970  0.5163  0.1830 -0.0501
21882SOL     OW70965   9.092  10.786   8.275 -0.0620  0.3637  0.8640
21882SOL    HW170966   9.109  10.800   8.182 -1.2512 -0.3389  0.5128
21882SOL    HW270967   9.024  10.850   8.296 -1.0359 -0.6183  0.7975
21883SOL     OW70968   7.137   1.888   5.563  0.8855 -0.1382  0.3249
21883SOL    HW170969   7.197   1.963   5.572  1.2168  0.0170 -2.3335
21883SOL    HW270970   7.163   1.828   5.633  2.5862  0.9398  0.6872
21884SOL     OW70971  10.093   2.550   3.773 -0.0163  0.5890  0.3363
21884SOL    HW170972  10.139   2.632   3.788  0.0854  0.4979  0.5265
21884SOL    HW270973  10.006   2.564   3.810 -0.3457  0.9650 -0.5412
21885SOL     OW70974   2.645  10.753   7.653  0.4705  0.4338 -0.0253
21885SOL    HW170975   2.599  10.681   7.695 -1.5284  1.1547 -0.8615
21885SOL    HW270976   2.717  10.712   7.606 -0.0174 -0.8940  0.3548
21886SOL     OW70977  11.811   0.154   6.610  0.2910  0.4106 -0.0818
21886SOL    HW170978  11.758   0.127   6.534  0.6323 -2.5544  0.6477
21886SOL    HW270979  11.805   0.081   6.671  0.2073  2.6137  2.7424
21887SOL     OW70980   2.125   6.589   8.673 -0.2290 -0.0314  0.4636
21887SOL    HW170981   2.133   6.500   8.639 -2.3517  0.3056 -1.1417
21887SOL    HW270982   2.203   6.635   8.639  1.3696 -1.4182  2.0740
21888SOL     OW70983  10.764   9.061  11.121 -0.0142  0.2803  0.2147
21888SOL    HW170984  10.803   9.027  11.201  0.6499  0.9850  0.2031
21888SOL    HW270985  10.758   8.985  11.063  1.6641  0.2101  0.0906
21889SOL     OW70986   3.255   6.536   6.713 -0.0576  0.0992  0.2934
21889SOL    HW170987   3.338   6.560   6.755 -0.4761  0.6938  0.8250
21889SOL    HW270988   3.205   6.618   6.713 -0.9982 -0.4583  0.8449
21890SOL     OW70989   7.704   6.209  11.175 -0.1120 -0.3432  0.5987
21890SOL    HW170990   7.674   6.237  11.089  1.1328  2.5025  0.9806
21890SOL    HW270991   7.799   6.214  11.170  0.0312 -1.4075  1.7680
21891SOL     OW70992   1.805   7.097   9.135  0.0493 -0.8411 -0.1817
21891SOL    HW170993   1.803   7.089   9.230  0.6440 -2.5997 -0.2807
21891SOL    HW270994   1.894   7.127   9.115 -0.5369  1.0792 -0.1377
21892SOL     OW70995   9.865   4.702   8.211 -0.2953 -0.1018 -0.2273
21892SOL    HW170996   9.825   4.642   8.274  0.3496 -0.4312 -0.1238
21892SOL    HW270997   9.854   4.788   8.250 -2.4695  0.0299 -1.0196
21893SOL     OW70998   6.714   6.618   5.009  0.3098  0.6668  0.8705
21893SOL    HW170999   6.749   6.675   4.940  0.4678 -0.4374  0.0045
21893SOL    HW271000   6.787   6.607   5.070  0.8186  0.0700  0.1708
21894SOL     OW71001   2.517  10.978   7.523  0.6743  0.3256  0.0265
21894SOL    HW171002   2.558  10.901   7.562 -1.3671 -0.2664  1.1661
21894SOL    HW271003   2.568  10.995   7.444  0.3513 -3.1273 -1.1133
21895SOL     OW71004  11.413   0.664   8.885 -0.2779  0.2795 -0.1847
21895SOL    HW171005  11.410   0.695   8.976 -0.6894  0.0614 -0.1197
21895SOL    HW271006  11.323   0.636   8.867 -0.4678  1.4088 -1.0432
21896SOL     OW71007   3.698   5.276   3.425  0.4367  0.0941 -0.0812
21896SOL    HW171008   3.731   5.224   3.352  0.2767  0.0679 -0.1358
21896SOL    HW271009   3.706   5.367   3.396 -1.0941  0.0460 -0.7828
21897SOL     OW71010  11.464   5.607   3.086  0.9734 -0.5925  0.0578
21897SOL    HW171011  11.513   5.605   3.004 -1.1082  2.3365 -1.4220
21897SOL    HW271012  11.525   5.645   3.150  1.6276  0.0769 -0.9401
21898SOL     OW71013   0.252  11.173   6.826 -0.1568 -0.5381  0.1124
21898SOL    HW171014   0.304  11.201   6.902  1.3190 -0.4062 -0.9029
21898SOL    HW271015   0.189  11.244   6.813 -1.2878 -1.1408  1.9395
21899SOL     OW71016  11.510   9.499   1.466  0.6324  0.1091 -0.2287
21899SOL    HW171017  11.527   9.580   1.515 -0.5405  0.5513 -0.5219
21899SOL    HW271018  11.512   9.527   1.374  0.9724 -0.3573 -0.3672
21900SOL     OW71019   5.832   3.031   6.331  0.0343  0.4662 -0.0220
21900SOL    HW171020   5.887   3.078   6.269  0.7233 -0.1195  0.1227
21900SOL    HW271021   5.777   2.974   6.277 -0.7064  1.3254 -0.1880
21901SOL     OW71022   3.448   8.955   2.926  0.1253  0.9779 -0.2020
21901SOL    HW171023   3.453   9.048   2.902  0.3503  0.8701 -0.5801
21901SOL    HW271024   3.524   8.915   2.884  0.3168  0.7123  0.3815
21902SOL     OW71025   7.459   9.329   1.097  0.5219  0.0220 -0.6191
21902SOL    HW171026   7.554   9.336   1.105  0.4680  0.6805 -0.4557
21902SOL    HW271027   7.445   9.249   1.046  1.1770  0.1040 -0.9452
21903SOL     OW71028   2.492   6.416   4.965 -0.7451 -0.7811 -0.0284
21903SOL    HW171029   2.510   6.432   4.872 -0.9855  1.5436  0.2541
21903SOL    HW271030   2.521   6.326   4.980  0.2776 -0.8689 -2.1040
21904SOL     OW71031   6.528  11.453   3.839  0.0636 -0.0179 -0.2286
21904SOL    HW171032   6.604  11.495   3.797  2.5443 -1.7209  2.2198
21904SOL    HW271033   6.515  11.502   3.920  0.9178 -1.8399  1.0851
21905SOL     OW71034   2.191   3.028   5.322  0.7133 -0.5635  0.1919
21905SOL    HW171035   2.123   2.994   5.264 -0.6650  1.2307  0.6488
21905SOL    HW271036   2.237   3.093   5.269  1.2346 -0.8661  0.2732
21906SOL     OW71037   6.246   1.019   0.388  0.2829 -0.0934 -0.1248
21906SOL    HW171038   6.211   0.939   0.428 -1.6302  0.7422 -0.0378
21906SOL    HW271039   6.293   1.063   0.458 -0.1122 -0.2997  0.2683
21907SOL     OW71040   9.971   1.508   5.618  0.6349 -0.0127 -0.4329
21907SOL    HW171041  10.040   1.528   5.555  0.3249 -2.1478 -1.5433
21907SOL    HW271042   9.999   1.427   5.661  0.0227  0.4828  0.9662
21908SOL     OW71043   1.209   1.891   9.880 -0.3108  0.0087 -0.1838
21908SOL    HW171044   1.209   1.888   9.976 -0.6469 -1.3866 -0.2022
21908SOL    HW271045   1.289   1.844   9.855  1.2235  2.6750 -0.5944
21909SOL     OW71046   6.803   2.993   5.150  0.1762  0.2389  0.2413
21909SOL    HW171047   6.792   2.898   5.151  1.9523 -0.0319 -0.9160
21909SOL    HW271048   6.769   3.020   5.065  0.1247  0.5706  0.3650
21910SOL     OW71049   3.810   5.426   9.365  0.0142 -0.4702 -0.8238
21910SOL    HW171050   3.740   5.490   9.378 -1.1766 -1.7536 -0.5989
21910SOL    HW271051   3.870   5.467   9.303 -1.0529  0.5905 -1.1861
21911SOL     OW71052   3.277   6.406   6.315  0.2015 -0.7817  0.0505
21911SOL    HW171053   3.337   6.406   6.389  0.9982 -1.6951 -0.5696
21911SOL    HW271054   3.308   6.477   6.259 -0.5303  0.0481  0.6716
21912SOL     OW71055   1.118   3.224   8.263  0.1050 -0.0784  0.1620
21912SOL    HW171056   1.157   3.142   8.293  0.4462  0.4646  1.2674
21912SOL    HW271057   1.036   3.231   8.313 -0.5520 -0.3483 -0.8515
21913SOL     OW71058  11.117   3.083   0.121 -0.5016 -0.7859  0.2243
21913SOL    HW171059  11.146   3.052   0.035 -1.3187 -1.9458  0.3408
21913SOL    HW271060  11.190   3.135   0.154 -0.3490  0.0599 -1.3500
21914SOL     OW71061   5.565   8.016   0.519 -0.1231 -0.0355  0.1544
21914SOL    HW171062   5.539   7.965   0.596  1.8517 -1.3324  0.0410
21914SOL    HW271063   5.497   7.998   0.454 -0.5834 -0.8050  0.8302
21915SOL     OW71064   3.755   0.852   7.615  0.2351 -0.1275 -0.0318
21915SOL    HW171065   3.849   0.872   7.613  0.2695 -0.2977 -1.9933
21915SOL    HW271066   3.713   0.929   7.578 -0.2565 -0.6688 -0.6233
21916SOL     OW71067   3.223  11.739   6.128  0.3205 -0.1893 -0.2115
21916SOL    HW171068   3.171  11.799   6.075 -1.4693 -1.4192  0.0434
21916SOL    HW271069   3.232  11.784   6.212  0.9728  0.6723 -0.7236
21917SOL     OW71070  10.180   5.479   5.369  0.1652 -0.4770 -0.0889
21917SOL    HW171071  10.234   5.543   5.321  0.6974 -0.7116  0.1830
21917SOL    HW271072  10.237   5.448   5.439 -0.9877  0.7084  1.4263
21918SOL     OW71073   3.804   6.048   4.996  0.1155  0.9681  0.2801
21918SOL    HW171074   3.860   6.105   5.049  1.1453 -0.7563  1.1276
21918SOL    HW271075   3.742   6.010   5.058 -1.7763  2.4778 -0.5673
21919SOL     OW71076   5.457   3.723   9.776 -0.5317 -0.3438 -0.8620
21919SOL    HW171077   5.461   3.666   9.853  1.8646  0.3768 -0.3575
21919SOL    HW271078   5.444   3.811   9.812 -0.4942 -0.1337 -1.3585
21920SOL     OW71079   0.325   2.169   5.398 -0.1656  0.2603  0.0312
21920SOL    HW171080   0.292   2.255   5.375  1.3891  0.4661 -1.6829
21920SOL    HW271081   0.420   2.178   5.393  0.0589 -2.1286 -2.8300
21921SOL     OW71082  11.595   3.557   9.043  0.2936  0.5316  0.1008
21921SOL    HW171083  11.542   3.524   9.116 -0.5114 -0.9331 -1.0988
21921SOL    HW271084  11.563   3.510   8.966  1.7771  1.3259 -1.0650
21922SOL     OW71085   4.631   5.440   2.724  0.0266 -0.2010  0.1709
21922SOL    HW171086   4.684   5.485   2.659 -0.0558 -0.6934 -0.2465
21922SOL    HW271087   4.694   5.397   2.781  0.0939 -0.0186  0.2341
21923SOL     OW71088   3.873   0.859   1.489  0.0934  0.7455  0.0810
21923SOL    HW171089   3.882   0.946   1.450 -2.5135 -0.3245 -3.5078
21923SOL    HW271090   3.962   0.825   1.493  1.2195  3.4908  1.7510
21924SOL     OW71091   6.303   6.797   6.999 -0.1735  0.2428  0.2438
21924SOL    HW171092   6.215   6.759   7.007  0.8684 -2.5060 -0.3669
21924SOL    HW271093   6.358   6.725   6.969  1.6499  2.7611 -3.1439
21925SOL     OW71094   7.002  11.431   8.585 -0.6878  0.0578 -0.0571
21925SOL    HW171095   7.058  11.366   8.542 -1.0367 -0.4518  0.2464
21925SOL    HW271096   6.960  11.477   8.512 -1.1016 -0.6480 -0.2855
21926SOL     OW71097   5.833   5.330   8.332 -0.6816  0.0756 -0.0682
21926SOL    HW171098   5.877   5.269   8.391 -0.0538  0.7503  0.1785
21926SOL    HW271099   5.740   5.323   8.354 -0.6431 -0.9269 -0.1837
21927SOL     OW71100  11.128   6.567   3.526 -0.0626  0.2453 -0.0921
21927SOL    HW171101  11.118   6.577   3.431  1.6094  2.1261 -0.1201
21927SOL    HW271102  11.080   6.486   3.546 -0.4835 -0.1891 -2.5092
21928SOL     OW71103  10.650   3.647  10.221 -0.5895  0.7966  0.1516
21928SOL    HW171104  10.662   3.681  10.132 -0.7668  1.9959  0.5670
21928SOL    HW271105  10.560   3.670  10.244 -1.1111 -1.0089  0.0388
21929SOL     OW71106  11.170   0.024  11.703  0.0274 -0.1114 -0.2626
21929SOL    HW171107  11.185  -0.067  11.726 -0.9425 -0.3684 -0.6246
21929SOL    HW271108  11.244   0.047  11.646  0.3351 -0.6354 -0.0741
21930SOL     OW71109  10.898   2.530   5.008 -1.2665  0.7512  0.3992
21930SOL    HW171110  10.886   2.454   4.952 -0.2270  1.5557 -0.9731
21930SOL    HW271111  10.819   2.583   4.995 -0.1408  1.9591 -2.0305
21931SOL     OW71112   8.556   9.199   2.850  0.2835  0.0714 -0.3430
21931SOL    HW171113   8.474   9.186   2.803  0.0970 -0.1850  0.0457
21931SOL    HW271114   8.591   9.111   2.863  0.5396  0.1683 -0.3669
21932SOL     OW71115   6.554   1.374   0.680  0.4351  0.7528 -0.3015
21932SOL    HW171116   6.585   1.411   0.598  1.8483  0.5159  0.1057
21932SOL    HW271117   6.530   1.450   0.733 -0.6920  0.8994 -0.9875
21933SOL     OW71118   1.912   7.318   4.291 -0.2146 -0.1457 -0.1010
21933SOL    HW171119   1.844   7.310   4.357  1.3782 -0.2777  1.6212
21933SOL    HW271120   1.931   7.228   4.264  0.5759 -0.2767  0.8478
21934SOL     OW71121   5.911   2.437   7.203 -0.2446  0.4930  0.0673
21934SOL    HW171122   5.950   2.496   7.268  0.8901  1.4532 -1.4166
21934SOL    HW271123   5.982   2.375   7.182  0.9822  2.8127 -3.3356
21935SOL     OW71124   7.455   3.169   8.791  0.1016  0.4053  0.6026
21935SOL    HW171125   7.524   3.229   8.817  1.0779 -0.7065  0.6458
21935SOL    HW271126   7.417   3.139   8.874  0.3963  0.0767  0.6196
21936SOL     OW71127   7.322   9.891  10.169  0.0953 -0.1538 -0.3473
21936SOL    HW171128   7.274   9.962  10.212  1.0651  1.3069 -1.5901
21936SOL    HW271129   7.257   9.850  10.112 -0.3531  0.0632 -0.0010
21937SOL     OW71130  10.017   7.429   1.677  0.2728 -0.2330  0.2853
21937SOL    HW171131   9.942   7.379   1.646 -0.0775 -0.5098  1.5337
21937SOL    HW271132   9.983   7.518   1.691  0.0075 -0.4858  1.3804
21938SOL     OW71133   5.798   6.830   6.207 -0.0587  0.4921  0.0122
21938SOL    HW171134   5.876   6.825   6.151  1.6831  0.0224  2.3141
21938SOL    HW271135   5.815   6.905   6.265 -1.1806  0.1985  0.7545
21939SOL     OW71136   9.961   9.991   9.170 -0.4117 -0.1846  0.3795
21939SOL    HW171137  10.026  10.045   9.215  0.5556  0.4434 -1.6285
21939SOL    HW271138  10.011   9.946   9.102 -1.8110 -0.9446 -0.1905
21940SOL     OW71139   2.562   8.276   7.547 -0.3863 -0.2950  0.4114
21940SOL    HW171140   2.530   8.187   7.563 -0.0598 -0.2184  1.5710
21940SOL    HW271141   2.643   8.264   7.498 -0.2793 -0.6453  0.6701
21941SOL     OW71142  11.254   2.524   3.928 -0.4239 -0.4806 -0.1146
21941SOL    HW171143  11.195   2.453   3.901 -0.9841 -0.4606  1.0164
21941SOL    HW271144  11.224   2.548   4.015  1.9403 -1.2211  0.9910
21942SOL     OW71145   4.622  11.071   2.541 -0.0683 -0.5432 -0.0991
21942SOL    HW171146   4.549  11.010   2.555  0.0063 -0.5893  0.0873
21942SOL    HW271147   4.680  11.057   2.616  0.1060 -0.4676 -0.2185
21943SOL     OW71148   1.225  10.697   1.446 -0.3955  0.1416  0.5825
21943SOL    HW171149   1.161  10.755   1.487  2.3590  2.4832  1.9478
21943SOL    HW271150   1.257  10.747   1.371  0.5576 -0.5112  0.5342
21944SOL     OW71151   3.870   0.718   7.397  0.3056 -0.1911 -0.2202
21944SOL    HW171152   3.852   0.625   7.393 -0.5031 -0.0091 -1.1819
21944SOL    HW271153   3.825   0.748   7.477 -3.0990  0.0808 -2.0644
21945SOL     OW71154   5.894   7.858   5.181 -0.5588  0.1304  0.1713
21945SOL    HW171155   5.814   7.902   5.211  0.0122  0.6607  0.9658
21945SOL    HW271156   5.923   7.807   5.257  1.4197  2.2164  0.9279
21946SOL     OW71157  11.804   6.641   2.175  0.4670  0.2839 -0.1700
21946SOL    HW171158  11.778   6.732   2.161  0.2149 -0.1327 -3.2308
21946SOL    HW271159  11.722   6.593   2.182  0.5174 -0.0243 -1.4832
21947SOL     OW71160   9.954   1.249   7.758  0.1610  0.6720  0.0462
21947SOL    HW171161   9.878   1.289   7.716  1.5905  1.0471 -2.3765
21947SOL    HW271162   9.957   1.160   7.723  2.7634  1.7121 -2.9164
21948SOL     OW71163   2.937  10.419  10.787  0.1529  0.3079 -0.2557
21948SOL    HW171164   3.017  10.433  10.838 -0.4392 -2.3683  1.5981
21948SOL    HW271165   2.879  10.370  10.845 -1.5261 -0.8159 -2.7031
21949SOL     OW71166   5.310  10.750   5.790 -0.1053 -0.5577 -0.4540
21949SOL    HW171167   5.282  10.725   5.701  1.3910  0.7559 -1.3502
21949SOL    HW271168   5.388  10.697   5.806  0.4308  0.2052 -0.5073
21950SOL     OW71169   5.706   2.639   7.320  0.5267 -0.2324  0.6361
21950SOL    HW171170   5.677   2.549   7.310 -0.0256 -0.1248  1.2255
21950SOL    HW271171   5.674   2.684   7.241  0.6433 -0.5031  0.4330
21951SOL     OW71172   8.776  10.815   9.239  0.4750  0.3086  0.5292
21951SOL    HW171173   8.755  10.796   9.148  0.8176 -1.9685  0.8741
21951SOL    HW271174   8.704  10.777   9.289  1.5657 -0.7927  1.3161
21952SOL     OW71175   1.030   5.315   0.856  0.5882 -0.1580  0.6119
21952SOL    HW171176   0.952   5.369   0.843  0.1426 -1.2726 -2.0422
21952SOL    HW271177   1.091   5.372   0.902 -1.1437  1.3520  1.1424
21953SOL     OW71178   7.399   6.577   7.391  0.0044 -0.2957 -0.4298
21953SOL    HW171179   7.319   6.525   7.389  0.1981 -0.9630  3.2458
21953SOL    HW271180   7.462   6.526   7.341 -1.0143 -1.3594 -0.6725
21954SOL     OW71181   4.046   0.381  11.557 -0.2709  0.2258 -0.2089
21954SOL    HW171182   4.084   0.351  11.474  0.1473  1.1085 -0.3489
21954SOL    HW271183   4.100   0.339  11.624  0.3100  0.6522 -0.4006
21955SOL     OW71184   8.462   7.022   1.713 -0.6076  0.2388  0.2359
21955SOL    HW171185   8.395   7.000   1.648  0.8707 -1.2643 -0.8770
21955SOL    HW271186   8.511   6.940   1.725  1.0997  1.3072  0.9083
21956SOL     OW71187   9.397   6.379   4.209 -0.8155  0.7800 -0.4000
21956SOL    HW171188   9.363   6.296   4.241 -0.1991 -0.0371 -1.7659
21956SOL    HW271189   9.353   6.446   4.263 -1.5038 -0.4032  0.5477
21957SOL     OW71190   5.929   1.410   8.475  0.0034 -0.6298 -0.5199
21957SOL    HW171191   5.940   1.317   8.458  0.4247 -0.8126  0.6697
21957SOL    HW271192   5.835   1.421   8.489 -0.2239 -0.6377 -1.8898
21958SOL     OW71193   7.726  10.744   0.754  0.4509  0.1133  0.0504
21958SOL    HW171194   7.655  10.733   0.690  1.0120 -0.4242 -0.4963
21958SOL    HW271195   7.715  10.671   0.815  0.9612 -0.4231 -0.4718
21959SOL     OW71196   0.323   3.355   5.746 -0.1242 -0.8926 -0.0857
21959SOL    HW171197   0.407   3.393   5.770 -0.7321 -0.2314  1.0708
21959SOL    HW271198   0.323   3.269   5.787 -0.5854 -0.3185  1.1566
21960SOL     OW71199   6.088   8.054   9.224  0.0807 -0.5894 -0.0112
21960SOL    HW171200   5.999   8.027   9.246 -0.7939  2.1110  0.1673
21960SOL    HW271201   6.093   8.042   9.129 -0.8382  0.0929 -0.1657
21961SOL     OW71202   8.296  11.442   4.697  0.1504  0.1137 -0.1461
21961SOL    HW171203   8.319  11.478   4.611  0.8619 -0.1406 -0.0758
21961SOL    HW271204   8.285  11.348   4.681 -1.1124  0.2610 -0.2189
21962SOL     OW71205   2.586   9.298  10.149  0.2414  0.2128  0.3641
21962SOL    HW171206   2.563   9.292  10.056  1.3488 -2.2974  0.1550
21962SOL    HW271207   2.504   9.319  10.193 -1.0379 -1.7363 -0.9131
21963SOL     OW71208   7.873   5.471   4.013 -0.1167  0.1505  0.2379
21963SOL    HW171209   7.885   5.376   4.015  1.9377  0.3888  0.5343
21963SOL    HW271210   7.900   5.496   3.925  0.1633  0.5703  0.4461
21964SOL     OW71211   3.694   0.040  10.164 -0.0588  0.2042  0.3348
21964SOL    HW171212   3.600   0.052  10.148 -0.4130 -0.5376  1.6360
21964SOL    HW271213   3.729   0.009  10.081 -1.1886 -0.6061  0.1404
21965SOL     OW71214   9.718   4.505   3.988 -0.0733  0.3980  0.3091
21965SOL    HW171215   9.707   4.599   3.971 -1.1505  0.6804  2.2724
21965SOL    HW271216   9.674   4.462   3.915 -1.6411  1.4778  0.5557
21966SOL     OW71217   7.758   1.418   5.930 -0.5373  0.1385  0.3431
21966SOL    HW171218   7.841   1.453   5.898 -0.0692 -0.1926  1.1524
21966SOL    HW271219   7.773   1.403   6.024 -0.7134 -2.1342  0.0639
21967SOL     OW71220   2.527   1.411   8.709  0.2393  0.0876  0.3797
21967SOL    HW171221   2.603   1.417   8.651 -0.3590 -2.3276 -0.7607
21967SOL    HW271222   2.452   1.401   8.650 -0.7257  0.3408  1.5233
21968SOL     OW71223   0.108   9.141   1.131 -0.1632  0.1183 -0.1098
21968SOL    HW171224   0.138   9.072   1.191 -1.1712 -1.6371 -1.5156
21968SOL    HW271225   0.014   9.126   1.122  0.0236 -0.0399 -2.4963
21969SOL     OW71226   5.815  10.693   8.569 -0.4045 -0.0818 -0.0018
21969SOL    HW171227   5.872  10.651   8.504  0.8713 -1.0329  1.6486
21969SOL    HW271228   5.869  10.763   8.607 -0.2506 -1.0400  1.6370
21970SOL     OW71229   4.710   8.583  11.095  0.5203 -0.3088  0.1136
21970SOL    HW171230   4.664   8.637  11.159 -0.1748 -2.8838  1.9400
21970SOL    HW271231   4.660   8.501  11.092  1.1238 -0.6836 -3.0087
21971SOL     OW71232   7.803   8.788   7.603 -0.2343  0.6072 -0.0639
21971SOL    HW171233   7.867   8.752   7.542 -0.7371 -0.9922  0.3047
21971SOL    HW271234   7.854   8.815   7.679 -0.0998 -2.4268  1.0428
21972SOL     OW71235   2.173   7.440   0.808 -0.3685  0.5355  0.2646
21972SOL    HW171236   2.168   7.511   0.872  2.0753 -0.4551  1.6828
21972SOL    HW271237   2.116   7.372   0.844  0.9554  0.0030  1.4481
21973SOL     OW71238   7.327   2.800  11.342 -0.0769  0.1327  0.2989
21973SOL    HW171239   7.309   2.706  11.339 -1.7805  0.4432 -0.1881
21973SOL    HW271240   7.278   2.831  11.419 -2.0853  1.0786 -1.2774
21974SOL     OW71241  10.871   2.695   9.554 -0.1409  0.0691 -1.1307
21974SOL    HW171242  10.879   2.762   9.622  1.0883 -2.7768  1.7988
21974SOL    HW271243  10.912   2.734   9.477 -0.5358  3.0532  0.0289
21975SOL     OW71244   6.388   6.001   1.399  0.6827  0.1142  0.4676
21975SOL    HW171245   6.418   6.045   1.478 -1.7708 -0.8812  2.0336
21975SOL    HW271246   6.459   5.940   1.377  1.0961 -0.1223  2.3423
21976SOL     OW71247   0.707   3.988   7.594  0.0096 -0.2263 -0.4414
21976SOL    HW171248   0.755   4.049   7.538  0.8247 -1.4129 -1.0981
21976SOL    HW271249   0.725   3.902   7.556 -1.6553 -0.8346  0.0456
21977SOL     OW71250   8.414   4.929   2.069  0.2011 -0.0586 -0.5653
21977SOL    HW171251   8.329   4.956   2.034 -1.0499  0.0641  2.2924
21977SOL    HW271252   8.478   4.970   2.012 -1.6541  0.9490 -2.0268
21978SOL     OW71253   6.393  11.536   6.423 -0.3621  0.7648 -0.2228
21978SOL    HW171254   6.347  11.528   6.339 -1.5332 -0.6074  0.4945
21978SOL    HW271255   6.331  11.500   6.487  1.3937 -0.3930  0.9199
21979SOL     OW71256   3.127   0.702   6.098  0.0247  0.0211 -0.0724
21979SOL    HW171257   3.072   0.675   6.171 -0.1189 -0.3075 -0.2987
21979SOL    HW271258   3.187   0.628   6.084  1.4778  0.9440  1.0840
21980SOL     OW71259   1.816   2.397   8.939 -0.7345 -0.1938  0.3295
21980SOL    HW171260   1.874   2.333   8.982 -2.0647 -0.5429  1.6952
21980SOL    HW271261   1.792   2.458   9.009 -1.4820  0.3345 -0.3728
21981SOL     OW71262   7.201   2.599   4.071  0.2634 -0.0424 -0.0109
21981SOL    HW171263   7.118   2.647   4.075  0.5893  0.6650 -1.2618
21981SOL    HW271264   7.255   2.642   4.137  0.0897  0.4013 -0.1523
21982SOL     OW71265   1.647   9.434   9.582  0.2686  0.1153 -0.0488
21982SOL    HW171266   1.646   9.368   9.651  1.9340 -2.0637 -1.9540
21982SOL    HW271267   1.619   9.388   9.503  3.6704  0.9136 -1.9416
21983SOL     OW71268   7.715  10.978   8.512 -0.2958  0.3723  0.2266
21983SOL    HW171269   7.706  10.898   8.563 -0.9683  0.7115  0.6604
21983SOL    HW271270   7.785  11.027   8.555  0.4638 -0.1970 -0.3397
21984SOL     OW71271  11.485   7.227   6.649 -0.4006  0.3038  0.1577
21984SOL    HW171272  11.576   7.259   6.656 -0.3861  0.1379  0.7544
21984SOL    HW271273  11.476   7.166   6.721 -0.1241 -1.8424 -1.5299
21985SOL     OW71274   4.021   5.234   2.817 -0.5176 -0.2489  0.3582
21985SOL    HW171275   4.095   5.231   2.878  1.6821  0.8714 -2.0865
21985SOL    HW271276   3.975   5.315   2.839  1.8528  1.5931 -1.0838
21986SOL     OW71277   3.651   6.002   5.225  0.5452 -0.1228  0.2113
21986SOL    HW171278   3.584   5.959   5.278 -1.2361  0.8589 -1.1219
21986SOL    HW271279   3.690   6.067   5.283  0.1764 -0.5511  0.9578
21987SOL     OW71280  11.388   5.661   6.936  0.1179 -0.2818  0.0755
21987SOL    HW171281  11.454   5.650   7.005  0.6124 -1.0711 -0.4897
21987SOL    HW271282  11.388   5.576   6.891 -0.8518 -0.0770 -0.3189
21988SOL     OW71283   6.645   1.564   5.539  0.1900 -0.2826  0.1583
21988SOL    HW171284   6.695   1.644   5.554 -2.7390  1.2558  2.9110
21988SOL    HW271285   6.582   1.586   5.470 -1.9934  0.6651  2.3042
21989SOL     OW71286   9.882   5.333  10.646  0.4404 -0.0207 -0.4276
21989SOL    HW171287   9.903   5.269  10.713 -1.2126  0.8097  0.9598
21989SOL    HW271288   9.954   5.397  10.650  1.5799 -1.2116 -1.1449
21990SOL     OW71289  10.312  10.130   8.125  0.3336  0.0363 -0.1887
21990SOL    HW171290  10.267  10.214   8.119  1.1390  0.6437  1.5319
21990SOL    HW271291  10.273  10.087   8.202 -0.0019 -1.1413 -0.9860
21991SOL     OW71292   3.208   4.657   0.677  0.0466 -0.2242  0.0637
21991SOL    HW171293   3.210   4.753   0.674  0.8902 -0.2346  0.0877
21991SOL    HW271294   3.124   4.634   0.637  0.6024  0.4700 -1.5757
21992SOL     OW71295   5.471   1.308   1.056 -0.2130  0.3203 -0.0191
21992SOL    HW171296   5.445   1.255   1.132  1.8972 -0.7640  0.0008
21992SOL    HW271297   5.453   1.398   1.083 -0.8881 -0.1505  1.1922
21993SOL     OW71298   6.824   4.766   3.057  0.9230  0.2614  0.0671
21993SOL    HW171299   6.760   4.701   3.027 -1.5990  1.5892  2.2099
21993SOL    HW271300   6.874   4.721   3.126  0.4850  0.0133  0.2247
21994SOL     OW71301   0.885   6.799   0.829 -0.2353 -0.4576 -0.2910
21994SOL    HW171302   0.959   6.859   0.816  0.3827 -0.6763  1.8109
21994SOL    HW271303   0.919   6.732   0.888 -1.4877 -1.8378 -1.0677
21995SOL     OW71304   9.947   8.007   4.455  1.0261  0.1044 -0.0435
21995SOL    HW171305   9.926   7.915   4.474  0.4307  0.4133  0.8455
21995SOL    HW271306   9.885   8.057   4.507  1.8251  1.0299  0.0472
21996SOL     OW71307   5.091   1.633  11.449  0.0514 -0.1738  0.0465
21996SOL    HW171308   5.136   1.572  11.508 -1.8331  0.7889  2.6859
21996SOL    HW271309   5.149   1.708  11.442  0.8092 -0.7844 -0.3098
21997SOL     OW71310   9.664   8.689   2.646 -0.0940 -0.1342  0.2857
21997SOL    HW171311   9.661   8.779   2.612  1.1865  0.2501  1.1110
21997SOL    HW271312   9.754   8.679   2.678  0.1121 -2.0682 -0.7338
21998SOL     OW71313   0.510   0.294   9.746  0.0860 -0.4669  0.1972
21998SOL    HW171314   0.464   0.310   9.663 -1.7105  0.7223  1.3628
21998SOL    HW271315   0.507   0.199   9.757 -1.2001 -0.5051 -0.2790
21999SOL     OW71316  10.936   7.438   5.616 -1.0862  0.5892 -0.4649
21999SOL    HW171317  10.929   7.368   5.550 -0.2304 -0.5577  0.6120
21999SOL    HW271318  10.944   7.518   5.565 -0.2798 -0.2843 -1.7643
22000SOL     OW71319  10.532  10.365   8.484  0.1646  0.3240 -0.0033
22000SOL    HW171320  10.586  10.365   8.405  0.3289 -0.7401  0.0970
22000SOL    HW271321  10.443  10.349   8.452  0.3241 -0.7561  0.0752
22001SOL     OW71322   8.090   9.178   9.768 -0.3156 -0.2422  0.2053
22001SOL    HW171323   8.072   9.270   9.750  2.0724  0.0438 -1.1014
22001SOL    HW271324   8.037   9.130   9.704  0.4255  0.3680 -0.8934
22002SOL     OW71325   3.244   2.391   9.495 -0.5606  0.0576 -0.6581
22002SOL    HW171326   3.273   2.356   9.411  0.5622  0.9228 -0.6619
22002SOL    HW271327   3.305   2.354   9.559  0.0014  1.1480 -0.5358
22003SOL     OW71328   0.424   5.065   6.513 -0.1231 -0.1591  0.3193
22003SOL    HW171329   0.490   5.046   6.580 -0.5021  3.3076  1.9216
22003SOL    HW271330   0.341   5.067   6.561 -0.6708  0.5344 -0.6074
22004SOL     OW71331   4.653  10.054   7.222 -0.4216 -0.2673  0.2077
22004SOL    HW171332   4.702  10.107   7.158 -2.3139  0.5161 -0.6591
22004SOL    HW271333   4.676  10.093   7.307 -2.4630  2.7122 -0.4411
22005SOL     OW71334  11.394   6.576   3.500 -0.5087  0.3167 -0.1267
22005SOL    HW171335  11.417   6.488   3.471  1.7929  0.6089  0.6283
22005SOL    HW271336  11.301   6.571   3.520 -0.9444 -1.3385 -2.2005
22006SOL     OW71337   7.641   8.411   2.852 -0.0524 -0.6212  0.1344
22006SOL    HW171338   7.669   8.441   2.939 -1.2467  0.7701  0.0749
22006SOL    HW271339   7.723   8.397   2.805  0.6081 -1.0882  1.3792
22007SOL     OW71340   4.108   1.075   2.264  0.2936 -0.0663  0.3539
22007SOL    HW171341   4.087   0.990   2.225  1.8524 -0.0082 -0.6901
22007SOL    HW271342   4.027   1.125   2.255  0.2517 -0.4233 -1.9191
22008SOL     OW71343   9.779   7.599   4.944  0.4869  0.4058 -0.2350
22008SOL    HW171344   9.783   7.521   5.000  0.9282  0.5187 -0.1087
22008SOL    HW271345   9.687   7.604   4.918 -0.0025  1.0388  1.4644
22009SOL     OW71346   6.111   9.613  11.078 -0.3331  0.6402 -0.3844
22009SOL    HW171347   6.201   9.639  11.058  0.6698 -0.1834  2.4469
22009SOL    HW271348   6.096   9.535  11.025 -0.0953  1.8184 -2.2470
22010SOL     OW71349   5.192   2.840   4.016  0.1273  0.4583  0.1423
22010SOL    HW171350   5.223   2.847   3.926  1.4405  1.1702  0.6228
22010SOL    HW271351   5.171   2.747   4.027  2.3197 -0.1306 -0.1956
22011SOL     OW71352   7.251   4.921   0.370  0.4215  0.1296 -0.3095
22011SOL    HW171353   7.265   4.958   0.457  2.1226  1.4634 -1.0912
22011SOL    HW271354   7.156   4.923   0.358  0.2151  0.5977  1.2076
22012SOL     OW71355  10.802   9.979   2.909  0.3026  0.3414 -0.3080
22012SOL    HW171356  10.737   9.917   2.878 -1.1087  1.7611 -0.3008
22012SOL    HW271357  10.816  10.038   2.835 -0.8445  1.9559  0.7194
22013SOL     OW71358   5.971   4.381   9.375  0.0034 -0.0812 -0.0487
22013SOL    HW171359   5.955   4.327   9.298 -0.1539  1.1364 -0.9115
22013SOL    HW271360   5.953   4.324   9.450  1.3466 -1.6506 -0.8789
22014SOL     OW71361  11.536   7.059   4.926 -0.2874  0.1749 -0.7879
22014SOL    HW171362  11.625   7.027   4.912  0.0924  1.3355 -1.1804
22014SOL    HW271363  11.502   7.074   4.838 -1.0626 -0.7551 -0.6488
22015SOL     OW71364   3.769   9.165   3.131  0.4468  0.0651 -0.0036
22015SOL    HW171365   3.719   9.181   3.051 -0.3935 -1.2036  0.2371
22015SOL    HW271366   3.785   9.252   3.167  0.6380  0.6379 -1.4259
22016SOL     OW71367   0.236   0.338  11.392  0.0328  0.0092 -0.0785
22016SOL    HW171368   0.277   0.257  11.362  0.0398  0.1738 -0.5192
22016SOL    HW271369   0.307   0.402  11.392 -0.2711  0.3737 -1.1476
22017SOL     OW71370   4.125  11.234  11.586  0.4509 -0.1468 -0.1404
22017SOL    HW171371   4.153  11.210  11.674  0.4208 -0.0526 -0.1043
22017SOL    HW271372   4.130  11.153  11.536  0.4059 -0.2157 -0.0352
22018SOL     OW71373   9.051   4.440   6.198  0.3019  0.1143 -0.1241
22018SOL    HW171374   9.142   4.417   6.183  0.5689  0.3580  1.0700
22018SOL    HW271375   9.007   4.416   6.116  0.9661 -2.4015  0.1675
22019SOL     OW71376  11.576   1.463   7.678 -0.4175 -0.7129  0.3276
22019SOL    HW171377  11.498   1.447   7.732 -1.0686  1.1630  0.0301
22019SOL    HW271378  11.642   1.403   7.713 -0.7911  0.4118  3.2955
22020SOL     OW71379   1.618   7.828   8.598  0.0171  0.6906 -0.0413
22020SOL    HW171380   1.603   7.922   8.609  0.4681  0.6736  0.7646
22020SOL    HW271381   1.628   7.795   8.687  1.1583  0.0910 -0.3753
22021SOL     OW71382   9.444   2.307   8.149  0.7686 -0.0235 -0.4648
22021SOL    HW171383   9.485   2.392   8.132  1.7306 -0.7710 -2.1372
22021SOL    HW271384   9.515   2.252   8.183  0.4054 -0.4684 -0.4118
22022SOL     OW71385   7.533   3.494   3.769  0.3073 -0.0446 -0.2410
22022SOL    HW171386   7.486   3.466   3.692  0.7635 -0.6727 -0.2968
22022SOL    HW271387   7.531   3.419   3.828  0.1543  0.3505  0.2675
22023SOL     OW71388   8.066   3.568   8.416  0.0466 -0.2735  0.2282
22023SOL    HW171389   8.138   3.580   8.353 -0.1373  0.4372  0.1474
22023SOL    HW271390   8.052   3.474   8.418 -0.1255 -0.2913 -1.0065
22024SOL     OW71391   9.658   9.365   8.795  0.8019  0.0523 -0.7771
22024SOL    HW171392   9.635   9.272   8.805 -0.0476 -0.0056 -2.7948
22024SOL    HW271393   9.753   9.367   8.803  0.7035 -0.6469  1.3700
22025SOL     OW71394   5.937   9.955   9.219 -0.2275  0.4439  0.4703
22025SOL    HW171395   5.934   9.868   9.178 -1.3341  1.2608 -1.2900
22025SOL    HW271396   6.015   9.996   9.182 -0.3354  0.6201  0.4402
22026SOL     OW71397   8.499   2.914   5.020  0.1896  0.5887  0.5313
22026SOL    HW171398   8.558   2.904   4.945  1.8848  1.6110  1.6698
22026SOL    HW271399   8.492   2.825   5.056 -1.5565 -0.1602 -1.3935
22027SOL     OW71400   5.993   3.536   9.985  0.2707  0.0161 -0.8116
22027SOL    HW171401   5.967   3.624   9.959  0.0485  0.4222  0.6894
22027SOL    HW271402   5.936   3.478   9.934 -2.6153  0.8508  1.1627
22028SOL     OW71403  11.723   1.595   2.634  0.2047 -0.0463  0.2751
22028SOL    HW171404  11.761   1.619   2.549 -1.2456 -0.0658 -0.4009
22028SOL    HW271405  11.684   1.676   2.667 -1.2546 -0.5361 -0.1789
22029SOL     OW71406  11.550   9.768   9.665 -0.2562  0.1054  0.1063
22029SOL    HW171407  11.638   9.735   9.648  0.2316  1.1689  0.4783
22029SOL    HW271408  11.503   9.757   9.582  0.7079  0.9786 -0.5881
22030SOL     OW71409   3.189  10.596   6.311  0.1505  0.6727 -0.5534
22030SOL    HW171410   3.245  10.667   6.342 -0.8461  0.3792  2.1473
22030SOL    HW271411   3.115  10.595   6.371 -0.4844 -1.8847 -1.2391
22031SOL     OW71412  10.948   6.895  10.679 -0.7711  0.2564  0.3645
22031SOL    HW171413  11.032   6.941  10.679 -0.0922 -0.9449  0.5373
22031SOL    HW271414  10.930   6.878  10.771  0.2568 -1.9873  0.2252
22032SOL     OW71415   4.203  11.349   0.903 -0.2332 -0.1560  0.0834
22032SOL    HW171416   4.224  11.434   0.941  0.4115 -0.1742 -0.2299
22032SOL    HW271417   4.203  11.364   0.809 -1.7653 -0.1269  0.0629
22033SOL     OW71418  10.105   7.102   2.722 -0.5407 -0.2927 -0.5489
22033SOL    HW171419  10.101   7.111   2.817 -1.9025 -0.0386 -0.6113
22033SOL    HW271420  10.176   7.160   2.695 -0.7570  0.3516  0.2366
22034SOL     OW71421   1.711  10.874   1.244 -0.1113 -0.0414 -0.2417
22034SOL    HW171422   1.640  10.928   1.279 -0.8902 -1.5940  0.6989
22034SOL    HW271423   1.671  10.827   1.171  0.3788  0.2171 -0.6738
22035SOL     OW71424   1.587   4.657   5.679  0.3551 -0.1400 -0.7054
22035SOL    HW171425   1.588   4.732   5.738 -0.3298 -0.7947  0.1548
22035SOL    HW271426   1.661   4.673   5.619  0.4267  1.0355 -0.3269
22036SOL     OW71427   4.092   9.657   6.633 -0.0115  0.1529  0.4327
22036SOL    HW171428   4.056   9.735   6.675 -2.2747 -1.1764  1.1514
22036SOL    HW271429   4.171   9.687   6.590 -0.0727  2.5482  1.8258
22037SOL     OW71430  10.938   8.616   6.802  0.2283  0.3120 -0.3336
22037SOL    HW171431  11.017   8.596   6.753  1.2020 -1.4120  1.7727
22037SOL    HW271432  10.868   8.570   6.755  0.8678 -0.1056 -0.8915
22038SOL     OW71433   9.987  10.181   6.942 -0.3074  0.1142  0.3997
22038SOL    HW171434   9.911  10.230   6.911 -0.0956  0.5481  0.5663
22038SOL    HW271435   9.955  10.129   7.015 -0.4733  0.2061  0.3916
22039SOL     OW71436  11.498   2.089   8.610  0.1980  0.4769  0.0301
22039SOL    HW171437  11.593   2.094   8.621  0.3512 -1.6854  0.1717
22039SOL    HW271438  11.486   2.068   8.517 -0.0184 -0.7503  0.3116
22040SOL     OW71439  10.231   7.716  11.058 -0.4177 -0.2537  0.8997
22040SOL    HW171440  10.215   7.628  11.024 -1.5696 -0.0195  0.8056
22040SOL    HW271441  10.249   7.769  10.980  0.5715 -0.4470  0.9784
22041SOL     OW71442   5.472   7.623   1.567  0.0447 -0.3273  0.1969
22041SOL    HW171443   5.413   7.594   1.637  0.3577 -0.6265  0.3354
22041SOL    HW271444   5.519   7.697   1.604  0.2585 -0.5282  0.3236
22042SOL     OW71445   5.946  10.017   3.611  0.6169  0.4019  0.0229
22042SOL    HW171446   5.938  10.094   3.554 -0.8165 -0.9062 -1.6674
22042SOL    HW271447   5.910  10.046   3.695 -1.0088  1.2870 -0.9184
22043SOL     OW71448  11.198   7.814   6.646 -0.1506  0.2390  0.2249
22043SOL    HW171449  11.193   7.764   6.728  0.3718 -0.1291  0.0387
22043SOL    HW271450  11.275   7.778   6.601 -0.0694  0.8630 -0.1442
22044SOL     OW71451   7.295   6.893   6.178  0.3608  0.0647 -0.3989
22044SOL    HW171452   7.322   6.829   6.243 -2.2254 -1.2099 -0.4262
22044SOL    HW271453   7.199   6.889   6.179  0.1218  2.9988 -1.3723
22045SOL     OW71454  11.525   4.354  10.446  0.5788  0.5902 -0.1300
22045SOL    HW171455  11.432   4.330  10.443  0.8321 -0.5300  0.3504
22045SOL    HW271456  11.563   4.311  10.369  1.0679 -0.7474  0.8185
22046SOL     OW71457   4.799   9.391   2.883  0.0864  0.1720 -0.4463
22046SOL    HW171458   4.777   9.403   2.975  1.6073 -0.4957  0.0241
22046SOL    HW271459   4.865   9.323   2.882  1.1849  1.1936 -1.8908
22047SOL     OW71460   9.332  11.676   8.747  0.0901 -0.3699  0.0131
22047SOL    HW171461   9.324  11.591   8.791 -1.2206 -0.0694  0.3984
22047SOL    HW271462   9.403  11.663   8.684  2.2666 -0.7526  2.3475
22048SOL     OW71463   1.794   7.987   8.349 -0.1673  0.0696 -0.6582
22048SOL    HW171464   1.788   7.925   8.422 -0.5641  0.4474 -0.3614
22048SOL    HW271465   1.861   7.950   8.291 -0.5261 -0.7290 -0.5794
22049SOL     OW71466   6.124   6.496   3.554  0.0013 -0.0379 -0.1415
22049SOL    HW171467   6.100   6.472   3.465  1.5090  0.5855 -0.7372
22049SOL    HW271468   6.117   6.591   3.557 -0.8962 -0.1108  0.6854
22050SOL     OW71469   8.659   7.947  10.915  0.0719 -0.1220 -0.2637
22050SOL    HW171470   8.714   8.022  10.893 -1.5515  2.1129  2.7165
22050SOL    HW271471   8.719   7.884  10.955  0.8743  1.3159  0.8785
22051SOL     OW71472   5.988   4.725  10.767 -0.2196 -0.5222 -0.2256
22051SOL    HW171473   6.048   4.795  10.741  0.1640 -1.2315 -1.3565
22051SOL    HW271474   5.981   4.733  10.862  1.3943 -0.1988 -0.1033
22052SOL     OW71475   8.105   6.290  10.056  0.2423 -0.4302  0.4908
22052SOL    HW171476   8.143   6.255   9.975  0.2393 -1.1127  0.7805
22052SOL    HW271477   8.163   6.362  10.081  0.0174  0.0524 -0.3356
22053SOL     OW71478   6.655  11.755   5.843 -0.0613  0.2375  0.3546
22053SOL    HW171479   6.640  11.848   5.823 -0.5756  0.1611  0.3760
22053SOL    HW271480   6.579  11.729   5.894  0.5200  0.0332  1.1287
22054SOL     OW71481   6.569   2.916   5.718 -0.0167 -0.3197 -0.7647
22054SOL    HW171482   6.500   2.919   5.784  2.0966 -1.8160  1.6963
22054SOL    HW271483   6.627   2.989   5.740  0.7271 -0.8414 -0.9508
22055SOL     OW71484   1.138   1.882   7.841  0.0805  0.5141  0.0379
22055SOL    HW171485   1.070   1.820   7.869  0.7976 -0.0351  0.6130
22055SOL    HW271486   1.201   1.881   7.913  1.6900 -0.4694 -1.3154
22056SOL     OW71487   1.588   7.957   5.735 -0.0663  0.6494 -0.0681
22056SOL    HW171488   1.551   8.042   5.760  2.3243  1.1301  2.2316
22056SOL    HW271489   1.573   7.901   5.812  1.6436  0.1464 -0.0568
22057SOL     OW71490   2.803   5.838   5.776  0.0790  0.1185  0.5789
22057SOL    HW171491   2.821   5.915   5.831 -0.1876 -0.7727  1.9442
22057SOL    HW271492   2.889   5.798   5.762  0.0740  0.0203  0.8322
22058SOL     OW71493   9.391   0.777   5.829  0.1630 -0.4744 -0.6191
22058SOL    HW171494   9.475   0.731   5.822 -0.0627 -0.9797 -0.0730
22058SOL    HW271495   9.343   0.729   5.896  0.7891  1.8820  1.6755
22059SOL     OW71496   6.019   1.614   0.309  0.0239  0.1662  0.4092
22059SOL    HW171497   5.939   1.647   0.267  0.2482  0.2834  0.0679
22059SOL    HW271498   6.074   1.585   0.236  0.4124  0.3562  0.6224
22060SOL     OW71499   1.611   9.439   9.033  0.3382 -0.6193 -0.2891
22060SOL    HW171500   1.679   9.373   9.017 -0.6460 -2.2809  1.7444
22060SOL    HW271501   1.656   9.509   9.081  1.4618  0.4201 -2.7238
22061SOL     OW71502   2.986   4.946  10.146 -0.1075 -0.2799 -0.9265
22061SOL    HW171503   3.050   4.942  10.075 -0.7616  0.8775 -1.6056
22061SOL    HW271504   2.901   4.933  10.103 -0.5247  0.5886 -0.3839
22062SOL     OW71505   5.414  10.685  10.786 -0.2983 -0.2952  0.2545
22062SOL    HW171506   5.464  10.641  10.854  1.6054 -2.1238 -2.1504
22062SOL    HW271507   5.348  10.622  10.759 -2.5607  1.2541  1.8097
22063SOL     OW71508   7.322   1.178   4.057 -0.0456 -0.3735 -0.4030
22063SOL    HW171509   7.412   1.195   4.085  0.0574  1.7570 -1.8428
22063SOL    HW271510   7.279   1.264   4.057 -2.2334 -1.3890  0.6473
22064SOL     OW71511   9.094   3.078  10.128 -0.9504  0.9001  0.4044
22064SOL    HW171512   9.011   3.053  10.168 -0.8756 -0.0473  0.0156
22064SOL    HW271513   9.149   3.108  10.201 -0.8686 -0.6356  1.0160
22065SOL     OW71514   1.714  11.814  10.911 -0.0307  0.1990  0.2013
22065SOL    HW171515   1.681  11.771  10.833  0.7136 -0.1998  0.0940
22065SOL    HW271516   1.801  11.776  10.924 -0.0499  0.4312  1.0834
22066SOL     OW71517   4.892   7.580   6.075 -0.2925  0.5522 -0.9913
22066SOL    HW171518   4.971   7.601   6.026 -0.2894 -0.6396 -1.5148
22066SOL    HW271519   4.820   7.613   6.021 -0.2536 -0.1429 -1.4693
22067SOL     OW71520   5.289   5.792   0.060 -0.1944 -0.0003  1.1070
22067SOL    HW171521   5.308   5.699   0.054  1.2621  0.3729 -1.1998
22067SOL    HW271522   5.219   5.807  -0.003  0.8292  0.7344  0.1153
22068SOL     OW71523   9.556   1.379   7.205  0.6850  0.9668  0.9451
22068SOL    HW171524   9.571   1.455   7.261 -0.6497  0.6177  1.7982
22068SOL    HW271525   9.467   1.351   7.224  0.6981 -0.0399 -0.3114
22069SOL     OW71526   7.784   3.970   1.374  0.5213 -0.6684 -0.0394
22069SOL    HW171527   7.826   4.054   1.392 -0.1213 -0.6596  1.6109
22069SOL    HW271528   7.697   3.978   1.413 -0.6874 -1.0464 -2.4759
22070SOL     OW71529   1.468   9.769   9.359  0.4412 -0.5317 -0.4337
22070SOL    HW171530   1.528   9.761   9.433 -0.8354  2.4810  1.1066
22070SOL    HW271531   1.525   9.784   9.284  1.7216 -2.2633  0.1244
22071SOL     OW71532   3.940   2.368   0.771  0.6453 -0.1708  0.0631
22071SOL    HW171533   3.904   2.282   0.793 -1.3657  0.5481 -0.2438
22071SOL    HW271534   3.950   2.367   0.676  1.8788 -0.5150  0.1873
22072SOL     OW71535   5.178   8.555   2.735  0.1946  0.1208  0.2259
22072SOL    HW171536   5.083   8.549   2.745  0.2771  1.4665  2.5121
22072SOL    HW271537   5.190   8.612   2.659 -0.8535  0.6433  0.4320
22073SOL     OW71538   2.519   1.749   2.569 -0.0645 -0.5397  0.6985
22073SOL    HW171539   2.572   1.679   2.607  2.9053 -0.3533 -2.5997
22073SOL    HW271540   2.465   1.705   2.503  0.4554 -0.0240 -0.0947
22074SOL     OW71541   1.353   0.366  10.820 -0.2856  0.7120 -0.1421
22074SOL    HW171542   1.382   0.276  10.805  1.7344  1.0841  1.1641
22074SOL    HW271543   1.295   0.385  10.746 -0.2796 -1.4367 -0.7700
22075SOL     OW71544   7.191   7.794   2.334  0.5000 -0.0274 -0.2982
22075SOL    HW171545   7.200   7.701   2.314  1.4197 -0.1089  0.4451
22075SOL    HW271546   7.224   7.839   2.256  2.5746 -0.3443  0.3472
22076SOL     OW71547   4.887   3.823  10.631 -0.0109 -0.8484 -0.3100
22076SOL    HW171548   4.818   3.799  10.570 -0.5899 -1.0126  0.4029
22076SOL    HW271549   4.967   3.822  10.578 -0.4199 -1.5693 -0.9303
22077SOL     OW71550   8.555   3.280   6.936 -0.2670 -0.8634  0.2104
22077SOL    HW171551   8.538   3.250   6.847  3.7230  1.5305 -1.6252
22077SOL    HW271552   8.594   3.205   6.980 -0.4630 -1.4912 -0.6688
22078SOL     OW71553   5.052  11.136  11.224 -0.1593 -0.2847  0.0006
22078SOL    HW171554   5.038  11.079  11.300 -2.8183  1.9065  1.3304
22078SOL    HW271555   4.972  11.125  11.172  0.4186  0.3232 -1.0367
22079SOL     OW71556   9.142   0.527  10.477  0.6186  0.1579 -0.0827
22079SOL    HW171557   9.210   0.460  10.468 -0.0842 -0.5702 -0.0224
22079SOL    HW271558   9.090   0.499  10.553 -0.4392  0.0809 -0.8176
22080SOL     OW71559   1.451   1.851   9.755 -0.2186 -0.3376 -0.2745
22080SOL    HW171560   1.498   1.767   9.746  0.8779  0.2621 -0.3287
22080SOL    HW271561   1.516   1.910   9.792 -1.2859  0.2395  0.7380
22081SOL     OW71562   2.548   5.415   0.141 -0.0908 -0.0299  0.0315
22081SOL    HW171563   2.549   5.476   0.067  0.8747 -0.7087 -0.5323
22081SOL    HW271564   2.595   5.460   0.210  0.9460 -0.2549 -0.5050
22082SOL     OW71565   4.541   9.989   3.181  0.2135 -0.1866  0.1012
22082SOL    HW171566   4.494  10.026   3.255  1.6784  0.6815  0.6542
22082SOL    HW271567   4.558  10.063   3.123 -0.5472 -0.7846 -0.9015
22083SOL     OW71568   1.821   4.378  11.003  0.6814 -0.0733  0.1329
22083SOL    HW171569   1.861   4.406  11.086  0.4432 -1.8778  0.8922
22083SOL    HW271570   1.865   4.432  10.937  1.0574  1.2367  1.3892
22084SOL     OW71571  10.219   4.037   7.307  0.3492  0.2653 -0.0496
22084SOL    HW171572  10.267   3.994   7.378  1.1324  0.3307 -0.5328
22084SOL    HW271573  10.202   3.966   7.244 -2.4120 -0.3403  1.2147
22085SOL     OW71574   2.900   7.189   4.849 -0.5265  0.1171  0.1253
22085SOL    HW171575   2.888   7.279   4.879 -0.0947  0.0525  0.5046
22085SOL    HW271576   2.972   7.194   4.786 -1.2387  0.2062 -0.7015
22086SOL     OW71577   9.060   4.648   3.900 -0.0681 -0.1800  0.0150
22086SOL    HW171578   8.986   4.588   3.886  0.9833 -1.6706  0.6039
22086SOL    HW271579   9.136   4.598   3.872  0.8170  1.0533  0.1544
22087SOL     OW71580   1.431   7.362   3.200 -0.2720  0.1588  0.4858
22087SOL    HW171581   1.455   7.293   3.137 -1.1999  0.6593 -0.4562
22087SOL    HW271582   1.483   7.437   3.173 -1.7114  0.8021 -0.6231
22088SOL     OW71583   6.443   5.198   5.563 -0.8076 -0.0310  0.3278
22088SOL    HW171584   6.447   5.159   5.651 -1.4647 -0.1173  0.3239
22088SOL    HW271585   6.437   5.292   5.579  1.0737  0.1302  0.3338
22089SOL     OW71586   7.700   0.855   2.427  0.0363 -0.4156  0.6207
22089SOL    HW171587   7.617   0.822   2.391 -0.1312  2.2653 -1.8282
22089SOL    HW271588   7.675   0.901   2.506 -0.6508 -0.5791  0.5112
22090SOL     OW71589   3.321  10.626   6.037 -0.2920 -0.7554  0.2431
22090SOL    HW171590   3.278  10.639   6.121  1.9825 -0.3146  1.4073
22090SOL    HW271591   3.408  10.594   6.058 -0.2006 -2.2773 -2.0343
22091SOL     OW71592   0.408  11.342  11.714 -0.1050  0.0492 -0.4776
22091SOL    HW171593   0.403  11.434  11.740 -1.1241 -0.4526  1.2114
22091SOL    HW271594   0.458  11.343  11.632 -0.5090  2.1450 -0.7445
22092SOL     OW71595  11.789   3.918   1.414 -0.2272 -0.3204 -0.1304
22092SOL    HW171596  11.783   3.894   1.506 -1.0484 -0.0648 -0.1026
22092SOL    HW271597  11.879   3.948   1.402 -0.2479  0.1127  0.7154
22093SOL     OW71598   5.216   3.177  11.439  0.0284 -0.0038  0.1770
22093SOL    HW171599   5.188   3.133  11.520 -2.0460  1.4738  0.3475
22093SOL    HW271600   5.162   3.256  11.435  0.5637  0.3050 -2.3216
22094SOL     OW71601   7.163  11.196   6.107 -0.4602  0.1750  0.3381
22094SOL    HW171602   7.213  11.278   6.110 -1.6973  0.9291  0.9599
22094SOL    HW271603   7.072  11.223   6.098 -0.9326 -1.1240  0.9130
22095SOL     OW71604  11.811   9.236   0.516 -0.2346  0.2979 -0.0940
22095SOL    HW171605  11.860   9.171   0.566 -0.9806  1.2312  1.9484
22095SOL    HW271606  11.729   9.192   0.493  0.3023 -0.2873 -0.9331
22096SOL     OW71607   7.435   2.573   7.069 -0.3296 -0.0866  0.3822
22096SOL    HW171608   7.369   2.560   7.000  0.1085 -0.0055 -0.0563
22096SOL    HW271609   7.411   2.509   7.136 -1.2784  0.4218  0.5457
22097SOL     OW71610   8.658  11.208   4.025 -0.0988  0.6793 -0.3853
22097SOL    HW171611   8.578  11.224   3.975  0.8334  1.5812 -1.6520
22097SOL    HW271612   8.692  11.295   4.045  1.2540  0.3192 -1.0252
22098SOL     OW71613   7.317  11.011   2.892  0.3769 -0.1541 -0.2819
22098SOL    HW171614   7.379  10.979   2.957  0.5641  1.5585  0.4318
22098SOL    HW271615   7.243  11.044   2.943  0.4978  1.1596 -0.9084
22099SOL     OW71616   5.665   9.777   8.344 -0.2529  0.1220 -0.5577
22099SOL    HW171617   5.630   9.821   8.267 -0.9257 -0.6019 -0.6822
22099SOL    HW271618   5.695   9.692   8.311 -1.3113 -0.5324  0.0993
22100SOL     OW71619   2.584   6.875   2.239 -0.0758 -0.1112  0.4908
22100SOL    HW171620   2.665   6.924   2.250  0.0482 -0.3517  0.6397
22100SOL    HW271621   2.582   6.814   2.312  0.1882 -0.9339 -0.1768
22101SOL     OW71622  10.419   2.855   4.922 -0.2152  0.2405  0.3019
22101SOL    HW171623  10.350   2.916   4.896  0.3502  0.3759 -0.9582
22101SOL    HW271624  10.391   2.822   5.007 -1.7490  0.4103 -0.1108
22102SOL     OW71625  11.118   7.500   3.708  0.6099 -0.6024  0.0768
22102SOL    HW171626  11.113   7.465   3.797  0.9364  0.5229  0.5568
22102SOL    HW271627  11.069   7.437   3.655 -1.5306 -0.1557  1.3967
22103SOL     OW71628  10.933   6.689   7.383 -0.2850 -0.2420 -0.5244
22103SOL    HW171629  10.996   6.750   7.346 -0.6846  0.5942  0.1196
22103SOL    HW271630  10.897   6.642   7.307  1.0986 -0.7566 -0.8945
22104SOL     OW71631  11.240   6.572   1.349 -0.6593 -0.7200  0.0202
22104SOL    HW171632  11.294   6.503   1.387 -2.4992 -1.0957  2.2326
22104SOL    HW271633  11.188   6.527   1.282  0.6152 -0.6913 -1.0068
22105SOL     OW71634  10.212   5.153   1.680  0.5370  0.3219  0.3593
22105SOL    HW171635  10.235   5.091   1.611  0.5888  0.3759  0.3278
22105SOL    HW271636  10.137   5.114   1.724 -0.7732  1.2507 -0.9935
22106SOL     OW71637   7.905   3.584  11.488 -0.1784  0.4628  0.1844
22106SOL    HW171638   7.865   3.512  11.440 -1.6266 -0.4789  2.6676
22106SOL    HW271639   7.861   3.662  11.454 -2.5194 -0.3509  1.1988
22107SOL     OW71640   5.971   3.458   5.211 -0.0675 -0.0812  0.1774
22107SOL    HW171641   6.014   3.543   5.213  1.0666 -0.6431  2.4503
22107SOL    HW271642   5.896   3.467   5.270 -0.1954 -0.5292  0.0901
22108SOL     OW71643   8.623   6.758   8.846 -0.5102  0.8200 -0.1676
22108SOL    HW171644   8.674   6.742   8.926 -0.1643  0.6747 -0.4199
22108SOL    HW271645   8.669   6.830   8.803 -0.6107  0.7928 -0.3180
22109SOL     OW71646   9.254   2.547   3.942  0.0587 -0.7735 -0.1841
22109SOL    HW171647   9.259   2.603   4.019  2.1259  0.3850 -1.0855
22109SOL    HW271648   9.204   2.470   3.971 -0.2975  0.1897  1.9117
22110SOL     OW71649   2.816   7.908   8.963  0.0319 -0.3423  0.1983
22110SOL    HW171650   2.845   7.925   9.053 -1.8052 -1.2012  1.0051
22110SOL    HW271651   2.721   7.908   8.969 -0.1423  0.3709 -1.9304
22111SOL     OW71652   8.597   6.766   9.479 -0.7993 -0.2020  0.0402
22111SOL    HW171653   8.581   6.675   9.455 -1.8179 -0.0186 -0.0279
22111SOL    HW271654   8.633   6.762   9.568 -0.6560 -0.6722 -0.0369
22112SOL     OW71655   0.977   0.450   2.526  0.2606  0.6276  0.1381
22112SOL    HW171656   1.025   0.478   2.604  0.2162 -1.7352  1.1219
22112SOL    HW271657   0.894   0.496   2.531  0.7621  1.5019  0.7517
22113SOL     OW71658   2.753   9.918   8.617 -0.0562  0.1201 -0.2894
22113SOL    HW171659   2.756   9.829   8.652 -1.3524  0.1713  0.0345
22113SOL    HW271660   2.660   9.941   8.620  0.1392  1.1293 -1.2704
22114SOL     OW71661   3.848  11.109   3.874  0.3997  0.3713 -0.3467
22114SOL    HW171662   3.910  11.158   3.819  1.7061 -1.9674 -1.1062
22114SOL    HW271663   3.801  11.054   3.812 -2.2001  1.7262  0.2826
22115SOL     OW71664   7.679   7.889   9.481  0.0035  0.3060 -0.0506
22115SOL    HW171665   7.625   7.948   9.533 -1.2509 -1.8978  1.2783
22115SOL    HW271666   7.639   7.890   9.394  1.4831  3.1907 -0.8347
22116SOL     OW71667   2.323   4.663   6.398 -0.2463 -0.2793 -0.1260
22116SOL    HW171668   2.394   4.598   6.402  0.1127  0.1349  3.0292
22116SOL    HW271669   2.364   4.745   6.425 -1.3076  0.6722 -1.2995
22117SOL     OW71670   3.969   6.283  10.323  0.5616 -0.6900 -0.1724
22117SOL    HW171671   3.954   6.234  10.404 -1.3365  1.5699  0.9675
22117SOL    HW271672   3.903   6.250  10.262  2.7493 -3.2583 -1.3833
22118SOL     OW71673   5.977   4.922  11.230  0.4536  0.2651 -0.0481
22118SOL    HW171674   6.035   4.900  11.157  0.0420 -0.5937 -0.1291
22118SOL    HW271675   5.892   4.938  11.188  0.6689  1.8134  0.0334
22119SOL     OW71676   4.832   6.229   8.708  0.5704 -0.3741  0.0313
22119SOL    HW171677   4.809   6.307   8.658 -1.8346 -1.6598 -1.0466
22119SOL    HW271678   4.870   6.169   8.643 -1.3149 -1.5423 -0.0623
22120SOL     OW71679   1.884   6.916   7.797  0.2305 -0.5856  0.2576
22120SOL    HW171680   1.801   6.875   7.819 -0.7393  0.4451 -1.2728
22120SOL    HW271681   1.860   6.992   7.744  2.0849  0.5041  0.8784
22121SOL     OW71682   9.059   0.437   4.705 -0.2278 -0.0571  0.0680
22121SOL    HW171683   8.976   0.484   4.703 -0.5198 -0.5311  0.7065
22121SOL    HW271684   9.110   0.476   4.634 -0.4656  1.1908  0.5594
22122SOL     OW71685   0.497   3.964   1.370 -0.4728 -0.6464  0.5389
22122SOL    HW171686   0.573   3.949   1.426  0.5702 -0.3505 -0.7365
22122SOL    HW271687   0.515   4.047   1.327 -0.5124 -1.5344 -1.3116
22123SOL     OW71688   5.151   2.464   7.165 -0.4374 -0.0650 -0.2348
22123SOL    HW171689   5.246   2.470   7.155 -0.6542  0.8465 -2.1545
22123SOL    HW271690   5.126   2.547   7.205 -0.5135 -0.0011 -0.4169
22124SOL     OW71691   9.870   6.718   0.284 -0.3230  0.2490 -0.4919
22124SOL    HW171692   9.943   6.692   0.340 -0.0271  1.6746 -0.1839
22124SOL    HW271693   9.841   6.802   0.319 -1.6572  0.0566 -1.0534
22125SOL     OW71694   1.276   4.630   3.095  0.3666  0.8707  0.0782
22125SOL    HW171695   1.294   4.551   3.044 -1.3016  1.0054 -0.7984
22125SOL    HW271696   1.316   4.701   3.045 -0.5161  0.8931 -0.6234
22126SOL     OW71697   3.867  10.254   2.244 -0.3624 -0.0602 -0.0986
22126SOL    HW171698   3.962  10.261   2.237 -0.4695  1.9393 -0.0425
22126SOL    HW271699   3.839  10.215   2.161  0.5344 -1.4417  0.2103
22127SOL     OW71700   6.863   5.910   0.915 -0.8037  0.3926 -0.6916
22127SOL    HW171701   6.773   5.930   0.889 -0.2510 -0.4779 -3.5385
22127SOL    HW271702   6.905   5.876   0.836  1.6952 -0.4510  0.8677
22128SOL     OW71703   9.050   9.068   3.517  0.6746 -0.1215 -0.0355
22128SOL    HW171704   8.998   9.146   3.495  0.0372 -0.4270  0.3538
22128SOL    HW271705   9.052   9.068   3.613 -1.3547 -1.8610  0.0754
22129SOL     OW71706   2.495   0.367   5.801  0.6966  0.1702  0.1501
22129SOL    HW171707   2.495   0.462   5.818 -0.4724  0.3869 -0.9266
22129SOL    HW271708   2.520   0.328   5.885 -1.0436  1.3416  1.2741
22130SOL     OW71709   6.334   8.548   1.683  0.0591 -0.7985  0.3010
22130SOL    HW171710   6.365   8.636   1.663 -0.7463 -0.1368  1.8628
22130SOL    HW271711   6.241   8.550   1.663  0.4298 -2.0513 -1.9616
22131SOL     OW71712  10.009   1.238   8.196 -0.3474  0.3595  0.1513
22131SOL    HW171713   9.956   1.310   8.160  1.1129  0.9236 -0.9680
22131SOL    HW271714   9.999   1.247   8.290  0.5426  2.6862  0.0995
22132SOL     OW71715   8.195   6.737   9.242 -0.2571  0.4188 -0.3790
22132SOL    HW171716   8.145   6.774   9.314  0.8339  1.5316 -0.1592
22132SOL    HW271717   8.185   6.800   9.171  0.6125  0.5480 -0.4035
22133SOL     OW71718  10.678   8.006   4.649  0.2370  0.4251  0.2147
22133SOL    HW171719  10.593   8.040   4.677  0.0228 -0.7745  1.1087
22133SOL    HW271720  10.740   8.042   4.712  0.6474  2.3196 -1.1472
22134SOL     OW71721  10.122   6.146   3.499  0.1823 -0.8259 -0.1821
22134SOL    HW171722  10.039   6.155   3.547  1.1942 -2.6453  2.0792
22134SOL    HW271723  10.136   6.052   3.492  2.8670 -0.5898  1.0000
22135SOL     OW71724   0.660   7.927   5.330 -0.2094 -0.0481 -0.4528
22135SOL    HW171725   0.597   7.964   5.268 -2.1328 -1.6726  0.4371
22135SOL    HW271726   0.646   7.833   5.327  1.7954 -0.4249  0.2373
22136SOL     OW71727   1.568  10.841   4.125 -0.5296  0.2494 -0.0265
22136SOL    HW171728   1.580  10.826   4.031 -2.7598 -0.9500 -0.1860
22136SOL    HW271729   1.565  10.753   4.163 -2.3220  0.5996  0.7413
22137SOL     OW71730   2.092   5.242  10.040 -0.9248 -0.0665 -0.8952
22137SOL    HW171731   2.025   5.302  10.008 -0.9626  1.0363  1.0721
22137SOL    HW271732   2.102   5.265  10.133  0.6750 -1.6168 -0.6320
22138SOL     OW71733   8.814   4.397   5.948 -0.1957 -0.4387 -0.2827
22138SOL    HW171734   8.858   4.315   5.926  0.6621 -0.2820  0.7635
22138SOL    HW271735   8.806   4.444   5.865  1.2619 -0.6500 -0.5585
22139SOL     OW71736   9.692   8.701   8.903 -0.0083  0.0974  0.1284
22139SOL    HW171737   9.738   8.706   8.819 -1.2653  0.6681 -0.5520
22139SOL    HW271738   9.610   8.749   8.889 -0.6989 -0.6494  1.3727
22140SOL     OW71739   1.293   8.467  11.366  0.0506 -0.0634 -0.4136
22140SOL    HW171740   1.379   8.476  11.325  0.5977 -0.3061  0.6243
22140SOL    HW271741   1.312   8.427  11.451 -1.2093 -1.2794 -0.6689
22141SOL     OW71742   2.022   0.603   8.599 -0.0311  0.1715  0.2562
22141SOL    HW171743   2.027   0.517   8.640 -0.9753  0.3383  0.7740
22141SOL    HW271744   2.029   0.586   8.506 -1.7293 -0.6619  0.2362
22142SOL     OW71745  11.500   6.411   2.750 -0.0092  0.1913 -0.6449
22142SOL    HW171746  11.553   6.399   2.671  0.1185 -1.1188 -0.3946
22142SOL    HW271747  11.410   6.401   2.719  0.0488 -0.4841 -0.6085
22143SOL     OW71748   9.916   7.559  11.005 -0.3001  0.0740  0.1144
22143SOL    HW171749  10.005   7.526  11.011  0.3669  1.6769 -0.4387
22143SOL    HW271750   9.897   7.596  11.091 -0.8077 -1.1158  0.5316
22144SOL     OW71751   4.899   4.348   6.994 -0.1812  0.3580  0.1112
22144SOL    HW171752   4.878   4.435   7.028  1.8853  0.8398  0.3000
22144SOL    HW271753   4.921   4.297   7.073 -3.4993 -1.0880  0.2683
22145SOL     OW71754   9.649   5.565   0.872  0.3217 -0.1189  0.5169
22145SOL    HW171755   9.683   5.493   0.818  0.8509 -0.1044  0.8174
22145SOL    HW271756   9.555   5.562   0.859  0.5558  1.2698 -2.1533
22146SOL     OW71757  10.983   8.909   0.992  0.0261  0.1078  0.2492
22146SOL    HW171758  10.895   8.943   1.003 -0.8136 -2.1096  1.0867
22146SOL    HW271759  10.985   8.830   1.046  1.6508 -1.3690 -1.7849
22147SOL     OW71760   9.401   8.307   8.123 -0.5710  0.7252  0.2921
22147SOL    HW171761   9.404   8.228   8.177  0.3333 -0.0412 -0.8221
22147SOL    HW271762   9.312   8.340   8.134 -1.3280 -1.0643 -0.0489
22148SOL     OW71763  11.239   1.764   8.144 -0.3106 -0.6048  0.0654
22148SOL    HW171764  11.155   1.809   8.142  0.4139  0.7956  0.0639
22148SOL    HW271765  11.304   1.834   8.150  0.8634 -1.6533  0.0392
22149SOL     OW71766   5.947   8.351   4.307 -0.7503 -0.1290 -0.5649
22149SOL    HW171767   5.916   8.387   4.224  0.6902 -2.5883 -2.3355
22149SOL    HW271768   5.896   8.271   4.318 -1.5458  0.6194  1.4408
22150SOL     OW71769   8.809   4.440   2.185 -0.7544 -0.0449 -0.2297
22150SOL    HW171770   8.805   4.384   2.262 -0.1776 -0.6082 -0.5934
22150SOL    HW271771   8.852   4.386   2.118  1.9275  1.5386  0.0650
22151SOL     OW71772   5.290   5.714   3.384 -0.2642  0.3751  0.0846
22151SOL    HW171773   5.216   5.749   3.434 -0.4439 -0.4593  0.4223
22151SOL    HW271774   5.258   5.707   3.295 -1.1961 -1.5487  0.5121
22152SOL     OW71775   3.337  11.424  11.490  0.3254 -0.4695  0.9243
22152SOL    HW171776   3.385  11.497  11.453  0.4961 -0.4737  1.1338
22152SOL    HW271777   3.404  11.365  11.524  0.5082 -2.8031 -2.8585
22153SOL     OW71778  10.074  10.581   0.222 -0.6600 -0.4539 -0.1560
22153SOL    HW171779  10.067  10.486   0.234  0.2800 -0.2066  3.6977
22153SOL    HW271780  10.168  10.598   0.218 -0.7867  0.3802  0.1753
22154SOL     OW71781   5.108   9.821   7.970 -0.7979  0.3360 -0.0060
22154SOL    HW171782   5.149   9.906   7.951  0.1694 -0.0365  0.3211
22154SOL    HW271783   5.020   9.828   7.935 -0.4094  1.1293 -0.8750
22155SOL     OW71784   4.121   0.638  11.277  0.2904 -0.0208  0.0710
22155SOL    HW171785   4.128   0.630  11.372  1.6657  0.1247 -0.0033
22155SOL    HW271786   4.197   0.689  11.251  1.2242 -1.9853 -1.3361
22156SOL     OW71787   3.875  11.193   6.096  0.0993 -0.2745  0.3298
22156SOL    HW171788   3.822  11.241   6.159  0.0302 -1.6526  1.3718
22156SOL    HW271789   3.854  11.101   6.112  1.9858 -0.8040  0.0658
22157SOL     OW71790  11.134   7.803   2.324 -0.3983  0.1064 -0.7362
22157SOL    HW171791  11.205   7.757   2.369 -2.1744 -0.7585  1.3199
22157SOL    HW271792  11.147   7.780   2.231  0.6610 -1.9561 -0.1502
22158SOL     OW71793   5.138   3.006  11.702  0.2260 -0.1161  0.5778
22158SOL    HW171794   5.215   3.006  11.759 -0.5490  1.4265  1.6919
22158SOL    HW271795   5.063   3.012  11.761 -0.6200  1.4388 -0.5459
22159SOL     OW71796  10.764   6.431   5.647  0.3384 -0.1411 -0.1457
22159SOL    HW171797  10.700   6.502   5.651  1.0998  0.5839 -0.7037
22159SOL    HW271798  10.818   6.442   5.725 -0.2428 -0.8110  0.3757
22160SOL     OW71799   8.471   0.775   8.661  0.1790  0.3961  0.3556
22160SOL    HW171800   8.546   0.800   8.607  0.0028 -1.5856 -0.9040
22160SOL    HW271801   8.409   0.737   8.598 -1.7416  1.6246  1.4131
22161SOL     OW71802   2.000  11.558  10.683 -0.4050 -0.1593  0.4279
22161SOL    HW171803   2.008  11.653  10.680 -1.9135 -0.0236  0.0874
22161SOL    HW271804   1.983  11.532  10.592  1.6617 -0.9551  0.2129
22162SOL     OW71805   4.554   1.038   1.466 -0.0172  0.5670  0.3702
22162SOL    HW171806   4.599   0.986   1.533 -0.4502 -0.4999 -0.1403
22162SOL    HW271807   4.595   1.010   1.383  0.9980  2.3745  0.2169
22163SOL     OW71808  10.599   6.308   0.821 -0.2758 -0.1251  0.3360
22163SOL    HW171809  10.610   6.394   0.861 -0.5163 -0.4360  1.0732
22163SOL    HW271810  10.518   6.274   0.857  1.1564 -1.8169  2.2107
22164SOL     OW71811   9.431   9.060   5.022  0.3022  0.6687  0.3184
22164SOL    HW171812   9.496   9.123   4.990  0.7701 -0.4191 -0.9342
22164SOL    HW271813   9.445   8.981   4.969  0.2695 -0.7920  2.3823
22165SOL     OW71814  11.219   9.877   9.022  0.2179 -0.2263 -0.3038
22165SOL    HW171815  11.187   9.896   8.933  0.8489 -0.4366 -0.5790
22165SOL    HW271816  11.294   9.936   9.033  1.0488 -1.2234 -0.4699
22166SOL     OW71817  10.217   4.520   0.508 -0.5148  0.2745  0.6119
22166SOL    HW171818  10.192   4.612   0.506 -0.5334  0.2853  1.3327
22166SOL    HW271819  10.280   4.513   0.579 -1.6134 -0.5285  1.5605
22167SOL     OW71820   8.966   2.198   8.073  0.3210  0.6562 -0.3583
22167SOL    HW171821   9.048   2.147   8.073  0.7550  1.1022 -3.9383
22167SOL    HW271822   8.900   2.137   8.041 -0.1163  1.0977 -0.3034
22168SOL     OW71823  11.392   4.511   2.143 -0.1650  0.0354  0.4770
22168SOL    HW171824  11.385   4.436   2.201  0.5715 -0.8780 -0.5591
22168SOL    HW271825  11.477   4.499   2.099  0.0529  1.5714  0.4241
22169SOL     OW71826  11.484   6.273   1.593 -0.2566 -0.1032  0.7450
22169SOL    HW171827  11.462   6.329   1.667 -2.1482  0.2672 -0.0196
22169SOL    HW271828  11.547   6.323   1.542  0.6020 -0.1093  1.7598
22170SOL     OW71829   3.407   6.141   3.005  0.2636 -0.0424 -0.4196
22170SOL    HW171830   3.381   6.123   2.915  0.2270  1.3096 -0.7001
22170SOL    HW271831   3.402   6.057   3.049  0.0252 -0.6719 -1.6188
22171SOL     OW71832  10.887   5.598  11.156 -0.9090  0.1829 -0.2796
22171SOL    HW171833  10.975   5.627  11.178 -0.6599 -1.8261  1.7990
22171SOL    HW271834  10.834   5.677  11.157  0.6459  1.2779 -0.4915
22172SOL     OW71835   5.379  10.585   2.164  0.0512 -0.0206 -0.0765
22172SOL    HW171836   5.440  10.561   2.095 -0.3117 -2.0435  0.2574
22172SOL    HW271837   5.384  10.681   2.168  1.8345 -0.0222 -1.2716
22173SOL     OW71838   9.180   4.997   3.940  0.5020  0.2719  0.0963
22173SOL    HW171839   9.273   4.999   3.962  0.2776  0.0095  1.0703
22173SOL    HW271840   9.142   5.070   3.990  0.4414  1.4375 -1.5593
22174SOL     OW71841   9.208   1.082   0.830  0.2618  0.5011 -0.1739
22174SOL    HW171842   9.256   1.015   0.781  0.7829  0.4328  0.4123
22174SOL    HW271843   9.274   1.120   0.888  0.1561  2.0443 -1.0076
22175SOL     OW71844   7.504   4.434   5.007 -0.7854  0.2635  0.8329
22175SOL    HW171845   7.582   4.420   4.953 -1.7798  0.2806 -0.6883
22175SOL    HW271846   7.484   4.527   4.996  0.5884  0.9930  3.5760
22176SOL     OW71847   5.571   3.210   0.837  0.6698 -0.3895 -0.4509
22176SOL    HW171848   5.587   3.261   0.758  0.3374 -0.2630 -0.4365
22176SOL    HW271849   5.496   3.252   0.879  0.9681 -0.3339  0.0376
22177SOL     OW71850  10.756   6.705   8.654 -0.6334  0.6447 -0.3138
22177SOL    HW171851  10.723   6.619   8.681 -0.8293  1.0097  0.6556
22177SOL    HW271852  10.728   6.764   8.724  0.7721  1.2395 -0.2327
22178SOL     OW71853   8.620   9.323   3.302  0.6099 -0.2468  0.1046
22178SOL    HW171854   8.547   9.312   3.241  0.6811  0.2829 -0.0888
22178SOL    HW271855   8.638   9.235   3.335 -1.5768 -0.0992  1.8917
22179SOL     OW71856   2.915   3.970   8.186 -0.2004  0.7194 -0.2330
22179SOL    HW171857   3.008   3.966   8.164 -0.2556 -0.9573 -0.3429
22179SOL    HW271858   2.899   3.888   8.234 -1.2133  1.8725  1.5292
22180SOL     OW71859   4.430   1.704   6.744 -0.1188  0.0584  0.5533
22180SOL    HW171860   4.519   1.728   6.769  0.2666 -0.6131 -0.1353
22180SOL    HW271861   4.441   1.645   6.669 -1.0280 -1.8385  1.8330
22181SOL     OW71862   3.178   6.834   0.851  0.0333  0.2578 -0.7133
22181SOL    HW171863   3.198   6.788   0.769  0.2325 -0.4476 -0.2764
22181SOL    HW271864   3.103   6.889   0.830  1.7067  2.1745 -2.1130
22182SOL     OW71865   6.179   1.780   3.247  0.2830 -0.1915  0.0520
22182SOL    HW171866   6.263   1.777   3.294  1.5010  2.3115 -1.6986
22182SOL    HW271867   6.158   1.689   3.230  3.0513 -0.9227 -0.0484
22183SOL     OW71868   8.604   7.536   5.090 -0.3343 -0.4107 -0.6211
22183SOL    HW171869   8.534   7.598   5.108  0.3177  0.9581 -2.4558
22183SOL    HW271870   8.584   7.460   5.145 -2.7508  0.2720 -0.4553
22184SOL     OW71871   3.117   1.815   2.138 -0.3440 -0.3266 -0.0462
22184SOL    HW171872   3.056   1.771   2.079 -1.0569 -1.8904  1.7701
22184SOL    HW271873   3.126   1.903   2.102  0.1681 -1.5283 -3.1154
22185SOL     OW71874   7.145   5.871   3.970  0.3645 -0.4320  0.0032
22185SOL    HW171875   7.124   5.927   4.045 -2.5972 -1.8368  0.3364
22185SOL    HW271876   7.117   5.922   3.894 -0.0825 -0.4830  0.1304
22186SOL     OW71877   6.001   0.943   1.563 -0.2592  0.7735 -0.1075
22186SOL    HW171878   6.085   0.988   1.559  0.3961 -0.4779 -1.3781
22186SOL    HW271879   6.012   0.879   1.634  0.1594  0.0760 -0.7890
22187SOL     OW71880   8.895   4.558   4.270 -0.0263 -0.9168 -1.0227
22187SOL    HW171881   8.981   4.523   4.245 -0.2763 -0.3832 -2.8361
22187SOL    HW271882   8.834   4.485   4.254 -0.1255 -0.7181 -1.6041
22188SOL     OW71883   5.666   2.542   0.411 -0.1658  0.5133 -0.5794
22188SOL    HW171884   5.661   2.598   0.488 -2.3807 -1.2522  0.6605
22188SOL    HW271885   5.629   2.596   0.341  0.1089  1.4563 -0.0300
22189SOL     OW71886   2.431   8.464   1.971 -0.7510 -0.1420 -0.3862
22189SOL    HW171887   2.524   8.443   1.957 -0.8724  0.4482 -2.3080
22189SOL    HW271888   2.385   8.383   1.949 -0.6907 -0.6781  1.3062
22190SOL     OW71889   2.481  10.889   0.917 -0.1202  0.0137  0.4131
22190SOL    HW171890   2.458  10.801   0.945  0.9586 -0.4260 -0.0314
22190SOL    HW271891   2.397  10.931   0.898 -0.6354 -0.9813  0.4374
22191SOL     OW71892   5.309   9.000  10.750  0.2019  0.8157  0.5554
22191SOL    HW171893   5.368   8.946  10.803  0.4701  0.8162  0.2615
22191SOL    HW271894   5.222   8.967  10.770  0.3574  0.3347  0.4572
22192SOL     OW71895   9.438  10.958   6.918 -0.1374 -0.1168 -0.3695
22192SOL    HW171896   9.414  10.925   6.831 -0.5308 -1.1811  0.1267
22192SOL    HW271897   9.384  11.036   6.930 -0.4538 -0.2514 -0.8815
22193SOL     OW71898   7.802   2.875   8.140 -0.4246 -0.2820  0.2917
22193SOL    HW171899   7.898   2.875   8.142 -0.4147 -1.3249  0.0883
22193SOL    HW271900   7.778   2.954   8.189  0.5323  0.0130  0.3176
22194SOL     OW71901   5.813   7.755   8.575  0.3063  0.3573  0.3857
22194SOL    HW171902   5.834   7.792   8.661  0.3539 -0.2669  0.6552
22194SOL    HW271903   5.887   7.779   8.519 -0.1948  1.6255  0.2457
22195SOL     OW71904   8.133   7.646   1.050 -0.5517  0.4303 -0.4181
22195SOL    HW171905   8.202   7.711   1.062  2.2929 -2.2962 -0.5778
22195SOL    HW271906   8.105   7.656   0.959  0.1058  1.1729 -0.5461
22196SOL     OW71907   0.351   7.866   9.188  0.5282  0.0004  0.1105
22196SOL    HW171908   0.328   7.958   9.174  0.6429  0.0258  0.0930
22196SOL    HW271909   0.446   7.865   9.189  0.5251 -0.0812  0.3554
22197SOL     OW71910   0.148   2.845  11.749 -0.1922  0.1890 -0.8155
22197SOL    HW171911   0.213   2.801  11.694  0.2267  0.5645 -0.6292
22197SOL    HW271912   0.142   2.790  11.827 -1.4807 -0.8534 -1.6205
22198SOL     OW71913   1.316   1.380   6.872 -0.2174 -0.1312 -0.1076
22198SOL    HW171914   1.344   1.434   6.946 -0.6622 -1.7008  1.2485
22198SOL    HW271915   1.232   1.418   6.846  0.4618  1.1310 -0.6024
22199SOL     OW71916   4.766   9.839   3.705 -0.0174  0.4425  0.2749
22199SOL    HW171917   4.826   9.898   3.751  0.0567  0.5374  0.0570
22199SOL    HW271918   4.698   9.897   3.670 -0.4265  0.2984  0.8109
22200SOL     OW71919   3.074   2.896   4.552 -0.5808 -0.4661  0.5662
22200SOL    HW171920   3.159   2.859   4.575 -0.6091 -0.1189  1.2567
22200SOL    HW271921   3.054   2.956   4.623 -0.5967  0.8050 -0.4662
22201SOL     OW71922   5.747   7.721   2.142 -0.3710  0.0257 -0.3403
22201SOL    HW171923   5.755   7.816   2.131 -0.5669  0.2107  0.9690
22201SOL    HW271924   5.656   7.702   2.120  0.1291 -0.1656 -2.4568
22202SOL     OW71925   0.937  11.515   5.335 -0.1139 -0.0141 -0.1915
22202SOL    HW171926   0.935  11.448   5.267  1.2849  0.0526 -0.3401
22202SOL    HW271927   0.889  11.589   5.298  0.5289 -0.0263 -1.0840
22203SOL     OW71928   2.014   1.611   8.485  0.0187  0.0504 -0.4038
22203SOL    HW171929   2.059   1.538   8.443  0.4834 -0.1014  0.3438
22203SOL    HW271930   2.044   1.609   8.576 -1.7464 -0.2576  0.2063
22204SOL     OW71931   8.221   5.115   4.075 -0.0850  0.1006 -0.1560
22204SOL    HW171932   8.257   5.201   4.057  2.1794 -0.6362  0.4713
22204SOL    HW271933   8.259   5.058   4.008  0.1162 -0.7530  0.6508
22205SOL     OW71934   3.295   7.921   7.302  0.0884  0.5863 -0.3832
22205SOL    HW171935   3.303   8.007   7.260  1.5855  1.3973  1.3787
22205SOL    HW271936   3.386   7.893   7.315 -0.3278 -0.0890  1.3017
22206SOL     OW71937   3.254   7.773   7.527  0.2945 -0.6081 -0.0917
22206SOL    HW171938   3.191   7.700   7.526  0.7148 -0.9727 -1.3027
22206SOL    HW271939   3.252   7.807   7.437  1.2970 -0.1592  0.0513
22207SOL     OW71940   4.005   1.829   7.148 -0.2839 -0.0071 -0.7675
22207SOL    HW171941   4.050   1.907   7.179  0.1927  0.4006 -2.3674
22207SOL    HW271942   4.044   1.757   7.197  0.1702  0.6251 -0.1770
22208SOL     OW71943   3.520   1.164   8.146 -0.0557 -0.3881  0.4705
22208SOL    HW171944   3.525   1.165   8.241  0.7351  1.0527  0.4509
22208SOL    HW271945   3.593   1.220   8.118  0.3625 -1.6174 -1.0157
22209SOL     OW71946   5.720   7.935   1.185  0.3540 -0.2606  0.1940
22209SOL    HW171947   5.670   8.009   1.149 -1.9827 -1.9856 -0.3143
22209SOL    HW271948   5.806   7.941   1.143 -0.4099  1.0736 -1.2583
22210SOL     OW71949   8.337   0.878  10.057 -0.2630  0.2824 -0.3177
22210SOL    HW171950   8.377   0.872  10.144  1.0788 -2.1214 -1.0056
22210SOL    HW271951   8.377   0.956  10.018  1.1982 -0.1392  0.2740
22211SOL     OW71952   0.807   5.636   3.383  0.0954 -0.1796  0.1088
22211SOL    HW171953   0.856   5.710   3.419  0.6573 -0.9153  0.9077
22211SOL    HW271954   0.719   5.671   3.366  0.0769  0.4469  1.3498
22212SOL     OW71955   5.957   7.974   1.047 -0.2000 -0.2956  0.3162
22212SOL    HW171956   5.992   7.951   0.961 -0.6207 -0.1721  0.1102
22212SOL    HW271957   6.035   7.985   1.102  0.0507 -1.1998  0.1691
22213SOL     OW71958  11.646  10.855  10.979 -0.4095  0.1561 -0.4061
22213SOL    HW171959  11.559  10.869  11.014 -0.2920 -1.0794  0.4483
22213SOL    HW271960  11.654  10.760  10.970  0.8977  0.2253 -0.2937
22214SOL     OW71961   6.216   1.702   9.283  0.6937  0.2678  0.3251
22214SOL    HW171962   6.208   1.722   9.190  1.9736 -1.4553 -0.2303
22214SOL    HW271963   6.215   1.787   9.326  0.6810  1.1504 -1.3167
22215SOL     OW71964   9.735  10.823   5.249  0.0460  0.0363  0.1695
22215SOL    HW171965   9.764  10.897   5.194 -1.5178  1.7706  1.5800
22215SOL    HW271966   9.724  10.860   5.336 -0.6284 -1.9428  0.9845
22216SOL     OW71967   1.024   7.814   1.678  0.5846  0.2276  0.2431
22216SOL    HW171968   0.979   7.894   1.703 -0.6209 -0.3326 -0.0473
22216SOL    HW271969   1.003   7.802   1.585  1.8011  0.2348 -0.0507
22217SOL     OW71970   0.812   2.881   9.900 -0.2910  0.3664  0.3337
22217SOL    HW171971   0.848   2.820   9.964 -0.6486  0.0572  0.2422
22217SOL    HW271972   0.792   2.960   9.950  1.2149  0.8276  0.2558
22218SOL     OW71973   1.008   3.826   7.533 -0.2471  0.4484  0.7934
22218SOL    HW171974   1.017   3.871   7.617 -2.0584  1.3459  0.5499
22218SOL    HW271975   0.930   3.771   7.543 -0.3917  0.4413 -0.2395
22219SOL     OW71976   2.291   1.983   3.924 -0.0022 -0.5919  0.6277
22219SOL    HW171977   2.227   1.974   3.854 -1.0015 -1.9606  1.6618
22219SOL    HW271978   2.263   2.060   3.973  0.9765  0.6593 -0.7022
22220SOL     OW71979   0.187   2.326   5.764 -0.6793  0.1950  0.1706
22220SOL    HW171980   0.261   2.266   5.755 -0.3757  0.4416  0.9257
22220SOL    HW271981   0.226   2.413   5.757 -0.4165  0.4318  3.2526
22221SOL     OW71982   2.635   0.788   1.096 -0.0417  0.0650 -0.3308
22221SOL    HW171983   2.620   0.882   1.100 -0.6188 -0.0573  2.0335
22221SOL    HW271984   2.557   0.754   1.052 -1.3791  0.4893  1.5473
22222SOL     OW71985   4.313  11.416   7.003  0.4861 -0.1668  0.4483
22222SOL    HW171986   4.267  11.385   6.925  0.6823  0.9726 -0.1451
22222SOL    HW271987   4.289  11.354   7.071  0.5280 -1.3509 -0.5752
22223SOL     OW71988   1.869   1.673   9.995 -0.4816 -0.1145 -0.4581
22223SOL    HW171989   1.855   1.605  10.062 -0.3546  0.1902 -0.1172
22223SOL    HW271990   1.854   1.628   9.912 -0.0766 -0.6424 -0.2528
22224SOL     OW71991   0.124  10.479   0.504 -0.0790 -0.8807  0.1153
22224SOL    HW171992   0.067  10.557   0.508  0.3316 -0.5623 -0.1798
22224SOL    HW271993   0.076  10.417   0.449 -0.1063 -0.5808 -0.2033
22225SOL     OW71994  10.452   0.668   5.560 -0.3342 -0.0548  0.0610
22225SOL    HW171995  10.413   0.581   5.565  1.3522 -0.8895 -0.6396
22225SOL    HW271996  10.379   0.728   5.575 -1.8472 -1.5389 -1.0810
22226SOL     OW71997   0.689   9.599   1.632 -0.4413  0.3099 -0.1551
22226SOL    HW171998   0.619   9.665   1.639 -1.1013 -0.3489 -0.4196
22226SOL    HW271999   0.683   9.550   1.714 -1.7854 -1.1776 -1.0862
22227SOL     OW72000   9.607   6.953   5.900  0.2224  0.3338  0.3438
22227SOL    HW172001   9.517   6.965   5.869  0.7159 -0.4668 -1.5116
22227SOL    HW272002   9.599   6.893   5.974 -0.8123  0.8041  0.6447
22228SOL     OW72003   0.881   4.038   7.364 -0.5150  0.1876 -0.0266
22228SOL    HW172004   0.920   4.044   7.277 -0.7583 -0.2819 -0.1698
22228SOL    HW272005   0.943   3.985   7.415  0.5751  2.0029  0.6384
22229SOL     OW72006   8.881   3.165   3.191 -0.2793  0.4265 -0.3489
22229SOL    HW172007   8.820   3.181   3.263 -0.7689 -0.0057 -0.6626
22229SOL    HW272008   8.842   3.093   3.143  1.7921 -1.7060  0.9577
22230SOL     OW72009   5.026   7.727   5.637  0.4543  0.4652  0.1959
22230SOL    HW172010   5.078   7.649   5.655  1.1629  1.1023  0.9432
22230SOL    HW272011   4.941   7.693   5.609  0.7137 -0.5741  0.6388
22231SOL     OW72012   2.261   6.795   1.571 -0.5188 -0.6163  0.2554
22231SOL    HW172013   2.215   6.872   1.605 -0.0238 -0.4913  0.6659
22231SOL    HW272014   2.345   6.795   1.618  0.9764  0.5915 -2.2401
22232SOL     OW72015  11.361   8.233   6.999 -0.1447  0.2192  0.6667
22232SOL    HW172016  11.354   8.192   6.914  0.0371 -1.2970  1.3582
22232SOL    HW272017  11.284   8.290   7.005 -0.3440  0.0699 -0.3554
22233SOL     OW72018   7.148   9.460   7.777 -0.1229 -0.6607  0.0538
22233SOL    HW172019   7.074   9.502   7.820  0.2843  0.6157 -0.4378
22233SOL    HW272020   7.144   9.491   7.686 -0.0768 -2.0864 -0.4714
22234SOL     OW72021   5.525   7.060   3.421 -0.5739  0.6174 -0.0636
22234SOL    HW172022   5.526   7.119   3.496  1.8121 -0.0848  0.5295
22234SOL    HW272023   5.500   6.975   3.457  0.9792  0.1869  0.0672
22235SOL     OW72024   7.144   5.906  10.995  0.0583 -0.4506 -0.3302
22235SOL    HW172025   7.220   5.948  11.033 -0.7905 -1.2765  2.5545
22235SOL    HW272026   7.164   5.898  10.902  3.5557 -0.8251  0.3360
22236SOL     OW72027   3.231   4.594   2.270 -0.3357 -0.5019  0.2583
22236SOL    HW172028   3.241   4.572   2.362  2.7571 -4.4662 -0.7138
22236SOL    HW272029   3.240   4.510   2.224  0.4361  1.5089 -3.7432
22237SOL     OW72030   0.483   8.631  10.489 -0.9786 -0.2682  0.4291
22237SOL    HW172031   0.424   8.593  10.424 -1.3743  0.8316  0.1148
22237SOL    HW272032   0.433   8.705  10.525 -0.5686 -0.5537  1.6231
22238SOL     OW72033   8.433   9.309   0.097 -0.2428  0.7241 -0.1922
22238SOL    HW172034   8.445   9.220   0.065 -1.5306  1.2707 -2.4277
22238SOL    HW272035   8.338   9.320   0.104 -0.1126  1.9508 -0.1056
22239SOL     OW72036   4.063   6.341   8.081  0.0906  0.1897 -0.2798
22239SOL    HW172037   4.134   6.398   8.111  1.6955 -0.8930 -1.8280
22239SOL    HW272038   4.107   6.260   8.055 -1.7361 -0.5433 -1.2365
22240SOL     OW72039   4.212   8.893   2.731  0.1046  0.1132 -0.4111
22240SOL    HW172040   4.154   8.969   2.744  0.9928  0.5721  1.1965
22240SOL    HW272041   4.159   8.818   2.758  0.1586  0.5002  0.8236
22241SOL     OW72042   2.176   1.648   5.944 -0.7411 -0.3739  0.2276
22241SOL    HW172043   2.217   1.703   6.010  0.4207  2.2564 -2.4439
22241SOL    HW272044   2.083   1.672   5.946 -0.4012  1.0657 -0.2616
22242SOL     OW72045  11.412   2.801   0.291  0.0496  0.6066  0.0728
22242SOL    HW172046  11.420   2.706   0.293 -0.9526  0.5281  0.8020
22242SOL    HW272047  11.502   2.833   0.280  0.1841 -0.4785 -2.9551
22243SOL     OW72048   1.889  10.951   7.002  0.5484 -0.3637  0.5527
22243SOL    HW172049   1.865  10.893   7.074  1.6901 -2.3681 -0.5908
22243SOL    HW272050   1.984  10.943   6.994  0.7219  1.4950  0.1475
22244SOL     OW72051   9.130   2.887   8.183 -0.6591  0.5649  0.0020
22244SOL    HW172052   9.168   2.856   8.100  0.1346  1.2373  0.1084
22244SOL    HW272053   9.195   2.864   8.249 -0.9616  0.6861  0.3440
22245SOL     OW72054   4.320   2.433   3.195  0.2942  0.4986 -0.0467
22245SOL    HW172055   4.270   2.490   3.137 -0.0894  0.9304  0.6938
22245SOL    HW272056   4.292   2.458   3.283  1.9801  0.9054  0.3970
22246SOL     OW72057  10.758   5.013   9.549  0.8699  0.5479 -0.2817
22246SOL    HW172058  10.829   5.051   9.498  0.4143 -0.5807 -1.8278
22246SOL    HW272059  10.731   5.082   9.609  0.8400  2.2802 -2.1946
22247SOL     OW72060  10.023   2.881   3.627 -0.0330 -0.4970  0.2359
22247SOL    HW172061  10.041   2.946   3.559 -1.4193  1.3300  1.5116
22247SOL    HW272062   9.957   2.824   3.588 -0.4696  0.2518 -0.1479
22248SOL     OW72063   1.586   8.147   3.875 -0.2789  0.1714 -0.1839
22248SOL    HW172064   1.574   8.192   3.792 -0.2042  2.8302  1.1536
22248SOL    HW272065   1.664   8.092   3.861 -1.4897 -1.1010 -2.4535
22249SOL     OW72066   9.181   8.788   0.071 -0.5774 -0.0769  0.3293
22249SOL    HW172067   9.121   8.860   0.091  1.1414  1.0188  2.0820
22249SOL    HW272068   9.207   8.755   0.157  1.5767 -0.2227 -0.3200
22250SOL     OW72069   9.357   0.491   1.871  0.3207  0.1055  0.1889
22250SOL    HW172070   9.385   0.420   1.929  1.5251  0.6798  0.3414
22250SOL    HW272071   9.316   0.447   1.797  3.0163 -0.9132 -0.7932
22251SOL     OW72072   7.112   9.679  10.841 -0.8382  0.1950 -1.0114
22251SOL    HW172073   7.162   9.725  10.909 -0.0949 -0.1486 -1.3097
22251SOL    HW272074   7.137   9.723  10.760  0.7172 -1.3772 -1.4386
22252SOL     OW72075   1.752   8.700  10.269 -0.4085  0.5004  0.7870
22252SOL    HW172076   1.751   8.604  10.263  0.5764  0.5313 -0.1851
22252SOL    HW272077   1.673   8.727  10.222  0.7836  0.2307 -1.5251
22253SOL     OW72078  11.778   2.526   5.799 -0.9120 -0.3365 -0.2130
22253SOL    HW172079  11.833   2.452   5.773 -1.7924 -0.9656 -0.3316
22253SOL    HW272080  11.789   2.590   5.729 -0.3388 -0.4489 -0.2371
22254SOL     OW72081   8.853   1.125   1.300 -0.4438  0.2748 -0.2918
22254SOL    HW172082   8.889   1.078   1.225  0.5079  0.2217  0.1816
22254SOL    HW272083   8.781   1.177   1.264  0.6327  1.0334 -1.4453
22255SOL     OW72084   1.998   7.855  10.889 -0.2442 -0.6116 -0.2835
22255SOL    HW172085   1.978   7.923  10.953  1.4533  0.1950 -0.5645
22255SOL    HW272086   1.915   7.839  10.845 -0.9870  0.2802  0.7364
22256SOL     OW72087   0.651   3.802  11.276 -0.1876 -0.0563  0.2133
22256SOL    HW172088   0.563   3.783  11.244 -0.0927 -0.0961 -0.0205
22256SOL    HW272089   0.707   3.795  11.199 -0.1626  1.3093  0.0905
22257SOL     OW72090   4.696   8.709   9.571 -0.0403 -0.5711  0.0088
22257SOL    HW172091   4.609   8.668   9.570 -0.1523 -0.3462  0.3672
22257SOL    HW272092   4.754   8.640   9.604 -0.1839 -0.5264  0.3586
22258SOL     OW72093   9.388   7.795   2.662 -0.4332  0.5083 -0.2544
22258SOL    HW172094   9.312   7.738   2.653  0.4775 -0.7745  0.0209
22258SOL    HW272095   9.428   7.796   2.575  2.3306 -3.3392  0.7180
22259SOL     OW72096   4.862   6.370   7.390  0.0990 -0.6996 -0.1205
22259SOL    HW172097   4.851   6.463   7.406  0.2256 -0.8834  1.1215
22259SOL    HW272098   4.801   6.350   7.319  0.5889  0.4524 -0.9040
22260SOL     OW72099   7.044   9.106   6.992 -0.6974  0.5994 -0.4998
22260SOL    HW172100   7.080   9.116   6.904 -2.6349  0.5249 -1.3536
22260SOL    HW272101   7.045   9.194   7.029  2.3068  0.3115  0.4002
22261SOL     OW72102   2.912   3.999   3.610 -0.0678 -0.0970  0.1459
22261SOL    HW172103   2.881   3.932   3.671  1.1593  0.1028  1.0342
22261SOL    HW272104   2.990   3.961   3.570 -0.4385  0.0763 -0.7518
22262SOL     OW72105   6.957   8.662   6.656  0.4256 -0.0558  0.8196
22262SOL    HW172106   6.967   8.607   6.733 -1.5396  1.6926  2.4374
22262SOL    HW272107   6.900   8.612   6.598  1.8246 -1.3330  0.4774
22263SOL     OW72108   5.886   2.433   0.271 -0.0035  0.2372 -0.1939
22263SOL    HW172109   5.811   2.465   0.322 -0.0752 -1.3916  0.8357
22263SOL    HW272110   5.963   2.468   0.317 -0.0856 -0.7307  0.7344
22264SOL     OW72111   7.922   1.992   2.973 -0.0716 -0.2272 -0.0186
22264SOL    HW172112   7.915   1.915   3.030  1.0038 -1.0643 -0.9567
22264SOL    HW272113   7.962   1.959   2.893 -0.4635  1.1476 -0.8212
22265SOL     OW72114   3.350   0.566   0.094 -0.1811 -0.5131 -0.0119
22265SOL    HW172115   3.334   0.653   0.058 -1.2232 -0.7204 -0.0875
22265SOL    HW272116   3.271   0.546   0.144 -0.4895 -1.9218 -1.0035
22266SOL     OW72117   6.578   9.812   5.381  0.4147 -0.0984 -0.1281
22266SOL    HW172118   6.549   9.834   5.293  0.0704 -2.0653 -0.5589
22266SOL    HW272119   6.661   9.766   5.368  1.2960  1.1612  0.7410
22267SOL     OW72120   1.836   6.762   7.410  0.4363  0.0723  0.0977
22267SOL    HW172121   1.859   6.714   7.490 -0.5039  0.6246  0.7219
22267SOL    HW272122   1.807   6.695   7.349 -3.3052 -0.0750  1.7936
22268SOL     OW72123   9.371   7.905   0.009 -0.3530  0.2325  0.2853
22268SOL    HW172124   9.336   7.954  -0.066 -0.2790  1.2098  0.8778
22268SOL    HW272125   9.351   7.814  -0.011  0.0718  0.4268 -1.1488
22269SOL     OW72126   8.238  11.508   2.632 -0.9322  0.0456 -0.2735
22269SOL    HW172127   8.199  11.421   2.620  0.2344 -0.2121 -2.9181
22269SOL    HW272128   8.314  11.492   2.689  0.9868 -1.3221 -2.9937
22270SOL     OW72129  10.568  11.605   3.354  0.1911 -0.2593 -0.1315
22270SOL    HW172130  10.481  11.565   3.349  0.3145 -0.6225  0.4737
22270SOL    HW272131  10.608  11.564   3.430  0.5538  0.5738  0.1399
22271SOL     OW72132   3.776   8.981   6.331 -0.2195 -0.2140  0.3721
22271SOL    HW172133   3.696   8.938   6.300 -0.4984  0.3041  0.3514
22271SOL    HW272134   3.811   9.025   6.253 -0.1862 -0.0348  0.4862
22272SOL     OW72135   1.824   5.556  11.543 -0.8283  0.2130 -0.0265
22272SOL    HW172136   1.778   5.641  11.535 -1.9968 -0.4268 -0.4123
22272SOL    HW272137   1.786   5.503  11.473  0.8296 -0.2282 -0.6182
22273SOL     OW72138   0.639   9.002  11.598  0.0954  0.1704  0.1848
22273SOL    HW172139   0.598   8.922  11.630  0.1416 -0.8027 -1.9996
22273SOL    HW272140   0.727   8.975  11.573 -0.2442  0.6012 -1.5981
22274SOL     OW72141   6.519   0.608   4.555 -0.2000 -0.2712 -0.6473
22274SOL    HW172142   6.546   0.600   4.463  1.4578  0.6703 -0.2791
22274SOL    HW272143   6.517   0.702   4.572 -3.2602 -0.2782 -0.4420
22275SOL     OW72144  10.157  11.630   7.349 -0.0942 -0.2332 -0.4438
22275SOL    HW172145  10.244  11.591   7.353 -0.2733 -0.5980  0.2004
22275SOL    HW272146  10.097  11.555   7.353 -0.4371  0.0167 -0.8312
22276SOL     OW72147  10.346   6.820   4.298  0.4305 -0.2673  0.4673
22276SOL    HW172148  10.263   6.792   4.259  0.3762  0.5693 -0.0342
22276SOL    HW272149  10.411   6.761   4.260  0.4485  0.8388 -1.2950
22277SOL     OW72150  11.325   0.863  10.442  0.0020  0.8285 -0.0025
22277SOL    HW172151  11.390   0.796  10.419 -0.6991  0.0905  0.1437
22277SOL    HW272152  11.300   0.902  10.358 -1.0697 -0.4799 -0.3101
22278SOL     OW72153   2.900   7.646   9.307 -0.4410  0.1558  0.0227
22278SOL    HW172154   2.951   7.587   9.252  0.0162  1.8092 -1.4088
22278SOL    HW272155   2.814   7.649   9.266 -1.0413 -0.8699  1.1374
22279SOL     OW72156   2.309   7.751   3.744 -0.3692 -0.0853  0.3652
22279SOL    HW172157   2.363   7.790   3.812 -0.6001  0.7473  0.0825
22279SOL    HW272158   2.220   7.755   3.778 -0.7141  1.8614 -0.6300
22280SOL     OW72159  10.197   0.340  10.743  0.2015  0.1927  0.4079
22280SOL    HW172160  10.198   0.260  10.690  2.8814 -0.0230  0.6436
22280SOL    HW272161  10.279   0.384  10.721 -0.3557  1.9619  1.6739
22281SOL     OW72162   2.536   3.707   6.736 -0.4827  0.1992 -0.2449
22281SOL    HW172163   2.569   3.620   6.711 -0.0078  0.2453  0.1962
22281SOL    HW272164   2.523   3.701   6.830 -0.5346  0.5791 -0.2290
22282SOL     OW72165   2.948   1.701  10.602  0.0416  0.2929  0.3823
22282SOL    HW172166   2.898   1.734  10.677 -0.2620  1.1357 -0.1757
22282SOL    HW272167   3.032   1.746  10.607  0.1972 -0.0008  0.4704
22283SOL     OW72168   8.156   9.184   9.376 -0.1219  0.1211  0.1232
22283SOL    HW172169   8.126   9.093   9.385 -1.6067  0.6340  0.7689
22283SOL    HW272170   8.136   9.207   9.285 -2.0476  0.5348  0.6103
22284SOL     OW72171   6.703   0.582   9.104 -0.5085 -0.4161  0.5163
22284SOL    HW172172   6.611   0.558   9.100 -0.5280 -0.2897  0.1786
22284SOL    HW272173   6.723   0.588   9.198 -0.1988 -2.9549  0.7093
22285SOL     OW72174   6.782   1.456   6.705 -0.2792 -0.4823  0.1909
22285SOL    HW172175   6.783   1.523   6.774 -1.5975  0.6116 -0.7940
22285SOL    HW272176   6.845   1.390   6.734 -0.2442  0.3179  2.0658
22286SOL     OW72177   8.262   6.374   3.490  0.3385  0.1708 -0.3027
22286SOL    HW172178   8.173   6.399   3.515  0.1010 -0.0613 -0.8939
22286SOL    HW272179   8.313   6.385   3.569  0.3391  2.9034 -0.6049
22287SOL     OW72180   0.499   7.050   1.477 -0.3138 -0.1421 -0.0749
22287SOL    HW172181   0.470   7.079   1.390  0.4383  0.1157 -0.2497
22287SOL    HW272182   0.578   7.102   1.494  0.0151 -0.7844  0.4033
22288SOL     OW72183  11.136   9.926   2.725  0.0885  0.3559 -0.3846
22288SOL    HW172184  11.157   9.841   2.763  0.9889  0.4737 -0.6010
22288SOL    HW272185  11.059   9.909   2.669  0.2261 -0.3003 -0.3821
22289SOL     OW72186   7.036   5.891   1.919 -0.0166  0.0136  0.2572
22289SOL    HW172187   7.110   5.915   1.975  1.3506 -1.9037 -0.6041
22289SOL    HW272188   7.052   5.939   1.837 -0.7454  1.0052  0.6800
22290SOL     OW72189  10.149   9.611   2.259 -0.3791  0.2282  0.1287
22290SOL    HW172190  10.127   9.665   2.335 -0.4354  0.1334  0.1798
22290SOL    HW272191  10.197   9.670   2.201 -1.9096  0.8229 -0.5930
22291SOL     OW72192   2.001   4.518   9.850  0.1034 -0.0512  0.4634
22291SOL    HW172193   2.070   4.557   9.903  0.7321 -1.1794  0.5009
22291SOL    HW272194   1.944   4.474   9.914  0.0495 -0.1823  0.3256
22292SOL     OW72195   0.328   1.696   4.121  0.0456 -0.1071 -0.3540
22292SOL    HW172196   0.341   1.788   4.146 -0.7351 -0.5334  1.8166
22292SOL    HW272197   0.405   1.651   4.153 -0.4278 -0.4924  0.2538
22293SOL     OW72198   8.361   0.684   6.753 -0.2735 -0.1985  0.3955
22293SOL    HW172199   8.425   0.754   6.763  0.5258 -0.4712 -2.0226
22293SOL    HW272200   8.279   0.730   6.734 -0.4135  0.1150  1.6957
22294SOL     OW72201  10.859   5.393  10.979 -0.2667  0.0321 -0.3313
22294SOL    HW172202  10.889   5.458  11.042 -0.3078 -1.4031  1.2362
22294SOL    HW272203  10.827   5.320  11.033 -1.4214 -0.7620 -2.0039
22295SOL     OW72204  11.238   4.350  11.260  0.0474 -0.3882 -0.7491
22295SOL    HW172205  11.288   4.431  11.245  1.0846 -0.7466  0.5351
22295SOL    HW272206  11.151   4.380  11.286  0.5077  0.3427  0.0134
22296SOL     OW72207   4.559   4.188  11.170  0.4310 -0.0203 -0.2451
22296SOL    HW172208   4.474   4.211  11.134 -2.3302 -2.8369  3.6673
22296SOL    HW272209   4.578   4.101  11.135  0.4599 -0.4121  0.7100
22297SOL     OW72210   6.176   0.517   3.694  0.0756  0.2933  0.0871
22297SOL    HW172211   6.105   0.524   3.758  0.5909  2.4508  0.4780
22297SOL    HW272212   6.138   0.550   3.613  0.5156  1.1650  0.2247
22298SOL     OW72213   2.176   3.541   2.377 -0.2743 -0.2683 -0.6383
22298SOL    HW172214   2.124   3.476   2.331 -0.6383  0.2724 -0.9976
22298SOL    HW272215   2.156   3.527   2.470 -1.4201  0.2299 -0.7973
22299SOL     OW72216   6.279   6.710   7.694 -0.0566  0.8446  0.2385
22299SOL    HW172217   6.290   6.627   7.740  0.7596  0.7053 -0.2011
22299SOL    HW272218   6.333   6.773   7.742  1.5883  0.4863 -1.0461
22300SOL     OW72219   9.155  10.907   5.129  0.7992 -0.1119 -0.2918
22300SOL    HW172220   9.159  10.905   5.224 -0.1989  0.6193 -0.2223
22300SOL    HW272221   9.220  10.973   5.104 -0.2108  1.0329  0.0049
22301SOL     OW72222   9.646   5.373  10.841  0.6830 -0.0508 -0.1400
22301SOL    HW172223   9.584   5.355  10.770  1.4967  0.8840 -1.1208
22301SOL    HW272224   9.732   5.366  10.799  1.1449  1.9280  0.3920
22302SOL     OW72225   9.953   4.663   4.435 -0.2057  0.2327 -0.2122
22302SOL    HW172226   9.948   4.622   4.349 -1.4912  0.9962 -0.5387
22302SOL    HW272227   9.943   4.591   4.498 -0.9418 -0.1442 -0.7430
22303SOL     OW72228   1.733  10.391  11.193 -0.1035  0.3807 -0.0313
22303SOL    HW172229   1.734  10.302  11.156 -1.2918  0.2056  0.3016
22303SOL    HW272230   1.796  10.388  11.264 -0.6304 -0.4104  0.4172
22304SOL     OW72231  10.896   4.205   5.054 -0.0044  0.3987 -0.0702
22304SOL    HW172232  10.949   4.285   5.062 -1.2922  1.2718 -0.0019
22304SOL    HW272233  10.843   4.219   4.976 -0.9995  0.0742  0.5331
22305SOL     OW72234   1.260   0.141   1.784 -0.0407  0.3581  0.4546
22305SOL    HW172235   1.316   0.213   1.812  0.8311  0.0247 -0.3600
22305SOL    HW272236   1.235   0.097   1.866  1.6859 -0.0534  0.8090
22306SOL     OW72237   4.338  11.182   4.501  0.0874 -0.5832  0.5763
22306SOL    HW172238   4.348  11.254   4.563 -1.3581  1.6614 -1.5731
22306SOL    HW272239   4.264  11.132   4.534  0.0600 -0.1124  1.2526
22307SOL     OW72240   9.827   3.904   0.836  0.0644 -0.4736 -0.1877
22307SOL    HW172241   9.884   3.978   0.817  0.4578 -0.9076 -0.7211
22307SOL    HW272242   9.744   3.944   0.862 -0.7141  0.2333 -3.3102
22308SOL     OW72243   9.251   2.339  10.885  0.2889 -0.5038 -0.1709
22308SOL    HW172244   9.216   2.252  10.865  1.2099 -0.5246 -1.9609
22308SOL    HW272245   9.214   2.361  10.970 -2.2215 -1.4604 -0.9081
22309SOL     OW72246  10.775   1.036  11.493 -0.0027  0.6766  0.4224
22309SOL    HW172247  10.842   1.006  11.431  1.2588  0.0901  1.9767
22309SOL    HW272248  10.753   1.125  11.464  0.7606  0.5165 -0.6989
22310SOL     OW72249   4.365   1.216   6.410  0.0757  0.6956  0.4944
22310SOL    HW172250   4.449   1.213   6.364 -0.1368 -0.6507  0.1339
22310SOL    HW272251   4.358   1.306   6.441  1.0600  1.1775 -0.5720
22311SOL     OW72252   6.474   1.691   9.329 -0.4388  0.1416 -0.5353
22311SOL    HW172253   6.532   1.636   9.276 -2.2059 -0.2030 -2.2047
22311SOL    HW272254   6.390   1.689   9.284 -2.1353 -0.2801  2.3590
22312SOL     OW72255   8.277   5.983   6.006 -0.7323 -0.1381 -0.0458
22312SOL    HW172256   8.269   5.961   6.099  0.6227 -0.4811 -0.0014
22312SOL    HW272257   8.227   5.915   5.961  0.4021 -1.2478  0.3172
22313SOL     OW72258   6.969   2.948   2.555 -0.1054 -0.5878 -0.4583
22313SOL    HW172259   6.924   2.935   2.472  1.6865 -2.4108 -1.2251
22313SOL    HW272260   6.910   2.910   2.621 -0.9470 -0.3308 -1.0517
22314SOL     OW72261   3.728  10.611   1.868 -0.4891  0.2146 -0.2144
22314SOL    HW172262   3.738  10.702   1.838 -0.3339  0.1302 -0.4233
22314SOL    HW272263   3.728  10.560   1.787  0.3521 -0.0549 -0.0482
22315SOL     OW72264   3.393  10.493   5.493 -0.0541  0.0279  0.0528
22315SOL    HW172265   3.403  10.427   5.424 -0.0279 -0.2513  0.3210
22315SOL    HW272266   3.349  10.566   5.450  0.1246 -0.0738 -0.3043
22316SOL     OW72267   1.725   5.804   8.929  0.2181 -0.1512 -0.2232
22316SOL    HW172268   1.805   5.857   8.939 -0.3537  0.5714  0.7994
22316SOL    HW272269   1.754   5.725   8.884  2.0514 -1.0533  2.3007
22317SOL     OW72270  10.570   6.661   6.003 -0.3486 -0.0451  0.4758
22317SOL    HW172271  10.660   6.689   6.017  0.0795 -0.7239 -0.7694
22317SOL    HW272272  10.563   6.651   5.908 -1.1798 -1.7994  0.6927
22318SOL     OW72273   2.760   5.108   2.004  0.0632  0.5629  0.0826
22318SOL    HW172274   2.695   5.040   2.021 -0.0694  1.2176  2.5464
22318SOL    HW272275   2.822   5.100   2.076  0.5426  2.4695 -0.0735
22319SOL     OW72276  11.732   5.815   6.908 -0.0748 -0.4565  0.7508
22319SOL    HW172277  11.734   5.908   6.928  1.3235 -0.8432  2.6024
22319SOL    HW272278  11.662   5.806   6.842  0.3065  1.9700 -0.0651
22320SOL     OW72279   9.696   0.544   3.954  0.3631 -0.0555  0.0992
22320SOL    HW172280   9.716   0.638   3.951 -0.9351  0.2129 -0.8732
22320SOL    HW272281   9.602   0.540   3.970  0.3697 -1.1920 -0.0824
22321SOL     OW72282   2.724   0.977   5.365  0.4148  0.2386 -0.3129
22321SOL    HW172283   2.714   0.912   5.296  0.5536 -0.3857  0.2382
22321SOL    HW272284   2.819   0.986   5.376  0.3965 -0.3770  0.4358
22322SOL     OW72285   9.915   6.950   2.575  0.1757 -0.1734  0.6837
22322SOL    HW172286   9.834   6.996   2.552 -0.3491 -1.4270 -0.0456
22322SOL    HW272287   9.976   7.020   2.600 -0.9343  0.8288  0.6605
22323SOL     OW72288   1.958   9.782   6.370 -0.1433  0.6013 -0.1757
22323SOL    HW172289   2.012   9.838   6.314  2.0152 -0.8578  0.3146
22323SOL    HW272290   1.983   9.693   6.345 -1.3810 -0.1125  1.0332
22324SOL     OW72291   1.354  11.392   0.295  0.1591  0.1617  0.7131
22324SOL    HW172292   1.328  11.408   0.385  0.0040  0.6662  0.5807
22324SOL    HW272293   1.306  11.457   0.244  0.5781  0.1655  0.3125
22325SOL     OW72294   6.255  11.282   8.940  0.3850  0.6434  0.2819
22325SOL    HW172295   6.349  11.296   8.934  0.1074  2.5082 -0.4743
22325SOL    HW272296   6.239  11.261   9.032  1.5119  0.4425  0.4437
22326SOL     OW72297  10.992   5.470   3.128  0.3029 -0.2644 -0.4412
22326SOL    HW172298  10.974   5.441   3.218 -0.6528 -1.9425 -1.1270
22326SOL    HW272299  11.078   5.512   3.134  0.6740 -1.1416  1.0922
22327SOL     OW72300   0.920  10.977  11.152  0.4245 -0.1253  0.1026
22327SOL    HW172301   0.884  10.891  11.130 -0.9496  0.3235  0.4736
22327SOL    HW272302   0.861  11.010  11.220  0.0091  1.7546 -1.1033
22328SOL     OW72303   3.312   6.397   2.264 -0.0411 -0.5495  0.0698
22328SOL    HW172304   3.269   6.409   2.179 -0.5320  2.3536  0.6489
22328SOL    HW272305   3.405   6.389   2.243  0.1728  2.7292 -0.6980
22329SOL     OW72306   5.854   1.878   9.755 -0.2291 -0.0471 -0.7945
22329SOL    HW172307   5.833   1.854   9.845 -0.4074  0.2351 -0.7584
22329SOL    HW272308   5.891   1.966   9.761 -0.3162  0.0060 -1.0055
22330SOL     OW72309   5.233   4.980   2.406  0.5565  0.2565  0.2132
22330SOL    HW172310   5.310   5.023   2.369 -0.9982  1.7449 -1.4617
22330SOL    HW272311   5.179   4.958   2.331 -0.5417 -1.0696  1.3348
22331SOL     OW72312   9.242   8.220   2.333  0.2080 -0.2645  0.5223
22331SOL    HW172313   9.209   8.283   2.398  0.6523  1.0214 -0.4688
22331SOL    HW272314   9.163   8.176   2.301 -0.6333  2.4053 -1.4428
22332SOL     OW72315   8.014   6.216   1.639 -0.2177 -0.0935  0.1247
22332SOL    HW172316   7.983   6.231   1.550  0.0526  0.1181  0.0647
22332SOL    HW272317   7.979   6.289   1.690 -1.6287 -0.9990  0.5113
22333SOL     OW72318   9.034   0.201   2.277  0.0871 -0.2576  0.0078
22333SOL    HW172319   9.123   0.185   2.246 -0.2467 -1.2710 -0.4526
22333SOL    HW272320   9.016   0.292   2.252  0.5838 -0.4013 -0.9062
22334SOL     OW72321   7.849   2.612   8.079 -0.0885 -0.1638  0.2237
22334SOL    HW172322   7.840   2.586   7.988 -0.2907 -1.6479  0.6399
22334SOL    HW272323   7.818   2.703   8.082 -1.6965 -0.6451 -0.8697
22335SOL     OW72324   4.348   0.690   3.551  0.8919 -0.5269  0.8122
22335SOL    HW172325   4.385   0.688   3.463 -0.5816 -1.7469  0.1861
22335SOL    HW272326   4.423   0.711   3.608  1.7500  0.9587 -0.7551
22336SOL     OW72327  11.683   3.808   3.171 -0.4071  0.3576 -0.2962
22336SOL    HW172328  11.615   3.766   3.224 -0.0386 -0.2031 -0.2684
22336SOL    HW272329  11.739   3.737   3.141  0.6792  0.8930  0.3846
22337SOL     OW72330   3.442   0.208  11.039  0.4996  0.1380  0.0925
22337SOL    HW172331   3.399   0.138  10.991  1.7360 -0.8069  0.3210
22337SOL    HW272332   3.527   0.172  11.065  2.0067  2.3268 -1.4187
22338SOL     OW72333  10.764   3.139   0.904  0.7394  0.0396  0.4788
22338SOL    HW172334  10.723   3.202   0.845  1.4821  0.1679  0.0845
22338SOL    HW272335  10.696   3.117   0.967  0.2014  0.5655  0.0911
22339SOL     OW72336  10.860   6.032   7.795  0.4979  0.5521  0.4842
22339SOL    HW172337  10.858   6.128   7.791 -1.5689  0.6162  1.7274
22339SOL    HW272338  10.951   6.010   7.813  1.2271  2.2014 -0.9133
22340SOL     OW72339   5.083   2.616  11.685  0.3466 -0.2698 -0.1876
22340SOL    HW172340   5.015   2.671  11.724 -1.3701 -2.1128 -0.4274
22340SOL    HW272341   5.082   2.536  11.737  0.8008 -1.1987 -1.5463
22341SOL     OW72342   4.884   3.578   5.781  0.0680  0.7203 -0.3960
22341SOL    HW172343   4.975   3.551   5.770 -0.9089 -2.5934 -1.5778
22341SOL    HW272344   4.882   3.623   5.866  2.5803 -0.2179  0.2407
22342SOL     OW72345   5.509   1.830   4.448  0.1232  0.1215 -0.0845
22342SOL    HW172346   5.490   1.923   4.432 -1.8553 -0.2979 -0.5234
22342SOL    HW272347   5.544   1.798   4.365  0.9743  0.4953  0.1201
22343SOL     OW72348   1.560   4.918   3.957 -0.6347 -0.0552 -0.6867
22343SOL    HW172349   1.629   4.863   3.994 -2.6007 -2.5209 -0.4433
22343SOL    HW272350   1.595   5.007   3.962  1.7016 -0.9853  1.2614
22344SOL     OW72351   6.107   6.901   2.231 -0.2143  0.4861 -0.4286
22344SOL    HW172352   6.125   6.807   2.228 -0.6904  0.3501  0.5201
22344SOL    HW272353   6.188   6.942   2.201  0.3848 -0.2083  0.1916
22345SOL     OW72354   6.426   7.150   2.431  0.1038 -0.6345  0.3623
22345SOL    HW172355   6.394   7.238   2.450 -1.5285 -0.9900 -0.5301
22345SOL    HW272356   6.353   7.092   2.455  1.1313 -1.7590  0.9044
22346SOL     OW72357   8.582  10.898   3.882 -0.1835 -1.0743  0.0346
22346SOL    HW172358   8.588  10.969   3.946 -3.2477  0.0473 -0.7280
22346SOL    HW272359   8.651  10.918   3.818 -1.0487  1.3984 -0.2422
22347SOL     OW72360   0.758   7.922   0.257 -0.1711 -0.3895  0.1879
22347SOL    HW172361   0.795   7.899   0.342  1.1291  0.2673 -0.1823
22347SOL    HW272362   0.699   7.995   0.276  0.0737 -0.2786  0.5356
22348SOL     OW72363   6.210   6.066   7.933  0.0879 -0.1617  1.3812
22348SOL    HW172364   6.236   5.974   7.937 -0.3614 -0.4402 -0.8543
22348SOL    HW272365   6.116   6.065   7.949  0.3085  0.1251  2.8862
22349SOL     OW72366   0.490   7.229   4.942 -0.1249 -0.4289  0.0872
22349SOL    HW172367   0.554   7.298   4.957  0.9153 -1.4158  0.3775
22349SOL    HW272368   0.475   7.230   4.848 -0.7488  0.7080  0.1803
22350SOL     OW72369   4.937   0.571   7.486 -0.1294 -0.3014 -0.1334
22350SOL    HW172370   4.952   0.658   7.522  1.4808 -1.1851  1.4774
22350SOL    HW272371   4.849   0.548   7.514 -1.1335  1.2887 -1.7455
22351SOL     OW72372   3.674   7.274  10.523  0.2177 -0.6583 -0.0266
22351SOL    HW172373   3.592   7.270  10.474 -0.7042  1.1317  1.2641
22351SOL    HW272374   3.711   7.185  10.516 -1.5896 -1.3818 -0.9970
22352SOL     OW72375   0.393   5.289   8.640 -0.4306 -0.3186 -0.3330
22352SOL    HW172376   0.449   5.353   8.596 -1.7673  1.9546  1.0537
22352SOL    HW272377   0.453   5.228   8.682  0.9150  0.4134 -1.1312
22353SOL     OW72378   6.716   5.710   9.155 -0.1721 -0.2835 -0.1315
22353SOL    HW172379   6.782   5.743   9.216 -0.0084  0.7369 -0.8392
22353SOL    HW272380   6.683   5.788   9.111 -1.6813 -0.8094  0.0268
22354SOL     OW72381   5.758   7.158  11.655 -0.2899 -0.0876  0.4108
22354SOL    HW172382   5.697   7.138  11.726 -0.8523  0.0799 -0.0203
22354SOL    HW272383   5.742   7.090  11.589 -2.4249  1.7990 -1.1975
22355SOL     OW72384   8.891   0.917   5.258 -0.2457 -0.2375  0.1533
22355SOL    HW172385   8.936   0.833   5.260 -1.6222 -1.0185  0.0685
22355SOL    HW272386   8.877   0.935   5.165  0.4412  0.3159  0.1519
22356SOL     OW72387   8.812  10.480  10.350  0.6744  0.0621 -0.2033
22356SOL    HW172388   8.758  10.559  10.349 -1.0819 -1.0870 -0.4914
22356SOL    HW272389   8.807  10.448  10.440  0.9185 -0.0342 -0.2219
22357SOL     OW72390   5.020   7.031  11.181 -0.2899  0.0108 -0.5856
22357SOL    HW172391   5.041   6.969  11.111 -1.7500 -1.0846 -0.0985
22357SOL    HW272392   5.047   6.987  11.261  1.9597  1.5147 -0.4271
22358SOL     OW72393   7.415   8.565   8.768  0.8199 -0.1518  0.4122
22358SOL    HW172394   7.492   8.520   8.800  0.4916 -1.2967 -0.3610
22358SOL    HW272395   7.343   8.530   8.820  0.6951  0.2846  0.5413
22359SOL     OW72396   9.224   2.671   3.709  0.0653  0.4997 -0.2001
22359SOL    HW172397   9.170   2.606   3.664  2.1853 -1.4062 -0.1392
22359SOL    HW272398   9.236   2.635   3.797 -0.9296  2.3466  0.7516
22360SOL     OW72399   1.696   8.968   5.133 -0.5579  0.4050  0.0483
22360SOL    HW172400   1.662   8.959   5.221 -1.5828 -0.8382 -0.4559
22360SOL    HW272401   1.774   9.023   5.143  0.0729 -0.7561  1.8938
22361SOL     OW72402   9.855  10.732  10.167 -0.1848 -0.2677 -0.1265
22361SOL    HW172403   9.925  10.682  10.124 -0.0506  1.2890 -1.8759
22361SOL    HW272404   9.777  10.678  10.158 -0.0256 -0.2588 -1.9056
22362SOL     OW72405  10.931  10.879   8.389  0.8000 -0.1820 -0.6158
22362SOL    HW172406  10.961  10.881   8.480  0.4226  1.5425 -0.4908
22362SOL    HW272407  10.981  10.947   8.345  1.0791 -1.0927 -1.7571
22363SOL     OW72408   3.987   5.046   9.496 -0.6624  0.1656  0.0787
22363SOL    HW172409   3.908   5.009   9.534 -0.0296 -0.1150  1.1616
22363SOL    HW272410   3.981   5.140   9.512 -0.7617  0.1394  0.1906
22364SOL     OW72411   9.146   6.232  10.094 -0.2152 -0.0265 -0.0243
22364SOL    HW172412   9.069   6.223  10.150 -1.4981  0.8935 -1.5576
22364SOL    HW272413   9.188   6.313  10.124  0.1467 -0.4845  0.7553
22365SOL     OW72414   2.112   7.585   1.461  0.7421  0.4540 -0.1691
22365SOL    HW172415   2.102   7.652   1.394  0.7261  0.8925  0.2658
22365SOL    HW272416   2.144   7.508   1.414  2.1717  1.1912 -0.4446
22366SOL     OW72417   1.395   7.321   6.159 -0.2999 -0.1353 -0.8177
22366SOL    HW172418   1.338   7.347   6.231 -0.6804 -1.7677 -0.4765
22366SOL    HW272419   1.481   7.353   6.184 -0.5787  0.0328 -0.0336
22367SOL     OW72420   0.502   3.861  10.128  0.3767 -0.3704  0.0495
22367SOL    HW172421   0.452   3.907  10.196 -0.7072 -2.0228  0.4266
22367SOL    HW272422   0.475   3.770  10.136  2.3960 -1.0888 -0.7369
22368SOL     OW72423   7.818   9.739   3.218 -0.0162 -0.4503 -0.0315
22368SOL    HW172424   7.747   9.797   3.244  0.0718 -0.6112  0.5714
22368SOL    HW272425   7.869   9.790   3.155 -0.6895 -0.3517 -0.5192
22369SOL     OW72426   7.882  10.425   7.025  0.2103 -0.5758  0.1282
22369SOL    HW172427   7.833  10.385   6.953 -1.5227  1.0787  0.3240
22369SOL    HW272428   7.908  10.350   7.079 -0.3727 -1.6755 -1.0445
22370SOL     OW72429   2.291   0.366   4.105 -0.5873 -0.0143 -0.0121
22370SOL    HW172430   2.314   0.433   4.169 -1.4204 -0.0111  0.3024
22370SOL    HW272431   2.317   0.404   4.021  0.1858  0.1324  0.2889
22371SOL     OW72432   0.377  10.276   3.489 -0.0791  0.0659 -0.5388
22371SOL    HW172433   0.294  10.234   3.470 -0.0118 -0.1552 -0.3526
22371SOL    HW272434   0.431  10.206   3.528 -0.7748  0.8741  2.0552
22372SOL     OW72435   1.684   5.144   9.267 -0.2847 -0.0356 -0.8287
22372SOL    HW172436   1.608   5.099   9.303 -0.3196  0.7825  0.1542
22372SOL    HW272437   1.742   5.157   9.341  1.3025 -1.5231 -1.7297
22373SOL     OW72438  11.373   1.094   0.514 -0.5862  0.1885  0.0111
22373SOL    HW172439  11.343   1.006   0.535 -0.7506  0.5673  1.4769
22373SOL    HW272440  11.345   1.108   0.423 -2.8685 -0.3070  0.5804
22374SOL     OW72441   7.796   1.251   3.465  0.2030 -0.3306 -0.2174
22374SOL    HW172442   7.710   1.283   3.492 -0.3502 -2.0799  0.2321
22374SOL    HW272443   7.783   1.223   3.374  0.9158  1.4663 -0.9139
22375SOL     OW72444   7.219   3.133   4.999 -0.3859 -0.1598  0.2272
22375SOL    HW172445   7.214   3.221   5.036 -0.6400 -0.2522  0.4088
22375SOL    HW272446   7.142   3.126   4.943 -0.4714 -0.3404  0.3693
22376SOL     OW72447   4.808   1.523   3.876  0.1762 -0.1819 -0.0228
22376SOL    HW172448   4.850   1.512   3.961 -0.6934 -0.5419  0.3636
22376SOL    HW272449   4.765   1.608   3.881 -1.2329 -0.9073  0.4940
22377SOL     OW72450   4.662   9.268   2.127 -0.1778  0.2143  0.3396
22377SOL    HW172451   4.664   9.308   2.214 -2.8483 -1.4774  1.2727
22377SOL    HW272452   4.746   9.223   2.120 -0.2184 -0.2983  2.4152
22378SOL     OW72453   4.843   6.923   5.221  0.7986  0.3132  0.6765
22378SOL    HW172454   4.825   6.888   5.308 -1.5752 -0.4412 -0.0429
22378SOL    HW272455   4.771   6.891   5.167  2.5081  0.2886 -1.7211
22379SOL     OW72456  10.376   4.661   7.853  0.7840 -0.3192 -0.2482
22379SOL    HW172457  10.381   4.625   7.942 -1.0888 -1.7973 -0.6786
22379SOL    HW272458  10.322   4.740   7.862  0.1165 -0.7780 -0.1256
22380SOL     OW72459   6.921   2.139   5.174 -0.8311  0.3367  0.2312
22380SOL    HW172460   6.896   2.108   5.261 -2.0556 -0.2122 -0.2978
22380SOL    HW272461   6.974   2.069   5.137  2.2622  1.7630  1.6010
22381SOL     OW72462  11.791   8.132  10.422  0.0679  0.2576 -0.1217
22381SOL    HW172463  11.789   8.075  10.345  1.5373  0.6635 -0.4823
22381SOL    HW272464  11.765   8.075  10.494  3.9147 -1.6753 -0.0252
22382SOL     OW72465   0.966   2.854  10.930 -0.2496 -0.2754 -0.1182
22382SOL    HW172466   0.882   2.900  10.934 -0.5056 -0.6085 -1.2666
22382SOL    HW272467   0.969   2.802  11.010 -0.8810  0.1822  0.2086
22383SOL     OW72468   1.031   8.571   6.173 -0.3933 -0.4161 -0.3409
22383SOL    HW172469   1.037   8.661   6.140 -2.9555  0.2646  0.8031
22383SOL    HW272470   1.071   8.575   6.260  1.6487 -1.0017 -1.1985
22384SOL     OW72471  11.818   7.552  10.754  0.3006  0.0369  0.4369
22384SOL    HW172472  11.728   7.543  10.721 -0.0292 -0.7390  1.5095
22384SOL    HW272473  11.826   7.644  10.779 -0.8474 -0.2799  2.1183
22385SOL     OW72474   7.533   3.637   1.277  0.6471 -0.1272 -0.2689
22385SOL    HW172475   7.513   3.727   1.303  0.5376  0.2883 -1.7106
22385SOL    HW272476   7.448   3.594   1.272  0.6854 -0.2693  0.2466
22386SOL     OW72477   8.340   9.551   0.662 -0.6691  0.2104  0.5785
22386SOL    HW172478   8.410   9.599   0.618 -0.6427  0.5449  0.9787
22386SOL    HW272479   8.371   9.539   0.751 -1.1043  0.3359  0.7525
22387SOL     OW72480  10.538   6.569   3.204  0.7155 -0.0593  0.0393
22387SOL    HW172481  10.569   6.630   3.270  1.0014 -0.3757  0.1984
22387SOL    HW272482  10.591   6.490   3.216 -0.4007 -0.7477  0.5746
22388SOL     OW72483   5.691   5.982   4.431  0.8982 -0.0084 -0.5462
22388SOL    HW172484   5.671   5.894   4.398 -1.7955 -0.2781  1.4906
22388SOL    HW272485   5.732   5.967   4.517  1.4916  0.7467 -0.6793
22389SOL     OW72486   2.769  11.365   5.617  0.0855 -0.3633  0.0597
22389SOL    HW172487   2.745  11.342   5.528  2.1731 -2.2127 -0.1394
22389SOL    HW272488   2.744  11.456   5.627 -2.0981 -0.6991 -1.6843
22390SOL     OW72489  10.473  11.250   7.207 -0.6259 -0.3536 -0.0315
22390SOL    HW172490  10.438  11.307   7.140 -0.1782  1.2298  1.0336
22390SOL    HW272491  10.562  11.283   7.223 -0.8582 -0.4431  1.5962
22391SOL     OW72492   2.271   8.859  11.423  0.1914 -0.6260  0.0815
22391SOL    HW172493   2.354   8.898  11.393  0.2163 -1.8859 -1.6763
22391SOL    HW272494   2.292   8.820  11.507  0.7410  1.1209  0.8048
22392SOL     OW72495   4.881   8.950   2.438  0.3504  0.4540 -0.7515
22392SOL    HW172496   4.949   8.899   2.482 -0.2323 -2.5165 -2.9560
22392SOL    HW272497   4.805   8.942   2.495  0.9656  1.0870  0.1792
22393SOL     OW72498   8.176   0.555   6.122  0.2769  0.1654  0.1115
22393SOL    HW172499   8.186   0.472   6.168 -0.3677 -0.2771 -0.5281
22393SOL    HW272500   8.197   0.534   6.031 -2.2843  0.1221 -0.5339
22394SOL     OW72501   9.250   9.493   0.412 -0.4745  0.4854 -0.4917
22394SOL    HW172502   9.194   9.422   0.382  0.3644 -0.0270 -0.8424
22394SOL    HW272503   9.271   9.542   0.333  0.0894  0.3088 -0.4520
22395SOL     OW72504   5.723  10.492   5.564 -0.5351  0.5845 -0.0881
22395SOL    HW172505   5.797  10.501   5.504 -1.0617 -0.7325 -0.9770
22395SOL    HW272506   5.647  10.478   5.506 -1.2104  0.2407  0.8620
22396SOL     OW72507   6.235  10.149   6.010 -0.1786  0.1046  0.7068
22396SOL    HW172508   6.255  10.210   5.939 -1.4562  0.8005  0.9090
22396SOL    HW272509   6.298  10.171   6.079 -0.5297  1.1145  0.7211
22397SOL     OW72510   3.060   6.571   9.947  0.2802 -0.0057  0.8056
22397SOL    HW172511   2.983   6.627   9.936 -0.5864 -1.3663 -0.4237
22397SOL    HW272512   3.130   6.631   9.972 -0.5009  1.6718 -0.8171
22398SOL     OW72513   4.273   3.030   7.803  0.4347 -0.0475  0.2679
22398SOL    HW172514   4.280   3.067   7.891  2.1563  0.8134 -0.1872
22398SOL    HW272515   4.327   3.088   7.748 -0.0619 -0.9484 -1.2300
22399SOL     OW72516  11.776  10.246   5.478  0.0517 -0.2026 -0.0693
22399SOL    HW172517  11.805  10.328   5.518  0.9945 -0.2717 -0.5797
22399SOL    HW272518  11.778  10.263   5.384  1.3615 -1.1563 -0.2362
22400SOL     OW72519   1.670   9.139   1.099  0.1696 -0.1962  0.5502
22400SOL    HW172520   1.692   9.232   1.087 -0.1619 -0.1531  0.2237
22400SOL    HW272521   1.576   9.134   1.077  0.5013 -0.8497 -0.8455
22401SOL     OW72522   7.026  11.307   2.588  0.0396  0.4816  0.8570
22401SOL    HW172523   7.034  11.267   2.675  0.6533 -0.3570  0.4319
22401SOL    HW272524   7.096  11.266   2.537  0.3390  1.7355  0.2479
22402SOL     OW72525   9.382   5.023   9.656 -0.3338 -0.2930 -0.3722
22402SOL    HW172526   9.412   4.996   9.742 -2.9861 -2.1946  0.0765
22402SOL    HW272527   9.413   4.955   9.596 -0.5062 -0.2439 -0.5213
22403SOL     OW72528   1.854   9.460  10.557 -0.2219 -0.3465 -0.2675
22403SOL    HW172529   1.805   9.489  10.481  0.3812  1.0018 -0.1653
22403SOL    HW272530   1.793   9.468  10.630 -0.6067 -1.0581 -0.4994
22404SOL     OW72531   6.393   3.687   3.378  0.0463 -0.2633 -0.3680
22404SOL    HW172532   6.360   3.597   3.386  0.9755 -0.6176 -0.2775
22404SOL    HW272533   6.452   3.683   3.302  0.1316  0.2575 -0.3274
22405SOL     OW72534   3.410   9.177  11.284  0.0170 -0.2323  0.1653
22405SOL    HW172535   3.398   9.119  11.209  0.6837 -0.5949  0.3313
22405SOL    HW272536   3.329   9.228  11.288  0.0992  0.0159 -0.9908
22406SOL     OW72537  10.021   2.042   1.481  0.4765  0.2254 -0.1387
22406SOL    HW172538   9.985   2.112   1.426 -0.2557  0.5935  0.7883
22406SOL    HW272539  10.096   2.010   1.432 -1.7845 -1.4480 -2.8046
22407SOL     OW72540   7.103   2.859   0.249  0.5230 -0.0654 -0.6642
22407SOL    HW172541   7.029   2.809   0.284  1.1012 -1.3358 -1.1844
22407SOL    HW272542   7.127   2.919   0.320 -1.7279  1.2272 -0.9093
22408SOL     OW72543   6.939  11.230   1.376 -0.6206  0.5536  0.4730
22408SOL    HW172544   6.961  11.292   1.445  0.0627 -0.9397  1.6573
22408SOL    HW272545   6.905  11.154   1.422 -1.5469  0.0611 -0.9450
22409SOL     OW72546   9.272  11.773   2.544 -0.0814 -0.1090 -0.3268
22409SOL    HW172547   9.258  11.856   2.498  0.4235  0.8290  1.1563
22409SOL    HW272548   9.365  11.773   2.566 -0.5496  0.1045  1.8236
22410SOL     OW72549   2.377   3.097  10.591 -0.3831  0.7976 -0.2515
22410SOL    HW172550   2.308   3.077  10.654 -1.5219  0.9017 -1.4094
22410SOL    HW272551   2.410   3.011  10.563 -0.5255  0.7242 -0.1938
22411SOL     OW72552   5.859   2.685   3.714 -0.0867 -0.1530 -0.1237
22411SOL    HW172553   5.935   2.627   3.714  0.5154  0.5623  1.7416
22411SOL    HW272554   5.814   2.666   3.796 -0.1917  1.5906  0.2600
22412SOL     OW72555   7.328   6.379   3.909 -0.1507 -0.0917  0.0193
22412SOL    HW172556   7.249   6.381   3.964  0.2296  2.5816  0.5934
22412SOL    HW272557   7.300   6.416   3.825  0.1248 -0.7740 -0.3872
22413SOL     OW72558  10.296   9.146   2.611 -0.2722  0.2390 -0.3262
22413SOL    HW172559  10.202   9.124   2.611 -0.2622  0.1517  0.7403
22413SOL    HW272560  10.333   9.091   2.680  0.1171  2.0931  1.0158
22414SOL     OW72561   4.765   9.981   0.189  0.5990  0.0332 -0.2212
22414SOL    HW172562   4.741   9.970   0.281 -0.3111 -0.2856 -0.4900
22414SOL    HW272563   4.781  10.075   0.180  1.6330 -0.0539  0.4737
22415SOL     OW72564   1.538   8.511   5.798  0.0716 -0.1682 -0.4721
22415SOL    HW172565   1.591   8.434   5.817 -1.7860 -0.9559  2.1077
22415SOL    HW272566   1.586   8.584   5.838  0.0224 -0.6333  0.4700
22416SOL     OW72567   8.095   4.264   4.083  0.3501 -0.5147  0.2653
22416SOL    HW172568   8.178   4.299   4.115 -0.4093  0.6206  1.0762
22416SOL    HW272569   8.088   4.298   3.994  0.3402  0.1301  0.5095
22417SOL     OW72570   2.406  11.147   6.056  0.1230  0.6431 -0.4165
22417SOL    HW172571   2.461  11.222   6.079 -0.2966  0.9704 -0.4741
22417SOL    HW272572   2.321  11.185   6.035 -1.1983 -0.0610  2.9196
22418SOL     OW72573   1.463   2.457  10.780 -0.5430 -0.0401  0.3303
22418SOL    HW172574   1.421   2.543  10.779 -0.8452 -0.1732 -1.1671
22418SOL    HW272575   1.513   2.455  10.862 -0.4233  1.6077  0.3289
22419SOL     OW72576   5.959   4.292   2.276 -0.1636  0.5809  0.0998
22419SOL    HW172577   5.915   4.225   2.224 -2.3325  3.2040 -1.6900
22419SOL    HW272578   5.910   4.372   2.259  1.5255  2.4389  3.1054
22420SOL     OW72579   9.213  10.582   6.781 -0.6077  0.1059  0.1818
22420SOL    HW172580   9.239  10.669   6.753 -1.0059 -0.0179 -0.6030
22420SOL    HW272581   9.123  10.593   6.811 -0.0543  0.3276  1.9012
22421SOL     OW72582  10.655   2.790   7.479 -0.1169 -0.1029  0.2577
22421SOL    HW172583  10.679   2.753   7.564 -2.3891  0.6428  1.3203
22421SOL    HW272584  10.608   2.719   7.435  0.2052 -0.1840  0.0489
22422SOL     OW72585   6.270  10.285  11.287 -1.4382 -0.2099 -0.7396
22422SOL    HW172586   6.258  10.362  11.342  0.5446 -1.4282  1.6284
22422SOL    HW272587   6.315  10.317  11.209  0.2361  0.9560  0.6282
22423SOL     OW72588   6.085   5.239   5.275 -0.0899 -0.1301  0.0754
22423SOL    HW172589   6.041   5.309   5.323 -0.9086 -0.9541  0.5518
22423SOL    HW272590   6.071   5.262   5.183  0.1409  0.6322  0.2258
22424SOL     OW72591  10.212   8.973   9.600 -0.2263  0.2818 -0.4280
22424SOL    HW172592  10.175   8.998   9.685  1.2960 -0.7044  0.5910
22424SOL    HW272593  10.239   8.882   9.612 -1.7977 -0.5502 -2.6436
22425SOL     OW72594  10.073   0.429   2.579  0.2841  0.2727 -0.3418
22425SOL    HW172595  10.072   0.389   2.666  0.7267  1.1370  0.0723
22425SOL    HW272596  10.098   0.358   2.520 -1.0386 -0.5926  0.0860
22426SOL     OW72597   0.859   0.789   1.975 -0.5253 -0.1607  0.3304
22426SOL    HW172598   0.950   0.758   1.977 -0.8810 -1.4617 -1.3460
22426SOL    HW272599   0.858   0.856   1.907 -0.9819 -0.8494 -0.3679
22427SOL     OW72600   5.206   1.432  11.665  0.4860 -0.3205  0.2747
22427SOL    HW172601   5.119   1.464  11.690  0.1173 -1.2512  0.1927
22427SOL    HW272602   5.213   1.346  11.707  2.6604  1.0370  3.0722
22428SOL     OW72603  10.372   5.430   5.587 -0.3215 -0.1058  0.5453
22428SOL    HW172604  10.336   5.349   5.623  0.8118 -0.7865  0.1919
22428SOL    HW272605  10.338   5.498   5.645 -0.1492 -0.9669  1.7111
22429SOL     OW72606  11.387   5.992   1.527  0.0194 -0.5677 -0.0703
22429SOL    HW172607  11.438   6.071   1.542 -0.2114 -0.2839 -0.7418
22429SOL    HW272608  11.342   6.008   1.444 -1.0365 -0.8712  0.4284
22430SOL     OW72609   9.125   9.586  10.370  0.1798  0.3148 -0.2600
22430SOL    HW172610   9.034   9.564  10.351  0.0934  1.4852 -1.3860
22430SOL    HW272611   9.146   9.537  10.449 -2.2504  1.9554  1.5684
22431SOL     OW72612   7.071   7.518   6.278 -0.3808  0.5757  0.1975
22431SOL    HW172613   7.061   7.442   6.336 -2.3069  0.1495 -0.6324
22431SOL    HW272614   7.022   7.495   6.200 -0.9663  2.6639 -0.0961
22432SOL     OW72615  11.704   7.954   2.693  0.0565 -0.9742  0.0364
22432SOL    HW172616  11.680   8.002   2.772  0.9528  0.6343 -0.6072
22432SOL    HW272617  11.789   7.915   2.713 -0.0836 -1.2410  0.1219
22433SOL     OW72618   5.798  10.890   6.443  0.1020  1.1828  0.1157
22433SOL    HW172619   5.712  10.924   6.466 -0.1970  1.5344 -1.3926
22433SOL    HW272620   5.857  10.966   6.448 -0.1810  1.5192 -1.3029
22434SOL     OW72621   3.408   8.936   5.119  1.0013  0.0203  0.4136
22434SOL    HW172622   3.448   8.953   5.034 -0.3441 -0.3499 -0.3052
22434SOL    HW272623   3.340   8.872   5.102 -0.3191  1.0674  1.5023
22435SOL     OW72624   9.922   4.564   2.826  0.2152 -0.7001 -0.3689
22435SOL    HW172625   9.838   4.540   2.786  0.1053 -1.2764  0.2007
22435SOL    HW272626   9.985   4.506   2.784  0.2812 -0.4770 -0.5764
22436SOL     OW72627   1.704   5.134   4.822 -0.0600 -0.0852 -0.2032
22436SOL    HW172628   1.795   5.117   4.847 -0.2367 -1.4620 -0.4149
22436SOL    HW272629   1.689   5.078   4.746 -1.1402 -0.0122 -0.0538
22437SOL     OW72630   0.824   9.657   2.739  0.0044 -0.3601  0.0068
22437SOL    HW172631   0.837   9.630   2.830  0.9665  2.2982  0.7622
22437SOL    HW272632   0.838   9.752   2.740 -1.0573 -0.0825 -2.7367
22438SOL     OW72633   1.720   6.977   2.858  0.2860  0.4512  0.2984
22438SOL    HW172634   1.794   6.951   2.803  0.4605  0.4983  0.5095
22438SOL    HW272635   1.671   7.040   2.804  0.0930  0.0050 -0.0514
22439SOL     OW72636   0.722  10.886   2.775  0.0049 -0.5023 -0.3872
22439SOL    HW172637   0.651  10.823   2.788 -0.4756  0.1293  0.1069
22439SOL    HW272638   0.678  10.966   2.746  0.3776  0.2799  1.1213
22440SOL     OW72639  11.448   9.099   8.872 -0.1229  0.1953  0.4616
22440SOL    HW172640  11.462   9.122   8.964  1.6176  0.4760  0.1606
22440SOL    HW272641  11.353   9.094   8.863 -0.3959  2.0367  1.8145
22441SOL     OW72642   3.074  11.231   1.249  0.1872  0.3190 -0.1456
22441SOL    HW172643   3.146  11.256   1.306 -0.7687  1.1230  0.7499
22441SOL    HW272644   3.071  11.300   1.183 -0.8590  1.2855  0.8623
22442SOL     OW72645   8.311   4.621   9.633 -0.6477  0.0740 -0.0550
22442SOL    HW172646   8.267   4.698   9.597  1.0997  0.8162 -0.6886
22442SOL    HW272647   8.240   4.557   9.645 -2.0901  1.6504  0.2195
22443SOL     OW72648   2.874   5.092   4.966 -0.3082 -0.3228  0.4388
22443SOL    HW172649   2.799   5.134   4.925  0.0344  0.4098  0.5488
22443SOL    HW272650   2.945   5.103   4.903  0.5987  2.0772  1.7583
22444SOL     OW72651   4.766  11.440   1.379  0.1976 -0.3332  0.7395
22444SOL    HW172652   4.798  11.454   1.290  0.6290 -1.3550  0.7277
22444SOL    HW272653   4.845  11.428   1.431  0.0428  1.6310  1.5414
22445SOL     OW72654   8.309   3.625   4.779 -0.3973 -0.4706  0.5673
22445SOL    HW172655   8.264   3.575   4.847  0.1593  1.4305  2.4371
22445SOL    HW272656   8.241   3.644   4.715 -1.8193  0.5580  2.2818
22446SOL     OW72657   9.915   1.155   9.323  0.0341  0.6696 -0.4072
22446SOL    HW172658   9.972   1.228   9.298  0.0661  1.0625  0.7826
22446SOL    HW272659   9.918   1.096   9.247  1.2873  1.1197 -0.7345
22447SOL     OW72660   0.390   2.882  10.483  0.0262  0.3187  0.0268
22447SOL    HW172661   0.333   2.905  10.410 -1.0031 -2.9269 -0.3556
22447SOL    HW272662   0.373   2.948  10.550 -4.9630 -0.8519  0.2790
22448SOL     OW72663   9.968   7.679   8.986 -0.7658 -0.6169  0.1537
22448SOL    HW172664   9.876   7.702   8.997 -1.4079  0.7586 -5.3444
22448SOL    HW272665  10.016   7.753   9.021 -1.9458  0.2300  0.0350
22449SOL     OW72666   7.908   2.712   5.026 -0.0635 -0.3413  0.6222
22449SOL    HW172667   7.899   2.625   4.986  0.3387 -0.7290  1.3507
22449SOL    HW272668   7.829   2.722   5.079 -1.2364  0.7189 -1.2375
22450SOL     OW72669   1.311  11.622  10.111  0.0396 -0.0096 -0.2966
22450SOL    HW172670   1.220  11.596  10.093 -0.5107  1.7799 -0.3425
22450SOL    HW272671   1.309  11.658  10.200  1.2845 -2.2865  0.7386
22451SOL     OW72672   5.924   0.446   3.523  0.2137 -0.8509 -0.7091
22451SOL    HW172673   5.903   0.522   3.469 -1.5768  0.1178  1.2084
22451SOL    HW272674   5.852   0.385   3.508 -0.2100 -0.6452  0.4163
22452SOL     OW72675  10.413   3.232   6.521 -0.2260  0.1200  0.0115
22452SOL    HW172676  10.396   3.149   6.566 -0.6567  0.3817  0.3440
22452SOL    HW272677  10.367   3.297   6.574 -1.7688  0.2903 -1.4376
22453SOL     OW72678  10.667   7.472   9.223  0.3551 -0.5746 -0.2139
22453SOL    HW172679  10.595   7.415   9.248  0.3375 -2.1463 -3.3234
22453SOL    HW272680  10.626   7.557   9.206 -1.2844 -1.8451 -3.5939
22454SOL     OW72681  10.681   0.761  10.123  0.2532 -0.0881 -0.0405
22454SOL    HW172682  10.690   0.774  10.217  0.2605  1.0079 -0.1839
22454SOL    HW272683  10.616   0.826  10.095  0.8557  0.1657 -0.9109
22455SOL     OW72684   6.337   4.287  11.560 -0.4878 -0.2309  0.4630
22455SOL    HW172685   6.399   4.226  11.522 -2.7502 -0.8561 -2.6077
22455SOL    HW272686   6.347   4.367  11.508 -2.5308 -0.5404 -0.5288
22456SOL     OW72687   2.153   3.535  10.445 -0.1516  0.0776 -0.4813
22456SOL    HW172688   2.149   3.630  10.429 -0.5515 -0.0400 -1.1473
22456SOL    HW272689   2.064   3.512  10.473  0.0608 -0.0314  0.1099
22457SOL     OW72690   1.260   3.302   7.516 -0.7266  0.1545 -0.5994
22457SOL    HW172691   1.218   3.382   7.485 -1.0835  0.1198 -0.2175
22457SOL    HW272692   1.278   3.319   7.608 -0.6029 -0.1230 -0.5724
22458SOL     OW72693   4.729   8.678   9.299 -0.3625  0.0427  0.7271
22458SOL    HW172694   4.720   8.680   9.395 -0.9732 -1.8433  0.7317
22458SOL    HW272695   4.642   8.658   9.267  0.0006 -0.0870 -0.2102
22459SOL     OW72696   5.972   7.587   6.479  0.5472  0.8419 -0.2081
22459SOL    HW172697   5.970   7.531   6.557  0.5949  1.0636 -0.0426
22459SOL    HW272698   5.988   7.528   6.406  2.8423  0.8849  0.1965
22460SOL     OW72699   6.254   3.150   5.328 -0.8365 -0.4350 -0.6280
22460SOL    HW172700   6.321   3.082   5.326 -0.0547  0.2218  0.9290
22460SOL    HW272701   6.195   3.124   5.399 -0.7705  0.2618 -0.2993
22461SOL     OW72702  11.712  10.703   4.685 -0.2830 -0.0621  0.3357
22461SOL    HW172703  11.660  10.779   4.711 -0.2910 -0.0133  0.1804
22461SOL    HW272704  11.654  10.628   4.698  0.1918 -0.2031  1.8684
22462SOL     OW72705   4.902   9.400   0.183 -0.1850  0.1834  0.8018
22462SOL    HW172706   4.823   9.450   0.161  0.4275  0.0843 -1.9329
22462SOL    HW272707   4.973   9.465   0.181  0.1634 -0.1976  0.6448
22463SOL     OW72708   5.891   6.778   8.258  0.5665  0.3348  0.0696
22463SOL    HW172709   5.985   6.780   8.273  0.9890 -0.7706 -2.1243
22463SOL    HW272710   5.869   6.866   8.228  0.3288  1.4520  3.1032
22464SOL     OW72711   3.187   7.361   3.833 -0.0931  0.3024  0.7159
22464SOL    HW172712   3.111   7.417   3.814  0.7189  0.7063 -1.8549
22464SOL    HW272713   3.262   7.415   3.807  0.9405 -0.8116  1.3236
22465SOL     OW72714   1.473  10.496   1.236  0.0753  0.0588  0.0199
22465SOL    HW172715   1.427  10.418   1.205 -0.3948  0.0495  0.7287
22465SOL    HW272716   1.443  10.566   1.177 -0.0034 -0.1601 -0.2042
22466SOL     OW72717   1.021   4.688   1.931 -0.5663 -0.2217  0.0427
22466SOL    HW172718   0.975   4.612   1.967 -0.8410  1.2165  3.0849
22466SOL    HW272719   0.956   4.759   1.934  0.0958  0.4868 -1.3706
22467SOL     OW72720   9.774   4.273   1.650  0.0910  0.1817 -0.1915
22467SOL    HW172721   9.750   4.325   1.726 -2.3416 -0.2586 -0.5785
22467SOL    HW272722   9.816   4.195   1.686 -0.3902  0.3119  0.6688
22468SOL     OW72723   0.559   6.566   2.589 -0.1109  0.4796 -0.0429
22468SOL    HW172724   0.575   6.564   2.494 -2.1438 -0.1485 -0.4341
22468SOL    HW272725   0.612   6.495   2.624  0.3889  0.4796 -0.7728
22469SOL     OW72726   1.727   7.767   3.708  0.2604 -0.0413  0.1000
22469SOL    HW172727   1.727   7.832   3.638  1.2148 -0.2181 -0.0876
22469SOL    HW272728   1.737   7.683   3.661 -0.0075 -0.2383  0.3948
22470SOL     OW72729   2.846   5.168  10.296 -0.0558  0.1502  0.0664
22470SOL    HW172730   2.751   5.176  10.312 -0.4899 -0.1312 -2.0973
22470SOL    HW272731   2.855   5.087  10.246  1.5037 -0.4507  1.2440
22471SOL     OW72732   6.105   7.994  10.557 -0.3529  0.5359 -0.2792
22471SOL    HW172733   6.075   8.035  10.476 -2.1411 -0.1606  0.0029
22471SOL    HW272734   6.106   7.901  10.538  1.3074  0.4974 -0.1455
22472SOL     OW72735   8.776   7.196   4.368  0.0309  0.0242  0.1572
22472SOL    HW172736   8.682   7.180   4.375  0.1682 -0.0779  2.3583
22472SOL    HW272737   8.810   7.116   4.327 -0.6191 -0.7576  1.0996
22473SOL     OW72738   5.243   0.974   2.236  0.2449  0.3768  0.3801
22473SOL    HW172739   5.338   0.969   2.224  0.1786 -0.3201  0.1226
22473SOL    HW272740   5.231   0.981   2.331  0.5532  0.5635  0.4091
22474SOL     OW72741   1.832   1.373   4.384  0.1287 -0.5323 -0.4799
22474SOL    HW172742   1.784   1.457   4.383  1.0193 -0.0181 -0.7711
22474SOL    HW272743   1.924   1.398   4.386  0.4077 -1.5178 -0.6675
22475SOL     OW72744   1.410   0.380   5.203  0.0158 -0.0754 -0.1939
22475SOL    HW172745   1.399   0.358   5.295  0.6966  1.2107  0.2281
22475SOL    HW272746   1.482   0.324   5.173 -0.8624 -1.2085 -0.2324
22476SOL     OW72747   0.911   1.727   9.457 -0.0904  0.1380  0.9754
22476SOL    HW172748   0.881   1.803   9.407  1.4182 -0.6916 -1.3040
22476SOL    HW272749   0.985   1.760   9.509  0.3379  0.3074  0.2593
22477SOL     OW72750   6.663  10.764   3.990 -0.0743  0.4386  0.2364
22477SOL    HW172751   6.626  10.701   3.928  0.0548  1.5682 -1.0311
22477SOL    HW272752   6.751  10.731   4.009  0.1399  0.4436 -0.7305
22478SOL     OW72753   3.370  11.145   1.660 -0.0790 -0.3566  0.1390
22478SOL    HW172754   3.438  11.081   1.638 -0.4254 -0.6813 -0.0094
22478SOL    HW272755   3.326  11.107   1.736  0.1069  0.0055  0.4297
22479SOL     OW72756   1.232   9.774   4.790 -0.4751 -0.0187  0.6986
22479SOL    HW172757   1.280   9.822   4.858  0.8025  0.3309 -0.4084
22479SOL    HW272758   1.140   9.797   4.805 -0.0535  1.4183  1.2541
22480SOL     OW72759  10.564   0.825  11.425 -0.6602  0.0574 -0.9350
22480SOL    HW172760  10.641   0.851  11.476 -0.7661  1.5993 -1.4889
22480SOL    HW272761  10.514   0.769  11.484  0.8939 -1.0357 -0.5914
22481SOL     OW72762   2.296   5.709   8.430 -0.2024 -0.0465  0.0736
22481SOL    HW172763   2.244   5.790   8.431  1.1244  0.8362  0.2374
22481SOL    HW272764   2.374   5.730   8.481 -1.2133 -2.4396  2.8919
22482SOL     OW72765   1.716   7.896   2.739  0.0271 -0.1619 -0.3010
22482SOL    HW172766   1.672   7.964   2.689  0.8371 -0.2223 -1.1276
22482SOL    HW272767   1.705   7.921   2.831 -0.2326  0.7333 -0.5749
22483SOL     OW72768   5.770  11.750   5.158  0.3024 -0.2392 -0.0858
22483SOL    HW172769   5.688  11.784   5.192 -0.5179 -1.0052 -1.2123
22483SOL    HW272770   5.809  11.824   5.111  1.3321  0.7512  2.1976
22484SOL     OW72771   6.251  10.505   6.055 -0.9632  0.3425  0.1981
22484SOL    HW172772   6.308  10.580   6.038 -0.3959 -0.1472 -0.1035
22484SOL    HW272773   6.254  10.454   5.974 -0.3302 -0.6487  0.8172
22485SOL     OW72774   0.132   9.544   4.069 -0.0707  0.1632 -0.7462
22485SOL    HW172775   0.211   9.514   4.023 -0.2985 -0.9490 -0.4443
22485SOL    HW272776   0.163   9.609   4.131  0.9421 -1.7433  0.8354
22486SOL     OW72777   3.503   9.735   1.274  0.4258 -0.9205 -0.0054
22486SOL    HW172778   3.501   9.647   1.309  0.2161 -0.6865  0.5825
22486SOL    HW272779   3.547   9.726   1.189  0.0662 -1.6428 -0.1233
22487SOL     OW72780   3.202   3.753   0.661  0.0169 -0.1335 -0.2543
22487SOL    HW172781   3.204   3.727   0.569  0.9192  0.2672 -0.3548
22487SOL    HW272782   3.284   3.719   0.697  0.4420  1.1184  0.0090
22488SOL     OW72783   9.423   4.380   8.941 -0.4082  0.3412 -0.4688
22488SOL    HW172784   9.416   4.469   8.976 -0.4970  1.4093 -3.0048
22488SOL    HW272785   9.354   4.331   8.986 -0.5518  1.5931  0.7670
22489SOL     OW72786   5.045   0.907   8.106  0.2338 -0.0622 -0.1118
22489SOL    HW172787   5.094   0.863   8.036 -0.3945  1.9013 -1.8992
22489SOL    HW272788   5.112   0.937   8.167  0.8109 -1.6779  0.0920
22490SOL     OW72789  11.529   6.526   9.898 -0.1269  0.1040  0.6364
22490SOL    HW172790  11.490   6.470   9.832 -2.5391 -0.7752  2.6532
22490SOL    HW272791  11.478   6.607   9.894  0.6124  0.5668  0.5001
22491SOL     OW72792   5.373   3.489   0.622  0.5439 -0.0502 -0.6486
22491SOL    HW172793   5.411   3.417   0.572  0.0983 -0.1831 -0.8009
22491SOL    HW272794   5.404   3.568   0.578  1.0826 -0.1485 -0.4446
22492SOL     OW72795  11.725   7.760   1.076  0.3411 -0.8524  0.0235
22492SOL    HW172796  11.655   7.818   1.046 -1.0492 -1.7912  1.3188
22492SOL    HW272797  11.727   7.773   1.171  1.4355 -1.3961  0.0820
22493SOL     OW72798   0.824   9.855  10.610  0.4492 -0.3821  0.3101
22493SOL    HW172799   0.876   9.818  10.682  0.4621  0.1602  0.5822
22493SOL    HW272800   0.807   9.780  10.552  2.7424 -0.3405 -0.5229
22494SOL     OW72801   4.592   4.467   3.625 -0.0989  0.3481  0.5359
22494SOL    HW172802   4.550   4.524   3.561 -1.4502  0.3134  1.3419
22494SOL    HW272803   4.629   4.527   3.690 -0.2268  0.3503  0.6082
22495SOL     OW72804   8.124   7.059   5.998  0.6409  0.3722  0.2663
22495SOL    HW172805   8.062   7.087   6.065  2.1010 -1.2482  2.4434
22495SOL    HW272806   8.101   6.968   5.981 -0.4453  1.0520 -2.4414
22496SOL     OW72807   7.760   3.440  11.301  0.8498  0.2242 -0.1239
22496SOL    HW172808   7.722   3.528  11.299 -0.7126 -0.4283 -0.8146
22496SOL    HW272809   7.713   3.393  11.233  0.9149 -1.4396  0.9398
22497SOL     OW72810   4.851   9.503   7.463  0.0186  0.3864  0.4570
22497SOL    HW172811   4.825   9.411   7.456  0.3735 -0.0552  3.6212
22497SOL    HW272812   4.782   9.550   7.418  0.5452 -1.4230 -2.5275
22498SOL     OW72813   8.713   2.441   7.267  0.7200 -0.1252 -0.0930
22498SOL    HW172814   8.747   2.522   7.228  0.3485  0.0331 -0.0972
22498SOL    HW272815   8.697   2.384   7.192 -2.2550  1.0307 -0.4618
22499SOL     OW72816  10.750  11.108   1.397 -0.4245 -0.1539 -0.2656
22499SOL    HW172817  10.699  11.036   1.360 -0.0760  0.0081 -1.0812
22499SOL    HW272818  10.807  11.137   1.326  1.5966 -1.0223  0.9310
22500SOL     OW72819   0.575   7.968  10.989 -0.3235  0.6410  0.3874
22500SOL    HW172820   0.589   7.916  10.910  1.9016  0.1569  1.0273
22500SOL    HW272821   0.659   7.964  11.036 -1.7229  0.3971  3.0806
22501SOL     OW72822   0.738   4.172  11.401  0.1473 -0.0990 -0.4083
22501SOL    HW172823   0.723   4.228  11.477 -2.8390 -2.1160  0.6518
22501SOL    HW272824   0.815   4.120  11.425 -1.7189 -1.9142  2.1531
22502SOL     OW72825   1.738   6.086   7.865 -0.5744  0.1363  0.1774
22502SOL    HW172826   1.822   6.088   7.911  0.6753 -0.3942 -1.9238
22502SOL    HW272827   1.672   6.094   7.934  1.1588 -0.5183  2.0084
22503SOL     OW72828   6.474   9.119  10.883  0.8045  0.2435 -0.2494
22503SOL    HW172829   6.568   9.100  10.874  0.9088  0.5856  0.0573
22503SOL    HW272830   6.469   9.173  10.962  0.0812 -1.8000  1.2053
22504SOL     OW72831   4.454   6.930  10.574  0.4596  0.2305 -0.3648
22504SOL    HW172832   4.491   6.904  10.489  1.7889 -1.0325  0.5624
22504SOL    HW272833   4.463   7.025  10.576 -0.7034  0.4340 -2.1206
22505SOL     OW72834   0.053   5.974   6.262 -0.9366 -0.6283 -0.3472
22505SOL    HW172835   0.077   5.936   6.347 -0.6338 -0.7355 -0.4774
22505SOL    HW272836   0.016   6.059   6.283 -0.7870 -0.6201 -0.1106
22506SOL     OW72837   1.563   8.843  10.806 -0.5667 -0.0130 -0.7839
22506SOL    HW172838   1.594   8.849  10.896  1.6965  2.0201 -1.5889
22506SOL    HW272839   1.565   8.749  10.786 -1.1032 -0.4941  1.2338
22507SOL     OW72840   3.385   6.355   9.520 -0.0888 -0.1059 -0.4034
22507SOL    HW172841   3.330   6.394   9.588 -0.5919 -0.0274 -0.8442
22507SOL    HW272842   3.388   6.262   9.542 -0.6271 -0.1566 -0.5261
22508SOL     OW72843   6.454   9.403  10.008 -0.4913  0.0480 -0.1509
22508SOL    HW172844   6.397   9.468   9.967 -1.9254  0.4519  2.3204
22508SOL    HW272845   6.460   9.333   9.943 -1.5272  1.2327 -1.5859
22509SOL     OW72846   1.618   6.745   5.959  0.0068  0.6001 -0.4136
22509SOL    HW172847   1.597   6.814   6.022 -1.7150 -1.3066  1.2547
22509SOL    HW272848   1.687   6.694   6.001 -0.4559 -0.1091 -0.4931
22510SOL     OW72849   0.281   9.386   1.772  0.0597 -0.3641  0.4796
22510SOL    HW172850   0.237   9.463   1.737  0.8863 -0.4344 -0.8088
22510SOL    HW272851   0.222   9.313   1.751  0.0819 -0.2784  0.1112
22511SOL     OW72852   5.672   9.474   2.869 -0.6090  0.1361  0.3623
22511SOL    HW172853   5.761   9.476   2.905 -0.6784  1.4987  0.5090
22511SOL    HW272854   5.615   9.461   2.945 -0.5649 -0.3393  0.3167
22512SOL     OW72855   1.929   8.593  11.614 -0.5986 -0.5537 -0.7861
22512SOL    HW172856   1.937   8.680  11.575 -0.1502 -0.3016 -0.1613
22512SOL    HW272857   2.016   8.554  11.603 -0.4872 -0.5049 -0.1205
22513SOL     OW72858  10.267   6.984   0.535  0.4578 -0.0910 -0.2548
22513SOL    HW172859  10.194   6.989   0.598  0.9971  1.3826  0.2863
22513SOL    HW272860  10.224   6.976   0.450 -0.3186 -0.1319  0.1292
22514SOL     OW72861   9.350   6.899   1.306  0.0852  0.3982  0.1804
22514SOL    HW172862   9.278   6.932   1.252 -0.7219 -1.0531  0.3036
22514SOL    HW272863   9.310   6.879   1.391  0.3800 -1.3740 -0.0597
22515SOL     OW72864   7.480   7.264   3.256 -0.1385 -0.3816 -0.4427
22515SOL    HW172865   7.433   7.329   3.310 -0.5765 -1.3438  0.3612
22515SOL    HW272866   7.571   7.270   3.285 -0.4811 -1.3761  0.9455
22516SOL     OW72867   3.327   5.004   8.490 -0.2518  0.6018 -0.0298
22516SOL    HW172868   3.395   5.070   8.507  2.3228 -1.4121 -1.6850
22516SOL    HW272869   3.335   4.943   8.564 -0.5041  0.5337 -0.0590
22517SOL     OW72870   0.447   9.872   7.987  0.3868 -0.2269 -0.0737
22517SOL    HW172871   0.354   9.850   8.001  0.0683 -1.3263 -3.1988
22517SOL    HW272872   0.463   9.945   8.046 -2.1797 -0.6311  1.2907
22518SOL     OW72873   1.919   3.309   2.855 -0.6293 -0.2295 -0.6060
22518SOL    HW172874   1.852   3.354   2.803  1.2393  0.5605 -2.4581
22518SOL    HW272875   1.930   3.224   2.811 -1.0979 -0.7655  0.2925
22519SOL     OW72876   3.980  11.375   0.545  0.7886 -0.9800 -0.0447
22519SOL    HW172877   3.955  11.444   0.484  2.6164  0.3772  0.6511
22519SOL    HW272878   3.897  11.337   0.573 -0.3055  1.0079 -0.3909
22520SOL     OW72879   3.028  10.319  10.057 -0.6899 -0.1175 -0.1873
22520SOL    HW172880   3.006  10.382   9.988  0.8207  0.7149  0.0384
22520SOL    HW272881   2.990  10.355  10.136 -1.8587 -0.7349 -0.4474
22521SOL     OW72882   9.165   8.409   8.251 -0.4145  0.1748 -0.3354
22521SOL    HW172883   9.076   8.378   8.265  0.2251 -1.2467  0.8656
22521SOL    HW272884   9.211   8.388   8.332  0.6245  2.4368 -0.2548
22522SOL     OW72885   4.682   6.339   0.758 -0.2550  0.2718 -0.1193
22522SOL    HW172886   4.773   6.325   0.732  0.2701  3.2797 -0.2767
22522SOL    HW272887   4.686   6.410   0.822 -2.5432  1.1701 -0.8748
22523SOL     OW72888   2.018   7.978   0.150 -0.2012 -0.4906  0.1213
22523SOL    HW172889   1.994   7.983   0.058  0.2420  2.1249  0.0786
22523SOL    HW272890   2.099   7.925   0.151  0.5227  0.5413 -1.1734
22524SOL     OW72891   5.135   9.106   7.102  0.0692  0.5923  0.2319
22524SOL    HW172892   5.135   9.066   7.015  2.2833 -0.6020  0.7260
22524SOL    HW272893   5.045   9.136   7.114 -1.3148 -2.6886 -0.8976
22525SOL     OW72894   1.428   3.772   9.783 -0.2613 -0.0973  0.0002
22525SOL    HW172895   1.482   3.820   9.846 -0.5734  0.2326  0.0164
22525SOL    HW272896   1.339   3.776   9.819 -0.2001 -1.2229  0.3222
22526SOL     OW72897   5.412   0.060  10.193 -0.2695 -0.0535 -0.1607
22526SOL    HW172898   5.324   0.045  10.158 -0.1796 -1.3398  0.1231
22526SOL    HW272899   5.399   0.075  10.286 -0.3454  1.6529 -0.4182
22527SOL     OW72900  10.908   8.658   1.500  0.2907  0.1740  0.1002
22527SOL    HW172901  10.904   8.673   1.594  0.9082  2.6999 -0.1878
22527SOL    HW272902  10.856   8.729   1.462 -0.2772 -1.0127 -1.4715
22528SOL     OW72903  10.171  11.724   6.280  0.3102  0.5332 -0.4693
22528SOL    HW172904  10.171  11.816   6.252  3.2601  0.4171 -1.2328
22528SOL    HW272905  10.218  11.678   6.210  1.6832 -0.9869  1.3329
22529SOL     OW72906   8.327   5.803   6.621 -0.2661 -0.5137 -0.1501
22529SOL    HW172907   8.353   5.844   6.539 -0.4111 -0.7036 -0.2920
22529SOL    HW272908   8.403   5.751   6.647  0.1061  0.2254  0.2866
22530SOL     OW72909   5.260   9.505  10.261 -0.7526 -0.0653  0.7512
22530SOL    HW172910   5.351   9.536  10.259 -1.5937  2.9110  2.2628
22530SOL    HW272911   5.208   9.586  10.260 -3.3127 -1.5970  1.9809
22531SOL     OW72912   3.572  11.027   1.516  0.3609  0.3069  0.3771
22531SOL    HW172913   3.633  10.954   1.525 -0.2298 -0.3995 -1.0028
22531SOL    HW272914   3.627  11.104   1.512  1.0033 -0.0612  1.7325
22532SOL     OW72915  10.848   6.123  11.597  0.4169 -0.6518 -0.1680
22532SOL    HW172916  10.793   6.082  11.665  0.9418 -2.7855 -0.9423
22532SOL    HW272917  10.841   6.217  11.614 -1.0719 -1.0163  1.5880
22533SOL     OW72918   5.354   7.410   0.195 -0.3363  0.6185  0.1597
22533SOL    HW172919   5.263   7.389   0.216  0.3776 -1.1760  1.7862
22533SOL    HW272920   5.365   7.383   0.104 -1.4204  0.9229 -0.0802
22534SOL     OW72921   9.465   6.012   9.438 -0.4271 -0.8160 -0.0689
22534SOL    HW172922   9.538   6.042   9.492 -0.7814 -1.9879  1.1038
22534SOL    HW272923   9.422   6.093   9.410  0.4351 -0.1497  0.4762
22535SOL     OW72924   4.858   8.331   6.890  0.1968 -0.4251  0.1437
22535SOL    HW172925   4.907   8.297   6.965  2.5259 -0.5290 -1.3269
22535SOL    HW272926   4.905   8.411   6.866 -0.5559 -0.3545 -1.1392
22536SOL     OW72927   1.315   4.100   4.094 -0.0182 -0.6681 -0.3434
22536SOL    HW172928   1.380   4.169   4.110 -0.2229 -0.4766 -0.3236
22536SOL    HW272929   1.355   4.021   4.131  0.0857 -0.4965 -0.0802
22537SOL     OW72930   0.198   3.213   0.889 -0.0858  0.4939 -0.0134
22537SOL    HW172931   0.290   3.219   0.914 -0.0701 -0.7132  0.3107
22537SOL    HW272932   0.197   3.234   0.795  0.6701 -0.3436 -0.2322
22538SOL     OW72933   6.034   6.313   9.474 -0.2964 -0.0485 -0.1012
22538SOL    HW172934   6.105   6.258   9.441 -1.5675 -3.6077  2.4582
22538SOL    HW272935   5.960   6.293   9.417  0.1133  2.0138 -1.4465
22539SOL     OW72936   4.380   2.703   2.440 -0.3986 -0.9596 -0.0972
22539SOL    HW172937   4.326   2.778   2.416  0.1637  0.0970  1.6742
22539SOL    HW272938   4.458   2.711   2.385 -0.6815 -0.6811 -0.4646
22540SOL     OW72939   1.200   6.658   7.997 -0.1041  0.0620 -0.0429
22540SOL    HW172940   1.283   6.692   8.032 -0.3354  0.8243 -0.2140
22540SOL    HW272941   1.182   6.713   7.921 -0.7136 -0.1664 -0.0672
22541SOL     OW72942   6.740   6.985   6.812 -0.3687 -0.2819  0.5275
22541SOL    HW172943   6.657   7.015   6.850 -0.7950 -1.5625  0.6600
22541SOL    HW272944   6.718   6.962   6.722  0.3665  1.5383 -0.1723
22542SOL     OW72945   1.007   9.215   8.836 -0.3266  0.1634  0.5745
22542SOL    HW172946   1.028   9.176   8.920 -1.6624  0.0408  0.8788
22542SOL    HW272947   0.919   9.183   8.816  0.3006 -0.5395 -1.3070
22543SOL     OW72948   6.101   7.233   8.125 -0.2232  0.3592 -0.3382
22543SOL    HW172949   6.008   7.225   8.102 -0.7015 -2.7950  2.0110
22543SOL    HW272950   6.106   7.316   8.172 -1.5149  1.2544 -1.6694
22544SOL     OW72951   4.071   6.035  11.635 -0.0894 -0.6971  0.0715
22544SOL    HW172952   4.086   6.000  11.547 -0.9787  2.5781 -1.5227
22544SOL    HW272953   3.976   6.035  11.645  0.0216 -3.0175  2.0208
22545SOL     OW72954   3.106   8.757   6.730 -0.0565 -0.1075  0.1642
22545SOL    HW172955   3.182   8.702   6.714  0.0523 -1.2749  3.7141
22545SOL    HW272956   3.137   8.822   6.794 -1.5985  0.4562  0.3836
22546SOL     OW72957  10.408   6.872   4.990 -0.5040 -0.4041  0.1258
22546SOL    HW172958  10.339   6.813   4.961 -0.1319 -0.4092 -0.7698
22546SOL    HW272959  10.362   6.952   5.017 -0.9567 -0.8737  0.7781
22547SOL     OW72960   8.930   5.928  10.296  0.6826 -0.0763  0.3277
22547SOL    HW172961   8.917   5.888  10.382 -2.0393 -0.5225 -0.1705
22547SOL    HW272962   8.843   5.924  10.255  1.1684  2.8976 -1.2634
22548SOL     OW72963  10.082   1.396   0.744  0.4403 -0.0325  0.5928
22548SOL    HW172964   9.996   1.363   0.718  0.4232 -0.0663  0.6952
22548SOL    HW272965  10.109   1.451   0.670  0.6341 -0.5672  0.2569
22549SOL     OW72966   0.789   6.870  11.584  0.5233 -0.0119  0.0738
22549SOL    HW172967   0.713   6.860  11.642 -0.0448 -0.1920 -0.6952
22549SOL    HW272968   0.813   6.781  11.560  0.2074  0.0961 -0.6705
22550SOL     OW72969   8.230  11.373  10.674 -0.0285  0.5926 -0.5311
22550SOL    HW172970   8.291  11.329  10.733  1.0342  0.3587 -1.7453
22550SOL    HW272971   8.243  11.330  10.590 -3.9173 -1.3921 -0.3222
22551SOL     OW72972   4.149   4.597  11.479  0.7272 -0.3202  0.1946
22551SOL    HW172973   4.071   4.551  11.508 -0.1730  0.5573 -0.7748
22551SOL    HW272974   4.126   4.634  11.394  1.2823  2.1135  1.0103
22552SOL     OW72975   4.943  10.676   6.355 -0.3958 -0.0345  0.1480
22552SOL    HW172976   4.932  10.599   6.411  2.4872  0.6891  1.9063
22552SOL    HW272977   4.977  10.744   6.413  2.6794  0.8103 -2.3570
22553SOL     OW72978   0.693   0.463   5.049  0.5054 -0.0210 -0.4244
22553SOL    HW172979   0.666   0.544   5.005 -0.0952  0.1810  0.3096
22553SOL    HW272980   0.772   0.487   5.097 -0.5113  0.5485  1.0313
22554SOL     OW72981   6.336   7.004  10.358  0.0147 -0.1767 -0.3672
22554SOL    HW172982   6.324   7.013  10.263 -0.9910  1.7705 -0.0945
22554SOL    HW272983   6.404   7.068  10.380 -0.6471  0.2840  0.3898
22555SOL     OW72984   9.323   7.634   4.253  0.2839  0.3576 -0.4629
22555SOL    HW172985   9.273   7.611   4.332 -1.8062  0.2066 -1.7699
22555SOL    HW272986   9.258   7.664   4.191  1.4687 -2.0520 -3.0940
22556SOL     OW72987   6.156  11.824   0.615 -0.0788 -0.6745 -0.3913
22556SOL    HW172988   6.236  11.771   0.614 -0.1641 -0.8110 -0.1092
22556SOL    HW272989   6.085  11.761   0.630 -0.3073 -0.6334 -1.2518
22557SOL     OW72990  11.535   7.845   9.019 -0.4041 -0.2653 -0.1806
22557SOL    HW172991  11.535   7.755   9.052 -0.6786 -0.0242  0.4988
22557SOL    HW272992  11.534   7.836   8.924  1.8827 -1.0022 -0.1910
22558SOL     OW72993  10.805   6.122   1.990  0.3159  0.1390 -0.0476
22558SOL    HW172994  10.717   6.085   1.983  0.8218 -0.8831 -1.5699
22558SOL    HW272995  10.862   6.046   2.004  1.0904  0.6520 -0.3539
22559SOL     OW72996   7.696   5.110   6.429  0.0929 -0.2136 -0.1970
22559SOL    HW172997   7.711   5.093   6.336 -0.6115 -0.1884 -0.3244
22559SOL    HW272998   7.619   5.057   6.451  0.3234 -0.3091  0.4017
22560SOL     OW72999  11.478   2.361   3.960 -0.1465 -0.5151  0.1436
22560SOL    HW173000  11.460   2.330   4.048  1.2996  1.9637  1.4264
22560SOL    HW273001  11.397   2.403   3.932 -0.7896 -1.7841 -0.0012
22561SOL     OW73002   8.644   2.048   8.598  0.0401  0.2640 -0.0668
22561SOL    HW173003   8.556   2.034   8.564  1.5159 -1.6016 -3.6499
22561SOL    HW273004   8.654   2.144   8.599 -1.7593  0.4839 -0.1961
22562SOL     OW73005   7.746   2.306   6.798 -0.2922 -0.5003 -0.3518
22562SOL    HW173006   7.715   2.325   6.709  0.4041 -1.3306 -0.7852
22562SOL    HW273007   7.708   2.221   6.819  0.1220 -0.6325 -0.1317
22563SOL     OW73008   3.274   7.870   3.894 -0.2882  0.0551 -0.4002
22563SOL    HW173009   3.248   7.935   3.829 -2.4992  0.1393  0.4727
22563SOL    HW273010   3.338   7.916   3.949  0.1153  0.6174 -1.3032
22564SOL     OW73011  10.237   1.124   4.060  0.8398  0.0470  0.3351
22564SOL    HW173012  10.209   1.192   4.121 -1.0978  0.7482 -1.2018
22564SOL    HW273013  10.312   1.161   4.014  0.1070  0.9800 -0.1384
22565SOL     OW73014   5.058   7.504   1.365  0.8179 -0.2021 -0.4391
22565SOL    HW173015   4.974   7.547   1.383  0.5014 -0.7988 -0.4799
22565SOL    HW273016   5.119   7.577   1.350  0.1338  0.2245 -1.2168
22566SOL     OW73017  10.626  10.971   9.600  0.5635  0.0846  0.1933
22566SOL    HW173018  10.589  11.009   9.679 -0.5784 -1.0052  0.2183
22566SOL    HW273019  10.573  11.007   9.529  0.3350 -0.4138  0.1058
22567SOL     OW73020   5.737   8.789   2.170 -0.0322 -0.3851 -0.1351
22567SOL    HW173021   5.817   8.765   2.125 -1.1052  0.2520 -2.5425
22567SOL    HW273022   5.676   8.718   2.150 -0.6597  0.1088 -0.0238
22568SOL     OW73023   7.781  11.259   9.450  0.4077 -0.4990  0.4166
22568SOL    HW173024   7.724  11.324   9.490  0.2178 -0.5938  0.3069
22568SOL    HW273025   7.770  11.273   9.356 -0.9639 -1.7918  0.3393
22569SOL     OW73026   4.622   2.711   9.698 -0.2726  0.1714 -0.0282
22569SOL    HW173027   4.680   2.694   9.773 -2.0677  0.2026  1.4575
22569SOL    HW273028   4.626   2.805   9.684  0.5302  0.0898 -0.3827
22570SOL     OW73029   2.067   7.052   6.579  0.2743  0.0542  0.2496
22570SOL    HW173030   2.003   7.106   6.626 -1.2499  0.2060 -1.8771
22570SOL    HW273031   2.020   6.973   6.556  1.0582 -0.1463 -0.7452
22571SOL     OW73032   2.851   9.686   6.460 -0.7155 -0.5909 -0.1078
22571SOL    HW173033   2.920   9.694   6.526 -0.9295  1.0106 -0.0398
22571SOL    HW273034   2.896   9.650   6.383  0.1873  0.3186 -0.0317
22572SOL     OW73035   2.610   2.001   8.372  0.5414 -0.2464 -0.5755
22572SOL    HW173036   2.516   2.006   8.389  0.5223 -0.3847 -0.6458
22572SOL    HW273037   2.639   1.923   8.420  0.5056 -0.5839 -1.1009
22573SOL     OW73038   6.991   1.851   4.467 -0.3945 -0.4646 -0.0105
22573SOL    HW173039   6.972   1.787   4.536  1.6938 -0.1229  0.9604
22573SOL    HW273040   6.991   1.935   4.512  1.3380 -0.2720 -0.3212
22574SOL     OW73041   5.776   2.417   4.457 -0.4735 -0.3673  0.7798
22574SOL    HW173042   5.728   2.499   4.448 -0.7700 -0.6631 -0.6586
22574SOL    HW273043   5.731   2.356   4.397  0.6809 -1.1250  0.6461
22575SOL     OW73044   0.742   3.879   7.146  0.0511 -0.9833 -0.7920
22575SOL    HW173045   0.782   3.839   7.223  0.0232 -0.8890 -0.7296
22575SOL    HW273046   0.719   3.804   7.091  1.0450 -1.0106 -1.1993
22576SOL     OW73047   9.494   6.108   1.048  0.0132  0.1558  0.1057
22576SOL    HW173048   9.455   6.031   1.006 -1.9312  1.1338  0.0257
22576SOL    HW273049   9.495   6.175   0.980 -0.4254  0.8650  0.7688
22577SOL     OW73050   7.684   0.736   0.990  0.6936 -0.1253  0.0027
22577SOL    HW173051   7.614   0.687   1.032 -0.7656  2.0757  0.3195
22577SOL    HW273052   7.668   0.827   1.016  3.5488  0.5107 -0.1027
22578SOL     OW73053   3.249   7.335  10.535 -0.1329  0.0453 -0.1568
22578SOL    HW173054   3.305   7.321  10.459  1.0921 -0.8236  0.8635
22578SOL    HW273055   3.299   7.299  10.608 -1.6157  0.1472  0.9425
22579SOL     OW73056  10.869   1.248   0.563  0.4625 -0.9753  0.4532
22579SOL    HW173057  10.791   1.255   0.507  1.4514 -1.2564 -1.0082
22579SOL    HW273058  10.910   1.166   0.536  1.0504 -1.0321  1.5037
22580SOL     OW73059   9.713   3.434  11.538 -0.0516 -0.5184  0.4277
22580SOL    HW173060   9.737   3.512  11.589 -1.6438  0.3133 -0.0232
22580SOL    HW273061   9.659   3.468  11.467  0.3507 -1.9033 -0.5913
22581SOL     OW73062   8.334   6.347   2.828  0.5045 -0.0231 -0.0177
22581SOL    HW173063   8.380   6.358   2.912 -1.1215 -0.0574  0.9217
22581SOL    HW273064   8.335   6.434   2.789  1.3125 -0.0118  0.0103
22582SOL     OW73065   8.924   7.570   0.796 -0.0802 -0.2118  0.3389
22582SOL    HW173066   8.862   7.624   0.747  1.1838  1.0350  0.0463
22582SOL    HW273067   8.975   7.524   0.729 -1.8591 -2.7568  0.5716
22583SOL     OW73068   8.039  10.068   7.755  0.5709 -0.0016  0.3510
22583SOL    HW173069   8.076   9.990   7.714 -0.5419 -0.1753 -0.3725
22583SOL    HW273070   8.026  10.044   7.846  0.9209 -0.4089  0.2937
22584SOL     OW73071   1.217   5.268  10.355 -0.3004  0.2077 -0.2247
22584SOL    HW173072   1.198   5.292  10.264  0.1843 -0.6668 -0.5672
22584SOL    HW273073   1.266   5.186  10.348 -0.8918 -0.2469  0.8712
22585SOL     OW73074  10.943   0.471  11.306  0.8041 -0.0126  0.0636
22585SOL    HW173075  10.885   0.510  11.240  0.9659 -0.3953 -0.3096
22585SOL    HW273076  10.884   0.423  11.364  0.8999 -2.4745 -1.7172
22586SOL     OW73077   5.314   1.263   2.382 -0.2306  0.2408  0.1744
22586SOL    HW173078   5.408   1.250   2.391  0.0130  0.7825 -1.3634
22586SOL    HW273079   5.305   1.331   2.315 -1.7293 -0.4769 -0.3979
22587SOL     OW73080   1.442  10.800   5.124 -0.4975  0.2180 -0.3045
22587SOL    HW173081   1.469  10.873   5.068  0.8470 -0.9898 -1.3022
22587SOL    HW273082   1.378  10.838   5.184 -1.6131  1.6884 -2.3154
22588SOL     OW73083   9.311   9.536   4.014 -0.3855 -0.1485  0.1684
22588SOL    HW173084   9.405   9.556   4.018 -0.4153  0.2036 -0.7896
22588SOL    HW273085   9.271   9.616   3.982 -1.0790 -0.1434  1.0151
22589SOL     OW73086   4.425   3.959  10.788  0.7615  0.1330 -0.1075
22589SOL    HW173087   4.466   3.950  10.702  0.7347  1.1172 -0.2311
22589SOL    HW273088   4.338   3.920  10.778  0.8560  0.0153 -0.4596
22590SOL     OW73089   7.939   7.575   7.812 -0.1761 -0.8131 -0.3246
22590SOL    HW173090   7.915   7.527   7.733  1.4867 -1.6999 -0.3363
22590SOL    HW273091   7.918   7.515   7.884  0.6007 -0.9981 -0.2504
22591SOL     OW73092   0.509   8.257   7.752  1.0035  0.6653 -0.1773
22591SOL    HW173093   0.505   8.300   7.667  2.4616 -0.2346 -0.7438
22591SOL    HW273094   0.600   8.267   7.779  0.9809 -0.6124  0.4239
22592SOL     OW73095   0.182   1.212   9.869  0.2798  0.6188 -0.0327
22592SOL    HW173096   0.209   1.164   9.946  1.8117  1.1808 -0.1955
22592SOL    HW273097   0.166   1.145   9.803  3.9218  0.2641 -0.7589
22593SOL     OW73098   6.103   3.868   2.952 -0.0675 -0.0250 -0.3157
22593SOL    HW173099   6.099   3.958   2.921 -0.0282 -0.6961 -2.3741
22593SOL    HW273100   6.189   3.837   2.925  0.8698 -0.0530  2.3814
22594SOL     OW73101   6.015   3.237   9.826  0.5085  0.4142 -0.0148
22594SOL    HW173102   6.039   3.261   9.736  3.1136 -0.7879  0.2395
22594SOL    HW273103   5.926   3.270   9.837  0.7579  2.1972 -2.4161
22595SOL     OW73104   0.706   5.880   2.571 -0.6343 -0.0935  0.4943
22595SOL    HW173105   0.706   5.915   2.660  1.9940  0.5304  0.3520
22595SOL    HW273106   0.769   5.936   2.524  1.6293 -3.2000 -0.4851
22596SOL     OW73107  10.812   7.192   0.926 -0.3283 -0.1293 -0.1390
22596SOL    HW173108  10.757   7.175   0.849 -1.8692  0.6303  0.7349
22596SOL    HW273109  10.878   7.253   0.894 -0.3189 -0.6205 -1.1009
22597SOL     OW73110   7.327   7.307   1.707 -0.2262  0.5605 -0.5539
22597SOL    HW173111   7.282   7.223   1.720  0.7516  0.1383  0.1952
22597SOL    HW273112   7.348   7.309   1.614  1.7983 -1.1271 -0.2186
22598SOL     OW73113   0.744   9.745   5.679 -0.0040  0.4759 -0.2019
22598SOL    HW173114   0.767   9.837   5.688 -1.5123  0.9908 -1.1699
22598SOL    HW273115   0.787   9.717   5.599  0.9629  0.1498  0.4202
22599SOL     OW73116   1.557   3.792  10.975  0.7985  0.0117  0.3938
22599SOL    HW173117   1.603   3.778  11.057 -0.7868 -1.3671  1.1065
22599SOL    HW273118   1.564   3.886  10.958  0.6557  0.4146  2.4017
22600SOL     OW73119   3.191   9.498   4.113 -0.3817  0.1807  0.0446
22600SOL    HW173120   3.192   9.474   4.021 -0.3443 -1.3474  0.4061
22600SOL    HW273121   3.162   9.418   4.158  1.3405  0.2950  1.4868
22601SOL     OW73122   3.351   5.261   4.503  0.0973 -0.4161  0.4751
22601SOL    HW173123   3.341   5.356   4.495 -0.1697 -0.3125  1.8734
22601SOL    HW273124   3.427   5.249   4.560  1.3665 -1.0972 -1.2538
22602SOL     OW73125  10.178   0.879   7.550  0.3221 -0.1619  0.1716
22602SOL    HW173126  10.220   0.830   7.621  2.3870 -2.3129 -2.3168
22602SOL    HW273127  10.209   0.968   7.561  1.2075 -0.5998  1.5351
22603SOL     OW73128  11.659   0.105   5.726 -0.2479 -0.1700 -0.1959
22603SOL    HW173129  11.665   0.183   5.781  2.0374  0.5197 -1.2892
22603SOL    HW273130  11.658   0.138   5.636  3.1669 -1.3030 -0.8020
22604SOL     OW73131  11.319   4.945   1.905 -0.1323  0.4743  0.2808
22604SOL    HW173132  11.270   5.015   1.947 -0.9871  0.7689 -1.1507
22604SOL    HW273133  11.406   4.982   1.888  0.0456  0.5287  1.2557
22605SOL     OW73134  10.562   3.845   5.062 -0.2567 -0.1859  0.0625
22605SOL    HW173135  10.641   3.890   5.031 -0.5213 -1.0431 -1.9937
22605SOL    HW273136  10.504   3.843   4.986 -1.1593 -2.0033  0.7521
22606SOL     OW73137   1.659   7.648  11.591 -0.3796 -0.0992 -0.1142
22606SOL    HW173138   1.675   7.593  11.668 -0.6795 -1.2853 -0.8715
22606SOL    HW273139   1.565   7.663  11.593 -0.5617 -1.0501 -0.8256
22607SOL     OW73140   9.859   6.854  10.035 -0.2522  0.4019  0.5067
22607SOL    HW173141   9.841   6.947  10.020 -0.8307  0.3868  1.0529
22607SOL    HW273142   9.875   6.847  10.129  2.6711  0.3870  0.0960
22608SOL     OW73143   3.303   5.263   1.599  0.8767 -0.0124  0.3507
22608SOL    HW173144   3.268   5.336   1.549 -0.2441 -0.0370  1.0609
22608SOL    HW273145   3.397   5.278   1.602  1.2988 -0.9649 -3.3052
22609SOL     OW73146   9.614   6.235   0.405  0.3734  0.3122  0.5334
22609SOL    HW173147   9.633   6.228   0.499  0.4315  0.5705  0.5410
22609SOL    HW273148   9.522   6.208   0.397  0.5964 -0.4979  0.5568
22610SOL     OW73149   3.930   8.658   0.470  0.3230  0.5766 -0.6602
22610SOL    HW173150   3.985   8.727   0.432 -1.4535  1.1857 -2.3309
22610SOL    HW273151   3.911   8.600   0.396 -0.1423 -0.3903  0.1991
22611SOL     OW73152   9.235   5.449   7.492  0.1990 -0.0782  0.2320
22611SOL    HW173153   9.184   5.455   7.411  0.3921 -0.2475  0.0959
22611SOL    HW273154   9.321   5.485   7.468 -0.0520  0.8150  0.6307
22612SOL     OW73155   7.863  10.142   9.883 -0.5001  0.1971  0.2983
22612SOL    HW173156   7.825  10.202   9.947 -0.1900  1.1212 -0.3493
22612SOL    HW273157   7.924  10.088   9.933  0.0337  1.1725  0.7260
22613SOL     OW73158   4.932   7.198   5.765  0.1604  0.1710  0.4453
22613SOL    HW173159   5.009   7.143   5.751  0.2532  0.9165 -2.5715
22613SOL    HW273160   4.858   7.137   5.761  0.4558 -0.6083  3.7144
22614SOL     OW73161  10.396   2.226   0.060 -0.0392  0.2521  0.5906
22614SOL    HW173162  10.492   2.223   0.051 -0.0178  1.4917  0.2965
22614SOL    HW273163  10.363   2.203  -0.027 -0.0292 -0.6412  0.8124
22615SOL     OW73164   6.725   5.694   7.558  0.1231 -0.5573  0.1961
22615SOL    HW173165   6.701   5.721   7.469  0.4799 -2.1265 -0.4203
22615SOL    HW273166   6.643   5.661   7.596 -0.2732  1.1233  0.8837
22616SOL     OW73167   5.430   7.001   5.819  0.0946  0.0348 -0.0813
22616SOL    HW173168   5.433   7.006   5.914  0.6335  2.4871 -0.1637
22616SOL    HW273169   5.521   7.016   5.791 -0.0599 -0.6314 -0.9961
22617SOL     OW73170   6.260   3.036  10.632  0.1161 -0.8353  0.0054
22617SOL    HW173171   6.269   2.944  10.656  1.0660 -0.5528  0.8425
22617SOL    HW273172   6.344   3.059  10.593 -0.2634 -0.4242 -0.5898
22618SOL     OW73173   3.779   4.513   8.707 -0.3124  0.0874 -0.2005
22618SOL    HW173174   3.784   4.420   8.729  0.6514 -0.4935 -2.5822
22618SOL    HW273175   3.836   4.556   8.771 -2.3435 -0.6142  2.2194
22619SOL     OW73176   0.376   1.689   0.648 -0.1525  0.1573 -0.6051
22619SOL    HW173177   0.323   1.664   0.724 -1.0858  0.7923 -1.0382
22619SOL    HW273178   0.316   1.688   0.574  0.2058  1.7488 -0.9643
22620SOL     OW73179  11.353   9.875   0.198  0.1207  0.1436 -0.3301
22620SOL    HW173180  11.413   9.918   0.137  0.6935 -0.0641  0.0763
22620SOL    HW273181  11.367   9.920   0.281  1.8484 -1.7596  0.5018
22621SOL     OW73182   1.465   2.005   0.665  0.6232 -0.0019 -0.1741
22621SOL    HW173183   1.465   1.985   0.759  1.4647 -2.0158 -0.5537
22621SOL    HW273184   1.385   1.963   0.632  0.3965  0.5919 -0.3814
22622SOL     OW73185   7.717   7.788   5.660 -0.1121  0.5268  0.0843
22622SOL    HW173186   7.666   7.846   5.716 -0.0603 -0.6641  1.4386
22622SOL    HW273187   7.675   7.702   5.670 -0.4835  0.3707 -2.2313
22623SOL     OW73188   1.811   4.662  10.256  1.3426 -0.0427 -0.5486
22623SOL    HW173189   1.798   4.752  10.228 -1.7060 -0.2935 -0.2730
22623SOL    HW273190   1.845   4.668  10.345 -1.4162  0.9630  0.5331
22624SOL     OW73191   5.982   0.191  10.171 -0.1096 -0.3717  0.6150
22624SOL    HW173192   6.072   0.171  10.199  0.3829  0.4555 -0.3319
22624SOL    HW273193   5.986   0.194  10.076 -1.6281 -2.4930  0.4175
22625SOL     OW73194   9.411  10.786   6.327 -0.4867  0.3096  0.1270
22625SOL    HW173195   9.430  10.880   6.320  0.6684  0.0671 -0.2468
22625SOL    HW273196   9.443  10.762   6.414 -0.0712  0.1132 -0.0774
22626SOL     OW73197   5.264   5.971   5.363  0.5956  0.3814  0.1839
22626SOL    HW173198   5.332   5.971   5.430  1.1496 -0.5818 -0.3495
22626SOL    HW273199   5.192   5.921   5.402  0.6610  0.3809  0.3051
22627SOL     OW73200   6.564   8.041   7.403  0.0061 -0.0066  0.4171
22627SOL    HW173201   6.543   7.979   7.334 -1.9708  0.6846  0.3301
22627SOL    HW273202   6.542   7.994   7.484  1.5807 -0.5328  0.5796
22628SOL     OW73203   9.988   5.475  11.403 -0.3020 -0.2720  0.2056
22628SOL    HW173204  10.062   5.417  11.383  0.1305 -0.0094  0.9721
22628SOL    HW273205   9.942   5.431  11.474 -1.3351 -0.7964 -0.7583
22629SOL     OW73206   6.687   1.981   6.684 -0.1828 -0.1067  0.3451
22629SOL    HW173207   6.620   2.013   6.743 -0.9796  0.9899 -1.0840
22629SOL    HW273208   6.639   1.928   6.620  0.3828  0.1605 -0.3181
22630SOL     OW73209   1.209   7.622   7.606  0.0642 -0.1958 -0.4301
22630SOL    HW173210   1.167   7.652   7.686  0.4127 -1.8340  0.4092
22630SOL    HW273211   1.283   7.568   7.636 -0.4313 -1.7419 -1.8216
22631SOL     OW73212  11.169   7.431   3.316  0.1572  0.7239  0.1471
22631SOL    HW173213  11.175   7.395   3.404  1.4010 -1.1741 -0.6518
22631SOL    HW273214  11.076   7.446   3.301 -0.4846 -2.3585  0.5114
22632SOL     OW73215  10.267   1.278   8.792  0.0761 -0.0407 -0.0576
22632SOL    HW173216  10.196   1.341   8.805  0.5991  0.0406  2.9914
22632SOL    HW273217  10.229   1.193   8.813  0.4041 -0.2393 -0.2596
22633SOL     OW73218   4.415   8.869   7.812 -0.3562  0.1038 -0.1607
22633SOL    HW173219   4.338   8.923   7.826  0.3368  2.0716 -3.0474
22633SOL    HW273220   4.437   8.881   7.719  3.0091 -0.8938  0.3461
22634SOL     OW73221   2.753  10.534   2.680 -0.1940 -0.0732  0.5114
22634SOL    HW173222   2.737  10.453   2.730  0.9057 -0.8290 -0.3103
22634SOL    HW273223   2.840  10.563   2.710  0.3110 -0.3318 -0.6592
22635SOL     OW73224   6.304   1.639   0.472  0.4208 -0.1164 -0.6808
22635SOL    HW173225   6.333   1.548   0.463  0.6200  0.0319 -1.5853
22635SOL    HW273226   6.215   1.639   0.436  0.0965 -0.1249  0.1068
22636SOL     OW73227  11.412   9.575   3.582  0.0513  0.3731 -0.7062
22636SOL    HW173228  11.343   9.509   3.592 -1.8789  2.0336 -2.0985
22636SOL    HW273229  11.401   9.632   3.658  1.7182 -0.7914  0.4956
22637SOL     OW73230   2.950   4.569  10.344  0.0210  0.7236 -0.0623
22637SOL    HW173231   3.028   4.530  10.384  0.6401 -0.0952 -1.9771
22637SOL    HW273232   2.960   4.663  10.359  1.1435  0.5880  0.1220
22638SOL     OW73233   6.042  11.541   0.434  0.4391 -0.2326  0.1908
22638SOL    HW173234   6.014  11.616   0.486  0.9418  0.4925 -0.5685
22638SOL    HW273235   5.969  11.479   0.439  0.5110 -0.2199  1.8137
22639SOL     OW73236   1.175   2.733   4.991  0.4578 -0.4934 -0.2228
22639SOL    HW173237   1.173   2.653   5.043 -0.5615 -1.0830 -1.1300
22639SOL    HW273238   1.265   2.765   4.999  0.6633 -1.2912  0.7905
22640SOL     OW73239   0.335   7.274   7.923 -0.1401 -0.3180  0.3235
22640SOL    HW173240   0.428   7.295   7.930 -0.1835 -0.0109 -0.0056
22640SOL    HW273241   0.333   7.179   7.910  0.0752 -0.4829  1.4349
22641SOL     OW73242   4.755   6.556   7.043 -0.2875 -0.8097 -0.1982
22641SOL    HW173243   4.685   6.522   6.988  0.3687 -1.2673 -0.7706
22641SOL    HW273244   4.757   6.650   7.025  1.0080 -1.1617 -2.2792
22642SOL     OW73245  10.155   2.815   0.328 -0.0594 -0.1390 -0.1133
22642SOL    HW173246  10.251   2.811   0.333  0.1806  1.6115 -2.1210
22642SOL    HW273247  10.130   2.868   0.404  0.8140  1.4383 -0.8817
22643SOL     OW73248   2.547   5.547  11.742  0.5410  0.2929 -0.6779
22643SOL    HW173249   2.565   5.488  11.668  1.9226 -0.1862 -0.0109
22643SOL    HW273250   2.603   5.623  11.726 -0.6758  1.1151 -1.1456
22644SOL     OW73251   1.081   8.401  10.205 -0.1620  0.3939  0.8232
22644SOL    HW173252   1.134   8.474  10.237  1.0671 -0.5033  0.8957
22644SOL    HW273253   1.009   8.395  10.268  0.3733  0.7869  1.4848
22645SOL     OW73254   8.508   1.545   4.868  0.0514  0.0417 -0.4644
22645SOL    HW173255   8.554   1.587   4.795 -0.4162 -0.2496 -0.9389
22645SOL    HW273256   8.424   1.590   4.873 -0.2871 -0.5444 -0.7063
22646SOL     OW73257  11.305   9.615  10.990 -0.2963 -0.0084  0.0234
22646SOL    HW173258  11.318   9.697  11.037 -0.3641  0.5422 -0.8900
22646SOL    HW273259  11.210   9.603  10.988 -0.2361 -1.0980  1.7747
22647SOL     OW73260   6.130   7.672   2.376  0.0906  0.0965 -0.2610
22647SOL    HW173261   6.153   7.750   2.326  1.8779  0.5513  1.1600
22647SOL    HW273262   6.085   7.615   2.313  1.8196  0.8077 -2.2477
22648SOL     OW73263   0.205   7.210   6.787 -0.2105  0.7173 -0.1735
22648SOL    HW173264   0.276   7.232   6.847 -1.5379  0.7885  1.4354
22648SOL    HW273265   0.127   7.204   6.842 -0.8513 -3.2088 -1.1817
22649SOL     OW73266   3.980   4.109   4.342  0.0348  0.1825  0.1668
22649SOL    HW173267   3.957   4.136   4.253  1.6550  1.8965  0.1997
22649SOL    HW273268   3.923   4.159   4.399  0.3911  0.6393  0.1278
22650SOL     OW73269   3.414  10.259   8.355 -0.2594  0.3119  0.1667
22650SOL    HW173270   3.355  10.220   8.419 -0.2681 -1.9416 -1.1133
22650SOL    HW273271   3.364  10.330   8.315 -0.5888  1.1204  1.9125
22651SOL     OW73272   0.622  11.323  11.360  0.3494  0.1161  0.7784
22651SOL    HW173273   0.554  11.389  11.371  0.8029  1.0355 -1.2937
22651SOL    HW273274   0.587  11.263  11.293  1.3096  0.2810  0.0958
22652SOL     OW73275   0.071   5.810   7.220  0.3198  0.1971  0.5318
22652SOL    HW173276   0.038   5.746   7.283  0.8757 -0.4895  0.1361
22652SOL    HW273277   0.150   5.770   7.183  1.1821  1.4618  0.8968
22653SOL     OW73278   0.746   0.890   5.784  0.2230 -0.2427  0.1194
22653SOL    HW173279   0.718   0.840   5.708 -0.7649  2.2757 -1.3030
22653SOL    HW273280   0.716   0.979   5.766  4.0737  1.5021  1.2493
22654SOL     OW73281   0.847   4.322   8.961 -0.2778  0.4223 -0.3662
22654SOL    HW173282   0.847   4.231   8.991  1.9370  0.2157 -0.8222
22654SOL    HW273283   0.852   4.316   8.866 -0.7893  1.0493 -0.4404
22655SOL     OW73284  11.363   6.778   7.684  0.8155 -0.1514  0.4924
22655SOL    HW173285  11.326   6.769   7.597 -1.3110  1.0630  1.2074
22655SOL    HW273286  11.401   6.866   7.685  1.8716 -0.5857  0.4665
22656SOL     OW73287   8.881   1.665   3.643 -1.0553 -0.1260 -0.0650
22656SOL    HW173288   8.963   1.688   3.685 -1.5471  0.6452  0.5122
22656SOL    HW273289   8.867   1.573   3.666  0.4319 -0.7606 -1.5288
22657SOL     OW73290   4.736  10.619  11.570 -0.4801 -0.5991 -0.3713
22657SOL    HW173291   4.738  10.679  11.495  1.6260  1.1464  0.9541
22657SOL    HW273292   4.781  10.540  11.538  0.5769  0.2001 -0.9318
22658SOL     OW73293   2.106   1.569   1.837  0.6170 -0.0307 -0.6043
22658SOL    HW173294   2.099   1.499   1.771 -0.6305 -0.0684 -0.4472
22658SOL    HW273295   2.052   1.539   1.910  0.5924  0.8058 -0.2664
22659SOL     OW73296   5.488   2.033  10.454  0.0358 -0.0110  0.1623
22659SOL    HW173297   5.435   2.047  10.532  1.2773 -1.1802  1.2947
22659SOL    HW273298   5.523   1.944  10.465  0.2905 -0.1864 -1.7084
22660SOL     OW73299   3.247  10.065   6.964 -0.5413  0.3225  0.1419
22660SOL    HW173300   3.217  10.063   7.056 -1.5932  0.4098 -0.1836
22660SOL    HW273301   3.246  10.158   6.941  0.2355  0.3521  0.1869
22661SOL     OW73302   8.343   6.976   2.382 -0.0366 -0.2952 -0.1399
22661SOL    HW173303   8.326   7.023   2.464 -0.7215 -1.0630  0.1621
22661SOL    HW273304   8.369   6.888   2.410 -1.6237 -0.9896 -0.7717
22662SOL     OW73305   0.099   6.417  10.500 -0.3172  0.1499  0.3124
22662SOL    HW173306   0.022   6.429  10.444  0.0832 -0.5616 -0.4201
22662SOL    HW273307   0.064   6.415  10.589 -1.3520 -1.5572 -0.0815
22663SOL     OW73308   0.399   4.562   5.910  0.1207  0.0843 -0.1938
22663SOL    HW173309   0.347   4.483   5.895  0.7622 -0.0409 -1.9635
22663SOL    HW273310   0.463   4.537   5.977  0.9894 -1.2438 -1.4757
22664SOL     OW73311   8.280   8.780   1.712  0.0514 -0.4075 -0.4408
22664SOL    HW173312   8.321   8.866   1.720  1.5724 -1.0561 -0.8279
22664SOL    HW273313   8.299   8.736   1.795  0.2046 -0.7338 -0.6454
22665SOL     OW73314  10.307   4.960   7.659  0.2990 -0.2765 -0.0953
22665SOL    HW173315  10.243   4.908   7.707  0.4763 -0.6300 -0.2424
22665SOL    HW273316  10.254   5.008   7.595  0.2964 -1.4665 -1.0188
22666SOL     OW73317   3.535   3.249   0.690 -0.7359  0.5130  0.1890
22666SOL    HW173318   3.509   3.158   0.680 -0.4077  0.3951  0.3835
22666SOL    HW273319   3.629   3.245   0.710 -1.0455  0.8230  1.7780
22667SOL     OW73320   9.143   6.527  10.698 -0.2903 -0.2725  0.0171
22667SOL    HW173321   9.138   6.539  10.603 -1.0285 -3.2551 -0.4501
22667SOL    HW273322   9.051   6.522  10.726 -0.0724 -0.6437  0.6723
22668SOL     OW73323   1.680   0.319   5.915 -0.2264  0.4147  0.3398
22668SOL    HW173324   1.678   0.292   6.006  0.8491  1.4026  0.6868
22668SOL    HW273325   1.690   0.414   5.918  0.3388  0.4154 -0.7972
22669SOL     OW73326   9.137   0.914   8.038 -0.1335 -0.2370 -0.0134
22669SOL    HW173327   9.216   0.956   8.004 -0.4560 -0.8085 -1.5754
22669SOL    HW273328   9.073   0.923   7.967 -0.7045 -1.9136  0.2293
22670SOL     OW73329   1.701   5.815   0.056  0.6050 -0.1853 -0.3455
22670SOL    HW173330   1.786   5.787   0.089  0.0753 -1.9621 -0.4177
22670SOL    HW273331   1.657   5.853   0.132  1.0519 -0.2288 -0.0635
22671SOL     OW73332   2.237   6.873   8.893 -0.2600 -0.0493  0.9004
22671SOL    HW173333   2.310   6.813   8.880  0.4198  0.3263  2.7080
22671SOL    HW273334   2.256   6.947   8.835  1.2356  0.4123  1.9460
22672SOL     OW73335   5.672   4.309   9.517  0.3950  0.6326  0.6416
22672SOL    HW173336   5.641   4.365   9.445 -2.1556 -2.7720 -1.1866
22672SOL    HW273337   5.765   4.329   9.523  0.0994  3.3310 -1.4305
22673SOL     OW73338   6.069   5.797   7.801 -0.6559  0.2698  0.0267
22673SOL    HW173339   6.009   5.739   7.754 -0.7851  0.8828 -0.5865
22673SOL    HW273340   6.155   5.757   7.788 -0.8087 -0.0829  0.0801
22674SOL     OW73341   9.793   1.674   4.021 -0.6333 -0.1359 -0.1354
22674SOL    HW173342   9.701   1.656   4.000 -0.1692 -3.8315  0.3494
22674SOL    HW273343   9.835   1.686   3.936 -0.9956 -1.9624 -0.6027
22675SOL     OW73344  11.419   2.702   1.746  0.2072  0.0494 -0.3576
22675SOL    HW173345  11.362   2.635   1.711  0.1167 -0.1152  0.0987
22675SOL    HW273346  11.362   2.757   1.800  0.0477  1.1575 -1.5765
22676SOL     OW73347   7.486   9.363   5.027 -0.0460 -0.1894  0.4291
22676SOL    HW173348   7.462   9.339   5.117  1.4205 -1.5928  0.4874
22676SOL    HW273349   7.403   9.368   4.980 -0.6435 -2.5612  1.1298
22677SOL     OW73350   7.835   6.891  10.270 -0.2999  0.1655  0.1853
22677SOL    HW173351   7.783   6.855  10.341 -0.3768  0.2694  0.1826
22677SOL    HW273352   7.828   6.986  10.281 -0.8830  0.2011 -0.3658
22678SOL     OW73353   5.231   5.774   8.739 -0.2283 -0.1695  0.0404
22678SOL    HW173354   5.198   5.849   8.790 -1.3731  0.4705 -1.5619
22678SOL    HW273355   5.324   5.793   8.727  0.1990 -0.5676  2.2070
22679SOL     OW73356   4.538   9.321   9.048  0.4081 -0.3029  0.4442
22679SOL    HW173357   4.586   9.239   9.037  2.3582  0.9020 -0.7543
22679SOL    HW273358   4.593   9.373   9.106  0.4289  0.9820 -0.6585
22680SOL     OW73359   0.199  11.101   2.053 -0.1165 -0.5429  0.2162
22680SOL    HW173360   0.265  11.142   2.109  0.5500 -0.2056 -0.7941
22680SOL    HW273361   0.147  11.047   2.113  1.1801 -0.9506  1.0010
22681SOL     OW73362   4.781  10.001   6.870  0.3013 -0.4023  0.2771
22681SOL    HW173363   4.799  10.044   6.786  1.6225 -0.6368  0.4124
22681SOL    HW273364   4.855  10.026   6.926 -1.0850  0.6547  1.7672
22682SOL     OW73365   9.921   0.633   6.319 -0.4467 -0.0509 -0.0504
22682SOL    HW173366   9.861   0.559   6.331  0.3585 -1.0973 -1.9726
22682SOL    HW273367   9.872   0.709   6.352 -1.8331 -1.2268  0.7192
22683SOL     OW73368   7.673   3.341   5.222 -0.0838  0.4029  0.2330
22683SOL    HW173369   7.724   3.273   5.264  1.2850  1.3477  0.1573
22683SOL    HW273370   7.582   3.314   5.234  0.4061 -1.1193  0.7047
22684SOL     OW73371   0.900   9.216  10.225 -0.4759  0.2947  0.0952
22684SOL    HW173372   0.827   9.253  10.176 -0.7228  0.0563  0.2794
22684SOL    HW273373   0.886   9.122  10.221 -0.1737  0.2482  0.1274
22685SOL     OW73374   2.313   2.201   5.476  0.5353  0.4876  0.2551
22685SOL    HW173375   2.301   2.268   5.408  1.8526  0.2690 -0.2164
22685SOL    HW273376   2.397   2.160   5.455  0.5721 -0.1438  1.5521
22686SOL     OW73377   3.225   1.091   3.441  0.1833 -0.2416  0.3896
22686SOL    HW173378   3.197   1.177   3.409 -0.5744 -0.7351 -0.3140
22686SOL    HW273379   3.269   1.051   3.366  0.1233 -0.6513  0.5730
22687SOL     OW73380   1.643   8.802   2.801 -0.0380  0.8283  0.1187
22687SOL    HW173381   1.728   8.782   2.840 -0.3984 -0.3194  0.3433
22687SOL    HW273382   1.638   8.747   2.723 -0.8396  0.3795  0.4725
22688SOL     OW73383  11.029   0.076   7.045 -0.2267  0.1464  0.0421
22688SOL    HW173384  11.123   0.060   7.050 -0.3554 -0.2845  1.5365
22688SOL    HW273385  11.005   0.048   6.956  0.5860 -2.4613  0.5724
22689SOL     OW73386   1.539   4.181   6.610  0.1063 -0.0294 -0.0848
22689SOL    HW173387   1.561   4.092   6.583  0.5639 -0.9048  2.8113
22689SOL    HW273388   1.624   4.222   6.629  0.0241  1.6351 -2.8294
22690SOL     OW73389   6.911   0.146   1.061 -0.4488  0.0044  0.2267
22690SOL    HW173390   6.874   0.083   1.122  1.5796 -2.2532 -0.6731
22690SOL    HW273391   6.907   0.102   0.976 -3.1788  3.0247 -1.4380
22691SOL     OW73392   9.188   8.568   9.229  0.5969 -0.3660 -0.1784
22691SOL    HW173393   9.172   8.637   9.293  0.0287  0.3131 -1.0196
22691SOL    HW273394   9.225   8.496   9.279 -1.7769 -0.6688  1.2913
22692SOL     OW73395   1.997   8.363   8.559 -0.2684 -0.7962 -0.3540
22692SOL    HW173396   1.969   8.322   8.640 -1.4355 -0.1911 -0.4293
22692SOL    HW273397   1.918   8.405   8.524  1.0023  2.3390  0.2000
22693SOL     OW73398  11.233  10.777   1.021  0.0517 -0.3494 -0.2005
22693SOL    HW173399  11.315  10.789   0.973  1.7685 -3.3050  1.6919
22693SOL    HW273400  11.231  10.851   1.082  1.6769 -0.5678  0.1674
22694SOL     OW73401  11.787   2.562   3.180  0.0821  0.1258  0.3081
22694SOL    HW173402  11.852   2.631   3.192  0.9765 -0.3968 -1.2638
22694SOL    HW273403  11.813   2.518   3.099 -0.9543 -1.5190  0.8177
22695SOL     OW73404   9.202   9.328   9.518  0.7313  0.1577  0.1170
22695SOL    HW173405   9.236   9.330   9.428  0.3736  0.7977 -0.0092
22695SOL    HW273406   9.256   9.262   9.562  0.2595 -0.9038 -0.8316
22696SOL     OW73407   9.470   5.404   0.236 -0.0594  0.1347  0.4227
22696SOL    HW173408   9.502   5.479   0.186 -0.2862  1.1020  1.6634
22696SOL    HW273409   9.547   5.374   0.285 -0.2850  0.4836  1.0123
22697SOL     OW73410  10.112   5.159   2.468 -0.2414  0.3156 -0.2249
22697SOL    HW173411  10.110   5.236   2.525  0.1329  0.6476 -0.6567
22697SOL    HW273412  10.122   5.085   2.528 -0.8533  0.5782  0.2095
22698SOL     OW73413  10.953   2.492   9.188  0.5446  0.3809 -0.2736
22698SOL    HW173414  10.954   2.479   9.093 -2.5599 -1.3438 -0.1981
22698SOL    HW273415  10.899   2.571   9.200  1.6545  1.1117  0.0800
22699SOL     OW73416  10.476   8.611  10.875  0.3807  0.5400 -0.2831
22699SOL    HW173417  10.488   8.695  10.829 -1.3928  1.3403  0.6306
22699SOL    HW273418  10.409   8.566  10.824  1.8834 -0.7294 -1.2300
22700SOL     OW73419   8.108   7.074  10.100  0.5494  0.0788 -0.5168
22700SOL    HW173420   8.198   7.043  10.109  1.6745  2.5429 -1.9483
22700SOL    HW273421   8.105   7.154  10.152 -1.6159 -1.2147  1.4960
22701SOL     OW73422   1.529   7.161   7.408 -0.6437  0.6362  0.2321
22701SOL    HW173423   1.506   7.068   7.406  0.0282  0.4658 -1.2512
22701SOL    HW273424   1.451   7.206   7.377 -1.0639  0.6099  1.2143
22702SOL     OW73425   5.002   6.219   2.429 -0.1802  0.7754 -0.1275
22702SOL    HW173426   5.048   6.262   2.500  0.3415  0.3827 -0.2185
22702SOL    HW273427   5.046   6.248   2.349 -0.5502  0.9575 -0.2694
22703SOL     OW73428   9.367   3.777   2.544 -0.9446 -0.1613 -0.0955
22703SOL    HW173429   9.416   3.779   2.462  0.7915 -2.8408  0.7214
22703SOL    HW273430   9.405   3.847   2.597  1.8615 -1.7692  0.2908
22704SOL     OW73431   9.771   1.173   4.222  0.0368 -0.2486 -0.0586
22704SOL    HW173432   9.837   1.238   4.243  0.2460 -0.6798  0.6508
22704SOL    HW273433   9.690   1.223   4.208  0.6877  0.3834 -1.8831
22705SOL     OW73434   3.748   6.076   5.717 -0.7393 -0.1998 -0.5308
22705SOL    HW173435   3.679   6.114   5.771 -1.6801 -1.9447 -0.4608
22705SOL    HW273436   3.824   6.073   5.775 -0.2321  2.6499 -0.9026
22706SOL     OW73437   7.790   3.089   1.355  0.0232  0.5862  0.1537
22706SOL    HW173438   7.878   3.064   1.384 -0.3228  0.1113  0.8198
22706SOL    HW273439   7.749   3.125   1.434 -0.7820 -0.3040  0.1451
22707SOL     OW73440   5.260   3.364   3.704 -0.3970  0.2977  0.0309
22707SOL    HW173441   5.295   3.324   3.784 -0.2299 -1.2399 -0.7744
22707SOL    HW273442   5.184   3.415   3.733  2.1397  3.4894  1.7988
22708SOL     OW73443  10.135   5.754   3.624  0.2149 -0.1745 -0.1791
22708SOL    HW173444  10.042   5.738   3.608  0.5862 -1.8142 -0.9614
22708SOL    HW273445  10.167   5.795   3.543  0.2794 -0.1557 -0.1442
22709SOL     OW73446   4.291   6.801   9.091 -0.1765  0.2150 -0.4332
22709SOL    HW173447   4.218   6.785   9.030  0.3861 -0.2017 -1.0179
22709SOL    HW273448   4.324   6.714   9.111 -1.0998  0.2453  1.4478
22710SOL     OW73449  11.296   3.320   9.717  0.1730  0.2240  0.2911
22710SOL    HW173450  11.227   3.284   9.773 -0.7384  1.7960  0.2082
22710SOL    HW273451  11.250   3.363   9.645  1.3040 -0.4419 -0.8786
22711SOL     OW73452   7.376   8.327   5.639  0.3519  0.0578 -0.2852
22711SOL    HW173453   7.456   8.379   5.647  2.1385 -2.3880 -1.0402
22711SOL    HW273454   7.354   8.332   5.545  1.0202 -1.1583 -0.5227
22712SOL     OW73455   4.508   8.711   3.264 -0.0700  0.6341 -0.1955
22712SOL    HW173456   4.505   8.696   3.359  2.2240 -0.3694 -0.2350
22712SOL    HW273457   4.439   8.654   3.230  0.5848 -0.7575  0.7077
22713SOL     OW73458   9.129   7.488   7.230 -0.1649  0.5544 -0.6829
22713SOL    HW173459   9.040   7.451   7.228  0.0655 -0.0247 -0.4267
22713SOL    HW273460   9.187   7.411   7.228  0.3513  0.9600 -1.9192
22714SOL     OW73461  10.361  10.164   1.986 -0.1972  0.8067 -0.5464
22714SOL    HW173462  10.452  10.179   2.011 -0.3289  0.4914  0.1186
22714SOL    HW273463  10.312  10.235   2.028  0.0677  2.8172 -3.2955
22715SOL     OW73464   4.890  10.101   0.490  0.4449  0.1061  0.4681
22715SOL    HW173465   4.962  10.112   0.428 -0.6524 -1.9705 -1.3006
22715SOL    HW273466   4.927  10.047   0.560  0.9873  0.2115  0.2679
22716SOL     OW73467   6.132   8.977   1.381  0.0241 -0.2354  0.1136
22716SOL    HW173468   6.216   8.993   1.339  0.1917  1.8178  1.0627
22716SOL    HW273469   6.089   8.911   1.327  0.2748  2.0757 -3.2490
22717SOL     OW73470   0.037   2.244   8.269  0.1226  0.5927  0.1611
22717SOL    HW173471   0.116   2.289   8.296  1.0294 -1.2697  0.7318
22717SOL    HW273472   0.044   2.238   8.173  1.4857 -0.9351  0.3220
22718SOL     OW73473   2.245   0.335   4.475  0.3968  0.5684 -0.0803
22718SOL    HW173474   2.298   0.406   4.438  0.9077 -0.3629 -1.2023
22718SOL    HW273475   2.304   0.291   4.536  0.6372  0.0865 -0.6513
22719SOL     OW73476   4.671   3.017   5.092  0.5397 -0.1529  0.3015
22719SOL    HW173477   4.661   2.954   5.021  1.2496  0.6187 -0.5071
22719SOL    HW273478   4.630   2.975   5.167 -0.5623 -0.8410 -0.6420
22720SOL     OW73479   6.016   5.438   9.788 -0.2010 -0.1596 -0.3931
22720SOL    HW173480   6.024   5.480   9.873 -1.3005  0.5647 -0.6118
22720SOL    HW273481   6.087   5.476   9.736  0.8831 -1.1009  0.3710
22721SOL     OW73482   8.059  10.372  10.176 -0.0198 -1.0505 -0.0894
22721SOL    HW173483   8.113  10.339  10.104 -0.1242 -1.0556 -0.1661
22721SOL    HW273484   8.067  10.305  10.245 -1.1592 -1.8271 -0.6734
22722SOL     OW73485   1.691   1.635   2.954  0.0415 -0.3429 -0.1519
22722SOL    HW173486   1.665   1.611   3.043 -0.5975 -1.2101 -0.5555
22722SOL    HW273487   1.696   1.730   2.956 -1.9241 -0.2040  0.3124
22723SOL     OW73488   7.104   6.328   4.077  0.3168 -0.2959  0.0762
22723SOL    HW173489   7.019   6.349   4.038  1.1869  0.4486 -1.4729
22723SOL    HW273490   7.112   6.390   4.150 -0.6660 -0.7118  0.5669
22724SOL     OW73491   1.046   8.949   2.629 -0.5908  0.3599  0.6714
22724SOL    HW173492   1.001   9.028   2.659 -0.6070  0.6040  0.0301
22724SOL    HW273493   0.995   8.921   2.553 -0.4148 -0.1050  0.7229
22725SOL     OW73494   6.406   2.876   8.210  0.2378  0.0342 -0.6246
22725SOL    HW173495   6.461   2.954   8.203 -0.8336  0.7046 -2.3113
22725SOL    HW273496   6.357   2.889   8.291  0.4416  0.8886 -0.6253
22726SOL     OW73497   2.659   7.622  11.656 -0.2014  0.5362  0.0134
22726SOL    HW173498   2.689   7.617  11.746 -0.9624  0.8358  0.2909
22726SOL    HW273499   2.650   7.531  11.628 -0.7439  0.4348  0.5071
22727SOL     OW73500  11.323   3.614   3.083 -0.2640  0.5106 -0.5705
22727SOL    HW173501  11.368   3.552   3.026 -2.3965 -0.6538 -1.0869
22727SOL    HW273502  11.376   3.616   3.162  0.1467 -1.6243 -0.7219
22728SOL     OW73503   0.955   1.085   5.411 -0.3388  0.9169 -0.4599
22728SOL    HW173504   0.860   1.086   5.424 -0.1700 -1.7765  1.8883
22728SOL    HW273505   0.975   0.997   5.378  1.5025  0.7244  0.9867
22729SOL     OW73506   2.398   9.811  10.202  0.2158 -0.1867 -0.3904
22729SOL    HW173507   2.470   9.828  10.141  0.3967 -0.9428 -0.3951
22729SOL    HW273508   2.326   9.864  10.169  0.8487  0.8050 -0.2226
22730SOL     OW73509   9.129   7.823   2.843  0.7757 -0.2517 -0.2953
22730SOL    HW173510   9.061   7.871   2.796  1.0904  1.5538  0.9898
22730SOL    HW273511   9.149   7.749   2.787  0.2229  1.0947 -2.3810
22731SOL     OW73512   2.746   4.796   8.834  0.3044  0.3697 -0.1161
22731SOL    HW173513   2.672   4.736   8.845  0.2901  0.1862 -1.0774
22731SOL    HW273514   2.722   4.874   8.883 -0.2977  0.1123  0.0047
22732SOL     OW73515   2.581   8.856   0.796  0.8051  0.3242  0.2440
22732SOL    HW173516   2.675   8.853   0.778  1.2853 -1.1416  2.5381
22732SOL    HW273517   2.569   8.937   0.846  0.4596  1.4710 -1.6033
22733SOL     OW73518   8.436   4.113   6.001  0.1960  0.4077 -0.1505
22733SOL    HW173519   8.357   4.106   5.947 -0.7592  0.7091  1.1698
22733SOL    HW273520   8.463   4.022   6.014 -0.8332  0.1800  0.6257
22734SOL     OW73521   5.644   4.126  11.269  0.1002 -0.0699 -0.9386
22734SOL    HW173522   5.670   4.164  11.185  1.3985  0.1730 -0.4508
22734SOL    HW273523   5.577   4.061  11.246 -0.1537  0.5584 -2.0676
22735SOL     OW73524   9.736   0.368   7.921  1.2629 -0.1246 -0.0571
22735SOL    HW173525   9.800   0.360   7.991  1.2506  0.4505  0.0264
22735SOL    HW273526   9.653   0.340   7.960  1.2121  0.4154  0.2289
22736SOL     OW73527   8.493  10.300   8.187  0.0898  0.0895 -0.5927
22736SOL    HW173528   8.548  10.224   8.204  0.9259  0.7469 -0.2486
22736SOL    HW273529   8.415  10.287   8.240  0.9877  0.2843  0.8551
22737SOL     OW73530   0.382  11.190   2.218 -0.3431 -0.1331 -0.3425
22737SOL    HW173531   0.363  11.207   2.310 -0.7828 -2.0495 -0.0346
22737SOL    HW273532   0.463  11.140   2.219  0.4422  1.0786 -1.1252
22738SOL     OW73533  10.702   2.905   6.368  0.0857  0.1132 -0.2811
22738SOL    HW173534  10.694   2.980   6.309 -0.2705 -1.7670 -2.7469
22738SOL    HW273535  10.612   2.875   6.381  0.2958 -0.4010  0.0154
22739SOL     OW73536   2.394   3.569   5.548 -0.0296  0.5199 -0.0271
22739SOL    HW173537   2.352   3.562   5.634  0.1379 -1.9602 -0.0489
22739SOL    HW273538   2.330   3.532   5.488  0.9316 -0.4420 -0.5034
22740SOL     OW73539   4.395   9.529   6.885  0.3607 -0.0041 -0.2933
22740SOL    HW173540   4.422   9.592   6.952 -0.7733 -1.0897  1.2430
22740SOL    HW273541   4.374   9.584   6.809 -1.4099  1.6115  1.2590
22741SOL     OW73542   2.273   1.390   1.607 -0.3522 -0.4804 -0.1618
22741SOL    HW173543   2.302   1.421   1.693 -0.2796 -0.7341 -0.0968
22741SOL    HW273544   2.347   1.406   1.549  0.0614 -1.4711  0.0781
22742SOL     OW73545  11.576   0.052  10.964 -0.0270  0.1073  0.4522
22742SOL    HW173546  11.523   0.123  10.927 -0.2391 -0.2015  0.1515
22742SOL    HW273547  11.630   0.022  10.891 -0.3314 -0.3990  0.4258
22743SOL     OW73548   2.445  10.724   6.206 -0.4327 -0.0869  0.3556
22743SOL    HW173549   2.527  10.697   6.247  0.1496  1.4234  0.2265
22743SOL    HW273550   2.381  10.725   6.278  0.1250  0.6273  0.8575
22744SOL     OW73551   8.313   4.812  10.711 -0.0903  0.4177  0.3394
22744SOL    HW173552   8.270   4.860  10.640 -2.4187 -0.7974  0.8075
22744SOL    HW273553   8.292   4.863  10.790 -3.0639 -1.4349  0.9204
22745SOL     OW73554  10.428   8.486   3.708  0.3050 -0.0538  0.1429
22745SOL    HW173555  10.482   8.412   3.683 -1.7481 -1.4172 -0.4617
22745SOL    HW273556  10.369   8.452   3.775  0.2466  1.4160  0.8886
22746SOL     OW73557   9.066   8.089   8.257  0.1503  0.3922 -0.0525
22746SOL    HW173558   9.105   8.111   8.172 -0.8794 -0.2765 -0.7224
22746SOL    HW273559   9.011   8.165   8.277 -0.6355 -0.0098 -0.6384
22747SOL     OW73560   3.621   5.677   5.445  0.3663 -0.6358 -0.0379
22747SOL    HW173561   3.716   5.683   5.435  0.4292  0.5433  1.0328
22747SOL    HW273562   3.592   5.768   5.452 -0.7167 -1.0264  0.7926
22748SOL     OW73563   7.327   9.593   0.169 -0.1082  0.4423 -0.1550
22748SOL    HW173564   7.376   9.551   0.240  1.5158  0.6512 -1.1117
22748SOL    HW273565   7.237   9.598   0.202 -0.1518 -2.6324  0.5121
22749SOL     OW73566   2.274   7.591   9.190 -0.4311 -0.3689 -0.1341
22749SOL    HW173567   2.208   7.522   9.194  0.3471 -1.0799  1.5493
22749SOL    HW273568   2.295   7.600   9.097 -2.3419 -0.6233 -0.6264
22750SOL     OW73569   6.829   1.365   7.694  0.3323 -0.1165  0.3885
22750SOL    HW173570   6.788   1.278   7.698  0.5434 -0.1817  2.0315
22750SOL    HW273571   6.755   1.426   7.686 -0.0277 -0.3266  1.7547
22751SOL     OW73572   3.616   5.226   8.124 -0.0918 -0.1879  0.3001
22751SOL    HW173573   3.545   5.263   8.177  0.3144 -0.4280  1.0142
22751SOL    HW273574   3.577   5.216   8.037 -0.9480 -0.3398  0.6863
22752SOL     OW73575   5.312   5.244   6.907  0.0164 -0.1289 -0.3255
22752SOL    HW173576   5.318   5.318   6.847 -0.7718 -0.6934 -1.1210
22752SOL    HW273577   5.320   5.167   6.851 -0.6242 -0.6674  0.3049
22753SOL     OW73578  11.759  10.884   5.078 -0.2736  0.0870 -0.2168
22753SOL    HW173579  11.791  10.798   5.104 -1.4231  0.0687  1.2308
22753SOL    HW273580  11.682  10.899   5.132  0.6473  2.5981  0.5411
22754SOL     OW73581  10.796   3.920   1.022 -0.6466 -0.4541  0.0813
22754SOL    HW173582  10.768   3.843   0.973 -0.0334 -1.2948  1.0122
22754SOL    HW273583  10.879   3.945   0.982 -0.4776 -0.7393  0.2466
22755SOL     OW73584   0.935   8.297   6.036  0.8740  0.2015 -0.2194
22755SOL    HW173585   1.018   8.290   5.990  0.3841  0.0244 -1.0920
22755SOL    HW273586   0.948   8.368   6.099  2.1851 -0.8338  0.7528
22756SOL     OW73587  10.180   4.482   9.516 -0.0894 -0.0219  0.0225
22756SOL    HW173588  10.189   4.573   9.542  0.2930  0.3651 -1.3878
22756SOL    HW273589  10.259   4.462   9.466 -0.4780 -0.9085 -0.2787
22757SOL     OW73590   0.541   5.022   4.726 -0.0191 -0.3159  0.0002
22757SOL    HW173591   0.516   4.934   4.757  0.9252 -0.3561  0.6925
22757SOL    HW273592   0.635   5.016   4.710 -0.1471  0.2615 -1.0702
22758SOL     OW73593   1.416   0.076   9.938  0.1285 -0.1682  0.1437
22758SOL    HW173594   1.451  -0.013   9.926  1.9570  0.3565  1.1162
22758SOL    HW273595   1.446   0.101  10.025  1.2442  2.0568 -0.7985
22759SOL     OW73596   5.511   9.263   2.521 -0.5283  0.4747  0.4036
22759SOL    HW173597   5.573   9.226   2.459  1.3571  1.2033  1.7385
22759SOL    HW273598   5.439   9.295   2.467  0.3653 -0.1811 -1.2473
22760SOL     OW73599   3.837   9.418   3.186  0.3104 -0.7207 -0.4883
22760SOL    HW173600   3.856   9.467   3.266 -0.1014 -1.0692 -0.1703
22760SOL    HW273601   3.807   9.484   3.124 -0.7282 -0.6310  0.0956
22761SOL     OW73602   0.471   1.839   9.559 -0.6771 -0.4066 -0.1122
22761SOL    HW173603   0.485   1.912   9.619  0.9060  0.2171 -1.1690
22761SOL    HW273604   0.392   1.795   9.592 -0.2764  0.3209  1.9634
22762SOL     OW73605  10.024   1.228   5.686 -0.3364  0.2233 -0.8452
22762SOL    HW173606  10.046   1.135   5.681 -1.7630 -0.0986 -1.7852
22762SOL    HW273607  10.108   1.273   5.687  0.3787 -1.0777 -0.1415
22763SOL     OW73608   5.148   8.098   1.530 -0.3705  0.4881  0.6218
22763SOL    HW173609   5.105   8.022   1.491  0.8507  0.0677  0.0436
22763SOL    HW273610   5.236   8.067   1.551 -0.1579  1.4813  1.2579
22764SOL     OW73611  11.554   8.727   9.008  0.6695  0.3687  0.6522
22764SOL    HW173612  11.515   8.762   9.088 -1.2083 -1.1456  0.4945
22764SOL    HW273613  11.479   8.707   8.952  1.6985 -1.9139 -0.0463
22765SOL     OW73614   9.631   7.484   1.648 -0.5015 -0.4490  0.7978
22765SOL    HW173615   9.702   7.471   1.711 -1.3097 -0.6823  1.6975
22765SOL    HW273616   9.600   7.395   1.629 -0.3888 -0.3644  0.2243
22766SOL     OW73617   4.293  11.600   1.870  0.1257  0.3554  0.2175
22766SOL    HW173618   4.288  11.543   1.793  2.1050  0.0786  0.2522
22766SOL    HW273619   4.215  11.578   1.921 -1.3000  0.6168 -1.7108
22767SOL     OW73620   9.605   2.252   7.516  0.0384 -0.0677  0.0939
22767SOL    HW173621   9.525   2.210   7.550 -0.8742 -0.3605 -2.1852
22767SOL    HW273622   9.596   2.344   7.540  0.6178 -0.5818  2.5896
22768SOL     OW73623   3.346   5.465   5.783 -0.0768  0.2136 -0.7416
22768SOL    HW173624   3.266   5.414   5.775  0.3683 -0.5310 -0.5061
22768SOL    HW273625   3.384   5.463   5.695  0.1653 -0.2513 -0.6321
22769SOL     OW73626   5.187   1.597   1.261  0.5677  0.5106 -0.6144
22769SOL    HW173627   5.133   1.672   1.236 -1.2484 -0.8380 -0.9576
22769SOL    HW273628   5.125   1.536   1.302  2.0334 -0.6811 -0.0990
22770SOL     OW73629  10.227   8.633   1.631  0.3464 -0.3170  0.4507
22770SOL    HW173630  10.206   8.719   1.668 -2.1286 -0.2668 -0.8506
22770SOL    HW273631  10.217   8.572   1.704 -1.8130  0.0829  0.5468
22771SOL     OW73632  10.718  11.248  11.067  0.6994 -0.4845  0.2835
22771SOL    HW173633  10.649  11.199  11.021  0.6429 -0.6611  0.5582
22771SOL    HW273634  10.696  11.239  11.160 -0.8978  2.2953  0.2976
22772SOL     OW73635   5.946   3.067   9.029  0.6097 -0.4719  0.1623
22772SOL    HW173636   5.855   3.095   9.033  0.7097  0.6407 -2.8406
22772SOL    HW273637   5.989   3.116   9.099 -0.7615  0.4345  0.4081
22773SOL     OW73638   2.840   6.020   9.691  0.2771  0.2594 -0.1649
22773SOL    HW173639   2.762   5.978   9.727 -0.5923  2.4978  0.6924
22773SOL    HW273640   2.913   5.981   9.740 -0.5420  0.1059  0.9651
22774SOL     OW73641   8.316   0.182   1.659  0.3354 -0.2359  0.0686
22774SOL    HW173642   8.282   0.212   1.744 -2.7213  0.1864 -1.1665
22774SOL    HW273643   8.241   0.139   1.618  1.5839  0.0072 -2.6115
22775SOL     OW73644   7.848   0.651   5.555 -0.5636  0.1656  0.0003
22775SOL    HW173645   7.787   0.651   5.482  0.4647  0.4407 -0.8784
22775SOL    HW273646   7.869   0.559   5.569 -0.4623  0.1424 -0.3051
22776SOL     OW73647   2.989   0.196   2.370  0.0565  0.1120  0.1879
22776SOL    HW173648   3.047   0.254   2.419 -1.9145  1.0135  1.6034
22776SOL    HW273649   2.986   0.116   2.422  2.6969 -1.3924 -1.7133
22777SOL     OW73650   0.664   9.585  10.610 -0.2739 -0.2044 -0.2964
22777SOL    HW173651   0.737   9.618  10.663  0.2753 -0.1513 -1.0740
22777SOL    HW273652   0.688   9.495  10.589 -1.4721 -0.9256  1.2756
22778SOL     OW73653   2.937   9.685   7.736 -0.1388  0.1612 -0.7619
22778SOL    HW173654   2.908   9.619   7.799 -0.8106  1.3595  0.2190
22778SOL    HW273655   2.914   9.648   7.650 -1.1010 -0.5885 -0.2019
22779SOL     OW73656   1.561   1.091   0.586 -0.7053  0.1029  1.2645
22779SOL    HW173657   1.494   1.023   0.583 -0.9667  0.2322  3.0848
22779SOL    HW273658   1.635   1.054   0.538 -2.0943  0.0448 -0.9894
22780SOL     OW73659   5.409   6.959   9.605 -0.0477 -0.0922  0.1231
22780SOL    HW173660   5.426   6.884   9.662  1.7331  1.5602  1.9331
22780SOL    HW273661   5.441   6.931   9.519  0.7600 -1.3410  0.7914
22781SOL     OW73662   6.761  10.384   3.463  0.0442  0.4753  0.4290
22781SOL    HW173663   6.680  10.391   3.413  0.2493 -1.3038 -0.2285
22781SOL    HW273664   6.765  10.465   3.514 -2.1372  0.6161  0.4772
22782SOL     OW73665   9.929   8.864   6.613  0.5183 -0.1168 -0.0481
22782SOL    HW173666   9.974   8.888   6.693  2.0978  2.3893 -1.5712
22782SOL    HW273667   9.942   8.769   6.606  2.6714  0.0192  1.2904
22783SOL     OW73668   9.110   3.645   8.633 -0.2402 -0.6422  0.2014
22783SOL    HW173669   9.015   3.631   8.634 -0.3906  0.2556 -0.8139
22783SOL    HW273670   9.144   3.572   8.685 -1.5746 -0.2223  1.7607
22784SOL     OW73671   5.453   0.433   8.618 -0.8243 -0.0066  0.1231
22784SOL    HW173672   5.525   0.375   8.592 -1.4567 -1.7652  2.0745
22784SOL    HW273673   5.374   0.386   8.594 -1.3378  0.5966  0.6031
22785SOL     OW73674   6.431   1.913   7.335 -0.1918 -0.3511  0.0848
22785SOL    HW173675   6.349   1.889   7.376 -0.9604  1.6550 -0.1573
22785SOL    HW273676   6.462   1.990   7.384  1.4889 -0.9763  0.0896
22786SOL     OW73677  11.595  10.439   0.905  0.7646 -0.9304 -0.3789
22786SOL    HW173678  11.610  10.462   0.813  0.2409  0.1759 -0.2044
22786SOL    HW273679  11.677  10.400   0.934  0.7183 -1.9098 -1.4909
22787SOL     OW73680  11.253   7.347  10.807 -0.1840 -0.8871 -0.6891
22787SOL    HW173681  11.276   7.278  10.869  1.2892 -0.1897 -0.4311
22787SOL    HW273682  11.162   7.368  10.829 -0.0395 -1.4091  0.5010
22788SOL     OW73683   0.529   6.898   9.897  0.0905  0.8941 -0.0428
22788SOL    HW173684   0.500   6.976   9.848  2.4696  1.2652 -1.0129
22788SOL    HW273685   0.624   6.901   9.891  0.2927 -1.2719  1.2686
22789SOL     OW73686   2.580   0.634   6.197  0.0441 -0.4374  0.2708
22789SOL    HW173687   2.631   0.620   6.277  1.2417  0.2425 -0.3494
22789SOL    HW273688   2.527   0.555   6.189  2.0366 -1.8441  0.1934
22790SOL     OW73689   6.196   8.776   5.515  0.0046 -0.1761 -0.2322
22790SOL    HW173690   6.125   8.739   5.567  0.3232 -0.9859 -0.3493
22790SOL    HW273691   6.243   8.834   5.576 -0.0988 -0.5017  0.1611
22791SOL     OW73692   5.931   4.167   9.162 -0.0148 -0.3675  0.4499
22791SOL    HW173693   5.903   4.141   9.250  1.1398 -2.8561  0.1661
22791SOL    HW273694   5.870   4.123   9.103 -0.1161  0.4031 -0.0415
22792SOL     OW73695  10.839   2.014   6.953  0.1917  0.1787  0.0490
22792SOL    HW173696  10.854   2.106   6.931  0.9296 -0.1211 -0.7337
22792SOL    HW273697  10.764   2.016   7.012 -0.3896  1.2109 -0.6863
22793SOL     OW73698   4.007   0.311   5.230  0.1009 -0.8669  0.2317
22793SOL    HW173699   3.989   0.333   5.321  1.1711 -0.5518  0.3728
22793SOL    HW273700   4.017   0.395   5.186 -0.4442 -1.0162 -0.1986
22794SOL     OW73701   4.832   2.915  11.558 -0.0377 -0.6773  0.3937
22794SOL    HW173702   4.887   2.874  11.625  0.3381 -0.5563  0.1606
22794SOL    HW273703   4.751   2.865  11.561 -0.0537 -0.6262  0.9923
22795SOL     OW73704   5.534   4.870   2.684 -0.8248 -0.1725  0.1282
22795SOL    HW173705   5.461   4.931   2.697  0.4695  1.2030  1.2138
22795SOL    HW273706   5.579   4.868   2.768  1.1662  0.0605 -0.8862
22796SOL     OW73707  11.031   5.457   1.938  0.5581  0.3314  0.0254
22796SOL    HW173708  10.937   5.461   1.955  0.3932  2.3494 -1.0848
22796SOL    HW273709  11.039   5.443   1.844  1.3918 -0.3881  0.1849
22797SOL     OW73710   2.645   3.695   4.258  0.1350 -0.2280  0.2142
22797SOL    HW173711   2.714   3.723   4.317 -0.1602  1.0123 -0.0020
22797SOL    HW273712   2.571   3.674   4.315  1.0653 -2.8765  0.5546
22798SOL     OW73713   9.928   5.565   9.713 -0.4951  0.2205 -0.1406
22798SOL    HW173714   9.943   5.580   9.807  0.6463  0.4189 -0.3484
22798SOL    HW273715   9.888   5.646   9.682  1.4368  1.1409 -0.3259
22799SOL     OW73716   4.304   6.185  10.535  0.3215 -0.5279  0.1751
22799SOL    HW173717   4.244   6.201  10.607 -0.7398  0.2289 -0.8412
22799SOL    HW273718   4.249   6.154  10.463  0.7441  2.2397 -1.4845
22800SOL     OW73719   6.793  10.757   1.327  0.0762  0.0593 -0.1768
22800SOL    HW173720   6.711  10.804   1.341  0.6650  0.7906  1.0369
22800SOL    HW273721   6.767  10.667   1.308 -1.0355  0.5849 -1.2685
22801SOL     OW73722  11.221   9.774  10.086 -0.1888  0.4429  0.5258
22801SOL    HW173723  11.129   9.752  10.075 -0.5118  1.3738  1.2438
22801SOL    HW273724  11.225   9.869  10.072  0.9976  0.1457 -1.5399
22802SOL     OW73725  11.083   7.970   6.198  0.3228  0.0936  0.9098
22802SOL    HW173726  11.106   7.934   6.113 -0.1007 -0.4640  1.0257
22802SOL    HW273727  11.165   7.970   6.247  0.7212  1.0735  0.2808
22803SOL     OW73728   0.089   8.554   3.478 -0.0853 -0.1528  0.8175
22803SOL    HW173729   0.154   8.506   3.529  0.7363  0.6507  0.5599
22803SOL    HW273730   0.005   8.524   3.512  0.3657 -2.2056  0.2425
22804SOL     OW73731   2.019   4.906  10.647 -0.4970 -0.1415  0.0416
22804SOL    HW173732   2.090   4.925  10.708 -0.4389 -3.8193  1.3148
22804SOL    HW273733   1.945   4.881  10.702 -0.9463 -1.9804 -1.2914
22805SOL     OW73734   6.518   2.337   3.900  0.3286  0.2016 -0.1989
22805SOL    HW173735   6.475   2.301   3.978 -0.4948 -0.2094 -0.8274
22805SOL    HW273736   6.501   2.272   3.832  0.4917  0.8664 -0.8779
22806SOL     OW73737   0.533  10.317   5.459  0.0011  0.2464  0.4202
22806SOL    HW173738   0.465  10.371   5.499  0.8791  1.4980  0.2908
22806SOL    HW273739   0.615  10.361   5.483  0.6600 -0.1863 -0.9635
22807SOL     OW73740   4.948   9.793   3.500 -0.6666 -0.0937 -0.0100
22807SOL    HW173741   4.884   9.803   3.570 -0.4730 -0.4803  0.2315
22807SOL    HW273742   4.901   9.746   3.431 -0.5179 -0.7891  0.3531
22808SOL     OW73743  11.130   1.036   7.362 -0.1262 -0.2617 -0.0206
22808SOL    HW173744  11.218   1.036   7.399 -0.4024 -0.5690  0.6522
22808SOL    HW273745  11.130   1.110   7.300  0.1770  0.6185  0.9977
22809SOL     OW73746   3.860  11.368   6.312 -0.1090  0.0910  0.1840
22809SOL    HW173747   3.827  11.434   6.374  0.7884 -0.4429  1.2711
22809SOL    HW273748   3.923  11.416   6.258 -1.2683  0.6850 -0.7050
22810SOL     OW73749  11.159   7.978   3.371 -0.5365 -0.0666  0.3322
22810SOL    HW173750  11.120   8.065   3.359 -3.3903 -1.3376 -0.6694
22810SOL    HW273751  11.113   7.941   3.446 -1.3089 -1.6231 -0.8393
22811SOL     OW73752   3.828   7.256   5.303  0.1163 -0.5458  0.0450
22811SOL    HW173753   3.922   7.243   5.289  0.6557  2.2350  0.4979
22811SOL    HW273754   3.823   7.331   5.362 -2.3954  0.3131 -1.1147
22812SOL     OW73755   4.007   5.124   8.603 -0.0264  0.3823 -0.6033
22812SOL    HW173756   4.045   5.089   8.522 -0.2394 -0.1012 -0.4968
22812SOL    HW273757   4.056   5.205   8.620  0.8474 -0.1536 -0.5451
22813SOL     OW73758   1.160   3.384   6.695  0.0589  0.4145  0.8691
22813SOL    HW173759   1.221   3.313   6.674 -2.2129 -1.3843  0.0435
22813SOL    HW273760   1.149   3.431   6.613 -2.0376 -1.2435  0.1107
22814SOL     OW73761   6.596   5.752   1.372  0.6846  0.6334  0.0498
22814SOL    HW173762   6.606   5.659   1.354  0.2772  0.5225  0.3698
22814SOL    HW273763   6.567   5.756   1.463 -0.0763  1.0311 -0.2014
22815SOL     OW73764   3.741   3.077   8.491 -0.4360 -0.7695 -0.0318
22815SOL    HW173765   3.831   3.049   8.476 -1.1680 -2.7296 -1.2221
22815SOL    HW273766   3.734   3.161   8.445  0.6488 -0.8073 -0.2962
22816SOL     OW73767   4.713   0.650   5.735 -0.1402 -0.6956 -0.2259
22816SOL    HW173768   4.666   0.660   5.818  0.5231 -0.8761  0.1797
22816SOL    HW273769   4.780   0.584   5.753  0.5542 -0.1277 -0.6611
22817SOL     OW73770   1.765   9.099   6.794 -0.2275 -0.3648 -0.3821
22817SOL    HW173771   1.747   9.185   6.831  0.2849 -1.5476  2.9062
22817SOL    HW273772   1.701   9.089   6.723 -1.1186  2.1645 -0.0273
22818SOL     OW73773   8.819   8.536   9.399 -0.4091 -0.0774 -0.1509
22818SOL    HW173774   8.871   8.556   9.476 -1.2492  1.3953  0.0698
22818SOL    HW273775   8.779   8.620   9.374 -1.3672 -0.8315 -1.2755
22819SOL     OW73776   8.822   6.063   0.289  0.1791 -1.2179 -0.2735
22819SOL    HW173777   8.826   5.981   0.339  0.0990 -0.3699  1.1939
22819SOL    HW273778   8.893   6.117   0.325 -0.5036 -0.2148 -0.3775
22820SOL     OW73779  10.273   1.611   6.229 -0.2597 -0.2399 -0.3190
22820SOL    HW173780  10.271   1.646   6.140  1.0336 -1.5890 -0.9289
22820SOL    HW273781  10.225   1.528   6.224 -0.0839 -0.3788  0.1940
22821SOL     OW73782   5.932   6.467  10.420 -0.1233 -0.2312 -0.3840
22821SOL    HW173783   5.962   6.544  10.372  0.8790 -0.4786 -0.1834
22821SOL    HW273784   5.981   6.470  10.503 -0.7616 -0.5854  0.0160
22822SOL     OW73785   7.691  10.496   8.943 -0.6460 -0.4817 -0.2281
22822SOL    HW173786   7.716  10.582   8.976  1.2498 -0.8353 -0.6045
22822SOL    HW273787   7.655  10.451   9.020  1.2850 -0.4066  0.7927
22823SOL     OW73788   9.792   4.131   1.404  0.4120 -0.4677  0.4088
22823SOL    HW173789   9.818   4.181   1.481 -1.2903 -1.4412  1.6847
22823SOL    HW273790   9.862   4.066   1.393  1.1575  0.2905  0.5051
22824SOL     OW73791   8.954   5.808   4.317 -0.0209  0.3311  0.3573
22824SOL    HW173792   8.926   5.727   4.359 -1.0631  1.3475  1.6897
22824SOL    HW273793   8.888   5.873   4.341  1.3245  1.8392  0.1887
22825SOL     OW73794   3.664   4.897   8.817 -0.2601 -0.0709 -0.1245
22825SOL    HW173795   3.655   4.960   8.746  1.1034 -1.3362 -1.5051
22825SOL    HW273796   3.743   4.847   8.796 -0.3443 -1.1413  1.7875
22826SOL     OW73797   7.654  10.465   7.801  0.0131 -0.0337 -0.0873
22826SOL    HW173798   7.697  10.536   7.754  0.6627 -0.3813 -0.0349
22826SOL    HW273799   7.726  10.419   7.845 -0.6389  0.7984  1.9596
22827SOL     OW73800   1.391   9.317   2.067  0.1774  0.3372 -0.2932
22827SOL    HW173801   1.446   9.386   2.029  0.8329  0.1733  0.3313
22827SOL    HW273802   1.324   9.365   2.116 -0.9381  0.5582 -1.9603
22828SOL     OW73803   1.367   5.149   9.287 -0.0299 -0.0698 -0.1805
22828SOL    HW173804   1.289   5.099   9.264  0.5473 -0.6820 -0.8854
22828SOL    HW273805   1.414   5.092   9.348  1.2579 -1.0099 -1.9529
22829SOL     OW73806   9.910  11.068   3.488 -0.0632 -0.2953 -0.0291
22829SOL    HW173807   9.977  11.069   3.420  0.3554  0.6959  0.3779
22829SOL    HW273808   9.959  11.057   3.570 -0.3126  1.0659  0.3308
22830SOL     OW73809   7.788   2.593   8.340  0.4146 -0.1605 -0.2917
22830SOL    HW173810   7.817   2.606   8.250 -0.2228 -2.5287 -0.9068
22830SOL    HW273811   7.802   2.678   8.382  3.6095  0.1751 -1.7637
22831SOL     OW73812   0.985   4.918   5.048 -0.4351  0.5142 -0.0910
22831SOL    HW173813   1.071   4.954   5.029 -0.5121  0.5526 -0.3641
22831SOL    HW273814   0.924   4.988   5.025 -0.6719 -0.2335 -1.8404
22832SOL     OW73815   0.404   7.177   9.369  0.5467 -0.0036 -0.2038
22832SOL    HW173816   0.439   7.099   9.413  0.3953  0.2082  0.3041
22832SOL    HW273817   0.318   7.150   9.338  1.3329 -0.6780 -1.8936
22833SOL     OW73818   6.236   0.638   0.884 -0.3901 -0.5136  0.1288
22833SOL    HW173819   6.286   0.624   0.804  0.8110 -0.3715  0.8261
22833SOL    HW273820   6.147   0.612   0.862 -0.5051  1.2798 -1.8056
22834SOL     OW73821   2.403   1.703   7.657 -0.6972 -0.3397  0.0863
22834SOL    HW173822   2.358   1.620   7.642 -0.5545  0.1000 -3.5031
22834SOL    HW273823   2.336   1.770   7.642  0.0075  0.2343 -0.5873
22835SOL     OW73824  10.175   8.043  10.313 -0.3006  0.2432  0.1890
22835SOL    HW173825  10.248   7.984  10.327  0.5315  1.2106  0.0076
22835SOL    HW273826  10.148   8.069  10.402  0.1014  0.5115  0.2339
22836SOL     OW73827   5.522   5.552  10.484  0.2967 -0.3913  0.3000
22836SOL    HW173828   5.560   5.624  10.535  0.6955  1.1613 -2.0241
22836SOL    HW273829   5.429   5.552  10.506  0.3878  0.5295  0.7148
22837SOL     OW73830   4.519   1.089   0.960 -0.2123 -0.2209  0.0966
22837SOL    HW173831   4.505   1.019   1.024 -0.6106 -0.6632 -0.4604
22837SOL    HW273832   4.431   1.123   0.942  0.0493  0.9278  0.9089
22838SOL     OW73833   1.281   7.450   2.682 -0.1692  0.3445  0.4331
22838SOL    HW173834   1.328   7.477   2.761  1.6021  1.1089 -0.8223
22838SOL    HW273835   1.252   7.532   2.642 -0.6392 -0.0015  0.0559
22839SOL     OW73836   2.737  10.987   2.951  0.4586  0.1294 -0.0094
22839SOL    HW173837   2.691  10.981   3.035  0.1525 -0.0220 -0.1824
22839SOL    HW273838   2.667  10.986   2.886  0.7155 -0.2562 -0.2839
22840SOL     OW73839   5.444   1.992   5.785 -0.0042  0.1267 -0.0633
22840SOL    HW173840   5.521   1.940   5.761 -0.9536 -1.0940 -0.5505
22840SOL    HW273841   5.480   2.079   5.805  1.6726 -0.7563  1.0465
22841SOL     OW73842   6.118   9.300   6.749  0.0318 -0.4509 -0.2050
22841SOL    HW173843   6.161   9.376   6.710  0.1586 -1.0340 -1.2429
22841SOL    HW273844   6.073   9.258   6.676 -2.8420  0.4392  0.9016
22842SOL     OW73845   7.077   1.845   2.581  0.2102  0.1423 -0.2912
22842SOL    HW173846   7.134   1.922   2.578 -0.0619  0.3258 -0.8928
22842SOL    HW273847   7.098   1.797   2.501 -0.8682  0.5027 -0.8096
22843SOL     OW73848   6.448   8.251   1.160  0.0802  0.5372 -0.1093
22843SOL    HW173849   6.435   8.308   1.235 -0.9142 -0.5038  0.5536
22843SOL    HW273850   6.510   8.185   1.190 -1.1714 -0.5398  0.2229
22844SOL     OW73851   5.716   1.763   8.622 -0.1540  0.2983 -0.2079
22844SOL    HW173852   5.716   1.706   8.700 -0.3062  1.8488  0.9685
22844SOL    HW273853   5.625   1.763   8.593  0.1242 -1.3433 -1.2491
22845SOL     OW73854   3.728   0.630   4.611 -0.1928 -0.2030 -0.3838
22845SOL    HW173855   3.752   0.705   4.557 -0.6404 -1.6123 -2.6387
22845SOL    HW273856   3.810   0.583   4.625  0.2291  0.9871  1.6577
22846SOL     OW73857   5.976   6.596   0.142 -0.4448  0.2890 -0.3351
22846SOL    HW173858   5.966   6.501   0.136 -1.8127  0.4768 -2.1912
22846SOL    HW273859   6.049   6.616   0.084  0.5149  0.3249  0.8414
22847SOL     OW73860   0.623   7.373  10.855  0.2518 -0.2941 -0.2396
22847SOL    HW173861   0.587   7.293  10.817  0.6236 -0.6402  0.1136
22847SOL    HW273862   0.582   7.444  10.806 -0.6297 -0.6780 -0.0782
22848SOL     OW73863   0.854   8.899   1.648 -0.4047 -0.0221 -0.5872
22848SOL    HW173864   0.880   8.980   1.691 -1.6531  0.1312 -0.0746
22848SOL    HW273865   0.920   8.886   1.579  1.5537 -0.2099  1.2279
22849SOL     OW73866   1.356  11.356   7.065  0.1875 -0.7180 -0.1512
22849SOL    HW173867   1.408  11.428   7.102 -1.6570  0.5005  0.1875
22849SOL    HW273868   1.356  11.372   6.971 -0.7454  0.1257 -0.0219
22850SOL     OW73869   0.922   9.641  10.761 -0.1285 -0.5983  0.1484
22850SOL    HW173870   0.957   9.583  10.693  1.5293 -0.2221  0.6160
22850SOL    HW273871   0.979   9.626  10.837  0.9022  2.1326  0.0610
22851SOL     OW73872  10.436   2.958   1.732 -0.3246 -0.2234  0.4573
22851SOL    HW173873  10.351   2.965   1.687 -1.3930 -1.2592  2.1975
22851SOL    HW273874  10.455   2.864   1.733 -1.3343 -0.5268  3.7463
22852SOL     OW73875   5.532   3.762  11.403 -0.1897  0.0047 -0.4577
22852SOL    HW173876   5.539   3.714  11.320  1.9288 -1.5632  0.5381
22852SOL    HW273877   5.614   3.812  11.408 -0.6962  0.7810  0.2888
22853SOL     OW73878   8.386   4.116   6.937  0.2024  0.1640 -0.0323
22853SOL    HW173879   8.339   4.131   6.855 -0.1278 -2.5380 -0.4415
22853SOL    HW273880   8.461   4.175   6.934 -1.0279  1.7709 -1.1701
22854SOL     OW73881   0.322   3.004   9.509 -0.4220 -0.0250  0.3169
22854SOL    HW173882   0.282   2.923   9.543  0.0025  0.3835  1.8551
22854SOL    HW273883   0.251   3.046   9.460 -0.7864 -1.0797 -0.1040
22855SOL     OW73884  11.265   9.466   3.307 -0.2299 -0.6672  0.3176
22855SOL    HW173885  11.295   9.439   3.393  0.0758 -1.0131  0.1051
22855SOL    HW273886  11.330   9.429   3.246  0.7563  1.2905  0.0746
22856SOL     OW73887   0.969   9.107   9.610 -0.2460 -0.2883  0.3091
22856SOL    HW173888   0.887   9.157   9.608 -0.9778 -1.4800 -0.7040
22856SOL    HW273889   1.022   9.144   9.539 -0.8428 -1.0302 -0.5304
22857SOL     OW73890   1.592   5.399   2.808 -0.0777 -0.0354  0.0050
22857SOL    HW173891   1.585   5.493   2.792 -0.6630 -0.1484 -0.4105
22857SOL    HW273892   1.609   5.392   2.902  1.0086  0.5241 -0.1385
22858SOL     OW73893   3.297   6.108   2.511  0.1414  0.3336 -0.6555
22858SOL    HW173894   3.293   6.092   2.605  1.1562  1.7901 -0.3384
22858SOL    HW273895   3.206   6.116   2.484 -0.2517 -1.8947 -0.1610
22859SOL     OW73896   1.135   9.323  10.376  0.0553  0.0685 -0.0023
22859SOL    HW173897   1.050   9.293  10.345 -0.8055  0.3114  1.9855
22859SOL    HW273898   1.189   9.244  10.379 -0.1663 -0.1352 -1.0092
22860SOL     OW73899   2.938   9.322   0.260  0.5449 -0.6762  0.6903
22860SOL    HW173900   2.873   9.387   0.288  1.2787  0.4599 -0.1318
22860SOL    HW273901   3.015   9.374   0.239  0.1561 -1.3813 -3.1660
22861SOL     OW73902   4.661   5.673  10.693 -0.2121  0.0450 -0.3644
22861SOL    HW173903   4.669   5.766  10.715  1.9292 -0.0623 -0.4013
22861SOL    HW273904   4.729   5.631  10.746 -1.3388 -1.5410 -0.1381
22862SOL     OW73905   7.818   6.371   9.732 -0.1453 -0.1955 -0.0175
22862SOL    HW173906   7.765   6.371   9.652  2.3089 -0.7531 -1.7685
22862SOL    HW273907   7.827   6.463   9.754 -2.6696 -0.1093  1.0101
22863SOL     OW73908   9.741   5.576   5.127 -0.0516 -0.0578  0.0384
22863SOL    HW173909   9.695   5.591   5.210  0.6813  1.2974  0.2260
22863SOL    HW273910   9.828   5.546   5.154 -0.3509 -1.2486 -0.2861
22864SOL     OW73911   3.659   9.063   4.156 -0.3922  0.2717  0.1537
22864SOL    HW173912   3.641   9.157   4.154 -1.3649  0.0890 -0.2183
22864SOL    HW273913   3.615   9.028   4.079 -0.1843 -0.5189  0.3811
22865SOL     OW73914   9.293   3.232  11.730 -0.1548  0.2970 -0.3963
22865SOL    HW173915   9.250   3.175  11.794  0.7485 -0.5939 -0.5684
22865SOL    HW273916   9.336   3.172  11.669 -0.4287  1.1447 -1.4518
22866SOL     OW73917   6.266   2.927   8.436  0.1582  0.0161  0.1819
22866SOL    HW173918   6.190   2.927   8.494  0.6400  1.0251  0.8335
22866SOL    HW273919   6.342   2.918   8.494  0.6398  0.9191 -0.2808
22867SOL     OW73920   0.010   9.430  10.767 -0.3059  0.0705  0.0834
22867SOL    HW173921   0.080   9.367  10.748 -0.1502  0.3280 -0.2202
22867SOL    HW273922  -0.059   9.378  10.808  0.1469 -0.1494  0.5723
22868SOL     OW73923   2.363  10.887   3.089  0.3842  0.1065  0.3971
22868SOL    HW173924   2.318  10.886   3.173 -1.2340  0.9106 -0.4045
22868SOL    HW273925   2.406  10.972   3.085  2.0683 -0.6664  1.1673
22869SOL     OW73926   1.251   5.574   6.175 -0.4242  0.0792 -0.3853
22869SOL    HW173927   1.338   5.592   6.139  0.2964 -2.3637 -0.0499
22869SOL    HW273928   1.212   5.513   6.112 -0.5940 -1.3416  1.0163
22870SOL     OW73929   6.657   2.990   9.300 -0.2286  0.4890 -0.4370
22870SOL    HW173930   6.593   2.989   9.371 -0.6699 -1.2700 -0.8288
22870SOL    HW273931   6.727   3.047   9.331 -0.2720 -0.4835  1.5447
22871SOL     OW73932  10.054  11.542   2.861  0.0625  0.1456 -0.0264
22871SOL    HW173933  10.065  11.529   2.955 -0.5808 -0.0179  0.0338
22871SOL    HW273934   9.972  11.592   2.854  0.2927  0.4575 -0.4773
22872SOL     OW73935   5.364   7.550   9.083  0.0252 -0.2613 -0.4046
22872SOL    HW173936   5.455   7.534   9.059  0.3125  0.7887 -0.0726
22872SOL    HW273937   5.368   7.616   9.153 -0.9656 -0.5731 -0.0288
22873SOL     OW73938   4.174   4.130   1.655 -0.2679  0.1878  0.0548
22873SOL    HW173939   4.087   4.122   1.694 -0.6414 -0.6270 -0.9349
22873SOL    HW273940   4.180   4.058   1.593  0.1656  1.6416 -1.6927
22874SOL     OW73941   0.203   1.353  11.144 -0.2746  0.6410  0.5879
22874SOL    HW173942   0.182   1.426  11.203 -0.2586  1.7666 -0.7255
22874SOL    HW273943   0.271   1.304  11.189 -0.7310  1.0757  1.7875
22875SOL     OW73944   6.896   0.954  11.517 -0.1947 -0.1783 -0.0809
22875SOL    HW173945   6.884   1.030  11.460 -1.3197 -0.4557 -0.2478
22875SOL    HW273946   6.979   0.970  11.562 -0.0908  0.8215 -0.6000
22876SOL     OW73947  11.667   8.056   7.790  0.2438 -0.1932 -0.8280
22876SOL    HW173948  11.696   8.142   7.820  0.8209 -0.1183 -1.5567
22876SOL    HW273949  11.719   7.994   7.841  0.1941 -0.0934 -0.6583
22877SOL     OW73950   5.066   5.870  10.437  0.0193  0.8467 -0.1093
22877SOL    HW173951   5.161   5.876  10.441  0.1721 -0.9091 -0.4694
22877SOL    HW273952   5.039   5.943  10.381  1.1692  1.1731 -0.2461
22878SOL     OW73953  11.601   2.893   1.971  0.2904  0.2220  0.1135
22878SOL    HW173954  11.692   2.915   1.949 -0.0776 -0.6441 -2.6079
22878SOL    HW273955  11.582   2.814   1.920 -1.9022  0.1463  0.9347
22879SOL     OW73956   0.913   8.149   5.216 -0.3739  0.7561  0.2696
22879SOL    HW173957   0.847   8.103   5.267  0.5034 -0.6625  0.1702
22879SOL    HW273958   0.937   8.088   5.147  1.7946  0.7702  0.9240
22880SOL     OW73959  11.164   6.648   4.386  0.6415 -0.2297 -0.0962
22880SOL    HW173960  11.257   6.660   4.368  0.8319  1.0760  1.5491
22880SOL    HW273961  11.159   6.565   4.433  0.8393 -0.6924 -0.8593
22881SOL     OW73962  10.425   0.665  11.610 -0.4887 -0.1634 -0.2366
22881SOL    HW173963  10.346   0.611  11.614  1.0999 -2.6272  0.0773
22881SOL    HW273964  10.447   0.684  11.701 -1.1991  1.3567 -0.3515
22882SOL     OW73965   4.191   2.115   9.725 -0.0102  0.4223 -0.5014
22882SOL    HW173966   4.279   2.081   9.743 -0.0253  0.9332  0.6260
22882SOL    HW273967   4.148   2.046   9.675  0.0061 -1.1877  1.5724
22883SOL     OW73968  11.213   7.137   6.449  0.3446  0.2014  0.0092
22883SOL    HW173969  11.250   7.049   6.446  1.5144  0.6955 -0.6429
22883SOL    HW273970  11.223   7.170   6.360  0.6377  1.2799  0.4290
22884SOL     OW73971  10.540  11.567   5.516  0.1064 -0.5004  0.3553
22884SOL    HW173972  10.533  11.485   5.565  2.2678  0.0017  1.6316
22884SOL    HW273973  10.460  11.616   5.538  0.2324 -0.9939  2.0548
22885SOL     OW73974   2.532   9.044   8.354 -0.1362  0.4587  0.3229
22885SOL    HW173975   2.589   9.122   8.353 -0.2929  0.5708 -0.0830
22885SOL    HW273976   2.582   8.979   8.403  0.9077  0.1497 -1.0660
22886SOL     OW73977   2.689   2.141   9.219 -0.2796 -0.5496 -0.3010
22886SOL    HW173978   2.724   2.052   9.222 -1.9853 -1.2472 -0.4561
22886SOL    HW273979   2.745   2.186   9.156  2.6877 -0.5273  2.0865
22887SOL     OW73980   6.608   2.407   1.388  0.3028  0.1434  0.1296
22887SOL    HW173981   6.569   2.490   1.361  1.5312  0.0058 -2.3741
22887SOL    HW273982   6.657   2.429   1.468  0.8638  1.9339 -0.6469
22888SOL     OW73983  11.389   4.286   4.823 -0.2043  0.2831  0.3484
22888SOL    HW173984  11.385   4.194   4.849 -0.7005  0.3131  0.3767
22888SOL    HW273985  11.398   4.334   4.906 -0.9215  0.3216  0.4090
22889SOL     OW73986   7.978   2.893   3.970  0.1663 -0.1912  0.3140
22889SOL    HW173987   7.887   2.900   3.943  0.1454  1.0664  0.6660
22889SOL    HW273988   7.991   2.966   4.031  1.4001 -0.3530  0.2684
22890SOL     OW73989   1.045   4.112   5.773 -0.4992 -0.0401  1.1413
22890SOL    HW173990   1.104   4.097   5.847  0.1509  1.4507  0.9577
22890SOL    HW273991   1.104   4.130   5.699 -1.1648  0.6372  0.7689
22891SOL     OW73992   6.263   4.821   0.617 -0.3622 -0.7784  0.0885
22891SOL    HW173993   6.348   4.784   0.594 -0.8003 -1.9875  0.3721
22891SOL    HW273994   6.256   4.899   0.562  0.5557 -1.1324 -0.5610
22892SOL     OW73995   6.187   9.560   6.611  0.3002 -0.1464  0.3771
22892SOL    HW173996   6.238   9.554   6.530  1.3484  2.1020  0.7961
22892SOL    HW273997   6.110   9.612   6.587 -0.6891 -1.5857  0.2911
22893SOL     OW73998   6.244   4.743   4.935  0.0341 -0.0240  0.1867
22893SOL    HW173999   6.274   4.775   5.020  1.2750  1.9386 -0.9187
22893SOL    HW274000   6.311   4.679   4.908 -1.2840 -2.0448  1.3902
22894SOL     OW74001   8.015   6.638   3.504 -0.3974  0.3533  0.0138
22894SOL    HW174002   8.033   6.577   3.576 -0.9840 -0.4526 -0.5007
22894SOL    HW274003   7.929   6.674   3.524 -0.6603 -0.0439 -0.3977
22895SOL     OW74004  10.315   8.593   2.053  0.9334  0.3615  0.1778
22895SOL    HW174005  10.241   8.586   1.993  2.7980 -0.8677 -2.1529
22895SOL    HW274006  10.303   8.676   2.098 -1.2529  0.7009 -0.9467
22896SOL     OW74007   7.998   4.325   0.427  0.0045  0.0286  0.4414
22896SOL    HW174008   7.995   4.252   0.366 -1.4191  0.4464 -0.0137
22896SOL    HW274009   8.088   4.358   0.420  0.4516 -1.2083  0.1188
22897SOL     OW74010   3.149   0.644   0.832  0.0738  0.1215  0.0806
22897SOL    HW174011   3.077   0.661   0.770 -0.5463  2.8937  1.3922
22897SOL    HW274012   3.147   0.550   0.846 -1.9395 -0.1502 -1.5522
22898SOL     OW74013   6.467   1.442   1.317 -0.2004 -0.1054 -0.2858
22898SOL    HW174014   6.438   1.364   1.270 -2.2345  1.3939 -1.6862
22898SOL    HW274015   6.392   1.468   1.370  1.2472 -0.3610  2.0503
22899SOL     OW74016   0.703   6.819   9.010  0.1838 -0.3675  0.0170
22899SOL    HW174017   0.638   6.885   9.035 -0.6727  0.4006 -3.6041
22899SOL    HW274018   0.787   6.864   9.018 -0.2498  0.6376 -0.8197
22900SOL     OW74019   1.647   5.679   8.268  0.1530 -0.6100 -0.0035
22900SOL    HW174020   1.577   5.720   8.319 -0.1479  0.1702 -1.0138
22900SOL    HW274021   1.602   5.636   8.196  0.7015 -0.1918 -0.6073
22901SOL     OW74022   4.128   5.340   0.144  0.3884 -0.4356 -0.0528
22901SOL    HW174023   4.217   5.333   0.110 -0.3179  0.7880 -2.3970
22901SOL    HW274024   4.106   5.433   0.135 -0.9439 -0.6230  0.9924
22902SOL     OW74025   2.239   7.665   2.559 -0.6271 -0.3623  0.2744
22902SOL    HW174026   2.236   7.760   2.553 -2.1002 -0.4295 -0.3540
22902SOL    HW274027   2.216   7.634   2.472 -0.5992 -1.3029  0.5866
22903SOL     OW74028   3.820   9.544  10.576  0.2884 -0.1281 -0.1196
22903SOL    HW174029   3.755   9.543  10.646  0.4492  1.9658  0.1152
22903SOL    HW274030   3.860   9.457  10.579 -1.8402 -1.1437  0.3309
22904SOL     OW74031   4.127   9.558   4.945 -0.3430  0.0313  0.2348
22904SOL    HW174032   4.067   9.548   5.019 -1.4530  1.3347 -0.4533
22904SOL    HW274033   4.124   9.651   4.924  0.1082 -0.2834 -1.3151
22905SOL     OW74034   3.901   8.523  11.313  0.7314  0.2027 -0.5519
22905SOL    HW174035   3.991   8.492  11.320  0.1632 -1.4387 -0.2291
22905SOL    HW274036   3.847   8.445  11.321 -0.7234  1.0789 -1.2953
22906SOL     OW74037   3.701   0.491   3.740 -0.0943 -0.2996  0.0656
22906SOL    HW174038   3.730   0.431   3.809 -2.1660 -0.3227  0.9775
22906SOL    HW274039   3.659   0.563   3.787 -2.9199 -1.0471 -1.1451
22907SOL     OW74040   0.003   4.808   7.570  0.2764  0.0400 -0.2549
22907SOL    HW174041   0.025   4.864   7.644 -0.4068  0.7006 -0.5349
22907SOL    HW274042   0.050   4.847   7.496 -0.5189  0.5037 -0.5303
22908SOL     OW74043   3.413   9.635  11.213  0.3275  0.3613  0.4446
22908SOL    HW174044   3.371   9.589  11.286  2.4939 -1.7626  0.4633
22908SOL    HW274045   3.501   9.600  11.210  0.0374 -0.5479 -3.9523
22909SOL     OW74046  10.094   0.247  10.154  0.0610 -0.5058  0.3959
22909SOL    HW174047  10.048   0.235  10.238  2.6720  0.7333  2.1235
22909SOL    HW274048  10.147   0.168  10.144 -2.0486 -1.8098 -1.4609
22910SOL     OW74049   8.587   0.891   3.401  0.9254 -0.6748 -0.2333
22910SOL    HW174050   8.495   0.906   3.421  1.5261  0.4869  1.9237
22910SOL    HW274051   8.595   0.796   3.392 -0.4072 -0.8091 -0.1322
22911SOL     OW74052   0.354   1.637   3.686  0.3274  0.3421 -0.0488
22911SOL    HW174053   0.375   1.556   3.638 -0.4029  0.8347 -1.2676
22911SOL    HW274054   0.364   1.706   3.621  0.4615  1.1800  0.8515
22912SOL     OW74055   7.039   9.289   0.688  0.2511  0.3331  0.5037
22912SOL    HW174056   6.992   9.216   0.649  2.3478 -0.8274 -0.0275
22912SOL    HW274057   6.973   9.357   0.699 -1.0278 -0.2002 -2.7041
22913SOL     OW74058   3.517  10.288   9.929  0.2145  0.3157  0.3791
22913SOL    HW174059   3.601  10.281   9.976 -0.1731  1.4707  1.2669
22913SOL    HW274060   3.451  10.271   9.996 -0.3554  2.1736  0.3220
22914SOL     OW74061   2.132   8.461   3.451  0.1647  0.5473 -0.9877
22914SOL    HW174062   2.204   8.427   3.505 -0.1172 -0.7015 -1.3629
22914SOL    HW274063   2.159   8.550   3.429  1.9637 -0.1255 -1.7152
22915SOL     OW74064   5.060  11.496   4.870  0.0015 -0.3659 -0.1868
22915SOL    HW174065   5.109  11.437   4.811  2.9216  1.3682  0.3025
22915SOL    HW274066   5.019  11.560   4.812  0.9159 -0.0401 -0.4887
22916SOL     OW74067   0.378   3.053   9.038 -0.7645  0.0216 -0.7591
22916SOL    HW174068   0.398   3.060   9.131  0.4174 -0.0794 -0.9877
22916SOL    HW274069   0.415   3.133   9.000  0.4372 -0.8096 -1.3926
22917SOL     OW74070   9.512   3.054   9.578 -0.2142 -0.1534  0.0488
22917SOL    HW174071   9.558   3.006   9.646 -2.4298  0.0003  1.7826
22917SOL    HW274072   9.579   3.075   9.513  1.9726 -0.4409  2.0929
22918SOL     OW74073   0.564   4.570   8.760  0.3070  0.0702  0.7420
22918SOL    HW174074   0.529   4.481   8.759  1.8187 -0.5518  0.5647
22918SOL    HW274075   0.597   4.583   8.672  2.4210 -0.1850  1.4473
22919SOL     OW74076   5.624   6.495   6.763  0.1500 -0.3261  0.2346
22919SOL    HW174077   5.568   6.426   6.799 -0.8142  1.6451  2.7830
22919SOL    HW274078   5.583   6.577   6.791  1.4256  1.3496 -2.3905
22920SOL     OW74079   2.550   8.254   7.172  0.1475  0.6175  0.6809
22920SOL    HW174080   2.621   8.272   7.233  1.8994 -0.6652 -0.8599
22920SOL    HW274081   2.510   8.339   7.154  0.3929  1.1780  2.6075
22921SOL     OW74082   4.874   3.141   3.670 -0.5516 -0.3945  0.4242
22921SOL    HW174083   4.908   3.053   3.683  1.3745  0.5099  2.0090
22921SOL    HW274084   4.944   3.187   3.624 -1.4286  0.4055 -0.1554
22922SOL     OW74085  11.724   5.560   8.737 -0.5149 -0.4965  0.4691
22922SOL    HW174086  11.776   5.564   8.818  0.5574  0.8675 -0.2463
22922SOL    HW274087  11.654   5.624   8.750  0.4302  0.7058 -0.1623
22923SOL     OW74088   2.562   7.959   0.675  0.2552 -0.1456  0.5744
22923SOL    HW174089   2.490   7.897   0.671  0.5088 -0.4225  0.2808
22923SOL    HW274090   2.630   7.915   0.727  0.4169 -0.0981  0.4059
22924SOL     OW74091  10.256  11.525   4.934 -0.0081 -0.5642  0.2461
22924SOL    HW174092  10.227  11.469   5.006  0.1345 -1.8175 -0.6296
22924SOL    HW274093  10.176  11.570   4.905 -0.6863 -2.2471 -0.6477
22925SOL     OW74094   3.739   1.883  10.821 -0.2387  0.4281 -0.3278
22925SOL    HW174095   3.644   1.879  10.833 -0.4933  1.4171 -1.7586
22925SOL    HW274096   3.761   1.975  10.838  0.5135  0.1492  0.2452
22926SOL     OW74097   1.607   0.551   8.540  0.5905 -0.2797 -0.0816
22926SOL    HW174098   1.514   0.534   8.552  0.7241 -0.0183  1.4425
22926SOL    HW274099   1.618   0.643   8.562  0.7028  0.6571 -3.4579
22927SOL     OW74100   9.062   0.296   0.440 -0.2515 -0.0164  0.4753
22927SOL    HW174101   9.046   0.213   0.486 -1.0048 -1.4346 -2.1722
22927SOL    HW274102   8.983   0.347   0.454 -0.7964 -0.7508  0.1435
22928SOL     OW74103   9.227   6.021   9.144  0.1211  0.2576 -1.0009
22928SOL    HW174104   9.274   6.051   9.066  1.5846  1.2485  0.2292
22928SOL    HW274105   9.212   5.927   9.127  3.9111 -0.5352 -0.8534
22929SOL     OW74106   1.238   9.265   1.792  0.2466  0.2821 -0.3512
22929SOL    HW174107   1.244   9.359   1.775  1.4014  0.9258  2.8629
22929SOL    HW274108   1.328   9.237   1.807 -0.3622 -0.2552  3.1447
22930SOL     OW74109   6.451   4.319   8.676  0.6472  0.0895  0.0611
22930SOL    HW174110   6.419   4.312   8.586 -0.3624 -0.5318  0.4440
22930SOL    HW274111   6.395   4.386   8.716  1.7521  1.0967 -0.0295
22931SOL     OW74112   9.979   3.856   7.099  0.1324 -0.2221 -0.0804
22931SOL    HW174113   9.933   3.934   7.130 -0.8439 -0.2657 -1.3197
22931SOL    HW274114  10.063   3.889   7.066  0.1824  0.1468  0.4066
22932SOL     OW74115   6.593   3.975   1.754 -0.3796 -0.2843 -0.4025
22932SOL    HW174116   6.629   3.935   1.675 -2.1799  1.9222 -2.5408
22932SOL    HW274117   6.541   3.906   1.795  0.6689 -1.5090 -1.0620
22933SOL     OW74118   9.124   9.828   6.769 -0.0856 -0.3645 -0.7943
22933SOL    HW174119   9.199   9.772   6.785 -0.5302 -1.1655 -1.4328
22933SOL    HW274120   9.142   9.869   6.684 -0.0462 -0.0077 -0.6170
22934SOL     OW74121   5.336   4.297   8.706  0.0549 -0.7051  0.1953
22934SOL    HW174122   5.411   4.289   8.647  0.9709 -1.4938  1.4219
22934SOL    HW274123   5.264   4.323   8.650  0.7573 -2.0094 -1.3721
22935SOL     OW74124  10.709   1.782   7.114 -0.3545 -0.1416  0.5091
22935SOL    HW174125  10.782   1.791   7.176  0.5608 -0.3586 -0.5007
22935SOL    HW274126  10.668   1.869   7.112  0.2461  0.1494  0.6625
22936SOL     OW74127  11.148   6.091   8.233 -0.1820 -0.0478  0.5649
22936SOL    HW174128  11.126   6.105   8.141 -0.1550 -2.2640  0.1768
22936SOL    HW274129  11.203   6.166   8.256  0.1853  0.3086 -1.3384
22937SOL     OW74130   2.214   8.932   1.085 -0.1063 -0.4792  0.0307
22937SOL    HW174131   2.118   8.929   1.080 -0.1605 -0.4626  0.9805
22937SOL    HW274132   2.236   8.874   1.158  0.5875 -0.1879  0.0563
22938SOL     OW74133  11.659   4.388   5.077  0.3808  0.1629  0.1064
22938SOL    HW174134  11.729   4.367   5.138 -0.1451  0.1014  0.6901
22938SOL    HW274135  11.578   4.374   5.126 -0.0893 -1.0537 -0.9438
22939SOL     OW74136  10.302   2.286   6.978  0.0628  0.4059 -0.5408
22939SOL    HW174137  10.308   2.352   6.909  1.2384  1.0996  0.1964
22939SOL    HW274138  10.286   2.204   6.930 -1.4647  1.1989 -1.4573
22940SOL     OW74139   6.467   8.367   9.222 -0.1451  0.4571  0.6925
22940SOL    HW174140   6.429   8.345   9.307 -0.8530  1.0842  0.5461
22940SOL    HW274141   6.487   8.283   9.181 -1.7270  0.0919  0.6094
22941SOL     OW74142  10.884   6.235   0.852 -0.2848  0.2986 -0.6005
22941SOL    HW174143  10.793   6.261   0.836  0.2697  2.6123 -0.2954
22941SOL    HW274144  10.899   6.258   0.944  0.6179 -0.0688 -0.6502
22942SOL     OW74145   8.872   1.955   5.830  0.4222  0.4913 -0.4802
22942SOL    HW174146   8.924   1.960   5.750  1.7083  1.4512  0.3798
22942SOL    HW274147   8.936   1.951   5.901 -0.6835 -0.4144  0.5204
22943SOL     OW74148   2.393   8.771   5.609 -0.0807  0.0559 -0.3789
22943SOL    HW174149   2.402   8.866   5.603 -1.0669  0.3126  1.4335
22943SOL    HW274150   2.474   8.742   5.652  0.8052 -0.1267 -2.0796
22944SOL     OW74151   0.740   6.770  11.307  0.0525 -0.4275  0.4650
22944SOL    HW174152   0.766   6.724  11.387 -1.3542 -0.9622  0.6388
22944SOL    HW274153   0.805   6.743  11.242  1.0586 -0.1920  1.3499
22945SOL     OW74154   2.934   7.940   9.755  0.7402  0.4726 -0.3766
22945SOL    HW174155   2.952   8.032   9.734  1.8496  0.7459  1.4998
22945SOL    HW274156   2.853   7.942   9.806  1.0624  0.5067  0.1484
22946SOL     OW74157   2.017  10.367   4.752  0.4461 -0.4287  0.3350
22946SOL    HW174158   2.003  10.273   4.752 -0.3519 -0.3297  0.9290
22946SOL    HW274159   2.069  10.384   4.831  0.9439 -0.4159  0.0049
22947SOL     OW74160   6.699   2.822   1.893 -0.2868 -0.1420 -0.3755
22947SOL    HW174161   6.788   2.787   1.899 -0.3243 -0.3642 -1.0849
22947SOL    HW274162   6.652   2.777   1.964 -0.2119 -1.1953 -0.9656
22948SOL     OW74163   1.117   8.133   3.875  0.0686 -0.5795  0.4698
22948SOL    HW174164   1.192   8.186   3.905 -0.2234 -0.6428  1.3287
22948SOL    HW274165   1.157   8.051   3.845  0.4602 -0.1373 -0.2319
22949SOL     OW74166  10.200   2.537   1.773  0.0260  0.3201  0.7641
22949SOL    HW174167  10.233   2.575   1.691 -1.1307 -0.8491 -0.2997
22949SOL    HW274168  10.268   2.475   1.800  0.0603  0.1290  0.2487
22950SOL     OW74169  11.673   9.475   3.128 -0.0885  0.6960 -0.7373
22950SOL    HW174170  11.753   9.524   3.111 -0.2121  1.5614  0.9448
22950SOL    HW274171  11.634   9.519   3.204  0.3063 -2.5818  1.5576
22951SOL     OW74172   7.139   6.679   3.645  0.1096 -0.0576  0.2602
22951SOL    HW174173   7.108   6.606   3.592 -1.1066 -0.5098  1.5360
22951SOL    HW274174   7.235   6.676   3.638  0.0117 -0.8005 -0.9421
22952SOL     OW74175   1.650   4.413   6.122 -0.4451  0.6720 -0.0773
22952SOL    HW174176   1.724   4.450   6.074 -1.0413  1.2776 -0.5377
22952SOL    HW274177   1.690   4.368   6.196  0.3298  1.9438  0.3102
22953SOL     OW74178   9.650   6.139   4.683 -1.0765 -0.4825  0.5786
22953SOL    HW174179   9.682   6.206   4.623  1.8534 -0.1600  2.3259
22953SOL    HW274180   9.588   6.186   4.740 -0.6097  0.2645  0.4926
22954SOL     OW74181   9.467   8.200   0.435  0.1169 -0.9014 -0.0863
22954SOL    HW174182   9.456   8.111   0.400  0.2684 -0.7254 -0.5935
22954SOL    HW274183   9.472   8.188   0.530 -2.7252 -1.1715  0.1009
22955SOL     OW74184   6.945  10.004   5.404 -0.0961 -0.2328  0.9070
22955SOL    HW174185   6.906   9.954   5.332  0.0520  0.0084  0.6531
22955SOL    HW274186   7.028   9.960   5.421 -0.1054 -0.2567  0.8907
22956SOL     OW74187   1.581   0.026   6.451  0.4439 -0.3642 -0.2258
22956SOL    HW174188   1.552  -0.038   6.516  0.7665 -0.7746 -0.4780
22956SOL    HW274189   1.582  -0.022   6.369  1.6784 -0.3429 -0.2513
22957SOL     OW74190   4.039   8.683   2.784 -0.3252 -0.2037 -0.4375
22957SOL    HW174191   4.009   8.659   2.696 -0.6021 -0.8997 -0.1630
22957SOL    HW274192   3.963   8.726   2.824 -0.2370  0.0101 -0.5009
22958SOL     OW74193   8.698   1.753   7.884 -0.1493 -0.2977 -0.1358
22958SOL    HW174194   8.738   1.679   7.837  0.5661 -0.3257  0.4909
22958SOL    HW274195   8.669   1.812   7.815  0.2383 -0.6751 -0.6311
22959SOL     OW74196  11.203   4.181   5.930  0.5766  0.0693  0.3959
22959SOL    HW174197  11.122   4.146   5.894  0.4615  0.6969  0.0295
22959SOL    HW274198  11.182   4.272   5.954  0.8050 -0.1548  1.5291
22960SOL     OW74199   8.620   6.018   3.050 -0.4053 -0.2160  0.0132
22960SOL    HW174200   8.636   5.955   3.121  1.4028  0.3323  0.1158
22960SOL    HW274201   8.531   5.996   3.020  0.2418 -3.0352 -0.1799
22961SOL     OW74202  10.262   9.107   0.966 -0.3662  0.0564  0.1582
22961SOL    HW174203  10.289   9.179   1.023  0.7843 -0.3962  0.2164
22961SOL    HW274204  10.217   9.149   0.893 -0.6975  0.7422  0.7472
22962SOL     OW74205   8.305   2.685   6.215  0.4200 -0.0750 -0.4457
22962SOL    HW174206   8.387   2.638   6.233  1.6071 -0.1123 -4.7045
22962SOL    HW274207   8.260   2.631   6.150 -1.4379  1.4946 -0.5664
22963SOL     OW74208   8.005   3.055   1.515 -0.1659  0.7919  0.7105
22963SOL    HW174209   7.969   2.986   1.570  0.0124  1.1035  1.2227
22963SOL    HW274210   8.092   3.072   1.552  0.1782  0.6209 -0.0007
22964SOL     OW74211   6.620   5.041  11.758 -0.2986  0.0101  0.1135
22964SOL    HW174212   6.584   5.095  11.829  0.7603  1.6338 -0.5148
22964SOL    HW274213   6.557   4.969  11.748 -0.7433  0.0307  2.3085
22965SOL     OW74214   0.201   7.483  10.581  0.2802  0.1087  0.0913
22965SOL    HW174215   0.184   7.389  10.579  1.4770 -0.2532  2.7415
22965SOL    HW274216   0.140   7.517  10.647 -0.6872  1.3960 -1.3682
22966SOL     OW74217   4.725   7.239   8.945 -0.3371 -0.4625  0.2281
22966SOL    HW174218   4.644   7.290   8.945  0.2817  0.5346  0.0499
22966SOL    HW274219   4.790   7.298   8.982  0.0192 -1.7388  1.7719
22967SOL     OW74220   1.611   8.496   3.992  0.1415 -0.2589  0.3812
22967SOL    HW174221   1.545   8.566   3.992  1.1982  0.7544 -0.2817
22967SOL    HW274222   1.600   8.452   3.908  1.9337  1.5186 -0.8571
22968SOL     OW74223   4.449   0.915   5.859  0.1004 -0.2687  0.3402
22968SOL    HW174224   4.393   0.852   5.813  0.0720 -0.2540  0.3548
22968SOL    HW274225   4.399   0.940   5.936 -0.1770  0.2943 -0.0179
22969SOL     OW74226   2.280   9.648   4.620  0.3953  0.3733 -0.3691
22969SOL    HW174227   2.215   9.704   4.663 -1.4039 -0.6213 -1.6789
22969SOL    HW274228   2.266   9.562   4.658  0.8830  0.1253 -0.7512
22970SOL     OW74229   8.449   0.395   5.551  0.2478  0.0373  0.0918
22970SOL    HW174230   8.464   0.369   5.460  0.3513  0.2275  0.0531
22970SOL    HW274231   8.469   0.316   5.602  3.0704  0.6940  0.1757
22971SOL     OW74232   5.634   6.725   2.091  0.3228 -0.0747  0.0308
22971SOL    HW174233   5.560   6.735   2.150 -0.6819 -1.6544 -0.8936
22971SOL    HW274234   5.688   6.657   2.132  0.4928  0.0124 -0.0470
22972SOL     OW74235   5.449  10.977   6.047 -0.1895  0.4771  0.8330
22972SOL    HW174236   5.528  11.026   6.070  0.5507 -0.3634  0.1488
22972SOL    HW274237   5.480  10.889   6.025 -1.4779 -0.2840  1.9226
22973SOL     OW74238   7.801   0.429   8.185  0.2603 -0.1287 -0.5314
22973SOL    HW174239   7.868   0.416   8.118 -0.0510 -0.2586 -0.8229
22973SOL    HW274240   7.809   0.353   8.243  0.2613 -0.2209 -0.6532
22974SOL     OW74241   3.504   0.417   5.941 -0.1108  0.1157  0.5293
22974SOL    HW174242   3.600   0.425   5.942 -0.0967  0.1224 -0.3613
22974SOL    HW274243   3.473   0.499   5.904 -0.6770  1.5676  3.8240
22975SOL     OW74244  10.589   0.913   9.498  0.0379 -0.0284 -0.4853
22975SOL    HW174245  10.582   0.840   9.560  2.3668  2.4079  3.0218
22975SOL    HW274246  10.644   0.878   9.427 -1.5677 -2.5372 -0.6239
22976SOL     OW74247   8.395   8.030   5.646 -0.2796 -0.3380  0.2645
22976SOL    HW174248   8.421   8.022   5.738 -0.1768  0.5331  0.3175
22976SOL    HW274249   8.464   7.984   5.598  1.6145  2.1127  0.3846
22977SOL     OW74250   1.271   9.703  10.567  0.0941 -0.3266 -0.3487
22977SOL    HW174251   1.332   9.629  10.575  0.7329  0.1677 -0.4982
22977SOL    HW274252   1.188   9.663  10.542  0.8593 -0.8496 -2.2057
22978SOL     OW74253   1.865  11.159   5.739 -0.7651 -0.9294  0.2649
22978SOL    HW174254   1.786  11.169   5.687 -0.5363 -0.6603 -0.0369
22978SOL    HW274255   1.904  11.077   5.708 -0.1703 -0.3299 -0.6220
22979SOL     OW74256   2.122   8.712   3.318 -0.1415 -0.1796  0.5400
22979SOL    HW174257   2.071   8.784   3.279 -0.2994 -0.6408 -0.1293
22979SOL    HW274258   2.213   8.738   3.307 -0.1627 -0.5725 -0.7106
22980SOL     OW74259   4.353   5.952   0.178 -0.4573 -0.1672  0.2327
22980SOL    HW174260   4.367   6.013   0.106 -3.0276 -1.2560 -1.3507
22980SOL    HW274261   4.334   5.869   0.135 -2.9104 -0.6710  2.0783
22981SOL     OW74262   1.229   1.588   9.194 -0.7252  0.2824  0.7473
22981SOL    HW174263   1.133   1.584   9.201 -0.6415  0.4283  2.3428
22981SOL    HW274264   1.246   1.581   9.100 -2.2515 -0.7550  0.5058
22982SOL     OW74265   5.002   9.802   5.193  0.1614  0.0616 -0.1189
22982SOL    HW174266   5.067   9.872   5.193  0.8121 -0.5189  0.7562
22982SOL    HW274267   5.054   9.721   5.192 -0.5639 -0.4073 -0.3684
22983SOL     OW74268   1.537   1.686   8.565  0.0767  0.1213  0.0627
22983SOL    HW174269   1.570   1.608   8.609  0.8563  1.1246  1.3507
22983SOL    HW274270   1.614   1.722   8.520 -0.2516  0.2031 -0.4377
22984SOL     OW74271   4.770   7.880  10.735 -0.1526 -0.0971  0.2697
22984SOL    HW174272   4.847   7.895  10.791  0.1433 -1.0068  0.1158
22984SOL    HW274273   4.706   7.839  10.793 -0.9826  1.6960  0.7032
22985SOL     OW74274  10.746   7.255   9.981 -0.0310 -0.7866 -0.2021
22985SOL    HW174275  10.817   7.311   9.951 -1.5214  1.6129  0.4442
22985SOL    HW274276  10.670   7.314   9.987 -1.2494 -2.4399  2.4228
22986SOL     OW74277   7.266  11.633   9.960 -1.1515 -0.2487 -0.2772
22986SOL    HW174278   7.325  11.617  10.034  2.0909  3.2498 -1.7704
22986SOL    HW274279   7.182  11.653  10.000  0.0286 -0.2097  2.3774
22987SOL     OW74280   8.132   2.515  11.002  0.4244 -0.1008 -0.3830
22987SOL    HW174281   8.173   2.572  11.068  0.1013 -1.2700  0.8728
22987SOL    HW274282   8.192   2.518  10.928 -0.3061  3.0391 -0.9907
22988SOL     OW74283   8.832   7.780   5.706  0.1518  0.4695  0.3902
22988SOL    HW174284   8.865   7.785   5.617  0.0572 -0.8455  0.2574
22988SOL    HW274285   8.737   7.772   5.696 -0.1661  3.1543  0.7301
22989SOL     OW74286   4.714  11.344   2.137 -0.5181 -0.2794  0.3854
22989SOL    HW174287   4.727  11.265   2.190 -0.3726 -0.9211 -0.5872
22989SOL    HW274288   4.619  11.357   2.138 -0.8543 -2.0514 -1.6416
22990SOL     OW74289   9.712   5.760   2.002  0.1142  0.0883  0.0765
22990SOL    HW174290   9.666   5.709   1.936  0.1168  0.3790 -0.1554
22990SOL    HW274291   9.792   5.711   2.019  0.2221  0.1273 -0.3071
22991SOL     OW74292   9.548   4.003   4.037  1.0632  0.3691  0.1931
22991SOL    HW174293   9.523   3.976   4.126  0.8447  1.1070  0.3624
22991SOL    HW274294   9.541   3.923   3.985 -2.8584  0.6937 -0.0321
22992SOL     OW74295   5.214   0.072   5.024  0.3423  0.8381 -0.0814
22992SOL    HW174296   5.246  -0.002   4.973 -0.0416  1.7252 -1.6563
22992SOL    HW274297   5.276   0.142   5.008 -0.8460  1.7271 -0.9379
22993SOL     OW74298   5.231   1.455   4.784 -0.0183 -0.2558  0.0070
22993SOL    HW174299   5.316   1.411   4.787  0.4082  0.5500  2.3557
22993SOL    HW274300   5.250   1.540   4.745 -0.1513 -0.7963 -1.2667
22994SOL     OW74301   6.538   1.397   8.162  0.5160 -0.5535  0.3568
22994SOL    HW174302   6.591   1.444   8.097 -0.8725  0.1913 -0.2889
22994SOL    HW274303   6.545   1.305   8.138  2.1513 -0.5676  0.7884
22995SOL     OW74304  10.150  10.213   9.764  0.2451 -0.0689 -0.1703
22995SOL    HW174305  10.083  10.234   9.829  0.6213  0.6664 -0.0093
22995SOL    HW274306  10.156  10.118   9.767 -2.4824 -0.4111 -1.9028
22996SOL     OW74307   8.192  11.114   8.596  0.5058  0.7812  0.5023
22996SOL    HW174308   8.213  11.196   8.551  1.2375  0.3266 -0.0197
22996SOL    HW274309   8.275  11.065   8.594  0.7707  1.0346  2.9740
22997SOL     OW74310   0.184  11.067   8.892  0.3552 -0.5718 -0.5182
22997SOL    HW174311   0.104  11.015   8.889  0.0082 -0.0234 -1.0730
22997SOL    HW274312   0.254  11.003   8.904  0.1009 -1.3537 -2.7799
22998SOL     OW74313  10.780   8.597   9.334  0.3651  0.0985  0.7261
22998SOL    HW174314  10.754   8.641   9.415 -1.8784  0.2750 -0.0195
22998SOL    HW274315  10.801   8.507   9.361  0.8401  0.4755  1.6553
22999SOL     OW74316   7.608   7.566   5.792 -0.2485  0.2647  0.1326
22999SOL    HW174317   7.532   7.522   5.830 -0.2940  0.8306  0.7244
22999SOL    HW274318   7.680   7.545   5.853 -0.3306  1.2154  0.5696
23000SOL     OW74319   5.521   8.291   1.502  0.3734 -0.0393 -0.0942
23000SOL    HW174320   5.447   8.341   1.469  0.9094  0.7238 -0.1723
23000SOL    HW274321   5.597   8.325   1.454  0.9420  0.0235  0.8106
23001SOL     OW74322   4.920   3.816   1.771  0.2733 -0.3393  0.1233
23001SOL    HW174323   4.974   3.893   1.749  0.8577 -0.5272  0.8542
23001SOL    HW274324   4.952   3.789   1.856  0.6983 -1.9530 -0.5164
23002SOL     OW74325   4.606   2.383   4.215  0.2076 -0.0664  0.1197
23002SOL    HW174326   4.612   2.337   4.299  2.4162  0.9181  0.5776
23002SOL    HW274327   4.674   2.344   4.161  0.0991  0.6167 -0.5376
23003SOL     OW74328   6.763   5.613   6.402 -0.1824 -0.4166 -0.3678
23003SOL    HW174329   6.822   5.680   6.369 -0.7132  0.1579 -0.1652
23003SOL    HW274330   6.684   5.660   6.426 -0.7256 -1.1726 -0.6220
23004SOL     OW74331   2.320   0.011   0.134  0.3496  0.3134  0.7573
23004SOL    HW174332   2.367  -0.054   0.082 -0.6658  0.3250 -0.2079
23004SOL    HW274333   2.374   0.022   0.213  0.0622 -2.3647  1.4027
23005SOL     OW74334   0.757  11.267   9.481  0.6458 -0.4178  0.3473
23005SOL    HW174335   0.777  11.197   9.544 -0.1564 -0.8883  0.0953
23005SOL    HW274336   0.713  11.334   9.533 -0.6926 -1.1334  0.1671
23006SOL     OW74337   4.166   1.781   2.765  0.2114 -0.6864 -0.2351
23006SOL    HW174338   4.160   1.686   2.755 -0.6914 -0.8844  1.7277
23006SOL    HW274339   4.253   1.796   2.802 -0.1378 -0.8963  0.6908
23007SOL     OW74340   6.647   3.751   0.819 -0.7707  0.3197  0.5828
23007SOL    HW174341   6.580   3.820   0.825 -2.9690 -1.5702 -0.3397
23007SOL    HW274342   6.602   3.672   0.848  1.3901 -0.9096  0.7678
23008SOL     OW74343   4.364   5.626   8.400  0.5441 -0.3791 -0.1225
23008SOL    HW174344   4.406   5.638   8.485 -0.9805  1.2340  0.4654
23008SOL    HW274345   4.434   5.636   8.336  1.3425  0.5700  0.8775
23009SOL     OW74346   4.711  11.426   7.552 -0.4245 -0.1826 -0.3277
23009SOL    HW174347   4.707  11.331   7.537  0.7935 -0.1756 -0.8073
23009SOL    HW274348   4.794  11.453   7.513 -0.3181  0.9438  0.6268
23010SOL     OW74349   0.996   3.330  10.677  0.4009  0.5924 -0.1145
23010SOL    HW174350   0.977   3.402  10.617  1.4370  2.1176  1.3054
23010SOL    HW274351   0.943   3.348  10.755 -0.4261 -0.9921 -0.2675
23011SOL     OW74352   3.811  10.216   1.656 -0.5112 -0.0384  0.3784
23011SOL    HW174353   3.741  10.200   1.592 -1.3150  0.3789  1.1283
23011SOL    HW274354   3.875  10.269   1.609 -1.7619  1.4751  0.3160
23012SOL     OW74355   5.908   5.318   8.630  0.0485 -0.1737 -0.7087
23012SOL    HW174356   5.934   5.240   8.581  1.0544  0.0290 -0.5108
23012SOL    HW274357   5.878   5.284   8.715  0.3863 -0.3500 -0.6607
23013SOL     OW74358   2.585   7.883   8.265  0.3630  0.0845  0.0131
23013SOL    HW174359   2.663   7.922   8.304 -0.5901  0.8438  1.2397
23013SOL    HW274360   2.518   7.951   8.274  0.2899  0.7242 -3.9177
23014SOL     OW74361   0.571   9.889  10.958 -0.3992  0.2811  0.6312
23014SOL    HW174362   0.525   9.887  11.041  0.5691 -0.0603  1.1764
23014SOL    HW274363   0.660   9.862  10.979 -0.3693 -0.7305 -0.6696
23015SOL     OW74364   1.520   3.028   4.323  0.3692 -0.0612  0.1552
23015SOL    HW174365   1.566   3.080   4.389  1.4975 -1.7780  0.7899
23015SOL    HW274366   1.490   2.951   4.371  0.6715 -1.0460 -1.2005
23016SOL     OW74367   1.471   6.186   8.068  0.4890 -0.2108 -0.1518
23016SOL    HW174368   1.383   6.164   8.097  1.1548 -1.5755  0.9839
23016SOL    HW274369   1.459   6.256   8.003 -1.3646 -0.0382  0.3314
23017SOL     OW74370  10.177   9.217   7.662 -0.8111  0.2791  0.3743
23017SOL    HW174371  10.155   9.189   7.574  1.4519  1.1842 -0.5547
23017SOL    HW274372  10.238   9.150   7.693 -0.8958  0.4461  0.9122
23018SOL     OW74373   0.614   9.807   6.251  0.0419  0.0436  0.1353
23018SOL    HW174374   0.611   9.801   6.156 -2.8214  0.5796  0.1154
23018SOL    HW274375   0.638   9.898   6.269  1.8454 -0.3573  0.0171
23019SOL     OW74376   7.671   6.215   5.523  0.2980 -1.0961  0.2406
23019SOL    HW174377   7.696   6.145   5.462  0.7471 -1.5309  0.8960
23019SOL    HW274378   7.591   6.252   5.486  1.4018 -0.2938 -1.4413
23020SOL     OW74379   5.142   1.717  10.755 -0.0013 -0.0155  0.4642
23020SOL    HW174380   5.105   1.774  10.822  0.5856  1.2901 -0.2683
23020SOL    HW274381   5.069   1.697  10.698 -0.2244 -0.0150  0.7500
23021SOL     OW74382   3.459   0.215   3.056  0.3292  0.3952  0.4188
23021SOL    HW174383   3.512   0.234   3.133  0.1510 -1.2315  0.9676
23021SOL    HW274384   3.370   0.206   3.090  0.1893  0.0352 -0.0333
23022SOL     OW74385   5.936   0.779   5.848  0.0345 -0.5439 -0.7150
23022SOL    HW174386   5.984   0.752   5.926 -2.0307 -0.0421  0.8331
23022SOL    HW274387   5.971   0.725   5.778  2.3474 -0.6411  0.4359
23023SOL     OW74388   2.335   7.052   9.450 -0.0814  0.5770  0.2199
23023SOL    HW174389   2.313   6.959   9.460  1.2173  0.1171 -0.8566
23023SOL    HW274390   2.273   7.084   9.385  0.4003  0.0776 -0.5000
23024SOL     OW74391   2.802   6.501   2.779 -0.3953 -0.0806 -0.0997
23024SOL    HW174392   2.891   6.500   2.814 -0.5962 -0.9443  0.4305
23024SOL    HW274393   2.807   6.559   2.702  0.5540  0.0972  0.0779
23025SOL     OW74394   5.098   5.796   5.170  0.3862  0.8868 -0.3372
23025SOL    HW174395   5.112   5.702   5.186 -2.3807  0.7650  2.3236
23025SOL    HW274396   5.179   5.837   5.202  0.7599 -0.4686  0.5791
23026SOL     OW74397   6.492   2.713   4.937 -0.7536  0.1259  0.0532
23026SOL    HW174398   6.498   2.634   4.883 -0.4136  0.0426  0.2117
23026SOL    HW274399   6.410   2.704   4.985 -1.1806  0.3079 -0.6201
23027SOL     OW74400   8.660   0.554   3.139  0.3180  0.0406 -0.8628
23027SOL    HW174401   8.752   0.572   3.156  0.1653  0.3380 -0.3406
23027SOL    HW274402   8.655   0.458   3.134  0.8487  0.0588 -2.0381
23028SOL     OW74403   8.800   2.070   9.446 -0.4935 -0.1235 -0.2649
23028SOL    HW174404   8.891   2.101   9.438 -0.1212 -0.4475  1.9666
23028SOL    HW274405   8.750   2.129   9.391  0.7051  2.0366  0.8263
23029SOL     OW74406   5.506  10.532   5.044 -0.1415  0.2913  0.4039
23029SOL    HW174407   5.545  10.608   5.087 -1.5988  1.0421  0.4484
23029SOL    HW274408   5.416  10.559   5.024 -0.3624 -1.0520 -0.5362
23030SOL     OW74409   0.942   2.332   6.044  0.2156  0.3969 -0.2217
23030SOL    HW174410   0.873   2.333   6.110  2.0943 -1.0588  1.8946
23030SOL    HW274411   0.928   2.250   5.996 -0.0067  0.5268 -0.3847
23031SOL     OW74412   7.127   1.491   4.303  0.3703  0.1202 -0.0952
23031SOL    HW174413   7.117   1.435   4.226  1.1931  0.4743 -0.4776
23031SOL    HW274414   7.115   1.580   4.269 -2.8129  0.1553  0.8263
23032SOL     OW74415   3.221  11.206  11.351 -0.3992 -0.3663  0.5495
23032SOL    HW174416   3.280  11.264  11.399 -0.7533 -0.1218  0.6931
23032SOL    HW274417   3.242  11.118  11.384  0.0791 -0.3136  0.3929
23033SOL     OW74418   2.752   3.299   0.635 -0.2677 -0.5967 -0.7500
23033SOL    HW174419   2.741   3.309   0.730 -1.5052  0.4840 -0.9677
23033SOL    HW274420   2.810   3.372   0.610 -0.6423 -0.3590 -0.9327
23034SOL     OW74421   6.887   2.889  11.195 -0.0419  0.2415 -0.1487
23034SOL    HW174422   6.915   2.804  11.159 -2.0862 -1.1717  1.3477
23034SOL    HW274423   6.915   2.953  11.129  0.8131 -1.6704 -1.7607
23035SOL     OW74424   5.363   4.605   6.810 -0.0126  0.3669  0.0287
23035SOL    HW174425   5.416   4.527   6.824  1.0374  1.1504  0.5952
23035SOL    HW274426   5.407   4.652   6.739  0.3188  1.2175  0.7679
23036SOL     OW74427   2.722   8.823   0.507  0.5730 -0.0654  0.1568
23036SOL    HW174428   2.673   8.742   0.520  0.4839 -0.4686 -2.2492
23036SOL    HW274429   2.806   8.794   0.472  0.6320  0.8711 -0.5098
23037SOL     OW74430   7.040  10.517   8.012  0.1437 -0.2637  0.3079
23037SOL    HW174431   7.128  10.552   8.029  0.7717 -1.5336 -0.1220
23037SOL    HW274432   7.002  10.577   7.948  0.5104  0.5652  0.8487
23038SOL     OW74433   6.416   3.056   7.042 -0.4560 -0.3282 -0.3094
23038SOL    HW174434   6.496   3.013   7.012 -0.7563  0.2640 -2.0589
23038SOL    HW274435   6.363   3.066   6.963 -0.6873  2.6501  0.1103
23039SOL     OW74436   6.433   7.436  11.613  0.7128 -0.3766 -0.0139
23039SOL    HW174437   6.433   7.477  11.699  2.8905 -1.7047  0.7123
23039SOL    HW274438   6.464   7.504  11.554 -1.2008  0.6754  0.1236
23040SOL     OW74439   8.518   9.842   2.429  0.2272  0.6800  0.3254
23040SOL    HW174440   8.512   9.910   2.362  1.5855  0.6384  0.1456
23040SOL    HW274441   8.556   9.887   2.505 -0.8749  0.6182  0.9389
23041SOL     OW74442  11.774   3.130   6.143  0.4395 -0.1953  0.3319
23041SOL    HW174443  11.759   3.046   6.099  3.1928 -1.4847  1.5839
23041SOL    HW274444  11.805   3.106   6.230  2.9543  2.0442  0.1673
23042SOL     OW74445   7.224   7.441  10.678  0.1730  0.0821  0.1094
23042SOL    HW174446   7.260   7.368  10.627 -0.7195  0.8331 -1.6685
23042SOL    HW274447   7.156   7.401  10.733  0.0650 -0.4979 -0.4379
23043SOL     OW74448   4.171   2.317   5.676 -0.1934  0.0312 -0.0692
23043SOL    HW174449   4.233   2.356   5.615 -1.9333  0.8074 -1.4535
23043SOL    HW274450   4.225   2.273   5.741  1.7657 -0.1078 -1.6988
23044SOL     OW74451  10.428   5.241   4.139  0.1196  0.7226 -0.5329
23044SOL    HW174452  10.360   5.188   4.181  0.3517  0.9870  0.1889
23044SOL    HW274453  10.380   5.312   4.096 -0.3010 -0.5761 -2.3795
23045SOL     OW74454   7.036   9.875   2.311 -0.3646 -0.2741  0.2366
23045SOL    HW174455   7.049   9.909   2.400  1.3493 -2.8923  1.0846
23045SOL    HW274456   6.947   9.840   2.312 -0.9346  1.0938  0.3672
23046SOL     OW74457   2.112   0.942   6.032 -0.3327 -0.1916 -0.1284
23046SOL    HW174458   2.154   0.871   5.986 -0.8146 -0.6145  0.0764
23046SOL    HW274459   2.136   0.929   6.124  0.5279  0.5776 -0.2233
23047SOL     OW74460  11.530   4.745   0.840 -0.1826 -0.9886  0.0847
23047SOL    HW174461  11.453   4.799   0.857  0.7402  0.6348 -0.7358
23047SOL    HW274462  11.495   4.655   0.837 -1.9463 -0.3487  0.2722
23048SOL     OW74463   2.526   7.142   7.064  0.4865 -0.3827  0.5335
23048SOL    HW174464   2.440   7.115   7.095  0.9692 -1.8494  0.6558
23048SOL    HW274465   2.546   7.081   6.993  0.4023  1.4666 -1.1890
23049SOL     OW74466   9.533   9.389   2.611 -0.0697  0.3811 -0.4948
23049SOL    HW174467   9.533   9.296   2.637 -0.8803  0.0805 -1.4976
23049SOL    HW274468   9.605   9.396   2.549 -0.4112  0.2769 -0.9032
23050SOL     OW74469   1.235   7.686   6.513 -1.0235  0.0752 -0.2424
23050SOL    HW174470   1.232   7.732   6.429 -0.8742 -1.9832 -1.4417
23050SOL    HW274471   1.327   7.689   6.539 -0.9991  0.3476 -0.3592
23051SOL     OW74472   6.133   3.908   0.370 -0.0452  0.3688  0.2513
23051SOL    HW174473   6.211   3.887   0.422 -0.4303  0.6606  0.9577
23051SOL    HW274474   6.082   3.966   0.426 -1.5497 -1.0666  0.4532
23052SOL     OW74475  11.692   6.115   9.296 -0.2082  0.2707  0.0091
23052SOL    HW174476  11.655   6.059   9.228 -1.2026 -0.4320  1.0896
23052SOL    HW274477  11.785   6.124   9.273 -0.8680  1.7116 -2.5427
23053SOL     OW74478   9.550   0.648   9.033  0.2042 -0.2353 -0.5944
23053SOL    HW174479   9.459   0.678   9.037 -0.2414 -1.2239 -2.0940
23053SOL    HW274480   9.565   0.633   8.939  2.3505  1.1374 -0.5295
23054SOL     OW74481  10.026   7.786  10.571  0.2503  0.2887 -0.0776
23054SOL    HW174482  10.054   7.851  10.634 -0.7204  0.6335  0.0179
23054SOL    HW274483   9.941   7.818  10.539  0.6649  0.0716 -1.4774
23055SOL     OW74484   8.558   0.757   4.984  0.3354 -0.2847  0.2506
23055SOL    HW174485   8.562   0.796   5.072 -3.0172 -1.3250  1.0111
23055SOL    HW274486   8.505   0.819   4.933 -0.9863 -1.5150  0.0994
23056SOL     OW74487  10.658  11.647   6.068 -0.4873 -0.2209  0.3397
23056SOL    HW174488  10.600  11.698   6.011 -0.8462  0.7687  1.5589
23056SOL    HW274489  10.744  11.653   6.025 -0.8583  0.0177 -0.3962
23057SOL     OW74490   8.050   4.396  11.016 -0.0262  0.4688 -0.3939
23057SOL    HW174491   8.108   4.320  11.018 -2.1747 -1.4609 -3.2540
23057SOL    HW274492   8.041   4.417  10.923 -3.2977  1.0462 -0.0795
23058SOL     OW74493   3.927   7.302   6.505  0.4279  0.1736  0.5213
23058SOL    HW174494   4.021   7.288   6.505  0.6123  1.2725 -0.2742
23058SOL    HW274495   3.912   7.369   6.571  0.1769 -0.1458  0.7913
23059SOL     OW74496  10.381   3.839   0.901  0.5390  0.6394 -0.1155
23059SOL    HW174497  10.308   3.805   0.850  0.6561 -0.0412  0.1628
23059SOL    HW274498  10.458   3.822   0.846  0.8235 -1.2510  0.7915
23060SOL     OW74499   5.534   4.005  10.343  0.1991 -0.8517 -0.1153
23060SOL    HW174500   5.611   4.061  10.335 -1.0212  0.8737 -0.4067
23060SOL    HW274501   5.555   3.945  10.414  1.4558  0.2086  0.4529
23061SOL     OW74502  10.083   8.829   1.743  0.1616 -0.0183  0.3251
23061SOL    HW174503   9.996   8.856   1.712  0.1012  1.5372  1.6828
23061SOL    HW274504  10.088   8.864   1.832  2.7410  1.2367 -0.2203
23062SOL     OW74505   6.504   6.167   6.408  0.0732 -0.6179  0.3411
23062SOL    HW174506   6.412   6.148   6.428 -0.1247 -0.8811 -0.7178
23062SOL    HW274507   6.506   6.171   6.312  1.1558 -0.5408  0.3607
23063SOL     OW74508   8.203  10.517   8.812  0.0411  0.3041  0.5890
23063SOL    HW174509   8.286  10.478   8.783 -0.2956  0.4498 -0.5839
23063SOL    HW274510   8.163  10.552   8.733 -1.1939  0.1747  1.1343
23064SOL     OW74511   5.140   9.806   3.224 -1.1782 -0.0002 -0.3411
23064SOL    HW174512   5.198   9.801   3.148 -0.5366  0.9886  0.0684
23064SOL    HW274513   5.193   9.846   3.292 -1.7153 -0.9532  0.6692
23065SOL     OW74514   0.461   2.347   1.835 -0.4517 -0.1011 -0.0287
23065SOL    HW174515   0.505   2.285   1.893  1.4976  0.6309 -0.6243
23065SOL    HW274516   0.468   2.309   1.748 -0.6011  0.2368 -0.1915
23066SOL     OW74517   1.577  11.607   0.962 -0.0136 -0.1635  0.2819
23066SOL    HW174518   1.667  11.585   0.987  0.2905  0.7462  0.0017
23066SOL    HW274519   1.533  11.522   0.955  0.6436 -0.5835  1.0755
23067SOL     OW74520  11.016   4.852   8.485  0.7288  0.0438  0.2385
23067SOL    HW174521  11.036   4.908   8.410 -1.0534 -0.1905 -0.4751
23067SOL    HW274522  10.969   4.778   8.448  0.2554 -0.3369  1.5248
23068SOL     OW74523   0.430  10.153   1.691  0.0661  0.5861  0.1012
23068SOL    HW174524   0.525  10.150   1.680 -0.0021 -0.0795 -0.3795
23068SOL    HW274525   0.405  10.061   1.705 -0.7601  0.4057 -2.0892
23069SOL     OW74526   6.180   7.543   8.708  0.2396  0.1268 -0.0600
23069SOL    HW174527   6.171   7.504   8.621  0.3146  0.8769 -0.4069
23069SOL    HW274528   6.157   7.472   8.768 -3.0623  0.4313 -0.7507
23070SOL     OW74529   6.241   8.611   5.882  0.4256  0.1149  0.4797
23070SOL    HW174530   6.282   8.538   5.838  0.6722  1.8274 -2.3551
23070SOL    HW274531   6.148   8.587   5.888 -0.1630  0.7263 -3.4360
23071SOL     OW74532  10.809   1.344   9.202  0.2121  0.1581  0.1437
23071SOL    HW174533  10.719   1.322   9.177  0.0611 -0.3358  1.0681
23071SOL    HW274534  10.848   1.259   9.225  0.5853  0.4931  0.7628
23072SOL     OW74535  11.233  10.628   0.728  0.2934  0.1273  0.3547
23072SOL    HW174536  11.166  10.606   0.664  0.4125  0.6265  0.0562
23072SOL    HW274537  11.271  10.543   0.753  0.3141 -0.0596 -0.3064
23073SOL     OW74538  10.872   3.571   5.399  0.1695 -0.1097 -0.1079
23073SOL    HW174539  10.847   3.607   5.484 -0.2807 -0.9083  0.1121
23073SOL    HW274540  10.929   3.637   5.360  0.2406  0.3387  0.7435
23074SOL     OW74541   2.643  11.731   9.271 -0.5436 -0.1232  0.5075
23074SOL    HW174542   2.621  11.663   9.207  1.1935 -0.0115 -0.2807
23074SOL    HW274543   2.707  11.785   9.226  1.5996 -0.6789  2.6826
23075SOL     OW74544   6.937  10.882  10.952  0.0515  0.5541  0.3391
23075SOL    HW174545   7.028  10.867  10.977 -0.0682  0.9991  1.0879
23075SOL    HW274546   6.888  10.876  11.035 -0.4378  1.4990  0.1442
23076SOL     OW74547   1.707   4.403   9.908  0.4848  0.0111 -0.0266
23076SOL    HW174548   1.646   4.428   9.839  0.6643 -0.3874 -0.3324
23076SOL    HW274549   1.757   4.330   9.872  0.6887 -0.1030  0.4656
23077SOL     OW74550   4.815   5.519   7.820  0.4833 -0.1644  0.6082
23077SOL    HW174551   4.863   5.530   7.902  0.6015  2.5434  0.2697
23077SOL    HW274552   4.882   5.497   7.756  0.6392 -0.5779  0.9063
23078SOL     OW74553   1.493   4.764  11.705 -0.0526  0.0579  0.1640
23078SOL    HW174554   1.482   4.853  11.670 -1.1009 -0.6529 -1.4389
23078SOL    HW274555   1.498   4.709  11.628 -0.8443 -1.4365  1.1327
23079SOL     OW74556   9.208  10.475   8.036 -0.1876  0.4805 -0.3539
23079SOL    HW174557   9.250  10.560   8.023 -0.7083  0.6968 -0.6301
23079SOL    HW274558   9.122  10.484   7.995 -0.4977  0.0319  0.1827
23080SOL     OW74559   2.360   4.475   2.546  0.4415 -0.1861  0.1522
23080SOL    HW174560   2.348   4.387   2.582  0.2088 -0.3749 -0.3672
23080SOL    HW274561   2.447   4.473   2.507 -1.2908 -1.9179 -4.4035
23081SOL     OW74562   6.425   5.149   8.946  0.2690  0.4272 -0.3869
23081SOL    HW174563   6.369   5.077   8.977  0.5040  0.0803 -0.7598
23081SOL    HW274564   6.507   5.137   8.994 -0.7221  2.3584  2.0222
23082SOL     OW74565   6.603   2.854   1.523  0.2834  0.1361 -0.7075
23082SOL    HW174566   6.697   2.865   1.535  0.2095  1.3806 -1.1165
23082SOL    HW274567   6.564   2.892   1.602  0.1610 -2.6514  0.6820
23083SOL     OW74568   1.638   6.339   5.699  0.2311  0.1367  0.6259
23083SOL    HW174569   1.596   6.425   5.701 -0.0308  0.0011  1.4914
23083SOL    HW274570   1.698   6.339   5.774  0.6143 -0.2460  0.3249
23084SOL     OW74571   4.081   1.647   5.994 -0.2219 -0.1858  0.3801
23084SOL    HW174572   4.097   1.681   6.082 -0.3725  2.2376 -0.4599
23084SOL    HW274573   4.165   1.657   5.949 -0.6691  0.5222 -0.3192
23085SOL     OW74574   7.110   7.318   6.520  0.0794 -0.3571 -0.1576
23085SOL    HW174575   7.030   7.301   6.571  0.8369 -0.9338  0.8567
23085SOL    HW274576   7.157   7.235   6.521  2.0070  0.6802  1.6136
23086SOL     OW74577   2.701  11.624   1.195 -0.0902 -0.2061 -0.0823
23086SOL    HW174578   2.608  11.635   1.177 -0.0814  0.4421  0.2239
23086SOL    HW274579   2.710  11.534   1.224 -0.5197 -0.4670 -0.7502
23087SOL     OW74580   3.247   5.875   5.012  0.0147  0.2333 -0.4987
23087SOL    HW174581   3.260   5.879   4.917 -0.2102 -0.5721 -0.5644
23087SOL    HW274582   3.302   5.946   5.046  1.4466 -0.5453 -1.1000
23088SOL     OW74583   5.985   6.129   4.477 -0.1132  0.7961  0.4505
23088SOL    HW174584   6.078   6.147   4.474 -0.1282  1.2427  1.6945
23088SOL    HW274585   5.979   6.034   4.491  0.2158  0.9457  1.7535
23089SOL     OW74586   6.683   6.584  10.742  0.5759  0.2058  0.3851
23089SOL    HW174587   6.631   6.515  10.703 -0.7559  1.2394  0.2866
23089SOL    HW274588   6.620   6.652  10.766  1.8521  1.4501  0.3638
23090SOL     OW74589   7.271   7.894  11.486 -0.6458  0.1268 -0.4286
23090SOL    HW174590   7.340   7.923  11.425 -1.3178  0.0896 -1.2233
23090SOL    HW274591   7.267   7.964  11.552  0.0704  0.1857 -0.4415
23091SOL     OW74592   0.551   8.007   9.039  0.1942  0.5235  0.1487
23091SOL    HW174593   0.571   7.919   9.007  0.5720  0.2629  1.0557
23091SOL    HW274594   0.468   8.029   8.997  0.4831  0.0561 -0.6939
23092SOL     OW74595   2.033   7.365   5.283  0.4921 -0.4188  0.1996
23092SOL    HW174596   2.064   7.280   5.314 -0.6124 -0.5652  0.9206
23092SOL    HW274597   2.029   7.420   5.361  0.2478  0.0123 -0.1104
23093SOL     OW74598   2.454   6.707   0.404  0.1663 -0.0366  0.9065
23093SOL    HW174599   2.457   6.800   0.381  0.1741 -0.0845  0.7174
23093SOL    HW274600   2.464   6.706   0.500 -1.2621  0.2335  1.0679
23094SOL     OW74601   2.348  10.785   0.144 -0.2408 -0.6382  0.3111
23094SOL    HW174602   2.365  10.798   0.237  0.2260  0.0903  0.1339
23094SOL    HW274603   2.263  10.740   0.141 -1.4862  1.4902  1.0325
23095SOL     OW74604   3.645   1.640   1.077 -0.3788  0.1503  0.1856
23095SOL    HW174605   3.706   1.610   1.144 -0.8801 -0.2864  0.4508
23095SOL    HW274606   3.701   1.665   1.003  0.0737 -1.1366  0.0693
23096SOL     OW74607   7.717   6.204   3.380 -0.0276  0.4253 -0.3865
23096SOL    HW174608   7.700   6.298   3.373  1.3087  0.9027  1.6848
23096SOL    HW274609   7.636   6.168   3.419  0.4064  1.2267  1.3788
23097SOL     OW74610   2.164  10.793   5.619  0.2892  0.1530 -0.1943
23097SOL    HW174611   2.106  10.717   5.627  1.5711 -0.8174  0.1943
23097SOL    HW274612   2.240  10.761   5.571  0.9779  1.1224  0.2164
23098SOL     OW74613   6.705   3.013   4.867 -0.3037  0.5384  0.5672
23098SOL    HW174614   6.703   3.103   4.834  0.6618  0.4642  0.2646
23098SOL    HW274615   6.644   2.966   4.812  1.4965  0.3526 -1.3902
23099SOL     OW74616   0.686   9.709   4.012 -0.0121 -0.1588  0.2928
23099SOL    HW174617   0.624   9.762   4.060  1.5368  0.8307  1.2907
23099SOL    HW274618   0.668   9.619   4.040 -0.2421  0.2293  1.4321
23100SOL     OW74619   8.435   3.194   3.324  1.1208  0.2701 -0.2903
23100SOL    HW174620   8.507   3.132   3.309  0.0384 -1.1957  0.2917
23100SOL    HW274621   8.394   3.205   3.239  1.0760 -0.1611 -0.3289
23101SOL     OW74622   7.415  10.581   6.036  0.8021  0.3658 -0.2687
23101SOL    HW174623   7.327  10.545   6.054  0.7702  0.9461  0.8538
23101SOL    HW274624   7.431  10.561   5.944 -0.5476  0.3076 -0.5154
23102SOL     OW74625   0.154   6.631   8.700  0.5866  0.0011 -0.1408
23102SOL    HW174626   0.175   6.543   8.732 -0.2048 -0.2555 -0.3126
23102SOL    HW274627   0.232   6.683   8.720  0.7543 -0.5512  0.6918
23103SOL     OW74628   1.008   9.915   0.375  0.1934  0.8055  0.2467
23103SOL    HW174629   1.049   9.930   0.290  2.4198  0.8518  1.2343
23103SOL    HW274630   0.996   9.820   0.379 -0.2395  0.8356 -0.2400
23104SOL     OW74631   6.474   2.488   1.876 -0.3199  0.3099  0.5343
23104SOL    HW174632   6.504   2.543   1.948 -0.0998 -1.8923  2.2670
23104SOL    HW274633   6.379   2.492   1.881 -0.3067  0.6589  0.5289
23105SOL     OW74634   8.870   8.281   7.715 -0.0373 -0.1320 -0.4045
23105SOL    HW174635   8.777   8.266   7.698 -0.0197 -1.4353  0.5206
23105SOL    HW274636   8.899   8.336   7.641 -1.6655  0.8717 -0.3519
23106SOL     OW74637   2.428   4.193   6.068  0.2920  0.0738  0.4848
23106SOL    HW174638   2.504   4.173   6.015  1.8436  1.1115  2.1889
23106SOL    HW274639   2.396   4.108   6.098 -1.3205 -0.6406 -2.8476
23107SOL     OW74640   3.373   6.289   1.186 -0.2253  0.4055 -0.3202
23107SOL    HW174641   3.426   6.224   1.139  1.6445  1.2864  0.4572
23107SOL    HW274642   3.305   6.238   1.230 -0.5807 -0.6830 -2.0303
23108SOL     OW74643   3.512   6.212   7.232 -0.1959 -0.1036 -0.0090
23108SOL    HW174644   3.581   6.268   7.267 -1.2784  2.0354 -1.1329
23108SOL    HW274645   3.447   6.208   7.303  0.9588 -2.1062  1.0432
23109SOL     OW74646  11.375  11.699   1.342 -0.1608  0.1297  0.0338
23109SOL    HW174647  11.424  11.639   1.286  0.1175  0.8949 -0.5781
23109SOL    HW274648  11.339  11.764   1.281 -0.0580  0.8392  0.7111
23110SOL     OW74649   6.582   0.589   4.292  0.4171 -0.3262 -0.0866
23110SOL    HW174650   6.490   0.574   4.269  0.5126  0.7277 -1.2789
23110SOL    HW274651   6.627   0.593   4.208  1.8246 -2.2409  0.5097
23111SOL     OW74652   9.950   5.189   5.506  0.3784 -0.1588 -0.3293
23111SOL    HW174653   9.902   5.154   5.430  0.1397 -0.4105 -0.0681
23111SOL    HW274654   9.883   5.236   5.556  0.2914 -0.9403  0.3006
23112SOL     OW74655  10.780   4.773   8.725  0.1419  0.2531  0.2382
23112SOL    HW174656  10.777   4.818   8.809 -0.0955 -0.4075  0.5888
23112SOL    HW274657  10.753   4.839   8.662  1.6800  1.1621  0.4929
23113SOL     OW74658  10.344   8.893   8.182 -0.2568 -0.1808 -0.0313
23113SOL    HW174659  10.409   8.939   8.129 -0.2603 -0.9198 -0.6793
23113SOL    HW274660  10.279   8.862   8.120  0.2999 -2.0080  0.2380
23114SOL     OW74661   8.040   4.428  10.741  0.0373 -0.1628 -0.1092
23114SOL    HW174662   7.992   4.365  10.687 -1.2712  1.7634 -1.3420
23114SOL    HW274663   8.101   4.470  10.680 -1.3217  1.9042 -0.1795
23115SOL     OW74664   3.939   7.139   4.143  0.7647 -0.4126 -0.4270
23115SOL    HW174665   3.903   7.228   4.139  0.8748 -0.3449 -0.0049
23115SOL    HW274666   3.926   7.104   4.055 -1.5724 -0.8771  0.0445
23116SOL     OW74667   0.607   8.270   6.906 -0.3958 -0.0899 -0.0069
23116SOL    HW174668   0.568   8.307   6.986 -0.4064  0.1026 -0.1002
23116SOL    HW274669   0.699   8.256   6.929 -0.2129  0.7120 -0.2091
23117SOL     OW74670   8.854   3.285   8.407  0.1792 -0.2003  0.7088
23117SOL    HW174671   8.928   3.251   8.457  1.1373 -0.1991 -0.6409
23117SOL    HW274672   8.803   3.208   8.383  0.8470 -0.4198 -0.0330
23118SOL     OW74673   8.137   0.015   2.187 -0.2653 -0.2508  0.0509
23118SOL    HW174674   8.227   0.047   2.185 -0.7526  1.1974 -0.1270
23118SOL    HW274675   8.135  -0.054   2.120  0.7282 -0.3655  0.1239
23119SOL     OW74676   0.107   3.929   7.221  0.0357 -0.2506  0.3344
23119SOL    HW174677   0.142   4.016   7.197 -0.6803 -0.0403  0.0333
23119SOL    HW274678   0.151   3.869   7.160  0.8022 -0.1538  0.7774
23120SOL     OW74679   0.938   3.813   6.376 -0.0274  0.1893  0.0304
23120SOL    HW174680   0.890   3.730   6.369 -0.1732  0.3801 -1.4979
23120SOL    HW274681   1.025   3.787   6.409 -0.2274 -0.5033  0.0383
23121SOL     OW74682   8.405   4.952  10.958  0.1193 -0.2317  0.6217
23121SOL    HW174683   8.461   4.965  11.034  1.0859 -2.4578  0.3644
23121SOL    HW274684   8.317   4.940  10.994  0.1649  1.0020  1.1902
23122SOL     OW74685   5.229   0.676   0.659  0.4163 -0.3627 -0.4489
23122SOL    HW174686   5.230   0.752   0.600  0.6455 -1.1412 -1.4790
23122SOL    HW274687   5.315   0.678   0.702 -0.0512  0.6701  0.5083
23123SOL     OW74688  10.059   7.480   1.291  0.0502 -0.0096  0.0051
23123SOL    HW174689  10.138   7.517   1.251  0.0790 -0.0016  0.0677
23123SOL    HW274690   9.992   7.547   1.278 -0.6342 -1.0780 -2.3165
23124SOL     OW74691   0.577   4.102   7.117 -0.0522 -0.2639  0.4884
23124SOL    HW174692   0.536   4.121   7.032 -2.1121 -1.6349  1.1026
23124SOL    HW274693   0.607   4.012   7.109  1.6785  0.2808  0.5345
23125SOL     OW74694   3.384   5.165   6.127  0.9101  0.2701 -0.7923
23125SOL    HW174695   3.291   5.146   6.114  0.6331  0.0874  1.1111
23125SOL    HW274696   3.430   5.087   6.097  0.2267 -0.7956  0.8156
23126SOL     OW74697   0.722   8.614   2.349  0.5492 -0.3227 -0.8855
23126SOL    HW174698   0.731   8.527   2.388 -0.9191  0.2632  0.8846
23126SOL    HW274699   0.631   8.638   2.365  0.9773  1.6358 -1.1750
23127SOL     OW74700  10.476   4.104   0.956  0.1921 -0.6412  0.5105
23127SOL    HW174701  10.539   4.117   0.885  0.0931 -0.9632  0.3637
23127SOL    HW274702  10.425   4.028   0.930  0.8205 -1.3913  1.4070
23128SOL     OW74703   7.449   3.280   0.976  1.1058  0.6613  0.1932
23128SOL    HW174704   7.520   3.334   1.010  2.0067  0.7572 -1.6815
23128SOL    HW274705   7.428   3.220   1.047  1.9246  1.7227  1.3684
23129SOL     OW74706   5.839   0.106  11.216  0.3218 -0.5058 -0.2508
23129SOL    HW174707   5.775   0.163  11.173  1.3135 -0.0297 -1.1584
23129SOL    HW274708   5.897   0.077  11.145  0.8788 -1.2252  0.4806
23130SOL     OW74709   9.474   6.700   3.583  0.0170  0.7017 -0.3155
23130SOL    HW174710   9.461   6.613   3.547  0.5893  0.3460  0.3158
23130SOL    HW274711   9.387   6.739   3.585 -0.1395  0.4255 -1.2912
23131SOL     OW74712  11.222   9.707   5.795 -0.2594  0.4114  0.9038
23131SOL    HW174713  11.207   9.765   5.720 -1.2399 -0.1547  0.6431
23131SOL    HW274714  11.148   9.722   5.852  0.5124  0.8726  1.8121
23132SOL     OW74715   5.811  10.231  10.143 -0.1212 -0.1942  0.8707
23132SOL    HW174716   5.747  10.268  10.204 -1.0705 -1.8015  0.9091
23132SOL    HW274717   5.810  10.290  10.068 -2.7378 -0.8847  0.2610
23133SOL     OW74718   4.002   4.485   2.714  0.2567  0.4302  0.1325
23133SOL    HW174719   3.938   4.448   2.653  0.8119 -0.1957 -0.0830
23133SOL    HW274720   4.077   4.508   2.658  0.0626  1.5672  0.3130
23134SOL     OW74721   3.374  10.935  11.404  0.6002 -0.2053 -0.5614
23134SOL    HW174722   3.325  10.857  11.433 -1.4582  1.4500  0.6747
23134SOL    HW274723   3.369  10.933  11.309 -1.2213 -0.5464 -0.4942
23135SOL     OW74724  10.632  11.092   0.819 -0.5795 -0.0202 -0.2955
23135SOL    HW174725  10.536  11.090   0.812 -0.5367  1.8355 -4.8505
23135SOL    HW274726  10.662  11.120   0.732  4.1174  0.4466  1.1972
23136SOL     OW74727   0.062   9.204   4.664 -0.0683  0.2290  0.2053
23136SOL    HW174728   0.156   9.187   4.677 -0.6620 -3.2978  0.8739
23136SOL    HW274729   0.025   9.199   4.752 -0.9423  1.4456 -0.0761
23137SOL     OW74730   1.287   6.179   8.268  0.7134 -0.2258 -0.5793
23137SOL    HW174731   1.209   6.147   8.314  0.0277 -1.1365 -2.2624
23137SOL    HW274732   1.360   6.132   8.308  0.3755  0.3590  0.7633
23138SOL     OW74733   8.429   0.672   5.262  0.3898  0.7955 -0.0126
23138SOL    HW174734   8.343   0.713   5.259 -0.4559 -0.6120  2.2785
23138SOL    HW274735   8.490   0.745   5.269 -0.7887  1.7688  0.4982
23139SOL     OW74736   7.476   2.361   2.755  0.1716 -0.1322  0.1337
23139SOL    HW174737   7.506   2.430   2.696 -0.7156 -1.2025 -1.6548
23139SOL    HW274738   7.412   2.404   2.812  0.5337  0.7710 -0.1278
23140SOL     OW74739   7.291   2.123   4.884 -0.0820  0.2317 -0.8431
23140SOL    HW174740   7.242   2.094   4.961  1.5558 -0.5095 -0.0285
23140SOL    HW274741   7.241   2.089   4.810  0.4539 -2.7142  0.0089
23141SOL     OW74742   6.007   1.428   4.858 -0.2045 -0.4866 -0.1109
23141SOL    HW174743   6.095   1.443   4.891 -0.9904 -0.2178  2.0749
23141SOL    HW274744   5.978   1.512   4.825 -0.1301 -0.2066  0.5159
23142SOL     OW74745   6.652   2.260   8.080 -0.3059  0.3614 -0.4533
23142SOL    HW174746   6.622   2.288   8.167  0.5077  0.3692 -0.1581
23142SOL    HW274747   6.582   2.205   8.046 -0.4039 -0.0892  0.4514
23143SOL     OW74748   4.629   8.150   7.833  0.3686  0.4015  0.0784
23143SOL    HW174749   4.620   8.125   7.925  0.2669  1.3077  0.3246
23143SOL    HW274750   4.584   8.080   7.785 -1.1650  0.8318  0.8314
23144SOL     OW74751  11.547   0.545   7.155  0.1050 -0.2531  0.5599
23144SOL    HW174752  11.457   0.520   7.177 -0.4363  1.4764  0.5034
23144SOL    HW274753  11.552   0.637   7.179  2.0249 -0.4277  0.9570
23145SOL     OW74754   3.207   0.476   4.815 -0.3743  0.0897 -0.3634
23145SOL    HW174755   3.282   0.515   4.771 -0.1139  1.2849  1.0605
23145SOL    HW274756   3.150   0.550   4.836 -2.1489 -0.8168 -1.6747
23146SOL     OW74757   8.256   2.498   2.712 -0.2218  0.0468  0.0469
23146SOL    HW174758   8.184   2.468   2.768  0.1498  0.5424  0.7951
23146SOL    HW274759   8.259   2.592   2.725  0.1345  0.1134 -0.4993
23147SOL     OW74760   6.995   8.571   2.107 -0.0762  0.1624  0.0748
23147SOL    HW174761   6.973   8.659   2.138  0.0080  0.6377 -1.1583
23147SOL    HW274762   6.912   8.535   2.077 -0.0612 -0.0683  0.3088
23148SOL     OW74763   5.790   3.950   5.574 -0.8564  0.3349  0.3366
23148SOL    HW174764   5.769   4.028   5.523  0.9373 -0.4240 -1.7476
23148SOL    HW274765   5.712   3.933   5.626 -2.7403  1.3585 -1.9555
23149SOL     OW74766   8.158   2.292  10.441  0.4627  0.5172  0.3802
23149SOL    HW174767   8.212   2.356  10.393  0.8997 -1.0624 -1.3490
23149SOL    HW274768   8.096   2.260  10.375 -2.0855  1.6136  2.0858
23150SOL     OW74769   2.534   2.428  10.771 -0.3305 -0.2491 -0.8928
23150SOL    HW174770   2.496   2.361  10.828 -2.2533  0.7355 -0.9418
23150SOL    HW274771   2.623   2.439  10.804 -1.2897  0.1119  1.8304
23151SOL     OW74772   6.590   7.877   5.066  0.0510 -0.1508  0.2967
23151SOL    HW174773   6.513   7.875   5.123 -1.3961  0.1848 -1.5742
23151SOL    HW274774   6.593   7.967   5.033 -2.1370 -1.3681 -3.9347
23152SOL     OW74775  10.667   9.566   1.991  0.3989  0.2124  0.3807
23152SOL    HW174776  10.623   9.511   2.056  0.3528 -0.5983 -0.3185
23152SOL    HW274777  10.711   9.504   1.933 -0.0811  0.8895 -0.7396
23153SOL     OW74778   8.419  11.248   0.563 -0.1108  0.1120  0.5361
23153SOL    HW174779   8.356  11.277   0.497 -0.4718  1.8753  1.6071
23153SOL    HW274780   8.496  11.222   0.512 -1.0218 -0.2653 -0.6754
23154SOL     OW74781   8.311   9.114   9.603  0.3013  0.0284  0.3240
23154SOL    HW174782   8.237   9.112   9.664 -0.0687  2.1402 -0.0085
23154SOL    HW274783   8.274   9.146   9.521  1.3775 -0.0061 -0.1921
23155SOL     OW74784   0.138   7.258   7.122 -0.3685 -0.5764  0.4917
23155SOL    HW174785   0.153   7.232   7.212 -1.0376 -0.2632  0.6993
23155SOL    HW274786   0.225   7.262   7.083 -0.1374 -1.5112  0.8922
23156SOL     OW74787   3.690   5.521  10.045 -0.6139  0.5304  0.0133
23156SOL    HW174788   3.753   5.576  10.092 -0.9398 -0.5777  1.8698
23156SOL    HW274789   3.718   5.525   9.954  2.3155 -0.1037  0.7817
23157SOL     OW74790   0.314   8.537  10.296 -0.3205 -0.0455 -0.0064
23157SOL    HW174791   0.297   8.591  10.218  0.0754  0.0796 -0.0103
23157SOL    HW274792   0.281   8.451  10.273  1.3563 -0.4710 -0.9973
23158SOL     OW74793  11.774   5.368  10.204 -0.1682  0.4859  0.3032
23158SOL    HW174794  11.768   5.417  10.286  1.8498  1.4019 -0.0350
23158SOL    HW274795  11.848   5.309  10.216 -2.3681 -2.4332  0.5949
23159SOL     OW74796   8.484   4.213   5.614  0.1402 -0.0754 -0.2763
23159SOL    HW174797   8.506   4.280   5.679  1.4579  0.0556 -0.8175
23159SOL    HW274798   8.471   4.133   5.665  0.0827  0.2546  0.2331
23160SOL     OW74799  11.171   4.343   3.742  0.1116 -0.4931  0.6257
23160SOL    HW174800  11.252   4.294   3.747  1.3662  1.2191 -1.4190
23160SOL    HW274801  11.176   4.405   3.815  1.3117  0.4659 -0.2292
23161SOL     OW74802   8.138   9.141   8.141 -0.2390 -0.0159  0.2139
23161SOL    HW174803   8.164   9.190   8.063 -2.7691  1.2373  0.0485
23161SOL    HW274804   8.154   9.201   8.213 -1.2908  0.2620  0.2372
23162SOL     OW74805  10.587   5.542  10.975 -0.1473 -0.5426 -0.2750
23162SOL    HW174806  10.565   5.453  11.002 -1.1398 -0.6441 -1.3489
23162SOL    HW274807  10.643   5.576  11.046  1.2304 -2.4080 -0.4022
23163SOL     OW74808   7.304   4.110   0.568  0.3164 -0.2548  0.5340
23163SOL    HW174809   7.251   4.042   0.610 -1.8536  1.3424  0.5663
23163SOL    HW274810   7.321   4.173   0.637 -0.0198  0.5318 -0.0870
23164SOL     OW74811   6.620   1.950   5.015  0.1483  0.2095 -0.9291
23164SOL    HW174812   6.662   2.034   5.026 -2.0871  1.5281 -1.6987
23164SOL    HW274813   6.569   1.959   4.934 -0.5095 -1.7194 -0.7914
23165SOL     OW74814   6.364   2.728   9.308 -0.2909 -0.1911 -0.6341
23165SOL    HW174815   6.293   2.676   9.345 -0.7002  0.4962 -0.4305
23165SOL    HW274816   6.443   2.694   9.349 -0.6121 -0.2739 -0.0709
23166SOL     OW74817   3.090   3.884   6.997 -0.3765 -0.1282  0.2798
23166SOL    HW174818   3.050   3.970   7.007  0.6212  0.5162 -0.9176
23166SOL    HW274819   3.025   3.823   7.030 -2.0894  0.9126 -0.9947
23167SOL     OW74820  10.060   7.187   4.030 -0.2917  0.6423  0.1061
23167SOL    HW174821  10.127   7.146   4.086 -0.1132  0.0519 -0.5305
23167SOL    HW274822  10.097   7.273   4.008  0.5106  0.0940 -0.6997
23168SOL     OW74823   7.960   7.838   8.184 -0.2047  1.0010 -0.0654
23168SOL    HW174824   7.998   7.886   8.110 -0.0155  1.1915  0.1519
23168SOL    HW274825   8.036   7.807   8.233 -0.2565 -1.0626 -1.1546
23169SOL     OW74826  11.672   4.878   2.964  0.0578 -0.0973 -0.1934
23169SOL    HW174827  11.658   4.851   3.055  0.7614  1.1598  0.3220
23169SOL    HW274828  11.584   4.889   2.929 -0.2779 -3.0677 -0.5019
23170SOL     OW74829   4.821   6.091   8.129 -0.0813 -0.2365  0.2147
23170SOL    HW174830   4.811   6.044   8.046  1.7190  0.3698 -0.4118
23170SOL    HW274831   4.753   6.055   8.185 -0.1776 -2.0086 -0.9318
23171SOL     OW74832   0.470   1.941  11.010 -0.0431 -0.2805  0.4525
23171SOL    HW174833   0.419   1.861  11.029 -1.1070 -0.1261 -1.5108
23171SOL    HW274834   0.559   1.909  10.996 -0.2440 -0.9975  0.7254
23172SOL     OW74835   7.476   9.746  10.528 -0.0062  0.1668 -0.0888
23172SOL    HW174836   7.533   9.680  10.567 -1.3036 -1.0281 -0.1283
23172SOL    HW274837   7.485   9.733  10.434  0.2792  0.5404 -0.1157
23173SOL     OW74838   3.387   6.425   9.990 -0.1390  0.3153  0.5611
23173SOL    HW174839   3.342   6.360   9.936  2.5636 -1.8881  0.6852
23173SOL    HW274840   3.429   6.484   9.927 -1.0602  0.8058  0.3985
23174SOL     OW74841   1.484   2.601   5.267  0.2097 -0.2924 -0.3233
23174SOL    HW174842   1.519   2.607   5.178 -1.1946  0.8530 -0.8408
23174SOL    HW274843   1.459   2.509   5.277  1.9688 -0.8212 -0.4500
23175SOL     OW74844  10.167  11.583   4.230 -0.0203 -0.0487  0.5513
23175SOL    HW174845  10.074  11.602   4.232 -0.2828 -1.2236  0.5227
23175SOL    HW274846  10.194  11.600   4.139  0.0123  1.1972  0.7840
23176SOL     OW74847   2.855   8.812   0.752  0.1760  0.5855 -0.2597
23176SOL    HW174848   2.805   8.820   0.671 -0.6347 -1.0195  0.0448
23176SOL    HW274849   2.930   8.870   0.740 -0.1456  0.6844 -1.9847
23177SOL     OW74850   2.014  11.535   8.981 -0.8580  0.1487 -0.8633
23177SOL    HW174851   2.013  11.631   8.976  1.9571  0.2803 -0.2287
23177SOL    HW274852   2.008  11.506   8.890 -1.4066  0.9178 -1.0796
23178SOL     OW74853   5.350   2.918   6.146 -0.5420  0.2803  0.0729
23178SOL    HW174854   5.414   2.986   6.126 -0.3002  0.8630  2.4248
23178SOL    HW274855   5.268   2.950   6.108 -0.0716  1.0782 -0.2866
23179SOL     OW74856   3.595   3.660   5.942  0.2039 -0.1742  0.1061
23179SOL    HW174857   3.547   3.698   5.868  0.4648 -0.6425 -0.3147
23179SOL    HW274858   3.651   3.593   5.902 -1.0058 -1.7520  0.9133
23180SOL     OW74859   6.716   9.529   7.830 -0.5862 -0.4446 -0.4833
23180SOL    HW174860   6.678   9.478   7.901 -0.9754  0.7483  0.1940
23180SOL    HW274861   6.666   9.610   7.828  0.1930  0.0463 -1.3408
23181SOL     OW74862   1.969   6.801   6.361 -0.2280 -0.1745 -0.5921
23181SOL    HW174863   1.928   6.744   6.426 -1.5655  0.1500 -1.1171
23181SOL    HW274864   2.058   6.767   6.351  0.0363 -0.1867  1.4500
23182SOL     OW74865   7.067   2.532   6.573 -0.0821 -0.2227 -0.5111
23182SOL    HW174866   7.010   2.468   6.615  0.0547  0.6497  1.0893
23182SOL    HW274867   7.035   2.537   6.482 -4.1406  1.8406  0.7595
23183SOL     OW74868   4.721  11.481   0.096 -0.1195  0.1563 -0.1999
23183SOL    HW174869   4.798  11.447   0.051  0.4276  1.3204 -0.1773
23183SOL    HW274870   4.675  11.534   0.031 -0.7309 -0.2545 -0.1166
23184SOL     OW74871   9.068   0.576  10.129  0.1776  0.4279  0.0181
23184SOL    HW174872   9.045   0.588  10.221  1.2175 -0.0457  0.3675
23184SOL    HW274873   9.105   0.660  10.102  0.9511  0.2250  0.3944
23185SOL     OW74874  11.074   1.221   2.044  0.0348  0.3719 -0.2321
23185SOL    HW174875  11.090   1.267   2.126 -1.2464  1.9188 -0.7948
23185SOL    HW274876  11.129   1.266   1.980 -0.1109  0.1629 -0.5080
23186SOL     OW74877   1.613   0.215   5.129 -0.0377 -0.0741  0.0825
23186SOL    HW174878   1.657   0.145   5.177  1.1347  1.0664  0.7505
23186SOL    HW274879   1.597   0.179   5.042  0.9817 -1.0026  0.2611
23187SOL     OW74880   3.365   7.089   4.453 -0.2173  0.0752  0.0165
23187SOL    HW174881   3.443   7.041   4.481 -1.1087 -1.2043  0.3606
23187SOL    HW274882   3.338   7.046   4.372  1.3566  2.6743 -2.0505
23188SOL     OW74883   5.094   9.152   8.233 -0.1506  0.0249  0.5015
23188SOL    HW174884   5.126   9.240   8.251 -0.5129  0.0563  1.0125
23188SOL    HW274885   5.131   9.129   8.148 -0.5704  0.9194  0.0686
23189SOL     OW74886   6.877   4.406   0.713 -0.4605  0.1670 -0.0791
23189SOL    HW174887   6.809   4.451   0.764 -0.4453 -1.0211  1.0476
23189SOL    HW274888   6.959   4.443   0.745 -0.5169  0.4173 -0.2298
23190SOL     OW74889   9.949   9.291   4.757  0.2556 -0.3618  0.5560
23190SOL    HW174890   9.972   9.332   4.674  1.7642  0.9578  1.5473
23190SOL    HW274891   9.910   9.361   4.809 -1.0431 -1.2645  0.8559
23191SOL     OW74892   1.264   9.859   1.779  0.1109  0.3986  0.2607
23191SOL    HW174893   1.240   9.930   1.839  1.8472  1.6955 -0.4829
23191SOL    HW274894   1.230   9.888   1.694 -2.5259 -1.5202  0.5279
23192SOL     OW74895   4.114  11.234   1.627  0.4177  0.1579  0.0013
23192SOL    HW174896   4.152  11.149   1.648  0.0651  0.1479  0.6142
23192SOL    HW274897   4.139  11.249   1.535  0.9011 -0.3729  0.0383
23193SOL     OW74898   5.708   5.915   5.893 -0.4010  0.2579  0.3829
23193SOL    HW174899   5.661   5.968   5.958 -1.4757 -0.9477  0.6423
23193SOL    HW274900   5.768   5.861   5.945 -1.6031 -1.0522  0.4622
23194SOL     OW74901   0.491   5.784   8.697 -0.1268 -0.4536  0.3042
23194SOL    HW174902   0.546   5.780   8.776 -0.4924 -0.6908  0.5502
23194SOL    HW274903   0.490   5.694   8.665 -0.6422 -0.5143  0.4886
23195SOL     OW74904   5.051   0.537   5.240  0.0548 -0.5814  0.0125
23195SOL    HW174905   5.120   0.532   5.174  0.6710  1.6782  0.4080
23195SOL    HW274906   5.045   0.630   5.262 -0.4998 -1.1507  2.7182
23196SOL     OW74907   0.972   7.164   4.118 -0.2120  0.0439 -0.3857
23196SOL    HW174908   1.035   7.096   4.140 -1.5962 -0.8609  0.9615
23196SOL    HW274909   1.019   7.246   4.131  0.6567 -0.6019  0.6571
23197SOL     OW74910   4.602   2.458  10.799  0.8206  0.1270 -0.3438
23197SOL    HW174911   4.627   2.508  10.877 -2.3522  0.8334  0.3507
23197SOL    HW274912   4.685   2.446  10.751  2.3875  2.3503  1.5580
23198SOL     OW74913   5.690   1.810  11.624  0.1756 -0.4167  0.8225
23198SOL    HW174914   5.608   1.780  11.662 -1.2357  1.1767 -0.7730
23198SOL    HW274915   5.725   1.871  11.689 -0.8416  0.2650  0.7524
23199SOL     OW74916   1.559   2.802   6.488  0.1650 -0.1736  0.0285
23199SOL    HW174917   1.546   2.880   6.434  1.9189  0.9018  1.0316
23199SOL    HW274918   1.489   2.743   6.463 -3.3897  2.9880  1.5540
23200SOL     OW74919   4.011   6.625  10.036  0.3828  0.9397  0.3124
23200SOL    HW174920   4.086   6.582   9.995 -0.4191 -2.6061  2.1248
23200SOL    HW274921   4.029   6.622  10.130 -1.1149  1.8695  0.6680
23201SOL     OW74922   6.615   7.508   8.927  0.4638  0.4636 -0.1185
23201SOL    HW174923   6.572   7.436   8.882 -0.9378  0.8903  0.4820
23201SOL    HW274924   6.620   7.480   9.019  1.6989  0.3332 -0.2036
23202SOL     OW74925   0.913   9.786   1.828 -0.0111 -0.4702 -0.1934
23202SOL    HW174926   0.899   9.744   1.743  0.6632 -3.2577  0.9554
23202SOL    HW274927   0.968   9.723   1.877 -0.4461  0.9834  2.3239
23203SOL     OW74928   1.948   4.880   9.612  0.0701 -0.0789 -0.1525
23203SOL    HW174929   1.929   4.882   9.706  0.9738 -0.7055  0.0554
23203SOL    HW274930   1.914   4.795   9.583 -1.0906  0.5179 -0.6061
23204SOL     OW74931   0.312   5.160   4.660  0.0235 -0.0250 -0.5832
23204SOL    HW174932   0.394   5.123   4.693  0.2024  0.8295 -0.0178
23204SOL    HW274933   0.274   5.204   4.736 -0.4724  0.4148 -1.0758
23205SOL     OW74934   6.133   2.427  10.245  0.3302  0.3096  0.2419
23205SOL    HW174935   6.059   2.445  10.187  0.2116  0.9958  0.6091
23205SOL    HW274936   6.164   2.513  10.274  0.5336 -0.0170  1.0248
23206SOL     OW74937   0.914  10.471   9.323  0.3442  0.2687 -0.1582
23206SOL    HW174938   0.995  10.518   9.341  0.4041  1.2210 -2.4659
23206SOL    HW274939   0.942  10.384   9.297  0.5797  0.3527 -0.1900
23207SOL     OW74940   5.194   4.111   0.222  0.4002  0.3570  0.1436
23207SOL    HW174941   5.203   4.087   0.314 -1.9579  1.9098  0.9068
23207SOL    HW274942   5.245   4.191   0.213 -0.5730  1.0485  0.5556
23208SOL     OW74943  11.770   3.883   1.678 -0.4234  0.3774  0.4391
23208SOL    HW174944  11.799   3.925   1.759 -1.1722 -0.8267  1.3608
23208SOL    HW274945  11.754   3.792   1.702  0.2975 -0.2572 -1.3074
23209SOL     OW74946   7.221   5.916   5.215  0.1221 -0.1276 -0.2877
23209SOL    HW174947   7.264   5.970   5.282 -0.5211 -1.1565  1.0123
23209SOL    HW274948   7.173   5.978   5.161  1.5412  0.8404 -0.4887
23210SOL     OW74949   1.563   0.104  10.163 -0.0541 -0.6004  0.6658
23210SOL    HW174950   1.652   0.107  10.198  0.0741 -1.7931  0.4725
23210SOL    HW274951   1.507   0.093  10.240 -0.2167  1.9189  0.9802
23211SOL     OW74952  11.789   2.058   2.011  0.1308 -0.0635  0.0075
23211SOL    HW174953  11.873   2.104   2.009  0.8554 -1.3604 -0.5841
23211SOL    HW274954  11.795   2.001   2.088 -0.1715 -0.2120 -0.0773
23212SOL     OW74955  11.707   9.234   6.431  0.1227 -0.2232  0.0322
23212SOL    HW174956  11.628   9.218   6.483  0.5105  0.8503  0.9899
23212SOL    HW274957  11.726   9.327   6.443  1.3646 -0.3949 -0.4316
23213SOL     OW74958   2.487   9.058   8.761  0.2704 -0.2737  0.6830
23213SOL    HW174959   2.577   9.034   8.783  1.2804  1.9173 -0.7011
23213SOL    HW274960   2.489   9.153   8.752 -2.6963  0.1238  2.6317
23214SOL     OW74961  10.450   7.344   9.426 -0.7100  0.6983  0.1767
23214SOL    HW174962  10.439   7.302   9.341  2.3244 -3.0296  1.3375
23214SOL    HW274963  10.363   7.343   9.465 -1.2900 -2.3132 -0.9468
23215SOL     OW74964   2.061   8.668   3.881 -0.0526  0.2221  0.2442
23215SOL    HW174965   2.091   8.585   3.918 -1.1570  0.2636  1.2948
23215SOL    HW274966   1.966   8.669   3.898 -0.1617  1.3992 -0.3424
23216SOL     OW74967   4.155   1.191   8.733 -0.4248  0.4342 -0.1764
23216SOL    HW174968   4.144   1.286   8.742 -1.1339  0.4925 -1.4266
23216SOL    HW274969   4.204   1.180   8.651  0.5265 -0.2514  0.4648
23217SOL     OW74970   2.308   9.558  11.298  0.6121  0.1569 -0.2868
23217SOL    HW174971   2.244   9.557  11.369  0.5939  0.5654 -0.2956
23217SOL    HW274972   2.269   9.615  11.232 -0.3947 -1.9176 -1.5848
23218SOL     OW74973  10.544   1.533   0.299  0.4187 -0.1022 -0.1643
23218SOL    HW174974  10.484   1.603   0.274  1.1701  0.5105 -0.2934
23218SOL    HW274975  10.621   1.546   0.243  1.5209  0.3835  1.3991
23219SOL     OW74976   7.078   2.660   7.459  0.1954 -0.0496  0.1974
23219SOL    HW174977   7.073   2.566   7.479  1.0554 -0.3864 -1.0417
23219SOL    HW274978   7.011   2.673   7.392 -0.8465  0.5256  1.3098
23220SOL     OW74979   8.016   5.982   4.321  0.0147  0.2878  0.4560
23220SOL    HW174980   7.930   5.943   4.338 -0.2887  0.9334  0.4098
23220SOL    HW274981   8.006   6.074   4.345 -0.2972  1.1826 -2.6398
23221SOL     OW74982   1.272   1.517   8.386  0.0031  0.1184  0.2418
23221SOL    HW174983   1.197   1.512   8.445  0.6079 -1.3730  0.9432
23221SOL    HW274984   1.339   1.463   8.427  0.9078  0.0936 -1.1708
23222SOL     OW74985   2.001   7.934   7.860  0.0409 -0.2142 -0.0522
23222SOL    HW174986   2.017   8.025   7.836 -1.0513 -0.1204 -0.4849
23222SOL    HW274987   2.012   7.885   7.778 -0.3211 -0.3418 -0.0275
23223SOL     OW74988  11.278   4.911   3.494  0.1912 -0.2202 -0.3666
23223SOL    HW174989  11.329   4.978   3.540  2.2210 -2.0573  0.1996
23223SOL    HW274990  11.315   4.907   3.406  0.2261 -0.7528 -0.3307
23224SOL     OW74991   1.721   1.687  10.785  0.3649  0.1730 -0.3573
23224SOL    HW174992   1.688   1.690  10.696 -2.6630  0.4876  0.6751
23224SOL    HW274993   1.718   1.595  10.810 -1.7623  0.3884  0.3620
23225SOL     OW74994   2.112   9.550   7.598  0.6243  0.5735  0.9621
23225SOL    HW174995   2.103   9.517   7.687  0.1220  0.0974  0.7429
23225SOL    HW274996   2.054   9.494   7.546 -0.7575  2.1778  0.6782
23226SOL     OW74997  11.260   8.435  10.168 -0.1085 -0.3126  0.3042
23226SOL    HW174998  11.310   8.446  10.249  1.6341 -2.3431 -0.3906
23226SOL    HW274999  11.250   8.340  10.159 -2.2592 -0.0366 -0.7238
23227SOL     OW75000   6.904   3.611   0.807 -0.7293  0.5605  0.5933
23227SOL    HW175001   6.830   3.670   0.822 -0.1612  0.9745  1.8797
23227SOL    HW275002   6.918   3.614   0.712 -2.8937 -0.2142  0.2064
23228SOL     OW75003   3.411   1.981  10.492 -0.3055  0.0638 -0.5160
23228SOL    HW175004   3.340   1.917  10.482 -1.4041  1.3748 -1.5461
23228SOL    HW275005   3.380   2.041  10.559  1.1607 -0.9781  1.1930
23229SOL     OW75006   7.132   6.665  10.995 -0.0752 -0.1721  0.2460
23229SOL    HW175007   7.041   6.640  10.981  0.2577 -1.2136 -0.0974
23229SOL    HW275008   7.178   6.633  10.918  0.9810 -1.7260  1.4745
23230SOL     OW75009   7.048   6.379   0.523 -0.4733 -0.5277  0.4206
23230SOL    HW175010   7.013   6.420   0.602  0.0190  0.8644 -0.0573
23230SOL    HW275011   7.117   6.321   0.555  1.2137  1.6162  0.9282
23231SOL     OW75012   0.243   1.983   4.146  0.1618  0.0727 -0.0535
23231SOL    HW175013   0.282   2.070   4.144 -1.9355  1.0729  0.8148
23231SOL    HW275014   0.224   1.964   4.054  0.6898  0.4835 -0.2554
23232SOL     OW75015   1.641  11.277   0.674 -0.0940 -0.8198 -0.1388
23232SOL    HW175016   1.643  11.183   0.654 -2.3925 -0.6233 -1.7211
23232SOL    HW275017   1.688  11.318   0.602  0.1127 -0.6963  0.0667
23233SOL     OW75018   6.677   4.235  10.072  0.5955 -0.3149  0.0469
23233SOL    HW175019   6.674   4.294   9.996 -2.3037 -0.0325  0.2466
23233SOL    HW275020   6.677   4.147  10.034 -1.4069 -0.1827 -0.3737
23234SOL     OW75021   2.308  10.094   2.071 -0.5390  0.6378 -0.4557
23234SOL    HW175022   2.385  10.077   2.125  1.5435  1.3348 -3.0031
23234SOL    HW275023   2.288  10.010   2.031  0.9556  1.0642 -2.2174
23235SOL     OW75024  11.118   9.731   4.081  0.6161  0.1502  0.0282
23235SOL    HW175025  11.130   9.753   4.173  0.7595  1.1175 -0.2131
23235SOL    HW275026  11.079   9.643   4.082 -1.1664  0.8992  1.0681
23236SOL     OW75027   8.441  10.881   0.036 -0.6735  0.4586  0.2237
23236SOL    HW175028   8.489  10.810   0.079 -1.2536 -0.2568 -0.2727
23236SOL    HW275029   8.507  10.929  -0.013 -0.4207 -0.3599 -0.2498
23237SOL     OW75030   5.759   7.487   2.506  0.2342  0.1038 -0.0524
23237SOL    HW175031   5.763   7.427   2.580 -1.5108  1.9553  1.6921
23237SOL    HW275032   5.727   7.434   2.433  1.5128 -1.6598  0.6021
23238SOL     OW75033   4.851   9.087   0.958  0.5082  0.3374  0.0363
23238SOL    HW175034   4.820   8.997   0.955 -0.5997  0.7288 -0.6874
23238SOL    HW275035   4.780   9.139   0.921 -0.1207  1.8703  3.0382
23239SOL     OW75036   6.566  10.345   2.859  0.0343  0.3486  0.3572
23239SOL    HW175037   6.532  10.358   2.770  1.7405  0.3543 -0.3430
23239SOL    HW275038   6.552  10.252   2.877  2.3876 -0.4209 -1.2142
23240SOL     OW75039   2.909  11.222   1.728 -0.2077 -0.1187  0.1828
23240SOL    HW175040   2.872  11.170   1.656  1.3195 -0.4394 -0.4210
23240SOL    HW275041   2.956  11.157   1.780 -0.5247  0.2688  0.9559
23241SOL     OW75042   8.597   9.512   8.855 -0.1241  0.0433 -0.1927
23241SOL    HW175043   8.562   9.462   8.781 -2.8673  0.8822  0.4273
23241SOL    HW275044   8.523   9.563   8.887  1.2811  0.6413  2.3969
23242SOL     OW75045   7.658  10.586   5.133  0.0614  0.0645 -0.6362
23242SOL    HW175046   7.716  10.553   5.202  1.8539  0.8226 -1.7066
23242SOL    HW275047   7.614  10.509   5.099  1.0633 -0.6623 -0.3187
23243SOL     OW75048   6.864  10.830   7.948  0.4441 -0.8406 -0.2311
23243SOL    HW175049   6.808  10.907   7.960 -1.2888 -2.1101  0.2710
23243SOL    HW275050   6.864  10.787   8.033  3.3071 -0.2426  0.1690
23244SOL     OW75051   1.800   4.394   7.140  0.0678 -0.2182  0.2936
23244SOL    HW175052   1.774   4.304   7.160  0.7566 -0.1938  1.3532
23244SOL    HW275053   1.816   4.393   7.045  0.7631 -1.3963  0.4009
23245SOL     OW75054   5.051   4.618  10.333  0.1103  0.2770  0.2724
23245SOL    HW175055   5.005   4.700  10.350 -0.1050  0.2505 -0.1602
23245SOL    HW275056   5.085   4.628  10.244  0.5958  0.1345  0.4401
23246SOL     OW75057   4.039   0.611   0.466 -0.2433 -0.1666  0.6748
23246SOL    HW175058   4.016   0.607   0.374 -0.4376 -1.7096  0.7497
23246SOL    HW275059   4.049   0.519   0.492  3.0904  0.2526  1.3813
23247SOL     OW75060  11.498   7.230   6.962 -0.1747 -0.1559  0.0044
23247SOL    HW175061  11.449   7.154   6.933  0.0460 -0.1307 -0.4375
23247SOL    HW275062  11.590   7.201   6.963 -0.0798  0.1276 -0.2576
23248SOL     OW75063   8.492   8.047   3.517 -0.0778 -0.0260 -0.3006
23248SOL    HW175064   8.501   7.955   3.542 -0.1961 -0.0286 -0.2685
23248SOL    HW275065   8.515   8.049   3.424  1.0403  0.0934 -0.0398
23249SOL     OW75066   7.981   7.288   5.851 -0.4215 -0.1975  0.2547
23249SOL    HW175067   7.901   7.269   5.801  0.9973 -2.4937 -1.3557
23249SOL    HW275068   8.029   7.205   5.851  2.3263  1.2894  0.4971
23250SOL     OW75069   1.190   7.670   2.539  0.5654 -0.3335  0.4886
23250SOL    HW175070   1.098   7.689   2.559  0.5319  0.2563 -0.1774
23250SOL    HW275071   1.215   7.739   2.477  0.7080 -1.9589 -1.3658
23251SOL     OW75072   4.790  11.775   8.821 -0.0251  0.4460  0.4309
23251SOL    HW175073   4.737  11.700   8.847  1.3516 -0.1421  1.6847
23251SOL    HW275074   4.732  11.851   8.835 -0.9250 -0.2551  0.5985
23252SOL     OW75075   4.812   5.404   0.371  0.0409 -0.4178  0.0194
23252SOL    HW175076   4.896   5.449   0.378 -0.6551  0.9987 -0.3066
23252SOL    HW275077   4.796   5.369   0.458  1.8150 -2.3624 -0.3600
23253SOL     OW75078   9.087   1.387  10.367  0.0947  0.4307 -0.3634
23253SOL    HW175079   9.136   1.318  10.322 -1.2613 -1.8434  1.4467
23253SOL    HW275080   9.149   1.423  10.430  1.6346  2.8290 -3.0015
23254SOL     OW75081   7.406   2.091   9.484  0.2403 -0.3063  0.4953
23254SOL    HW175082   7.333   2.059   9.432 -1.1537  0.4178  1.8868
23254SOL    HW275083   7.375   2.176   9.518  1.1781 -0.6065  2.2154
23255SOL     OW75084   6.120   3.434   2.106  0.3568 -0.3783 -0.4006
23255SOL    HW175085   6.087   3.455   2.193 -1.1960 -0.7622 -0.8775
23255SOL    HW275086   6.214   3.421   2.119 -0.1102 -2.2897  1.5569
23256SOL     OW75087   1.010   5.373  11.540 -0.6133 -0.4731 -0.1197
23256SOL    HW175088   0.921   5.407  11.532 -0.6719 -0.6149 -0.0633
23256SOL    HW275089   1.049   5.389  11.454 -0.7475 -0.5678 -0.1989
23257SOL     OW75090  11.733   3.414   5.469  0.2491 -0.8519  0.5161
23257SOL    HW175091  11.719   3.327   5.431 -0.4971 -0.4596 -0.1306
23257SOL    HW275092  11.645   3.446   5.488  0.5540 -0.4766  1.3071
23258SOL     OW75093   7.759   9.130   8.299 -0.5525 -0.0469  0.0158
23258SOL    HW175094   7.675   9.158   8.262 -0.3106  0.9829  0.2004
23258SOL    HW275095   7.794   9.068   8.235 -1.2390 -0.1307 -0.2912
23259SOL     OW75096   5.458   8.806   5.948  0.1038 -0.3046  0.2695
23259SOL    HW175097   5.390   8.853   5.997 -0.3972 -0.8599  0.1150
23259SOL    HW275098   5.411   8.766   5.875  1.0258  1.6627 -1.5275
23260SOL     OW75099   6.317   9.831  10.131 -0.2188 -0.1412 -0.1423
23260SOL    HW175100   6.331   9.924  10.150 -1.4753  0.2414 -0.8844
23260SOL    HW275101   6.297   9.792  10.216  1.5609 -0.0055  0.3638
23261SOL     OW75102   6.272   7.283  10.710 -0.1964 -0.2750 -0.2435
23261SOL    HW175103   6.234   7.364  10.743  1.8327  0.0049  1.6442
23261SOL    HW275104   6.251   7.217  10.776  1.1438 -0.4651  0.0200
23262SOL     OW75105   5.818   7.871   7.719 -0.1570 -0.1303 -0.1907
23262SOL    HW175106   5.814   7.919   7.801 -0.4384  0.2180 -0.4008
23262SOL    HW275107   5.862   7.931   7.659 -1.1021  0.1392 -0.6348
23263SOL     OW75108   7.445   8.467   6.116  1.1337  0.1482  0.2606
23263SOL    HW175109   7.435   8.388   6.168 -0.4016  0.8042  1.0290
23263SOL    HW275110   7.435   8.539   6.178  1.5974  0.9612 -0.5660
23264SOL     OW75111   9.585   3.839  11.742 -0.0206 -0.2665  0.4365
23264SOL    HW175112   9.506   3.797  11.707 -0.1112  1.2779 -1.3378
23264SOL    HW275113   9.583   3.927  11.706  0.6799  0.9999  3.2176
23265SOL     OW75114   5.446   4.302   1.820 -0.1698 -0.1279 -0.1165
23265SOL    HW175115   5.541   4.312   1.820 -0.0730 -0.6004  2.3113
23265SOL    HW275116   5.430   4.218   1.863 -1.7296  0.4884  0.5834
23266SOL     OW75117   5.516   8.103   4.938  0.4487 -0.2878  0.5680
23266SOL    HW175118   5.532   8.132   4.849 -0.0958  2.2058  1.2178
23266SOL    HW275119   5.529   8.008   4.935  1.3645 -0.1496 -1.9238
23267SOL     OW75120   1.697   6.786   6.997 -0.2882 -0.7036 -0.6219
23267SOL    HW175121   1.665   6.700   7.023 -0.3513 -0.6228 -0.4314
23267SOL    HW275122   1.633   6.817   6.933 -0.4903 -0.6192 -0.3777
23268SOL     OW75123   1.021  10.454   2.248  0.4679  0.2480  0.5779
23268SOL    HW175124   0.975  10.534   2.275  0.9256  0.5922  0.3469
23268SOL    HW275125   1.022  10.459   2.152 -2.8417 -1.8886  0.2739
23269SOL     OW75126   4.150   4.821   3.315 -0.5062  0.2837 -0.0313
23269SOL    HW175127   4.245   4.811   3.317 -0.5565 -0.1472  0.3088
23269SOL    HW275128   4.129   4.871   3.394 -0.3736  2.1283 -1.1176
23270SOL     OW75129   9.812   4.826  11.469 -0.3238 -0.0935 -0.1952
23270SOL    HW175130   9.840   4.756  11.410  0.3281  0.8723 -1.0644
23270SOL    HW275131   9.716   4.822  11.466 -0.2959 -0.8900 -0.2824
23271SOL     OW75132   6.051   6.664   2.472  0.2556 -0.0483 -0.0945
23271SOL    HW175133   6.078   6.650   2.382  1.5259  3.2020 -0.3314
23271SOL    HW275134   5.960   6.693   2.466  0.7238  1.3958 -0.4847
23272SOL     OW75135   8.609   5.322   9.967 -0.1158 -0.2927 -0.2407
23272SOL    HW175136   8.591   5.255  10.034 -1.4498 -0.5362 -0.8091
23272SOL    HW275137   8.663   5.387  10.012 -1.8973  0.1102  1.4305
23273SOL     OW75138   9.440   2.617   9.632 -0.4434 -0.2656  0.4504
23273SOL    HW175139   9.431   2.711   9.644 -0.4407 -0.0457 -1.0531
23273SOL    HW275140   9.484   2.608   9.547 -0.4589 -1.6242  0.5649
23274SOL     OW75141   3.926   0.644   3.935  0.2539  0.7389 -0.6591
23274SOL    HW175142   3.864   0.623   4.005 -0.6624  1.3802 -1.2458
23274SOL    HW275143   3.993   0.576   3.941 -0.5945 -0.0790 -0.1067
23275SOL     OW75144   0.148   8.300   8.738 -0.1988  0.3177 -0.0932
23275SOL    HW175145   0.110   8.239   8.800  1.8259  0.9527  1.9163
23275SOL    HW275146   0.120   8.269   8.652 -0.3590 -2.5867  0.9276
23276SOL     OW75147  10.144   7.136   3.008  0.6019  0.2927  0.0494
23276SOL    HW175148  10.103   7.222   2.996  0.6443  0.3773  0.5267
23276SOL    HW275149  10.136   7.118   3.101 -1.3790 -1.1922 -0.3473
23277SOL     OW75150  10.431   1.854   1.088 -0.3140 -0.5324  0.3208
23277SOL    HW175151  10.518   1.888   1.067 -0.3686  0.0049  0.9218
23277SOL    HW275152  10.372   1.928   1.072 -0.4046 -0.2089  1.9565
23278SOL     OW75153   1.138   9.197   9.104 -0.0356 -0.0590  0.2807
23278SOL    HW175154   1.162   9.125   9.162 -0.0442  0.1205  0.5093
23278SOL    HW275155   1.209   9.260   9.113 -0.2814  0.1948  0.4845
23279SOL     OW75156   6.480   9.090   4.070 -0.2711  0.3427 -0.0500
23279SOL    HW175157   6.456   9.069   3.980 -0.2792 -1.8076  0.3983
23279SOL    HW275158   6.397   9.092   4.117 -0.1638  0.1648  0.1492
23280SOL     OW75159   9.907   6.828   3.885  0.0806  0.2103 -0.1539
23280SOL    HW175160   9.864   6.911   3.907 -0.3329 -0.4777  1.8231
23280SOL    HW275161   9.942   6.842   3.797 -1.0127  2.0624 -0.3467
23281SOL     OW75162   8.279   1.626   8.754 -0.6872  0.4204 -0.3643
23281SOL    HW175163   8.288   1.581   8.837 -3.1478  0.1316 -0.1879
23281SOL    HW275164   8.331   1.706   8.764 -0.1645 -0.0762  1.0655
23282SOL     OW75165   3.640   2.358   5.271 -0.2152 -0.3603 -0.1877
23282SOL    HW175166   3.567   2.305   5.304 -1.3664 -0.4616 -2.7074
23282SOL    HW275167   3.716   2.299   5.277 -1.0168 -1.4795 -0.7060
23283SOL     OW75168   8.019   0.468   0.793 -0.2011  0.0036  0.4685
23283SOL    HW175169   7.975   0.517   0.723  1.6363  0.4012 -0.4648
23283SOL    HW275170   8.038   0.534   0.860  0.7355  0.2613 -0.0289
23284SOL     OW75171  10.400   2.158   6.040 -0.1864  0.2375  0.5381
23284SOL    HW175172  10.386   2.229   6.102 -0.3196 -0.6687  1.5899
23284SOL    HW275173  10.484   2.178   5.999 -0.4097  1.1951  0.5236
23285SOL     OW75174  11.193  11.311  11.691  0.1715 -0.3565  0.0937
23285SOL    HW175175  11.185  11.311  11.595 -2.7204 -0.2827  0.2506
23285SOL    HW275176  11.165  11.223  11.717 -1.3032  0.3291  0.9453
23286SOL     OW75177   7.454  11.388   3.089  0.5509 -0.1358 -0.1306
23286SOL    HW175178   7.374  11.414   3.044  0.1450 -1.4630 -0.2344
23286SOL    HW275179   7.466  11.453   3.158 -0.6170  0.0677 -0.1073
23287SOL     OW75180   7.375   3.291   7.290  0.1326  0.4257 -0.1044
23287SOL    HW175181   7.394   3.319   7.201  0.0401  2.3104  0.4284
23287SOL    HW275182   7.391   3.369   7.344 -1.4306 -0.1744  1.3191
23288SOL     OW75183   2.972   9.589   8.858 -0.2232  0.2893 -0.5804
23288SOL    HW175184   2.998   9.550   8.941  1.7616  1.0427 -0.7973
23288SOL    HW275185   2.983   9.683   8.871 -3.0504  0.7297 -0.6912
23289SOL     OW75186  11.649   5.734   9.925 -0.6725  0.1077  0.0947
23289SOL    HW175187  11.573   5.791   9.940 -1.6524 -1.0134 -0.4541
23289SOL    HW275188  11.718   5.794   9.895 -1.1374  1.2287  1.1358
23290SOL     OW75189   2.524   8.992  11.453  0.1491  0.2611  0.5152
23290SOL    HW175190   2.528   8.998  11.548 -2.9440  0.4076  0.7201
23290SOL    HW275191   2.610   8.958  11.428  0.5788 -1.1257  3.4597
23291SOL     OW75192   4.185  10.283   4.586  0.0503 -0.4028 -0.1352
23291SOL    HW175193   4.129  10.231   4.644  1.7777 -1.4227  0.6951
23291SOL    HW275194   4.177  10.241   4.500 -1.1046 -0.0094 -0.2301
23292SOL     OW75195   1.279   9.920   8.702 -0.5869 -0.4188  0.0964
23292SOL    HW175196   1.285   9.846   8.762  1.8147 -0.5074 -0.1445
23292SOL    HW275197   1.370   9.935   8.674 -0.9089  2.8158  0.4099
23293SOL     OW75198  11.575   3.448   9.880  0.3550 -0.2551  0.0759
23293SOL    HW175199  11.550   3.383   9.946 -0.5486 -0.0083 -0.0072
23293SOL    HW275200  11.670   3.442   9.876  0.2931 -1.6694 -0.0221
23294SOL     OW75201   7.760   7.022  11.246 -0.4592  0.0229 -0.2265
23294SOL    HW175202   7.852   7.020  11.220 -0.5664  3.2720 -1.2898
23294SOL    HW275203   7.759   7.072  11.327 -1.0363 -3.0690  1.8534
23295SOL     OW75204   4.304   8.989  11.236  0.3456 -0.5851  0.0642
23295SOL    HW175205   4.245   8.921  11.202  0.6937 -0.7023 -0.3024
23295SOL    HW275206   4.390   8.965  11.203  0.7501 -0.8580  1.2467
23296SOL     OW75207   9.071   3.898   3.174  0.3099  0.4234 -0.0818
23296SOL    HW175208   9.007   3.850   3.123  0.2880 -0.6632  0.9300
23296SOL    HW275209   9.103   3.966   3.115 -0.1922 -0.3721 -1.2936
23297SOL     OW75210  10.986   8.409   7.799 -0.2565 -0.1042  0.0524
23297SOL    HW175211  10.916   8.367   7.749 -0.2381 -0.4516  0.3106
23297SOL    HW275212  11.055   8.343   7.804  0.1760  0.3096 -0.3727
23298SOL     OW75213   4.167  10.321   2.405  0.3480 -0.0167 -0.5382
23298SOL    HW175214   4.099  10.374   2.446  0.1254 -0.5341 -0.2206
23298SOL    HW275215   4.147  10.231   2.434  2.7147  0.0842  1.7791
23299SOL     OW75216  10.780   5.666   9.502 -0.2721 -0.0514 -0.1733
23299SOL    HW175217  10.687   5.692   9.500 -0.8633 -1.9623  0.2198
23299SOL    HW275218  10.798   5.639   9.411 -0.1704  0.1087 -0.1999
23300SOL     OW75219   3.524   2.081   8.020 -0.1808  0.1580  0.7610
23300SOL    HW175220   3.549   2.163   7.976 -0.2252  0.9825  2.2191
23300SOL    HW275221   3.607   2.034   8.031  0.0341  0.6159  1.1142
23301SOL     OW75222   8.973   0.571   6.427 -0.1415 -0.4263 -0.3528
23301SOL    HW175223   8.897   0.612   6.387  0.5009  0.5826 -0.5862
23301SOL    HW275224   8.945   0.546   6.515 -1.4811 -2.3733 -1.2660
23302SOL     OW75225   2.173   7.784   7.651 -0.1919 -0.3342  0.4091
23302SOL    HW175226   2.106   7.819   7.593  2.1499  0.5089 -1.9326
23302SOL    HW275227   2.223   7.860   7.679 -0.4007 -0.8983  2.4901
23303SOL     OW75228  10.910   6.164   4.989 -0.4025  0.3195 -0.5992
23303SOL    HW175229  10.815   6.170   4.996 -0.6666 -2.4033 -1.0337
23303SOL    HW275230  10.940   6.254   5.001 -3.0269  1.2967 -0.7153
23304SOL     OW75231   2.694   8.236   0.762 -0.2038 -0.1074 -0.2968
23304SOL    HW175232   2.649   8.183   0.696  1.0347 -0.3706 -0.9540
23304SOL    HW275233   2.768   8.274   0.716  0.5080 -0.0380  0.8748
23305SOL     OW75234   1.260   8.158   7.775  0.2309 -0.1104 -0.0650
23305SOL    HW175235   1.345   8.120   7.753 -0.2111 -0.9925 -0.3097
23305SOL    HW275236   1.223   8.184   7.691  1.4505  3.0145  0.2351
23306SOL     OW75237   0.709   0.666   4.438 -0.1757 -0.5126 -0.4122
23306SOL    HW175238   0.758   0.623   4.369  2.0964 -0.0744  0.8103
23306SOL    HW275239   0.738   0.622   4.519 -0.0064  1.2912  0.5693
23307SOL     OW75240   5.402   0.280   2.100 -0.3021  0.6431 -0.5954
23307SOL    HW175241   5.350   0.231   2.163 -0.4960 -0.8606 -1.8703
23307SOL    HW275242   5.485   0.232   2.094  0.0814  1.3067 -0.8102
23308SOL     OW75243   2.514   3.303   8.388  0.2622 -0.4573 -0.4724
23308SOL    HW175244   2.562   3.363   8.446 -0.8005  0.5002 -0.5591
23308SOL    HW275245   2.468   3.360   8.327 -1.0273 -1.3395 -0.3659
23309SOL     OW75246  10.974   4.763   2.081 -0.4924 -0.4078 -0.5465
23309SOL    HW175247  11.004   4.802   2.163  0.7572 -2.2414 -0.0718
23309SOL    HW275248  10.936   4.679   2.106 -2.2559  0.0092 -1.6299
23310SOL     OW75249   2.012  10.186   9.696  0.4576  0.3740  0.0343
23310SOL    HW175250   1.931  10.154   9.735 -0.8109  2.2323 -0.8979
23310SOL    HW275251   2.057  10.232   9.767  0.6658 -0.5791  0.5296
23311SOL     OW75252   0.524   2.718   4.651 -0.2701 -0.2749 -0.4077
23311SOL    HW175253   0.618   2.714   4.634 -0.8340 -1.1794 -4.3696
23311SOL    HW275254   0.499   2.806   4.624 -0.7812 -0.6549 -1.2140
23312SOL     OW75255   1.229   6.921   8.520  0.3254 -0.3210 -0.3693
23312SOL    HW175256   1.271   6.913   8.606 -0.8470  0.5594  0.3201
23312SOL    HW275257   1.143   6.960   8.539 -0.0068 -0.2304 -1.9332
23313SOL     OW75258  11.618   1.459   9.482 -0.0437 -0.0654  0.4247
23313SOL    HW175259  11.667   1.438   9.561 -1.3680 -0.8441  1.0698
23313SOL    HW275260  11.540   1.505   9.513 -0.7017 -0.5997 -0.3893
23314SOL     OW75261   9.757   2.087   3.924 -0.0122 -0.2881 -0.0714
23314SOL    HW175262   9.728   2.024   3.857  0.4476 -1.1160  0.4874
23314SOL    HW275263   9.816   2.146   3.877 -0.3489 -0.3463 -0.5776
23315SOL     OW75264   7.745   5.707   8.381  0.5218  0.3076 -0.0504
23315SOL    HW175265   7.668   5.657   8.409  0.5320  0.5725  0.4631
23315SOL    HW275266   7.774   5.664   8.301 -0.0769  0.1159 -0.1683
23316SOL     OW75267  11.654   2.240   1.092 -0.4040  0.6955  0.2080
23316SOL    HW175268  11.610   2.225   1.008  1.2132 -0.2177 -0.5077
23316SOL    HW275269  11.582   2.243   1.156 -1.4568 -1.9235 -0.7361
23317SOL     OW75270   7.157  10.506   6.063  0.7510  0.0773  0.4209
23317SOL    HW175271   7.103  10.532   5.989 -0.2270 -2.7268 -0.0074
23317SOL    HW275272   7.104  10.529   6.140 -0.4347 -1.2170  0.0445
23318SOL     OW75273   7.048   6.250   4.515  0.2403  0.2274  0.1588
23318SOL    HW175274   6.965   6.235   4.560 -0.9936  0.6946 -1.8415
23318SOL    HW275275   7.023   6.280   4.428  2.5073 -0.5986 -0.8545
23319SOL     OW75276   1.718   4.017   8.648  0.4936 -0.2106 -0.5727
23319SOL    HW175277   1.644   3.958   8.629  0.7852 -0.4507 -0.9831
23319SOL    HW275278   1.775   4.009   8.572  0.8373  0.1417 -0.3554
23320SOL     OW75279   3.666  11.177   8.207  0.1219 -0.3959  0.6555
23320SOL    HW175280   3.648  11.083   8.216 -0.4237 -0.2153  1.6761
23320SOL    HW275281   3.680  11.207   8.297 -0.2182  0.5920  0.3929
23321SOL     OW75282   0.726  10.417   8.782 -0.8131  0.3154  0.4595
23321SOL    HW175283   0.767  10.332   8.798 -1.3656  0.0319  0.3705
23321SOL    HW275284   0.686  10.409   8.695 -1.8885  0.2643  0.9445
23322SOL     OW75285  11.541  11.341   0.681  0.0631  0.1739  0.7625
23322SOL    HW175286  11.630  11.322   0.653  0.1066  1.4787 -0.0362
23322SOL    HW275287  11.502  11.255   0.697  0.9467 -0.4876 -0.4897
23323SOL     OW75288   5.624   9.093   2.083 -0.0113  0.1817 -0.0716
23323SOL    HW175289   5.670   9.115   2.164 -1.0369 -0.7737  0.8127
23323SOL    HW275290   5.650   9.004   2.063 -1.1004 -0.2153  0.1988
23324SOL     OW75291   6.158   9.973   4.107  0.6044 -0.5485  0.7587
23324SOL    HW175292   6.105   9.945   4.182  2.3143  1.1749  2.7394
23324SOL    HW275293   6.134  10.064   4.093  2.5109  0.0768  1.2774
23325SOL     OW75294   3.968   0.497   4.585 -0.1894  0.3092  0.1666
23325SOL    HW175295   4.045   0.553   4.592 -0.0162  0.2264 -0.8930
23325SOL    HW275296   3.992   0.417   4.631 -0.6741  1.3000  2.2887
23326SOL     OW75297   3.419  10.063   1.808  0.1186 -0.3271 -0.3740
23326SOL    HW175298   3.376   9.990   1.763 -0.3791 -1.8151  2.3353
23326SOL    HW275299   3.353  10.095   1.870  1.2205  0.7270  0.2860
23327SOL     OW75300   4.908   6.227   7.601  0.0328  0.1175 -0.0076
23327SOL    HW175301   4.888   6.269   7.518  1.1567  0.5757 -0.0538
23327SOL    HW275302   4.857   6.146   7.600 -0.5497  0.4834 -0.8027
23328SOL     OW75303   8.145  10.610  11.486  0.3143  0.5657  0.4186
23328SOL    HW175304   8.092  10.532  11.471  0.0973  0.8309 -0.2098
23328SOL    HW275305   8.147  10.619  11.581 -1.4139  0.9839  0.4385
23329SOL     OW75306   0.132   1.237   8.422 -0.7793  0.2326 -0.6799
23329SOL    HW175307   0.094   1.195   8.345  0.9714  0.4972 -1.7251
23329SOL    HW275308   0.193   1.302   8.387  2.0407 -1.4127  0.8239
23330SOL     OW75309   5.287  11.313   9.946  0.1034  0.4288  0.3837
23330SOL    HW175310   5.210  11.307  10.004  0.8531 -1.3437  1.2913
23330SOL    HW275311   5.253  11.354   9.866 -1.1606  2.1643  1.7190
23331SOL     OW75312   2.527   9.589   8.783  0.3338 -0.3187 -0.5888
23331SOL    HW175313   2.511   9.658   8.848  1.7587 -1.8867  1.5788
23331SOL    HW275314   2.615   9.606   8.751  0.6255 -1.0162 -0.1723
23332SOL     OW75315   5.376  10.448   3.465 -0.3023  0.4261 -0.3140
23332SOL    HW175316   5.434  10.501   3.519  0.1227  0.2094 -0.5564
23332SOL    HW275317   5.434  10.395   3.410 -0.7221  0.1021 -0.4598
23333SOL     OW75318   9.022  11.538   0.094  0.0433 -0.3485  0.4047
23333SOL    HW175319   9.061  11.600   0.033  1.6553 -0.6927  1.0400
23333SOL    HW275320   8.928  11.542   0.076  0.4604 -0.5998 -2.2511
23334SOL     OW75321   8.250   5.970   6.938 -0.1503  0.0361  0.1565
23334SOL    HW175322   8.188   6.009   7.000  0.9868  0.0182  1.3280
23334SOL    HW275323   8.255   6.033   6.866 -1.2730  0.1855  0.1940
23335SOL     OW75324   2.262   6.134   3.841  0.4577 -0.4080  0.3599
23335SOL    HW175325   2.346   6.089   3.849  0.5776  0.0217  1.6394
23335SOL    HW275326   2.285   6.220   3.805  0.5545 -0.3369  0.5890
23336SOL     OW75327   9.552   5.055   6.567  0.6480 -0.4570 -0.1733
23336SOL    HW175328   9.524   4.971   6.531  0.3364 -0.7608  0.7510
23336SOL    HW275329   9.595   5.100   6.494 -3.1524  0.5276 -2.0585
23337SOL     OW75330   6.108   9.675   9.376 -0.1770  0.4362  0.0296
23337SOL    HW175331   6.153   9.643   9.455  0.9019  1.9621  0.0814
23337SOL    HW275332   6.017   9.685   9.403  0.2203  1.1642  1.1877
23338SOL     OW75333   3.117  10.992  11.696 -0.4572 -0.2663  0.5432
23338SOL    HW175334   3.152  10.935  11.628  0.4332  0.2382  0.5691
23338SOL    HW275335   3.071  10.932  11.756 -1.6649 -0.6654 -0.7244
23339SOL     OW75336   3.971   0.159   9.567 -0.1496 -0.0610  0.1082
23339SOL    HW175337   3.971   0.239   9.513 -1.2025  0.0188  0.1957
23339SOL    HW275338   3.910   0.101   9.522 -0.0697 -0.4764  0.5371
23340SOL     OW75339   1.616   9.908  11.245 -0.0289 -0.2831  0.1636
23340SOL    HW175340   1.640   9.824  11.285 -0.7178 -0.6660 -0.2113
23340SOL    HW275341   1.566   9.954  11.313  2.1752  0.7787  1.1778
23341SOL     OW75342   1.196   1.352   5.155  0.1239  0.1178  0.2962
23341SOL    HW175343   1.263   1.396   5.104 -0.4395  0.5628 -0.0695
23341SOL    HW275344   1.226   1.358   5.246  0.7481 -0.0040  0.0997
23342SOL     OW75345  11.431   9.153   8.572  0.2838  0.3412 -0.2413
23342SOL    HW175346  11.447   9.059   8.585  0.2543  0.2544 -0.7880
23342SOL    HW275347  11.339   9.158   8.546  0.2955  0.5158 -0.2461
23343SOL     OW75348  11.708   8.429  10.060  0.5735  0.3709 -0.4997
23343SOL    HW175349  11.630   8.474  10.027  0.2010  0.8058  0.8861
23343SOL    HW275350  11.769   8.499  10.083  0.8587  0.0817 -0.3712
23344SOL     OW75351   0.849   2.787   0.527  0.0175  0.0276 -0.6157
23344SOL    HW175352   0.784   2.728   0.565 -0.2786  1.3181  0.9550
23344SOL    HW275353   0.857   2.859   0.589  0.8579  1.3393 -2.1552
23345SOL     OW75354   7.617   8.509   6.747  0.0030  0.0740  0.0898
23345SOL    HW175355   7.551   8.530   6.813 -1.5976 -3.1603 -0.2944
23345SOL    HW275356   7.700   8.510   6.796 -0.7707  0.6559  1.4469
23346SOL     OW75357   8.417   7.550   2.303  0.4910 -0.2355  0.3076
23346SOL    HW175358   8.447   7.616   2.365 -0.6920  1.2090 -0.5820
23346SOL    HW275359   8.488   7.540   2.240  0.6517  0.2296  0.4187
23347SOL     OW75360   5.678   7.832   4.599 -0.0206 -0.1171 -0.3125
23347SOL    HW175361   5.698   7.905   4.541  0.5274 -0.0515 -0.0482
23347SOL    HW275362   5.759   7.781   4.603 -0.5164 -0.9683 -0.8177
23348SOL     OW75363   9.141  10.771   2.204 -0.3307  0.1489 -0.3064
23348SOL    HW175364   9.185  10.846   2.245  0.2065 -0.5635  0.4607
23348SOL    HW275365   9.091  10.731   2.276  0.8760 -1.3110 -0.2282
23349SOL     OW75366  10.567  10.255   1.753  0.1476  0.2743  0.1369
23349SOL    HW175367  10.474  10.241   1.771  0.1304  0.8289  0.5013
23349SOL    HW275368  10.589  10.189   1.687 -0.2539 -0.5490  0.8005
23350SOL     OW75369   5.509   2.028   8.660  0.0987  0.1642 -0.1874
23350SOL    HW175370   5.426   2.050   8.617 -0.2022 -0.1424  0.2276
23350SOL    HW275371   5.484   2.005   8.750  0.4970 -0.9882 -0.3552
23351SOL     OW75372   4.951  11.025   5.360 -0.2315  0.4327  0.6572
23351SOL    HW175373   4.944  10.929   5.364  0.8889  0.1651 -2.0825
23351SOL    HW275374   4.912  11.048   5.276  1.5688  2.1624  0.2444
23352SOL     OW75375   0.162   8.037   3.984 -0.0661  0.2937 -0.0276
23352SOL    HW175376   0.154   7.972   3.915  0.0789 -0.2009  0.4089
23352SOL    HW275377   0.256   8.047   3.998 -0.0512  1.3086 -0.7356
23353SOL     OW75378   2.650   5.223   4.834 -0.1304  0.4973  0.0175
23353SOL    HW175379   2.640   5.290   4.902  0.7480  0.3096  0.3415
23353SOL    HW275380   2.695   5.267   4.763  1.8174 -0.1059  0.8243
23354SOL     OW75381   6.439   3.385   4.166  0.7533 -0.0590  0.3703
23354SOL    HW175382   6.476   3.369   4.253  0.5311  1.1106  0.7023
23354SOL    HW275383   6.446   3.480   4.155 -0.9685  0.0432 -0.1020
23355SOL     OW75384   8.984   5.784   9.489  0.1324  0.0721  0.1942
23355SOL    HW175385   8.892   5.778   9.515  0.5973 -2.0016  1.6333
23355SOL    HW275386   9.010   5.873   9.512 -0.2316 -0.7646  4.6402
23356SOL     OW75387   2.800   9.683   4.093  0.0843  0.2813 -0.1209
23356SOL    HW175388   2.806   9.773   4.125 -1.6359  0.3872  0.0103
23356SOL    HW275389   2.882   9.668   4.048 -0.3090  2.5937 -1.7882
23357SOL     OW75390   7.908   3.772   9.579 -0.1647 -0.3675 -0.4226
23357SOL    HW175391   7.976   3.718   9.619  0.8032  0.7164 -0.5475
23357SOL    HW275392   7.828   3.720   9.587  0.0011 -0.3299  2.7447
23358SOL     OW75393   1.103   6.214   8.938  0.4298 -0.1630  0.7507
23358SOL    HW175394   1.135   6.128   8.966 -0.0901 -0.9165 -0.8821
23358SOL    HW275395   1.166   6.243   8.873 -0.6412 -0.3738 -0.4102
23359SOL     OW75396   7.592   6.992   3.922  0.4450  0.0542  0.0224
23359SOL    HW175397   7.675   7.011   3.880  0.3674 -1.4127 -0.8530
23359SOL    HW275398   7.610   7.001   4.016  0.9108  2.2288 -0.2221
23360SOL     OW75399   4.408   3.372   7.647  0.0174  0.7406  0.2380
23360SOL    HW175400   4.340   3.387   7.581  1.5385 -0.7174 -1.7611
23360SOL    HW275401   4.470   3.444   7.635  0.4710  0.2857 -0.1756
23361SOL     OW75402   4.902   4.063   9.765  0.2550  0.5128  0.0892
23361SOL    HW175403   4.828   4.120   9.785  0.8320  1.1779  0.3650
23361SOL    HW275404   4.970   4.089   9.827  1.1806  0.8284 -1.0261
23362SOL     OW75405   0.111  10.940   7.399  0.7661  0.2299  0.0743
23362SOL    HW175406   0.035  10.991   7.370  0.1805 -0.6980 -0.0536
23362SOL    HW275407   0.114  10.865   7.340  2.1350  0.5429 -0.2892
23363SOL     OW75408   8.146   6.656   7.719  0.2855 -0.8336 -0.5511
23363SOL    HW175409   8.163   6.749   7.737  1.1718 -1.2689  1.0859
23363SOL    HW275410   8.056   6.642   7.747  0.2185 -0.5222 -0.6014
23364SOL     OW75411   9.410   6.720   0.945  0.2528 -1.0744  0.1332
23364SOL    HW175412   9.429   6.684   1.032  1.7023 -4.0697 -1.2588
23364SOL    HW275413   9.494   6.718   0.899 -0.4329  0.6195 -1.3163
23365SOL     OW75414  10.958   5.943   9.243 -0.3502 -0.2375  0.0977
23365SOL    HW175415  10.868   5.934   9.274 -0.8464 -0.1218 -1.2769
23365SOL    HW275416  10.955   6.013   9.179  1.0744  1.0129  1.3136
23366SOL     OW75417   9.646   7.442  11.207 -0.2048 -0.1422  0.0299
23366SOL    HW175418   9.707   7.516  11.207 -0.6947  0.2687 -1.2249
23366SOL    HW275419   9.688   7.378  11.266  0.9553  0.5227 -0.0334
23367SOL     OW75420   6.212   4.642   2.198 -0.0840  0.2214  0.7990
23367SOL    HW175421   6.299   4.673   2.222  2.2981 -3.6578 -1.8444
23367SOL    HW275422   6.185   4.698   2.126  0.1486  1.4474  1.6381
23368SOL     OW75423   8.400   5.392   8.226 -0.3524 -0.3454  0.2251
23368SOL    HW175424   8.474   5.332   8.225  0.0499  0.1505 -0.2734
23368SOL    HW275425   8.347   5.363   8.301  0.1237 -0.9606  0.3342
23369SOL     OW75426   0.477   8.187   8.027  0.4876  0.7564 -0.4875
23369SOL    HW175427   0.501   8.207   7.936 -0.5491 -1.3461 -1.2959
23369SOL    HW275428   0.464   8.092   8.028  0.1527  0.7692  1.7997
23370SOL     OW75429   4.654   3.565   0.554  0.2283 -0.3279 -0.2892
23370SOL    HW175430   4.749   3.570   0.562  0.0470  0.2622  2.0418
23370SOL    HW275431   4.636   3.471   0.550  0.8080 -0.5195  1.1434
23371SOL     OW75432   5.214   3.099   4.268  0.0865  0.1580  0.3348
23371SOL    HW175433   5.248   3.020   4.309 -1.3070 -0.0232  1.2255
23371SOL    HW275434   5.134   3.071   4.223  0.5654  0.7241 -0.9160
23372SOL     OW75435   5.976   2.907   9.754 -0.0472  0.0518  0.0537
23372SOL    HW175436   5.976   2.982   9.694 -0.9212  0.6057  0.7371
23372SOL    HW275437   6.065   2.905   9.789  1.0904 -1.4076 -2.6011
23373SOL     OW75438   4.018  11.273   3.691 -0.2151  0.6616 -0.0633
23373SOL    HW175439   3.983  11.361   3.700 -2.1558 -0.1127  0.5891
23373SOL    HW275440   4.112  11.282   3.704 -0.6152  2.3386  2.0582
23374SOL     OW75441   9.373   3.166   7.679  0.3125 -0.1043  0.1284
23374SOL    HW175442   9.300   3.214   7.718 -0.2192 -0.8838  0.1103
23374SOL    HW275443   9.449   3.194   7.730 -0.2709 -0.6200  1.3389
23375SOL     OW75444   9.711   6.627   4.164 -0.6739 -0.1227 -0.3616
23375SOL    HW175445   9.789   6.645   4.216 -1.0056  1.8767 -0.4841
23375SOL    HW275446   9.638   6.657   4.218 -1.0952  1.0697 -1.5594
23376SOL     OW75447   5.501   1.068   8.148  0.2470  0.9514  0.1652
23376SOL    HW175448   5.515   1.053   8.242  2.0933 -0.2400 -0.2521
23376SOL    HW275449   5.589   1.072   8.111 -0.4333 -0.7982 -1.8241
23377SOL     OW75450   1.472   3.951   9.978 -0.5208  0.2250  0.3625
23377SOL    HW175451   1.473   4.025  10.039  3.7069 -0.4767  1.4739
23377SOL    HW275452   1.446   3.989   9.894 -0.3297  2.5778  1.2909
23378SOL     OW75453   3.519   8.492   5.269 -0.2046  0.1822 -0.7566
23378SOL    HW175454   3.610   8.513   5.288 -0.7337 -0.4215  3.1756
23378SOL    HW275455   3.508   8.402   5.298 -2.5926  1.0705  1.4810
23379SOL     OW75456   3.930   9.680  11.554 -0.0412 -0.3567  0.2031
23379SOL    HW175457   4.001   9.629  11.515  0.4202  0.1233  0.4038
23379SOL    HW275458   3.851   9.652  11.506  0.5020  0.1617 -1.0421
23380SOL     OW75459   1.269  11.793   9.713 -0.3734  0.0334  0.3578
23380SOL    HW175460   1.193  11.837   9.751 -0.0524  0.1230  0.9115
23380SOL    HW275461   1.344  11.841   9.748 -0.0309 -0.7034  0.6485
23381SOL     OW75462   0.158   0.476   6.604 -0.3063 -0.5587  0.3942
23381SOL    HW175463   0.088   0.500   6.544  1.8839  0.3181 -1.9855
23381SOL    HW275464   0.165   0.551   6.663 -1.0418 -0.4698  0.3842
23382SOL     OW75465  10.406   2.622   9.572 -0.0986 -0.3105  0.2493
23382SOL    HW175466  10.479   2.681   9.553 -0.0461 -0.3987  0.1810
23382SOL    HW275467  10.446   2.547   9.616 -0.0833 -0.5890 -0.2411
23383SOL     OW75468   3.429   5.779   9.471 -0.0720 -0.3286  0.8899
23383SOL    HW175469   3.458   5.718   9.404 -0.0502  1.1934 -0.5363
23383SOL    HW275470   3.340   5.750   9.492 -0.6331 -0.0045 -0.8597
23384SOL     OW75471   1.382   2.171   8.558  0.6791  0.4331 -0.2121
23384SOL    HW175472   1.471   2.138   8.570  0.1170 -1.8408 -1.6008
23384SOL    HW275473   1.330   2.124   8.623  0.1112 -0.2473 -1.1341
23385SOL     OW75474   4.406  10.946   0.725 -0.2023  0.4294 -0.1738
23385SOL    HW175475   4.398  11.040   0.738  2.1182  0.5643  0.5708
23385SOL    HW275476   4.498  10.926   0.742 -0.7821 -2.0967  0.4622
23386SOL     OW75477   9.741  10.931  11.716  0.4916  0.3786  0.3667
23386SOL    HW175478   9.744  10.918  11.622  2.2048  0.4611  0.3702
23386SOL    HW275479   9.723  11.025  11.727 -1.3029  0.0820  0.1722
23387SOL     OW75480   4.795   6.890   3.665 -0.1433  0.0558 -0.5871
23387SOL    HW175481   4.865   6.863   3.605 -0.0149 -0.8127 -0.0587
23387SOL    HW275482   4.723   6.830   3.645  0.3569 -1.1598  1.0228
23388SOL     OW75483   3.187   5.406   8.368  0.2949 -0.2719 -0.3283
23388SOL    HW175484   3.168   5.343   8.298  1.8430 -1.6251  0.3844
23388SOL    HW275485   3.183   5.492   8.326 -0.0634 -0.9773 -1.7782
23389SOL     OW75486   5.944   3.959   6.668  0.4473 -0.3583  0.3915
23389SOL    HW175487   5.931   3.888   6.731  1.4310 -0.3625  0.6123
23389SOL    HW275488   5.924   3.919   6.583  1.5707 -1.1083  0.4455
23390SOL     OW75489  11.191   2.212   1.527 -0.1210 -0.1417 -0.3884
23390SOL    HW175490  11.124   2.244   1.587  0.3464  1.4724 -0.6913
23390SOL    HW275491  11.274   2.231   1.570  0.1940  0.2470 -1.1459
23391SOL     OW75492   6.328   3.361   0.874 -0.0550  0.1000 -0.0048
23391SOL    HW175493   6.316   3.384   0.782  1.4143 -1.7589 -0.7444
23391SOL    HW275494   6.249   3.312   0.898 -0.9517  1.5383  0.1156
23392SOL     OW75495   8.875   5.553   7.023 -0.0405 -0.6739 -0.3176
23392SOL    HW175496   8.864   5.459   7.040  0.5096 -0.5434  0.8714
23392SOL    HW275497   8.872   5.593   7.110 -0.6565  0.4584 -0.8502
23393SOL     OW75498   5.460   0.155   3.583 -0.1450 -0.4047  0.4677
23393SOL    HW175499   5.403   0.198   3.519  0.2953 -1.2357 -0.4997
23393SOL    HW275500   5.399   0.106   3.638 -0.3518 -2.0522 -1.1397
23394SOL     OW75501   0.416  10.439   8.926  0.1035  0.0206  0.3721
23394SOL    HW175502   0.464  10.363   8.894  0.0906  0.7233 -1.3856
23394SOL    HW275503   0.478  10.512   8.919 -0.8175  0.7146 -0.8027
23395SOL     OW75504   4.567   1.656   0.325  0.2144  0.0492  0.3245
23395SOL    HW175505   4.499   1.723   0.320 -0.9508 -1.1187  0.1884
23395SOL    HW275506   4.575   1.622   0.236  0.9474  0.1359  0.3492
23396SOL     OW75507   8.715   0.908   9.123  0.5097 -0.5313 -0.2778
23396SOL    HW175508   8.628   0.899   9.084  0.2865 -2.8503  0.5900
23396SOL    HW275509   8.751   0.820   9.122  2.5869  0.2545  0.0592
23397SOL     OW75510   4.915   3.001   5.264  0.6573  0.3739 -0.1874
23397SOL    HW175511   4.972   2.950   5.207 -0.4221 -2.5312  1.0997
23397SOL    HW275512   4.833   3.010   5.215 -0.1697 -1.8674  0.6464
23398SOL     OW75513   0.760   1.862   3.043  0.4122 -0.0676 -0.0570
23398SOL    HW175514   0.773   1.895   2.954  3.2543 -2.1669 -0.5829
23398SOL    HW275515   0.667   1.874   3.060 -0.1439  0.8752 -3.1112
23399SOL     OW75516   1.593   5.276   0.585 -0.2873 -0.0364  0.1312
23399SOL    HW175517   1.510   5.275   0.536 -0.6408  1.5494  0.6728
23399SOL    HW275518   1.641   5.351   0.550  1.7873 -1.9739 -1.4919
23400SOL     OW75519  11.382   6.252   6.997  0.5341 -0.6853 -0.2509
23400SOL    HW175520  11.298   6.234   6.956  0.2739 -0.9284  0.3776
23400SOL    HW275521  11.392   6.347   6.991 -0.1385 -0.5725  0.3530
23401SOL     OW75522   1.886   4.255   4.289  0.5825  0.5932  0.4017
23401SOL    HW175523   1.890   4.204   4.370 -1.8775  1.2499  1.0180
23401SOL    HW275524   1.853   4.194   4.223  1.2716  0.4231  0.2044
23402SOL     OW75525   8.756  10.538   7.331  0.1487  0.2439 -0.3886
23402SOL    HW175526   8.797  10.552   7.416 -0.0700  1.3150 -0.4438
23402SOL    HW275527   8.774  10.446   7.310  0.5597  0.0858  0.6159
23403SOL     OW75528   7.853  11.221   3.108  0.5494 -0.2283 -0.3242
23403SOL    HW175529   7.889  11.309   3.124  0.8476 -0.3520 -0.3193
23403SOL    HW275530   7.778  11.237   3.051  1.7323 -0.1389 -1.9307
23404SOL     OW75531   2.919   6.259   4.249 -0.2450 -0.1437 -0.2535
23404SOL    HW175532   2.862   6.282   4.323  0.4666 -0.9962  0.5910
23404SOL    HW275533   3.006   6.250   4.288  0.5136  1.2087 -1.5265
23405SOL     OW75534   2.390   0.538   4.340  0.0794  0.1317 -0.6872
23405SOL    HW175535   2.481   0.515   4.358  0.2027  1.0537 -0.0649
23405SOL    HW275536   2.390   0.633   4.335 -0.7795  0.1176 -1.1033
23406SOL     OW75537   6.832   1.146   1.921 -0.6083  0.4300  0.3152
23406SOL    HW175538   6.753   1.128   1.972 -0.6707  0.7152  0.3227
23406SOL    HW275539   6.807   1.130   1.830 -0.5587  0.1313  0.3542
23407SOL     OW75540   3.557   8.426   1.379 -0.2702 -0.0133 -0.2859
23407SOL    HW175541   3.477   8.476   1.397 -0.7839 -1.3333  1.3544
23407SOL    HW275542   3.582   8.389   1.464  0.2795 -2.2115 -1.3259
23408SOL     OW75543   5.103  10.181  10.941  0.1540 -0.1407  0.0264
23408SOL    HW175544   5.150  10.241  10.999  0.3077  0.4829 -0.7239
23408SOL    HW275545   5.079  10.107  10.997 -0.8373  1.0302  1.1848
23409SOL     OW75546   2.643   8.256   3.036 -0.4291 -0.2686  0.6104
23409SOL    HW175547   2.689   8.176   3.010 -2.2368 -1.2998  0.4032
23409SOL    HW275548   2.689   8.326   2.992  1.6430 -1.0979  1.3434
23410SOL     OW75549   7.424  10.956   6.833  0.2227 -0.1650  0.0390
23410SOL    HW175550   7.455  11.027   6.775  1.9491 -1.6379 -0.9654
23410SOL    HW275551   7.329  10.953   6.819 -0.0632  2.5154  0.8385
23411SOL     OW75552   7.976   4.774   8.196 -0.0606 -0.0038 -0.2772
23411SOL    HW175553   8.031   4.697   8.183 -0.8593 -0.9833  1.6637
23411SOL    HW275554   7.889   4.747   8.166  0.1133  0.9629 -1.7493
23412SOL     OW75555   2.527   7.182   9.838  0.5674  0.6083  0.0981
23412SOL    HW175556   2.510   7.106   9.783  1.2710  0.4959  0.0170
23412SOL    HW275557   2.492   7.159   9.923  0.8529  0.1480  0.0971
23413SOL     OW75558   6.918   5.921   7.515 -0.0569 -0.4232  0.8515
23413SOL    HW175559   6.908   5.888   7.426  0.2028  0.2829  0.5503
23413SOL    HW275560   6.837   5.895   7.559 -1.2864  1.2576 -0.2719
23414SOL     OW75561   1.110   8.322   5.819 -0.4230  0.2214  0.4337
23414SOL    HW175562   1.031   8.288   5.775  0.3608  0.8294 -1.5308
23414SOL    HW275563   1.182   8.277   5.775  0.3920  0.7540  1.2173
23415SOL     OW75564   5.265   7.270  11.766 -0.1135  0.1119 -0.0366
23415SOL    HW175565   5.173   7.299  11.764 -0.1373  0.1278  0.9613
23415SOL    HW275566   5.311   7.335  11.713 -0.5550  0.5912  0.1500
23416SOL     OW75567   7.313   5.708   1.865 -0.7389  0.5456  0.2256
23416SOL    HW175568   7.281   5.635   1.918  3.3027 -0.7761  1.1665
23416SOL    HW275569   7.318   5.782   1.925 -0.3737  0.2945  0.5013
23417SOL     OW75570   1.953   6.264   7.551 -0.0054 -0.2585 -0.3809
23417SOL    HW175571   1.902   6.211   7.612 -0.0177  1.0762  0.8171
23417SOL    HW275572   2.036   6.216   7.543 -0.0750 -0.5548  0.5342
23418SOL     OW75573   4.686   3.357   6.214 -0.6563  0.0420 -0.2551
23418SOL    HW175574   4.752   3.426   6.220 -1.2172  0.4862  1.4951
23418SOL    HW275575   4.697   3.320   6.127  2.9508 -0.9647  0.4596
23419SOL     OW75576   2.650   3.477   6.671  0.2767  0.4220  0.1804
23419SOL    HW175577   2.600   3.410   6.624  1.4549  0.0590 -0.5873
23419SOL    HW275578   2.737   3.439   6.681  0.2000  0.7004  2.2403
23420SOL     OW75579   8.514   7.999   1.657  0.0954 -0.6986  0.5353
23420SOL    HW175580   8.602   8.036   1.670 -0.5415  1.6970 -1.2043
23420SOL    HW275581   8.468   8.018   1.739  1.2582 -2.3552  1.6248
23421SOL     OW75582   4.909   4.985   4.362  0.1575 -0.5139  0.0683
23421SOL    HW175583   4.978   5.022   4.417 -0.7742  0.8743  0.3763
23421SOL    HW275584   4.952   4.918   4.309  1.7142  0.3040  0.2688
23422SOL     OW75585   7.648   2.484   6.113  0.0693  0.3388  0.1022
23422SOL    HW175586   7.680   2.442   6.193 -0.9539 -0.6480  0.0275
23422SOL    HW275587   7.709   2.458   6.045 -1.1410 -2.0378 -0.1680
23423SOL     OW75588   7.142   9.667   1.349  0.1213 -0.2372 -0.5010
23423SOL    HW175589   7.196   9.595   1.380  0.1645 -0.1877 -0.4592
23423SOL    HW275590   7.201   9.743   1.350 -0.3110  0.1060  0.8729
23424SOL     OW75591   8.858   0.445   6.942  0.0816 -0.1229 -0.6520
23424SOL    HW175592   8.766   0.467   6.932  0.1820  1.9618  1.8442
23424SOL    HW275593   8.864   0.407   7.030  1.7481  0.9629 -0.2579
23425SOL     OW75594   8.786   4.875   9.243 -0.0358  0.1064 -0.5423
23425SOL    HW175595   8.813   4.945   9.303 -1.5208 -0.2820  0.6352
23425SOL    HW275596   8.869   4.832   9.218  0.6747  0.5957  0.8524
23426SOL     OW75597   2.897   7.639   7.736  0.3336  0.3676 -0.2722
23426SOL    HW175598   2.803   7.620   7.738  0.1917  1.0215  2.0963
23426SOL    HW275599   2.933   7.588   7.808  1.6225  0.9315 -0.4984
23427SOL     OW75600   2.325   7.673   7.378 -0.2752 -0.7335 -1.0226
23427SOL    HW175601   2.386   7.715   7.439 -0.1043  2.2222 -3.0251
23427SOL    HW275602   2.366   7.589   7.357  0.4287 -1.1304  1.6275
23428SOL     OW75603   5.407   3.478   0.331 -0.4432  0.5876  0.2010
23428SOL    HW175604   5.429   3.486   0.238 -0.1617  0.5561  0.2631
23428SOL    HW275605   5.468   3.411   0.363  0.2153  1.3959  0.6580
23429SOL     OW75606   0.605   5.869  10.167 -0.5116  0.0600 -0.5821
23429SOL    HW175607   0.515   5.848  10.143 -0.3987  1.5478 -2.5920
23429SOL    HW275608   0.657   5.795  10.133 -0.8338 -0.0777 -0.7790
23430SOL     OW75609   1.715   8.142   7.478  0.0551  0.1939  0.1662
23430SOL    HW175610   1.809   8.158   7.470 -0.0458  1.8379  1.7074
23430SOL    HW275611   1.675   8.201   7.414  0.0615 -1.9795 -2.0164
23431SOL     OW75612   0.121   9.141   5.605  0.4908 -0.2814  0.3787
23431SOL    HW175613   0.119   9.045   5.612 -0.6383 -0.3195 -0.1156
23431SOL    HW275614   0.030   9.167   5.622  0.9237  0.7637  1.1892
23432SOL     OW75615   9.734   7.081  10.453  0.4579  0.5855  0.1477
23432SOL    HW175616   9.770   7.165  10.481  2.5754 -0.3514  0.3865
23432SOL    HW275617   9.680   7.102  10.377  0.9469  2.1479  0.2010
23433SOL     OW75618   6.509   0.958  11.527  0.0106  0.1959 -0.1142
23433SOL    HW175619   6.564   0.926  11.599 -1.7134 -0.3707  1.0091
23433SOL    HW275620   6.503   0.883  11.468  1.6331  0.7392 -1.0517
23434SOL     OW75621   1.612   2.754   2.094  0.7454 -0.6987  0.8907
23434SOL    HW175622   1.570   2.670   2.074  0.8774 -1.0996  2.2124
23434SOL    HW275623   1.549   2.820   2.065  1.0942 -1.2026 -1.1615
23435SOL     OW75624   6.237   3.518   5.507  0.1680  0.3206 -0.2376
23435SOL    HW175625   6.174   3.531   5.577  1.1623 -0.4446  0.8539
23435SOL    HW275626   6.206   3.572   5.435 -0.7526  1.3265  0.8845
23436SOL     OW75627   1.901  10.244   8.176 -0.5625  0.6863 -0.4408
23436SOL    HW175628   1.916  10.298   8.253  0.4505  2.1144 -1.5904
23436SOL    HW275629   1.816  10.202   8.192 -0.0846  0.4454  1.7059
23437SOL     OW75630   8.514  10.009   8.877 -0.0306  0.0510 -0.4188
23437SOL    HW175631   8.529   9.915   8.864  1.8639  0.1236  0.9084
23437SOL    HW275632   8.568  10.032   8.953  0.8789  2.5639 -1.7120
23438SOL     OW75633   1.061   4.677   0.808 -0.1673 -0.8193 -0.0480
23438SOL    HW175634   1.101   4.644   0.728  0.3185 -1.1074  0.3061
23438SOL    HW275635   1.135   4.712   0.859 -0.5865  0.2175 -0.1332
23439SOL     OW75636   6.069   4.341   2.027  0.2665 -0.8660  0.6659
23439SOL    HW175637   6.121   4.265   2.054 -2.5968 -2.4424  2.3440
23439SOL    HW275638   6.077   4.402   2.100 -0.5233 -1.3212  1.1543
23440SOL     OW75639   1.031  11.409   3.532  0.1666 -0.7060 -0.0587
23440SOL    HW175640   1.029  11.322   3.571 -2.4219  0.1562  2.0030
23440SOL    HW275641   0.941  11.440   3.536  0.8667  1.8162 -1.3761
23441SOL     OW75642   2.752  10.503   3.076  0.3991  0.0767  0.1483
23441SOL    HW175643   2.679  10.565   3.077 -1.1609 -1.6730  0.7596
23441SOL    HW275644   2.804  10.526   3.152 -0.1287  0.6598  0.3447
23442SOL     OW75645   4.111   5.001  11.485  0.2965 -0.8201 -0.6046
23442SOL    HW175646   4.033   5.042  11.522  0.2529 -1.1500 -0.3196
23442SOL    HW275647   4.166   5.074  11.456 -0.0360 -0.5814 -0.6405
23443SOL     OW75648   6.529   2.415   2.586  0.2479  0.4857 -0.0342
23443SOL    HW175649   6.434   2.428   2.585  0.1736 -0.0456 -0.3343
23443SOL    HW275650   6.541   2.322   2.565  0.7820  0.2555  1.1959
23444SOL     OW75651   8.036   2.931   9.425 -0.7704 -0.5738 -0.0668
23444SOL    HW175652   8.021   2.870   9.353  1.0864 -0.4346 -0.6238
23444SOL    HW275653   8.087   2.881   9.489  0.2161  0.1774 -0.2381
23445SOL     OW75654   4.220   8.477   4.401 -0.3643 -0.0270  0.3577
23445SOL    HW175655   4.259   8.521   4.326  0.7979 -0.9389  0.4016
23445SOL    HW275656   4.137   8.522   4.415  0.0680  1.0992 -0.5684
23446SOL     OW75657   5.640   0.526   1.639 -0.2128  0.4030 -0.1889
23446SOL    HW175658   5.695   0.564   1.708  0.3363 -0.1601 -0.3056
23446SOL    HW275659   5.614   0.441   1.674 -0.5673  0.4412 -0.3624
23447SOL     OW75660   1.280   2.095   7.552 -0.0027 -0.4346  0.5003
23447SOL    HW175661   1.289   2.114   7.646  0.1233 -1.5757  0.7315
23447SOL    HW275662   1.207   2.034   7.547  1.6728 -2.5023  0.1564
23448SOL     OW75663   6.220   3.489   4.376  0.6137 -0.1665 -0.1121
23448SOL    HW175664   6.236   3.417   4.314  1.7566  0.3088 -0.3940
23448SOL    HW275665   6.286   3.555   4.353 -0.6964  1.1740 -0.1652
23449SOL     OW75666   5.474   6.979   4.615  0.2323 -0.1353  0.7140
23449SOL    HW175667   5.460   6.884   4.610  2.2305 -0.4690  0.5691
23449SOL    HW275668   5.386   7.016   4.617 -0.6001 -1.9678  0.3162
23450SOL     OW75669   0.631   4.490   3.866  0.1476  0.2989 -0.2745
23450SOL    HW175670   0.624   4.490   3.961  0.7314  0.2991 -0.2269
23450SOL    HW275671   0.677   4.571   3.845 -1.2547  1.0178 -0.6694
23451SOL     OW75672   8.964   2.268  11.072 -0.1195 -0.6556  0.0049
23451SOL    HW175673   8.899   2.199  11.084 -0.6465 -0.2273 -0.3369
23451SOL    HW275674   8.921   2.348  11.103  0.2447 -0.3636 -0.2310
23452SOL     OW75675   3.666   6.615   8.437 -0.2450 -0.0523 -0.4143
23452SOL    HW175676   3.725   6.556   8.388 -0.2071 -0.3103 -0.0594
23452SOL    HW275677   3.670   6.584   8.527 -0.5956  0.2005 -0.3093
23453SOL     OW75678  10.744   2.381  11.291 -0.1086 -0.4054 -0.2452
23453SOL    HW175679  10.820   2.358  11.345  0.6764  0.6107 -0.8589
23453SOL    HW275680  10.772   2.461  11.245 -1.5713 -0.0063 -0.4690
23454SOL     OW75681   1.800   0.193   1.763 -0.1921 -1.2526 -0.2935
23454SOL    HW175682   1.724   0.192   1.705  0.5435  0.7908 -1.4175
23454SOL    HW275683   1.767   0.231   1.845 -0.6291 -1.4679 -0.3662
23455SOL     OW75684   9.330   1.845   9.963  0.4324 -0.3980  0.3009
23455SOL    HW175685   9.259   1.782   9.974  1.1355 -1.0587  1.2131
23455SOL    HW275686   9.333   1.892  10.047 -0.2856  1.1085 -0.4623
23456SOL     OW75687  10.640  11.746   2.709 -0.1184  0.2638 -0.1427
23456SOL    HW175688  10.549  11.742   2.680  0.1719  1.8428 -1.3819
23456SOL    HW275689  10.689  11.769   2.630  1.4246 -0.9251  0.4239
23457SOL     OW75690  11.011   1.948   0.042  0.4224 -0.9367 -0.3452
23457SOL    HW175691  11.097   1.977   0.014  0.3867 -2.9554 -2.9512
23457SOL    HW275692  10.958   2.028   0.044  2.1485  0.2475  0.7294
23458SOL     OW75693   7.508   4.148   5.395  0.0225 -0.3844  0.2094
23458SOL    HW175694   7.417   4.120   5.411 -0.4523  0.9839 -0.0100
23458SOL    HW275695   7.527   4.210   5.465 -0.9372  3.1128 -2.3626
23459SOL     OW75696   2.848   6.641   7.161  0.2038  0.1832 -0.3638
23459SOL    HW175697   2.799   6.691   7.095  1.1845  2.9986  0.8641
23459SOL    HW275698   2.792   6.643   7.239  1.1912  1.4055  0.3525
23460SOL     OW75699  10.347   3.287  11.421  0.4688 -0.5924 -0.0990
23460SOL    HW175700  10.270   3.332  11.387  0.6396  1.5782  2.0412
23460SOL    HW275701  10.313   3.213  11.471 -0.2085 -0.0323  0.2842
23461SOL     OW75702   1.628   3.526   3.887 -0.3286  0.1218 -0.1674
23461SOL    HW175703   1.641   3.432   3.898  0.5708 -0.1303 -2.6311
23461SOL    HW275704   1.535   3.540   3.903 -0.3428 -1.0350  0.9258
23462SOL     OW75705   9.668  11.134  10.533  0.3536  0.7854  0.0639
23462SOL    HW175706   9.664  11.179  10.448 -0.0273  1.1323  0.2625
23462SOL    HW275707   9.681  11.042  10.510 -3.7568  0.1596 -0.6089
23463SOL     OW75708   3.887   1.181   7.969  0.0584  0.2505 -0.2866
23463SOL    HW175709   3.820   1.179   7.901 -0.4360  1.9132  0.1062
23463SOL    HW275710   3.841   1.209   8.048  0.6332 -1.6022  0.7707
23464SOL     OW75711  11.150   3.323  10.345 -0.0393  0.1573  0.2398
23464SOL    HW175712  11.118   3.273  10.270 -1.1172 -1.8718  1.9572
23464SOL    HW275713  11.095   3.402  10.347 -1.6765 -0.9479  0.2730
23465SOL     OW75714   3.145  11.562  11.228  0.3614 -0.4314  0.4046
23465SOL    HW175715   3.192  11.492  11.183  0.8208 -1.1210  1.9026
23465SOL    HW275716   3.081  11.517  11.283  0.6489  0.3016  1.3758
23466SOL     OW75717   2.425   1.604   1.459  0.2622  0.5693 -0.5662
23466SOL    HW175718   2.339   1.576   1.429 -0.0359 -0.6354  1.2573
23466SOL    HW275719   2.408   1.652   1.540  1.3632 -0.6910  0.4487
23467SOL     OW75720   0.834   6.796   7.819  0.0118 -0.6468  0.3528
23467SOL    HW175721   0.796   6.761   7.738  0.3392 -1.2377  0.4458
23467SOL    HW275722   0.819   6.728   7.884  0.6934 -0.6395  0.5318
23468SOL     OW75723   4.247   9.493   7.471  0.0898 -0.2565 -0.1261
23468SOL    HW175724   4.284   9.566   7.520  0.0551 -0.6110  0.4303
23468SOL    HW275725   4.303   9.418   7.493  0.6162 -0.2425 -1.3105
23469SOL     OW75726   7.159   7.402   5.062 -0.2425 -0.0328  0.0044
23469SOL    HW175727   7.241   7.451   5.061 -0.2218 -0.0725 -1.1943
23469SOL    HW275728   7.093   7.465   5.092  0.0936  0.1960  0.2661
23470SOL     OW75729   8.818   5.246   4.726  0.4600  0.0246  0.6075
23470SOL    HW175730   8.908   5.270   4.747  0.1157  0.4765  1.5980
23470SOL    HW275731   8.782   5.324   4.683  0.3817  0.0336  0.6904
23471SOL     OW75732  11.116   3.177  10.605  1.1396  0.1749 -0.0766
23471SOL    HW175733  11.043   3.198  10.665  1.7083 -0.8196  1.0077
23471SOL    HW275734  11.107   3.240  10.534 -0.2364  0.6768  0.5004
23472SOL     OW75735   2.082   3.519   8.526 -0.6156  0.5495 -0.0469
23472SOL    HW175736   2.102   3.536   8.618  1.1473 -0.3084 -0.2145
23472SOL    HW275737   2.101   3.602   8.481  0.4107  0.4273  0.1332
23473SOL     OW75738   7.987   8.592   5.610  0.3176  0.2821 -0.0386
23473SOL    HW175739   7.989   8.574   5.516 -2.3941 -2.6895  0.3074
23473SOL    HW275740   8.030   8.516   5.650 -1.0685  0.0862  1.1757
23474SOL     OW75741   7.185   0.524   4.313  0.3978 -0.0810 -0.0662
23474SOL    HW175742   7.233   0.472   4.249  0.7955 -0.5078  0.5642
23474SOL    HW275743   7.154   0.461   4.377 -0.7179  0.2341 -0.2715
23475SOL     OW75744  11.131   0.506   9.252  0.1957 -0.2285 -0.2942
23475SOL    HW175745  11.071   0.492   9.325 -0.7324  0.1395 -0.9568
23475SOL    HW275746  11.087   0.572   9.198 -0.1229 -1.9402 -2.2452
23476SOL     OW75747   5.730   7.480   7.975  0.4118 -0.3229  0.0279
23476SOL    HW175748   5.806   7.524   7.936  0.5150 -0.3956  0.1454
23476SOL    HW275749   5.666   7.550   7.989  0.7191 -0.1466  0.5646
23477SOL     OW75750  10.681   3.947  10.388  0.4045  0.1104 -0.2836
23477SOL    HW175751  10.618   3.955  10.459 -0.0377 -0.6731 -0.5800
23477SOL    HW275752  10.748   4.013  10.409  1.1884 -1.2433  1.7931
23478SOL     OW75753   6.149   4.163  10.179  0.6390  0.3441 -0.4629
23478SOL    HW175754   6.139   4.137  10.271  0.6036 -0.4853 -0.6906
23478SOL    HW275755   6.177   4.254  10.182  2.7446 -0.2740  0.4470
23479SOL     OW75756   5.418   0.114  11.329  0.8825  0.4188 -0.5823
23479SOL    HW175757   5.424   0.069  11.413 -0.7617  1.8514  0.3557
23479SOL    HW275758   5.499   0.165  11.324  1.4102 -0.3662 -0.3189
23480SOL     OW75759   6.143   6.563   9.530 -0.0705 -0.2828 -0.0744
23480SOL    HW175760   6.128   6.469   9.515 -0.8001 -0.1212 -0.4047
23480SOL    HW275761   6.227   6.567   9.576  0.6828 -1.0055 -1.3268
23481SOL     OW75762   9.925   9.413   9.813  0.0857  0.1958  0.3379
23481SOL    HW175763   9.866   9.342   9.787  0.2860  0.5167 -1.1203
23481SOL    HW275764   9.894   9.489   9.763  0.9237  0.7011  0.5618
23482SOL     OW75765   3.137  10.339  10.352 -0.3883  0.2042 -0.3136
23482SOL    HW175766   3.070  10.406  10.341  1.6111  2.3479 -0.1937
23482SOL    HW275767   3.176  10.357  10.437  0.3340 -1.0236 -0.3529
23483SOL     OW75768   7.175  10.276   9.420  0.4718 -0.1764  0.2837
23483SOL    HW175769   7.085  10.286   9.450  0.6554  0.6667  0.5905
23483SOL    HW275770   7.225  10.341   9.471  0.9205  0.7738 -1.2708
23484SOL     OW75771   5.878   3.272   5.030 -0.2942  0.1519  0.1374
23484SOL    HW175772   5.847   3.329   4.959 -1.7583 -0.1245  0.5307
23484SOL    HW275773   5.895   3.332   5.102 -2.0451  0.1152  0.6220
23485SOL     OW75774   5.755   5.132  11.687  0.1118  0.2888 -0.3715
23485SOL    HW175775   5.685   5.143  11.623 -0.1670  0.2590 -0.0737
23485SOL    HW275776   5.828   5.095  11.637 -0.4530 -0.7241 -0.4702
23486SOL     OW75777   7.087   2.876   4.719  0.4323 -0.3836 -0.3131
23486SOL    HW175778   7.092   2.866   4.814 -0.1430  1.2667 -0.0718
23486SOL    HW275779   7.178   2.893   4.693  0.2462  2.3153  0.4226
23487SOL     OW75780   4.277   9.302   2.335 -0.0406 -0.5576 -0.1796
23487SOL    HW175781   4.262   9.228   2.395  1.0910  0.3097  1.2292
23487SOL    HW275782   4.318   9.263   2.258 -0.1624 -1.5020  0.2202
23488SOL     OW75783   5.914   6.224   8.820  0.3508  0.0038  0.1391
23488SOL    HW175784   5.986   6.191   8.766  0.7715 -0.8734  1.1861
23488SOL    HW275785   5.948   6.220   8.910  0.4147  3.3085  0.3685
23489SOL     OW75786   1.222   3.284   0.050 -0.4159 -0.0726  0.1628
23489SOL    HW175787   1.200   3.350  -0.015 -0.5284 -0.4022 -0.1332
23489SOL    HW275788   1.143   3.273   0.102  0.3331  1.8839  1.8688
23490SOL     OW75789   0.217   1.437   7.611 -0.4626  0.5391 -0.0878
23490SOL    HW175790   0.302   1.477   7.631 -0.8348  1.3412 -0.0579
23490SOL    HW275791   0.235   1.343   7.607  0.3612  0.6715  0.2421
23491SOL     OW75792   7.754   9.021   7.455 -0.0736 -0.0504 -0.4985
23491SOL    HW175793   7.783   8.938   7.491 -5.4906 -1.7781  0.7388
23491SOL    HW275794   7.715   8.998   7.370 -4.0872  0.4445  1.0070
23492SOL     OW75795   8.671   6.261   5.347  0.0620 -0.1942 -0.4695
23492SOL    HW175796   8.619   6.341   5.337  0.4295 -0.1539 -2.2876
23492SOL    HW275797   8.660   6.214   5.264  1.9587 -0.7594 -0.4530
23493SOL     OW75798   1.982   7.369   3.102  0.4253  0.3059 -0.2191
23493SOL    HW175799   1.888   7.375   3.121  0.0267 -1.3167 -1.4603
23493SOL    HW275800   2.023   7.431   3.163 -1.3012 -0.1570  1.5199
23494SOL     OW75801   6.842   0.192   4.357 -0.4113 -0.2745  0.1803
23494SOL    HW175802   6.922   0.202   4.408  0.1200 -0.2424 -0.6502
23494SOL    HW275803   6.773   0.227   4.414  0.2112  0.0578  0.7458
23495SOL     OW75804   7.676  10.447   1.646  0.8169  0.0461 -0.3706
23495SOL    HW175805   7.770  10.440   1.630  0.7315  1.3557 -1.7239
23495SOL    HW275806   7.637  10.436   1.559 -0.0213  3.0271 -0.4732
23496SOL     OW75807   8.974   7.993   8.509  0.1484  0.3295 -0.5500
23496SOL    HW175808   8.966   8.010   8.416  1.1002  0.4855 -0.6164
23496SOL    HW275809   9.060   7.952   8.519 -0.8445 -1.7411 -0.0124
23497SOL     OW75810   3.119   6.835  11.195  0.4257  0.1791 -0.1337
23497SOL    HW175811   3.086   6.923  11.179  2.6200  0.9522 -0.7539
23497SOL    HW275812   3.051   6.777  11.162 -0.9671  1.6169  0.0838
23498SOL     OW75813  11.430   5.239   1.256  0.1141 -0.3116  0.4741
23498SOL    HW175814  11.430   5.146   1.236  0.5183 -0.3124  0.4787
23498SOL    HW275815  11.346   5.254   1.301 -0.4560 -0.4474 -0.5276
23499SOL     OW75816   6.411   0.011   7.509 -0.5138 -0.1839  0.2472
23499SOL    HW175817   6.403  -0.006   7.603 -0.7052  0.6898  0.4035
23499SOL    HW275818   6.353  -0.053   7.468 -0.9940 -0.1014  0.7813
23500SOL     OW75819  10.164   4.368   3.857 -0.4783  0.0666 -0.1477
23500SOL    HW175820  10.205   4.447   3.892  0.9369 -0.1445 -1.2532
23500SOL    HW275821  10.145   4.389   3.765 -0.0108 -0.8940 -0.4755
23501SOL     OW75822   3.755   1.655   3.516  0.0065  0.0920  0.2247
23501SOL    HW175823   3.665   1.679   3.497  0.4739  0.7764 -1.2290
23501SOL    HW275824   3.756   1.560   3.509 -0.5946  0.0799  0.2377
23502SOL     OW75825   5.044   6.447  11.073  0.4855  0.1279  0.3544
23502SOL    HW175826   4.984   6.512  11.036  1.9535  1.1890 -0.2630
23502SOL    HW275827   5.078   6.488  11.153  0.6041 -0.3520  0.5583
23503SOL     OW75828   9.015   4.057   0.863 -0.1766 -0.5666 -0.2653
23503SOL    HW175829   9.053   4.105   0.789  0.9312 -2.4136 -0.9902
23503SOL    HW275830   8.930   4.028   0.830 -0.2533 -0.2700 -0.3330
23504SOL     OW75831  10.458   5.101   1.383 -0.4044 -0.2333 -0.8730
23504SOL    HW175832  10.531   5.116   1.324 -0.8941 -1.2589 -1.7611
23504SOL    HW275833  10.385   5.076   1.327 -1.5030  0.8678 -0.0205
23505SOL     OW75834  11.073   9.919   7.538  0.1443  0.6232 -0.3947
23505SOL    HW175835  11.005   9.916   7.605  0.5784  1.8819  0.1332
23505SOL    HW275836  11.144   9.970   7.577  0.8000  0.5793 -1.4660
23506SOL     OW75837   7.159   5.586   9.286 -0.0040 -0.1316 -0.8121
23506SOL    HW175838   7.249   5.608   9.311 -0.2827  0.0130  0.1226
23506SOL    HW275839   7.132   5.658   9.229  0.5733 -0.3363 -1.3502
23507SOL     OW75840   9.113   4.029  11.351  0.1346  0.0205  0.2394
23507SOL    HW175841   9.108   3.980  11.433 -2.3916 -0.5876 -0.2037
23507SOL    HW275842   9.106   3.963  11.282  0.1942  0.6900 -0.4301
23508SOL     OW75843  10.975  10.294   3.438 -0.1593 -0.3139  0.3694
23508SOL    HW175844  10.893  10.268   3.479 -0.6778 -0.3743 -0.6552
23508SOL    HW275845  10.982  10.239   3.360 -0.3822  1.3243 -0.8864
23509SOL     OW75846   2.104   7.144   4.508  0.4605  1.3784 -0.6669
23509SOL    HW175847   2.185   7.119   4.553  1.5685  1.8609 -2.2806
23509SOL    HW275848   2.046   7.175   4.577  1.1292 -0.2625  0.7045
23510SOL     OW75849   2.810   7.466   4.361  0.3681 -0.0227  0.1237
23510SOL    HW175850   2.855   7.394   4.407 -0.2591 -1.1441 -0.9451
23510SOL    HW275851   2.817   7.442   4.269 -0.6919  0.8151 -0.1856
23511SOL     OW75852   5.452  11.593   3.528  0.2565  0.2714 -0.1980
23511SOL    HW175853   5.438  11.599   3.622 -1.1557 -0.0341 -0.3777
23511SOL    HW275854   5.506  11.669   3.507 -1.5088  1.7642  0.4827
23512SOL     OW75855   4.952   4.162   7.846 -0.0178 -0.6615 -0.1339
23512SOL    HW175856   4.919   4.251   7.862  1.3833 -0.3511  1.2480
23512SOL    HW275857   4.933   4.114   7.927 -2.5403 -2.2541 -1.5553
23513SOL     OW75858   7.536   4.714   9.651  0.2240  0.4407  0.0619
23513SOL    HW175859   7.532   4.775   9.578 -2.2131 -0.7288 -0.8736
23513SOL    HW275860   7.618   4.667   9.639  0.2130  0.7798 -1.5022
23514SOL     OW75861  10.942   1.798   2.794 -0.1356  0.2104 -0.1739
23514SOL    HW175862  11.022   1.848   2.782 -1.0198  1.8801  0.4237
23514SOL    HW275863  10.880   1.837   2.732 -0.7787 -0.3246  0.1143
23515SOL     OW75864   9.906   9.017   2.401  0.3939  0.5772  0.1840
23515SOL    HW175865   9.880   9.026   2.310  1.3179  1.2558 -0.0289
23515SOL    HW275866   9.946   8.930   2.406 -1.9322 -0.5356  0.5521
23516SOL     OW75867   9.128   8.526  11.752 -0.0379 -0.1446  0.3899
23516SOL    HW175868   9.190   8.455  11.769 -0.2962 -0.8645 -1.4280
23516SOL    HW275869   9.148   8.592  11.818  3.0993 -0.0633 -0.4954
23517SOL     OW75870  11.235   2.032   7.102  0.3325 -0.6979 -0.2565
23517SOL    HW175871  11.233   2.053   7.195  1.1390  1.7732 -0.7317
23517SOL    HW275872  11.318   1.986   7.089  0.0025 -1.4720  0.2819
23518SOL     OW75873   9.045   2.209   9.483  0.6149  0.6250 -0.3602
23518SOL    HW175874   9.090   2.197   9.566 -0.7994  0.1454  0.3669
23518SOL    HW275875   9.023   2.302   9.481 -0.6013  0.3837  0.5053
23519SOL     OW75876   9.419  10.622   9.210  0.3616 -0.4372 -0.8523
23519SOL    HW175877   9.348  10.660   9.159  1.1964  0.6914 -1.1998
23519SOL    HW275878   9.448  10.692   9.268  1.7659 -0.6038 -1.3186
23520SOL     OW75879   1.264   2.850  10.113  0.0014 -0.6964 -0.2462
23520SOL    HW175880   1.185   2.871  10.164 -0.1276 -1.5383 -0.0863
23520SOL    HW275881   1.235   2.848  10.022  0.6641  3.0435 -0.6998
23521SOL     OW75882  10.211   9.124   1.723 -0.0860  0.3861 -0.4439
23521SOL    HW175883  10.118   9.133   1.744  0.0057 -1.1210  0.7516
23521SOL    HW275884  10.212   9.072   1.642 -0.2756 -0.5822  0.1614
23522SOL     OW75885   0.434   4.489   9.891 -0.0151  0.0976 -0.0698
23522SOL    HW175886   0.469   4.413   9.844 -0.1161  1.3486 -2.3538
23522SOL    HW275887   0.357   4.456   9.937  1.6198 -1.7776  1.5130
23523SOL     OW75888   4.349   8.232   6.228 -0.0093  0.5525 -1.0684
23523SOL    HW175889   4.307   8.291   6.291 -0.5255 -0.7768 -0.1146
23523SOL    HW275890   4.436   8.216   6.265 -0.4813 -0.5977 -0.4297
23524SOL     OW75891  11.224   9.549   0.626 -0.0235  0.1168  0.3041
23524SOL    HW175892  11.288   9.611   0.591  0.6760 -0.7083  0.0910
23524SOL    HW275893  11.180   9.596   0.696  0.5205  0.8460  0.1633
23525SOL     OW75894   3.941   2.885   7.220  0.1739  0.0900 -0.4896
23525SOL    HW175895   3.954   2.791   7.228 -0.1453  0.0783 -0.0899
23525SOL    HW275896   3.946   2.918   7.309 -1.3688  0.2326 -0.4291
23526SOL     OW75897  10.840   0.384   3.913  0.0346  0.4966  0.4742
23526SOL    HW175898  10.815   0.410   3.825 -1.1230 -2.3555 -0.1496
23526SOL    HW275899  10.932   0.409   3.920 -0.7170  3.9236 -0.1638
23527SOL     OW75900   6.938   4.586   0.331  0.2697 -0.1897 -0.1821
23527SOL    HW175901   6.916   4.646   0.260 -0.9227 -1.0816 -0.6072
23527SOL    HW275902   6.863   4.591   0.391  0.9266 -0.0012  0.6389
23528SOL     OW75903   7.623   6.308   4.188  0.6025  0.0594 -0.0535
23528SOL    HW175904   7.640   6.365   4.113  1.3564 -1.5631 -1.1682
23528SOL    HW275905   7.707   6.300   4.233 -0.0988  2.0795  1.8385
23529SOL     OW75906   2.083   4.825   8.313 -0.1102  0.5226  0.4464
23529SOL    HW175907   2.057   4.742   8.272  2.7262  0.7671 -2.2592
23529SOL    HW275908   2.147   4.800   8.380 -0.8964  0.4255  1.1710
23530SOL     OW75909   2.654   6.497   7.426 -0.0432  0.2816  0.4485
23530SOL    HW175910   2.566   6.489   7.390 -0.4668  2.0845  1.0106
23530SOL    HW275911   2.711   6.467   7.355 -1.0128  1.0038 -0.6707
23531SOL     OW75912   1.276   3.512   4.320  0.6076  0.2553 -0.3810
23531SOL    HW175913   1.334   3.497   4.394 -0.5676 -0.5500  0.4181
23531SOL    HW275914   1.320   3.470   4.246  0.4811 -1.4669  0.4685
23532SOL     OW75915   5.730  10.135   9.773 -0.3295  0.1332 -0.1972
23532SOL    HW175916   5.786  10.119   9.849 -0.3434 -0.7549 -0.3590
23532SOL    HW275917   5.747  10.061   9.715 -0.9193  0.3846 -0.7046
23533SOL     OW75918   4.826   7.494   6.555 -0.1631  0.1488  0.3793
23533SOL    HW175919   4.899   7.447   6.596  0.1686  1.1700  0.9861
23533SOL    HW275920   4.866   7.543   6.484 -0.1399  1.1883  1.0918
23534SOL     OW75921   1.222   5.503   4.521  0.2168 -0.0047 -0.2090
23534SOL    HW175922   1.248   5.436   4.584  1.1866 -0.6836 -1.2962
23534SOL    HW275923   1.128   5.514   4.536  0.3621 -0.3934  1.1158
23535SOL     OW75924   3.527  11.580   2.042 -0.5485  0.3034 -0.1062
23535SOL    HW175925   3.449  11.625   2.011 -0.6598 -0.8974 -1.7363
23535SOL    HW275926   3.562  11.536   1.964  1.4176  0.3110  0.7054
23536SOL     OW75927   8.122   1.801   9.098 -0.9833  0.5150  0.3091
23536SOL    HW175928   8.042   1.841   9.062  0.0063  1.4326 -0.9435
23536SOL    HW275929   8.101   1.707   9.103 -1.8241  0.6079 -0.8961
23537SOL     OW75930   3.425   5.408   8.553 -0.9364 -0.4111 -0.3125
23537SOL    HW175931   3.380   5.409   8.469 -0.6581 -0.6772 -0.4689
23537SOL    HW275932   3.355   5.409   8.618 -1.2045 -1.8846 -0.5464
23538SOL     OW75933   1.682   5.860   9.192 -0.5254  0.2120 -0.4434
23538SOL    HW175934   1.652   5.772   9.214  0.5566 -0.2751 -0.8102
23538SOL    HW275935   1.722   5.851   9.105  1.9150  0.4637  0.5780
23539SOL     OW75936   7.643   4.306   7.610 -0.1908 -0.4846  0.0494
23539SOL    HW175937   7.697   4.301   7.689  0.3542  0.8607 -0.2223
23539SOL    HW275938   7.604   4.219   7.603  0.4078 -0.8825  1.3337
23540SOL     OW75939   9.830   6.655   4.585 -0.0819  0.1285 -0.6880
23540SOL    HW175940   9.748   6.686   4.624  1.2130  0.2120  2.2220
23540SOL    HW275941   9.823   6.560   4.586  0.2742  0.0982  0.6503
23541SOL     OW75942   4.198   5.340   3.346  0.7885  0.4900 -0.2063
23541SOL    HW175943   4.147   5.266   3.312  0.1020  0.0945  1.5724
23541SOL    HW275944   4.260   5.360   3.276 -1.2495  0.4516 -2.1232
23542SOL     OW75945   3.387   6.113   6.346  0.0113 -0.2712  0.3010
23542SOL    HW175946   3.366   6.074   6.431  1.0140  1.8721  1.6090
23542SOL    HW275947   3.320   6.180   6.333  0.7715  0.4799  0.1773
23543SOL     OW75948  10.195   3.183   3.561 -0.3411 -0.2281  0.5802
23543SOL    HW175949  10.116   3.133   3.538 -0.1465 -0.3723  0.2246
23543SOL    HW275950  10.263   3.117   3.574  0.2256 -0.0118 -1.0808
23544SOL     OW75951   7.247   4.523   9.392  0.2369  0.1518  0.6477
23544SOL    HW175952   7.229   4.477   9.475 -1.2397 -2.0262 -0.7809
23544SOL    HW275953   7.161   4.552   9.361  0.5475 -0.4499 -0.8591
23545SOL     OW75954   1.165   7.329   0.305 -0.5170  0.3097  0.0484
23545SOL    HW175955   1.124   7.248   0.334  2.4492 -1.8322 -1.1613
23545SOL    HW275956   1.250   7.301   0.269  0.3768  3.8971 -1.0568
23546SOL     OW75957   4.818   4.394   7.918 -0.0861  0.5197  0.1704
23546SOL    HW175958   4.732   4.425   7.947 -1.2187 -2.5432  0.4295
23546SOL    HW275959   4.830   4.433   7.831 -1.9123  0.7025 -0.0337
23547SOL     OW75960   0.486   9.657   5.029  0.1354  0.2320 -0.4501
23547SOL    HW175961   0.486   9.736   5.084  0.4008 -1.7740  2.6456
23547SOL    HW275962   0.402   9.615   5.048  0.1928 -0.4895 -1.7114
23548SOL     OW75963   8.251  10.748   6.759 -0.3477  0.0706 -0.3421
23548SOL    HW175964   8.188  10.812   6.793 -0.4382 -0.4664  0.5241
23548SOL    HW275965   8.295  10.715   6.837 -0.8467 -1.5073 -0.7040
23549SOL     OW75966   6.177   4.544  10.664 -0.2087 -0.0113 -0.1260
23549SOL    HW175967   6.210   4.488  10.734 -0.3179  0.1396  0.0493
23549SOL    HW275968   6.105   4.592  10.705  1.5217  2.2109  0.5099
23550SOL     OW75969   3.207   7.727   7.954 -0.6365 -0.2298 -0.7054
23550SOL    HW175970   3.236   7.648   7.908  1.3713 -0.7043  1.1535
23550SOL    HW275971   3.207   7.796   7.888 -2.2453 -1.7052 -2.3255
23551SOL     OW75972  10.307   7.938   1.896  0.8556  0.0599  0.4065
23551SOL    HW175973  10.380   7.966   1.841 -0.0704 -0.4005 -1.0845
23551SOL    HW275974  10.276   7.857   1.857 -1.0277  0.6969  0.4784
23552SOL     OW75975   6.484   2.424   3.052  0.4979 -0.5909  0.1702
23552SOL    HW175976   6.550   2.493   3.045  0.9191 -1.0888 -1.0247
23552SOL    HW275977   6.461   2.422   3.145  1.5313  0.1713  0.4604
23553SOL     OW75978   3.465   0.439   7.917  0.1621  0.4166 -0.4375
23553SOL    HW175979   3.550   0.483   7.912 -0.5720  2.0495  0.6954
23553SOL    HW275980   3.413   0.494   7.975 -0.3266 -2.7751  2.5193
23554SOL     OW75981   7.157   6.824   1.685  0.1931  0.3693 -0.9362
23554SOL    HW175982   7.139   6.750   1.627  0.5542 -1.7231  1.5125
23554SOL    HW275983   7.244   6.809   1.719  0.4319  2.1531 -0.6325
23555SOL     OW75984   9.965   7.037   8.327 -0.3244 -0.1061  0.0600
23555SOL    HW175985   9.965   6.998   8.239 -0.5424 -1.8215  0.7923
23555SOL    HW275986  10.048   7.010   8.365  0.1783  1.3861  0.0987
23556SOL     OW75987   4.426   6.493   4.728 -0.2993 -0.3803 -0.3553
23556SOL    HW175988   4.509   6.458   4.695 -1.1892 -0.4415 -2.7270
23556SOL    HW275989   4.444   6.586   4.745  0.6735 -0.7608  0.8532
23557SOL     OW75990   4.320   4.476   6.336  0.5672 -0.3240 -0.0746
23557SOL    HW175991   4.382   4.548   6.323  0.5860  0.1064  2.0228
23557SOL    HW275992   4.235   4.516   6.321  0.7086 -0.8408 -2.6536
23558SOL     OW75993  11.098  10.094  10.926  0.0781  0.9422  0.2231
23558SOL    HW175994  11.106  10.059  11.015  0.6754 -0.8198 -0.4866
23558SOL    HW275995  11.032  10.039  10.885  1.5591  0.0778 -1.1444
23559SOL     OW75996   3.904   6.258   0.875 -0.3486 -0.4650  0.4536
23559SOL    HW175997   3.838   6.325   0.893 -0.7050 -1.2957  2.4745
23559SOL    HW275998   3.854   6.182   0.845 -0.1945 -0.7229  0.8517
23560SOL     OW75999   5.341   0.975  11.354 -0.4035 -0.3597  0.4963
23560SOL    HW176000   5.406   1.030  11.308 -1.0377  0.4095  0.4957
23560SOL    HW276001   5.300   1.034  11.416 -2.8386 -0.1259 -1.1915
23561SOL     OW76002   0.840   7.331   7.605  0.2748  0.0113  0.1087
23561SOL    HW176003   0.839   7.236   7.597  0.8931 -0.1008  1.1979
23561SOL    HW276004   0.753   7.359   7.577 -0.3139 -0.9709  0.9147
23562SOL     OW76005  10.484   3.409   5.466 -0.0314  0.3710  0.0969
23562SOL    HW176006  10.546   3.428   5.396 -0.7777  2.8154  0.0325
23562SOL    HW276007  10.530   3.433   5.546 -0.0008 -0.2809  0.2860
23563SOL     OW76008   7.158   0.309   9.618 -0.0053  0.1091 -0.2271
23563SOL    HW176009   7.139   0.253   9.693  1.6272  0.1267  0.2591
23563SOL    HW276010   7.103   0.386   9.631  0.8504  0.4924  1.4684
23564SOL     OW76011   3.205   8.719   0.950  0.8129 -0.3651  0.0064
23564SOL    HW176012   3.271   8.682   0.892  1.2024 -0.1962  0.3319
23564SOL    HW276013   3.146   8.647   0.970  0.9831 -0.5525 -0.1722
23565SOL     OW76014   2.153   8.157   4.993 -0.1308  0.4770  0.2998
23565SOL    HW176015   2.199   8.134   5.073 -1.6870  1.8617  1.6602
23565SOL    HW276016   2.220   8.197   4.937  0.7183  0.6806  1.4268
23566SOL     OW76017   6.438   4.820   9.411 -0.0813 -0.8270 -0.7578
23566SOL    HW176018   6.440   4.785   9.500  0.4748  1.9521  0.4323
23566SOL    HW276019   6.346   4.843   9.396 -0.1023 -0.8926 -0.7280
23567SOL     OW76020   6.469   8.554  11.404 -0.0755  0.2128 -0.1004
23567SOL    HW176021   6.546   8.575  11.458  0.2389  2.1028 -1.1885
23567SOL    HW276022   6.504   8.543  11.316 -1.0075  0.8694 -0.5684
23568SOL     OW76023   2.346   1.525   5.208  0.1993 -0.0227  0.0999
23568SOL    HW176024   2.305   1.455   5.259 -0.9893  1.3744  1.1373
23568SOL    HW276025   2.377   1.587   5.273  1.2866  0.4069 -0.8063
23569SOL     OW76026   2.892   8.584   6.125 -0.3751 -0.5853  0.4035
23569SOL    HW176027   2.872   8.566   6.217 -0.6671  0.0371  0.4663
23569SOL    HW276028   2.876   8.500   6.080  2.3976 -1.7037  1.2910
23570SOL     OW76029  11.821  11.035   4.682  0.4329  1.0946 -0.0650
23570SOL    HW176030  11.737  11.028   4.636  0.2393 -1.3928  0.5102
23570SOL    HW276031  11.800  11.083   4.763 -0.3965  0.7348 -0.0545
23571SOL     OW76032   3.611   6.083   8.040 -0.4777  0.1192  0.1340
23571SOL    HW176033   3.610   5.987   8.030 -2.1545  0.1527 -0.2431
23571SOL    HW276034   3.623   6.096   8.134 -2.2770 -0.5421  0.5082
23572SOL     OW76035   8.441   6.287   9.286 -0.5434  0.2858 -0.1447
23572SOL    HW176036   8.504   6.218   9.308 -0.2652  1.1292  1.9612
23572SOL    HW276037   8.368   6.242   9.245 -0.2786 -1.2270  1.0037
23573SOL     OW76038   3.334   6.937   3.094  0.0057 -0.6850  0.4623
23573SOL    HW176039   3.312   7.011   3.037 -0.2707 -2.3015 -1.6100
23573SOL    HW276040   3.417   6.962   3.134 -0.8357  1.4010  1.0373
23574SOL     OW76041   9.632   4.540  11.511 -0.8824 -0.2861 -0.0881
23574SOL    HW176042   9.576   4.550  11.434 -1.7164  0.4878  0.6029
23574SOL    HW276043   9.590   4.592  11.579  1.6826  1.9716 -0.0446
23575SOL     OW76044   6.862   4.519   8.104 -0.1378 -0.1606  0.2217
23575SOL    HW176045   6.875   4.517   8.009 -4.7739 -1.1383 -0.6604
23575SOL    HW276046   6.837   4.430   8.127  3.3584 -0.6380  3.0373
23576SOL     OW76047   9.667   6.328   5.215 -0.2438  0.2966 -0.1282
23576SOL    HW176048   9.696   6.267   5.282  0.2178  0.2904 -0.3285
23576SOL    HW276049   9.746   6.376   5.191  0.1550 -1.2583 -2.2841
23577SOL     OW76050  11.653   9.982   7.097 -0.3272  0.3795 -0.1825
23577SOL    HW176051  11.677   9.911   7.039 -0.0525  0.0790  0.2914
23577SOL    HW276052  11.715  10.052   7.078  0.5239 -0.1516  0.5743
23578SOL     OW76053   5.501   3.235   8.461  0.2292  0.1940  0.3236
23578SOL    HW176054   5.478   3.328   8.457  2.3544  0.7363 -0.7973
23578SOL    HW276055   5.436   3.192   8.405 -0.2611  1.1132  0.1682
23579SOL     OW76056   8.769   3.437   3.842 -0.3268  0.1336  0.1758
23579SOL    HW176057   8.809   3.363   3.888 -2.1184 -0.9378  0.1519
23579SOL    HW276058   8.820   3.513   3.868  0.8050 -0.9361  1.2095
23580SOL     OW76059  10.196   6.776   8.679 -0.4450  0.1687 -0.3146
23580SOL    HW176060  10.245   6.704   8.718  1.0198  0.8779 -0.7688
23580SOL    HW276061  10.160   6.824   8.753  2.5298  1.6619  0.2779
23581SOL     OW76062   5.599  10.747   5.934 -0.0052 -0.1458 -0.5036
23581SOL    HW176063   5.645  10.774   5.854  1.0169 -0.4937 -0.0489
23581SOL    HW276064   5.651  10.674   5.968 -0.4046  0.0215  0.5025
23582SOL     OW76065   1.738   2.661   9.088 -0.5659  0.5513 -0.0895
23582SOL    HW176066   1.753   2.617   9.172 -1.6189  0.7243  0.2008
23582SOL    HW276067   1.733   2.754   9.110  2.2322  0.9673 -0.7728
23583SOL     OW76068   1.699   9.815   6.074 -0.1717 -0.3813  0.1386
23583SOL    HW176069   1.620   9.847   6.118  1.1814  1.5587  1.3465
23583SOL    HW276070   1.721   9.884   6.012  1.2824 -0.2167  0.7858
23584SOL     OW76071  10.142  10.883   2.649  0.0005 -0.6572  1.1379
23584SOL    HW176072  10.167  10.798   2.684  0.0493 -0.8465  0.6515
23584SOL    HW276073  10.112  10.865   2.560 -1.8938 -0.4557  1.6780
23585SOL     OW76074   2.864  10.813   6.353  0.2364 -0.0435 -1.0326
23585SOL    HW176075   2.774  10.790   6.332  1.0829 -2.2411 -2.6034
23585SOL    HW276076   2.884  10.761   6.431  0.1761  0.4389 -0.6884
23586SOL     OW76077   6.836  10.061   7.158 -0.1085  0.2066  0.4091
23586SOL    HW176078   6.856  10.034   7.247  0.4172  0.6317  0.4232
23586SOL    HW276079   6.817  10.155   7.165 -0.0030  0.2564  0.0676
23587SOL     OW76080   3.204   4.944   1.490 -0.1115 -0.2221 -0.3012
23587SOL    HW176081   3.223   4.998   1.566  1.9488 -1.1294 -0.1035
23587SOL    HW276082   3.219   5.001   1.415 -0.2140  0.1205 -0.0614
23588SOL     OW76083  11.161   2.822   3.081  0.1784 -0.3098  0.2942
23588SOL    HW176084  11.169   2.734   3.117  0.6856 -0.6737 -0.6824
23588SOL    HW276085  11.079   2.855   3.116  1.2348 -0.1313  2.8709
23589SOL     OW76086   3.001   1.877   7.073 -0.4598 -0.2348 -0.4736
23589SOL    HW176087   2.963   1.790   7.083  0.6864 -0.7030  0.0336
23589SOL    HW276088   2.996   1.915   7.161 -0.1011 -0.1672 -0.4807
23590SOL     OW76089   4.210   8.880   6.961 -0.1136  0.1663 -0.0465
23590SOL    HW176090   4.239   8.950   7.019 -0.1934  0.2635 -0.1231
23590SOL    HW276091   4.183   8.809   7.020 -0.3726  0.3354  0.0410
23591SOL     OW76092   8.482   8.367   3.276 -0.4372  0.0612 -0.2044
23591SOL    HW176093   8.518   8.340   3.191 -1.3008 -3.5199  0.4369
23591SOL    HW276094   8.542   8.329   3.340 -0.0876  2.3012  0.9095
23592SOL     OW76095   2.783   2.357   1.780 -0.0718 -0.0849  0.6670
23592SOL    HW176096   2.696   2.368   1.743  1.3574  2.7683 -2.4052
23592SOL    HW276097   2.771   2.371   1.874 -2.8296  0.9362  0.2494
23593SOL     OW76098   7.414   5.985   8.362 -0.1208  0.1342  0.5435
23593SOL    HW176099   7.507   6.007   8.367 -0.5026  1.8319  1.0496
23593SOL    HW276100   7.412   5.893   8.338  1.7128  1.0221 -4.0674
23594SOL     OW76101  11.077  10.844   6.379 -0.3501 -0.7863  0.4049
23594SOL    HW176102  11.145  10.776   6.384 -0.0648 -0.5209  0.1717
23594SOL    HW276103  11.124  10.922   6.348 -0.3513 -0.0469  2.1623
23595SOL     OW76104   3.658  10.262   7.679 -0.1995 -0.6014  0.3145
23595SOL    HW176105   3.619  10.182   7.643  1.6369 -1.1742 -0.5014
23595SOL    HW276106   3.738  10.233   7.722  0.9722  0.8864 -0.7585
23596SOL     OW76107  11.582   0.820   6.624  0.9997  0.6754  0.4203
23596SOL    HW176108  11.677   0.814   6.612  1.4275  2.6158  2.3341
23596SOL    HW276109  11.570   0.843   6.716 -1.4000 -0.1899  0.4094
23597SOL     OW76110   0.335   1.049   3.609 -0.0727  0.4319  0.1401
23597SOL    HW176111   0.402   1.000   3.657 -0.7318 -0.1738  0.4688
23597SOL    HW276112   0.384   1.112   3.556  0.7670 -0.1764  0.1734
23598SOL     OW76113   7.741   2.335   7.516  0.1152  0.0099  0.0260
23598SOL    HW176114   7.763   2.393   7.444 -0.9253 -1.1135 -1.2413
23598SOL    HW276115   7.817   2.340   7.575  1.2099  0.5628 -1.3844
23599SOL     OW76116  11.124   4.483   1.669  0.3963 -0.0959  0.0192
23599SOL    HW176117  11.186   4.552   1.691  0.4613 -0.4467  0.9515
23599SOL    HW276118  11.085   4.511   1.586 -1.1791  2.1674  1.4363
23600SOL     OW76119   9.632   4.197   8.880  0.1898 -0.8030 -0.3698
23600SOL    HW176120   9.676   4.264   8.827 -0.0232  0.1829  0.6673
23600SOL    HW276121   9.543   4.230   8.890 -0.6425 -2.4231 -1.8302
23601SOL     OW76122   9.328   2.702   7.005  0.0046 -0.2729 -0.7546
23601SOL    HW176123   9.324   2.752   7.086 -1.0296  2.1917 -2.2087
23601SOL    HW276124   9.413   2.724   6.967 -0.4735  0.5055 -1.4210
23602SOL     OW76125   6.279   7.350  10.102  0.0688  0.4978  0.2287
23602SOL    HW176126   6.300   7.317  10.014 -0.1372 -0.3636  0.4969
23602SOL    HW276127   6.185   7.364  10.101  0.1129  0.8082  0.2129
23603SOL     OW76128   6.912   9.396   8.555 -0.2691  0.6239  0.0420
23603SOL    HW176129   6.983   9.424   8.613 -0.9763  0.7799  0.8454
23603SOL    HW276130   6.938   9.428   8.469  1.4048 -0.6516  0.0061
23604SOL     OW76131   7.290   5.750   7.310  0.2801  0.5615 -0.1581
23604SOL    HW176132   7.248   5.797   7.383  2.1176  1.5858  0.2858
23604SOL    HW276133   7.382   5.775   7.315  0.9950 -1.6683 -1.0679
23605SOL     OW76134   6.116   5.275   4.153  0.1352 -0.1649 -0.1485
23605SOL    HW176135   6.187   5.285   4.090  0.6129 -0.6814  0.2943
23605SOL    HW276136   6.160   5.250   4.235 -0.7091 -3.3319 -0.5282
23606SOL     OW76137  10.489   5.145  10.998  0.2494 -0.3058  0.2219
23606SOL    HW176138  10.500   5.213  11.065  0.0218 -0.7236  0.6969
23606SOL    HW276139  10.403   5.163  10.960  0.2295 -0.2734  0.2812
23607SOL     OW76140   5.857   3.185  10.327 -0.3822  0.0876  0.1330
23607SOL    HW176141   5.787   3.162  10.266 -1.4404 -1.8062  1.9115
23607SOL    HW276142   5.859   3.281  10.327 -2.0674  0.1618 -0.9451
23608SOL     OW76143   9.100   9.040   1.910 -0.6240  0.4722  0.3288
23608SOL    HW176144   9.177   8.997   1.947 -1.2314 -0.2636  0.7561
23608SOL    HW276145   9.062   9.090   1.982 -0.7262  0.5873  0.1971
23609SOL     OW76146  11.189   1.906   5.414  0.3814  0.5919  0.3386
23609SOL    HW176147  11.153   1.995   5.412 -0.0155  0.4961  1.8976
23609SOL    HW276148  11.243   1.904   5.493 -0.2781 -0.7949  0.7838
23610SOL     OW76149  10.492   1.355   1.513  0.1906 -0.1013 -0.5595
23610SOL    HW176150  10.425   1.419   1.487 -0.6086 -0.6932 -0.0219
23610SOL    HW276151  10.478   1.282   1.453 -0.3249 -0.6404  0.1995
23611SOL     OW76152   4.695  10.689   1.042  0.2553  0.3390  0.2280
23611SOL    HW176153   4.767  10.639   1.082  0.3204  0.1288 -0.1464
23611SOL    HW276154   4.667  10.635   0.968  1.9229  1.9424 -1.6946
23612SOL     OW76155   2.409   3.874   9.666  0.2050  0.0073  0.2790
23612SOL    HW176156   2.491   3.854   9.620  0.0677  0.4778 -0.1756
23612SOL    HW276157   2.414   3.968   9.684  0.6545 -0.3093  2.0342
23613SOL     OW76158   0.417   5.476   7.833 -0.4205 -0.0025  0.0016
23613SOL    HW176159   0.492   5.421   7.858  0.3526  0.6635 -0.7872
23613SOL    HW276160   0.351   5.414   7.803  1.1659 -0.4970 -2.8061
23614SOL     OW76161   5.963   8.859   9.864  0.5005  0.9007  0.0474
23614SOL    HW176162   5.951   8.772   9.826  1.4785  1.3299 -1.3603
23614SOL    HW276163   6.050   8.856   9.904  0.7648  1.3655 -0.4735
23615SOL     OW76164  11.572   3.663   5.655  0.0511 -0.2105 -0.0784
23615SOL    HW176165  11.583   3.597   5.724 -0.5839  0.8068  1.0564
23615SOL    HW276166  11.655   3.710   5.653 -0.3095  0.5153  0.8652
23616SOL     OW76167   8.934   2.383   1.730 -0.0606 -0.7188  0.4803
23616SOL    HW176168   8.843   2.373   1.758  0.0419 -1.3721  0.6044
23616SOL    HW276169   8.961   2.294   1.706 -0.5878 -0.0275 -3.1093
23617SOL     OW76170   5.969   9.111   7.774  0.1649  0.6215 -0.3724
23617SOL    HW176171   5.892   9.167   7.764  0.5890  1.1919 -0.4772
23617SOL    HW276172   5.961   9.046   7.705 -2.6536 -2.2539  2.3488
23618SOL     OW76173   2.062   1.361   4.979 -0.0228 -0.2993 -0.7019
23618SOL    HW176174   1.987   1.328   4.930 -2.5319  2.1241  1.1863
23618SOL    HW276175   2.104   1.423   4.919 -1.8438  1.1086 -0.6259
23619SOL     OW76176   8.621   0.011   8.788  0.0086 -0.1078  0.0498
23619SOL    HW176177   8.574  -0.072   8.795 -0.7218  0.3052  0.1338
23619SOL    HW276178   8.559   0.070   8.746  1.0266  0.0063 -1.4040
23620SOL     OW76179   5.795   3.202  11.624 -0.1558 -0.3160 -0.8027
23620SOL    HW176180   5.818   3.237  11.710  0.5179 -1.8443 -0.3143
23620SOL    HW276181   5.831   3.113  11.625 -2.7184 -1.4616 -1.5274
23621SOL     OW76182   7.718   2.980  11.206 -0.1440 -0.5085  0.1387
23621SOL    HW176183   7.679   3.052  11.156 -0.4997 -0.4469  0.4977
23621SOL    HW276184   7.643   2.934  11.245  0.1702  0.7059  2.3377
23622SOL     OW76185   2.515   6.134  11.177 -0.3453 -0.1031 -0.0190
23622SOL    HW176186   2.500   6.228  11.188  0.3862 -0.0173  0.3174
23622SOL    HW276187   2.453   6.108  11.110  0.0263  0.7986 -0.7390
23623SOL     OW76188   0.895   3.946   9.806  0.3597  0.0043 -0.1893
23623SOL    HW176189   0.879   4.029   9.760  1.1520 -0.2277 -0.9323
23623SOL    HW276190   0.876   3.965   9.898 -3.4468 -0.1007 -0.7938
23624SOL     OW76191  11.313  10.878   7.300  0.3326 -0.2158 -0.3334
23624SOL    HW176192  11.276  10.880   7.388 -0.9255 -1.7479 -0.7768
23624SOL    HW276193  11.347  10.966   7.287  1.5635 -0.2398  2.0847
23625SOL     OW76194   5.017   1.922   0.218  0.1554 -0.0776  0.1158
23625SOL    HW176195   5.047   1.915   0.309  0.1880 -1.1257  0.0301
23625SOL    HW276196   5.002   1.832   0.190 -0.8513  0.2932 -0.5915
23626SOL     OW76197   6.511   6.866   6.308  0.0076 -0.4074  0.0461
23626SOL    HW176198   6.485   6.774   6.312  0.2337 -0.4846 -0.2372
23626SOL    HW276199   6.434   6.911   6.274  0.2914 -0.6607 -0.9620
23627SOL     OW76200   8.974   7.491   4.963 -0.0188 -0.3277 -0.1043
23627SOL    HW176201   9.041   7.490   5.032 -0.0508 -0.3677 -0.0736
23627SOL    HW276202   9.022   7.467   4.884  0.5201  2.0426 -0.5727
23628SOL     OW76203   0.383   0.726   5.440  0.0844  0.1842 -0.6430
23628SOL    HW176204   0.310   0.669   5.415  1.2940 -1.2069 -1.1706
23628SOL    HW276205   0.424   0.751   5.357  1.5403 -0.9303 -0.3107
23629SOL     OW76206  11.447   7.328   3.160 -0.4002 -0.2656  0.0651
23629SOL    HW176207  11.422   7.247   3.204  0.1806 -0.2813  0.3773
23629SOL    HW276208  11.365   7.378   3.153 -0.5080 -0.2634  1.1540
23630SOL     OW76209   0.581  11.619  11.529  0.1067 -0.3273  0.5831
23630SOL    HW176210   0.580  11.624  11.625  0.4454  1.3999  0.5311
23630SOL    HW276211   0.497  11.654  11.502 -0.3091 -1.5455  0.2422
23631SOL     OW76212   7.573   3.926   1.177  0.0287 -0.2401 -0.0193
23631SOL    HW176213   7.649   3.966   1.221  0.7230 -1.1122 -0.4050
23631SOL    HW276214   7.598   3.925   1.085  0.1520 -1.8106  0.0115
23632SOL     OW76215   2.509   8.746   5.013  0.3642  0.4357  0.3784
23632SOL    HW176216   2.479   8.728   5.102 -1.9158 -1.2814 -0.6367
23632SOL    HW276217   2.457   8.822   4.985 -1.0743 -0.8005 -0.4203
23633SOL     OW76218   2.852   1.896  10.401  0.6262 -0.3919 -0.2435
23633SOL    HW176219   2.911   1.821  10.413 -0.4364 -1.1296  0.5228
23633SOL    HW276220   2.875   1.956  10.472  1.5395  0.0785 -0.9106
23634SOL     OW76221   2.280  11.166   2.121 -0.4782  0.6270 -0.2399
23634SOL    HW176222   2.201  11.116   2.102 -0.6195  0.8517 -0.2463
23634SOL    HW276223   2.321  11.181   2.036  0.0526 -0.2707 -0.1543
23635SOL     OW76224   9.183   1.868   4.560 -0.0870 -0.1889  0.0224
23635SOL    HW176225   9.188   1.911   4.475 -1.0137 -1.0051 -0.4576
23635SOL    HW276226   9.130   1.928   4.613 -0.5072 -0.2380 -0.3358
23636SOL     OW76227  11.516   5.054   4.063 -0.1890  0.6206  0.0629
23636SOL    HW176228  11.431   5.048   4.020 -0.5028 -1.8197  0.8432
23636SOL    HW276229  11.519   4.978   4.121  2.3391  0.8924  0.4303
23637SOL     OW76230   2.533   3.616   9.497 -0.0492  0.0793  0.0152
23637SOL    HW176231   2.619   3.643   9.528  1.9824 -2.2454 -2.9901
23637SOL    HW276232   2.508   3.682   9.433  1.4471 -1.1387 -1.9392
23638SOL     OW76233   5.102   2.090   8.398 -0.1390 -0.3016 -0.2041
23638SOL    HW176234   5.193   2.113   8.417 -0.4971  0.4361  0.6985
23638SOL    HW276235   5.070   2.049   8.478 -0.3539 -1.3800 -0.8223
23639SOL     OW76236   4.127   0.155  10.074 -0.0093  0.2659  0.5809
23639SOL    HW176237   4.179   0.077  10.092 -1.2314 -0.2075  2.3507
23639SOL    HW276238   4.100   0.146   9.983  0.2493 -1.1385  0.6230
23640SOL     OW76239   8.954  11.061   6.865  0.7998 -0.3585  0.0707
23640SOL    HW176240   8.976  10.980   6.912 -1.1052 -0.3436  1.1016
23640SOL    HW276241   8.874  11.040   6.817  0.2613  0.9070  0.3750
23641SOL     OW76242   0.547  11.619   2.684 -0.4893  0.1263  0.5603
23641SOL    HW176243   0.469  11.577   2.647  2.1883 -2.9692 -2.3165
23641SOL    HW276244   0.567  11.690   2.623 -0.2340 -0.0650  0.4206
23642SOL     OW76245   5.265   8.662  10.673 -0.2185 -0.2696 -0.1801
23642SOL    HW176246   5.247   8.631  10.761 -1.4216 -1.3500 -0.7609
23642SOL    HW276247   5.357   8.686  10.673 -0.2741  0.0295  1.4337
23643SOL     OW76248   5.901   0.978   2.767  0.3462 -0.2501  0.0783
23643SOL    HW176249   5.995   0.995   2.758  0.2078 -0.3040 -1.7233
23643SOL    HW276250   5.863   1.063   2.791  0.8093 -0.1880  0.6246
23644SOL     OW76251   9.190  11.786   9.730  0.2642 -0.4290  0.4292
23644SOL    HW176252   9.138  11.864   9.751  1.4070  0.7456 -0.8562
23644SOL    HW276253   9.141  11.714   9.769  0.0437  1.0776  3.2232
23645SOL     OW76254   0.349   8.071   3.455 -0.2529 -0.0506 -0.3141
23645SOL    HW176255   0.255   8.075   3.433 -0.8519  0.8573  2.0714
23645SOL    HW276256   0.364   7.979   3.477 -0.8118 -0.0495  0.1137
23646SOL     OW76257   4.382   5.598  10.755  0.1450  0.3367  0.3602
23646SOL    HW176258   4.320   5.646  10.700  1.6602  0.5752 -1.2676
23646SOL    HW276259   4.467   5.636  10.733  1.2199 -1.9763  0.2190
23647SOL     OW76260   6.079   3.843   7.626  0.0017  0.2632 -0.4085
23647SOL    HW176261   6.170   3.846   7.655 -0.5312  0.3119  1.3460
23647SOL    HW276262   6.077   3.770   7.563  1.3214  0.5526 -0.8332
23648SOL     OW76263   8.168  10.933   0.819 -0.3552  0.0418  0.2920
23648SOL    HW176264   8.190  10.863   0.756 -1.1256 -1.2191  1.3769
23648SOL    HW276265   8.120  10.997   0.767  1.7394  0.6108 -1.0953
23649SOL     OW76266   6.997   3.961   2.333 -0.0262  0.2718  0.5011
23649SOL    HW176267   7.063   4.029   2.338 -0.5529  0.9798 -1.3484
23649SOL    HW276268   7.040   3.889   2.288 -0.0762  0.1628  0.6275
23650SOL     OW76269   4.010   7.853   9.166 -0.0261  0.1704 -0.0931
23650SOL    HW176270   3.971   7.921   9.222  0.9142  1.1753 -0.6048
23650SOL    HW276271   4.102   7.878   9.159  0.1880 -0.7822 -0.8692
23651SOL     OW76272   9.925   0.772   7.539  0.9422 -0.1120 -0.1421
23651SOL    HW176273   9.949   0.681   7.557  0.8574  0.1115  1.2396
23651SOL    HW276274  10.008   0.820   7.539  0.8880 -0.0066  0.3930
23652SOL     OW76275   4.084   2.522   0.970 -0.5339 -0.6463  0.1863
23652SOL    HW176276   4.068   2.497   1.061 -2.1552 -1.5572 -0.3154
23652SOL    HW276277   4.068   2.442   0.920  2.5708 -0.7843 -0.7564
23653SOL     OW76278   4.991   7.984   3.878  0.2206 -0.5642  0.1504
23653SOL    HW176279   5.059   7.956   3.939  0.1615  1.3037  1.1512
23653SOL    HW276280   4.957   7.902   3.842  2.2555 -1.5967  0.4036
23654SOL     OW76281   0.257   6.891  10.728  1.1630 -0.3372  0.3459
23654SOL    HW176282   0.289   6.879  10.817 -0.3471 -0.9299  0.8298
23654SOL    HW276283   0.168   6.854  10.728  0.8066  0.4219 -1.1788
23655SOL     OW76284   6.411   8.217   5.624  0.6583 -0.3735 -0.2832
23655SOL    HW176285   6.422   8.164   5.703  1.6988  1.5647  0.9515
23655SOL    HW276286   6.500   8.244   5.601  0.2129  0.4034 -1.1826
23656SOL     OW76287   0.981   5.249   0.139 -0.4831  0.2591  0.1409
23656SOL    HW176288   0.900   5.243   0.089 -1.0462 -2.8092  1.2276
23656SOL    HW276289   0.970   5.327   0.192 -2.9648 -0.3098  0.5900
23657SOL     OW76290   4.141   1.887   9.576  0.1948 -0.0440  0.3182
23657SOL    HW176291   4.063   1.833   9.561  0.7671 -0.4193 -1.5802
23657SOL    HW276292   4.179   1.899   9.489  1.3584  1.5235  0.9888
23658SOL     OW76293  10.007   6.444   7.472 -0.5731  0.1563 -0.1215
23658SOL    HW176294  10.033   6.536   7.468 -2.1952  0.6385 -0.0858
23658SOL    HW276295  10.036   6.407   7.388 -2.8628  1.5442 -1.6147
23659SOL     OW76296  11.562   8.388   0.227 -0.0374 -0.5288 -0.1376
23659SOL    HW176297  11.570   8.480   0.253 -2.3923  0.1172 -1.4260
23659SOL    HW276298  11.648   8.367   0.189 -0.0230  1.7550 -1.5698
23660SOL     OW76299   3.778   9.586   2.996 -0.3965 -0.3030  0.0498
23660SOL    HW176300   3.705   9.575   2.935 -0.6343  0.8742  0.1064
23660SOL    HW276301   3.804   9.678   2.986  0.6670 -0.5416  0.4942
23661SOL     OW76302   3.119   5.764   1.932  0.1103 -0.3784  0.0211
23661SOL    HW176303   3.208   5.800   1.932 -0.0968  0.2763  2.1846
23661SOL    HW276304   3.132   5.669   1.924  1.0907 -0.3793  1.2544
23662SOL     OW76305   4.778   6.826  10.689 -0.1456 -0.7293  0.4289
23662SOL    HW176306   4.821   6.741  10.700 -1.3280 -1.3123  0.7404
23662SOL    HW276307   4.728   6.816  10.608  0.4954  0.0263 -0.0684
23663SOL     OW76308   6.471   6.014  10.737  0.0354  0.4678  0.1328
23663SOL    HW176309   6.451   5.991  10.646  1.4851  1.5097 -0.4864
23663SOL    HW276310   6.418   5.954  10.789 -0.0368 -0.8618 -1.4016
23664SOL     OW76311   1.480   7.000   8.927  0.1993 -0.3392  0.2297
23664SOL    HW176312   1.489   7.059   9.001  1.6845 -0.7391  0.3896
23664SOL    HW276313   1.569   6.969   8.909 -0.4142 -1.8672 -0.3828
23665SOL     OW76314   2.626   9.762   9.267  0.6523  0.0922 -0.3481
23665SOL    HW176315   2.533   9.748   9.253  1.1739 -1.6226 -2.7170
23665SOL    HW276316   2.633   9.788   9.359 -2.0421 -0.5942  0.1310
23666SOL     OW76317   2.961   7.083   3.384  0.1857  0.0037 -0.7102
23666SOL    HW176318   2.955   7.000   3.336  0.1889 -0.5498  0.2137
23666SOL    HW276319   2.925   7.063   3.471  1.9602  0.4519  0.1837
23667SOL     OW76320   6.939   8.505   4.537  0.1870 -0.4952 -0.0014
23667SOL    HW176321   6.994   8.467   4.469 -0.0565  0.7467 -0.9065
23667SOL    HW276322   6.856   8.458   4.529  0.2303 -0.5046 -0.4111
23668SOL     OW76323   1.834   9.406   9.367  0.1769 -0.4803  0.2567
23668SOL    HW176324   1.740   9.389   9.359 -0.3410  1.0987  2.1677
23668SOL    HW276325   1.840   9.500   9.380  2.1777 -0.3442 -1.1696
23669SOL     OW76326  10.354  11.682   2.672  0.0391 -0.3991  0.1048
23669SOL    HW176327  10.352  11.734   2.752 -0.0477 -0.1840 -0.0365
23669SOL    HW276328  10.367  11.592   2.703  2.6462 -0.0503  0.2295
23670SOL     OW76329   5.300  10.290   1.846  0.2974 -0.0041 -0.1519
23670SOL    HW176330   5.251  10.287   1.927 -0.4728 -0.1151 -0.6115
23670SOL    HW276331   5.364  10.360   1.858 -1.4867  1.7480 -0.3874
23671SOL     OW76332   9.007   2.363   6.401 -0.3534  0.4622 -0.7693
23671SOL    HW176333   8.923   2.355   6.446  0.1085 -2.9621 -0.2455
23671SOL    HW276334   9.001   2.300   6.329  0.8321  2.1470 -2.4465
23672SOL     OW76335   1.899   1.129   7.643 -0.5493 -0.7847 -0.1519
23672SOL    HW176336   1.976   1.077   7.663 -1.5419 -1.5761  1.9461
23672SOL    HW276337   1.836   1.067   7.608 -1.2276 -0.7600  0.9664
23673SOL     OW76338   0.403   5.224  10.058  0.1875  0.5349 -0.3927
23673SOL    HW176339   0.360   5.246   9.976  1.0518 -0.3046 -1.0919
23673SOL    HW276340   0.489   5.265  10.052  0.2916  0.3904  0.0523
23674SOL     OW76341   5.870   2.264   3.577  0.2441  0.2615 -0.3794
23674SOL    HW176342   5.821   2.231   3.652  3.2966 -0.3347  1.5127
23674SOL    HW276343   5.904   2.185   3.534  2.4138  0.6523  0.4916
23675SOL     OW76344  10.326   5.229   0.843 -0.5473 -0.1873 -0.0132
23675SOL    HW176345  10.402   5.268   0.799  0.0570 -0.4734  0.7415
23675SOL    HW276346  10.288   5.301   0.893 -2.1826  0.5446 -2.1622
23676SOL     OW76347   6.474   4.136  11.024  0.0450 -0.5459 -0.0031
23676SOL    HW176348   6.500   4.152  10.933  0.4742 -1.4509 -0.0474
23676SOL    HW276349   6.537   4.185  11.077 -0.2797  0.0823 -0.1916
23677SOL     OW76350   4.200  11.303   1.373 -0.2250  0.4972 -0.5249
23677SOL    HW176351   4.231  11.215   1.356 -0.0770 -0.0553  2.1109
23677SOL    HW276352   4.274  11.360   1.351  0.5092 -0.2627 -0.0687
23678SOL     OW76353   8.156   1.720  11.735  0.2195  0.1287 -0.7845
23678SOL    HW176354   8.107   1.761  11.663  0.3499  0.6488 -0.5814
23678SOL    HW276355   8.243   1.758  11.730  0.0162  0.7446  0.1118
23679SOL     OW76356   9.174  11.630  10.027  0.8684 -0.2618  0.1486
23679SOL    HW176357   9.135  11.545  10.007  1.9121 -0.8470  0.5565
23679SOL    HW276358   9.263  11.624   9.992  0.9073  0.7206  0.0519
23680SOL     OW76359   9.728   3.517   9.451 -0.0281  0.0688  0.1272
23680SOL    HW176360   9.708   3.424   9.438  2.6749 -0.6000  0.1275
23680SOL    HW276361   9.807   3.532   9.399  0.9845  1.7521  2.0223
23681SOL     OW76362   1.406  10.180   9.570  0.1062 -0.7664 -0.1880
23681SOL    HW176363   1.449  10.216   9.648 -2.0703 -0.9769  1.1895
23681SOL    HW276364   1.452  10.097   9.554  0.6137 -0.7037  0.8450
23682SOL     OW76365  10.834   4.000  11.799 -0.1856 -0.1390  0.5342
23682SOL    HW176366  10.841   3.926  11.860  1.0952  0.3836  1.0525
23682SOL    HW276367  10.781   3.966  11.727  0.5241 -1.6430  0.6705
23683SOL     OW76368   5.454   4.373   2.824 -0.4436 -0.1194  0.2518
23683SOL    HW176369   5.492   4.287   2.843 -0.1480 -0.1850 -0.5971
23683SOL    HW276370   5.503   4.405   2.748 -0.3619  0.9306  0.7347
23684SOL     OW76371   6.865   6.235   2.014 -0.1847 -0.0257 -0.1948
23684SOL    HW176372   6.857   6.208   2.106  0.8893  2.1763  0.6335
23684SOL    HW276373   6.784   6.282   1.996  0.1975  0.7905  0.1361
23685SOL     OW76374   4.836  11.021  11.065 -0.0582  0.8766  0.7413
23685SOL    HW176375   4.818  10.928  11.074  1.1117  0.6431  0.7921
23685SOL    HW276376   4.753  11.059  11.034 -0.4506 -0.2188  0.4110
23686SOL     OW76377   5.145   3.581   5.674 -0.0140 -0.2589  0.1274
23686SOL    HW176378   5.178   3.542   5.593  0.0427  1.3468 -0.6535
23686SOL    HW276379   5.216   3.637   5.704 -0.9358  1.0210 -0.0287
23687SOL     OW76380   6.548  10.924   2.464 -0.1218  0.3226 -0.2080
23687SOL    HW176381   6.577  10.833   2.462  3.0834  1.2418 -0.0914
23687SOL    HW276382   6.592  10.962   2.541 -0.9599  2.1054 -0.5448
23688SOL     OW76383   6.063   3.228   9.242 -0.2237 -0.1135 -0.0282
23688SOL    HW176384   6.038   3.276   9.320 -1.0404 -1.2401  0.4347
23688SOL    HW276385   6.151   3.260   9.221 -0.2265  0.6173  1.0009
23689SOL     OW76386   8.809   1.465   9.001  0.4392 -0.1893 -0.4677
23689SOL    HW176387   8.858   1.406   9.057  0.2244  1.4425  1.5846
23689SOL    HW276388   8.759   1.408   8.943  1.6771 -1.9416  0.1166
23690SOL     OW76389   3.320   1.069   1.245  0.3803 -0.1151 -0.6691
23690SOL    HW176390   3.280   1.050   1.160 -0.7332  1.1860 -0.4872
23690SOL    HW276391   3.395   1.125   1.224  2.2853 -2.6430 -1.0208
23691SOL     OW76392   1.449   5.720   4.878 -0.0372  0.4564  0.5048
23691SOL    HW176393   1.363   5.678   4.875  0.2316 -0.0493 -1.0414
23691SOL    HW276394   1.448   5.781   4.805  1.2920 -0.3569 -0.2389
23692SOL     OW76395  11.148   8.873   5.205 -0.0036 -0.3945 -0.4508
23692SOL    HW176396  11.200   8.939   5.251 -1.1521 -0.5110  1.0882
23692SOL    HW276397  11.174   8.790   5.244 -0.8881 -0.5097 -0.0765
23693SOL     OW76398  10.051   7.059  10.009  0.4738 -0.0658  0.0106
23693SOL    HW176399  10.083   6.973   9.981  0.1384  0.4869 -2.2262
23693SOL    HW276400  10.121   7.092  10.066  1.2718 -1.2204 -0.2456
23694SOL     OW76401   3.051   7.011   8.116  0.5571  0.1429 -0.1303
23694SOL    HW176402   3.074   6.966   8.035  0.2384 -1.3314  0.5685
23694SOL    HW276403   3.125   6.995   8.175 -0.3744 -1.1122  0.7471
23695SOL     OW76404   6.668   3.780  10.842  0.2354  0.0839 -0.2316
23695SOL    HW176405   6.592   3.774  10.899 -0.4493 -0.5477 -1.1847
23695SOL    HW276406   6.643   3.734  10.762  1.9282 -0.8920 -0.2482
23696SOL     OW76407   7.357   3.233   8.179  0.0461  0.2210 -0.7096
23696SOL    HW176408   7.408   3.192   8.249  1.6519  0.3463 -1.7522
23696SOL    HW276409   7.415   3.231   8.103 -0.4657  2.8309 -1.2725
23697SOL     OW76410  10.953   6.915   9.377 -0.2973 -0.2704 -0.7771
23697SOL    HW176411  10.948   6.855   9.302 -0.0957 -0.2116 -0.8357
23697SOL    HW276412  10.867   6.957   9.379  0.4938  1.5564 -2.4855
23698SOL     OW76413  10.707   4.424  10.885  0.1843 -0.4079  0.4308
23698SOL    HW176414  10.679   4.444  10.974 -1.1501  1.6666 -0.3810
23698SOL    HW276415  10.699   4.506  10.838  0.9580 -1.4208 -1.6035
23699SOL     OW76416   1.558   8.407   5.543  0.5511 -0.0417 -0.4795
23699SOL    HW176417   1.535   8.423   5.634  3.2627  2.1014 -0.0093
23699SOL    HW276418   1.508   8.473   5.494  0.3923 -0.0530 -0.3338
23700SOL     OW76419   6.543   8.474  11.146 -0.4950  0.1964  0.5397
23700SOL    HW176420   6.521   8.426  11.066 -1.6141  0.7822  0.4672
23700SOL    HW276421   6.608   8.420  11.190  0.1751 -0.1159 -0.7849
23701SOL     OW76422   7.848   6.902   8.324  0.5644  0.0400  0.0238
23701SOL    HW176423   7.813   6.991   8.317  0.5058 -0.0967 -2.4557
23701SOL    HW276424   7.815   6.858   8.246  1.2306 -1.9381  0.8130
23702SOL     OW76425   6.271   2.450   6.606  0.0041  0.3715 -0.7808
23702SOL    HW176426   6.278   2.389   6.680 -0.1134 -1.8883 -2.5351
23702SOL    HW276427   6.182   2.485   6.612  0.0036  0.2359  0.1384
23703SOL     OW76428   7.808   7.007   8.884 -0.3756 -0.0360  0.6527
23703SOL    HW176429   7.830   6.933   8.828  2.5599  0.0374  1.5646
23703SOL    HW276430   7.875   7.072   8.865 -2.2654  2.0193  0.6663
23704SOL     OW76431   5.818   9.968   7.206 -0.1557  0.2662 -0.1709
23704SOL    HW176432   5.779  10.041   7.255  0.3218  0.9024 -0.7289
23704SOL    HW276433   5.912   9.976   7.220 -0.1232 -0.5017  0.1102
23705SOL     OW76434   2.299   7.468   5.995 -0.4224  0.4430  0.3078
23705SOL    HW176435   2.225   7.507   6.041 -0.1911  0.3532  0.7630
23705SOL    HW276436   2.356   7.542   5.975  0.4872  0.2528  2.0340
23706SOL     OW76437  11.160   7.660   6.864  0.5081  0.5154  0.0935
23706SOL    HW176438  11.247   7.622   6.848  0.0176 -0.5549 -0.1068
23706SOL    HW276439  11.164   7.690   6.955  0.9901  0.2031  0.1821
23707SOL     OW76440   5.152   6.087   5.795 -0.0958  0.4021  0.1114
23707SOL    HW176441   5.112   6.131   5.870 -1.2542  1.9329 -1.3366
23707SOL    HW276442   5.218   6.148   5.764  1.5877 -0.9537  0.8336
23708SOL     OW76443  10.396   2.988   7.371  0.1617  0.2144 -0.5028
23708SOL    HW176444  10.491   2.981   7.368  0.0883 -1.3158 -0.3914
23708SOL    HW276445  10.375   3.005   7.463  0.2465 -2.2037  0.0338
23709SOL     OW76446   1.524   9.704   1.550  0.5839  0.0809 -0.0375
23709SOL    HW176447   1.444   9.751   1.573  0.3854 -0.0937 -0.3641
23709SOL    HW276448   1.496   9.613   1.538  1.0333 -0.2021  0.9761
23710SOL     OW76449   8.230  10.377   6.372  0.0494  0.5115 -0.0331
23710SOL    HW176450   8.237  10.285   6.344  1.6838  0.7150 -0.4276
23710SOL    HW276451   8.203  10.424   6.294 -1.9276  0.2618  0.4456
23711SOL     OW76452   6.751   7.958   5.326  0.1090  0.8565  0.3796
23711SOL    HW176453   6.750   7.935   5.233  0.3984  0.8041  0.3884
23711SOL    HW276454   6.709   8.044   5.330  1.2001  1.4272  0.0433
23712SOL     OW76455   8.892   8.891   7.837  0.1879  0.1868 -0.0208
23712SOL    HW176456   8.883   8.824   7.769  1.7956 -0.2272  0.1445
23712SOL    HW276457   8.832   8.960   7.810  0.0501 -0.4052 -1.3262
23713SOL     OW76458   9.627   1.983   6.691 -0.6096 -0.2425  0.1871
23713SOL    HW176459   9.620   1.905   6.745  0.4493 -0.2187  0.3856
23713SOL    HW276460   9.590   2.053   6.744  0.9475 -0.1104  1.1538
23714SOL     OW76461   9.132   5.907   0.604  0.5964 -0.0808 -0.3999
23714SOL    HW176462   9.128   5.852   0.526 -1.6058 -1.6042  0.6612
23714SOL    HW276463   9.061   5.874   0.659  2.2161  0.7414  2.3679
23715SOL     OW76464   3.622   3.052   4.851  0.3933 -0.4893 -0.3136
23715SOL    HW176465   3.712   3.081   4.866  0.4861 -0.5944 -0.6592
23715SOL    HW276466   3.608   2.981   4.914  0.5244 -0.4185 -0.2054
23716SOL     OW76467   8.396   5.758   8.421 -0.1220  0.0930  0.0480
23716SOL    HW176468   8.338   5.682   8.412  0.4047 -0.5830  1.8848
23716SOL    HW276469   8.377   5.812   8.345 -1.8438 -0.9956 -0.3429
23717SOL     OW76470   8.011  11.217   9.340  0.2010 -0.2457  0.4048
23717SOL    HW176471   7.937  11.208   9.400 -0.2844  1.5890  0.1515
23717SOL    HW276472   7.989  11.160   9.266  0.3793 -1.8296  1.5272
23718SOL     OW76473   5.072   6.565   3.053 -0.0230 -0.4156 -0.1587
23718SOL    HW176474   5.120   6.638   3.094  0.3666 -1.1143  0.6564
23718SOL    HW276475   5.139   6.499   3.037 -0.1184 -0.1036 -2.1506
23719SOL     OW76476   3.573   4.970   2.433  0.0344 -0.1908  0.1970
23719SOL    HW176477   3.665   4.946   2.423  0.3935  1.3989 -0.5676
23719SOL    HW276478   3.574   5.047   2.489 -0.9930 -1.1233  1.5887
23720SOL     OW76479   5.429   8.469   0.258 -0.8139  0.1555 -0.0035
23720SOL    HW176480   5.475   8.414   0.195  0.1178 -0.4183  1.1440
23720SOL    HW276481   5.384   8.534   0.204  1.5635  0.9385 -1.2044
23721SOL     OW76482   9.912   3.659  11.108 -0.3334 -0.7025  0.4633
23721SOL    HW176483   9.972   3.638  11.036 -0.7859  1.0893 -0.4892
23721SOL    HW276484   9.896   3.575  11.151 -1.0412 -2.1072 -2.3042
23722SOL     OW76485  10.580   3.151  11.361 -0.1444  0.3439  0.4347
23722SOL    HW176486  10.607   3.161  11.270 -0.7724 -1.8907 -0.0661
23722SOL    HW276487  10.501   3.205  11.368 -0.5291 -0.0637 -0.5741
23723SOL     OW76488   9.717   6.971   4.139 -0.3798 -0.2223 -0.4573
23723SOL    HW176489   9.692   6.901   4.078 -1.7466  1.0242 -1.3951
23723SOL    HW276490   9.781   6.930   4.197  0.9875 -1.5069 -2.7005
23724SOL     OW76491   5.477   7.737   2.162  0.0536  0.2000  0.3244
23724SOL    HW176492   5.477   7.823   2.205  1.4197 -0.5655  1.9769
23724SOL    HW276493   5.492   7.675   2.233  0.0653 -1.3361 -0.9687
23725SOL     OW76494   3.539  10.157   6.827  0.1962  0.7507 -0.4731
23725SOL    HW176495   3.607  10.212   6.788 -1.2489  1.6613 -1.8264
23725SOL    HW276496   3.524  10.195   6.914  1.0016  0.8854 -0.3855
23726SOL     OW76497   7.419   5.557  10.995 -0.2444 -0.0721  0.3102
23726SOL    HW176498   7.426   5.635  11.050 -2.5865  0.3655  0.1066
23726SOL    HW276499   7.402   5.486  11.056  0.0565 -0.1025  0.3595
23727SOL     OW76500   8.464   8.188   4.051 -0.1774 -0.1538 -0.2645
23727SOL    HW176501   8.486   8.144   3.968  0.4274 -0.1683 -0.0981
23727SOL    HW276502   8.398   8.131   4.090  1.1770 -1.3945  0.3391
23728SOL     OW76503   8.279   4.871   2.423 -0.0278 -0.6165  0.5443
23728SOL    HW176504   8.333   4.943   2.391 -1.1927  0.3024  0.5858
23728SOL    HW276505   8.236   4.837   2.345  0.4429 -1.2227  0.5393
23729SOL     OW76506  10.985  11.201   0.552  0.6670 -0.1941 -0.1053
23729SOL    HW176507  11.004  11.177   0.642  2.4137  0.2724 -0.3279
23729SOL    HW276508  11.058  11.256   0.525 -0.3093  0.4888 -1.5054
23730SOL     OW76509   3.549  10.901   1.049 -0.4727  0.0838  0.1880
23730SOL    HW176510   3.454  10.901   1.063 -0.6106  0.2487 -0.6786
23730SOL    HW276511   3.585  10.874   1.133 -1.2527  0.6818  0.7302
23731SOL     OW76512   9.768   8.131   0.630 -0.4698  0.0255 -0.1444
23731SOL    HW176513   9.852   8.115   0.673  0.2594  3.2342 -0.1021
23731SOL    HW276514   9.789   8.133   0.537 -0.2744  1.5665 -0.0981
23732SOL     OW76515   5.904   5.473   1.519 -0.1618 -0.6518  0.1890
23732SOL    HW176516   5.831   5.534   1.510  0.4218  0.3162  1.5864
23732SOL    HW276517   5.931   5.455   1.430 -1.1391  0.1838 -0.2970
23733SOL     OW76518   0.295   8.394   3.642  0.5385  0.0795  0.6576
23733SOL    HW176519   0.236   8.344   3.697 -1.1434  0.6247 -0.5510
23733SOL    HW276520   0.307   8.340   3.564  0.6684  0.4986  0.3803
23734SOL     OW76521   7.515   5.289   4.377  0.0418 -0.0980  0.6206
23734SOL    HW176522   7.431   5.273   4.421 -0.5847 -0.0385 -0.4973
23734SOL    HW276523   7.567   5.338   4.441 -0.5790 -0.5933  1.5247
23735SOL     OW76524   3.202   4.891   3.766  0.1489 -0.2707  0.0664
23735SOL    HW176525   3.248   4.909   3.684 -2.4724  1.8833 -1.1140
23735SOL    HW276526   3.172   4.801   3.758  2.2856 -1.0121 -0.0465
23736SOL     OW76527   0.279   8.817   6.143  0.2775 -0.6328 -0.1105
23736SOL    HW176528   0.338   8.892   6.152 -0.3288 -0.3268  1.7296
23736SOL    HW276529   0.204   8.839   6.197 -0.8615 -1.6899 -1.2032
23737SOL     OW76530   8.853   1.796  10.032  0.0183  0.3447 -0.1445
23737SOL    HW176531   8.914   1.870  10.026  0.6943 -0.2230 -0.5069
23737SOL    HW276532   8.898   1.732  10.088 -0.6776  0.3201  0.3959
23738SOL     OW76533   6.152   9.261   3.590  0.6137  0.2567 -0.0778
23738SOL    HW176534   6.178   9.204   3.518 -0.8006 -1.2114  0.5145
23738SOL    HW276535   6.081   9.214   3.634  1.4552  1.0641  2.3167
23739SOL     OW76536   5.995   2.627  11.042  0.6974 -0.2088 -0.7344
23739SOL    HW176537   6.002   2.670  11.127 -0.7276  0.3572 -0.8695
23739SOL    HW276538   6.033   2.690  10.981 -3.2618  2.0496 -1.2383
23740SOL     OW76539   1.012   0.399   9.042 -0.3848  0.4679  0.5069
23740SOL    HW176540   0.987   0.478   9.090 -0.1370  0.3015  0.9160
23740SOL    HW276541   1.011   0.426   8.950 -2.2798  0.3947  0.4691
23741SOL     OW76542   2.445   9.264   4.058  0.0174 -0.0787  0.1642
23741SOL    HW176543   2.521   9.205   4.059 -0.9857 -1.5631 -2.2509
23741SOL    HW276544   2.482   9.351   4.073  1.7824 -1.0805  2.0463
23742SOL     OW76545   3.235   5.121   3.905 -0.1753  0.0878 -0.3236
23742SOL    HW176546   3.242   5.053   3.838  1.0307  0.5662 -0.7063
23742SOL    HW276547   3.170   5.087   3.967  0.2760 -1.3434 -0.5954
23743SOL     OW76548   1.651   1.487   7.010 -0.5622 -0.0617  0.3096
23743SOL    HW176549   1.566   1.514   7.043 -0.6909 -0.2987  0.1805
23743SOL    HW276550   1.683   1.562   6.960 -1.1586 -0.3228 -0.5039
23744SOL     OW76551   5.774   3.843   7.577  0.0727 -0.3941 -0.2056
23744SOL    HW176552   5.730   3.785   7.639 -2.4100  2.4873  1.0324
23744SOL    HW276553   5.867   3.830   7.593 -0.4374 -1.8752  2.0444
23745SOL     OW76554   8.422   3.495   7.483  0.9785 -0.4572 -0.3318
23745SOL    HW176555   8.408   3.560   7.415 -0.8768  0.9281  1.2626
23745SOL    HW276556   8.339   3.447   7.488  2.4429 -3.4295 -1.8247
23746SOL     OW76557   2.065   8.086  11.032 -0.5077  0.2278  0.0671
23746SOL    HW176558   2.055   8.133  11.115  0.7413  1.5360 -0.4888
23746SOL    HW276559   2.159   8.077  11.021 -0.5959  1.2790 -1.8516
23747SOL     OW76560   3.949  11.570   2.825  0.2458 -0.4745 -0.3558
23747SOL    HW176561   4.000  11.644   2.857  0.4131 -0.3999 -0.7827
23747SOL    HW276562   4.004  11.494   2.842  0.5528 -0.3834 -0.9159
23748SOL     OW76563   4.339   7.543   3.777  0.1811 -0.1741 -0.1611
23748SOL    HW176564   4.347   7.452   3.748 -2.6060 -1.1078  1.5927
23748SOL    HW276565   4.413   7.556   3.835  1.6280 -0.6911 -1.8207
23749SOL     OW76566   6.222   7.663   2.794  0.7625 -0.7583 -0.0811
23749SOL    HW176567   6.289   7.711   2.842 -0.3344 -0.6864  1.4636
23749SOL    HW276568   6.202   7.587   2.849 -2.2911  0.6148  0.9532
23750SOL     OW76569   0.719   6.719   9.316 -0.5450 -0.3237 -0.1957
23750SOL    HW176570   0.794   6.716   9.376 -0.5432 -0.0625 -0.1851
23750SOL    HW276571   0.708   6.812   9.296  0.6280 -0.5375 -2.0942
23751SOL     OW76572   0.914   4.615  11.694  0.0647 -0.5083  0.4116
23751SOL    HW176573   0.917   4.606  11.598  2.1049 -0.2806  0.4092
23751SOL    HW276574   0.871   4.699  11.709 -0.5043 -0.6647 -0.2866
23752SOL     OW76575   0.224   5.724   5.255 -0.2544  0.2067 -0.1464
23752SOL    HW176576   0.274   5.723   5.337 -0.6571  0.4592  0.1039
23752SOL    HW276577   0.290   5.742   5.187  0.3396 -1.4918 -0.0742
23753SOL     OW76578   3.834   4.636  11.771  0.3649 -0.1242 -0.1047
23753SOL    HW176579   3.896   4.708  11.757  1.5450 -1.4677 -2.3037
23753SOL    HW276580   3.754   4.679  11.800  1.4050  1.9439 -0.1027
23754SOL     OW76581   2.157   2.198   2.398  0.5579 -0.3400 -0.3195
23754SOL    HW176582   2.084   2.252   2.367  2.3581  3.0229  0.9210
23754SOL    HW276583   2.198   2.165   2.318 -1.1464 -0.7778 -1.0705
23755SOL     OW76584   1.982   8.872   4.447 -0.5928 -0.6190  0.1945
23755SOL    HW176585   1.967   8.943   4.385  0.8873  0.5463  1.0931
23755SOL    HW276586   1.963   8.911   4.532  0.3543 -1.2523  0.7128
23756SOL     OW76587   7.979   7.296  11.419  0.3150 -0.4617  0.6820
23756SOL    HW176588   7.888   7.279  11.444  0.8328 -1.7015  1.8577
23756SOL    HW276589   8.004   7.372  11.471 -1.2287  2.6790 -2.7065
23757SOL     OW76590  11.169  11.688   0.459 -0.0635  0.4536  0.0895
23757SOL    HW176591  11.074  11.675   0.462 -0.0251 -0.1144 -0.8846
23757SOL    HW276592  11.197  11.645   0.378  1.0462  0.4971  0.4323
23758SOL     OW76593  10.746   8.407   3.857 -0.2563  0.1654 -0.0240
23758SOL    HW176594  10.740   8.361   3.774  2.3255  0.5641 -0.5096
23758SOL    HW276595  10.738   8.338   3.923 -2.2311 -0.1654 -0.5597
23759SOL     OW76596   7.544   9.066   6.920 -0.2093 -0.2087  0.0770
23759SOL    HW176597   7.597   9.095   6.846  1.0845  1.2303  1.4772
23759SOL    HW276598   7.530   8.973   6.905  1.3325 -0.2783 -1.1859
23760SOL     OW76599   8.693   3.620   5.920 -0.7857  1.0417  0.0450
23760SOL    HW176600   8.760   3.617   5.988 -1.8188 -1.6050  1.0540
23760SOL    HW276601   8.620   3.570   5.956 -1.3374 -0.6182 -3.0673
23761SOL     OW76602   9.555   9.112   0.386 -0.4238  0.0340 -0.4008
23761SOL    HW176603   9.491   9.041   0.390 -0.5308  0.1135 -0.6317
23761SOL    HW276604   9.512   9.185   0.431 -0.9750  0.4399 -1.5230
23762SOL     OW76605   6.115   2.871   7.456  1.1219 -0.7691  0.0394
23762SOL    HW176606   6.172   2.868   7.379  1.5850  0.2421  0.3320
23762SOL    HW276607   6.033   2.908   7.423  0.3305 -2.8422 -0.5300
23763SOL     OW76608  11.702   7.431   0.872  1.0154 -0.4290  0.4887
23763SOL    HW176609  11.652   7.363   0.829  0.6604 -0.2362  0.5947
23763SOL    HW276610  11.691   7.508   0.817 -0.0621  0.0220  1.3092
23764SOL     OW76611   1.825   7.605   5.069 -0.2928  0.2739 -0.0834
23764SOL    HW176612   1.744   7.622   5.021  0.3082  0.8406 -0.9097
23764SOL    HW276613   1.832   7.678   5.131 -0.5625  0.0691  0.1895
23765SOL     OW76614   3.489   8.552   9.880 -0.3910  0.2547 -0.2007
23765SOL    HW176615   3.450   8.501   9.951  0.3676  0.7217  0.5734
23765SOL    HW276616   3.439   8.634   9.879  0.5344  0.8621  0.8067
23766SOL     OW76617   9.145  11.573   1.265 -0.4624  0.0127 -0.3931
23766SOL    HW176618   9.098  11.593   1.184 -1.5670  0.1214  0.2539
23766SOL    HW276619   9.085  11.599   1.335  0.3307 -0.4011  0.4676
23767SOL     OW76620   0.956  10.065  10.428 -0.0485  0.2153  0.0497
23767SOL    HW176621   0.904  10.020  10.494 -1.1531 -0.9182 -1.5243
23767SOL    HW276622   0.900  10.135  10.396  0.8070  1.3166  0.8753
23768SOL     OW76623   7.398   4.575   1.853 -0.2212  0.2787 -0.0969
23768SOL    HW176624   7.377   4.482   1.847  0.4242  0.1878 -1.3936
23768SOL    HW276625   7.472   4.581   1.912  2.2131 -0.5275 -2.8271
23769SOL     OW76626   8.386   2.059   4.414 -0.2116 -0.0063  0.5143
23769SOL    HW176627   8.293   2.048   4.397 -0.2335  1.5274 -0.5381
23769SOL    HW276628   8.429   2.003   4.348 -0.3900  1.0423 -0.5275
23770SOL     OW76629   9.152  10.693  11.513  0.0883 -0.4116  0.2636
23770SOL    HW176630   9.152  10.787  11.531 -2.5059 -0.0161 -1.2545
23770SOL    HW276631   9.094  10.656  11.580  0.0334 -0.7488  0.0304
23771SOL     OW76632   8.783   6.399   3.505  0.4985 -0.1208 -0.1736
23771SOL    HW176633   8.852   6.349   3.549  0.2846 -1.5607 -1.3804
23771SOL    HW276634   8.735   6.334   3.454 -2.0255  0.7658  0.9115
23772SOL     OW76635   3.053   7.282   0.275 -0.1233  0.0566  0.0156
23772SOL    HW176636   3.044   7.290   0.180  1.4266  0.5222 -0.1142
23772SOL    HW276637   3.040   7.371   0.307 -1.8790 -0.2964  0.3899
23773SOL     OW76638   5.934   0.341   8.509 -0.3051  0.0390 -0.0491
23773SOL    HW176639   5.921   0.248   8.526 -1.2175  0.6656  3.7138
23773SOL    HW276640   5.846   0.379   8.517  0.2842  1.3820  0.2832
23774SOL     OW76641   5.421   0.778   3.013  0.5431  0.6249  0.3377
23774SOL    HW176642   5.406   0.692   2.974  2.2681  0.8169 -0.9153
23774SOL    HW276643   5.384   0.840   2.949 -0.6219  0.8289  1.1938
23775SOL     OW76644   5.253   0.239   6.827 -0.4575  0.7267  0.0140
23775SOL    HW176645   5.335   0.228   6.779 -0.7739  0.8343 -0.5608
23775SOL    HW276646   5.277   0.231   6.919  0.1831  0.6744 -0.1582
23776SOL     OW76647   8.485   8.957   8.559 -0.4831  0.1966 -0.6075
23776SOL    HW176648   8.395   8.926   8.565  0.0784 -1.2765  1.3401
23776SOL    HW276649   8.498   9.008   8.639 -0.2860  2.5624 -2.0588
23777SOL     OW76650  10.916  11.630   5.027  0.2106 -0.8650  0.3190
23777SOL    HW176651  10.890  11.548   4.986  0.2235 -1.6267  1.7509
23777SOL    HW276652  10.985  11.606   5.089  1.5592  0.5326 -0.5596
23778SOL     OW76653   6.239   3.716   2.201  0.1906 -0.2773  0.3385
23778SOL    HW176654   6.230   3.677   2.114 -2.7770  0.6791  0.1144
23778SOL    HW276655   6.214   3.647   2.262  1.6030 -0.7315  0.4497
23779SOL     OW76656   1.969  11.650   9.762  0.1888 -0.2131 -0.0141
23779SOL    HW176657   2.003  11.643   9.673 -0.4303 -1.0241 -0.1989
23779SOL    HW276658   1.874  11.656   9.750  0.0691 -0.8039  0.6047
23780SOL     OW76659   0.128   7.071   8.528  0.3203 -0.5754  0.0592
23780SOL    HW176660   0.183   7.025   8.591  0.6678  1.0289  0.9773
23780SOL    HW276661   0.144   7.164   8.546 -1.1222 -0.0874 -1.0423
23781SOL     OW76662  10.296   3.260   7.514 -0.3622  0.4368  0.5939
23781SOL    HW176663  10.297   3.167   7.536  1.1193  0.2984 -0.0090
23781SOL    HW276664  10.359   3.300   7.574 -1.0087  1.0666  0.8711
23782SOL     OW76665   5.738   8.146  10.227  0.5110 -0.0905  0.0507
23782SOL    HW176666   5.754   8.166  10.135  1.1710 -2.5995 -0.4693
23782SOL    HW276667   5.656   8.097  10.227  1.7043 -2.2346  0.3760
23783SOL     OW76668   7.686   8.535   3.117 -0.1526 -0.3020 -0.0722
23783SOL    HW176669   7.642   8.616   3.141  1.4117  1.1922 -1.9673
23783SOL    HW276670   7.751   8.521   3.186 -0.4630 -0.0061  0.2858
23784SOL     OW76671  10.170   4.408   2.950  0.0832 -0.0723  0.4484
23784SOL    HW176672  10.163   4.387   2.857  2.0806  0.2182  0.1821
23784SOL    HW276673  10.079   4.419   2.979 -0.5979 -0.4496 -1.3856
23785SOL     OW76674  10.033   3.956   6.504 -0.3612  0.5761 -0.2381
23785SOL    HW176675   9.968   3.975   6.572 -0.3669 -0.1768 -0.0159
23785SOL    HW276676   9.984   3.907   6.437  0.0193 -0.1955  0.0358
23786SOL     OW76677   2.957   2.149   6.585 -0.1611 -0.1499  0.5600
23786SOL    HW176678   3.026   2.208   6.617  0.1295 -0.5269  0.6518
23786SOL    HW276679   2.986   2.062   6.614 -0.3851 -0.3825  0.0906
23787SOL     OW76680   7.857  11.597   9.075 -0.1057  0.2264 -0.4986
23787SOL    HW176681   7.911  11.538   9.022  0.5241  0.6558 -0.3428
23787SOL    HW276682   7.818  11.657   9.012  1.9120  1.7722 -0.3971
23788SOL     OW76683   6.908   4.231  10.441  0.4791  0.2820 -0.1206
23788SOL    HW176684   6.952   4.146  10.433 -0.9884 -0.6404  1.0189
23788SOL    HW276685   6.975   4.295  10.418  2.2148 -1.0737  0.9063
23789SOL     OW76686   4.650   6.603   9.002  0.4007  0.4940  0.8966
23789SOL    HW176687   4.559   6.597   8.970 -0.3166 -0.7980  2.9690
23789SOL    HW276688   4.657   6.692   9.036  0.3909  1.0666 -0.5276
23790SOL     OW76689   9.036   4.252   3.766  0.2200  0.2325  0.3746
23790SOL    HW176690   9.118   4.261   3.814 -0.7978  1.9812  1.8950
23790SOL    HW276691   9.028   4.159   3.748  2.3602 -0.0082  0.4765
23791SOL     OW76692  10.601   5.783   5.710 -0.1995  0.2523 -0.1294
23791SOL    HW176693  10.516   5.776   5.754 -0.2948  1.5196 -0.0777
23791SOL    HW276694  10.614   5.877   5.697  2.0428  0.2457  1.5090
23792SOL     OW76695  11.166  11.613   4.298 -0.5384 -0.4983 -0.2779
23792SOL    HW176696  11.085  11.565   4.280  0.4334 -1.4042 -2.4666
23792SOL    HW276697  11.203  11.631   4.212  1.3735  0.3189  0.6699
23793SOL     OW76698   7.003   3.005  10.298  0.1735 -0.0479 -0.3063
23793SOL    HW176699   7.056   2.936  10.338  0.2569 -0.0812 -0.4737
23793SOL    HW276700   7.063   3.050  10.238  0.3649  0.7403  0.4519
23794SOL     OW76701  10.599   3.827   2.363  0.1596  0.0248  0.2084
23794SOL    HW176702  10.622   3.876   2.442 -0.6355  1.0164 -0.1541
23794SOL    HW276703  10.506   3.807   2.373  0.0498  0.1595 -0.4735
23795SOL     OW76704   7.708   4.685   9.917  0.2032 -0.0608 -0.2075
23795SOL    HW176705   7.786   4.681   9.862  0.3826  2.1700 -0.1739
23795SOL    HW276706   7.740   4.675  10.006  0.3168 -0.2196 -0.2662
23796SOL     OW76707   2.696   4.953   2.521  0.1801  0.2582  0.3143
23796SOL    HW176708   2.714   4.946   2.615  0.2801 -1.2027  0.2047
23796SOL    HW276709   2.622   4.894   2.506  0.5722 -0.0201 -0.6185
23797SOL     OW76710   6.666   1.786   0.775  0.0461 -0.6262 -0.3900
23797SOL    HW176711   6.609   1.712   0.795 -0.0162  0.0121  2.1511
23797SOL    HW276712   6.621   1.861   0.814  0.8133  0.5380 -1.6596
23798SOL     OW76713  10.989   1.454   8.684 -0.4962 -0.0484 -0.2249
23798SOL    HW176714  10.985   1.420   8.774 -0.4976 -0.4748 -0.3845
23798SOL    HW276715  11.052   1.397   8.640 -0.0865  0.4952 -0.3556
23799SOL     OW76716   7.390   7.380   4.577  0.7395  0.0209 -0.1156
23799SOL    HW176717   7.389   7.309   4.642 -0.7539 -0.6863 -0.8563
23799SOL    HW276718   7.408   7.336   4.494 -0.7963  0.4052 -0.6747
23800SOL     OW76719   3.655   2.170   6.765 -0.4470  0.5409 -0.0856
23800SOL    HW176720   3.599   2.171   6.688  0.1588  3.0669 -0.5844
23800SOL    HW276721   3.705   2.088   6.758 -2.1384 -0.4506 -1.0200
23801SOL     OW76722  11.081   8.484  11.475 -0.7621  0.4761  0.3130
23801SOL    HW176723  11.153   8.529  11.430 -0.4381 -0.0064  0.3458
23801SOL    HW276724  11.106   8.486  11.567 -1.6287  1.8443  0.5431
23802SOL     OW76725  11.162  11.024  11.678 -0.2828  0.2314 -0.5252
23802SOL    HW176726  11.159  10.970  11.756  0.0783  0.3365 -0.4353
23802SOL    HW276727  11.074  11.019  11.642 -1.3474  2.4829  1.4598
23803SOL     OW76728   7.691   7.250   7.398  0.5595 -0.2676 -0.0718
23803SOL    HW176729   7.699   7.172   7.342  2.6805  0.6373 -1.1455
23803SOL    HW276730   7.757   7.239   7.465 -0.1172 -0.0471  0.6468
23804SOL     OW76731   9.164  11.217   5.351  0.1568 -0.1190 -0.2256
23804SOL    HW176732   9.113  11.219   5.270 -0.4539  0.1738  0.1579
23804SOL    HW276733   9.098  11.219   5.420  0.6665 -0.6337  0.2792
23805SOL     OW76734   3.947   0.366  10.365  0.7707 -0.2219 -0.1281
23805SOL    HW176735   4.009   0.383  10.294  0.7393  1.3502  0.1682
23805SOL    HW276736   3.986   0.411  10.441  0.5235 -1.3828  0.7130
23806SOL     OW76737   5.880   3.170   1.162 -0.2491 -0.1165  0.2439
23806SOL    HW176738   5.896   3.092   1.109  0.5333 -0.0992  0.4454
23806SOL    HW276739   5.882   3.242   1.099 -0.2334 -0.1859  0.1640
23807SOL     OW76740   6.149   6.717  11.294  0.3866  0.4556 -0.6149
23807SOL    HW176741   6.056   6.691  11.288  0.4778  0.1810 -0.9129
23807SOL    HW276742   6.168   6.718  11.388 -0.1651  1.4178 -0.5036
23808SOL     OW76743   3.518   9.128   7.840  0.0628 -0.4760 -0.8710
23808SOL    HW176744   3.451   9.077   7.887 -0.2742 -0.6434 -1.5232
23808SOL    HW276745   3.483   9.136   7.751  1.2771 -1.2330 -1.4388
23809SOL     OW76746  10.870   5.872   8.906  0.0615 -0.5406  0.1618
23809SOL    HW176747  10.901   5.806   8.969 -0.8004 -1.0646  0.0527
23809SOL    HW276748  10.878   5.955   8.953  2.3341 -0.5401 -0.1257
23810SOL     OW76749   0.763  10.609   4.334  0.0079 -0.2384 -0.1196
23810SOL    HW176750   0.802  10.641   4.415  0.6334  1.8203 -1.1716
23810SOL    HW276751   0.766  10.514   4.342 -0.2495 -0.0945  2.3919
23811SOL     OW76752   7.006   0.492  10.179  0.5892 -0.0551 -0.0931
23811SOL    HW176753   7.036   0.440  10.253  2.2833  0.2097 -0.5573
23811SOL    HW276754   6.937   0.440  10.139  0.7079 -0.8920  0.7632
23812SOL     OW76755   1.579   2.000  11.264 -0.1250  0.0627  0.5220
23812SOL    HW176756   1.566   2.095  11.259  0.5482  0.1319  0.0072
23812SOL    HW276757   1.659   1.989  11.315  0.2419 -0.1984 -0.0992
23813SOL     OW76758   0.989  11.368   1.303 -0.1455  0.1049 -0.4942
23813SOL    HW176759   1.022  11.453   1.273  0.1291  0.0538 -0.3369
23813SOL    HW276760   1.008  11.309   1.230  0.3041  0.0311 -0.3202
23814SOL     OW76761   0.356   4.736   3.948 -0.0498  0.0091 -0.3243
23814SOL    HW176762   0.302   4.691   4.014  0.6318 -0.0311  0.2129
23814SOL    HW276763   0.444   4.738   3.986 -0.2109  2.5712  0.0700
23815SOL     OW76764   9.089  11.268   2.021 -0.2795  0.1674  0.1979
23815SOL    HW176765   9.062  11.311   2.103  0.9180  1.6921 -0.1677
23815SOL    HW276766   9.164  11.215   2.046  0.7836  1.4934 -0.0740
23816SOL     OW76767   6.202   0.692  10.049  0.3386 -0.3799  0.4763
23816SOL    HW176768   6.178   0.774  10.091 -1.5910  0.1989 -1.5201
23816SOL    HW276769   6.125   0.636  10.061  0.4663 -0.8315 -0.6829
23817SOL     OW76770   3.467   3.991   6.089 -0.2803  0.2305  0.1978
23817SOL    HW176771   3.461   4.045   6.010 -0.3470 -0.5395 -0.3366
23817SOL    HW276772   3.554   4.011   6.125 -0.4917  1.0371  0.2690
23818SOL     OW76773   2.084   1.758   7.993  0.1901 -0.4927  0.3082
23818SOL    HW176774   1.995   1.748   7.957 -0.6016 -0.8395  2.2362
23818SOL    HW276775   2.129   1.814   7.930 -1.1218 -0.9930 -1.1515
23819SOL     OW76776  11.137   6.261  11.308 -0.0829  0.1978  0.0828
23819SOL    HW176777  11.120   6.167  11.321  0.3506  0.1398  0.2551
23819SOL    HW276778  11.069   6.289  11.247 -0.4537 -0.1435  0.3316
23820SOL     OW76779   0.105   5.757  11.293  0.2926  0.0630  0.5167
23820SOL    HW176780   0.047   5.694  11.337 -1.5965 -1.2046 -3.3372
23820SOL    HW276781   0.081   5.842  11.331 -1.4192 -0.8831  1.6754
23821SOL     OW76782   9.672   9.934  10.788  0.2375  0.3538 -0.0369
23821SOL    HW176783   9.691   9.847  10.821 -2.3572  0.4670  2.0765
23821SOL    HW276784   9.740   9.990  10.825  0.5684 -0.4180  0.5357
23822SOL     OW76785   2.286   9.053   0.176  0.2502 -0.4184  0.3281
23822SOL    HW176786   2.252   8.985   0.234 -0.3232 -0.3404  0.1007
23822SOL    HW276787   2.380   9.054   0.191  0.2784 -1.3347  0.2550
23823SOL     OW76788   9.000   7.903  11.699  0.4720  0.3583 -0.2480
23823SOL    HW176789   8.916   7.886  11.742  0.0381  1.3016 -0.6846
23823SOL    HW276790   9.004   7.998  11.691  0.1829  0.2411 -2.9207
23824SOL     OW76791   6.594   0.194   1.169  0.2662 -0.4970 -0.1814
23824SOL    HW176792   6.582   0.174   1.077  0.1739 -0.1168 -0.2552
23824SOL    HW276793   6.669   0.254   1.171  0.4517 -0.7320  0.0185
23825SOL     OW76794   8.695   6.944  10.303  0.2195  0.4195 -0.3131
23825SOL    HW176795   8.791   6.945  10.298  0.3465  2.0026  1.4102
23825SOL    HW276796   8.668   7.026  10.263 -0.2365  1.1325  1.4018
23826SOL     OW76797   9.727   6.674   4.905  0.0816  0.1458  0.0575
23826SOL    HW176798   9.819   6.694   4.889 -0.2658  1.8025 -0.0211
23826SOL    HW276799   9.679   6.729   4.844 -1.0409  1.4828  2.0332
23827SOL     OW76800   5.359   2.897   5.327 -0.4261  0.3422 -0.0867
23827SOL    HW176801   5.395   2.940   5.404 -0.8187  2.7552 -1.1668
23827SOL    HW276802   5.279   2.855   5.359  1.5445 -2.4044  1.6474
23828SOL     OW76803   9.632   6.956   9.573  0.1297 -0.3219  0.1555
23828SOL    HW176804   9.642   6.874   9.622  0.0036 -0.0736  0.6065
23828SOL    HW276805   9.630   7.024   9.641 -0.2686  0.0105 -0.1858
23829SOL     OW76806   3.596   5.998   8.725 -0.4287 -0.1995  0.0364
23829SOL    HW176807   3.553   6.004   8.639  0.3886 -0.3787 -0.3930
23829SOL    HW276808   3.610   5.905   8.738 -0.8860 -0.1990  0.5370
23830SOL     OW76809   3.958   5.247  10.410  0.2368  0.3772 -0.0280
23830SOL    HW176810   4.037   5.280  10.368 -0.2278  0.2068 -1.0670
23830SOL    HW276811   3.887   5.277  10.353 -0.4607  0.6229  0.9488
23831SOL     OW76812  11.413   1.191   9.507 -0.9207 -0.1341  0.2680
23831SOL    HW176813  11.426   1.203   9.601  1.5874 -3.2524  0.4990
23831SOL    HW276814  11.327   1.149   9.500 -0.2345 -1.8469  1.4632
23832SOL     OW76815  11.330   2.490   7.643  0.1229  0.5353 -0.5340
23832SOL    HW176816  11.344   2.520   7.553  0.6355  0.6526 -0.4142
23832SOL    HW276817  11.244   2.447   7.641  0.0312  0.7412 -1.0270
23833SOL     OW76818   3.525   9.226   9.616 -0.7775  0.5734 -0.2368
23833SOL    HW176819   3.510   9.139   9.579 -0.4347  0.8654 -1.0696
23833SOL    HW276820   3.470   9.284   9.564  1.0864  1.2541 -1.5523
23834SOL     OW76821  11.181   5.090   4.462 -0.4374 -0.1151 -0.3877
23834SOL    HW176822  11.234   5.170   4.459 -0.5466  0.0167  0.7766
23834SOL    HW276823  11.091   5.121   4.466 -0.5826 -0.3343 -1.7804
23835SOL     OW76824   3.852   3.263  10.217 -0.0226  0.1460 -0.1575
23835SOL    HW176825   3.841   3.322  10.292 -0.8908 -0.1822 -0.0152
23835SOL    HW276826   3.881   3.180  10.256  1.5741  0.5647 -0.3912
23836SOL     OW76827   0.125  11.588   3.785  0.0795  0.2515  0.2974
23836SOL    HW176828   0.167  11.653   3.842 -1.3534  1.7817 -0.3019
23836SOL    HW276829   0.117  11.631   3.700 -0.8313 -0.7390 -0.1534
23837SOL     OW76830   9.250   0.501   0.045 -0.6662 -0.0214 -0.5075
23837SOL    HW176831   9.279   0.585   0.009 -1.6547  0.3911 -0.3805
23837SOL    HW276832   9.253   0.513   0.140  1.5111 -0.9590 -0.4099
23838SOL     OW76833   9.100   0.574   5.629 -0.1615 -0.7150  0.1000
23838SOL    HW176834   9.138   0.489   5.651 -4.3655 -3.0334 -0.3372
23838SOL    HW276835   9.067   0.562   5.540  0.0997  1.8341 -0.4041
23839SOL     OW76836   0.261   9.033   0.245 -0.6177  0.1691 -0.3170
23839SOL    HW176837   0.323   9.104   0.264 -1.3139  0.7719 -0.2370
23839SOL    HW276838   0.308   8.975   0.185  0.5753 -0.2158  0.9451
23840SOL     OW76839   6.533  11.585   8.256 -0.1452 -0.2464 -0.4695
23840SOL    HW176840   6.445  11.546   8.249  0.4408 -1.4867 -1.2264
23840SOL    HW276841   6.520  11.664   8.309 -1.7356 -0.3509 -0.6498
23841SOL     OW76842   9.634   2.094   2.414 -0.2029 -0.2411  0.2021
23841SOL    HW176843   9.551   2.060   2.379  0.0424  0.4126 -1.0764
23841SOL    HW276844   9.668   2.023   2.469 -1.0685 -0.9442 -0.1450
23842SOL     OW76845   0.431   9.007   5.319 -0.3732 -0.6361 -0.2949
23842SOL    HW176846   0.492   9.063   5.367 -0.8545 -1.8118  1.8131
23842SOL    HW276847   0.447   9.027   5.227  1.5846  0.7250  0.2805
23843SOL     OW76848   5.578   1.803  10.218 -0.3119 -0.2943  0.5339
23843SOL    HW176849   5.652   1.861  10.232  0.8038 -1.6186  0.2951
23843SOL    HW276850   5.542   1.788  10.305  0.0986 -0.1613  0.7286
23844SOL     OW76851   4.729  10.403   9.752 -0.2144 -0.0923 -0.0082
23844SOL    HW176852   4.681  10.335   9.704  0.3233 -0.9792  0.6889
23844SOL    HW276853   4.799  10.429   9.692  1.6899 -2.6131  0.9754
23845SOL     OW76854   0.901   9.803   4.993 -0.0010  0.6629 -0.2063
23845SOL    HW176855   0.942   9.889   4.999  1.1357  0.1506 -0.2190
23845SOL    HW276856   0.937   9.755   5.068 -0.0180 -0.0334 -0.6402
23846SOL     OW76857   2.323   7.102  11.236 -0.1831  0.1978  0.4792
23846SOL    HW176858   2.353   7.154  11.311 -1.5354  0.9833  0.5054
23846SOL    HW276859   2.313   7.014  11.271 -0.3007  0.4471  1.0952
23847SOL     OW76860   0.358   4.523   8.337  0.4615 -0.1720  0.6306
23847SOL    HW176861   0.322   4.546   8.251  0.8239 -0.5217  0.3798
23847SOL    HW276862   0.284   4.529   8.397  0.6959  2.6505  0.7882
23848SOL     OW76863   8.000   2.448   2.015 -0.3487 -0.6068 -0.2566
23848SOL    HW176864   8.029   2.369   2.061  0.4762  0.8329  1.8728
23848SOL    HW276865   7.913   2.426   1.982 -0.2075 -2.3314  0.4185
23849SOL     OW76866   7.330   1.544   0.978 -0.1331 -0.0580  0.2741
23849SOL    HW176867   7.247   1.561   0.933  0.6659  0.1272 -1.1888
23849SOL    HW276868   7.340   1.449   0.976 -1.0615 -0.2288  1.9115
23850SOL     OW76869  11.696   3.344   8.306  0.1236 -0.1249  0.4038
23850SOL    HW176870  11.704   3.400   8.229  1.4708 -1.0450 -0.1583
23850SOL    HW276871  11.606   3.357   8.336 -0.7517 -0.4742 -1.9001
23851SOL     OW76872   1.728   1.012  11.808  0.2352  0.2795  0.7646
23851SOL    HW176873   1.711   1.104  11.829  1.4480  0.2194  2.1849
23851SOL    HW276874   1.699   0.964  11.886  0.3051 -0.4632  0.3389
23852SOL     OW76875   1.378   0.273   3.652  0.0809 -0.1585  0.4168
23852SOL    HW176876   1.425   0.302   3.574 -2.0383  4.2704  0.4477
23852SOL    HW276877   1.431   0.305   3.725 -1.6506  3.1312  0.4614
23853SOL     OW76878   7.187   3.983  10.373 -0.1573 -0.4358  0.4396
23853SOL    HW176879   7.231   4.067  10.388 -0.0736 -0.4515  0.2860
23853SOL    HW276880   7.161   3.953  10.460  1.2707 -1.0468  0.6726
23854SOL     OW76881   9.963   1.421   9.398  0.0602 -0.4816  0.1706
23854SOL    HW176882  10.042   1.430   9.451  0.8762 -0.9998 -0.9264
23854SOL    HW276883   9.896   1.393   9.460  1.0612 -1.4029  0.8802
23855SOL     OW76884   5.671   4.780   0.932 -0.1816  0.1329  0.5858
23855SOL    HW176885   5.625   4.839   0.872  1.2992 -0.6078 -1.4030
23855SOL    HW276886   5.762   4.811   0.931  0.1708 -0.8287  1.2699
23856SOL     OW76887   5.925   8.886   7.599 -0.1964  0.1028 -0.2122
23856SOL    HW176888   5.983   8.881   7.523 -1.0967  0.6168 -0.9452
23856SOL    HW276889   5.843   8.846   7.570 -0.1454 -0.8752  0.9039
23857SOL     OW76890   6.610   7.768   8.207 -0.1913 -0.2958 -0.7486
23857SOL    HW176891   6.690   7.819   8.195 -0.8170  1.0227  0.4231
23857SOL    HW276892   6.618   7.730   8.294 -1.2265  0.6039 -0.2458
23858SOL     OW76893  10.933   5.439   6.166 -0.3076 -0.6393  0.6219
23858SOL    HW176894  10.964   5.436   6.075 -0.7219  1.4710  0.3593
23858SOL    HW276895  10.841   5.414   6.161 -0.8334  1.2664  0.1484
23859SOL     OW76896   6.971   6.060  11.145  0.0342  0.2488 -0.4364
23859SOL    HW176897   6.926   6.081  11.063  0.0334  0.6517 -0.3373
23859SOL    HW276898   7.044   6.004  11.120 -2.6085 -3.6332 -0.2468
23860SOL     OW76899   2.342   9.458   3.497 -0.6657 -0.1697  0.0408
23860SOL    HW176900   2.374   9.497   3.415  0.8961  0.2192  0.7957
23860SOL    HW276901   2.405   9.389   3.517 -2.3122 -1.8300 -0.2386
23861SOL     OW76902   2.023   0.730   7.548  0.6099 -0.5505 -0.7464
23861SOL    HW176903   2.076   0.701   7.623 -0.2843  0.9323  0.5328
23861SOL    HW276904   1.933   0.728   7.580  0.1000 -0.7974 -2.1224
23862SOL     OW76905   4.842   7.430  10.093 -0.3909  0.1227  0.4127
23862SOL    HW176906   4.832   7.482  10.172 -1.0066  1.5417 -0.5598
23862SOL    HW276907   4.785   7.473  10.028  1.1121 -0.1873 -1.1877
23863SOL     OW76908   4.413   6.514   1.202 -0.1652 -0.2557  0.6852
23863SOL    HW176909   4.408   6.597   1.249  0.0544  0.8062 -1.0646
23863SOL    HW276910   4.343   6.519   1.137  0.2389 -1.1581  0.1621
23864SOL     OW76911   1.577   2.340  10.558 -0.1377  0.0821  0.0141
23864SOL    HW176912   1.533   2.403  10.501  2.1903  1.3406 -0.5416
23864SOL    HW276913   1.564   2.375  10.647 -1.2530 -0.2445 -0.0114
23865SOL     OW76914   7.976   6.365   4.899  0.0112 -0.5449  0.0024
23865SOL    HW176915   8.018   6.351   4.814  2.0986  0.1640  0.8663
23865SOL    HW276916   7.932   6.449   4.890  3.5558  1.5957  0.7339
23866SOL     OW76917   1.209  10.362   9.526  0.0558  0.3290  0.4251
23866SOL    HW176918   1.227  10.377   9.433 -1.6602 -1.2396 -0.2433
23866SOL    HW276919   1.275  10.298   9.553 -0.8115 -0.9526 -0.3812
23867SOL     OW76920   6.251  10.551   2.548 -0.2653  0.1928  0.4252
23867SOL    HW176921   6.208  10.472   2.515  1.0087  0.4312 -2.0114
23867SOL    HW276922   6.182  10.617   2.547 -0.2347  0.2736 -2.2533
23868SOL     OW76923   8.522   8.324   1.585 -0.1479  0.0309 -0.1954
23868SOL    HW176924   8.534   8.418   1.597  0.6149 -0.0297 -0.4565
23868SOL    HW276925   8.559   8.306   1.498 -2.3924 -0.1164 -1.1982
23869SOL     OW76926   7.952   8.444   6.344  0.3211 -1.0214 -0.1482
23869SOL    HW176927   7.958   8.535   6.374  0.8157 -1.1535  0.1799
23869SOL    HW276928   8.016   8.397   6.398  0.9831 -1.3384 -1.1834
23870SOL     OW76929   5.142   2.634   2.147  0.0534  0.6547  0.3519
23870SOL    HW176930   5.167   2.640   2.239 -0.3115  0.5006  0.4646
23870SOL    HW276931   5.047   2.645   2.148  0.2053  2.2515 -0.1684
23871SOL     OW76932   4.846  10.868   5.119  0.1308  0.2073  0.0151
23871SOL    HW176933   4.840  10.922   5.040 -0.7689  0.5794  0.3187
23871SOL    HW276934   4.755  10.852   5.144  0.4013 -0.2967  0.7127
23872SOL     OW76935   8.911  10.269   4.288 -0.2905 -0.4987 -0.3188
23872SOL    HW176936   8.949  10.355   4.306  1.8089 -1.3320 -0.4289
23872SOL    HW276937   8.830  10.287   4.240  0.8456  1.3783 -1.6523
23873SOL     OW76938   5.725  10.165   0.328 -0.1745  0.1972 -0.0307
23873SOL    HW176939   5.696  10.198   0.243  1.2705 -0.2306 -0.7260
23873SOL    HW276940   5.763  10.242   0.371  1.3162 -0.0570 -0.8084
23874SOL     OW76941   0.236   2.248   1.633  0.2604 -0.1051  0.1454
23874SOL    HW176942   0.176   2.318   1.605 -0.0260  0.3233  1.7023
23874SOL    HW276943   0.177   2.179   1.663  0.5508 -0.3114  0.2309
23875SOL     OW76944  10.379   1.717   9.717  0.2164  0.1702 -0.1363
23875SOL    HW176945  10.473   1.721   9.738  0.2641 -1.0551 -0.0573
23875SOL    HW276946  10.364   1.793   9.661  1.4687 -0.1818 -0.9793
23876SOL     OW76947  11.377   3.106   9.493  0.0744  0.0559 -0.0133
23876SOL    HW176948  11.377   3.188   9.543  0.9439 -0.7623  1.3802
23876SOL    HW276949  11.450   3.115   9.432  0.2370  0.2753  0.2108
23877SOL     OW76950  10.119   0.074   5.158  0.1365 -0.2762  0.8347
23877SOL    HW176951  10.116   0.147   5.220  0.2829  1.3845 -1.0106
23877SOL    HW276952  10.052   0.095   5.093  1.6547 -0.6048 -0.9357
23878SOL     OW76953   5.610   3.238   9.203  0.0918 -0.1729  0.1597
23878SOL    HW176954   5.523   3.250   9.165  0.4487  0.3616 -0.4970
23878SOL    HW276955   5.654   3.177   9.144 -0.6482 -2.4855  1.8126
23879SOL     OW76956  11.213   8.584   8.156  0.6056 -0.3324  0.4564
23879SOL    HW176957  11.130   8.555   8.119  0.2083  0.3111  0.8234
23879SOL    HW276958  11.195   8.672   8.189  1.8384  0.4341 -0.8315
23880SOL     OW76959   0.630   5.673  11.200  0.5221  0.1027  0.2351
23880SOL    HW176960   0.669   5.711  11.121  0.8605  0.7438  0.6999
23880SOL    HW276961   0.537   5.692  11.192  0.6233  0.6075  0.2303
23881SOL     OW76962   0.910   9.195   4.847  0.7802 -0.5277 -0.5302
23881SOL    HW176963   0.863   9.263   4.798  0.0540 -0.9857 -0.4857
23881SOL    HW276964   1.002   9.215   4.833  0.5964  1.2990  0.6358
23882SOL     OW76965   3.123   5.515   9.687  0.1247 -0.0137  0.2061
23882SOL    HW176966   3.159   5.558   9.764  5.9148 -2.4899 -0.5670
23882SOL    HW276967   3.124   5.582   9.618  1.6438  0.5653  0.7535
23883SOL     OW76968  10.592   7.207   6.448  0.9566  0.2600  0.1241
23883SOL    HW176969  10.533   7.132   6.457  1.1348  0.0350 -0.5153
23883SOL    HW276970  10.645   7.206   6.528 -1.3260  1.7489  1.7926
23884SOL     OW76971   4.757   6.969   4.069 -0.3544 -0.0247  0.5861
23884SOL    HW176972   4.815   6.976   3.994  1.9576  0.5140  2.3147
23884SOL    HW276973   4.749   7.058   4.103 -2.3953 -0.0502  0.3053
23885SOL     OW76974   0.033   2.720   1.998  0.1648  0.5809 -0.1783
23885SOL    HW176975   0.063   2.629   2.000 -0.8509  0.2516  0.7573
23885SOL    HW276976   0.046   2.747   1.907  1.3787 -0.1767 -0.2565
23886SOL     OW76977  11.255   9.353   3.591  0.0316  0.3822 -0.5751
23886SOL    HW176978  11.184   9.295   3.563  0.9671  0.0562 -2.4583
23886SOL    HW276979  11.335   9.302   3.579  0.6837  1.0580  0.6033
23887SOL     OW76980  11.373   4.277   6.543 -0.0516  0.1726 -0.4291
23887SOL    HW176981  11.409   4.349   6.491  0.3596  0.1889 -0.1297
23887SOL    HW276982  11.397   4.198   6.494  0.3019  0.1897 -0.2863
23888SOL     OW76983   5.166   6.039   9.580 -0.0586  0.1219  0.1351
23888SOL    HW176984   5.090   6.092   9.605 -0.7696 -0.1601 -1.3117
23888SOL    HW276985   5.202   6.008   9.663 -2.5753 -1.1878  0.8359
23889SOL     OW76986   8.995   0.903  10.728 -0.1142  0.1928 -0.0017
23889SOL    HW176987   8.925   0.916  10.791  0.1878  0.4387  0.2851
23889SOL    HW276988   8.950   0.875  10.648 -0.5037 -0.0438  0.2936
23890SOL     OW76989  10.661   1.884  10.716  0.0349 -0.2266 -0.8272
23890SOL    HW176990  10.660   1.975  10.687 -0.0544  0.0168 -0.1000
23890SOL    HW276991  10.597   1.881  10.787  0.8285 -0.6019 -0.1109
23891SOL     OW76992   8.466   0.625   1.134  0.3974  0.1577  0.6496
23891SOL    HW176993   8.382   0.662   1.162  0.3587  1.0302 -0.5514
23891SOL    HW276994   8.529   0.696   1.144  0.5229  0.2678 -0.7310
23892SOL     OW76995   3.173   9.620   6.412 -0.2962 -0.6837 -0.2310
23892SOL    HW176996   3.265   9.594   6.406  0.4116  1.6678 -1.0172
23892SOL    HW276997   3.153   9.616   6.505  0.8594 -0.5499  0.0416
23893SOL     OW76998   4.846   5.000  11.149  0.4349 -0.7707  0.1157
23893SOL    HW176999   4.831   4.950  11.069  2.4688 -1.9689  0.4098
23893SOL    HW277000   4.853   4.934  11.218 -1.8172  0.2729  1.4306
23894SOL     OW77001   6.742   8.671   9.029  0.8531 -0.1235 -0.5902
23894SOL    HW177002   6.757   8.579   9.049  0.5456 -0.0174  0.1720
23894SOL    HW277003   6.826   8.713   9.049 -0.0109  0.3058  2.6603
23895SOL     OW77004   2.033   5.710   1.279 -0.3113  0.0222 -0.1682
23895SOL    HW177005   2.054   5.803   1.292 -0.3535  0.1364 -0.9091
23895SOL    HW277006   2.058   5.692   1.189 -1.6394 -0.3242 -0.4827
23896SOL     OW77007   6.818   5.847   1.639 -0.3909 -0.2806 -0.0129
23896SOL    HW177008   6.820   5.939   1.665 -0.2873  0.2644 -1.8211
23896SOL    HW277009   6.726   5.829   1.622 -0.3232 -0.2923 -0.3726
23897SOL     OW77010  11.643   8.418   8.814  0.0585 -0.1097  0.0164
23897SOL    HW177011  11.615   8.392   8.902 -0.5550  0.0348 -0.1312
23897SOL    HW277012  11.663   8.335   8.770 -1.4066 -0.3285 -0.2885
23898SOL     OW77013   5.433   5.973   5.612  0.5778 -0.0975  0.4909
23898SOL    HW177014   5.454   6.040   5.677  0.7588 -0.0460  0.3792
23898SOL    HW277015   5.436   5.890   5.660  1.4361 -0.1333  0.3870
23899SOL     OW77016  11.553   7.503   4.619 -0.1502 -0.1163 -0.0588
23899SOL    HW177017  11.485   7.451   4.575  2.2378 -1.0800 -2.9871
23899SOL    HW277018  11.541   7.592   4.585 -0.0506 -0.2620 -0.4854
23900SOL     OW77019   2.988   6.075   2.757  0.4935 -0.0410 -0.2529
23900SOL    HW177020   2.973   6.143   2.691  0.3819  0.1589 -0.0209
23900SOL    HW277021   2.925   6.094   2.827  1.5605  0.5910  0.5649
23901SOL     OW77022   6.780   8.013  10.666 -0.0382 -0.4774  0.0345
23901SOL    HW177023   6.781   7.969  10.751  0.4401 -1.4333 -0.4524
23901SOL    HW277024   6.716   7.963  10.614  0.2607 -0.3990 -0.4163
23902SOL     OW77025   4.845   5.586  10.897  0.9557 -0.2974 -0.3983
23902SOL    HW177026   4.895   5.649  10.949  1.4580  0.2151 -1.4691
23902SOL    HW277027   4.849   5.504  10.948 -1.3413  0.9285  2.0120
23903SOL     OW77028   1.279   2.095   6.775  0.2143 -0.5174  0.0599
23903SOL    HW177029   1.305   2.069   6.687  1.3988  1.6532 -0.3092
23903SOL    HW277030   1.362   2.110   6.821 -0.3862 -1.3441  1.4805
23904SOL     OW77031   1.290   0.280  11.491  0.2364 -0.0414 -0.2354
23904SOL    HW177032   1.254   0.296  11.577  0.2227  1.2655 -0.4602
23904SOL    HW277033   1.228   0.321  11.430  1.9943  2.2843 -0.6249
23905SOL     OW77034   8.999   5.018   3.526 -0.6061  0.3834 -0.0564
23905SOL    HW177035   8.910   5.013   3.560 -0.8980  1.4387 -0.6495
23905SOL    HW277036   9.015   5.111   3.512  0.0708  0.1022 -1.3354
23906SOL     OW77037   9.858   9.053  11.572 -0.6166  0.3039 -0.4845
23906SOL    HW177038   9.944   9.026  11.538  0.4117  2.3218  0.3608
23906SOL    HW277039   9.847   9.142  11.540 -0.5722  1.5321  2.5718
23907SOL     OW77040   3.722   8.992   1.773 -0.1012  0.0089  0.2326
23907SOL    HW177041   3.764   9.075   1.794  0.9552 -0.4662  0.0578
23907SOL    HW277042   3.695   8.956   1.857  2.4142 -0.9961  0.6998
23908SOL     OW77043   7.060   6.814  10.308 -0.0969  0.5206 -0.2547
23908SOL    HW177044   7.029   6.889  10.258 -0.5707  0.3516 -0.2162
23908SOL    HW277045   6.980   6.770  10.339  0.1795  0.2076  0.0269
23909SOL     OW77046   1.787   1.542   0.920  0.2479  0.3807  0.4461
23909SOL    HW177047   1.841   1.521   0.844  0.8638  0.4182  0.8621
23909SOL    HW277048   1.838   1.511   0.995 -0.3539  0.3346  0.8420
23910SOL     OW77049   4.128   1.628   9.237  0.4436  0.2760  0.4575
23910SOL    HW177050   4.077   1.584   9.304  0.9348 -1.8572 -0.4969
23910SOL    HW277051   4.214   1.588   9.241  0.7451  0.7345 -0.8301
23911SOL     OW77052   5.217   2.970   7.232 -0.0853  0.2402 -0.2920
23911SOL    HW177053   5.189   2.994   7.143  0.4882  1.0240 -0.2698
23911SOL    HW277054   5.299   2.923   7.220  0.3049  0.8747 -0.1431
23912SOL     OW77055   3.123   8.854  11.120  0.2729 -0.1134 -0.1802
23912SOL    HW177056   3.046   8.806  11.152 -0.3509  0.4018 -0.8676
23912SOL    HW277057   3.160   8.895  11.198 -0.9242  0.6989 -0.0072
23913SOL     OW77058   3.155   4.228   7.995  0.1462  0.0228  0.8428
23913SOL    HW177059   3.106   4.295   8.041 -0.2337  0.2737  0.0785
23913SOL    HW277060   3.246   4.259   7.996 -0.1085  0.8257  0.0146
23914SOL     OW77061  11.505   8.237  10.090  0.2310  0.2077 -0.1020
23914SOL    HW177062  11.579   8.289  10.121  0.5410 -0.7808  0.8801
23914SOL    HW277063  11.450   8.226  10.168 -0.9281  0.8584 -0.7960
23915SOL     OW77064   3.373   2.193   2.713  0.3727  1.1016  0.2275
23915SOL    HW177065   3.428   2.193   2.791  2.0179 -0.5534 -0.8494
23915SOL    HW277066   3.286   2.170   2.746  0.8300  1.3281  1.6693
23916SOL     OW77067   5.378   9.350   6.266 -0.0433  0.2076 -0.0244
23916SOL    HW177068   5.404   9.296   6.191  1.6855  1.6636 -0.5415
23916SOL    HW277069   5.420   9.434   6.250 -3.1567  2.0169  0.3730
23917SOL     OW77070   8.662   8.951   3.188 -0.0682  0.3834 -0.1828
23917SOL    HW177071   8.668   8.957   3.283  0.4472 -0.7852 -0.1150
23917SOL    HW277072   8.568   8.953   3.169 -0.3120 -1.6848  0.5692
23918SOL     OW77073   9.728   3.002  10.117  0.5917  0.2688 -0.5719
23918SOL    HW177074   9.715   3.081  10.065 -1.6697  0.2208 -0.1893
23918SOL    HW277075   9.721   2.931  10.054 -0.3531  0.2804 -0.4930
23919SOL     OW77076   2.497  11.610   3.090  0.5739 -0.2155 -0.3977
23919SOL    HW177077   2.422  11.664   3.066  1.1867  0.2102 -1.4620
23919SOL    HW277078   2.493  11.602   3.185 -1.2365 -0.8391 -0.5013
23920SOL     OW77079   8.171   2.511   5.997 -0.8116  0.1502  0.2926
23920SOL    HW177080   8.261   2.481   5.986 -0.7413 -0.4703  2.2317
23920SOL    HW277081   8.149   2.552   5.913  1.7338  1.5567  0.2073
23921SOL     OW77082   8.544   3.648   3.004  0.2448  0.4571  0.7180
23921SOL    HW177083   8.519   3.558   2.984  0.9959  0.4212 -0.1369
23921SOL    HW277084   8.567   3.647   3.097 -1.3268  0.1460  1.1198
23922SOL     OW77085   6.590   6.352   4.694 -0.8048 -0.5295  0.2094
23922SOL    HW177086   6.685   6.342   4.692 -0.3876  2.5042 -0.2332
23922SOL    HW277087   6.570   6.369   4.786 -1.0252 -1.6472  0.3832
23923SOL     OW77088   6.278   2.944   9.176 -0.4261  0.2238 -0.3685
23923SOL    HW177089   6.250   2.993   9.253  1.1294  0.1846  0.2693
23923SOL    HW277090   6.315   2.863   9.211  0.6103  0.3543 -1.1136
23924SOL     OW77091   5.217   0.333   0.978 -0.3727  0.1943 -0.2038
23924SOL    HW177092   5.310   0.354   0.989 -0.1135 -1.8413  2.3923
23924SOL    HW277093   5.213   0.281   0.898  1.4044 -2.7349  1.4471
23925SOL     OW77094   1.513   2.636   8.239 -0.2793 -0.0321  0.2382
23925SOL    HW177095   1.482   2.561   8.289 -0.7003  0.4431  0.7118
23925SOL    HW277096   1.594   2.662   8.284 -0.6983  0.4426  0.7456
23926SOL     OW77097   5.137  10.485  10.662  0.5364  0.1261 -0.3221
23926SOL    HW177098   5.148  10.572  10.623 -0.8206 -0.2137 -1.5281
23926SOL    HW277099   5.133  10.425  10.587 -0.2476 -0.7824  0.4255
23927SOL     OW77100   7.417   4.537   0.880 -0.7273 -0.1850  0.0565
23927SOL    HW177101   7.504   4.550   0.842 -0.5251 -0.4287  0.4313
23927SOL    HW277102   7.395   4.447   0.858 -1.3178  0.1802 -0.9036
23928SOL     OW77103   7.030  10.646   5.828 -0.7841  0.0150 -0.0400
23928SOL    HW177104   7.078  10.727   5.845 -1.0582  0.1641  0.0268
23928SOL    HW277105   7.015  10.646   5.734 -0.2833 -0.2394 -0.1222
23929SOL     OW77106  10.337   7.444   5.353 -0.0680  0.0267  0.2403
23929SOL    HW177107  10.409   7.407   5.302 -0.0561  1.2542 -0.6848
23929SOL    HW277108  10.330   7.387   5.429  0.2800 -1.5587 -0.8531
23930SOL     OW77109   1.866   3.632   1.895 -0.4019  0.5828  0.8974
23930SOL    HW177110   1.940   3.680   1.931  0.3472 -0.4345  0.7497
23930SOL    HW277111   1.872   3.545   1.934 -0.9840  0.2074  0.1798
23931SOL     OW77112   8.926   7.221   2.441  0.3693 -0.1431 -0.2108
23931SOL    HW177113   8.854   7.204   2.502  2.1131 -0.4250  1.8890
23931SOL    HW277114   8.968   7.136   2.428  1.3814  0.3094  0.0007
23932SOL     OW77115  11.208   4.051   2.658  0.3782  0.4359  0.1063
23932SOL    HW177116  11.159   3.983   2.613 -1.4268  0.4648  1.8880
23932SOL    HW277117  11.172   4.133   2.624  0.8610  0.4906 -0.2847
23933SOL     OW77118   2.490   6.524   3.625  0.1913 -0.0534 -0.2705
23933SOL    HW177119   2.435   6.450   3.650  0.1085 -0.0445 -0.4235
23933SOL    HW277120   2.431   6.584   3.579 -0.0042  0.6536  0.8751
23934SOL     OW77121   4.203   9.243   9.536 -0.2215  0.5920 -0.2054
23934SOL    HW177122   4.220   9.245   9.442  1.0233 -1.5814 -0.0803
23934SOL    HW277123   4.289   9.254   9.576 -0.8094  2.0987  0.7354
23935SOL     OW77124   2.433   3.120   3.161  0.4125  0.0929 -0.3605
23935SOL    HW177125   2.389   3.112   3.246 -2.8801  1.4820 -1.7552
23935SOL    HW277126   2.480   3.202   3.166  0.8618 -0.1974  0.3520
23936SOL     OW77127   0.758   4.911   8.683  0.2297 -0.0599  0.1141
23936SOL    HW177128   0.787   4.820   8.692  0.3807 -0.0853 -0.6129
23936SOL    HW277129   0.688   4.907   8.618 -1.0680  0.0817  1.4515
23937SOL     OW77130   9.256   1.661   1.031  0.2584  0.2249  0.0661
23937SOL    HW177131   9.240   1.695   0.943  1.8240 -1.6367 -1.0264
23937SOL    HW277132   9.169   1.646   1.068 -0.4208  1.5629 -0.9172
23938SOL     OW77133   0.990   2.733   1.171  0.1315 -0.1792 -0.0065
23938SOL    HW177134   0.986   2.739   1.267 -0.4768 -0.5677 -0.0059
23938SOL    HW277135   1.083   2.743   1.151  0.2941 -0.3238  0.6418
23939SOL     OW77136   4.637   5.660   8.288  0.5305 -0.6173  0.2482
23939SOL    HW177137   4.637   5.643   8.194 -0.4404  0.8551 -0.0560
23939SOL    HW277138   4.598   5.747   8.296 -3.9535 -2.4902  2.3143
23940SOL     OW77139   9.048   6.705   3.116 -0.0543  0.2810  0.3678
23940SOL    HW177140   9.005   6.680   3.198 -0.1581  0.1999  0.2895
23940SOL    HW277141   9.001   6.655   3.048 -0.1850  0.5983  0.2233
23941SOL     OW77142   5.143   3.687   7.704 -0.1203  0.2049  0.5187
23941SOL    HW177143   5.093   3.759   7.665  1.6845  1.5919  0.6313
23941SOL    HW277144   5.077   3.622   7.727 -1.5468  0.4803 -2.3429
23942SOL     OW77145   7.078   4.173   0.094  0.1716 -0.7989  0.4413
23942SOL    HW177146   7.116   4.257   0.120 -0.5598 -0.8053  1.5837
23942SOL    HW277147   7.026   4.193   0.017  1.4201 -0.5440 -0.3570
23943SOL     OW77148   7.298   1.276  10.628 -0.1147  0.5864  0.0295
23943SOL    HW177149   7.228   1.227  10.670  0.0010  0.1787 -0.2403
23943SOL    HW277150   7.283   1.367  10.653  0.0180  0.3389  1.0383
23944SOL     OW77151  11.182   4.752   7.228 -0.5554 -0.2857 -0.0152
23944SOL    HW177152  11.087   4.753   7.228 -0.5654 -0.0890 -1.0659
23944SOL    HW277153  11.206   4.749   7.321 -1.5696  0.5300  0.2941
23945SOL     OW77154   4.037   5.716   7.972  0.7474 -0.2947 -0.1989
23945SOL    HW177155   3.996   5.649   7.917 -2.2900  1.0929  0.1921
23945SOL    HW277156   4.018   5.799   7.927 -0.2035  0.7206  1.9423
23946SOL     OW77157   5.581  10.588   6.753  0.6053  0.0152 -0.5957
23946SOL    HW177158   5.625  10.535   6.687 -0.4072  1.8611 -2.9236
23946SOL    HW277159   5.608  10.678   6.733  0.2018  0.6556  1.5059
23947SOL     OW77160   8.314   9.244   2.075  0.2310  0.0553  0.2324
23947SOL    HW177161   8.330   9.310   2.143  5.8123  0.1460 -0.7623
23947SOL    HW277162   8.318   9.292   1.993  0.4201 -0.9977 -0.3931
23948SOL     OW77163   8.673   7.850  11.569 -0.1152  0.5349  0.3374
23948SOL    HW177164   8.733   7.925  11.564 -0.9703  1.2992  1.0735
23948SOL    HW277165   8.639   7.841  11.480 -1.0560  1.9447  0.5117
23949SOL     OW77166   4.182  10.269   1.654 -0.5289 -0.3323 -0.8242
23949SOL    HW177167   4.121  10.300   1.722 -1.1671 -2.0422 -0.5622
23949SOL    HW277168   4.269  10.281   1.692 -0.8451 -0.5185 -0.0236
23950SOL     OW77169   4.455   0.147   4.691 -0.0903 -0.7508  0.1107
23950SOL    HW177170   4.501   0.231   4.700 -0.1115 -0.8691  1.5071
23950SOL    HW277171   4.515   0.093   4.639  0.6893 -0.4209  0.6446
23951SOL     OW77172   9.607   9.541   1.540 -0.4703 -0.6235 -0.0213
23951SOL    HW177173   9.512   9.553   1.548 -0.5998 -1.2443 -0.5511
23951SOL    HW277174   9.638   9.624   1.504 -0.6847 -0.0960  0.9441
23952SOL     OW77175  10.841   0.762   7.975 -0.1620 -0.9519  0.0215
23952SOL    HW177176  10.876   0.759   7.886 -0.2990  0.2020 -0.0899
23952SOL    HW277177  10.834   0.856   7.995 -3.1723 -1.0720  0.0177
23953SOL     OW77178   9.766   1.199   7.343  0.3542 -0.0837 -0.5427
23953SOL    HW177179   9.755   1.209   7.438  2.5351  2.7786 -0.4506
23953SOL    HW277180   9.709   1.266   7.305  1.7402  0.8288 -1.0642
23954SOL     OW77181   6.379   5.094   4.199 -0.1369  0.4970  0.3735
23954SOL    HW177182   6.383   5.185   4.229  0.5603  2.0957 -3.8202
23954SOL    HW277183   6.469   5.064   4.198 -0.0890  0.6368 -0.4102
23955SOL     OW77184   5.131  10.370   4.933 -0.5910  0.9440  0.3439
23955SOL    HW177185   5.159  10.458   4.956  1.4338  0.4518 -0.0396
23955SOL    HW277186   5.166  10.356   4.845  2.5356 -1.5175  1.7529
23956SOL     OW77187  10.286   5.296   8.250 -0.0105  0.4750 -0.3294
23956SOL    HW177188  10.221   5.334   8.192 -1.0769 -0.5973  0.1216
23956SOL    HW277189  10.236   5.242   8.310  1.1174  1.0681  1.2195
23957SOL     OW77190   3.860   4.788   4.625  0.0507  0.2577  0.2579
23957SOL    HW177191   3.899   4.734   4.556 -0.5934  1.6485 -1.2440
23957SOL    HW277192   3.773   4.750   4.639  0.8064 -1.1126  1.6299
23958SOL     OW77193   4.834   3.412   3.754  0.3765  0.1654  0.4247
23958SOL    HW177194   4.916   3.450   3.785  2.1026 -2.2810 -0.7402
23958SOL    HW277195   4.855   3.320   3.737 -1.5029  0.2472 -3.6638
23959SOL     OW77196  10.735   8.224   4.090  0.2195 -0.1927  0.0806
23959SOL    HW177197  10.691   8.144   4.117 -0.0006 -0.0232  0.2294
23959SOL    HW277198  10.784   8.253   4.167 -1.2914  0.8905  0.6859
23960SOL     OW77199   9.139   0.096  10.540 -0.1952  0.2587  0.0177
23960SOL    HW177200   9.049   0.130  10.543 -1.0689 -1.9107  1.3765
23960SOL    HW277201   9.187   0.158  10.485 -1.9405  2.8008  1.1915
23961SOL     OW77202   7.628   0.785   5.141  0.2298  0.1821  0.6971
23961SOL    HW177203   7.602   0.877   5.139  1.7362  0.6258 -0.9775
23961SOL    HW277204   7.612   0.753   5.051  0.4305 -0.9857  1.0539
23962SOL     OW77205   4.876   1.419   3.074 -0.3736 -0.1439 -0.6835
23962SOL    HW177206   4.828   1.459   3.147 -0.1542 -0.7034 -0.2188
23962SOL    HW277207   4.811   1.408   3.006 -0.3693  1.3027 -0.9562
23963SOL     OW77208   6.997   8.139  10.207  0.2133 -0.1143  0.2782
23963SOL    HW177209   6.927   8.078  10.183 -0.3398  0.4832  0.3542
23963SOL    HW277210   7.054   8.088  10.265 -0.0431 -0.6651  0.0547
23964SOL     OW77211   2.503   6.023   3.866  0.0173  0.4087 -0.9468
23964SOL    HW177212   2.589   6.032   3.907 -0.0166 -0.8443 -0.5302
23964SOL    HW277213   2.522   6.000   3.775  0.1790 -1.0431 -0.5807
23965SOL     OW77214   1.900   7.096   5.701 -0.0573 -0.7058  0.5497
23965SOL    HW177215   1.983   7.136   5.726 -0.3373 -0.2642  0.7796
23965SOL    HW277216   1.879   7.137   5.617 -0.4195 -0.2516  0.8577
23966SOL     OW77217  10.920   4.830   1.681  0.2560 -0.0186 -0.1371
23966SOL    HW177218  10.886   4.901   1.626 -0.4657  0.2101  0.5875
23966SOL    HW277219  10.976   4.874   1.745 -0.9604  0.0220  0.9206
23967SOL     OW77220   1.198   4.546   8.724  0.3465 -0.0125 -0.5249
23967SOL    HW177221   1.179   4.536   8.818 -0.2426  0.2626 -0.6068
23967SOL    HW277222   1.275   4.602   8.722  0.0089  0.4758 -0.2085
23968SOL     OW77223   0.622   5.763   6.225 -0.3814 -0.1900  0.7530
23968SOL    HW177224   0.595   5.721   6.143 -0.6745 -0.2386  0.8731
23968SOL    HW277225   0.578   5.847   6.224  0.6598  0.3676  0.2410
23969SOL     OW77226   6.709   4.386   8.561  0.1052 -0.2175 -0.5602
23969SOL    HW177227   6.701   4.481   8.555  0.3909 -0.2193 -1.0303
23969SOL    HW277228   6.619   4.355   8.570  0.0502  0.1296  0.2312
23970SOL     OW77229   3.943   9.516   5.146  0.4797  0.2533 -0.5957
23970SOL    HW177230   3.907   9.460   5.215  0.2362 -0.0190 -0.9427
23970SOL    HW277231   3.867   9.562   5.111  0.4938 -0.1414 -1.1639
23971SOL     OW77232   1.373   6.880   3.225 -0.1633 -0.5737  0.2740
23971SOL    HW177233   1.385   6.922   3.140  2.2174 -0.9292  0.3835
23971SOL    HW277234   1.420   6.797   3.219 -0.4255 -0.8722  1.7663
23972SOL     OW77235   0.034   5.629   7.448 -0.1942  0.2549 -0.4167
23972SOL    HW177236  -0.039   5.612   7.507 -0.2971  0.9520 -0.3373
23972SOL    HW277237   0.079   5.545   7.442 -1.5858 -0.4806 -1.2778
23973SOL     OW77238  10.553   4.822   4.346  0.4451 -0.0440 -0.2555
23973SOL    HW177239  10.589   4.863   4.425 -2.4302  1.4224  0.4108
23973SOL    HW277240  10.504   4.747   4.378 -0.4040  0.3173 -0.6914
23974SOL     OW77241   4.926   8.925   0.695 -0.3883 -0.2701 -0.4552
23974SOL    HW177242   4.998   8.942   0.755 -1.7062  0.1864  1.0812
23974SOL    HW277243   4.891   8.840   0.722  0.0232 -0.8584 -1.6879
23975SOL     OW77244   1.915   8.158  10.816 -0.0759 -0.0025  0.0963
23975SOL    HW177245   1.985   8.139  10.879  1.8826  0.0922 -1.9142
23975SOL    HW277246   1.840   8.185  10.870  1.4730  0.0611  2.3489
23976SOL     OW77247   1.964   9.235  10.439  0.1963 -0.0683  0.4974
23976SOL    HW177248   1.935   9.320  10.473  1.3134  1.3213 -1.7885
23976SOL    HW277249   2.054   9.226  10.470  0.8461  0.6920 -1.0752
23977SOL     OW77250   5.350   4.497   0.908 -0.1695  0.2603 -0.2199
23977SOL    HW177251   5.424   4.504   0.848  0.1309  0.8837  0.2034
23977SOL    HW277252   5.318   4.586   0.917 -1.9416 -0.2112 -1.5630
23978SOL     OW77253   0.417   7.778  10.784 -0.5701  0.1047 -0.1185
23978SOL    HW177254   0.430   7.871  10.764  1.5506 -0.0167  0.4420
23978SOL    HW277255   0.370   7.777  10.867 -0.9761  0.6549 -0.3329
23979SOL     OW77256  11.728   6.476  11.781 -0.2205 -0.7433 -0.2019
23979SOL    HW177257  11.800   6.534  11.755 -1.7591  1.9108  1.1463
23979SOL    HW277258  11.768   6.414  11.842  1.0099  0.4355  0.2275
23980SOL     OW77259   0.366   6.501  10.370 -0.0804  0.2935  0.0505
23980SOL    HW177260   0.308   6.538  10.304  0.6726  1.9472  0.2674
23980SOL    HW277261   0.323   6.419  10.397 -2.5363  1.6344  0.5159
23981SOL     OW77262   1.991   3.167   6.453  0.2463  0.0689  0.0042
23981SOL    HW177263   1.983   3.076   6.428 -0.6067  0.1562 -0.0544
23981SOL    HW277264   1.938   3.215   6.390 -0.2251  0.4941  0.7042
23982SOL     OW77265   2.433   2.247   4.047 -0.2948  0.0300  0.9535
23982SOL    HW177266   2.428   2.336   4.082 -2.8507 -0.1197  1.1113
23982SOL    HW277267   2.414   2.190   4.122  3.8685 -0.9517  1.5336
23983SOL     OW77268   6.713   3.073   3.038  0.4379  0.0503 -0.3717
23983SOL    HW177269   6.645   3.090   3.103  0.7285  0.3081 -0.1330
23983SOL    HW277270   6.703   2.980   3.016  0.5345 -0.1132  0.2663
23984SOL     OW77271   7.248   5.394   1.357  0.4273  0.1690 -0.5038
23984SOL    HW177272   7.246   5.488   1.376  1.3670 -0.1830  1.4942
23984SOL    HW277273   7.166   5.360   1.395  0.2336  0.1161 -0.9579
23985SOL     OW77274   1.890  11.408   4.152 -0.0291  0.3370  0.0302
23985SOL    HW177275   1.836  11.424   4.074  0.6310  2.3995 -0.0642
23985SOL    HW277276   1.963  11.354   4.120  0.5107  1.5863 -0.9274
23986SOL     OW77277  10.960   4.575   6.144 -0.3889  0.5494  0.8027
23986SOL    HW177278  10.975   4.577   6.239 -0.0719 -1.1581  0.8261
23986SOL    HW277279  10.878   4.527   6.134  0.5323 -0.9801  0.1702
23987SOL     OW77280   2.318   4.771   5.042 -0.2469 -0.4290  0.3589
23987SOL    HW177281   2.394   4.814   5.080  1.0762 -0.7713 -1.7854
23987SOL    HW277282   2.248   4.836   5.048  0.6164  0.4783  0.8782
23988SOL     OW77283   6.152   5.489   6.598  0.1823 -0.0960 -0.0107
23988SOL    HW177284   6.067   5.447   6.584  0.4331 -0.2928 -1.0105
23988SOL    HW277285   6.135   5.557   6.663 -1.2291  1.2877 -1.7027
23989SOL     OW77286   9.454   0.193  11.203  0.5885  0.3345  0.4715
23989SOL    HW177287   9.509   0.172  11.278 -0.2906 -1.5957  0.6286
23989SOL    HW277288   9.485   0.135  11.133  0.4232  1.0477 -0.2089
23990SOL     OW77289  11.674   5.338   2.034  0.1234 -0.2740 -0.4446
23990SOL    HW177290  11.745   5.288   1.994  0.5577  1.2602 -1.6650
23990SOL    HW277291  11.666   5.302   2.122  2.2405 -0.6559 -0.3694
23991SOL     OW77292   1.657   4.220   8.382 -0.2970  0.1048 -0.0724
23991SOL    HW177293   1.617   4.143   8.422 -0.8236 -1.1601 -2.7884
23991SOL    HW277294   1.585   4.261   8.333  0.1658  1.9246  0.6965
23992SOL     OW77295   6.419   8.190   2.241  0.3800 -0.0870 -0.1541
23992SOL    HW177296   6.358   8.261   2.258 -0.6459 -0.5466 -1.7132
23992SOL    HW277297   6.459   8.172   2.326 -1.5296  0.3242  0.8829
23993SOL     OW77298  10.891   7.495   2.266  0.4029  0.1052 -0.3574
23993SOL    HW177299  10.906   7.582   2.229 -1.7059  0.7610  0.2176
23993SOL    HW277300  10.958   7.485   2.333  0.6083  1.3336 -0.3595
23994SOL     OW77301   2.657   4.734   1.558 -0.4266 -0.3403  0.2622
23994SOL    HW177302   2.566   4.761   1.559  0.1619  1.9588  2.4769
23994SOL    HW277303   2.707   4.815   1.568  1.5923 -1.7477  5.8643
23995SOL     OW77304   9.616   9.682   9.027  0.3382  0.6842 -0.0606
23995SOL    HW177305   9.654   9.595   9.029 -1.7018 -0.2527  2.0609
23995SOL    HW277306   9.618   9.712   9.118 -2.6085  1.1060 -0.0360
23996SOL     OW77307   8.513  11.209   5.757  0.2819 -0.3958 -0.2158
23996SOL    HW177308   8.486  11.176   5.843  0.2433 -2.3979 -0.9491
23996SOL    HW277309   8.602  11.175   5.745  0.8839  1.1371 -0.3653
23997SOL     OW77310   6.481   4.293   6.144  0.0068 -0.0401  0.5438
23997SOL    HW177311   6.436   4.287   6.228 -0.7549 -0.0320  0.1400
23997SOL    HW277312   6.532   4.213   6.139  1.2582  0.6320  1.6811
23998SOL     OW77313   5.465  11.478   8.870  0.0279 -0.1117 -0.0957
23998SOL    HW177314   5.440  11.560   8.911 -0.0153  1.1475 -2.4674
23998SOL    HW277315   5.384  11.427   8.865 -0.3122  0.4395 -0.1823
23999SOL     OW77316   1.613   2.036   6.557  0.4750  0.5313  0.2520
23999SOL    HW177317   1.580   1.964   6.611  2.3763 -0.8506 -0.2947
23999SOL    HW277318   1.683   2.075   6.608  0.1646  1.3180  0.0911
24000SOL     OW77319   1.675   2.133   0.277  0.2676  0.2168  0.0633
24000SOL    HW177320   1.649   2.185   0.353  0.0313 -2.4076  1.9047
24000SOL    HW277321   1.602   2.073   0.263  1.0595 -0.5005 -1.1649
24001SOL     OW77322   5.597   0.366  11.238 -0.5383 -0.1801  0.0702
24001SOL    HW177323   5.508   0.402  11.231 -0.7998 -0.9129 -0.6455
24001SOL    HW277324   5.620   0.343  11.148 -0.6608 -2.3932  0.5422
24002SOL     OW77325   2.558   5.159   6.253  0.1156  0.4190  0.1245
24002SOL    HW177326   2.578   5.065   6.257  0.8754  0.5585 -0.0821
24002SOL    HW277327   2.484   5.171   6.311 -0.9332 -0.5527 -0.9540
24003SOL     OW77328   0.431   4.349   3.735  0.1024  0.0610 -0.2658
24003SOL    HW177329   0.366   4.361   3.805 -0.2005  0.7489 -0.6615
24003SOL    HW277330   0.508   4.398   3.765 -0.1930  0.7552 -0.6291
24004SOL     OW77331   7.958   3.717   8.088 -0.5572 -0.1421 -0.0019
24004SOL    HW177332   7.929   3.626   8.085 -0.5072 -0.1424 -1.0819
24004SOL    HW277333   8.047   3.713   8.125 -0.7108 -0.4814  0.3342
24005SOL     OW77334  11.476   5.787   8.159 -0.0205 -0.5657  0.1261
24005SOL    HW177335  11.555   5.824   8.197  0.0980 -0.6779 -0.0124
24005SOL    HW277336  11.426   5.863   8.128  0.0935 -0.5042  0.0953
24006SOL     OW77337   0.660   6.079   6.694 -0.9364  0.1288  0.5057
24006SOL    HW177338   0.666   5.984   6.682 -0.2230 -0.0153  1.8320
24006SOL    HW277339   0.631   6.090   6.784  1.4199  1.1875  1.1920
24007SOL     OW77340   9.911   1.290  11.232  0.3751 -0.4635  0.1947
24007SOL    HW177341   9.859   1.270  11.310 -1.5531 -0.5319 -1.0592
24007SOL    HW277342   9.977   1.352  11.263 -0.0446 -0.8474  1.9701
24008SOL     OW77343   4.574   5.284   6.794 -0.0689 -0.0232  0.7029
24008SOL    HW177344   4.549   5.200   6.831  2.1810 -0.7880  0.6126
24008SOL    HW277345   4.532   5.286   6.708 -2.2388  0.1433  1.6786
24009SOL     OW77346  11.766   3.623  10.737 -0.0524  0.1668 -0.2445
24009SOL    HW177347  11.680   3.660  10.718  0.0996 -0.3510 -2.1271
24009SOL    HW277348  11.825   3.699  10.736  0.0329  0.1487 -2.6324
24010SOL     OW77349   2.292   5.637   7.862  0.2618  0.2212  0.6494
24010SOL    HW177350   2.368   5.695   7.862 -0.2785  0.9729 -0.5080
24010SOL    HW277351   2.301   5.587   7.781 -0.3930  0.2197  0.5713
24011SOL     OW77352   1.615   7.123   7.892 -0.0107  0.1179 -0.6209
24011SOL    HW177353   1.578   7.092   7.975 -0.9523 -1.4487 -1.5927
24011SOL    HW277354   1.583   7.062   7.826  1.1807  0.9948 -2.0881
24012SOL     OW77355   0.424   7.460   6.704 -0.0244  0.0655  0.5326
24012SOL    HW177356   0.403   7.405   6.780 -0.0418 -0.2025  0.3362
24012SOL    HW277357   0.377   7.419   6.631 -0.1239  0.4051  0.4059
24013SOL     OW77358   3.896   9.202   1.370  0.3752 -0.3304 -0.0011
24013SOL    HW177359   3.885   9.151   1.290  1.4032 -0.3170 -0.1622
24013SOL    HW277360   3.991   9.207   1.382  0.2396 -0.0135  1.0126
24014SOL     OW77361   4.799   0.755   3.462  0.2915  0.2914  0.8528
24014SOL    HW177362   4.711   0.732   3.431  0.1744  1.4990  0.2209
24014SOL    HW277363   4.840   0.671   3.483 -0.8555 -0.3189  0.7421
24015SOL     OW77364   1.381   3.606   8.917 -0.1155 -0.3898 -0.0195
24015SOL    HW177365   1.373   3.529   8.974 -0.1215 -0.2151  0.2137
24015SOL    HW277366   1.472   3.605   8.888 -0.0764 -0.3967  0.1054
24016SOL     OW77367   3.275   8.090   6.028 -0.4804  0.4482  0.2552
24016SOL    HW177368   3.289   8.153   5.957 -0.4722  0.5485  0.3440
24016SOL    HW277369   3.202   8.127   6.078 -0.8894  0.0593 -0.0551
24017SOL     OW77370   7.803   3.258   7.263  0.3826 -0.0022  0.1538
24017SOL    HW177371   7.778   3.200   7.192 -1.9209 -1.9694  2.3638
24017SOL    HW277372   7.793   3.346   7.228  0.8911 -0.8743 -2.3627
24018SOL     OW77373   3.943   0.434   9.417  0.0462  0.3417  0.0703
24018SOL    HW177374   3.869   0.473   9.464  0.9684  1.1940  0.8720
24018SOL    HW277375   4.017   0.490   9.440  1.3511 -1.6267  0.8913
24019SOL     OW77376   5.240   8.772   4.647  0.1822  0.1423  0.0267
24019SOL    HW177377   5.261   8.690   4.690 -1.4803 -0.8649 -0.9960
24019SOL    HW277378   5.193   8.823   4.713  0.5556 -0.0162  0.4199
24020SOL     OW77379   4.484  11.507   7.376  0.7831  0.0933  0.0003
24020SOL    HW177380   4.411  11.462   7.418  0.9897 -0.9349 -0.7074
24020SOL    HW277381   4.560  11.486   7.430  0.8943 -0.4863 -0.3784
24021SOL     OW77382  10.179   9.394   8.057 -0.2398  0.3430 -0.2128
24021SOL    HW177383  10.186   9.483   8.092 -2.2520 -0.9359  3.9768
24021SOL    HW277384  10.085   9.375   8.059  0.1021 -1.7760 -1.5236
24022SOL     OW77385   7.581   6.030   5.748 -0.5389  0.0870  0.0542
24022SOL    HW177386   7.613   6.103   5.695 -0.0243  1.5335  2.2274
24022SOL    HW277387   7.646   6.021   5.818 -2.0235 -0.6282  1.4039
24023SOL     OW77388   1.760   9.587   9.993 -0.2010  0.2440 -0.9157
24023SOL    HW177389   1.702   9.586  10.069  0.4141  2.0240 -0.3603
24023SOL    HW277390   1.815   9.509  10.003  0.0877  0.6104  0.6690
24024SOL     OW77391   8.476   9.642  10.293  0.0978  0.8539  0.0273
24024SOL    HW177392   8.495   9.650  10.387 -0.6479  0.3858  0.2290
24024SOL    HW277393   8.381   9.652  10.287  0.0509  0.1423 -0.5929
24025SOL     OW77394   6.304   0.875  11.806 -0.0590  0.0123 -0.1419
24025SOL    HW177395   6.391   0.855  11.772 -0.0186  0.6144 -0.4086
24025SOL    HW277396   6.274   0.793  11.845  0.1334 -0.5301 -1.1103
24026SOL     OW77397   3.259   1.210   4.580 -0.3645  0.0604  0.3656
24026SOL    HW177398   3.331   1.220   4.642  0.8331  3.5489 -1.3560
24026SOL    HW277399   3.275   1.126   4.538  0.8390 -0.7032  2.2257
24027SOL     OW77400   8.567   4.221   9.508 -0.4693 -0.5113  0.0815
24027SOL    HW177401   8.477   4.246   9.485 -0.3971 -0.2211  0.0989
24027SOL    HW277402   8.581   4.138   9.465 -0.5188 -0.2339 -0.4731
24028SOL     OW77403   4.558   5.601  11.526 -0.2444 -0.6895 -0.0810
24028SOL    HW177404   4.542   5.574  11.436  1.7920  0.3864 -0.8378
24028SOL    HW277405   4.653   5.589  11.538  0.0246  1.8085  0.9299
24029SOL     OW77406   0.369  10.937  11.031 -0.2945 -0.0065 -0.3038
24029SOL    HW177407   0.364  11.015  11.087 -0.1097  1.5872 -2.4005
24029SOL    HW277408   0.459  10.937  10.998  0.2712 -2.1623  0.9745
24030SOL     OW77409   7.162  11.119   0.592 -0.0208  0.2049 -0.3286
24030SOL    HW177410   7.241  11.109   0.538 -0.1986  0.5674 -0.6542
24030SOL    HW277411   7.128  11.030   0.600  1.5041 -0.2732  1.4728
24031SOL     OW77412   5.269   4.735   7.349 -0.0241  0.3050  0.0406
24031SOL    HW177413   5.360   4.760   7.340  0.1741 -0.6579 -0.7488
24031SOL    HW277414   5.268   4.675   7.423 -0.2831  1.4765  1.0326
24032SOL     OW77415   1.338   6.397   4.713 -0.3700 -0.6689  0.4618
24032SOL    HW177416   1.304   6.429   4.796 -0.0724  0.6688  0.0835
24032SOL    HW277417   1.431   6.381   4.729  0.0272  1.0434  0.0022
24033SOL     OW77418   4.912   4.050   5.546  0.5717 -0.3060  0.3118
24033SOL    HW177419   4.927   4.086   5.459 -0.1113 -1.5643 -0.3534
24033SOL    HW277420   4.818   4.034   5.549  0.0604  2.4173  2.3839
24034SOL     OW77421   3.814   7.723   0.217  0.4694 -0.4937 -0.3543
24034SOL    HW177422   3.804   7.799   0.274 -0.7280 -0.3389 -0.7315
24034SOL    HW277423   3.852   7.656   0.273  1.3763  0.3213  0.0300
24035SOL     OW77424   2.136   1.181   6.239 -0.7984 -0.1733  0.2167
24035SOL    HW177425   2.181   1.264   6.224  2.4425 -1.8384 -0.0310
24035SOL    HW277426   2.118   1.147   6.152 -0.5040 -0.5539  0.3052
24036SOL     OW77427   6.060   6.290  10.239  0.2993 -0.3688  0.4464
24036SOL    HW177428   6.020   6.209  10.269 -3.8317  0.9119 -0.9964
24036SOL    HW277429   6.018   6.359  10.290  0.2559  1.1318 -1.4790
24037SOL     OW77430  10.826   8.255   9.693 -0.0432  0.1497 -0.2334
24037SOL    HW177431  10.898   8.283   9.750 -0.9096 -0.8823  1.4171
24037SOL    HW277432  10.748   8.293   9.732 -0.6713 -0.6263 -0.7075
24038SOL     OW77433   6.730  11.627   4.413 -0.3350  1.0242 -0.0229
24038SOL    HW177434   6.731  11.673   4.497 -0.5919  1.4090 -0.2239
24038SOL    HW277435   6.815  11.585   4.407 -0.6326  0.2701  0.8243
24039SOL     OW77436   8.087   7.072   3.238  0.3093 -0.4355 -0.0953
24039SOL    HW177437   8.177   7.084   3.208 -0.1726 -0.8508 -1.8200
24039SOL    HW277438   8.094   7.063   3.333  2.0675 -0.3654 -0.1919
24040SOL     OW77439   6.533   4.672   8.555  0.0655  0.0651 -0.6517
24040SOL    HW177440   6.481   4.689   8.476 -2.3322 -1.9552  0.3667
24040SOL    HW277441   6.612   4.724   8.542 -0.3064  0.0128 -4.2713
24041SOL     OW77442   2.000   4.143   3.242 -0.5746  1.0963 -0.1515
24041SOL    HW177443   1.977   4.078   3.176  0.2915  0.9691 -0.3327
24041SOL    HW277444   1.953   4.114   3.321  0.2819 -0.1243 -0.0472
24042SOL     OW77445   1.855   2.096  10.778 -0.3456  0.2971 -0.1383
24042SOL    HW177446   1.826   2.127  10.864 -1.2634 -0.0788 -0.2994
24042SOL    HW277447   1.919   2.027  10.798  1.5816  2.0885  0.2195
24043SOL     OW77448   8.478   9.704   4.189  0.4148 -0.1385 -0.1158
24043SOL    HW177449   8.417   9.645   4.234 -0.5365  0.3441 -0.7386
24043SOL    HW277450   8.492   9.776   4.251 -2.5287  1.6002 -1.2441
24044SOL     OW77451   9.112   7.124   0.164 -0.3263 -0.1468 -0.0243
24044SOL    HW177452   9.061   7.044   0.177 -1.0896  0.4048  0.4938
24044SOL    HW277453   9.084   7.158   0.080  0.6792 -0.8924 -0.6859
24045SOL     OW77454   6.049   9.866   7.677 -0.6892 -0.2169  0.0312
24045SOL    HW177455   5.963   9.825   7.664 -0.6508 -1.4825  3.1436
24045SOL    HW277456   6.111   9.802   7.643 -0.8607  0.2635 -1.2775
24046SOL     OW77457   7.515   9.109   7.559  0.3190 -0.3434  0.2443
24046SOL    HW177458   7.522   9.044   7.629  0.9276 -0.4333  0.1025
24046SOL    HW277459   7.586   9.087   7.499  0.2495  0.1807 -0.0310
24047SOL     OW77460   7.468   0.739   4.438  0.1652 -0.0117  0.4008
24047SOL    HW177461   7.460   0.675   4.367  0.1274 -0.3365  0.6960
24047SOL    HW277462   7.558   0.729   4.470 -0.8320 -2.4456  2.8056
24048SOL     OW77463  11.821   1.872   5.600 -0.5442  0.4936 -0.0781
24048SOL    HW177464  11.768   1.877   5.679 -1.4813  0.3345 -0.6797
24048SOL    HW277465  11.851   1.962   5.585  0.3502  0.3713  0.9229
24049SOL     OW77466   4.039   0.591  11.765 -0.4026  0.0788 -0.2145
24049SOL    HW177467   4.006   0.523  11.706  1.8972  0.1505 -1.7182
24049SOL    HW277468   3.972   0.659  11.764 -0.6972 -0.1914 -2.3109
24050SOL     OW77469   5.470   1.551   6.469  0.1766  0.3502 -0.1352
24050SOL    HW177470   5.484   1.616   6.538 -1.8145  0.4943  0.1996
24050SOL    HW277471   5.432   1.601   6.397 -0.1745 -0.2168 -0.3524
24051SOL     OW77472   1.186   8.782   0.913  0.0658 -0.0703 -0.3331
24051SOL    HW177473   1.255   8.836   0.876 -1.6694  1.7219 -1.1731
24051SOL    HW277474   1.105   8.823   0.883 -1.3980 -1.2112  1.7792
24052SOL     OW77475   7.760   0.304   8.961  0.5898  0.0110  0.6982
24052SOL    HW177476   7.668   0.324   8.946  0.7211 -0.1116 -0.3082
24052SOL    HW277477   7.759   0.216   8.999  0.3357 -0.3731 -0.1734
24053SOL     OW77478   9.147   3.204   7.915 -0.1827 -0.1973 -0.0353
24053SOL    HW177479   9.082   3.243   7.856 -0.1735 -2.1097 -1.4156
24053SOL    HW277480   9.101   3.132   7.958  0.3810 -0.1016  0.7446
24054SOL     OW77481   8.771   8.248   9.676 -0.0105  0.1740 -0.0688
24054SOL    HW177482   8.693   8.196   9.695 -0.6298  1.1549  0.1653
24054SOL    HW277483   8.833   8.224   9.745 -0.0846 -0.6398 -0.2789
24055SOL     OW77484   4.378   0.235   1.785 -0.2371  0.5038 -0.3590
24055SOL    HW177485   4.290   0.210   1.815 -0.5978  0.3761 -1.4687
24055SOL    HW277486   4.436   0.171   1.826 -0.9618 -1.1121 -1.7048
24056SOL     OW77487   7.176   7.844   3.441  0.1165 -0.1254  0.2901
24056SOL    HW177488   7.136   7.876   3.360 -0.6060  2.4999  1.5674
24056SOL    HW277489   7.260   7.890   3.447 -0.2056  0.3709  1.3839
24057SOL     OW77490   9.288   6.206  11.361 -0.1460 -0.5925 -1.0650
24057SOL    HW177491   9.216   6.226  11.421  2.1060  0.9901  1.3925
24057SOL    HW277492   9.310   6.290  11.321  1.0614 -0.7486 -0.7878
24058SOL     OW77493   6.319   0.520   4.302  0.3648  0.1590  0.3099
24058SOL    HW177494   6.245   0.503   4.243  1.0071 -0.1863 -0.4073
24058SOL    HW277495   6.284   0.502   4.389 -0.7393  1.1232  0.0984
24059SOL     OW77496   4.742   9.340   5.696  0.1401  0.0492  0.4198
24059SOL    HW177497   4.824   9.291   5.685  0.5129  0.7884 -0.2220
24059SOL    HW277498   4.713   9.358   5.606 -2.3166 -2.7352  0.5117
24060SOL     OW77499   4.940   0.427   5.507  0.4756 -0.2165 -0.3725
24060SOL    HW177500   4.939   0.335   5.481 -0.2160 -0.2321 -0.3036
24060SOL    HW277501   5.001   0.468   5.446 -0.1040 -0.4994 -1.1529
24061SOL     OW77502   9.225   2.976   2.957 -0.4973  0.4261 -0.4677
24061SOL    HW177503   9.180   2.905   3.003 -1.5160 -0.1366 -2.2349
24061SOL    HW277504   9.251   3.037   3.026 -1.1094 -0.8251  0.9232
24062SOL     OW77505  11.415   9.631   7.954  0.2082  0.7398 -0.2894
24062SOL    HW177506  11.384   9.662   8.039  0.3677  0.1276 -0.0061
24062SOL    HW277507  11.365   9.551   7.938  0.1400  0.8839 -0.7978
24063SOL     OW77508   7.909   2.719   9.302  0.2725  0.1614  0.7776
24063SOL    HW177509   7.880   2.704   9.212 -1.3432  1.9577  0.9455
24063SOL    HW277510   7.991   2.670   9.308  0.4720  0.0333 -1.6869
24064SOL     OW77511   4.942   8.289   8.785  0.3998 -0.0148 -0.4946
24064SOL    HW177512   5.015   8.348   8.804 -0.9000  1.7338 -0.7567
24064SOL    HW277513   4.889   8.335   8.720  0.2178 -2.2231 -2.0217
24065SOL     OW77514   3.796   4.813   8.113 -0.4163  0.5942  0.1249
24065SOL    HW177515   3.732   4.841   8.178 -1.6417 -1.3376 -0.1854
24065SOL    HW277516   3.746   4.763   8.049  1.2066  0.0708 -0.8035
24066SOL     OW77517   4.775   7.556   3.245 -0.5332 -0.1733 -0.1021
24066SOL    HW177518   4.847   7.617   3.229  0.2929 -0.8918  0.7701
24066SOL    HW277519   4.711   7.575   3.176  1.0423 -0.3847 -1.6779
24067SOL     OW77520   1.141   4.703   9.277  0.9572  0.3495  0.1784
24067SOL    HW177521   1.181   4.690   9.363 -0.4838 -1.2659  0.6640
24067SOL    HW277522   1.193   4.649   9.218  2.3155  1.9197 -0.1350
24068SOL     OW77523   4.350   0.651   0.060 -0.5432  0.0054 -0.3534
24068SOL    HW177524   4.357   0.710  -0.015  2.3620  0.8206  0.4466
24068SOL    HW277525   4.292   0.695   0.121 -1.1278  0.3954 -1.1774
24069SOL     OW77526   3.408   3.875  10.043  0.1448  0.1465 -0.2222
24069SOL    HW177527   3.416   3.788  10.082  1.9750 -0.3686 -1.6127
24069SOL    HW277528   3.354   3.861   9.964  2.2666 -0.2379 -1.6850
24070SOL     OW77529   0.816   6.469   1.786  0.2703  0.0130  0.5039
24070SOL    HW177530   0.767   6.528   1.729  0.0990 -0.0633  0.5675
24070SOL    HW277531   0.908   6.486   1.767  0.2107 -0.6145 -0.4072
24071SOL     OW77532   4.613   7.712   6.925 -0.4498 -0.3860 -0.2843
24071SOL    HW177533   4.669   7.788   6.915  0.6308 -0.9545  1.0772
24071SOL    HW277534   4.615   7.668   6.840 -0.9641  0.9772 -1.0363
24072SOL     OW77535   4.915   1.514  10.920  0.5465  0.1856 -0.0652
24072SOL    HW177536   4.931   1.446  10.855 -2.8130 -1.9785  1.1071
24072SOL    HW277537   4.945   1.475  11.003  1.9849  1.7034  0.1946
24073SOL     OW77538   4.473   7.253   9.786  0.3729  0.5633  1.2321
24073SOL    HW177539   4.429   7.303   9.855  0.2354 -0.7059  2.0951
24073SOL    HW277540   4.513   7.179   9.831  0.2940 -0.2938 -0.0429
24074SOL     OW77541   6.693  10.279   7.236  0.0616 -0.4856 -0.2760
24074SOL    HW177542   6.608  10.258   7.274 -0.9502  1.0844 -1.5666
24074SOL    HW277543   6.723  10.356   7.283 -1.2516  1.5455 -2.5176
24075SOL     OW77544  11.547   0.402  10.811 -0.5780 -0.1296  0.3678
24075SOL    HW177545  11.467   0.358  10.840 -1.3719  0.3050 -1.0663
24075SOL    HW277546  11.591   0.428  10.892 -0.3667 -2.9438  1.2726
24076SOL     OW77547   7.410  10.940   0.829  0.0230  0.3595  0.3730
24076SOL    HW177548   7.498  10.969   0.853  0.3035 -0.3230  0.2104
24076SOL    HW277549   7.366  10.925   0.913 -0.5534  2.4176  0.4860
24077SOL     OW77550   0.393  11.244   0.153 -0.2212  0.0557  0.3402
24077SOL    HW177551   0.362  11.154   0.152 -1.7825  0.5579  0.8402
24077SOL    HW277552   0.417  11.262   0.062  2.2493 -1.5217  0.6078
24078SOL     OW77553  11.099  10.282  10.665 -0.4576 -0.1535 -0.5029
24078SOL    HW177554  11.130  10.206  10.715 -2.3009  0.1427  1.2028
24078SOL    HW277555  11.146  10.276  10.582  0.4483 -2.4026  0.0873
24079SOL     OW77556   9.109   6.493   2.248 -0.9351  0.2470  0.4552
24079SOL    HW177557   9.177   6.482   2.181 -2.4634  0.9473 -1.2868
24079SOL    HW277558   9.095   6.405   2.282  0.8766  0.0963  0.9381
24080SOL     OW77559   0.850   3.204   2.605  0.3008  0.1979  0.1846
24080SOL    HW177560   0.847   3.221   2.510 -1.1238  2.5692  0.5597
24080SOL    HW277561   0.942   3.188   2.623  0.8918  1.4367 -1.3908
24081SOL     OW77562   2.763   1.657   0.725 -0.0344 -0.2725  0.3385
24081SOL    HW177563   2.805   1.577   0.695 -2.7475 -1.2791 -1.0924
24081SOL    HW277564   2.808   1.728   0.679 -0.4832 -1.3783 -1.9198
24082SOL     OW77565   5.175   3.322  11.728 -0.1668 -0.0132  0.0754
24082SOL    HW177566   5.219   3.276  11.800  0.6321 -0.5679 -0.7395
24082SOL    HW277567   5.186   3.415  11.749  0.3055 -0.1658  0.5299
24083SOL     OW77568   6.373  10.107   1.473 -0.2670  0.1617  0.4773
24083SOL    HW177569   6.373  10.045   1.546 -0.7038  0.1557  0.4723
24083SOL    HW277570   6.391  10.054   1.396 -2.6672 -0.3143  0.1791
24084SOL     OW77571   0.042   1.309   7.230 -0.1403 -0.2681 -0.4698
24084SOL    HW177572   0.110   1.259   7.275 -1.3579 -1.8801 -0.3375
24084SOL    HW277573   0.048   1.397   7.267  1.7011 -0.4262 -0.3074
24085SOL     OW77574   3.499   7.283   7.604 -0.6039 -0.1429  0.2960
24085SOL    HW177575   3.522   7.370   7.635 -0.7284  0.4360 -1.1853
24085SOL    HW277576   3.429   7.255   7.663 -1.2464  1.1722  0.1998
24086SOL     OW77577   1.606   5.332   9.591  0.0481  0.3056  0.3344
24086SOL    HW177578   1.519   5.367   9.573  0.6916  0.9912 -1.6617
24086SOL    HW277579   1.591   5.239   9.606 -0.8803  0.0848 -1.6392
24087SOL     OW77580   3.606   7.597  10.406  0.5862 -0.0127 -0.6208
24087SOL    HW177581   3.669   7.551  10.462  0.1064 -1.0979 -0.9299
24087SOL    HW277582   3.536   7.624  10.466  0.4344 -0.5041 -0.5699
24088SOL     OW77583   4.474   3.516   8.061 -0.3447  0.2644  0.7092
24088SOL    HW177584   4.452   3.451   8.128 -0.6254 -0.9701 -0.5361
24088SOL    HW277585   4.569   3.509   8.050 -0.2844  0.5405  1.0380
24089SOL     OW77586   8.480   5.830   0.935  0.2557 -0.1592  0.8455
24089SOL    HW177587   8.406   5.807   0.991 -0.2078  1.1548  0.8125
24089SOL    HW277588   8.443   5.833   0.846  0.5405 -0.3240  0.7199
24090SOL     OW77589   7.619   6.164   2.488  0.1808  0.0981 -0.4868
24090SOL    HW177590   7.550   6.097   2.484  0.7736 -0.4912 -1.0950
24090SOL    HW277591   7.603   6.219   2.412  0.6705 -0.3375 -0.9119
24091SOL     OW77592   8.072   6.150  11.796  0.5429  0.2381  0.1667
24091SOL    HW177593   8.057   6.103  11.714 -1.3356 -0.9293  1.0925
24091SOL    HW277594   8.092   6.081  11.860 -1.9541  0.6178  1.4927
24092SOL     OW77595   2.285   7.371   0.487  0.5008 -0.1353 -0.1266
24092SOL    HW177596   2.236   7.300   0.445 -1.6559  1.4446 -0.4153
24092SOL    HW277597   2.262   7.366   0.579  0.3701  0.1663 -0.1420
24093SOL     OW77598   8.538   4.256  11.579  0.7241 -0.0320  0.6616
24093SOL    HW177599   8.514   4.235  11.488 -0.5764  1.1269  0.7093
24093SOL    HW277600   8.594   4.183  11.606 -1.1356 -1.8944 -0.1581
24094SOL     OW77601   3.076   6.659   0.426 -0.0800 -0.5351  0.6820
24094SOL    HW177602   3.079   6.622   0.338  1.7053 -0.8569  0.8364
24094SOL    HW277603   3.002   6.616   0.468 -0.2360 -1.2494 -0.2853
24095SOL     OW77604   3.195   6.117   1.276  0.3590 -0.0670 -0.2830
24095SOL    HW177605   3.237   6.046   1.324  1.5278  0.9394  0.2404
24095SOL    HW277606   3.154   6.075   1.201  1.3799 -1.2384 -0.2001
24096SOL     OW77607   7.541   4.594   3.572 -0.1249  0.0829 -0.0273
24096SOL    HW177608   7.485   4.535   3.523 -0.7956 -0.7388  1.6817
24096SOL    HW277609   7.499   4.604   3.657  1.0324  1.4258  0.4432
24097SOL     OW77610   7.736   3.132   5.765  0.0471  0.3023 -0.1690
24097SOL    HW177611   7.736   3.184   5.846  0.0968  0.2258 -0.1195
24097SOL    HW277612   7.808   3.070   5.777 -1.7297 -1.6259  0.9478
24098SOL     OW77613  11.277  11.641  11.033  0.7693  0.6005 -0.4673
24098SOL    HW177614  11.335  11.647  11.109  0.2025 -3.9606  0.6139
24098SOL    HW277615  11.314  11.570  10.980 -2.3179 -0.6907 -1.0759
24099SOL     OW77616   5.029   1.640   0.111 -0.0168  0.4078 -0.2006
24099SOL    HW177617   4.966   1.583   0.067 -0.4871 -0.0960  1.0913
24099SOL    HW277618   5.083   1.675   0.040 -1.9716  1.1621 -1.3936
24100SOL     OW77619   6.206   1.227   7.086  0.2520  0.6005 -0.4343
24100SOL    HW177620   6.169   1.139   7.083 -0.8462  0.9389  1.4899
24100SOL    HW277621   6.286   1.218   7.138  0.7174  0.5803 -1.1350
24101SOL     OW77622   8.439   2.047   8.059  0.3640  0.9736  0.0711
24101SOL    HW177623   8.390   2.128   8.073 -0.8333  0.0641  1.4708
24101SOL    HW277624   8.525   2.064   8.095  0.5075  1.9798 -0.6908
24102SOL     OW77625  11.565   9.294   7.867  0.3134 -0.5426 -0.2738
24102SOL    HW177626  11.562   9.199   7.878 -1.4160 -0.3947  0.8538
24102SOL    HW277627  11.556   9.329   7.955  2.7730  0.7284 -0.4202
24103SOL     OW77628   5.417  10.021   4.443 -0.1912 -0.4746  0.4336
24103SOL    HW177629   5.333  10.027   4.396 -0.4927 -2.2735  0.6791
24103SOL    HW277630   5.482  10.051   4.379 -0.7601 -1.4468 -0.6310
24104SOL     OW77631   6.559  10.626  11.168 -0.1869  0.1941 -0.0368
24104SOL    HW177632   6.560  10.556  11.234 -1.2945  0.3566  0.1673
24104SOL    HW277633   6.551  10.707  11.218 -0.2687  0.3749 -0.3384
24105SOL     OW77634  11.392   1.931   6.351  0.5930 -0.4419  1.1442
24105SOL    HW177635  11.376   1.837   6.358 -0.7124 -0.4560 -1.1556
24105SOL    HW277636  11.317   1.972   6.395 -0.5225 -0.5220 -0.6031
24106SOL     OW77637  10.111   3.816   8.192 -0.7204 -0.1101 -0.0173
24106SOL    HW177638  10.019   3.821   8.217 -0.5710 -0.3114  0.5909
24106SOL    HW277639  10.114   3.853   8.103 -1.3088  0.3485  0.1464
24107SOL     OW77640   5.545   0.762  11.763  0.2573 -0.6256  0.2055
24107SOL    HW177641   5.610   0.824  11.731  0.6088 -0.5196  1.0973
24107SOL    HW277642   5.465   0.814  11.771  0.9009  0.1647  2.3919
24108SOL     OW77643   7.656   6.246   1.789  0.6430  0.0189 -0.7238
24108SOL    HW177644   7.674   6.340   1.791 -1.1345  0.3913  0.4137
24108SOL    HW277645   7.591   6.235   1.719 -0.2005 -0.1222  0.0647
24109SOL     OW77646  11.735   9.926   4.252  0.0454  0.0573 -0.0762
24109SOL    HW177647  11.755  10.009   4.294 -0.1432  0.2879 -0.4394
24109SOL    HW277648  11.818   9.878   4.255  0.1123  0.1911  0.2799
24110SOL     OW77649   5.435   9.342   2.933  0.1208 -0.0398 -0.0308
24110SOL    HW177650   5.368   9.392   2.980  1.1972  0.7581  0.6820
24110SOL    HW277651   5.387   9.266   2.899 -1.5490  1.4063 -1.1291
24111SOL     OW77652  10.505   2.242  11.367 -0.3386 -0.0253 -0.0219
24111SOL    HW177653  10.537   2.152  11.361 -0.3226  0.0581 -1.4292
24111SOL    HW277654  10.583   2.297  11.358 -0.0315  0.1835  2.8636
24112SOL     OW77655   1.914   2.578   1.592 -0.0476  0.3004  0.6078
24112SOL    HW177656   1.834   2.568   1.644 -0.7688 -1.3542 -0.7260
24112SOL    HW277657   1.981   2.530   1.640 -0.8006 -1.5474 -0.0960
24113SOL     OW77658   5.502  11.178   6.988 -0.3802 -0.1943 -0.1011
24113SOL    HW177659   5.437  11.138   6.930 -1.5274  0.0259  0.9915
24113SOL    HW277660   5.501  11.123   7.067 -0.5720  0.8560  0.6464
24114SOL     OW77661   0.716   3.767   3.907  0.9478 -0.3116  0.6761
24114SOL    HW177662   0.785   3.833   3.892 -0.8981  1.7530  0.7507
24114SOL    HW277663   0.727   3.705   3.835  1.9449  0.7998 -0.1832
24115SOL     OW77664   2.978   7.304   6.931 -0.5667 -0.5009  0.2972
24115SOL    HW177665   3.004   7.326   6.842  0.2522  0.1240  0.6773
24115SOL    HW277666   3.044   7.242   6.961 -0.6674 -0.4791  0.5709
24116SOL     OW77667  10.364   5.656   1.177 -0.1069  0.0118 -0.1314
24116SOL    HW177668  10.421   5.628   1.248 -0.8906 -0.4738  0.3245
24116SOL    HW277669  10.293   5.703   1.221 -1.5455 -1.8008 -0.3710
24117SOL     OW77670   2.970   9.360   6.783 -0.4512  0.0778  0.7459
24117SOL    HW177671   2.943   9.374   6.874 -0.9520 -0.0728  0.6240
24117SOL    HW277672   3.051   9.310   6.789 -0.5134  0.0192  1.1107
24118SOL     OW77673   3.147   4.265   0.826 -0.2427  0.0092 -0.4453
24118SOL    HW177674   3.204   4.238   0.754 -0.1297  0.5402 -0.5585
24118SOL    HW277675   3.177   4.354   0.848  0.4735 -0.5565  0.9979
24119SOL     OW77676  10.904   1.408   6.253  0.2382 -0.8101 -0.0865
24119SOL    HW177677  10.924   1.319   6.224  0.7264 -1.4999  2.1415
24119SOL    HW277678  10.989   1.444   6.278 -0.0902 -0.1114  0.0393
24120SOL     OW77679   2.551  11.387   9.331 -0.6043 -0.0212  0.1618
24120SOL    HW177680   2.565  11.342   9.248 -0.2733 -1.1988  0.8399
24120SOL    HW277681   2.627  11.444   9.341 -0.1918 -0.5594  0.0949
24121SOL     OW77682   1.657   4.483   8.193 -0.0475 -0.1642  0.3091
24121SOL    HW177683   1.595   4.411   8.199 -0.2234 -0.1267 -0.7349
24121SOL    HW277684   1.743   4.440   8.184 -0.2011 -0.2799 -0.8184
24122SOL     OW77685   8.571   9.991   6.653  0.1783  0.8392  0.2737
24122SOL    HW177686   8.601  10.077   6.624  0.2788  1.0372  0.9721
24122SOL    HW277687   8.480   9.986   6.622  0.4749  0.7941 -0.6209
24123SOL     OW77688   4.971   9.585  11.735  0.2884 -0.0147  0.2752
24123SOL    HW177689   4.959   9.673  11.769  1.5000  0.4470 -0.3977
24123SOL    HW277690   4.898   9.572  11.674  0.1698  0.5806  0.2843
24124SOL     OW77691   4.968   1.954   7.431  0.1271  0.1652  0.4658
24124SOL    HW177692   5.007   2.037   7.460 -0.6985  0.2336  1.4696
24124SOL    HW277693   4.886   1.949   7.480  0.3198 -1.4156  0.6656
24125SOL     OW77694  10.048   3.270   1.426  0.1389 -0.0691  0.4089
24125SOL    HW177695  10.054   3.363   1.446  0.9965 -0.1725  0.6911
24125SOL    HW277696   9.955   3.249   1.432 -0.2509  1.0703 -1.0646
24126SOL     OW77697   6.201   5.032  10.262 -0.1631  0.7202  0.1069
24126SOL    HW177698   6.283   5.066  10.225 -0.6448  0.8740 -0.8295
24126SOL    HW277699   6.139   5.104  10.252 -0.3985  0.6379  0.9037
24127SOL     OW77700   8.231   7.801   6.851 -0.3602  0.4989  0.0511
24127SOL    HW177701   8.264   7.889   6.872  0.3235  0.2243  0.1620
24127SOL    HW277702   8.306   7.743   6.867 -0.3650  0.0537 -1.4176
24128SOL     OW77703  10.197   4.805   4.486 -0.5208 -0.0045 -0.1640
24128SOL    HW177704  10.167   4.833   4.572 -0.4921 -0.3630 -0.0324
24128SOL    HW277705  10.122   4.761   4.448 -1.1264  1.7476 -1.0801
24129SOL     OW77706   7.315   4.498   0.494  0.4289  0.0858  0.3957
24129SOL    HW177707   7.312   4.523   0.401  1.1998 -1.1580  0.0124
24129SOL    HW277708   7.291   4.405   0.495  0.4146  0.0905  1.4471
24130SOL     OW77709   6.946   7.143  11.237 -0.0445 -0.1505  0.1687
24130SOL    HW177710   6.980   7.226  11.204 -0.3514 -0.3491 -0.6714
24130SOL    HW277711   6.951   7.151  11.332  2.9868 -0.4304  0.1245
24131SOL     OW77712   3.114   2.070   2.750 -0.5425 -0.2151  0.0459
24131SOL    HW177713   3.132   1.976   2.753  0.0994 -0.0831  0.3034
24131SOL    HW277714   3.034   2.080   2.802 -0.2657 -0.5372  0.5482
24132SOL     OW77715   0.360   8.375  11.632 -0.4685 -0.3622  0.6391
24132SOL    HW177716   0.448   8.337  11.633  0.5007  1.7197  2.0102
24132SOL    HW277717   0.369   8.454  11.579 -1.5326 -0.1657  0.7369
24133SOL     OW77718   0.991   1.032   6.346 -0.2767 -0.0989  0.0225
24133SOL    HW177719   1.056   1.034   6.276  1.1688 -1.2435  1.2485
24133SOL    HW277720   1.041   1.006   6.424 -1.6785  1.7505  1.6428
24134SOL     OW77721   9.141   3.504   3.900  0.4281 -0.0452  0.2133
24134SOL    HW177722   9.182   3.474   3.819  0.2198  0.0262  0.0825
24134SOL    HW277723   9.085   3.431   3.927 -1.8432  1.0166 -1.2946
24135SOL     OW77724   7.922   7.876   0.086 -0.2779  0.4053  0.2242
24135SOL    HW177725   7.894   7.802   0.140  0.1209 -0.0826 -0.2218
24135SOL    HW277726   8.012   7.855   0.062  0.5531  2.0280  1.7621
24136SOL     OW77727   4.837   6.607  10.131 -0.1307  0.7719  0.0884
24136SOL    HW177728   4.762   6.588  10.073  0.5236 -0.5669 -0.3597
24136SOL    HW277729   4.802   6.596  10.219 -0.8395  1.6725 -0.0584
24137SOL     OW77730   2.010  10.398   4.430 -0.1681  0.7508 -0.0273
24137SOL    HW177731   1.932  10.427   4.478  0.1032  2.5615 -0.6175
24137SOL    HW277732   2.082  10.415   4.491 -0.0870  0.2555  0.0262
24138SOL     OW77733  10.448   2.387   6.164 -0.4840  0.3686  0.2170
24138SOL    HW177734  10.398   2.431   6.232 -0.3850  1.0074 -0.1140
24138SOL    HW277735  10.489   2.458   6.115  0.0663 -0.1138 -0.0322
24139SOL     OW77736   6.399  11.353   4.522 -0.3562  0.7542 -0.3395
24139SOL    HW177737   6.389  11.277   4.580 -2.5733  1.1401 -0.1186
24139SOL    HW277738   6.334  11.339   4.454 -0.2290  2.0574 -0.7440
24140SOL     OW77739   8.290   8.638  11.664 -0.1344  0.8295  0.0874
24140SOL    HW177740   8.289   8.560  11.609  1.0274 -0.2768  1.5405
24140SOL    HW277741   8.212   8.631  11.719 -0.0603  0.7146  0.1778
24141SOL     OW77742   4.516   2.320   0.558  0.1153 -0.1103  0.4553
24141SOL    HW177743   4.479   2.314   0.647  1.0855 -0.9280  0.8175
24141SOL    HW277744   4.496   2.235   0.518 -0.0356  0.1383  0.0011
24142SOL     OW77745   1.971   9.265   0.456  0.0238 -0.0670  0.0715
24142SOL    HW177746   1.910   9.328   0.495 -2.0354 -1.7623 -0.2027
24142SOL    HW277747   1.997   9.208   0.529  1.5774  0.8107  0.2455
24143SOL     OW77748   6.939   5.934   9.828 -0.4794 -0.2525  0.4338
24143SOL    HW177749   6.863   5.899   9.780  1.3816  0.6488 -3.5672
24143SOL    HW277750   6.911   6.021   9.856 -1.0822 -0.0830 -0.6306
24144SOL     OW77751   0.453  10.378   1.231  0.2291 -0.2041 -0.6046
24144SOL    HW177752   0.492  10.405   1.314  0.8207  1.0443 -1.2640
24144SOL    HW277753   0.425  10.460   1.190 -1.1023 -0.8930 -1.1477
24145SOL     OW77754   5.629   8.515  11.491  0.3816 -0.0513  0.0818
24145SOL    HW177755   5.558   8.485  11.549 -0.4959  1.3134 -0.2248
24145SOL    HW277756   5.634   8.448  11.423 -1.9464  0.6838 -0.9336
24146SOL     OW77757   3.137   0.425   5.067  0.2298  0.8049  0.1825
24146SOL    HW177758   3.170   0.423   4.977 -0.0016 -0.8594  0.0963
24146SOL    HW277759   3.205   0.471   5.116  0.4879  1.4921 -0.7880
24147SOL     OW77760  10.590  10.475   3.467 -0.4235  0.7914 -0.2854
24147SOL    HW177761  10.671  10.519   3.440 -0.7359  1.1227 -0.6976
24147SOL    HW277762  10.584  10.399   3.409  0.2036  0.0939  0.5382
24148SOL     OW77763   6.455  11.281   9.809 -0.4190  0.3100 -0.4162
24148SOL    HW177764   6.411  11.204   9.844 -0.4994  1.4377  2.2132
24148SOL    HW277765   6.543  11.250   9.787 -0.4356 -0.5457  0.6236
24149SOL     OW77766  11.096   9.526   2.475  0.0441  0.2020 -0.1807
24149SOL    HW177767  11.153   9.450   2.462  0.7742  0.9173 -1.4483
24149SOL    HW277768  11.014   9.489   2.506  0.3377 -1.1301 -0.8826
24150SOL     OW77769   0.676   8.488   1.239  0.2266 -0.8970  0.3030
24150SOL    HW177770   0.711   8.426   1.304  1.0601 -0.3501  0.3833
24150SOL    HW277771   0.598   8.444   1.205 -0.1209 -1.2866  1.5366
24151SOL     OW77772   7.701   5.458   5.905 -0.2473  0.1698 -0.3638
24151SOL    HW177773   7.759   5.455   5.981  1.0607  2.2728 -1.2073
24151SOL    HW277774   7.665   5.369   5.899  1.7551 -0.8092  1.0487
24152SOL     OW77775  10.606   0.217   8.796  0.4282 -0.0127 -0.4717
24152SOL    HW177776  10.539   0.214   8.727  0.9692 -0.7328 -0.9705
24152SOL    HW277777  10.677   0.161   8.764 -0.3150 -2.4122  1.7350
24153SOL     OW77778  11.534   0.090   1.204  0.3345 -0.0955  0.3745
24153SOL    HW177779  11.445   0.115   1.182  0.3099  1.3082  1.8456
24153SOL    HW277780  11.570   0.167   1.248  2.3452 -0.5467 -0.3614
24154SOL     OW77781   1.188   4.153   9.970 -0.4384 -0.0293  0.1023
24154SOL    HW177782   1.131   4.187  10.039 -1.3906 -1.3574  0.0084
24154SOL    HW277783   1.199   4.227   9.911  2.0771  1.8090  2.6127
24155SOL     OW77784   3.181  11.526   5.728  0.7022 -0.4139  0.6525
24155SOL    HW177785   3.222  11.456   5.676 -0.7468  1.0660 -2.7536
24155SOL    HW277786   3.161  11.485   5.812  2.8796 -3.0907  0.0052
24156SOL     OW77787   2.703   0.979   7.751 -0.1696 -0.2838  0.2613
24156SOL    HW177788   2.635   1.045   7.759  0.0813  0.0408 -0.1790
24156SOL    HW277789   2.781   1.020   7.789 -0.7014 -1.4706  2.8582
24157SOL     OW77790  11.275   8.345   5.490  0.2771 -0.8691 -0.4285
24157SOL    HW177791  11.192   8.392   5.475 -0.0350 -0.6998  1.5456
24157SOL    HW277792  11.340   8.415   5.500  0.0309 -0.8618  1.3148
24158SOL     OW77793   2.323   4.980  10.996 -0.3964  0.3898 -0.0070
24158SOL    HW177794   2.309   5.022  11.081 -1.4805 -2.0682  1.1440
24158SOL    HW277795   2.395   4.918  11.011  0.5348  1.0737 -1.3800
24159SOL     OW77796   1.895   7.277   4.639  0.0007 -0.5756  0.6434
24159SOL    HW177797   1.835   7.280   4.565  0.2679 -1.2969  0.3821
24159SOL    HW277798   1.902   7.367   4.668 -2.4224 -0.6635  1.6871
24160SOL     OW77799   4.073   8.519   7.346 -0.2491 -0.7097 -0.1859
24160SOL    HW177800   4.075   8.532   7.441  1.4058 -0.0113 -0.2860
24160SOL    HW277801   3.997   8.464   7.331 -0.3226 -1.1465  1.5961
24161SOL     OW77802   9.586   4.707   9.118 -0.2100  0.3317  0.1219
24161SOL    HW177803   9.640   4.628   9.116  0.0114  0.3570  2.5160
24161SOL    HW277804   9.498   4.675   9.140 -0.3150  0.6785  0.2108
24162SOL     OW77805   3.131   2.742   0.841  0.6560 -0.2070 -0.5751
24162SOL    HW177806   3.140   2.720   0.748  1.1477 -1.0451 -0.3358
24162SOL    HW277807   3.192   2.684   0.886  2.1458  1.7868  0.0839
24163SOL     OW77808   5.841   5.878   0.986  0.4872  0.1866 -0.1151
24163SOL    HW177809   5.814   5.840   0.903 -0.1792  0.2983  0.0390
24163SOL    HW277810   5.760   5.917   1.022  0.9664  0.9918  0.1243
24164SOL     OW77811   1.078   9.706   8.062 -1.1331  0.6995  0.2312
24164SOL    HW177812   1.039   9.677   7.980 -0.1208  0.2385 -0.1103
24164SOL    HW277813   1.005   9.742   8.113 -1.4869  2.9020 -1.6752
24165SOL     OW77814   7.948   3.560  11.740 -0.1480 -0.0294  0.1293
24165SOL    HW177815   7.953   3.559  11.644 -0.0441  1.7727  0.0923
24165SOL    HW277816   8.000   3.636  11.766 -1.9931  0.8456  1.4786
24166SOL     OW77817   1.497   6.546   2.697  0.2563  0.0698  0.2387
24166SOL    HW177818   1.580   6.503   2.679 -0.3709 -0.6018 -1.1691
24166SOL    HW277819   1.479   6.599   2.620 -0.5201  0.3922  0.6222
24167SOL     OW77820  11.182   7.892   5.331 -0.2245  0.1516 -0.4801
24167SOL    HW177821  11.176   7.963   5.268  0.3276  0.4234 -0.2285
24167SOL    HW277822  11.112   7.831   5.305 -0.3249  0.5006 -1.0425
24168SOL     OW77823   5.315   8.731   5.713 -0.1472  0.3692 -0.1689
24168SOL    HW177824   5.275   8.815   5.693  0.7000  0.6293 -0.8217
24168SOL    HW277825   5.250   8.685   5.767 -1.0995  0.9711 -0.7845
24169SOL     OW77826   3.010  10.629   3.219 -0.5297 -0.0882  0.0186
24169SOL    HW177827   3.079  10.587   3.169 -0.6437 -0.2299 -0.0212
24169SOL    HW277828   2.986  10.706   3.168 -2.1535 -1.3748 -1.2884
24170SOL     OW77829   1.972   9.785   6.910 -0.0488 -0.4363 -0.6253
24170SOL    HW177830   1.968   9.728   6.833  1.8208 -1.0496 -0.3090
24170SOL    HW277831   2.023   9.861   6.881  0.1314 -0.3792 -0.1606
24171SOL     OW77832   0.568   0.382   2.262 -0.8582  0.1653  0.2582
24171SOL    HW177833   0.547   0.295   2.228  0.8253 -0.3725  0.4784
24171SOL    HW277834   0.634   0.416   2.202  0.0643  0.3891  1.3527
24172SOL     OW77835   7.325   3.869  10.164  0.5209 -0.5611  0.0382
24172SOL    HW177836   7.269   3.879  10.241 -2.5267  0.3986 -2.1474
24172SOL    HW277837   7.385   3.944  10.169  1.7437 -1.5831  2.3998
24173SOL     OW77838   2.256   8.427   5.438 -0.5093 -0.0644 -0.2007
24173SOL    HW177839   2.307   8.446   5.360 -2.1018 -0.4107 -1.3905
24173SOL    HW277840   2.203   8.505   5.452 -0.5186 -0.1585  0.2960
24174SOL     OW77841   0.805   7.949  11.158 -1.1385 -0.6155  0.2224
24174SOL    HW177842   0.802   7.865  11.204 -0.9321 -0.3755  0.6785
24174SOL    HW277843   0.894   7.954  11.123 -1.4647 -1.0531 -0.6963
24175SOL     OW77844   2.556   5.561   1.196 -0.2793 -0.5156 -0.2281
24175SOL    HW177845   2.591   5.606   1.274  1.0701 -1.6919 -0.1211
24175SOL    HW277846   2.570   5.468   1.214 -1.6880 -0.9186 -1.0823
24176SOL     OW77847   6.362   3.630   3.929  0.2800  0.4661  0.1101
24176SOL    HW177848   6.390   3.712   3.889  1.4357 -0.1287 -0.3381
24176SOL    HW277849   6.351   3.651   4.022  0.4914  1.1436 -0.0141
24177SOL     OW77850  10.293   6.481  11.546  0.0527 -0.2025 -0.0302
24177SOL    HW177851  10.252   6.482  11.460 -1.3314 -2.1250  0.5448
24177SOL    HW277852  10.244   6.546  11.597  0.7819  0.8324 -0.6178
24178SOL     OW77853   5.733   9.916   2.086 -0.6690 -0.4410  0.2395
24178SOL    HW177854   5.762   9.960   2.006 -0.4073 -0.1160  0.5071
24178SOL    HW277855   5.640   9.937   2.092 -0.6599 -0.3517  0.0938
24179SOL     OW77856   9.782   5.614   3.683  0.2862 -0.3786  0.1251
24179SOL    HW177857   9.809   5.537   3.735  0.8172 -0.6099 -0.4793
24179SOL    HW277858   9.807   5.689   3.738  0.8239 -0.6199  0.2210
24180SOL     OW77859   5.458   0.258  11.767 -0.0329  0.6357  0.6363
24180SOL    HW177860   5.535   0.276  11.821  1.4941  0.5689 -1.3948
24180SOL    HW277861   5.437   0.342  11.727 -1.9253  0.9740  2.1731
24181SOL     OW77862   8.918   8.524   3.984 -0.3922 -0.1923  0.8009
24181SOL    HW177863   8.974   8.563   4.052 -1.6194  1.3545  1.0051
24181SOL    HW277864   8.829   8.539   4.016 -0.9948  0.2804 -0.9763
24182SOL     OW77865   8.429   2.127   8.815 -0.5543 -0.1668 -0.6335
24182SOL    HW177866   8.346   2.134   8.861  0.1696 -0.4386  0.7790
24182SOL    HW277867   8.441   2.212   8.774  0.3472  1.3831  2.5218
24183SOL     OW77868   3.792   2.097  11.366  0.2723  0.0404  0.1994
24183SOL    HW177869   3.847   2.169  11.337  1.3594  0.0542  2.1268
24183SOL    HW277870   3.849   2.044  11.422 -0.9295 -1.4690  0.0717
24184SOL     OW77871   5.586   9.127   3.318  0.1044 -0.3614  0.2803
24184SOL    HW177872   5.622   9.147   3.232  0.1008 -0.6179  0.2201
24184SOL    HW277873   5.638   9.180   3.379 -0.4074  0.4285  0.0504
24185SOL     OW77874   0.806   8.361   2.511 -0.0028  0.7136  0.2106
24185SOL    HW177875   0.886   8.408   2.531  0.4908  0.1565 -0.4033
24185SOL    HW277876   0.825   8.315   2.429 -0.4169 -0.6272  0.8293
24186SOL     OW77877   8.495   4.808   8.235  0.0089 -0.5105  0.1309
24186SOL    HW177878   8.448   4.823   8.317  2.8524  0.7542  1.6742
24186SOL    HW277879   8.488   4.714   8.221 -3.5448 -0.3485 -0.2397
24187SOL     OW77880   7.308   9.461   6.915 -0.6027 -0.1268 -1.1249
24187SOL    HW177881   7.341   9.380   6.953  0.7625  1.3770  1.1115
24187SOL    HW277882   7.240   9.490   6.974  1.5332  2.2403  0.3567
24188SOL     OW77883  11.425   0.331   6.826  0.0477  0.0348  0.8223
24188SOL    HW177884  11.381   0.416   6.820  0.9151  0.5121  1.0983
24188SOL    HW277885  11.514   0.347   6.794 -0.3910 -1.2587 -1.1869
24189SOL     OW77886   9.546   8.940   9.115  0.6476 -0.1099  0.2327
24189SOL    HW177887   9.596   8.924   9.035  0.0389  1.5836 -0.5626
24189SOL    HW277888   9.469   8.884   9.107  1.0743 -0.6793  0.1130
24190SOL     OW77889   2.783   2.595   0.044 -0.1753 -0.2260  0.5326
24190SOL    HW177890   2.753   2.577   0.133  0.6125 -0.2183  0.8024
24190SOL    HW277891   2.706   2.630  -0.001 -0.4654  0.1605  1.3227
24191SOL     OW77892   0.294   2.228   2.333  0.8369 -0.1012 -0.3604
24191SOL    HW177893   0.243   2.184   2.401  1.0592 -1.1695 -0.8767
24191SOL    HW277894   0.378   2.182   2.331  0.6737 -0.3907 -1.6596
24192SOL     OW77895   0.016  10.525   5.556 -0.2137  0.0509  0.1245
24192SOL    HW177896  -0.076  10.521   5.580  0.2460 -1.5036  1.8549
24192SOL    HW277897   0.042  10.615   5.573 -0.9388  0.0002  1.6749
24193SOL     OW77898   4.690   2.402   2.940  0.0030  0.1142 -0.1076
24193SOL    HW177899   4.752   2.385   2.869  0.8909 -1.3291  0.9576
24193SOL    HW277900   4.730   2.474   2.990  1.5950 -1.6927  1.3549
24194SOL     OW77901   3.733   9.002   4.592  0.2442  0.0646  0.8566
24194SOL    HW177902   3.742   8.959   4.507  0.3056  0.2519  0.7680
24194SOL    HW277903   3.756   8.934   4.656  1.3955  0.2620  0.6808
24195SOL     OW77904   7.006   3.823   5.131 -0.0362  0.2064 -0.4077
24195SOL    HW177905   6.949   3.747   5.121 -0.7540  0.7806 -0.8585
24195SOL    HW277906   7.094   3.787   5.134 -0.4739 -0.8172  1.6102
24196SOL     OW77907   8.987   6.985   1.685 -0.2323 -0.3714 -0.4355
24196SOL    HW177908   9.057   7.026   1.737  0.1899  0.9666 -1.9606
24196SOL    HW277909   8.908   7.031   1.713  0.2020  1.4627 -1.9378
24197SOL     OW77910   9.858   6.742   8.948  0.0750  0.8325  0.2833
24197SOL    HW177911   9.803   6.812   8.913  0.5563  1.7883  1.3901
24197SOL    HW277912   9.813   6.714   9.027 -1.9319 -2.4890 -1.7833
24198SOL     OW77913   7.698  10.310   6.829 -0.3542 -0.0544 -0.0356
24198SOL    HW177914   7.663  10.323   6.741  0.0487 -0.9143 -0.3304
24198SOL    HW277915   7.664  10.225   6.857  1.0750 -0.6959 -0.1487
24199SOL     OW77916  11.302   0.950   5.004  0.3156  0.4216 -0.0732
24199SOL    HW177917  11.377   0.903   4.968 -0.0839 -0.2870  0.0023
24199SOL    HW277918  11.272   0.895   5.076 -0.5858  0.4340 -0.4285
24200SOL     OW77919   3.111   0.157   8.505 -0.4583  0.1536 -0.5102
24200SOL    HW177920   3.102   0.087   8.440  0.2046 -0.6476  0.2404
24200SOL    HW277921   3.021   0.180   8.528 -0.7010 -1.3305  0.1377
24201SOL     OW77922   4.722   6.013   5.817  0.2882  0.3275  0.4760
24201SOL    HW177923   4.668   5.947   5.859  0.6404 -1.4595 -1.7054
24201SOL    HW277924   4.662   6.085   5.799 -1.0118 -0.9102 -0.3526
24202SOL     OW77925   4.600   7.087   0.987  0.9540 -0.0969  0.2879
24202SOL    HW177926   4.567   7.149   1.053  0.7112 -0.4374  0.4896
24202SOL    HW277927   4.692   7.109   0.977  0.8202  0.4497  0.1906
24203SOL     OW77928  10.289   6.196   4.655  0.2567 -0.3976 -0.3636
24203SOL    HW177929  10.361   6.154   4.608  0.0982 -1.2313  0.1051
24203SOL    HW277930  10.264   6.132   4.722 -1.0220 -0.1898 -0.6144
24204SOL     OW77931   9.850   4.185   0.554 -0.3358  0.1711  0.1244
24204SOL    HW177932   9.886   4.272   0.536 -1.9402  0.9531  0.5019
24204SOL    HW277933   9.906   4.125   0.503  0.5696  1.4479 -0.4425
24205SOL     OW77934   9.945   0.630  10.088 -0.2490  0.2171  0.7438
24205SOL    HW177935  10.001   0.585  10.151  0.0987 -0.0120  0.2790
24205SOL    HW277936  10.002   0.697  10.049 -0.1621 -0.2947 -0.0355
24206SOL     OW77937   4.297   1.198   9.010 -0.2201 -0.2535  0.3469
24206SOL    HW177938   4.319   1.281   8.968 -0.3157 -0.2002  0.3995
24206SOL    HW277939   4.239   1.154   8.948  0.1115 -0.4383  0.1666
24207SOL     OW77940  10.113   9.445   1.470  0.0562  0.5956 -0.2728
24207SOL    HW177941  10.073   9.479   1.550  0.9291  0.6561  0.1477
24207SOL    HW277942  10.137   9.355   1.492 -0.0234  0.4978 -0.5863
24208SOL     OW77943   6.209  11.514   6.616  0.3014 -0.1753 -0.3545
24208SOL    HW177944   6.278  11.502   6.681 -0.3418  0.5159  0.4754
24208SOL    HW277945   6.143  11.567   6.660 -0.2867  0.0605 -1.4776
24209SOL     OW77946   3.154  10.348  10.933  0.3894 -0.4177 -0.4137
24209SOL    HW177947   3.187  10.321  11.019 -3.1558 -3.5283  0.2478
24209SOL    HW277948   3.209  10.302  10.870  0.9242 -0.8281  0.3313
24210SOL     OW77949   2.488   3.681   1.041  0.2326  0.2363  0.0599
24210SOL    HW177950   2.497   3.776   1.034 -1.5054  0.4682  0.3316
24210SOL    HW277951   2.430   3.657   0.969  1.3624 -0.7626 -0.5375
24211SOL     OW77952   3.430   5.564   3.538  0.4938 -0.0884 -0.4600
24211SOL    HW177953   3.422   5.640   3.595 -0.4933 -0.6734  0.2099
24211SOL    HW277954   3.486   5.594   3.467 -1.6812  1.9889 -1.4386
24212SOL     OW77955  10.502   4.316   7.149 -0.2827  0.2187  0.4740
24212SOL    HW177956  10.520   4.243   7.208 -1.9442 -0.0674  0.6709
24212SOL    HW277957  10.436   4.369   7.194 -1.5693  0.0205 -1.0656
24213SOL     OW77958  11.023   2.536   0.808 -0.6955 -0.7963 -0.7492
24213SOL    HW177959  10.937   2.545   0.849 -0.0204  0.8742  0.4456
24213SOL    HW277960  11.077   2.603   0.851  0.5456 -0.1211 -3.1611
24214SOL     OW77961   2.826   7.829   1.256  0.2959  0.1267  0.0702
24214SOL    HW177962   2.892   7.799   1.195  0.1837  0.0092  0.0081
24214SOL    HW277963   2.876   7.858   1.333  0.3900 -0.4006  0.2100
24215SOL     OW77964   4.343   6.274   0.075 -0.3423 -0.6308  0.2381
24215SOL    HW177965   4.293   6.207   0.027 -0.6505  0.3666 -0.8796
24215SOL    HW277966   4.294   6.355   0.061 -0.3012 -0.2604  2.0790
24216SOL     OW77967   3.914  10.512   2.797  0.0024  0.0658 -0.0231
24216SOL    HW177968   3.894  10.497   2.889  1.4930 -0.6845  0.2131
24216SOL    HW277969   3.887  10.432   2.752 -1.3202  0.6790 -0.3664
24217SOL     OW77970   5.260  10.227   9.345  0.5672  0.2914  0.4194
24217SOL    HW177971   5.212  10.246   9.265  0.7699  0.5315  0.3525
24217SOL    HW277972   5.300  10.141   9.328 -0.8919 -0.5212  0.9822
24218SOL     OW77973   2.343   8.648   3.541  0.3152 -0.1870 -0.5524
24218SOL    HW177974   2.389   8.680   3.618 -1.8376  1.2604  0.2312
24218SOL    HW277975   2.374   8.558   3.530  2.3236  0.3024  0.6361
24219SOL     OW77976   9.489   2.057   1.175  0.2201 -0.0627  0.4640
24219SOL    HW177977   9.461   2.114   1.103  1.4980  0.8870  0.6793
24219SOL    HW277978   9.500   1.971   1.135  0.2388  0.2990 -0.3284
24220SOL     OW77979  11.231   6.336   5.348  0.4893  0.7275 -0.5178
24220SOL    HW177980  11.244   6.382   5.265  0.4364  0.1072 -0.8760
24220SOL    HW277981  11.319   6.322   5.382  0.6254 -0.6239 -1.3671
24221SOL     OW77982   1.557   2.040   7.442 -0.3096 -0.2011  0.0166
24221SOL    HW177983   1.503   2.085   7.508 -0.3528  0.3710 -0.4005
24221SOL    HW277984   1.504   1.965   7.416 -0.7046  0.0893 -0.0370
24222SOL     OW77985   0.581   1.595   5.267 -0.3324 -0.3044 -0.3482
24222SOL    HW177986   0.664   1.549   5.257 -1.8729 -3.2533 -0.5383
24222SOL    HW277987   0.536   1.549   5.338 -0.2982  3.7996  2.7273
24223SOL     OW77988   5.690  11.073   3.227  0.4002 -0.1804  0.1659
24223SOL    HW177989   5.621  11.015   3.259  1.1065 -1.1244 -0.0020
24223SOL    HW277990   5.760  11.015   3.197  1.9069  0.7461  1.6949
24224SOL     OW77991  11.040   2.196   8.155  0.0077 -0.2820 -0.2474
24224SOL    HW177992  10.965   2.238   8.113 -0.9513  1.7280  3.1397
24224SOL    HW277993  11.006   2.161   8.237  2.4704 -0.7290  0.6785
24225SOL     OW77994  11.262   7.564   2.240 -0.3128 -0.4720 -0.0262
24225SOL    HW177995  11.338   7.505   2.247 -0.2062 -0.2679  0.5889
24225SOL    HW277996  11.284   7.622   2.168 -0.0903 -0.7230 -0.1634
24226SOL     OW77997   9.690   1.703   1.832  0.2279 -0.1442  0.6708
24226SOL    HW177998   9.743   1.733   1.758  0.7331  1.1157  1.5136
24226SOL    HW277999   9.737   1.627   1.866 -1.7186 -2.8951 -2.2656
24227SOL     OW78000  10.806   7.183   5.691  0.4359  0.2922 -0.4397
24227SOL    HW178001  10.880   7.174   5.632  0.4978  0.5176 -0.3975
24227SOL    HW278002  10.796   7.278   5.703 -0.2273  0.2943 -0.9138
24228SOL     OW78003   7.752   8.201   6.668 -0.3669  0.1946 -0.1083
24228SOL    HW178004   7.794   8.262   6.729  0.4429  0.1275 -0.5881
24228SOL    HW278005   7.813   8.127   6.663 -0.7822 -0.1278 -0.4337
24229SOL     OW78006  11.603  11.756   5.087  0.1805  0.6731 -0.0506
24229SOL    HW178007  11.587  11.709   5.169  0.4991  0.8276  0.1020
24229SOL    HW278008  11.607  11.688   5.020  0.9183  0.4583  0.2076
24230SOL     OW78009   5.398   5.824   7.539 -0.5816 -0.0971  0.3542
24230SOL    HW178010   5.460   5.789   7.602  1.2058  2.2386  0.0422
24230SOL    HW278011   5.396   5.760   7.468  3.0212  0.5177 -0.5050
24231SOL     OW78012   5.665   3.047   6.523  0.0169  0.0302 -0.1770
24231SOL    HW178013   5.721   3.038   6.445 -2.1043  1.4367 -1.9819
24231SOL    HW278014   5.599   3.111   6.498 -1.8588 -0.8139  2.1958
24232SOL     OW78015   6.534   3.844   4.076  0.0507  0.3168  0.3322
24232SOL    HW178016   6.440   3.863   4.077 -0.4457 -1.8156 -0.0474
24232SOL    HW278017   6.566   3.875   4.161 -1.2399  0.0455  0.9467
24233SOL     OW78018   3.082   0.007  10.693 -0.3493  0.8456  0.1708
24233SOL    HW178019   3.079  -0.021  10.601  1.0856  3.3948 -0.7467
24233SOL    HW278020   3.022   0.081  10.698  1.0021  1.9524  0.7668
24234SOL     OW78021   4.326   7.726   2.101 -0.1143 -0.4506  0.0100
24234SOL    HW178022   4.294   7.794   2.041  2.8051 -0.1703 -1.4160
24234SOL    HW278023   4.420   7.745   2.110  0.6835 -3.9069  0.1115
24235SOL     OW78024   8.964   1.116   0.706 -0.2497 -0.1321  0.0617
24235SOL    HW178025   9.041   1.095   0.759  1.4606  1.0603 -1.7457
24235SOL    HW278026   8.993   1.190   0.653 -3.3977  1.7434  0.7706
24236SOL     OW78027   5.340   4.263   3.535 -0.0236 -0.0416  0.3781
24236SOL    HW178028   5.371   4.251   3.446 -1.0931  0.1423 -0.0314
24236SOL    HW278029   5.261   4.209   3.541 -0.9510  1.3157  0.6679
24237SOL     OW78030  11.378   7.543   8.657 -0.2698  0.3802  0.3689
24237SOL    HW178031  11.282   7.541   8.657 -0.3014  1.2785  0.8488
24237SOL    HW278032  11.404   7.458   8.692 -0.9141  0.4852  1.1406
24238SOL     OW78033   5.127   5.607  10.746 -0.4422  0.1195 -0.3741
24238SOL    HW178034   5.032   5.593  10.743 -0.5218  0.7329 -0.8858
24238SOL    HW278035   5.152   5.580  10.835 -1.1886  0.5102 -0.0367
24239SOL     OW78036   6.600   3.650   3.626  0.1007  0.4616 -0.5532
24239SOL    HW178037   6.520   3.691   3.661  0.2603  1.0213 -0.8281
24239SOL    HW278038   6.670   3.709   3.653  0.5150 -0.4244  0.3343
24240SOL     OW78039   0.218   2.418   1.911  0.2493  0.4700 -0.2652
24240SOL    HW178040   0.309   2.391   1.902  0.5058  0.2204  2.4520
24240SOL    HW278041   0.172   2.369   1.843  1.5279 -2.6896  0.9655
24241SOL     OW78042   1.893   7.113   3.088  0.3493  0.6267  0.0264
24241SOL    HW178043   1.863   7.107   2.998 -1.9202  1.6343  0.6356
24241SOL    HW278044   1.914   7.206   3.100 -1.8907  1.0612  1.1828
24242SOL     OW78045  10.022   3.945   5.882 -0.7665  0.1481  0.2193
24242SOL    HW178046   9.939   3.942   5.835 -0.2755 -0.0460 -0.6624
24242SOL    HW278047  10.020   4.027   5.930 -1.1583  0.5105 -0.4018
24243SOL     OW78048   5.673  11.176   1.254 -0.6401 -0.3784  0.1227
24243SOL    HW178049   5.724  11.100   1.229 -0.8613 -0.2997 -0.6060
24243SOL    HW278050   5.695  11.191   1.346 -0.4653 -1.2119  0.2263
24244SOL     OW78051   1.303   5.933   3.862  0.0774  0.2105  0.0064
24244SOL    HW178052   1.363   5.978   3.921 -1.0607  0.4559  0.9992
24244SOL    HW278053   1.256   6.003   3.817 -0.2142  0.0152  0.0060
24245SOL     OW78054   2.630  11.076   4.722 -0.2739  0.4456 -0.1852
24245SOL    HW178055   2.723  11.092   4.709 -0.0907 -0.5211 -0.0922
24245SOL    HW278056   2.604  11.023   4.646 -0.5119 -0.1755  0.3216
24246SOL     OW78057   3.778   4.926   2.699  0.2823 -0.3858  0.0145
24246SOL    HW178058   3.697   4.977   2.702  0.5502  0.1439  3.9697
24246SOL    HW278059   3.837   4.978   2.644 -0.6176  1.7270  0.9414
24247SOL     OW78060   2.442   5.935   4.351 -0.0591  0.1250  0.2452
24247SOL    HW178061   2.409   6.000   4.289 -2.6821 -0.6424  0.7197
24247SOL    HW278062   2.536   5.954   4.358  0.0320  1.2406 -2.6866
24248SOL     OW78063   1.457   2.478   6.241 -0.1709 -0.5982 -0.2747
24248SOL    HW178064   1.467   2.419   6.166  2.7786 -2.5185  1.4472
24248SOL    HW278065   1.535   2.534   6.237 -0.2910 -0.3256  1.0144
24249SOL     OW78066   9.848   8.054   5.877 -0.1573  0.0659 -0.6397
24249SOL    HW178067   9.848   8.022   5.787  0.4727  0.8038 -0.9096
24249SOL    HW278068   9.925   8.013   5.918  0.7715  1.3579 -1.0452
24250SOL     OW78069   1.767   9.572   6.240 -0.3806  0.2403 -0.3909
24250SOL    HW178070   1.756   9.667   6.231  2.4622  0.5556 -1.8416
24250SOL    HW278071   1.862   9.560   6.242 -0.6633 -2.6300 -0.9103
24251SOL     OW78072   7.913  11.336   0.746 -0.1676 -1.0150 -0.2995
24251SOL    HW178073   7.929  11.429   0.730  0.2660 -0.3328  3.3620
24251SOL    HW278074   7.818  11.325   0.735 -0.4013  0.1551  0.4611
24252SOL     OW78075  11.372  10.160   0.733  0.8348  0.0083 -0.1838
24252SOL    HW178076  11.462  10.151   0.766  0.6708 -0.3745  0.1672
24252SOL    HW278077  11.339  10.071   0.731 -0.0198  0.2643  1.0771
24253SOL     OW78078   1.363   6.118   2.524  0.5646  0.8314 -0.1590
24253SOL    HW178079   1.352   6.071   2.441 -0.2420  1.0073 -0.1628
24253SOL    HW278080   1.409   6.199   2.499  1.1373  0.4721 -0.2892
24254SOL     OW78081   3.772   9.070  10.615 -0.0142  0.4845 -0.2005
24254SOL    HW178082   3.763   8.984  10.657  1.1320  1.2594  1.7951
24254SOL    HW278083   3.692   9.117  10.638 -0.8582 -0.1608 -1.6930
24255SOL     OW78084   6.507   2.602   2.795 -0.3566 -0.0138  0.4526
24255SOL    HW178085   6.594   2.579   2.830  0.3480  3.4161  1.2838
24255SOL    HW278086   6.485   2.528   2.738  2.5527 -1.5823  1.1197
24256SOL     OW78087   5.255   2.611   5.310 -0.8753 -0.0454 -0.2581
24256SOL    HW178088   5.326   2.567   5.357 -0.7086  0.2973 -0.1849
24256SOL    HW278089   5.175   2.568   5.343 -0.9610  1.7150  2.1340
24257SOL     OW78090   0.378   4.808   2.260 -0.4917 -0.4165 -0.0643
24257SOL    HW178091   0.367   4.774   2.349  1.3626  0.6083  0.6071
24257SOL    HW278092   0.460   4.768   2.230  0.7197  1.8686  0.0172
24258SOL     OW78093   9.833   8.263   2.331 -0.4655  0.2009 -0.4899
24258SOL    HW178094   9.790   8.346   2.352  0.6482  0.5096  0.6661
24258SOL    HW278095   9.828   8.212   2.412  1.7041  0.4210 -0.1709
24259SOL     OW78096   8.055  10.537   8.572 -0.0478  0.1669  0.8147
24259SOL    HW178097   8.058  10.443   8.553  1.1444  0.0628  1.4520
24259SOL    HW278098   8.087  10.579   8.493  1.0567 -0.0629  1.1245
24260SOL     OW78099   3.265   6.128   6.580 -0.2841  0.2493  0.4872
24260SOL    HW178100   3.191   6.186   6.561  0.5178  1.1736  0.0490
24260SOL    HW278101   3.301   6.161   6.662  0.8579  1.1356 -0.3266
24261SOL     OW78102  10.854   1.087   9.304  0.3249 -0.0505  0.3824
24261SOL    HW178103  10.875   1.073   9.397  2.4183  2.2844  0.3606
24261SOL    HW278104  10.885   1.008   9.260 -1.9715 -1.8446  1.7187
24262SOL     OW78105   6.933   3.336   1.966  0.2548  0.1693  0.4966
24262SOL    HW178106   6.918   3.425   1.932  1.3854 -0.1404 -0.8986
24262SOL    HW278107   6.876   3.330   2.042 -0.3631  1.8592  0.2142
24263SOL     OW78108   4.967   3.983  11.701  0.2889 -0.3064 -0.6074
24263SOL    HW178109   5.055   3.968  11.668  0.5729 -1.6121  0.6227
24263SOL    HW278110   4.968   4.072  11.735  1.4999 -0.6569  0.3625
24264SOL     OW78111   0.166  11.659   7.949 -0.0959 -0.4443 -0.3349
24264SOL    HW178112   0.141  11.713   8.024 -0.3129 -1.1955  0.1457
24264SOL    HW278113   0.140  11.571   7.974 -1.5044 -0.5214 -1.8795
24265SOL     OW78114   8.487   1.784   4.226  0.1324 -0.2658  0.0990
24265SOL    HW178115   8.469   1.735   4.307  3.0738 -0.8600  0.5227
24265SOL    HW278116   8.482   1.718   4.157  0.4465 -0.3858  0.1884
24266SOL     OW78117   6.193   5.086   5.790 -0.5589  0.0789 -0.4071
24266SOL    HW178118   6.282   5.078   5.822 -0.2744 -0.0567 -1.2120
24266SOL    HW278119   6.140   5.101   5.868  0.0406 -0.7654  0.1711
24267SOL     OW78120   0.519   9.843   0.799 -0.5072  0.5701  0.3547
24267SOL    HW178121   0.462   9.777   0.840 -0.2977 -0.0600 -0.3474
24267SOL    HW278122   0.543   9.901   0.871 -1.1741  0.2224  0.8703
24268SOL     OW78123   1.805   5.041   2.717 -0.0401  0.1398 -0.3386
24268SOL    HW178124   1.852   5.046   2.634  0.3810  0.9336 -0.0598
24268SOL    HW278125   1.778   4.949   2.723  2.2463 -0.5964 -0.0975
24269SOL     OW78126   2.710   5.752   7.352 -0.4561  0.6047 -0.2106
24269SOL    HW178127   2.746   5.669   7.320 -1.8946 -0.9834  1.9867
24269SOL    HW278128   2.663   5.788   7.277 -0.7212 -1.1251 -0.9236
24270SOL     OW78129   6.530   4.319   0.625  0.3191 -0.3168 -0.3825
24270SOL    HW178130   6.498   4.396   0.672 -1.0201  0.1090 -1.9203
24270SOL    HW278131   6.560   4.260   0.695 -1.9833  0.1003  1.0873
24271SOL     OW78132   1.052   1.789   2.499 -0.5191  0.0696 -0.7643
24271SOL    HW178133   1.095   1.711   2.465  0.3622  0.4397 -0.5392
24271SOL    HW278134   1.124   1.847   2.525 -1.1451  1.0137 -1.0547
24272SOL     OW78135   6.835   2.799   6.088  0.1607  0.0103  0.0467
24272SOL    HW178136   6.782   2.751   6.151  0.1005 -1.1886 -0.8763
24272SOL    HW278137   6.849   2.737   6.016 -0.1781  1.4747 -1.3448
24273SOL     OW78138   7.018   5.985   5.755  0.5477  0.4071  0.6652
24273SOL    HW178139   6.935   5.940   5.764  0.2962  0.4222 -1.2429
24273SOL    HW278140   7.070   5.929   5.698  1.3215  1.0969  0.6737
24274SOL     OW78141  11.186   8.771   7.270 -0.4147  0.5610 -0.1690
24274SOL    HW178142  11.096   8.740   7.277 -0.5923  1.4032  1.7194
24274SOL    HW278143  11.234   8.695   7.235 -1.7748  0.0177 -0.9519
24275SOL     OW78144   2.678   3.234  11.554 -0.3333  0.1158 -0.1039
24275SOL    HW178145   2.647   3.151  11.590  1.1830 -0.2143  0.5095
24275SOL    HW278146   2.662   3.298  11.624 -2.2073  0.5400 -0.8554
24276SOL     OW78147   3.952   8.508   0.198 -0.4133  0.2740  0.1215
24276SOL    HW178148   4.034   8.463   0.220 -2.1457 -3.7892 -0.7957
24276SOL    HW278149   3.978   8.576   0.135  2.4559  0.7970  1.7114
24277SOL     OW78150  11.438   4.467   9.896 -0.8170 -0.9421  0.3178
24277SOL    HW178151  11.397   4.439   9.978  0.1827  1.3207  1.6982
24277SOL    HW278152  11.477   4.552   9.917 -0.8722 -0.0893 -2.6424
24278SOL     OW78153   5.300  11.106   0.203  0.4186  0.0033  0.6734
24278SOL    HW178154   5.363  11.033   0.201  0.5007  0.0686  0.8348
24278SOL    HW278155   5.355  11.184   0.195  0.3667  0.0646  0.9003
24279SOL     OW78156   9.190   8.706   3.760  0.3978  0.0181  0.6018
24279SOL    HW178157   9.246   8.640   3.718  2.0499  2.8884 -2.0651
24279SOL    HW278158   9.234   8.725   3.843  1.7349  0.0972 -0.1026
24280SOL     OW78159  10.316   5.974   8.732 -0.0207  0.0855 -0.4191
24280SOL    HW178160  10.396   5.969   8.681 -0.1379  1.1305 -0.7391
24280SOL    HW278161  10.266   5.896   8.708  0.2990  0.1363 -1.2545
24281SOL     OW78162   6.783   1.511   1.495  0.2702  0.0947 -0.1695
24281SOL    HW178163   6.693   1.532   1.519 -0.2888 -1.0521 -1.1351
24281SOL    HW278164   6.812   1.448   1.561 -0.1498 -0.6097 -0.6365
24282SOL     OW78165   8.767   0.476   4.764  0.3017  0.0129 -0.3394
24282SOL    HW178166   8.680   0.460   4.725 -0.9663  3.2196  0.8575
24282SOL    HW278167   8.758   0.446   4.854 -0.7899  3.1917  0.7481
24283SOL     OW78168   1.626   7.947   0.893 -0.4041  0.3679 -0.3963
24283SOL    HW178169   1.673   8.010   0.948 -1.2682  0.8201 -0.1424
24283SOL    HW278170   1.660   7.962   0.804 -2.1137  2.8102 -0.7644
24284SOL     OW78171   0.442   5.966   6.256  0.4315 -0.1646 -0.0949
24284SOL    HW178172   0.354   5.954   6.219 -0.7895  0.1227  2.4391
24284SOL    HW278173   0.433   6.045   6.310  2.7011  0.7045 -0.8816
24285SOL     OW78174   3.782   6.323   7.640 -0.4587  0.7308 -0.1035
24285SOL    HW178175   3.769   6.361   7.726 -0.2139  0.0186  0.2507
24285SOL    HW278176   3.709   6.263   7.628 -0.1281  0.3296 -0.1138
24286SOL     OW78177   8.344   1.956   0.773  0.1305 -0.7120 -0.1574
24286SOL    HW178178   8.407   1.893   0.808 -0.1691 -0.9074  0.0283
24286SOL    HW278179   8.259   1.915   0.785 -0.1906  0.3016  1.2153
24287SOL     OW78180   1.116   6.060   6.301 -0.1655  0.0790  0.4347
24287SOL    HW178181   1.079   6.090   6.384 -1.0929 -0.9641  0.4113
24287SOL    HW278182   1.148   6.141   6.259  0.1970  0.6342  1.7178
24288SOL     OW78183  10.498   2.798  10.032  0.0922 -0.2664 -0.3918
24288SOL    HW178184  10.536   2.842  10.108  1.1124 -0.7362 -0.6167
24288SOL    HW278185  10.510   2.704  10.049 -0.1530 -0.3945 -0.8854
24289SOL     OW78186   8.838   8.772   1.118  0.0855 -1.0447 -0.1277
24289SOL    HW178187   8.784   8.732   1.187  0.8166  1.2419  1.9340
24289SOL    HW278188   8.915   8.805   1.165  0.4449  0.9549 -1.9780
24290SOL     OW78189   6.266   4.926  11.707 -0.6329  0.0593  0.2008
24290SOL    HW178190   6.242   4.835  11.689  0.7114 -0.5614  1.3901
24290SOL    HW278191   6.332   4.947  11.641 -1.0333  0.2463 -0.1541
24291SOL     OW78192  10.230  11.752   8.183  0.2545 -0.5386 -0.3001
24291SOL    HW178193  10.306  11.700   8.159  0.1424 -0.3756 -1.0431
24291SOL    HW278194  10.234  11.759   8.278  0.5428 -1.4805 -0.2353
24292SOL     OW78195  10.495  10.073   9.134 -0.4161 -0.1913  0.2623
24292SOL    HW178196  10.497  10.086   9.229 -2.4592 -1.6620  0.5715
24292SOL    HW278197  10.418  10.123   9.105  0.3098  0.4189 -0.6805
24293SOL     OW78198   2.174   6.828   5.107  0.5739 -0.1256  0.3531
24293SOL    HW178199   2.088   6.831   5.065  1.1286 -0.6171 -0.8467
24293SOL    HW278200   2.217   6.751   5.070  1.7130  0.3754  0.5858
24294SOL     OW78201   4.248  11.732  10.164 -0.1014 -0.4414  0.0512
24294SOL    HW178202   4.269  11.646  10.203  0.0434 -0.5191 -0.1962
24294SOL    HW278203   4.260  11.719  10.070 -1.0321 -0.4216 -0.0784
24295SOL     OW78204   4.083   4.165   5.727  0.3472 -0.5215  0.4650
24295SOL    HW178205   4.011   4.225   5.710  0.5527  0.1685  1.9147
24295SOL    HW278206   4.063   4.088   5.674 -0.9063  0.0641  0.0567
24296SOL     OW78207   4.297   8.869   6.087  0.5083  0.1656 -0.2845
24296SOL    HW178208   4.290   8.800   6.021 -1.1547  0.5721 -0.5770
24296SOL    HW278209   4.336   8.943   6.040 -1.0334  0.5842 -0.9465
24297SOL     OW78210   5.616   2.056   7.689  0.1918 -0.0546 -0.3988
24297SOL    HW178211   5.564   2.076   7.767  1.3154  1.1809  0.0638
24297SOL    HW278212   5.577   2.109   7.620  1.0311  1.1729  0.0374
24298SOL     OW78213   3.196   6.071   7.943 -1.1375 -0.4330  0.0619
24298SOL    HW178214   3.168   6.149   7.895 -1.3897 -0.2737  0.4693
24298SOL    HW278215   3.276   6.043   7.898 -1.9463 -0.9192 -1.1587
24299SOL     OW78216   7.056   4.412   7.795 -0.1232 -0.6044 -0.7436
24299SOL    HW178217   7.110   4.431   7.718 -0.8689  2.0388 -0.7082
24299SOL    HW278218   7.002   4.490   7.807 -0.9114 -1.4207  1.7544
24300SOL     OW78219   4.663   9.159   2.567 -0.1406 -0.1548 -0.6359
24300SOL    HW178220   4.688   9.069   2.587 -0.7358 -0.5758 -1.7277
24300SOL    HW278221   4.630   9.194   2.650  1.6505 -0.3843  0.2114
24301SOL     OW78222   4.258   1.125  11.239 -0.5877  0.5343  0.2735
24301SOL    HW178223   4.353   1.132  11.241 -0.4748 -0.0890 -1.2524
24301SOL    HW278224   4.228   1.213  11.216 -0.2814  0.4421 -0.5241
24302SOL     OW78225   6.233  10.397   9.443  0.2821  0.4974  0.6550
24302SOL    HW178226   6.168  10.404   9.512 -1.6378 -1.5413 -0.8065
24302SOL    HW278227   6.292  10.328   9.472 -0.1035  0.1332  0.5788
24303SOL     OW78228   9.933  11.113   4.420  0.2623 -0.3210  0.8332
24303SOL    HW178229   9.894  11.179   4.362 -0.5886 -0.3704  1.3295
24303SOL    HW278230   9.988  11.060   4.362 -0.3768 -0.2151  0.1050
24304SOL     OW78231   8.300   1.172   9.842  0.4324  0.0623  0.2489
24304SOL    HW178232   8.339   1.158   9.756  0.9478 -0.1091  0.5050
24304SOL    HW278233   8.374   1.192   9.899  0.6135 -3.3212  1.4377
24305SOL     OW78234   1.629   6.941   0.217  0.5762 -0.0337  0.2679
24305SOL    HW178235   1.633   6.850   0.188  1.0751  0.0473  0.0829
24305SOL    HW278236   1.613   6.935   0.312 -0.0797 -0.3014  0.1499
24306SOL     OW78237   7.197   0.728   9.758 -0.0962  0.4016 -0.0917
24306SOL    HW178238   7.106   0.756   9.757 -0.4750 -0.6974 -2.1410
24306SOL    HW278239   7.203   0.666   9.831 -1.2528 -0.2639 -0.5365
24307SOL     OW78240   3.544  11.545   8.362  0.5184 -0.2998 -0.4802
24307SOL    HW178241   3.621  11.502   8.399  0.5268 -0.3638 -0.5703
24307SOL    HW278242   3.579  11.600   8.291  0.5136 -0.1021 -0.3282
24308SOL     OW78243   2.955   9.127   2.448 -0.6579  0.4518 -0.8527
24308SOL    HW178244   2.978   9.051   2.394 -3.2836  1.0630 -3.0756
24308SOL    HW278245   2.980   9.202   2.396  1.5270  1.2106  1.1484
24309SOL     OW78246   0.132  10.257   2.696 -0.2503 -0.1058  0.7491
24309SOL    HW178247   0.190  10.317   2.648  0.1352  0.6348  2.1050
24309SOL    HW278248   0.062  10.312   2.729 -1.2499 -0.8444 -0.0765
24310SOL     OW78249   8.619   2.290  10.897  0.0165 -0.1406  0.2169
24310SOL    HW178250   8.566   2.211  10.888  0.1410 -0.0881 -1.3671
24310SOL    HW278251   8.576   2.341  10.965 -0.7253 -1.0565  0.4524
24311SOL     OW78252   6.213   8.743   0.487  0.2101  0.5820 -0.2501
24311SOL    HW178253   6.134   8.704   0.448  1.5624 -1.7868 -0.7773
24311SOL    HW278254   6.210   8.715   0.578  0.8710 -0.3008 -0.4859
24312SOL     OW78255   6.085   0.029   5.786  0.0558 -0.1485  0.1785
24312SOL    HW178256   6.017   0.074   5.736 -0.1534 -0.6957 -0.0338
24312SOL    HW278257   6.146  -0.004   5.719  0.1900 -0.2108  0.3318
24313SOL     OW78258   5.566   9.324  10.410  0.7598 -0.4824  0.2498
24313SOL    HW178259   5.504   9.251  10.404  0.2187 -0.0070 -0.0842
24313SOL    HW278260   5.555   9.371  10.327  2.3819 -1.0216 -0.3098
24314SOL     OW78261   7.799   3.990   5.531 -0.1063 -0.3093 -0.4578
24314SOL    HW178262   7.734   3.926   5.559 -0.8623  0.8006  0.4305
24314SOL    HW278263   7.805   3.978   5.436 -1.4567 -0.5846 -0.5341
24315SOL     OW78264   6.362   9.521  10.743  0.0910 -0.0153 -0.5154
24315SOL    HW178265   6.348   9.487  10.654  0.5585 -2.0428  0.1354
24315SOL    HW278266   6.279   9.507  10.788  0.5094 -1.0782 -0.0293
24316SOL     OW78267   8.888   7.193   8.982 -0.5289 -0.1076 -0.2193
24316SOL    HW178268   8.811   7.250   8.986 -0.9586 -0.7578  1.7784
24316SOL    HW278269   8.942   7.221   9.055  0.3275 -0.8152 -0.5690
24317SOL     OW78270   9.616   3.484   6.828  0.2016  0.2193  0.0777
24317SOL    HW178271   9.652   3.562   6.871  3.9295 -0.2676 -1.7996
24317SOL    HW278272   9.573   3.518   6.750  0.4262  0.5179  0.0782
24318SOL     OW78273   4.835   5.769   6.659 -0.7381 -0.1490  0.2005
24318SOL    HW178274   4.807   5.703   6.723 -1.6745 -1.1218 -1.1542
24318SOL    HW278275   4.897   5.724   6.602  0.7635  0.9520  0.8803
24319SOL     OW78276   4.833   5.244   8.601 -0.5996  0.3907 -0.6464
24319SOL    HW178277   4.852   5.335   8.625 -0.5184  0.2585 -0.1950
24319SOL    HW278278   4.903   5.194   8.643  0.1728  0.2411 -2.0521
24320SOL     OW78279   3.781   0.043  11.607  0.2453 -0.0520 -0.3149
24320SOL    HW178280   3.693   0.066  11.577 -0.3653 -0.6457  0.9629
24320SOL    HW278281   3.787  -0.051  11.594 -0.1951 -0.3998  1.7291
24321SOL     OW78282   6.607   2.048   4.429  0.0192 -0.4400  0.0982
24321SOL    HW178283   6.608   2.126   4.375  1.7276 -0.8123 -0.4844
24321SOL    HW278284   6.529   2.000   4.402 -0.5037  0.5804 -0.2317
24322SOL     OW78285   0.297   6.210  11.483 -0.2048 -0.0620  0.1469
24322SOL    HW178286   0.339   6.126  11.470 -0.4226 -0.0474 -0.7114
24322SOL    HW278287   0.328   6.264  11.410  0.5948  0.8752  1.1516
24323SOL     OW78288   3.351   3.544   6.350 -0.3146  0.1778 -0.1014
24323SOL    HW178289   3.334   3.458   6.390 -0.5031  0.5807  0.6970
24323SOL    HW278290   3.421   3.527   6.286 -0.2670 -0.5475  0.1311
24324SOL     OW78291   7.322   5.883  11.380 -0.0022  0.3602 -0.4475
24324SOL    HW178292   7.266   5.867  11.455  0.6901 -0.5045 -0.1049
24324SOL    HW278293   7.315   5.978  11.365  0.9448  0.8086  1.5921
24325SOL     OW78294   8.737   5.304   2.227 -0.5895  0.2888 -0.1078
24325SOL    HW178295   8.642   5.314   2.219 -1.4273 -3.6474  2.2350
24325SOL    HW278296   8.760   5.242   2.157  0.0078  0.2106  0.1561
24326SOL     OW78297   3.019   4.647   8.539 -0.5319 -0.6503 -0.0303
24326SOL    HW178298   2.950   4.711   8.526  0.6787  0.3725 -1.8788
24326SOL    HW278299   2.996   4.573   8.482  0.7210  0.4516 -2.0844
24327SOL     OW78300   9.155   7.279   3.454  0.3723 -0.4715  0.1825
24327SOL    HW178301   9.210   7.240   3.522  1.2894  0.6368  0.1165
24327SOL    HW278302   9.204   7.267   3.373  0.4422  0.3484  0.0921
24328SOL     OW78303   5.970   0.449   1.135  0.3663  0.1786  0.2686
24328SOL    HW178304   5.902   0.443   1.202  1.1958 -1.4205  1.0066
24328SOL    HW278305   5.927   0.420   1.054  0.3916 -1.8220  0.9270
24329SOL     OW78306   6.065   2.546   8.164 -0.0603  0.1540  0.1057
24329SOL    HW178307   6.048   2.612   8.097 -0.1142  1.3053  1.2261
24329SOL    HW278308   6.002   2.476   8.145  0.2154  0.2608 -1.2902
24330SOL     OW78309  11.283   4.337   0.632  0.9576 -0.3544  0.0324
24330SOL    HW178310  11.313   4.409   0.577 -0.0487 -1.2566 -1.7858
24330SOL    HW278311  11.189   4.333   0.617  0.6773 -0.7634  1.7040
24331SOL     OW78312   7.990   0.663   6.926  0.2937 -0.5802 -0.1778
24331SOL    HW178313   7.903   0.681   6.890 -1.8383  1.0349  4.9019
24331SOL    HW278314   7.994   0.567   6.932 -0.3584 -0.7579 -1.9091
24332SOL     OW78315   7.640   4.567   0.712  0.5325  0.6904 -0.3197
24332SOL    HW178316   7.663   4.501   0.647  0.7284  0.3777  0.0677
24332SOL    HW278317   7.578   4.624   0.667  0.2419  0.1558 -0.6075
24333SOL     OW78318   8.441   3.146  11.770  0.2153  0.7635 -0.0915
24333SOL    HW178319   8.434   3.236  11.803 -0.8101 -0.0873  2.2003
24333SOL    HW278320   8.500   3.103  11.831  0.0789 -0.3267 -0.7151
24334SOL     OW78321   1.033   3.404  11.155  0.1230 -0.0546 -0.7926
24334SOL    HW178322   1.123   3.422  11.127 -0.0091 -1.6194 -2.3872
24334SOL    HW278323   1.004   3.485  11.197  2.6842  0.0905  0.9215
24335SOL     OW78324   6.732   0.075  11.235 -0.3454  0.0617 -0.2157
24335SOL    HW178325   6.785   0.028  11.300  0.7218  0.5532 -0.7094
24335SOL    HW278326   6.644   0.075  11.272 -0.1771 -1.4962  0.2355
24336SOL     OW78327   7.460   1.529   0.166  0.2692  0.3677 -0.5258
24336SOL    HW178328   7.389   1.526   0.231 -1.8984 -2.0661 -2.7763
24336SOL    HW278329   7.449   1.614   0.124 -1.0897  0.2124 -0.5418
24337SOL     OW78330   8.961   6.916   0.244  0.4065  0.6405  0.4228
24337SOL    HW178331   8.879   6.913   0.293 -0.1969  0.1879 -0.5763
24337SOL    HW278332   9.026   6.879   0.303 -0.7911 -2.5055 -0.0250
24338SOL     OW78333   1.407  10.396  10.871 -0.6818  0.3035  0.2041
24338SOL    HW178334   1.429  10.456  10.942  0.1232 -0.1934  0.3899
24338SOL    HW278335   1.395  10.311  10.914  0.3633 -0.1192 -0.3020
24339SOL     OW78336   6.604   9.992   4.985 -0.1631  0.3546  0.3848
24339SOL    HW178337   6.580  10.018   4.896 -2.2981 -0.2608  0.7249
24339SOL    HW278338   6.520   9.974   5.028  0.9166 -2.2752  1.6192
24340SOL     OW78339  10.986   7.833  10.825  0.2164 -0.0443  0.1601
24340SOL    HW178340  11.030   7.752  10.853 -1.2933 -0.6698  0.8247
24340SOL    HW278341  10.905   7.803  10.784 -0.7259  1.1696  1.0935
24341SOL     OW78342  11.325   1.975   4.946  0.4474  0.5898 -0.3056
24341SOL    HW178343  11.315   1.881   4.929 -0.4048  0.6083  0.0436
24341SOL    HW278344  11.363   1.980   5.034  1.8225  0.5616 -0.8652
24342SOL     OW78345   0.394   2.740  11.622  0.1994 -0.3598 -0.4285
24342SOL    HW178346   0.411   2.645  11.623 -0.1875 -0.4372  0.9367
24342SOL    HW278347   0.448   2.775  11.693 -1.1017  0.1571  0.3344
24343SOL     OW78348  10.035   1.793   9.496  0.3327  0.1989 -0.6608
24343SOL    HW178349  10.058   1.701   9.509  1.2016  0.6153  1.1107
24343SOL    HW278350   9.963   1.809   9.558 -0.3565  0.5217 -1.5296
24344SOL     OW78351   9.178   5.641  11.188 -0.7658 -0.5070  0.4099
24344SOL    HW178352   9.120   5.711  11.158  1.9091  2.8020  2.1878
24344SOL    HW278353   9.243   5.632  11.119  0.5257  0.9792  1.3544
24345SOL     OW78354   2.045   8.015   0.913 -0.1250  0.0437 -0.4768
24345SOL    HW178355   2.095   8.085   0.955 -0.4989 -0.6234  1.1778
24345SOL    HW278356   2.111   7.958   0.875  0.3113  0.0717  0.2113
24346SOL     OW78357   1.031  10.690   6.675  0.5454 -0.0579  0.5954
24346SOL    HW178358   0.970  10.654   6.611  0.5426  2.1219 -0.7213
24346SOL    HW278359   1.082  10.614   6.706 -1.9239 -1.7252  0.8141
24347SOL     OW78360   7.785   0.530   9.640  0.4708 -0.1933  0.2752
24347SOL    HW178361   7.874   0.498   9.651  0.4007 -0.7344 -0.5731
24347SOL    HW278362   7.740   0.460   9.592 -0.9262 -0.7549  2.2757
24348SOL     OW78363  11.445   3.995   5.414 -0.4991 -0.1203 -0.6809
24348SOL    HW178364  11.411   4.074   5.456  2.9940  0.2955  1.8630
24348SOL    HW278365  11.514   4.026   5.356  1.3786 -1.2306  0.8579
24349SOL     OW78366   3.234   3.192   2.720 -0.1986  0.7865 -0.3052
24349SOL    HW178367   3.186   3.133   2.778 -0.0230 -1.6568 -2.4329
24349SOL    HW278368   3.173   3.209   2.648 -0.3838  3.6521  0.4051
24350SOL     OW78369  11.356   1.362  10.212 -0.3496  0.3931 -0.1297
24350SOL    HW178370  11.413   1.297  10.252 -0.9086 -0.5547 -0.8584
24350SOL    HW278371  11.270   1.319  10.206 -1.3656  1.9934  1.5574
24351SOL     OW78372  10.548   4.893   7.794 -0.3100  0.0854 -0.2252
24351SOL    HW178373  10.544   4.803   7.762 -0.2605 -0.3883  1.0538
24351SOL    HW278374  10.464   4.931   7.769 -0.5915 -0.5098 -0.2067
24352SOL     OW78375   8.909   8.338   8.305 -0.3884  0.5259  0.0773
24352SOL    HW178376   8.887   8.318   8.396  0.6317  0.3469  0.3007
24352SOL    HW278377   8.848   8.285   8.253  1.4173 -2.3633  0.6487
24353SOL     OW78378   2.405   8.783   9.816  0.2909  0.1396  0.0902
24353SOL    HW178379   2.337   8.841   9.780 -2.0732 -1.1816  2.0832
24353SOL    HW278380   2.439   8.735   9.740 -1.9304 -0.0267 -0.8715
24354SOL     OW78381   4.118  11.288   2.235 -0.0063  0.0812 -0.4621
24354SOL    HW178382   4.191  11.348   2.219 -0.3588  0.5635 -0.2958
24354SOL    HW278383   4.040  11.338   2.211 -0.2155 -0.8234 -1.7494
24355SOL     OW78384  10.565   7.061   4.151 -0.2179 -0.1710 -0.0465
24355SOL    HW178385  10.519   7.025   4.075 -0.0442 -0.5924  0.0460
24355SOL    HW278386  10.583   6.985   4.207 -0.4620  0.1558  0.4794
24356SOL     OW78387   2.070   9.919   3.264  0.1600 -0.2507 -0.0413
24356SOL    HW178388   2.000   9.860   3.290 -1.3190  1.8307  0.9530
24356SOL    HW278389   2.140   9.903   3.328  0.0851 -1.3744 -0.2159
24357SOL     OW78390   7.816   5.260   4.706 -0.1357 -0.2904 -0.1250
24357SOL    HW178391   7.824   5.255   4.611  2.3654 -0.3289  0.0141
24357SOL    HW278392   7.798   5.353   4.724  1.0560  0.0567 -0.5997
24358SOL     OW78393   6.807   4.239   6.499  0.4285 -0.5477 -0.1380
24358SOL    HW178394   6.873   4.241   6.429  0.9946 -0.4312  0.3851
24358SOL    HW278395   6.778   4.148   6.500  1.0415 -0.7503  0.0327
24359SOL     OW78396   6.905   8.307   2.156 -0.0285 -0.5101  0.4169
24359SOL    HW178397   6.840   8.256   2.205 -0.6088  0.0433  0.2528
24359SOL    HW278398   6.947   8.362   2.223  0.2026 -0.8012  0.5102
24360SOL     OW78399   0.331   4.031  10.724  0.1756  0.2117 -0.1052
24360SOL    HW178400   0.332   4.125  10.706  2.5081  0.1441 -0.6683
24360SOL    HW278401   0.394   3.994  10.663 -1.6465 -1.9593 -0.8110
24361SOL     OW78402   0.728   2.915   6.204 -0.2408 -0.5846 -0.0534
24361SOL    HW178403   0.779   2.834   6.211 -0.9852 -1.0644 -0.0691
24361SOL    HW278404   0.794   2.985   6.207  0.5200 -1.2127 -1.1431
24362SOL     OW78405   0.632   8.450   5.661  0.1806 -0.0296  0.2363
24362SOL    HW178406   0.705   8.426   5.604  1.4055  0.1377  1.6790
24362SOL    HW278407   0.653   8.410   5.746 -1.1324  0.4719  0.8257
24363SOL     OW78408  10.910   1.907   4.330  0.0512  0.1531  0.0463
24363SOL    HW178409  10.922   1.900   4.235 -0.1797  1.6138 -0.1066
24363SOL    HW278410  10.822   1.941   4.341 -0.3209 -1.0045  0.8474
24364SOL     OW78411   5.605   8.376   5.614  0.3006  0.1458  0.7114
24364SOL    HW178412   5.521   8.418   5.600 -0.4660 -1.5236  0.0696
24364SOL    HW278413   5.667   8.429   5.563 -0.6074  0.5376 -0.0099
24365SOL     OW78414  10.206   7.887   2.865 -0.1874 -0.2052  0.3411
24365SOL    HW178415  10.170   7.804   2.833  1.7533 -0.8193 -0.3903
24365SOL    HW278416  10.230   7.869   2.956  0.8948 -0.6995 -0.0273
24366SOL     OW78417   6.309   5.497  11.703 -0.3879  0.1466  0.0948
24366SOL    HW178418   6.337   5.576  11.749  0.0691 -0.3534  0.7100
24366SOL    HW278419   6.346   5.505  11.615 -0.3411  0.6128  0.1568
24367SOL     OW78420   6.028   2.100   3.410  0.1747  0.6794  0.3843
24367SOL    HW178421   6.046   2.159   3.337  1.9447 -0.1689  0.0676
24367SOL    HW278422   5.972   2.032   3.373 -0.2616  1.1117  0.2430
24368SOL     OW78423   5.704   8.691   9.977  0.4900 -0.1781  0.0803
24368SOL    HW178424   5.622   8.641   9.980  0.8557 -0.8799 -0.9487
24368SOL    HW278425   5.693   8.748   9.901  0.7432  0.1210  0.2666
24369SOL     OW78426   2.844   0.139   3.195  0.2049 -0.3339  0.2492
24369SOL    HW178427   2.918   0.167   3.248 -0.1762 -1.4150  1.4283
24369SOL    HW278428   2.829   0.048   3.222  0.0858 -0.9940 -1.8584
24370SOL     OW78429   9.174   3.227   5.241 -0.0454  0.4458 -0.1739
24370SOL    HW178430   9.138   3.305   5.284 -2.6602  0.2445 -1.8022
24370SOL    HW278431   9.265   3.250   5.224  0.2759  1.7067  2.5661
24371SOL     OW78432   5.192   2.603   8.092  0.0193  0.0962 -0.7306
24371SOL    HW178433   5.168   2.514   8.067  0.1473 -0.1728  0.0792
24371SOL    HW278434   5.108   2.646   8.109 -0.2757  1.0485 -3.9609
24372SOL     OW78435   9.707   5.500   7.536 -0.3291  0.4853  0.4086
24372SOL    HW178436   9.794   5.470   7.563 -0.5466  0.5083  1.1589
24372SOL    HW278437   9.662   5.520   7.618 -1.9866 -2.0477  0.2125
24373SOL     OW78438   9.866   2.800   5.904 -0.6404  0.1997  0.0726
24373SOL    HW178439   9.808   2.778   5.832 -1.8458 -2.9689  1.7732
24373SOL    HW278440   9.809   2.803   5.981  0.9550  0.7168  1.2911
24374SOL     OW78441   8.731   6.187   8.918 -0.1206 -0.3315 -0.6023
24374SOL    HW178442   8.754   6.222   9.004 -0.0396  1.6888 -1.3785
24374SOL    HW278443   8.637   6.206   8.909  0.1207  0.5840 -1.4000
24375SOL     OW78444   6.593  10.935   3.313 -0.4010  0.3403 -0.5024
24375SOL    HW178445   6.595  11.016   3.263  0.0570  1.8158  1.7815
24375SOL    HW278446   6.529  10.950   3.382  3.1610  0.8232  3.0724
24376SOL     OW78447   1.828   7.795   4.080 -0.4073 -0.6479  0.2383
24376SOL    HW178448   1.896   7.729   4.065 -1.1678 -1.4270  0.0790
24376SOL    HW278449   1.821   7.802   4.175  1.0005  0.6416  0.2785
24377SOL     OW78450   4.499   9.370   5.174  0.1063  0.2365 -0.2052
24377SOL    HW178451   4.487   9.287   5.221  1.3109 -0.4313 -1.0217
24377SOL    HW278452   4.448   9.359   5.094  0.9526 -0.0944 -0.7199
24378SOL     OW78453   3.000   9.772   2.583 -0.2441 -0.2003 -0.0991
24378SOL    HW178454   3.053   9.734   2.653  0.5722  0.0962 -0.5362
24378SOL    HW278455   3.053   9.846   2.552 -0.5843 -0.3513 -1.0454
24379SOL     OW78456   7.530   4.122   6.817 -0.3000  0.5216  0.1055
24379SOL    HW178457   7.568   4.184   6.755  2.1225 -0.8440  0.0851
24379SOL    HW278458   7.581   4.042   6.805 -4.1101 -2.0461 -0.8273
24380SOL     OW78459  10.496  10.819   5.093 -0.1877  0.4719 -0.0523
24380SOL    HW178460  10.538  10.740   5.127 -2.7235 -1.4771 -1.0667
24380SOL    HW278461  10.555  10.890   5.116  2.7448 -1.8179  0.0621
24381SOL     OW78462   3.690   2.530   6.823 -0.3154 -0.2551  0.7358
24381SOL    HW178463   3.778   2.512   6.791 -1.0106  1.0854 -2.2969
24381SOL    HW278464   3.635   2.464   6.781 -1.1819  1.1905 -0.5346
24382SOL     OW78465   1.467   2.602   1.144  0.2817 -0.7403  0.0296
24382SOL    HW178466   1.503   2.525   1.188  2.2757 -0.2496 -0.6159
24382SOL    HW278467   1.490   2.675   1.202  0.2849 -0.4182 -0.3730
24383SOL     OW78468   0.620  10.254   1.073  0.5331  0.4481  0.3621
24383SOL    HW178469   0.629  10.305   0.992  0.3584  1.9434  1.2558
24383SOL    HW278470   0.554  10.301   1.124 -1.6308 -2.1096  0.1771
24384SOL     OW78471  10.207   1.894   5.141  0.1754  0.3601  0.1331
24384SOL    HW178472  10.281   1.919   5.086  0.0429 -0.6840 -0.5473
24384SOL    HW278473  10.231   1.923   5.229  0.8934  1.0225 -0.2716
24385SOL     OW78474  10.570   5.397   5.827 -0.0120  0.2540  0.0370
24385SOL    HW178475  10.630   5.325   5.845  1.9328  1.7337 -0.1529
24385SOL    HW278476  10.525   5.371   5.746 -0.9906 -1.6715  1.1398
24386SOL     OW78477   9.396   1.152   5.469  0.1173 -0.1499 -0.2407
24386SOL    HW178478   9.450   1.205   5.528 -1.3801  1.7255 -0.4832
24386SOL    HW278479   9.430   1.172   5.382 -0.0831 -0.0070 -0.2874
24387SOL     OW78480   9.111   5.637   4.127  0.3083  0.3292  0.1152
24387SOL    HW178481   9.039   5.605   4.073  0.0797 -0.4063  0.8455
24387SOL    HW278482   9.070   5.698   4.188  0.5493  1.0793 -0.4597
24388SOL     OW78483   0.678   2.167   3.471 -0.5961  0.5611  0.4513
24388SOL    HW178484   0.682   2.167   3.567  0.1541 -0.4859  0.4387
24388SOL    HW278485   0.766   2.193   3.444  0.9860 -4.1601  0.1118
24389SOL     OW78486   3.051   7.615   8.304  0.2269  0.0900 -0.0991
24389SOL    HW178487   3.088   7.667   8.375  1.2515  2.4254 -2.2277
24389SOL    HW278488   3.083   7.655   8.224 -1.6851 -1.8105 -1.9785
24390SOL     OW78489   6.566   5.935   8.962 -0.2339  0.0690 -0.0132
24390SOL    HW178490   6.515   5.952   8.883 -3.0131  0.7335  1.7750
24390SOL    HW278491   6.512   5.874   9.012  2.1534 -1.5158  0.7714
24391SOL     OW78492  10.598   3.580   3.704 -0.2847 -0.3261 -0.2092
24391SOL    HW178493  10.583   3.581   3.610  1.5047  1.1836 -0.5479
24391SOL    HW278494  10.580   3.669   3.733 -1.7836 -0.9984  1.1114
24392SOL     OW78495   7.550   4.597   7.199 -0.1209 -0.1719 -1.1571
24392SOL    HW178496   7.512   4.516   7.233 -0.3227  0.0015 -0.9680
24392SOL    HW278497   7.633   4.569   7.160  0.9061 -0.1572  0.8880
24393SOL     OW78498   9.637   0.022   9.647  0.1392  0.7691 -0.6921
24393SOL    HW178499   9.566  -0.014   9.594 -0.7157  0.3974  0.6503
24393SOL    HW278500   9.627   0.117   9.639 -0.3104  0.7183 -0.7528
24394SOL     OW78501   8.384   3.735   0.128  0.4897  0.6582  0.4217
24394SOL    HW178502   8.415   3.676   0.196  2.1236  0.8801 -0.0797
24394SOL    HW278503   8.439   3.716   0.052  0.0234  1.7534 -0.2310
24395SOL     OW78504   8.021  11.206   4.104  0.2879 -0.5256  0.4306
24395SOL    HW178505   8.109  11.244   4.108  0.4786 -1.0656  1.4899
24395SOL    HW278506   7.966  11.278   4.073  1.3455 -0.6363 -1.9200
24396SOL     OW78507   7.921   1.129   6.160  0.3807 -0.4636 -0.3581
24396SOL    HW178508   7.887   1.044   6.188 -0.1743 -0.1837 -0.1629
24396SOL    HW278509   7.842   1.183   6.146  0.6123 -0.5809 -2.4488
24397SOL     OW78510   6.746   5.863   4.082  0.1958  0.4177 -0.2576
24397SOL    HW178511   6.734   5.859   4.177 -0.6948  0.2063 -0.3709
24397SOL    HW278512   6.812   5.796   4.064 -1.5664 -1.4486 -0.0727
24398SOL     OW78513   2.949   3.877   4.952  0.8161  0.3240  0.2089
24398SOL    HW178514   3.044   3.871   4.939  0.8962  1.2902  0.2860
24398SOL    HW278515   2.916   3.791   4.927  1.6101  0.2716 -0.6928
24399SOL     OW78516   6.131   6.799   1.677 -0.3203  0.3471  0.2895
24399SOL    HW178517   6.112   6.893   1.674 -0.4129  0.3584  1.0871
24399SOL    HW278518   6.074   6.765   1.747 -1.4745 -0.5854 -1.0506
24400SOL     OW78519   0.473  11.059   2.526  0.4646  0.5182  0.1138
24400SOL    HW178520   0.547  11.012   2.488 -0.1966 -0.0070 -0.5703
24400SOL    HW278521   0.414  10.991   2.557  0.2577  0.9270  0.6339
24401SOL     OW78522   5.016   2.656  10.877 -0.4151  0.0329 -0.3248
24401SOL    HW178523   5.065   2.739  10.878  1.1335 -0.8409 -0.8126
24401SOL    HW278524   4.967   2.659  10.794 -0.1656  0.3355 -0.4652
24402SOL     OW78525  10.535   9.107   9.091  0.1179 -0.1281 -0.2271
24402SOL    HW178526  10.478   9.116   9.167 -0.2740  0.7222 -0.6120
24402SOL    HW278527  10.532   9.192   9.048  0.6954 -0.4571 -0.9499
24403SOL     OW78528   0.486   1.356   7.052  0.0921  0.4536 -0.1190
24403SOL    HW178529   0.508   1.443   7.083  0.5234  0.8189 -1.3785
24403SOL    HW278530   0.550   1.298   7.093  1.9702  1.1855 -1.8463
24404SOL     OW78531   1.722  10.966   4.975  0.2841 -0.0494  0.0452
24404SOL    HW178532   1.645  10.984   4.920  0.4457 -1.8817 -0.8580
24404SOL    HW278533   1.745  10.875   4.956  2.7765  0.4645  0.1728
24405SOL     OW78534   1.310   3.678   8.659 -0.4830  0.2212  0.2864
24405SOL    HW178535   1.305   3.605   8.597 -2.0566 -0.0951  0.7304
24405SOL    HW278536   1.327   3.636   8.743  0.7531  0.5761  0.2318
24406SOL     OW78537   9.600   0.932   0.482  0.0725 -0.1632 -0.0893
24406SOL    HW178538   9.544   0.916   0.557  2.1724 -1.8697  1.2346
24406SOL    HW278539   9.662   0.998   0.511 -0.7252  1.1676 -1.2839
24407SOL     OW78540  10.273   8.508   0.780 -0.1759  0.0579  0.0252
24407SOL    HW178541  10.321   8.441   0.731 -2.1319 -0.3763 -1.4280
24407SOL    HW278542  10.233   8.460   0.854  0.4306  0.1359  0.4090
24408SOL     OW78543   2.643   2.098   6.141 -0.1553 -0.4356  0.1874
24408SOL    HW178544   2.602   2.184   6.149 -0.1888 -0.1260 -2.3436
24408SOL    HW278545   2.726   2.115   6.097  0.0988 -1.6337  0.1579
24409SOL     OW78546   5.199   3.172   9.464  0.2664  0.3947  0.9301
24409SOL    HW178547   5.118   3.121   9.468  1.1049 -1.7263 -3.3917
24409SOL    HW278548   5.171   3.261   9.441 -0.9123  0.1559  1.4179
24410SOL     OW78549   4.215   7.934   0.797  0.2008 -0.2793 -0.3679
24410SOL    HW178550   4.307   7.958   0.794  0.1641 -0.2516 -1.8198
24410SOL    HW278551   4.214   7.841   0.820  0.5127  0.0517  1.0653
24411SOL     OW78552   0.297  10.005   4.298 -0.6000 -0.0642 -0.3374
24411SOL    HW178553   0.227   9.956   4.340  0.1109 -0.1225  0.7995
24411SOL    HW278554   0.251  10.066   4.240 -1.6182  0.2234  0.7328
24412SOL     OW78555   3.526  10.606   3.780  0.1890 -0.2001  0.3768
24412SOL    HW178556   3.608  10.633   3.823 -0.8046  1.2754  1.4661
24412SOL    HW278557   3.538  10.512   3.764  1.8793 -0.1436  1.0029
24413SOL     OW78558   2.281   3.165   2.268 -0.1595 -0.6314 -0.5998
24413SOL    HW178559   2.310   3.206   2.349 -0.8818 -0.5841 -0.3560
24413SOL    HW278560   2.320   3.218   2.198 -1.4855  0.7861 -0.2998
24414SOL     OW78561   2.421   9.859   0.206 -0.2573  0.2078  0.2050
24414SOL    HW178562   2.337   9.895   0.234  0.2891  0.1211  2.1220
24414SOL    HW278563   2.405   9.765   0.199 -0.3669  0.2117  0.3892
24415SOL     OW78564   4.217   4.645   4.704 -0.0952 -0.0768  0.3421
24415SOL    HW178565   4.301   4.619   4.742 -0.3402  0.2847  1.1562
24415SOL    HW278566   4.225   4.740   4.691  0.3993 -0.3539 -1.6000
24416SOL     OW78567   3.587   8.011   0.006 -0.4706  0.5129  0.0996
24416SOL    HW178568   3.553   7.922  -0.003 -0.0935 -0.1672  3.7723
24416SOL    HW278569   3.682   8.000   0.013 -0.4026  1.2141  0.3812
24417SOL     OW78570   7.312   6.356   5.962 -0.1508  0.0581 -0.2466
24417SOL    HW178571   7.358   6.295   6.019  0.0776 -0.5304 -1.0416
24417SOL    HW278572   7.382   6.400   5.913 -0.3914 -0.4319 -1.0533
24418SOL     OW78573  10.451   1.443   3.159 -0.2372 -0.1820 -0.0766
24418SOL    HW178574  10.420   1.534   3.152 -0.4073  0.1254  3.1934
24418SOL    HW278575  10.371   1.392   3.171 -0.0408 -0.6099 -0.5377
24419SOL     OW78576   7.352   2.556  10.619  0.1340 -0.2238 -0.0469
24419SOL    HW178577   7.423   2.529  10.561 -0.3100  0.8655 -1.1456
24419SOL    HW278578   7.389   2.627  10.671 -0.0607  0.1850 -0.4550
24420SOL     OW78579   2.905  11.156   7.058 -0.5233 -0.4267  0.4149
24420SOL    HW178580   2.825  11.105   7.050 -0.3246 -0.4652 -1.8949
24420SOL    HW278581   2.884  11.224   7.122 -2.6096 -0.0897 -0.5602
24421SOL     OW78582   7.737   6.445   3.701 -0.3478  0.2132  0.1960
24421SOL    HW178583   7.659   6.428   3.648 -0.9009 -2.0113  1.5613
24421SOL    HW278584   7.710   6.425   3.791  1.3514  1.0367  0.9377
24422SOL     OW78585   3.641   0.847   3.084  0.0048 -0.0451  0.0402
24422SOL    HW178586   3.671   0.774   3.138  2.4322  0.7048 -0.1797
24422SOL    HW278587   3.679   0.832   2.998  0.1090  1.1936 -0.1539
24423SOL     OW78588   0.670   1.177   6.058 -0.2522 -0.0983 -0.0800
24423SOL    HW178589   0.748   1.142   6.015 -0.8575 -2.1828  0.3734
24423SOL    HW278590   0.682   1.157   6.151 -0.9389  0.3399  0.1145
24424SOL     OW78591   6.730   8.253   7.346  0.4373 -0.2511 -0.3436
24424SOL    HW178592   6.665   8.183   7.348 -1.8909  1.7713  0.5213
24424SOL    HW278593   6.814   8.208   7.342 -0.9764 -3.0293 -1.5050
24425SOL     OW78594   3.514   0.089   1.761  0.0420  0.0283 -0.1439
24425SOL    HW178595   3.561   0.116   1.682 -0.2756 -1.1629 -0.7642
24425SOL    HW278596   3.574   0.031   1.807  0.2046  0.6686  0.4873
24426SOL     OW78597  11.094   4.391   6.656 -0.5435  0.1984  0.2091
24426SOL    HW178598  11.059   4.309   6.690  1.7856 -0.1851  1.9395
24426SOL    HW278599  11.164   4.365   6.597 -1.7400  0.9701 -1.6616
24427SOL     OW78600   6.741   0.874  11.733 -0.0186  0.0702  0.2049
24427SOL    HW178601   6.799   0.900  11.661  0.9389  0.9829  1.2790
24427SOL    HW278602   6.766   0.931  11.806 -0.3219 -1.4757  1.5596
24428SOL     OW78603   8.231   3.934  10.142 -0.0995  0.0351 -0.2177
24428SOL    HW178604   8.242   3.954  10.235 -1.8452 -1.9334  0.4853
24428SOL    HW278605   8.295   3.865  10.124  0.8108  0.9808 -0.7382
24429SOL     OW78606   5.029   2.354   8.691 -0.2894  0.1717 -0.9621
24429SOL    HW178607   4.940   2.344   8.657 -0.1253  1.2242 -1.7164
24429SOL    HW278608   5.041   2.277   8.747 -1.6694  0.0121 -0.8458
24430SOL     OW78609  11.798   1.715   7.025 -0.6635  0.1303 -0.5018
24430SOL    HW178610  11.891   1.710   7.047 -0.8385  0.9985  0.5210
24430SOL    HW278611  11.796   1.758   6.939 -0.1778  1.9012  0.3290
24431SOL     OW78612   3.527   0.366   3.295  0.3890 -0.2821  0.0158
24431SOL    HW178613   3.441   0.362   3.338  0.0106  0.3584 -0.6433
24431SOL    HW278614   3.590   0.349   3.365 -0.1004  2.5034  1.2733
24432SOL     OW78615  10.544   8.819   9.423  0.1962 -0.0963 -0.4844
24432SOL    HW178616  10.592   8.761   9.481  1.1712 -0.1295 -1.2869
24432SOL    HW278617  10.593   8.817   9.341 -0.9498  0.2085 -1.2072
24433SOL     OW78618   4.194   9.002   7.903 -0.4512  0.7221  0.6203
24433SOL    HW178619   4.135   9.074   7.926 -2.0628 -0.3159 -0.1132
24433SOL    HW278620   4.140   8.942   7.851  0.8204 -1.0431  1.2328
24434SOL     OW78621   6.152   2.986  11.128 -0.5448  0.4720 -0.1391
24434SOL    HW178622   6.107   3.032  11.199 -2.8043  0.0929 -1.2467
24434SOL    HW278623   6.235   2.960  11.167 -1.7064  0.2069  2.4124
24435SOL     OW78624   3.209   8.718   5.099 -0.2214  0.2870 -0.1543
24435SOL    HW178625   3.247   8.671   5.173  0.1970  0.2534 -0.3886
24435SOL    HW278626   3.261   8.691   5.023  0.6442  1.8232 -0.1471
24436SOL     OW78627   7.945   5.268   9.598  0.4348  0.1509  0.4463
24436SOL    HW178628   7.936   5.330   9.671  0.4855 -0.5467  1.0541
24436SOL    HW278629   7.857   5.237   9.582 -0.0334  2.2393 -1.5589
24437SOL     OW78630  11.114   4.986   1.463 -0.0191  0.6260  0.0751
24437SOL    HW178631  11.020   4.982   1.444 -0.1302 -2.0265  0.8630
24437SOL    HW278632  11.154   4.927   1.399  1.1387  1.6328 -0.1722
24438SOL     OW78633   0.935   3.676  11.244  0.1586  0.0297  0.0796
24438SOL    HW178634   0.993   3.740  11.284  0.8638 -0.0903 -0.7194
24438SOL    HW278635   0.898   3.721  11.168  1.0919 -0.6575 -0.8175
24439SOL     OW78636   8.021   5.695   6.504 -0.7644  0.3369  0.0016
24439SOL    HW178637   8.035   5.699   6.599  0.2895  2.1627 -0.1767
24439SOL    HW278638   8.007   5.787   6.479  1.3519  0.2017 -1.9173
24440SOL     OW78639   2.800  11.790   5.373  0.0325  0.1839  0.6073
24440SOL    HW178640   2.739  11.741   5.428 -0.6128  0.3847  0.0738
24440SOL    HW278641   2.886  11.754   5.397 -0.4585 -1.6389 -0.1805
24441SOL     OW78642   7.341   4.186   7.859  0.4152 -0.7092  0.0144
24441SOL    HW178643   7.339   4.100   7.819 -0.7456 -0.5866 -0.2240
24441SOL    HW278644   7.255   4.224   7.840  0.9301  0.5343  0.0424
24442SOL     OW78645   1.692   8.293   0.391 -0.0171  0.1961 -0.3066
24442SOL    HW178646   1.740   8.361   0.344 -1.0523 -0.3636 -2.3268
24442SOL    HW278647   1.750   8.267   0.462  1.3704  1.5659 -0.8742
24443SOL     OW78648  10.521  10.232   8.720  0.2888  0.1965  0.1067
24443SOL    HW178649  10.487  10.156   8.672 -0.6342  1.1062 -0.7111
24443SOL    HW278650  10.451  10.256   8.780  1.1102 -0.4102  1.3570
24444SOL     OW78651   7.931   7.198   4.179 -0.2684  0.1574  0.2575
24444SOL    HW178652   7.869   7.136   4.141  0.8436  0.0031 -1.3859
24444SOL    HW278653   8.017   7.163   4.157  0.4684  0.2004  2.7453
24445SOL     OW78654   2.062   6.178   1.929 -0.3124 -0.1952 -0.4730
24445SOL    HW178655   2.145   6.164   1.976  0.6426  1.1334 -1.6720
24445SOL    HW278656   2.048   6.272   1.931 -0.7197 -0.1870 -2.0222
24446SOL     OW78657   9.217  10.355   6.337  0.3345 -0.0452 -0.0857
24446SOL    HW178658   9.164  10.432   6.321  0.5560  0.1530  0.1187
24446SOL    HW278659   9.306  10.382   6.316  0.2504 -0.6224 -1.2295
24447SOL     OW78660   2.314   7.189  10.986 -0.5864  0.0518 -0.9306
24447SOL    HW178661   2.326   7.146  11.070  0.2380  0.5660 -0.7761
24447SOL    HW278662   2.274   7.122  10.930 -0.3836 -0.5419 -0.3685
24448SOL     OW78663   1.123  11.281   4.437 -0.5057 -0.1995  0.7417
24448SOL    HW178664   1.193  11.251   4.379 -0.8307 -1.9564  1.2086
24448SOL    HW278665   1.086  11.358   4.392 -0.2268 -1.0159 -0.9698
24449SOL     OW78666   6.994   5.418   6.610  0.5422 -0.0872 -0.5283
24449SOL    HW178667   7.021   5.414   6.518  0.5123  0.4043 -0.5592
24449SOL    HW278668   6.900   5.403   6.609  0.4499  0.4710 -0.6338
24450SOL     OW78669  11.020   7.885   9.238  0.0409  0.1211 -0.4843
24450SOL    HW178670  10.979   7.847   9.160 -0.9698  0.0918  0.0397
24450SOL    HW278671  11.112   7.896   9.214 -0.3058  0.3886 -1.7771
24451SOL     OW78672  10.540   0.448   7.290 -0.3487 -0.3318  0.0507
24451SOL    HW178673  10.618   0.420   7.338 -0.0070  0.4196 -0.0615
24451SOL    HW278674  10.480   0.374   7.298  0.2477 -0.7869  0.4162
24452SOL     OW78675   7.348   5.331   8.347  0.0796  0.1029  0.5271
24452SOL    HW178676   7.355   5.304   8.255  0.2844 -2.1030  1.1438
24452SOL    HW278677   7.410   5.403   8.355 -0.4154  0.7738 -1.2047
24453SOL     OW78678   1.827   3.586   9.829  0.6964 -0.2826  0.1320
24453SOL    HW178679   1.739   3.577   9.866  0.1000 -0.0812 -1.1828
24453SOL    HW278680   1.886   3.566   9.902 -0.4365 -0.6324  0.9784
24454SOL     OW78681   4.859   4.629   5.631  0.3917 -0.4664  0.3634
24454SOL    HW178682   4.871   4.570   5.556  1.6089 -0.1292  0.2567
24454SOL    HW278683   4.777   4.602   5.671  0.4657 -1.6289 -0.2253
24455SOL     OW78684   1.957   9.395  10.084 -0.1371  0.0316 -0.4292
24455SOL    HW178685   1.910   9.314  10.105 -1.2061  0.3641 -1.4849
24455SOL    HW278686   2.008   9.413  10.164 -1.4506 -0.5692  0.5938
24456SOL     OW78687   3.574   0.372   9.007 -0.3571 -0.7165 -0.6380
24456SOL    HW178688   3.652   0.336   8.964 -0.7388 -1.4203 -0.7712
24456SOL    HW278689   3.607   0.419   9.083  0.1396 -2.0557  0.0172
24457SOL     OW78690   6.561   1.166   3.766  0.0272  0.3829  0.9092
24457SOL    HW178691   6.566   1.072   3.748 -0.7246  0.6338 -0.7653
24457SOL    HW278692   6.639   1.184   3.818  2.0812 -0.5998 -1.5785
24458SOL     OW78693   0.867  10.533   8.010 -0.2259 -0.2414 -0.1660
24458SOL    HW178694   0.931  10.485   7.958  0.6494  0.1785  0.4819
24458SOL    HW278695   0.805  10.467   8.039  0.4374 -0.8294 -0.0560
24459SOL     OW78696   2.958  10.012   1.679  0.2399  0.1208 -0.3910
24459SOL    HW178697   3.006  10.035   1.600  2.0118 -3.2506 -0.4898
24459SOL    HW278698   2.911   9.931   1.657  0.4411 -0.6836  1.7946
24460SOL     OW78699   7.979  10.015   8.470 -0.6428 -0.2655  0.1336
24460SOL    HW178700   7.947   9.925   8.475 -1.3409  0.0141  1.1694
24460SOL    HW278701   7.906  10.064   8.432 -0.0778 -0.2093 -0.8981
24461SOL     OW78702   8.401   6.873   8.700  0.4800  0.1819 -0.4407
24461SOL    HW178703   8.426   6.796   8.751  0.2505  1.1912  1.2703
24461SOL    HW278704   8.483   6.917   8.681  0.5765 -0.2579 -1.0626
24462SOL     OW78705   9.137   9.887   4.811 -0.2850  0.2837  0.2781
24462SOL    HW178706   9.089   9.826   4.754 -0.0984 -1.0811  1.5412
24462SOL    HW278707   9.101   9.973   4.789 -1.4824 -0.4196 -0.6251
24463SOL     OW78708   6.233   6.209   7.340 -0.1502 -0.1881  0.3688
24463SOL    HW178709   6.243   6.274   7.270  1.4421 -0.4662  0.2990
24463SOL    HW278710   6.272   6.251   7.417  2.2067 -1.5232 -0.0043
24464SOL     OW78711   9.845   3.057   0.251  0.7282 -0.2486  0.3941
24464SOL    HW178712   9.907   3.128   0.267  1.6853 -0.5942 -1.4821
24464SOL    HW278713   9.798   3.083   0.171  0.8929 -1.5670 -0.1603
24465SOL     OW78714   2.598   0.560  10.345 -0.0644  0.6479  1.0013
24465SOL    HW178715   2.631   0.483  10.392  0.4513 -0.0733 -0.4690
24465SOL    HW278716   2.513   0.577  10.385 -1.0813 -1.9086  0.1654
24466SOL     OW78717   0.516   2.368   5.686  0.2012 -0.0426 -0.0802
24466SOL    HW178718   0.459   2.444   5.691 -0.6861 -0.7493  0.9496
24466SOL    HW278719   0.480   2.306   5.750  2.3389 -0.3652  0.9059
24467SOL     OW78720   3.153   1.920   5.070 -0.0623  0.0210 -0.2090
24467SOL    HW178721   3.219   1.854   5.048  1.3526  1.0688  0.7806
24467SOL    HW278722   3.070   1.881   5.041  0.6213 -2.4912  0.9448
24468SOL     OW78723   4.816  10.245  10.534  0.3375 -0.2259  0.1470
24468SOL    HW178724   4.726  10.241  10.500  0.1756 -1.9019  0.6764
24468SOL    HW278725   4.845  10.334  10.515 -2.2946  1.1971  2.1041
24469SOL     OW78726   6.182   5.751  11.252 -0.7171 -0.6984  0.0486
24469SOL    HW178727   6.224   5.794  11.327  0.0079  0.0742 -0.7792
24469SOL    HW278728   6.095   5.728  11.284 -0.5827  0.0218  0.9910
24470SOL     OW78729   9.702   2.835   2.769  0.1181  0.2997 -0.4676
24470SOL    HW178730   9.628   2.828   2.829  1.1083  0.2675  0.7784
24470SOL    HW278731   9.724   2.928   2.769  0.3512  0.2440 -0.5069
24471SOL     OW78732   3.689  10.513   4.572  0.4666  0.0274  0.3517
24471SOL    HW178733   3.611  10.566   4.582 -1.1494 -1.8236 -1.4836
24471SOL    HW278734   3.736  10.522   4.655 -1.7677  1.0587  1.5679
24472SOL     OW78735   4.618   9.745   2.508 -0.2449  0.2492 -0.2058
24472SOL    HW178736   4.558   9.819   2.509 -0.8115 -0.1367 -2.1145
24472SOL    HW278737   4.564   9.669   2.531 -0.3030  0.0402 -0.9951
24473SOL     OW78738   3.503   3.015   6.080  0.2984  0.0999 -0.0155
24473SOL    HW178739   3.538   2.926   6.088  0.6456  0.0802 -1.4512
24473SOL    HW278740   3.439   3.022   6.151 -0.4917 -1.6759 -0.4826
24474SOL     OW78741   6.852  10.940   3.701 -0.2464  0.4910 -0.0609
24474SOL    HW178742   6.811  10.914   3.619  0.8791 -0.0046 -0.4855
24474SOL    HW278743   6.840  11.035   3.705  0.0253  0.5720 -1.0008
24475SOL     OW78744   6.230   2.439   0.588  0.0110 -0.6875 -0.4455
24475SOL    HW178745   6.293   2.502   0.625 -0.2734 -0.1141 -0.9211
24475SOL    HW278746   6.259   2.354   0.621  1.1387 -0.4582 -0.8011
24476SOL     OW78747   0.097   1.042   9.674  0.2826 -0.7509  0.6216
24476SOL    HW178748   0.053   1.063   9.591  1.5956 -0.0953  0.0692
24476SOL    HW278749   0.137   0.957   9.659  1.4234 -0.1587  0.1836
24477SOL     OW78750  10.305   3.878   9.948 -0.2363 -0.2342  0.2195
24477SOL    HW178751  10.295   3.783   9.941  1.5291 -0.4471 -0.0888
24477SOL    HW278752  10.338   3.905   9.862 -1.7668  0.8553 -0.0693
24478SOL     OW78753   9.882   0.839   5.096 -0.0525 -0.0303  0.1484
24478SOL    HW178754   9.794   0.810   5.071 -0.8103  2.9286 -1.0649
24478SOL    HW278755   9.868   0.892   5.174  0.6970  0.1970  0.1311
24479SOL     OW78756  11.143   3.226   6.529  0.3200 -1.1171  0.1031
24479SOL    HW178757  11.062   3.192   6.491  1.3513 -2.5382 -0.9321
24479SOL    HW278758  11.144   3.191   6.618 -0.5683 -0.4091  0.4114
24480SOL     OW78759   6.426   5.575   2.671 -0.1247 -0.3885 -0.5101
24480SOL    HW178760   6.335   5.567   2.642  0.2189 -0.8331 -1.5426
24480SOL    HW278761   6.447   5.488   2.705  0.1814 -0.5623 -1.1280
24481SOL     OW78762   8.253   0.282   5.163 -0.2476 -0.6345 -0.5239
24481SOL    HW178763   8.181   0.238   5.207 -1.1525  0.0073 -1.3077
24481SOL    HW278764   8.216   0.310   5.079  0.2814  1.5119 -0.1132
24482SOL     OW78765   3.350  11.544  10.649  0.3130  0.2527 -0.6352
24482SOL    HW178766   3.402  11.552  10.569 -0.6960  0.8681 -1.2496
24482SOL    HW278767   3.414  11.526  10.718  1.0960 -1.5313 -1.7586
24483SOL     OW78768  11.434   6.795   3.734  0.0124 -0.0307 -0.8205
24483SOL    HW178769  11.519   6.834   3.715 -0.1761  0.6974 -0.2273
24483SOL    HW278770  11.410   6.750   3.653  0.8451 -0.0414 -1.0764
24484SOL     OW78771   1.125  10.032   1.056 -0.1243 -0.1576 -0.0612
24484SOL    HW178772   1.192  10.038   0.987 -1.8852 -0.7440 -1.9180
24484SOL    HW278773   1.088   9.944   1.045 -1.5925  0.3598  0.5144
24485SOL     OW78774   4.522   6.375   7.391  0.2258 -0.4273 -0.4872
24485SOL    HW178775   4.452   6.310   7.389  0.2928 -0.5035 -0.3723
24485SOL    HW278776   4.589   6.341   7.332  1.3434 -1.7012  1.3819
24486SOL     OW78777   1.931   9.898   4.398  0.0451  0.2430 -0.3482
24486SOL    HW178778   1.888   9.935   4.475 -0.8872  1.3982 -1.3739
24486SOL    HW278779   1.884   9.936   4.324  1.4867 -0.1258 -1.5068
24487SOL     OW78780   1.220  10.314  11.613  0.5027  0.1469 -0.0989
24487SOL    HW178781   1.139  10.333  11.565  0.6293  0.6335 -0.1211
24487SOL    HW278782   1.263  10.399  11.622  1.5721 -0.2545 -1.1046
24488SOL     OW78783   2.721   2.728   7.917  0.0778  0.3315 -0.4021
24488SOL    HW178784   2.713   2.695   8.007 -0.6401  2.3499  0.3259
24488SOL    HW278785   2.798   2.682   7.882  1.3220  0.5959  1.7781
24489SOL     OW78786   5.618   9.763   2.982 -0.6200 -0.3140 -0.0371
24489SOL    HW178787   5.658   9.818   3.048 -0.0401 -1.5685  0.6932
24489SOL    HW278788   5.624   9.814   2.901  0.9591  0.2012  0.3750
24490SOL     OW78789   9.450   9.399  10.525  0.5692 -0.3774  0.0179
24490SOL    HW178790   9.467   9.493  10.522  0.9247 -0.3994  0.8744
24490SOL    HW278791   9.484   9.365  10.442 -4.0594  0.8836 -2.7293
24491SOL     OW78792   8.159   5.691  11.202 -0.3316  0.1855  0.0949
24491SOL    HW178793   8.072   5.681  11.163 -0.5674  2.6497 -0.1711
24491SOL    HW278794   8.188   5.778  11.175  1.7321 -0.0941  1.1780
24492SOL     OW78795   5.426  11.735   8.946  0.0698 -0.4899 -0.3464
24492SOL    HW178796   5.406  11.787   8.868 -2.8960  0.4920  0.9702
24492SOL    HW278797   5.439  11.798   9.016 -1.1911 -1.3947  0.7682
24493SOL     OW78798   7.806   5.371   3.579  0.4959  0.6774 -0.6989
24493SOL    HW178799   7.871   5.371   3.649 -0.9356  0.6900  0.6819
24493SOL    HW278800   7.847   5.322   3.508  1.7446  0.1237  0.3711
24494SOL     OW78801   3.673   3.350   4.673  0.0234  0.0694 -0.3102
24494SOL    HW178802   3.607   3.397   4.622  1.7162  1.8219 -0.9805
24494SOL    HW278803   3.711   3.288   4.611 -0.7581 -0.7290 -0.0059
24495SOL     OW78804   7.992   5.781   8.894 -1.0119  0.4238 -0.6854
24495SOL    HW178805   8.037   5.792   8.810 -1.3565 -0.0545 -0.9369
24495SOL    HW278806   7.902   5.756   8.870 -1.3998  1.3023 -0.1946
24496SOL     OW78807   8.319   2.687  11.119 -0.1505 -0.3089 -0.2880
24496SOL    HW178808   8.366   2.696  11.202 -1.8106  1.2286  0.5647
24496SOL    HW278809   8.385   2.705  11.052  0.5444  1.7741  0.8555
24497SOL     OW78810   1.907   7.892   8.098  0.2231 -0.0546  0.2830
24497SOL    HW178811   1.916   7.911   8.004  0.2196 -0.3215  0.2287
24497SOL    HW278812   1.880   7.800   8.101  1.9261 -0.5658  0.6121
24498SOL     OW78813   0.529   4.749   5.525 -0.0624  0.2548  0.2303
24498SOL    HW178814   0.506   4.668   5.571  1.6781  0.1673  1.0392
24498SOL    HW278815   0.457   4.808   5.543 -0.1802 -0.3139  1.7689
24499SOL     OW78816   5.807   6.485   7.122  0.2157 -0.1543 -0.2606
24499SOL    HW178817   5.722   6.444   7.138 -0.5596  1.4841  0.1239
24499SOL    HW278818   5.861   6.458   7.196 -0.0167 -1.0834 -0.4213
24500SOL     OW78819  10.749  11.219   5.788  0.1852  0.0847 -0.4961
24500SOL    HW178820  10.777  11.139   5.831 -0.7049  0.5507  1.0138
24500SOL    HW278821  10.820  11.281   5.803 -1.0165  0.9371  2.3929
24501SOL     OW78822   3.275   9.747   4.202 -0.3891  0.1141 -0.6476
24501SOL    HW178823   3.184   9.772   4.219 -1.1138 -0.5959 -3.0777
24501SOL    HW278824   3.269   9.656   4.173  1.2490 -0.2870  0.1903
24502SOL     OW78825   3.347  10.628   2.669 -0.1262 -0.2036  0.9495
24502SOL    HW178826   3.441  10.612   2.678 -0.1657 -0.7027  0.5521
24502SOL    HW278827   3.329  10.702   2.727  0.3574 -0.6478  1.6772
24503SOL     OW78828   8.722   6.608   9.168  0.6087  0.0822 -0.1372
24503SOL    HW178829   8.814   6.606   9.142  0.6305 -0.8466 -0.0454
24503SOL    HW278830   8.719   6.554   9.247  0.2607  1.4716  0.8289
24504SOL     OW78831   2.178   7.825   1.294  0.1663  0.1937  0.1416
24504SOL    HW178832   2.232   7.903   1.280  0.1006  0.1433 -0.3971
24504SOL    HW278833   2.192   7.771   1.217  0.5506 -0.5371  0.7073
24505SOL     OW78834   1.595   7.460   2.584  0.4216 -0.4591  0.0428
24505SOL    HW178835   1.628   7.532   2.637 -0.4075  0.0617 -0.1335
24505SOL    HW278836   1.644   7.467   2.502 -0.5436  0.7175 -0.4726
24506SOL     OW78837   5.902  10.286   0.106  0.0165  0.2043  0.1068
24506SOL    HW178838   5.835  10.252   0.047 -0.0758  1.7658 -0.7286
24506SOL    HW278839   5.951  10.208   0.134 -1.2493 -0.7950 -0.3715
24507SOL     OW78840   7.841   2.828   8.459 -0.7841  0.2495 -0.3023
24507SOL    HW178841   7.876   2.777   8.532 -2.6333 -0.6689  0.0140
24507SOL    HW278842   7.883   2.913   8.466  0.9201 -0.6089  0.3392
24508SOL     OW78843  11.054   6.843  10.208 -0.1284 -0.0010  0.3240
24508SOL    HW178844  10.980   6.904  10.205 -0.0892  0.1609  1.7758
24508SOL    HW278845  11.051   6.806  10.296  1.9576  0.5851  0.7090
24509SOL     OW78846   3.397   8.853  10.183  0.0485  0.7831  0.5936
24509SOL    HW178847   3.364   8.867  10.094  2.0672  4.0091  0.1732
24509SOL    HW278848   3.448   8.773  10.178  0.8164  1.3293 -1.4517
24510SOL     OW78849   1.197   2.125   3.566 -0.7931  0.1519  0.5837
24510SOL    HW178850   1.153   2.170   3.639 -2.5128  0.1833 -0.4116
24510SOL    HW278851   1.134   2.060   3.537 -0.3123  0.4131 -1.1280
24511SOL     OW78852   1.549  10.904   7.955 -0.2126 -0.2418 -0.9659
24511SOL    HW178853   1.593  10.935   7.876 -0.7039  0.9442 -0.7986
24511SOL    HW278854   1.613  10.849   7.999  0.3396 -0.2760 -1.8007
24512SOL     OW78855   0.710   8.640   8.889  0.1002 -0.3642  0.0537
24512SOL    HW178856   0.694   8.667   8.799  0.3883 -1.4634 -0.3427
24512SOL    HW278857   0.674   8.551   8.895  0.4819 -0.4762  0.8899
24513SOL     OW78858   5.092   7.762   4.017 -0.2809  0.6884  0.0839
24513SOL    HW178859   5.141   7.751   3.936 -1.6988  0.5117 -0.7794
24513SOL    HW278860   5.139   7.708   4.081  0.9232  0.9236 -0.5703
24514SOL     OW78861   7.583  11.016   2.721  0.1905  0.1102 -0.4109
24514SOL    HW178862   7.536  10.933   2.714  0.0234  0.1123  0.5428
24514SOL    HW278863   7.523  11.081   2.686 -0.4845  0.0910  0.6667
24515SOL     OW78864   8.051   2.150   3.508  0.1667  0.3804  0.7712
24515SOL    HW178865   7.961   2.175   3.490  0.1489 -0.2222 -0.0136
24515SOL    HW278866   8.099   2.175   3.429  1.1062  2.6332  1.9516
24516SOL     OW78867   2.846   8.349   9.695 -0.4338 -0.8838 -0.2045
24516SOL    HW178868   2.790   8.334   9.771 -0.0547  0.0592  0.2841
24516SOL    HW278869   2.823   8.438   9.667  0.6961 -0.5476 -0.0899
24517SOL     OW78870   4.079   0.865   7.279 -0.0487  0.0257 -0.1810
24517SOL    HW178871   4.010   0.826   7.332  0.3952  0.2167  0.5455
24517SOL    HW278872   4.062   0.959   7.283  0.9347  0.1660  0.9762
24518SOL     OW78873   6.668   4.811   5.224  0.4212 -0.1534 -0.7616
24518SOL    HW178874   6.592   4.755   5.232  0.7209 -0.3950  0.5879
24518SOL    HW278875   6.728   4.763   5.167  0.4094 -0.8987 -0.1449
24519SOL     OW78876   8.934   8.538   5.526  0.0554 -0.0943  0.7861
24519SOL    HW178877   8.985   8.462   5.552  1.1123  0.4789  0.4331
24519SOL    HW278878   8.980   8.613   5.563 -0.8353  0.4062  0.9257
24520SOL     OW78879   4.562   6.876   0.003 -0.2284  0.3455  0.6876
24520SOL    HW178880   4.479   6.829  -0.010 -0.2215  0.6056 -0.3748
24520SOL    HW278881   4.593   6.894  -0.085  0.9027  0.3779  1.0814
24521SOL     OW78882   1.034  10.955   1.410  0.2564  0.4077 -0.4468
24521SOL    HW178883   1.024  10.890   1.341  1.0427  0.0582 -0.2357
24521SOL    HW278884   0.979  10.923   1.482  0.6744 -0.0540 -0.3266
24522SOL     OW78885   4.594   0.013   5.636 -0.1998 -0.0236  0.5099
24522SOL    HW178886   4.517   0.070   5.628  0.2840  0.7412  1.0688
24522SOL    HW278887   4.629   0.008   5.547  0.0829  1.0669  0.5374
24523SOL     OW78888   6.255   7.827   6.916 -0.0309  0.1113 -0.1721
24523SOL    HW178889   6.207   7.904   6.945 -1.2135 -1.3688  2.1297
24523SOL    HW278890   6.334   7.861   6.876 -0.3798  2.5046  1.0181
24524SOL     OW78891   6.772   9.785   2.329 -0.2797 -0.2462 -0.1611
24524SOL    HW178892   6.717   9.707   2.321 -1.2090  0.2885  0.7509
24524SOL    HW278893   6.738   9.846   2.264  0.5234 -0.6227 -0.9568
24525SOL     OW78894   5.890   2.393   9.148  0.0246  0.6719 -0.7160
24525SOL    HW178895   5.972   2.343   9.150 -0.5607 -0.3038  0.5624
24525SOL    HW278896   5.915   2.482   9.172  0.5497  0.0461  1.2930
24526SOL     OW78897   6.336   0.883  11.132  0.5106  0.1277  0.5212
24526SOL    HW178898   6.242   0.900  11.129  0.4913  0.0471  0.6267
24526SOL    HW278899   6.357   0.888  11.226  0.5931  0.0525  0.5063
24527SOL     OW78900  10.024   3.124   9.344  0.1265  0.4114  0.4604
24527SOL    HW178901  10.099   3.170   9.380 -0.1791  0.0145  1.6810
24527SOL    HW278902   9.984   3.186   9.283  0.1279  1.4982  1.5309
24528SOL     OW78903   0.190   2.420   4.346 -0.6738  0.0331  0.2903
24528SOL    HW178904   0.230   2.476   4.412  0.2423 -1.0460  0.7014
24528SOL    HW278905   0.117   2.378   4.391  1.3796 -2.5704  1.5160
24529SOL     OW78906   2.248  11.588  10.847  0.3078 -0.1158  0.1482
24529SOL    HW178907   2.161  11.617  10.818  0.6323  0.2228 -0.5074
24529SOL    HW278908   2.239  11.493  10.859 -0.2307 -0.0412  0.3881
24530SOL     OW78909   3.132   0.472   9.613  0.7477 -0.4508  0.6418
24530SOL    HW178910   3.086   0.556   9.614  1.4367 -0.0169 -0.9444
24530SOL    HW278911   3.222   0.495   9.588  0.9284 -1.6697  0.1226
24531SOL     OW78912   5.877   5.197   3.255 -0.1082  0.3349  0.6484
24531SOL    HW178913   5.806   5.259   3.236 -1.1382 -1.0065 -0.1259
24531SOL    HW278914   5.858   5.167   3.344 -0.8606 -0.4084  0.2570
24532SOL     OW78915   4.172   5.915   5.124  0.2337  0.0953 -0.2214
24532SOL    HW178916   4.132   5.829   5.138 -0.2902  0.4710  0.7008
24532SOL    HW278917   4.261   5.896   5.093  0.7480 -0.8314  1.6810
24533SOL     OW78918   5.185   9.651  10.575 -0.0488  0.6634 -0.2694
24533SOL    HW178919   5.258   9.589  10.584  1.1539  2.0280 -0.3577
24533SOL    HW278920   5.110   9.596  10.551  0.4610 -1.0223  1.7175
24534SOL     OW78921   1.178   0.389  11.166  0.0687 -0.1690 -0.3669
24534SOL    HW178922   1.187   0.449  11.092 -0.4742 -1.2590 -1.3560
24534SOL    HW278923   1.268   0.373  11.195  0.1525  2.2977  0.9361
24535SOL     OW78924   4.218   5.223  11.338 -0.2050 -0.3680  0.8188
24535SOL    HW178925   4.244   5.245  11.248 -1.2444  1.7764  0.9755
24535SOL    HW278926   4.297   5.237  11.390  0.4236 -1.6977  0.2654
24536SOL     OW78927   7.091  10.587   8.779  0.2883 -0.5164 -0.1249
24536SOL    HW178928   7.163  10.618   8.834 -0.4240 -0.0831  0.5876
24536SOL    HW278929   7.045  10.666   8.752 -0.1062 -0.8093 -0.3225
24537SOL     OW78930   1.595   4.189   3.215  0.0100 -0.1107 -0.1935
24537SOL    HW178931   1.631   4.108   3.178  0.5477 -0.0956  0.2870
24537SOL    HW278932   1.664   4.221   3.273 -0.3520  0.4979 -0.0990
24538SOL     OW78933   9.364  11.112   5.771  0.4639 -0.1186  0.1047
24538SOL    HW178934   9.359  11.019   5.746 -1.8386 -0.0666  0.1881
24538SOL    HW278935   9.369  11.111   5.867  0.2618 -0.1709  0.1164
24539SOL     OW78936   1.807   8.199   5.304  0.1653  0.5813 -0.4692
24539SOL    HW178937   1.766   8.127   5.353  1.0689  1.2073  1.2827
24539SOL    HW278938   1.900   8.179   5.307  0.4171  1.8028 -0.0058
24540SOL     OW78939   5.971   2.653   2.397 -0.3620  0.6018 -0.2253
24540SOL    HW178940   5.882   2.669   2.365  0.0070 -1.4791 -2.6075
24540SOL    HW278941   5.959   2.596   2.473 -1.0885 -0.4503 -1.0963
24541SOL     OW78942   0.897  11.547   1.894 -0.2113  0.2199  0.2636
24541SOL    HW178943   0.990  11.530   1.909 -0.7640 -3.3468  0.4113
24541SOL    HW278944   0.892  11.571   1.801  0.8662  0.5868  0.2906
24542SOL     OW78945   5.578   5.625   8.801 -0.5068 -0.0365 -0.2672
24542SOL    HW178946   5.556   5.580   8.720  0.0373  0.0142 -0.4478
24542SOL    HW278947   5.655   5.678   8.779 -0.1806 -0.2469  0.3519
24543SOL     OW78948   8.978   6.179   1.643  0.0957 -0.4870 -0.0104
24543SOL    HW178949   8.944   6.116   1.580 -1.8099 -0.2713  0.7299
24543SOL    HW278950   8.926   6.164   1.722  0.7924  0.8468  0.7340
24544SOL     OW78951   6.483   0.889   6.288  0.1399 -0.2455  0.1158
24544SOL    HW178952   6.420   0.835   6.240  1.6285 -1.4210 -0.5659
24544SOL    HW278953   6.530   0.828   6.345  1.4476  0.4107 -0.2186
24545SOL     OW78954   7.167   6.503   5.071 -0.2241  0.9835  0.3020
24545SOL    HW178955   7.193   6.516   4.980 -0.2986  2.8485  0.4968
24545SOL    HW278956   7.232   6.552   5.122 -0.3175  0.1619  1.2494
24546SOL     OW78957   4.074   4.585  11.192 -0.1022  0.4270  0.2759
24546SOL    HW178958   4.106   4.675  11.198 -0.5410  0.6496 -0.6770
24546SOL    HW278959   4.060   4.570  11.099  2.0208 -1.3614  0.1578
24547SOL     OW78960   8.134   8.045   8.098  0.1562 -0.3355  0.0729
24547SOL    HW178961   8.206   7.982   8.096  1.3637  0.9169  1.7512
24547SOL    HW278962   8.126   8.075   8.007  2.0259 -0.1948 -0.0753
24548SOL     OW78963   2.035   7.634  11.675  0.4875 -0.0654 -0.2636
24548SOL    HW178964   2.013   7.586  11.755 -0.9547  0.3671 -0.3711
24548SOL    HW278965   2.097   7.701  11.703  0.9447 -0.6998  0.2576
24549SOL     OW78966   4.605   7.279   1.393 -0.5870  0.1397  0.1555
24549SOL    HW178967   4.686   7.228   1.397 -0.7433 -0.5360 -3.0882
24549SOL    HW278968   4.634   7.370   1.393 -0.0582  0.0103  1.6164
24550SOL     OW78969   4.667  11.140   8.314 -0.4886  0.5387 -0.1359
24550SOL    HW178970   4.726  11.075   8.276 -0.9356  0.4307 -0.6622
24550SOL    HW278971   4.621  11.093   8.384 -0.2435  0.5156  0.0127
24551SOL     OW78972   7.686  10.630  10.223 -0.3470 -0.1274 -0.5196
24551SOL    HW178973   7.644  10.568  10.163 -0.6709  0.7436 -1.2106
24551SOL    HW278974   7.613  10.673  10.267 -0.1408 -2.0262  1.9067
24552SOL     OW78975   6.921   2.876   5.451 -0.0601  0.6998 -0.1253
24552SOL    HW178976   6.903   2.952   5.508  0.1061  0.4347  0.2889
24552SOL    HW278977   6.991   2.906   5.394  0.2242  0.7624  0.2474
24553SOL     OW78978   7.729   4.342  10.329 -0.1714 -0.0235 -0.0683
24553SOL    HW178979   7.808   4.393  10.348 -1.0005  1.0005  0.8395
24553SOL    HW278980   7.657   4.402  10.351 -1.2024 -0.8580 -1.0547
24554SOL     OW78981   0.246   4.845   0.050  0.1175 -0.1108 -0.2249
24554SOL    HW178982   0.295   4.925   0.069 -1.9321  1.4270 -1.1613
24554SOL    HW278983   0.273   4.821  -0.039  0.3306 -0.1903 -0.1417
24555SOL     OW78984  11.281   3.521   4.193  0.0645 -0.3394 -0.5158
24555SOL    HW178985  11.372   3.551   4.194 -0.0889  0.1637 -0.9868
24555SOL    HW278986  11.276   3.457   4.264  0.6614  0.0019 -0.1550
24556SOL     OW78987   5.200  11.427   9.716  0.4477  0.4281  0.2642
24556SOL    HW178988   5.142  11.477   9.773  0.2279  0.7860 -0.2724
24556SOL    HW278989   5.148  11.408   9.638  0.6288 -0.3690  0.3200
24557SOL     OW78990  11.131   7.397   7.688 -0.3001 -0.1388  0.4777
24557SOL    HW178991  11.216   7.441   7.691 -0.5950  0.5151 -0.2548
24557SOL    HW278992  11.109   7.381   7.780  0.3775  0.1587  0.6973
24558SOL     OW78993   8.094  11.238   7.468 -0.1811 -0.0378 -0.0632
24558SOL    HW178994   8.016  11.210   7.419 -0.2944 -0.2293  0.2205
24558SOL    HW278995   8.083  11.197   7.554  0.3976 -0.3287 -0.1275
24559SOL     OW78996   2.316   9.269   8.937  0.0671  0.2524 -0.6036
24559SOL    HW178997   2.411   9.272   8.927  0.2113 -0.6778  0.2583
24559SOL    HW278998   2.282   9.272   8.848  0.9019  0.7277 -0.9149
24560SOL     OW78999   0.829   4.501   4.106 -0.1070  0.7160 -0.0414
24560SOL    HW179000   0.845   4.586   4.063 -0.3178  0.1075 -1.3843
24560SOL    HW279001   0.917   4.470   4.129  0.1176  0.5579 -1.0537
24561SOL     OW79002   8.663   9.811   0.162  0.2465 -0.4744  0.2662
24561SOL    HW179003   8.678   9.836   0.254  3.5662 -1.0292 -0.0017
24561SOL    HW279004   8.611   9.731   0.168 -1.3447  0.5789  1.5211
24562SOL     OW79005   9.776   4.576   1.353  0.1185 -0.4131 -0.1245
24562SOL    HW179006   9.751   4.655   1.402 -2.3772 -0.2493 -1.4963
24562SOL    HW279007   9.838   4.531   1.410 -2.8686 -0.4526  3.5167
24563SOL     OW79008  10.476   9.236   1.074 -0.1269 -0.1870 -0.2263
24563SOL    HW179009  10.501   9.226   1.166  0.1242 -0.7251 -0.3494
24563SOL    HW279010  10.529   9.308   1.042 -0.1144 -0.0892  0.0141
24564SOL     OW79011   2.904   8.186   2.187 -0.4952 -0.3369 -0.1988
24564SOL    HW179012   2.938   8.143   2.266 -0.9837  1.4838  1.0861
24564SOL    HW279013   2.809   8.183   2.197 -0.6189 -1.3792 -1.4840
24565SOL     OW79014   8.793  10.911   3.712  0.5098 -0.2451 -0.1693
24565SOL    HW179015   8.877  10.867   3.722  0.4905 -0.4231 -0.7747
24565SOL    HW279016   8.760  10.881   3.627 -0.4056 -0.5862  0.2931
24566SOL     OW79017   8.156   8.608   9.312  0.0051  0.3713  0.2547
24566SOL    HW179018   8.195   8.521   9.316  1.0448  0.6588 -2.0640
24566SOL    HW279019   8.198   8.656   9.385 -0.2100 -0.8787  1.2361
24567SOL     OW79020  10.779   0.952   9.047  0.4529  0.5207 -0.3095
24567SOL    HW179021  10.730   0.934   8.967  1.0459  1.6691 -0.9583
24567SOL    HW279022  10.843   1.018   9.022 -0.2272  1.9308  1.4230
24568SOL     OW79023   5.309  11.420   4.269  0.3557  1.4208  0.8286
24568SOL    HW179024   5.303  11.480   4.342  0.9159  1.0575  1.1851
24568SOL    HW279025   5.224  11.426   4.225 -0.3249  0.9789  2.0265
24569SOL     OW79026   3.744   7.782   2.018 -0.3000  0.8320 -0.0832
24569SOL    HW179027   3.672   7.819   2.070  0.9494  3.1569  0.1272
24569SOL    HW279028   3.821   7.830   2.047  0.9914 -0.1019 -1.8071
24570SOL     OW79029   5.500   3.968   7.946  0.5390 -0.3626  0.5235
24570SOL    HW179030   5.503   4.018   8.028 -0.7783 -0.6244  0.7673
24570SOL    HW279031   5.497   4.035   7.877  1.7017 -0.1399  0.6690
24571SOL     OW79032   0.911   1.554   0.252 -0.2858  0.3097  0.2995
24571SOL    HW179033   0.898   1.503   0.172  1.1226  1.0998 -0.4649
24571SOL    HW279034   0.830   1.603   0.262  0.0302  1.2741 -1.4635
24572SOL     OW79035   7.095  11.454   8.250  0.0942 -0.1495  0.6315
24572SOL    HW179036   7.081  11.361   8.271 -1.2398 -0.0785  0.1080
24572SOL    HW279037   7.033  11.473   8.180  1.8916  0.5816 -0.8444
24573SOL     OW79038   4.085   7.266  11.332 -0.1247  0.5333 -0.6610
24573SOL    HW179039   4.121   7.329  11.394 -1.2480  1.5199 -0.9797
24573SOL    HW279040   4.122   7.291  11.248  1.8428 -1.1440 -0.3908
24574SOL     OW79041   6.594   3.752   5.041 -0.4918 -0.1594  0.1552
24574SOL    HW179042   6.603   3.795   4.956 -1.2400  0.7971  0.5435
24574SOL    HW279043   6.527   3.686   5.027 -2.3420  1.5470  0.5393
24575SOL     OW79044   7.012   9.871   7.279 -0.1318  0.1990  0.0748
24575SOL    HW179045   6.982   9.839   7.364 -0.0437  0.0094  0.0346
24575SOL    HW279046   7.062   9.798   7.242 -1.5292 -0.3380 -0.8486
24576SOL     OW79047   8.430  11.473   8.052  0.6899  0.0945  0.5408
24576SOL    HW179048   8.507  11.478   7.995  0.2721  1.2816  0.0355
24576SOL    HW279049   8.388  11.390   8.029  0.7170  0.3972 -0.6556
24577SOL     OW79050   2.187   1.938   7.797  0.2651  0.2994  0.5304
24577SOL    HW179051   2.192   1.916   7.704 -0.2120  1.2393  0.2648
24577SOL    HW279052   2.172   2.033   7.798  0.6719  0.3713  1.5741
24578SOL     OW79053  10.481   9.802   2.246  0.1976  0.9651 -0.1650
24578SOL    HW179054  10.531   9.721   2.262 -0.2531  0.7207  0.0006
24578SOL    HW279055  10.470   9.841   2.333 -0.8644  0.4514 -0.0656
24579SOL     OW79056   5.861   8.332   2.110  0.3013 -0.0742 -0.1398
24579SOL    HW179057   5.829   8.388   2.181 -0.7412  0.3773 -0.9447
24579SOL    HW279058   5.790   8.268   2.096  0.3029  0.1194 -1.0643
24580SOL     OW79059   5.154   4.207   4.820 -0.2652 -0.7374  0.0749
24580SOL    HW179060   5.130   4.216   4.728  0.7273  1.2188 -0.0557
24580SOL    HW279061   5.235   4.156   4.819  0.2347  0.0415 -0.2402
24581SOL     OW79062   9.474   7.384   3.092 -0.2747  0.2034  0.1295
24581SOL    HW179063   9.424   7.379   3.011  1.1137 -0.6774 -0.7184
24581SOL    HW279064   9.466   7.476   3.120  0.3112  0.8651 -1.7432
24582SOL     OW79065   4.384  10.917   8.849 -0.1113 -0.2796 -0.0830
24582SOL    HW179066   4.384  10.996   8.904 -2.1529  0.1570 -0.6208
24582SOL    HW279067   4.449  10.935   8.781  0.7042  0.1870  0.7845
24583SOL     OW79068   5.061   1.232   8.172 -0.1951  0.6455 -0.5467
24583SOL    HW179069   5.106   1.193   8.097  1.1426  1.1415 -0.0322
24583SOL    HW279070   5.125   1.227   8.243 -1.3722  0.3543  0.5222
24584SOL     OW79071  10.676   0.058   7.452 -0.5961 -0.0405  0.4321
24584SOL    HW179072  10.736  -0.016   7.444  1.1759  1.3090  0.4572
24584SOL    HW279073  10.631   0.062   7.368 -0.1597 -0.6843  0.1564
24585SOL     OW79074   2.725   6.439   9.926  0.0663 -0.2361 -0.2811
24585SOL    HW179075   2.649   6.448   9.869 -0.5270 -1.0295  0.3548
24585SOL    HW279076   2.691   6.461  10.014  0.0239 -2.5390  0.3417
24586SOL     OW79077  10.395  10.956   9.356 -0.0711  0.5019 -0.3210
24586SOL    HW179078  10.418  11.048   9.345  0.2959  0.5011  0.4515
24586SOL    HW279079  10.351  10.952   9.441 -1.5875  0.2478 -1.0817
24587SOL     OW79080   1.100   6.129   7.142 -0.5788  0.0542 -0.5960
24587SOL    HW179081   1.148   6.100   7.064 -0.6146  0.7698 -0.8936
24587SOL    HW279082   1.127   6.220   7.154 -2.0253  0.5566 -0.9127
24588SOL     OW79083   2.806   4.350   8.853  0.2791 -0.3262 -0.2387
24588SOL    HW179084   2.725   4.349   8.904 -0.5039  2.1906 -1.2558
24588SOL    HW279085   2.779   4.324   8.765  0.9669 -1.3545 -0.1534
24589SOL     OW79086  10.752  10.734   1.528  0.5561  0.4911 -0.2185
24589SOL    HW179087  10.710  10.648   1.529 -0.4351  0.9429  1.9646
24589SOL    HW279088  10.733  10.769   1.441 -0.9527 -0.5987 -0.3675
24590SOL     OW79089   9.166   1.500   4.447 -0.0724  0.7011 -0.6251
24590SOL    HW179090   9.098   1.465   4.389  0.3926 -0.3669 -0.5448
24590SOL    HW279091   9.123   1.506   4.532 -0.0276 -0.1078 -0.5429
24591SOL     OW79092   7.714   8.683   8.930  0.0683 -0.7970  0.0930
24591SOL    HW179093   7.676   8.771   8.940  1.7407  0.1838 -1.6073
24591SOL    HW279094   7.662   8.628   8.989 -0.9403  1.3453  1.3372
24592SOL     OW79095   3.930   8.970   3.216  0.5192  0.6989 -0.0959
24592SOL    HW179096   4.003   8.973   3.154  0.4670  0.4409 -0.1728
24592SOL    HW279097   3.859   9.017   3.173 -1.4714 -4.0963 -2.8273
24593SOL     OW79098   7.314  11.274  11.554  0.2521  0.3535 -0.0255
24593SOL    HW179099   7.362  11.238  11.479 -0.7121  0.0298 -0.5171
24593SOL    HW279100   7.238  11.216  11.563  0.2687  0.4902  1.1119
24594SOL     OW79101   6.446   1.772   5.614  0.4509  0.5469 -0.1075
24594SOL    HW179102   6.513   1.752   5.679  0.2893 -2.3062 -0.6757
24594SOL    HW279103   6.490   1.829   5.550  1.8635 -0.0261  0.3243
24595SOL     OW79104   0.311   1.310   8.640 -0.4461  0.0392 -0.2885
24595SOL    HW179105   0.317   1.215   8.632 -1.3902  0.0570 -1.6232
24595SOL    HW279106   0.265   1.324   8.723  1.9814 -0.5431  1.2314
24596SOL     OW79107   2.081   0.576   1.088  0.8752  0.2596 -0.2767
24596SOL    HW179108   2.036   0.624   1.018  0.0681  0.9758  0.7013
24596SOL    HW279109   2.169   0.561   1.053  1.2195  2.5979 -0.6011
24597SOL     OW79110   7.039  11.737   9.190  0.1547  0.1125 -0.8618
24597SOL    HW179111   7.036  11.792   9.112 -0.4672 -1.5647 -2.0804
24597SOL    HW279112   7.124  11.693   9.186  0.0507 -0.1090 -0.6852
24598SOL     OW79113   9.122  11.689   0.877  0.1869  0.4211 -0.3364
24598SOL    HW179114   9.048  11.708   0.936  1.2411  0.3499  1.0608
24598SOL    HW279115   9.154  11.776   0.852  1.6221  0.5491  1.6960
24599SOL     OW79116   8.581   8.143   3.778 -0.0042  0.0742  0.3641
24599SOL    HW179117   8.548   8.232   3.769 -0.5375 -0.1456  0.1007
24599SOL    HW279118   8.541   8.095   3.705 -1.5992 -0.9382  1.8257
24600SOL     OW79119   0.035   4.702   4.299  0.0948 -0.0050  0.0946
24600SOL    HW179120  -0.039   4.694   4.359  0.7201 -2.3371  0.6418
24600SOL    HW279121   0.055   4.796   4.299 -2.1180  0.5235  0.7908
24601SOL     OW79122   0.828   6.654   1.455  0.2440  0.5486 -0.2660
24601SOL    HW179123   0.761   6.664   1.523  0.2424 -1.4995  0.1106
24601SOL    HW279124   0.811   6.724   1.393 -0.0410  2.2190  1.6089
24602SOL     OW79125   7.374   1.095   4.494  0.0713  0.3840  0.1074
24602SOL    HW179126   7.324   1.177   4.485 -0.2238  0.1972  0.0365
24602SOL    HW279127   7.323   1.031   4.445  0.3498  0.1770  0.0927
24603SOL     OW79128   2.711   2.867   9.473  0.1098 -0.2658  0.0776
24603SOL    HW179129   2.663   2.873   9.391  0.1253  0.8209  0.1449
24603SOL    HW279130   2.801   2.847   9.447  0.0609 -0.1789 -0.1546
24604SOL     OW79131   1.586   4.988   1.801  0.1965  0.5662 -0.0041
24604SOL    HW179132   1.588   4.956   1.892 -1.6140 -4.2096 -1.3064
24604SOL    HW279133   1.515   5.053   1.800  0.6768  1.1980  2.0623
24605SOL     OW79134   6.165   6.059   0.062 -0.4845  0.4938  0.3517
24605SOL    HW179135   6.134   6.115  -0.010  0.3646  0.1381 -0.3068
24605SOL    HW279136   6.242   6.103   0.096 -0.2010  0.0774  0.2653
24606SOL     OW79137  11.705   2.818   2.666 -0.5701  0.1212 -0.0752
24606SOL    HW179138  11.725   2.724   2.664  0.4746  0.3340 -2.6436
24606SOL    HW279139  11.785   2.858   2.700 -1.3086  0.1024  1.8493
24607SOL     OW79140  11.313   1.756   1.077 -0.5352  0.1022 -0.2568
24607SOL    HW179141  11.403   1.730   1.094 -0.2519  1.7773  1.0768
24607SOL    HW279142  11.261   1.679   1.102  0.3239  0.2737  2.4269
24608SOL     OW79143   5.770   4.817   8.551 -0.1820 -0.4705  0.1279
24608SOL    HW179144   5.749   4.777   8.636 -0.3748 -0.2282  0.1937
24608SOL    HW279145   5.801   4.744   8.498 -0.4927 -0.7032  0.2630
24609SOL     OW79146  10.129   9.418   2.880  0.3175  0.6013  0.3795
24609SOL    HW179147  10.107   9.326   2.898  1.2082  0.2596 -0.1593
24609SOL    HW279148  10.118   9.462   2.963 -0.8882  0.1731  0.4769
24610SOL     OW79149  10.157   2.354   9.550  0.0347  0.0556  0.4039
24610SOL    HW179150  10.154   2.433   9.496  3.2641  1.3216  1.8409
24610SOL    HW279151  10.187   2.285   9.491  1.0666  0.8293  0.0135
24611SOL     OW79152  11.120   1.930   0.390 -0.0121  0.3649  0.4063
24611SOL    HW179153  11.203   1.978   0.398 -0.8266  1.9242 -0.1171
24611SOL    HW279154  11.064   1.987   0.337 -0.8598 -1.4311 -0.7405
24612SOL     OW79155   2.276  10.926   3.382  1.0154 -0.4561  1.0775
24612SOL    HW179156   2.334  10.866   3.431 -0.2276 -1.4194  1.4216
24612SOL    HW279157   2.262  11.000   3.442  0.0974 -1.2808  1.9274
24613SOL     OW79158   9.581   0.312   4.512 -0.7915 -0.3415  0.0537
24613SOL    HW179159   9.541   0.282   4.594 -0.1003 -0.7697  0.2413
24613SOL    HW279160   9.609   0.401   4.530 -1.7159 -0.0095 -0.1015
24614SOL     OW79161   0.008  10.408   8.316  0.0460  0.4596  0.3567
24614SOL    HW179162   0.055  10.325   8.326  1.2975  1.2517  1.4431
24614SOL    HW279163   0.067  10.463   8.265 -0.5504  0.8546  0.0902
24615SOL     OW79164   7.719   4.651   5.464  0.5566 -0.5764 -0.7732
24615SOL    HW179165   7.648   4.595   5.433 -0.2620 -0.0723  0.1321
24615SOL    HW279166   7.798   4.609   5.432 -0.0865 -1.7545 -0.8873
24616SOL     OW79167   9.536   3.993   8.216  0.1356  0.0461 -0.1199
24616SOL    HW179168   9.618   4.015   8.172  0.7993 -1.2965  0.4140
24616SOL    HW279169   9.558   3.992   8.309 -1.1798  2.5165  0.3182
24617SOL     OW79170   1.354   5.993   6.593  0.4168  0.3623 -0.3064
24617SOL    HW179171   1.408   5.923   6.629  0.0812  0.2295 -0.0488
24617SOL    HW279172   1.306   6.027   6.669  0.9593  1.2205 -0.3426
24618SOL     OW79173   4.130   7.470   4.028 -0.1359 -0.3361 -0.3456
24618SOL    HW179174   4.099   7.513   3.948  0.2617  1.1806  0.2657
24618SOL    HW279175   4.188   7.401   3.998  0.3126  0.4582 -1.3708
24619SOL     OW79176   6.986   9.231   1.988 -0.4482 -0.4082 -0.3244
24619SOL    HW179177   7.059   9.171   1.974  0.3261  0.6231 -0.8344
24619SOL    HW279178   6.976   9.235   2.083  0.4511 -0.2303 -0.2263
24620SOL     OW79179   8.411   7.479   8.085  0.2535  0.0745 -0.2285
24620SOL    HW179180   8.328   7.454   8.045  0.4178 -1.4089  0.2820
24620SOL    HW279181   8.465   7.400   8.079 -0.1971 -0.8038  4.1617
24621SOL     OW79182   8.943  11.255   1.153  0.0036 -0.1514 -0.0465
24621SOL    HW179183   8.945  11.161   1.166 -2.7508 -0.1364  1.0099
24621SOL    HW279184   9.020  11.273   1.098  1.3874 -2.7691  0.8560
24622SOL     OW79185   5.915   5.134   0.497  0.2261 -0.2835  0.0337
24622SOL    HW179186   5.847   5.200   0.512 -1.1275 -2.0287  2.3292
24622SOL    HW279187   5.873   5.070   0.440  0.2930 -0.8511  0.6173
24623SOL     OW79188   4.253   3.073  10.436 -0.1576  0.5748 -0.5225
24623SOL    HW179189   4.224   3.156  10.397  1.3995  1.1608 -0.4844
24623SOL    HW279190   4.348   3.078  10.436 -0.0276 -1.2563 -0.5556
24624SOL     OW79191   3.739   8.953   3.842  0.0833 -0.1774 -0.4591
24624SOL    HW179192   3.715   8.871   3.886  1.6090  0.2569  1.3301
24624SOL    HW279193   3.772   8.925   3.757  0.5139 -1.4615  0.0945
24625SOL     OW79194   1.373   0.353   3.112  0.2988 -0.0290  0.5701
24625SOL    HW179195   1.378   0.422   3.178 -1.2397  0.0531  0.6440
24625SOL    HW279196   1.462   0.318   3.107  0.8266  1.1233  1.4253
24626SOL     OW79197  11.091   2.384   9.608  0.0769 -0.4273 -0.1307
24626SOL    HW179198  11.006   2.372   9.566 -0.3214  1.0043  0.1907
24626SOL    HW279199  11.123   2.296   9.624 -1.7996 -1.0050  0.6655
24627SOL     OW79200   9.307  10.726   2.695  0.2952 -0.4130 -0.7051
24627SOL    HW179201   9.308  10.676   2.614  0.5137  1.1567 -1.6970
24627SOL    HW279202   9.271  10.811   2.671  0.4295  0.1045  0.8238
24628SOL     OW79203   5.886   7.445   8.723  0.2396  0.3049 -0.0155
24628SOL    HW179204   5.870   7.529   8.679  1.3767  0.3349 -0.3995
24628SOL    HW279205   5.951   7.401   8.669  0.6577 -0.2435  0.9099
24629SOL     OW79206   4.273   2.759   7.109 -0.2654 -0.3877 -0.2496
24629SOL    HW179207   4.252   2.818   7.036 -2.8778  0.8117  1.3003
24629SOL    HW279208   4.242   2.673   7.080  0.1363 -0.2464 -1.1265
24630SOL     OW79209   0.529  10.605  11.326 -0.0805 -0.1321  0.2509
24630SOL    HW179210   0.560  10.668  11.391  0.0284  1.0621 -0.9170
24630SOL    HW279211   0.570  10.522  11.351  1.3128  0.6636  0.7242
24631SOL     OW79212  10.854   0.626   5.527 -0.3381 -0.4072 -0.1553
24631SOL    HW179213  10.770   0.671   5.535 -0.9610 -1.3767 -0.9425
24631SOL    HW279214  10.878   0.636   5.434  0.1911 -0.5234 -0.0360
24632SOL     OW79215  10.267   7.980  11.174 -0.0919  0.1939  0.1813
24632SOL    HW179216  10.338   7.975  11.239 -0.2592  0.1026  0.3565
24632SOL    HW279217  10.228   7.893  11.174 -0.0677  0.1813 -0.0739
24633SOL     OW79218   9.072   0.379   3.046  0.2719 -0.0390 -0.2828
24633SOL    HW179219   9.072   0.438   2.971  0.6898  0.9212  0.4426
24633SOL    HW279220   8.979   0.367   3.068  0.1495 -0.3472 -0.9554
24634SOL     OW79221   9.711   9.832   8.840 -0.3554 -0.1704  0.3689
24634SOL    HW179222   9.666   9.774   8.901  0.2062 -0.2119  0.7556
24634SOL    HW279223   9.643   9.863   8.780 -1.0001  0.2424  1.2998
24635SOL     OW79224   3.935   9.734   5.856 -0.3752  0.3008  0.4880
24635SOL    HW179225   3.910   9.812   5.906  0.9143  0.2865  1.2068
24635SOL    HW279226   4.028   9.747   5.836 -0.5287 -0.3292 -0.7730
24636SOL     OW79227   2.540   2.060   1.648 -0.1881  0.0755 -0.4078
24636SOL    HW179228   2.450   2.043   1.621 -0.2553 -0.1544 -0.0381
24636SOL    HW279229   2.547   2.155   1.653 -0.5822  0.0731  0.1650
24637SOL     OW79230   7.068   0.956   1.629 -0.1474 -0.2561 -0.7336
24637SOL    HW179231   7.105   0.951   1.717 -0.2414 -0.4850 -0.7080
24637SOL    HW279232   6.977   0.983   1.642 -0.1207 -0.1445 -0.7706
24638SOL     OW79233   8.528   4.228   0.054 -0.0227  0.4908  0.2980
24638SOL    HW179234   8.488   4.268  -0.023  0.9967 -0.4647 -0.7601
24638SOL    HW279235   8.476   4.149   0.069 -0.5049  0.9080  0.8921
24639SOL     OW79236   5.799   3.703   5.538 -0.2033 -0.0786  0.4024
24639SOL    HW179237   5.888   3.678   5.561  0.1019 -0.7156 -1.3062
24639SOL    HW279238   5.801   3.799   5.537  0.4297 -0.0862  0.5228
24640SOL     OW79239   3.733   4.180   1.984 -0.5412 -0.0560 -0.2062
24640SOL    HW179240   3.725   4.110   1.920 -0.6212 -0.1989 -0.0396
24640SOL    HW279241   3.647   4.185   2.026  0.1339 -1.4866  1.4800
24641SOL     OW79242   9.506   8.715   7.999  0.0697  0.3941 -0.0572
24641SOL    HW179243   9.497   8.706   7.904  1.1531  1.0741 -0.2362
24641SOL    HW279244   9.433   8.771   8.024 -1.3095 -1.2440 -0.2001
24642SOL     OW79245   5.651   8.512   6.584  0.3326 -0.5536  0.0068
24642SOL    HW179246   5.697   8.593   6.605  1.7522 -1.1185 -0.7857
24642SOL    HW279247   5.582   8.538   6.523 -0.2418  0.2540  0.9569
24643SOL     OW79248   2.784  10.372   0.416  0.3452 -0.7975  0.0521
24643SOL    HW179249   2.710  10.412   0.371  0.8700 -0.7004 -0.7339
24643SOL    HW279250   2.811  10.437   0.480 -0.1818 -0.7935  0.2761
24644SOL     OW79251   0.071   5.946  10.188 -0.1223 -0.4409  0.4964
24644SOL    HW179252   0.107   5.982  10.269 -0.2798 -0.3864  0.5437
24644SOL    HW279253   0.022   6.019  10.150  0.7732 -0.1640 -0.1548
24645SOL     OW79254   2.491   1.234   8.298  0.1628 -0.1680 -0.4173
24645SOL    HW179255   2.425   1.165   8.294  1.5077 -1.4894 -0.7774
24645SOL    HW279256   2.489   1.274   8.211  1.0953 -1.4615 -1.0620
24646SOL     OW79257   9.129   5.675   6.885 -1.0068  0.3337 -0.1733
24646SOL    HW179258   9.089   5.596   6.921  0.3808  0.5508  2.0730
24646SOL    HW279259   9.087   5.746   6.933 -0.2987  0.7712 -0.1931
24647SOL     OW79260   4.614   7.474  11.025 -0.0933  0.1262  0.0035
24647SOL    HW179261   4.605   7.544  10.960  1.8881 -1.1838 -1.8026
24647SOL    HW279262   4.541   7.488  11.085 -0.4100  3.0653 -0.8970
24648SOL     OW79263   3.096   8.773   7.349  0.7222  0.6350  0.0613
24648SOL    HW179264   3.077   8.804   7.437 -1.9610  0.5114 -0.4167
24648SOL    HW279265   3.100   8.678   7.358 -1.2425  0.4897 -0.1729
24649SOL     OW79266   0.528   1.034   0.194 -0.3327  0.2111  0.0892
24649SOL    HW179267   0.604   1.029   0.252 -0.7157 -0.5037  0.5466
24649SOL    HW279268   0.549   0.974   0.122  0.8638  2.3330 -1.4145
24650SOL     OW79269   6.892   3.982   0.645 -1.0537  0.2295 -0.5130
24650SOL    HW179270   6.974   3.932   0.642 -2.0903 -1.5093 -1.2993
24650SOL    HW279271   6.885   4.021   0.558  0.0268  2.3181  0.2668
24651SOL     OW79272   3.211   9.573   8.449 -0.2634  0.2240  0.1874
24651SOL    HW179273   3.285   9.633   8.450  0.5318 -0.7515  0.6782
24651SOL    HW279274   3.198   9.548   8.540  0.2242 -1.3225 -0.1446
24652SOL     OW79275   0.237   5.223   0.440  0.4145 -0.3019  0.5791
24652SOL    HW179276   0.147   5.207   0.466  0.0155  0.6916 -0.1097
24652SOL    HW279277   0.230   5.283   0.366  1.5386 -1.8997 -0.9217
24653SOL     OW79278   9.914   2.540   6.125  0.0050 -0.1323 -0.0613
24653SOL    HW179279   9.833   2.591   6.125 -1.5994 -2.4815  0.6651
24653SOL    HW279280   9.909   2.488   6.206  2.5178  0.0158  0.2694
24654SOL     OW79281   8.439   5.524   6.693 -0.7917  0.7236  0.0438
24654SOL    HW179282   8.385   5.510   6.771 -0.2090  1.0769  0.5127
24654SOL    HW279283   8.470   5.436   6.670 -1.7358  0.4829 -0.3645
24655SOL     OW79284   9.070   7.002   5.939  0.3053  0.2292  0.1760
24655SOL    HW179285   9.140   6.941   5.960  0.3424  0.4907  0.8267
24655SOL    HW279286   9.023   6.961   5.866  1.2004  0.1040 -0.3389
24656SOL     OW79287   4.133   6.221   4.523 -0.4403 -0.3146  0.0729
24656SOL    HW179288   4.224   6.242   4.547 -0.5617 -2.3437  2.7039
24656SOL    HW279289   4.080   6.275   4.581 -0.9472  0.2829 -0.9187
24657SOL     OW79290   8.787   1.654   4.284 -0.5851  0.2924  0.4746
24657SOL    HW179291   8.806   1.678   4.193 -1.9641  1.4136  0.4355
24657SOL    HW279292   8.861   1.689   4.334 -0.3790  0.6953 -0.0967
24658SOL     OW79293   2.855   5.673   6.171  0.2038  0.3724 -0.1539
24658SOL    HW179294   2.914   5.741   6.136  0.7357 -0.8211 -1.6902
24658SOL    HW279295   2.913   5.601   6.193 -0.4731  0.0127  0.4917
24659SOL     OW79296   0.010   4.988  11.187  0.1463 -0.3434  0.0569
24659SOL    HW179297   0.077   5.056  11.194  0.6537 -0.7804 -0.4800
24659SOL    HW279298   0.028   4.945  11.103  1.8195 -3.2123  1.7044
24660SOL     OW79299  10.812   0.109   0.806 -0.2884 -0.5798 -0.2740
24660SOL    HW179300  10.848   0.022   0.790  2.6240  0.8431 -2.5653
24660SOL    HW279301  10.875   0.151   0.865 -0.1749  0.7731 -1.3024
24661SOL     OW79302   2.280   1.292   3.781 -0.1781 -0.5164  0.0534
24661SOL    HW179303   2.338   1.285   3.857 -0.1634 -0.7672  0.0203
24661SOL    HW279304   2.254   1.202   3.762  0.5013 -0.5509 -0.7691
24662SOL     OW79305   3.141   8.144  11.557  0.5861 -0.3062  0.0456
24662SOL    HW179306   3.154   8.197  11.479 -1.1565 -1.0425 -0.8036
24662SOL    HW279307   3.147   8.054  11.526 -0.4363 -0.6107  0.6794
24663SOL     OW79308   2.909   9.139   9.935 -0.2965  0.3635 -0.2112
24663SOL    HW179309   2.833   9.189   9.906 -1.1535 -1.4233 -1.2574
24663SOL    HW279310   2.873   9.078  10.000  0.3751  0.0011 -0.1755
24664SOL     OW79311   9.383  11.405   0.455 -0.5992  0.1422 -0.0126
24664SOL    HW179312   9.302  11.425   0.408  0.5461 -0.4137 -2.3746
24664SOL    HW279313   9.435  11.353   0.394  1.5246  0.3880  1.4383
24665SOL     OW79314   4.481   2.673   3.201  0.0465  0.0586 -0.0963
24665SOL    HW179315   4.394   2.637   3.218  0.9971 -2.3335  0.1209
24665SOL    HW279316   4.540   2.615   3.250  1.9926 -0.2220 -2.5838
24666SOL     OW79317   5.977   0.729   8.386  0.0048 -0.3418  0.2710
24666SOL    HW179318   5.895   0.703   8.428 -0.3071 -0.2312 -0.2667
24666SOL    HW279319   6.044   0.714   8.453 -0.4141 -0.7165  0.6095
24667SOL     OW79320   7.212   5.128   2.173 -0.2298  0.2932 -0.0136
24667SOL    HW179321   7.159   5.099   2.247 -1.7892  0.5499 -0.9888
24667SOL    HW279322   7.165   5.097   2.096  1.8189 -0.7457 -0.9261
24668SOL     OW79323  10.375   3.775   3.086 -0.2595  0.0939 -0.3311
24668SOL    HW179324  10.333   3.689   3.081 -0.3713  0.2101 -1.5799
24668SOL    HW279325  10.467   3.756   3.101 -0.3996 -0.2166  0.1697
24669SOL     OW79326   4.279   6.874  11.648 -0.0745 -0.5145  0.0263
24669SOL    HW179327   4.273   6.896  11.741  0.5473  1.3883 -0.3398
24669SOL    HW279328   4.214   6.931  11.606  2.4180  1.7007 -1.1161
24670SOL     OW79329   8.848   0.587   5.055  0.0609 -0.2702 -0.2234
24670SOL    HW179330   8.813   0.635   4.980  0.1900  1.9813  1.0781
24670SOL    HW279331   8.781   0.521   5.074 -1.2156  0.8275 -0.7165
24671SOL     OW79332   6.333   2.976   6.420 -0.2660 -0.7325 -0.2089
24671SOL    HW179333   6.259   2.961   6.480 -0.5486  0.2919 -0.2786
24671SOL    HW279334   6.396   2.907   6.442 -0.9624 -1.2269  0.3000
24672SOL     OW79335   9.231   6.617   3.342  0.4835  0.2611  0.1349
24672SOL    HW179336   9.245   6.712   3.336  0.8855  0.2590  0.9382
24672SOL    HW279337   9.181   6.596   3.263  0.7059  1.0812 -0.2433
24673SOL     OW79338  11.316   4.130   6.757  0.2987  0.4750  0.4247
24673SOL    HW179339  11.353   4.187   6.823 -0.6135  0.1273  1.2769
24673SOL    HW279340  11.326   4.177   6.674  0.3638  1.4614  0.9868
24674SOL     OW79341   0.742   9.922   0.195 -0.3191  0.7168  0.2096
24674SOL    HW179342   0.835   9.930   0.217 -0.6705  2.1231  1.3649
24674SOL    HW279343   0.713   9.843   0.240  0.3529  0.1500 -0.3348
24675SOL     OW79344   1.001   3.365   2.902 -0.2908 -0.0647 -0.5262
24675SOL    HW179345   0.925   3.396   2.853 -0.7093  1.1032  0.8026
24675SOL    HW279346   0.977   3.375   2.994  1.7643  1.2128 -0.0431
24676SOL     OW79347   1.798  10.636   4.695 -0.3497  0.3888 -0.6541
24676SOL    HW179348   1.811  10.542   4.679 -0.8825 -0.0946  1.5002
24676SOL    HW279349   1.763  10.641   4.783  2.0652  2.7906  0.2959
24677SOL     OW79350  11.041   1.894   4.092 -0.7160 -0.3337  0.7201
24677SOL    HW179351  11.014   1.858   4.008  0.9208  1.8380 -0.8652
24677SOL    HW279352  11.123   1.850   4.112  0.0452  0.7088 -0.0024
24678SOL     OW79353  10.409   3.937   6.841 -0.0922 -0.2996  0.1958
24678SOL    HW179354  10.497   3.942   6.805  0.0963 -2.4670  0.2311
24678SOL    HW279355  10.357   3.995   6.785  1.4660  1.7791  0.7567
24679SOL     OW79356   1.561   4.646   0.178  0.1842  0.9782  0.5531
24679SOL    HW179357   1.511   4.701   0.238  0.6656  2.0644 -0.0215
24679SOL    HW279358   1.629   4.703   0.143  1.9698 -0.4963  1.4454
24680SOL     OW79359   2.359   8.144   3.298 -0.0870 -0.4183 -0.1099
24680SOL    HW179360   2.275   8.135   3.342  0.2009  0.2870  0.5829
24680SOL    HW279361   2.416   8.188   3.361  0.6731 -0.4675 -0.7405
24681SOL     OW79362   5.002   3.024   4.083  0.1120 -0.3410  0.6767
24681SOL    HW179363   5.073   2.962   4.064 -0.4806 -1.7895  2.7868
24681SOL    HW279364   4.926   2.969   4.102 -1.5012  1.1667 -1.0066
24682SOL     OW79365   8.837   9.904   6.850  0.8939  0.2536  0.1481
24682SOL    HW179366   8.905   9.967   6.871  0.5382  0.4026  0.9228
24682SOL    HW279367   8.763   9.929   6.906  0.9735 -1.2347  1.0059
24683SOL     OW79368   9.052   0.937   1.223  0.3870  0.0474  0.3241
24683SOL    HW179369   9.087   1.004   1.282 -0.6619  1.2785 -0.4157
24683SOL    HW279370   9.069   0.971   1.135 -1.2460 -0.0558 -0.0567
24684SOL     OW79371   8.188   5.127   5.546  0.1708 -0.3140  0.0246
24684SOL    HW179372   8.247   5.053   5.545  1.0001  0.2964  1.0481
24684SOL    HW279373   8.160   5.134   5.638 -1.7450 -0.7711 -0.4762
24685SOL     OW79374   3.188   3.854   5.784 -0.7190 -0.5702 -0.4138
24685SOL    HW179375   3.228   3.768   5.771  0.1176 -0.5432  1.5722
24685SOL    HW279376   3.143   3.847   5.868 -2.0842  0.4471 -1.0241
24686SOL     OW79377  10.726   4.423   6.148  0.2925 -0.2359 -0.3327
24686SOL    HW179378  10.745   4.348   6.092  1.9278 -1.5111  1.7788
24686SOL    HW279379  10.654   4.394   6.204 -0.0583  0.3179 -0.4897
24687SOL     OW79380  10.468  11.697   0.044  0.5308 -0.1759  0.4082
24687SOL    HW179381  10.482  11.712  -0.049  0.6951 -0.1131  0.4430
24687SOL    HW279382  10.434  11.781   0.077  1.5029  0.1534  0.6139
24688SOL     OW79383   1.117   7.116  10.955  0.0422  0.2003  0.1896
24688SOL    HW179384   1.021   7.120  10.955 -0.0361 -0.9401 -1.5644
24688SOL    HW279385   1.140   7.087  11.044 -1.3438 -1.2838  0.0978
24689SOL     OW79386  10.322   3.502   3.110  0.5050 -0.4808 -0.2890
24689SOL    HW179387  10.276   3.453   3.178  0.6674 -0.1873  0.0289
24689SOL    HW279388  10.297   3.458   3.028 -0.3531 -0.3063 -0.1213
24690SOL     OW79389   8.197   3.929   0.856  0.1736  0.5107  0.0675
24690SOL    HW179390   8.189   3.905   0.948  1.0873  3.3933  1.0213
24690SOL    HW279391   8.292   3.931   0.840  0.0410  0.7061 -0.7438
24691SOL     OW79392   7.510   9.976  10.963  0.1006 -0.1667  0.3439
24691SOL    HW179393   7.452   9.980  10.887  0.8107 -1.3748 -0.2926
24691SOL    HW279394   7.586   9.928  10.933  0.9381  0.3786  1.4988
24692SOL     OW79395   2.012  10.855   7.520  0.1845 -0.5192  0.4990
24692SOL    HW179396   2.004  10.761   7.504  0.0330 -0.1088 -2.4903
24692SOL    HW279397   2.104  10.875   7.503 -0.1310  0.0851 -0.6234
24693SOL     OW79398   2.089   5.026   2.853 -0.7679  0.4377 -0.4278
24693SOL    HW179399   2.111   4.959   2.918 -2.3658 -0.5362 -0.8325
24693SOL    HW279400   1.996   5.013   2.836 -0.9001  2.1644 -1.2431
24694SOL     OW79401   7.530   0.896   8.825 -0.1094 -0.3786 -0.6763
24694SOL    HW179402   7.585   0.975   8.823 -0.9458  0.2131 -0.5372
24694SOL    HW279403   7.514   0.881   8.919 -0.0779 -0.6341 -0.7114
24695SOL     OW79404   2.939  10.169   7.372  0.5403  0.1954 -0.0036
24695SOL    HW179405   2.935  10.165   7.276 -0.7394 -1.0129  0.0797
24695SOL    HW279406   3.016  10.116   7.394  1.9362  1.9243 -0.3896
24696SOL     OW79407   7.269   6.859   2.164 -0.3756 -0.0213  0.0744
24696SOL    HW179408   7.180   6.850   2.199 -0.9460  0.4257 -1.1734
24696SOL    HW279409   7.291   6.771   2.133 -0.2048 -0.2280  0.7696
24697SOL     OW79410   4.848   1.940   3.015  0.1543  0.3413 -0.3796
24697SOL    HW179411   4.917   1.997   2.980 -0.2008  1.2825  0.4000
24697SOL    HW279412   4.889   1.854   3.020  1.7214  1.1033  1.1683
24698SOL     OW79413   8.940  10.611   6.896 -0.1741 -0.1169 -0.2126
24698SOL    HW179414   8.980  10.665   6.964 -0.0059 -0.6023  0.0780
24698SOL    HW279415   8.863  10.661   6.869  0.4593  0.6970 -0.5806
24699SOL     OW79416   8.073   9.966  10.602  0.2388 -0.3571 -0.1371
24699SOL    HW179417   8.131   9.890  10.608  1.5613  0.5842 -0.4074
24699SOL    HW279418   8.117  10.034  10.653 -0.0953  0.6983 -1.1882
24700SOL     OW79419  10.529   8.496   9.590 -0.3434 -0.5770  0.3787
24700SOL    HW179420  10.593   8.512   9.658 -1.9429  0.4470  1.7357
24700SOL    HW279421  10.485   8.415   9.616  1.2174 -2.0496 -1.2734
24701SOL     OW79422   0.984  10.219   9.552  0.4959 -0.0841 -0.5015
24701SOL    HW179423   1.065  10.270   9.557  0.1111  0.4808  0.2901
24701SOL    HW279424   0.915  10.285   9.553 -0.0239 -0.6266  0.7932
24702SOL     OW79425   5.530   8.291   3.846 -0.1484  0.0185 -0.2248
24702SOL    HW179426   5.457   8.230   3.832 -0.4064  0.3177 -0.2020
24702SOL    HW279427   5.525   8.352   3.772  0.5851 -0.4503 -0.6684
24703SOL     OW79428  10.845  11.767   8.948 -0.6845 -0.1402  0.0547
24703SOL    HW179429  10.817  11.779   8.858 -0.3809  0.3568  0.0221
24703SOL    HW279430  10.783  11.819   9.000  0.8330  1.9911 -0.1135
24704SOL     OW79431  11.274   9.319  10.707  0.1434  0.1774 -0.3016
24704SOL    HW179432  11.292   9.340  10.615 -0.0344  0.9190 -0.1690
24704SOL    HW279433  11.239   9.230  10.704 -1.2798  0.7311 -1.1231
24705SOL     OW79434   4.953  11.065   2.474  0.5553  0.2718 -0.1402
24705SOL    HW179435   4.981  10.983   2.433 -2.2604  0.1793 -2.1732
24705SOL    HW279436   4.979  11.133   2.412  1.2365  0.7636  0.6610
24706SOL     OW79437   0.990   6.291   0.273  0.3544 -0.5683  0.1744
24706SOL    HW179438   1.003   6.353   0.345  1.3297  0.2059 -0.6483
24706SOL    HW279439   0.909   6.318   0.231  0.9639  0.4156 -0.4123
24707SOL     OW79440   4.207   9.337   8.301  0.4422 -0.6454  0.1246
24707SOL    HW179441   4.263   9.372   8.371 -1.3644 -0.1934  1.4289
24707SOL    HW279442   4.239   9.248   8.286  3.6328  0.6062 -1.5978
24708SOL     OW79443   7.225   5.976   8.045 -0.7005  0.4023  0.1656
24708SOL    HW179444   7.150   5.947   7.994 -0.3869  0.4472 -0.3289
24708SOL    HW279445   7.187   6.029   8.115 -1.1850 -0.2264  0.3874
24709SOL     OW79446   3.517   3.719   2.879  0.1377  0.6602  0.2286
24709SOL    HW179447   3.612   3.712   2.868  0.3266  1.1550  1.4667
24709SOL    HW279448   3.482   3.644   2.830  1.1387  0.6154 -0.4505
24710SOL     OW79449   8.728   9.536  11.396  0.3615  0.3315 -0.0531
24710SOL    HW179450   8.804   9.519  11.340 -0.0094  0.4128 -0.5888
24710SOL    HW279451   8.681   9.452  11.399  1.1392 -0.0828  1.3229
24711SOL     OW79452   7.211   1.750   2.805  0.2135 -0.3764 -0.0260
24711SOL    HW179453   7.292   1.770   2.758  0.2353 -1.1902 -0.3459
24711SOL    HW279454   7.142   1.753   2.738 -0.1501  1.0693  0.3788
24712SOL     OW79455   7.476   2.382   8.330  0.4015 -0.0744 -0.2967
24712SOL    HW179456   7.390   2.359   8.294  0.9965 -2.1125 -0.5499
24712SOL    HW279457   7.456   2.423   8.415 -0.8252 -0.3040 -0.4508
24713SOL     OW79458   8.351  11.234   5.548 -0.9030 -0.4557 -0.1981
24713SOL    HW179459   8.405  11.220   5.626 -1.0755  1.4139  0.3164
24713SOL    HW279460   8.261  11.235   5.582 -0.9061  1.6282 -0.1753
24714SOL     OW79461   6.267   5.570   5.264  0.0221  0.3484  0.3555
24714SOL    HW179462   6.284   5.608   5.178  0.1117 -0.3480  0.0585
24714SOL    HW279463   6.172   5.558   5.266 -0.1406  1.5989  0.8897
24715SOL     OW79464   2.050   8.584   2.605 -0.1777 -0.0832  0.0159
24715SOL    HW179465   2.048   8.605   2.698  1.0848  0.7854 -0.1175
24715SOL    HW279466   2.115   8.515   2.597 -0.4898 -0.3554 -0.1950
24716SOL     OW79467   4.187   2.209  11.812 -0.3332  0.3352  0.0126
24716SOL    HW179468   4.277   2.241  11.819  0.1940 -1.1140  0.3327
24716SOL    HW279469   4.193   2.117  11.839 -2.1746  0.5885  1.4356
24717SOL     OW79470   3.140  10.170   8.966  0.1987  0.0899  0.3205
24717SOL    HW179471   3.218  10.201   8.921 -0.5053  1.8757  0.2789
24717SOL    HW279472   3.174  10.120   9.041  1.3571 -0.1280 -0.3232
24718SOL     OW79473   2.753  10.192   3.190 -0.0354 -0.2408 -0.2392
24718SOL    HW179474   2.761  10.116   3.248  0.0970 -0.3081 -0.3462
24718SOL    HW279475   2.829  10.186   3.132  0.2781  0.2790  0.1066
24719SOL     OW79476   1.471   2.479   3.522 -0.2788  0.1585  0.0036
24719SOL    HW179477   1.463   2.386   3.543  0.3675  0.3625  1.1980
24719SOL    HW279478   1.431   2.524   3.597  0.4781  0.8683 -0.0089
24720SOL     OW79479   8.382   7.015   5.875 -0.2070 -0.2132 -0.0910
24720SOL    HW179480   8.302   7.049   5.915  0.6751  1.3861  0.3903
24720SOL    HW279481   8.356   6.994   5.785 -0.8741  1.6168 -0.3868
24721SOL     OW79482   3.506   7.138   0.002 -0.4576 -0.4303  0.1078
24721SOL    HW179483   3.511   7.055  -0.047 -1.5762 -0.4414 -0.0120
24721SOL    HW279484   3.479   7.202  -0.063 -0.2683 -0.0963  0.3549
24722SOL     OW79485   2.840   3.818  10.641  0.1262  0.0188  0.4145
24722SOL    HW179486   2.888   3.880  10.696 -0.6044  0.2351  0.8289
24722SOL    HW279487   2.811   3.870  10.567 -1.2397  0.4182  1.1909
24723SOL     OW79488   9.477   1.627   5.842  0.2302  0.1164 -0.3675
24723SOL    HW179489   9.444   1.537   5.843  2.4845 -0.7893  1.3200
24723SOL    HW279490   9.521   1.638   5.926  2.9009  1.6240 -1.8177
24724SOL     OW79491   8.715  11.438   9.638  0.0501  0.2952  0.2826
24724SOL    HW179492   8.653  11.397   9.698 -0.4728  0.0285 -0.4225
24724SOL    HW279493   8.696  11.399   9.553 -0.3529  1.8591 -0.3911
24725SOL     OW79494   3.217   4.205   5.471 -0.4365 -0.2289 -0.2591
24725SOL    HW179495   3.252   4.131   5.521  0.2691  0.1260 -0.2114
24725SOL    HW279496   3.124   4.188   5.465 -0.9033  0.6165  2.7710
24726SOL     OW79497   4.733   9.658   6.328  0.7582 -0.1493 -0.5923
24726SOL    HW179498   4.820   9.685   6.296 -0.2704  2.2822 -1.5971
24726SOL    HW279499   4.715   9.717   6.401 -0.6398  0.4329 -1.3676
24727SOL     OW79500   9.140   9.510   7.716 -0.4266 -0.2355  0.1623
24727SOL    HW179501   9.225   9.468   7.726  0.0536  0.8888  0.9245
24727SOL    HW279502   9.140   9.542   7.626  0.0483 -0.0588  0.2211
24728SOL     OW79503   3.361   8.305   5.057 -0.1377  0.0810 -0.1719
24728SOL    HW179504   3.376   8.241   4.988  3.9947 -0.9634  1.3938
24728SOL    HW279505   3.380   8.389   5.017  1.2998 -0.4229 -0.5802
24729SOL     OW79506  11.678   9.068   1.063  0.5259  0.3829  0.2583
24729SOL    HW179507  11.655   9.083   0.972  0.5830  2.4543  0.5259
24729SOL    HW279508  11.707   8.977   1.067 -0.5375 -0.0624 -1.5492
24730SOL     OW79509   5.647   8.659   8.272  0.5423 -0.8185  0.1009
24730SOL    HW179510   5.631   8.613   8.190  1.2813  1.7117 -1.5765
24730SOL    HW279511   5.739   8.639   8.293  1.2007  0.6462 -1.2089
24731SOL     OW79512   7.806   7.424   0.901  0.0821  0.4156  0.6651
24731SOL    HW179513   7.772   7.436   0.812 -1.2205 -0.9026  0.9393
24731SOL    HW279514   7.730   7.394   0.951  1.0952 -0.1101  1.9200
24732SOL     OW79515   7.540   2.447   0.143  0.2519  1.2113  0.7240
24732SOL    HW179516   7.508   2.524   0.096  0.2302 -0.0287 -1.4483
24732SOL    HW279517   7.608   2.410   0.086 -1.8778 -2.0984 -0.0207
24733SOL     OW79518   1.063   8.509   6.980  0.5539  0.1408 -0.0392
24733SOL    HW179519   0.986   8.565   6.975 -0.5088 -1.1967  0.8173
24733SOL    HW279520   1.127   8.552   6.923 -0.5870  1.6111 -0.2768
24734SOL     OW79521   6.106   0.864   6.149 -0.5441  0.1327 -0.8570
24734SOL    HW179522   6.052   0.812   6.208 -1.0587 -0.5474 -1.8859
24734SOL    HW279523   6.178   0.806   6.124  0.2694  0.7799 -0.0820
24735SOL     OW79524   9.704   8.440   6.351  0.4167 -0.0659 -0.0017
24735SOL    HW179525   9.675   8.350   6.340  0.9908 -0.4255  1.2172
24735SOL    HW279526   9.628   8.486   6.386  0.6825 -0.5492  1.2727
24736SOL     OW79527  11.414   9.548  10.157 -0.2275 -1.1996  0.5393
24736SOL    HW179528  11.343   9.607  10.132 -0.9793 -2.4508 -0.4197
24736SOL    HW279529  11.493   9.590  10.123 -0.4694  0.2606  1.7035
24737SOL     OW79530   5.238   7.726   2.055 -0.1781 -0.1515  0.2319
24737SOL    HW179531   5.330   7.735   2.080 -0.0737  0.4674 -0.3710
24737SOL    HW279532   5.240   7.684   1.969 -0.4424  0.4012 -0.0449
24738SOL     OW79533   0.505  10.522   7.790  0.4061 -0.8078  0.1088
24738SOL    HW179534   0.523  10.476   7.708 -1.3615 -0.2562 -0.6581
24738SOL    HW279535   0.452  10.598   7.763  1.1514  0.2874  1.5972
24739SOL     OW79536  11.529   8.879   0.595  0.0150 -0.5800  0.2046
24739SOL    HW179537  11.474   8.807   0.625 -2.1269  0.4427 -0.9954
24739SOL    HW279538  11.586   8.840   0.529 -0.8656 -1.2797 -0.1668
24740SOL     OW79539   9.852   9.378   1.980 -0.2983  0.1518 -0.3994
24740SOL    HW179540   9.787   9.436   1.941  0.5782  1.9294  0.6598
24740SOL    HW279541   9.854   9.403   2.073  1.9346  0.2603 -0.4186
24741SOL     OW79542   4.468   0.269   9.486  0.1548 -0.0353 -0.3159
24741SOL    HW179543   4.454   0.244   9.577 -1.7875  2.2499  0.1036
24741SOL    HW279544   4.563   0.267   9.475  0.4157 -0.4579  1.7054
24742SOL     OW79545   4.356  11.307   4.939  0.3609 -0.3408 -0.4769
24742SOL    HW179546   4.435  11.303   4.994 -1.1401  1.0408  1.9315
24742SOL    HW279547   4.314  11.390   4.962 -1.6698 -0.8895 -1.9088
24743SOL     OW79548   4.684   4.496  10.274 -0.1821  0.1400  0.5262
24743SOL    HW179549   4.596   4.463  10.295  0.0360  0.4674  2.1201
24743SOL    HW279550   4.686   4.584  10.312 -0.5727  1.9360 -3.1933
24744SOL     OW79551   9.966  10.370   6.524  0.2574 -0.5126 -0.2239
24744SOL    HW179552   9.926  10.284   6.518 -0.9232  0.0951 -1.8769
24744SOL    HW279553   9.920  10.414   6.596  2.1803 -1.8342  1.9561
24745SOL     OW79554   0.200   5.750   4.780  0.4630 -0.2822 -0.6814
24745SOL    HW179555   0.176   5.843   4.788 -0.7496 -0.7260  1.7324
24745SOL    HW279556   0.291   5.746   4.808  0.0055 -0.0107  0.9266
24746SOL     OW79557   8.741   6.481   7.475  0.2316  0.3148  0.1350
24746SOL    HW179558   8.806   6.449   7.537  0.5032  1.9005  0.7070
24746SOL    HW279559   8.672   6.415   7.476  2.0963 -1.7922 -1.0209
24747SOL     OW79560   4.498   4.901   8.754  0.1829  0.6373 -0.1967
24747SOL    HW179561   4.546   4.984   8.760 -1.7561  1.8180  0.0110
24747SOL    HW279562   4.520   4.855   8.835 -1.1832  2.4280  1.3024
24748SOL     OW79563   4.120  11.117   8.527  0.1431 -0.0204 -0.5878
24748SOL    HW179564   4.160  11.125   8.614  1.5639  2.4643 -1.3572
24748SOL    HW279565   4.187  11.074   8.474 -0.3682 -0.7142 -0.6838
24749SOL     OW79566   5.993   3.347   6.369 -0.0461 -0.1457  0.0953
24749SOL    HW179567   6.024   3.288   6.437  1.0754  0.0797 -0.1998
24749SOL    HW279568   5.969   3.290   6.296  0.6082 -0.2801 -0.0240
24750SOL     OW79569   9.666   2.242   9.625  0.3621 -0.0063 -0.2516
24750SOL    HW179570   9.610   2.210   9.696 -0.1619  0.0909 -0.6151
24750SOL    HW279571   9.726   2.171   9.608 -0.3377 -0.5341 -0.5741
24751SOL     OW79572   1.487   2.630  11.595 -0.2229  0.4674 -0.1824
24751SOL    HW179573   1.457   2.548  11.634  0.8205 -0.6647 -1.6609
24751SOL    HW279574   1.451   2.629  11.507  0.6080  1.1246 -0.5372
24752SOL     OW79575   4.281   4.126   8.999  0.0522  0.1365 -0.0804
24752SOL    HW179576   4.214   4.108   9.065 -1.1167  2.6437 -0.4495
24752SOL    HW279577   4.239   4.103   8.916  0.3064  0.0539 -0.1867
24753SOL     OW79578  10.463   9.896   9.744 -0.2067 -0.2877 -0.1586
24753SOL    HW179579  10.520   9.824   9.770  0.8761  0.3951 -0.5592
24753SOL    HW279580  10.465   9.957   9.818  2.5078  1.4361 -1.4893
24754SOL     OW79581   9.055   3.399   3.038 -0.8124 -0.8769  0.3569
24754SOL    HW179582   8.988   3.332   3.025  0.6836 -2.4199  0.0783
24754SOL    HW279583   9.124   3.376   2.974  0.1242  0.4363  0.8412
24755SOL     OW79584   6.053   8.842   8.382  0.1083 -0.1797  0.8365
24755SOL    HW179585   6.028   8.763   8.430 -0.5290  0.2692  1.2509
24755SOL    HW279586   5.975   8.896   8.382 -0.2666 -0.5882 -1.6443
24756SOL     OW79587   0.447   4.798   8.228  0.2562  0.1443  0.5628
24756SOL    HW179588   0.376   4.758   8.278 -0.2778  0.7710  0.3231
24756SOL    HW279589   0.474   4.730   8.166 -0.4529  0.0484  0.3445
24757SOL     OW79590   6.556   0.987   2.998  0.2578  0.0628 -0.4635
24757SOL    HW179591   6.504   1.060   3.031 -4.4397 -2.9686 -0.1969
24757SOL    HW279592   6.544   0.991   2.903  0.4742 -0.0274 -0.4930
24758SOL     OW79593   1.666   9.882   6.773 -0.0974 -0.2388 -0.2259
24758SOL    HW179594   1.618   9.811   6.729 -0.2454 -0.1795 -0.1635
24758SOL    HW279595   1.702   9.841   6.852 -0.5457 -0.1490  0.0360
24759SOL     OW79596   9.166   7.182   7.268  0.0859 -0.1980  0.2238
24759SOL    HW179597   9.182   7.121   7.196 -0.5276 -0.0917 -0.0062
24759SOL    HW279598   9.215   7.145   7.342  0.2465 -0.6171 -0.0875
24760SOL     OW79599   2.059   0.899   2.550 -0.0172  0.0062  0.6232
24760SOL    HW179600   1.993   0.960   2.583  0.5691  1.1727 -0.2826
24760SOL    HW279601   2.108   0.949   2.485  0.4498 -1.4515 -0.2122
24761SOL     OW79602  11.120   0.908   2.321 -0.3650 -0.0600  0.0714
24761SOL    HW179603  11.056   0.976   2.303  0.5734  1.2631  1.4447
24761SOL    HW279604  11.195   0.930   2.265 -0.7108 -1.0657 -0.8397
24762SOL     OW79605   1.176   1.745   9.605  0.0214 -0.1098  0.6987
24762SOL    HW179606   1.213   1.797   9.677  0.1316  0.0926  0.4972
24762SOL    HW279607   1.253   1.711   9.559 -0.0415 -0.9482  1.1755
24763SOL     OW79608   7.024   2.567   7.710  0.2970 -0.2869  0.4359
24763SOL    HW179609   6.996   2.570   7.801  0.9991  1.5060  0.6390
24763SOL    HW279610   7.083   2.642   7.701 -0.3041 -0.0051 -1.6574
24764SOL     OW79611   6.212   3.525   7.772 -0.4126 -0.4755  0.2292
24764SOL    HW179612   6.211   3.506   7.865 -1.7896  1.5375  0.6892
24764SOL    HW279613   6.261   3.607   7.764 -0.7199 -0.3717 -0.7451
24765SOL     OW79614   0.886   7.618   7.280  0.2908  0.3558 -0.3185
24765SOL    HW179615   0.981   7.615   7.288  0.1871 -0.5383  0.8300
24765SOL    HW279616   0.854   7.555   7.345 -0.9894 -2.0161 -3.0286
24766SOL     OW79617   9.338  11.300  10.494 -0.0029  0.6725  0.2520
24766SOL    HW179618   9.297  11.358  10.431 -0.8522  0.8396  0.9356
24766SOL    HW279619   9.422  11.276  10.454  0.8124  3.0853  0.3459
24767SOL     OW79620   2.368   3.733   8.020  0.0430  0.1498 -0.5166
24767SOL    HW179621   2.372   3.826   8.044 -1.6215  0.2385 -0.4521
24767SOL    HW279622   2.403   3.729   7.932  4.2332  0.1519  0.9497
24768SOL     OW79623   7.461   8.478   9.351 -0.1931 -0.1807  0.4643
24768SOL    HW179624   7.525   8.414   9.380  0.9400  1.6468  2.3068
24768SOL    HW279625   7.386   8.466   9.410 -1.0292 -1.3891 -0.7904
24769SOL     OW79626   7.993   7.704   0.771  0.0474  0.6872  0.0021
24769SOL    HW179627   7.983   7.691   0.677  1.8723 -0.4528 -0.0920
24769SOL    HW279628   7.917   7.659   0.810 -0.8753  1.4199 -0.8975
24770SOL     OW79629   6.264   6.142  11.392 -0.0722  0.0959 -0.0028
24770SOL    HW179630   6.272   6.230  11.355 -0.4170 -0.4738 -1.4796
24770SOL    HW279631   6.354   6.107  11.390 -0.3172 -0.5702 -2.0304
24771SOL     OW79632   9.509   4.437   9.796  0.1543 -0.4563 -0.1273
24771SOL    HW179633   9.447   4.376   9.837 -1.0274  1.3978  0.9479
24771SOL    HW279634   9.576   4.451   9.862  0.1758 -0.2259 -0.1976
24772SOL     OW79635   9.449   8.882   3.656  0.0605  0.6404 -0.1199
24772SOL    HW179636   9.433   8.976   3.648  0.8284  0.7809 -0.0213
24772SOL    HW279637   9.365   8.846   3.687 -0.0066  1.3900  0.5903
24773SOL     OW79638   4.401   4.927   0.553 -0.0374  0.6336  0.2427
24773SOL    HW179639   4.372   4.972   0.633 -0.3292 -1.2954  1.2727
24773SOL    HW279640   4.326   4.931   0.494 -0.4449  0.5259  0.7531
24774SOL     OW79641   4.241   5.307  11.699  0.2658 -0.4258 -0.3988
24774SOL    HW179642   4.321   5.254  11.698 -0.0130 -0.8561 -0.8315
24774SOL    HW279643   4.267   5.390  11.660  0.7309 -0.2075  0.3678
24775SOL     OW79644   1.825  10.892   9.980  0.0917 -0.4093  0.4354
24775SOL    HW179645   1.820  10.799   9.957 -0.3312 -0.8316  2.1038
24775SOL    HW279646   1.916  10.907  10.003  0.2589 -0.2756 -0.2750
24776SOL     OW79647   2.381   1.378   2.451  0.4327  0.8086  0.0720
24776SOL    HW179648   2.309   1.354   2.510  0.3674  0.3468 -0.1934
24776SOL    HW279649   2.382   1.309   2.385  2.4394 -0.3737  1.2274
24777SOL     OW79650  10.880   5.866   7.998  0.2263 -0.1954  0.1979
24777SOL    HW179651  10.972   5.883   7.975  0.2231 -0.2143  0.1692
24777SOL    HW279652  10.830   5.900   7.924  0.2312 -0.5350  0.0380
24778SOL     OW79653   8.981   7.455   6.891  0.4696  0.5012  0.0773
24778SOL    HW179654   8.987   7.369   6.932 -1.0967  1.1382  1.7895
24778SOL    HW279655   8.960   7.437   6.799  1.2145 -0.9315  0.1605
24779SOL     OW79656  10.462   2.565   3.714  0.1108 -0.2939  0.1221
24779SOL    HW179657  10.423   2.610   3.789  3.3410  3.6058 -0.2610
24779SOL    HW279658  10.403   2.584   3.641 -0.4787  0.0876  0.6867
24780SOL     OW79659   7.554   6.351   9.011 -0.8347  0.0178 -0.0614
24780SOL    HW179660   7.478   6.351   9.069 -0.2095 -0.9997  0.7942
24780SOL    HW279661   7.559   6.262   8.978  0.2796 -0.0750  0.3100
24781SOL     OW79662   2.601  10.861   4.247 -0.2180 -0.1940 -0.3988
24781SOL    HW179663   2.659  10.879   4.172 -1.2418 -0.5727 -1.3135
24781SOL    HW279664   2.539  10.796   4.214 -1.0533  0.0630  0.6075
24782SOL     OW79665   5.188  11.105   4.123  0.6371  0.2897  0.1109
24782SOL    HW179666   5.148  11.189   4.144  1.0671  0.1639  1.5603
24782SOL    HW279667   5.194  11.059   4.207  1.5442 -0.6852 -0.4522
24783SOL     OW79668   0.083  10.782   4.851  0.2568 -0.1132  0.2172
24783SOL    HW179669   0.016  10.776   4.783 -0.7523  0.8733  1.0993
24783SOL    HW279670   0.037  10.811   4.929  1.7057  0.5900  0.8559
24784SOL     OW79671  10.449   7.414  10.818  0.8696  0.5133 -0.2544
24784SOL    HW179672  10.523   7.367  10.780 -1.1391 -2.3853 -0.9879
24784SOL    HW279673  10.435   7.488  10.759  2.2554  0.2659 -0.9324
24785SOL     OW79674  11.026   1.455   2.321 -0.5641 -0.1453 -0.2115
24785SOL    HW179675  11.055   1.513   2.391  0.6957 -0.4861 -0.4358
24785SOL    HW279676  10.961   1.507   2.273  0.0989  0.8665 -0.0437
24786SOL     OW79677   5.967   1.734   8.830 -0.0309  0.3454 -0.3314
24786SOL    HW179678   5.887   1.698   8.869  0.3520 -0.9414 -0.6840
24786SOL    HW279679   5.959   1.829   8.840 -1.4270  0.2059 -0.0299
24787SOL     OW79680   1.965  11.053   4.434 -0.1527  0.5969  0.4496
24787SOL    HW179681   1.905  11.104   4.380  1.0665  1.6433  0.0289
24787SOL    HW279682   1.935  11.068   4.524 -0.9190  0.5574  0.2093
24788SOL     OW79683   4.469   8.617   9.202  0.0106  0.3070  0.1779
24788SOL    HW179684   4.481   8.529   9.237  1.4396  1.7176  3.6947
24788SOL    HW279685   4.383   8.645   9.235 -0.2938  0.4054 -0.6539
24789SOL     OW79686   6.227   0.640   1.163 -0.7094  0.4357  0.0411
24789SOL    HW179687   6.200   0.667   1.076  0.7696 -1.1131 -0.9743
24789SOL    HW279688   6.323   0.640   1.159 -0.6262 -0.9519  1.2204
24790SOL     OW79689   6.133   3.497   0.275 -0.5070  0.0714 -0.3068
24790SOL    HW179690   6.214   3.534   0.239 -1.3006  2.7202  0.4257
24790SOL    HW279691   6.079   3.480   0.198 -0.8353  2.3485 -0.6456
24791SOL     OW79692   6.649   9.060   2.665  0.4267 -0.2985  0.2849
24791SOL    HW179693   6.710   9.013   2.607 -0.6656 -0.9776 -0.3412
24791SOL    HW279694   6.698   9.138   2.692  1.3066 -0.4412 -0.7920
24792SOL     OW79695   9.787   4.868   0.754 -0.0102 -0.0379  0.0877
24792SOL    HW179696   9.847   4.811   0.802 -3.3538 -1.2325  3.3334
24792SOL    HW279697   9.804   4.955   0.788  2.0976  0.2856 -1.6101
24793SOL     OW79698   9.281   8.812   4.678  0.2610 -0.3100 -0.1614
24793SOL    HW179699   9.339   8.874   4.635  0.6513  0.6130  1.5909
24793SOL    HW279700   9.261   8.747   4.611  1.9664  0.2625 -1.2876
24794SOL     OW79701  10.691   4.364   8.833 -0.9103 -0.7719 -0.2276
24794SOL    HW179702  10.763   4.416   8.798 -0.5679 -2.3579 -2.0570
24794SOL    HW279703  10.615   4.424   8.831  0.1599  0.7147  1.1364
24795SOL     OW79704   1.874  10.870  11.451  0.2686  0.3928  0.5308
24795SOL    HW179705   1.942  10.936  11.432  0.2477  0.1120 -0.6002
24795SOL    HW279706   1.793  10.921  11.456 -0.0720  0.2852 -2.3760
24796SOL     OW79707   4.984   0.032   0.394  0.2016 -0.0375 -0.1385
24796SOL    HW179708   5.080   0.030   0.394  0.2080 -0.2358  0.8389
24796SOL    HW279709   4.959  -0.012   0.476 -0.6916  1.5664  0.4896
24797SOL     OW79710   5.245   8.088   4.802 -0.4282 -0.2123 -0.0014
24797SOL    HW179711   5.305   8.023   4.766 -1.1967  0.0177 -1.8034
24797SOL    HW279712   5.169   8.036   4.831 -0.4432 -0.2537 -0.1125
24798SOL     OW79713   3.944   8.669   3.529 -0.1791 -0.0179 -0.4964
24798SOL    HW179714   3.935   8.583   3.569 -0.5710  0.2486 -0.0048
24798SOL    HW279715   4.006   8.656   3.457  1.2459 -0.3349  0.7301
24799SOL     OW79716   9.125   1.829   6.214  0.3119  0.0392  0.0318
24799SOL    HW179717   9.162   1.811   6.300  0.6979 -0.2275 -0.1901
24799SOL    HW279718   9.152   1.755   6.160  0.3189  0.3514 -0.3974
24800SOL     OW79719   0.707   4.313   6.939 -0.1645 -0.0918 -0.1591
24800SOL    HW179720   0.698   4.265   7.021 -1.5590 -0.6817 -0.6355
24800SOL    HW279721   0.692   4.247   6.871 -2.8308  1.0894 -0.8306
24801SOL     OW79722   0.989   3.866   3.885 -0.4081  0.0569 -0.3855
24801SOL    HW179723   0.961   3.957   3.892 -0.5453  0.0263 -0.5490
24801SOL    HW279724   1.075   3.864   3.928 -1.2212 -0.1132  1.3179
24802SOL     OW79725   6.910   6.414   3.680  0.3588 -0.2474  0.7018
24802SOL    HW179726   6.878   6.330   3.648 -2.4831  0.9246  0.2338
24802SOL    HW279727   6.963   6.449   3.608  0.7708 -1.2052  0.5307
24803SOL     OW79728   3.882   2.950   9.870 -0.0591  0.0419 -0.2642
24803SOL    HW179729   3.934   2.927   9.948 -0.3522  0.0275 -0.0738
24803SOL    HW279730   3.846   3.036   9.890 -0.4264 -0.1188 -0.2402
24804SOL     OW79731   7.953   9.542   3.661 -0.0885  0.1327  0.1504
24804SOL    HW179732   7.959   9.524   3.567  1.4664  0.9433  0.0715
24804SOL    HW279733   7.992   9.628   3.672 -2.3761  1.1122  1.2668
24805SOL     OW79734   5.501   0.940   9.672 -0.1191 -0.3509 -0.1128
24805SOL    HW179735   5.595   0.929   9.690  0.1051 -0.7928 -1.4193
24805SOL    HW279736   5.471   0.853   9.647 -0.6538 -0.0266 -0.6359
24806SOL     OW79737   9.834   4.725   8.972  0.1687  0.5710 -0.7737
24806SOL    HW179738   9.739   4.730   8.966  0.2068 -0.0002 -2.3240
24806SOL    HW279739   9.855   4.633   8.957  0.9717  0.6587 -0.2954
24807SOL     OW79740   5.353   7.648   0.892 -0.3312 -0.4363 -0.1936
24807SOL    HW179741   5.439   7.655   0.934 -0.8891  0.6134  0.8471
24807SOL    HW279742   5.324   7.739   0.882 -1.2171 -0.7713 -0.7408
24808SOL     OW79743   8.694   8.904   4.374  0.2707  0.1230  0.1531
24808SOL    HW179744   8.699   8.973   4.308  0.3755 -0.0569 -0.0265
24808SOL    HW279745   8.776   8.856   4.365  0.9412  0.9789  1.3823
24809SOL     OW79746   9.996   0.672  11.322 -0.0805 -0.0831 -0.3105
24809SOL    HW179747   9.906   0.640  11.332  0.3162 -1.1711 -0.0925
24809SOL    HW279748   9.992   0.732  11.247 -1.4514  1.7475  1.1233
24810SOL     OW79749   3.001   0.578   8.437 -0.1119 -0.2040 -0.1754
24810SOL    HW179750   3.047   0.557   8.519  0.6616 -0.7500 -0.7327
24810SOL    HW279751   3.028   0.667   8.416 -0.2227 -0.1031  0.0994
24811SOL     OW79752  11.515   7.364  10.805 -0.4999 -0.4584 -0.2686
24811SOL    HW179753  11.420   7.366  10.811 -0.5510  0.3944 -1.1796
24811SOL    HW279754  11.533   7.302  10.734 -0.3946 -0.3935 -0.2991
24812SOL     OW79755   1.906  10.006   5.424  0.2950 -0.1241  0.8822
24812SOL    HW179756   1.871  10.094   5.413  0.2138 -0.2672 -0.1664
24812SOL    HW279757   1.993  10.019   5.462 -0.2372  0.3187  2.0010
24813SOL     OW79758   5.557   4.944   4.757 -0.4337 -0.0359 -0.1775
24813SOL    HW179759   5.635   4.889   4.747 -0.1655  0.5613 -1.6184
24813SOL    HW279760   5.485   4.882   4.771  0.1901 -0.6171  0.5269
24814SOL     OW79761   4.559   5.892  10.165 -0.2583  0.1703 -0.1568
24814SOL    HW179762   4.529   5.983  10.158 -0.7099 -0.0881 -2.3328
24814SOL    HW279763   4.567   5.863  10.074 -1.4239 -2.3871  0.4838
24815SOL     OW79764   7.651   1.560   4.907  0.1592  0.4126 -0.4881
24815SOL    HW179765   7.745   1.547   4.916  0.3020  0.0874 -2.0728
24815SOL    HW279766   7.639   1.655   4.912  0.8583  0.6370 -2.2085
24816SOL     OW79767   2.393  11.761  10.428 -0.2832 -0.2895  0.1665
24816SOL    HW179768   2.368  11.669  10.439  0.3756 -0.8237 -2.2243
24816SOL    HW279769   2.310  11.807  10.416 -0.6047 -0.5715  1.2050
24817SOL     OW79770   7.024  10.334   3.747  0.2276 -0.0714 -0.5269
24817SOL    HW179771   6.956  10.280   3.706 -0.6669  1.0416 -0.5819
24817SOL    HW279772   7.101  10.322   3.693 -0.0454 -1.0285 -0.7212
24818SOL     OW79773   7.166   1.298   4.486 -0.3054  0.3095 -0.1018
24818SOL    HW179774   7.153   1.333   4.574 -0.1035  0.1962 -0.0270
24818SOL    HW279775   7.136   1.367   4.428 -0.2598  0.4591  0.0530
24819SOL     OW79776   7.264   0.231   6.749 -0.1881  0.1521  0.0205
24819SOL    HW179777   7.298   0.269   6.667 -2.7631 -0.9815 -1.7060
24819SOL    HW279778   7.268   0.137   6.734 -1.8222 -0.0410  0.6863
24820SOL     OW79779   8.804   2.745   9.222  0.1419  0.2728 -0.1250
24820SOL    HW179780   8.845   2.681   9.165  1.0130 -1.1592  1.9970
24820SOL    HW279781   8.877   2.796   9.258 -0.2315  0.1719  0.8153
24821SOL     OW79782  11.577   8.022   9.240 -0.8596  0.1620  0.1684
24821SOL    HW179783  11.559   7.945   9.187 -0.2633 -0.2664  0.5745
24821SOL    HW279784  11.492   8.065   9.250 -1.6928 -1.7257  1.9377
24822SOL     OW79785  10.702  10.387   2.605 -0.1321  0.2238 -0.2411
24822SOL    HW179786  10.676  10.473   2.637  0.7917  0.7084 -0.7126
24822SOL    HW279787  10.631  10.329   2.629 -0.3825  0.9572  0.8488
24823SOL     OW79788   0.596   6.283   2.038  0.2895 -0.4218 -0.0964
24823SOL    HW179789   0.577   6.286   1.944 -0.1749 -0.9814 -0.0306
24823SOL    HW279790   0.658   6.354   2.053  0.6452 -0.5560 -0.8903
24824SOL     OW79791   8.781   4.086   9.328  0.0721 -0.1048 -0.1909
24824SOL    HW179792   8.870   4.073   9.360 -0.8814 -0.6566  2.4810
24824SOL    HW279793   8.750   4.166   9.372 -0.9312 -0.1900 -0.6925
24825SOL     OW79794   0.672   4.511   6.585 -0.1256 -0.0152 -0.4759
24825SOL    HW179795   0.705   4.556   6.508  3.3159 -0.5463  0.4735
24825SOL    HW279796   0.724   4.547   6.657 -2.8178  0.0698  1.5524
24826SOL     OW79797   9.420   4.592   0.061  0.0658 -0.1640 -0.5836
24826SOL    HW179798   9.348   4.630   0.111  0.6315  1.5906 -1.0317
24826SOL    HW279799   9.482   4.561   0.128 -0.3917 -0.2698 -0.2022
24827SOL     OW79800   1.349   3.645  11.472 -0.5250 -0.5710 -0.0747
24827SOL    HW179801   1.289   3.699  11.524  0.0937  0.2455 -0.1834
24827SOL    HW279802   1.436   3.680  11.492 -0.1497 -1.2469 -0.4944
24828SOL     OW79803   5.932  10.489   5.146 -0.5441  0.4999  0.2823
24828SOL    HW179804   6.007  10.488   5.206 -1.0386 -1.1777  0.9324
24828SOL    HW279805   5.972  10.484   5.059  0.1505 -1.6855  0.6487
24829SOL     OW79806   5.450   6.718   9.740  0.1166  0.0816 -0.1891
24829SOL    HW179807   5.537   6.704   9.702  0.1791  0.2319 -0.1036
24829SOL    HW279808   5.392   6.660   9.691  0.3501 -0.3969  0.0911
24830SOL     OW79809   3.090   8.233   3.443 -0.4523  0.1715 -0.7301
24830SOL    HW179810   3.182   8.244   3.418 -0.7204  0.2956 -1.6860
24830SOL    HW279811   3.057   8.165   3.384 -0.7842 -0.4141  0.1169
24831SOL     OW79812  11.714   4.935   6.077 -0.0637 -0.2514  0.4053
24831SOL    HW179813  11.725   4.844   6.049  0.2943 -0.1831  0.3293
24831SOL    HW279814  11.795   4.957   6.121 -0.6717 -0.3949  1.6392
24832SOL     OW79815   7.715  10.530   2.319 -0.4229  0.1720  0.2941
24832SOL    HW179816   7.660  10.563   2.249 -1.6929 -1.8080  0.2662
24832SOL    HW279817   7.797  10.504   2.276 -0.3484  0.9976 -0.0669
24833SOL     OW79818  11.504   0.526   5.708  0.3000  0.2084  0.4476
24833SOL    HW179819  11.499   0.588   5.635  0.9073 -0.8663 -0.5420
24833SOL    HW279820  11.595   0.528   5.736  0.6738 -1.2711 -0.5575
24834SOL     OW79821   0.437   2.516   7.666  0.5219 -0.1934  0.4926
24834SOL    HW179822   0.475   2.603   7.654  1.4436 -0.6152  0.2212
24834SOL    HW279823   0.499   2.457   7.623  0.5104 -1.0966  1.6513
24835SOL     OW79824   4.838   4.335   3.631 -0.8528  0.0601  0.3531
24835SOL    HW179825   4.744   4.350   3.618 -0.7573  0.4044  0.0387
24835SOL    HW279826   4.868   4.411   3.680 -1.1642 -1.1286  2.5125
24836SOL     OW79827   0.188   6.429   6.604  0.2474 -0.2654  0.0117
24836SOL    HW179828   0.129   6.469   6.540 -0.2793  0.4608  0.9170
24836SOL    HW279829   0.262   6.490   6.610  0.1126 -0.1335  0.3654
24837SOL     OW79830   0.227   0.335   5.228 -0.8614 -0.7279 -0.0492
24837SOL    HW179831   0.260   0.262   5.279 -0.0988  0.5307  1.3386
24837SOL    HW279832   0.291   0.348   5.159  0.2751  0.0892  1.1142
24838SOL     OW79833   2.744  11.426  11.332  0.3054 -0.2169  0.6632
24838SOL    HW179834   2.709  11.340  11.311  0.3864 -0.2862  0.8117
24838SOL    HW279835   2.815  11.409  11.395  0.6672 -0.0861  0.2984
24839SOL     OW79836  11.460  11.768   5.855 -0.2477  0.0008  0.0938
24839SOL    HW179837  11.527  11.822   5.813 -1.5271  0.8581 -0.8820
24839SOL    HW279838  11.446  11.695   5.794  1.4380 -1.5166  1.3799
24840SOL     OW79839   4.856   5.084   0.346  0.2727  0.0992  0.1681
24840SOL    HW179840   4.871   5.175   0.320 -1.1924  0.3432  0.0625
24840SOL    HW279841   4.885   5.033   0.270 -0.3035  0.5830 -0.3936
24841SOL     OW79842   5.162  11.486   8.876 -0.3483 -0.7709 -0.1656
24841SOL    HW179843   5.158  11.581   8.864 -0.0802 -0.8210 -0.6395
24841SOL    HW279844   5.144  11.449   8.790  1.7612 -1.1153 -0.4916
24842SOL     OW79845  11.035  11.444  10.884  0.5397 -0.0485  0.6529
24842SOL    HW179846  11.026  11.488  10.969 -1.8647 -1.4662  1.2319
24842SOL    HW279847  11.079  11.361  10.905  0.5324 -0.1128  0.4121
24843SOL     OW79848   6.888   4.085   7.037  0.0384  0.0088 -0.3931
24843SOL    HW179849   6.816   4.093   7.100  0.3314 -3.6402  0.6831
24843SOL    HW279850   6.955   4.145   7.069 -1.3142  1.1627  0.4153
24844SOL     OW79851   9.876   1.077   2.418  0.1272  0.2679 -0.1047
24844SOL    HW179852   9.940   1.097   2.486 -0.1397 -0.2556  0.3127
24844SOL    HW279853   9.793   1.067   2.465 -0.1609  0.4187 -0.5724
24845SOL     OW79854   8.813   4.316  11.790  0.2034  0.1685  0.1130
24845SOL    HW179855   8.780   4.228  11.773 -0.5065  0.0812  1.7305
24845SOL    HW279856   8.764   4.372  11.729  0.7814 -0.5424 -1.0475
24846SOL     OW79857  11.643   2.732  11.129  0.4044 -0.2219  0.2728
24846SOL    HW179858  11.658   2.637  11.122 -2.4221 -0.8570  1.5223
24846SOL    HW279859  11.681   2.756  11.213 -0.8641 -0.7366  1.0101
24847SOL     OW79860   3.271  11.340   6.495 -0.7383 -0.4242  0.2166
24847SOL    HW179861   3.248  11.426   6.461 -0.4213 -0.1880  0.5904
24847SOL    HW279862   3.365  11.332   6.478 -0.8362 -0.8510 -0.1513
24848SOL     OW79863   7.149   3.188   4.161  0.4537 -0.0382  0.6913
24848SOL    HW179864   7.081   3.196   4.094  1.5237 -0.1623 -0.4483
24848SOL    HW279865   7.154   3.094   4.179 -0.4591  0.0765  1.6439
24849SOL     OW79866   1.895   5.832   8.615  0.3633  0.3716 -0.3104
24849SOL    HW179867   1.801   5.825   8.631  0.4879 -0.4197  0.1642
24849SOL    HW279868   1.908   5.791   8.530  0.4893 -1.2556  0.4390
24850SOL     OW79869   0.074  10.310   1.303  0.2416  0.1562  0.0176
24850SOL    HW179870   0.161  10.329   1.269  0.2692 -0.0523 -0.0293
24850SOL    HW279871   0.028  10.394   1.298  0.6919  0.4588  0.8062
24851SOL     OW79872   3.102   9.542   0.475 -0.7075  0.4992  0.5689
24851SOL    HW179873   3.175   9.575   0.424 -1.0589 -0.0221 -0.2875
24851SOL    HW279874   3.046   9.618   0.489  0.0127  0.9180  1.2912
24852SOL     OW79875  10.404   3.907   7.545  0.3648 -0.0494  0.3332
24852SOL    HW179876  10.484   3.943   7.583  0.6007 -1.1496  0.9236
24852SOL    HW279877  10.363   3.858   7.617 -0.4435 -0.1335 -0.1710
24853SOL     OW79878   6.167   9.605   4.252 -0.0864  0.5373  0.7923
24853SOL    HW179879   6.170   9.662   4.328  1.9700  3.1377 -1.0268
24853SOL    HW279880   6.228   9.534   4.273  1.8948  2.1972  0.9796
24854SOL     OW79881  11.359   5.913   2.573 -0.3242 -0.2442  0.4110
24854SOL    HW179882  11.265   5.895   2.573 -1.1284  3.2957  0.9349
24854SOL    HW279883  11.380   5.933   2.482 -1.0062  2.6675  0.8197
24855SOL     OW79884  10.635   8.016   8.411  0.5925 -0.3968 -0.1045
24855SOL    HW179885  10.565   7.988   8.352  1.0496 -1.5103 -0.1452
24855SOL    HW279886  10.715   7.980   8.372  0.9677 -0.6301  0.8548
24856SOL     OW79887  11.367   0.562  11.421 -0.4981  0.2491  0.2274
24856SOL    HW179888  11.281   0.525  11.402 -0.7522  0.3683  1.1383
24856SOL    HW279889  11.397   0.594  11.336 -1.6068  0.7377 -0.0033
24857SOL     OW79890  10.662   1.926   0.919  0.0526 -0.1205  0.3738
24857SOL    HW179891  10.627   1.972   0.843 -0.0723 -0.8691 -0.0242
24857SOL    HW279892  10.724   1.989   0.958 -1.0565  0.8809  0.5941
24858SOL     OW79893   1.356   1.857   9.233  0.0968  0.8268  0.3429
24858SOL    HW179894   1.287   1.791   9.227  1.5422 -0.7044  0.0793
24858SOL    HW279895   1.338   1.902   9.316 -0.9197  0.1281  0.5254
24859SOL     OW79896   6.113   5.297   7.108 -0.1077  0.0123 -0.0005
24859SOL    HW179897   6.100   5.202   7.110 -0.8843  0.1087 -0.2012
24859SOL    HW279898   6.139   5.319   7.198 -1.2798 -0.2201  0.4196
24860SOL     OW79899   4.589   0.581   8.783 -0.0061  0.6745 -0.1980
24860SOL    HW179900   4.618   0.505   8.834 -0.1328  0.6311 -0.1905
24860SOL    HW279901   4.608   0.656   8.839  0.3811  0.6696 -0.3250
24861SOL     OW79902   6.699   1.889   3.788 -0.2410 -0.4290 -0.1121
24861SOL    HW179903   6.628   1.857   3.732 -0.8037  2.8251 -1.4819
24861SOL    HW279904   6.657   1.906   3.873 -1.3226  1.8130 -1.0147
24862SOL     OW79905   4.157   6.477   6.930  0.2612 -0.4296 -0.1646
24862SOL    HW179906   4.205   6.494   6.849  1.6168  0.1345  0.7361
24862SOL    HW279907   4.154   6.561   6.975 -1.1515 -0.5593  0.0503
24863SOL     OW79908   1.295   7.977   4.827 -0.6658  0.0175  0.5266
24863SOL    HW179909   1.336   7.950   4.745  0.0811  0.5284  0.7207
24863SOL    HW279910   1.207   8.005   4.802 -0.0550  1.2915 -0.2985
24864SOL     OW79911   3.447   9.831  10.144 -0.2780 -0.2068 -0.0604
24864SOL    HW179912   3.443   9.737  10.127 -0.1298 -0.1525 -0.3939
24864SOL    HW279913   3.453   9.838  10.240  2.1220 -0.6371 -0.1004
24865SOL     OW79914   7.263   6.610   7.100  0.2645  0.0774 -0.6159
24865SOL    HW179915   7.183   6.564   7.127  1.1304 -1.4435 -0.5469
24865SOL    HW279916   7.297   6.648   7.181  0.9250 -1.4175 -0.1571
24866SOL     OW79917   2.594   6.695   2.452  0.6316 -0.0161 -0.5143
24866SOL    HW179918   2.546   6.717   2.532 -0.4031 -3.4683 -0.0013
24866SOL    HW279919   2.685   6.685   2.481  0.5654  0.4086 -0.1476
24867SOL     OW79920  10.604   5.009   7.377 -0.0772 -0.6447 -0.0115
24867SOL    HW179921  10.571   4.956   7.303 -1.2551 -2.2099  1.5513
24867SOL    HW279922  10.559   5.093   7.367 -1.5925 -1.4276 -0.1250
24868SOL     OW79923   1.442   0.099   2.808  0.0350 -0.4884  0.1630
24868SOL    HW179924   1.518   0.158   2.816 -0.6945  0.5180 -0.1214
24868SOL    HW279925   1.480   0.012   2.806  1.0183 -0.2501  3.1856
24869SOL     OW79926   1.551   8.944   9.073 -0.1541 -0.0175  0.1002
24869SOL    HW179927   1.619   8.914   9.013 -0.3469 -0.9514  0.3421
24869SOL    HW279928   1.523   8.866   9.120 -3.1452 -0.1907 -1.6983
24870SOL     OW79929   4.836   9.874   7.858 -0.1061 -0.2932  0.1982
24870SOL    HW179930   4.795   9.851   7.941 -0.7826 -1.1527 -0.3405
24870SOL    HW279931   4.826   9.969   7.851 -0.9134 -0.3327  0.6527
24871SOL     OW79932   1.563   9.017   7.752  0.1378 -0.8181 -0.6483
24871SOL    HW179933   1.594   8.987   7.667  1.1821 -1.0861 -0.1953
24871SOL    HW279934   1.571   9.112   7.749 -0.4784 -0.7719 -1.0788
24872SOL     OW79935   9.319   0.135   2.937 -0.1482  0.2281 -0.6815
24872SOL    HW179936   9.359   0.222   2.932 -1.2968  0.9756  1.8132
24872SOL    HW279937   9.356   0.095   3.016 -1.3565 -0.6129 -0.5075
24873SOL     OW79938   8.596   2.219   3.069 -0.0409  0.0665  0.1601
24873SOL    HW179939   8.653   2.162   3.017 -0.6090  0.3379 -0.7786
24873SOL    HW279940   8.526   2.245   3.009 -0.0365  1.4033  0.7046
24874SOL     OW79941   5.973  10.774   4.144  0.8462  0.0070 -0.4679
24874SOL    HW179942   5.931  10.715   4.081  1.2167 -2.3221  1.3323
24874SOL    HW279943   6.058  10.795   4.104  0.8145 -0.8935 -1.0388
24875SOL     OW79944   7.989   9.438   1.080 -0.4213 -0.0820 -0.2382
24875SOL    HW179945   7.971   9.504   1.013  0.0234  0.7952  0.4748
24875SOL    HW279946   8.030   9.488   1.151  1.6553 -1.4163 -0.4209
24876SOL     OW79947  11.698   9.157   4.063 -0.0241  0.0964 -0.1715
24876SOL    HW179948  11.746   9.092   4.013  0.1487  0.2389 -0.1910
24876SOL    HW279949  11.611   9.160   4.021 -0.3313 -0.7603  0.3900
24877SOL     OW79950   2.450   4.443   6.744  0.6313 -0.2649 -0.5414
24877SOL    HW179951   2.364   4.427   6.783  0.5880  0.6835 -0.2334
24877SOL    HW279952   2.494   4.358   6.750  1.5465  0.2589  3.8175
24878SOL     OW79953   3.872  11.207   7.593 -0.4421  0.7071 -0.4592
24878SOL    HW179954   3.926  11.254   7.656 -0.3660 -1.2625  1.0361
24878SOL    HW279955   3.802  11.167   7.646 -0.2008 -1.2798 -1.5273
24879SOL     OW79956   9.664   3.789   6.891  0.0110  0.3071  0.1415
24879SOL    HW179957   9.661   3.858   6.825 -0.5038 -0.3068 -0.4812
24879SOL    HW279958   9.590   3.807   6.948  0.8407  1.2286  0.9729
24880SOL     OW79959   9.742   5.505   2.774  0.1581  0.0434 -0.1895
24880SOL    HW179960   9.779   5.426   2.735  1.7994  0.5279  0.2821
24880SOL    HW279961   9.789   5.577   2.731 -1.2564  0.7721 -0.5575
24881SOL     OW79962   4.954   3.781   7.931 -0.6355 -0.3196 -0.7408
24881SOL    HW179963   4.985   3.708   7.878 -0.5489 -0.9066  0.0930
24881SOL    HW279964   5.021   3.792   7.998 -2.1005 -1.5187  1.0114
24882SOL     OW79965   3.315   6.773   1.390 -0.0116  0.6033 -0.4407
24882SOL    HW179966   3.317   6.836   1.317  1.3702  0.3061 -0.6909
24882SOL    HW279967   3.253   6.706   1.362 -2.2311  2.2606  0.2170
24883SOL     OW79968   9.167   7.013  11.550  0.5129  0.3157 -0.1657
24883SOL    HW179969   9.129   6.959  11.481  1.1437 -0.5025  0.1066
24883SOL    HW279970   9.202   7.090  11.504  0.4509  0.0396 -0.6808
24884SOL     OW79971   8.331   4.738   6.896 -0.3051  0.1388 -0.1475
24884SOL    HW179972   8.377   4.688   6.963  0.0897  3.3108  2.1532
24884SOL    HW279973   8.395   4.748   6.825 -0.0336 -1.5270 -0.1822
24885SOL     OW79974   8.911   9.294   9.413  0.2920  0.1414  0.3605
24885SOL    HW179975   8.889   9.380   9.451  1.4846  0.7974 -0.3894
24885SOL    HW279976   8.855   9.233   9.461  1.5219  0.9502  3.0556
24886SOL     OW79977  10.370   3.673   5.173  0.0160  0.3950  0.3610
24886SOL    HW179978  10.442   3.728   5.142 -1.3135  1.2949 -1.2865
24886SOL    HW279979  10.299   3.734   5.193 -0.8450 -0.5768  0.3844
24887SOL     OW79980   4.768   7.351   9.752  0.0855  0.1831  0.6505
24887SOL    HW179981   4.701   7.400   9.800 -0.2993 -0.5386  0.8684
24887SOL    HW279982   4.832   7.417   9.726 -0.8784  0.9411  0.1411
24888SOL     OW79983   4.036   5.586   2.667  0.0510  0.1540 -0.7408
24888SOL    HW179984   3.986   5.662   2.639  0.6458  1.2117  0.9094
24888SOL    HW279985   3.981   5.544   2.733  0.9858  0.9106  0.5545
24889SOL     OW79986   1.860   8.733   4.765  0.4412 -0.2136  0.3042
24889SOL    HW179987   1.948   8.743   4.801  0.0837  1.8917  0.7152
24889SOL    HW279988   1.873   8.691   4.681  1.7971 -0.3595  0.5657
24890SOL     OW79989   6.081   8.682   0.771  0.2130  0.2157  0.3473
24890SOL    HW179990   6.125   8.643   0.847  0.8952  0.6281  0.1782
24890SOL    HW279991   6.072   8.610   0.709  0.6071  0.1090  0.4096
24891SOL     OW79992   0.758   3.948   2.692 -0.5751 -0.0335  0.2372
24891SOL    HW179993   0.846   3.912   2.687 -0.5972  0.0126 -0.6047
24891SOL    HW279994   0.722   3.937   2.604 -1.4597 -0.1678  0.5990
24892SOL     OW79995   4.430  10.127   0.394  0.1417  0.3719  0.8517
24892SOL    HW179996   4.515  10.098   0.427  0.9522  3.2563  1.6221
24892SOL    HW279997   4.441  10.134   0.300 -0.0616 -1.5167  0.6434
24893SOL     OW79998   4.249   7.163  10.925 -0.3980  0.2866 -0.6423
24893SOL    HW179999   4.340   7.189  10.916  0.4931 -2.3503  0.1268
24893SOL    HW280000   4.251   7.078  10.969 -3.3388  1.3556  1.9879
24894SOL     OW80001   7.633   2.531   0.997  0.2306 -0.2462  0.6645
24894SOL    HW180002   7.698   2.464   1.015  0.8618  0.2975  0.4316
24894SOL    HW280003   7.549   2.486   1.010  0.5804 -1.6172 -1.2339
24895SOL     OW80004   5.928   3.895  11.243  0.1424 -0.6292  0.4258
24895SOL    HW180005   5.887   3.909  11.158  0.4977 -2.5130 -0.1124
24895SOL    HW280006   5.975   3.812  11.233  3.5059  1.0159  1.2044
24896SOL     OW80007   9.802  11.519   5.016  0.0807 -0.3248 -0.1985
24896SOL    HW180008   9.735  11.483   5.075 -0.4602 -0.9825 -1.1921
24896SOL    HW280009   9.824  11.446   4.958  0.3467  0.4218 -1.0452
24897SOL     OW80010   4.794   1.447   0.760  0.8161 -0.3367 -0.3941
24897SOL    HW180011   4.774   1.496   0.680 -1.3041  1.5449  1.1422
24897SOL    HW280012   4.859   1.500   0.805 -1.7722  1.5477  1.4628
24898SOL     OW80013   0.898   7.058   7.602 -0.1752  0.4763  0.0026
24898SOL    HW180014   0.839   6.990   7.572  0.8547 -1.0788  1.3286
24898SOL    HW280015   0.963   7.066   7.533 -0.3610  0.1902 -0.2053
24899SOL     OW80016   0.065   0.582   5.874 -0.1208 -0.0767 -0.4040
24899SOL    HW180017   0.156   0.572   5.901  0.0985 -1.3790 -1.5371
24899SOL    HW280018   0.068   0.646   5.803 -0.0440 -0.4153 -0.7037
24900SOL     OW80019   1.009   8.572   5.115 -0.0957  0.9077  0.1731
24900SOL    HW180020   1.074   8.548   5.181  0.0883  1.0173  0.0350
24900SOL    HW280021   0.935   8.515   5.131 -0.7852  2.1536  1.6293
24901SOL     OW80022   7.925   9.705   7.277 -0.2400  0.4288 -0.0606
24901SOL    HW180023   7.965   9.792   7.265 -0.8640  0.6335 -0.7167
24901SOL    HW280024   7.852   9.720   7.338 -1.7578  0.8185 -1.8924
24902SOL     OW80025   5.187  11.169  11.793  0.4590 -0.2575  0.1521
24902SOL    HW180026   5.251  11.232  11.759  1.4328 -1.6332 -0.6576
24902SOL    HW280027   5.221  11.145  11.879  1.2442 -1.2326 -0.4113
24903SOL     OW80028   6.397   9.029   4.877  0.1183  1.0148 -0.4928
24903SOL    HW180029   6.489   9.025   4.905  0.1358 -0.3841 -0.7004
24903SOL    HW280030   6.393   8.973   4.800 -0.6926  1.9668 -1.1693
24904SOL     OW80031   7.225   7.743   6.193  0.2530  0.5454  0.4755
24904SOL    HW180032   7.170   7.676   6.233  1.1077  0.8252  2.2407
24904SOL    HW280033   7.253   7.705   6.110 -0.0744 -0.8766  0.9812
24905SOL     OW80034   8.911   2.761  10.544 -0.0290 -0.4761  0.2803
24905SOL    HW180035   8.878   2.678  10.509  0.3996 -0.0400 -1.2481
24905SOL    HW280036   8.987   2.737  10.595 -0.7479 -1.1569  1.0583
24906SOL     OW80037   1.589  10.442  11.581  0.1210  0.0496 -0.1801
24906SOL    HW180038   1.634  10.517  11.545  1.5373 -0.2544  0.8607
24906SOL    HW280039   1.640  10.366  11.551 -0.7431 -0.4389 -0.4561
24907SOL     OW80040   8.852   2.698   7.757 -0.7535  0.1104 -0.6931
24907SOL    HW180041   8.766   2.677   7.722 -0.3999  1.1269 -2.3140
24907SOL    HW280042   8.846   2.789   7.784 -0.7684 -0.4226  1.2219
24908SOL     OW80043   7.446   4.444   1.157 -0.0168 -0.0254 -0.3214
24908SOL    HW180044   7.425   4.494   1.078 -1.1211  0.5178  0.2903
24908SOL    HW280045   7.537   4.467   1.175  0.2141 -0.0522 -1.3469
24909SOL     OW80046   9.274   3.694   5.496  0.6294  0.0320 -0.0640
24909SOL    HW180047   9.206   3.696   5.564  3.6623  0.7997  3.2539
24909SOL    HW280048   9.257   3.614   5.447 -2.8650  0.4297  0.2416
24910SOL     OW80049   5.337   8.574   7.334 -0.0379  0.3081  0.3507
24910SOL    HW180050   5.400   8.509   7.367  0.3042  0.3536 -0.2072
24910SOL    HW280051   5.335   8.641   7.403  1.0762  0.6668  0.0554
24911SOL     OW80052  11.590   2.743   7.292  0.1603 -0.0973 -0.4242
24911SOL    HW180053  11.684   2.731   7.282  0.5406  1.7919  0.3788
24911SOL    HW280054  11.567   2.807   7.224 -0.4729 -0.2216 -0.3354
24912SOL     OW80055   0.642   1.637   0.287  0.4419  0.0159  0.6403
24912SOL    HW180056   0.601   1.723   0.297  0.9394  0.4911 -0.9988
24912SOL    HW280057   0.626   1.593   0.370  0.2279  1.7111  1.5435
24913SOL     OW80058   9.271   1.394   3.700 -0.7273 -0.4896  0.0760
24913SOL    HW180059   9.261   1.312   3.749  0.5459 -1.0615 -0.5728
24913SOL    HW280060   9.353   1.432   3.732 -1.2229  0.4608  0.2523
24914SOL     OW80061   7.169   7.858   8.055 -0.5839 -0.2922 -0.0513
24914SOL    HW180062   7.261   7.839   8.073 -0.6728 -0.2476  0.4882
24914SOL    HW280063   7.121   7.791   8.105 -0.8724  0.6715  0.9983
24915SOL     OW80064   9.625   1.618   2.531 -0.6989 -0.0560  0.9748
24915SOL    HW180065   9.705   1.669   2.518  0.5850 -1.9663  1.0378
24915SOL    HW280066   9.568   1.644   2.459  0.7847 -0.1198 -0.2770
24916SOL     OW80067   6.082   8.581   1.594 -0.0616  0.2342  0.3575
24916SOL    HW180068   5.996   8.620   1.583  0.1034  0.6671  0.5867
24916SOL    HW280069   6.071   8.489   1.569 -1.0237 -0.1708  2.0926
24917SOL     OW80070   2.665   0.998   9.039 -0.0012  0.3633  0.4134
24917SOL    HW180071   2.682   1.058   8.967  0.6599 -0.9706 -0.5771
24917SOL    HW280072   2.746   0.949   9.049  0.4558  1.5017  3.0762
24918SOL     OW80073   9.126   6.238   3.415  0.6319 -0.5659 -0.0677
24918SOL    HW180074   9.168   6.164   3.458  0.1211 -1.1848 -0.6032
24918SOL    HW280075   9.192   6.306   3.414  1.4346 -1.3358 -0.4055
24919SOL     OW80076   1.892   5.462   8.727  0.1529  0.0713 -0.2683
24919SOL    HW180077   1.811   5.413   8.741  0.8567 -0.8511  0.8019
24919SOL    HW280078   1.898   5.473   8.632 -2.2811  2.0586 -0.2967
24920SOL     OW80079   3.562   9.453   0.299 -0.9363  0.3248 -0.2543
24920SOL    HW180080   3.628   9.502   0.348 -0.7902  1.8146 -1.8333
24920SOL    HW280081   3.613   9.395   0.242 -1.1083 -1.6659  1.4892
24921SOL     OW80082   3.870   8.754   1.369  0.5026 -0.2834  0.4868
24921SOL    HW180083   3.806   8.753   1.440 -0.4002 -0.2447 -0.3009
24921SOL    HW280084   3.817   8.769   1.290  1.3872 -1.0840 -0.2757
24922SOL     OW80085   1.677   9.786   9.165  0.0030  0.2175  0.0171
24922SOL    HW180086   1.766   9.751   9.155  0.0324  0.1737  0.3996
24922SOL    HW280087   1.633   9.762   9.084  0.7978  1.6394 -0.8801
24923SOL     OW80088   0.318   5.940  10.458 -0.0775  0.2480 -0.1489
24923SOL    HW180089   0.236   5.903  10.491  1.3113  0.6151  4.3630
24923SOL    HW280090   0.376   5.864  10.448 -0.1418  0.2653 -0.6878
24924SOL     OW80091   7.710   6.881  11.012  0.0021 -0.4360 -0.3905
24924SOL    HW180092   7.718   6.934  11.092 -2.8298  3.4709 -2.3810
24924SOL    HW280093   7.788   6.903  10.961 -0.1790  0.2439 -0.3773
24925SOL     OW80094   2.647   1.533   4.477  0.1999  0.2319 -0.0859
24925SOL    HW180095   2.731   1.490   4.469 -1.0442 -2.1429 -1.4118
24925SOL    HW280096   2.641   1.589   4.400  1.3604  2.0899  1.0857
24926SOL     OW80097   0.383   7.900   1.658  0.6974  0.0606  0.4463
24926SOL    HW180098   0.463   7.883   1.609  0.3247 -2.5581  0.6076
24926SOL    HW280099   0.339   7.971   1.610  2.5475  0.7852 -0.2608
24927SOL     OW80100   5.921  10.942   3.177 -0.2571  0.1900 -0.1082
24927SOL    HW180101   6.015  10.939   3.157 -0.3893  1.2828 -0.9888
24927SOL    HW280102   5.895  10.850   3.183  1.3546 -0.1830  2.6377
24928SOL     OW80103  10.549   4.233   2.432  0.0513  0.0227  0.7126
24928SOL    HW180104  10.639   4.214   2.457  0.3359  1.0571  0.4961
24928SOL    HW280105  10.496   4.188   2.497  0.7422  0.3368  1.5050
24929SOL     OW80106   2.527   7.349  11.321  1.1055 -0.1208  0.3971
24929SOL    HW180107   2.466   7.412  11.359 -0.5746 -1.6167  0.2648
24929SOL    HW280108   2.563   7.303  11.396  2.5794  1.1237  0.5183
24930SOL     OW80109   6.602   8.792   3.830 -0.3452  0.1421 -0.7730
24930SOL    HW180110   6.639   8.864   3.779  0.0501 -1.3089 -2.6394
24930SOL    HW280111   6.513   8.820   3.850  0.2015  1.6670 -0.3644
24931SOL     OW80112  10.106   3.818   4.010  0.0507 -0.2422  0.3960
24931SOL    HW180113  10.163   3.861   4.073  0.3105 -1.5395  1.0785
24931SOL    HW280114  10.026   3.871   4.010  0.2374  0.0614  1.4545
24932SOL     OW80115   7.837  10.656   7.990  0.5360  0.2667  0.6976
24932SOL    HW180116   7.849  10.562   7.980 -0.3878  0.1550  0.5825
24932SOL    HW280117   7.924  10.693   7.974  0.7954 -0.5237  0.2296
24933SOL     OW80118   8.114   0.511  11.035 -0.6439  0.0126  0.6267
24933SOL    HW180119   8.030   0.482  10.998 -1.1758  1.6237  0.4939
24933SOL    HW280120   8.089   0.575  11.102  0.5149  1.2895 -0.1345
24934SOL     OW80121   4.592   2.866  10.826 -0.7750  0.6403  0.2264
24934SOL    HW180122   4.555   2.782  10.854  0.4241  0.3737  1.0752
24934SOL    HW280123   4.532   2.931  10.862 -0.6368  0.2051  1.2756
24935SOL     OW80124  10.225   7.803   1.452 -0.2064  0.0805  0.0055
24935SOL    HW180125  10.187   7.778   1.537  0.3220 -0.4743  0.0821
24935SOL    HW280126  10.314   7.768   1.454  0.4494  1.6825 -0.0364
24936SOL     OW80127   9.516   8.349  10.563  0.2285  0.0674  0.0001
24936SOL    HW180128   9.604   8.387  10.560  0.0197  0.5859  0.2629
24936SOL    HW280129   9.475   8.390  10.639  0.0614 -0.8604  0.4235
24937SOL     OW80130   4.430   0.225   4.386  0.3616 -0.4330  0.2549
24937SOL    HW180131   4.509   0.180   4.416  0.8158 -0.2610 -0.6328
24937SOL    HW280132   4.441   0.315   4.416  0.8792 -0.2281 -0.5010
24938SOL     OW80133   8.044   1.802   9.427  0.6362  0.4811 -0.3971
24938SOL    HW180134   8.124   1.798   9.376  1.3117  2.0079  0.4629
24938SOL    HW280135   8.017   1.711   9.437 -0.2998  0.1114 -4.5543
24939SOL     OW80136   7.963   8.227   4.982 -0.0846 -0.2574  0.3180
24939SOL    HW180137   8.016   8.159   5.025 -0.3231 -0.5943  0.0848
24939SOL    HW280138   8.023   8.267   4.919 -0.5555 -1.7783 -1.1565
24940SOL     OW80139   5.079   6.239   3.823  0.1774  0.3954 -0.0450
24940SOL    HW180140   5.005   6.298   3.807 -1.6829 -1.5464  0.8833
24940SOL    HW280141   5.111   6.216   3.736 -2.2782 -1.0080 -0.6802
24941SOL     OW80142   9.397   1.295  10.512  0.3619  0.4130 -0.2379
24941SOL    HW180143   9.317   1.256  10.549  0.7745 -0.2254  0.0087
24941SOL    HW280144   9.385   1.389  10.524 -0.4025  0.3347 -0.3066
24942SOL     OW80145   7.285   4.323   1.866  0.6182 -0.3221 -0.1184
24942SOL    HW180146   7.293   4.251   1.928  0.4346  0.6912  1.1238
24942SOL    HW280147   7.206   4.370   1.893  2.8725  2.7334  1.7741
24943SOL     OW80148  11.808   6.934   4.854  0.1592 -0.6510 -0.3932
24943SOL    HW180149  11.759   6.912   4.775  2.6899  0.0825 -2.3160
24943SOL    HW280150  11.793   6.860   4.913 -4.4428  0.2496 -0.0907
24944SOL     OW80151   3.142   3.348   2.929  0.8711  0.2072 -0.0240
24944SOL    HW180152   3.166   3.330   2.838  1.4137 -0.7587  0.3038
24944SOL    HW280153   3.150   3.264   2.974 -0.6179  0.3966  0.6687
24945SOL     OW80154   2.688  11.723   0.314  0.0411 -0.2766  0.3172
24945SOL    HW180155   2.649  11.674   0.241  0.1748 -0.2534  0.2285
24945SOL    HW280156   2.623  11.789   0.336  0.6413  0.7511 -0.8395
24946SOL     OW80157   9.822  10.532   2.637  0.2670  0.1626 -0.5146
24946SOL    HW180158   9.733  10.513   2.606  0.1464 -1.3095  0.6162
24946SOL    HW280159   9.815  10.527   2.732  1.3580  1.0731 -0.3707
24947SOL     OW80160   4.212   0.550   1.863 -0.2093 -0.1066 -0.3684
24947SOL    HW180161   4.252   0.524   1.780 -0.6702 -1.6406 -0.1302
24947SOL    HW280162   4.125   0.581   1.839  0.1185  0.6705 -0.5850
24948SOL     OW80163   1.292   0.895  11.719 -0.3709 -0.4845  0.4103
24948SOL    HW180164   1.220   0.943  11.678 -0.9319 -0.4854  1.3715
24948SOL    HW280165   1.250   0.836  11.782  0.4294 -0.9205  0.5545
24949SOL     OW80166   6.330   6.789   3.462  0.5101 -0.0317  0.8573
24949SOL    HW180167   6.235   6.779   3.463  0.3632  1.1101  0.4767
24949SOL    HW280168   6.347   6.867   3.515  0.9721  1.3059 -1.1059
24950SOL     OW80169   2.978   7.260  11.387 -0.0890 -0.1021 -0.2608
24950SOL    HW180170   3.013   7.288  11.471 -0.4737 -2.2199  0.6684
24950SOL    HW280171   2.892   7.303  11.381 -0.8391 -1.2855  1.2901
24951SOL     OW80172  10.211   5.361   2.931  0.0750 -0.0595  0.3522
24951SOL    HW180173  10.284   5.363   2.869 -0.8968 -2.6480 -1.0213
24951SOL    HW280174  10.158   5.436   2.908  1.6536  1.1808  0.5894
24952SOL     OW80175  10.631   0.478   4.100  0.1789 -0.2824 -0.0000
24952SOL    HW180176  10.551   0.499   4.052 -0.6502 -1.6348  0.7309
24952SOL    HW280177  10.668   0.404   4.052  0.1089 -0.7127  0.6000
24953SOL     OW80178   7.029   9.451   9.261 -0.0404  0.9685  0.0155
24953SOL    HW180179   7.076   9.526   9.224  1.4168 -0.2358 -0.6588
24953SOL    HW280180   6.966   9.426   9.194  1.9966 -0.6594 -1.4223
24954SOL     OW80181   3.300   4.200   4.815  0.7678  0.1103  0.3547
24954SOL    HW180182   3.396   4.202   4.818  0.8124 -1.5589  1.0055
24954SOL    HW280183   3.273   4.192   4.906  0.0965 -1.0063  0.0830
24955SOL     OW80184   7.895   0.275   1.884 -0.2768  0.3969  0.1891
24955SOL    HW180185   7.886   0.192   1.836  1.6597  0.9440 -1.2879
24955SOL    HW280186   7.987   0.276   1.912  0.2986  2.7957 -1.4573
24956SOL     OW80187  11.235   1.176   0.847 -0.2240 -0.0977 -0.1686
24956SOL    HW180188  11.243   1.096   0.900  0.4578 -1.5194 -2.2697
24956SOL    HW280189  11.326   1.201   0.828 -0.3712  1.9954  1.4823
24957SOL     OW80190   5.082   1.815   3.710  0.5108 -0.3036 -0.2364
24957SOL    HW180191   5.134   1.888   3.745 -0.7504  0.1624  0.7485
24957SOL    HW280192   5.108   1.739   3.763 -0.3284  0.0924  0.7872
24958SOL     OW80193   0.648   3.854   4.187 -0.3317 -0.3689  0.1727
24958SOL    HW180194   0.654   3.834   4.094  0.9233 -2.8837  0.6848
24958SOL    HW280195   0.700   3.933   4.198 -1.9655  1.0161 -1.4557
24959SOL     OW80196   0.444  10.092   6.919 -0.2520  0.8286 -0.0911
24959SOL    HW180197   0.504  10.064   6.989  1.1394  0.0066 -1.5559
24959SOL    HW280198   0.455  10.187   6.915  0.3860  0.7723  0.1830
24960SOL     OW80199  10.512  10.960   7.277  0.1369 -0.1416 -0.4333
24960SOL    HW180200  10.489  11.052   7.269 -0.9568 -0.4959 -1.9251
24960SOL    HW280201  10.577  10.945   7.208 -0.7116 -0.7467 -1.1364
24961SOL     OW80202   8.312   9.349   3.707 -0.2799  0.1663  0.2933
24961SOL    HW180203   8.237   9.368   3.763  0.6279  0.7469  1.3565
24961SOL    HW280204   8.380   9.408   3.737  0.3665  0.2313 -1.2015
24962SOL     OW80205   9.339   0.791   7.551  0.4335 -0.0813  0.8734
24962SOL    HW180206   9.355   0.699   7.574 -1.6047 -1.2145 -1.7039
24962SOL    HW280207   9.403   0.810   7.481 -0.0969 -0.0447  0.3888
24963SOL     OW80208   6.896   7.130   3.219  0.0650 -0.4783  0.0016
24963SOL    HW180209   6.989   7.135   3.194  0.3104  0.7090  1.0367
24963SOL    HW280210   6.887   7.043   3.259  0.9403 -0.3091  0.6087
24964SOL     OW80211   8.073   3.280   9.594  0.0347  0.3015 -0.3360
24964SOL    HW180212   7.990   3.255   9.554  0.2376 -0.2217 -0.4387
24964SOL    HW280213   8.140   3.255   9.530  0.4087 -1.0681  0.5399
24965SOL     OW80214  11.480  11.450   9.972 -0.2185 -0.2646 -1.3262
24965SOL    HW180215  11.496  11.370  10.023 -0.9869 -0.5134 -1.4742
24965SOL    HW280216  11.565  11.494   9.971  0.1895 -1.0222 -1.1443
24966SOL     OW80217   7.376  10.640   9.734 -0.3022  0.1398  0.2306
24966SOL    HW180218   7.321  10.679   9.802  0.3039  1.0834  0.2076
24966SOL    HW280219   7.466  10.658   9.762  0.0193 -1.5514  0.3690
24967SOL     OW80220   4.612   9.404   1.123 -0.5443  0.5244 -0.0334
24967SOL    HW180221   4.608   9.341   1.050  0.5425 -1.3424  1.4192
24967SOL    HW280222   4.523   9.437   1.131 -0.8497  0.2225 -1.7180
24968SOL     OW80223   7.727   9.406   7.020  0.3330 -0.0318 -0.0652
24968SOL    HW180224   7.650   9.432   7.070  1.3649  2.3290  0.4155
24968SOL    HW280225   7.721   9.455   6.938  1.1965  0.0009 -0.1201
24969SOL     OW80226   5.341   6.511   8.277  0.1248  0.3286 -0.2147
24969SOL    HW180227   5.254   6.480   8.304 -0.2200  0.1731 -1.4751
24969SOL    HW280228   5.329   6.604   8.261 -0.1027  0.1051 -1.4673
24970SOL     OW80229   5.953  10.088   6.881  0.1713  0.5204 -0.0887
24970SOL    HW180230   5.880  10.027   6.891  0.2944  0.3556 -0.1992
24970SOL    HW280231   6.019  10.057   6.943 -0.3545  1.4317  0.9562
24971SOL     OW80232   1.339   0.372   2.523 -0.5002  0.6451  0.0705
24971SOL    HW180233   1.307   0.456   2.555 -1.4368  1.4581 -2.7852
24971SOL    HW280234   1.292   0.307   2.576 -3.6822  1.8896 -0.9967
24972SOL     OW80235   0.073   8.838   9.198 -0.0084 -0.0658 -0.2179
24972SOL    HW180236  -0.001   8.779   9.183 -0.3545  0.0320  0.9882
24972SOL    HW280237   0.045   8.893   9.271  0.6726  0.9889 -0.7385
24973SOL     OW80238   5.735   8.454   2.330 -0.0778  0.2153 -0.1600
24973SOL    HW180239   5.656   8.468   2.382  0.3731 -0.3084  0.6807
24973SOL    HW280240   5.807   8.464   2.392  0.4030 -3.3124  0.0813
24974SOL     OW80241   0.224  11.017   1.328 -0.1977  0.1000 -0.1560
24974SOL    HW180242   0.285  11.078   1.369 -1.2313  0.6535  0.5932
24974SOL    HW280243   0.167  10.989   1.399 -0.2861 -1.0869 -0.6697
24975SOL     OW80244   0.312   4.335   7.660 -0.3078 -0.2171 -0.8329
24975SOL    HW180245   0.394   4.288   7.642  1.1743  0.2570  3.5706
24975SOL    HW280246   0.278   4.295   7.739 -3.2141  1.1098 -1.2937
24976SOL     OW80247   3.138   9.274   4.263 -0.1279  0.4680  0.0356
24976SOL    HW180248   3.048   9.279   4.294  0.0770  0.9511  0.5734
24976SOL    HW280249   3.172   9.194   4.302 -0.3384  0.2590 -0.2086
24977SOL     OW80250   1.020  11.718   7.508  0.0198  0.3019 -0.1511
24977SOL    HW180251   1.041  11.644   7.566  0.6685  1.1890  0.7779
24977SOL    HW280252   1.050  11.689   7.422  0.0924 -0.5989  0.1604
24978SOL     OW80253   2.367   7.814   3.409  0.0935  0.1120 -0.2694
24978SOL    HW180254   2.392   7.891   3.461 -3.6627  0.2207  1.6997
24978SOL    HW280255   2.398   7.739   3.460 -0.2813  0.2691  0.1889
24979SOL     OW80256  11.602   5.467   1.779 -0.2260  0.1255 -0.4161
24979SOL    HW180257  11.618   5.560   1.797  2.3183 -0.4407  0.6696
24979SOL    HW280258  11.653   5.420   1.845 -0.2945 -2.0746 -1.8052
24980SOL     OW80259   7.792   9.258   2.211  0.0260 -0.4400  0.3382
24980SOL    HW180260   7.697   9.251   2.195 -0.0600 -2.1996  1.3151
24980SOL    HW280261   7.801   9.243   2.305  1.3016 -0.5096  0.2175
24981SOL     OW80262   2.714  10.325   6.690 -0.8644 -0.2622 -0.3351
24981SOL    HW180263   2.680  10.406   6.651 -0.8235 -0.5491 -0.9794
24981SOL    HW280264   2.766  10.285   6.620  0.3799 -0.0883  0.4634
24982SOL     OW80265   6.181   3.193  10.015  0.2548 -0.4494  0.7757
24982SOL    HW180266   6.112   3.222   9.955  0.9504  0.1449  0.2388
24982SOL    HW280267   6.165   3.100  10.029  0.2956 -0.6882 -0.6427
24983SOL     OW80268   8.671   7.284   2.548 -0.8884 -0.1529 -0.4164
24983SOL    HW180269   8.641   7.287   2.639 -1.4583 -0.2844 -0.5943
24983SOL    HW280270   8.698   7.374   2.529  2.1334 -0.6811  0.8067
24984SOL     OW80271   5.029  10.554   0.974  0.2187  0.6074  0.3333
24984SOL    HW180272   5.109  10.530   0.927 -1.7257 -0.6870 -2.5997
24984SOL    HW280273   5.028  10.650   0.971  0.8932  0.5999 -1.0645
24985SOL     OW80274   6.967   4.157   6.786 -0.1777  0.3760 -0.1507
24985SOL    HW180275   6.897   4.175   6.723 -1.2424  0.7594  1.0736
24985SOL    HW280276   6.921   4.128   6.865  1.0156  1.0266  0.8270
24986SOL     OW80277   9.888  11.021   5.698  0.0770 -0.5858 -0.5787
24986SOL    HW180278   9.930  10.938   5.677  0.4911 -0.6356  0.3718
24986SOL    HW280279   9.961  11.082   5.713 -0.2122 -0.2657 -0.4429
24987SOL     OW80280   4.691   4.324   9.212 -0.1513  0.3344  0.1191
24987SOL    HW180281   4.664   4.262   9.143 -1.1675 -0.2012  0.9731
24987SOL    HW280282   4.783   4.302   9.228 -0.8276 -1.9429  1.3635
24988SOL     OW80283   6.868   4.888  11.237 -0.0078  0.2674 -0.6172
24988SOL    HW180284   6.837   4.890  11.328 -1.4419  0.7613 -1.0930
24988SOL    HW280285   6.790   4.865  11.186  0.5162  1.0944 -1.8306
24989SOL     OW80286   7.651   8.812   3.640  0.2386  0.0186  0.4203
24989SOL    HW180287   7.722   8.836   3.699  1.9320 -1.2003 -1.0369
24989SOL    HW280288   7.694   8.783   3.560 -1.9575  1.4786 -1.4222
24990SOL     OW80289   9.527   6.484   2.291  0.1505 -0.2134 -0.2440
24990SOL    HW180290   9.499   6.553   2.231  0.5695  0.7293  0.6115
24990SOL    HW280291   9.567   6.417   2.235  1.7240  1.2282 -0.9263
24991SOL     OW80292   2.210   4.514   9.629  0.2140 -0.1389  0.4275
24991SOL    HW180293   2.147   4.553   9.690  0.4841 -1.1639  1.4154
24991SOL    HW280294   2.293   4.556   9.650 -0.1086  1.2575 -0.9172
24992SOL     OW80295   5.426   3.527   5.862 -0.4883 -0.3105  0.5700
24992SOL    HW180296   5.400   3.498   5.775 -3.1157 -0.5512  1.3229
24992SOL    HW280297   5.481   3.604   5.847 -1.0772 -0.2066 -1.3063
24993SOL     OW80298   4.354   5.001  10.515 -0.1102 -0.0482 -0.2008
24993SOL    HW180299   4.403   4.946  10.577 -2.1743 -2.2019 -0.3542
24993SOL    HW280300   4.365   5.090  10.550  0.1339 -0.9788  2.3611
24994SOL     OW80301   9.348   7.032  10.887 -0.2949  0.6420 -0.1472
24994SOL    HW180302   9.384   7.034  10.975 -0.0363 -0.3040 -0.2214
24994SOL    HW280303   9.421   7.003  10.832 -0.5122  1.0206 -0.6439
24995SOL     OW80304   5.658   8.797  11.443  0.1183  0.4561  0.5351
24995SOL    HW180305   5.704   8.773  11.362  0.6872 -0.3668  1.0932
24995SOL    HW280306   5.657   8.717  11.495 -2.7712  0.1505  0.1905
24996SOL     OW80307   3.637   7.400   9.944  0.9493 -0.3005  0.6321
24996SOL    HW180308   3.623   7.488   9.979  1.5882 -0.9976  2.8345
24996SOL    HW280309   3.700   7.413   9.873 -2.0368  1.4481 -1.9620
24997SOL     OW80310   2.660   8.616   7.336 -0.1178  0.3670  0.4466
24997SOL    HW180311   2.572   8.630   7.303  0.0998  0.4599 -0.1149
24997SOL    HW280312   2.665   8.665   7.418  0.0402  2.0098 -0.5177
24998SOL     OW80313   5.306   0.462   5.962 -0.1117  0.0104 -0.0405
24998SOL    HW180314   5.316   0.554   5.936  0.1735  0.0258  0.1293
24998SOL    HW280315   5.288   0.416   5.879 -0.7699  0.2921 -0.0604
24999SOL     OW80316   2.420   0.667   3.095  0.3352  0.2093  0.3617
24999SOL    HW180317   2.438   0.760   3.088  1.2774 -0.0905 -2.0099
24999SOL    HW280318   2.324   0.661   3.093  0.2861  1.0624 -1.0714
25000SOL     OW80319   7.339   9.295   5.545  0.0844 -0.0050  0.0450
25000SOL    HW180320   7.258   9.262   5.508 -0.4005  0.5720  0.5771
25000SOL    HW280321   7.397   9.308   5.470 -1.0102  1.5224 -0.5788
25001SOL     OW80322   1.184   0.325  10.260  0.0544  0.0138  0.6795
25001SOL    HW180323   1.244   0.398  10.250 -0.6667  0.6705  1.0034
25001SOL    HW280324   1.223   0.270  10.327  0.4766  0.2328  0.6142
25002SOL     OW80325   2.029   4.813   9.244  0.4641 -0.2760  0.4836
25002SOL    HW180326   2.049   4.725   9.276 -1.2500 -0.9514 -0.1742
25002SOL    HW280327   1.934   4.819   9.249  0.5046  1.3358 -0.0636
25003SOL     OW80328   8.881   6.252   0.524 -0.0497 -0.1573  0.7968
25003SOL    HW180329   8.865   6.329   0.469  0.9649  1.9174  3.2339
25003SOL    HW280330   8.795   6.210   0.530 -0.2600 -0.4070 -2.1081
25004SOL     OW80331   1.768   4.409   3.973 -0.2210 -0.2332  0.4444
25004SOL    HW180332   1.767   4.465   4.051 -3.2041 -0.4458  0.6458
25004SOL    HW280333   1.788   4.322   4.006 -1.0562 -0.2463  0.9356
25005SOL     OW80334  11.213   5.036  11.713  0.1322  0.0336 -0.2988
25005SOL    HW180335  11.236   4.951  11.675  0.0053 -0.5906  0.9654
25005SOL    HW280336  11.222   5.023  11.807 -0.2338  1.3329 -0.0674
25006SOL     OW80337   7.522   5.537   5.066 -0.4417  0.3678  0.4841
25006SOL    HW180338   7.540   5.480   5.141 -1.3410  2.2246  2.2387
25006SOL    HW280339   7.444   5.500   5.026  1.3743 -2.0387 -1.1358
25007SOL     OW80340   7.233   5.326   6.056  0.1277 -0.2019  0.3304
25007SOL    HW180341   7.287   5.401   6.084 -0.0405  0.4422 -0.9966
25007SOL    HW280342   7.290   5.276   5.998 -0.5069  0.1966 -0.6591
25008SOL     OW80343   8.753   1.606   6.824 -0.4310 -0.1627 -0.4307
25008SOL    HW180344   8.741   1.657   6.904  0.7277  1.9564 -1.5303
25008SOL    HW280345   8.715   1.660   6.755 -4.2757 -3.2574 -1.1032
25009SOL     OW80346  10.472   8.069   5.569 -0.3761 -0.6480 -0.3628
25009SOL    HW180347  10.520   8.052   5.488  1.4546  0.6876  0.3825
25009SOL    HW280348  10.390   8.109   5.541  0.6812  0.7704 -1.5441
25010SOL     OW80349   9.693   8.361   5.946  0.0924  0.3620 -0.3618
25010SOL    HW180350   9.626   8.338   6.010  0.1590  0.6960 -0.1709
25010SOL    HW280351   9.670   8.449   5.918 -0.3831 -0.0682 -1.3766
25011SOL     OW80352   5.205   3.633  10.951  0.0540 -0.0865 -0.1500
25011SOL    HW180353   5.199   3.728  10.952 -1.9246 -0.1098  2.9891
25011SOL    HW280354   5.126   3.605  10.904  0.0892 -0.1960 -0.1434
25012SOL     OW80355  11.556   9.066  10.641 -0.4303  0.4717  0.0342
25012SOL    HW180356  11.530   9.123  10.568  0.6704  1.4249  0.3647
25012SOL    HW280357  11.594   9.125  10.706  0.9290 -0.6642  0.3119
25013SOL     OW80358   9.775   3.284   1.225  0.7834  0.2279  0.8538
25013SOL    HW180359   9.831   3.341   1.278 -0.5771  1.2543  1.2620
25013SOL    HW280360   9.721   3.344   1.173  0.3926 -0.7240  0.1279
25014SOL     OW80361   4.911   1.969   9.967  0.3088  0.2403 -0.0517
25014SOL    HW180362   4.893   1.885  10.009 -2.0645  0.0146 -1.3510
25014SOL    HW280363   4.837   2.024   9.993  1.6038  1.8206  0.4103
25015SOL     OW80364   8.840   9.414   0.491  0.4624 -0.2447 -0.1796
25015SOL    HW180365   8.822   9.323   0.514  2.5698 -0.8211 -0.6274
25015SOL    HW280366   8.929   9.413   0.455  0.8388  2.1081  0.5045
25016SOL     OW80367   8.516   7.035   1.304 -0.2651 -0.3559 -0.4535
25016SOL    HW180368   8.454   7.011   1.373  0.0799 -0.0853 -0.0451
25016SOL    HW280369   8.553   7.119   1.332  0.3965 -0.5833 -0.6156
25017SOL     OW80370   2.823  10.246   5.690  0.0846 -0.4265 -0.2022
25017SOL    HW180371   2.874  10.278   5.616  0.7982  1.0156  0.8470
25017SOL    HW280372   2.774  10.322   5.720  1.3353 -0.3961  1.9867
25018SOL     OW80373   8.545   5.096   7.034  0.0916 -0.1014 -0.2917
25018SOL    HW180374   8.469   5.043   7.060  0.3265  0.0068  0.6243
25018SOL    HW280375   8.611   5.078   7.101  0.2516  1.1969 -0.0861
25019SOL     OW80376   6.183   6.940   6.711  0.4090  0.7624  0.5739
25019SOL    HW180377   6.156   6.896   6.792 -0.0030 -1.5925 -0.7522
25019SOL    HW280378   6.101   6.969   6.671  0.3098 -0.5219 -0.2512
25020SOL     OW80379   3.497   3.871   7.232  1.0193  0.1749  0.2642
25020SOL    HW180380   3.424   3.923   7.266  1.3557 -0.0079  1.3188
25020SOL    HW280381   3.456   3.794   7.194  0.5906  0.6498 -0.2499
25021SOL     OW80382   8.739   2.413   8.664 -0.9323 -0.1432  0.4434
25021SOL    HW180383   8.715   2.417   8.757 -1.0502 -1.8113  0.5262
25021SOL    HW280384   8.728   2.502   8.632 -1.8442  0.2644  1.8040
25022SOL     OW80385   8.376  10.701   5.494 -0.7994 -0.0275 -0.2594
25022SOL    HW180386   8.427  10.711   5.413 -0.3019 -0.8866 -0.0702
25022SOL    HW280387   8.312  10.771   5.491 -2.2320 -1.2894 -2.4708
25023SOL     OW80388   0.699   2.726   7.602  0.3730 -0.0826  0.1085
25023SOL    HW180389   0.775   2.740   7.546 -0.4586  0.8807 -0.7999
25023SOL    HW280390   0.626   2.767   7.556 -0.3067  0.9739  2.0064
25024SOL     OW80391   6.499   0.644   7.974 -0.2362 -0.2085 -0.2574
25024SOL    HW180392   6.574   0.588   7.996  1.0355  1.4698 -0.0839
25024SOL    HW280393   6.485   0.629   7.881 -0.6391 -1.6131  0.0067
25025SOL     OW80394   4.893   4.824  10.440 -0.6448  0.0795  0.4732
25025SOL    HW180395   4.878   4.847  10.532  1.1852 -1.5121  1.2673
25025SOL    HW280396   4.952   4.892  10.407  1.2547 -0.9546  1.5041
25026SOL     OW80397   8.435   6.550   9.122 -0.6732 -0.1730 -0.0313
25026SOL    HW180398   8.397   6.608   9.188 -0.8120 -1.2378  0.8572
25026SOL    HW280399   8.529   6.555   9.137 -0.6592  0.1403 -0.2278
25027SOL     OW80400   0.743   3.230   8.294 -0.4940  0.2895 -0.0055
25027SOL    HW180401   0.683   3.261   8.362 -0.4891 -0.7114  0.4881
25027SOL    HW280402   0.765   3.141   8.322 -0.8155 -0.2976 -1.5401
25028SOL     OW80403  11.753   0.057   8.375 -0.1013  0.1182  0.0599
25028SOL    HW180404  11.767   0.031   8.466 -1.8375  1.6287  0.8270
25028SOL    HW280405  11.815   0.130   8.362  0.0533 -0.0107  0.0664
25029SOL     OW80406   1.860   4.105   8.875 -0.0170 -0.4105 -0.2862
25029SOL    HW180407   1.821   4.090   8.789 -1.6886 -0.5936  0.4577
25029SOL    HW280408   1.830   4.193   8.899 -1.9488 -1.3944  1.2439
25030SOL     OW80409   8.700   3.426   9.687  0.2823  0.2254  0.0549
25030SOL    HW180410   8.781   3.446   9.639  0.2581  1.6293  0.5627
25030SOL    HW280411   8.671   3.511   9.721 -1.2100 -0.3169  0.1919
25031SOL     OW80412   2.823   3.254   3.079 -0.3004 -0.2202 -0.3310
25031SOL    HW180413   2.730   3.278   3.080 -0.2651 -0.0572 -0.7193
25031SOL    HW280414   2.847   3.254   2.986  0.1211 -0.1268 -0.2269
25032SOL     OW80415   2.991   2.009   6.251  0.1654 -0.0784  0.3844
25032SOL    HW180416   2.914   1.987   6.303 -0.5904  0.2427 -0.5774
25032SOL    HW280417   3.063   2.007   6.314 -0.6693 -0.0487  1.3726
25033SOL     OW80418  10.421   6.400   0.276 -0.3293 -0.4052  0.3460
25033SOL    HW180419  10.490   6.462   0.252 -1.5936  1.1485  0.5474
25033SOL    HW280420  10.402   6.353   0.195  0.0805  0.0578 -0.0304
25034SOL     OW80421   7.655   5.952  10.663 -0.0726  0.3201 -0.0800
25034SOL    HW180422   7.565   5.924  10.677  0.1765 -0.4382  0.0681
25034SOL    HW280423   7.656   5.990  10.575 -0.9104  1.9812  0.5836
25035SOL     OW80424  10.025   2.379   2.090 -0.3310  0.0969  0.1144
25035SOL    HW180425  10.017   2.285   2.107  0.0973  0.1157  0.4695
25035SOL    HW280426   9.985   2.392   2.005  3.6565 -1.2098 -2.2572
25036SOL     OW80427   6.528   2.288   9.958  0.2445  0.0116  0.3453
25036SOL    HW180428   6.540   2.202   9.917 -0.3678  0.1757 -0.1887
25036SOL    HW280429   6.435   2.289   9.984 -0.4250  1.4524 -1.8658
25037SOL     OW80430   2.420   9.941  11.546  0.2576  0.1836 -0.3362
25037SOL    HW180431   2.359   9.985  11.487  0.4701 -0.1479 -0.8040
25037SOL    HW280432   2.451   9.864  11.497 -0.0507 -0.4540  0.4396
25038SOL     OW80433   3.295   1.394   8.864 -0.1316  0.0470 -0.1061
25038SOL    HW180434   3.294   1.380   8.770  1.1296 -0.8909  0.0050
25038SOL    HW280435   3.226   1.337   8.898 -1.4066  1.2599 -0.5302
25039SOL     OW80436   0.731   4.919   5.504  0.1354  0.0589  0.0025
25039SOL    HW180437   0.657   4.858   5.506 -0.1660  0.4249  0.1317
25039SOL    HW280438   0.703   4.992   5.559  0.4011  0.4187 -0.3315
25040SOL     OW80439  11.780   1.762  11.369  0.0123  0.2776 -0.4580
25040SOL    HW180440  11.841   1.813  11.421 -1.0455 -0.3117  1.4699
25040SOL    HW280441  11.693   1.795  11.395 -0.5742 -0.2176 -1.6834
25041SOL     OW80442   4.151  10.311   8.834 -0.3569  0.4841 -0.1253
25041SOL    HW180443   4.129  10.386   8.889  1.7823  0.3580  0.9977
25041SOL    HW280444   4.196  10.349   8.759 -0.2529  0.4133 -0.0995
25042SOL     OW80445   2.334   5.585   9.057  0.1639  0.6356  0.1737
25042SOL    HW180446   2.261   5.600   9.117  1.7376  0.4846  2.2488
25042SOL    HW280447   2.361   5.672   9.030  0.4809  0.8104  1.0297
25043SOL     OW80448   8.856   2.316   5.167  0.5568  0.5594  0.6694
25043SOL    HW180449   8.860   2.386   5.101 -1.7154  1.3345  1.2477
25043SOL    HW280450   8.907   2.350   5.240  2.6661 -0.0860 -0.4256
25044SOL     OW80451   2.674   5.684   5.265 -0.5437  0.0033  0.3521
25044SOL    HW180452   2.703   5.678   5.174  2.1164  1.5292  0.9791
25044SOL    HW280453   2.741   5.636   5.314 -0.3995  1.5159  1.7108
25045SOL     OW80454   4.378   8.729  11.057  0.4102 -0.0777  0.0724
25045SOL    HW180455   4.422   8.694  11.134  0.7521  0.9295  0.3467
25045SOL    HW280456   4.291   8.755  11.089  0.1278 -0.7082 -0.1489
25046SOL     OW80457   7.163  10.828   6.938  0.1421 -0.4282  0.0977
25046SOL    HW180458   7.082  10.788   6.967 -0.0311 -0.2287 -0.1040
25046SOL    HW280459   7.143  10.922   6.933  0.1571 -0.4620 -0.6826
25047SOL     OW80460   4.837   8.065  10.176 -0.5770 -0.2479  0.7175
25047SOL    HW180461   4.896   8.132  10.210 -0.9810  0.6193 -0.2528
25047SOL    HW280462   4.892   7.987  10.168  0.8327  0.8733 -1.4052
25048SOL     OW80463   8.873   7.980   3.469  0.1818 -0.2525 -0.0475
25048SOL    HW180464   8.787   8.021   3.483  1.0075  1.1761  1.0828
25048SOL    HW280465   8.857   7.886   3.483 -1.2866 -0.0801 -0.3650
25049SOL     OW80466   4.663   1.541   8.676  0.4168 -0.1003  0.7509
25049SOL    HW180467   4.589   1.566   8.620  0.5518 -0.6089  0.3382
25049SOL    HW280468   4.740   1.550   8.620  0.8986  2.0803  1.6583
25050SOL     OW80469   4.878   6.605   6.451 -0.0870 -0.1977  0.2889
25050SOL    HW180470   4.901   6.516   6.422 -0.4695  0.0541 -0.8320
25050SOL    HW280471   4.871   6.656   6.370 -1.5244  0.4565  0.7814
25051SOL     OW80472   4.727   2.705   8.300 -0.0481  0.5705 -0.1320
25051SOL    HW180473   4.705   2.614   8.319  0.9617 -0.0941 -1.9354
25051SOL    HW280474   4.687   2.754   8.372 -3.3329 -0.9606 -0.6863
25052SOL     OW80475  10.931   9.952   2.478 -0.1559  0.1867 -0.1223
25052SOL    HW180476  10.874   9.876   2.492  1.7102 -1.2553  0.1212
25052SOL    HW280477  10.902   9.989   2.395 -1.8600 -0.0823  0.3186
25053SOL     OW80478   4.644  11.366   9.375  0.3894 -0.4000 -0.3192
25053SOL    HW180479   4.692  11.408   9.304  0.1856 -0.4265 -0.4760
25053SOL    HW280480   4.605  11.439   9.423 -0.4696 -0.4220 -0.9533
25054SOL     OW80481   9.783   6.264   8.456 -0.3152 -0.6076 -0.3537
25054SOL    HW180482   9.794   6.209   8.379 -1.4046 -1.6534  0.2055
25054SOL    HW280483   9.783   6.203   8.530 -2.4452 -0.0022  0.2288
25055SOL     OW80484   8.895   7.510   3.070 -0.3223  0.0929 -0.5559
25055SOL    HW180485   8.962   7.455   3.111 -0.8532 -0.5170 -0.4934
25055SOL    HW280486   8.885   7.474   2.982 -1.5291 -0.6865 -0.1186
25056SOL     OW80487   2.135   1.688   4.298  0.5795 -0.5906  0.5232
25056SOL    HW180488   2.196   1.697   4.225  0.9942 -0.4789  0.8799
25056SOL    HW280489   2.081   1.613   4.275 -0.3481  0.3878 -0.6584
25057SOL     OW80490   5.952  10.919   4.504 -0.1483  0.2050  0.7720
25057SOL    HW180491   5.988  10.896   4.589 -1.9617 -0.0381  1.5208
25057SOL    HW280492   6.024  10.904   4.442  0.1937 -3.1027  1.7691
25058SOL     OW80493   8.577   2.794   3.829 -0.2776  0.5654 -0.3852
25058SOL    HW180494   8.578   2.799   3.925  0.5555  0.5447 -0.3834
25058SOL    HW280495   8.650   2.849   3.802 -0.2862  0.2779 -0.9966
25059SOL     OW80496   3.289   1.094  11.289  0.4507  0.2861 -0.6437
25059SOL    HW180497   3.258   1.112  11.200 -0.2481 -1.3653 -0.7708
25059SOL    HW280498   3.382   1.074  11.280  0.4041  0.2305 -0.9874
25060SOL     OW80499   7.502   5.892   1.329  0.0371 -0.1898  0.0382
25060SOL    HW180500   7.554   5.888   1.409  0.6464  1.1608 -0.2612
25060SOL    HW280501   7.414   5.914   1.357 -0.0613 -1.0385  0.4291
25061SOL     OW80502   0.805  10.792   4.970  0.1739 -0.0936  0.6796
25061SOL    HW180503   0.843  10.725   4.913 -0.6158 -1.7347  1.9790
25061SOL    HW280504   0.874  10.856   4.982  1.1399 -0.9331 -0.2353
25062SOL     OW80505   0.036   9.246   7.512  0.3410 -0.1233 -0.2174
25062SOL    HW180506   0.003   9.278   7.428  0.6979  2.8246  0.6454
25062SOL    HW280507  -0.033   9.189   7.545  0.4700 -1.8909 -2.7297
25063SOL     OW80508   1.432   5.773   8.961 -0.3720 -0.3895 -0.1142
25063SOL    HW180509   1.425   5.681   8.937 -0.5165 -0.6134  0.7668
25063SOL    HW280510   1.524   5.795   8.946 -0.3806 -0.6149 -0.5155
25064SOL     OW80511   0.662   5.504   7.215  0.2111  0.0708  0.5081
25064SOL    HW180512   0.677   5.571   7.281  0.4195 -0.5087  1.0648
25064SOL    HW280513   0.631   5.428   7.265  0.2773 -0.3422 -0.0718
25065SOL     OW80514   5.928   7.210  10.967 -0.0187  0.6818  0.6575
25065SOL    HW180515   5.935   7.263  11.046 -0.1113  0.8683  0.5430
25065SOL    HW280516   5.965   7.125  10.990  2.7315  1.6256  0.0723
25066SOL     OW80517   4.264   6.314   6.072 -0.2000 -0.0222  0.1992
25066SOL    HW180518   4.328   6.363   6.019  0.3797 -1.1434 -0.1788
25066SOL    HW280519   4.206   6.381   6.107  1.1577  1.0443  0.5154
25067SOL     OW80520   0.182   0.614   4.512 -0.2352 -0.1653  0.3188
25067SOL    HW180521   0.205   0.529   4.550  2.4888  0.9681  1.4788
25067SOL    HW280522   0.266   0.656   4.494 -1.4862  1.4823 -2.2272
25068SOL     OW80523   4.678   8.830   5.519 -0.7670  0.2191 -0.1566
25068SOL    HW180524   4.731   8.872   5.451  0.8324 -0.5854  0.5489
25068SOL    HW280525   4.700   8.878   5.599 -1.6934  0.3543  0.0298
25069SOL     OW80526   8.816   1.646   7.387 -0.3747  0.3200  0.2293
25069SOL    HW180527   8.771   1.728   7.370  1.1076  1.1818  0.2631
25069SOL    HW280528   8.881   1.667   7.453  2.1955 -0.0416 -1.9815
25070SOL     OW80529   2.734  11.774   5.104 -0.0272  0.0964 -0.1787
25070SOL    HW180530   2.779  11.772   5.188  0.5161 -0.2615 -0.4691
25070SOL    HW280531   2.650  11.731   5.121 -0.0249  0.2496  0.2375
25071SOL     OW80532   1.920   2.005   1.096  0.2639  0.1865  0.1386
25071SOL    HW180533   1.840   1.961   1.127  1.5628 -2.1623  0.3734
25071SOL    HW280534   1.911   2.005   1.001 -0.5386  1.0400  0.1991
25072SOL     OW80535  10.389   4.733   2.455 -0.0440  0.3362 -0.1202
25072SOL    HW180536  10.312   4.724   2.510 -0.8685  1.0442 -1.1090
25072SOL    HW280537  10.407   4.827   2.455  1.5029  0.0752  0.9665
25073SOL     OW80538   4.757   4.399   2.430 -0.0782  0.2506 -0.1642
25073SOL    HW180539   4.805   4.481   2.419 -1.9127  1.3067 -0.6767
25073SOL    HW280540   4.757   4.359   2.343 -0.1621  0.2731 -0.1748
25074SOL     OW80541   6.249   0.033   0.108  0.2275 -0.6639  0.4607
25074SOL    HW180542   6.334  -0.008   0.091  0.0484 -1.4062  1.2448
25074SOL    HW280543   6.194  -0.038   0.140 -0.5510 -0.0939  0.4295
25075SOL     OW80544   9.999   1.812   4.292  0.9558  0.4120  0.5901
25075SOL    HW180545   9.915   1.838   4.254  1.3171  0.1179 -0.4454
25075SOL    HW280546  10.041   1.895   4.315  0.5377  0.5763  0.7803
25076SOL     OW80547   0.593   7.366   7.989  0.0325 -0.8085 -0.0464
25076SOL    HW180548   0.646   7.334   8.063  0.6039 -0.0330 -0.1035
25076SOL    HW280549   0.657   7.391   7.923 -0.3614  0.7593  0.1279
25077SOL     OW80550   2.520   9.927   0.883 -0.6285  0.2345 -0.0727
25077SOL    HW180551   2.512   9.865   0.811  0.7895 -0.9169  0.7039
25077SOL    HW280552   2.610   9.959   0.876 -1.2233  2.0056 -0.2528
25078SOL     OW80553   1.760  10.609  11.450  0.2884 -0.0626  0.6071
25078SOL    HW180554   1.836  10.553  11.432 -0.2911 -0.4545 -0.8382
25078SOL    HW280555   1.794  10.698  11.443  0.6581 -0.2331  0.1180
25079SOL     OW80556   9.607   2.096   0.004  0.3250  0.3816  0.4310
25079SOL    HW180557   9.633   2.170   0.059  0.9985  0.7763 -0.4116
25079SOL    HW280558   9.611   2.130  -0.085 -1.7748  0.0582  0.1665
25080SOL     OW80559   2.008   0.955   3.390 -0.2972  0.4366 -0.3264
25080SOL    HW180560   1.982   1.044   3.412 -0.4227  0.6402 -1.2504
25080SOL    HW280561   2.101   0.950   3.411 -0.0482  1.1102 -1.2028
25081SOL     OW80562   7.681   0.324   4.705  0.2361  0.1525  0.5280
25081SOL    HW180563   7.727   0.390   4.653  0.0087 -0.8827 -1.0680
25081SOL    HW280564   7.629   0.374   4.767  2.0061  1.3901  1.0939
25082SOL     OW80565  11.067   4.391   1.918 -0.2992 -0.7742  0.3829
25082SOL    HW180566  11.108   4.410   1.833 -2.9541  0.3507 -0.7677
25082SOL    HW280567  11.122   4.435   1.982 -0.1129  1.3730 -1.1570
25083SOL     OW80568  11.703   6.686  11.129 -0.8271  0.3272 -0.0399
25083SOL    HW180569  11.770   6.619  11.119 -2.2414 -0.8155 -3.0408
25083SOL    HW280570  11.660   6.665  11.212  2.0365  0.7907  1.7101
25084SOL     OW80571   1.834   2.134   5.183 -0.3803  0.0288 -0.2531
25084SOL    HW180572   1.879   2.054   5.210  0.8789  0.3198 -1.3895
25084SOL    HW280573   1.856   2.144   5.090 -0.1009  1.9430 -0.0159
25085SOL     OW80574   9.992   9.790   3.843 -0.4441 -0.0045 -0.0816
25085SOL    HW180575  10.082   9.763   3.823  0.5264  0.9712  2.4702
25085SOL    HW280576   9.956   9.718   3.894  0.5221  1.2992  2.6727
25086SOL     OW80577  11.718   2.201   4.185 -0.0731  0.0823  0.0908
25086SOL    HW180578  11.646   2.156   4.230  0.5434 -0.8468  0.1551
25086SOL    HW280579  11.789   2.203   4.250  0.8880 -1.4190 -0.8705
25087SOL     OW80580   0.741   0.351   2.038  0.6585  0.7324 -0.2817
25087SOL    HW180581   0.762   0.262   2.066  1.5701  1.2030  0.5949
25087SOL    HW280582   0.683   0.339   1.962 -1.0691 -0.5816  1.1631
25088SOL     OW80583   9.323   3.409   9.869  0.7122  0.2751 -0.3862
25088SOL    HW180584   9.370   3.376   9.792 -0.3782  1.7227 -1.7338
25088SOL    HW280585   9.237   3.365   9.865  0.4897  0.6949 -0.2544
25089SOL     OW80586  11.403   2.528   0.271  0.4150  0.1698  0.2615
25089SOL    HW180587  11.383   2.460   0.336 -1.2078  0.8329  0.4965
25089SOL    HW280588  11.324   2.535   0.218  0.6923  1.5957 -0.0071
25090SOL     OW80589   9.488  11.055  11.131  0.2188 -0.0291 -0.1584
25090SOL    HW180590   9.437  11.128  11.097  1.1134  0.1142 -1.2866
25090SOL    HW280591   9.423  10.994  11.166 -0.7505  0.0638 -1.6889
25091SOL     OW80592  11.154   0.553   3.737 -0.1255 -0.1870  0.0347
25091SOL    HW180593  11.155   0.583   3.828 -0.8035 -0.5342  0.1691
25091SOL    HW280594  11.079   0.493   3.733  1.5327 -2.3738 -0.0479
25092SOL     OW80595   4.539   4.999   9.229  0.0032 -0.6414 -0.1252
25092SOL    HW180596   4.577   5.084   9.251 -0.5451 -0.0933 -1.2310
25092SOL    HW280597   4.613   4.938   9.236  0.8251  0.2069 -1.0148
25093SOL     OW80598  10.311   7.837   4.585 -0.4340 -0.2971  0.1546
25093SOL    HW180599  10.243   7.776   4.556  0.6026 -1.9737  1.1210
25093SOL    HW280600  10.340   7.880   4.505 -0.7839 -1.5050 -0.6545
25094SOL     OW80601   9.288   2.481  10.352 -0.5344 -0.6366 -0.1565
25094SOL    HW180602   9.372   2.440  10.336 -0.5975 -0.7480 -0.2061
25094SOL    HW280603   9.260   2.445  10.437 -0.0624  0.1787  0.3608
25095SOL     OW80604   7.575   9.257   0.470  0.6820  0.7478 -0.1171
25095SOL    HW180605   7.602   9.168   0.447 -1.4450  0.0145  0.0296
25095SOL    HW280606   7.604   9.267   0.561  2.3677  0.8493 -0.6277
25096SOL     OW80607   6.188   4.567   6.238 -0.3923  0.0259  0.1539
25096SOL    HW180608   6.197   4.528   6.151  2.2639 -0.9205  0.7481
25096SOL    HW280609   6.244   4.645   6.235 -1.1578  0.6210  0.7130
25097SOL     OW80610   0.306   9.249   2.469  0.3336 -0.5195  0.0550
25097SOL    HW180611   0.374   9.189   2.438  1.2480  0.5410 -0.0524
25097SOL    HW280612   0.224   9.202   2.453  0.9151 -1.0331 -1.6557
25098SOL     OW80613   5.092   1.980   7.160  0.7544  0.1103  0.0398
25098SOL    HW180614   5.052   2.030   7.089  0.2256  1.5283  1.2871
25098SOL    HW280615   5.025   1.977   7.229  0.6031 -2.6874 -0.0805
25099SOL     OW80616   9.490   9.130   2.681 -0.0293  0.0622 -0.1500
25099SOL    HW180617   9.530   9.082   2.753 -1.4653  0.9562  1.3031
25099SOL    HW280618   9.411   9.169   2.718 -0.3109  1.3688 -1.9614
25100SOL     OW80619   3.982   5.035   8.127 -0.3703 -0.3844  0.3928
25100SOL    HW180620   3.930   5.096   8.179 -0.5769  0.1791 -0.4545
25100SOL    HW280621   3.923   4.963   8.108 -0.2069 -0.7327  1.1713
25101SOL     OW80622   5.274   2.436   3.230  0.3922  0.2711  0.2355
25101SOL    HW180623   5.340   2.413   3.296 -1.2916 -0.9929  1.5547
25101SOL    HW280624   5.198   2.463   3.280 -0.9271 -0.6709 -1.1771
25102SOL     OW80625   1.604   7.617   1.601 -0.3799 -0.5703 -0.2122
25102SOL    HW180626   1.641   7.612   1.513 -0.2592 -0.5732 -0.1618
25102SOL    HW280627   1.677   7.593   1.659 -1.1729 -3.6112 -0.2632
25103SOL     OW80628   4.442   4.858   8.282  0.0786 -0.3123  0.2782
25103SOL    HW180629   4.431   4.857   8.187  1.3478 -1.3610  0.1068
25103SOL    HW280630   4.386   4.930   8.312 -0.7660 -0.3159 -1.1944
25104SOL     OW80631   5.982   5.109  10.565 -0.3653 -0.1272 -0.4229
25104SOL    HW180632   5.996   5.179  10.502  2.3167  1.1529  1.4209
25104SOL    HW280633   5.923   5.147  10.630  0.5750  0.2194  0.2392
25105SOL     OW80634   8.885   6.824   1.460  0.2566 -1.0859  0.2743
25105SOL    HW180635   8.875   6.885   1.533 -3.0922 -0.3217 -0.6157
25105SOL    HW280636   8.883   6.738   1.500 -1.0044 -0.6710  1.1614
25106SOL     OW80637   8.583   0.124   4.354 -0.1516  0.1446 -0.3972
25106SOL    HW180638   8.534   0.204   4.373  0.5816  0.5509 -0.1808
25106SOL    HW280639   8.515   0.058   4.336 -0.8159  0.4046  0.9844
25107SOL     OW80640   3.968   2.111   9.425  0.1126  0.2281 -0.2575
25107SOL    HW180641   3.991   2.069   9.342 -0.4685  1.4615 -1.0699
25107SOL    HW280642   3.930   2.040   9.477 -0.5775 -0.3399 -1.4783
25108SOL     OW80643   6.173   3.144   3.422  0.4465 -0.5283 -0.2969
25108SOL    HW180644   6.130   3.092   3.490  0.1772 -2.1474 -1.6328
25108SOL    HW280645   6.256   3.100   3.408  1.8991  1.5792  1.0549
25109SOL     OW80646   8.115   7.095   0.031  0.2516  0.0641 -0.5109
25109SOL    HW180647   8.102   7.184  -0.002  1.3424 -0.1815 -1.6957
25109SOL    HW280648   8.168   7.107   0.110  1.7116  0.4064 -1.5028
25110SOL     OW80649   6.274   5.095   9.821  0.0452  0.7943  0.3264
25110SOL    HW180650   6.318   5.168   9.865 -1.3115  1.3938  0.7729
25110SOL    HW280651   6.248   5.132   9.736  1.5765  0.0179 -0.5177
25111SOL     OW80652   8.472   7.225   2.062 -0.4838  0.2822  1.1213
25111SOL    HW180653   8.562   7.247   2.036 -0.3344 -0.1849  1.2414
25111SOL    HW280654   8.422   7.230   1.980 -0.0139 -1.1676  0.7129
25112SOL     OW80655   8.861   1.384   7.627  0.0007  0.5945  0.1869
25112SOL    HW180656   8.807   1.462   7.614  0.3411  0.7502 -0.2958
25112SOL    HW280657   8.798   1.316   7.652 -0.4007  0.8171 -0.2006
25113SOL     OW80658   3.339  10.595   3.295  0.1260  0.2869 -0.4194
25113SOL    HW180659   3.343  10.689   3.314 -0.3711  0.0487  1.0019
25113SOL    HW280660   3.293  10.589   3.211 -1.5582  1.2365  0.3874
25114SOL     OW80661   3.052   2.045   3.860  0.0603  0.1369 -0.1213
25114SOL    HW180662   3.105   1.972   3.890 -0.8343 -1.4681 -2.1922
25114SOL    HW280663   2.973   2.042   3.914  0.1956 -0.1963  0.0590
25115SOL     OW80664  11.240   6.304   9.468  0.4870 -0.2141 -0.1404
25115SOL    HW180665  11.189   6.229   9.498  0.6097 -0.2923 -0.1249
25115SOL    HW280666  11.321   6.265   9.435  0.9035 -0.0179  0.6347
25116SOL     OW80667   3.702   4.779   5.754  0.4290  0.5682 -0.1022
25116SOL    HW180668   3.769   4.759   5.819 -0.9733 -1.6406  0.7642
25116SOL    HW280669   3.654   4.853   5.791  0.6568  0.3817  0.5709
25117SOL     OW80670   1.411   9.193  10.596  0.1635 -0.1156  0.2878
25117SOL    HW180671   1.459   9.154  10.523 -1.8670  0.9242 -1.7321
25117SOL    HW280672   1.435   9.285  10.595 -0.9011  0.1723  0.0309
25118SOL     OW80673   3.936   4.605   1.238 -0.0815  0.0672 -0.2191
25118SOL    HW180674   4.020   4.650   1.229 -0.3045  0.9331  1.6237
25118SOL    HW280675   3.875   4.658   1.186  0.4751 -0.5676 -1.5677
25119SOL     OW80676   8.560   5.124   6.302  0.0702 -0.1913 -0.1929
25119SOL    HW180677   8.620   5.049   6.291  0.0584 -0.0106 -1.6102
25119SOL    HW280678   8.511   5.128   6.220 -1.0071  0.4557  0.4594
25120SOL     OW80679   0.646   0.711   9.120 -0.0273 -0.1046  0.2686
25120SOL    HW180680   0.616   0.758   9.043 -1.8001 -1.8092 -0.1632
25120SOL    HW280681   0.576   0.724   9.185  0.2011 -0.8389  0.6698
25121SOL     OW80682   1.390   5.719  10.690 -0.4518  0.1676 -0.2396
25121SOL    HW180683   1.422   5.701  10.601  1.6386  1.0634  0.2716
25121SOL    HW280684   1.387   5.633  10.732  2.3618  0.0772 -0.0337
25122SOL     OW80685   1.162   8.984  11.638 -0.1334 -0.2565 -0.1325
25122SOL    HW180686   1.224   8.914  11.659  0.1699  0.0542  0.0233
25122SOL    HW280687   1.193   9.059  11.689  0.4285  0.4308 -1.4436
25123SOL     OW80688  11.756   5.464   9.916  0.1306 -0.0900 -0.1035
25123SOL    HW180689  11.754   5.436  10.008  0.0977  1.5557  0.4325
25123SOL    HW280690  11.730   5.556   9.919  0.0172 -0.0456 -1.7892
25124SOL     OW80691   8.740   0.744   7.728  0.1330  0.1849  0.1898
25124SOL    HW180692   8.645   0.742   7.729  0.0972 -1.2349  2.4432
25124SOL    HW280693   8.766   0.652   7.722  1.3383  0.4927  0.3857
25125SOL     OW80694   6.438  10.003   8.022 -0.6057 -0.0417 -0.1641
25125SOL    HW180695   6.362  10.039   7.976 -0.0722  0.9969 -0.2582
25125SOL    HW280696   6.401   9.962   8.101 -1.2796  0.2553 -0.3161
25126SOL     OW80697   4.529  11.661   3.441  0.0412 -0.4810 -0.0667
25126SOL    HW180698   4.444  11.687   3.407  0.6515  0.5974 -0.8303
25126SOL    HW280699   4.582  11.741   3.439  0.6902 -0.8102  1.6598
25127SOL     OW80700   4.316   1.522  11.692  0.2920  0.2147  0.0696
25127SOL    HW180701   4.328   1.580  11.616 -0.6213  2.1733  1.3446
25127SOL    HW280702   4.222   1.518  11.704  0.3211 -1.7828 -0.0994
25128SOL     OW80703   8.440  10.443   1.169  0.0261 -0.4930  0.6715
25128SOL    HW180704   8.496  10.366   1.172 -1.0728 -1.2922  1.7301
25128SOL    HW280705   8.399  10.447   1.256 -1.4382  0.1149 -0.0002
25129SOL     OW80706   7.193   2.676  10.350  0.0693  0.3074  0.2857
25129SOL    HW180707   7.186   2.665  10.445 -1.1666 -0.3484  0.1430
25129SOL    HW280708   7.105   2.655  10.317  0.0229  2.0905 -0.8550
25130SOL     OW80709   7.236   2.151   5.369 -0.2971  0.6932 -0.4163
25130SOL    HW180710   7.154   2.123   5.408 -1.1254  0.1960 -2.3987
25130SOL    HW280711   7.213   2.227   5.316  1.0983  2.4032  1.2609
25131SOL     OW80712   4.772   0.845   7.610 -0.7640 -0.3201 -0.6487
25131SOL    HW180713   4.707   0.861   7.679  1.1657 -1.8158  1.6500
25131SOL    HW280714   4.855   0.833   7.656  1.3548  1.9274 -3.4818
25132SOL     OW80715   3.407   6.711   5.348 -0.1349 -0.4356  0.2252
25132SOL    HW180716   3.449   6.767   5.283 -0.0637 -0.0539  0.5974
25132SOL    HW280717   3.475   6.650   5.375 -0.4838 -1.3576 -0.9060
25133SOL     OW80718   3.146   9.738   9.916  0.8756  0.8953  0.1633
25133SOL    HW180719   3.103   9.728  10.001 -0.5028  2.1393 -0.3504
25133SOL    HW280720   3.200   9.659   9.907 -0.5940 -0.2855  1.2442
25134SOL     OW80721   0.323   1.980   9.811 -0.2069  0.1599  0.0714
25134SOL    HW180722   0.234   1.996   9.842 -0.0441  0.8182  0.2339
25134SOL    HW280723   0.358   2.068   9.794  0.5132 -0.0700  0.3201
25135SOL     OW80724   7.280  11.634   4.042  0.5890  0.1551  0.1966
25135SOL    HW180725   7.255  11.556   3.993  0.7485 -0.2976  0.8150
25135SOL    HW280726   7.196  11.674   4.068  0.4971  0.6296 -0.7723
25136SOL     OW80727   0.423   6.706   8.318  0.0011 -0.3457  0.0793
25136SOL    HW180728   0.514   6.704   8.289  0.3156 -0.2821  1.0217
25136SOL    HW280729   0.418   6.641   8.388 -0.4004  0.4476  0.8089
25137SOL     OW80730   6.218   7.262   1.621 -1.1485 -0.0756 -0.1625
25137SOL    HW180731   6.201   7.356   1.629 -0.1954  0.3060 -2.0608
25137SOL    HW280732   6.299   7.248   1.669 -0.3241  0.4456 -1.3529
25138SOL     OW80733   6.438  11.732  10.237  0.2224  0.1483 -0.2464
25138SOL    HW180734   6.531  11.758  10.240  0.0850  0.6124  0.0389
25138SOL    HW280735   6.431  11.662  10.301  0.3079  0.3380 -0.0285
25139SOL     OW80736   8.162  10.744   0.164  0.5567 -0.0423 -0.5358
25139SOL    HW180737   8.191  10.729   0.253  0.8420  0.5052 -0.5306
25139SOL    HW280738   8.148  10.839   0.159 -2.2350 -0.3444 -0.2231
25140SOL     OW80739   3.878  11.699   7.866 -0.7844  0.1008  0.0726
25140SOL    HW180740   3.847  11.756   7.795 -0.5197  1.4531  0.9866
25140SOL    HW280741   3.927  11.758   7.924  0.9151 -1.3844  0.2376
25141SOL     OW80742   0.286   3.287   9.642 -0.3488  0.0635 -0.1093
25141SOL    HW180743   0.320   3.246   9.722  0.4344  0.9311  0.0105
25141SOL    HW280744   0.363   3.299   9.586 -0.9415 -0.8759 -1.1668
25142SOL     OW80745   9.628  11.786   1.343  0.4794  0.3142 -0.2672
25142SOL    HW180746   9.558  11.757   1.285  0.5637 -0.8539  0.1884
25142SOL    HW280747   9.699  11.723   1.328  1.7423  1.8932 -1.2678
25143SOL     OW80748   3.097   2.378   5.634  0.0505  0.3645  0.3482
25143SOL    HW180749   3.033   2.310   5.657  0.3573 -0.6076 -1.4901
25143SOL    HW280750   3.117   2.420   5.718  0.0266 -1.9612  1.6199
25144SOL     OW80751   2.893  11.055   4.473 -0.0576 -0.1962 -0.9767
25144SOL    HW180752   2.861  11.029   4.559 -0.6953  2.4339 -0.3465
25144SOL    HW280753   2.887  10.975   4.420  0.8230 -2.0031  1.4984
25145SOL     OW80754   4.707   5.095   1.626 -0.0536 -0.0807 -0.5103
25145SOL    HW180755   4.765   5.040   1.679 -0.2736  0.3908  0.2287
25145SOL    HW280756   4.659   5.032   1.572 -0.4342 -0.6610  0.4553
25146SOL     OW80757   1.169  11.098   2.752  0.1558 -0.1117 -0.0709
25146SOL    HW180758   1.104  11.160   2.720 -0.9810 -1.0811  0.2776
25146SOL    HW280759   1.189  11.044   2.675  1.5021  0.9375 -0.5011
25147SOL     OW80760   5.240   5.250   0.580 -0.1438  0.5144 -0.2496
25147SOL    HW180761   5.153   5.212   0.566  0.2382  0.0763 -1.5836
25147SOL    HW280762   5.238   5.279   0.671 -0.7581 -1.9775  0.6378
25148SOL     OW80763   7.392  11.201  11.305  0.8791  0.3716 -0.3055
25148SOL    HW180764   7.485  11.220  11.318  1.3572 -1.2911 -1.0556
25148SOL    HW280765   7.384  11.179  11.212 -0.3215  0.7246 -0.3130
25149SOL     OW80766  10.918   2.493   2.439  0.2614 -0.1560  0.0047
25149SOL    HW180767  10.958   2.566   2.392  0.6574 -0.4733 -0.1567
25149SOL    HW280768  10.972   2.417   2.416 -0.2134 -0.5201  0.0823
25150SOL     OW80769   8.470   4.248   3.802 -0.5848 -0.6062 -0.1957
25150SOL    HW180770   8.449   4.156   3.813  0.0593 -0.8192 -0.7001
25150SOL    HW280771   8.431   4.291   3.879 -2.8565 -0.9533 -1.0581
25151SOL     OW80772   5.860   8.087   7.517  0.3468  0.9707 -0.3017
25151SOL    HW180773   5.784   8.103   7.461 -0.1528  2.5433  0.7284
25151SOL    HW280774   5.872   8.170   7.564  0.9725 -0.1413  1.6032
25152SOL     OW80775   6.795   7.150  11.676  0.0013 -0.4343 -0.7101
25152SOL    HW180776   6.711   7.110  11.657 -0.5131 -0.4278  1.3307
25152SOL    HW280777   6.838   7.090  11.737  0.6455  0.4732 -0.2311
25153SOL     OW80778   0.655   3.146   3.625  0.2142 -0.3167 -0.1558
25153SOL    HW180779   0.602   3.072   3.597  0.4744 -0.5657  0.0029
25153SOL    HW280780   0.598   3.197   3.683 -0.5114  0.4968 -1.5439
25154SOL     OW80781  11.556   3.904   2.121  0.3468 -0.0650 -0.2097
25154SOL    HW180782  11.477   3.938   2.164 -0.4763  0.2258 -1.8351
25154SOL    HW280783  11.621   3.899   2.190 -0.8207  0.6150  0.9964
25155SOL     OW80784   7.953   1.036   3.026  0.2847  0.3303  0.4599
25155SOL    HW180785   8.042   1.071   3.028  0.3174  0.2727  0.1703
25155SOL    HW280786   7.899   1.104   3.065  0.4488  0.3943  0.5743
25156SOL     OW80787   6.869  11.261   6.100  0.3941 -0.0891 -0.1600
25156SOL    HW180788   6.826  11.288   6.018  0.4133  2.2426  0.5272
25156SOL    HW280789   6.822  11.309   6.168  1.4571 -0.6895  1.0312
25157SOL     OW80790   0.831   1.306   9.034  0.8974  0.0240 -0.4751
25157SOL    HW180791   0.918   1.336   9.008  0.9880 -0.0887 -0.3061
25157SOL    HW280792   0.772   1.344   8.969  0.9282  1.1138  0.1124
25158SOL     OW80793   0.763   6.194  10.403  0.2051 -0.1433 -0.4626
25158SOL    HW180794   0.828   6.216  10.337 -1.6225 -0.2347 -2.3900
25158SOL    HW280795   0.738   6.278  10.442  0.4494  0.0511 -0.7239
25159SOL     OW80796  10.603   8.968   7.415  0.8402 -0.0615 -0.1238
25159SOL    HW180797  10.633   8.933   7.498 -0.7633 -1.1789  0.0242
25159SOL    HW280798  10.584   9.060   7.433  0.8298 -0.2114  0.6548
25160SOL     OW80799   9.916   2.681   3.443 -0.1414 -0.2536 -0.3483
25160SOL    HW180800   9.884   2.707   3.357  0.9237  0.4765 -0.5571
25160SOL    HW280801  10.001   2.640   3.425  0.5374  0.7710  0.4145
25161SOL     OW80802   0.518  10.295  11.225  0.1097 -0.5265  0.0005
25161SOL    HW180803   0.542  10.269  11.136 -1.7285  0.5412 -0.8648
25161SOL    HW280804   0.596  10.338  11.259  1.4597 -2.5337 -0.3732
25162SOL     OW80805  10.020   2.943   4.040 -0.1568  0.2599 -0.3330
25162SOL    HW180806   9.930   2.976   4.041  0.2755  1.6839  2.4548
25162SOL    HW280807  10.012   2.851   4.063 -0.8972  0.7480  1.5738
25163SOL     OW80808   8.741  11.673  10.639 -0.3991 -0.1481 -0.1266
25163SOL    HW180809   8.676  11.715  10.583 -0.6214 -1.3155 -0.7773
25163SOL    HW280810   8.810  11.645  10.579 -0.5664 -1.2768  0.1809
25164SOL     OW80811   3.530   1.644   9.099 -0.0598  0.2720 -0.6630
25164SOL    HW180812   3.460   1.580   9.106  0.8536 -0.7132 -0.3874
25164SOL    HW280813   3.602   1.597   9.057  0.4885  1.2303 -0.8286
25165SOL     OW80814   4.079   4.024   8.565  0.8789 -0.3389  0.2544
25165SOL    HW180815   4.079   4.114   8.533 -0.7428 -0.3393  0.2066
25165SOL    HW280816   4.118   3.974   8.493  0.9411  0.1940 -0.0918
25166SOL     OW80817  10.203   3.212   4.920  0.2041 -0.0299 -0.0724
25166SOL    HW180818  10.267   3.242   4.985 -0.3149 -1.2062  1.0164
25166SOL    HW280819  10.129   3.272   4.930  0.4832  0.3462 -0.2207
25167SOL     OW80820   7.504   6.270   3.075 -0.4714  0.2060 -0.4917
25167SOL    HW180821   7.431   6.229   3.122 -0.4383 -0.4980 -1.0359
25167SOL    HW280822   7.548   6.197   3.031  1.5433  0.3696  1.1039
25168SOL     OW80823   8.615   8.925   1.660 -0.3856 -0.1716  0.5520
25168SOL    HW180824   8.638   8.850   1.714 -0.0586  0.6346  1.5570
25168SOL    HW280825   8.669   8.916   1.581  0.4415 -0.4164  1.1367
25169SOL     OW80826   9.495   7.141   1.166  0.2482  0.3223  0.0554
25169SOL    HW180827   9.553   7.213   1.140 -0.8127  1.5948  1.0248
25169SOL    HW280828   9.426   7.141   1.100 -0.1724  0.7352  0.4866
25170SOL     OW80829   3.245  10.511   0.886 -0.2090 -0.2154 -0.3205
25170SOL    HW180830   3.336  10.517   0.915 -0.2679  0.1785 -0.2222
25170SOL    HW280831   3.239  10.423   0.848 -0.1037 -0.7077  0.7590
25171SOL     OW80832   9.782   6.102   8.664 -0.8705  0.1059 -0.1878
25171SOL    HW180833   9.702   6.073   8.619 -1.7662 -1.4445  2.2070
25171SOL    HW280834   9.818   6.023   8.702  0.5760  1.1425  0.7023
25172SOL     OW80835   7.107   4.546   3.003 -0.1039 -0.1874 -0.0630
25172SOL    HW180836   7.131   4.636   2.982  0.5098 -0.2364  0.4138
25172SOL    HW280837   7.140   4.494   2.930  0.0761 -0.0973 -0.0452
25173SOL     OW80838  10.492   6.882   3.929 -0.0737 -0.0433  0.1359
25173SOL    HW180839  10.399   6.904   3.928 -0.4611 -1.4774  1.1360
25173SOL    HW280840  10.499   6.803   3.875  0.0864 -1.4524  2.0832
25174SOL     OW80841   9.685   6.266   3.135 -0.5388  0.2732 -0.6660
25174SOL    HW180842   9.608   6.285   3.188 -0.5162  2.0531 -1.1765
25174SOL    HW280843   9.708   6.176   3.156 -0.9332  0.6824  1.8183
25175SOL     OW80844   6.111   9.076   2.615 -0.4083 -0.0447  0.0524
25175SOL    HW180845   6.201   9.109   2.612  0.1998 -1.6655 -1.3718
25175SOL    HW280846   6.116   8.998   2.670 -1.2416  0.5838  1.0491
25176SOL     OW80847   1.909   8.998   8.248  0.5371  0.6003  0.3402
25176SOL    HW180848   1.830   8.991   8.194  0.5592  0.1213  0.3737
25176SOL    HW280849   1.979   9.020   8.186  0.5218  0.2587  0.2017
25177SOL     OW80850  10.755   0.794   3.287  0.2853  0.2154  0.1315
25177SOL    HW180851  10.693   0.776   3.217  1.3613  2.4130 -1.4692
25177SOL    HW280852  10.817   0.720   3.284 -1.6602 -1.5811  1.2375
25178SOL     OW80853  10.153   6.660   0.370 -0.4639 -0.3777 -0.4987
25178SOL    HW180854  10.077   6.629   0.418 -0.4190 -1.0780 -0.8708
25178SOL    HW280855  10.225   6.655   0.433 -0.6666  0.0465 -0.2235
25179SOL     OW80856   0.709   6.253   5.819 -0.3610  0.3262 -0.0742
25179SOL    HW180857   0.761   6.249   5.899 -0.0470  0.9992 -0.2338
25179SOL    HW280858   0.722   6.342   5.787 -2.3996  0.8580  0.3994
25180SOL     OW80859   6.208   6.356   5.908  0.2640  0.0352  0.2788
25180SOL    HW180860   6.156   6.306   5.971  1.3848 -0.0422  1.1653
25180SOL    HW280861   6.249   6.290   5.853  2.6748 -0.1702  2.1761
25181SOL     OW80862   6.680   4.088   0.224 -0.0253 -0.1393  0.2354
25181SOL    HW180863   6.613   4.113   0.288  0.2618 -2.1901  1.4406
25181SOL    HW280864   6.667   3.993   0.212  0.4378  0.0305 -2.1999
25182SOL     OW80865   0.292   3.601   3.092 -0.3187  0.3620  0.1814
25182SOL    HW180866   0.335   3.526   3.052 -2.2119  0.1811 -1.7157
25182SOL    HW280867   0.344   3.676   3.065  0.1442 -0.0479 -0.0746
25183SOL     OW80868   9.207   6.817   3.684 -0.2306 -0.5790 -0.0312
25183SOL    HW180869   9.159   6.829   3.602  0.0548  1.6599  0.0452
25183SOL    HW280870   9.144   6.780   3.745 -0.9540 -0.6323 -0.8009
25184SOL     OW80871  11.270  11.372   5.845 -0.0666 -0.7192 -1.0048
25184SOL    HW180872  11.331  11.344   5.777  2.1343 -1.7872  1.2233
25184SOL    HW280873  11.272  11.301   5.910  0.0570  1.3717  1.4319
25185SOL     OW80874   7.807  10.345  11.734 -0.4647  0.2841  0.2637
25185SOL    HW180875   7.851  10.268  11.770 -1.9990 -0.3790  0.8152
25185SOL    HW280876   7.753  10.310  11.662 -0.6921  0.9423  0.1058
25186SOL     OW80877   9.755  10.280   3.359  0.1072 -0.1880  0.0429
25186SOL    HW180878   9.699  10.255   3.285 -0.8234  1.4955  0.1112
25186SOL    HW280879   9.776  10.372   3.342 -0.6407  0.4327  2.1782
25187SOL     OW80880   0.177  11.246   8.514  0.2427 -0.1824 -0.1481
25187SOL    HW180881   0.216  11.187   8.450 -0.2732  0.7139 -1.3462
25187SOL    HW280882   0.222  11.330   8.500 -1.6367  0.7303 -1.1971
25188SOL     OW80883   0.300   9.468   8.559  0.1586  0.3573 -0.5545
25188SOL    HW180884   0.253   9.401   8.609 -2.1190 -0.0421 -2.9791
25188SOL    HW280885   0.361   9.419   8.505  1.7183  0.6945  0.8015
25189SOL     OW80886  11.286  11.357   4.664 -0.3814 -0.2189 -0.2481
25189SOL    HW180887  11.336  11.280   4.636 -1.2231 -1.2903  1.0882
25189SOL    HW280888  11.314  11.426   4.603  1.4393 -1.1908 -0.6137
25190SOL     OW80889   3.748   6.368   4.626  0.0663  0.5577 -0.2671
25190SOL    HW180890   3.693   6.301   4.585  0.5507  0.7606 -1.2878
25190SOL    HW280891   3.755   6.340   4.718 -0.7773 -0.0896 -0.3820
25191SOL     OW80892   6.411   5.669   3.415 -0.8183  0.3330 -0.5284
25191SOL    HW180893   6.402   5.603   3.484 -0.5394  0.9240  0.0803
25191SOL    HW280894   6.400   5.620   3.334 -1.5654 -0.3017 -0.0546
25192SOL     OW80895  10.635   8.642   5.605 -0.6896 -0.0957 -0.5673
25192SOL    HW180896  10.601   8.715   5.553 -0.5632  1.9742  2.0285
25192SOL    HW280897  10.560   8.614   5.658  0.0699  0.4386  0.8398
25193SOL     OW80898   9.707   3.999   1.836 -0.6483  0.0854 -0.3302
25193SOL    HW180899   9.630   4.008   1.780 -0.0200  2.5680 -0.9408
25193SOL    HW280900   9.678   4.032   1.922 -0.6175 -0.2045 -0.2091
25194SOL     OW80901   9.668   7.137   4.917  0.5170 -0.0592  0.3997
25194SOL    HW180902   9.601   7.070   4.917 -0.4102  0.7809 -1.3305
25194SOL    HW280903   9.750   7.090   4.934 -0.4271 -1.1398  2.1969
25195SOL     OW80904   7.421   7.614  10.749  0.5157 -0.3749  0.3333
25195SOL    HW180905   7.353   7.547  10.744 -0.8177  0.7257  2.2071
25195SOL    HW280906   7.501   7.566  10.766 -0.1872 -1.5692  0.3985
25196SOL     OW80907   8.867   2.661   7.142 -0.3720  0.0446 -0.0711
25196SOL    HW180908   8.927   2.593   7.110 -2.9057 -1.5075 -1.8690
25196SOL    HW280909   8.922   2.717   7.198  3.0382 -0.5147 -2.5163
25197SOL     OW80910   0.248  11.541   1.069 -0.1277 -0.3496  0.4425
25197SOL    HW180911   0.307  11.466   1.082 -0.6607 -0.6153  1.3597
25197SOL    HW280912   0.208  11.555   1.155 -2.0068 -0.6740 -0.3351
25198SOL     OW80913   9.071   8.870   4.844 -0.2287 -0.0783 -0.2667
25198SOL    HW180914   9.079   8.786   4.889  1.3428 -0.3654 -1.0146
25198SOL    HW280915   9.143   8.871   4.781 -1.3633  1.0012 -1.6434
25199SOL     OW80916   8.117   1.376   7.184  0.6056  0.1656  0.2597
25199SOL    HW180917   8.105   1.372   7.089 -0.7441  0.7993  0.3752
25199SOL    HW280918   8.119   1.470   7.204  1.3236  0.0416  0.8216
25200SOL     OW80919   4.552   3.285   4.139  0.1106  0.5513 -0.4609
25200SOL    HW180920   4.521   3.200   4.106 -2.4766  1.8119 -1.5892
25200SOL    HW280921   4.586   3.329   4.062  0.9115  0.7694  0.0136
25201SOL     OW80922   3.991   1.316  11.027  0.2791  0.2062  0.3028
25201SOL    HW180923   4.005   1.315  10.933 -0.6336  0.6537  0.1563
25201SOL    HW280924   3.905   1.355  11.039 -0.6282 -1.9100  1.2108
25202SOL     OW80925   5.538   9.421   4.735  0.3705  0.0237  0.1336
25202SOL    HW180926   5.458   9.471   4.721  1.0849  1.1766  0.0905
25202SOL    HW280927   5.520   9.370   4.815 -1.3681 -1.7798 -1.3018
25203SOL     OW80928   0.583   7.395   7.629 -0.1534 -0.6211 -0.1743
25203SOL    HW180929   0.543   7.321   7.583  2.6141 -3.3039  1.4273
25203SOL    HW280930   0.516   7.423   7.692 -0.9701 -2.3819 -0.2030
25204SOL     OW80931   1.470   9.062   1.751  0.4187  0.3908 -0.1545
25204SOL    HW180932   1.545   9.003   1.760  0.4676  0.4648 -0.0865
25204SOL    HW280933   1.398   9.014   1.793  0.8260  1.0910  1.4213
25205SOL     OW80934  10.955   7.417   4.660 -0.0995 -0.1249  0.5610
25205SOL    HW180935  11.031   7.474   4.660  0.2077 -0.4842 -1.4122
25205SOL    HW280936  10.920   7.422   4.571 -1.9098 -0.6037  1.1878
25206SOL     OW80937  10.009  10.905   8.826  0.3314 -0.2656  0.0869
25206SOL    HW180938  10.023  10.831   8.885  0.5397  1.5025  2.3954
25206SOL    HW280939  10.069  10.890   8.753  0.9467 -1.9362  0.9034
25207SOL     OW80940   5.078  10.887   0.609 -0.2933  0.0466  0.3670
25207SOL    HW180941   5.065  10.867   0.702 -0.4426 -1.1076  0.1191
25207SOL    HW280942   4.994  10.865   0.569 -0.7120  1.8973  0.1414
25208SOL     OW80943  10.990   3.514   5.822 -0.1101 -0.2547  0.4757
25208SOL    HW180944  11.022   3.523   5.732 -1.6314  1.4799  0.0447
25208SOL    HW280945  11.009   3.423   5.845 -1.6669 -1.4855 -2.4494
25209SOL     OW80946   6.743   5.667  10.788 -0.1873 -0.5357 -0.3559
25209SOL    HW180947   6.697   5.635  10.865  0.3410  0.1170  0.2497
25209SOL    HW280948   6.773   5.588  10.743  1.6830 -0.9510  1.4626
25210SOL     OW80949  10.766   5.234   2.786  0.3045  0.3321 -0.2314
25210SOL    HW180950  10.785   5.144   2.760  0.8641  0.5591 -0.6443
25210SOL    HW280951  10.847   5.263   2.829  0.6454  1.0754 -1.3225
25211SOL     OW80952   3.889   5.333   7.652 -0.1113  0.3631 -0.5467
25211SOL    HW180953   3.902   5.374   7.566  2.7215 -0.4234 -0.5969
25211SOL    HW280954   3.908   5.240   7.637 -1.2782 -0.0859  0.6199
25212SOL     OW80955   0.552   9.433   2.433 -0.6089 -0.0659 -0.4801
25212SOL    HW180956   0.519   9.507   2.381 -1.2514  1.1453  1.5226
25212SOL    HW280957   0.474   9.382   2.453 -0.4850 -0.0791 -0.0426
25213SOL     OW80958   6.205   5.396  11.327 -0.2690  0.6872  0.1572
25213SOL    HW180959   6.235   5.389  11.237 -0.2186 -0.3855  0.2504
25213SOL    HW280960   6.280   5.432  11.375  0.1042  0.1328 -0.0106
25214SOL     OW80961   4.503   7.313   2.098  0.0083  0.4331  0.1528
25214SOL    HW180962   4.435   7.306   2.165  0.9478  1.3059  1.2444
25214SOL    HW280963   4.461   7.281   2.018 -1.0120 -1.0349  1.2229
25215SOL     OW80964   8.934   9.647   8.666 -0.2712 -0.0482  0.4626
25215SOL    HW180965   9.020   9.632   8.625  0.3727 -0.8689  2.0376
25215SOL    HW280966   8.891   9.710   8.608  0.5408 -1.2061 -1.5061
25216SOL     OW80967   0.026   1.722   8.438  0.4465 -0.2746  0.6169
25216SOL    HW180968   0.066   1.639   8.463 -0.2697 -0.5825  0.7528
25216SOL    HW280969  -0.048   1.732   8.497 -0.6776 -0.5400 -0.6968
25217SOL     OW80970   8.099   7.451   4.595  0.0846  0.1389  0.3217
25217SOL    HW180971   8.078   7.535   4.554 -1.3675 -0.5444 -0.4201
25217SOL    HW280972   8.185   7.427   4.560  0.1427  0.9200 -0.0951
25218SOL     OW80973  11.783   3.265   7.050 -0.5362 -0.1565  0.8700
25218SOL    HW180974  11.721   3.209   7.004  0.0988 -0.0897 -0.0866
25218SOL    HW280975  11.824   3.318   6.982 -0.6516  1.0179  1.6867
25219SOL     OW80976   3.411   9.495  11.453 -0.0038 -0.1766  0.2629
25219SOL    HW180977   3.359   9.513  11.531  1.7318  0.0051  1.4295
25219SOL    HW280978   3.479   9.434  11.482  2.0016  1.5311 -0.5196
25220SOL     OW80979   5.175   7.950   2.461  0.2004  0.0420 -0.0353
25220SOL    HW180980   5.177   7.856   2.477  0.6909  0.0429 -0.0756
25220SOL    HW280981   5.121   7.960   2.382 -1.4946 -0.0302  1.0861
25221SOL     OW80982   9.552   9.640   4.459 -0.6651 -0.2512 -0.6279
25221SOL    HW180983   9.541   9.672   4.370  1.0676  0.3266 -0.6643
25221SOL    HW280984   9.537   9.545   4.452 -0.6730 -0.1930 -1.4958
25222SOL     OW80985  10.192   7.321   7.516 -0.0465 -0.4517  0.1843
25222SOL    HW180986  10.227   7.287   7.433 -0.9754 -2.2794  0.4845
25222SOL    HW280987  10.097   7.313   7.507 -0.2449  0.8984  0.8191
25223SOL     OW80988   5.236   8.224   2.766 -0.2489 -0.2390  0.2005
25223SOL    HW180989   5.232   8.314   2.736 -0.5365 -0.5883 -0.8427
25223SOL    HW280990   5.229   8.230   2.862 -1.8398  0.7348  0.0492
25224SOL     OW80991   7.643   1.940   9.483  0.5941  0.8195 -0.1763
25224SOL    HW180992   7.560   1.986   9.475  0.3258  0.4292  0.2983
25224SOL    HW280993   7.640   1.872   9.416  0.2686  0.4200  0.2385
25225SOL     OW80994   0.350   4.089  11.075  0.0090 -0.5626  0.1684
25225SOL    HW180995   0.424   4.098  11.135 -1.0380 -2.0111  1.7777
25225SOL    HW280996   0.367   4.009  11.026 -0.6257 -1.0851  0.7823
25226SOL     OW80997   9.817   8.199   4.611  0.3005 -0.6231  0.3632
25226SOL    HW180998   9.724   8.220   4.609 -0.3642 -3.0353  1.2570
25226SOL    HW280999   9.861   8.283   4.606 -1.8909  0.5331 -1.1559
25227SOL     OW81000   4.371   9.839   8.456  0.2788  0.2787 -0.4197
25227SOL    HW181001   4.317   9.823   8.379 -0.1941 -1.3661  0.2178
25227SOL    HW281002   4.308   9.844   8.528  0.8730 -0.3793  0.1553
25228SOL     OW81003   4.429   1.541   4.135  0.6211  0.2339 -0.4819
25228SOL    HW181004   4.457   1.627   4.164 -0.3716  2.2077 -4.6171
25228SOL    HW281005   4.342   1.530   4.174  0.5060  1.4055 -0.3721
25229SOL     OW81006   7.418   8.719   3.503  0.2759  0.2085 -0.6247
25229SOL    HW181007   7.368   8.801   3.505  1.4764  0.9405  0.4358
25229SOL    HW281008   7.502   8.741   3.544 -0.0697 -2.0030  1.4325
25230SOL     OW81009   7.115   9.960   9.972  0.2001  0.0393  0.1405
25230SOL    HW181010   7.098  10.054   9.973  0.9477  0.1848  0.2146
25230SOL    HW281011   7.142   9.941   9.882 -0.5318 -0.2225 -0.0293
25231SOL     OW81012   4.688   8.245   0.480 -0.0242  0.3963  0.2178
25231SOL    HW181013   4.733   8.270   0.561  2.5143  1.1636 -1.3269
25231SOL    HW281014   4.668   8.152   0.491  0.0770  0.5391  1.7980
25232SOL     OW81015  11.591  10.848   7.246 -0.0774 -0.0917 -0.2553
25232SOL    HW181016  11.498  10.828   7.252  0.0917 -1.1798 -1.0867
25232SOL    HW281017  11.630  10.774   7.199  1.1130  0.6189 -0.4541
25233SOL     OW81018   4.282   1.822   0.766  0.1085 -0.3633 -0.1389
25233SOL    HW181019   4.296   1.841   0.859  2.2524  1.0428 -0.6698
25233SOL    HW281020   4.325   1.737   0.752  2.1140  0.6154 -0.2926
25234SOL     OW81021   9.441   3.234   2.660 -0.3548  0.1980 -0.0041
25234SOL    HW181022   9.377   3.164   2.644 -2.1369  1.9734 -1.0970
25234SOL    HW281023   9.399   3.292   2.723  0.8584  0.6192  0.4574
25235SOL     OW81024  10.143   1.926   7.389  0.2497  0.5335 -0.2251
25235SOL    HW181025  10.061   1.976   7.389 -1.2970 -1.8128 -0.8103
25235SOL    HW281026  10.121   1.844   7.433  2.2964 -0.1722 -0.4147
25236SOL     OW81027  10.063   2.264  10.814  0.3938 -0.1007 -0.3195
25236SOL    HW181028   9.971   2.283  10.833  0.6516  0.7355  0.1157
25236SOL    HW281029  10.112   2.328  10.865  1.2147 -0.2755 -0.8737
25237SOL     OW81030   5.466  11.766   1.448 -0.3953 -0.5954  0.2027
25237SOL    HW181031   5.532  11.834   1.431 -1.3423  0.2851 -0.0497
25237SOL    HW281032   5.453  11.768   1.542 -0.6531 -0.1999  0.1601
25238SOL     OW81033   2.811  10.932   4.103  0.3605  0.1761  0.4830
25238SOL    HW181034   2.792  11.019   4.137 -1.0764  0.7243 -1.5160
25238SOL    HW281035   2.853  10.948   4.018  0.8382 -1.0899  0.4512
25239SOL     OW81036   1.757   4.272  10.246  0.0444  0.0594  0.5045
25239SOL    HW181037   1.829   4.299  10.189 -0.8068  0.3063 -0.4886
25239SOL    HW281038   1.800   4.238  10.324  1.2072  1.4103  0.4963
25240SOL     OW81039   0.954   6.621  11.825 -0.5185 -0.1850 -0.1685
25240SOL    HW181040   1.035   6.670  11.838  0.0714 -0.8306 -1.2509
25240SOL    HW281041   0.885   6.687  11.826  0.0138  0.3840  0.6856
25241SOL     OW81042   3.205   7.218   7.398  0.3938 -0.6944  0.6799
25241SOL    HW181043   3.277   7.222   7.336 -1.3382 -0.4213 -1.4260
25241SOL    HW281044   3.227   7.145   7.456  1.5950 -1.6619 -0.9197
25242SOL     OW81045   4.171   1.965   8.556 -0.1392  0.0075 -0.3321
25242SOL    HW181046   4.091   1.992   8.512 -1.1654 -0.5548  1.0912
25242SOL    HW281047   4.195   2.040   8.611 -0.7191 -0.4469  0.5747
25243SOL     OW81048   3.820   6.204   8.677 -0.2540 -0.3946 -0.1163
25243SOL    HW181049   3.728   6.204   8.703  0.3414  1.3964  2.3668
25243SOL    HW281050   3.853   6.120   8.709 -1.1158 -1.3956 -1.7034
25244SOL     OW81051   6.678  10.201   1.201 -0.4402 -0.2699  0.0575
25244SOL    HW181052   6.607  10.140   1.219 -0.4465  0.4955  3.1495
25244SOL    HW281053   6.649  10.250   1.124 -1.7397 -2.1035 -0.6893
25245SOL     OW81054   9.223   8.226   1.929 -0.0634  0.2886  0.4425
25245SOL    HW181055   9.214   8.278   2.009 -0.0660  0.5069  0.3007
25245SOL    HW281056   9.141   8.177   1.923 -0.2601  0.6223  0.3287
25246SOL     OW81057   4.093   5.083   3.201  0.8479 -0.1176  0.5312
25246SOL    HW181058   4.103   4.992   3.228 -1.8265 -1.4038 -2.1580
25246SOL    HW281059   4.155   5.094   3.129 -0.5884 -0.7271 -0.8572
25247SOL     OW81060  11.128   5.177  10.700  0.1684  0.1698  0.5522
25247SOL    HW181061  11.048   5.228  10.714 -0.5017 -0.1482 -1.6462
25247SOL    HW281062  11.162   5.209  10.616  1.3471 -0.9573  0.5751
25248SOL     OW81063   4.765   8.585  11.618 -0.0027 -0.2349 -0.1357
25248SOL    HW181064   4.670   8.591  11.613  0.0110  2.8636  0.9016
25248SOL    HW281065   4.792   8.554  11.531 -1.9308 -2.5608 -0.0162
25249SOL     OW81066  11.550   4.959  10.164  0.3586  0.1782 -0.1601
25249SOL    HW181067  11.594   5.038  10.197  1.4673 -0.7899  0.7795
25249SOL    HW281068  11.461   4.965  10.199  0.9350  0.1735  1.4040
25250SOL     OW81069   3.483   7.336  11.637 -0.0042 -0.2891 -0.1184
25250SOL    HW181070   3.567   7.368  11.668 -0.3575  0.4614  0.1116
25250SOL    HW281071   3.443   7.412  11.595 -0.0240 -0.9771 -1.3884
25251SOL     OW81072  10.373   2.948  11.163  0.4190  0.1664 -0.2664
25251SOL    HW181073  10.443   2.997  11.205  1.8200  0.5281 -2.7677
25251SOL    HW281074  10.377   2.861  11.203  2.8167 -0.0372 -0.7819
25252SOL     OW81075  10.906  11.038   2.153  0.3459  0.0985  0.2983
25252SOL    HW181076  10.867  10.951   2.153 -2.7574  1.3914  0.8102
25252SOL    HW281077  10.883  11.074   2.067  0.2956  0.9783  0.6767
25253SOL     OW81078   4.352   1.534   9.561 -0.2208  0.1041  0.5886
25253SOL    HW181079   4.381   1.443   9.565  0.6338  0.3778  0.8312
25253SOL    HW281080   4.430   1.583   9.537 -0.8149  0.7172 -0.1137
25254SOL     OW81081   3.979   1.794   6.784 -0.0197  0.4085  0.4724
25254SOL    HW181082   4.025   1.750   6.713 -1.6670 -1.8941  0.7116
25254SOL    HW281083   4.048   1.843   6.831  1.6557 -0.6830 -0.7369
25255SOL     OW81084   1.060   1.398   2.331 -0.5133 -0.0564 -0.0597
25255SOL    HW181085   1.082   1.360   2.416 -0.7115  1.0958  0.5279
25255SOL    HW281086   0.965   1.408   2.333 -0.6102 -0.7451 -0.7450
25256SOL     OW81087   8.061   5.846   5.284 -0.1300  0.1832 -0.5942
25256SOL    HW181088   8.145   5.828   5.325 -0.2694 -1.0641 -0.8257
25256SOL    HW281089   8.078   5.841   5.190 -0.3019  0.7056 -0.6560
25257SOL     OW81090   4.391   6.567   2.354  0.0590 -0.0248  0.5873
25257SOL    HW181091   4.430   6.518   2.426  1.4166 -0.5863 -0.4852
25257SOL    HW281092   4.393   6.658   2.383 -0.7871 -0.3807  1.8452
25258SOL     OW81093   3.723   9.786  10.436  0.1440  0.3214 -0.0201
25258SOL    HW181094   3.749   9.697  10.460 -0.9186  0.1795  0.6820
25258SOL    HW281095   3.627   9.784  10.438  0.0621  0.9616 -1.9665
25259SOL     OW81096   9.603   8.179   6.380 -0.0573 -0.3907 -0.1551
25259SOL    HW181097   9.560   8.199   6.464  0.2055  0.9445 -0.3126
25259SOL    HW281098   9.671   8.116   6.403  0.0871  0.0404  0.6681
25260SOL     OW81099   4.714  11.475   5.248 -0.1209  0.2042  0.3605
25260SOL    HW181100   4.754  11.483   5.162  0.8394 -0.1215  0.7624
25260SOL    HW281101   4.639  11.417   5.235  0.8614 -1.0290  0.0024
25261SOL     OW81102   6.186   9.755   2.246  0.0124  0.1541 -0.0040
25261SOL    HW181103   6.131   9.707   2.307  1.3979 -1.5330 -0.0002
25261SOL    HW281104   6.126   9.788   2.180 -1.0116 -1.7939 -0.1146
25262SOL     OW81105   7.276   1.795   0.299 -0.1758  0.7346 -0.0916
25262SOL    HW181106   7.340   1.765   0.363 -0.5317  0.8728  0.3344
25262SOL    HW281107   7.219   1.854   0.348 -1.9141 -0.9971  0.0498
25263SOL     OW81108  10.130   9.109   4.485  0.5842 -0.9062 -0.6317
25263SOL    HW181109  10.176   9.191   4.504  1.8125 -1.7312  0.0797
25263SOL    HW281110  10.077   9.129   4.407  1.0046  0.4923 -0.5890
25264SOL     OW81111   9.931   1.844   6.152 -0.2003  0.2870  0.7501
25264SOL    HW181112   9.847   1.884   6.175 -2.5511 -2.7786 -1.6041
25264SOL    HW281113   9.933   1.763   6.203 -0.0790 -1.0119 -1.1987
25265SOL     OW81114   4.667   0.411  10.796 -0.1504  0.3951 -0.1436
25265SOL    HW181115   4.695   0.419  10.705  1.2460  0.2092  0.2497
25265SOL    HW281116   4.605   0.338  10.796 -0.4339  0.6272 -0.9929
25266SOL     OW81117  10.710   0.907   8.597 -0.3167 -0.3098 -0.5984
25266SOL    HW181118  10.640   0.928   8.536 -1.5879 -1.1955  0.5117
25266SOL    HW281119  10.666   0.882   8.678  1.2447 -1.6194 -0.0833
25267SOL     OW81120   0.908   2.050   2.596  0.4575 -0.2375  0.0771
25267SOL    HW181121   0.990   2.079   2.635 -0.0328  1.9450 -0.3538
25267SOL    HW281122   0.919   1.956   2.582  2.4953 -0.1606  0.9052
25268SOL     OW81123   7.399   7.039   9.754  0.0404  0.1478 -0.6306
25268SOL    HW181124   7.361   6.997   9.831  0.1588  1.0327 -0.0706
25268SOL    HW281125   7.328   7.092   9.718  0.1967  0.3256 -0.6801
25269SOL     OW81126   4.779   4.133   9.458  0.3805 -0.6245 -0.0785
25269SOL    HW181127   4.792   4.214   9.507  0.2653 -0.2733 -0.6165
25269SOL    HW281128   4.692   4.103   9.484 -0.1875  0.1990 -0.9481
25270SOL     OW81129   7.925   9.122  10.036  0.1506 -0.6486 -0.1928
25270SOL    HW181130   8.001   9.125   9.978  0.0987 -0.6244 -0.2608
25270SOL    HW281131   7.873   9.049  10.003  0.3522 -0.9351  0.1142
25271SOL     OW81132   8.228  11.581   4.456  0.4775 -0.1876  0.2783
25271SOL    HW181133   8.167  11.537   4.516  0.7910 -0.8395  0.1310
25271SOL    HW281134   8.190  11.567   4.369  0.0528  0.7113  0.3054
25272SOL     OW81135   7.284  11.400   1.680 -0.1571  0.4398 -0.1371
25272SOL    HW181136   7.193  11.425   1.663 -0.6260  0.3940  2.0207
25272SOL    HW281137   7.277  11.319   1.730  1.0778  0.4490  0.0693
25273SOL     OW81138   2.850   7.236  11.042  0.0641 -0.2955 -0.7334
25273SOL    HW181139   2.758   7.216  11.060  0.3231 -0.6458  0.2400
25273SOL    HW281140   2.853   7.332  11.038 -0.4199 -0.2937 -1.2248
25274SOL     OW81141   1.292  10.176   6.919 -0.4868  0.0420  0.1035
25274SOL    HW181142   1.330  10.115   6.856  0.6655  1.3890 -0.5642
25274SOL    HW281143   1.265  10.121   6.992  1.1368 -1.2154 -0.1800
25275SOL     OW81144   4.077   9.888  10.454  0.0711  0.0728 -0.3106
25275SOL    HW181145   3.989   9.910  10.485 -0.0357  0.8856 -1.1344
25275SOL    HW281146   4.073   9.794  10.436  0.2577 -0.5285  2.3829
25276SOL     OW81147   5.984   7.616   2.627  0.3173 -0.2343 -0.4634
25276SOL    HW181148   5.905   7.584   2.585 -0.1826  1.9055 -1.2553
25276SOL    HW281149   6.040   7.645   2.555  1.3051 -0.5493  0.1554
25277SOL     OW81150   9.150   0.390   6.261 -0.2972 -0.2823  0.2112
25277SOL    HW181151   9.239   0.409   6.289  0.2907  1.6754 -2.5512
25277SOL    HW281152   9.095   0.435   6.325  0.7356 -0.2028  1.0735
25278SOL     OW81153   3.071   0.356   3.114  0.3481 -0.1635 -0.6263
25278SOL    HW181154   3.098   0.297   3.184  0.0570 -0.2790 -0.6081
25278SOL    HW281155   2.979   0.334   3.099 -0.0603  0.9753  0.0840
25279SOL     OW81156   2.745   4.391   4.748  0.6103  0.4587  0.3081
25279SOL    HW181157   2.797   4.315   4.775 -0.0459 -0.4738 -0.9241
25279SOL    HW281158   2.786   4.422   4.667 -1.2251 -0.9156 -1.2470
25280SOL     OW81159   2.379   6.921   3.434 -0.1095  0.1001 -0.7119
25280SOL    HW181160   2.311   6.938   3.368 -0.6303  0.4025 -0.1085
25280SOL    HW281161   2.362   6.832   3.464 -1.4427  0.8140  0.7929
25281SOL     OW81162   2.707  10.060   4.607  0.1121 -0.3513 -0.0933
25281SOL    HW181163   2.677  10.093   4.523 -0.2291 -1.7439 -0.5362
25281SOL    HW281164   2.653   9.983   4.624  0.8868 -0.7016  0.8999
25282SOL     OW81165   1.195   4.023   6.351 -0.3740 -0.3998 -0.0702
25282SOL    HW181166   1.216   4.033   6.258 -0.3254  0.9671  0.0798
25282SOL    HW281167   1.240   4.095   6.394 -2.0610  0.1953  0.7586
25283SOL     OW81168   5.802  10.731   2.532  0.0827  0.1310  0.0269
25283SOL    HW181169   5.810  10.691   2.445  2.1913 -0.6641  0.5270
25283SOL    HW281170   5.892  10.749   2.558 -0.1795 -2.4513  3.3112
25284SOL     OW81171   6.353   7.404   2.468 -0.2004 -0.1786  0.2470
25284SOL    HW181172   6.376   7.474   2.529 -1.3267 -0.4809  1.0653
25284SOL    HW281173   6.389   7.432   2.384 -0.5818  1.3659  0.5665
25285SOL     OW81174   8.476   6.407   3.699  0.0595 -0.8858 -0.2568
25285SOL    HW181175   8.437   6.381   3.782 -0.3307  0.0997 -0.1128
25285SOL    HW281176   8.554   6.352   3.690  0.6612 -0.3408  1.2569
25286SOL     OW81177  10.542   0.870   3.972 -0.1700 -0.3852 -0.7076
25286SOL    HW181178  10.487   0.837   3.901 -0.8259 -2.7313  0.7633
25286SOL    HW281179  10.629   0.835   3.954 -0.2841 -0.7864 -0.4873
25287SOL     OW81180   3.195   7.988   9.367 -0.0941 -0.1550  0.2078
25287SOL    HW181181   3.115   7.949   9.402 -0.6485  0.7627 -0.0017
25287SOL    HW281182   3.177   8.082   9.365  1.3855  0.2032  1.2050
25288SOL     OW81183   6.828   6.634   8.275  0.0302 -0.2131 -0.0541
25288SOL    HW181184   6.772   6.681   8.337 -0.0775 -0.0827 -0.2494
25288SOL    HW281185   6.775   6.559   8.248  1.0624 -1.8176  2.0542
25289SOL     OW81186   7.205   2.069  11.070 -0.0105 -0.4102 -0.2286
25289SOL    HW181187   7.190   1.974  11.075  0.2198 -0.4131  0.4077
25289SOL    HW281188   7.284   2.077  11.017 -0.5027 -0.5290 -1.0015
25290SOL     OW81189   4.616   5.678   5.611  0.6123  0.1659 -0.2422
25290SOL    HW181190   4.664   5.757   5.586  0.7167  0.0154 -0.5142
25290SOL    HW281191   4.668   5.641   5.683 -0.7213  1.6591  1.5889
25291SOL     OW81192  10.580   0.517   9.294 -0.0804 -0.2151  0.6317
25291SOL    HW181193  10.588   0.430   9.334 -1.1172 -1.1709 -1.1349
25291SOL    HW281194  10.488   0.540   9.306 -0.7534 -1.0845 -2.1607
25292SOL     OW81195  10.750   8.712   9.567 -0.4415  0.7399  0.8756
25292SOL    HW181196  10.797   8.795   9.578  0.4281  0.6655 -1.6713
25292SOL    HW281197  10.745   8.676   9.656 -2.3335  4.2207  2.4015
25293SOL     OW81198   0.561   1.179   3.831  0.1901 -0.3299  0.4863
25293SOL    HW181199   0.583   1.129   3.910 -1.8344 -1.0234  0.6704
25293SOL    HW281200   0.645   1.212   3.800  1.3873 -2.2722  1.4287
25294SOL     OW81201  10.651   4.850  10.707  0.3976  0.7734  0.2501
25294SOL    HW181202  10.684   4.912  10.771 -0.4249 -0.0353  1.4904
25294SOL    HW281203  10.584   4.899  10.658 -0.3177  0.8474  1.2832
25295SOL     OW81204  10.584   2.542   5.327  0.0983 -0.1389  0.9444
25295SOL    HW181205  10.609   2.458   5.365  0.4734  0.1759  1.3969
25295SOL    HW281206  10.596   2.531   5.233 -0.6574 -0.8628  0.9178
25296SOL     OW81207   7.609   6.454   9.543 -0.2206  0.1896 -0.0527
25296SOL    HW181208   7.631   6.541   9.510  0.5053 -0.0154 -0.1270
25296SOL    HW281209   7.653   6.394   9.483 -0.5650 -0.2283  0.1059
25297SOL     OW81210   7.143  10.891   5.887  0.2299  0.2929  0.1232
25297SOL    HW181211   7.077  10.921   5.948 -1.0559 -0.4344 -0.8712
25297SOL    HW281212   7.121  10.933   5.804  0.2625 -0.8772 -0.5139
25298SOL     OW81213   1.013   5.134   7.189  0.2572  0.1013 -0.3761
25298SOL    HW181214   1.068   5.174   7.122  0.0169  1.4996  0.2311
25298SOL    HW281215   1.055   5.051   7.208  1.3669  0.5134 -0.9298
25299SOL     OW81216  11.585   8.581   4.254 -0.5407  0.2058  0.0342
25299SOL    HW181217  11.677   8.599   4.275 -1.1214  1.4732  1.6959
25299SOL    HW281218  11.554   8.661   4.212 -0.6039 -0.6722 -1.6984
25300SOL     OW81219   0.698   3.974   6.240  0.0517  0.2014  0.1626
25300SOL    HW181220   0.764   3.917   6.281 -0.1480 -2.4562 -2.7728
25300SOL    HW281221   0.615   3.928   6.254 -0.3506  0.5796 -0.8944
25301SOL     OW81222   9.852   6.441   5.541 -0.3473  0.1545  0.3167
25301SOL    HW181223   9.841   6.427   5.635 -0.1726  0.1787  0.3403
25301SOL    HW281224   9.808   6.366   5.500 -0.4469  0.1586  0.4175
25302SOL     OW81225   9.146   9.870   1.924  0.6656  0.3291  0.3998
25302SOL    HW181226   9.107   9.916   1.998 -2.1316 -3.3135  1.4560
25302SOL    HW281227   9.227   9.833   1.959  1.3711  1.8282  0.4115
25303SOL     OW81228   0.662   5.305   7.812  0.4505  0.1712  0.3243
25303SOL    HW181229   0.694   5.252   7.739  0.0139  2.6051 -1.7673
25303SOL    HW281230   0.708   5.388   7.803  1.1045  0.2501  3.4807
25304SOL     OW81231   5.384   8.092   2.554 -0.5458 -0.1729 -0.1816
25304SOL    HW181232   5.307   8.035   2.555 -0.9131  0.3197  0.2998
25304SOL    HW281233   5.350   8.178   2.580  0.2299 -0.0317  0.3901
25305SOL     OW81234  11.576   8.429   8.078  0.1180 -0.0289  0.2020
25305SOL    HW181235  11.622   8.513   8.079 -2.8108  1.7815 -1.1960
25305SOL    HW281236  11.557   8.411   8.169  1.9230  0.1047  0.6419
25306SOL     OW81237  11.207   6.213   0.431 -0.1112  0.2862 -0.0912
25306SOL    HW181238  11.173   6.254   0.510  2.0024  1.6544  0.1940
25306SOL    HW281239  11.268   6.277   0.395  0.0107 -0.8728 -2.0780
25307SOL     OW81240   5.729   0.070   2.343  0.3059 -0.4431 -0.6769
25307SOL    HW181241   5.651   0.055   2.396  0.2632  1.0375 -0.2963
25307SOL    HW281242   5.801   0.038   2.397  0.2060  0.5397  0.0659
25308SOL     OW81243   3.190   5.421   3.007 -0.3492  0.1617  0.8148
25308SOL    HW181244   3.128   5.420   2.934  1.0508  0.0576 -0.4288
25308SOL    HW281245   3.211   5.329   3.022  2.5539  0.2804 -1.5828
25309SOL     OW81246   3.147   2.251   6.828 -0.0676  0.1397  0.3320
25309SOL    HW181247   3.105   2.251   6.914  2.3329 -0.2893  1.5922
25309SOL    HW281248   3.206   2.176   6.830  2.3052  1.8438 -0.4514
25310SOL     OW81249   8.573   8.302   6.158  0.3757 -0.1595 -0.4337
25310SOL    HW181250   8.533   8.220   6.186  0.7897 -0.2536 -0.1013
25310SOL    HW281251   8.549   8.365   6.226  1.9508 -0.5455  0.5589
25311SOL     OW81252   0.225   7.624   4.972 -0.5475  0.7593  0.3438
25311SOL    HW181253   0.214   7.533   4.941  0.4459  0.3358  1.1917
25311SOL    HW281254   0.180   7.625   5.057  0.4648  0.7194  0.8946
25312SOL     OW81255   3.128   3.534   6.959  0.6576  0.5007  0.5063
25312SOL    HW181256   3.152   3.470   7.026 -1.3438 -1.1765 -0.2593
25312SOL    HW281257   3.038   3.558   6.979  0.5701  1.2460 -0.6382
25313SOL     OW81258  11.271   4.569   7.974 -0.1210 -0.1363  0.6422
25313SOL    HW181259  11.355   4.589   7.933  2.0023  0.1698  4.5949
25313SOL    HW281260  11.215   4.644   7.952  0.4680 -0.4082 -2.1833
25314SOL     OW81261   8.105   8.035   0.530  0.0160  0.2638 -0.4233
25314SOL    HW181262   8.134   7.951   0.565 -0.6896  0.5743  0.9546
25314SOL    HW281263   8.138   8.035   0.439  0.9797 -1.0078 -0.1115
25315SOL     OW81264   8.296  10.053   2.578  0.2557 -0.5216  0.2520
25315SOL    HW181265   8.269   9.963   2.557 -0.0506 -0.3724  0.0025
25315SOL    HW281266   8.228  10.108   2.538  1.3071 -0.1105 -1.0421
25316SOL     OW81267   1.819   8.281   8.325  0.5991  0.3711 -0.2044
25316SOL    HW181268   1.736   8.322   8.349  0.7125  1.4443 -1.5151
25316SOL    HW281269   1.801   8.187   8.327 -0.4365  0.5691  0.2346
25317SOL     OW81270   5.418   8.096   3.155  0.2165  0.2119  0.0631
25317SOL    HW181271   5.464   8.106   3.072  1.1943  0.0927  0.5748
25317SOL    HW281272   5.466   8.152   3.216  0.4916 -0.9146  0.9182
25318SOL     OW81273  10.949   6.526   2.562 -0.3902 -0.3167  0.1999
25318SOL    HW181274  10.927   6.601   2.617 -0.7646  1.7345 -2.5455
25318SOL    HW281275  10.968   6.456   2.624 -1.9668  1.4516  2.9029
25319SOL     OW81276  10.467   3.977   8.769  0.4000 -0.0963 -0.2191
25319SOL    HW181277  10.522   4.000   8.844  0.7569  0.5199 -0.6644
25319SOL    HW281278  10.477   4.050   8.709 -0.7324 -0.0817 -0.4089
25320SOL     OW81279   4.627   4.283   3.420 -0.7055 -0.1989  0.4286
25320SOL    HW181280   4.559   4.220   3.397 -0.6109  0.4217 -1.6948
25320SOL    HW281281   4.590   4.332   3.494 -1.6618 -1.2686  0.6853
25321SOL     OW81282   9.239   2.579   9.069  0.1820  0.4768 -0.5765
25321SOL    HW181283   9.306   2.589   9.001 -1.1521 -1.2327 -2.2286
25321SOL    HW281284   9.158   2.608   9.028 -0.4601  0.4929  0.6731
25322SOL     OW81285   2.006  11.682   7.929 -0.3971  0.1005  0.2684
25322SOL    HW181286   1.946  11.616   7.963 -1.1403  0.8285  0.4078
25322SOL    HW281287   1.956  11.763   7.931  0.6014  0.7351  0.3970
25323SOL     OW81288   3.124  10.915   6.075 -0.6127  0.0117  0.3033
25323SOL    HW181289   3.047  10.962   6.108 -1.9651 -2.7823  1.4406
25323SOL    HW281290   3.198  10.955   6.122 -1.6730  0.9629  1.2279
25324SOL     OW81291   4.607   6.252   1.537 -0.1133  0.2164  0.6228
25324SOL    HW181292   4.550   6.316   1.494 -0.9485  0.6070  2.2504
25324SOL    HW281293   4.685   6.303   1.562 -0.2027  0.2866  0.7554
25325SOL     OW81294   8.151   3.018  11.152 -0.1983 -0.1409  0.3637
25325SOL    HW181295   8.098   2.940  11.140  0.9765 -0.8263 -0.5839
25325SOL    HW281296   8.239   2.991  11.128  0.0279  1.7917 -1.1701
25326SOL     OW81297   9.655   9.067  10.965 -0.0576 -0.2847 -0.2372
25326SOL    HW181298   9.726   9.131  10.953 -1.7972  1.6359 -0.9104
25326SOL    HW281299   9.601   9.104  11.034 -1.9720 -0.1483 -1.7250
25327SOL     OW81300   2.190  10.393   8.083  0.1842  0.7549  0.2061
25327SOL    HW181301   2.098  10.366   8.089 -0.1699  1.9109  0.0843
25327SOL    HW281302   2.231  10.353   8.160 -0.7024  1.3084  0.9859
25328SOL     OW81303  10.852   6.577   1.617 -0.0924  0.3034  0.2844
25328SOL    HW181304  10.879   6.548   1.530 -0.4366  1.5228 -0.2511
25328SOL    HW281305  10.777   6.521   1.639 -0.8552  0.8769 -0.7996
25329SOL     OW81306   8.976   6.087   2.020  0.0932 -0.0965  0.9177
25329SOL    HW181307   8.967   5.999   1.983 -0.6100  0.3703 -0.0845
25329SOL    HW281308   9.070   6.099   2.029  0.3831  0.0146 -1.4619
25330SOL     OW81309  10.009   3.986   2.217 -0.1365 -0.4729  0.2475
25330SOL    HW181310   9.981   3.896   2.232 -0.0942 -0.5696 -0.2258
25330SOL    HW281311  10.005   3.997   2.122 -0.8545  0.2513  0.3415
25331SOL     OW81312   6.472   9.172  11.580  0.2011  0.8333 -0.5805
25331SOL    HW181313   6.382   9.140  11.569  0.4337  0.3282 -1.0338
25331SOL    HW281314   6.513   9.160  11.495  1.2963 -0.8272  0.1414
25332SOL     OW81315   8.409   7.361   0.047 -0.5198 -0.1127 -0.4971
25332SOL    HW181316   8.442   7.282   0.090  1.3895  0.3730 -0.9844
25332SOL    HW281317   8.486   7.401   0.008 -1.0575  2.9663  1.2485
25333SOL     OW81318   6.510   4.632   7.801  0.0774 -0.9214 -0.2520
25333SOL    HW181319   6.440   4.567   7.793 -0.7317 -0.4852  2.3431
25333SOL    HW281320   6.586   4.581   7.832  0.0546 -0.9480 -0.2391
25334SOL     OW81321   5.162   7.013   1.506 -0.1726  0.2193 -0.2627
25334SOL    HW181322   5.134   7.079   1.570 -1.7365  0.4152 -1.1061
25334SOL    HW281323   5.082   6.987   1.461  0.7732 -0.5059 -1.6099
25335SOL     OW81324   2.300   8.604  10.474  0.3707  0.3366 -0.3871
25335SOL    HW181325   2.349   8.672  10.520 -0.1165  0.1573  0.4235
25335SOL    HW281326   2.209   8.631  10.481  0.3368  0.6599 -1.8748
25336SOL     OW81327  11.705   7.622  10.247 -0.1294 -0.8489 -0.0888
25336SOL    HW181328  11.675   7.585  10.164 -0.7982  1.9850 -1.2385
25336SOL    HW281329  11.718   7.715  10.229 -0.9888  0.0473  3.1494
25337SOL     OW81330   8.976   5.071  11.632 -0.4175 -0.0031 -0.4167
25337SOL    HW181331   9.053   5.122  11.607  0.6544 -1.0222  0.6717
25337SOL    HW281332   8.981   4.992  11.578  0.1397 -0.7393  0.6699
25338SOL     OW81333   8.532   7.082   4.379  0.5716 -0.3307  0.1751
25338SOL    HW181334   8.512   6.995   4.345  2.9511 -0.7171 -0.4206
25338SOL    HW281335   8.448   7.128   4.379 -0.3966 -1.9562 -1.4629
25339SOL     OW81336   8.414   3.101   3.726 -0.3809  0.1593 -0.1853
25339SOL    HW181337   8.392   3.080   3.816 -1.3457 -1.4686 -0.7593
25339SOL    HW281338   8.461   3.184   3.731 -0.3670  0.0660  1.8050
25340SOL     OW81339   5.022  11.036   3.430 -0.1468  0.0195 -0.1961
25340SOL    HW181340   5.075  11.006   3.357  0.2718 -0.5097  0.3167
25340SOL    HW281341   4.960  10.964   3.446 -0.4477  0.2688 -0.2368
25341SOL     OW81342  11.550   7.313   2.063 -0.0326  0.4603  0.3126
25341SOL    HW181343  11.471   7.330   2.012  0.0468 -1.1171 -0.3953
25341SOL    HW281344  11.522   7.248   2.129  0.4864  0.5009  0.5750
25342SOL     OW81345   7.875   3.308   1.167  0.3744  0.2305 -0.8672
25342SOL    HW181346   7.835   3.248   1.230  0.7906  0.9537  0.1015
25342SOL    HW281347   7.920   3.374   1.220 -0.5508  1.7558 -1.8902
25343SOL     OW81348   8.401   6.806   6.110 -0.2385  0.2041  0.3777
25343SOL    HW181349   8.327   6.846   6.157 -0.1473  0.8609 -0.0198
25343SOL    HW281350   8.371   6.801   6.020 -0.6577 -1.6456  0.5887
25344SOL     OW81351   5.156   0.211   0.017 -0.2559 -0.2189 -0.3137
25344SOL    HW181352   5.251   0.214   0.020 -0.2318 -0.7080 -0.4908
25344SOL    HW281353   5.132   0.131   0.064 -0.6739  0.7395  1.1664
25345SOL     OW81354   8.450   4.156   1.787 -0.2361  1.0145 -0.1832
25345SOL    HW181355   8.482   4.197   1.868  1.4869 -0.4303 -0.0808
25345SOL    HW281356   8.524   4.159   1.727 -1.0290  0.7297 -1.1992
25346SOL     OW81357   3.150   1.859   8.588  0.0106 -0.5438 -0.1281
25346SOL    HW181358   3.234   1.857   8.542  0.8336 -0.3708  1.3170
25346SOL    HW281359   3.139   1.771   8.623  0.0671 -0.2949  0.5183
25347SOL     OW81360   4.419   7.321   2.698  0.2247 -0.7003 -0.8648
25347SOL    HW181361   4.425   7.413   2.725  0.8404 -1.2450  0.9899
25347SOL    HW281362   4.342   7.287   2.744  0.1966 -1.2022 -1.2697
25348SOL     OW81363   0.058   6.867   3.055 -0.3218  0.0618  0.2195
25348SOL    HW181364   0.067   6.893   3.146  0.9974  2.0153 -0.4227
25348SOL    HW281365   0.141   6.826   3.033 -0.7472 -0.6820 -0.0395
25349SOL     OW81366   8.993   0.213   4.406 -0.1083  0.1197  0.4141
25349SOL    HW181367   8.986   0.198   4.500  1.2463  0.0752  0.5234
25349SOL    HW281368   9.073   0.168   4.380 -0.2644  0.4469 -0.6940
25350SOL     OW81369  10.879   0.746   9.633  0.6149 -0.2637  0.1515
25350SOL    HW181370  10.947   0.693   9.674 -0.3051 -0.5854  1.3343
25350SOL    HW281371  10.809   0.750   9.698  0.2060  1.5154 -0.3355
25351SOL     OW81372  11.453   9.996  11.804 -0.9798 -0.0760 -0.0305
25351SOL    HW181373  11.517  10.063  11.780 -0.0084 -1.1487 -0.5058
25351SOL    HW281374  11.369  10.030  11.773 -0.6541  1.3187  0.5317
25352SOL     OW81375   2.346  11.229   9.095  0.0441  0.1388 -0.4510
25352SOL    HW181376   2.274  11.169   9.077 -0.1547 -0.8367  2.8553
25352SOL    HW281377   2.304  11.315   9.103 -0.4543 -0.1057 -0.3970
25353SOL     OW81378  10.630  11.299   1.915 -0.3872 -0.0071  0.0919
25353SOL    HW181379  10.539  11.299   1.943  0.1035 -0.1127  1.7996
25353SOL    HW281380  10.678  11.341   1.986  0.9306 -0.1755 -0.6526
25354SOL     OW81381  10.279   0.272   0.062 -0.2136 -0.0841  0.0373
25354SOL    HW181382  10.201   0.325   0.046  0.2285  0.3665 -0.6602
25354SOL    HW281383  10.257   0.186   0.024  0.4843  0.7131 -2.3447
25355SOL     OW81384   1.262  10.323   5.170  0.2404 -0.3812  0.5510
25355SOL    HW181385   1.196  10.365   5.226 -1.9270 -0.2956 -1.8930
25355SOL    HW281386   1.312  10.396   5.134  0.1499 -0.2710  0.6457
25356SOL     OW81387   7.748   7.419  11.086 -0.1516 -0.0534  0.3081
25356SOL    HW181388   7.824   7.362  11.100 -0.4573 -0.7123 -0.5815
25356SOL    HW281389   7.781   7.508  11.100  0.6807 -0.3632  0.3585
25357SOL     OW81390   3.305   7.939   4.738 -0.5181 -0.3278  0.1008
25357SOL    HW181391   3.316   7.936   4.643 -0.3426 -0.1840  0.1150
25357SOL    HW281392   3.293   7.848   4.765 -1.9925 -0.2554 -0.2239
25358SOL     OW81393   8.724  11.185   8.910 -0.0848  0.3805 -0.0766
25358SOL    HW181394   8.794  11.119   8.910  0.2715  0.7539 -0.2568
25358SOL    HW281395   8.682  11.175   8.995  0.7597  0.7458  0.4072
25359SOL     OW81396   9.159   3.280   6.753 -0.1098  0.5130 -0.2699
25359SOL    HW181397   9.115   3.195   6.762  0.4638  0.2481  0.0813
25359SOL    HW281398   9.160   3.297   6.659  1.4946 -0.7980 -0.5263
25360SOL     OW81399   2.457   6.662   7.687  0.0288 -0.5409  0.1885
25360SOL    HW181400   2.482   6.684   7.597  0.7723  1.3241  0.8147
25360SOL    HW281401   2.514   6.715   7.742 -0.8971 -1.1149  1.7789
25361SOL     OW81402   4.887   8.165   4.146 -0.1010  0.5883 -0.3454
25361SOL    HW181403   4.923   8.092   4.196 -1.2003  0.5201  0.3746
25361SOL    HW281404   4.879   8.131   4.057  1.9858  0.7485 -0.6423
25362SOL     OW81405  11.260  11.178   3.718  0.3444  0.3128  0.2266
25362SOL    HW181406  11.346  11.170   3.677  0.3003  0.2918  0.1401
25362SOL    HW281407  11.208  11.229   3.656 -0.3728 -1.5122 -0.7478
25363SOL     OW81408   6.534   4.944   2.784  0.3069 -0.4334 -0.2452
25363SOL    HW181409   6.526   4.986   2.870 -1.4796 -0.9283 -0.1438
25363SOL    HW281410   6.629   4.933   2.773  0.6146  0.2050  1.3766
25364SOL     OW81411   5.466   3.893   1.596  0.3035  0.0204  0.2772
25364SOL    HW181412   5.548   3.943   1.600  1.4773 -1.3712 -2.8856
25364SOL    HW281413   5.399   3.959   1.577  0.5435  1.2143  3.1506
25365SOL     OW81414   6.045   6.938   3.766  0.2971  0.3984  0.0501
25365SOL    HW181415   6.077   6.937   3.856 -0.0487 -0.3588  0.1747
25365SOL    HW281416   5.960   6.894   3.770 -0.2506  1.3693 -0.4591
25366SOL     OW81417   5.425  10.404   7.279  0.0989 -0.2930 -0.3329
25366SOL    HW181418   5.479  10.458   7.337 -2.0093  1.8223 -0.1830
25366SOL    HW281419   5.378  10.467   7.224 -0.3274 -2.1280 -2.1897
25367SOL     OW81420   0.070   7.586  11.427 -0.0738  0.2627 -0.5717
25367SOL    HW181421   0.009   7.512  11.425 -1.3481  1.2758 -0.3605
25367SOL    HW281422   0.121   7.574  11.507 -1.4305  0.4803  0.3641
25368SOL     OW81423   2.191   1.183   8.726  1.0302 -0.2305 -0.1123
25368SOL    HW181424   2.227   1.212   8.810 -1.2206  1.0282  0.5184
25368SOL    HW281425   2.120   1.123   8.750 -0.9749  1.6559 -0.8909
25369SOL     OW81426  10.372   1.002   0.419  0.1697 -0.9469 -0.2751
25369SOL    HW181427  10.339   0.919   0.386  1.4016 -0.7287 -2.2264
25369SOL    HW281428  10.450   0.979   0.469  0.8843 -0.9736 -1.3504
25370SOL     OW81429   8.603  10.502   6.558  0.1397 -0.4727  0.5021
25370SOL    HW181430   8.569  10.522   6.471  1.3208 -0.9583 -0.0902
25370SOL    HW281431   8.585  10.581   6.610 -0.6994 -0.2360 -0.1362
25371SOL     OW81432  11.603   4.026  10.625  0.2224  0.0593 -0.2447
25371SOL    HW181433  11.516   4.052  10.654 -0.8061 -1.0573 -2.1657
25371SOL    HW281434  11.659   4.100  10.649 -0.8574  0.1252  2.5350
25372SOL     OW81435   0.696  11.376   5.182 -0.3746  0.1237 -0.3609
25372SOL    HW181436   0.625  11.411   5.236 -0.7244  0.5574 -1.0742
25372SOL    HW281437   0.675  11.408   5.093 -1.7256 -3.3712 -1.4688
25373SOL     OW81438   8.416   0.609   8.863  0.5190  0.1847 -0.4775
25373SOL    HW181439   8.437   0.671   8.794  0.6198 -0.2881 -0.8816
25373SOL    HW281440   8.499   0.564   8.880  0.1751 -0.6814 -1.0478
25374SOL     OW81441   9.628   8.945   6.644  0.1566  0.3774 -0.3240
25374SOL    HW181442   9.714   8.919   6.611 -0.4247 -0.9071 -0.8884
25374SOL    HW281443   9.647   9.011   6.711  1.5979 -0.1946 -0.1320
25375SOL     OW81444   2.251   3.371   9.432  0.2915  0.2111 -0.3520
25375SOL    HW181445   2.326   3.378   9.373  0.2292  1.7001 -0.2967
25375SOL    HW281446   2.179   3.340   9.376  0.2764  1.4352 -1.0563
25376SOL     OW81447   9.590   8.643   6.112 -0.7207  0.4047  0.0496
25376SOL    HW181448   9.569   8.573   6.174  0.6172  0.0238  0.1072
25376SOL    HW281449   9.514   8.645   6.052 -0.3388 -1.8778 -0.6354
25377SOL     OW81450   8.199   2.859   9.174  0.3132 -0.1123 -0.7503
25377SOL    HW181451   8.244   2.842   9.091 -0.8233  1.2347 -1.6760
25377SOL    HW281452   8.126   2.915   9.151 -0.1734  0.0998  1.1511
25378SOL     OW81453   9.661   8.452   5.505 -0.0508  0.2964 -0.7347
25378SOL    HW181454   9.654   8.535   5.551 -0.4126 -0.1889  0.1201
25378SOL    HW281455   9.648   8.386   5.574  1.6932 -0.4936 -1.1133
25379SOL     OW81456  11.657  11.392   2.597 -0.2175  0.6936 -0.0134
25379SOL    HW181457  11.579  11.342   2.621  0.0413  0.4915  0.4133
25379SOL    HW281458  11.625  11.456   2.532 -0.4034 -0.4983 -1.1413
25380SOL     OW81459   9.037   6.965  10.496  0.0016 -0.1014  0.4306
25380SOL    HW181460   8.983   6.971  10.416 -0.1256  0.9611  0.5778
25380SOL    HW281461   9.071   7.054  10.508 -0.6244 -0.0387  1.9974
25381SOL     OW81462  11.521   2.070   4.297  0.4537 -0.2659  0.4755
25381SOL    HW181463  11.554   1.980   4.304 -1.9396 -1.3026 -0.4204
25381SOL    HW281464  11.490   2.091   4.384 -1.9798 -1.6516  0.0332
25382SOL     OW81465   8.362   8.666   6.796  0.3637 -0.2348 -0.3843
25382SOL    HW181466   8.358   8.738   6.733  0.0293 -0.6395 -0.8325
25382SOL    HW281467   8.270   8.644   6.813  0.3587  1.1385  1.7342
25383SOL     OW81468   6.273   4.607   1.615  0.2263  0.2649  0.6200
25383SOL    HW181469   6.359   4.567   1.625  0.2131  0.1880  0.4291
25383SOL    HW281470   6.259   4.610   1.521 -0.1196 -0.0250  0.6590
25384SOL     OW81471   9.529   2.349   0.136 -0.1727 -0.1406 -0.1623
25384SOL    HW181472   9.607   2.392   0.172 -0.5768 -0.6071  1.3495
25384SOL    HW281473   9.497   2.408   0.068  1.0638  0.4103 -0.2832
25385SOL     OW81474   3.576   8.292   6.526  0.4474 -0.0466  0.1036
25385SOL    HW181475   3.506   8.277   6.588 -0.2035 -2.4797 -1.0708
25385SOL    HW281476   3.656   8.269   6.574  0.1021 -0.4370  0.4992
25386SOL     OW81477   9.200   8.581  10.607  0.5107  0.2099 -0.2835
25386SOL    HW181478   9.114   8.562  10.571  1.2854 -1.6569 -1.2607
25386SOL    HW281479   9.208   8.523  10.683  1.6257 -1.1105 -1.3498
25387SOL     OW81480  10.913   7.631   3.884 -0.0231  0.2837 -0.7729
25387SOL    HW181481  10.855   7.580   3.827 -0.1703 -0.4774  0.0272
25387SOL    HW281482  10.994   7.639   3.834  0.2917 -1.4682 -0.6306
25388SOL     OW81483   4.216  11.618   0.894 -0.0317  0.3375  0.0403
25388SOL    HW181484   4.194  11.648   0.806 -1.5368 -1.1440 -0.1418
25388SOL    HW281485   4.308  11.643   0.906  0.2152  0.5341 -1.9531
25389SOL     OW81486  10.153   1.870   2.960 -0.0623 -0.6860 -0.4570
25389SOL    HW181487  10.102   1.820   3.024  0.0763 -1.9482 -1.3082
25389SOL    HW281488  10.093   1.937   2.928 -1.0199 -1.7674 -1.0046
25390SOL     OW81489   7.128   2.298   9.598 -0.6203 -0.3458  0.0303
25390SOL    HW181490   7.090   2.383   9.577  0.5469  0.2219  0.1965
25390SOL    HW281491   7.217   2.301   9.564 -0.0887 -0.9684  1.2997
25391SOL     OW81492  10.318   2.609   5.398  0.4333  0.0224 -0.1749
25391SOL    HW181493  10.306   2.672   5.468 -1.0436 -1.2004  0.7336
25391SOL    HW281494  10.409   2.579   5.408  0.4189  0.2869  0.8545
25392SOL     OW81495   3.340   9.833   0.980  0.0175  0.3572 -0.0615
25392SOL    HW181496   3.282   9.909   0.976 -2.0142 -1.1550 -1.9493
25392SOL    HW281497   3.335   9.804   1.071 -0.9375  1.2111  0.1811
25393SOL     OW81498   8.517   3.635   6.308 -0.1661 -0.0974  0.1320
25393SOL    HW181499   8.594   3.690   6.326  0.6397 -1.0389 -0.3126
25393SOL    HW281500   8.543   3.582   6.233 -1.0065 -0.9259  0.4140
25394SOL     OW81501   5.227   8.321   2.334 -0.5368  0.2667  0.4205
25394SOL    HW181502   5.170   8.288   2.404 -0.8302  0.6871  0.3809
25394SOL    HW281503   5.230   8.249   2.270 -0.7918  0.1337  0.5590
25395SOL     OW81504   2.663   3.027   7.003  0.7358 -0.4913  0.1043
25395SOL    HW181505   2.673   2.954   7.064 -1.2141 -0.6455  0.2980
25395SOL    HW281506   2.611   3.092   7.052 -0.4495 -0.4204 -1.1906
25396SOL     OW81507  11.745   8.202   8.039 -0.4133  0.4078 -0.4775
25396SOL    HW181508  11.837   8.227   8.036 -0.2139 -0.2086  0.1957
25396SOL    HW281509  11.698   8.285   8.048 -0.1113  0.9511 -3.0953
25397SOL     OW81510   3.122   5.949   3.607 -0.5483 -0.0049  0.0647
25397SOL    HW181511   3.075   5.884   3.554 -1.8125 -0.2795  1.4527
25397SOL    HW281512   3.063   6.024   3.611 -0.0913  0.3442  0.3754
25398SOL     OW81513   1.825  10.132  11.759 -0.0171  0.3210  0.2015
25398SOL    HW181514   1.789  10.139  11.670 -0.3117 -0.2481  0.2747
25398SOL    HW281515   1.911  10.175  11.753  1.2134 -2.1057 -1.0684
25399SOL     OW81516  10.218   4.346   8.008  0.4633 -0.6828 -0.5417
25399SOL    HW181517  10.157   4.420   8.017  0.0591 -1.0797  0.1433
25399SOL    HW281518  10.305   4.385   8.016  0.2347 -0.3691  0.6088
25400SOL     OW81519  10.089  10.824   7.680  0.0549  0.0394  0.2550
25400SOL    HW181520  10.182  10.819   7.661 -0.0712  1.5041 -0.8970
25400SOL    HW281521  10.083  10.819   7.775  1.4409  1.5558  0.4602
25401SOL     OW81522   5.698  10.235   7.259  0.1661  0.0944 -0.1741
25401SOL    HW181523   5.653  10.200   7.182 -0.7315 -1.3457  0.9395
25401SOL    HW281524   5.646  10.311   7.285  0.6563  0.7795 -1.1407
25402SOL     OW81525   2.503  10.707   7.352  0.6223  0.4796  0.7264
25402SOL    HW181526   2.576  10.745   7.302 -0.2482 -0.4560 -1.3844
25402SOL    HW281527   2.489  10.621   7.313 -0.2023 -0.2768  2.5763
25403SOL     OW81528   4.176   6.213   5.724  0.2142  0.5082  0.1684
25403SOL    HW181529   4.232   6.190   5.649 -1.5194  0.0306 -1.0318
25403SOL    HW281530   4.185   6.308   5.732  2.2887  0.2980  0.9411
25404SOL     OW81531   4.487   4.964   0.862  0.1950 -0.3284 -0.0645
25404SOL    HW181532   4.549   4.978   0.934  0.6233  0.0464 -0.5048
25404SOL    HW281533   4.455   5.051   0.840 -1.0396 -0.5788  0.6286
25405SOL     OW81534   4.766  10.217   0.997 -0.4431 -0.0645  0.0167
25405SOL    HW181535   4.786  10.270   0.920 -0.5131  0.0368  0.0681
25405SOL    HW281536   4.678  10.183   0.981  0.3438 -1.7500 -0.9099
25406SOL     OW81537   5.868   6.360   4.850 -0.3280  0.2849  0.0043
25406SOL    HW181538   5.867   6.266   4.868 -0.2464  0.1891 -0.4794
25406SOL    HW281539   5.960   6.381   4.834 -0.2910  0.5274  0.5070
25407SOL     OW81540   7.837   1.012   7.840 -0.2426 -0.1276  0.3565
25407SOL    HW181541   7.857   1.071   7.913 -0.2113 -0.8180  0.9142
25407SOL    HW281542   7.891   0.935   7.856 -0.7272 -0.5586 -0.0400
25408SOL     OW81543   6.774   2.129   0.194 -0.0165 -0.2303 -0.0530
25408SOL    HW181544   6.842   2.065   0.173 -1.0114 -1.8452  1.4263
25408SOL    HW281545   6.723   2.137   0.113 -0.9299 -2.7075  0.1942
25409SOL     OW81546   7.112   0.805   5.045 -0.0462 -0.2998  0.5590
25409SOL    HW181547   7.198   0.847   5.042 -0.6666  1.0219 -2.3377
25409SOL    HW281548   7.123   0.724   4.994 -0.2884 -0.6467  1.0487
25410SOL     OW81549   7.003   9.685   3.873 -0.1157 -0.2839  0.4428
25410SOL    HW181550   6.945   9.741   3.924 -0.4746 -0.7664  0.5735
25410SOL    HW281551   7.092   9.712   3.898 -0.2678  0.7976 -0.1238
25411SOL     OW81552   5.506   3.512   8.525 -0.0656  0.3585 -0.3641
25411SOL    HW181553   5.417   3.516   8.559  0.0297 -0.4411  0.0117
25411SOL    HW281554   5.561   3.532   8.600  0.1576 -1.6780  0.0739
25412SOL     OW81555   7.866   8.362   9.214  0.5573 -0.2029  0.1136
25412SOL    HW181556   7.957   8.370   9.184  0.4245 -0.3317 -0.3230
25412SOL    HW281557   7.850   8.444   9.262  0.6541  0.1718 -0.4854
25413SOL     OW81558  11.529   2.500   3.205 -0.3212 -0.1458  0.1286
25413SOL    HW181559  11.620   2.516   3.179 -0.6128  1.1368 -0.1680
25413SOL    HW281560  11.524   2.530   3.295 -0.3790 -0.5123  0.2489
25414SOL     OW81561   5.717   4.192   5.064 -0.2571 -0.1987  0.2628
25414SOL    HW181562   5.797   4.141   5.059  0.0983  0.4377 -1.2156
25414SOL    HW281563   5.740   4.268   5.117 -0.0859 -0.3864  0.4548
25415SOL     OW81564   9.189   9.717   4.262  0.0558 -0.5049  0.1964
25415SOL    HW181565   9.184   9.799   4.312  0.3395 -0.5026  0.2214
25415SOL    HW281566   9.111   9.718   4.207 -0.2249 -0.4739  0.5860
25416SOL     OW81567  10.757   3.943   7.701 -0.1174 -0.5943 -0.0137
25416SOL    HW181568  10.771   4.037   7.691  1.0913 -0.9157 -1.7417
25416SOL    HW281569  10.668   3.936   7.735 -0.3132  1.1564 -0.0653
25417SOL     OW81570   9.690  11.434   3.067 -0.2079  0.0147 -1.1865
25417SOL    HW181571   9.686  11.342   3.040 -0.4337 -0.3156 -0.0868
25417SOL    HW281572   9.620  11.442   3.132  1.4091  0.2998  0.6090
25418SOL     OW81573   8.705   4.589   6.597 -0.8511 -0.4066 -0.2326
25418SOL    HW181574   8.643   4.570   6.667 -1.5534  1.4690 -0.3070
25418SOL    HW281575   8.788   4.552   6.628 -1.5551 -1.2328  0.7361
25419SOL     OW81576   0.215   0.409  10.736 -0.9574 -0.0760 -0.3315
25419SOL    HW181577   0.188   0.346  10.669 -1.3635  0.1263 -0.3584
25419SOL    HW281578   0.203   0.362  10.819  0.6734 -0.7554 -0.4353
25420SOL     OW81579   4.406   5.783   4.244  0.0844  0.4913  0.1386
25420SOL    HW181580   4.340   5.826   4.297 -0.8390 -0.8586  0.1258
25420SOL    HW281581   4.356   5.731   4.181  1.1641 -0.0657 -0.2787
25421SOL     OW81582   2.814   7.291   7.598 -0.2635 -0.5288 -0.6764
25421SOL    HW181583   2.779   7.356   7.659  1.4848  2.4135 -2.5053
25421SOL    HW281584   2.747   7.223   7.593 -2.3802  1.2586  1.2278
25422SOL     OW81585   6.354   1.441   5.595  0.0914 -0.3173  0.0728
25422SOL    HW181586   6.306   1.380   5.651 -1.1735  0.2849 -0.3080
25422SOL    HW281587   6.410   1.490   5.655 -2.2983  1.3250  1.0769
25423SOL     OW81588   5.275   1.452   4.420  0.4076  0.4955 -0.4874
25423SOL    HW181589   5.263   1.547   4.411 -0.5863  0.5163  0.6643
25423SOL    HW281590   5.255   1.417   4.334 -0.9765  1.2092 -0.4903
25424SOL     OW81591   3.527   8.045   3.145 -0.1115  0.6835 -0.3771
25424SOL    HW181592   3.566   7.968   3.103 -1.8187 -1.1642  1.1963
25424SOL    HW281593   3.597   8.081   3.199  0.7964  0.4136 -1.3344
25425SOL     OW81594   8.480   5.258   6.538  0.0993  0.5237  0.0824
25425SOL    HW181595   8.388   5.262   6.514 -0.3313 -0.8365  1.3931
25425SOL    HW281596   8.523   5.217   6.462 -1.1228 -2.9942  1.0761
25426SOL     OW81597   5.932   2.626  11.776  0.1393 -0.4723  0.0475
25426SOL    HW181598   5.995   2.662  11.839  0.1092  2.5827 -1.5028
25426SOL    HW281599   5.976   2.548  11.741  1.4769 -0.4597  1.5690
25427SOL     OW81600   6.030   5.468   1.282 -0.5090 -0.5067  0.7585
25427SOL    HW181601   5.969   5.515   1.226  0.7424  1.1083  0.7016
25427SOL    HW281602   6.115   5.509   1.267  0.1798 -1.1340  2.5607
25428SOL     OW81603   1.182   2.677  10.814  0.1136 -0.2074  0.0942
25428SOL    HW181604   1.138   2.731  10.880 -1.5209 -1.3746  0.0276
25428SOL    HW281605   1.272   2.709  10.813 -0.2479  0.9980  1.6379
25429SOL     OW81606   4.814  10.599   2.517  0.8692  0.1150  0.3787
25429SOL    HW181607   4.773  10.607   2.431  1.5226 -0.1323  0.0436
25429SOL    HW281608   4.829  10.690   2.544  1.5465  0.1804 -0.1956
25430SOL     OW81609   2.190   9.387  10.319 -0.4912 -0.2716 -0.4036
25430SOL    HW181610   2.270   9.433  10.291  0.0485  0.9967  2.8183
25430SOL    HW281611   2.222   9.319  10.379 -1.7350 -1.1620 -0.7175
25431SOL     OW81612   2.864   6.915   0.327 -0.0589  0.1564 -0.0572
25431SOL    HW181613   2.870   6.834   0.277 -0.7663 -1.6943  2.6436
25431SOL    HW281614   2.949   6.923   0.370  0.0962  1.0038 -0.5097
25432SOL     OW81615   1.268   7.308   1.345  0.0492 -0.0472  0.1119
25432SOL    HW181616   1.354   7.327   1.307  0.2469 -0.4506  0.3489
25432SOL    HW281617   1.275   7.217   1.375 -0.7632 -0.3846 -0.6915
25433SOL     OW81618   7.116   7.820   6.977 -0.5428 -0.4064 -0.3569
25433SOL    HW181619   7.100   7.736   7.021 -0.2985 -0.9271 -1.2318
25433SOL    HW281620   7.161   7.796   6.896  1.0430  0.7008  0.1439
25434SOL     OW81621   4.485   1.338   9.781  1.0721  0.3793  0.1472
25434SOL    HW181622   4.476   1.297   9.867  0.5757 -1.7130 -0.8534
25434SOL    HW281623   4.479   1.432   9.799 -1.1151 -0.0519  2.1817
25435SOL     OW81624   6.283   7.075   7.551  0.3078  0.0860 -0.0174
25435SOL    HW181625   6.226   7.107   7.621  0.2810  1.8817 -0.8173
25435SOL    HW281626   6.358   7.038   7.597 -0.1663  0.3375  0.9903
25436SOL     OW81627   9.044   3.911  10.462  0.5134 -0.2776  0.2455
25436SOL    HW181628   9.117   3.850  10.450  2.6352  2.1908 -0.2400
25436SOL    HW281629   9.079   3.996  10.436 -1.9520  1.3840  1.9051
25437SOL     OW81630   3.511   8.412   0.475 -0.3545  0.0204 -0.1981
25437SOL    HW181631   3.585   8.380   0.424 -0.8990  0.1569 -1.0856
25437SOL    HW281632   3.493   8.499   0.440  0.7203  1.1297  1.7812
25438SOL     OW81633   0.368   0.423   9.235 -0.1168  0.2984 -0.0620
25438SOL    HW181634   0.437   0.393   9.176 -0.3282  0.9924 -0.6713
25438SOL    HW281635   0.295   0.363   9.219 -0.1617  0.4641 -0.4880
25439SOL     OW81636   4.189  10.148  11.508  0.1910  0.0009 -0.2245
25439SOL    HW181637   4.135  10.210  11.460 -1.0915 -0.4550  0.5791
25439SOL    HW281638   4.175  10.064  11.464  1.1664  0.0858 -0.7197
25440SOL     OW81639   2.904   3.202   2.800  0.4064  0.1878 -0.0101
25440SOL    HW181640   2.865   3.117   2.781 -0.4787  0.6433 -0.3095
25440SOL    HW281641   2.870   3.260   2.732  2.5567  0.3679 -0.9947
25441SOL     OW81642   3.341   9.443  10.468  0.0612 -0.7758 -0.2305
25441SOL    HW181643   3.415   9.382  10.464  0.4982 -0.2589 -0.2011
25441SOL    HW281644   3.361   9.500  10.543  0.9671  1.0107 -1.7167
25442SOL     OW81645  10.737   7.648   0.533  0.6974 -0.3399  0.2764
25442SOL    HW181646  10.786   7.599   0.599  2.0720  0.2454 -0.2639
25442SOL    HW281647  10.787   7.636   0.452  0.4129  0.9715 -0.1167
25443SOL     OW81648   7.841   8.120   7.866  0.2629 -0.8002  0.3948
25443SOL    HW181649   7.816   8.036   7.827 -0.1359  0.4748 -2.3243
25443SOL    HW281650   7.937   8.123   7.858  0.2313 -0.7916 -0.0002
25444SOL     OW81651   0.432   5.282   6.370 -0.6091  0.2548  0.0008
25444SOL    HW181652   0.527   5.290   6.357 -0.6278 -0.8812 -1.0509
25444SOL    HW281653   0.421   5.202   6.420 -1.0062  0.4797  0.2733
25445SOL     OW81654   7.538   2.468  10.405  0.0776 -0.2611 -0.4026
25445SOL    HW181655   7.576   2.394  10.452 -1.8661 -0.0085  1.7098
25445SOL    HW281656   7.472   2.430  10.349 -0.6441 -0.2044  0.3869
25446SOL     OW81657  10.856   3.864   9.740 -0.2043  0.0303  0.4038
25446SOL    HW181658  10.900   3.909   9.668  1.0902 -0.5000  0.8419
25446SOL    HW281659  10.903   3.891   9.818 -1.4409  0.4022  1.0514
25447SOL     OW81660  11.435   5.266   0.155  0.3926 -0.2164 -0.2459
25447SOL    HW181661  11.395   5.197   0.208  1.5417 -0.8948 -0.2326
25447SOL    HW281662  11.423   5.346   0.207  0.7626 -0.7342  0.6721
25448SOL     OW81663   7.613   3.499   6.163 -0.6460 -0.1082 -0.0052
25448SOL    HW181664   7.649   3.522   6.077 -1.3252  0.9722 -0.0147
25448SOL    HW281665   7.690   3.478   6.216 -0.2711 -2.0767 -1.1963
25449SOL     OW81666   8.449   7.889   2.098  0.0475 -0.2844 -0.0266
25449SOL    HW181667   8.403   7.947   2.159 -0.5105 -0.6860 -0.0583
25449SOL    HW281668   8.541   7.893   2.127 -0.0220  0.4110  0.1258
25450SOL     OW81669  10.684   5.691   9.943 -0.7234 -0.2947  0.4794
25450SOL    HW181670  10.640   5.678  10.027 -0.7375 -1.9545  0.2444
25450SOL    HW281671  10.773   5.659   9.957 -0.2914  0.7718  0.2576
25451SOL     OW81672   8.446   6.827   0.299  0.0972  0.1059 -0.1268
25451SOL    HW181673   8.380   6.892   0.319 -0.7512  0.6963 -4.0024
25451SOL    HW281674   8.397   6.747   0.281  0.6774 -0.2085 -0.3512
25452SOL     OW81675   3.439   6.001  11.261 -0.2093  0.1139  0.0474
25452SOL    HW181676   3.424   5.975  11.170 -1.0604  0.1450  0.1699
25452SOL    HW281677   3.533   6.022  11.265  0.1480 -1.2720 -0.4696
25453SOL     OW81678   2.841   2.008   8.884  0.6186  1.0225 -0.4985
25453SOL    HW181679   2.762   1.995   8.833 -0.6050  0.7445  1.3613
25453SOL    HW281680   2.897   1.933   8.864  0.9119  1.7349 -2.5979
25454SOL     OW81681   1.141   4.830   9.860  0.1577 -0.1503 -0.4571
25454SOL    HW181682   1.105   4.742   9.855  0.5699 -0.4767  1.6405
25454SOL    HW281683   1.231   4.818   9.890  0.4041  0.9607 -0.7037
25455SOL     OW81684   3.188   7.568   8.823  0.1250 -0.0951  0.1092
25455SOL    HW181685   3.260   7.506   8.812  0.7208  0.4765  0.6722
25455SOL    HW281686   3.202   7.606   8.910 -1.5557 -0.8380  0.7371
25456SOL     OW81687   8.801  11.790   4.956  0.2994 -0.4228  0.1418
25456SOL    HW181688   8.776  11.709   5.001 -0.7665 -0.7484 -0.9606
25456SOL    HW281689   8.894  11.780   4.939  0.3752 -0.9977  0.8460
25457SOL     OW81690  10.525   8.024   8.866 -0.2450  0.2894  0.1244
25457SOL    HW181691  10.616   7.995   8.871 -0.7138 -2.2171 -2.6993
25457SOL    HW281692  10.486   7.996   8.948  0.7802 -1.9122 -0.0753
25458SOL     OW81693   5.716   0.026   1.332 -0.2265 -0.1893 -0.9093
25458SOL    HW181694   5.753   0.057   1.415  1.3252 -0.7063 -1.3716
25458SOL    HW281695   5.743   0.092   1.268  0.5275 -0.9399 -1.3821
25459SOL     OW81696   0.422   9.974   3.013 -0.0998  0.5324 -0.0494
25459SOL    HW181697   0.515   9.956   2.996  0.4223  2.5731  0.3135
25459SOL    HW281698   0.420  10.003   3.104 -1.3219 -0.7330  0.3523
25460SOL     OW81699   6.037  11.134  11.067 -0.9472  0.3639  0.2841
25460SOL    HW181700   6.047  11.079  11.145 -0.4584  0.0161 -0.0199
25460SOL    HW281701   6.068  11.079  10.995  0.0697  1.2348  0.0393
25461SOL     OW81702   6.091   7.763   6.022 -0.8087  0.0083 -0.2692
25461SOL    HW181703   6.168   7.728   6.067 -1.5062 -1.3831 -0.0876
25461SOL    HW281704   6.084   7.853   6.053  0.5667  0.0592 -0.0552
25462SOL     OW81705   8.425   1.868  10.441 -0.7539 -0.2453  0.2838
25462SOL    HW181706   8.400   1.837  10.528 -1.3833 -0.5517  0.0040
25462SOL    HW281707   8.342   1.872  10.393 -0.5423  0.8327 -0.0152
25463SOL     OW81708   9.447   0.562   6.299 -0.7739  0.1976 -0.1850
25463SOL    HW181709   9.516   0.517   6.249  0.7227  0.4720  1.5242
25463SOL    HW281710   9.424   0.500   6.369 -0.1966  1.2044  0.9392
25464SOL     OW81711   0.752   6.094   0.234 -0.6767  0.2011  0.2778
25464SOL    HW181712   0.816   6.024   0.245 -0.4694  0.3046 -0.2536
25464SOL    HW281713   0.751   6.111   0.140 -2.7837 -1.0234  0.0022
25465SOL     OW81714   3.467   5.510   5.557  0.2894  0.3996  0.1319
25465SOL    HW181715   3.547   5.557   5.537 -0.6088  2.1656  0.5017
25465SOL    HW281716   3.411   5.524   5.480 -0.1811  0.3994  0.4655
25466SOL     OW81717   3.709   4.829   4.112  0.0570  0.1454 -0.2212
25466SOL    HW181718   3.669   4.744   4.091  0.2948 -0.1928  0.6462
25466SOL    HW281719   3.657   4.893   4.063 -0.9955 -0.3743  0.1932
25467SOL     OW81720   3.760   6.494   4.236  0.7505  0.6104  0.6888
25467SOL    HW181721   3.850   6.462   4.223  0.7612 -1.7604  4.9041
25467SOL    HW281722   3.766   6.588   4.219  3.4234  0.1850 -1.4695
25468SOL     OW81723   2.362   8.478   6.307 -0.0813 -0.3115  0.1968
25468SOL    HW181724   2.436   8.490   6.247 -0.0509 -0.0586  0.2814
25468SOL    HW281725   2.287   8.461   6.250 -0.3572  1.4425 -0.0087
25469SOL     OW81726   6.531   0.502  10.408  0.2375 -0.2344  0.0204
25469SOL    HW181727   6.612   0.549  10.388 -0.3432  1.0657  0.5939
25469SOL    HW281728   6.510   0.528  10.498 -1.4649  0.4230 -0.5437
25470SOL     OW81729   1.077   9.193   7.839  0.3093  0.8682  0.2218
25470SOL    HW181730   1.018   9.262   7.871 -0.3205 -0.0287  1.0397
25470SOL    HW281731   1.029   9.151   7.768 -0.4408 -0.4132  1.4355
25471SOL     OW81732   5.041   8.315   1.308 -0.2841  0.4014  0.6670
25471SOL    HW181733   5.016   8.280   1.222  1.8290  0.9158 -0.2259
25471SOL    HW281734   5.063   8.237   1.359 -1.5897  0.0880  0.7895
25472SOL     OW81735   4.760  10.253   0.711 -0.4106  0.2100 -0.0041
25472SOL    HW181736   4.814  10.252   0.632  0.1507 -0.3445  0.3812
25472SOL    HW281737   4.685  10.197   0.690 -1.0397  1.2688 -0.6668
25473SOL     OW81738   3.339   6.638   0.084  0.7005 -0.0707 -0.3513
25473SOL    HW181739   3.253   6.637   0.042  0.2201 -0.3342  0.6049
25473SOL    HW281740   3.401   6.640   0.012 -0.1052 -0.3397 -1.0673
25474SOL     OW81741   9.511   6.072   6.432 -0.1325  0.1313  0.4528
25474SOL    HW181742   9.443   6.084   6.498  0.1230  0.8363  0.5882
25474SOL    HW281743   9.470   6.101   6.350 -0.9195 -2.0142  0.0250
25475SOL     OW81744   7.419   8.898   4.287 -0.3443  0.0155  0.5852
25475SOL    HW181745   7.464   8.817   4.264  3.1307  1.0239  2.9240
25475SOL    HW281746   7.388   8.933   4.204  1.7685 -1.6732 -1.0389
25476SOL     OW81747  10.921   7.142   6.877 -0.0629  0.6461 -0.2496
25476SOL    HW181748  11.004   7.139   6.829  0.4626 -2.7281  0.6503
25476SOL    HW281749  10.908   7.053   6.909 -3.4925  1.3293  0.6586
25477SOL     OW81750   3.800   1.750   1.506  0.1300 -0.0855 -0.7123
25477SOL    HW181751   3.721   1.785   1.547  1.2540  0.8624  0.7666
25477SOL    HW281752   3.852   1.828   1.485  1.8623 -0.7429  0.9019
25478SOL     OW81753   0.090  11.540   2.943  0.1154 -0.0062  0.1273
25478SOL    HW181754   0.036  11.464   2.918 -1.7204  0.8547  1.2469
25478SOL    HW281755   0.062  11.609   2.882  0.5521  0.2234  0.1891
25479SOL     OW81756  11.149   2.303   3.647  0.5145 -0.3336  0.6842
25479SOL    HW181757  11.107   2.362   3.709 -0.1567  1.7781 -1.5911
25479SOL    HW281758  11.087   2.230   3.638 -1.1054  1.0760 -0.0837
25480SOL     OW81759   8.363   5.173  11.633 -0.1283  0.1177  0.5172
25480SOL    HW181760   8.366   5.122  11.714  3.1562  0.3155  0.6470
25480SOL    HW281761   8.395   5.114  11.566 -0.7440  0.6298 -0.2431
25481SOL     OW81762   4.977   1.271   6.837 -0.2671 -0.0552 -0.6875
25481SOL    HW181763   4.966   1.189   6.886  0.5469  0.5221  0.5026
25481SOL    HW281764   4.991   1.243   6.747 -1.1049 -1.1742 -0.5027
25482SOL     OW81765   2.796   5.752   6.450  0.1030 -0.4358 -0.3118
25482SOL    HW181766   2.793   5.738   6.355  3.0267 -0.4784 -0.4848
25482SOL    HW281767   2.731   5.691   6.485  0.3806 -1.8991 -2.1681
25483SOL     OW81768  11.594   8.218  10.762  0.1259  0.5949  0.7533
25483SOL    HW181769  11.524   8.191  10.702 -1.1888  0.3290  2.3161
25483SOL    HW281770  11.596   8.314  10.754  0.4900  0.5099 -0.2516
25484SOL     OW81771   9.500   0.461   9.484  0.0951  0.5057 -0.2897
25484SOL    HW181772   9.594   0.466   9.497 -0.1713  0.4993  2.0009
25484SOL    HW281773   9.480   0.367   9.483  0.1721  0.4759 -1.6599
25485SOL     OW81774   3.633   8.428   8.698  0.3492  0.6917  0.5174
25485SOL    HW181775   3.556   8.374   8.715  0.8171 -0.0912  0.1948
25485SOL    HW281776   3.602   8.518   8.707 -1.0255  0.4394 -1.3282
25486SOL     OW81777   3.014   9.903   6.223  0.3842 -0.6689 -0.2139
25486SOL    HW181778   3.052   9.970   6.279 -0.9723  0.0915 -0.1639
25486SOL    HW281779   2.933   9.877   6.267  1.5954 -3.5307  0.5949
25487SOL     OW81780   3.331   6.410  11.031  0.2440 -0.1237 -0.3163
25487SOL    HW181781   3.291   6.449  11.109  1.4750 -2.0604  1.4016
25487SOL    HW281782   3.257   6.371  10.984 -0.4162  0.1488  0.4562
25488SOL     OW81783  11.417  11.709   0.573  0.3637  0.3119  0.3235
25488SOL    HW181784  11.342  11.692   0.515  0.3919  0.0382  0.3697
25488SOL    HW281785  11.453  11.623   0.593 -0.1698  0.3453  1.4605
25489SOL     OW81786   9.266   8.001  11.340  0.3804 -0.2653  0.0211
25489SOL    HW181787   9.258   8.011  11.245  0.4622  0.2559  0.0702
25489SOL    HW281788   9.194   7.943  11.364  0.6777 -0.8377 -0.4322
25490SOL     OW81789   1.389   3.054   7.530  0.6503 -0.8231 -0.7505
25490SOL    HW181790   1.334   3.131   7.537 -0.4714 -1.7759  2.6342
25490SOL    HW281791   1.330   2.985   7.499  0.8766 -1.0098 -0.7712
25491SOL     OW81792   8.010  10.827   5.748 -0.4190  0.0620 -0.6178
25491SOL    HW181793   8.103  10.846   5.738 -0.3610 -0.5526 -1.4283
25491SOL    HW281794   7.996  10.817   5.842  0.0029  1.7219 -0.3531
25492SOL     OW81795   9.397  11.543   3.748 -0.1721  0.4283  0.3170
25492SOL    HW181796   9.409  11.618   3.690  1.0830  2.3669  2.8626
25492SOL    HW281797   9.343  11.482   3.698 -1.7804  3.2609 -1.7035
25493SOL     OW81798   6.608   1.812   6.057  0.3861  0.3654 -0.0319
25493SOL    HW181799   6.653   1.842   5.978 -0.6105  1.7029 -0.1227
25493SOL    HW281800   6.673   1.759   6.103  1.4474  0.7400 -1.0537
25494SOL     OW81801   9.998   4.490   8.048  0.3419 -0.0533 -0.1571
25494SOL    HW181802   9.995   4.557   8.116  0.1827  0.5179 -0.7178
25494SOL    HW281803   9.907   4.468   8.030  0.3994 -1.7402  1.2710
25495SOL     OW81804   5.432   9.911  10.696 -0.0511  0.1323  0.0635
25495SOL    HW181805   5.385   9.992  10.717 -0.6653 -0.1698 -0.1312
25495SOL    HW281806   5.408   9.892  10.606  0.5260  0.0210 -0.0718
25496SOL     OW81807  10.483  10.456   5.087  0.1745  0.0265 -0.6383
25496SOL    HW181808  10.396  10.473   5.051 -0.4647 -1.0840  0.2994
25496SOL    HW281809  10.514  10.380   5.038 -0.3779 -1.0139  0.5626
25497SOL     OW81810   5.981   6.350   7.936  0.0808  0.2526 -0.1888
25497SOL    HW181811   5.969   6.438   7.901  0.6097  0.3433 -0.1587
25497SOL    HW281812   5.894   6.312   7.938 -0.2444  1.0051  0.4120
25498SOL     OW81813  10.366   2.955  10.360  0.1523  0.1969  0.2121
25498SOL    HW181814  10.297   2.987  10.418 -1.6604 -0.0349 -1.7040
25498SOL    HW281815  10.393   3.031  10.309 -1.6693 -0.4749 -1.8938
25499SOL     OW81816   0.376   2.717   4.115  0.4935  0.3438  0.1670
25499SOL    HW181817   0.281   2.706   4.126  0.1915  2.5780  0.2250
25499SOL    HW281818   0.414   2.651   4.173 -1.0231  0.0644  0.9051
25500SOL     OW81819   1.675   0.998  10.846  0.2833 -0.4477 -0.2043
25500SOL    HW181820   1.766   1.026  10.842  0.0352  0.2734 -1.9836
25500SOL    HW281821   1.625   1.079  10.850 -0.3030 -0.8125 -0.0272
25501SOL     OW81822   1.726   4.800   0.789  0.5279 -0.0421  0.3397
25501SOL    HW181823   1.793   4.843   0.843  0.8480 -2.0510  1.6817
25501SOL    HW281824   1.645   4.847   0.809  1.5412  3.0441 -2.0046
25502SOL     OW81825   1.925   4.711   0.421 -0.4258 -0.4607  0.8439
25502SOL    HW181826   1.857   4.658   0.461  0.2807 -0.7917  1.6264
25502SOL    HW281827   2.005   4.661   0.432 -0.0203 -0.0075  0.0702
25503SOL     OW81828  11.399   7.270   2.853  0.0812  0.4249  0.4063
25503SOL    HW181829  11.427   7.350   2.898  1.1939  0.6692 -0.6884
25503SOL    HW281830  11.468   7.252   2.790 -0.8098 -0.6515 -0.3020
25504SOL     OW81831   7.811   2.923   2.132  0.4572 -0.1791 -0.3679
25504SOL    HW181832   7.900   2.887   2.128  0.4363 -0.1077 -1.6263
25504SOL    HW281833   7.756   2.857   2.091  0.5100  1.4522 -3.3206
25505SOL     OW81834   5.006   2.855   8.908 -0.2268  0.2250 -0.6416
25505SOL    HW181835   5.023   2.762   8.891 -3.4832 -0.8042  0.9480
25505SOL    HW281836   4.957   2.885   8.831 -1.5747 -0.2138  0.0044
25506SOL     OW81837   7.088  10.139   7.342 -0.0076  0.0978 -0.6803
25506SOL    HW181838   7.012  10.118   7.395  0.5786 -1.0298 -0.2675
25506SOL    HW281839   7.112  10.057   7.299  0.5644  0.5963 -1.3543
25507SOL     OW81840   7.513  10.215   9.330  0.2833 -0.0714 -0.2582
25507SOL    HW181841   7.493  10.224   9.423  0.7143  0.3317 -0.2011
25507SOL    HW281842   7.564  10.134   9.324  1.5302  0.6619  0.0748
25508SOL     OW81843   3.508   6.284   7.883  0.1299  0.2484 -0.5470
25508SOL    HW181844   3.549   6.203   7.911 -0.6114 -0.2246 -0.7899
25508SOL    HW281845   3.541   6.350   7.944  2.1992  0.1538 -1.4755
25509SOL     OW81846   8.349   9.200   4.283  0.1594 -0.1090 -0.4006
25509SOL    HW181847   8.404   9.266   4.326 -0.3559 -0.1159  0.2893
25509SOL    HW281848   8.384   9.193   4.195  2.5796 -1.5764  0.5896
25510SOL     OW81849   2.333   5.159   1.279  0.5079 -0.3846 -0.5763
25510SOL    HW181850   2.362   5.130   1.192 -0.8145  0.5048 -1.3572
25510SOL    HW281851   2.398   5.223   1.305 -0.3288  1.1524 -2.0402
25511SOL     OW81852   8.445   4.601   9.178  0.0888  0.2545  0.2689
25511SOL    HW181853   8.470   4.688   9.208  1.6691 -0.3814  0.9110
25511SOL    HW281854   8.490   4.590   9.094 -1.3742  0.6248 -0.5995
25512SOL     OW81855   8.109  11.354   1.587 -0.1797  0.5894  0.0873
25512SOL    HW181856   8.036  11.300   1.556  0.5048 -1.0722  1.2047
25512SOL    HW281857   8.095  11.361   1.681  0.3360  1.4856  0.1071
25513SOL     OW81858   8.713   6.788   8.343  0.1552  0.2980 -0.2934
25513SOL    HW181859   8.787   6.755   8.394  0.8396 -0.8178 -1.9304
25513SOL    HW281860   8.636   6.748   8.384  0.7258 -0.8791 -0.3146
25514SOL     OW81861   8.746   8.637   0.234  0.7849  0.1740 -0.0550
25514SOL    HW181862   8.806   8.563   0.248 -1.4407 -1.8256 -0.4063
25514SOL    HW281863   8.786   8.688   0.164  1.8960 -1.2630 -0.5139
25515SOL     OW81864   8.144  11.376   6.395 -0.2458  0.1443  0.6842
25515SOL    HW181865   8.212  11.421   6.344  2.2975  0.0983  3.7620
25515SOL    HW281866   8.086  11.446   6.423  1.6156  1.1087  2.3863
25516SOL     OW81867   6.511   6.690   8.986 -0.3010 -0.3744  0.4392
25516SOL    HW181868   6.467   6.635   9.050 -1.1246  1.7140  1.7748
25516SOL    HW281869   6.457   6.686   8.908 -0.1176 -1.7347  0.3586
25517SOL     OW81870   5.498   0.367   2.371  0.2063  0.5410  0.1297
25517SOL    HW181871   5.459   0.448   2.338 -1.3093 -0.7130 -1.3482
25517SOL    HW281872   5.430   0.329   2.427 -0.1283 -0.8730 -1.1628
25518SOL     OW81873   9.979  10.135   7.964  0.3979  0.0700 -0.1872
25518SOL    HW181874  10.044  10.143   7.895 -0.2702  0.1446 -0.8228
25518SOL    HW281875   9.922  10.211   7.952  1.5214  1.3105  1.8072
25519SOL     OW81876   1.388   8.597   4.308  0.0870  0.2575 -0.2687
25519SOL    HW181877   1.342   8.562   4.232 -0.6134 -2.0006  1.1093
25519SOL    HW281878   1.377   8.531   4.376  0.9086  2.0707  1.7532
25520SOL     OW81879   5.530   7.798   7.691 -0.2214  0.0809  0.3732
25520SOL    HW181880   5.495   7.847   7.766  0.4613 -0.4090  1.0347
25520SOL    HW281881   5.625   7.804   7.701 -0.1024 -1.9347  0.8748
25521SOL     OW81882   4.892   8.854   5.227 -0.4288  0.0948  0.4430
25521SOL    HW181883   4.912   8.924   5.165  1.4072 -0.3572  0.4555
25521SOL    HW281884   4.863   8.781   5.173  3.1353 -1.0118 -0.2385
25522SOL     OW81885   0.805   2.232   9.363  0.1953  0.2890  0.2042
25522SOL    HW181886   0.890   2.273   9.376  0.5510 -0.5411  0.5689
25522SOL    HW281887   0.743   2.292   9.404  0.6345  0.7466  0.2091
25523SOL     OW81888  10.614  10.087   2.391 -0.8628 -0.3457 -0.3747
25523SOL    HW181889  10.655  10.171   2.411  0.6884 -1.1956  0.2224
25523SOL    HW281890  10.572  10.100   2.306  1.8254  0.2653 -1.7325
25524SOL     OW81891   2.367   2.049   8.510 -0.1147  0.3029 -0.4511
25524SOL    HW181892   2.377   1.970   8.563 -3.0154  0.5533  0.6540
25524SOL    HW281893   2.368   2.121   8.573 -0.2567  0.8931 -1.1060
25525SOL     OW81894   3.563   6.583   2.579  0.4371 -0.1853  0.4248
25525SOL    HW181895   3.573   6.525   2.654 -2.3337 -2.7197 -0.9501
25525SOL    HW281896   3.554   6.524   2.504 -0.9503  2.0752 -1.3198
25526SOL     OW81897   3.046   6.331   6.567 -0.2800  0.3560  0.4868
25526SOL    HW181898   3.120   6.391   6.575  0.8794 -1.2722  3.3384
25526SOL    HW281899   2.979   6.382   6.523  2.0427  2.3385 -1.0139
25527SOL     OW81900   3.401   9.782   4.450  0.3557 -0.1559 -0.1740
25527SOL    HW181901   3.365   9.785   4.361 -1.3111 -1.2375  0.4216
25527SOL    HW281902   3.472   9.718   4.445  0.7366  0.3047 -0.8688
25528SOL     OW81903   8.181   5.237   8.072 -0.2680 -0.8098 -0.3329
25528SOL    HW181904   8.269   5.229   8.109  0.1842 -0.7305 -1.3636
25528SOL    HW281905   8.149   5.147   8.067 -0.5779 -0.7824  0.7790
25529SOL     OW81906   8.036   5.392   7.046 -0.2916  0.2032  0.3369
25529SOL    HW181907   7.999   5.383   6.959  1.8213 -0.0697 -0.6025
25529SOL    HW281908   8.015   5.482   7.072 -1.0695  0.2390 -0.3709
25530SOL     OW81909   9.008   0.853   9.343 -0.0782  1.1640  0.7460
25530SOL    HW181910   8.968   0.866   9.429  0.5618 -0.4900  1.3275
25530SOL    HW281911   8.987   0.763   9.320 -0.5635  1.6907 -1.0320
25531SOL     OW81912  10.238   9.466   1.019 -0.4314 -0.1979  0.2529
25531SOL    HW181913  10.301   9.497   1.084 -1.1997  1.7193  0.1236
25531SOL    HW281914  10.190   9.396   1.063  0.9389 -0.8490  0.7622
25532SOL     OW81915   3.809   3.452   5.440  0.1961 -0.0053 -0.6166
25532SOL    HW181916   3.860   3.449   5.521 -2.2275 -1.4904  0.9851
25532SOL    HW281917   3.777   3.542   5.436  1.3659  0.4304 -0.6537
25533SOL     OW81918   7.701   4.540  10.916  0.1105  0.1757 -0.6258
25533SOL    HW181919   7.729   4.630  10.929 -1.2740  0.5106  0.2314
25533SOL    HW281920   7.770   4.486  10.955 -0.5948  0.9731  1.8622
25534SOL     OW81921   9.308   8.384  10.812  0.1971 -0.1700  0.3586
25534SOL    HW181922   9.395   8.396  10.850 -0.1921  2.1475  0.7081
25534SOL    HW281923   9.248   8.410  10.882 -0.6565  0.7406 -0.6687
25535SOL     OW81924  10.560   3.079   4.612 -0.3122 -0.0089  0.0678
25535SOL    HW181925  10.468   3.091   4.636 -0.1928 -1.1008  1.1887
25535SOL    HW281926  10.600   3.042   4.690  0.8256 -0.6667 -0.7960
25536SOL     OW81927   0.484   7.176   7.518 -0.6341 -0.2143 -0.2728
25536SOL    HW181928   0.470   7.085   7.544  0.2750 -0.7491 -1.5383
25536SOL    HW281929   0.487   7.173   7.422  1.3198  0.8458 -0.2806
25537SOL     OW81930   8.032   1.380   5.599 -0.5797  0.6739  0.6525
25537SOL    HW181931   7.984   1.297   5.598  0.6185 -0.2256 -3.6385
25537SOL    HW281932   7.972   1.444   5.559 -0.2365  0.9508  0.5741
25538SOL     OW81933  10.902   3.974   9.493  0.1478  0.0575 -0.8346
25538SOL    HW181934  10.881   4.068   9.491 -0.7355 -0.1299 -0.9092
25538SOL    HW281935  10.888   3.945   9.404  0.7493 -0.0825 -0.8834
25539SOL     OW81936   8.677  11.418   3.201  0.3840 -0.6617 -0.0967
25539SOL    HW181937   8.606  11.358   3.224  0.4060 -0.8602 -0.5470
25539SOL    HW281938   8.677  11.421   3.106 -0.8237  1.5065 -0.0964
25540SOL     OW81939   3.471   9.710   3.939 -0.3298 -0.2525  0.6480
25540SOL    HW181940   3.404   9.671   3.884 -0.8993 -1.4236  2.1152
25540SOL    HW281941   3.435   9.796   3.963 -0.7244 -0.3445  0.3859
25541SOL     OW81942  10.187   1.755   8.300  0.4975  0.6543 -0.0820
25541SOL    HW181943  10.246   1.681   8.315 -0.7097 -0.2556  0.3455
25541SOL    HW281944  10.236   1.831   8.332  2.5557  0.3910 -2.3281
25542SOL     OW81945   6.547   9.390   0.381 -0.1060 -0.0460 -0.7003
25542SOL    HW181946   6.640   9.403   0.399  0.0529 -0.0664 -1.5123
25542SOL    HW281947   6.539   9.296   0.363 -0.3442 -0.1033 -0.3329
25543SOL     OW81948  11.821   1.435   8.013  0.3895  0.0145  0.0805
25543SOL    HW181949  11.766   1.357   8.020 -1.3222  1.2272  0.5813
25543SOL    HW281950  11.765   1.501   7.972  2.0535  0.7850 -1.1115
25544SOL     OW81951   0.616   4.682   9.869 -0.0528  0.0476 -0.3811
25544SOL    HW181952   0.567   4.745   9.817 -1.8213  1.0574  2.3113
25544SOL    HW281953   0.553   4.613   9.889  0.4870 -0.1848  0.6152
25545SOL     OW81954   7.979   8.562  10.544  0.4963  0.4535  0.0828
25545SOL    HW181955   7.932   8.544  10.463  1.4505  0.5423 -0.5080
25545SOL    HW281956   8.068   8.584  10.516  0.9295  0.1710  1.1761
25546SOL     OW81957   9.349   9.643   6.785 -0.2404  0.2876  0.0675
25546SOL    HW181958   9.400   9.677   6.859 -1.2676  0.1484  0.8572
25546SOL    HW281959   9.415   9.615   6.722  0.7493 -2.0239  1.9868
25547SOL     OW81960   8.474   7.591   8.405 -0.1004  0.5088 -0.4299
25547SOL    HW181961   8.445   7.620   8.319  0.0985  0.0173 -0.6629
25547SOL    HW281962   8.436   7.655   8.466 -0.8075  0.4661 -0.8201
25548SOL     OW81963   4.084   4.981   4.889  0.2905 -0.1467  0.2767
25548SOL    HW181964   4.090   5.060   4.943 -1.0071 -1.0553  1.8603
25548SOL    HW281965   4.022   5.004   4.820 -1.1304 -0.1029  1.4910
25549SOL     OW81966   5.956   1.922   5.587  0.4591  0.1810  0.2792
25549SOL    HW181967   5.902   1.864   5.533  0.0853  0.3451  0.4710
25549SOL    HW281968   5.985   1.867   5.660 -0.2029  0.3230  0.6600
25550SOL     OW81969  11.607   9.260  10.855 -0.0029 -0.3879  0.4288
25550SOL    HW181970  11.552   9.223  10.924  0.5859 -0.8572  0.6501
25550SOL    HW281971  11.566   9.344  10.834 -0.7638 -0.6951  0.6421
25551SOL     OW81972   3.700   1.815   5.666  0.1526  0.3252  0.1083
25551SOL    HW181973   3.605   1.814   5.666  0.1573 -0.4292 -0.2763
25551SOL    HW281974   3.725   1.776   5.750  0.1223 -1.4682 -0.6781
25552SOL     OW81975   1.789   5.674   4.189 -0.0920 -0.7147  0.4236
25552SOL    HW181976   1.781   5.691   4.283  0.3722  0.4613  0.2731
25552SOL    HW281977   1.700   5.683   4.155  0.2163  2.8531  0.1797
25553SOL     OW81978   8.223   9.739   5.228 -0.1779  0.9641 -0.0600
25553SOL    HW181979   8.162   9.801   5.188 -0.1315  0.3562 -1.1121
25553SOL    HW281980   8.170   9.690   5.292 -1.0902 -0.2807 -1.7028
25554SOL     OW81981   6.009   2.030   4.996 -0.5553 -0.1366  0.2185
25554SOL    HW181982   6.006   2.121   4.964 -0.1579  0.1537  0.9923
25554SOL    HW281983   6.008   2.038   5.091  1.2781 -0.8591  0.3398
25555SOL     OW81984   8.948   2.426   0.335 -0.2745  0.4322 -0.2189
25555SOL    HW181985   8.913   2.432   0.246  0.8180 -0.8489 -0.7631
25555SOL    HW281986   8.958   2.332   0.351 -0.0656  0.6600  1.1077
25556SOL     OW81987   1.255   6.777   5.361  0.9935 -0.1485  0.1255
25556SOL    HW181988   1.294   6.703   5.407 -0.2355  0.2339  1.9033
25556SOL    HW281989   1.275   6.853   5.416  1.1951  0.6727 -1.0392
25557SOL     OW81990  10.754   0.689   5.874 -0.8013  0.4170  0.3487
25557SOL    HW181991  10.812   0.615   5.893  0.4369  1.2331 -0.1242
25557SOL    HW281992  10.696   0.694   5.950  1.4524  1.1638  2.1671
25558SOL     OW81993   7.779   3.919   8.052  0.0776 -0.3380 -0.5257
25558SOL    HW181994   7.839   3.845   8.056  0.3521 -0.0997 -0.1853
25558SOL    HW281995   7.699   3.882   8.015  0.4664 -0.6302 -1.0865
25559SOL     OW81996   3.512   3.500   7.405 -0.2339  0.3007 -0.0961
25559SOL    HW181997   3.432   3.545   7.379 -0.8509 -1.5167 -1.5453
25559SOL    HW281998   3.518   3.425   7.347  1.9639 -0.2376  0.7072
25560SOL     OW81999   1.528   1.673   1.190 -0.8054  0.0944  0.0871
25560SOL    HW182000   1.500   1.739   1.254 -1.3490 -0.4389  0.4120
25560SOL    HW282001   1.454   1.667   1.129 -0.9460 -0.5262  0.3131
25561SOL     OW82002   9.707   3.522   1.646 -0.5631 -0.1649 -0.3604
25561SOL    HW182003   9.650   3.565   1.583 -1.6748 -2.5002 -1.0276
25561SOL    HW282004   9.658   3.445   1.675  1.4833 -1.2145  0.5012
25562SOL     OW82005   6.788  10.139  10.350 -0.4942 -0.2580  0.1877
25562SOL    HW182006   6.843  10.205  10.392 -0.5065  0.4387 -0.8591
25562SOL    HW282007   6.763  10.177  10.266 -2.9917 -0.3429  0.8076
25563SOL     OW82008   1.791   7.967   3.896 -0.6146  0.0940  0.0653
25563SOL    HW182009   1.798   7.909   3.972 -0.2514 -0.3747 -0.3227
25563SOL    HW282010   1.830   7.918   3.824  1.6219  1.6134  0.1516
25564SOL     OW82011   5.898   3.429   8.606  0.2374 -0.2727  0.6487
25564SOL    HW182012   5.963   3.494   8.634  0.4300 -0.1717 -0.0154
25564SOL    HW282013   5.827   3.436   8.670  0.3922  0.3901  0.7508
25565SOL     OW82014   0.233   6.408   1.594 -0.2966 -0.1255  0.2795
25565SOL    HW182015   0.280   6.454   1.525  1.2466 -0.1133  1.2832
25565SOL    HW282016   0.172   6.350   1.548 -0.8048  1.3787 -1.0354
25566SOL     OW82017   8.971   6.649   1.645  0.3323  0.2704 -0.3094
25566SOL    HW182018   8.910   6.670   1.715  0.1807  1.0935 -0.6775
25566SOL    HW282019   9.018   6.571   1.676 -2.1443 -1.5262 -0.7629
25567SOL     OW82020  10.357   8.210   6.903 -0.2554  0.7083  0.2727
25567SOL    HW182021  10.290   8.245   6.844 -0.0209 -0.2388 -0.5877
25567SOL    HW282022  10.440   8.231   6.861 -0.1183 -1.2538 -0.5317
25568SOL     OW82023   2.702   3.922   2.583  0.6394  0.4417 -0.4063
25568SOL    HW182024   2.768   3.967   2.637 -0.2123 -0.4911  1.4980
25568SOL    HW282025   2.657   3.993   2.537 -0.0462  1.5243  1.7891
25569SOL     OW82026   1.246   7.377   5.767  0.1803 -0.2785 -0.4488
25569SOL    HW182027   1.322   7.332   5.804  0.7191 -0.8079 -2.1208
25569SOL    HW282028   1.171   7.339   5.812  0.8855  0.6731  1.6734
25570SOL     OW82029  11.713   1.397   0.376  0.0862 -0.1310 -0.1855
25570SOL    HW182030  11.773   1.323   0.373  0.5643  0.2667 -0.6309
25570SOL    HW282031  11.747   1.458   0.311 -1.1479 -0.1584 -0.8912
25571SOL     OW82032   4.183   3.746   3.404  0.4532 -0.2586 -0.1829
25571SOL    HW182033   4.278   3.746   3.400  0.5252  1.3703  0.7150
25571SOL    HW282034   4.162   3.800   3.481 -1.1965 -0.1957 -0.6348
25572SOL     OW82035  10.606  10.142   1.506  0.5924 -0.2639  0.2468
25572SOL    HW182036  10.675  10.109   1.449 -0.4060 -0.9604 -0.5957
25572SOL    HW282037  10.546  10.188   1.447 -0.9248 -1.7634  0.5704
25573SOL     OW82038  11.769   1.929   3.003 -0.2277  0.0505 -0.1361
25573SOL    HW182039  11.733   2.009   2.964  2.0372  0.9611 -0.4989
25573SOL    HW282040  11.853   1.917   2.960  0.4376 -1.3296  1.4504
25574SOL     OW82041   6.373   0.721   8.197 -0.3151 -0.5208 -0.0352
25574SOL    HW182042   6.430   0.788   8.235 -1.8734  0.1743  1.1545
25574SOL    HW282043   6.418   0.695   8.117  0.1131  2.3588 -0.8680
25575SOL     OW82044  10.243  10.380   8.435 -0.6647  0.1558  0.2679
25575SOL    HW182045  10.200  10.308   8.389 -1.3383  0.4153  0.4752
25575SOL    HW282046  10.221  10.367   8.527  2.2524 -1.4575  0.8564
25576SOL     OW82047  11.534  10.850   1.209 -0.2232  0.5366 -0.0130
25576SOL    HW182048  11.445  10.876   1.231 -0.4450  1.7554 -2.0753
25576SOL    HW282049  11.523  10.778   1.147  0.1383  1.6248 -1.3896
25577SOL     OW82050  11.494   1.823   6.104 -0.2726 -0.4228  0.1964
25577SOL    HW182051  11.556   1.895   6.116 -0.5096 -0.0903 -0.4945
25577SOL    HW282052  11.462   1.803   6.192 -1.9199  1.8579  0.2084
25578SOL     OW82053   2.392   7.932   3.092 -0.2100  0.1406 -0.3091
25578SOL    HW182054   2.357   8.009   3.047  0.1282  1.0793  0.9906
25578SOL    HW282055   2.353   7.935   3.179 -0.8812 -1.6650 -0.4978
25579SOL     OW82056   2.365  10.896   3.872  0.2954  0.0347  0.2514
25579SOL    HW182057   2.381  10.972   3.815 -3.1198  2.1806  1.7952
25579SOL    HW282058   2.318  10.834   3.817 -1.1215  1.2023  0.0476
25580SOL     OW82059   0.380   4.429   8.051 -0.1769  0.2468  0.1665
25580SOL    HW182060   0.309   4.392   8.000  0.4941 -0.2606 -0.4219
25580SOL    HW282061   0.453   4.437   7.989  0.3622  0.4922  0.8179
25581SOL     OW82062   7.980   5.013   4.591 -0.3041  0.2782 -0.2941
25581SOL    HW182063   7.975   4.954   4.515  0.2082 -0.4587  0.2261
25581SOL    HW282064   7.989   5.100   4.553 -0.6341 -0.0176 -1.0834
25582SOL     OW82065  10.536   4.201  11.552  0.0682  0.2962  0.1113
25582SOL    HW182066  10.494   4.178  11.469 -0.4780 -0.2970  0.5442
25582SOL    HW282067  10.536   4.297  11.554  2.7406  0.4511 -1.9110
25583SOL     OW82068   9.652   6.846   3.413 -0.0744  0.0160  0.7741
25583SOL    HW182069   9.692   6.924   3.450  1.3833  0.3416 -1.3108
25583SOL    HW282070   9.596   6.812   3.483  1.6688  1.1557  2.8399
25584SOL     OW82071  10.164   4.468  10.580  0.6704  0.0335 -0.1201
25584SOL    HW182072  10.254   4.436  10.582  1.1368  1.3150  1.0864
25584SOL    HW282073  10.172   4.563  10.581 -0.6753  0.1851  1.5284
25585SOL     OW82074   0.334   7.530   7.755  0.3507  0.1179 -0.3201
25585SOL    HW182075   0.314   7.465   7.822 -0.2368 -1.0566 -1.5776
25585SOL    HW282076   0.283   7.502   7.679  0.3033  1.9037 -0.9994
25586SOL     OW82077   2.247   7.783   5.235 -0.1241  0.3706  0.2486
25586SOL    HW182078   2.233   7.700   5.188  0.0232 -0.5916  1.8056
25586SOL    HW282079   2.218   7.764   5.324  0.8293  1.7214  0.8788
25587SOL     OW82080   3.016   4.049   4.039 -0.4743 -0.0648 -0.5445
25587SOL    HW182081   3.013   4.091   3.953  1.3040 -0.6304 -0.9166
25587SOL    HW282082   3.088   4.093   4.085 -1.3229  0.1501  0.6277
25588SOL     OW82083   6.838   0.914   8.596 -0.0260  0.1234 -0.0631
25588SOL    HW182084   6.746   0.938   8.608 -0.7273 -2.1680 -0.3214
25588SOL    HW282085   6.868   0.971   8.525 -1.2836  0.8219 -0.0665
25589SOL     OW82086  10.283   6.602   2.118 -0.3916  0.2459 -0.1603
25589SOL    HW182087  10.264   6.665   2.048 -0.8096 -0.4707 -0.7090
25589SOL    HW282088  10.363   6.636   2.159  0.1650  0.4090 -1.3310
25590SOL     OW82089   1.526   8.111   7.202 -0.0343  0.0852  0.0517
25590SOL    HW182090   1.601   8.095   7.144 -1.1449  0.7017 -1.6436
25590SOL    HW282091   1.465   8.040   7.183 -0.6130  0.5645  0.0878
25591SOL     OW82092   0.940   1.793   3.882 -0.1223 -0.2126 -0.0952
25591SOL    HW182093   0.888   1.833   3.812 -0.4561 -2.8222 -1.4498
25591SOL    HW282094   0.876   1.767   3.948  0.0519  0.9577  0.5744
25592SOL     OW82095   6.853   7.934   8.139  0.6968  0.1526  0.1486
25592SOL    HW182096   6.807   8.018   8.127 -0.6011 -0.0494  2.9427
25592SOL    HW282097   6.931   7.957   8.190  2.2594  0.0516 -2.0295
25593SOL     OW82098   0.695   9.762   3.718  0.4757  0.0288  0.1645
25593SOL    HW182099   0.680   9.701   3.789  0.7242 -2.3070 -1.6474
25593SOL    HW282100   0.790   9.775   3.718  0.5949 -0.7384 -0.2712
25594SOL     OW82101   8.745   7.201   2.025 -0.6050  0.0044  0.0220
25594SOL    HW182102   8.813   7.268   2.036 -0.8875 -0.0351  2.6269
25594SOL    HW282103   8.750   7.149   2.105 -2.6318 -1.0128 -0.4511
25595SOL     OW82104   7.459   5.458   4.742 -0.4590 -0.1793  0.1004
25595SOL    HW182105   7.399   5.434   4.813 -1.0598 -1.3519 -0.7721
25595SOL    HW282106   7.473   5.377   4.694  0.3304  0.4902 -0.8333
25596SOL     OW82107   7.325   9.593   0.717  1.0537 -0.1696 -0.2458
25596SOL    HW182108   7.348   9.528   0.651  0.5517 -0.0098 -0.5872
25596SOL    HW282109   7.234   9.616   0.696  0.3832 -1.1920  1.3895
25597SOL     OW82110   0.303  10.472   8.624  0.2748 -0.5055 -0.0769
25597SOL    HW182111   0.329  10.518   8.704 -0.5453 -1.6098  0.8517
25597SOL    HW282112   0.212  10.497   8.609  0.4468 -0.2351 -0.7287
25598SOL     OW82113   8.030   4.128   5.543 -0.1273 -0.1167  0.0458
25598SOL    HW182114   7.945   4.090   5.567 -0.3472  0.7455  0.6858
25598SOL    HW282115   8.080   4.054   5.509 -0.2246 -1.2064  2.0945
25599SOL     OW82116   9.691   0.184   3.310  0.5648 -0.2547  0.1086
25599SOL    HW182117   9.631   0.258   3.315 -0.7869 -1.3278  0.4924
25599SOL    HW282118   9.680   0.139   3.394  1.1620 -1.0479 -0.2251
25600SOL     OW82119   2.748   8.866   2.310 -0.4181  0.1816 -0.1159
25600SOL    HW182120   2.719   8.956   2.321  1.3764  1.0410 -1.7047
25600SOL    HW282121   2.844   8.872   2.304 -0.2862 -1.7535 -0.7963
25601SOL     OW82122   9.636   8.494   9.318 -0.5114 -0.0758  0.3162
25601SOL    HW182123   9.555   8.537   9.342 -1.1434  0.6615 -2.7406
25601SOL    HW282124   9.682   8.557   9.262  1.3994 -1.1276  0.5863
25602SOL     OW82125   2.342   3.361   2.044  0.4050 -0.2029  0.1259
25602SOL    HW182126   2.250   3.382   2.031  0.3079 -0.1930  0.7675
25602SOL    HW282127   2.372   3.326   1.961 -0.0447  0.2846 -0.2473
25603SOL     OW82128   7.907   4.539   7.535  0.0729  0.4231  0.2591
25603SOL    HW182129   7.817   4.540   7.566 -0.6035  0.9559 -1.5572
25603SOL    HW282130   7.912   4.613   7.475  1.4719 -0.1342 -0.3614
25604SOL     OW82131   3.736   6.764   9.823  1.0051 -0.3506 -0.3973
25604SOL    HW182132   3.697   6.844   9.788  0.3906 -1.1020 -1.4933
25604SOL    HW282133   3.826   6.765   9.790  0.9695 -0.1706 -0.4907
25605SOL     OW82134   8.550   1.179  11.058  0.1434  0.8086  0.1825
25605SOL    HW182135   8.615   1.242  11.090 -0.0807  0.2122  1.9223
25605SOL    HW282136   8.468   1.206  11.100  0.1829 -1.0015  1.5458
25606SOL     OW82137   7.029   4.959   9.897  0.0747  0.4393  0.2273
25606SOL    HW182138   7.026   4.863   9.892  0.9407  0.4253 -0.2107
25606SOL    HW282139   7.123   4.980   9.896 -0.0213  1.2076  2.1719
25607SOL     OW82140   8.952  11.616   6.180 -0.6566  0.1706  0.0960
25607SOL    HW182141   8.882  11.550   6.187 -1.4981  0.7536 -2.0028
25607SOL    HW282142   8.930  11.665   6.100  1.9477  0.6293 -0.4177
25608SOL     OW82143  11.071   0.905   0.144  0.4236 -0.2875  0.1969
25608SOL    HW182144  11.101   0.908   0.053  3.1087  0.8653  0.9949
25608SOL    HW282145  11.091   0.816   0.173 -2.5255 -1.4035 -0.8621
25609SOL     OW82146   8.774   3.489   5.373  0.0498  0.1346 -0.0039
25609SOL    HW182147   8.701   3.512   5.431  0.7213 -2.1966  1.9615
25609SOL    HW282148   8.734   3.472   5.288 -1.8344 -1.4534  1.1181
25610SOL     OW82149   2.228   0.352   6.958  0.6528 -0.9593 -0.2227
25610SOL    HW182150   2.178   0.388   6.885 -2.6676 -0.4231  2.0864
25610SOL    HW282151   2.256   0.429   7.008  2.7098 -1.3250 -0.7280
25611SOL     OW82152   2.124   4.651   8.064  0.4872 -0.2041 -0.1325
25611SOL    HW182153   2.170   4.621   7.986 -0.1502  1.2378 -1.1034
25611SOL    HW282154   2.173   4.727   8.095 -1.4535  1.7463 -1.5481
25612SOL     OW82155   1.359   7.019   6.126 -0.0820 -0.4844  0.3121
25612SOL    HW182156   1.451   6.992   6.130  0.3724  0.3981 -2.1162
25612SOL    HW282157   1.362   7.110   6.097 -1.7376 -0.2124  0.8681
25613SOL     OW82158  11.443   6.303   1.161 -0.1684 -0.1080 -0.2432
25613SOL    HW182159  11.413   6.377   1.107  0.4884  0.9220  0.7555
25613SOL    HW282160  11.537   6.300   1.146 -0.3946 -1.9458 -1.6871
25614SOL     OW82161   5.113   9.069   0.902 -0.5873  1.0877 -0.4050
25614SOL    HW182162   5.021   9.086   0.923 -0.7614 -1.4075  1.2437
25614SOL    HW282163   5.162   9.113   0.973 -0.5934  1.1557 -0.4430
25615SOL     OW82164   2.280   3.018   6.103  0.1279  0.2798  0.3047
25615SOL    HW182165   2.225   3.093   6.080 -0.4759 -0.9245 -2.5962
25615SOL    HW282166   2.232   2.973   6.173 -1.0650  0.8824 -0.1114
25616SOL     OW82167   6.121   2.170  10.305  0.0349  0.1746 -0.5564
25616SOL    HW182168   6.214   2.163  10.285  0.9168  1.6244  2.4846
25616SOL    HW282169   6.099   2.262  10.287 -0.7325 -0.0605 -0.8757
25617SOL     OW82170   6.213   1.499   1.379  0.0541  0.1230  0.2953
25617SOL    HW182171   6.155   1.574   1.367  1.3498  1.1556  0.2818
25617SOL    HW282172   6.172   1.448   1.449 -1.8620 -0.2091 -1.0017
25618SOL     OW82173   9.523   2.284   8.999 -0.0450  0.3327 -0.8275
25618SOL    HW182174   9.557   2.205   8.956 -2.7357 -0.2482 -2.1128
25618SOL    HW282175   9.546   2.272   9.091  2.3737 -0.3520 -1.4371
25619SOL     OW82176  10.659   2.006   4.384  1.0389 -0.4207  0.3521
25619SOL    HW182177  10.565   1.989   4.371  1.0316 -0.8187  0.9192
25619SOL    HW282178  10.683   2.062   4.310  0.2429  0.0822  0.4619
25620SOL     OW82179   9.072   7.455   0.002  0.1008  0.0834 -0.2635
25620SOL    HW182180   9.140   7.466   0.068  0.0675  0.1145 -0.2338
25620SOL    HW282181   9.115   7.411  -0.071  0.0310 -0.3557 -0.0415
25621SOL     OW82182   5.115   8.909   2.803  0.1729  0.7222  0.2308
25621SOL    HW182183   5.196   8.884   2.757 -0.4291  0.0785 -0.5060
25621SOL    HW282184   5.145   8.965   2.875  1.3165  0.0858  0.2727
25622SOL     OW82185   0.960   9.481   1.626  0.2382  0.2199 -0.3348
25622SOL    HW182186   0.879   9.517   1.661  0.2884  2.5116 -2.3266
25622SOL    HW282187   0.933   9.408   1.570 -0.4975  1.0285 -1.0596
25623SOL     OW82188   6.897   9.116  11.351  0.0695  0.0209  0.0467
25623SOL    HW182189   6.884   9.141  11.260  0.1948 -1.1367 -0.3003
25623SOL    HW282190   6.986   9.080  11.354 -0.4038 -1.1604  0.3398
25624SOL     OW82191   2.659   1.894   0.285 -0.2287 -0.3510  0.2800
25624SOL    HW182192   2.605   1.816   0.299  0.0203 -0.6249 -0.2948
25624SOL    HW282193   2.718   1.871   0.214 -1.5566  1.0683 -1.3536
25625SOL     OW82194   6.208   3.687   7.443 -0.1859 -0.6710  0.4139
25625SOL    HW182195   6.230   3.774   7.408 -0.9479 -0.2161  1.0246
25625SOL    HW282196   6.270   3.628   7.401  0.4781  0.1987  0.1372
25626SOL     OW82197  11.550  10.390   5.767  0.5494 -0.0641 -0.0720
25626SOL    HW182198  11.468  10.372   5.812  2.4745 -1.0529  3.3929
25626SOL    HW282199  11.580  10.304   5.737  1.3995 -0.1004  0.8254
25627SOL     OW82200   8.919   8.011   9.325 -0.1735 -0.2290 -0.3479
25627SOL    HW182201   8.932   8.106   9.333 -1.3731  0.1427 -2.1680
25627SOL    HW282202   8.825   7.998   9.338  0.3591 -1.6207  2.9578
25628SOL     OW82203   6.463   2.068  10.934  0.3530  0.0395  0.1309
25628SOL    HW182204   6.555   2.046  10.919  0.4374 -0.0809  0.7858
25628SOL    HW282205   6.453   2.157  10.901  0.7589  0.1267  0.2395
25629SOL     OW82206   8.273   5.894   4.256  0.0947 -0.4483  0.2750
25629SOL    HW182207   8.186   5.908   4.294  0.1573 -1.8994  1.0587
25629SOL    HW282208   8.311   5.981   4.248 -1.7499  0.3029 -0.8882
25630SOL     OW82209   4.905   5.958   0.923 -0.3164  0.1432  0.0375
25630SOL    HW182210   4.937   5.896   0.988  1.6674  0.8393 -0.1894
25630SOL    HW282211   4.959   6.036   0.936  0.1031  0.3347 -2.3622
25631SOL     OW82212  10.236   8.733   1.200 -0.5136 -0.1073  0.6823
25631SOL    HW182213  10.272   8.644   1.198 -0.1044 -0.0002 -2.2962
25631SOL    HW282214  10.141   8.721   1.194 -0.3842 -0.4631 -2.1383
25632SOL     OW82215   4.040  11.360   7.790  0.0155 -0.4751 -0.1352
25632SOL    HW182216   3.983  11.380   7.864  1.0134 -0.5343  0.6817
25632SOL    HW282217   4.097  11.436   7.781 -1.0816  0.1872 -1.8461
25633SOL     OW82218   0.190  10.056  10.925  0.0735 -0.2490 -0.3785
25633SOL    HW182219   0.278  10.060  10.888  0.3340 -0.8846  0.1484
25633SOL    HW282220   0.149  10.139  10.899  1.7110  1.2954  1.5904
25634SOL     OW82221   5.306   5.965   2.005 -0.5124 -0.7742  0.4009
25634SOL    HW182222   5.244   5.905   2.046 -0.8584 -0.1142  0.8607
25634SOL    HW282223   5.254   6.014   1.942  0.1059 -2.0924 -1.1964
25635SOL     OW82224   4.038   1.583   9.006 -0.1003 -0.1214  0.7735
25635SOL    HW182225   3.998   1.497   9.020  0.4165 -0.4637  0.1738
25635SOL    HW282226   4.067   1.611   9.092 -1.2216 -0.0640  1.1542
25636SOL     OW82227   2.913   1.819   4.975 -0.3181  0.2376 -0.1741
25636SOL    HW182228   2.838   1.830   4.918 -1.9857 -2.0755  1.3994
25636SOL    HW282229   2.894   1.740   5.026  1.6074  1.4216  2.6968
25637SOL     OW82230   0.679   1.035   2.070 -0.2248  0.1000  0.5418
25637SOL    HW182231   0.603   1.087   2.043 -0.6366  0.7949  2.7550
25637SOL    HW282232   0.741   1.042   1.998 -1.3927  1.3697 -0.3853
25638SOL     OW82233   3.105   0.792   8.345  0.6250 -0.6449 -0.5421
25638SOL    HW182234   3.063   0.875   8.367  2.0990  0.0923 -0.3170
25638SOL    HW282235   3.133   0.803   8.254 -2.0774 -2.2165 -1.6846
25639SOL     OW82236   6.600  10.730   9.507  0.0812 -0.1133  0.2510
25639SOL    HW182237   6.638  10.778   9.433 -1.4637 -1.4979 -1.5257
25639SOL    HW282238   6.637  10.642   9.501  0.1443 -0.1783  1.3181
25640SOL     OW82239   8.435   6.218   6.057 -0.2951  0.0173 -0.5582
25640SOL    HW182240   8.382   6.144   6.031  0.6972 -1.1435  0.5616
25640SOL    HW282241   8.525   6.191   6.040  0.1829  0.3556  1.1827
25641SOL     OW82242   2.029   9.707   1.308  0.9336 -0.3363 -0.0618
25641SOL    HW182243   2.092   9.644   1.342  1.8927  0.9346  0.5980
25641SOL    HW282244   1.950   9.692   1.359  0.9269 -1.4565 -0.3869
25642SOL     OW82245   2.016  10.974   5.930 -0.2396  0.3379  0.1210
25642SOL    HW182246   2.077  10.909   5.965  0.6330  0.7605 -0.5580
25642SOL    HW282247   2.005  10.950   5.838  0.2236  1.2353 -0.1823
25643SOL     OW82248   8.589   5.693   4.565  0.2278 -0.2830 -0.3549
25643SOL    HW182249   8.581   5.786   4.586  0.2533 -0.2667 -0.4169
25643SOL    HW282250   8.518   5.651   4.613  1.0295 -0.4116  0.7576
25644SOL     OW82251   6.507   3.165   8.501  0.0036 -0.3013 -0.1076
25644SOL    HW182252   6.487   3.074   8.521  0.4105 -0.3220  0.2272
25644SOL    HW282253   6.442   3.215   8.550  1.5812 -0.3131  2.1756
25645SOL     OW82254   6.693   9.028   2.198 -0.1282 -0.2721  0.2385
25645SOL    HW182255   6.661   9.017   2.108  2.0974  0.4856 -0.7385
25645SOL    HW282256   6.664   8.949   2.244 -1.2578 -0.7101 -1.1644
25646SOL     OW82257   3.668  11.758   6.880  0.7620 -0.0680  0.1702
25646SOL    HW182258   3.631  11.738   6.794  0.9454 -3.4274  0.7289
25646SOL    HW282259   3.622  11.836   6.909 -1.4687 -0.5666 -1.7521
25647SOL     OW82260   7.057   4.020  10.628 -0.0353 -0.0331  0.6647
25647SOL    HW182261   6.970   3.990  10.601  0.1163  1.5233 -1.8666
25647SOL    HW282262   7.068   3.986  10.717 -3.7931  0.8678  1.6375
25648SOL     OW82263   2.467   0.832   2.739 -0.5211  0.0508 -0.1482
25648SOL    HW182264   2.468   0.928   2.741  1.1468  0.0606  1.7283
25648SOL    HW282265   2.375   0.809   2.734 -1.0329  1.7581  0.6107
25649SOL     OW82266   9.508   0.605   8.761  0.0072  0.6890 -0.1623
25649SOL    HW182267   9.418   0.607   8.728 -0.3101  0.7465  0.6807
25649SOL    HW282268   9.541   0.520   8.734 -0.1740  0.8164 -0.7998
25650SOL     OW82269   8.194   3.588  10.403  0.3698 -0.5737 -0.1880
25650SOL    HW182270   8.276   3.552  10.370  0.1934 -1.6405  0.4602
25650SOL    HW282271   8.180   3.541  10.486 -0.2259  0.5385  0.3658
25651SOL     OW82272   3.125   5.336   4.241 -0.3927 -0.1649  0.1593
25651SOL    HW182273   3.216   5.344   4.213 -0.7409  2.4492 -0.4672
25651SOL    HW282274   3.115   5.243   4.262  2.7449 -0.3613  1.4613
25652SOL     OW82275   0.235   8.635  11.543 -0.3407  0.4179  0.6126
25652SOL    HW182276   0.189   8.719  11.537 -1.6263 -0.2522  0.8927
25652SOL    HW282277   0.174   8.570  11.509  1.0078 -0.3189 -0.5658
25653SOL     OW82278   2.728   0.396   9.978  0.1814 -0.1494  0.1014
25653SOL    HW182279   2.798   0.333   9.993  0.9115  0.0049 -2.2811
25653SOL    HW282280   2.653   0.342   9.953  0.6164 -0.1599 -1.2692
25654SOL     OW82281   8.026   0.250   1.452  0.2430 -0.0299  0.4855
25654SOL    HW182282   7.938   0.212   1.447 -0.0094  0.7140 -1.6295
25654SOL    HW282283   8.081   0.192   1.401  0.6862  0.2794  0.6038
25655SOL     OW82284   2.687   9.045  10.363 -0.3565 -0.4999  0.4718
25655SOL    HW182285   2.672   8.951  10.366  1.6048 -0.8324  1.1349
25655SOL    HW282286   2.754   9.057  10.296 -2.3697  0.7552 -1.4590
25656SOL     OW82287   7.798   6.645  10.095 -0.1407  0.0901  0.2939
25656SOL    HW182288   7.802   6.567  10.150  1.6815  1.4536  2.2820
25656SOL    HW282289   7.778   6.716  10.156 -1.3360  1.2592 -1.3784
25657SOL     OW82290   4.523  11.809  11.271  0.1092 -0.2527 -0.1496
25657SOL    HW182291   4.502  11.828  11.179  0.7698  0.7347 -0.1031
25657SOL    HW282292   4.458  11.858  11.321  0.7017  0.4496 -0.0641
25658SOL     OW82293   9.247   0.416   7.098  0.1545  0.0237  0.5214
25658SOL    HW182294   9.181   0.383   7.158  0.4051 -2.9281 -0.6306
25658SOL    HW282295   9.205   0.490   7.053 -1.2067  0.1511  1.9454
25659SOL     OW82296  10.059   8.124   9.387  0.5172  0.1293  0.1054
25659SOL    HW182297   9.993   8.191   9.374  2.2232  2.2601  1.7144
25659SOL    HW282298  10.135   8.154   9.337  1.7179  0.1101  1.8315
25660SOL     OW82299   2.048   3.858   5.328  0.2661  0.3783  0.3503
25660SOL    HW182300   2.056   3.776   5.279  0.0406  0.2871  0.4650
25660SOL    HW282301   2.071   3.834   5.418 -1.5115  0.0516  0.7457
25661SOL     OW82302   7.174   3.780   7.543 -0.0085 -0.0416 -0.1498
25661SOL    HW182303   7.254   3.744   7.506  2.8641  1.5882  3.7392
25661SOL    HW282304   7.131   3.705   7.584  1.5462 -0.4251  0.8668
25662SOL     OW82305   8.497   7.725   0.384  0.5251  0.1104  0.4000
25662SOL    HW182306   8.583   7.687   0.401  0.6259 -0.5938 -1.3989
25662SOL    HW282307   8.504   7.816   0.413  1.7154 -0.0662  0.7180
25663SOL     OW82308   5.618   8.363   4.356  0.0564  0.7781  0.0123
25663SOL    HW182309   5.657   8.277   4.371  0.5026  0.9484 -0.1570
25663SOL    HW282310   5.592   8.362   4.264 -2.0766 -0.0226  0.5647
25664SOL     OW82311  11.126   1.890   9.099 -0.4975 -0.7229  0.3472
25664SOL    HW182312  11.222   1.889   9.096 -0.4012  0.7500  1.5176
25664SOL    HW282313  11.101   1.959   9.038 -0.7354 -0.2619  0.9607
25665SOL     OW82314   6.464   2.322   5.068  0.2662  0.6354  0.4011
25665SOL    HW182315   6.389   2.265   5.052  0.2360  0.6383  0.5287
25665SOL    HW282316   6.540   2.269   5.043  0.3318  0.0581  1.7501
25666SOL     OW82317  10.806   6.354   1.105  0.0768 -0.0022 -0.1619
25666SOL    HW182318  10.768   6.416   1.043  0.6484 -0.2589 -0.7810
25666SOL    HW282319  10.891   6.391   1.128 -0.2261  0.1963  0.6326
25667SOL     OW82320   5.138  10.364   6.512 -0.9563  0.2453 -0.7420
25667SOL    HW182321   5.184  10.448   6.514 -0.1199 -0.2002 -0.0472
25667SOL    HW282322   5.144  10.336   6.421 -1.4703  1.0522 -1.0337
25668SOL     OW82323   0.421   0.623   9.614  0.0784  0.4799 -0.0840
25668SOL    HW182324   0.384   0.543   9.576 -0.2638  1.9108 -3.1298
25668SOL    HW282325   0.346   0.682   9.620  0.6484  1.1639  0.3502
25669SOL     OW82326   3.518   4.966   7.941 -0.3000  0.1600  0.0518
25669SOL    HW182327   3.582   5.026   7.904  0.6263 -1.3121 -0.8639
25669SOL    HW282328   3.549   4.948   8.029 -0.8566  1.3620  0.5132
25670SOL     OW82329  11.218   0.349   4.046  0.5834  0.2116 -0.4643
25670SOL    HW182330  11.219   0.355   4.141 -1.0166 -0.0525 -0.3921
25670SOL    HW282331  11.291   0.292   4.024 -0.9404 -2.4621  0.8888
25671SOL     OW82332   4.671   8.798   1.510 -0.4063  0.0619  0.3611
25671SOL    HW182333   4.593   8.762   1.469 -0.2853 -0.5342  0.6458
25671SOL    HW282334   4.714   8.848   1.440 -0.5390 -0.4087 -0.0611
25672SOL     OW82335   8.723   0.168   2.768 -0.0861  0.4495  0.0323
25672SOL    HW182336   8.762   0.239   2.716  0.0451  0.2756 -0.1061
25672SOL    HW282337   8.797   0.113   2.793 -0.2069  0.2823  0.0221
25673SOL     OW82338   7.272   5.995  10.734  0.3283 -0.5942 -0.3747
25673SOL    HW182339   7.219   6.004  10.654  0.0952  0.1509 -0.1453
25673SOL    HW282340   7.241   6.065  10.791  0.3372 -1.2552  0.4668
25674SOL     OW82341   6.306   3.549   6.513 -0.6434 -0.0461 -0.1664
25674SOL    HW182342   6.295   3.506   6.598 -0.7968 -0.2293 -0.2798
25674SOL    HW282343   6.327   3.640   6.536  2.2746 -0.6983  0.1411
25675SOL     OW82344   6.151   8.142   0.708 -0.3919  0.6213 -0.0459
25675SOL    HW182345   6.137   8.128   0.614 -2.0014  0.8400  0.1341
25675SOL    HW282346   6.246   8.150   0.717 -0.0728 -1.0353 -1.4198
25676SOL     OW82347  11.234   7.350   4.259 -0.2021 -0.2552 -0.0374
25676SOL    HW182348  11.262   7.432   4.298  2.3719 -0.8491 -0.4663
25676SOL    HW282349  11.138   7.353   4.263 -0.1717  2.4765  0.4660
25677SOL     OW82350   2.600   6.208   7.842  0.3303  0.2784 -0.6733
25677SOL    HW182351   2.593   6.279   7.778  2.2510 -1.2313 -2.6807
25677SOL    HW282352   2.509   6.182   7.858 -0.2836  1.7301 -1.5694
25678SOL     OW82353  10.402   8.388   1.390 -0.5079 -0.5297  0.2224
25678SOL    HW182354  10.482   8.425   1.426 -0.3623 -1.0944  0.4820
25678SOL    HW282355  10.390   8.434   1.307  0.5477 -1.0379 -0.2288
25679SOL     OW82356   3.712  11.578   6.080 -0.3926 -0.7229  0.6870
25679SOL    HW182357   3.717  11.508   6.015 -0.6430 -0.0094 -0.1019
25679SOL    HW282358   3.695  11.532   6.163 -0.0267 -1.6343  0.2666
25680SOL     OW82359   2.339   1.898   1.121  0.5272  0.4309  0.0496
25680SOL    HW182360   2.270   1.901   1.188  1.7085  2.4013  1.2990
25680SOL    HW282361   2.417   1.870   1.169  1.1121  0.5804 -0.8009
25681SOL     OW82362   1.498   9.478  11.517 -0.1161  0.0916  0.1371
25681SOL    HW182363   1.587   9.442  11.515 -0.1064  0.1056  0.2701
25681SOL    HW282364   1.510   9.570  11.537  0.0053  0.7361 -2.5501
25682SOL     OW82365   9.151   1.413  11.516  0.1108 -0.2476 -0.6277
25682SOL    HW182366   9.173   1.427  11.424 -0.7640  0.5248 -0.7366
25682SOL    HW282367   9.157   1.500  11.556 -1.1005 -0.2835 -0.3234
25683SOL     OW82368   7.208   7.909   8.646  0.5350 -0.0357 -0.2274
25683SOL    HW182369   7.169   7.996   8.658 -0.9135 -0.5081 -1.1677
25683SOL    HW282370   7.300   7.926   8.628 -0.1391  1.5450 -2.8936
25684SOL     OW82371   3.423   9.076   6.459 -0.0144  1.0371  0.1088
25684SOL    HW182372   3.398   9.032   6.378 -2.2695  1.4739  0.5038
25684SOL    HW282373   3.345   9.071   6.514  1.7236 -0.0722  2.6629
25685SOL     OW82374   6.615   7.994  11.608  0.1433  0.2617  0.4096
25685SOL    HW182375   6.586   8.084  11.593  0.0009  0.1002 -0.3289
25685SOL    HW282376   6.704   8.002  11.642  0.2324  0.6713  0.0863
25686SOL     OW82377  10.790   4.483   3.400  0.2547 -0.2168  0.2592
25686SOL    HW182378  10.783   4.521   3.312  0.3926 -0.8075 -0.0090
25686SOL    HW282379  10.762   4.554   3.458 -0.3435  0.0158 -0.2893
25687SOL     OW82380   8.155   3.341   2.757 -0.2080  0.0937 -1.1057
25687SOL    HW182381   8.132   3.250   2.736 -2.1215  0.7990 -2.3473
25687SOL    HW282382   8.108   3.359   2.839  1.6450 -0.5316  0.1627
25688SOL     OW82383   5.977   4.363   0.515 -0.3078  0.5199 -0.4065
25688SOL    HW182384   6.030   4.409   0.449 -1.1655  1.0419 -0.7421
25688SOL    HW282385   5.981   4.271   0.489  1.0694  0.4418  0.0186
25689SOL     OW82386  10.018   7.245   3.315  0.0774  0.3864 -0.1022
25689SOL    HW182387   9.998   7.159   3.278  0.4512  0.1014  0.3460
25689SOL    HW282388  10.098   7.232   3.365 -0.1954  0.8536  0.4733
25690SOL     OW82389   9.895   7.020   1.779 -0.6481 -0.3033 -0.1255
25690SOL    HW182390   9.864   6.942   1.731  0.4762 -1.0183  0.2685
25690SOL    HW282391   9.876   7.093   1.721  0.4488 -1.1239 -1.5823
25691SOL     OW82392   5.093   5.824   5.538 -0.7427  0.1086  0.1889
25691SOL    HW182393   5.032   5.895   5.555 -0.5737  0.2122  0.3712
25691SOL    HW282394   5.114   5.789   5.624  1.5019  1.7936  0.4278
25692SOL     OW82395  11.017   5.123   3.864 -0.3243 -0.3487 -0.2924
25692SOL    HW182396  11.083   5.086   3.805  0.0895 -0.0280 -0.0428
25692SOL    HW282397  11.008   5.214   3.835 -2.8349 -1.1208 -2.2172
25693SOL     OW82398   7.056   7.326   1.041  0.4292  0.0192  0.2218
25693SOL    HW182399   6.996   7.278   0.984 -0.3464  1.8593 -0.5609
25693SOL    HW282400   7.006   7.341   1.122 -0.0838  1.2871 -0.3160
25694SOL     OW82401   0.930   3.510   3.528  0.1586 -0.1408 -0.4216
25694SOL    HW182402   1.016   3.539   3.500  0.5462  0.1044  0.9504
25694SOL    HW282403   0.913   3.559   3.609 -0.4123 -1.6312  0.3921
25695SOL     OW82404   8.884   7.849   6.659 -0.5220 -0.0454 -0.0416
25695SOL    HW182405   8.898   7.839   6.753  1.0021  0.3272 -0.2115
25695SOL    HW282406   8.961   7.896   6.628 -1.8445  1.5125 -1.1881
25696SOL     OW82407   4.516   6.865   9.810 -0.3828 -0.0550 -0.3304
25696SOL    HW182408   4.437   6.848   9.861 -0.9307  2.1586 -0.3569
25696SOL    HW282409   4.547   6.950   9.840 -0.1473  0.8714 -2.9039
25697SOL     OW82410   2.301  11.338   6.676 -0.0736 -0.5665  0.6348
25697SOL    HW182411   2.274  11.379   6.594 -2.8714 -1.1343  1.1890
25697SOL    HW282412   2.334  11.410   6.730  0.7693 -0.0379 -0.5495
25698SOL     OW82413  10.832   3.457   2.804  0.0747  0.9257  0.0107
25698SOL    HW182414  10.898   3.524   2.783 -0.1503  1.4595  0.9304
25698SOL    HW282415  10.869   3.375   2.772 -0.2143  1.6393 -2.3473
25699SOL     OW82416  11.446   9.162   2.091 -0.3418 -0.4220  0.2634
25699SOL    HW182417  11.515   9.144   2.155  1.8752 -0.3674 -1.9498
25699SOL    HW282418  11.424   9.077   2.055 -1.6258 -0.4585  1.0775
25700SOL     OW82419  11.499   8.288   8.306 -0.1941  0.5811 -0.0589
25700SOL    HW182420  11.562   8.256   8.371 -1.4035  0.1326  0.9281
25700SOL    HW282421  11.494   8.218   8.242 -1.8438 -0.7262  1.4068
25701SOL     OW82422   6.486  10.969   5.190  0.6037 -0.1086 -0.1609
25701SOL    HW182423   6.433  10.925   5.257  1.0951 -1.2202 -0.4760
25701SOL    HW282424   6.458  11.061   5.194 -1.6044 -0.6986 -0.5648
25702SOL     OW82425   2.464   9.960   8.660  0.0361  0.2794 -0.1138
25702SOL    HW182426   2.455  10.016   8.583 -0.4493  0.6837  0.2346
25702SOL    HW282427   2.374   9.947   8.691  0.3271  1.2593  1.1995
25703SOL     OW82428   1.176   7.419   3.252  0.4023  0.7785  0.0033
25703SOL    HW182429   1.176   7.485   3.184  1.5734  0.1418 -0.6443
25703SOL    HW282430   1.263   7.379   3.247  0.4920  0.6629  1.8125
25704SOL     OW82431   2.177   9.219   7.843  0.1423 -0.3960 -0.2600
25704SOL    HW182432   2.134   9.138   7.872 -0.9891 -0.4605 -1.9404
25704SOL    HW282433   2.245   9.189   7.781 -0.3224 -0.0834 -0.9360
25705SOL     OW82434   9.882  11.032   2.842 -0.0116  0.1089 -0.4389
25705SOL    HW182435   9.836  11.099   2.892  1.0181  0.2426  0.3583
25705SOL    HW282436   9.954  11.005   2.898 -0.9257 -2.3654 -0.3326
25706SOL     OW82437   9.258  11.207   5.044 -0.1103 -0.2917 -0.8221
25706SOL    HW182438   9.339  11.208   5.094 -0.3110 -0.2938 -0.4909
25706SOL    HW282439   9.270  11.275   4.978  1.0234 -1.7545 -2.1959
25707SOL     OW82440   3.852   4.439   2.468 -0.3165  0.1539  0.5583
25707SOL    HW182441   3.852   4.456   2.374 -0.0851  0.2765  0.5813
25707SOL    HW282442   3.759   4.428   2.490 -0.2990 -1.3085  0.0503
25708SOL     OW82443  10.996   4.511   9.858  0.6319 -0.2376  0.5914
25708SOL    HW182444  10.902   4.530   9.853  0.4102 -1.2160  0.7499
25708SOL    HW282445  11.026   4.560   9.934  0.9101  2.5456 -1.1880
25709SOL     OW82446   0.107   9.505   0.041 -0.4736 -0.1701 -0.0398
25709SOL    HW182447   0.105   9.435   0.107 -1.4241  1.9098  2.2990
25709SOL    HW282448   0.197   9.537   0.043 -0.8601  1.0012  1.6525
25710SOL     OW82449   5.458   4.322   6.959 -0.3568  0.1595 -0.0187
25710SOL    HW182450   5.467   4.244   7.015  0.7890  0.1735 -0.1505
25710SOL    HW282451   5.368   4.318   6.926 -1.7422  1.1615  3.2760
25711SOL     OW82452   7.983   1.394   9.111  0.2005  0.5470  0.2556
25711SOL    HW182453   7.975   1.377   9.017 -0.8940 -1.5853  0.6587
25711SOL    HW282454   7.931   1.473   9.125  0.2047  0.7799 -0.8884
25712SOL     OW82455   2.917   6.131   3.594 -0.1447  0.1005 -0.3045
25712SOL    HW182456   2.876   6.057   3.551  0.6327 -1.2458  1.1686
25712SOL    HW282457   2.847   6.173   3.643 -0.1352 -1.3113  1.0135
25713SOL     OW82458   8.092   8.456   8.986  0.1984  0.0724 -0.1056
25713SOL    HW182459   8.125   8.373   9.022  0.2495 -0.3908 -1.1640
25713SOL    HW282460   8.042   8.430   8.908 -1.2065  0.9098  0.4717
25714SOL     OW82461   0.907   8.987   6.435  0.4167  0.4420  0.8594
25714SOL    HW182462   0.964   8.991   6.358 -0.9688  1.6028 -0.1606
25714SOL    HW282463   0.900   8.893   6.454 -0.9943 -0.1274 -1.8605
25715SOL     OW82464   7.395   7.141  10.370 -0.7693 -0.2679 -0.4018
25715SOL    HW182465   7.422   7.184  10.289 -1.0549  2.3237  0.7690
25715SOL    HW282466   7.477   7.121  10.415 -0.5865  2.1287  0.4726
25716SOL     OW82467   3.490   8.146   8.186  0.1153  0.4686  0.0547
25716SOL    HW182468   3.455   8.169   8.272 -0.0179  2.2228 -0.4254
25716SOL    HW282469   3.413   8.121   8.135 -0.2502  2.4387 -0.4292
25717SOL     OW82470  10.801   3.727  10.488 -0.3590  0.2634 -0.0748
25717SOL    HW182471  10.752   3.707  10.567  0.2223  0.3445  0.3145
25717SOL    HW282472  10.740   3.778  10.434 -0.3459  1.3299  0.8752
25718SOL     OW82473   9.987   1.482   7.162  0.5177  0.0881 -0.4324
25718SOL    HW182474   9.930   1.516   7.231 -0.1849  0.6371 -1.2632
25718SOL    HW282475   9.933   1.483   7.083  1.7650  0.8936 -1.3091
25719SOL     OW82476   0.427   2.150   5.843  0.2860  0.0571  0.1625
25719SOL    HW182477   0.470   2.086   5.787 -1.5035 -0.2523 -0.9517
25719SOL    HW282478   0.359   2.099   5.889 -0.7432  1.0156 -0.2647
25720SOL     OW82479   3.172   1.977   3.137 -0.2471  0.2564 -0.4944
25720SOL    HW182480   3.174   2.065   3.174  2.1629 -0.1638  0.5534
25720SOL    HW282481   3.249   1.973   3.080  0.1240 -1.3914  0.0620
25721SOL     OW82482   6.640  11.049   3.939 -0.1223  0.2627 -1.0517
25721SOL    HW182483   6.578  11.077   4.007  2.4358  1.8544  0.8269
25721SOL    HW282484   6.644  10.954   3.948 -1.3160  0.2601 -0.3567
25722SOL     OW82485   9.771   9.502   2.731 -0.4614 -0.0042  0.3525
25722SOL    HW182486   9.762   9.551   2.649  0.7461  1.3977  1.0136
25722SOL    HW282487   9.684   9.503   2.769 -0.4816  1.6818  0.3423
25723SOL     OW82488   1.693  11.718   4.858  0.1497  0.5428  0.5563
25723SOL    HW182489   1.648  11.646   4.814  0.6383  0.0929  0.7870
25723SOL    HW282490   1.627  11.788   4.862 -0.6212 -0.1935  1.1248
25724SOL     OW82491   3.065   7.637  11.686  0.0439 -0.3279  0.2433
25724SOL    HW182492   3.117   7.717  11.676  0.9940 -1.0268 -0.5034
25724SOL    HW282493   3.030   7.620  11.599 -1.7088  0.2739  0.7817
25725SOL     OW82494  10.092   9.563   9.547  0.2603 -0.0760 -0.1437
25725SOL    HW182495  10.185   9.583   9.534  0.1065  0.1488 -0.9415
25725SOL    HW282496  10.052   9.647   9.569  0.7105 -0.6163  3.1778
25726SOL     OW82497   3.047  11.786   2.839 -0.1583  0.0889 -0.2600
25726SOL    HW182498   3.050  11.693   2.815  0.0513 -0.3963  1.4822
25726SOL    HW282499   3.069  11.787   2.932  0.7649  1.9802 -0.4491
25727SOL     OW82500   6.827   6.218   7.455 -0.2883  0.1831 -0.3943
25727SOL    HW182501   6.788   6.302   7.481  0.1144 -0.6141  3.5139
25727SOL    HW282502   6.918   6.224   7.485  0.3678 -0.9063 -2.0339
25728SOL     OW82503   8.769   1.744  11.371  0.2459 -0.0150 -0.3302
25728SOL    HW182504   8.849   1.758  11.320  1.3277  1.8898  1.7233
25728SOL    HW282505   8.728   1.668  11.330  2.6880 -0.5784 -1.9675
25729SOL     OW82506   8.941  10.719   1.703  0.4002 -0.0683  0.5860
25729SOL    HW182507   8.922  10.626   1.714  0.0953  0.1187  1.7444
25729SOL    HW282508   9.014  10.736   1.761  1.5977  0.0770 -0.8950
25730SOL     OW82509   6.750   9.722   3.358  0.2826  0.2639  0.0875
25730SOL    HW182510   6.795   9.693   3.438 -0.3802  0.0127  0.3798
25730SOL    HW282511   6.731   9.641   3.311 -3.6517 -0.1759  2.0014
25731SOL     OW82512   0.724   3.278   5.960  0.6156 -0.5164  0.1536
25731SOL    HW182513   0.787   3.305   5.892 -0.1212  1.1399  0.0880
25731SOL    HW282514   0.700   3.359   6.003 -1.2476 -1.1688  0.4018
25732SOL     OW82515   4.421   3.216   6.796  0.3080  0.3588 -0.7440
25732SOL    HW182516   4.332   3.181   6.782  0.1413  0.4417  0.0705
25732SOL    HW282517   4.433   3.212   6.891  1.4573 -0.3338 -0.9010
25733SOL     OW82518   1.073   2.371   4.875  0.4020  0.4361 -0.3317
25733SOL    HW182519   1.107   2.417   4.952 -1.6263  1.4833  0.0195
25733SOL    HW282520   1.120   2.288   4.873  0.2915  0.2273  2.2478
25734SOL     OW82521  11.604   0.639   9.743  0.8384  0.3316 -0.4546
25734SOL    HW182522  11.663   0.623   9.670  1.7997  0.6930  0.2246
25734SOL    HW282523  11.586   0.734   9.740  0.3473  0.2376 -0.6145
25735SOL     OW82524   0.522   7.456   2.984  0.3476 -0.1288  0.1014
25735SOL    HW182525   0.537   7.519   2.914  0.5039 -0.7587 -0.4363
25735SOL    HW282526   0.502   7.374   2.940 -0.6937 -0.2705  0.7965
25736SOL     OW82527   8.230   9.487  11.205 -0.1897 -0.1245  0.1171
25736SOL    HW182528   8.264   9.495  11.294 -0.7254  3.0074  0.1562
25736SOL    HW282529   8.307   9.484  11.149  0.1332 -0.6289  0.5775
25737SOL     OW82530   9.885   7.054   5.058  0.2960 -0.5400 -0.4800
25737SOL    HW182531   9.920   6.967   5.080  0.2287 -0.0013  1.9808
25737SOL    HW282532   9.955   7.115   5.083  0.8958  0.1486 -3.4107
25738SOL     OW82533   9.972   6.273   8.255  0.4642 -0.0183  0.0070
25738SOL    HW182534   9.961   6.295   8.348  1.0753 -0.3477  0.1628
25738SOL    HW282535  10.067   6.262   8.244  0.4212  0.2424 -0.7111
25739SOL     OW82536   3.945   3.547   5.658  0.0453  0.1218  0.3311
25739SOL    HW182537   3.978   3.536   5.747 -0.2691  0.3859  0.4799
25739SOL    HW282538   4.020   3.583   5.609  0.6470 -1.3205  0.1586
25740SOL     OW82539   2.300   1.401   8.564  0.0282  0.3752  0.1442
25740SOL    HW182540   2.285   1.340   8.636  1.1146  1.5169  1.4129
25740SOL    HW282541   2.238   1.375   8.496 -1.1315 -0.6592  1.5492
25741SOL     OW82542   9.393   9.874   3.477  0.7271  0.0655 -0.5797
25741SOL    HW182543   9.357   9.896   3.392  3.3162 -0.4967 -1.9103
25741SOL    HW282544   9.419   9.958   3.515 -1.5190  0.4464  0.2690
25742SOL     OW82545   0.745  10.673   1.709 -0.0911 -0.1286 -0.4246
25742SOL    HW182546   0.658  10.641   1.684  0.6122 -1.1660 -1.6974
25742SOL    HW282547   0.804  10.600   1.688  0.8942 -0.1202  2.0607
25743SOL     OW82548   1.997  10.092   7.960  0.8774 -0.4699 -0.1082
25743SOL    HW182549   1.952  10.175   7.978  0.5328 -0.8842  1.0019
25743SOL    HW282550   1.943  10.050   7.893  0.2768 -0.4187  0.3384
25744SOL     OW82551   7.309   3.814   0.916 -0.1809 -0.5651 -0.0035
25744SOL    HW182552   7.258   3.743   0.956 -0.3115  0.4173  1.6541
25744SOL    HW282553   7.298   3.888   0.975  1.5116  0.2947 -0.6934
25745SOL     OW82554   4.716   9.485   8.061  0.4356  0.1399  0.0474
25745SOL    HW182555   4.630   9.520   8.083 -0.2638 -0.8261 -1.0036
25745SOL    HW282556   4.746   9.538   7.987 -0.6405 -1.4044 -1.5691
25746SOL     OW82557   9.045  11.186  11.688  0.4619 -0.1785 -0.4024
25746SOL    HW182558   9.001  11.264  11.653  2.0047 -0.4129 -3.1231
25746SOL    HW282559   9.083  11.216  11.771 -2.4798  0.7304  0.7287
25747SOL     OW82560  10.720   9.886   7.003 -0.3046  0.0855 -0.2925
25747SOL    HW182561  10.783   9.850   6.941 -0.5800 -1.0586  0.0506
25747SOL    HW282562  10.729   9.830   7.081  0.8975  2.2191  1.1839
25748SOL     OW82563   4.537   7.386   0.456 -0.6079  0.3276 -0.4364
25748SOL    HW182564   4.606   7.358   0.395 -1.0067 -0.3968 -0.5710
25748SOL    HW282565   4.517   7.475   0.429  1.7604  1.3817  0.9689
25749SOL     OW82566   5.814   7.316   8.945 -0.1701  0.1454  0.5870
25749SOL    HW182567   5.835   7.377   8.874  1.7263 -2.7278 -1.5498
25749SOL    HW282568   5.894   7.313   8.998 -0.6059  0.2166  1.2619
25750SOL     OW82569   6.669  11.011   9.031 -0.2340 -0.3068  0.1959
25750SOL    HW182570   6.736  11.017   9.098  0.7534 -0.1715 -0.7886
25750SOL    HW282571   6.637  11.100   9.020 -1.6498 -0.5677  1.6876
25751SOL     OW82572  10.232   4.995   0.752 -0.2175 -0.3433  0.2451
25751SOL    HW182573  10.302   4.931   0.737 -0.5818 -0.3898 -1.5085
25751SOL    HW282574  10.275   5.067   0.799  0.3796 -1.4927  1.5209
25752SOL     OW82575   8.860   0.333   7.734 -0.1297 -0.0642 -0.3422
25752SOL    HW182576   8.890   0.259   7.681  0.9706  0.5403 -0.5794
25752SOL    HW282577   8.798   0.379   7.678 -1.0640 -0.9475 -0.0846
25753SOL     OW82578   1.367   0.879   0.445 -0.2798  0.4971 -0.0999
25753SOL    HW182579   1.426   0.804   0.452 -2.5204 -1.4066 -0.2660
25753SOL    HW282580   1.298   0.862   0.509 -0.4766  2.8676  0.4293
25754SOL     OW82581   2.636  10.600   0.793  0.3108 -0.3731  0.9312
25754SOL    HW182582   2.639  10.504   0.795  3.6143 -0.3925  1.8521
25754SOL    HW282583   2.634  10.622   0.700 -0.2758 -1.3168  0.7038
25755SOL     OW82584   1.565   9.497   5.942  0.0421  0.6054  0.2475
25755SOL    HW182585   1.643   9.550   5.960  1.1061 -0.8714  0.2173
25755SOL    HW282586   1.571   9.424   6.004 -1.1614  0.3135  0.0403
25756SOL     OW82587   8.010   9.324   9.562 -0.0960 -0.4865  0.1478
25756SOL    HW182588   7.927   9.335   9.516  0.2568  1.7216 -0.0750
25756SOL    HW282589   8.071   9.296   9.494 -0.1339  0.3390 -0.2451
25757SOL     OW82590   2.218  11.407   9.377  0.3396  0.1907 -0.2686
25757SOL    HW182591   2.136  11.358   9.389  0.9271 -0.4965  1.2154
25757SOL    HW282592   2.209  11.484   9.432  1.0342 -0.3706  0.6740
25758SOL     OW82593   7.705   3.586   1.699  0.7136 -0.5625 -0.4722
25758SOL    HW182594   7.742   3.664   1.741 -0.7347  1.0185 -1.9433
25758SOL    HW282595   7.762   3.569   1.625  0.0500  0.2347 -1.1873
25759SOL     OW82596  10.668   4.656   9.629 -0.3919 -0.2770  0.1521
25759SOL    HW182597  10.674   4.606   9.548 -1.1224  0.1283 -0.1660
25759SOL    HW282598  10.735   4.724   9.621 -0.3870 -0.3074 -0.0603
25760SOL     OW82599   6.555   3.762   7.389  0.3773  0.3882 -0.2688
25760SOL    HW182600   6.479   3.711   7.361 -0.3574  1.1060  0.4024
25760SOL    HW282601   6.628   3.723   7.340  0.0898 -2.1887  1.1924
25761SOL     OW82602   5.307   8.400   1.340  0.8798 -0.6684 -0.0869
25761SOL    HW182603   5.231   8.358   1.301  1.1866 -1.4623  0.1461
25761SOL    HW282604   5.295   8.493   1.323  0.6478 -0.9328 -1.4386
25762SOL     OW82605  11.043   7.438   6.340 -0.1947 -0.0607 -0.5706
25762SOL    HW182606  10.960   7.456   6.385 -0.5748 -1.1448 -0.8142
25762SOL    HW282607  11.105   7.416   6.409 -1.3052 -3.8559 -0.5635
25763SOL     OW82608   4.707   6.076   8.411 -0.4343 -0.1791  0.3408
25763SOL    HW182609   4.659   6.050   8.490 -0.2204 -0.0253  0.5238
25763SOL    HW282610   4.799   6.079   8.439 -0.4761  1.0399  0.4038
25764SOL     OW82611   5.529   6.483  11.368  0.1844 -0.0896 -0.2127
25764SOL    HW182612   5.606   6.434  11.397  0.6531  0.0008 -1.2491
25764SOL    HW282613   5.482   6.423  11.311  0.5072  0.4854 -1.1085
25765SOL     OW82614   8.151  10.904   9.178  0.0063 -0.5292 -0.1958
25765SOL    HW182615   8.174  10.812   9.170  0.6846 -0.4349  0.5089
25765SOL    HW282616   8.059  10.909   9.151 -0.1102 -1.4544  0.0153
25766SOL     OW82617   6.517   6.894  10.937 -0.7437  0.1108  0.4321
25766SOL    HW182618   6.510   6.862  10.847 -0.8739 -0.1801  0.5459
25766SOL    HW282619   6.592   6.848  10.974 -1.2379 -0.4480  0.7515
25767SOL     OW82620   4.233   5.953   4.453  0.3476  0.1820  0.2417
25767SOL    HW182621   4.212   6.035   4.408 -2.2693 -0.2221  0.5354
25767SOL    HW282622   4.270   5.980   4.537  0.3835  1.0395 -0.0425
25768SOL     OW82623   9.810   1.023   7.154 -0.2775  0.0056  0.1772
25768SOL    HW182624   9.776   1.078   7.224 -2.0075  0.0917 -0.6697
25768SOL    HW282625   9.885   0.978   7.192 -0.3397  1.0922  1.6354
25769SOL     OW82626   6.811   2.976   9.645 -0.2947  0.0523 -0.0377
25769SOL    HW182627   6.854   3.021   9.717 -0.3415  0.0996 -0.0389
25769SOL    HW282628   6.779   3.046   9.588  0.2522  0.0120 -0.4063
25770SOL     OW82629   3.713   0.033   6.091 -0.2672 -0.4460 -0.2229
25770SOL    HW182630   3.698  -0.060   6.109  1.5769 -0.6869  0.2832
25770SOL    HW282631   3.637   0.060   6.041 -0.3319 -2.5298 -1.3674
25771SOL     OW82632   5.870   4.115   6.872  0.0950 -0.4348 -0.2344
25771SOL    HW182633   5.911   4.089   6.789  0.5576  1.7303 -0.7317
25771SOL    HW282634   5.943   4.124   6.933 -0.2576 -2.1589  0.4959
25772SOL     OW82635  11.116  10.141   3.830 -0.2519  0.0788 -0.3872
25772SOL    HW182636  11.077  10.109   3.912 -0.6545  1.8719  0.1625
25772SOL    HW282637  11.092  10.075   3.765  0.2804 -1.5260  0.9604
25773SOL     OW82638   0.602  11.770   9.393  0.0607 -0.0627  0.4680
25773SOL    HW182639   0.521  11.820   9.385  0.9481  1.7712  2.0668
25773SOL    HW282640   0.580  11.683   9.360 -1.9697  0.9414 -1.0729
25774SOL     OW82641   3.006   4.243  10.436 -0.1658  0.2858  0.1150
25774SOL    HW182642   2.956   4.250  10.355 -0.2947  0.5164  0.2136
25774SOL    HW282643   2.940   4.245  10.505 -0.0892 -0.3331  0.2143
25775SOL     OW82644   2.531   2.783   6.829  0.2159 -0.2194  0.3778
25775SOL    HW182645   2.503   2.693   6.818  0.4228 -0.6567  2.8226
25775SOL    HW282646   2.467   2.821   6.890  0.3530  1.1670 -0.3100
25776SOL     OW82647   6.969   8.822   3.129 -0.9518  0.0579 -0.4714
25776SOL    HW182648   6.963   8.898   3.187 -4.0912  0.7430 -1.4756
25776SOL    HW282649   6.882   8.816   3.089 -0.5148 -3.5042 -1.1853
25777SOL     OW82650   3.672   5.501   1.804  0.1054  0.5238 -0.0666
25777SOL    HW182651   3.603   5.456   1.854 -0.2397 -0.6065 -1.4824
25777SOL    HW282652   3.636   5.589   1.789 -1.7562 -0.4628 -2.0012
25778SOL     OW82653   6.008  10.066   2.377 -0.1469 -0.1362 -0.2228
25778SOL    HW182654   6.062  10.082   2.300 -0.2749 -0.9519 -0.4886
25778SOL    HW282655   5.981  10.154   2.407  1.6705  0.3160  0.1823
25779SOL     OW82656   6.443   9.647   6.711  0.1806 -0.3819 -0.5405
25779SOL    HW182657   6.438   9.551   6.712  1.0738 -0.4678  1.6543
25779SOL    HW282658   6.515   9.667   6.771  1.4653  1.6296 -2.5699
25780SOL     OW82659  11.368  11.455  11.436  0.2433  0.2593 -0.1265
25780SOL    HW182660  11.284  11.410  11.428  0.0616  0.2691  1.4014
25780SOL    HW282661  11.423  11.393  11.486  0.5591  0.9765  0.4359
25781SOL     OW82662   0.506   8.879   8.254 -0.0265 -0.3898 -0.7114
25781SOL    HW182663   0.482   8.864   8.346 -3.8504 -3.0305 -1.8622
25781SOL    HW282664   0.598   8.855   8.250  0.6496  1.0026  2.5746
25782SOL     OW82665  10.373   6.154   0.909 -0.3081 -0.0719  0.0024
25782SOL    HW182666  10.280   6.133   0.899 -0.6420  0.8716  0.9291
25782SOL    HW282667  10.411   6.078   0.952 -0.9305  0.0888  0.8507
25783SOL     OW82668  11.175   8.929   4.239 -0.2147  0.1842 -0.0277
25783SOL    HW182669  11.147   8.889   4.157  0.4198  1.0539 -0.6861
25783SOL    HW282670  11.155   8.863   4.306  0.0665 -0.8870 -0.9774
25784SOL     OW82671   4.652   1.507   8.288 -0.1626 -0.3421 -0.2249
25784SOL    HW182672   4.738   1.465   8.295  0.1123  0.3856  1.0437
25784SOL    HW282673   4.657   1.583   8.346 -1.7009 -0.3497 -0.0283
25785SOL     OW82674   9.171   9.343  11.652  0.0865  0.0923 -0.4164
25785SOL    HW182675   9.184   9.366  11.744 -0.6918  1.8763 -0.7056
25785SOL    HW282676   9.180   9.248  11.649 -0.4142 -0.0606  1.5942
25786SOL     OW82677  10.778   8.024   9.247 -0.2552 -0.1465 -0.6630
25786SOL    HW182678  10.831   8.098   9.218 -0.7852  0.4250 -0.2073
25786SOL    HW282679  10.840   7.953   9.259  0.7957  1.0373  1.7777
25787SOL     OW82680   5.938   0.030   2.791 -0.0083  0.0769  0.0172
25787SOL    HW182681   5.996   0.102   2.768  1.3295 -0.7525  0.6613
25787SOL    HW282682   5.865   0.071   2.839  1.4955  0.8748  1.7419
25788SOL     OW82683   0.644   5.107   5.254  0.2073 -0.3663  0.2081
25788SOL    HW182684   0.625   5.018   5.284 -0.9778 -0.1908  0.0545
25788SOL    HW282685   0.586   5.120   5.179 -0.3320  0.8457  0.8068
25789SOL     OW82686   2.927   2.542   4.370 -0.2554  0.0752  0.4120
25789SOL    HW182687   2.908   2.526   4.463 -0.3208 -1.6988  0.1386
25789SOL    HW282688   2.994   2.476   4.348 -2.1507 -1.3807 -1.4080
25790SOL     OW82689  11.725   7.914   2.426  0.1767  0.1374  0.4583
25790SOL    HW182690  11.724   7.927   2.521  0.5292 -1.4729  0.7210
25790SOL    HW282691  11.815   7.885   2.407 -0.0226 -0.0200 -0.2886
25791SOL     OW82692   4.642  10.792   7.332 -0.1299  0.4058  0.4067
25791SOL    HW182693   4.697  10.750   7.266  0.4120  2.0510 -0.2649
25791SOL    HW282694   4.699  10.803   7.408  0.6891  2.4669 -0.4234
25792SOL     OW82695   8.746   7.167   5.444  0.2769  0.2221  0.0748
25792SOL    HW182696   8.750   7.217   5.525  2.1042  0.5744 -0.1809
25792SOL    HW282697   8.835   7.171   5.409 -0.5439  0.3851 -2.1519
25793SOL     OW82698   9.384   0.017   2.009  0.3961  0.2703  0.1438
25793SOL    HW182699   9.365   0.079   2.080  0.6057  2.2374 -1.4348
25793SOL    HW282700   9.308  -0.042   2.008 -0.2272  1.0260  1.1419
25794SOL     OW82701   1.520   2.540   4.977 -0.0250  0.0117 -0.5889
25794SOL    HW182702   1.615   2.537   4.966 -0.0004  0.2442 -0.4530
25794SOL    HW282703   1.493   2.448   4.977  0.4287 -0.1641  1.3406
25795SOL     OW82704   1.376  10.079   3.430 -0.7377  0.8176  0.0389
25795SOL    HW182705   1.444  10.145   3.438  0.0980 -0.1576  1.6064
25795SOL    HW282706   1.332  10.079   3.515 -2.0656  0.7606 -0.6256
25796SOL     OW82707   4.086  11.339   3.227 -0.4309 -0.7033  0.3386
25796SOL    HW182708   4.081  11.245   3.209  1.0727 -0.7903  0.2493
25796SOL    HW282709   4.072  11.381   3.142  0.9814 -0.9329 -0.0276
25797SOL     OW82710   1.507   5.472  10.256  0.1589  0.2315  0.1695
25797SOL    HW182711   1.495   5.482  10.350  1.5095  1.0688  0.2813
25797SOL    HW282712   1.521   5.561  10.224 -0.6405  0.0044 -0.8941
25798SOL     OW82713  10.901   6.017  10.252 -0.7230  0.5720 -0.3242
25798SOL    HW182714  10.888   5.988  10.342 -0.8499  0.9735 -0.2117
25798SOL    HW282715  10.930   5.939  10.206  0.2047  0.5564  0.2565
25799SOL     OW82716  10.641  10.282  10.432  0.3729 -0.7379  0.3711
25799SOL    HW182717  10.645  10.372  10.398 -0.9302 -0.8955 -0.2481
25799SOL    HW282718  10.697  10.231  10.374 -0.0449 -0.5863 -0.1697
25800SOL     OW82719   1.180   6.987   0.486 -0.4769  0.8067  0.4165
25800SOL    HW182720   1.094   7.019   0.513 -0.9135 -0.2518  0.2878
25800SOL    HW282721   1.165   6.898   0.454  0.6397  0.6596  0.2499
25801SOL     OW82722  11.746   0.505  11.439  0.0745 -0.2811  0.0252
25801SOL    HW182723  11.712   0.582  11.394 -0.2190 -0.2487  0.2967
25801SOL    HW282724  11.751   0.437  11.371  2.0457  0.4661 -0.6439
25802SOL     OW82725  10.112   3.472   8.371 -0.1259  0.5167  0.1197
25802SOL    HW182726  10.144   3.474   8.281 -2.9027  1.6332 -0.9809
25802SOL    HW282727  10.101   3.379   8.391  0.8118  0.2443 -0.5441
25803SOL     OW82728  10.449   3.187   5.868  0.2797 -0.7089 -0.1204
25803SOL    HW182729  10.543   3.191   5.883  0.2820 -1.9070  0.3167
25803SOL    HW282730  10.439   3.192   5.773  0.8303 -1.1708 -0.2051
25804SOL     OW82731   2.711   2.877   6.135 -0.0801 -0.2746  0.3236
25804SOL    HW182732   2.666   2.962   6.132  2.5871  1.2243 -0.8592
25804SOL    HW282733   2.687   2.841   6.220 -1.2918  1.6785  0.8870
25805SOL     OW82734   3.481   7.634   5.228 -0.2843 -0.2895  0.5640
25805SOL    HW182735   3.393   7.597   5.226  0.1618 -1.3661 -0.4371
25805SOL    HW282736   3.470   7.720   5.268 -2.2144  0.6818 -1.7722
25806SOL     OW82737   1.983   6.378   8.163 -0.3399  0.0430 -0.1647
25806SOL    HW182738   1.895   6.401   8.133 -0.0761  0.4786 -0.6231
25806SOL    HW282739   1.968   6.320   8.237 -1.0132 -0.3706 -0.6074
25807SOL     OW82740   9.331   0.756  11.784  0.2290  0.2090 -0.0516
25807SOL    HW182741   9.409   0.797  11.822  0.0444  0.3818  0.1408
25807SOL    HW282742   9.262   0.821  11.794  0.0853  0.0968 -0.3215
25808SOL     OW82743   1.805   7.047   9.418  0.3042 -0.3742  0.3344
25808SOL    HW182744   1.827   6.974   9.477  0.1757 -0.0353  0.8082
25808SOL    HW282745   1.817   7.125   9.472  0.6202 -0.0326 -0.2274
25809SOL     OW82746   3.889   1.145   6.250 -0.2151 -0.1789  0.1835
25809SOL    HW182747   3.949   1.192   6.309  0.3546  0.8940 -1.1861
25809SOL    HW282748   3.805   1.188   6.262  0.4026  1.6399 -1.4092
25810SOL     OW82749   0.936  11.372   3.227  0.0201 -0.6182 -0.0348
25810SOL    HW182750   0.933  11.349   3.320  2.4119 -1.0840 -0.0072
25810SOL    HW282751   0.858  11.331   3.190 -0.5727 -1.0808  1.6300
25811SOL     OW82752   8.633   8.824  10.077  0.2943 -0.4901  0.0494
25811SOL    HW182753   8.718   8.780  10.077  0.5779  0.0369  0.7173
25811SOL    HW282754   8.654   8.917  10.064 -0.1173 -0.2571  1.0053
25812SOL     OW82755   4.151   9.518   9.290 -0.2848  0.2157  0.2841
25812SOL    HW182756   4.077   9.480   9.338 -0.9044 -0.2225 -0.9594
25812SOL    HW282757   4.200   9.442   9.258  0.4081  0.5059  0.6351
25813SOL     OW82758   5.972   1.373   3.216  0.3150 -0.5970 -0.4007
25813SOL    HW182759   5.965   1.421   3.299  0.4300 -1.4292  0.1076
25813SOL    HW282760   5.885   1.338   3.200  0.5392 -1.3409 -0.0557
25814SOL     OW82761   4.700   8.969   5.992  0.1987  0.1961  0.1049
25814SOL    HW182762   4.682   9.012   6.076 -2.6263 -3.0556  1.4036
25814SOL    HW282763   4.656   9.024   5.928 -0.4458  1.0359  1.2172
25815SOL     OW82764   7.978   3.021   5.747  0.5399  0.0067 -0.3131
25815SOL    HW182765   8.063   2.994   5.712  1.7762  2.7867  0.3002
25815SOL    HW282766   7.993   3.031   5.841 -0.4230  0.6878 -0.2147
25816SOL     OW82767   7.485   7.658   9.537 -0.2182  0.7793  0.0686
25816SOL    HW182768   7.565   7.693   9.500 -1.8113  0.3878 -4.2435
25816SOL    HW282769   7.430   7.735   9.554 -0.5394  0.8512 -1.2290
25817SOL     OW82770   2.212  10.800   5.980 -0.3395 -0.5007 -0.0928
25817SOL    HW182771   2.298  10.833   5.954 -0.7518  2.7039  1.9820
25817SOL    HW282772   2.198  10.722   5.926  3.2030 -0.3282 -1.5124
25818SOL     OW82773   3.360   0.669   8.201  0.2909  0.1125 -0.6069
25818SOL    HW182774   3.415   0.594   8.226 -0.1461 -0.0423 -0.0888
25818SOL    HW282775   3.414   0.746   8.221  0.1073 -0.0229  0.4695
25819SOL     OW82776   6.068   1.317   1.551 -0.0487 -0.0041 -0.1072
25819SOL    HW182777   6.089   1.225   1.568  0.1882 -0.2078 -1.3682
25819SOL    HW282778   6.033   1.349   1.634 -1.6234 -1.6503 -0.0764
25820SOL     OW82779   7.252  10.670   8.111  0.2741  0.5647  0.1952
25820SOL    HW182780   7.257  10.665   8.207 -0.0934 -1.7742  0.1695
25820SOL    HW282781   7.338  10.638   8.081 -0.3798 -0.9081 -0.2096
25821SOL     OW82782   9.836  10.129   9.512 -0.6289  0.0676  1.1491
25821SOL    HW182783   9.782  10.129   9.591  0.8110 -1.6919  2.1950
25821SOL    HW282784   9.922  10.160   9.540  0.3703 -2.0893  0.6993
25822SOL     OW82785   9.098   3.172   9.127 -0.1790 -0.8563 -0.6783
25822SOL    HW182786   9.138   3.108   9.186  1.8986  1.3786  0.4766
25822SOL    HW282787   9.007   3.177   9.157  0.4864 -0.7733  1.5146
25823SOL     OW82788   9.043   5.213   4.867  0.5754 -0.1107 -0.2047
25823SOL    HW182789   9.134   5.195   4.892  0.5768  1.2052  0.9003
25823SOL    HW282790   9.011   5.269   4.938 -1.2941 -1.0462 -0.2702
25824SOL     OW82791  10.906   3.325   1.856 -0.6771  0.2008  0.2971
25824SOL    HW182792  10.908   3.360   1.944  1.6862 -0.9664  0.7829
25824SOL    HW282793  10.824   3.275   1.852 -0.3198 -0.6340  2.2370
25825SOL     OW82794   0.009   0.520   3.865  0.6307 -0.4518 -0.8231
25825SOL    HW182795   0.058   0.591   3.907 -1.7204  0.7172  0.0989
25825SOL    HW282796   0.072   0.447   3.860  2.2183  0.7110  0.9507
25826SOL     OW82797   0.615   8.768   7.804  0.0585 -0.8148  0.2237
25826SOL    HW182798   0.642   8.843   7.858 -1.1427  0.5972 -1.0279
25826SOL    HW282799   0.639   8.692   7.856  0.4443  0.4455  2.0157
25827SOL     OW82800   8.993  10.045   4.116  0.1639  0.9804 -0.0586
25827SOL    HW182801   8.947   9.963   4.134  0.7986  0.4184 -0.9233
25827SOL    HW282802   8.963  10.104   4.185 -0.4394  0.0806  0.4818
25828SOL     OW82803   0.429   6.053   3.652 -0.1391  0.2589 -0.1449
25828SOL    HW182804   0.404   5.966   3.623  1.9015 -0.3574 -0.2204
25828SOL    HW282805   0.382   6.113   3.594 -0.0737 -0.8402 -1.3601
25829SOL     OW82806   0.728   4.198  10.271 -0.6487 -0.1960  0.2909
25829SOL    HW182807   0.662   4.221  10.337 -0.3085 -0.5163  0.7504
25829SOL    HW282808   0.682   4.207  10.187 -1.1222  0.0972  0.5746
25830SOL     OW82809   0.853   7.242   0.986 -0.4276  0.2473  0.1395
25830SOL    HW182810   0.793   7.315   0.999 -0.4995  0.5064 -1.4868
25830SOL    HW282811   0.940   7.282   0.988 -0.4086  0.1901  0.4529
25831SOL     OW82812   7.452  10.523  10.837 -0.3789  0.0787  0.2066
25831SOL    HW182813   7.485  10.436  10.859  1.6124  0.3149 -1.5092
25831SOL    HW282814   7.513  10.584  10.880 -1.5201  0.6461  1.0660
25832SOL     OW82815   8.678  11.564   7.884 -0.3567 -0.3004  0.1327
25832SOL    HW182816   8.748  11.520   7.836 -2.3213 -1.1301 -2.1491
25832SOL    HW282817   8.691  11.657   7.865  2.1514  0.0018  2.6907
25833SOL     OW82818   9.427  10.852   7.337 -0.1983 -0.9198  0.5638
25833SOL    HW182819   9.398  10.922   7.396 -0.7212  0.7713 -1.5723
25833SOL    HW282820   9.509  10.885   7.300 -0.2513 -1.6195 -0.1948
25834SOL     OW82821   4.889   8.865   7.834  0.1685  0.2643  0.2868
25834SOL    HW182822   4.930   8.846   7.750 -0.1871  1.2836 -0.1334
25834SOL    HW282823   4.818   8.801   7.842 -0.0593  0.4262 -0.3958
25835SOL     OW82824   7.601   0.401   6.150  0.2195  0.0112 -0.1934
25835SOL    HW182825   7.678   0.404   6.207 -0.5186  0.2722  0.8186
25835SOL    HW282826   7.541   0.341   6.194 -0.6070  0.6805 -0.3877
25836SOL     OW82827   5.086   8.417   6.650 -0.8657  0.1161 -0.2172
25836SOL    HW182828   4.996   8.416   6.617 -0.8425  3.1427 -0.7319
25836SOL    HW282829   5.105   8.510   6.662  1.5825 -0.5357  1.6873
25837SOL     OW82830  10.969   8.206   2.671  0.1195  0.1526  0.0518
25837SOL    HW182831  10.929   8.288   2.640 -1.1888  0.1327  1.5613
25837SOL    HW282832  11.038   8.188   2.607  0.9752  2.8380  0.0812
25838SOL     OW82833   4.863   4.702   6.354  0.2429  0.3462 -0.0484
25838SOL    HW182834   4.929   4.682   6.421  0.5823  1.2156 -0.1092
25838SOL    HW282835   4.913   4.744   6.284 -0.2965  0.5032 -0.3407
25839SOL     OW82836   2.419   9.522  10.218 -0.1762  0.1787  0.0222
25839SOL    HW182837   2.385   9.610  10.234 -2.7133 -0.4997 -1.0252
25839SOL    HW282838   2.464   9.528  10.133 -0.2821  0.4903 -0.0124
25840SOL     OW82839  10.910   1.460   0.293 -0.6592 -0.1784 -0.2294
25840SOL    HW182840  10.845   1.393   0.313  0.3332 -1.6742 -1.7182
25840SOL    HW282841  10.862   1.528   0.246 -1.5740 -0.1001  0.8013
25841SOL     OW82842   1.275   3.770  11.042 -0.1699  0.6563 -0.1749
25841SOL    HW182843   1.364   3.791  11.014 -0.4976  0.1848 -1.6184
25841SOL    HW282844   1.243   3.852  11.081  1.1177  0.6254  1.0367
25842SOL     OW82845  10.474   0.579   8.443 -0.6713 -0.2043 -0.1046
25842SOL    HW182846  10.381   0.563   8.456 -1.0280  1.4784 -0.2373
25842SOL    HW282847  10.494   0.655   8.498 -0.3280  1.8944 -2.8622
25843SOL     OW82848   1.125   8.471   4.633  0.1388  0.2321  0.3088
25843SOL    HW182849   1.102   8.458   4.541  0.3688  0.7040  0.1757
25843SOL    HW282850   1.044   8.457   4.681  0.6019 -2.9487  0.3461
25844SOL     OW82851  11.078   6.643   6.471 -0.2435 -0.1864 -0.0354
25844SOL    HW182852  11.112   6.599   6.549 -1.3724 -0.4808  0.3221
25844SOL    HW282853  10.989   6.668   6.496 -0.3325  0.4473 -0.9604
25845SOL     OW82854  11.516   5.263  10.171  0.4645  0.0246  0.2125
25845SOL    HW182855  11.607   5.293  10.166 -0.1332  2.1172  1.1139
25845SOL    HW282856  11.495   5.265  10.264  0.0426 -2.3917  0.2559
25846SOL     OW82857   9.581   4.021   6.018 -0.5782  0.0101 -0.0114
25846SOL    HW182858   9.594   4.066   6.101 -1.9616  1.2282 -0.4278
25846SOL    HW282859   9.607   4.084   5.951 -0.8732 -0.4322 -0.5552
25847SOL     OW82860   6.567   0.828  10.967 -0.5467  0.1450  0.2115
25847SOL    HW182861   6.543   0.898  10.906 -0.4039 -2.0846 -2.6396
25847SOL    HW282862   6.494   0.824  11.029 -1.7844  1.1968 -1.0986
25848SOL     OW82863   2.307   6.203   5.461  0.1263  1.0241 -0.1311
25848SOL    HW182864   2.213   6.188   5.460  0.1862  0.2809  1.6198
25848SOL    HW282865   2.316   6.298   5.472 -0.3875  1.2024 -1.1674
25849SOL     OW82866   2.643   6.507   6.395  0.1854  0.0186 -0.4861
25849SOL    HW182867   2.662   6.459   6.475  0.0322  0.5417 -0.1252
25849SOL    HW282868   2.574   6.457   6.352 -0.5305  0.3150  0.2750
25850SOL     OW82869   8.530   5.009  11.189  0.8323  0.0522  0.1806
25850SOL    HW182870   8.489   4.976  11.268  0.9652 -0.7706 -0.0898
25850SOL    HW282871   8.621   5.025  11.214  0.9144 -0.3661  0.1480
25851SOL     OW82872   7.345   7.629   5.570  0.4841  0.2314  0.3658
25851SOL    HW182873   7.277   7.696   5.560  0.0431 -0.2852 -0.1808
25851SOL    HW282874   7.405   7.644   5.497  0.7479  0.4408  0.6235
25852SOL     OW82875   6.537   9.304   5.285  0.7002 -0.5730  0.0202
25852SOL    HW182876   6.471   9.343   5.228  0.7600  0.3604  0.5726
25852SOL    HW282877   6.534   9.210   5.264 -0.0228 -0.3941 -0.7408
25853SOL     OW82878   1.646   7.529   6.070 -0.1893  0.5190  0.1949
25853SOL    HW182879   1.619   7.473   6.143 -0.2910  1.2669  0.7504
25853SOL    HW282880   1.632   7.618   6.102  0.7447  0.8878 -0.3590
25854SOL     OW82881   6.279   1.288   4.570 -0.1742 -0.2211  0.0581
25854SOL    HW182882   6.374   1.297   4.576 -0.0440 -1.5205  0.2692
25854SOL    HW282883   6.266   1.200   4.535 -1.2831  0.6324 -1.8129
25855SOL     OW82884   0.009   1.361   6.520 -0.1705  0.2602  0.0871
25855SOL    HW182885  -0.063   1.343   6.580 -0.2043 -0.5066 -0.1720
25855SOL    HW282886  -0.015   1.443   6.478 -0.7577  0.1569  0.2123
25856SOL     OW82887   1.062   8.799  10.400  0.4245 -0.1233 -1.0969
25856SOL    HW182888   0.974   8.797  10.364  0.2771 -0.9678 -0.6939
25856SOL    HW282889   1.105   8.721  10.365  0.9260  0.1377 -1.0738
25857SOL     OW82890   8.433   5.350   5.890 -0.3121 -0.5148  0.0000
25857SOL    HW182891   8.450   5.346   5.796 -3.5677  1.1669 -0.8281
25857SOL    HW282892   8.424   5.444   5.908  1.0523 -0.7433  2.2275
25858SOL     OW82893   1.547   8.547  11.318  0.4919 -0.0729 -0.3119
25858SOL    HW182894   1.542   8.627  11.268 -1.1048  0.4443  0.6008
25858SOL    HW282895   1.640   8.536  11.338  0.9095  0.6854 -1.7592
25859SOL     OW82896  10.827   6.503   8.913  0.1875 -0.1341 -0.0612
25859SOL    HW182897  10.758   6.451   8.872 -0.4831 -1.0506  2.0901
25859SOL    HW282898  10.780   6.566   8.968  1.0476  1.4869 -1.0723
25860SOL     OW82899   7.376   4.676   6.924  0.5685 -0.5081  0.0113
25860SOL    HW182900   7.295   4.662   6.875  1.1230 -0.4915 -0.9495
25860SOL    HW282901   7.388   4.596   6.976  1.6120 -1.9899 -2.3342
25861SOL     OW82902   4.819  10.720   0.385  0.0086 -0.0484  0.8746
25861SOL    HW182903   4.728  10.748   0.396  0.0198  0.7914 -0.8137
25861SOL    HW282904   4.812  10.631   0.349 -0.2340  0.6991 -1.0384
25862SOL     OW82905   6.475   1.713   4.197 -0.1270 -1.0855  0.3778
25862SOL    HW182906   6.391   1.668   4.208  1.1116 -3.4981  0.7563
25862SOL    HW282907   6.474   1.781   4.264 -2.4534  0.1701 -0.7982
25863SOL     OW82908   0.053   2.971   2.126 -0.0314 -0.5155  0.0122
25863SOL    HW182909   0.063   2.964   2.221  1.6483  0.6460 -0.0383
25863SOL    HW282910   0.040   2.881   2.096 -0.4316 -0.9064  1.3259
25864SOL     OW82911   1.055   7.390   5.099  0.4506 -0.5030 -0.2243
25864SOL    HW182912   1.144   7.368   5.130  2.0779  1.0016 -3.4506
25864SOL    HW282913   1.026   7.310   5.055  1.3168 -0.1924 -1.4006
25865SOL     OW82914   2.335   7.609   8.032 -0.0714  0.3592 -0.2032
25865SOL    HW182915   2.410   7.573   8.081 -0.3913 -0.0839 -0.0318
25865SOL    HW282916   2.332   7.701   8.057 -0.9783 -0.1079  1.6119
25866SOL     OW82917   9.032   9.420  10.859 -0.0274  0.0307  0.3741
25866SOL    HW182918   9.014   9.341  10.910 -1.0644 -0.0597 -0.1075
25866SOL    HW282919   9.127   9.424  10.856  0.0894  0.0347  2.2938
25867SOL     OW82920   0.201   7.957   5.086  0.0495 -0.5910 -0.0517
25867SOL    HW182921   0.147   8.034   5.104  0.4919 -0.1625 -0.5355
25867SOL    HW282922   0.174   7.930   4.998  0.0119 -0.8948  0.0515
25868SOL     OW82923   3.125  10.127   3.306 -0.2579 -0.6669  0.0900
25868SOL    HW182924   3.061  10.189   3.339  0.9865  0.0463  1.2604
25868SOL    HW282925   3.196  10.129   3.370  1.3776 -0.7018 -1.6207
25869SOL     OW82926   4.006  11.791   3.070  0.5360 -0.1278  0.1802
25869SOL    HW182927   3.928  11.763   3.117  0.0162  0.1991 -0.4661
25869SOL    HW282928   4.040  11.864   3.123 -0.2929  0.5295 -0.1628
25870SOL     OW82929   0.314  11.696   1.909 -0.3274 -0.6013  0.4376
25870SOL    HW182930   0.302  11.617   1.857  1.3374 -0.4153 -0.2936
25870SOL    HW282931   0.368  11.668   1.983 -0.6110 -0.3528  0.7444
25871SOL     OW82932   9.045  10.259   0.374 -0.3481 -0.9336 -0.8894
25871SOL    HW182933   9.131  10.287   0.406 -0.8002 -1.0175  0.4623
25871SOL    HW282934   9.064  10.182   0.319  0.3494 -1.8172  0.5172
25872SOL     OW82935   6.190  11.072   3.059 -0.1778  0.7174 -0.3568
25872SOL    HW182936   6.161  11.121   3.136 -1.4159  0.3648 -0.5696
25872SOL    HW282937   6.243  11.134   3.009  0.0195  1.1744  0.4061
25873SOL     OW82938   8.072   6.027   8.553  0.2746 -0.3561 -0.0065
25873SOL    HW182939   8.140   5.989   8.608  0.3081 -0.7221 -0.3022
25873SOL    HW282940   8.024   6.085   8.612  0.7766 -0.1672  0.2290
25874SOL     OW82941   7.058   9.562   5.731 -0.2965  0.3185 -0.1787
25874SOL    HW182942   7.045   9.533   5.821 -0.8899  1.4288  0.1147
25874SOL    HW282943   6.982   9.529   5.683 -1.4644  2.0937  0.3525
25875SOL     OW82944   8.441   2.215   7.811  0.8910 -0.0482 -0.1162
25875SOL    HW182945   8.516   2.241   7.864  1.0607 -0.4786 -0.1407
25875SOL    HW282946   8.365   2.240   7.863  1.0373 -1.4823  0.8693
25876SOL     OW82947   4.635  11.084   4.267  0.3107 -0.0515  0.1190
25876SOL    HW182948   4.652  11.016   4.202 -0.1129 -0.5608  0.5276
25876SOL    HW282949   4.602  11.036   4.343  2.5222  0.3161  1.3928
25877SOL     OW82950   4.255   5.048   6.861  0.2352  0.3942  0.0824
25877SOL    HW182951   4.251   4.991   6.938  1.5460  0.9296  0.5775
25877SOL    HW282952   4.166   5.082   6.853 -0.6551 -1.8659 -0.3795
25878SOL     OW82953   5.370   0.776   4.678  0.1699 -1.1005 -0.3967
25878SOL    HW182954   5.453   0.736   4.654  0.6851  0.2851 -0.9904
25878SOL    HW282955   5.363   0.853   4.622 -1.6495 -1.3229 -0.5599
25879SOL     OW82956   6.846   0.795   8.996  0.2226 -0.5978  0.2971
25879SOL    HW182957   6.817   0.707   9.021  0.5423 -0.6938  0.3390
25879SOL    HW282958   6.911   0.818   9.063  1.8005 -1.2353 -0.9483
25880SOL     OW82959   6.537   7.872   4.501  0.5044  0.6347 -0.1204
25880SOL    HW182960   6.512   7.861   4.593 -1.0424  2.6372 -0.2413
25880SOL    HW282961   6.602   7.942   4.502  1.1283  0.0798 -0.5076
25881SOL     OW82962   1.398   4.124   2.902  0.4668 -0.7091 -0.0237
25881SOL    HW182963   1.471   4.111   2.842  0.7483  0.4820  0.0404
25881SOL    HW282964   1.416   4.065   2.976  1.4884 -0.2412  0.1040
25882SOL     OW82965  10.542   5.777   8.229 -0.6007  0.3577  0.3048
25882SOL    HW182966  10.447   5.778   8.244 -0.8932  1.8909 -1.3531
25882SOL    HW282967  10.551   5.768   8.134  0.9217  0.4721  0.4258
25883SOL     OW82968   8.990   5.595  11.383 -0.2346 -0.5056  0.0764
25883SOL    HW182969   8.907   5.597  11.336 -0.5289  1.2587  0.6150
25883SOL    HW282970   9.056   5.609  11.316 -0.5610  0.6243 -0.0251
25884SOL     OW82971   9.321   5.962   8.534  0.5706 -0.1429 -0.0133
25884SOL    HW182972   9.331   6.051   8.568  0.4193 -0.8091  1.9521
25884SOL    HW282973   9.291   5.973   8.444  1.1040  1.7766 -0.0062
25885SOL     OW82974   0.371   0.463   4.844 -0.4455 -0.0291 -0.0668
25885SOL    HW182975   0.315   0.390   4.819 -1.1361 -0.3721  2.1831
25885SOL    HW282976   0.460   0.430   4.839 -0.7616 -1.1458  1.1178
25886SOL     OW82977   6.834  11.777   8.313 -0.1598  0.0854  0.5945
25886SOL    HW182978   6.894  11.804   8.382  1.7439  1.3964 -1.4267
25886SOL    HW282979   6.751  11.818   8.337  0.8347  1.7667  1.3970
25887SOL     OW82980  11.645   1.899   5.825 -0.1866  0.1010 -0.1534
25887SOL    HW182981  11.626   1.833   5.892 -1.9589  0.2799 -0.4300
25887SOL    HW282982  11.673   1.976   5.875  1.3567 -0.6314  0.1933
25888SOL     OW82983   3.405   1.939   3.846 -0.5246 -0.1560  0.6091
25888SOL    HW182984   3.454   2.002   3.794  0.4077 -0.1923  1.4150
25888SOL    HW282985   3.386   1.867   3.786  1.8588 -0.9083  0.6335
25889SOL     OW82986   9.719   7.132   2.357 -0.2123  0.0510  0.1723
25889SOL    HW182987   9.699   7.097   2.444 -1.7788  1.8977  0.6111
25889SOL    HW282988   9.670   7.076   2.297  0.6474 -1.0554  0.4655
25890SOL     OW82989   1.965   7.788   4.750  0.0183  0.0309 -0.5110
25890SOL    HW182990   1.894   7.851   4.754  0.1006  0.0740  0.5711
25890SOL    HW282991   2.011   7.798   4.833 -0.8051 -2.4304  0.3413
25891SOL     OW82992   3.489   4.094  10.217 -0.6870 -0.1656  0.2366
25891SOL    HW182993   3.452   4.029  10.157 -0.4118  0.3766 -0.5325
25891SOL    HW282994   3.462   4.178  10.180  0.5803  0.2116  0.1319
25892SOL     OW82995   6.239   7.899   0.344  0.1206  0.5678  0.2071
25892SOL    HW182996   6.245   7.857   0.258 -0.1456  1.6263 -0.3468
25892SOL    HW282997   6.274   7.833   0.405  2.0678  0.4537 -0.9179
25893SOL     OW82998   7.351  10.816   7.154  0.7404 -0.3245 -0.5738
25893SOL    HW182999   7.299  10.846   7.080 -0.7539 -1.5524 -0.0636
25893SOL    HW283000   7.402  10.743   7.119  0.6693 -0.3655 -0.5913
25894SOL     OW83001  10.979   6.364   0.600  0.1379 -0.4367  0.4170
25894SOL    HW183002  10.911   6.343   0.536  1.5897 -0.7501 -1.0686
25894SOL    HW283003  10.971   6.297   0.667 -1.5155 -0.0089  0.6949
25895SOL     OW83004   5.247   2.284   7.532  0.0994  0.0757  0.2691
25895SOL    HW183005   5.237   2.228   7.608 -1.7980  2.7816  2.2294
25895SOL    HW283006   5.265   2.371   7.568 -1.6336  1.6496 -2.2685
25896SOL     OW83007   3.327   7.414   2.618  0.2832  0.3397 -0.2837
25896SOL    HW183008   3.388   7.457   2.559  2.1475 -0.6561  0.8319
25896SOL    HW283009   3.367   7.329   2.637 -1.4017 -0.3102  0.5867
25897SOL     OW83010   9.584  10.539   9.580 -0.2450  0.0830 -0.1553
25897SOL    HW183011   9.521  10.586   9.526  0.7174  2.2975  0.5510
25897SOL    HW283012   9.531  10.496   9.647 -1.0747  1.1572 -0.1005
25898SOL     OW83013   7.837   6.966   3.776  0.1418 -0.2859  0.2251
25898SOL    HW183014   7.916   6.921   3.807 -0.0133 -0.6160  0.1465
25898SOL    HW283015   7.869   7.030   3.713  0.3779 -0.1914  0.4380
25899SOL     OW83016   1.934   3.841   2.293  0.3427 -0.2034 -0.3244
25899SOL    HW183017   1.947   3.747   2.283  0.5467 -0.3562  1.2241
25899SOL    HW283018   1.939   3.875   2.203  3.1387 -1.2848 -0.6613
25900SOL     OW83019   5.823  10.227   9.158  0.1476  0.5350 -0.4485
25900SOL    HW183020   5.748  10.256   9.210  0.3713  0.7624 -0.2501
25900SOL    HW283021   5.830  10.133   9.176 -0.3954  0.4138 -0.8584
25901SOL     OW83022   3.167  10.041   0.598  0.2074 -0.1079  0.6073
25901SOL    HW183023   3.144   9.965   0.652  0.4098 -1.2448 -0.8459
25901SOL    HW283024   3.083  10.082   0.578 -0.1946 -1.4228 -0.6343
25902SOL     OW83025   1.806   0.868  10.580 -0.1174  0.5060  0.0283
25902SOL    HW183026   1.801   0.862  10.484  0.7573  0.4336 -0.0214
25902SOL    HW283027   1.802   0.962  10.598 -1.9563  0.4659  0.0484
25903SOL     OW83028   2.484   0.188   2.902 -0.7775  0.2049  0.4010
25903SOL    HW183029   2.409   0.148   2.946 -1.2459 -0.2583 -0.7571
25903SOL    HW283030   2.451   0.211   2.815 -0.2233  2.1983  0.6716
25904SOL     OW83031   2.910   7.806  10.656 -0.1064 -0.3407 -0.4216
25904SOL    HW183032   2.915   7.862  10.734 -2.4533 -1.2795  0.4934
25904SOL    HW283033   2.996   7.765  10.650  0.0221 -0.5550  1.9526
25905SOL     OW83034   1.554   6.670   3.188  0.2340  0.1043 -0.0394
25905SOL    HW183035   1.613   6.667   3.113  0.2901 -1.4199  0.0316
25905SOL    HW283036   1.612   6.671   3.264  0.2450 -2.6347  0.0676
25906SOL     OW83037   2.838   2.249   5.967  0.5790 -0.0748  0.1252
25906SOL    HW183038   2.808   2.241   5.876 -1.8169 -1.4964  0.9385
25906SOL    HW283039   2.927   2.215   5.966  0.1574 -1.2678 -1.4921
25907SOL     OW83040   8.089   7.388   9.793  0.3919 -0.0013 -0.2931
25907SOL    HW183041   8.163   7.328   9.808 -0.3468 -1.4358 -1.9719
25907SOL    HW283042   8.131   7.471   9.769  1.4581  0.5326  2.9708
25908SOL     OW83043   0.803   0.260   9.663 -0.0660  0.6483  0.7507
25908SOL    HW183044   0.817   0.340   9.714 -0.7821  1.3626 -0.1486
25908SOL    HW283045   0.714   0.268   9.630  0.6963  0.6469 -1.4120
25909SOL     OW83046   4.870   0.522   4.812  0.5759 -0.1717 -0.4158
25909SOL    HW183047   4.828   0.603   4.843 -0.3965  0.2695 -2.6789
25909SOL    HW283048   4.937   0.504   4.877 -1.4277  0.5265  2.0089
25910SOL     OW83049   5.559   0.808   1.810  0.2222 -0.2528 -0.0254
25910SOL    HW183050   5.612   0.736   1.841  1.3617  0.6044  0.0965
25910SOL    HW283051   5.504   0.770   1.741  0.9640 -1.1686 -0.1258
25911SOL     OW83052  10.351  11.166  11.801 -0.0017 -0.3339  0.6692
25911SOL    HW183053  10.329  11.120  11.882 -0.1179 -1.9374 -0.2196
25911SOL    HW283054  10.400  11.102  11.750  0.7276  0.8968 -0.2274
25912SOL     OW83055   6.696   8.679   8.575  0.1575 -0.1394  0.4609
25912SOL    HW183056   6.770   8.668   8.634 -1.0773 -1.5290  1.8752
25912SOL    HW283057   6.622   8.696   8.633 -0.4247  2.9774 -0.9826
25913SOL     OW83058   1.333   9.967   3.706  0.4217 -0.1439 -0.7776
25913SOL    HW183059   1.415  10.012   3.727 -0.2856  0.0893  1.7469
25913SOL    HW283060   1.275   9.986   3.779 -2.0174 -0.1175 -2.5807
25914SOL     OW83061   2.900   8.463   8.998 -0.1142 -0.0207  0.1258
25914SOL    HW183062   2.961   8.425   9.061  0.0389  2.2902  1.4647
25914SOL    HW283063   2.954   8.516   8.940 -0.6379  0.6403  0.2260
25915SOL     OW83064   1.845   5.490   9.733 -0.1565  0.0707 -0.3158
25915SOL    HW183065   1.792   5.434   9.677 -0.2933 -0.1685  0.0509
25915SOL    HW283066   1.812   5.579   9.718 -0.7013 -0.0861 -0.0409
25916SOL     OW83067   6.598   0.198   7.212  0.4292  0.5605  0.2484
25916SOL    HW183068   6.533   0.244   7.159 -0.2253  0.2552  0.7609
25916SOL    HW283069   6.644   0.268   7.259  0.7466  0.8030 -0.4126
25917SOL     OW83070   5.288   5.032   6.387 -0.0734 -0.4548  0.6338
25917SOL    HW183071   5.225   4.960   6.393 -0.3137 -0.2710  0.3534
25917SOL    HW283072   5.331   5.020   6.302 -0.1616 -0.2338  0.5554
25918SOL     OW83073   2.763   7.133   5.817  0.1423  0.2495 -0.2903
25918SOL    HW183074   2.790   7.050   5.857  1.8274  1.4456  1.1987
25918SOL    HW283075   2.837   7.158   5.761  0.1083  1.2514  0.0973
25919SOL     OW83076   8.117   8.937   7.591  0.2929 -0.4696 -0.7620
25919SOL    HW183077   8.139   8.846   7.575  1.3165 -0.3455 -0.1585
25919SOL    HW283078   8.164   8.960   7.671  0.3196  0.6694 -1.0744
25920SOL     OW83079   8.821   9.390  10.473  0.0474  0.0715  0.9904
25920SOL    HW183080   8.861   9.433  10.548  1.5540  2.3454 -0.9657
25920SOL    HW283081   8.796   9.461  10.414 -1.6991 -1.5791 -0.4198
25921SOL     OW83082   0.085   2.826   3.204 -0.1120 -0.1813 -0.4213
25921SOL    HW183083   0.111   2.793   3.290 -0.5474  0.1467 -0.1567
25921SOL    HW283084   0.146   2.898   3.186 -1.8971  1.8394  1.0392
25922SOL     OW83085   3.195   0.654  10.108  0.2073  0.8144  0.0585
25922SOL    HW183086   3.228   0.618  10.025  0.5958  0.4624  0.3613
25922SOL    HW283087   3.209   0.584  10.171 -0.5443  0.8960  0.3281
25923SOL     OW83088   0.981   4.678   5.194 -0.5645  0.2218  0.3178
25923SOL    HW183089   0.975   4.765   5.152 -1.0971 -0.0302 -0.1515
25923SOL    HW283090   0.968   4.696   5.287 -0.3244  0.6858  0.2681
25924SOL     OW83091   0.516   9.773  11.661  0.8311  0.3099  0.0686
25924SOL    HW183092   0.519   9.862  11.696 -0.3171  0.4873 -0.2554
25924SOL    HW283093   0.453   9.728  11.716  0.9791 -0.1486 -0.1305
25925SOL     OW83094   1.591   2.026   5.000  0.2039  0.6051  0.0477
25925SOL    HW183095   1.654   2.059   5.064  1.0948  2.6074 -1.7129
25925SOL    HW283096   1.630   1.944   4.968  1.1693  1.0421  0.0690
25926SOL     OW83097   6.418   6.053   3.813 -0.2708 -0.4541  0.2567
25926SOL    HW183098   6.504   6.075   3.777  0.0513  0.0989  1.3176
25926SOL    HW283099   6.362   6.126   3.787 -0.7513 -1.4098 -1.4990
25927SOL     OW83100   2.805   5.719  11.152  0.0822  0.3903 -0.6739
25927SOL    HW183101   2.866   5.646  11.156  0.2756  0.4549 -2.0178
25927SOL    HW283102   2.755   5.704  11.072  0.8501  2.2757 -1.5699
25928SOL     OW83103   9.755   8.029   1.041  0.2182  0.0664 -0.2925
25928SOL    HW183104   9.793   8.113   1.065 -1.6360  1.3043 -1.4858
25928SOL    HW283105   9.695   8.008   1.114 -0.7642  0.7659 -0.8772
25929SOL     OW83106   7.188   2.260   9.890 -0.4481  0.6664 -0.2306
25929SOL    HW183107   7.204   2.275   9.797  0.3179 -0.7891 -0.3694
25929SOL    HW283108   7.276   2.254   9.929 -0.5972 -2.4701 -0.1084
25930SOL     OW83109   9.808  11.448   7.395 -0.3229  0.3034 -0.6701
25930SOL    HW183110   9.887  11.421   7.350 -1.4077  0.4389 -2.7968
25930SOL    HW283111   9.796  11.384   7.465  0.8635 -0.5722 -1.2432
25931SOL     OW83112   5.459   8.814   5.388  0.1035  0.6127  0.4095
25931SOL    HW183113   5.380   8.783   5.343 -0.6195 -0.2941  2.1835
25931SOL    HW283114   5.512   8.854   5.320 -1.5948  0.6405 -0.9518
25932SOL     OW83115   2.094   9.807   4.753 -0.6617  0.0980 -0.7870
25932SOL    HW183116   2.068   9.848   4.836  0.3402 -1.4330  0.3365
25932SOL    HW283117   2.011   9.781   4.712 -1.2865  2.5183 -1.2157
25933SOL     OW83118  10.789   7.878   3.376 -0.1763  0.0503 -1.0094
25933SOL    HW183119  10.765   7.818   3.305 -0.2446  0.3739 -1.2650
25933SOL    HW283120  10.731   7.953   3.364 -2.1725 -1.0523  1.0727
25934SOL     OW83121   0.379   4.695   4.591  0.4621  0.0029 -0.5020
25934SOL    HW183122   0.388   4.689   4.686 -0.6280 -0.4317 -0.4064
25934SOL    HW283123   0.312   4.762   4.578  1.4429  0.9170 -1.0226
25935SOL     OW83124   0.938   4.192   2.028 -0.1898  0.2091  0.4221
25935SOL    HW183125   0.890   4.275   2.033 -0.3550  0.0982  0.7166
25935SOL    HW283126   1.026   4.214   2.059 -0.4446  0.1154  1.2167
25936SOL     OW83127   7.328   1.222   3.425 -0.1533  0.0783  0.0942
25936SOL    HW183128   7.354   1.295   3.369  2.5235 -0.1631  0.8799
25936SOL    HW283129   7.239   1.201   3.397 -0.5185  2.7526 -1.0556
25937SOL     OW83130   5.302   6.792   8.270  0.2449 -0.0307 -0.2489
25937SOL    HW183131   5.369   6.787   8.338  0.3520 -0.3687 -0.3764
25937SOL    HW283132   5.225   6.828   8.315  0.4036  0.0234 -0.0183
25938SOL     OW83133   1.207   1.311  10.540 -0.2964 -0.0417 -0.1081
25938SOL    HW183134   1.214   1.302  10.635 -0.0993  1.9810  0.1288
25938SOL    HW283135   1.298   1.303  10.509 -0.3022 -0.2563 -0.0674
25939SOL     OW83136   7.681  10.232   0.213  0.3714  0.2910 -0.2871
25939SOL    HW183137   7.629  10.176   0.271  0.0250 -0.4344 -1.2660
25939SOL    HW283138   7.744  10.172   0.172 -0.8204  0.3094 -2.3037
25940SOL     OW83139   3.678   4.913   9.087  0.4424 -0.4949  0.1748
25940SOL    HW183140   3.685   4.907   8.992 -0.5241 -3.4622  0.1755
25940SOL    HW283141   3.587   4.891   9.106  0.4593  0.6050  1.7979
25941SOL     OW83142  10.027   9.650   9.000  0.8373  0.0812  0.0715
25941SOL    HW183143   9.963   9.595   9.045 -1.0728  1.3368 -0.9914
25941SOL    HW283144  10.112   9.614   9.026 -0.2844 -2.3075  0.7026
25942SOL     OW83145   9.323   3.364   5.545  0.0055  0.9125 -0.3144
25942SOL    HW183146   9.330   3.434   5.480  1.0485  1.6465  0.5631
25942SOL    HW283147   9.402   3.312   5.533 -0.8009 -0.2191 -1.0260
25943SOL     OW83148   5.012   8.607  11.100 -0.3713 -0.0317  0.1951
25943SOL    HW183149   5.042   8.634  11.186  0.6616 -3.3800  1.0308
25943SOL    HW283150   4.923   8.574  11.114 -0.1479 -0.7254  0.0670
25944SOL     OW83151  11.191  11.319   2.474  0.0923  0.7224 -0.3485
25944SOL    HW183152  11.278  11.280   2.464 -0.5460 -0.8511 -0.1016
25944SOL    HW283153  11.205  11.413   2.466  1.5133  0.4001 -2.6189
25945SOL     OW83154   6.471   9.588   5.806  0.5365  0.4385 -0.1713
25945SOL    HW183155   6.552   9.541   5.788 -0.3525 -1.4837  0.5494
25945SOL    HW283156   6.471   9.600   5.901 -0.1690  0.1335 -0.1273
25946SOL     OW83157   0.984   6.697   8.203  0.0173 -0.0861  0.0017
25946SOL    HW183158   1.010   6.632   8.268 -1.7924 -0.3415  0.5426
25946SOL    HW283159   1.040   6.680   8.127  0.6072 -1.2736  0.6812
25947SOL     OW83160  10.321   5.681   4.323 -0.4518 -0.3227  0.1391
25947SOL    HW183161  10.285   5.762   4.359  0.3828 -0.0352  0.3402
25947SOL    HW283162  10.279   5.672   4.237  2.3320  2.5012 -1.7561
25948SOL     OW83163   1.786   4.910   5.935  0.0103  0.4126 -0.0197
25948SOL    HW183164   1.790   4.845   6.005 -1.6211  0.7293  0.3989
25948SOL    HW283165   1.819   4.863   5.858 -1.4205 -1.0499  0.2005
25949SOL     OW83166   2.949   6.932   8.908  0.4422 -0.6231  0.4763
25949SOL    HW183167   2.922   6.926   9.000 -0.8119  1.2119  0.2649
25949SOL    HW283168   2.874   6.897   8.859 -0.0416  0.9318  0.0586
25950SOL     OW83169   1.577   7.458  10.346  0.6497 -0.4283  0.1936
25950SOL    HW183170   1.499   7.412  10.377 -0.1324  0.6685 -0.0787
25950SOL    HW283171   1.609   7.506  10.422 -0.5802  1.3200 -0.3378
25951SOL     OW83172   3.445   3.821   3.128 -1.2010  0.2407 -0.2291
25951SOL    HW183173   3.516   3.857   3.180 -0.8601 -1.5867  0.6242
25951SOL    HW283174   3.487   3.769   3.060 -1.6811 -0.9268  0.3318
25952SOL     OW83175   7.442   1.246  10.913 -0.6442 -0.8752  0.2777
25952SOL    HW183176   7.372   1.252  10.847  0.7852  1.5845 -1.1754
25952SOL    HW283177   7.401   1.276  10.994 -2.0608 -2.5938  0.2624
25953SOL     OW83178   2.990   8.642   2.781  0.4352  0.7439  0.0040
25953SOL    HW183179   2.898   8.624   2.803  0.5497 -1.8150 -1.1888
25953SOL    HW283180   3.036   8.642   2.865 -0.5837  1.6997  0.5812
25954SOL     OW83181  10.448   0.466   1.757 -0.3317  0.1233 -0.1739
25954SOL    HW183182  10.449   0.372   1.778  0.3664 -0.2198 -1.5715
25954SOL    HW283183  10.535   0.482   1.720 -0.7861  1.1086 -0.8256
25955SOL     OW83184   0.887   4.988   3.688  0.2968 -0.3522 -0.1641
25955SOL    HW183185   0.858   4.944   3.768  0.1064 -1.5331 -0.8620
25955SOL    HW283186   0.912   4.917   3.629  0.8391  0.5162 -1.0038
25956SOL     OW83187   9.426   9.929   6.268 -0.0634  0.7941 -0.0225
25956SOL    HW183188   9.336   9.961   6.273 -0.5032 -0.1921 -1.1233
25956SOL    HW283189   9.435   9.896   6.178  1.1820  0.2448  0.2743
25957SOL     OW83190   6.092   3.235   1.696  0.0475  0.3171 -0.1518
25957SOL    HW183191   6.042   3.268   1.621  0.5894  0.2946 -0.5286
25957SOL    HW283192   6.162   3.183   1.656  1.2654  1.5619  0.3031
25958SOL     OW83193  10.751   0.159   4.164  0.6934 -0.5002  0.5939
25958SOL    HW183194  10.807   0.166   4.241  0.1454  0.2869  0.9339
25958SOL    HW283195  10.796   0.209   4.096  1.2456 -1.3079  0.3442
25959SOL     OW83196   2.780   6.519   8.632 -0.5679  0.3597 -0.9637
25959SOL    HW183197   2.693   6.499   8.668 -0.4803 -0.1637 -1.0359
25959SOL    HW283198   2.783   6.615   8.629 -1.0590  0.3856 -0.7563
25960SOL     OW83199   8.812   6.696   1.868 -0.2023  0.4794  0.5101
25960SOL    HW183200   8.816   6.600   1.868 -1.7356  0.3936  0.4390
25960SOL    HW283201   8.862   6.722   1.945  1.2457 -0.3104 -0.1242
25961SOL     OW83202   7.233   4.726  11.278  0.2630  0.2833  0.4619
25961SOL    HW183203   7.278   4.791  11.333  2.0269 -0.1671 -0.3961
25961SOL    HW283204   7.197   4.777  11.206 -1.2382  0.7407  1.4917
25962SOL     OW83205   8.117   9.136   3.970 -0.4921 -0.0849  0.4914
25962SOL    HW183206   8.093   9.198   3.902  2.3311 -0.0756 -0.6237
25962SOL    HW283207   8.159   9.063   3.923  0.4488 -0.6394  2.1085
25963SOL     OW83208  10.109   4.962  10.583  0.5604 -0.3838  0.3591
25963SOL    HW183209  10.124   5.032  10.520 -0.0700 -0.3257  0.2630
25963SOL    HW283210  10.063   5.004  10.656 -0.4187 -0.8036  0.0124
25964SOL     OW83211   9.627   7.142   3.032 -0.2583  0.4735  0.3786
25964SOL    HW183212   9.591   7.228   3.055 -0.1033  0.8973 -0.9275
25964SOL    HW283213   9.694   7.160   2.967 -0.0082 -0.6203  0.3142
25965SOL     OW83214   0.290   3.471   8.895  0.6477 -0.1760 -0.1073
25965SOL    HW183215   0.318   3.529   8.966 -0.9830 -1.5352  1.8002
25965SOL    HW283216   0.244   3.528   8.834  0.2311  0.7701  1.0401
25966SOL     OW83217   6.511   6.032   5.965 -0.0091  0.1569 -0.3756
25966SOL    HW183218   6.575   6.019   6.035 -1.2194  1.3523  1.0053
25966SOL    HW283219   6.471   6.116   5.984 -0.9775  0.1264 -2.0506
25967SOL     OW83220   6.846   9.288  10.294 -0.0310  0.2097  0.2635
25967SOL    HW183221   6.782   9.336  10.242 -1.8199 -0.8125  1.4158
25967SOL    HW283222   6.918   9.271  10.233 -0.1848  2.6129 -0.6822
25968SOL     OW83223  11.104   3.766   0.361 -0.1178 -0.5296  0.4581
25968SOL    HW183224  11.168   3.838   0.362 -0.6228 -0.0715  0.2133
25968SOL    HW283225  11.156   3.689   0.340  0.5763 -0.3843  1.5234
25969SOL     OW83226   3.148  11.426  10.357  0.2401  0.0716 -0.4345
25969SOL    HW183227   3.126  11.519  10.354  0.9992  0.2410 -0.9131
25969SOL    HW283228   3.091  11.386  10.291  1.0992  0.4592 -1.4279
25970SOL     OW83229   6.472   9.373   6.656 -0.3544  0.0531  0.0856
25970SOL    HW183230   6.562   9.349   6.631 -0.4081  1.3084 -1.5723
25970SOL    HW283231   6.419   9.298   6.631  0.1783 -0.5109  0.6326
25971SOL     OW83232  10.794   9.801  11.320 -0.4525 -0.0003 -0.3439
25971SOL    HW183233  10.763   9.797  11.410  1.9068 -0.2812  0.5298
25971SOL    HW283234  10.815   9.893  11.305  0.1574 -0.1163 -0.2269
25972SOL     OW83235   7.438   1.090   1.851 -0.6510  0.2434 -0.1419
25972SOL    HW183236   7.521   1.076   1.897 -0.7468 -1.7453 -0.5039
25972SOL    HW283237   7.431   1.185   1.844 -0.1319  0.6313  3.0260
25973SOL     OW83238   8.143   9.828   2.248 -0.8439 -0.4399 -0.1732
25973SOL    HW183239   8.124   9.865   2.162  1.7758 -0.2938 -0.7795
25973SOL    HW283240   8.141   9.733   2.234  1.5669 -0.4435 -1.0009
25974SOL     OW83241   4.222   3.128  10.883  0.5601 -0.0149  0.1772
25974SOL    HW183242   4.172   3.049  10.861  1.6361 -0.8754  0.7257
25974SOL    HW283243   4.314   3.100  10.882  1.0150  1.3996 -0.2785
25975SOL     OW83244   0.097   9.344   6.148 -0.7246 -0.1086  0.0286
25975SOL    HW183245   0.111   9.251   6.132  1.9985  0.4504 -1.4922
25975SOL    HW283246   0.108   9.354   6.243  1.7473 -1.0450 -0.0696
25976SOL     OW83247   1.672   7.652   8.903 -0.4388  0.2410  0.3283
25976SOL    HW183248   1.673   7.698   8.987 -0.5390  1.1417 -0.1453
25976SOL    HW283249   1.579   7.638   8.885 -0.7414  3.5071 -1.4066
25977SOL     OW83250   0.032   0.385   7.919 -0.2918 -0.6528 -0.0908
25977SOL    HW183251   0.017   0.444   7.844 -0.1997 -0.9978 -0.3854
25977SOL    HW283252  -0.055   0.371   7.956 -0.5796 -1.7167 -1.0844
25978SOL     OW83253   8.577   1.753   9.905  0.0013  0.8995 -0.1050
25978SOL    HW183254   8.593   1.660   9.888 -1.5924  0.2919  1.4513
25978SOL    HW283255   8.653   1.781   9.956 -0.7201 -0.2794  1.7105
25979SOL     OW83256   0.279   9.583   2.055  0.2575  0.1967  0.3614
25979SOL    HW183257   0.189   9.572   2.023 -0.2658  1.6602  1.1964
25979SOL    HW283258   0.317   9.496   2.050 -1.6072 -0.7230  1.1233
25980SOL     OW83259   2.274   7.407   4.899 -0.1175 -0.4649 -0.4014
25980SOL    HW183260   2.300   7.430   4.810 -1.1998 -1.8146 -1.0990
25980SOL    HW283261   2.226   7.484   4.930  2.5330  1.1173  0.0774
25981SOL     OW83262   4.828   2.224   4.131  0.4942  0.2580  0.3004
25981SOL    HW183263   4.890   2.184   4.071 -1.5325 -0.1915 -1.5986
25981SOL    HW283264   4.779   2.150   4.168  0.4815  0.6548  1.0986
25982SOL     OW83265   5.802   1.520   4.419 -0.3735 -0.2410  0.4302
25982SOL    HW183266   5.739   1.492   4.352  0.0245  0.6571 -0.3329
25982SOL    HW283267   5.747   1.552   4.491 -0.8384  1.7146 -0.7230
25983SOL     OW83268   1.205   0.596   5.284  0.4719  0.3554  0.0849
25983SOL    HW183269   1.133   0.657   5.300  1.1409  1.0734  0.4250
25983SOL    HW283270   1.242   0.579   5.371 -0.9867 -2.2075  0.3107
25984SOL     OW83271   2.228   3.908   3.801  0.5311 -0.0044  0.3179
25984SOL    HW183272   2.265   3.838   3.747 -1.3476 -0.2940 -0.6749
25984SOL    HW283273   2.137   3.881   3.816  0.3943  1.1410  1.8342
25985SOL     OW83274   6.490   4.520   6.386 -0.7207 -0.2775  0.3500
25985SOL    HW183275   6.438   4.441   6.396  0.1807 -0.8741  0.4603
25985SOL    HW283276   6.502   4.553   6.475  0.8461 -1.3220  0.5590
25986SOL     OW83277   4.410   5.712  10.300 -0.0821  0.3800 -0.6381
25986SOL    HW183278   4.352   5.750  10.366  0.1139  0.1963 -0.3564
25986SOL    HW283279   4.467   5.784  10.275 -0.3728  0.5388 -0.8535
25987SOL     OW83280   0.034   4.064   7.644  0.0789  0.0375 -0.1694
25987SOL    HW183281  -0.011   3.980   7.634  0.5408 -0.1169 -1.0325
25987SOL    HW283282   0.103   4.047   7.708  1.0632 -0.6243 -1.3660
25988SOL     OW83283  10.122   3.587   7.893 -0.3876  0.6636 -0.6927
25988SOL    HW183284  10.054   3.648   7.864 -0.2494  0.8928 -0.5382
25988SOL    HW283285  10.136   3.529   7.818 -1.4765 -0.0374 -0.3745
25989SOL     OW83286  10.043  11.406  10.792  0.3877 -0.4919  0.0381
25989SOL    HW183287  10.031  11.343  10.721 -1.0918 -1.1263  0.8048
25989SOL    HW283288   9.956  11.442  10.808  1.0333  1.0461  0.2866
25990SOL     OW83289   0.014   1.219   1.723 -0.2669  0.3695 -0.1170
25990SOL    HW183290   0.038   1.301   1.680  0.1043  0.5518  0.4347
25990SOL    HW283291  -0.010   1.244   1.812  0.9186 -0.2421  0.3919
25991SOL     OW83292   0.083   4.380   4.571  0.4199 -0.2560  0.1112
25991SOL    HW183293   0.158   4.427   4.534  0.3196  0.0314  0.2747
25991SOL    HW283294   0.032   4.353   4.494  2.3422 -3.3009 -0.2488
25992SOL     OW83295   1.436   8.216  10.204 -0.3901  0.8400  0.5545
25992SOL    HW183296   1.368   8.258  10.151  0.8492  3.2009  0.7217
25992SOL    HW283297   1.474   8.287  10.255  1.2683 -0.6690  1.5274
25993SOL     OW83298  11.045  10.020   3.587  0.4485 -0.1461 -0.4341
25993SOL    HW183299  11.056  10.054   3.498 -0.2464 -0.7126 -0.7522
25993SOL    HW283300  10.971   9.960   3.580 -1.1922  1.6145  1.0462
25994SOL     OW83301   9.936   2.441   8.865  0.1542  0.2920  0.1969
25994SOL    HW183302  10.015   2.442   8.920  0.9524 -1.5718 -0.8285
25994SOL    HW283303   9.864   2.455   8.926  1.1989  1.1634  1.2938
25995SOL     OW83304   7.130   1.536   9.530 -0.1519  0.8009  0.4209
25995SOL    HW183305   7.082   1.526   9.613  0.3005  0.2066  0.6211
25995SOL    HW283306   7.169   1.623   9.535 -0.1283  0.7693  0.8416
25996SOL     OW83307   7.483   7.723   2.011  0.3147  0.4651 -0.2337
25996SOL    HW183308   7.532   7.677   2.079  1.6540  1.6415 -0.3704
25996SOL    HW283309   7.477   7.660   1.939 -0.0671 -0.3590  0.4928
25997SOL     OW83310   8.810   1.720   9.194  0.4575  0.2379 -0.0239
25997SOL    HW183311   8.820   1.639   9.143  2.6714  0.2946  0.2272
25997SOL    HW283312   8.871   1.710   9.267 -1.1890  1.0325  1.5487
25998SOL     OW83313   3.929   3.924   3.706  0.1096  0.8330  0.4343
25998SOL    HW183314   3.911   3.831   3.722  1.6474  0.6812  1.5098
25998SOL    HW283315   3.843   3.962   3.692 -0.6330 -0.6205  0.7626
25999SOL     OW83316   5.304   1.853   2.190 -0.0517 -0.0616 -0.4399
25999SOL    HW183317   5.336   1.764   2.173 -2.2545 -0.7055 -1.6210
25999SOL    HW283318   5.211   1.842   2.208 -0.0812  1.8950  0.8248
26000SOL     OW83319   2.877   8.509   6.390 -0.0901 -0.5326  0.1046
26000SOL    HW183320   2.940   8.443   6.419  1.6524  1.2221  0.4872
26000SOL    HW283321   2.828   8.532   6.469 -1.0475 -1.6315 -0.1230
26001SOL     OW83322   9.209  11.311   1.320 -0.3928 -0.1080 -0.2120
26001SOL    HW183323   9.148  11.281   1.387  0.8513  2.2036  2.1475
26001SOL    HW283324   9.189  11.404   1.310  2.5082  0.7053  0.5460
26002SOL     OW83325   4.386   8.918   9.493  0.0651 -0.0607  0.3890
26002SOL    HW183326   4.351   8.842   9.447 -0.2813  0.1326  0.3275
26002SOL    HW283327   4.317   8.942   9.555 -1.8012  2.8433 -2.5164
26003SOL     OW83328   9.597   1.723   9.677 -0.0305 -0.5237  0.0795
26003SOL    HW183329   9.627   1.790   9.615 -2.7689 -0.3928 -1.2398
26003SOL    HW283330   9.672   1.709   9.735  1.3431  2.1698 -0.8698
26004SOL     OW83331   5.513  10.112   4.710  0.0386 -0.0118 -0.2768
26004SOL    HW183332   5.474  10.065   4.636 -1.0804 -0.2008  0.4089
26004SOL    HW283333   5.541  10.043   4.770  0.0497  0.1625 -0.0799
26005SOL     OW83334   0.592   3.758   1.872  0.1433  0.4110 -0.0574
26005SOL    HW183335   0.637   3.705   1.938 -0.3607  0.8594  0.6548
26005SOL    HW283336   0.662   3.812   1.834  0.3165  0.6503  0.5965
26006SOL     OW83337   6.786   8.521  10.305 -0.3348  0.2765  0.6102
26006SOL    HW183338   6.725   8.448  10.300  0.1896 -0.0678 -1.3200
26006SOL    HW283339   6.731   8.599  10.310 -0.9951  0.0041 -1.5175
26007SOL     OW83340   0.107   8.820   0.358 -0.2772 -0.5288 -0.2842
26007SOL    HW183341   0.182   8.797   0.413 -0.6455 -1.3220 -0.0880
26007SOL    HW283342   0.127   8.907   0.324  0.2235 -0.2694  0.6415
26008SOL     OW83343   4.123   8.384  11.330 -0.2053 -0.0776  0.4829
26008SOL    HW183344   4.216   8.375  11.307  0.1614 -0.1057  1.8752
26008SOL    HW283345   4.098   8.298  11.364 -1.1656 -0.5118 -1.2263
26009SOL     OW83346   2.845   1.580   5.094 -0.4652 -0.0630 -0.4220
26009SOL    HW183347   2.771   1.540   5.050 -1.0670  0.2889  0.2406
26009SOL    HW283348   2.916   1.516   5.085 -1.2300 -1.0208  0.0994
26010SOL     OW83349   3.423   8.340  10.931  0.3940  1.0569  0.0150
26010SOL    HW183350   3.419   8.295  10.846 -2.0468  0.4675  0.3748
26010SOL    HW283351   3.398   8.430  10.912  0.5319  1.0976  0.0203
26011SOL     OW83352   8.528   9.727   9.923  0.4075  0.5072 -0.0061
26011SOL    HW183353   8.564   9.716   9.835 -0.3269  2.6189 -0.6228
26011SOL    HW283354   8.597   9.695   9.981  1.1257 -0.4094 -1.3160
26012SOL     OW83355   6.376  11.528  10.398 -0.2517  0.0653 -0.0338
26012SOL    HW183356   6.405  11.472  10.470 -0.2081 -0.2266 -0.2795
26012SOL    HW283357   6.317  11.473  10.347 -0.1217  0.2119 -0.3391
26013SOL     OW83358   1.832   0.320   8.991 -0.3029 -0.0714  0.0973
26013SOL    HW183359   1.885   0.391   9.026  1.6856  0.0270 -2.7919
26013SOL    HW283360   1.753   0.363   8.957  0.7738  0.7708 -1.4076
26014SOL     OW83361   5.825   5.857  11.793 -0.4056  0.1156  0.1215
26014SOL    HW183362   5.790   5.806  11.866 -0.0911  0.5858  0.6118
26014SOL    HW283363   5.919   5.841  11.795 -0.2365  1.0689  0.5813
26015SOL     OW83364  10.270   7.614   5.137 -0.2054  0.0896 -0.0817
26015SOL    HW183365  10.176   7.596   5.133 -0.7588  1.5895  3.0576
26015SOL    HW283366  10.300   7.568   5.215  1.9961 -1.2873 -1.6254
26016SOL     OW83367   4.492  10.242  10.765  0.7225 -0.4263 -0.0865
26016SOL    HW183368   4.423  10.176  10.771  0.3525 -0.1835 -1.4101
26016SOL    HW283369   4.547  10.226  10.842 -0.0158 -1.5212  0.2360
26017SOL     OW83370   1.092   6.884   3.217 -0.7168 -0.2389 -0.6698
26017SOL    HW183371   1.188   6.880   3.225 -0.8014  0.5878  1.1943
26017SOL    HW283372   1.077   6.903   3.125  0.8383 -2.1131 -1.3845
26018SOL     OW83373   2.948  11.044   6.234 -0.1837 -0.1914 -0.2033
26018SOL    HW183374   2.923  10.965   6.282 -3.3552  0.9312  0.2079
26018SOL    HW283375   2.961  11.110   6.302  2.2190 -0.2119 -0.5601
26019SOL     OW83376   2.046  11.350   5.753 -0.2711 -0.4522 -0.3785
26019SOL    HW183377   2.091  11.341   5.668  0.3864 -2.1078  0.1196
26019SOL    HW283378   1.973  11.288   5.748 -1.3139  0.7439 -0.3911
26020SOL     OW83379   5.604   8.203   4.690 -0.3474 -0.1178  0.0019
26020SOL    HW183380   5.587   8.286   4.645 -3.6386 -0.3768  0.5627
26020SOL    HW283381   5.633   8.144   4.620 -2.1158  0.3929 -1.2128
26021SOL     OW83382   1.680  11.692   3.959 -0.2318 -0.4724  0.3601
26021SOL    HW183383   1.599  11.685   4.009  1.0486 -0.7181  2.5388
26021SOL    HW283384   1.719  11.605   3.962  0.6745 -0.0870  0.3644
26022SOL     OW83385   0.561   3.149   2.355  0.2392  0.0778 -0.4952
26022SOL    HW183386   0.520   3.070   2.390 -0.5522 -0.0120 -1.5973
26022SOL    HW283387   0.576   3.204   2.432 -0.0985 -0.7378  0.1646
26023SOL     OW83388   9.851   9.733   2.897 -0.0677 -0.2898  0.1055
26023SOL    HW183389   9.868   9.690   2.981 -1.4798  0.7301  0.9543
26023SOL    HW283390   9.854   9.662   2.833  0.3220 -1.2106  1.1157
26024SOL     OW83391   2.573   0.273   6.428  0.1600  0.2571  0.6057
26024SOL    HW183392   2.636   0.227   6.373 -0.3237 -0.8664  0.9700
26024SOL    HW283393   2.507   0.306   6.366  1.1559  1.6004  0.1999
26025SOL     OW83394   4.195   6.586   5.811  1.0204  0.3697 -0.0755
26025SOL    HW183395   4.135   6.657   5.790  1.4354  1.1205  1.1626
26025SOL    HW283396   4.281   6.616   5.780  1.1263  0.2306  0.0789
26026SOL     OW83397   8.368   1.769   1.730  0.0964 -0.5930 -0.2158
26026SOL    HW183398   8.315   1.706   1.680 -1.9232  1.1356 -0.3713
26026SOL    HW283399   8.406   1.826   1.663 -1.4228  0.8222  0.0707
26027SOL     OW83400   0.996   2.343   8.452  0.3924  0.3437 -0.4079
26027SOL    HW183401   0.910   2.371   8.484 -0.4292 -2.6303  0.3784
26027SOL    HW283402   0.988   2.345   8.357 -0.5320  0.1876 -0.3471
26028SOL     OW83403   0.312  11.320   2.480  0.0679 -0.0260 -0.4133
26028SOL    HW183404   0.247  11.338   2.548  1.5188 -0.7221  1.2309
26028SOL    HW283405   0.365  11.249   2.516  2.1370  0.9257 -1.4266
26029SOL     OW83406   2.837   4.299   0.171  0.4897 -0.5202  0.0953
26029SOL    HW183407   2.809   4.324   0.083 -3.4268 -0.2723  1.2292
26029SOL    HW283408   2.925   4.335   0.179  0.5992  0.3317 -3.3311
26030SOL     OW83409   5.021   7.774  10.154  0.5838  0.0412 -0.0714
26030SOL    HW183410   5.096   7.741  10.203  0.3144  0.4134  0.6059
26030SOL    HW283411   4.960   7.700  10.150  1.4732 -0.6721 -1.7105
26031SOL     OW83412   8.877   7.551   6.410 -0.5848  0.0162 -0.0090
26031SOL    HW183413   8.795   7.597   6.391 -0.2946  1.1419  1.3134
26031SOL    HW283414   8.918   7.604   6.478  1.5771 -0.1240 -1.1174
26032SOL     OW83415  10.661   1.271   7.911 -0.2925 -0.0837  1.0052
26032SOL    HW183416  10.685   1.314   7.992  0.4407  0.5241  0.4801
26032SOL    HW283417  10.658   1.342   7.846 -0.0460 -0.6741  0.3339
26033SOL     OW83418   1.502   1.396   4.786  0.2142 -0.2540  0.1390
26033SOL    HW183419   1.490   1.378   4.693 -1.9093 -1.0127  0.5071
26033SOL    HW283420   1.473   1.487   4.796  0.1077 -0.2821  0.0962
26034SOL     OW83421   1.260   3.807   3.946 -0.2736 -0.0194 -0.6617
26034SOL    HW183422   1.231   3.805   4.037 -0.7765  1.1180 -0.7764
26034SOL    HW283423   1.355   3.822   3.951 -0.2681 -0.1547 -0.3356
26035SOL     OW83424  11.468   3.384   8.478  0.2692  0.0151 -0.0502
26035SOL    HW183425  11.497   3.455   8.535 -0.2065  0.4951 -0.3955
26035SOL    HW283426  11.481   3.304   8.529 -0.2864  0.4516  0.7855
26036SOL     OW83427   9.478   6.534   3.223  0.1213  0.3583  0.0760
26036SOL    HW183428   9.439   6.447   3.223 -0.4662  0.5936  1.5323
26036SOL    HW283429   9.410   6.591   3.259  1.2540  1.0143  1.3030
26037SOL     OW83430   9.011   5.918   2.640  0.1179  0.4496 -0.2990
26037SOL    HW183431   8.932   5.864   2.641  0.4151 -0.0487 -1.5181
26037SOL    HW283432   9.075   5.865   2.592  1.2823  0.7371  0.9093
26038SOL     OW83433  11.165   8.714  11.109  0.1415 -0.2387  0.2869
26038SOL    HW183434  11.212   8.690  11.189  0.6802 -2.5108 -0.6405
26038SOL    HW283435  11.220   8.682  11.038  0.2131  2.6549 -1.1391
26039SOL     OW83436   5.554   6.761  11.420 -0.1623  0.2978 -0.0402
26039SOL    HW183437   5.506   6.681  11.399  0.3651 -0.0760  0.1453
26039SOL    HW283438   5.532   6.822  11.350  0.2530 -0.3592 -0.7472
26040SOL     OW83439   6.140  11.434   4.732  0.3347  0.1008 -0.4906
26040SOL    HW183440   6.078  11.507   4.736  1.7363  1.3620 -0.7467
26040SOL    HW283441   6.206  11.456   4.798  1.0885 -0.6476 -0.9791
26041SOL     OW83442   8.872   4.527   8.912  0.3936 -0.4882  0.1964
26041SOL    HW183443   8.939   4.575   8.862  0.5468  0.0173  0.8802
26041SOL    HW283444   8.814   4.594   8.945 -0.1446 -0.8878  0.0729
26042SOL     OW83445   6.764   6.350   6.842 -0.2312 -0.0470  0.5014
26042SOL    HW183446   6.852   6.369   6.811 -0.6522  0.4015 -0.4946
26042SOL    HW283447   6.774   6.325   6.933  1.0431 -1.0246  0.1203
26043SOL     OW83448   9.314   5.490   1.617  0.0730  0.0431 -0.3669
26043SOL    HW183449   9.227   5.517   1.590 -0.3257 -1.1973 -0.4036
26043SOL    HW283450   9.327   5.531   1.703 -1.1538 -0.9014  0.3059
26044SOL     OW83451   8.662   9.794   0.774  0.3633  0.4941 -0.0763
26044SOL    HW183452   8.679   9.722   0.713  0.7977  0.8327 -0.3550
26044SOL    HW283453   8.742   9.846   0.774  0.6182  0.1595  1.2603
26045SOL     OW83454   5.198   2.105   7.719 -0.2016  0.0657 -0.0124
26045SOL    HW183455   5.276   2.100   7.774  0.5095 -0.7129 -1.0571
26045SOL    HW283456   5.136   2.044   7.760 -0.1366  0.4205  0.6205
26046SOL     OW83457   6.526   6.691   9.444  0.0500 -0.3983 -0.7661
26046SOL    HW183458   6.560   6.776   9.469 -0.1636 -0.6184  0.3251
26046SOL    HW283459   6.440   6.710   9.405 -0.3217 -0.1585  0.1428
26047SOL     OW83460   3.783  10.151  11.583 -0.5374 -0.1874 -0.2063
26047SOL    HW183461   3.758  10.207  11.656 -2.9005 -0.3128 -0.8175
26047SOL    HW283462   3.700  10.135  11.536  0.7008 -1.0665 -2.2230
26048SOL     OW83463   9.677   1.136   9.828  0.1292 -0.4496  0.1034
26048SOL    HW183464   9.743   1.191   9.870 -0.3691  0.3258 -0.1246
26048SOL    HW283465   9.728   1.070   9.781  0.7202 -0.4992  0.7933
26049SOL     OW83466   7.828   0.684   7.484 -0.4223 -0.1247 -0.3017
26049SOL    HW183467   7.904   0.626   7.486  0.6315  1.2038 -0.0015
26049SOL    HW283468   7.852   0.753   7.422 -1.4469  0.2277 -0.3220
26050SOL     OW83469   1.599   4.119   2.669  0.5086  0.2791  0.1799
26050SOL    HW183470   1.674   4.161   2.710  3.1736 -1.7774 -2.1804
26050SOL    HW283471   1.585   4.168   2.588  1.3659 -1.0813 -0.8544
26051SOL     OW83472   9.554  10.744  11.764  0.8177 -0.0151  0.0484
26051SOL    HW183473   9.475  10.788  11.794  0.8532  1.0640 -1.3151
26051SOL    HW283474   9.611  10.815  11.735  0.5309 -0.9257 -3.1023
26052SOL     OW83475   9.614   3.723   6.005 -0.2412 -0.4988 -0.2459
26052SOL    HW183476   9.578   3.707   5.918 -2.8749 -0.4928  0.7478
26052SOL    HW283477   9.602   3.817   6.019 -1.9969 -0.8679  0.9622
26053SOL     OW83478   7.084   0.010   3.999 -0.3666  0.4449 -0.3690
26053SOL    HW183479   7.062  -0.005   3.907 -0.6670  1.3304 -0.4529
26053SOL    HW283480   7.000   0.008   4.044 -0.4589  2.0113 -0.4201
26054SOL     OW83481   8.056   0.130   2.804 -0.0961 -0.2276 -0.0881
26054SOL    HW183482   8.119   0.107   2.735 -1.1186 -1.1923 -0.7506
26054SOL    HW283483   8.099   0.102   2.885  1.1764  1.0302 -0.2777
26055SOL     OW83484  11.114  11.617   1.541  0.5967 -0.5821  0.8446
26055SOL    HW183485  11.186  11.672   1.571 -0.6360  0.8991  1.1792
26055SOL    HW283486  11.074  11.585   1.621  0.5355 -0.9579  0.6662
26056SOL     OW83487  10.739   4.266   4.842 -0.0947  0.3830  0.1661
26056SOL    HW183488  10.766   4.260   4.750 -0.1765  2.4391 -0.0235
26056SOL    HW283489  10.681   4.191   4.855 -1.6630  1.1249 -2.0248
26057SOL     OW83490   6.701  11.265   4.217  0.1542  0.1712 -0.3606
26057SOL    HW183491   6.768  11.239   4.153  0.2737 -2.0319  0.5627
26057SOL    HW283492   6.733  11.230   4.300 -1.9195 -0.5740  0.1907
26058SOL     OW83493  11.740   4.975   9.468 -0.0335  0.2971  0.4461
26058SOL    HW183494  11.769   4.946   9.381 -1.0642  0.3481  0.0644
26058SOL    HW283495  11.771   5.065   9.475  0.8055  0.0084  0.4907
26059SOL     OW83496   6.018   4.691   3.384 -0.3376  0.0016 -0.6826
26059SOL    HW183497   5.965   4.745   3.442  0.5940 -1.5676  1.7792
26059SOL    HW283498   6.108   4.707   3.412  0.0031 -2.2871 -0.2618
26060SOL     OW83499   1.592   1.270   4.502 -0.3194  0.4874 -0.5653
26060SOL    HW183500   1.657   1.293   4.436 -0.0151  0.0888 -0.4060
26060SOL    HW283501   1.529   1.343   4.500  0.1410  0.8873 -0.7040
26061SOL     OW83502   3.142   8.723   1.224 -0.4560  0.4397 -0.0955
26061SOL    HW183503   3.078   8.654   1.207  0.4037 -0.2196 -0.7979
26061SOL    HW283504   3.182   8.741   1.139 -0.9395  2.1185 -0.0044
26062SOL     OW83505   9.970   4.735   4.075  0.4019  0.5458  0.2545
26062SOL    HW183506   9.994   4.819   4.115 -1.4277  1.4118 -0.3539
26062SOL    HW283507   9.883   4.750   4.038  0.8549 -1.0436 -1.6205
26063SOL     OW83508   9.152   8.048   8.002 -0.0731 -0.6234  0.2773
26063SOL    HW183509   9.172   7.954   8.010 -2.3580 -1.2204 -0.2724
26063SOL    HW283510   9.238   8.091   8.007  1.6575 -2.9805 -3.7813
26064SOL     OW83511  11.395   5.581   7.700  0.5483  0.1295  0.3860
26064SOL    HW183512  11.438   5.603   7.782 -0.4815 -0.8366  1.2067
26064SOL    HW283513  11.426   5.647   7.638  2.0009  0.3683  1.3190
26065SOL     OW83514   1.930   5.838   0.605 -0.1802 -0.5839 -0.1708
26065SOL    HW183515   2.015   5.879   0.589  0.5681 -1.4233  1.4626
26065SOL    HW283516   1.906   5.800   0.520  0.1653  1.2106 -1.1405
26066SOL     OW83517   5.902  11.243   9.745  0.3524 -0.1095 -0.2756
26066SOL    HW183518   5.851  11.169   9.713 -0.0622  0.3663 -0.7479
26066SOL    HW283519   5.952  11.209   9.819 -2.5829 -0.0277  1.9592
26067SOL     OW83520   2.625   7.332  10.062 -0.7437  0.4733  0.2380
26067SOL    HW183521   2.531   7.316  10.057 -0.9825  1.7376  0.2555
26067SOL    HW283522   2.661   7.291   9.984 -1.4274  0.7224 -0.2164
26068SOL     OW83523   9.695   6.129  10.134 -0.0199  0.1099 -0.2432
26068SOL    HW183524   9.626   6.187  10.168  1.1579 -0.0877  2.8018
26068SOL    HW283525   9.775   6.162  10.175  1.2757 -1.3918 -1.4742
26069SOL     OW83526   5.851   1.257   9.291  0.6866 -0.1183  0.1610
26069SOL    HW183527   5.918   1.317   9.258 -0.1590  2.1909  2.3353
26069SOL    HW283528   5.768   1.299   9.268  0.0764  0.0293  2.4606
26070SOL     OW83529   8.665   5.217  10.431  0.0064  0.0408 -0.6377
26070SOL    HW183530   8.719   5.141  10.455  0.0432  0.0480 -0.6957
26070SOL    HW283531   8.640   5.200  10.340  1.1831  0.7656 -1.1261
26071SOL     OW83532   4.105   9.561  10.620 -0.1401 -0.1893 -0.1409
26071SOL    HW183533   4.132   9.537  10.532  0.2599  0.8943 -0.3370
26071SOL    HW283534   4.009   9.565  10.615 -0.0912  0.5169 -0.7196
26072SOL     OW83535  10.399   7.106   2.211  0.0466  0.0577  0.0465
26072SOL    HW183536  10.417   7.047   2.284  1.9974 -1.1027 -1.2655
26072SOL    HW283537  10.395   7.193   2.251 -1.0677 -0.7403  1.7717
26073SOL     OW83538   9.597   4.208   5.373  0.7850 -0.1352  0.2406
26073SOL    HW183539   9.669   4.166   5.328  1.0186 -0.1339  0.6041
26073SOL    HW283540   9.581   4.289   5.323  1.7059  0.3699  0.7303
26074SOL     OW83541  10.466  11.591  10.520 -0.6321 -0.1238  0.7075
26074SOL    HW183542  10.534  11.624  10.578  0.5447  0.5512 -0.9514
26074SOL    HW283543  10.444  11.666  10.464 -1.2440 -0.8968 -0.1247
26075SOL     OW83544   5.217   4.428   5.102 -0.7769 -0.1656  0.1510
26075SOL    HW183545   5.180   4.385   5.024 -0.2050 -0.5822  0.0979
26075SOL    HW283546   5.311   4.433   5.083 -0.5808 -0.6233  0.9799
26076SOL     OW83547  10.764   5.903   1.214  0.2168  0.2219  0.0318
26076SOL    HW183548  10.838   5.900   1.154  1.2484  0.9158  1.2360
26076SOL    HW283549  10.775   5.826   1.269 -0.1943  0.1061 -0.0458
26077SOL     OW83550   6.986   8.391   0.818 -0.1758  0.6117 -0.0784
26077SOL    HW183551   6.905   8.341   0.825  1.4355 -2.4296 -0.9572
26077SOL    HW283552   7.049   8.341   0.870  1.7132  1.3367 -1.5513
26078SOL     OW83553   7.731   6.040   1.016 -0.2861 -0.2550  0.7077
26078SOL    HW183554   7.662   6.035   1.081 -0.2246 -0.6209  0.7438
26078SOL    HW283555   7.695   6.097   0.947 -1.0510 -1.3054  0.2099
26079SOL     OW83556   5.410   0.492   2.647  0.0882  0.1034 -0.4339
26079SOL    HW183557   5.363   0.415   2.617  0.2635  0.6513 -2.2355
26079SOL    HW283558   5.421   0.478   2.741 -0.9772 -1.4554 -0.4983
26080SOL     OW83559   6.305   5.783   9.333 -0.3247 -0.0544 -1.1252
26080SOL    HW183560   6.334   5.697   9.365  1.4097  1.0505  0.4510
26080SOL    HW283561   6.257   5.821   9.406  1.1799  1.3344 -0.8042
26081SOL     OW83562   3.143   7.073   5.978  0.3473  0.4565 -0.0423
26081SOL    HW183563   3.132   6.978   5.984 -1.4586  0.5535 -0.9087
26081SOL    HW283564   3.187   7.087   5.894  2.4865  0.3375  0.9894
26082SOL     OW83565  11.191  11.175   1.442 -0.3098  0.7302  0.0430
26082SOL    HW183566  11.248  11.223   1.502 -0.8044  1.0213  0.2938
26082SOL    HW283567  11.145  11.112   1.498  0.0722  0.2101 -0.2252
26083SOL     OW83568   0.847  11.773   7.318 -0.0506  0.0525  0.1202
26083SOL    HW183569   0.898  11.853   7.306 -0.7427  0.6117  0.8027
26083SOL    HW283570   0.889  11.729   7.392 -1.7686  1.5647  2.1011
26084SOL     OW83571   2.464   1.591   3.864  0.2650  0.8001  0.0267
26084SOL    HW183572   2.455   1.512   3.917 -0.0424  0.9160  0.1508
26084SOL    HW283573   2.427   1.566   3.779  0.3621  0.7456  0.0003
26085SOL     OW83574   6.880   5.807   5.088  0.0234 -0.6425 -0.0591
26085SOL    HW183575   6.953   5.750   5.113  0.9724  0.3172 -0.5492
26085SOL    HW283576   6.890   5.885   5.143  0.4430  0.2486 -1.3359
26086SOL     OW83577   5.495  11.221   9.518  0.0465 -0.2217 -0.0628
26086SOL    HW183578   5.525  11.266   9.597  0.4075 -0.6183  0.0305
26086SOL    HW283579   5.500  11.128   9.540 -0.3646 -0.3180 -0.3719
26087SOL     OW83580   3.983   4.791   6.323  0.0358 -0.1172  0.1436
26087SOL    HW183581   3.940   4.797   6.237  0.1942 -1.1129 -0.0169
26087SOL    HW283582   4.074   4.773   6.304  0.4946  1.6256  0.5000
26088SOL     OW83583  11.145  10.523  11.213 -0.1987 -0.4828  1.0278
26088SOL    HW183584  11.133  10.584  11.286  1.4798 -1.1294  1.9068
26088SOL    HW283585  11.224  10.555  11.168 -1.7872  0.5451 -1.2300
26089SOL     OW83586   3.363   9.928   2.708 -0.5397  0.1700  0.0880
26089SOL    HW183587   3.314   9.918   2.789  0.7628  0.6070  0.9456
26089SOL    HW283588   3.296   9.951   2.643 -1.4221  1.2190  1.3126
26090SOL     OW83589   6.461   4.586   9.270 -0.3809  0.4457  0.6798
26090SOL    HW183590   6.395   4.539   9.320 -0.5049 -0.2881 -0.1381
26090SOL    HW283591   6.481   4.663   9.322  0.1206 -0.7140  2.2548
26091SOL     OW83592   3.745   7.734   6.196  0.0725  0.0969  0.0387
26091SOL    HW183593   3.794   7.701   6.271 -1.1284  0.0703  0.8529
26091SOL    HW283594   3.744   7.829   6.207 -0.7277  0.0500  0.4919
26092SOL     OW83595   4.240   5.201   5.871  0.3616  0.3960  0.3911
26092SOL    HW183596   4.224   5.294   5.889  1.0362  0.6068 -0.0565
26092SOL    HW283597   4.162   5.157   5.903  0.1159  1.1008  0.7839
26093SOL     OW83598  10.962   0.285   8.347  0.2293 -0.0313  0.1895
26093SOL    HW183599  10.989   0.193   8.354  0.6082  0.0931  0.4356
26093SOL    HW283600  10.867   0.283   8.352  0.2780 -0.3310  1.2582
26094SOL     OW83601   9.511  11.072   4.435 -0.3247  0.0204 -0.3656
26094SOL    HW183602   9.424  11.034   4.425  0.5738 -1.8466 -1.7811
26094SOL    HW283603   9.514  11.143   4.371 -0.3341 -0.8843 -1.3917
26095SOL     OW83604   0.839   6.984   1.621 -0.2377 -0.4254 -0.9039
26095SOL    HW183605   0.760   7.017   1.664 -0.2114 -1.2246 -0.2365
26095SOL    HW283606   0.820   6.892   1.602  0.2283 -0.4115 -1.4819
26096SOL     OW83607   2.207   0.843   0.458 -0.5047 -0.0800 -0.0008
26096SOL    HW183608   2.161   0.925   0.473 -1.4787 -0.8563  1.6765
26096SOL    HW283609   2.141   0.785   0.420 -0.1055 -0.3793 -0.2438
26097SOL     OW83610  10.440  11.384   2.612  0.7182  0.0789  0.2292
26097SOL    HW183611  10.364  11.427   2.573  0.6305  0.3578  0.6981
26097SOL    HW283612  10.494  11.359   2.537 -0.8729 -2.1519 -0.2916
26098SOL     OW83613   3.747   9.442   1.246 -0.1578  0.1448 -0.0786
26098SOL    HW183614   3.754   9.366   1.189 -1.0218  1.8696 -2.6593
26098SOL    HW283615   3.657   9.440   1.278  0.7118 -1.6404  2.6693
26099SOL     OW83616  10.181   8.250   8.880  0.7971  0.3881 -0.1899
26099SOL    HW183617  10.122   8.186   8.920  1.2755 -0.4181 -0.7317
26099SOL    HW283618  10.127   8.327   8.863 -0.4538 -0.8036 -1.9421
26100SOL     OW83619   3.759   6.009   0.821 -0.0981 -0.5845 -0.6905
26100SOL    HW183620   3.695   6.010   0.750 -0.8803  1.8850 -0.0453
26100SOL    HW283621   3.706   6.009   0.901  0.7238 -0.1169 -0.1342
26101SOL     OW83622   1.805   7.919   0.678  0.1062 -0.1946 -0.6427
26101SOL    HW183623   1.871   7.960   0.735 -0.7169  0.6776 -0.2879
26101SOL    HW283624   1.851   7.846   0.637  0.8711 -0.5277  0.7411
26102SOL     OW83625   3.444   6.903  11.622  0.1102  0.5371 -0.6531
26102SOL    HW183626   3.484   6.821  11.650  0.6010  0.6962 -0.8857
26102SOL    HW283627   3.368   6.876  11.570 -0.4215  0.2378  0.2626
26103SOL     OW83628   0.562   0.753   2.863 -0.3780 -0.3962 -0.3053
26103SOL    HW183629   0.469   0.768   2.850 -0.4921  1.4625  1.9407
26103SOL    HW283630   0.579   0.670   2.819 -2.7737 -0.1381 -1.9238
26104SOL     OW83631   1.219   7.602   3.048 -0.1992 -0.2950 -0.5194
26104SOL    HW183632   1.281   7.570   2.982  1.8420 -0.9601  1.5995
26104SOL    HW283633   1.251   7.690   3.069 -1.8406  0.5908 -1.5525
26105SOL     OW83634   9.026   4.502   7.760  0.2937 -0.7121  0.3910
26105SOL    HW183635   9.006   4.445   7.834  0.0979 -0.7101  0.3401
26105SOL    HW283636   8.940   4.525   7.724  0.4180 -1.1856 -0.1998
26106SOL     OW83637   0.153   7.147   7.709  0.1291  0.1694  0.2030
26106SOL    HW183638   0.096   7.070   7.705  0.8576 -0.3776  0.2511
26106SOL    HW283639   0.238   7.116   7.679  1.1056  0.3065  2.5939
26107SOL     OW83640   0.629   1.931   0.996 -0.2338  0.0946  0.2391
26107SOL    HW183641   0.616   1.957   1.087 -0.2738  2.0914 -0.2882
26107SOL    HW283642   0.689   1.997   0.961 -0.7015 -0.2883 -1.3480
26108SOL     OW83643   9.167   1.509   7.165  0.5940  0.1524  0.4681
26108SOL    HW183644   9.160   1.442   7.233 -0.7282  0.0042  0.2069
26108SOL    HW283645   9.127   1.587   7.203  0.3584  0.2300  0.0699
26109SOL     OW83646   6.637   0.091   6.796 -0.3260  0.1124  0.0199
26109SOL    HW183647   6.617   0.014   6.849  1.1904 -0.8221 -0.7265
26109SOL    HW283648   6.680   0.057   6.718  0.5518  1.7214 -0.2479
26110SOL     OW83649   8.194   8.715   5.852  0.8390 -0.2178 -0.4400
26110SOL    HW183650   8.140   8.654   5.903  1.3503 -0.6375 -0.3911
26110SOL    HW283651   8.272   8.664   5.830 -0.1244 -0.6775 -3.2010
26111SOL     OW83652  10.028   0.500   0.350 -0.0020  0.2524  0.1656
26111SOL    HW183653  10.051   0.556   0.275  1.6354 -1.1206 -0.4270
26111SOL    HW283654   9.936   0.478   0.336 -0.2519  1.5213 -0.3984
26112SOL     OW83655   4.989   8.893   4.071 -0.1428  0.0587 -0.3347
26112SOL    HW183656   4.907   8.939   4.054 -0.0087 -0.2841 -2.1079
26112SOL    HW283657   5.054   8.963   4.082 -0.6870  0.3357  1.3668
26113SOL     OW83658   2.065  10.249  11.597  0.2203  0.7620  0.9500
26113SOL    HW183659   2.149  10.225  11.634  1.1973  3.2867  0.5515
26113SOL    HW283660   2.060  10.200  11.515  0.4177 -0.7743  1.7986
26114SOL     OW83661  11.550   8.110   0.706 -0.0505 -0.2429 -0.2821
26114SOL    HW183662  11.515   8.059   0.633  1.0149 -1.3189 -0.0686
26114SOL    HW283663  11.479   8.170   0.729 -0.0714  0.8976 -2.8798
26115SOL     OW83664   2.534   7.858   0.330  0.3226  0.0092 -0.3287
26115SOL    HW183665   2.552   7.949   0.353 -1.7448  0.1792  0.9141
26115SOL    HW283666   2.574   7.807   0.400  0.2006  0.0699 -0.2136
26116SOL     OW83667   3.624   2.742   4.892  0.0010 -0.4913 -0.3008
26116SOL    HW183668   3.594   2.747   4.802 -2.9945  1.2442  0.6244
26116SOL    HW283669   3.617   2.650   4.916  1.8412 -1.1419 -2.0669
26117SOL     OW83670   4.644   4.691   1.823 -0.3106  0.6996 -0.2157
26117SOL    HW183671   4.563   4.675   1.775 -0.0601  0.6695 -0.6332
26117SOL    HW283672   4.699   4.614   1.805 -0.6767  0.0987  1.1191
26118SOL     OW83673   8.122   6.004   7.871  0.1653  0.2779  0.2227
26118SOL    HW183674   8.147   5.949   7.796  0.3923  0.9410 -0.1930
26118SOL    HW283675   8.192   6.069   7.876 -1.2088  1.9000 -0.6744
26119SOL     OW83676   4.560   8.945   0.356  0.8736  0.0203 -0.2210
26119SOL    HW183677   4.646   8.981   0.337  1.0900 -0.7540 -0.7642
26119SOL    HW283678   4.506   9.021   0.378  1.1232  0.8028 -2.0709
26120SOL     OW83679   3.190   3.988   8.120 -0.7658  0.7324  0.3640
26120SOL    HW183680   3.173   4.070   8.073  2.1178  0.6428 -1.0322
26120SOL    HW283681   3.231   4.015   8.201  0.4038  0.6994 -0.2022
26121SOL     OW83682   9.990   8.960  10.467  0.3140 -0.3950 -0.1226
26121SOL    HW183683   9.988   8.958  10.563  0.0942 -0.3941 -0.1254
26121SOL    HW283684  10.081   8.976  10.445  0.4328 -0.7581  0.0841
26122SOL     OW83685   4.951   2.319  11.504 -0.1299  0.6448  0.0078
26122SOL    HW183686   5.043   2.336  11.523  0.9994 -0.1436 -3.8947
26122SOL    HW283687   4.930   2.240  11.554  1.6608  0.1840  0.1017
26123SOL     OW83688   1.176   6.224   5.424 -0.1656  0.4182 -0.2639
26123SOL    HW183689   1.091   6.269   5.422  0.1580  1.0208 -0.8002
26123SOL    HW283690   1.227   6.266   5.355  0.9183  0.7416  0.7159
26124SOL     OW83691   1.647   2.030   5.757 -0.0938  0.0575 -0.1009
26124SOL    HW183692   1.640   2.125   5.744 -0.7305  0.3649  2.1063
26124SOL    HW283693   1.583   2.011   5.826  2.5568 -1.3544  2.1375
26125SOL     OW83694   3.048   4.327   3.351 -0.0123 -0.5305 -0.4224
26125SOL    HW183695   2.989   4.354   3.422  0.8644 -0.2445  0.2089
26125SOL    HW283696   2.999   4.259   3.304 -0.8820 -0.2324  0.0264
26126SOL     OW83697   2.296  10.383   7.129 -0.0682  0.0075  0.0617
26126SOL    HW183698   2.269  10.454   7.187 -0.2124 -0.0582  0.0735
26126SOL    HW283699   2.389  10.401   7.113  0.4154 -0.9067  1.6363
26127SOL     OW83700  11.577   2.296   1.521  0.4635 -0.2482  0.5115
26127SOL    HW183701  11.516   2.300   1.594  0.6190 -2.3788  0.8210
26127SOL    HW283702  11.638   2.369   1.537 -0.5834  0.4549  1.4688
26128SOL     OW83703  11.373   4.109   9.548  0.4090  0.4931  0.1657
26128SOL    HW183704  11.381   4.202   9.565  2.0938  0.4151  0.0043
26128SOL    HW283705  11.403   4.099   9.457  1.1352 -0.3161  0.4874
26129SOL     OW83706  10.674   5.844   2.242 -0.1434 -0.4684  0.1298
26129SOL    HW183707  10.719   5.890   2.313 -2.2067 -0.5701  1.5534
26129SOL    HW283708  10.615   5.909   2.205 -0.8883 -1.1091  0.1701
26130SOL     OW83709  11.525   7.180   3.852 -0.2216 -0.4661 -0.0349
26130SOL    HW183710  11.566   7.094   3.858  0.1951 -0.2524  0.2452
26130SOL    HW283711  11.437   7.162   3.820 -0.1857 -1.0084  0.1576
26131SOL     OW83712   0.414  11.000   9.098 -0.0125  0.2835  0.2286
26131SOL    HW183713   0.509  11.000   9.111  0.1490 -2.6390 -0.1566
26131SOL    HW283714   0.379  10.965   9.179 -0.7878  1.3836  0.3825
26132SOL     OW83715   8.092   6.085   4.821 -0.4005 -0.0417 -0.3654
26132SOL    HW183716   7.997   6.083   4.833 -0.5460  1.9620 -0.8513
26132SOL    HW283717   8.108   6.160   4.764  1.7239  1.7896  2.3301
26133SOL     OW83718   0.232   1.418   4.477 -0.3663 -0.8917  0.3684
26133SOL    HW183719   0.267   1.463   4.553 -2.3331 -0.1957  0.9120
26133SOL    HW283720   0.208   1.331   4.509 -1.1429 -0.6175  0.5500
26134SOL     OW83721   3.386   8.946  11.666  0.3639 -0.3788  0.6020
26134SOL    HW183722   3.320   8.978  11.728  0.0123 -0.6771  0.3908
26134SOL    HW283723   3.470   8.974  11.702  0.0140  2.6498 -0.5646
26135SOL     OW83724   2.145   7.323   2.441 -0.0531 -0.2174 -0.2552
26135SOL    HW183725   2.216   7.370   2.398  0.3144  0.6938  1.2857
26135SOL    HW283726   2.066   7.354   2.397  0.1978  1.7000  0.5449
26136SOL     OW83727   2.830   8.165  11.345  0.5422  0.3555  0.0469
26136SOL    HW183728   2.762   8.102  11.321  0.3959  0.3918  0.3560
26136SOL    HW283729   2.912   8.125  11.316  0.3470  0.5317 -0.7771
26137SOL     OW83730   9.902  11.493   2.267 -0.0470  0.0213 -0.1971
26137SOL    HW183731   9.894  11.464   2.176  0.1242 -0.7193  0.0143
26137SOL    HW283732   9.977  11.553   2.266  0.0281 -0.0738 -0.5171
26138SOL     OW83733  10.979   9.072   1.926 -0.2402 -0.1894 -0.3338
26138SOL    HW183734  11.049   9.083   1.862 -1.4695  0.8404 -1.5595
26138SOL    HW283735  10.899   9.061   1.874 -1.1024 -0.6910  1.0196
26139SOL     OW83736   0.898   0.596   5.519 -0.1436  0.4798  0.2961
26139SOL    HW183737   0.923   0.604   5.611 -4.0602  2.2788  1.4479
26139SOL    HW283738   0.804   0.614   5.518 -0.8504 -2.0000 -3.7883
26140SOL     OW83739   9.736   6.176   6.142 -0.1878  0.3380  0.3182
26140SOL    HW183740   9.816   6.161   6.193  1.0094  0.0225 -1.5522
26140SOL    HW283741   9.753   6.135   6.058 -1.2624  2.5552 -1.0784
26141SOL     OW83742   8.198   5.892   7.608 -0.2655  0.2897  0.1105
26141SOL    HW183743   8.285   5.917   7.577  0.0831 -0.8420  0.1516
26141SOL    HW283744   8.210   5.806   7.648 -1.5229 -0.1857 -0.4652
26142SOL     OW83745   9.627   9.304   8.535  0.3073  0.1514 -0.3133
26142SOL    HW183746   9.647   9.327   8.626 -0.6986  1.8603 -0.4765
26142SOL    HW283747   9.531   9.294   8.534  0.3198  0.0587 -1.1749
26143SOL     OW83748   9.271   4.233   3.115  0.3459  0.0368  0.4577
26143SOL    HW183749   9.260   4.146   3.076  2.4170 -0.4175  0.7664
26143SOL    HW283750   9.365   4.250   3.108 -0.0688  2.4228  0.0907
26144SOL     OW83751   4.051   4.104   3.323 -0.2276  0.6369  0.2571
26144SOL    HW183752   4.140   4.115   3.356 -1.2336 -0.5738  3.7901
26144SOL    HW283753   4.006   4.185   3.346 -0.2525  0.9779 -0.9195
26145SOL     OW83754   3.730  11.128   3.377 -0.2807  0.2483  0.4432
26145SOL    HW183755   3.729  11.051   3.320 -0.2778  0.8932 -0.4505
26145SOL    HW283756   3.815  11.124   3.421  0.1889  0.3219 -0.4279
26146SOL     OW83757   1.062   5.879   5.055  0.1419  0.0900  0.4354
26146SOL    HW183758   1.087   5.848   5.142  0.2199  1.3138  0.8650
26146SOL    HW283759   1.077   5.973   5.058  1.3133 -0.0009 -1.3038
26147SOL     OW83760   7.441  10.997   4.953 -0.7922 -0.4241  0.1085
26147SOL    HW183761   7.469  11.081   4.917  0.1019 -0.9374 -0.4406
26147SOL    HW283762   7.518  10.966   5.001 -1.2628 -0.7330  0.6665
26148SOL     OW83763   7.426   9.711   8.251 -0.0549 -0.3014 -0.1423
26148SOL    HW183764   7.471   9.726   8.334  0.9811 -1.5928 -0.4429
26148SOL    HW283765   7.473   9.765   8.188 -0.6236  0.4076  0.0210
26149SOL     OW83766  11.179   9.171   8.828 -0.5586  0.4266  0.4199
26149SOL    HW183767  11.160   9.263   8.807 -0.5927  0.6252  1.2529
26149SOL    HW283768  11.140   9.121   8.757 -1.5812  1.0014  0.5477
26150SOL     OW83769   5.540   5.915   1.393  0.0282  0.3162 -0.3604
26150SOL    HW183770   5.474   5.936   1.459  2.5116  3.3938  1.4162
26150SOL    HW283771   5.507   5.954   1.313 -1.3086 -0.1697 -0.0648
26151SOL     OW83772   1.812  11.325   5.959 -0.2542  0.0439 -0.1481
26151SOL    HW183773   1.804  11.259   5.890 -0.3978  0.5697 -0.6341
26151SOL    HW283774   1.889  11.297   6.009 -1.3480 -1.5322  0.7723
26152SOL     OW83775   9.269   8.052   4.335 -0.2595 -0.1382 -0.2376
26152SOL    HW183776   9.261   8.063   4.240 -0.0473  0.3202 -0.2029
26152SOL    HW283777   9.191   8.001   4.359  0.3600 -1.4085 -0.8361
26153SOL     OW83778   0.386   7.421   0.669 -0.6881  0.0926  0.1102
26153SOL    HW183779   0.308   7.374   0.699 -0.5939 -0.6266 -0.7157
26153SOL    HW283780   0.458   7.361   0.687 -0.1400  1.2504  2.0189
26154SOL     OW83781   3.827   9.244   1.757 -0.0775 -0.3285  0.4111
26154SOL    HW183782   3.760   9.250   1.689 -1.9176  1.4955  2.2132
26154SOL    HW283783   3.833   9.333   1.792  3.1831 -0.4691  0.5080
26155SOL     OW83784  11.809   0.790   4.502  0.1107  0.2065 -0.0256
26155SOL    HW183785  11.887   0.734   4.494  0.1430  0.1417  0.7249
26155SOL    HW283786  11.778   0.776   4.591 -0.4317  0.6729 -0.1369
26156SOL     OW83787   6.976  10.111   3.969 -0.0694 -0.3440 -0.2061
26156SOL    HW183788   6.971  10.150   4.056  3.4360  1.1972 -0.5150
26156SOL    HW283789   6.982  10.187   3.910 -1.2606 -1.3659 -1.7236
26157SOL     OW83790   8.765   3.874  10.471 -0.3934 -0.0347  0.0308
26157SOL    HW183791   8.757   3.945  10.535  0.2645 -0.0261  0.1130
26157SOL    HW283792   8.858   3.873  10.449 -0.5225 -0.4066 -0.5065
26158SOL     OW83793   4.932   1.486  11.725  0.4452  0.2544 -0.2170
26158SOL    HW183794   4.927   1.407  11.778 -0.6040  1.8693  2.3111
26158SOL    HW283795   4.854   1.483  11.670 -0.1337 -0.0327  0.5938
26159SOL     OW83796   7.926   2.342   3.330  0.3696 -0.2958 -0.0051
26159SOL    HW183797   7.894   2.432   3.323  0.5198 -0.1740  0.7611
26159SOL    HW283798   7.962   2.322   3.244 -2.8402 -0.8566 -1.3505
26160SOL     OW83799   0.875   6.991   5.919  0.1556 -0.4516 -0.0290
26160SOL    HW183800   0.901   7.001   5.827 -0.0888  0.6185  0.0018
26160SOL    HW283801   0.903   6.903   5.943  2.8942  0.2932 -0.2572
26161SOL     OW83802   5.388  10.352   4.411 -0.0940 -0.3952 -0.0872
26161SOL    HW183803   5.429  10.268   4.431 -0.4329 -0.4312  0.4841
26161SOL    HW283804   5.457  10.403   4.368  0.3489 -0.6883  0.2677
26162SOL     OW83805   9.279   6.468  10.164  0.0319  0.8670 -0.3399
26162SOL    HW183806   9.285   6.538  10.099 -0.8327  2.6927  1.4331
26162SOL    HW283807   9.216   6.500  10.229 -0.2866 -1.5079  0.6491
26163SOL     OW83808   9.136   3.859   1.533 -0.6421 -0.5703 -0.7692
26163SOL    HW183809   9.186   3.779   1.514  0.6860 -0.2662  1.1429
26163SOL    HW283810   9.108   3.848   1.624 -1.5734  0.5658 -0.9115
26164SOL     OW83811   4.012   9.132  10.179  0.1019  0.3062 -0.0225
26164SOL    HW183812   4.089   9.120  10.236  1.1419  1.7436 -1.0616
26164SOL    HW283813   3.983   9.043  10.160  0.2673 -0.2483  1.9898
26165SOL     OW83814   8.318   9.670   4.763 -0.5959 -0.3595  0.1004
26165SOL    HW183815   8.238   9.620   4.779  0.0289 -0.6570  2.6978
26165SOL    HW283816   8.388   9.606   4.767 -0.0230  0.2596  0.2168
26166SOL     OW83817  10.442   4.113   9.699  0.1024 -0.5544  0.4897
26166SOL    HW183818  10.433   4.207   9.709 -1.4039 -0.7995  1.8763
26166SOL    HW283819  10.352   4.080   9.693  0.5380 -2.0282  1.4274
26167SOL     OW83820   6.367   3.939  10.647  0.4147  0.3892 -0.3699
26167SOL    HW183821   6.430   3.867  10.648 -1.7147 -1.6409 -1.7168
26167SOL    HW283822   6.379   3.980  10.561 -0.0987 -0.0429 -0.6560
26168SOL     OW83823   8.007   1.157   2.377 -0.3499  0.3769 -0.1329
26168SOL    HW183824   7.969   1.139   2.291 -0.0304 -1.3940  0.0651
26168SOL    HW283825   8.069   1.085   2.392  0.7281  1.4614  0.9360
26169SOL     OW83826   0.358   4.977   7.223 -0.4088 -0.6677  0.6806
26169SOL    HW183827   0.400   4.994   7.307 -1.5945 -0.2608  1.2098
26169SOL    HW283828   0.285   5.038   7.219  0.9219  0.9596 -1.6824
26170SOL     OW83829   6.951  10.846   8.743  0.4068  0.5658 -0.2054
26170SOL    HW183830   6.921  10.903   8.672 -0.9594  0.6757  0.4472
26170SOL    HW283831   6.872  10.806   8.777  0.9602  1.0502  1.7491
26171SOL     OW83832   5.570  11.318   8.679  0.7001 -0.6143 -0.2340
26171SOL    HW183833   5.557  11.376   8.754  0.4897 -2.3479  1.1217
26171SOL    HW283834   5.662  11.291   8.686  0.3962 -1.5972  0.0071
26172SOL     OW83835  10.125  10.846  11.803 -0.0251 -0.7349  0.3184
26172SOL    HW183836  10.080  10.762  11.792 -0.6755 -0.0928 -3.1674
26172SOL    HW283837  10.152  10.871  11.714  1.2812  2.1493  1.3881
26173SOL     OW83838   0.415   0.552   4.311  0.0751  0.4997 -0.6645
26173SOL    HW183839   0.447   0.634   4.273 -0.0449  1.7495  1.7690
26173SOL    HW283840   0.493   0.496   4.316  0.6120  1.2453 -0.4375
26174SOL     OW83841   7.516   9.252   2.983  0.0014 -0.5411 -0.2771
26174SOL    HW183842   7.522   9.231   3.076 -0.4761 -2.7376 -0.6848
26174SOL    HW283843   7.425   9.277   2.969  0.2947  0.7167  0.0001
26175SOL     OW83844   8.127   4.347   3.828  0.1791  0.0644  0.1165
26175SOL    HW183845   8.070   4.368   3.754  2.4032 -0.5278 -1.9042
26175SOL    HW283846   8.151   4.433   3.864 -1.1302  0.3515  0.3510
26176SOL     OW83847   9.297   6.672   7.190 -0.8608  0.1748 -0.3674
26176SOL    HW183848   9.341   6.689   7.274  0.3727 -1.1212 -0.7036
26176SOL    HW283849   9.215   6.630   7.215 -0.3376 -0.5471  0.2151
26177SOL     OW83850   8.469  11.101   7.244 -0.4618 -0.6363 -0.1566
26177SOL    HW183851   8.552  11.138   7.274 -0.9543 -0.0177  0.4970
26177SOL    HW283852   8.463  11.016   7.288 -0.2429 -0.6191 -0.0927
26178SOL     OW83853   7.781   5.945   2.509  0.6301  0.2677 -0.1026
26178SOL    HW183854   7.760   5.910   2.596  0.9778 -0.6459 -0.3735
26178SOL    HW283855   7.724   6.022   2.500  0.6495  0.4201  0.9585
26179SOL     OW83856   4.756  10.842   6.969 -0.4113 -0.2071  0.2329
26179SOL    HW183857   4.665  10.831   6.999 -1.0513 -0.4978 -1.6956
26179SOL    HW283858   4.750  10.845   6.874  1.4648  1.2759  0.0984
26180SOL     OW83859   9.232   3.685   1.160  0.4670  0.5304 -0.0381
26180SOL    HW183860   9.158   3.744   1.144  0.8196  0.6924 -1.1939
26180SOL    HW283861   9.259   3.657   1.073  1.8937  0.6183  0.3486
26181SOL     OW83862   2.274   9.934   9.982 -0.4255  0.1055  0.5432
26181SOL    HW183863   2.258   9.877   9.906  1.1893  1.9624 -1.2955
26181SOL    HW283864   2.205  10.000   9.978  1.1687  1.8049 -1.0421
26182SOL     OW83865   4.012   6.250   7.459 -0.1514  0.6934 -0.1342
26182SOL    HW183866   3.950   6.288   7.521  0.1841  0.2460  0.4879
26182SOL    HW283867   3.978   6.162   7.443 -0.1619  0.7597 -0.4881
26183SOL     OW83868  11.823   2.854   6.027 -0.2169 -0.2640  0.0271
26183SOL    HW183869  11.859   2.788   6.087  0.4473 -0.4218 -0.5332
26183SOL    HW283870  11.750   2.809   5.984 -0.4428 -0.2825  0.4335
26184SOL     OW83871   0.471   7.747   3.205  0.1261  0.4211 -0.0478
26184SOL    HW183872   0.551   7.800   3.200 -0.3046  1.4841  2.6968
26184SOL    HW283873   0.503   7.657   3.206  1.2474  0.7987  0.1405
26185SOL     OW83874   9.384   5.056   2.243 -0.3787 -0.0153 -0.3690
26185SOL    HW183875   9.407   5.129   2.301 -2.1071 -1.1674  1.9048
26185SOL    HW283876   9.311   5.089   2.191  0.0604  0.4598 -0.6995
26186SOL     OW83877  10.381   2.686  11.235  0.7939  0.4278  0.4383
26186SOL    HW183878  10.292   2.654  11.241  0.1843  2.0394  0.5820
26186SOL    HW283879  10.425   2.626  11.175 -0.4763 -0.1880  0.0960
26187SOL     OW83880  11.683  11.294  11.313 -0.4878  0.8019 -0.6618
26187SOL    HW183881  11.765  11.341  11.322 -0.2327  0.3999 -0.8666
26187SOL    HW283882  11.652  11.316  11.225 -0.6310  0.9987 -0.5638
26188SOL     OW83883   1.461   7.437   0.374  0.2128  0.0339 -0.1278
26188SOL    HW183884   1.413   7.495   0.315 -1.1720 -0.1161  0.7972
26188SOL    HW283885   1.521   7.495   0.421  3.3792 -0.1530 -3.4136
26189SOL     OW83886   7.304   7.609   0.369 -0.1634  0.4281 -0.1480
26189SOL    HW183887   7.258   7.544   0.316  0.1637  0.7583 -0.8532
26189SOL    HW283888   7.256   7.691   0.354 -0.7225  0.3187  0.9267
26190SOL     OW83889   6.851   6.268   0.358  0.0586  0.6493  0.5538
26190SOL    HW183890   6.772   6.307   0.396  0.2997  1.0736  0.6354
26190SOL    HW283891   6.923   6.320   0.395  0.3766  0.2417  0.5151
26191SOL     OW83892   2.926  10.180   0.558  0.2962  0.6436 -0.0167
26191SOL    HW183893   2.919  10.232   0.638  0.5832 -0.2773  0.6205
26191SOL    HW283894   2.904  10.241   0.488  1.6686  1.8984  0.6119
26192SOL     OW83895   8.061   5.448   3.744 -0.2482 -0.0716 -0.5175
26192SOL    HW183896   8.102   5.367   3.776 -1.2338 -0.3414  0.0966
26192SOL    HW283897   8.124   5.483   3.681 -0.1821 -1.7518 -1.4378
26193SOL     OW83898   7.538   5.684   7.576 -0.5882 -0.0489 -0.2491
26193SOL    HW183899   7.622   5.640   7.590 -1.8294 -2.6659 -0.3460
26193SOL    HW283900   7.546   5.725   7.490  0.8964  0.5752  0.1642
26194SOL     OW83901  11.347   3.341   7.224  0.7760 -0.1551  0.0365
26194SOL    HW183902  11.339   3.398   7.147  0.9708 -0.6582 -0.3706
26194SOL    HW283903  11.258   3.314   7.243  0.8344 -1.0508 -0.8260
26195SOL     OW83904   3.335   1.986   9.914  0.4593  0.7690  0.0948
26195SOL    HW183905   3.350   1.954   9.825  0.9391 -1.5291  0.9438
26195SOL    HW283906   3.282   1.918   9.956 -0.3247  2.1226  1.3890
26196SOL     OW83907   4.468   8.278   6.894  0.7997 -0.2660 -0.3042
26196SOL    HW183908   4.429   8.265   6.808  2.3320  0.4939 -1.1718
26196SOL    HW283909   4.491   8.371   6.895 -1.5631  0.3967  2.0065
26197SOL     OW83910   3.869   3.051   4.998  0.0416  0.2454  0.8927
26197SOL    HW183911   3.808   3.008   5.057 -0.2564  0.9542  1.1136
26197SOL    HW283912   3.909   3.120   5.052 -0.3092  0.9658  0.2483
26198SOL     OW83913   9.516   7.531   4.869 -0.2478 -0.2823  0.5148
26198SOL    HW183914   9.421   7.520   4.865 -0.1834 -0.7721  0.0841
26198SOL    HW283915   9.550   7.452   4.826  0.3235  0.4265 -0.3615
26199SOL     OW83916   0.395   6.136   4.915 -0.4027 -0.0324 -0.4331
26199SOL    HW183917   0.324   6.158   4.856  0.0220  1.5896 -0.3938
26199SOL    HW283918   0.469   6.190   4.885 -0.0440  0.4864  1.2613
26200SOL     OW83919  11.456   3.093   0.044 -0.4147  0.6912 -0.2942
26200SOL    HW183920  11.422   3.171   0.088  0.5390  0.9945 -0.0568
26200SOL    HW283921  11.520   3.057   0.106 -0.4692  0.0169 -0.6248
26201SOL     OW83922   0.253   1.758   2.531  0.2706 -0.1785 -0.7280
26201SOL    HW183923   0.304   1.740   2.610  1.0392 -1.5745 -1.5118
26201SOL    HW283924   0.231   1.851   2.538 -3.3106 -0.9973  3.2102
26202SOL     OW83925   4.601  11.596   4.623  0.3015 -0.2534  0.3916
26202SOL    HW183926   4.614  11.639   4.708 -0.1150 -1.1458  0.9219
26202SOL    HW283927   4.521  11.545   4.634 -1.1289  1.4816 -1.3095
26203SOL     OW83928   0.223  11.603   9.453 -0.6093  0.0942 -0.6298
26203SOL    HW183929   0.208  11.515   9.420  0.5135  0.2685 -1.6749
26203SOL    HW283930   0.148  11.654   9.423 -0.6987 -0.2596 -1.0101
26204SOL     OW83931   8.167  10.037   6.826 -0.0816 -0.2738  0.4082
26204SOL    HW183932   8.215   9.998   6.753 -1.2744  0.1251 -0.6276
26204SOL    HW283933   8.081  10.057   6.790 -0.4989  0.5086  1.7675
26205SOL     OW83934   0.477  11.114   3.959 -0.4805 -0.0876 -0.5026
26205SOL    HW183935   0.559  11.140   4.001  0.2186 -2.0502 -0.5462
26205SOL    HW283936   0.411  11.118   4.029 -0.4677  1.8114 -0.5436
26206SOL     OW83937   4.214   2.973   8.607  0.2949  0.6645  0.3476
26206SOL    HW183938   4.291   2.940   8.653 -1.4744 -1.3906  2.0732
26206SOL    HW283939   4.186   3.049   8.660 -0.4193 -0.3030  1.4060
26207SOL     OW83940   5.179   5.381   3.120 -0.4106 -0.1670 -0.0636
26207SOL    HW183941   5.209   5.290   3.130 -1.5351 -0.5727 -0.1715
26207SOL    HW283942   5.147   5.405   3.208  1.0399  0.5760  0.2793
26208SOL     OW83943   5.869   8.949   4.398  0.4930 -0.0746 -0.9359
26208SOL    HW183944   5.807   9.011   4.359 -0.2700 -1.0466 -1.3374
26208SOL    HW283945   5.868   8.969   4.491 -0.4047 -0.0291 -0.9443
26209SOL     OW83946   0.074   9.453  11.597 -0.0565  0.1477  0.1118
26209SOL    HW183947   0.073   9.421  11.687 -1.6475 -0.9089 -0.2311
26209SOL    HW283948  -0.009   9.500  11.588 -0.3075 -0.4726 -1.0107
26210SOL     OW83949   6.407   4.821  10.926  0.0629  0.1189  0.0830
26210SOL    HW183950   6.475   4.869  10.971 -0.5632 -1.3352  2.7923
26210SOL    HW283951   6.446   4.735  10.907 -0.0907  0.2859 -1.0963
26211SOL     OW83952   6.780   6.995  10.469  0.2467 -0.8233  0.3142
26211SOL    HW183953   6.775   6.902  10.446 -0.9371 -0.9279  0.9119
26211SOL    HW283954   6.869   7.006  10.504  0.8389 -1.4338 -0.9417
26212SOL     OW83955   5.300   1.371   6.682  0.2531  0.5182 -0.5296
26212SOL    HW183956   5.256   1.437   6.736  1.4157  0.1455  0.9233
26212SOL    HW283957   5.372   1.418   6.641 -0.6453  0.8083 -1.8546
26213SOL     OW83958   7.927   4.807   0.083 -0.0338  0.8993  0.1309
26213SOL    HW183959   7.839   4.829   0.052 -0.3001 -0.2349  0.0488
26213SOL    HW283960   7.917   4.798   0.178 -0.2613 -0.3256  0.0024
26214SOL     OW83961   5.057   5.380   0.104 -0.0346 -0.3767  0.1321
26214SOL    HW183962   4.991   5.359   0.038 -0.4747  0.3475  0.3340
26214SOL    HW283963   5.140   5.360   0.061 -0.3467 -0.6077 -0.3810
26215SOL     OW83964   3.161   2.641   5.295  0.0321 -0.4674 -0.3055
26215SOL    HW183965   3.133   2.550   5.310 -0.7383  0.0422  1.6076
26215SOL    HW283966   3.124   2.663   5.209 -0.6185 -1.6278 -0.3496
26216SOL     OW83967   2.820   3.816  10.158  0.3441  0.6502 -0.2300
26216SOL    HW183968   2.765   3.894  10.165  1.0423  1.0353  1.2467
26216SOL    HW283969   2.849   3.815  10.067 -2.5844  0.0714 -1.2821
26217SOL     OW83970  11.626   9.967   9.873  0.6923  0.2032 -0.1036
26217SOL    HW183971  11.601   9.912   9.800 -2.6737  0.8396  0.4209
26217SOL    HW283972  11.682  10.035   9.834 -2.7405  1.8528 -2.7040
26218SOL     OW83973   2.650   7.581   3.767 -0.0826  0.2955  0.0625
26218SOL    HW183974   2.574   7.566   3.711 -0.9510 -0.1698  1.3189
26218SOL    HW283975   2.648   7.675   3.786  0.0234  0.3932 -0.3934
26219SOL     OW83976   9.678  10.094   7.352 -0.5291  0.3092  0.4016
26219SOL    HW183977   9.690  10.006   7.316 -0.8632  0.7742 -0.9045
26219SOL    HW283978   9.765  10.121   7.381  0.0358  0.4173 -1.2918
26220SOL     OW83979   7.717   0.433   1.645 -0.0316 -0.9875 -0.7021
26220SOL    HW183980   7.750   0.346   1.621 -0.5082 -1.2818 -0.3052
26220SOL    HW283981   7.776   0.462   1.714  0.3186 -0.8583 -1.0503
26221SOL     OW83982   6.909   8.941   1.631  0.5870 -0.1307  0.2514
26221SOL    HW183983   6.981   9.002   1.614  0.5479 -0.2355 -0.3201
26221SOL    HW283984   6.859   8.939   1.549 -0.5201  0.5312  0.8959
26222SOL     OW83985   8.270   2.220   7.520  0.4116  0.5977 -0.0412
26222SOL    HW183986   8.334   2.254   7.458 -0.0159  1.1349 -0.1865
26222SOL    HW283987   8.323   2.192   7.595  1.2469 -2.3747 -1.5600
26223SOL     OW83988   4.499   7.753   4.278 -0.2635  0.3150  0.6691
26223SOL    HW183989   4.449   7.828   4.308 -1.8577  0.0571 -1.1386
26223SOL    HW283990   4.436   7.681   4.275  0.6086 -0.4555 -0.1142
26224SOL     OW83991  10.286   7.262   4.628  0.1552  0.4484  0.1533
26224SOL    HW183992  10.237   7.301   4.555  1.5772  0.1067 -1.0505
26224SOL    HW283993  10.329   7.186   4.589  3.3370  1.9055  0.5121
26225SOL     OW83994   7.692   3.496   6.511 -0.5593 -0.2757 -0.5592
26225SOL    HW183995   7.673   3.408   6.542 -0.4188  0.0995  0.6388
26225SOL    HW283996   7.771   3.486   6.457  1.6460 -0.4390  2.4098
26226SOL     OW83997   4.314   7.427   7.806 -0.5354  0.6702  0.2705
26226SOL    HW183998   4.363   7.344   7.803 -1.0380  0.1666  3.1677
26226SOL    HW283999   4.361   7.485   7.746  1.1209 -1.0453 -0.1838
26227SOL     OW84000   1.847   4.222  11.339 -0.1248 -0.5076 -0.1731
26227SOL    HW184001   1.775   4.281  11.317 -0.0331 -0.9411 -1.7640
26227SOL    HW284002   1.926   4.270  11.315  0.0783 -0.3879  0.7092
26228SOL     OW84003   6.409   4.612   3.301  0.1415  0.2741 -0.4428
26228SOL    HW184004   6.443   4.689   3.347  1.9932  0.7796 -2.4867
26228SOL    HW284005   6.336   4.645   3.249  1.8983  1.1162 -2.5366
26229SOL     OW84006   0.247   3.748   9.948  0.3508  0.9804  0.3627
26229SOL    HW184007   0.311   3.734  10.018  1.2699 -1.7418 -0.8910
26229SOL    HW284008   0.292   3.719   9.869 -2.1347 -0.2136 -0.6958
26230SOL     OW84009   6.908   7.660   1.028 -0.3102 -0.4495  0.1276
26230SOL    HW184010   6.964   7.584   1.047 -1.7169 -1.0263  2.3381
26230SOL    HW284011   6.866   7.638   0.945  0.9525 -1.0773 -0.3685
26231SOL     OW84012   3.880   4.905   9.734  0.1738 -0.2736  0.0890
26231SOL    HW184013   3.806   4.948   9.691  0.2791  0.6642  0.8153
26231SOL    HW284014   3.847   4.879   9.820  0.6229 -0.0044  0.3507
26232SOL     OW84015   6.149   7.079   8.383 -0.3940  0.3226  0.0557
26232SOL    HW184016   6.131   7.093   8.290 -0.1686 -1.1251 -0.2357
26232SOL    HW284017   6.231   7.029   8.384  0.2465  1.3556  1.0942
26233SOL     OW84018   0.825   8.566   7.833  0.5252  0.0011 -0.3541
26233SOL    HW184019   0.860   8.572   7.744  2.6711 -0.7322  0.3710
26233SOL    HW284020   0.819   8.472   7.851 -0.5800  0.1304  0.0431
26234SOL     OW84021  10.210  11.509   8.868 -0.0492 -0.5168  0.4973
26234SOL    HW184022  10.157  11.560   8.929 -0.9557 -1.2861  0.3809
26234SOL    HW284023  10.198  11.418   8.897  1.4608 -0.6950  0.6498
26235SOL     OW84024   8.192   1.616   4.142  0.3223 -0.0956 -0.1622
26235SOL    HW184025   8.136   1.540   4.128  1.3437 -0.8061 -0.4884
26235SOL    HW284026   8.281   1.585   4.123  1.3275  0.0559  3.4917
26236SOL     OW84027   5.079   7.076   8.637  0.1616 -0.1783  0.2756
26236SOL    HW184028   4.997   7.124   8.627 -0.0632 -0.4810  0.6204
26236SOL    HW284029   5.072   7.035   8.723  0.3787 -0.7634  0.0204
26237SOL     OW84030   3.718   5.835   6.012  0.0598  0.7143 -0.4688
26237SOL    HW184031   3.664   5.847   6.090 -0.4788  1.5476 -0.9560
26237SOL    HW284032   3.656   5.815   5.942  0.5068  0.2887 -0.7531
26238SOL     OW84033   7.035   2.696   1.692 -0.5945  0.0019  0.2791
26238SOL    HW184034   6.972   2.687   1.620 -0.3764 -0.6727  0.1675
26238SOL    HW284035   7.077   2.780   1.676 -1.0333  0.1715  0.0023
26239SOL     OW84036   4.556   3.588   6.865 -0.5289 -0.0278 -0.3283
26239SOL    HW184037   4.644   3.557   6.844  1.1254  2.5076  2.1562
26239SOL    HW284038   4.540   3.658   6.803  0.0475  0.7596  0.3943
26240SOL     OW84039  10.662   2.836   5.401 -0.6061 -0.0775 -0.5067
26240SOL    HW184040  10.629   2.753   5.435 -0.0980 -0.0058  0.1934
26240SOL    HW284041  10.679   2.820   5.309 -3.4476  0.1425 -1.1644
26241SOL     OW84042   8.763   5.834   8.202 -0.3188 -0.1259 -0.0977
26241SOL    HW184043   8.728   5.745   8.202 -0.5792 -0.0249 -0.2274
26241SOL    HW284044   8.691   5.889   8.232 -0.0565  0.0030  0.2991
26242SOL     OW84045   7.764  11.743   7.385 -0.6128  0.0929  0.4072
26242SOL    HW184046   7.775  11.660   7.431 -0.1500  0.9174  1.8508
26242SOL    HW284047   7.681  11.778   7.417 -1.1268 -0.0654 -0.6717
26243SOL     OW84048   3.620   3.591  10.140 -0.2091 -0.1470 -0.6540
26243SOL    HW184049   3.658   3.679  10.129 -0.5005  0.2287  1.0384
26243SOL    HW284050   3.527   3.602  10.120 -0.4039  0.1384  0.3479
26244SOL     OW84051   7.961   9.657   0.919 -0.0750  0.5661 -0.7633
26244SOL    HW184052   7.889   9.700   0.872 -0.0992 -0.4849 -1.7457
26244SOL    HW284053   8.038   9.678   0.867  0.4692  2.2214  0.6381
26245SOL     OW84054   2.386   7.832   4.004  0.0171  0.1944 -0.0197
26245SOL    HW184055   2.339   7.771   4.060  0.6620  0.3770  0.7241
26245SOL    HW284056   2.402   7.909   4.059  0.3024  0.5415 -0.5738
26246SOL     OW84057   9.438  11.336   9.777  0.3074 -0.0738 -0.0662
26246SOL    HW184058   9.473  11.343   9.866 -0.1231  1.7494 -0.0089
26246SOL    HW284059   9.346  11.359   9.785  0.0673 -0.6746 -0.8777
26247SOL     OW84060  11.357   3.640   9.748  0.5544  0.0705  0.4659
26247SOL    HW184061  11.416   3.571   9.779 -0.1341 -1.1837 -0.9138
26247SOL    HW284062  11.416   3.706   9.711  1.2058  0.1130  1.5169
26248SOL     OW84063   7.752   9.625   1.752  0.0469 -0.0875 -0.4891
26248SOL    HW184064   7.806   9.547   1.766  0.6816  0.2307 -1.0805
26248SOL    HW284065   7.815   9.697   1.748 -0.5483  0.4892  0.2624
26249SOL     OW84066   8.138   0.806   4.641  0.1125  0.2967  0.0545
26249SOL    HW184067   8.159   0.877   4.580 -0.8510  0.6627  0.1286
26249SOL    HW284068   8.169   0.727   4.597 -1.8569  0.3635 -1.6505
26250SOL     OW84069   4.658   0.744   4.138  0.3460  0.6117 -0.6629
26250SOL    HW184070   4.627   0.674   4.195  3.0465 -1.1430 -1.1519
26250SOL    HW284071   4.654   0.823   4.192 -0.1900 -0.4193  0.8637
26251SOL     OW84072  10.055  10.493   7.385 -0.2435 -0.3525 -0.2594
26251SOL    HW184073  10.003  10.531   7.456  0.9970  0.6260  0.1610
26251SOL    HW284074  10.031  10.544   7.308  0.0599  0.0756 -0.0727
26252SOL     OW84075   6.783   6.543   4.189 -0.7763  0.2274  0.4391
26252SOL    HW184076   6.743   6.457   4.174 -0.4222 -0.4315  2.7905
26252SOL    HW284077   6.757   6.595   4.113 -0.8475 -1.9898 -1.1655
26253SOL     OW84078  11.810   2.918   7.544  0.3078 -0.1639  0.0555
26253SOL    HW184079  11.830   2.935   7.636 -1.7219  0.7067  0.3839
26253SOL    HW284080  11.721   2.952   7.531  0.6435  0.0257 -2.3117
26254SOL     OW84081   5.559   7.767   5.536 -0.3539  0.5699  0.4133
26254SOL    HW184082   5.509   7.813   5.468 -0.9751 -1.2491 -0.4198
26254SOL    HW284083   5.641   7.816   5.542 -0.9406  1.7378 -0.4683
26255SOL     OW84084   6.085   2.830   9.040 -0.0680 -0.0034 -0.3911
26255SOL    HW184085   6.021   2.901   9.030 -1.4901 -1.1558  0.1402
26255SOL    HW284086   6.164   2.874   9.074 -1.7652  1.0569  2.6401
26256SOL     OW84087   0.217   5.656   4.272 -0.0339  1.4361 -0.3043
26256SOL    HW184088   0.300   5.614   4.294 -0.0207  1.4907 -0.2495
26256SOL    HW284089   0.159   5.583   4.249  0.0642  1.4077 -0.4588
26257SOL     OW84090   9.790   6.009  10.910  0.5238  0.0295 -0.0670
26257SOL    HW184091   9.833   5.939  10.861 -0.7599  0.5078 -2.0004
26257SOL    HW284092   9.857   6.077  10.918  1.4064 -0.9054  0.7819
26258SOL     OW84093   3.238   9.669   7.686  0.1950 -0.1271 -0.0044
26258SOL    HW184094   3.230   9.578   7.715 -0.4318  0.5255  2.0957
26258SOL    HW284095   3.167   9.715   7.732  0.3803  1.4002 -1.1584
26259SOL     OW84096   4.744   5.440   6.586 -0.1675 -0.4496 -0.0725
26259SOL    HW184097   4.655   5.472   6.605 -0.7275 -0.9427 -1.6700
26259SOL    HW284098   4.770   5.394   6.665 -1.0586  0.3166  0.6916
26260SOL     OW84099   3.827   9.985   7.983 -0.2968 -0.8733  0.9526
26260SOL    HW184100   3.850   9.901   7.943 -0.8146 -0.2685 -0.7277
26260SOL    HW284101   3.858  10.050   7.920  0.1335  0.2143  2.2431
26261SOL     OW84102   8.920   1.355   1.678 -0.3190 -0.3564  0.1568
26261SOL    HW184103   8.989   1.415   1.705  0.0505 -0.2284 -0.9986
26261SOL    HW284104   8.847   1.374   1.736  1.1594 -1.7158  2.6080
26262SOL     OW84105   6.398   6.590   5.733  0.5982 -0.0006  0.0452
26262SOL    HW184106   6.400   6.540   5.815  0.3517 -3.3347 -1.8325
26262SOL    HW284107   6.308   6.620   5.726  0.2191 -1.0370  0.2742
26263SOL     OW84108   2.777  10.915   5.931 -0.4446 -0.2878 -0.0156
26263SOL    HW184109   2.771  10.889   6.023 -1.3534 -0.1309 -0.0276
26263SOL    HW284110   2.696  10.962   5.913  0.2304  0.7168 -0.5851
26264SOL     OW84111   0.950  10.078   7.413  0.8447  0.1706  0.2669
26264SOL    HW184112   0.912  10.146   7.468 -3.2162 -0.8703 -0.9319
26264SOL    HW284113   0.949  10.114   7.325 -0.5319 -1.0200 -0.2498
26265SOL     OW84114   3.280   7.637  10.927 -0.1445  0.0924  0.0711
26265SOL    HW184115   3.256   7.550  10.895 -1.2988  1.2922 -2.6386
26265SOL    HW284116   3.376   7.635  10.931 -0.1687 -1.4197  0.5096
26266SOL     OW84117   7.074  11.697   2.953  0.2417  0.2511  0.3740
26266SOL    HW184118   7.040  11.786   2.966  0.3455  0.5369 -1.1259
26266SOL    HW284119   7.016  11.642   3.005 -0.9341  1.0223 -0.0518
26267SOL     OW84120   8.449   2.490   5.672 -0.2714  0.0844 -0.1773
26267SOL    HW184121   8.440   2.583   5.650  1.9066  0.3059 -0.3789
26267SOL    HW284122   8.506   2.455   5.604 -0.0464 -1.1100  0.5943
26268SOL     OW84123   9.623   5.090   7.419 -0.4636 -0.0182  0.5972
26268SOL    HW184124   9.551   5.138   7.460  0.3757  0.1157  1.9789
26268SOL    HW284125   9.648   5.143   7.343 -2.7729 -0.8210 -0.8345
26269SOL     OW84126   2.986   1.285   4.613  0.2863  0.7351 -0.0865
26269SOL    HW184127   3.077   1.256   4.601  0.3884  1.6593 -1.9718
26269SOL    HW284128   2.961   1.319   4.527 -1.9079  0.3712  0.3632
26270SOL     OW84129  10.095   3.432   4.413  0.0721 -0.9603  0.2981
26270SOL    HW184130  10.104   3.487   4.336  0.1552  0.7452  1.4742
26270SOL    HW284131  10.182   3.433   4.454 -0.0496 -1.5873  0.5796
26271SOL     OW84132   1.316   0.126  11.263 -0.4772  0.1861 -0.0491
26271SOL    HW184133   1.385   0.185  11.233 -0.1992 -0.0842  0.0524
26271SOL    HW284134   1.294   0.157  11.351  0.7240 -0.7581  0.6233
26272SOL     OW84135   3.534   0.575   2.326  0.0444 -0.3612 -0.5911
26272SOL    HW184136   3.554   0.481   2.327 -2.7813 -1.0715  0.5638
26272SOL    HW284137   3.457   0.582   2.269 -1.1397  0.8540  1.0583
26273SOL     OW84138   3.287   6.591   8.712  0.0241 -0.3993 -0.2041
26273SOL    HW184139   3.262   6.680   8.738 -1.3160 -0.4699 -1.1454
26273SOL    HW284140   3.361   6.603   8.652  0.4532  0.0062  0.3936
26274SOL     OW84141   1.513   9.362   1.708 -0.3096  0.4755  0.2107
26274SOL    HW184142   1.484   9.369   1.617  3.2320 -0.4268 -1.1624
26274SOL    HW284143   1.546   9.273   1.716  0.6975  0.9504  1.9922
26275SOL     OW84144   0.523   1.247   1.956  0.1235  0.1514 -0.1547
26275SOL    HW184145   0.469   1.219   1.882  0.0457  0.8097 -0.3466
26275SOL    HW284146   0.599   1.289   1.917  0.0962  0.4774  0.1380
26276SOL     OW84147   4.279   9.469   5.974 -0.5150 -0.4925  0.7685
26276SOL    HW184148   4.192   9.429   5.962  0.3709 -2.2749 -0.1028
26276SOL    HW284149   4.290   9.525   5.897 -0.6308 -0.7686  0.5488
26277SOL     OW84150   4.141   6.455   1.448 -0.3526 -0.4675 -0.8379
26277SOL    HW184151   4.094   6.533   1.418  0.1032 -0.2032 -0.8875
26277SOL    HW284152   4.117   6.386   1.387 -1.1562 -0.4984 -0.5010
26278SOL     OW84153   7.342   8.573   0.235 -0.2521  0.3658 -0.2703
26278SOL    HW184154   7.264   8.577   0.290 -0.0244 -0.3634  0.1127
26278SOL    HW284155   7.401   8.512   0.280  0.5565  0.9304 -0.5373
26279SOL     OW84156   9.076   0.187   3.252  0.5331 -0.2464 -0.7553
26279SOL    HW184157   8.982   0.172   3.262  0.8377 -3.0142 -1.3374
26279SOL    HW284158   9.083   0.243   3.174 -0.7083  3.1845  1.3669
26280SOL     OW84159   2.844   8.563   5.746 -0.1893  0.0798 -0.6535
26280SOL    HW184160   2.927   8.520   5.723 -0.6544 -1.8444  0.9937
26280SOL    HW284161   2.871   8.638   5.799  0.5502 -0.2364 -0.5559
26281SOL     OW84162   3.709   1.997   7.754  0.4485  0.7414 -0.3606
26281SOL    HW184163   3.655   2.076   7.764  1.6462  1.7318 -1.3473
26281SOL    HW284164   3.665   1.947   7.684  0.1616  0.9531 -0.3330
26282SOL     OW84165   4.824   0.830   3.120 -0.6652  0.2625 -0.4070
26282SOL    HW184166   4.820   0.751   3.066  1.0072 -0.2565  0.1604
26282SOL    HW284167   4.790   0.803   3.205  1.7664 -0.4980  0.4212
26283SOL     OW84168   8.860   9.981   7.934  0.2317 -0.1116 -0.0701
26283SOL    HW184169   8.822  10.022   8.012 -1.7302 -0.1491 -0.9353
26283SOL    HW284170   8.954   9.982   7.949 -0.0906 -0.0079  2.2293
26284SOL     OW84171   6.278   7.843   1.354  0.2353  0.1354 -0.2776
26284SOL    HW184172   6.205   7.805   1.305  1.7969 -3.9651  0.1746
26284SOL    HW284173   6.352   7.840   1.293  0.6593  1.8281  0.0932
26285SOL     OW84174  11.026  10.938   5.566  0.0462  0.3967 -0.1958
26285SOL    HW184175  10.949  10.892   5.601 -0.6777 -0.6158 -2.8480
26285SOL    HW284176  11.094  10.870   5.561  0.2629  0.6247 -0.3603
26286SOL     OW84177   9.018   6.268   6.711  0.4208 -0.2821  0.1321
26286SOL    HW184178   8.966   6.187   6.715 -1.2729  0.7057 -1.0501
26286SOL    HW284179   8.958   6.334   6.678  2.3843  0.9925 -1.1044
26287SOL     OW84180   4.623   9.562   9.665 -0.4859 -0.2485  0.1182
26287SOL    HW184181   4.695   9.530   9.610 -1.3524 -2.0950 -0.0349
26287SOL    HW284182   4.617   9.498   9.736 -1.5230  0.2634  0.5124
26288SOL     OW84183   3.444   3.523   4.946  0.1912 -0.3852  0.2977
26288SOL    HW184184   3.512   3.562   4.890 -0.3312  1.6106  0.9514
26288SOL    HW284185   3.422   3.593   5.008 -2.4488 -0.9681  0.1150
26289SOL     OW84186  11.341   5.522   8.174  0.6875 -0.1628 -0.1748
26289SOL    HW184187  11.409   5.465   8.210  0.5484  0.1366  0.5690
26289SOL    HW284188  11.379   5.610   8.178 -0.4081  0.2786  1.9908
26290SOL     OW84189   3.711   3.097   6.276 -0.1987 -0.0007 -0.0323
26290SOL    HW184190   3.645   3.052   6.223  0.1079  0.5148 -0.8572
26290SOL    HW284191   3.661   3.139   6.346 -0.4078 -2.7095  1.6298
26291SOL     OW84192   7.094  10.451   4.218 -0.3697 -0.2501 -0.1905
26291SOL    HW184193   7.149  10.498   4.281  0.8920 -1.6988 -0.1437
26291SOL    HW284194   7.146  10.449   4.138 -1.9645  1.5761 -1.3552
26292SOL     OW84195   6.466   9.676   9.626 -0.5456 -0.8971  1.2126
26292SOL    HW184196   6.530   9.746   9.618 -3.0299  1.6190  1.4869
26292SOL    HW284197   6.408   9.704   9.697 -1.5223 -3.3838  1.5067
26293SOL     OW84198   4.984   9.190   8.573  0.0563 -0.2830  0.3544
26293SOL    HW184199   4.976   9.161   8.664  1.1983  0.3590  0.6886
26293SOL    HW284200   4.943   9.121   8.522 -0.3343 -0.8071  1.3409
26294SOL     OW84201   1.220   0.672   0.074  0.0394 -0.5403  0.4105
26294SOL    HW184202   1.288   0.609   0.101  0.0013 -1.8691 -2.3047
26294SOL    HW284203   1.141   0.640   0.117  0.3059 -1.5387  0.1944
26295SOL     OW84204   7.728   9.577   6.800  0.0203 -0.5327 -0.2294
26295SOL    HW184205   7.765   9.581   6.712 -1.3045  0.9563 -0.7620
26295SOL    HW284206   7.769   9.649   6.848  0.1478 -0.8439  0.1408
26296SOL     OW84207   9.334   5.114   5.547  0.0692  0.3882  0.2821
26296SOL    HW184208   9.368   5.036   5.502  0.3452  1.1431 -0.8666
26296SOL    HW284209   9.255   5.084   5.592 -0.3101 -0.3692 -0.8580
26297SOL     OW84210   7.557   0.406   5.529 -0.4737  0.4346  0.3096
26297SOL    HW184211   7.639   0.358   5.511 -1.4688 -1.1805 -0.2027
26297SOL    HW284212   7.552   0.471   5.459 -1.0550 -1.4563 -1.5324
26298SOL     OW84213  10.316   9.739  11.679  0.3991 -0.3861 -0.7472
26298SOL    HW184214  10.386   9.786  11.725 -1.2590 -0.4384  2.0566
26298SOL    HW284215  10.267   9.808  11.634 -0.3602  0.2991  1.0364
26299SOL     OW84216  11.386   9.043   8.124 -0.7478  0.0525 -0.0870
26299SOL    HW184217  11.362   9.107   8.057  0.4317 -2.0436 -2.7035
26299SOL    HW284218  11.462   9.081   8.167 -2.5426  2.2315  1.4426
26300SOL     OW84219   9.740   5.970   1.775 -0.0014  0.0837 -0.2601
26300SOL    HW184220   9.680   6.036   1.810  1.7394  2.4786 -1.5130
26300SOL    HW284221   9.709   5.955   1.685 -0.6328 -1.1683  0.1488
26301SOL     OW84222   5.113   5.107   9.753 -0.3305 -0.1370  0.1553
26301SOL    HW184223   5.163   5.116   9.834 -0.5775  0.1655  0.2750
26301SOL    HW284224   5.180   5.103   9.685 -0.1416  0.6311  0.2806
26302SOL     OW84225   6.955   3.176   5.296  0.6159 -0.1027 -0.3932
26302SOL    HW184226   7.046   3.148   5.304 -0.0279 -1.9051  1.8958
26302SOL    HW284227   6.912   3.106   5.247  0.6101  1.2490 -2.4052
26303SOL     OW84228   7.640   3.303   3.223 -0.1507  0.1429 -0.0186
26303SOL    HW184229   7.658   3.347   3.140 -1.7706  1.0877  0.0828
26303SOL    HW284230   7.717   3.322   3.277  1.3102 -1.1802 -1.5165
26304SOL     OW84231  11.002  11.587  11.105 -0.8137 -0.6444 -0.2602
26304SOL    HW184232  10.974  11.603  11.195 -0.0810 -1.1746  0.0747
26304SOL    HW284233  11.088  11.629  11.098 -0.3229 -1.6311 -0.3310
26305SOL     OW84234  10.335   3.557   8.548  0.1179  1.1324 -0.1462
26305SOL    HW184235  10.318   3.651   8.542  0.7229  1.2777  0.2936
26305SOL    HW284236  10.266   3.517   8.497 -2.4352  1.5919  2.6744
26306SOL     OW84237   7.340   2.035   1.035 -0.3045 -0.2671 -0.3465
26306SOL    HW184238   7.367   1.944   1.046 -0.7407 -0.3842 -0.2237
26306SOL    HW284239   7.388   2.082   1.103 -1.4043 -0.6777  0.7474
26307SOL     OW84240   6.779   8.650   2.845 -0.4590  0.4998 -0.5878
26307SOL    HW184241   6.692   8.616   2.865 -1.0327  2.1434 -0.1086
26307SOL    HW284242   6.803   8.700   2.923  2.1310 -2.1399  0.4677
26308SOL     OW84243   3.647   4.716   9.860  0.0439  0.3118  0.0163
26308SOL    HW184244   3.699   4.679   9.788  1.2046 -0.0794  1.0166
26308SOL    HW284245   3.693   4.688   9.939 -0.4771  1.8018  0.8879
26309SOL     OW84246   6.116   8.650   4.572 -0.4953 -0.9113 -0.2743
26309SOL    HW184247   6.023   8.642   4.589 -0.4650 -1.6696 -0.4264
26309SOL    HW284248   6.135   8.581   4.508  0.1475 -0.7031 -0.3177
26310SOL     OW84249   5.508   9.088   4.458  0.2445  0.4822 -0.0165
26310SOL    HW184250   5.415   9.107   4.475  0.0339 -0.9524  0.6050
26310SOL    HW284251   5.515   8.994   4.471  1.7728  0.5519 -0.2282
26311SOL     OW84252   9.042   2.186   0.014  0.4296  0.3401 -0.0496
26311SOL    HW184253   9.019   2.097   0.041  1.2332  0.2797  0.4783
26311SOL    HW284254   9.132   2.178  -0.019  0.4055  0.9024 -0.2534
26312SOL     OW84255   7.519   8.028   6.392 -0.8642 -0.3117 -1.0070
26312SOL    HW184256   7.601   8.014   6.344 -0.9300 -4.4219 -0.3450
26312SOL    HW284257   7.477   8.101   6.347  1.4592 -0.4627 -3.7504
26313SOL     OW84258   1.683   8.937   4.769 -0.6834  0.1191  0.2391
26313SOL    HW184259   1.750   8.869   4.757 -0.4613  0.2984  0.4583
26313SOL    HW284260   1.602   8.895   4.742 -0.5804 -0.3100  0.5858
26314SOL     OW84261   0.915   8.652   8.101  0.6638 -0.2092 -0.1043
26314SOL    HW184262   1.009   8.647   8.082  0.5708 -0.4776 -0.4992
26314SOL    HW284263   0.873   8.633   8.017  0.2424 -1.5931  0.4062
26315SOL     OW84264   2.984   9.992   1.964  0.5915 -0.3683 -0.0788
26315SOL    HW184265   2.987   9.974   1.870 -1.0082 -1.4870  0.0488
26315SOL    HW284266   2.957  10.084   1.969 -1.0977 -0.7805 -0.7485
26316SOL     OW84267   8.425   3.687   0.445  0.2685  0.3606  0.2176
26316SOL    HW184268   8.380   3.611   0.409  1.7807 -0.5227  0.1430
26316SOL    HW284269   8.355   3.751   0.460 -0.6441  0.2199 -2.8042
26317SOL     OW84270   8.004  10.171   4.637 -0.6271  0.4728  0.0661
26317SOL    HW184271   7.980  10.260   4.613 -0.4197  0.0548 -1.8487
26317SOL    HW284272   7.975  10.117   4.564  1.2082 -0.7448  0.1622
26318SOL     OW84273   7.776   8.484   4.634  0.1681 -0.4157  0.0633
26318SOL    HW184274   7.773   8.579   4.625 -1.2000 -0.3636  0.9658
26318SOL    HW284275   7.689   8.454   4.610  0.2950 -1.3641  0.7303
26319SOL     OW84276   9.638   1.227   2.793 -0.2114 -0.8943 -0.0914
26319SOL    HW184277   9.682   1.287   2.734 -1.1391 -0.4693 -0.3663
26319SOL    HW284278   9.703   1.207   2.860  0.2850 -0.0157 -0.3020
26320SOL     OW84279   3.717   3.599   8.507 -0.5464  0.7409 -0.3299
26320SOL    HW184280   3.792   3.607   8.566  0.1550 -0.1939 -1.0474
26320SOL    HW284281   3.738   3.657   8.434 -0.4142  0.3270 -0.6262
26321SOL     OW84282   1.655   1.681   6.258  0.2980 -0.3429  0.1847
26321SOL    HW184283   1.728   1.624   6.281  1.5578  1.0678 -0.1558
26321SOL    HW284284   1.696   1.764   6.233 -1.4394  0.5859  0.2495
26322SOL     OW84285   1.445  10.730   8.309  0.1273 -0.5022  0.5417
26322SOL    HW184286   1.539  10.745   8.303  0.2402 -1.2552  0.3326
26322SOL    HW284287   1.420  10.766   8.394  0.5999 -0.2986  0.5952
26323SOL     OW84288   7.528   0.361   3.278  0.8886 -0.3956 -0.6174
26323SOL    HW184289   7.467   0.293   3.247  1.7321 -2.3340  1.6492
26323SOL    HW284290   7.481   0.443   3.264 -2.4513 -1.7805  1.1915
26324SOL     OW84291   3.025   4.352   1.657 -0.3788 -0.1302 -0.8740
26324SOL    HW184292   2.944   4.344   1.606 -1.1199  0.2301  0.1924
26324SOL    HW284293   3.027   4.444   1.685  0.6125 -0.0377 -1.2043
26325SOL     OW84294   7.417   0.553   4.901  0.4896  0.2592 -0.1788
26325SOL    HW184295   7.380   0.624   4.953 -0.7061  0.9030 -1.8378
26325SOL    HW284296   7.507   0.581   4.884 -0.0342  1.5336 -1.0093
26326SOL     OW84297   4.839   2.299   9.057  0.1786 -0.6994 -0.4174
26326SOL    HW184298   4.892   2.351   9.117  0.9494 -2.0203  0.0875
26326SOL    HW284299   4.802   2.363   8.996  1.0865  0.4264  0.1779
26327SOL     OW84300   6.182   8.106   1.898 -0.2202 -0.0544  0.1602
26327SOL    HW184301   6.119   8.089   1.828 -0.0029 -2.8873  0.4969
26327SOL    HW284302   6.133   8.091   1.979  0.9272 -3.1672  0.4166
26328SOL     OW84303   1.315   2.794   5.385  0.6549 -0.5328  0.3868
26328SOL    HW184304   1.354   2.746   5.312  0.0612  0.7804 -0.8266
26328SOL    HW284305   1.373   2.869   5.400  0.5933 -0.6072  1.0599
26329SOL     OW84306   9.123   6.795   2.482 -0.2727 -0.3367 -0.4860
26329SOL    HW184307   9.208   6.828   2.512 -0.9351  0.4766  0.5573
26329SOL    HW284308   9.125   6.702   2.501 -0.0366 -0.1264  0.5977
26330SOL     OW84309  11.505  10.405   1.327 -0.0197  0.4291 -0.4556
26330SOL    HW184310  11.531  10.461   1.254  1.1833  0.5624  0.0528
26330SOL    HW284311  11.513  10.316   1.292 -0.2456  0.5148 -0.7331
26331SOL     OW84312   3.713  10.450   5.891  0.2318 -0.4812  0.2593
26331SOL    HW184313   3.794  10.407   5.865 -0.4512 -1.4206 -0.4204
26331SOL    HW284314   3.662  10.455   5.810 -0.2072  0.5090  0.5852
26332SOL     OW84315   3.901   1.679  11.004 -0.7023 -0.2123  0.0005
26332SOL    HW184316   3.844   1.740  10.958 -0.3233  0.8824  0.9259
26332SOL    HW284317   3.987   1.691  10.963 -0.1853  1.3284  1.4153
26333SOL     OW84318  10.242   7.825   0.873 -0.0125  0.0826 -0.4775
26333SOL    HW184319  10.173   7.886   0.898 -1.1571 -1.3154 -0.0867
26333SOL    HW284320  10.301   7.876   0.818 -1.1039  1.4362 -0.4397
26334SOL     OW84321   2.459   1.994   8.992  0.1484  0.2525 -0.6248
26334SOL    HW184322   2.398   2.066   8.977  0.5882  0.7892  0.0795
26334SOL    HW284323   2.444   1.968   9.083  2.7950  2.2330  0.5272
26335SOL     OW84324  11.046   1.847   9.605  0.1414  0.0425 -0.3547
26335SOL    HW184325  11.123   1.807   9.647  0.9851  1.8768 -0.0714
26335SOL    HW284326  11.071   1.853   9.512 -0.1287 -0.3675 -0.4599
26336SOL     OW84327   2.738   8.897   6.462 -0.0189 -0.4627 -0.0215
26336SOL    HW184328   2.683   8.956   6.513  0.3262  1.8323 -2.1029
26336SOL    HW284329   2.676   8.843   6.412 -0.4626  1.0658 -1.2088
26337SOL     OW84330   9.264  10.119   4.069  0.0885 -0.4198 -0.1314
26337SOL    HW184331   9.283  10.189   4.131 -0.3046  0.6536 -1.1899
26337SOL    HW284332   9.170  10.103   4.080 -0.0647  0.0651 -0.7509
26338SOL     OW84333   4.514   1.174  10.628  0.1533 -0.2199 -0.0875
26338SOL    HW184334   4.431   1.186  10.582  0.3927  0.0131 -0.4628
26338SOL    HW284335   4.531   1.080  10.623  0.0627 -0.2269 -0.2741
26339SOL     OW84336   5.666   8.515   9.723 -0.8558  0.4227 -0.0484
26339SOL    HW184337   5.610   8.451   9.767 -1.5606  0.0941 -1.3815
26339SOL    HW284338   5.677   8.481   9.634 -0.0056  1.3986 -0.3423
26340SOL     OW84339   0.433   9.338   4.831  0.2654 -0.6260  0.5187
26340SOL    HW184340   0.394   9.301   4.752  0.6476 -1.9791  0.9257
26340SOL    HW284341   0.387   9.421   4.845 -1.0088 -1.1932 -0.1586
26341SOL     OW84342   6.098   4.635   5.852 -0.0448  0.2777  0.4250
26341SOL    HW184343   6.032   4.609   5.916  0.9372  0.5912  1.5772
26341SOL    HW284344   6.056   4.706   5.802 -1.2876 -0.8140 -0.1679
26342SOL     OW84345   4.702   7.108  11.413 -0.7718  0.4036 -0.1816
26342SOL    HW184346   4.775   7.061  11.453 -1.0017  1.1887  1.2352
26342SOL    HW284347   4.629   7.045  11.415 -0.6107  0.2231  0.0977
26343SOL     OW84348   6.206   8.514  10.801  0.0387  0.0426  0.9267
26343SOL    HW184349   6.263   8.499  10.726 -1.5090 -0.6180 -0.1656
26343SOL    HW284350   6.194   8.427  10.840  0.1365  0.2499  1.4294
26344SOL     OW84351  10.898   8.702  10.797  0.2009  0.2413 -0.1364
26344SOL    HW184352  10.926   8.670  10.883 -0.8121  1.5081  0.7022
26344SOL    HW284353  10.942   8.787  10.788 -0.1949  0.4003 -0.5806
26345SOL     OW84354   2.544   9.422   3.164 -0.4056  0.1601 -0.4733
26345SOL    HW184355   2.634   9.428   3.131 -0.9133  0.1919 -1.9214
26345SOL    HW284356   2.531   9.329   3.182 -0.1214  0.1448 -0.3324
26346SOL     OW84357   7.712   0.930   1.737 -0.2805  0.8419  0.0270
26346SOL    HW184358   7.685   0.957   1.825 -1.9170 -1.4700  0.3210
26346SOL    HW284359   7.630   0.927   1.688  0.3296 -0.0755 -0.9536
26347SOL     OW84360   6.965   9.906   8.379  0.6263 -0.3894  0.5771
26347SOL    HW184361   6.958  10.001   8.379  2.6301 -0.1933  1.9171
26347SOL    HW284362   7.024   9.886   8.306 -0.8700 -0.7630 -0.5866
26348SOL     OW84363  11.571   8.451   7.820 -0.2834 -0.0393  0.3557
26348SOL    HW184364  11.663   8.436   7.798 -0.5023 -0.9512  0.0446
26348SOL    HW284365  11.560   8.413   7.907 -0.7856 -1.5621 -0.3458
26349SOL     OW84366   2.346  11.419   0.148  0.1374  0.3267 -0.3891
26349SOL    HW184367   2.339  11.324   0.141  0.4085  0.3908 -1.7122
26349SOL    HW284368   2.435  11.433   0.180  0.3350  0.1645 -0.8682
26350SOL     OW84369   3.048   7.063   1.361 -0.3780  0.1816  0.1212
26350SOL    HW184370   2.963   7.092   1.330 -0.0330  0.3771 -0.6694
26350SOL    HW284371   3.057   7.102   1.448 -0.5582  1.2304 -0.3105
26351SOL     OW84372   7.306  10.653   5.433  0.2699 -0.3410  0.0160
26351SOL    HW184373   7.287  10.670   5.525  0.8635 -1.5349  0.3814
26351SOL    HW284374   7.393  10.692   5.419  0.1289 -0.0574 -0.0708
26352SOL     OW84375   2.885   4.657   9.327 -0.1828 -0.1920 -0.1130
26352SOL    HW184376   2.872   4.738   9.278 -1.4136  0.7283  1.6173
26352SOL    HW284377   2.824   4.595   9.288 -0.3771  0.1999 -0.4326
26353SOL     OW84378   0.869   4.307   1.254  0.0304  0.1274 -0.4353
26353SOL    HW184379   0.844   4.350   1.173 -0.9035  1.0139  0.3083
26353SOL    HW284380   0.900   4.377   1.311 -0.2621 -0.3540  0.3311
26354SOL     OW84381   8.555   0.364   1.199 -0.7683  0.2847 -0.1020
26354SOL    HW184382   8.505   0.437   1.161 -0.6859  0.9298  0.9891
26354SOL    HW284383   8.611   0.404   1.264  0.0501 -0.6429 -0.2055
26355SOL     OW84384   0.983   5.457   2.382  0.3663  0.3283 -0.0419
26355SOL    HW184385   1.004   5.543   2.345  0.0666  0.1310 -0.6826
26355SOL    HW284386   0.996   5.396   2.310  1.4886 -0.2990  0.6577
26356SOL     OW84387   2.627   4.332   9.411 -0.1709 -0.2525  0.5526
26356SOL    HW184388   2.633   4.309   9.318 -0.5332  1.0219  0.1983
26356SOL    HW284389   2.542   4.299   9.439 -0.0999 -0.5549  0.4194
26357SOL     OW84390   9.283   4.085   1.866 -0.6371  0.2316 -0.4575
26357SOL    HW184391   9.299   3.995   1.839 -0.4833 -0.0950  0.6544
26357SOL    HW284392   9.243   4.077   1.953 -1.2052  1.2177 -0.6199
26358SOL     OW84393  10.013  11.004   7.015 -0.5410  0.3923  0.3538
26358SOL    HW184394  10.072  11.009   6.940  1.0474  1.0570  1.5652
26358SOL    HW284395   9.925  11.003   6.978  0.1310  2.3825 -1.4532
26359SOL     OW84396   7.665   6.005   5.331 -0.4418  0.0010 -0.4296
26359SOL    HW184397   7.639   5.913   5.325 -1.3632  0.1780  0.5309
26359SOL    HW284398   7.635   6.044   5.249 -1.8506 -0.1383 -0.0011
26360SOL     OW84399   8.421   2.238   6.879  0.3735 -0.3932  0.3974
26360SOL    HW184400   8.364   2.248   6.955 -2.0724 -0.0109 -1.3928
26360SOL    HW284401   8.366   2.260   6.804  2.3604 -1.7967 -1.6019
26361SOL     OW84402   2.406   9.710   5.721  0.3126 -0.5417 -0.4026
26361SOL    HW184403   2.490   9.673   5.693  1.2064  0.2655  1.0637
26361SOL    HW284404   2.430   9.782   5.780 -1.3882 -1.7028  1.8952
26362SOL     OW84405   5.004  11.824   9.746 -0.0091 -0.2674 -0.2086
26362SOL    HW184406   4.957  11.881   9.807 -1.0872 -2.0691  0.7716
26362SOL    HW284407   4.979  11.855   9.659 -2.0499 -0.3355  0.2886
26363SOL     OW84408   1.758   0.907  11.113 -0.1974 -0.1214 -0.4663
26363SOL    HW184409   1.710   0.828  11.133  0.1093 -0.4123 -0.8653
26363SOL    HW284410   1.820   0.881  11.045 -0.4040  0.5637 -0.9274
26364SOL     OW84411  11.634   6.601   9.570 -0.7475  0.8841 -0.4734
26364SOL    HW184412  11.611   6.571   9.482  0.4093 -0.8103 -0.2461
26364SOL    HW284413  11.623   6.523   9.625  1.3104  1.1293  0.3562
26365SOL     OW84414  11.288   7.663   7.110 -0.0187  0.1705 -0.0584
26365SOL    HW184415  11.342   7.687   7.185  1.6600  2.5286 -1.9111
26365SOL    HW284416  11.288   7.567   7.111  1.6838  0.1296  1.7116
26366SOL     OW84417   9.853   6.406  11.239 -0.1336  0.3846  0.4161
26366SOL    HW184418   9.767   6.364  11.250  0.1845 -0.8663 -1.4093
26366SOL    HW284419   9.893   6.359  11.166  2.5357  0.2974  1.8149
26367SOL     OW84420   1.646   1.502   9.449  0.3328  0.4380 -0.1524
26367SOL    HW184421   1.699   1.566   9.401  3.3016  0.0377  2.2811
26367SOL    HW284422   1.687   1.418   9.429  0.1706  0.0141  1.1873
26368SOL     OW84423   8.264   3.132   4.009  0.8685 -0.6723 -0.6127
26368SOL    HW184424   8.192   3.110   4.067  1.0511 -1.8954 -0.8361
26368SOL    HW284425   8.342   3.125   4.063  0.9428 -0.7127 -0.7246
26369SOL     OW84426  10.997   8.723   1.221  0.8015 -0.0174 -0.2111
26369SOL    HW184427  11.031   8.808   1.248 -0.4456 -0.0215  1.5782
26369SOL    HW284428  10.970   8.681   1.303 -0.0970 -1.4661 -1.1965
26370SOL     OW84429  11.386   6.756   6.617  0.1476  0.0451  0.1925
26370SOL    HW184430  11.412   6.819   6.684  0.8290  0.0182 -0.0368
26370SOL    HW284431  11.356   6.810   6.544  0.6275  0.1093  0.0380
26371SOL     OW84432  10.044   1.156   7.425  0.7867 -0.3283 -0.0050
26371SOL    HW184433  10.037   1.075   7.374  0.4739  0.7864 -1.8237
26371SOL    HW284434   9.964   1.204   7.404  0.7926  0.3029  1.3458
26372SOL     OW84435   6.358  11.215   1.391  0.0238  0.2579 -0.4324
26372SOL    HW184436   6.367  11.120   1.392  0.0569  0.2604 -0.4843
26372SOL    HW284437   6.447  11.247   1.376  0.0569  0.3042 -0.1351
26373SOL     OW84438   2.556   2.775   8.578 -0.1556  0.2221 -0.4951
26373SOL    HW184439   2.530   2.867   8.580  1.8353  0.8289 -0.1955
26373SOL    HW284440   2.645   2.776   8.543  0.0032 -1.5694 -0.2244
26374SOL     OW84441   9.585   4.081   0.456 -0.0007 -0.0713 -0.4945
26374SOL    HW184442   9.601   4.044   0.369  2.0825 -1.5737  0.4333
26374SOL    HW284443   9.517   4.026   0.494  0.2819 -0.4818 -0.5790
26375SOL     OW84444   6.652   2.455   8.710  0.0108 -0.3388 -0.0798
26375SOL    HW184445   6.662   2.360   8.722 -1.2795 -0.6115 -0.9179
26375SOL    HW284446   6.695   2.493   8.786  0.8618 -1.5811  0.0997
26376SOL     OW84447   6.654   4.085   5.349 -1.2401 -0.2219  0.1060
26376SOL    HW184448   6.728   4.025   5.361  0.9869  2.2511 -0.3201
26376SOL    HW284449   6.621   4.101   5.438 -0.7368 -0.7583  0.3930
26377SOL     OW84450   7.367   8.786   5.337 -0.0250  0.9971 -0.3972
26377SOL    HW184451   7.355   8.743   5.422  0.8504  0.2118 -0.6552
26377SOL    HW284452   7.324   8.727   5.275  1.5555  0.2310 -0.8114
26378SOL     OW84453   6.069   9.411  11.328  1.2006  0.3206 -0.6568
26378SOL    HW184454   6.053   9.497  11.288  1.4814 -0.1941 -1.9484
26378SOL    HW284455   6.106   9.430  11.414  0.5838  1.4917 -0.6369
26379SOL     OW84456  11.817  11.642   4.268 -0.9539  0.5368 -0.4340
26379SOL    HW184457  11.843  11.733   4.250 -0.1123  0.3305 -0.3212
26379SOL    HW284458  11.884  11.589   4.226 -0.4240  0.0013  1.0147
26380SOL     OW84459   8.799   2.637   9.571 -0.0938 -0.3442 -0.2863
26380SOL    HW184460   8.886   2.636   9.611 -0.2251 -0.6510 -0.0128
26380SOL    HW284461   8.774   2.730   9.570 -0.9222 -0.4667  2.1492
26381SOL     OW84462   1.870   0.517   2.152 -0.2002 -0.3511 -0.6659
26381SOL    HW184463   1.905   0.556   2.231  2.2062  1.1528 -2.3533
26381SOL    HW284464   1.780   0.549   2.147  0.3037  1.3234  0.3471
26382SOL     OW84465  11.009   7.397   6.020 -0.2634 -0.0825  0.2735
26382SOL    HW184466  10.928   7.415   5.973 -0.3141 -0.6426  0.1392
26382SOL    HW284467  11.034   7.481   6.059 -0.4245  0.3005 -0.4302
26383SOL     OW84468   6.792   0.495   3.821  0.1794  0.5163 -0.3015
26383SOL    HW184469   6.887   0.482   3.822  0.1815  0.5433  0.0010
26383SOL    HW284470   6.761   0.435   3.753  0.5919  1.7881 -1.6588
26384SOL     OW84471   6.528   9.655   0.886  0.2578 -0.5570  0.5182
26384SOL    HW184472   6.464   9.707   0.935  1.4055  0.0290  1.4494
26384SOL    HW284473   6.577   9.720   0.835 -0.0898 -1.0323 -0.4536
26385SOL     OW84474   6.536   5.440   2.441 -0.7852  0.2929  0.2122
26385SOL    HW184475   6.530   5.511   2.505 -0.3238 -0.5401  1.1971
26385SOL    HW284476   6.453   5.444   2.393 -1.6036  0.2521  1.5897
26386SOL     OW84477   2.681  11.209   3.650  0.3099 -0.4661 -0.5198
26386SOL    HW184478   2.716  11.123   3.672 -1.0131 -0.7446  0.6469
26386SOL    HW284479   2.636  11.238   3.730  0.3092  1.0978 -1.0457
26387SOL     OW84480   7.553   5.820   7.310 -0.3575  0.5230 -0.6880
26387SOL    HW184481   7.533   5.888   7.246 -0.0500 -0.8721 -2.3434
26387SOL    HW284482   7.624   5.769   7.270 -1.4658 -1.5689 -0.1584
26388SOL     OW84483   3.802   0.205   8.918  0.0987  0.0381  0.4557
26388SOL    HW184484   3.864   0.199   8.845  0.2696  2.7919  0.2728
26388SOL    HW284485   3.857   0.215   8.995 -0.1036  0.0171  0.6024
26389SOL     OW84486   0.767   8.410   0.971 -0.3111  0.1143  0.7631
26389SOL    HW184487   0.771   8.464   1.050  0.7661  1.3709 -0.1137
26389SOL    HW284488   0.841   8.440   0.918 -0.0822 -1.7808 -0.0518
26390SOL     OW84489  10.025   0.182   0.341 -0.4066 -0.1477  0.0093
26390SOL    HW184490  10.002   0.267   0.305 -0.9441  1.1735  3.1138
26390SOL    HW284491   9.942   0.133   0.344 -0.9634  0.8061  1.8738
26391SOL     OW84492   0.877  11.580   9.190  0.2450  0.4406 -0.1782
26391SOL    HW184493   0.815  11.648   9.216  0.0754 -0.1773  1.1327
26391SOL    HW284494   0.960  11.606   9.230  0.5122  0.5599 -0.7948
26392SOL     OW84495   8.112   3.222   5.427 -0.7425  0.7183 -0.2357
26392SOL    HW184496   8.202   3.222   5.396 -0.3667  2.7565  0.6459
26392SOL    HW284497   8.119   3.208   5.521 -1.4424 -0.0815 -0.2913
26393SOL     OW84498   0.390   3.063   4.149  0.3941 -0.0474 -0.4533
26393SOL    HW184499   0.313   3.111   4.179 -1.5542 -1.6543 -2.5297
26393SOL    HW284500   0.377   2.974   4.182  1.0183 -0.4849 -1.3569
26394SOL     OW84501   6.479   1.458   0.143  0.3961 -0.2935 -0.2836
26394SOL    HW184502   6.527   1.383   0.109 -0.1457 -0.6478 -0.2884
26394SOL    HW284503   6.448   1.429   0.229 -0.2110 -0.2545 -0.4824
26395SOL     OW84504  10.717   7.187   8.489  0.2017 -0.0141  0.1176
26395SOL    HW184505  10.680   7.198   8.402  2.5781 -0.0245 -0.9645
26395SOL    HW284506  10.787   7.123   8.478  0.3907 -0.2349  2.1001
26396SOL     OW84507   7.819   7.998   0.803  0.5320 -0.2898 -0.3364
26396SOL    HW184508   7.754   7.962   0.742  2.0097  0.2284 -2.2751
26396SOL    HW284509   7.893   7.937   0.798  0.5665 -0.4170  1.2155
26397SOL     OW84510  11.398   7.728   9.309 -0.3941 -0.2909 -0.5935
26397SOL    HW184511  11.351   7.646   9.323  1.7925 -1.3836  0.8987
26397SOL    HW284512  11.469   7.704   9.248 -0.4991  0.8289 -1.1883
26398SOL     OW84513   2.008   9.682  10.188 -0.3985  0.1924  0.1202
26398SOL    HW184514   2.079   9.619  10.199  0.0083  0.6174 -0.0447
26398SOL    HW284515   1.931   9.639  10.225  0.0938  0.0129  0.9386
26399SOL     OW84516   5.544   6.902   8.060  0.2593 -0.6445  0.0672
26399SOL    HW184517   5.501   6.898   8.145  0.3587  0.0682  0.1580
26399SOL    HW284518   5.489   6.847   8.003 -1.0945  0.6529  0.0582
26400SOL     OW84519   6.913   6.849  10.875 -0.5526  0.4614 -0.5654
26400SOL    HW184520   6.926   6.846  10.780 -1.8496  2.2508 -0.8603
26400SOL    HW284521   6.974   6.915  10.906 -1.7322  1.5794 -0.5311
26401SOL     OW84522   1.741   5.186   0.269 -0.0417 -0.5225  0.3727
26401SOL    HW184523   1.657   5.155   0.234 -0.4039 -0.6084  1.2906
26401SOL    HW284524   1.761   5.125   0.340  0.1593  0.2747  1.0053
26402SOL     OW84525   7.660   2.058   1.200 -0.2552  0.4768 -0.1879
26402SOL    HW184526   7.643   1.965   1.218 -0.3634  0.7656  1.2949
26402SOL    HW284527   7.752   2.060   1.172  0.0954  0.0412  0.8801
26403SOL     OW84528   4.519   7.334   4.639 -0.4208 -0.4481 -0.9344
26403SOL    HW184529   4.509   7.270   4.709 -0.1277 -0.5296 -0.9673
26403SOL    HW284530   4.525   7.418   4.685  1.0730 -0.6183 -0.7778
26404SOL     OW84531   6.563   3.593   2.105 -0.4817 -0.5676 -0.0796
26404SOL    HW184532   6.557   3.676   2.153  0.5134 -1.5272  1.8259
26404SOL    HW284533   6.488   3.542   2.135  0.7876 -1.6182  1.4323
26405SOL     OW84534   0.871   5.742  10.197 -0.1629 -0.5401  0.0192
26405SOL    HW184535   0.878   5.721  10.104 -1.0931  2.1438 -0.7742
26405SOL    HW284536   0.940   5.806  10.213 -1.4252  0.7586  0.5463
26406SOL     OW84537   2.301  11.178   9.599 -0.4043  0.2618  0.4510
26406SOL    HW184538   2.325  11.271   9.602 -1.0731  0.5452 -1.5069
26406SOL    HW284539   2.376  11.135   9.558 -0.5512  0.1208  0.3289
26407SOL     OW84540   2.757   8.671   2.576 -0.4661  0.6802 -0.3481
26407SOL    HW184541   2.834   8.700   2.624 -0.9735 -0.4019  1.1851
26407SOL    HW284542   2.773   8.698   2.485  1.6319  0.6050 -0.0321
26408SOL     OW84543   4.640   0.233   7.018  0.1652  0.4812 -0.2929
26408SOL    HW184544   4.586   0.166   7.060 -0.8225  1.0744 -0.5712
26408SOL    HW284545   4.611   0.315   7.058  0.7404  0.8311 -0.5865
26409SOL     OW84546   3.487   6.444   8.247 -0.2058 -0.2982 -0.1974
26409SOL    HW184547   3.512   6.515   8.307 -1.6130 -1.2914  1.6926
26409SOL    HW284548   3.532   6.464   8.165 -0.9582  3.0352  0.0942
26410SOL     OW84549   9.108   5.615   8.864  0.2165  0.0478  0.1494
26410SOL    HW184550   9.015   5.592   8.860 -0.1231  1.1613  1.0673
26410SOL    HW284551   9.144   5.584   8.781 -1.2748  0.8618 -0.8490
26411SOL     OW84552   5.791  10.074   1.446  0.4821  0.3475  0.4236
26411SOL    HW184553   5.832  10.151   1.487 -0.8499  0.7479  1.0444
26411SOL    HW284554   5.783  10.097   1.354 -0.3564  1.1707  0.6889
26412SOL     OW84555  11.135   4.069   9.699 -0.1314 -0.2420  0.5111
26412SOL    HW184556  11.195   4.087   9.627  0.9427 -2.4160  0.7918
26412SOL    HW284557  11.101   4.155   9.723 -0.5784  0.5682 -2.5721
26413SOL     OW84558   0.345   8.048   4.454  0.2588 -0.0230  0.6651
26413SOL    HW184559   0.316   8.108   4.385  0.3704 -0.7469 -0.0337
26413SOL    HW284560   0.408   8.098   4.505  2.1240 -0.2158 -1.2987
26414SOL     OW84561   7.543   5.717   5.276  0.0963  0.0303 -0.1661
26414SOL    HW184562   7.590   5.634   5.272  0.1998  0.1245 -1.2143
26414SOL    HW284563   7.487   5.717   5.198 -0.1726  0.7859  0.0141
26415SOL     OW84564  11.227  11.171   5.159 -0.4009 -0.4558 -0.3188
26415SOL    HW184565  11.170  11.096   5.173 -1.7299  0.5311 -0.1946
26415SOL    HW284566  11.297  11.162   5.223  0.1884 -2.2498 -1.1685
26416SOL     OW84567   6.460   8.896   4.649  0.0133 -0.0153  0.0218
26416SOL    HW184568   6.541   8.934   4.615  1.2298 -1.0867  1.5337
26416SOL    HW284569   6.481   8.803   4.661 -0.9157 -0.0322  1.8684
26417SOL     OW84570   5.599   3.844  11.012  0.5885 -0.1874  0.2258
26417SOL    HW184571   5.536   3.916  11.007  0.0465 -0.6815 -0.1734
26417SOL    HW284572   5.681   3.882  10.982 -0.3112 -0.4166 -2.8074
26418SOL     OW84573   4.065   4.126  10.599 -0.0745 -0.0148  0.3693
26418SOL    HW184574   4.087   4.045  10.644  0.1321  0.5711  1.3343
26418SOL    HW284575   3.970   4.121  10.586 -0.3051  0.2540  1.7947
26419SOL     OW84576   9.184   6.038   8.319 -0.2613 -0.0599 -0.2083
26419SOL    HW184577   9.108   5.979   8.317 -0.6834  0.4415  0.5191
26419SOL    HW284578   9.149   6.120   8.353  0.7825 -0.0864  1.0033
26420SOL     OW84579  10.174   1.451   9.784 -0.3380  0.1755 -0.1151
26420SOL    HW184580  10.255   1.439   9.834 -0.4640  0.4051  0.1464
26420SOL    HW284581  10.144   1.539   9.808 -0.8567 -0.0501  0.0683
26421SOL     OW84582   0.831   4.024   4.292  0.4371 -0.0168  0.6514
26421SOL    HW184583   0.815   3.962   4.364  0.1854 -0.0555  0.5642
26421SOL    HW284584   0.878   4.096   4.332 -0.0933  0.1701  0.9500
26422SOL     OW84585   8.983  10.157   8.962  0.9876  0.3289 -0.2985
26422SOL    HW184586   8.887  10.159   8.965  1.0205  1.8453  2.1956
26422SOL    HW284587   9.006  10.219   8.892  0.1745  0.4852 -0.4384
26423SOL     OW84588   7.453   0.602   6.271 -0.6069  0.3427 -0.1482
26423SOL    HW184589   7.507   0.574   6.197 -1.2807  2.1012 -1.3570
26423SOL    HW284590   7.368   0.560   6.256 -1.0567  1.5063 -0.9625
26424SOL     OW84591   0.757   1.049   4.029  0.2248  0.0767  0.0204
26424SOL    HW184592   0.734   1.106   4.102 -1.2422  0.1098 -0.4447
26424SOL    HW284593   0.800   0.974   4.070  1.1427  0.9580  0.7306
26425SOL     OW84594   8.564   8.875  11.459 -0.7026 -0.6701 -0.2268
26425SOL    HW184595   8.564   8.915  11.546 -2.2089 -0.6433 -0.1994
26425SOL    HW284596   8.627   8.927  11.409 -1.4720  0.8032  0.2449
26426SOL     OW84597   1.630   7.628  10.954 -0.3171  0.1448  0.5421
26426SOL    HW184598   1.633   7.675  10.871 -3.5304 -0.1287  0.1583
26426SOL    HW284599   1.708   7.658  11.001  0.5417  1.8124 -1.7582
26427SOL     OW84600   3.656   1.244   3.921  0.2590 -0.0565 -0.5405
26427SOL    HW184601   3.605   1.323   3.906  1.3812  0.5430 -1.3409
26427SOL    HW284602   3.707   1.263   4.000 -0.8912 -0.7419  0.3918
26428SOL     OW84603   3.582   0.400   0.089 -0.1635 -0.2444  0.1816
26428SOL    HW184604   3.597   0.378  -0.003  2.4443  2.9840 -0.3455
26428SOL    HW284605   3.504   0.455   0.089  0.7072  1.0343 -0.4030
26429SOL     OW84606   6.832   7.281   4.307  0.2393 -0.2477 -0.1438
26429SOL    HW184607   6.927   7.284   4.293  0.1247  2.0737 -0.8693
26429SOL    HW284608   6.795   7.285   4.218 -0.5830 -2.5313  0.0396
26430SOL     OW84609   1.358   2.729   1.704 -0.4634 -0.0038 -0.5425
26430SOL    HW184610   1.388   2.689   1.623  0.7695 -0.4689  0.1208
26430SOL    HW284611   1.333   2.655   1.759  0.0329  0.2337  0.0076
26431SOL     OW84612   9.653   6.811   8.120  0.0962 -0.4950 -0.1387
26431SOL    HW184613   9.745   6.811   8.096 -0.0008  1.5643 -0.7280
26431SOL    HW284614   9.645   6.883   8.184 -1.0786 -0.6636 -0.0644
26432SOL     OW84615   0.060   5.882   9.866 -0.0986 -0.1949  0.7611
26432SOL    HW184616   0.135   5.863   9.810 -0.3380  1.4789 -0.1969
26432SOL    HW284617   0.078   5.836   9.947  0.7507 -1.8750 -0.3184
26433SOL     OW84618   3.304   5.119   3.032  0.0852  0.1560 -0.3604
26433SOL    HW184619   3.231   5.102   2.972  0.6222 -2.5497 -0.3988
26433SOL    HW284620   3.290   5.058   3.104  1.9179  0.0798 -0.0227
26434SOL     OW84621   7.837   7.205   8.307  0.2019 -0.4770  0.5316
26434SOL    HW184622   7.765   7.218   8.245  0.1753 -3.0820 -0.0976
26434SOL    HW284623   7.912   7.181   8.252  1.3792  1.3337  1.2427
26435SOL     OW84624   0.505   6.554   8.513 -0.4659 -0.0867  0.3152
26435SOL    HW184625   0.571   6.523   8.575 -0.8609  1.2568  1.4640
26435SOL    HW284626   0.447   6.478   8.501  0.2352 -0.7034  0.7229
26436SOL     OW84627  11.466  10.756   0.840 -0.3554  0.2546 -0.7307
26436SOL    HW184628  11.542  10.723   0.793 -0.6325 -0.0348 -0.9700
26436SOL    HW284629  11.391  10.723   0.792 -0.6605  1.9597 -1.5288
26437SOL     OW84630   8.159   0.108   0.230  0.5567  0.2324  0.0876
26437SOL    HW184631   8.155   0.190   0.182 -0.4835 -0.9080 -1.8993
26437SOL    HW284632   8.071   0.095   0.265  0.1759 -0.8904 -1.2017
26438SOL     OW84633   0.056   6.792   5.807  0.2363  0.5163  0.3378
26438SOL    HW184634   0.111   6.870   5.822 -1.2707  1.8745 -0.8404
26438SOL    HW284635  -0.020   6.806   5.864  0.2997 -0.5164  0.6939
26439SOL     OW84636   2.961   9.999   9.512  0.0732  0.1809 -0.2336
26439SOL    HW184637   2.910  10.056   9.454  1.5104  0.6450 -1.0983
26439SOL    HW284638   2.976  10.052   9.590  1.0957  0.9153 -0.8882
26440SOL     OW84639  11.005   4.252   0.572  0.2676 -0.3951 -0.6113
26440SOL    HW184640  10.953   4.330   0.588  0.5693 -0.2618 -0.2621
26440SOL    HW284641  11.004   4.241   0.477 -0.0772 -0.1779 -0.6337
26441SOL     OW84642   7.592   8.241  10.364  0.1189  0.5341 -0.4407
26441SOL    HW184643   7.533   8.248  10.289  0.3235 -2.2512 -0.9853
26441SOL    HW284644   7.677   8.268  10.330 -0.0647  0.6435 -0.8191
26442SOL     OW84645   8.788   2.622   1.814 -0.0079  0.0798  0.0789
26442SOL    HW184646   8.857   2.606   1.749  0.5168  0.5612  0.5068
26442SOL    HW284647   8.831   2.672   1.883 -1.2070  2.0469 -0.5044
26443SOL     OW84648   1.621   2.185   3.390 -0.1185  1.1161 -0.4586
26443SOL    HW184649   1.567   2.204   3.467  2.0913  2.2826  0.8827
26443SOL    HW284650   1.684   2.120   3.420  0.2624  0.9616 -1.5515
26444SOL     OW84651   3.011   4.190   3.025  0.5594 -0.0606 -0.8480
26444SOL    HW184652   2.938   4.179   3.085  1.4292  0.9308  0.4321
26444SOL    HW284653   3.010   4.111   2.971  1.0856 -2.1137  1.9135
26445SOL     OW84654   8.861   4.249   9.555 -0.0593 -0.2300 -0.1174
26445SOL    HW184655   8.817   4.196   9.622 -1.0212 -0.9665 -1.2837
26445SOL    HW284656   8.838   4.339   9.578 -0.1767 -0.4455  0.6647
26446SOL     OW84657   6.525   3.158  11.167  0.1076 -0.1437 -0.3541
26446SOL    HW184658   6.475   3.078  11.182  0.1611 -0.0253  0.4813
26446SOL    HW284659   6.573   3.173  11.248  1.9736 -0.5750 -1.3260
26447SOL     OW84660   0.989  10.738   1.614  0.8922  0.0142 -0.1601
26447SOL    HW184661   0.976  10.643   1.615  0.5744  0.0090 -1.8762
26447SOL    HW284662   0.916  10.773   1.666  0.1432 -0.6166 -0.7571
26448SOL     OW84663   3.276   2.164   4.237  0.2495  0.6692  0.4769
26448SOL    HW184664   3.248   2.101   4.303  0.4127 -2.2467 -2.0223
26448SOL    HW284665   3.367   2.141   4.219  0.3809  1.7615 -0.4006
26449SOL     OW84666   8.248   8.425  10.733  0.3323  0.0312  0.1086
26449SOL    HW184667   8.263   8.433  10.639 -2.4285  1.2128 -0.3135
26449SOL    HW284668   8.299   8.498  10.771 -0.5401  1.1294 -0.7609
26450SOL     OW84669   3.320   5.593   1.577  0.1472  0.1121  0.3917
26450SOL    HW184670   3.350   5.610   1.488  0.2596 -2.0905 -0.0376
26450SOL    HW284671   3.395   5.616   1.633  1.8754 -2.9142 -0.4789
26451SOL     OW84672   0.990   4.336   4.837 -0.1138  0.0705  0.3374
26451SOL    HW184673   1.047   4.412   4.852 -1.8822  1.1703  2.0190
26451SOL    HW284674   0.976   4.299   4.924  0.9158 -2.4033 -0.4919
26452SOL     OW84675   7.836   7.715   6.412 -0.1305 -0.4518 -0.1083
26452SOL    HW184676   7.838   7.804   6.377  0.2317 -0.7052 -0.7535
26452SOL    HW284677   7.918   7.707   6.460 -1.3902  0.4950  2.4054
26453SOL     OW84678  10.606   7.342   7.933 -0.5585  0.4693 -0.0718
26453SOL    HW184679  10.612   7.278   8.003  0.3402  1.8363  1.1541
26453SOL    HW284680  10.512   7.351   7.917 -0.7077 -1.0112 -0.1808
26454SOL     OW84681   4.198   9.595   5.331  0.1439 -0.6249  0.5169
26454SOL    HW184682   4.128   9.581   5.267  0.0761 -0.2405  0.5058
26454SOL    HW284683   4.279   9.593   5.280  0.1690 -1.3858  0.5733
26455SOL     OW84684   5.726   2.114   0.927  0.0237 -0.6073 -0.4019
26455SOL    HW184685   5.794   2.154   0.873  0.9065  1.3193  1.9627
26455SOL    HW284686   5.773   2.077   1.002 -1.4826  3.0098  2.6456
26456SOL     OW84687   4.125   4.375   9.831  0.4331  0.4470 -0.0722
26456SOL    HW184688   4.110   4.371   9.926 -1.7814  0.2069 -0.3905
26456SOL    HW284689   4.103   4.464   9.807  0.5122  0.3648 -0.4495
26457SOL     OW84690   3.794   1.619  10.054 -0.2117  0.5492 -0.9003
26457SOL    HW184691   3.858   1.555  10.086 -1.3656  1.2716  3.5750
26457SOL    HW284692   3.768   1.586   9.968  2.7120 -2.2646 -0.9146
26458SOL     OW84693   2.083   0.854   5.090  0.1121  0.4160  0.4744
26458SOL    HW184694   2.177   0.840   5.081 -0.0092  1.0647 -3.3680
26458SOL    HW284695   2.074   0.949   5.100 -0.1483  0.5189 -0.6125
26459SOL     OW84696   6.149   3.099   4.709  0.0197  0.2528  0.7708
26459SOL    HW184697   6.143   3.119   4.803  0.4429  0.8662  0.6783
26459SOL    HW284698   6.152   3.185   4.667  0.4021 -0.0173  0.2365
26460SOL     OW84699   0.578   9.265   6.645  0.2373  0.5044 -0.0421
26460SOL    HW184700   0.540   9.244   6.559  0.0187 -0.2145  0.2168
26460SOL    HW284701   0.665   9.224   6.643 -0.1138 -0.2873  0.3980
26461SOL     OW84702   7.043   6.902   3.551  0.4864  0.1303 -0.4020
26461SOL    HW184703   6.974   6.922   3.614  0.3782  0.5758 -0.6586
26461SOL    HW284704   7.076   6.817   3.578  0.1896  0.1518  0.0353
26462SOL     OW84705  10.687   9.666   0.316  0.2637  0.3617 -0.8575
26462SOL    HW184706  10.659   9.609   0.388  0.1727  0.3923 -0.8685
26462SOL    HW284707  10.606   9.704   0.282  0.4609  2.5998  0.8812
26463SOL     OW84708   5.318   0.698   6.873  0.0317 -0.6034  0.6251
26463SOL    HW184709   5.322   0.665   6.783  0.6876 -3.0092  1.4445
26463SOL    HW284710   5.374   0.638   6.922 -0.8189  0.2757  2.7580
26464SOL     OW84711   9.974   7.778   9.755  0.2063  0.1389 -0.1574
26464SOL    HW184712  10.051   7.772   9.698 -0.3714 -0.0774 -0.9184
26464SOL    HW284713   9.996   7.849   9.816  0.6852  0.6286 -0.8779
26465SOL     OW84714  10.674   4.185   7.633  0.1064  0.2261  0.0180
26465SOL    HW184715  10.709   4.237   7.561 -0.6071  0.5573 -0.0979
26465SOL    HW284716  10.580   4.204   7.633 -0.4826 -2.2032 -1.0212
26466SOL     OW84717   5.191   0.381   6.316 -0.3042 -0.3759 -0.3592
26466SOL    HW184718   5.179   0.453   6.378 -0.2776 -0.0205 -0.7681
26466SOL    HW284719   5.212   0.306   6.372 -1.4375 -0.3341  0.1461
26467SOL     OW84720   3.410   8.793   1.683  0.4394 -0.2997 -0.0252
26467SOL    HW184721   3.399   8.843   1.765 -0.5718 -0.3906 -0.0951
26467SOL    HW284722   3.410   8.859   1.615 -1.7994 -0.3921 -0.1991
26468SOL     OW84723   1.674   1.091   4.789  0.1813 -0.5204  0.1494
26468SOL    HW184724   1.641   1.168   4.744  0.0347 -0.6564  0.0256
26468SOL    HW284725   1.670   1.114   4.882  2.9940  0.8104  0.0400
26469SOL     OW84726   6.248   2.560   9.565  0.3259 -0.0499  0.0832
26469SOL    HW184727   6.321   2.513   9.604  1.4736 -0.2986 -2.1752
26469SOL    HW284728   6.176   2.497   9.563  0.7717 -0.5721  0.2365
26470SOL     OW84729   6.869   0.183   1.489  0.3335  0.3039 -0.9586
26470SOL    HW184730   6.796   0.211   1.543  0.4979 -2.3783  0.9013
26470SOL    HW284731   6.831   0.120   1.428  1.0037 -1.1210  0.0326
26471SOL     OW84732  10.045   0.116   4.737  0.6930  0.0185 -0.4431
26471SOL    HW184733  10.115   0.054   4.756  1.7341  1.0232 -0.9008
26471SOL    HW284734  10.089   0.201   4.732 -0.9638  1.1465  2.1849
26472SOL     OW84735   7.227   2.727   6.766 -0.0482 -0.1416 -0.4028
26472SOL    HW184736   7.321   2.739   6.769  0.0245 -0.7069 -0.1647
26472SOL    HW284737   7.214   2.657   6.702 -0.3666  0.4331 -0.9832
26473SOL     OW84738   0.327   0.139  11.229 -0.2819 -0.0594  0.1020
26473SOL    HW184739   0.407   0.150  11.177  1.0012 -0.6602  1.8379
26473SOL    HW284740   0.286   0.061  11.194  0.3248 -0.2080 -0.3014
26474SOL     OW84741   7.758   7.990   0.265 -0.0348 -0.4306  0.2281
26474SOL    HW184742   7.814   7.970   0.190 -1.7124 -1.1080 -0.8885
26474SOL    HW284743   7.799   7.945   0.339  0.2323 -1.9423 -0.8042
26475SOL     OW84744   4.476   4.886   3.063 -0.0492 -0.0439 -0.0965
26475SOL    HW184745   4.419   4.912   2.991 -0.0920 -0.2525 -0.1386
26475SOL    HW284746   4.562   4.922   3.039 -0.0047 -0.3368 -0.3802
26476SOL     OW84747   8.051   8.920   5.197  0.0480  0.6178 -0.1490
26476SOL    HW184748   8.107   8.947   5.269 -0.1836 -1.0202  0.7051
26476SOL    HW284749   7.973   8.974   5.205  0.5368  1.3129  0.0530
26477SOL     OW84750   8.912   1.969   0.153 -0.5457 -0.0011  0.0510
26477SOL    HW184751   8.918   1.878   0.183 -0.8647 -0.5259 -1.4128
26477SOL    HW284752   8.844   1.968   0.086  0.9506  0.8856 -1.5515
26478SOL     OW84753   2.972   6.764   3.831  0.1070 -0.1543  0.3879
26478SOL    HW184754   2.980   6.684   3.884  0.7710 -0.1660  0.2719
26478SOL    HW284755   3.029   6.827   3.874 -1.0633  0.5363  0.9715
26479SOL     OW84756   3.537   8.988   3.191 -0.1525  0.2296 -0.0185
26479SOL    HW184757   3.615   9.039   3.169 -0.9863  1.5243 -0.0592
26479SOL    HW284758   3.495   8.970   3.108 -0.0586 -0.2269  0.0282
26480SOL     OW84759   5.719   2.564   9.967 -0.0508 -0.3862  0.1506
26480SOL    HW184760   5.629   2.588   9.943 -0.0386  2.8258  2.6134
26480SOL    HW284761   5.710   2.482  10.016 -1.6868  0.0209  0.5927
26481SOL     OW84762   4.838   3.434  10.949  0.2314 -0.2308  0.3071
26481SOL    HW184763   4.883   3.489  10.885 -0.2591  1.5240  1.4230
26481SOL    HW284764   4.851   3.477  11.033  0.8523 -2.4769  1.4604
26482SOL     OW84765   2.614   4.548   8.618  0.2353  0.0699  0.6674
26482SOL    HW184766   2.608   4.578   8.527  0.6235  0.5267  0.7892
26482SOL    HW284767   2.704   4.519   8.627  0.5027  1.0244  1.2062
26483SOL     OW84768   1.168  10.550   9.289 -0.1903  0.2177 -0.8974
26483SOL    HW184769   1.141  10.621   9.231  0.9425  0.5292 -1.0702
26483SOL    HW284770   1.253  10.523   9.254 -0.2569 -0.6963 -0.3569
26484SOL     OW84771  10.693   9.650   3.995 -0.1386 -0.2139 -0.1724
26484SOL    HW184772  10.749   9.585   3.952 -1.6134 -1.2327 -0.6430
26484SOL    HW284773  10.660   9.605   4.073  0.3764  0.6787  0.5738
26485SOL     OW84774   3.876  11.619  11.737  0.0551 -1.1370 -0.2027
26485SOL    HW184775   3.833  11.615  11.822 -1.4480 -0.9716 -0.9247
26485SOL    HW284776   3.968  11.599  11.755  0.0354  0.2131  1.6427
26486SOL     OW84777   6.660  11.776   8.882  0.3483 -0.4729 -0.6412
26486SOL    HW184778   6.752  11.757   8.864  0.7361  0.8160 -0.1542
26486SOL    HW284779   6.647  11.747   8.972  0.5771  0.3017 -0.3510
26487SOL     OW84780   0.418   6.189   7.694 -0.4255  0.1207 -0.1597
26487SOL    HW184781   0.428   6.094   7.696 -0.3980  0.1112  1.9135
26487SOL    HW284782   0.373   6.210   7.776  2.8888  2.1769  1.3737
26488SOL     OW84783   1.531  11.146   7.223  0.5583 -0.2199 -0.1019
26488SOL    HW184784   1.615  11.101   7.228  0.9053  0.4734  0.5120
26488SOL    HW284785   1.529  11.203   7.300 -0.4881 -0.2457 -0.0865
26489SOL     OW84786   3.001   6.188   5.723 -0.6600  0.3536  0.3255
26489SOL    HW184787   2.932   6.248   5.750  1.0124  1.2198  3.0448
26489SOL    HW284788   3.003   6.121   5.791  0.7805  0.0523  0.0278
26490SOL     OW84789   1.620   1.634   4.491 -0.6936 -0.0126  0.0111
26490SOL    HW184790   1.691   1.677   4.538 -2.0388  1.2404  0.9955
26490SOL    HW284791   1.649   1.633   4.399  0.2879  1.0760  0.2890
26491SOL     OW84792   5.950   8.173   5.216  0.1996  0.3208  0.7013
26491SOL    HW184793   5.876   8.224   5.184  0.6688  1.0921  0.8306
26491SOL    HW284794   5.952   8.096   5.159 -0.8920  0.1365  0.9002
26492SOL     OW84795  10.587   0.093   2.259  0.3387 -1.4690 -0.0665
26492SOL    HW184796  10.507   0.051   2.290 -1.0966 -0.4259 -2.1056
26492SOL    HW284797  10.560   0.140   2.180  2.3573  1.2550  0.7237
26493SOL     OW84798  10.698   9.495   6.629 -0.0288 -0.7115 -0.3903
26493SOL    HW184799  10.640   9.436   6.582 -0.0511 -0.5709 -0.5382
26493SOL    HW284800  10.689   9.470   6.721  0.1136 -1.0701 -0.4729
26494SOL     OW84801   4.842   5.052   2.945 -0.9406  0.1543  0.1675
26494SOL    HW184802   4.808   5.077   3.031 -1.6659  1.2692 -0.4137
26494SOL    HW284803   4.915   5.113   2.930 -3.0491  2.5161 -1.4877
26495SOL     OW84804   4.403  11.008   5.605  0.0980 -0.1769 -0.0210
26495SOL    HW184805   4.477  11.050   5.562  0.2151  0.1215  0.4646
26495SOL    HW284806   4.331  11.017   5.543  0.9082 -2.1847 -1.3505
26496SOL     OW84807   8.784  11.812   4.487 -0.0235  0.8101  0.8593
26496SOL    HW184808   8.740  11.874   4.430  0.1871  0.1567 -0.0434
26496SOL    HW284809   8.846  11.865   4.538  0.3420  1.3033 -0.0804
26497SOL     OW84810   4.603   7.591   1.158 -0.4897  0.3084  0.1665
26497SOL    HW184811   4.657   7.618   1.233 -0.4889  2.1719 -0.4841
26497SOL    HW284812   4.651   7.620   1.081 -0.8756 -0.8976 -0.5571
26498SOL     OW84813   7.799   1.661  10.412 -0.4390  0.6787 -0.5289
26498SOL    HW184814   7.749   1.610  10.348  1.9528  0.2408 -2.2005
26498SOL    HW284815   7.733   1.710  10.460 -2.4289  0.9581 -3.2745
26499SOL     OW84816  11.607   9.864   8.135 -0.4454 -0.5736 -0.0134
26499SOL    HW184817  11.604   9.781   8.183 -1.6046 -0.7625 -0.3869
26499SOL    HW284818  11.545   9.920   8.182  0.5137  0.1841  0.3852
26500SOL     OW84819   2.453   6.284   6.052 -0.5465  0.1883 -0.1510
26500SOL    HW184820   2.525   6.238   6.008  0.1940 -0.5744  1.7358
26500SOL    HW284821   2.374   6.256   6.006  0.3069  0.8338 -2.0993
26501SOL     OW84822   1.977   6.774   8.917  0.0560 -0.7281 -0.0002
26501SOL    HW184823   2.062   6.818   8.911 -0.7603  0.8738 -0.1562
26501SOL    HW284824   1.970   6.725   8.835  0.7552 -0.7567 -0.0489
26502SOL     OW84825   1.083   4.474   6.183  0.3676  0.4815  0.0858
26502SOL    HW184826   1.034   4.391   6.183 -0.3287  0.8869 -0.5970
26502SOL    HW284827   1.133   4.471   6.265  0.4003 -0.6380  0.0483
26503SOL     OW84828   7.782   7.808   3.167  1.0532  0.1961  0.6174
26503SOL    HW184829   7.818   7.725   3.197  0.4160 -0.6241 -0.8048
26503SOL    HW284830   7.703   7.784   3.119 -0.0175  1.7506  1.5023
26504SOL     OW84831  11.103   1.140   5.467  0.1266 -0.4006  0.5698
26504SOL    HW184832  11.080   1.047   5.473  0.5276 -0.5728 -0.4364
26504SOL    HW284833  11.150   1.148   5.384  0.1754  0.6886  0.6905
26505SOL     OW84834   5.097   2.178  10.020  0.6196  0.7887 -0.5322
26505SOL    HW184835   5.032   2.108  10.008 -1.5118  2.7876 -1.5364
26505SOL    HW284836   5.088   2.202  10.112  1.9471 -0.7387  0.0287
26506SOL     OW84837   8.390   7.566   7.085  0.2537  0.0663 -0.7009
26506SOL    HW184838   8.410   7.610   7.167 -1.0348 -2.5343  1.1680
26506SOL    HW284839   8.418   7.475   7.099 -2.1076 -0.9946 -2.2465
26507SOL     OW84840   7.201   7.062   5.403  0.4485 -0.4156  0.0941
26507SOL    HW184841   7.147   7.142   5.409 -1.5772 -1.7027 -0.0194
26507SOL    HW284842   7.283   7.092   5.363  0.6460  1.9903  2.0425
26508SOL     OW84843   5.107  10.903   1.238  0.7139 -0.1394  0.8621
26508SOL    HW184844   5.034  10.922   1.180  1.2330  0.2642  0.3260
26508SOL    HW284845   5.095  10.812   1.263  0.1311 -0.1288  0.6328
26509SOL     OW84846   4.455   5.377   4.826  0.2264  0.4427  0.8009
26509SOL    HW184847   4.527   5.431   4.857 -0.1110  0.7638  1.0393
26509SOL    HW284848   4.381   5.437   4.821  0.3728  0.5240 -1.0959
26510SOL     OW84849   8.571   9.970  11.468 -0.7473  0.1682  0.0850
26510SOL    HW184850   8.511  10.023  11.521 -1.4707  0.5277 -1.0496
26510SOL    HW284851   8.584  10.021  11.388 -2.0068 -1.6124 -1.3459
26511SOL     OW84852   1.781   9.679   1.852 -0.0267  0.1228 -0.6406
26511SOL    HW184853   1.743   9.765   1.872  1.2076  0.5460 -0.0495
26511SOL    HW284854   1.825   9.691   1.768  0.6187  0.2348 -0.2942
26512SOL     OW84855   0.675   5.928   7.437  0.4154 -0.8427 -0.3220
26512SOL    HW184856   0.598   5.948   7.384  0.9809 -1.8817 -1.5582
26512SOL    HW284857   0.744   5.984   7.401  0.8152 -1.5877 -0.7168
26513SOL     OW84858   2.684  10.535   5.389 -0.3145  0.2200  0.5721
26513SOL    HW184859   2.606  10.479   5.381 -0.7316  0.7919  0.5463
26513SOL    HW284860   2.746  10.498   5.327 -1.0105  0.4734 -0.3098
26514SOL     OW84861  10.787   8.115   1.054 -0.1910  0.0810 -0.3035
26514SOL    HW184862  10.832   8.181   1.000 -2.0145  1.2339 -0.4840
26514SOL    HW284863  10.791   8.151   1.143 -0.4937  0.0458 -0.2746
26515SOL     OW84864  11.440   4.172   6.070 -0.6750  0.2125 -0.6507
26515SOL    HW184865  11.380   4.189   5.997 -2.5203 -0.1508  0.7180
26515SOL    HW284866  11.456   4.258   6.108 -0.3985  0.2923 -0.9369
26516SOL     OW84867   9.491   9.212   1.780 -0.1739  0.2326  0.0862
26516SOL    HW184868   9.529   9.130   1.812 -1.5521  0.3431  2.2027
26516SOL    HW284869   9.448   9.188   1.698 -2.5115 -1.7888  1.7547
26517SOL     OW84870   2.903   8.140   8.105  0.4320 -0.0281 -1.0510
26517SOL    HW184871   2.910   8.109   8.014 -0.5477 -0.8527 -0.8591
26517SOL    HW284872   2.864   8.227   8.097  0.9353  0.1690 -1.4519
26518SOL     OW84873   4.104   5.627  10.311  0.3235  0.0148  0.5229
26518SOL    HW184874   4.108   5.681  10.390 -0.5805 -0.0478  0.6290
26518SOL    HW284875   4.170   5.664  10.253  1.0888 -0.0155  1.3552
26519SOL     OW84876   0.189   4.135  10.155  0.5752  0.1942  0.2643
26519SOL    HW184877   0.242   4.095  10.224 -0.0036  3.2485  2.6945
26519SOL    HW284878   0.102   4.098  10.167  0.8681 -0.5740  0.0358
26520SOL     OW84879   2.234  10.189  10.284 -0.2373 -0.2202  0.6207
26520SOL    HW184880   2.161  10.129  10.272 -1.1387  0.8742  0.4827
26520SOL    HW284881   2.194  10.270  10.314  0.9438  0.3553  0.7049
26521SOL     OW84882   6.727   1.216   1.350  0.1179 -0.5665 -0.0214
26521SOL    HW184883   6.778   1.287   1.311 -0.2957  0.4191  1.1580
26521SOL    HW284884   6.788   1.173   1.410 -0.0629 -0.2082  0.4245
26522SOL     OW84885   2.169   4.314   5.810  0.1080 -0.2973  0.2100
26522SOL    HW184886   2.215   4.337   5.891 -0.0104  1.2003 -0.1105
26522SOL    HW284887   2.178   4.392   5.755  0.4681 -1.3932 -1.3537
26523SOL     OW84888   9.052   7.255   0.897  0.0817  0.0437 -0.0565
26523SOL    HW184889   8.969   7.215   0.923 -0.0631  0.5312  0.2550
26523SOL    HW284890   9.041   7.275   0.804  0.4689 -1.3873 -0.4388
26524SOL     OW84891   9.975   6.788   6.242 -0.2563 -0.0993  0.5297
26524SOL    HW184892   9.926   6.706   6.242  0.4025 -0.5015  0.4238
26524SOL    HW284893  10.027   6.785   6.322 -0.3577  0.3005  0.6145
26525SOL     OW84894   4.351   7.025   2.923  0.5317 -0.2460 -0.0057
26525SOL    HW184895   4.287   7.097   2.925 -0.2481 -0.9456  0.5893
26525SOL    HW284896   4.399   7.034   3.005 -0.1823 -0.9495  0.4947
26526SOL     OW84897   6.483   6.758   7.854 -0.0099  0.3003 -0.5038
26526SOL    HW184898   6.475   6.754   7.949 -0.1413  2.1233 -0.3894
26526SOL    HW284899   6.468   6.669   7.824 -1.3153 -0.0562  1.0913
26527SOL     OW84900   8.959   3.273   3.937  0.0630  0.6657  0.2439
26527SOL    HW184901   8.943   3.236   3.850 -2.1018  2.4287 -0.2047
26527SOL    HW284902   8.953   3.199   3.997 -0.5691 -0.2403 -0.9186
26528SOL     OW84903   0.546   3.572   9.287 -0.0289 -0.0715 -0.4978
26528SOL    HW184904   0.604   3.642   9.256 -0.5247 -0.9288 -3.7199
26528SOL    HW284905   0.458   3.607   9.276 -0.2346 -0.2945  0.3656
26529SOL     OW84906   9.150   3.305   1.065 -0.0403 -0.2463  0.3638
26529SOL    HW184907   9.137   3.213   1.041  0.8960 -0.4534  0.6068
26529SOL    HW284908   9.222   3.303   1.128  1.6953  0.8558 -1.4502
26530SOL     OW84909  11.110   5.290   6.528 -0.2371 -0.3013  0.3385
26530SOL    HW184910  11.162   5.292   6.608  0.1224  0.1906  0.0912
26530SOL    HW284911  11.173   5.299   6.457 -0.3706 -2.2968 -0.1025
26531SOL     OW84912   6.229   8.260  10.923  0.5818 -0.2836 -0.0192
26531SOL    HW184913   6.226   8.209  11.004 -1.6569  1.9598  1.4921
26531SOL    HW284914   6.321   8.280  10.910  1.0930 -1.4750  1.4594
26532SOL     OW84915   7.174   1.855   0.668 -0.0425 -0.1830 -0.0136
26532SOL    HW184916   7.175   1.934   0.722 -0.0366 -1.5353  2.0736
26532SOL    HW284917   7.138   1.883   0.584 -0.7368  1.8741  0.9232
26533SOL     OW84918   8.886  11.694   7.220 -0.6417  0.5376  0.1803
26533SOL    HW184919   8.893  11.598   7.218 -0.5199  0.5416  0.3248
26533SOL    HW284920   8.977  11.724   7.217 -0.5129  0.5858  2.4181
26534SOL     OW84921   2.064   1.234   2.376 -0.3813 -0.8577 -0.5473
26534SOL    HW184922   2.098   1.231   2.465 -2.3467  0.7130  0.3202
26534SOL    HW284923   2.004   1.308   2.375  1.1015  0.4902 -3.7752
26535SOL     OW84924   4.651  10.007   0.460 -0.3506 -0.1249 -0.1648
26535SOL    HW184925   4.639   9.999   0.555 -2.3873  1.8414 -0.1646
26535SOL    HW284926   4.738  10.045   0.450 -0.5116  0.6022  0.9913
26536SOL     OW84927  11.427   7.207   7.843  0.0537  0.0058 -0.2018
26536SOL    HW184928  11.459   7.218   7.932  1.0941 -0.6575 -0.4805
26536SOL    HW284929  11.460   7.284   7.796 -0.5306  0.3769 -0.0229
26537SOL     OW84930   2.820   2.820   8.486  0.1217  0.2502 -0.2391
26537SOL    HW184931   2.811   2.888   8.552 -1.7423 -0.1895  0.0304
26537SOL    HW284932   2.896   2.769   8.514  0.0818  0.7940  0.9167
26538SOL     OW84933   9.687   4.198   3.903  0.7262 -0.2417 -0.0024
26538SOL    HW184934   9.646   4.142   3.968  0.0358  2.3470  1.9611
26538SOL    HW284935   9.781   4.181   3.913  0.6641  0.3190  1.9621
26539SOL     OW84936   9.718   0.130   5.257 -0.2398 -0.1447 -0.0524
26539SOL    HW184937   9.762   0.150   5.340 -0.6363 -0.4694  0.2369
26539SOL    HW284938   9.679   0.213   5.231 -0.0303 -0.0164  0.0319
26540SOL     OW84939   4.993   9.127   4.587 -0.3331  0.2157  0.1534
26540SOL    HW184940   4.991   9.069   4.510  1.2398  0.0372  0.2221
26540SOL    HW284941   4.963   9.072   4.659  0.8750 -0.4554  0.1641
26541SOL     OW84942   2.744   9.844  10.674 -0.2363  0.1418  0.2994
26541SOL    HW184943   2.737   9.939  10.677  0.1222  0.1880 -0.2711
26541SOL    HW284944   2.688   9.818  10.600 -0.2915 -0.0860  0.4204
26542SOL     OW84945   6.079   8.403   0.129 -0.1785  0.4131 -0.5066
26542SOL    HW184946   6.068   8.460   0.053 -0.4566  1.7143  0.4661
26542SOL    HW284947   6.174   8.389   0.135  0.1917  2.8285  0.6137
26543SOL     OW84948   1.127   7.813   5.058  0.2276 -0.2296  0.3905
26543SOL    HW184949   1.063   7.754   5.098 -0.8641  1.0887  0.6751
26543SOL    HW284950   1.074   7.882   5.019  1.4607  0.5439  0.0377
26544SOL     OW84951   6.191   1.594   3.595 -0.0456  0.4421 -0.4067
26544SOL    HW184952   6.265   1.655   3.598  0.0478  0.3724  2.6368
26544SOL    HW284953   6.231   1.508   3.585 -0.1026  0.6807 -3.4775
26545SOL     OW84954   5.106   1.505   2.153  0.4918 -0.3291  0.8126
26545SOL    HW184955   5.069   1.465   2.231 -0.7743 -0.9390 -0.0662
26545SOL    HW284956   5.136   1.431   2.100 -2.0988 -0.2434 -0.9456
26546SOL     OW84957   9.006   4.788   9.537  0.0772 -0.1019  0.3263
26546SOL    HW184958   8.922   4.812   9.578  0.1136 -0.4865  0.6386
26546SOL    HW284959   9.072   4.818   9.599  0.1161 -1.1916  0.8375
26547SOL     OW84960   8.304   0.235   7.853  0.2370 -0.6041  0.2357
26547SOL    HW184961   8.216   0.198   7.853  0.4386 -1.1303 -0.9846
26547SOL    HW284962   8.361   0.161   7.831  0.9703 -0.2126  0.7444
26548SOL     OW84963   7.990   3.096   7.042  0.0078 -0.1800 -0.1724
26548SOL    HW184964   8.007   3.131   6.954 -1.4226 -0.5332 -0.6152
26548SOL    HW284965   7.999   3.002   7.033  0.1437 -0.1948  0.1227
26549SOL     OW84966   3.025  11.104   8.112  0.0171  0.0021  0.2464
26549SOL    HW184967   2.946  11.156   8.101  0.3936  0.4444 -0.4228
26549SOL    HW284968   3.047  11.074   8.024  0.0038 -1.0076  0.5736
26550SOL     OW84969   1.186   1.603   1.451 -0.2474 -0.6671  0.4549
26550SOL    HW184970   1.188   1.625   1.544  0.7014 -0.0542  0.3065
26550SOL    HW284971   1.264   1.548   1.438 -0.7926 -1.3880  0.1672
26551SOL     OW84972   5.624   7.678   9.201 -0.9514 -0.1213  0.1684
26551SOL    HW184973   5.705   7.683   9.251 -0.4955  0.8303 -0.6342
26551SOL    HW284974   5.627   7.753   9.143 -1.5062 -1.1264 -1.2185
26552SOL     OW84975   8.085   0.507   4.520 -0.2265  0.2693  0.2480
26552SOL    HW184976   8.049   0.570   4.457  1.2964  0.4117 -0.5367
26552SOL    HW284977   8.148   0.456   4.469  0.7557  0.1157  1.5644
26553SOL     OW84978   0.184   6.357   6.864  0.5822 -0.3969 -0.3775
26553SOL    HW184979   0.158   6.390   6.778  0.8255  0.8058 -0.0089
26553SOL    HW284980   0.255   6.415   6.892  1.1475 -1.3477  0.2353
26554SOL     OW84981   7.213   0.922   1.872  0.5154 -0.7246  0.6362
26554SOL    HW184982   7.284   0.985   1.889  0.7302 -0.9058  0.4035
26554SOL    HW284983   7.233   0.848   1.929  0.8449 -1.0319  0.1190
26555SOL     OW84984   5.302   6.225   6.102 -0.1081  0.4080  0.2293
26555SOL    HW184985   5.369   6.282   6.140  1.3500 -1.3939  0.5118
26555SOL    HW284986   5.312   6.142   6.148 -0.8223 -0.6959 -1.4944
26556SOL     OW84987   1.606  11.227   1.054  0.1767 -0.1827 -0.4049
26556SOL    HW184988   1.630  11.155   0.996 -0.2911 -0.8443  0.2179
26556SOL    HW284989   1.583  11.186   1.137 -2.7389  0.3946 -0.8100
26557SOL     OW84990   9.861   0.425   3.425  0.0111 -0.1771 -0.2849
26557SOL    HW184991   9.812   0.351   3.389  0.2422 -0.3080 -0.3292
26557SOL    HW284992   9.832   0.432   3.516 -0.1989 -0.1626 -0.3518
26558SOL     OW84993   0.046   6.478   7.957 -0.0610 -0.0583  0.8323
26558SOL    HW184994   0.035   6.389   7.922  1.0395  0.5137 -1.1173
26558SOL    HW284995  -0.041   6.517   7.948  0.1655  0.0805 -1.5119
26559SOL     OW84996   9.586   8.535   5.779 -0.3375  0.2611 -0.2989
26559SOL    HW184997   9.517   8.600   5.768 -1.6044 -0.0973  3.6775
26559SOL    HW284998   9.540   8.451   5.783  0.4875 -0.1761  0.6695
26560SOL     OW84999  11.786   2.373   8.566  0.2722 -0.2640 -0.2319
26560SOL    HW185000  11.810   2.452   8.614  0.1013 -1.0708  1.2462
26560SOL    HW285001  11.742   2.405   8.488 -0.3011  1.1024  0.6113
26561SOL     OW85002   2.563   7.164   2.069  0.0252 -0.1998 -0.1200
26561SOL    HW185003   2.473   7.195   2.057  0.2701  0.8471  0.5880
26561SOL    HW285004   2.575   7.162   2.164  1.4224  1.7445 -0.2031
26562SOL     OW85005   5.346   3.395   7.527 -0.0950  0.4985  0.5469
26562SOL    HW185006   5.381   3.360   7.445  1.0406  0.1019  1.1795
26562SOL    HW285007   5.287   3.326   7.559 -0.3267  0.5378  0.2085
26563SOL     OW85008   9.156   9.799  11.114  0.4358  0.3834 -0.2267
26563SOL    HW185009   9.138   9.839  11.199  2.4437  2.0968 -0.5332
26563SOL    HW285010   9.156   9.872  11.052 -1.0215 -0.8373 -1.7611
26564SOL     OW85011   3.202   5.076  11.551 -0.0583  0.0085 -0.3395
26564SOL    HW185012   3.190   5.160  11.595 -2.8084  0.4621 -1.7055
26564SOL    HW285013   3.253   5.098  11.473 -0.0181  0.2626 -0.2443
26565SOL     OW85014   2.327   6.798   4.215 -0.3651  0.1757 -0.0541
26565SOL    HW185015   2.255   6.846   4.174 -0.0484  0.4578 -0.2849
26565SOL    HW285016   2.356   6.855   4.286 -0.3212  0.0963 -0.0089
26566SOL     OW85017   2.026   6.302  11.202 -0.9279 -0.3444  0.3846
26566SOL    HW185018   2.056   6.243  11.271  1.1401  1.7184  1.4123
26566SOL    HW285019   2.104   6.317  11.149 -1.7399  0.4332 -0.6318
26567SOL     OW85020  11.324  10.371   0.882 -0.2954  0.3522 -0.4528
26567SOL    HW185021  11.344  10.293   0.830 -1.0934  0.3188 -0.7206
26567SOL    HW285022  11.410  10.403   0.911 -0.0142 -1.3607  0.7688
26568SOL     OW85023   9.456   8.153   3.936 -0.5231 -0.4060  0.3947
26568SOL    HW185024   9.466   8.078   3.877 -0.8119 -0.2998  0.2110
26568SOL    HW285025   9.380   8.201   3.903  0.1949  0.4696 -0.0402
26569SOL     OW85026  11.095   0.253   3.824  0.0681  0.1671  0.2485
26569SOL    HW185027  11.116   0.161   3.839  0.3842 -0.1121 -1.6778
26569SOL    HW285028  11.152   0.301   3.885  0.2234 -0.8790  0.9479
26570SOL     OW85029   8.636   0.888   1.963 -0.0470 -0.2991  0.0233
26570SOL    HW185030   8.659   0.930   2.046  0.3864 -0.1262 -0.1807
26570SOL    HW285031   8.547   0.918   1.945  0.9004  2.1022 -1.0720
26571SOL     OW85032   7.242  10.931   0.173 -0.1185  0.1008 -0.1721
26571SOL    HW185033   7.243  11.013   0.124 -1.3238 -0.2965 -0.9074
26571SOL    HW285034   7.317  10.882   0.139  1.0044  1.1296  0.7384
26572SOL     OW85035   0.717   7.373   2.097 -0.3160 -0.6485 -0.0429
26572SOL    HW185036   0.776   7.305   2.129  3.3399  0.8269 -2.9190
26572SOL    HW285037   0.735   7.448   2.154 -1.3132 -0.8696  0.5855
26573SOL     OW85038   0.741   5.281  11.790 -0.0166 -0.2658  0.1257
26573SOL    HW185039   0.679   5.261  11.720 -0.8501 -0.1560  0.8127
26573SOL    HW285040   0.798   5.349  11.753 -0.4555 -0.2021 -0.4429
26574SOL     OW85041   2.696   2.049   5.119  0.6706  0.3608 -0.1297
26574SOL    HW185042   2.652   1.964   5.111  1.1389 -0.0374  1.2391
26574SOL    HW285043   2.770   2.043   5.059 -0.6622  0.7476 -1.8766
26575SOL     OW85044  10.455   7.610  11.775 -0.3628  0.5182  0.0530
26575SOL    HW185045  10.506   7.572  11.847 -3.3271  0.9040  2.5753
26575SOL    HW285046  10.395   7.540  11.750 -0.1008  0.7678 -1.3146
26576SOL     OW85047   3.229  11.016   8.289 -0.4994 -0.1583 -0.2608
26576SOL    HW185048   3.202  11.023   8.380 -1.0569  3.1680 -0.5595
26576SOL    HW285049   3.153  11.045   8.239  0.5130  0.2358 -1.6459
26577SOL     OW85050   5.694   5.876   3.494 -0.4539  0.7210 -0.5495
26577SOL    HW185051   5.774   5.852   3.447  0.8463  2.6516  0.5827
26577SOL    HW285052   5.691   5.972   3.489 -2.1095  0.7501  0.4017
26578SOL     OW85053   6.353   9.961   5.147 -0.0838  0.0275  0.0673
26578SOL    HW185054   6.299  10.008   5.211  0.3351  1.5146 -0.6336
26578SOL    HW285055   6.294   9.947   5.073 -0.1498 -0.4043  0.1973
26579SOL     OW85056   9.342   1.203   1.691 -0.6060  0.9165 -0.4876
26579SOL    HW185057   9.302   1.172   1.610 -1.2380 -0.8424  0.4565
26579SOL    HW285058   9.270   1.242   1.741 -1.0805 -1.4036  0.8018
26580SOL     OW85059   2.203   6.044   4.509 -0.7170  0.1115  0.6895
26580SOL    HW185060   2.147   6.055   4.432 -1.5899 -0.6940  1.1928
26580SOL    HW285061   2.285   6.008   4.474 -1.0281 -0.0467  0.1082
26581SOL     OW85062   6.822   7.674   5.702 -0.5291 -0.0080  0.0325
26581SOL    HW185063   6.768   7.724   5.763 -0.8557 -0.4044  0.0712
26581SOL    HW285064   6.813   7.720   5.618 -0.1401  0.4927  0.2655
26582SOL     OW85065   5.734   0.698   8.541  0.4066 -0.0753 -0.5643
26582SOL    HW185066   5.689   0.757   8.482 -0.2775 -1.1582 -1.1449
26582SOL    HW285067   5.679   0.695   8.619  0.4051 -0.0029 -0.5627
26583SOL     OW85068   4.088   8.374   4.768  0.4883 -0.1038  0.5294
26583SOL    HW185069   4.080   8.304   4.704  0.5309  1.0565 -0.7719
26583SOL    HW285070   4.156   8.342   4.829  2.0728 -0.3029 -1.2451
26584SOL     OW85071   6.887   2.570   5.949  0.4173  0.3216  0.4099
26584SOL    HW185072   6.829   2.502   5.916  0.3780  0.1553  0.8086
26584SOL    HW285073   6.969   2.559   5.900  0.8683 -0.8606  1.3701
26585SOL     OW85074   5.666   1.677   0.299 -0.3716  0.4758  0.0162
26585SOL    HW185075   5.630   1.621   0.368 -1.0472  0.5973 -0.2362
26585SOL    HW285076   5.661   1.765   0.335 -1.1097  0.5846 -0.3511
26586SOL     OW85077   0.539   0.257   4.825  0.0556  0.1038 -0.1294
26586SOL    HW185078   0.596   0.181   4.842 -0.4631 -0.1670  0.4671
26586SOL    HW285079   0.552   0.277   4.733  0.6619 -0.3364 -0.1437
26587SOL     OW85080   3.996   7.536   3.739 -1.0014  0.5932 -0.2009
26587SOL    HW185081   3.990   7.591   3.661 -2.9092  0.0367 -0.5039
26587SOL    HW285082   3.938   7.579   3.803 -0.5230  0.3082  0.4361
26588SOL     OW85083   9.355   6.083   0.370 -0.0125 -0.0170  0.0359
26588SOL    HW185084   9.347   6.078   0.275  0.4713 -0.4659  0.0128
26588SOL    HW285085   9.271   6.120   0.400 -1.8254 -3.4324 -0.2790
26589SOL     OW85086   8.126   4.421   1.322 -0.1409  0.2820 -0.5788
26589SOL    HW185087   8.114   4.431   1.227  0.0639  2.5698 -0.4262
26589SOL    HW285088   8.039   4.435   1.359 -0.1153 -0.0456 -0.3917
26590SOL     OW85089   8.765   9.126   7.139 -0.0488 -0.3924  0.5501
26590SOL    HW185090   8.776   9.088   7.226  2.8026  1.6097  1.2079
26590SOL    HW285091   8.771   9.221   7.153 -0.2234  0.0047 -1.7410
26591SOL     OW85092   0.316   8.625   1.146  0.1062  0.2841 -0.1377
26591SOL    HW185093   0.390   8.678   1.175  2.6360 -2.7070 -0.5079
26591SOL    HW285094   0.305   8.649   1.054  0.8253  0.6003 -0.1528
26592SOL     OW85095  11.465   7.462  11.291  0.6927 -0.1553  0.1688
26592SOL    HW185096  11.449   7.481  11.199 -2.1650  0.7749  0.7511
26592SOL    HW285097  11.490   7.546  11.329 -2.0864  0.4469  0.8918
26593SOL     OW85098   0.322   4.864   7.617 -0.5224 -0.1431  0.0190
26593SOL    HW185099   0.260   4.914   7.670 -0.2758  1.6146 -1.2497
26593SOL    HW285100   0.268   4.806   7.564 -0.7830 -1.7258  1.9251
26594SOL     OW85101   4.848   2.179   5.619 -0.5369 -0.0643 -0.4399
26594SOL    HW185102   4.879   2.266   5.592  0.7486 -0.4480 -0.2935
26594SOL    HW285103   4.889   2.164   5.704 -0.5236 -0.9077 -0.5817
26595SOL     OW85104   7.070  11.250   5.019  0.0568 -0.1164 -0.4942
26595SOL    HW185105   7.164  11.269   5.026  0.0377 -0.0235 -0.4888
26595SOL    HW285106   7.034  11.326   4.973 -0.5386  1.3670  2.2409
26596SOL     OW85107   3.172   7.710   6.460  0.0374 -0.5519  0.1457
26596SOL    HW185108   3.111   7.706   6.386 -0.4142  0.7989  0.4055
26596SOL    HW285109   3.135   7.650   6.524 -1.5488  0.8612  0.6348
26597SOL     OW85110   3.554   3.413  10.353  0.0174 -0.8647 -0.7693
26597SOL    HW185111   3.584   3.470  10.282 -0.6134 -0.8386 -1.0183
26597SOL    HW285112   3.510   3.340  10.309  1.7751 -2.1485 -0.5084
26598SOL     OW85113   5.072  10.837   0.881  0.4944  0.2577  0.4477
26598SOL    HW185114   5.159  10.823   0.919  0.7132  0.0329 -0.1278
26598SOL    HW285115   5.051  10.928   0.900  1.2096  0.5458 -0.1239
26599SOL     OW85116   7.114  10.357   6.858 -0.4473 -0.4174  0.3364
26599SOL    HW185117   7.095  10.311   6.939 -0.2804  1.7762  1.7092
26599SOL    HW285118   7.200  10.396   6.872 -0.5108  0.1824 -0.7897
26600SOL     OW85119   3.287   3.343   8.640  0.6778  0.2670  0.1743
26600SOL    HW185120   3.254   3.398   8.569  0.5935 -1.0218 -0.8295
26600SOL    HW285121   3.379   3.330   8.620 -0.1586 -3.6752 -2.3314
26601SOL     OW85122   9.813   6.491  11.737  0.4122  0.3562  0.1454
26601SOL    HW185123   9.731   6.493  11.686  0.1134  1.1657  0.6307
26601SOL    HW285124   9.820   6.579  11.774  0.8831 -0.0617  1.0881
26602SOL     OW85125   4.532   8.170   2.856 -0.0636 -0.1559 -0.1719
26602SOL    HW185126   4.442   8.139   2.865  0.2778 -1.2207 -0.3743
26602SOL    HW285127   4.577   8.135   2.932 -0.1155  1.5746  0.7189
26603SOL     OW85128   8.679   0.870   3.693 -0.1054  0.2601 -0.0875
26603SOL    HW185129   8.610   0.827   3.642  0.0056 -0.5403  0.4211
26603SOL    HW285130   8.727   0.923   3.629 -0.6347  0.1240 -0.6060
26604SOL     OW85131   5.127   3.142   5.406 -0.0561 -0.2670  0.4729
26604SOL    HW185132   5.056   3.149   5.342  0.2514 -1.2830 -0.0071
26604SOL    HW285133   5.138   3.048   5.419  0.8283 -0.1043  0.9732
26605SOL     OW85134   9.829   7.803   8.058 -0.0280  0.0903  0.0797
26605SOL    HW185135   9.812   7.729   8.117  0.0257  0.4693  0.5748
26605SOL    HW285136   9.863   7.762   7.978  0.3415 -0.3964  0.4819
26606SOL     OW85137   0.635   6.291   4.875 -0.0138  0.1169  0.1427
26606SOL    HW185138   0.704   6.225   4.872 -0.0191  0.1311 -2.1289
26606SOL    HW285139   0.680   6.371   4.903  0.3844 -0.3948  1.0106
26607SOL     OW85140   1.683   8.003   2.993 -0.4706  0.0333 -0.3363
26607SOL    HW185141   1.762   8.020   3.043 -1.2182 -1.2856  1.3999
26607SOL    HW285142   1.658   8.088   2.957  0.1177  1.0652  1.5533
26608SOL     OW85143  11.012   2.122   5.667 -0.8184  0.1360  0.0935
26608SOL    HW185144  11.084   2.132   5.730 -0.9368  1.2290  0.0764
26608SOL    HW285145  11.053   2.140   5.582 -0.9887  0.2209  0.0288
26609SOL     OW85146   3.243   6.947   6.478 -0.4099 -0.5807 -0.0090
26609SOL    HW185147   3.276   6.971   6.391  0.7394 -2.6315 -0.1911
26609SOL    HW285148   3.263   7.022   6.533  0.9833 -0.1873 -1.0075
26610SOL     OW85149   1.045   4.506  10.687 -0.1002 -0.1346 -0.4413
26610SOL    HW185150   1.087   4.484  10.770 -0.5863 -2.4815 -0.7276
26610SOL    HW285151   0.953   4.522  10.711 -0.3166 -1.1551 -0.5214
26611SOL     OW85152   8.348   6.482   7.017  0.0477  0.0024  0.0599
26611SOL    HW185153   8.419   6.453   7.076 -0.4502  0.5296  0.9403
26611SOL    HW285154   8.388   6.483   6.931  0.5848 -1.5700  0.2504
26612SOL     OW85155   9.323   1.262   7.286  0.0060 -0.1015 -0.1605
26612SOL    HW185156   9.241   1.303   7.311 -0.1661  0.2525 -1.2789
26612SOL    HW285157   9.297   1.177   7.249  0.2529 -0.5863  0.7416
26613SOL     OW85158  10.217   2.500   7.873 -0.0506 -0.0507 -0.1991
26613SOL    HW185159  10.303   2.533   7.901 -0.1513 -0.9439  1.2662
26613SOL    HW285160  10.233   2.460   7.788  0.6091  1.3817 -0.7761
26614SOL     OW85161   3.595   4.284   9.006  0.4544 -0.1678 -0.4505
26614SOL    HW185162   3.620   4.329   9.087 -1.0304  0.4601 -0.2890
26614SOL    HW285163   3.559   4.354   8.951 -3.0132 -1.2147  0.2491
26615SOL     OW85164   6.393   1.175   7.270 -0.2591  0.4042 -0.8764
26615SOL    HW185165   6.478   1.213   7.290 -1.0885  1.5380  0.6326
26615SOL    HW285166   6.387   1.099   7.327 -0.6168  0.8303 -0.3449
26616SOL     OW85167   8.759   7.148   1.736 -0.2613  0.7269 -0.7203
26616SOL    HW185168   8.667   7.120   1.742  0.2179 -0.8861 -0.3307
26616SOL    HW285169   8.784   7.169   1.825 -0.3013  1.3359 -0.8526
26617SOL     OW85170   4.544   5.705   3.171 -0.2191 -0.1714 -0.1998
26617SOL    HW185171   4.516   5.625   3.214 -0.6777 -0.4924 -1.0780
26617SOL    HW285172   4.538   5.686   3.077  0.8238  0.4857 -0.4265
26618SOL     OW85173   5.353   5.040   8.980 -0.0096  0.3608  0.6539
26618SOL    HW185174   5.390   4.960   9.018  0.4821  0.8769  1.2786
26618SOL    HW285175   5.340   5.098   9.055 -1.2215  0.5378  0.3272
26619SOL     OW85176   4.624   1.401   7.663 -0.4156 -0.2110 -0.0244
26619SOL    HW185177   4.686   1.337   7.628 -0.8928 -0.3046 -0.7138
26619SOL    HW285178   4.629   1.390   7.758  2.0818  1.1463  0.0814
26620SOL     OW85179   0.052  11.793  11.395  0.4465  0.2067  0.2834
26620SOL    HW185180   0.105  11.743  11.333  0.9444  1.0907 -0.0286
26620SOL    HW285181  -0.021  11.826  11.342 -0.5297 -1.1269  0.7433
26621SOL     OW85182   5.884   3.085   3.365  0.2759  0.0890 -0.1250
26621SOL    HW185183   5.883   3.028   3.441  1.4985 -0.2549 -0.3472
26621SOL    HW285184   5.791   3.098   3.343 -0.0306 -1.3215  0.2809
26622SOL     OW85185   9.582   4.265   7.255  0.1375 -0.2766 -0.5476
26622SOL    HW185186   9.532   4.249   7.175  0.1407 -0.6013 -0.4840
26622SOL    HW285187   9.626   4.349   7.239  0.2232 -0.3933 -0.9262
26623SOL     OW85188   8.730   8.859   5.752  0.2823 -0.1431 -0.3773
26623SOL    HW185189   8.680   8.940   5.763  0.7808  0.2064 -0.6952
26623SOL    HW285190   8.821   8.885   5.764  0.4452 -0.6588 -0.4829
26624SOL     OW85191   4.793   9.338   9.227  0.4876 -0.0066 -0.3665
26624SOL    HW185192   4.865   9.286   9.192  2.2765  0.2097  2.5922
26624SOL    HW285193   4.736   9.275   9.271  2.1057  0.2379  2.3191
26625SOL     OW85194   4.287   0.065   4.857 -0.0214 -0.0334  0.1714
26625SOL    HW185195   4.364   0.102   4.815  0.3956 -0.1576  0.8170
26625SOL    HW285196   4.270   0.122   4.932  1.8835 -2.2023  2.4576
26626SOL     OW85197   4.119  10.490   6.960  0.3276  0.5026 -0.0007
26626SOL    HW185198   4.212  10.484   6.979  0.2783 -1.4344 -0.1609
26626SOL    HW285199   4.114  10.533   6.875  0.9805  1.8912  0.6441
26627SOL     OW85200   7.593   1.011   4.971  0.3098 -0.2956 -0.2178
26627SOL    HW185201   7.560   0.991   4.883  0.4669  0.7145 -0.5265
26627SOL    HW285202   7.606   1.106   4.970  1.9364 -0.4919  0.3482
26628SOL     OW85203   1.368   6.254  11.111  0.9192  0.5226 -0.4460
26628SOL    HW185204   1.388   6.332  11.059 -0.5389  0.0752 -1.7621
26628SOL    HW285205   1.291   6.216  11.068 -0.1687 -0.0501  1.8927
26629SOL     OW85206   7.912   6.062   2.872  0.3477 -0.0953  0.0824
26629SOL    HW185207   7.847   6.090   2.807  1.0597  0.1416 -0.5411
26629SOL    HW285208   7.989   6.114   2.852  0.8856 -0.7184  0.5118
26630SOL     OW85209  10.751   9.042   8.762 -0.4551 -0.1409  0.4975
26630SOL    HW185210  10.777   9.104   8.830 -1.7762  1.2311 -0.1877
26630SOL    HW285211  10.715   9.097   8.692 -0.8268 -1.6311 -0.5300
26631SOL     OW85212   7.066   7.778   8.450  0.3102 -0.1048 -0.2356
26631SOL    HW185213   7.117   7.816   8.522 -1.0360 -0.7882  1.1439
26631SOL    HW285214   7.036   7.853   8.399 -2.1930  0.8243  2.3557
26632SOL     OW85215   6.100  10.391  11.701  0.6478  0.2002  0.1792
26632SOL    HW185216   6.157  10.318  11.723 -2.0294 -1.7692  1.2171
26632SOL    HW285217   6.055  10.411  11.783 -1.6207  0.2088 -0.9842
26633SOL     OW85218   5.061   3.501   1.174 -0.1094  0.2451  0.0500
26633SOL    HW185219   5.102   3.479   1.090  0.0625 -1.8654  0.6104
26633SOL    HW285220   5.084   3.592   1.189  0.3258  0.5077 -1.9251
26634SOL     OW85221   6.909   9.294   4.519 -0.2032 -0.0352 -0.1034
26634SOL    HW185222   6.871   9.269   4.603  1.4986  1.1365  1.0867
26634SOL    HW285223   6.985   9.348   4.542  0.3804  0.2357 -2.4003
26635SOL     OW85224   9.222   5.739   9.073 -0.3914 -0.2636  0.1729
26635SOL    HW185225   9.214   5.690   8.991 -0.2413  1.1551 -0.7212
26635SOL    HW285226   9.279   5.685   9.128  1.3471 -0.2335 -1.5006
26636SOL     OW85227   4.357   9.259   8.693  0.0372  0.3337 -0.1654
26636SOL    HW185228   4.355   9.315   8.771 -0.0173 -0.8873  0.7305
26636SOL    HW285229   4.270   9.219   8.691  0.5797 -0.9022  0.1019
26637SOL     OW85230   0.046   6.890  10.083 -0.2982 -0.0025  0.4573
26637SOL    HW185231   0.021   6.920  10.170 -0.1937  4.3505 -0.7738
26637SOL    HW285232  -0.003   6.946  10.023  1.4787 -1.1270 -2.2492
26638SOL     OW85233   1.211   7.412   1.887 -0.1519 -0.0911 -0.0192
26638SOL    HW185234   1.144   7.480   1.881  1.3794  1.3620 -3.8194
26638SOL    HW285235   1.292   7.459   1.906  0.6507 -1.0669 -0.9003
26639SOL     OW85236  10.116  10.851   9.322 -0.2481 -0.7171 -0.4576
26639SOL    HW185237  10.166  10.884   9.247 -1.6171 -0.0156 -1.0917
26639SOL    HW285238  10.169  10.875   9.398  0.9254 -1.0004 -1.1612
26640SOL     OW85239   0.223   0.888  11.633 -0.0399  0.2872  0.1445
26640SOL    HW185240   0.260   0.816  11.685 -0.0221 -0.4275 -0.8293
26640SOL    HW285241   0.278   0.963  11.654  1.2027 -0.4588 -0.3222
26641SOL     OW85242  10.731   6.541   9.836  0.0488  0.2027  0.0295
26641SOL    HW185243  10.666   6.475   9.811 -0.3085  1.3649 -2.4796
26641SOL    HW285244  10.812   6.491   9.848 -0.1974 -0.7502 -1.8538
26642SOL     OW85245   6.566   1.345   1.584 -0.1045  0.2491 -0.5155
26642SOL    HW185246   6.569   1.326   1.490  0.4217 -1.5369 -0.1919
26642SOL    HW285247   6.657   1.341   1.612 -0.3890 -0.9126  0.3324
26643SOL     OW85248   6.191  11.722   8.157  0.1846 -0.0237  0.2480
26643SOL    HW185249   6.211  11.633   8.127 -0.0153 -0.0449  0.1792
26643SOL    HW285250   6.098  11.719   8.181  0.2415  0.0995  0.4910
26644SOL     OW85251   4.868  10.808   3.162 -0.5312  0.0962 -0.3070
26644SOL    HW185252   4.797  10.755   3.125 -1.1109  1.4939 -1.2741
26644SOL    HW285253   4.924  10.744   3.207 -1.6203 -1.2261 -0.7417
26645SOL     OW85254   5.203   7.591  10.405 -0.8001  0.8299 -0.0641
26645SOL    HW185255   5.182   7.680  10.434 -1.8368  0.5312  0.1415
26645SOL    HW285256   5.237   7.547  10.483  0.9174  1.3883 -0.4560
26646SOL     OW85257   5.998   0.733   2.704  0.0580  0.0857 -0.2993
26646SOL    HW185258   5.967   0.803   2.761  0.1190 -0.5095  0.4875
26646SOL    HW285259   5.927   0.669   2.704 -0.2367  0.3876 -1.4632
26647SOL     OW85260  11.303   7.694   2.009  0.2388  0.2548  0.2926
26647SOL    HW185261  11.362   7.675   1.937  0.2068 -0.7791  0.5210
26647SOL    HW285262  11.219   7.712   1.967  0.5639  1.1822  0.0016
26648SOL     OW85263   1.191   5.984   5.564  0.0018 -0.5983 -0.1064
26648SOL    HW185264   1.192   6.066   5.515  0.8452 -1.8657 -2.3512
26648SOL    HW285265   1.129   5.999   5.635 -1.9777  1.0875 -2.0461
26649SOL     OW85266   5.587   8.627   4.008 -0.1543  0.7566  0.5098
26649SOL    HW185267   5.543   8.603   3.927 -0.5609  0.5357  0.7921
26649SOL    HW285268   5.555   8.715   4.027 -0.3772  0.6486  0.6434
26650SOL     OW85269   0.265   1.229   6.490 -0.3168  0.7300 -0.0804
26650SOL    HW185270   0.267   1.135   6.471 -0.7242  0.8710 -0.8583
26650SOL    HW285271   0.191   1.262   6.440  0.4197  1.6322 -0.6185
26651SOL     OW85272   4.099   8.251   0.835  0.2590 -0.3071 -0.1743
26651SOL    HW185273   4.133   8.170   0.798  1.9621 -0.3214  1.2698
26651SOL    HW285274   4.099   8.313   0.762 -0.3742 -1.3771 -1.1206
26652SOL     OW85275   0.912   7.458  10.749  0.3323  0.0153  0.2135
26652SOL    HW185276   0.904   7.366  10.771 -0.0185 -0.0071  0.0147
26652SOL    HW285277   0.856   7.469  10.671  0.6735  0.3133  0.0068
26653SOL     OW85278   4.140   8.015   8.493  0.3640  0.7997 -0.5031
26653SOL    HW185279   4.056   7.982   8.528  1.6899 -1.5837  0.7031
26653SOL    HW285280   4.124   8.026   8.400 -1.1682 -0.1105 -0.3907
26654SOL     OW85281   3.888   9.524  11.796  0.8291  0.0687  0.0416
26654SOL    HW185282   3.983   9.522  11.811  0.7663  0.4440  0.5208
26654SOL    HW285283   3.876   9.586  11.725  1.0118 -0.6430 -0.6217
26655SOL     OW85284   5.716   0.300   2.574  0.1599 -0.0074 -0.2387
26655SOL    HW185285   5.800   0.294   2.528  0.9601 -0.8373  1.2405
26655SOL    HW285286   5.653   0.323   2.506  1.1586 -1.7828 -1.8654
26656SOL     OW85287   0.913   4.383   5.787 -0.3166 -0.1272 -0.6756
26656SOL    HW185288   0.987   4.423   5.741 -0.4430  0.5494 -0.3030
26656SOL    HW285289   0.931   4.290   5.786 -0.4150 -0.1457 -2.2754
26657SOL     OW85290  10.666   7.636   6.182 -0.2286 -0.1998  0.0517
26657SOL    HW185291  10.667   7.569   6.250 -1.5162 -0.2400  0.0510
26657SOL    HW285292  10.606   7.602   6.116  0.0609  0.4034 -0.5305
26658SOL     OW85293   8.376   1.819   9.744 -0.3502  0.2536  0.8379
26658SOL    HW185294   8.457   1.789   9.786 -1.1009 -0.2622  1.9713
26658SOL    HW285295   8.345   1.890   9.801 -1.5963 -0.7208  1.4522
26659SOL     OW85296   8.453   0.549  10.816 -0.3575 -0.1255  0.2511
26659SOL    HW185297   8.433   0.548  10.909  0.5605 -0.3572  0.4597
26659SOL    HW285298   8.546   0.573  10.812 -0.3462 -0.2757 -0.5873
26660SOL     OW85299  10.993   5.778  11.420 -0.0079 -0.3346  0.3520
26660SOL    HW185300  11.058   5.842  11.390  0.0430 -0.3323  0.4666
26660SOL    HW285301  10.917   5.792  11.363 -0.3609  0.4969  1.0127
26661SOL     OW85302   5.518   4.591  10.580  0.5182  0.2514 -0.7823
26661SOL    HW185303   5.468   4.623  10.656  0.0286  0.9056 -1.3718
26661SOL    HW285304   5.452   4.579  10.512  0.8901 -0.7850 -0.9728
26662SOL     OW85305  11.116   9.285  10.227  0.2493 -0.5881 -0.4572
26662SOL    HW185306  11.131   9.285  10.322 -1.9204 -2.2288 -0.0572
26662SOL    HW285307  11.204   9.293  10.190  1.2950 -1.3600  1.6714
26663SOL     OW85308   2.713   6.231   3.721 -0.4343 -0.1249 -0.4154
26663SOL    HW185309   2.726   6.186   3.805 -0.9149 -0.0195 -0.2782
26663SOL    HW285310   2.727   6.323   3.741 -0.5148 -0.1036 -0.4536
26664SOL     OW85311   1.394   9.402  10.290  0.5931 -0.1338  0.3291
26664SOL    HW185312   1.305   9.401  10.327  0.0928  0.0881 -0.8411
26664SOL    HW285313   1.394   9.331  10.225  0.5588  1.2873 -1.2719
26665SOL     OW85314   8.312   2.168   4.918  0.4284 -0.6084  0.7707
26665SOL    HW185315   8.358   2.135   4.841 -2.6629 -1.1941 -1.0133
26665SOL    HW285316   8.347   2.116   4.991  2.0914 -1.3925 -0.5208
26666SOL     OW85317   4.158   1.664  10.151 -0.1012 -0.6161  0.0394
26666SOL    HW185318   4.145   1.692  10.061  0.7436 -0.4221 -0.0316
26666SOL    HW285319   4.167   1.746  10.201  1.1142 -0.7260  0.0268
26667SOL     OW85320   0.622  11.598   1.992 -0.1000  0.1034  0.0622
26667SOL    HW185321   0.609  11.643   1.908 -1.3030 -4.1042 -2.3158
26667SOL    HW285322   0.705  11.553   1.982  0.3626  0.5231  1.7425
26668SOL     OW85323   9.232   2.233  10.213 -0.1335  0.3542  0.0332
26668SOL    HW185324   9.144   2.221  10.177  0.4390 -0.7637 -1.0536
26668SOL    HW285325   9.223   2.309  10.272 -1.2316  1.9178 -2.0149
26669SOL     OW85326   7.987   9.830   3.985 -0.3464 -0.2180  0.3984
26669SOL    HW185327   7.986   9.735   3.974  0.0140 -0.2344  0.4701
26669SOL    HW285328   8.077   9.849   4.013 -0.3984  0.1495  0.3155
26670SOL     OW85329  11.779  10.354   9.503  0.0897  0.5209 -0.2125
26670SOL    HW185330  11.856  10.410   9.490  3.1423 -2.8527  1.6481
26670SOL    HW285331  11.741  10.385   9.585  1.1843  0.4909  0.3215
26671SOL     OW85332   3.061   3.589   3.440 -0.1409  0.1823 -0.3456
26671SOL    HW185333   3.129   3.625   3.383 -0.5700  1.7142  0.0662
26671SOL    HW285334   2.979   3.618   3.401 -0.4879  0.1400  0.3364
26672SOL     OW85335   3.719   2.967   5.308 -0.2504 -0.4437  0.1235
26672SOL    HW185336   3.637   3.015   5.316  0.9955  1.5516  2.1228
26672SOL    HW285337   3.692   2.877   5.288 -3.0672 -0.3197  2.5701
26673SOL     OW85338   7.758   4.928   4.743  0.1912 -1.0899 -0.1018
26673SOL    HW185339   7.803   4.976   4.673 -1.2396  0.8450  0.2143
26673SOL    HW285340   7.803   4.954   4.823 -0.5285 -0.2923  0.0606
26674SOL     OW85341   1.589   5.076   9.698 -0.7038  0.0874 -0.2857
26674SOL    HW185342   1.546   5.065   9.783  0.9308  0.5008  0.6569
26674SOL    HW285343   1.677   5.042   9.712 -0.2557  0.6271 -1.6711
26675SOL     OW85344   5.432   9.763   1.333 -0.1075  0.1144  0.2964
26675SOL    HW185345   5.431   9.847   1.378  2.2777  0.5749 -0.3510
26675SOL    HW285346   5.421   9.698   1.402 -1.7967  0.9008  0.8262
26676SOL     OW85347   3.719   4.130   3.224  0.3427 -0.3454  0.3752
26676SOL    HW185348   3.777   4.198   3.189  1.3322 -0.8209  1.0431
26676SOL    HW285349   3.723   4.141   3.319 -1.4793  0.2566  0.4149
26677SOL     OW85350   6.292   7.133   6.522 -0.0308 -0.0950  0.8263
26677SOL    HW185351   6.302   7.190   6.599 -1.9422 -0.0003  1.0557
26677SOL    HW285352   6.238   7.061   6.553  0.1829 -0.6820 -0.1360
26678SOL     OW85353   4.386   7.718   9.891 -0.0456 -0.1160  0.0656
26678SOL    HW185354   4.321   7.784   9.916 -1.2405 -0.9482 -0.7428
26678SOL    HW285355   4.391   7.725   9.796 -0.8644 -1.7523 -0.1409
26679SOL     OW85356   7.657   2.673   1.227  0.0297 -0.0500  0.5646
26679SOL    HW185357   7.618   2.636   1.148 -0.4046  1.0205  0.2661
26679SOL    HW285358   7.750   2.682   1.207  0.4617 -2.3975  1.1945
26680SOL     OW85359   7.894   5.501   9.764 -0.3363  0.1027  0.6402
26680SOL    HW185360   7.884   5.487   9.858 -0.6974 -1.5816  0.3748
26680SOL    HW285361   7.845   5.581   9.746 -0.7468  0.1192  1.7913
26681SOL     OW85362  11.506   2.516   3.504 -0.0117  0.0607  0.2995
26681SOL    HW185363  11.445   2.557   3.565  0.2508  1.2222 -0.1958
26681SOL    HW285364  11.593   2.533   3.541  0.0546 -2.1706  1.3721
26682SOL     OW85365   5.110   3.481   3.140  0.3951  0.7184 -0.2704
26682SOL    HW185366   5.192   3.468   3.092 -0.1364 -0.4100 -0.9299
26682SOL    HW285367   5.079   3.567   3.111  1.3290  1.1539 -0.0148
26683SOL     OW85368  11.582   8.213   7.160 -0.0388  0.3299  0.4902
26683SOL    HW185369  11.512   8.224   7.096  0.1673  0.6694  0.3224
26683SOL    HW285370  11.662   8.237   7.113 -0.0252  1.7977  1.2174
26684SOL     OW85371   6.588   5.978   7.955 -0.3923  0.2623 -0.0259
26684SOL    HW185372   6.533   5.906   7.924  0.8942  0.0538 -1.9590
26684SOL    HW285373   6.652   5.936   8.012  0.8838 -0.3323 -1.8127
26685SOL     OW85374   5.248   8.454   3.905  0.3081 -0.0887 -0.1351
26685SOL    HW185375   5.200   8.394   3.847  2.1026 -2.1852  0.4099
26685SOL    HW285376   5.306   8.503   3.847 -0.0307 -0.0385 -0.4314
26686SOL     OW85377   5.791   6.303   0.153 -0.5111 -0.2519 -0.2132
26686SOL    HW185378   5.778   6.276   0.062  0.3215 -1.4742  0.0064
26686SOL    HW285379   5.704   6.298   0.191 -0.5804 -1.5581 -0.4906
26687SOL     OW85380   4.832   8.853  11.672 -0.2683  0.1770 -0.4641
26687SOL    HW185381   4.810   8.763  11.649 -2.0438  0.2622  0.7335
26687SOL    HW285382   4.928   8.853  11.678 -0.2426 -1.6865 -0.2329
26688SOL     OW85383   6.194   1.918   3.540  0.3340  0.1155 -0.4320
26688SOL    HW185384   6.198   1.849   3.475  0.2487  0.2973 -0.6324
26688SOL    HW285385   6.139   1.986   3.500 -0.0743  0.0472 -0.0001
26689SOL     OW85386   1.720   8.040   0.291  0.1010  0.3927 -0.0023
26689SOL    HW185387   1.724   8.060   0.198  5.1841  2.1351  0.2792
26689SOL    HW285388   1.702   8.124   0.333  0.7661  0.2095  0.6644
26690SOL     OW85389   4.173   4.872   9.635 -0.0451  0.1165 -0.4884
26690SOL    HW185390   4.093   4.924   9.630 -0.9746 -1.2326 -0.2367
26690SOL    HW285391   4.201   4.862   9.544 -0.3103  0.3855 -0.5982
26691SOL     OW85392   3.490   1.319   7.429  0.1625  0.0335 -0.3134
26691SOL    HW185393   3.504   1.357   7.343 -2.1829  2.8556  0.3891
26691SOL    HW285394   3.535   1.378   7.490  1.1203 -1.4759  0.5299
26692SOL     OW85395   5.645   0.610   4.647  0.4501  0.2389 -0.2842
26692SOL    HW185396   5.714   0.668   4.615  1.3082 -0.1032  0.9176
26692SOL    HW285397   5.670   0.523   4.618 -0.1945  0.2753 -1.0016
26693SOL     OW85398   1.994   8.966   7.792  0.1797 -0.0830  0.2854
26693SOL    HW185399   1.919   8.908   7.779 -0.1767  0.4148  0.0693
26693SOL    HW285400   1.960   9.053   7.773  0.7765  0.1675  0.3409
26694SOL     OW85401   7.620   8.702   3.934 -0.0257 -0.0945 -0.6977
26694SOL    HW185402   7.638   8.707   3.840  0.3879  0.1099 -0.6087
26694SOL    HW285403   7.706   8.702   3.975 -0.2227  1.1528 -0.2537
26695SOL     OW85404   3.995  11.153   6.417  0.5895  0.1931  0.3780
26695SOL    HW185405   4.055  11.168   6.344  0.9572  1.2793  0.8859
26695SOL    HW285406   3.920  11.210   6.399 -0.9407 -2.0698 -0.9098
26696SOL     OW85407   6.644   9.448   4.650 -0.3757  0.3939 -0.8339
26696SOL    HW185408   6.595   9.531   4.657  1.4881  1.4332  0.9693
26696SOL    HW285409   6.709   9.465   4.582  0.4644  0.6993  0.0258
26697SOL     OW85410   6.863   8.398   3.699  0.4001  0.4687  0.3130
26697SOL    HW185411   6.786   8.355   3.663  1.1196 -0.9744  0.4138
26697SOL    HW285412   6.936   8.364   3.647  1.0144  1.4530  0.5119
26698SOL     OW85413   1.073   9.765   6.785 -0.3095 -0.1489 -0.0942
26698SOL    HW185414   1.016   9.701   6.742 -1.3239  0.3756  0.4498
26698SOL    HW285415   1.135   9.792   6.717 -0.4188 -1.0584 -0.5662
26699SOL     OW85416   4.125   0.421   8.161 -0.0750 -0.3881  0.1161
26699SOL    HW185417   4.172   0.504   8.158 -0.3707 -0.2438 -1.8741
26699SOL    HW285418   4.122   0.391   8.070 -0.8608 -2.0819  0.6459
26700SOL     OW85419   2.785   4.349  11.743 -0.5107 -0.3957 -0.3252
26700SOL    HW185420   2.819   4.260  11.749 -0.6237 -0.3516  1.3307
26700SOL    HW285421   2.863   4.404  11.743 -0.4557 -0.4673 -0.9216
26701SOL     OW85422   6.029   5.392   5.905 -0.0835 -0.1054  0.0470
26701SOL    HW185423   6.111   5.368   5.947 -0.0630 -1.6868 -0.7924
26701SOL    HW285424   6.002   5.474   5.947  2.9266  1.5913 -1.0478
26702SOL     OW85425   4.721   7.061   4.733  0.2308 -0.3856 -0.3156
26702SOL    HW185426   4.816   7.065   4.744  0.3187  0.6408 -1.2670
26702SOL    HW285427   4.687   7.044   4.820  1.2620 -0.1971  0.1354
26703SOL     OW85428   2.689   5.083   6.618 -0.0979  0.3462 -0.4917
26703SOL    HW185429   2.757   5.096   6.552  0.5626 -1.1756 -0.1438
26703SOL    HW285430   2.631   5.158   6.608  2.0270  2.1242 -0.3010
26704SOL     OW85431  10.991   2.112   1.358  0.1942  0.6327  0.2994
26704SOL    HW185432  11.055   2.134   1.426 -1.8003  0.2796  2.4281
26704SOL    HW285433  10.922   2.177   1.369 -1.0941 -0.6282 -0.0818
26705SOL     OW85434   7.597   4.779  10.647 -0.1920  0.2753 -0.0464
26705SOL    HW185435   7.677   4.729  10.661  0.1073  0.4743 -0.9503
26705SOL    HW285436   7.624   4.871  10.655 -0.4377  0.3305  0.1682
26706SOL     OW85437   2.297   3.813  10.084  0.4174 -0.8447 -0.1223
26706SOL    HW185438   2.279   3.795  10.176 -1.1266  1.7423  0.1906
26706SOL    HW285439   2.215   3.792  10.038  0.3799  0.0966 -0.5171
26707SOL     OW85440   2.174   3.878   0.403 -0.0290 -0.4701 -0.2658
26707SOL    HW185441   2.232   3.836   0.339  0.4294  1.4833 -1.1941
26707SOL    HW285442   2.094   3.824   0.401 -0.2888 -0.1149 -3.0015
26708SOL     OW85443   8.085   1.442  10.926  0.2788  0.1987 -0.5436
26708SOL    HW185444   8.015   1.479  10.872 -0.1625  0.9638  0.5052
26708SOL    HW285445   8.135   1.387  10.867 -1.0656 -0.1580 -1.3845
26709SOL     OW85446   4.571   8.694   9.942 -0.5449 -0.1727  0.4156
26709SOL    HW185447   4.648   8.722   9.993  0.6134 -0.8095 -0.9155
26709SOL    HW285448   4.548   8.771   9.889 -0.0598 -0.3503 -0.0633
26710SOL     OW85449   7.508   7.201   9.018  0.3876 -0.0912  0.3462
26710SOL    HW185450   7.482   7.109   9.019 -3.8447  0.8664  0.6884
26710SOL    HW285451   7.512   7.223   8.925  0.5439 -0.4284  0.2707
26711SOL     OW85452   0.831   3.085  10.394 -0.0601  0.1592  0.1824
26711SOL    HW185453   0.794   3.164  10.432  2.4555  1.7093 -0.3400
26711SOL    HW285454   0.831   3.101  10.299 -2.4845 -1.9187 -0.2725
26712SOL     OW85455   5.415   1.020   4.274  0.6787 -0.2379 -0.1484
26712SOL    HW185456   5.322   1.043   4.278  0.9930  0.9787  1.6348
26712SOL    HW285457   5.455   1.089   4.222  0.8978  0.6304  1.1141
26713SOL     OW85458  10.538   9.072   5.722  0.2304 -0.3000  0.3375
26713SOL    HW185459  10.443   9.079   5.724  0.3280  1.7642  0.3152
26713SOL    HW285460  10.558   9.031   5.637 -0.6142  0.0439 -0.0356
26714SOL     OW85461  11.466   5.113   3.600 -0.1151  0.0817  0.7052
26714SOL    HW185462  11.521   5.190   3.617  1.2576 -1.0091  1.3467
26714SOL    HW285463  11.528   5.041   3.588 -1.3859 -1.0386  0.6007
26715SOL     OW85464   8.131   6.574   6.427 -0.0204 -0.6192  0.2498
26715SOL    HW185465   8.181   6.561   6.346 -0.6702  1.9641 -0.6752
26715SOL    HW285466   8.184   6.533   6.495  0.4272 -3.0836 -1.4784
26716SOL     OW85467   6.504   4.744   2.029 -0.0085 -0.4047  0.2305
26716SOL    HW185468   6.470   4.783   1.948  1.2937 -0.6274 -0.4601
26716SOL    HW285469   6.486   4.650   2.020 -0.3246 -0.3609  0.4280
26717SOL     OW85470   2.262  10.247   8.302  0.0032  0.1041 -0.1530
26717SOL    HW185471   2.282  10.321   8.359 -0.6122  1.2693 -1.3984
26717SOL    HW285472   2.335  10.186   8.314 -0.4396 -0.0069  2.3426
26718SOL     OW85473   0.137   4.662   9.955  0.1268 -1.4566 -0.4507
26718SOL    HW185474   0.167   4.684  10.043 -0.6540  0.6643 -0.6663
26718SOL    HW285475   0.066   4.599   9.970  0.0887 -1.2281  0.4245
26719SOL     OW85476   3.979  11.168   9.535 -0.4952  0.0573  0.1582
26719SOL    HW185477   4.057  11.224   9.539  1.3098 -2.3239 -0.0507
26719SOL    HW285478   4.012  11.082   9.512 -3.2158 -1.0883  0.2058
26720SOL     OW85479   9.248   0.027   6.431 -0.2239 -0.1757  0.1575
26720SOL    HW185480   9.240   0.105   6.486  1.3587 -0.8552  1.4167
26720SOL    HW285481   9.339   0.028   6.402  0.3814 -2.4939  1.7143
26721SOL     OW85482   9.704   3.944   8.544  0.0998 -0.4359  0.3217
26721SOL    HW185483   9.696   4.036   8.569 -0.6173 -1.1174  2.9688
26721SOL    HW285484   9.795   3.922   8.566  1.0856  0.1730 -2.6889
26722SOL     OW85485   9.215   2.529   4.820 -0.1868 -0.0001 -0.1009
26722SOL    HW185486   9.134   2.526   4.770 -1.3030  0.6067  1.5606
26722SOL    HW285487   9.186   2.526   4.912  1.7782 -1.6545  0.5324
26723SOL     OW85488   0.276   7.218   2.151 -0.0921  0.3750  0.2539
26723SOL    HW185489   0.306   7.154   2.215 -0.2192  1.1948  1.1584
26723SOL    HW285490   0.260   7.167   2.072  0.1098 -0.6528  0.8561
26724SOL     OW85491   5.683   9.561   4.558 -0.1822 -0.3914  0.0466
26724SOL    HW185492   5.751   9.504   4.522 -0.7323 -1.3764  0.5432
26724SOL    HW285493   5.605   9.506   4.565 -1.1746  0.8192 -0.8937
26725SOL     OW85494   0.039   4.810   3.371  0.1872  0.7312  0.3392
26725SOL    HW185495  -0.033   4.770   3.322  0.3304  2.4117 -1.3247
26725SOL    HW285496   0.087   4.735   3.408 -1.2975 -0.4797 -0.0875
26726SOL     OW85497   0.823   7.960  10.277 -0.1871  0.2927  0.5244
26726SOL    HW185498   0.903   8.011  10.281  1.0892 -1.1365 -2.8407
26726SOL    HW285499   0.846   7.875  10.312 -0.1845 -0.1262 -0.4562
26727SOL     OW85500   7.715   0.092   0.124  0.4277 -0.4112  0.3747
26727SOL    HW185501   7.681   0.028   0.061  1.9097 -0.3654 -0.5420
26727SOL    HW285502   7.796   0.053   0.156  0.7297  0.4646  0.7113
26728SOL     OW85503  11.761   2.068  11.299 -0.1891  0.4662  0.2311
26728SOL    HW185504  11.695   2.027  11.354 -1.0621 -0.2190 -1.2764
26728SOL    HW285505  11.740   2.162  11.302 -1.8642  0.1689 -1.0000
26729SOL     OW85506   9.437   6.688   9.074  0.0314  0.1266 -0.2339
26729SOL    HW185507   9.480   6.747   9.012  2.0777  1.1942  2.0072
26729SOL    HW285508   9.485   6.701   9.156 -1.8110 -2.0111  1.3095
26730SOL     OW85509   5.171   6.593   6.817 -0.6549  0.3631  0.6025
26730SOL    HW185510   5.207   6.583   6.729  0.1385  1.5700  0.7630
26730SOL    HW285511   5.086   6.633   6.805 -0.8875 -0.1993  0.3493
26731SOL     OW85512   1.766   0.602   9.043 -0.1629 -0.3207  0.1217
26731SOL    HW185513   1.747   0.693   9.067 -0.0788 -0.2461 -0.0844
26731SOL    HW285514   1.861   0.596   9.047 -0.2445 -0.8383  1.6628
26732SOL     OW85515   7.930   2.489   5.561  0.0997 -0.0959 -0.9758
26732SOL    HW185516   8.025   2.487   5.576 -0.1513  0.0202  0.8544
26732SOL    HW285517   7.902   2.398   5.572 -0.3692  0.2863  1.5228
26733SOL     OW85518   0.720   9.499   8.750  0.0414 -0.5265 -0.5124
26733SOL    HW185519   0.755   9.429   8.804 -1.0507 -1.0312 -0.4538
26733SOL    HW285520   0.793   9.562   8.743  0.7887 -1.3124  0.0152
26734SOL     OW85521   4.697  10.274   7.034  0.5328 -0.4238  0.3761
26734SOL    HW185522   4.708  10.352   6.979  1.7573  0.6331  2.0111
26734SOL    HW285523   4.643  10.215   6.982  1.2980  0.6682 -1.7733
26735SOL     OW85524   6.270   6.671   7.426 -0.1932  0.6811  0.1010
26735SOL    HW185525   6.287   6.678   7.520 -2.2576  3.1211  0.3968
26735SOL    HW285526   6.297   6.755   7.390 -1.5164  0.6431 -1.0815
26736SOL     OW85527   3.995   9.092   7.020 -0.0335  0.4108 -0.0305
26736SOL    HW185528   4.069   9.127   7.069  0.5272  1.9718 -1.9017
26736SOL    HW285529   3.948   9.037   7.084  0.9763  1.8576  2.0611
26737SOL     OW85530   8.977   3.117   0.502 -0.8968 -0.0109  0.2756
26737SOL    HW185531   8.987   3.095   0.595  2.5158  1.0882  0.3120
26737SOL    HW285532   8.951   3.209   0.502 -1.9484 -0.3010  0.1196
26738SOL     OW85533   4.455   7.996   7.643 -0.0265 -0.2066  0.1585
26738SOL    HW185534   4.507   7.917   7.657  1.3154  0.5317 -0.4824
26738SOL    HW285535   4.428   7.991   7.551 -1.0637 -0.5519  0.4670
26739SOL     OW85536   0.758   9.448   6.242 -0.9492 -0.2712 -0.3014
26739SOL    HW185537   0.811   9.520   6.209 -1.2125 -0.5023 -1.2836
26739SOL    HW285538   0.714   9.483   6.319 -1.5722  0.8336 -1.1370
26740SOL     OW85539   9.011   8.036   2.281 -0.0743 -0.0706  0.0210
26740SOL    HW185540   8.971   8.089   2.350  1.0398  0.2781  0.4084
26740SOL    HW285541   8.945   7.969   2.262 -1.4712  1.3685 -0.4186
26741SOL     OW85542  11.310   0.104   9.901  0.6292 -0.3207  0.2314
26741SOL    HW185543  11.253   0.154   9.959 -1.8721 -0.8302 -1.5630
26741SOL    HW285544  11.266   0.019   9.893  2.5348 -1.3190 -0.0199
26742SOL     OW85545   1.449   2.733  10.750 -0.1730 -0.0661  0.4691
26742SOL    HW185546   1.435   2.827  10.735  1.7195  0.0672 -0.8236
26742SOL    HW285547   1.541   2.727  10.775 -0.0110 -1.6706 -0.4132
26743SOL     OW85548  10.378   5.877   9.798 -0.4211 -0.0149 -0.0549
26743SOL    HW185549  10.296   5.926   9.791 -0.9093 -0.8472 -0.2956
26743SOL    HW285550  10.375   5.814   9.726  0.2387 -0.3306  0.1835
26744SOL     OW85551   0.868   0.882  10.660  0.2254  0.7708 -0.2430
26744SOL    HW185552   0.875   0.819  10.732  0.5660  0.8200 -0.2323
26744SOL    HW285553   0.924   0.955  10.687  2.2197 -0.1766 -1.5820
26745SOL     OW85554   1.363  11.254   7.792  0.1571  0.1314  0.4127
26745SOL    HW185555   1.433  11.277   7.732 -1.4914  3.0115 -0.6140
26745SOL    HW285556   1.404  11.252   7.878  1.8121 -0.1301 -0.3539
26746SOL     OW85557  11.245   6.560  10.880 -0.5922  0.0173  0.4679
26746SOL    HW185558  11.317   6.554  10.942 -1.3737  0.9585  1.5141
26746SOL    HW285559  11.281   6.529  10.797  1.5264  1.9633  0.5607
26747SOL     OW85560   3.046   4.734   4.154  0.1473 -0.4078  0.5712
26747SOL    HW185561   2.983   4.719   4.225  2.2369 -1.1765  2.3691
26747SOL    HW285562   3.055   4.649   4.112  0.4868 -0.4721  0.7699
26748SOL     OW85563   0.833   5.124   4.987  0.2394 -0.3903 -0.4606
26748SOL    HW185564   0.792   5.192   5.041 -1.5507 -0.0034 -2.1927
26748SOL    HW285565   0.892   5.173   4.929 -1.3727 -0.1732 -2.0050
26749SOL     OW85566   3.127   1.960   4.739 -0.1277  0.0736 -0.5725
26749SOL    HW185567   3.116   1.956   4.834 -0.4582 -1.4602 -0.6513
26749SOL    HW285568   3.221   1.952   4.725  0.0967  1.8539 -0.3444
26750SOL     OW85569   0.601  10.859   9.719 -0.8958  0.0590  0.2898
26750SOL    HW185570   0.602  10.764   9.707  0.6266 -0.0237  0.7694
26750SOL    HW285571   0.512  10.885   9.697 -1.1530 -1.3852 -0.5453
26751SOL     OW85572   4.092  10.546   0.911  0.0320  0.2710 -0.1033
26751SOL    HW185573   4.109  10.454   0.890  0.5765  0.0306  1.2753
26751SOL    HW285574   4.012  10.567   0.864 -0.5216 -1.1397  0.1655
26752SOL     OW85575   9.586   5.919   8.577 -0.2833 -0.0890  0.2528
26752SOL    HW185576   9.494   5.936   8.562 -0.8197 -1.6710  1.4571
26752SOL    HW285577   9.588   5.864   8.655  1.5698 -1.4797 -0.6955
26753SOL     OW85578   0.507   8.678   1.912  0.5776  0.1827 -0.2695
26753SOL    HW185579   0.429   8.652   1.864 -0.4236  2.0601  0.2742
26753SOL    HW285580   0.474   8.715   1.994  2.0700  0.3646  0.2797
26754SOL     OW85581   3.066   9.513   5.722  0.2481  0.1871 -0.1351
26754SOL    HW185582   3.067   9.584   5.786  0.6647  0.2252 -0.1796
26754SOL    HW285583   3.142   9.459   5.745 -0.5972 -0.7730  0.4931
26755SOL     OW85584  11.295   1.597   7.364 -0.3969 -0.3267 -0.2988
26755SOL    HW185585  11.263   1.556   7.444 -1.8825 -0.7422 -1.0786
26755SOL    HW285586  11.354   1.666   7.394 -0.5977 -0.7527  1.1272
26756SOL     OW85587   0.648   5.473   5.988  0.0074 -0.0217 -0.1571
26756SOL    HW185588   0.607   5.559   5.979  0.6944  0.4410  0.8904
26756SOL    HW285589   0.578   5.417   6.022 -0.5931 -0.0267 -1.3603
26757SOL     OW85590   0.900   9.873   8.902 -0.3770 -0.6443  0.1572
26757SOL    HW185591   0.843   9.848   8.974  0.5353 -0.0403  1.1167
26757SOL    HW285592   0.882   9.809   8.833 -1.4551 -1.0684  0.8216
26758SOL     OW85593   8.716   2.118   6.130 -0.3023 -0.2422  0.1609
26758SOL    HW185594   8.748   2.208   6.144  0.1659 -0.2897 -0.5492
26758SOL    HW285595   8.795   2.064   6.135 -0.2454 -0.3720 -1.5330
26759SOL     OW85596   9.772  11.480  10.827  0.0367  0.0538  0.6463
26759SOL    HW185597   9.728  11.395  10.831  0.9664 -0.5252 -0.6413
26759SOL    HW285598   9.776  11.500  10.733 -1.7490  2.3899  0.9779
26760SOL     OW85599   6.307  10.773   5.287  0.2532  0.2952 -0.4324
26760SOL    HW185600   6.241  10.756   5.220 -0.5278 -2.1843  0.8392
26760SOL    HW285601   6.262  10.828   5.351  0.1961  0.5819 -0.7152
26761SOL     OW85602   1.331   8.368   4.961  0.3090  0.1579 -0.0515
26761SOL    HW185603   1.296   8.282   4.937 -0.9948  0.0642  1.9302
26761SOL    HW285604   1.364   8.357   5.050  2.3749  1.1413 -0.6469
26762SOL     OW85605   1.635   2.044  11.620 -0.2746 -0.1468 -0.5883
26762SOL    HW185606   1.638   1.992  11.701 -0.5718  1.2812  0.3669
26762SOL    HW285607   1.541   2.057  11.605 -0.2734 -1.3358 -1.8105
26763SOL     OW85608   5.216   1.119   1.091 -0.6307  0.1875  0.2400
26763SOL    HW185609   5.264   1.057   1.035 -1.1476  0.0776 -0.0924
26763SOL    HW285610   5.131   1.129   1.048 -0.9139  0.3674  0.8259
26764SOL     OW85611   4.606   5.525   3.458  0.2324  0.8198 -0.7080
26764SOL    HW185612   4.654   5.489   3.532 -0.4982 -2.6598 -1.7317
26764SOL    HW285613   4.553   5.595   3.495  0.3274 -0.4042  1.9569
26765SOL     OW85614   0.920  11.321   9.265  0.1254 -0.7002  0.0770
26765SOL    HW185615   0.909  11.404   9.219  1.6846 -0.5164 -0.0143
26765SOL    HW285616   0.858  11.325   9.338 -1.5443 -0.5102 -1.2878
26766SOL     OW85617  10.673   7.976   4.227  0.0314 -0.3070  0.0650
26766SOL    HW185618  10.737   7.912   4.258  2.6365  2.0615  0.0587
26766SOL    HW285619  10.675   8.045   4.294 -2.9183 -0.3012  0.2669
26767SOL     OW85620  11.638   8.906   2.079 -0.5050 -0.3043  0.6425
26767SOL    HW185621  11.699   8.887   2.151  0.7133 -1.3689 -0.6172
26767SOL    HW285622  11.568   8.841   2.089  0.3892 -1.3914  0.0754
26768SOL     OW85623   7.963  10.131  11.757 -0.3001  0.0297 -0.0080
26768SOL    HW185624   8.000  10.165  11.676 -0.4619  0.7213  0.1970
26768SOL    HW285625   7.933  10.043  11.736 -0.7038  0.3525 -0.8037
26769SOL     OW85626   0.588   9.609   9.496  0.3375 -0.0186  0.1514
26769SOL    HW185627   0.638   9.690   9.507 -0.0257  0.1283  0.7401
26769SOL    HW285628   0.529   9.627   9.423 -0.1879  0.4795  0.6848
26770SOL     OW85629   0.961   0.421  10.827 -0.0365  0.5614 -0.0232
26770SOL    HW185630   0.894   0.373  10.876 -2.0199  0.4920 -2.6170
26770SOL    HW285631   1.044   0.387  10.861 -1.2960 -0.6192  2.1058
26771SOL     OW85632   8.783   8.572   9.891  0.3390  0.2540 -0.4826
26771SOL    HW185633   8.726   8.496   9.905  1.9446 -0.6205  2.0912
26771SOL    HW285634   8.729   8.634   9.843 -2.2918 -1.0905  0.5277
26772SOL     OW85635  10.846  11.259   9.344 -0.1647  0.5653  0.0357
26772SOL    HW185636  10.863  11.188   9.282 -0.1396  2.0621 -1.7849
26772SOL    HW285637  10.927  11.267   9.394  0.6779  0.7301 -1.2882
26773SOL     OW85638   6.883   1.694   2.682  0.0780  0.0104 -0.2406
26773SOL    HW185639   6.876   1.618   2.625  1.9392 -0.1611 -0.3020
26773SOL    HW285640   6.948   1.750   2.639  1.5521 -0.1339  1.6849
26774SOL     OW85641   5.994  10.124   0.755 -0.4229 -0.1573  0.1275
26774SOL    HW185642   6.045  10.117   0.675 -0.6367 -0.8055  0.0457
26774SOL    HW285643   5.957  10.212   0.753  1.0822  0.5087  0.4246
26775SOL     OW85644   9.868  10.605   8.405  0.2527  0.1782  0.0368
26775SOL    HW185645   9.794  10.665   8.399 -1.3769 -1.5926  1.0941
26775SOL    HW285646   9.885  10.599   8.499  0.5506 -0.7824 -0.0681
26776SOL     OW85647   8.501   3.891   9.283  0.1291 -0.1631  0.2584
26776SOL    HW185648   8.563   3.818   9.287  0.3824  0.0629  0.4990
26776SOL    HW285649   8.533   3.947   9.213  0.1707 -0.0688  0.3526
26777SOL     OW85650   0.659   5.354   6.930 -0.5119 -0.3210 -0.5243
26777SOL    HW185651   0.654   5.406   7.010 -1.1861 -0.2287 -0.6130
26777SOL    HW285652   0.680   5.266   6.960  0.2451 -0.0782 -0.3384
26778SOL     OW85653   0.426   2.847   7.911  0.0564 -0.0903  0.1023
26778SOL    HW185654   0.438   2.761   7.952  2.9291 -1.0746 -2.4471
26778SOL    HW285655   0.503   2.897   7.938 -0.6818  1.0811  0.0791
26779SOL     OW85656   5.263   5.923   4.372  0.0203 -0.0559  0.4539
26779SOL    HW185657   5.348   5.944   4.410 -0.7717  0.2102  2.1581
26779SOL    HW285658   5.224   5.859   4.432 -0.8186 -0.4983 -0.5198
26780SOL     OW85659   8.866   4.973   4.837  0.1106  0.2519 -0.1490
26780SOL    HW185660   8.931   4.935   4.777  0.3485  0.8834 -0.2958
26780SOL    HW285661   8.894   5.063   4.849 -0.9115  0.6285 -0.4516
26781SOL     OW85662   6.695   8.571   6.535 -0.3334 -0.6044 -0.6172
26781SOL    HW185663   6.697   8.476   6.540 -1.7255 -0.5916  2.1486
26781SOL    HW285664   6.681   8.600   6.626  2.0762  2.3354 -1.0207
26782SOL     OW85665   6.002   7.708  11.626  0.0956  0.1034  0.1981
26782SOL    HW185666   6.000   7.635  11.564 -0.6086  0.5687 -0.3375
26782SOL    HW285667   5.931   7.766  11.598  0.1656  0.6295  1.0678
26783SOL     OW85668   3.652   3.147   9.740  0.3181 -0.2713 -0.1266
26783SOL    HW185669   3.575   3.136   9.685 -0.8194  1.9500  0.9249
26783SOL    HW285670   3.669   3.059   9.775 -1.3026 -0.9355 -0.9035
26784SOL     OW85671   5.978   2.551   4.007 -1.0379 -0.6820 -0.2555
26784SOL    HW185672   6.048   2.499   4.047  0.4025  1.3528  0.0282
26784SOL    HW285673   5.957   2.505   3.926  2.4728 -0.1078 -1.6841
26785SOL     OW85674   1.489   7.782   6.612 -0.5136  0.0956  0.3076
26785SOL    HW185675   1.554   7.724   6.573 -0.9977  0.5955 -1.3035
26785SOL    HW285676   1.537   7.831   6.679  0.0184 -1.7868  1.3934
26786SOL     OW85677   1.892   1.644   3.424 -0.0737  0.3039  0.4937
26786SOL    HW185678   1.873   1.617   3.334  0.8260  0.8832  0.1132
26786SOL    HW285679   1.828   1.711   3.443  1.4458  2.2211 -0.7649
26787SOL     OW85680   3.851   0.618   7.005 -0.8410  0.5746 -0.3649
26787SOL    HW185681   3.858   0.551   6.937 -0.3619  1.3498 -1.1041
26787SOL    HW285682   3.915   0.593   7.071 -0.9631  0.0757 -0.4352
26788SOL     OW85683  10.329  10.628   8.520 -0.6147 -0.2800  0.0662
26788SOL    HW185684  10.298  10.540   8.499 -1.6005 -0.2198  1.1558
26788SOL    HW285685  10.329  10.631   8.616  2.9668 -0.3100  0.2079
26789SOL     OW85686   9.593   4.972  11.652 -0.3499 -0.1974  0.2155
26789SOL    HW185687   9.638   4.975  11.736 -0.8218  0.7971  0.4443
26789SOL    HW285688   9.658   5.002  11.589 -0.0175 -0.8781  0.2226
26790SOL     OW85689   7.260   0.201   8.131 -0.1494  0.3484  0.2518
26790SOL    HW185690   7.262   0.207   8.227  0.1426 -1.4370  0.3962
26790SOL    HW285691   7.176   0.241   8.107 -0.5297  0.2367  1.3047
26791SOL     OW85692   1.526   5.662  11.772  0.3697 -0.2319 -0.3599
26791SOL    HW185693   1.593   5.716  11.814 -1.8101  2.1138  0.3782
26791SOL    HW285694   1.537   5.677  11.679  0.9459  0.0511 -0.2507
26792SOL     OW85695   7.246  10.646   6.724 -0.2758 -0.6312 -0.0349
26792SOL    HW185696   7.216  10.698   6.649  2.2613  0.2672 -0.5277
26792SOL    HW285697   7.243  10.706   6.798  1.0825 -0.2309 -0.2758
26793SOL     OW85698   5.986   3.016   3.728  0.0175 -0.4990 -0.3022
26793SOL    HW185699   6.062   2.981   3.681  0.4031  0.7159 -0.6187
26793SOL    HW285700   6.008   3.003   3.821  0.5486 -0.2950 -0.3964
26794SOL     OW85701   5.699   6.442   9.614  0.0184  0.4358 -0.0482
26794SOL    HW185702   5.687   6.537   9.603  0.9201  0.4101 -1.7456
26794SOL    HW285703   5.714   6.410   9.525  3.1256 -0.7824  0.7721
26795SOL     OW85704  10.231   8.836   8.532 -0.4604 -0.1724 -0.2712
26795SOL    HW185705  10.207   8.772   8.600 -1.5586  0.9045  0.3927
26795SOL    HW285706  10.321   8.859   8.553 -0.8564  0.3357  1.0114
26796SOL     OW85707   3.425   3.433   2.917 -0.0230  0.2911  0.2393
26796SOL    HW185708   3.390   3.430   2.828  0.5135 -1.5702  0.0555
26796SOL    HW285709   3.349   3.415   2.972  0.1943 -1.6687 -0.0451
26797SOL     OW85710  11.690  10.999  11.714 -0.5886  0.0462  0.1571
26797SOL    HW185711  11.747  11.065  11.675  0.5298 -0.8860  0.1660
26797SOL    HW285712  11.606  11.010  11.670 -0.1347  0.8388 -0.5214
26798SOL     OW85713  11.132  11.557   8.466  0.3496 -0.3685 -0.5593
26798SOL    HW185714  11.195  11.495   8.501 -1.0855 -1.6050 -0.0467
26798SOL    HW285715  11.116  11.528   8.376  0.8622  0.2470 -0.8590
26799SOL     OW85716  10.781  11.482   9.166  0.0749  0.2971 -0.3292
26799SOL    HW185717  10.789  11.397   9.210  0.3474  0.2245 -0.5197
26799SOL    HW285718  10.715  11.529   9.217  0.4028  0.2187  0.1720
26800SOL     OW85719   6.395   3.553   7.286 -0.7150  0.1997  0.0589
26800SOL    HW185720   6.409   3.499   7.208 -1.1922 -1.5028  1.0996
26800SOL    HW285721   6.406   3.492   7.359 -3.5370  0.9508  1.2230
26801SOL     OW85722   2.321  10.008  11.799  0.4197 -0.4800  0.2933
26801SOL    HW185723   2.366   9.960  11.730  0.2210 -1.2501  0.6805
26801SOL    HW285724   2.270   9.941  11.845 -0.3405  0.2085  0.4740
26802SOL     OW85725   6.618   8.730   7.424  0.3308  0.2036 -0.3593
26802SOL    HW185726   6.581   8.721   7.336 -1.1230  0.5771  0.1745
26802SOL    HW285727   6.639   8.641   7.451 -0.6148 -0.0827 -0.5266
26803SOL     OW85728  10.209   0.262   1.404  0.0261  0.1372 -0.3293
26803SOL    HW185729  10.145   0.277   1.474  0.3902  0.8247 -0.1336
26803SOL    HW285730  10.292   0.247   1.449 -0.0698 -1.2768 -0.5649
26804SOL     OW85731   7.991   1.289   4.497 -0.3552 -0.1417  1.0061
26804SOL    HW185732   8.014   1.200   4.471 -1.1534 -0.4626  1.3687
26804SOL    HW285733   8.074   1.327   4.525 -0.3594 -1.6040  3.2491
26805SOL     OW85734   9.464   7.290   2.237 -0.0132  0.0200 -0.3385
26805SOL    HW185735   9.526   7.354   2.274 -0.5837  0.7401 -0.6088
26805SOL    HW285736   9.401   7.274   2.306 -0.1566  0.1274 -0.4447
26806SOL     OW85737   5.741  11.549   3.908 -0.1058  0.4666 -0.3136
26806SOL    HW185738   5.738  11.529   3.815 -1.7917  0.1725 -0.2312
26806SOL    HW285739   5.651  11.536   3.938  0.8968 -2.3994  1.9603
26807SOL     OW85740   3.899   3.756   8.669  0.0651 -0.0828  0.3696
26807SOL    HW185741   3.931   3.843   8.645 -1.8261  0.8282  0.9708
26807SOL    HW285742   3.952   3.732   8.745  0.9985  0.2680 -0.1482
26808SOL     OW85743   1.886   0.406   6.109 -0.7280  0.1177  0.3932
26808SOL    HW185744   1.854   0.464   6.041 -0.4681  0.1525  0.3010
26808SOL    HW285745   1.980   0.422   6.113 -0.6901 -0.1289  0.5267
26809SOL     OW85746   5.672   3.450   5.668 -0.0826  0.9102  0.7690
26809SOL    HW185747   5.582   3.418   5.677  0.5916 -0.8380  1.7004
26809SOL    HW285748   5.662   3.541   5.639 -2.1173  0.1784 -1.1283
26810SOL     OW85749   7.871   0.425   6.925  0.3451 -0.1812 -0.1418
26810SOL    HW185750   7.801   0.385   6.874  0.0267  0.2088 -0.0160
26810SOL    HW285751   7.842   0.419   7.016  1.4029 -1.8624  0.1363
26811SOL     OW85752  10.732   4.683   3.193  0.1007 -0.3785  0.2507
26811SOL    HW185753  10.789   4.749   3.151 -1.5524  0.8684 -0.1321
26811SOL    HW285754  10.644   4.708   3.167 -0.6183 -2.6046  0.3645
26812SOL     OW85755   0.737   8.196   1.120  0.8864 -0.3221  0.5909
26812SOL    HW185756   0.686   8.143   1.058  2.5775 -1.1806 -0.1314
26812SOL    HW285757   0.761   8.274   1.071 -1.4033  1.1192  1.5840
26813SOL     OW85758   4.177  10.910   6.718  0.3050  0.5951  0.6578
26813SOL    HW185759   4.268  10.927   6.695 -0.0420  0.6824 -0.7352
26813SOL    HW285760   4.178  10.899   6.813  2.3687 -3.0050  0.3993
26814SOL     OW85761   7.330   1.024   2.552 -0.3587 -0.1339  0.4773
26814SOL    HW185762   7.374   0.946   2.584  3.4823 -0.2997 -4.0633
26814SOL    HW285763   7.285   0.995   2.473  0.0521  1.9262 -0.6004
26815SOL     OW85764   1.262   8.863   9.770 -0.1033 -0.5103 -0.0059
26815SOL    HW185765   1.207   8.919   9.826 -0.6823  0.2338 -1.2827
26815SOL    HW285766   1.233   8.774   9.789 -0.9485 -0.1987  0.1855
26816SOL     OW85767  11.076   5.876   2.639  0.0239  0.1592 -0.3887
26816SOL    HW185768  11.011   5.921   2.694 -2.3144 -1.4431 -1.7121
26816SOL    HW285769  11.075   5.786   2.670  0.8939 -0.1108 -1.1212
26817SOL     OW85770   3.733   2.890   0.578  0.0751  0.2553  0.6027
26817SOL    HW185771   3.645   2.923   0.561 -0.2435 -1.1536 -0.7051
26817SOL    HW285772   3.719   2.811   0.630  0.3951 -0.9667 -1.0846
26818SOL     OW85773   7.377   8.786   0.059  0.3060  0.3426 -0.4204
26818SOL    HW185774   7.442   8.784  -0.011  0.0437  1.5701 -0.7393
26818SOL    HW285775   7.397   8.711   0.114  0.0625 -1.1050 -2.2174
26819SOL     OW85776   0.185   0.055   6.024  0.0145  0.4521 -0.2397
26819SOL    HW185777   0.202   0.029   6.115 -0.0116 -0.0682 -0.3759
26819SOL    HW285778   0.090   0.047   6.015  0.0035  0.6278 -0.2764
26820SOL     OW85779   9.630   1.190   8.641  0.0816  0.3671 -0.1861
26820SOL    HW185780   9.594   1.102   8.625 -3.0728  1.2057  1.3914
26820SOL    HW285781   9.645   1.193   8.735  0.1675  1.5104 -0.2231
26821SOL     OW85782   2.193   2.882   8.663 -0.1962  0.9351  0.1016
26821SOL    HW185783   2.211   2.842   8.748  1.5299  2.1679  0.3535
26821SOL    HW285784   2.135   2.956   8.683  2.2091  2.7879  0.6293
26822SOL     OW85785   2.903   9.187   1.607 -0.1761  0.0851  0.2662
26822SOL    HW185786   2.933   9.236   1.530  0.1669 -1.8066 -0.8580
26822SOL    HW285787   2.983   9.157   1.650 -0.3925 -0.6226  0.1806
26823SOL     OW85788   1.840   2.237  10.549  0.2657 -0.5245 -0.1634
26823SOL    HW185789   1.838   2.197  10.636 -0.5408 -0.4838 -0.1513
26823SOL    HW285790   1.754   2.279  10.541  0.4672 -0.2361 -0.8449
26824SOL     OW85791   3.632   6.870  11.134  0.0652 -0.4462  0.3235
26824SOL    HW185792   3.674   6.837  11.214  0.1432 -1.9473 -0.3146
26824SOL    HW285793   3.544   6.832  11.136 -0.2443  0.2376  0.1268
26825SOL     OW85794   6.287   7.221   9.838 -0.4437 -0.2930  0.0052
26825SOL    HW185795   6.254   7.139   9.802 -1.0478 -0.0554  0.0109
26825SOL    HW285796   6.236   7.289   9.793  0.5219  0.1157 -0.5095
26826SOL     OW85797   9.398   2.528  11.782 -0.4847  0.1287  0.2981
26826SOL    HW185798   9.391   2.623  11.789 -0.7538  0.1146  0.2385
26826SOL    HW285799   9.307   2.497  11.777 -0.4855 -0.2959  2.2262
26827SOL     OW85800   6.165   8.389  11.232 -0.5673 -0.4245  0.2587
26827SOL    HW185801   6.195   8.303  11.203 -0.6989 -0.5257  0.4259
26827SOL    HW285802   6.211   8.451  11.175  0.8157 -0.5184  1.2187
26828SOL     OW85803   0.049  11.551  10.150 -0.1856 -0.5651  0.4788
26828SOL    HW185804   0.081  11.494  10.220 -0.0037 -1.0285  0.0267
26828SOL    HW285805  -0.045  11.559  10.166 -0.0794 -0.3430  1.0043
26829SOL     OW85806   2.829   6.500   9.641  0.2576  0.1685  0.3353
26829SOL    HW185807   2.765   6.429   9.644  0.3332  0.0156 -1.0769
26829SOL    HW285808   2.793   6.562   9.578  1.2565  0.3181 -0.1051
26830SOL     OW85809   8.593   4.621   7.375  0.0126  0.3307 -0.2158
26830SOL    HW185810   8.689   4.616   7.374 -0.0154 -2.6708  0.5392
26830SOL    HW285811   8.566   4.561   7.305 -1.3308  0.8220 -0.1369
26831SOL     OW85812   9.118   7.714   8.809  0.1909  0.1542  0.0302
26831SOL    HW185813   9.029   7.713   8.844 -1.0491 -0.8407 -2.9277
26831SOL    HW285814   9.148   7.804   8.823 -1.0964  0.4144  1.3668
26832SOL     OW85815   3.301   9.785   3.541  0.2836 -0.7116 -0.3798
26832SOL    HW185816   3.300   9.810   3.449  0.4471 -1.1395 -0.5018
26832SOL    HW285817   3.209   9.769   3.563 -0.3019  2.9831  0.5626
26833SOL     OW85818   3.677   6.700   5.277 -0.4363  0.5905  0.4472
26833SOL    HW185819   3.665   6.748   5.196 -1.9043 -0.5496 -0.0638
26833SOL    HW285820   3.769   6.673   5.276 -0.9813 -1.5206 -2.1108
26834SOL     OW85821   6.892   2.182   2.480 -0.2785  0.0662 -0.5763
26834SOL    HW185822   6.895   2.277   2.469  0.2389  0.0023 -1.0053
26834SOL    HW285823   6.975   2.151   2.444 -0.6372 -0.5905 -0.8489
26835SOL     OW85824   0.710   7.826  10.770  0.2506 -0.0214 -0.1771
26835SOL    HW185825   0.649   7.809  10.698  0.9331  1.0562 -1.0476
26835SOL    HW285826   0.780   7.879  10.730  1.5384 -0.8655  0.8862
26836SOL     OW85827   1.033  10.283   1.458 -0.1994 -0.0624  0.3644
26836SOL    HW185828   1.015  10.205   1.511 -1.3225  0.4397  0.7383
26836SOL    HW285829   0.959  10.288   1.397  1.5085 -1.1723 -1.9734
26837SOL     OW85830   8.705   6.996   6.324 -0.0137  0.2161  0.0451
26837SOL    HW185831   8.621   7.034   6.298  1.2157  2.0584 -1.4857
26837SOL    HW285832   8.732   6.943   6.248  0.8569  0.8251 -0.0859
26838SOL     OW85833  10.501   8.043   1.718  0.3101 -0.1941  0.5964
26838SOL    HW185834  10.457   8.127   1.731  0.0031 -0.2992  0.2637
26838SOL    HW285835  10.556   8.057   1.641 -0.0723 -0.4202  0.2755
26839SOL     OW85836   4.505   9.492   7.829  0.4992 -0.5630 -0.1149
26839SOL    HW185837   4.443   9.565   7.842  0.1345 -0.5177 -1.9094
26839SOL    HW285838   4.591   9.535   7.826  0.4777 -0.4397  0.7549
26840SOL     OW85839   9.344   1.214   3.453 -0.2568 -0.0345  0.0437
26840SOL    HW185840   9.423   1.253   3.491 -0.1022  0.6900 -0.9732
26840SOL    HW285841   9.311   1.280   3.393 -1.2024 -0.6497 -0.1319
26841SOL     OW85842   2.179   0.610  10.573  0.3251 -0.0211 -0.0298
26841SOL    HW185843   2.133   0.527  10.586 -0.1518  0.3179  0.5237
26841SOL    HW285844   2.190   0.645  10.661 -0.2872  0.9216 -0.3069
26842SOL     OW85845   0.816   1.097  10.972 -0.4223  0.4227 -0.3123
26842SOL    HW185846   0.837   1.148  11.050 -1.8988 -0.9285  1.0368
26842SOL    HW285847   0.799   1.009  11.005 -3.6873  0.3714 -1.7341
26843SOL     OW85848   5.723   7.613   4.829 -0.2467  0.0033  0.7826
26843SOL    HW185849   5.640   7.626   4.783 -0.4444  0.2519  1.2023
26843SOL    HW285850   5.713   7.529   4.873 -0.5952  0.4125  1.4980
26844SOL     OW85851   3.268   3.137   9.162  0.9831  0.2332  0.6088
26844SOL    HW185852   3.202   3.159   9.096  0.9268  1.1780  0.9765
26844SOL    HW285853   3.349   3.177   9.129  1.0473  0.3415  0.9016
26845SOL     OW85854   9.071   4.164  10.260 -0.1716 -0.1775  0.1530
26845SOL    HW185855   9.029   4.245  10.233  0.7186  0.4812  0.7165
26845SOL    HW285856   9.163   4.186  10.267  0.3549 -1.6532 -1.3148
26846SOL     OW85857  10.114   1.608   4.998 -0.0407  0.3798 -0.5143
26846SOL    HW185858  10.117   1.612   4.902  0.2714 -0.9209 -0.5825
26846SOL    HW285859  10.161   1.686   5.026  0.0899  0.6484 -1.4260
26847SOL     OW85860   1.981  10.925   9.572  0.0730 -0.1243  0.2124
26847SOL    HW185861   2.000  10.907   9.664  1.1083  1.7352  0.4060
26847SOL    HW285862   1.896  10.967   9.572  0.2344  0.2030  0.3611
26848SOL     OW85863   6.178   0.533   7.180  0.0446 -0.0072 -0.4978
26848SOL    HW185864   6.187   0.527   7.085  0.0633 -0.2234 -0.4833
26848SOL    HW285865   6.090   0.501   7.198  0.2476 -0.5181 -0.3920
26849SOL     OW85866   6.542   8.828   1.269 -0.1223 -0.0753  0.7707
26849SOL    HW185867   6.636   8.840   1.268 -0.3960  2.6424  0.5471
26849SOL    HW285868   6.526   8.754   1.210  1.9536 -2.1365  2.6199
26850SOL     OW85869   8.668   0.200   9.013  0.2693  0.4678  0.4079
26850SOL    HW185870   8.657   0.222   9.105  1.9224  1.5516  0.3870
26850SOL    HW285871   8.660   0.284   8.967 -0.9917 -0.1191 -0.5106
26851SOL     OW85872   3.347   1.570   5.494  0.6289 -0.4176 -0.1090
26851SOL    HW185873   3.360   1.483   5.533  2.8667  0.2627  0.8440
26851SOL    HW285874   3.311   1.623   5.565  0.0772 -0.3520 -0.4347
26852SOL     OW85875   9.721   5.253   7.214  0.5313  0.1994  0.2342
26852SOL    HW185876   9.778   5.304   7.271 -1.1776  1.7526  0.6603
26852SOL    HW285877   9.738   5.289   7.126 -0.6462  1.5880  0.5284
26853SOL     OW85878   1.642   1.553   8.977  0.7267 -0.1073 -0.2556
26853SOL    HW185879   1.627   1.464   9.008 -0.7591  0.1694 -0.1377
26853SOL    HW285880   1.735   1.568   8.995  0.1588 -0.1357  3.7088
26854SOL     OW85881  11.062   1.172   1.695 -0.1021  0.1584  0.6379
26854SOL    HW185882  11.135   1.227   1.720  0.0928  0.5811 -0.7837
26854SOL    HW285883  10.997   1.232   1.658 -0.5465 -0.3830  0.5100
26855SOL     OW85884   5.415   6.990   7.567 -0.1942  0.4793 -0.2385
26855SOL    HW185885   5.383   7.062   7.620 -0.9939 -0.2796  0.3410
26855SOL    HW285886   5.488   7.027   7.516 -1.4462  2.0230 -0.9683
26856SOL     OW85887   0.805   1.770   8.200  0.2752  0.3486 -0.3908
26856SOL    HW185888   0.712   1.749   8.213  0.3323  0.4785  0.2916
26856SOL    HW285889   0.850   1.717   8.266  0.7153  0.0467 -0.9318
26857SOL     OW85890   5.019   0.255   9.058  0.2926 -0.1977  0.1841
26857SOL    HW185891   5.053   0.244   8.969 -0.6229  0.7659 -0.3081
26857SOL    HW285892   5.091   0.293   9.107  0.7425 -0.5489 -0.1906
26858SOL     OW85893   8.410  10.241   5.509 -0.4440 -0.5014  0.5355
26858SOL    HW185894   8.420  10.150   5.538  0.5489 -0.3026  0.8413
26858SOL    HW285895   8.398  10.234   5.414  0.1946 -0.9237  0.4805
26859SOL     OW85896   7.810  11.638   7.864 -0.2685 -0.4302 -0.2336
26859SOL    HW185897   7.749  11.618   7.792 -1.3497  0.2316  0.4749
26859SOL    HW285898   7.850  11.722   7.840 -1.5969  0.4507  0.5227
26860SOL     OW85899   7.428  10.147   3.795  0.0581 -0.9242  0.1862
26860SOL    HW185900   7.359  10.082   3.789 -1.6141  0.5259  2.3859
26860SOL    HW285901   7.503  10.100   3.831 -0.7049 -1.9130  0.5240
26861SOL     OW85902   1.980  11.283   9.092  0.4071  0.6238 -0.2524
26861SOL    HW185903   2.002  11.367   9.052 -2.1457  1.4839 -0.0274
26861SOL    HW285904   1.886  11.274   9.080  0.1241 -0.8690  2.2426
26862SOL     OW85905   9.002  11.197   9.223 -0.0097  0.1878  0.2016
26862SOL    HW185906   8.986  11.172   9.314 -3.1698 -1.5286 -0.6649
26862SOL    HW285907   9.097  11.201   9.216  0.3913 -0.8868  3.2465
26863SOL     OW85908   5.826   4.264   1.330 -0.0873  0.1398  0.0145
26863SOL    HW185909   5.788   4.327   1.390  0.3701  1.6389 -1.2184
26863SOL    HW285910   5.800   4.295   1.243 -2.0060 -2.7687 -0.6017
26864SOL     OW85911   8.928  10.300   2.735 -0.3037 -0.5977  0.3135
26864SOL    HW185912   8.849  10.350   2.758 -1.3119 -1.7712 -0.4698
26864SOL    HW285913   9.000  10.352   2.770 -1.4637  0.1008  1.7775
26865SOL     OW85914   0.789   6.870   1.316  0.1526 -0.3630  0.2452
26865SOL    HW185915   0.702   6.891   1.280  0.4092  1.0201  0.3754
26865SOL    HW285916   0.842   6.946   1.294  1.8519 -1.9338 -1.4545
26866SOL     OW85917   9.204   2.502   8.058  0.3632 -0.7565  0.2347
26866SOL    HW185918   9.112   2.488   8.082  0.5052 -1.7920  0.2185
26866SOL    HW285919   9.248   2.420   8.083  0.7223 -1.4822 -2.4583
26867SOL     OW85920   9.383   0.201   6.065  0.1748  0.4000  0.2211
26867SOL    HW185921   9.331   0.273   6.029  0.9775  0.8504 -0.0738
26867SOL    HW285922   9.397   0.224   6.157  0.3806  0.5966  0.1418
26868SOL     OW85923   5.236   8.445   5.363 -0.3883  0.5586  0.1571
26868SOL    HW185924   5.313   8.479   5.409 -0.4797  0.7191  0.1929
26868SOL    HW285925   5.162   8.466   5.421 -0.2997 -1.0364  0.9165
26869SOL     OW85926   7.997   2.869   3.129 -0.4292  0.0838  0.5866
26869SOL    HW185927   7.968   2.780   3.150  2.1557 -0.7099  1.0385
26869SOL    HW285928   8.005   2.912   3.215 -0.0774  0.2390  0.4749
26870SOL     OW85929   0.259  10.979   0.285  0.0176  0.6654  0.6456
26870SOL    HW185930   0.225  11.008   0.370 -0.4840  0.9778  0.3452
26870SOL    HW285931   0.330  10.918   0.307 -0.4699  0.3142  1.2866
26871SOL     OW85932   9.420   2.447   2.005 -0.2422  0.4972  0.1419
26871SOL    HW185933   9.338   2.416   1.968 -0.4834  0.7084  0.4911
26871SOL    HW285934   9.473   2.369   2.016 -0.3373  0.3778 -0.2256
26872SOL     OW85935   4.340  10.617   3.333  0.3367  0.4790  0.2513
26872SOL    HW185936   4.387  10.642   3.412  1.0471  1.1604 -0.3705
26872SOL    HW285937   4.385  10.664   3.263 -0.2030 -0.2185 -0.5721
26873SOL     OW85938   1.752   4.025   7.428  0.7508  0.0004 -0.0182
26873SOL    HW185939   1.701   3.953   7.391  0.0711 -0.1625  1.1875
26873SOL    HW285940   1.837   3.986   7.449  0.6328 -0.2741 -0.0434
26874SOL     OW85941   9.450   1.053   9.931  0.2425 -0.1300 -0.2477
26874SOL    HW185942   9.435   0.965   9.896  0.8567 -0.1222 -0.5419
26874SOL    HW285943   9.524   1.087   9.880 -0.3332  0.7640 -0.5024
26875SOL     OW85944   0.598   2.378   8.183 -0.2670 -0.3031  0.3272
26875SOL    HW185945   0.606   2.392   8.089  0.1232 -0.5394  0.3247
26875SOL    HW285946   0.523   2.319   8.192 -1.4571  1.1203  0.2869
26876SOL     OW85947   4.600   6.155  10.195  0.5971  0.4806  0.1712
26876SOL    HW185948   4.615   6.215  10.122  0.0792  1.2971  0.7037
26876SOL    HW285949   4.682   6.156  10.244  1.6355 -1.5859 -1.4166
26877SOL     OW85950   0.389  10.128   7.855  0.2423 -0.4224 -0.4687
26877SOL    HW185951   0.471  10.097   7.816 -0.1032  1.0938 -2.5861
26877SOL    HW285952   0.321  10.089   7.801 -0.2930  0.9985 -0.8663
26878SOL     OW85953   1.930   5.192   8.004  0.1203  0.3892 -0.2201
26878SOL    HW185954   1.977   5.201   8.086 -1.8001  1.3556  0.8535
26878SOL    HW285955   1.921   5.097   7.992  1.7622  0.1989 -0.1718
26879SOL     OW85956  11.353   2.046   0.294  0.4469 -0.1440 -0.1878
26879SOL    HW185957  11.352   2.047   0.198 -1.1670 -1.5249 -0.2280
26879SOL    HW285958  11.344   2.138   0.318 -2.3339  0.0089 -1.4291
26880SOL     OW85959   6.601   6.384   4.060 -0.4501  0.4692  0.2342
26880SOL    HW185960   6.511   6.377   4.092 -0.1667 -1.4173  0.7185
26880SOL    HW285961   6.593   6.380   3.965 -0.8115 -1.0369  0.3051
26881SOL     OW85962   1.517   7.712   7.542 -0.0538 -0.4777  0.0887
26881SOL    HW185963   1.600   7.749   7.513  0.3910  0.4725  2.4276
26881SOL    HW285964   1.453   7.782   7.530 -0.0016 -0.3214  0.6815
26882SOL     OW85965   9.086   0.491  11.121 -0.2898  0.5255 -0.3393
26882SOL    HW185966   9.057   0.400  11.123 -1.1003  0.6315 -3.1045
26882SOL    HW285967   9.069   0.523  11.210  0.3719 -2.0681  0.8262
26883SOL     OW85968   7.996   8.580   3.538 -0.2475  0.3788  0.0748
26883SOL    HW185969   7.957   8.541   3.617  0.5057 -0.9529 -0.1833
26883SOL    HW285970   8.087   8.551   3.539 -0.2650  0.1855 -1.3725
26884SOL     OW85971   3.986   5.607  11.716  0.2232 -0.1462  0.1640
26884SOL    HW185972   4.045   5.608  11.640  0.1354 -0.0487  0.0979
26884SOL    HW285973   4.041   5.635  11.789 -0.1255  1.4773 -0.1643
26885SOL     OW85974   0.874   9.809   1.561 -0.2134 -0.4378  0.5422
26885SOL    HW185975   0.779   9.808   1.563 -0.3187  1.2754 -1.0706
26885SOL    HW285976   0.897   9.808   1.468  1.3294 -0.4551  0.8870
26886SOL     OW85977   0.808   9.871   8.277  0.6889  0.0931 -0.0456
26886SOL    HW185978   0.829   9.778   8.286  1.4790  0.3202  0.6216
26886SOL    HW285979   0.779   9.898   8.364  0.1783  0.4092 -0.3065
26887SOL     OW85980   5.978  10.219   3.983  0.7966  0.4409  1.0000
26887SOL    HW185981   6.029  10.285   3.938  0.2005  0.6054  0.5467
26887SOL    HW285982   5.892  10.223   3.941  0.2273  0.5912  2.1525
26888SOL     OW85983  10.686   9.770  10.939  0.0203 -0.3052  0.1474
26888SOL    HW185984  10.751   9.822  10.892 -1.0293 -0.1971 -1.2550
26888SOL    HW285985  10.737   9.711  10.994  1.3093 -0.2802 -0.9767
26889SOL     OW85986   6.588   0.600   3.433 -0.0828 -0.6836 -0.3092
26889SOL    HW185987   6.566   0.565   3.347  0.9543 -1.2938 -0.3508
26889SOL    HW285988   6.577   0.695   3.424 -0.7308 -0.8077 -0.8823
26890SOL     OW85989  10.691   5.242   8.491  0.0015 -0.2055  0.3521
26890SOL    HW185990  10.730   5.160   8.521 -1.3903 -2.3199 -2.9673
26890SOL    HW285991  10.597   5.222   8.486 -0.3314  1.4978 -0.7718
26891SOL     OW85992   9.235   4.703   8.482 -0.2618 -0.0577  0.0209
26891SOL    HW185993   9.172   4.747   8.538  0.7521  1.9307 -0.3269
26891SOL    HW285994   9.319   4.745   8.501  0.6221 -1.3176 -0.9023
26892SOL     OW85995   0.585   1.326  11.772  0.5427  0.2842 -0.0634
26892SOL    HW185996   0.534   1.365  11.701  1.1560  1.8538  0.3163
26892SOL    HW285997   0.586   1.233  11.752  0.2761  0.6270 -1.8402
26893SOL     OW85998   7.457   9.230  11.165  0.0922  0.0356 -0.1765
26893SOL    HW185999   7.378   9.259  11.209 -2.1677 -2.0038 -2.5579
26893SOL    HW286000   7.472   9.141  11.196  0.4144 -0.2176 -1.0072
26894SOL     OW86001  10.067   2.077   9.762 -0.0490  0.3391 -0.2819
26894SOL    HW186002  10.126   2.050   9.832  1.8778  0.3860 -1.8265
26894SOL    HW286003  10.111   2.151   9.720 -0.5920 -0.4098 -2.2587
26895SOL     OW86004   5.626   9.521   8.862  0.1102 -0.2053 -0.0985
26895SOL    HW186005   5.640   9.471   8.781 -1.6591 -0.2531 -0.4125
26895SOL    HW286006   5.548   9.573   8.844 -0.3883 -0.3174  1.6418
26896SOL     OW86007   4.685   6.837   9.136  0.3953 -0.1322  0.2969
26896SOL    HW186008   4.660   6.905   9.198 -0.4844 -0.3417  0.1785
26896SOL    HW286009   4.779   6.850   9.123  0.0788  1.6464 -0.4413
26897SOL     OW86010   7.420   4.332   9.046  0.4277  0.7082  0.6376
26897SOL    HW186011   7.345   4.381   9.013 -0.0284  0.7305  1.6717
26897SOL    HW286012   7.415   4.248   9.000  1.2297  1.5811 -1.1576
26898SOL     OW86013  11.157  10.882   0.466  0.1813 -0.6091  0.2018
26898SOL    HW186014  11.194  10.917   0.547  0.1572  1.7861 -0.7397
26898SOL    HW286015  11.231  10.844   0.420  0.2371 -1.7770  1.2041
26899SOL     OW86016   0.252  10.728   1.512  0.4173  0.1775 -0.2695
26899SOL    HW186017   0.284  10.754   1.425  2.1661 -1.0558 -0.0532
26899SOL    HW286018   0.207  10.645   1.497 -2.0439  1.4652 -0.4209
26900SOL     OW86019   7.070   3.821   1.408  0.1670  0.2663 -0.3002
26900SOL    HW186020   7.159   3.789   1.395 -0.3542 -0.9118 -1.1356
26900SOL    HW286021   7.026   3.752   1.457 -0.2375  0.9418  0.3092
26901SOL     OW86022   4.971   6.741   8.041 -0.5172 -0.2765  0.0930
26901SOL    HW186023   5.025   6.770   8.114 -1.2782  0.9732  0.1977
26901SOL    HW286024   5.010   6.782   7.964 -0.6894 -0.2306  0.0291
26902SOL     OW86025   0.463   1.178   4.196  0.5001 -0.2795 -0.5728
26902SOL    HW186026   0.427   1.162   4.108  0.3509  1.2721 -0.8344
26902SOL    HW286027   0.549   1.217   4.180  0.3291  0.3411 -0.0629
26903SOL     OW86028   0.646   9.573   8.018  0.3955 -0.2293  0.5631
26903SOL    HW186029   0.666   9.661   7.986  0.6423 -0.2192  0.7392
26903SOL    HW286030   0.625   9.585   8.111 -0.3624 -0.2538  0.4007
26904SOL     OW86031   9.250   7.243   8.500 -0.5099  0.1419  0.0882
26904SOL    HW186032   9.158   7.248   8.529 -0.6898 -0.8677 -0.2437
26904SOL    HW286033   9.245   7.232   8.405 -0.1852 -2.2104  0.2629
26905SOL     OW86034   8.768   0.218   3.501  0.0564  0.1554 -0.4247
26905SOL    HW186035   8.770   0.313   3.509 -1.3511  0.3471 -1.9336
26905SOL    HW286036   8.776   0.201   3.408 -0.2603 -1.1775 -0.2340
26906SOL     OW86037   8.567   5.841  11.669  0.4602 -0.4952 -0.4123
26906SOL    HW186038   8.583   5.827  11.762 -1.3545  0.6084  0.1070
26906SOL    HW286039   8.611   5.924  11.649 -0.2631 -0.0613 -0.2148
26907SOL     OW86040   6.708   8.192   8.077  0.3697  0.5559 -0.0182
26907SOL    HW186041   6.718   8.258   8.146  1.0955  0.2372  0.1848
26907SOL    HW286042   6.614   8.171   8.078  0.1399  1.5248 -0.0407
26908SOL     OW86043  10.416   5.954   6.323  0.2157 -0.0762  0.2940
26908SOL    HW186044  10.479   6.006   6.273 -0.8648  1.4003  0.4022
26908SOL    HW286045  10.394   6.008   6.398 -1.2810 -0.4878  0.1884
26909SOL     OW86046   7.058   0.893   9.157  0.4250  0.2462  0.2197
26909SOL    HW186047   7.067   0.859   9.246 -0.0920 -0.8808 -0.1374
26909SOL    HW286048   7.148   0.904   9.127  0.6059  0.6960  0.8980
26910SOL     OW86049   8.124   1.020   6.453  0.2978  0.8026  0.5461
26910SOL    HW186050   8.112   0.932   6.418  0.7583  0.4681  1.2111
26910SOL    HW286051   8.047   1.035   6.508 -0.4954  1.3830 -0.6852
26911SOL     OW86052   9.446   8.780   4.402 -0.8738 -0.8106 -0.0043
26911SOL    HW186053   9.450   8.863   4.448  0.6985 -0.6120 -0.4638
26911SOL    HW286054   9.483   8.798   4.316  0.5159 -2.2107  0.2597
26912SOL     OW86055  10.997   2.486  10.432  0.3075  0.3798 -0.2856
26912SOL    HW186056  11.076   2.439  10.456 -1.2182 -2.2588 -0.0233
26912SOL    HW286057  10.980   2.460  10.341 -1.9460 -1.8849  0.6446
26913SOL     OW86058   9.446  11.213   7.265  0.1928  0.0200 -0.4094
26913SOL    HW186059   9.523  11.161   7.241 -0.2758 -0.7081 -0.3691
26913SOL    HW286060   9.418  11.176   7.349 -0.5521 -0.1224 -0.7161
26914SOL     OW86061  10.576   9.053   0.050  0.1126 -0.1326 -0.2181
26914SOL    HW186062  10.553   8.962   0.036  2.0062 -0.4179 -1.9659
26914SOL    HW286063  10.605   9.084  -0.035  1.1266  1.5980  0.6948
26915SOL     OW86064   7.085   6.881  11.410  0.1123 -0.1906  0.2998
26915SOL    HW186065   7.126   6.956  11.452  0.3877  0.0121 -0.3153
26915SOL    HW286066   7.157   6.835  11.368 -0.4143  0.9434 -2.0039
26916SOL     OW86067   0.687  11.797   4.877  0.4582  0.2671 -0.1140
26916SOL    HW186068   0.683  11.721   4.935 -0.0955  1.0940  0.9698
26916SOL    HW286069   0.774  11.835   4.893 -0.0205  0.9947  0.8612
26917SOL     OW86070   6.694   3.057   2.656 -0.1275 -0.2751 -0.1245
26917SOL    HW186071   6.618   3.096   2.700  0.8050  0.4117  0.9452
26917SOL    HW286072   6.737   3.130   2.613 -0.2180 -0.7076 -0.9627
26918SOL     OW86073  11.698  10.925   6.064 -0.1516  0.2701  0.1630
26918SOL    HW186074  11.712  10.859   6.132  2.9704  0.6320  0.0329
26918SOL    HW286075  11.721  11.008   6.106 -1.3927  0.9398 -0.4363
26919SOL     OW86076   8.801   4.524   9.593 -0.2125  0.1444  0.3584
26919SOL    HW186077   8.797   4.569   9.678  3.5685  2.1083 -0.3130
26919SOL    HW286078   8.724   4.554   9.546 -0.9002  1.2222  2.0737
26920SOL     OW86079   1.598   1.701   2.319  0.8463  0.0767 -0.4535
26920SOL    HW186080   1.557   1.661   2.242  0.7550 -0.9225  0.0991
26920SOL    HW286081   1.587   1.636   2.388  1.6121  0.6378  0.2103
26921SOL     OW86082   9.144   1.317   0.530  0.3466 -0.2073 -0.5683
26921SOL    HW186083   9.197   1.237   0.536  0.2607 -0.1913  0.4537
26921SOL    HW286084   9.202   1.386   0.560 -0.3330 -0.2297  0.8236
26922SOL     OW86085   8.355   3.074   6.440 -1.0399  0.5127 -0.6906
26922SOL    HW186086   8.400   3.129   6.505 -1.3566 -0.0324  0.0099
26922SOL    HW286087   8.413   2.999   6.427 -0.8575  0.7473 -1.2406
26923SOL     OW86088   7.873   7.320   3.857  0.1873  0.1939  0.2330
26923SOL    HW186089   7.888   7.339   3.764 -1.8185  0.1772 -0.1461
26923SOL    HW286090   7.941   7.370   3.903 -0.0644  1.9024 -1.1490
26924SOL     OW86091   9.108   1.172   8.913  0.0941 -0.8396  0.4388
26924SOL    HW186092   9.078   1.091   8.953 -0.6598  0.6235  3.0833
26924SOL    HW286093   9.203   1.164   8.909  0.3878 -0.5145  4.0694
26925SOL     OW86094   8.500   4.774  11.624  0.0943 -0.4300 -0.4142
26925SOL    HW186095   8.479   4.698  11.678  0.0228  0.8454  1.4468
26925SOL    HW286096   8.596   4.780  11.629 -0.0034  0.6988  1.1426
26926SOL     OW86097   0.467   1.899   3.035  0.0996 -0.3736 -0.2125
26926SOL    HW186098   0.402   1.852   2.982 -0.5227 -1.3427  1.3248
26926SOL    HW286099   0.418   1.972   3.073  0.7725  0.8756 -1.6374
26927SOL     OW86100   5.327   8.892   9.520 -0.0865 -0.4197  0.0715
26927SOL    HW186101   5.323   8.822   9.585 -1.9873  0.0862  0.5852
26927SOL    HW286102   5.300   8.851   9.438  0.2804 -0.6096  0.0446
26928SOL     OW86103   0.322   4.782   6.533 -0.1598  0.2740 -0.1239
26928SOL    HW186104   0.391   4.760   6.596 -1.6371 -0.3495  1.3661
26928SOL    HW286105   0.319   4.877   6.532  0.9685  0.3180 -0.5161
26929SOL     OW86106   6.009   4.077   7.251  0.0586 -0.1602 -0.1903
26929SOL    HW186107   6.051   4.163   7.258  1.5373 -0.9242  1.0174
26929SOL    HW286108   5.916   4.096   7.243  0.5012  1.5896 -1.8816
26930SOL     OW86109  10.603   4.030   5.756  0.2597 -0.3005  0.8268
26930SOL    HW186110  10.513   4.059   5.771  0.2560  0.1570 -0.0045
26930SOL    HW286111  10.597   3.935   5.752 -0.2249 -0.2644  0.5898
26931SOL     OW86112   5.425  10.758   6.247 -0.2322  0.3878 -0.1440
26931SOL    HW186113   5.441  10.720   6.333  0.7377  0.5026 -0.2618
26931SOL    HW286114   5.445  10.687   6.186 -0.3844  0.4717 -0.2935
26932SOL     OW86115  11.781   1.861   7.283 -0.1877  0.2598 -0.0951
26932SOL    HW186116  11.786   1.818   7.197 -0.4195  0.4008 -0.1796
26932SOL    HW286117  11.693   1.841   7.315  0.2806 -0.7293  0.6086
26933SOL     OW86118   3.583   6.045   1.334 -0.0448 -0.5520 -0.1047
26933SOL    HW186119   3.562   5.951   1.335 -1.3518 -0.2774 -0.1190
26933SOL    HW286120   3.570   6.072   1.243 -2.6872  0.2434  0.4263
26934SOL     OW86121   7.797   5.292   2.930  0.0040 -0.3764  0.2690
26934SOL    HW186122   7.752   5.210   2.909  3.6204 -2.2932 -0.7936
26934SOL    HW286123   7.888   5.267   2.946  1.1849  3.3852  0.5508
26935SOL     OW86124   1.303   5.861   3.135 -0.1986  0.2502  0.0476
26935SOL    HW186125   1.276   5.908   3.057 -0.6390  0.6274  0.4236
26935SOL    HW286126   1.399   5.868   3.135 -0.2312  0.7350 -0.1535
26936SOL     OW86127   5.551   3.750   1.933 -0.0702  0.1263  0.4162
26936SOL    HW186128   5.526   3.804   2.008 -0.4052 -0.6501  0.8776
26936SOL    HW286129   5.591   3.672   1.972  0.0477 -0.1386 -0.2207
26937SOL     OW86130   6.357   0.293   1.927 -0.5758 -0.3262 -0.0620
26937SOL    HW186131   6.331   0.242   2.004  1.7537 -1.2902  0.1570
26937SOL    HW286132   6.374   0.381   1.961  0.6047 -0.7862  0.6134
26938SOL     OW86133   9.116   4.373   2.427  0.0310  0.1226 -0.2054
26938SOL    HW186134   9.104   4.367   2.332 -0.4043 -1.0703 -0.0836
26938SOL    HW286135   9.074   4.456   2.450  0.1802  0.4492 -1.0612
26939SOL     OW86136   8.323   0.932   1.434  0.4865 -0.1596  0.3610
26939SOL    HW186137   8.372   0.989   1.494  0.2531  0.9020 -0.4124
26939SOL    HW286138   8.232   0.946   1.459  0.4049  0.1129 -0.0897
26940SOL     OW86139   2.896  11.221   4.817 -0.0671 -0.5304 -0.2729
26940SOL    HW186140   2.986  11.197   4.796  0.9954  3.2004 -0.6358
26940SOL    HW286141   2.880  11.178   4.902  2.0530 -1.2320 -0.1606
26941SOL     OW86142   5.816   7.314   3.066  0.2510 -0.1111  0.4357
26941SOL    HW186143   5.819   7.230   3.022 -1.3690  0.4748 -0.9191
26941SOL    HW286144   5.869   7.372   3.012 -0.8453  0.3455 -0.1990
26942SOL     OW86145   1.717   6.815   1.706  0.1488  0.0505  0.1662
26942SOL    HW186146   1.724   6.900   1.662 -0.4824 -0.2734 -0.5831
26942SOL    HW286147   1.740   6.833   1.797 -0.0300  1.0351  0.0263
26943SOL     OW86148   0.140   7.818   9.820  0.1723 -0.5533  0.2260
26943SOL    HW186149   0.128   7.737   9.870 -1.3304 -1.1663 -1.0553
26943SOL    HW286150   0.127   7.793   9.729  1.1821  0.8701 -0.3496
26944SOL     OW86151   2.378   2.420   2.293  0.5264  0.0483 -0.1310
26944SOL    HW186152   2.403   2.416   2.200 -1.4348 -1.4530 -0.6580
26944SOL    HW286153   2.390   2.331   2.325 -1.3027 -0.0549  0.3364
26945SOL     OW86154   5.210   6.991  11.745  0.1332 -0.4523 -0.2132
26945SOL    HW186155   5.227   7.084  11.756 -0.3780 -0.4133  0.2915
26945SOL    HW286156   5.228   6.974  11.653  2.8173 -0.4207  0.2424
26946SOL     OW86157  11.582   0.941   9.665  0.3733 -0.1599 -0.0643
26946SOL    HW186158  11.601   0.969   9.576 -2.3589  1.4834 -0.2528
26946SOL    HW286159  11.564   1.022   9.713  0.0850 -1.1169  1.5431
26947SOL     OW86160   8.742   8.525   3.640  0.0649 -0.1589  0.2125
26947SOL    HW186161   8.750   8.456   3.706 -1.8362 -0.5166  0.1471
26947SOL    HW286162   8.805   8.592   3.666  0.3061 -0.9069  1.6205
26948SOL     OW86163   2.119  10.594   0.158  0.1238 -0.4851  0.6246
26948SOL    HW186164   2.096  10.537   0.085 -2.2958 -0.9594  1.6545
26948SOL    HW286165   2.055  10.665   0.155  2.2365  1.5617  0.1888
26949SOL     OW86166   0.391   8.819   7.667  0.3386  0.1524  0.2891
26949SOL    HW186167   0.443   8.764   7.725 -1.0292 -1.2931  0.2105
26949SOL    HW286168   0.421   8.908   7.685  0.6657 -0.3497  2.4444
26950SOL     OW86169   5.338  10.877   4.743  0.1163  0.1132 -0.5322
26950SOL    HW186170   5.274  10.844   4.680 -1.6741  1.5526  0.4272
26950SOL    HW286171   5.339  10.971   4.729  1.7310  0.1743 -0.2034
26951SOL     OW86172   6.450   4.292   8.403 -0.6302 -0.3896  0.1338
26951SOL    HW186173   6.416   4.237   8.333 -0.4767 -0.3568  0.0332
26951SOL    HW286174   6.489   4.367   8.358 -0.4732 -0.3996  0.2505
26952SOL     OW86175   4.544   8.368   9.271 -0.1190  0.1172  0.9823
26952SOL    HW186176   4.525   8.353   9.364  3.1087  1.9815  2.1138
26952SOL    HW286177   4.557   8.281   9.234 -0.1706 -0.6136  2.6113
26953SOL     OW86178   5.413  11.798   2.938  0.1446 -0.3590  0.0456
26953SOL    HW186179   5.416  11.856   2.862 -0.2019 -0.1967  0.1547
26953SOL    HW286180   5.482  11.734   2.922 -1.4481 -1.7783 -1.5573
26954SOL     OW86181   7.005   2.803   4.964  0.0505  0.0298  0.6321
26954SOL    HW186182   6.959   2.862   5.023 -0.0717 -0.2219  0.7898
26954SOL    HW286183   7.068   2.758   5.020 -0.3036 -0.4615  0.6416
26955SOL     OW86184   7.158   2.293   4.081  0.4629 -0.3734 -0.4967
26955SOL    HW186185   7.122   2.273   3.994 -0.8249 -0.2343 -0.0135
26955SOL    HW286186   7.176   2.387   4.078  0.8910 -0.4595 -0.7686
26956SOL     OW86187   1.762  11.194   7.904 -0.7733  0.2467  0.2680
26956SOL    HW186188   1.761  11.182   7.809 -1.1350  0.2387  0.2747
26956SOL    HW286189   1.673  11.174   7.932 -0.2742 -1.4313  0.8082
26957SOL     OW86190  10.530   1.234   9.005 -0.3927  0.3183 -0.5758
26957SOL    HW186191  10.529   1.151   9.054  2.7916 -0.3502 -1.3972
26957SOL    HW286192  10.470   1.220   8.932  0.4504 -1.5097 -0.9733
26958SOL     OW86193   2.995   0.150   4.126  0.0030 -0.0081 -0.6351
26958SOL    HW186194   2.926   0.168   4.190 -0.4984  1.2949 -1.4942
26958SOL    HW286195   2.959   0.181   4.043  1.0119 -0.7864 -1.3839
26959SOL     OW86196   2.530   4.275   5.201  0.6513  0.2673 -0.1316
26959SOL    HW186197   2.537   4.212   5.274  1.3423 -0.4101 -0.7711
26959SOL    HW286198   2.620   4.290   5.173  0.3544 -0.0225 -1.2976
26960SOL     OW86199   8.811   7.027   0.021  0.5683 -0.0043 -0.3533
26960SOL    HW186200   8.894   7.058  -0.014  1.1796 -0.8180  0.3467
26960SOL    HW286201   8.834   6.952   0.075 -0.3247  1.2731  1.9266
26961SOL     OW86202   1.907   1.788   1.790  0.2280 -0.6366  0.4053
26961SOL    HW186203   1.986   1.743   1.821 -0.2559 -0.9624  1.1662
26961SOL    HW286204   1.850   1.718   1.758  0.5433 -0.3470 -0.8801
26962SOL     OW86205   1.098  11.189   7.790 -0.0665  0.7163  0.3439
26962SOL    HW186206   1.080  11.220   7.701  0.1360 -0.0100  0.0426
26962SOL    HW286207   1.193  11.197   7.800  0.1207 -0.6759 -0.0893
26963SOL     OW86208   7.995   7.816   5.672 -0.2355  0.0260 -0.6327
26963SOL    HW186209   7.902   7.803   5.653  0.2028 -0.8802 -2.4329
26963SOL    HW286210   8.014   7.756   5.744 -0.8335 -0.5896 -0.9791
26964SOL     OW86211  11.641   6.158   2.179  0.1831 -0.3529 -0.2724
26964SOL    HW186212  11.690   6.228   2.222 -0.0212  1.4423 -2.6906
26964SOL    HW286213  11.701   6.124   2.113 -1.3244  1.2159 -2.6197
26965SOL     OW86214  10.197  10.541   3.187 -0.1917 -0.4454  0.4584
26965SOL    HW186215  10.230  10.456   3.156 -0.2339 -0.7273  1.1665
26965SOL    HW286216  10.246  10.558   3.268 -0.3939  0.0651  0.4747
26966SOL     OW86217   9.707   4.459  11.079  0.1937  0.3183 -0.5341
26966SOL    HW186218   9.699   4.391  11.145 -1.4115  1.1979  0.2569
26966SOL    HW286219   9.714   4.412  10.996  2.8632 -0.8198  0.2562
26967SOL     OW86220   5.708   9.288   5.914 -0.3528 -0.1384  0.0781
26967SOL    HW186221   5.782   9.347   5.910 -1.2670  1.1513  1.0855
26967SOL    HW286222   5.679   9.278   5.824  3.0195 -3.4048 -0.8490
26968SOL     OW86223   0.372   5.589   9.341 -0.3208  0.0445 -0.1334
26968SOL    HW186224   0.461   5.618   9.360  0.4041 -1.3405 -1.1627
26968SOL    HW286225   0.330   5.664   9.300  1.0027  0.1559 -1.3602
26969SOL     OW86226   2.736  10.481   8.829 -0.7160 -0.1550  0.4628
26969SOL    HW186227   2.801  10.464   8.897 -0.4289  1.3559  0.5957
26969SOL    HW286228   2.774  10.445   8.749  0.6897  1.3899  0.3822
26970SOL     OW86229   3.197   1.005   0.937 -0.1520  0.2391 -0.7533
26970SOL    HW186230   3.244   0.924   0.956 -0.4386  0.5050  1.2882
26970SOL    HW286231   3.220   1.024   0.846  2.5003 -0.4237 -0.3312
26971SOL     OW86232   9.480  10.588   0.697  0.7886  0.1536 -0.5764
26971SOL    HW186233   9.499  10.508   0.745  0.9954  0.6276  0.1541
26971SOL    HW286234   9.426  10.560   0.623 -1.0332 -0.3792  0.8798
26972SOL     OW86235   6.356   8.232  10.439 -0.2668  0.5338 -0.1318
26972SOL    HW186236   6.368   8.295  10.509 -1.5623  0.4571  0.1779
26972SOL    HW286237   6.333   8.284  10.362 -0.5840  0.4959 -0.0633
26973SOL     OW86238   8.349   8.281   8.479  0.7246  0.0699 -0.2974
26973SOL    HW186239   8.418   8.331   8.523 -0.2691  0.9743  0.2942
26973SOL    HW286240   8.359   8.302   8.386  1.4852 -0.1326 -0.2672
26974SOL     OW86241  11.129   5.269   4.937  0.3789  0.0761  0.2778
26974SOL    HW186242  11.152   5.212   4.864  1.2034  2.8279 -1.7305
26974SOL    HW286243  11.043   5.304   4.914  0.1912  0.2161  1.1464
26975SOL     OW86244   7.098   3.739   2.211  0.2737 -0.4276 -0.1037
26975SOL    HW186245   7.045   3.696   2.144 -1.6580  3.9591 -1.7710
26975SOL    HW286246   7.188   3.725   2.183 -0.4160 -0.6068 -2.4387
26976SOL     OW86247   0.649   2.885   8.078  0.8124 -0.4179  0.1906
26976SOL    HW186248   0.690   2.807   8.116  0.8980  0.6028  2.3454
26976SOL    HW286249   0.721   2.947   8.067  0.5239 -0.1327 -0.1027
26977SOL     OW86250   9.592  10.330   3.585  0.4501  0.2918 -0.3659
26977SOL    HW186251   9.643  10.406   3.556  0.2448  0.5662 -0.0049
26977SOL    HW286252   9.640  10.255   3.550 -0.3749  0.6280 -2.4158
26978SOL     OW86253   4.907   8.021   4.554  0.4967  0.0561 -0.6415
26978SOL    HW186254   4.827   8.021   4.605  0.3429 -0.4491 -0.8755
26978SOL    HW286255   4.947   8.106   4.572 -0.0815  0.3054 -0.5125
26979SOL     OW86256  10.413   6.163   3.912  0.5939 -0.0889 -0.3419
26979SOL    HW186257  10.413   6.121   3.825  1.5204 -1.3178  0.2138
26979SOL    HW286258  10.321   6.181   3.930  0.3532 -0.1886 -1.4125
26980SOL     OW86259   8.272   2.515   7.519 -0.1361  0.2325  0.2199
26980SOL    HW186260   8.358   2.487   7.486 -0.1125  1.0552 -0.4540
26980SOL    HW286261   8.212   2.493   7.447 -0.0782  2.1151 -0.4621
26981SOL     OW86262   5.554  10.930   9.518 -0.1508  0.2204  0.3632
26981SOL    HW186263   5.516  10.891   9.440 -0.3727 -0.3052  0.7279
26981SOL    HW286264   5.639  10.964   9.489 -0.0355 -0.3706 -0.0061
26982SOL     OW86265   6.609   1.941   7.857 -0.0485 -0.2989  0.2150
26982SOL    HW186266   6.588   2.026   7.817 -1.1617 -1.0502 -0.8697
26982SOL    HW286267   6.702   1.928   7.837  0.2669  0.8789  0.8264
26983SOL     OW86268   4.056   4.646   7.151  0.3333 -0.3512  0.3726
26983SOL    HW186269   4.013   4.690   7.078 -0.0860 -0.5350  0.5032
26983SOL    HW286270   4.061   4.712   7.220  0.4055 -0.2830  0.3018
26984SOL     OW86271   1.094   9.683   7.410  0.2603 -0.1430 -0.1409
26984SOL    HW186272   1.014   9.729   7.433  0.2055 -1.0708  1.6562
26984SOL    HW286273   1.079   9.653   7.320 -0.7691  0.9759 -0.3685
26985SOL     OW86274   3.375   7.220  11.031 -0.2668  0.0092  0.0756
26985SOL    HW186275   3.466   7.247  11.039 -0.0875 -0.6498  0.3263
26985SOL    HW286276   3.325   7.293  11.070  0.2086 -0.0633  0.8512
26986SOL     OW86277   3.083   5.789   2.957  0.3215 -0.5158 -0.2023
26986SOL    HW186278   3.111   5.733   2.885 -0.3029  1.1999 -1.8883
26986SOL    HW286279   3.161   5.838   2.982  0.6581 -1.4614  0.6800
26987SOL     OW86280   4.215   4.981   2.381 -0.2856  0.4899 -0.2209
26987SOL    HW186281   4.122   4.999   2.366 -0.3171  0.4406 -0.0818
26987SOL    HW286282   4.233   5.015   2.468 -0.2643  0.1583 -0.0944
26988SOL     OW86283   2.187  11.046   2.861 -0.2415 -0.5765  0.0809
26988SOL    HW186284   2.257  11.087   2.913 -0.2181 -1.2973  0.6349
26988SOL    HW286285   2.152  11.117   2.808 -0.4520  0.2685  1.3023
26989SOL     OW86286  10.140   5.184   5.785 -0.7842 -0.2439  0.0651
26989SOL    HW186287  10.166   5.218   5.871  3.6037  0.0496 -1.1568
26989SOL    HW286288  10.097   5.258   5.742  1.9838  1.5322  0.1185
26990SOL     OW86289   1.439   2.287   5.008  0.0424  0.3692 -0.2396
26990SOL    HW186290   1.434   2.199   4.971  0.8293  0.3390 -0.2921
26990SOL    HW286291   1.444   2.274   5.102 -4.1948  0.4965  0.2106
26991SOL     OW86292   6.769   3.226   3.529 -0.0900  0.3904 -0.3646
26991SOL    HW186293   6.834   3.225   3.459  1.9917 -0.9559  1.4795
26991SOL    HW286294   6.793   3.153   3.586 -2.5070  0.5956  1.0648
26992SOL     OW86295  10.002   5.873   0.373  0.2166  0.6759 -0.6054
26992SOL    HW186296   9.924   5.926   0.390  1.1798  1.6448  0.9436
26992SOL    HW286297  10.055   5.927   0.315  2.2724  2.6201  2.7763
26993SOL     OW86298   6.599   0.084   8.375 -0.0764 -0.2407 -0.1604
26993SOL    HW186299   6.523   0.037   8.410 -0.9752 -1.0790 -2.9771
26993SOL    HW286300   6.568   0.174   8.364  0.7257  0.4474  2.4969
26994SOL     OW86301   6.262   6.626   6.011  0.4158 -0.0564  0.9145
26994SOL    HW186302   6.178   6.667   5.988  1.1318  0.6190 -0.6794
26994SOL    HW286303   6.262   6.543   5.963  0.7033 -0.0112  0.8371
26995SOL     OW86304   1.479   4.764   2.966  0.3903 -0.2098 -0.1533
26995SOL    HW186305   1.486   4.725   2.879  1.7640  0.3991 -0.3392
26995SOL    HW286306   1.569   4.772   2.996 -0.0221  0.3204  1.0031
26996SOL     OW86307  11.416   2.873  10.940  0.2162 -0.2527 -0.3502
26996SOL    HW186308  11.500   2.915  10.921  0.3019 -0.5463 -0.6353
26996SOL    HW286309  11.354   2.915  10.880 -0.2857  1.4466  1.2794
26997SOL     OW86310   0.672   8.632   6.682 -0.2947 -0.2214 -0.0724
26997SOL    HW186311   0.691   8.630   6.776  0.2381  1.0438 -0.1340
26997SOL    HW286312   0.622   8.552   6.666 -1.2817  0.0389  1.4824
26998SOL     OW86313   6.721   2.290   7.138  0.7049 -0.2745  0.2509
26998SOL    HW186314   6.707   2.197   7.156  1.3074 -0.1174  1.7485
26998SOL    HW286315   6.782   2.318   7.207  0.0043  1.3803  0.2419
26999SOL     OW86316  10.385   7.127   0.099 -0.1261  0.1973 -0.4600
26999SOL    HW186317  10.456   7.064   0.085 -0.4578 -0.0642 -0.9823
26999SOL    HW286318  10.395   7.154   0.190 -0.6025 -1.4010  0.0987
27000SOL     OW86319   7.477   4.414   5.862  0.7663  0.5711  0.4324
27000SOL    HW186320   7.383   4.393   5.856  0.6092 -0.6861  4.2207
27000SOL    HW286321   7.521   4.332   5.843  0.9801  0.6658  0.5205
27001SOL     OW86322   7.592  11.156   2.293 -0.2701 -0.5897 -0.1969
27001SOL    HW186323   7.671  11.104   2.308 -1.7484 -2.7470  0.5038
27001SOL    HW286324   7.614  11.242   2.329  0.6768 -2.0773  3.2145
27002SOL     OW86325   5.885  10.935   0.399 -0.5564  0.6810 -1.1568
27002SOL    HW186326   5.876  10.938   0.304  1.6266 -1.1084 -1.5102
27002SOL    HW286327   5.874  10.842   0.421  0.7148  0.7885  0.0911
27003SOL     OW86328   3.309   1.983   1.417 -0.0471  0.2798 -0.2485
27003SOL    HW186329   3.227   1.934   1.424  0.7510 -0.9485  1.1571
27003SOL    HW286330   3.292   2.050   1.351 -2.5657  0.8024  0.8095
27004SOL     OW86331  11.116   5.202   1.298  0.0679  0.0554  0.3118
27004SOL    HW186332  11.028   5.227   1.327 -0.1580 -1.8958  1.4665
27004SOL    HW286333  11.143   5.133   1.359  1.5071 -0.9438 -1.3642
27005SOL     OW86334   5.192   2.469   6.182  0.2150 -0.2452  0.0603
27005SOL    HW186335   5.284   2.476   6.160 -0.2085  0.5090 -1.6534
27005SOL    HW286336   5.167   2.558   6.207 -0.2827 -0.2118 -0.5372
27006SOL     OW86337   7.087   9.956   9.281 -0.0374  0.2028  0.4102
27006SOL    HW186338   7.099   9.882   9.340 -0.8115  1.1988  1.8762
27006SOL    HW286339   7.173   9.970   9.242  0.7283  0.0451  1.9682
27007SOL     OW86340   1.761   3.522   5.067 -0.0755 -0.4540 -0.1574
27007SOL    HW186341   1.723   3.488   4.986  1.3192  2.3068 -2.1066
27007SOL    HW286342   1.687   3.560   5.114 -0.4909  0.6521 -1.6407
27008SOL     OW86343   2.330   6.526   9.346 -0.1144 -0.1253 -0.5428
27008SOL    HW186344   2.386   6.493   9.276 -0.6973  0.7060 -1.4267
27008SOL    HW286345   2.253   6.469   9.344  0.0308 -0.3308 -0.3281
27009SOL     OW86346  10.561   1.141   6.178 -0.3551  0.4681  0.1911
27009SOL    HW186347  10.647   1.178   6.196 -0.0843  0.3387 -0.7576
27009SOL    HW286348  10.560   1.058   6.225  0.3100  0.1462 -0.3471
27010SOL     OW86349   2.915   5.851   2.198 -0.4492 -0.2056 -0.1066
27010SOL    HW186350   2.994   5.885   2.240 -0.3402  0.2768 -0.6892
27010SOL    HW286351   2.939   5.841   2.106 -1.0129 -0.2404 -0.2517
27011SOL     OW86352   3.666   8.420   3.401  0.0868  0.0424 -0.0634
27011SOL    HW186353   3.747   8.460   3.369  0.3936 -0.0175  0.6140
27011SOL    HW286354   3.662   8.335   3.358  0.9001 -0.3689  0.6321
27012SOL     OW86355   4.148   1.287   7.584 -0.1422  0.1573  0.3979
27012SOL    HW186356   4.076   1.292   7.521 -0.4127 -0.1730  0.6772
27012SOL    HW286357   4.226   1.275   7.530 -0.3570  0.0048  0.1180
27013SOL     OW86358   8.325   6.722  11.242 -0.3729 -0.2743  0.0983
27013SOL    HW186359   8.398   6.705  11.302 -0.6236 -0.7213  0.2784
27013SOL    HW286360   8.345   6.808  11.204 -0.0276 -0.1530  0.5460
27014SOL     OW86361   3.024   9.750   8.359 -0.4767 -0.5437  0.2621
27014SOL    HW186362   3.100   9.692   8.367 -0.1022  0.0618  1.3050
27014SOL    HW286363   3.016   9.791   8.445 -0.7457  0.9246 -0.4352
27015SOL     OW86364   2.285   4.438   5.255 -0.2997  0.3578  0.3228
27015SOL    HW186365   2.329   4.444   5.170  1.0407 -0.7941  0.9017
27015SOL    HW286366   2.343   4.384   5.309 -1.3323  0.6979  1.8462
27016SOL     OW86367   2.351  11.389   7.137 -0.1675  0.0324  0.7208
27016SOL    HW186368   2.340  11.394   7.232  2.5032 -0.7446  1.1782
27016SOL    HW286369   2.414  11.317   7.124  0.4933  0.9147 -1.5323
27017SOL     OW86370  11.400  10.828   6.561 -0.3127  0.0812  0.1061
27017SOL    HW186371  11.343  10.792   6.493 -0.9891  1.0668  0.1222
27017SOL    HW286372  11.432  10.751   6.608 -0.5649 -0.5682 -0.7391
27018SOL     OW86373  11.645  11.252   8.264 -0.1113 -0.3550 -0.2752
27018SOL    HW186374  11.582  11.287   8.200 -0.4111  0.3236  0.3805
27018SOL    HW286375  11.605  11.171   8.295  0.5013 -1.2351 -1.6652
27019SOL     OW86376   7.495   8.559   9.066 -0.0615 -0.0607 -0.4627
27019SOL    HW186377   7.445   8.496   9.015 -1.0586  1.2118 -1.1051
27019SOL    HW286378   7.521   8.511   9.145  2.2269 -2.3562 -2.4228
27020SOL     OW86379   7.236   2.698   6.419  0.1027 -0.1604  0.5303
27020SOL    HW186380   7.178   2.771   6.399  0.4083  0.4929  1.9474
27020SOL    HW286381   7.180   2.635   6.465  0.4829  0.4808  1.9197
27021SOL     OW86382   2.415   3.279   7.257 -0.7549 -0.2411  0.1794
27021SOL    HW186383   2.481   3.346   7.275 -0.9952 -0.5331  2.4484
27021SOL    HW286384   2.461   3.196   7.273 -0.9556 -0.5855 -0.9016
27022SOL     OW86385   9.561   9.729   9.805 -0.3678  0.0276 -0.3148
27022SOL    HW186386   9.524   9.716   9.892  1.0893 -1.1110  0.1695
27022SOL    HW286387   9.490   9.704   9.745 -1.2924  0.5555  0.5213
27023SOL     OW86388   0.983   5.507   6.276 -0.3326  0.3227  0.1530
27023SOL    HW186389   0.895   5.524   6.311 -0.6834  1.6446 -1.2934
27023SOL    HW286390   0.975   5.422   6.233 -0.6063 -0.0530  0.9156
27024SOL     OW86391  11.026   4.884   9.203 -0.1758 -0.3569 -0.8086
27024SOL    HW186392  11.090   4.954   9.187  0.5837 -0.6345  0.8095
27024SOL    HW286393  11.060   4.808   9.156  1.8084 -1.0576  1.5374
27025SOL     OW86394   5.683   5.912   4.011  0.5013 -0.0989  0.9347
27025SOL    HW186395   5.718   5.877   4.093  0.7878 -2.5703 -0.1733
27025SOL    HW286396   5.761   5.936   3.960  0.3187  2.2849  1.6365
27026SOL     OW86397   0.381   6.646   7.693 -0.2210 -0.6902  0.3834
27026SOL    HW186398   0.404   6.739   7.705 -0.1417 -0.4137 -1.5636
27026SOL    HW286399   0.348   6.619   7.778  0.7006  0.8495  1.2981
27027SOL     OW86400   3.817   9.777   6.280  0.1597  0.0955 -0.5192
27027SOL    HW186401   3.888   9.784   6.343  0.5846  0.6972 -1.0418
27027SOL    HW286402   3.854   9.813   6.199 -1.2249  1.9197 -0.3994
27028SOL     OW86403  10.897   8.270  10.028  0.1087 -0.5931 -0.3914
27028SOL    HW186404  10.920   8.180  10.009  2.1711  0.1617 -1.8312
27028SOL    HW286405  10.965   8.300  10.088 -0.4693  0.0432 -0.0400
27029SOL     OW86406  10.731  10.183   7.708 -0.3362  0.0769  0.5988
27029SOL    HW186407  10.701  10.098   7.740  0.5487 -0.5142 -0.0980
27029SOL    HW286408  10.693  10.246   7.769  1.0457 -0.9760  2.7144
27030SOL     OW86409   9.577   0.813  10.508 -0.0700  0.2250 -0.2745
27030SOL    HW186410   9.485   0.791  10.495 -0.3581  2.2610 -2.1618
27030SOL    HW286411   9.576   0.880  10.577 -0.1368  0.9555 -0.9674
27031SOL     OW86412   5.118   7.011   9.715  0.1212 -0.3055 -0.3339
27031SOL    HW186413   5.094   6.951   9.644 -0.6366  0.4760 -0.7516
27031SOL    HW286414   5.213   7.022   9.705  0.1897 -1.0588 -0.5486
27032SOL     OW86415   1.953   6.355   5.292  0.7107  0.5488 -0.3051
27032SOL    HW186416   2.014   6.351   5.366  0.5000  3.6484  0.1397
27032SOL    HW286417   1.873   6.313   5.324  1.5822 -0.8746  0.1095
27033SOL     OW86418  10.827   0.627   4.608  0.2609 -0.0769  0.3404
27033SOL    HW186419  10.846   0.558   4.545 -1.5607 -1.2002  0.9582
27033SOL    HW286420  10.810   0.581   4.690  0.0215  1.1766  1.0260
27034SOL     OW86421   8.282   2.580   5.354  0.2390 -0.2332  0.0176
27034SOL    HW186422   8.213   2.629   5.310  0.6123 -2.1906 -3.0124
27034SOL    HW286423   8.362   2.629   5.335  0.3670 -0.9439 -1.3456
27035SOL     OW86424   9.036   2.731  11.337 -0.3615 -0.8212 -0.1295
27035SOL    HW186425   9.081   2.807  11.374 -0.5013 -0.5332 -0.5509
27035SOL    HW286426   8.945   2.760  11.325 -0.0294 -0.4519 -1.9972
27036SOL     OW86427   8.359   1.273   7.907  0.2384 -0.4813  0.3211
27036SOL    HW186428   8.448   1.262   7.940  0.8546  2.8357  0.0746
27036SOL    HW286429   8.308   1.300   7.984 -0.0416 -0.2151  0.0461
27037SOL     OW86430   9.077  10.464  10.263 -0.1372  0.0716 -0.1543
27037SOL    HW186431   9.116  10.485  10.348  0.6188  0.3191 -0.5416
27037SOL    HW286432   8.984  10.483  10.273 -0.0835 -0.0851  0.6714
27038SOL     OW86433   8.813   8.398  10.658  0.1991 -0.1799  0.4391
27038SOL    HW186434   8.871   8.418  10.585 -0.5312 -1.3123 -0.4860
27038SOL    HW286435   8.731   8.442  10.637  0.1715 -0.0015  0.8965
27039SOL     OW86436  10.568   7.664   4.435  0.1198  0.0021 -0.1566
27039SOL    HW186437  10.503   7.593   4.440 -0.3746  0.5151  1.3564
27039SOL    HW286438  10.523   7.734   4.388 -1.2160  1.0517  2.4453
27040SOL     OW86439   6.666   8.282   5.549 -0.1824 -0.1267 -0.4041
27040SOL    HW186440   6.760   8.268   5.558 -0.5011 -1.1344  2.0977
27040SOL    HW286441   6.659   8.370   5.512  1.7368  0.4118  0.3651
27041SOL     OW86442   3.432   8.093   1.694 -0.2010 -0.1749  0.4175
27041SOL    HW186443   3.373   8.088   1.619  0.7015  0.0859 -0.3193
27041SOL    HW286444   3.460   8.003   1.709  1.4449  0.0461 -1.0612
27042SOL     OW86445   4.994   7.892   0.994 -0.3935  0.9780  0.0600
27042SOL    HW186446   4.978   7.987   0.990 -0.1052  1.0285  0.1184
27042SOL    HW286447   5.074   7.879   0.944 -1.2792  0.5576 -1.3304
27043SOL     OW86448   9.745   6.044   7.494  0.4741 -0.7074  0.1595
27043SOL    HW186449   9.738   5.950   7.512  0.1418 -0.3220  2.2129
27043SOL    HW286450   9.659   6.079   7.516  1.2237  0.3815  1.4756
27044SOL     OW86451   1.986   9.531   8.029  0.1326  0.4306  0.2513
27044SOL    HW186452   1.941   9.612   8.003  1.1302  0.7256 -0.6793
27044SOL    HW286453   2.042   9.510   7.953  1.2414 -0.1304  1.1927
27045SOL     OW86454   9.583   4.438   7.624 -0.3332 -0.1298  0.5489
27045SOL    HW186455   9.674   4.410   7.621 -0.0453  0.7990  0.0363
27045SOL    HW286456   9.534   4.368   7.582  0.2568 -0.2433  0.0388
27046SOL     OW86457   6.631   9.563   1.707  0.3286  0.0090 -0.4502
27046SOL    HW186458   6.663   9.489   1.757 -0.3652  0.9117  1.4587
27046SOL    HW286459   6.557   9.529   1.656 -0.9151 -0.3745  1.5080
27047SOL     OW86460   5.640   5.523   0.901 -0.5411  0.1960 -0.5991
27047SOL    HW186461   5.686   5.579   0.964 -2.5152 -0.9427  2.0950
27047SOL    HW286462   5.681   5.437   0.911 -0.9227 -0.0112 -0.7798
27048SOL     OW86463   8.543   7.812   1.313  0.0505 -0.5746  0.2999
27048SOL    HW186464   8.529   7.774   1.399  0.3857  1.0098  1.0847
27048SOL    HW286465   8.540   7.907   1.327 -0.4216 -0.2771 -1.5182
27049SOL     OW86466   5.288   5.126   5.852 -0.3306  0.4217 -0.0509
27049SOL    HW186467   5.374   5.170   5.850 -0.1624  0.1781  1.0458
27049SOL    HW286468   5.306   5.037   5.824  0.0124  0.0282  1.3577
27050SOL     OW86469   6.371   5.178   6.270 -0.3385 -0.3077 -0.1224
27050SOL    HW186470   6.325   5.246   6.320 -0.9658  1.7325 -3.1625
27050SOL    HW286471   6.458   5.214   6.256 -1.2808  1.0107 -3.4733
27051SOL     OW86472  10.880   5.451  10.345  0.2960  0.1086 -0.0607
27051SOL    HW186473  10.958   5.410  10.306  0.7085  1.0256 -0.2118
27051SOL    HW286474  10.810   5.387  10.330  0.7062 -0.0958 -1.2215
27052SOL     OW86475   1.785  11.278   9.765  0.8901 -0.0435  0.0444
27052SOL    HW186476   1.862  11.266   9.710  1.8944  0.1494  1.3581
27052SOL    HW286477   1.767  11.372   9.761 -0.3318 -0.3003 -1.5787
27053SOL     OW86478   9.192   8.496  10.128 -0.1299  0.1110  0.3870
27053SOL    HW186479   9.273   8.545  10.138  0.2318 -0.5344  0.7027
27053SOL    HW286480   9.123   8.559  10.149  0.3032  0.5651  0.4721
27054SOL     OW86481   0.076   6.695   1.029  0.2169 -0.3331  0.0722
27054SOL    HW186482   0.094   6.649   1.111  2.0690  1.4375  0.7583
27054SOL    HW286483   0.116   6.781   1.041 -1.8798  0.9775 -1.6684
27055SOL     OW86484  10.877   4.005   7.190 -0.0097 -0.2016 -0.4009
27055SOL    HW186485  10.909   3.916   7.174  3.4594  1.0312 -1.2178
27055SOL    HW286486  10.937   4.041   7.255  1.4049  2.7891 -3.0978
27056SOL     OW86487   1.784   7.984   4.466  0.4660  0.1668  0.0151
27056SOL    HW186488   1.789   7.997   4.371  0.8018  0.5442  0.0840
27056SOL    HW286489   1.801   8.071   4.503  0.2665  0.0347  0.4191
27057SOL     OW86490   8.792   4.990  10.454 -0.0428 -0.1359  0.0420
27057SOL    HW186491   8.858   4.978  10.522  1.0040  0.2152 -0.8819
27057SOL    HW286492   8.795   4.909  10.403 -0.5918 -0.2638  0.2002
27058SOL     OW86493   1.303  10.543   3.579 -0.0486 -0.0356 -0.1921
27058SOL    HW186494   1.247  10.488   3.634 -1.1351  0.4929 -0.7444
27058SOL    HW286495   1.389  10.537   3.619 -0.5609 -0.6347  0.8498
27059SOL     OW86496   5.031   3.254  11.221  0.2298 -0.3474 -0.6869
27059SOL    HW186497   4.938   3.258  11.201 -0.2970  0.9956  1.6862
27059SOL    HW286498   5.065   3.340  11.194  0.4151 -0.2056 -0.0185
27060SOL     OW86499   7.777   0.845   5.727 -0.1477 -0.1753 -0.5470
27060SOL    HW186500   7.801   0.787   5.654 -1.0989 -0.4090 -0.6821
27060SOL    HW286501   7.760   0.785   5.800  2.2475  0.1143  0.3420
27061SOL     OW86502   7.853   5.923   7.049 -0.8869  0.0346  0.1250
27061SOL    HW186503   7.768   5.880   7.049 -0.0702 -1.8481 -2.0288
27061SOL    HW286504   7.913   5.857   7.085  0.0023  0.3421 -0.7299
27062SOL     OW86505   5.521   7.652   8.073  0.2463 -0.1648 -0.2586
27062SOL    HW186506   5.515   7.647   8.168 -0.0951 -2.1170 -0.3268
27062SOL    HW286507   5.434   7.679   8.044 -0.7465 -2.8460 -0.0977
27063SOL     OW86508   3.987   7.742   1.047 -0.3171  0.2066  0.0895
27063SOL    HW186509   3.959   7.833   1.036 -0.7251  0.0080 -0.5645
27063SOL    HW286510   4.082   7.745   1.035 -0.2217  0.6547  0.8392
27064SOL     OW86511   6.020   7.158   9.666  0.3506 -0.9564 -0.6747
27064SOL    HW186512   5.942   7.212   9.656  1.9618  2.0171  1.2834
27064SOL    HW286513   6.002   7.104   9.744  0.6104  0.5924  0.5040
27065SOL     OW86514   9.785   3.591   4.328 -0.2784  0.3375  0.1140
27065SOL    HW186515   9.879   3.585   4.312 -0.2511 -0.5424  0.5031
27065SOL    HW286516   9.776   3.582   4.423 -0.7615  0.1428  0.0564
27066SOL     OW86517   0.238  10.615   7.613 -0.0583  0.5206  0.5134
27066SOL    HW186518   0.313  10.601   7.556  1.3817 -0.5341  2.5331
27066SOL    HW286519   0.242  10.707   7.637  0.1681  0.6289  0.0568
27067SOL     OW86520   1.712   1.407  11.222 -0.7112 -0.3508 -0.1957
27067SOL    HW186521   1.756   1.387  11.139 -2.4089  0.6346 -1.3981
27067SOL    HW286522   1.666   1.326  11.244  2.3017 -1.7193  1.5793
27068SOL     OW86523   7.033  10.310   4.543  0.0350  0.7932  0.0237
27068SOL    HW186524   7.014  10.293   4.635  0.3254  1.3282  0.1848
27068SOL    HW286525   6.960  10.363   4.513  0.4229  1.4351  0.2024
27069SOL     OW86526   7.674   3.600   5.105 -0.1948 -0.2509  0.0349
27069SOL    HW186527   7.668   3.519   5.154  0.1314 -0.7968 -0.7923
27069SOL    HW286528   7.590   3.644   5.120 -0.9139 -1.3690 -0.5668
27070SOL     OW86529   8.324  11.178   6.258 -0.3484  0.5985  0.4700
27070SOL    HW186530   8.267  11.226   6.318 -0.2211  1.7330 -0.2756
27070SOL    HW286531   8.375  11.246   6.214  0.4361 -0.2880 -0.0359
27071SOL     OW86532   2.880   2.081   3.434  0.8657 -0.9979 -0.0544
27071SOL    HW186533   2.962   2.038   3.459  1.4772  1.6669  3.3526
27071SOL    HW286534   2.908   2.152   3.376  0.7295 -1.2124 -0.3816
27072SOL     OW86535   4.682   3.543   0.946  0.4793 -0.5070 -0.1778
27072SOL    HW186536   4.620   3.520   1.015 -1.2738  0.4681 -1.3636
27072SOL    HW286537   4.659   3.632   0.922  1.5262 -0.5711 -1.5321
27073SOL     OW86538   5.936   9.301   3.110 -0.2376  0.0277  0.0921
27073SOL    HW186539   5.842   9.288   3.102  0.0104 -0.9618 -1.7731
27073SOL    HW286540   5.972   9.265   3.029  1.6572  1.3706  0.2732
27074SOL     OW86541   2.621   9.903   0.407  0.3690 -0.5247 -0.3833
27074SOL    HW186542   2.552   9.903   0.341 -0.4943 -1.6135  0.4807
27074SOL    HW286543   2.688   9.962   0.372 -0.9144  0.4279 -1.3246
27075SOL     OW86544  10.672   2.791   1.147 -0.6167  0.4187  0.6321
27075SOL    HW186545  10.588   2.793   1.101 -0.1402  1.1354 -0.2548
27075SOL    HW286546  10.736   2.817   1.081  0.2296  0.4595  1.4415
27076SOL     OW86547   3.636   8.477   9.305  0.2217  0.0901 -0.5856
27076SOL    HW186548   3.644   8.549   9.242  1.7389  1.2521  0.8676
27076SOL    HW286549   3.619   8.520   9.389 -2.5282 -1.4589 -0.2178
27077SOL     OW86550   5.270   1.976   1.197 -0.5368 -0.0473  0.4244
27077SOL    HW186551   5.181   2.010   1.191 -1.6481 -2.8335 -0.8299
27077SOL    HW286552   5.264   1.887   1.162  2.8767 -0.1344 -0.3087
27078SOL     OW86553   8.489   4.626   6.021  0.2525 -0.3759 -0.3738
27078SOL    HW186554   8.564   4.636   6.079 -0.8158  0.5006  0.8980
27078SOL    HW286555   8.415   4.657   6.072 -0.5697  1.6846 -2.6457
27079SOL     OW86556  10.611  10.416   0.713  0.0282  0.2347 -0.0029
27079SOL    HW186557  10.570  10.500   0.734 -0.2251  0.5940 -1.7917
27079SOL    HW286558  10.681  10.407   0.778  1.4957  2.9225 -1.0406
27080SOL     OW86559   3.243   3.151   2.036  0.6133 -0.1911  0.0009
27080SOL    HW186560   3.250   3.061   2.069 -0.2621 -0.3661 -0.2828
27080SOL    HW286561   3.155   3.157   2.001  0.7006  0.7615 -0.0686
27081SOL     OW86562   3.426  10.284   7.866 -0.2704 -0.1820 -0.4389
27081SOL    HW186563   3.458  10.196   7.886  2.3977  1.5132  4.6302
27081SOL    HW286564   3.496  10.323   7.813  2.1296  0.6912  3.0106
27082SOL     OW86565   9.168   9.651   9.906  0.3917 -0.0449 -0.5584
27082SOL    HW186566   9.122   9.735   9.908  0.2325 -0.1383  0.5716
27082SOL    HW286567   9.227   9.655   9.982 -1.5843 -2.0111  1.2201
27083SOL     OW86568   3.056   9.197   8.851  0.1999 -0.2891  0.2343
27083SOL    HW186569   3.004   9.256   8.796  0.4717 -0.8462 -0.6442
27083SOL    HW286570   3.087   9.252   8.922 -0.8158  0.2706  0.2645
27084SOL     OW86571   0.982   5.991   4.590 -0.1774  0.0367 -0.0996
27084SOL    HW186572   1.048   5.995   4.520 -0.8389 -1.1021 -0.8098
27084SOL    HW286573   1.014   5.922   4.649 -1.5183 -1.7005 -1.3195
27085SOL     OW86574   1.857   1.663   4.647  0.3559 -0.1981 -0.0724
27085SOL    HW186575   1.933   1.709   4.683 -0.2512 -0.6406  1.9240
27085SOL    HW286576   1.886   1.573   4.636  0.2242 -0.3028  0.4067
27086SOL     OW86577   4.224  10.962   8.300  0.2211  0.3663  0.1915
27086SOL    HW186578   4.274  11.042   8.286  0.4362  0.0810 -0.7470
27086SOL    HW286579   4.254  10.903   8.232 -0.5709 -0.2144  0.3318
27087SOL     OW86580   1.010   0.677   6.087  0.0262  0.3985 -0.8708
27087SOL    HW186581   0.961   0.648   6.010  0.7523 -1.7263 -0.6010
27087SOL    HW286582   0.943   0.688   6.155 -0.2550 -1.4466 -0.7993
27088SOL     OW86583   8.278   0.367   1.309  0.4129  0.3755 -0.6829
27088SOL    HW186584   8.368   0.349   1.279  0.1068 -2.0735 -0.3820
27088SOL    HW286585   8.246   0.281   1.338 -1.4339  1.5311  0.8652
27089SOL     OW86586   6.338   9.683  11.645  0.3094 -0.4810  0.3969
27089SOL    HW186587   6.375   9.771  11.637  0.3889 -0.6625 -2.2222
27089SOL    HW286588   6.390   9.640  11.713  0.5611  1.3328  1.3927
27090SOL     OW86589   6.499   2.794  10.971  0.1471  0.2278 -0.4459
27090SOL    HW186590   6.557   2.724  10.941 -2.8637 -2.2293 -1.0944
27090SOL    HW286591   6.444   2.814  10.895 -1.8274  0.2321  0.8953
27091SOL     OW86592   0.775  10.007   3.884 -0.1521  0.2409  0.5461
27091SOL    HW186593   0.702  10.068   3.894  0.1107  0.3061  2.3495
27091SOL    HW286594   0.735   9.927   3.852 -0.4187  1.4619 -2.5730
27092SOL     OW86595  10.275   3.021   9.596 -0.7540 -0.2347  0.1907
27092SOL    HW186596  10.334   3.090   9.628  0.0782 -1.3034  1.0679
27092SOL    HW286597  10.321   2.984   9.521 -1.0351 -0.0798 -0.0601
27093SOL     OW86598   1.749   6.974   6.365 -0.6335 -0.7123  0.0120
27093SOL    HW186599   1.800   7.053   6.348 -1.2989  0.0165  1.1780
27093SOL    HW286600   1.813   6.904   6.373  0.1744  0.1063  1.0235
27094SOL     OW86601   2.966   8.783   8.168 -0.3273  0.4771  0.2539
27094SOL    HW186602   3.016   8.859   8.139 -0.1673  0.3886  0.2974
27094SOL    HW286603   2.950   8.733   8.089  0.8011 -0.1791  0.4228
27095SOL     OW86604   6.259   0.686   8.454 -0.7850  0.0379  0.1698
27095SOL    HW186605   6.285   0.663   8.364 -0.2847  1.3254 -0.0334
27095SOL    HW286606   6.244   0.602   8.496 -0.0945 -0.6308 -0.8577
27096SOL     OW86607   6.117   4.794   2.507  0.4130  0.2169 -0.2926
27096SOL    HW186608   6.137   4.872   2.455  2.1123 -1.0119 -1.6022
27096SOL    HW286609   6.195   4.781   2.561  0.2739 -0.7442 -0.3109
27097SOL     OW86610   5.361   0.746  10.104  0.6614 -0.2938 -0.0237
27097SOL    HW186611   5.449   0.771  10.074 -0.0549  1.9525 -0.4271
27097SOL    HW286612   5.345   0.803  10.179 -1.0767  0.5251 -0.9693
27098SOL     OW86613   6.178   3.187   0.632  0.2161 -0.1693  0.2155
27098SOL    HW186614   6.110   3.231   0.582 -0.1905 -0.0006  0.8974
27098SOL    HW286615   6.257   3.195   0.579 -0.6074 -1.7515 -1.3535
27099SOL     OW86616   9.547   9.051   8.277 -0.5530  0.0426 -0.5411
27099SOL    HW186617   9.501   9.062   8.194 -0.8836  0.1958 -0.3399
27099SOL    HW286618   9.595   9.133   8.290 -0.7260  0.1277 -0.4432
27100SOL     OW86619   4.217   7.215   1.967  0.6785  0.3981 -0.4334
27100SOL    HW186620   4.139   7.161   1.980  1.0416 -0.0853 -0.2443
27100SOL    HW286621   4.185   7.305   1.971  0.3679  0.2358  1.2399
27101SOL     OW86622   7.663   8.934  10.079 -0.0868 -0.0304 -0.1116
27101SOL    HW186623   7.646   9.015  10.127  2.0256  0.5430 -0.2240
27101SOL    HW286624   7.588   8.924  10.020 -1.2039  0.9078  1.1106
27102SOL     OW86625   5.816  10.624   2.057 -0.4001  0.1810 -0.2976
27102SOL    HW186626   5.886  10.577   2.101  0.1459 -0.7718 -2.0839
27102SOL    HW286627   5.756  10.650   2.127  1.2140  0.1462  1.1458
27103SOL     OW86628   2.211   2.926   4.697 -0.3688  0.3341 -0.8680
27103SOL    HW186629   2.235   2.883   4.780 -0.1909  0.4870 -0.8414
27103SOL    HW286630   2.121   2.955   4.712 -1.3177 -1.9399 -1.6404
27104SOL     OW86631   3.575   9.386   1.915 -0.5006  0.3471 -0.0272
27104SOL    HW186632   3.592   9.399   1.821  1.6570  2.2900  0.5354
27104SOL    HW286633   3.514   9.457   1.938 -1.4808 -0.4662 -0.0164
27105SOL     OW86634   8.562   0.686   2.210 -0.5372 -0.4799 -0.7303
27105SOL    HW186635   8.615   0.663   2.287  1.4754 -0.6009 -2.0821
27105SOL    HW286636   8.615   0.657   2.135 -1.4715  1.5287 -2.2467
27106SOL     OW86637   8.777   7.943   2.504 -0.3814  0.1062 -0.5207
27106SOL    HW186638   8.758   7.893   2.583 -0.1873 -1.1032 -1.2254
27106SOL    HW286639   8.771   8.035   2.532 -0.4401 -0.2995  0.8585
27107SOL     OW86640   2.122   0.708   8.157 -0.0016 -0.2757 -0.6376
27107SOL    HW186641   2.088   0.640   8.216 -2.0156  0.0403 -1.3799
27107SOL    HW286642   2.094   0.681   8.070  1.7046  0.0217 -1.3184
27108SOL     OW86643   4.489   8.834  10.345 -0.2585  0.1933  0.0584
27108SOL    HW186644   4.568   8.865  10.389  0.4434  1.8577 -2.2057
27108SOL    HW286645   4.502   8.739  10.337  0.1834  0.0273  2.1186
27109SOL     OW86646   3.138   8.609   4.054  0.1634  0.1737  0.0073
27109SOL    HW186647   3.118   8.690   4.007 -0.2615  0.1425  0.1388
27109SOL    HW286648   3.057   8.558   4.051  0.6296 -0.5538 -0.6953
27110SOL     OW86649   9.997   7.229  10.404 -0.0166 -0.3564 -0.7983
27110SOL    HW186650   9.946   7.198  10.330 -2.7097 -0.5385  0.9712
27110SOL    HW286651   9.997   7.324  10.395 -1.7248 -0.2690 -0.2854
27111SOL     OW86652  10.550   1.772   4.671  0.6472  0.3530  0.5573
27111SOL    HW186653  10.592   1.856   4.658  1.0571  0.2033  0.8810
27111SOL    HW286654  10.475   1.773   4.612  0.2497  1.2164  1.0623
27112SOL     OW86655   8.443   6.928  10.884 -0.1228  0.3025 -0.1643
27112SOL    HW186656   8.386   6.959  10.814 -1.1834 -0.2291  0.4204
27112SOL    HW286657   8.531   6.933  10.849 -0.5805  0.6716 -1.2874
27113SOL     OW86658  10.590   9.356   6.325 -0.1262  0.2590 -0.2566
27113SOL    HW186659  10.601   9.435   6.273  0.2116  1.9438  2.2270
27113SOL    HW286660  10.674   9.344   6.368 -0.2248 -1.4077 -0.4592
27114SOL     OW86661   2.952   4.938   7.229  0.6606 -0.2670  0.3447
27114SOL    HW186662   2.916   4.931   7.141  0.7676  0.0165  0.2779
27114SOL    HW286663   2.959   4.847   7.260  2.9772 -0.5903 -0.8915
27115SOL     OW86664   4.427   5.944   6.184 -0.1478  0.1239 -0.0253
27115SOL    HW186665   4.459   5.856   6.204  2.9316  0.7975 -1.3362
27115SOL    HW286666   4.460   5.998   6.256 -0.4962  0.4742 -0.1268
27116SOL     OW86667   4.204   0.731   9.046 -0.2028 -0.7405 -0.1956
27116SOL    HW186668   4.268   0.787   9.001 -1.9738 -0.3767 -2.4740
27116SOL    HW286669   4.254   0.655   9.075  1.5955  0.3875 -0.1863
27117SOL     OW86670   1.472   4.018   3.830 -0.4826 -0.3536  0.3418
27117SOL    HW186671   1.503   3.981   3.912  3.1878  1.7138  0.0739
27117SOL    HW286672   1.510   3.963   3.762  0.3308  0.5634  0.0259
27118SOL     OW86673   6.580   5.022   9.137  0.0007  0.3259  0.3670
27118SOL    HW186674   6.656   5.075   9.160  0.3904 -0.4155  0.8015
27118SOL    HW286675   6.583   4.947   9.197  1.3671 -1.9877 -2.3403
27119SOL     OW86676   5.404   5.515   3.521  0.6517  0.0443  0.3676
27119SOL    HW186677   5.368   5.576   3.456  2.3195 -0.8119 -1.4709
27119SOL    HW286678   5.395   5.429   3.481  1.6043 -0.5235  1.3188
27120SOL     OW86679   4.928   0.519   2.702  0.4273  0.0641  0.0723
27120SOL    HW186680   4.943   0.597   2.649 -0.4235  0.8121  0.9125
27120SOL    HW286681   4.948   0.446   2.643 -0.1212  0.8802 -1.1573
27121SOL     OW86682   9.519   2.257   4.023  0.0554  0.5867 -0.0836
27121SOL    HW186683   9.518   2.346   3.987  1.2474  0.5784 -0.1941
27121SOL    HW286684   9.596   2.216   3.984  0.7487  0.1994  1.5761
27122SOL     OW86685   8.856   0.191  11.792  0.1327  0.2684 -0.8340
27122SOL    HW186686   8.927   0.135  11.822 -0.5489 -0.5106 -0.6092
27122SOL    HW286687   8.815   0.223  11.873 -1.1874 -1.1580 -0.8931
27123SOL     OW86688  10.982  11.103  11.037 -0.3242  0.1824  0.4939
27123SOL    HW186689  10.980  11.054  10.955  0.8676  2.6639 -1.1285
27123SOL    HW286690  10.906  11.161  11.033 -0.7108 -0.2219  1.5456
27124SOL     OW86691   2.931   1.980   4.181 -0.4386  0.5602 -0.0488
27124SOL    HW186692   3.026   1.984   4.192 -0.4185  0.2971 -0.1205
27124SOL    HW286693   2.902   2.071   4.190 -0.2092  0.6082  0.2229
27125SOL     OW86694   2.126   5.712   8.757 -0.6365 -0.1059  0.0097
27125SOL    HW186695   2.042   5.745   8.725 -0.1995 -0.5046 -1.6421
27125SOL    HW286696   2.159   5.657   8.686  1.5190  0.8767  0.1683
27126SOL     OW86697  11.151   1.115   9.399  0.4911  0.0379 -0.6816
27126SOL    HW186698  11.159   1.162   9.316  1.5170 -1.1185 -1.2628
27126SOL    HW286699  11.096   1.039   9.378 -0.5211  0.5415  0.0682
27127SOL     OW86700   9.284   0.110   0.805 -0.2555 -0.1435 -0.2648
27127SOL    HW186701   9.263   0.183   0.746 -1.7938 -0.5710 -0.2822
27127SOL    HW286702   9.379   0.118   0.820  0.5077 -0.7758 -3.8280
27128SOL     OW86703   3.344   0.977   4.406  0.1315 -0.1380  0.2176
27128SOL    HW186704   3.337   0.963   4.312  0.1713  1.6851 -0.1028
27128SOL    HW286705   3.420   0.927   4.433 -1.0397 -2.3090 -0.3179
27129SOL     OW86706   2.833  10.809   9.326 -0.0517  0.0193  0.0368
27129SOL    HW186707   2.855  10.900   9.305  0.7015 -0.2870 -0.5465
27129SOL    HW286708   2.766  10.816   9.394  1.1114  1.0086  1.1446
27130SOL     OW86709   0.160   3.226   7.282  0.0776  0.1279  0.2005
27130SOL    HW186710   0.220   3.219   7.356 -0.0626  0.8542  0.3890
27130SOL    HW286711   0.217   3.239   7.206  0.1867  0.0431  0.2672
27131SOL     OW86712   3.789   0.752   9.287 -0.3124 -0.2742 -0.0414
27131SOL    HW186713   3.786   0.727   9.195 -1.4213  0.0582 -0.1220
27131SOL    HW286714   3.716   0.704   9.327 -0.7788  0.7176  0.3423
27132SOL     OW86715   4.355   7.723  10.607 -0.2773 -0.0187 -0.1114
27132SOL    HW186716   4.316   7.636  10.612 -0.5749  0.1565  0.6105
27132SOL    HW286717   4.413   7.728  10.683 -0.8506  0.6956  0.2904
27133SOL     OW86718   6.739  10.309   0.165  0.1869 -0.1214 -0.0734
27133SOL    HW186719   6.784  10.393   0.167  2.7226 -1.4064  1.0324
27133SOL    HW286720   6.808  10.245   0.147 -0.7841 -2.3987  3.2859
27134SOL     OW86721   4.172   6.508  11.808 -0.2978  0.0317  0.0938
27134SOL    HW186722   4.126   6.425  11.791  0.9422 -0.7295  0.3351
27134SOL    HW286723   4.118   6.574  11.764 -0.9270 -0.9917 -0.7315
27135SOL     OW86724   7.513   7.664  11.328 -0.0524 -0.1021 -0.0116
27135SOL    HW186725   7.589   7.690  11.277 -0.5441 -1.2793 -1.4133
27135SOL    HW286726   7.502   7.734  11.392  2.8631 -0.4395  1.0040
27136SOL     OW86727   7.361   7.186   4.085  0.4791  0.3833 -0.2259
27136SOL    HW186728   7.430   7.125   4.111 -0.3555 -0.7131 -0.4831
27136SOL    HW286729   7.358   7.181   3.990 -0.0330  0.3161 -0.2118
27137SOL     OW86730   7.415   0.673  10.162  0.3498 -0.4277 -0.1448
27137SOL    HW186731   7.418   0.620  10.242 -1.5104 -0.9643 -0.3831
27137SOL    HW286732   7.357   0.746  10.183  0.9020  0.1600 -0.6125
27138SOL     OW86733   1.629  11.698   7.842 -0.1476 -0.0634 -0.2923
27138SOL    HW186734   1.643  11.767   7.777  2.0740  0.7278  0.8971
27138SOL    HW286735   1.589  11.743   7.917 -1.6263 -0.7387 -0.6440
27139SOL     OW86736   4.492   7.327   1.144  0.5228  0.1843  0.2215
27139SOL    HW186737   4.536   7.404   1.110  0.8134 -0.2538 -0.4081
27139SOL    HW286738   4.524   7.318   1.233  0.8337  0.5241  0.1452
27140SOL     OW86739  10.796  10.500  10.496  0.1574  0.0001 -0.0269
27140SOL    HW186740  10.723  10.558  10.516  0.6264  0.7887 -0.5280
27140SOL    HW286741  10.791  10.430  10.561 -1.5156 -0.4119 -0.5532
27141SOL     OW86742  10.727   8.337   7.671  0.3057 -0.1489 -0.2443
27141SOL    HW186743  10.677   8.365   7.594 -0.4147 -2.5778 -0.7356
27141SOL    HW286744  10.668   8.277   7.717  2.0064 -1.4577  0.3143
27142SOL     OW86745   2.591   0.884  10.814  0.3395  0.3084  0.3450
27142SOL    HW186746   2.605   0.807  10.869  3.3250  1.2527  1.0596
27142SOL    HW286747   2.650   0.872  10.740 -0.8976  0.8465 -0.7693
27143SOL     OW86748   1.586   1.430   7.330 -0.1395 -0.2557 -0.9213
27143SOL    HW186749   1.525   1.492   7.289 -0.1790 -1.0439 -2.0938
27143SOL    HW286750   1.536   1.392   7.403  0.3141  2.0036  0.7037
27144SOL     OW86751   1.558  11.601   6.534  0.0565 -0.0254 -0.1945
27144SOL    HW186752   1.523  11.607   6.622  0.7277  1.6331  0.0026
27144SOL    HW286753   1.535  11.514   6.504 -0.3537 -0.5422  1.5433
27145SOL     OW86754   0.892  10.774  11.440  0.0804 -0.3709  0.0020
27145SOL    HW186755   0.857  10.849  11.392 -0.1252 -1.1915 -1.1939
27145SOL    HW286756   0.815  10.728  11.472  0.1711 -0.5307 -0.0088
27146SOL     OW86757   0.747   8.526   3.460  0.3391  0.0116 -0.2144
27146SOL    HW186758   0.796   8.609   3.461  1.7910 -0.7742 -1.9120
27146SOL    HW286759   0.745   8.499   3.552  1.7273  0.8858  0.1072
27147SOL     OW86760   6.814   3.787   3.688  0.1062 -0.4586  0.1948
27147SOL    HW186761   6.788   3.852   3.753 -0.1625  0.7714 -1.0879
27147SOL    HW286762   6.846   3.839   3.614 -1.4158 -1.7139 -1.4320
27148SOL     OW86763   2.811   6.760   0.105 -0.4175 -0.4792 -0.9302
27148SOL    HW186764   2.842   6.745   0.015 -0.0492 -0.9667 -0.7260
27148SOL    HW286765   2.827   6.677   0.150  1.0412  0.2885  0.0498
27149SOL     OW86766   2.357   4.370  10.218  0.0253 -0.2870  0.0166
27149SOL    HW186767   2.339   4.439  10.282  0.6543 -0.6867  0.6416
27149SOL    HW286768   2.395   4.299  10.270  1.1170 -0.3858 -0.8720
27150SOL     OW86769   3.481  10.619   9.518  0.3487  0.2496  0.1193
27150SOL    HW186770   3.409  10.662   9.472  0.7518  0.3999 -0.3785
27150SOL    HW286771   3.555  10.626   9.458  0.2708 -1.7021 -0.2724
27151SOL     OW86772   8.283  10.146  10.156  0.7223 -0.2718 -0.0645
27151SOL    HW186773   8.299  10.148  10.062 -0.4695 -0.0521 -0.2834
27151SOL    HW286774   8.326  10.065  10.186  0.6991 -0.5998 -0.8770
27152SOL     OW86775   5.578   5.467   7.822  0.2548 -0.2075  0.3175
27152SOL    HW186776   5.568   5.457   7.916  0.8849  1.9544  0.6647
27152SOL    HW286777   5.649   5.407   7.798  0.7763 -0.0298  1.3865
27153SOL     OW86778   1.479   9.981   7.743  0.3163  0.1106 -0.1067
27153SOL    HW186779   1.395   9.944   7.773  0.2636  1.8427  2.1662
27153SOL    HW286780   1.455  10.037   7.669 -0.3138 -0.4949 -0.3762
27154SOL     OW86781   8.975   2.885   9.370 -0.8228  0.4001  0.2057
27154SOL    HW186782   9.069   2.899   9.361 -0.4935 -2.1199 -0.9718
27154SOL    HW286783   8.942   2.968   9.406  1.4098  2.3689 -1.9065
27155SOL     OW86784   3.393   2.156   8.877 -0.4380 -0.1810  0.4727
27155SOL    HW186785   3.345   2.074   8.861  1.2747 -1.2427  0.5539
27155SOL    HW286786   3.386   2.204   8.795  1.6760 -2.1084 -0.9613
27156SOL     OW86787   8.847   3.819   5.108 -0.1856  0.4260 -0.4879
27156SOL    HW186788   8.941   3.817   5.126 -0.0803 -0.7723 -1.0488
27156SOL    HW286789   8.807   3.841   5.192  0.5938  1.0516 -0.2681
27157SOL     OW86790   8.030   5.074   5.309 -0.7418 -0.5264  0.1794
27157SOL    HW186791   8.070   5.102   5.391  1.3789  0.0793 -0.9635
27157SOL    HW286792   7.971   5.145   5.285  2.1915  1.7131 -1.0846
27158SOL     OW86793   6.456   0.517   5.771 -0.3939 -0.0125  0.7769
27158SOL    HW186794   6.412   0.600   5.789 -0.8451 -0.5063  2.0606
27158SOL    HW286795   6.449   0.467   5.853 -0.2326 -1.3614  0.0094
27159SOL     OW86796   6.178   0.468   1.403 -0.0685  0.5224 -0.4244
27159SOL    HW186797   6.094   0.504   1.432 -0.3691 -0.3528 -0.1784
27159SOL    HW286798   6.241   0.536   1.426 -0.6409  0.9830 -0.1549
27160SOL     OW86799   6.894   8.811   8.398  0.3852  0.6403  0.5824
27160SOL    HW186800   6.828   8.786   8.463 -1.0795  2.3558 -0.1282
27160SOL    HW286801   6.852   8.793   8.314  1.3061  0.6490  0.1115
27161SOL     OW86802   4.912   2.838   6.176  0.1064  0.7274  0.7157
27161SOL    HW186803   4.953   2.857   6.092 -0.5336 -1.0718 -0.0528
27161SOL    HW286804   4.847   2.908   6.187 -0.6141  0.3636 -0.8830
27162SOL     OW86805   4.415   0.756   5.493 -0.0985  0.0403 -0.5142
27162SOL    HW186806   4.448   0.821   5.431 -0.7268  0.3580 -0.5201
27162SOL    HW286807   4.444   0.672   5.457 -0.6945  0.1983 -1.3891
27163SOL     OW86808  10.714   8.697   8.659 -0.0699  0.0661 -0.0790
27163SOL    HW186809  10.661   8.773   8.634  1.0594  0.1305 -2.5116
27163SOL    HW286810  10.653   8.623   8.659 -0.7949  0.6497  0.4648
27164SOL     OW86811  11.382  10.756  10.319  0.4560  0.1140  0.3344
27164SOL    HW186812  11.473  10.741  10.294  1.2938  1.1689  2.5135
27164SOL    HW286813  11.368  10.697  10.393  0.0253  1.3707  1.2795
27165SOL     OW86814   2.079   4.535   2.584 -0.1289  0.6673  0.1696
27165SOL    HW186815   2.169   4.527   2.555 -0.7927  2.0019 -2.6088
27165SOL    HW286816   2.075   4.618   2.631  0.2228  0.2212  1.0039
27166SOL     OW86817   7.892   8.470   0.457 -0.1034 -0.2178 -0.8130
27166SOL    HW186818   7.892   8.377   0.478 -0.6987 -0.0671 -0.1203
27166SOL    HW286819   7.981   8.499   0.474 -0.1859 -0.4346  0.0471
27167SOL     OW86820   9.680   3.935   7.677 -0.1364  0.1613  0.5323
27167SOL    HW186821   9.612   3.876   7.645 -0.5357  0.7865  0.2104
27167SOL    HW286822   9.694   3.996   7.606  2.0202 -0.9774 -0.1232
27168SOL     OW86823  11.458   1.175   4.728 -0.7773 -0.0696 -0.0239
27168SOL    HW186824  11.468   1.083   4.703 -1.7621 -0.1409 -0.1790
27168SOL    HW286825  11.519   1.222   4.671 -1.5410 -0.4488 -1.1885
27169SOL     OW86826  11.383   4.174  10.757 -0.2155 -0.5929  0.3988
27169SOL    HW186827  11.314   4.108  10.763 -0.0548 -0.9858 -1.4185
27169SOL    HW286828  11.338   4.255  10.732 -0.1119 -0.6701 -0.0460
27170SOL     OW86829   1.025   2.735  11.171 -0.6900 -0.4709  0.0077
27170SOL    HW186830   1.085   2.660  11.175 -0.5560 -0.3266  0.8362
27170SOL    HW286831   1.060   2.797  11.235 -3.5494 -1.7601  3.1482
27171SOL     OW86832  10.987  10.220   7.272 -0.1343 -0.5363 -0.2608
27171SOL    HW186833  10.929  10.215   7.196 -0.1440  1.6590 -0.4419
27171SOL    HW286834  10.928  10.213   7.347 -0.6330  1.1401 -0.4504
27172SOL     OW86835   6.212  10.562   7.207  0.2625 -0.6893  0.3533
27172SOL    HW186836   6.146  10.499   7.175  0.4589 -0.6057 -0.2308
27172SOL    HW286837   6.215  10.630   7.139 -1.3931  1.0311  1.8718
27173SOL     OW86838   6.382   1.161   0.584 -0.6429  0.6060 -0.1454
27173SOL    HW186839   6.438   1.085   0.600 -0.1274  0.6141 -1.7889
27173SOL    HW286840   6.432   1.236   0.617  0.4112  0.6291 -1.7035
27174SOL     OW86841   2.628   7.840   4.356 -0.2293 -0.3498 -0.2899
27174SOL    HW186842   2.581   7.894   4.293 -0.0502  0.2717  0.1015
27174SOL    HW286843   2.561   7.787   4.398 -0.2595 -1.4531 -1.6280
27175SOL     OW86844  11.169   7.024   9.267 -0.0253 -0.2444 -0.0672
27175SOL    HW186845  11.112   6.971   9.323  0.6805  0.4075  1.3187
27175SOL    HW286846  11.254   7.023   9.311 -0.1601  2.6262  0.4496
27176SOL     OW86847  10.217   1.625   7.165  0.4088  0.3545 -0.1252
27176SOL    HW186848  10.132   1.586   7.145  0.4587  0.9934 -1.6958
27176SOL    HW286849  10.243   1.585   7.249 -2.2522  1.4958  1.3497
27177SOL     OW86850   6.973   0.079   5.860  0.2097  0.5634  0.1186
27177SOL    HW186851   7.025   0.106   5.785 -0.8375  0.4259 -0.6792
27177SOL    HW286852   6.893   0.131   5.854  0.7340  1.6637  2.0048
27178SOL     OW86853   1.717   0.828   2.031 -0.4542 -0.3829  0.2619
27178SOL    HW186854   1.631   0.797   2.001 -1.5617  1.4456  1.3115
27178SOL    HW286855   1.708   0.923   2.034  1.8684 -0.1019 -0.2427
27179SOL     OW86856  11.028   0.354   9.898  0.3308  0.0644 -0.1288
27179SOL    HW186857  10.949   0.401   9.926 -1.1777 -1.1928 -2.0200
27179SOL    HW286858  11.053   0.303   9.975 -1.0330  0.0554  0.3385
27180SOL     OW86859   6.034   4.572  11.789 -0.2340  0.0678  0.0294
27180SOL    HW186860   6.042   4.506  11.720  0.3738 -0.4094  0.5406
27180SOL    HW286861   6.118   4.619  11.786  0.0418 -0.3398  0.8076
27181SOL     OW86862   1.149   0.985  10.604  0.7489  0.1177  0.4418
27181SOL    HW186863   1.115   1.064  10.645  0.6491  0.0256  0.5374
27181SOL    HW286864   1.232   1.012  10.566  0.3203  0.4857 -0.2615
27182SOL     OW86865   9.547   4.853   3.097  0.5663 -0.0790 -0.1657
27182SOL    HW186866   9.626   4.859   3.043  0.9718 -0.9465  0.3047
27182SOL    HW286867   9.557   4.922   3.162  0.3627  0.5827 -0.8230
27183SOL     OW86868  11.430  10.445   8.533 -0.7690  0.0421 -0.8044
27183SOL    HW186869  11.520  10.412   8.523 -1.3508 -1.4006 -1.3987
27183SOL    HW286870  11.418  10.503   8.457 -0.1029  0.8493 -0.3158
27184SOL     OW86871   7.266   3.066   9.289  0.1136 -0.0695 -0.5910
27184SOL    HW186872   7.318   3.034   9.363 -1.4817 -1.4435  0.0022
27184SOL    HW286873   7.224   3.145   9.322 -2.1957 -1.7461  0.8027
27185SOL     OW86874   2.044   0.382   5.158  0.0068 -0.6061 -0.0324
27185SOL    HW186875   2.085   0.372   5.244  0.4741 -1.9192 -0.3972
27185SOL    HW286876   1.952   0.403   5.178 -0.4564 -3.1781  0.8425
27186SOL     OW86877   1.380   7.405   2.372  0.5187  0.6721 -0.2493
27186SOL    HW186878   1.400   7.404   2.465 -2.1916  1.6688  0.4019
27186SOL    HW286879   1.314   7.473   2.361 -2.2418 -2.0134 -2.1838
27187SOL     OW86880  11.755   2.662   5.285  0.0180  0.7154  0.4634
27187SOL    HW186881  11.850   2.657   5.294  0.1362 -0.5009 -1.1101
27187SOL    HW286882  11.741   2.718   5.208 -0.4933  0.0538  0.0640
27188SOL     OW86883   0.045   3.007   5.804 -0.1473 -0.0525 -0.3635
27188SOL    HW186884   0.046   2.958   5.886  0.9196  1.8045  0.7937
27188SOL    HW286885  -0.024   3.072   5.816  2.1855  2.4311  0.5173
27189SOL     OW86886   9.052   9.196   8.236 -0.3201 -0.2688  0.0146
27189SOL    HW186887   9.000   9.248   8.175 -3.0927 -0.5268  1.9831
27189SOL    HW286888   9.078   9.259   8.304 -0.3043 -0.6862  0.3956
27190SOL     OW86889   3.836   3.822   6.886 -0.5986  0.3786  0.4556
27190SOL    HW186890   3.814   3.849   6.797  3.4924 -2.7308 -1.8459
27190SOL    HW286891   3.811   3.730   6.890  2.3545 -0.4855  1.1727
27191SOL     OW86892   1.084   3.963  10.771 -0.1330 -0.3908 -0.2139
27191SOL    HW186893   1.029   3.997  10.842 -0.4725  1.0212 -1.1082
27191SOL    HW286894   1.173   3.966  10.806 -0.4980 -1.7861  0.9043
27192SOL     OW86895   7.350  11.713   1.843 -0.1372  0.4293 -0.0035
27192SOL    HW186896   7.439  11.704   1.877 -1.0365  1.7054  2.9196
27192SOL    HW286897   7.334  11.807   1.841 -1.2336  0.2424 -1.1086
27193SOL     OW86898   1.392   1.659   9.463 -0.1820  0.3384 -0.3469
27193SOL    HW186899   1.372   1.658   9.369  0.8586 -1.7092 -0.6048
27193SOL    HW286900   1.463   1.596   9.472 -0.4145  0.3407  1.8688
27194SOL     OW86901   3.365   0.188  11.706  0.0811  0.6532  0.3742
27194SOL    HW186902   3.289   0.241  11.683 -0.0347 -0.4169 -1.9631
27194SOL    HW286903   3.440   0.245  11.690 -0.1118  0.6570 -0.5498
27195SOL     OW86904   7.810   2.136   8.892  0.1338 -1.0269 -0.1731
27195SOL    HW186905   7.724   2.173   8.909 -0.9509 -3.5652  0.3420
27195SOL    HW286906   7.840   2.180   8.813  0.5634  3.3386  2.0753
27196SOL     OW86907   1.885   9.465   3.346 -0.3545 -0.4458 -0.2165
27196SOL    HW186908   1.874   9.538   3.285  0.9839 -0.4606 -0.5109
27196SOL    HW286909   1.800   9.456   3.388 -0.1521  2.3111  1.0023
27197SOL     OW86910  11.713   1.422   8.335 -0.5176  0.2564  0.5404
27197SOL    HW186911  11.753   1.397   8.418  1.7663  2.4479  0.2329
27197SOL    HW286912  11.784   1.418   8.271 -1.7630  0.4212 -0.9228
27198SOL     OW86913   7.190  10.254   2.374 -0.9889 -0.4005 -0.2744
27198SOL    HW186914   7.229  10.336   2.345  1.5877 -1.3511  0.2034
27198SOL    HW286915   7.152  10.216   2.295  0.7939 -0.2681 -1.2610
27199SOL     OW86916  10.298  11.458   3.154  0.7661  0.1852  0.7428
27199SOL    HW186917  10.364  11.390   3.147  1.1067  0.4829  1.0208
27199SOL    HW286918  10.222  11.423   3.109  0.9912 -0.3143  0.7497
27200SOL     OW86919   1.637  10.082   8.168 -0.0908  0.3890 -0.3164
27200SOL    HW186920   1.629  10.109   8.077 -0.7179 -0.9562 -0.6970
27200SOL    HW286921   1.652   9.987   8.163 -1.5032  0.0499  0.9968
27201SOL     OW86922   3.595   1.809   0.264  0.1675  0.1578  0.7616
27201SOL    HW186923   3.589   1.842   0.175  2.8384 -0.5696  0.2200
27201SOL    HW286924   3.688   1.815   0.286  0.1489 -2.8188  2.2267
27202SOL     OW86925   1.270   2.105   8.264  0.0663 -0.3356 -0.7659
27202SOL    HW186926   1.253   2.199   8.257 -1.1229 -0.3787  1.0543
27202SOL    HW286927   1.354   2.099   8.310 -1.1469 -0.1096  1.6210
27203SOL     OW86928   5.337   9.628   9.768 -0.0202  0.0463 -0.0032
27203SOL    HW186929   5.263   9.613   9.709 -1.2662 -0.8623  1.7310
27203SOL    HW286930   5.401   9.561   9.744 -0.4629 -0.2404 -0.4000
27204SOL     OW86931   0.055   6.283   0.133  0.6725 -0.2500  0.3130
27204SOL    HW186932   0.120   6.279   0.203  1.9640 -1.2779 -0.8869
27204SOL    HW286933   0.106   6.272   0.052 -0.9622 -0.9374 -0.6773
27205SOL     OW86934   9.607   8.115   5.425 -0.6027  0.2520  0.1496
27205SOL    HW186935   9.633   8.089   5.336 -0.7786  1.1289 -0.1642
27205SOL    HW286936   9.673   8.180   5.451  0.3663 -1.1237  1.2794
27206SOL     OW86937   8.083   0.268   7.354 -0.1815 -0.2885  0.5218
27206SOL    HW186938   8.070   0.362   7.367 -0.1827 -0.3797  1.2319
27206SOL    HW286939   8.143   0.242   7.424  1.3581 -0.4730 -0.8051
27207SOL     OW86940  11.167   6.916  11.651 -0.0015 -0.2307 -0.3788
27207SOL    HW186941  11.130   6.973  11.718 -1.2044 -1.9661  0.4950
27207SOL    HW286942  11.244   6.877  11.692  0.7554  0.6263 -0.9385
27208SOL     OW86943   6.674   0.594   5.134 -0.5123  0.5113  0.0984
27208SOL    HW186944   6.682   0.690   5.139 -1.3805  0.7317 -1.6697
27208SOL    HW286945   6.724   0.571   5.055 -0.4727 -0.4674  0.4029
27209SOL     OW86946   0.124   6.791   4.393  0.3470 -0.2711  0.2603
27209SOL    HW186947   0.203   6.821   4.348 -0.6431 -1.4034 -2.4371
27209SOL    HW286948   0.059   6.858   4.375  0.4545  0.3688  1.9947
27210SOL     OW86949   4.251   6.897   9.438 -0.0867 -0.0271 -0.0161
27210SOL    HW186950   4.279   6.988   9.425 -1.1613  0.2473 -0.5336
27210SOL    HW286951   4.156   6.904   9.453 -0.3187 -1.1336 -0.9103
27211SOL     OW86952   4.385   4.361   3.228 -0.5563 -1.0930  0.4502
27211SOL    HW186953   4.393   4.290   3.291  2.5637 -2.2213 -0.9839
27211SOL    HW286954   4.419   4.438   3.274 -0.8901 -1.2574  0.9821
27212SOL     OW86955   1.898   2.728   8.584  0.2146  0.2544 -0.0608
27212SOL    HW186956   1.965   2.685   8.637 -0.0947  1.1145  1.0616
27212SOL    HW286957   1.818   2.720   8.636 -0.8745 -1.7426 -1.8581
27213SOL     OW86958   1.135   9.263   1.006 -0.1135  0.1046 -0.0424
27213SOL    HW186959   1.089   9.335   1.049  0.4375  0.3776  0.0980
27213SOL    HW286960   1.219   9.256   1.052  0.4293  0.3056 -0.9648
27214SOL     OW86961   9.106   3.077   4.315  0.2032  0.0445 -0.1247
27214SOL    HW186962   9.163   3.142   4.273  0.2598  0.3330  0.3838
27214SOL    HW286963   9.093   3.010   4.248 -1.4940  1.5359 -1.4056
27215SOL     OW86964   1.611   9.091  10.037  0.2426 -0.5764  0.0983
27215SOL    HW186965   1.632   8.998  10.029  2.3122 -0.0351 -1.5662
27215SOL    HW286966   1.695   9.134  10.055 -0.6421  0.9994  0.6815
27216SOL     OW86967   4.741   1.181   1.132  0.0247 -0.1179  0.4136
27216SOL    HW186968   4.806   1.114   1.152  1.3684  0.6708 -1.0262
27216SOL    HW286969   4.677   1.136   1.077  0.6961 -0.3624 -0.1999
27217SOL     OW86970   4.826   7.264   8.071  0.0056 -0.2991  0.0617
27217SOL    HW186971   4.914   7.227   8.060 -0.3216 -1.0499 -0.0763
27217SOL    HW286972   4.786   7.257   7.984 -1.1410 -2.4762  0.6884
27218SOL     OW86973   7.129   1.398   4.729 -0.3551 -0.3644  0.3004
27218SOL    HW186974   7.201   1.439   4.777 -0.4366 -0.6160  0.6413
27218SOL    HW286975   7.091   1.336   4.791 -0.8882 -0.2114  0.1299
27219SOL     OW86976   2.250   3.114   2.601 -0.3340 -0.7510  0.1417
27219SOL    HW186977   2.315   3.176   2.568  0.7719 -1.5273  0.8089
27219SOL    HW286978   2.169   3.139   2.556  0.3543  0.3904 -0.5235
27220SOL     OW86979  11.174   0.356  11.391 -0.0196 -0.3867 -0.2930
27220SOL    HW186980  11.094   0.396  11.357  0.5112  0.5070 -0.5400
27220SOL    HW286981  11.148   0.316  11.474 -0.5500  0.6190  0.0459
27221SOL     OW86982   1.072   8.759   4.367 -0.2670 -0.0239  0.3931
27221SOL    HW186983   1.014   8.792   4.435 -1.0836  0.1366 -0.3654
27221SOL    HW286984   1.041   8.670   4.350 -0.0031 -0.0982  0.2979
27222SOL     OW86985   6.816   2.757   3.509 -0.3358 -0.0495  0.7705
27222SOL    HW186986   6.867   2.681   3.535  0.6685 -0.5960 -2.3336
27222SOL    HW286987   6.726   2.736   3.534 -0.0719 -2.2869  0.0662
27223SOL     OW86988   8.740   0.915   5.497 -0.1727 -0.1548  0.7469
27223SOL    HW186989   8.808   0.871   5.548  0.1582  0.9284  1.2802
27223SOL    HW286990   8.760   0.894   5.406  1.5524  0.9969  0.8077
27224SOL     OW86991   1.526  10.965   5.970  0.1813  0.4346 -0.0291
27224SOL    HW186992   1.614  10.994   5.993 -0.4984  1.8120  1.0078
27224SOL    HW286993   1.539  10.897   5.905  2.1149 -1.3524  2.0797
27225SOL     OW86994   7.709   8.031   8.544  0.3998 -0.1847  0.3837
27225SOL    HW186995   7.695   8.047   8.451 -1.7378 -0.7506  0.5445
27225SOL    HW286996   7.738   8.116   8.579 -2.1329  1.0473 -0.2627
27226SOL     OW86997   4.790  10.340   5.878  0.0938  0.0820 -0.4703
27226SOL    HW186998   4.820  10.288   5.803  0.7801 -0.0783 -0.0888
27226SOL    HW286999   4.869  10.360   5.927 -0.5515 -2.1894  1.7589
27227SOL     OW87000   5.476   4.111   2.046 -0.4924  0.0991  0.0892
27227SOL    HW187001   5.442   4.029   2.013  0.0751 -1.0657  2.1888
27227SOL    HW287002   5.564   4.119   2.008 -0.4746 -0.3621  0.0375
27228SOL     OW87003   1.027  10.922   7.764  0.1805 -0.1831 -0.1233
27228SOL    HW187004   1.062  11.011   7.757  1.2571 -0.7094 -2.4749
27228SOL    HW287005   1.040  10.899   7.856  1.8097  1.3530  0.0992
27229SOL     OW87006   1.031   5.956  11.645  0.2692 -0.8544  0.1075
27229SOL    HW187007   1.028   5.862  11.663 -1.0816 -0.7915  0.3549
27229SOL    HW287008   1.072   5.994  11.722 -0.2173 -1.1478  0.5231
27230SOL     OW87009  11.136   9.692   1.342  0.1230  1.1042 -0.0846
27230SOL    HW187010  11.227   9.718   1.338  0.1255  0.9843 -0.9148
27230SOL    HW287011  11.129   9.640   1.423  1.2767 -0.6754 -1.0596
27231SOL     OW87012   4.184   0.153   9.760  0.6139  0.5154 -0.0431
27231SOL    HW187013   4.137   0.111   9.688 -0.1456 -0.0129  0.7364
27231SOL    HW287014   4.207   0.240   9.726  0.9180  0.0086 -1.1615
27232SOL     OW87015   0.162   9.289   9.972 -0.2121  0.4370 -0.8191
27232SOL    HW187016   0.120   9.269   9.888  1.3542 -0.5713 -1.4298
27232SOL    HW287017   0.156   9.384   9.980  0.1389  0.6274 -2.3900
27233SOL     OW87018   0.976   4.176   7.137 -0.1453 -0.8094 -0.5073
27233SOL    HW187019   1.058   4.226   7.132 -0.7682  0.3896  0.8128
27233SOL    HW287020   0.916   4.233   7.185 -0.8492 -2.8928  1.2228
27234SOL     OW87021   1.243   3.884  11.619  0.3396 -0.0052  0.1644
27234SOL    HW187022   1.156   3.923  11.627  0.3868 -0.1905  1.8539
27234SOL    HW287023   1.301   3.959  11.605 -0.0486  0.1284 -0.8436
27235SOL     OW87024  10.975   7.634   1.092  0.1165  0.0590  0.2653
27235SOL    HW187025  10.902   7.611   1.150  0.4157  0.9569  1.0339
27235SOL    HW287026  10.958   7.725   1.069  0.4980 -0.0201 -0.3294
27236SOL     OW87027   3.483   1.217  10.785  0.0363  0.3962  0.0162
27236SOL    HW187028   3.429   1.191  10.710  1.1999  0.5316 -0.8952
27236SOL    HW287029   3.568   1.176  10.769 -0.4664 -2.1762  2.8116
27237SOL     OW87030   7.588   6.051   5.057 -0.1630 -0.0621  0.0418
27237SOL    HW187031   7.590   5.966   5.014  1.7040 -0.2818  0.4474
27237SOL    HW287032   7.532   6.105   5.002  0.8512 -0.7825 -1.7992
27238SOL     OW87033   1.112   5.572   2.652 -0.3359  0.1555 -0.2602
27238SOL    HW187034   1.154   5.657   2.667  0.4925 -0.1699 -0.6890
27238SOL    HW287035   1.030   5.593   2.607 -0.3254  0.7497 -0.0128
27239SOL     OW87036  10.633   6.754   2.724 -0.8103 -0.2396 -0.4820
27239SOL    HW187037  10.563   6.783   2.667 -0.2532 -0.8758 -1.5079
27239SOL    HW287038  10.595   6.756   2.812 -2.1970 -0.8882 -1.0510
27240SOL     OW87039   5.996  10.345   6.234 -0.2758  0.3404  0.7338
27240SOL    HW187040   6.076  10.397   6.228 -0.4540  0.5817  0.3977
27240SOL    HW287041   5.927  10.403   6.202 -0.2379 -0.6355 -1.3277
27241SOL     OW87042   8.224   1.575   8.078  0.6034  0.4978  0.0045
27241SOL    HW187043   8.309   1.594   8.038 -0.2441  0.6405 -1.8398
27241SOL    HW287044   8.220   1.479   8.080  0.6389  0.4891 -0.2897
27242SOL     OW87045  11.002   7.239   3.618 -0.1207  0.4275  0.6184
27242SOL    HW187046  10.995   7.154   3.574 -2.1137 -0.4687  2.5102
27242SOL    HW287047  10.921   7.248   3.667 -0.6190  4.1224 -0.5816
27243SOL     OW87048   8.513   0.259   5.297 -0.5970 -0.0959  0.4337
27243SOL    HW187049   8.575   0.197   5.259 -0.7439  0.4035 -0.6521
27243SOL    HW287050   8.428   0.233   5.261 -0.5966  1.0069 -0.4310
27244SOL     OW87051  11.826   9.681  10.834 -0.5849 -0.1798  0.4504
27244SOL    HW187052  11.911   9.688  10.878 -1.1714  0.0132  1.5924
27244SOL    HW287053  11.816   9.587  10.815  0.4163 -0.0608 -0.8401
27245SOL     OW87054  11.131   0.934   4.758  0.0684 -0.8558  0.4053
27245SOL    HW187055  11.072   0.862   4.781 -0.3724 -0.2858  1.0995
27245SOL    HW287056  11.155   0.973   4.842 -2.4958  2.0090  0.0020
27246SOL     OW87057   2.070   2.721   3.061  0.6352  0.1338 -0.5503
27246SOL    HW187058   1.998   2.681   3.012  0.0297  2.2031 -1.4542
27246SOL    HW287059   2.027   2.765   3.134  1.4313 -1.9834  1.3014
27247SOL     OW87060  11.349   8.866   6.373 -0.9415 -0.0627 -0.2877
27247SOL    HW187061  11.315   8.785   6.333 -1.9225 -0.0246  0.4362
27247SOL    HW287062  11.423   8.837   6.426 -0.3537 -0.2707 -1.1906
27248SOL     OW87063   1.212  10.765   6.023 -0.0725 -0.1755 -0.4189
27248SOL    HW187064   1.187  10.691   6.078 -1.5663  0.4554 -0.2049
27248SOL    HW287065   1.307  10.774   6.035  0.3017 -2.5690 -1.1103
27249SOL     OW87066  11.081   3.883   4.388  0.3264 -0.5696 -0.0883
27249SOL    HW187067  11.168   3.848   4.410 -0.1464 -1.8117 -0.0975
27249SOL    HW287068  11.083   3.973   4.419  1.6694 -0.5307 -0.2163
27250SOL     OW87069   9.094   0.880   5.859  0.1945 -0.2167 -0.3033
27250SOL    HW187070   9.077   0.803   5.913  0.8727 -0.5339 -0.5292
27250SOL    HW287071   9.021   0.882   5.797 -0.2205 -0.2405  0.1791
27251SOL     OW87072   1.935   4.696   3.915  0.3247  0.7556  0.4780
27251SOL    HW187073   1.852   4.723   3.876 -0.9671 -1.4183  1.5096
27251SOL    HW287074   1.986   4.777   3.922 -0.5639  1.7305 -2.7054
27252SOL     OW87075   9.205   7.641   5.411 -0.2866  0.0622  1.1667
27252SOL    HW187076   9.300   7.638   5.402 -0.4515 -0.0144 -1.1610
27252SOL    HW287077   9.176   7.699   5.340 -1.9843  0.0677  1.8118
27253SOL     OW87078   8.806   9.535   5.203 -0.0461  0.1600  0.6017
27253SOL    HW187079   8.803   9.627   5.176  2.2735  0.7020  1.9079
27253SOL    HW287080   8.880   9.530   5.263 -0.6524 -2.4128  1.2625
27254SOL     OW87081   1.226   2.205   2.291 -0.4367  0.0562  0.2162
27254SOL    HW187082   1.137   2.238   2.276 -0.1579  1.2348  0.9821
27254SOL    HW287083   1.276   2.235   2.215 -0.8248 -1.1657 -0.5330
27255SOL     OW87084   2.221   9.405   1.150  0.0857 -0.1635 -0.3376
27255SOL    HW187085   2.302   9.358   1.169 -0.1795 -1.0086 -1.1844
27255SOL    HW287086   2.173   9.405   1.233  0.5926 -0.3985 -0.0411
27256SOL     OW87087   2.147   7.304   9.902 -0.1136  0.4603  0.2948
27256SOL    HW187088   2.179   7.257   9.825  1.9831  1.2819  0.6284
27256SOL    HW287089   2.137   7.236   9.968  1.0851  0.1984  0.2164
27257SOL     OW87090   4.149   9.989   3.109 -0.4797 -0.3342  0.1694
27257SOL    HW187091   4.173  10.034   3.028 -2.1321  2.0431  0.9006
27257SOL    HW287092   4.065   9.947   3.089 -1.1682  0.7207  0.7706
27258SOL     OW87093   7.798   5.183  10.126 -0.2165 -0.4922 -0.1775
27258SOL    HW187094   7.861   5.129  10.078  0.2031 -0.6857  0.5827
27258SOL    HW287095   7.800   5.149  10.215  0.0132  0.7345  0.3084
27259SOL     OW87096   1.578   0.190   9.370  0.1933 -0.3575  0.4660
27259SOL    HW187097   1.653   0.227   9.324  2.4124 -1.4379  2.9117
27259SOL    HW287098   1.535   0.265   9.411 -0.2837  0.3071 -1.1958
27260SOL     OW87099   9.205   8.642   1.833 -0.0490  0.0560  0.4724
27260SOL    HW187100   9.124   8.688   1.855 -0.1693 -0.2776  0.7477
27260SOL    HW287101   9.274   8.694   1.873 -0.1571  0.1778  0.4990
27261SOL     OW87102   4.464   4.944  11.585 -0.5994  0.3678 -0.3672
27261SOL    HW187103   4.494   4.984  11.504  0.0583 -0.6567 -0.6558
27261SOL    HW287104   4.439   5.017  11.641  0.4852  1.1658 -0.8919
27262SOL     OW87105   0.316  11.723  10.117 -0.2788  0.5182  0.4532
27262SOL    HW187106   0.267  11.697  10.039 -0.5436 -0.2005  0.8485
27262SOL    HW287107   0.330  11.641  10.165  1.5674  0.6554  0.2100
27263SOL     OW87108   7.471   3.474   5.493  0.2297 -0.1888 -0.0223
27263SOL    HW187109   7.547   3.523   5.524  0.1980 -1.2143  1.8575
27263SOL    HW287110   7.396   3.517   5.534 -0.2386  0.7418 -1.7672
27264SOL     OW87111   0.638   7.221   1.857 -0.0274 -0.6456  0.0147
27264SOL    HW187112   0.633   7.265   1.942  1.6402 -2.3080  1.0629
27264SOL    HW287113   0.594   7.137   1.871 -3.9758  0.7695 -2.1945
27265SOL     OW87114   9.580   7.700  11.774 -0.3609 -1.0658  0.3967
27265SOL    HW187115   9.634   7.713  11.696 -1.5597 -1.2041 -0.4877
27265SOL    HW287116   9.500   7.658  11.741 -2.2653  1.6831  1.2015
27266SOL     OW87117   5.368   1.605   2.076 -0.2347  0.4831  0.1857
27266SOL    HW187118   5.403   1.587   2.163 -0.7519 -0.5676  0.2001
27266SOL    HW287119   5.279   1.569   2.079  0.0288 -0.3040 -1.0248
27267SOL     OW87120   6.321   1.841   0.221  0.2688  0.7406 -0.0387
27267SOL    HW187121   6.279   1.760   0.192  0.6320  0.4084  0.3508
27267SOL    HW287122   6.276   1.864   0.303  0.6766  0.5120  0.2547
27268SOL     OW87123   5.164  11.345   8.635  0.1406 -0.6391  0.1444
27268SOL    HW187124   5.232  11.279   8.615 -0.4546 -0.5776 -2.5250
27268SOL    HW287125   5.085  11.309   8.596 -0.1835  1.6574 -1.5043
27269SOL     OW87126   5.232   4.161   0.526 -0.0523 -0.0907  0.5905
27269SOL    HW187127   5.219   4.204   0.611 -2.1859  2.4826 -0.8992
27269SOL    HW287128   5.246   4.233   0.465  2.0718 -1.9169 -1.2338
27270SOL     OW87129   6.164   1.189   3.137  0.3266 -0.0400  0.0306
27270SOL    HW187130   6.125   1.270   3.172  0.4904  0.6121 -1.2385
27270SOL    HW287131   6.102   1.120   3.161  0.0363  0.4922  0.8787
27271SOL     OW87132   5.059   0.417   7.771  0.2506 -0.0167 -0.4867
27271SOL    HW187133   5.133   0.380   7.723 -0.9270 -1.9021 -0.9618
27271SOL    HW287134   5.046   0.504   7.734  1.8932  0.1422 -0.7348
27272SOL     OW87135   6.091   9.701   5.679 -0.7202  0.6097 -0.1248
27272SOL    HW187136   6.186   9.706   5.674 -0.7462  1.4739  0.0827
27272SOL    HW287137   6.067   9.767   5.744 -1.3937 -0.2887  0.5592
27273SOL     OW87138   7.616   9.550   3.234 -0.6209  0.4633  0.4571
27273SOL    HW187139   7.550   9.597   3.285 -0.1897 -0.7477  2.2398
27273SOL    HW287140   7.698   9.596   3.254 -0.1098 -1.1954  2.6245
27274SOL     OW87141   8.432  10.317  10.480 -0.5209  0.3636  0.3465
27274SOL    HW187142   8.354  10.372  10.468 -1.5208 -1.3259 -1.2985
27274SOL    HW287143   8.464  10.300  10.392  0.4213 -0.7999  0.8841
27275SOL     OW87144   1.213   6.454   2.560  0.4504 -0.0097 -0.1913
27275SOL    HW187145   1.207   6.550   2.553 -2.0204  0.0511  1.4496
27275SOL    HW287146   1.183   6.435   2.649 -1.5327 -2.4333 -1.2645
27276SOL     OW87147   4.384  10.265   1.389 -0.9563 -0.3868 -0.1219
27276SOL    HW187148   4.453  10.321   1.353 -0.6484 -1.6875 -1.6674
27276SOL    HW287149   4.350  10.315   1.464  0.1622  1.2645 -0.6399
27277SOL     OW87150   0.034   6.279  10.001  0.4862  0.1566  0.2824
27277SOL    HW187151   0.116   6.234  10.024  0.6953  0.7174  0.6550
27277SOL    HW287152  -0.008   6.221   9.937  1.8088  0.4967 -0.9425
27278SOL     OW87153   1.464   1.355   1.222 -0.1504 -0.2352  0.1734
27278SOL    HW187154   1.375   1.362   1.186  0.2757 -0.9277 -1.0961
27278SOL    HW287155   1.518   1.329   1.147  1.6496  2.8878  0.2265
27279SOL     OW87156   6.536   2.206   8.926 -0.1275  0.6860 -0.5692
27279SOL    HW187157   6.524   2.210   8.832  0.1969  0.1031 -0.6390
27279SOL    HW287158   6.472   2.141   8.956  0.0510  0.5639 -0.4457
27280SOL     OW87159   4.149   6.080   8.853  0.0453  0.0399 -0.0877
27280SOL    HW187160   4.166   6.115   8.766 -3.5893 -1.3467 -1.5682
27280SOL    HW287161   4.182   5.990   8.849  1.2870  0.4488  0.5657
27281SOL     OW87162   4.959   7.276  11.317  0.0196 -0.0930  0.0071
27281SOL    HW187163   4.873   7.245  11.344 -1.0060  2.3263 -0.1493
27281SOL    HW287164   5.002   7.199  11.280 -1.6850 -1.5904  0.9676
27282SOL     OW87165   5.722   3.840   4.318  0.4115 -0.1100 -0.0258
27282SOL    HW187166   5.630   3.831   4.293  0.6053  1.6319 -1.5445
27282SOL    HW287167   5.747   3.927   4.289  1.5471  0.9851  3.6852
27283SOL     OW87168   7.546   8.875   7.696 -0.4942 -0.6100  0.3295
27283SOL    HW187169   7.491   8.812   7.744 -0.6003 -2.3042 -1.8378
27283SOL    HW287170   7.632   8.833   7.692 -0.5230 -0.5832 -1.0018
27284SOL     OW87171   0.713   8.621   9.848 -0.2804  0.6212 -0.1369
27284SOL    HW187172   0.684   8.706   9.814 -1.2322  0.3670  0.0180
27284SOL    HW287173   0.689   8.624   9.941  0.5852  0.5661  0.0993
27285SOL     OW87174  11.407   2.143   7.566  0.2428 -0.2995  0.3524
27285SOL    HW187175  11.480   2.108   7.617  0.4348  0.1464  0.3865
27285SOL    HW287176  11.442   2.152   7.477  0.4552  0.5763  0.5135
27286SOL     OW87177   0.808   7.955   0.563 -0.6304  0.0525  0.3650
27286SOL    HW187178   0.845   8.012   0.630 -1.1080  0.1498  0.5511
27286SOL    HW287179   0.792   7.871   0.608 -0.6640  0.0212  0.2960
27287SOL     OW87180   4.895   4.780   7.446 -0.0270  0.3794  0.0583
27287SOL    HW187181   4.980   4.788   7.489  0.4779  0.3394 -0.9050
27287SOL    HW287182   4.845   4.856   7.477  0.1280  0.0832  1.0918
27288SOL     OW87183   9.133  10.494   2.786  0.5699 -0.1369  0.9448
27288SOL    HW187184   9.183  10.573   2.809  0.1885 -0.0974  1.6688
27288SOL    HW287185   9.195  10.438   2.741  0.4268  1.2865 -1.1226
27289SOL     OW87186   5.730   4.164  10.663  0.3600 -0.2885  0.1037
27289SOL    HW187187   5.760   4.254  10.658 -1.0055  0.2606  1.1651
27289SOL    HW287188   5.802   4.112  10.626  2.9110  0.8510  3.0105
27290SOL     OW87189   5.259   9.772   8.296  0.4680  0.6226 -0.1752
27290SOL    HW187190   5.214   9.703   8.247 -1.8033  2.0168 -0.2041
27290SOL    HW287191   5.265   9.739   8.385 -0.1589  0.1675 -0.2955
27291SOL     OW87192   2.116   6.274   3.481  0.3936 -0.3805  0.1436
27291SOL    HW187193   2.069   6.219   3.543 -2.6671 -0.3648 -1.9569
27291SOL    HW287194   2.178   6.215   3.437 -0.9451 -1.5511 -0.2218
27292SOL     OW87195   8.120   4.988  10.998  0.2366 -0.1510 -0.7693
27292SOL    HW187196   8.107   5.082  11.005  3.2050  0.4279 -1.6439
27292SOL    HW287197   8.063   4.961  10.926 -1.0691  0.8068 -0.1440
27293SOL     OW87198   7.799   2.591   6.635 -0.4058 -0.2048 -0.1650
27293SOL    HW187199   7.827   2.614   6.546 -0.7209  0.3114 -0.1389
27293SOL    HW287200   7.736   2.520   6.624  0.4147 -0.9256 -0.2704
27294SOL     OW87201   8.303   1.565   9.361 -0.4106 -0.2464 -0.6793
27294SOL    HW187202   8.255   1.522   9.432 -1.5382 -1.0001 -1.8686
27294SOL    HW287203   8.375   1.611   9.406 -1.5841  0.0169  1.0328
27295SOL     OW87204   5.993  10.769  11.721 -0.4477 -0.3331 -0.3246
27295SOL    HW187205   5.947  10.850  11.699  0.0749 -0.0804 -0.4944
27295SOL    HW287206   5.975  10.755  11.814  0.0755  0.3780 -0.1096
27296SOL     OW87207  11.078   6.256   3.318  0.3901  0.4342  0.5641
27296SOL    HW187208  11.075   6.170   3.274  1.9761  0.2963  0.6563
27296SOL    HW287209  11.047   6.317   3.251  2.4709  0.1906 -0.7289
27297SOL     OW87210  11.240  10.971   3.902  0.2449 -0.6895  0.5529
27297SOL    HW187211  11.304  11.030   3.942  0.3438 -0.6855  0.3891
27297SOL    HW287212  11.216  11.014   3.820  2.1841 -2.0483 -0.8211
27298SOL     OW87213  11.021   6.052   8.665 -0.0925 -0.2849  0.0813
27298SOL    HW187214  11.012   6.033   8.572  2.4668  1.3847 -0.6211
27298SOL    HW287215  10.961   6.125   8.681  0.3418  0.2291 -0.5861
27299SOL     OW87216   7.247   0.800   3.583  0.4308  0.4710 -0.0490
27299SOL    HW187217   7.173   0.740   3.591  1.1541 -0.5588 -0.8187
27299SOL    HW287218   7.220   0.863   3.515  0.0372  0.4562  0.0924
27300SOL     OW87219   2.819   1.658  10.243 -0.1370 -0.4109  0.0090
27300SOL    HW187220   2.763   1.620  10.311 -1.2015 -0.4941 -0.8904
27300SOL    HW287221   2.827   1.750  10.269 -2.2266  0.0458 -0.7969
27301SOL     OW87222   6.464   7.503   2.218  0.3116 -0.5481  0.1261
27301SOL    HW187223   6.509   7.582   2.189  0.1440 -1.2409 -2.2257
27301SOL    HW287224   6.420   7.470   2.140  1.6616 -3.8197  0.5804
27302SOL     OW87225   4.908   2.138  10.286 -0.0117  0.6547 -0.1060
27302SOL    HW187226   4.847   2.156  10.215 -0.5112  1.2849  0.4654
27302SOL    HW287227   4.954   2.220  10.300  0.5523  0.3487 -0.1348
27303SOL     OW87228   8.901   8.893   2.776 -0.3953 -0.1605 -0.1184
27303SOL    HW187229   8.864   8.949   2.844 -0.1251  1.7456 -1.4448
27303SOL    HW287230   8.993   8.919   2.771 -0.4185 -0.2394 -1.2013
27304SOL     OW87231   8.281   4.039   3.387 -0.2191  0.1230  0.0215
27304SOL    HW187232   8.295   4.101   3.458  1.0589 -1.8729  1.6309
27304SOL    HW287233   8.206   3.987   3.415 -0.7941  0.4084 -0.9396
27305SOL     OW87234   4.785   4.976   9.537  0.4348  0.2653 -0.0977
27305SOL    HW187235   4.740   5.052   9.575 -0.6193 -0.4336  0.1137
27305SOL    HW287236   4.727   4.902   9.557  0.2502 -0.2740 -2.3516
27306SOL     OW87237   8.342   1.259   4.188  0.3742  0.3561  0.1711
27306SOL    HW187238   8.371   1.168   4.199  0.5291  0.6603  3.0067
27306SOL    HW287239   8.421   1.311   4.194 -0.0131  0.8200  1.5697
27307SOL     OW87240   7.740   3.169   7.012 -0.0348 -0.1633 -0.4278
27307SOL    HW187241   7.733   3.173   6.917 -0.5942 -0.4837 -0.4005
27307SOL    HW287242   7.830   3.138   7.028  0.8564  2.0263 -0.7916
27308SOL     OW87243  10.889   5.558   0.420 -0.3166  0.3360  0.1989
27308SOL    HW187244  10.921   5.632   0.367 -0.1374 -0.1683 -0.4100
27308SOL    HW287245  10.804   5.537   0.382 -0.4950  0.4108  0.5581
27309SOL     OW87246  10.359   8.536   6.810  0.0991 -0.5623 -0.0778
27309SOL    HW187247  10.362   8.608   6.746 -0.5827  2.6843  3.1860
27309SOL    HW287248  10.270   8.501   6.803 -0.4164  0.6809 -0.0666
27310SOL     OW87249  10.169   9.587   4.702  0.1996 -0.2540  0.2374
27310SOL    HW187250  10.103   9.620   4.764 -1.7415 -1.3248 -1.1461
27310SOL    HW287251  10.230   9.660   4.692 -1.1600  1.0606  1.0532
27311SOL     OW87252   1.794   4.659   7.407 -0.5399  0.2082 -0.3374
27311SOL    HW187253   1.752   4.730   7.458 -2.2500  0.1275 -1.5439
27311SOL    HW287254   1.781   4.685   7.316 -0.8631 -1.4680 -0.7953
27312SOL     OW87255   4.349   2.993   9.076 -0.1260  0.3025 -0.4435
27312SOL    HW187256   4.432   3.029   9.106  0.2645  0.4109 -1.6110
27312SOL    HW287257   4.368   2.956   8.990 -0.4998 -2.6918  0.6405
27313SOL     OW87258   4.824   9.730   5.697 -0.4279 -0.0398  0.0667
27313SOL    HW187259   4.863   9.697   5.616  0.5402 -2.2118  1.3529
27313SOL    HW287260   4.735   9.696   5.696 -0.1465 -0.8172  0.2866
27314SOL     OW87261   0.940   3.192   7.251  0.3432  0.2298 -0.3596
27314SOL    HW187262   0.891   3.274   7.249 -0.2333 -0.1125 -0.6550
27314SOL    HW287263   1.031   3.218   7.257  0.2101  0.9048 -1.0936
27315SOL     OW87264   3.584   5.888   6.246  0.6926  0.1725 -0.1126
27315SOL    HW187265   3.536   5.963   6.282  0.1478  0.6781 -1.7943
27315SOL    HW287266   3.575   5.820   6.313 -1.0610  0.7631  0.3079
27316SOL     OW87267   2.614   4.110   7.624 -0.4040 -0.0761 -0.5376
27316SOL    HW187268   2.570   4.127   7.707 -0.1772 -1.7045 -0.0344
27316SOL    HW287269   2.580   4.176   7.564 -0.6186  1.0828  0.8260
27317SOL     OW87270   6.989   6.520   8.068  0.8843 -0.6979  0.4728
27317SOL    HW187271   6.943   6.571   8.134 -0.1672 -0.2376 -0.5961
27317SOL    HW287272   7.081   6.546   8.077  0.4253  1.1080  0.1978
27318SOL     OW87273   0.330  10.442   9.193 -0.2506  0.0367 -0.0950
27318SOL    HW187274   0.375  10.442   9.109  1.7786 -1.4679  0.9061
27318SOL    HW287275   0.252  10.496   9.179  0.8068  1.0696 -2.4933
27319SOL     OW87276   3.393   8.539   4.930  0.3133  0.0930 -0.0191
27319SOL    HW187277   3.463   8.603   4.940  0.0908  0.1891  0.9761
27319SOL    HW287278   3.364   8.550   4.839 -0.3149  2.0418  0.3719
27320SOL     OW87279   8.693   1.704   0.363 -0.3343 -0.6071 -0.0571
27320SOL    HW187280   8.687   1.782   0.419 -0.8636 -1.1880  0.7091
27320SOL    HW287281   8.611   1.703   0.315 -1.0762 -1.5803  1.1529
27321SOL     OW87282   2.774   2.748   8.212  0.0268 -0.6125 -0.5244
27321SOL    HW187283   2.742   2.735   8.301 -0.3662 -0.0890 -0.5857
27321SOL    HW287284   2.786   2.842   8.204 -2.4669 -0.3210 -1.8566
27322SOL     OW87285   6.596  10.484   9.342 -0.3667 -0.0472  1.0734
27322SOL    HW187286   6.593  10.407   9.399 -0.4467 -0.0030  1.1298
27322SOL    HW287287   6.588  10.449   9.254  1.3651 -0.2634  0.9703
27323SOL     OW87288   3.010   5.527  10.021  0.0119  0.7375 -0.0157
27323SOL    HW187289   3.025   5.464  10.091 -0.4372 -1.3685 -1.7071
27323SOL    HW287290   2.994   5.610  10.066  0.1714 -0.4279  2.3320
27324SOL     OW87291   8.966   4.841   0.723  0.7289 -0.2223 -0.2799
27324SOL    HW187292   8.936   4.762   0.767 -1.1991 -0.8860 -2.5967
27324SOL    HW287293   9.019   4.809   0.650  1.8408  0.7452  0.0771
27325SOL     OW87294   1.511   3.976   5.540  0.1607  0.7608 -0.1580
27325SOL    HW187295   1.545   4.042   5.600 -1.8517  1.6290  0.1139
27325SOL    HW287296   1.587   3.945   5.492  1.0953  3.7994 -0.8239
27326SOL     OW87297   2.825   7.725   2.739  0.1844  0.1734 -0.3741
27326SOL    HW187298   2.785   7.735   2.826  1.1869  2.1347 -0.0832
27326SOL    HW287299   2.909   7.683   2.756  0.1311  0.0257 -0.4709
27327SOL     OW87300   3.069   3.049  11.212 -0.0544 -0.1664  0.1810
27327SOL    HW187301   2.996   2.999  11.176  0.0781  0.0727 -0.4315
27327SOL    HW287302   3.147   3.006  11.175  0.1083 -0.3347  0.7201
27328SOL     OW87303   4.544   9.466   7.239  0.1901 -0.1968  0.8758
27328SOL    HW187304   4.545   9.491   7.332 -0.1923  1.6505  0.4138
27328SOL    HW287305   4.617   9.516   7.201 -0.3770 -0.0430 -0.0237
27329SOL     OW87306   2.486   6.153   8.889  0.3016 -0.4367 -0.6650
27329SOL    HW187307   2.566   6.145   8.941  0.2480  0.6456 -0.4059
27329SOL    HW287308   2.498   6.090   8.817  2.4697  1.3847 -2.0262
27330SOL     OW87309   0.760  11.630   7.681 -0.1361 -0.4781  0.5720
27330SOL    HW187310   0.762  11.713   7.727 -1.5177 -0.5208  0.7273
27330SOL    HW287311   0.853  11.606   7.672  0.3040  1.2830  0.0989
27331SOL     OW87312  10.720   2.661   4.660 -0.0420  0.0709 -0.3111
27331SOL    HW187313  10.718   2.567   4.681 -0.3289  0.1402 -0.0213
27331SOL    HW287314  10.726   2.704   4.745  1.4078  0.2843 -0.5072
27332SOL     OW87315   9.154   3.033   0.317 -0.0602  0.1340 -0.1248
27332SOL    HW187316   9.113   3.071   0.395  1.0617  0.9521  0.0976
27332SOL    HW287317   9.082   3.021   0.255 -1.0655 -1.0255  1.1970
27333SOL     OW87318   4.953   8.658   7.248  0.3193 -0.0372 -0.2301
27333SOL    HW187319   4.958   8.751   7.270  1.2783 -0.3625  1.0446
27333SOL    HW287320   4.981   8.612   7.327  0.1455 -1.4157 -0.9216
27334SOL     OW87321   8.101   5.401   0.629 -0.4078 -0.2053  0.1649
27334SOL    HW187322   8.032   5.355   0.581  1.0109 -1.7723 -0.4533
27334SOL    HW287323   8.089   5.373   0.720  0.5080 -2.0046 -0.2172
27335SOL     OW87324   6.977   7.768  10.397  0.4367  0.3578 -0.7076
27335SOL    HW187325   7.015   7.684  10.370  0.8877 -0.1409  1.2900
27335SOL    HW287326   6.891   7.745  10.432  1.1439  0.4613  1.2265
27336SOL     OW87327   2.192   1.270   2.609  0.0152  0.3786 -0.8653
27336SOL    HW187328   2.138   1.299   2.682 -0.2752 -1.8169 -0.1262
27336SOL    HW287329   2.278   1.252   2.648  0.0512 -0.1556 -1.1761
27337SOL     OW87330   0.271   9.209   0.917 -0.2266 -0.1558 -0.2661
27337SOL    HW187331   0.188   9.189   0.960 -0.0382 -2.5481 -0.8572
27337SOL    HW287332   0.322   9.255   0.984 -1.1147 -0.8793  0.9646
27338SOL     OW87333   3.968   1.856   1.192  0.5087  0.0233 -0.2270
27338SOL    HW187334   3.958   1.792   1.121  0.4507 -0.8207  0.5200
27338SOL    HW287335   3.991   1.937   1.147 -0.9523 -0.1188 -1.3223
27339SOL     OW87336   9.068   1.970  10.011  0.5783 -0.0052  0.4936
27339SOL    HW187337   9.078   2.051  10.062  0.8437  1.8462 -2.2738
27339SOL    HW287338   9.144   1.969   9.952 -0.2747 -1.4170 -0.6461
27340SOL     OW87339  10.405   3.191   9.229  0.1832 -0.0106  0.4284
27340SOL    HW187340  10.440   3.176   9.141  0.2165 -0.0110  0.4414
27340SOL    HW287341  10.367   3.279   9.225 -1.1884 -0.5961 -0.0331
27341SOL     OW87342   3.509   2.722   4.600  0.0238  0.5826  0.0927
27341SOL    HW187343   3.467   2.637   4.584  0.4476  0.2217  0.8603
27341SOL    HW287344   3.580   2.725   4.536  0.6147 -0.0796  0.7007
27342SOL     OW87345   8.874   6.402   2.521  0.0854 -0.4886 -0.1293
27342SOL    HW187346   8.803   6.373   2.462 -1.0501 -0.7790  1.3230
27342SOL    HW287347   8.885   6.329   2.582  1.3589 -0.2531 -0.0527
27343SOL     OW87348   7.789  10.495   1.228 -0.3378  0.0354 -1.1025
27343SOL    HW187349   7.717  10.438   1.256  0.3434  0.1432  1.0264
27343SOL    HW287350   7.865  10.438   1.225  0.1716  0.6118  0.1714
27344SOL     OW87351   4.934   9.229   2.094 -0.0292  0.2575 -0.4510
27344SOL    HW187352   5.021   9.209   2.059 -0.0747  0.7242 -0.8453
27344SOL    HW287353   4.890   9.144   2.099  0.6831 -0.0715  0.4049
27345SOL     OW87354  11.312   7.085   1.216  0.0514 -0.4983  0.1388
27345SOL    HW187355  11.370   7.090   1.140 -1.3639  0.1754 -0.9379
27345SOL    HW287356  11.344   7.153   1.274 -0.5425  0.8877 -1.1063
27346SOL     OW87357   3.375  10.855   7.570  0.5060  0.0029  0.0232
27346SOL    HW187358   3.364  10.860   7.665 -1.5951  1.7575 -0.2329
27346SOL    HW287359   3.380  10.946   7.542  1.5189 -0.5065 -1.5285
27347SOL     OW87360   6.547  11.604   2.902  0.0619 -0.1015 -0.4352
27347SOL    HW187361   6.474  11.665   2.895  1.3878  1.4291 -1.7936
27347SOL    HW287362   6.583  11.599   2.813  1.8936 -0.4214  0.2771
27348SOL     OW87363  11.191   1.021   8.678 -0.0747 -0.1111 -0.0745
27348SOL    HW187364  11.267   0.987   8.630  0.0310 -1.3971  0.9454
27348SOL    HW287365  11.116   0.989   8.629  0.0325  0.8238 -0.8609
27349SOL     OW87366   3.804  10.381   8.058  0.5550  0.3361 -0.1518
27349SOL    HW187367   3.711  10.380   8.081  0.8379  2.6891  1.4057
27349SOL    HW287368   3.811  10.451   7.993  1.1459 -0.3878 -0.8885
27350SOL     OW87369   5.994   6.483   2.673 -0.2035 -0.3647  0.3289
27350SOL    HW187370   5.979   6.547   2.742 -2.8285 -0.1188 -0.3632
27350SOL    HW287371   6.057   6.525   2.614 -0.4107  0.7524  0.8811
27351SOL     OW87372  10.131   1.311   2.299 -0.3932 -0.7120 -0.6875
27351SOL    HW187373  10.159   1.388   2.348 -0.7202 -0.1380 -1.3808
27351SOL    HW287374  10.178   1.238   2.339  1.1364  0.0471 -1.0110
27352SOL     OW87375   4.531   9.123   4.920  0.4786  0.3888 -0.1198
27352SOL    HW187376   4.507   9.036   4.887 -2.9366  0.8947  0.7098
27352SOL    HW287377   4.565   9.106   5.008  0.8665 -0.1605 -0.3673
27353SOL     OW87378   5.013   2.735   5.671 -0.7725 -0.2807  0.4305
27353SOL    HW187379   5.013   2.652   5.623  1.2298 -1.0774  1.6536
27353SOL    HW287380   5.080   2.723   5.738  0.7497  2.8996 -0.3384
27354SOL     OW87381   6.629   8.796   2.311  0.2097  0.0038  0.3291
27354SOL    HW187382   6.662   8.790   2.401 -1.8500 -1.4425  1.0502
27354SOL    HW287383   6.657   8.715   2.270  3.2517  1.6636 -1.2056
27355SOL     OW87384   6.242   4.644  11.619 -0.0598 -0.2160  0.1754
27355SOL    HW187385   6.165   4.664  11.565 -0.0324 -1.8448 -0.5395
27355SOL    HW287386   6.297   4.590  11.562  1.3823  0.4697  0.8571
27356SOL     OW87387   5.672   3.054   8.986 -0.0422  0.4710 -0.2826
27356SOL    HW187388   5.692   2.967   9.021  1.4265  0.7049 -0.4900
27356SOL    HW287389   5.597   3.040   8.929  0.4377 -0.7422 -0.6416
27357SOL     OW87390   6.873   3.246   2.583 -0.5787  0.1008  0.4956
27357SOL    HW187391   6.920   3.284   2.657  0.1129  0.1937  0.0236
27357SOL    HW287392   6.941   3.199   2.534 -0.9808  0.2252 -0.1940
27358SOL     OW87393   2.631   7.090   7.537 -0.3693 -0.2406  0.3702
27358SOL    HW187394   2.680   7.083   7.455  1.3821  0.8504  1.2604
27358SOL    HW287395   2.541   7.065   7.514  0.1044 -0.1009 -1.8337
27359SOL     OW87396   4.548  11.436   1.119 -0.1548  0.2938  0.1631
27359SOL    HW187397   4.643  11.434   1.115 -0.1672  0.8806 -0.6136
27359SOL    HW287398   4.521  11.346   1.103  0.2113  0.4853 -1.7324
27360SOL     OW87399   7.665   1.205  11.381  0.0009 -0.2084  0.3362
27360SOL    HW187400   7.704   1.198  11.468 -1.0965 -0.6806  0.7977
27360SOL    HW287401   7.571   1.213  11.396 -0.1527  0.3851 -0.7861
27361SOL     OW87402   5.195   1.775   0.406 -0.0471  0.0422  0.8469
27361SOL    HW187403   5.219   1.697   0.456  1.1162  1.2799  2.3313
27361SOL    HW287404   5.206   1.847   0.468 -0.4286  1.4660 -0.6703
27362SOL     OW87405  10.227   5.424   1.470  0.0064 -0.0703  0.7970
27362SOL    HW187406  10.139   5.387   1.463 -0.5010  1.2388 -0.0056
27362SOL    HW287407  10.215   5.518   1.455  1.5855  0.0768  0.2954
27363SOL     OW87408   8.487   9.215   8.398 -0.0448  0.1645  0.5766
27363SOL    HW187409   8.392   9.227   8.395  0.1097  1.8228  1.1810
27363SOL    HW287410   8.499   9.132   8.444 -1.2016  0.7049  1.9358
27364SOL     OW87411   9.402   8.033   8.228  0.1655 -0.0184  0.3568
27364SOL    HW187412   9.360   8.041   8.314 -1.0901 -0.2812 -0.2117
27364SOL    HW287413   9.462   7.959   8.238  0.0771 -0.0066  1.0312
27365SOL     OW87414   8.528  10.753   6.670  0.0666  0.5981  0.0830
27365SOL    HW187415   8.433  10.742   6.678 -0.0946  2.5914  1.8237
27365SOL    HW287416   8.539  10.816   6.598  0.0071  0.9610  0.3884
27366SOL     OW87417  11.814  11.643   4.556  0.4749  0.1169 -0.5873
27366SOL    HW187418  11.835  11.611   4.468 -0.4276 -0.5859 -0.5695
27366SOL    HW287419  11.747  11.582   4.588 -0.7645  1.5924 -0.2388
27367SOL     OW87420   8.043   8.709  10.772 -0.3377 -0.2741 -0.0965
27367SOL    HW187421   8.056   8.628  10.723  2.8650  0.2911 -0.3543
27367SOL    HW287422   8.051   8.778  10.706  1.4468  0.3981  0.7845
27368SOL     OW87423   8.169  10.686   0.666 -0.7458  0.1465  0.1277
27368SOL    HW187424   8.163  10.702   0.572  1.3062  0.0564 -0.0772
27368SOL    HW287425   8.103  10.620   0.684 -1.7267  0.7614 -1.0893
27369SOL     OW87426   0.568   4.823   7.099 -0.5019  0.1417  0.6660
27369SOL    HW187427   0.543   4.817   7.007  0.2021 -2.1880  0.5879
27369SOL    HW287428   0.504   4.885   7.137 -0.6733  1.2982 -1.3772
27370SOL     OW87429   0.579   6.363   1.513  0.1687 -0.3228 -0.0834
27370SOL    HW187430   0.576   6.442   1.566 -2.0699  0.0033 -0.6104
27370SOL    HW287431   0.583   6.292   1.576  3.1714  0.1456  0.3946
27371SOL     OW87432   6.803  11.327   3.502  0.5368  0.1660  0.2170
27371SOL    HW187433   6.755  11.271   3.563  2.0767  0.9259  2.2150
27371SOL    HW287434   6.866  11.269   3.460 -0.1739 -0.2485 -0.3114
27372SOL     OW87435   1.837   2.414   7.939 -0.0171 -0.0831 -0.2814
27372SOL    HW187436   1.882   2.370   8.011 -1.8518  0.0517  1.0236
27372SOL    HW287437   1.837   2.507   7.962  0.1406  0.0789 -0.9018
27373SOL     OW87438   1.578   5.336   5.097 -0.2554  0.4826  0.1215
27373SOL    HW187439   1.574   5.320   5.192  0.5377 -0.4133  0.0108
27373SOL    HW287440   1.657   5.387   5.085 -0.3847  0.6398 -0.0558
27374SOL     OW87441   5.621   2.737   4.082 -1.0791  0.2829 -0.0790
27374SOL    HW187442   5.540   2.702   4.119 -2.0675  1.2309 -1.2697
27374SOL    HW287443   5.630   2.692   3.998 -0.9745  0.9902 -0.4533
27375SOL     OW87444   5.568  10.764   2.644  0.1880 -0.6548  0.1906
27375SOL    HW187445   5.534  10.851   2.622  1.5390 -0.1826 -0.1632
27375SOL    HW287446   5.646  10.755   2.589 -0.2038 -2.3089 -0.1445
27376SOL     OW87447   3.707   2.136   0.606  0.7204 -0.0381  0.0536
27376SOL    HW187448   3.663   2.219   0.589  0.1410 -0.3788 -0.1392
27376SOL    HW287449   3.701   2.088   0.523  2.4091  0.3220 -0.3220
27377SOL     OW87450   9.274   9.863   5.440  0.3706 -0.4115  0.6654
27377SOL    HW187451   9.264   9.777   5.479 -0.3501 -0.8150 -0.3801
27377SOL    HW287452   9.344   9.904   5.490 -0.5262 -0.8872  2.4005
27378SOL     OW87453   4.790   1.679   9.311  0.3016 -0.7820  0.1955
27378SOL    HW187454   4.854   1.611   9.287  1.4544  0.9648 -2.0351
27378SOL    HW287455   4.735   1.688   9.234 -1.6612 -1.0705  1.4948
27379SOL     OW87456  11.443   5.251   9.508 -0.0099  0.1568 -0.0354
27379SOL    HW187457  11.351   5.231   9.523  0.1800 -0.4074  0.4028
27379SOL    HW287458  11.486   5.230   9.591  0.8343 -1.6736 -0.8807
27380SOL     OW87459  10.991   6.643   0.569  0.1203  0.1942 -0.8547
27380SOL    HW187460  11.067   6.635   0.512  0.2842 -1.2834 -0.4830
27380SOL    HW287461  10.978   6.555   0.604  2.5345  1.6338  4.6796
27381SOL     OW87462   3.391   1.221   7.910 -0.1141  0.0131  0.1155
27381SOL    HW187463   3.472   1.210   7.959 -0.8176 -0.0966  1.3016
27381SOL    HW287464   3.408   1.182   7.825  0.6953 -1.0907  0.7578
27382SOL     OW87465   1.068   6.148   5.781  0.4980 -0.1663  0.0931
27382SOL    HW187466   0.997   6.124   5.841  0.2456  0.6647  0.1483
27382SOL    HW287467   1.077   6.243   5.792 -0.1164  0.1502 -1.7555
27383SOL     OW87468   7.365   5.529   3.491  0.0822 -0.1031  0.3859
27383SOL    HW187469   7.368   5.593   3.419 -0.2126 -1.2764 -0.7078
27383SOL    HW287470   7.456   5.501   3.502  0.1585  0.2296  0.6211
27384SOL     OW87471   6.038   6.950   7.778 -0.1192 -0.5466 -0.6391
27384SOL    HW187472   6.051   6.855   7.777  1.2045 -0.4193  0.7325
27384SOL    HW287473   5.943   6.961   7.773 -0.1993 -1.8149 -3.4878
27385SOL     OW87474  10.948   6.694   9.165 -0.2234  0.6564  0.0778
27385SOL    HW187475  10.933   6.624   9.228  1.5967  0.0350 -0.1214
27385SOL    HW287476  10.972   6.649   9.084 -0.2605  1.4926 -0.4136
27386SOL     OW87477  10.890   1.056   2.964 -0.5345 -0.2217  0.0383
27386SOL    HW187478  10.919   1.146   2.950 -2.6392  1.3238  4.1008
27386SOL    HW287479  10.801   1.053   2.931 -0.4349 -0.8831 -0.2005
27387SOL     OW87480   9.847   3.966   4.037  0.7125  0.1567  0.5161
27387SOL    HW187481   9.818   4.003   4.121 -3.2724 -0.9145 -0.1644
27387SOL    HW287482   9.815   3.876   4.038 -0.7502  0.5037 -2.6027
27388SOL     OW87483   7.212   4.070   2.806 -0.0168  0.5309 -0.1488
27388SOL    HW187484   7.244   4.044   2.720 -3.2269 -0.5071 -1.1810
27388SOL    HW287485   7.144   4.135   2.788 -1.2838 -0.2578  1.5307
27389SOL     OW87486   6.177   5.820   9.551 -0.1596  0.3491 -0.1939
27389SOL    HW187487   6.187   5.735   9.593 -0.6972  0.3962  0.0499
27389SOL    HW287488   6.213   5.883   9.614  3.0090  0.1026 -1.5863
27390SOL     OW87489   0.440   6.345  11.281  0.1529 -0.1057  0.5945
27390SOL    HW187490   0.390   6.398  11.219 -0.4272  0.6379  1.6640
27390SOL    HW287491   0.471   6.270  11.230 -0.0635  0.6334 -0.6469
27391SOL     OW87492   9.964  11.278  10.317 -0.0381  0.5927 -0.3776
27391SOL    HW187493   9.923  11.192  10.317 -1.1750  1.0989  0.8851
27391SOL    HW287494  10.057  11.260  10.302  0.0452 -1.0360  1.6121
27392SOL     OW87495   4.555   0.899   4.421  0.0001 -0.2525  0.4371
27392SOL    HW187496   4.546   0.838   4.495 -2.7455  0.8479  1.1435
27392SOL    HW287497   4.465   0.911   4.389  1.0935 -1.0217 -3.4568
27393SOL     OW87498   1.871   9.845   0.852  0.3806  0.3470 -0.2834
27393SOL    HW187499   1.904   9.868   0.765  0.6457  0.5828 -0.1239
27393SOL    HW287500   1.950   9.837   0.905  0.2763 -0.6747 -0.2704
27394SOL     OW87501   4.167   0.804   9.753 -0.2149  0.1618  0.1266
27394SOL    HW187502   4.257   0.837   9.748 -0.8720  2.1152  0.2626
27394SOL    HW287503   4.156   0.752   9.673  0.3945  1.6996 -1.0195
27395SOL     OW87504   4.594  11.172   5.494 -0.1400 -0.0456 -0.7329
27395SOL    HW187505   4.546  11.200   5.415 -1.8469  2.4301  1.0085
27395SOL    HW287506   4.684  11.198   5.477 -0.3596 -0.0924 -2.1088
27396SOL     OW87507   7.903   3.570   6.720 -0.3296  0.1055  0.0933
27396SOL    HW187508   7.832   3.557   6.656 -0.2764 -1.8082  0.3535
27396SOL    HW287509   7.953   3.488   6.717  1.0719  0.8812  0.9193
27397SOL     OW87510   5.555   2.340  10.647 -0.3242  0.3263  0.1164
27397SOL    HW187511   5.462   2.364  10.655 -0.1131  1.0566  0.4238
27397SOL    HW287512   5.602   2.423  10.655  0.3497 -0.0196 -0.2350
27398SOL     OW87513   9.126   2.849   3.211 -0.1691 -0.1376 -0.5631
27398SOL    HW187514   9.079   2.854   3.293  1.0601  0.0730  0.1597
27398SOL    HW287515   9.058   2.840   3.144 -1.1532 -1.0241  0.5196
27399SOL     OW87516   3.073  11.539   2.662 -0.0424 -0.1102 -1.2669
27399SOL    HW187517   3.055  11.481   2.588  2.5002  0.1716 -2.2303
27399SOL    HW287518   3.167  11.559   2.654  0.0543  0.8812  1.3755
27400SOL     OW87519   4.032  10.124  11.738  0.2085  0.0693  0.6232
27400SOL    HW187520   3.945  10.147  11.705 -0.8797 -2.6132  1.3846
27400SOL    HW287521   4.090  10.140  11.664 -1.5893 -2.1842 -1.4355
27401SOL     OW87522   6.696   0.324   6.149 -0.0665  0.5646 -0.0945
27401SOL    HW187523   6.728   0.383   6.217  0.2903  1.6748 -1.1935
27401SOL    HW287524   6.654   0.252   6.198  0.3083  1.2397  1.2855
27402SOL     OW87525   0.028   7.769   4.173  0.1618  0.2575 -0.0549
27402SOL    HW187526   0.001   7.744   4.084 -1.0329  2.5526 -0.3950
27402SOL    HW287527  -0.054   7.772   4.223  0.6357  0.5228  0.7160
27403SOL     OW87528   6.938   8.502   6.917  0.0578 -0.6619  0.5715
27403SOL    HW187529   6.896   8.568   6.971  0.5803  0.4143 -0.3069
27403SOL    HW287530   6.890   8.421   6.936  0.1948 -0.3233  2.5912
27404SOL     OW87531   6.987   7.203   0.662  0.0216 -0.3529  0.7811
27404SOL    HW187532   7.054   7.142   0.632 -0.5443 -0.3535 -0.5648
27404SOL    HW287533   6.986   7.272   0.595  0.1611  0.7710  1.9057
27405SOL     OW87534   0.702   1.272   4.165  0.1168 -0.1387  0.5209
27405SOL    HW187535   0.693   1.304   4.255  0.1266  1.4319  0.0074
27405SOL    HW287536   0.779   1.317   4.132  0.1834 -0.8004 -0.2372
27406SOL     OW87537   4.843   4.112  11.057 -0.9919 -0.4138 -0.0623
27406SOL    HW187538   4.830   4.084  10.966  0.5227  1.4019 -0.9015
27406SOL    HW287539   4.762   4.157  11.080 -2.4690 -3.1198  0.4814
27407SOL     OW87540   7.939   2.426   3.614  0.5208 -0.3183 -0.2087
27407SOL    HW187541   7.936   2.406   3.521  0.5019  0.8440 -0.4729
27407SOL    HW287542   8.028   2.459   3.629  0.0788  0.9179 -0.1510
27408SOL     OW87543   5.711  11.045  10.536 -0.4519 -0.2831  0.4101
27408SOL    HW187544   5.733  10.971  10.592 -1.0275 -1.2450 -0.5895
27408SOL    HW287545   5.739  11.018  10.449 -1.4589  0.3029 -0.1221
27409SOL     OW87546   4.593   2.061   9.605  0.5082 -0.4751  0.2613
27409SOL    HW187547   4.656   2.133   9.606  0.3323 -0.3260  1.2465
27409SOL    HW287548   4.555   2.064   9.517  0.9089  0.2831  0.1089
27410SOL     OW87549   4.292   2.469  11.271 -0.8886  0.4552 -0.2467
27410SOL    HW187550   4.296   2.385  11.225 -0.4635  0.7334 -0.7257
27410SOL    HW287551   4.346   2.454  11.350 -1.5447  0.0097  0.1337
27411SOL     OW87552   7.715   7.221   0.691  0.5399 -0.4509 -0.0129
27411SOL    HW187553   7.767   7.190   0.617  2.6637  0.2572  1.1097
27411SOL    HW287554   7.682   7.307   0.664  1.2683 -0.2157 -0.1643
27412SOL     OW87555   6.411   2.050   2.067 -0.0889  0.3051  0.3377
27412SOL    HW187556   6.392   1.961   2.096 -0.9358  0.6727  0.9583
27412SOL    HW287557   6.408   2.102   2.147 -0.2666  0.9917 -0.1051
27413SOL     OW87558   0.097   6.622  11.677  0.0234  0.2034  0.0439
27413SOL    HW187559   0.187   6.606  11.707 -0.4110 -0.8395  0.8494
27413SOL    HW287560   0.105   6.630  11.582  0.7661 -1.5055 -0.0732
27414SOL     OW87561   4.875   1.192   4.993 -0.3796 -0.4970  0.3037
27414SOL    HW187562   4.910   1.270   4.952  1.9369 -1.8068 -0.4125
27414SOL    HW287563   4.892   1.203   5.086 -2.0793  0.7537  0.5119
27415SOL     OW87564   9.693   8.505   2.457 -0.2390 -0.4245 -0.4672
27415SOL    HW187565   9.612   8.505   2.406  0.2172  0.9027 -1.2567
27415SOL    HW287566   9.670   8.547   2.539 -0.8007 -1.8891  0.1579
27416SOL     OW87567   5.888   6.356   7.376  0.2945  0.0307  0.0400
27416SOL    HW187568   5.823   6.372   7.444  1.1786  0.5201  0.8001
27416SOL    HW287569   5.880   6.263   7.356 -0.4067  0.0187  0.3520
27417SOL     OW87570   8.427   7.303   8.428  0.3008 -0.2210 -0.0240
27417SOL    HW187571   8.401   7.388   8.394 -0.6171 -0.7317 -0.6449
27417SOL    HW287572   8.447   7.319   8.521 -0.5662  0.5273  0.0425
27418SOL     OW87573  10.304   5.931   9.329 -0.0361  0.2421  0.2387
27418SOL    HW187574  10.239   5.940   9.259  0.3474 -0.9983 -0.3095
27418SOL    HW287575  10.283   5.846   9.369  0.9761  0.0214  0.3236
27419SOL     OW87576   8.912   2.790   1.313  0.6389  0.2873 -0.1246
27419SOL    HW187577   8.952   2.860   1.260  2.0155 -0.5271 -0.2246
27419SOL    HW287578   8.984   2.758   1.368  0.3705 -1.7617 -0.8590
27420SOL     OW87579   8.818   7.629   0.393  0.5081  0.3024  0.2084
27420SOL    HW187580   8.789   7.553   0.342 -0.5717  0.6586  0.2583
27420SOL    HW287581   8.889   7.666   0.341  0.1267  0.0458 -0.5155
27421SOL     OW87582  10.506   7.460  10.438  0.0809 -0.1439  0.2090
27421SOL    HW187583  10.577   7.404  10.405  0.9459  1.7302 -1.3902
27421SOL    HW287584  10.552   7.531  10.484 -1.0308 -1.4181  3.5676
27422SOL     OW87585   8.044  10.451   0.139  0.1422  0.3950  0.7478
27422SOL    HW187586   8.090  10.535   0.132  0.4666  0.2329  0.9270
27422SOL    HW287587   7.954  10.471   0.113  0.0447  0.9524  1.4756
27423SOL     OW87588   9.561   4.570   6.344  0.1985 -0.1079  0.2168
27423SOL    HW187589   9.584   4.653   6.303 -2.3993  0.2970 -0.6358
27423SOL    HW287590   9.641   4.518   6.342  1.0690  1.1955 -2.1879
27424SOL     OW87591  11.001   9.600  10.059 -0.0145  0.6381 -0.0446
27424SOL    HW187592  11.018   9.566  10.147  0.4841 -0.0929 -0.4237
27424SOL    HW287593  10.912   9.637  10.065 -0.2895 -0.0992  0.5578
27425SOL     OW87594   3.198   6.277   1.610  0.5818  0.1180 -0.5379
27425SOL    HW187595   3.236   6.311   1.691 -0.0167  1.2833 -0.7123
27425SOL    HW287596   3.259   6.210   1.580  1.5223  0.6416  0.1491
27426SOL     OW87597   3.706   5.069   5.636 -0.2661 -0.0557 -0.2045
27426SOL    HW187598   3.677   5.077   5.727 -0.5683 -1.7016 -0.1182
27426SOL    HW287599   3.689   5.154   5.597 -2.2431  0.0008  0.6929
27427SOL     OW87600   2.997   8.379   7.579 -0.4442 -0.6650  0.5652
27427SOL    HW187601   2.992   8.294   7.536  0.5197 -0.8748  0.8579
27427SOL    HW287602   3.071   8.423   7.538 -1.3636  0.3378 -0.0904
27428SOL     OW87603   4.395   9.185   0.251  0.2774  0.4006 -0.1726
27428SOL    HW187604   4.428   9.189   0.341 -1.2303 -1.9552  0.5887
27428SOL    HW287605   4.310   9.229   0.255 -0.7626 -1.5150  0.1453
27429SOL     OW87606   2.189   6.939   3.253  0.5502 -0.1711 -0.0816
27429SOL    HW187607   2.095   6.956   3.260  0.6038  0.5010 -0.8157
27429SOL    HW287608   2.195   6.852   3.213  0.2304  0.1236 -0.7896
27430SOL     OW87609   7.860   0.640   9.401  0.3044 -0.2080 -0.0666
27430SOL    HW187610   7.803   0.591   9.461  2.9001 -0.5480  2.3126
27430SOL    HW287611   7.893   0.573   9.340  0.0524 -0.4670  0.0771
27431SOL     OW87612   6.083   2.374   8.765 -0.6066 -0.3338  0.0373
27431SOL    HW187613   6.078   2.278   8.767 -0.4239 -0.3322  1.1693
27431SOL    HW287614   5.997   2.401   8.734 -0.1486 -0.8910 -1.8438
27432SOL     OW87615   8.582   9.423   2.445  0.6340  0.0887 -0.0274
27432SOL    HW187616   8.534   9.484   2.501  1.0897 -1.4316  2.1209
27432SOL    HW287617   8.563   9.336   2.480  2.6188 -0.7780 -0.8987
27433SOL     OW87618   8.911   9.332   0.996 -0.2071  0.3755  0.8236
27433SOL    HW187619   8.848   9.346   0.925  0.8243  0.9101 -0.0082
27433SOL    HW287620   8.944   9.243   0.982  1.5327  1.1855 -0.6761
27434SOL     OW87621   3.380   4.340   9.500  0.1209 -0.5066 -0.0931
27434SOL    HW187622   3.430   4.422   9.498  1.3971 -1.2148  0.8986
27434SOL    HW287623   3.297   4.364   9.540  0.0955  0.4822 -0.7042
27435SOL     OW87624   4.447   1.975  11.542  0.2221  0.2792  0.0481
27435SOL    HW187625   4.383   2.026  11.494 -0.5631 -2.0345 -1.5719
27435SOL    HW287626   4.402   1.949  11.622 -0.6133 -0.6284 -0.6903
27436SOL     OW87627   2.879   6.040  10.005  0.5747 -0.5617 -0.1230
27436SOL    HW187628   2.921   6.119  10.040 -0.4890 -0.6436  1.4729
27436SOL    HW287629   2.817   6.074   9.940  1.5476 -0.2754 -0.9280
27437SOL     OW87630  11.090   7.148   4.481 -0.0222  0.4507 -0.0749
27437SOL    HW187631  11.151   7.189   4.542  0.0281  0.9948 -0.4860
27437SOL    HW287632  11.012   7.129   4.533  0.8988 -1.3293  0.7493
27438SOL     OW87633   9.850   4.871   8.461 -0.3455 -0.4170  0.2036
27438SOL    HW187634   9.944   4.888   8.445  0.0743 -1.1117  1.8168
27438SOL    HW287635   9.847   4.782   8.495 -1.5169 -0.1381  0.8754
27439SOL     OW87636   5.860   4.613   8.349  0.0597 -0.0235  0.0192
27439SOL    HW187637   5.927   4.617   8.281  1.6993 -0.3745  1.5459
27439SOL    HW287638   5.879   4.533   8.398 -0.2836  0.8404  1.6517
27440SOL     OW87639   5.109   8.816   9.323  0.1325 -0.0342  0.3530
27440SOL    HW187640   5.150   8.881   9.265 -1.5824  1.4221  0.6792
27440SOL    HW287641   5.080   8.746   9.264 -1.6492  1.4514 -0.6582
27441SOL     OW87642   2.293   7.119  11.815  0.4770  1.1189  0.2564
27441SOL    HW187643   2.229   7.132  11.745  0.5687 -1.3639 -0.3515
27441SOL    HW287644   2.242   7.087  11.889  0.6952  1.5584  0.6033
27442SOL     OW87645   1.492   5.334   7.894  0.0246  0.1865  0.1680
27442SOL    HW187646   1.566   5.394   7.882 -0.0577 -0.0611 -1.9356
27442SOL    HW287647   1.426   5.365   7.832 -0.8847 -0.7626  0.6310
27443SOL     OW87648   7.228   4.934   4.887  0.7305  0.1321 -0.6578
27443SOL    HW187649   7.242   5.022   4.922 -0.6674 -0.5071  1.7182
27443SOL    HW287650   7.302   4.883   4.920  0.1656 -0.1558  0.1687
27444SOL     OW87651   2.454   4.847  11.434  0.3706 -0.0650  0.3622
27444SOL    HW187652   2.405   4.916  11.477 -0.4270 -0.8550  0.7518
27444SOL    HW287653   2.533   4.836  11.488  0.2154  0.1411  0.6287
27445SOL     OW87654   2.311   6.067   2.070 -0.4624 -0.3102  0.1450
27445SOL    HW187655   2.240   6.004   2.079 -0.0134 -1.3193 -2.3841
27445SOL    HW287656   2.390   6.015   2.074  0.1835  0.7390  2.4154
27446SOL     OW87657   3.249   9.578   7.012 -0.4788 -0.4164  0.1906
27446SOL    HW187658   3.266   9.596   6.920 -0.8051 -0.6852  0.0756
27446SOL    HW287659   3.239   9.664   7.052  0.7305 -0.2613  0.1877
27447SOL     OW87660   0.615   0.718   1.027 -0.8937 -0.1682 -0.0040
27447SOL    HW187661   0.591   0.811   1.026 -0.6370 -0.0983 -0.8367
27447SOL    HW287662   0.596   0.688   0.938 -0.8350 -0.8820  0.2176
27448SOL     OW87663   8.076   5.541   4.172 -0.0235 -0.5005 -0.0332
27448SOL    HW187664   8.147   5.538   4.107 -0.1482  0.3966 -0.2222
27448SOL    HW287665   7.996   5.525   4.122 -0.0301 -0.8207  0.0726
27449SOL     OW87666   8.959   5.013   6.816  0.0530  0.0670 -0.0626
27449SOL    HW187667   9.050   4.993   6.837 -0.2615  0.2950  1.6890
27449SOL    HW287668   8.913   5.006   6.900 -2.3271 -3.8663 -1.4063
27450SOL     OW87669   5.226   4.928   0.571  0.0056 -0.3093  0.1346
27450SOL    HW187670   5.238   4.892   0.659  0.3160  2.0660  1.1350
27450SOL    HW287671   5.141   4.971   0.575  0.2797  0.2985 -0.5587
27451SOL     OW87672   1.242   2.975   6.174  0.0899  0.6854 -0.0465
27451SOL    HW187673   1.258   2.890   6.134  1.6956 -0.7971  3.3393
27451SOL    HW287674   1.158   2.965   6.220 -0.1636  1.2459 -0.3797
27452SOL     OW87675   5.933   2.020   9.264  0.3765  0.3125  0.5112
27452SOL    HW187676   5.908   1.947   9.206 -1.2759  1.4141 -0.2453
27452SOL    HW287677   5.866   2.020   9.332 -0.7441  2.1961 -0.5093
27453SOL     OW87678   2.614   2.561  11.482 -0.2208 -0.5404 -0.6537
27453SOL    HW187679   2.645   2.647  11.456  2.3653 -1.5805 -1.3110
27453SOL    HW287680   2.615   2.563  11.578 -2.9221  0.9809 -0.5483
27454SOL     OW87681   0.290   5.644   3.048 -0.2696 -0.2760 -0.3146
27454SOL    HW187682   0.317   5.612   3.134 -1.5030  0.4456  0.3769
27454SOL    HW287683   0.200   5.675   3.062  0.1755  1.6220 -1.4021
27455SOL     OW87684   5.496   3.627   6.308  0.6929 -0.4361 -0.0643
27455SOL    HW187685   5.574   3.677   6.284  1.2701  0.1349  2.6278
27455SOL    HW287686   5.522   3.577   6.385 -0.9577 -2.0896 -0.5068
27456SOL     OW87687  10.525   5.871  10.674  0.0900  0.6310  0.0615
27456SOL    HW187688  10.577   5.945  10.643 -1.7125  1.8518 -0.2317
27456SOL    HW287689  10.495   5.827  10.595 -2.1908  2.0838  0.0098
27457SOL     OW87690  10.079   5.965   9.178 -0.1151  0.3336  0.4880
27457SOL    HW187691   9.990   5.996   9.198 -0.8453 -1.4793  0.2210
27457SOL    HW287692  10.093   5.988   9.086  0.4116  2.1827  0.9910
27458SOL     OW87693   9.652  11.467   9.119  0.1803 -0.5836 -0.0004
27458SOL    HW187694   9.668  11.471   9.214 -0.9749  1.0838  0.1558
27458SOL    HW287695   9.720  11.409   9.086  2.1252  0.7127  1.5261
27459SOL     OW87696   8.752   2.445  10.186  0.1946  0.2059 -0.0649
27459SOL    HW187697   8.757   2.481  10.098 -0.1164  0.1022 -0.1264
27459SOL    HW287698   8.675   2.389  10.185 -0.7299  1.4081  0.7058
27460SOL     OW87699   3.171   0.818   5.719 -0.4404  0.9112  0.2953
27460SOL    HW187700   3.095   0.857   5.761 -0.3105  0.0139  1.4343
27460SOL    HW287701   3.161   0.724   5.734  1.5901  0.8539  1.7456
27461SOL     OW87702   7.913   6.974   5.016  0.1871  0.3984 -0.4707
27461SOL    HW187703   7.972   6.927   5.074  0.1026 -0.5677 -1.1551
27461SOL    HW287704   7.908   7.062   5.054  0.5032 -0.0694  0.7096
27462SOL     OW87705   7.527   4.025  10.724 -0.0014  0.0451  0.3101
27462SOL    HW187706   7.573   4.090  10.778 -1.2943  1.6569 -0.4313
27462SOL    HW287707   7.552   4.046  10.634 -0.2241 -0.6780  0.0697
27463SOL     OW87708   2.054   0.625   6.780 -0.0143 -0.7095 -0.4162
27463SOL    HW187709   1.969   0.652   6.815 -0.4699  0.0181 -2.0157
27463SOL    HW287710   2.086   0.701   6.731  1.4532 -1.0591 -0.0640
27464SOL     OW87711   5.952   6.207  11.710  0.8020  0.3419 -0.1439
27464SOL    HW187712   5.978   6.161  11.630  0.7214 -1.2380  0.6820
27464SOL    HW287713   5.861   6.180  11.725  1.3985 -1.0109  1.4822
27465SOL     OW87714   8.396   6.125   1.168 -0.0770 -0.2834  0.2310
27465SOL    HW187715   8.335   6.170   1.110  0.3095 -0.3435 -0.2268
27465SOL    HW287716   8.345   6.107   1.247 -1.1131 -1.6580 -0.6962
27466SOL     OW87717   8.166   8.210   9.070 -0.4551 -0.0073 -0.3249
27466SOL    HW187718   8.094   8.150   9.051 -0.9098  0.3159  0.3561
27466SOL    HW287719   8.204   8.178   9.152 -0.5699  0.5131 -0.0659
27467SOL     OW87720  11.429   0.219   4.917 -0.6976  0.2538 -0.2323
27467SOL    HW187721  11.522   0.221   4.938 -0.6269  1.0050 -0.5845
27467SOL    HW287722  11.426   0.199   4.823 -0.9196 -0.5673 -0.0533
27468SOL     OW87723  11.126   2.736   0.959 -0.0659  0.7034  0.4451
27468SOL    HW187724  11.164   2.705   1.041  0.4495 -0.3888 -0.1758
27468SOL    HW287725  11.179   2.812   0.934 -0.3327  1.1419  1.1991
27469SOL     OW87726   8.626   4.700   8.630 -0.1911 -0.2230  0.1685
27469SOL    HW187727   8.645   4.642   8.557  1.4736  1.8393 -1.1679
27469SOL    HW287728   8.599   4.642   8.701  2.1428 -2.7048 -0.8034
27470SOL     OW87729  10.032   8.633   6.885  0.8192 -0.8451 -0.2634
27470SOL    HW187730   9.937   8.641   6.875  1.0559  1.1155 -1.2979
27470SOL    HW287731  10.053   8.548   6.845 -0.4639 -1.2008 -0.2197
27471SOL     OW87732  11.531   1.247   4.988 -0.0693 -0.2579 -0.0309
27471SOL    HW187733  11.495   1.203   4.911 -0.5394 -3.5574  1.8885
27471SOL    HW287734  11.621   1.216   4.995 -0.6266 -1.6559  1.7709
27472SOL     OW87735   4.351   2.614   9.705  0.3356  0.3716 -0.1246
27472SOL    HW187736   4.436   2.654   9.688 -0.3174  1.7150 -0.3412
27472SOL    HW287737   4.351   2.535   9.650  0.5133  1.6364 -2.0576
27473SOL     OW87738   5.558   6.921   9.361  0.3174  0.5910  0.0117
27473SOL    HW187739   5.498   6.881   9.299 -0.1999  1.0595  0.2034
27473SOL    HW287740   5.645   6.901   9.327  0.0492  0.0740 -0.3697
27474SOL     OW87741   5.501   3.197   3.580 -0.5896 -0.3788  0.1223
27474SOL    HW187742   5.426   3.137   3.583 -0.6998 -0.2433  0.1042
27474SOL    HW287743   5.527   3.207   3.672 -0.2769 -0.8219  0.0806
27475SOL     OW87744   7.350   8.480   4.933  0.3792 -0.3801  0.2948
27475SOL    HW187745   7.437   8.501   4.899  0.5948 -0.7224  0.6280
27475SOL    HW287746   7.301   8.450   4.857  1.3894 -2.8681  0.5197
27476SOL     OW87747   7.168   3.684  11.614 -0.7146  0.2265  0.6490
27476SOL    HW187748   7.189   3.625  11.686  1.1261 -1.1490 -0.9092
27476SOL    HW287749   7.108   3.634  11.558 -1.9869  1.2162  1.0563
27477SOL     OW87750   1.830   6.917   2.364 -0.1434 -0.1959 -0.3044
27477SOL    HW187751   1.819   6.860   2.440  0.5047 -0.1941 -0.2069
27477SOL    HW287752   1.891   6.870   2.307 -0.4220 -0.0764 -0.7052
27478SOL     OW87753   8.303   6.689   2.965  0.2303 -0.4163 -0.2059
27478SOL    HW187754   8.226   6.642   2.934  1.1030 -1.1938 -1.2826
27478SOL    HW287755   8.338   6.731   2.886  1.9427 -1.6059 -0.1277
27479SOL     OW87756   1.036   5.638   6.549 -0.2378 -0.2823  0.6516
27479SOL    HW187757   1.050   5.640   6.644 -1.6976 -0.7187  0.8941
27479SOL    HW287758   0.963   5.697   6.534  0.3086  0.1736 -0.2787
27480SOL     OW87759   8.871   2.726   2.783 -0.0454 -0.0260 -0.0238
27480SOL    HW187760   8.836   2.800   2.734 -0.0171  0.8595  1.2599
27480SOL    HW287761   8.883   2.658   2.717  0.3600  1.2488 -1.3297
27481SOL     OW87762   5.115   7.963   7.359  0.4036 -0.2862  0.7116
27481SOL    HW187763   5.186   7.922   7.310 -1.0925 -0.8735 -1.0874
27481SOL    HW287764   5.114   8.054   7.327 -1.3276 -0.9682 -1.3545
27482SOL     OW87765   8.865   1.183   3.154 -0.4333  0.8054  0.4277
27482SOL    HW187766   8.891   1.207   3.242  1.8454  0.1960 -0.0211
27482SOL    HW287767   8.803   1.110   3.166 -0.0950  0.6812  1.5132
27483SOL     OW87768   7.589   3.018   7.234  0.3569  0.6563 -0.1263
27483SOL    HW187769   7.494   3.026   7.243  0.2057 -0.7153 -0.3238
27483SOL    HW287770   7.606   3.037   7.142 -0.1928 -2.4958 -1.0026
27484SOL     OW87771  10.262  10.405   1.678 -0.5015 -0.0452 -0.0785
27484SOL    HW187772  10.250  10.461   1.602 -1.3556 -0.7299 -0.4594
27484SOL    HW287773  10.305  10.462   1.742 -1.0767  0.9681 -0.5560
27485SOL     OW87774   9.465   5.530   2.456  0.1520  0.2271  0.1236
27485SOL    HW187775   9.533   5.468   2.480  1.4032  1.8472  0.9468
27485SOL    HW287776   9.420   5.550   2.538  1.0829  1.8902  0.2718
27486SOL     OW87777   9.428  11.097   3.743 -0.3212 -0.4832 -0.2909
27486SOL    HW187778   9.503  11.142   3.705 -0.2100  0.3308  0.8466
27486SOL    HW287779   9.448  11.093   3.837 -1.6674 -0.3368  0.0113
27487SOL     OW87780   2.743   6.595   0.318 -0.1106 -0.2755  0.1512
27487SOL    HW187781   2.789   6.589   0.401  2.3196  1.6128 -0.9303
27487SOL    HW287782   2.669   6.652   0.336 -0.6600 -1.3211  1.3724
27488SOL     OW87783   9.789  10.796   3.151 -0.1884 -0.1787 -0.0956
27488SOL    HW187784   9.741  10.865   3.106  0.8293  0.6368  0.0114
27488SOL    HW287785   9.795  10.725   3.087 -0.2785  0.2759 -0.6149
27489SOL     OW87786   0.932   2.897   0.763  0.2709  0.2127  0.1446
27489SOL    HW187787   0.901   2.902   0.853  0.8870  0.1545  0.3679
27489SOL    HW287788   0.978   2.813   0.758 -1.3453 -0.6504 -0.7561
27490SOL     OW87789   8.378   1.718   7.455  0.2419 -0.4108  0.5148
27490SOL    HW187790   8.462   1.758   7.432 -0.6229  1.8118  0.9217
27490SOL    HW287791   8.350   1.765   7.534 -1.9845 -0.1285 -0.3722
27491SOL     OW87792   9.107   7.494   7.838 -0.1221 -0.4742 -0.5656
27491SOL    HW187793   9.191   7.472   7.798 -0.5063  0.6597 -2.0549
27491SOL    HW287794   9.045   7.492   7.766 -0.7587  2.0564 -0.1688
27492SOL     OW87795   2.883   2.612   7.075 -0.4594  0.0830  0.4542
27492SOL    HW187796   2.945   2.652   7.135  0.9234 -0.0924 -0.7945
27492SOL    HW287797   2.849   2.685   7.023 -2.2708  0.3535  1.9048
27493SOL     OW87798   1.738  10.857  10.644  0.1165 -0.1900  0.0319
27493SOL    HW187799   1.721  10.764  10.653 -0.0907 -0.1623 -0.0795
27493SOL    HW287800   1.790  10.880  10.721 -0.1129 -0.3265  0.2243
27494SOL     OW87801   4.114  10.857   7.855 -0.0085  0.9047  0.4256
27494SOL    HW187802   4.089  10.918   7.786  0.4297  0.5221 -0.0808
27494SOL    HW287803   4.081  10.772   7.826  1.5009  0.4614 -0.0812
27495SOL     OW87804   9.196   5.761   5.976 -0.8513 -0.6603 -0.0167
27495SOL    HW187805   9.144   5.683   5.995  0.3474 -1.0637  1.8086
27495SOL    HW287806   9.222   5.750   5.884  0.3138 -3.0659  0.5245
27496SOL     OW87807  10.964   3.927  10.552  0.4800 -0.3633 -0.2711
27496SOL    HW187808  10.919   3.923  10.636 -0.3331 -0.7762 -0.7105
27496SOL    HW287809  10.933   3.849  10.505  1.0967 -0.2569 -0.8638
27497SOL     OW87810   5.187   2.692   5.051  0.4266 -0.0859  0.4768
27497SOL    HW187811   5.263   2.682   4.993  0.0062  0.3179 -0.1553
27497SOL    HW287812   5.225   2.697   5.138  1.2164  0.9138  0.1096
27498SOL     OW87813   6.610   8.073   1.276  0.2537 -0.1049 -0.2163
27498SOL    HW187814   6.648   8.082   1.363 -0.9411 -1.8760  0.5479
27498SOL    HW287815   6.671   8.015   1.229  0.2161 -0.2207 -0.1215
27499SOL     OW87816   4.220  11.764  11.370  0.1879 -0.3739  0.3323
27499SOL    HW187817   4.181  11.800  11.450  0.0530  0.7003 -0.1995
27499SOL    HW287818   4.243  11.841  11.318 -1.5406 -1.0273 -1.5482
27500SOL     OW87819  10.886   0.084  10.639  0.3394  0.5184 -0.1857
27500SOL    HW187820  10.958   0.044  10.687  1.1632  0.6522 -1.2856
27500SOL    HW287821  10.877   0.171  10.679  1.3519  0.8226 -0.5858
27501SOL     OW87822   7.008   8.533   1.170 -0.4065 -0.1598 -0.0365
27501SOL    HW187823   7.002   8.546   1.265 -0.8964  0.2303 -0.1158
27501SOL    HW287824   7.089   8.485   1.157  0.5962  1.3228  0.4447
27502SOL     OW87825   9.623   4.347   9.318 -0.3613  0.3296  0.1749
27502SOL    HW187826   9.645   4.267   9.270 -1.3143  0.2164 -0.1016
27502SOL    HW287827   9.566   4.317   9.390 -2.0792  0.9160 -0.8884
27503SOL     OW87828   9.416   3.003   0.296  0.4054 -0.6301 -0.0892
27503SOL    HW187829   9.435   3.091   0.261 -1.1436 -0.3346 -0.2758
27503SOL    HW287830   9.326   3.010   0.329  0.2924 -2.1252 -0.0249
27504SOL     OW87831   5.364   9.350   6.631 -0.2612 -0.1407 -0.3504
27504SOL    HW187832   5.379   9.374   6.723  2.6128  1.2091 -1.0537
27504SOL    HW287833   5.274   9.378   6.613 -0.1819  1.5179  1.5012
27505SOL     OW87834   8.081  10.156   2.476 -0.3841 -0.2450 -0.5228
27505SOL    HW187835   8.059  10.134   2.386 -1.7486 -0.6435 -0.1278
27505SOL    HW287836   8.079  10.251   2.479  0.5996 -0.1958 -1.1108
27506SOL     OW87837   7.798   2.534   2.803 -0.0811  0.1028 -0.0419
27506SOL    HW187838   7.777   2.509   2.713  1.0980  0.2257 -0.3751
27506SOL    HW287839   7.884   2.495   2.819 -1.2020 -1.8058  1.8251
27507SOL     OW87840   3.785   9.128   9.382 -0.4368  0.3219  0.2470
27507SOL    HW187841   3.799   9.043   9.340  0.6577  1.4915 -1.9265
27507SOL    HW287842   3.812   9.114   9.473 -0.2446 -1.6260 -0.0569
27508SOL     OW87843  11.614   0.645  10.643  0.2559  1.0983  0.1005
27508SOL    HW187844  11.606   0.554  10.671  0.6875  1.1727  0.4763
27508SOL    HW287845  11.571   0.647  10.557  0.1247  0.5736  0.1473
27509SOL     OW87846   9.507   9.863   8.440  0.5395  0.4637 -0.1968
27509SOL    HW187847   9.492   9.958   8.439  1.0842  0.5498 -0.5062
27509SOL    HW287848   9.419   9.825   8.434  0.3625  0.9460 -0.7607
27510SOL     OW87849   4.096   5.948   9.429  0.6090  0.1305 -0.5794
27510SOL    HW187850   4.021   6.006   9.419  0.6062  0.7213  2.1149
27510SOL    HW287851   4.061   5.871   9.473  1.8663  1.6378  3.5667
27511SOL     OW87852   6.705   5.985   1.279  0.2479 -0.4310 -0.3938
27511SOL    HW187853   6.793   5.954   1.303  1.1618  1.7720 -0.6609
27511SOL    HW287854   6.647   5.912   1.301  2.0301 -1.6164  0.6338
27512SOL     OW87855   4.910   6.449  11.803  0.4954 -0.3369  0.2509
27512SOL    HW187856   5.001   6.471  11.780  0.8527 -1.9022 -0.0035
27512SOL    HW287857   4.918   6.403  11.887 -0.3875  1.8820  1.6159
27513SOL     OW87858   3.456   0.890   4.665  0.0645  0.6831  0.1794
27513SOL    HW187859   3.440   0.939   4.745 -1.2291 -0.2356  0.5243
27513SOL    HW287860   3.411   0.940   4.597  2.2980  2.2009 -0.2858
27514SOL     OW87861   3.288   4.809   5.623  0.4508 -0.8942  0.0760
27514SOL    HW187862   3.201   4.842   5.602  0.9148  0.3985  0.0758
27514SOL    HW287863   3.320   4.771   5.541 -0.4197 -2.1406  0.2927
27515SOL     OW87864   9.653   3.749   2.141 -1.1953  0.0804 -0.3104
27515SOL    HW187865   9.737   3.725   2.179 -0.3308  1.7426 -1.0561
27515SOL    HW287866   9.669   3.752   2.047 -1.9935  0.7154 -0.4407
27516SOL     OW87867   1.241   5.220   5.521  0.2707  0.5094 -0.1703
27516SOL    HW187868   1.163   5.262   5.486 -0.7679 -1.0356  0.1733
27516SOL    HW287869   1.263   5.152   5.457 -1.2392 -1.8741  1.6404
27517SOL     OW87870   2.262   8.404   2.560  0.1661 -0.9291 -0.0314
27517SOL    HW187871   2.296   8.386   2.647 -0.8406  0.9419  0.8216
27517SOL    HW287872   2.338   8.435   2.510  0.5454 -0.9696  0.5113
27518SOL     OW87873   3.238   2.259   4.763  0.3693 -0.0579  0.0868
27518SOL    HW187874   3.318   2.266   4.712  0.3566 -0.7823 -0.0479
27518SOL    HW287875   3.182   2.329   4.729  0.7303  0.0910 -0.2112
27519SOL     OW87876   3.561   8.967   6.822 -0.5404 -0.2970 -0.3254
27519SOL    HW187877   3.621   8.954   6.748 -1.8615 -1.6171 -1.2245
27519SOL    HW287878   3.602   8.922   6.895  0.1950 -0.0504 -0.5803
27520SOL     OW87879  11.665  10.810   8.069 -0.8294 -0.4893  0.1198
27520SOL    HW187880  11.648  10.796   8.162 -1.9331 -1.1369 -0.1640
27520SOL    HW287881  11.600  10.875   8.043 -0.1909  0.0711 -0.0969
27521SOL     OW87882   0.547   3.228   6.137  0.0246 -0.3479  0.1173
27521SOL    HW187883   0.590   3.204   6.055 -1.3140 -1.5379 -0.2793
27521SOL    HW287884   0.619   3.248   6.198  1.0681 -0.9574 -0.8883
27522SOL     OW87885   0.093   4.899  10.943  0.4900  0.1179  0.0227
27522SOL    HW187886   0.163   4.942  10.894  0.9662  0.2895  0.8206
27522SOL    HW287887   0.066   4.826  10.888 -0.1871  1.2997 -1.2703
27523SOL     OW87888   9.603   9.685   0.776  0.0974 -0.6920 -0.1665
27523SOL    HW187889   9.632   9.628   0.705 -1.6263 -1.9264  0.0683
27523SOL    HW287890   9.555   9.627   0.836  1.1097  0.3817  1.7989
27524SOL     OW87891   2.148  11.343   0.457 -0.3755  0.2100  0.6331
27524SOL    HW187892   2.141  11.413   0.392  0.9120 -0.6635 -0.4938
27524SOL    HW287893   2.126  11.263   0.409 -2.0315 -0.1804  1.9534
27525SOL     OW87894   2.715   4.425   7.708  0.7055  0.2887 -0.2739
27525SOL    HW187895   2.644   4.488   7.693 -0.2266 -1.0797 -1.9176
27525SOL    HW287896   2.762   4.422   7.624  2.4909  0.8394  0.6490
27526SOL     OW87897   0.875   8.366   8.777  0.3799  0.0326 -0.0826
27526SOL    HW187898   0.819   8.363   8.699  1.4093 -1.4065 -0.8276
27526SOL    HW287899   0.958   8.327   8.748  1.6309  1.6684  1.1077
27527SOL     OW87900   4.926   6.753   6.224 -0.4667 -0.5317  0.8055
27527SOL    HW187901   4.985   6.828   6.220 -0.0895 -0.7548  1.8792
27527SOL    HW287902   4.849   6.781   6.175 -0.1155  0.3505  0.7309
27528SOL     OW87903   3.274   6.896   0.151  0.8054 -0.3333  0.2687
27528SOL    HW187904   3.352   6.942   0.181 -0.0523  1.7470 -0.4602
27528SOL    HW287905   3.296   6.803   0.157  2.5800  0.1388  2.0133
27529SOL     OW87906   9.557   3.426   0.351 -0.4813 -0.5826 -0.0717
27529SOL    HW187907   9.567   3.492   0.282 -0.7772 -0.3491  0.1041
27529SOL    HW287908   9.536   3.345   0.304 -0.8725 -0.3818 -0.2499
27530SOL     OW87909   7.689   6.497   0.070 -0.1224  0.3326  0.3299
27530SOL    HW187910   7.725   6.515  -0.017  1.4695  1.7754  1.1943
27530SOL    HW287911   7.615   6.557   0.079 -1.3458 -0.9750 -0.5865
27531SOL     OW87912   2.863   6.362   0.184  0.2701 -0.3471 -0.3653
27531SOL    HW187913   2.949   6.404   0.180  1.2827 -2.2487  0.3193
27531SOL    HW287914   2.811   6.421   0.237  1.2875  0.6209 -0.3976
27532SOL     OW87915   3.811  10.958   5.296 -0.0158  0.0250 -0.0460
27532SOL    HW187916   3.862  10.896   5.348 -1.1336 -1.7532 -0.9637
27532SOL    HW287917   3.773  11.018   5.361  0.2316 -0.9087  0.9936
27533SOL     OW87918   5.288   8.516   3.325 -0.3391 -0.0687 -0.3717
27533SOL    HW187919   5.219   8.523   3.259 -0.5333  1.9266 -0.0290
27533SOL    HW287920   5.260   8.445   3.383 -1.6549  0.1232 -0.7563
27534SOL     OW87921   5.443   0.019   8.272 -0.0610  0.2406  0.4080
27534SOL    HW187922   5.479   0.108   8.280 -0.7677  0.5926 -0.2629
27534SOL    HW287923   5.445   0.001   8.178 -0.7925 -0.0873  0.4526
27535SOL     OW87924  10.648   7.940   3.671 -0.0452  0.0869 -0.3294
27535SOL    HW187925  10.679   7.919   3.583  1.5978  1.9930 -0.2583
27535SOL    HW287926  10.560   7.975   3.658  0.6985  1.6384 -1.3960
27536SOL     OW87927  11.262   0.921   7.168 -0.4980 -0.0608  0.0511
27536SOL    HW187928  11.222   0.874   7.241 -0.8199 -1.5740 -1.0560
27536SOL    HW287929  11.215   1.004   7.163 -1.0844 -0.3285  0.9846
27537SOL     OW87930   0.889   6.096   7.344  0.2345  0.5481 -0.0050
27537SOL    HW187931   0.826   6.148   7.295 -0.5839 -0.7033 -0.3188
27537SOL    HW287932   0.971   6.105   7.296  0.1481  1.6336  0.0254
27538SOL     OW87933   8.393   4.474   1.305 -0.8000  0.0965  0.0137
27538SOL    HW187934   8.384   4.536   1.232 -0.0333 -0.9502 -1.0036
27538SOL    HW287935   8.305   4.468   1.342 -0.9505  1.5871 -0.0183
27539SOL     OW87936   3.125   8.570   3.026 -0.1275 -0.0139  0.0750
27539SOL    HW187937   3.065   8.538   3.095 -2.6991  1.6990 -1.2064
27539SOL    HW287938   3.122   8.665   3.034  1.1535  0.1547 -1.1409
27540SOL     OW87939   7.324   1.792   4.952 -0.4140  0.4840  0.6448
27540SOL    HW187940   7.311   1.714   5.006 -2.0747 -0.3038 -0.8118
27540SOL    HW287941   7.266   1.780   4.878  0.5406  2.3478 -0.4779
27541SOL     OW87942   9.073   4.745   1.431 -0.3070  0.2820 -0.3745
27541SOL    HW187943   9.163   4.772   1.447  0.2790 -1.0606 -1.2927
27541SOL    HW287944   9.024   4.827   1.429  0.4765  0.9384  2.3148
27542SOL     OW87945   3.598  11.381   7.300 -0.2174 -0.5550 -0.4863
27542SOL    HW187946   3.611  11.297   7.344  1.4377 -0.4215 -0.6550
27542SOL    HW287947   3.659  11.440   7.344 -0.4642  0.2514 -1.2085
27543SOL     OW87948   6.297   9.568   6.346 -0.1335 -0.0939 -0.0880
27543SOL    HW187949   6.351   9.647   6.350 -0.5492  0.1589  0.8655
27543SOL    HW287950   6.338   9.515   6.278 -0.5424  1.4447 -1.6022
27544SOL     OW87951   4.126   5.544   3.108 -0.1857 -0.2261 -0.3787
27544SOL    HW187952   4.143   5.621   3.054  0.2962 -0.1938 -0.1849
27544SOL    HW287953   4.213   5.506   3.123 -0.3083 -0.2066  0.4102
27545SOL     OW87954  10.744   0.719  10.904  0.3788 -0.5227  0.1745
27545SOL    HW187955  10.655   0.753  10.898  0.7786  0.9142  1.5884
27545SOL    HW287956  10.736   0.639  10.955  0.0461  0.3239  1.4785
27546SOL     OW87957   9.528   9.072  11.469 -0.6392  0.6837  0.2137
27546SOL    HW187958   9.506   9.143  11.529  0.4166  2.0438 -0.9490
27546SOL    HW287959   9.597   9.108  11.413 -0.1171 -1.2394 -0.4579
27547SOL     OW87960   6.555   5.109   6.748  0.2111 -0.2628  0.1671
27547SOL    HW187961   6.462   5.089   6.743  0.5120 -1.9127  0.5165
27547SOL    HW287962   6.593   5.069   6.670  0.7373 -0.2633  0.4135
27548SOL     OW87963   6.583   6.283   9.547  0.2303  0.5479 -0.1948
27548SOL    HW187964   6.533   6.201   9.552  0.0144  0.6200 -1.0264
27548SOL    HW287965   6.584   6.305   9.454 -0.4470  1.9483  0.1002
27549SOL     OW87966   4.111   8.866   9.603 -0.3092  0.7043 -0.0972
27549SOL    HW187967   4.149   8.802   9.543  0.6245  0.0032  1.1917
27549SOL    HW287968   4.083   8.815   9.679 -1.7955  1.5181 -0.0644
27550SOL     OW87969  10.845   2.755   6.850 -0.6181 -0.0067  0.0557
27550SOL    HW187970  10.792   2.804   6.787 -1.0231  0.3302  0.6436
27550SOL    HW287971  10.835   2.664   6.824  0.0483  0.1985 -0.9804
27551SOL     OW87972  11.403   7.987   2.265 -0.4267  0.0461 -0.2697
27551SOL    HW187973  11.358   8.010   2.183  0.2359  2.0878 -0.1150
27551SOL    HW287974  11.496   8.001   2.246 -0.1842 -0.3680  0.5619
27552SOL     OW87975   8.434   9.123  11.241  0.2780 -0.3914 -0.1763
27552SOL    HW187976   8.464   9.033  11.254 -0.9045 -0.6265  1.1040
27552SOL    HW287977   8.339   9.116  11.241  0.1782  0.8619 -0.0870
27553SOL     OW87978   9.469   6.108  11.669 -0.2462  0.3751  0.3436
27553SOL    HW187979   9.553   6.149  11.651  0.5535 -1.5158 -0.5011
27553SOL    HW287980   9.460   6.041  11.601 -3.2183  1.5861 -0.6151
27554SOL     OW87981   6.222   0.928   8.589 -0.7172 -0.0708 -0.0987
27554SOL    HW187982   6.232   0.839   8.557  0.9482 -0.4432  1.2878
27554SOL    HW287983   6.161   0.920   8.662 -0.7780 -0.0315 -0.1455
27555SOL     OW87984  11.661   9.709   2.544 -0.0493  0.1296  0.5142
27555SOL    HW187985  11.589   9.645   2.549 -0.4947  0.5955  0.2170
27555SOL    HW287986  11.706   9.701   2.628 -0.0087 -0.6764  0.4271
27556SOL     OW87987   7.570   2.826   8.483  0.7582 -0.4125 -0.6069
27556SOL    HW187988   7.655   2.846   8.445  0.5303  2.6034  0.2380
27556SOL    HW287989   7.513   2.898   8.457 -1.1351 -1.5531  0.1258
27557SOL     OW87990   5.948   4.646   9.432  0.4377  0.0110  0.0982
27557SOL    HW187991   5.975   4.554   9.434  0.1227 -0.0813  1.3989
27557SOL    HW287992   6.004   4.687   9.366  0.4589 -1.1466 -0.6220
27558SOL     OW87993   0.823   6.267   9.494  0.6560  0.6174  0.0327
27558SOL    HW187994   0.802   6.180   9.461 -0.1172  0.9036 -0.2503
27558SOL    HW287995   0.901   6.294   9.445  0.8126  0.1499  0.0220
27559SOL     OW87996   6.734   3.826   0.235 -0.1155 -0.3995 -0.2648
27559SOL    HW187997   6.819   3.799   0.270 -0.3711 -0.5302  0.2655
27559SOL    HW287998   6.727   3.780   0.151 -0.3824 -1.7128  0.4498
27560SOL     OW87999  10.303   5.817   7.631  0.2781  0.5181 -0.1391
27560SOL    HW188000  10.219   5.777   7.653 -0.5069  2.2038  0.0982
27560SOL    HW288001  10.352   5.747   7.588 -0.4636 -1.0906  1.4961
27561SOL     OW88002   1.914   8.424   7.408  0.1542 -0.3153 -0.5399
27561SOL    HW188003   1.945   8.336   7.429  0.2399 -0.1542  0.0086
27561SOL    HW288004   1.955   8.444   7.323  0.2053 -0.7663 -0.6226
27562SOL     OW88005   2.288   1.194   5.532  0.0746  0.3392 -0.0114
27562SOL    HW188006   2.367   1.169   5.581  0.3249 -0.3798 -0.7714
27562SOL    HW288007   2.228   1.121   5.544  0.3820 -0.1473 -1.3011
27563SOL     OW88008   6.177   8.766   5.263  0.3632 -0.0643 -0.8667
27563SOL    HW188009   6.175   8.779   5.357 -5.2781  1.8984 -0.8405
27563SOL    HW288010   6.210   8.849   5.228 -0.5188  0.4507 -0.5283
27564SOL     OW88011   7.519   0.018   7.324  0.3502  0.2350 -0.2979
27564SOL    HW188012   7.545   0.077   7.253  1.7697 -0.2940 -0.2356
27564SOL    HW288013   7.425   0.004   7.310 -0.5318  3.8714  0.6760
27565SOL     OW88014   3.331   1.084  11.559  0.2212  0.4303  0.1177
27565SOL    HW188015   3.241   1.106  11.533 -0.7982 -2.1873  1.0633
27565SOL    HW288016   3.380   1.080  11.477 -0.5208  1.7702 -0.4270
27566SOL     OW88017   6.269   9.671   3.308  0.2120 -0.3969 -0.2606
27566SOL    HW188018   6.356   9.640   3.280  0.8494  0.5327  0.6127
27566SOL    HW288019   6.211   9.598   3.289  0.6445 -0.0087 -3.5595
27567SOL     OW88020  10.008   2.976   9.870  0.7928 -0.3191 -0.5191
27567SOL    HW188021  10.048   2.900   9.828  0.2239 -1.1962  0.4848
27567SOL    HW288022  10.029   2.966   9.963 -1.4270 -0.6398 -0.0010
27568SOL     OW88023   9.645   6.931   6.999  0.0273  0.2803  0.7555
27568SOL    HW188024   9.560   6.949   6.959  0.0984  0.2928  0.6090
27568SOL    HW288025   9.675   6.851   6.957 -0.2259 -0.1119  1.3114
27569SOL     OW88026  11.250   1.809   8.764  0.7397 -0.5765  0.2750
27569SOL    HW188027  11.277   1.753   8.836 -0.6803  0.3995  1.6398
27569SOL    HW288028  11.286   1.895   8.785  1.0732 -0.4672 -0.6749
27570SOL     OW88029   9.102   0.659   0.336  0.3064  0.0634  0.0953
27570SOL    HW188030   9.019   0.623   0.306  0.1361  0.2984  0.2797
27570SOL    HW288031   9.095   0.753   0.318  0.3350  0.1557  0.5661
27571SOL     OW88032   6.396   2.274  11.160  0.4040 -0.3822 -0.2124
27571SOL    HW188033   6.344   2.204  11.121 -0.0489 -0.3687  0.3468
27571SOL    HW288034   6.340   2.352  11.152 -0.5980 -0.7619  2.2551
27572SOL     OW88035   7.071   7.183   2.419  0.1064  0.0287  0.4593
27572SOL    HW188036   7.098   7.093   2.438  0.5167  0.0422 -0.0518
27572SOL    HW288037   6.987   7.174   2.374 -0.2999 -0.0519  1.2032
27573SOL     OW88038   8.920   6.571  10.005  0.1957 -0.5411 -0.3301
27573SOL    HW188039   9.001   6.605  10.043 -1.6195  2.6066  1.2004
27573SOL    HW288040   8.898   6.634   9.936 -2.5697  0.7811  1.5755
27574SOL     OW88041   3.743   3.826   9.509 -0.1933 -0.4723  0.2142
27574SOL    HW188042   3.756   3.881   9.586 -0.5420 -0.3187  0.1680
27574SOL    HW288043   3.655   3.849   9.479  0.4095  0.3719 -0.9658
27575SOL     OW88044   2.809  10.449  11.672  0.3531  0.2559 -0.6115
27575SOL    HW188045   2.854  10.530  11.697  0.0407  0.4737 -0.7552
27575SOL    HW288046   2.880  10.385  11.663  0.6220  0.5574 -0.6803
27576SOL     OW88047   2.267   5.133   5.351 -0.0928  0.1091  0.2235
27576SOL    HW188048   2.232   5.167   5.434  0.9457 -0.3571  0.8678
27576SOL    HW288049   2.305   5.048   5.374  0.0299 -0.1193 -0.7784
27577SOL     OW88050   2.296   1.855   6.708 -0.0897 -0.1544  0.5836
27577SOL    HW188051   2.376   1.907   6.714  0.0777 -0.3445  0.0642
27577SOL    HW288052   2.277   1.851   6.614  0.1255 -1.3688  0.5795
27578SOL     OW88053   1.048   7.969   1.151 -0.4124  0.2150 -0.3798
27578SOL    HW188054   1.041   8.007   1.238 -3.4047 -1.7555  0.3860
27578SOL    HW288055   1.081   7.880   1.166 -1.1862 -0.2276 -1.2031
27579SOL     OW88056   3.610   5.921   7.232 -0.3796  0.7917 -0.2902
27579SOL    HW188057   3.524   5.888   7.208 -0.4538  1.1110 -0.4633
27579SOL    HW288058   3.608   6.014   7.208 -0.2767  0.9955  0.4533
27580SOL     OW88059   2.390   9.143   1.121  0.0085  0.1561  0.1623
27580SOL    HW188060   2.330   9.073   1.092 -0.7097  0.4638  0.8660
27580SOL    HW288061   2.470   9.128   1.071 -0.1176 -1.1958  0.3159
27581SOL     OW88062   0.134   7.930   5.712 -0.5762 -0.2390  0.3136
27581SOL    HW188063   0.222   7.961   5.690 -0.8920  1.0022  0.7465
27581SOL    HW288064   0.148   7.866   5.782 -0.1068  0.9814  1.3694
27582SOL     OW88065   2.334   4.370  11.532  0.1569  0.3421  0.9305
27582SOL    HW188066   2.346   4.459  11.499  0.8654  0.4182  1.3752
27582SOL    HW288067   2.398   4.362  11.603 -1.5088  0.2956  2.5126
27583SOL     OW88068   4.067  10.047   8.587 -0.4069 -0.5154  0.2400
27583SOL    HW188069   3.980  10.024   8.554 -0.9073  2.8491 -1.2441
27583SOL    HW288070   4.083  10.135   8.552  2.6785 -0.1014  2.3031
27584SOL     OW88071   0.207   9.217   6.685 -0.3431  0.0759 -0.5436
27584SOL    HW188072   0.263   9.237   6.760  0.1299  2.0357 -1.3738
27584SOL    HW288073   0.151   9.294   6.675  0.4761  0.4288 -2.9518
27585SOL     OW88074   5.899   0.888   0.776 -0.5492  0.3855 -0.1776
27585SOL    HW188075   5.897   0.795   0.798 -2.7009  0.4912  0.2370
27585SOL    HW288076   5.992   0.908   0.766  0.2557 -1.0005  3.2099
27586SOL     OW88077   6.840   9.033   4.223 -0.2389  0.0371  0.3266
27586SOL    HW188078   6.790   9.067   4.148 -0.5452 -0.1189  0.4607
27586SOL    HW288079   6.790   8.958   4.253 -0.4235  0.4415  1.0479
27587SOL     OW88080   5.990   7.392  11.191  0.0445  0.3826 -0.2201
27587SOL    HW188081   6.023   7.434  11.271  1.5013  0.6423 -0.9250
27587SOL    HW288082   5.983   7.463  11.128  0.9772 -0.1592 -0.9500
27588SOL     OW88083   6.600   6.644   6.563 -0.0652 -0.7285  0.2177
27588SOL    HW188084   6.569   6.627   6.474  0.1634  0.5129 -0.1226
27588SOL    HW288085   6.695   6.635   6.557 -0.0018 -0.0790  0.1959
27589SOL     OW88086   2.221  11.668   1.026 -0.8688  0.3050 -0.1576
27589SOL    HW188087   2.147  11.612   1.004 -1.1846  1.0796 -1.0976
27589SOL    HW288088   2.263  11.687   0.942 -0.1506  0.6288  0.2664
27590SOL     OW88089   1.946   7.007  10.855  0.3117 -0.8046 -0.1529
27590SOL    HW188090   1.938   7.102  10.850 -0.3519 -0.8447 -0.0637
27590SOL    HW288091   1.879   6.974  10.795  1.1402 -1.2186 -0.8708
27591SOL     OW88092   4.300   9.773  11.554  0.3470  0.1614 -0.1313
27591SOL    HW188093   4.237   9.804  11.489 -0.7672  1.8433  1.6179
27591SOL    HW288094   4.381   9.818  11.532  0.3896 -0.3914 -1.1695
27592SOL     OW88095   8.251   2.073   2.856 -0.0026  0.0315 -0.2152
27592SOL    HW188096   8.322   2.014   2.879 -0.6744  0.0625  2.2691
27592SOL    HW288097   8.178   2.015   2.833  0.0736 -0.0592 -0.2249
27593SOL     OW88098   6.190  10.846   7.938  0.2465  0.4150  0.2889
27593SOL    HW188099   6.156  10.757   7.928 -2.6315  1.3881  0.6824
27593SOL    HW288100   6.201  10.878   7.848 -0.7412  0.3575  0.1385
27594SOL     OW88101   4.036  10.325   7.619 -0.2044  0.2175  0.9442
27594SOL    HW188102   4.098  10.255   7.599  0.5646  0.9222  0.8206
27594SOL    HW288103   3.988  10.338   7.537 -0.1413  0.0465  0.8776
27595SOL     OW88104   5.040   9.345   5.459 -0.4152 -0.3504  0.4830
27595SOL    HW188105   5.013   9.274   5.517 -0.7335 -1.4638 -0.9875
27595SOL    HW288106   5.135   9.340   5.456 -0.4323 -0.6576  0.4576
27596SOL     OW88107   2.133   5.436   6.532 -0.1068  0.0109 -0.0254
27596SOL    HW188108   2.056   5.389   6.562  1.7799 -2.2195  1.6433
27596SOL    HW288109   2.187   5.370   6.490  2.7510  0.4998  2.5658
27597SOL     OW88110  11.045   7.508   8.894  0.0340 -0.5640  0.5731
27597SOL    HW188111  10.986   7.485   8.966 -0.6956  0.0498  0.1903
27597SOL    HW288112  11.113   7.562   8.935 -0.4899 -0.0465  0.7796
27598SOL     OW88113  10.159  11.808  10.127 -1.0070 -0.2759 -0.2658
27598SOL    HW188114  10.133  11.716  10.117 -2.3156  0.1852 -1.5423
27598SOL    HW288115  10.089  11.857  10.085  0.1170  1.2679 -0.4353
27599SOL     OW88116   3.978   6.231   9.884 -0.0738 -0.3487 -0.1620
27599SOL    HW188117   4.020   6.196   9.806 -1.5431  0.4332 -1.3743
27599SOL    HW288118   3.961   6.323   9.863  0.7416  0.2780  1.6469
27600SOL     OW88119   3.583  10.177   3.171  0.0903  0.1955  0.0331
27600SOL    HW188120   3.552  10.242   3.235  0.9385  0.0660  0.5989
27600SOL    HW288121   3.583  10.224   3.088 -1.4216  0.2464  0.0409
27601SOL     OW88122   9.922   4.893   0.042 -0.5318  0.6592 -0.1317
27601SOL    HW188123   9.900   4.805   0.074 -2.4647  0.5520 -1.5084
27601SOL    HW288124   9.857   4.950   0.083  0.7797  1.4992  0.8331
27602SOL     OW88125   5.206   1.992   3.841 -0.2122  0.6355  1.1745
27602SOL    HW188126   5.269   1.956   3.903  0.4020  0.1524  0.2792
27602SOL    HW288127   5.259   2.038   3.775 -0.6443 -1.1135 -0.4689
27603SOL     OW88128   9.359   6.391   1.500 -0.3139  0.5654 -0.4567
27603SOL    HW188129   9.271   6.400   1.538 -0.0739  0.6385  0.0963
27603SOL    HW288130   9.354   6.312   1.446 -0.5365  0.1865  0.1098
27604SOL     OW88131   9.826  10.186   0.648  0.4726 -0.1543  0.0633
27604SOL    HW188132   9.740  10.154   0.621  0.4577  0.5619 -0.7682
27604SOL    HW288133   9.888  10.128   0.603  0.4296  0.0085 -0.2084
27605SOL     OW88134   6.249   1.483   9.040  0.3079 -0.2405  0.3325
27605SOL    HW188135   6.166   1.530   9.037 -0.4339 -1.5637 -1.5137
27605SOL    HW288136   6.234   1.403   8.991  3.0001  0.0129 -1.1228
27606SOL     OW88137   8.007   1.741  10.546  0.6457 -0.2413 -0.0637
27606SOL    HW188138   8.055   1.794  10.482 -0.2072 -0.6065 -1.0248
27606SOL    HW288139   7.930   1.710  10.499 -0.0102 -0.5109  1.1560
27607SOL     OW88140  10.589   2.596   5.710  0.2096 -0.6845  0.1980
27607SOL    HW188141  10.675   2.603   5.668 -0.2289  1.2876 -0.4600
27607SOL    HW288142  10.594   2.656   5.785 -1.3015  1.3493 -1.2186
27608SOL     OW88143  11.427   0.100  11.602  0.1337  0.5104 -0.4270
27608SOL    HW188144  11.447   0.042  11.528  0.5569  0.4252 -0.2450
27608SOL    HW288145  11.490   0.172  11.594 -1.6716  2.0452 -1.8498
27609SOL     OW88146   5.540   3.271  11.148  0.0619 -0.1675  0.0920
27609SOL    HW188147   5.533   3.334  11.077  1.2139  0.1433  0.2299
27609SOL    HW288148   5.622   3.294  11.193 -0.5726 -0.4224  1.4462
27610SOL     OW88149   0.675   4.535   7.639 -0.3706 -0.1076 -0.2966
27610SOL    HW188150   0.623   4.603   7.682  1.3393  1.2489 -0.2579
27610SOL    HW288151   0.698   4.573   7.554  1.9906  0.1153  0.3725
27611SOL     OW88152   9.845   8.319  10.357  0.4835  0.3354 -0.5627
27611SOL    HW188153   9.869   8.238  10.403  1.5244  0.6231 -0.5826
27611SOL    HW288154   9.889   8.313  10.273  0.9991  1.1652 -0.3589
27612SOL     OW88155  10.827   1.719  10.829 -0.2175 -0.3299 -0.0486
27612SOL    HW188156  10.871   1.768  10.898 -0.8096  1.4646 -0.8847
27612SOL    HW288157  10.762   1.780  10.794  1.3901 -0.3664 -3.5397
27613SOL     OW88158   6.628   2.473   7.853  0.2584 -0.9916  0.3994
27613SOL    HW188159   6.723   2.474   7.864  0.2899 -2.3518  0.3676
27613SOL    HW288160   6.598   2.554   7.895  1.4771 -0.2515 -0.1273
27614SOL     OW88161   1.714   0.571   0.827 -0.3432 -0.4047  0.1164
27614SOL    HW188162   1.665   0.512   0.769 -0.0558 -0.0537 -0.4934
27614SOL    HW288163   1.797   0.585   0.782  0.0280 -0.4087  0.7916
27615SOL     OW88164   5.060  10.310   1.318 -0.5500  0.3121  0.4946
27615SOL    HW188165   5.099  10.285   1.234  0.4740  0.5524  0.8858
27615SOL    HW288166   4.978  10.260   1.322 -0.6701  0.3794 -0.6869
27616SOL     OW88167   5.718   9.830   1.162  0.8807 -0.3555  0.0863
27616SOL    HW188168   5.683   9.913   1.129  0.2737 -0.0585  1.4103
27616SOL    HW288169   5.646   9.792   1.213  1.5448 -1.1355  0.4634
27617SOL     OW88170   0.012   5.893   9.432 -0.2800 -0.3244  0.3117
27617SOL    HW188171  -0.001   5.923   9.522 -1.9489  0.3442 -0.1079
27617SOL    HW288172  -0.033   5.958   9.378  1.4377 -0.2192 -1.1052
27618SOL     OW88173   8.309  11.091  10.093 -0.1673 -0.2024 -0.2982
27618SOL    HW188174   8.383  11.061  10.146  0.3843 -1.3282 -1.6278
27618SOL    HW288175   8.316  11.186  10.092 -2.0594  0.2485  4.2310
27619SOL     OW88176   4.213   8.990  10.372  0.1296  0.3755  0.5056
27619SOL    HW188177   4.144   8.954  10.428  1.5865 -1.7808  1.0388
27619SOL    HW288178   4.294   8.975  10.421  1.1108  1.9325 -0.5304
27620SOL     OW88179   8.729   4.045   6.541 -0.0235  0.5485  0.1579
27620SOL    HW188180   8.776   4.125   6.563 -0.7818  0.4486  2.3812
27620SOL    HW288181   8.639   4.061   6.571 -0.5336 -0.6062 -0.6856
27621SOL     OW88182   2.754   1.474   4.008  1.1089  0.5277 -0.0509
27621SOL    HW188183   2.771   1.568   4.010 -1.0389  1.0259 -1.4129
27621SOL    HW288184   2.659   1.466   4.022  0.6975 -1.1385 -2.8582
27622SOL     OW88185   4.266   8.703   9.827 -0.5885 -0.2402 -0.1483
27622SOL    HW188186   4.206   8.777   9.819 -1.0752 -0.5052  0.8694
27622SOL    HW288187   4.314   8.720   9.908 -1.0972 -1.3059  0.3926
27623SOL     OW88188   3.674  10.604   3.040 -0.3375  0.4489 -0.1749
27623SOL    HW188189   3.732  10.528   3.034 -0.4243  0.4560 -1.4281
27623SOL    HW288190   3.661  10.617   3.134  0.5524 -0.4138  0.0870
27624SOL     OW88191   4.280   8.062   8.782 -0.1627  0.3711  0.2564
27624SOL    HW188192   4.238   8.040   8.698 -1.1702  0.6663  0.6703
27624SOL    HW288193   4.243   8.147   8.805  1.8437  1.4037 -0.1158
27625SOL     OW88194   5.797  10.594   6.021 -0.5134 -0.1209  0.7415
27625SOL    HW188195   5.767  10.525   6.079  1.0184 -0.6486  0.9586
27625SOL    HW288196   5.876  10.629   6.063  0.0530  0.1760 -0.5097
27626SOL     OW88197   3.263   9.023   9.101  0.6387  0.5551  0.0783
27626SOL    HW188198   3.186   9.073   9.125  0.6778  0.4850  0.3514
27626SOL    HW288199   3.333   9.059   9.155  0.7280  0.4061  0.0640
27627SOL     OW88200   5.430   7.891   4.738  0.0785  1.0803  0.3206
27627SOL    HW188201   5.417   7.812   4.791 -1.7219  0.9592 -0.2307
27627SOL    HW288202   5.512   7.875   4.690  0.9426  0.5593  1.9181
27628SOL     OW88203   3.627   7.726   4.449  0.0041 -0.6926  0.5901
27628SOL    HW188204   3.717   7.703   4.472 -0.3742 -0.2676  2.7815
27628SOL    HW288205   3.576   7.647   4.470 -0.1427 -0.9768 -0.7567
27629SOL     OW88206   2.887   2.898   2.487  0.1016 -0.2766 -0.3489
27629SOL    HW188207   2.847   2.977   2.450 -0.9153 -1.0850 -1.0601
27629SOL    HW288208   2.928   2.927   2.568  1.3421  1.3163 -1.5096
27630SOL     OW88209  10.714   9.536   8.208 -0.0056  0.2826 -0.5260
27630SOL    HW188210  10.792   9.522   8.262  0.6406  1.0945 -1.2065
27630SOL    HW288211  10.654   9.586   8.264 -0.4319 -1.1380  0.3139
27631SOL     OW88212   4.388   7.483   6.321 -0.4311 -0.1966  0.6423
27631SOL    HW188213   4.440   7.472   6.241 -0.1367  1.1481  0.6172
27631SOL    HW288214   4.300   7.505   6.291  0.4385  4.0733  0.4877
27632SOL     OW88215   5.508   6.177   4.458 -0.4048  0.0838  0.3421
27632SOL    HW188216   5.508   6.173   4.554 -0.7787 -1.6089  0.3146
27632SOL    HW288217   5.568   6.107   4.431 -0.6780  0.2182 -0.6607
27633SOL     OW88218  11.630   9.728   3.248 -0.0364 -0.4171  0.4485
27633SOL    HW188219  11.539   9.745   3.272  0.1483 -1.6099  2.2053
27633SOL    HW288220  11.681   9.764   3.321  0.8881 -0.1196 -0.3261
27634SOL     OW88221   8.857   3.600   3.213  0.1642  0.3162 -0.5059
27634SOL    HW188222   8.913   3.632   3.142 -0.3491 -0.3310 -1.2084
27634SOL    HW288223   8.917   3.592   3.288  0.5195  1.8839 -0.5846
27635SOL     OW88224   2.602   5.661   5.787 -0.5443  0.0818  0.1117
27635SOL    HW188225   2.667   5.731   5.777 -1.0124  0.4800 -0.2379
27635SOL    HW288226   2.646   5.582   5.758 -0.0264  0.2399  0.4480
27636SOL     OW88227   2.952   1.120   5.014  0.5681  0.1819 -0.6179
27636SOL    HW188228   3.026   1.163   5.056  0.2475 -0.4144  0.5832
27636SOL    HW288229   2.897   1.193   4.984  1.3475  0.6221 -1.0370
27637SOL     OW88230   4.808   8.106   9.568 -0.1515  0.3430  0.1639
27637SOL    HW188231   4.822   8.034   9.506  0.8961  2.2687 -1.9696
27637SOL    HW288232   4.713   8.109   9.579 -0.6526  1.3151 -3.2337
27638SOL     OW88233   9.706  10.192   6.559 -0.5619  0.3028  0.0434
27638SOL    HW188234   9.732  10.101   6.561 -1.9379 -0.1006  1.0038
27638SOL    HW288235   9.660  10.202   6.475 -0.5284  0.0834 -0.0002
27639SOL     OW88236   5.485   7.594   8.341 -0.0157  0.3029 -0.3006
27639SOL    HW188237   5.404   7.543   8.340  0.0256  0.0772  1.8901
27639SOL    HW288238   5.549   7.535   8.381  1.0347  0.7647 -1.2475
27640SOL     OW88239   5.876  10.713   3.628  0.9722  0.2854 -0.1485
27640SOL    HW188240   5.896  10.746   3.715 -0.0294  1.8213 -0.4529
27640SOL    HW288241   5.858  10.792   3.576  0.1862 -0.6574 -1.3761
27641SOL     OW88242   0.548   8.545   7.614  0.5219 -0.3659 -0.5388
27641SOL    HW188243   0.585   8.616   7.667  0.5216 -1.5683  1.1565
27641SOL    HW288244   0.624   8.491   7.591  0.2955 -0.8152 -0.2322
27642SOL     OW88245   2.660   4.206   3.441 -0.0027 -0.3316  0.1465
27642SOL    HW188246   2.571   4.181   3.415 -0.2963  0.8373 -0.0594
27642SOL    HW288247   2.650   4.233   3.533 -0.1667  1.1261 -0.2737
27643SOL     OW88248  10.700   4.256   6.589 -0.5199  0.3954 -0.3673
27643SOL    HW188249  10.686   4.351   6.583 -2.5062  0.0493 -2.2610
27643SOL    HW288250  10.617   4.222   6.623  0.4004 -0.6476  0.9195
27644SOL     OW88251   7.825   7.858  10.661  0.3846  0.1648 -0.3041
27644SOL    HW188252   7.864   7.885  10.744 -0.1666  0.3950 -0.1175
27644SOL    HW288253   7.738   7.827  10.684  1.3002 -2.7334 -0.3664
27645SOL     OW88254  10.422   1.784   4.914 -0.5606  0.6737 -0.2414
27645SOL    HW188255  10.445   1.875   4.897 -2.8618  1.5242  0.8410
27645SOL    HW288256  10.452   1.737   4.836  1.1463  2.2390 -0.5919
27646SOL     OW88257   4.021   0.664   6.731  0.1409 -0.0941  0.0433
27646SOL    HW188258   4.090   0.692   6.791 -1.1359  0.1212  1.4801
27646SOL    HW288259   3.982   0.745   6.699 -0.1480 -0.2065  0.0994
27647SOL     OW88260  11.208   5.784   7.184  0.2692  0.3246 -0.1848
27647SOL    HW188261  11.208   5.744   7.271  0.4743 -0.8298 -0.6858
27647SOL    HW288262  11.234   5.712   7.125 -1.4592  0.6299 -1.3957
27648SOL     OW88263   9.993   6.872   6.738  0.3659 -0.4663 -0.0628
27648SOL    HW188264   9.976   6.909   6.651  1.0113  0.8437  0.3597
27648SOL    HW288265  10.014   6.947   6.793 -2.6222 -0.8991  1.9210
27649SOL     OW88266   6.277   2.841   9.610 -0.1303  0.1007 -0.3032
27649SOL    HW188267   6.268   2.746   9.598 -2.4495 -0.0280  1.6372
27649SOL    HW288268   6.295   2.852   9.703 -0.1755  1.5971 -0.4500
27650SOL     OW88269   0.032  10.154   4.336 -0.6722 -0.0386 -0.1311
27650SOL    HW188270   0.027  10.247   4.356  2.1042  0.3331 -0.7386
27650SOL    HW288271   0.097  10.119   4.398  2.1155 -0.4519 -3.0234
27651SOL     OW88272   8.868   4.627   0.979  0.3144  0.4365 -0.3086
27651SOL    HW188273   8.949   4.592   0.943  0.4900 -0.9968  1.3584
27651SOL    HW288274   8.895   4.682   1.052 -0.1092  2.0518 -1.3318
27652SOL     OW88275   8.101   0.570   7.376  0.1540  0.3829 -0.2541
27652SOL    HW188276   8.176   0.624   7.400  1.2355 -0.6038 -1.2469
27652SOL    HW288277   8.069   0.607   7.294  0.2777  0.1319 -0.4196
27653SOL     OW88278   5.471   4.236  10.676 -0.0769 -0.7031 -0.3202
27653SOL    HW188279   5.562   4.206  10.677  0.1891  0.0899  0.4879
27653SOL    HW288280   5.473   4.316  10.623 -0.3775 -0.9021 -0.6329
27654SOL     OW88281   2.521   1.586   9.723 -0.2979 -0.3081 -0.1653
27654SOL    HW188282   2.455   1.517   9.736  0.1021 -0.5449  0.6739
27654SOL    HW288283   2.509   1.613   9.632 -0.7285 -1.2060 -0.3916
27655SOL     OW88284   8.387   0.391   3.019  0.1289 -0.4717  0.0873
27655SOL    HW188285   8.307   0.411   2.971  0.0411  0.6673  0.6632
27655SOL    HW288286   8.381   0.445   3.098  0.5069 -1.8941  1.1343
27656SOL     OW88287   3.428  10.233   2.157  0.1821 -0.2756 -0.0605
27656SOL    HW188288   3.350  10.197   2.114 -1.5593  1.7330  1.1760
27656SOL    HW288289   3.465  10.159   2.205 -1.7013 -1.0532  0.2974
27657SOL     OW88290   2.257  11.184  10.928  0.4555  0.3132  0.4658
27657SOL    HW188291   2.300  11.191  11.013  0.9962 -1.8486  0.4257
27657SOL    HW288292   2.167  11.157  10.948  0.8034 -0.9931  0.3623
27658SOL     OW88293   3.309   8.433   7.052  0.1990  0.0088  0.2027
27658SOL    HW188294   3.249   8.505   7.073 -0.0448 -0.2270  0.3302
27658SOL    HW288295   3.372   8.471   6.991 -1.0022 -0.1273 -1.1688
27659SOL     OW88296   0.478  10.502   4.587  0.3934  0.1390  0.0189
27659SOL    HW188297   0.546  10.551   4.633  1.5791 -1.1318 -0.2931
27659SOL    HW288298   0.490  10.411   4.616 -2.1181  0.0562  1.0575
27660SOL     OW88299   7.842   6.649   7.495  0.0475 -0.1917  0.5419
27660SOL    HW188300   7.841   6.628   7.589  1.0329  0.2525  0.6684
27660SOL    HW288301   7.922   6.608   7.463  0.3234  0.6400  0.1363
27661SOL     OW88302   2.911   3.444   6.777  0.1156 -0.1316 -0.2326
27661SOL    HW188303   3.005   3.443   6.798 -0.2924  0.3519  1.8281
27661SOL    HW288304   2.901   3.373   6.713  2.1164  0.8560 -1.7549
27662SOL     OW88305  11.525   8.141   8.708 -0.2682 -0.4955 -0.1457
27662SOL    HW188306  11.468   8.065   8.699 -3.0804  1.5536 -1.2157
27662SOL    HW288307  11.466   8.213   8.730  2.2781  1.3796  1.0892
27663SOL     OW88308   0.640   6.990   6.802 -0.8730  0.0248 -0.3313
27663SOL    HW188309   0.701   6.948   6.741 -1.3876 -1.6071  0.2151
27663SOL    HW288310   0.565   7.014   6.748 -1.1140 -0.9569 -0.4624
27664SOL     OW88311   6.429   2.595   3.887 -0.5946 -0.1451  0.1392
27664SOL    HW188312   6.448   2.504   3.862  1.6318 -0.0074  1.0521
27664SOL    HW288313   6.382   2.586   3.970  1.2735 -0.5268  1.2304
27665SOL     OW88314   5.080   4.559   4.138  0.3480 -0.0316  0.0152
27665SOL    HW188315   5.018   4.511   4.083  0.9248  0.9688 -1.5482
27665SOL    HW288316   5.160   4.506   4.136  0.1737 -0.3208  0.4404
27666SOL     OW88317   8.048  10.955   3.013  0.2480 -0.0740  0.3793
27666SOL    HW188318   7.961  10.983   2.986  0.3229 -0.4039 -0.2114
27666SOL    HW288319   8.068  11.010   3.089 -0.0731  0.6725 -0.0683
27667SOL     OW88320   6.351   0.340   7.194 -0.7359 -0.1724  0.3434
27667SOL    HW188321   6.286   0.410   7.191 -1.1102 -0.4453  1.6864
27667SOL    HW288322   6.368   0.327   7.287 -0.1593 -1.3915  0.0813
27668SOL     OW88323   2.606   5.819   3.175 -0.1081  0.1859 -0.0196
27668SOL    HW188324   2.693   5.824   3.135  1.2784 -0.6654  2.6548
27668SOL    HW288325   2.568   5.738   3.141  0.4994  0.1182 -0.5433
27669SOL     OW88326   6.146   3.438   3.678 -0.1718 -0.1747 -0.2958
27669SOL    HW188327   6.234   3.408   3.704 -0.6600 -0.7881  0.7486
27669SOL    HW288328   6.142   3.529   3.707  0.0533 -0.2075 -0.1560
27670SOL     OW88329   2.313  10.727   4.763  0.5627  0.1382  0.5904
27670SOL    HW188330   2.393  10.779   4.756 -0.2285  1.5129  1.4298
27670SOL    HW288331   2.250  10.785   4.806 -0.9339 -0.8719 -0.1711
27671SOL     OW88332   6.339   6.971   9.219 -0.1154 -0.3501 -0.2786
27671SOL    HW188333   6.318   6.890   9.173 -0.2671 -0.2387 -0.4059
27671SOL    HW288334   6.259   6.992   9.268  0.3394 -0.9372  0.7343
27672SOL     OW88335   3.633   4.171   4.069  0.1726 -0.2900 -0.0336
27672SOL    HW188336   3.607   4.097   4.014 -2.0875  0.3747  0.0217
27672SOL    HW288337   3.696   4.219   4.016  0.9045 -1.6697 -0.4812
27673SOL     OW88338  11.378   2.909   8.072 -0.1477  0.3659 -0.3623
27673SOL    HW188339  11.402   2.970   8.002  0.2002  1.4199  0.6338
27673SOL    HW288340  11.287   2.931   8.093  0.0785  0.7763  0.2150
27674SOL     OW88341   3.223   6.479   3.300  0.3082 -0.2660  0.2961
27674SOL    HW188342   3.226   6.387   3.274 -1.1904 -0.2095 -0.1683
27674SOL    HW288343   3.274   6.524   3.233 -0.2600 -0.5885 -0.3672
27675SOL     OW88344   0.408   2.816   5.555  0.4951 -0.4133 -0.2618
27675SOL    HW188345   0.323   2.857   5.572 -0.0121 -1.7775  0.6162
27675SOL    HW288346   0.463   2.844   5.629  0.9299  0.7217 -0.9900
27676SOL     OW88347   5.563   1.003   2.263 -0.9561 -0.1494 -0.0629
27676SOL    HW188348   5.643   0.985   2.213 -1.7187 -1.5828 -0.8484
27676SOL    HW288349   5.577   0.959   2.347 -0.4249  0.6855  0.2998
27677SOL     OW88350   2.280   2.567   1.142 -0.0853  1.1511 -0.3563
27677SOL    HW188351   2.228   2.640   1.175 -2.9080 -1.0037  0.3851
27677SOL    HW288352   2.366   2.579   1.182 -1.1142  2.8667  1.5483
27678SOL     OW88353   2.137   9.500   2.699 -0.1478  0.6583 -0.6916
27678SOL    HW188354   2.189   9.459   2.630  2.1906  1.6103  0.4123
27678SOL    HW288355   2.153   9.447   2.777 -1.2762  0.6644 -0.4369
27679SOL     OW88356   1.731   2.551   3.568 -0.0305  0.2076  0.0854
27679SOL    HW188357   1.669   2.517   3.503  0.3649  2.8461 -1.8137
27679SOL    HW288358   1.803   2.489   3.568  0.1849  0.3831 -2.4256
27680SOL     OW88359   0.904   9.027  11.722  0.7442 -0.1825 -0.0176
27680SOL    HW188360   0.984   9.019  11.670  1.7351  0.8673  1.2447
27680SOL    HW288361   0.927   9.091  11.789 -1.4622  0.7993 -0.1428
27681SOL     OW88362   5.215  11.391   5.061 -0.2914  0.2782 -0.4610
27681SOL    HW188363   5.165  11.447   5.002 -0.3419  0.3077 -0.3904
27681SOL    HW288364   5.177  11.407   5.148  1.0406  1.6835 -0.0964
27682SOL     OW88365   3.898  11.166   1.293 -0.1432  0.0026 -0.2308
27682SOL    HW188366   3.976  11.215   1.267  0.0342 -0.4208 -0.5053
27682SOL    HW288367   3.886  11.102   1.224 -0.7834  0.1154 -0.2254
27683SOL     OW88368   5.065   8.495   0.389 -0.4157  0.3948  0.3388
27683SOL    HW188369   5.080   8.571   0.446 -1.9118  0.9574  0.0310
27683SOL    HW288370   4.986   8.518   0.339 -0.9452 -1.4059  0.2981
27684SOL     OW88371   3.601   7.250   0.533 -0.0616 -0.1619  0.4557
27684SOL    HW188372   3.517   7.283   0.500  0.0171 -1.4832 -1.1980
27684SOL    HW288373   3.613   7.296   0.616 -0.5879  2.8416 -0.9929
27685SOL     OW88374   4.383  11.051  11.009  0.2151 -0.2675  0.4961
27685SOL    HW188375   4.389  10.998  11.089 -0.6393 -0.9414  0.1379
27685SOL    HW288376   4.326  11.000  10.951 -1.5177  1.5145  0.5125
27686SOL     OW88377   4.070   0.435   4.016  0.0447 -0.1484 -0.5899
27686SOL    HW188378   4.152   0.411   3.974 -0.5801 -1.0227 -1.3435
27686SOL    HW288379   4.077   0.399   4.105  0.4500 -0.2718 -0.6692
27687SOL     OW88380   2.024   9.469   7.322 -0.0787  0.5523  0.6129
27687SOL    HW188381   2.086   9.541   7.310  2.1956 -1.4748 -0.7120
27687SOL    HW288382   2.018   9.428   7.236  0.0009 -1.8091  1.6667
27688SOL     OW88383   9.866   6.900   8.662  0.0348 -0.2172 -0.5024
27688SOL    HW188384   9.782   6.896   8.707  0.7072  0.3136  0.8647
27688SOL    HW288385   9.904   6.813   8.673  0.1494 -0.1211 -0.1364
27689SOL     OW88386   5.675   2.639  11.730 -0.1153 -0.0384  0.1986
27689SOL    HW188387   5.769   2.637  11.750  0.1671  0.7262 -0.9465
27689SOL    HW288388   5.671   2.672  11.640 -1.5562  1.3403  0.7286
27690SOL     OW88389  11.662   9.748   5.980  0.6342  0.0025 -0.2023
27690SOL    HW188390  11.664   9.658   6.011  4.1250 -0.6275 -1.7064
27690SOL    HW288391  11.726   9.794   6.035  1.3680  0.6691 -1.5264
27691SOL     OW88392   0.208   1.061   8.080 -0.1344 -0.5561  0.2707
27691SOL    HW188393   0.136   1.103   8.126  1.2746  0.6857  1.4376
27691SOL    HW288394   0.166   0.992   8.028 -2.3160  1.0701 -0.2774
27692SOL     OW88395   3.597   2.310   9.000 -0.4968  0.3111  0.4522
27692SOL    HW188396   3.515   2.278   8.963  0.3027 -2.9766  1.1369
27692SOL    HW288397   3.581   2.315   9.094 -0.2246  0.7180  0.4794
27693SOL     OW88398   7.042   4.602   7.146 -0.1258 -0.6448 -0.0891
27693SOL    HW188399   7.014   4.694   7.140 -0.6917 -0.8509 -0.8090
27693SOL    HW288400   7.134   4.606   7.170 -0.1404  0.1159 -0.1389
27694SOL     OW88401  11.088   2.279  11.206  0.1676  0.3679 -0.4700
27694SOL    HW188402  10.993   2.284  11.204  0.1408  0.2978 -2.7005
27694SOL    HW288403  11.117   2.370  11.219 -0.2089  0.5048 -0.5868
27695SOL     OW88404   5.279   8.726   0.310  0.4540 -0.1785 -0.6483
27695SOL    HW188405   5.272   8.809   0.263  0.9771  0.3088  0.1061
27695SOL    HW288406   5.304   8.751   0.399  0.9748 -1.1645 -0.5011
27696SOL     OW88407   1.603   5.509   6.595 -0.4329 -0.0253 -0.5046
27696SOL    HW188408   1.661   5.577   6.628  2.1638 -2.5174  0.5207
27696SOL    HW288409   1.546   5.488   6.669  1.4510 -1.5747  0.6029
27697SOL     OW88410   9.717  11.191  11.802  0.0741 -0.0291  0.1856
27697SOL    HW188411   9.734  11.271  11.853  1.3071  0.1811 -0.5094
27697SOL    HW288412   9.709  11.222  11.712  1.5629 -0.7832 -0.2263
27698SOL     OW88413   2.964   3.266   9.292 -0.2785  0.6424  0.0590
27698SOL    HW188414   2.951   3.360   9.280  2.0036  0.9000 -0.9600
27698SOL    HW288415   3.046   3.260   9.342 -0.1390 -0.7901 -0.3126
27699SOL     OW88416   5.120   2.849   8.394  0.6703  0.0485  0.0591
27699SOL    HW188417   5.070   2.819   8.470  1.8611 -2.4988 -0.0792
27699SOL    HW288418   5.197   2.792   8.391  1.1279  0.6707 -2.5465
27700SOL     OW88419   5.127   2.565   4.021 -0.4375 -0.2134 -0.2104
27700SOL    HW188420   5.173   2.569   3.937  1.3008 -0.6460  0.6711
27700SOL    HW288421   5.145   2.476   4.053 -1.2863 -0.1375  0.5005
27701SOL     OW88422   7.450   9.032   2.658 -0.1714  0.0045  0.0825
27701SOL    HW188423   7.460   8.936   2.659  0.3921  0.0646  0.5504
27701SOL    HW288424   7.524   9.063   2.608 -0.4981  0.1860 -0.2911
27702SOL     OW88425   7.813  10.653   6.205 -0.1708 -0.0996  0.2679
27702SOL    HW188426   7.799  10.559   6.188 -1.0233 -0.3009  1.8291
27702SOL    HW288427   7.798  10.695   6.121  1.6665 -1.4696 -0.8267
27703SOL     OW88428   8.838   6.648   0.776  0.5814  0.9293  0.6887
27703SOL    HW188429   8.832   6.647   0.871 -0.5958  1.1970  0.6290
27703SOL    HW288430   8.874   6.562   0.753  1.9148  1.2639  1.4158
27704SOL     OW88431   3.836   5.560   3.593 -0.2768  0.3687  0.1357
27704SOL    HW188432   3.930   5.553   3.578 -0.0140  0.8056  1.3876
27704SOL    HW288433   3.797   5.562   3.506  0.8400 -0.1488 -0.3974
27705SOL     OW88434   5.798   7.836  11.528 -0.3001 -0.5469  0.3059
27705SOL    HW188435   5.756   7.767  11.477 -1.5431  0.5981 -0.2746
27705SOL    HW288436   5.728   7.871  11.583  0.7430 -0.9575  1.9626
27706SOL     OW88437   7.866   6.171   1.368  0.4663 -0.2767  0.0202
27706SOL    HW188438   7.944   6.122   1.342  0.7539  0.1331  0.0950
27706SOL    HW288439   7.874   6.254   1.322 -0.6765 -0.7757 -1.1397
27707SOL     OW88440   2.171   0.756   3.059  0.0639  0.1797  0.3823
27707SOL    HW188441   2.168   0.810   2.980  1.5338  2.3234  1.6816
27707SOL    HW288442   2.094   0.782   3.109 -0.5898 -0.8103 -0.0696
27708SOL     OW88443   2.251   0.187   6.340 -0.0566 -0.1687  0.3481
27708SOL    HW188444   2.166   0.231   6.350 -0.0413 -0.3560  1.4033
27708SOL    HW288445   2.293   0.232   6.267 -0.4551  0.8971  0.7651
27709SOL     OW88446   3.536   7.454   1.407  0.3047  0.0481 -0.2314
27709SOL    HW188447   3.603   7.413   1.353  0.8746 -1.8981  1.8154
27709SOL    HW288448   3.491   7.381   1.450 -0.3516  1.4624  1.6350
27710SOL     OW88449   9.812   7.352   5.062  0.6316  0.1277  0.3090
27710SOL    HW188450   9.743   7.290   5.039 -0.5111  1.0780  1.0778
27710SOL    HW288451   9.832   7.333   5.154  2.2728 -0.9188 -0.2050
27711SOL     OW88452   0.582  11.813   6.771 -0.6241  0.4799  0.3332
27711SOL    HW188453   0.606  11.900   6.803 -0.9213  0.9202 -0.6061
27711SOL    HW288454   0.654  11.789   6.711 -0.0252 -0.3721  1.3677
27712SOL     OW88455   4.046   3.682  10.165  0.1690 -0.3639  0.3011
27712SOL    HW188456   3.956   3.650  10.157 -0.0603  0.2726  0.2061
27712SOL    HW288457   4.044   3.768  10.122  1.2559 -1.1044 -1.3629
27713SOL     OW88458   3.304  10.911  10.447 -0.6575  0.1061  0.1960
27713SOL    HW188459   3.330  10.836  10.394  0.4223  1.2144 -0.9239
27713SOL    HW288460   3.210  10.920  10.433 -0.4251  0.2495 -1.3982
27714SOL     OW88461  10.383   0.230   7.314  0.5264 -0.3851 -0.2094
27714SOL    HW188462  10.465   0.180   7.307  0.5872 -0.1488 -6.2476
27714SOL    HW288463  10.316   0.171   7.280 -0.7685  1.2397 -0.6183
27715SOL     OW88464   0.151   4.589   7.018 -0.2484 -0.0468 -0.0308
27715SOL    HW188465   0.233   4.578   7.066 -0.4403  0.4443  0.4192
27715SOL    HW288466   0.083   4.586   7.086 -0.4645  1.6489 -0.1312
27716SOL     OW88467  11.073   9.405   9.404  0.5855 -0.2963 -0.1624
27716SOL    HW188468  11.059   9.435   9.314 -1.7933  0.1432  0.3016
27716SOL    HW288469  11.083   9.485   9.455  0.0936 -0.4749  0.2206
27717SOL     OW88470   1.268   1.252   9.977  0.2429 -0.0451  0.4797
27717SOL    HW188471   1.318   1.276  10.055 -0.4653  0.9586  0.6549
27717SOL    HW288472   1.245   1.336   9.937 -0.8348 -0.4878  0.1203
27718SOL     OW88473   0.884  10.503   2.712 -0.5891 -0.2429  0.1058
27718SOL    HW188474   0.919  10.591   2.727  0.2155 -0.3838 -0.7872
27718SOL    HW288475   0.826  10.513   2.637 -1.1783 -0.3219  0.5472
27719SOL     OW88476   8.141   4.740   0.653  0.2530  0.0560 -0.2602
27719SOL    HW188477   8.100   4.657   0.677  0.8439 -0.3694 -0.6939
27719SOL    HW288478   8.167   4.729   0.562  0.8474  0.5071 -0.1528
27720SOL     OW88479  10.418   2.027   9.078  0.2209 -0.2099 -0.1230
27720SOL    HW188480  10.481   1.955   9.085 -0.3569 -0.6567  0.6004
27720SOL    HW288481  10.412   2.062   9.167 -0.4013 -0.0393 -0.2299
27721SOL     OW88482   9.746   3.243   6.602  0.2573  0.2698 -0.1804
27721SOL    HW188483   9.715   3.153   6.596  0.1759  0.0277  2.5252
27721SOL    HW288484   9.841   3.237   6.589  0.7042 -0.7261  2.8448
27722SOL     OW88485  11.145  10.535   1.081 -0.2213 -0.0304  0.1233
27722SOL    HW188486  11.176  10.480   1.008 -0.1728 -0.1182  0.2097
27722SOL    HW288487  11.154  10.624   1.049 -1.8154 -0.1077 -0.6386
27723SOL     OW88488   5.595   5.876   8.371  0.1881 -0.2986  0.4982
27723SOL    HW188489   5.640   5.958   8.353 -0.1906 -0.3808 -0.9168
27723SOL    HW288490   5.505   5.902   8.394  0.3946 -0.2609  1.3115
27724SOL     OW88491   4.268   8.389   9.891  0.3956 -0.7804  0.0911
27724SOL    HW188492   4.270   8.470   9.840  0.7381 -1.5705 -1.1721
27724SOL    HW288493   4.198   8.338   9.852 -1.0916 -0.3747  2.0767
27725SOL     OW88494   3.234   8.844  10.876  0.5347  0.3991 -1.0605
27725SOL    HW188495   3.186   8.857  10.958  1.7640 -0.2809 -0.1939
27725SOL    HW288496   3.178   8.883  10.809 -1.9769 -1.7026 -0.3497
27726SOL     OW88497   4.810   0.676   5.349 -0.1191  0.4478 -0.3444
27726SOL    HW188498   4.820   0.641   5.438 -3.9781  1.2660  0.6115
27726SOL    HW288499   4.829   0.603   5.292  2.0287 -0.2349  1.1243
27727SOL     OW88500   2.998  10.669   7.872 -0.1323 -0.2242 -0.0644
27727SOL    HW188501   2.915  10.620   7.867  0.0436 -0.6311  0.8103
27727SOL    HW288502   3.063  10.602   7.895  0.5537 -0.0179 -1.3146
27728SOL     OW88503   5.490   3.187   5.439  0.1029  0.3125 -0.2292
27728SOL    HW188504   5.478   3.239   5.518 -2.4769 -0.9606  0.2925
27728SOL    HW288505   5.444   3.235   5.371  2.1149  1.2821 -0.9843
27729SOL     OW88506   2.828  10.040   0.284 -0.4496  0.1473 -0.0913
27729SOL    HW188507   2.807  10.092   0.206  1.1908  0.1336 -0.5684
27729SOL    HW288508   2.871  10.102   0.343 -2.6520  0.4458  1.3295
27730SOL     OW88509   9.401   3.027   2.233  0.3301 -0.0076 -0.1535
27730SOL    HW188510   9.384   2.949   2.286  0.4394 -0.3263 -0.5794
27730SOL    HW288511   9.493   3.021   2.210  0.0812 -0.3544 -1.1316
27731SOL     OW88512   9.670  11.800   7.763  0.2840 -0.6965 -0.2514
27731SOL    HW188513   9.747  11.855   7.775 -0.0973  0.2668 -1.8465
27731SOL    HW288514   9.701  11.725   7.712  0.2615 -0.5569 -0.4699
27732SOL     OW88515   0.827  11.653  10.960  0.4162  0.1031 -0.2494
27732SOL    HW188516   0.898  11.616  10.908 -0.4121  1.4489 -2.4675
27732SOL    HW288517   0.769  11.579  10.978  1.1864 -0.5597 -0.4473
27733SOL     OW88518   6.583   2.462   4.625  0.1159 -0.1381  0.0774
27733SOL    HW188519   6.488   2.460   4.639  0.2589 -0.3020  1.0949
27733SOL    HW288520   6.605   2.555   4.618 -0.1854 -0.1178 -0.7075
27734SOL     OW88521   9.693   1.764   8.698  0.4682  0.4077 -0.4309
27734SOL    HW188522   9.726   1.708   8.768  1.3308  1.0758 -0.2875
27734SOL    HW288523   9.650   1.703   8.637 -1.1115 -0.0879  1.1082
27735SOL     OW88524   4.619   7.597   4.736  0.4395 -0.3199  0.0185
27735SOL    HW188525   4.596   7.559   4.821 -2.1852 -2.0054 -1.3012
27735SOL    HW288526   4.551   7.662   4.719  1.1837  0.3201 -0.6440
27736SOL     OW88527   5.773  11.024   5.138 -0.5415 -0.7587  0.2601
27736SOL    HW188528   5.764  11.119   5.138  1.8011 -0.4370  1.9280
27736SOL    HW288529   5.851  11.007   5.191 -0.8169 -3.6212 -0.0594
27737SOL     OW88530   8.150   6.986   1.272 -0.1178 -0.0811 -0.2037
27737SOL    HW188531   8.157   7.036   1.190  1.6814 -0.1943 -0.1595
27737SOL    HW288532   8.062   6.948   1.269 -0.1316 -0.0142 -2.0597
27738SOL     OW88533   1.117  11.408   8.042  0.6636  0.3424 -0.3355
27738SOL    HW188534   1.165  11.407   7.960  0.4617 -1.1289 -0.4741
27738SOL    HW288535   1.117  11.316   8.070  0.2210  0.7323  1.0028
27739SOL     OW88536   6.370   2.190   7.948 -0.6903  0.0367  0.5557
27739SOL    HW188537   6.346   2.281   7.966 -1.2161 -0.1427  0.7794
27739SOL    HW288538   6.430   2.195   7.873  0.4165  0.6840  1.4462
27740SOL     OW88539  10.720   1.582   5.187 -0.2048  0.6472 -0.4102
27740SOL    HW188540  10.780   1.592   5.261 -0.8918 -0.1740  0.2760
27740SOL    HW288541  10.651   1.647   5.203 -1.2346 -0.6331  0.5921
27741SOL     OW88542   3.970   3.009  10.284 -0.3198 -0.3404 -0.0427
27741SOL    HW188543   4.002   2.971  10.202  1.4332 -1.0582  0.9076
27741SOL    HW288544   4.046   3.007  10.342 -1.9736 -1.6654  2.2497
27742SOL     OW88545   0.676   4.531  10.148 -0.5488  0.6192 -0.2873
27742SOL    HW188546   0.692   4.440  10.172  1.4908  0.7954 -0.7511
27742SOL    HW288547   0.633   4.526  10.063 -1.9642  0.0997  0.4274
27743SOL     OW88548   1.151   6.249   0.675  0.5822 -0.0170 -0.5733
27743SOL    HW188549   1.081   6.195   0.639  1.5372 -2.5628  1.1657
27743SOL    HW288550   1.115   6.285   0.756  0.9010 -0.3930 -0.2633
27744SOL     OW88551   4.008   7.872   4.657  0.0019  0.2831 -0.3054
27744SOL    HW188552   3.933   7.896   4.604 -1.1110 -0.4283  0.8822
27744SOL    HW288553   4.045   7.795   4.613  0.4179  0.9974 -1.2248
27745SOL     OW88554   9.966  11.041   0.108 -0.9836  0.6103  0.1204
27745SOL    HW188555   9.897  11.048   0.042 -0.0085  1.4757 -0.8469
27745SOL    HW288556  10.033  10.985   0.068  1.1210  3.7151 -1.0990
27746SOL     OW88557   8.718   6.946   8.105  0.2223 -0.2899 -0.5819
27746SOL    HW188558   8.648   7.003   8.139  0.0589  0.4274 -2.0416
27746SOL    HW288559   8.727   6.878   8.171 -2.3387 -0.7954 -0.6478
27747SOL     OW88560   4.852   2.655   9.865 -0.3239  0.5555  0.3742
27747SOL    HW188561   4.829   2.626   9.953  1.0913  3.4460  1.8087
27747SOL    HW288562   4.905   2.583   9.829 -0.1783 -0.3064  2.2102
27748SOL     OW88563   0.150   2.522  11.334 -0.1805  0.1847  0.1921
27748SOL    HW188564   0.131   2.614  11.315 -0.9583  0.6529  2.8395
27748SOL    HW288565   0.083   2.473  11.286 -0.9494  1.1303  0.2773
27749SOL     OW88566   0.330   9.588   7.307  0.0484  0.1358 -0.3142
27749SOL    HW188567   0.309   9.521   7.241  4.3438 -0.9972 -0.8354
27749SOL    HW288568   0.293   9.554   7.388  1.8454 -2.9801 -0.6045
27750SOL     OW88569   8.123   9.822   4.609  0.2798  0.5857 -0.0479
27750SOL    HW188570   8.143   9.754   4.545 -0.0892 -0.3014  0.7493
27750SOL    HW288571   8.036   9.854   4.585  0.0304  0.0707  0.1609
27751SOL     OW88572   6.801   9.590   5.902  0.7250  0.2482 -0.3487
27751SOL    HW188573   6.876   9.591   5.962 -0.3866  1.9230  1.0844
27751SOL    HW288574   6.780   9.682   5.888 -1.6843 -0.1689  0.0932
27752SOL     OW88575   9.704   0.229   1.493 -0.2530  0.0820 -0.3257
27752SOL    HW188576   9.673   0.162   1.432  0.1560  0.1284 -0.5879
27752SOL    HW288577   9.708   0.185   1.578  3.3870 -1.3025 -1.0453
27753SOL     OW88578   8.607   8.742   2.539  0.1729  0.6095 -0.1065
27753SOL    HW188579   8.669   8.808   2.509  0.6049 -0.5601 -1.9163
27753SOL    HW288580   8.554   8.722   2.462 -0.3192 -0.7431  0.5539
27754SOL     OW88581   8.555   7.517   5.900 -0.2133  0.1717  0.3455
27754SOL    HW188582   8.644   7.543   5.922  0.0452  0.4256 -0.9694
27754SOL    HW288583   8.558   7.421   5.896 -0.1356  0.1508  0.8424
27755SOL     OW88584   5.066   8.255   3.792 -0.7852  0.1341  0.5424
27755SOL    HW188585   5.022   8.179   3.829 -0.9845 -1.2416 -2.2111
27755SOL    HW288586   5.006   8.287   3.724 -0.4288  2.4209  1.2269
27756SOL     OW88587   6.176  11.189   2.066 -0.3070 -0.1810  0.4420
27756SOL    HW188588   6.123  11.233   2.001 -0.5811 -1.9581 -0.6200
27756SOL    HW288589   6.263  11.229   2.057  0.0906 -1.3998 -2.1860
27757SOL     OW88590   0.149   8.198   9.856 -0.0403  0.0320  0.7220
27757SOL    HW188591   0.219   8.139   9.885 -0.9300 -1.3932  0.0701
27757SOL    HW288592   0.190   8.285   9.855  1.1207 -0.4534  2.3486
27758SOL     OW88593   5.600   6.965   0.632  0.4111  0.1280 -0.8583
27758SOL    HW188594   5.603   6.965   0.536  0.1129  1.0568 -0.8857
27758SOL    HW288595   5.670   6.907   0.659 -0.3930 -1.2712 -1.6567
27759SOL     OW88596   3.996   0.565   3.657  0.0078  0.4572 -0.2092
27759SOL    HW188597   3.923   0.545   3.598  0.0053 -0.9428  0.2458
27759SOL    HW288598   3.955   0.587   3.740  0.0863 -0.0898 -0.0222
27760SOL     OW88599  10.402   6.535   7.715  0.3686  0.2658  0.3852
27760SOL    HW188600  10.496   6.546   7.699  0.5254  2.5840  2.3050
27760SOL    HW288601  10.360   6.585   7.644  0.5258 -1.0966 -0.7031
27761SOL     OW88602  11.501   3.930   1.409  0.1105 -0.2672 -0.0627
27761SOL    HW188603  11.597   3.925   1.400 -0.0293 -0.9745 -1.4615
27761SOL    HW288604  11.472   3.839   1.407 -0.6274 -0.0432  0.0913
27762SOL     OW88605   4.436   1.864   4.161 -0.2633  0.4769  0.7219
27762SOL    HW188606   4.399   1.878   4.074 -0.5191  3.1139  1.1653
27762SOL    HW288607   4.364   1.831   4.213  0.2368 -2.5070 -0.3149
27763SOL     OW88608  11.314  11.485  10.788 -0.1009  0.2254  0.0805
27763SOL    HW188609  11.378  11.429  10.743 -0.1065  0.1231  0.1982
27763SOL    HW288610  11.245  11.425  10.816 -0.3444  0.3645 -0.2159
27764SOL     OW88611   6.197   1.884   5.255 -0.0138  0.1482 -0.1087
27764SOL    HW188612   6.212   1.904   5.348  0.2785  2.5321 -0.6130
27764SOL    HW288613   6.134   1.950   5.227 -0.4251 -0.8154 -1.5235
27765SOL     OW88614  10.149  10.312   0.574 -0.3608 -0.0136 -0.3957
27765SOL    HW188615  10.210  10.268   0.514  0.1260  1.2665 -0.8836
27765SOL    HW288616  10.064  10.306   0.531 -0.5894 -1.6780  0.2154
27766SOL     OW88617  11.821   4.925   2.737  0.1840 -0.1175  0.2940
27766SOL    HW188618  11.756   4.870   2.693 -1.4646  1.9360 -0.0047
27766SOL    HW288619  11.791   4.928   2.828  2.1378 -2.2823  1.0912
27767SOL     OW88620   1.855   4.196  10.488 -0.1460  0.1446 -0.2643
27767SOL    HW188621   1.935   4.243  10.509  0.1734 -0.6670  0.3877
27767SOL    HW288622   1.874   4.105  10.508 -0.8350 -0.2461 -1.2607
27768SOL     OW88623   7.817   2.375   9.889 -0.3573  0.0028  0.1321
27768SOL    HW188624   7.793   2.467   9.884  0.7536  0.3429  0.7229
27768SOL    HW288625   7.846   2.362   9.979 -0.2309 -0.8511 -0.0183
27769SOL     OW88626   6.844   4.534  10.284  0.0503  0.4352  0.1213
27769SOL    HW188627   6.875   4.572  10.201 -0.0840  0.4248  0.0655
27769SOL    HW288628   6.764   4.486  10.259 -1.1944  2.1688  0.6074
27770SOL     OW88629   6.212  10.253   1.746  0.5159  0.5380  0.3852
27770SOL    HW188630   6.260  10.203   1.811  1.1204  2.2182  1.2921
27770SOL    HW288631   6.279  10.298   1.695  0.0358 -0.4863 -1.2164
27771SOL     OW88632  11.605   8.532   9.686 -0.0193 -0.1785  0.5399
27771SOL    HW188633  11.674   8.591   9.718 -0.3917  0.2602  0.5463
27771SOL    HW288634  11.633   8.445   9.714 -0.1128  0.1404  1.6916
27772SOL     OW88635   8.741   1.706   7.065 -0.2707  0.3691  0.1243
27772SOL    HW188636   8.796   1.650   7.119  0.2222  0.7004 -0.0263
27772SOL    HW288637   8.736   1.789   7.113 -1.0261  0.1877  0.3647
27773SOL     OW88638  11.136   6.995   5.387  0.3422 -0.2602 -0.1754
27773SOL    HW188639  11.230   6.981   5.399  0.0284 -0.5161  2.5946
27773SOL    HW288640  11.097   6.908   5.397 -0.2147 -0.1343 -1.1750
27774SOL     OW88641   3.788   2.282   2.505  0.6878 -0.2347  0.2793
27774SOL    HW188642   3.875   2.318   2.488 -0.1539  2.0967  0.6064
27774SOL    HW288643   3.745   2.346   2.561 -1.9516 -0.2922 -1.4857
27775SOL     OW88644   5.452   9.155   6.429  0.2016  0.6081 -0.4463
27775SOL    HW188645   5.461   9.196   6.515 -0.0287 -0.9349  0.3575
27775SOL    HW288646   5.447   9.228   6.368 -0.2354  1.7663  0.9082
27776SOL     OW88647   6.220  10.405   3.113 -0.4324  0.2132 -0.0672
27776SOL    HW188648   6.134  10.363   3.119 -1.0777  1.2086 -1.7328
27776SOL    HW288649   6.282  10.334   3.128 -1.5305 -0.7042  0.2805
27777SOL     OW88650   7.006   0.421  10.961 -0.3349  0.8130  0.2535
27777SOL    HW188651   6.990   0.442  11.053 -0.6316 -2.9742  1.2476
27777SOL    HW288652   7.002   0.325  10.958  0.8620  0.7371 -3.5129
27778SOL     OW88653   3.928   9.817   3.993  0.5264  0.1863  0.3041
27778SOL    HW188654   3.851   9.807   4.049  0.5889 -1.2914  0.1840
27778SOL    HW288655   4.002   9.796   4.050  0.8225  1.2609  0.3317
27779SOL     OW88656  10.018  10.312   3.773  0.0071  0.0613 -0.4057
27779SOL    HW188657   9.975  10.228   3.786 -0.1466  0.0485 -0.9823
27779SOL    HW288658  10.009  10.330   3.679 -3.8718  2.7780  0.2074
27780SOL     OW88659   1.635   6.369   8.683 -0.4794  0.1580 -0.1985
27780SOL    HW188660   1.704   6.395   8.622 -1.2275 -2.2916 -2.2593
27780SOL    HW288661   1.558   6.419   8.655 -0.5407 -0.1270 -0.5440
27781SOL     OW88662  11.422   2.929  10.141 -0.4195 -0.0870  0.0371
27781SOL    HW188663  11.425   2.970  10.227 -0.4226  0.4495 -0.2125
27781SOL    HW288664  11.513   2.923  10.113 -0.4078 -0.3901  0.1344
27782SOL     OW88665   0.057   7.864   3.790  0.3555 -0.0090 -0.5118
27782SOL    HW188666   0.088   7.801   3.725 -0.5717  1.6674 -2.7056
27782SOL    HW288667  -0.014   7.819   3.835 -1.1505 -0.1750 -2.9114
27783SOL     OW88668  11.613   9.018  10.101 -0.4362 -0.3546  0.0142
27783SOL    HW188669  11.654   9.033  10.186  1.0495 -1.2040 -0.5039
27783SOL    HW288670  11.670   9.063  10.039 -2.3960  1.6703 -0.4410
27784SOL     OW88671   3.720  10.513  10.151 -0.4009  0.2911 -0.0494
27784SOL    HW188672   3.729  10.421  10.124 -1.4559  0.5909 -1.5236
27784SOL    HW288673   3.734  10.511  10.246  0.3108 -1.2783 -0.1458
27785SOL     OW88674   1.527   4.603   6.943 -0.2498 -0.3005  0.1390
27785SOL    HW188675   1.493   4.651   7.018 -0.7482  0.6884 -0.6885
27785SOL    HW288676   1.454   4.599   6.881  0.5330  0.1018 -0.8440
27786SOL     OW88677   3.646   8.531   7.942 -0.1730  0.4468  0.4400
27786SOL    HW188678   3.645   8.472   8.017  0.4860  1.3016  1.1519
27786SOL    HW288679   3.739   8.542   7.923 -0.3263  0.5379 -0.2677
27787SOL     OW88680   1.707   2.055   1.352  0.3362 -0.3929  0.2209
27787SOL    HW188681   1.754   1.977   1.324 -0.3658 -0.5154 -0.6652
27787SOL    HW288682   1.744   2.077   1.437  0.9088 -1.3781  0.2326
27788SOL     OW88683   7.680   8.981   7.191  0.2382 -0.7793 -0.3101
27788SOL    HW188684   7.620   8.987   7.117  0.6574  0.4444 -0.5816
27788SOL    HW288685   7.758   8.938   7.156 -0.3222 -2.0611 -0.0417
27789SOL     OW88686  10.001   7.118   9.343  0.1710  0.2192 -0.1870
27789SOL    HW188687   9.933   7.055   9.320 -0.9577  1.3637 -0.0856
27789SOL    HW288688  10.073   7.064   9.377 -1.4045 -0.9533  1.5053
27790SOL     OW88689  11.149   5.833  10.283 -0.4083  0.1290 -0.2009
27790SOL    HW188690  11.209   5.906  10.274 -1.5785  0.8812 -3.1395
27790SOL    HW288691  11.163   5.801  10.372  0.4032  3.6833  1.1122
27791SOL     OW88692  11.167   0.551   8.925  0.2105 -0.2569  0.0210
27791SOL    HW188693  11.222   0.495   8.980 -0.0248 -2.0784 -1.5015
27791SOL    HW288694  11.171   0.511   8.838 -1.6567  0.9074 -0.6694
27792SOL     OW88695   0.557   5.294   6.683 -0.5703 -0.1333  0.3109
27792SOL    HW188696   0.588   5.320   6.770  2.1270  0.8337 -0.8284
27792SOL    HW288697   0.585   5.203   6.674  2.2547  0.7141 -0.6881
27793SOL     OW88698   0.617   4.009   2.934  0.7010  0.4622 -0.3491
27793SOL    HW188699   0.572   4.085   2.898  1.0886  0.8731  0.0276
27793SOL    HW288700   0.687   3.990   2.872  1.0735  0.8768 -0.0531
27794SOL     OW88701   6.785   1.895   0.457  0.1187 -0.2880 -0.0743
27794SOL    HW188702   6.756   1.985   0.440  1.3766  0.2491  0.5094
27794SOL    HW288703   6.724   1.841   0.407 -3.0361  0.6464  2.4283
27795SOL     OW88704   8.623   2.823   1.334  0.0954 -0.1344 -0.3341
27795SOL    HW188705   8.606   2.891   1.398  0.7700 -0.5112  0.2599
27795SOL    HW288706   8.715   2.801   1.346 -0.5543 -2.5420  0.8817
27796SOL     OW88707   4.638   4.478   7.175  0.3890 -0.5105  0.1292
27796SOL    HW188708   4.558   4.479   7.228 -0.3472  0.2798 -0.9638
27796SOL    HW288709   4.608   4.491   7.085  1.7896  0.2824 -0.2626
27797SOL     OW88710   6.332  11.778   3.188  0.2682 -0.3281 -0.2860
27797SOL    HW188711   6.331  11.864   3.145  0.8203  0.2932  0.8867
27797SOL    HW288712   6.240  11.753   3.195 -0.1486  1.5377  1.9553
27798SOL     OW88713   5.741   7.829   8.277 -0.0685  0.2243  0.7268
27798SOL    HW188714   5.745   7.746   8.229  3.8925  1.6196 -1.8578
27798SOL    HW288715   5.725   7.803   8.368 -0.3106 -3.2205 -0.1442
27799SOL     OW88716   1.800   4.765   2.755 -0.9482  0.1139  0.2784
27799SOL    HW188717   1.875   4.806   2.712 -1.0596  0.4652  0.4101
27799SOL    HW288718   1.837   4.690   2.801 -0.6322  0.4163  0.5306
27800SOL     OW88719   5.544   8.675  10.618 -0.2137  0.0636  0.3114
27800SOL    HW188720   5.547   8.770  10.609  0.2832 -0.0073 -0.3272
27800SOL    HW288721   5.629   8.645  10.586 -1.5459 -0.8381 -2.7952
27801SOL     OW88722   6.119   0.672   6.626 -0.1400  0.3757 -0.0427
27801SOL    HW188723   6.116   0.588   6.580 -0.2084  0.1102  0.4384
27801SOL    HW288724   6.027   0.694   6.640 -0.1230  0.5547 -0.2097
27802SOL     OW88725   7.426   6.031   4.597  0.4243  0.4843  0.0162
27802SOL    HW188726   7.521   6.040   4.602  0.4688  0.5801 -0.7668
27802SOL    HW288727   7.400   6.091   4.526 -0.1388 -0.0405 -0.2345
27803SOL     OW88728   9.535   2.510   8.514  0.1688 -0.2508  0.1087
27803SOL    HW188729   9.571   2.487   8.600 -0.9977  1.3363  1.0789
27803SOL    HW288730   9.486   2.432   8.487  0.2454 -0.6456  1.0613
27804SOL     OW88731  10.963   3.760   8.885 -0.7359  0.7417 -0.0133
27804SOL    HW188732  10.968   3.854   8.904 -0.6596  0.8114 -0.3767
27804SOL    HW288733  11.035   3.744   8.824 -0.8454  0.4763 -0.0721
27805SOL     OW88734   8.988   2.453   5.352  0.1029  0.7328  0.3365
27805SOL    HW188735   9.000   2.412   5.438  1.6423 -2.3566 -1.1629
27805SOL    HW288736   9.069   2.503   5.338  0.9579 -0.7167 -0.1854
27806SOL     OW88737   7.005  10.811   0.225  0.0193 -0.2359  0.1797
27806SOL    HW188738   6.999  10.798   0.320 -3.6131  1.0094  0.2928
27806SOL    HW288739   7.090  10.853   0.212  0.6921 -0.5598  2.8509
27807SOL     OW88740   5.384   4.809   9.549  0.6291 -0.0542 -0.1083
27807SOL    HW188741   5.480   4.814   9.558  0.7443  1.6596 -1.7195
27807SOL    HW288742   5.362   4.723   9.585  2.6260 -0.0499  1.3327
27808SOL     OW88743  10.218   6.852   3.965 -0.1871  0.6019  0.3511
27808SOL    HW188744  10.145   6.863   3.904  0.2703 -0.1480 -0.3504
27808SOL    HW288745  10.183   6.797   4.034 -0.0609 -0.4501 -0.4049
27809SOL     OW88746   4.944   6.031   4.713  0.0101  0.5050 -0.1685
27809SOL    HW188747   4.953   6.076   4.629 -0.5206  1.3654  0.2137
27809SOL    HW288748   4.881   5.961   4.696  1.3136 -0.5363 -0.9221
27810SOL     OW88749  10.879  10.639   6.168  0.2044 -0.2541  0.5386
27810SOL    HW188750  10.932  10.719   6.164 -0.1932  0.1217  2.0809
27810SOL    HW288751  10.809  10.654   6.105  0.6808  0.1998  0.1087
27811SOL     OW88752   6.424   6.999  11.245 -0.0545 -0.6497  0.8752
27811SOL    HW188753   6.484   7.040  11.183 -0.0056 -0.0475  1.3181
27811SOL    HW288754   6.348   7.057  11.248 -2.1428 -2.8873 -2.0290
27812SOL     OW88755   6.556   5.589  10.577 -0.0597 -0.0348 -0.0827
27812SOL    HW188756   6.617   5.521  10.548  0.5883 -0.1337  1.4184
27812SOL    HW288757   6.611   5.652  10.624 -0.8749  0.7748 -0.1767
27813SOL     OW88758   2.406   0.817   3.919 -0.4448 -0.2489  0.2522
27813SOL    HW188759   2.462   0.891   3.896 -1.7967  0.2505 -1.6850
27813SOL    HW288760   2.467   0.747   3.942  0.9159  0.8039 -0.0538
27814SOL     OW88761  10.434   1.133   5.495  0.0802 -0.4678 -0.4028
27814SOL    HW188762  10.455   1.220   5.460 -0.2312  0.2549  1.0922
27814SOL    HW288763  10.500   1.119   5.563 -1.0729 -0.4870  0.7471
27815SOL     OW88764  10.139   6.019   1.469 -0.1488  0.5516 -0.0698
27815SOL    HW188765  10.115   6.093   1.525 -0.9071 -0.0764  0.4485
27815SOL    HW288766  10.056   5.975   1.450  0.3018 -0.2255 -0.2815
27816SOL     OW88767   7.990   0.121   9.889  0.3860 -0.2625 -0.3518
27816SOL    HW188768   7.900   0.153   9.898 -0.2846 -1.7521 -1.2724
27816SOL    HW288769   7.990   0.076   9.805  1.6865 -1.3020  0.1809
27817SOL     OW88770   5.935  10.686   5.432 -0.5746  0.5590 -0.2888
27817SOL    HW188771   6.027  10.673   5.412 -0.5897  0.3202 -0.2086
27817SOL    HW288772   5.926  10.780   5.448 -0.4758  0.6810 -0.9492
27818SOL     OW88773  10.203  10.764   1.271 -0.1096 -0.4667  0.1878
27818SOL    HW188774  10.237  10.718   1.195 -0.4498 -0.7745  0.2204
27818SOL    HW288775  10.237  10.853   1.263  1.4894 -0.9885  0.7141
27819SOL     OW88776   9.157   5.810   7.678 -0.0192 -0.2725  0.2444
27819SOL    HW188777   9.103   5.776   7.749  0.8566 -1.7944  0.2369
27819SOL    HW288778   9.247   5.789   7.704  0.4237  0.4110 -0.6565
27820SOL     OW88779   9.314  11.445   4.662 -0.1164 -0.5608 -0.2267
27820SOL    HW188780   9.285  11.357   4.635  1.3245 -1.0919 -0.1136
27820SOL    HW288781   9.408  11.437   4.673 -0.1168  0.6933  1.0150
27821SOL     OW88782  11.477   7.214   3.495 -0.7572 -0.4122  0.6293
27821SOL    HW188783  11.566   7.184   3.481 -1.2033 -1.6177  0.2607
27821SOL    HW288784  11.486   7.306   3.521  0.5818 -0.5477  0.6908
27822SOL     OW88785   5.910   8.361  11.343  0.4480 -0.0487 -0.0192
27822SOL    HW188786   5.993   8.350  11.297  1.1151 -2.2530  1.5141
27822SOL    HW288787   5.854   8.291  11.308 -0.4187  0.7481 -0.2725
27823SOL     OW88788   4.804   1.162   7.574  0.0017  0.2825 -0.1701
27823SOL    HW188789   4.778   1.070   7.569  0.6324  0.0882 -0.0232
27823SOL    HW288790   4.795   1.195   7.485 -0.0327  0.0206 -0.2628
27824SOL     OW88791   2.090   0.382   7.620 -0.4122 -0.2791 -0.1168
27824SOL    HW188792   2.062   0.398   7.710  0.7931  0.6469  0.1267
27824SOL    HW288793   2.159   0.446   7.605  3.3739 -3.8344  0.1726
27825SOL     OW88794   7.166   1.540   5.333 -0.0007  0.1229 -0.1906
27825SOL    HW188795   7.227   1.569   5.265  1.2751  0.2756  0.9788
27825SOL    HW288796   7.204   1.459   5.366 -0.7917 -0.1320  0.1084
27826SOL     OW88797   6.064   5.974   3.551 -0.0847 -0.7995  0.0699
27826SOL    HW188798   6.148   5.990   3.507 -0.2974 -0.6695 -0.2924
27826SOL    HW288799   6.088   5.956   3.642  0.2422  0.7844  0.3319
27827SOL     OW88800   7.474   9.534   4.309 -0.2153 -0.3987 -0.1919
27827SOL    HW188801   7.547   9.548   4.248 -1.5789  0.6740 -1.6617
27827SOL    HW288802   7.402   9.505   4.254 -1.4315  0.3585  0.9321
27828SOL     OW88803   3.671   9.934   9.785 -0.2920 -0.5264 -0.2198
27828SOL    HW188804   3.747   9.992   9.782 -1.0979  0.5488 -0.8052
27828SOL    HW288805   3.638   9.944   9.875 -0.2261 -0.3367 -0.2153
27829SOL     OW88806  10.133  10.796   2.393 -0.0419  0.7228 -0.1271
27829SOL    HW188807  10.079  10.862   2.349 -1.4120 -1.3629 -1.7918
27829SOL    HW288808  10.071  10.730   2.423  1.3915 -0.7152 -0.1707
27830SOL     OW88809   4.300  10.828   7.515  0.4419 -0.4536 -0.2903
27830SOL    HW188810   4.328  10.749   7.469 -0.7242 -0.0686 -1.7343
27830SOL    HW288811   4.241  10.796   7.583  0.9137 -0.9094 -0.0860
27831SOL     OW88812   5.454   6.024   8.708 -0.9784 -0.1792  0.3824
27831SOL    HW188813   5.426   6.111   8.738 -0.7327  0.6011 -1.4730
27831SOL    HW288814   5.539   6.011   8.749  0.2701  1.7201 -1.3529
27832SOL     OW88815  11.047   6.419   9.277 -0.1114  0.5463 -0.1927
27832SOL    HW188816  11.130   6.404   9.233  0.0150 -1.1799  0.5630
27832SOL    HW288817  11.067   6.414   9.370 -0.8970  1.0720  0.0196
27833SOL     OW88818   0.997   2.662   6.300 -0.1102 -0.0156  0.3570
27833SOL    HW188819   0.949   2.618   6.370  0.3307 -2.3406 -0.6718
27833SOL    HW288820   1.087   2.633   6.312  0.2061  0.6539 -0.3584
27834SOL     OW88821   2.391   1.870   3.494 -0.4034  0.2537 -0.4106
27834SOL    HW188822   2.479   1.834   3.485  0.4173  1.7675  1.0373
27834SOL    HW288823   2.400   1.941   3.557 -2.8684 -0.2496  0.6535
27835SOL     OW88824   2.038   9.075   9.957  0.0904  0.3560  0.3593
27835SOL    HW188825   2.102   9.007   9.980  0.8220  0.8872 -0.0574
27835SOL    HW288826   1.974   9.073  10.028 -0.9471 -2.0284 -0.5500
27836SOL     OW88827   1.192   2.544   5.436 -0.2815  0.4406  0.5953
27836SOL    HW188828   1.250   2.619   5.446  1.1534 -0.5479  0.1128
27836SOL    HW288829   1.205   2.493   5.516  0.8332 -0.6096 -0.1998
27837SOL     OW88830   6.834   2.287   2.784  0.0467  0.0453  0.4521
27837SOL    HW188831   6.827   2.322   2.695  0.3759  0.6895  0.6719
27837SOL    HW288832   6.858   2.196   2.772  2.9533  0.7781 -0.1425
27838SOL     OW88833   9.616   8.808   0.865  0.1874 -0.2124  0.2084
27838SOL    HW188834   9.625   8.735   0.803  0.3374 -2.3408  2.5883
27838SOL    HW288835   9.692   8.800   0.922 -1.1780  0.1240  2.1547
27839SOL     OW88836   9.352   3.503   0.965  0.4236 -0.4961  0.0609
27839SOL    HW188837   9.366   3.441   0.893 -0.4465 -0.0149 -0.5548
27839SOL    HW288838   9.294   3.457   1.025 -0.9007 -0.0281 -0.8008
27840SOL     OW88839   6.215   7.920   5.523  0.0403 -0.3420 -0.2307
27840SOL    HW188840   6.208   7.902   5.617 -0.2323  1.6016  0.1607
27840SOL    HW288841   6.309   7.924   5.506  0.0961  0.2658  0.1823
27841SOL     OW88842   4.374   4.353  10.700  0.4571  0.0607  0.0364
27841SOL    HW188843   4.353   4.446  10.688 -1.5214 -0.2951  0.4641
27841SOL    HW288844   4.324   4.308  10.633  0.1763 -0.8159  0.8152
27842SOL     OW88845   6.456   6.276   0.681 -0.1355 -0.3707 -0.6297
27842SOL    HW188846   6.461   6.368   0.652  1.3312 -0.0317  0.5414
27842SOL    HW288847   6.374   6.244   0.645 -0.7232  1.4276 -1.0207
27843SOL     OW88848   4.188   5.408   0.836 -0.9182 -0.1263  0.2928
27843SOL    HW188849   4.246   5.365   0.898 -1.4029 -0.5202  0.4828
27843SOL    HW288850   4.246   5.457   0.778 -0.2977 -1.5648 -0.3451
27844SOL     OW88851  11.652   8.195   7.531  0.0088 -0.5928  0.0479
27844SOL    HW188852  11.710   8.266   7.504 -0.0858 -0.5117  0.0568
27844SOL    HW288853  11.652   8.199   7.627  0.6199 -1.1042  0.0711
27845SOL     OW88854   1.335   4.417   2.930 -0.0585  0.4640 -0.3727
27845SOL    HW188855   1.324   4.326   2.904  1.5166 -0.0302  0.5494
27845SOL    HW288856   1.345   4.465   2.848 -0.2114 -0.2972 -0.8449
27846SOL     OW88857   8.863   0.164   6.594 -0.2471  0.2382 -0.0164
27846SOL    HW188858   8.876   0.106   6.519  1.1691  1.2269 -0.5797
27846SOL    HW288859   8.838   0.105   6.665  1.3483 -1.1177 -0.5050
27847SOL     OW88860   9.691  11.022   8.561 -0.0087 -0.1467  0.2060
27847SOL    HW188861   9.772  11.039   8.611 -1.5329  2.2701  2.1137
27847SOL    HW288862   9.629  10.991   8.627 -1.2394  0.0982 -0.8036
27848SOL     OW88863  11.490   2.358   2.960 -0.3840 -0.0706 -0.5271
27848SOL    HW188864  11.529   2.427   2.907 -1.3977  1.6921  0.8857
27848SOL    HW288865  11.499   2.390   3.050  0.3777 -2.4653  0.3244
27849SOL     OW88866   8.785   1.706   1.748  0.2117  0.3226 -0.0854
27849SOL    HW188867   8.848   1.645   1.787  1.8788  0.9934 -1.5939
27849SOL    HW288868   8.701   1.682   1.787  1.2696 -1.0724  1.4724
27850SOL     OW88869   1.405   3.328   3.295  0.0630 -0.7855 -0.4195
27850SOL    HW188870   1.461   3.404   3.284  0.3737 -1.0778 -0.9445
27850SOL    HW288871   1.421   3.298   3.384 -1.0719  0.5447  0.2556
27851SOL     OW88872   4.009   8.906   0.027  0.8619  0.1588  0.1587
27851SOL    HW188873   3.915   8.889   0.017  0.8138  0.2908  0.3803
27851SOL    HW288874   4.022   8.912   0.122  1.2796 -0.8872  0.1733
27852SOL     OW88875   5.516   1.271   2.867  0.4357  0.4032 -0.1293
27852SOL    HW188876   5.430   1.259   2.906  0.6808 -0.1113  0.2664
27852SOL    HW288877   5.499   1.286   2.774 -0.0174 -0.9453 -0.2826
27853SOL     OW88878   4.505   1.148   9.201  0.2338  0.2149 -0.2225
27853SOL    HW188879   4.523   1.055   9.190  0.0278 -0.1227  1.8463
27853SOL    HW288880   4.447   1.171   9.128  0.3800 -1.2394 -0.8163
27854SOL     OW88881   9.369   8.845   6.279  0.3791 -0.7360  0.3502
27854SOL    HW188882   9.279   8.816   6.270  0.2113  0.1309 -1.0573
27854SOL    HW288883   9.367   8.939   6.260  1.3665 -0.3932  1.7407
27855SOL     OW88884   7.463   3.505   1.782  0.2572 -0.3690  0.2862
27855SOL    HW188885   7.548   3.518   1.739  0.0197  0.2172 -0.0122
27855SOL    HW288886   7.456   3.410   1.793  0.4033 -0.5170 -0.8189
27856SOL     OW88887   6.192   1.267   8.886 -0.0895 -0.1964 -0.0595
27856SOL    HW188888   6.220   1.259   8.795  0.5616  1.4085 -0.0459
27856SOL    HW288889   6.097   1.267   8.882 -0.0836  1.3475 -0.9407
27857SOL     OW88890   0.354  11.053   3.719 -0.3661 -0.1642 -0.5028
27857SOL    HW188891   0.270  11.012   3.738 -0.9190  0.1608 -2.1259
27857SOL    HW288892   0.378  11.097   3.801  0.2082 -3.5029  1.2864
27858SOL     OW88893   9.185  10.103   0.956 -0.1073  0.3401  0.1317
27858SOL    HW188894   9.174  10.077   1.048 -4.6274 -0.3080 -0.3639
27858SOL    HW288895   9.217  10.024   0.912 -3.4202 -1.2875  0.3723
27859SOL     OW88896   0.841   1.492   5.783  0.5972 -0.1583  0.0547
27859SOL    HW188897   0.850   1.495   5.879  0.4241 -0.3189  0.0773
27859SOL    HW288898   0.914   1.544   5.750 -0.0048  0.8604  0.3078
27860SOL     OW88899   8.509   8.616   3.497  0.4956  0.0962  0.3461
27860SOL    HW188900   8.529   8.677   3.427  0.3952 -1.2632 -0.9165
27860SOL    HW288901   8.594   8.596   3.537  0.9631 -1.1655 -1.1766
27861SOL     OW88902   7.184   9.669   9.395  0.1830  0.5617  0.2492
27861SOL    HW188903   7.156   9.633   9.480 -0.0399  0.4748  0.1412
27861SOL    HW288904   7.279   9.677   9.402  0.3732 -1.0602 -0.1021
27862SOL     OW88905   3.530   2.312   4.718  0.0972 -0.5744 -0.3288
27862SOL    HW188906   3.603   2.285   4.775 -0.9413 -2.1078  0.3437
27862SOL    HW288907   3.573   2.352   4.642  1.6019 -0.6001  0.4684
27863SOL     OW88908   4.406  11.079   8.551  0.6036 -0.7665  0.4672
27863SOL    HW188909   4.368  11.114   8.470 -0.4802 -2.5938  0.1412
27863SOL    HW288910   4.466  11.148   8.581  0.6568  0.1603 -1.6093
27864SOL     OW88911   7.764   5.931   4.085 -0.0446  0.4031 -0.3096
27864SOL    HW188912   7.719   5.931   4.000 -0.8191 -0.6568  0.0643
27864SOL    HW288913   7.756   5.840   4.115  1.8534  0.3108  0.0624
27865SOL     OW88914   6.992   4.819   2.170  0.6484 -0.2947  0.4615
27865SOL    HW188915   7.073   4.768   2.167  1.2460  0.6581 -0.2930
27865SOL    HW288916   6.949   4.801   2.086  0.0686 -0.7867  0.8527
27866SOL     OW88917   1.755  10.661   2.602 -1.0432 -0.0990 -0.2427
27866SOL    HW188918   1.684  10.724   2.612  0.4181  1.3883  1.5468
27866SOL    HW288919   1.814  10.678   2.676 -0.0807 -2.9795 -0.1804
27867SOL     OW88920   7.692   9.566  10.679 -0.2869 -0.4351  0.0265
27867SOL    HW188921   7.698   9.502  10.750 -0.7302 -0.0956  0.3794
27867SOL    HW288922   7.780   9.571  10.643  0.1697  0.1109  1.1942
27868SOL     OW88923   0.514   8.796   5.471  0.3893  0.4635  0.2982
27868SOL    HW188924   0.547   8.736   5.404 -0.0845  1.1506 -0.5811
27868SOL    HW288925   0.493   8.876   5.422 -1.9585  0.2846  0.9092
27869SOL     OW88926   9.664  10.216   2.594 -0.7416 -0.0454  0.1297
27869SOL    HW188927   9.591  10.269   2.562  0.8682  0.7507 -2.5384
27869SOL    HW288928   9.723  10.208   2.519  0.5358 -3.1650  1.2796
27870SOL     OW88929   5.034   5.206  10.642 -0.1397 -0.5267  0.2292
27870SOL    HW188930   5.009   5.286  10.596 -1.5121 -0.3836  1.1724
27870SOL    HW288931   5.121   5.225  10.677  0.2661 -0.0833 -0.9588
27871SOL     OW88932   8.954   9.826   3.359 -0.6492 -0.0838 -0.0399
27871SOL    HW188933   9.017   9.781   3.303 -1.1123 -0.0518 -0.6058
27871SOL    HW288934   8.957   9.917   3.330 -0.4056  0.0728  0.4567
27872SOL     OW88935   9.033   6.386   4.657 -0.5732 -0.1544 -0.8234
27872SOL    HW188936   9.058   6.477   4.672 -1.3196  0.1914 -1.5859
27872SOL    HW288937   8.938   6.390   4.642 -1.0036 -1.3178  1.2044
27873SOL     OW88938   1.938   1.747   5.494 -0.0446 -0.1372 -0.3275
27873SOL    HW188939   2.028   1.724   5.515 -0.2554 -0.2066  0.5218
27873SOL    HW288940   1.914   1.813   5.558 -0.2310  0.7401 -1.2694
27874SOL     OW88941  10.859  11.394   0.969  0.4067 -0.3748  0.0113
27874SOL    HW188942  10.779  11.348   0.943 -0.0712 -0.2953  1.2765
27874SOL    HW288943  10.870  11.373   1.061  1.3967  0.2879  0.0586
27875SOL     OW88944  10.972  11.403   5.838 -0.4437 -0.6106  0.5331
27875SOL    HW188945  10.993  11.310   5.849 -0.2337 -0.5962  0.2629
27875SOL    HW288946  11.057  11.447   5.835 -0.3741 -0.7737 -2.5609
27876SOL     OW88947   8.937   0.865   8.419 -0.0410  0.0852  0.2751
27876SOL    HW188948   8.912   0.929   8.352 -0.7944 -0.0977  0.3768
27876SOL    HW288949   9.028   0.887   8.439 -0.3495  1.2683  0.4580
27877SOL     OW88950   6.862   2.914   4.288 -0.3736  0.3167 -0.0613
27877SOL    HW188951   6.856   3.008   4.303 -1.1821  0.1071  1.0884
27877SOL    HW288952   6.873   2.877   4.376 -0.4145 -0.6781 -0.4643
27878SOL     OW88953   1.815   1.192   5.273 -0.2846  0.2142 -0.7613
27878SOL    HW188954   1.902   1.178   5.234 -0.6521  1.0778 -1.9737
27878SOL    HW288955   1.816   1.284   5.299 -1.0238  0.3915 -1.3180
27879SOL     OW88956   8.779   8.284   6.700 -0.7538  0.2122 -0.1585
27879SOL    HW188957   8.822   8.351   6.646  2.6294 -0.7309  1.1126
27879SOL    HW288958   8.760   8.328   6.783 -2.0767  0.5290 -0.5967
27880SOL     OW88959  10.996   3.831   6.218  0.4156 -0.3155 -0.6735
27880SOL    HW188960  11.090   3.851   6.217  0.0942  1.4691 -0.2122
27880SOL    HW288961  10.955   3.907   6.176 -0.9081 -0.4715  0.2683
27881SOL     OW88962   6.994   2.432  11.716 -0.2274 -0.3477  0.3097
27881SOL    HW188963   6.911   2.422  11.763 -0.3726  0.9142  0.3488
27881SOL    HW288964   7.001   2.352  11.664 -1.4327 -0.5048  0.3562
27882SOL     OW88965   2.214  10.913   0.833  0.1941  0.6385 -0.0489
27882SOL    HW188966   2.221  10.824   0.798  0.9542  0.4850  0.4862
27882SOL    HW288967   2.139  10.951   0.786 -1.2084 -0.8280  0.9230
27883SOL     OW88968   8.567  10.149   3.323 -0.6850  0.0604 -0.2843
27883SOL    HW188969   8.598  10.229   3.282 -2.2168 -0.0892 -1.8406
27883SOL    HW288970   8.510  10.178   3.394 -0.5567  0.3393 -0.2957
27884SOL     OW88971   3.113   1.159   2.175  0.0814  0.1165 -0.4046
27884SOL    HW188972   3.033   1.209   2.156 -0.1895 -0.1337  0.0799
27884SOL    HW288973   3.105   1.080   2.121  1.1354  1.1676 -2.2191
27885SOL     OW88974   2.966   7.506   6.265 -0.3503  0.5298 -0.0289
27885SOL    HW188975   2.909   7.579   6.287 -0.7366 -0.2808  1.9250
27885SOL    HW288976   2.913   7.449   6.209 -0.4488  1.1595 -0.5830
27886SOL     OW88977   0.790  11.548   8.617  0.1241 -0.4157  0.1031
27886SOL    HW188978   0.724  11.495   8.663 -1.5265  2.5515  1.4656
27886SOL    HW288979   0.739  11.608   8.563  1.8338  0.4354 -0.6458
27887SOL     OW88980   3.822   8.441   2.947  0.3360  0.2384 -0.3819
27887SOL    HW188981   3.760   8.513   2.951  1.4634  1.1722  2.4987
27887SOL    HW288982   3.830   8.421   2.853 -3.9113  0.2774 -0.9150
27888SOL     OW88983   0.479   0.799   4.517  0.1163  0.1477  0.1470
27888SOL    HW188984   0.561   0.761   4.487 -0.4392 -2.0290  1.1504
27888SOL    HW288985   0.490   0.893   4.504  2.0826 -0.2170 -1.3213
27889SOL     OW88986   1.573   4.210   4.436  0.4935 -0.1643 -0.4595
27889SOL    HW188987   1.506   4.278   4.439  0.2953 -0.1916 -2.8804
27889SOL    HW288988   1.615   4.214   4.523 -0.8723  1.6134  0.1714
27890SOL     OW88989   1.190   5.332   1.108 -0.0455 -0.0568 -0.2564
27890SOL    HW188990   1.173   5.413   1.059  1.0378  0.7378  0.6201
27890SOL    HW288991   1.111   5.318   1.160 -0.5778 -0.0491 -1.0323
27891SOL     OW88992   0.590   7.565   7.074  0.3819 -0.8469  0.2808
27891SOL    HW188993   0.550   7.488   7.033  0.3696 -0.6235 -0.1261
27891SOL    HW288994   0.565   7.558   7.167 -0.6200 -0.6956  0.0329
27892SOL     OW88995  11.581   2.705   5.915 -0.1577 -0.3760  0.0289
27892SOL    HW188996  11.517   2.649   5.959 -0.0702 -0.7336 -0.2928
27892SOL    HW288997  11.646   2.644   5.879 -0.4933 -0.1394 -1.0245
27893SOL     OW88998   1.641   7.163   5.541  0.5673  0.1724  0.2409
27893SOL    HW188999   1.587   7.137   5.616  0.5128 -0.2721  0.0521
27893SOL    HW289000   1.620   7.255   5.528 -0.9606 -0.2382 -0.4910
27894SOL     OW89001   4.769   0.496   0.381 -0.4791  0.0976  0.4549
27894SOL    HW189002   4.836   0.442   0.339 -0.2912  0.6280  0.0619
27894SOL    HW289003   4.686   0.461   0.348 -0.3328  0.5431 -0.4149
27895SOL     OW89004   7.146   3.496   2.604 -0.3007  0.5126 -0.6259
27895SOL    HW189005   7.079   3.485   2.671 -0.4769  0.7449 -0.7636
27895SOL    HW289006   7.215   3.434   2.629 -0.2523  0.7708 -0.0862
27896SOL     OW89007  11.395   8.369   3.382 -0.7270  0.1544  0.0980
27896SOL    HW189008  11.351   8.444   3.424 -0.3722  0.8964 -0.8374
27896SOL    HW289009  11.344   8.352   3.303 -1.2213 -1.0620  0.6473
27897SOL     OW89010   2.298   0.706   2.260 -0.0500 -0.6204  0.4878
27897SOL    HW189011   2.230   0.707   2.193  0.7490  0.4079 -0.3465
27897SOL    HW289012   2.283   0.786   2.310 -0.8822 -1.5711  1.8345
27898SOL     OW89013   5.397   6.374   1.127 -0.0500 -0.0107 -0.2250
27898SOL    HW189014   5.466   6.420   1.078 -0.8676 -0.3750 -1.7746
27898SOL    HW289015   5.342   6.444   1.163  1.3202  0.3055  1.4199
27899SOL     OW89016   7.308   5.026   9.606 -0.1434  0.0299  0.4872
27899SOL    HW189017   7.392   4.995   9.571 -0.1906  1.4028 -0.9491
27899SOL    HW289018   7.312   5.121   9.596 -2.3947  0.0395 -0.8880
27900SOL     OW89019   9.004  11.412   4.854 -0.2222  0.0513 -0.4475
27900SOL    HW189020   8.911  11.413   4.832 -0.5686 -1.1484  0.8481
27900SOL    HW289021   9.008  11.372   4.941  1.3181  2.0125  0.4625
27901SOL     OW89022   1.495  11.746   1.183  0.0175  0.0188 -0.3798
27901SOL    HW189023   1.445  11.675   1.224  0.3914  1.0630  2.0966
27901SOL    HW289024   1.521  11.711   1.098 -1.1089 -2.2115  0.1075
27902SOL     OW89025   4.678   1.761   6.851  0.1030  0.9844 -0.3084
27902SOL    HW189026   4.666   1.785   6.943  0.4953  1.5924 -0.4157
27902SOL    HW289027   4.743   1.822   6.818 -1.0042  1.6604 -1.3471
27903SOL     OW89028   8.521   2.256   3.723 -0.0839  0.1872 -0.0880
27903SOL    HW189029   8.433   2.226   3.700  0.2423 -2.3675  1.5800
27903SOL    HW289030   8.507   2.341   3.765 -1.7632 -0.1404  0.0889
27904SOL     OW89031   9.021  10.864   2.892  0.0151 -0.2414  0.1825
27904SOL    HW189032   9.088  10.882   2.826  2.5027 -1.1157  2.2472
27904SOL    HW289033   8.968  10.943   2.896  1.8277  1.0895 -0.6209
27905SOL     OW89034   1.879   1.413   9.709  0.7625  0.1337 -0.4293
27905SOL    HW189035   1.830   1.336   9.681 -1.4054  0.9409  0.9535
27905SOL    HW289036   1.943   1.379   9.772 -0.9708 -0.4415  1.0974
27906SOL     OW89037   4.979  10.057  10.082  0.1752  0.4964  0.0468
27906SOL    HW189038   4.984  10.109  10.001 -1.0849  0.9899  0.2705
27906SOL    HW289039   4.886  10.048  10.099  0.4046 -0.6154  0.8217
27907SOL     OW89040   8.117   0.900   2.367 -0.0636 -0.3500  0.1097
27907SOL    HW189041   8.049   0.845   2.328  0.3319 -0.7195 -0.0719
27907SOL    HW289042   8.115   0.879   2.460 -0.8353  0.3408  0.2537
27908SOL     OW89043  10.515   7.724   9.107  0.0274 -0.4821 -0.6909
27908SOL    HW189044  10.479   7.809   9.133 -0.4129 -0.7213 -0.5110
27908SOL    HW289045  10.443   7.680   9.062 -0.3553 -1.5001  0.8321
27909SOL     OW89046   5.222   1.702  10.090 -0.0118 -0.3588  0.3206
27909SOL    HW189047   5.276   1.641  10.040  0.4720 -0.8339  1.4022
27909SOL    HW289048   5.271   1.784  10.089  0.4772 -0.6403  0.8414
27910SOL     OW89049   4.686   3.698  10.514 -0.1977  0.7585 -0.4741
27910SOL    HW189050   4.725   3.677  10.429 -1.3367  0.9493 -1.0744
27910SOL    HW289051   4.681   3.614  10.560 -0.2258  0.5339 -0.8838
27911SOL     OW89052  10.857   6.724   1.356 -0.0290  0.0378 -0.2456
27911SOL    HW189053  10.902   6.746   1.275  2.0217  0.9415  1.0506
27911SOL    HW289054  10.794   6.794   1.369 -0.6531 -0.3228 -1.2208
27912SOL     OW89055   7.130   9.967   1.343 -0.3550  0.2524  0.3122
27912SOL    HW189056   7.059   9.933   1.397 -1.3286  2.2953  0.4355
27912SOL    HW289057   7.117  10.062   1.345  1.0987  0.5311 -1.4581
27913SOL     OW89058   9.070   1.584   8.380 -0.4800  0.3095 -0.8633
27913SOL    HW189059   9.018   1.662   8.363 -0.4009  0.4395 -0.5167
27913SOL    HW289060   9.085   1.585   8.474 -0.9590 -0.4246 -0.7693
27914SOL     OW89061   6.875   5.620   1.994  0.1037 -0.1540  0.2164
27914SOL    HW189062   6.918   5.554   1.939 -0.1723  0.0582 -0.2603
27914SOL    HW289063   6.927   5.699   1.982  0.8373 -0.4389  1.3154
27915SOL     OW89064   8.167   6.054   9.127 -0.3492 -0.1524 -0.1468
27915SOL    HW189065   8.230   6.125   9.115 -0.0414 -0.7473 -2.5380
27915SOL    HW289066   8.104   6.066   9.056 -2.5795 -0.0079  1.7316
27916SOL     OW89067   4.005   6.997   9.508  0.7267  0.4433  0.4378
27916SOL    HW189068   3.998   6.948   9.590 -0.8221 -0.0250  0.0585
27916SOL    HW289069   3.919   6.987   9.466  0.3927  3.3440  0.2314
27917SOL     OW89070   7.455   2.490   5.615 -0.1456 -0.0331  0.1207
27917SOL    HW189071   7.524   2.557   5.614  1.2644 -1.4305  0.1472
27917SOL    HW289072   7.396   2.516   5.545  1.6176  0.0345 -1.4262
27918SOL     OW89073   5.232   1.565   2.599 -0.5514 -0.7641 -0.1953
27918SOL    HW189074   5.326   1.549   2.605 -0.6103 -1.3988 -0.7869
27918SOL    HW289075   5.193   1.477   2.595 -1.1691 -0.5094  0.0465
27919SOL     OW89076  10.475   3.881   3.744  0.0953 -0.5754 -0.1687
27919SOL    HW189077  10.499   3.957   3.797  0.2327 -1.4229  1.0402
27919SOL    HW289078  10.418   3.916   3.676  1.8867  0.9364 -0.9706
27920SOL     OW89079   1.281   7.896   0.095  0.4528 -0.6902 -0.2295
27920SOL    HW189080   1.238   7.944   0.166 -0.5364 -2.1186  0.1601
27920SOL    HW289081   1.216   7.891   0.026 -0.0995 -2.9074  0.3810
27921SOL     OW89082   2.101   0.107   4.893  0.1685  0.3700  0.3850
27921SOL    HW189083   2.046   0.086   4.818  0.5543  1.7529 -0.3293
27921SOL    HW289084   2.183   0.059   4.878  0.7056  1.5810 -0.7457
27922SOL     OW89085   5.761   8.200   1.761  0.1261 -0.5164 -0.3453
27922SOL    HW189086   5.670   8.230   1.766 -0.1056 -1.3876  1.3218
27922SOL    HW289087   5.781   8.201   1.667 -0.6491  2.3743 -0.5780
27923SOL     OW89088   4.729   9.702   2.767 -1.1226  0.3143  1.0937
27923SOL    HW189089   4.668   9.707   2.693  0.8113 -1.5893 -0.7567
27923SOL    HW289090   4.803   9.650   2.735  0.4220  0.4862  3.9851
27924SOL     OW89091   1.026   3.235   1.008 -0.4961 -0.0135  0.0234
27924SOL    HW189092   1.050   3.286   0.931  0.1920 -0.5408 -0.1231
27924SOL    HW289093   0.931   3.244   1.014 -0.5340  0.2075 -0.7675
27925SOL     OW89094   1.511  10.214   7.334 -0.0012 -0.0230  0.0050
27925SOL    HW189095   1.595  10.174   7.310 -0.2122 -1.1107  0.9863
27925SOL    HW289096   1.488  10.268   7.259  1.8654  0.7809 -0.0603
27926SOL     OW89097   5.382   1.361   1.719  0.2176  0.4398 -0.1451
27926SOL    HW189098   5.299   1.381   1.762  0.0759 -0.3625 -0.0280
27926SOL    HW289099   5.445   1.421   1.759  0.1885 -0.5656  1.5235
27927SOL     OW89100  10.962   5.068   0.840  0.3677 -0.0203  0.1276
27927SOL    HW189101  10.917   5.144   0.877 -0.8666 -0.1900 -0.9148
27927SOL    HW289102  10.902   4.995   0.856  0.9694 -0.5492  0.0196
27928SOL     OW89103   6.987   9.309   1.275 -0.0495  0.5965 -0.2826
27928SOL    HW189104   7.037   9.390   1.279  1.1631 -0.1772  1.7422
27928SOL    HW289105   7.031   9.257   1.207 -0.6199  1.4595 -1.3401
27929SOL     OW89106   4.467   2.286   0.038  0.2687  0.6363 -0.1341
27929SOL    HW189107   4.466   2.381   0.030  2.3961  0.6632 -0.5918
27929SOL    HW289108   4.475   2.255  -0.052 -1.2582 -0.0500 -0.0713
27930SOL     OW89109   4.107   3.327   7.339 -0.2191  0.9591 -0.0366
27930SOL    HW189110   4.025   3.345   7.384  0.0208  0.5511  0.5846
27930SOL    HW289111   4.162   3.404   7.354 -0.4590  1.2012 -0.3934
27931SOL     OW89112   4.928   8.012   6.070  0.9942  0.0530  0.6578
27931SOL    HW189113   4.841   7.996   6.106  1.2237  2.6594  2.6937
27931SOL    HW289114   4.930   7.961   5.989 -2.5861  0.2812  0.2578
27932SOL     OW89115   2.589   6.926   1.957  0.3709 -0.4670  0.2163
27932SOL    HW189116   2.581   7.022   1.952  1.2470 -0.4225 -0.5262
27932SOL    HW289117   2.574   6.906   2.049  0.3348  0.4061  0.4097
27933SOL     OW89118   4.707   7.623   8.472  0.1369  0.0976 -0.0929
27933SOL    HW189119   4.676   7.554   8.414  0.4587  0.3753 -0.6076
27933SOL    HW289120   4.790   7.650   8.433 -0.0572  0.8701  0.0253
27934SOL     OW89121  10.071   5.788   8.614 -0.3815  0.1417  0.1131
27934SOL    HW189122  10.114   5.764   8.531  1.2145  0.6709  0.7444
27934SOL    HW289123   9.978   5.791   8.592  0.0162  0.5488 -1.7422
27935SOL     OW89124   1.182   4.923   3.749  0.3467  0.3662 -0.7042
27935SOL    HW189125   1.124   4.982   3.798 -0.3001  0.1881 -1.2388
27935SOL    HW289126   1.140   4.913   3.664  1.8978  1.3977 -1.6525
27936SOL     OW89127   9.912   5.160   1.672  0.4005 -0.1153  0.3518
27936SOL    HW189128   9.880   5.160   1.762 -2.5985  1.2327 -0.5763
27936SOL    HW289129   9.912   5.068   1.646 -1.4430 -0.3339  0.9387
27937SOL     OW89130   5.629   2.248   4.284  0.5904 -0.2606  0.2053
27937SOL    HW189131   5.668   2.262   4.197  0.2362 -1.0059 -0.0823
27937SOL    HW289132   5.677   2.174   4.320 -0.6486 -1.3320 -0.2403
27938SOL     OW89133   0.220   2.321   8.801  0.1182 -0.1134 -0.1548
27938SOL    HW189134   0.225   2.411   8.769  0.7530 -0.1888 -0.2898
27938SOL    HW289135   0.270   2.270   8.736  0.7398 -0.3908  0.5211
27939SOL     OW89136   9.436  10.147   8.695  0.3843  0.4064 -0.1098
27939SOL    HW189137   9.394  10.194   8.624  0.0033 -0.2414 -0.3226
27939SOL    HW289138   9.526  10.180   8.696  0.4064  0.3879 -0.9175
27940SOL     OW89139   2.879   6.278   3.339 -0.0453  0.2298 -0.0677
27940SOL    HW189140   2.936   6.233   3.400  0.6435  0.0867 -0.7932
27940SOL    HW289141   2.832   6.342   3.392 -0.7067 -1.0199  0.8903
27941SOL     OW89142   8.155   5.692   7.278 -0.0980 -0.2034 -0.1683
27941SOL    HW189143   8.172   5.786   7.287  0.1920 -0.1555 -1.0980
27941SOL    HW289144   8.234   5.650   7.313  0.2288 -0.0693 -0.7308
27942SOL     OW89145   0.754   3.328   6.285 -0.0214  0.3986 -0.4052
27942SOL    HW189146   0.774   3.338   6.378 -0.4420  0.5663 -0.3307
27942SOL    HW289147   0.774   3.413   6.246 -0.9707  0.6999 -0.2560
27943SOL     OW89148   8.990   6.817  10.710  0.5655  0.3134 -0.2581
27943SOL    HW189149   9.027   6.854  10.629  0.6767 -0.8517 -0.7535
27943SOL    HW289150   8.901   6.852  10.712  0.1217 -0.6279 -1.5828
27944SOL     OW89151   6.332   4.507  11.396 -0.5203  0.2684 -0.4315
27944SOL    HW189152   6.317   4.507  11.301  0.6364  2.2256 -0.6730
27944SOL    HW289153   6.426   4.493  11.406 -0.7997 -1.1518  0.5295
27945SOL     OW89154   2.671  10.794  11.617 -0.1803 -0.0439  0.5944
27945SOL    HW189155   2.735  10.743  11.567  0.0327  1.4644 -0.7919
27945SOL    HW289156   2.723  10.866  11.653 -0.5066 -0.6412  2.3124
27946SOL     OW89157   2.216   2.221   1.771 -0.2269 -0.3654 -0.7229
27946SOL    HW189158   2.222   2.131   1.738 -0.2354  0.3074 -2.7323
27946SOL    HW289159   2.297   2.262   1.742 -0.4081  0.3875 -0.1754
27947SOL     OW89160   6.149   0.504   6.211  0.3784  0.2473 -0.1275
27947SOL    HW189161   6.092   0.570   6.252 -0.6747 -0.7858  0.1253
27947SOL    HW289162   6.129   0.510   6.117  0.6551  0.6281 -0.1634
27948SOL     OW89163  10.722  11.650   0.663  0.6809  0.2897  0.1460
27948SOL    HW189164  10.671  11.574   0.692 -0.4044  0.3131 -1.5491
27948SOL    HW289165  10.803  11.645   0.713  0.0247 -1.1570  1.1321
27949SOL     OW89166   0.867  10.108   7.119 -0.1172 -0.0163  0.6324
27949SOL    HW189167   0.871  10.145   7.031 -1.3125 -1.8635 -0.2751
27949SOL    HW289168   0.900  10.019   7.109 -1.7711 -0.7997  1.6826
27950SOL     OW89169   8.128   4.610   0.331  0.3549 -0.2579  0.1710
27950SOL    HW189170   8.101   4.549   0.262 -2.9926 -0.6724  1.6256
27950SOL    HW289171   8.112   4.697   0.294  0.5236 -0.4147 -0.2757
27951SOL     OW89172   6.351   1.892  10.055  0.2940 -0.1656 -0.6375
27951SOL    HW189173   6.376   1.801  10.039 -0.7581 -0.2174 -2.1952
27951SOL    HW289174   6.256   1.892  10.047  0.2601  1.0335 -0.4006
27952SOL     OW89175   8.138  10.319   7.343 -0.0808 -0.4055  0.1264
27952SOL    HW189176   8.230  10.310   7.319 -0.5166 -2.5003 -0.9288
27952SOL    HW289177   8.118  10.411   7.324  1.7874  0.1136  0.4564
27953SOL     OW89178  10.705   6.541   8.393 -0.0712 -0.0771 -0.1412
27953SOL    HW189179  10.792   6.521   8.427  0.7871 -0.6885 -2.4730
27953SOL    HW289180  10.693   6.635   8.409  0.5385 -0.2039  1.1362
27954SOL     OW89181  11.450   7.873  10.753  0.0975 -0.6090  0.0566
27954SOL    HW189182  11.518   7.934  10.726 -0.9149  1.3001  1.5398
27954SOL    HW289183  11.400   7.856  10.673  0.8425 -0.0468 -0.5429
27955SOL     OW89184  10.174   7.213   7.778  0.1002  0.1585 -0.0612
27955SOL    HW189185  10.185   7.118   7.772  1.3985  0.3928 -2.1810
27955SOL    HW289186  10.198   7.246   7.691 -1.5515  2.3280  0.2176
27956SOL     OW89187   4.295   7.040   7.233 -0.2534 -0.0739 -0.0517
27956SOL    HW189188   4.249   7.116   7.199 -0.4832  0.5796  1.6354
27956SOL    HW289189   4.247   6.965   7.196 -2.3648  0.5853  1.1517
27957SOL     OW89190   7.349  11.103   9.493 -0.3843 -0.2136  0.3170
27957SOL    HW189191   7.426  11.054   9.465 -0.8072 -1.1194  0.7020
27957SOL    HW289192   7.384  11.180   9.538  0.2904  0.2363 -0.9273
27958SOL     OW89193  10.502   9.492  10.304 -0.2732  0.0901  0.7565
27958SOL    HW189194  10.516   9.586  10.316  0.1233  0.4569 -1.9647
27958SOL    HW289195  10.577   9.450  10.347 -1.0512  0.8625  3.0405
27959SOL     OW89196   1.319   8.619   3.275 -0.0349  0.3443 -0.4738
27959SOL    HW189197   1.307   8.663   3.191 -2.2992 -1.4498 -1.2069
27959SOL    HW289198   1.292   8.683   3.341 -1.0212  0.8284 -1.3372
27960SOL     OW89199  11.351   0.777   7.420  0.4774 -0.1536  0.1010
27960SOL    HW189200  11.424   0.714   7.424  0.5551 -0.1096 -0.5016
27960SOL    HW289201  11.274   0.723   7.403  0.4458 -0.1538  0.2476
27961SOL     OW89202   9.993  11.211  10.609 -0.5838  0.4379 -0.1853
27961SOL    HW189203   9.966  11.239  10.521 -0.8645  1.0731  0.0991
27961SOL    HW289204   9.997  11.116  10.603 -0.9292  0.4539 -0.7947
27962SOL     OW89205  10.202   5.969   2.500  0.2045  0.0705 -0.2017
27962SOL    HW189206  10.125   5.983   2.555  0.5011 -0.5804  0.3916
27962SOL    HW289207  10.180   6.011   2.417 -0.4469  0.6354  0.2465
27963SOL     OW89208   6.587   1.075   7.599  0.2354 -0.2036  0.0963
27963SOL    HW189209   6.678   1.050   7.618  0.9266  2.6953  1.1125
27963SOL    HW289210   6.594   1.126   7.518 -0.2329  1.0908  0.8368
27964SOL     OW89211   1.749   3.217   7.526  0.1176 -0.2389  0.4620
27964SOL    HW189212   1.844   3.215   7.521  0.2029 -1.6157  1.9747
27964SOL    HW289213   1.720   3.215   7.434  1.5285 -2.5029 -0.0133
27965SOL     OW89214   6.134   9.211   8.953 -0.1413  0.1200  0.7555
27965SOL    HW189215   6.074   9.174   9.018 -0.0259 -1.2103  0.1244
27965SOL    HW289216   6.118   9.160   8.874  0.6829  0.8301  0.1189
27966SOL     OW89217   7.633   3.901   5.330 -0.5767 -0.5402 -0.5557
27966SOL    HW189218   7.558   3.865   5.283 -0.7570  1.5504 -1.9790
27966SOL    HW289219   7.601   3.983   5.366  0.4480 -0.6609  0.6865
27967SOL     OW89220   7.751   5.602   7.294  0.3961  0.6473 -0.3473
27967SOL    HW189221   7.791   5.617   7.380  0.3144  0.1262 -0.2157
27967SOL    HW289222   7.732   5.508   7.292 -0.6709  0.8558 -0.4728
27968SOL     OW89223   7.090  11.421   6.331  0.3076  0.1856  0.0326
27968SOL    HW189224   7.159  11.363   6.362 -0.8047 -0.8930  0.5657
27968SOL    HW289225   7.136  11.495   6.291  1.7594 -1.4549 -1.4395
27969SOL     OW89226   5.569   3.704   3.845  0.0063  0.1013 -0.3673
27969SOL    HW189227   5.649   3.742   3.882  0.4954  0.5057 -1.7904
27969SOL    HW289228   5.598   3.623   3.803 -0.8458 -1.3419  1.6595
27970SOL     OW89229   5.576  10.163   2.370 -0.0267 -0.3968 -0.7870
27970SOL    HW189230   5.481  10.152   2.372 -0.1710  0.6071 -1.1273
27970SOL    HW289231   5.608  10.116   2.447 -0.9042  0.1065 -0.0924
27971SOL     OW89232   8.031   2.076   0.270  0.2738  0.3895  0.0331
27971SOL    HW189233   8.049   2.031   0.188  0.0902  1.8796 -0.8569
27971SOL    HW289234   8.117   2.104   0.301  0.2449  0.6795 -0.1520
27972SOL     OW89235  11.072   0.006   6.780  0.1014 -0.6564  0.1848
27972SOL    HW189236  11.035   0.006   6.692  1.8455 -0.8258 -0.6027
27972SOL    HW289237  11.099  -0.085   6.794 -0.6742 -0.7518  1.1398
27973SOL     OW89238  11.486   0.679   5.450  0.4295  0.1010 -0.0420
27973SOL    HW189239  11.532   0.758   5.420  0.2633 -0.0838 -0.8119
27973SOL    HW289240  11.416   0.666   5.386  1.6807 -1.8040 -1.1182
27974SOL     OW89241   8.961   8.048   2.792 -0.1808 -0.2016 -0.2652
27974SOL    HW189242   8.872   8.058   2.759  0.0018  0.7113 -0.5317
27974SOL    HW289243   9.008   8.123   2.756  0.5923 -0.4446  0.2093
27975SOL     OW89244   9.789   8.248   8.177  0.0963 -0.3473 -0.1954
27975SOL    HW189245   9.761   8.242   8.085 -1.9607  1.4230  0.2286
27975SOL    HW289246   9.760   8.166   8.217 -1.4121 -0.0322 -0.5828
27976SOL     OW89247  10.750   9.782   8.787  0.2086  0.2297 -0.5141
27976SOL    HW189248  10.758   9.757   8.879  2.9387  0.2531 -0.6638
27976SOL    HW289249  10.798   9.714   8.740  1.1263  1.6138 -1.6496
27977SOL     OW89250  11.396   8.476   0.968  0.5425  0.5357  0.4042
27977SOL    HW189251  11.428   8.458   1.057 -0.7640 -1.0173  0.5960
27977SOL    HW289252  11.310   8.515   0.982 -0.4409 -1.3577 -0.1843
27978SOL     OW89253   4.927   0.533   2.125 -0.7476 -0.4965  0.1994
27978SOL    HW189254   5.015   0.571   2.125 -1.2488  0.7478  1.4410
27978SOL    HW289255   4.874   0.596   2.175 -3.3698  1.1432 -4.1221
27979SOL     OW89256   3.741   4.709   3.790  0.6434  0.0963 -0.2101
27979SOL    HW189257   3.813   4.663   3.832  0.1966  1.3706  2.1818
27979SOL    HW289258   3.783   4.778   3.739  1.1896 -1.2610 -1.6776
27980SOL     OW89259  10.020   2.618   5.350  0.3930  0.0199 -0.2239
27980SOL    HW189260  10.013   2.527   5.320 -1.0402 -0.4425  1.4173
27980SOL    HW289261  10.114   2.633   5.357  0.6382 -1.7381  0.6328
27981SOL     OW89262   9.725   7.561   9.516  0.2439  0.2563  0.3975
27981SOL    HW189263   9.780   7.486   9.540 -0.8223 -0.4862  0.5956
27981SOL    HW289264   9.706   7.604   9.599  1.9676  1.5848  0.1591
27982SOL     OW89265   5.086   3.218   3.889  0.6918  0.0247 -0.1646
27982SOL    HW189266   5.061   3.150   3.951  1.6376 -2.1256 -2.0028
27982SOL    HW289267   5.076   3.300   3.938  1.4378 -1.5156  2.8246
27983SOL     OW89268   1.684   4.619   1.859  0.1832 -0.1568  0.0742
27983SOL    HW189269   1.702   4.527   1.840 -1.5056 -0.8470  1.5791
27983SOL    HW289270   1.747   4.667   1.805  2.4130 -2.2043  0.6573
27984SOL     OW89271   9.418   1.690   2.380  0.6470 -0.0179 -0.3202
27984SOL    HW189272   9.368   1.769   2.403  1.1572 -0.5418  3.1714
27984SOL    HW289273   9.355   1.618   2.392  0.9026 -0.3438 -0.8892
27985SOL     OW89274   0.836   9.157   6.632 -0.4260  0.0294  0.4386
27985SOL    HW189275   0.871   9.098   6.565 -1.8373 -0.6435  0.2610
27985SOL    HW289276   0.899   9.229   6.636  0.4020 -0.6070 -0.6192
27986SOL     OW89277   9.711   0.252   6.607  0.1848  0.2622  0.1350
27986SOL    HW189278   9.632   0.228   6.559  0.7034 -0.3287 -0.4400
27986SOL    HW289279   9.682   0.319   6.669 -1.3985 -1.9448  1.9393
27987SOL     OW89280   9.497   8.926   3.356  0.4175  0.0906  0.5243
27987SOL    HW189281   9.449   8.985   3.413 -0.5281 -0.3507  0.2086
27987SOL    HW289282   9.520   8.852   3.412 -0.9170 -0.5607  0.2614
27988SOL     OW89283   4.515   8.991   8.780  0.3330 -0.0256  0.1150
27988SOL    HW189284   4.576   9.049   8.736  2.0326 -1.2562  0.7463
27988SOL    HW289285   4.478   8.937   8.710 -1.4793  1.9002 -0.5178
27989SOL     OW89286   1.159   9.899  10.344  0.0960  0.1789  0.0922
27989SOL    HW189287   1.121   9.840  10.278 -0.3839 -0.1411  0.6469
27989SOL    HW289288   1.085   9.947  10.379  0.3251  0.2173  0.5274
27990SOL     OW89289   5.430  11.024   5.742  0.0411 -0.0301 -0.1980
27990SOL    HW189290   5.465  11.049   5.828  0.2792 -0.8486 -0.0426
27990SOL    HW289291   5.398  10.935   5.755  1.4637 -0.7474 -1.3317
27991SOL     OW89292   7.874  10.806  10.129  0.0741 -0.1649  0.4033
27991SOL    HW189293   7.847  10.849  10.211  0.5757 -0.2711  0.6273
27991SOL    HW289294   7.840  10.717  10.137 -2.7640  0.6656 -0.9366
27992SOL     OW89295   2.699  10.321   2.861 -0.7696 -0.1900  0.0994
27992SOL    HW189296   2.705  10.228   2.881 -0.3151 -0.4020 -0.9517
27992SOL    HW289297   2.722  10.365   2.942  0.7376 -1.0004  0.1342
27993SOL     OW89298   7.151   0.625   4.607  0.2262  0.2157  0.2496
27993SOL    HW189299   7.142   0.718   4.585 -0.6817  0.1819  0.4519
27993SOL    HW289300   7.146   0.580   4.523  0.9996  0.3611  0.1149
27994SOL     OW89301  11.196   2.200   5.088 -0.0741 -0.2911 -0.7652
27994SOL    HW189302  11.201   2.120   5.035  0.1236 -1.5952  1.0964
27994SOL    HW289303  11.108   2.234   5.073  0.0506 -0.5067 -2.0529
27995SOL     OW89304   3.582   9.660   6.264  0.2783 -0.1561 -0.2428
27995SOL    HW189305   3.664   9.700   6.293 -0.1877 -0.2182  1.3058
27995SOL    HW289306   3.601   9.623   6.179  2.0118 -0.6668  0.3310
27996SOL     OW89307   8.212   8.636   5.178 -0.0309  0.4141  0.2425
27996SOL    HW189308   8.270   8.688   5.233  0.0674  1.0415 -0.4313
27996SOL    HW289309   8.142   8.696   5.153 -0.1181  0.1191 -0.2350
27997SOL     OW89310   3.569   8.352  10.465 -0.1023  0.0886 -0.2376
27997SOL    HW189311   3.605   8.270  10.500  0.7388  0.8414  0.7190
27997SOL    HW289312   3.474   8.340  10.469 -0.0058 -1.1200 -0.8313
27998SOL     OW89313  10.695   7.660   0.118 -0.0179 -0.3827 -0.3084
27998SOL    HW189314  10.704   7.754   0.107  1.3754 -0.4562 -0.0144
27998SOL    HW289315  10.753   7.623   0.051  1.0010 -0.9767  0.8594
27999SOL     OW89316   9.431   7.384  10.967 -0.1611  0.1713  0.2694
27999SOL    HW189317   9.341   7.403  10.994 -0.2529  2.6902 -1.4964
27999SOL    HW289318   9.485   7.445  11.016  0.4600 -0.4000  0.3152
28000SOL     OW89319   6.324   2.190   1.731 -0.4204  0.4604 -0.6071
28000SOL    HW189320   6.282   2.104   1.729  1.5071 -0.5482  0.1651
28000SOL    HW289321   6.313   2.220   1.822  3.0534 -1.2233  0.5227
28001SOL     OW89322  10.589  11.291   3.362  0.2589 -0.5061 -0.2164
28001SOL    HW189323  10.552  11.228   3.423  1.3047 -1.0622 -0.1445
28001SOL    HW289324  10.525  11.295   3.290 -1.0722  0.2892  0.9446
28002SOL     OW89325   9.846  10.527   3.290  0.4055 -0.0914 -0.3271
28002SOL    HW189326   9.880  10.531   3.200  1.0908 -0.0364 -0.0702
28002SOL    HW289327   9.884  10.602   3.334 -0.4911  0.2854 -0.1687
28003SOL     OW89328   0.911   2.059  11.605  0.1044  0.4265  0.5046
28003SOL    HW189329   0.930   2.093  11.693  1.1077  1.1816  0.0162
28003SOL    HW289330   0.838   2.113  11.574 -0.1920  0.2182  0.8397
28004SOL     OW89331   4.435   5.334   0.159 -0.3103 -0.4801 -0.2588
28004SOL    HW189332   4.530   5.327   0.167 -0.4052 -1.2147  0.3431
28004SOL    HW289333   4.405   5.353   0.248 -0.5905  1.6192 -0.7669
28005SOL     OW89334   9.456   4.314   6.759  0.2587  0.4234  0.2632
28005SOL    HW189335   9.551   4.329   6.757  0.2664  0.3461  0.0067
28005SOL    HW289336   9.421   4.374   6.692  0.0136  1.2403  1.1007
28006SOL     OW89337   9.684   0.413   9.065  0.2456  0.1880 -0.3023
28006SOL    HW189338   9.639   0.495   9.082 -0.4373 -0.1387 -0.4825
28006SOL    HW289339   9.684   0.368   9.149 -0.4131 -0.1180 -0.4592
28007SOL     OW89340   6.064  10.080   0.200  0.0251 -0.1208 -0.3036
28007SOL    HW189341   6.024  10.023   0.133 -1.5784  0.1754  0.3501
28007SOL    HW289342   6.074  10.024   0.276  0.6442 -0.1191 -0.3780
28008SOL     OW89343   4.698   9.080   7.930  0.3958 -0.1129  0.1501
28008SOL    HW189344   4.687   9.043   8.017  1.2573 -0.5484  0.0851
28008SOL    HW289345   4.781   9.043   7.899  0.8597  1.2199 -0.2459
28009SOL     OW89346   0.335   3.652  10.657  0.2229  0.5115  0.2426
28009SOL    HW189347   0.249   3.630  10.694  0.2482 -0.8442 -0.4306
28009SOL    HW289348   0.390   3.667  10.733 -0.5891  1.3625  0.6893
28010SOL     OW89349   5.666  10.041   8.669 -0.3960  0.2098 -0.0205
28010SOL    HW189350   5.728   9.983   8.712 -1.5296 -0.0256  1.3776
28010SOL    HW289351   5.613   9.984   8.614 -0.2678  0.1998 -0.1316
28011SOL     OW89352   2.900  10.527   5.815 -0.0463  0.1928  0.2348
28011SOL    HW189353   2.944  10.488   5.890 -1.9077 -0.2554  1.1608
28011SOL    HW289354   2.815  10.483   5.812  0.0002  0.1552 -2.1989
28012SOL     OW89355   8.717   4.178   2.292  0.1247  0.5534  0.2568
28012SOL    HW189356   8.801   4.138   2.313 -0.7939 -1.8490 -0.3845
28012SOL    HW289357   8.656   4.139   2.354 -0.7897  1.1860 -0.2197
28013SOL     OW89358   6.746   7.381   5.647 -0.3591 -0.1017 -0.1408
28013SOL    HW189359   6.695   7.345   5.719 -0.2469  0.8353  0.4227
28013SOL    HW289360   6.784   7.461   5.682  0.6921 -0.2622 -0.8620
28014SOL     OW89361  11.783   1.885   0.229 -0.2017 -0.1275  0.6069
28014SOL    HW189362  11.726   1.931   0.167  0.5931  0.7284  0.4855
28014SOL    HW289363  11.864   1.869   0.180 -0.7549 -2.4643  0.3627
28015SOL     OW89364   4.818   1.048   4.670 -0.3333 -0.3315  0.4907
28015SOL    HW189365   4.877   0.980   4.703 -1.0852 -1.1969  0.0833
28015SOL    HW289366   4.877   1.114   4.632  0.4595 -0.1731  1.9181
28016SOL     OW89367   5.623   1.498   7.500 -0.2215  0.4643  0.1373
28016SOL    HW189368   5.669   1.424   7.461  0.3635  0.2463  1.2207
28016SOL    HW289369   5.537   1.497   7.457  0.0005 -0.4494 -0.3139
28017SOL     OW89370  10.814   4.828   9.004 -0.0516  0.5321  0.5860
28017SOL    HW189371  10.899   4.867   8.981  0.8286 -1.4369  0.2532
28017SOL    HW289372  10.811   4.834   9.099  0.1720  1.1583  0.5642
28018SOL     OW89373  10.702   4.774   7.466  0.3568  0.1503  0.7167
28018SOL    HW189374  10.614   4.739   7.478 -0.0809  0.3215 -1.5799
28018SOL    HW289375  10.690   4.868   7.454  0.9129  0.2553  0.9318
28019SOL     OW89376   8.898  10.601   3.018 -0.0987 -0.8720  0.1197
28019SOL    HW189377   8.939  10.687   3.023  1.9625 -1.8338  0.8984
28019SOL    HW289378   8.804  10.618   3.026  0.3330  1.2144  1.2332
28020SOL     OW89379   0.997   5.113   7.459  0.2711 -0.2548 -0.1048
28020SOL    HW189380   0.956   5.103   7.373  3.1430  0.4940 -1.6851
28020SOL    HW289381   0.943   5.180   7.503  0.2407  1.3728 -2.4160
28021SOL     OW89382  10.695   5.935   2.985  0.5699 -0.3946  0.0385
28021SOL    HW189383  10.644   5.877   3.042 -0.1965  0.8621  0.6730
28021SOL    HW289384  10.728   6.003   3.043  2.6281 -0.9127 -0.4511
28022SOL     OW89385   6.430   9.448   4.315  0.3621 -0.2689  0.1571
28022SOL    HW189386   6.438   9.356   4.337 -0.8259 -0.6493 -0.8776
28022SOL    HW289387   6.503   9.466   4.256  0.8170 -0.4391  0.6642
28023SOL     OW89388   9.661   4.523   8.810  0.7347  0.2759 -0.0572
28023SOL    HW189389   9.614   4.483   8.883 -0.5527  0.0669 -0.9435
28023SOL    HW289390   9.753   4.517   8.834  0.4823 -1.6691  0.6321
28024SOL     OW89391   8.552  10.500  10.638 -0.5209 -0.0683 -0.1793
28024SOL    HW189392   8.531  10.425  10.583 -0.3458 -0.7129  0.6164
28024SOL    HW289393   8.630  10.473  10.687  0.2464  1.0677 -0.7297
28025SOL     OW89394   3.122   7.887   2.612  0.5087  0.0238  0.3456
28025SOL    HW189395   3.143   7.829   2.540 -1.5609  1.0626 -1.2105
28025SOL    HW289396   3.083   7.830   2.679  0.8062 -0.7121 -0.1071
28026SOL     OW89397   9.420   9.100   4.074 -0.2193 -0.1083 -0.4514
28026SOL    HW189398   9.384   9.168   4.132 -0.3808 -0.3751 -0.2349
28026SOL    HW289399   9.468   9.042   4.133 -1.7392 -1.2988 -0.3200
28027SOL     OW89400  10.654   6.332   3.853  0.1384  0.4092 -0.0588
28027SOL    HW189401  10.609   6.311   3.935 -0.0834 -0.3036 -0.3565
28027SOL    HW289402  10.682   6.247   3.819  2.9063  0.8855  0.7797
28028SOL     OW89403   2.058   5.899   7.585  0.3685  0.0142 -0.4178
28028SOL    HW189404   2.152   5.914   7.597  0.3848  0.2666 -0.8460
28028SOL    HW289405   2.051   5.852   7.502 -0.0530  2.4214 -1.8381
28029SOL     OW89406   6.539   3.384   4.473  0.3173 -0.2324 -0.7870
28029SOL    HW189407   6.479   3.451   4.505  0.1983 -0.4070 -0.6398
28029SOL    HW289408   6.621   3.431   4.459  0.8252 -0.4238  1.2475
28030SOL     OW89409   9.289   0.351   1.655  0.3910 -0.0463 -0.4135
28030SOL    HW189410   9.220   0.328   1.593  0.3462 -1.2233  0.0522
28030SOL    HW289411   9.328   0.267   1.681  0.8565  0.4709  0.6369
28031SOL     OW89412   6.250  11.654   4.919  0.2178  0.5969 -0.2200
28031SOL    HW189413   6.336  11.696   4.907  0.3621  0.0665 -1.0678
28031SOL    HW289414   6.197  11.686   4.846  0.8394 -1.9723 -1.9302
28032SOL     OW89415   3.833   8.998  10.947  0.4149 -0.2046 -1.1483
28032SOL    HW189416   3.911   9.018  10.999 -0.4971 -0.2789  0.2999
28032SOL    HW289417   3.850   8.910  10.913 -0.5119 -1.8598  2.2282
28033SOL     OW89418   4.668   9.313   4.100  0.2733  0.3209 -0.1628
28033SOL    HW189419   4.685   9.373   4.027  2.1476  0.2273  0.1505
28033SOL    HW289420   4.731   9.339   4.167  0.3548 -1.2866  0.4176
28034SOL     OW89421   4.921   4.416   8.168 -0.2642  0.2915 -0.1138
28034SOL    HW189422   4.903   4.422   8.074 -1.1199  1.8669  0.1069
28034SOL    HW289423   4.862   4.480   8.208 -1.0838 -1.4598  1.6739
28035SOL     OW89424   1.872   8.710   8.390 -0.3025 -0.4856 -0.1289
28035SOL    HW189425   1.952   8.760   8.377 -0.3886 -0.7537 -1.8614
28035SOL    HW289426   1.801   8.772   8.372 -0.4129 -1.0620 -1.8742
28036SOL     OW89427   5.050   9.860   0.119  0.3360 -0.1843 -0.6969
28036SOL    HW189428   5.038   9.883   0.027 -1.5071  0.4882 -0.3240
28036SOL    HW289429   4.973   9.896   0.164  0.4400 -1.7709  0.8916
28037SOL     OW89430   3.749   0.583   9.574  0.1397 -0.1536  0.5474
28037SOL    HW189431   3.688   0.611   9.505  0.3893 -1.5062 -0.2588
28037SOL    HW289432   3.708   0.506   9.613  0.8701 -0.5072  0.6396
28038SOL     OW89433  11.807   1.292   2.684 -0.2078  0.3466 -0.1181
28038SOL    HW189434  11.772   1.209   2.716 -0.1019  0.6678  0.8643
28038SOL    HW289435  11.807   1.283   2.589 -1.0008 -0.4487 -0.0554
28039SOL     OW89436   9.307   7.853   7.814  0.0269  0.4201  0.3075
28039SOL    HW189437   9.314   7.947   7.803  3.0947  0.2086 -0.6175
28039SOL    HW289438   9.261   7.822   7.736  1.5654  0.9784 -0.8824
28040SOL     OW89439  11.598   9.721   2.951 -0.1256 -1.0625 -0.3530
28040SOL    HW189440  11.609   9.762   3.037 -0.7093 -2.0784  0.2326
28040SOL    HW289441  11.506   9.738   2.928 -0.5692 -2.5185  0.1942
28041SOL     OW89442   1.157   8.921   7.692  0.8094 -0.3875 -0.2020
28041SOL    HW189443   1.154   9.001   7.746  1.5370  0.7838 -1.8135
28041SOL    HW289444   1.226   8.868   7.732 -0.0022 -0.4615  1.1758
28042SOL     OW89445  11.746   5.220   3.205  0.6075  0.2446  0.1789
28042SOL    HW189446  11.782   5.305   3.181 -0.1552  0.6324  0.3907
28042SOL    HW289447  11.800   5.190   3.278  1.1729  0.3271 -0.2032
28043SOL     OW89448   1.461   2.262   9.758  0.4119 -0.0667 -0.1781
28043SOL    HW189449   1.520   2.205   9.807 -1.6297 -0.2629  2.2935
28043SOL    HW289450   1.434   2.329   9.822 -3.4104 -1.0678 -0.4562
28044SOL     OW89451   7.281  10.882  10.532 -0.6476 -0.5135 -0.0103
28044SOL    HW189452   7.366  10.913  10.501 -0.9663  1.6308  1.0611
28044SOL    HW289453   7.221  10.955  10.515 -1.8348 -1.1839  1.1026
28045SOL     OW89454   8.122  11.284   5.095  0.2740 -0.3321 -0.4764
28045SOL    HW189455   8.092  11.369   5.063  0.6092 -0.7649 -2.0415
28045SOL    HW289456   8.068  11.267   5.172 -1.2929  0.3242 -1.3773
28046SOL     OW89457  10.754   3.834   6.362  0.2834 -0.7574 -0.0425
28046SOL    HW189458  10.709   3.890   6.300  0.0266  1.2534  1.8569
28046SOL    HW289459  10.847   3.844   6.340  0.0821 -2.2917 -1.8259
28047SOL     OW89460   2.633   1.138   8.497 -0.0592 -0.0867 -0.1861
28047SOL    HW189461   2.570   1.163   8.429  0.0669 -0.0160 -0.2781
28047SOL    HW289462   2.580   1.099   8.566 -0.4247  1.6023  0.5399
28048SOL     OW89463   0.212   8.722   2.816  0.3184  0.3197 -0.5502
28048SOL    HW189464   0.183   8.810   2.791  1.6336  1.0872  0.5041
28048SOL    HW289465   0.154   8.697   2.888 -0.2215  0.1897 -1.0169
28049SOL     OW89466   2.345  10.742   8.791 -0.5087  0.2146  0.3547
28049SOL    HW189467   2.270  10.797   8.769 -0.5774  0.3460  0.9094
28049SOL    HW289468   2.421  10.800   8.783 -0.6831  0.7538  2.1312
28050SOL     OW89469   3.607   0.354   9.663  0.0578 -0.3114 -0.0398
28050SOL    HW189470   3.575   0.270   9.631  0.9910 -0.3329 -0.9622
28050SOL    HW289471   3.548   0.376   9.735 -2.4501 -0.0347 -2.0391
28051SOL     OW89472   5.644   0.250   7.932 -0.3230  0.2916 -0.0487
28051SOL    HW189473   5.587   0.274   7.860  0.1601 -2.2725 -1.4190
28051SOL    HW289474   5.610   0.166   7.962  1.2394 -0.0991  0.7405
28052SOL     OW89475   0.635   8.871  10.800 -0.1752 -0.1976  0.0671
28052SOL    HW189476   0.647   8.898  10.892  0.8825 -3.7417  1.1189
28052SOL    HW289477   0.637   8.776  10.803  0.1922 -0.4345 -3.7337
28053SOL     OW89478   1.685   5.624   5.029  0.0716  0.6217  0.3391
28053SOL    HW189479   1.600   5.631   4.986 -0.3816  0.4951  1.1905
28053SOL    HW289480   1.745   5.595   4.960 -0.3769  1.6031 -0.4926
28054SOL     OW89481   0.188   5.754   5.849  0.3369  0.0556 -0.1004
28054SOL    HW189482   0.176   5.725   5.940 -0.7259  0.2200 -0.1764
28054SOL    HW289483   0.100   5.756   5.813  0.6964  0.5406 -0.9755
28055SOL     OW89484   3.133   0.210   4.814 -0.2712  0.4028  0.5398
28055SOL    HW189485   3.112   0.200   4.721 -0.2748 -0.8842  0.6580
28055SOL    HW289486   3.146   0.304   4.826  0.4486  0.5106 -0.9170
28056SOL     OW89487   8.955   2.228   2.961 -0.4017  0.3201  0.0343
28056SOL    HW189488   9.000   2.310   2.982  0.1831 -0.1188  0.5496
28056SOL    HW289489   8.928   2.238   2.870  1.4827  0.2813 -0.5771
28057SOL     OW89490   2.721   0.366   1.005  0.3706 -0.0776 -0.0761
28057SOL    HW189491   2.680   0.286   1.038 -0.1137  0.2902  0.2125
28057SOL    HW289492   2.779   0.395   1.076  0.4249 -0.0808 -0.1184
28058SOL     OW89493  10.041   6.721   7.478 -0.7326 -0.5013  0.2430
28058SOL    HW189494  10.018   6.799   7.427  1.4555  0.5674  0.7527
28058SOL    HW289495   9.997   6.733   7.562 -0.0008  0.5090  0.5123
28059SOL     OW89496   7.896   7.237   0.487 -0.1379 -0.7444  0.3789
28059SOL    HW189497   7.914   7.150   0.451  1.0656 -0.7314  0.9328
28059SOL    HW289498   7.981   7.272   0.510 -0.6457  0.4412  0.5276
28060SOL     OW89499   7.880   9.690   2.608 -0.2641  0.3828  0.0230
28060SOL    HW189500   7.867   9.734   2.524  1.4056 -1.9968 -1.6292
28060SOL    HW289501   7.831   9.608   2.601  1.8572 -1.0019  0.2764
28061SOL     OW89502   5.029  10.828   2.339  0.0640  0.0340  0.7265
28061SOL    HW189503   5.030  10.897   2.272 -1.4573  1.1140  1.7514
28061SOL    HW289504   4.999  10.750   2.292  2.3463 -0.1459 -0.5725
28062SOL     OW89505   1.972   7.910   7.504 -0.2101  0.1936  0.3204
28062SOL    HW189506   1.894   7.903   7.449 -0.5544 -1.4761  0.9701
28062SOL    HW289507   2.045   7.895   7.444 -0.5308 -0.7318  0.1528
28063SOL     OW89508  10.272   9.921   8.354 -0.2013  0.5222  0.6455
28063SOL    HW189509  10.213   9.996   8.351 -0.3840  0.3543 -0.3640
28063SOL    HW289510  10.216   9.848   8.381 -0.2087  0.5816  0.7923
28064SOL     OW89511   6.235   8.900   8.090  0.0355  0.3341 -0.0686
28064SOL    HW189512   6.196   8.829   8.141  0.3371 -0.1443 -0.4874
28064SOL    HW289513   6.187   8.897   8.006  0.5316  0.1517 -0.3519
28065SOL     OW89514   3.621   3.230   6.792 -0.2223  0.1552  0.4906
28065SOL    HW189515   3.682   3.156   6.802  0.0421  0.4362  0.9972
28065SOL    HW289516   3.672   3.296   6.745 -0.3947  0.0924  0.2143
28066SOL     OW89517   4.087   8.458   5.346  0.0471  0.5417  0.3546
28066SOL    HW189518   4.059   8.374   5.309 -2.1636  1.5178 -0.3354
28066SOL    HW289519   4.028   8.472   5.420 -0.5410  2.1282 -0.3919
28067SOL     OW89520   0.037   5.892   1.065  0.6504  0.2112 -0.1097
28067SOL    HW189521  -0.001   5.974   1.098 -0.5294 -0.2754 -0.1921
28067SOL    HW289522   0.017   5.827   1.132 -0.4060 -0.4642 -1.0300
28068SOL     OW89523   7.769   2.305   8.116 -0.1129 -0.1910  0.2000
28068SOL    HW189524   7.810   2.272   8.036  1.9672 -1.4060  1.6876
28068SOL    HW289525   7.725   2.229   8.154  0.0262  0.0577  0.8715
28069SOL     OW89526   1.658   5.353   8.871 -0.1104 -0.1866 -0.0202
28069SOL    HW189527   1.736   5.323   8.917 -0.2618 -2.7511 -1.2270
28069SOL    HW289528   1.587   5.340   8.934  0.0828 -0.7121  0.0977
28070SOL     OW89529   6.630   9.943   7.541  0.3644  0.4579  0.2859
28070SOL    HW189530   6.549   9.928   7.590 -0.0245  0.5332 -0.3247
28070SOL    HW289531   6.633   9.870   7.478  0.9212  0.2911  0.5032
28071SOL     OW89532   9.200   2.357  11.174 -0.2144 -0.1551 -0.3742
28071SOL    HW189533   9.119   2.310  11.155 -0.7179  0.3317  0.5148
28071SOL    HW289534   9.249   2.298  11.231 -0.4148 -0.0045 -0.0459
28072SOL     OW89535   3.203   1.267  11.796  0.4006 -0.3330 -0.2179
28072SOL    HW189536   3.224   1.329  11.726  0.2755 -1.2588 -1.0896
28072SOL    HW289537   3.258   1.191  11.779  2.1990  0.3077  2.0992
28073SOL     OW89538   9.944   1.089   3.726 -0.5056  0.0631  0.2597
28073SOL    HW189539   9.964   1.059   3.815 -0.5492 -2.7957 -0.5960
28073SOL    HW289540   9.855   1.058   3.709  0.6193 -2.3920 -1.8260
28074SOL     OW89541  11.797   2.982   7.246  0.3989  0.7503 -0.1061
28074SOL    HW189542  11.866   2.929   7.205  2.2711  2.6671  0.3978
28074SOL    HW289543  11.807   2.966   7.340 -0.1667  0.6819 -0.0536
28075SOL     OW89544  10.155  10.527  10.620  0.0457 -0.6152 -0.2141
28075SOL    HW189545  10.113  10.450  10.658  0.4574 -0.6668  0.1447
28075SOL    HW289546  10.247  10.501  10.610  0.8908  0.7923  2.6860
28076SOL     OW89547   2.681   9.273   9.871  0.1542  0.5305 -0.1773
28076SOL    HW189548   2.710   9.338   9.807  0.1953  0.2551 -0.4402
28076SOL    HW289549   2.610   9.225   9.826 -1.5684  1.9741  0.8569
28077SOL     OW89550   5.091   7.802   2.788  0.2087 -0.1659 -0.0957
28077SOL    HW189551   5.069   7.841   2.703  2.4118 -0.4251 -0.8519
28077SOL    HW289552   5.037   7.850   2.851 -0.7254  0.7396 -1.5262
28078SOL     OW89553  10.986  11.757   0.129 -0.2112 -0.1231  0.2717
28078SOL    HW189554  10.932  11.801   0.195  0.7145 -0.5845  1.3921
28078SOL    HW289555  11.057  11.819   0.112  0.5637 -0.7389  1.1285
28079SOL     OW89556   6.126   7.533   1.677 -0.0492 -0.2143  0.3375
28079SOL    HW189557   6.146   7.532   1.771  1.4311 -0.3159  0.0355
28079SOL    HW289558   6.042   7.579   1.671 -0.1500 -0.1825  1.7044
28080SOL     OW89559   7.421   4.298   3.635  0.2922 -0.3635 -1.0353
28080SOL    HW189560   7.472   4.220   3.613 -0.5228 -0.9668 -0.8010
28080SOL    HW289561   7.399   4.337   3.550  2.4276  0.7874 -1.1507
28081SOL     OW89562   0.123   4.585   4.059 -0.3655 -0.5035 -0.2547
28081SOL    HW189563   0.092   4.615   4.145 -0.1995  1.6364 -0.8730
28081SOL    HW289564   0.050   4.601   4.001 -0.2532 -1.3442 -0.6318
28082SOL     OW89565   7.830   4.408   0.927 -0.0597  0.7330 -0.2253
28082SOL    HW189566   7.767   4.427   0.996  0.5309 -0.3121  0.6285
28082SOL    HW289567   7.793   4.334   0.879  0.3046  0.3901  0.0136
28083SOL     OW89568   0.080   4.647   8.466  0.3754  0.3154 -0.1364
28083SOL    HW189569   0.011   4.628   8.402 -1.2201  0.0091  1.5751
28083SOL    HW289570   0.041   4.714   8.523  1.5733  0.2670  0.7782
28084SOL     OW89571   4.693  10.930   0.686 -0.7953  0.5343  0.3726
28084SOL    HW189572   4.724  10.987   0.615  0.3938  0.7486  1.0392
28084SOL    HW289573   4.740  10.848   0.672 -3.2676 -0.7194 -1.1953
28085SOL     OW89574   1.000   7.241   5.906 -0.2521 -0.4252  0.4369
28085SOL    HW189575   0.952   7.159   5.915 -1.3825  0.1005 -0.5058
28085SOL    HW289576   1.006   7.276   5.995 -0.2384 -1.2532  0.7687
28086SOL     OW89577   9.466   3.890   5.637 -0.5398 -0.5126 -0.1971
28086SOL    HW189578   9.417   3.898   5.556 -0.1756 -0.8571 -0.4537
28086SOL    HW289579   9.453   3.799   5.664 -0.1984 -0.5541 -0.1668
28087SOL     OW89580   3.156   5.127   6.649 -0.3072  0.0582 -0.2169
28087SOL    HW189581   3.221   5.093   6.588 -1.4472 -2.4671 -0.1063
28087SOL    HW289582   3.191   5.213   6.675  1.1957  0.3410 -2.8170
28088SOL     OW89583   7.590  11.719   9.566  0.4689 -0.4837  0.2402
28088SOL    HW189584   7.589  11.774   9.645  0.3547 -1.6799  1.1018
28088SOL    HW289585   7.655  11.760   9.509  1.2633 -0.1291  1.3620
28089SOL     OW89586   2.075   4.521   8.590  0.0089  0.1074  0.1679
28089SOL    HW189587   2.044   4.431   8.597  0.6442 -0.2357 -1.1403
28089SOL    HW289588   2.076   4.539   8.496  2.5559  0.5159  0.1968
28090SOL     OW89589   2.113   1.706   2.309 -0.2874  0.3232  0.1410
28090SOL    HW189590   2.092   1.690   2.402  1.8583 -0.3967  0.5444
28090SOL    HW289591   2.028   1.698   2.265 -1.2157 -0.3041  1.9093
28091SOL     OW89592   5.849   0.955   4.350 -0.3246 -0.3063  0.2323
28091SOL    HW189593   5.822   1.023   4.289 -0.3368 -1.4982 -1.1286
28091SOL    HW289594   5.807   0.979   4.433  0.4498  1.8587  0.0677
28092SOL     OW89595   5.003  10.642  11.643 -0.1219 -0.2652 -0.2154
28092SOL    HW189596   4.949  10.593  11.581 -0.0729  0.4882 -0.8704
28092SOL    HW289597   4.941  10.701  11.687  0.3874  2.2529 -2.5664
28093SOL     OW89598  11.819   2.225   2.335 -0.1812 -0.1073 -0.4961
28093SOL    HW189599  11.856   2.175   2.407  0.2237  0.6490 -0.1607
28093SOL    HW289600  11.753   2.168   2.296  0.2904 -0.8979 -0.1487
28094SOL     OW89601   3.087   6.713   8.239  0.2390 -0.1169  0.1307
28094SOL    HW189602   2.992   6.727   8.246  0.0397 -0.0471 -1.9654
28094SOL    HW289603   3.125   6.800   8.252  0.3819 -0.5916  4.3226
28095SOL     OW89604   2.942   3.056  10.572 -0.2010 -0.8000  0.6314
28095SOL    HW189605   2.985   3.125  10.522  2.0293 -0.9447  2.2058
28095SOL    HW289606   2.916   3.098  10.654  0.9341 -1.7208  1.4932
28096SOL     OW89607   4.784   4.784   0.446  0.0418 -0.4634  0.3341
28096SOL    HW189608   4.750   4.832   0.522 -0.3747 -0.4102  0.1172
28096SOL    HW289609   4.878   4.777   0.463 -0.0665 -0.5863  0.9285
28097SOL     OW89610   4.563   6.468   3.776 -0.4066 -0.9692 -0.0581
28097SOL    HW189611   4.579   6.560   3.751  1.2909 -1.2018  0.0394
28097SOL    HW289612   4.503   6.474   3.850  0.4562  0.1386  0.5902
28098SOL     OW89613   4.758   5.488   9.227 -0.2733 -0.5093 -0.5438
28098SOL    HW189614   4.804   5.476   9.310 -1.1697  0.3937  0.1117
28098SOL    HW289615   4.828   5.505   9.163  0.4310 -1.3373 -0.0111
28099SOL     OW89616  10.325   0.781  11.203 -0.9360 -0.1750 -0.1858
28099SOL    HW189617  10.373   0.778  11.121 -0.0954  1.3007  0.2191
28099SOL    HW289618  10.378   0.730  11.264 -0.1160  0.9798  0.1116
28100SOL     OW89619   0.209   6.803   2.443 -0.0548  0.0671  0.0711
28100SOL    HW189620   0.181   6.724   2.397  0.4286 -1.0968  1.7109
28100SOL    HW289621   0.265   6.772   2.514 -1.7062  1.6510  2.2070
28101SOL     OW89622   6.846   8.437   2.591 -0.3419  0.1725 -0.1932
28101SOL    HW189623   6.876   8.420   2.680 -2.6765 -1.8481  0.3287
28101SOL    HW289624   6.902   8.384   2.536  0.9045  1.1782  0.0612
28102SOL     OW89625   9.321   9.665   3.655 -0.6546 -0.3973 -0.2710
28102SOL    HW189626   9.411   9.634   3.665 -0.6123 -0.5361 -1.0302
28102SOL    HW289627   9.324   9.726   3.582 -0.9427  0.6180  0.5424
28103SOL     OW89628   2.322   1.712   1.730 -0.2645 -0.0085 -0.3475
28103SOL    HW189629   2.380   1.719   1.806  0.0712 -2.0035 -0.3862
28103SOL    HW289630   2.245   1.665   1.762 -0.3585 -0.3874 -1.1144
28104SOL     OW89631   0.758   3.341  11.703  0.2558 -0.0286 -0.5793
28104SOL    HW189632   0.715   3.425  11.722 -0.6905 -1.0187  2.0087
28104SOL    HW289633   0.686   3.280  11.685  0.7290 -0.9454  0.5303
28105SOL     OW89634   1.738   7.810  10.788  0.2178  0.0820  0.1306
28105SOL    HW189635   1.707   7.822  10.698  1.3695 -1.4148 -0.5108
28105SOL    HW289636   1.695   7.879  10.837 -1.5458  0.0825 -1.2962
28106SOL     OW89637   2.697   0.717   9.763  0.6077  0.4730 -0.4746
28106SOL    HW189638   2.696   0.781   9.834  0.3801  2.5560 -2.2463
28106SOL    HW289639   2.619   0.664   9.778 -1.1358  2.7933 -0.7472
28107SOL     OW89640   4.324   0.911   3.972 -0.2707  0.6984  0.0521
28107SOL    HW189641   4.389   0.980   3.984  0.3820  0.0221  0.4713
28107SOL    HW289642   4.242   0.952   4.001 -0.1236  1.6844 -0.8637
28108SOL     OW89643   7.880   1.836   8.602 -0.2958 -0.1310 -0.3197
28108SOL    HW189644   7.848   1.909   8.549  0.3148  0.6133  0.3115
28108SOL    HW289645   7.976   1.841   8.593  0.0411  1.6306  2.8362
28109SOL     OW89646   7.139   7.830   5.603  0.0077 -0.3407 -0.1642
28109SOL    HW189647   7.200   7.882   5.655 -1.1998 -0.6073  1.6533
28109SOL    HW289648   7.053   7.850   5.641 -0.8822 -0.9828 -1.7446
28110SOL     OW89649   8.732   5.219   4.998 -0.5285 -0.7410  0.1550
28110SOL    HW189650   8.781   5.293   5.034 -0.7559 -1.1320  1.3238
28110SOL    HW289651   8.751   5.221   4.904 -0.5364  0.7918  0.1547
28111SOL     OW89652   6.573   9.771   7.955  0.2106  0.0875  0.2561
28111SOL    HW189653   6.546   9.749   8.044  0.2840 -0.9552  0.0386
28111SOL    HW289654   6.522   9.849   7.933 -1.3929 -0.8671  0.4540
28112SOL     OW89655   1.839  10.840   8.880 -0.2641 -0.1233 -0.1221
28112SOL    HW189656   1.884  10.914   8.838 -0.0494  0.1202  0.5328
28112SOL    HW289657   1.749  10.870   8.890 -0.4112 -0.3310 -0.7557
28113SOL     OW89658   0.993   7.685   4.288  0.5217  0.0631 -0.1328
28113SOL    HW189659   0.967   7.741   4.215 -0.0123  0.2009  0.1539
28113SOL    HW289660   1.087   7.673   4.277  0.6926  1.2167 -0.0671
28114SOL     OW89661   2.595   2.121  10.020  0.0756  0.2849 -0.6781
28114SOL    HW189662   2.642   2.162  10.093 -1.1373  1.3943 -0.4824
28114SOL    HW289663   2.626   2.031  10.019  0.8298  0.5070  0.6017
28115SOL     OW89664   0.487   9.334  10.015 -0.6308 -0.1190 -0.4037
28115SOL    HW189665   0.582   9.323  10.002 -0.6308  0.5021 -0.9805
28115SOL    HW289666   0.479   9.420  10.056 -0.8189 -1.0070  1.5517
28116SOL     OW89667   1.834   6.481   8.905 -0.0770 -0.2233  0.4405
28116SOL    HW189668   1.743   6.461   8.926 -0.1686  0.2721  0.5103
28116SOL    HW289669   1.832   6.512   8.814 -0.1554  1.0001  0.8431
28117SOL     OW89670   4.695   7.064   0.153  0.0224 -0.7789 -0.2447
28117SOL    HW189671   4.779   7.064   0.107 -0.6097 -0.6733 -1.4361
28117SOL    HW289672   4.645   6.994   0.111  0.6542 -3.1655  2.6754
28118SOL     OW89673   4.230   9.501  11.115 -0.5641  0.3050 -1.0611
28118SOL    HW189674   4.265   9.432  11.171  0.8909  4.1956  3.4531
28118SOL    HW289675   4.306   9.553  11.089 -1.8975  3.7704  1.2930
28119SOL     OW89676   8.087   1.268  10.488 -0.1059  0.0389 -0.2957
28119SOL    HW189677   8.084   1.175  10.466 -1.8861 -0.3369  1.2970
28119SOL    HW289678   8.129   1.271  10.574 -1.3985  0.5218  0.3465
28120SOL     OW89679   6.756   6.815   7.805 -0.5109 -0.5365 -0.1106
28120SOL    HW189680   6.777   6.871   7.880  0.0975 -2.3204  1.1276
28120SOL    HW289681   6.675   6.771   7.830 -1.9337  1.0157 -1.8112
28121SOL     OW89682   9.814   1.097   8.391 -0.1744 -0.0698 -0.0223
28121SOL    HW189683   9.877   1.046   8.443 -0.2399  0.3335  0.4647
28121SOL    HW289684   9.806   1.049   8.309  1.2887  0.2352 -0.3727
28122SOL     OW89685   8.370   1.119   7.568 -0.3249  0.2635  0.0020
28122SOL    HW189686   8.398   1.052   7.629 -0.8855  0.9401  1.0363
28122SOL    HW289687   8.286   1.086   7.534  0.2547 -0.3733 -0.8492
28123SOL     OW89688   7.026   2.061   9.730  0.2528  0.2890 -0.7093
28123SOL    HW189689   7.056   2.067   9.821 -0.9579  2.0548 -0.3917
28123SOL    HW289690   7.052   2.144   9.691 -0.5923  0.1668 -1.5529
28124SOL     OW89691   7.868   5.070   7.524  0.0702 -0.1813  0.1942
28124SOL    HW189692   7.869   5.139   7.458  0.5284 -1.0391 -0.7196
28124SOL    HW289693   7.775   5.046   7.532 -0.1023  0.5897  0.5863
28125SOL     OW89694   4.107   7.156   5.846 -0.4508 -0.4191  0.1390
28125SOL    HW189695   4.165   7.157   5.771  0.2958 -0.3502  0.7026
28125SOL    HW289696   4.161   7.122   5.918 -0.6439  1.0646  1.0319
28126SOL     OW89697   7.216   6.272   4.739  0.2268  0.0757 -0.6062
28126SOL    HW189698   7.172   6.237   4.661 -0.7419 -1.4453  0.5580
28126SOL    HW289699   7.196   6.208   4.808  0.6599  1.6073  1.0042
28127SOL     OW89700   1.129   4.400   0.950  0.2125 -0.6341 -0.1976
28127SOL    HW189701   1.188   4.453   1.004 -0.0550 -1.7254  1.2325
28127SOL    HW289702   1.086   4.462   0.892  0.9545  0.5002  0.4413
28128SOL     OW89703   8.438   3.635   8.689 -0.4481  0.0245 -0.0112
28128SOL    HW189704   8.365   3.696   8.673  1.3927  2.8629  1.4971
28128SOL    HW289705   8.436   3.620   8.783  0.8967  0.2054  0.0615
28129SOL     OW89706   5.633  11.726   9.277  0.5791 -0.5660 -0.1463
28129SOL    HW189707   5.541  11.741   9.255  0.2251  0.0266  1.6124
28129SOL    HW289708   5.679  11.804   9.247  0.1266  0.1718  1.0280
28130SOL     OW89709   1.789  10.019   8.908 -0.1045  0.4725  0.5407
28130SOL    HW189710   1.865  10.064   8.872 -0.2291  0.1136 -0.1784
28130SOL    HW289711   1.714  10.056   8.861 -0.4011  0.9329  1.3491
28131SOL     OW89712  11.572  11.574   2.396 -0.1003 -0.7278  0.1795
28131SOL    HW189713  11.666  11.593   2.390 -0.2700 -0.0895 -0.6915
28131SOL    HW289714  11.531  11.644   2.345 -0.9871 -1.5460 -0.2420
28132SOL     OW89715   6.796   7.049   1.656  0.0417  0.0871 -0.1603
28132SOL    HW189716   6.748   7.012   1.730 -1.0258  1.0032 -0.3711
28132SOL    HW289717   6.856   7.111   1.695 -2.8319  3.1250 -0.1540
28133SOL     OW89718  10.518   6.068   2.010 -0.2231 -0.3109 -0.9740
28133SOL    HW189719  10.461   6.057   1.934  0.0167  1.1602 -1.3978
28133SOL    HW289720  10.507   6.160   2.035 -1.2160 -1.0238  1.5431
28134SOL     OW89721   5.447   3.494  10.921  0.4196  0.3084 -0.2036
28134SOL    HW189722   5.377   3.556  10.942 -1.2418 -1.8276  1.1108
28134SOL    HW289723   5.407   3.433  10.859  0.6249 -1.6558  1.4777
28135SOL     OW89724   2.132   9.047   6.214 -0.4228  0.6246 -0.3195
28135SOL    HW189725   2.140   9.060   6.309 -0.9176  0.1459 -0.2042
28135SOL    HW289726   2.212   9.001   6.190 -0.8195 -0.2929  0.0736
28136SOL     OW89727   0.441   3.219   7.789 -0.4545  0.9926 -0.5560
28136SOL    HW189728   0.487   3.142   7.757 -1.1371 -0.3545  1.5497
28136SOL    HW289729   0.499   3.256   7.856 -1.9247 -0.1830  1.4477
28137SOL     OW89730   6.024   9.619   2.415  0.0417  0.6709  0.4329
28137SOL    HW189731   5.948   9.659   2.372  0.0622  0.0736 -0.1753
28137SOL    HW289732   6.001   9.526   2.422  0.5773  0.5463  0.5589
28138SOL     OW89733   5.797   9.238   8.079  0.2277  0.1878  0.4544
28138SOL    HW189734   5.831   9.154   8.110  0.5425 -0.3799 -1.3028
28138SOL    HW289735   5.709   9.243   8.117 -0.0192 -1.2213  0.1480
28139SOL     OW89736   4.021   4.403   7.356  0.8710  0.0307 -0.1518
28139SOL    HW189737   3.979   4.468   7.413 -0.1572  0.4281 -1.3033
28139SOL    HW289738   3.990   4.319   7.389 -0.7330  0.3137 -0.8721
28140SOL     OW89739   5.587   1.766  11.350 -0.0442 -0.4614  0.2170
28140SOL    HW189740   5.602   1.857  11.324 -1.9940  0.5662  2.3615
28140SOL    HW289741   5.626   1.759  11.437 -1.9209 -0.9655  1.0605
28141SOL     OW89742   7.240   2.893   5.845  0.0683  0.1976  0.5600
28141SOL    HW189743   7.312   2.955   5.848 -0.9281  1.5834 -1.4113
28141SOL    HW289744   7.177   2.927   5.908 -0.4702  1.2844 -0.5027
28142SOL     OW89745   2.321   4.696   1.391 -0.1476  0.0063  0.4305
28142SOL    HW189746   2.327   4.729   1.301  0.2847  0.6231  0.6825
28142SOL    HW289747   2.360   4.609   1.387 -0.3721 -0.0798 -0.0306
28143SOL     OW89748   3.525   6.839   0.791 -0.1270  0.7957 -0.6713
28143SOL    HW189749   3.565   6.774   0.733 -2.1662  0.2128 -1.4946
28143SOL    HW289750   3.470   6.891   0.733 -3.7063 -0.9442  0.8841
28144SOL     OW89751  10.037   5.526   7.679 -0.0047 -0.1532 -0.2712
28144SOL    HW189752  10.099   5.546   7.750  1.0098 -1.6284 -0.6941
28144SOL    HW289753   9.981   5.457   7.715 -2.3693  2.0282  0.5799
28145SOL     OW89754   2.134   3.878   0.855  0.6284  0.4063  0.3244
28145SOL    HW189755   2.155   3.971   0.845 -1.4897  1.0060  0.9620
28145SOL    HW289756   2.130   3.865   0.950 -0.8929  0.1364  0.2438
28146SOL     OW89757   0.081   3.879   6.884 -0.1942 -0.4688 -0.1147
28146SOL    HW189758   0.098   3.823   6.809  1.1551 -0.0572 -0.1490
28146SOL    HW289759   0.162   3.930   6.895 -0.0422 -1.0477  2.0768
28147SOL     OW89760   6.403   0.359   1.237  0.1533 -0.1817  0.4338
28147SOL    HW189761   6.457   0.437   1.228 -1.2101  0.7596  0.0453
28147SOL    HW289762   6.453   0.289   1.194  0.6187  0.8721 -0.7961
28148SOL     OW89763  11.587   9.018   7.510 -0.1255  0.2840  0.4605
28148SOL    HW189764  11.664   8.995   7.562 -1.0227 -2.3820  0.7895
28148SOL    HW289765  11.551   9.095   7.554  0.0944 -0.8576  2.8116
28149SOL     OW89766  10.884   8.816   2.653 -1.0546 -0.0556 -0.5297
28149SOL    HW189767  10.945   8.742   2.653 -1.3317 -0.2886 -1.1469
28149SOL    HW289768  10.940   8.893   2.645 -0.8793 -0.3115 -1.9244
28150SOL     OW89769   2.169  11.391   5.995 -0.3272  0.6408 -0.2083
28150SOL    HW189770   2.146  11.465   6.051  0.1032  0.1962  0.5679
28150SOL    HW289771   2.113  11.401   5.918  0.4673  2.3654 -0.6121
28151SOL     OW89772   7.706   7.673   7.336 -0.4518 -0.3361  0.1072
28151SOL    HW189773   7.614   7.648   7.324  0.1685 -1.9078 -1.8635
28151SOL    HW289774   7.712   7.760   7.298 -0.6020 -1.3673 -2.4874
28152SOL     OW89775   9.147   1.657  11.589  0.1573 -0.2702  0.3149
28152SOL    HW189776   9.067   1.697  11.623 -0.4433 -0.6691 -0.5908
28152SOL    HW289777   9.160   1.699  11.504 -0.4969 -1.9665 -0.6707
28153SOL     OW89778  10.460   2.026   1.551 -0.6659 -0.2630 -0.4261
28153SOL    HW189779  10.512   2.043   1.472 -1.7738  0.5165 -1.0096
28153SOL    HW289780  10.403   2.102   1.559 -0.4383 -0.2370  1.2598
28154SOL     OW89781  10.183   9.941   9.981 -0.1225  0.0868  0.2787
28154SOL    HW189782  10.108   9.974  10.031 -0.0098  1.3521 -0.3308
28154SOL    HW289783  10.230   9.885  10.042 -1.1988 -0.1883  0.8831
28155SOL     OW89784   6.474   3.014   5.976  0.5246  0.1355  0.4255
28155SOL    HW189785   6.404   3.080   5.982  0.4579  0.0424  0.7316
28155SOL    HW289786   6.459   2.958   6.052  0.6653 -0.1515  0.2403
28156SOL     OW89787   1.257   1.448   4.019  1.0634  0.5417  0.1824
28156SOL    HW189788   1.273   1.541   4.003  1.6392  0.1161 -1.9439
28156SOL    HW289789   1.163   1.442   4.036  0.7655  1.3575 -1.0672
28157SOL     OW89790   7.439  10.931   4.449 -0.2952 -0.3174 -0.0086
28157SOL    HW189791   7.442  10.843   4.488 -0.2012 -0.3194 -0.0210
28157SOL    HW289792   7.363  10.973   4.490  0.1872 -0.0837  0.6742
28158SOL     OW89793   6.288   9.009   5.139 -0.1234 -0.0352 -0.0214
28158SOL    HW189794   6.318   9.010   5.048  0.7704 -1.6659  0.2230
28158SOL    HW289795   6.364   9.039   5.190 -0.1627 -0.4539  0.2927
28159SOL     OW89796   3.595  10.938   3.006  0.0948  0.0349  0.1551
28159SOL    HW189797   3.554  11.024   3.014 -0.4280 -0.2579  0.7299
28159SOL    HW289798   3.634  10.921   3.091 -3.5961 -2.1560  1.6678
28160SOL     OW89799   6.758   3.694  10.414 -0.0379 -0.3706  0.0309
28160SOL    HW189800   6.699   3.768  10.400 -0.5179 -0.6282  0.6551
28160SOL    HW289801   6.774   3.659  10.326  0.6881  0.8353 -0.3506
28161SOL     OW89802   0.804   2.846   0.986 -0.1961  0.3547  0.0399
28161SOL    HW189803   0.830   2.810   1.071  1.8924 -1.2997 -1.2067
28161SOL    HW289804   0.774   2.771   0.936 -1.3059  1.2950 -0.7638
28162SOL     OW89805   8.369   8.718   4.378 -0.6285  0.3159 -0.2266
28162SOL    HW189806   8.460   8.739   4.359 -0.6534 -0.3896 -1.2035
28162SOL    HW289807   8.359   8.734   4.472  0.5099  0.3624 -0.1060
28163SOL     OW89808   3.385   7.569   1.939 -0.3216  0.0752  0.0328
28163SOL    HW189809   3.307   7.543   1.889 -1.7547  1.4755  1.4083
28163SOL    HW289810   3.376   7.664   1.949  0.9337  0.0915  1.2782
28164SOL     OW89811   7.076   0.228   1.289 -0.2604  0.2469 -0.1073
28164SOL    HW189812   7.023   0.177   1.227 -0.2495  0.5124 -0.3364
28164SOL    HW289813   7.024   0.229   1.369  0.8305 -2.2290  0.7195
28165SOL     OW89814   6.406   5.777   0.426  0.1257 -0.9422 -1.2128
28165SOL    HW189815   6.420   5.855   0.373  0.0842  0.9747  1.4282
28165SOL    HW289816   6.310   5.768   0.431  0.0821 -0.0665 -0.0922
28166SOL     OW89817   0.308  11.616   2.578  0.0963 -0.0344 -0.7476
28166SOL    HW189818   0.236  11.556   2.557  0.8645 -0.9354 -0.8826
28166SOL    HW289819   0.284  11.698   2.536 -0.0312 -0.8232 -2.2690
28167SOL     OW89820   6.285   6.378   8.862 -0.4108  0.4852 -0.2041
28167SOL    HW189821   6.291   6.364   8.767 -0.5260 -1.0550 -0.0190
28167SOL    HW289822   6.375   6.370   8.894 -0.3609  1.0867 -0.1934
28168SOL     OW89823   6.090   7.957   3.129  0.0316  0.2875 -0.5553
28168SOL    HW189824   6.022   7.916   3.075  0.4541 -1.6399  0.2638
28168SOL    HW289825   6.067   7.932   3.219  0.6712  1.3800 -0.0660
28169SOL     OW89826   1.624   9.413   3.716 -0.2091 -0.1084 -0.0111
28169SOL    HW189827   1.579   9.441   3.795  0.5939 -0.8659  0.7289
28169SOL    HW289828   1.554   9.405   3.650 -1.1006 -0.8831  1.0008
28170SOL     OW89829   7.021   1.160   4.271 -0.3024  0.1409  0.1505
28170SOL    HW189830   7.107   1.190   4.300 -0.1555 -1.2066  1.2037
28170SOL    HW289831   7.040   1.099   4.199 -0.1044 -2.1307  1.9773
28171SOL     OW89832   2.344   2.969   1.845 -0.1686 -0.6083 -0.4944
28171SOL    HW189833   2.434   3.001   1.853  0.0920 -0.8458 -2.1198
28171SOL    HW289834   2.331   2.915   1.923  0.5052  0.7501  0.6207
28172SOL     OW89835   4.415   8.911   5.463 -0.3563  0.0668  0.5439
28172SOL    HW189836   4.360   8.842   5.500 -1.1637 -0.2945 -1.2116
28172SOL    HW289837   4.504   8.889   5.492 -0.4232 -2.3927 -0.8750
28173SOL     OW89838   1.027   6.299   9.332  0.0556  0.2191  0.0228
28173SOL    HW189839   1.081   6.219   9.333 -1.0950 -0.5956 -0.7326
28173SOL    HW289840   1.078   6.362   9.383  1.4654 -0.6832 -0.2030
28174SOL     OW89841  11.665   8.602   8.615 -0.4445 -0.3738 -0.1280
28174SOL    HW189842  11.601   8.603   8.544  0.0862  1.4975 -0.6097
28174SOL    HW289843  11.627   8.541   8.679 -2.7810  0.7127 -0.3485
28175SOL     OW89844  10.593   6.730   3.465 -0.4991  0.3592  0.0307
28175SOL    HW189845  10.595   6.681   3.547 -0.4948 -2.4414 -1.5275
28175SOL    HW289846  10.500   6.751   3.453 -0.6007  0.1216  0.3717
28176SOL     OW89847   0.264   0.824   4.202 -0.5181 -0.0421 -0.4401
28176SOL    HW189848   0.272   0.823   4.297 -0.4558  1.0481 -0.4256
28176SOL    HW289849   0.352   0.803   4.170 -0.2275  0.8560 -0.2516
28177SOL     OW89850  11.296   4.594  11.122  0.2483  0.2127  0.7735
28177SOL    HW189851  11.232   4.560  11.059 -0.3057  1.6084  0.5500
28177SOL    HW289852  11.261   4.679  11.149  1.9117  0.9369  0.7997
28178SOL     OW89853   8.136   3.217   6.295  0.2373  0.5169 -0.1538
28178SOL    HW189854   8.047   3.197   6.323  0.6230  1.6203  2.0548
28178SOL    HW289855   8.190   3.149   6.336  0.4795  0.0050 -1.2715
28179SOL     OW89856   1.828  10.288   5.018 -0.0375 -0.0494 -0.3170
28179SOL    HW189857   1.734  10.292   5.001 -0.2309 -0.2659  0.6211
28179SOL    HW289858   1.844  10.363   5.076  0.5833  0.6528 -1.3633
28180SOL     OW89859   7.396   6.593   9.651 -0.4174  0.0849 -0.4343
28180SOL    HW189860   7.354   6.558   9.730 -0.6629  0.3915 -0.4231
28180SOL    HW289861   7.469   6.534   9.634 -0.8676 -0.4766 -0.4645
28181SOL     OW89862   5.761   5.395   2.793 -0.6133  0.3469 -0.1513
28181SOL    HW189863   5.746   5.485   2.822  0.7842 -0.5212  3.8142
28181SOL    HW289864   5.678   5.370   2.752 -1.9771  2.6061  1.0160
28182SOL     OW89865   2.173   1.932   3.691  0.6029 -0.0608  0.2764
28182SOL    HW189866   2.254   1.943   3.641 -0.1902  1.2263 -0.7988
28182SOL    HW289867   2.154   1.839   3.686  2.2212 -0.4581  0.9032
28183SOL     OW89868   9.692   2.659   0.331 -0.4290 -0.2631  0.6687
28183SOL    HW189869   9.759   2.699   0.275 -2.9605  1.8636 -1.1120
28183SOL    HW289870   9.697   2.566   0.313  0.6168  0.0972 -1.0877
28184SOL     OW89871   1.830   8.932  11.291  0.3268  0.2229  0.2087
28184SOL    HW189872   1.902   8.952  11.351  0.7641  2.1103 -0.8650
28184SOL    HW289873   1.866   8.867  11.231  0.4461 -0.3531  0.8760
28185SOL     OW89874   9.100   7.218  10.912  0.0825 -0.2535 -0.9166
28185SOL    HW189875   9.188   7.183  10.896  1.5443  1.9210  1.7535
28185SOL    HW289876   9.058   7.151  10.967  0.9885 -0.1912 -0.1214
28186SOL     OW89877   7.628   9.461   2.790  0.4164 -0.0679 -0.3847
28186SOL    HW189878   7.585   9.489   2.870  1.4699  0.1314  0.1351
28186SOL    HW289879   7.557   9.437   2.731 -0.4400  1.3896  0.0102
28187SOL     OW89880   4.438  11.412   0.006 -0.9421  0.0680  0.2220
28187SOL    HW189881   4.464  11.500  -0.019  0.1272  0.4129  2.2999
28187SOL    HW289882   4.504  11.355  -0.035  0.9502  0.6387  2.2646
28188SOL     OW89883   1.157   1.549   4.872  0.3650 -0.8047  0.5604
28188SOL    HW189884   1.248   1.580   4.872  0.5795 -1.3694  1.4959
28188SOL    HW289885   1.143   1.515   4.784  1.4317 -1.7340  0.7346
28189SOL     OW89886  11.792   4.076  10.273 -0.2882  0.1304  0.1999
28189SOL    HW189887  11.740   4.002  10.305  0.6309 -0.4702  0.3268
28189SOL    HW289888  11.727   4.133  10.231 -0.8181 -1.6292 -1.6015
28190SOL     OW89889  10.031   2.171   1.758 -0.6288 -1.0329  0.0062
28190SOL    HW189890  10.071   2.106   1.816 -0.3966  0.0052  1.0473
28190SOL    HW289891  10.063   2.149   1.671  1.1419 -1.0371  0.6227
28191SOL     OW89892   8.243   7.041   7.481  0.7698 -0.1372 -0.6301
28191SOL    HW189893   8.250   6.968   7.420  3.5137 -0.4031 -0.1499
28191SOL    HW289894   8.332   7.051   7.516 -0.0224  2.0008  0.9889
28192SOL     OW89895   7.893   4.822   0.358 -0.6135 -0.3018  0.0875
28192SOL    HW189896   7.906   4.894   0.418 -0.8281 -1.6182  1.7934
28192SOL    HW289897   7.951   4.753   0.390  1.6372 -0.0756 -3.0644
28193SOL     OW89898   9.874   5.208   9.324  0.1331  0.1299 -0.4816
28193SOL    HW189899   9.967   5.226   9.307  0.0143  0.6075 -0.6318
28193SOL    HW289900   9.845   5.156   9.249  1.1627 -3.2160  1.1960
28194SOL     OW89901   1.239   5.037   4.882 -0.2331  0.5718 -0.0081
28194SOL    HW189902   1.318   5.091   4.886 -0.5546  0.9853  1.1540
28194SOL    HW289903   1.270   4.948   4.897  0.0153  0.7482  0.5701
28195SOL     OW89904   1.954   9.896  11.732 -0.6514  0.2115 -0.1749
28195SOL    HW189905   2.005   9.883  11.812 -1.9110  0.4359  0.6951
28195SOL    HW289906   1.906   9.977  11.748 -1.6259 -0.2366 -0.7621
28196SOL     OW89907   4.092   0.346   1.550 -0.5571 -0.0682 -0.0978
28196SOL    HW189908   4.104   0.393   1.632 -0.2326 -1.5568  0.7407
28196SOL    HW289909   4.143   0.396   1.486 -1.0229  1.2500  0.5388
28197SOL     OW89910  10.624   3.287   8.069 -0.7401 -0.2797 -0.1389
28197SOL    HW189911  10.543   3.252   8.031  0.2702 -0.3830 -2.3527
28197SOL    HW289912  10.639   3.368   8.021  0.7919 -0.5734 -0.2007
28198SOL     OW89913   7.012   5.713   6.633  0.0326  0.0394  0.1293
28198SOL    HW189914   6.966   5.633   6.658  0.4040 -0.2215 -0.0003
28198SOL    HW289915   7.100   5.683   6.610  0.1229  0.4649 -0.0862
28199SOL     OW89916   3.313   4.829   4.198 -0.6611 -0.1807  0.5048
28199SOL    HW189917   3.354   4.810   4.114 -1.2522  0.1782  0.1199
28199SOL    HW289918   3.223   4.797   4.189 -0.8551  0.2475  0.8363
28200SOL     OW89919   6.426   3.918  11.793  0.1110  0.3326 -0.1989
28200SOL    HW189920   6.517   3.901  11.817 -0.2554 -0.4084  0.7393
28200SOL    HW289921   6.427   3.925  11.697  1.0351 -0.4362 -0.2564
28201SOL     OW89922   9.215   7.907   5.297  0.3443 -0.3760 -0.1334
28201SOL    HW189923   9.186   7.956   5.374  0.3308 -1.0683  0.3149
28201SOL    HW289924   9.247   7.974   5.237 -0.1323  0.2164  0.2611
28202SOL     OW89925  11.508   3.149   5.562  0.5908 -0.2319  0.3680
28202SOL    HW189926  11.513   3.176   5.470  0.8161 -3.0644 -0.5498
28202SOL    HW289927  11.456   3.217   5.604  0.7986  1.3474 -1.7555
28203SOL     OW89928  11.593   7.611   9.164  0.4217 -0.1332  0.1944
28203SOL    HW189929  11.598   7.559   9.084  0.2726  1.5328 -0.9285
28203SOL    HW289930  11.573   7.547   9.232 -1.7764 -1.3143 -1.4252
28204SOL     OW89931  10.427   3.787   0.153  0.1867 -0.2467  0.0817
28204SOL    HW189932  10.369   3.727   0.106  0.2589 -1.2856  1.2614
28204SOL    HW289933  10.441   3.860   0.093 -2.3552  0.0546 -0.2326
28205SOL     OW89934   0.396   1.909  11.330  0.1029  0.0251 -0.0313
28205SOL    HW189935   0.354   1.993  11.312 -0.9058  0.1593  2.4967
28205SOL    HW289936   0.466   1.930  11.393  2.0718 -0.6313 -1.8733
28206SOL     OW89937   5.706  11.541   6.033  0.1570  0.2527 -0.2369
28206SOL    HW189938   5.689  11.466   5.977  1.7244  0.0540 -0.4878
28206SOL    HW289939   5.619  11.572   6.059 -0.5161 -1.8431  0.1735
28207SOL     OW89940  10.630   9.493   2.898 -0.5713  0.1262  0.0336
28207SOL    HW189941  10.610   9.442   2.976 -0.4033 -0.0815 -0.0590
28207SOL    HW289942  10.570   9.460   2.831 -0.6054  0.1917  0.0314
28208SOL     OW89943   2.922   1.789   5.929 -0.1172  0.0208 -0.0300
28208SOL    HW189944   2.882   1.849   5.992 -0.8479 -0.8051  0.3147
28208SOL    HW289945   2.848   1.752   5.881  0.4372  0.6753 -1.4122
28209SOL     OW89946   2.896  11.567   7.945  0.1096  0.8184  0.0265
28209SOL    HW189947   2.850  11.524   8.017 -1.0007 -1.0905 -1.7037
28209SOL    HW289948   2.839  11.640   7.921 -0.5791  0.2261 -0.1976
28210SOL     OW89949   2.896   1.102   8.148 -0.0906 -0.9011  0.7526
28210SOL    HW189950   2.984   1.134   8.124 -0.2968 -1.9947 -1.7282
28210SOL    HW289951   2.836   1.159   8.099 -0.6800 -1.4568  0.8246
28211SOL     OW89952   0.070   1.985  10.627 -0.2832 -0.3311  0.3922
28211SOL    HW189953   0.131   2.037  10.574 -0.3680 -1.7865 -1.1912
28211SOL    HW289954  -0.016   2.021  10.606 -0.1286  1.0092  1.8169
28212SOL     OW89955  10.620   2.166   5.876  0.0883  0.6533 -0.1572
28212SOL    HW189956  10.689   2.111   5.838  1.1380  0.6153  1.6717
28212SOL    HW289957  10.605   2.234   5.810  0.2128 -0.6489 -1.5802
28213SOL     OW89958   3.154   1.883   8.140  0.6011  0.0351 -0.1638
28213SOL    HW189959   3.232   1.827   8.136  1.0248  0.6342 -0.5554
28213SOL    HW289960   3.189   1.971   8.155 -0.1774 -0.1437  3.7820
28214SOL     OW89961   7.388  10.852   2.065  0.2229 -0.3611  0.1747
28214SOL    HW189962   7.325  10.870   1.995  0.6444 -0.4686 -0.2392
28214SOL    HW289963   7.407  10.938   2.103  0.1116 -0.2801  0.0467
28215SOL     OW89964   3.256   2.832   2.468  0.3545 -0.1968 -0.1710
28215SOL    HW189965   3.271   2.922   2.441  0.8217 -0.1913  0.1042
28215SOL    HW289966   3.287   2.829   2.559 -0.7541 -0.3281  0.2205
28216SOL     OW89967   4.299   7.885   1.331  0.2228  0.0014 -0.0914
28216SOL    HW189968   4.276   7.962   1.279 -1.2447 -0.7909 -0.6753
28216SOL    HW289969   4.300   7.813   1.269 -0.7271 -0.8209  0.8007
28217SOL     OW89970   7.894  10.374   7.921  0.0780  0.4186 -0.4040
28217SOL    HW189971   7.988  10.388   7.912  0.3567 -0.7277  0.4372
28217SOL    HW289972   7.887  10.298   7.979 -1.3672  0.4570 -0.4972
28218SOL     OW89973   3.335   4.476   3.465  0.1999 -0.1848  0.0617
28218SOL    HW189974   3.267   4.444   3.406  0.4644 -0.5472 -0.0449
28218SOL    HW289975   3.405   4.411   3.460  0.4589  0.0662  0.3493
28219SOL     OW89976   5.416   0.613   9.199  0.6107  0.5158  0.3885
28219SOL    HW189977   5.459   0.629   9.283 -0.3361  0.7695  0.8361
28219SOL    HW289978   5.488   0.605   9.136  1.4032 -1.2540  1.4671
28220SOL     OW89979  10.890   4.084   5.759 -0.3673 -0.1918  0.5407
28220SOL    HW189980  10.802   4.046   5.758 -0.3494 -0.2462  1.1162
28220SOL    HW289981  10.949   4.011   5.777  0.0730 -0.6789 -2.3848
28221SOL     OW89982   9.703   0.733  10.278 -0.0787 -0.0689  0.0952
28221SOL    HW189983   9.664   0.758  10.361 -0.4247  1.1613 -0.4165
28221SOL    HW289984   9.750   0.811  10.248  2.4672 -1.3295  0.4690
28222SOL     OW89985   6.324   6.747   0.235  0.4168 -0.4472 -0.2491
28222SOL    HW189986   6.418   6.762   0.243  0.5677 -1.3766 -0.1908
28222SOL    HW289987   6.284   6.821   0.281  1.1540 -1.0863  1.4744
28223SOL     OW89988   0.965   6.456   5.014 -0.2652  0.2911  0.1596
28223SOL    HW189989   0.880   6.496   4.996  0.0058 -0.1271 -2.3361
28223SOL    HW289990   0.950   6.362   5.003  0.4607  0.1876  0.0448
28224SOL     OW89991   3.563   1.105   1.588 -0.1593 -0.0431 -0.1121
28224SOL    HW189992   3.586   1.139   1.674  1.5959 -0.6726 -0.2896
28224SOL    HW289993   3.609   1.161   1.526 -1.0598  0.1406 -0.6299
28225SOL     OW89994   2.440  10.981   9.223  0.3718  0.0686 -0.1807
28225SOL    HW189995   2.420  11.063   9.178 -0.7750 -0.1842 -0.1404
28225SOL    HW289996   2.437  10.915   9.154  0.6207 -0.0456 -0.0853
28226SOL     OW89997   5.491   2.555   9.007 -0.1844  0.4316  0.0282
28226SOL    HW189998   5.398   2.531   9.009 -0.1480  0.3326  1.2745
28226SOL    HW289999   5.509   2.575   8.915 -0.5682 -2.8395 -0.8679
28227SOL     OW90000   1.108   4.724  10.532  0.7733  0.7423 -0.2379
28227SOL    HW190001   1.174   4.774  10.580  0.0163  1.2803  0.2758
28227SOL    HW290002   1.094   4.646  10.585 -0.4903  1.6144  0.7745
28228SOL     OW90003   9.461   5.301   0.727 -0.0376  0.1219 -0.2003
28228SOL    HW190004   9.509   5.238   0.780 -0.3950  0.1384  0.1534
28228SOL    HW290005   9.528   5.346   0.676  0.0741 -1.7285 -1.7941
28229SOL     OW90006   1.639   3.350   9.828  0.5089  0.2118  0.0474
28229SOL    HW190007   1.602   3.358   9.740  0.3606  1.8104  0.2313
28229SOL    HW290008   1.723   3.306   9.814  0.7296  0.9162 -0.9666
28230SOL     OW90009   1.886   6.957   3.294 -0.5873  0.2025  0.1176
28230SOL    HW190010   1.867   7.025   3.229 -1.2295 -0.7152 -0.6880
28230SOL    HW290011   1.860   6.996   3.378  1.8192  2.0523  0.1359
28231SOL     OW90012   2.568   3.666   3.651 -0.2845 -0.2735 -0.0423
28231SOL    HW190013   2.594   3.746   3.606 -1.3755 -0.2837 -0.7400
28231SOL    HW290014   2.602   3.595   3.597 -1.0536 -0.2808 -0.5335
28232SOL     OW90015   3.037   2.209   7.078  0.5202  0.6211 -0.3322
28232SOL    HW190016   3.011   2.300   7.067 -0.3919  0.3336 -0.6891
28232SOL    HW290017   2.979   2.175   7.147 -0.0760 -0.0294 -1.1276
28233SOL     OW90018   2.434   9.144   6.180 -0.2298  0.4535 -0.3415
28233SOL    HW190019   2.484   9.114   6.104 -1.1155 -0.1007 -0.7156
28233SOL    HW290020   2.501   9.170   6.243  0.6037 -1.8842 -0.1693
28234SOL     OW90021   0.782   9.673  10.023 -0.0145 -0.1382 -0.4758
28234SOL    HW190022   0.806   9.763  10.042  1.6840 -0.2175 -1.9831
28234SOL    HW290023   0.797   9.664   9.929  0.6993 -2.2100 -0.2119
28235SOL     OW90024  10.336   2.151   9.374 -1.0034  0.3753 -0.3871
28235SOL    HW190025  10.312   2.059   9.384 -0.1163  0.2066  0.3346
28235SOL    HW290026  10.403   2.165   9.441 -0.5995  1.3523 -0.9874
28236SOL     OW90027   1.783   2.546   7.424 -0.6468  0.2994  0.1458
28236SOL    HW190028   1.878   2.540   7.426 -0.5801  1.2930  0.8715
28236SOL    HW290029   1.762   2.563   7.332 -0.0747  0.6702  0.0789
28237SOL     OW90030   4.378   9.937   5.454 -0.1100 -0.3840  0.4066
28237SOL    HW190031   4.374  10.033   5.454 -0.5540 -0.3893  1.6152
28237SOL    HW290032   4.472   9.917   5.458 -0.0510  0.0051  0.9861
28238SOL     OW90033   5.503   0.679   7.841  0.6289 -0.2097 -0.7149
28238SOL    HW190034   5.425   0.668   7.895  0.2236  2.5061 -0.6534
28238SOL    HW290035   5.470   0.681   7.751  0.8138 -0.4863 -0.7908
28239SOL     OW90036  11.513   8.654   4.526 -0.1631 -0.3184 -0.4229
28239SOL    HW190037  11.566   8.706   4.586 -1.9933  0.5597  0.5099
28239SOL    HW290038  11.571   8.637   4.451  1.3241  0.8154  0.4185
28240SOL     OW90039  10.689   6.900   6.715 -0.3190 -0.4178 -0.1501
28240SOL    HW190040  10.713   6.813   6.748 -1.4451 -0.7217 -0.1008
28240SOL    HW290041  10.761   6.957   6.744  0.0398 -1.1744  0.5032
28241SOL     OW90042   2.810   9.311   5.207  0.7260  0.1338  0.8890
28241SOL    HW190043   2.880   9.291   5.145  0.2508 -0.2005  0.4532
28241SOL    HW290044   2.730   9.278   5.165  0.6341 -2.0456  2.5892
28242SOL     OW90045   4.535  10.103   9.780 -0.5509 -0.4858  0.3483
28242SOL    HW190046   4.543  10.122   9.687  2.4054 -2.8312 -0.0408
28242SOL    HW290047   4.477  10.027   9.785  0.0947 -1.0004  0.2555
28243SOL     OW90048   2.115   7.339  11.132  0.5113  0.2656 -0.6672
28243SOL    HW190049   2.114   7.415  11.073  3.3114  0.2751 -0.8460
28243SOL    HW290050   2.186   7.284  11.099  0.6162 -0.8882  1.3375
28244SOL     OW90051   5.222   8.025   9.969 -0.1124 -0.5875  0.4191
28244SOL    HW190052   5.164   7.980   9.907  1.6245 -0.3751 -1.4731
28244SOL    HW290053   5.280   7.956  10.002  0.2763 -0.3528  0.2353
28245SOL     OW90054   4.841   1.580   2.039 -0.4019  0.3888 -0.7265
28245SOL    HW190055   4.928   1.550   2.065 -0.6923 -0.9992 -1.2381
28245SOL    HW290056   4.783   1.547   2.108 -0.7821 -0.6729 -1.5156
28246SOL     OW90057  10.178  10.530   4.126 -0.6594 -0.0733  0.0898
28246SOL    HW190058  10.143  10.518   4.038 -1.0212 -0.2262  0.2486
28246SOL    HW290059  10.246  10.596   4.117 -1.3809  0.6589 -0.1464
28247SOL     OW90060   5.700   4.176   7.973  0.3903 -0.4052 -0.0307
28247SOL    HW190061   5.647   4.256   7.975  2.0200  0.7198  0.1399
28247SOL    HW290062   5.722   4.164   7.881  0.2672 -0.5928 -0.0377
28248SOL     OW90063   3.133   6.530  11.175  0.3159 -0.1735  0.0521
28248SOL    HW190064   3.071   6.477  11.225 -2.1828  1.3510 -1.2298
28248SOL    HW290065   3.165   6.595  11.237  1.9453 -1.9263  1.1362
28249SOL     OW90066   5.158   4.910   7.709  0.2715  0.2384 -0.1813
28249SOL    HW190067   5.072   4.949   7.723 -0.0497 -0.7421  0.7454
28249SOL    HW290068   5.190   4.950   7.628 -0.6366  1.3289 -0.0271
28250SOL     OW90069  10.577  10.167   8.069  0.5674  0.0890 -0.2701
28250SOL    HW190070  10.612  10.203   8.151  0.8303  0.1108 -0.3935
28250SOL    HW290071  10.493  10.129   8.095  1.7200 -2.0695  0.5035
28251SOL     OW90072  10.311   6.820   0.856  0.0805 -0.2178 -0.3631
28251SOL    HW190073  10.372   6.775   0.915 -0.7173 -1.5283 -0.4995
28251SOL    HW290074  10.342   6.798   0.768 -0.1342 -0.2462 -0.4319
28252SOL     OW90075   0.308   4.453   1.222  0.3056 -0.2441  0.4433
28252SOL    HW190076   0.245   4.522   1.200  0.6766  0.7166  2.2286
28252SOL    HW290077   0.266   4.402   1.291  0.9570 -0.3816  0.7523
28253SOL     OW90078  11.729   5.575   8.156  0.2303  0.7404  0.3569
28253SOL    HW190079  11.735   5.561   8.251  1.7427 -0.2321  0.1560
28253SOL    HW290080  11.799   5.637   8.136  0.8970 -0.1912 -0.3017
28254SOL     OW90081   5.621   7.513   1.913 -0.0366 -0.4452  0.3149
28254SOL    HW190082   5.648   7.589   1.861  0.4178 -0.5967  0.3263
28254SOL    HW290083   5.703   7.473   1.942 -0.1973 -2.0438 -1.2548
28255SOL     OW90084   1.516   7.970   1.889  0.1947 -0.3795  1.1087
28255SOL    HW190085   1.578   7.917   1.940  0.4335  0.3728  1.6261
28255SOL    HW290086   1.493   7.915   1.815  0.7097 -1.0687  1.4432
28256SOL     OW90087  10.195   0.963   5.997  0.2321 -0.0529  0.5857
28256SOL    HW190088  10.148   1.046   5.987  0.3950 -0.0295 -0.0394
28256SOL    HW290089  10.176   0.915   5.917  1.1478 -0.1010  0.3825
28257SOL     OW90090   0.614   2.243   4.379  0.4155 -0.3636 -0.3585
28257SOL    HW190091   0.676   2.248   4.306  0.0747 -1.8065 -0.7919
28257SOL    HW290092   0.669   2.246   4.457  0.8992 -0.1191 -0.7009
28258SOL     OW90093   0.956  11.388  10.942 -0.5826 -0.1776  0.5566
28258SOL    HW190094   0.896  11.371  11.014 -0.7877 -1.9168  0.0125
28258SOL    HW290095   1.009  11.309  10.935  1.0020  0.8704  0.2673
28259SOL     OW90096   3.123   4.960   2.700  0.4190  0.0200  0.0666
28259SOL    HW190097   3.216   4.982   2.693  1.4020 -3.0904  1.3942
28259SOL    HW290098   3.104   4.906   2.623  0.2971 -0.9349  0.7346
28260SOL     OW90099   5.146   0.551   3.309  0.1890  0.0822  0.0634
28260SOL    HW190100   5.133   0.645   3.319 -0.5119 -0.0558  0.5096
28260SOL    HW290101   5.130   0.533   3.217 -0.2099  0.3174  0.0877
28261SOL     OW90102   3.303   5.770   0.200  0.2642  0.1651  0.3622
28261SOL    HW190103   3.225   5.715   0.199  1.1008 -1.0816  0.7179
28261SOL    HW290104   3.278   5.847   0.251  0.1584 -1.6635  3.3161
28262SOL     OW90105   4.805   9.863   5.002 -0.2771 -0.2642 -0.1362
28262SOL    HW190106   4.873   9.856   5.069  1.4354 -0.6709 -1.8268
28262SOL    HW290107   4.783   9.956   5.001  0.8879  0.0333 -0.1187
28263SOL     OW90108   7.149  10.350   6.423  0.6425 -0.7273  0.1268
28263SOL    HW190109   7.107  10.402   6.355  1.1474 -0.2353  0.1820
28263SOL    HW290110   7.093  10.359   6.500  1.5176  1.0364  0.6070
28264SOL     OW90111  11.652   0.283   8.599  0.3844  0.1420 -0.1217
28264SOL    HW190112  11.583   0.315   8.656  0.2348 -0.3448 -0.0265
28264SOL    HW290113  11.606   0.249   8.522  0.4202 -1.2248  0.4278
28265SOL     OW90114   5.189   3.733   8.920  0.0434  0.1856 -0.1727
28265SOL    HW190115   5.182   3.671   8.847 -0.2919 -0.7572  0.6293
28265SOL    HW290116   5.244   3.804   8.887  1.8165 -1.3191 -0.6181
28266SOL     OW90117   1.814  11.682   6.578  0.0665  0.0371  0.0522
28266SOL    HW190118   1.846  11.752   6.521  1.3480  0.3663  1.1194
28266SOL    HW290119   1.721  11.672   6.555  0.9223 -1.2803 -3.5450
28267SOL     OW90120   6.226   2.096   6.144 -0.0485  0.0515  0.0217
28267SOL    HW190121   6.200   2.136   6.227 -0.1662  0.3622 -0.1627
28267SOL    HW290122   6.277   2.019   6.169  2.1488  1.5561  0.3914
28268SOL     OW90123   2.286   6.476   0.323  0.0956 -0.0662  0.2807
28268SOL    HW190124   2.359   6.527   0.359  0.3510 -0.1228 -0.1518
28268SOL    HW290125   2.247   6.533   0.257  0.9803 -0.7802 -0.8914
28269SOL     OW90126   0.586   7.164   0.087  0.0933  0.2522  0.3942
28269SOL    HW190127   0.617   7.193   0.001 -0.3911 -0.2082  0.0565
28269SOL    HW290128   0.507   7.216   0.103  1.8486  2.6171  1.9906
28270SOL     OW90129   8.884   1.692   4.020 -0.4207 -0.4451  0.3256
28270SOL    HW190130   8.850   1.773   3.980 -1.2904 -1.1303 -0.3550
28270SOL    HW290131   8.976   1.689   3.992 -0.8481 -0.6030 -1.1965
28271SOL     OW90132   8.639   4.103   9.724  0.1522 -0.1485 -0.4052
28271SOL    HW190133   8.606   4.023   9.683 -0.1715  0.6491 -1.7670
28271SOL    HW290134   8.619   4.172   9.661 -0.4829  1.1732  1.1782
28272SOL     OW90135   9.677   3.720   2.459 -0.6519 -0.0508 -0.7022
28272SOL    HW190136   9.628   3.800   2.441 -1.2947 -0.4822 -0.9427
28272SOL    HW290137   9.736   3.710   2.384 -0.8181  0.0191 -0.8428
28273SOL     OW90138   2.473   0.302   9.574  0.2469 -0.0706 -0.3865
28273SOL    HW190139   2.397   0.247   9.557  0.9679 -0.8215 -1.2509
28273SOL    HW290140   2.503   0.331   9.487 -0.3903  2.0945  0.0520
28274SOL     OW90141  10.209   6.319   5.795  0.5562 -0.4961  0.3278
28274SOL    HW190142  10.287   6.299   5.847 -1.0634 -2.4570  2.1667
28274SOL    HW290143  10.184   6.407   5.821  0.4397 -1.0189  2.0756
28275SOL     OW90144   2.245  11.504  11.715  0.2479  0.2449 -0.2431
28275SOL    HW190145   2.263  11.513  11.808  2.2687 -1.7878 -0.3415
28275SOL    HW290146   2.196  11.423  11.707 -1.2388  1.1671 -0.8565
28276SOL     OW90147   6.319   9.326   6.195  0.5178 -0.2701  0.0382
28276SOL    HW190148   6.263   9.255   6.226  0.1406  0.6764  1.6505
28276SOL    HW290149   6.393   9.282   6.154 -0.4574 -1.5623 -0.4020
28277SOL     OW90150   9.345   9.056   5.272 -0.3815 -0.1614 -0.1459
28277SOL    HW190151   9.361   9.050   5.178  0.3650 -0.2630 -0.0117
28277SOL    HW290152   9.395   9.132   5.300 -0.9906  0.1591  0.0912
28278SOL     OW90153   6.101   9.967   8.644  0.2621  0.5279  0.2784
28278SOL    HW190154   6.110   9.874   8.621  0.4083  0.7632 -0.6399
28278SOL    HW290155   6.160   9.979   8.719  0.0779 -0.1682  0.5410
28279SOL     OW90156   8.452   6.985   9.478 -1.0445 -0.4221 -0.1547
28279SOL    HW190157   8.506   6.907   9.496 -1.6540 -0.6096  0.9583
28279SOL    HW290158   8.394   6.958   9.407 -1.7975 -1.2839  0.7480
28280SOL     OW90159   6.257  11.315   4.259  0.2280  0.7047 -0.2811
28280SOL    HW190160   6.313  11.250   4.217 -0.6526  0.5287 -1.2122
28280SOL    HW290161   6.168  11.286   4.241 -0.1744  1.2882  0.6908
28281SOL     OW90162   4.670  11.243   7.204 -0.1658  0.5815 -0.0319
28281SOL    HW190163   4.764  11.227   7.211 -0.2759 -0.0440  0.1320
28281SOL    HW290164   4.662  11.337   7.190  0.4275  0.8204  1.1303
28282SOL     OW90165   8.333   8.221  11.779 -0.6596 -0.2301 -0.5784
28282SOL    HW190166   8.408   8.208  11.721  0.1161  0.8250  0.1584
28282SOL    HW290167   8.364   8.283  11.846 -0.7325 -3.0592  2.3430
28283SOL     OW90168   7.904  11.075   5.024 -0.4365  0.2907 -0.0984
28283SOL    HW190169   7.949  11.007   5.075 -0.3312 -0.7113 -1.4713
28283SOL    HW290170   7.974  11.126   4.985 -0.5104  0.4131 -0.0718
28284SOL     OW90171   2.341  11.808   4.770 -0.1061  0.4476 -0.0300
28284SOL    HW190172   2.436  11.812   4.768 -0.0431 -0.0528  1.2995
28284SOL    HW290173   2.320  11.719   4.742  0.0035 -0.6084  2.9882
28285SOL     OW90174  11.531  10.208   0.247  0.2730 -0.5782  0.2370
28285SOL    HW190175  11.530  10.251   0.162  0.8335 -0.1253  0.4562
28285SOL    HW290176  11.440  10.179   0.260  0.1426 -0.4710 -0.4176
28286SOL     OW90177   0.695   6.508   5.733 -0.0390  0.1404 -0.0255
28286SOL    HW190178   0.624   6.562   5.697  1.5805  1.4801 -1.4536
28286SOL    HW290179   0.702   6.534   5.824 -0.8362  0.6217 -0.0964
28287SOL     OW90180   2.428   8.049   7.560  0.2791  0.1578  0.2052
28287SOL    HW190181   2.387   8.037   7.646  2.3733  1.2553  1.4420
28287SOL    HW290182   2.449   7.960   7.531  0.1326 -0.1960  1.1314
28288SOL     OW90183   6.714   5.017   5.626  0.0866  0.2811  0.8100
28288SOL    HW190184   6.669   5.000   5.709 -1.0522 -0.3263  0.0998
28288SOL    HW290185   6.699   5.110   5.610 -0.4340  0.2169  0.8753
28289SOL     OW90186   5.054   4.016   9.540  0.4745  0.5235 -0.1341
28289SOL    HW190187   4.992   4.054   9.602  0.2151 -1.8433  1.1708
28289SOL    HW290188   5.010   3.937   9.508  1.8457  0.1042 -1.0731
28290SOL     OW90189   3.827  10.984  10.746  0.8271  0.2001 -0.4056
28290SOL    HW190190   3.871  10.984  10.830  1.1166  1.7709 -0.5393
28290SOL    HW290191   3.800  10.893  10.733  1.6593 -0.2522  0.9050
28291SOL     OW90192   6.891   3.052   6.265  1.4342 -0.5587  0.1007
28291SOL    HW190193   6.856   2.994   6.197  0.5452 -0.7109  0.6695
28291SOL    HW290194   6.905   3.135   6.221 -0.0846 -0.3659 -0.0585
28292SOL     OW90195   3.639   6.452   2.818 -0.1269  0.4087  0.3804
28292SOL    HW190196   3.582   6.415   2.885 -0.4380  0.2117  0.0146
28292SOL    HW290197   3.660   6.540   2.850 -2.0101  1.1496 -0.2345
28293SOL     OW90198  10.386   1.095   0.161 -0.3812  0.0136  0.0530
28293SOL    HW190199  10.386   1.063   0.252 -1.0193  0.8429  0.3516
28293SOL    HW290200  10.308   1.055   0.122  0.6410 -1.4831 -0.5687
28294SOL     OW90201   9.931   8.004  11.047  0.0848 -0.3764  0.8459
28294SOL    HW190202   9.911   8.087  11.089  0.5471 -0.0120  0.3716
28294SOL    HW290203   9.854   7.985  10.994  0.7575  0.8077 -0.6519
28295SOL     OW90204   7.076   6.888   9.903  0.3442 -0.1498  0.5346
28295SOL    HW190205   7.090   6.806   9.857 -0.7732 -0.9093  1.4795
28295SOL    HW290206   7.000   6.871   9.959  1.0474  1.0258  1.9097
28296SOL     OW90207   2.812   6.709   9.848 -0.4820 -0.2763 -0.1079
28296SOL    HW190208   2.786   6.619   9.865 -3.6115  0.6231  0.4802
28296SOL    HW290209   2.757   6.737   9.775  0.0243  1.3290  0.0700
28297SOL     OW90210   7.913   1.292   7.996 -0.0470  0.4169  0.2861
28297SOL    HW190211   7.923   1.349   7.919 -0.4013 -0.0660 -0.1196
28297SOL    HW290212   8.003   1.263   8.016  0.0832  0.7884  0.2484
28298SOL     OW90213  10.439   7.147   9.703 -0.8416  0.2712  0.6069
28298SOL    HW190214  10.390   7.065   9.707 -0.2106 -0.0676  1.6697
28298SOL    HW290215  10.511   7.130   9.643 -0.1681 -0.2602  1.5552
28299SOL     OW90216   9.285   2.949   0.610  0.0586 -0.1141  0.1051
28299SOL    HW190217   9.198   2.925   0.579  0.0413  1.2394 -0.9896
28299SOL    HW290218   9.341   2.876   0.583 -0.4381 -0.1684 -0.8146
28300SOL     OW90219   6.944   7.332   2.629 -0.0726 -0.8078  0.8205
28300SOL    HW190220   6.934   7.251   2.578 -0.2641  0.2433 -0.8940
28300SOL    HW290221   7.025   7.371   2.597 -1.4052  1.0649 -0.4942
28301SOL     OW90222   5.860  11.280  10.208  0.0555  0.8642 -0.3865
28301SOL    HW190223   5.799  11.346  10.175  0.7643  2.9980  2.2310
28301SOL    HW290224   5.813  11.240  10.282  1.4559  2.0766  1.2391
28302SOL     OW90225   8.802  11.265   8.262 -0.9004 -1.2423 -0.3656
28302SOL    HW190226   8.786  11.360   8.266 -0.0590 -1.0268 -1.3815
28302SOL    HW290227   8.763  11.230   8.342  0.0544  0.1690  0.7727
28303SOL     OW90228   0.509  11.042  10.154  0.0166 -0.5723 -0.0660
28303SOL    HW190229   0.586  11.033  10.211 -0.6565 -1.5003  0.7243
28303SOL    HW290230   0.546  11.062  10.068  1.3832 -4.0187 -0.4446
28304SOL     OW90231   2.048   8.541   7.166  0.4117 -0.0572  0.4138
28304SOL    HW190232   2.000   8.588   7.098  1.5900 -2.0193 -1.9305
28304SOL    HW290233   2.126   8.595   7.182  0.5637  0.0046 -0.4703
28305SOL     OW90234   3.403   0.102   3.330 -0.1390 -0.3164 -0.2644
28305SOL    HW190235   3.307   0.100   3.331 -0.1476 -0.6752  1.5057
28305SOL    HW290236   3.428   0.021   3.286 -0.6429  0.0712 -1.2821
28306SOL     OW90237   5.090   0.813   3.221  0.2572  0.4981 -0.4711
28306SOL    HW190238   5.124   0.880   3.161  1.0809  1.3682  0.9242
28306SOL    HW290239   4.996   0.828   3.223  0.4110  1.5319 -0.3012
28307SOL     OW90240   1.400   4.828  11.265 -0.2147  0.1086 -0.2170
28307SOL    HW190241   1.461   4.870  11.326 -0.4829  1.5132 -0.8791
28307SOL    HW290242   1.436   4.847  11.178 -1.8726  1.4944 -0.6590
28308SOL     OW90243  11.095  10.169   2.482  0.4923  0.5525 -0.0501
28308SOL    HW190244  11.029  10.238   2.474  0.0493  0.3281  1.4244
28308SOL    HW290245  11.044  10.089   2.495  1.0436  0.2051 -0.0225
28309SOL     OW90246   3.794   8.435   6.600 -0.3145  0.1503  0.0587
28309SOL    HW190247   3.864   8.498   6.584  0.7109 -1.0147 -0.1704
28309SOL    HW290248   3.714   8.488   6.603  0.3282  1.2763 -1.5779
28310SOL     OW90249   8.447   6.890   7.919 -0.2053 -0.0142 -0.4448
28310SOL    HW190250   8.467   6.797   7.917 -1.0571 -0.2712  1.4899
28310SOL    HW290251   8.526   6.932   7.884  1.0111 -1.3421  0.5676
28311SOL     OW90252   3.986   8.595   6.622  0.5603 -0.7136  0.4249
28311SOL    HW190253   4.063   8.632   6.578  0.3167 -1.3393 -0.5688
28311SOL    HW290254   4.014   8.584   6.713  0.5624  2.0688  0.8596
28312SOL     OW90255   1.092  11.247   2.351  0.1417  0.5540 -0.3660
28312SOL    HW190256   1.140  11.170   2.322  1.2413  1.4848 -1.1282
28312SOL    HW290257   1.027  11.263   2.283 -0.7748 -0.2669  0.2926
28313SOL     OW90258   2.091  10.916  10.056 -0.0794  0.2103 -0.6857
28313SOL    HW190259   2.134  10.975  10.119  0.4308  0.3146 -1.1234
28313SOL    HW290260   2.108  10.956   9.971 -1.7232  0.6789 -0.8209
28314SOL     OW90261   0.076  11.236   0.034  0.6298  0.2716 -0.7763
28314SOL    HW190262   0.096  11.261  -0.056 -0.3833  1.3463 -0.7217
28314SOL    HW290263   0.022  11.307   0.067  1.0485 -0.0832  0.7165
28315SOL     OW90264   9.681   7.343  10.399  0.5127  0.1254 -0.4066
28315SOL    HW190265   9.727   7.303  10.325 -1.0620 -0.2846 -1.2276
28315SOL    HW290266   9.698   7.437  10.390 -0.2432  0.1612 -1.7505
28316SOL     OW90267   1.975   3.017   7.846  0.0749 -0.3435 -0.1083
28316SOL    HW190268   1.922   3.065   7.910  3.1904 -0.0846  2.5469
28316SOL    HW290269   2.028   3.085   7.804  1.2106 -0.9435  0.3216
28317SOL     OW90270   5.161   3.540   1.776 -0.0035 -0.0120 -0.1892
28317SOL    HW190271   5.178   3.515   1.867  2.5641 -1.7953 -1.0538
28317SOL    HW290272   5.204   3.624   1.765  1.9787 -0.9835 -0.3421
28318SOL     OW90273   5.919   5.268   0.034  0.5057 -0.2374  0.2751
28318SOL    HW190274   5.874   5.224  -0.039  1.5497  1.0376 -1.1753
28318SOL    HW290275   6.003   5.294  -0.002  1.2909 -0.0886  2.1405
28319SOL     OW90276   7.071  10.768   3.826  0.0395 -0.2470  0.2171
28319SOL    HW190277   7.022  10.686   3.824  0.9831 -0.8429  0.6228
28319SOL    HW290278   7.007  10.835   3.803 -0.1848 -1.3645 -2.9798
28320SOL     OW90279   2.782   4.408   5.764 -0.5977  0.4151 -0.0063
28320SOL    HW190280   2.727   4.486   5.751 -0.5187  0.5695  0.5508
28320SOL    HW290281   2.867   4.444   5.790 -0.5909  0.1450  0.3547
28321SOL     OW90282  10.507   7.760   3.474  0.2615 -0.1689 -0.2457
28321SOL    HW190283  10.417   7.785   3.454  0.5252 -0.6908 -2.3016
28321SOL    HW290284  10.508   7.665   3.464  1.1978 -0.0964 -0.9994
28322SOL     OW90285   1.817   0.199   9.527 -0.3313  0.0261 -0.5167
28322SOL    HW190286   1.860   0.225   9.446 -1.3056 -0.7105 -1.2996
28322SOL    HW290287   1.724   0.196   9.505 -0.8766  1.9615  1.2353
28323SOL     OW90288   2.035   1.410   8.809 -0.0306 -0.5713  0.5122
28323SOL    HW190289   1.993   1.346   8.867  2.0007 -2.7728 -0.2856
28323SOL    HW290290   2.128   1.403   8.829  0.4551  0.6069 -1.1067
28324SOL     OW90291   8.006   6.662  10.903  0.0908 -0.4246 -0.2017
28324SOL    HW190292   8.101   6.670  10.912 -0.0280 -0.8464  1.7846
28324SOL    HW290293   7.973   6.750  10.920  0.0310 -0.7051  1.3029
28325SOL     OW90294   1.552   8.338   3.686 -0.3130 -0.2313  0.4170
28325SOL    HW190295   1.513   8.419   3.652  1.7079  0.9707  0.7984
28325SOL    HW290296   1.622   8.317   3.624  0.9582 -0.1256  1.7714
28326SOL     OW90297   2.565   0.173   1.124 -0.1489  0.5108 -0.2441
28326SOL    HW190298   2.604   0.134   1.202  1.5432  0.0398 -1.2704
28326SOL    HW290299   2.532   0.099   1.073 -0.3682  0.7315 -0.4284
28327SOL     OW90300   5.068   2.233   0.517  0.3976 -0.6908 -0.3232
28327SOL    HW190301   5.097   2.198   0.433  1.0300 -0.5608 -0.1642
28327SOL    HW290302   4.973   2.220   0.517  0.1786  0.6346 -1.6877
28328SOL     OW90303   1.417   7.413   9.278  0.5149 -0.4964 -0.0696
28328SOL    HW190304   1.384   7.497   9.249 -1.6820 -0.9217  0.9488
28328SOL    HW290305   1.499   7.433   9.324 -0.8916  1.3677  1.7936
28329SOL     OW90306  11.716   8.969   3.045  0.2514 -0.3805 -0.0720
28329SOL    HW190307  11.754   9.045   3.090  1.5405  0.1682 -1.9476
28329SOL    HW290308  11.728   8.896   3.105 -0.9170  0.8398  1.7343
28330SOL     OW90309   1.164   6.725   1.776  0.3481  0.2430  0.4854
28330SOL    HW190310   1.199   6.710   1.688  0.4798 -0.9085  0.7228
28330SOL    HW290311   1.237   6.766   1.823  0.6154 -0.0638  0.3414
28331SOL     OW90312   3.014   5.515   5.540 -0.7802  0.1021  0.2608
28331SOL    HW190313   3.044   5.510   5.449 -3.8647 -0.1337 -0.8696
28331SOL    HW290314   3.055   5.439   5.582  1.1687  0.5380 -0.7315
28332SOL     OW90315  11.408   9.794   7.566  0.0888  0.1011  0.5445
28332SOL    HW190316  11.423   9.804   7.660  0.3079  2.2068  0.3182
28332SOL    HW290317  11.316   9.815   7.553  0.0518 -0.2100  0.2774
28333SOL     OW90318  10.687   0.867  11.168  0.1494 -0.2838  0.3650
28333SOL    HW190319  10.685   0.781  11.125 -0.4678 -0.2957  0.4140
28333SOL    HW290320  10.615   0.864  11.231 -0.9625  0.8673 -0.7918
28334SOL     OW90321   2.523   6.716   2.733  0.2370 -0.1865  0.1472
28334SOL    HW190322   2.463   6.766   2.788  1.1029  1.1117 -0.0410
28334SOL    HW290323   2.534   6.633   2.779 -1.8706 -0.5897  0.0602
28335SOL     OW90324   2.280   4.099   2.889  0.0293  0.3866  0.0175
28335SOL    HW190325   2.213   4.048   2.842  1.4629 -1.5537 -0.0501
28335SOL    HW290326   2.318   4.156   2.822 -0.0460 -0.1209 -0.4647
28336SOL     OW90327   4.582  10.505   1.604  0.1186  0.0343  0.2243
28336SOL    HW190328   4.605  10.422   1.645  0.6479  0.7958  1.5677
28336SOL    HW290329   4.667  10.547   1.586 -0.1445  0.7495  0.6118
28337SOL     OW90330   9.957   9.989   2.796  0.4075  0.0576  0.1802
28337SOL    HW190331   9.929   9.897   2.795 -0.2778  0.2491 -1.1109
28337SOL    HW290332   9.876  10.038   2.784  0.6182  0.9046  1.9378
28338SOL     OW90333   6.735  11.064   8.018  0.4238 -0.6251  0.6476
28338SOL    HW190334   6.810  11.121   7.999 -0.3644 -0.2371 -1.6323
28338SOL    HW290335   6.658  11.116   7.995 -0.6899 -0.7341  3.6577
28339SOL     OW90336   4.731   2.963   0.615  0.2853  0.1810 -0.1895
28339SOL    HW190337   4.808   3.020   0.612  0.4874 -0.1243 -1.0800
28339SOL    HW290338   4.733   2.924   0.702  0.8107  0.6195  0.0012
28340SOL     OW90339  11.409   0.263   4.610 -0.5044 -0.3009  0.1869
28340SOL    HW190340  11.330   0.231   4.654 -0.6042 -0.8245 -0.3585
28340SOL    HW290341  11.387   0.259   4.517  0.1129 -0.3040  0.0401
28341SOL     OW90342   9.014   7.409   2.686  0.2612 -0.5922  0.0997
28341SOL    HW190343   8.976   7.372   2.606 -2.3548  2.3087 -0.1646
28341SOL    HW290344   8.961   7.372   2.757  0.3754 -0.5392  0.2132
28342SOL     OW90345   2.589   2.465   0.285  0.0734 -0.0267  0.3847
28342SOL    HW190346   2.606   2.537   0.345  0.7958 -0.4694  0.7327
28342SOL    HW290347   2.628   2.389   0.327 -0.1260 -0.5037 -0.2680
28343SOL     OW90348   2.692   8.053   4.624 -0.2850  0.2962 -0.3277
28343SOL    HW190349   2.730   7.997   4.556 -0.5794 -1.3965  0.8508
28343SOL    HW290350   2.752   8.045   4.698 -1.9150 -0.9605  0.9208
28344SOL     OW90351   5.562  10.334   1.061 -0.1351 -0.0408  0.1433
28344SOL    HW190352   5.585  10.322   0.969 -2.7499  1.9165 -0.9107
28344SOL    HW290353   5.475  10.294   1.070 -0.3929  0.7388  1.4809
28345SOL     OW90354  10.245   8.253   8.025 -0.0088  0.0807  0.0164
28345SOL    HW190355  10.184   8.316   8.063 -0.3810  0.4726 -1.1602
28345SOL    HW290356  10.189   8.180   7.997  0.3888 -0.6728  1.1399
28346SOL     OW90357   6.622   8.687   2.611 -0.2565  0.1711  0.2816
28346SOL    HW190358   6.686   8.646   2.669 -0.6100 -0.0544  0.5199
28346SOL    HW290359   6.541   8.689   2.663 -0.5251  0.1533 -0.1342
28347SOL     OW90360   5.188   3.132   6.421  0.1647  0.4524  0.4340
28347SOL    HW190361   5.145   3.122   6.335  2.8700 -1.0300 -0.8741
28347SOL    HW290362   5.126   3.096   6.483 -0.3805 -2.0550 -1.4099
28348SOL     OW90363  10.603  11.340   5.040 -0.1031  0.3945 -0.0220
28348SOL    HW190364  10.584  11.413   4.981 -1.4994 -0.5962 -0.8631
28348SOL    HW290365  10.671  11.290   4.995  0.0443  0.5489  0.0258
28349SOL     OW90366   5.838   2.684   8.947  0.1815 -0.2958  0.1337
28349SOL    HW190367   5.774   2.700   9.017  0.2478  1.1700 -0.1001
28349SOL    HW290368   5.923   2.687   8.992  0.1228 -1.8443  0.3793
28350SOL     OW90369   9.469   6.550   6.374 -0.3964  0.0487  0.1039
28350SOL    HW190370   9.502   6.486   6.311 -0.9349 -0.2097  0.0824
28350SOL    HW290371   9.388   6.582   6.336 -0.2631  0.5627  0.2383
28351SOL     OW90372   4.586   4.129   8.962  0.1432 -0.2093  0.4181
28351SOL    HW190373   4.498   4.114   8.995  0.8648 -0.8562  2.1490
28351SOL    HW290374   4.631   4.046   8.976  1.5011  0.6208  1.1555
28352SOL     OW90375   7.969   3.734   3.112  0.9166  0.0561 -0.3109
28352SOL    HW190376   8.040   3.766   3.167  2.0131 -0.6960 -1.2394
28352SOL    HW290377   7.925   3.667   3.165  1.6391 -0.3082 -0.1715
28353SOL     OW90378  11.686   7.374  11.672 -0.3129  0.1568 -0.4010
28353SOL    HW190379  11.635   7.428  11.733 -1.3460 -0.0395 -1.0616
28353SOL    HW290380  11.710   7.433  11.601 -1.0341 -0.1186 -0.8886
28354SOL     OW90381   8.067   0.813   8.620 -0.5533  0.1298  0.0717
28354SOL    HW190382   8.098   0.794   8.708 -1.9510 -1.9963  0.1673
28354SOL    HW290383   7.998   0.877   8.632 -0.5727  0.0300  0.4920
28355SOL     OW90384   6.688   5.283   9.185 -0.4912  0.4024  0.2351
28355SOL    HW190385   6.707   5.367   9.143  0.4047  1.3105  2.3296
28355SOL    HW290386   6.593   5.280   9.191 -0.6103  0.5223 -1.2415
28356SOL     OW90387   9.340  10.204   0.050 -0.4739  0.1345  0.0159
28356SOL    HW190388   9.288  10.283   0.038 -0.7017 -0.0761 -0.4140
28356SOL    HW290389   9.413  10.213  -0.011 -0.7665 -0.2074 -0.3926
28357SOL     OW90390   7.288   0.040   5.117  0.3154 -0.0892 -0.0522
28357SOL    HW190391   7.240  -0.013   5.180 -1.3076  1.0944 -0.2467
28357SOL    HW290392   7.301  -0.018   5.042 -3.2791  0.2998 -1.1250
28358SOL     OW90393   0.223   9.167   1.396  0.1540 -0.7483  0.6191
28358SOL    HW190394   0.183   9.188   1.481  0.6505  1.8383  0.3013
28358SOL    HW290395   0.180   9.225   1.334  0.3393 -2.0627 -0.8100
28359SOL     OW90396   5.734   1.671  10.024 -0.4353 -0.8909  0.6606
28359SOL    HW190397   5.804   1.729  10.053 -0.2457 -0.8391  0.1270
28359SOL    HW290398   5.656   1.701  10.070 -0.5305  0.3698 -0.2623
28360SOL     OW90399   3.719   2.924   6.607  0.6047 -0.5054  0.2075
28360SOL    HW190400   3.627   2.899   6.611  0.7770 -1.5377 -1.3435
28360SOL    HW290401   3.764   2.846   6.575  2.1896 -0.3584  1.9050
28361SOL     OW90402   8.828   3.078   3.585  0.3842 -1.1626 -0.2586
28361SOL    HW190403   8.911   3.078   3.633 -0.4646 -1.3902  1.2952
28361SOL    HW290404   8.813   3.170   3.564  0.0828 -0.8293  1.2514
28362SOL     OW90405   6.470  10.042  10.271 -0.2900 -0.1426  0.1298
28362SOL    HW190406   6.415  10.116  10.295  2.2987  1.9500  0.1607
28362SOL    HW290407   6.449   9.974  10.335 -1.4275  1.2586  1.3137
28363SOL     OW90408   8.540   6.884   3.396 -0.1895  0.1561 -0.1904
28363SOL    HW190409   8.450   6.853   3.405 -0.5658  0.6030 -2.0042
28363SOL    HW290410   8.543   6.965   3.448 -0.7169 -0.0702  0.1988
28364SOL     OW90411   4.416   9.914   2.509 -0.2285 -0.4486  0.1386
28364SOL    HW190412   4.396   9.956   2.425 -0.5007 -1.0314 -0.0858
28364SOL    HW290413   4.368   9.966   2.574  0.2149  0.1803 -0.0276
28365SOL     OW90414   9.749  10.920   0.484 -0.1514  0.2008  0.3971
28365SOL    HW190415   9.743  10.996   0.426 -0.2246  0.4359  0.7078
28365SOL    HW290416   9.841  10.893   0.479 -0.6041 -1.2116 -1.6092
28366SOL     OW90417   7.277   0.065   9.027 -0.4107 -0.0089  0.2449
28366SOL    HW190418   7.195   0.108   9.053  0.6227  1.7046  0.8043
28366SOL    HW290419   7.277   0.069   8.931  0.2092  2.4590  0.2766
28367SOL     OW90420  10.203   2.160   4.661  0.0429 -0.0604  0.6038
28367SOL    HW190421  10.229   2.250   4.683 -0.0841 -0.6344  3.3780
28367SOL    HW290422  10.187   2.118   4.745 -1.4685 -2.2622 -0.6869
28368SOL     OW90423  10.399   4.235  11.069  0.1502 -0.3343 -0.1675
28368SOL    HW190424  10.413   4.185  11.149  1.4833  0.0342 -0.1551
28368SOL    HW290425  10.458   4.310  11.075 -1.5988  1.1271 -0.3279
28369SOL     OW90426   5.283   5.940   9.867  0.1236 -0.2989 -0.2510
28369SOL    HW190427   5.372   5.911   9.847  0.1695  0.1289 -0.6872
28369SOL    HW290428   5.288   5.972   9.957  0.8904  1.5721 -0.9141
28370SOL     OW90429   7.089   1.477   8.954 -0.0431  0.2610 -0.0685
28370SOL    HW190430   6.996   1.465   8.971  0.2549 -1.6926  0.3557
28370SOL    HW290431   7.111   1.558   9.000 -1.5701  0.9331 -0.4458
28371SOL     OW90432   9.563   5.304   1.743 -0.7463 -0.1345  0.0451
28371SOL    HW190433   9.480   5.318   1.788 -0.7350  1.9788 -0.4949
28371SOL    HW290434   9.540   5.303   1.650 -0.2260 -0.0165 -0.0902
28372SOL     OW90435  11.121  10.199   5.739 -0.1607 -0.1179 -0.4136
28372SOL    HW190436  11.117  10.259   5.664 -0.1266  0.6432  0.1850
28372SOL    HW290437  11.146  10.115   5.700 -0.3762  0.2071 -1.2881
28373SOL     OW90438   6.648   3.254  11.691 -0.1363 -0.2394 -0.2592
28373SOL    HW190439   6.581   3.321  11.707 -0.9291 -1.6270  3.1894
28373SOL    HW290440   6.728   3.293  11.724 -0.4578 -0.6815  1.0880
28374SOL     OW90441   6.080   7.224   7.341 -0.2303 -0.1315 -0.4836
28374SOL    HW190442   6.029   7.159   7.293  0.0080 -1.0913  0.5141
28374SOL    HW290443   6.168   7.218   7.303  0.1476 -1.4219  0.5312
28375SOL     OW90444   0.835   6.162   2.828 -0.0655 -0.0891  0.6520
28375SOL    HW190445   0.846   6.189   2.919 -0.6338 -0.2511  0.7763
28375SOL    HW290446   0.769   6.093   2.832 -0.6856  0.4493  0.0360
28376SOL     OW90447   0.819   5.016   4.623  0.0945 -0.6999 -0.4610
28376SOL    HW190448   0.819   5.109   4.600 -0.7424 -0.6924 -0.4468
28376SOL    HW290449   0.901   5.004   4.671 -0.3449  0.3062  0.6132
28377SOL     OW90450  10.192   3.193   2.433  0.0721 -1.0657 -0.0512
28377SOL    HW190451  10.272   3.162   2.391  0.7058  1.1053 -0.5723
28377SOL    HW290452  10.182   3.284   2.403 -0.5191 -0.0073  2.9256
28378SOL     OW90453   0.730   1.903   5.802 -0.4064  0.0328 -0.1554
28378SOL    HW190454   0.797   1.886   5.736  0.0391  1.2627 -0.0440
28378SOL    HW290455   0.658   1.944   5.754 -0.2206  0.6169  0.0583
28379SOL     OW90456   9.921   0.993   5.325  0.6187  0.2435 -0.9753
28379SOL    HW190457   9.981   1.063   5.349  0.1178  0.1149  0.7883
28379SOL    HW290458   9.837   1.018   5.363  0.3167 -1.0896 -0.6969
28380SOL     OW90459  10.132   0.319   2.839 -0.0086  0.5784  0.2514
28380SOL    HW190460  10.177   0.236   2.824 -1.5951 -0.5554  1.3565
28380SOL    HW290461  10.201   0.380   2.865  1.1437 -0.5107 -0.1844
28381SOL     OW90462   3.255   3.006   5.927 -0.1251 -0.2283 -0.5691
28381SOL    HW190463   3.342   3.019   5.962 -0.4009  1.8548 -0.5640
28381SOL    HW290464   3.263   2.928   5.871  1.8215  0.1900 -0.9326
28382SOL     OW90465   3.928  10.194   6.704 -0.2149  0.1103 -0.0225
28382SOL    HW190466   3.940  10.143   6.624 -0.7323 -0.7635  0.4408
28382SOL    HW290467   3.843  10.237   6.692 -0.9454 -1.0870  0.5906
28383SOL     OW90468   2.201   0.139   4.282  0.1691  0.4915  0.6949
28383SOL    HW190469   2.284   0.099   4.309  0.5460  0.5412 -0.3372
28383SOL    HW290470   2.184   0.206   4.348  1.9328  1.7651 -0.0752
28384SOL     OW90471   4.955   1.741   6.206 -0.1244  0.7700  0.0575
28384SOL    HW190472   4.928   1.664   6.257 -0.7630  2.1722  1.9520
28384SOL    HW290473   5.017   1.706   6.142 -0.2749 -1.2980  0.9492
28385SOL     OW90474   0.416   4.868   1.972  0.5076  0.4835 -0.4381
28385SOL    HW190475   0.439   4.788   1.925 -4.5609 -2.2938  1.1114
28385SOL    HW290476   0.474   4.868   2.049  0.8330 -1.5671 -0.6252
28386SOL     OW90477  11.719  11.242   0.388 -0.2569 -0.0231 -0.1266
28386SOL    HW190478  11.687  11.173   0.445  0.4186  0.2406  0.5875
28386SOL    HW290479  11.731  11.199   0.303  0.9909 -1.0198  0.5205
28387SOL     OW90480  11.277   6.731   5.068 -0.1612  0.2927  0.2066
28387SOL    HW190481  11.320   6.798   5.121 -1.4299 -0.8564  2.8677
28387SOL    HW290482  11.226   6.781   5.004  1.5207  1.7333 -0.1012
28388SOL     OW90483  11.645   0.969   6.073 -0.1610  0.5014  0.2901
28388SOL    HW190484  11.617   0.886   6.035 -0.0631  0.5602  0.0917
28388SOL    HW290485  11.594   0.976   6.154  0.9742 -0.5215  1.1353
28389SOL     OW90486   6.850   5.696  11.316  0.4404 -0.5823  0.0140
28389SOL    HW190487   6.891   5.621  11.271  1.2534  0.0690 -0.3554
28389SOL    HW290488   6.922   5.743  11.357 -0.2664 -1.0882  1.9704
28390SOL     OW90489   9.971   3.361  10.693  0.1275 -0.5108 -0.2112
28390SOL    HW190490   9.893   3.331  10.739  0.4179  1.8911  2.0788
28390SOL    HW290491   9.946   3.357  10.600 -2.5967 -0.1910  0.4121
28391SOL     OW90492   3.079   1.906   0.073  0.1940 -0.2712  0.6363
28391SOL    HW190493   3.052   1.816   0.054  2.7047 -1.2711  1.4575
28391SOL    HW290494   3.133   1.899   0.151  1.1115  1.8623  0.2604
28392SOL     OW90495   3.098   7.625   2.757 -0.5289 -0.0097 -0.0473
28392SOL    HW190496   3.133   7.599   2.842  0.9194  2.0518  0.0791
28392SOL    HW290497   3.161   7.589   2.694  0.3853  1.3696  0.0193
28393SOL     OW90498   6.566   0.957   0.693 -0.3457 -0.6916  0.0134
28393SOL    HW190499   6.519   0.911   0.762  0.4680 -1.9436 -0.2395
28393SOL    HW290500   6.574   0.893   0.623  3.0527 -1.1210  0.6231
28394SOL     OW90501  10.494   9.725   1.135  0.2912  0.1935  0.1444
28394SOL    HW190502  10.400   9.736   1.125 -0.1806 -1.6159  1.9271
28394SOL    HW290503  10.508   9.723   1.229  1.7381 -2.1047 -0.0579
28395SOL     OW90504   4.931  11.004   9.897 -0.3966 -0.7511 -0.0015
28395SOL    HW190505   4.902  11.095   9.897 -0.3689 -0.7245 -1.2489
28395SOL    HW290506   5.000  11.000   9.963 -0.4986  0.0926  0.1627
28396SOL     OW90507   9.795   0.874   5.657 -0.1733 -0.0241 -0.1553
28396SOL    HW190508   9.766   0.940   5.594  0.2125 -0.6403 -0.9995
28396SOL    HW290509   9.874   0.838   5.618  0.9609  0.6456  1.4247
28397SOL     OW90510   4.442   1.667   0.587  0.0668  0.0859  0.1399
28397SOL    HW190511   4.529   1.651   0.551  0.4304  2.9733 -0.5334
28397SOL    HW290512   4.383   1.658   0.512  0.2968  1.8419 -0.2886
28398SOL     OW90513   0.399   1.503   1.349 -0.0159 -0.3632 -0.1456
28398SOL    HW190514   0.494   1.506   1.332 -0.3990 -1.5980 -3.2970
28398SOL    HW290515   0.371   1.595   1.342  0.5768 -0.2947 -2.4432
28399SOL     OW90516  10.920   7.424   9.172 -0.2866 -0.1400 -0.0183
28399SOL    HW190517  10.905   7.471   9.253 -2.2426 -0.6560 -0.0185
28399SOL    HW290518  10.832   7.395   9.145  0.5216 -1.4485 -1.4014
28400SOL     OW90519  10.256   0.539   0.892  0.3147  0.8497 -0.4302
28400SOL    HW190520  10.300   0.461   0.926 -1.2015 -0.4098 -1.1957
28400SOL    HW290521  10.219   0.581   0.969 -1.8814 -1.1976 -0.2399
28401SOL     OW90522   1.905   8.132   9.005  0.1320 -0.0758 -0.0896
28401SOL    HW190523   1.824   8.119   9.054  1.7807 -0.3635  2.7454
28401SOL    HW290524   1.943   8.044   8.997 -0.0284 -0.0251 -1.8753
28402SOL     OW90525   8.859   1.254  10.424 -0.1228  1.0540 -0.6356
28402SOL    HW190526   8.933   1.299  10.383 -0.4429  1.1869 -1.0820
28402SOL    HW290527   8.873   1.264  10.518  1.4619 -0.5913 -0.6375
28403SOL     OW90528   4.771   8.502   5.459 -0.0782  0.6873 -0.3571
28403SOL    HW190529   4.820   8.429   5.498  1.1887  1.2487 -0.8195
28403SOL    HW290530   4.753   8.560   5.533  1.6259  1.3663 -0.4254
28404SOL     OW90531   0.225   7.977   6.331 -0.4325  0.2227 -0.1972
28404SOL    HW190532   0.214   8.070   6.352 -1.6523  0.1966 -0.6541
28404SOL    HW290533   0.268   7.940   6.408 -1.3273  0.8791  0.6331
28405SOL     OW90534   8.764   2.504   0.562  0.1397  0.9722 -0.2523
28405SOL    HW190535   8.677   2.526   0.596 -0.6971 -2.2861  0.1530
28405SOL    HW290536   8.748   2.478   0.471  0.2853 -1.2194  0.2797
28406SOL     OW90537   4.745  11.652  10.328 -0.2360  0.0733  0.5961
28406SOL    HW190538   4.799  11.596  10.383  0.3040 -1.2262 -1.1749
28406SOL    HW290539   4.666  11.601  10.312 -0.9115  0.9273  1.0903
28407SOL     OW90540  10.963   7.685   6.134  0.2449  0.2176 -0.3340
28407SOL    HW190541  10.889   7.655   6.187 -0.0897  0.3679 -0.7146
28407SOL    HW290542  10.924   7.714   6.052  0.7848 -0.2736 -0.7781
28408SOL     OW90543   7.667   3.637   3.561 -0.0775  0.3470 -0.2068
28408SOL    HW190544   7.576   3.658   3.544 -0.2583 -1.2761 -1.4463
28408SOL    HW290545   7.664   3.561   3.620  0.5137  1.3403  1.1606
28409SOL     OW90546  11.474   8.427   6.466  0.0803  0.4120  0.4092
28409SOL    HW190547  11.548   8.486   6.452  0.2929  0.1630  0.4651
28409SOL    HW290548  11.466   8.378   6.384 -0.3990  0.8472  0.1908
28410SOL     OW90549   2.557  10.161   6.830  0.0574  0.2932  0.5453
28410SOL    HW190550   2.607  10.230   6.785  0.2955 -0.5247 -0.5022
28410SOL    HW290551   2.583  10.169   6.922 -1.2515  2.7125  0.7989
28411SOL     OW90552  10.437   6.604   8.583 -0.0429  0.2661 -0.3948
28411SOL    HW190553  10.442   6.561   8.498  0.0667 -0.9632  0.2148
28411SOL    HW290554  10.372   6.673   8.571 -0.4329 -0.2468 -1.3310
28412SOL     OW90555   6.247   8.284   6.800  0.1537  0.2246  0.7116
28412SOL    HW190556   6.263   8.227   6.725 -0.9778 -0.9363  1.2976
28412SOL    HW290557   6.331   8.325   6.818  0.3107  1.0381 -1.5650
28413SOL     OW90558   4.575   8.599   0.099 -0.8507  0.2303 -0.7574
28413SOL    HW190559   4.661   8.604   0.142 -1.4138 -2.2210  0.9067
28413SOL    HW290560   4.592   8.623   0.008  1.7180 -0.6525 -0.5922
28414SOL     OW90561  10.507   4.638   2.854 -0.4374  0.2445 -0.5335
28414SOL    HW190562  10.534   4.694   2.782  0.2496  0.9376  0.2446
28414SOL    HW290563  10.485   4.698   2.925 -0.0686 -0.4510  0.1903
28415SOL     OW90564   0.092   9.602   8.445  0.1324  0.1633 -0.0682
28415SOL    HW190565   0.041   9.522   8.433 -2.4386  1.3572  1.8116
28415SOL    HW290566   0.172   9.573   8.489  1.4859 -1.8321 -3.4515
28416SOL     OW90567   0.528   8.960  10.397  0.0598  0.3287 -0.0170
28416SOL    HW190568   0.485   8.949  10.482  0.3885 -0.4504  0.0530
28416SOL    HW290569   0.461   8.935  10.333 -0.3791  1.4660 -0.0324
28417SOL     OW90570  10.845   0.057   9.773  0.0285 -0.1227  0.3410
28417SOL    HW190571  10.909   0.057   9.844 -1.5080  1.9926  1.8550
28417SOL    HW290572  10.842  -0.033   9.743  2.7755 -0.5295  1.0448
28418SOL     OW90573   6.166   2.174   2.338  0.2992  0.0510 -0.4496
28418SOL    HW190574   6.250   2.210   2.312 -0.4315  1.0755 -1.5331
28418SOL    HW290575   6.145   2.110   2.269  1.2341 -1.9755  1.0551
28419SOL     OW90576   3.384   1.714   3.416 -0.3398  0.5072 -0.3253
28419SOL    HW190577   3.414   1.670   3.496  0.1508 -0.9910 -1.2820
28419SOL    HW290578   3.429   1.798   3.416 -1.3517  1.1051  1.6104
28420SOL     OW90579   4.035   3.769   8.388  0.1535 -0.4976 -0.1577
28420SOL    HW190580   4.013   3.744   8.478  0.5996 -3.0961 -0.6820
28420SOL    HW290581   3.957   3.748   8.337 -0.9962  3.1592 -0.1670
28421SOL     OW90582   8.046   0.817   7.890 -0.7521  0.1273 -0.0504
28421SOL    HW190583   8.134   0.852   7.877 -0.2054 -1.2222 -0.0808
28421SOL    HW290584   8.045   0.785   7.980 -1.4105  0.6417  0.1403
28422SOL     OW90585   3.977   9.529   5.525 -0.1174  0.7058  0.2053
28422SOL    HW190586   3.951   9.484   5.444 -1.6394 -1.0323  1.5702
28422SOL    HW290587   3.981   9.621   5.500 -0.5764  0.2388 -1.8422
28423SOL     OW90588   6.375   7.006   4.731 -0.0745 -0.0957 -0.2387
28423SOL    HW190589   6.433   7.049   4.793 -0.8320  0.2568  0.2461
28423SOL    HW290590   6.432   6.980   4.658  0.9155 -0.9534  0.8010
28424SOL     OW90591   1.034   4.360   5.324  0.2680 -0.2601  0.0435
28424SOL    HW190592   1.114   4.336   5.371  1.9232 -0.8587 -2.8196
28424SOL    HW290593   1.048   4.451   5.299  0.1121 -0.3890 -0.5289
28425SOL     OW90594  10.207   1.344   7.577  0.3259 -0.3409 -0.0480
28425SOL    HW190595  10.118   1.314   7.560  0.0151  1.3670 -1.7209
28425SOL    HW290596  10.205   1.377   7.667 -0.7867 -0.1802 -0.1228
28426SOL     OW90597   9.314   5.211   4.851 -0.3119  0.3462  0.1286
28426SOL    HW190598   9.376   5.257   4.794 -1.4191  0.7083 -0.8389
28426SOL    HW290599   9.275   5.145   4.793 -0.4762 -0.2054  0.8620
28427SOL     OW90600   6.477   3.148   8.207  0.1365 -0.0505 -0.6839
28427SOL    HW190601   6.388   3.182   8.213 -0.4731 -1.7703  1.9225
28427SOL    HW290602   6.522   3.184   8.283  1.0136 -0.8652 -0.7969
28428SOL     OW90603   7.918   3.413   1.575  0.0284 -0.1819  0.2432
28428SOL    HW190604   7.924   3.427   1.480  0.9514  1.4454  0.5072
28428SOL    HW290605   7.961   3.489   1.613 -1.8389  0.0722  2.0201
28429SOL     OW90606   8.381   0.297   9.218 -0.0063 -0.4064  0.4528
28429SOL    HW190607   8.474   0.319   9.222  0.3253 -1.7902  0.9758
28429SOL    HW290608   8.369   0.261   9.130  0.7332 -3.2391  1.3972
28430SOL     OW90609   8.376   9.815   9.209  0.2229 -0.7153  0.7329
28430SOL    HW190610   8.283   9.830   9.194 -0.1691 -2.8281  0.6572
28430SOL    HW290611   8.382   9.791   9.301  0.7402 -0.3079  0.8080
28431SOL     OW90612   9.035  11.325   2.637 -0.5445 -0.1510  0.1628
28431SOL    HW190613   9.125  11.299   2.621 -0.4348  0.6976 -0.6983
28431SOL    HW290614   9.042  11.396   2.701 -0.7764 -1.5675  1.8038
28432SOL     OW90615  11.366   3.279   1.814  0.1832 -0.1211 -0.2258
28432SOL    HW190616  11.295   3.343   1.807  2.8027  2.9605 -0.9665
28432SOL    HW290617  11.401   3.292   1.903  1.1002 -0.0923 -0.5809
28433SOL     OW90618   5.889   6.308  11.034  0.3182 -0.1525 -0.3526
28433SOL    HW190619   5.877   6.401  11.055 -1.1784 -0.2659 -0.5419
28433SOL    HW290620   5.944   6.309  10.955 -0.5764  0.6562 -1.0054
28434SOL     OW90621   2.895   6.134   1.484 -0.2394  0.7840 -0.1228
28434SOL    HW190622   2.973   6.126   1.540  0.1639  1.1785 -0.6130
28434SOL    HW290623   2.822   6.121   1.544  0.1509  2.1141  0.6974
28435SOL     OW90624   6.102   9.151  10.296 -0.5551  0.0158 -0.7593
28435SOL    HW190625   6.088   9.184  10.385  1.9227 -1.2170  0.1679
28435SOL    HW290626   6.044   9.075  10.290  0.2614 -0.7142  0.3243
28436SOL     OW90627   4.747   9.669   2.109  0.0295  0.4840  0.1242
28436SOL    HW190628   4.837   9.641   2.092  0.1454 -0.9969  2.6741
28436SOL    HW290629   4.710   9.684   2.023  1.9989 -1.2742 -1.1318
28437SOL     OW90630   6.569  11.787   3.938  0.0450  0.0743  0.2616
28437SOL    HW190631   6.652  11.745   3.915  0.8313  0.8141  1.6042
28437SOL    HW290632   6.577  11.877   3.905  1.8677  1.6792  4.3849
28438SOL     OW90633   2.572   8.246   0.186 -0.5893 -0.3508  0.2737
28438SOL    HW190634   2.484   8.283   0.190  0.1643  1.5562  0.2385
28438SOL    HW290635   2.599   8.235   0.277 -1.0022 -1.3086  0.2849
28439SOL     OW90636   7.330  11.363   2.156 -0.1943  0.1258 -0.0863
28439SOL    HW190637   7.390  11.404   2.094 -1.5542  3.1701  0.4213
28439SOL    HW290638   7.244  11.401   2.136 -1.6619 -2.5427  0.5075
28440SOL     OW90639   0.048   2.909   0.585  0.3045 -0.0169  0.1602
28440SOL    HW190640   0.078   2.994   0.551  1.5383 -0.6272 -0.3457
28440SOL    HW290641   0.120   2.879   0.640 -0.6879 -0.1494  1.4365
28441SOL     OW90642   8.016   4.396   8.973  0.3532  0.0117 -0.7064
28441SOL    HW190643   8.043   4.365   8.886  1.1148  2.2029 -1.3387
28441SOL    HW290644   8.095   4.392   9.026 -0.0928 -1.2467 -0.0944
28442SOL     OW90645   0.596  10.785   4.755  0.8309  0.8768  0.0015
28442SOL    HW190646   0.667  10.745   4.705  2.9065  2.3803  1.5758
28442SOL    HW290647   0.560  10.851   4.696 -1.3862 -1.7770 -1.9129
28443SOL     OW90648   7.755   0.446   3.173  0.7449 -0.0200  0.2776
28443SOL    HW190649   7.747   0.541   3.181  1.6531 -0.1025  3.4226
28443SOL    HW290650   7.669   0.413   3.197  0.3814 -0.0341 -0.9738
28444SOL     OW90651   0.266   6.519   0.506 -0.4143  0.2308  0.2789
28444SOL    HW190652   0.206   6.566   0.448  0.5853  0.1989 -0.7996
28444SOL    HW290653   0.274   6.575   0.583  1.2029  2.1731 -1.2143
28445SOL     OW90654   7.742   5.047   2.830 -0.4833  0.4142 -0.2403
28445SOL    HW190655   7.682   4.977   2.803 -1.6642  1.2246  0.1910
28445SOL    HW290656   7.826   5.003   2.843 -1.3302 -1.0356  0.5863
28446SOL     OW90657   7.378   1.809   5.412 -0.4158 -0.0936 -0.3249
28446SOL    HW190658   7.310   1.781   5.474 -0.3534 -1.8962 -1.0244
28446SOL    HW290659   7.337   1.881   5.363  0.3684  3.1930  3.3613
28447SOL     OW90660   6.232   6.624  11.550 -0.0659 -0.3060 -0.2253
28447SOL    HW190661   6.157   6.570  11.575 -1.4961  1.6851 -0.0499
28447SOL    HW290662   6.281   6.636  11.632 -0.0156 -0.8802 -0.1667
28448SOL     OW90663   4.045  11.213   5.478 -0.4626  0.1387  0.1152
28448SOL    HW190664   4.003  11.145   5.531 -0.3464  0.6467  0.8766
28448SOL    HW290665   3.972  11.260   5.438 -0.7659  1.7903  2.3846
28449SOL     OW90666   1.948   5.650   3.212 -0.1516 -0.1234  0.3070
28449SOL    HW190667   1.864   5.672   3.253 -0.4386 -3.2633  1.7711
28449SOL    HW290668   1.924   5.615   3.126 -0.0238  1.6271 -0.4734
28450SOL     OW90669   2.909  10.034   2.737 -0.4205  0.2764  0.8756
28450SOL    HW190670   2.921  10.129   2.734 -1.7059  0.4358 -1.2406
28450SOL    HW290671   2.992  10.000   2.771  0.5122  2.0707  0.5014
28451SOL     OW90672   0.307   2.812   1.417  0.4070  0.0488  0.0802
28451SOL    HW190673   0.327   2.728   1.459  1.2571  0.3183  0.2176
28451SOL    HW290674   0.339   2.878   1.478  0.6279  0.4616 -0.4733
28452SOL     OW90675   7.893   4.947   9.984  0.7176 -0.2746  0.3738
28452SOL    HW190676   7.975   4.963  10.031  0.5019 -2.4252  1.6278
28452SOL    HW290677   7.916   4.884   9.916  0.5443  1.0381 -0.9651
28453SOL     OW90678   9.739   0.427   2.994  0.0890 -0.1640 -0.5587
28453SOL    HW190679   9.792   0.415   2.915 -0.4155 -0.0874 -0.9129
28453SOL    HW290680   9.649   0.413   2.966 -0.1049 -0.0745 -0.0080
28454SOL     OW90681   0.892   5.279   2.571 -0.0645 -0.1088  0.2798
28454SOL    HW190682   0.916   5.347   2.507  0.0480 -0.6140 -0.2207
28454SOL    HW290683   0.822   5.318   2.623 -0.2666  0.2520 -0.2560
28455SOL     OW90684   8.795  10.644  11.238 -0.6241 -0.4084 -0.4508
28455SOL    HW190685   8.702  10.664  11.230 -0.5396 -0.1585 -0.8138
28455SOL    HW290686   8.838  10.730  11.235 -0.5038 -0.3293  1.6111
28456SOL     OW90687   2.802   0.727   5.268  0.0273 -0.1021 -0.6050
28456SOL    HW190688   2.841   0.790   5.208  2.5263 -0.9130  0.0279
28456SOL    HW290689   2.811   0.642   5.224 -0.0031 -0.4396  0.0194
28457SOL     OW90690   4.098   2.852   1.769  0.0690 -0.9291 -0.2153
28457SOL    HW190691   4.146   2.778   1.731  0.1660 -0.9725 -0.0119
28457SOL    HW290692   4.128   2.855   1.860  0.7225 -0.0836 -0.4550
28458SOL     OW90693   0.781   7.249   0.227 -0.1379  0.1866  0.4126
28458SOL    HW190694   0.695   7.214   0.205  0.5366 -0.9908 -0.4944
28458SOL    HW290695   0.842   7.183   0.195  1.0671  0.2896  2.3494
28459SOL     OW90696  11.613  10.380  10.986  0.1444  1.0562  0.0186
28459SOL    HW190697  11.587  10.289  10.976 -0.0906  0.9855  1.0955
28459SOL    HW290698  11.704  10.383  10.957  0.4296  0.2953  0.8044
28460SOL     OW90699   1.725   2.217   7.793 -0.0320  0.0548  0.1569
28460SOL    HW190700   1.772   2.291   7.832  0.5818  0.1909 -0.7912
28460SOL    HW290701   1.670   2.256   7.725  0.2700 -0.3420 -0.3301
28461SOL     OW90702   7.483   9.740   2.600 -0.1381 -0.1359  0.3590
28461SOL    HW190703   7.549   9.788   2.650 -0.8329  0.3818  0.7885
28461SOL    HW290704   7.520   9.734   2.511 -0.2111  1.5331  0.2006
28462SOL     OW90705   7.207   4.145   4.048 -0.2434 -0.0041  0.2351
28462SOL    HW190706   7.182   4.196   4.125  0.3935 -0.0488  0.4860
28462SOL    HW290707   7.136   4.082   4.036 -0.5432  0.2729  0.5393
28463SOL     OW90708   0.916   6.771  10.772 -0.2541 -0.1774 -0.3166
28463SOL    HW190709   0.865   6.846  10.741  1.1280  0.2784 -1.6001
28463SOL    HW290710   0.985   6.760  10.707  1.5882 -0.4955  1.5909
28464SOL     OW90711   9.666  10.627   5.040 -0.9036  0.4803 -0.8339
28464SOL    HW190712   9.703  10.679   5.111  0.2779 -0.0951 -0.9942
28464SOL    HW290713   9.586  10.588   5.076  0.8861 -1.7637  1.0489
28465SOL     OW90714   1.567  10.789   2.040 -0.2428 -0.3300  0.7015
28465SOL    HW190715   1.474  10.785   2.060 -0.0575  1.5317  2.1868
28465SOL    HW290716   1.582  10.880   2.013  1.2400 -0.4461  1.0630
28466SOL     OW90717  11.697   0.867   8.301  0.2064 -0.5866  0.4526
28466SOL    HW190718  11.679   0.775   8.283 -0.9760 -0.4010  0.6500
28466SOL    HW290719  11.614   0.912   8.287  1.2551  0.8127 -1.8726
28467SOL     OW90720   9.009   0.626   4.056 -0.0454  0.1153  0.0414
28467SOL    HW190721   9.042   0.587   3.975  0.8368  0.4014  0.2536
28467SOL    HW290722   9.022   0.558   4.122  0.5843  0.4047  0.2208
28468SOL     OW90723   7.675   3.982   1.698  0.0509 -0.8786  0.5273
28468SOL    HW190724   7.747   3.978   1.761  1.0553  3.5395 -0.0235
28468SOL    HW290725   7.618   4.051   1.731 -0.4192  0.2586 -2.3637
28469SOL     OW90726   2.653   0.918   4.552 -0.0489  0.2889  0.0314
28469SOL    HW190727   2.711   0.966   4.611 -1.4270  2.0707  0.0400
28469SOL    HW290728   2.582   0.887   4.608 -0.5220  0.5635 -0.4040
28470SOL     OW90729   1.840   6.848   5.320 -0.5672 -0.5711  0.0122
28470SOL    HW190730   1.859   6.838   5.413 -3.8437 -0.4323  0.8284
28470SOL    HW290731   1.824   6.759   5.289  0.8138 -0.6513 -0.5663
28471SOL     OW90732   9.604   6.636   7.604  0.7467 -0.0875 -0.4977
28471SOL    HW190733   9.553   6.676   7.674 -1.2689 -0.6370 -1.5698
28471SOL    HW290734   9.693   6.667   7.618  0.0146  1.4556  1.0804
28472SOL     OW90735   2.467   4.589   1.043 -0.2090 -0.2946  0.5701
28472SOL    HW190736   2.497   4.512   1.092 -0.2599 -0.9081 -0.3338
28472SOL    HW290737   2.494   4.663   1.096  2.1411 -0.8329  0.2467
28473SOL     OW90738   9.458  10.887   8.233  0.5441 -0.2988  0.4912
28473SOL    HW190739   9.481  10.964   8.179  1.2821  0.6180  2.0530
28473SOL    HW290740   9.451  10.816   8.170  0.6031  0.8898 -0.9239
28474SOL     OW90741  11.784  11.001   3.434 -0.2650 -0.3434  0.0281
28474SOL    HW190742  11.878  11.006   3.453  0.0855  0.7762 -1.7608
28474SOL    HW290743  11.774  11.046   3.350 -2.5805  0.5730  0.7136
28475SOL     OW90744   2.658  11.307   9.662 -0.3895  0.1010  0.4049
28475SOL    HW190745   2.704  11.351   9.734  1.8028 -0.1800 -0.7370
28475SOL    HW290746   2.680  11.214   9.673  0.5477  0.1243 -0.9444
28476SOL     OW90747   4.386   5.959  10.867  0.2590  0.0203 -0.1164
28476SOL    HW190748   4.440   5.932  10.793  1.1563 -1.6303  1.0585
28476SOL    HW290749   4.441   6.021  10.915  0.4656 -0.3816  0.1770
28477SOL     OW90750   4.941   8.544  11.414  0.1668 -0.6553 -0.0872
28477SOL    HW190751   5.031   8.575  11.427  0.8344 -0.0521 -4.5107
28477SOL    HW290752   4.943   8.453  11.444  1.4849  0.0412  2.1869
28478SOL     OW90753   1.672   1.531   3.916 -0.3169  0.3146 -0.5247
28478SOL    HW190754   1.703   1.469   3.850  1.1118 -0.9762  1.2316
28478SOL    HW290755   1.750   1.553   3.967 -1.3806  1.1253  0.8388
28479SOL     OW90756   7.058   9.426   5.052  0.1052  0.9351 -0.0431
28479SOL    HW190757   7.087   9.336   5.044 -0.3525  0.7435  0.4408
28479SOL    HW290758   7.036   9.437   5.145 -1.4781  1.0370 -0.4116
28480SOL     OW90759  11.603   3.731   7.991  0.0138 -0.3743 -0.1089
28480SOL    HW190760  11.623   3.792   7.921 -0.3811 -0.5389 -0.3679
28480SOL    HW290761  11.526   3.770   8.034  0.1657 -0.3493  0.1417
28481SOL     OW90762   0.778   3.093   6.482  0.4636  0.3119 -0.0558
28481SOL    HW190763   0.759   3.018   6.426  2.0309 -0.0780 -0.1052
28481SOL    HW290764   0.692   3.126   6.508 -0.3999  1.4384 -3.8252
28482SOL     OW90765   3.043   2.874  11.448 -0.2077  0.1067  0.4291
28482SOL    HW190766   3.043   2.851  11.354  0.4302 -1.2048  0.7248
28482SOL    HW290767   3.007   2.962  11.451 -0.0085  0.2677 -1.0827
28483SOL     OW90768   6.656   1.397   9.896  0.2778  0.1223 -0.0275
28483SOL    HW190769   6.621   1.309   9.881  0.6971  0.0850 -0.8456
28483SOL    HW290770   6.585   1.444   9.940  0.1974 -0.7319  0.7853
28484SOL     OW90771   6.338   7.449   1.086  0.1020  0.1530  0.1942
28484SOL    HW190772   6.247   7.473   1.106  0.2332  0.4367  0.4537
28484SOL    HW290773   6.371   7.522   1.034 -0.4601 -0.9012 -1.7395
28485SOL     OW90774   3.977   7.518   0.825  0.3617 -0.3167 -0.3334
28485SOL    HW190775   3.924   7.569   0.886 -0.6785 -0.3374 -1.1865
28485SOL    HW290776   4.064   7.559   0.828 -0.4964  1.7215 -1.1962
28486SOL     OW90777   1.661  10.665   9.921 -0.3233 -0.0603 -0.3718
28486SOL    HW190778   1.583  10.676   9.866 -0.3634  0.7902 -0.1472
28486SOL    HW290779   1.653  10.575   9.954 -0.3374 -0.5649 -1.6731
28487SOL     OW90780   5.944   1.861   8.520 -0.1504  0.1468 -0.2761
28487SOL    HW190781   5.868   1.824   8.566  0.6466 -0.5066  0.5384
28487SOL    HW290782   5.974   1.791   8.462  0.7455 -0.1538  0.5255
28488SOL     OW90783   4.094   1.914   2.533  0.1363  0.3867 -0.5486
28488SOL    HW190784   4.128   1.876   2.614 -0.3674  0.5130 -0.2758
28488SOL    HW290785   4.139   1.999   2.526  1.1558 -0.1781 -1.0866
28489SOL     OW90786   7.993  11.439   4.566 -0.1523 -0.0698 -0.3365
28489SOL    HW190787   7.972  11.379   4.494 -2.0835 -1.1459  1.0441
28489SOL    HW290788   7.923  11.505   4.562  0.2945  0.4232 -0.0375
28490SOL     OW90789   5.534   4.836   9.237  0.0050 -0.1407  0.1116
28490SOL    HW190790   5.598   4.869   9.174 -0.2355  0.1484  0.0131
28490SOL    HW290791   5.585   4.789   9.301  0.1606 -1.2945 -0.8321
28491SOL     OW90792   1.940  10.597  10.529 -0.0683 -0.2603  0.3197
28491SOL    HW190793   1.982  10.682  10.541 -0.8122  0.8653 -3.5726
28491SOL    HW290794   1.856  10.617  10.488 -0.1954 -2.8363 -0.8971
28492SOL     OW90795   6.171   1.976  10.806 -0.3788 -0.0037  0.1773
28492SOL    HW190796   6.136   2.056  10.764 -0.2531 -0.5119 -0.9392
28492SOL    HW290797   6.264   1.993  10.815 -0.1548 -0.4348 -1.0924
28493SOL     OW90798   8.264   5.684   6.197  0.0746 -0.1363 -0.2900
28493SOL    HW190799   8.271   5.773   6.232  0.5669 -0.6445  0.9923
28493SOL    HW290800   8.286   5.628   6.271  2.8362 -1.2642 -1.8284
28494SOL     OW90801   9.191  11.167   3.655  0.5372 -0.3669 -0.3129
28494SOL    HW190802   9.130  11.111   3.701 -0.2281  0.1552 -0.6672
28494SOL    HW290803   9.277  11.146   3.692  0.1061 -0.8890  0.3964
28495SOL     OW90804   2.112   6.399   7.270  0.0533 -0.1592 -0.1515
28495SOL    HW190805   2.198   6.360   7.251  0.2564 -0.5984  1.4939
28495SOL    HW290806   2.131   6.468   7.333 -0.6719  0.5875 -0.7414
28496SOL     OW90807   4.786   5.834   6.232  0.0092  0.1174 -0.0535
28496SOL    HW190808   4.765   5.896   6.162  0.0635  0.0997 -0.0852
28496SOL    HW290809   4.860   5.873   6.278 -2.1337  1.8756  2.1937
28497SOL     OW90810   1.515   4.463  11.000 -0.1949  0.0578 -0.1240
28497SOL    HW190811   1.605   4.445  11.024  0.4382 -1.0401 -2.9261
28497SOL    HW290812   1.521   4.509  10.916 -2.2193  0.7417  0.0547
28498SOL     OW90813   3.261   8.554   8.706 -0.2864  0.1031  0.3742
28498SOL    HW190814   3.350   8.578   8.682  0.0251  1.5755  2.6250
28498SOL    HW290815   3.271   8.505   8.788 -1.4225 -1.9488 -0.6469
28499SOL     OW90816   3.580   2.979  10.527  0.4616 -0.6391 -0.0020
28499SOL    HW190817   3.626   3.063  10.535  0.3668 -0.7409  2.2274
28499SOL    HW290818   3.580   2.961  10.433 -0.5533  2.4121 -0.7084
28500SOL     OW90819   8.864   4.284   2.505  0.6097 -0.1117  0.6446
28500SOL    HW190820   8.850   4.195   2.539  0.2596 -0.0375  0.7004
28500SOL    HW290821   8.958   4.289   2.491  0.4566 -1.0979 -1.0236
28501SOL     OW90822   6.412   8.345   0.900 -0.2172 -0.2112 -0.4041
28501SOL    HW190823   6.392   8.269   0.846 -2.3852 -0.0613  0.0842
28501SOL    HW290824   6.437   8.308   0.985  3.9444 -0.4755 -1.5492
28502SOL     OW90825   4.338  10.949   8.029 -0.3652  0.2120  0.0197
28502SOL    HW190826   4.270  10.912   7.973 -0.8799 -0.0026  0.7676
28502SOL    HW290827   4.325  11.044   8.023 -1.0916  0.1546  0.5882
28503SOL     OW90828   5.457   5.878   4.600 -0.1681 -0.0361  0.1464
28503SOL    HW190829   5.387   5.822   4.633  0.4946 -0.6623  0.5254
28503SOL    HW290830   5.462   5.950   4.663  0.3918 -0.6803  0.8560
28504SOL     OW90831   0.248   0.251   1.554  0.0896 -0.2488 -0.3104
28504SOL    HW190832   0.263   0.193   1.628  1.2139  0.9526  0.4633
28504SOL    HW290833   0.298   0.211   1.482 -1.5352 -1.7673 -0.6544
28505SOL     OW90834   2.919   6.274   3.954  0.2017  0.3798 -0.1781
28505SOL    HW190835   2.852   6.209   3.936  0.1737 -0.1357  1.5622
28505SOL    HW290836   2.925   6.276   4.050  1.1358  1.9872 -0.2332
28506SOL     OW90837   3.082   0.254  10.069  0.3764  0.5639 -0.3453
28506SOL    HW190838   3.055   0.289   9.985  1.6640  0.2903 -0.8945
28506SOL    HW290839   3.142   0.320  10.105 -0.1881  0.6964  0.3869
28507SOL     OW90840   9.903   1.505   6.075  0.2520  0.1512  0.2913
28507SOL    HW190841   9.989   1.492   6.115  0.5913 -1.1959 -0.7810
28507SOL    HW290842   9.852   1.429   6.103  0.1604 -0.2497 -0.8874
28508SOL     OW90843   3.872   9.263  10.882  0.1481 -0.4359  0.2296
28508SOL    HW190844   3.964   9.263  10.857 -0.1860 -3.2471 -1.3615
28508SOL    HW290845   3.845   9.171  10.877 -1.9792 -0.1877  3.7729
28509SOL     OW90846   9.457   4.256   1.027  0.3561  0.5598 -0.4062
28509SOL    HW190847   9.393   4.188   1.047  1.8331 -0.5466  0.7904
28509SOL    HW290848   9.539   4.209   1.012  0.9376  1.9303 -1.8632
28510SOL     OW90849   1.559   2.409   4.119 -0.1748  0.0736 -0.1247
28510SOL    HW190850   1.535   2.473   4.185  0.4547  1.2389 -0.9876
28510SOL    HW290851   1.486   2.408   4.058 -0.2936 -0.2232  0.0199
28511SOL     OW90852  10.501   0.107  11.052 -0.2549  0.0122  0.2043
28511SOL    HW190853  10.423   0.106  10.996 -0.0452  1.2027 -0.1474
28511SOL    HW290854  10.487   0.037  11.115  0.0545 -2.2515 -2.0717
28512SOL     OW90855  10.483   1.241  11.090 -0.3993  0.4922 -0.1388
28512SOL    HW190856  10.428   1.182  11.142  1.9793 -0.8833  0.9965
28512SOL    HW290857  10.508   1.310  11.151  1.7452 -0.6858  0.3863
28513SOL     OW90858   3.545   1.895   9.235  0.9408 -0.0121  0.1966
28513SOL    HW190859   3.543   1.810   9.191 -5.0426 -0.3879  0.3733
28513SOL    HW290860   3.595   1.952   9.177  0.6516 -2.4356 -2.6575
28514SOL     OW90861   4.582  10.406   8.502 -0.5757  0.1945 -0.3469
28514SOL    HW190862   4.533  10.429   8.581 -0.8320 -2.3066  0.3289
28514SOL    HW290863   4.520  10.421   8.431 -0.9489  0.8471  0.1069
28515SOL     OW90864   9.102   1.927   9.634  0.3839  0.4553 -0.3789
28515SOL    HW190865   9.100   2.006   9.687  0.1762 -0.7066  1.4254
28515SOL    HW290866   9.190   1.925   9.597  0.5379  1.2884 -0.0748
28516SOL     OW90867   4.494   0.133  10.104 -0.0225 -0.7474 -0.1679
28516SOL    HW190868   4.492   0.043  10.070  1.6788 -0.4699 -1.0787
28516SOL    HW290869   4.585   0.160  10.095 -0.4634  0.9906  0.3323
28517SOL     OW90870   3.432   4.115   7.589  0.3433 -0.0876  0.2190
28517SOL    HW190871   3.497   4.066   7.638 -0.0946 -2.2024 -1.1573
28517SOL    HW290872   3.407   4.057   7.517 -1.1058  1.7177 -0.8518
28518SOL     OW90873   6.459   7.261   2.910 -0.1635 -0.2378 -0.3299
28518SOL    HW190874   6.440   7.354   2.921  2.2481  0.0162  3.1463
28518SOL    HW290875   6.519   7.258   2.836  1.3185  1.3077  0.7350
28519SOL     OW90876   6.027   7.740   9.909  0.5984  0.2036  0.2195
28519SOL    HW190877   6.029   7.831   9.938  1.9396 -0.6240  3.0518
28519SOL    HW290878   6.107   7.728   9.858 -0.3713  0.9434 -1.5744
28520SOL     OW90879   3.941  11.073   7.200  0.2581 -0.5878 -0.1253
28520SOL    HW190880   4.022  11.043   7.240  0.6894  1.8585  1.0526
28520SOL    HW290881   3.970  11.134   7.132 -0.5650  0.1588  0.1720
28521SOL     OW90882   3.400   4.811   8.688  0.1375  0.2957  0.1231
28521SOL    HW190883   3.347   4.747   8.735 -0.9103 -0.8439 -2.4351
28521SOL    HW290884   3.468   4.760   8.645  0.2137  1.1011 -0.7335
28522SOL     OW90885   9.094   0.493   3.769 -0.0392 -0.0445 -0.2850
28522SOL    HW190886   9.039   0.443   3.829  0.1099 -0.8788 -0.8316
28522SOL    HW290887   9.146   0.427   3.723  2.0240  0.7577  0.7771
28523SOL     OW90888   1.161   1.503   7.756  0.6443 -0.5581  0.5995
28523SOL    HW190889   1.191   1.414   7.775  0.1375 -0.9839 -0.4799
28523SOL    HW290890   1.067   1.493   7.738  0.6098  0.1770  0.3418
28524SOL     OW90891   4.411   6.712   3.929 -0.1270 -0.0673  0.3223
28524SOL    HW190892   4.357   6.760   3.992  0.2545 -0.7872  1.2241
28524SOL    HW290893   4.408   6.622   3.960  1.8812 -0.0705  0.6230
28525SOL     OW90894   9.989  10.697   8.188 -0.1741  0.5617  0.3881
28525SOL    HW190895   9.938  10.664   8.262  0.0861 -1.6968 -0.3612
28525SOL    HW290896  10.073  10.724   8.227  0.2705 -1.3793  0.8527
28526SOL     OW90897   7.053   2.566   4.816 -0.4892 -0.1704  0.0299
28526SOL    HW190898   7.028   2.498   4.753  0.0122  0.2909 -0.6744
28526SOL    HW290899   7.007   2.644   4.787 -2.2741 -0.5189  1.7108
28527SOL     OW90900   7.934  11.744   3.115  0.1565  0.4037 -1.0814
28527SOL    HW190901   8.003  11.809   3.133  0.5870 -0.3507  0.0898
28527SOL    HW290902   7.887  11.735   3.198 -0.7608  0.1981 -1.6134
28528SOL     OW90903   2.272   2.071  10.799  0.0036  0.2360  0.2026
28528SOL    HW190904   2.184   2.069  10.838 -0.2575 -1.1093 -0.4036
28528SOL    HW290905   2.285   1.983  10.764  0.9724  0.8625 -1.0977
28529SOL     OW90906   8.482   5.629   3.953  0.8723  0.2540  0.0096
28529SOL    HW190907   8.395   5.657   3.926  1.1857 -0.6254 -2.1465
28529SOL    HW290908   8.518   5.705   4.000 -0.9338  0.6997  0.7624
28530SOL     OW90909   4.688   3.120   6.862 -0.1431 -0.5876  0.1058
28530SOL    HW190910   4.627   3.182   6.821  2.1742  0.9210 -1.3130
28530SOL    HW290911   4.639   3.038   6.868 -2.3260  0.5611 -0.8281
28531SOL     OW90912   0.747   0.832  10.047  0.4135 -0.6585 -0.2673
28531SOL    HW190913   0.677   0.882  10.005 -0.4349 -1.5344  0.0597
28531SOL    HW290914   0.802   0.898  10.089 -1.7771 -0.0294  1.8323
28532SOL     OW90915   7.858   2.640   2.226 -0.4936  0.4369  0.3595
28532SOL    HW190916   7.774   2.630   2.181  0.3583  1.0017 -1.4166
28532SOL    HW290917   7.924   2.624   2.159  0.8887 -1.6009  2.0621
28533SOL     OW90918   0.449   6.934   0.964 -0.1426  0.2226  0.5322
28533SOL    HW190919   0.509   6.995   1.007  0.1173  0.6589 -0.4140
28533SOL    HW290920   0.506   6.868   0.924 -0.1899  1.1236 -1.1194
28534SOL     OW90921   5.289   9.145   2.779 -0.4312  0.3834  0.0900
28534SOL    HW190922   5.253   9.202   2.711  0.0528 -0.4865 -0.9143
28534SOL    HW290923   5.363   9.100   2.737 -0.8614 -1.0692  0.8122
28535SOL     OW90924   2.464   9.629   5.079  0.9645  0.0368 -0.1516
28535SOL    HW190925   2.463   9.723   5.095  0.4118 -0.2077  1.5136
28535SOL    HW290926   2.375   9.609   5.049  0.9913  0.0077 -0.2113
28536SOL     OW90927   8.887   8.165   4.865 -0.5944  0.4874 -0.3448
28536SOL    HW190928   8.880   8.149   4.959 -0.5980 -1.6004 -0.6377
28536SOL    HW290929   8.957   8.229   4.856 -0.5795  0.6875  1.0828
28537SOL     OW90930   6.111   0.166   7.293 -0.2709 -0.0425 -0.4723
28537SOL    HW190931   6.103   0.145   7.386 -1.7872  0.8831 -0.3466
28537SOL    HW290932   6.204   0.177   7.278 -0.1297  1.9984  1.4693
28538SOL     OW90933   3.160   8.520   7.393  0.2549  0.7627 -0.5234
28538SOL    HW190934   3.130   8.450   7.334 -0.2607  1.5889 -1.2538
28538SOL    HW290935   3.253   8.531   7.373  0.1361  0.8769 -1.0180
28539SOL     OW90936   7.096   4.539   0.803  0.2567  0.0694  0.3589
28539SOL    HW190937   7.071   4.582   0.885 -0.7680  1.6110 -0.7143
28539SOL    HW290938   7.135   4.609   0.750  0.4709 -0.7898 -0.6486
28540SOL     OW90939   4.537   5.119   7.160  0.0527  0.3839  0.2439
28540SOL    HW190940   4.579   5.134   7.075 -0.0277  1.3780  0.3649
28540SOL    HW290941   4.505   5.029   7.156 -1.8704  1.0581 -1.6199
28541SOL     OW90942   2.104   5.267   1.920  0.3161 -0.0879  0.2196
28541SOL    HW190943   2.047   5.257   1.843 -1.3137  1.4965  1.1324
28541SOL    HW290944   2.126   5.360   1.921  1.8014 -0.4177  0.7218
28542SOL     OW90945   2.517   7.443   7.409 -0.1727 -0.1044  0.2162
28542SOL    HW190946   2.434   7.395   7.398 -0.3675 -0.1355  1.6034
28542SOL    HW290947   2.537   7.434   7.503  0.2034  1.8526  0.3655
28543SOL     OW90948   9.735   4.196   0.994 -0.2922  0.7118 -0.1612
28543SOL    HW190949   9.747   4.245   1.075 -0.5378 -0.3222  0.5216
28543SOL    HW290950   9.821   4.196   0.953  0.5067 -0.9062  1.3768
28544SOL     OW90951   4.915  10.138   2.007 -0.5690 -0.1904  0.0833
28544SOL    HW190952   4.892  10.149   2.099 -0.0673  0.1180  0.1775
28544SOL    HW290953   4.840  10.092   1.969 -0.8055 -0.2701  0.6303
28545SOL     OW90954   5.192   1.803   7.578 -0.7702 -0.8939 -0.0669
28545SOL    HW190955   5.106   1.846   7.574  0.5360  2.1661  1.0937
28545SOL    HW290956   5.216   1.808   7.671  1.7977  1.0061 -0.7373
28546SOL     OW90957   1.696   3.248   3.988  0.3780 -0.4912 -0.5660
28546SOL    HW190958   1.611   3.227   4.027 -0.0222  0.6178 -0.8177
28546SOL    HW290959   1.756   3.249   4.062 -0.4674  2.0959  0.1795
28547SOL     OW90960   0.210   8.519   7.898 -0.0109  0.0885  0.4920
28547SOL    HW190961   0.139   8.511   7.834 -1.0149  0.0559  1.5912
28547SOL    HW290962   0.206   8.610   7.927  0.1330 -0.0202  0.8610
28548SOL     OW90963   6.874   1.386   4.148 -0.1298 -0.1861 -0.0848
28548SOL    HW190964   6.781   1.380   4.127 -0.3405  0.9460  0.4811
28548SOL    HW290965   6.908   1.297   4.133 -1.2133 -0.5147 -0.6580
28549SOL     OW90966   4.529   0.706   9.196  0.3929 -0.0409  0.0637
28549SOL    HW190967   4.480   0.749   9.266  1.6423  1.6137 -0.0086
28549SOL    HW290968   4.593   0.771   9.169 -0.3698 -0.4210 -2.9986
28550SOL     OW90969   7.944   9.815  11.799  0.1603  0.1310  0.0960
28550SOL    HW190970   8.013   9.838  11.861  0.7720 -2.5067  0.5073
28550SOL    HW290971   7.989   9.807  11.715  0.3284 -1.2456  0.2993
28551SOL     OW90972  11.497   9.553   1.204 -0.2382  0.2557 -0.6636
28551SOL    HW190973  11.569   9.530   1.145 -0.5196  0.6245 -1.1647
28551SOL    HW290974  11.418   9.533   1.154 -0.5447 -2.2777  0.7083
28552SOL     OW90975   0.802  11.571   8.151 -0.6647 -0.5586  0.5553
28552SOL    HW190976   0.892  11.604   8.141  0.1931 -2.7541  0.5662
28552SOL    HW290977   0.776  11.547   8.062 -0.3311 -2.0699  0.8356
28553SOL     OW90978   3.964   7.969   4.947  0.8879  0.1105  0.8684
28553SOL    HW190979   3.973   7.961   4.852  0.1098  0.6065  0.7405
28553SOL    HW290980   4.012   7.894   4.982  2.7486  0.9224  0.1697
28554SOL     OW90981   2.704   5.213   0.885 -0.2286  0.3670 -0.1798
28554SOL    HW190982   2.711   5.308   0.886 -0.6054  0.3992 -0.5827
28554SOL    HW290983   2.781   5.184   0.835  1.0152  0.3369  1.6104
28555SOL     OW90984   3.704   9.576   2.733 -0.0992 -0.1500 -0.0536
28555SOL    HW190985   3.722   9.664   2.700 -0.2190  0.0088  0.3012
28555SOL    HW290986   3.658   9.532   2.662 -0.9657  0.4062  0.1582
28556SOL     OW90987  11.170   9.631   1.610 -0.1481  0.0683  0.5984
28556SOL    HW190988  11.098   9.629   1.673 -0.8434  0.3093 -0.1683
28556SOL    HW290989  11.185   9.724   1.593  0.0054  0.0053  0.3753
28557SOL     OW90990   4.243   6.079  10.101 -0.2508  0.0783  1.0531
28557SOL    HW190991   4.157   6.058  10.064 -0.5782  2.4901  0.2672
28557SOL    HW290992   4.241   6.041  10.189 -1.5240 -1.2235  0.5070
28558SOL     OW90993   4.233   1.162  11.537 -0.2266 -0.0530  0.0157
28558SOL    HW190994   4.207   1.160  11.445 -0.6593  0.4825  0.1237
28558SOL    HW290995   4.214   1.074  11.569 -1.0577  0.0608 -0.1434
28559SOL     OW90996   8.302   1.164   8.437  0.2916 -0.8180  0.2413
28559SOL    HW190997   8.277   1.256   8.444  0.9965 -0.5819 -0.2008
28559SOL    HW290998   8.278   1.126   8.521 -0.0634 -0.2415  0.4032
28560SOL     OW90999   5.155  10.087   8.905  0.0715  0.4844  0.1244
28560SOL    HW191000   5.218  10.021   8.877 -0.8845 -0.3793 -0.0345
28560SOL    HW291001   5.182  10.167   8.860  1.8996  0.5143  1.1535
28561SOL     OW91002   1.607   2.051   3.769 -0.0295  0.3724  0.2080
28561SOL    HW191003   1.524   2.023   3.805  0.2621  0.6599  1.1398
28561SOL    HW291004   1.664   1.974   3.774 -0.5524 -0.1606 -1.4950
28562SOL     OW91005   9.231   9.685  11.753 -0.5651  0.3841  0.7766
28562SOL    HW191006   9.318   9.716  11.730 -0.1318 -0.9680  0.4609
28562SOL    HW291007   9.194   9.654  11.670 -1.4137  1.0730  0.8811
28563SOL     OW91008   4.217   0.253   2.882  0.5018 -0.1405 -0.2979
28563SOL    HW191009   4.241   0.194   2.953  0.5899  1.4250  1.0167
28563SOL    HW291010   4.133   0.290   2.909  1.4346  1.8994 -0.0661
28564SOL     OW91011  10.930   7.410   5.283 -0.0546  0.4014  0.1006
28564SOL    HW191012  10.858   7.463   5.248 -0.8736 -1.6633 -1.5570
28564SOL    HW291013  10.928   7.330   5.232  4.1246  0.6184 -0.8033
28565SOL     OW91014   4.203  10.885  10.795  0.3348  0.5886 -0.2925
28565SOL    HW191015   4.154  10.951  10.747 -0.0875  0.9056  0.5542
28565SOL    HW291016   4.212  10.813  10.733 -1.0616  0.5926 -0.5486
28566SOL     OW91017   1.372   1.845   0.401  0.6379 -0.0911 -0.1285
28566SOL    HW191018   1.307   1.786   0.363 -0.1629  0.1918  0.7665
28566SOL    HW291019   1.456   1.802   0.385  0.2250 -0.5592 -1.1190
28567SOL     OW91020   3.080   5.426   0.647 -0.1651 -0.6808 -0.4033
28567SOL    HW191021   3.142   5.414   0.719  0.6999  2.5406 -0.4549
28567SOL    HW291022   3.134   5.454   0.574 -1.4708  0.2279 -1.0551
28568SOL     OW91023   6.633  11.578   9.969  0.3209 -0.1754  0.1138
28568SOL    HW191024   6.577  11.513  10.013 -0.5496  0.3778 -0.1583
28568SOL    HW291025   6.579  11.610   9.896  1.2003 -0.0171 -0.4777
28569SOL     OW91026   3.868   4.373   3.178 -0.3159 -0.3021 -0.0967
28569SOL    HW191027   3.926   4.388   3.103  0.5683  1.3509  0.8778
28569SOL    HW291028   3.834   4.459   3.200 -0.0261 -0.6454  1.8288
28570SOL     OW91029   6.629   7.823   1.629 -0.1264  0.3093  0.7567
28570SOL    HW191030   6.675   7.894   1.584  2.7223 -0.8954  1.6052
28570SOL    HW291031   6.576   7.782   1.561  1.3066  0.7585 -0.6867
28571SOL     OW91032   6.934   6.588   2.983  0.6217 -1.1872 -0.3454
28571SOL    HW191033   6.998   6.516   2.976  0.0721 -1.7291  0.0858
28571SOL    HW291034   6.973   6.648   3.046  2.0793 -0.0203 -2.2493
28572SOL     OW91035   1.460   5.188   4.917  0.2088  0.2320  0.3771
28572SOL    HW191036   1.487   5.236   4.996 -1.7612  0.4303  0.9667
28572SOL    HW291037   1.538   5.191   4.861  0.3607  3.8231  0.5283
28573SOL     OW91038   3.571   3.827  11.601  0.2171 -0.1962 -0.1627
28573SOL    HW191039   3.521   3.751  11.570 -0.3282  0.1868 -0.2219
28573SOL    HW291040   3.612   3.797  11.682  0.3734 -0.7023 -0.4243
28574SOL     OW91041   1.825   8.758   7.822 -0.2118 -0.3729  0.3260
28574SOL    HW191042   1.897   8.696   7.810  0.2622  0.0479  0.9268
28574SOL    HW291043   1.771   8.747   7.744  1.8571  1.1319 -1.4381
28575SOL     OW91044   2.472   3.970   1.013  0.0411 -0.1830  0.0158
28575SOL    HW191045   2.488   4.012   0.929  0.2220 -0.7659 -0.2482
28575SOL    HW291046   2.514   4.027   1.077  1.9513 -0.9272 -0.5207
28576SOL     OW91047   4.775  11.483   3.753 -0.3128 -0.3818 -0.6498
28576SOL    HW191048   4.843  11.543   3.783 -1.8221 -0.0087  2.4316
28576SOL    HW291049   4.812  11.441   3.675  3.8918 -0.9741  1.4029
28577SOL     OW91050   8.165   3.640  10.763  0.3091  0.2805  0.6108
28577SOL    HW191051   8.201   3.567  10.813  2.2978  1.1667  0.5610
28577SOL    HW291052   8.227   3.712  10.777 -0.9369  1.5952 -0.3332
28578SOL     OW91053   4.867   7.214   7.083  0.5155 -0.1231  0.1400
28578SOL    HW191054   4.938   7.177   7.030 -0.0587  0.2194 -0.8929
28578SOL    HW291055   4.871   7.308   7.068 -0.4539 -0.1417 -0.3181
28579SOL     OW91056   3.393   1.092   5.461 -0.3162  0.6673 -0.2795
28579SOL    HW191057   3.423   1.011   5.420 -0.3777  1.1890 -1.4096
28579SOL    HW291058   3.400   1.076   5.555 -0.0044 -0.5196 -0.4893
28580SOL     OW91059   2.223   5.232   8.429 -0.0467 -0.7169  0.1270
28580SOL    HW191060   2.178   5.171   8.369 -0.6618 -1.3495  1.1930
28580SOL    HW291061   2.269   5.175   8.491 -0.9755 -0.1248  1.4067
28581SOL     OW91062   2.612   6.512   0.644  0.3622  0.1426  0.3708
28581SOL    HW191063   2.568   6.485   0.725 -1.1006 -0.0928 -0.4555
28581SOL    HW291064   2.581   6.601   0.629 -2.0768 -0.9024 -1.5990
28582SOL     OW91065   8.945  11.411   3.011 -0.0782 -0.6533 -0.1741
28582SOL    HW191066   8.855  11.392   2.986  0.2644 -0.3289 -1.7966
28582SOL    HW291067   8.998  11.350   2.959  0.7732  1.3207 -1.8258
28583SOL     OW91068   1.113   9.897   3.973  0.3603  0.1179  0.0923
28583SOL    HW191069   1.063   9.933   4.046  0.3520 -0.9735  0.6316
28583SOL    HW291070   1.203   9.925   3.989  0.2848  0.2532  0.2797
28584SOL     OW91071   4.110   1.698   0.166  0.8563 -0.6001  0.4580
28584SOL    HW191072   4.028   1.648   0.174  0.1125  0.6612  0.9632
28584SOL    HW291073   4.170   1.655   0.227 -0.2400  0.0060  2.0245
28585SOL     OW91074   6.157   2.013  11.232 -0.1994 -0.6389 -0.4877
28585SOL    HW191075   6.212   2.007  11.310  0.1909 -1.7218 -0.8261
28585SOL    HW291076   6.138   2.107  11.223 -0.2255 -0.4966  0.8751
28586SOL     OW91077   9.787   7.064   7.491  0.5271 -0.5824  0.1456
28586SOL    HW191078   9.745   7.042   7.574 -0.3504 -0.4074 -0.2346
28586SOL    HW291079   9.733   7.020   7.425  0.4272  0.3656 -0.4239
28587SOL     OW91080  10.461   5.485   8.965  0.9598 -0.2684  0.0136
28587SOL    HW191081  10.495   5.423   8.900  1.3724 -0.4933  0.4334
28587SOL    HW291082  10.524   5.556   8.967 -0.6485  1.3513 -2.1155
28588SOL     OW91083   0.064   0.594   0.277  0.5099 -0.1216 -0.1858
28588SOL    HW191084   0.074   0.689   0.271 -1.3620  0.1432  0.2563
28588SOL    HW291085   0.038   0.579   0.368  0.6356 -1.0415 -0.2978
28589SOL     OW91086   4.528   8.879   8.195  0.3735 -0.5537 -0.2661
28589SOL    HW191087   4.594   8.826   8.150  0.2420 -0.9866  0.0538
28589SOL    HW291088   4.448   8.827   8.192 -0.7782  1.1341 -3.1860
28590SOL     OW91089   7.152   8.606   8.017  0.0310  0.0058  0.0089
28590SOL    HW191090   7.207   8.609   8.095 -0.5812 -2.0010  0.5743
28590SOL    HW291091   7.067   8.576   8.049 -0.8114  1.0614 -1.1612
28591SOL     OW91092   3.748  11.357   5.907 -0.1000 -0.8056  0.6770
28591SOL    HW191093   3.838  11.388   5.911  0.2194 -1.2687 -1.7017
28591SOL    HW291094   3.755  11.261   5.906 -0.8301 -0.9685  3.2235
28592SOL     OW91095   8.411   9.684   8.950 -0.2623 -0.0652 -0.6054
28592SOL    HW191096   8.432   9.741   9.025  2.1836 -1.9018  0.2577
28592SOL    HW291097   8.399   9.744   8.877  0.4788  1.6633  0.6174
28593SOL     OW91098   3.555   7.950   5.942 -0.3711 -0.2946 -0.5783
28593SOL    HW191099   3.494   7.990   5.879 -0.2688 -1.9410 -1.7829
28593SOL    HW291100   3.586   7.871   5.899  2.4274  0.3034  0.1147
28594SOL     OW91101   9.970   2.545   9.704 -0.0928  0.5018  0.4680
28594SOL    HW191102  10.036   2.510   9.643  0.1071 -1.0386  1.5063
28594SOL    HW291103   9.954   2.634   9.673  0.1103 -0.1621 -1.7496
28595SOL     OW91104   3.467   0.912   4.042 -0.4966 -0.1069 -0.5724
28595SOL    HW191105   3.492   0.874   4.126 -1.8673 -0.9415 -0.5076
28595SOL    HW291106   3.371   0.918   4.046 -0.4972  0.9772 -1.6079
28596SOL     OW91107   7.263   7.041   3.446  0.4795 -0.0437  0.2260
28596SOL    HW191108   7.266   7.132   3.475 -0.0323  0.0037  0.1320
28596SOL    HW291109   7.187   7.004   3.492 -0.3334  0.0218 -1.0192
28597SOL     OW91110   2.042   6.162   5.485 -0.4517 -0.6097 -0.6738
28597SOL    HW191111   2.039   6.120   5.571  0.4364 -0.3854 -0.5145
28597SOL    HW291112   1.959   6.208   5.477 -0.3964 -0.3479  0.2115
28598SOL     OW91113   4.124  10.508  11.157  0.3659 -0.4029  0.0246
28598SOL    HW191114   4.046  10.472  11.115  1.2861 -1.9538 -0.4296
28598SOL    HW291115   4.161  10.568  11.092 -0.5545  0.5425  0.3416
28599SOL     OW91116   8.701   1.848  11.607 -0.8228  0.1638  0.0446
28599SOL    HW191117   8.780   1.802  11.635 -1.5658 -0.4056  1.2118
28599SOL    HW291118   8.693   1.826  11.514 -1.0164 -1.8584  0.5017
28600SOL     OW91119   9.014   4.978  10.654 -0.2329 -0.3167  0.4567
28600SOL    HW191120   8.958   5.009  10.726  0.5346 -0.7718  1.2763
28600SOL    HW291121   9.070   5.053  10.634 -0.3775 -0.2228  0.3992
28601SOL     OW91122   6.064   5.149   8.902 -0.2761 -0.4844  0.6277
28601SOL    HW191123   5.975   5.177   8.877 -0.5398 -0.0761  1.9598
28601SOL    HW291124   6.104   5.228   8.938  0.6556 -0.6609  0.0051
28602SOL     OW91125   7.108  11.729  11.147 -0.6312 -0.0589  0.2429
28602SOL    HW191126   7.043  11.740  11.217 -0.5592 -1.0954  0.4922
28602SOL    HW291127   7.183  11.687  11.191 -0.5849 -0.7246 -0.4458
28603SOL     OW91128   4.401   8.504   2.686 -0.5274 -0.3270 -0.2225
28603SOL    HW191129   4.439   8.441   2.625 -1.7712 -0.9233 -0.4225
28603SOL    HW291130   4.404   8.587   2.639  0.2971 -0.4012 -0.3164
28604SOL     OW91131   6.582   5.986  11.064  0.3532  0.2411  0.5906
28604SOL    HW191132   6.530   6.065  11.051  0.6417  0.7045  2.1106
28604SOL    HW291133   6.631   5.975  10.982 -0.8254  0.7622 -0.2075
28605SOL     OW91134   6.351   4.582  10.422  0.0097  0.6004 -0.2195
28605SOL    HW191135   6.340   4.502  10.473  0.0073 -0.9621 -2.5287
28605SOL    HW291136   6.263   4.619  10.416  0.1589  1.3910  1.6847
28606SOL     OW91137   3.731   6.416   9.605 -0.0328  0.9386  0.6176
28606SOL    HW191138   3.703   6.462   9.526 -1.6219  3.0131  2.2827
28606SOL    HW291139   3.676   6.338   9.608 -0.6709  1.3669  0.1984
28607SOL     OW91140   1.836  10.590   8.495  0.1566  0.0901 -0.2309
28607SOL    HW191141   1.774  10.611   8.426  0.6672  0.5372 -0.5659
28607SOL    HW291142   1.886  10.516   8.461 -1.6082 -1.7513  0.9265
28608SOL     OW91143   0.896  10.524   3.569 -0.0014 -0.2232 -0.1165
28608SOL    HW191144   0.838  10.576   3.624  0.5694 -0.5030  0.7655
28608SOL    HW291145   0.838  10.465   3.521 -0.4934 -0.0405  0.2480
28609SOL     OW91146   6.318   3.168   4.007 -0.0257 -0.4866 -0.2447
28609SOL    HW191147   6.350   3.221   4.079 -2.2932 -1.8810  1.9408
28609SOL    HW291148   6.360   3.083   4.018 -1.8008 -1.2883  0.6341
28610SOL     OW91149   0.511   2.047   2.710 -0.1449 -0.0084  0.1494
28610SOL    HW191150   0.539   2.008   2.627 -0.5270  0.4123 -0.1825
28610SOL    HW291151   0.589   2.094   2.741 -0.1166  0.1613 -0.1680
28611SOL     OW91152   8.853   5.290   1.398  0.0885  0.0234  0.1109
28611SOL    HW191153   8.862   5.269   1.305 -0.1054 -1.6095  0.4400
28611SOL    HW291154   8.805   5.373   1.399  1.0624  0.6496 -1.2554
28612SOL     OW91155   6.802   8.230  10.504 -0.2588 -0.1597 -0.3389
28612SOL    HW191156   6.880   8.251  10.555  0.3656  0.0821 -1.3550
28612SOL    HW291157   6.778   8.141  10.531 -0.6521  0.3937  1.2100
28613SOL     OW91158   8.893   9.813   6.064 -0.6745  0.4992 -0.2141
28613SOL    HW191159   8.974   9.770   6.091 -0.5728  1.3527  0.8878
28613SOL    HW291160   8.864   9.764   5.987  0.7329  0.0032 -0.4467
28614SOL     OW91161   8.205   8.160   2.529  0.1173  0.1047  0.0988
28614SOL    HW191162   8.156   8.078   2.532 -0.5926  0.4615 -0.9951
28614SOL    HW291163   8.265   8.155   2.603 -0.2574 -1.1799  0.3423
28615SOL     OW91164   5.225   8.575  10.934 -0.1713  0.0123  0.0180
28615SOL    HW191165   5.143   8.601  10.977 -0.1551  1.8220 -0.9675
28615SOL    HW291166   5.293   8.599  10.996 -0.2623  0.8158 -0.1804
28616SOL     OW91167  10.513   0.431   2.224 -0.1368 -0.1299  0.6606
28616SOL    HW191168  10.595   0.467   2.257  0.5958 -1.1401  0.0130
28616SOL    HW291169  10.445   0.486   2.263  0.7514 -0.3375  2.6273
28617SOL     OW91170   8.785   8.706   8.162 -0.4963 -0.0819 -0.0219
28617SOL    HW191171   8.834   8.665   8.233 -0.3411 -1.8804 -1.0999
28617SOL    HW291172   8.850   8.753   8.110  0.1245 -2.1956 -1.2662
28618SOL     OW91173  10.021   5.341   9.892 -0.0600  0.1159  0.5533
28618SOL    HW191174  10.052   5.405   9.828 -1.1589 -0.0990 -0.2131
28618SOL    HW291175  10.067   5.260   9.870 -1.5837 -0.3857 -1.0190
28619SOL     OW91176  11.536   8.061  10.993  0.0631 -0.1327 -0.0528
28619SOL    HW191177  11.446   8.034  10.974  0.0554  0.1995 -0.4834
28619SOL    HW291178  11.576   8.073  10.908  1.0291 -1.9088  0.1011
28620SOL     OW91179   8.403   9.476   8.053  0.5574 -0.8725  0.3505
28620SOL    HW191180   8.318   9.432   8.045  0.0896  0.0830 -0.2196
28620SOL    HW291181   8.465   9.406   8.070 -0.6496 -1.3908  3.0844
28621SOL     OW91182   2.958   4.580   5.358 -0.0111 -0.3563  0.1550
28621SOL    HW191183   3.024   4.555   5.292  0.9374  0.9035  0.5859
28621SOL    HW291184   2.975   4.522   5.432  0.8561  0.1767  0.3892
28622SOL     OW91185   4.647   0.710  10.851  0.6294 -0.0357  0.0291
28622SOL    HW191186   4.737   0.743  10.846  0.5037  0.3338  0.2376
28622SOL    HW291187   4.657   0.614  10.850  1.1587 -0.0536  2.2356
28623SOL     OW91188   5.384   9.005   5.017  0.0504 -0.1948 -0.1466
28623SOL    HW191189   5.381   9.062   4.940 -1.2738 -0.1672 -0.0936
28623SOL    HW291190   5.460   9.036   5.067  0.1365  0.6401 -0.7758
28624SOL     OW91191   0.240   9.942   7.451 -0.0749  0.2889  0.0366
28624SOL    HW191192   0.225   9.964   7.359 -0.5542 -1.0388 -0.2227
28624SOL    HW291193   0.328   9.905   7.453  0.0682  0.6300  0.1799
28625SOL     OW91194  10.476   8.518   3.050 -0.0389  0.2421  0.1093
28625SOL    HW191195  10.559   8.546   3.011 -0.1206  1.0328  0.4869
28625SOL    HW291196  10.479   8.422   3.045  1.4758  0.1847  1.3242
28626SOL     OW91197  11.696   7.863   7.529 -0.2661  0.2476 -0.1595
28626SOL    HW191198  11.618   7.918   7.539  0.6146  1.3869  0.9182
28626SOL    HW291199  11.769   7.922   7.549  0.8619 -0.8643 -0.8202
28627SOL     OW91200   3.436   8.464   7.342  0.1896  0.3418  0.4186
28627SOL    HW191201   3.494   8.418   7.402  0.1685  0.3625  0.4549
28627SOL    HW291202   3.446   8.419   7.258  0.7021  0.7112  0.2761
28628SOL     OW91203   5.791   4.366   5.243  0.5169  0.0633  0.5728
28628SOL    HW191204   5.748   4.433   5.296 -1.5839  0.8486 -1.9501
28628SOL    HW291205   5.879   4.401   5.227 -0.2936  1.9270 -0.0780
28629SOL     OW91206   7.758   7.340   6.778 -0.1786 -0.2268  0.0412
28629SOL    HW191207   7.725   7.415   6.728  0.9588  1.1748  1.2650
28629SOL    HW291208   7.688   7.321   6.841 -0.1766  0.3053  0.2102
28630SOL     OW91209   4.297   3.307   0.833  0.1257 -0.1605  0.3022
28630SOL    HW191210   4.237   3.233   0.841  1.4460 -1.2322  0.4530
28630SOL    HW291211   4.294   3.330   0.739 -0.1384 -0.5047  0.2243
28631SOL     OW91212   0.471   4.605   9.241 -0.3455 -0.3316  0.3988
28631SOL    HW191213   0.452   4.563   9.158  2.9834  0.3761 -0.8539
28631SOL    HW291214   0.466   4.699   9.222  0.0357 -0.1571  1.1255
28632SOL     OW91215   3.145   5.998  11.679  0.1060 -0.2177  0.4213
28632SOL    HW191216   3.147   5.933  11.609  1.7312 -0.1527  0.3626
28632SOL    HW291217   3.196   6.072  11.644  0.1275  0.2015  1.3107
28633SOL     OW91218   7.785  10.485   5.626  0.8525 -0.4021  0.1919
28633SOL    HW191219   7.706  10.496   5.572 -0.9713  0.1016  2.7538
28633SOL    HW291220   7.852  10.535   5.581 -1.3041  2.3744 -0.2274
28634SOL     OW91221  11.808   0.492   0.018 -0.4279  0.3681  0.2172
28634SOL    HW191222  11.870   0.447  -0.039 -0.6067  1.0940 -0.5772
28634SOL    HW291223  11.860   0.524   0.092 -0.0271  0.1925  0.0098
28635SOL     OW91224  10.542   4.433   8.529 -0.4257 -0.2789 -0.5167
28635SOL    HW191225  10.508   4.348   8.558  0.6215 -0.2361  0.9909
28635SOL    HW291226  10.619   4.411   8.476 -0.0554 -0.2963  0.0124
28636SOL     OW91227   2.107   9.152  11.161  0.5888  0.0581 -0.4771
28636SOL    HW191228   2.080   9.063  11.180  1.3194 -0.1870 -0.5372
28636SOL    HW291229   2.149   9.182  11.242 -0.7765  0.8093 -0.0104
28637SOL     OW91230   5.365  10.493   8.391 -0.1554  0.7433 -0.6713
28637SOL    HW191231   5.279  10.453   8.373 -0.9332  1.6402  0.8375
28637SOL    HW291232   5.345  10.571   8.443  1.5170  1.6223 -1.2672
28638SOL     OW91233  10.936   1.021   0.397 -0.3158 -0.1535  0.7457
28638SOL    HW191234  10.872   0.951   0.410  0.2261 -0.6825  0.6187
28638SOL    HW291235  10.981   0.997   0.316 -0.7340  0.8254  0.2007
28639SOL     OW91236   5.268  10.098  11.405  0.5629 -0.1113  0.2151
28639SOL    HW191237   5.253  10.161  11.475  0.3818  0.3293 -0.2123
28639SOL    HW291238   5.193  10.038  11.410  0.2555  0.2526  0.0499
28640SOL     OW91239   8.179   8.969   4.646 -0.0826 -0.2004 -0.0879
28640SOL    HW191240   8.087   8.957   4.667  0.0754 -0.2618  0.5885
28640SOL    HW291241   8.180   8.995   4.554 -0.8869  1.5813  0.3737
28641SOL     OW91242   8.123   4.558   2.417 -1.3141 -0.2158  0.0039
28641SOL    HW191243   8.186   4.555   2.345 -1.2362 -0.0568  0.0631
28641SOL    HW291244   8.042   4.588   2.377 -1.7348 -1.7251 -0.3340
28642SOL     OW91245   2.685   3.627   4.904  0.5619  0.4596 -0.3417
28642SOL    HW191246   2.731   3.633   4.988  0.2545  0.2490 -0.1529
28642SOL    HW291247   2.598   3.662   4.922  0.0047 -0.9117 -0.1873
28643SOL     OW91248   7.962   5.129   2.424 -0.2591 -0.3567 -0.3614
28643SOL    HW191249   8.035   5.098   2.478 -0.5728 -0.7582 -0.1630
28643SOL    HW291250   7.902   5.169   2.487 -0.0600  0.2697 -0.5639
28644SOL     OW91251   6.886   1.353   6.030 -0.3359  0.2875  0.2820
28644SOL    HW191252   6.941   1.387   5.959  0.1126  1.2436  1.0752
28644SOL    HW291253   6.938   1.283   6.069  0.4119  1.3070  1.1432
28645SOL     OW91254   9.581  10.446  10.414 -0.1471 -0.2127 -0.1134
28645SOL    HW191255   9.518  10.428  10.344 -1.1093  0.8180  0.4653
28645SOL    HW291256   9.530  10.442  10.495 -0.1984  3.4117  0.2162
28646SOL     OW91257  11.356   4.962   7.150  0.3737  0.0343  0.1656
28646SOL    HW191258  11.369   4.962   7.055  1.2549  1.5049  0.2562
28646SOL    HW291259  11.299   4.887   7.167 -0.7783  0.4514 -1.6605
28647SOL     OW91260   0.160   0.252   9.214  0.2130 -0.7420  0.3039
28647SOL    HW191261   0.195   0.163   9.218 -0.4039 -0.9539  1.5433
28647SOL    HW291262   0.073   0.245   9.255  0.9367  0.7752  2.2934
28648SOL     OW91263   8.396   5.932  10.203 -0.5919  0.2873  0.3343
28648SOL    HW191264   8.307   5.964  10.218 -0.8629  0.0687 -0.7194
28648SOL    HW291265   8.390   5.837  10.219 -0.3581  0.3840  1.0308
28649SOL     OW91266   4.635   0.153   8.936 -0.1214 -0.2461  0.8060
28649SOL    HW191267   4.609   0.228   8.990 -1.6650 -1.3425  1.6685
28649SOL    HW291268   4.554   0.124   8.895  0.9389  0.2564 -1.8019
28650SOL     OW91269   4.609   2.737   8.551  0.3541  0.3779 -0.0665
28650SOL    HW191270   4.619   2.672   8.621 -2.2820 -0.6291 -0.4772
28650SOL    HW291271   4.552   2.804   8.589 -0.9145 -0.0644 -1.0794
28651SOL     OW91272   7.880   8.535   9.463  0.0626  0.2504 -0.0982
28651SOL    HW191273   7.917   8.457   9.504 -0.2495 -0.0642 -0.4087
28651SOL    HW291274   7.802   8.556   9.515 -0.9229 -0.7488 -1.0969
28652SOL     OW91275   4.816   9.833   0.886 -0.1514 -0.6447  0.6988
28652SOL    HW191276   4.804   9.864   0.976  0.5679  2.9983 -0.2880
28652SOL    HW291277   4.911   9.824   0.876 -0.1371  0.1839 -0.0122
28653SOL     OW91278   7.526   5.139   3.010 -0.3809  0.1632 -0.0622
28653SOL    HW191279   7.561   5.174   2.929 -1.1549 -0.5579 -0.7345
28653SOL    HW291280   7.579   5.061   3.028 -0.8115 -0.2084 -0.3897
28654SOL     OW91281   7.989   8.926   9.699  0.2155  0.8572  0.0491
28654SOL    HW191282   8.006   8.881   9.616 -0.1683  2.6782 -1.0630
28654SOL    HW291283   7.909   8.975   9.684  0.0860  1.1386  1.5432
28655SOL     OW91284   0.911   5.413   6.742  0.4618  0.0071 -0.7960
28655SOL    HW191285   0.924   5.477   6.672 -0.2544  0.5747 -0.4252
28655SOL    HW291286   0.825   5.435   6.779 -0.6587 -2.3410 -1.8662
28656SOL     OW91287   7.796   4.212   8.959  0.3037 -0.1422 -0.0075
28656SOL    HW191288   7.878   4.258   8.943  0.3383 -0.3940 -0.5859
28656SOL    HW291289   7.735   4.281   8.985  0.4184  0.2007 -0.6313
28657SOL     OW91290   3.750   5.340   4.030  0.2770 -0.5044 -0.3902
28657SOL    HW191291   3.765   5.393   3.952 -1.4568  1.7975  0.7331
28657SOL    HW291292   3.656   5.321   4.028  0.4374 -1.5034  0.5294
28658SOL     OW91293   0.128   7.352   8.469 -0.0425  0.3391  0.6259
28658SOL    HW191294   0.156   7.334   8.379  0.8313  0.3423  0.8826
28658SOL    HW291295   0.047   7.403   8.459  1.5402  2.9022 -0.2497
28659SOL     OW91296   8.350   9.392   7.345 -0.1110 -0.3793  0.0239
28659SOL    HW191297   8.350   9.338   7.425 -1.0692 -0.1005  0.2237
28659SOL    HW291298   8.258   9.411   7.329  0.2230  1.6781  0.2847
28660SOL     OW91299   4.576  10.140   8.402  0.4645 -0.1909  0.4553
28660SOL    HW191300   4.579  10.080   8.476  2.6444 -1.3305 -0.4676
28660SOL    HW291301   4.598  10.225   8.439  1.6946 -0.7775  1.1367
28661SOL     OW91302   7.070   4.868   6.924  0.5023  0.6247 -0.2755
28661SOL    HW191303   7.070   4.864   7.020 -0.0152 -1.7092 -0.3137
28661SOL    HW291304   7.078   4.961   6.904  1.8280  1.0765  2.0117
28662SOL     OW91305   5.079   7.728   5.201  0.3036 -0.2858  0.3316
28662SOL    HW191306   5.103   7.683   5.282 -0.7453  1.5755  1.7521
28662SOL    HW291307   5.143   7.799   5.193 -0.6423  0.6126  0.5257
28663SOL     OW91308  11.270   7.901   9.518 -0.2139 -0.1490  0.1255
28663SOL    HW191309  11.320   7.980   9.499 -1.8075  0.7795 -0.3707
28663SOL    HW291310  11.323   7.830   9.481  0.8774  0.7393 -0.0934
28664SOL     OW91311   4.499   4.686   8.565  0.0562  0.7308 -0.2302
28664SOL    HW191312   4.510   4.755   8.631  1.5320  0.9702 -0.6947
28664SOL    HW291313   4.446   4.726   8.496 -2.5596  0.1139  1.2710
28665SOL     OW91314   9.639   3.538   3.598  0.7868 -0.2806  0.3746
28665SOL    HW191315   9.589   3.545   3.517  0.8907 -0.3840  0.3006
28665SOL    HW291316   9.690   3.457   3.588  1.3943  0.1133  0.2022
28666SOL     OW91317   2.660   5.820   8.504 -0.0938 -0.7502 -0.2243
28666SOL    HW191318   2.701   5.757   8.444  0.1826 -1.8975  1.1208
28666SOL    HW291319   2.725   5.890   8.513  0.5335 -1.3600 -0.0025
28667SOL     OW91320  10.193   2.697   1.270 -0.2755  0.2811  0.1698
28667SOL    HW191321  10.168   2.621   1.218  0.3081 -0.6009  1.1324
28667SOL    HW291322  10.111   2.744   1.285 -0.3972  0.8469 -1.9123
28668SOL     OW91323   8.762   9.043   7.416  0.1598  0.0647 -0.0313
28668SOL    HW191324   8.737   9.117   7.472 -0.9831 -0.1788 -0.2071
28668SOL    HW291325   8.856   9.033   7.432 -0.1299  0.0076  1.8398
28669SOL     OW91326   2.637   9.892   5.718 -0.0514  0.0826 -0.0234
28669SOL    HW191327   2.596   9.944   5.648  0.4237 -0.2593 -0.5689
28669SOL    HW291328   2.731   9.895   5.697 -0.0769 -1.6688 -0.5373
28670SOL     OW91329   4.600   7.873   0.688 -0.1944 -0.2093 -0.1209
28670SOL    HW191330   4.692   7.893   0.708  0.2309 -1.9133 -0.1903
28670SOL    HW291331   4.596   7.778   0.691 -1.8457 -0.1777 -0.7076
28671SOL     OW91332   8.886   7.284   6.661 -0.1477  0.0443 -0.3341
28671SOL    HW191333   8.957   7.261   6.601  1.1495  0.9530  0.8060
28671SOL    HW291334   8.857   7.200   6.696  0.0220 -0.3778 -1.1756
28672SOL     OW91335   8.786   0.700   6.252 -0.0216  0.5035  0.0830
28672SOL    HW191336   8.760   0.789   6.276 -0.4619  0.1823  0.8708
28672SOL    HW291337   8.704   0.657   6.229  0.4606  0.9874 -2.8245
28673SOL     OW91338   4.622  11.397  10.449 -0.1260 -0.1597  0.5408
28673SOL    HW191339   4.597  11.305  10.440  1.0609 -0.5000  0.5340
28673SOL    HW291340   4.552  11.437  10.499  0.5533 -1.6500  2.8119
28674SOL     OW91341   2.873  11.291  10.706  0.4019  0.3114 -0.5031
28674SOL    HW191342   2.798  11.338  10.671 -0.6928  0.0347  1.3555
28674SOL    HW291343   2.948  11.329  10.661 -0.6986  1.7466 -1.2011
28675SOL     OW91344   5.747   1.609   6.326 -0.1992 -0.3871 -0.3059
28675SOL    HW191345   5.749   1.652   6.411 -0.7729  1.4892 -1.1807
28675SOL    HW291346   5.824   1.644   6.280 -0.5201 -0.4898 -0.9351
28676SOL     OW91347   2.767   1.314   8.036  0.2652  0.4641 -0.3380
28676SOL    HW191348   2.792   1.374   8.105 -0.9034 -0.7761  1.2520
28676SOL    HW291349   2.677   1.338   8.014  0.6377  0.8781 -1.5010
28677SOL     OW91350  11.013  10.795   1.344 -0.4815 -0.5895 -0.0132
28677SOL    HW191351  10.988  10.703   1.335 -0.1918 -0.7628  0.8882
28677SOL    HW291352  10.944  10.843   1.299 -0.9012 -1.2231 -0.0590
28678SOL     OW91353   1.841   6.575  11.092 -0.2220 -0.0904  0.1459
28678SOL    HW191354   1.831   6.668  11.112  1.5135  0.1596 -0.0381
28678SOL    HW291355   1.827   6.531  11.176 -2.3698  0.1995 -0.0142
28679SOL     OW91356  11.692   7.583   3.237 -0.2274 -0.2273  0.0803
28679SOL    HW191357  11.716   7.666   3.278  1.7554 -0.6605 -0.0764
28679SOL    HW291358  11.720   7.517   3.300 -0.8839 -0.8105 -0.2296
28680SOL     OW91359   1.534   1.570   2.562 -0.0459 -0.1424  0.0950
28680SOL    HW191360   1.455   1.591   2.513  0.2364  0.9966  0.0797
28680SOL    HW291361   1.511   1.495   2.616 -0.4819 -1.1658 -1.4767
28681SOL     OW91362   3.719   8.026   4.067 -0.0176 -0.0169 -0.3015
28681SOL    HW191363   3.630   8.037   4.035 -0.1197  0.2062  0.0615
28681SOL    HW291364   3.709   7.988   4.154  0.2476 -0.1073 -0.3072
28682SOL     OW91365   8.721   9.068   5.498 -0.0831 -0.2683 -0.7779
28682SOL    HW191366   8.632   9.092   5.473  0.3459  0.5354 -1.5793
28682SOL    HW291367   8.728   8.975   5.475 -0.7469 -0.3632 -0.6112
28683SOL     OW91368   4.488   6.331  11.118  0.2642 -0.2906  0.3491
28683SOL    HW191369   4.505   6.344  11.211  1.4721  2.3842 -0.1610
28683SOL    HW291370   4.401   6.368  11.103 -0.9584 -2.7639  0.7164
28684SOL     OW91371   7.439  10.082   5.258  0.1087 -0.0192  0.2438
28684SOL    HW191372   7.418   9.996   5.296 -1.2363  0.5893  0.9300
28684SOL    HW291373   7.354  10.124   5.246  0.8103  1.7133  1.0800
28685SOL     OW91374   0.199   8.406   2.073 -0.0816  0.1509 -0.1319
28685SOL    HW191375   0.268   8.403   2.139 -0.3631  0.8374  0.2049
28685SOL    HW291376   0.214   8.329   2.019 -0.7342 -1.2732  1.6158
28686SOL     OW91377   1.103   4.088   3.012 -0.1623  0.1024  0.5568
28686SOL    HW191378   1.115   4.045   2.927 -0.1150  0.9993  0.0939
28686SOL    HW291379   1.180   4.063   3.063  0.4527  0.5860 -0.1146
28687SOL     OW91380   4.011   0.340   4.862 -0.2454 -0.0954  0.0276
28687SOL    HW191381   4.080   0.403   4.880  0.2079 -0.5465 -0.0926
28687SOL    HW291382   4.056   0.267   4.820 -0.8314 -0.3039 -0.2524
28688SOL     OW91383   8.953   6.119   7.449 -0.7744  0.2229 -0.2140
28688SOL    HW191384   8.936   6.192   7.390  0.1608  0.7454  0.1452
28688SOL    HW291385   9.015   6.154   7.513  1.4280 -1.5019 -1.3027
28689SOL     OW91386   2.209   5.081   5.991  0.1665 -0.0401 -0.1693
28689SOL    HW191387   2.146   5.034   6.046  0.0660 -1.1849 -1.2164
28689SOL    HW291388   2.217   5.167   6.031  0.5599 -1.0143  1.9904
28690SOL     OW91389   8.929   2.337  11.616 -0.2856 -0.3013 -0.2958
28690SOL    HW191390   8.965   2.295  11.693 -0.3001 -1.2228 -0.7739
28690SOL    HW291391   8.883   2.266  11.569  0.3845  0.0588 -1.5405
28691SOL     OW91392   6.005   6.232   4.058 -0.2080 -0.1915  0.1811
28691SOL    HW191393   6.049   6.291   4.120 -0.9449 -1.7158  2.2507
28691SOL    HW291394   5.924   6.207   4.102 -0.5114 -1.7655 -1.1842
28692SOL     OW91395   9.345   0.399   4.252 -0.0475 -0.2244  0.1348
28692SOL    HW191396   9.395   0.419   4.173 -1.1848 -1.7942 -1.0414
28692SOL    HW291397   9.381   0.316   4.284 -2.4022 -1.9349 -1.3105
28693SOL     OW91398   9.738   7.029  11.707 -0.2883  1.2673 -0.1276
28693SOL    HW191399   9.698   6.990  11.785 -0.4762  1.3816 -0.1656
28693SOL    HW291400   9.677   7.007  11.636  1.6561 -2.0699 -0.9563
28694SOL     OW91401   7.298  10.830   1.474 -0.0461 -0.1254  0.2635
28694SOL    HW191402   7.311  10.747   1.428  0.8201 -0.0444  0.3482
28694SOL    HW291403   7.214  10.863   1.441 -0.4583 -1.0869  0.3158
28695SOL     OW91404   0.971   4.428   8.609 -0.4860  0.7454  0.3554
28695SOL    HW191405   1.055   4.474   8.614  0.5950 -1.0869 -0.1026
28695SOL    HW291406   0.964   4.400   8.518 -0.6248 -0.8301  0.8280
28696SOL     OW91407   8.224   7.992  11.226  0.0185  1.1099  0.3683
28696SOL    HW191408   8.313   7.983  11.192 -0.6687 -0.6825 -1.1323
28696SOL    HW291409   8.191   7.902  11.230 -2.0603  1.7983 -0.0739
28697SOL     OW91410   7.310   0.315  10.923  0.1776 -0.1423  0.1210
28697SOL    HW191411   7.250   0.273  10.862  0.2826  1.4660 -1.1603
28697SOL    HW291412   7.330   0.248  10.988 -1.7448 -1.2036 -0.3125
28698SOL     OW91413   7.666   7.863   1.615  0.0427  0.1898 -0.1433
28698SOL    HW191414   7.636   7.872   1.706  2.0559 -1.8258  0.8205
28698SOL    HW291415   7.727   7.789   1.617  2.2614  1.7865 -2.6292
28699SOL     OW91416   4.013   2.456   2.804 -0.7995 -0.3060 -0.2280
28699SOL    HW191417   4.088   2.502   2.767 -1.6135  1.3475  0.0837
28699SOL    HW291418   3.938   2.489   2.756 -1.4011 -1.6103 -0.2345
28700SOL     OW91419   5.937   5.674   2.721  0.1388 -0.0465  0.4064
28700SOL    HW191420   5.919   5.706   2.633 -0.5887 -0.8025  0.2643
28700SOL    HW291421   6.008   5.730   2.754 -1.7105  2.3958  0.5446
28701SOL     OW91422  10.929   0.053  11.381  0.1800 -0.3328 -0.2537
28701SOL    HW191423  10.880  -0.029  11.373  0.3297 -0.3928 -0.5471
28701SOL    HW291424  10.906   0.085  11.469 -1.0330  0.0476 -0.6784
28702SOL     OW91425   1.826   2.275   4.938 -0.3578  0.3981 -0.0725
28702SOL    HW191426   1.874   2.358   4.946 -0.5929  1.1001 -3.9441
28702SOL    HW291427   1.736   2.297   4.962 -0.0927  0.8291  0.5557
28703SOL     OW91428   1.890   8.829   6.074 -0.0004  0.0984 -0.2909
28703SOL    HW191429   1.958   8.894   6.055 -1.1996  1.4569 -0.1283
28703SOL    HW291430   1.902   8.810   6.167 -0.1313  0.6939 -0.1471
28704SOL     OW91431   7.438   1.903   8.926  0.4084  0.5641  0.2764
28704SOL    HW191432   7.505   1.835   8.921  1.5940  1.7047  0.0296
28704SOL    HW291433   7.364   1.868   8.876  0.6191 -0.9183  0.9521
28705SOL     OW91434   4.110  11.775   0.684  0.2107  0.3166 -0.4765
28705SOL    HW191435   4.107  11.870   0.695 -1.1601  0.4701 -1.8333
28705SOL    HW291436   4.019  11.747   0.696  0.3703 -0.6494 -1.3936
28706SOL     OW91437  10.439   1.712   5.787  0.0631 -0.5230  1.0392
28706SOL    HW191438  10.474   1.754   5.866  0.9919  1.6217 -0.4239
28706SOL    HW291439  10.517   1.684   5.738 -0.4502 -0.6519  0.2822
28707SOL     OW91440  10.326  10.775   6.337  0.2611  0.1811  0.5532
28707SOL    HW191441  10.268  10.715   6.384  1.4982 -1.3734  0.1996
28707SOL    HW291442  10.353  10.839   6.404 -1.3499  0.5804  0.8555
28708SOL     OW91443   7.574  10.602   8.686  0.0590  0.2045  0.0638
28708SOL    HW191444   7.625  10.594   8.766  0.5839 -0.0675 -0.2934
28708SOL    HW291445   7.539  10.514   8.670  0.1772  0.1943 -0.1491
28709SOL     OW91446   1.817   8.311   7.049 -0.0955 -0.2236  0.1416
28709SOL    HW191447   1.769   8.231   7.028  0.5317  0.0078 -2.5576
28709SOL    HW291448   1.814   8.362   6.968  0.3209  2.0950  1.4980
28710SOL     OW91449   7.841   1.279   4.037  0.5603 -0.2259  0.3318
28710SOL    HW191450   7.891   1.285   3.956  1.2691  1.7615  0.8448
28710SOL    HW291451   7.899   1.315   4.104 -0.8595  0.4229  1.2789
28711SOL     OW91452   8.463   5.600  11.798  0.3223  0.2300 -0.5874
28711SOL    HW191453   8.420   5.515  11.809  2.0365 -0.8592 -1.7290
28711SOL    HW291454   8.395   5.657  11.763 -0.3837 -1.2451 -1.7402
28712SOL     OW91455   1.519   3.009   3.112 -0.0200 -0.1124  0.3318
28712SOL    HW191456   1.431   2.972   3.105  0.2681 -0.5887 -1.2660
28712SOL    HW291457   1.511   3.096   3.073  0.0960  0.0852  0.7440
28713SOL     OW91458   6.746   2.271  10.871  0.8018 -0.0009 -0.3774
28713SOL    HW191459   6.805   2.342  10.895  0.8774  0.9947 -3.2270
28713SOL    HW291460   6.664   2.314  10.848  1.0087 -0.7271 -2.6717
28714SOL     OW91461   9.136   8.755   6.145  0.5423  0.0279 -0.0982
28714SOL    HW191462   9.078   8.831   6.144 -0.7240 -0.8007  2.0549
28714SOL    HW291463   9.127   8.716   6.058 -0.2211  1.2843 -0.6115
28715SOL     OW91464   1.597   5.000   2.382  0.1204  0.1142 -0.2933
28715SOL    HW191465   1.545   4.955   2.317 -2.4406  0.7481  1.1888
28715SOL    HW291466   1.569   4.963   2.466  2.9107 -0.3100  0.5727
28716SOL     OW91467  11.370   7.600   3.355 -0.4958  0.3215  0.5653
28716SOL    HW191468  11.439   7.581   3.292  0.1881  1.7718  0.8185
28716SOL    HW291469  11.298   7.542   3.332  0.0369  0.2724 -1.0445
28717SOL     OW91470   4.184   8.944  10.763 -0.1372  0.2460  0.1154
28717SOL    HW191471   4.237   9.000  10.820  1.2180  0.9010 -1.6788
28717SOL    HW291472   4.232   8.860  10.762 -1.2812 -0.4759  1.5026
28718SOL     OW91473   9.683  10.181   7.115  0.9440 -0.0635 -0.1848
28718SOL    HW191474   9.722  10.098   7.087 -0.3553 -0.3991 -1.1329
28718SOL    HW291475   9.672  10.172   7.209  1.4738 -0.6767 -0.1761
28719SOL     OW91476   8.738   4.252   8.900  0.1293 -0.0995 -0.3680
28719SOL    HW191477   8.742   4.196   8.977  0.2239  0.5703  0.1253
28719SOL    HW291478   8.817   4.305   8.904 -0.3688  0.6663 -0.3512
28720SOL     OW91479   5.312  11.157   4.940 -0.2588  0.7125  0.1644
28720SOL    HW191480   5.262  11.150   4.859 -2.0403 -0.8135  1.3266
28720SOL    HW291481   5.287  11.242   4.977 -0.0781  1.0387 -0.4465
28721SOL     OW91482  10.726   1.603   7.497 -0.6382 -0.0713  0.3964
28721SOL    HW191483  10.734   1.619   7.591  0.8126 -1.4468  0.5573
28721SOL    HW291484  10.683   1.681   7.462 -1.0039  0.5555  2.1610
28722SOL     OW91485   7.700   5.701   9.134  0.0562 -0.3334 -0.7519
28722SOL    HW191486   7.741   5.777   9.176  1.1133 -1.3231  0.0983
28722SOL    HW291487   7.747   5.626   9.171 -1.3283 -1.4300 -1.1507
28723SOL     OW91488   6.692   0.589  11.821  0.5619 -0.2587  0.2888
28723SOL    HW191489   6.598   0.590  11.835  0.2975  0.9345 -1.2071
28723SOL    HW291490   6.711   0.675  11.783  2.1887 -0.6318  0.1773
28724SOL     OW91491  11.055   0.308  11.630 -0.4598 -0.0537  0.1944
28724SOL    HW191492  10.970   0.348  11.614  0.9343  2.4364 -1.7279
28724SOL    HW291493  11.039   0.242  11.697 -3.4351  1.9760  1.6833
28725SOL     OW91494   6.766   6.813   1.036 -0.1968  0.4091  0.1695
28725SOL    HW191495   6.779   6.786   1.127 -1.3417  2.1663  0.8829
28725SOL    HW291496   6.677   6.846   1.033 -0.1535  0.4322 -1.5998
28726SOL     OW91497  10.888   1.938   3.033 -0.1585 -0.2594  0.7303
28726SOL    HW191498  10.843   1.897   2.959 -1.4386  2.5791 -0.1903
28726SOL    HW291499  10.877   2.032   3.020  1.6142  0.4385  3.3128
28727SOL     OW91500  11.377   1.370   9.927 -0.0654 -0.0764  0.1382
28727SOL    HW191501  11.391   1.367  10.021 -1.8422 -0.8649  0.4335
28727SOL    HW291502  11.286   1.399   9.918  0.3981  1.0213 -1.3873
28728SOL     OW91503   2.898   8.285   1.260  0.0539  0.2900  0.1914
28728SOL    HW191504   2.840   8.314   1.330 -0.5973 -1.2832  0.3531
28728SOL    HW291505   2.848   8.302   1.180 -0.8844 -1.4843  0.3535
28729SOL     OW91506   3.029   6.807   6.106 -0.5216  0.2975 -0.5259
28729SOL    HW191507   3.026   6.715   6.080  0.4064  0.6051 -1.8511
28729SOL    HW291508   3.038   6.805   6.201  0.4197 -1.0270 -0.6098
28730SOL     OW91509   9.948   7.171  11.648  0.4633  0.0931 -0.7180
28730SOL    HW191510   9.994   7.126  11.578  0.3741 -0.2977 -0.5312
28730SOL    HW291511   9.874   7.114  11.668  0.2774  0.3864 -0.5613
28731SOL     OW91512   6.924   6.071   7.192  0.0773  0.2264  0.3776
28731SOL    HW191513   7.013   6.095   7.217 -0.2214  0.9344  0.7653
28731SOL    HW291514   6.868   6.115   7.255 -0.6107  0.7355 -0.5564
28732SOL     OW91515   9.636   4.560   4.447 -0.6047 -0.4157 -0.1065
28732SOL    HW191516   9.625   4.653   4.428  2.0100 -0.0327 -0.1502
28732SOL    HW291517   9.601   4.515   4.370 -2.2593  0.4732  0.0879
28733SOL     OW91518   5.359   9.179   7.241 -0.4806 -0.3268 -0.3875
28733SOL    HW191519   5.274   9.177   7.197 -0.2816 -1.0599 -0.7580
28733SOL    HW291520   5.422   9.160   7.171 -0.0826 -0.6243  0.0437
28734SOL     OW91521   5.279   9.937  10.957 -0.1708  0.2909 -0.0760
28734SOL    HW191522   5.264   9.950  10.863  2.7164 -0.2709 -0.7038
28734SOL    HW291523   5.334  10.010  10.984  0.6291 -0.5670  0.7050
28735SOL     OW91524   5.402   6.621   4.174  0.2264  0.2257 -0.1468
28735SOL    HW191525   5.440   6.554   4.231  0.6321  1.1149  0.6430
28735SOL    HW291526   5.426   6.704   4.214 -2.2878  0.8616  0.2221
28736SOL     OW91527   9.740  11.584   5.308  0.3119 -0.1349  0.0230
28736SOL    HW191528   9.826  11.572   5.269  1.7544  1.0193  2.5685
28736SOL    HW291529   9.718  11.675   5.290 -0.7045 -0.5927 -1.1527
28737SOL     OW91530   9.713   3.155   2.691 -0.3149  0.1578  0.1876
28737SOL    HW191531   9.737   3.138   2.600 -1.0835 -1.9056  0.3114
28737SOL    HW291532   9.626   3.195   2.686 -0.8208 -0.9144  0.0045
28738SOL     OW91533  10.923   5.139  10.082  0.1669  0.2468 -0.4061
28738SOL    HW191534  10.996   5.079  10.097  0.4350  0.6549 -0.0461
28738SOL    HW291535  10.932   5.166   9.990 -0.9030 -1.5041 -1.0734
28739SOL     OW91536   8.635   8.296  11.022  0.0184 -0.3052 -0.4699
28739SOL    HW191537   8.652   8.234  11.093 -0.8939  0.9107  0.8576
28739SOL    HW291538   8.541   8.286  11.003  0.2754 -0.7234 -1.6371
28740SOL     OW91539   9.034   7.296   0.393  0.1574 -0.1569  0.3365
28740SOL    HW191540   9.064   7.224   0.338 -0.3007  0.5865 -0.9201
28740SOL    HW291541   8.986   7.253   0.464 -0.0286 -1.0930 -0.3432
28741SOL     OW91542   7.810  10.307   0.786  0.1274  0.3983 -0.4232
28741SOL    HW191543   7.830  10.215   0.767 -2.1749 -0.3154  0.3083
28741SOL    HW291544   7.725  10.322   0.744 -0.1983  1.7672  0.6538
28742SOL     OW91545   9.095   4.852   3.022 -0.4391  0.3391 -0.1060
28742SOL    HW191546   9.078   4.828   3.113  0.4325  0.4464  0.0952
28742SOL    HW291547   9.053   4.937   3.011 -1.0316  0.0684  0.0253
28743SOL     OW91548   8.350   3.300   8.228 -0.2928 -0.3809  0.6757
28743SOL    HW191549   8.405   3.221   8.222  0.4839  0.2263 -0.6265
28743SOL    HW291550   8.395   3.364   8.173 -1.4412  0.6687  0.9293
28744SOL     OW91551   9.443  11.144   0.096 -0.3505  0.1111 -0.6539
28744SOL    HW191552   9.457  11.104   0.010 -1.1334  1.1926 -1.3115
28744SOL    HW291553   9.359  11.109   0.124 -1.5700  1.9869 -1.7090
28745SOL     OW91554   4.667   7.945   0.172 -0.1495  0.1030  0.0091
28745SOL    HW191555   4.581   7.913   0.197 -0.6762  2.2717  1.2268
28745SOL    HW291556   4.657   7.973   0.080 -0.4114 -0.6908 -0.2070
28746SOL     OW91557   1.486   1.826  11.078  0.5678 -0.0329 -0.3722
28746SOL    HW191558   1.541   1.861  11.147  0.8881 -1.0304 -0.1063
28746SOL    HW291559   1.491   1.731  11.089 -1.1806 -0.1598 -0.3494
28747SOL     OW91560   0.381   8.778   8.040  0.6324  0.3157 -0.2936
28747SOL    HW191561   0.441   8.710   8.009  0.9445  0.6302 -0.3906
28747SOL    HW291562   0.430   8.822   8.110  0.9209  1.2363 -1.0583
28748SOL     OW91563   1.840   4.841   8.483 -0.1066 -0.5407 -0.1612
28748SOL    HW191564   1.906   4.885   8.429  1.0070 -0.9993  0.7674
28748SOL    HW291565   1.785   4.794   8.420  0.3622 -0.0292 -0.9710
28749SOL     OW91566   7.433   5.967   6.894 -0.9964  0.0382  0.4359
28749SOL    HW191567   7.470   5.879   6.905  1.6522  0.9589 -0.3479
28749SOL    HW291568   7.392   5.964   6.807 -1.1593 -0.4946  0.5259
28750SOL     OW91569   1.644   9.328   6.899 -0.1541  0.2255  0.1159
28750SOL    HW191570   1.706   9.383   6.852 -0.3789 -0.3139 -0.8363
28750SOL    HW291571   1.577   9.389   6.930 -0.8997  0.4076 -1.7369
28751SOL     OW91572   4.938   4.397  10.408  0.3228  0.6066 -0.5711
28751SOL    HW191573   4.859   4.418  10.357  0.5476 -2.1585 -2.2722
28751SOL    HW291574   4.987   4.479  10.410 -1.5841  1.8442 -1.3580
28752SOL     OW91575  11.138   7.698   2.863 -0.1831 -0.1386  0.7205
28752SOL    HW191576  11.177   7.644   2.932  3.8449  1.3581 -0.1495
28752SOL    HW291577  11.177   7.666   2.782 -0.7198  1.5442 -0.2556
28753SOL     OW91578   2.362   6.927   5.310  0.1870 -0.3661  0.3052
28753SOL    HW191579   2.428   6.989   5.279  0.0754 -0.4418 -0.0869
28753SOL    HW291580   2.333   6.881   5.232  1.1430 -1.7843  0.7452
28754SOL     OW91581   7.539   7.859   6.855 -0.2184  0.2021  0.9968
28754SOL    HW191582   7.572   7.910   6.781 -1.2636  0.7127  0.8546
28754SOL    HW291583   7.592   7.886   6.929  1.5127 -1.0406  0.2721
28755SOL     OW91584   2.203   4.622   3.528 -0.4827  0.2126  0.3020
28755SOL    HW191585   2.155   4.702   3.551  0.6896  0.5225  1.8655
28755SOL    HW291586   2.146   4.550   3.555 -1.4436  0.4876 -0.8963
28756SOL     OW91587   1.678   1.022   8.765  0.0893  0.4631 -0.7708
28756SOL    HW191588   1.772   1.038   8.758 -0.0203  1.9558  0.6149
28756SOL    HW291589   1.668   0.982   8.852 -0.7330  2.1546 -0.0492
28757SOL     OW91590   6.631   9.509   6.297 -0.2654  0.0238  0.3835
28757SOL    HW191591   6.677   9.580   6.342 -1.8699 -0.6880  3.4744
28757SOL    HW291592   6.682   9.431   6.320 -0.8603 -0.3017  0.6092
28758SOL     OW91593  10.273   6.074  10.859 -0.7269  0.6925 -0.0061
28758SOL    HW191594  10.196   6.024  10.888  0.0769 -0.7171 -0.2170
28758SOL    HW291595  10.348   6.025  10.894  0.1223  1.4192 -0.7537
28759SOL     OW91596   6.994   1.607   5.546  0.3826 -0.0598 -0.1658
28759SOL    HW191597   7.059   1.615   5.476  0.4926 -1.7709 -0.3166
28759SOL    HW291598   7.045   1.591   5.625  0.3400  3.1827  0.6703
28760SOL     OW91599   0.042   8.407   6.161  0.0439  0.1145  0.0417
28760SOL    HW191600   0.084   8.399   6.247  1.3371 -4.9893 -0.7699
28760SOL    HW291601  -0.050   8.391   6.178 -0.0083  0.9419  0.6169
28761SOL     OW91602   9.385   2.820   5.796 -0.2246 -0.0659 -0.1572
28761SOL    HW191603   9.397   2.740   5.745 -1.0608 -0.3995  0.1670
28761SOL    HW291604   9.454   2.878   5.764 -0.1839 -0.5818 -1.0500
28762SOL     OW91605   7.339   5.557   6.149  0.4511  0.1592  0.0868
28762SOL    HW191606   7.382   5.593   6.071  0.0834 -0.1451 -0.2565
28762SOL    HW291607   7.274   5.623   6.173  0.9423  0.5191  0.4792
28763SOL     OW91608   0.025   3.033   4.044  0.3417 -0.4797 -0.6783
28763SOL    HW191609  -0.036   2.967   4.076  0.3438 -0.9190 -1.5536
28763SOL    HW291610  -0.030   3.095   3.997  0.2524  0.5182  0.6822
28764SOL     OW91611   2.533   1.158   7.169 -0.8219 -0.1253  0.1525
28764SOL    HW191612   2.627   1.174   7.171 -1.0622  1.4038  2.3839
28764SOL    HW291613   2.524   1.068   7.203 -0.1744 -0.3888 -0.3453
28765SOL     OW91614   9.897   3.691   5.017 -0.2453  0.0349  0.5420
28765SOL    HW191615   9.901   3.766   4.958 -2.2488 -0.1489  0.1029
28765SOL    HW291616   9.905   3.615   4.959 -1.6755 -0.1340  0.5407
28766SOL     OW91617   2.615   8.361   6.514 -0.1899  0.3536 -0.2141
28766SOL    HW191618   2.646   8.317   6.594  1.1905  1.4155 -0.1225
28766SOL    HW291619   2.571   8.440   6.546 -0.3139  0.3913 -0.4764
28767SOL     OW91620   9.421   5.724   7.717 -0.3625 -0.2628  0.7432
28767SOL    HW191621   9.511   5.692   7.710 -0.2553  0.2030 -0.1282
28767SOL    HW291622   9.368   5.645   7.722 -0.0198 -0.5720 -0.2836
28768SOL     OW91623   6.842  11.481   6.267 -0.1011  0.1359 -0.4599
28768SOL    HW191624   6.925  11.468   6.313 -0.7047 -0.4770  0.4969
28768SOL    HW291625   6.867  11.498   6.176  1.0282 -1.5402 -0.5164
28769SOL     OW91626   2.927   3.075   0.418  0.3476 -0.0018 -0.4955
28769SOL    HW191627   2.840   3.035   0.421  1.1200 -1.7264  1.2554
28769SOL    HW291628   2.987   3.005   0.443  2.2490  1.1905 -1.4478
28770SOL     OW91629   6.280   5.859   4.457 -0.2025  0.2642 -0.1074
28770SOL    HW191630   6.225   5.781   4.453 -0.7285  0.6511 -0.9415
28770SOL    HW291631   6.362   5.830   4.495  0.0467 -0.9565 -1.4761
28771SOL     OW91632   8.250   8.290   2.293  0.4126 -0.4052  0.3431
28771SOL    HW191633   8.221   8.235   2.366 -0.9327  0.3989  0.4313
28771SOL    HW291634   8.170   8.321   2.252  1.1380  0.9601 -0.1126
28772SOL     OW91635   0.484   8.053   2.853 -0.0448  0.6622  0.3232
28772SOL    HW191636   0.504   7.960   2.865 -1.0687  0.4991  0.8947
28772SOL    HW291637   0.445   8.058   2.765 -0.5874  0.4407  0.5486
28773SOL     OW91638   3.381   5.401   9.653 -0.0903  0.3301 -0.3431
28773SOL    HW191639   3.292   5.406   9.688  0.0336  0.3015 -0.0222
28773SOL    HW291640   3.433   5.455   9.712  0.1300  0.2396 -0.4526
28774SOL     OW91641   3.941   3.630   0.767  0.1413  0.1876  0.0872
28774SOL    HW191642   3.951   3.690   0.694  0.1769 -1.5534 -1.4007
28774SOL    HW291643   4.013   3.652   0.827  1.1804  0.4971 -1.2370
28775SOL     OW91644   6.613   7.649   8.473  0.1587  0.2538 -0.0312
28775SOL    HW191645   6.709   7.641   8.474  0.1773 -0.1263 -1.7955
28775SOL    HW291646   6.581   7.560   8.484 -0.0173  0.4749  1.3053
28776SOL     OW91647   2.174   2.784   4.957 -0.1191  0.2249  0.1796
28776SOL    HW191648   2.224   2.756   5.034  0.6193 -0.6603 -0.6097
28776SOL    HW291649   2.124   2.859   4.988 -1.2562 -1.2145  2.0503
28777SOL     OW91650   5.065  11.751   8.924  0.1400 -0.2812 -0.0024
28777SOL    HW191651   4.973  11.773   8.939  0.0461 -0.9344  0.4357
28777SOL    HW291652   5.096  11.818   8.863 -0.0361  1.2090  1.4925
28778SOL     OW91653   3.343   9.675   2.467  0.4386  0.1307 -0.2437
28778SOL    HW191654   3.420   9.726   2.491  0.3997  0.5437 -0.9834
28778SOL    HW291655   3.361   9.587   2.500  0.7927  0.4563  0.4517
28779SOL     OW91656   2.841  10.102   8.429  0.2433 -0.0672  0.1061
28779SOL    HW191657   2.914  10.062   8.382 -0.8976 -0.6998 -1.2051
28779SOL    HW291658   2.805  10.030   8.482 -0.9678 -0.4581 -1.2038
28780SOL     OW91659   7.425   7.920   1.054  0.0264 -0.0677  0.6213
28780SOL    HW191660   7.434   7.835   1.095 -0.8669 -0.7409 -0.5185
28780SOL    HW291661   7.427   7.902   0.960  0.3944  1.2340  0.3600
28781SOL     OW91662   8.939  11.294   9.783 -0.4142 -0.3650  0.0612
28781SOL    HW191663   8.871  11.339   9.735 -0.0681 -0.7562 -0.8141
28781SOL    HW291664   8.937  11.204   9.750  0.9112 -0.2367 -0.4160
28782SOL     OW91665   2.565   3.898   9.951  0.6140 -0.0258 -0.0602
28782SOL    HW191666   2.535   3.972   9.898  0.1387 -0.2131 -0.0614
28782SOL    HW291667   2.485   3.864   9.990  0.8167 -0.6200 -0.1634
28783SOL     OW91668  11.643   5.936   4.361 -0.5841 -0.8006  0.0081
28783SOL    HW191669  11.664   5.929   4.454  0.9269 -0.3152 -0.2689
28783SOL    HW291670  11.599   6.021   4.353  0.3555 -0.2852  0.1238
28784SOL     OW91671   7.846   0.988   4.452 -0.2216 -0.0082  0.0540
28784SOL    HW191672   7.822   1.055   4.388  1.4191 -1.0078 -1.6832
28784SOL    HW291673   7.940   0.975   4.440 -0.5432 -2.9440 -0.0132
28785SOL     OW91674   6.506  10.414   6.178 -0.4464 -0.2006 -0.1137
28785SOL    HW191675   6.452  10.491   6.195  0.6137  0.4848  0.2778
28785SOL    HW291676   6.543  10.430   6.091  0.2113  0.0057  0.2011
28786SOL     OW91677   0.140   3.194   3.240  0.2772  0.4538 -0.2548
28786SOL    HW191678   0.224   3.226   3.272 -0.3035  0.6104  1.2251
28786SOL    HW291679   0.162   3.128   3.175  1.5168  2.0457 -1.5206
28787SOL     OW91680   4.351   3.937   3.934 -0.0812 -0.3454 -0.3181
28787SOL    HW191681   4.407   3.973   3.865 -1.1007  1.3063 -0.3489
28787SOL    HW291682   4.262   3.953   3.903 -0.5754 -1.5448  0.4182
28788SOL     OW91683   1.294   0.850   8.788  0.3421 -0.1858 -0.1892
28788SOL    HW191684   1.389   0.836   8.798  0.2644 -0.2054  0.5724
28788SOL    HW291685   1.259   0.839   8.876 -0.2147  1.0541 -0.2340
28789SOL     OW91686  11.310  10.583   9.428 -0.7098  0.5848 -0.1285
28789SOL    HW191687  11.364  10.632   9.490 -1.4375  0.6425  0.4878
28789SOL    HW291688  11.285  10.504   9.476 -0.2804  0.0307 -0.7941
28790SOL     OW91689   9.061   2.774   5.373  0.2403  0.4013 -0.4885
28790SOL    HW191690   9.079   2.853   5.321  1.9054  0.2112 -0.2568
28790SOL    HW291691   9.148   2.741   5.397 -0.4463 -1.0691  0.0848
28791SOL     OW91692   0.226  10.942   3.464  0.0219 -0.3163 -0.7411
28791SOL    HW191693   0.249  10.853   3.437 -2.2198 -1.5018  0.9392
28791SOL    HW291694   0.275  10.954   3.546 -1.7499 -1.1842  0.5313
28792SOL     OW91695   2.412   2.232   5.114 -0.5729  0.5708  0.0281
28792SOL    HW191696   2.491   2.251   5.164  0.1529 -0.5698 -0.6250
28792SOL    HW291697   2.384   2.316   5.078  0.6182  0.9179 -0.1022
28793SOL     OW91698   7.451  11.340   4.805 -0.2771  0.4774  0.0809
28793SOL    HW191699   7.472  11.299   4.721 -2.3917  0.5034 -0.5195
28793SOL    HW291700   7.520  11.405   4.818  0.0749  0.4859 -1.6416
28794SOL     OW91701  11.192   3.056   6.743  0.1928  0.3553  0.1466
28794SOL    HW191702  11.251   3.095   6.807 -1.5221  1.8028  0.9236
28794SOL    HW291703  11.172   2.969   6.778  2.4496 -0.5305 -0.5673
28795SOL     OW91704   6.614   1.150   9.372  0.3580  0.3318 -1.0257
28795SOL    HW191705   6.680   1.081   9.374  0.4149  0.3923 -0.7127
28795SOL    HW291706   6.664   1.231   9.364  0.4350  0.5012  0.6718
28796SOL     OW91707   9.961   9.295   2.424  0.4445  0.0757 -0.2059
28796SOL    HW191708   9.942   9.203   2.404 -1.5974  0.4786 -0.3138
28796SOL    HW291709  10.005   9.292   2.509 -0.4608 -0.9568  0.2560
28797SOL     OW91710   8.683   3.593   1.160  0.1885  0.7070 -0.2286
28797SOL    HW191711   8.647   3.556   1.080 -2.4349 -0.6732  1.4286
28797SOL    HW291712   8.767   3.547   1.173 -1.3413 -2.2754 -0.0641
28798SOL     OW91713  11.144   0.456   2.108 -0.1020  0.5434  0.1179
28798SOL    HW191714  11.131   0.520   2.177  1.0262  1.9036 -0.8688
28798SOL    HW291715  11.062   0.405   2.106 -0.6100  1.2574  1.6152
28799SOL     OW91716   6.428   6.056   4.968 -0.4599 -0.1215  0.3833
28799SOL    HW191717   6.349   6.045   4.916 -2.9456  2.0854  3.3021
28799SOL    HW291718   6.463   5.967   4.977 -2.4992 -1.1728 -1.1645
28800SOL     OW91719   4.149  11.537  11.823  0.3766 -0.1362 -0.1542
28800SOL    HW191720   4.184  11.626  11.833 -1.6218  0.6482  0.2501
28800SOL    HW291721   4.226  11.484  11.802  1.6477  1.6492 -0.2627
28801SOL     OW91722   1.048   1.587   5.139 -0.0255 -0.0193  0.7808
28801SOL    HW191723   1.137   1.562   5.164 -0.5110 -2.8300 -0.0178
28801SOL    HW291724   1.042   1.561   5.047 -1.5654  0.5349  0.7061
28802SOL     OW91725   2.522   1.890   4.099  0.5347  0.9043 -0.3573
28802SOL    HW191726   2.591   1.953   4.118 -0.1672  1.5057  0.2084
28802SOL    HW291727   2.462   1.936   4.041  0.6721  0.3322 -0.9737
28803SOL     OW91728   4.151   9.558   0.753  0.3453 -0.1559  0.0255
28803SOL    HW191729   4.218   9.499   0.786  1.0779  1.4838  1.6382
28803SOL    HW291730   4.106   9.590   0.831  0.2024  1.6783 -0.7552
28804SOL     OW91731   6.398  10.701   4.298 -0.6369 -0.1873  0.6573
28804SOL    HW191732   6.417  10.627   4.355  0.6894  1.7287  2.8588
28804SOL    HW291733   6.307  10.724   4.317 -0.7924 -0.7395  0.5800
28805SOL     OW91734   6.863   9.812   2.750  0.4224 -0.3682  0.3829
28805SOL    HW191735   6.886   9.888   2.802  1.1447 -1.1432  1.2428
28805SOL    HW291736   6.816   9.754   2.810  1.5044 -1.3980  0.2916
28806SOL     OW91737   4.696   2.278   6.126  0.3939  0.0728  0.2236
28806SOL    HW191738   4.682   2.258   6.218 -1.9905 -1.1263 -0.2986
28806SOL    HW291739   4.690   2.373   6.121 -5.0087  0.1065  0.7883
28807SOL     OW91740   2.409   1.475   0.010  0.5032  0.7651  0.0520
28807SOL    HW191741   2.381   1.486   0.101  3.5523  1.8276  0.9956
28807SOL    HW291742   2.471   1.401   0.013  0.7124  0.8813 -1.1220
28808SOL     OW91743  10.358   7.598   0.875 -0.0512  0.2718 -0.2485
28808SOL    HW191744  10.289   7.549   0.830 -0.4569 -1.4984  2.1141
28808SOL    HW291745  10.324   7.687   0.880 -1.8228 -0.3756  0.0988
28809SOL     OW91746   2.498  11.182  10.286  0.1965 -0.4672  0.5315
28809SOL    HW191747   2.566  11.117  10.299  1.7445  1.0905  0.5618
28809SOL    HW291748   2.529  11.259  10.334 -0.8099  0.8006 -0.7680
28810SOL     OW91749   9.700   1.497   7.840  0.8254 -0.3746 -0.2646
28810SOL    HW191750   9.703   1.574   7.784  0.5774  0.6563  1.0924
28810SOL    HW291751   9.610   1.495   7.872  1.3637  0.0112  1.3591
28811SOL     OW91752   1.171  11.760  11.109 -0.1485 -0.0159 -0.2531
28811SOL    HW191753   1.216  11.833  11.151 -1.0098  0.3879 -0.0112
28811SOL    HW291754   1.119  11.721  11.179 -2.7751  1.5665 -1.1528
28812SOL     OW91755   4.764   1.582   3.297  1.0313 -0.0106  0.4436
28812SOL    HW191756   4.808   1.640   3.358  0.7229  1.5108 -0.7127
28812SOL    HW291757   4.700   1.638   3.252  2.3173 -0.6293 -2.3781
28813SOL     OW91758   9.404   7.411   5.728  0.3352 -0.2444 -0.1287
28813SOL    HW191759   9.315   7.416   5.694  0.4689  0.2492 -0.4009
28813SOL    HW291760   9.394   7.369   5.814 -0.0167 -1.3482 -0.6839
28814SOL     OW91761   3.718   5.331   5.579 -0.6545  0.3133 -0.1351
28814SOL    HW191762   3.692   5.356   5.490 -0.0055 -0.1237 -0.4502
28814SOL    HW291763   3.802   5.373   5.593 -0.3291 -0.3512 -0.0631
28815SOL     OW91764   1.061   9.916   3.445 -0.3804  0.3062  0.2239
28815SOL    HW191765   1.074   9.821   3.438 -0.6456  0.3696 -2.4162
28815SOL    HW291766   1.146   9.953   3.418 -0.5950  0.8212  0.2454
28816SOL     OW91767   6.609   1.550   3.052  0.4841 -0.3303 -0.0634
28816SOL    HW191768   6.524   1.593   3.041 -0.1563 -1.9213 -1.8894
28816SOL    HW291769   6.670   1.607   3.005 -0.4312 -1.4756 -2.8591
28817SOL     OW91770   3.980  10.448   0.052 -0.2658 -1.0923 -0.0565
28817SOL    HW191771   3.964  10.438  -0.042  1.2139 -2.3363 -0.2184
28817SOL    HW291772   4.075  10.447   0.061 -0.2830  1.2949  1.2716
28818SOL     OW91773   8.932   8.192   4.035  0.2767 -0.0720  0.1160
28818SOL    HW191774   8.857   8.137   4.010  1.1615 -0.8292 -0.9671
28818SOL    HW291775   8.894   8.261   4.090 -1.0493 -1.0662  0.4980
28819SOL     OW91776   0.600   7.258   0.721 -0.0737  0.0749 -0.7568
28819SOL    HW191777   0.650   7.185   0.684  1.5629 -0.3887  2.0753
28819SOL    HW291778   0.661   7.331   0.723 -1.2482  1.1797 -2.1590
28820SOL     OW91779   2.543   3.308  10.572  0.3817  0.2185  0.3006
28820SOL    HW191780   2.472   3.246  10.586 -0.5402  1.4539  1.3144
28820SOL    HW291781   2.510   3.367  10.504  1.2340 -0.3332 -0.6303
28821SOL     OW91782   3.829   6.836   0.460  0.5214 -0.0724  0.2577
28821SOL    HW191783   3.879   6.864   0.537 -0.7882 -0.7721  1.4036
28821SOL    HW291784   3.798   6.917   0.421  2.6997  0.4087 -0.6512
28822SOL     OW91785   4.150   7.243   9.509 -0.2482  0.1282  0.5969
28822SOL    HW191786   4.085   7.174   9.498 -0.5196  0.5718 -0.8929
28822SOL    HW291787   4.234   7.198   9.507 -0.4737 -0.3510  1.5789
28823SOL     OW91788   5.025   9.707   8.758 -0.0027 -0.2957 -0.2257
28823SOL    HW191789   5.080   9.702   8.836  0.8154  2.1215 -0.5433
28823SOL    HW291790   4.956   9.769   8.782 -2.1278 -2.5694 -0.1602
28824SOL     OW91791   5.900   2.413   7.830 -0.3701  0.1591 -0.4210
28824SOL    HW191792   5.857   2.485   7.877  1.9449 -0.4946  3.0555
28824SOL    HW291793   5.959   2.457   7.768 -3.3626  1.0451 -2.9353
28825SOL     OW91794  10.691   8.225   2.167 -0.4262  1.3315 -0.0615
28825SOL    HW191795  10.604   8.244   2.133 -0.5632 -0.9973 -1.1882
28825SOL    HW291796  10.738   8.186   2.094  1.0486  1.0428  0.9819
28826SOL     OW91797  10.518   8.314  10.747  0.4435  0.2980 -0.5943
28826SOL    HW191798  10.558   8.397  10.774 -0.2991  0.6225 -0.4792
28826SOL    HW291799  10.593   8.257  10.727  0.9653  1.4530 -2.0905
28827SOL     OW91800   9.988   4.262   4.409 -0.0437  0.1068  0.2862
28827SOL    HW191801   9.963   4.307   4.490  1.7973  1.1682  0.3250
28827SOL    HW291802  10.019   4.332   4.352 -0.7209 -0.7094 -1.1148
28828SOL     OW91803   5.272   7.769  11.363 -0.2505  0.2314 -0.4773
28828SOL    HW191804   5.200   7.708  11.376 -0.1273 -0.6990 -3.4794
28828SOL    HW291805   5.246   7.823  11.288  1.8988  0.1975 -1.3357
28829SOL     OW91806   7.998   7.104   6.435  0.7443  0.3544 -0.2626
28829SOL    HW191807   8.010   7.016   6.469  1.1001  0.0868 -1.0716
28829SOL    HW291808   7.910   7.129   6.463  0.3432 -0.5520 -0.6877
28830SOL     OW91809   6.262   0.789   4.289 -0.5211 -0.2642  0.4916
28830SOL    HW191810   6.281   0.701   4.323  1.8187 -0.6856 -1.6196
28830SOL    HW291811   6.197   0.774   4.220  0.9338 -0.6618 -0.8819
28831SOL     OW91812   3.775   7.658   4.731  0.0229  0.1663  0.2165
28831SOL    HW191813   3.832   7.632   4.803 -0.9668  0.1435  0.9976
28831SOL    HW291814   3.821   7.627   4.652  0.2169 -1.4703  0.9317
28832SOL     OW91815  11.371   8.222   7.994  0.1425  0.8600  0.4813
28832SOL    HW191816  11.439   8.284   8.023  0.8677 -0.1726  1.0359
28832SOL    HW291817  11.297   8.239   8.054  1.1646 -0.3593  2.1606
28833SOL     OW91818   5.691   6.107   9.925  0.0029  0.3940 -0.3391
28833SOL    HW191819   5.660   6.135  10.011  1.7142  3.1253 -0.4627
28833SOL    HW291820   5.627   6.142   9.863 -0.4400 -0.2733 -0.2646
28834SOL     OW91821   4.935   5.918   8.781  0.0449  0.1135 -0.2658
28834SOL    HW191822   4.877   5.864   8.835 -0.9065  0.5381 -0.8392
28834SOL    HW291823   4.994   5.959   8.844  1.2796 -2.1032  0.1352
28835SOL     OW91824   1.143   4.091   0.187 -0.1084 -0.3301  0.4827
28835SOL    HW191825   1.220   4.048   0.151  1.3998  1.6662  1.1387
28835SOL    HW291826   1.113   4.149   0.117  2.9405  3.7015  2.1177
28836SOL     OW91827   5.115   9.495   8.308 -0.1199  0.0646 -0.2732
28836SOL    HW191828   5.117   9.502   8.403  0.2780  1.3680 -0.3528
28836SOL    HW291829   5.023   9.508   8.285 -0.1788 -0.0070 -0.0774
28837SOL     OW91830   8.517   3.855   4.490  0.0053 -0.0768 -0.2241
28837SOL    HW191831   8.522   3.841   4.395  0.6271 -0.9117 -0.0838
28837SOL    HW291832   8.552   3.774   4.528 -2.0337 -0.5597  0.7544
28838SOL     OW91833   2.510   4.130   2.457  0.4077 -0.2476  0.0926
28838SOL    HW191834   2.468   4.094   2.379 -0.0237  0.2367  0.0906
28838SOL    HW291835   2.599   4.151   2.430  0.3957 -0.5077 -0.1451
28839SOL     OW91836  11.591   1.531   1.694 -0.3547 -0.0024 -0.1967
28839SOL    HW191837  11.622   1.612   1.735 -1.6972 -0.1459  1.1805
28839SOL    HW291838  11.611   1.462   1.757 -0.5461 -0.5401 -0.7099
28840SOL     OW91839  10.582   1.926   0.044 -0.3234 -0.0963 -0.4714
28840SOL    HW191840  10.568   1.938   0.138 -0.7268  0.9269 -0.6515
28840SOL    HW291841  10.497   1.897   0.011  0.1478 -1.7457 -0.3439
28841SOL     OW91842   9.689   3.688   8.749  0.5026  0.5640  0.0852
28841SOL    HW191843   9.702   3.778   8.779  3.7242 -0.3447  1.9114
28841SOL    HW291844   9.726   3.634   8.819 -1.2672 -2.2294 -0.9618
28842SOL     OW91845   5.738   4.231  10.324 -0.1289 -0.0395 -0.0660
28842SOL    HW191846   5.732   4.291  10.398 -0.4602 -1.5374  1.1788
28842SOL    HW291847   5.810   4.172  10.347 -1.6350 -1.8879  0.1611
28843SOL     OW91848   0.723   7.876   5.891 -0.0998  0.8505 -0.0667
28843SOL    HW191849   0.661   7.946   5.912  0.3534  0.6053  2.4391
28843SOL    HW291850   0.803   7.900   5.939  0.1366 -1.2502  0.6982
28844SOL     OW91851  10.941   3.093   8.782  0.0470  0.2623  0.3370
28844SOL    HW191852  10.917   3.167   8.726 -0.0690  0.0240  0.0682
28844SOL    HW291853  10.897   3.017   8.743  0.8603 -0.1032  0.0874
28845SOL     OW91854   0.073   5.445   3.213 -0.8126  0.3185  1.1458
28845SOL    HW191855   0.146   5.505   3.225 -1.1593  0.8284  0.7304
28845SOL    HW291856   0.057   5.409   3.301 -0.0971  0.2317  1.2473
28846SOL     OW91857   1.794   1.033   7.923 -0.5095  0.2344  0.3679
28846SOL    HW191858   1.820   0.943   7.903 -1.3172  0.3201 -1.2011
28846SOL    HW291859   1.876   1.077   7.945  0.0703 -0.5555 -0.1656
28847SOL     OW91860   6.900   9.592   0.578 -0.0436  0.5136  0.0175
28847SOL    HW191861   6.842   9.562   0.649  0.4657 -0.6443 -0.0338
28847SOL    HW291862   6.894   9.523   0.512  2.2435 -0.2430  0.4924
28848SOL     OW91863   0.120  10.039   8.025  0.6020 -0.5439  0.1397
28848SOL    HW191864   0.174  10.085   7.961  0.9030 -0.9303  0.1155
28848SOL    HW291865   0.032  10.073   8.010  0.8739  0.2731  0.3425
28849SOL     OW91866   1.304   2.995   0.953  0.0689  0.3478  0.3728
28849SOL    HW191867   1.300   2.926   1.019  0.0693  1.2899  1.3891
28849SOL    HW291868   1.300   3.076   1.003  1.3488  1.1046 -0.6972
28850SOL     OW91869   6.451   5.113   9.511  0.2407  0.0604  0.1003
28850SOL    HW191870   6.478   5.022   9.518  0.0295  0.0895  1.9148
28850SOL    HW291871   6.498   5.147   9.435  1.0797 -1.2991 -0.0192
28851SOL     OW91872  11.482   5.995   2.330  0.4890  0.3093  0.1832
28851SOL    HW191873  11.455   5.929   2.266 -0.5659  0.9807 -0.0933
28851SOL    HW291874  11.545   6.049   2.283  0.7487 -0.0232  0.1497
28852SOL     OW91875   8.274   5.551   8.009  0.2940  0.1914  0.3669
28852SOL    HW191876   8.330   5.531   8.084  1.0298  0.1819 -0.1777
28852SOL    HW291877   8.198   5.493   8.020 -0.4164  1.3333  1.9813
28853SOL     OW91878  11.666   4.853   1.714 -0.3531 -0.0318 -0.1798
28853SOL    HW191879  11.648   4.817   1.800  0.9076  0.3311  0.2525
28853SOL    HW291880  11.685   4.777   1.659 -2.5315 -0.3898 -0.5281
28854SOL     OW91881   2.105   3.838   2.537 -0.0726  0.0858 -0.3908
28854SOL    HW191882   2.073   3.748   2.545  2.0566 -0.8406 -1.4743
28854SOL    HW291883   2.035   3.885   2.493  0.2818 -2.0696 -3.5612
28855SOL     OW91884   5.550   3.269   7.082  0.5501  0.7124 -0.2810
28855SOL    HW191885   5.629   3.322   7.071  1.4308 -0.6204 -0.6616
28855SOL    HW291886   5.536   3.267   7.177  1.5636  0.1768 -0.1196
28856SOL     OW91887   4.502   0.197   1.334  0.0180 -0.0678  0.2274
28856SOL    HW191888   4.526   0.188   1.426  0.2569 -3.4354 -0.0422
28856SOL    HW291889   4.469   0.111   1.309  1.1217  0.3433 -3.1654
28857SOL     OW91890   6.775   6.270   3.504  0.3468  0.1852  0.2632
28857SOL    HW191891   6.792   6.331   3.432 -0.2673  0.5784  0.4448
28857SOL    HW291892   6.715   6.206   3.466 -0.9562  1.0871  0.7629
28858SOL     OW91893   8.933   8.079   5.153 -0.0798 -0.3107  0.1265
28858SOL    HW191894   9.020   8.118   5.164 -0.7832  1.9157 -1.4914
28858SOL    HW291895   8.901   8.067   5.243  1.1883  0.5090  0.7196
28859SOL     OW91896  11.510  11.227   9.780  1.2209 -0.3837  0.5398
28859SOL    HW191897  11.587  11.277   9.754  0.9825  0.6458  1.6900
28859SOL    HW291898  11.451  11.293   9.819 -0.3592 -1.0949 -0.5613
28860SOL     OW91899   8.994   2.847   0.852 -0.4190  0.4204 -0.1611
28860SOL    HW191900   9.042   2.765   0.869  0.1697  1.1396  1.9136
28860SOL    HW291901   8.997   2.856   0.757  0.8206 -1.1908 -0.3333
28861SOL     OW91902   0.621   1.700   7.126 -0.0772 -0.1472 -0.1088
28861SOL    HW191903   0.534   1.741   7.120  0.0091 -0.1213 -1.8151
28861SOL    HW291904   0.660   1.716   7.040  2.0482  0.7302  0.9460
28862SOL     OW91905   3.749  10.771   2.818 -0.0702 -0.0628  0.2081
28862SOL    HW191906   3.697  10.771   2.899  0.4494 -0.6542  0.5451
28862SOL    HW291907   3.828  10.721   2.839  0.9251  1.3073 -0.1188
28863SOL     OW91908   0.225   7.175  11.358 -0.2032  0.3139 -0.4206
28863SOL    HW191909   0.208   7.209  11.447  0.8129  1.3561 -0.6001
28863SOL    HW291910   0.302   7.224  11.328 -0.8242  0.3461 -2.0751
28864SOL     OW91911   9.408   3.496   5.334  0.1911  0.0883 -0.4167
28864SOL    HW191912   9.492   3.462   5.303  0.2408 -0.7056  0.5521
28864SOL    HW291913   9.361   3.519   5.254  0.7288 -0.9314 -1.0519
28865SOL     OW91914   8.935   6.298   3.254  0.1763  0.3854 -0.0605
28865SOL    HW191915   8.992   6.265   3.323  0.2903  1.0001  0.1440
28865SOL    HW291916   8.910   6.220   3.205 -0.6744 -0.2076  1.2378
28866SOL     OW91917   5.567  10.688   7.980 -0.0284 -0.2878  0.0655
28866SOL    HW191918   5.628  10.653   7.915 -0.5585 -1.1814  0.0289
28866SOL    HW291919   5.618  10.691   8.061  0.0538 -1.1463  0.0633
28867SOL     OW91920   3.501   2.116   6.234  0.1255  0.1051 -0.3958
28867SOL    HW191921   3.435   2.055   6.203  0.6200  0.4576 -2.2449
28867SOL    HW291922   3.458   2.202   6.233  0.1455  0.1221 -0.0674
28868SOL     OW91923  11.348   4.658   2.873  0.1247  0.1549 -0.5307
28868SOL    HW191924  11.384   4.742   2.843  0.3778  0.5940  0.9152
28868SOL    HW291925  11.425   4.601   2.880  0.1979  0.3192  0.0855
28869SOL     OW91926   4.315   5.692   7.967 -0.0188 -0.0463 -0.1121
28869SOL    HW191927   4.221   5.706   7.981  0.5006  2.5588  1.4627
28869SOL    HW291928   4.338   5.755   7.898  0.4941 -1.1701 -1.0031
28870SOL     OW91929  10.010   2.418   0.298 -0.4656  0.2702 -0.1471
28870SOL    HW191930  10.082   2.365   0.263  1.0198  3.4943 -2.5810
28870SOL    HW291931  10.047   2.460   0.376 -0.8994 -0.5308  0.5086
28871SOL     OW91932   7.853   5.453  10.031 -0.6059 -0.2232 -0.5267
28871SOL    HW191933   7.826   5.369  10.068  1.8470 -1.3101 -1.0374
28871SOL    HW291934   7.831   5.517  10.099  0.3620 -1.6940  1.2589
28872SOL     OW91935   2.266   1.474  11.325 -0.3251 -0.0414  0.3108
28872SOL    HW191936   2.229   1.494  11.239 -0.2602 -1.5722 -0.0988
28872SOL    HW291937   2.267   1.378  11.329 -1.4989 -0.0055  2.5347
28873SOL     OW91938   0.661   3.660   1.299 -0.2589  0.3247 -0.4248
28873SOL    HW191939   0.677   3.752   1.279  1.2338 -0.0901 -1.3451
28873SOL    HW291940   0.625   3.660   1.387  2.3406  1.6295  0.7433
28874SOL     OW91941  11.585   2.266   9.003 -0.2363 -0.4746  0.0872
28874SOL    HW191942  11.670   2.222   9.006 -0.0737 -0.1384  0.5034
28874SOL    HW291943  11.589   2.322   8.925  0.4308  0.5370  0.8151
28875SOL     OW91944   3.149   1.885   1.800 -0.4417 -0.2770 -0.9119
28875SOL    HW191945   3.195   1.801   1.801 -2.1646 -1.3543  2.3066
28875SOL    HW291946   3.094   1.881   1.722  0.5531 -1.4668 -1.5991
28876SOL     OW91947   0.936   6.829   2.852 -0.0891  0.4001 -0.7929
28876SOL    HW191948   0.866   6.768   2.874 -0.9623  1.5134 -0.3486
28876SOL    HW291949   1.016   6.781   2.871 -0.7512 -0.3282  0.3545
28877SOL     OW91950   4.972   5.952  10.804 -0.1909  0.2529 -0.5021
28877SOL    HW191951   5.024   6.021  10.763 -2.8867  2.2320 -0.8423
28877SOL    HW291952   4.937   5.902  10.731  0.7526 -0.7642 -0.2876
28878SOL     OW91953   6.786   7.628   3.310 -0.0983 -0.1456  0.2487
28878SOL    HW191954   6.786   7.538   3.341  0.1025 -0.1340  0.2834
28878SOL    HW291955   6.861   7.633   3.250  1.1196  0.5063  1.7468
28879SOL     OW91956   7.943   3.535   9.097 -0.6333  0.4382 -0.2995
28879SOL    HW191957   7.874   3.575   9.044 -0.3316  1.4640  0.0506
28879SOL    HW291958   7.933   3.441   9.084 -1.5107  0.6196 -0.9783
28880SOL     OW91959   2.677  11.789  10.236 -0.1408 -0.7112  0.2171
28880SOL    HW191960   2.651  11.813  10.325 -0.6494 -1.0689  0.1712
28880SOL    HW291961   2.760  11.834  10.222 -0.5471  0.1396  0.5194
28881SOL     OW91962  10.864   4.503   0.562 -0.6482 -0.1742  0.3837
28881SOL    HW191963  10.779   4.530   0.527  0.2179 -1.1493 -2.7853
28881SOL    HW291964  10.928   4.550   0.509  0.8906  0.6779  2.8216
28882SOL     OW91965  10.288   6.527   8.300 -0.6564 -0.6439 -0.1339
28882SOL    HW191966  10.201   6.567   8.310  0.4066  1.4601  1.5519
28882SOL    HW291967  10.349   6.601   8.307  1.3637 -2.3062  0.8225
28883SOL     OW91968   6.063   2.554   0.417  0.2864 -0.3770 -0.2791
28883SOL    HW191969   6.126   2.518   0.480  3.0482  1.3714 -1.8403
28883SOL    HW291970   6.066   2.649   0.432 -0.2873 -0.0731 -1.8961
28884SOL     OW91971   7.995   6.731   9.768 -0.3573 -0.4644  0.1497
28884SOL    HW191972   7.910   6.691   9.785 -0.7511  1.0683  2.1011
28884SOL    HW291973   7.975   6.822   9.748  0.7882 -0.2524 -0.0958
28885SOL     OW91974   1.116   5.825   4.770  0.1101  0.1854  0.0235
28885SOL    HW191975   1.144   5.734   4.781  2.9368  1.0039  0.2787
28885SOL    HW291976   1.117   5.861   4.859  0.2930  0.8227 -0.2358
28886SOL     OW91977   5.067   0.781  10.878 -0.2449  0.2676 -0.0224
28886SOL    HW191978   4.986   0.830  10.888  0.2688  1.2797 -0.6997
28886SOL    HW291979   5.042   0.703  10.828 -1.0008 -0.0405  0.7897
28887SOL     OW91980   1.697   9.678  11.362 -0.4753  0.3780 -0.4038
28887SOL    HW191981   1.675   9.706  11.450 -0.4751  1.3037 -0.6918
28887SOL    HW291982   1.657   9.591  11.353 -1.0270  0.5605  0.2716
28888SOL     OW91983   1.104   9.336  11.088  0.5385 -0.1960  0.1250
28888SOL    HW191984   1.137   9.318  11.176  1.6520  0.5420 -0.1267
28888SOL    HW291985   1.138   9.264  11.035 -2.1499 -2.0458  0.6831
28889SOL     OW91986   0.216   1.903   3.879 -0.1769  0.1409 -0.0557
28889SOL    HW191987   0.139   1.871   3.833 -2.3739  2.9570  1.3598
28889SOL    HW291988   0.261   1.959   3.816 -1.6589  1.7951  0.2871
28890SOL     OW91989   9.162   8.791  10.818  0.2403  0.0110  0.0132
28890SOL    HW191990   9.146   8.705  10.779 -0.6043 -0.4992  1.3835
28890SOL    HW291991   9.121   8.854  10.759 -1.3492 -0.7615  0.2433
28891SOL     OW91992   6.290   1.790   6.724  0.1215 -0.0109 -0.0652
28891SOL    HW191993   6.219   1.761   6.666  0.4915  2.1130 -1.7082
28891SOL    HW291994   6.248   1.802   6.809 -1.2458  0.0892 -0.7161
28892SOL     OW91995   7.125   1.245   8.537  0.8208 -0.2613  0.0251
28892SOL    HW191996   7.082   1.204   8.461  2.1322 -0.4448 -0.6377
28892SOL    HW291997   7.080   1.329   8.547  1.3899  0.2974 -1.7088
28893SOL     OW91998   2.780   1.248  11.380  0.0167  0.4103  0.3964
28893SOL    HW191999   2.803   1.161  11.349 -1.5794  0.1241 -0.1019
28893SOL    HW292000   2.863   1.294  11.388  0.7697 -0.7026 -0.7163
28894SOL     OW92001   7.137   4.078   1.721 -0.1099  0.3635  0.3408
28894SOL    HW192002   7.042   4.065   1.725  0.0297 -0.7666  0.4360
28894SOL    HW292003   7.148   4.173   1.719 -1.2336  0.5171  0.5055
28895SOL     OW92004   6.520   1.378   2.635  0.3933  0.1448  0.2821
28895SOL    HW192005   6.436   1.342   2.663  0.2272 -0.1132 -0.5413
28895SOL    HW292006   6.515   1.381   2.540  1.2151  0.3847  0.2373
28896SOL     OW92007   0.043   1.970   1.461 -0.2525 -0.5586 -0.2291
28896SOL    HW192008   0.138   1.962   1.464 -0.1854  0.3436  0.6395
28896SOL    HW292009   0.019   2.006   1.546 -1.3289 -0.3866 -0.5862
28897SOL     OW92010   5.378   2.779   9.187 -0.2054  0.4576  0.4545
28897SOL    HW192011   5.308   2.833   9.150 -0.3154  0.1942  0.2779
28897SOL    HW292012   5.341   2.742   9.267  0.1534  1.3192  1.0396
28898SOL     OW92013   6.057   0.064   4.819  0.1807  0.4350 -0.3214
28898SOL    HW192014   6.138   0.114   4.820 -0.0922  0.9274 -1.2126
28898SOL    HW292015   5.987   0.129   4.827 -0.1812  0.2465 -1.6440
28899SOL     OW92016   4.137   4.660   1.597  0.8854 -0.4339 -0.0396
28899SOL    HW192017   4.101   4.661   1.685 -0.4547 -1.3526 -0.5353
28899SOL    HW292018   4.178   4.745   1.586  3.5680 -1.2399  2.4206
28900SOL     OW92019   4.007   6.741   6.720  0.3101  0.7264  0.1708
28900SOL    HW192020   4.038   6.719   6.807 -0.7509  0.5061  0.5094
28900SOL    HW292021   3.965   6.661   6.688 -0.5367  1.2098  0.0304
28901SOL     OW92022   8.035   4.082  11.368 -0.3634 -0.3092 -0.3149
28901SOL    HW192023   8.091   4.020  11.321 -2.1343 -1.6236 -0.8089
28901SOL    HW292024   8.086   4.107  11.445  0.7150 -1.7993 -0.4907
28902SOL     OW92025   0.731   3.864   5.267 -0.2037 -0.1745 -0.8251
28902SOL    HW192026   0.688   3.798   5.322  1.7342 -1.4768 -0.7731
28902SOL    HW292027   0.798   3.902   5.324 -0.7597  1.3014 -1.1149
28903SOL     OW92028   6.921   9.069   6.254  0.5749  0.6485  0.2512
28903SOL    HW192029   6.846   9.039   6.305 -2.6891  2.1744 -3.1416
28903SOL    HW292030   6.977   8.992   6.245 -0.7159 -0.6755  2.6325
28904SOL     OW92031   8.635   2.144   2.803 -0.2814  0.2832 -0.2848
28904SOL    HW192032   8.721   2.171   2.770 -0.5221 -0.0918 -1.2534
28904SOL    HW292033   8.582   2.223   2.798  0.3220  0.8383  1.4858
28905SOL     OW92034  10.827   2.633   1.897  0.3635  0.1618  0.4216
28905SOL    HW192035  10.839   2.692   1.822 -2.2983  0.4457  0.1180
28905SOL    HW292036  10.820   2.546   1.859  1.9945 -0.1020  0.6623
28906SOL     OW92037  11.380   8.244   0.402  0.4739  0.2416  0.3393
28906SOL    HW192038  11.385   8.317   0.464  2.5608  1.2634 -0.9077
28906SOL    HW292039  11.434   8.272   0.328 -0.4188 -1.6953 -1.1504
28907SOL     OW92040   3.690  10.213   0.498  0.5549 -0.2081 -0.5676
28907SOL    HW192041   3.766  10.262   0.528 -0.3831  1.1239 -0.2890
28907SOL    HW292042   3.722  10.164   0.421  0.9454  2.8444 -2.5086
28908SOL     OW92043   2.789   0.733   7.875 -0.0929  0.1451  0.4659
28908SOL    HW192044   2.850   0.780   7.932  0.2505  1.3874 -0.8661
28908SOL    HW292045   2.730   0.801   7.843 -1.3224 -0.8178  0.6437
28909SOL     OW92046   0.366   8.019   2.565 -0.1470  0.0273  0.8412
28909SOL    HW192047   0.360   8.039   2.471 -0.3073 -2.2678  0.2990
28909SOL    HW292048   0.305   8.080   2.606 -0.9688  0.3097 -0.6927
28910SOL     OW92049   7.438  10.731   0.149  0.0771 -0.1003  0.2615
28910SOL    HW192050   7.506  10.752   0.085  0.5142  0.5763  0.9264
28910SOL    HW292051   7.485  10.689   0.221  0.2186  2.4686  1.7848
28911SOL     OW92052   6.080   5.495  10.291 -0.8335 -0.2762 -0.0741
28911SOL    HW192053   6.032   5.565  10.335 -1.0238 -0.5137  0.0965
28911SOL    HW292054   6.171   5.505  10.320 -0.4858  1.0617 -1.4903
28912SOL     OW92055   2.791   5.725  11.676  0.2150  0.4610  0.1900
28912SOL    HW192056   2.849   5.773  11.736  1.2948 -0.1739 -0.3058
28912SOL    HW292057   2.748   5.794  11.625 -0.5285  0.9934  1.5110
28913SOL     OW92058   0.323   9.961   3.327  0.0927 -0.1170  0.5727
28913SOL    HW192059   0.380   9.897   3.369  2.0733  0.0693 -1.6276
28913SOL    HW292060   0.275  10.001   3.399  1.2782 -1.7062  2.3379
28914SOL     OW92061   4.221  11.411   0.653  1.0537  0.1270 -0.3682
28914SOL    HW192062   4.269  11.461   0.588 -0.1016  2.8436  0.7020
28914SOL    HW292063   4.131  11.407   0.619  0.4346  1.5940  0.9344
28915SOL     OW92064   7.634   2.688   5.557 -0.0546 -0.4763  0.4174
28915SOL    HW192065   7.622   2.769   5.507 -1.0560 -0.3913  0.7700
28915SOL    HW292066   7.699   2.710   5.624  0.8678 -0.4310 -0.4689
28916SOL     OW92067   7.650   4.721   8.348  0.3874 -0.0080  1.1046
28916SOL    HW192068   7.626   4.808   8.316 -0.3158 -0.6006 -0.0476
28916SOL    HW292069   7.657   4.731   8.443  2.3878  1.7814  0.8308
28917SOL     OW92070   6.261  10.894  11.022  0.2434 -0.3320  1.0771
28917SOL    HW192071   6.279  10.909  11.115  2.2151  0.8928  0.5767
28917SOL    HW292072   6.347  10.877  10.984 -0.6603 -1.9338 -0.3790
28918SOL     OW92073   9.957   4.180   0.846  0.3249 -0.3275  0.2236
28918SOL    HW192074   9.910   4.213   0.769 -0.3329 -1.9715 -0.1320
28918SOL    HW292075  10.043   4.156   0.812  0.1505 -0.7336  0.0533
28919SOL     OW92076   3.788   9.079   5.656  0.1143  0.9927  1.4845
28919SOL    HW192077   3.714   9.059   5.714 -1.4759  0.3247 -0.6574
28919SOL    HW292078   3.779   9.173   5.637 -0.5010  0.8159  0.8565
28920SOL     OW92079   8.341   6.795   6.967 -0.3939 -0.6393 -0.6222
28920SOL    HW192080   8.368   6.834   6.883 -0.8246 -0.8752 -0.8710
28920SOL    HW292081   8.375   6.706   6.963  0.8550 -0.2256  0.0757
28921SOL     OW92082   5.139  10.209   5.877  0.2394 -0.0645 -0.9149
28921SOL    HW192083   5.233  10.204   5.894  0.2310 -1.0677 -1.1261
28921SOL    HW292084   5.128  10.291   5.828  0.6863  1.1828  0.9764
28922SOL     OW92085   2.673   2.458   4.940 -0.8249 -0.1964 -0.2089
28922SOL    HW192086   2.655   2.505   5.021 -1.5693  0.4197 -0.7292
28922SOL    HW292087   2.758   2.415   4.956  0.7503  2.6597 -0.3094
28923SOL     OW92088   8.860  10.849  11.707  0.0363 -0.7305  0.5878
28923SOL    HW192089   8.787  10.907  11.729 -0.0729 -0.8329  0.4902
28923SOL    HW292090   8.820  10.763  11.695  0.1891 -0.8125  0.6626
28924SOL     OW92091   6.136   2.553   7.328 -0.7175  0.4920 -0.0959
28924SOL    HW192092   6.228   2.572   7.308 -0.6909 -0.3978 -0.9091
28924SOL    HW292093   6.133   2.548   7.424 -0.1628  1.6596  0.0014
28925SOL     OW92094   5.727   9.074   3.774 -0.4468  0.2725 -0.4269
28925SOL    HW192095   5.671   9.003   3.744 -0.0056 -0.2239 -0.0956
28925SOL    HW292096   5.734   9.061   3.869 -0.1589  0.6018 -0.4016
28926SOL     OW92097   6.292  10.025   5.556  0.4723  0.2190 -0.1078
28926SOL    HW192098   6.201  10.044   5.580  0.6092 -0.2583  0.8526
28926SOL    HW292099   6.284   9.959   5.487  0.0656 -1.3659  1.3623
28927SOL     OW92100   0.120   4.348  10.628  0.4037 -0.2122 -0.6294
28927SOL    HW192101   0.081   4.272  10.585  0.0568  0.6694 -1.9306
28927SOL    HW292102   0.210   4.320  10.649 -0.1591 -1.4521  0.2442
28928SOL     OW92103   2.564   5.665   1.733  0.1175  0.5311 -0.3838
28928SOL    HW192104   2.657   5.647   1.719 -0.0927  0.7594 -2.2499
28928SOL    HW292105   2.563   5.747   1.782  0.9210 -1.1834  2.8312
28929SOL     OW92106   4.151   3.097   6.771 -0.7353 -0.2116 -0.2476
28929SOL    HW192107   4.108   3.098   6.856  1.0076 -0.3577  0.6899
28929SOL    HW292108   4.080   3.102   6.707 -2.1469 -1.1136  1.1890
28930SOL     OW92109  11.067   6.479   8.202 -0.0856 -0.3785  0.2440
28930SOL    HW192110  11.048   6.488   8.295 -0.4669  2.3893 -0.0011
28930SOL    HW292111  11.118   6.557   8.180  1.4780 -1.7988 -1.5536
28931SOL     OW92112  10.268   6.181   6.473  0.3010 -0.2617 -0.0419
28931SOL    HW192113  10.241   6.098   6.512 -0.1372 -0.1922 -0.1950
28931SOL    HW292114  10.204   6.245   6.504 -0.6125 -0.3781 -1.6078
28932SOL     OW92115  11.043   6.679   0.868 -0.2218 -0.0821 -0.2692
28932SOL    HW192116  10.992   6.647   0.794  0.9188 -0.8576 -0.7523
28932SOL    HW292117  11.120   6.720   0.829  0.1135  0.0121  0.4641
28933SOL     OW92118   1.942   1.034   5.847 -0.3910  0.0631 -0.0976
28933SOL    HW192119   1.862   1.034   5.900 -0.6451 -1.5627 -0.4241
28933SOL    HW292120   2.008   0.992   5.902 -0.2350 -0.2180 -0.4927
28934SOL     OW92121   6.196   8.749   7.763  0.6175 -0.6586  0.5783
28934SOL    HW192122   6.103   8.767   7.754  0.8953  0.3044 -0.6106
28934SOL    HW292123   6.200   8.664   7.807 -0.8430 -1.9827 -1.6800
28935SOL     OW92124   9.534   7.313   1.957 -0.1652  0.5978  0.1818
28935SOL    HW192125   9.590   7.387   1.935  0.5392  0.0260  0.0281
28935SOL    HW292126   9.537   7.308   2.052  0.8964 -0.0727  0.1239
28936SOL     OW92127   7.225   7.345   7.281 -0.5855 -0.0025  0.1464
28936SOL    HW192128   7.315   7.351   7.313 -0.9224 -0.3041  1.1842
28936SOL    HW292129   7.231   7.289   7.204  0.0280 -0.5595  0.5855
28937SOL     OW92130  11.633   4.556   4.105 -0.3689  0.3734  0.2243
28937SOL    HW192131  11.543   4.585   4.091  0.3605  2.5287 -0.2897
28937SOL    HW292132  11.631   4.462   4.086 -2.3801  0.4969 -0.3544
28938SOL     OW92133  11.227   5.110   9.555 -0.0153 -0.3658  0.0431
28938SOL    HW192134  11.264   5.022   9.540 -0.7889 -0.7891  0.5484
28938SOL    HW292135  11.233   5.123   9.649  3.1251  1.5264 -0.2955
28939SOL     OW92136   5.703   2.843   2.946 -0.3395  0.6890 -0.5515
28939SOL    HW192137   5.631   2.821   3.005 -0.5351 -0.4368 -1.1808
28939SOL    HW292138   5.662   2.891   2.874 -0.4594  0.0930 -0.8842
28940SOL     OW92139   2.236   5.689   4.752 -0.2597  0.4878 -0.2916
28940SOL    HW192140   2.174   5.757   4.777 -0.0727  1.0638 -1.3509
28940SOL    HW292141   2.267   5.715   4.665 -0.3394 -1.0539 -0.8148
28941SOL     OW92142   8.913  11.014   1.383 -0.7875 -0.0206 -0.3443
28941SOL    HW192143   8.945  10.925   1.365 -1.3666 -0.3563  0.2261
28941SOL    HW292144   8.898  11.015   1.478  1.4937  1.4752  0.0590
28942SOL     OW92145   0.649   8.855   0.907 -0.4216  0.1601 -0.4096
28942SOL    HW192146   0.640   8.864   1.002 -0.3898  1.5606 -0.5057
28942SOL    HW292147   0.609   8.935   0.872 -1.1821 -0.7252 -1.6274
28943SOL     OW92148   3.144  11.335   4.566 -0.0567 -0.6686 -0.4452
28943SOL    HW192149   3.228  11.381   4.569 -0.3147 -0.1318  3.4347
28943SOL    HW292150   3.160  11.253   4.612 -1.2717 -1.4108 -1.2822
28944SOL     OW92151   0.513   8.171   4.149 -0.3131  0.3399  0.6680
28944SOL    HW192152   0.479   8.090   4.112 -0.8209  0.2872  1.2246
28944SOL    HW292153   0.437   8.211   4.192  0.0169  0.9267  0.7157
28945SOL     OW92154   8.323   1.683   6.935  0.8639  0.4965  0.1641
28945SOL    HW192155   8.300   1.660   7.025 -0.1865 -1.1283 -0.4636
28945SOL    HW292156   8.261   1.751   6.911 -1.5190 -1.7537 -0.5256
28946SOL     OW92157   0.282   8.003   2.209 -0.3537  0.1070 -0.2583
28946SOL    HW192158   0.336   8.019   2.132 -1.4161  2.5884 -0.5698
28946SOL    HW292159   0.267   7.908   2.208  2.2198 -0.3836 -1.2840
28947SOL     OW92160  11.008   1.906   8.853  0.0579  0.1257 -0.4715
28947SOL    HW192161  11.087   1.907   8.799 -1.0981 -1.5391 -2.3475
28947SOL    HW292162  10.991   1.813   8.867 -1.4029  0.4717  0.1757
28948SOL     OW92163   5.235   7.442   3.731 -0.0988  0.3844  0.5809
28948SOL    HW192164   5.222   7.357   3.689 -0.9976  1.4306 -1.4553
28948SOL    HW292165   5.299   7.426   3.800 -0.4860 -1.9822  0.4665
28949SOL     OW92166   1.134   7.455   6.766 -0.6463  0.0298 -0.1611
28949SOL    HW192167   1.054   7.409   6.741  0.5870 -1.4335 -1.6025
28949SOL    HW292168   1.122   7.475   6.859 -2.2589 -1.0383 -0.1107
28950SOL     OW92169  11.126   2.147   1.863  0.4805  0.3620 -0.2802
28950SOL    HW192170  11.157   2.057   1.865  0.1550  0.2139 -1.3742
28950SOL    HW292171  11.199   2.197   1.828  0.7692  0.5795  0.6127
28951SOL     OW92172  11.455   4.907  10.992 -0.8363  0.4594  0.5955
28951SOL    HW192173  11.419   4.837  11.046 -0.3028 -0.9615 -0.8253
28951SOL    HW292174  11.393   4.979  11.002 -0.6559  0.3383  3.2223
28952SOL     OW92175   0.128   7.426   0.139  0.9185 -0.1143 -0.3292
28952SOL    HW192176   0.066   7.461   0.076 -0.3293 -1.6626 -0.0201
28952SOL    HW292177   0.144   7.498   0.200  1.2557  1.0329 -1.7279
28953SOL     OW92178   9.737   0.923   1.539 -0.5183 -0.1640  0.1110
28953SOL    HW192179   9.684   0.951   1.465 -0.2184 -0.1978 -0.1161
28953SOL    HW292180   9.801   0.863   1.502 -1.8436 -2.0681  0.7399
28954SOL     OW92181  10.482   2.361   8.299  0.1163 -0.3577 -0.0590
28954SOL    HW192182  10.468   2.455   8.310 -2.4699 -0.6303 -0.5632
28954SOL    HW292183  10.525   2.334   8.381  2.0952  1.3954 -0.4157
28955SOL     OW92184  10.453   3.488  11.691 -0.0664  0.3528 -0.2442
28955SOL    HW192185  10.359   3.478  11.705  0.1275  1.1709  2.0684
28955SOL    HW292186  10.465   3.480  11.596 -2.5013  0.6527 -0.6235
28956SOL     OW92187   4.750   0.026   9.895 -0.2278 -0.1072  0.0319
28956SOL    HW192188   4.752   0.094   9.962 -0.6243 -0.4788  0.4214
28956SOL    HW292189   4.665  -0.016   9.905  0.4243 -1.3729  0.5055
28957SOL     OW92190   5.552   8.850   6.764 -0.5368 -0.2002  0.3447
28957SOL    HW192191   5.495   8.862   6.840 -0.3078  0.8360  0.3716
28957SOL    HW292192   5.611   8.926   6.767  0.2052 -0.7464 -0.2316
28958SOL     OW92193   4.018   7.201  10.775  0.7490  0.2688 -0.3190
28958SOL    HW192194   4.013   7.205  10.679  1.7264 -0.5297 -0.4219
28958SOL    HW292195   4.106   7.169  10.793 -0.3711 -2.5835  0.7297
28959SOL     OW92196   7.572   6.464   0.305 -0.0684  0.0251 -0.3536
28959SOL    HW192197   7.614   6.430   0.225 -1.1342 -0.5571 -0.6833
28959SOL    HW292198   7.482   6.482   0.279 -1.1127 -2.3788  1.2376
28960SOL     OW92199   5.152  10.822   4.261 -0.4542  0.0774 -0.1195
28960SOL    HW192200   5.109  10.752   4.213 -0.0561  0.2296 -0.7115
28960SOL    HW292201   5.244  10.817   4.233  0.5482 -1.9197  3.0397
28961SOL     OW92202   3.264   8.593   4.406  0.2317  0.0299 -0.1720
28961SOL    HW192203   3.288   8.685   4.400 -0.7722  0.4162  1.2541
28961SOL    HW292204   3.259   8.575   4.499 -0.0978 -1.3423 -0.4315
28962SOL     OW92205   8.435  11.368   3.837 -0.3170  0.2852  0.1512
28962SOL    HW192206   8.482  11.311   3.776  0.4335  0.4589  0.5566
28962SOL    HW292207   8.348  11.379   3.797  0.3421  0.8490 -1.1796
28963SOL     OW92208   8.334   8.252   8.853 -0.7395  0.4024 -0.2087
28963SOL    HW192209   8.297   8.196   8.785 -0.4867  1.1670 -1.0139
28963SOL    HW292210   8.285   8.231   8.932 -0.1689 -1.4509 -0.3012
28964SOL     OW92211  11.677   4.038   6.887 -0.4748  0.0123  0.3922
28964SOL    HW192212  11.711   4.099   6.952  1.1166  1.0769 -1.3632
28964SOL    HW292213  11.732   3.960   6.896  0.7347  0.7167 -0.6203
28965SOL     OW92214   4.973   0.183   3.971 -0.1238  0.0880 -0.0921
28965SOL    HW192215   4.887   0.216   3.999  0.0295  1.1488 -0.8102
28965SOL    HW292216   4.990   0.228   3.888  1.9971  1.4207  0.9728
28966SOL     OW92217   8.322   8.824   6.355  0.3751 -0.1592 -0.0061
28966SOL    HW192218   8.247   8.870   6.392  1.8705  3.4136 -1.0234
28966SOL    HW292219   8.295   8.803   6.265  1.0951  2.9751 -1.0907
28967SOL     OW92220   5.294  11.781   8.486 -0.4097  0.4565 -0.6120
28967SOL    HW192221   5.323  11.812   8.400 -1.3708 -0.0761 -1.1499
28967SOL    HW292222   5.358  11.714   8.510 -1.3580 -1.0322 -1.9850
28968SOL     OW92223  10.204   8.170   2.081 -0.1043  0.0298  0.2234
28968SOL    HW192224  10.228   8.108   2.012 -0.6064 -1.7139  1.5261
28968SOL    HW292225  10.110   8.183   2.069 -0.2106 -0.3542  0.6162
28969SOL     OW92226   3.324   0.677   8.485 -0.2552  1.1771  0.0034
28969SOL    HW192227   3.299   0.608   8.546 -0.8959  2.7351  1.5523
28969SOL    HW292228   3.249   0.686   8.426  0.6783 -0.8822 -1.6184
28970SOL     OW92229   2.233   7.535   1.694  0.2421  0.4651  0.1755
28970SOL    HW192230   2.219   7.560   1.603  0.9316  2.8482  0.6331
28970SOL    HW292231   2.205   7.612   1.744 -1.3043 -1.2187  2.0946
28971SOL     OW92232   6.608   6.701   7.105  0.4760 -0.3290 -0.5379
28971SOL    HW192233   6.621   6.791   7.076 -0.3117 -0.7121 -2.1944
28971SOL    HW292234   6.624   6.648   7.027  0.6395 -1.6142  0.3335
28972SOL     OW92235  11.082  10.435   2.670  0.3559  0.4440 -0.2538
28972SOL    HW192236  11.099  10.341   2.679  0.0002  0.4605  0.6082
28972SOL    HW292237  10.993  10.440   2.635  0.1251  0.4763  0.3409
28973SOL     OW92238   2.072   9.252   9.349  0.2543  0.1398  0.2999
28973SOL    HW192239   1.987   9.293   9.366 -0.3318 -0.9673  0.0743
28973SOL    HW292240   2.063   9.213   9.262  1.6169  1.5665 -0.5596
28974SOL     OW92241   0.662   3.098  10.020  0.8065  0.2247 -0.7253
28974SOL    HW192242   0.618   3.148   9.952 -3.8629  1.2200  2.4798
28974SOL    HW292243   0.720   3.161  10.062  0.3666  0.9159 -1.1194
28975SOL     OW92244  10.281  10.253   5.621  0.0283  0.0074 -0.7506
28975SOL    HW192245  10.267  10.332   5.672 -3.1093 -0.3359 -0.8949
28975SOL    HW292246  10.343  10.279   5.552  1.8519  1.3078  1.2661
28976SOL     OW92247   9.330   4.455   2.795 -0.9609 -0.0908 -0.1873
28976SOL    HW192248   9.400   4.395   2.823  0.4158  2.1195  1.3928
28976SOL    HW292249   9.361   4.490   2.711 -0.4653  0.3876  0.1884
28977SOL     OW92250   5.556   6.677   0.369  0.1510 -0.3504  0.2057
28977SOL    HW192251   5.519   6.749   0.420 -0.8633 -0.8397  0.2008
28977SOL    HW292252   5.604   6.624   0.433 -0.5586 -0.6036  0.5379
28978SOL     OW92253   5.258   6.756   0.087 -0.5664 -0.6281  0.1461
28978SOL    HW192254   5.171   6.752   0.127 -0.3320  0.0036  0.7494
28978SOL    HW292255   5.253   6.831   0.028  0.1419  0.6982  1.6824
28979SOL     OW92256   3.517   2.513   5.018  0.1062 -0.9248  0.0071
28979SOL    HW192257   3.422   2.501   5.018 -0.1417  0.8204 -0.2654
28979SOL    HW292258   3.543   2.495   5.109 -0.6897 -0.0124  0.4288
28980SOL     OW92259  11.025   0.715   0.562  0.1224  0.2145  0.0685
28980SOL    HW192260  10.987   0.631   0.537  0.4120  0.4893 -1.3983
28980SOL    HW292261  11.047   0.757   0.478  0.3527  1.5754  0.7850
28981SOL     OW92262   1.077  10.963  10.731 -0.5718  0.1812  0.3170
28981SOL    HW192263   1.117  10.878  10.745 -0.6988 -0.5373 -2.8532
28981SOL    HW292264   1.116  10.995  10.649 -1.8465  2.3556  0.4667
28982SOL     OW92265  10.950   3.103  11.328  0.3674  0.1048  0.0681
28982SOL    HW192266  10.860   3.102  11.360  0.1506  2.0411 -0.4015
28982SOL    HW292267  11.003   3.081  11.405 -0.3513  1.5017  0.9914
28983SOL     OW92268   5.737   8.105   8.345 -0.2528 -0.2633  0.4886
28983SOL    HW192269   5.768   8.143   8.262  2.0593 -0.9463  0.9705
28983SOL    HW292270   5.730   8.011   8.328 -2.4127 -0.1388  0.3576
28984SOL     OW92271   1.290  11.260   8.815  0.0889 -0.7396 -0.2412
28984SOL    HW192272   1.240  11.312   8.752 -2.9110  0.1240  2.5833
28984SOL    HW292273   1.366  11.314   8.835 -0.9962  0.8375 -0.1946
28985SOL     OW92274  10.988   6.831   0.255  0.5688  0.6980 -0.2585
28985SOL    HW192275  10.935   6.859   0.329  0.1939  0.2792 -0.3612
28985SOL    HW292276  10.935   6.764   0.212  1.2920  0.0971 -0.2209
28986SOL     OW92277  11.181   9.711   4.997 -0.7817  0.1088  0.1594
28986SOL    HW192278  11.161   9.770   5.070  0.5504  1.2372 -0.3691
28986SOL    HW292279  11.213   9.767   4.927  0.8431 -1.2331 -0.2560
28987SOL     OW92280   2.755   8.144   5.755 -0.3005 -0.3934  0.5090
28987SOL    HW192281   2.690   8.169   5.690  0.0460 -0.8245 -0.0168
28987SOL    HW292282   2.836   8.133   5.705 -0.0843 -0.9659  0.9718
28988SOL     OW92283   6.472  11.172  11.192  0.0980 -0.0532  0.2591
28988SOL    HW192284   6.506  11.217  11.269  0.8416  0.6498 -0.4583
28988SOL    HW292285   6.412  11.106  11.227  2.9912 -2.1388  1.7151
28989SOL     OW92286   6.025   3.872   9.242  0.4711  0.2384 -0.4759
28989SOL    HW192287   5.946   3.921   9.220  0.5362 -0.2491 -1.8933
28989SOL    HW292288   6.001   3.822   9.320 -0.9960 -0.6753 -1.4500
28990SOL     OW92289   3.904  10.095   3.640  0.1462  0.3614  0.3543
28990SOL    HW192290   3.904  10.039   3.562 -2.0926 -1.6639  1.6644
28990SOL    HW292291   3.836  10.058   3.696 -0.4410  3.5795  2.0062
28991SOL     OW92292   0.340   2.264   9.793 -0.2656 -0.3891 -0.0842
28991SOL    HW192293   0.257   2.286   9.835  0.0796  1.8649 -0.4635
28991SOL    HW292294   0.398   2.337   9.813  1.3884 -1.5009 -0.5515
28992SOL     OW92295   3.456   2.697   6.868  0.0915  0.1276  0.0441
28992SOL    HW192296   3.461   2.705   6.773  0.0847 -0.6186 -0.0287
28992SOL    HW292297   3.530   2.641   6.892 -0.7869 -0.9950  0.2869
28993SOL     OW92298   5.116   2.350   7.981 -0.0309  0.7265  0.3595
28993SOL    HW192299   5.116   2.255   7.988  0.7976  0.5870 -1.0460
28993SOL    HW292300   5.125   2.367   7.887 -2.8106  2.2118  0.2323
28994SOL     OW92301   1.845   3.310   6.292 -0.4174  0.2476  0.0363
28994SOL    HW192302   1.776   3.261   6.247  0.0842 -1.0161  0.6250
28994SOL    HW292303   1.874   3.374   6.227  0.4019 -1.6288 -1.5415
28995SOL     OW92304   3.584   5.481   7.354  0.4893  0.2757 -0.1894
28995SOL    HW192305   3.599   5.466   7.448  0.2622 -1.6046 -0.4288
28995SOL    HW292306   3.493   5.456   7.340  0.7236 -0.0996 -1.0451
28996SOL     OW92307   7.087   1.598  11.231  0.0314 -0.3133  0.1538
28996SOL    HW192308   7.116   1.684  11.202  0.2767 -0.4704 -0.0764
28996SOL    HW292309   7.145   1.576  11.304  0.4425 -0.5888 -0.2484
28997SOL     OW92310   7.795  11.644   4.558 -0.0857  0.8218  0.7120
28997SOL    HW192311   7.736  11.569   4.552  0.7369  0.2843 -2.3453
28997SOL    HW292312   7.748  11.708   4.611 -1.5790 -1.1255  1.8816
28998SOL     OW92313   0.997   9.027   0.479  0.0546 -0.1203 -0.8134
28998SOL    HW192314   1.067   8.989   0.533 -0.9672  0.0291  0.6987
28998SOL    HW292315   0.970   8.955   0.422  0.5609 -0.5783 -0.4959
28999SOL     OW92316   1.744   8.155  11.430 -0.4241 -0.4061 -0.2873
28999SOL    HW192317   1.822   8.158  11.375 -1.8712 -0.4271 -2.4549
28999SOL    HW292318   1.702   8.240  11.418 -1.8611 -1.1579 -0.9738
29000SOL     OW92319  10.935  11.299   1.209 -0.5684  0.8183  0.4054
29000SOL    HW192320  10.993  11.363   1.252  0.0335 -0.9147  2.3339
29000SOL    HW292321  10.995  11.240   1.164 -1.1435  1.7072 -1.6309
29001SOL     OW92322   9.004   7.385   8.815  0.2607 -0.3298  0.1785
29001SOL    HW192323   8.991   7.323   8.887  0.7260  0.6866  1.1542
29001SOL    HW292324   8.942   7.456   8.833  0.5431  0.0404 -0.3038
29002SOL     OW92325   6.443   7.989   8.127  0.4680  0.1296  0.1896
29002SOL    HW192326   6.452   8.024   8.216 -3.9705 -0.4531  1.1120
29002SOL    HW292327   6.461   7.895   8.137 -1.5007 -0.2137  0.9155
29003SOL     OW92328   7.832   9.313   3.905 -0.0290 -0.4004  0.3320
29003SOL    HW192329   7.788   9.239   3.864 -1.3058  0.7791 -0.5414
29003SOL    HW292330   7.914   9.322   3.856 -0.8164  0.0181 -0.9667
29004SOL     OW92331   3.772  10.544   0.221  0.0755 -0.0172 -0.5289
29004SOL    HW192332   3.844  10.510   0.167  1.1970  1.8907 -0.3247
29004SOL    HW292333   3.813  10.612   0.274 -1.7531  0.5902  0.1579
29005SOL     OW92334   4.432   0.145   5.313 -0.6784 -0.0760  0.6901
29005SOL    HW192335   4.351   0.093   5.308 -0.2697 -0.6805  0.2536
29005SOL    HW292336   4.498   0.090   5.274 -0.4045  1.1501 -0.6432
29006SOL     OW92337   8.932  11.021   9.024 -0.0175  0.1894  0.1229
29006SOL    HW192338   8.920  11.085   9.094 -1.7834 -1.0857  1.0815
29006SOL    HW292339   8.944  10.938   9.070 -0.2246 -0.5221 -1.0753
29007SOL     OW92340   0.707   1.040   6.284 -0.1760 -0.7273  0.2008
29007SOL    HW192341   0.681   1.060   6.374 -0.5372 -1.5812  0.2907
29007SOL    HW292342   0.802   1.027   6.290  0.1445  1.2808  0.0690
29008SOL     OW92343   0.941   5.450   7.192 -0.2966  0.1814 -0.8610
29008SOL    HW192344   0.939   5.370   7.243 -0.9747 -0.4225 -1.7973
29008SOL    HW292345   0.849   5.477   7.185  0.0340  1.9647  0.8123
29009SOL     OW92346   8.994   8.627  11.326  0.2638 -0.2132  0.1606
29009SOL    HW192347   8.900   8.619  11.341  0.5209 -2.5545  0.9611
29009SOL    HW292348   9.003   8.638  11.232 -0.8321  0.8288  0.1639
29010SOL     OW92349   4.021   9.906   6.774 -0.3340 -0.1619 -0.4110
29010SOL    HW192350   4.044   9.940   6.860  0.0533 -2.4042  0.4263
29010SOL    HW292351   3.927   9.922   6.767 -1.0962 -2.8819  1.9255
29011SOL     OW92352   4.263   9.741   5.590  0.4164 -0.2321 -0.1187
29011SOL    HW192353   4.222   9.681   5.528  0.9531 -1.1149  0.3675
29011SOL    HW292354   4.323   9.793   5.536  2.3014 -2.2652 -0.1210
29012SOL     OW92355   1.002   0.220  10.049  0.9436  0.6559 -0.6695
29012SOL    HW192356   1.076   0.260  10.094  1.8357  0.7537 -2.1598
29012SOL    HW292357   0.954   0.294  10.011 -0.6268  0.6984  1.2135
29013SOL     OW92358   9.042   9.448   4.964  0.1476  0.3858  0.4723
29013SOL    HW192359   9.053   9.532   5.009  2.4513  1.2372 -1.4588
29013SOL    HW292360   9.131   9.414   4.954 -0.4019 -0.5878 -1.8504
29014SOL     OW92361   6.718  11.337  10.738  0.8453  0.2112  0.3326
29014SOL    HW192362   6.668  11.271  10.690  0.7398  0.8593 -0.4719
29014SOL    HW292363   6.795  11.291  10.769 -0.0488 -0.7170  1.2742
29015SOL     OW92364   6.336   3.644   9.900 -0.5339  0.0792  0.2534
29015SOL    HW192365   6.267   3.612   9.842  0.1292 -1.1668  0.1286
29015SOL    HW292366   6.404   3.578   9.896  0.1622  0.6962  1.3214
29016SOL     OW92367  10.577   5.954   1.575 -0.2850 -0.9905  0.0479
29016SOL    HW192368  10.571   5.874   1.628 -2.1611 -0.5548  0.5918
29016SOL    HW292369  10.515   5.939   1.504 -0.8638  0.0742  0.3084
29017SOL     OW92370   4.769   1.095   3.122  0.3026 -0.1200 -0.4100
29017SOL    HW192371   4.755   1.003   3.100 -0.2395 -0.1744  0.1372
29017SOL    HW292372   4.755   1.100   3.216 -1.1138  0.7793 -0.6448
29018SOL     OW92373   5.230   3.244   0.159  0.1664 -0.0548  0.0346
29018SOL    HW192374   5.265   3.312   0.217  0.5200 -1.1004  1.0803
29018SOL    HW292375   5.164   3.199   0.212  0.6335 -1.1608 -0.2827
29019SOL     OW92376   7.301   6.053  10.263  0.2707 -0.1135 -0.1573
29019SOL    HW192377   7.293   6.054  10.167 -0.0990 -1.9203 -0.1964
29019SOL    HW292378   7.211   6.039  10.294  0.4494  0.0226  0.4270
29020SOL     OW92379   5.494   8.692   7.705 -0.2978 -0.1156 -0.1858
29020SOL    HW192380   5.482   8.604   7.741  1.1419  0.2158  1.2154
29020SOL    HW292381   5.580   8.690   7.663 -0.2499  0.6074 -0.1478
29021SOL     OW92382   2.140   3.052   5.613 -0.6503 -0.0660 -0.1195
29021SOL    HW192383   2.175   3.037   5.525  0.3525  1.4660 -0.0098
29021SOL    HW292384   2.179   2.982   5.666 -1.2825 -1.0181 -0.8579
29022SOL     OW92385   8.664   9.591   9.168  0.6897  0.3870 -0.0768
29022SOL    HW192386   8.738   9.637   9.130  0.4748  0.3398 -0.5540
29022SOL    HW292387   8.613   9.559   9.093 -0.8155  1.9760  0.1980
29023SOL     OW92388   5.748   9.352   0.787  0.1216  0.4170  0.2652
29023SOL    HW192389   5.672   9.303   0.820  0.2427 -0.5723 -0.8225
29023SOL    HW292390   5.815   9.285   0.773  0.3359  0.8920 -1.1622
29024SOL     OW92391   6.764   6.715   1.331  0.1238 -0.0684  0.0156
29024SOL    HW192392   6.716   6.757   1.402 -1.4622  1.2170 -1.7096
29024SOL    HW292393   6.708   6.643   1.303  1.5692 -1.6968  1.1723
29025SOL     OW92394  11.074   8.660   0.043 -0.3105  0.7116 -0.0744
29025SOL    HW192395  11.009   8.642  -0.026  0.3231 -0.9559 -0.2790
29025SOL    HW292396  11.111   8.745   0.019  0.0589  0.0725 -1.9659
29026SOL     OW92397   5.284   6.196   4.047  0.0452  0.1995  0.0196
29026SOL    HW192398   5.376   6.200   4.021 -0.0755 -0.2322 -0.4821
29026SOL    HW292399   5.242   6.141   3.981 -0.1654 -1.3646  1.3648
29027SOL     OW92400  10.901   9.529   1.004 -0.1915 -0.3388 -0.1176
29027SOL    HW192401  10.845   9.464   0.961 -1.0354  0.0389  0.3827
29027SOL    HW292402  10.948   9.480   1.071 -0.7818 -0.4592  0.2189
29028SOL     OW92403   7.566   4.778   6.751 -0.2265  0.5773 -0.5144
29028SOL    HW192404   7.503   4.746   6.816  0.3168 -2.1353 -1.2230
29028SOL    HW292405   7.627   4.831   6.802 -1.2600  0.6250  0.7308
29029SOL     OW92406   2.031  10.146   8.786  0.0493  0.7428 -0.0429
29029SOL    HW192407   2.116  10.112   8.814  0.6193  2.4577  0.4214
29029SOL    HW292408   2.034  10.239   8.807 -0.6713  1.5483 -3.0113
29030SOL     OW92409   1.082   2.392   7.688 -0.5720 -0.1348  0.2361
29030SOL    HW192410   1.137   2.359   7.759  0.3645 -0.3062 -0.5497
29030SOL    HW292411   0.992   2.380   7.719 -0.1705  0.9213  1.8918
29031SOL     OW92412   1.618   6.056   8.828  0.2816 -0.7737  1.0700
29031SOL    HW192413   1.630   5.962   8.842 -1.6641 -0.9732  1.5813
29031SOL    HW292414   1.552   6.082   8.891 -1.6108  0.2832 -1.2063
29032SOL     OW92415   9.975  10.955   2.214 -0.0830 -0.3604  0.2847
29032SOL    HW192416   9.921  10.998   2.147  0.7463  0.0802 -0.1221
29032SOL    HW292417  10.001  11.026   2.273  2.2252 -0.0086 -1.0115
29033SOL     OW92418   0.363   0.618   7.959  0.2880 -0.1962 -0.2444
29033SOL    HW192419   0.426   0.644   8.026 -1.6464 -0.7752  1.9331
29033SOL    HW292420   0.278   0.639   7.997 -0.9305 -1.1179 -2.2943
29034SOL     OW92421   5.428   8.570   1.840  0.2960  0.1232 -0.6008
29034SOL    HW192422   5.515   8.564   1.801 -0.2801  1.5615 -2.2049
29034SOL    HW292423   5.444   8.580   1.934  1.9604  2.0819 -1.0390
29035SOL     OW92424   5.661   6.091   5.172  0.5450 -0.3214  0.2796
29035SOL    HW192425   5.708   6.132   5.244 -0.5362 -0.7329  1.2443
29035SOL    HW292426   5.701   6.127   5.093  2.0582 -0.2169  1.0718
29036SOL     OW92427   9.811   4.717   1.097 -0.0287 -0.3798 -0.0819
29036SOL    HW192428   9.716   4.708   1.088 -0.0423 -0.8765  0.5470
29036SOL    HW292429   9.835   4.656   1.166  0.9995 -1.6243 -1.4767
29037SOL     OW92430   0.826   7.241   4.395  0.2349 -0.1644 -0.4355
29037SOL    HW192431   0.867   7.315   4.440 -1.2628  0.4423  0.0185
29037SOL    HW292432   0.866   7.239   4.309  1.1242  0.4508 -0.0460
29038SOL     OW92433   7.779   6.183   0.400 -0.2078  0.1038  0.1017
29038SOL    HW192434   7.687   6.161   0.410  0.1653 -1.5737  0.2196
29038SOL    HW292435   7.788   6.214   0.310 -0.0100 -5.1686 -2.0463
29039SOL     OW92436   4.591   3.067   3.297 -0.2642  0.1237  0.0802
29039SOL    HW192437   4.546   3.005   3.354  0.0373 -0.1812 -0.0123
29039SOL    HW292438   4.528   3.087   3.229 -0.2945 -0.2326  0.0023
29040SOL     OW92439   1.358   9.096   0.372  0.0566 -0.1527 -0.6163
29040SOL    HW192440   1.400   9.062   0.293  0.2401  0.5800 -0.8369
29040SOL    HW292441   1.282   9.039   0.384  0.2512 -0.5199 -1.0931
29041SOL     OW92442   3.173  11.343   2.448  0.7538  0.1630  0.3185
29041SOL    HW192443   3.247  11.379   2.399  0.0653  0.6154 -0.4129
29041SOL    HW292444   3.210  11.315   2.531  1.4805  1.7369  0.5435
29042SOL     OW92445   0.824   4.524   4.468 -0.3939 -0.0687  0.4648
29042SOL    HW192446   0.744   4.564   4.435 -1.5680 -1.3739  1.5655
29042SOL    HW292447   0.892   4.587   4.449 -1.7713  1.3308 -0.0405
29043SOL     OW92448  11.335   3.401  11.468  0.0139  0.0304 -0.0143
29043SOL    HW192449  11.384   3.351  11.534  2.0629  0.9301 -0.7433
29043SOL    HW292450  11.345   3.492  11.495  1.5180  0.4943 -1.8383
29044SOL     OW92451   6.303   2.187   2.627  0.6259 -0.1687 -0.6443
29044SOL    HW192452   6.253   2.113   2.594  1.6361 -0.5505 -1.3594
29044SOL    HW292453   6.368   2.148   2.685  1.3344  0.1131 -1.2312
29045SOL     OW92454   0.514   2.854   6.802 -0.1645 -0.6007 -0.0447
29045SOL    HW192455   0.549   2.872   6.889  1.5831 -1.6563 -0.4691
29045SOL    HW292456   0.461   2.930   6.781  0.0065  0.0177  1.6289
29046SOL     OW92457   7.874   8.839   3.887  0.1084  0.1794 -0.2199
29046SOL    HW192458   7.955   8.844   3.836  0.8913  1.1492  1.0423
29046SOL    HW292459   7.901   8.864   3.976 -1.4166 -0.3698  0.4196
29047SOL     OW92460   6.498   8.595   4.760  0.3049  0.8257  0.2219
29047SOL    HW192461   6.579   8.594   4.709  1.4551 -0.3814  1.9382
29047SOL    HW292462   6.522   8.556   4.844 -1.4869  2.7088  1.7242
29048SOL     OW92463   4.954   4.730   6.926 -0.1754  0.8682  0.4785
29048SOL    HW192464   4.895   4.771   6.990  0.9572 -0.7561  2.6944
29048SOL    HW292465   5.033   4.710   6.976 -0.4883 -3.6032 -0.4207
29049SOL     OW92466   1.570   7.819   7.124  0.1553 -0.3467 -0.5340
29049SOL    HW192467   1.547   7.734   7.161  0.6950 -1.9634 -3.6399
29049SOL    HW292468   1.487   7.856   7.094  0.1805 -0.8075 -1.1781
29050SOL     OW92469   0.013  10.317   0.721  0.6426 -0.1645 -0.6375
29050SOL    HW192470   0.037  10.353   0.806  2.8398 -1.6317 -0.5605
29050SOL    HW292471   0.021  10.391   0.660 -0.8565  0.8721  0.3595
29051SOL     OW92472   0.887   9.448   3.444 -0.2458  0.2501  0.4478
29051SOL    HW192473   0.808   9.452   3.497 -0.9893 -3.8760 -0.0230
29051SOL    HW292474   0.856   9.456   3.354  0.0130 -0.1844  0.3143
29052SOL     OW92475   8.518   5.546   1.724  0.1695  0.1183  0.0413
29052SOL    HW192476   8.467   5.533   1.804  0.5714 -0.5138  0.2072
29052SOL    HW292477   8.590   5.602   1.750  0.1086  0.1987  0.0378
29053SOL     OW92478   1.457   2.992   7.788 -0.0159  0.3420  0.3022
29053SOL    HW192479   1.413   3.015   7.706  0.2143  0.1478  0.1268
29053SOL    HW292480   1.459   2.896   7.789  0.4208  0.3493  0.3031
29054SOL     OW92481   3.229   3.992   8.682 -0.0340 -0.4282  0.5504
29054SOL    HW192482   3.165   3.926   8.656  0.9975 -0.8874 -1.0216
29054SOL    HW292483   3.197   4.026   8.765 -1.3394 -1.9101  0.7021
29055SOL     OW92484   7.837   5.538   2.471 -0.4196  0.3563  0.4297
29055SOL    HW192485   7.756   5.509   2.513 -1.4931  1.6801 -0.5950
29055SOL    HW292486   7.906   5.516   2.532 -1.7407  0.6971  2.1198
29056SOL     OW92487  11.470  10.877   5.866  0.1727  0.3798  0.2089
29056SOL    HW192488  11.551  10.874   5.917  1.1736 -0.1630 -1.3670
29056SOL    HW292489  11.436  10.788   5.870 -0.2185  0.5429  0.6371
29057SOL     OW92490   0.798   2.883   9.609  0.2507  0.2519  0.3552
29057SOL    HW192491   0.712   2.925   9.601 -0.7087 -1.6832 -0.1049
29057SOL    HW292492   0.805   2.861   9.701  0.3764  0.6450  0.4414
29058SOL     OW92493   1.975   8.151   2.851 -0.3234 -0.5513 -0.1529
29058SOL    HW192494   1.969   8.106   2.766  0.0160 -0.9237  0.0167
29058SOL    HW292495   1.936   8.237   2.835 -0.8995 -0.8706 -0.5107
29059SOL     OW92496   4.365  10.732   5.459  0.2788  0.3515  0.4732
29059SOL    HW192497   4.346  10.819   5.424  1.1991  1.1474  1.8741
29059SOL    HW292498   4.318  10.729   5.542  2.9456  0.8843  2.1278
29060SOL     OW92499   2.762   2.066   7.013 -0.9873  0.1156  0.2466
29060SOL    HW192500   2.767   2.090   7.106  1.7875  2.7492 -0.4249
29060SOL    HW292501   2.831   2.000   7.002 -0.4367  0.7470 -0.1496
29061SOL     OW92502  10.686   5.755   8.674  0.6575 -0.3051 -0.4177
29061SOL    HW192503  10.655   5.665   8.660  2.0967 -0.7967 -0.6592
29061SOL    HW292504  10.713   5.757   8.766  0.5884 -0.1099 -0.4016
29062SOL     OW92505   0.540   3.350   0.173  0.1811 -0.0637  0.0864
29062SOL    HW192506   0.582   3.428   0.136 -2.0183  1.2919  0.2542
29062SOL    HW292507   0.505   3.303   0.098 -1.0771  0.7294  0.1524
29063SOL     OW92508   3.602   2.559   9.607  0.1633 -0.4536  0.2046
29063SOL    HW192509   3.512   2.582   9.628  0.4877 -0.2199  1.4431
29063SOL    HW292510   3.634   2.513   9.685  0.8209 -1.3799 -0.5983
29064SOL     OW92511   5.775  11.319   5.875 -0.0345 -0.1479  0.4554
29064SOL    HW192512   5.771  11.229   5.908 -0.1973  0.1932  1.3966
29064SOL    HW292513   5.746  11.312   5.784  2.0758 -1.3682 -0.1878
29065SOL     OW92514   2.621   6.200   6.399 -0.2891 -0.1203  0.3994
29065SOL    HW192515   2.698   6.159   6.358 -0.2543  1.3986 -1.2076
29065SOL    HW292516   2.548   6.172   6.344 -0.5437  0.3661  0.4920
29066SOL     OW92517  10.651   2.979   4.846 -0.4723 -0.1451  0.0033
29066SOL    HW192518  10.680   2.977   4.938 -0.0088 -1.6546 -0.1533
29066SOL    HW292519  10.566   2.935   4.846  0.2705 -1.6609 -0.4976
29067SOL     OW92520   1.158   7.468   2.163  0.1351  0.3978 -0.3886
29067SOL    HW192521   1.243   7.449   2.204 -1.3094  0.7718  3.1129
29067SOL    HW292522   1.163   7.425   2.077  2.9152 -1.7928  0.6985
29068SOL     OW92523   3.112  11.539   7.606 -0.1600 -0.0170  0.5921
29068SOL    HW192524   3.185  11.490   7.644 -0.6460  0.1802  1.8254
29068SOL    HW292525   3.124  11.628   7.638  0.6812  0.7081 -1.5770
29069SOL     OW92526   9.791   4.215   3.295 -0.5527  0.2274 -0.1984
29069SOL    HW192527   9.838   4.215   3.211  0.3889 -1.0597  0.2972
29069SOL    HW292528   9.770   4.307   3.310  1.3627  0.8087 -0.7237
29070SOL     OW92529   4.048   5.646   0.541  0.4580 -0.3364  0.3047
29070SOL    HW192530   4.004   5.702   0.477  0.9394  0.7438  0.8842
29070SOL    HW292531   4.022   5.557   0.518  0.9073 -0.0023 -1.5858
29071SOL     OW92532   1.147   1.521   8.040 -0.2881  0.3168 -0.6809
29071SOL    HW192533   1.066   1.566   8.063  0.0355  0.5478  0.0284
29071SOL    HW292534   1.158   1.537   7.946 -0.4064  1.3529 -0.5300
29072SOL     OW92535   5.580   9.577   2.347  0.3111  0.1263 -0.1055
29072SOL    HW192536   5.604   9.608   2.259  0.6473 -0.0243 -0.0701
29072SOL    HW292537   5.485   9.571   2.345  0.3668 -0.8765 -0.8002
29073SOL     OW92538   0.470   2.403   3.448  0.4640 -0.0324  0.0953
29073SOL    HW192539   0.429   2.410   3.534  0.1770  0.5516 -0.0897
29073SOL    HW292540   0.497   2.311   3.442  0.8575  0.0195  0.9760
29074SOL     OW92541   9.503   0.105   6.355  0.0524  0.4080  0.0117
29074SOL    HW192542   9.547   0.172   6.302  2.5615  0.3546  1.8732
29074SOL    HW292543   9.560   0.028   6.350 -0.1288  0.0939  1.9558
29075SOL     OW92544   4.102   0.180   5.987  0.2504 -0.2257  0.0448
29075SOL    HW192545   4.026   0.214   6.034  0.6034  0.4191  0.1589
29075SOL    HW292546   4.144   0.121   6.050  0.4184  0.2153  0.3520
29076SOL     OW92547   9.033   3.179   1.575  0.2732 -0.3416  0.3821
29076SOL    HW192548   8.995   3.207   1.658  0.3432  0.2695  0.2130
29076SOL    HW292549   8.990   3.233   1.509  1.3065  0.2536  0.1689
29077SOL     OW92550   4.857   0.034   1.885  0.0630 -0.4229 -0.5279
29077SOL    HW192551   4.887  -0.004   1.802 -0.0741  0.3531 -0.9421
29077SOL    HW292552   4.922   0.101   1.905  0.6906 -1.3180  0.5584
29078SOL     OW92553   2.611   8.473   0.025  0.1933  0.3811 -0.4234
29078SOL    HW192554   2.577   8.417   0.095 -0.3518  4.6526  3.1668
29078SOL    HW292555   2.705   8.476   0.040 -0.1305  2.9640  1.7729
29079SOL     OW92556   4.996   1.622   0.756  0.1222 -0.3016  0.2403
29079SOL    HW192557   5.056   1.547   0.743  1.6690  0.7997  0.6998
29079SOL    HW292558   5.031   1.690   0.699  0.5854  1.0620  2.0834
29080SOL     OW92559   0.851   9.506  10.299  0.1280  0.5791 -0.0242
29080SOL    HW192560   0.812   9.422  10.324 -0.7650  0.0507 -2.8436
29080SOL    HW292561   0.783   9.549  10.247  0.9845  2.5883  0.4427
29081SOL     OW92562   7.250   1.339   5.655  0.4409 -0.1239  0.1479
29081SOL    HW192563   7.289   1.254   5.676 -2.3352 -1.3631  0.7879
29081SOL    HW292564   7.290   1.400   5.717 -0.9112 -1.9687  3.0905
29082SOL     OW92565   2.655  11.466  11.668  0.0038 -1.0994 -0.9047
29082SOL    HW192566   2.595  11.405  11.627  1.1073 -2.4175 -0.6164
29082SOL    HW292567   2.726  11.412  11.701 -0.2598  0.0153  1.7562
29083SOL     OW92568   5.816   5.812   8.629  0.1805  0.2487  0.4568
29083SOL    HW192569   5.756   5.815   8.555  1.4052  1.2348 -0.5372
29083SOL    HW292570   5.852   5.724   8.627  0.8607  0.5352 -0.6872
29084SOL     OW92571   6.290   5.885   8.269  1.1365 -0.2058 -0.1233
29084SOL    HW192572   6.225   5.850   8.330  2.1639 -0.5253  0.7941
29084SOL    HW292573   6.274   5.980   8.270  0.0902 -0.3580 -0.6121
29085SOL     OW92574   4.888   2.641   3.904 -0.7257  0.3854 -0.4477
29085SOL    HW192575   4.874   2.587   3.827  0.4236  0.1383 -0.4956
29085SOL    HW292576   4.947   2.590   3.959 -1.6426  0.4895  0.6812
29086SOL     OW92577   2.494   1.908   7.845  0.1153 -0.1105 -0.2164
29086SOL    HW192578   2.460   1.849   7.778  0.5089 -2.4397  1.5253
29086SOL    HW292579   2.416   1.942   7.889 -0.0989 -0.2543 -0.4862
29087SOL     OW92580   6.916   2.044   7.276  0.0632 -0.1533  0.1270
29087SOL    HW192581   6.949   2.108   7.213  0.3879 -0.5845 -0.1539
29087SOL    HW292582   6.838   2.008   7.234  0.5098 -0.7324 -0.2196
29088SOL     OW92583   4.215  11.086   4.006  0.3726  0.4520  0.5835
29088SOL    HW192584   4.290  11.141   3.984  0.3272 -0.3869 -2.0658
29088SOL    HW292585   4.253  10.999   4.023  0.0319 -0.0768 -1.1841
29089SOL     OW92586   6.702   2.549   6.577  1.0747  0.0767  0.4502
29089SOL    HW192587   6.667   2.466   6.544  2.3039  0.0384 -0.8259
29089SOL    HW292588   6.697   2.540   6.672 -0.4501 -0.7299  0.3262
29090SOL     OW92589   9.502   7.879   6.261  0.0110  0.1279  0.0987
29090SOL    HW192590   9.597   7.886   6.256  0.0299  0.1926  0.5093
29090SOL    HW292591   9.478   7.935   6.335 -0.2922 -0.3475  0.3640
29091SOL     OW92592  10.616   6.599   6.811  0.2899  0.6394 -0.4230
29091SOL    HW192593  10.637   6.518   6.765 -1.4543  0.7819 -1.5972
29091SOL    HW292594  10.573   6.653   6.744  1.3573  2.5248  0.3393
29092SOL     OW92595  11.085   2.004   3.224 -0.0375  0.2236 -0.1510
29092SOL    HW192596  11.038   2.011   3.307 -3.0940  2.6561 -1.8495
29092SOL    HW292597  11.018   1.975   3.162  0.8793  2.7543 -2.5197
29093SOL     OW92598   1.197   5.420   8.567 -0.4311  0.2416  0.1634
29093SOL    HW192599   1.249   5.396   8.644 -0.1725  1.6192  0.4470
29093SOL    HW292600   1.192   5.516   8.571 -2.2828  0.2067 -0.3114
29094SOL     OW92601   8.112   2.832   7.042 -0.0027  0.4265  0.0364
29094SOL    HW192602   8.071   2.831   6.956 -0.0088  0.8161  0.0311
29094SOL    HW292603   8.196   2.876   7.027  1.3152 -2.0459 -0.3468
29095SOL     OW92604   5.824  10.428   8.720 -0.3089  0.2047 -0.1490
29095SOL    HW192605   5.871  10.363   8.669  1.0337  1.0945 -0.0942
29095SOL    HW292606   5.791  10.491   8.655 -3.5015 -1.5678 -0.4514
29096SOL     OW92607  10.402   7.082  11.021  0.2802 -0.2538  0.2333
29096SOL    HW192608  10.321   7.106  10.978  1.5220  3.8390 -0.2135
29096SOL    HW292609  10.460   7.053  10.951  0.1348 -0.3651  0.1593
29097SOL     OW92610   7.442   5.956   2.478  0.0872  0.1027 -0.1859
29097SOL    HW192611   7.468   5.877   2.431 -0.9493 -0.9351  0.9053
29097SOL    HW292612   7.398   5.924   2.557  1.2961  1.7658  1.2504
29098SOL     OW92613   8.302   7.607   7.742 -0.5197  0.0954 -0.6523
29098SOL    HW192614   8.246   7.631   7.816  2.0844  0.1202  1.4726
29098SOL    HW292615   8.291   7.512   7.733  0.0487 -0.1223  0.6588
29099SOL     OW92616   8.586   3.408  11.648 -0.1538  0.4605 -0.2207
29099SOL    HW192617   8.636   3.364  11.579  1.4513  2.6833 -0.6055
29099SOL    HW292618   8.505   3.435  11.606  0.4180  0.9950 -1.0102
29100SOL     OW92619   9.844   4.814   2.057 -0.2752  0.0935 -0.4729
29100SOL    HW192620   9.791   4.739   2.083  0.3901 -0.2654 -0.1472
29100SOL    HW292621   9.904   4.780   1.991  0.2954  0.2407 -0.0403
29101SOL     OW92622   7.285   5.661   6.658 -0.1047  0.0242 -0.3421
29101SOL    HW192623   7.317   5.699   6.740 -0.0116 -0.9181  0.0727
29101SOL    HW292624   7.314   5.721   6.590  0.2128  0.5789  0.2797
29102SOL     OW92625   8.528  11.209   0.815 -0.5134 -0.5668  0.0812
29102SOL    HW192626   8.465  11.155   0.862 -2.0920  0.6783 -0.4861
29102SOL    HW292627   8.513  11.189   0.723  0.5647 -0.9043 -0.0363
29103SOL     OW92628   1.595   4.616   4.455 -0.2073 -0.0128  0.2405
29103SOL    HW192629   1.566   4.553   4.522 -1.5708 -1.6369 -1.7678
29103SOL    HW292630   1.546   4.696   4.475 -2.0426 -1.0542  0.1358
29104SOL     OW92631   7.119   4.689   5.733  0.0897 -0.2108 -0.0129
29104SOL    HW192632   7.044   4.744   5.711  1.0266  0.8988 -0.5192
29104SOL    HW292633   7.169   4.740   5.797  0.4506 -0.9255  0.2983
29105SOL     OW92634   7.017  10.290   8.167  0.3286  0.6960 -0.4596
29105SOL    HW192635   7.003  10.339   8.247  0.4980 -0.1285  0.0896
29105SOL    HW292636   7.011  10.355   8.097  1.3468  1.6293  0.2914
29106SOL     OW92637   4.693   8.192   6.707 -0.1397 -0.0400  0.0378
29106SOL    HW192638   4.766   8.225   6.759  1.7101 -2.3864 -0.9277
29106SOL    HW292639   4.621   8.183   6.770  1.2147 -0.2990  1.6123
29107SOL     OW92640   6.105   2.898   6.110  0.4708 -0.6795 -0.2698
29107SOL    HW192641   6.188   2.946   6.110 -0.2845  0.6793 -0.1348
29107SOL    HW292642   6.058   2.931   6.033 -1.7021  1.8242  1.9305
29108SOL     OW92643   6.292   4.403   4.672  0.0255  0.6533  0.1717
29108SOL    HW192644   6.214   4.434   4.718  0.9472  0.4048  1.9900
29108SOL    HW292645   6.365   4.444   4.719  1.0233  0.7031 -1.3422
29109SOL     OW92646  10.491   2.201   7.419  0.1648  0.6398 -0.1615
29109SOL    HW192647  10.565   2.144   7.438 -0.2731 -0.2874 -1.1217
29109SOL    HW292648  10.448   2.214   7.503  0.8128  0.3350  0.2259
29110SOL     OW92649   4.229   6.526   3.025 -0.7012 -0.0051 -0.6813
29110SOL    HW192650   4.138   6.507   3.049 -0.5457  1.6702  1.5437
29110SOL    HW292651   4.234   6.621   3.022  1.3674  0.0094  1.0424
29111SOL     OW92652   6.367   8.734   2.700 -0.2707 -0.6565 -0.0097
29111SOL    HW192653   6.350   8.752   2.608  1.5118 -1.5741 -0.5792
29111SOL    HW292654   6.323   8.651   2.718 -1.5499  0.0639  0.3095
29112SOL     OW92655   9.662   3.789   0.593 -0.1036  0.4526  0.1040
29112SOL    HW192656   9.663   3.856   0.661 -1.1701  2.0162 -1.3263
29112SOL    HW292657   9.749   3.793   0.553 -0.7535  2.4895 -1.2765
29113SOL     OW92658   6.917   3.057   9.922  0.7554  0.7258 -0.2516
29113SOL    HW192659   6.866   3.074  10.001  1.6849 -1.4731  0.8945
29113SOL    HW292660   7.002   3.097   9.939  0.9691  0.2160 -0.0980
29114SOL     OW92661   4.819  10.139   2.888 -0.0530 -0.0573  0.4449
29114SOL    HW192662   4.741  10.158   2.941  0.3086  1.2655  0.5295
29114SOL    HW292663   4.856  10.060   2.928 -0.7930 -0.1280  1.0260
29115SOL     OW92664  10.073   3.417   6.001  0.8706 -0.0540  0.2151
29115SOL    HW192665  10.166   3.423   6.025  1.1880  1.9079 -1.2416
29115SOL    HW292666  10.069   3.457   5.914 -1.2833 -0.5365  0.0568
29116SOL     OW92667   1.780   7.922  11.543 -0.1372  0.3053 -0.4123
29116SOL    HW192668   1.732   7.998  11.511 -0.6820  0.1043 -0.0750
29116SOL    HW292669   1.714   7.854  11.555  0.0408  0.3616  1.1035
29117SOL     OW92670   8.402   4.200   3.095 -0.7697  0.0331 -0.2087
29117SOL    HW192671   8.383   4.285   3.135  0.2758  0.5446 -0.7699
29117SOL    HW292672   8.465   4.159   3.154  0.4293  0.6013 -1.0388
29118SOL     OW92673   0.105   0.489   1.643 -0.4638  0.4608  0.1889
29118SOL    HW192674   0.173   0.425   1.622 -0.1790  0.0501  2.1496
29118SOL    HW292675   0.110   0.554   1.574  0.2468 -0.8596 -1.0446
29119SOL     OW92676   4.892   7.887   7.228 -0.4774 -0.7290  0.4586
29119SOL    HW192677   4.941   7.846   7.157  0.1886 -1.0514  1.0937
29119SOL    HW292678   4.959   7.927   7.283 -1.1204  2.7606 -1.0003
29120SOL     OW92679   1.489   8.787   4.693  0.4393 -0.4401 -0.3715
29120SOL    HW192680   1.476   8.754   4.604  1.4343 -0.3952 -0.5395
29120SOL    HW292681   1.481   8.710   4.748 -0.3205 -0.4476 -0.4802
29121SOL     OW92682   2.355   4.936  10.400  0.2560  0.2941 -0.1732
29121SOL    HW192683   2.427   4.977  10.352  0.6555 -0.9714 -0.7163
29121SOL    HW292684   2.356   4.845  10.370 -1.0716  0.0676  0.4148
29122SOL     OW92685   8.971   3.961   9.895  0.4584  0.0974 -0.6199
29122SOL    HW192686   8.892   3.933   9.941  0.7105  1.4387  0.6872
29122SOL    HW292687   8.966   4.056   9.894  0.9792  0.1486 -2.5268
29123SOL     OW92688  10.472   6.356  11.168 -0.0025 -0.1406  0.4153
29123SOL    HW192689  10.555   6.358  11.120  0.6599  0.6276  1.5279
29123SOL    HW292690  10.406   6.337  11.102  0.6581  2.5075 -1.1444
29124SOL     OW92691   7.685   5.981   6.317  0.6790 -0.0692  0.6967
29124SOL    HW192692   7.665   5.893   6.286  1.4907  0.4832 -1.5663
29124SOL    HW292693   7.699   5.970   6.411 -1.5261 -1.9184  0.9202
29125SOL     OW92694   4.264   2.086   5.480 -0.0654 -0.0210  0.1565
29125SOL    HW192695   4.339   2.030   5.463  0.3934  0.3637  0.8804
29125SOL    HW292696   4.301   2.172   5.498 -0.7301  0.3855 -0.3581
29126SOL     OW92697   8.476   6.261   8.686 -0.3389  0.1319 -0.4334
29126SOL    HW192698   8.488   6.355   8.694  2.3982 -0.1244 -0.8420
29126SOL    HW292699   8.456   6.247   8.593  1.6286  0.1430 -0.8888
29127SOL     OW92700   8.040  10.351   0.402  0.3092  0.0318 -0.1413
29127SOL    HW192701   8.106  10.418   0.386  0.8093  0.0055  1.5434
29127SOL    HW292702   7.978  10.360   0.330 -0.3195  3.1662  0.6222
29128SOL     OW92703   3.551   7.949   9.777  0.0868 -0.6325  1.0080
29128SOL    HW192704   3.631   7.999   9.795 -1.3491  1.0246  3.5470
29128SOL    HW292705   3.566   7.865   9.820  0.8608 -0.7549  0.5244
29129SOL     OW92706   5.484   7.293  10.197 -0.2776 -0.3639  0.7842
29129SOL    HW192707   5.479   7.346  10.277 -0.7059 -0.3077  0.7214
29129SOL    HW292708   5.428   7.338  10.135  1.0242  0.2920  0.0319
29130SOL     OW92709   2.576   4.232  10.940 -0.0617 -0.1407  0.3031
29130SOL    HW192710   2.640   4.255  11.008  0.4484 -0.3972 -0.0914
29130SOL    HW292711   2.552   4.317  10.901  2.0677 -0.2208 -1.3716
29131SOL     OW92712   8.543   6.505   6.376  0.1174 -0.0354  0.4013
29131SOL    HW192713   8.463   6.543   6.338 -0.0467 -1.1043 -0.3600
29131SOL    HW292714   8.591   6.581   6.410  0.0869  0.9595 -1.6295
29132SOL     OW92715   0.573   1.483   3.251 -0.6746 -0.0826  0.0104
29132SOL    HW192716   0.534   1.461   3.336 -0.9013  1.0756  0.2161
29132SOL    HW292717   0.515   1.549   3.214  1.0451  1.7398  0.3421
29133SOL     OW92718   5.905   8.443   8.700  0.3341  0.2172  0.3603
29133SOL    HW192719   5.968   8.446   8.627  0.5389  1.8378  0.5701
29133SOL    HW292720   5.936   8.371   8.755 -0.4846 -1.8132 -1.7070
29134SOL     OW92721   5.238   8.087   4.355  0.5346  0.0909 -0.4187
29134SOL    HW192722   5.159   8.033   4.354 -0.2698  1.2217  0.0200
29134SOL    HW292723   5.239   8.129   4.269  1.3398 -0.8505 -0.8851
29135SOL     OW92724   2.924   5.534   9.056  0.2854  0.6142  0.2869
29135SOL    HW192725   2.928   5.629   9.058  0.2306  0.6398 -0.3522
29135SOL    HW292726   3.016   5.507   9.049  0.4468  0.5384  2.1783
29136SOL     OW92727   0.291   1.919   9.259 -0.2916 -0.1852 -0.3367
29136SOL    HW192728   0.243   1.866   9.196  1.0312 -2.9880  0.8163
29136SOL    HW292729   0.252   1.897   9.344  0.9110 -0.0770  0.2654
29137SOL     OW92730   8.150   6.756   6.689  0.6678  0.1629  0.1482
29137SOL    HW192731   8.085   6.747   6.759  0.5217  1.0006  0.1250
29137SOL    HW292732   8.104   6.799   6.618  0.2881 -2.3391 -1.2213
29138SOL     OW92733   3.295   6.756   7.204  0.5738 -0.6538  0.0026
29138SOL    HW192734   3.321   6.804   7.283  1.1656 -0.8486 -0.0682
29138SOL    HW292735   3.257   6.675   7.237  0.6273 -0.6417  0.0942
29139SOL     OW92736   9.551   8.622   3.424  0.1623 -0.4762  0.0767
29139SOL    HW192737   9.560   8.574   3.341  1.3504  0.5398 -0.4349
29139SOL    HW292738   9.642   8.644   3.448  0.0163 -2.2160  2.5783
29140SOL     OW92739   7.187   1.177  11.659 -0.2912 -0.2198  0.0271
29140SOL    HW192740   7.127   1.113  11.697 -0.6198 -0.7953 -1.4059
29140SOL    HW292741   7.251   1.125  11.611 -0.1768  0.4919 -0.6091
29141SOL     OW92742   9.188   0.721   1.969  0.5499  0.0306  0.1922
29141SOL    HW192743   9.183   0.749   1.877  0.1975  1.5016  0.6334
29141SOL    HW292744   9.233   0.636   1.966  0.1242 -0.1695 -1.3759
29142SOL     OW92745   2.434   7.984   2.064 -0.6957  0.3402  0.5050
29142SOL    HW192746   2.493   8.041   2.111  1.3665 -0.9040 -0.4301
29142SOL    HW292747   2.427   8.024   1.977 -0.9950  0.3167  0.5172
29143SOL     OW92748   2.313   0.558   7.609  0.2766  0.2248  0.1153
29143SOL    HW192749   2.378   0.489   7.618  1.3976  1.0767 -1.1319
29143SOL    HW292750   2.294   0.585   7.699  0.7807 -0.8144  0.5416
29144SOL     OW92751   0.703   3.623   0.567 -0.3005  0.0617 -0.7431
29144SOL    HW192752   0.703   3.553   0.502  0.9213 -0.3181 -0.3618
29144SOL    HW292753   0.678   3.580   0.648  0.4410  0.0543 -0.5102
29145SOL     OW92754   7.550   8.649   4.207  0.3583 -0.1122 -0.0599
29145SOL    HW192755   7.641   8.660   4.235  0.4584  3.4928 -1.2315
29145SOL    HW292756   7.554   8.652   4.112 -1.0168  0.9772 -0.1152
29146SOL     OW92757  11.372   9.438   5.714 -0.6907  0.0856  0.3735
29146SOL    HW192758  11.284   9.435   5.750 -0.7816 -1.2123  0.0683
29146SOL    HW292759  11.389   9.532   5.702 -1.6991  0.3940  1.2000
29147SOL     OW92760   8.571   3.443  11.195  0.4076 -0.3299 -0.2345
29147SOL    HW192761   8.663   3.470  11.198  0.3064  0.0156  1.8862
29147SOL    HW292762   8.523   3.522  11.220 -0.4434 -0.5937 -1.0235
29148SOL     OW92763   2.068   7.620   7.932  0.0992  0.6985 -0.3494
29148SOL    HW192764   2.075   7.709   7.896 -0.3531  0.5897 -0.7090
29148SOL    HW292765   2.159   7.593   7.946  0.3124  0.5469 -1.8946
29149SOL     OW92766   6.962   7.428  11.786 -0.3062 -0.7668 -0.1211
29149SOL    HW192767   6.904   7.435  11.710 -0.4877  0.1390  0.0831
29149SOL    HW292768   6.905   7.405  11.858 -0.0933 -1.8988 -0.2960
29150SOL     OW92769  10.326   4.237  10.407 -0.1272 -0.2099 -1.0230
29150SOL    HW192770  10.390   4.221  10.338  1.4367 -1.5146  0.6149
29150SOL    HW292771  10.363   4.309  10.458 -1.1744  0.6251 -1.3987
29151SOL     OW92772   6.885   7.178   0.929 -0.2274  0.1023 -0.2572
29151SOL    HW192773   6.791   7.184   0.907 -0.0404  1.2120 -0.8499
29151SOL    HW292774   6.929   7.179   0.844  0.4063  1.8308  0.0464
29152SOL     OW92775   9.546   9.311  11.652 -0.1753  0.2530 -0.1248
29152SOL    HW192776   9.632   9.336  11.618  0.4474  0.1419  1.3130
29152SOL    HW292777   9.548   9.334  11.745 -1.5508 -0.1380  0.0312
29153SOL     OW92778   6.277   8.565   9.162 -0.1403  0.0490 -0.7991
29153SOL    HW192779   6.356   8.514   9.143  0.8549  0.7845  1.1104
29153SOL    HW292780   6.218   8.503   9.205  0.3488  0.0506 -0.1099
29154SOL     OW92781   4.719   6.813   4.319  0.4788 -0.6465 -0.1265
29154SOL    HW192782   4.692   6.853   4.237 -2.3895  1.5460  1.7016
29154SOL    HW292783   4.808   6.847   4.334  0.8472 -0.6867 -1.9853
29155SOL     OW92784  11.230   2.816   5.164  0.5995 -0.3909  0.3717
29155SOL    HW192785  11.263   2.904   5.181  0.9420 -0.2164 -1.1189
29155SOL    HW292786  11.307   2.760   5.171  0.7425 -0.3185 -0.5307
29156SOL     OW92787   9.686   4.849  10.884  0.5787 -0.0236 -0.0657
29156SOL    HW192788   9.744   4.775  10.866  0.9515  0.3320 -0.3400
29156SOL    HW292789   9.696   4.906  10.808 -0.2874 -0.0508 -0.2139
29157SOL     OW92790   0.531   6.224   1.022 -0.1900 -0.3744 -0.4734
29157SOL    HW192791   0.479   6.230   0.942 -1.3504 -1.8203  0.1183
29157SOL    HW292792   0.564   6.313   1.036 -2.8945  0.7644 -0.6484
29158SOL     OW92793   6.090  10.555  11.129 -0.4669 -0.4177 -0.2310
29158SOL    HW192794   6.078  10.594  11.216  1.3707 -0.8647  0.2631
29158SOL    HW292795   6.052  10.468  11.137 -2.2448  0.2652 -0.5709
29159SOL     OW92796   9.957   4.041  11.134  0.2780 -0.5630  0.0955
29159SOL    HW192797   9.996   4.128  11.138  0.6816 -0.7618  0.5458
29159SOL    HW292798   9.875   4.054  11.087 -0.9259  0.5271  2.3297
29160SOL     OW92799   3.915   2.534   3.352 -0.0342 -0.2255 -0.1375
29160SOL    HW192800   3.934   2.524   3.445 -2.1579 -1.6841  0.2136
29160SOL    HW292801   3.987   2.586   3.318  1.5553 -0.8666  2.0371
29161SOL     OW92802  11.183   1.334   6.961 -0.4523  0.3566 -0.1132
29161SOL    HW192803  11.244   1.395   7.003 -0.4518  0.7177 -0.6312
29161SOL    HW292804  11.098   1.377   6.967 -0.5729  0.0904  0.1367
29162SOL     OW92805   8.319   0.961   3.438  0.2720 -0.1918  0.1678
29162SOL    HW192806   8.304   0.899   3.510  0.8871  1.7173  2.0390
29162SOL    HW292807   8.309   1.047   3.478  0.0246  0.9673 -2.2110
29163SOL     OW92808   2.476  11.171   4.256  0.1175  0.1266  0.6123
29163SOL    HW192809   2.412  11.168   4.327 -1.0107  1.1368 -0.3266
29163SOL    HW292810   2.430  11.135   4.180  0.2779  1.7957 -0.3345
29164SOL     OW92811   0.849   1.015   0.616  0.1312  0.6712 -0.6611
29164SOL    HW192812   0.800   1.086   0.574 -0.4107  0.7171  0.0173
29164SOL    HW292813   0.937   1.022   0.581 -0.1224  1.1809 -1.2042
29165SOL     OW92814   7.299   2.467   7.323 -0.0802 -0.3525 -0.3534
29165SOL    HW192815   7.271   2.558   7.329 -0.2382 -0.3520 -1.0009
29165SOL    HW292816   7.270   2.426   7.405  0.6545  0.3526  0.2778
29166SOL     OW92817   1.016   0.840   0.354 -0.5716 -0.0661 -0.0025
29166SOL    HW192818   0.928   0.815   0.382 -0.6665  1.6380  1.3793
29166SOL    HW292819   1.071   0.826   0.430 -0.0013  0.5865 -0.2751
29167SOL     OW92820   8.459   2.329  10.167  0.4971  0.1786 -0.3003
29167SOL    HW192821   8.387   2.385  10.197  1.0218  0.2646  0.8506
29167SOL    HW292822   8.416   2.259  10.118 -0.3651  0.3092  0.2387
29168SOL     OW92823   5.431   6.780   1.352  0.0264 -0.2423 -0.0673
29168SOL    HW192824   5.407   6.698   1.396 -1.0921 -0.4222 -0.9530
29168SOL    HW292825   5.471   6.752   1.270  1.5151  0.0994  0.4972
29169SOL     OW92826   4.212   5.538  11.036  0.4195 -0.1076 -0.5171
29169SOL    HW192827   4.302   5.571  11.031  0.1708  0.5681 -0.7369
29169SOL    HW292828   4.159   5.616  11.053  0.0248 -0.7191  1.2477
29170SOL     OW92829   9.329  10.147   7.656 -0.4368 -0.0407  0.8505
29170SOL    HW192830   9.281  10.224   7.686  0.9486 -0.1489  3.7573
29170SOL    HW292831   9.405  10.182   7.610 -0.4855  0.2850  1.0197
29171SOL     OW92832   2.961   5.078   4.142 -0.2195  0.0948  0.4051
29171SOL    HW192833   2.939   4.987   4.120 -0.5958  0.4540 -0.7871
29171SOL    HW292834   3.024   5.071   4.213 -0.7016 -1.0865  0.7327
29172SOL     OW92835   8.018   6.180   9.345 -0.1405 -0.2444 -1.0020
29172SOL    HW192836   8.060   6.181   9.259 -0.3324 -2.1297 -1.1380
29172SOL    HW292837   8.076   6.234   9.399  0.8410 -0.3485 -1.9124
29173SOL     OW92838   6.538  11.146  10.913 -0.3996 -0.0315  0.1491
29173SOL    HW192839   6.548  11.234  10.878 -3.3294  0.5144  0.4396
29173SOL    HW292840   6.526  11.158  11.007  1.2816 -0.9726  0.5315
29174SOL     OW92841  11.687   9.208   5.688 -0.0030 -0.3274 -0.0799
29174SOL    HW192842  11.608   9.154   5.679  0.1678 -0.6966  0.5840
29174SOL    HW292843  11.656   9.292   5.722 -0.0854 -0.5389  0.3653
29175SOL     OW92844   0.246   1.321   2.497  0.1547 -0.2880  0.4375
29175SOL    HW192845   0.152   1.316   2.478  0.3152 -1.0671 -0.1926
29175SOL    HW292846   0.259   1.259   2.569  0.2953 -0.6841  0.0729
29176SOL     OW92847   4.361   5.323   9.558  0.4478 -0.3834 -0.0824
29176SOL    HW192848   4.372   5.398   9.616 -0.5592 -0.9390  0.8692
29176SOL    HW292849   4.416   5.343   9.482  1.8833  0.2957  1.1043
29177SOL     OW92850  10.448   4.737   7.544  0.4178  0.3001 -0.0788
29177SOL    HW192851  10.412   4.825   7.529  1.0398  0.5730 -0.0249
29177SOL    HW292852  10.372   4.683   7.567 -0.3979  0.1922 -2.7174
29178SOL     OW92853   5.579   4.321   8.570  0.0668  0.3938 -0.2276
29178SOL    HW192854   5.600   4.259   8.499  2.7868  0.9466  0.0034
29178SOL    HW292855   5.648   4.308   8.634 -1.3949  1.1273  1.5806
29179SOL     OW92856   2.784   1.213   5.920 -0.1954  0.0577  0.1698
29179SOL    HW192857   2.780   1.308   5.906 -2.7715 -0.0538 -0.4682
29179SOL    HW292858   2.791   1.203   6.015 -0.3618  0.9118  0.2824
29180SOL     OW92859   0.705   0.935   1.235 -0.2420  0.6561  0.3077
29180SOL    HW192860   0.740   0.998   1.171 -0.5565  1.1197  0.5920
29180SOL    HW292861   0.649   0.987   1.292  0.3447  0.3188  1.2076
29181SOL     OW92862   9.541   7.827   6.846  0.3263  0.8157 -0.3940
29181SOL    HW192863   9.588   7.837   6.929 -0.3650  0.7304  0.0206
29181SOL    HW292864   9.449   7.835   6.870  0.0558 -0.2823 -0.9922
29182SOL     OW92865   6.682   0.940   4.170  0.0431 -0.1337  0.0782
29182SOL    HW192866   6.595   0.974   4.151 -1.0487 -2.7226 -0.0971
29182SOL    HW292867   6.677   0.847   4.147  2.3627 -0.7381  1.5941
29183SOL     OW92868   4.934   2.132   4.854 -0.7924 -0.1275  0.1877
29183SOL    HW192869   4.934   2.127   4.759 -1.3395  1.6713  0.0586
29183SOL    HW292870   5.025   2.118   4.879 -0.6987 -0.9135 -0.5727
29184SOL     OW92871   9.907   6.823   4.399  0.3588  0.3678 -0.0564
29184SOL    HW192872   9.847   6.890   4.432 -0.5431  0.6849 -2.1321
29184SOL    HW292873   9.891   6.747   4.454  0.0335  1.2869  1.1468
29185SOL     OW92874   7.163   0.558   8.155  0.0177 -0.5400  0.3845
29185SOL    HW192875   7.073   0.573   8.186 -0.4608  0.1708 -1.1839
29185SOL    HW292876   7.151   0.520   8.067  1.2289  0.2139 -0.1285
29186SOL     OW92877   3.413   5.814   7.081  0.1708 -0.2352  0.1107
29186SOL    HW192878   3.381   5.861   7.004  0.3059  0.6045  0.5654
29186SOL    HW292879   3.396   5.722   7.061  0.9665 -0.1061 -1.2911
29187SOL     OW92880   3.388   1.402   3.556 -0.2636  0.5959 -0.0127
29187SOL    HW192881   3.313   1.385   3.499 -1.3182 -1.5653  1.8619
29187SOL    HW292882   3.463   1.366   3.508 -1.4632 -3.4972  0.8187
29188SOL     OW92883   2.293   1.719   4.074 -0.3219 -0.0725  0.3946
29188SOL    HW192884   2.349   1.796   4.086 -0.5751 -0.0372  1.4024
29188SOL    HW292885   2.340   1.666   4.010  0.6629  0.1549  0.9102
29189SOL     OW92886   5.760   2.668   5.029  0.2161  0.0068 -0.2826
29189SOL    HW192887   5.789   2.597   5.086 -1.3351 -1.4961 -1.2807
29189SOL    HW292888   5.712   2.727   5.087  0.2253 -0.5412  0.2976
29190SOL     OW92889   7.839   4.556   2.451  0.1775 -0.3033  0.0257
29190SOL    HW192890   7.778   4.628   2.436  3.1659  2.2095 -1.1247
29190SOL    HW292891   7.870   4.569   2.541 -0.1884 -0.9324  0.2477
29191SOL     OW92892   3.704   7.919   5.115  0.2477  0.2702 -0.2864
29191SOL    HW192893   3.643   7.946   5.183  1.3919 -0.5217  1.1315
29191SOL    HW292894   3.737   7.834   5.145  1.7122  0.4727 -1.1933
29192SOL     OW92895   2.684   4.594   2.670 -0.2473  0.0526  0.1253
29192SOL    HW192896   2.645   4.660   2.729 -0.3998 -1.2157  1.5045
29192SOL    HW292897   2.777   4.616   2.670 -0.5636  1.5832 -1.1992
29193SOL     OW92898   2.228   9.295   0.739 -0.0597  0.0046 -0.2098
29193SOL    HW192899   2.182   9.222   0.697 -2.3068  0.7397  0.8595
29193SOL    HW292900   2.189   9.374   0.702  2.1602  0.7554 -1.1568
29194SOL     OW92901   8.323  11.641   8.817  0.1695 -0.8947  0.1325
29194SOL    HW192902   8.258  11.637   8.887  3.1256  1.0355  3.3257
29194SOL    HW292903   8.354  11.551   8.808 -1.1112 -1.3849  0.3641
29195SOL     OW92904   3.765  11.748   0.165 -1.0149  0.1981  0.4240
29195SOL    HW192905   3.674  11.769   0.182 -1.0069  1.0575 -0.4903
29195SOL    HW292906   3.804  11.831   0.138 -0.3535 -0.4812 -0.7872
29196SOL     OW92907  10.110   5.160   8.381  0.6389 -0.2851 -0.0792
29196SOL    HW192908  10.082   5.229   8.442 -0.1245 -0.1655 -0.5408
29196SOL    HW292909  10.137   5.088   8.438  0.6221  0.0817  0.4096
29197SOL     OW92910   1.291   6.758  10.968 -0.3566  0.5145 -0.0104
29197SOL    HW192911   1.201   6.754  11.001 -0.8063 -0.6639 -1.2789
29197SOL    HW292912   1.284   6.799  10.882  0.4016  0.8788  0.0869
29198SOL     OW92913   1.975   4.797   8.722  0.9408  0.3638 -0.0600
29198SOL    HW192914   1.926   4.830   8.647 -2.2170 -0.6042  1.4098
29198SOL    HW292915   2.006   4.710   8.694  0.3308  0.2706 -0.4670
29199SOL     OW92916  10.398   2.624   8.350  0.3786  0.0119  0.1165
29199SOL    HW192917  10.317   2.625   8.298  0.1358 -1.3333  0.4252
29199SOL    HW292918  10.391   2.701   8.406 -0.4139  0.2425 -0.2721
29200SOL     OW92919   2.608   3.909   4.897 -0.0209 -0.3056 -0.2008
29200SOL    HW192920   2.676   3.945   4.840  1.0446 -0.9931  0.6012
29200SOL    HW292921   2.633   3.936   4.985  0.2526 -2.0923  0.3109
29201SOL     OW92922   2.187   5.643   2.613 -0.1547  0.5361  0.1951
29201SOL    HW192923   2.223   5.595   2.687  0.5950 -1.7904 -1.5515
29201SOL    HW292924   2.262   5.690   2.576 -0.2641  0.6992  0.1786
29202SOL     OW92925   6.603  10.343   9.074  0.2795 -0.4761 -0.0325
29202SOL    HW192926   6.575  10.289   8.999 -0.0403 -1.2066  0.5929
29202SOL    HW292927   6.679  10.390   9.042  1.8506 -2.8314 -0.0296
29203SOL     OW92928   5.804   1.293   2.538  0.0816 -0.3924 -0.2885
29203SOL    HW192929   5.795   1.291   2.634 -0.9896  0.1529 -0.3549
29203SOL    HW292930   5.862   1.367   2.521  0.6086 -0.7449 -0.0497
29204SOL     OW92931   5.644   8.316   0.929  0.2449  0.2441 -0.3536
29204SOL    HW192932   5.707   8.253   0.895 -0.3128  0.0085 -0.9596
29204SOL    HW292933   5.641   8.385   0.864  1.6811  1.4846  0.8245
29205SOL     OW92934   5.607  11.012   6.689  0.4379 -0.5830 -0.1347
29205SOL    HW192935   5.525  11.038   6.731  1.2848  1.4045  0.4312
29205SOL    HW292936   5.595  11.032   6.596  0.2840 -0.2938 -0.0514
29206SOL     OW92937  10.127   2.079   8.121  0.3417 -0.3875  0.6601
29206SOL    HW192938  10.209   2.084   8.171  0.9458  2.0136 -0.4039
29206SOL    HW292939  10.084   2.163   8.138 -1.6509 -1.3585  0.7160
29207SOL     OW92940   7.362  10.790  10.768  0.1085 -0.1800  0.2299
29207SOL    HW192941   7.354  10.694  10.769  0.8769 -0.3158 -2.2067
29207SOL    HW292942   7.325  10.817  10.684  2.3552  1.3840 -0.3594
29208SOL     OW92943  11.712   9.433   4.765  0.1120  0.4981 -0.7400
29208SOL    HW192944  11.743   9.464   4.850 -0.6409 -0.7404  0.0134
29208SOL    HW292945  11.790   9.403   4.720  0.3952  0.1829 -0.0514
29209SOL     OW92946   6.351  10.275   9.176 -0.1743 -0.0723  0.4162
29209SOL    HW192947   6.300  10.356   9.180 -1.5271 -0.8990  0.6962
29209SOL    HW292948   6.425  10.295   9.118 -0.0128  1.5910  1.1535
29210SOL     OW92949   9.214   0.847   5.013  0.5740  0.0465  0.0217
29210SOL    HW192950   9.177   0.900   5.084  3.0553 -0.4747  1.8339
29210SOL    HW292951   9.298   0.889   4.994  1.0688 -1.3032 -0.8758
29211SOL     OW92952   1.341   5.046  10.874  0.7744 -0.7791  0.2002
29211SOL    HW192953   1.413   5.099  10.911 -1.2785  1.8191  0.7580
29211SOL    HW292954   1.308   5.097  10.801 -1.4971 -1.1297  0.9148
29212SOL     OW92955   9.286   3.579   5.045  0.1780  0.0719  0.7571
29212SOL    HW192956   9.339   3.618   4.975  0.7841 -1.0706  0.5630
29212SOL    HW292957   9.242   3.505   5.004  1.4877 -1.3690  1.8257
29213SOL     OW92958   4.123   6.132  11.021  0.1167 -0.4298  0.5535
29213SOL    HW192959   4.105   6.076  10.945 -0.7762  0.4530  0.0846
29213SOL    HW292960   4.038   6.143  11.063  0.4008  0.0382  1.0098
29214SOL     OW92961   0.118  10.314   0.224 -0.0981  0.1637  0.0748
29214SOL    HW192962   0.079  10.383   0.170  1.8137  0.9238 -0.4231
29214SOL    HW292963   0.202  10.297   0.182  0.6532 -0.5072  1.7964
29215SOL     OW92964   7.706   5.998   8.458 -0.0523 -0.0695  0.3402
29215SOL    HW192965   7.724   6.089   8.481 -0.5110  0.1169 -0.0178
29215SOL    HW292966   7.736   5.948   8.534 -0.7851  0.4637  1.0042
29216SOL     OW92967   6.125   8.274  11.603 -0.1195 -0.5133  0.1845
29216SOL    HW192968   6.069   8.242  11.533  0.0261 -0.1621 -0.0928
29216SOL    HW292969   6.179   8.342  11.563 -0.5210  0.1875  0.8016
29217SOL     OW92970   7.323  11.023   8.671  0.3521 -0.3149 -0.1431
29217SOL    HW192971   7.397  11.075   8.704  0.1471 -0.0993 -0.0203
29217SOL    HW292972   7.338  10.936   8.706  0.7266 -0.3554 -0.3905
29218SOL     OW92973   3.179   3.412   0.253  0.1555 -0.7276 -1.1218
29218SOL    HW192974   3.153   3.483   0.194  0.1743 -0.1191 -0.4237
29218SOL    HW292975   3.106   3.350   0.251 -0.5910  0.1084 -0.5081
29219SOL     OW92976   8.708  11.769   0.216 -0.1451  0.3567  0.0530
29219SOL    HW192977   8.794  11.777   0.258  0.2650  1.4158 -0.9481
29219SOL    HW292978   8.684  11.859   0.194 -0.8917 -0.0615 -0.8933
29220SOL     OW92979  10.714   5.033   8.181 -0.0239  0.1107  1.1136
29220SOL    HW192980  10.621   5.028   8.200 -0.8609  1.1833 -2.0735
29220SOL    HW292981  10.726   5.119   8.140  2.0287 -0.6359 -0.0200
29221SOL     OW92982   9.743   3.264  10.781 -0.9237  0.4632 -0.1936
29221SOL    HW192983   9.663   3.216  10.759 -1.7485  0.7051  2.0175
29221SOL    HW292984   9.716   3.327  10.847  1.2092  0.1335  1.0879
29222SOL     OW92985  11.734   2.204   7.503 -0.0655 -0.2713  0.5458
29222SOL    HW192986  11.786   2.236   7.429 -2.9827  1.1402 -1.1268
29222SOL    HW292987  11.760   2.259   7.577 -0.4318  1.7521 -0.7229
29223SOL     OW92988   1.930   2.046   6.480  0.1703  0.0188 -0.1414
29223SOL    HW192989   1.881   2.089   6.410  0.4854 -1.3806 -1.2775
29223SOL    HW292990   1.902   2.090   6.560 -1.5773  0.4620 -0.9484
29224SOL     OW92991   6.771   4.581   3.293  0.2438  0.1237  0.3607
29224SOL    HW192992   6.697   4.568   3.351 -0.2601  0.1162 -0.2767
29224SOL    HW292993   6.835   4.630   3.346  0.7040 -1.7327  1.6341
29225SOL     OW92994   4.347   7.295   1.707  0.2378 -0.0533  0.1955
29225SOL    HW192995   4.260   7.270   1.676 -0.5752  1.5454  1.0767
29225SOL    HW292996   4.332   7.368   1.768  2.3035  1.5369 -1.0201
29226SOL     OW92997   1.551   9.380   7.292 -0.1608  0.2009  0.6317
29226SOL    HW192998   1.541   9.317   7.221  1.3095  0.6447 -0.0131
29226SOL    HW292999   1.583   9.460   7.250 -0.7362  0.9713  1.6028
29227SOL     OW93000   1.466   8.104   4.111 -0.0163  0.3219  0.2036
29227SOL    HW193001   1.526   8.125   4.183 -1.3687  1.1937  1.1245
29227SOL    HW293002   1.522   8.102   4.034  1.3948 -0.0991  1.1848
29228SOL     OW93003   4.879   2.654  10.609 -0.2126 -0.8001  0.0490
29228SOL    HW193004   4.853   2.573  10.565  0.0039 -0.2962 -1.0352
29228SOL    HW293005   4.797   2.692  10.639 -0.2495 -1.9116  1.5172
29229SOL     OW93006   2.096   4.631   5.890  0.1457 -0.9776 -0.0352
29229SOL    HW193007   2.139   4.708   5.855  1.4343 -1.6540  0.0054
29229SOL    HW293008   2.152   4.602   5.962 -1.2399 -0.9507  1.1141
29230SOL     OW93009   7.580   5.741   6.246  0.1350  0.0549 -0.3555
29230SOL    HW193010   7.521   5.688   6.192 -0.7063  0.1411  0.4595
29230SOL    HW293011   7.668   5.713   6.220 -0.2412  0.0127 -1.6809
29231SOL     OW93012   7.194   3.288   0.891 -0.5543  0.3503  0.3541
29231SOL    HW193013   7.162   3.205   0.925  0.3269 -1.4246 -2.7232
29231SOL    HW293014   7.284   3.294   0.923 -0.1199 -0.6968 -0.6072
29232SOL     OW93015   6.685   4.641   1.780  0.0340 -0.5180  0.6538
29232SOL    HW193016   6.651   4.596   1.703  0.4345  1.3364 -0.6886
29232SOL    HW293017   6.636   4.604   1.853  0.4079 -3.1295 -0.3040
29233SOL     OW93018   9.461  10.433   7.812 -0.2889 -0.0997  0.2660
29233SOL    HW193019   9.510  10.369   7.760 -1.2139 -0.8305  0.2733
29233SOL    HW293020   9.455  10.394   7.899  0.8882  0.9276  0.8352
29234SOL     OW93021   2.944   0.550  10.958 -0.3150 -0.1341  0.2064
29234SOL    HW193022   2.896   0.520  10.881 -3.5551  2.2880  1.0508
29234SOL    HW293023   3.032   0.572  10.924 -1.4465  0.3909 -2.7268
29235SOL     OW93024   1.847   7.688   4.347  0.1288  0.0729  0.2302
29235SOL    HW193025   1.938   7.700   4.376  0.4724 -0.0465 -0.7721
29235SOL    HW293026   1.795   7.707   4.425  1.1237 -3.5586  2.0269
29236SOL     OW93027   9.536  11.264   3.283 -0.5935  0.1991  0.1587
29236SOL    HW193028   9.448  11.236   3.308 -1.0331  1.6531  0.3641
29236SOL    HW293029   9.563  11.324   3.354 -0.2011  1.1861 -0.7965
29237SOL     OW93030   0.593   8.144   3.286  0.3970  0.3251  0.2550
29237SOL    HW193031   0.509   8.136   3.331 -0.5520 -0.2247 -1.5161
29237SOL    HW293032   0.606   8.238   3.276 -0.1158  0.4150  0.3900
29238SOL     OW93033   2.101   2.828   2.217  0.6656  0.0609 -0.4846
29238SOL    HW193034   2.187   2.864   2.241  0.3135  0.2112  0.5826
29238SOL    HW293035   2.054   2.902   2.179  0.6183  0.2544 -0.0520
29239SOL     OW93036   7.589   1.945  10.843  0.5317 -0.0193 -0.1251
29239SOL    HW193037   7.542   2.024  10.870 -1.6218 -1.3988  0.3410
29239SOL    HW293038   7.562   1.878  10.905  0.1602 -1.7981 -2.0855
29240SOL     OW93039   5.106   5.105  11.061  0.3276  0.5892 -0.6711
29240SOL    HW193040   5.103   5.015  11.029 -2.1259 -0.6707  2.6141
29240SOL    HW293041   5.036   5.150  11.013 -0.8452 -0.2693  0.1815
29241SOL     OW93042   9.670   5.441  10.070 -0.1587 -0.2328  0.1623
29241SOL    HW193043   9.658   5.435   9.975  0.4362  0.9039 -0.0018
29241SOL    HW293044   9.626   5.522  10.095 -2.3570 -1.6862  1.2612
29242SOL     OW93045   7.128   5.687  10.028  0.0490 -0.8106 -0.7790
29242SOL    HW193046   7.165   5.740   9.958  0.3772 -1.4138 -1.0710
29242SOL    HW293047   7.093   5.609   9.984 -2.4510  0.1492 -0.6304
29243SOL     OW93048   9.218   6.509   1.965  0.1638  0.5772 -0.1126
29243SOL    HW193049   9.307   6.476   1.952 -0.1115 -0.3157  0.2024
29243SOL    HW293050   9.229   6.602   1.985  0.9402  0.7778 -1.3569
29244SOL     OW93051   4.928   4.792   2.712  0.2052 -0.5751 -0.1768
29244SOL    HW193052   4.911   4.839   2.794 -0.0859 -1.4741  0.2939
29244SOL    HW293053   5.022   4.777   2.712  0.3692  0.4125 -0.5599
29245SOL     OW93054   6.162  10.023   7.954 -0.4854  0.3896 -0.2822
29245SOL    HW193055   6.068  10.022   7.975 -1.0121  2.8882 -2.0534
29245SOL    HW293056   6.171   9.963   7.880 -0.5888 -0.1933  0.1719
29246SOL     OW93057   5.106   3.266   6.941 -0.5766 -0.5407  0.7139
29246SOL    HW193058   5.023   3.283   6.897  0.1257  1.0273 -0.0893
29246SOL    HW293059   5.172   3.307   6.885  0.5574 -0.1675  2.2385
29247SOL     OW93060   5.148   3.639   0.728  0.0938  0.2852  0.2653
29247SOL    HW193061   5.222   3.581   0.710  0.6817  0.4976  1.7916
29247SOL    HW293062   5.180   3.726   0.705  1.0079  0.6189  2.5439
29248SOL     OW93063   1.342   2.474   6.593 -0.0101 -0.0968  0.5689
29248SOL    HW193064   1.374   2.397   6.546 -1.5102 -0.8805  0.7828
29248SOL    HW293065   1.249   2.459   6.603 -0.1836  1.3619  1.3871
29249SOL     OW93066  11.509   5.532   5.328 -0.0964 -0.7685  0.4289
29249SOL    HW193067  11.513   5.446   5.286  0.9529 -0.5111 -0.0199
29249SOL    HW293068  11.600   5.557   5.340 -0.2798  1.4775 -1.9238
29250SOL     OW93069   0.106  10.948   6.735 -0.4364  0.1630  0.3848
29250SOL    HW193070   0.151  11.023   6.774  0.0414 -0.3277  0.7937
29250SOL    HW293071   0.030  10.934   6.790 -0.2090 -0.0179  0.6516
29251SOL     OW93072   2.201   8.500   3.136  0.0042  0.0567 -0.4077
29251SOL    HW193073   2.199   8.581   3.186 -0.7978 -0.4890  0.4961
29251SOL    HW293074   2.289   8.465   3.149 -0.0626  0.1336  0.2946
29252SOL     OW93075  11.344   3.749   8.117 -0.3665  0.0645 -0.0241
29252SOL    HW193076  11.324   3.816   8.181 -2.1504 -1.0292  0.6393
29252SOL    HW293077  11.332   3.666   8.164 -1.8724 -0.7821 -1.7554
29253SOL     OW93078   0.287   9.790   9.678  0.1044  0.2839  0.5084
29253SOL    HW193079   0.367   9.755   9.720  0.5318  0.5600 -0.0700
29253SOL    HW293080   0.317   9.824   9.594 -0.3802  1.6754  0.8715
29254SOL     OW93081   7.298   5.922   2.016  0.4840  0.1636  0.5518
29254SOL    HW193082   7.376   5.947   1.967 -0.9479  1.8418 -1.0406
29254SOL    HW293083   7.308   5.965   2.101  1.3055  0.3424  0.3672
29255SOL     OW93084   2.336  10.195   7.912  0.0988  0.6690 -0.1047
29255SOL    HW193085   2.410  10.166   7.965 -1.2993 -0.3205  1.4250
29255SOL    HW293086   2.275  10.232   7.976 -2.4552 -2.2038 -0.6756
29256SOL     OW93087   2.966   9.825   4.288 -0.7213  0.1736 -0.3203
29256SOL    HW193088   2.986   9.885   4.360 -0.2024 -1.7822  1.2515
29256SOL    HW293089   2.915   9.755   4.328 -0.3246 -1.0282 -1.8142
29257SOL     OW93090   6.684   7.296   9.136  0.1493 -0.1698 -0.6494
29257SOL    HW193091   6.610   7.261   9.186 -2.4169  2.9185 -1.9819
29257SOL    HW293092   6.761   7.278   9.191 -1.9438 -0.7735  2.2891
29258SOL     OW93093   3.627   9.429   6.864 -0.3945 -0.5862 -0.2777
29258SOL    HW193094   3.595   9.342   6.887  1.3889 -1.2351 -0.1129
29258SOL    HW293095   3.701   9.444   6.923  0.8126  0.0228 -1.8595
29259SOL     OW93096   7.570   9.625  10.174 -0.8057  0.4250  0.3692
29259SOL    HW193097   7.504   9.577  10.125 -0.2016  0.6113 -0.6840
29259SOL    HW293098   7.582   9.575  10.255  0.5890 -1.8744 -1.1373
29260SOL     OW93099   5.618   3.513  11.511 -0.3032  0.0979  0.1928
29260SOL    HW193100   5.554   3.582  11.495 -2.1328 -1.7888 -1.1703
29260SOL    HW293101   5.565   3.437  11.535  1.6111 -0.9487  1.3260
29261SOL     OW93102   3.113   0.943   6.495  0.1974 -0.2630 -0.2049
29261SOL    HW193103   3.176   0.938   6.568  0.0697  1.0630  0.0274
29261SOL    HW293104   3.167   0.939   6.416  0.5709  0.5320 -0.0061
29262SOL     OW93105   1.550   2.172   8.305  0.3627  0.2866  0.3414
29262SOL    HW193106   1.587   2.135   8.385  0.1696 -1.2757 -0.2512
29262SOL    HW293107   1.610   2.143   8.236  0.1366  1.0102 -0.1651
29263SOL     OW93108   2.188  10.527   5.886 -0.3172  0.0942  0.2314
29263SOL    HW193109   2.217  10.453   5.834  1.4676 -1.2233  2.8612
29263SOL    HW293110   2.128  10.489   5.950 -1.9785  1.5502 -0.3866
29264SOL     OW93111  11.133   7.743   4.976 -0.0622 -0.0983 -0.2681
29264SOL    HW193112  11.111   7.725   5.067 -0.6169 -2.3279 -0.7717
29264SOL    HW293113  11.159   7.835   4.975 -1.1826  0.3122  1.9051
29265SOL     OW93114   2.948   3.522   9.936  0.0940 -0.0070  0.3603
29265SOL    HW193115   2.898   3.578   9.877  0.4052 -0.0555  0.0445
29265SOL    HW293116   2.916   3.433   9.918 -0.7353  0.1084  1.1961
29266SOL     OW93117   3.066   6.701   5.466  0.3515 -0.4302 -0.4212
29266SOL    HW193118   2.980   6.724   5.430  0.7263 -0.4970 -1.3765
29266SOL    HW293119   3.107   6.646   5.398  0.9095 -0.9054  0.2816
29267SOL     OW93120   1.876   5.200   3.869  0.4119  0.5378  0.2243
29267SOL    HW193121   1.884   5.253   3.790  1.3144 -0.3290 -0.2884
29267SOL    HW293122   1.782   5.188   3.880  0.2945 -0.7228 -1.6953
29268SOL     OW93123  11.372   6.631   2.009  0.1993 -0.1527  0.1067
29268SOL    HW193124  11.340   6.697   2.070 -0.4564 -0.6567  0.3225
29268SOL    HW293125  11.333   6.655   1.925 -2.6577 -1.9951  0.7794
29269SOL     OW93126   6.278   6.313   7.667 -0.1228 -0.3144  0.2689
29269SOL    HW193127   6.188   6.281   7.667 -0.3180  0.1540 -0.9914
29269SOL    HW293128   6.331   6.234   7.657 -0.5681 -0.3949 -2.1441
29270SOL     OW93129   9.998   9.030   5.543 -0.2158  0.1545  0.2644
29270SOL    HW193130  10.020   9.123   5.553 -0.2829  0.1850  0.1338
29270SOL    HW293131   9.957   9.006   5.626  0.9145 -0.0756  0.7712
29271SOL     OW93132   9.346   3.300  10.617 -0.2052  0.6093  0.1713
29271SOL    HW193133   9.356   3.357  10.541 -1.2980  1.1246  0.3862
29271SOL    HW293134   9.259   3.322  10.651  0.0506  0.0012  1.2472
29272SOL     OW93135   7.732   5.717   9.717  0.2453  0.7827 -1.0017
29272SOL    HW193136   7.650   5.702   9.764  0.7691 -0.8743 -0.5647
29272SOL    HW293137   7.765   5.799   9.753  0.6771 -0.4717  1.6560
29273SOL     OW93138   3.435   8.303   3.128  0.5202 -0.1533  0.0349
29273SOL    HW193139   3.527   8.319   3.106  0.7585 -0.6530  0.6434
29273SOL    HW293140   3.431   8.209   3.146  0.4775  0.2873  2.6608
29274SOL     OW93141   2.533   6.753   8.148 -0.3419  0.1834 -0.0640
29274SOL    HW193142   2.465   6.758   8.080 -1.6700  0.1769  1.2120
29274SOL    HW293143   2.498   6.691   8.212  2.4386 -2.5744 -1.0180
29275SOL     OW93144   6.022   4.954   6.370 -0.1043 -0.1839  0.5159
29275SOL    HW193145   5.967   4.905   6.309  1.1325 -0.7522 -0.1881
29275SOL    HW293146   5.964   5.021   6.406 -1.2063 -0.6665 -0.2967
29276SOL     OW93147   4.584   4.034   4.133  0.0427  0.2437  0.1998
29276SOL    HW193148   4.526   4.019   4.059 -0.1140  0.2109  0.3297
29276SOL    HW293149   4.543   3.988   4.206  1.0256 -1.1116 -0.0501
29277SOL     OW93150   5.849   2.034   1.540  0.2513  0.0180  0.2931
29277SOL    HW193151   5.813   2.027   1.628 -2.5393  1.6363 -0.6098
29277SOL    HW293152   5.798   2.103   1.498  1.8707 -0.2848 -2.4369
29278SOL     OW93153   2.107   2.353   6.606  0.2726 -0.2219 -0.0769
29278SOL    HW193154   2.121   2.273   6.555  1.0642  0.7646 -1.4963
29278SOL    HW293155   2.179   2.355   6.669 -0.1156 -0.9286  0.4051
29279SOL     OW93156   8.449   4.975   6.576 -0.1598  0.4286 -0.2653
29279SOL    HW193157   8.390   5.050   6.589  0.5957  1.2577 -1.4448
29279SOL    HW293158   8.535   5.009   6.599  0.3064  0.1594 -1.5515
29280SOL     OW93159   4.597   2.712   3.945 -0.3760  0.7242 -0.1716
29280SOL    HW193160   4.692   2.695   3.944 -0.2488  1.3706 -1.3215
29280SOL    HW293161   4.590   2.804   3.972 -0.7267  0.4915  0.5531
29281SOL     OW93162   8.104  11.010   8.268  0.2704 -0.0141  0.5535
29281SOL    HW193163   8.149  11.088   8.235  0.6842 -0.8754 -1.0130
29281SOL    HW293164   8.171  10.964   8.319  0.4267 -0.0179  0.3459
29282SOL     OW93165  11.578  10.326   4.963  0.1114 -0.0888  0.5280
29282SOL    HW193166  11.520  10.274   5.018 -0.3374 -0.0636  0.0855
29282SOL    HW293167  11.550  10.307   4.874  0.2772  0.5221  0.3393
29283SOL     OW93168   1.547   8.261   2.994  0.1957 -0.2128  0.5080
29283SOL    HW193169   1.480   8.273   3.061 -0.9526 -0.3547 -0.5821
29283SOL    HW293170   1.499   8.263   2.911  1.4457 -1.0285 -0.2698
29284SOL     OW93171   3.976   5.224   3.668  0.0742 -0.0147  0.2060
29284SOL    HW193172   3.935   5.200   3.751 -0.2705  2.2514  0.7764
29284SOL    HW293173   3.903   5.255   3.614  0.0986 -2.6039 -1.4833
29285SOL     OW93174   5.816   7.862   4.926  0.4487  0.1553  0.5279
29285SOL    HW193175   5.819   7.838   5.019  2.5353 -2.7130 -0.1007
29285SOL    HW293176   5.778   7.785   4.883  0.2238  1.1194 -1.0713
29286SOL     OW93177   6.989   9.506  10.647  0.0676 -0.4678 -0.5419
29286SOL    HW193178   7.033   9.530  10.566  0.3220  0.6086 -0.1105
29286SOL    HW293179   7.031   9.562  10.714 -0.8890 -0.5412  0.1324
29287SOL     OW93180   5.533   1.050   3.296 -0.3310 -0.0861  0.9167
29287SOL    HW193181   5.479   0.972   3.287 -0.7203  0.2449  0.2721
29287SOL    HW293182   5.612   1.030   3.245 -1.1212  0.5341 -0.6086
29288SOL     OW93183   0.029   8.711   7.538  0.0551  0.2792 -0.5620
29288SOL    HW193184  -0.038   8.679   7.478 -0.7579 -0.8289  0.8826
29288SOL    HW293185   0.041   8.803   7.513 -2.2576  0.6183 -0.6429
29289SOL     OW93186   6.867  11.230  10.082 -0.0126  0.3221 -0.0391
29289SOL    HW193187   6.861  11.296  10.012 -2.5702 -0.8592 -1.0566
29289SOL    HW293188   6.793  11.250  10.139  0.4699 -0.3924  0.8542
29290SOL     OW93189   3.681   7.060  11.560 -0.1172  0.7395  0.1145
29290SOL    HW193190   3.593   7.023  11.549 -0.7445  2.3036 -0.5154
29290SOL    HW293191   3.672   7.150  11.529  1.6706  0.9943  0.2587
29291SOL     OW93192   6.226   2.221   5.897  0.5764 -0.0438 -0.7112
29291SOL    HW193193   6.200   2.204   5.987  0.0449 -0.6723 -0.9725
29291SOL    HW293194   6.228   2.135   5.856 -1.0933  0.3969 -1.7913
29292SOL     OW93195   1.827   6.318   6.826 -0.3098  0.4086  0.5690
29292SOL    HW193196   1.836   6.285   6.916 -0.5421 -0.0857  0.4132
29292SOL    HW293197   1.840   6.241   6.771  0.3904  0.8176  0.1532
29293SOL     OW93198   7.252   7.243   0.477  0.0366  0.0213 -0.3269
29293SOL    HW193199   7.182   7.230   0.412 -1.1478 -0.1781  0.9518
29293SOL    HW293200   7.228   7.324   0.522 -1.6870 -2.1199  2.8955
29294SOL     OW93201   1.298   8.947  11.352 -0.1009 -0.4952  0.4467
29294SOL    HW193202   1.346   8.973  11.274 -0.6303 -0.3040  0.1768
29294SOL    HW293203   1.333   9.002  11.422 -1.5817  1.4222 -0.2115
29295SOL     OW93204   0.294  10.341   1.540 -0.1248 -0.4026  0.0080
29295SOL    HW193205   0.339  10.260   1.563 -0.1999 -0.2233  0.8065
29295SOL    HW293206   0.362  10.409   1.543 -0.0878 -0.4124 -0.5315
29296SOL     OW93207   2.856   2.598   9.033  0.4836 -0.1003  0.9222
29296SOL    HW193208   2.874   2.509   9.063  0.3291 -0.8330 -0.9843
29296SOL    HW293209   2.924   2.651   9.074  1.7510 -1.4141  0.6296
29297SOL     OW93210   1.755   2.886   7.923 -0.1558  0.0907 -0.3565
29297SOL    HW193211   1.838   2.918   7.888  0.2018  0.2321  0.5880
29297SOL    HW293212   1.690   2.910   7.857  0.1342  2.4435  0.1288
29298SOL     OW93213   9.481   1.647   8.558 -0.3336  0.3987 -0.2207
29298SOL    HW193214   9.468   1.647   8.463 -1.7806  1.0335 -0.0567
29298SOL    HW293215   9.444   1.564   8.588  0.0660  0.2262 -0.2013
29299SOL     OW93216   0.358   3.104   5.863 -0.4513  0.4112 -0.6416
29299SOL    HW193217   0.437   3.050   5.862  0.4206  1.4214  2.6207
29299SOL    HW293218   0.311   3.078   5.942 -0.8019  3.2162  0.2011
29300SOL     OW93219   7.800   1.401   3.015 -0.1898 -0.3919  0.3142
29300SOL    HW193220   7.801   1.344   3.092  0.6388  1.6881  1.9775
29300SOL    HW293221   7.712   1.438   3.014  0.1080  0.3859  0.9716
29301SOL     OW93222   3.610   7.702   3.243 -0.8074  0.2985  0.7796
29301SOL    HW193223   3.630   7.609   3.247  2.1552  0.7738 -0.1824
29301SOL    HW293224   3.627   7.734   3.332  0.7030  0.2970  0.5129
29302SOL     OW93225   8.644   4.940   2.594 -0.3978 -0.5391  0.3884
29302SOL    HW193226   8.706   4.897   2.653 -0.0850 -0.5124  0.0788
29302SOL    HW293227   8.593   4.869   2.556 -0.2874 -0.5911  0.3376
29303SOL     OW93228  11.417   6.938   3.989 -0.7031  0.2410 -0.0411
29303SOL    HW193229  11.385   6.999   4.055  0.1095 -0.0914  0.6840
29303SOL    HW293230  11.513   6.948   3.992 -0.6129 -0.4278 -0.5356
29304SOL     OW93231   9.482   7.904   7.467 -0.3356 -0.0924  0.3330
29304SOL    HW193232   9.428   7.952   7.404 -0.0573 -0.6267 -0.3182
29304SOL    HW293233   9.431   7.907   7.548 -0.9240  0.1906 -0.0371
29305SOL     OW93234   1.964   3.054   8.342  0.0129  0.2795  0.3410
29305SOL    HW193235   2.057   3.075   8.350  0.2405 -0.8304  0.8041
29305SOL    HW293236   1.955   3.026   8.250 -0.0996  1.4218 -0.0091
29306SOL     OW93237   3.695   9.755   9.603  0.4565 -0.0275  0.4069
29306SOL    HW193238   3.646   9.784   9.526 -0.7390  0.2518  1.2507
29306SOL    HW293239   3.680   9.823   9.669  0.6147 -0.7615  1.2271
29307SOL     OW93240   4.952   0.942   8.411 -0.6290  0.0381 -0.2509
29307SOL    HW193241   4.927   1.003   8.342 -1.5025  0.7138  0.6336
29307SOL    HW293242   4.900   0.969   8.487 -0.2958 -1.1900  0.4416
29308SOL     OW93243  11.101   9.088   8.239 -0.8740 -0.7425 -0.0705
29308SOL    HW193244  11.196   9.091   8.223 -0.6412 -0.6837  1.1764
29308SOL    HW293245  11.084   8.997   8.264 -1.1670 -0.7852 -0.4353
29309SOL     OW93246   9.929  10.021   3.740 -0.0237  0.1367 -0.2139
29309SOL    HW193247   9.948   9.933   3.773  0.1551  0.0906 -0.4435
29309SOL    HW293248   9.902  10.008   3.649 -1.2484  0.1891  0.1265
29310SOL     OW93249   9.556   6.110   1.310  0.1987  0.1096  1.2326
29310SOL    HW193250   9.479   6.083   1.360  0.5192 -1.6632  0.8202
29310SOL    HW293251   9.523   6.133   1.224 -0.1308  1.4992  1.7094
29311SOL     OW93252   2.855   8.537   7.129 -0.3145  0.3780 -0.4602
29311SOL    HW193253   2.787   8.569   7.188 -0.2000 -0.2908  0.0534
29311SOL    HW293254   2.810   8.519   7.047 -0.5463  0.9630 -0.4636
29312SOL     OW93255   4.867  10.785   8.987  0.1364 -0.2458  0.5709
29312SOL    HW193256   4.919  10.730   8.929 -0.4718 -0.7129  0.4533
29312SOL    HW293257   4.776  10.764   8.965 -0.2786  3.1515 -1.7752
29313SOL     OW93258   5.486   2.587   8.088 -0.1494 -0.3565  0.0985
29313SOL    HW193259   5.392   2.606   8.086  0.1532  1.2508 -0.5825
29313SOL    HW293260   5.520   2.637   8.162  0.1409 -1.2055  0.5610
29314SOL     OW93261  10.144   0.426   3.483 -0.3378 -0.2785  0.0035
29314SOL    HW193262  10.054   0.454   3.465  0.0140  0.5024 -0.5976
29314SOL    HW293263  10.179   0.399   3.398 -0.2044 -1.2088  0.3443
29315SOL     OW93264   6.120   4.174   8.090 -0.2413 -0.8920  0.7045
29315SOL    HW193265   6.039   4.168   8.142  0.0683 -1.5076  1.1283
29315SOL    HW293266   6.091   4.208   8.006 -0.7776 -0.0146  1.2200
29316SOL     OW93267   8.240   0.106   6.393  0.0014 -0.7239 -0.2343
29316SOL    HW193268   8.305   0.070   6.454 -0.3156 -0.6409  0.1588
29316SOL    HW293269   8.160   0.114   6.446 -0.3305 -0.8408 -0.7178
29317SOL     OW93270   1.297   4.579   6.777 -0.1057  0.3610  0.3594
29317SOL    HW193271   1.220   4.524   6.758  0.7544 -1.2907  1.4162
29317SOL    HW293272   1.363   4.550   6.714 -0.2789  1.7063 -0.4772
29318SOL     OW93273  10.881   8.643   1.774  0.2364 -0.0835 -0.1658
29318SOL    HW193274  10.824   8.682   1.840  1.0197  1.8188 -0.5403
29318SOL    HW293275  10.933   8.578   1.823  2.2203  2.6425  1.6480
29319SOL     OW93276   0.946  10.460   0.128  0.2502 -0.6904 -0.7807
29319SOL    HW193277   0.983  10.503   0.205  1.2794 -2.2625 -0.3563
29319SOL    HW293278   0.949  10.527   0.059  0.1394  0.4576  0.3014
29320SOL     OW93279   8.021   3.522   5.310 -0.3719  0.4836 -0.0305
29320SOL    HW193280   8.007   3.428   5.301 -1.0630  0.6750 -1.1517
29320SOL    HW293281   8.107   3.538   5.271 -0.2500  0.3252  0.1711
29321SOL     OW93282   7.586   8.314   8.894  0.2473  0.0039 -0.0919
29321SOL    HW193283   7.520   8.249   8.918  1.1011 -0.7580  0.2199
29321SOL    HW293284   7.581   8.319   8.798  0.5908 -0.9704 -0.1671
29322SOL     OW93285  11.469   4.145   2.731 -0.1580  0.1669 -0.1735
29322SOL    HW193286  11.519   4.063   2.730 -0.6086 -0.2178 -3.6734
29322SOL    HW293287  11.382   4.120   2.701 -0.3901  1.8398 -1.0145
29323SOL     OW93288   3.646   6.629   6.227 -0.1986 -0.1593 -0.1580
29323SOL    HW193289   3.551   6.617   6.218 -0.0716 -2.5312  0.7655
29323SOL    HW293290   3.657   6.676   6.309 -0.5689 -0.1008 -0.1418
29324SOL     OW93291   9.177   1.693   1.697 -0.0367 -0.1508  0.5755
29324SOL    HW193292   9.126   1.626   1.743 -0.8892  0.2723  0.2846
29324SOL    HW293293   9.191   1.761   1.762 -1.1713  0.4110  0.2545
29325SOL     OW93294   5.991   7.367  10.576 -0.3143 -0.4780 -0.4175
29325SOL    HW193295   6.068   7.311  10.579  0.6615  0.8611  1.8072
29325SOL    HW293296   5.920   7.311  10.610  0.3316 -0.7945  0.4293
29326SOL     OW93297   3.461   1.100   3.557  0.4509  0.2423  0.0220
29326SOL    HW193298   3.368   1.089   3.541 -0.0276  0.6278  2.1566
29326SOL    HW293299   3.473   1.076   3.649  2.2839  1.1046  0.0759
29327SOL     OW93300  11.436   1.503   6.173  0.0935  0.4680  0.5319
29327SOL    HW193301  11.458   1.560   6.100  1.7020  0.9623  1.3608
29327SOL    HW293302  11.462   1.416   6.144 -1.8015  0.2062 -0.4991
29328SOL     OW93303   6.213   9.657   2.805 -0.0610  0.1351 -0.0245
29328SOL    HW193304   6.258   9.610   2.734 -0.0893  1.2989 -0.8520
29328SOL    HW293305   6.171   9.731   2.761  0.2382  1.1002  1.2683
29329SOL     OW93306   9.277   3.015   2.664 -0.5966  0.1970 -0.0043
29329SOL    HW193307   9.270   3.005   2.759  1.2781 -1.1626  0.0415
29329SOL    HW293308   9.292   2.926   2.632 -1.2488  0.6270 -1.5985
29330SOL     OW93309  10.144   9.125   7.400  0.5404  0.1431 -0.3119
29330SOL    HW193310  10.073   9.138   7.336 -0.9688 -1.3789  0.9394
29330SOL    HW293311  10.201   9.061   7.358  0.0247 -0.2049 -0.5022
29331SOL     OW93312   1.218  11.060   7.126  0.2904  0.2622 -0.2733
29331SOL    HW193313   1.187  10.992   7.185 -0.0390 -0.6054 -1.4143
29331SOL    HW293314   1.174  11.042   7.043  1.4401  0.8943 -1.0449
29332SOL     OW93315   3.323   4.051   4.166 -0.2367  0.0897 -0.6765
29332SOL    HW193316   3.401   3.996   4.178 -0.4116  0.0201  0.2206
29332SOL    HW293317   3.356   4.132   4.126  0.4721  0.4905  0.6701
29333SOL     OW93318   3.988   2.107   8.165 -0.5555 -0.4970  0.1127
29333SOL    HW193319   3.953   2.134   8.080  1.8879  1.4737 -0.3863
29333SOL    HW293320   4.081   2.089   8.149 -0.9291 -4.9133  1.4617
29334SOL     OW93321  10.282   4.954   7.031 -0.0302 -0.1880 -0.0231
29334SOL    HW193322  10.349   4.994   6.976  0.4464 -0.1859  0.5504
29334SOL    HW293323  10.202   5.003   7.009 -0.2360 -1.2584 -1.9019
29335SOL     OW93324   2.144   3.798  10.369 -0.1032  0.1076 -0.3196
29335SOL    HW193325   2.136   3.866  10.436  0.9902 -1.7816  1.9013
29335SOL    HW293326   2.093   3.830  10.295 -2.5464  1.7470  1.9055
29336SOL     OW93327   9.173  10.280   3.867  0.8454 -0.4033 -0.1855
29336SOL    HW193328   9.204  10.259   3.955  3.7474  0.8356 -0.7763
29336SOL    HW293329   9.225  10.224   3.810 -0.1371 -0.3319 -1.1819
29337SOL     OW93330   4.712  11.412   9.796 -0.2706 -0.5265 -0.0368
29337SOL    HW193331   4.744  11.342   9.738 -1.8486  1.3328 -3.4183
29337SOL    HW293332   4.775  11.483   9.786 -0.5303 -0.1875  0.6369
29338SOL     OW93333  10.962   3.687   4.719  0.0134 -0.2334 -0.1165
29338SOL    HW193334  11.028   3.702   4.787  1.4260  1.7160 -1.7800
29338SOL    HW293335  10.991   3.607   4.675 -0.3690 -0.9618  0.9142
29339SOL     OW93336   4.744   4.792   2.090 -0.4430  0.8657  0.2707
29339SOL    HW193337   4.769   4.885   2.096 -1.8248  1.3896 -1.3566
29339SOL    HW293338   4.725   4.778   1.997 -0.0199 -1.1390  0.4353
29340SOL     OW93339   5.278   4.354   9.537 -0.3826 -0.2259  0.4535
29340SOL    HW193340   5.358   4.406   9.536 -1.7641  2.0345 -0.6987
29340SOL    HW293341   5.283   4.303   9.617  0.6011  2.5308  2.2880
29341SOL     OW93342   2.019   2.207   6.868 -0.0140  0.0835  0.0909
29341SOL    HW193343   1.951   2.158   6.916 -0.0380  1.0258  1.0692
29341SOL    HW293344   2.095   2.149   6.868 -0.0009  0.0649  1.3422
29342SOL     OW93345   0.088  11.732   8.188  0.2924  0.2351 -0.0865
29342SOL    HW193346   0.019  11.790   8.222  0.9757  0.2554  1.3605
29342SOL    HW293347   0.095  11.663   8.254  1.6389  0.2335 -0.2009
29343SOL     OW93348   9.690   9.792   3.736 -0.6466 -0.0296 -0.3705
29343SOL    HW193349   9.649   9.878   3.731  0.1113  0.4794  1.3857
29343SOL    HW293350   9.779   9.806   3.704 -0.0169  0.2493  1.3780
29344SOL     OW93351   7.081   3.384   5.799  0.1335 -0.4551  0.1051
29344SOL    HW193352   7.166   3.362   5.837  0.0347 -2.0533 -0.4910
29344SOL    HW293353   7.054   3.304   5.753 -1.3241  0.2789 -0.3960
29345SOL     OW93354  11.183   8.466  10.629 -0.2484 -0.3061  0.0658
29345SOL    HW193355  11.170   8.516  10.548  0.9392 -0.4813 -0.2423
29345SOL    HW293356  11.114   8.399  10.626  0.0806 -0.6291 -1.0583
29346SOL     OW93357   2.129   4.826   2.400 -0.8393  0.0770  0.0102
29346SOL    HW193358   2.188   4.896   2.372  1.0474 -1.5791 -0.3105
29346SOL    HW293359   2.168   4.746   2.367 -1.5294 -1.4277  2.5639
29347SOL     OW93360   3.188   1.678  10.937  0.4060  0.5931 -0.2788
29347SOL    HW193361   3.097   1.652  10.948  1.0119 -1.1091  1.2054
29347SOL    HW293362   3.187   1.774  10.940 -1.2172  0.5713  0.5963
29348SOL     OW93363   9.045   4.352   4.605 -0.6735 -0.0698 -0.6531
29348SOL    HW193364   9.016   4.271   4.648 -0.4050  0.9155  1.5444
29348SOL    HW293365   9.123   4.327   4.556 -0.2829 -1.0725  0.4281
29349SOL     OW93366   5.729   6.898   3.255 -0.3058  0.3672 -0.0418
29349SOL    HW193367   5.820   6.927   3.245 -0.7314  1.5534 -0.8533
29349SOL    HW293368   5.689   6.965   3.311 -0.7979  0.1384 -0.1174
29350SOL     OW93369   0.906   0.011  11.610  0.1235 -0.3260 -0.1598
29350SOL    HW193370   0.852   0.059  11.673  1.4893  2.7085 -1.0931
29350SOL    HW293371   0.849  -0.002  11.534 -0.0945  0.4252 -0.1304
29351SOL     OW93372   6.306  10.235   4.605 -0.1424  0.5364  0.2713
29351SOL    HW193373   6.322  10.324   4.572 -1.8438  0.3045 -1.3609
29351SOL    HW293374   6.375  10.221   4.670  0.8540  2.6213 -0.2354
29352SOL     OW93375   4.761   3.550  10.025  0.9022  0.0637  0.2427
29352SOL    HW193376   4.674   3.587  10.036 -0.3459 -2.8615  1.3793
29352SOL    HW293377   4.753   3.491   9.950  2.0336  0.0330  0.1227
29353SOL     OW93378  11.086  11.609  10.152 -0.1213 -0.5442  0.1514
29353SOL    HW193379  11.037  11.633  10.231 -0.6911  1.5609 -0.7684
29353SOL    HW293380  11.177  11.627  10.173  0.0331 -2.1527  1.0431
29354SOL     OW93381  11.802   2.420   6.076  0.0843  0.0285 -0.1964
29354SOL    HW193382  11.821   2.458   5.991 -0.0410  1.8602  0.5490
29354SOL    HW293383  11.707   2.405   6.075  0.2859 -1.4305 -0.9075
29355SOL     OW93384   5.416  11.388  10.993 -0.0868 -0.2284 -0.1203
29355SOL    HW193385   5.354  11.458  11.013  1.0600  0.5356  0.8710
29355SOL    HW293386   5.391  11.317  11.052  0.1226  0.1563  0.4303
29356SOL     OW93387   5.969   8.123   4.665  0.0410 -0.0747  0.2978
29356SOL    HW193388   6.018   8.051   4.704  1.4460 -1.0372 -2.8639
29356SOL    HW293389   5.908   8.081   4.605  0.7617  1.2761 -1.4772
29357SOL     OW93390   0.774   0.808   4.182  0.4989  0.6400  0.2639
29357SOL    HW193391   0.742   0.808   4.272 -3.0905 -2.2677 -0.7755
29357SOL    HW293392   0.830   0.730   4.176  2.1370  1.7534  0.2725
29358SOL     OW93393   5.786   1.543   1.068  0.0329  0.9156  0.1631
29358SOL    HW193394   5.724   1.510   1.004  2.9682 -2.3716 -1.2955
29358SOL    HW293395   5.871   1.537   1.025  1.8978  1.0614  3.4438
29359SOL     OW93396   3.405   3.072   3.819  0.0661  0.3301 -0.0434
29359SOL    HW193397   3.448   3.152   3.788 -0.4658  1.2155  1.4539
29359SOL    HW293398   3.315   3.098   3.834  0.4672  0.2074  3.0682
29360SOL     OW93399   8.467   6.874  11.516 -0.0122 -0.0932  0.4790
29360SOL    HW193400   8.496   6.943  11.457  0.5197 -0.5937  0.1562
29360SOL    HW293401   8.515   6.796  11.489 -0.9491 -0.7162  0.5331
29361SOL     OW93402   8.013   7.915   6.747  0.0793 -0.6006  0.0990
29361SOL    HW193403   8.094   7.865   6.753  0.3048 -0.2167  0.2927
29361SOL    HW293404   7.946   7.856   6.782  0.0262 -1.4507 -1.3816
29362SOL     OW93405   3.165   7.218   8.516  0.2837 -0.1720 -0.5163
29362SOL    HW193406   3.177   7.266   8.434  0.0255  1.6237  0.4494
29362SOL    HW293407   3.112   7.276   8.571 -0.7453 -1.9241  0.4330
29363SOL     OW93408   3.786  10.488  10.420  0.1849 -0.0287 -0.0981
29363SOL    HW193409   3.704  10.533  10.442  0.2786 -0.3434  0.9219
29363SOL    HW293410   3.852  10.527  10.478  0.7428  0.1408 -0.8303
29364SOL     OW93411   0.907   9.830   9.272  0.4430  0.3640  0.0845
29364SOL    HW193412   0.880   9.806   9.183 -0.0974 -0.9407  0.5819
29364SOL    HW293413   0.971   9.900   9.259 -1.1354  1.6758 -1.2558
29365SOL     OW93414  11.531   3.893   3.495  0.4080 -0.1693  0.6345
29365SOL    HW193415  11.613   3.896   3.544  0.0455 -0.5295  1.2834
29365SOL    HW293416  11.539   3.815   3.440  0.6097 -0.0494  0.4927
29366SOL     OW93417  10.663   7.904   0.423  0.2196 -0.0658  0.0446
29366SOL    HW193418  10.733   7.969   0.415  0.3734 -0.0822  1.1430
29366SOL    HW293419  10.708   7.823   0.449 -0.0107 -0.5468 -0.9850
29367SOL     OW93420   6.733   3.615   6.976 -0.1891  0.1378 -0.1434
29367SOL    HW193421   6.791   3.540   6.971 -0.7073 -0.4381  1.6302
29367SOL    HW293422   6.650   3.583   6.940 -0.5500 -0.3253  1.0524
29368SOL     OW93423  10.662   0.882  10.373 -0.2693 -0.3448 -0.6859
29368SOL    HW193424  10.730   0.913  10.433 -0.2389  0.2633 -1.0196
29368SOL    HW293425  10.601   0.956  10.367 -0.2283 -0.3708 -1.4636
29369SOL     OW93426   2.880   4.425   3.550 -0.2813 -0.0932  0.1890
29369SOL    HW193427   2.800   4.461   3.512 -1.2398 -2.7740 -0.5291
29369SOL    HW293428   2.850   4.379   3.629  0.8152  0.2621  0.8326
29370SOL     OW93429  10.073   0.881   3.988  0.7270  0.0019 -0.2338
29370SOL    HW193430  10.102   0.969   4.012 -2.7009  1.0358  0.7137
29370SOL    HW293431  10.073   0.833   4.071  0.0744 -0.0757 -0.2780
29371SOL     OW93432   9.365   5.522   6.573  0.4985 -0.2840 -0.5153
29371SOL    HW193433   9.347   5.596   6.630 -0.2468 -1.0141  0.2218
29371SOL    HW293434   9.303   5.455   6.600  1.6320 -1.4462 -0.6699
29372SOL     OW93435   4.027   8.922   5.911  0.0816 -0.2735 -0.7048
29372SOL    HW193436   4.120   8.905   5.929 -0.0279 -0.1066  0.0339
29372SOL    HW293437   4.027   9.000   5.856  0.3392  0.2348  0.0134
29373SOL     OW93438   9.246   7.147   6.743  0.3797 -0.1875 -0.2983
29373SOL    HW193439   9.312   7.114   6.682  0.4067 -0.0266 -0.3569
29373SOL    HW293440   9.282   7.230   6.774  0.2158 -0.1115 -0.3112
29374SOL     OW93441   1.317   6.850   7.645  0.2719  0.5080  0.3995
29374SOL    HW193442   1.297   6.936   7.607  0.6478  0.7608  0.7633
29374SOL    HW293443   1.239   6.827   7.694  0.4297  0.9703  0.8830
29375SOL     OW93444   8.982   4.094   4.726  0.3651 -0.3878 -0.4476
29375SOL    HW193445   9.027   4.019   4.765 -0.5037 -0.9584 -0.4996
29375SOL    HW293446   8.913   4.055   4.671 -0.7287  0.4469  0.2749
29376SOL     OW93447   4.241   2.768   9.405  0.2008 -0.1271  0.3304
29376SOL    HW193448   4.174   2.769   9.473 -0.9623  0.2627 -0.7723
29376SOL    HW293449   4.237   2.680   9.368  2.8556 -1.3553  2.6051
29377SOL     OW93450   9.554   4.397   3.785  0.2485 -0.2372 -0.2866
29377SOL    HW193451   9.538   4.399   3.691  1.8236  0.0282 -0.5825
29377SOL    HW293452   9.602   4.315   3.799  0.8150  0.1581  0.1355
29378SOL     OW93453   6.060  10.655   1.842 -0.3007  0.0100  0.2420
29378SOL    HW193454   6.103  10.695   1.766 -0.3166 -2.4882 -1.1803
29378SOL    HW293455   5.972  10.692   1.842  0.1839  1.2320  0.0540
29379SOL     OW93456   2.324   7.945  10.524 -0.3622  0.4245 -0.1414
29379SOL    HW193457   2.241   7.930  10.479 -0.1549 -0.2356 -0.3191
29379SOL    HW293458   2.304   7.932  10.617 -0.3366 -0.2953 -0.2344
29380SOL     OW93459   2.043  11.255   3.355 -0.1591  0.5242  0.6666
29380SOL    HW193460   2.060  11.337   3.401  2.6065 -0.2585  1.2300
29380SOL    HW293461   2.112  11.196   3.384 -0.6251 -1.2702 -1.5392
29381SOL     OW93462   2.369   8.370   3.567  0.2915  0.5228  0.1961
29381SOL    HW193463   2.456   8.357   3.531 -0.1778  0.8751 -1.1061
29381SOL    HW293464   2.374   8.333   3.656  1.4235 -0.5190 -0.2779
29382SOL     OW93465   6.288   0.453   3.346 -0.0998 -0.3014 -0.3484
29382SOL    HW193466   6.221   0.392   3.378 -0.4435  0.9727  1.5466
29382SOL    HW293467   6.343   0.401   3.289 -0.4980 -2.3581  1.0423
29383SOL     OW93468   8.146   8.234   9.362 -0.0879 -0.7350 -0.3477
29383SOL    HW193469   8.070   8.216   9.417 -1.6864  0.7917 -1.9732
29383SOL    HW293470   8.201   8.291   9.417 -1.0580 -0.2398  0.1383
29384SOL     OW93471   7.846   6.817   0.610  0.3830 -0.1928  0.1728
29384SOL    HW193472   7.753   6.809   0.590  0.5536  0.7064 -1.1151
29384SOL    HW293473   7.878   6.726   0.612 -0.8056 -0.6219  2.2876
29385SOL     OW93474   8.883   9.483   2.558  0.2081  0.0447 -0.1477
29385SOL    HW193475   8.816   9.452   2.497  1.6251 -3.3385 -0.1931
29385SOL    HW293476   8.855   9.449   2.643 -0.4238  2.5836  0.7614
29386SOL     OW93477   3.126   7.424  10.886 -0.7345  0.0637  0.1935
29386SOL    HW193478   3.048   7.458  10.842 -0.7478 -0.7079 -0.4010
29386SOL    HW293479   3.158   7.355  10.828 -0.7132 -0.9286  1.3413
29387SOL     OW93480  11.566  10.913   3.562  0.2920  0.2832 -0.0342
29387SOL    HW193481  11.643  10.967   3.577  0.1376  0.3791  0.4546
29387SOL    HW293482  11.595  10.845   3.502  0.6677  0.5117 -0.1142
29388SOL     OW93483   7.714   0.081  10.443  0.4329 -0.2579  0.2960
29388SOL    HW193484   7.621   0.098  10.457  0.5268  0.1450  0.4481
29388SOL    HW293485   7.716   0.013  10.376  0.0442  1.0819 -1.1385
29389SOL     OW93486   2.843   2.153   2.518  0.6042  0.4625 -0.4166
29389SOL    HW193487   2.938   2.151   2.508  0.4893  1.0675 -1.7731
29389SOL    HW293488   2.810   2.089   2.456  0.0682  1.2424 -0.9575
29390SOL     OW93489   1.793   9.642   5.273 -0.4692  0.2922  0.5646
29390SOL    HW193490   1.875   9.614   5.232 -1.2385 -0.1806 -0.6939
29390SOL    HW293491   1.777   9.576   5.341 -0.1394  0.0229  0.3816
29391SOL     OW93492   3.182   8.737   1.508 -0.2888 -0.1925 -0.5130
29391SOL    HW193493   3.258   8.793   1.523 -0.2759  0.0670 -1.5069
29391SOL    HW293494   3.182   8.722   1.414 -0.3646 -1.7666 -0.2903
29392SOL     OW93495   7.066  10.128  11.663 -0.3025 -0.1059  0.2853
29392SOL    HW193496   7.066  10.120  11.568  2.0067 -1.4448  0.3158
29392SOL    HW293497   7.128  10.199  11.681 -0.2068 -0.3171  0.8096
29393SOL     OW93498  10.732   6.619  10.565  0.5849  0.3460 -0.2069
29393SOL    HW193499  10.785   6.581  10.635  0.3673  1.6910  0.7290
29393SOL    HW293500  10.744   6.714  10.575 -1.8742  0.7090 -0.0314
29394SOL     OW93501  10.565   9.698   6.855  0.3182 -0.3472  0.3387
29394SOL    HW193502  10.585   9.788   6.882 -0.9687 -0.5484  2.0563
29394SOL    HW293503  10.651   9.655   6.854  0.6453  0.1243  2.5269
29395SOL     OW93504   2.087   7.217   3.541 -0.2777 -0.5140 -0.5123
29395SOL    HW193505   2.081   7.234   3.447  3.2136 -0.5681 -0.8702
29395SOL    HW293506   2.092   7.303   3.581 -0.9676 -0.5106 -0.4114
29396SOL     OW93507  10.157   9.138   1.386 -0.1398 -0.0563  0.2714
29396SOL    HW193508  10.065   9.130   1.413 -0.4421 -0.9598 -0.9445
29396SOL    HW293509  10.183   9.049   1.363 -0.0133  0.6305 -2.5704
29397SOL     OW93510   9.681   2.096   7.114 -0.0171  0.3066  0.2769
29397SOL    HW193511   9.717   2.184   7.116 -1.1042  0.8453 -1.4045
29397SOL    HW293512   9.756   2.039   7.097  0.7993  0.8028  2.0644
29398SOL     OW93513  11.152   9.460   8.752 -0.0752 -0.1726 -0.0928
29398SOL    HW193514  11.198   9.537   8.718 -0.0434 -0.7835 -1.5362
29398SOL    HW293515  11.069   9.494   8.785  0.1230  0.5378 -0.3112
29399SOL     OW93516   4.850   8.472  10.433 -0.0663 -0.0051 -0.1266
29399SOL    HW193517   4.797   8.508  10.362  1.3500  1.9045 -0.2998
29399SOL    HW293518   4.938   8.467  10.396  0.7261  1.1322  1.4933
29400SOL     OW93519   1.511   2.085   6.059  0.1178  0.1567 -0.5664
29400SOL    HW193520   1.450   2.057   6.127  0.2934  0.3092 -0.3435
29400SOL    HW293521   1.477   2.169   6.029  1.1990  1.1343  0.8282
29401SOL     OW93522  10.687   8.032   1.945  0.2949 -0.2430  0.1510
29401SOL    HW193523  10.660   8.016   1.854  0.2096 -0.5384  0.2284
29401SOL    HW293524  10.634   7.971   1.997  1.6642 -1.3998  0.2361
29402SOL     OW93525   7.291  10.739   8.375  0.4502  0.3327  0.5369
29402SOL    HW193526   7.386  10.750   8.377  0.6903 -1.3369 -0.1869
29402SOL    HW293527   7.273  10.677   8.445  0.1535 -0.8672 -0.5650
29403SOL     OW93528   4.715   0.554   6.980  0.0660 -0.0118  0.0084
29403SOL    HW193529   4.785   0.578   7.041  0.1813 -1.1075  0.3369
29403SOL    HW293530   4.634   0.573   7.027  0.1520 -0.1122  0.1965
29404SOL     OW93531   7.661   3.549   5.910 -0.0684 -0.4048  0.3632
29404SOL    HW193532   7.690   3.552   5.819 -1.6530 -1.5515 -0.2277
29404SOL    HW293533   7.572   3.584   5.908  0.1301  0.2389  1.6163
29405SOL     OW93534  10.297  10.386   9.282  0.2188 -0.2059  0.3971
29405SOL    HW193535  10.245  10.306   9.279 -0.7347  0.3492  1.4485
29405SOL    HW293536  10.242  10.449   9.328  1.2263  0.8572  0.1915
29406SOL     OW93537   6.850  10.062   0.566  0.1085  0.6810  0.7333
29406SOL    HW193538   6.943  10.059   0.543  0.4300  1.6742  1.7877
29406SOL    HW293539   6.848  10.101   0.653 -1.2251 -0.4346  1.2456
29407SOL     OW93540   9.822   6.223   0.046 -0.2993  0.1389  0.6308
29407SOL    HW193541   9.825   6.309   0.004  2.0224 -0.7372 -1.1949
29407SOL    HW293542   9.861   6.237   0.132  0.1521  0.9006  0.3141
29408SOL     OW93543   9.323   3.616  10.054  0.4445  0.0934  0.1087
29408SOL    HW193544   9.293   3.698  10.015 -0.3962  0.2862  1.1206
29408SOL    HW293545   9.336   3.557   9.980  0.8443  1.0654 -0.6172
29409SOL     OW93546   3.174   9.365   7.143  0.0260 -0.4007  0.0558
29409SOL    HW193547   3.159   9.293   7.082  0.0463 -1.2307  0.9972
29409SOL    HW293548   3.207   9.437   7.089  0.8423 -1.3779 -0.7701
29410SOL     OW93549   7.452   1.470   5.972  0.1785  0.2650  0.1542
29410SOL    HW193550   7.546   1.465   5.956  0.3880  0.1194  1.3587
29410SOL    HW293551   7.421   1.380   5.968 -0.3646  0.4808 -2.5906
29411SOL     OW93552   6.705   9.936  11.233  0.4035  0.6626  0.4548
29411SOL    HW193553   6.720   9.913  11.141  0.3125  0.4231  0.4992
29411SOL    HW293554   6.702   9.852  11.278  1.4323  0.8090  0.8241
29412SOL     OW93555   6.695   7.452   1.125 -0.2528 -0.1720 -0.0960
29412SOL    HW193556   6.674   7.474   1.035 -0.8635 -0.2083  0.0314
29412SOL    HW293557   6.668   7.528   1.176  1.0048  0.2580 -0.0385
29413SOL     OW93558   2.251   8.134  11.425 -0.1232  0.3476 -0.0005
29413SOL    HW193559   2.254   8.041  11.405  0.5313  0.7028 -1.7023
29413SOL    HW293560   2.169   8.165  11.386 -0.9640  0.2880  1.6338
29414SOL     OW93561   1.727  10.196   1.146 -0.0840 -0.3582  0.2305
29414SOL    HW193562   1.712  10.266   1.083 -2.9405  0.6684  1.8667
29414SOL    HW293563   1.813  10.161   1.123  1.0365  2.9963 -1.2964
29415SOL     OW93564   9.930   4.424   7.346  0.0742 -0.2211 -0.3722
29415SOL    HW193565   9.870   4.452   7.276 -0.5611 -0.7108 -0.0397
29415SOL    HW293566   9.960   4.505   7.386 -1.9779  0.0428  0.7861
29416SOL     OW93567   0.383   1.053   2.662  0.2174  0.2618 -0.5161
29416SOL    HW193568   0.452   1.020   2.605 -0.5420  0.6986 -1.7246
29416SOL    HW293569   0.341   0.974   2.697  0.6784 -0.0088 -0.5687
29417SOL     OW93570   4.551   9.679   4.075 -0.6344  0.0217 -0.2765
29417SOL    HW193571   4.520   9.645   4.159  0.3591 -2.6290 -0.8659
29417SOL    HW293572   4.630   9.729   4.097 -0.1482 -0.9892  0.3698
29418SOL     OW93573   1.042   4.908   4.736 -0.2411 -0.0896  0.5727
29418SOL    HW193574   0.991   4.905   4.817  0.6071  0.6441  1.1528
29418SOL    HW293575   1.114   4.967   4.756  0.2639 -0.3080 -0.5637
29419SOL     OW93576   1.828   9.224  11.086  0.1444  0.8094 -0.3159
29419SOL    HW193577   1.786   9.234  11.000  0.6689 -0.3340 -0.7194
29419SOL    HW293578   1.916   9.194  11.067 -0.3689 -1.5517  0.6528
29420SOL     OW93579   9.457   9.035  11.753  0.2966  0.5222  0.1068
29420SOL    HW193580   9.491   9.082  11.677  2.7733 -0.4250  0.5316
29420SOL    HW293581   9.407   8.962  11.715 -0.8669  1.6127 -0.5452
29421SOL     OW93582   9.511   3.687  10.556  0.0249  0.6000  0.0169
29421SOL    HW193583   9.540   3.608  10.602 -2.4286 -0.1570  0.3852
29421SOL    HW293584   9.536   3.672  10.465  0.8780  0.0706  0.3269
29422SOL     OW93585   3.175   3.247   5.103  0.2268  0.4925  0.5580
29422SOL    HW193586   3.197   3.240   5.196  0.5765 -1.1864  0.3863
29422SOL    HW293587   3.080   3.254   5.101  0.1740 -0.0540  1.0181
29423SOL     OW93588   3.505   1.777  11.561 -0.3599 -0.4265  0.4555
29423SOL    HW193589   3.477   1.697  11.516 -1.8494 -0.1272  0.7852
29423SOL    HW293590   3.508   1.844  11.493 -0.6415 -0.4197  0.4493
29424SOL     OW93591   4.968   5.783  11.811  0.2089  0.1959  0.6688
29424SOL    HW193592   5.017   5.702  11.800  0.7340  0.5598  0.2737
29424SOL    HW293593   4.925   5.797  11.727  0.3322  0.4617  0.6481
29425SOL     OW93594   1.079  11.543   9.614  0.0177 -0.5699 -0.0001
29425SOL    HW193595   0.990  11.533   9.648 -0.0976  2.6018  0.9399
29425SOL    HW293596   1.136  11.513   9.685 -0.2398 -2.7092 -0.6438
29426SOL     OW93597   4.136   9.513   8.635  0.1476  0.1289  0.2067
29426SOL    HW193598   4.231   9.509   8.637  0.2019  0.5326 -1.0142
29426SOL    HW293599   4.107   9.422   8.643  0.6622 -0.0999 -0.4788
29427SOL     OW93600   5.484  10.855   8.972  0.1999 -0.0529 -0.3115
29427SOL    HW193601   5.476  10.829   9.064  0.3424 -0.0463 -0.2969
29427SOL    HW293602   5.578  10.848   8.953  0.3724  1.3945 -0.0416
29428SOL     OW93603   4.906   2.444   6.299  0.1058 -0.6194 -0.4260
29428SOL    HW193604   4.847   2.508   6.339 -0.3026 -0.1915 -1.6469
29428SOL    HW293605   4.994   2.475   6.319 -0.0734 -0.7308  0.5911
29429SOL     OW93606   4.121   0.966   1.973  0.4183 -0.0521  0.0179
29429SOL    HW193607   4.136   0.889   1.918 -0.4377 -1.5838  1.8028
29429SOL    HW293608   4.135   1.041   1.915  0.4376 -1.5581 -2.0110
29430SOL     OW93609   2.209   9.130   7.359  0.2200  0.0454  0.2575
29430SOL    HW193610   2.192   9.086   7.442  0.2831  0.2529  0.3809
29430SOL    HW293611   2.148   9.089   7.297 -1.1917  1.2003  0.8185
29431SOL     OW93612   5.213   1.923   8.132 -0.0008 -0.8444 -0.3125
29431SOL    HW193613   5.199   1.833   8.161 -0.2584 -0.8489 -0.4477
29431SOL    HW293614   5.258   1.965   8.205 -1.1961 -0.6899  0.3633
29432SOL     OW93615   1.624   6.268   2.889  0.4708 -0.1420 -0.0086
29432SOL    HW193616   1.696   6.328   2.871  1.4290 -0.7849  1.5192
29432SOL    HW293617   1.664   6.196   2.937 -1.0769 -0.8635  0.2597
29433SOL     OW93618   1.218   8.279   8.898  0.3346 -0.2123 -0.2633
29433SOL    HW193619   1.200   8.206   8.838 -0.3256 -0.2795  0.0079
29433SOL    HW293620   1.169   8.257   8.977  1.2231 -0.1332  0.3156
29434SOL     OW93621   1.283   8.271   2.151 -0.3241 -0.2974 -0.3613
29434SOL    HW193622   1.261   8.185   2.186 -1.1141  0.6593  1.6384
29434SOL    HW293623   1.200   8.308   2.121 -0.6680  1.0651  1.9755
29435SOL     OW93624   6.260   0.239   4.834 -0.3284  0.6256 -0.3562
29435SOL    HW193625   6.274   0.327   4.797 -1.9056  1.2475  0.4140
29435SOL    HW293626   6.289   0.247   4.925  1.5394 -0.2949 -0.8297
29436SOL     OW93627  11.774   8.079   1.466  0.0105 -0.0494 -0.7787
29436SOL    HW193628  11.769   8.159   1.414 -1.9762 -0.1036 -0.7418
29436SOL    HW293629  11.703   8.087   1.530 -0.2989 -1.8584 -0.8427
29437SOL     OW93630   9.083   1.547   8.648  0.2236 -0.1751 -0.5678
29437SOL    HW193631   9.031   1.466   8.642 -0.7232  0.4485 -1.1174
29437SOL    HW293632   9.042   1.595   8.720  0.3062  0.1512 -0.7421
29438SOL     OW93633   1.373   3.061   1.685  0.2624  0.0207 -0.2110
29438SOL    HW193634   1.450   3.106   1.649 -0.2366  1.7506  0.7457
29438SOL    HW293635   1.337   3.012   1.612  0.2364  2.0646 -1.6495
29439SOL     OW93636   3.262   8.236   0.937  0.1924 -0.1366 -0.5888
29439SOL    HW193637   3.256   8.144   0.963 -1.1614  0.0089 -0.3058
29439SOL    HW293638   3.270   8.233   0.841 -3.0260 -0.5350 -0.9509
29440SOL     OW93639   2.437  11.391   2.207 -0.0271 -0.0601 -0.0658
29440SOL    HW193640   2.372  11.324   2.189  0.2977 -0.4454  0.1649
29440SOL    HW293641   2.516  11.361   2.161 -0.1155  0.5849 -0.6374
29441SOL     OW93642   1.814   2.476   8.399 -0.3676 -0.5331  0.7319
29441SOL    HW193643   1.740   2.465   8.458  0.9264 -0.7071  2.3700
29441SOL    HW293644   1.865   2.396   8.408  0.1183 -0.3631 -0.2821
29442SOL     OW93645   5.831  11.680   5.521  0.2181 -0.3464  0.5942
29442SOL    HW193646   5.761  11.664   5.458  1.2992 -0.2315 -0.6712
29442SOL    HW293647   5.788  11.727   5.593 -0.8155  0.6454 -0.6288
29443SOL     OW93648   8.074   0.563   3.417  0.4189  0.3181  0.5884
29443SOL    HW193649   7.997   0.525   3.460 -1.3637  1.0688 -1.7320
29443SOL    HW293650   8.063   0.658   3.427 -0.0881  0.5227 -1.4195
29444SOL     OW93651   6.280   4.448   6.004  0.0986 -0.2926 -0.2355
29444SOL    HW193652   6.324   4.379   6.054  0.3117  0.9073  1.3051
29444SOL    HW293653   6.345   4.479   5.941  0.4625 -0.5224  0.0303
29445SOL     OW93654   5.118   2.000   9.353 -0.6506 -0.0328 -0.2580
29445SOL    HW193655   5.042   2.058   9.362 -1.0095 -0.5931  0.5429
29445SOL    HW293656   5.081   1.916   9.327 -0.1675  0.0114 -1.1123
29446SOL     OW93657   6.325   2.070  11.479  0.3112  0.5587 -0.0597
29446SOL    HW193658   6.374   2.153  11.476  0.1552  0.7190  1.3427
29446SOL    HW293659   6.377   2.013  11.534  0.5083 -0.3722 -1.1664
29447SOL     OW93660   3.487   2.022   5.079 -0.0393 -0.7441  0.3278
29447SOL    HW193661   3.574   1.990   5.055 -0.3493 -0.1170 -1.8620
29447SOL    HW293662   3.427   1.971   5.025 -0.8454  0.5124 -0.0067
29448SOL     OW93663   7.771   5.814  11.649 -0.7300  0.8156  0.0395
29448SOL    HW193664   7.739   5.845  11.564 -1.0968  1.4456  0.3945
29448SOL    HW293665   7.825   5.886  11.681  0.6844 -0.0547 -0.3384
29449SOL     OW93666   1.041   5.841   9.609 -0.0734  0.9380  0.1092
29449SOL    HW193667   1.086   5.791   9.541  0.9964  1.4981  0.3827
29449SOL    HW293668   0.963   5.875   9.565  0.2219  0.6913 -0.6329
29450SOL     OW93669   0.749   9.444   5.462 -0.3206  0.2237  0.0739
29450SOL    HW193670   0.710   9.476   5.543 -1.4476 -1.2876  0.1632
29450SOL    HW293671   0.762   9.523   5.410  1.0514  1.3246  1.9455
29451SOL     OW93672   2.630   5.448  10.059  0.0062 -0.4716  0.0905
29451SOL    HW193673   2.658   5.440   9.967  1.7826  1.7647  0.3416
29451SOL    HW293674   2.594   5.362  10.081 -1.0381 -0.9012 -2.8570
29452SOL     OW93675   6.752   7.492   5.399 -0.3282  0.1977  0.1407
29452SOL    HW193676   6.741   7.585   5.422 -0.8767  0.3203 -0.5752
29452SOL    HW293677   6.743   7.446   5.482 -0.3392  0.7681  0.4635
29453SOL     OW93678   8.685   7.437   0.890 -0.0553  0.4374  0.3872
29453SOL    HW193679   8.767   7.445   0.840 -0.2518 -0.2058 -0.0431
29453SOL    HW293680   8.704   7.483   0.972  0.3470  1.3141 -0.1714
29454SOL     OW93681   8.742   5.652   7.548 -0.0270 -0.5292  0.3473
29454SOL    HW193682   8.757   5.743   7.574 -0.0921  0.0857 -1.6101
29454SOL    HW293683   8.681   5.618   7.614  0.1465  0.7706  1.2201
29455SOL     OW93684   6.164   4.543  11.030 -0.5770  0.1602  0.0685
29455SOL    HW193685   6.257   4.547  11.054 -0.5194 -1.4064  0.2545
29455SOL    HW293686   6.128   4.476  11.087 -1.9309  1.0278  0.2555
29456SOL     OW93687   9.442   9.020   9.794  0.4788 -0.4103 -0.3680
29456SOL    HW193688   9.477   9.018   9.883 -0.2900 -0.0715 -0.0483
29456SOL    HW293689   9.488   9.092   9.751 -1.1252  1.2607  0.6155
29457SOL     OW93690   4.972   5.790   2.566 -0.4490  0.1559 -0.3105
29457SOL    HW193691   5.040   5.850   2.597 -0.8559  0.4863 -0.0345
29457SOL    HW293692   4.968   5.722   2.633  2.9004 -2.5827 -2.5579
29458SOL     OW93693   9.850   7.311   2.152 -0.3760 -0.2418  0.0877
29458SOL    HW193694   9.788   7.384   2.159 -0.5487 -0.3335 -0.4159
29458SOL    HW293695   9.824   7.251   2.222 -0.0529  0.3060  0.6877
29459SOL     OW93696   8.693   9.386   4.103 -0.5848 -0.0289 -0.1782
29459SOL    HW193697   8.672   9.461   4.047 -0.1527  0.3466  0.1568
29459SOL    HW293698   8.769   9.415   4.154 -0.9608 -0.3667  0.5905
29460SOL     OW93699   2.080   1.330   7.971  0.6100  0.1112  0.5748
29460SOL    HW193700   2.144   1.261   7.986  2.3793  1.8632  1.6318
29460SOL    HW293701   2.108   1.401   8.029 -0.9065  1.8454 -0.7141
29461SOL     OW93702  10.529   5.018  10.182  0.2862  0.0141 -0.3874
29461SOL    HW193703  10.434   5.013  10.169  0.2886 -1.6081  0.0448
29461SOL    HW293704  10.540   5.023  10.277  0.6723 -1.9010 -0.3018
29462SOL     OW93705   2.660   6.519  11.731 -0.2155 -0.2519  0.4226
29462SOL    HW193706   2.568   6.492  11.732 -0.1385 -0.8504 -2.0131
29462SOL    HW293707   2.662   6.590  11.666  1.1378 -0.7318 -0.0819
29463SOL     OW93708  11.073   2.527   6.437 -0.7586 -0.0847 -0.3979
29463SOL    HW193709  11.066   2.622   6.431  0.6268  0.0548 -0.3086
29463SOL    HW293710  11.129   2.512   6.513  0.8776 -0.8422 -1.6783
29464SOL     OW93711   6.724   8.109   5.025  0.8088 -0.2137  0.0052
29464SOL    HW193712   6.654   8.138   5.084  1.0103 -0.5782  0.4278
29464SOL    HW293713   6.724   8.173   4.954  1.0554  0.6486  0.7735
29465SOL     OW93714   2.269   0.491  10.026 -1.1908  0.2616  0.3995
29465SOL    HW193715   2.174   0.497  10.013 -1.0651  0.8539 -0.2787
29465SOL    HW293716   2.283   0.522  10.115 -1.6704 -0.2191  0.6536
29466SOL     OW93717   7.131  10.611   5.205 -0.2898  0.3396 -0.0858
29466SOL    HW193718   7.136  10.705   5.192 -3.2352  0.6780  0.5283
29466SOL    HW293719   7.152  10.598   5.298  0.9101  0.2531 -0.3509
29467SOL     OW93720   9.950   4.504   8.874 -0.2882  0.0185  0.4150
29467SOL    HW193721   9.994   4.475   8.794 -0.3094  0.4886  0.2330
29467SOL    HW293722  10.007   4.473   8.945  0.6726  1.1450  0.1633
29468SOL     OW93723   3.885   9.293   4.339 -0.1106 -0.3395  0.0368
29468SOL    HW193724   3.940   9.258   4.269 -0.8791 -0.2335 -0.6322
29468SOL    HW293725   3.804   9.319   4.295  0.1761  1.6671  0.6174
29469SOL     OW93726   6.937   5.870   1.378  0.1108  0.0066  0.2264
29469SOL    HW193727   6.916   5.876   1.471 -0.6205 -1.9924  0.2301
29469SOL    HW293728   7.008   5.807   1.373 -1.0364 -1.2838 -0.6838
29470SOL     OW93729   4.410   9.064   1.769  0.4263  0.0773  0.0221
29470SOL    HW193730   4.337   9.056   1.708 -0.5120  0.2166  1.0826
29470SOL    HW293731   4.407   9.155   1.798  0.2443 -0.2289  0.9929
29471SOL     OW93732   6.039   6.191   5.523  0.2351  0.1140  0.0699
29471SOL    HW193733   6.068   6.122   5.462  0.3794  0.2925 -0.0655
29471SOL    HW293734   6.096   6.181   5.599 -1.1856 -1.3548  1.0205
29472SOL     OW93735   5.238   3.592   4.171 -0.2070  0.2453  0.7097
29472SOL    HW193736   5.273   3.522   4.116 -1.5857  0.5913 -0.6864
29472SOL    HW293737   5.279   3.672   4.139 -0.5168  0.3666  0.6049
29473SOL     OW93738  10.047  10.076   6.213  0.4123  0.4186 -0.1036
29473SOL    HW193739   9.963  10.122   6.216  0.1853 -0.0252  0.9229
29473SOL    HW293740  10.024   9.985   6.194  0.8718  0.7137 -2.2605
29474SOL     OW93741   4.991   4.645   6.013  0.1265 -0.8593 -0.3720
29474SOL    HW193742   4.901   4.620   5.990  0.4552 -1.4206 -1.0787
29474SOL    HW293743   5.035   4.657   5.929 -0.0060  2.2056 -0.1116
29475SOL     OW93744   6.814   8.373   5.148  0.3807 -0.1170  0.1032
29475SOL    HW193745   6.851   8.456   5.178 -0.7810  1.0583 -1.5182
29475SOL    HW293746   6.884   8.309   5.160  1.7578  1.3619  0.1878
29476SOL     OW93747   4.917  10.485   0.306  0.7292  0.6301 -0.1903
29476SOL    HW193748   4.978  10.446   0.244  1.2637  1.6224 -0.3082
29476SOL    HW293749   4.946  10.453   0.392  0.4098 -0.1898 -0.3792
29477SOL     OW93750   1.174   1.909   6.978  0.4234  0.1419 -0.2367
29477SOL    HW193751   1.134   1.968   7.042  0.0763 -1.0927  0.7121
29477SOL    HW293752   1.183   1.963   6.899  1.9043  2.0760  1.1345
29478SOL     OW93753   1.813   8.112   9.585  0.5387  0.1414 -0.3061
29478SOL    HW193754   1.817   8.029   9.538 -0.5907 -1.4803  2.2306
29478SOL    HW293755   1.904   8.141   9.591  1.1003 -1.4908 -0.3534
29479SOL     OW93756   4.576   9.369  11.790 -0.5078 -0.4490  0.1368
29479SOL    HW193757   4.592   9.306  11.861  0.3025  1.2115  1.5023
29479SOL    HW293758   4.486   9.399  11.805 -1.4829 -2.3146 -1.4462
29480SOL     OW93759  11.459   2.596   8.544 -0.5896  1.2372 -0.3587
29480SOL    HW193760  11.409   2.637   8.614  0.1296  0.1634  0.8213
29480SOL    HW293761  11.465   2.504   8.568 -0.1279  0.8781 -1.7206
29481SOL     OW93762   2.596  11.389   2.934  0.4436  0.3628 -0.0135
29481SOL    HW193763   2.566  11.475   2.963  1.5831  0.2900  1.5414
29481SOL    HW293764   2.640  11.352   3.011  1.3162 -0.9717 -1.1009
29482SOL     OW93765   8.752  11.279  11.356  0.0083  0.2461 -0.4920
29482SOL    HW193766   8.691  11.206  11.370 -1.0881  1.3959  1.1953
29482SOL    HW293767   8.727  11.314  11.271  1.7669 -2.3732 -2.2131
29483SOL     OW93768   8.445   5.548   1.468  0.3239  0.0673 -0.0955
29483SOL    HW193769   8.481   5.540   1.556 -0.0914  0.7975  0.1508
29483SOL    HW293770   8.379   5.617   1.475  0.4602  0.3109 -1.0370
29484SOL     OW93771   1.258   4.532   6.412  0.0167 -0.1514 -0.2572
29484SOL    HW193772   1.247   4.626   6.429 -1.3541 -0.2662 -0.4154
29484SOL    HW293773   1.334   4.507   6.466 -0.8726  0.6248  1.4276
29485SOL     OW93774   9.351   0.185   7.764 -0.3623 -0.2399  0.1219
29485SOL    HW193775   9.345   0.100   7.721 -1.5586  0.4725 -1.1863
29485SOL    HW293776   9.444   0.209   7.757 -0.1516 -1.0997 -0.1432
29486SOL     OW93777   1.352   6.642   0.212 -0.5107  0.2725 -0.3200
29486SOL    HW193778   1.444   6.661   0.197 -0.6260  1.0937 -0.0350
29486SOL    HW293779   1.344   6.548   0.199  0.4258  0.1499 -0.0404
29487SOL     OW93780   4.112   1.026   0.414 -0.1247  0.7206  0.6560
29487SOL    HW193781   4.121   0.953   0.476  0.7996 -0.6098 -0.9891
29487SOL    HW293782   4.201   1.057   0.400 -0.0960 -0.1759 -1.3605
29488SOL     OW93783   7.152   2.869   2.852 -0.3493 -0.5286 -0.2046
29488SOL    HW193784   7.127   2.962   2.844 -1.6764 -0.6746  1.5773
29488SOL    HW293785   7.225   2.859   2.791  0.0420  1.7648 -0.2335
29489SOL     OW93786   6.705   5.429   3.744  0.0271 -0.4164 -0.6638
29489SOL    HW193787   6.713   5.522   3.720 -0.6588 -0.2888 -0.4047
29489SOL    HW293788   6.671   5.387   3.665 -1.9764 -0.0397 -0.0421
29490SOL     OW93789   7.101   0.572  11.375 -0.4944 -0.0025  0.1403
29490SOL    HW193790   7.017   0.562  11.330 -0.2062 -0.8243 -0.2311
29490SOL    HW293791   7.121   0.485  11.408 -0.4655  0.4762  1.4702
29491SOL     OW93792   0.878   6.439   1.104  0.0202 -0.3582  0.4653
29491SOL    HW193793   0.865   6.396   1.188 -0.9604 -0.8432  0.0870
29491SOL    HW293794   0.797   6.488   1.090  0.9689  1.3475  0.7151
29492SOL     OW93795   2.886   1.021  11.279  0.4759  0.1153 -0.0141
29492SOL    HW193796   2.920   1.027  11.190 -0.0862 -1.3271 -0.3590
29492SOL    HW293797   2.884   0.927  11.298  0.2360  0.3714  1.3925
29493SOL     OW93798   2.366   8.383   4.243  0.3417  0.5306 -0.1679
29493SOL    HW193799   2.373   8.332   4.324 -0.7083 -0.6332 -0.7786
29493SOL    HW293800   2.341   8.471   4.272 -0.3711  0.0433  0.7555
29494SOL     OW93801  11.225   8.409   4.291 -0.3197  0.2963  0.3617
29494SOL    HW193802  11.236   8.485   4.348  0.8270  1.4083 -1.2511
29494SOL    HW293803  11.257   8.438   4.205  1.2946 -2.3439 -0.0539
29495SOL     OW93804   6.588   5.220   8.658  0.1937  0.1146  0.7878
29495SOL    HW193805   6.656   5.213   8.725 -0.2186  1.0065  1.3184
29495SOL    HW293806   6.550   5.132   8.655  1.5680 -0.4818  0.2431
29496SOL     OW93807  10.832   6.015   9.661  0.1560 -0.1734 -0.2668
29496SOL    HW193808  10.766   5.997   9.727  1.8514 -1.7557  1.1002
29496SOL    HW293809  10.851   6.108   9.671  1.1617 -0.5762  2.3156
29497SOL     OW93810   0.655   7.960  11.404 -0.0411 -0.0788 -0.0675
29497SOL    HW193811   0.714   7.979  11.331 -0.5710  0.1675 -0.4364
29497SOL    HW293812   0.567   7.967  11.367 -0.3137 -2.6368 -0.0952
29498SOL     OW93813   0.451   1.407  11.562  0.3907 -0.3059  0.6631
29498SOL    HW193814   0.454   1.489  11.513 -1.4906  0.3988  1.6106
29498SOL    HW293815   0.432   1.340  11.496  0.4164  0.2448  0.0871
29499SOL     OW93816   7.421   7.769   8.111  0.3440 -0.1345  0.1286
29499SOL    HW193817   7.489   7.836   8.119  0.4861 -0.2207 -0.3638
29499SOL    HW293818   7.460   7.690   8.149  0.5316 -0.1957 -0.1970
29500SOL     OW93819   6.042   3.045   5.523 -0.1091 -0.1838  0.5191
29500SOL    HW193820   6.004   3.129   5.548 -0.3431 -0.5418  1.3986
29500SOL    HW293821   5.970   2.999   5.479  0.0773  0.1494 -0.1389
29501SOL     OW93822   7.257   1.662   5.654 -0.5888  0.0804 -0.0906
29501SOL    HW193823   7.347   1.639   5.631 -0.1083  1.9702 -0.2462
29501SOL    HW293824   7.253   1.651   5.749  0.6924  2.6034  0.3401
29502SOL     OW93825   0.058   7.762   5.464 -0.2257 -0.2195 -0.1732
29502SOL    HW193826   0.070   7.845   5.509 -1.6964 -0.8373  1.4841
29502SOL    HW293827  -0.009   7.716   5.515  1.4430 -2.9755 -0.2341
29503SOL     OW93828  10.681  11.049   8.790  1.2201  0.3151  0.3915
29503SOL    HW193829  10.697  11.114   8.722 -0.6404  0.0828 -0.3161
29503SOL    HW293830  10.713  11.090   8.871  0.7026  1.8356 -0.1493
29504SOL     OW93831   0.306   5.033   8.136  0.0509  0.2687 -0.7508
29504SOL    HW193832   0.328   5.085   8.213  0.1339 -1.8174  0.7282
29504SOL    HW293833   0.326   4.943   8.162 -1.6026 -0.7024 -2.6027
29505SOL     OW93834   9.947   2.509  10.509 -0.3257  0.6600 -0.4674
29505SOL    HW193835   9.943   2.593  10.462 -0.2790  0.2055 -1.3137
29505SOL    HW293836   9.857   2.479  10.511 -0.4192  0.9699  0.3047
29506SOL     OW93837   7.065   5.794   3.096  0.1936 -0.4304 -0.2949
29506SOL    HW193838   7.095   5.756   3.179  0.0760  0.1292  0.0068
29506SOL    HW293839   7.026   5.720   3.049 -0.1349 -0.6624  0.3340
29507SOL     OW93840   3.085   0.372  11.687  0.3295 -0.2099  0.0440
29507SOL    HW193841   3.130   0.405  11.609  0.4353  1.4317  0.7781
29507SOL    HW293842   3.062   0.450  11.737  0.6444 -1.2319  1.8892
29508SOL     OW93843   3.208   4.093   9.417 -0.2476 -0.5409  0.2147
29508SOL    HW193844   3.256   4.175   9.431 -0.0788 -0.3278 -1.4646
29508SOL    HW293845   3.273   4.034   9.379 -1.0412 -0.5809 -1.1135
29509SOL     OW93846   1.106   4.246   9.521 -0.2027  0.4301 -0.0448
29509SOL    HW193847   1.030   4.206   9.564 -0.5498  2.6502  1.5605
29509SOL    HW293848   1.091   4.232   9.428 -1.4971 -1.0127  0.3463
29510SOL     OW93849   2.299   6.435   4.239  0.9365  0.5943 -0.1570
29510SOL    HW193850   2.230   6.391   4.190  0.7804  1.1316 -0.4254
29510SOL    HW293851   2.325   6.509   4.183  0.0771  1.8012  0.9984
29511SOL     OW93852   2.635   3.676   5.576 -0.4046 -0.9105 -0.2113
29511SOL    HW193853   2.552   3.636   5.600 -0.7406 -0.4365 -0.5571
29511SOL    HW293854   2.701   3.613   5.603 -0.8526 -1.0859  0.4985
29512SOL     OW93855   7.067   0.534   8.820 -0.2729 -0.3294  0.6978
29512SOL    HW193856   6.994   0.484   8.783  0.3597  0.0917 -1.2613
29512SOL    HW293857   7.037   0.561   8.907 -2.9848  0.8712 -0.4961
29513SOL     OW93858   6.635   7.141   0.800 -0.3169 -0.2479 -0.5416
29513SOL    HW193859   6.644   7.121   0.707 -1.5397  0.2546 -0.7901
29513SOL    HW293860   6.578   7.072   0.834 -1.7982  0.8301 -0.6962
29514SOL     OW93861   3.297  10.229  10.757  0.2908 -0.4501 -0.7650
29514SOL    HW193862   3.323  10.275  10.677  1.5220  1.9737  0.9045
29514SOL    HW293863   3.338  10.143  10.750  2.1281  0.4623 -1.8215
29515SOL     OW93864   1.716  10.297  10.022 -0.1831 -0.1559 -0.1869
29515SOL    HW193865   1.779  10.232  10.055 -0.8837 -0.1054  1.3313
29515SOL    HW293866   1.642  10.291  10.082 -0.2661  2.0697  0.0230
29516SOL     OW93867   4.358   5.085   2.589  0.5475 -0.5393 -0.0941
29516SOL    HW193868   4.275   5.133   2.598  1.3255  1.2913 -1.8840
29516SOL    HW293869   4.389   5.074   2.679 -0.8583  0.1617  0.5124
29517SOL     OW93870   2.417   4.010   8.045  0.1502 -0.0386 -0.2414
29517SOL    HW193871   2.501   4.015   8.091 -0.0897  0.0587  0.1901
29517SOL    HW293872   2.399   4.100   8.018  0.6050 -0.1948 -1.1070
29518SOL     OW93873   4.107   3.454   1.625  0.4213  0.0586 -0.0294
29518SOL    HW193874   4.159   3.479   1.701  0.3806 -0.1495  0.0658
29518SOL    HW293875   4.034   3.404   1.660  1.2651 -1.4489 -0.3334
29519SOL     OW93876   4.999   2.776   8.158  1.0220  0.0917 -0.1427
29519SOL    HW193877   4.920   2.738   8.196  1.8585 -0.1270  1.4860
29519SOL    HW293878   5.043   2.819   8.232  1.7357  1.4263 -1.2849
29520SOL     OW93879   3.165   7.579   1.591 -0.0372 -0.4434 -0.6775
29520SOL    HW193880   3.211   7.529   1.524 -0.6729 -2.3652  0.2527
29520SOL    HW293881   3.160   7.520   1.666 -1.4646  0.7670  0.2414
29521SOL     OW93882   8.326   7.121   2.611 -0.3516 -0.3143 -0.0186
29521SOL    HW193883   8.268   7.183   2.656 -0.2796 -0.5507  0.4150
29521SOL    HW293884   8.370   7.075   2.683  1.6007  0.9728 -0.3280
29522SOL     OW93885  10.563   8.476   8.644  0.1141 -0.0496 -0.1817
29522SOL    HW193886  10.492   8.420   8.674  0.9732 -0.8967  0.2858
29522SOL    HW293887  10.627   8.416   8.605  0.9615  0.6161  0.1557
29523SOL     OW93888   1.535  10.597   4.295 -0.6915  0.1510 -0.0821
29523SOL    HW193889   1.461  10.575   4.352 -0.9043  0.4729 -0.2322
29523SOL    HW293890   1.590  10.519   4.297 -1.3909 -0.3727 -0.5362
29524SOL     OW93891   1.738   4.580   3.264 -0.6504  0.1120 -0.5841
29524SOL    HW193892   1.675   4.545   3.200 -0.3081  0.3400 -1.0530
29524SOL    HW293893   1.691   4.579   3.347 -0.2269 -2.7311 -0.2778
29525SOL     OW93894   6.393   2.640   8.448  0.3480 -0.5425 -0.2938
29525SOL    HW193895   6.425   2.619   8.360 -0.1554 -0.0078 -0.6147
29525SOL    HW293896   6.298   2.628   8.442  0.2519  0.0508  0.0154
29526SOL     OW93897   5.292  11.676  11.703 -0.0575 -0.2126 -0.0965
29526SOL    HW193898   5.215  11.724  11.671 -0.7794 -1.6604 -0.5878
29526SOL    HW293899   5.317  11.723  11.784 -2.1653 -0.3950  0.7225
29527SOL     OW93900   6.311  10.283   8.822 -0.2132  0.1302  0.2623
29527SOL    HW193901   6.329  10.339   8.747 -2.3421 -0.3930 -0.7178
29527SOL    HW293902   6.289  10.344   8.893  0.1828  0.5789  0.0068
29528SOL     OW93903   6.524   7.828  11.818 -0.0070  0.0337  0.2596
29528SOL    HW193904   6.462   7.756  11.822 -0.6996  0.5837 -0.3713
29528SOL    HW293905   6.531   7.849  11.725  2.4416 -1.1274  0.0950
29529SOL     OW93906   6.174   2.220   7.682 -0.1261  0.6768 -0.2530
29529SOL    HW193907   6.192   2.285   7.749 -2.3578  0.6111  0.5159
29529SOL    HW293908   6.150   2.141   7.731  3.2325 -1.0849 -1.1341
29530SOL     OW93909   3.470   5.279   3.166  0.1515  0.7590  0.3024
29530SOL    HW193910   3.447   5.271   3.259 -0.9575  1.2279  0.0780
29530SOL    HW293911   3.423   5.208   3.123 -0.5160  1.4226 -0.0923
29531SOL     OW93912   0.911  10.133   8.541 -0.0604  0.2555  0.5050
29531SOL    HW193913   0.838  10.164   8.488 -0.4426 -2.1207 -0.4913
29531SOL    HW293914   0.987  10.180   8.507 -0.9727  2.3968  1.2365
29532SOL     OW93915   1.716   9.844  10.435 -0.0392 -0.5198  0.6184
29532SOL    HW193916   1.721   9.867  10.528  0.2419 -0.9157  0.7064
29532SOL    HW293917   1.622   9.836  10.417 -0.2092  1.4944  0.3661
29533SOL     OW93918  10.533   6.324   4.092 -0.0468 -0.2538  0.0500
29533SOL    HW193919  10.504   6.326   4.183 -1.2149 -0.5500 -0.2984
29533SOL    HW293920  10.473   6.263   4.049  1.0367 -0.8043 -0.7442
29534SOL     OW93921   6.356   2.015   1.409  0.0303 -0.0899 -0.2285
29534SOL    HW193922   6.369   1.922   1.389 -0.7607  0.1208 -1.9601
29534SOL    HW293923   6.261   2.025   1.415  0.1449  0.4311  0.9970
29535SOL     OW93924   6.656   3.168   0.502 -0.4450  0.1824  0.5101
29535SOL    HW193925   6.692   3.133   0.584  0.3262  1.7250  0.8686
29535SOL    HW293926   6.717   3.238   0.477 -1.2615  0.4506 -0.8146
29536SOL     OW93927   6.023  10.938  11.245  0.3250 -0.4425 -0.0850
29536SOL    HW193928   5.936  10.975  11.260  0.1442  0.1522 -2.2598
29536SOL    HW293929   6.015  10.846  11.272 -1.0310 -0.4516 -0.4394
29537SOL     OW93930   3.308   9.204   2.306  0.2184 -0.6733  0.3033
29537SOL    HW193931   3.340   9.267   2.370 -0.9095 -0.5733  0.7927
29537SOL    HW293932   3.378   9.138   2.299  1.3161  0.4877 -0.0490
29538SOL     OW93933   1.787   2.249   1.069 -0.4667  0.0413  0.2824
29538SOL    HW193934   1.708   2.285   1.110 -1.4912 -0.9029 -0.7494
29538SOL    HW293935   1.757   2.166   1.031  1.3672 -1.0255  1.0584
29539SOL     OW93936   5.173  10.293   2.077  0.5126  0.3249 -0.7064
29539SOL    HW193937   5.159  10.379   2.117 -0.2407 -0.4090  0.7025
29539SOL    HW293938   5.089  10.247   2.090  1.2572 -1.0058 -0.3930
29540SOL     OW93939  10.391   7.429   8.569 -0.4753 -0.0469  0.0300
29540SOL    HW193940  10.420   7.504   8.620 -1.2905  1.4100 -1.5559
29540SOL    HW293941  10.460   7.416   8.503 -1.1093  0.3906 -0.7372
29541SOL     OW93942   0.315   9.269   7.663 -0.3324  0.4605  0.1141
29541SOL    HW193943   0.309   9.276   7.568 -1.4771  0.9030  0.2043
29541SOL    HW293944   0.392   9.213   7.678  0.2463  0.9194 -1.0394
29542SOL     OW93945   8.549   4.278  10.729 -0.1258  0.4003  0.2250
29542SOL    HW193946   8.515   4.201  10.775 -0.2534  0.7087  0.6601
29542SOL    HW293947   8.579   4.336  10.800  0.9223  0.3122 -0.1239
29543SOL     OW93948   9.673   2.791   8.108 -0.0202 -0.5702 -0.3969
29543SOL    HW193949   9.741   2.856   8.088 -1.2622  1.6347  1.9768
29543SOL    HW293950   9.694   2.761   8.197 -2.9527  1.5249  1.1945
29544SOL     OW93951  10.501   6.597   7.985  0.0441  0.3455  0.1925
29544SOL    HW193952  10.408   6.577   7.994  0.1955 -0.3824  0.2751
29544SOL    HW293953  10.522   6.577   7.894 -0.3291  2.5739 -0.4236
29545SOL     OW93954   4.438   6.702   0.898  0.4630 -0.0232  0.5912
29545SOL    HW193955   4.366   6.639   0.895 -1.5849  1.9791  2.8430
29545SOL    HW293956   4.463   6.714   0.806 -0.9165 -2.0402 -0.1238
29546SOL     OW93957  10.981   3.634   7.467 -0.0955  0.8243 -0.0882
29546SOL    HW193958  10.960   3.621   7.375 -0.9626  0.0213  0.2050
29546SOL    HW293959  11.036   3.559   7.490 -0.0477  0.9131  0.0880
29547SOL     OW93960   3.808   1.318   4.613  1.2278  0.0769  0.5050
29547SOL    HW193961   3.898   1.290   4.598  1.2313 -0.3643  1.2904
29547SOL    HW293962   3.816   1.396   4.668  1.1377  0.1903  0.3577
29548SOL     OW93963   4.509   1.249  10.051 -0.5085  0.1717  0.0743
29548SOL    HW193964   4.508   1.306  10.128 -1.7254  0.1844  0.0733
29548SOL    HW293965   4.543   1.166  10.083 -1.9105 -0.1276  0.8896
29549SOL     OW93966   3.554   2.709   5.719  0.1774 -0.0949 -0.1347
29549SOL    HW193967   3.575   2.794   5.681  3.0657 -0.9593 -0.7569
29549SOL    HW293968   3.517   2.659   5.646  0.1449  0.0699 -0.2326
29550SOL     OW93969   5.162   9.905   6.814 -0.2162 -0.2927  0.2579
29550SOL    HW193970   5.130   9.823   6.853 -1.1620  0.1596  0.4638
29550SOL    HW293971   5.113   9.974   6.860 -1.4297  0.2714 -1.7344
29551SOL     OW93972   4.420   9.546   2.546 -0.2632 -0.2426  0.2655
29551SOL    HW193973   4.386   9.490   2.616 -0.0858 -0.9964 -0.2462
29551SOL    HW293974   4.345   9.561   2.488 -1.0964  2.4222  1.8587
29552SOL     OW93975   8.478  10.604   2.078 -0.1368 -0.7811  0.5197
29552SOL    HW193976   8.500  10.512   2.066  0.5853 -0.5829  0.2698
29552SOL    HW293977   8.458  10.612   2.172  0.7988 -0.9919  0.7444
29553SOL     OW93978   6.532   1.341  10.710 -0.3445  0.0992  0.6574
29553SOL    HW193979   6.549   1.340  10.615 -2.3145 -0.5267  0.2700
29553SOL    HW293980   6.590   1.410  10.743  0.3729  0.3517 -1.0016
29554SOL     OW93981   5.758   7.993   9.760 -0.2688 -0.4921 -0.6108
29554SOL    HW193982   5.837   8.017   9.808 -0.6710 -0.9413  0.3174
29554SOL    HW293983   5.790   7.949   9.682  0.4268 -2.1987  0.5657
29555SOL     OW93984   4.688   9.286   3.750  0.0569  0.0391  0.0020
29555SOL    HW193985   4.596   9.282   3.775 -0.0028  1.4756  0.1174
29555SOL    HW293986   4.715   9.195   3.740 -1.1358 -0.4277  0.8553
29556SOL     OW93987  11.140   9.993  10.364 -0.4851  0.1057 -0.0523
29556SOL    HW193988  11.059  10.040  10.340 -0.7656 -0.5986 -0.5095
29556SOL    HW293989  11.109   9.912  10.404  0.0046 -0.0720 -0.0370
29557SOL     OW93990   0.666   4.455   5.800 -0.2606  0.9154 -0.0648
29557SOL    HW193991   0.751   4.414   5.812  0.3588  0.9225 -3.3008
29557SOL    HW293992   0.615   4.429   5.876  1.7887 -1.3500  0.6592
29558SOL     OW93993   6.515   1.552   8.397 -0.3185 -0.4804  0.3664
29558SOL    HW193994   6.442   1.497   8.425 -1.3981 -0.0213 -1.3603
29558SOL    HW293995   6.526   1.531   8.304  0.5266  0.8026  0.1439
29559SOL     OW93996   0.303   5.302   5.691  0.5414 -0.3710  0.6318
29559SOL    HW193997   0.372   5.279   5.754  0.3292  0.8881  1.3493
29559SOL    HW293998   0.224   5.262   5.726  0.3037  0.8296  1.5190
29560SOL     OW93999   6.715   5.237   5.345  0.5276 -0.0135  0.1184
29560SOL    HW194000   6.662   5.235   5.425  1.6801 -1.3598  0.9054
29560SOL    HW294001   6.805   5.248   5.376  1.1810 -2.1326 -0.8371
29561SOL     OW94002   9.185   3.919   8.600 -0.2211  0.2697 -0.0175
29561SOL    HW194003   9.268   3.946   8.639  0.4725 -1.2085 -0.4104
29561SOL    HW294004   9.171   3.830   8.632 -0.4560 -0.3730 -1.8222
29562SOL     OW94005   3.396   6.995   0.584 -0.6217 -0.3613  0.0928
29562SOL    HW194006   3.334   7.009   0.512  0.2114 -1.5076 -0.8934
29562SOL    HW294007   3.471   7.049   0.562 -1.4161  1.4864  1.5873
29563SOL     OW94008   6.608   4.199  10.360 -0.2544 -0.0379 -0.3802
29563SOL    HW194009   6.681   4.216  10.420  0.3390 -0.6638 -0.9117
29563SOL    HW294010   6.649   4.187  10.274 -1.0526  0.3758 -0.8428
29564SOL     OW94011   6.857   5.033  10.082 -0.5742 -0.1738 -0.1970
29564SOL    HW194012   6.935   5.014  10.030  0.1494  0.4864  0.6128
29564SOL    HW294013   6.885   5.020  10.173 -0.7430  2.1827  0.2563
29565SOL     OW94014   2.077  11.091  11.365  0.4050 -0.5318 -0.1577
29565SOL    HW194015   1.996  11.142  11.355 -1.1662 -2.6648  0.6813
29565SOL    HW294016   2.146  11.156  11.372 -1.0597  1.3741 -2.1938
29566SOL     OW94017   3.825  10.895   8.008 -0.2569  0.5647  0.6280
29566SOL    HW194018   3.909  10.885   7.963 -1.4413  0.8826 -1.8473
29566SOL    HW294019   3.841  10.864   8.097  2.1979 -0.3905 -0.0717
29567SOL     OW94020   4.154   4.833  10.789  0.3683 -0.5248 -0.6372
29567SOL    HW194021   4.190   4.912  10.829 -0.1974 -1.2200  1.3905
29567SOL    HW294022   4.072   4.861  10.749 -0.4699 -0.2618  1.1768
29568SOL     OW94023   5.171   9.243   4.325 -0.4876  0.4363 -0.5460
29568SOL    HW194024   5.240   9.301   4.293 -0.8558  0.4931 -1.2416
29568SOL    HW294025   5.110   9.234   4.252 -1.9597  1.4958  0.5027
29569SOL     OW94026   5.972   9.303   6.081  0.4759 -0.1474 -0.0455
29569SOL    HW194027   6.012   9.306   5.995 -1.0278  1.3345 -0.7532
29569SOL    HW294028   5.973   9.394   6.111 -0.2124 -0.4404  0.9301
29570SOL     OW94029   0.250   4.355  10.349  0.2554 -0.2005  0.3394
29570SOL    HW194030   0.195   4.363  10.426  0.1800 -0.0572  0.2702
29570SOL    HW294031   0.203   4.296  10.291  0.1702 -0.0727  0.2774
29571SOL     OW94032   1.404   7.777   1.707 -0.3740 -0.4814 -0.3831
29571SOL    HW194033   1.471   7.718   1.673  0.2367 -0.1059  0.1586
29571SOL    HW294034   1.324   7.749   1.663 -0.0480 -1.5494 -0.3228
29572SOL     OW94035  10.404  11.547   7.478 -0.7887  0.0338 -1.0382
29572SOL    HW194036  10.437  11.612   7.415 -0.2002  1.2671  0.4555
29572SOL    HW294037  10.482  11.497   7.503 -0.6344  0.7764  0.0481
29573SOL     OW94038   3.384   7.617   0.160 -0.1464 -0.3303  0.2427
29573SOL    HW194039   3.298   7.638   0.198 -0.5178  0.2152 -0.8683
29573SOL    HW294040   3.377   7.524   0.137 -0.3634 -0.3401  0.3427
29574SOL     OW94041   8.935   9.296   6.469  0.3845 -0.1601  0.1400
29574SOL    HW194042   8.852   9.299   6.421  0.7318  0.4036 -0.4350
29574SOL    HW294043   8.980   9.219   6.435  0.0738 -0.5140  0.5106
29575SOL     OW94044   1.570   5.556   7.705  0.5203  0.7123  0.1636
29575SOL    HW194045   1.598   5.599   7.625  0.7353 -0.9922 -0.7119
29575SOL    HW294046   1.531   5.627   7.758  1.1691  2.0170 -1.0444
29576SOL     OW94047   0.303   0.979   1.951 -0.0466  0.2076  0.0779
29576SOL    HW194048   0.209   0.965   1.959  0.0207 -2.1015 -1.8977
29576SOL    HW294049   0.312   1.053   1.891 -0.6860 -0.9377 -1.5023
29577SOL     OW94050   4.519   7.019   2.237  0.1230 -0.1309  0.4855
29577SOL    HW194051   4.442   7.070   2.260 -0.4288 -0.7050 -0.0492
29577SOL    HW294052   4.504   6.992   2.146  0.6286 -0.8264  0.5983
29578SOL     OW94053  10.136   4.652   6.417 -0.6273 -0.3549  0.5490
29578SOL    HW194054  10.194   4.725   6.394 -0.6532 -0.7544 -0.8694
29578SOL    HW294055  10.049   4.690   6.419 -0.8257 -0.5920 -1.6195
29579SOL     OW94056  11.001   5.752   0.261 -0.2685  0.2833  0.2025
29579SOL    HW194057  11.069   5.800   0.308 -1.2374  0.9422  0.9586
29579SOL    HW294058  11.029   5.757   0.169  0.1883  1.4164  0.3797
29580SOL     OW94059   1.068   1.415   0.439  0.0410  0.1819  0.1445
29580SOL    HW194060   0.995   1.447   0.387 -1.4838 -0.4773  1.7637
29580SOL    HW294061   1.101   1.339   0.391  0.2479  0.9917 -1.0300
29581SOL     OW94062  10.735   6.075  11.341 -0.2879  0.3059 -0.0163
29581SOL    HW194063  10.746   6.105  11.431  3.4740 -0.3967 -0.0602
29581SOL    HW294064  10.737   6.155  11.288 -2.2534  0.6980  0.4276
29582SOL     OW94065   4.172   9.974   9.984  0.3193 -0.2296  0.8764
29582SOL    HW194066   4.185  10.063  10.017 -1.2279 -0.3808  1.9788
29582SOL    HW294067   4.078   9.962   9.984  0.4123 -1.2456 -1.0511
29583SOL     OW94068   5.726   3.023   5.507  0.4634 -0.1598 -0.4257
29583SOL    HW194069   5.713   3.012   5.601  1.5081  1.3987 -0.0478
29583SOL    HW294070   5.644   3.061   5.476 -0.0981 -1.2149 -0.2656
29584SOL     OW94071   8.543   8.146  11.598 -0.0316  0.0093 -0.0197
29584SOL    HW194072   8.602   8.092  11.650 -0.9233 -2.7377 -1.6432
29584SOL    HW294073   8.596   8.222  11.574  2.4706 -1.6896 -0.3306
29585SOL     OW94074   7.833   6.486  10.750 -0.0395 -0.1172  0.1406
29585SOL    HW194075   7.881   6.544  10.810 -2.4138  0.2001  1.8837
29585SOL    HW294076   7.853   6.520  10.663 -1.1229  3.2647  1.0675
29586SOL     OW94077   8.786   1.539   9.746 -0.1525 -0.0748 -0.1213
29586SOL    HW194078   8.751   1.574   9.664 -1.6252  1.2893  1.0231
29586SOL    HW294079   8.859   1.597   9.768  0.0271 -0.2350 -0.2893
29587SOL     OW94080   7.187   4.133   3.401  0.6187  0.0480 -0.2541
29587SOL    HW194081   7.188   4.135   3.305 -1.2754 -0.3024 -0.3208
29587SOL    HW294082   7.187   4.225   3.426  1.8386  0.1461 -0.5473
29588SOL     OW94083   1.227   2.002  11.817  0.0937 -0.1393  0.0747
29588SOL    HW194084   1.185   2.061  11.879  0.2075  0.2535 -0.2159
29588SOL    HW294085   1.203   1.914  11.846  1.8282 -0.0630  1.9129
29589SOL     OW94086   3.142   5.722   9.483  0.4385  0.1119 -0.3870
29589SOL    HW194087   3.120   5.812   9.506  4.4090  1.7569 -2.1265
29589SOL    HW294088   3.101   5.708   9.398 -0.3283  0.1684 -0.0354
29590SOL     OW94089   9.431   5.250   2.433 -0.1788 -0.3444  0.4714
29590SOL    HW194090   9.518   5.276   2.461 -1.0316  1.2918  1.7597
29590SOL    HW294091   9.384   5.233   2.515 -0.6023 -3.0306 -0.2182
29591SOL     OW94092  11.762   0.430   4.406  0.0857 -0.0700 -0.1811
29591SOL    HW194093  11.760   0.427   4.502 -1.1988  0.8202 -0.1426
29591SOL    HW294094  11.719   0.513   4.384  3.0642  1.2563 -1.4855
29592SOL     OW94095   4.131   9.305   7.708 -0.7160 -0.5473 -0.4081
29592SOL    HW194096   4.223   9.301   7.735 -0.2611 -0.7803 -1.8883
29592SOL    HW294097   4.082   9.297   7.790  0.5138  3.9547  1.0768
29593SOL     OW94098   2.156   8.101   4.343  0.0781  0.3866 -0.7255
29593SOL    HW194099   2.251   8.101   4.353 -0.0021  0.5929  0.1404
29593SOL    HW294100   2.123   8.087   4.432 -0.6937 -0.3588 -1.1229
29594SOL     OW94101   3.166   4.396   7.786 -0.2394 -0.5089 -0.1881
29594SOL    HW194102   3.177   4.325   7.849  1.2780  0.5633  0.8375
29594SOL    HW294103   3.184   4.356   7.701  1.0712 -1.2749  0.4193
29595SOL     OW94104   2.715  10.394   7.368  0.2644 -0.0982  0.6571
29595SOL    HW194105   2.782  10.326   7.362 -0.1320 -0.3570 -1.1483
29595SOL    HW294106   2.666  10.371   7.447  0.2375 -1.8364  0.1815
29596SOL     OW94107  10.445  10.413   9.057  0.0819 -0.1579  0.1187
29596SOL    HW194108  10.393  10.408   9.137 -0.0132 -0.5978  0.0343
29596SOL    HW294109  10.524  10.459   9.083 -0.5285  0.9049  0.1516
29597SOL     OW94110   4.143   6.914   8.366 -0.1202  0.0922  0.1213
29597SOL    HW194111   4.124   6.836   8.419 -0.1771 -2.0456 -2.8218
29597SOL    HW294112   4.133   6.884   8.276  3.3577  2.5983 -1.2732
29598SOL     OW94113   4.666   7.340   2.525 -0.2526  0.2676 -1.1362
29598SOL    HW194114   4.739   7.332   2.586  1.2239 -0.5135 -2.9347
29598SOL    HW294115   4.588   7.339   2.581  1.0741  0.6375  0.7901
29599SOL     OW94116  10.384   7.736   2.670  0.6689  0.3705 -0.1512
29599SOL    HW194117  10.346   7.808   2.721 -0.8787 -0.1951 -0.4642
29599SOL    HW294118  10.465   7.715   2.717  0.5836  1.5590  0.5921
29600SOL     OW94119   5.703   8.561   1.813  0.2529  0.1420  0.2421
29600SOL    HW194120   5.782   8.508   1.829  0.0062 -0.5184 -0.6369
29600SOL    HW294121   5.736   8.650   1.802  0.6398  0.2854  2.1616
29601SOL     OW94122   8.902   5.082   2.076 -0.5503 -0.4464 -0.5258
29601SOL    HW194123   8.885   5.085   1.982  1.4486 -0.0842 -0.9216
29601SOL    HW294124   8.987   5.124   2.086 -0.1626 -1.5681  1.3153
29602SOL     OW94125   0.179   7.097   1.938 -0.3402 -0.3870  0.2596
29602SOL    HW194126   0.227   7.099   1.855  1.2898  0.6484  1.1520
29602SOL    HW294127   0.098   7.144   1.921 -0.2693 -0.6567 -0.8791
29603SOL     OW94128   7.294   9.670   1.586 -0.6591 -0.1196 -0.1379
29603SOL    HW194129   7.361   9.688   1.652  1.0778  0.8823 -2.0636
29603SOL    HW294130   7.287   9.574   1.584 -1.0281 -0.1737  1.6855
29604SOL     OW94131   4.110   0.759   3.109 -0.1211  0.5212 -0.2747
29604SOL    HW194132   4.123   0.812   3.030 -0.0547 -0.3133 -0.8332
29604SOL    HW294133   4.074   0.676   3.077  1.1146 -0.3155  0.4301
29605SOL     OW94134   8.678   8.861   7.656 -0.1464  0.2544 -0.0130
29605SOL    HW194135   8.715   8.864   7.567 -0.3894  0.0161 -0.1254
29605SOL    HW294136   8.696   8.948   7.692 -3.0839  1.6364 -1.5399
29606SOL     OW94137   2.775   5.089   8.047  0.1467 -0.9162 -0.5038
29606SOL    HW194138   2.849   5.049   8.001 -0.1425 -1.9531 -0.0960
29606SOL    HW294139   2.784   5.059   8.138 -0.5892 -0.7863 -0.3853
29607SOL     OW94140   4.637   3.915   5.547 -0.1458  0.2427 -0.0397
29607SOL    HW194141   4.656   3.851   5.616  0.9140  2.5731  1.9595
29607SOL    HW294142   4.598   3.863   5.477 -2.9323 -2.0507  2.9013
29608SOL     OW94143   2.160   3.159   4.507 -0.5736  0.2316  0.0149
29608SOL    HW194144   2.251   3.168   4.479  0.3626 -0.2377  2.6307
29608SOL    HW294145   2.134   3.071   4.479  0.3328 -0.2484  0.6624
29609SOL     OW94146   8.484   1.304  11.400 -0.0714  0.1447  0.1349
29609SOL    HW194147   8.475   1.375  11.463  2.3871  1.1430 -0.5266
29609SOL    HW294148   8.532   1.236  11.447 -1.7876 -0.8623  0.5380
29610SOL     OW94149   2.136   5.447   1.538 -0.4385 -0.3300 -0.4914
29610SOL    HW194150   2.146   5.540   1.516 -1.7704 -0.1354 -0.3671
29610SOL    HW294151   2.215   5.425   1.587 -0.3954  0.9101  0.0267
29611SOL     OW94152   5.049   5.294   6.334 -0.2954  0.0360  0.2262
29611SOL    HW194153   5.044   5.233   6.260  0.3833  0.0945  0.1260
29611SOL    HW294154   5.023   5.241   6.410  0.5254 -0.4589  0.1791
29612SOL     OW94155   3.274   1.067   2.977 -0.4306 -0.1812 -0.0716
29612SOL    HW194156   3.185   1.101   2.970 -0.3669  0.5124  1.8332
29612SOL    HW294157   3.327   1.127   2.925 -0.8374  0.4904  0.2798
29613SOL     OW94158   7.775   0.332   2.766  0.3534  0.3365  0.3125
29613SOL    HW194159   7.826   0.398   2.813 -0.3779  1.1330  0.0085
29613SOL    HW294160   7.837   0.293   2.705  1.1025 -0.1229  1.3279
29614SOL     OW94161  10.480   9.167  10.879 -0.1644  0.2004 -0.2619
29614SOL    HW194162  10.465   9.075  10.902 -0.9389 -0.1978 -2.1407
29614SOL    HW294163  10.576   9.176  10.881 -0.0710 -0.6923 -0.1834
29615SOL     OW94164  10.270   8.205  10.878 -0.2184  0.1596  0.2702
29615SOL    HW194165  10.342   8.266  10.864  0.7215 -0.7143  1.1440
29615SOL    HW294166  10.244   8.218  10.969 -0.9274  0.2078  0.0686
29616SOL     OW94167   6.166  11.755   5.249  0.2109 -0.0360 -0.4656
29616SOL    HW194168   6.147  11.714   5.164 -1.0860 -0.1931 -0.1286
29616SOL    HW294169   6.245  11.806   5.234 -1.1605  1.7190 -2.3867
29617SOL     OW94170   1.474   1.454   0.320  0.5911  0.0393 -0.1709
29617SOL    HW194171   1.399   1.426   0.267  0.3523  0.0119  0.1745
29617SOL    HW294172   1.454   1.545   0.342 -0.0036 -0.3582  1.0391
29618SOL     OW94173   4.955   9.835  10.387 -0.0526  0.3175 -0.3733
29618SOL    HW194174   4.991   9.747  10.397  0.6840  0.7440  0.9684
29618SOL    HW294175   4.894   9.845  10.460 -0.2607  0.8501 -0.6149
29619SOL     OW94176   2.677  11.769   7.959 -0.6915 -0.0814  0.2041
29619SOL    HW194177   2.614  11.759   7.889 -2.0464 -0.9229  1.4822
29619SOL    HW294178   2.628  11.746   8.039  0.8591  0.5361  1.3850
29620SOL     OW94179   8.666   7.951  10.394  0.3101  0.4745  0.4666
29620SOL    HW194180   8.580   7.994  10.401 -0.1361 -0.3570  0.2980
29620SOL    HW294181   8.671   7.897  10.473  0.5905  0.3605  0.3685
29621SOL     OW94182   3.671   5.484   8.008  0.3732 -0.0227  0.3970
29621SOL    HW194183   3.613   5.428   8.060 -0.0457  0.8265  0.8681
29621SOL    HW294184   3.759   5.463   8.039  0.1487  0.2529  1.2435
29622SOL     OW94185   4.566   2.834   6.876  0.1049  0.5734  0.3720
29622SOL    HW194186   4.566   2.771   6.948  0.5795 -0.3524 -0.4227
29622SOL    HW294187   4.473   2.857   6.865  0.0020  0.5449  1.1078
29623SOL     OW94188   2.956   0.228   2.109  0.1263  0.5081  0.1268
29623SOL    HW194189   2.998   0.154   2.066  1.2254  0.9735  0.3621
29623SOL    HW294190   2.976   0.216   2.202  0.7177  1.3413  0.1170
29624SOL     OW94191  11.665   1.836   5.371 -0.2324  0.0481  0.3115
29624SOL    HW194192  11.735   1.845   5.436  0.4210 -1.3659 -0.1419
29624SOL    HW294193  11.584   1.836   5.422  0.0283  2.0960  0.8158
29625SOL     OW94194   3.101   1.454   7.231  0.2278 -0.3406  0.2929
29625SOL    HW194195   3.070   1.385   7.172 -1.1561  0.4974 -0.0169
29625SOL    HW294196   3.176   1.492   7.185 -0.9209  0.3977 -1.0405
29626SOL     OW94197   9.825   9.929   5.201 -0.2489  0.6215  0.3660
29626SOL    HW194198   9.860   9.912   5.288 -0.1332  0.2821  0.2555
29626SOL    HW294199   9.730   9.927   5.213 -0.2461  1.5988  0.6753
29627SOL     OW94200   4.590   2.286  11.007  0.5320  0.5423 -0.2697
29627SOL    HW194201   4.580   2.333  10.924  2.1307 -0.1291 -0.8927
29627SOL    HW294202   4.653   2.339  11.056  1.7809 -0.4767 -0.6830
29628SOL     OW94203  10.667   6.717   5.645  0.1906  0.2832 -0.7842
29628SOL    HW194204  10.635   6.805   5.666 -2.0139 -0.8851  1.1549
29628SOL    HW294205  10.651   6.708   5.551 -3.2514  0.6442 -0.3710
29629SOL     OW94206   0.453   8.360   1.171 -0.0172 -0.1238 -0.0684
29629SOL    HW194207   0.390   8.432   1.179  0.6958  0.5635 -0.5766
29629SOL    HW294208   0.428   8.314   1.091  0.3881  0.4044 -0.4974
29630SOL     OW94209   7.131   3.446  10.037 -0.6855 -0.8547 -0.7499
29630SOL    HW194210   7.169   3.367   9.997 -0.6741 -0.6815 -1.0901
29630SOL    HW294211   7.207   3.502  10.055 -0.8153 -0.0826 -2.3492
29631SOL     OW94212  11.510  11.196   3.217  0.1641 -0.0806 -0.1547
29631SOL    HW194213  11.485  11.129   3.154 -0.0503 -1.4779  1.3608
29631SOL    HW294214  11.602  11.214   3.197 -0.1521  0.2126 -1.4555
29632SOL     OW94215   7.081   2.099   4.596 -0.0895  0.4554 -0.2055
29632SOL    HW194216   7.040   2.074   4.679 -1.5990  0.6125 -0.8804
29632SOL    HW294217   7.036   2.179   4.570  0.9771  0.8962 -0.7516
29633SOL     OW94218   2.075   7.556  10.993  0.4004  0.1584  0.5031
29633SOL    HW194219   1.995   7.606  11.010  0.5566 -0.0850  2.0859
29633SOL    HW294220   2.076   7.545  10.898 -1.4179  0.2165  0.4432
29634SOL     OW94221   5.315   2.219   7.226  0.0602 -0.1809  1.1548
29634SOL    HW194222   5.242   2.231   7.287 -0.2766 -0.6105  0.8453
29634SOL    HW294223   5.337   2.308   7.197 -0.7348 -0.0915  0.8038
29635SOL     OW94224   0.234   1.446   6.725 -0.1046  0.0935  0.2642
29635SOL    HW194225   0.162   1.414   6.672 -1.9158  0.4507  2.3506
29635SOL    HW294226   0.301   1.378   6.718 -0.7929 -0.4738 -1.3742
29636SOL     OW94227   0.521   5.229   8.072  0.5872 -0.4946  0.2332
29636SOL    HW194228   0.462   5.156   8.055  1.2763 -0.6538 -1.6723
29636SOL    HW294229   0.544   5.262   7.986  2.5940  0.1233  0.9502
29637SOL     OW94230   3.857   2.344   8.534 -0.0854 -0.7180 -0.1608
29637SOL    HW194231   3.803   2.422   8.539 -0.8028 -1.2758  1.6438
29637SOL    HW294232   3.922   2.364   8.467 -1.2839  0.7442 -0.9547
29638SOL     OW94233   4.002   4.317   1.896 -0.0465 -0.2959 -0.3440
29638SOL    HW194234   3.922   4.265   1.893 -1.0289  1.1762 -1.8980
29638SOL    HW294235   4.071   4.255   1.918 -1.6561 -1.5319  1.5139
29639SOL     OW94236  10.821   5.888   7.483 -0.4519 -0.2532 -0.0611
29639SOL    HW194237  10.858   5.977   7.485  0.2097 -0.4965 -0.9991
29639SOL    HW294238  10.736   5.898   7.440 -0.5648 -0.0144  0.2137
29640SOL     OW94239   0.199   4.683   0.254  0.2903 -0.0626 -0.2221
29640SOL    HW194240   0.232   4.737   0.182 -1.0441  0.0205 -0.8026
29640SOL    HW294241   0.251   4.603   0.250  1.9818  0.9591  0.3639
29641SOL     OW94242  10.815   9.433  11.617  0.5811 -0.1444 -0.4837
29641SOL    HW194243  10.729   9.469  11.595  0.1211  0.5925  2.1531
29641SOL    HW294244  10.844   9.485  11.692  3.2865 -0.4728 -1.2174
29642SOL     OW94245   4.483   7.071   4.102  0.3243 -0.1624 -0.1536
29642SOL    HW194246   4.569   7.086   4.139  0.1525 -0.7583  0.4964
29642SOL    HW294247   4.487   7.112   4.015  0.1842  2.7696  1.1186
29643SOL     OW94248   4.941   7.557   9.677 -0.0956  0.2568 -0.4713
29643SOL    HW194249   4.953   7.583   9.585 -1.6109  2.4665 -0.1190
29643SOL    HW294250   5.030   7.546   9.710  0.5054 -2.0362 -2.5034
29644SOL     OW94251   8.972   6.217   8.418  0.1424 -0.2249 -0.4592
29644SOL    HW194252   8.901   6.189   8.476 -1.2763  2.9678 -0.4307
29644SOL    HW294253   8.929   6.232   8.334  1.6428 -2.0727 -1.6405
29645SOL     OW94254  11.695   2.892   6.417  0.0425  0.3998  0.4718
29645SOL    HW194255  11.631   2.886   6.488 -1.8122  2.1488 -0.9529
29645SOL    HW294256  11.778   2.911   6.462 -0.4626 -1.3044  2.3094
29646SOL     OW94257   2.795   7.617   6.449  0.4067 -0.2928  0.1674
29646SOL    HW194258   2.820   7.530   6.480 -0.9584 -0.6647  0.2637
29646SOL    HW294259   2.710   7.634   6.490 -0.2554  0.2664 -1.3672
29647SOL     OW94260  10.699   0.349   9.881 -0.2337  0.2621 -0.3635
29647SOL    HW194261  10.740   0.367   9.966 -0.3831 -2.8952  0.4952
29647SOL    HW294262  10.698   0.434   9.836  2.4738  1.4647  1.6158
29648SOL     OW94263   4.740   6.029   3.324  0.6867 -0.2012  0.5537
29648SOL    HW194264   4.758   5.947   3.278  0.8735  0.6480 -0.9523
29648SOL    HW294265   4.693   6.082   3.260  0.3596  0.7774  1.5880
29649SOL     OW94266   8.578  11.000  10.213  0.3689 -0.0319  0.6271
29649SOL    HW194267   8.550  10.912  10.187  0.3744  0.1391  0.0308
29649SOL    HW294268   8.576  10.998  10.309 -0.9573 -0.2637  0.6156
29650SOL     OW94269   8.895   6.316   6.215 -0.4881  0.1948  0.3913
29650SOL    HW194270   8.841   6.312   6.137  2.0966  1.7546 -1.6225
29650SOL    HW294271   8.923   6.225   6.230  0.4345  0.1233 -1.6026
29651SOL     OW94272  10.594   5.524   4.780 -0.1848 -0.0700  0.0939
29651SOL    HW194273  10.509   5.568   4.781  0.3446  0.9764  0.9556
29651SOL    HW294274  10.586   5.454   4.845 -1.2862 -1.8248 -1.8259
29652SOL     OW94275   9.072   0.653   1.291 -0.5046  0.2452  0.2243
29652SOL    HW194276   9.064   0.749   1.292 -0.2261  0.2713 -0.0190
29652SOL    HW294277   8.995   0.623   1.242  0.8415  0.5002 -2.1759
29653SOL     OW94278   0.209   1.313   0.569  0.1629  0.6086  0.0989
29653SOL    HW194279   0.194   1.265   0.650  1.9335  0.9927  0.7208
29653SOL    HW294280   0.170   1.399   0.584  0.2865  0.6005  0.4676
29654SOL     OW94281   2.201   7.072   1.577 -0.5850  0.1872  0.1292
29654SOL    HW194282   2.156   7.150   1.610 -0.7236  1.4030 -2.6699
29654SOL    HW294283   2.286   7.072   1.622 -0.1097  2.6812 -0.6079
29655SOL     OW94284   8.607   4.510   6.857  0.1963 -0.5880  0.1927
29655SOL    HW194285   8.595   4.426   6.901  0.9584 -0.5848  0.4093
29655SOL    HW294286   8.669   4.558   6.912  0.3583 -0.1785 -0.3368
29656SOL     OW94287   3.260   8.263   5.549  0.1389 -0.0714  0.2382
29656SOL    HW194288   3.331   8.297   5.494 -0.5049 -0.1814 -0.6874
29656SOL    HW294289   3.196   8.229   5.486 -1.6381  1.7909  0.9555
29657SOL     OW94290   2.267   5.085   9.877  0.1588 -0.6757 -0.1588
29657SOL    HW194291   2.220   5.123   9.952 -0.0657 -1.2938  0.0213
29657SOL    HW294292   2.265   5.153   9.811 -0.3339 -0.4087  0.1233
29658SOL     OW94293  11.026   4.217   4.104 -0.2505  0.4128 -0.0726
29658SOL    HW194294  10.983   4.195   4.021  0.2406  1.1082 -0.5261
29658SOL    HW294295  11.102   4.159   4.107  1.1210  2.0215 -1.3357
29659SOL     OW94296   7.154   1.204   2.177  0.7194  0.8051 -0.4806
29659SOL    HW194297   7.226   1.265   2.191  0.5993  0.9992 -0.7050
29659SOL    HW294298   7.093   1.250   2.119  0.2014  0.8138  0.0544
29660SOL     OW94299   7.486   1.774  10.388 -0.1898  0.2419  0.1663
29660SOL    HW194300   7.410   1.718  10.406 -0.2960  0.5616  0.7335
29660SOL    HW294301   7.535   1.776  10.470 -1.0272  2.2549  0.6917
29661SOL     OW94302   5.847   0.378   2.896  0.4950  0.2690  0.1218
29661SOL    HW194303   5.920   0.369   2.958  0.6264 -1.5567 -0.2164
29661SOL    HW294304   5.881   0.339   2.815  0.2451  2.3746 -1.0605
29662SOL     OW94305   7.168   6.131   9.259  0.2140 -0.3663  1.0017
29662SOL    HW194306   7.101   6.128   9.192  0.9326  0.3595  0.2233
29662SOL    HW294307   7.154   6.052   9.311 -0.1007 -1.1581 -0.2506
29663SOL     OW94308   6.945   5.003   6.655  0.3238 -0.2347  0.1996
29663SOL    HW194309   6.972   5.061   6.726  0.6764 -1.0287  0.7262
29663SOL    HW294310   6.972   5.049   6.576 -0.6607  0.9592  0.5327
29664SOL     OW94311   6.742   9.822   7.111 -0.0363  0.4698 -0.3619
29664SOL    HW194312   6.776   9.911   7.123 -0.1454  0.6643 -1.4161
29664SOL    HW294313   6.819   9.767   7.102  0.0661  0.2756  1.2753
29665SOL     OW94314   4.179   9.265  11.763  0.2376  1.0609 -0.5229
29665SOL    HW194315   4.204   9.356  11.753 -0.7673  1.3332 -0.6293
29665SOL    HW294316   4.125   9.246  11.686  1.4916 -0.0051 -1.1818
29666SOL     OW94317   1.399   5.735   7.872  0.3144 -0.0669  0.2556
29666SOL    HW194318   1.393   5.819   7.826  2.5407  1.0422  1.8804
29666SOL    HW294319   1.308   5.713   7.891 -0.3081  2.4070  0.5277
29667SOL     OW94320  11.516   6.403   4.839  0.7065  0.2008  0.4713
29667SOL    HW194321  11.561   6.480   4.875  0.4665  0.3759  0.4002
29667SOL    HW294322  11.442   6.439   4.791  0.9968 -0.0314 -0.1621
29668SOL     OW94323   7.644   4.656  10.205  0.4244 -0.0905  0.0422
29668SOL    HW194324   7.611   4.733  10.250  0.9931  1.1754 -1.5886
29668SOL    HW294325   7.566   4.606  10.181 -0.0531  0.6982 -0.0791
29669SOL     OW94326  11.310   6.795   7.206  0.1427 -0.0763  0.1813
29669SOL    HW194327  11.406   6.793   7.207  0.1728  1.0859  0.4987
29669SOL    HW294328  11.285   6.711   7.243  1.0185 -1.0444 -1.2907
29670SOL     OW94329   5.690   6.287   9.018  0.1142  0.2865  0.8952
29670SOL    HW194330   5.747   6.285   8.941 -0.7257  2.4558  0.1514
29670SOL    HW294331   5.741   6.243   9.086  0.8981 -1.6631 -0.8382
29671SOL     OW94332  11.247  11.422   3.251  0.5986 -0.1583 -0.7228
29671SOL    HW194333  11.307  11.350   3.271 -0.4024 -0.9154 -0.3479
29671SOL    HW294334  11.234  11.467   3.334 -0.1053 -0.5987 -0.5856
29672SOL     OW94335   1.824   7.637  11.151  0.0033  0.3693 -0.1362
29672SOL    HW194336   1.796   7.546  11.146  1.0975  0.0805 -2.1093
29672SOL    HW294337   1.856   7.648  11.240  2.2540 -1.9640 -0.5615
29673SOL     OW94338   2.520   9.814   4.623  0.0399  0.0472  0.2818
29673SOL    HW194339   2.448   9.756   4.598 -0.4477  0.6186  0.3413
29673SOL    HW294340   2.493   9.850   4.708 -0.3107  1.4019 -0.3769
29674SOL     OW94341   8.471   2.623  10.642 -0.0347 -0.0879  0.6927
29674SOL    HW194342   8.489   2.601  10.551 -1.5971 -1.3317  0.6533
29674SOL    HW294343   8.474   2.719  10.645  0.2940 -0.0471 -0.5878
29675SOL     OW94344  11.276  11.219   9.429 -0.1444 -0.1194 -0.1167
29675SOL    HW194345  11.313  11.294   9.382  2.6427 -1.0999  0.3353
29675SOL    HW294346  11.219  11.259   9.496  0.2631  1.5215 -0.6930
29676SOL     OW94347   0.080   8.673   2.152 -0.3071 -0.0289  0.0096
29676SOL    HW194348   0.008   8.657   2.091 -0.0238  0.4177 -0.4520
29676SOL    HW294349   0.119   8.587   2.168 -0.6058 -0.1954 -0.1605
29677SOL     OW94350   4.524   9.822   7.213 -0.2212 -0.1263  0.0777
29677SOL    HW194351   4.560   9.904   7.245 -0.5948  0.4310 -0.8736
29677SOL    HW294352   4.576   9.802   7.135 -0.6706 -0.3495 -0.1690
29678SOL     OW94353   5.962   9.238   4.177  0.0079 -0.2302  0.5578
29678SOL    HW194354   5.876   9.236   4.219 -0.1084  1.5423  0.4633
29678SOL    HW294355   5.952   9.300   4.105  1.4946  0.3444  0.8230
29679SOL     OW94356  10.616   4.951   3.336 -0.1575 -0.4484 -0.1368
29679SOL    HW194357  10.522   4.967   3.333 -0.1774 -0.0520  1.4647
29679SOL    HW294358  10.644   4.954   3.245 -1.6853 -0.5453 -0.6339
29680SOL     OW94359   3.566   0.502   8.284  0.3230 -0.1882 -0.0433
29680SOL    HW194360   3.627   0.570   8.315 -0.5829  0.6398 -0.0235
29680SOL    HW294361   3.601   0.421   8.320  2.1704  0.0644 -1.1316
29681SOL     OW94362   6.524   0.622   9.709  0.0448  0.3275 -0.1781
29681SOL    HW194363   6.573   0.582   9.781  2.1785  0.2339 -1.5666
29681SOL    HW294364   6.552   0.714   9.709  0.0447  0.3340 -0.8426
29682SOL     OW94365   5.058   6.695   4.104 -0.6039 -0.1765  0.1068
29682SOL    HW194366   5.080   6.604   4.086 -1.5045 -0.3146 -0.3385
29682SOL    HW294367   5.006   6.723   4.029  1.7480  1.4927 -1.0122
29683SOL     OW94368  11.363  10.241   3.859  0.0582 -0.3190  0.1026
29683SOL    HW194369  11.380  10.332   3.837  0.7174 -1.0255 -2.8290
29683SOL    HW294370  11.271  10.226   3.834  0.9915 -1.2938 -3.3212
29684SOL     OW94371   0.953   4.233   6.248 -0.4513 -1.0251  0.5890
29684SOL    HW194372   0.918   4.153   6.209  0.0871 -0.9824  0.0053
29684SOL    HW294373   0.944   4.219   6.342  0.3089 -2.0878  0.5237
29685SOL     OW94374   1.879   3.219  11.550 -0.1108  0.8313 -0.3881
29685SOL    HW194375   1.930   3.231  11.630  0.4638 -0.8050 -0.4744
29685SOL    HW294376   1.911   3.286  11.491  1.6055  0.1815 -0.2534
29686SOL     OW94377   3.172   9.838  10.909 -0.0642 -0.0327 -0.1402
29686SOL    HW194378   3.102   9.799  10.961  0.0726 -1.5201 -1.0081
29686SOL    HW294379   3.147   9.930  10.901 -0.5946  0.0280  1.6732
29687SOL     OW94380  11.581   9.708   1.617 -0.4365 -0.3103  0.0407
29687SOL    HW194381  11.601   9.752   1.700  1.1156 -0.5695 -0.1634
29687SOL    HW294382  11.514   9.763   1.576  1.2242  1.7537 -0.0730
29688SOL     OW94383   3.265  11.021   7.125 -0.1684  0.2692 -0.1372
29688SOL    HW194384   3.337  10.963   7.099  0.8857  0.4319  2.1871
29688SOL    HW294385   3.293  11.108   7.095 -0.3639  0.0547 -0.9862
29689SOL     OW94386   0.248   1.707   7.033 -0.1093  0.4997  0.0877
29689SOL    HW194387   0.282   1.795   7.048  0.3150  0.0005  2.3615
29689SOL    HW294388   0.313   1.667   6.974  0.4947  1.2391  0.2314
29690SOL     OW94389   7.824   8.466   0.177 -0.2199 -0.1118 -0.2004
29690SOL    HW194390   7.855   8.460   0.267 -2.1010 -2.0711  0.4038
29690SOL    HW294391   7.871   8.396   0.130  0.7815  0.9231 -0.8042
29691SOL     OW94392   8.437   1.711  11.264 -0.2793 -0.1370 -0.5119
29691SOL    HW194393   8.489   1.632  11.277  0.0257 -0.4819 -3.2810
29691SOL    HW294394   8.360   1.682  11.216  0.0274  1.2493 -1.9414
29692SOL     OW94395  11.031   7.808  10.109 -0.8061  0.2667  0.5114
29692SOL    HW194396  10.990   7.851  10.184 -0.5725  1.2865  0.0778
29692SOL    HW294397  11.121   7.843  10.108 -0.8809  0.4572 -0.3797
29693SOL     OW94398   2.059  10.232   5.207  0.3676  0.1604  0.6950
29693SOL    HW194399   2.023  10.240   5.118  0.0015 -2.2551  0.5702
29693SOL    HW294400   2.014  10.300   5.257  0.3384  1.3601 -0.8629
29694SOL     OW94401   5.273   5.963  10.146 -0.3543 -0.1139  0.2289
29694SOL    HW194402   5.341   5.969  10.214  0.3464 -0.6514 -0.4110
29694SOL    HW294403   5.266   5.870  10.127 -0.8255 -0.0020 -0.1643
29695SOL     OW94404   7.271   1.774   3.221  0.8511 -0.3757  0.5662
29695SOL    HW194405   7.242   1.737   3.304  1.2588 -1.3402  0.2960
29695SOL    HW294406   7.367   1.768   3.224  0.9826  1.4797  0.8698
29696SOL     OW94407  11.757   3.492   8.524  0.5898  0.1571 -0.2728
29696SOL    HW194408  11.749   3.427   8.454 -0.5959 -0.3596  0.3179
29696SOL    HW294409  11.794   3.443   8.598 -2.1010 -0.3990  0.8045
29697SOL     OW94410   1.167   7.168   8.840  0.0917 -0.0738 -0.0259
29697SOL    HW194411   1.195   7.203   8.755  0.3366 -1.3859 -0.4991
29697SOL    HW294412   1.086   7.214   8.859  0.5754  1.0062 -0.4598
29698SOL     OW94413   2.105  10.933   6.211 -0.2269  0.1330  0.3518
29698SOL    HW194414   2.074  10.872   6.277 -0.9043 -0.3074 -0.3576
29698SOL    HW294415   2.149  10.879   6.146 -0.5328  0.4308 -0.1134
29699SOL     OW94416   5.527  11.750   7.446 -0.4866  0.0579 -0.5430
29699SOL    HW194417   5.539  11.769   7.539  1.1779 -0.3839 -0.6275
29699SOL    HW294418   5.548  11.832   7.401 -0.5401  0.0632 -0.5580
29700SOL     OW94419  11.743  10.002   4.856 -0.1485 -0.6866 -0.1023
29700SOL    HW194420  11.741  10.051   4.774  0.1642 -2.8779 -1.4931
29700SOL    HW294421  11.772  10.066   4.921 -1.4470  1.4032 -1.4416
29701SOL     OW94422  11.073   9.786   9.251  0.3470 -0.2120  0.1456
29701SOL    HW194423  11.045   9.700   9.220 -0.5830  0.0970  0.1093
29701SOL    HW294424  11.105   9.830   9.172  0.1090 -0.2411  0.0345
29702SOL     OW94425   7.017   4.396   8.400 -0.0624 -0.5540  0.3483
29702SOL    HW194426   7.075   4.471   8.388 -0.2243 -0.1031  2.0486
29702SOL    HW294427   7.010   4.356   8.313 -0.7557  1.9606 -0.8433
29703SOL     OW94428   8.504   7.819   6.116 -0.1797  0.0847 -0.7290
29703SOL    HW194429   8.492   7.743   6.059 -0.9376  1.0313 -1.8731
29703SOL    HW294430   8.424   7.822   6.169  0.2355 -0.4121 -0.0661
29704SOL     OW94431   2.415   5.318   6.963  0.4163  0.2184  0.0221
29704SOL    HW194432   2.411   5.307   6.868 -0.3067  1.1121 -0.0670
29704SOL    HW294433   2.454   5.405   6.975  0.6029  0.0643  0.5427
29705SOL     OW94434   2.594  10.130   7.114  1.1917 -0.4513  0.4577
29705SOL    HW194435   2.562  10.082   7.189 -0.3617  0.0702  0.1555
29705SOL    HW294436   2.551  10.215   7.119  1.3445 -0.2723 -0.8025
29706SOL     OW94437   5.961   2.079   6.427  0.1473  0.3121  0.2984
29706SOL    HW194438   6.055   2.074   6.409  0.1901 -0.4267  0.7009
29706SOL    HW294439   5.924   2.122   6.350  0.5237 -1.4135 -0.8769
29707SOL     OW94440   6.513   2.600  11.476 -0.1460 -0.0386 -0.0675
29707SOL    HW194441   6.584   2.631  11.531 -1.9443  1.5702  1.4966
29707SOL    HW294442   6.525   2.645  11.393  1.4148 -0.8809 -0.3323
29708SOL     OW94443   6.461   8.702   8.738 -0.6506 -0.7967 -0.5245
29708SOL    HW194444   6.480   8.669   8.826  0.1653  0.0530 -0.3640
29708SOL    HW294445   6.379   8.751   8.748 -0.3208 -0.3138 -0.1217
29709SOL     OW94446   8.021   8.601   1.074 -0.1592 -0.5765  0.1260
29709SOL    HW194447   7.995   8.583   0.984 -0.9692 -1.1757  0.4736
29709SOL    HW294448   8.111   8.569   1.079 -0.1565 -0.6790 -0.4252
29710SOL     OW94449   4.724   4.317   6.581 -0.0926 -0.3334  0.5166
29710SOL    HW194450   4.818   4.335   6.572 -0.2932 -0.1853 -2.0922
29710SOL    HW294451   4.698   4.284   6.495 -2.5392  0.0308  1.0483
29711SOL     OW94452   3.760   7.448  11.435  0.1172  0.2661  0.7600
29711SOL    HW194453   3.822   7.448  11.508  0.4004  0.4715  0.5253
29711SOL    HW294454   3.812   7.480  11.361 -0.0793 -0.2522  0.3970
29712SOL     OW94455   8.728   1.569   8.674 -0.1666  0.4108  0.0054
29712SOL    HW194456   8.811   1.590   8.717  0.3297  0.5314 -0.9768
29712SOL    HW294457   8.752   1.507   8.605 -0.8575  0.6163 -0.4291
29713SOL     OW94458   2.844   1.641   7.020 -1.1540 -0.0523  0.3932
29713SOL    HW194459   2.846   1.545   7.015 -0.5135 -0.0091 -0.4853
29713SOL    HW294460   2.808   1.668   6.936  2.4437  0.5500 -1.1494
29714SOL     OW94461   1.082   6.838  11.479 -0.4891 -0.4461  0.1215
29714SOL    HW194462   1.022   6.864  11.549 -0.6404 -0.2793 -0.0696
29714SOL    HW294463   1.168   6.835  11.521 -0.6013 -0.4800  0.3473
29715SOL     OW94464   7.249   3.305   8.995 -0.3390  0.6523 -0.0187
29715SOL    HW194465   7.294   3.353   9.065  2.6576 -1.0847 -0.6187
29715SOL    HW294466   7.176   3.261   9.039  0.7473  0.5782  1.7983
29716SOL     OW94467   2.074   5.463   2.474  0.9477 -0.8862 -0.6169
29716SOL    HW194468   2.115   5.538   2.517  1.2281 -1.0158 -0.6608
29716SOL    HW294469   2.119   5.387   2.508 -0.9315 -1.2432  1.2746
29717SOL     OW94470   6.500   9.023   1.717  0.0492  0.3417 -0.3827
29717SOL    HW194471   6.435   9.084   1.753  0.4886 -0.1559  1.3817
29717SOL    HW294472   6.449   8.958   1.670 -0.8083 -0.1763  1.1816
29718SOL     OW94473  10.505   6.963   6.510 -0.0355  0.0364 -0.2076
29718SOL    HW194474  10.574   6.968   6.577  0.6170 -0.4312 -0.8267
29718SOL    HW294475  10.453   6.887   6.535  0.9773 -0.9189 -0.9294
29719SOL     OW94476   0.936   7.887   5.409  0.5051  0.6467  0.6442
29719SOL    HW194477   0.849   7.879   5.368  0.5578  0.4479  0.5720
29719SOL    HW294478   0.978   7.804   5.392  0.7724  0.8019  0.5437
29720SOL     OW94479   6.139   3.874  10.881  0.1020  0.4293 -0.6848
29720SOL    HW194480   6.186   3.838  10.957  1.1651  1.1894 -0.9498
29720SOL    HW294481   6.208   3.890  10.817 -0.5362  1.5015 -1.1242
29721SOL     OW94482   2.227  11.646   7.456  0.1578  0.3041 -0.0995
29721SOL    HW194483   2.206  11.690   7.374  0.2647  0.5267 -0.0068
29721SOL    HW294484   2.174  11.692   7.522  1.8383  1.6951  0.3469
29722SOL     OW94485  10.840  10.309   0.922 -0.4406 -0.4111  0.1496
29722SOL    HW194486  10.918  10.348   0.883 -1.9313  1.5110 -1.1460
29722SOL    HW294487  10.861  10.299   1.014  1.4473 -0.3059 -0.2319
29723SOL     OW94488   0.265  10.583   2.798  0.1976 -0.8993  0.3849
29723SOL    HW194489   0.323  10.574   2.874  0.0548 -1.8340  0.3859
29723SOL    HW294490   0.177  10.586   2.836  0.1284 -1.3367  0.2565
29724SOL     OW94491   0.796   0.962   4.798  0.1306 -0.0520 -0.1223
29724SOL    HW194492   0.759   0.878   4.826 -1.7883  0.6446 -0.4013
29724SOL    HW294493   0.801   0.956   4.702 -1.9126  0.7993 -0.3473
29725SOL     OW94494   8.316   9.462  11.474  0.4543  0.1494  0.4747
29725SOL    HW194495   8.229   9.455  11.513  0.2501 -1.3224 -0.1701
29725SOL    HW294496   8.374   9.481  11.547 -0.2035 -0.4466  1.1651
29726SOL     OW94497   0.561   6.188  11.091 -0.0486 -0.0026  0.3579
29726SOL    HW194498   0.610   6.209  11.011 -0.2326  1.8630  0.6923
29726SOL    HW294499   0.498   6.122  11.064 -0.9436  1.4819 -1.3533
29727SOL     OW94500   6.678   7.997   6.261 -0.2465  0.1253 -0.2224
29727SOL    HW194501   6.738   8.061   6.223  0.5617 -2.1200 -3.1090
29727SOL    HW294502   6.593   8.017   6.223 -0.3659  0.5375  0.2599
29728SOL     OW94503   4.848   6.488   2.858 -0.7331  0.4175  0.0829
29728SOL    HW194504   4.797   6.555   2.903 -0.8029  1.2088 -1.1253
29728SOL    HW294505   4.938   6.504   2.886 -0.6795  1.3659 -0.5908
29729SOL     OW94506   8.466   7.939  10.136  0.3648 -0.3675  0.3238
29729SOL    HW194507   8.470   7.896  10.221 -0.3973 -0.0101  0.5544
29729SOL    HW294508   8.385   7.906  10.096 -1.4125  2.3359  1.3790
29730SOL     OW94509   1.649   4.389  10.584 -0.0712  0.0518  0.2181
29730SOL    HW194510   1.568   4.369  10.537 -0.6611  0.1606  1.1647
29730SOL    HW294511   1.719   4.355  10.527 -0.8054 -0.5571 -0.3431
29731SOL     OW94512   5.546   0.209   2.780 -0.5332 -0.9880  0.4373
29731SOL    HW194513   5.591   0.174   2.857  0.3099  1.3212  1.0848
29731SOL    HW294514   5.616   0.244   2.725 -1.2995 -0.3823 -0.1803
29732SOL     OW94515   0.771   0.244   0.225 -0.0043 -0.2464 -0.1211
29732SOL    HW194516   0.835   0.179   0.255 -2.2846 -1.8374  1.7831
29732SOL    HW294517   0.739   0.210   0.141  1.0115  0.1106 -0.6620
29733SOL     OW94518   5.314   6.926  10.183  0.1112 -0.2752 -0.2681
29733SOL    HW194519   5.359   6.862  10.128 -1.0040 -0.6199 -0.8049
29733SOL    HW294520   5.254   6.971  10.124  0.4634  0.8847  0.2252
29734SOL     OW94521   3.888   5.372   1.490 -0.0524 -0.4621 -0.3766
29734SOL    HW194522   3.865   5.406   1.403  0.8053 -0.1338 -0.4854
29734SOL    HW294523   3.848   5.285   1.494 -0.1233 -0.4629 -1.0854
29735SOL     OW94524   1.689   7.900  10.487  0.3341  0.3519 -1.4310
29735SOL    HW194525   1.760   7.959  10.514  0.4957 -0.8287  1.0219
29735SOL    HW294526   1.612   7.957  10.481  0.6413  1.0016  0.1255
29736SOL     OW94527   6.948   3.257  11.761 -0.5205  0.2156  0.6666
29736SOL    HW194528   6.989   3.224  11.681 -3.0866  1.5191 -1.3227
29736SOL    HW294529   7.019   3.300  11.808  0.8776  0.3954 -1.4743
29737SOL     OW94530  11.217   8.287   2.920 -0.3356 -0.4963 -0.0753
29737SOL    HW194531  11.225   8.254   2.830 -0.3313  0.7840 -0.5567
29737SOL    HW294532  11.223   8.208   2.974 -1.8689 -1.4843 -1.2485
29738SOL     OW94533   9.429   7.113   8.117  0.3114  0.1439  0.4797
29738SOL    HW194534   9.409   7.163   8.196 -1.0635 -1.3630  1.1355
29738SOL    HW294535   9.348   7.113   8.067 -0.6404 -3.4945  1.7285
29739SOL     OW94536   5.056   6.962   9.453  0.0707  0.6288  0.3161
29739SOL    HW194537   4.970   6.921   9.448  0.4408 -0.0693 -0.3894
29739SOL    HW294538   5.041   7.053   9.427 -0.2116  0.1374 -1.3650
29740SOL     OW94539  11.326   7.977   6.382 -0.0837  0.1224 -0.4105
29740SOL    HW194540  11.421   7.989   6.383  0.1243 -1.1952 -1.1915
29740SOL    HW294541  11.314   7.882   6.382 -1.2663  0.1139 -3.9131
29741SOL     OW94542   9.050   6.412  11.210 -0.3402 -0.4386 -0.6275
29741SOL    HW194543   9.123   6.420  11.149  0.6853 -1.4296  0.4243
29741SOL    HW294544   9.089   6.375  11.289 -1.2237  2.4629  1.3363
29742SOL     OW94545   5.010  10.168   5.068 -0.3841 -0.4830 -0.1880
29742SOL    HW194546   5.066  10.151   5.144 -0.0897  0.5391 -0.1608
29742SOL    HW294547   5.055  10.237   5.020 -1.8935  0.7973  0.1508
29743SOL     OW94548   9.967  11.390   5.530  0.2290  0.6396  0.3676
29743SOL    HW194549   9.892  11.436   5.568 -0.0613  0.5972 -0.1462
29743SOL    HW294550   9.965  11.412   5.437  0.1891 -0.2519  0.1419
29744SOL     OW94551   5.153  11.720   8.087 -0.0839 -0.8119 -0.2296
29744SOL    HW194552   5.151  11.799   8.142  1.0831 -0.7218 -0.2972
29744SOL    HW294553   5.137  11.648   8.149  0.8300 -0.6792  0.1710
29745SOL     OW94554   9.986  11.168   9.955  0.4205 -0.6189  0.0065
29745SOL    HW194555   9.927  11.208   9.890  3.1337  0.3598 -2.0679
29745SOL    HW294556  10.045  11.239   9.980  2.6440 -2.2279 -0.4022
29746SOL     OW94557   8.865   9.079   9.594  0.4334  0.4279 -0.3196
29746SOL    HW194558   8.916   9.150   9.635  0.7194  1.0571 -1.7141
29746SOL    HW294559   8.878   9.004   9.652  1.3087  1.1268  0.4244
29747SOL     OW94560   8.293  10.080  10.457  0.8171 -0.1363  0.4477
29747SOL    HW194561   8.320  10.171  10.456 -1.5463  0.6558  1.7101
29747SOL    HW294562   8.233  10.072  10.383  0.3797 -0.4501  0.8294
29748SOL     OW94563   7.327  11.538   8.630  0.2123 -0.2527  0.6725
29748SOL    HW194564   7.308  11.496   8.714  1.3728 -0.3288  0.9159
29748SOL    HW294565   7.241  11.555   8.592 -0.4057  1.3720  2.6415
29749SOL     OW94566   2.253   8.249   1.922 -0.2576  0.2167  0.4610
29749SOL    HW194567   2.217   8.170   1.961 -0.9170  1.2691  2.0943
29749SOL    HW294568   2.196   8.320   1.952 -1.3362  1.0941 -3.1239
29750SOL     OW94569   6.030   1.335   6.151  0.2777  0.3378 -0.1982
29750SOL    HW194570   6.047   1.254   6.104 -1.6178  0.8881 -1.9780
29750SOL    HW294571   6.116   1.373   6.167  1.1587 -1.7413  0.2214
29751SOL     OW94572   9.282   8.686   2.666 -0.1562 -0.0668 -0.7850
29751SOL    HW194573   9.332   8.689   2.584  0.0707  0.9087 -0.6266
29751SOL    HW294574   9.258   8.777   2.683  1.6828  0.1054  1.3620
29752SOL     OW94575   9.979   2.600   9.996 -0.1166 -0.0603 -0.2129
29752SOL    HW194576  10.075   2.607   9.992 -0.2643  1.8986 -1.2510
29752SOL    HW294577   9.953   2.574   9.908 -0.6092  0.5152 -0.2411
29753SOL     OW94578   4.654   6.062   3.847 -0.4425  0.2971  0.5889
29753SOL    HW194579   4.652   5.975   3.886  0.5347  0.3786  0.8415
29753SOL    HW294580   4.683   6.048   3.757  1.5115  0.5115  1.1435
29754SOL     OW94581   6.193   0.532  11.648 -0.3357 -0.3176  1.2708
29754SOL    HW194582   6.116   0.577  11.684 -1.1845  1.3316 -2.1408
29754SOL    HW294583   6.157   0.467  11.587  0.7509  1.6929 -1.7762
29755SOL     OW94584   6.967   8.332   7.623 -0.4438  0.6800  0.7598
29755SOL    HW194585   6.952   8.295   7.710 -0.0544 -0.3418  0.4153
29755SOL    HW294586   6.910   8.409   7.619  0.7238  1.6908  2.4921
29756SOL     OW94587   5.343   8.169   8.397 -0.1029 -0.1520 -0.3214
29756SOL    HW194588   5.363   8.128   8.482  1.3052  1.3672  0.1182
29756SOL    HW294589   5.304   8.098   8.346 -2.4077 -0.7719  2.0446
29757SOL     OW94590   3.495   8.389   0.936  0.3501 -0.1613  0.1243
29757SOL    HW194591   3.507   8.324   0.867 -0.1687 -0.3295  0.1890
29757SOL    HW294592   3.402   8.385   0.957  0.3661  0.4130  0.3211
29758SOL     OW94593   8.746   0.642   9.081 -0.4878 -0.2505  0.1326
29758SOL    HW194594   8.744   0.581   9.007  0.2994 -0.9877  0.7071
29758SOL    HW294595   8.658   0.638   9.118  0.0445 -2.4430  1.2745
29759SOL     OW94596   9.253   8.215   6.673 -0.2893  0.1762  0.0889
29759SOL    HW194597   9.216   8.304   6.671  1.7874  1.1200  0.5246
29759SOL    HW294598   9.287   8.205   6.762  0.0296 -0.8218 -0.1313
29760SOL     OW94599   9.554   3.755   3.882  0.2107 -0.2601 -0.3896
29760SOL    HW194600   9.511   3.718   3.959  1.6123 -0.2439  0.4399
29760SOL    HW294601   9.496   3.733   3.809 -0.2973 -1.8106  0.4362
29761SOL     OW94602   2.929   2.061   1.739  0.3137 -0.3524  0.3773
29761SOL    HW194603   2.892   2.148   1.756  0.6602  0.2360 -1.6435
29761SOL    HW294604   2.855   2.008   1.712  0.3519 -0.2076 -0.0219
29762SOL     OW94605  11.567  10.583  10.768  0.1490 -0.0011  0.3772
29762SOL    HW194606  11.493  10.606  10.712  0.3675  0.3109  0.2118
29762SOL    HW294607  11.536  10.508  10.818  0.1092 -0.5813 -0.4934
29763SOL     OW94608   1.496  10.422  10.590  0.4750 -0.2114  0.1867
29763SOL    HW194609   1.464  10.385  10.673  2.1330 -3.3798 -0.4472
29763SOL    HW294610   1.514  10.346  10.535  1.1351  1.7351 -2.4839
29764SOL     OW94611   7.303   8.415   0.457  0.3357 -0.4581 -0.1211
29764SOL    HW194612   7.298   8.475   0.531  0.1215 -1.8789  1.0761
29764SOL    HW294613   7.396   8.403   0.440  0.3888 -0.3104  0.0743
29765SOL     OW94614   6.093   1.392   1.148  0.6530  0.6556 -0.4871
29765SOL    HW194615   6.009   1.437   1.133  1.1951  2.0348  0.4148
29765SOL    HW294616   6.120   1.420   1.235  1.0532 -1.4579  0.1095
29766SOL     OW94617   9.930   5.286   4.443  0.1318 -0.0621  0.5076
29766SOL    HW194618   9.916   5.378   4.466 -0.1907  0.0075  0.0475
29766SOL    HW294619  10.012   5.286   4.393 -0.4231  0.1324 -0.4157
29767SOL     OW94620  11.068   5.027   3.214 -0.1676  0.1385 -0.0796
29767SOL    HW194621  11.074   5.041   3.308  0.9510  0.9754 -0.2604
29767SOL    HW294622  11.148   5.066   3.178 -0.5345 -0.2400 -1.3658
29768SOL     OW94623   6.600   7.316   7.346 -0.5648  0.0626 -0.4059
29768SOL    HW194624   6.661   7.340   7.416  0.4582 -0.1638 -1.1995
29768SOL    HW294625   6.516   7.352   7.375 -0.2260 -0.2456  1.0586
29769SOL     OW94626   1.171   0.832   9.291 -0.3667 -0.2234  0.0008
29769SOL    HW194627   1.185   0.908   9.235  0.7404 -0.5979 -0.2666
29769SOL    HW294628   1.193   0.757   9.235 -0.8146 -0.6952  0.4503
29770SOL     OW94629  11.641   7.407   4.965  1.3186  0.1627 -0.0190
29770SOL    HW194630  11.633   7.483   5.023  1.1368  0.9740 -1.0762
29770SOL    HW294631  11.567   7.416   4.905  1.3073 -0.8566 -0.1651
29771SOL     OW94632   2.175   0.424   6.625  0.3845 -0.2980  0.6742
29771SOL    HW194633   2.225   0.465   6.554  0.8269 -2.0190 -0.0816
29771SOL    HW294634   2.130   0.496   6.669  1.0348  0.9438 -0.6343
29772SOL     OW94635   0.929   9.560   9.098  0.0892  1.1632 -0.0832
29772SOL    HW194636   0.888   9.549   9.184  0.9271 -0.7804  0.1076
29772SOL    HW294637   1.014   9.600   9.117 -0.0693  1.5133 -0.1005
29773SOL     OW94638   4.596   8.998   9.281 -0.0378  0.5524  0.0464
29773SOL    HW194639   4.580   8.929   9.217  0.2223  2.0437 -1.7095
29773SOL    HW294640   4.552   8.968   9.360  0.0473 -1.5910 -0.6510
29774SOL     OW94641   7.258   5.475   6.463  0.0550 -0.3632 -0.1067
29774SOL    HW194642   7.277   5.542   6.529 -0.7443  1.6912 -1.8717
29774SOL    HW294643   7.344   5.447   6.433  0.4401  1.2315 -0.6093
29775SOL     OW94644   1.999   2.558   6.224  0.1098  0.0152 -0.6566
29775SOL    HW194645   2.094   2.552   6.229  0.1257  0.0228 -0.9189
29775SOL    HW294646   1.974   2.495   6.157 -0.0348  0.2892 -0.8663
29776SOL     OW94647  10.592   6.130   8.833  0.0454  0.6474 -0.1396
29776SOL    HW194648  10.578   6.065   8.764 -1.1307  0.2929  0.3941
29776SOL    HW294649  10.529   6.105   8.902  0.5090  1.5663  0.6385
29777SOL     OW94650   6.186   9.880   3.665  0.2044  0.4109 -0.3742
29777SOL    HW194651   6.218   9.916   3.582 -0.5072  0.6722 -0.5406
29777SOL    HW294652   6.098   9.917   3.675 -0.2087 -0.5971 -0.1216
29778SOL     OW94653   9.761  10.391   6.723 -0.3775  0.1631  0.0220
29778SOL    HW194654   9.756  10.313   6.667 -0.6093  0.7523 -0.7976
29778SOL    HW294655   9.670  10.417   6.736 -0.2507  1.7226 -1.7842
29779SOL     OW94656   9.419   0.189   9.592  0.1260 -0.4901  0.2816
29779SOL    HW194657   9.394   0.101   9.564  0.7241 -0.9404  1.1099
29779SOL    HW294658   9.336   0.235   9.602 -0.1366 -0.2533 -2.2567
29780SOL     OW94659   0.849   5.647   2.606 -0.3509  0.3482 -0.3057
29780SOL    HW194660   0.781   5.713   2.591 -1.8850 -0.9624  0.5454
29780SOL    HW294661   0.828   5.610   2.692  1.8862  0.3718  0.3040
29781SOL     OW94662   0.481   0.289   5.092 -0.2830 -0.2307  0.2692
29781SOL    HW194663   0.481   0.282   4.996  0.5643 -0.8676  0.3067
29781SOL    HW294664   0.536   0.365   5.110 -2.1811  1.2437  0.1992
29782SOL     OW94665   0.168   1.349   5.350 -0.3026  0.0459 -0.2424
29782SOL    HW194666   0.097   1.376   5.291  0.9428  3.5814 -0.3879
29782SOL    HW294667   0.159   1.408   5.425  1.4547 -0.5981  0.5134
29783SOL     OW94668   1.987   0.449   2.450 -0.1664 -0.2686  0.3297
29783SOL    HW194669   2.004   0.539   2.423  0.0963 -0.9868 -2.0957
29783SOL    HW294670   2.050   0.396   2.400 -0.6177 -1.8557  1.3515
29784SOL     OW94671   0.888   1.936  10.721  0.4030 -0.1582  0.1455
29784SOL    HW194672   0.940   2.001  10.767 -0.5985  2.0346 -1.6641
29784SOL    HW294673   0.941   1.912  10.645 -0.4406  0.8010 -0.7745
29785SOL     OW94674   2.308  11.593   5.658  0.0682  0.3908 -0.8534
29785SOL    HW194675   2.245  11.521   5.658  0.1378  0.3109 -0.0389
29785SOL    HW294676   2.378  11.563   5.717 -0.2113  1.3698  0.0088
29786SOL     OW94677   0.149   3.841  10.482 -0.2779  0.0219  0.0524
29786SOL    HW194678   0.200   3.864  10.404  0.0690 -2.3706 -0.4904
29786SOL    HW294679   0.196   3.767  10.520 -0.7618  0.7744  2.2547
29787SOL     OW94680   2.597   7.147   0.692  0.3823 -0.2288 -0.0273
29787SOL    HW194681   2.503   7.160   0.695  0.2341 -1.3791  0.9775
29787SOL    HW294682   2.612   7.097   0.611  0.2119  0.4375 -0.4788
29788SOL     OW94683   0.624   0.793   6.590 -0.5504  0.0798  0.1978
29788SOL    HW194684   0.615   0.887   6.577  0.2575 -0.0055 -1.1782
29788SOL    HW294685   0.618   0.756   6.502  0.7022 -1.0040  0.5375
29789SOL     OW94686   2.426   4.961   4.479 -0.5419 -0.1397 -0.8276
29789SOL    HW194687   2.373   4.962   4.559  1.6006 -0.2553  0.6788
29789SOL    HW294688   2.379   5.018   4.418 -1.7457  0.7310  0.8473
29790SOL     OW94689   8.360   1.745   5.051  0.1576 -0.7001  0.6746
29790SOL    HW194690   8.364   1.659   5.094 -2.4268 -1.0996  0.2922
29790SOL    HW294691   8.291   1.735   4.985 -0.2732  1.7203  0.6893
29791SOL     OW94692   6.343   6.440   5.493  0.1559 -0.0704 -0.3952
29791SOL    HW194693   6.248   6.449   5.504  0.1046 -0.7734 -0.2235
29791SOL    HW294694   6.380   6.482   5.571 -0.0571 -0.7881  0.1044
29792SOL     OW94695   3.236   8.643   9.274 -0.4420  0.0031 -0.0308
29792SOL    HW194696   3.144   8.647   9.298 -0.4574  2.5117 -0.1958
29792SOL    HW294697   3.282   8.630   9.357 -0.8687  0.7611  0.3361
29793SOL     OW94698   4.704   4.960   3.972 -0.0307 -0.4871 -0.2906
29793SOL    HW194699   4.735   4.999   3.890  0.7827 -1.7559 -0.6136
29793SOL    HW294700   4.742   5.014   4.041  0.1296 -0.0318 -0.7303
29794SOL     OW94701   3.904   3.049   4.072 -0.3605  0.2973  0.0960
29794SOL    HW194702   3.867   2.963   4.091 -0.8941  0.6947  0.8851
29794SOL    HW294703   3.932   3.043   3.980 -1.6758 -0.2571 -0.2961
29795SOL     OW94704   8.198   2.470   5.594  0.0236 -0.1386  0.3404
29795SOL    HW194705   8.214   2.504   5.506 -1.2432 -2.4186 -0.8802
29795SOL    HW294706   8.284   2.468   5.635  1.0169 -0.9500 -1.6264
29796SOL     OW94707   2.065   9.388   3.550  0.0827  0.5316  0.4643
29796SOL    HW194708   2.023   9.426   3.472  0.5613  4.4001  1.8498
29796SOL    HW294709   2.157   9.380   3.526 -0.1273 -0.3995 -0.0513
29797SOL     OW94710   1.198   4.156   3.863 -0.3826 -0.3146  0.4968
29797SOL    HW194711   1.269   4.185   3.806 -0.1167 -1.7558  0.0702
29797SOL    HW294712   1.241   4.142   3.948 -0.3797 -0.1646  0.5218
29798SOL     OW94713   6.487   9.006   7.486  0.0695 -0.4753 -0.1920
29798SOL    HW194714   6.415   8.957   7.524 -0.1576 -0.3289 -0.4264
29798SOL    HW294715   6.465   9.012   7.393  0.3966 -0.4510 -0.2691
29799SOL     OW94716   0.524   6.942   7.677 -0.4318  0.7963 -0.3334
29799SOL    HW194717   0.618   6.951   7.693  0.0955 -2.5110 -0.8562
29799SOL    HW294718   0.483   6.971   7.758  1.1884  0.2553  0.7239
29800SOL     OW94719   4.141   8.216  10.152 -0.1659 -1.1238 -0.1713
29800SOL    HW194720   4.067   8.246  10.098  0.6111 -1.1374 -1.2687
29800SOL    HW294721   4.108   8.223  10.242 -0.3656  2.2346 -0.3556
29801SOL     OW94722   4.573  10.233   3.023  0.2221  0.3908  0.4709
29801SOL    HW194723   4.613  10.283   3.094  2.3543  1.0668 -1.1047
29801SOL    HW294724   4.545  10.299   2.960 -1.7264 -0.1944  0.6691
29802SOL     OW94725   4.180   2.647   2.692 -0.7648  0.6736  0.2386
29802SOL    HW194726   4.247   2.637   2.625 -1.1679 -0.3889 -0.0423
29802SOL    HW294727   4.107   2.689   2.647 -0.6963  0.7958  0.2432
29803SOL     OW94728   2.661  11.691   9.968  0.2592 -0.1449  0.4924
29803SOL    HW194729   2.667  11.715  10.061 -3.0154 -0.9936  1.0352
29803SOL    HW294730   2.593  11.624   9.965  0.7427 -0.6200 -2.4872
29804SOL     OW94731   5.168   1.128   4.234 -0.2486 -0.0259 -0.2493
29804SOL    HW194732   5.085   1.140   4.280  0.7643  1.0703  1.4098
29804SOL    HW294733   5.202   1.217   4.223  1.1568 -0.5054 -0.0133
29805SOL     OW94734   4.271   7.079   9.125 -0.0555  0.9193  0.1042
29805SOL    HW194735   4.262   7.099   9.032 -1.5047  1.0941  0.2550
29805SOL    HW294736   4.287   6.984   9.128 -2.1169  0.5175 -0.2725
29806SOL     OW94737   6.865  10.302   5.797  0.4186 -0.1195  0.1556
29806SOL    HW194738   6.957  10.328   5.803 -0.0434  1.4877  0.6853
29806SOL    HW294739   6.853  10.277   5.706  0.7306  2.3753 -0.6353
29807SOL     OW94740   0.135   7.720   7.486  0.4216  0.2145  0.1651
29807SOL    HW194741   0.180   7.636   7.491 -1.3636 -0.7875  0.1093
29807SOL    HW294742   0.072   7.710   7.414 -1.1256  0.9074  1.3451
29808SOL     OW94743   9.450   7.683  11.167 -0.0007 -0.5465 -0.3141
29808SOL    HW194744   9.386   7.751  11.143  1.6763  1.7588  1.2708
29808SOL    HW294745   9.430   7.663  11.259  1.8102  0.6483  0.3948
29809SOL     OW94746   1.224   2.214   4.201  0.0205  0.0998  0.2792
29809SOL    HW194747   1.196   2.123   4.191  0.1027 -0.0779  1.5415
29809SOL    HW294748   1.260   2.219   4.289  1.2309  1.0526 -0.2444
29810SOL     OW94749   7.260   8.125   0.014 -0.3806  0.1586 -0.0568
29810SOL    HW194750   7.208   8.122  -0.067  0.1860 -0.8568 -0.4057
29810SOL    HW294751   7.319   8.199   0.002 -0.4884  0.1812 -0.4639
29811SOL     OW94752   6.385  10.485   4.474 -0.1166  0.4758  0.0429
29811SOL    HW194753   6.463  10.458   4.522 -1.3213 -2.0495  0.7445
29811SOL    HW294754   6.336  10.539   4.536 -0.9155 -1.4918  1.2249
29812SOL     OW94755   4.743  11.704   7.169  0.7758  0.0338 -0.3327
29812SOL    HW194756   4.711  11.661   7.090  1.6955  1.2948 -1.4296
29812SOL    HW294757   4.664  11.718   7.222  0.1391 -0.7903 -1.0274
29813SOL     OW94758  11.487  11.470   1.291 -0.2138 -0.6230 -0.6021
29813SOL    HW194759  11.436  11.396   1.257 -1.2530 -0.8038  1.1872
29813SOL    HW294760  11.497  11.450   1.385 -0.5870  1.5164 -0.0638
29814SOL     OW94761   6.858  10.215   5.530 -0.5064 -0.2160  0.0870
29814SOL    HW194762   6.825  10.276   5.465 -0.9055  0.5338  0.9612
29814SOL    HW294763   6.877  10.135   5.482 -0.2908  0.4956 -1.0261
29815SOL     OW94764   9.254   6.808   3.977  0.1400  0.3769 -0.2566
29815SOL    HW194765   9.194   6.862   3.926 -0.7935  0.0119  0.4280
29815SOL    HW294766   9.340   6.848   3.963 -0.3339  1.2355 -0.8164
29816SOL     OW94767   9.354   2.011  10.503  0.2396  0.4267  0.1192
29816SOL    HW194768   9.262   2.006  10.530  0.4124  0.5890  0.7703
29816SOL    HW294769   9.402   1.980  10.580  0.6592 -1.5474 -0.8886
29817SOL     OW94770   4.653   9.770   8.331  0.4105  0.2260  0.7252
29817SOL    HW194771   4.577   9.813   8.371  1.2504  3.0618 -0.4583
29817SOL    HW294772   4.706   9.743   8.406 -0.4856  0.6751  1.5580
29818SOL     OW94773   2.067   1.635  11.183  0.3811  0.5194  0.5602
29818SOL    HW194774   2.096   1.713  11.229  0.3882 -0.1466  1.7121
29818SOL    HW294775   1.972   1.644  11.177  0.4493  0.9663  0.0027
29819SOL     OW94776   3.402   7.639  11.684 -0.3195  0.5624 -0.2246
29819SOL    HW194777   3.366   7.708  11.741 -0.8774 -1.3439  1.9000
29819SOL    HW294778   3.479   7.608  11.731  0.0864 -0.0642 -1.2919
29820SOL     OW94779   3.481   0.677   1.567 -0.7767  0.1433 -0.2224
29820SOL    HW194780   3.457   0.759   1.524 -0.9994  0.5790  0.7066
29820SOL    HW294781   3.573   0.688   1.592 -0.7017 -0.0353 -0.4116
29821SOL     OW94782   2.083   8.368   6.418  0.3961 -0.0588 -0.4765
29821SOL    HW194783   2.090   8.435   6.350  0.5191  0.4598  0.0357
29821SOL    HW294784   1.992   8.340   6.415  0.5604 -0.5269 -1.3031
29822SOL     OW94785   9.663   3.818  10.158  0.5670  0.5134 -0.0072
29822SOL    HW194786   9.615   3.869  10.092 -0.7586 -2.3212 -1.3914
29822SOL    HW294787   9.756   3.832  10.136  0.1771 -1.1858 -3.2952
29823SOL     OW94788   4.151  10.136   9.289 -0.1513 -0.1932  0.0063
29823SOL    HW194789   4.147  10.160   9.197  1.0893  0.2592  0.0470
29823SOL    HW294790   4.147  10.219   9.336 -0.2084 -0.3796  0.3338
29824SOL     OW94791   2.959   2.008   1.043 -0.4680 -0.1477  0.3640
29824SOL    HW194792   2.897   1.938   1.023 -0.3422 -0.5046  1.1992
29824SOL    HW294793   2.978   2.048   0.958 -0.7219 -0.9756 -0.0941
29825SOL     OW94794  11.171   8.968   0.494 -0.0628  0.1036  0.2831
29825SOL    HW194795  11.104   8.944   0.431 -0.7547  1.4934  0.4448
29825SOL    HW294796  11.133   8.947   0.580  0.0125  0.1901  0.3383
29826SOL     OW94797   3.434   9.359   8.903  0.3155  0.5388  0.0778
29826SOL    HW194798   3.421   9.266   8.884 -1.1652  0.9499 -1.1447
29826SOL    HW294799   3.529   9.370   8.907  0.6161 -0.5747 -2.3037
29827SOL     OW94800   7.056   8.399  11.114  0.2370  0.4892  0.1290
29827SOL    HW194801   7.118   8.407  11.041 -0.7507  0.9335 -0.6820
29827SOL    HW294802   7.049   8.489  11.148  1.9580  0.0297  1.8808
29828SOL     OW94803   1.813   6.089   6.339 -0.3445  0.4985 -0.0325
29828SOL    HW194804   1.899   6.098   6.298  0.0256  0.8351  0.7801
29828SOL    HW294805   1.766   6.168   6.313  0.4152  1.4588  1.3574
29829SOL     OW94806   4.341   2.065  10.122 -0.5537  0.5187 -0.1879
29829SOL    HW194807   4.305   2.055  10.210  1.8385 -1.6115  0.6768
29829SOL    HW294808   4.305   1.992  10.072  0.2141  0.0866 -0.1384
29830SOL     OW94809   7.761   2.390   0.318  0.0375 -0.0692 -0.2914
29830SOL    HW194810   7.790   2.309   0.360 -0.8698 -0.4686 -0.4044
29830SOL    HW294811   7.796   2.384   0.229  0.5116 -0.0390 -0.1053
29831SOL     OW94812   9.481   6.497   2.924 -0.1618  0.5006 -0.1304
29831SOL    HW194813   9.481   6.506   3.019  1.3258  1.3723 -0.1698
29831SOL    HW294814   9.453   6.407   2.908 -2.3986  0.9408  1.0141
29832SOL     OW94815   8.617   8.157   5.049 -0.0659 -0.0504  0.1170
29832SOL    HW194816   8.617   8.224   5.118 -0.4882 -0.6378  0.7040
29832SOL    HW294817   8.639   8.076   5.095 -2.4345 -0.8365 -0.0258
29833SOL     OW94818   5.984   0.100   8.037 -0.6973 -0.2385  0.1696
29833SOL    HW194819   5.962   0.008   8.019 -0.2393 -0.3779  0.3088
29833SOL    HW294820   6.079   0.104   8.027 -0.7356  0.2557  0.0166
29834SOL     OW94821   1.796   2.014   9.107 -0.0774  0.2187  0.0096
29834SOL    HW194822   1.890   2.032   9.105 -0.2134  1.1883  1.3434
29834SOL    HW294823   1.784   1.944   9.043  1.6643 -0.4739  0.3845
29835SOL     OW94824   3.245   2.300   8.344  0.3597  0.4848  0.7594
29835SOL    HW194825   3.260   2.227   8.284  1.9335 -0.1081  1.8172
29835SOL    HW294826   3.243   2.377   8.287 -0.4766 -0.2776 -0.2837
29836SOL     OW94827  11.823   2.324  11.591  0.4790  0.1888 -0.7220
29836SOL    HW194828  11.868   2.334  11.675 -1.4194  0.2910  0.3191
29836SOL    HW294829  11.855   2.240  11.556  0.3963 -0.4455  0.6801
29837SOL     OW94830   5.172   0.298   3.451  0.0700 -0.2621 -0.0365
29837SOL    HW194831   5.173   0.385   3.411  0.5992  0.0300  0.5954
29837SOL    HW294832   5.177   0.237   3.377 -1.9758  0.1891 -0.5988
29838SOL     OW94833   6.060   6.794   3.537  0.0802  0.3711 -0.5566
29838SOL    HW194834   6.036   6.856   3.468 -1.9577 -0.6377 -0.8440
29838SOL    HW294835   6.097   6.848   3.606 -0.6802  1.7973 -1.2225
29839SOL     OW94836   3.593   1.078   8.389 -0.6394  0.4375  0.1173
29839SOL    HW194837   3.560   1.022   8.460 -0.3999  0.1011 -0.0375
29839SOL    HW294838   3.682   1.102   8.416 -1.1194  1.6672  0.7245
29840SOL     OW94839   3.610   2.236   7.018 -0.2023  0.2764 -0.4394
29840SOL    HW194840   3.617   2.224   6.924  0.1882  1.5072 -0.5835
29840SOL    HW294841   3.566   2.321   7.029  0.3303  0.4547  0.4682
29841SOL     OW94842   4.363   7.428   5.278  0.0420  0.2804 -0.3842
29841SOL    HW194843   4.297   7.494   5.297  0.9670  1.5619 -1.4209
29841SOL    HW294844   4.383   7.440   5.185 -0.2161 -1.9010 -0.7711
29842SOL     OW94845   4.635  10.695   2.963  0.9123 -0.7805  0.6443
29842SOL    HW194846   4.602  10.606   2.949 -1.3162  0.1033 -0.2510
29842SOL    HW294847   4.688  10.713   2.885 -0.1082 -0.7408 -0.0689
29843SOL     OW94848   9.838   0.003   5.801 -0.2402 -0.0539  0.4030
29843SOL    HW194849   9.776   0.075   5.804  0.7601  0.8933 -0.8957
29843SOL    HW294850   9.863  -0.010   5.892 -0.6242  1.0643  0.6856
29844SOL     OW94851   4.602   5.031   9.830  0.0990  0.1671  0.1701
29844SOL    HW194852   4.647   4.959   9.875  0.6497  0.0562 -0.5439
29844SOL    HW294853   4.512   5.000   9.819  0.4133 -0.5559 -0.4275
29845SOL     OW94854   0.619   4.161   1.229  0.1921  0.3078 -0.0355
29845SOL    HW194855   0.613   4.169   1.134 -0.0948  0.9895  0.0369
29845SOL    HW294856   0.710   4.183   1.248  0.0918  0.7845 -0.0959
29846SOL     OW94857   9.405   2.231   0.995  0.1271 -0.0147  0.3870
29846SOL    HW194858   9.317   2.269   0.994  0.3089  0.4830  1.8695
29846SOL    HW294859   9.463   2.306   1.008  0.7043 -0.4752  0.5018
29847SOL     OW94860   1.578  11.665   1.983  0.1137  0.3707 -0.0540
29847SOL    HW194861   1.613  11.726   2.048  1.3567  0.4462 -0.7750
29847SOL    HW294862   1.537  11.721   1.917  1.9840  0.5158 -1.1460
29848SOL     OW94863   9.596   4.670   9.532  0.3468 -0.3440 -0.2493
29848SOL    HW194864   9.624   4.580   9.548  0.8715 -0.2465 -0.5955
29848SOL    HW294865   9.646   4.722   9.595  0.6254 -0.2127 -0.5794
29849SOL     OW94866   8.188   1.001   8.231 -0.1143  0.3258 -0.5585
29849SOL    HW194867   8.094   0.992   8.243 -0.7134  1.7186 -3.2852
29849SOL    HW294868   8.221   1.033   8.315 -1.8747 -1.0302  0.7270
29850SOL     OW94869   6.776   3.062   7.932 -0.3996 -0.3424 -0.2318
29850SOL    HW194870   6.864   3.058   7.893 -0.1014  2.8338 -0.1186
29850SOL    HW294871   6.731   3.132   7.884 -2.8850 -1.7897 -0.1779
29851SOL     OW94872   1.229   2.933   0.372  0.3459 -0.1269 -0.2873
29851SOL    HW194873   1.300   2.903   0.315  2.1851 -1.3187  2.4649
29851SOL    HW294874   1.223   3.027   0.355  0.6560 -0.4580 -2.5427
29852SOL     OW94875   7.843  10.963   8.248  0.0148  0.3948  0.1170
29852SOL    HW194876   7.936  10.985   8.261  0.3216 -1.7695  2.1671
29852SOL    HW294877   7.797  11.017   8.312  0.0669 -0.0368  0.5164
29853SOL     OW94878  10.483   0.200   8.555 -0.3792  0.3743  0.0213
29853SOL    HW194879  10.390   0.213   8.576 -1.1413 -0.2797 -2.6347
29853SOL    HW294880  10.482   0.146   8.476  2.3248 -1.7771  1.3001
29854SOL     OW94881   2.841   6.462  10.297  0.6892  0.0329 -0.4951
29854SOL    HW194882   2.760   6.448  10.248  1.8163 -2.4577 -1.8358
29854SOL    HW294883   2.818   6.440  10.387 -0.7597  2.1281 -0.2699
29855SOL     OW94884   9.794   5.807   5.743  0.1566 -0.3814  0.2301
29855SOL    HW194885   9.785   5.713   5.724  2.1867 -0.2658 -1.7143
29855SOL    HW294886   9.704   5.839   5.746 -0.5420 -1.9739 -1.5203
29856SOL     OW94887   2.653  11.276   1.951 -0.4516 -0.5902 -0.4597
29856SOL    HW194888   2.685  11.263   1.861 -1.5223 -1.9098 -0.6786
29856SOL    HW294889   2.568  11.233   1.952 -1.1544  0.7862  0.7743
29857SOL     OW94890   4.588   2.090   5.983  0.4839 -0.4084 -0.1275
29857SOL    HW194891   4.566   2.037   6.060 -0.1973  0.4609  0.2984
29857SOL    HW294892   4.631   2.168   6.018 -1.1430  0.6968 -0.4660
29858SOL     OW94893   5.385   5.619   7.355 -0.0758  0.4060  0.3396
29858SOL    HW194894   5.400   5.556   7.425  2.4793  0.7495  0.1910
29858SOL    HW294895   5.399   5.569   7.275  1.0587  0.9082  0.2018
29859SOL     OW94896   2.159  11.345   5.513  1.1518  0.2070 -0.0438
29859SOL    HW194897   2.075  11.345   5.468  1.2149  1.3030 -0.2034
29859SOL    HW294898   2.223  11.328   5.444  1.2595  2.0181 -0.4485
29860SOL     OW94899   2.578   6.115   9.882  0.1504  0.1595  0.0076
29860SOL    HW194900   2.496   6.157   9.906  0.4293  2.1289 -2.1389
29860SOL    HW294901   2.554   6.024   9.866 -1.6327  0.6885 -0.5736
29861SOL     OW94902   3.974   9.098   3.457  0.2586 -0.2712  0.3659
29861SOL    HW194903   3.986   9.077   3.364 -2.3489 -1.6234  0.2226
29861SOL    HW294904   4.048   9.154   3.479  2.1505 -1.6773 -1.9474
29862SOL     OW94905   7.117   8.378   4.391  0.4620  0.3474  0.4073
29862SOL    HW194906   7.156   8.368   4.304 -2.6574 -0.4229 -1.0614
29862SOL    HW294907   7.096   8.288   4.418  0.4393  0.6660  1.4900
29863SOL     OW94908   2.515   9.581   0.471 -0.3017  0.4442  0.0414
29863SOL    HW194909   2.488   9.662   0.427 -0.7488 -0.0947 -0.6940
29863SOL    HW294910   2.461   9.513   0.432  1.6732 -0.5937 -1.0141
29864SOL     OW94911   6.763   7.250   2.022  0.3169 -0.1670 -0.7211
29864SOL    HW194912   6.831   7.314   2.043 -1.1698  1.4129 -0.4348
29864SOL    HW294913   6.761   7.191   2.097  0.5078  0.5662 -0.1263
29865SOL     OW94914   4.554   0.484   5.579  0.0118 -0.0453  0.2197
29865SOL    HW194915   4.607   0.559   5.603 -0.4064  0.1652  0.5064
29865SOL    HW294916   4.568   0.420   5.649  1.3807 -0.7643 -0.6811
29866SOL     OW94917  10.082   7.947   6.029  0.1991 -0.2442 -0.4384
29866SOL    HW194918  10.084   7.986   6.116 -0.7811  1.3736 -1.1078
29866SOL    HW294919  10.173   7.920   6.013  0.9960  1.9895 -0.0190
29867SOL     OW94920   0.885   5.741   4.457 -0.0273 -0.0166 -0.1081
29867SOL    HW194921   0.920   5.682   4.523  1.3531  0.3768 -0.4586
29867SOL    HW294922   0.848   5.814   4.507 -1.8463 -1.1775  0.3323
29868SOL     OW94923   1.808   3.495   0.466 -0.0814  0.0783  0.2332
29868SOL    HW194924   1.844   3.427   0.524 -2.0942 -2.0777 -0.8452
29868SOL    HW294925   1.843   3.472   0.379  0.4701  1.4242  0.0797
29869SOL     OW94926   3.829   4.534   5.299 -0.4897 -0.1219  0.3574
29869SOL    HW194927   3.817   4.629   5.301  0.0232 -0.0570  2.5615
29869SOL    HW294928   3.924   4.522   5.298 -0.5535 -0.6242 -0.2644
29870SOL     OW94929   4.383   3.740   1.752 -0.0810  0.6428  0.5493
29870SOL    HW194930   4.350   3.659   1.792  3.0169 -1.1154 -0.0881
29870SOL    HW294931   4.335   3.748   1.670 -1.4654  0.3203  1.2871
29871SOL     OW94932   2.823   3.227   8.905 -0.2843  0.4255  0.4713
29871SOL    HW194933   2.731   3.212   8.882  0.5304 -2.4355 -1.5956
29871SOL    HW294934   2.821   3.302   8.963 -3.6937  1.9256 -1.2654
29872SOL     OW94935   0.152   3.047   6.342  0.1000  0.1704 -0.2084
29872SOL    HW194936   0.213   3.116   6.370 -0.2482  0.1567  0.6036
29872SOL    HW294937   0.196   3.006   6.267  1.2544 -0.0431  0.5498
29873SOL     OW94938   6.942  11.274   3.077  0.0794  0.1477 -0.4126
29873SOL    HW194939   6.988  11.203   3.122  0.9769  0.9998  0.0646
29873SOL    HW294940   6.870  11.231   3.031  0.5705 -1.0588 -0.0950
29874SOL     OW94941  10.602   3.296   0.706 -0.3750  0.0045 -0.3362
29874SOL    HW194942  10.521   3.279   0.657 -0.1755  1.1548 -1.1080
29874SOL    HW294943  10.669   3.307   0.639  0.0395  0.9433  0.2034
29875SOL     OW94944   9.431   2.793   6.077 -0.2076 -0.0022 -0.0718
29875SOL    HW194945   9.405   2.788   5.985  0.7147 -1.5131 -0.2897
29875SOL    HW294946   9.351   2.818   6.123 -0.7627  0.4626 -1.2478
29876SOL     OW94947   4.122   7.449   5.611  0.5256 -0.1068 -0.3579
29876SOL    HW194948   4.131   7.356   5.635 -0.7135 -0.6980 -2.0102
29876SOL    HW294949   4.031   7.458   5.585  0.6456  1.5975 -0.2565
29877SOL     OW94950   0.373   9.095   6.073 -0.2794  0.2619 -0.3572
29877SOL    HW194951   0.467   9.075   6.073 -0.0815  1.0881  0.8455
29877SOL    HW294952   0.357   9.135   5.987  0.4735  0.1416 -0.5621
29878SOL     OW94953  11.457   7.454   7.731 -0.1424 -1.0428  0.2470
29878SOL    HW194954  11.536   7.508   7.739 -0.8981  0.5177 -1.7620
29878SOL    HW294955  11.459   7.423   7.640 -0.7701 -2.7889  0.7858
29879SOL     OW94956   8.552   1.113   3.819 -0.1972  0.4306 -0.6287
29879SOL    HW194957   8.576   1.152   3.904  0.2619  1.3635 -1.1690
29879SOL    HW294958   8.560   1.019   3.833 -0.4528  0.5586  0.4634
29880SOL     OW94959   2.141  10.902  11.176 -0.0141 -0.0443 -0.7622
29880SOL    HW194960   2.232  10.931  11.185 -0.0181 -0.1114 -0.5110
29880SOL    HW294961   2.089  10.969  11.219  0.0227 -0.7367  0.3987
29881SOL     OW94962   6.364   4.823   1.801 -0.5936 -0.4767  0.1619
29881SOL    HW194963   6.332   4.777   1.723 -3.0617  1.5593 -0.1612
29881SOL    HW294964   6.286   4.844   1.851  0.6160  1.1566  1.5026
29882SOL     OW94965   0.052   5.863   4.208 -0.1472  0.0110 -0.0053
29882SOL    HW194966   0.075   5.773   4.232 -0.6973  0.0103  0.5290
29882SOL    HW294967  -0.022   5.885   4.264  1.1541  1.4683  1.2048
29883SOL     OW94968   5.948   2.959  10.491  0.0840 -0.2744 -0.8222
29883SOL    HW194969   5.918   3.034  10.440  0.5272  0.6371  0.2041
29883SOL    HW294970   6.037   2.943  10.459 -0.4887 -1.2571 -1.9905
29884SOL     OW94971   2.330   6.486   5.445  0.0016  0.5164  0.5544
29884SOL    HW194972   2.361   6.533   5.522  1.5661  1.5227 -0.6043
29884SOL    HW294973   2.396   6.506   5.378  0.3663 -2.7948 -0.2132
29885SOL     OW94974   5.715   7.985   2.216 -0.8005 -0.2376 -0.3849
29885SOL    HW194975   5.738   7.993   2.123 -0.7743  1.3805 -0.2782
29885SOL    HW294976   5.623   8.011   2.220 -0.0491  2.6616  0.3637
29886SOL     OW94977   2.462  11.511   9.995 -0.6721 -0.1339 -0.1319
29886SOL    HW194978   2.387  11.503  10.053 -0.6508 -0.9983 -0.2142
29886SOL    HW294979   2.480  11.422   9.966 -0.6792  0.2712 -1.4593
29887SOL     OW94980   1.721   7.078   9.811  0.0582 -0.3977  0.7364
29887SOL    HW194981   1.691   7.112   9.895  0.4372  0.2480  0.6178
29887SOL    HW294982   1.675   6.995   9.800 -0.6370 -0.0767  1.1881
29888SOL     OW94983   8.547   3.431   6.043 -0.7447 -0.0489 -0.3509
29888SOL    HW194984   8.477   3.388   6.091 -0.4234  0.0843  0.2530
29888SOL    HW294985   8.621   3.371   6.049 -0.6812 -0.0011 -0.6251
29889SOL     OW94986   3.155   1.532   5.265  0.2016  0.9067 -0.0587
29889SOL    HW194987   3.244   1.515   5.296  0.3902  1.9954  0.0507
29889SOL    HW294988   3.136   1.621   5.295 -1.0212  0.6089  0.1227
29890SOL     OW94989   8.673   5.797   4.066 -0.4668 -0.5322  0.0666
29890SOL    HW194990   8.667   5.730   4.134 -0.4283 -0.8086 -0.1952
29890SOL    HW294991   8.764   5.793   4.036 -0.0512  0.7050  1.1052
29891SOL     OW94992   1.964  10.888  10.830 -0.3218 -0.2581 -0.1382
29891SOL    HW194993   1.984  10.900  10.737  0.9067  1.0148  0.2677
29891SOL    HW294994   2.009  10.807  10.854 -0.8393 -0.7248 -0.6792
29892SOL     OW94995  10.987   2.634   1.589 -0.6501 -0.5165 -0.4328
29892SOL    HW194996  10.972   2.548   1.626 -1.1041 -0.5569 -0.6954
29892SOL    HW294997  11.075   2.658   1.617 -0.5687 -1.0123 -0.2594
29893SOL     OW94998   0.483   7.433   9.971  0.4706 -0.3549 -0.3110
29893SOL    HW194999   0.562   7.404   9.926 -0.3912  0.4045 -2.4565
29893SOL    HW295000   0.514   7.472  10.052  2.3476  0.2846 -1.2783
29894SOL     OW95001   0.941   0.453  11.304  0.3277 -0.6761 -0.6772
29894SOL    HW195002   0.963   0.545  11.295 -0.8345 -0.3852 -0.7324
29894SOL    HW295003   1.011   0.407  11.257  1.8029  0.0548  0.7170
29895SOL     OW95004   9.801   2.067  10.689  0.1819  0.0239 -0.3610
29895SOL    HW195005   9.803   2.089  10.596  2.2589  1.6456 -0.0018
29895SOL    HW295006   9.741   2.131  10.728 -0.2284 -0.2802 -0.4887
29896SOL     OW95007   9.855   3.345   3.585 -0.3094 -0.4405 -0.0273
29896SOL    HW195008   9.942   3.383   3.595 -0.0200 -0.9537 -0.5867
29896SOL    HW295009   9.845   3.286   3.660  0.5758 -1.8102 -0.9469
29897SOL     OW95010  10.661   8.432   4.985 -0.2280 -0.1381 -0.2095
29897SOL    HW195011  10.599   8.359   4.980  1.9120 -2.1760  0.8105
29897SOL    HW295012  10.704   8.432   4.899 -0.3338  0.0475 -0.2635
29898SOL     OW95013  10.502   9.170   6.834 -0.1694 -0.6005 -0.0893
29898SOL    HW195014  10.542   9.085   6.854  0.5202 -0.2115  0.1782
29898SOL    HW295015  10.474   9.204   6.919  1.4528  0.3853  0.0812
29899SOL     OW95016   0.808   5.908   9.120 -0.0434 -0.0234 -0.1576
29899SOL    HW195017   0.830   6.000   9.110  1.6908 -0.4246 -0.3758
29899SOL    HW295018   0.819   5.889   9.213  3.5788 -0.8508 -0.5931
29900SOL     OW95019   0.708   5.919   2.046  0.3035 -0.0680 -0.6063
29900SOL    HW195020   0.621   5.909   2.086  0.1035  1.1590 -0.7023
29900SOL    HW295021   0.752   5.985   2.100  0.4985  0.6738 -1.6464
29901SOL     OW95022   4.063   7.012  11.161 -0.2098  0.3157 -0.5445
29901SOL    HW195023   4.040   7.096  11.202  0.2028 -0.0770  0.5195
29901SOL    HW295024   4.082   7.035  11.070 -0.6811  1.2824 -0.4171
29902SOL     OW95025   4.683   2.415   5.342  0.1572 -0.9982  0.2139
29902SOL    HW195026   4.601   2.396   5.387  0.7066  0.8574  2.1906
29902SOL    HW295027   4.745   2.434   5.413  1.3243  1.1950 -1.2770
29903SOL     OW95028   7.897   8.217   1.662 -1.1130  0.3295 -0.6974
29903SOL    HW195029   7.829   8.182   1.719  0.0942 -0.3567  0.3690
29903SOL    HW295030   7.852   8.286   1.611 -2.5071  0.1193  0.1858
29904SOL     OW95031   5.359   1.457  10.975  0.2383 -0.8079  0.8115
29904SOL    HW195032   5.410   1.512  11.034 -0.1481  1.5722 -0.9254
29904SOL    HW295033   5.423   1.418  10.916  0.2829  1.8947 -1.1387
29905SOL     OW95034   3.156   9.000   8.175  0.3876 -0.6174  0.3359
29905SOL    HW195035   3.066   9.028   8.189  0.3411 -0.1578 -0.7597
29905SOL    HW295036   3.203   9.027   8.255  0.0787  1.4810 -0.1315
29906SOL     OW95037   8.874   7.664  11.336 -0.6650 -0.5136  0.5437
29906SOL    HW195038   8.796   7.719  11.326 -1.1107 -1.2397 -0.1476
29906SOL    HW295039   8.842   7.575  11.322  0.4701 -0.7472 -0.8035
29907SOL     OW95040   6.724   5.926   7.014 -0.0389 -0.1152  0.0832
29907SOL    HW195041   6.771   5.855   6.972 -0.3248 -0.2639  0.0121
29907SOL    HW295042   6.792   5.979   7.057  0.4551  0.9354 -1.8783
29908SOL     OW95043   2.836   4.773   7.880  0.2566  0.7905 -0.4766
29908SOL    HW195044   2.926   4.781   7.849  0.2817 -0.3118 -0.7416
29908SOL    HW295045   2.785   4.823   7.816  0.5880  0.6659 -0.8464
29909SOL     OW95046  10.726   8.648   2.319 -0.3190 -0.0227 -0.2432
29909SOL    HW195047  10.801   8.591   2.304  0.4877  1.0071 -0.2528
29909SOL    HW295048  10.711   8.692   2.235  1.4226  2.4676  0.6172
29910SOL     OW95049   8.870   7.391  11.604 -0.1994 -0.2962 -0.2614
29910SOL    HW195050   8.839   7.383  11.514 -0.2402 -1.6068 -0.1392
29910SOL    HW295051   8.962   7.418  11.595 -0.4708  0.5538 -0.6579
29911SOL     OW95052   8.436  10.767   8.622 -0.6402 -0.5102  0.1431
29911SOL    HW195053   8.434  10.828   8.696 -1.3121 -0.3234 -0.0173
29911SOL    HW295054   8.525  10.772   8.589 -0.4788 -0.1995  0.6182
29912SOL     OW95055   3.434   7.232  10.349  0.1695  0.0882  0.1193
29912SOL    HW195056   3.443   7.139  10.370  2.0088  0.6184  2.0132
29912SOL    HW295057   3.500   7.248  10.281 -1.1033 -0.2256 -1.2395
29913SOL     OW95058   8.809   3.379   0.872  0.5931  0.2152 -0.2948
29913SOL    HW195059   8.745   3.447   0.894 -0.4386 -1.0812  0.9903
29913SOL    HW295060   8.759   3.297   0.879  1.2744 -0.6392 -3.6316
29914SOL     OW95061   9.786   8.194   2.961  0.3147 -0.1309 -0.3372
29914SOL    HW195062   9.861   8.171   2.906 -0.2524 -0.6137 -0.9217
29914SOL    HW295063   9.793   8.289   2.971  1.0373 -0.1752 -0.3284
29915SOL     OW95064   7.329   2.737   1.183 -0.0082 -0.5414 -0.2128
29915SOL    HW195065   7.363   2.691   1.260  0.3530  0.2374  0.1036
29915SOL    HW295066   7.406   2.758   1.131 -0.0387  0.7026  0.2106
29916SOL     OW95067   0.141   0.565   4.967  0.0993  0.2136 -0.1421
29916SOL    HW195068   0.233   0.541   4.956 -0.3692 -2.1153  0.4568
29916SOL    HW295069   0.140   0.621   5.045  1.0056  0.2928 -0.1788
29917SOL     OW95070   0.266  11.462   6.256 -0.0592 -0.3296  0.3097
29917SOL    HW195071   0.216  11.421   6.186  1.5214  0.0100 -1.0796
29917SOL    HW295072   0.273  11.554   6.231  2.6481 -0.6465 -0.5197
29918SOL     OW95073  10.628  10.962   7.537 -0.3535  0.0450 -0.4913
29918SOL    HW195074  10.566  10.954   7.465  1.5448 -1.3358 -2.0885
29918SOL    HW295075  10.693  10.894   7.521  0.7209  0.3520  1.9977
29919SOL     OW95076   6.505   9.565   8.676 -0.6822  0.0078  0.3821
29919SOL    HW195077   6.482   9.473   8.690  0.5823 -0.5163 -0.6690
29919SOL    HW295078   6.534   9.596   8.762 -0.7891 -0.6848  0.6764
29920SOL     OW95079   5.477   5.965   9.259 -0.1617  0.5332 -0.1394
29920SOL    HW195080   5.549   5.935   9.204 -0.6666  0.1754 -0.6203
29920SOL    HW295081   5.472   6.059   9.244 -1.4193  0.2223 -2.1234
29921SOL     OW95082   8.252   2.228  10.682  0.2698  1.0091 -0.5569
29921SOL    HW195083   8.215   2.240  10.595  0.3493  0.9702 -0.5955
29921SOL    HW295084   8.176   2.219  10.739  0.2168  0.3673 -0.7149
29922SOL     OW95085   6.056   6.995  10.418 -0.4937 -0.5510 -0.1138
29922SOL    HW195086   6.037   6.993  10.511 -0.7186  2.2901 -0.0005
29922SOL    HW295087   6.152   7.004  10.413 -0.3510 -1.9589 -0.2339
29923SOL     OW95088   3.577  11.803   5.061  0.3769 -0.1244 -0.0988
29923SOL    HW195089   3.663  11.821   5.022  2.0761  0.0139  3.3632
29923SOL    HW295090   3.531  11.887   5.055  0.1073 -0.3534 -2.5428
29924SOL     OW95091   2.683   7.136  10.638 -0.7532  0.3771 -0.1506
29924SOL    HW195092   2.739   7.066  10.670 -1.0416  0.6217  0.9397
29924SOL    HW295093   2.595   7.099  10.637 -0.6838  0.2051 -1.2123
29925SOL     OW95094   6.495   2.050   4.777  0.4566  0.0878 -0.4968
29925SOL    HW195095   6.416   2.102   4.792  0.1457 -0.1062 -1.3719
29925SOL    HW295096   6.471   1.990   4.706  1.2718 -0.2388 -0.5099
29926SOL     OW95097   2.549   6.652  10.887  0.3289  0.3778  0.2390
29926SOL    HW195098   2.527   6.701  10.966  1.9132 -0.8523  1.5212
29926SOL    HW295099   2.578   6.718  10.825  0.5558  1.2500  1.2480
29927SOL     OW95100   7.712   2.153  11.761  0.0760  0.1372  0.0504
29927SOL    HW195101   7.707   2.071  11.811 -0.1987  0.1983  0.1249
29927SOL    HW295102   7.788   2.199  11.798 -0.0822  0.1503  0.3642
29928SOL     OW95103   8.974   9.127   6.684 -0.3706 -0.4789  0.1343
29928SOL    HW195104   8.937   9.079   6.758 -0.3602  1.6546  1.6035
29928SOL    HW295105   9.008   9.208   6.722  0.7356  0.1586 -2.0407
29929SOL     OW95106   5.184   6.783   3.651 -0.6171 -0.1043 -0.4012
29929SOL    HW195107   5.171   6.855   3.712  0.0893 -1.0894  0.9790
29929SOL    HW295108   5.273   6.795   3.619 -1.3067  0.9472 -2.0247
29930SOL     OW95109   8.668  10.830   5.650 -0.0140  0.3829 -0.2030
29930SOL    HW195110   8.675  10.736   5.635  1.7264  0.2683  1.0672
29930SOL    HW295111   8.750  10.866   5.616 -0.9898  1.5949 -1.4324
29931SOL     OW95112   7.883   3.318   0.258  0.7420  0.0564 -0.1399
29931SOL    HW195113   7.799   3.361   0.246  0.9897  0.2912 -1.0886
29931SOL    HW295114   7.888   3.301   0.353 -0.5864 -0.4321 -0.1425
29932SOL     OW95115  10.336   9.486   4.491 -0.5111 -0.6218  0.5504
29932SOL    HW195116  10.392   9.558   4.521 -0.2854 -1.0770  1.2474
29932SOL    HW295117  10.252   9.528   4.472  0.0580  0.0696 -0.5113
29933SOL     OW95118   3.954   2.548  10.452  0.2737 -0.1902 -0.6295
29933SOL    HW195119   3.958   2.455  10.430  0.1516  0.0689 -1.7987
29933SOL    HW295120   3.866   2.575  10.427  0.2644  0.2180 -0.1800
29934SOL     OW95121  10.869   4.668   7.800 -0.5515  0.3083  0.2025
29934SOL    HW195122  10.821   4.721   7.864 -0.7071  0.6106 -0.1571
29934SOL    HW295123  10.811   4.595   7.781  0.3206 -0.9029  1.9059
29935SOL     OW95124   6.404   0.226   0.296  0.3241 -0.0258  0.0115
29935SOL    HW195125   6.478   0.185   0.341  1.1155 -0.7894 -1.8707
29935SOL    HW295126   6.334   0.161   0.301  0.9568 -0.8504 -1.2720
29936SOL     OW95127   7.039   6.334   7.096  0.1778  0.0928 -0.0180
29936SOL    HW195128   7.080   6.263   7.048  0.3989  0.3808 -0.2590
29936SOL    HW295129   6.946   6.309   7.102  0.0479  0.3060 -1.0524
29937SOL     OW95130   4.261  10.461   8.598  0.0001  1.1266  0.2583
29937SOL    HW195131   4.215  10.390   8.552  0.3597  0.7363  0.4878
29937SOL    HW295132   4.247  10.538   8.544  0.8216  0.5792 -0.7762
29938SOL     OW95133  11.312   4.405   5.062  0.1766 -0.3786 -0.3337
29938SOL    HW195134  11.263   4.478   5.100 -0.7596 -1.0792 -0.1594
29938SOL    HW295135  11.378   4.383   5.128 -0.0529 -0.2035 -0.0459
29939SOL     OW95136   8.927   1.107   5.917 -0.2246  0.1817 -0.1581
29939SOL    HW195137   8.900   1.140   6.003 -0.8778  0.8317 -0.5955
29939SOL    HW295138   8.845   1.082   5.874  0.1929 -1.2575 -0.1652
29940SOL     OW95139   0.611   4.554  11.353  0.5252  0.1561 -0.0273
29940SOL    HW195140   0.588   4.646  11.365 -3.3953 -0.2790 -2.4462
29940SOL    HW295141   0.631   4.546  11.260  2.8703 -1.1824  0.5011
29941SOL     OW95142   6.471   7.181   9.342  0.2382 -0.2138 -0.0519
29941SOL    HW195143   6.423   7.253   9.301  0.9081 -0.0666 -0.5938
29941SOL    HW295144   6.440   7.103   9.296 -0.2153 -0.2361  0.2847
29942SOL     OW95145   1.660   5.149   6.010  0.6081 -0.2328 -0.1691
29942SOL    HW195146   1.700   5.071   5.970  2.3204  0.8677 -0.6889
29942SOL    HW295147   1.633   5.120   6.097  2.4151 -1.0937  0.1488
29943SOL     OW95148   6.242   2.627   2.103 -0.1331 -0.0208  0.3283
29943SOL    HW195149   6.274   2.597   2.188  1.1528  1.3223  0.3507
29943SOL    HW295150   6.224   2.546   2.054  0.0573 -0.8026  1.5184
29944SOL     OW95151  11.131   5.602   8.464  0.4096  0.0305  0.1937
29944SOL    HW195152  11.124   5.668   8.532  0.8514  0.5545 -0.2534
29944SOL    HW295153  11.105   5.647   8.384 -1.7204 -1.0173  0.2357
29945SOL     OW95154   1.195   3.766   3.156 -0.8524  0.1023  0.1026
29945SOL    HW195155   1.170   3.850   3.194 -1.2751  1.0560 -2.1125
29945SOL    HW295156   1.290   3.771   3.146 -1.0344  1.0074 -1.4499
29946SOL     OW95157   8.424  10.876   6.175 -0.1220  0.2611  0.0581
29946SOL    HW195158   8.387  10.956   6.212  0.5044  0.0015  1.3273
29946SOL    HW295159   8.478  10.906   6.102 -2.6147  0.6592 -1.7547
29947SOL     OW95160  11.315  11.368   8.619 -0.1511 -0.3254  0.1269
29947SOL    HW195161  11.341  11.380   8.527 -0.8067 -0.1082 -0.0351
29947SOL    HW295162  11.370  11.296   8.650  2.7296  1.9269  0.6681
29948SOL     OW95163   5.975   5.817   9.241 -0.3340 -0.3250 -0.3403
29948SOL    HW195164   5.882   5.799   9.230 -0.1950 -1.7999  0.5358
29948SOL    HW295165   5.981   5.865   9.323 -0.4821  1.8544 -1.5204
29949SOL     OW95166   7.591   1.805   9.267 -0.2522  0.2523  0.4212
29949SOL    HW195167   7.605   1.892   9.229  1.4256  0.5349  1.5816
29949SOL    HW295168   7.512   1.773   9.223 -0.3445  1.9339 -0.7719
29950SOL     OW95169   5.575   4.822   8.113  0.4106  0.4036  0.4306
29950SOL    HW195170   5.486   4.794   8.130  0.3499  1.0472  1.2196
29950SOL    HW295171   5.594   4.790   8.025 -1.0329  1.3468 -0.2510
29951SOL     OW95172   7.130   7.414   8.049  0.0768  0.0242  0.0778
29951SOL    HW195173   7.081   7.367   8.116  0.3300 -1.2709 -0.6060
29951SOL    HW295174   7.190   7.471   8.098  0.3099 -0.9554  0.9603
29952SOL     OW95175  10.230   2.429  10.980  0.1256  0.3242 -0.7761
29952SOL    HW195176  10.224   2.513  10.935 -0.0687  0.9257  0.3369
29952SOL    HW295177  10.312   2.434  11.030  0.4461 -0.4148 -1.2076
29953SOL     OW95178   8.426   9.042   0.041  0.1122  0.3604 -0.3636
29953SOL    HW195179   8.486   8.974   0.011 -0.0285  0.2530 -0.4053
29953SOL    HW295180   8.349   8.994   0.072  0.3093  0.4617  0.2939
29954SOL     OW95181   6.728   9.167  10.962 -0.2161 -0.3849 -0.4750
29954SOL    HW195182   6.772   9.224  10.899  0.1483 -0.9751 -0.7683
29954SOL    HW295183   6.769   9.187  11.046  1.2572 -1.5290 -0.8718
29955SOL     OW95184   3.625   9.047   8.856 -0.4988  0.6627  0.5183
29955SOL    HW195185   3.632   8.976   8.792  0.0537  1.8862 -0.8375
29955SOL    HW295186   3.584   9.007   8.933  0.1418 -1.2012 -0.0636
29956SOL     OW95187  11.499   9.362   8.764 -0.2160  0.1968 -0.1209
29956SOL    HW195188  11.476   9.276   8.800  0.9321  0.3469  1.0642
29956SOL    HW295189  11.507   9.347   8.670 -0.5255 -0.8835  0.0058
29957SOL     OW95190   5.344   6.300  10.178  0.0379 -0.8529 -0.3304
29957SOL    HW195191   5.256   6.339  10.175  1.0282  1.5713  0.0120
29957SOL    HW295192   5.385   6.328  10.097  1.5866  0.9021  0.9953
29958SOL     OW95193   8.201   3.034   4.773 -0.2384 -0.6484  0.2272
29958SOL    HW195194   8.284   3.038   4.725  0.1630 -0.3335  0.9406
29958SOL    HW295195   8.153   3.111   4.743 -0.1967 -0.7254 -0.0432
29959SOL     OW95196   6.736   0.909  10.414  0.2157 -0.3154 -0.1371
29959SOL    HW195197   6.771   0.988  10.373  0.1902  1.2195  2.5275
29959SOL    HW295198   6.642   0.913  10.398  0.3871 -0.6825 -1.3363
29960SOL     OW95199   1.425  11.554   4.952 -0.2984  0.1130 -0.5797
29960SOL    HW195200   1.351  11.508   4.993 -0.8200  1.4388  0.0218
29960SOL    HW295201   1.482  11.576   5.026 -0.4549  1.1242 -0.7547
29961SOL     OW95202   0.840  11.555  10.355 -0.0176 -0.0627  0.0668
29961SOL    HW195203   0.823  11.578  10.264  0.8838 -0.5803 -0.2446
29961SOL    HW295204   0.801  11.626  10.405 -1.1244 -0.1179 -0.6866
29962SOL     OW95205   6.745  10.588   6.612 -0.1243 -0.1564  0.3623
29962SOL    HW195206   6.666  10.640   6.629 -0.0217 -0.3025  1.3527
29962SOL    HW295207   6.712  10.500   6.594 -0.3420  0.3406 -1.9664
29963SOL     OW95208   3.983   8.575   2.535 -0.0697 -0.1017 -0.0049
29963SOL    HW195209   4.033   8.566   2.454 -0.3584 -2.5677  0.0076
29963SOL    HW295210   3.907   8.627   2.510  1.0028  1.1805 -0.7150
29964SOL     OW95211   3.636   6.971  10.047 -0.1703 -0.3509 -0.1012
29964SOL    HW195212   3.726   6.946  10.064 -0.2139  0.0493  0.7803
29964SOL    HW295213   3.587   6.889  10.049  0.4378 -0.8446 -2.6322
29965SOL     OW95214   9.844   6.005   5.936  0.3248 -0.0712  0.2200
29965SOL    HW195215   9.938   6.024   5.944 -0.1246  2.7668 -0.4342
29965SOL    HW295216   9.839   5.943   5.863  1.5670  1.7738 -1.5553
29966SOL     OW95217   9.103  10.564   7.134 -0.2069  0.6125 -0.0604
29966SOL    HW195218   9.052  10.574   7.214 -0.3422  1.4849 -0.2435
29966SOL    HW295219   9.163  10.638   7.134 -0.8026  1.1304 -1.1734
29967SOL     OW95220  11.027   8.395   5.353 -0.4239 -0.1480 -0.7843
29967SOL    HW195221  10.997   8.306   5.369  0.7184 -0.5927 -1.0247
29967SOL    HW295222  11.007   8.411   5.260 -2.4880  0.6209 -0.2707
29968SOL     OW95223   4.689   5.720   9.576 -0.0962 -0.1918 -0.1732
29968SOL    HW195224   4.718   5.641   9.621  1.0157  0.0814 -0.3826
29968SOL    HW295225   4.753   5.787   9.601 -0.8529  0.5716 -0.2326
29969SOL     OW95226   5.545   4.376   6.409 -0.2402  0.6059  0.1014
29969SOL    HW195227   5.571   4.327   6.486 -2.0557  0.1260  0.4637
29969SOL    HW295228   5.622   4.374   6.351  0.4621 -0.7471  1.0412
29970SOL     OW95229   0.140   1.313   8.849 -0.4079  0.5241 -0.3451
29970SOL    HW195230   0.103   1.260   8.920  0.5419 -1.7824 -1.4707
29970SOL    HW295231   0.081   1.299   8.775  0.5433  0.0148 -1.0173
29971SOL     OW95232   3.286  11.794  10.869  0.1526  0.4631 -0.1202
29971SOL    HW195233   3.370  11.781  10.827  0.0638  1.4466 -0.6123
29971SOL    HW295234   3.227  11.819  10.798 -0.1100  1.6528  0.5025
29972SOL     OW95235   8.574   9.162   6.386  0.5302 -0.5522  0.1589
29972SOL    HW195236   8.601   9.253   6.371 -0.0998 -0.6505 -1.8436
29972SOL    HW295237   8.480   9.162   6.368  0.4780 -1.5541  0.3769
29973SOL     OW95238   7.085   5.332  11.071 -0.0208 -0.1074 -0.1766
29973SOL    HW195239   7.045   5.367  11.150  1.1252  0.9530 -0.0427
29973SOL    HW295240   7.090   5.406  11.011  2.8454  0.1711  0.2667
29974SOL     OW95241   8.915   0.167   8.838  0.0208 -0.1166  0.4444
29974SOL    HW195242   8.958   0.157   8.753  0.6877 -0.0370  0.7663
29974SOL    HW295243   8.968   0.232   8.884 -0.7536  0.3833  0.6522
29975SOL     OW95244   0.226   1.924   1.839 -0.0775  0.4887  0.4133
29975SOL    HW195245   0.241   1.883   1.924  2.6577  0.5230  0.0331
29975SOL    HW295246   0.206   2.015   1.860 -1.0845  0.1354  1.0587
29976SOL     OW95247   8.940   4.421   1.183  0.4780 -0.8068  0.3471
29976SOL    HW195248   8.857   4.461   1.210 -0.6534 -3.1673  0.6364
29976SOL    HW295249   8.914   4.338   1.143  2.6283 -0.8536 -1.0747
29977SOL     OW95250  10.995   8.194   6.377  0.3018  0.7959  0.6471
29977SOL    HW195251  11.035   8.175   6.461  0.6069 -0.4407  0.2383
29977SOL    HW295252  11.017   8.119   6.322 -2.7541 -0.0958  0.4613
29978SOL     OW95253   1.138   4.286   4.599  0.1109 -0.3617 -0.1032
29978SOL    HW195254   1.209   4.224   4.620  0.5003  0.1898  0.2400
29978SOL    HW295255   1.098   4.305   4.684 -0.1275 -0.2830 -0.2347
29979SOL     OW95256   0.597   7.594  10.168  0.6940  0.8494  0.5926
29979SOL    HW195257   0.692   7.586  10.163  0.6654  1.2059 -0.9427
29979SOL    HW295258   0.578   7.681  10.135 -0.2178  0.4009 -0.1261
29980SOL     OW95259   7.985   3.123   3.275  0.1393  0.9445  0.4418
29980SOL    HW195260   8.079   3.115   3.291 -0.1308 -1.9435  1.1972
29980SOL    HW295261   7.954   3.179   3.346  1.1299  1.0341  0.8316
29981SOL     OW95262   3.164   4.621   3.696 -0.4608 -0.2463 -0.0936
29981SOL    HW195263   3.202   4.558   3.634 -1.3106  0.2730 -1.1817
29981SOL    HW295264   3.131   4.566   3.768 -1.3877 -1.0907 -1.1232
29982SOL     OW95265   1.963   7.236  10.202 -0.0285 -0.3869 -0.0849
29982SOL    HW195266   1.875   7.247  10.165 -0.4497 -1.6543  0.4540
29982SOL    HW295267   1.996   7.156  10.161 -0.2781 -1.5089  1.7845
29983SOL     OW95268  11.407   8.333   4.738  0.5522 -0.0771 -0.1702
29983SOL    HW195269  11.448   8.351   4.823 -0.1876 -1.4632  0.5157
29983SOL    HW295270  11.334   8.394   4.733  0.5718 -0.0211  0.2150
29984SOL     OW95271   1.065   2.380   0.600 -0.0069  0.4080 -0.1887
29984SOL    HW195272   1.034   2.308   0.654 -1.2100  0.1731 -1.1360
29984SOL    HW295273   1.015   2.456   0.628 -0.0348  0.4692 -0.3962
29985SOL     OW95274  11.087   5.947   9.908 -0.3616  0.4946 -0.0391
29985SOL    HW195275  11.054   5.892   9.980  1.7217 -0.0206  0.5917
29985SOL    HW295276  11.057   5.903   9.829  0.5094 -1.1039  0.4738
29986SOL     OW95277  10.827  11.393   3.524  0.3079 -0.2490  0.0446
29986SOL    HW195278  10.793  11.482   3.515  1.9698  0.3899 -0.2833
29986SOL    HW295279  10.767  11.339   3.474  0.2090  0.9292 -1.1618
29987SOL     OW95280  10.931   6.291   9.667  0.1718  0.4268  0.2287
29987SOL    HW195281  10.961   6.343   9.741  0.1560  0.7382  0.0189
29987SOL    HW295282  10.878   6.352   9.615  0.2150  0.2231 -0.0572
29988SOL     OW95283  10.804   7.988   8.195 -0.2340 -0.7673  0.2792
29988SOL    HW195284  10.767   7.973   8.108 -1.3094  0.9353  0.3897
29988SOL    HW295285  10.891   8.023   8.177  0.0763 -1.6760 -0.0602
29989SOL     OW95286   1.099   8.067   6.619 -0.2578 -0.0818  0.1703
29989SOL    HW195287   1.055   7.990   6.655 -1.2075  0.6973  0.7017
29989SOL    HW295288   1.101   8.130   6.691 -0.8001  0.9352 -0.6785
29990SOL     OW95289   2.085   4.416   1.292 -0.5880  0.5749  0.1356
29990SOL    HW195290   2.042   4.422   1.378 -0.6018  0.3344  0.1456
29990SOL    HW295291   2.177   4.402   1.312 -0.6961 -0.2280  0.1146
29991SOL     OW95292   7.393   8.004   6.664  0.0810  0.0971 -0.3857
29991SOL    HW195293   7.459   8.035   6.602  1.8459 -2.0756  0.2741
29991SOL    HW295294   7.412   8.050   6.745  0.2591  0.0950 -0.4258
29992SOL     OW95295   8.540   9.468  10.713  0.1777  0.7489  0.5515
29992SOL    HW195296   8.479   9.398  10.691  0.1707  1.5099 -2.2162
29992SOL    HW295297   8.497   9.517  10.783 -1.4419  0.0452  0.0958
29993SOL     OW95298   2.767   9.898   5.457 -0.4239  0.5621  0.0407
29993SOL    HW195299   2.776   9.844   5.379 -1.7219 -0.9564  0.9007
29993SOL    HW295300   2.843   9.875   5.510 -0.2618  0.5932 -0.1749
29994SOL     OW95301   5.836   0.667   0.576 -0.6292  0.0032  0.0771
29994SOL    HW195302   5.829   0.617   0.494 -0.0798  0.4076 -0.2290
29994SOL    HW295303   5.781   0.744   0.561 -0.6685 -0.0105  0.1537
29995SOL     OW95304  11.402   3.677  10.146  0.8403  0.5691  0.1273
29995SOL    HW195305  11.337   3.611  10.120  1.7421 -0.6974  0.9793
29995SOL    HW295306  11.457   3.688  10.068  0.9372 -0.0179  0.1045
29996SOL     OW95307   3.134   9.500   0.175 -0.2099  0.5763 -0.3225
29996SOL    HW195308   3.180   9.554   0.239 -0.0737 -0.8400  0.8333
29996SOL    HW295309   3.200   9.435   0.147 -0.6440  0.3873 -0.9328
29997SOL     OW95310   8.251   7.364   4.258  0.5540  0.4806 -0.6371
29997SOL    HW195311   8.288   7.436   4.310  1.7159 -1.0488  0.7834
29997SOL    HW295312   8.285   7.285   4.300 -1.3847 -0.9407 -1.5907
29998SOL     OW95313   2.883   9.460   7.923 -0.5273  0.1411 -0.3383
29998SOL    HW195314   2.969   9.462   7.965 -0.5613 -2.8106  0.0595
29998SOL    HW295315   2.821   9.473   7.994 -0.4881  3.1692 -0.7471
29999SOL     OW95316   5.057   3.703   2.005 -0.2875 -0.5402 -0.1256
29999SOL    HW195317   5.110   3.638   2.051  0.0319  0.3628  0.8410
29999SOL    HW295318   4.966   3.678   2.024 -0.3284 -2.7013 -2.6334
30000SOL     OW95319   0.441   5.884   0.928  0.0573 -0.2405 -0.4325
30000SOL    HW195320   0.373   5.932   0.881  1.0102 -1.2136 -3.0226
30000SOL    HW295321   0.393   5.825   0.986 -1.1958  0.9953 -0.1720
30001SOL     OW95322   5.656  10.741   0.630 -0.0875 -0.4752 -0.1793
30001SOL    HW195323   5.739  10.700   0.607  0.8131  0.6428  0.9647
30001SOL    HW295324   5.611  10.753   0.546  1.5148  0.1774 -0.9873
30002SOL     OW95325   6.966   5.748   6.006  0.2959 -0.5179  0.2039
30002SOL    HW195326   6.884   5.787   5.974  0.0911 -0.0947  1.1933
30002SOL    HW295327   6.942   5.659   6.031  0.2155 -0.5090  0.1604
30003SOL     OW95328   1.979  11.085   4.696  0.3332  0.0563 -0.5999
30003SOL    HW195329   1.992  10.994   4.722  0.7832 -0.6428 -2.9737
30003SOL    HW295330   1.884  11.097   4.696  0.3046 -0.1262  0.5526
30004SOL     OW95331   6.395   9.402   3.636  0.2571 -0.5731 -0.4426
30004SOL    HW195332   6.312   9.365   3.609  0.4285 -0.3298 -1.3173
30004SOL    HW295333   6.383   9.497   3.627  0.0898 -0.4303  0.9990
30005SOL     OW95334   2.207   6.207   5.091 -0.4560  0.3058  0.0256
30005SOL    HW195335   2.217   6.297   5.059  1.1631 -0.5321 -2.1341
30005SOL    HW295336   2.114   6.198   5.109 -1.1594  1.6433 -2.4376
30006SOL     OW95337   4.262  10.923   2.569  0.3268  0.8425 -0.5194
30006SOL    HW195338   4.342  10.879   2.599  0.5683 -0.1286 -2.3848
30006SOL    HW295339   4.260  11.006   2.616  0.4566 -0.6543  2.3429
30007SOL     OW95340   7.322   5.304   8.860 -0.0206 -0.1752 -0.7665
30007SOL    HW195341   7.372   5.253   8.924 -1.3997 -0.1362  0.3997
30007SOL    HW295342   7.334   5.258   8.777 -0.0513 -1.5699 -0.0285
30008SOL     OW95343   7.131   0.593   3.332 -0.1344  0.3128  0.5026
30008SOL    HW195344   7.057   0.649   3.307  0.9643  2.2432  1.3254
30008SOL    HW295345   7.097   0.538   3.403 -0.4121  2.3093  1.9983
30009SOL     OW95346   0.089   5.959   2.903 -0.0035 -0.2365 -0.2957
30009SOL    HW195347   0.045   6.042   2.884  1.1914  0.1523 -1.5468
30009SOL    HW295348   0.168   5.961   2.849 -0.2511 -2.4536 -0.8359
30010SOL     OW95349   8.148   4.702   1.896 -0.2237  0.1827 -0.2401
30010SOL    HW195350   8.057   4.677   1.880  0.3587 -1.6498 -0.8909
30010SOL    HW295351   8.199   4.654   1.830  1.1575  1.8337 -0.4452
30011SOL     OW95352   0.908   4.377   9.881  0.3036  0.2896  0.6043
30011SOL    HW195353   0.853   4.317   9.831  0.5619  0.8146 -0.3290
30011SOL    HW295354   0.997   4.344   9.867  0.5219  1.3015 -0.5238
30012SOL     OW95355   1.333   3.009   8.202  0.6528  1.0938  0.2550
30012SOL    HW195356   1.289   2.995   8.118 -0.4733  2.8775  0.4960
30012SOL    HW295357   1.416   2.962   8.194  0.1205  0.3857 -1.4626
30013SOL     OW95358   4.826   1.849   8.241  0.1501 -0.3704 -0.2105
30013SOL    HW195359   4.916   1.827   8.266  0.5003 -0.5546 -1.5420
30013SOL    HW295360   4.817   1.942   8.263  1.8618  0.6386 -3.0642
30014SOL     OW95361   2.881   7.720   4.310  0.0909 -0.5405  0.7457
30014SOL    HW195362   2.788   7.744   4.307 -0.0066 -0.8390  1.2686
30014SOL    HW295363   2.881   7.625   4.327  0.4701 -0.8810 -0.9546
30015SOL     OW95364   4.521   3.927   3.213  0.2331 -0.4212  0.0730
30015SOL    HW195365   4.479   3.984   3.278  0.2225 -1.7643  1.2744
30015SOL    HW295366   4.607   3.908   3.250  0.4755 -0.7000 -0.6116
30016SOL     OW95367   0.341   8.966   4.777  0.3589  0.1398 -0.0936
30016SOL    HW195368   0.394   9.014   4.714  1.7332 -0.0889  0.8376
30016SOL    HW295369   0.365   9.003   4.862 -1.4147  0.4079  0.3294
30017SOL     OW95370   2.899   3.550   0.252 -0.0365 -0.2878 -0.5709
30017SOL    HW195371   2.888   3.599   0.171  0.2541  0.2511 -0.2880
30017SOL    HW295372   2.881   3.459   0.228 -1.0394  0.0140 -0.9986
30018SOL     OW95373  10.658  10.794   3.556 -0.1920  1.1366 -0.0099
30018SOL    HW195374  10.679  10.785   3.463  2.3236  0.4770  0.5411
30018SOL    HW295375  10.716  10.863   3.587  1.7424 -1.1161  1.7561
30019SOL     OW95376   0.205  11.800   3.940  0.0147 -0.1113  0.7822
30019SOL    HW195377   0.260  11.757   4.006  1.1983  0.5773  0.2849
30019SOL    HW295378   0.175  11.880   3.982  3.4707  2.0586 -0.4542
30020SOL     OW95379   6.799   3.636   8.562 -0.2188  0.1392  0.0897
30020SOL    HW195380   6.828   3.614   8.650  2.1891 -0.3926 -0.7499
30020SOL    HW295381   6.776   3.552   8.521  0.6008  0.1392 -0.3934
30021SOL     OW95382  10.592   0.442   7.917 -0.2338  0.1583 -0.5527
30021SOL    HW195383  10.562   0.533   7.909 -1.9972 -0.4087 -0.9174
30021SOL    HW295384  10.628   0.421   7.830 -0.3676  0.3208 -0.6479
30022SOL     OW95385   1.075  11.658  10.596 -0.7461  0.0536 -0.6427
30022SOL    HW195386   1.072  11.749  10.625  2.0385 -0.1015  0.4746
30022SOL    HW295387   1.098  11.609  10.674  0.5591 -1.2242 -1.7735
30023SOL     OW95388   5.926   3.332   8.886 -0.5008  0.5273  0.7232
30023SOL    HW195389   5.942   3.274   8.961  0.8692 -0.5017 -0.3094
30023SOL    HW295390   6.005   3.387   8.881  0.8408 -1.4147 -1.6569
30024SOL     OW95391  10.794   9.325   9.238 -0.1511 -0.0797  0.2976
30024SOL    HW195392  10.724   9.356   9.295 -0.6415 -1.8470  0.7127
30024SOL    HW295393  10.821   9.242   9.277  0.2346 -0.8024 -1.4409
30025SOL     OW95394   5.396   4.639   4.497 -0.5793 -0.3175 -0.1548
30025SOL    HW195395   5.357   4.564   4.452  1.2696 -0.1765 -2.1587
30025SOL    HW295396   5.395   4.709   4.431  0.8658  0.3692  0.5198
30026SOL     OW95397   2.159   2.817   7.032 -0.5686  0.2686  0.1631
30026SOL    HW195398   2.239   2.792   7.078 -0.2971  0.2834 -0.3093
30026SOL    HW295399   2.104   2.857   7.101 -0.8579 -1.2493  0.8593
30027SOL     OW95400   2.813  11.236   3.956 -0.1000  0.8779  0.0057
30027SOL    HW195401   2.821  11.229   4.051  2.0590  1.9690 -0.0120
30027SOL    HW295402   2.899  11.207   3.923 -1.5793 -1.8322 -1.8306
30028SOL     OW95403   7.961   9.894   3.073  0.3224  0.0312 -0.3313
30028SOL    HW195404   7.957   9.981   3.032 -2.2026 -0.7600 -2.0957
30028SOL    HW295405   7.947   9.833   3.000  0.7979 -1.7962  1.0281
30029SOL     OW95406   1.202   6.335   4.172 -0.6481  0.4206  0.2230
30029SOL    HW195407   1.138   6.265   4.164  0.9443 -0.9156 -1.6675
30029SOL    HW295408   1.217   6.343   4.266  0.7796 -3.4536  0.4977
30030SOL     OW95409   4.218   2.956   8.320 -0.0693 -0.3404 -0.6342
30030SOL    HW195410   4.293   2.897   8.332 -0.7914 -0.8470  1.8764
30030SOL    HW295411   4.194   2.983   8.408 -2.6559  0.0671 -1.3813
30031SOL     OW95412   5.789  11.823   3.996  0.5615  0.2843  0.3305
30031SOL    HW195413   5.796  11.730   3.975  0.9819  0.1316  1.1041
30031SOL    HW295414   5.697  11.844   3.982  0.5464 -0.1358 -0.2671
30032SOL     OW95415   0.950   3.530  10.054 -0.1793  0.1082 -0.1429
30032SOL    HW195416   0.883   3.598  10.053  0.8001  1.1366 -2.2428
30032SOL    HW295417   1.022   3.567  10.105 -0.6910 -0.5015  1.0579
30033SOL     OW95418   9.970  10.018  10.167 -0.2767 -0.3253  0.1456
30033SOL    HW195419   9.910   9.945  10.155  0.4428 -1.0402  0.7748
30033SOL    HW295420   9.914  10.096  10.169 -0.9702 -0.7319 -1.5264
30034SOL     OW95421   5.004   7.266   9.842 -0.2899  0.1733  0.2969
30034SOL    HW195422   5.017   7.171   9.844 -0.6381  0.1213  0.2017
30034SOL    HW295423   4.915   7.277   9.808  0.1583  0.5759 -0.7672
30035SOL     OW95424   2.319   2.552  10.667 -0.1139  0.0343  0.5064
30035SOL    HW195425   2.336   2.521  10.578  1.7637  1.0209  0.4682
30035SOL    HW295426   2.394   2.521  10.718 -1.1105 -0.4234  1.7354
30036SOL     OW95427   4.629   0.819   1.651  0.0012  0.3330 -0.0885
30036SOL    HW195428   4.571   0.777   1.714 -0.6248  0.7783 -0.3548
30036SOL    HW295429   4.717   0.793   1.678 -0.3619 -1.0544 -0.2056
30037SOL     OW95430   7.001   3.217   3.943  0.1960 -0.1748 -0.4157
30037SOL    HW195431   6.911   3.240   3.921 -0.2915 -0.7363  0.8311
30037SOL    HW295432   7.051   3.230   3.863 -0.7353  1.4783 -0.7543
30038SOL     OW95433   3.560  10.999   6.996  0.3982 -0.1810  0.1346
30038SOL    HW195434   3.596  10.911   6.979  0.2584 -0.0412 -0.9296
30038SOL    HW295435   3.624  11.058   6.956 -0.3294  0.1272 -0.5929
30039SOL     OW95436   2.272   8.048   5.204 -0.4692  0.8533  0.2315
30039SOL    HW195437   2.363   8.075   5.214 -0.1757  0.1354 -0.3718
30039SOL    HW295438   2.275   7.952   5.207 -1.1999  0.8226  0.1801
30040SOL     OW95439   7.582   8.180   5.086  0.1045 -0.3680 -0.2690
30040SOL    HW195440   7.534   8.101   5.060  2.6961 -1.8354 -0.9706
30040SOL    HW295441   7.563   8.190   5.179 -0.0199 -2.0528 -0.0830
30041SOL     OW95442   5.312   5.071   0.254  0.0256 -0.6288 -0.6667
30041SOL    HW195443   5.345   5.084   0.343 -1.3349 -1.8332  0.0543
30041SOL    HW295444   5.293   4.977   0.250 -1.3155 -0.3325 -1.7233
30042SOL     OW95445  11.294   3.793   5.679  0.2416 -0.4660 -0.4186
30042SOL    HW195446  11.306   3.772   5.772  0.7721  2.4299  0.2741
30042SOL    HW295447  11.380   3.780   5.640  0.0721 -1.4683 -0.4862
30043SOL     OW95448   5.729   4.106   7.689 -0.0255  0.0323  0.2497
30043SOL    HW195449   5.754   4.160   7.614  0.1573  0.2618  0.4728
30043SOL    HW295450   5.750   4.017   7.662 -1.1335 -0.0382 -0.4608
30044SOL     OW95451   5.374   7.741   6.136 -0.3064 -0.5294  0.2262
30044SOL    HW195452   5.401   7.658   6.095  1.0806  0.5855 -1.2338
30044SOL    HW295453   5.321   7.784   6.069 -0.0733  0.2692  0.5503
30045SOL     OW95454   9.925   7.340   7.779  0.4749  0.8958  0.6532
30045SOL    HW195455  10.005   7.290   7.792 -1.8243 -3.7473 -1.0062
30045SOL    HW295456   9.899   7.322   7.689 -3.0466  1.0843  1.4803
30046SOL     OW95457   8.777   3.040   6.543  0.6890 -0.7023 -0.2669
30046SOL    HW195458   8.744   2.953   6.565  0.7713 -0.7621 -0.3805
30046SOL    HW295459   8.698   3.095   6.537  0.7769  0.1211  3.4944
30047SOL     OW95460   0.650   6.676   5.980 -0.3864  0.1356  0.1333
30047SOL    HW195461   0.696   6.619   6.041 -0.2722  0.5482  0.4444
30047SOL    HW295462   0.718   6.734   5.945 -0.2923 -0.6446 -1.0457
30048SOL     OW95463  10.648   4.959   5.085 -1.1460  0.4531  0.2889
30048SOL    HW195464  10.601   4.964   5.002 -2.0062  1.1078  0.8036
30048SOL    HW295465  10.651   4.865   5.105  0.4965  0.1071 -1.2474
30049SOL     OW95466   8.448   3.811   0.883 -0.9567  0.3853  0.6893
30049SOL    HW195467   8.523   3.763   0.918 -0.7467  0.8377  0.8558
30049SOL    HW295468   8.472   3.829   0.792 -1.1281 -0.0093  0.5627
30050SOL     OW95469  10.720   9.464   8.870 -0.4389 -0.8372 -0.0831
30050SOL    HW195470  10.701   9.465   8.776 -0.3079  0.7236 -0.1190
30050SOL    HW295471  10.761   9.379   8.885  0.3518 -0.7690 -1.6190
30051SOL     OW95472   9.892   3.763   8.367  0.3942  0.5593 -0.4157
30051SOL    HW195473   9.876   3.835   8.429  0.4496  0.8249 -0.7079
30051SOL    HW295474   9.902   3.686   8.422 -1.1242  0.5130 -0.1704
30052SOL     OW95475   3.746  11.213   3.114 -0.2954 -0.3373  0.2772
30052SOL    HW195476   3.772  11.306   3.112  1.2012 -0.7086  0.8223
30052SOL    HW295477   3.746  11.191   3.207 -0.0898 -1.0208  0.1165
30053SOL     OW95478   8.435  11.094   2.155 -0.8383 -0.1798 -0.3674
30053SOL    HW195479   8.358  11.145   2.128 -0.5205  0.8612  0.6383
30053SOL    HW295480   8.485  11.083   2.074 -1.5724 -0.0568 -0.8544
30054SOL     OW95481   7.033   1.468   3.678  0.0460  0.2757 -0.4611
30054SOL    HW195482   7.071   1.409   3.742 -0.7629  1.8581  1.5820
30054SOL    HW295483   6.942   1.442   3.672 -0.7540  2.2201  1.7329
30055SOL     OW95484   3.287   9.300   1.132  0.2247  0.0842  0.7399
30055SOL    HW195485   3.338   9.291   1.051  1.1872 -2.2647  1.5018
30055SOL    HW295486   3.202   9.260   1.111 -0.7105  2.2856  0.0385
30056SOL     OW95487   3.060   9.764   5.046 -0.6672 -0.2575  0.1370
30056SOL    HW195488   3.043   9.740   4.955  1.5385  1.7791 -0.9238
30056SOL    HW295489   3.120   9.698   5.079 -0.8100 -0.5308 -0.1544
30057SOL     OW95490   0.980   1.477   3.479  0.2917 -0.2725 -0.3596
30057SOL    HW195491   0.887   1.495   3.495  0.0943 -0.7954 -0.8734
30057SOL    HW295492   1.026   1.542   3.531 -0.3278 -1.4450  1.7462
30058SOL     OW95493   1.149   4.364   7.068 -0.1004 -0.1327 -0.3344
30058SOL    HW195494   1.222   4.327   7.019 -0.3427  0.2489 -0.9961
30058SOL    HW295495   1.181   4.369   7.159  0.3426 -0.8600 -0.4423
30059SOL     OW95496   7.567   3.907   8.420  0.3288 -0.1590 -0.7417
30059SOL    HW195497   7.524   3.884   8.337 -0.0630  0.3257 -0.6755
30059SOL    HW295498   7.572   3.825   8.468 -0.0168 -0.3243 -0.9861
30060SOL     OW95499   9.955   1.338   4.116 -0.1044 -0.3415  0.3104
30060SOL    HW195500   9.926   1.350   4.026 -2.6858 -0.4417  1.0325
30060SOL    HW295501   9.917   1.412   4.164  2.1541  0.3392  1.1793
30061SOL     OW95502  10.897   1.653   6.013  0.0785 -0.0101 -0.0056
30061SOL    HW195503  10.931   1.570   6.046  0.6112  0.4042  0.5161
30061SOL    HW295504  10.943   1.665   5.929  0.6851  0.1886  0.3461
30062SOL     OW95505   1.551   0.817   6.740  0.2634 -0.2595  0.0543
30062SOL    HW195506   1.595   0.742   6.780  0.1190 -1.0349 -1.1547
30062SOL    HW295507   1.593   0.826   6.654 -0.2522  0.5500 -0.1219
30063SOL     OW95508   2.569   4.696   0.806  0.0744  0.2316 -0.1405
30063SOL    HW195509   2.527   4.665   0.887  0.4757  0.7016  0.2534
30063SOL    HW295510   2.551   4.790   0.804  0.1920  0.2455 -0.5193
30064SOL     OW95511   5.064   8.883   5.838  0.4027 -0.2481  0.4649
30064SOL    HW195512   5.056   8.922   5.926 -2.7726 -0.3049  0.3109
30064SOL    HW295513   5.107   8.799   5.853 -0.1431 -0.2837  2.0198
30065SOL     OW95514   2.022   3.077   2.137  0.3481  0.3526  0.8349
30065SOL    HW195515   2.099   3.121   2.173  1.6222 -0.2506 -1.0048
30065SOL    HW295516   1.999   3.130   2.061  0.6203 -0.9490 -0.1850
30066SOL     OW95517   2.860   9.641   9.305  0.6494  0.5360  0.0348
30066SOL    HW195518   2.914   9.693   9.365 -0.2815  0.8515  0.6125
30066SOL    HW295519   2.783   9.695   9.289 -0.2101 -0.5401  0.4277
30067SOL     OW95520  10.597  10.038   6.559 -0.3605  0.1066  0.2785
30067SOL    HW195521  10.509  10.072   6.580 -0.7742 -0.1289 -0.9955
30067SOL    HW295522  10.589   9.944   6.572  0.2059  0.2343  1.7968
30068SOL     OW95523   5.035   8.260   2.527 -0.0637 -0.0589  0.5660
30068SOL    HW195524   4.993   8.202   2.591 -1.9655  0.6418  0.0108
30068SOL    HW295525   4.976   8.261   2.452 -0.3468  2.9165  0.7173
30069SOL     OW95526   8.859   1.618   2.780 -0.5100 -0.0433 -0.0895
30069SOL    HW195527   8.764   1.609   2.789 -0.3890 -0.7934  0.5410
30069SOL    HW295528   8.873   1.633   2.686 -1.1721 -1.1036 -0.3794
30070SOL     OW95529  10.446   8.972   9.911  0.1402  0.1874  0.1265
30070SOL    HW195530  10.462   8.970   9.817 -1.7120  2.1856 -0.2966
30070SOL    HW295531  10.421   9.062   9.930  1.5369  0.1216  2.7641
30071SOL     OW95532  10.116   9.854   5.845  0.0765  0.4584 -0.5063
30071SOL    HW195533  10.072   9.886   5.924 -1.8913 -0.3969 -1.2007
30071SOL    HW295534  10.083   9.765   5.833  0.5215  0.4731 -2.1496
30072SOL     OW95535  11.251   7.484   1.656  0.0844 -0.2139 -0.4887
30072SOL    HW195536  11.300   7.515   1.580  0.6630  0.3454  0.0944
30072SOL    HW295537  11.159   7.489   1.630  0.3556 -2.2086 -1.9443
30073SOL     OW95538   8.578   9.050   4.766 -0.2038  0.7299  0.7394
30073SOL    HW195539   8.564   9.126   4.824  3.0098  1.5227  0.6582
30073SOL    HW295540   8.547   9.079   4.681 -1.2898  1.0072  1.2079
30074SOL     OW95541   7.851   8.759   9.923 -0.3328 -0.8660 -0.1038
30074SOL    HW195542   7.881   8.729   9.837  1.7356  0.9357 -0.0933
30074SOL    HW295543   7.761   8.788   9.908  0.4778  0.8797 -2.0953
30075SOL     OW95544   3.991   1.200   9.392 -0.4976  0.0140 -0.3678
30075SOL    HW195545   3.993   1.183   9.486 -2.2435  0.1691 -0.2560
30075SOL    HW295546   4.075   1.169   9.359 -0.1213 -0.6380  1.1503
30076SOL     OW95547   4.576   2.962   5.354  0.2020 -0.1085  0.1715
30076SOL    HW195548   4.611   2.962   5.443 -1.0304 -1.0328  0.6683
30076SOL    HW295549   4.484   2.938   5.363  0.3370 -1.4469 -1.4652
30077SOL     OW95550   9.049   3.037   2.485 -0.3987  0.3409 -0.0942
30077SOL    HW195551   9.130   3.025   2.535 -0.0562  0.5602 -0.5965
30077SOL    HW295552   9.002   3.105   2.533 -0.4008  0.0416  0.3365
30078SOL     OW95553   2.426   5.207   0.981 -0.1301 -0.1610 -0.0856
30078SOL    HW195554   2.410   5.299   0.963 -0.2784 -0.3568 -0.9835
30078SOL    HW295555   2.520   5.195   0.967 -0.1175 -0.1599 -0.0058
30079SOL     OW95556   2.323   9.196   4.548  0.5775 -0.1817  0.1137
30079SOL    HW195557   2.250   9.228   4.495  0.2505 -1.0189  0.0461
30079SOL    HW295558   2.385   9.160   4.484  1.2898  0.9458  0.1286
30080SOL     OW95559   5.410   1.336   5.812 -0.0058 -0.3711  0.5565
30080SOL    HW195560   5.336   1.294   5.855 -0.2858 -0.0975  0.3426
30080SOL    HW295561   5.386   1.339   5.719  1.2468 -2.3980  0.0808
30081SOL     OW95562   7.560   8.773   8.569  0.1810  0.6666  0.6181
30081SOL    HW195563   7.562   8.686   8.528 -1.9534  0.2776  1.2312
30081SOL    HW295564   7.539   8.756   8.661  0.6841  1.7767  0.9457
30082SOL     OW95565   8.880   0.482   0.821 -0.4767 -0.1404  0.5095
30082SOL    HW195566   8.934   0.456   0.747  0.4039 -2.2664  1.8014
30082SOL    HW295567   8.924   0.560   0.857 -0.3385  0.2873 -0.5507
30083SOL     OW95568  10.652   1.989   1.736 -0.0953  0.0916 -0.5916
30083SOL    HW195569  10.722   1.971   1.672  0.1855  0.9997 -0.5602
30083SOL    HW295570  10.571   1.984   1.686  0.0356 -0.3934 -0.7572
30084SOL     OW95571   8.395  10.274   5.974 -0.0078 -0.2755 -0.4396
30084SOL    HW195572   8.345  10.194   5.958 -1.0772 -0.0159  1.3932
30084SOL    HW295573   8.331  10.344   5.969  0.6556  0.3357 -0.5773
30085SOL     OW95574   8.975   5.834   8.385 -0.2367  0.0464 -1.1042
30085SOL    HW195575   8.954   5.742   8.399  1.6135 -0.4091 -0.9814
30085SOL    HW295576   8.914   5.863   8.318 -1.4571 -1.0073 -0.4823
30086SOL     OW95577   9.007   5.451   1.101  0.1495 -0.3856  0.2939
30086SOL    HW195578   9.090   5.494   1.122  0.1723  0.3497 -1.2218
30086SOL    HW295579   8.999   5.382   1.168  0.2001  1.7679  2.6737
30087SOL     OW95580   7.624  11.234   8.984  0.5457  0.1124  0.0559
30087SOL    HW195581   7.644  11.325   9.004  2.3951  0.4125 -2.7427
30087SOL    HW295582   7.707  11.196   8.957 -0.2124 -2.4178  1.0195
30088SOL     OW95583   3.587   7.811   2.437  0.6094 -0.1803 -0.2230
30088SOL    HW195584   3.576   7.889   2.490  0.8676  0.0579 -0.5151
30088SOL    HW295585   3.598   7.844   2.348  0.7594 -0.5463 -0.3406
30089SOL     OW95586   6.592   2.526   5.433 -0.0035  0.5219  0.2344
30089SOL    HW195587   6.628   2.614   5.447 -0.3534  0.7021 -0.0072
30089SOL    HW295588   6.641   2.492   5.359 -0.9015  1.0918 -0.6408
30090SOL     OW95589   4.358  10.700   8.260 -0.3880  0.0432  0.5119
30090SOL    HW195590   4.356  10.723   8.167  0.8713  0.5098  0.5796
30090SOL    HW295591   4.360  10.604   8.262 -0.7475  0.0254  0.0765
30091SOL     OW95592   7.191   7.307   5.845 -0.2577 -0.2597 -0.2298
30091SOL    HW195593   7.165   7.398   5.828  1.5661  0.2260 -0.5813
30091SOL    HW295594   7.162   7.259   5.767  0.0776  0.3019 -0.7067
30092SOL     OW95595   3.248   5.422   7.580 -0.2236 -0.0221 -0.0205
30092SOL    HW195596   3.159   5.418   7.544 -0.6187 -0.2950  0.9417
30092SOL    HW295597   3.266   5.332   7.609  0.0415  0.1980  0.5173
30093SOL     OW95598   3.232   8.707   3.315  0.2085 -0.4611  0.3780
30093SOL    HW195599   3.326   8.716   3.331  0.5226 -2.2663 -0.2253
30093SOL    HW295600   3.215   8.763   3.239  0.8957 -0.5019  0.1886
30094SOL     OW95601  11.542   7.984   0.420 -0.6487 -0.5735  0.1378
30094SOL    HW195602  11.494   8.062   0.395  0.1797 -0.6656 -1.8986
30094SOL    HW295603  11.492   7.911   0.383  0.0908 -0.7868 -0.4708
30095SOL     OW95604   3.419  11.546   1.784 -0.0725  0.9022  0.0451
30095SOL    HW195605   3.443  11.466   1.830 -1.6265 -0.2259 -0.9946
30095SOL    HW295606   3.455  11.535   1.696  0.0328  1.5273  0.0035
30096SOL     OW95607   7.149   0.159   5.692  0.1854  0.1435 -0.2183
30096SOL    HW195608   7.114   0.166   5.603  0.9815 -0.7602 -0.6157
30096SOL    HW295609   7.243   0.152   5.680  0.2329 -0.8806  0.6382
30097SOL     OW95610   7.835   7.591  11.715 -0.2295 -0.2386 -0.5486
30097SOL    HW195611   7.814   7.683  11.703 -0.8706 -0.4325 -0.9802
30097SOL    HW295612   7.753   7.551  11.743 -0.3149 -0.9058 -1.6779
30098SOL     OW95613  11.254   8.593   7.548  0.5606 -0.1111 -0.1333
30098SOL    HW195614  11.243   8.499   7.534  0.3337 -0.1489  0.2713
30098SOL    HW295615  11.218   8.634   7.469  0.4357 -0.3549 -0.2021
30099SOL     OW95616  10.657   6.753   7.048  0.0601 -0.0294 -0.1618
30099SOL    HW195617  10.631   6.705   6.969  0.4278  1.3883 -1.1877
30099SOL    HW295618  10.577   6.759   7.099 -0.6638  0.6781 -1.3321
30100SOL     OW95619   9.823   8.210   1.851  0.0830  0.5615  0.3750
30100SOL    HW195620   9.736   8.169   1.858 -0.7721  2.4014  1.0999
30100SOL    HW295621   9.843   8.206   1.758 -1.6890  1.8247 -0.1191
30101SOL     OW95622   5.506   4.280   8.226 -0.2199 -0.1408  0.1320
30101SOL    HW195623   5.563   4.355   8.245  1.2429 -0.6566 -1.9091
30101SOL    HW295624   5.418   4.316   8.227  0.5018  1.8651 -1.6453
30102SOL     OW95625   8.105   3.826   7.437 -0.3477  0.2270  0.4426
30102SOL    HW195626   8.158   3.904   7.454  0.3123 -0.4325  1.5527
30102SOL    HW295627   8.130   3.765   7.506 -1.2103 -0.7929 -0.1200
30103SOL     OW95628   8.647  10.056  11.226  0.5391 -0.0832  0.8100
30103SOL    HW195629   8.732  10.012  11.230  0.9931  0.4750 -1.5298
30103SOL    HW295630   8.667  10.146  11.202 -0.7212 -0.1018 -0.4568
30104SOL     OW95631   6.020   4.659   1.143  0.3653  0.3014  0.0291
30104SOL    HW195632   6.112   4.683   1.149  0.3906  0.4914 -0.9299
30104SOL    HW295633   6.013   4.577   1.192  1.2013 -0.1153 -0.5290
30105SOL     OW95634   1.061  10.296   3.403  0.3777 -0.9925 -0.0884
30105SOL    HW195635   0.978  10.256   3.428 -0.5667  0.1662 -1.2233
30105SOL    HW295636   1.099  10.326   3.486 -0.6836 -0.9076  0.3887
30106SOL     OW95637   4.963   2.989  11.333 -0.6878 -0.2342 -0.1853
30106SOL    HW195638   4.918   2.914  11.293 -1.8850  0.0099  0.6612
30106SOL    HW295639   4.943   2.982  11.426  2.2500 -0.9412  0.4964
30107SOL     OW95640   4.812   3.932   2.166 -0.1215  0.4020  0.5810
30107SOL    HW195641   4.799   3.846   2.124 -1.1471  0.3581  0.9561
30107SOL    HW295642   4.734   3.944   2.219  0.5054  1.1105  1.3566
30108SOL     OW95643   8.625   6.079   7.925  0.0438  0.6249 -0.3670
30108SOL    HW195644   8.624   6.118   8.013  0.1104  0.7650 -0.4281
30108SOL    HW295645   8.607   5.986   7.940 -0.2307  0.6980 -0.2298
30109SOL     OW95646   3.103   1.374   6.384 -0.4133 -0.4518  0.8492
30109SOL    HW195647   3.176   1.435   6.393 -1.0314  0.1983  1.5533
30109SOL    HW295648   3.141   1.299   6.338  0.8189 -0.3488  1.6533
30110SOL     OW95649   8.980   6.188   2.679  0.6283  0.0257  0.1217
30110SOL    HW195650   8.990   6.093   2.671  0.7798  0.0957 -0.6147
30110SOL    HW295651   9.042   6.213   2.748 -1.3920 -0.7500  2.3462
30111SOL     OW95652   2.121  11.825   3.457 -0.3695  0.0111 -0.5633
30111SOL    HW195653   2.120  11.730   3.468 -2.0564  0.0720  0.0409
30111SOL    HW295654   2.078  11.840   3.373 -0.8255  0.2859 -0.2801
30112SOL     OW95655   2.146   8.648   5.599 -0.5104 -0.3439 -0.0297
30112SOL    HW195656   2.123   8.590   5.672 -0.4303 -0.1082  0.1837
30112SOL    HW295657   2.241   8.657   5.604 -0.5933  0.3641  0.3658
30113SOL     OW95658  10.010   3.195   6.492 -0.1027 -0.7665  0.3948
30113SOL    HW195659  10.013   3.206   6.397 -3.5388 -0.0398  0.2354
30113SOL    HW295660  10.092   3.233   6.524  0.8108 -0.3858 -2.2219
30114SOL     OW95661   7.047   5.105  11.328 -0.2617  0.2359 -0.2432
30114SOL    HW195662   6.975   5.047  11.303 -0.4759  0.2743  0.2594
30114SOL    HW295663   7.014   5.193  11.308 -0.4773  0.2750  0.2432
30115SOL     OW95664   5.595   3.064   1.218  0.5897 -0.1351  0.1132
30115SOL    HW195665   5.676   3.107   1.192  0.7446 -0.0017  0.8152
30115SOL    HW295666   5.617   3.016   1.298 -0.2178  0.5781  0.7879
30116SOL     OW95667   8.834   9.134  10.587 -0.3884 -0.1435 -0.0940
30116SOL    HW195668   8.773   9.079  10.539 -0.8845  0.3048  0.0127
30116SOL    HW295669   8.851   9.209  10.529 -2.1951  1.1864  0.9979
30117SOL     OW95670   2.308   6.271   1.430  0.3539 -0.7987  0.4292
30117SOL    HW195671   2.398   6.289   1.459  0.2578 -0.8510  0.7623
30117SOL    HW295672   2.253   6.303   1.502  0.1528 -1.8456  0.7573
30118SOL     OW95673   4.335   7.744   7.378  0.2253  0.1668  0.6167
30118SOL    HW195674   4.370   7.716   7.294 -1.3535  1.6131 -0.5882
30118SOL    HW295675   4.345   7.839   7.378  1.2094  0.1110  2.5766
30119SOL     OW95676   3.095   2.794   1.710 -0.3554  0.6504 -0.1404
30119SOL    HW195677   3.045   2.821   1.788 -0.1575  0.9021 -0.1005
30119SOL    HW295678   3.186   2.812   1.733 -0.3023  0.7820 -0.4539
30120SOL     OW95679   6.536   0.181   6.392 -0.2610  0.0503  0.1886
30120SOL    HW195680   6.449   0.195   6.356 -0.9477 -0.5719  1.5377
30120SOL    HW295681   6.534   0.093   6.428  0.6542  0.3355  0.9940
30121SOL     OW95682   6.497   1.828   3.224 -0.6494 -0.0520  0.5880
30121SOL    HW195683   6.540   1.908   3.194  0.3468 -1.2432 -1.3745
30121SOL    HW295684   6.454   1.793   3.145 -0.8807 -1.5597  1.3447
30122SOL     OW95685   9.793   5.931   0.930  0.1816 -0.0676 -0.6065
30122SOL    HW195686   9.727   5.988   0.890 -0.7714 -1.5309 -1.1932
30122SOL    HW295687   9.821   5.872   0.860  0.4039 -0.9710  0.2099
30123SOL     OW95688  10.435   6.498  10.440  0.0365  0.0485 -0.4081
30123SOL    HW195689  10.401   6.415  10.474  0.3528 -0.0994 -0.4500
30123SOL    HW295690  10.507   6.521  10.499 -0.5256  0.6733  0.0476
30124SOL     OW95691   8.731   1.981   7.149 -0.2198  0.1109 -0.1848
30124SOL    HW195692   8.775   2.048   7.201 -1.1167 -1.1651  2.3756
30124SOL    HW295693   8.682   2.030   7.083 -0.4692  1.9573  1.3082
30125SOL     OW95694   2.346   0.967   9.091 -0.5665 -0.1972 -0.3015
30125SOL    HW195695   2.301   0.941   9.171  0.9222  1.7927  1.2972
30125SOL    HW295696   2.439   0.962   9.113 -0.1378  1.1495 -1.6300
30126SOL     OW95697   5.020   8.149   8.038 -0.0077  0.1916  0.2939
30126SOL    HW195698   5.059   8.234   8.060  0.8698 -0.0596 -0.2520
30126SOL    HW295699   5.095   8.093   8.018 -0.4836 -1.1106  1.9543
30127SOL     OW95700  10.020  10.178   5.114 -0.2955 -0.1589 -0.1232
30127SOL    HW195701  10.107  10.153   5.145 -0.4379 -0.1936  0.2480
30127SOL    HW295702  10.004  10.119   5.040  1.5298  2.2264 -2.6253
30128SOL     OW95703  11.106   8.942   9.485  0.3280  0.3215 -0.0714
30128SOL    HW195704  11.094   8.858   9.441 -0.2062  0.4523 -0.1827
30128SOL    HW295705  11.124   8.919   9.576  0.6598  0.0738 -0.1982
30129SOL     OW95706   1.572   8.726  11.149 -0.2631 -0.2839  0.4272
30129SOL    HW195707   1.660   8.727  11.111 -1.0525 -1.1660 -1.5939
30129SOL    HW295708   1.536   8.813  11.129 -0.3878 -0.4678 -0.1762
30130SOL     OW95709   5.680  11.472  10.856 -0.5839  0.1079  0.0896
30130SOL    HW195710   5.604  11.485  10.913 -1.5147  0.4232 -1.1755
30130SOL    HW295711   5.702  11.379  10.866 -1.5452 -0.1377 -0.0193
30131SOL     OW95712   0.488   1.868   7.477 -0.5219 -0.1740 -0.2607
30131SOL    HW195713   0.429   1.859   7.552  0.1645 -1.3498  0.1867
30131SOL    HW295714   0.553   1.799   7.491  0.4130  0.4846 -1.2243
30132SOL     OW95715   2.915  10.074   8.741  0.0111  0.2863  0.2459
30132SOL    HW195716   2.895  10.164   8.714 -0.9418 -0.3018 -1.1790
30132SOL    HW295717   2.852  10.020   8.692  0.9884 -1.2014  0.5541
30133SOL     OW95718   1.253  11.649   2.250  0.1056  0.2691 -0.2315
30133SOL    HW195719   1.258  11.703   2.171 -0.0718 -1.1646 -1.2654
30133SOL    HW295720   1.231  11.561   2.217 -0.7448 -0.1953  1.4812
30134SOL     OW95721   3.933   0.821   6.355 -0.2503  0.1030  0.8233
30134SOL    HW195722   3.928   0.732   6.388 -1.4959  0.5874  2.0525
30134SOL    HW295723   3.858   0.866   6.395  0.0787  1.5818 -0.1231
30135SOL     OW95724   7.121  11.674   5.765 -0.4705 -0.0508 -0.1650
30135SOL    HW195725   7.066  11.715   5.832  0.9353  1.2060  0.2837
30135SOL    HW295726   7.202  11.726   5.766  0.0096 -0.6968 -2.0714
30136SOL     OW95727  10.343   7.877   5.995 -0.3511  0.2679 -0.5290
30136SOL    HW195728  10.372   7.787   6.008 -1.6848 -0.0431  0.6078
30136SOL    HW295729  10.423   7.929   5.995  0.3586 -0.7958  0.1158
30137SOL     OW95730   5.137   4.375  10.218  0.1337  0.2791 -0.0471
30137SOL    HW195731   5.173   4.461  10.197  0.9577  0.4299  1.8449
30137SOL    HW295732   5.058   4.393  10.269  0.1554 -0.0971  0.1221
30138SOL     OW95733   0.233  10.309   5.266 -0.3985 -0.2146  0.6062
30138SOL    HW195734   0.315  10.284   5.309 -0.6657 -0.7267  0.8291
30138SOL    HW295735   0.255  10.313   5.173  0.1158  0.6237  0.7568
30139SOL     OW95736   2.268   4.573   8.767  0.3754  0.1984 -0.7185
30139SOL    HW195737   2.216   4.579   8.686 -0.0448  0.5383 -0.4269
30139SOL    HW295738   2.299   4.661   8.782  2.3818 -0.2822 -1.7411
30140SOL     OW95739   2.552   5.910   5.958 -0.1248  0.0811  0.0315
30140SOL    HW195740   2.461   5.929   5.982  0.0342  1.7083 -0.5582
30140SOL    HW295741   2.559   5.937   5.867  1.3535  1.4478  0.5186
30141SOL     OW95742   2.701   9.441  10.832  0.4192 -0.6820 -0.3043
30141SOL    HW195743   2.777   9.499  10.831 -0.3726  0.4332  0.9434
30141SOL    HW295744   2.687   9.421  10.924 -0.2298 -1.6831 -0.6007
30142SOL     OW95745  11.459   7.197  11.712  0.4038  0.4893  0.3317
30142SOL    HW195746  11.501   7.265  11.659 -1.3181  0.4643 -1.1728
30142SOL    HW295747  11.458   7.120  11.656 -1.2995  0.4090  0.4086
30143SOL     OW95748   7.451   6.744   4.460 -0.1074  0.2811  0.2890
30143SOL    HW195749   7.411   6.673   4.410  0.3162  0.7579 -0.7646
30143SOL    HW295750   7.470   6.706   4.545 -0.4030 -0.7076 -0.0751
30144SOL     OW95751   2.031   6.345  11.691 -0.5864  0.1881  0.0131
30144SOL    HW195752   2.047   6.439  11.683 -0.5939  0.2411  0.5939
30144SOL    HW295753   2.095   6.314  11.755 -0.7930 -0.1491  0.0617
30145SOL     OW95754  10.275   4.109   7.842  0.1943  0.2199  0.6077
30145SOL    HW195755  10.271   4.203   7.857 -2.3642  0.8025 -2.5192
30145SOL    HW295756  10.198   4.074   7.888 -0.1214  0.0294 -0.0516
30146SOL     OW95757   9.196   1.179   9.672  0.0432 -0.0381  0.1576
30146SOL    HW195758   9.291   1.168   9.672  0.1545 -0.0427  3.1859
30146SOL    HW295759   9.181   1.264   9.632  1.3112 -0.1058 -0.5048
30147SOL     OW95760   3.228  11.133   6.673 -0.1582 -0.1505  0.7476
30147SOL    HW195761   3.227  11.215   6.624 -2.0962 -0.9574 -0.6862
30147SOL    HW295762   3.320  11.106   6.673  0.2090  0.9658 -0.5713
30148SOL     OW95763   4.936   4.192  10.003  0.2633  0.5512  0.1090
30148SOL    HW195764   4.871   4.260  10.018 -1.0378 -0.2613 -1.6077
30148SOL    HW295765   5.010   4.238   9.964 -0.3003  1.1051 -0.3208
30149SOL     OW95766   8.323   6.770   5.288 -0.7511 -0.0333  0.1208
30149SOL    HW195767   8.301   6.711   5.216 -3.8197  1.6152 -0.4807
30149SOL    HW295768   8.373   6.840   5.247  0.6493 -0.8842  0.3384
30150SOL     OW95769   6.856  11.012   1.559 -0.0211  0.0115 -0.0604
30150SOL    HW195770   6.865  10.941   1.496  1.5238  1.2516 -1.3255
30150SOL    HW295771   6.916  10.988   1.630  0.0501 -0.2402 -0.2052
30151SOL     OW95772   6.247   2.129   7.425  0.0797 -0.7857  0.1795
30151SOL    HW195773   6.243   2.148   7.518 -0.3963  0.4479 -0.0695
30151SOL    HW295774   6.337   2.149   7.400 -0.0893  0.0037  0.1686
30152SOL     OW95775   8.922   9.265   5.510 -0.3442  0.1336 -0.3373
30152SOL    HW195776   8.869   9.194   5.472 -0.5849  0.4330 -0.5720
30152SOL    HW295777   8.975   9.296   5.437  1.3543 -1.2240  0.2628
30153SOL     OW95778   5.900   4.773   8.919  0.0668 -0.0641  0.8822
30153SOL    HW195779   5.968   4.765   8.985 -1.3212  1.0417  2.5539
30153SOL    HW295780   5.937   4.732   8.840  2.8721  1.0497  1.5012
30154SOL     OW95781   0.314   8.928   3.217  0.3527  0.1110 -0.0947
30154SOL    HW195782   0.237   8.969   3.258 -0.0840 -0.6920 -0.0829
30154SOL    HW295783   0.308   8.836   3.244  1.8232  0.2176  0.6632
30155SOL     OW95784   1.708   0.223   2.825  0.2851  0.3063  0.2551
30155SOL    HW195785   1.671   0.301   2.865 -0.7860  0.2303 -0.5549
30155SOL    HW295786   1.789   0.253   2.784  0.3119  0.8102  0.6708
30156SOL     OW95787  11.546  11.467   7.676  0.6084  0.0342 -0.1606
30156SOL    HW195788  11.567  11.384   7.720  0.3321  0.1435  0.1865
30156SOL    HW295789  11.468  11.499   7.722  2.5590  2.1497  2.0097
30157SOL     OW95790   5.438   6.043   3.747  0.0547 -1.0035  0.0732
30157SOL    HW195791   5.442   5.949   3.761 -1.1085 -1.1260 -0.2991
30157SOL    HW295792   5.490   6.080   3.819  0.7779 -1.9238  0.0529
30158SOL     OW95793   7.945   2.655   6.421  0.3157  0.4237 -0.2926
30158SOL    HW195794   7.967   2.563   6.408  1.8848  0.2702  2.5623
30158SOL    HW295795   8.029   2.698   6.441 -0.3582  2.5355 -1.6414
30159SOL     OW95796   9.364  10.366   9.370  0.2957 -0.2016  0.1381
30159SOL    HW195797   9.385  10.452   9.406 -0.0823 -0.3515  0.7218
30159SOL    HW295798   9.336  10.384   9.281  1.1327  0.1833 -0.0612
30160SOL     OW95799   6.436   3.129   4.404  0.0389 -0.0434  0.8898
30160SOL    HW195800   6.450   3.213   4.448 -1.6862 -0.1799  1.7590
30160SOL    HW295801   6.342   3.126   4.387  0.2400 -1.3360 -0.0919
30161SOL     OW95802  11.533   6.308   7.843  0.1459  0.1884 -0.3054
30161SOL    HW195803  11.558   6.218   7.865  1.7457  0.4204 -1.0325
30161SOL    HW295804  11.441   6.302   7.817 -1.0053 -0.5550  3.4058
30162SOL     OW95805   0.142   0.523   5.412 -0.7559  0.0645 -0.5319
30162SOL    HW195806   0.173   0.453   5.356 -1.3037 -1.1376  0.6252
30162SOL    HW295807   0.088   0.480   5.478 -1.3576  1.6024  0.0394
30163SOL     OW95808   2.327   9.123   1.690  0.3361  0.0565 -0.0807
30163SOL    HW195809   2.376   9.060   1.744 -0.5522  0.2357  0.9552
30163SOL    HW295810   2.360   9.108   1.602  0.6445 -1.3937  0.2483
30164SOL     OW95811   9.959   9.333   7.869  0.0516 -0.3561 -0.6349
30164SOL    HW195812  10.022   9.314   7.799  0.1052 -2.2779 -0.1375
30164SOL    HW295813   9.913   9.250   7.882  0.1658 -0.1145  1.7201
30165SOL     OW95814   0.848   1.150   8.443  0.1811  0.1520 -0.1623
30165SOL    HW195815   0.821   1.197   8.364  1.7345 -2.2853 -2.3114
30165SOL    HW295816   0.943   1.149   8.439  0.2584 -0.7483  1.2975
30166SOL     OW95817   9.404  11.766   6.025  0.4420  0.7940  0.2359
30166SOL    HW195818   9.405  11.850   6.070  1.3307  0.1377  1.5012
30166SOL    HW295819   9.347  11.710   6.079 -0.5884  0.7228 -0.8916
30167SOL     OW95820   2.168   7.896   2.841  0.4337 -0.5650  0.3881
30167SOL    HW195821   2.143   7.985   2.866  1.6402 -0.2837  0.6179
30167SOL    HW295822   2.094   7.842   2.869 -0.0574  0.2856  0.7605
30168SOL     OW95823   2.723   4.807   4.926  0.3422  0.2281  0.0775
30168SOL    HW195824   2.795   4.867   4.911  1.8427 -1.3036  0.8693
30168SOL    HW295825   2.688   4.788   4.838  0.4785  1.4537 -0.2505
30169SOL     OW95826   8.453   7.175  10.145  0.1162 -0.6508 -0.0182
30169SOL    HW195827   8.413   7.256  10.113 -0.5608 -1.3845 -1.1108
30169SOL    HW295828   8.547   7.188  10.133 -0.0181 -0.2286 -0.6775
30170SOL     OW95829   6.150   6.446   3.281  0.0510  0.7424  0.1812
30170SOL    HW195830   6.167   6.355   3.259 -0.5735  0.5069  0.6560
30170SOL    HW295831   6.234   6.490   3.269  0.9697 -0.3329  2.2343
30171SOL     OW95832   5.941   6.483   8.951  0.1867  0.0129  0.3470
30171SOL    HW195833   5.855   6.468   8.990  0.8167  0.1110  1.8423
30171SOL    HW295834   5.934   6.447   8.863 -0.9639 -1.2540  0.9179
30172SOL     OW95835   4.626   2.470   1.248  0.3512  0.0493 -0.3256
30172SOL    HW195836   4.663   2.382   1.244 -0.5473 -0.3745  0.2905
30172SOL    HW295837   4.625   2.492   1.341 -1.6746 -0.3015 -0.2124
30173SOL     OW95838   5.957   6.028   9.443 -0.1750 -0.3641  0.0171
30173SOL    HW195839   5.930   6.097   9.504  0.8306  0.1678 -0.1122
30173SOL    HW295840   6.032   5.987   9.487 -2.6729 -3.5888  1.6438
30174SOL     OW95841   9.204   4.674   5.437 -0.4091  0.3790 -0.4284
30174SOL    HW195842   9.150   4.731   5.382 -1.1488  1.1210  1.0134
30174SOL    HW295843   9.275   4.731   5.468 -1.6999  0.8929  1.8295
30175SOL     OW95844   0.506   3.524   5.861  0.5721  0.3460 -0.7788
30175SOL    HW195845   0.445   3.504   5.932  1.5175  1.1967  0.3105
30175SOL    HW295846   0.494   3.618   5.844 -1.1200 -0.1891 -3.2337
30176SOL     OW95847  10.689   9.907   7.382 -0.5395  0.7010  0.2352
30176SOL    HW195848  10.713   9.836   7.442 -2.8083 -0.9281 -0.6682
30176SOL    HW295849  10.732   9.984   7.418  0.4985 -0.7634  2.3220
30177SOL     OW95850   7.854   0.858   6.289  0.1601  0.3771  0.8520
30177SOL    HW195851   7.907   0.778   6.283 -0.6770 -0.0844 -1.5686
30177SOL    HW295852   7.798   0.856   6.211 -1.2430  2.3956  1.7034
30178SOL     OW95853   8.248   8.999   3.760  0.2456  0.6067  0.3339
30178SOL    HW195854   8.271   9.075   3.706 -2.1133  0.7429 -0.6060
30178SOL    HW295855   8.193   8.946   3.704  1.6759 -1.7825  1.0472
30179SOL     OW95856   9.784   6.746  11.825 -0.2264 -0.4630 -0.0984
30179SOL    HW195857   9.797   6.719  11.916 -0.2204  1.6016  0.5761
30179SOL    HW295858   9.689   6.744  11.813 -0.1791 -1.8444 -0.4592
30180SOL     OW95859   3.178   7.374   6.398 -0.2160  0.6046  0.5179
30180SOL    HW195860   3.252   7.394   6.341 -0.7083  0.2675 -0.2572
30180SOL    HW295861   3.103   7.414   6.355 -0.7597 -0.5266  0.3919
30181SOL     OW95862  11.550   8.746   5.987 -0.1959  0.8592  0.6743
30181SOL    HW195863  11.493   8.678   6.023  2.3004 -1.5949  0.3635
30181SOL    HW295864  11.579   8.796   6.063  0.8815 -0.9160  1.5048
30182SOL     OW95865   3.486   3.983   6.590 -0.1280 -0.0997  0.3195
30182SOL    HW195866   3.544   3.973   6.514 -1.0438 -0.3113 -0.3701
30182SOL    HW295867   3.445   3.897   6.600 -0.5393  0.1322  0.6165
30183SOL     OW95868   0.615   7.177   5.378  0.4378  0.5445 -0.4907
30183SOL    HW195869   0.659   7.199   5.296  1.6640  0.4493  0.1068
30183SOL    HW295870   0.661   7.100   5.411 -2.1572 -1.4807 -1.2868
30184SOL     OW95871   9.080  11.503   6.484 -0.7183  0.1608 -0.3718
30184SOL    HW195872   9.126  11.434   6.436 -1.2163  0.2701 -1.0051
30184SOL    HW295873   9.001  11.520   6.433 -1.7386 -0.3787  0.9655
30185SOL     OW95874   8.639   0.548   0.685 -0.2193 -0.0589  0.0665
30185SOL    HW195875   8.570   0.493   0.722 -0.0225  0.0033  0.5302
30185SOL    HW295876   8.710   0.545   0.750  0.1185  0.0726 -0.2908
30186SOL     OW95877   3.209   9.217   6.726 -0.0731  0.4810 -0.3790
30186SOL    HW195878   3.303   9.234   6.717  0.1046  0.2359  0.8325
30186SOL    HW295879   3.204   9.132   6.770 -0.9127 -0.5697 -2.4039
30187SOL     OW95880   1.769   6.600   9.857  0.0669 -0.2219 -0.7961
30187SOL    HW195881   1.772   6.536   9.786  0.0950  0.2308 -1.2096
30187SOL    HW295882   1.684   6.643   9.846 -0.4668 -0.9743  0.1892
30188SOL     OW95883   2.670   5.334  11.049 -0.3154  0.3261 -0.4083
30188SOL    HW195884   2.603   5.305  11.111  1.0051  0.9577  1.4196
30188SOL    HW295885   2.704   5.254  11.010  0.2203 -0.3013  1.2469
30189SOL     OW95886  11.329  10.848   8.062 -0.1158  0.4798 -0.1387
30189SOL    HW195887  11.290  10.839   8.149  1.3950 -1.0522  0.4374
30189SOL    HW295888  11.330  10.759   8.027 -0.6134  1.0604 -1.7125
30190SOL     OW95889   2.784   7.171   0.293 -0.2034  0.4537  0.2038
30190SOL    HW195890   2.860   7.227   0.307 -1.0484  1.5296  0.7418
30190SOL    HW295891   2.814   7.083   0.314  0.8998  0.8471  0.3330
30191SOL     OW95892   7.454   3.590   6.621 -0.3073 -0.2892  0.1783
30191SOL    HW195893   7.428   3.615   6.533  0.9582 -1.8616 -0.6935
30191SOL    HW295894   7.543   3.556   6.612 -0.8746 -2.4400  1.6679
30192SOL     OW95895   4.693   7.717   5.969 -0.0337 -0.1431  0.4278
30192SOL    HW195896   4.657   7.780   6.032 -0.3054  1.2181 -1.0136
30192SOL    HW295897   4.617   7.666   5.940 -0.3829  0.9386 -0.6389
30193SOL     OW95898   5.099   4.887   3.106  0.3067 -0.3117 -0.1577
30193SOL    HW195899   5.116   4.838   3.186  1.1734 -0.5500 -0.4741
30193SOL    HW295900   5.008   4.869   3.086 -0.3888  0.9672  1.5971
30194SOL     OW95901   8.883   6.223   4.264  0.5935  0.0427  0.0359
30194SOL    HW195902   8.954   6.178   4.218 -0.6314 -0.0235 -1.9021
30194SOL    HW295903   8.831   6.154   4.303  0.3343 -0.0500 -0.4701
30195SOL     OW95904   4.203   3.103   7.244  0.1263  0.1481  0.0582
30195SOL    HW195905   4.122   3.052   7.247  0.8927 -1.0727  0.7439
30195SOL    HW295906   4.176   3.192   7.268 -1.1686 -0.0109 -0.7416
30196SOL     OW95907   4.501   3.416   7.283  0.0166 -0.2857  0.5692
30196SOL    HW195908   4.531   3.506   7.274 -1.0244 -0.0310 -0.5326
30196SOL    HW295909   4.407   3.423   7.297  0.1265 -1.1619  1.9208
30197SOL     OW95910   4.800   6.428   1.695 -0.0256  0.1454 -0.4823
30197SOL    HW195911   4.865   6.432   1.765  1.4283 -0.7273 -1.7106
30197SOL    HW295912   4.806   6.512   1.651 -1.8600  1.2095  1.1429
30198SOL     OW95913   4.073   6.208   1.357  0.3190  0.1827  0.0996
30198SOL    HW195914   4.000   6.185   1.299 -0.4078  0.3582  0.9350
30198SOL    HW295915   4.080   6.134   1.417  1.0676  0.0089 -0.1891
30199SOL     OW95916   5.449   7.629   5.739  0.1532 -0.3869  0.3917
30199SOL    HW195917   5.361   7.612   5.706  0.4651 -0.4001 -0.4556
30199SOL    HW295918   5.507   7.608   5.666  0.8610 -0.3288  0.9219
30200SOL     OW95919   8.680   7.509   5.515 -0.0547  0.5852 -0.1272
30200SOL    HW195920   8.622   7.577   5.549  0.5388  2.0377 -1.8501
30200SOL    HW295921   8.765   7.551   5.506  0.4648 -0.5308 -0.7570
30201SOL     OW95922   9.791   1.995  10.358  0.9173  0.1304  0.0549
30201SOL    HW195923   9.839   1.913  10.362 -0.4466 -0.6699  0.9889
30201SOL    HW295924   9.733   1.986  10.283  0.4701  0.0537  0.4045
30202SOL     OW95925   9.138   0.946  11.815  0.1342  0.4469  0.7989
30202SOL    HW195926   9.156   1.019  11.756 -0.0526  0.6362  0.9718
30202SOL    HW295927   9.046   0.925  11.799  0.1143  0.4269  0.9408
30203SOL     OW95928   1.169   3.837   9.925 -0.1651  0.2529  0.4838
30203SOL    HW195929   1.189   3.892  10.001  0.2982 -0.2391  0.7235
30203SOL    HW295930   1.089   3.875   9.889 -0.2475  0.6514  1.0632
30204SOL     OW95931  11.521   4.719   6.007 -0.3237 -0.0028 -0.1767
30204SOL    HW195932  11.452   4.776   6.040 -1.9250 -1.4745 -0.8334
30204SOL    HW295933  11.542   4.754   5.920  0.5761  1.0898  0.4524
30205SOL     OW95934   7.055  11.675  10.149 -0.0979 -0.1814 -0.0711
30205SOL    HW195935   7.057  11.616  10.224 -0.7708  0.3411  0.3688
30205SOL    HW295936   7.060  11.762  10.187  1.1322  0.0523 -0.7291
30206SOL     OW95937   9.575   1.505   9.472 -0.2727  0.1660  0.9852
30206SOL    HW195938   9.611   1.422   9.441  1.3171  0.8136  1.0062
30206SOL    HW295939   9.629   1.529   9.547  0.5703  2.1157 -0.1565
30207SOL     OW95940  10.540   5.222   6.129 -0.2818 -0.3270  0.2840
30207SOL    HW195941  10.486   5.295   6.099 -0.8947 -0.8429  0.1080
30207SOL    HW295942  10.578   5.185   6.048  2.9153  1.9317  0.5680
30208SOL     OW95943   7.963   6.689   4.675 -0.1425 -0.6001 -0.0339
30208SOL    HW195944   7.899   6.637   4.723 -2.7483  0.7354 -1.8009
30208SOL    HW295945   7.940   6.780   4.696 -0.0915 -0.0460 -2.1383
30209SOL     OW95946  10.732   1.965   3.358 -0.3741 -0.4844 -0.4172
30209SOL    HW195947  10.810   1.984   3.410 -0.4283  1.9317 -1.0939
30209SOL    HW295948  10.659   1.978   3.419 -0.3185 -1.0661 -0.2230
30210SOL     OW95949   2.965   3.484   0.620  0.2241 -0.8642  0.3271
30210SOL    HW195950   3.029   3.468   0.551 -1.2716 -0.7866 -1.1374
30210SOL    HW295951   2.937   3.575   0.606 -1.2555 -1.3446 -0.0124
30211SOL     OW95952   5.786   9.563  11.603  0.5635  0.0901 -0.0314
30211SOL    HW195953   5.800   9.471  11.625 -0.7460 -0.3229 -0.8650
30211SOL    HW295954   5.691   9.573  11.596  0.7089  0.3783 -4.3771
30212SOL     OW95955   4.515   4.526   6.943 -0.2293 -0.5470  0.0747
30212SOL    HW195956   4.505   4.511   6.849 -1.7508  1.9739 -0.2349
30212SOL    HW295957   4.509   4.621   6.953  1.0583 -0.6561  2.6196
30213SOL     OW95958   2.395   1.291   3.011  0.4956  0.2338  0.1763
30213SOL    HW195959   2.410   1.243   2.929  1.1408  2.3517 -1.0306
30213SOL    HW295960   2.321   1.246   3.051 -0.0532 -0.7030 -1.7397
30214SOL     OW95961   4.959   2.653   5.257 -0.1330  0.0028 -0.2324
30214SOL    HW195962   4.967   2.613   5.343  1.7430  0.0269 -0.3561
30214SOL    HW295963   5.020   2.604   5.202 -0.5843  0.6077 -1.3121
30215SOL     OW95964   9.712   6.157   3.842  0.1915  0.3130 -0.0372
30215SOL    HW195965   9.683   6.212   3.915 -1.6322 -1.0357  0.3153
30215SOL    HW295966   9.637   6.156   3.782  0.1173 -1.8992  0.0439
30216SOL     OW95967   4.202   3.226   5.200 -0.0781 -0.1439 -0.8874
30216SOL    HW195968   4.222   3.153   5.259 -0.4527 -0.9758 -1.7587
30216SOL    HW295969   4.119   3.261   5.232  1.9981  2.6677  2.1163
30217SOL     OW95970   4.850   3.994   8.061  0.0084 -0.7102 -0.1878
30217SOL    HW195971   4.883   3.931   7.996  1.2312  2.0452 -2.4266
30217SOL    HW295972   4.772   4.032   8.020 -1.4357 -1.4681  1.6638
30218SOL     OW95973  10.195  10.881  11.552 -0.2211 -0.2717  0.1056
30218SOL    HW195974  10.219  10.831  11.474  0.7876 -0.1917  0.3503
30218SOL    HW295975  10.137  10.950  11.520 -0.3081 -0.6117 -0.4729
30219SOL     OW95976  11.480   0.340   6.002  0.3066 -0.0206 -0.1737
30219SOL    HW195977  11.464   0.246   6.008  0.0574  0.0691  0.7653
30219SOL    HW295978  11.572   0.347   5.978 -0.1589 -0.5092 -2.2918
30220SOL     OW95979   1.746   8.671   3.468  0.3280  0.5004 -0.4425
30220SOL    HW195980   1.795   8.721   3.533  0.9643 -0.6515 -0.0073
30220SOL    HW295981   1.655   8.697   3.482  0.7109  2.0363 -0.6996
30221SOL     OW95982   2.607   8.760   6.255  0.2256  0.0089  0.0547
30221SOL    HW195983   2.601   8.683   6.198  2.2344 -0.0699 -0.1336
30221SOL    HW295984   2.517   8.777   6.282 -0.3066 -2.2935 -0.0381
30222SOL     OW95985   8.318   2.888   0.077 -0.6553 -0.6840 -0.0097
30222SOL    HW195986   8.320   2.983   0.064 -0.1280 -0.4638  1.4698
30222SOL    HW295987   8.246   2.858   0.021 -0.9492  0.6016 -0.3632
30223SOL     OW95988  10.383   6.766   1.912 -0.5000  0.1713 -0.3785
30223SOL    HW195989  10.436   6.832   1.957 -0.7842  0.3508 -0.3004
30223SOL    HW295990  10.302   6.812   1.889 -0.1402  0.2396 -1.5858
30224SOL     OW95991   5.569   1.192  10.601  0.4007 -0.1124  0.5468
30224SOL    HW195992   5.642   1.130  10.597 -0.0312 -0.8264  2.6189
30224SOL    HW295993   5.593   1.254  10.669 -0.5565  0.1339  0.6783
30225SOL     OW95994   1.278   0.894   1.642  0.3131 -0.3709  0.0542
30225SOL    HW195995   1.289   0.851   1.726  0.9172 -1.2891 -0.4786
30225SOL    HW295996   1.198   0.856   1.605 -2.2685  2.7995  1.8137
30226SOL     OW95997   6.517  10.401  10.339  0.4010  0.1911  0.3580
30226SOL    HW195998   6.513  10.335  10.271 -0.8521 -0.5879  1.1470
30226SOL    HW295999   6.514  10.484  10.292 -0.1832 -0.3238 -0.5518
30227SOL     OW96000   5.812  11.638   0.932  0.2521  0.7183  0.4488
30227SOL    HW196001   5.785  11.699   1.000 -1.0154  2.4032 -1.4475
30227SOL    HW296002   5.730  11.597   0.903  0.5494  1.0472 -0.9385
30228SOL     OW96003   9.520   2.369  10.303  0.0028 -0.1411 -0.3433
30228SOL    HW196004   9.494   2.324  10.383  1.2467 -0.0152  0.1631
30228SOL    HW296005   9.580   2.308  10.259  0.6847  0.4709 -0.2987
30229SOL     OW96006   8.968   6.117   4.595  0.2382  0.2037 -0.4898
30229SOL    HW196007   9.042   6.081   4.645 -1.3627 -0.6142  1.4247
30229SOL    HW296008   8.976   6.212   4.607  0.5935  0.0865  0.3009
30230SOL     OW96009   2.965   9.125   4.087  0.1444 -0.0029 -0.1054
30230SOL    HW196010   2.897   9.188   4.111 -0.1312 -0.5835  0.6861
30230SOL    HW296011   3.045   9.162   4.124 -0.0279 -0.1464  0.4192
30231SOL     OW96012   6.252  11.620   8.980  0.2387  0.6248  0.2128
30231SOL    HW196013   6.339  11.595   9.012 -0.0601  0.6977  1.1257
30231SOL    HW296014   6.196  11.614   9.058 -0.5494  0.6811 -0.3458
30232SOL     OW96015   1.656   9.597   4.377 -0.2881  0.0824  0.0756
30232SOL    HW196016   1.731   9.657   4.378 -0.3062  0.1565 -1.5640
30232SOL    HW296017   1.695   9.511   4.392  0.6919 -0.3875 -4.0785
30233SOL     OW96018   8.350   1.863   6.614 -0.2941 -0.0843 -0.5484
30233SOL    HW196019   8.412   1.800   6.651 -0.0312  0.8985  0.7714
30233SOL    HW296020   8.344   1.840   6.522  2.5748  0.1965 -0.8921
30234SOL     OW96021   0.794   7.256   2.424  0.0397  0.0949 -0.3216
30234SOL    HW196022   0.867   7.317   2.436  1.0357 -0.9269 -0.8555
30234SOL    HW296023   0.801   7.229   2.332 -2.3632  1.5912 -1.0177
30235SOL     OW96024   1.341  10.237   9.885  0.2094  0.1533  0.1780
30235SOL    HW196025   1.349  10.188   9.968 -0.7813 -2.0102 -0.9103
30235SOL    HW296026   1.421  10.215   9.837  0.0959  0.1995 -0.0306
30236SOL     OW96027   5.816   2.937   2.195  0.1574  0.1713  0.3783
30236SOL    HW196028   5.841   3.024   2.163  1.0903 -0.8077 -1.7458
30236SOL    HW296029   5.881   2.878   2.156 -0.8887 -1.5644  1.1718
30237SOL     OW96030  10.079   0.903   3.171 -0.1509  0.1274 -0.5093
30237SOL    HW196031  10.166   0.921   3.207 -0.0499  0.9883 -1.1459
30237SOL    HW296032  10.093   0.902   3.076 -0.8313  0.2512 -0.6118
30238SOL     OW96033   5.908  11.382   6.217  0.2006  0.6240 -0.0854
30238SOL    HW196034   5.863  11.393   6.133  1.3749  2.2033 -0.5512
30238SOL    HW296035   5.920  11.287   6.225 -0.2897  0.4100 -1.5046
30239SOL     OW96036   6.760  11.337   0.578  0.0029 -0.1013 -0.1178
30239SOL    HW196037   6.837  11.354   0.524  0.1529  0.7513  0.3429
30239SOL    HW296038   6.690  11.390   0.538  0.2355  0.9189  0.7836
30240SOL     OW96039   7.017   5.167   6.882  0.3779 -0.9324  0.2051
30240SOL    HW196040   7.021   5.166   6.978 -0.1854  0.2528  0.2585
30240SOL    HW296041   7.064   5.246   6.858 -1.6610  0.1658 -0.3549
30241SOL     OW96042   9.573   6.532  10.112  0.2442  0.1074  0.1130
30241SOL    HW196043   9.551   6.564  10.200  1.2889  0.9032  0.1085
30241SOL    HW296044   9.516   6.456  10.099 -2.0061  1.6851  0.3048
30242SOL     OW96045   1.413   1.831   5.774 -0.7796 -0.1289  0.1193
30242SOL    HW196046   1.492   1.780   5.760 -1.5761 -1.1950 -0.6048
30242SOL    HW296047   1.393   1.820   5.867 -0.7721 -0.8931  0.0352
30243SOL     OW96048  10.532   7.585   9.688  0.0337  0.1782  0.2135
30243SOL    HW196049  10.488   7.555   9.609  1.6688 -0.1676 -0.6290
30243SOL    HW296050  10.531   7.680   9.682 -0.0932  0.1574 -0.0796
30244SOL     OW96051   9.571   4.735   0.696  0.2444  0.3310  0.2556
30244SOL    HW196052   9.648   4.789   0.713  1.4404 -1.1116 -0.3603
30244SOL    HW296053   9.546   4.757   0.606  0.4612  0.1885  0.1594
30245SOL     OW96054   5.175   2.033   3.345  0.1807  0.2099 -0.3264
30245SOL    HW196055   5.200   2.002   3.258  1.4125 -0.5562  0.2747
30245SOL    HW296056   5.171   1.954   3.399 -3.3985  0.2857 -0.2711
30246SOL     OW96057   1.167   9.038   4.474  0.2179  0.3364  0.4909
30246SOL    HW196058   1.182   8.957   4.425  0.2529  0.6580 -0.0358
30246SOL    HW296059   1.227   9.032   4.549  1.4418  0.6400 -0.4497
30247SOL     OW96060   4.285   2.774   9.938  0.8792 -0.7814  0.3158
30247SOL    HW196061   4.255   2.693   9.979 -0.3549 -1.2160 -1.3560
30247SOL    HW296062   4.322   2.746   9.854 -2.8036  0.5535 -1.9926
30248SOL     OW96063   3.995   9.551   9.055  0.0775  0.4514  0.5347
30248SOL    HW196064   4.055   9.533   9.128 -2.1585 -1.9334  1.9987
30248SOL    HW296065   3.944   9.470   9.047 -0.9999  1.3159 -2.5330
30249SOL     OW96066  10.148   4.942   8.544 -0.4361  0.2288 -0.2071
30249SOL    HW196067  10.214   4.896   8.491 -3.7310 -1.0820 -3.6307
30249SOL    HW296068  10.110   4.874   8.599 -0.7833  0.3476 -0.3001
30250SOL     OW96069   5.653   9.504   7.955  0.0982 -0.1409  0.4605
30250SOL    HW196070   5.678   9.522   8.046 -1.1325  0.9406  0.6219
30250SOL    HW296071   5.567   9.463   7.961 -0.2968  0.5645 -0.2293
30251SOL     OW96072   7.803   5.534  11.592 -0.2136  0.4810 -0.5967
30251SOL    HW196073   7.815   5.498  11.679  1.2818 -1.2413 -1.4522
30251SOL    HW296074   7.800   5.629  11.605  2.2772  0.4135  1.1335
30252SOL     OW96075   9.720   3.964   7.987 -0.1596  0.4194 -0.0006
30252SOL    HW196076   9.691   4.041   7.938 -0.1734 -0.2903 -1.1426
30252SOL    HW296077   9.689   3.890   7.936  1.9640 -0.3727 -0.2450
30253SOL     OW96078   1.834   7.268  10.493  0.1114 -0.5139  0.1647
30253SOL    HW196079   1.855   7.175  10.484  1.5251 -0.4301  1.8927
30253SOL    HW296080   1.884   7.311  10.424 -1.0072 -1.0482 -1.0199
30254SOL     OW96081   2.837   0.177   7.589 -0.2636  0.2577 -0.2583
30254SOL    HW196082   2.816   0.231   7.513  1.9692  1.4878 -0.1065
30254SOL    HW296083   2.931   0.192   7.604 -0.4996 -0.3011  2.4189
30255SOL     OW96084   5.094  11.516   9.148 -0.3209  0.7337  0.2939
30255SOL    HW196085   5.123  11.425   9.150  0.9798  1.1103 -0.0692
30255SOL    HW296086   5.093  11.539   9.055 -0.5988  1.1009  0.3848
30256SOL     OW96087   7.415   7.160   8.553  0.1941  0.4943  0.1938
30256SOL    HW196088   7.431   7.121   8.467 -0.8879 -2.1368  1.0681
30256SOL    HW296089   7.483   7.124   8.609  0.5454  1.7302  0.5851
30257SOL     OW96090   5.927   3.075   9.517 -0.0738  0.3476 -0.3679
30257SOL    HW196091   5.941   3.169   9.508  1.8602  0.2153  0.5858
30257SOL    HW296092   5.834   3.062   9.502 -0.4986  2.5048  0.1555
30258SOL     OW96093   4.647   7.489   8.725  0.7354  0.6047 -0.3699
30258SOL    HW196094   4.655   7.513   8.633  1.3615 -0.0187 -0.4855
30258SOL    HW296095   4.651   7.573   8.772 -0.2711  0.9889 -0.9315
30259SOL     OW96096  11.108   2.120   4.474  0.4853  0.5806  0.6073
30259SOL    HW196097  11.092   2.152   4.385  0.8009 -0.9583 -0.0266
30259SOL    HW296098  11.126   2.027   4.463  1.1795  0.5014  2.2251
30260SOL     OW96099   1.529   4.165   9.763  0.2028  0.0628  0.0849
30260SOL    HW196100   1.548   4.252   9.729  0.4160 -0.5605 -1.4833
30260SOL    HW296101   1.613   4.120   9.761  0.2049 -0.0253  1.4120
30261SOL     OW96102   7.067   5.289   2.505 -0.3524 -0.7145 -0.4840
30261SOL    HW196103   7.036   5.355   2.443  1.5254  0.1484 -0.5936
30261SOL    HW296104   7.005   5.217   2.497 -1.2622  0.1761 -1.9216
30262SOL     OW96105   8.447   0.052   7.696 -0.0704 -0.1424  0.0195
30262SOL    HW196106   8.404  -0.030   7.720  0.5464 -0.2947  0.6689
30262SOL    HW296107   8.533   0.047   7.739  0.5330  0.2145 -1.0997
30263SOL     OW96108   3.212  11.029  10.146 -0.2107  0.2965  0.0953
30263SOL    HW196109   3.218  11.034  10.050 -1.4299 -1.1748 -0.0997
30263SOL    HW296110   3.281  10.968  10.171  1.1309  1.8639  0.3467
30264SOL     OW96111   1.442   2.858   5.031 -0.0356 -0.6538 -0.0518
30264SOL    HW196112   1.488   2.775   5.022  0.7010 -0.1183 -1.5612
30264SOL    HW296113   1.510   2.920   5.059 -0.3833 -0.3716  0.1685
30265SOL     OW96114  11.663   5.946  10.379 -0.4248  0.2761 -0.0785
30265SOL    HW196115  11.665   6.019  10.317 -1.6061  0.2639 -0.1540
30265SOL    HW296116  11.623   5.874  10.331 -1.3445  0.2620  0.6701
30266SOL     OW96117   5.057  11.789   0.684  0.5518  0.1342 -0.2061
30266SOL    HW196118   5.145  11.757   0.664  0.9282 -0.5973  2.3399
30266SOL    HW296119   5.049  11.782   0.779 -0.9544  3.6452  0.0734
30267SOL     OW96120  11.252   2.441   1.213 -0.1081 -0.4848  0.1001
30267SOL    HW196121  11.177   2.382   1.223 -0.5500 -0.1742 -1.2349
30267SOL    HW296122  11.217   2.528   1.232  0.5130 -0.5917  1.9395
30268SOL     OW96123   4.006   6.150   5.135 -0.3921 -0.3204  0.3482
30268SOL    HW196124   4.030   6.235   5.098 -2.1344 -0.1582 -0.4971
30268SOL    HW296125   4.089   6.105   5.148  0.4316  0.6038 -1.4112
30269SOL     OW96126   4.850   2.423   2.697 -0.1441 -0.6773  0.4294
30269SOL    HW196127   4.914   2.494   2.702  0.7827 -1.3752 -1.0158
30269SOL    HW296128   4.798   2.442   2.619  0.4022 -1.7887 -0.2334
30270SOL     OW96129   9.663  10.282   2.883 -0.0981 -0.0963 -0.4974
30270SOL    HW196130   9.684  10.260   2.793  0.0353 -1.4752 -0.1569
30270SOL    HW296131   9.689  10.373   2.893 -0.0504  0.0467 -1.8261
30271SOL     OW96132   5.855   6.121   3.433  0.0257 -0.3337  0.2180
30271SOL    HW196133   5.895   6.208   3.428  0.6854 -0.6604 -0.3870
30271SOL    HW296134   5.927   6.063   3.460  0.0381 -0.9649 -1.0898
30272SOL     OW96135   1.809   1.361   8.036 -0.6743 -0.3178  0.4198
30272SOL    HW196136   1.750   1.360   7.961 -0.3639  0.1214  0.1688
30272SOL    HW296137   1.894   1.337   8.000 -0.7057 -1.0609  0.7975
30273SOL     OW96138  11.182   5.312   9.958 -0.1340 -0.0008 -0.2896
30273SOL    HW196139  11.190   5.234   9.904 -1.6137 -0.2487 -0.2036
30273SOL    HW296140  11.271   5.346   9.966  0.2771 -0.6386 -1.8626
30274SOL     OW96141   4.172   4.728   9.992  0.0349 -0.1792 -0.4028
30274SOL    HW196142   4.111   4.769  10.053  1.3867 -0.2517  1.0849
30274SOL    HW296143   4.243   4.695  10.047  0.5066 -1.7912 -1.8668
30275SOL     OW96144   9.381   7.155   0.101  0.2697 -0.1660  0.3327
30275SOL    HW196145   9.444   7.086   0.121 -0.0913 -1.0581 -1.4199
30275SOL    HW296146   9.300   7.129   0.146  0.6488  0.1181  1.2047
30276SOL     OW96147   4.561   5.683   0.363  0.3275  0.3506  0.9126
30276SOL    HW196148   4.566   5.779   0.368  1.6732  0.3909 -0.4270
30276SOL    HW296149   4.652   5.655   0.352 -0.1974 -0.9397 -0.5552
30277SOL     OW96150   9.600   4.124   9.164  0.3780  0.0326  0.4482
30277SOL    HW196151   9.604   4.151   9.072  0.7459 -0.5472  0.2838
30277SOL    HW296152   9.509   4.099   9.178  0.2066  0.6079  0.3894
30278SOL     OW96153  11.278   0.320   3.377  0.1308  0.3254 -0.5014
30278SOL    HW196154  11.200   0.318   3.432  0.6587 -1.8013  0.2714
30278SOL    HW296155  11.341   0.372   3.427 -0.2902  0.7247 -0.3857
30279SOL     OW96156   0.694   9.783   0.576 -0.2406 -0.4447  0.8045
30279SOL    HW196157   0.786   9.788   0.603 -0.3199  1.8160  0.8322
30279SOL    HW296158   0.645   9.793   0.657 -0.5069 -0.1211  0.6021
30280SOL     OW96159  11.468   1.967  10.056 -0.5487  0.2504 -0.6635
30280SOL    HW196160  11.408   1.975  10.130 -1.5194  0.9491 -1.5028
30280SOL    HW296161  11.506   1.880  10.066 -3.5763 -1.3103 -1.4326
30281SOL     OW96162   9.277   7.673  11.723 -0.4971  0.0773  0.3995
30281SOL    HW196163   9.197   7.726  11.716 -1.8194 -1.8655 -0.0990
30281SOL    HW296164   9.249   7.585  11.697  2.1878 -0.3615 -1.3072
30282SOL     OW96165   5.130   9.063  10.393 -0.0527  0.5812  0.2689
30282SOL    HW196166   5.073   9.007  10.340 -0.7457  1.6801 -0.1946
30282SOL    HW296167   5.153   9.135  10.334  1.6990  0.2479  0.5139
30283SOL     OW96168   1.615   3.476  11.382 -0.2187 -0.3859 -0.2130
30283SOL    HW196169   1.617   3.554  11.438 -3.5011  0.4953 -1.1012
30283SOL    HW296170   1.601   3.403  11.443 -0.7325  0.1911  0.3874
30284SOL     OW96171   1.605  10.874  10.160  0.2496 -0.4273 -0.1282
30284SOL    HW196172   1.664  10.887  10.086  0.1869 -0.3378 -0.1627
30284SOL    HW296173   1.525  10.838  10.120 -0.3821  1.1211 -0.3178
30285SOL     OW96174   5.435  11.474   4.784  0.6332  0.2847  0.3048
30285SOL    HW196175   5.481  11.448   4.863  1.8022  0.4830 -0.2911
30285SOL    HW296176   5.493  11.448   4.712 -0.7306 -0.5936 -0.5451
30286SOL     OW96177   1.449   3.277   5.522 -0.0007 -0.4040  0.0225
30286SOL    HW196178   1.365   3.324   5.521  0.5607  0.7277 -2.7522
30286SOL    HW296179   1.495   3.312   5.599 -0.8387  1.3453 -0.2131
30287SOL     OW96180  11.744   2.320   5.600 -0.8325  0.0700  0.2365
30287SOL    HW196181  11.736   2.274   5.516  2.2472  0.4483 -0.4115
30287SOL    HW296182  11.705   2.406   5.584  0.0741  0.2833 -1.0126
30288SOL     OW96183   4.987   0.106   9.475  0.5449  0.5761  0.4173
30288SOL    HW196184   5.054   0.164   9.511  0.6470  1.0666 -0.5263
30288SOL    HW296185   5.035   0.043   9.422  0.2638  0.8791 -0.1956
30289SOL     OW96186   5.905   6.815  11.795 -0.4407  0.0043  0.1743
30289SOL    HW196187   5.871   6.795  11.882  0.2828  0.0383  0.4739
30289SOL    HW296188   5.858   6.756  11.736 -0.0700 -0.8732  0.7399
30290SOL     OW96189  10.447   8.239   5.033  0.3995  0.0062 -1.1124
30290SOL    HW196190  10.530   8.195   5.052  0.6999  1.0329  0.1440
30290SOL    HW296191  10.390   8.169   5.001  1.2732 -1.0353 -0.5036
30291SOL     OW96192  10.962  11.195   9.896 -0.5314  0.4605 -0.0692
30291SOL    HW196193  10.971  11.271   9.953  2.7645 -0.0022  0.2231
30291SOL    HW296194  10.944  11.123   9.956 -0.1999  0.4784  0.0562
30292SOL     OW96195  10.134   1.849   3.843 -0.2276  0.3878 -0.2588
30292SOL    HW196196  10.050   1.857   3.797  0.9158 -0.3244 -2.6519
30292SOL    HW296197  10.147   1.754   3.852  1.4417  0.3474 -2.3101
30293SOL     OW96198   1.575   8.638   8.921 -0.2483  0.0575 -0.2162
30293SOL    HW196199   1.493   8.594   8.942 -1.0194  0.7300 -1.7348
30293SOL    HW296200   1.553   8.731   8.917  1.2451  0.6255  2.4054
30294SOL     OW96201   1.885   3.213   4.178  0.2918  0.5516  0.1601
30294SOL    HW196202   1.914   3.284   4.236 -0.1630  0.5435  0.4000
30294SOL    HW296203   1.869   3.139   4.236  0.1215  0.4536 -0.0092
30295SOL     OW96204  11.826   4.799   8.839 -0.0462  0.4216 -0.0529
30295SOL    HW196205  11.834   4.826   8.747  0.2540  1.1899  0.1879
30295SOL    HW296206  11.745   4.749   8.843  0.5635 -0.6901 -0.9879
30296SOL     OW96207   6.656   5.999   3.686  0.1990 -0.8452 -0.1449
30296SOL    HW196208   6.751   5.997   3.677  0.3656 -2.6137  1.3617
30296SOL    HW296209   6.622   5.977   3.600  1.1428 -0.5358 -0.6008
30297SOL     OW96210   9.043   1.267  10.873  0.5517 -0.2784 -0.1948
30297SOL    HW196211   9.022   1.259  10.966 -0.5575  0.0620 -0.3935
30297SOL    HW296212   8.967   1.228  10.828  1.6056 -1.5653 -0.9553
30298SOL     OW96213   8.178  10.334   3.926 -0.2068  0.7839 -0.6098
30298SOL    HW196214   8.162  10.241   3.906 -2.2281  0.7910  0.6655
30298SOL    HW296215   8.163  10.379   3.843 -1.9539  0.2078 -0.6443
30299SOL     OW96216   4.537  10.631   7.852  0.0388 -0.4941 -0.6282
30299SOL    HW196217   4.472  10.617   7.921 -0.0185 -1.2387 -0.8238
30299SOL    HW296218   4.552  10.726   7.852 -0.2028 -0.4454  0.1800
30300SOL     OW96219   7.079   0.548   1.536  0.1728 -0.0465 -0.1831
30300SOL    HW196220   7.073   0.525   1.443  1.1665  0.0275 -0.2794
30300SOL    HW296221   6.997   0.515   1.574  0.2118 -1.0098 -0.8905
30301SOL     OW96222   2.786  11.709   3.960 -0.0120  0.0790 -0.2174
30301SOL    HW196223   2.740  11.653   3.897 -0.6373  0.8856 -0.4965
30301SOL    HW296224   2.808  11.788   3.911 -1.3787  1.1506  0.7940
30302SOL     OW96225   9.947   3.412   5.732 -0.7206 -0.3291  0.0663
30302SOL    HW196226   9.972   3.346   5.668  0.1468 -1.4387  1.4915
30302SOL    HW296227  10.018   3.476   5.729 -0.3647 -0.7032  0.3354
30303SOL     OW96228   6.019   3.738   1.804  0.5259 -0.6503 -0.1699
30303SOL    HW196229   5.999   3.651   1.837  0.1029 -0.9505 -1.1758
30303SOL    HW296230   5.933   3.778   1.787  0.5373  1.2071  3.2468
30304SOL     OW96231  10.387   0.376   8.927 -0.2587 -0.2138  0.9020
30304SOL    HW196232  10.427   0.371   9.014  0.6359  0.0281  0.5211
30304SOL    HW296233  10.424   0.301   8.880  0.6014  0.6233  0.2102
30305SOL     OW96234   6.414  11.186   2.612 -0.0543 -0.5018 -0.1002
30305SOL    HW196235   6.437  11.195   2.704  0.6635  0.8642 -0.3832
30305SOL    HW296236   6.483  11.130   2.576  0.6645  0.3670 -0.1299
30306SOL     OW96237   9.880   2.243   6.426 -0.1646  0.0427 -0.0376
30306SOL    HW196238   9.860   2.208   6.340  0.5924 -0.1142 -0.1596
30306SOL    HW296239   9.971   2.273   6.420  0.4157 -1.3662  1.1362
30307SOL     OW96240  10.165  11.474   9.261  0.2419  0.2709 -0.0503
30307SOL    HW196241  10.192  11.505   9.347  0.2662  1.6299 -0.5318
30307SOL    HW296242  10.239  11.494   9.204 -0.2461  0.4756 -0.6194
30308SOL     OW96243  11.529   3.122   4.568  0.6283  0.6307  0.0679
30308SOL    HW196244  11.462   3.183   4.537 -0.3342 -0.8790 -0.8964
30308SOL    HW296245  11.495   3.090   4.652  0.6635  0.6664  0.0959
30309SOL     OW96246   8.050   6.957   8.471  0.4546  0.2705 -0.0421
30309SOL    HW196247   7.976   6.927   8.418  0.1140 -0.5795  0.8887
30309SOL    HW296248   8.077   7.039   8.429  1.1177 -1.0497 -2.4001
30310SOL     OW96249   5.023  11.382   0.395  0.3535 -0.5032 -0.6379
30310SOL    HW196250   4.928  11.382   0.403  0.4687 -0.3430  0.9661
30310SOL    HW296251   5.055  11.375   0.485  1.8710  1.5148 -0.9560
30311SOL     OW96252   8.533   1.705  10.893 -0.2702  0.0380 -0.0998
30311SOL    HW196253   8.473   1.647  10.940  0.3821  0.3022  1.0930
30311SOL    HW296254   8.484   1.733  10.817 -0.9924 -1.2138 -0.1210
30312SOL     OW96255   8.935   6.710   8.462 -0.1920 -0.6262  0.2669
30312SOL    HW196256   8.977   6.756   8.535 -0.9364 -0.5138  0.6318
30312SOL    HW296257   8.969   6.621   8.467  1.3664 -0.1116 -0.5284
30313SOL     OW96258   1.246  10.501   9.873 -0.9828 -0.3591 -0.3131
30313SOL    HW196259   1.202  10.505   9.958  0.5358  0.9827  0.4668
30313SOL    HW296260   1.285  10.414   9.870 -1.6559 -0.6781  0.0368
30314SOL     OW96261  10.874   0.454  10.087  0.7458 -0.2286 -1.1508
30314SOL    HW196262  10.869   0.543  10.121  0.1047 -0.3238 -0.9686
30314SOL    HW296263  10.852   0.399  10.163 -0.0286 -0.4738 -1.5389
30315SOL     OW96264  10.314   5.595   4.782  0.0707  0.2461 -0.2274
30315SOL    HW196265  10.292   5.687   4.792 -0.8856 -0.1165  1.2452
30315SOL    HW296266  10.279   5.553   4.860  1.6632 -1.1658 -0.2100
30316SOL     OW96267   3.585   4.682   1.298  0.0830 -0.0279  0.3329
30316SOL    HW196268   3.635   4.695   1.218 -0.9215 -1.9833 -0.6716
30316SOL    HW296269   3.555   4.770   1.322  2.8978  1.0228  0.3216
30317SOL     OW96270   9.892   9.605  11.775 -0.5130  0.4336 -0.4520
30317SOL    HW196271   9.985   9.582  11.775 -0.2417  1.4148 -1.4969
30317SOL    HW296272   9.858   9.568  11.856  0.8011  0.1099 -0.0209
30318SOL     OW96273  10.714   8.411   5.480 -0.4564  0.1892  0.2236
30318SOL    HW196274  10.718   8.489   5.535  2.3408 -0.5971  1.3333
30318SOL    HW296275  10.731   8.338   5.540  0.8472 -0.8757 -1.3452
30319SOL     OW96276  10.864  11.077   6.698  0.1910  0.0862  0.1106
30319SOL    HW196277  10.873  10.983   6.713  0.7276  0.0469 -0.4171
30319SOL    HW296278  10.783  11.101   6.743 -0.4612 -0.8085 -0.5547
30320SOL     OW96279   9.782   0.492   9.482 -0.4063 -0.1771  0.6386
30320SOL    HW196280   9.817   0.575   9.451 -0.9202  0.4477  1.6436
30320SOL    HW296281   9.803   0.429   9.413  0.5482  0.6530  0.1433
30321SOL     OW96282   4.297   8.722   8.193 -0.0919  0.7461  0.6641
30321SOL    HW196283   4.210   8.695   8.224 -0.1731  1.2920  0.9142
30321SOL    HW296284   4.355   8.652   8.222 -0.3775  0.5985  0.8929
30322SOL     OW96285   1.348   1.878   7.342 -0.1332 -0.4481  0.2658
30322SOL    HW196286   1.302   1.797   7.366 -0.0618 -0.3010  0.8949
30322SOL    HW296287   1.278   1.942   7.329 -0.1130 -0.1801  1.3864
30323SOL     OW96288   5.409   8.349  10.666  0.2517  1.1511 -0.2303
30323SOL    HW196289   5.349   8.423  10.675 -1.0922  0.0362  0.6062
30323SOL    HW296290   5.457   8.366  10.585 -0.5596  2.5391 -0.4556
30324SOL     OW96291   3.864  10.379   8.327  0.1867 -0.1546  0.3788
30324SOL    HW196292   3.948  10.335   8.344 -1.3974 -3.5654  0.1823
30324SOL    HW296293   3.845  10.359   8.236 -1.8385 -1.4331  1.0283
30325SOL     OW96294   0.442  10.690   8.416  0.6526 -0.2662 -0.4203
30325SOL    HW196295   0.450  10.765   8.356  1.5982  0.9678  1.1849
30325SOL    HW296296   0.374  10.636   8.376  2.7957 -0.7458 -3.8969
30326SOL     OW96297   5.556   0.749  10.950  0.0675  0.5617 -0.4811
30326SOL    HW196298   5.588   0.714  11.033  0.1014  1.0513 -0.2827
30326SOL    HW296299   5.463   0.764  10.964 -0.1043 -0.1531 -0.8127
30327SOL     OW96300   0.887  11.285   8.793  0.5884  0.0056 -0.4759
30327SOL    HW196301   0.959  11.329   8.749  0.5111  1.9990  1.2327
30327SOL    HW296302   0.920  11.266   8.881 -0.2054 -1.2069 -0.4143
30328SOL     OW96303  10.518   3.943   7.810  0.6657 -0.7245 -0.0669
30328SOL    HW196304  10.535   3.886   7.885  0.8007 -0.0521  0.4207
30328SOL    HW296305  10.434   3.985   7.830  0.5176 -0.8177 -0.4699
30329SOL     OW96306   0.605  10.792   8.628  0.3893 -0.5337 -0.5465
30329SOL    HW196307   0.541  10.756   8.566  0.3033 -2.2967  0.4800
30329SOL    HW296308   0.581  10.884   8.637 -1.4160 -0.9307 -0.9206
30330SOL     OW96309  11.714   9.024  11.759  0.0112 -0.3574 -0.5658
30330SOL    HW196310  11.711   9.120  11.758 -1.6429 -0.3358  0.7816
30330SOL    HW296311  11.804   9.003  11.784  0.0770  0.8979  0.3585
30331SOL     OW96312   6.639   5.470   1.399  0.6902 -0.8700 -0.4936
30331SOL    HW196313   6.692   5.409   1.449 -0.2127 -1.8510 -0.7212
30331SOL    HW296314   6.621   5.425   1.317 -0.1026 -0.3542 -0.6144
30332SOL     OW96315  10.481   9.885   0.903 -0.1880  0.3681 -0.1219
30332SOL    HW196316  10.529   9.968   0.900 -0.0479  0.3377  0.9410
30332SOL    HW296317  10.511   9.843   0.983  0.4000 -1.1393 -1.0897
30333SOL     OW96318   2.250   5.586  10.834 -0.8765  0.0059  0.6830
30333SOL    HW196319   2.269   5.659  10.775 -0.4191  0.2761  1.1601
30333SOL    HW296320   2.283   5.508  10.789 -1.7441  0.0216 -0.0198
30334SOL     OW96321  11.381   2.603   4.647  0.4293  0.5992 -0.4991
30334SOL    HW196322  11.332   2.576   4.570 -0.1616  2.0726 -0.6830
30334SOL    HW296323  11.377   2.529   4.706 -1.8173  0.5625 -0.6210
30335SOL     OW96324   7.457   4.827   3.368 -0.2041  0.3249  0.4038
30335SOL    HW196325   7.463   4.757   3.433  0.4527  1.0304  1.1319
30335SOL    HW296326   7.388   4.884   3.400 -1.5745 -0.5705 -0.8079
30336SOL     OW96327   6.838   1.092   7.702 -0.1476 -0.2150  0.3107
30336SOL    HW196328   6.929   1.123   7.704  0.1313 -1.0174  1.2620
30336SOL    HW296329   6.826   1.050   7.788 -0.8753 -1.6286 -0.4486
30337SOL     OW96330  11.261   4.413  10.652 -0.1419  0.0917 -0.4470
30337SOL    HW196331  11.262   4.414  10.556 -0.6334  0.9728 -0.4507
30337SOL    HW296332  11.173   4.384  10.675 -0.1813  0.3487 -0.2663
30338SOL     OW96333   6.454   1.440   2.354 -0.2611 -0.9672 -0.4478
30338SOL    HW196334   6.530   1.384   2.340  1.7679  1.1385  1.2779
30338SOL    HW296335   6.460   1.506   2.286 -0.6718 -0.9073 -0.4288
30339SOL     OW96336   1.267   1.268   8.074  0.5558  0.3281  0.4229
30339SOL    HW196337   1.276   1.252   7.981  0.8648 -0.2621  0.5489
30339SOL    HW296338   1.222   1.352   8.080  1.9725  1.1701 -0.2518
30340SOL     OW96339  11.639  11.274   3.634 -0.3071 -0.3361  0.6748
30340SOL    HW196340  11.713  11.325   3.603 -0.9390  0.9546  1.2027
30340SOL    HW296341  11.671  11.230   3.713  0.6150 -1.8246 -0.4649
30341SOL     OW96342   5.899   2.497   1.274  0.3486  0.2510  0.2863
30341SOL    HW196343   5.890   2.481   1.180 -0.1148  0.4936  0.2869
30341SOL    HW296344   5.990   2.524   1.285  0.8612 -1.3209  0.1409
30342SOL     OW96345   0.398   2.905   3.304 -0.0992  0.5140  0.8816
30342SOL    HW196346   0.389   2.810   3.297 -1.8816  0.6446  1.0073
30342SOL    HW296347   0.382   2.937   3.216  0.7785  0.7119  0.7795
30343SOL     OW96348   5.317   0.619   7.243  0.0992 -0.0229 -0.3304
30343SOL    HW196349   5.314   0.693   7.304 -2.9239 -0.7006  0.5220
30343SOL    HW296350   5.262   0.553   7.284  0.2879 -1.6123 -2.5054
30344SOL     OW96351   6.628   9.590  10.791  0.0602  0.6448 -0.1556
30344SOL    HW196352   6.541   9.574  10.753 -0.2941  1.0550  0.4820
30344SOL    HW296353   6.684   9.605  10.715  0.3865 -3.1727 -0.8837
30345SOL     OW96354   7.850  11.062   8.905  0.7942  0.1502 -0.3535
30345SOL    HW196355   7.870  11.061   8.811  0.0516 -1.1477 -0.5246
30345SOL    HW296356   7.935  11.057   8.948  1.0710 -1.1064 -0.9956
30346SOL     OW96357   4.831   8.610   6.781  0.7197 -0.0651 -0.4740
30346SOL    HW196358   4.763   8.623   6.716  1.2914  1.4930 -0.8215
30346SOL    HW296359   4.815   8.679   6.846  0.0678 -1.6774  1.1494
30347SOL     OW96360   9.753   9.326   1.676 -0.3159 -0.3223 -0.2618
30347SOL    HW196361   9.714   9.393   1.620 -0.4325 -0.0364  0.1649
30347SOL    HW296362   9.679   9.289   1.724 -0.4047 -1.4555 -1.2233
30348SOL     OW96363   9.028   3.976   0.539  0.2170 -0.3342 -0.2949
30348SOL    HW196364   9.093   3.987   0.470  1.3092  1.5743  0.9510
30348SOL    HW296365   8.983   3.895   0.517  2.0505 -0.9669 -1.9735
30349SOL     OW96366   8.667  11.637   5.971  0.3263  0.0575  0.6458
30349SOL    HW196367   8.580  11.600   5.959  0.4987 -0.7430  1.6531
30349SOL    HW296368   8.715  11.615   5.891 -0.2491  0.1019  0.2869
30350SOL     OW96369   9.729   7.902   0.788 -0.1302 -0.2270 -0.7316
30350SOL    HW196370   9.711   7.961   0.714  0.9246 -1.4727 -2.0302
30350SOL    HW296371   9.751   7.961   0.860 -2.2484  1.0725 -1.0461
30351SOL     OW96372   5.309   9.771   3.008 -0.6252 -0.6233 -0.3545
30351SOL    HW196373   5.402   9.757   3.023 -1.2777 -3.3587  2.0157
30351SOL    HW296374   5.287   9.714   2.934 -0.4872 -0.1986 -0.7262
30352SOL     OW96375   7.070   3.358   4.627 -0.7925  0.1404  0.0842
30352SOL    HW196376   7.002   3.425   4.636 -1.9590 -1.1462  1.1760
30352SOL    HW296377   7.109   3.376   4.541  0.1327  3.2678  1.0025
30353SOL     OW96378   3.279  10.105   9.185 -0.2813 -0.2129  0.1630
30353SOL    HW196379   3.299  10.014   9.164  1.9547  0.2173  0.1719
30353SOL    HW296380   3.294  10.112   9.279  0.9428  0.4387 -0.0500
30354SOL     OW96381   3.883   0.310   9.195 -0.2348  0.3524  0.4154
30354SOL    HW196382   3.907   0.345   9.281  1.0899  0.9540 -0.1609
30354SOL    HW296383   3.954   0.338   9.137 -0.1623 -1.5483 -0.5171
30355SOL     OW96384   9.227   5.899   5.055 -0.5310  0.1345 -0.1067
30355SOL    HW196385   9.167   5.903   5.130  0.4432  0.5690  0.6706
30355SOL    HW296386   9.255   5.990   5.041 -0.5862  0.0388 -0.9115
30356SOL     OW96387   0.387   9.686  10.845 -0.1325  0.2433 -0.5157
30356SOL    HW196388   0.330   9.674  10.921 -1.3516 -1.4449 -1.6174
30356SOL    HW296389   0.443   9.760  10.868  0.1130 -0.7109  2.3426
30357SOL     OW96390   8.126  10.142   6.000  0.1288 -0.1683  0.4856
30357SOL    HW196391   8.096  10.222   5.957 -1.0395 -1.5472 -1.4343
30357SOL    HW296392   8.097  10.152   6.091  0.3920  1.7455  0.4026
30358SOL     OW96393  11.045   2.785   4.964 -0.5743 -0.4124 -0.2076
30358SOL    HW196394  11.103   2.803   5.038 -0.2707 -0.1066 -0.5176
30358SOL    HW296395  10.994   2.709   4.992 -0.7843 -0.0199  0.4978
30359SOL     OW96396   9.384   2.273  10.535  0.2776 -0.4514 -0.1950
30359SOL    HW196397   9.372   2.178  10.524 -1.4041 -0.4896  1.4049
30359SOL    HW296398   9.424   2.281  10.622 -2.7877  0.3426  1.3023
30360SOL     OW96399   6.702   5.830   4.407 -0.3465 -0.3474 -1.0160
30360SOL    HW196400   6.754   5.843   4.486  0.6922 -0.5422 -1.6371
30360SOL    HW296401   6.612   5.823   4.437  0.1084 -1.1463  0.2228
30361SOL     OW96402   2.503   3.367   1.092  0.4244 -0.3370  0.0120
30361SOL    HW196403   2.527   3.459   1.094  2.3785 -0.8291  1.2757
30361SOL    HW296404   2.469   3.348   1.179 -3.3350 -0.0792 -1.2176
30362SOL     OW96405   6.689   6.482   7.525  0.2192 -0.1098 -0.0812
30362SOL    HW196406   6.726   6.570   7.539  2.2270 -0.5361 -2.0993
30362SOL    HW296407   6.603   6.498   7.487  0.5684  0.9972 -0.4570
30363SOL     OW96408   2.812   2.225   4.221 -0.7562 -0.0034  0.3050
30363SOL    HW196409   2.787   2.316   4.207 -0.3421  0.4609  2.3545
30363SOL    HW296410   2.731   2.181   4.247 -0.3355  0.5937  2.8177
30364SOL     OW96411   8.419   8.724   7.479 -0.0021  0.4608  0.0271
30364SOL    HW196412   8.477   8.650   7.496 -0.6596  0.1977  1.1433
30364SOL    HW296413   8.463   8.772   7.409  1.0482 -0.3015  0.1420
30365SOL     OW96414   0.958   8.651   1.059 -0.0617  0.1123  0.5455
30365SOL    HW196415   0.970   8.590   1.131 -1.4261 -1.0171 -0.1293
30365SOL    HW296416   0.931   8.733   1.102 -1.4407 -0.7029  1.3251
30366SOL     OW96417   6.808   1.968  11.587 -0.5140 -0.1284  0.3250
30366SOL    HW196418   6.734   2.029  11.582 -0.4570 -0.0697  0.1785
30366SOL    HW296419   6.826   1.959  11.681 -0.0984  0.5965  0.3203
30367SOL     OW96420   6.562   4.124   8.837 -0.7055  0.2707  0.0327
30367SOL    HW196421   6.520   4.182   8.774  0.3161 -0.7608 -1.6561
30367SOL    HW296422   6.597   4.052   8.785  0.4422 -0.4878  1.7444
30368SOL     OW96423   9.224   2.163  11.399  0.5247  0.4891 -0.1025
30368SOL    HW196424   9.235   2.168  11.494  1.3122 -0.3656 -0.1449
30368SOL    HW296425   9.131   2.142  11.387  0.2635  1.2702  0.4469
30369SOL     OW96426   1.568   5.087   4.445 -0.5939 -0.3215 -0.2374
30369SOL    HW196427   1.611   5.170   4.430 -2.1546  0.7890  0.9896
30369SOL    HW296428   1.638   5.027   4.471  0.3805  0.9867  0.2316
30370SOL     OW96429   4.412   6.144   7.031  0.6129 -0.3434 -0.2093
30370SOL    HW196430   4.492   6.098   7.005  2.5739  2.8403 -0.3135
30370SOL    HW296431   4.350   6.126   6.960  1.4857 -2.1918 -0.5613
30371SOL     OW96432   8.113   6.223   7.088  0.6435  0.4416 -0.2565
30371SOL    HW196433   8.146   6.298   7.138  0.0974  1.0607 -0.8026
30371SOL    HW296434   8.036   6.257   7.042 -0.4002 -0.8093  0.5083
30372SOL     OW96435   3.546   1.361   8.731  0.4400  0.2827  0.3412
30372SOL    HW196436   3.478   1.395   8.789 -0.7474 -0.5403 -0.5382
30372SOL    HW296437   3.608   1.318   8.790 -0.0796  0.5612  1.1080
30373SOL     OW96438   7.551   0.132   7.574 -0.5445  0.3702 -0.0149
30373SOL    HW196439   7.533   0.105   7.484 -0.8625 -0.5707  0.3228
30373SOL    HW296440   7.509   0.065   7.628 -1.5970  1.6762  0.8568
30374SOL     OW96441   5.462   1.033   4.537  0.5780  0.0950  0.2434
30374SOL    HW196442   5.446   1.014   4.444  0.4104 -0.2540  0.3424
30374SOL    HW296443   5.546   1.080   4.537  1.4361 -1.3751  0.0491
30375SOL     OW96444  10.394   7.860   8.693  0.1211  0.2779  0.4211
30375SOL    HW196445  10.330   7.919   8.652  0.0007  0.7683  1.2831
30375SOL    HW296446  10.433   7.913   8.763 -0.8141 -1.0018  1.9804
30376SOL     OW96447   0.223   0.077   7.615  0.2157  0.3894 -0.4618
30376SOL    HW196448   0.276   0.010   7.658 -0.3484  0.0335 -0.3061
30376SOL    HW296449   0.268   0.093   7.532  0.8366  0.4549 -0.1190
30377SOL     OW96450   5.694   7.130   4.694 -0.6038  0.1741  0.2040
30377SOL    HW196451   5.744   7.091   4.766  0.9792  1.0884 -0.3521
30377SOL    HW296452   5.612   7.081   4.693 -0.7665  0.2398  2.7361
30378SOL     OW96453   9.887   7.903   1.683  0.6960  0.3277 -0.1732
30378SOL    HW196454   9.933   7.979   1.647  1.8709 -0.7070 -0.9292
30378SOL    HW296455   9.808   7.896   1.630 -0.2092  1.8907  0.8827
30379SOL     OW96456   0.220  11.401   8.028  0.3460  0.2696 -0.0094
30379SOL    HW196457   0.303  11.397   8.077 -0.4085 -0.1486  1.2920
30379SOL    HW296458   0.246  11.390   7.937  1.5894 -2.0883  0.5251
30380SOL     OW96459   4.602   2.168   1.123  0.6885 -0.5692 -0.3384
30380SOL    HW196460   4.616   2.139   1.213  1.2077 -0.3920 -0.3617
30380SOL    HW296461   4.510   2.148   1.106  1.0045 -2.1825 -0.3432
30381SOL     OW96462   0.158   1.644   7.813  0.2465 -0.8044 -0.2726
30381SOL    HW196463   0.188   1.573   7.756  3.5360  0.4472 -0.3163
30381SOL    HW296464   0.184   1.616   7.901 -0.3636 -0.5480 -0.0056
30382SOL     OW96465  11.618   7.440  10.057  0.3898  0.5987  0.1064
30382SOL    HW196466  11.575   7.361  10.088  0.6473  0.8448  1.1364
30382SOL    HW296467  11.562   7.472   9.987 -0.2692  0.0695  0.3811
30383SOL     OW96468   9.932   5.173  11.407 -0.5428 -0.3741  0.1646
30383SOL    HW196469   9.913   5.139  11.495  0.3702  0.6226  0.7764
30383SOL    HW296470  10.016   5.217  11.416 -1.3469  1.4683 -0.7093
30384SOL     OW96471   2.803   5.105   1.154 -0.3211 -0.3925  0.5399
30384SOL    HW196472   2.766   5.109   1.066  0.8737 -1.4140 -0.0506
30384SOL    HW296473   2.838   5.016   1.160 -0.4105 -0.3457  2.0726
30385SOL     OW96474   1.013  11.789   5.459 -0.1627  0.0557  0.0553
30385SOL    HW196475   0.980  11.707   5.422 -0.0928 -0.1208  0.3827
30385SOL    HW296476   0.982  11.856   5.399 -0.5065 -0.1781 -0.0336
30386SOL     OW96477   1.364  11.536   9.570  0.0590 -0.9257  0.1612
30386SOL    HW196478   1.347  11.498   9.656  4.2652 -0.4457  1.4416
30386SOL    HW296479   1.381  11.461   9.514 -2.0594 -1.2118 -0.1799
30387SOL     OW96480   8.649   0.460  11.796 -0.5093 -0.2840 -0.0463
30387SOL    HW196481   8.562   0.455  11.837 -1.9534  0.1668 -2.7983
30387SOL    HW296482   8.644   0.397  11.724  1.4118 -0.0892 -0.3817
30388SOL     OW96483   4.830  10.154   1.270 -0.1606  0.6499 -0.4440
30388SOL    HW196484   4.836  10.059   1.279  2.4958  0.7797 -0.0008
30388SOL    HW296485   4.795  10.167   1.182 -0.8156 -0.7087 -0.4182
30389SOL     OW96486   3.820   8.495   4.722  0.3459 -0.1269  0.3311
30389SOL    HW196487   3.902   8.480   4.769  0.3254 -0.2111  0.3397
30389SOL    HW296488   3.830   8.447   4.640 -0.4954 -1.8390  1.1871
30390SOL     OW96489  10.512   9.755   0.112  0.0666 -0.6188 -0.3208
30390SOL    HW196490  10.420   9.733   0.126 -0.2086  0.2266 -0.7378
30390SOL    HW296491  10.513   9.851   0.104  0.7927 -0.6996 -1.5770
30391SOL     OW96492   0.005   7.296   5.393  0.6270 -0.1125 -0.1304
30391SOL    HW196493   0.010   7.244   5.312  0.1006 -1.4581  0.6560
30391SOL    HW296494  -0.072   7.351   5.382 -1.6801 -2.8894  0.8149
30392SOL     OW96495  10.618  11.241   6.030  0.3221  0.3432  0.1540
30392SOL    HW196496  10.648  11.248   5.940  0.3804  1.9548  0.2668
30392SOL    HW296497  10.698  11.249   6.083  0.3004 -0.6915  0.3561
30393SOL     OW96498   6.866  11.430   9.903 -0.0165 -0.0236  0.0281
30393SOL    HW196499   6.786  11.482   9.900  0.1007  0.1311 -0.6005
30393SOL    HW296500   6.917  11.461   9.828  0.5065 -0.3191  0.2567
30394SOL     OW96501   0.265   3.824   1.371  0.4013  0.1720 -0.1850
30394SOL    HW196502   0.238   3.789   1.456  0.5213 -0.2775 -0.3287
30394SOL    HW296503   0.342   3.878   1.390 -0.8070  1.8134  0.2925
30395SOL     OW96504   5.282   0.075   6.203  0.2689 -0.2113  0.6411
30395SOL    HW196505   5.301  -0.011   6.165  0.1068 -0.6959  1.6221
30395SOL    HW296506   5.364   0.123   6.196  0.3987 -0.4959  0.1957
30396SOL     OW96507   7.764  11.720   1.162 -0.1586  0.1219  0.8742
30396SOL    HW196508   7.720  11.637   1.147  3.1886 -1.7622  0.4792
30396SOL    HW296509   7.766  11.762   1.076  0.9727 -0.9903  0.3226
30397SOL     OW96510  10.043   1.054   1.317 -0.5774 -0.2226 -0.0855
30397SOL    HW196511   9.965   1.075   1.265 -0.9776  0.9207  0.9388
30397SOL    HW296512  10.053   1.128   1.377  0.3095 -1.1527  0.9619
30398SOL     OW96513   4.424   0.119  11.743 -0.6241 -0.0118  0.1701
30398SOL    HW196514   4.506   0.100  11.789 -0.2298  0.6219 -0.2635
30398SOL    HW296515   4.442   0.199  11.693 -1.0484 -0.6855 -1.0900
30399SOL     OW96516   3.753   6.153   5.431  0.1641  0.1420  0.6943
30399SOL    HW196517   3.797   6.238   5.434  3.6090 -1.4783  0.6407
30399SOL    HW296518   3.753   6.122   5.522  0.8496 -0.6240  0.4539
30400SOL     OW96519  10.882   7.706   2.037  0.0456  0.0746  0.3543
30400SOL    HW196520  10.922   7.778   2.086 -2.1630  1.0254  0.8551
30400SOL    HW296521  10.790   7.729   2.031 -0.3392 -1.6560 -1.4201
30401SOL     OW96522   9.400   3.717   8.213  0.4482  0.1941 -0.4126
30401SOL    HW196523   9.334   3.695   8.279  1.6135  0.2722  0.8142
30401SOL    HW296524   9.395   3.644   8.150  0.6270 -0.9083  0.7954
30402SOL     OW96525   1.577   5.159   6.634 -0.0006  0.2939  0.3869
30402SOL    HW196526   1.581   5.199   6.546 -0.0152  0.2906  0.3850
30402SOL    HW296527   1.648   5.095   6.634 -1.5870 -1.5651 -0.5347
30403SOL     OW96528   5.249   0.695  11.582  0.4018  0.0791 -0.4011
30403SOL    HW196529   5.265   0.691  11.488 -0.9237 -0.4181 -0.6199
30403SOL    HW296530   5.226   0.787  11.598  1.0102  0.2523 -0.4825
30404SOL     OW96531   3.979   2.668   7.691 -0.4508 -0.0957  0.7114
30404SOL    HW196532   3.911   2.648   7.627  0.3920  0.2774 -0.3426
30404SOL    HW296533   4.058   2.628   7.655 -0.2290 -1.1171  2.2536
30405SOL     OW96534   2.954   8.271   4.151 -0.2515 -0.1762 -0.5372
30405SOL    HW196535   3.028   8.304   4.201 -2.4908  3.2386  0.9594
30405SOL    HW296536   2.970   8.177   4.142  2.4140 -0.2432  2.8138
30406SOL     OW96537  11.491   6.459  11.506 -0.0957  0.4564  0.1814
30406SOL    HW196538  11.410   6.452  11.457 -0.2200  0.5976  0.3673
30406SOL    HW296539  11.525   6.369  11.510 -1.0918  0.1048  1.5461
30407SOL     OW96540   4.345   3.946   6.727 -0.5491  0.2413  0.3506
30407SOL    HW196541   4.277   3.992   6.776 -1.9035 -0.9496 -0.3486
30407SOL    HW296542   4.298   3.896   6.661  1.0667 -0.1185 -0.5867
30408SOL     OW96543   4.766   7.274  10.645 -0.4292  0.6359  0.5458
30408SOL    HW196544   4.820   7.219  10.701 -0.3283  0.9019  0.7132
30408SOL    HW296545   4.777   7.363  10.681  2.6602  1.5140 -2.1272
30409SOL     OW96546   4.481  11.526  10.852 -0.1192  0.0226 -0.2164
30409SOL    HW196547   4.441  11.590  10.911 -1.0531 -0.9411  0.2350
30409SOL    HW296548   4.572  11.555  10.842 -0.5162  1.3910 -0.0087
30410SOL     OW96549  11.030   0.262  10.426 -0.2614 -0.2760 -0.4793
30410SOL    HW196550  11.048   0.168  10.433  0.7536 -0.1242 -0.7564
30410SOL    HW296551  11.112   0.304  10.455 -1.0139  0.5462  0.5152
30411SOL     OW96552   3.930   2.845   2.034  0.7466  0.4868  0.1351
30411SOL    HW196553   3.850   2.880   2.073  1.1304  0.7609  0.6925
30411SOL    HW296554   3.960   2.914   1.975 -0.4203 -0.3566 -1.5309
30412SOL     OW96555   5.710  11.250   2.687 -0.2464  0.0909  0.2343
30412SOL    HW196556   5.787  11.306   2.685  0.4488 -0.8696 -0.8124
30412SOL    HW296557   5.716  11.204   2.771 -0.5547  1.1696  0.8698
30413SOL     OW96558  10.403   5.357  10.281 -0.2167  0.5242 -0.3219
30413SOL    HW196559  10.449   5.385  10.360 -0.1175 -0.2098 -0.1064
30413SOL    HW296560  10.339   5.293  10.313  1.1349 -1.2805 -1.0368
30414SOL     OW96561   0.116  10.465   1.803 -0.1003  0.1172  0.5083
30414SOL    HW196562   0.113  10.488   1.710  0.5949  0.6161  0.6027
30414SOL    HW296563   0.161  10.380   1.805 -1.7185 -0.7955  0.2530
30415SOL     OW96564   8.548  10.276   5.746  0.2100 -0.1808 -0.6413
30415SOL    HW196565   8.487  10.269   5.672 -0.5945  2.0245 -0.2679
30415SOL    HW296566   8.492  10.270   5.823  1.0386 -2.3861 -0.1424
30416SOL     OW96567   5.728   8.470   9.469 -0.2298 -0.0827 -0.3300
30416SOL    HW196568   5.811   8.436   9.502  0.5580  0.2871 -1.8425
30416SOL    HW296569   5.700   8.407   9.403  0.1159  1.0145 -1.5636
30417SOL     OW96570   2.971  10.815   3.860 -0.4520  0.4437  0.1785
30417SOL    HW196571   2.925  10.734   3.884  0.9983 -0.1423  1.1579
30417SOL    HW296572   3.059  10.804   3.898  0.5760  1.4272 -1.7702
30418SOL     OW96573   9.756   2.917   0.540  0.1232  0.1733 -0.2125
30418SOL    HW196574   9.734   2.990   0.482 -2.9275 -1.3573 -1.1386
30418SOL    HW296575   9.766   2.842   0.482  0.6693 -0.6763  0.9502
30419SOL     OW96576   7.204   9.016   0.014  0.7388 -0.1716 -0.4215
30419SOL    HW196577   7.225   9.084  -0.050  1.6346 -0.0530 -0.0211
30419SOL    HW296578   7.281   8.960   0.017  1.3723  0.7032  1.6452
30420SOL     OW96579  11.814   6.877   9.698  0.5525  0.4507  0.2320
30420SOL    HW196580  11.736   6.911   9.653 -0.8233 -0.2995  1.9069
30420SOL    HW296581  11.861   6.954   9.727 -0.1090  0.9339  0.0584
30421SOL     OW96582   6.841  10.866   6.623  0.2761  0.5246 -0.4382
30421SOL    HW196583   6.773  10.934   6.626 -0.2816  0.0192 -1.4534
30421SOL    HW296584   6.812  10.806   6.555  1.1040 -0.3890  0.0030
30422SOL     OW96585   8.465  10.170   4.916  0.6797  0.0471 -0.1703
30422SOL    HW196586   8.389  10.190   4.971 -0.5924 -0.5177 -1.6630
30422SOL    HW296587   8.446  10.084   4.878  1.1164  0.7516 -2.1029
30423SOL     OW96588   9.684   5.828   8.281 -0.1334 -0.3576  0.7168
30423SOL    HW196589   9.674   5.912   8.325 -2.3776  0.5779 -1.3832
30423SOL    HW296590   9.606   5.778   8.306 -1.3842  0.1417 -1.8751
30424SOL     OW96591   1.903   8.797   6.345 -0.1994 -0.0475 -0.4607
30424SOL    HW196592   1.993   8.766   6.348 -0.3568 -0.4234  0.7428
30424SOL    HW296593   1.879   8.811   6.436 -1.9099 -1.6127 -0.6021
30425SOL     OW96594   9.637   6.380   4.003  0.1229 -0.3518 -0.1900
30425SOL    HW196595   9.675   6.456   3.959  1.5448 -0.7761  0.2530
30425SOL    HW296596   9.575   6.417   4.066 -1.3920  0.2859 -1.9859
30426SOL     OW96597   2.039  10.877  10.551 -0.0922 -0.1129  0.6338
30426SOL    HW196598   2.124  10.906  10.583  0.3712 -1.0551  0.2604
30426SOL    HW296599   2.006  10.952  10.501  1.7463 -0.6725 -1.5619
30427SOL     OW96600  11.445   5.224   6.747  0.0213  0.2575  0.5718
30427SOL    HW196601  11.349   5.229   6.750 -0.1384 -1.6902 -0.0680
30427SOL    HW296602  11.474   5.283   6.817 -1.6581  0.2429  1.3306
30428SOL     OW96603   6.343   8.718   6.121  0.3558 -0.8332 -0.1630
30428SOL    HW196604   6.308   8.703   6.209 -2.2585  3.1133 -0.2853
30428SOL    HW296605   6.296   8.655   6.065  0.1039 -1.5892  0.8640
30429SOL     OW96606   4.591   5.563  10.472  0.3940 -0.2561 -0.1695
30429SOL    HW196607   4.620   5.598  10.557  1.1476 -1.9297  0.2926
30429SOL    HW296608   4.552   5.638  10.428  2.4505  1.3299  0.5399
30430SOL     OW96609   5.634   1.168   1.371 -0.1121  0.1380 -0.0328
30430SOL    HW196610   5.546   1.188   1.340 -1.2841 -2.0516  1.5669
30430SOL    HW296611   5.627   1.171   1.467  1.6343  0.2229  0.1186
30431SOL     OW96612   2.548   0.577   8.613 -0.4063 -0.2472  0.7629
30431SOL    HW196613   2.475   0.569   8.551 -0.2852  0.9094  0.4388
30431SOL    HW296614   2.556   0.672   8.628  0.5736 -0.4096  1.3442
30432SOL     OW96615   6.614   7.092  10.101 -0.1721 -0.0037  0.3803
30432SOL    HW196616   6.591   7.153  10.171  0.1365  0.3327  0.1868
30432SOL    HW296617   6.585   7.135  10.021 -0.6275 -0.4391  0.3058
30433SOL     OW96618  10.516   7.866   7.626 -0.1870 -0.0348  0.2880
30433SOL    HW196619  10.570   7.890   7.551  0.6590 -0.0352  0.8864
30433SOL    HW296620  10.485   7.950   7.661 -1.0044 -0.0535 -0.3444
30434SOL     OW96621   7.469   6.067   2.889  0.0043  0.6613 -0.1628
30434SOL    HW196622   7.384   6.112   2.887  0.1470  1.3200  3.2374
30434SOL    HW296623   7.447   5.977   2.913  0.1643  0.2614 -1.4292
30435SOL     OW96624   0.650  11.011   5.084 -0.0035 -0.5671 -0.1411
30435SOL    HW196625   0.601  11.092   5.071  0.3155 -0.4147 -0.4055
30435SOL    HW296626   0.718  11.035   5.148 -0.5072 -0.8759  0.5214
30436SOL     OW96627   9.860   0.908   9.727 -0.0591 -0.1486  0.2701
30436SOL    HW196628   9.953   0.886   9.726  0.0149  0.1602  0.5879
30436SOL    HW296629   9.819   0.835   9.773  0.1514  0.2291  1.0602
30437SOL     OW96630   2.402   1.616   6.147 -0.5445 -0.4909  0.8640
30437SOL    HW196631   2.457   1.692   6.167 -2.5058  1.5093 -0.7810
30437SOL    HW296632   2.432   1.587   6.061 -1.5775  0.2024  0.2532
30438SOL     OW96633   3.141   1.818  11.307  0.4361 -0.2205 -0.0517
30438SOL    HW196634   3.145   1.736  11.258  1.3680  0.1062 -0.5584
30438SOL    HW296635   3.171   1.794  11.395  0.2638 -0.5107 -0.0716
30439SOL     OW96636   0.402  10.096   1.350 -0.3794  0.0500 -0.5024
30439SOL    HW196637   0.400  10.177   1.299 -0.2126 -0.6338 -1.6364
30439SOL    HW296638   0.479  10.049   1.317 -1.1012 -1.0612 -0.6595
30440SOL     OW96639   8.719   5.900  10.000 -0.0910  0.5292  0.3313
30440SOL    HW196640   8.646   5.915   9.940  1.1518  0.7037 -1.1803
30440SOL    HW296641   8.796   5.893   9.944  0.6442 -3.1710  1.5566
30441SOL     OW96642  10.873   5.586   1.647 -0.1061 -0.4998 -0.2314
30441SOL    HW196643  10.967   5.590   1.663  0.0778 -1.1739 -1.0541
30441SOL    HW296644  10.838   5.666   1.685  0.5814 -0.9542  1.4382
30442SOL     OW96645  10.043   9.267   9.251  0.3229  0.0589  0.5020
30442SOL    HW196646   9.997   9.244   9.170 -0.2906  0.2476  0.7900
30442SOL    HW296647   9.987   9.333   9.292 -0.3293 -1.3414  1.9767
30443SOL     OW96648   5.100   4.763  11.558 -0.1135  0.4712 -0.3008
30443SOL    HW196649   5.106   4.857  11.542  0.3091  0.2687 -1.4156
30443SOL    HW296650   5.168   4.724  11.502 -0.8113 -0.5583 -0.4694
30444SOL     OW96651   8.236   0.661   9.440 -0.6509  0.6502 -0.3462
30444SOL    HW196652   8.309   0.717   9.415  0.2335 -0.1737  0.3459
30444SOL    HW296653   8.198   0.633   9.356  0.2035  0.5937 -0.7249
30445SOL     OW96654   4.601  10.705   0.091  0.0423  0.1509 -0.1609
30445SOL    HW196655   4.554  10.630   0.128  1.6010 -1.4426 -1.2532
30445SOL    HW296656   4.660  10.667   0.026  1.9939  2.1682  0.2982
30446SOL     OW96657   7.642  10.269   2.776 -0.1462 -0.4233  0.0364
30446SOL    HW196658   7.650  10.211   2.852 -0.1740  0.2353  0.5510
30446SOL    HW296659   7.695  10.227   2.709 -0.8317 -1.4702  0.1320
30447SOL     OW96660   5.321   4.226   6.292 -0.0009  0.5046  0.0192
30447SOL    HW196661   5.260   4.282   6.245  2.2016  1.4571 -1.9067
30447SOL    HW296662   5.393   4.284   6.316 -0.2785 -0.2992  3.3244
30448SOL     OW96663   3.196   7.666   8.562  0.0377 -0.1258  0.0304
30448SOL    HW196664   3.209   7.757   8.586  3.0682 -0.8531  1.5969
30448SOL    HW296665   3.207   7.618   8.644 -0.7058 -1.9804 -0.8969
30449SOL     OW96666   4.997   3.168   8.650 -0.0530 -0.7539  0.5228
30449SOL    HW196667   5.092   3.176   8.662  0.0158 -0.2799 -0.2732
30449SOL    HW296668   4.962   3.249   8.687 -0.1536 -0.9490  0.8574
30450SOL     OW96669   1.865   7.019   1.160 -0.4640 -0.0627  0.3750
30450SOL    HW196670   1.880   7.110   1.185  0.3302  0.6684 -2.3865
30450SOL    HW296671   1.769   7.011   1.155 -0.5360  0.6082  0.6448
30451SOL     OW96672   8.130   6.680   1.311 -0.3285  0.3338 -0.4070
30451SOL    HW196673   8.196   6.695   1.378 -0.1133 -1.2034 -0.2508
30451SOL    HW296674   8.060   6.742   1.333  0.7494  1.5400 -0.2028
30452SOL     OW96675   5.586   4.392  11.100  0.1986  0.0808 -0.4029
30452SOL    HW196676   5.548   4.350  11.023  1.3383  1.5427 -1.8357
30452SOL    HW296677   5.512   4.433  11.145 -0.3781 -0.1468 -1.1316
30453SOL     OW96678   9.028   0.705   0.881 -0.1967 -0.5779  0.3111
30453SOL    HW196679   9.060   0.756   0.806 -0.4674 -0.7554  0.0738
30453SOL    HW296680   9.107   0.680   0.929  0.0459 -1.2135 -0.4005
30454SOL     OW96681   2.506   2.837   5.827  0.1304 -0.2130  0.5731
30454SOL    HW196682   2.476   2.746   5.828  0.0379 -0.2484 -1.4418
30454SOL    HW296683   2.426   2.889   5.833  0.0677 -0.2709  0.2262
30455SOL     OW96684   0.058   3.408   2.522  0.1840 -0.3735  0.4623
30455SOL    HW196685  -0.026   3.363   2.513 -0.4481  0.5129  1.7392
30455SOL    HW296686   0.072   3.414   2.616  1.6446 -0.4158  0.2653
30456SOL     OW96687   5.020   4.838   1.072  0.4118 -0.1618 -0.0383
30456SOL    HW196688   4.957   4.889   1.021  0.9715  1.6721  0.9852
30456SOL    HW296689   5.094   4.826   1.013  0.1374 -0.0592 -0.4064
30457SOL     OW96690   2.904   6.429   2.127  0.2690 -0.8889 -0.5977
30457SOL    HW196691   2.812   6.453   2.134  0.1361 -1.7036  0.7271
30457SOL    HW296692   2.904   6.333   2.124  1.0980 -0.9308  0.2058
30458SOL     OW96693   0.725   9.137   3.606 -0.2533  0.4570 -0.1574
30458SOL    HW196694   0.755   9.212   3.553 -0.2616  1.2778  0.9663
30458SOL    HW296695   0.698   9.176   3.689  2.3887 -1.0379  1.5718
30459SOL     OW96696   0.135   4.808   4.563  0.5100 -0.3633 -0.6552
30459SOL    HW196697   0.089   4.813   4.647  0.5824 -1.7697 -0.5016
30459SOL    HW296698   0.119   4.892   4.521 -0.2725  0.0238  0.3876
30460SOL     OW96699   9.390   9.917   3.963 -0.1890  0.3812  0.3192
30460SOL    HW196700   9.312   9.864   3.948 -0.6858  1.3633 -0.6798
30460SOL    HW296701   9.357   9.997   4.005  0.3676  0.5272  0.4862
30461SOL     OW96702   8.675   8.606   0.936 -0.7453  0.2129  0.0256
30461SOL    HW196703   8.751   8.660   0.958 -1.7721  1.9535 -0.4862
30461SOL    HW296704   8.711   8.533   0.886  0.7886 -0.0685  1.4438
30462SOL     OW96705  11.749   5.229   6.629  1.0726  0.3015  0.4759
30462SOL    HW196706  11.654   5.217   6.621  1.2140 -0.5332 -0.0400
30462SOL    HW296707  11.766   5.314   6.588  0.3739  1.1793  1.9013
30463SOL     OW96708   0.289   1.365   1.118 -0.1665  0.2873  0.3056
30463SOL    HW196709   0.335   1.377   1.201 -0.8644  1.3822  0.5543
30463SOL    HW296710   0.254   1.452   1.097  0.0465  0.0430 -1.1667
30464SOL     OW96711   4.072   0.143   1.105 -0.8163 -0.2622 -0.1081
30464SOL    HW196712   4.081   0.232   1.140 -0.4816  0.1576 -1.2113
30464SOL    HW296713   4.020   0.096   1.171  0.1034  0.3827  1.1065
30465SOL     OW96714   6.032   7.991  10.020  0.8275  0.1063 -0.0297
30465SOL    HW196715   6.031   8.080  10.056 -0.5123  0.3939 -0.7083
30465SOL    HW296716   5.950   7.952  10.051  1.3200 -0.8433  0.1080
30466SOL     OW96717   8.072   5.044   3.630 -0.5964  0.2959 -0.6294
30466SOL    HW196718   8.145   4.991   3.599 -0.8298 -0.2394 -0.2737
30466SOL    HW296719   8.035   5.083   3.551 -0.5940 -0.2904 -0.9244
30467SOL     OW96720   7.931   1.472   2.335 -0.0817  0.3374  0.0507
30467SOL    HW196721   7.988   1.397   2.319  1.6395  1.8305 -1.2665
30467SOL    HW296722   7.895   1.494   2.249  1.5276  2.5436 -0.1560
30468SOL     OW96723   9.187   5.066   8.794  0.0496  0.3088 -0.1519
30468SOL    HW196724   9.181   5.139   8.857  0.4478 -0.2319  0.5336
30468SOL    HW296725   9.262   5.015   8.824 -1.7560 -1.8612  0.9903
30469SOL     OW96726   5.202   2.309   4.110 -0.0128 -0.7066 -0.4089
30469SOL    HW196727   5.154   2.238   4.069 -1.1839 -0.6211  0.7684
30469SOL    HW296728   5.163   2.319   4.197  1.2436  0.2587  0.0926
30470SOL     OW96729   8.589   9.901   1.154 -0.5050 -0.1750 -0.1265
30470SOL    HW196730   8.584   9.938   1.243  2.2405  0.7035 -0.2514
30470SOL    HW296731   8.627   9.814   1.167  1.9706  0.7650 -0.5064
30471SOL     OW96732   7.145   5.741   4.389 -0.1450  0.4377 -0.6068
30471SOL    HW196733   7.166   5.686   4.464  0.1291  0.6318 -0.5377
30471SOL    HW296734   7.094   5.813   4.425 -1.4540 -0.3285 -0.8599
30472SOL     OW96735   3.769   5.634   8.412 -0.0597 -0.5714  0.0161
30472SOL    HW196736   3.838   5.576   8.444 -0.3596 -2.5449 -2.5889
30472SOL    HW296737   3.802   5.667   8.328 -1.0745  0.8438  0.1435
30473SOL     OW96738   4.418   3.358  10.664 -0.0727  0.0182 -0.2365
30473SOL    HW196739   4.483   3.366  10.594 -1.6732  1.1839 -1.6877
30473SOL    HW296740   4.466   3.319  10.737  2.2114  0.7540 -1.2444
30474SOL     OW96741   0.793  11.039   9.619  0.2687 -0.2660  0.1129
30474SOL    HW196742   0.864  10.976   9.620 -0.4698 -1.1541 -1.2285
30474SOL    HW296743   0.713  10.986   9.620 -0.3666  0.6423 -0.5119
30475SOL     OW96744   7.532  11.445   6.880 -0.2307  0.7218 -0.4411
30475SOL    HW196745   7.575  11.364   6.907  0.8434  1.5725  0.5489
30475SOL    HW296746   7.545  11.449   6.785 -2.6923 -1.5600 -0.9825
30476SOL     OW96747   8.474   4.293   6.217 -0.3287 -0.2516  0.8322
30476SOL    HW196748   8.477   4.216   6.160 -0.9116 -0.3581  0.9348
30476SOL    HW296749   8.566   4.310   6.240 -0.1957 -0.9455  0.8439
30477SOL     OW96750   9.820  11.046   8.963 -0.2103 -0.4562  0.5093
30477SOL    HW196751   9.815  11.011   9.052  0.5728 -0.1129  0.6908
30477SOL    HW296752   9.881  10.987   8.918 -1.6086 -1.4209 -0.1869
30478SOL     OW96753  11.162   8.943   1.316  0.2443 -0.3560  0.6275
30478SOL    HW196754  11.225   8.871   1.318 -0.1825 -0.9141 -1.9013
30478SOL    HW296755  11.148   8.966   1.408  0.9425 -3.0189  1.4932
30479SOL     OW96756   5.565   9.442  10.164  0.0841 -0.3378  0.0135
30479SOL    HW196757   5.580   9.532  10.134  0.6137 -0.9732 -1.7512
30479SOL    HW296758   5.557   9.391  10.084 -1.6340 -1.6633  0.9604
30480SOL     OW96759   7.595   4.574   1.474 -0.3613 -0.0541 -0.5014
30480SOL    HW196760   7.655   4.630   1.522  1.2656 -0.4861 -1.9040
30480SOL    HW296761   7.604   4.488   1.515 -1.5600  0.2845  0.5438
30481SOL     OW96762   1.275   7.095   7.559  0.4441  0.5699  0.7070
30481SOL    HW196763   1.306   7.148   7.633  0.0745  2.2771 -0.2981
30481SOL    HW296764   1.298   7.147   7.481 -2.2233  0.5224 -0.2160
30482SOL     OW96765   5.671   1.646   1.475 -0.2528  0.1868 -0.1424
30482SOL    HW196766   5.703   1.556   1.466 -0.2089  0.2707 -0.8595
30482SOL    HW296767   5.699   1.690   1.394  1.4147  1.3696  1.0107
30483SOL     OW96768   6.866   5.221   0.175  0.4943 -0.5134 -0.4646
30483SOL    HW196769   6.855   5.310   0.209  0.2721 -0.2408 -1.2338
30483SOL    HW296770   6.780   5.181   0.184  0.3263 -0.2987 -1.1007
30484SOL     OW96771   0.189   2.702   5.288 -0.3933  0.4438  0.3905
30484SOL    HW196772   0.218   2.674   5.201 -0.4721  0.1374  0.4634
30484SOL    HW296773   0.165   2.794   5.276  1.6716  1.0669  0.5563
30485SOL     OW96774   0.552   6.822   3.667  0.5815  0.0329 -0.2818
30485SOL    HW196775   0.575   6.911   3.692  0.2200 -0.1296  0.6786
30485SOL    HW296776   0.619   6.767   3.708  1.5635 -0.0749 -1.9267
30486SOL     OW96777   2.643   9.479   6.316 -0.4980 -0.4486 -0.2891
30486SOL    HW196778   2.719   9.537   6.314 -1.4330  0.7983 -1.8823
30486SOL    HW296779   2.678   9.392   6.294  0.6893 -0.2422  0.6689
30487SOL     OW96780   8.135   5.479   1.380  0.6473  0.0105  0.5553
30487SOL    HW196781   8.191   5.547   1.418  0.1273 -0.7702  2.8806
30487SOL    HW296782   8.051   5.522   1.366  0.9327  0.3867 -0.0192
30488SOL     OW96783  10.805   5.021   1.484 -0.2724  0.7016 -0.2487
30488SOL    HW196784  10.744   5.040   1.556 -0.3662  0.2815 -0.2152
30488SOL    HW296785  10.781   5.084   1.416 -0.0122  1.2784  0.1792
30489SOL     OW96786   3.516   3.942   4.769  0.1995 -0.8037  0.4277
30489SOL    HW196787   3.597   3.958   4.721 -0.0362 -1.3289 -0.1629
30489SOL    HW296788   3.460   3.894   4.707 -0.8427  0.1623  0.5735
30490SOL     OW96789   7.414   4.505  11.170  0.5349 -0.1830  0.3458
30490SOL    HW196790   7.362   4.562  11.226  0.2801  0.2027 -0.2803
30490SOL    HW296791   7.504   4.517  11.200  0.2218 -1.4687  1.9909
30491SOL     OW96792  11.111   7.258   5.797  0.4575  0.1034  0.1099
30491SOL    HW196793  11.064   7.313   5.735 -1.5070 -2.0879 -0.4935
30491SOL    HW296794  11.150   7.189   5.743  1.5830  0.0285  0.9823
30492SOL     OW96795   9.849   7.729   4.438  0.0578  0.1739 -0.1293
30492SOL    HW196796   9.788   7.706   4.508  1.6599 -3.1099  0.3707
30492SOL    HW296797   9.806   7.698   4.358 -0.0257  0.2146 -0.1002
30493SOL     OW96798  11.306  10.359   6.461  0.5980  0.1415 -0.0161
30493SOL    HW196799  11.213  10.354   6.486  0.8475 -0.1132  0.8948
30493SOL    HW296800  11.324  10.274   6.420  0.7348 -0.2953  0.9240
30494SOL     OW96801   8.117   1.609  10.080  0.9177  0.3212  0.3787
30494SOL    HW196802   8.070   1.531  10.110 -0.4542  1.1031  0.3478
30494SOL    HW296803   8.087   1.679  10.138 -2.0343  1.9687 -2.7112
30495SOL     OW96804   1.039   4.068   1.245 -0.4844  0.3397 -0.2601
30495SOL    HW196805   0.985   4.146   1.243 -0.5671  0.2749 -1.0465
30495SOL    HW296806   1.129   4.101   1.247 -0.5323  0.4478  0.2076
30496SOL     OW96807   2.196   2.734   1.737  0.1679 -0.4845  0.3965
30496SOL    HW196808   2.137   2.798   1.697  1.3906 -0.1301 -0.9357
30496SOL    HW296809   2.270   2.786   1.768  0.3902 -1.0598  0.8376
30497SOL     OW96810   9.458   7.763   5.212 -0.4844 -0.1511  0.0712
30497SOL    HW196811   9.379   7.809   5.241  0.4627  1.3502  0.3417
30497SOL    HW296812   9.504   7.740   5.292  0.5686  1.2109 -0.1005
30498SOL     OW96813   4.812   7.453   5.094 -0.5532  0.3416  0.1837
30498SOL    HW196814   4.737   7.418   5.045  0.8211 -1.0759 -0.9883
30498SOL    HW296815   4.872   7.379   5.103  1.4508  1.8163 -0.3708
30499SOL     OW96816   6.320   4.625   0.975  0.2124  0.1056  0.1236
30499SOL    HW196817   6.287   4.712   0.953 -0.5608 -0.6933 -2.2307
30499SOL    HW296818   6.350   4.632   1.066 -1.1688  2.4207  0.4748
30500SOL     OW96819   0.009   2.962   4.761  0.2420 -0.1997 -0.2087
30500SOL    HW196820  -0.049   2.928   4.829  1.7062 -0.2516  1.0662
30500SOL    HW296821   0.017   2.890   4.698 -3.0356  0.6643 -1.8133
30501SOL     OW96822   0.419   9.349   2.011 -1.1243  0.4102 -0.6423
30501SOL    HW196823   0.459   9.262   2.015 -2.5153 -0.2068  0.1697
30501SOL    HW296824   0.370   9.349   1.928 -0.5836  0.6775 -0.9697
30502SOL     OW96825   1.262   1.098   9.217  0.7862 -0.1343 -0.2885
30502SOL    HW196826   1.222   1.181   9.243  0.0411 -0.1846 -1.2466
30502SOL    HW296827   1.306   1.067   9.296 -0.4731  0.2683  0.6013
30503SOL     OW96828   6.211   8.433   7.853 -0.0235 -0.8780 -0.5514
30503SOL    HW196829   6.215   8.353   7.800 -1.3207 -1.1064 -0.3269
30503SOL    HW296830   6.163   8.408   7.932  0.3756 -0.1033 -0.0446
30504SOL     OW96831   4.602  10.402   2.359 -0.1956 -0.6746  0.2525
30504SOL    HW196832   4.510  10.410   2.331  0.0137 -1.4537 -0.7471
30504SOL    HW296833   4.641  10.486   2.336 -0.8622  0.0051  1.5412
30505SOL     OW96834   7.169   2.681   8.494 -0.4292  0.1923  0.6441
30505SOL    HW196835   7.123   2.765   8.488  2.1218  1.6115 -1.1008
30505SOL    HW296836   7.175   2.650   8.403  1.2747 -0.3090  0.8861
30506SOL     OW96837   6.590   2.867   2.501  0.2336  0.4832 -0.3779
30506SOL    HW196838   6.534   2.933   2.459 -1.4583 -0.0215  0.9480
30506SOL    HW296839   6.644   2.918   2.562 -1.7707  0.6435  1.3810
30507SOL     OW96840   7.877   1.747   7.642 -0.0179  0.1741  0.0940
30507SOL    HW196841   7.869   1.842   7.627 -0.7703  0.0758 -0.2049
30507SOL    HW296842   7.789   1.721   7.668  0.1870 -0.4505  0.1586
30508SOL     OW96843   6.944  10.374   8.405  0.3508  0.3941  0.2075
30508SOL    HW196844   6.906  10.454   8.441  0.8582  1.2885 -1.1621
30508SOL    HW296845   6.961  10.319   8.481  1.5841  2.2726  1.3611
30509SOL     OW96846  10.678   4.289   9.384  0.4134  0.8311 -0.4228
30509SOL    HW196847  10.702   4.215   9.330  0.5938  0.6008 -0.0292
30509SOL    HW296848  10.738   4.286   9.459 -0.3368  0.6868  0.1871
30510SOL     OW96849  10.395   4.186   2.861  0.0295  0.0361 -0.2533
30510SOL    HW196850  10.478   4.211   2.901  0.6737 -1.3399 -0.6784
30510SOL    HW296851  10.328   4.231   2.913  0.9674  0.0053  1.0055
30511SOL     OW96852   2.224   1.026   3.736  0.0198 -0.1452 -0.2151
30511SOL    HW196853   2.221   1.006   3.642 -0.0258  0.7412 -0.4186
30511SOL    HW296854   2.279   0.958   3.774 -1.3844 -1.5570 -0.5928
30512SOL     OW96855   6.616   5.538   1.737 -0.2382  0.1576  0.0461
30512SOL    HW196856   6.621   5.560   1.830  0.2875 -0.4797  0.1749
30512SOL    HW296857   6.707   5.541   1.706 -0.0271 -2.3550  0.2127
30513SOL     OW96858   0.209   9.697   4.887  0.1939 -0.0750  0.5612
30513SOL    HW196859   0.217   9.628   4.953 -0.3638  0.7491  1.5254
30513SOL    HW296860   0.145   9.757   4.924 -0.8588 -0.0780 -1.1983
30514SOL     OW96861   3.847   5.780   3.743 -0.5837 -0.2501 -0.4148
30514SOL    HW196862   3.924   5.812   3.696 -0.7799  1.4660  0.3443
30514SOL    HW296863   3.820   5.702   3.695 -0.8364  1.4367 -3.2602
30515SOL     OW96864   8.344   0.562   7.131 -0.2860 -0.4131 -0.4037
30515SOL    HW196865   8.315   0.487   7.080 -0.4435 -0.9636  0.4746
30515SOL    HW296866   8.285   0.633   7.104 -1.0514 -0.9637 -0.2248
30516SOL     OW96867  10.315   4.454  10.210 -0.2589  0.6590  0.1518
30516SOL    HW196868  10.283   4.380  10.159  0.5909 -0.0782  0.6458
30516SOL    HW296869  10.269   4.448  10.293  1.9931 -1.1934  1.3734
30517SOL     OW96870   1.240   9.856   1.488 -0.3589  0.2762  0.1176
30517SOL    HW196871   1.202   9.814   1.411  1.8871 -2.1467  0.2036
30517SOL    HW296872   1.299   9.922   1.452 -1.5407  1.2467 -0.1050
30518SOL     OW96873   1.948   2.415   2.524 -0.0567 -0.0638  0.0770
30518SOL    HW196874   1.886   2.486   2.541 -1.2822 -1.3842  1.4612
30518SOL    HW296875   2.028   2.459   2.496 -1.5614  1.7011 -1.6848
30519SOL     OW96876   5.009  10.955   7.465  0.1978  0.5891  0.0171
30519SOL    HW196877   4.992  10.933   7.373 -0.5480  0.3092  0.2196
30519SOL    HW296878   4.976  10.880   7.514  1.0997  0.4879  0.4899
30520SOL     OW96879   2.162  10.134   9.466  0.0537 -0.0968  0.1541
30520SOL    HW196880   2.213  10.207   9.430  0.3384 -0.2798  0.1790
30520SOL    HW296881   2.125  10.168   9.546 -1.5541  0.6994 -0.8821
30521SOL     OW96882   0.780   4.780   9.175 -0.2769 -0.2017 -0.6885
30521SOL    HW196883   0.781   4.758   9.268 -1.0119  0.9969 -0.3638
30521SOL    HW296884   0.764   4.698   9.130  0.6872 -0.8996  0.2035
30522SOL     OW96885   7.710   7.074   6.938 -0.2776  0.3612 -0.6385
30522SOL    HW196886   7.698   7.169   6.935  3.2773  1.0130  1.1459
30522SOL    HW296887   7.713   7.048   6.846 -0.5665  2.0753 -1.1712
30523SOL     OW96888   4.939   6.584  10.669  0.4219 -1.0662 -0.0689
30523SOL    HW196889   4.914   6.516  10.732 -0.0148 -1.7749 -0.9805
30523SOL    HW296890   4.876   6.574  10.597 -1.9211  2.4918  1.1817
30524SOL     OW96891   1.750   1.171   6.227 -0.2874 -0.1236 -0.1541
30524SOL    HW196892   1.823   1.127   6.271  0.0270 -0.1571 -0.6973
30524SOL    HW296893   1.672   1.139   6.272  0.0778  0.6161  1.0513
30525SOL     OW96894   7.020   9.586   3.410 -0.4695  0.3699  0.3435
30525SOL    HW196895   6.970   9.555   3.486  0.3047  0.9221  1.1077
30525SOL    HW296896   7.068   9.662   3.443  2.2725 -1.1430  0.1742
30526SOL     OW96897   4.946   7.329   8.537 -0.0956 -0.2939 -0.6597
30526SOL    HW196898   4.863   7.293   8.506  0.6801 -0.2390 -3.0487
30526SOL    HW296899   4.928   7.357   8.627 -2.8682  0.4003 -1.3161
30527SOL     OW96900   3.939   7.580   9.819  0.1326 -0.7225  0.1865
30527SOL    HW196901   3.985   7.608   9.898  0.4048 -1.0415  0.1405
30527SOL    HW296902   3.930   7.485   9.829  1.6924 -1.0346 -0.9612
30528SOL     OW96903   3.960   7.443  11.608  0.1879  0.2930  0.2436
30528SOL    HW196904   3.980   7.427  11.700  0.8387 -1.4841 -0.1694
30528SOL    HW296905   4.046   7.449  11.566 -0.0816  1.9130 -0.1604
30529SOL     OW96906   9.107   1.788   7.163 -0.5471 -0.1149  0.0099
30529SOL    HW196907   9.068   1.814   7.080 -2.4635  0.4209  1.0209
30529SOL    HW296908   9.086   1.859   7.224  1.9042  0.1100  0.7030
30530SOL     OW96909   0.192   4.689   8.180 -0.4683 -0.0959 -0.9833
30530SOL    HW196910   0.102   4.713   8.202  0.2211  2.2383 -0.3527
30530SOL    HW296911   0.193   4.687   8.084 -1.4290 -1.3089 -0.9893
30531SOL     OW96912   9.390  10.477  11.107  0.1757  0.3363  0.0980
30531SOL    HW196913   9.306  10.472  11.060  0.3465  0.0154 -0.1767
30531SOL    HW296914   9.390  10.564  11.147  1.0515  1.5943 -2.4307
30532SOL     OW96915   4.259   1.401   5.025  0.1688 -0.0408  0.0406
30532SOL    HW196916   4.304   1.384   4.943  3.1939 -0.4944  1.6769
30532SOL    HW296917   4.243   1.315   5.062 -1.6950  0.1371 -0.2500
30533SOL     OW96918   3.023   6.519   3.949 -0.1005 -0.0971 -0.1158
30533SOL    HW196919   2.973   6.440   3.932 -0.8262  0.4656 -0.6317
30533SOL    HW296920   3.112   6.488   3.967 -0.7167 -1.1360  1.2940
30534SOL     OW96921   2.632   6.520   5.939 -0.1592 -0.0128  0.1233
30534SOL    HW196922   2.566   6.486   6.000  0.0500  0.7240  0.7787
30534SOL    HW296923   2.625   6.615   5.947  0.9467  0.0729  0.1742
30535SOL     OW96924   7.702   0.707   3.081  0.2896 -0.9703  0.4289
30535SOL    HW196925   7.732   0.721   2.991  0.6720 -1.0266  0.5468
30535SOL    HW296926   7.610   0.736   3.080 -0.0217 -1.9325 -0.2349
30536SOL     OW96927   3.828   7.404   5.561 -0.0145 -0.3170 -0.1632
30536SOL    HW196928   3.766   7.357   5.617 -1.4774 -1.1500 -2.3310
30536SOL    HW296929   3.773   7.461   5.507  0.8534 -1.8472 -2.9011
30537SOL     OW96930   4.699   7.941  11.038  0.6505 -0.3463 -0.4175
30537SOL    HW196931   4.640   7.884  10.989  0.0359  0.3304 -0.4721
30537SOL    HW296932   4.647   8.018  11.059  0.8342 -0.6883  1.4901
30538SOL     OW96933   6.780   4.877   9.307  0.0796  0.1424  0.1973
30538SOL    HW196934   6.741   4.791   9.289 -1.6486  0.7370  0.8144
30538SOL    HW296935   6.818   4.904   9.224  0.5570 -1.1583 -0.0347
30539SOL     OW96936   5.769  10.992  10.273  0.2739 -0.7045  0.0682
30539SOL    HW196937   5.754  11.035  10.188  0.1100 -0.1041  0.3967
30539SOL    HW296938   5.765  10.898  10.253 -0.1811 -0.5668 -0.5169
30540SOL     OW96939   1.378   2.621  11.335 -0.5017  0.4581  0.2642
30540SOL    HW196940   1.340   2.705  11.311 -1.3593  0.4991  1.6739
30540SOL    HW296941   1.303   2.562  11.344  0.1165 -0.6667 -1.3134
30541SOL     OW96942   1.739   6.068   3.030  0.3493 -0.5748  0.3023
30541SOL    HW196943   1.791   5.999   2.988  0.1246 -0.6655  0.1757
30541SOL    HW296944   1.803   6.117   3.082  0.7397 -0.1050 -0.5935
30542SOL     OW96945   8.796   0.152   3.242  0.3861 -0.7118  0.4219
30542SOL    HW196946   8.721   0.194   3.200 -0.7364 -2.2067  0.8518
30542SOL    HW296947   8.790   0.061   3.216  0.9997 -1.2230  1.9436
30543SOL     OW96948   8.926   8.754   5.290 -0.1431  0.1496  0.3588
30543SOL    HW196949   9.016   8.754   5.257  0.5863  1.3674  2.2036
30543SOL    HW296950   8.929   8.696   5.366 -0.8704  0.3525  0.5433
30544SOL     OW96951   0.900  10.372  10.776 -0.3170 -0.3797 -0.8497
30544SOL    HW196952   0.992  10.385  10.801 -0.6247 -1.9212  1.3031
30544SOL    HW296953   0.888  10.278  10.776 -2.0239 -0.1867 -0.6748
30545SOL     OW96954   2.838   2.487   0.717 -0.1383 -0.0584  0.0466
30545SOL    HW196955   2.789   2.523   0.791 -2.0486 -0.0956 -1.1210
30545SOL    HW296956   2.898   2.424   0.756 -0.7282  0.2910  1.6055
30546SOL     OW96957   5.305   9.622   6.759  0.3164 -0.2760  0.3104
30546SOL    HW196958   5.224   9.652   6.719  0.5448  1.7107  1.1848
30546SOL    HW296959   5.371   9.684   6.728  1.0658 -0.5500  1.2986
30547SOL     OW96960   1.880   3.519   7.393  0.4441  0.2047 -0.6507
30547SOL    HW196961   1.846   3.593   7.442  0.5276 -0.0052 -0.2740
30547SOL    HW296962   1.970   3.508   7.424  0.6248  0.3098 -1.1251
30548SOL     OW96963   1.166   3.175   4.194 -0.4481 -0.2780 -0.6025
30548SOL    HW196964   1.177   3.080   4.205 -1.2186 -0.2215  0.9519
30548SOL    HW296965   1.074   3.192   4.214  0.1197  1.0193  1.1654
30549SOL     OW96966  10.751   2.139   3.708  0.0126  0.4882 -0.1789
30549SOL    HW196967  10.831   2.103   3.669 -0.8051 -0.1747 -1.3010
30549SOL    HW296968  10.690   2.148   3.634 -1.6031 -0.8381  0.9315
30550SOL     OW96969  10.489   8.427  10.474 -0.5312 -0.6120 -0.1215
30550SOL    HW196970  10.423   8.491  10.447 -0.7964 -0.9640 -0.3228
30550SOL    HW296971  10.441   8.344  10.478 -0.1258 -0.8485 -0.1565
30551SOL     OW96972   3.054   6.778   4.396  0.1218 -0.1952 -0.7757
30551SOL    HW196973   3.058   6.735   4.482 -1.8548 -0.7411 -0.9162
30551SOL    HW296974   2.963   6.769   4.369 -0.9838  5.3872 -0.1411
30552SOL     OW96975   6.886   1.997   2.776 -0.4057 -0.1501 -0.1292
30552SOL    HW196976   6.924   1.986   2.689 -0.6914 -0.6269 -0.2006
30552SOL    HW296977   6.854   1.909   2.799 -1.1706  0.1670  0.0587
30553SOL     OW96978   8.791   5.668   1.774  0.4710  0.5119 -0.4142
30553SOL    HW196979   8.818   5.721   1.698  0.2449  0.8389 -0.2697
30553SOL    HW296980   8.862   5.605   1.786 -0.6021 -1.1900 -2.4273
30554SOL     OW96981   3.469   9.918   7.304  0.6021 -0.2836 -0.3214
30554SOL    HW196982   3.491   9.978   7.376  0.4637  1.1436 -1.4307
30554SOL    HW296983   3.548   9.866   7.292  1.1342  0.4525 -0.0862
30555SOL     OW96984  11.028   7.023   0.045  0.0753  0.3303  0.2431
30555SOL    HW196985  10.963   7.093   0.040  1.2620  1.6175  1.7078
30555SOL    HW296986  11.012   6.981   0.130 -0.9885 -1.6293 -0.8495
30556SOL     OW96987  11.577   1.154   2.203 -0.4513 -0.3519 -0.1708
30556SOL    HW196988  11.668   1.124   2.205 -0.0421  0.6818  3.2501
30556SOL    HW296989  11.584   1.250   2.211 -1.8364 -0.2659  0.2312
30557SOL     OW96990   6.374  11.765   7.831 -0.4338 -0.0625 -0.5332
30557SOL    HW196991   6.348  11.710   7.905 -1.5631  1.3348  0.1745
30557SOL    HW296992   6.331  11.849   7.848 -0.0807  0.5406 -2.3902
30558SOL     OW96993   5.800   5.171   4.931 -0.5231  0.3311 -0.1714
30558SOL    HW196994   5.793   5.166   4.836  1.4237  1.9898 -0.4748
30558SOL    HW296995   5.862   5.101   4.953  0.6404  1.2666 -0.3993
30559SOL     OW96996   1.448   6.715   6.592  0.3344  0.2923 -0.4960
30559SOL    HW196997   1.464   6.623   6.615 -0.4597  0.5628  1.3436
30559SOL    HW296998   1.427   6.713   6.499 -0.3243 -1.4849 -0.3567
30560SOL     OW96999   2.113   6.286   0.131 -0.0568  0.4003 -0.1701
30560SOL    HW197000   2.121   6.208   0.186 -1.2826 -0.4715 -1.1498
30560SOL    HW297001   2.113   6.359   0.192 -2.0259 -0.5551  1.0983
30561SOL     OW97002  11.650   2.069  10.802 -0.1134 -0.1848 -0.1571
30561SOL    HW197003  11.613   2.152  10.774  0.3532 -0.1324 -0.6400
30561SOL    HW297004  11.665   2.080  10.896  0.9372  0.6681 -0.4060
30562SOL     OW97005   0.056   1.818   6.728 -0.2781 -0.2113  0.3950
30562SOL    HW197006   0.096   1.895   6.768 -2.5704  1.2664  0.0747
30562SOL    HW297007   0.098   1.811   6.642 -0.1052  0.7605  0.3866
30563SOL     OW97008  11.473   7.801   0.087 -0.5252  0.3151 -0.1064
30563SOL    HW197009  11.442   7.780   0.176  0.6314 -2.2973 -0.2316
30563SOL    HW297010  11.393   7.803   0.034 -1.0464 -0.1842  0.6388
30564SOL     OW97011   7.629   7.612   6.679 -0.3380  0.1989 -0.0770
30564SOL    HW197012   7.607   7.705   6.671 -1.2177 -0.0723 -1.1810
30564SOL    HW297013   7.551   7.567   6.646 -1.0629 -1.0289  2.9871
30565SOL     OW97014  11.620   1.847   4.809 -0.1508 -0.2340  0.6219
30565SOL    HW197015  11.547   1.794   4.779  0.2872 -0.7060  0.3763
30565SOL    HW297016  11.593   1.880   4.894 -1.7719  1.8299 -0.5940
30566SOL     OW97017   5.628   0.906   6.622  0.0396  0.0991 -0.2090
30566SOL    HW197018   5.627   1.001   6.624 -0.1527  0.0865  0.5389
30566SOL    HW297019   5.536   0.881   6.616  0.0835 -0.0448 -0.2989
30567SOL     OW97020   4.768   2.549   6.026 -0.3106  0.0664 -0.3805
30567SOL    HW197021   4.686   2.543   5.977 -0.2043 -0.1199 -0.5428
30567SOL    HW297022   4.745   2.591   6.108 -0.5871 -0.0884 -0.3797
30568SOL     OW97023  10.220   1.319   7.083  0.4336 -0.0196  0.0958
30568SOL    HW197024  10.241   1.391   7.023  1.3883 -0.6339 -0.3209
30568SOL    HW297025  10.130   1.337   7.111  0.4406  0.9965 -0.4814
30569SOL     OW97026   9.860   6.556   3.924  0.0537  0.3259 -0.5063
30569SOL    HW197027   9.896   6.630   3.875  1.0431  1.6952  2.0686
30569SOL    HW297028   9.798   6.597   3.985 -1.0211 -1.2677 -0.4861
30570SOL     OW97029   7.436   7.525   4.012  0.8875 -0.0709  0.0336
30570SOL    HW197030   7.505   7.458   4.007  0.7896 -0.2314  0.7215
30570SOL    HW297031   7.452   7.570   4.094 -1.5947 -2.1284  1.8334
30571SOL     OW97032  11.301   8.987   4.814  0.1589  0.1569 -0.0514
30571SOL    HW197033  11.351   9.069   4.813 -2.9345  2.1725 -0.9799
30571SOL    HW297034  11.268   8.978   4.725  0.8524 -2.4718 -0.1189
30572SOL     OW97035   7.232   0.076   4.703  0.2782  0.4754 -0.3659
30572SOL    HW197036   7.151   0.124   4.683 -1.0437 -1.4653  0.1205
30572SOL    HW297037   7.298   0.145   4.714 -1.1168  2.0811 -1.5227
30573SOL     OW97038  11.790   4.855   0.095 -0.1274  0.0513  0.0416
30573SOL    HW197039  11.772   4.763   0.080 -1.9236  0.4736 -0.6920
30573SOL    HW297040  11.878   4.869   0.060 -0.9034 -0.8130 -2.4209
30574SOL     OW97041   7.437   0.202   1.926 -0.9043 -0.5521 -0.5484
30574SOL    HW197042   7.502   0.230   1.989 -0.3811 -0.9779 -0.8890
30574SOL    HW297043   7.355   0.199   1.975 -0.1485 -3.0439  0.7395
30575SOL     OW97044   2.402   8.246   3.839  0.4434 -0.0062  0.5967
30575SOL    HW197045   2.479   8.191   3.852  1.1954  0.4698 -1.3966
30575SOL    HW297046   2.437   8.334   3.827 -0.0813 -0.1358 -2.8497
30576SOL     OW97047   8.997   9.434   1.280 -0.1147 -0.2798 -0.2847
30576SOL    HW197048   9.049   9.354   1.288  0.8421  0.1303 -1.9737
30576SOL    HW297049   8.947   9.422   1.200  0.9727  1.2922 -1.2557
30577SOL     OW97050   5.123  11.376   7.823 -0.0194  0.0105  0.3466
30577SOL    HW197051   5.213  11.388   7.792 -0.6700 -0.0937 -1.7527
30577SOL    HW297052   5.123  11.289   7.863  0.9492  0.2880  0.9878
30578SOL     OW97053   0.205   9.833   7.183 -0.0061 -0.2131  0.0329
30578SOL    HW197054   0.258   9.765   7.142 -0.1095 -0.7123  0.7078
30578SOL    HW297055   0.149   9.786   7.245 -0.9831  0.3485 -0.4025
30579SOL     OW97056  10.751   0.106   0.189  0.0896 -0.0319 -0.3967
30579SOL    HW197057  10.724   0.181   0.241  0.6238 -1.1074  1.5034
30579SOL    HW297058  10.708   0.031   0.230 -0.1191 -0.8482 -2.0071
30580SOL     OW97059   8.889  11.487   1.688  0.0374 -0.1454 -0.1278
30580SOL    HW197060   8.796  11.504   1.674 -0.5548 -1.0127  2.2838
30580SOL    HW297061   8.911  11.421   1.622 -0.6224  1.1148 -1.6849
30581SOL     OW97062   6.640   9.249   7.182  0.4312 -0.3910 -0.2539
30581SOL    HW197063   6.610   9.228   7.094 -0.0794 -1.1035  0.0755
30581SOL    HW297064   6.560   9.256   7.234  0.7494 -0.6819  0.2944
30582SOL     OW97065   1.859   3.055  10.825 -0.6960 -0.1893 -0.8371
30582SOL    HW197066   1.896   3.137  10.791 -3.1946  0.8520 -1.2011
30582SOL    HW297067   1.765   3.070  10.830 -1.3288 -3.2471 -1.4279
30583SOL     OW97068   8.760   3.039   3.873 -0.6306 -0.0760  0.4132
30583SOL    HW197069   8.707   3.104   3.918  0.8897  0.8953  0.9044
30583SOL    HW297070   8.745   3.055   3.780  0.4216  1.6605  0.4965
30584SOL     OW97071   9.544   9.088   8.820 -0.2159  0.1655 -0.7166
30584SOL    HW197072   9.462   9.065   8.864 -1.0860  1.3767 -1.6500
30584SOL    HW297073   9.538   9.044   8.735  0.1140  0.2466 -0.7803
30585SOL     OW97074   6.147   2.226   9.196 -0.4420  0.1215 -0.4792
30585SOL    HW197075   6.239   2.209   9.214 -0.5365 -0.8121 -0.8543
30585SOL    HW297076   6.099   2.168   9.254 -0.7661 -0.7978 -1.6250
30586SOL     OW97077  11.305   6.309   8.197 -0.0649 -0.0864  0.4855
30586SOL    HW197078  11.377   6.372   8.195  0.3029 -0.4596 -2.4908
30586SOL    HW297079  11.226   6.362   8.190  0.0949  0.1822  0.7235
30587SOL     OW97080   9.896   9.638   8.742 -0.2573  0.2884  0.0680
30587SOL    HW197081   9.919   9.703   8.808 -0.4154  1.3059 -0.8534
30587SOL    HW297082   9.821   9.676   8.696 -0.8872 -0.9325  0.0544
30588SOL     OW97083   6.330   1.102   0.146  0.2368  0.7279  0.1320
30588SOL    HW197084   6.341   1.038   0.076  1.3814  1.3367 -0.2693
30588SOL    HW297085   6.338   1.051   0.227  0.8703  0.3180 -0.1856
30589SOL     OW97086   6.982  11.200   2.011  0.3961  0.3764  0.0699
30589SOL    HW197087   6.969  11.294   2.021  0.4874  0.6532 -2.0466
30589SOL    HW297088   7.053  11.192   1.948  0.3853 -1.1210  0.2127
30590SOL     OW97089  10.532   4.233   6.280  0.3141  0.2246  0.2340
30590SOL    HW197090  10.451   4.275   6.250  0.6103  0.8171  0.2473
30590SOL    HW297091  10.530   4.245   6.375  0.7463  0.8413  0.1673
30591SOL     OW97092   5.444   9.073  10.284 -0.4458  0.2505  0.2554
30591SOL    HW197093   5.454   8.998  10.225  1.2742  1.3937 -1.0108
30591SOL    HW297094   5.366   9.118  10.253  0.1888  0.5901 -0.9121
30592SOL     OW97095   9.331   5.423   4.424 -0.1502  0.2447 -0.3140
30592SOL    HW197096   9.282   5.459   4.350 -1.5733  1.7835  1.2566
30592SOL    HW297097   9.265   5.375   4.475  0.1480  1.4073  1.2610
30593SOL     OW97098  11.057   6.918   3.941  0.6123 -0.1470 -0.3635
30593SOL    HW197099  10.972   6.883   3.913  0.4074 -1.1294  1.3515
30593SOL    HW297100  11.039   6.961   4.025  1.5514  0.9480 -0.7033
30594SOL     OW97101   9.913   6.378   7.955 -0.3135  0.5099  0.5230
30594SOL    HW197102   9.970   6.325   7.900 -1.5073  0.6447 -0.9080
30594SOL    HW297103   9.924   6.343   8.043  1.4833  0.1474  0.1825
30595SOL     OW97104   8.162   2.780  10.714 -0.1940 -0.1081 -0.2830
30595SOL    HW197105   8.085   2.826  10.748  0.1313 -0.2639  0.6954
30595SOL    HW297106   8.175   2.707  10.775  0.6051 -0.1952 -0.5547
30596SOL     OW97107   8.361   9.434   2.254 -0.1452 -0.1260  0.1396
30596SOL    HW197108   8.343   9.417   2.347 -1.0548  0.7693  0.1399
30596SOL    HW297109   8.443   9.483   2.254 -0.1797 -0.0657  0.4750
30597SOL     OW97110   5.401  11.126   1.848 -0.3353 -0.0692 -0.6147
30597SOL    HW197111   5.331  11.149   1.909  0.5188 -0.7911  0.6858
30597SOL    HW297112   5.410  11.031   1.857 -0.0386 -0.1648 -1.7320
30598SOL     OW97113   8.028   4.114  10.834  0.0689  0.0871 -0.0535
30598SOL    HW197114   8.098   4.113  10.899 -0.4045 -1.5816  0.4800
30598SOL    HW297115   8.071   4.135  10.752  0.9350  0.6114  0.5181
30599SOL     OW97116   3.357   2.069   9.375 -0.0683  0.3094  0.2282
30599SOL    HW197117   3.435   2.026   9.340 -0.5433 -0.1752 -0.2450
30599SOL    HW297118   3.387   2.156   9.400  0.1912  0.8746 -1.8735
30600SOL     OW97119  10.715  10.241   3.791  0.3228 -0.3277  0.6427
30600SOL    HW197120  10.689  10.168   3.848 -0.2169 -1.2249 -0.7062
30600SOL    HW297121  10.787  10.284   3.838 -1.4009  0.2370  2.9743
30601SOL     OW97122   9.823   2.282   0.940  0.3783  0.5465  0.1147
30601SOL    HW197123   9.838   2.210   1.002  1.3307  0.4738 -0.1707
30601SOL    HW297124   9.812   2.359   0.995  0.7381  0.4040  0.3969
30602SOL     OW97125   1.405   0.075  10.366 -0.1497 -0.1094 -0.5371
30602SOL    HW197126   1.326   0.023  10.377  1.1306 -1.8223  1.6121
30602SOL    HW297127   1.393   0.150  10.425 -0.4760  0.0335 -0.7849
30603SOL     OW97128   9.225  10.402   4.945 -0.1539  0.2406  0.2207
30603SOL    HW197129   9.284  10.342   4.992 -0.2861 -0.5990 -0.6621
30603SOL    HW297130   9.137  10.373   4.971 -0.2980 -1.3516 -1.7970
30604SOL     OW97131   8.086   4.783   0.918  0.0327  0.5297 -0.2034
30604SOL    HW197132   7.993   4.770   0.899  0.3877 -1.0695 -1.0138
30604SOL    HW297133   8.131   4.740   0.846  1.4314  3.0452 -0.9116
30605SOL     OW97134   8.930   2.993   5.634  0.0330  0.0098 -0.0208
30605SOL    HW197135   8.996   3.057   5.608 -0.9401  1.3387  0.6826
30605SOL    HW297136   8.891   2.965   5.551  1.6216 -1.0299 -0.4823
30606SOL     OW97137   6.994  11.480   6.851  0.0934 -0.5157  0.5781
30606SOL    HW197138   7.001  11.445   6.762 -0.9902  0.0529  0.2616
30606SOL    HW297139   6.968  11.571   6.840 -2.1707 -0.9778  1.4944
30607SOL     OW97140   2.548   1.526   5.035 -0.5449  0.4394 -0.0587
30607SOL    HW197141   2.471   1.526   5.093 -0.6455 -1.8561 -0.0986
30607SOL    HW297142   2.587   1.439   5.047  0.5112  0.5888 -2.0397
30608SOL     OW97143  11.647   0.971   7.342  0.2083  0.8391 -0.1689
30608SOL    HW197144  11.578   0.921   7.300  1.1718  0.1343 -0.9527
30608SOL    HW297145  11.624   1.062   7.325 -1.4311  0.6974  1.0651
30609SOL     OW97146   2.242   6.864  10.976 -0.1453  0.3636  0.2875
30609SOL    HW197147   2.166   6.876  11.032 -0.1617  1.8549 -0.0166
30609SOL    HW297148   2.207   6.855  10.887  0.0376  2.5090 -0.0581
30610SOL     OW97149   1.640   8.001   6.269  0.5901 -0.2728  0.4567
30610SOL    HW197150   1.708   7.977   6.331  0.5864 -0.8155  0.2582
30610SOL    HW297151   1.573   7.933   6.278  0.6516 -0.4338 -0.2348
30611SOL     OW97152   2.086  11.617   6.953 -0.4437 -0.2302  0.4430
30611SOL    HW197153   2.174  11.621   6.914 -0.4059  0.8006  0.6127
30611SOL    HW297154   2.042  11.695   6.920 -1.0898 -0.4152  0.8629
30612SOL     OW97155   9.278   1.983  11.162 -0.0529 -0.1508  0.3289
30612SOL    HW197156   9.232   2.014  11.084 -0.4425 -0.5522  0.3975
30612SOL    HW297157   9.288   2.061  11.217  1.2234  0.3726 -0.6047
30613SOL     OW97158   4.804   4.803   6.671 -0.5505  0.6719 -0.1276
30613SOL    HW197159   4.864   4.768   6.737 -0.0825  0.1191 -0.8383
30613SOL    HW297160   4.718   4.800   6.713 -0.3871 -0.4784  0.1636
30614SOL     OW97161   7.870  11.107   7.391 -0.2783  0.5393 -0.2618
30614SOL    HW197162   7.857  11.017   7.361  1.7108  0.4353 -0.9755
30614SOL    HW297163   7.789  11.129   7.437 -0.5467 -1.8587  0.5634
30615SOL     OW97164   6.584   4.350   3.189  0.2029  0.3973  0.1710
30615SOL    HW197165   6.560   4.404   3.264  0.2556  0.1802  0.3419
30615SOL    HW297166   6.680   4.347   3.191  0.1860 -2.6405  2.2469
30616SOL     OW97167   6.440   7.232   7.868 -0.4703 -0.3509  0.4396
30616SOL    HW197168   6.386   7.164   7.907 -0.5942 -0.6990 -0.3336
30616SOL    HW297169   6.496   7.186   7.805  0.1791  0.1145  0.6566
30617SOL     OW97170   3.320   5.554   7.054 -0.5059 -0.3848 -0.1042
30617SOL    HW197171   3.250   5.514   7.003  0.0488 -0.6315 -0.6942
30617SOL    HW297172   3.333   5.495   7.128  0.6598 -1.6191 -1.2456
30618SOL     OW97173   8.474   7.975  11.119 -0.0996 -0.3542 -0.3051
30618SOL    HW197174   8.430   8.053  11.083 -1.7232 -0.4405  1.3501
30618SOL    HW297175   8.549   7.962  11.061 -2.0255  0.0293 -3.1335
30619SOL     OW97176   3.479   2.710   0.548 -0.4593  0.6825 -0.8572
30619SOL    HW197177   3.514   2.624   0.569 -2.3506 -0.0750 -0.6190
30619SOL    HW297178   3.515   2.730   0.461  0.6014 -0.0009 -0.5836
30620SOL     OW97179   2.534   3.712   7.023  0.1410  0.1869  0.1607
30620SOL    HW197180   2.576   3.626   7.032 -1.9581 -0.7864  1.4485
30620SOL    HW297181   2.590   3.772   7.072  0.5735 -0.8525  0.9670
30621SOL     OW97182   2.487  10.927   5.885  0.2000  0.0202 -0.5464
30621SOL    HW197183   2.492  11.004   5.828  0.2636  0.3829 -0.0576
30621SOL    HW297184   2.442  10.959   5.963 -0.5219 -0.6462 -0.6744
30622SOL     OW97185   2.129   5.992   1.211 -0.2776  0.1765 -0.0861
30622SOL    HW197186   2.205   6.000   1.270  0.2048  0.1432 -0.6925
30622SOL    HW297187   2.116   6.080   1.176  1.5186 -0.3884 -2.4414
30623SOL     OW97188   9.527   4.942   2.038  0.2275 -0.0716 -0.1375
30623SOL    HW197189   9.476   5.008   2.085 -0.9894 -0.8205 -0.3683
30623SOL    HW297190   9.537   4.870   2.101 -0.5466 -0.6630 -0.6747
30624SOL     OW97191   2.638   7.900   3.251 -0.0395  0.3789  0.2818
30624SOL    HW197192   2.558   7.944   3.222  0.3554  0.5852 -0.5179
30624SOL    HW297193   2.608   7.816   3.285 -0.4388 -0.3339 -1.7389
30625SOL     OW97194   8.753   7.709   8.292 -0.3299  0.3290 -0.7541
30625SOL    HW197195   8.772   7.700   8.385 -0.9705  0.4508 -0.6046
30625SOL    HW297196   8.817   7.772   8.260 -0.6341  0.9188 -0.2159
30626SOL     OW97197  10.083   2.859   9.366 -0.0789  0.4903  0.1201
30626SOL    HW197198  10.166   2.817   9.342 -0.2623 -0.1110  0.4966
30626SOL    HW297199  10.107   2.948   9.392  0.2935  0.7001 -0.9008
30627SOL     OW97200   9.125   3.883   8.083 -0.1575  0.3770  0.2516
30627SOL    HW197201   9.116   3.795   8.046  2.8819  0.6891 -1.5920
30627SOL    HW297202   9.082   3.940   8.019  0.3166  0.4447 -0.0133
30628SOL     OW97203   5.691  11.516   0.362 -0.2506 -1.1560  0.0684
30628SOL    HW197204   5.606  11.482   0.390  0.4090 -2.4743  0.5828
30628SOL    HW297205   5.754  11.461   0.408  0.8853 -1.0741 -1.3327
30629SOL     OW97206   2.048   4.822   3.598 -0.4037 -0.3033  0.4960
30629SOL    HW197207   2.038   4.890   3.665 -2.2538  0.3516 -0.3705
30629SOL    HW297208   1.958   4.797   3.576  0.2026 -1.6520 -0.6148
30630SOL     OW97209  11.740   0.366   1.058 -0.0211 -0.2503 -0.1166
30630SOL    HW197210  11.787   0.283   1.051 -0.5938 -0.5009 -1.3022
30630SOL    HW297211  11.761   0.412   0.977  0.9339  1.1348  0.8721
30631SOL     OW97212   9.425   7.399   6.792 -0.0573 -0.0196 -0.3909
30631SOL    HW197213   9.461   7.483   6.763 -0.9912  0.2867 -0.6882
30631SOL    HW297214   9.425   7.405   6.888  2.7029 -0.8919 -0.2443
30632SOL     OW97215   0.359   5.739  11.190  0.2495 -0.0457 -0.4099
30632SOL    HW197216   0.344   5.710  11.100 -0.2051 -3.0820  0.5170
30632SOL    HW297217   0.274   5.728  11.233  1.0696 -1.2402  0.9974
30633SOL     OW97218   3.080   4.818   0.904 -0.3921  0.4664  0.1588
30633SOL    HW197219   3.113   4.776   0.983  0.4949  0.4903 -0.1858
30633SOL    HW297220   3.127   4.902   0.900  0.4623 -0.0397 -1.0007
30634SOL     OW97221   5.458  10.519   7.699 -0.0204  0.3408  0.3662
30634SOL    HW197222   5.474  10.442   7.645  0.3785  1.4885 -1.2362
30634SOL    HW297223   5.544  10.543   7.734 -0.1674  0.0006  0.9859
30635SOL     OW97224   1.197  10.406   6.692 -0.3922 -0.3111 -0.2148
30635SOL    HW197225   1.214  10.385   6.783  1.8791 -0.0912 -0.5255
30635SOL    HW297226   1.120  10.355   6.669 -0.7408 -0.7061  1.6883
30636SOL     OW97227   1.224   2.414   0.951  0.3623  0.4119 -0.2106
30636SOL    HW197228   1.221   2.319   0.940  1.5813  0.4588 -1.1531
30636SOL    HW297229   1.135   2.438   0.974 -0.4094 -0.7564 -1.7947
30637SOL     OW97230   3.051   1.447   7.713  0.2722  0.0752  0.0817
30637SOL    HW197231   3.125   1.399   7.675 -0.1709 -0.1679 -0.4849
30637SOL    HW297232   3.033   1.516   7.649  0.3692  0.4903  0.4954
30638SOL     OW97233   1.859   9.905   2.956  0.3372 -0.3473 -0.4323
30638SOL    HW197234   1.822   9.914   3.043  0.9933  0.3454 -0.2181
30638SOL    HW297235   1.951   9.886   2.971  0.6145  0.5142 -0.9726
30639SOL     OW97236   6.032   5.022   3.576 -0.2959  1.0158 -0.0711
30639SOL    HW197237   5.964   4.965   3.540  1.4361 -0.9261 -0.4526
30639SOL    HW297238   6.021   5.015   3.671  1.1363 -1.7401 -0.0073
30640SOL     OW97239   7.128  10.233  10.095  0.4201 -0.3040 -0.7591
30640SOL    HW197240   7.193  10.304  10.100  0.4791 -0.3651 -0.6672
30640SOL    HW297241   7.075  10.256  10.019  0.9443 -0.5890 -1.2229
30641SOL     OW97242   7.241  10.449  11.511  0.3440 -0.1375 -0.1253
30641SOL    HW197243   7.240  10.433  11.605 -1.4388  0.5906  0.0025
30641SOL    HW297244   7.151  10.438  11.483  0.6752  0.5891 -1.5896
30642SOL     OW97245   2.417   3.196   4.485  0.3420 -0.2035  0.5824
30642SOL    HW197246   2.408   3.266   4.549 -0.2518 -0.6816  1.0444
30642SOL    HW297247   2.506   3.204   4.452  0.4069  0.5183  0.9227
30643SOL     OW97248   4.134  10.597   9.638  0.4939  0.3893  0.3791
30643SOL    HW197249   4.229  10.593   9.625  0.6794  3.5696  0.0187
30643SOL    HW297250   4.124  10.650   9.717 -0.9615  2.3398 -1.0272
30644SOL     OW97251   1.079   7.826   0.343 -0.5997 -0.1951 -0.5941
30644SOL    HW197252   1.004   7.864   0.389 -1.1557 -0.4434 -1.2773
30644SOL    HW297253   1.055   7.734   0.330  0.8762 -0.9388  1.3597
30645SOL     OW97254   9.927   9.138   1.518  0.1454  0.2217 -0.9420
30645SOL    HW197255   9.872   9.214   1.538  0.6223  0.7006 -1.4147
30645SOL    HW297256   9.879   9.064   1.554 -0.4282  0.7219 -0.6499
30646SOL     OW97257   6.192   1.299   9.869  0.1804 -0.3576 -0.4731
30646SOL    HW197258   6.228   1.322   9.783  0.9858  0.1281 -0.0220
30646SOL    HW297259   6.103   1.270   9.851  0.8000 -1.6586 -1.6507
30647SOL     OW97260   4.848   0.184  10.907  0.2913 -0.1507  0.1384
30647SOL    HW197261   4.892   0.102  10.888 -0.0673 -0.6726  1.4528
30647SOL    HW297262   4.866   0.239  10.831  0.8010 -1.3260 -0.6197
30648SOL     OW97263   1.765   9.076   3.893  0.2435  0.0005 -0.0573
30648SOL    HW197264   1.698   9.114   3.948  0.6385 -0.1498  0.5447
30648SOL    HW297265   1.801   9.149   3.843  0.4804  0.2904  0.5322
30649SOL     OW97266  11.151   8.896   5.891 -0.1137  0.2315  0.2656
30649SOL    HW197267  11.233   8.943   5.901  0.0823 -0.0751  0.0928
30649SOL    HW297268  11.108   8.938   5.817  0.6099 -0.6402 -0.6811
30650SOL     OW97269  10.983   4.022   8.853 -0.6209 -0.0882 -0.1732
30650SOL    HW197270  11.007   4.062   8.769  1.2722  0.3945  0.5463
30650SOL    HW297271  10.999   4.091   8.918 -1.2082 -0.7352  0.6793
30651SOL     OW97272   0.251  10.854   5.195 -0.7724 -0.0299  0.5051
30651SOL    HW197273   0.200  10.921   5.240 -0.8996  0.5609 -0.4959
30651SOL    HW297274   0.295  10.806   5.265  0.6292  2.1102  1.1975
30652SOL     OW97275   3.532   3.879  10.428  0.3331 -0.0135 -0.6801
30652SOL    HW197276   3.618   3.846  10.403  0.6451  0.4667 -0.2572
30652SOL    HW297277   3.504   3.932  10.353  0.5404  0.0848 -0.6880
30653SOL     OW97278   0.704  10.249  10.112 -0.6672 -0.3142  0.4435
30653SOL    HW197279   0.622  10.295  10.092 -2.3748 -3.1086  0.5189
30653SOL    HW297280   0.737  10.220  10.027  0.7853  1.5144  0.3222
30654SOL     OW97281   9.123  11.520   5.188  0.4745 -0.0250 -0.0745
30654SOL    HW197282   9.086  11.434   5.171  0.6321 -0.2710  0.7607
30654SOL    HW297283   9.212  11.515   5.153  1.0813 -0.8001  1.4947
30655SOL     OW97284   4.519   8.850   9.050  0.2439  0.1388 -0.5909
30655SOL    HW197285   4.525   8.758   9.074 -1.0832  0.1103 -0.2716
30655SOL    HW297286   4.470   8.851   8.968 -2.8142  0.6720  1.0691
30656SOL     OW97287   9.112   1.682   9.194  0.2351  0.4895 -0.2711
30656SOL    HW197288   9.148   1.639   9.117  0.9024  0.4238  0.0647
30656SOL    HW297289   9.185   1.736   9.227 -0.9596  3.0162 -1.4934
30657SOL     OW97290   3.930   6.941  10.757  0.5216 -0.3288  0.3809
30657SOL    HW197291   3.967   7.026  10.781  0.0043  0.2183 -0.6799
30657SOL    HW297292   3.842   6.960  10.725 -0.6806 -1.5930  2.6920
30658SOL     OW97293   2.205  10.792   2.896 -0.5048 -0.9466  0.0926
30658SOL    HW197294   2.177  10.874   2.856  0.1764 -0.2254  1.0546
30658SOL    HW297295   2.247  10.818   2.978 -3.4028 -2.4567  2.2230
30659SOL     OW97296   1.576  11.648  10.746  0.7095 -0.1461 -0.2097
30659SOL    HW197297   1.604  11.558  10.728  2.3749  0.1938  0.5034
30659SOL    HW297298   1.498  11.638  10.801 -0.4089 -1.1283 -1.9077
30660SOL     OW97299   8.300  11.292   4.105  0.7722  0.1352  0.3046
30660SOL    HW197300   8.370  11.227   4.097 -0.0760 -0.6343 -1.2135
30660SOL    HW297301   8.333  11.354   4.170  2.0060 -1.2949  1.1179
30661SOL     OW97302   8.912   2.978   0.110  0.2600  0.8176 -0.1176
30661SOL    HW197303   8.849   2.958   0.041  0.1474  1.2392 -0.1407
30661SOL    HW297304   8.910   2.902   0.168 -0.0702  0.7114 -0.2679
30662SOL     OW97305   5.676   4.608   3.791  0.6781 -0.1183 -0.0990
30662SOL    HW197306   5.616   4.549   3.746  1.8106 -2.4369  1.1947
30662SOL    HW297307   5.760   4.561   3.791  1.2099  0.6331  2.5853
30663SOL     OW97308   0.936  11.378  11.737  0.4180  0.0626  0.0408
30663SOL    HW197309   0.905  11.392  11.648  0.0260 -0.8290  0.0311
30663SOL    HW297310   1.031  11.388  11.732  0.4633 -0.6828 -0.6100
30664SOL     OW97311   6.181   1.563   4.575 -0.1211  0.2865  0.1902
30664SOL    HW197312   6.175   1.528   4.664 -0.8609  0.6477  0.2907
30664SOL    HW297313   6.197   1.486   4.521  1.0706  0.1478  0.7015
30665SOL     OW97314   9.758   8.924   7.082 -0.0150  0.4606  0.2273
30665SOL    HW197315   9.836   8.900   7.032 -0.5634  1.4938 -1.1973
30665SOL    HW297316   9.748   8.854   7.146  0.5336 -1.1021 -1.3271
30666SOL     OW97317   5.761   8.699   9.053  0.2138  0.6086 -0.8760
30666SOL    HW197318   5.734   8.681   8.963 -1.1794  0.2318 -0.4085
30666SOL    HW297319   5.819   8.626   9.076  0.7320  0.8099 -1.5230
30667SOL     OW97320  11.073   8.351   0.632  0.3682 -0.2958 -0.1441
30667SOL    HW197321  11.068   8.400   0.550 -0.3955 -0.7101 -0.3594
30667SOL    HW297322  11.087   8.260   0.606 -0.4288 -0.5153  0.1472
30668SOL     OW97323   4.349   4.144  11.509  0.1964  0.1568  0.0593
30668SOL    HW197324   4.352   4.239  11.498  1.8380 -0.0166 -1.5538
30668SOL    HW297325   4.307   4.113  11.429  3.4702 -0.6357 -1.5247
30669SOL     OW97326   0.274   6.563  11.438 -0.2689  0.0924  0.3370
30669SOL    HW197327   0.315   6.523  11.515  0.1678 -0.3171 -0.1084
30669SOL    HW297328   0.340   6.622  11.403 -0.8896  1.1775  0.9529
30670SOL     OW97329   8.508   6.632   8.005 -0.4644  0.3833  0.6594
30670SOL    HW197330   8.587   6.594   7.970  0.6060  2.7655  0.3004
30670SOL    HW297331   8.510   6.611   8.099  0.2626 -0.0847  0.5379
30671SOL     OW97332  10.522   0.742   3.138  0.0374  0.3677 -0.2167
30671SOL    HW197333  10.489   0.787   3.060 -0.5009 -1.6664 -1.2201
30671SOL    HW297334  10.443   0.723   3.189  0.2423  0.3783  0.1080
30672SOL     OW97335   8.555   4.127   3.545  0.4119  0.2528 -1.1996
30672SOL    HW197336   8.564   4.202   3.486  1.4709  0.3860 -0.8827
30672SOL    HW297337   8.528   4.166   3.628  0.8677  0.2843 -1.0618
30673SOL     OW97338   8.079   1.537   0.606 -0.1156 -0.2565  0.1598
30673SOL    HW197339   8.112   1.625   0.628 -0.4695  0.6159 -2.4460
30673SOL    HW297340   8.009   1.553   0.543 -0.2190 -2.4231 -0.3441
30674SOL     OW97341   0.912   3.322   6.841 -0.2780  0.1759  0.0451
30674SOL    HW197342   0.997   3.314   6.798 -1.1954 -1.2253 -1.6483
30674SOL    HW297343   0.862   3.247   6.809 -1.5895 -0.0320  2.3765
30675SOL     OW97344  10.171   4.354   9.809 -0.9484 -0.4935  0.0593
30675SOL    HW197345  10.091   4.315   9.772 -0.8743  0.2005 -0.8898
30675SOL    HW297346  10.229   4.364   9.733 -0.5456  0.4130  0.4837
30676SOL     OW97347   7.350   1.789   8.031  0.2323 -0.2896 -0.5850
30676SOL    HW197348   7.273   1.753   7.987 -0.3730  0.2745 -0.0068
30676SOL    HW297349   7.404   1.824   7.960 -1.3917  1.8990 -0.8360
30677SOL     OW97350   2.189   3.624   3.101  0.4193  0.1214 -0.5270
30677SOL    HW197351   2.202   3.530   3.109 -1.1511 -0.1460 -0.8458
30677SOL    HW297352   2.276   3.662   3.115  0.7695 -1.2515  1.4879
30678SOL     OW97353   5.029   4.071   1.698  0.3092  0.0296  0.2062
30678SOL    HW197354   5.082   4.129   1.644  0.3230  1.6196  1.8343
30678SOL    HW297355   5.055   4.091   1.788 -1.4941 -0.6960  0.9345
30679SOL     OW97356  11.595   4.952   5.203  0.1799 -0.1988 -0.2159
30679SOL    HW197357  11.617   5.007   5.128  1.7407  0.1249  0.4425
30679SOL    HW297358  11.502   4.968   5.218 -0.0553  0.0773 -1.7753
30680SOL     OW97359   8.447   5.395   3.651 -0.4778  0.3296 -0.1304
30680SOL    HW197360   8.419   5.459   3.585 -1.0260  0.6770  0.4306
30680SOL    HW297361   8.366   5.357   3.684 -0.1127 -2.3225 -2.0201
30681SOL     OW97362  10.661   5.537   0.268 -0.0020 -0.0225 -0.2580
30681SOL    HW197363  10.618   5.466   0.220  0.4496  0.7274 -1.8413
30681SOL    HW297364  10.675   5.605   0.203  2.5134  0.2365  0.4582
30682SOL     OW97365   3.576   3.670   3.895 -0.0449 -0.5132 -0.1839
30682SOL    HW197366   3.661   3.655   3.936 -0.1683 -2.7463 -0.5927
30682SOL    HW297367   3.579   3.619   3.814 -1.5182 -0.0648 -0.5651
30683SOL     OW97368  11.332   7.110   4.208 -0.5499 -0.4944 -0.2826
30683SOL    HW197369  11.410   7.099   4.261 -1.5166 -0.5419  1.1864
30683SOL    HW297370  11.303   7.200   4.226 -1.4869 -0.8691  0.1225
30684SOL     OW97371   6.884   5.569   7.737 -0.2213  0.1887 -0.4610
30684SOL    HW197372   6.955   5.634   7.738  1.1945 -1.2561 -1.6069
30684SOL    HW297373   6.816   5.608   7.683 -0.9602  2.1945  1.7527
30685SOL     OW97374   6.801   0.740   1.781  0.6783  0.1577 -0.1484
30685SOL    HW197375   6.806   0.767   1.873  1.3207 -0.4979  0.0184
30685SOL    HW297376   6.806   0.821   1.731  0.4027  0.5126  0.3887
30686SOL     OW97377   8.250   5.958   8.218 -0.0181 -0.1864  0.0644
30686SOL    HW197378   8.229   6.036   8.166 -0.6879 -2.1906 -2.9356
30686SOL    HW297379   8.166   5.930   8.254  0.3448  0.8488  1.7812
30687SOL     OW97380  10.797   4.654   4.529 -0.4866 -0.3192 -0.0916
30687SOL    HW197381  10.892   4.646   4.542 -0.4107  0.8262  0.2128
30687SOL    HW297382  10.788   4.718   4.459 -1.0365 -0.3278 -0.0315
30688SOL     OW97383   2.295   2.292   8.868  0.1322 -0.1434 -0.1013
30688SOL    HW197384   2.300   2.387   8.873 -3.0217  0.1978 -1.5892
30688SOL    HW297385   2.320   2.271   8.778  0.2161 -0.6790  0.0407
30689SOL     OW97386   3.952   2.720   8.117 -0.2651  0.2285 -0.3131
30689SOL    HW197387   3.911   2.802   8.145 -1.2768 -0.4258  0.1778
30689SOL    HW297388   4.010   2.745   8.045  0.2178  1.5254  0.5020
30690SOL     OW97389  10.878   4.554   7.499 -0.3909 -0.2223  0.2480
30690SOL    HW197390  10.836   4.476   7.464  0.0674 -0.6257  0.5866
30690SOL    HW297391  10.814   4.624   7.483  0.2216 -0.1508 -2.3926
30691SOL     OW97392   7.529  10.429  11.518 -0.2357 -0.4134  0.1761
30691SOL    HW197393   7.535  10.338  11.547  1.3430 -0.5123 -0.3562
30691SOL    HW297394   7.435  10.448  11.518 -0.5583 -1.8481  0.8531
30692SOL     OW97395   6.960  11.727   4.834 -0.2017 -0.1534 -0.2466
30692SOL    HW197396   6.919  11.795   4.888  1.2222  1.6540 -1.3246
30692SOL    HW297397   7.054  11.738   4.848  0.2222  0.2512 -2.8339
30693SOL     OW97398   2.931   2.225   8.578 -0.3888  0.1378 -0.2010
30693SOL    HW197399   2.952   2.311   8.615 -1.0311  0.7817 -1.2699
30693SOL    HW297400   2.880   2.245   8.499 -3.0288 -1.2567  1.0066
30694SOL     OW97401   5.749   7.381   7.688  0.6222 -1.1159 -0.1384
30694SOL    HW197402   5.823   7.328   7.658  2.3144  0.3638  1.1807
30694SOL    HW297403   5.749   7.369   7.783  0.9156  1.0343  0.1618
30695SOL     OW97404   7.593   8.346  10.604 -0.4246  0.5947  0.5611
30695SOL    HW197405   7.538   8.290  10.657 -0.1078  0.0745  0.3487
30695SOL    HW297406   7.589   8.308  10.516 -0.6188  1.2059  0.2942
30696SOL     OW97407   0.112  11.392   5.744 -0.2109 -0.2752  0.0323
30696SOL    HW197408   0.164  11.321   5.708  0.6692  0.2989  0.1545
30696SOL    HW297409   0.068  11.431   5.668  0.6532  0.1361 -0.2653
30697SOL     OW97410   5.252   8.556  10.087  0.2791  0.0847  0.3208
30697SOL    HW197411   5.234   8.592  10.174  2.5541 -0.2456  1.0033
30697SOL    HW297412   5.270   8.464  10.102  1.9034  0.2673 -0.2732
30698SOL     OW97413   3.769   1.845   6.263 -0.6607  0.2092 -0.0586
30698SOL    HW197414   3.720   1.859   6.344 -0.7584  0.2088 -0.1176
30698SOL    HW297415   3.715   1.783   6.213 -0.4521 -0.0303  0.0095
30699SOL     OW97416  10.065   8.056   7.971 -0.5105 -0.9866  0.7760
30699SOL    HW197417   9.990   8.037   8.028 -2.4016  0.7435 -0.9516
30699SOL    HW297418  10.028   8.058   7.883  1.7859 -0.9939 -0.2587
30700SOL     OW97419  11.332   7.126   3.293 -0.0931 -0.2157 -0.2872
30700SOL    HW197420  11.372   7.152   3.375 -1.3687  2.6299 -0.4634
30700SOL    HW297421  11.279   7.049   3.315  0.1755  0.0455  1.3679
30701SOL     OW97422   6.317   4.703   8.703 -0.7897 -0.1502  0.1578
30701SOL    HW197423   6.320   4.625   8.759  0.0190  0.1005  0.4794
30701SOL    HW297424   6.390   4.691   8.642 -0.9524  0.1374 -0.0976
30702SOL     OW97425  10.036   0.560   3.039 -0.3816  0.0867  0.3295
30702SOL    HW197426  10.113   0.561   2.981 -0.2717  0.7231  0.4752
30702SOL    HW297427  10.025   0.468   3.063  2.4323  0.3287  3.1024
30703SOL     OW97428   7.899   7.981   5.315 -0.1154 -0.1991 -0.0063
30703SOL    HW197429   7.833   8.047   5.296 -0.5381 -1.0471 -1.6394
30703SOL    HW297430   7.928   7.949   5.230  0.4742 -1.7372  0.7203
30704SOL     OW97431   8.149   3.475   3.066 -0.1174  0.1160  0.1501
30704SOL    HW197432   8.096   3.534   3.013  0.0158  0.0151 -0.0992
30704SOL    HW297433   8.108   3.476   3.152  0.6566  1.5963  0.5322
30705SOL     OW97434   9.818   4.157   5.635  0.4140  0.5582 -0.1163
30705SOL    HW197435   9.805   4.172   5.729  0.0212  0.5632 -0.1724
30705SOL    HW297436   9.766   4.080   5.615  1.4831 -0.1915 -0.0847
30706SOL     OW97437   2.746   6.100   0.358 -0.2227 -0.1167 -0.1209
30706SOL    HW197438   2.741   6.176   0.415  1.5893  0.2423 -0.3763
30706SOL    HW297439   2.716   6.027   0.413  0.4867  0.3786  0.9667
30707SOL     OW97440   6.572   5.018   0.652  0.0095 -0.1071  0.3855
30707SOL    HW197441   6.617   5.102   0.652 -1.1030  0.5245 -0.7909
30707SOL    HW297442   6.511   5.023   0.726  0.4327 -0.1681  0.7421
30708SOL     OW97443   4.577   4.538   6.630 -0.0179  0.1332 -0.2688
30708SOL    HW197444   4.619   4.452   6.626 -0.8388 -0.2279 -2.2254
30708SOL    HW297445   4.609   4.584   6.553 -0.5997  1.0887  0.0457
30709SOL     OW97446   4.565   1.018   9.505 -0.2015 -0.2787  0.6716
30709SOL    HW197447   4.545   0.930   9.475 -0.3512  0.3376 -1.1545
30709SOL    HW297448   4.561   1.012   9.600 -1.6770 -1.8988  0.5658
30710SOL     OW97449   7.539   4.790   5.621  0.8297 -0.1117 -0.0892
30710SOL    HW197450   7.620   4.834   5.597 -0.0713  0.6777 -1.8906
30710SOL    HW297451   7.544   4.705   5.578  0.7841 -0.1496 -0.0209
30711SOL     OW97452   4.945  10.623   2.169 -0.9767 -0.7679 -0.4066
30711SOL    HW197453   4.996  10.552   2.209  0.5133 -0.3252 -1.4318
30711SOL    HW297454   4.935  10.597   2.078 -0.1356  0.4433 -0.8778
30712SOL     OW97455   9.317   0.173   2.257 -0.4570 -0.0791 -0.5070
30712SOL    HW197456   9.304   0.215   2.342 -0.3596 -1.2291  0.0958
30712SOL    HW297457   9.411   0.159   2.251 -0.2940  1.2532 -1.4421
30713SOL     OW97458   6.353   0.258   4.488 -0.2734 -0.1653  0.2369
30713SOL    HW197459   6.279   0.319   4.488 -0.0871  0.0764  1.3182
30713SOL    HW297460   6.318   0.178   4.526 -0.2111 -0.3536 -0.1006
30714SOL     OW97461   9.285   1.403   6.254 -0.0186 -0.1968 -0.2699
30714SOL    HW197462   9.368   1.393   6.208  1.4315  1.2891  1.8195
30714SOL    HW297463   9.250   1.486   6.222 -0.4912 -0.6141 -0.8393
30715SOL     OW97464   6.762  11.339   1.786  0.0261 -0.1155 -0.2266
30715SOL    HW197465   6.730  11.254   1.817 -1.3088 -0.2656 -1.8532
30715SOL    HW297466   6.684  11.386   1.758  0.9420  0.7160 -1.5547
30716SOL     OW97467   9.454   3.448   1.996  0.1079  0.2051  0.0934
30716SOL    HW197468   9.476   3.405   1.913 -1.2217 -0.3509  0.0003
30716SOL    HW297469   9.508   3.526   1.998  0.4123  0.0422 -1.1385
30717SOL     OW97470   5.722   0.978   8.671 -0.4838  0.2269  0.0001
30717SOL    HW197471   5.738   1.054   8.727  0.0994  0.5354 -0.5553
30717SOL    HW297472   5.656   0.927   8.716 -0.1903  0.5844  0.8506
30718SOL     OW97473  11.386   1.885   2.544  0.3464  0.0798  0.0768
30718SOL    HW197474  11.307   1.835   2.565  0.7664  0.2759  2.3745
30718SOL    HW297475  11.358   1.976   2.549  0.4385  0.1374 -0.4133
30719SOL     OW97476   2.539   4.464  10.772  0.1794 -0.3026 -0.2228
30719SOL    HW197477   2.445   4.466  10.792  0.2628 -0.5484  0.2135
30719SOL    HW297478   2.550   4.526  10.700 -0.7834 -2.3984 -2.3171
30720SOL     OW97479   0.096   9.356   9.521 -0.0685 -0.2017 -0.2574
30720SOL    HW197480   0.131   9.406   9.594 -0.2715  1.5524 -1.3221
30720SOL    HW297481   0.098   9.416   9.446 -1.5568 -1.3429 -1.2803
30721SOL     OW97482  11.350  10.764  11.000  0.1578 -0.4015 -0.0098
30721SOL    HW197483  11.296  10.803  11.069  0.6837  1.2236 -0.4522
30721SOL    HW297484  11.386  10.685  11.038 -0.8447 -0.3854  1.0118
30722SOL     OW97485   1.297   8.201   1.455  0.0670 -0.2957 -0.0238
30722SOL    HW197486   1.235   8.266   1.488 -1.0413 -0.2456 -2.0409
30722SOL    HW297487   1.326   8.155   1.533 -1.0949  0.9181  1.1929
30723SOL     OW97488   9.812   9.835  11.220 -0.4877  0.6303 -0.2865
30723SOL    HW197489   9.883   9.899  11.216 -0.6211  0.8640  0.8091
30723SOL    HW297490   9.737   9.879  11.180 -1.2199  2.0663  2.4327
30724SOL     OW97491   7.254   7.314   2.764 -0.7571  0.3579 -0.2485
30724SOL    HW197492   7.238   7.321   2.670  1.7667 -3.2318 -1.1657
30724SOL    HW297493   7.168   7.326   2.804 -2.1037  0.9777 -3.0626
30725SOL     OW97494   9.997   3.943   1.440  0.2949  0.4184  0.5225
30725SOL    HW197495   9.924   3.882   1.429 -0.7477  1.6260  0.5063
30725SOL    HW297496  10.026   3.930   1.530 -0.1570  0.1816  0.6354
30726SOL     OW97497   4.709   9.527   4.639 -0.1312 -0.1326 -0.1717
30726SOL    HW197498   4.631   9.515   4.693  0.7082  0.7531  1.2882
30726SOL    HW297499   4.778   9.479   4.685  0.7364  1.1185 -0.1149
30727SOL     OW97500   0.632  10.561   9.752  0.2923 -0.0831 -0.2665
30727SOL    HW197501   0.677  10.505   9.689  0.5745  0.4063 -0.4987
30727SOL    HW297502   0.588  10.499   9.811  2.6168 -0.6735  0.9986
30728SOL     OW97503  11.300   9.960   9.670  0.2013  0.4132  0.0242
30728SOL    HW197504  11.359  10.035   9.661  0.3078  0.5017  1.1890
30728SOL    HW297505  11.333   9.895   9.609  1.2051  0.6595  0.2897
30729SOL     OW97506   2.206   2.088   9.704  0.4292  0.1648  0.5374
30729SOL    HW197507   2.166   2.094   9.790  0.2333 -1.0101  0.5440
30729SOL    HW297508   2.299   2.107   9.719  0.4543 -0.3476  1.0626
30730SOL     OW97509   2.687   3.237   9.364  0.6862 -0.5139 -0.1402
30730SOL    HW197510   2.678   3.148   9.330  1.6587 -0.3018 -0.9857
30730SOL    HW297511   2.769   3.269   9.327  0.9717  0.3005  1.1548
30731SOL     OW97512   0.163   0.900   9.168  0.3478 -0.1240  0.0954
30731SOL    HW197513   0.069   0.889   9.178  0.3418  0.2417  0.4295
30731SOL    HW297514   0.201   0.818   9.201  0.2161  0.2217  1.1203
30732SOL     OW97515   3.237  10.153   7.234  0.3700 -0.1867 -0.6622
30732SOL    HW197516   3.219  10.242   7.264 -0.1784  0.0279 -1.5785
30732SOL    HW297517   3.214  10.097   7.308  0.6075  0.4321 -0.1205
30733SOL     OW97518  10.885   1.379   7.011 -0.7439 -0.2138  0.0097
30733SOL    HW197519  10.843   1.436   7.076 -1.1486  0.5167 -0.8649
30733SOL    HW297520  10.811   1.342   6.962 -0.4839 -1.4770  0.5328
30734SOL     OW97521   0.214   7.406   3.893  0.0651  0.8315 -0.7537
30734SOL    HW197522   0.245   7.370   3.810  0.1636  0.6392 -0.6357
30734SOL    HW297523   0.293   7.442   3.934  0.3015 -0.3773 -0.0896
30735SOL     OW97524  10.082   8.642   0.668  0.4359 -0.7449 -0.8149
30735SOL    HW197525  10.154   8.590   0.704  0.2483 -0.4169  0.0701
30735SOL    HW297526  10.016   8.578   0.642 -0.6375 -0.9554  2.0828
30736SOL     OW97527   2.630   0.041   7.074 -0.7347 -0.0988  0.6378
30736SOL    HW197528   2.675  -0.024   7.020  0.5045 -0.6102  2.2065
30736SOL    HW297529   2.537   0.018   7.067 -0.5744 -0.3866 -0.9096
30737SOL     OW97530   6.071  11.315   8.014 -0.1326 -0.0088 -0.0925
30737SOL    HW197531   6.037  11.238   7.970 -0.4190  0.9602 -1.6551
30737SOL    HW297532   6.057  11.298   8.107 -2.7081 -0.6715 -0.5251
30738SOL     OW97533  10.611   7.451   0.745  0.5556  0.4800 -0.4865
30738SOL    HW197534  10.522   7.421   0.764  1.1235 -0.3264  1.0733
30738SOL    HW297535  10.604   7.546   0.737 -0.3429  0.4881  0.3005
30739SOL     OW97536   4.261   2.525   9.298  0.7009 -0.6461 -0.0145
30739SOL    HW197537   4.304   2.467   9.361  4.1393  0.5650 -1.0304
30739SOL    HW297538   4.245   2.469   9.222  0.9602 -1.0353  0.2133
30740SOL     OW97539   3.325   0.134   5.532 -0.3117 -0.4873 -0.0265
30740SOL    HW197540   3.315   0.229   5.538 -1.9383 -0.4805 -1.7838
30740SOL    HW297541   3.261   0.107   5.465  1.0527 -2.6526 -0.5676
30741SOL     OW97542   0.895  10.132   0.470 -0.7030  0.7280  0.3983
30741SOL    HW197543   0.938  10.050   0.445 -0.9075  0.6159  0.4143
30741SOL    HW297544   0.922  10.147   0.560 -0.3944  0.8549  0.2868
30742SOL     OW97545   0.494   9.057   0.847  0.0532 -0.1004  0.2433
30742SOL    HW197546   0.411   9.096   0.874  0.4624 -0.0840  1.5282
30742SOL    HW297547   0.477   9.026   0.758 -0.9176  1.0971 -0.0319
30743SOL     OW97548   0.033  11.261  10.069  0.1644 -0.2376  0.2542
30743SOL    HW197549   0.115  11.302  10.040  1.0597 -0.0382  2.8002
30743SOL    HW297550   0.039  11.262  10.164 -2.0748 -1.7680  0.4712
30744SOL     OW97551   7.775   7.814   2.359  0.2362  0.3802 -0.1902
30744SOL    HW197552   7.798   7.723   2.346  0.1470  0.2683  0.3984
30744SOL    HW297553   7.716   7.813   2.435  0.6143  0.9728  0.1202
30745SOL     OW97554   9.235   2.962   6.586  0.0092 -0.0842 -0.1757
30745SOL    HW197555   9.216   2.871   6.608 -0.4068 -0.4631 -1.9081
30745SOL    HW297556   9.155   3.009   6.609  0.6906  0.1281  1.9775
30746SOL     OW97557   4.009   4.202   5.091  0.0823  0.1939  0.8783
30746SOL    HW197558   3.943   4.193   5.021 -1.2194  1.4299  1.8890
30746SOL    HW297559   4.053   4.117   5.092  0.3393  0.2043 -1.6165
30747SOL     OW97560  10.827   5.634   5.812  0.5441  0.4973  0.2168
30747SOL    HW197561  10.757   5.626   5.747  0.7513 -0.3653  0.0889
30747SOL    HW297562  10.890   5.694   5.773  0.5201  0.2202 -0.2536
30748SOL     OW97563   8.585   9.397   5.310  0.0152 -0.3331 -0.1221
30748SOL    HW197564   8.521   9.429   5.246  0.3146  2.4549  0.8359
30748SOL    HW297565   8.669   9.425   5.274  0.5851 -2.3490 -0.4568
30749SOL     OW97566   1.557   6.818   5.597 -0.0099 -0.5949 -0.1045
30749SOL    HW197567   1.495   6.890   5.585 -0.4791 -1.1060 -0.8272
30749SOL    HW297568   1.643   6.858   5.585 -0.3330 -0.7431 -4.1701
30750SOL     OW97569   4.101   3.868   6.193  0.3132 -0.1045 -0.2115
30750SOL    HW197570   4.125   3.886   6.102 -0.1334 -2.0151 -0.7674
30750SOL    HW297571   4.054   3.785   6.189 -0.0951 -0.0157  1.7264
30751SOL     OW97572   1.172   8.815   4.090 -0.0848 -0.2649 -0.0837
30751SOL    HW197573   1.173   8.719   4.093  1.7906 -0.2908 -0.5628
30751SOL    HW297574   1.173   8.841   4.182 -0.3593 -0.6956  0.0472
30752SOL     OW97575   4.698   9.353   3.130  0.1494  0.1009  0.2661
30752SOL    HW197576   4.787   9.318   3.138  0.9532  1.8007 -0.6524
30752SOL    HW297577   4.696   9.428   3.189 -0.8810 -0.2563  0.7104
30753SOL     OW97578   1.061   5.156   9.529 -0.5063  0.3371  0.5283
30753SOL    HW197579   1.136   5.111   9.566  0.6463  1.5490 -0.2458
30753SOL    HW297580   0.985   5.104   9.557  0.7868 -3.4192 -2.1024
30754SOL     OW97581   7.545   8.397   1.099  0.3990 -0.1551  0.4592
30754SOL    HW197582   7.550   8.370   1.191  0.0971  0.8397  0.7850
30754SOL    HW297583   7.471   8.459   1.097  1.9074  1.7313  0.0537
30755SOL     OW97584   9.396   5.609   2.188 -0.4575  0.0602  0.4989
30755SOL    HW197585   9.456   5.595   2.261 -0.9753 -0.0514  0.9106
30755SOL    HW297586   9.429   5.688   2.144  0.1208 -0.1321  0.5791
30756SOL     OW97587   0.965   0.674   5.792 -0.2942  0.0548  0.0566
30756SOL    HW197588   0.969   0.769   5.808 -1.6068  0.6080 -2.4121
30756SOL    HW297589   0.873   0.652   5.802  0.1713 -1.2879  1.8600
30757SOL     OW97590   3.506   5.981   9.108 -1.1019 -0.8359  0.6627
30757SOL    HW197591   3.572   5.922   9.072 -0.5600 -0.3503  0.8420
30757SOL    HW297592   3.549   6.022   9.183 -1.6148 -0.5282  0.7900
30758SOL     OW97593   0.287   4.336   3.520  0.0898  0.6733  0.0795
30758SOL    HW197594   0.333   4.338   3.604  1.1494  1.2303 -0.5028
30758SOL    HW297595   0.283   4.243   3.497 -1.0333  0.4141  1.1640
30759SOL     OW97596  11.302   3.625  11.749  0.2438 -0.0463 -0.8351
30759SOL    HW197597  11.275   3.594  11.836  0.1005 -1.8185 -1.4774
30759SOL    HW297598  11.221   3.650  11.706  0.2365  0.1567 -0.7032
30760SOL     OW97599   4.793   2.270   7.928 -0.4015  0.3099  0.2853
30760SOL    HW197600   4.885   2.291   7.915 -0.6708  0.8272 -0.9756
30760SOL    HW297601   4.751   2.355   7.940 -0.8024  0.1194  0.2522
30761SOL     OW97602   0.370   3.714  11.180 -0.2398  0.2007 -0.6351
30761SOL    HW197603   0.345   3.630  11.143  1.1910 -0.0737 -1.0222
30761SOL    HW297604   0.400   3.765  11.105  2.1193 -0.1484  0.0002
30762SOL     OW97605   4.639   7.945   4.458  0.1719 -0.1850  0.6972
30762SOL    HW197606   4.596   7.878   4.403 -1.8775  0.2200  1.7017
30762SOL    HW297607   4.731   7.942   4.432 -0.4544 -1.0263 -1.7027
30763SOL     OW97608  10.685   5.127   8.991 -0.4194  0.3107  0.5089
30763SOL    HW197609  10.716   5.149   9.079  0.7373 -0.5869  0.3582
30763SOL    HW297610  10.749   5.166   8.932  0.5037 -1.5460  0.1883
30764SOL     OW97611   9.313   9.238   8.514  0.0600 -0.3990  0.7825
30764SOL    HW197612   9.272   9.317   8.549  2.2197  1.3183 -0.3187
30764SOL    HW297613   9.306   9.248   8.419 -0.3804 -1.9893  0.6265
30765SOL     OW97614   7.248  10.931   6.172  0.0706 -0.5082  0.4560
30765SOL    HW197615   7.319  10.923   6.108  1.0063 -0.1081  1.3901
30765SOL    HW297616   7.217  11.021   6.162  1.4820  0.1840  1.7591
30766SOL     OW97617   6.524   5.447  10.858  0.5777  0.8017 -0.2987
30766SOL    HW197618   6.468   5.497  10.917 -1.4063 -1.9170  0.3543
30766SOL    HW297619   6.603   5.429  10.909 -0.2237  0.2819  0.8097
30767SOL     OW97620  11.161   2.119   9.616  0.3219 -0.2535 -0.0141
30767SOL    HW197621  11.087   2.086   9.565  0.0695  1.2920 -0.6954
30767SOL    HW297622  11.196   2.041   9.660 -0.8866 -1.2315 -0.7119
30768SOL     OW97623   9.248   1.094   2.934 -0.1558  0.0661  0.0084
30768SOL    HW197624   9.209   1.010   2.909 -0.9717 -0.5181  2.8027
30768SOL    HW297625   9.173   1.151   2.953  0.3546  0.5654  0.5828
30769SOL     OW97626   5.743   5.574   9.812  0.0628 -0.0544 -0.0192
30769SOL    HW197627   5.711   5.519   9.884 -1.7666 -0.9768 -1.4450
30769SOL    HW297628   5.827   5.534   9.787  0.0711 -0.5267  0.7287
30770SOL     OW97629   7.388  11.393   2.441  0.0581 -0.5546 -0.4044
30770SOL    HW197630   7.363  11.334   2.370  0.2226  0.6651 -1.5158
30770SOL    HW297631   7.459  11.446   2.404 -0.3306  0.5800  0.4186
30771SOL     OW97632  10.576   5.205   6.552  0.0098  0.4768 -0.0899
30771SOL    HW197633  10.511   5.275   6.551  0.0047  0.4707 -0.2917
30771SOL    HW297634  10.660   5.249   6.546  0.0549  0.5149  0.7583
30772SOL     OW97635   0.225   8.819   4.394 -0.1631 -0.1317  0.2476
30772SOL    HW197636   0.271   8.874   4.331 -1.8817  0.5666 -0.4696
30772SOL    HW297637   0.183   8.881   4.453 -0.5527 -0.7263  0.6011
30773SOL     OW97638  10.013   1.727  10.402 -0.2842  0.4396 -0.4322
30773SOL    HW197639  10.056   1.721  10.316 -0.2152 -0.6622 -0.3368
30773SOL    HW297640  10.031   1.642  10.443 -2.7721 -0.1801 -0.4861
30774SOL     OW97641   8.196   2.378   1.128  0.3642 -0.2871  0.4079
30774SOL    HW197642   8.248   2.365   1.207  0.3890  1.7458  0.7768
30774SOL    HW297643   8.195   2.473   1.115 -1.3157 -0.4386 -0.9145
30775SOL     OW97644   3.594   8.360   9.669 -0.3628 -0.4673 -0.0339
30775SOL    HW197645   3.516   8.326   9.624  0.3907  0.7935 -2.4948
30775SOL    HW297646   3.561   8.427   9.728 -1.1732  0.0346 -1.0281
30776SOL     OW97647  10.617   1.828   9.381  0.4352 -0.2402 -0.0279
30776SOL    HW197648  10.644   1.869   9.464 -3.0029 -0.2625  1.2732
30776SOL    HW297649  10.646   1.737   9.390  1.1295  0.0264  0.6222
30777SOL     OW97650   6.761   4.883   6.954  0.1037 -0.2611 -0.2085
30777SOL    HW197651   6.807   4.890   6.870  1.8148 -0.6989  0.6429
30777SOL    HW297652   6.811   4.939   7.014  0.6453 -2.1573  1.1985
30778SOL     OW97653   5.568   6.164  10.232  0.0104 -0.1870 -0.5366
30778SOL    HW197654   5.483   6.207  10.224  0.3544  0.8623  0.9694
30778SOL    HW297655   5.547   6.071  10.245 -0.9228  0.0802 -0.0362
30779SOL     OW97656   7.346   5.521   3.119  0.3331 -0.0840  0.0512
30779SOL    HW197657   7.377   5.453   3.178 -1.0482 -0.6805  0.1046
30779SOL    HW297658   7.395   5.599   3.146  0.4853 -0.5817  1.2881
30780SOL     OW97659   1.203   3.653   9.491  0.1963 -0.0648 -0.1632
30780SOL    HW197660   1.222   3.746   9.487 -2.6701  0.5863 -1.6759
30780SOL    HW297661   1.257   3.614   9.423 -0.0188  0.8110 -0.8460
30781SOL     OW97662   5.326   0.747   5.875  0.5260  0.1640 -0.3152
30781SOL    HW197663   5.369   0.828   5.848 -0.4461  0.8225  0.0754
30781SOL    HW297664   5.234   0.769   5.881  0.3526 -0.7426  0.6545
30782SOL     OW97665   2.575   9.555   5.534  0.4265  0.0592  0.3376
30782SOL    HW197666   2.526   9.629   5.498  0.0246 -0.6847 -0.6988
30782SOL    HW297667   2.655   9.552   5.482  1.0134  0.5025  1.1968
30783SOL     OW97668   7.803   9.220   6.787 -0.3187 -0.2306  0.5944
30783SOL    HW197669   7.767   9.283   6.849 -1.4113  2.6069 -2.6160
30783SOL    HW297670   7.737   9.212   6.719  2.7252  1.0353 -2.8629
30784SOL     OW97671   3.587   5.400  11.623 -0.8419  0.4100 -0.2142
30784SOL    HW197672   3.623   5.465  11.683 -0.0117 -0.6834  0.5226
30784SOL    HW297673   3.535   5.342  11.678 -0.1664 -0.5430 -0.5439
30785SOL     OW97674   1.704  10.378   4.290 -0.3858  0.5443 -0.7178
30785SOL    HW197675   1.707  10.352   4.382  2.4512  1.7018 -0.3676
30785SOL    HW297676   1.763  10.318   4.246  2.9798  3.4090 -0.5982
30786SOL     OW97677   5.328   6.511   1.360 -0.2307  0.1323  0.0548
30786SOL    HW197678   5.241   6.507   1.398 -0.0848  1.5033  0.5992
30786SOL    HW297679   5.358   6.420   1.359 -2.0230 -0.4866 -1.0462
30787SOL     OW97680   4.264   5.708   6.502  0.0273 -0.2675 -0.1239
30787SOL    HW197681   4.238   5.796   6.477  1.6783  0.2082 -0.2788
30787SOL    HW297682   4.319   5.720   6.579 -0.5990 -1.2582  0.4933
30788SOL     OW97683   1.536   3.881   4.071 -0.1725 -0.2765 -0.2029
30788SOL    HW197684   1.513   3.840   4.155 -0.6849 -2.1198 -1.1774
30788SOL    HW297685   1.630   3.868   4.063 -0.2204 -0.6722 -0.1755
30789SOL     OW97686   3.799   6.757   4.198  0.8424  0.6210  0.2058
30789SOL    HW197687   3.856   6.781   4.125 -0.7142  0.2087 -1.2071
30789SOL    HW297688   3.771   6.840   4.236  0.4373  0.9021 -0.6855
30790SOL     OW97689   4.450   8.248   3.135 -0.9067 -0.0906 -0.0494
30790SOL    HW197690   4.473   8.278   3.047 -2.6197 -1.0111 -0.8576
30790SOL    HW297691   4.529   8.265   3.187  0.1279  0.5482 -1.7263
30791SOL     OW97692   7.108   2.449   8.731  0.2864  0.5032 -0.3517
30791SOL    HW197693   7.130   2.528   8.681  1.4584  0.5685  0.2240
30791SOL    HW297694   7.112   2.378   8.667 -2.1872  1.0295 -1.1979
30792SOL     OW97695   6.873   0.889   3.878 -0.0346 -0.0044  0.0514
30792SOL    HW197696   6.922   0.807   3.883  0.6680  0.2649 -1.6141
30792SOL    HW297697   6.939   0.957   3.885  0.1279  0.3669 -3.3882
30793SOL     OW97698   6.507   9.815   0.147  0.6272  0.3511  0.1980
30793SOL    HW197699   6.436   9.873   0.119 -0.2569 -0.8924 -0.2316
30793SOL    HW297700   6.462   9.738   0.183  1.7689  0.1064  1.1512
30794SOL     OW97701   7.101   1.541   1.602  0.1813 -0.0431 -0.2364
30794SOL    HW197702   7.078   1.534   1.694 -1.5392 -1.4117 -0.7035
30794SOL    HW297703   7.018   1.530   1.556  1.0718  0.0813 -1.9661
30795SOL     OW97704   6.400   5.396   4.942  0.0940 -0.7165  0.1470
30795SOL    HW197705   6.378   5.304   4.955 -1.4217 -0.3081  0.6096
30795SOL    HW297706   6.441   5.423   5.024 -1.5957 -0.3912  0.9156
30796SOL     OW97707   4.919   3.641   9.461  0.2565  0.3284  0.9563
30796SOL    HW197708   4.836   3.619   9.501 -0.4151  0.5774 -0.2400
30796SOL    HW297709   4.919   3.737   9.454 -0.6656  0.2345 -1.5819
30797SOL     OW97710   0.083   8.649   8.465  0.3051 -0.1322 -0.1384
30797SOL    HW197711   0.107   8.591   8.393 -0.0309 -0.8979  0.3614
30797SOL    HW297712   0.012   8.604   8.510  1.6767 -0.5012  1.7415
30798SOL     OW97713   8.960   9.405   4.232  0.5379 -0.5470 -0.3628
30798SOL    HW197714   8.978   9.343   4.162  1.7303  0.3303 -0.8561
30798SOL    HW297715   9.000   9.487   4.203 -1.4329  0.6309  0.0255
30799SOL     OW97716   6.890   9.733   5.024 -0.3976  0.2355 -0.1698
30799SOL    HW197717   6.901   9.811   4.971  0.0785  0.6077  0.4589
30799SOL    HW297718   6.932   9.663   4.973  0.0081  0.5759 -0.3082
30800SOL     OW97719  11.071   5.919  10.686  0.2416  0.2110 -0.5863
30800SOL    HW197720  11.122   5.947  10.762  0.4933 -1.2340 -0.1872
30800SOL    HW297721  11.135   5.907  10.616  0.0872  0.9609 -0.8650
30801SOL     OW97722   7.880   9.508   7.645  0.3365 -1.1692 -0.2850
30801SOL    HW197723   7.786   9.502   7.663  0.3312 -2.7126 -0.6911
30801SOL    HW297724   7.891   9.466   7.560  1.5785 -2.3669  0.4352
30802SOL     OW97725   0.286  10.049   6.221 -0.0979  0.5749 -0.1195
30802SOL    HW197726   0.363  10.081   6.174  0.1789  1.7032  1.0376
30802SOL    HW297727   0.270   9.962   6.184  1.1556  0.7018 -1.0473
30803SOL     OW97728   7.925   6.961   4.742  0.3829 -0.5888  0.1131
30803SOL    HW197729   7.935   7.053   4.716 -2.2737 -0.2138  0.1116
30803SOL    HW297730   7.925   6.963   4.838  0.5440 -0.6320  0.1148
30804SOL     OW97731  11.724   9.935  10.790  1.0298 -0.4655 -0.0168
30804SOL    HW197732  11.786  10.006  10.807  1.2572 -0.6439 -0.1006
30804SOL    HW297733  11.767   9.856  10.824 -0.5248 -0.1587  3.0347
30805SOL     OW97734   5.094  11.403  10.175 -0.7066 -0.3339 -0.3463
30805SOL    HW197735   5.061  11.490  10.155 -0.2966  0.8254  3.2852
30805SOL    HW297736   5.023  11.360  10.222  0.3160 -0.5170  1.1214
30806SOL     OW97737   3.787  10.336   0.912 -0.4933 -0.2562  0.2458
30806SOL    HW197738   3.811  10.418   0.869 -2.1233 -0.4181 -1.0546
30806SOL    HW297739   3.846  10.271   0.872  0.4328  0.1587  0.8916
30807SOL     OW97740   8.630   9.698   7.099  0.3667  0.4209 -0.4765
30807SOL    HW197741   8.703   9.742   7.143 -0.0422 -0.2463  0.9166
30807SOL    HW297742   8.585   9.768   7.052  0.0135  1.4465  1.2941
30808SOL     OW97743   1.418  10.130  11.063  0.3738  0.0832 -0.0519
30808SOL    HW197744   1.349  10.146  10.998  1.0183  2.2593 -0.2985
30808SOL    HW297745   1.373  10.129  11.147 -0.2876 -1.3514 -0.3948
30809SOL     OW97746   3.910   4.592   4.416  0.0121 -0.3576 -0.3816
30809SOL    HW197747   3.998   4.623   4.395  0.3309 -0.9684  0.0235
30809SOL    HW297748   3.873   4.566   4.331 -1.5098  4.0443 -1.3328
30810SOL     OW97749   8.365   4.618   3.874 -0.8173  0.1476  0.0739
30810SOL    HW197750   8.372   4.673   3.796 -0.7855 -0.3103 -0.2502
30810SOL    HW297751   8.274   4.629   3.903 -0.8981  0.1273 -0.1717
30811SOL     OW97752   2.561   0.525   7.244  0.7874 -0.2353 -0.2325
30811SOL    HW197753   2.514   0.493   7.167  0.9433  2.4431 -1.5208
30811SOL    HW297754   2.492   0.557   7.302  0.8526  1.0561 -0.8585
30812SOL     OW97755   0.736   7.785   8.827  0.8022 -0.2892 -0.3313
30812SOL    HW197756   0.689   7.702   8.822  0.3417  0.0203 -1.3886
30812SOL    HW297757   0.678   7.848   8.783  0.9408  0.6854  0.8360
30813SOL     OW97758   7.027   8.411  10.263  0.2575 -0.5944 -0.4427
30813SOL    HW197759   6.997   8.324  10.235 -1.1702  0.0261 -0.9037
30813SOL    HW297760   6.948   8.464  10.266  1.2773  1.0842 -1.5210
30814SOL     OW97761   8.000   6.830   6.461 -0.2639  0.3134 -0.0406
30814SOL    HW197762   8.050   6.753   6.433  2.4546  1.5489  1.0125
30814SOL    HW297763   7.936   6.844   6.391  0.0087 -2.1456 -0.8686
30815SOL     OW97764   3.579   6.219   5.868 -0.0103 -0.5838 -0.2982
30815SOL    HW197765   3.535   6.279   5.808  1.3070 -1.3834 -2.1447
30815SOL    HW297766   3.514   6.202   5.936 -1.4117  0.7018 -1.2391
30816SOL     OW97767   7.722   0.782   4.591  0.1999 -0.2162 -0.0716
30816SOL    HW197768   7.751   0.719   4.525 -0.1238  0.4823 -0.9008
30816SOL    HW297769   7.768   0.863   4.569 -2.1102  0.8750 -1.3117
30817SOL     OW97770   7.816   9.993  10.268 -0.1610 -0.2521 -0.5468
30817SOL    HW197771   7.756   9.953  10.205 -2.9337  2.6521  0.0361
30817SOL    HW297772   7.797   9.948  10.351 -1.3378  0.4079 -0.4427
30818SOL     OW97773  11.400   0.187   4.291  0.3576 -0.3887  0.1253
30818SOL    HW197774  11.423   0.095   4.292 -0.4608 -0.7600 -3.6508
30818SOL    HW297775  11.474   0.231   4.249 -0.2930  0.3185 -0.3124
30819SOL     OW97776  10.333   7.599   6.743 -0.2562  0.1862 -0.4761
30819SOL    HW197777  10.372   7.512   6.730 -1.7522 -1.1403  2.7146
30819SOL    HW297778  10.348   7.619   6.835 -1.8895  2.3133 -0.5838
30820SOL     OW97779   1.728   7.572   0.452  0.1063  0.1134 -0.2499
30820SOL    HW197780   1.791   7.618   0.508  0.1945  0.6450 -0.7710
30820SOL    HW297781   1.683   7.642   0.404 -1.8439 -0.1588  1.0931
30821SOL     OW97782   7.887   0.875   5.053  0.3076 -0.5956 -0.3104
30821SOL    HW197783   7.916   0.966   5.043  0.2322 -0.6671 -1.2513
30821SOL    HW297784   7.793   0.881   5.069  0.4709 -0.4673  0.6908
30822SOL     OW97785   0.622   6.817   2.741 -0.4903 -0.4085  0.0966
30822SOL    HW197786   0.612   6.736   2.690 -0.5557 -0.2162 -0.1956
30822SOL    HW297787   0.632   6.787   2.832 -1.6101 -0.7014  0.1425
30823SOL     OW97788   9.844   7.925   2.801 -0.3772  0.2430 -0.1994
30823SOL    HW197789   9.761   7.954   2.838 -0.1082  0.0946  0.5303
30823SOL    HW297790   9.865   7.844   2.847  0.2405  0.3537 -0.2679
30824SOL     OW97791   0.598  10.582   2.134 -0.8300 -0.3074 -0.2083
30824SOL    HW197792   0.672  10.522   2.121  1.7137  2.6199 -0.3533
30824SOL    HW297793   0.596  10.634   2.054 -1.4092  1.3008  0.8082
30825SOL     OW97794   3.203   5.517   6.468 -0.6477 -0.4076 -0.1682
30825SOL    HW197795   3.273   5.457   6.441 -0.6268 -0.3626 -0.2152
30825SOL    HW297796   3.124   5.463   6.469 -0.4914 -0.6264  0.5770
30826SOL     OW97797   5.425   7.672   2.450 -0.9712  0.4538  0.3357
30826SOL    HW197798   5.341   7.680   2.407 -0.9875 -0.2685  0.2310
30826SOL    HW297799   5.418   7.593   2.503 -0.0153 -0.1985 -0.4763
30827SOL     OW97800   5.026   6.274   5.244 -0.0268 -0.2765  0.7713
30827SOL    HW197801   5.116   6.280   5.278  0.4897 -1.4966 -0.2991
30827SOL    HW297802   4.998   6.185   5.267 -0.0183 -0.7958 -1.0500
30828SOL     OW97803   5.313   9.484   0.639  1.0822  1.0323 -0.2704
30828SOL    HW197804   5.252   9.412   0.657  2.9139 -0.6279 -0.3304
30828SOL    HW297805   5.310   9.539   0.717  0.7547  0.0466  0.4327
30829SOL     OW97806   8.419   0.278   8.270  0.0711 -0.6289  0.3348
30829SOL    HW197807   8.437   0.196   8.226  1.7965  1.1434 -2.6178
30829SOL    HW297808   8.505   0.307   8.304 -0.7091 -0.5243  2.3941
30830SOL     OW97809  11.428   6.391   6.375  0.0355 -0.1643 -0.1524
30830SOL    HW197810  11.411   6.485   6.371 -2.6972 -0.5839 -0.4039
30830SOL    HW297811  11.375   6.353   6.305  2.0271 -1.8309 -0.8686
30831SOL     OW97812   6.184   5.077   0.533 -0.0847  0.0760  0.2556
30831SOL    HW197813   6.208   5.161   0.494 -0.7613  0.6722  1.0773
30831SOL    HW297814   6.088   5.078   0.535 -0.0822  0.2097  2.1912
30832SOL     OW97815   9.378  10.649   9.982 -0.2037  0.1139 -0.3281
30832SOL    HW197816   9.286  10.629   9.998 -0.4355  0.7674 -0.8062
30832SOL    HW297817   9.388  10.739  10.012 -0.2477  0.8054 -2.2692
30833SOL     OW97818   5.102   2.862   5.428 -0.0792  0.6219  0.0524
30833SOL    HW197819   5.026   2.836   5.376 -0.2492  1.2239 -0.0131
30833SOL    HW297820   5.071   2.860   5.519  0.1020 -0.0417  0.1050
30834SOL     OW97821   4.889   8.786   7.010 -0.3493 -0.1275  0.0866
30834SOL    HW197822   4.843   8.859   7.052  0.9985  1.2311 -0.6810
30834SOL    HW297823   4.944   8.750   7.079  0.7013  1.1019 -0.0730
30835SOL     OW97824  10.582  10.048   4.519 -0.2650  0.1059 -0.6009
30835SOL    HW197825  10.606  10.025   4.429 -0.9679 -0.4066 -0.6737
30835SOL    HW297826  10.609  10.139   4.530 -0.3792  0.2413 -1.4137
30836SOL     OW97827   9.613   9.145   4.682  0.1363  0.1389 -0.2081
30836SOL    HW197828   9.688   9.120   4.629  0.2055 -1.2943  0.5167
30836SOL    HW297829   9.648   9.151   4.771 -0.3479  0.7106 -0.0495
30837SOL     OW97830   3.928   1.344   5.519  0.8419  0.5443 -0.5465
30837SOL    HW197831   4.007   1.307   5.479  0.4128  0.3920 -1.2587
30837SOL    HW297832   3.881   1.268   5.555  1.7328  0.7696  1.2173
30838SOL     OW97833   9.427   7.574   1.847  0.1635 -1.0978  0.3784
30838SOL    HW197834   9.490   7.554   1.777 -1.4226 -0.6602 -1.2750
30838SOL    HW297835   9.367   7.500   1.846  0.0246 -1.0021  1.2011
30839SOL     OW97836   9.191   2.570   5.175 -0.3565  0.2101  0.0246
30839SOL    HW197837   9.277   2.529   5.187 -0.8425 -0.8457  0.0492
30839SOL    HW297838   9.200   2.656   5.216  0.4562 -0.1980  0.7577
30840SOL     OW97839   5.323   4.501   6.503  0.2925  0.1624 -0.7527
30840SOL    HW197840   5.396   4.474   6.449  1.1773  1.2285 -0.1298
30840SOL    HW297841   5.318   4.434   6.572  1.3338  0.6164 -0.2213
30841SOL     OW97842   8.774   8.049   7.173  0.0011  0.2919  0.4362
30841SOL    HW197843   8.696   8.102   7.192 -0.7615 -0.0039 -1.5799
30841SOL    HW297844   8.741   7.960   7.165  0.7162  0.0141  0.5278
30842SOL     OW97845   3.150   4.835   2.440 -0.4799 -0.2324  0.4698
30842SOL    HW197846   3.060   4.827   2.410 -0.3560 -0.1561  0.0717
30842SOL    HW297847   3.201   4.785   2.376 -0.0080  1.4100 -0.4916
30843SOL     OW97848   1.347  10.393   0.093 -0.4115  0.6832  0.0900
30843SOL    HW197849   1.332  10.451   0.018 -0.6012  0.1221 -0.3233
30843SOL    HW297850   1.367  10.308   0.052  1.1887  0.7572  0.6547
30844SOL     OW97851  11.302   0.799   3.117  0.2495  0.0421 -0.0014
30844SOL    HW197852  11.263   0.843   3.041 -0.1363 -2.1667 -1.1501
30844SOL    HW297853  11.229   0.756   3.160  0.6759  0.1829  0.8840
30845SOL     OW97854   9.581   4.191  10.520 -0.0259  0.0927  0.6596
30845SOL    HW197855   9.674   4.208  10.504 -0.2918  0.4400 -0.6869
30845SOL    HW297856   9.543   4.184  10.432 -1.3335  0.2709  1.1912
30846SOL     OW97857   2.170   5.151   1.525  0.3827 -0.1421 -0.6680
30846SOL    HW197858   2.194   5.120   1.438  1.2730 -0.2820 -0.3919
30846SOL    HW297859   2.156   5.245   1.515  0.3173 -0.1883 -0.9982
30847SOL     OW97860   9.834   8.039   7.319  0.6881 -0.6294  0.3156
30847SOL    HW197861   9.869   7.951   7.303  1.3480 -0.6970  1.9470
30847SOL    HW297862   9.911   8.092   7.339  0.1499 -0.0505  0.9037
30848SOL     OW97863   3.192   7.867  11.058 -0.2515 -0.1944 -0.2756
30848SOL    HW197864   3.277   7.873  11.101 -0.4890 -1.7959  0.4850
30848SOL    HW297865   3.204   7.798  10.993 -0.6550  0.3864 -0.9820
30849SOL     OW97866   0.158   7.686   9.587  0.0323  0.1264 -0.2399
30849SOL    HW197867   0.101   7.620   9.548 -0.2452  0.6116 -0.6660
30849SOL    HW297868   0.246   7.660   9.561  0.1011 -1.0708  1.0728
30850SOL     OW97869   7.252   7.750   6.761 -0.7737  0.3268 -0.2947
30850SOL    HW197870   7.335   7.796   6.772 -0.0429 -0.9763 -0.1583
30850SOL    HW297871   7.254   7.718   6.671  0.9102 -3.4184  0.8971
30851SOL     OW97872   2.025   4.272   2.237 -0.2522  0.1001 -0.5990
30851SOL    HW197873   2.004   4.365   2.233 -0.8679  0.0121  0.4162
30851SOL    HW297874   1.949   4.229   2.198 -0.4963 -0.0424  0.0354
30852SOL     OW97875   5.161   0.008   7.673  0.5260 -0.2659 -0.0881
30852SOL    HW197876   5.161   0.093   7.630  0.2204  0.9295  2.1107
30852SOL    HW297877   5.076  -0.030   7.654  0.8006 -0.2585 -1.3702
30853SOL     OW97878   2.814   9.416   1.083 -0.0623  0.7548 -0.4559
30853SOL    HW197879   2.862   9.428   1.001 -0.6198 -1.0237 -1.0953
30853SOL    HW297880   2.818   9.501   1.126  0.2986  1.7168 -2.2939
30854SOL     OW97881   0.854   2.980   8.372 -0.1695 -0.8456  0.0076
30854SOL    HW197882   0.895   3.011   8.453 -0.7784  1.9496 -0.6428
30854SOL    HW297883   0.819   2.894   8.394 -0.1418 -0.2562  2.6805
30855SOL     OW97884  10.903  11.266   7.341 -0.1017  0.0532 -0.5513
30855SOL    HW197885  10.951  11.294   7.419 -0.4713 -0.2245 -0.2228
30855SOL    HW297886  10.971  11.242   7.278  0.1876 -0.5069 -0.0276
30856SOL     OW97887   6.570   9.051   5.162 -0.3079 -0.0308  0.0103
30856SOL    HW197888   6.579   8.969   5.211  0.2117  1.6763  3.0099
30856SOL    HW297889   6.630   9.041   5.089 -0.6255 -2.4856 -0.0246
30857SOL     OW97890   1.281   2.747   0.788  0.0412 -0.0747 -0.0194
30857SOL    HW197891   1.259   2.840   0.786 -1.0395 -0.3321 -0.6971
30857SOL    HW297892   1.297   2.723   0.697  1.8808 -0.2227  0.2946
30858SOL     OW97893   7.844   9.974   4.189  0.3511 -0.1984  0.4619
30858SOL    HW197894   7.868   9.945   4.101 -2.0215  1.2793 -0.7997
30858SOL    HW297895   7.756   9.937   4.203  1.4305 -2.0807  3.1261
30859SOL     OW97896   6.432   8.195   4.081  0.3065  0.4155 -0.0082
30859SOL    HW197897   6.468   8.121   4.130 -0.1568  0.5104  0.4846
30859SOL    HW297898   6.446   8.271   4.139  1.8520  0.9430 -0.9881
30860SOL     OW97899  11.138   4.810   7.867 -0.5161  0.3483  0.0337
30860SOL    HW197900  11.196   4.885   7.860  0.5063 -0.5273 -1.5922
30860SOL    HW297901  11.081   4.817   7.790 -0.6147 -0.3565  0.0346
30861SOL     OW97902  10.442   5.073   8.184  0.0446  0.2448 -0.8796
30861SOL    HW197903  10.409   5.163   8.189  0.8105  0.4654  1.2642
30861SOL    HW297904  10.391   5.032   8.114 -1.9496  1.6605 -0.3217
30862SOL     OW97905   2.047   9.500   6.318  0.0654 -0.2967 -0.9939
30862SOL    HW197906   1.993   9.431   6.356  0.6992  0.1316  0.7686
30862SOL    HW297907   2.107   9.454   6.259 -0.1305 -1.1423 -0.5531
30863SOL     OW97908   1.557   8.061   2.244  0.2426  0.5158 -0.2240
30863SOL    HW197909   1.563   8.007   2.166  1.8512 -0.5096  0.5506
30863SOL    HW297910   1.643   8.101   2.252  0.1749  0.4412  1.1196
30864SOL     OW97911   5.098   9.572  11.230  0.1830 -0.2401  0.4126
30864SOL    HW197912   5.179   9.609  11.195  0.3947 -0.5859  0.5313
30864SOL    HW297913   5.124   9.487  11.266 -0.2533 -0.4022  0.3516
30865SOL     OW97914   3.807   9.425   6.506  0.3258  0.1313  0.0046
30865SOL    HW197915   3.845   9.360   6.565 -1.0671 -0.5824  0.1563
30865SOL    HW297916   3.732   9.460   6.553  1.4303  2.4236  0.2254
30866SOL     OW97917  11.308   7.319   1.884  0.7433 -0.2612  0.0053
30866SOL    HW197918  11.291   7.364   1.802 -0.1967  0.5779  0.6509
30866SOL    HW297919  11.235   7.342   1.941  2.2351  0.6194  1.6893
30867SOL     OW97920   2.886   7.676   2.442  0.2708  0.0638 -0.4926
30867SOL    HW197921   2.980   7.662   2.454  0.2070 -0.0889 -0.1648
30867SOL    HW297922   2.852   7.691   2.530  0.4584  3.1168 -0.8035
30868SOL     OW97923   8.611   4.952   5.585  0.0050 -0.4511  0.1227
30868SOL    HW197924   8.647   4.888   5.647  0.7936  0.0164  0.1656
30868SOL    HW297925   8.517   4.940   5.590  0.1563 -2.3151 -0.6309
30869SOL     OW97926   3.439   4.340   8.307  0.1214  0.5533 -0.1431
30869SOL    HW197927   3.373   4.271   8.309  0.7564 -0.0428  0.7824
30869SOL    HW297928   3.404   4.409   8.363  0.0584  0.4414 -0.0450
30870SOL     OW97929   6.785   7.759   7.519  0.6105  0.3583  0.2900
30870SOL    HW197930   6.853   7.692   7.523 -0.3961 -0.8165 -1.0263
30870SOL    HW297931   6.772   7.774   7.425 -1.1972  0.2481  0.4825
30871SOL     OW97932   1.618   7.507   7.926  0.6717 -0.2315  0.0301
30871SOL    HW197933   1.530   7.531   7.956  0.5562 -0.3525 -0.2049
30871SOL    HW297934   1.672   7.583   7.946  0.0573  0.7906 -1.8813
30872SOL     OW97935   9.278   4.005   6.613  0.0281 -0.2407  0.3127
30872SOL    HW197936   9.243   3.916   6.620  0.1915 -0.3690 -0.3514
30872SOL    HW297937   9.342   4.000   6.541  0.9255  0.1396  1.0623
30873SOL     OW97938   4.296   8.492   3.260  0.2035  0.0851  0.2760
30873SOL    HW197939   4.302   8.401   3.229 -0.5395  0.0520  0.2066
30873SOL    HW297940   4.223   8.529   3.211  1.2365  1.0891 -0.5605
30874SOL     OW97941  10.069   8.193   7.321  0.1813  0.2951  0.4750
30874SOL    HW197942  10.129   8.224   7.388  1.1393  0.0214 -0.2285
30874SOL    HW297943  10.083   8.252   7.247  0.8056 -0.7519 -0.2748
30875SOL     OW97944  11.503  11.403   0.337 -0.2345 -0.1011 -0.3137
30875SOL    HW197945  11.436  11.336   0.347 -0.3101 -0.3105 -1.8943
30875SOL    HW297946  11.582  11.364   0.374 -1.0952  0.4568  2.3203
30876SOL     OW97947   8.474  10.119  11.673 -0.2934 -0.0679 -0.7846
30876SOL    HW197948   8.408  10.051  11.673 -0.7457  0.3404 -2.0297
30876SOL    HW297949   8.427  10.199  11.698  0.4175 -0.3097  1.6511
30877SOL     OW97950   7.842  11.562   9.790 -0.5708 -0.1372 -0.0524
30877SOL    HW197951   7.792  11.483   9.810  0.4799 -0.8669 -0.2288
30877SOL    HW297952   7.918  11.531   9.741 -0.5473  1.0758 -0.8416
30878SOL     OW97953   2.030   9.071   8.498 -0.3062 -0.1615  0.0645
30878SOL    HW197954   2.095   9.133   8.467 -0.4570  0.3614  0.7751
30878SOL    HW297955   1.966   9.065   8.427 -0.2245  0.3917 -0.0545
30879SOL     OW97956  10.953  10.672   1.701 -0.4341  0.2737 -0.1255
30879SOL    HW197957  10.887  10.685   1.632  0.2720  1.7930 -0.5551
30879SOL    HW297958  10.923  10.727   1.773  0.6603  1.4806 -0.5564
30880SOL     OW97959   5.337  10.810   7.937 -0.2788  0.5217  0.4133
30880SOL    HW197960   5.267  10.745   7.944  0.3504 -0.3131 -0.6601
30880SOL    HW297961   5.417  10.761   7.955  0.1607  1.1292  0.1526
30881SOL     OW97962   0.138   2.749   9.610  0.1546 -0.2448 -0.0970
30881SOL    HW197963   0.064   2.688   9.611 -0.5112  0.4816 -1.4661
30881SOL    HW297964   0.141   2.786   9.698 -0.0982 -1.4614  0.4335
30882SOL     OW97965   0.931   6.126   3.339 -0.0606  0.0929  0.1464
30882SOL    HW197966   0.893   6.142   3.253 -0.7623 -1.7219  0.0881
30882SOL    HW297967   0.959   6.213   3.369  0.2532  0.7629 -1.9094
30883SOL     OW97968   6.673   7.795   8.875 -0.7251  0.1524  0.2262
30883SOL    HW197969   6.630   7.731   8.932 -0.1570  0.1577  0.6707
30883SOL    HW297970   6.728   7.847   8.934 -0.8914  0.8082 -0.1847
30884SOL     OW97971   1.607   3.251   2.357  0.0959  0.0507 -0.0606
30884SOL    HW197972   1.662   3.291   2.425 -1.0588  0.0363  0.9296
30884SOL    HW297973   1.564   3.325   2.315 -0.6351 -0.0344  0.5229
30885SOL     OW97974   1.228   3.367   7.783  0.2413 -0.3302 -0.2400
30885SOL    HW197975   1.148   3.356   7.731 -0.2707  1.1816  0.1949
30885SOL    HW297976   1.219   3.304   7.854 -0.3379 -0.4910 -0.4508
30886SOL     OW97977   9.463   1.758   8.032  0.2881  0.0031  0.0800
30886SOL    HW197978   9.422   1.707   8.102 -0.3650 -1.5797 -1.3600
30886SOL    HW297979   9.466   1.697   7.958  1.2898  1.4872 -1.1531
30887SOL     OW97980   6.924   4.676   3.780 -0.3566 -0.1365 -0.3031
30887SOL    HW197981   7.000   4.651   3.832  0.2107  2.3167  0.2086
30887SOL    HW297982   6.848   4.651   3.833  0.0637 -2.1102 -0.5751
30888SOL     OW97983   6.472   4.404   5.116 -0.2569  0.1764  0.1914
30888SOL    HW197984   6.484   4.437   5.205  0.5831 -1.6712  0.8150
30888SOL    HW297985   6.535   4.333   5.108 -0.0333  0.5507 -2.0408
30889SOL     OW97986   4.465   3.154   8.702  0.2821  0.0283  0.2766
30889SOL    HW197987   4.380   3.186   8.732 -0.9153 -1.7419 -0.9864
30889SOL    HW297988   4.474   3.068   8.743  0.7167 -0.4701 -0.8280
30890SOL     OW97989   8.610   9.834   0.450  0.3079  0.2029  0.0661
30890SOL    HW197990   8.664   9.890   0.506  0.3993  0.3396 -0.1578
30890SOL    HW297991   8.523   9.837   0.490  0.2554  0.7029 -0.0858
30891SOL     OW97992   3.554   7.629   0.459 -0.0835  0.1428 -0.0304
30891SOL    HW197993   3.637   7.587   0.436 -1.4333 -2.7607 -0.0991
30891SOL    HW297994   3.492   7.598   0.393 -2.0102 -0.8573  2.0805
30892SOL     OW97995   6.043  11.623  11.767 -0.0591  0.5684 -0.0633
30892SOL    HW197996   6.071  11.569  11.841  1.6379 -0.9972 -1.7362
30892SOL    HW297997   6.119  11.677  11.746  0.1669 -0.3088 -1.7285
30893SOL     OW97998   0.088   9.471  11.170  0.1566  0.7769 -0.1348
30893SOL    HW197999   0.124   9.392  11.129  0.9791 -0.2711  2.4121
30893SOL    HW298000   0.023   9.438  11.232 -1.9972  2.3868 -1.4113
30894SOL     OW98001   5.786   5.173   8.831  0.3376  0.3976  0.0962
30894SOL    HW198002   5.721   5.124   8.779  0.9861  0.0685 -0.4220
30894SOL    HW298003   5.734   5.224   8.893 -0.5045  1.3981 -1.3794
30895SOL     OW98004  10.938   3.456   4.130 -0.0906  0.2245  0.0715
30895SOL    HW198005  10.850   3.486   4.108  0.1866  1.6063  0.7793
30895SOL    HW298006  10.982   3.533   4.165  1.3971 -0.4573 -0.2274
30896SOL     OW98007   5.652   2.381   7.271 -0.2234  0.6894  0.5932
30896SOL    HW198008   5.628   2.302   7.320 -1.8970  0.2357 -0.8511
30896SOL    HW298009   5.739   2.362   7.237 -0.3793 -0.3304  0.7054
30897SOL     OW98010   5.041  11.407  10.800  0.2040 -0.0306 -0.1802
30897SOL    HW198011   5.046  11.394  10.895 -1.5957  0.1355 -0.0391
30897SOL    HW298012   5.066  11.323  10.763 -2.7644 -1.3596  0.5584
30898SOL     OW98013   6.093   5.602   9.121  0.4996  0.4211  0.3971
30898SOL    HW198014   6.042   5.671   9.164 -1.5207  0.0213 -1.1888
30898SOL    HW298015   6.105   5.634   9.031  1.4118 -0.3743  0.2119
30899SOL     OW98016   2.817   5.799   3.510  0.3523  0.0675 -0.7609
30899SOL    HW198017   2.728   5.808   3.477  0.3640 -1.3050 -1.2163
30899SOL    HW298018   2.873   5.819   3.435  0.4316  0.4156 -0.6127
30900SOL     OW98019  11.774  10.640  11.103 -0.0333  0.0146 -0.1368
30900SOL    HW198020  11.867  10.663  11.110  0.2491 -1.0596 -0.1578
30900SOL    HW298021  11.770  10.577  11.031 -0.5992 -0.7932  0.5747
30901SOL     OW98022   7.160   0.752   5.801  0.0966 -0.3819  0.2395
30901SOL    HW198023   7.086   0.727   5.745 -2.4265 -1.7331  3.7442
30901SOL    HW298024   7.231   0.695   5.773 -1.2650 -1.5219 -1.1020
30902SOL     OW98025   5.934   8.428   2.501 -0.8836 -0.4572 -0.6058
30902SOL    HW198026   5.963   8.490   2.568 -0.7613 -0.2224 -0.8707
30902SOL    HW298027   5.926   8.345   2.547 -0.2084 -0.4295 -0.4326
30903SOL     OW98028   2.238   5.572   5.175  0.1470 -0.0482 -0.0009
30903SOL    HW198029   2.252   5.609   5.262  1.0214 -0.6388  0.1315
30903SOL    HW298030   2.271   5.482   5.182  1.4650  0.2906 -1.2716
30904SOL     OW98031   1.784   5.168  10.830  0.2887 -0.5663 -0.3928
30904SOL    HW198032   1.749   5.256  10.841  1.0813 -0.2973  0.0370
30904SOL    HW298033   1.876   5.181  10.808  1.0906 -1.2916  2.1886
30905SOL     OW98034   6.290   8.884   4.173  0.1459 -0.3070  0.1610
30905SOL    HW198035   6.288   8.898   4.268  0.4598  0.2495  0.0948
30905SOL    HW298036   6.281   8.790   4.162 -0.7791 -0.2974  0.7067
30906SOL     OW98037  10.238   1.199  11.338  0.4120 -0.1342  0.2991
30906SOL    HW198038  10.296   1.160  11.403 -0.4390 -0.6890  0.7350
30906SOL    HW298039  10.150   1.181  11.370 -0.0369  2.0316  0.4647
30907SOL     OW98040   5.909   5.388   6.609  1.1698  0.0561  0.6824
30907SOL    HW198041   5.891   5.295   6.595 -0.1880  0.1388  1.6696
30907SOL    HW298042   5.825   5.431   6.592  2.1973  1.3715 -1.6530
30908SOL     OW98043   9.928   7.624   6.120 -0.6166 -0.1134 -0.2944
30908SOL    HW198044   9.977   7.684   6.176 -0.6447  0.5860 -1.0017
30908SOL    HW298045   9.894   7.558   6.180 -0.1484  0.2841  0.4265
30909SOL     OW98046   7.542   9.980  10.653  0.3310  0.2402  0.1685
30909SOL    HW198047   7.521   9.888  10.636 -0.4807  0.8558 -2.7212
30909SOL    HW298048   7.459  10.018  10.683  0.3853  0.2267  0.3323
30910SOL     OW98049   6.261   8.145   1.390 -0.0876 -0.1316 -0.2274
30910SOL    HW198050   6.269   8.055   1.420  1.4605 -0.1560 -0.5971
30910SOL    HW298051   6.241   8.138   1.296  0.1401 -0.1032 -0.2798
30911SOL     OW98052  10.820   7.506   5.844  0.3135  0.2876 -0.3422
30911SOL    HW198053  10.847   7.483   5.755  1.1142  1.3142 -0.3776
30911SOL    HW298054  10.724   7.504   5.841  0.3343 -0.7135 -0.9381
30912SOL     OW98055   2.822   0.730   2.854 -0.4685  0.7899  0.4284
30912SOL    HW198056   2.749   0.679   2.819  0.6386 -1.0399  0.6882
30912SOL    HW298057   2.877   0.667   2.900  1.1636  2.1485  0.4611
30913SOL     OW98058   2.492   4.321  11.823  0.0347 -0.3057 -0.6203
30913SOL    HW198059   2.499   4.226  11.837  1.6323 -0.0526  0.7231
30913SOL    HW298060   2.581   4.348  11.799 -0.1544  0.9854  0.0367
30914SOL     OW98061   9.539   7.667   5.466 -0.2330 -0.2487 -0.7695
30914SOL    HW198062   9.583   7.614   5.532  1.5089  1.9416 -0.0519
30914SOL    HW298063   9.490   7.732   5.516  0.3743  0.8764 -1.6047
30915SOL     OW98064   3.347  10.081   9.753 -0.5588 -0.3355  0.4802
30915SOL    HW198065   3.433  10.106   9.786 -1.1596  1.0501  1.1048
30915SOL    HW298066   3.316  10.015   9.814  0.2936 -1.2771 -0.0924
30916SOL     OW98067   3.824  10.545   1.598 -0.2969  0.1545  0.2592
30916SOL    HW198068   3.913  10.578   1.603 -0.6924  1.4720 -0.8868
30916SOL    HW298069   3.824  10.485   1.524  0.0777 -1.4470  1.4831
30917SOL     OW98070   9.914   1.722   3.372 -0.6649  0.5588 -0.1966
30917SOL    HW198071   9.859   1.664   3.425 -0.5044  0.0556 -0.5727
30917SOL    HW298072   9.879   1.810   3.388 -0.7205  0.3929  0.6052
30918SOL     OW98073   6.450   2.316  10.797 -0.2823  0.0949  0.2821
30918SOL    HW198074   6.376   2.365  10.832 -0.1664 -0.1882  0.9396
30918SOL    HW298075   6.453   2.338  10.704 -1.1191  0.1947  0.2804
30919SOL     OW98076   1.064  11.027   1.142 -0.3695 -0.4623 -0.0186
30919SOL    HW198077   1.049  11.046   1.235  2.1894 -1.5947  0.6883
30919SOL    HW298078   1.043  10.934   1.133  0.2779 -0.5783 -0.3561
30920SOL     OW98079  11.762   1.673   6.067 -0.1172 -0.2260  0.1180
30920SOL    HW198080  11.759   1.640   6.156  0.1172  1.0579  0.6254
30920SOL    HW298081  11.792   1.763   6.076 -1.4174  0.3775 -1.1263
30921SOL     OW98082   5.739   1.807  10.679  0.1734  0.7447  0.6367
30921SOL    HW198083   5.777   1.721  10.659 -0.4464  0.5919  0.1138
30921SOL    HW298084   5.715   1.843  10.594  1.4949  1.9518  0.7353
30922SOL     OW98085   3.018  10.127   1.329 -0.2522 -0.1843 -0.9081
30922SOL    HW198086   3.086  10.084   1.380 -1.7368 -0.9419  0.5341
30922SOL    HW298087   2.998  10.065   1.258 -0.5964 -0.7291 -0.3445
30923SOL     OW98088   3.191   4.034   4.610  0.0421 -0.0120  0.1051
30923SOL    HW198089   3.255   3.999   4.548  1.7372  0.9411  1.2376
30923SOL    HW298090   3.244   4.072   4.680 -1.7941  0.1506  1.4731
30924SOL     OW98091   9.977   7.336   1.018  0.5418 -0.3202  0.3652
30924SOL    HW198092  10.069   7.342   1.045  0.8280  1.7481 -0.9107
30924SOL    HW298093   9.948   7.427   1.008 -1.5543 -0.9283  0.3640
30925SOL     OW98094   1.240   3.260   7.246  0.0292  0.4657 -0.4625
30925SOL    HW198095   1.278   3.263   7.334  0.6476  0.4854 -0.7270
30925SOL    HW298096   1.303   3.306   7.191 -0.5093  0.7443 -0.8658
30926SOL     OW98097   3.095   4.821   5.408  0.3601  0.3141 -0.5459
30926SOL    HW198098   3.066   4.899   5.363  0.7747  1.8910  1.7339
30926SOL    HW298099   3.032   4.753   5.384  0.6126  0.9927 -3.4385
30927SOL     OW98100  11.290  10.814   4.824  0.4281  0.0657  0.4078
30927SOL    HW198101  11.325  10.740   4.874 -1.3623 -0.3437  1.1403
30927SOL    HW298102  11.227  10.774   4.764  0.4914  0.8653 -0.2000
30928SOL     OW98103  10.849   5.699   2.541 -0.4178 -0.3574  0.1908
30928SOL    HW198104  10.796   5.633   2.496 -0.6716 -0.8641  1.1928
30928SOL    HW298105  10.856   5.771   2.479 -0.8567 -0.9873 -0.6013
30929SOL     OW98106  10.938   5.405   2.332  0.6597 -0.3002  0.3200
30929SOL    HW198107  10.873   5.471   2.353  0.7607  0.6028 -1.9405
30929SOL    HW298108  11.022   5.447   2.350  0.6880 -0.4196  0.4693
30930SOL     OW98109   7.257   9.014   8.790 -0.0189 -0.5108  0.3340
30930SOL    HW198110   7.328   9.048   8.735  1.3482 -0.7534  1.8549
30930SOL    HW298111   7.178   9.052   8.754  1.1047  1.4593 -0.1775
30931SOL     OW98112  11.033   7.740   7.754 -0.6645  0.9688 -0.0264
30931SOL    HW198113  10.958   7.707   7.705 -0.6347 -0.6564  0.9623
30931SOL    HW298114  11.042   7.680   7.828  0.1339  2.5259  1.2178
30932SOL     OW98115   6.437   6.291   6.707  0.4304  0.6365 -0.1828
30932SOL    HW198116   6.392   6.255   6.630  0.7244  2.4913 -1.2911
30932SOL    HW298117   6.367   6.329   6.760  0.3955  0.9309 -0.4376
30933SOL     OW98118   8.199   2.719   4.234 -0.3363 -0.2437  0.2012
30933SOL    HW198119   8.109   2.730   4.265 -0.5796 -4.0878  1.4482
30933SOL    HW298120   8.191   2.658   4.160  1.2355 -0.8940  0.5360
30934SOL     OW98121  10.686  10.658   5.982  0.2829 -0.2499 -0.7017
30934SOL    HW198122  10.628  10.683   6.053 -0.2545  2.0630 -1.8618
30934SOL    HW298123  10.627  10.632   5.911  0.6203  1.5049 -1.6724
30935SOL     OW98124   7.072   0.760  10.120  0.8833 -0.2721 -0.3851
30935SOL    HW198125   7.119   0.785  10.199  0.0337  1.0147 -0.2518
30935SOL    HW298126   7.036   0.673  10.140  2.0568 -0.6864 -0.0018
30936SOL     OW98127   3.237   9.537   4.988 -0.4267  0.5741  0.1834
30936SOL    HW198128   3.238   9.569   4.897 -1.3118  0.6130  0.1747
30936SOL    HW298129   3.328   9.543   5.016 -0.1765  0.7889 -0.6268
30937SOL     OW98130   5.151   0.626   4.737  0.2696  0.1814 -0.5873
30937SOL    HW198131   5.154   0.553   4.677  0.9254 -1.3527  1.2207
30937SOL    HW298132   5.226   0.680   4.714  0.1951 -0.0761 -1.4665
30938SOL     OW98133   9.675  11.014   2.286 -0.0263 -0.1942  0.2063
30938SOL    HW198134   9.746  11.076   2.302 -1.5499  1.6275  0.2197
30938SOL    HW298135   9.660  10.972   2.370 -0.0355  0.5994  0.6072
30939SOL     OW98136  11.234   7.092   3.036 -0.1981  0.1780  0.0876
30939SOL    HW198137  11.180   7.168   3.015 -1.4391 -0.7934 -0.3223
30939SOL    HW298138  11.287   7.121   3.111  0.5194  1.9532 -1.0487
30940SOL     OW98139   1.976   4.547   2.231 -0.0266  0.4655  0.2537
30940SOL    HW198140   1.910   4.586   2.173 -1.0618 -1.1240  0.2869
30940SOL    HW298141   2.054   4.539   2.176 -0.8543 -0.5929 -0.8337
30941SOL     OW98142  10.809   8.164   0.440 -0.0544  0.8063  0.6935
30941SOL    HW198143  10.899   8.132   0.450 -0.8838 -0.8578  4.2850
30941SOL    HW298144  10.819   8.255   0.413  2.5799  0.0097 -1.5779
30942SOL     OW98145   3.100   8.388   1.445  0.4063 -0.5012  0.1743
30942SOL    HW198146   3.160   8.373   1.371 -0.3011  0.6451 -0.6587
30942SOL    HW298147   3.018   8.417   1.404  0.9302  3.3867  1.4265
30943SOL     OW98148  11.456   1.632   8.857 -0.7222 -0.3117  0.3122
30943SOL    HW198149  11.502   1.713   8.833  0.0974 -0.5619  0.9839
30943SOL    HW298150  11.525   1.566   8.865 -1.2092 -0.7444  1.1587
30944SOL     OW98151   1.221   2.635   7.013 -0.0979  0.5492  0.0203
30944SOL    HW198152   1.266   2.624   7.096  1.4022  3.6750 -0.2667
30944SOL    HW298153   1.130   2.609   7.032  0.5498 -0.4191  2.1142
30945SOL     OW98154   3.744   8.045   3.763  0.1893  0.1196 -0.1363
30945SOL    HW198155   3.738   7.980   3.693 -1.4500  0.4551 -0.3506
30945SOL    HW298156   3.773   7.996   3.839 -0.7558 -0.8160 -0.3620
30946SOL     OW98157   1.200   3.091   4.681  0.1973  0.2007 -0.1675
30946SOL    HW198158   1.224   3.003   4.651  0.9502  0.5226 -0.5527
30946SOL    HW298159   1.222   3.147   4.607 -1.2675  0.5970 -0.3227
30947SOL     OW98160   5.233   6.253   0.306 -0.2971 -0.8801  0.2181
30947SOL    HW198161   5.156   6.311   0.311 -0.7082 -1.3044 -0.8621
30947SOL    HW298162   5.200   6.168   0.334  0.0103 -0.8555  0.6503
30948SOL     OW98163   2.113   1.564   0.304 -0.0687 -0.2194 -0.1766
30948SOL    HW198164   2.141   1.655   0.293 -0.3848 -0.0810  0.1300
30948SOL    HW298165   2.032   1.570   0.355  0.5559 -0.7361  0.9286
30949SOL     OW98166  11.031   0.875   5.456  0.0003 -0.1603  1.0405
30949SOL    HW198167  10.946   0.886   5.413 -0.5504  0.2190  2.1845
30949SOL    HW298168  11.089   0.844   5.387 -1.3353 -1.5118  0.4751
30950SOL     OW98169   7.945   3.831   6.678  0.3589 -0.1926  0.1618
30950SOL    HW198170   7.941   3.837   6.582  0.5210 -0.2688  0.1486
30950SOL    HW298171   7.946   3.737   6.695  0.1605 -0.1795  0.2478
30951SOL     OW98172   3.717   1.659   4.679 -0.3454  0.3235  0.1161
30951SOL    HW198173   3.798   1.624   4.717 -0.5660  0.9791  1.2456
30951SOL    HW298174   3.742   1.684   4.590  1.3920  2.6825  1.1287
30952SOL     OW98175   9.937   6.004   8.058 -0.0275  0.1792  0.0286
30952SOL    HW198176   9.887   6.015   7.978 -0.6419 -1.7161  0.0991
30952SOL    HW298177   9.906   6.074   8.116 -0.5849  0.7053 -0.8970
30953SOL     OW98178   2.801   3.590   1.268  0.2729  0.1667  0.4198
30953SOL    HW198179   2.752   3.602   1.349  1.0611  2.7630  0.6290
30953SOL    HW298180   2.788   3.499   1.244 -2.5221  0.1108  1.8068
30954SOL     OW98181   2.635   9.552  10.032 -0.0161 -0.5904  0.1507
30954SOL    HW198182   2.683   9.618  10.082  1.3621 -1.4408  0.0046
30954SOL    HW298183   2.645   9.471  10.082 -0.3886 -1.0167 -0.4375
30955SOL     OW98184   5.317   8.222   7.957 -0.7073 -0.0792  0.0934
30955SOL    HW198185   5.317   8.279   7.880  2.0287  0.3005  0.2991
30955SOL    HW298186   5.288   8.278   8.029 -1.2622  0.1287 -0.2849
30956SOL     OW98187   6.502  10.013   0.320 -0.6131  0.0616 -0.4155
30956SOL    HW198188   6.443  10.077   0.279  0.3020 -0.2066 -2.2224
30956SOL    HW298189   6.525   9.953   0.250  1.6620  0.0298  0.2853
30957SOL     OW98190   9.899   8.823   6.321 -0.0303  0.1773  0.2121
30957SOL    HW198191   9.866   8.837   6.410 -1.4238  0.4474 -0.3254
30957SOL    HW298192   9.894   8.728   6.309 -1.5921  0.2876 -0.1997
30958SOL     OW98193  10.410   8.541  11.135 -0.5415 -0.5884  0.0396
30958SOL    HW198194  10.341   8.601  11.162  0.1086  0.5577 -0.7779
30958SOL    HW298195  10.431   8.566  11.045  0.7907 -1.0437  0.1963
30959SOL     OW98196   4.190   3.919  11.766 -0.1491 -0.4408  1.2293
30959SOL    HW198197   4.207   3.970  11.686 -0.3145 -1.4255  0.5413
30959SOL    HW298198   4.276   3.908  11.806  0.0708 -0.7163  0.6919
30960SOL     OW98199   1.320  10.538   4.996 -0.0082  0.4099 -0.0743
30960SOL    HW198200   1.350  10.625   5.023 -0.6271  0.3643  0.8183
30960SOL    HW298201   1.225  10.547   4.987 -0.1319 -0.2722  0.4558
30961SOL     OW98202  10.353   8.486  11.752 -0.3385 -0.3637 -0.4823
30961SOL    HW198203  10.318   8.407  11.712 -2.4724  0.9899 -1.4345
30961SOL    HW298204  10.289   8.510  11.819  0.3558  0.5017 -0.0995
30962SOL     OW98205  10.004   0.517   5.418 -0.1759 -0.0274  0.8891
30962SOL    HW198206   9.961   0.601   5.403 -2.0015 -0.5504  2.7571
30962SOL    HW298207  10.093   0.541   5.447  0.3488  1.1169 -1.4006
30963SOL     OW98208   8.070  11.545   4.836  0.6335 -0.8029 -0.2904
30963SOL    HW198209   8.051  11.591   4.755 -0.7856  1.0859  1.0164
30963SOL    HW298210   8.163  11.522   4.830  0.2866 -1.8840 -2.9381
30964SOL     OW98211   9.072   4.622   6.418 -0.6463  0.1680  0.4552
30964SOL    HW198212   9.138   4.573   6.466 -1.3550 -1.7430 -0.3934
30964SOL    HW298213   9.061   4.573   6.336 -2.3857  0.9797  0.1537
30965SOL     OW98214   2.639   9.454   9.630 -0.3724  0.2633 -0.3208
30965SOL    HW198215   2.592   9.395   9.571 -0.1846  0.9788 -1.1998
30965SOL    HW298216   2.582   9.530   9.639  0.2560  0.7922 -0.7617
30966SOL     OW98217   4.533   2.945   4.236  0.1544  0.1530  0.7286
30966SOL    HW198218   4.623   2.955   4.267 -0.0374 -1.0798  1.7580
30966SOL    HW298219   4.491   2.889   4.301 -1.0425 -0.2633 -0.3520
30967SOL     OW98220  11.611   8.024   8.176 -0.0383  0.2568  0.4039
30967SOL    HW198221  11.666   8.085   8.127  0.9362  0.0112  1.1704
30967SOL    HW298222  11.566   7.973   8.109  0.9336  0.2197 -0.2305
30968SOL     OW98223  11.052   5.936   6.353 -0.8353  0.6145  0.2916
30968SOL    HW198224  10.993   5.870   6.316  1.5430 -0.0925 -2.7361
30968SOL    HW298225  11.112   5.885   6.409 -0.2945  0.5058 -0.3681
30969SOL     OW98226   6.408   8.034   5.817  0.5044  0.2388  0.3354
30969SOL    HW198227   6.329   7.982   5.800  0.3917  0.6372 -0.3984
30969SOL    HW298228   6.469   7.971   5.857  0.7962 -0.8226 -1.6128
30970SOL     OW98229  11.278   3.360   0.584  0.2639 -0.5055  0.3522
30970SOL    HW198230  11.364   3.322   0.604 -0.0618  0.0692  3.2293
30970SOL    HW298231  11.295   3.453   0.572  0.0442 -0.3601  1.1179
30971SOL     OW98232   5.145   9.978   2.000 -0.2564  0.1290  0.1112
30971SOL    HW198233   5.113   9.912   2.063  0.1505 -1.3611 -1.1769
30971SOL    HW298234   5.073  10.040   1.993  0.2432  1.2313  3.1469
30972SOL     OW98235   6.731   1.516  11.322  0.2188  0.4079 -0.1825
30972SOL    HW198236   6.675   1.498  11.397  0.9438  0.0909  0.2896
30972SOL    HW298237   6.776   1.598  11.344 -0.1352  0.7220 -0.6096
30973SOL     OW98238  11.229  10.927   7.550  0.8288  0.6538  0.6425
30973SOL    HW198239  11.278  10.994   7.598 -0.0095  0.3259  2.0260
30973SOL    HW298240  11.158  10.904   7.609  1.7487 -2.3074  0.7248
30974SOL     OW98241   3.412   9.692   8.933 -0.3201  0.2855 -0.0240
30974SOL    HW198242   3.501   9.682   8.897 -0.4105  0.5276 -0.3198
30974SOL    HW298243   3.393   9.607   8.973 -0.9240 -0.6498 -2.1584
30975SOL     OW98244   5.878  11.056   8.105  0.3494  0.3168  0.4050
30975SOL    HW198245   5.828  11.135   8.123 -0.2826 -0.2065  1.0144
30975SOL    HW298246   5.921  11.072   8.021  1.6653  2.0035  1.3382
30976SOL     OW98247   0.695   9.655   4.872 -0.4067 -0.1360 -0.2519
30976SOL    HW198248   0.751   9.724   4.906 -0.0683  0.3158 -1.6853
30976SOL    HW298249   0.620   9.653   4.932 -0.7732  1.9624 -0.5707
30977SOL     OW98250   7.049   9.710  10.074 -0.0567  0.3147 -1.0388
30977SOL    HW198251   7.051   9.795  10.029  0.5107  0.9754  0.1778
30977SOL    HW298252   7.014   9.730  10.161  0.7836 -0.5538 -0.4847
30978SOL     OW98253   3.689   0.443  11.166 -0.2686 -0.3044  0.4902
30978SOL    HW198254   3.735   0.525  11.185 -0.9267  1.0685 -3.1274
30978SOL    HW298255   3.757   0.376  11.173  1.5333  1.2289 -1.2265
30979SOL     OW98256   5.871   2.873   1.120 -0.6581  0.5649 -1.0383
30979SOL    HW198257   5.952   2.824   1.112 -1.8620 -1.3469 -2.5443
30979SOL    HW298258   5.855   2.878   1.214 -0.8763 -2.8259 -0.7596
30980SOL     OW98259   8.216   8.876  11.458  0.0279 -0.2231 -0.0924
30980SOL    HW198260   8.215   8.948  11.521  1.0003  0.0179 -0.3439
30980SOL    HW298261   8.308   8.855  11.446 -0.1420 -0.3571 -1.3363
30981SOL     OW98262   6.685   5.349   7.401 -0.0337  0.3489  0.5128
30981SOL    HW198263   6.693   5.272   7.344 -1.1439 -0.8181  1.8418
30981SOL    HW298264   6.654   5.418   7.343 -0.8239 -0.7107 -0.3901
30982SOL     OW98265   9.677   6.055  11.378  0.4653  0.0313  0.0317
30982SOL    HW198266   9.733   6.013  11.312 -1.8202 -2.3038 -0.5845
30982SOL    HW298267   9.686   5.999  11.455 -2.5314 -1.7814 -0.7622
30983SOL     OW98268   5.311   4.559   2.684 -0.4682  0.2194  0.0179
30983SOL    HW198269   5.305   4.649   2.717 -0.9587  0.7024 -1.3360
30983SOL    HW298270   5.344   4.509   2.759  0.6724  1.6685  0.5488
30984SOL     OW98271   7.415   5.236   3.893  0.4899  0.2473  0.4998
30984SOL    HW198272   7.326   5.203   3.902  0.9081 -0.8733  0.7016
30984SOL    HW298273   7.468   5.158   3.874  1.1707  1.1447 -1.4910
30985SOL     OW98274   5.874   7.044   1.403  0.2978  0.2414 -0.6989
30985SOL    HW198275   5.784   7.076   1.400  0.1862 -0.0961 -0.9777
30985SOL    HW298276   5.918   7.091   1.332  0.5068  0.9011 -0.1382
30986SOL     OW98277   2.385   1.058   1.376  0.0241  0.2423 -0.4236
30986SOL    HW198278   2.293   1.035   1.362  0.0641  0.2536 -0.7211
30986SOL    HW298279   2.432   0.975   1.364 -0.1699 -0.3341  2.2969
30987SOL     OW98280   9.217  11.016   0.224  0.0819 -0.0740  0.2131
30987SOL    HW198281   9.270  10.983   0.297 -1.8105  0.1701  1.7797
30987SOL    HW298282   9.135  10.967   0.229 -0.3506  0.4178 -1.3678
30988SOL     OW98283   6.303   8.155  11.170  0.2998 -0.1481  0.4260
30988SOL    HW198284   6.271   8.110  11.248  0.6225  0.6797  1.0450
30988SOL    HW298285   6.392   8.123  11.158  0.1639 -0.4643  0.2448
30989SOL     OW98286   4.441  11.466   9.774  0.0635  0.1736  0.4182
30989SOL    HW198287   4.535  11.450   9.782  0.3433  1.6693  0.3285
30989SOL    HW298288   4.433  11.531   9.704 -1.1928 -1.2219 -0.8107
30990SOL     OW98289  10.287   4.004   4.084  0.0447 -0.7453 -0.0661
30990SOL    HW198290  10.217   4.045   4.034 -0.5503 -1.2677  0.3198
30990SOL    HW298291  10.357   4.070   4.087 -0.6928  0.0476  0.1275
30991SOL     OW98292   8.479   5.182   3.184  1.3061  0.2318  0.8854
30991SOL    HW198293   8.409   5.248   3.182  1.6457  0.7269 -3.1195
30991SOL    HW298294   8.549   5.222   3.235  0.1483  1.4216  1.5937
30992SOL     OW98295   0.344   6.447   9.761  0.3779 -0.0759 -0.0531
30992SOL    HW198296   0.432   6.484   9.774  0.4093  0.6768 -2.0989
30992SOL    HW298297   0.312   6.430   9.850  1.5937  1.9864  0.8545
30993SOL     OW98298   7.086   0.394  10.712  0.3250 -0.6223  0.2712
30993SOL    HW198299   7.073   0.406  10.806  0.6747 -1.4759  0.4316
30993SOL    HW298300   7.013   0.442  10.671  1.6228  2.0458  0.8582
30994SOL     OW98301   6.672  10.732   2.847 -0.0036 -0.0436 -0.0100
30994SOL    HW198302   6.621  10.776   2.915 -0.4760 -0.7140  0.0806
30994SOL    HW298303   6.606  10.695   2.789  0.3942  0.8557 -1.0656
30995SOL     OW98304   9.156   7.216   8.249 -0.0750  0.7967  0.2439
30995SOL    HW198305   9.092   7.166   8.198 -0.8625  1.0325  0.9621
30995SOL    HW298306   9.150   7.305   8.214 -0.2498  0.8472  0.3957
30996SOL     OW98307  10.425   2.693   2.142 -0.2641  0.5647 -0.2539
30996SOL    HW198308  10.379   2.776   2.128 -0.7311  0.5360  0.9510
30996SOL    HW298309  10.360   2.636   2.182  0.3707 -0.0082 -0.0155
30997SOL     OW98310   2.575   5.240   8.146  0.1790 -0.5591 -0.1548
30997SOL    HW198311   2.634   5.178   8.103  1.4619  0.1777  0.4782
30997SOL    HW298312   2.613   5.326   8.129 -0.5947 -0.0767  0.4590
30998SOL     OW98313   9.322   7.480  10.653 -0.0481  0.1022  0.0392
30998SOL    HW198314   9.331   7.506  10.561  1.1457  0.4397  0.2310
30998SOL    HW298315   9.378   7.403  10.661  1.7197  1.3937  0.9683
30999SOL     OW98316  11.073  10.004   9.810 -0.0427 -0.4470 -0.2881
30999SOL    HW198317  11.145   9.986   9.750 -1.3230 -1.0560 -1.7130
30999SOL    HW298318  11.111  10.060   9.877  1.8306 -1.0442 -0.7917
31000SOL     OW98319   4.095   0.047  11.594 -0.4127 -0.2587 -0.3716
31000SOL    HW198320   4.150   0.014  11.665  0.4070  2.0887  0.1912
31000SOL    HW298321   4.006   0.035  11.625 -0.0885 -0.1482  0.6307
31001SOL     OW98322   7.526   0.804   3.590  0.3917  0.2735 -0.0685
31001SOL    HW198323   7.431   0.798   3.595  0.3298 -0.0025 -1.3284
31001SOL    HW298324   7.543   0.874   3.527  1.0343  0.9817  0.8731
31002SOL     OW98325  11.595   5.374   3.588 -0.3188  0.0212  0.1294
31002SOL    HW198326  11.539   5.404   3.517  1.7917  1.9406 -0.8369
31002SOL    HW298327  11.678   5.353   3.547  0.0575 -1.7500  1.6521
31003SOL     OW98328  11.423   3.080   6.383  0.3387 -0.2183  0.3418
31003SOL    HW198329  11.493   3.036   6.334  0.9148  1.3373 -0.3035
31003SOL    HW298330  11.445   3.173   6.377 -1.9177  0.3426 -0.0833
31004SOL     OW98331   0.706   0.496   7.313  0.0812 -0.5030 -1.1371
31004SOL    HW198332   0.625   0.507   7.263 -1.1922  0.0581  0.9297
31004SOL    HW298333   0.677   0.482   7.403  2.2682 -1.7761 -0.5566
31005SOL     OW98334   4.446   8.927  10.099 -0.1532 -0.1565 -0.5004
31005SOL    HW198335   4.485   8.900  10.182  0.8874  0.5671 -0.7273
31005SOL    HW298336   4.359   8.889  10.100  0.6081 -2.0009 -0.0333
31006SOL     OW98337  10.443   8.118   4.745 -0.2372 -0.0216 -0.3705
31006SOL    HW198338  10.404   8.140   4.660  0.9684 -0.2324 -0.9982
31006SOL    HW298339  10.368   8.102   4.802 -1.0728  0.2018 -1.3709
31007SOL     OW98340   5.214   5.097   5.388  0.0298 -0.4701 -0.5230
31007SOL    HW198341   5.214   5.137   5.475 -0.6291  0.7648 -1.0632
31007SOL    HW298342   5.285   5.142   5.341 -0.9273  0.3146 -1.2399
31008SOL     OW98343   7.511   1.147   8.337  0.5177  0.0015 -0.4583
31008SOL    HW198344   7.493   1.100   8.419  0.8705 -0.4932 -0.6586
31008SOL    HW298345   7.552   1.229   8.365  0.5797 -0.1348 -0.1369
31009SOL     OW98346   0.981   7.191  11.525 -0.4720 -0.0438  0.3357
31009SOL    HW198347   1.008   7.255  11.460 -2.3246  0.3343 -0.1220
31009SOL    HW298348   1.055   7.186  11.586  0.1453  1.7041 -0.2133
31010SOL     OW98349   8.280   2.343   6.678  0.4824 -0.0597  0.9720
31010SOL    HW198350   8.185   2.351   6.671  0.4740 -0.6795  0.3300
31010SOL    HW298351   8.310   2.431   6.702 -0.1263  0.4560 -0.1258
31011SOL     OW98352   3.497   5.492   2.943 -0.3472 -0.4274 -0.2123
31011SOL    HW198353   3.480   5.472   2.851 -0.1438  0.3533 -0.4222
31011SOL    HW298354   3.420   5.459   2.989 -0.8485 -0.0366 -0.7608
31012SOL     OW98355   6.723   3.160   1.072  0.0986  0.0901  0.2697
31012SOL    HW198356   6.727   3.214   0.993 -1.0680 -1.5745 -1.0307
31012SOL    HW298357   6.648   3.194   1.120 -1.4477 -1.0568 -1.1831
31013SOL     OW98358   8.900   5.833   1.560 -0.3954 -1.2990  0.5507
31013SOL    HW198359   8.845   5.903   1.525 -0.6792 -1.4891  0.6184
31013SOL    HW298360   8.904   5.768   1.490  0.6014 -0.8196  0.1365
31014SOL     OW98361  10.566   9.196   2.421 -0.8874  0.1327  0.2604
31014SOL    HW198362  10.635   9.147   2.376  0.9465  1.5847  1.2981
31014SOL    HW298363  10.568   9.163   2.511 -2.5882 -0.8038 -0.0099
31015SOL     OW98364   5.106  10.025   1.132  0.1340 -0.2015 -0.1019
31015SOL    HW198365   5.087  10.015   1.225  0.3597  2.7124  0.3521
31015SOL    HW298366   5.189  10.073   1.129  1.0639 -1.7783 -1.8683
31016SOL     OW98367   9.924   8.151   4.008  0.0658 -0.9179  0.0290
31016SOL    HW198368   9.833   8.134   4.031 -0.3738  0.2643 -0.8012
31016SOL    HW298369   9.935   8.245   4.017  0.9991 -0.9459 -0.6265
31017SOL     OW98370   7.006   1.143   6.484  0.0585  0.5896  0.2147
31017SOL    HW198371   7.054   1.137   6.566 -0.3897  0.1183  0.4499
31017SOL    HW298372   7.071   1.168   6.419  1.2558 -2.6560 -0.0279
31018SOL     OW98373   9.804   5.778   7.536 -0.0477  0.1920 -0.0025
31018SOL    HW198374   9.739   5.713   7.563 -1.0498  0.6607 -1.1599
31018SOL    HW298375   9.855   5.733   7.468 -1.4178  0.8840 -1.5640
31019SOL     OW98376   6.406   7.622   6.813  0.3285  0.2154  0.0860
31019SOL    HW198377   6.340   7.690   6.800 -0.8038 -0.7967  0.3299
31019SOL    HW298378   6.361   7.554   6.864  1.9593  0.0802  1.4384
31020SOL     OW98379   5.917   4.022   8.779  0.9081  0.5061 -0.6182
31020SOL    HW198380   5.934   3.930   8.798  1.2254  0.6970  0.0785
31020SOL    HW298381   5.841   4.022   8.722 -1.4022 -0.0556  2.2347
31021SOL     OW98382  10.294   0.177   9.857  0.3235 -0.0401  0.0965
31021SOL    HW198383  10.223   0.236   9.879 -2.0236 -2.1171 -1.3235
31021SOL    HW298384  10.339   0.219   9.784 -1.5681 -0.1101 -1.1712
31022SOL     OW98385   1.598   4.048  11.109 -0.0972 -0.3174  0.0401
31022SOL    HW198386   1.555   4.131  11.130  1.3250  0.5325 -0.3333
31022SOL    HW298387   1.593   3.997  11.191 -0.2871  0.4282  0.4982
31023SOL     OW98388   4.567   5.382   2.035 -0.0663  0.3957 -0.1518
31023SOL    HW198389   4.563   5.404   1.942 -0.7357 -0.7782 -0.4250
31023SOL    HW298390   4.592   5.464   2.078  1.9712  0.5558 -1.5047
31024SOL     OW98391   3.916   3.248   5.274  0.2553  0.4440 -0.3323
31024SOL    HW198392   3.842   3.307   5.283  0.0505  0.4031 -1.5379
31024SOL    HW298393   3.919   3.200   5.357 -1.3197  0.1637 -0.4145
31025SOL     OW98394   7.644  10.868   1.905 -0.0000 -0.2891 -0.3024
31025SOL    HW198395   7.589  10.819   1.844  0.9716 -1.0565 -0.6001
31025SOL    HW298396   7.732  10.832   1.891  0.3551 -0.0047  1.0667
31026SOL     OW98397   5.321   2.608   8.400 -0.4214 -0.3786  0.3919
31026SOL    HW198398   5.288   2.590   8.488 -0.7465  1.6621  0.7214
31026SOL    HW298399   5.402   2.658   8.415 -0.5526  0.1043 -0.4640
31027SOL     OW98400   6.303   5.349   8.824  0.0321 -0.2338  0.0535
31027SOL    HW198401   6.285   5.317   8.736  2.1427  1.0973 -0.9459
31027SOL    HW298402   6.351   5.278   8.867 -0.3550 -0.6036 -0.1278
31028SOL     OW98403   6.890   2.385   7.947 -0.0987 -0.1279  0.8736
31028SOL    HW198404   6.910   2.350   7.860 -1.7064  2.8653 -0.8746
31028SOL    HW298405   6.818   2.331   7.979  0.2471 -1.0197  0.1859
31029SOL     OW98406   6.825  10.372  10.927 -0.8769 -0.0887  0.2529
31029SOL    HW198407   6.842  10.319  10.849 -0.3627  0.7403 -0.2241
31029SOL    HW298408   6.736  10.406  10.915 -0.8026  0.0291  0.0200
31030SOL     OW98409  11.819   4.405   3.641 -0.4249 -0.2061 -0.0239
31030SOL    HW198410  11.882   4.404   3.568  0.2804  1.0615  0.5186
31030SOL    HW298411  11.739   4.441   3.603 -0.3748 -0.4960 -0.4060
31031SOL     OW98412   3.687   2.819   6.122  0.1820 -0.9760  0.2749
31031SOL    HW198413   3.694   2.737   6.072  0.0645 -0.6204 -0.3311
31031SOL    HW298414   3.735   2.801   6.203  2.5032 -0.7633 -0.9922
31032SOL     OW98415   2.648   1.747   7.560  0.0202 -0.5338 -0.1637
31032SOL    HW198416   2.562   1.734   7.601 -0.9762 -0.7430 -2.1914
31032SOL    HW298417   2.710   1.711   7.623 -1.2296  0.6745  1.8943
31033SOL     OW98418   8.764   0.806   1.615  0.8190 -0.2607 -0.2472
31033SOL    HW198419   8.826   0.878   1.611  0.9302 -0.3172  0.3433
31033SOL    HW298420   8.744   0.786   1.523  0.2421  0.9788 -0.4077
31034SOL     OW98421  11.000  10.146   8.944 -0.5319  0.0863 -0.0649
31034SOL    HW198422  10.908  10.128   8.963  0.0782 -1.2646  1.9510
31034SOL    HW298423  11.038  10.059   8.928  0.3981  0.6422 -1.0071
31035SOL     OW98424   0.428   3.415   6.547  0.6983 -0.2519 -0.5221
31035SOL    HW198425   0.391   3.494   6.507 -0.0567 -0.2788  0.1094
31035SOL    HW298426   0.498   3.447   6.603  0.5138 -0.0410 -0.4082
31036SOL     OW98427   9.255   7.932   8.841  0.1411 -0.4013  0.2275
31036SOL    HW198428   9.270   7.963   8.930  0.0137  0.7477 -0.1379
31036SOL    HW298429   9.241   8.012   8.790  1.6492 -0.9231 -1.1006
31037SOL     OW98430   6.302   2.878   4.612  0.1529  0.2478  0.4885
31037SOL    HW198431   6.268   2.953   4.660  1.2700  0.7533  0.5213
31037SOL    HW298432   6.392   2.902   4.590 -0.0186 -0.3595 -1.0337
31038SOL     OW98433  11.034   7.109   1.494  0.0619 -0.1571 -0.5240
31038SOL    HW198434  11.125   7.096   1.465  1.2824  2.4303  1.6656
31038SOL    HW298435  11.036   7.088   1.588 -1.8835 -1.0201 -0.6402
31039SOL     OW98436   0.957   6.466   0.489 -0.2231 -0.0056  0.1058
31039SOL    HW198437   0.887   6.520   0.452  0.4380 -0.1773 -1.4684
31039SOL    HW298438   0.920   6.432   0.571 -1.0464  1.9146  0.5808
31040SOL     OW98439   9.472   0.946   8.725  0.1313  0.3681  0.1864
31040SOL    HW198440   9.527   0.905   8.792  1.9902  2.3857  0.0344
31040SOL    HW298441   9.466   0.880   8.656  2.1574 -0.0836  0.3639
31041SOL     OW98442   0.278   1.878   7.665  0.1543 -0.3847  0.0379
31041SOL    HW198443   0.193   1.890   7.621  0.0549  0.5197  0.4526
31041SOL    HW298444   0.263   1.805   7.725 -0.0881 -0.7663 -0.4705
31042SOL     OW98445   8.086  11.440   7.987 -0.2794  0.0041  0.5422
31042SOL    HW198446   8.054  11.466   7.900 -1.1146  0.2496  0.9184
31042SOL    HW298447   8.101  11.523   8.033  0.5639 -0.1165  0.4967
31043SOL     OW98448   5.788  11.220  10.963 -0.7338 -0.0018  0.3008
31043SOL    HW198449   5.867  11.197  11.012 -0.6529 -0.4314 -0.0254
31043SOL    HW298450   5.719  11.168  11.005 -0.4848 -1.1607 -0.6786
31044SOL     OW98451  11.588  11.089   9.410 -0.0225  0.4436 -0.1142
31044SOL    HW198452  11.540  11.047   9.482  0.9553  1.0483  0.9237
31044SOL    HW298453  11.680  11.073   9.430  0.4531  3.5784  0.7194
31045SOL     OW98454   7.067   6.935   9.371 -0.8651  0.1039  0.3032
31045SOL    HW198455   7.074   6.863   9.308 -0.1626 -2.5805  3.1770
31045SOL    HW298456   7.138   6.995   9.346 -0.1589 -1.2105 -1.0541
31046SOL     OW98457  11.015   4.211   8.572  0.6212 -0.0461  0.4234
31046SOL    HW198458  11.066   4.238   8.496 -0.6371 -0.2322 -0.5266
31046SOL    HW298459  11.061   4.248   8.647  2.1334 -0.2245 -0.3880
31047SOL     OW98460   9.573   7.204   1.591 -0.6891 -0.0685  0.6297
31047SOL    HW198461   9.510   7.218   1.520  0.8802 -1.1761 -1.1041
31047SOL    HW298462   9.597   7.112   1.584  2.0246  0.5530  0.3047
31048SOL     OW98463   3.588   0.869   6.270  0.2675  0.6601 -0.5809
31048SOL    HW198464   3.634   0.814   6.208  1.2824  1.4410 -0.5403
31048SOL    HW298465   3.531   0.809   6.318  0.4086 -0.1389 -1.3864
31049SOL     OW98466   2.380   9.014   9.441 -0.1625 -0.8709 -0.1412
31049SOL    HW198467   2.335   9.077   9.498 -2.1499 -0.7251 -1.7667
31049SOL    HW298468   2.374   8.931   9.488 -2.0430 -0.8184 -0.2263
31050SOL     OW98469   7.298   0.288  10.562 -0.0475 -0.4394  0.3091
31050SOL    HW198470   7.357   0.243  10.622 -0.4272 -1.0587  0.2291
31050SOL    HW298471   7.229   0.323  10.618  0.1118 -0.1863  0.3443
31051SOL     OW98472   8.331   5.086   4.548 -0.4122 -0.1635 -0.0359
31051SOL    HW198473   8.423   5.112   4.554 -0.1074 -1.4415  1.5537
31051SOL    HW298474   8.283   5.154   4.597 -0.2440  0.1800 -0.3477
31052SOL     OW98475  10.113   2.777  10.636  0.0223  0.5690 -0.1486
31052SOL    HW198476  10.156   2.857  10.605  0.0799 -0.0540 -1.7917
31052SOL    HW298477  10.023   2.804  10.655  0.4232  1.3201  0.7718
31053SOL     OW98478   4.384   7.945  11.817 -0.6364 -0.2783  0.0819
31053SOL    HW198479   4.369   7.854  11.792  0.7696 -0.6406  0.4759
31053SOL    HW298480   4.436   7.981  11.745 -2.0107  0.5291 -0.5588
31054SOL     OW98481   7.931   7.155   5.508  0.0503  0.6615  0.0816
31054SOL    HW198482   7.973   7.077   5.545 -0.1025  1.1421  1.3296
31054SOL    HW298483   7.993   7.186   5.442 -0.1718 -0.8538 -0.8746
31055SOL     OW98484   2.858   3.693   6.684 -0.1193  0.7809  0.1480
31055SOL    HW198485   2.871   3.625   6.751  0.8496 -1.3290 -2.0028
31055SOL    HW298486   2.775   3.669   6.642  1.0327 -0.1994 -1.7193
31056SOL     OW98487   0.204   5.340   1.435  0.1514 -0.3312  0.1658
31056SOL    HW198488   0.192   5.419   1.488 -0.0334  1.0868 -1.8644
31056SOL    HW298489   0.138   5.279   1.468  1.2803 -0.2813  2.7863
31057SOL     OW98490  11.740   7.348   6.675 -0.4168 -0.2434 -0.3604
31057SOL    HW198491  11.760   7.363   6.768  0.0255 -0.5139 -0.4132
31057SOL    HW298492  11.811   7.390   6.628 -2.2049  2.6921 -0.7074
31058SOL     OW98493   1.117   9.208   5.187  0.2034  0.3398 -0.1871
31058SOL    HW198494   1.169   9.162   5.253  0.4806 -2.8692 -2.4228
31058SOL    HW298495   1.167   9.198   5.106 -1.5196  1.5657 -1.4650
31059SOL     OW98496   7.040  10.576   1.687 -0.1455 -0.2029  0.3949
31059SOL    HW198497   7.029  10.563   1.593 -0.8989 -2.0570  0.7081
31059SOL    HW298498   6.967  10.633   1.713  0.8214  1.4394 -0.3164
31060SOL     OW98499  10.518   5.558   6.040  0.1561  0.3074 -0.6615
31060SOL    HW198500  10.571   5.635   6.061  2.1503 -1.7141  2.4208
31060SOL    HW298501  10.568   5.513   5.971 -0.7981  1.4307 -2.1593
31061SOL     OW98502   6.250  10.258   4.143  0.4819  0.0757 -0.3490
31061SOL    HW198503   6.333  10.304   4.147  0.4175  0.2968 -1.3346
31061SOL    HW298504   6.248  10.204   4.223  0.7085  1.4854  0.6417
31062SOL     OW98505   0.049   9.986   9.474 -0.2809  0.0070  0.5221
31062SOL    HW198506   0.055  10.081   9.479 -0.8832  0.2715 -2.2783
31062SOL    HW298507  -0.023   9.970   9.413  1.3684 -2.1716 -1.0178
31063SOL     OW98508   5.523   4.389   3.927 -0.4651  0.1820 -0.2623
31063SOL    HW198509   5.524   4.376   3.832  0.0911  0.3519 -0.2852
31063SOL    HW298510   5.576   4.317   3.961  0.9906  1.2247 -0.2381
31064SOL     OW98511  10.978  11.775   1.374 -0.9259 -0.5312  0.3424
31064SOL    HW198512  11.037  11.733   1.436  0.0106  1.5382  0.9298
31064SOL    HW298513  10.934  11.844   1.424 -0.8516  0.5770 -1.0330
31065SOL     OW98514   6.860   2.108   3.314  0.2283 -0.6183  0.1046
31065SOL    HW198515   6.826   2.164   3.244  2.7711  0.7030 -0.1799
31065SOL    HW298516   6.878   2.025   3.271  1.3471  0.0395 -0.7525
31066SOL     OW98517   6.949   6.611   6.983  0.3059 -0.5468 -0.0204
31066SOL    HW198518   6.864   6.634   6.947 -0.2089  0.3886  1.6906
31066SOL    HW298519   6.930   6.555   7.058  1.0156  1.4572  1.7397
31067SOL     OW98520   6.332   7.698   0.560  0.0620  0.0593  0.4923
31067SOL    HW198521   6.361   7.609   0.581 -0.0186 -0.0302  0.2234
31067SOL    HW298522   6.388   7.755   0.613  0.4395 -0.1310  0.2985
31068SOL     OW98523  11.771  11.100   8.597  0.5579  0.4651  0.0294
31068SOL    HW198524  11.855  11.143   8.584  0.2820  0.5519 -1.7911
31068SOL    HW298525  11.757  11.051   8.516 -0.7388 -0.2547  0.6626
31069SOL     OW98526   6.450   4.395   0.364 -0.5696 -0.8862 -0.5195
31069SOL    HW198527   6.377   4.457   0.369  0.0040 -0.0371 -2.0268
31069SOL    HW298528   6.475   4.379   0.455 -1.3448  0.3651 -0.0629
31070SOL     OW98529   3.196   0.333   1.374 -0.2074 -0.2836  0.0338
31070SOL    HW198530   3.290   0.317   1.378 -0.3204 -0.9727  0.1093
31070SOL    HW298531   3.157   0.247   1.387 -0.8403 -0.6623 -3.4352
31071SOL     OW98532   9.787   6.691   9.204  0.1412 -0.0651  0.1619
31071SOL    HW198533   9.779   6.781   9.235  0.2932 -0.7755  2.4785
31071SOL    HW298534   9.782   6.638   9.284  2.2147 -1.9860 -0.8710
31072SOL     OW98535  10.589   8.928   6.103  0.4304  0.2270  0.2049
31072SOL    HW198536  10.608   8.892   6.016  0.5214  0.8787 -0.0476
31072SOL    HW298537  10.596   9.022   6.092  0.4980  0.3117  0.9379
31073SOL     OW98538   5.231   5.223  10.390  0.2936  0.3814 -0.4289
31073SOL    HW198539   5.322   5.246  10.409  0.4985 -0.3137 -0.5233
31073SOL    HW298540   5.179   5.288  10.436  0.8480  1.1031 -0.8054
31074SOL     OW98541   5.026  10.951   5.664 -0.4881 -0.1680  0.5723
31074SOL    HW198542   4.945  10.906   5.642 -0.5098  0.4283 -0.6094
31074SOL    HW298543   5.093  10.882   5.661 -0.7334 -0.3864  0.1578
31075SOL     OW98544   8.498   5.324   9.469  0.5690  0.3282  0.3614
31075SOL    HW198545   8.470   5.411   9.497  2.5022  0.8779  0.7333
31075SOL    HW298546   8.516   5.332   9.376  1.9971  0.7129  0.6465
31076SOL     OW98547   4.972   4.045  11.323 -0.0192  0.2927 -0.9385
31076SOL    HW198548   4.904   3.998  11.370  0.1622  1.1256  0.1946
31076SOL    HW298549   4.948   4.036  11.230 -0.4530 -1.2501 -0.7012
31077SOL     OW98550   1.323   0.699   9.102 -0.3830 -0.8117 -0.2684
31077SOL    HW198551   1.339   0.615   9.147  2.2773 -1.0562 -1.4448
31077SOL    HW298552   1.359   0.686   9.015 -1.4763  1.0544 -1.0528
31078SOL     OW98553   4.012   3.865   5.066 -0.7792 -0.0471 -0.1585
31078SOL    HW198554   4.070   3.915   5.009 -1.2554 -0.1249 -0.7152
31078SOL    HW298555   3.969   3.803   5.008  0.3917 -1.6684  0.6404
31079SOL     OW98556   2.536   2.630   2.410  0.2456  0.6748 -0.3657
31079SOL    HW198557   2.442   2.610   2.407 -0.0975  0.9672  3.2795
31079SOL    HW298558   2.579   2.545   2.416 -0.1948  0.5373  1.8929
31080SOL     OW98559   4.866  10.499   4.605 -0.0896  0.1421 -0.3701
31080SOL    HW198560   4.865  10.560   4.530 -1.1302  0.9999  0.3150
31080SOL    HW298561   4.777  10.466   4.610  0.1952 -0.6038 -0.0319
31081SOL     OW98562   3.244   1.058   1.660  0.3242 -0.0363  0.0091
31081SOL    HW198563   3.293   0.997   1.605 -0.7806 -0.2043 -0.8170
31081SOL    HW298564   3.204   1.120   1.599 -1.0760 -0.3310  0.5785
31082SOL     OW98565  11.747   0.565   7.728 -0.2802  0.0084  0.3815
31082SOL    HW198566  11.797   0.557   7.647  1.8237 -0.3809  1.6199
31082SOL    HW298567  11.670   0.510   7.715  0.0668 -0.1335 -1.2878
31083SOL     OW98568   4.817   0.911   8.658 -0.0086 -0.0268 -0.7490
31083SOL    HW198569   4.844   0.972   8.727  0.9783 -0.7354 -0.4830
31083SOL    HW298570   4.725   0.933   8.641 -0.0335  0.6982  0.2217
31084SOL     OW98571   2.150   1.615  10.893 -0.1578 -0.1561  0.8129
31084SOL    HW198572   2.103   1.531  10.890  1.6719 -1.2144 -1.1258
31084SOL    HW298573   2.185   1.619  10.982 -0.3573 -1.4305  0.9773
31085SOL     OW98574   5.867   7.075   2.923  0.0862  0.4008  0.1340
31085SOL    HW198575   5.843   7.087   2.831  0.9507  0.6705 -0.0674
31085SOL    HW298576   5.821   6.996   2.950  0.1302  0.1014 -0.6489
31086SOL     OW98577   6.231   8.564   1.242 -0.4520 -0.4189 -0.2823
31086SOL    HW198578   6.302   8.626   1.260  0.2930 -1.2063 -0.4448
31086SOL    HW298579   6.236   8.549   1.148  0.0827 -1.5412 -0.0948
31087SOL     OW98580   2.097   0.984  10.656  0.0236  0.1461  0.0960
31087SOL    HW198581   2.146   0.931  10.593 -0.7281 -0.8832  0.3570
31087SOL    HW298582   2.159   1.000  10.727  0.1579 -0.6730  0.1689
31088SOL     OW98583   9.029   1.670   9.768  0.0140  0.5310 -0.3405
31088SOL    HW198584   9.051   1.763   9.773  0.9083  0.2415  1.9068
31088SOL    HW298585   9.060   1.633   9.850 -2.1833 -1.3804 -0.2756
31089SOL     OW98586   8.513   1.804   9.418  0.7130  0.3441  0.2795
31089SOL    HW198587   8.451   1.862   9.462 -2.0900 -2.7437  0.8540
31089SOL    HW298588   8.495   1.816   9.325 -1.0155 -0.6737  0.4470
31090SOL     OW98589   1.691   3.635   9.591 -0.8036 -0.1827  0.2612
31090SOL    HW198590   1.653   3.547   9.594 -0.8503 -0.1576  0.4143
31090SOL    HW298591   1.746   3.639   9.669 -1.6353  0.3056  0.8377
31091SOL     OW98592   5.622   4.170   9.077  0.2320 -0.0229 -0.3861
31091SOL    HW198593   5.630   4.076   9.097 -0.6792 -0.2851 -1.1586
31091SOL    HW298594   5.562   4.173   9.002 -0.3565  1.2327  0.1076
31092SOL     OW98595   0.110   2.178   6.161 -0.0927 -0.1890  0.1313
31092SOL    HW198596   0.066   2.263   6.166  0.5091  0.2097 -0.8750
31092SOL    HW298597   0.189   2.189   6.215  0.2545  0.0785 -0.4210
31093SOL     OW98598   9.223   5.195   0.650 -0.0130  0.0080 -0.6291
31093SOL    HW198599   9.292   5.252   0.683 -1.8215  0.7120  2.3232
31093SOL    HW298600   9.236   5.112   0.695 -0.9379  0.0927 -0.1677
31094SOL     OW98601   2.023   9.038   1.680  0.4147  0.7041 -0.1920
31094SOL    HW198602   2.007   8.999   1.766  1.3021  1.3462  0.2763
31094SOL    HW298603   2.109   9.080   1.688  0.6562  0.4913 -1.4940
31095SOL     OW98604   3.208   1.745  10.366  0.1632  0.0669  0.4308
31095SOL    HW198605   3.187   1.755  10.459  1.5848  3.0303  0.5799
31095SOL    HW298606   3.291   1.696  10.366 -0.3407 -0.7965  0.6452
31096SOL     OW98607   6.596   1.664  10.455  0.3901 -0.1230  0.4373
31096SOL    HW198608   6.597   1.715  10.374 -0.4468  0.4348  0.7694
31096SOL    HW298609   6.534   1.593  10.437  0.4632 -0.1963  0.4747
31097SOL     OW98610   4.045  11.046   3.229  0.8493  0.3992 -0.6780
31097SOL    HW198611   4.037  10.953   3.211 -0.8847  0.8184 -2.3680
31097SOL    HW298612   4.031  11.054   3.323  1.7872 -1.0818 -0.3834
31098SOL     OW98613   3.527   8.500   4.634 -0.5398 -0.5459 -0.0449
31098SOL    HW198614   3.619   8.477   4.647 -0.1316  0.4283 -1.0328
31098SOL    HW298615   3.492   8.429   4.580 -0.6704 -1.4728  1.2161
31099SOL     OW98616   3.561   6.627   4.875  0.3570  0.0112 -1.0659
31099SOL    HW198617   3.499   6.656   4.942  3.2131 -0.9382  2.2731
31099SOL    HW298618   3.601   6.708   4.843  1.1909  0.3766  0.7847
31100SOL     OW98619   5.847   3.255   5.638 -0.1470  0.0806  0.6573
31100SOL    HW198620   5.819   3.195   5.568 -0.3990 -0.8667  1.5538
31100SOL    HW298621   5.785   3.327   5.634 -0.8379 -0.5074  0.6236
31101SOL     OW98622   6.740   0.653   6.265 -0.0969 -0.1586  0.1760
31101SOL    HW198623   6.691   0.708   6.326  0.6689 -0.3876  1.0155
31101SOL    HW298624   6.797   0.599   6.321 -0.2585 -1.2432 -0.6646
31102SOL     OW98625   8.654   3.058  10.602  0.4596 -0.7336 -0.2781
31102SOL    HW198626   8.611   3.046  10.517  1.7088 -2.8060 -0.6608
31102SOL    HW298627   8.747   3.050  10.584  1.1508  3.1821  0.6230
31103SOL     OW98628   3.195   0.820  11.598 -0.5328  0.1500  0.4801
31103SOL    HW198629   3.190   0.907  11.557  1.5729  1.3758  2.5956
31103SOL    HW298630   3.275   0.782  11.563 -0.5333 -0.2297  0.8926
31104SOL     OW98631   1.872  10.878   5.654 -0.3766  0.2770 -0.0798
31104SOL    HW198632   1.931  10.805   5.636  1.2671  2.0327 -2.4946
31104SOL    HW298633   1.785  10.846   5.629  0.2248 -1.0424 -0.5571
31105SOL     OW98634   4.309  10.694   2.008  0.1514  0.1587 -0.4140
31105SOL    HW198635   4.234  10.733   1.964  1.7479  0.8133 -2.7087
31105SOL    HW298636   4.320  10.747   2.087 -0.5480  1.3786 -1.1063
31106SOL     OW98637   6.526   6.834   5.641 -0.3320 -0.0935  0.0320
31106SOL    HW198638   6.464   6.886   5.692 -1.4638 -0.7333 -0.6726
31106SOL    HW298639   6.504   6.743   5.660  1.9011 -0.4146  1.5772
31107SOL     OW98640   5.234  10.305   6.959 -0.3318  0.3415 -0.0819
31107SOL    HW198641   5.279  10.265   7.033 -1.4947 -0.4510  0.2371
31107SOL    HW298642   5.232  10.398   6.979  0.6452  0.3181  0.1645
31108SOL     OW98643   2.003  11.637   6.199 -0.6593 -0.6087  0.0419
31108SOL    HW198644   1.953  11.718   6.204  0.5174  0.1308 -0.0964
31108SOL    HW298645   2.086  11.656   6.242 -0.2308 -1.6466 -0.2837
31109SOL     OW98646   5.565   5.984   2.099 -0.9423  0.5001 -0.1613
31109SOL    HW198647   5.602   6.034   2.026  0.0872 -0.6468 -0.4586
31109SOL    HW298648   5.481   5.952   2.067 -0.9761  0.8768 -0.4562
31110SOL     OW98649   7.505   2.101   2.715  0.4518  0.2008  0.1197
31110SOL    HW198650   7.493   2.195   2.732 -0.7913 -0.2282  2.0171
31110SOL    HW298651   7.599   2.087   2.721  0.5602  1.1631  1.0175
31111SOL     OW98652   7.623   7.058  10.499 -0.2138 -0.0000 -0.2583
31111SOL    HW198653   7.643   6.969  10.472  2.6869  0.3997  0.2232
31111SOL    HW298654   7.697   7.110  10.467 -0.9906  1.9359  0.9081
31112SOL     OW98655   0.900   7.961   8.998 -0.5256 -0.3883 -0.1000
31112SOL    HW198656   0.849   8.041   9.007  0.5276  0.4553 -1.2106
31112SOL    HW298657   0.865   7.918   8.920 -0.4399 -0.5028 -0.0773
31113SOL     OW98658  11.135   7.947   8.581 -0.0595  0.1579  0.4521
31113SOL    HW198659  11.070   7.879   8.563 -0.0014  0.5513 -1.4372
31113SOL    HW298660  11.120   8.013   8.514  1.8588  0.5676  0.3688
31114SOL     OW98661   4.816   4.034  10.810 -0.6175  0.0144 -0.6003
31114SOL    HW198662   4.755   4.070  10.746 -0.6296  1.4339  0.1733
31114SOL    HW298663   4.865   3.967  10.762 -0.1815  1.4567 -2.2811
31115SOL     OW98664   9.158   4.480   8.321 -0.1459  0.1401  0.5468
31115SOL    HW198665   9.137   4.501   8.230 -1.1850  0.6929  0.8917
31115SOL    HW298666   9.183   4.563   8.360  2.3789 -0.4155  0.2889
31116SOL     OW98667   6.697   1.727  11.773 -0.4605  0.1991 -0.6850
31116SOL    HW198668   6.763   1.666  11.738 -1.3388 -1.8693  0.9995
31116SOL    HW298669   6.614   1.694  11.740 -1.2780 -1.5524  2.6506
31117SOL     OW98670   0.263   9.268  11.609  0.0123  0.4570  0.3233
31117SOL    HW198671   0.338   9.327  11.610 -0.6809  1.4422  2.8924
31117SOL    HW298672   0.187   9.325  11.608 -0.7414 -0.5082 -1.0824
31118SOL     OW98673   9.230   4.822   8.949 -0.1859  0.0587 -0.1221
31118SOL    HW198674   9.270   4.901   8.985  0.5531 -0.6582  0.6749
31118SOL    HW298675   9.290   4.793   8.880 -0.1065 -0.1794  0.0452
31119SOL     OW98676   3.962   8.152   3.551  0.0832  0.4686 -0.0485
31119SOL    HW198677   3.986   8.174   3.461  0.8783 -0.7208 -0.1521
31119SOL    HW298678   3.881   8.101   3.542  0.1588  0.3554 -0.0953
31120SOL     OW98679   5.697   2.152   3.284 -0.1489  0.0728 -0.0870
31120SOL    HW198680   5.693   2.242   3.251 -0.6632 -0.2134 -0.8335
31120SOL    HW298681   5.789   2.128   3.279  0.4024  1.3486  2.3262
31121SOL     OW98682  10.241   5.538  11.068  0.2203 -0.6850 -0.1367
31121SOL    HW198683  10.147   5.536  11.085  0.1705 -0.6618 -0.4055
31121SOL    HW298684  10.266   5.629  11.084  0.1892 -0.6813 -0.1100
31122SOL     OW98685   6.723  10.358   4.097  0.4362 -0.0986  0.1459
31122SOL    HW198686   6.674  10.282   4.067 -0.2226  0.8217 -1.2194
31122SOL    HW298687   6.656  10.420   4.125  0.9851 -0.2595  1.9909
31123SOL     OW98688   0.296   8.671   3.337 -0.0289  0.6730 -0.1579
31123SOL    HW198689   0.219   8.619   3.360  1.1464 -0.9926  0.1884
31123SOL    HW298690   0.341   8.687   3.420  0.5020  0.7828 -0.4580
31124SOL     OW98691   4.846   7.710   5.054 -0.1735 -0.1746  0.2384
31124SOL    HW198692   4.834   7.615   5.061 -1.5209 -0.2049 -1.6844
31124SOL    HW298693   4.932   7.726   5.092  0.3280 -2.2503  0.1150
31125SOL     OW98694   5.269   7.445   8.397 -0.2388  0.1699  0.6464
31125SOL    HW198695   5.255   7.381   8.467 -0.6294 -0.6231 -0.1393
31125SOL    HW298696   5.186   7.492   8.391 -0.7620 -0.8320 -0.3263
31126SOL     OW98697   6.937   3.360   1.332  0.3097  0.2286  0.4536
31126SOL    HW198698   6.977   3.433   1.284 -2.0387  1.9283  0.9325
31126SOL    HW298699   6.843   3.368   1.315 -0.0353 -2.9828  0.1954
31127SOL     OW98700   0.530   6.165  10.256 -0.0562 -0.3143  0.2100
31127SOL    HW198701   0.553   6.190  10.166  0.6540 -1.2522  0.1131
31127SOL    HW298702   0.614   6.148  10.299 -0.3940  0.0380  1.0265
31128SOL     OW98703   3.011  11.258   6.805 -0.3329 -0.2497 -0.0682
31128SOL    HW198704   2.970  11.204   6.873 -1.2456 -0.9728 -1.1695
31128SOL    HW298705   3.072  11.200   6.761  1.1291  0.5348  0.8481
31129SOL     OW98706   9.954   3.858   5.393 -0.6526 -0.4298 -0.5309
31129SOL    HW198707  10.006   3.835   5.470 -1.0682  3.1036  1.0458
31129SOL    HW298708   9.889   3.788   5.385 -0.2671 -1.1848  2.0619
31130SOL     OW98709  11.220   3.662  10.547 -0.5247 -0.3596 -0.2542
31130SOL    HW198710  11.276   3.585  10.556 -0.5071 -0.1879  1.5317
31130SOL    HW298711  11.165   3.643  10.471  1.4476 -0.8236 -1.6538
31131SOL     OW98712  10.545   8.722   6.326 -0.5525  0.3292 -0.5774
31131SOL    HW198713  10.522   8.638   6.286 -2.2893  0.9521 -0.9771
31131SOL    HW298714  10.572   8.777   6.252  0.9044  0.0527 -0.2789
31132SOL     OW98715   9.292   9.194  10.643 -0.0331  0.4287  0.1572
31132SOL    HW198716   9.320   9.118  10.592 -0.2863  1.1087 -1.0229
31132SOL    HW298717   9.348   9.266  10.611 -0.3361  0.9115  0.6941
31133SOL     OW98718  10.006   6.868   4.718  0.4667  0.3868 -0.0513
31133SOL    HW198719   9.977   6.954   4.689 -3.1829 -1.0730 -1.3466
31133SOL    HW298720   9.979   6.809   4.647  2.1104 -1.9516  1.1397
31134SOL     OW98721   5.667  11.673   1.868 -0.1153  0.3144  0.4904
31134SOL    HW198722   5.596  11.632   1.819  0.9575 -0.1962 -0.6722
31134SOL    HW298723   5.719  11.719   1.801  0.3719  1.1058  1.3870
31135SOL     OW98724   5.889   1.081   1.332  0.1632  0.2906  0.7493
31135SOL    HW198725   5.797   1.103   1.346 -0.4767 -0.7937 -1.3431
31135SOL    HW298726   5.914   1.030   1.409 -2.7814 -4.5600 -1.0916
31136SOL     OW98727  10.094  10.554  11.368  0.4905  0.6035 -0.3538
31136SOL    HW198728  10.031  10.620  11.342 -0.3517  0.5211  1.3853
31136SOL    HW298729  10.175  10.603  11.386 -0.3004  1.3084  1.5479
31137SOL     OW98730  10.230   0.051   7.537 -0.3694 -0.5817  0.0006
31137SOL    HW198731  10.286  -0.018   7.572  0.8484 -0.0757 -0.9088
31137SOL    HW298732  10.179   0.080   7.613 -1.2607 -2.7515  0.3291
31138SOL     OW98733   4.029   7.704   3.532 -0.1922  0.4396 -0.6630
31138SOL    HW198734   4.114   7.743   3.512  0.1729 -0.8365 -1.7720
31138SOL    HW298735   3.968   7.778   3.536  1.1385  1.5073  1.3461
31139SOL     OW98736   6.179   6.892  11.713 -0.7800  0.1527 -0.0135
31139SOL    HW198737   6.145   6.938  11.636 -1.5893 -0.8266 -0.2671
31139SOL    HW298738   6.101   6.869  11.763 -0.4238 -1.1214 -0.0036
31140SOL     OW98739   2.934   0.582   6.663 -0.5354  0.2156  0.0498
31140SOL    HW198740   2.936   0.620   6.751 -0.5579  0.0928  0.1039
31140SOL    HW298741   2.909   0.491   6.677  2.2536 -0.6176  0.2096
31141SOL     OW98742   4.761   6.873   8.379 -0.0286 -0.1912 -0.4001
31141SOL    HW198743   4.803   6.898   8.297 -1.0121 -0.7285 -1.0977
31141SOL    HW298744   4.671   6.852   8.354  0.0526 -1.8650  0.5549
31142SOL     OW98745   9.689   0.659  11.265  0.6306  0.8207  0.1129
31142SOL    HW198746   9.645   0.595  11.210  2.2728  0.2242 -0.5679
31142SOL    HW298747   9.687   0.740  11.214 -1.1554  1.2874  0.8352
31143SOL     OW98748   0.746   4.772   3.788  0.0203 -0.5479 -0.1595
31143SOL    HW198749   0.687   4.774   3.712  0.3734  0.3385 -0.4183
31143SOL    HW298750   0.810   4.704   3.767 -0.2263 -0.7133 -0.3894
31144SOL     OW98751   6.378   7.690   8.107 -0.3241  0.0930 -0.1639
31144SOL    HW198752   6.461   7.685   8.153  0.4305  1.2134 -1.3529
31144SOL    HW298753   6.366   7.603   8.068  1.7217  0.6942 -2.3342
31145SOL     OW98754   0.313   0.666   8.885  0.1791  0.2850  0.1485
31145SOL    HW198755   0.369   0.592   8.863 -0.2253 -0.2441  0.8454
31145SOL    HW298756   0.270   0.689   8.803 -0.1319 -0.6407  0.0418
31146SOL     OW98757   3.953   7.122   2.004  0.2964  0.1051 -0.0731
31146SOL    HW198758   3.962   7.173   2.085  0.7136  0.7664 -0.5247
31146SOL    HW298759   3.915   7.184   1.941  1.2869  0.0191 -0.7762
31147SOL     OW98760   3.000   8.593   8.802 -0.4223  0.2244  0.0212
31147SOL    HW198761   2.933   8.567   8.739 -1.5051  0.4553  1.0345
31147SOL    HW298762   3.081   8.594   8.752 -0.5887 -3.1251 -0.5715
31148SOL     OW98763  10.033  10.769   5.646  0.9466 -0.1771  0.1510
31148SOL    HW198764   9.978  10.728   5.579 -1.2066  4.0200 -1.0315
31148SOL    HW298765  10.115  10.790   5.601  0.9487 -0.6552 -0.0718
31149SOL     OW98766   9.618   0.358   8.343 -0.8395  0.6768 -0.0974
31149SOL    HW198767   9.703   0.402   8.332 -0.6607  0.5394  0.6943
31149SOL    HW298768   9.607   0.350   8.438 -1.4910  0.2050 -0.2064
31150SOL     OW98769   3.514   3.874   8.901  0.1269  0.1352 -0.3068
31150SOL    HW198770   3.604   3.880   8.934 -0.3204  0.8575  0.8359
31150SOL    HW298771   3.463   3.927   8.961 -1.0704 -0.2221 -0.9778
31151SOL     OW98772   7.152  11.527   2.475 -0.3693 -0.4577 -0.0627
31151SOL    HW198773   7.242  11.493   2.479  0.2013  1.0592  0.6582
31151SOL    HW298774   7.099  11.459   2.517  0.4863 -1.2114 -0.1666
31152SOL     OW98775  10.787   4.580   9.356  0.3495 -0.3807  0.1632
31152SOL    HW198776  10.771   4.538   9.272  2.3759 -0.0994 -0.4032
31152SOL    HW298777  10.845   4.520   9.402 -0.0784 -0.1399  1.0435
31153SOL     OW98778   3.582   5.940  10.383 -0.3761 -0.0758 -0.4839
31153SOL    HW198779   3.516   5.934  10.452 -1.4811 -0.3433 -1.5060
31153SOL    HW298780   3.573   6.029  10.349 -1.3052 -0.5751 -1.6227
31154SOL     OW98781  10.427   9.644   2.721  0.1874 -0.0955  0.0290
31154SOL    HW198782  10.423   9.631   2.626 -1.1444 -2.1035  0.2799
31154SOL    HW298783  10.429   9.555   2.756  0.2778  0.6102  1.9025
31155SOL     OW98784   6.172   9.159  11.406 -0.2143 -0.6485  0.3861
31155SOL    HW198785   6.079   9.177  11.421 -0.2156 -0.5175  0.2234
31155SOL    HW298786   6.209   9.243  11.380  0.0654 -0.5718  1.0157
31156SOL     OW98787   5.773   2.353   4.072 -0.2721  0.0982  0.4064
31156SOL    HW198788   5.757   2.445   4.053 -0.6509  0.0028  0.2399
31156SOL    HW298789   5.772   2.310   3.986 -0.2479 -0.0809  0.4944
31157SOL     OW98790   4.502   7.445   7.269 -0.5114  0.0839 -0.0790
31157SOL    HW198791   4.586   7.486   7.249 -1.2717  0.8082 -2.0161
31157SOL    HW298792   4.446   7.468   7.195 -2.3216 -0.6806  0.9919
31158SOL     OW98793   3.239   5.176   0.417 -0.2839  0.4020 -0.7048
31158SOL    HW198794   3.156   5.163   0.371 -1.3597 -0.0956  1.2693
31158SOL    HW298795   3.261   5.268   0.402 -1.6849  0.7870 -0.5308
31159SOL     OW98796   7.602   0.392  10.823  0.1480 -0.0747 -0.2329
31159SOL    HW198797   7.649   0.309  10.817 -1.3419 -0.9026 -0.7301
31159SOL    HW298798   7.517   0.370  10.861 -0.4109  1.1588 -0.7150
31160SOL     OW98799   9.863   5.324   5.188  0.0525  0.4818  0.0089
31160SOL    HW198800   9.848   5.236   5.222 -1.7746  0.4943 -0.6620
31160SOL    HW298801   9.952   5.346   5.216  0.4094 -1.4266  0.4846
31161SOL     OW98802  10.843  11.611  11.345 -0.1073  0.1790 -0.1220
31161SOL    HW198803  10.767  11.574  11.302 -1.0892  2.4515 -0.4869
31161SOL    HW298804  10.867  11.546  11.411 -1.3622 -1.3031 -1.0532
31162SOL     OW98805   7.761  10.042   0.564  0.0662  0.1716  0.0197
31162SOL    HW198806   7.848  10.019   0.530  0.4053  0.9981  0.2911
31162SOL    HW298807   7.703  10.037   0.488  0.4397  0.0570 -0.2591
31163SOL     OW98808  10.969   9.085   3.123  0.1751 -1.1418 -0.2068
31163SOL    HW198809  10.962   9.003   3.173 -1.4296 -1.1689 -0.4246
31163SOL    HW298810  10.925   9.066   3.041  0.4341 -0.2675 -0.5522
31164SOL     OW98811   3.831   5.075   0.721 -0.1907  0.3242 -0.4177
31164SOL    HW198812   3.789   5.157   0.695 -1.7631 -0.2908  0.0708
31164SOL    HW298813   3.842   5.027   0.638  2.2245  1.6209 -0.9431
31165SOL     OW98814   2.475  10.055  10.352  0.1734  0.3006 -0.4271
31165SOL    HW198815   2.391  10.099  10.339 -1.1786 -2.0827 -0.3217
31165SOL    HW298816   2.467   9.972  10.304  1.3523 -1.2478  1.8365
31166SOL     OW98817   9.603   7.654   4.253 -0.1311 -0.6055  0.0648
31166SOL    HW198818   9.598   7.746   4.276 -0.3385 -0.4132 -0.7038
31166SOL    HW298819   9.512   7.626   4.246 -0.0898 -1.3086  1.9084
31167SOL     OW98820   0.013   4.895   8.598 -0.3487 -0.6972 -0.3934
31167SOL    HW198821  -0.032   4.906   8.515 -0.0565 -0.4468 -0.5182
31167SOL    HW298822   0.083   4.960   8.597  0.2311 -1.3082 -0.3510
31168SOL     OW98823   5.613   3.792   0.281  0.2479  0.7423 -0.6392
31168SOL    HW198824   5.695   3.801   0.233  0.0906  0.2932 -1.0005
31168SOL    HW298825   5.549   3.766   0.214  0.6630 -3.1282  0.2495
31169SOL     OW98826   0.699   9.420   7.163 -0.0275 -0.3011 -0.6855
31169SOL    HW198827   0.744   9.354   7.111  0.3989  0.9863 -2.0342
31169SOL    HW298828   0.682   9.492   7.102  0.4519  1.2709  0.9298
31170SOL     OW98829   1.662   5.345   4.374 -0.0289  0.0989  0.0832
31170SOL    HW198830   1.625   5.364   4.288 -0.2154  1.3240  0.4087
31170SOL    HW298831   1.630   5.416   4.430  3.4762  1.7898  0.2141
31171SOL     OW98832   7.846  11.767   8.160 -0.4038  0.1451 -0.4949
31171SOL    HW198833   7.785  11.698   8.132  0.5895 -0.0837 -2.2503
31171SOL    HW298834   7.821  11.843   8.106 -0.6779  0.8038  0.5302
31172SOL     OW98835  11.333   3.538   8.303 -0.3435 -0.0379  0.1726
31172SOL    HW198836  11.391   3.486   8.359  0.3551  1.5921  1.0195
31172SOL    HW298837  11.317   3.618   8.352  0.8909  1.8006 -2.2137
31173SOL     OW98838   7.640   9.982   3.908 -0.0514 -0.4847 -0.5107
31173SOL    HW198839   7.655   9.889   3.891  0.4819 -0.2849 -1.2002
31173SOL    HW298840   7.702  10.027   3.850  0.9874  0.2673  1.0973
31174SOL     OW98841  10.422   1.838  10.257 -0.0040  0.7520  0.2195
31174SOL    HW198842  10.333   1.807  10.239  0.8059 -1.0144 -1.0971
31174SOL    HW298843  10.421   1.861  10.350 -1.0533 -2.3012  1.0987
31175SOL     OW98844   7.337   4.832   2.422 -0.5686 -0.2956 -0.8473
31175SOL    HW198845   7.380   4.910   2.387  0.4350 -0.3790  0.1611
31175SOL    HW298846   7.256   4.865   2.461  0.4016  0.4625  0.6407
31176SOL     OW98847   4.938   8.165   3.393 -0.0728 -0.7309  0.0987
31176SOL    HW198848   4.873   8.137   3.458  1.3824 -0.9237  1.5155
31176SOL    HW298849   5.003   8.096   3.391  0.3822 -0.3041 -0.9424
31177SOL     OW98850   6.380   4.411   7.526  0.3267  0.3116 -0.0578
31177SOL    HW198851   6.384   4.316   7.527 -1.4594  0.1600 -1.8244
31177SOL    HW298852   6.463   4.438   7.487  0.4471 -0.5731 -0.4409
31178SOL     OW98853   7.791   8.968   5.898  0.0103 -0.0914 -0.5295
31178SOL    HW198854   7.771   8.984   5.805 -0.3305  0.2214 -0.4045
31178SOL    HW298855   7.804   8.873   5.903 -0.8153 -0.2296 -0.7462
31179SOL     OW98856   4.224   1.312   2.397 -0.1134  0.0740 -0.6221
31179SOL    HW198857   4.298   1.325   2.455  0.2604 -0.4154 -0.9862
31179SOL    HW298858   4.226   1.219   2.375 -0.6498  0.1197 -0.8803
31180SOL     OW98859   5.653  10.115   5.190 -0.2022 -0.2405 -0.4528
31180SOL    HW198860   5.568  10.151   5.166 -0.8609 -0.9568  0.7439
31180SOL    HW298861   5.651  10.110   5.286  0.9769 -0.7765 -0.4414
31181SOL     OW98862   3.444   7.180   5.204  0.3424 -0.0776 -0.2362
31181SOL    HW198863   3.395   7.253   5.167 -0.4189 -0.9424 -0.9458
31181SOL    HW298864   3.385   7.105   5.200  1.9239 -1.3192 -1.7645
31182SOL     OW98865   1.478   6.460   8.897 -0.0851 -0.3764  0.2987
31182SOL    HW198866   1.397   6.500   8.865  1.1883  1.8098 -0.4272
31182SOL    HW298867   1.514   6.415   8.821  0.4644  0.5718 -0.0190
31183SOL     OW98868   1.931   9.118   5.187 -0.0338 -0.0729 -0.1435
31183SOL    HW198869   2.012   9.167   5.175 -0.2698  0.2757 -0.3417
31183SOL    HW298870   1.954   9.047   5.246  0.7524 -0.7708 -1.2537
31184SOL     OW98871   8.457   5.261   5.045  0.6028  0.1612 -0.1621
31184SOL    HW198872   8.550   5.241   5.034  0.3636 -0.3855 -1.3323
31184SOL    HW298873   8.442   5.336   4.986  0.0198 -0.6315 -1.0557
31185SOL     OW98874   3.026   4.462   9.114  0.1591  0.3693  0.0684
31185SOL    HW198875   3.066   4.532   9.063 -0.4002  1.6310  1.2822
31185SOL    HW298876   2.932   4.473   9.099  0.0406  0.2271  0.6782
31186SOL     OW98877   7.211   8.399  10.894 -0.1779 -0.2258 -0.2040
31186SOL    HW198878   7.238   8.308  10.903  1.0765  0.2335  1.0476
31186SOL    HW298879   7.288   8.444  10.858  0.2262  0.7964  1.7817
31187SOL     OW98880   0.746   2.038  10.396  0.5066 -0.1998  1.0533
31187SOL    HW198881   0.759   2.056  10.489 -1.3509  1.3155  1.0901
31187SOL    HW298882   0.762   2.122  10.354 -2.0077  0.0400  0.4342
31188SOL     OW98883   9.898  11.236   1.059  0.1769  0.0316  0.2950
31188SOL    HW198884   9.850  11.177   1.001 -0.1442  0.3484  0.2355
31188SOL    HW298885   9.983  11.193   1.072  0.4309  0.1877 -0.7896
31189SOL     OW98886   4.480   5.577  11.035 -0.3028 -0.7204  0.4653
31189SOL    HW198887   4.543   5.647  11.048 -0.4255 -0.7341  1.1794
31189SOL    HW298888   4.512   5.530  10.957 -0.7252  0.6607 -0.5890
31190SOL     OW98889   6.183   0.947   5.234 -0.0466  0.3559  0.3333
31190SOL    HW198890   6.234   0.866   5.245  0.1343  0.2857 -0.8888
31190SOL    HW298891   6.091   0.918   5.238 -0.0076 -0.1889 -1.6401
31191SOL     OW98892   9.049   1.027   2.297 -0.3226  0.1097 -0.2455
31191SOL    HW198893   9.110   1.055   2.229 -0.7842  0.3194 -0.5781
31191SOL    HW298894   8.965   1.066   2.272 -0.1667  1.5624  1.2871
31192SOL     OW98895   8.346   2.430  11.766  0.0306 -0.0482 -0.4476
31192SOL    HW198896   8.377   2.374  11.837  0.4609 -0.0854 -0.6590
31192SOL    HW298897   8.312   2.508  11.809  0.1931 -0.1153 -0.1942
31193SOL     OW98898  10.798   6.404   4.160 -0.0109 -0.3541  0.2294
31193SOL    HW198899  10.762   6.422   4.247 -0.5089 -0.7518  0.1138
31193SOL    HW298900  10.721   6.395   4.104  0.2984 -0.3993 -0.1931
31194SOL     OW98901   0.902   5.870   0.523  0.0459  0.1380  0.2731
31194SOL    HW198902   0.893   5.870   0.428 -0.3539  1.0425  0.3013
31194SOL    HW298903   0.942   5.955   0.544 -1.2520  0.5862  1.0226
31195SOL     OW98904  10.495   9.368   8.990  0.6887  0.1769 -0.5436
31195SOL    HW198905  10.477   9.408   9.076 -0.4857  0.1419 -0.7527
31195SOL    HW298906  10.564   9.422   8.953  0.1834  1.1029 -0.1771
31196SOL     OW98907   4.801   0.259   1.326  0.2325 -0.2132 -0.9595
31196SOL    HW198908   4.862   0.193   1.293 -0.6024 -1.9532  0.7520
31196SOL    HW298909   4.720   0.242   1.278 -0.2257 -1.0454  0.0583
31197SOL     OW98910   7.269   4.263   0.342  0.1682 -0.4026  0.0661
31197SOL    HW198911   7.176   4.261   0.363 -0.0771 -0.3657 -0.9615
31197SOL    HW298912   7.310   4.204   0.406 -0.6005 -0.6822  0.3093
31198SOL     OW98913   3.310   3.510  10.435  0.6745  0.3809  0.5004
31198SOL    HW198914   3.277   3.581  10.379  0.8682  0.8516  0.9725
31198SOL    HW298915   3.397   3.490  10.400  1.8658  2.3951  2.1209
31199SOL     OW98916   2.594   4.236   4.366  0.5176 -0.0180 -0.3230
31199SOL    HW198917   2.501   4.252   4.376  0.4271 -0.4093 -0.5280
31199SOL    HW298918   2.632   4.323   4.353  0.2475  0.1915  0.2517
31200SOL     OW98919   4.384  10.743  11.597 -0.0651 -0.2724 -0.3204
31200SOL    HW198920   4.299  10.748  11.554  0.1655 -0.3383 -0.8012
31200SOL    HW298921   4.418  10.657  11.572 -0.3507 -0.7235  0.8249
31201SOL     OW98922   9.254   0.051   5.269 -0.5106  0.5000 -0.0841
31201SOL    HW198923   9.291   0.110   5.334 -0.5824 -1.5967  2.0246
31201SOL    HW298924   9.320  -0.019   5.260 -2.2067 -1.3296  0.8750
31202SOL     OW98925   7.016   7.811   4.121 -0.3282 -0.3411  0.0143
31202SOL    HW198926   7.055   7.750   4.058  0.2297 -0.8618  0.8538
31202SOL    HW298927   7.090   7.858   4.159 -0.7572  1.0185 -0.7490
31203SOL     OW98928   7.900   4.111   0.992  0.3076 -0.6666  0.1958
31203SOL    HW198929   7.979   4.165   0.995 -0.4251  0.5156 -0.7579
31203SOL    HW298930   7.909   4.051   1.066  2.3852 -0.9947 -0.2733
31204SOL     OW98931   9.739   1.496  11.746  0.1324 -0.2893  0.0868
31204SOL    HW198932   9.770   1.586  11.759  2.2087 -0.9158 -0.0779
31204SOL    HW298933   9.664   1.487  11.805 -1.4021  2.1156 -1.3480
31205SOL     OW98934   5.124  11.035   7.085  0.2609  0.2541  0.2740
31205SOL    HW198935   5.070  10.988   7.149  0.8432  1.3320  1.6072
31205SOL    HW298936   5.069  11.108   7.057  0.7375  0.9524  1.1087
31206SOL     OW98937  10.238   1.952   1.324 -0.2574  0.2779  0.2299
31206SOL    HW198938  10.259   2.015   1.255  0.6385 -2.6526 -2.4110
31206SOL    HW298939  10.323   1.925   1.359 -0.4944 -0.7054  0.0807
31207SOL     OW98940   6.606  11.623   9.524  0.1210 -0.1600  0.5485
31207SOL    HW198941   6.675  11.689   9.527  0.0106 -0.0055 -0.1985
31207SOL    HW298942   6.654  11.540   9.515  0.3294 -0.3602  2.8583
31208SOL     OW98943   6.012   4.962   5.295 -0.6684  0.1583 -0.2437
31208SOL    HW198944   6.074   4.956   5.369 -0.5038 -0.3882 -0.4191
31208SOL    HW298945   6.032   5.046   5.254  1.4655 -0.9344 -1.6008
31209SOL     OW98946   3.561  10.689   7.310  0.1637 -0.1321 -0.4121
31209SOL    HW198947   3.576  10.631   7.384 -3.2630 -0.7469 -0.0324
31209SOL    HW298948   3.574  10.777   7.346  1.0876 -0.4942  0.1813
31210SOL     OW98949   2.282   3.268   5.201 -0.0554  0.0128  0.2567
31210SOL    HW198950   2.266   3.340   5.262 -1.2938 -0.5571  0.6420
31210SOL    HW298951   2.288   3.311   5.115 -2.6385  0.4686  0.2152
31211SOL     OW98952  10.741   0.257  10.419  0.3567  0.5120 -0.4509
31211SOL    HW198953  10.835   0.257  10.439  0.3605  1.0031 -0.4481
31211SOL    HW298954  10.732   0.198  10.344  0.6095  0.1411 -0.1914
31212SOL     OW98955   3.966   2.075   6.513 -0.2665  0.3891  0.0095
31212SOL    HW198956   3.976   2.061   6.419  1.4493  3.2118 -0.3343
31212SOL    HW298957   3.882   2.120   6.522 -0.4548  0.0721 -0.1634
31213SOL     OW98958   0.051   9.528   4.489 -0.6323 -0.3734 -0.0670
31213SOL    HW198959  -0.023   9.588   4.481  1.1336  1.8222 -0.9362
31213SOL    HW298960   0.045   9.472   4.411 -1.1490  0.0184 -0.3153
31214SOL     OW98961   1.723   0.057   5.388 -0.2758  0.1456 -0.0915
31214SOL    HW198962   1.775   0.051   5.469  0.2161 -2.8856 -0.4846
31214SOL    HW298963   1.639   0.017   5.412 -0.9019  1.1688 -0.5575
31215SOL     OW98964   7.836   4.221   9.411 -0.1978  0.3920  0.1545
31215SOL    HW198965   7.743   4.238   9.398 -0.7609 -0.3961  2.4966
31215SOL    HW298966   7.862   4.170   9.335 -2.1775 -0.9766  0.3179
31216SOL     OW98967   9.414  11.070   6.342 -1.1410  0.1481  0.8285
31216SOL    HW198968   9.508  11.082   6.334 -1.0423 -1.5009 -1.4917
31216SOL    HW298969   9.384  11.146   6.391  1.2231  1.4387  0.4070
31217SOL     OW98970   0.493   5.973   3.898 -0.5088 -0.0069  0.3422
31217SOL    HW198971   0.481   5.888   3.856 -1.2587 -0.3282  1.1849
31217SOL    HW298972   0.473   6.037   3.830  0.6240 -0.4816 -0.4629
31218SOL     OW98973   8.985   4.181   2.878  0.4681  0.4260  0.5639
31218SOL    HW198974   8.914   4.238   2.906  1.4704  0.9818  2.1272
31218SOL    HW298975   9.048   4.239   2.836 -0.6922 -0.2991 -2.3881
31219SOL     OW98976   3.693   2.993   1.716 -0.1192 -0.0038  0.8067
31219SOL    HW198977   3.638   3.063   1.681 -0.0204 -0.6718 -0.7898
31219SOL    HW298978   3.702   3.012   1.809  0.7261  2.6542  0.2488
31220SOL     OW98979   3.636   0.037   1.532  0.0017  0.0629 -0.2351
31220SOL    HW198980   3.680  -0.042   1.500 -1.5702  0.0268 -2.5042
31220SOL    HW298981   3.704   0.104   1.528  0.8042 -0.7264 -0.2949
31221SOL     OW98982   9.476   6.240  10.247  0.0715 -0.0515 -0.5660
31221SOL    HW198983   9.386   6.248  10.213  0.1805  1.8279 -0.5230
31221SOL    HW298984   9.468   6.256  10.341  0.4497  0.1625 -0.5676
31222SOL     OW98985   8.862   2.510   4.946 -0.0755  0.2644 -0.9469
31222SOL    HW198986   8.896   2.590   4.906 -0.9749  0.5785 -1.1075
31222SOL    HW298987   8.841   2.454   4.871  1.1463 -0.3973 -0.8266
31223SOL     OW98988   4.975   3.794   5.479 -0.5403  0.2171 -0.4800
31223SOL    HW198989   5.007   3.776   5.568 -1.1927 -1.2414 -0.5088
31223SOL    HW298990   4.937   3.882   5.485 -0.9514 -0.0184  0.7927
31224SOL     OW98991   6.483   5.246   1.974 -0.2873  0.5649  0.7421
31224SOL    HW198992   6.436   5.196   1.907  1.0209  1.5046 -0.9716
31224SOL    HW298993   6.419   5.311   2.004 -1.0222 -0.1258  0.7113
31225SOL     OW98994   4.931   8.880   1.687  0.6765  0.1978  0.1135
31225SOL    HW198995   4.838   8.903   1.694  0.0665 -2.1147  0.4707
31225SOL    HW298996   4.936   8.825   1.608  1.8823  0.8079 -0.2612
31226SOL     OW98997   8.407   3.963   5.319  0.1112 -0.2984  0.2843
31226SOL    HW198998   8.462   3.894   5.284  0.1644 -0.0243 -0.1828
31226SOL    HW298999   8.467   4.025   5.359  0.3785  1.0822 -2.0705
31227SOL     OW99000  10.407   7.229   3.784  1.4093 -0.1870 -0.4710
31227SOL    HW199001  10.489   7.179   3.785  1.3293 -0.4260 -2.1823
31227SOL    HW299002  10.429   7.313   3.824  1.9403 -0.9977  1.0142
31228SOL     OW99003   4.138   9.318   0.218  0.3720  0.1121  0.0965
31228SOL    HW199004   4.135   9.273   0.134 -0.1089 -0.5989  0.4853
31228SOL    HW299005   4.129   9.411   0.196  1.8968  0.0852 -0.7519
31229SOL     OW99006   9.777   2.649   2.566 -0.4499 -0.5343  0.4171
31229SOL    HW199007   9.764   2.726   2.622 -3.7186 -0.7655  0.2137
31229SOL    HW299008   9.743   2.576   2.617 -1.0979 -1.1533 -0.8494
31230SOL     OW99009   6.253   4.506   3.734 -0.4610 -0.6628  0.0333
31230SOL    HW199010   6.248   4.466   3.820  1.5217  0.5857  0.7925
31230SOL    HW299011   6.174   4.560   3.728 -0.0796  0.1050  1.5536
31231SOL     OW99012   5.775   0.141   9.259 -0.1375  0.3352 -0.0352
31231SOL    HW199013   5.792   0.233   9.283 -0.8768  0.3746  0.3889
31231SOL    HW299014   5.859   0.108   9.228  0.0190  1.3165 -0.7190
31232SOL     OW99015   3.186   0.504  11.461  0.3348 -0.3069  0.8013
31232SOL    HW199016   3.254   0.557  11.503  1.8533 -0.9859 -0.6794
31232SOL    HW299017   3.229   0.467  11.384 -2.2384  0.7127 -1.2735
31233SOL     OW99018   9.174   7.403  11.584  0.6602  0.7644 -0.6173
31233SOL    HW199019   9.253   7.351  11.600  0.5601  0.1568 -1.9442
31233SOL    HW299020   9.179   7.425  11.491 -0.1507  1.7175 -0.4449
31234SOL     OW99021   6.319   8.948   3.654 -0.0718  0.8205 -0.0683
31234SOL    HW199022   6.270   9.030   3.658 -2.1870 -0.4512  2.2405
31234SOL    HW299023   6.345   8.931   3.744 -0.0476 -1.2800 -0.4388
31235SOL     OW99024   3.193   7.959   0.854  0.7381 -0.7493  0.3053
31235SOL    HW199025   3.253   7.897   0.895  0.7526 -1.6402 -0.9862
31235SOL    HW299026   3.145   7.907   0.789 -0.7154  0.1658  0.5981
31236SOL     OW99027   1.813   7.363  10.735 -0.5177  0.3683 -0.6650
31236SOL    HW199028   1.810   7.343  10.641  1.0485  1.2511 -0.9517
31236SOL    HW299029   1.907   7.372  10.754 -0.8837  1.9631  0.5789
31237SOL     OW99030   6.375  11.387   1.708  0.3958  0.4353  0.0120
31237SOL    HW199031   6.344  11.440   1.635  0.4471 -0.7319 -0.8790
31237SOL    HW299032   6.337  11.428   1.785 -0.6373  0.9943 -0.7728
31238SOL     OW99033   0.413   5.930   8.078 -0.3172  0.2075 -0.2486
31238SOL    HW199034   0.464   5.919   8.159  0.5880  0.8955 -0.7094
31238SOL    HW299035   0.453   5.869   8.016  0.5577  1.3698 -0.8739
31239SOL     OW99036   6.907  10.348  10.466  0.4552  0.5273  0.0220
31239SOL    HW199037   6.962  10.413  10.510  1.0811  0.5599 -0.7723
31239SOL    HW299038   6.819  10.365  10.498  0.4119  2.4926 -0.9758
31240SOL     OW99039   6.701   3.903   4.531 -0.1311 -0.1719  0.4439
31240SOL    HW199040   6.723   3.881   4.622 -0.8634 -3.8187 -0.1038
31240SOL    HW299041   6.606   3.916   4.532 -0.0485  0.4583  0.2957
31241SOL     OW99042   7.878   0.183   8.699 -0.0477 -0.2649  0.0981
31241SOL    HW199043   7.813   0.242   8.736  0.9622 -0.5387  2.5277
31241SOL    HW299044   7.927   0.236   8.636 -0.4904  0.8845  0.7067
31242SOL     OW99045   4.820  11.495   1.107 -0.5510  0.7767  0.6808
31242SOL    HW199046   4.817  11.591   1.102  1.0579  0.7848 -0.9849
31242SOL    HW299047   4.909  11.472   1.080 -0.3143 -1.1345  2.7667
31243SOL     OW99048   3.024   3.620   4.283 -0.1830 -0.0559 -0.2166
31243SOL    HW199049   2.943   3.667   4.299 -0.1763 -0.1905  0.2254
31243SOL    HW299050   3.089   3.688   4.266 -0.2615  0.0802  0.0192
31244SOL     OW99051   1.420   6.849   0.473  0.2160 -0.1037 -0.0234
31244SOL    HW199052   1.377   6.769   0.442 -0.0503 -0.3510  0.9449
31244SOL    HW299053   1.348   6.909   0.492  0.4037  0.2735 -0.4559
31245SOL     OW99054  11.094   4.595  10.948  0.2372 -0.0728 -0.0209
31245SOL    HW199055  11.048   4.511  10.947 -0.9632  0.5660  0.5501
31245SOL    HW299056  11.076   4.634  10.862 -0.7385  0.4070  0.3935
31246SOL     OW99057  11.474   7.794   5.383 -0.1530  0.3221  0.1492
31246SOL    HW199058  11.380   7.803   5.399 -0.0739  0.3100  0.6438
31246SOL    HW299059  11.489   7.841   5.301 -0.5344  0.6311  0.2526
31247SOL     OW99060   7.075   8.548   9.421 -0.2006 -0.7407  0.1016
31247SOL    HW199061   7.139   8.492   9.465 -0.7097 -2.4959 -1.3038
31247SOL    HW299062   7.127   8.600   9.360  0.0920 -0.7430  0.3447
31248SOL     OW99063   3.832   0.158   0.016  0.4659 -0.2155  0.0058
31248SOL    HW199064   3.916   0.190  -0.018  0.2891  1.3830  0.9602
31248SOL    HW299065   3.781   0.138  -0.063  1.0653  0.6692 -0.6287
31249SOL     OW99066   0.813   9.467   7.391  1.0753 -0.2220  0.1248
31249SOL    HW199067   0.870   9.543   7.385  3.5627 -1.9837 -0.1436
31249SOL    HW299068   0.792   9.445   7.300  0.0002  0.3417  0.2170
31250SOL     OW99069   4.006   0.904   6.107 -0.5797 -0.1683  0.0841
31250SOL    HW199070   4.000   0.862   6.193  0.9125  0.3111  0.4459
31250SOL    HW299071   3.974   0.993   6.122  1.9327  0.7174  0.7897
31251SOL     OW99072  10.404   0.399   4.274 -0.1805  0.5886 -0.2605
31251SOL    HW199073  10.497   0.399   4.248 -0.0283  0.8586  0.2611
31251SOL    HW299074  10.406   0.381   4.368 -0.5681  1.8226  0.0015
31252SOL     OW99075   5.615  10.358   5.889  0.0537  0.0067 -0.2036
31252SOL    HW199076   5.569  10.275   5.881  0.7716 -0.3038 -1.3453
31252SOL    HW299077   5.693  10.338   5.942 -0.0806  0.0881  0.0262
31253SOL     OW99078   0.492   5.493  10.964 -0.2973 -1.0227  0.3336
31253SOL    HW199079   0.565   5.438  10.991  0.6771 -0.0751 -0.2883
31253SOL    HW299080   0.528   5.547  10.893 -1.6444 -0.6442 -0.0911
31254SOL     OW99081   8.943  11.313   5.848 -0.1646  0.6725 -0.2608
31254SOL    HW199082   9.036  11.314   5.824  0.5853  1.1634  2.3229
31254SOL    HW299083   8.904  11.383   5.796  1.1374  1.1553 -0.6323
31255SOL     OW99084   3.288   9.662   0.336 -0.2719  0.0722  0.4303
31255SOL    HW199085   3.303   9.720   0.261  2.2588 -0.7018  0.2296
31255SOL    HW299086   3.366   9.674   0.391 -1.8638  0.2934  2.7669
31256SOL     OW99087   0.978   6.445   8.775 -0.2190  0.3323  0.3391
31256SOL    HW199088   0.948   6.370   8.827 -4.7599 -0.8478 -3.3055
31256SOL    HW299089   1.013   6.406   8.694 -1.2523  2.0626 -1.0156
31257SOL     OW99090   5.837   3.514   0.111 -0.4137  0.5898  0.1400
31257SOL    HW199091   5.750   3.482   0.091 -0.9570  0.2632  2.6355
31257SOL    HW299092   5.828   3.610   0.110 -0.5287  0.5762 -0.5856
31258SOL     OW99093   6.257  11.020   5.812 -0.0074 -0.6664 -0.4732
31258SOL    HW199094   6.251  11.104   5.858  1.7116 -1.8582  2.1822
31258SOL    HW299095   6.171  10.979   5.826 -0.8220  0.5449 -1.7106
31259SOL     OW99096  11.724   9.349   5.937 -0.1416  0.0121  0.0397
31259SOL    HW199097  11.792   9.300   5.892 -0.4056  0.5370 -0.9587
31259SOL    HW299098  11.737   9.329   6.030  1.7217  0.5218 -0.0632
31260SOL     OW99099   9.606   9.766   7.724  0.3179 -0.4066 -0.4720
31260SOL    HW199100   9.688   9.743   7.680 -0.1071 -1.0333 -0.9610
31260SOL    HW299101   9.631   9.778   7.815  1.1875  0.7685 -0.8361
31261SOL     OW99102   8.132   2.612   6.777  0.3523 -0.3259  0.0801
31261SOL    HW199103   8.194   2.658   6.721  0.6774  0.8367  1.3566
31261SOL    HW299104   8.050   2.613   6.727  0.6997  0.4144 -0.5026
31262SOL     OW99105   9.866   8.443   3.025  0.3877 -0.4367 -0.2629
31262SOL    HW199106   9.879   8.506   2.954  0.4487 -1.3334 -1.0539
31262SOL    HW299107   9.896   8.490   3.103 -0.0311  0.6896 -0.7588
31263SOL     OW99108   1.387   0.288   0.924  0.6318  0.3020  0.2121
31263SOL    HW199109   1.442   0.220   0.886  0.4385 -0.4512  1.2094
31263SOL    HW299110   1.340   0.243   0.995 -1.4868  0.8316 -0.7721
31264SOL     OW99111  11.510   2.339   7.794 -0.8545 -0.3449 -0.3128
31264SOL    HW199112  11.454   2.400   7.747  0.7620  0.4481 -1.3078
31264SOL    HW299113  11.517   2.263   7.736  1.6436  0.8831 -1.8232
31265SOL     OW99114   0.088   9.050   0.691 -0.0683  0.6254  0.1844
31265SOL    HW199115   0.080   8.981   0.757 -0.0660 -1.1410 -1.5677
31265SOL    HW299116   0.079   9.132   0.740 -0.9830 -0.6233  2.2202
31266SOL     OW99117   4.110   5.127   5.574  0.0678  0.2616  0.1239
31266SOL    HW199118   4.051   5.095   5.642  0.4972  0.6232  0.6688
31266SOL    HW299119   4.081   5.082   5.494 -0.6493  0.0915  0.4759
31267SOL     OW99120   3.798   3.888   8.964 -0.0696  1.0187  0.0952
31267SOL    HW199121   3.796   3.980   8.987 -0.4506  0.7180  1.3804
31267SOL    HW299122   3.887   3.871   8.935  0.6062  1.3536  1.8597
31268SOL     OW99123   7.683   3.943   4.305  0.0438  0.1659  0.2655
31268SOL    HW199124   7.735   3.990   4.239  2.4039 -2.4565  0.0705
31268SOL    HW299125   7.595   3.980   4.297  0.1098 -0.0771 -4.4832
31269SOL     OW99126  11.228  10.074   1.592 -0.4944  0.3698 -0.2421
31269SOL    HW199127  11.174   9.999   1.569  0.2354  0.2014 -1.4953
31269SOL    HW299128  11.307  10.036   1.630  1.3058  0.2222 -3.7454
31270SOL     OW99129   9.167   2.308   6.713  0.5651  1.0523  0.7247
31270SOL    HW199130   9.255   2.289   6.681  0.2397 -0.3640  0.6078
31270SOL    HW299131   9.112   2.241   6.673 -0.4311  1.4000  1.4721
31271SOL     OW99132   3.026   1.207   0.384  1.0365  0.5823 -0.6272
31271SOL    HW199133   3.082   1.132   0.406  0.7774  0.7574  0.6959
31271SOL    HW299134   2.937   1.176   0.401  0.9693  1.4052  0.6156
31272SOL     OW99135   9.651   0.801   4.988 -0.1731  0.1015  0.2110
31272SOL    HW199136   9.603   0.722   4.966  1.6457 -0.4816 -1.9760
31272SOL    HW299137   9.622   0.866   4.924 -1.1193  1.0455  1.5420
31273SOL     OW99138   7.131  11.180   9.956  0.3442  0.0453  0.2872
31273SOL    HW199139   7.163  11.109   9.901  1.2963  0.6222  0.0898
31273SOL    HW299140   7.037  11.183   9.939 -0.1780 -2.6539  1.9766
31274SOL     OW99141   6.129  10.958   7.069  0.1843  0.2381 -0.5066
31274SOL    HW199142   6.115  10.891   7.001 -0.2885 -1.4370  1.1606
31274SOL    HW299143   6.046  11.004   7.075 -0.1530 -0.3915 -0.2727
31275SOL     OW99144  10.178   3.109   5.921  0.4696 -0.3695 -0.4501
31275SOL    HW199145  10.128   3.177   5.966  0.0095 -2.5291  2.6313
31275SOL    HW299146  10.259   3.152   5.894  0.1630  1.4420  1.3187
31276SOL     OW99147   2.850   2.568   1.610  0.0898 -0.4043 -0.1171
31276SOL    HW199148   2.829   2.506   1.679 -0.5490  0.5011  0.5287
31276SOL    HW299149   2.938   2.598   1.630 -0.0061 -0.3166  0.1830
31277SOL     OW99150   7.537   0.565   0.012 -0.0147 -1.0965  0.1414
31277SOL    HW199151   7.529   0.576   0.107  2.5038  0.8915  0.2360
31277SOL    HW299152   7.484   0.635  -0.025 -1.1841 -2.0117  0.0193
31278SOL     OW99153   9.591   3.693   7.842 -0.2322 -0.3419 -0.1401
31278SOL    HW199154   9.649   3.642   7.899 -0.5448 -1.0972 -0.4858
31278SOL    HW299155   9.573   3.635   7.768 -2.1297 -0.4675  0.3714
31279SOL     OW99156   9.378   8.384  11.823  0.0808  0.3381 -0.2850
31279SOL    HW199157   9.467   8.389  11.789  0.0867 -0.1387 -0.3420
31279SOL    HW299158   9.387   8.394  11.918  0.3008 -0.7094 -0.1793
31280SOL     OW99159   9.427  11.679   5.200 -0.1288 -0.0011 -0.2034
31280SOL    HW199160   9.437  11.585   5.212 -0.9746 -0.1343 -0.4753
31280SOL    HW299161   9.455  11.695   5.110 -2.0664 -0.3596 -0.9326
31281SOL     OW99162   7.508   5.239   7.758  1.0330  0.1872  0.8917
31281SOL    HW199163   7.590   5.204   7.722  1.2458 -0.9545  2.3754
31281SOL    HW299164   7.462   5.162   7.791 -1.6951  0.5106 -1.8063
31282SOL     OW99165  10.594   3.230   6.916 -0.0024 -0.3366  0.5344
31282SOL    HW199166  10.609   3.203   6.825  0.2712  0.8603  0.2127
31282SOL    HW299167  10.576   3.324   6.911  1.1561 -0.0083  1.8360
31283SOL     OW99168  11.055   0.444   5.697 -0.0112 -0.3747  0.2035
31283SOL    HW199169  11.039   0.507   5.627 -0.6226 -1.3214 -0.5351
31283SOL    HW299170  11.105   0.374   5.654  1.7618  0.1414  1.2862
31284SOL     OW99171   8.983   6.807   7.120  0.1372  0.1393  0.3273
31284SOL    HW199172   9.001   6.751   7.195 -0.9928  0.6490  0.9954
31284SOL    HW299173   8.888   6.801   7.107 -0.2800  3.0697  1.3963
31285SOL     OW99174   2.420   8.615   0.752 -0.2410 -0.3527  0.3858
31285SOL    HW199175   2.462   8.699   0.767 -0.0621 -0.0867 -1.3958
31285SOL    HW299176   2.452   8.587   0.666 -2.3401 -0.9499 -0.2741
31286SOL     OW99177   5.044  11.031   8.901  0.2539  0.6546  1.0138
31286SOL    HW199178   5.101  10.959   8.872 -0.9600  0.0189  0.1410
31286SOL    HW299179   4.987  10.992   8.966 -0.0976  0.9465  0.8820
31287SOL     OW99180  11.404   1.877   9.065  0.6324 -0.0726  0.3758
31287SOL    HW199181  11.408   1.788   9.099  1.2078 -0.1039  0.2312
31287SOL    HW299182  11.483   1.887   9.012 -0.8286 -0.4659 -2.0534
31288SOL     OW99183  11.756   4.480   9.917 -0.4493  0.0108  0.4301
31288SOL    HW199184  11.692   4.410   9.927 -1.2163  0.3249 -1.7543
31288SOL    HW299185  11.738   4.517   9.831  0.2227  2.6256  1.3378
31289SOL     OW99186   9.348  10.203   1.928 -0.2188  0.1789  0.2965
31289SOL    HW199187   9.351  10.232   1.837  0.1097 -0.8686 -0.0389
31289SOL    HW299188   9.267  10.240   1.962  1.0297  3.0495  0.4705
31290SOL     OW99189   7.389   6.260   1.973 -0.1663 -0.1085 -0.0085
31290SOL    HW199190   7.468   6.226   2.015  0.6852  2.6430  0.8033
31290SOL    HW299191   7.323   6.261   2.043  0.3674  1.5861  0.5154
31291SOL     OW99192   1.450   5.200   8.331  0.1423  0.0262 -0.0022
31291SOL    HW199193   1.497   5.226   8.251 -0.8973  1.2164 -0.2435
31291SOL    HW299194   1.518   5.198   8.398  0.6088  1.5989 -0.3717
31292SOL     OW99195   3.161   9.652   1.689 -0.2071 -0.2084  0.2726
31292SOL    HW199196   3.117   9.636   1.772 -0.9734  0.6358  0.0459
31292SOL    HW299197   3.094   9.690   1.633  0.5426  0.1103 -0.4298
31293SOL     OW99198   5.389  10.205   5.640 -0.3574  0.4101 -0.9067
31293SOL    HW199199   5.352  10.280   5.686  0.0164 -0.9493  1.8198
31293SOL    HW299200   5.315  10.165   5.594 -2.1603 -1.2353  2.9748
31294SOL     OW99201   6.083   2.140   7.009  0.1111  0.2472  0.4301
31294SOL    HW199202   6.123   2.206   7.065  1.4525  1.0647 -1.4010
31294SOL    HW299203   6.136   2.061   7.024  0.8088  0.6134 -0.0835
31295SOL     OW99204   4.803   4.036  10.185 -0.4217 -0.1180  0.1877
31295SOL    HW199205   4.848   4.070  10.108 -1.2753 -0.2347 -0.3709
31295SOL    HW299206   4.870   4.035  10.254  0.0800  0.9646 -0.2695
31296SOL     OW99207   3.155   0.933  10.836 -0.7374  0.3220  0.2039
31296SOL    HW199208   3.219   0.873  10.873 -1.3847  0.3719  1.4661
31296SOL    HW299209   3.201   0.976  10.764  0.4753  0.0120  0.7703
31297SOL     OW99210   1.291   8.970   6.806  0.4755 -0.0884 -0.3114
31297SOL    HW199211   1.313   9.059   6.831  0.8435 -0.1747 -0.3129
31297SOL    HW299212   1.243   8.978   6.724 -2.4949  0.3394  1.3554
31298SOL     OW99213   0.051  10.969   2.246  0.0720  0.0485  0.6749
31298SOL    HW199214  -0.003  10.903   2.290 -0.5089  0.7662  1.0595
31298SOL    HW299215   0.025  11.052   2.286  1.8753  0.3653  1.2888
31299SOL     OW99216   8.394   8.018  10.436 -0.7371  0.0411  0.5124
31299SOL    HW199217   8.345   8.089  10.394 -0.9120 -0.3730 -0.0016
31299SOL    HW299218   8.327   7.958  10.467 -0.5656 -0.7926 -0.6602
31300SOL     OW99219   5.244   9.803   7.653 -0.4728 -0.4636  0.1051
31300SOL    HW199220   5.157   9.769   7.668 -0.6835 -1.3327 -2.5548
31300SOL    HW299221   5.299   9.726   7.642  0.4246  0.0736  0.6445
31301SOL     OW99222   7.566   8.834  10.576 -0.5795  0.3444  0.2583
31301SOL    HW199223   7.602   8.828  10.488  0.8045 -0.7452  0.8726
31301SOL    HW299224   7.480   8.791  10.570 -0.0171 -0.7218 -0.3174
31302SOL     OW99225   4.259   7.230   4.037 -0.2827  0.3541  0.2433
31302SOL    HW199226   4.341   7.197   4.074 -0.5770  0.5905  1.1184
31302SOL    HW299227   4.200   7.239   4.112 -0.1849  3.0072  0.0976
31303SOL     OW99228   8.857  11.275   4.569  0.3884 -0.0599 -0.1311
31303SOL    HW199229   8.872  11.192   4.614  1.2759  1.1210  1.9062
31303SOL    HW299230   8.813  11.330   4.634  2.9732  2.1967 -0.1002
31304SOL     OW99231  11.055   4.047   3.554  0.1022  0.6765 -0.7918
31304SOL    HW199232  10.986   4.113   3.565  1.1626  1.6236  0.5594
31304SOL    HW299233  11.136   4.094   3.576  1.0749 -0.6525 -1.4339
31305SOL     OW99234   4.685   2.961  11.142 -0.2505 -0.1199 -0.3849
31305SOL    HW199235   4.766   2.930  11.103  0.0075 -0.8103  0.6676
31305SOL    HW299236   4.712   3.008  11.221 -0.8486  0.0437 -0.2692
31306SOL     OW99237   6.476   4.495   5.829  0.3761  0.1657  0.5535
31306SOL    HW199238   6.539   4.427   5.804 -0.8025 -1.3998  1.6088
31306SOL    HW299239   6.525   4.553   5.886  0.9497 -0.8707  1.1476
31307SOL     OW99240   8.331   2.556   8.552  0.7699  0.4104 -0.0796
31307SOL    HW199241   8.398   2.623   8.566 -0.0449  1.2503 -0.1274
31307SOL    HW299242   8.355   2.517   8.468  1.4550  0.3892  0.1149
31308SOL     OW99243   1.751  11.436   3.887 -0.0322 -0.6265  0.5677
31308SOL    HW199244   1.806  11.410   3.814 -0.3265 -1.2403  0.5613
31308SOL    HW299245   1.679  11.485   3.847 -0.3856 -1.2688  0.4018
31309SOL     OW99246   9.815  11.150   0.312  0.8660  0.2522  0.0709
31309SOL    HW199247   9.890  11.210   0.312 -0.1970  1.6428 -1.1690
31309SOL    HW299248   9.841  11.081   0.251  2.0629 -0.5790  1.4390
31310SOL     OW99249  10.382   2.510   2.971 -0.1130 -0.0603 -0.4315
31310SOL    HW199250  10.341   2.531   2.887 -1.6818  0.8261  0.4928
31310SOL    HW299251  10.426   2.427   2.956 -0.5001 -0.0080 -2.0851
31311SOL     OW99252   0.209  11.288   5.027  0.6444  0.6238  0.3657
31311SOL    HW199253   0.264  11.298   4.949 -1.4849  3.3971 -0.9448
31311SOL    HW299254   0.269  11.254   5.094  2.7009 -1.4442 -2.2536
31312SOL     OW99255  10.592   2.176   8.562 -0.0428 -0.4404 -0.0587
31312SOL    HW199256  10.529   2.203   8.629 -2.4052 -0.1301 -2.2492
31312SOL    HW299257  10.675   2.215   8.590 -1.7974  3.2944  0.5644
31313SOL     OW99258   3.279   6.129   0.661  0.2037  0.1433 -0.4818
31313SOL    HW199259   3.185   6.143   0.666  0.1075 -0.2013 -1.1822
31313SOL    HW299260   3.300   6.081   0.742 -0.3362 -0.3712 -0.6359
31314SOL     OW99261   9.532   5.897  10.775  0.2697  0.1206  0.5245
31314SOL    HW199262   9.554   5.984  10.743  2.5521 -0.7003 -0.3351
31314SOL    HW299263   9.555   5.899  10.868 -1.7536  1.0290  1.0635
31315SOL     OW99264   6.553   1.995   5.416 -0.4308 -0.1223 -0.3522
31315SOL    HW199265   6.504   2.057   5.470 -1.2871 -1.9677  1.1245
31315SOL    HW299266   6.645   2.019   5.428 -0.6400 -0.0955  1.4767
31316SOL     OW99267   4.272   9.415   7.216  0.1050 -0.5109 -0.4913
31316SOL    HW199268   4.364   9.436   7.205  1.0660 -3.4231  0.9986
31316SOL    HW299269   4.246   9.462   7.296  1.3641 -2.3326  1.0886
31317SOL     OW99270   8.787   8.442   7.283  0.4314  0.5819 -0.0994
31317SOL    HW199271   8.715   8.461   7.343  1.1222  2.1896  0.2768
31317SOL    HW299272   8.749   8.453   7.196 -0.5676 -1.7305 -0.0176
31318SOL     OW99273   4.826   7.992   0.771  0.6045  0.1997 -0.4034
31318SOL    HW199274   4.884   8.065   0.746 -0.4398  1.2513  0.1161
31318SOL    HW299275   4.805   8.010   0.863  1.2566 -1.4306  0.0921
31319SOL     OW99276  11.249   2.245  11.456 -0.4508 -0.4566 -0.3557
31319SOL    HW199277  11.326   2.282  11.499  0.0206 -0.4307 -1.2036
31319SOL    HW299278  11.260   2.150  11.464 -0.7807 -0.4464  0.2878
31320SOL     OW99279   5.791   7.900   3.352  0.3649 -0.3669 -0.1747
31320SOL    HW199280   5.743   7.857   3.280  2.3033 -0.8352 -1.2658
31320SOL    HW299281   5.838   7.828   3.395  0.2244  0.0963  0.7740
31321SOL     OW99282   1.687  10.417   0.977 -0.4108 -0.2441 -0.1603
31321SOL    HW199283   1.656  10.506   0.995 -0.9827 -0.1497 -1.5279
31321SOL    HW299284   1.648  10.394   0.893  1.4398 -0.9737 -0.8699
31322SOL     OW99285   4.479   5.086   2.844  0.4464 -0.3724 -0.6873
31322SOL    HW199286   4.544   5.039   2.793 -0.6600  0.0229 -2.5516
31322SOL    HW299287   4.519   5.172   2.860  0.7262 -0.4262 -1.0799
31323SOL     OW99288   5.310  11.248   1.440 -0.3343 -0.1276  1.1816
31323SOL    HW199289   5.294  11.194   1.363  2.8417 -0.2770  0.4870
31323SOL    HW299290   5.334  11.334   1.405  3.6808 -0.8365  1.6062
31324SOL     OW99291   6.424   1.752   4.551 -0.8825 -0.1101  0.7298
31324SOL    HW199292   6.365   1.725   4.621  0.1580  0.4082  1.8219
31324SOL    HW299293   6.461   1.670   4.518 -2.0193 -0.4264  0.1642
31325SOL     OW99294  10.459   6.915   5.892  0.3737 -0.6452 -0.2924
31325SOL    HW199295  10.425   6.990   5.941  4.1604  0.1051  1.5255
31325SOL    HW299296  10.504   6.861   5.957  0.0956 -3.1355 -1.9966
31326SOL     OW99297   3.849   2.656  10.113 -0.0558 -0.2725 -0.6181
31326SOL    HW199298   3.755   2.661  10.128  0.0619 -0.8359  0.4119
31326SOL    HW299299   3.867   2.562  10.106  0.6163 -0.2669  0.6486
31327SOL     OW99300   5.381   6.095   1.219 -0.4209 -0.9218  0.3335
31327SOL    HW199301   5.304   6.046   1.190 -1.0967  0.5796 -0.5383
31327SOL    HW299302   5.384   6.171   1.160  1.5891 -0.8261  0.5206
31328SOL     OW99303   4.608   8.766   1.937  0.0603  0.2574 -0.1970
31328SOL    HW199304   4.630   8.824   1.865  1.2283 -1.2288 -1.1130
31328SOL    HW299305   4.689   8.718   1.954 -0.7833 -0.9186  0.6680
31329SOL     OW99306   6.163   6.563   1.542 -0.2516 -0.2257  0.6979
31329SOL    HW199307   6.162   6.648   1.586  0.7796 -0.6109  1.5048
31329SOL    HW299308   6.247   6.561   1.497 -1.7117  0.6294 -2.3573
31330SOL     OW99309   2.689   2.491   8.234 -0.7084  0.6838  0.0430
31330SOL    HW199310   2.741   2.566   8.205 -1.8757  1.3099 -0.4951
31330SOL    HW299311   2.598   2.517   8.218 -1.2754  0.0850  2.0242
31331SOL     OW99312   8.065   0.791   3.131  0.0432 -0.0680  0.9910
31331SOL    HW199313   8.003   0.864   3.129  0.5381  0.3794  1.3744
31331SOL    HW299314   8.025   0.723   3.079 -0.4365  0.4836  0.6309
31332SOL     OW99315   9.646   8.946   2.517 -0.1904  0.4123 -0.0241
31332SOL    HW199316   9.594   9.019   2.551 -0.4932  1.1186 -1.9006
31332SOL    HW299317   9.733   8.983   2.502 -0.6052  0.7337 -1.9379
31333SOL     OW99318   1.959   4.127   5.684 -1.1285 -0.4591  0.7207
31333SOL    HW199319   2.020   4.187   5.726 -0.3695  0.1797 -1.1911
31333SOL    HW299320   1.908   4.182   5.625 -0.9913 -1.5480 -0.4595
31334SOL     OW99321   3.874  10.320   4.488  0.7756  0.2885  0.1713
31334SOL    HW199322   3.887  10.244   4.545  0.2767  0.3679  0.3987
31334SOL    HW299323   3.843  10.389   4.546 -1.5545 -0.1539 -0.4255
31335SOL     OW99324   4.768   3.675   2.059  0.2495 -0.4110  0.2854
31335SOL    HW199325   4.770   3.644   1.969  0.2863  0.5212 -0.0355
31335SOL    HW299326   4.678   3.663   2.087 -0.3037  1.3527 -0.6104
31336SOL     OW99327   3.994   4.818  10.199  0.2223  0.5395  0.3293
31336SOL    HW199328   4.002   4.859  10.285 -2.0024  1.8672 -0.0242
31336SOL    HW299329   3.968   4.889  10.140  1.0145 -0.4787 -1.3225
31337SOL     OW99330   2.337   5.746  11.044  0.2245 -0.1348 -0.2784
31337SOL    HW199331   2.348   5.651  11.033 -0.7671 -0.2861 -0.0385
31337SOL    HW299332   2.304   5.776  10.959  0.2093 -0.0515 -0.2427
31338SOL     OW99333   8.544  10.949   7.038  0.3436 -0.1703  0.1562
31338SOL    HW199334   8.472  10.956   6.976  1.2515 -1.5796 -1.1216
31338SOL    HW299335   8.526  11.017   7.103 -0.9512  0.9748 -1.3134
31339SOL     OW99336   1.528  10.557   7.159  0.4655 -0.2156  0.1522
31339SOL    HW199337   1.606  10.551   7.214  0.7171  1.1076 -0.0135
31339SOL    HW299338   1.484  10.637   7.190  0.6023  0.5517 -1.5256
31340SOL     OW99339   8.450   8.636   9.250  0.1572 -0.2289  0.0603
31340SOL    HW199340   8.543   8.641   9.275  0.5542 -0.6263 -1.2660
31340SOL    HW299341   8.425   8.546   9.269  0.0459 -0.1370  0.3636
31341SOL     OW99342   7.333   0.254   3.119  0.1957  0.1796  0.3944
31341SOL    HW199343   7.323   0.165   3.084  0.8798  0.9905 -2.1429
31341SOL    HW299344   7.245   0.280   3.145 -0.3517 -0.6188 -0.5819
31342SOL     OW99345   8.555   2.470  11.580  0.0812  0.6076 -0.1364
31342SOL    HW199346   8.608   2.548  11.567 -0.9066  1.2191 -0.6284
31342SOL    HW299347   8.504   2.488  11.660  0.2033  0.2648  0.0202
31343SOL     OW99348   7.954   1.549   9.487 -0.1129 -0.3990  0.1209
31343SOL    HW199349   8.019   1.504   9.541  0.8710  1.1464  0.3034
31343SOL    HW299350   7.870   1.513   9.515  0.5454 -1.2837  1.0391
31344SOL     OW99351   7.997   0.628   1.741 -0.5590  0.1613  0.1106
31344SOL    HW199352   8.032   0.557   1.686 -1.6135 -0.2494 -0.0463
31344SOL    HW299353   7.994   0.704   1.682 -1.0451 -0.1054 -0.2150
31345SOL     OW99354   2.999   0.114   4.582  0.6113 -0.1513 -0.1270
31345SOL    HW199355   3.077   0.153   4.543  1.2099 -1.2140 -0.0383
31345SOL    HW299356   2.931   0.125   4.516  1.0175  0.1516 -0.4998
31346SOL     OW99357  10.628   3.449  10.402 -0.2508  0.3120  0.1599
31346SOL    HW199358  10.663   3.507  10.469  0.0108  2.1834 -1.4938
31346SOL    HW299359  10.637   3.498  10.321 -1.3565 -1.5071 -1.1452
31347SOL     OW99360   8.665   6.052   2.310  0.1102  0.1551 -0.0161
31347SOL    HW199361   8.646   6.140   2.343 -1.0834  0.4046 -1.2563
31347SOL    HW299362   8.757   6.038   2.331  0.4945  1.9426 -0.2783
31348SOL     OW99363  10.735   8.613   7.752 -1.0287  0.7248 -0.1662
31348SOL    HW199364  10.717   8.630   7.845  1.5765 -0.6966  0.7128
31348SOL    HW299365  10.743   8.518   7.746  0.4320  0.8920 -1.5035
31349SOL     OW99366   8.339   7.690   9.515  0.1221 -0.2755  0.7364
31349SOL    HW199367   8.428   7.698   9.481  0.1637 -2.2011  0.2734
31349SOL    HW299368   8.283   7.729   9.447  0.4858 -0.6448  0.2220
31350SOL     OW99369   6.563   3.296   5.040  0.2363  0.2136  0.0233
31350SOL    HW199370   6.562   3.282   4.945  1.0231 -0.8019  0.1509
31350SOL    HW299371   6.543   3.211   5.077 -0.8122  0.7643  0.7789
31351SOL     OW99372   8.211   2.739   6.501  0.0423  0.5723  0.0244
31351SOL    HW199373   8.283   2.687   6.536  1.5269  1.6273 -1.3382
31351SOL    HW299374   8.238   2.761   6.412 -2.0036  0.9480 -0.5638
31352SOL     OW99375  11.076   9.844   5.227 -0.5715  0.0520 -0.0081
31352SOL    HW199376  11.062   9.925   5.275 -0.7114 -0.4613  0.8287
31352SOL    HW299377  10.990   9.823   5.190 -0.1879  1.1291 -1.6039
31353SOL     OW99378  10.359   7.611   5.759 -0.4316 -0.4636  0.9901
31353SOL    HW199379  10.417   7.686   5.742  1.5574 -2.0320  0.4701
31353SOL    HW299380  10.310   7.601   5.677  0.6902 -0.8710  0.3433
31354SOL     OW99381   5.722   5.642   1.192  0.0158 -0.1538 -0.2251
31354SOL    HW199382   5.672   5.593   1.257 -2.1056  0.4376 -1.3142
31354SOL    HW299383   5.767   5.710   1.241 -2.6619  1.1902  0.5469
31355SOL     OW99384   7.798   1.324  11.149  0.0602  0.0131  0.1786
31355SOL    HW199385   7.758   1.280  11.224 -1.2771  0.3884 -0.2908
31355SOL    HW299386   7.781   1.265  11.075 -1.6833  1.2218 -0.4425
31356SOL     OW99387   5.733   7.417   5.997 -0.0892  0.3587 -0.4384
31356SOL    HW199388   5.788   7.339   6.001 -0.0179  0.4016 -0.5689
31356SOL    HW299389   5.749   7.462   6.080  0.0479  0.3543 -0.4622
31357SOL     OW99390   3.050   1.077   9.011  0.0829  0.5055 -0.5723
31357SOL    HW199391   3.005   1.107   8.932  0.0404 -0.1668 -0.8088
31357SOL    HW299392   3.014   0.990   9.027  1.7391 -0.3330 -1.1390
31358SOL     OW99393   4.451  11.346   9.183  0.1999 -0.0789  0.8753
31358SOL    HW199394   4.456  11.438   9.158  0.7768 -0.1817  0.6162
31358SOL    HW299395   4.502  11.340   9.264 -0.5871 -0.0011  1.3932
31359SOL     OW99396  10.806   5.765   4.971 -0.2942  0.2162 -0.2307
31359SOL    HW199397  10.897   5.792   4.984 -0.6154  2.1650 -1.5175
31359SOL    HW299398  10.783   5.719   5.051  1.3326  1.1415  0.8317
31360SOL     OW99399  11.661   4.724   3.192  0.6356  0.5873  0.4776
31360SOL    HW199400  11.668   4.641   3.145  0.1728  0.6800  0.2420
31360SOL    HW299401  11.609   4.704   3.270 -2.0227  1.2134 -0.9991
31361SOL     OW99402   1.830   9.649  10.870 -0.3917  0.0200  0.2279
31361SOL    HW199403   1.823   9.622  10.962  1.4516  1.2041  0.7884
31361SOL    HW299404   1.922   9.675  10.861 -0.6116  0.1608 -1.9032
31362SOL     OW99405   8.660   3.133   7.750  0.0807  0.3751 -0.5825
31362SOL    HW199406   8.610   3.116   7.671  0.4844 -0.5258 -0.6571
31362SOL    HW299407   8.720   3.204   7.727 -0.9502  1.2544 -0.5763
31363SOL     OW99408   6.550  11.291   8.885  0.3144  0.2140  0.3269
31363SOL    HW199409   6.573  11.211   8.837  0.5230  0.7206 -0.4372
31363SOL    HW299410   6.596  11.361   8.838 -1.5436  1.0794 -0.3161
31364SOL     OW99411  11.380   1.388   9.311  0.5107 -0.2228  0.3138
31364SOL    HW199412  11.401   1.325   9.380  0.4013 -1.9707 -1.1684
31364SOL    HW299413  11.335   1.459   9.356  0.9597 -1.0211  2.1078
31365SOL     OW99414   3.021   6.788   3.552 -0.0638  0.4929  0.1961
31365SOL    HW199415   3.029   6.772   3.646  1.2970 -1.0590 -0.1263
31365SOL    HW299416   2.927   6.789   3.535 -0.3682 -2.3039  1.1598
31366SOL     OW99417   5.392  10.566   9.331  0.3341  0.0994  0.0150
31366SOL    HW199418   5.339  10.542   9.407  2.2813 -0.6816  1.1923
31366SOL    HW299419   5.424  10.654   9.351  1.5327 -0.4397  0.5126
31367SOL     OW99420   4.789  11.284   0.559  0.3408 -0.0374 -0.1308
31367SOL    HW199421   4.707  11.308   0.603  1.1462  0.8249  0.9768
31367SOL    HW299422   4.763  11.218   0.495 -1.0981 -0.3861  0.7479
31368SOL     OW99423   5.440   2.082   7.904 -0.1116 -0.7831  0.3563
31368SOL    HW199424   5.416   2.175   7.897  0.3961 -0.6527  0.3008
31368SOL    HW299425   5.441   2.065   7.998  0.8472 -0.4401  0.4254
31369SOL     OW99426   3.155   3.579   9.507  0.2451 -0.5454 -0.1121
31369SOL    HW199427   3.202   3.576   9.423  0.9955 -1.0965  0.3109
31369SOL    HW299428   3.145   3.487   9.531  0.1404 -0.3841  0.4612
31370SOL     OW99429   3.062   3.662   2.895 -0.3383 -0.1785  0.7037
31370SOL    HW199430   3.149   3.697   2.874 -0.1068 -0.8371  0.5223
31370SOL    HW299431   3.071   3.626   2.983 -0.8103  0.9619  1.2324
31371SOL     OW99432   3.807   6.066   3.062 -0.7976 -1.1100 -0.2374
31371SOL    HW199433   3.884   6.123   3.061  0.1108 -2.2912 -0.5903
31371SOL    HW299434   3.733   6.126   3.056  0.0745  0.0797  0.3040
31372SOL     OW99435   2.149   2.980   3.201 -0.6740 -0.0108 -0.0793
31372SOL    HW199436   2.191   3.042   3.261  0.4273 -0.4305 -0.3934
31372SOL    HW299437   2.102   2.920   3.258  1.4400 -1.2113  0.5084
31373SOL     OW99438   6.719   7.708   0.232  0.0856  0.3492 -0.0468
31373SOL    HW199439   6.717   7.799   0.264  1.3900  0.5703 -0.5349
31373SOL    HW299440   6.668   7.710   0.151  3.1569  1.5858 -2.1813
31374SOL     OW99441   1.643   6.570  10.596 -0.1049  0.2094 -0.1770
31374SOL    HW199442   1.594   6.577  10.514 -0.3751 -0.1060 -0.0448
31374SOL    HW299443   1.621   6.483  10.630  1.5484 -0.4983 -0.7641
31375SOL     OW99444   7.215  10.543   0.175  0.3936  0.0466 -0.2077
31375SOL    HW199445   7.248  10.467   0.224  2.6678  1.2481  0.2454
31375SOL    HW299446   7.292  10.599   0.162 -1.0612  1.9440 -1.1666
31376SOL     OW99447   9.695   8.889   0.536 -0.0238  0.2535  0.1479
31376SOL    HW199448   9.617   8.916   0.488  0.0001  0.8828  0.4521
31376SOL    HW299449   9.706   8.956   0.604  0.8135  0.2125  0.0706
31377SOL     OW99450   1.497   7.177   3.414  0.3702 -0.7204 -0.2473
31377SOL    HW199451   1.491   7.252   3.355  1.7156 -0.3577  0.0378
31377SOL    HW299452   1.406   7.156   3.436 -0.1012 -0.1627 -1.5438
31378SOL     OW99453   3.519   6.713   4.105  0.2519 -0.3494  0.8598
31378SOL    HW199454   3.458   6.674   4.167  1.0776 -1.4870  0.9764
31378SOL    HW299455   3.598   6.730   4.157  0.5323 -0.1918  0.3872
31379SOL     OW99456  11.032  11.473  10.584  0.1610  0.3450  0.6232
31379SOL    HW199457  11.036  11.459  10.679  4.2432  0.1808  0.5932
31379SOL    HW299458  11.064  11.390  10.547  2.3815  1.6859 -0.6410
31380SOL     OW99459   9.006   9.805   8.250 -0.3966  0.0247  0.2125
31380SOL    HW199460   9.026   9.885   8.201 -0.0543 -1.4773 -2.2814
31380SOL    HW299461   9.027   9.734   8.189  0.8201 -2.0510  2.8630
31381SOL     OW99462   3.374  10.683   4.447  1.3985 -0.2215  0.0144
31381SOL    HW199463   3.348  10.774   4.436  0.9574 -0.3603 -0.1132
31381SOL    HW299464   3.446  10.686   4.510  0.9866  0.1589  0.4721
31382SOL     OW99465   7.862   3.251   3.468  0.0968 -0.3250  0.2120
31382SOL    HW199466   7.927   3.250   3.538  0.8150  1.4865 -0.3793
31382SOL    HW299467   7.779   3.269   3.514  0.1612 -1.5204  0.8377
31383SOL     OW99468   3.000   4.531   6.879  0.1328 -0.0859  0.1657
31383SOL    HW199469   2.932   4.472   6.847  0.8707 -1.4922  1.1007
31383SOL    HW299470   3.082   4.490   6.854  0.6714  0.8406  0.3460
31384SOL     OW99471   5.416   4.790  11.616 -0.0139  0.0331  0.1540
31384SOL    HW199472   5.396   4.830  11.531 -0.6335 -1.5528 -0.4786
31384SOL    HW299473   5.398   4.859  11.680 -0.5512  0.9238 -0.9199
31385SOL     OW99474   4.618   2.805   9.311 -0.2609 -0.1001  0.0714
31385SOL    HW199475   4.560   2.855   9.367  0.8215  1.1426  0.1361
31385SOL    HW299476   4.575   2.804   9.226 -0.5171  0.5363  0.1928
31386SOL     OW99477   0.332  10.733   5.748 -0.2953 -0.3189  0.3364
31386SOL    HW199478   0.388  10.805   5.778 -1.6302  1.3357 -0.9627
31386SOL    HW299479   0.362  10.715   5.659  0.1052 -1.4976  0.6889
31387SOL     OW99480   7.167   7.942  10.330  0.5320 -0.0663  0.2758
31387SOL    HW199481   7.095   7.881  10.350 -0.5691  1.0922 -0.0260
31387SOL    HW299482   7.242   7.907  10.379 -0.4882 -0.7529  1.4303
31388SOL     OW99483   0.096   3.265   8.501 -0.0785  0.6491 -0.0583
31388SOL    HW199484   0.120   3.290   8.412 -2.0449 -2.8531 -1.8089
31388SOL    HW299485   0.159   3.197   8.525 -0.4262  0.5730  0.6827
31389SOL     OW99486  10.957   8.197   8.679  0.6043 -0.5324 -0.3655
31389SOL    HW199487  11.048   8.184   8.705  0.9782 -1.5575 -1.9782
31389SOL    HW299488  10.920   8.108   8.678  0.0942 -0.3289 -1.3363
31390SOL     OW99489   9.999   0.307   9.879  0.1690 -0.1950  0.1471
31390SOL    HW199490   9.986   0.315   9.974  0.4037  0.8375  0.1012
31390SOL    HW299491   9.958   0.385   9.843  1.3314  0.1444 -0.4882
31391SOL     OW99492   6.073  11.590  10.071 -0.5189  0.1675 -0.1549
31391SOL    HW199493   6.139  11.634  10.017 -0.6939  1.0490  0.3131
31391SOL    HW299494   6.124  11.541  10.135 -0.3159 -0.1449 -0.5517
31392SOL     OW99495  10.882   7.024   4.952  0.2444  0.4477  0.3425
31392SOL    HW199496  10.892   6.931   4.973 -0.2116  0.2676 -0.2307
31392SOL    HW299497  10.886   7.028   4.856 -0.9125  0.8724  0.2952
31393SOL     OW99498   6.321   4.791   4.423 -0.0051  0.3341  0.1056
31393SOL    HW199499   6.281   4.771   4.508 -0.0265 -1.2275 -0.2316
31393SOL    HW299500   6.369   4.872   4.437  0.2803 -0.0789  1.7208
31394SOL     OW99501   7.655  11.497   8.884 -0.3709 -0.3796 -0.4592
31394SOL    HW199502   7.631  11.587   8.904 -4.4715 -1.0225 -1.7014
31394SOL    HW299503   7.710  11.503   8.805 -0.4529  1.0082 -0.4245
31395SOL     OW99504   2.273   7.879  11.372  0.4454  0.1428 -0.3260
31395SOL    HW199505   2.191   7.878  11.323 -0.2759 -0.1569  0.8325
31395SOL    HW299506   2.324   7.806  11.336 -0.8109 -1.2237  0.5143
31396SOL     OW99507   2.543   4.496   6.328  0.1567  0.3427 -0.4483
31396SOL    HW199508   2.523   4.497   6.234 -2.3610 -0.9705 -0.0061
31396SOL    HW299509   2.569   4.406   6.346 -1.0402  0.1401  0.3777
31397SOL     OW99510   8.621  11.531   3.990 -0.2737 -0.1839  0.1506
31397SOL    HW199511   8.556  11.488   3.934 -1.3366 -2.0218  2.5978
31397SOL    HW299512   8.578  11.537   4.076  1.7454  1.2616  1.1451
31398SOL     OW99513   0.608   7.658  11.777 -0.2562  0.3135 -0.3225
31398SOL    HW199514   0.594   7.684  11.868  0.5855  0.1815 -0.1465
31398SOL    HW299515   0.603   7.740  11.728  1.5140  0.7358  0.1270
31399SOL     OW99516  11.556   6.067  10.116 -0.1389  0.8406 -0.0478
31399SOL    HW199517  11.528   6.154  10.088  1.2628  1.0680 -0.8115
31399SOL    HW299518  11.541   6.010  10.041 -1.5341  0.2777  0.6146
31400SOL     OW99519   4.596  10.291  11.488  0.2108  0.2752 -0.1963
31400SOL    HW199520   4.563  10.319  11.403  0.8248 -0.0635 -0.5564
31400SOL    HW299521   4.652  10.216  11.468 -0.0857 -0.1656  0.5664
31401SOL     OW99522   6.116   1.233   7.734  0.2229  0.1971  0.3693
31401SOL    HW199523   6.199   1.251   7.779 -0.5537  0.1454  1.8777
31401SOL    HW299524   6.096   1.142   7.757  1.1188 -0.8028 -2.3266
31402SOL     OW99525   0.551  11.733  10.836  0.3702  0.0893 -0.0057
31402SOL    HW199526   0.586  11.759  10.922  1.0997  1.3706 -0.6526
31402SOL    HW299527   0.472  11.787  10.826  0.0870 -0.3226  0.0142
31403SOL     OW99528  11.388   5.073   5.741 -0.0470  0.0069  0.1139
31403SOL    HW199529  11.301   5.112   5.743  0.1846  0.5163  0.3644
31403SOL    HW299530  11.444   5.137   5.784  0.2188 -0.8771  1.1575
31404SOL     OW99531   1.318   4.497   9.202  0.0082 -0.5531 -0.1034
31404SOL    HW199532   1.394   4.492   9.143  0.0470 -0.3863 -0.0692
31404SOL    HW299533   1.246   4.459   9.152  0.2183 -1.1554  0.0355
31405SOL     OW99534   4.803   1.503   6.263  0.9801 -0.1357  0.0736
31405SOL    HW199535   4.731   1.564   6.278  1.7325  0.3802  1.9043
31405SOL    HW299536   4.763   1.417   6.262  0.0404  0.2708 -1.5046
31406SOL     OW99537   2.161   0.944   5.542  0.4438 -0.1223 -0.2726
31406SOL    HW199538   2.195   0.888   5.472  0.3922  1.3021 -1.4691
31406SOL    HW299539   2.070   0.917   5.553  0.8494 -1.3191  0.2482
31407SOL     OW99540   9.361   0.928   1.511  0.0688 -0.1507 -0.1293
31407SOL    HW199541   9.355   1.005   1.453 -0.6116 -0.4931 -0.5279
31407SOL    HW299542   9.363   0.853   1.451  2.6715 -0.4178  0.1559
31408SOL     OW99543   7.787   7.860  11.685  0.6065  0.4606 -0.2273
31408SOL    HW199544   7.846   7.877  11.758  1.1721  0.6255 -0.7157
31408SOL    HW299545   7.741   7.943  11.672 -0.1411  0.1735  0.5031
31409SOL     OW99546   1.168   2.396  10.884  0.2158  0.5075 -0.3018
31409SOL    HW199547   1.162   2.402  10.979 -0.4459 -0.7094 -0.2546
31409SOL    HW299548   1.195   2.484  10.856  2.8357  0.2752  1.1612
31410SOL     OW99549   3.541   0.855  10.036 -0.4714 -0.6038 -0.5455
31410SOL    HW199550   3.554   0.797  10.111 -0.7555 -0.6058 -0.4976
31410SOL    HW299551   3.572   0.804   9.961 -1.7304 -1.2568 -0.6605
31411SOL     OW99552   9.587   9.271   1.358  0.1007 -0.0985 -0.2960
31411SOL    HW199553   9.600   9.356   1.400 -0.3427 -0.2631  0.1753
31411SOL    HW299554   9.512   9.232   1.403  0.3297 -0.7640 -0.4704
31412SOL     OW99555   0.242   6.824   4.659  0.0821 -0.0984 -0.1440
31412SOL    HW199556   0.185   6.898   4.680  0.5062  0.7930 -1.9518
31412SOL    HW299557   0.211   6.794   4.573  1.2153 -0.7380 -0.3438
31413SOL     OW99558   9.449   8.132   1.265 -0.5259 -0.0368  0.5176
31413SOL    HW199559   9.464   8.226   1.279  1.7208 -0.7008  3.3676
31413SOL    HW299560   9.359   8.118   1.294 -0.9447  1.2347 -0.0893
31414SOL     OW99561   5.487   8.770   1.576  0.0712  0.1909  0.2290
31414SOL    HW199562   5.444   8.763   1.490  0.0032 -2.4962  0.4048
31414SOL    HW299563   5.449   8.699   1.628 -0.1933  1.9810  2.6885
31415SOL     OW99564   1.467  11.481  11.156  0.0562 -0.3093  0.0151
31415SOL    HW199565   1.524  11.553  11.180  0.1354 -0.5506  0.5701
31415SOL    HW299566   1.509  11.441  11.079 -0.0622  0.3119 -0.3759
31416SOL     OW99567   3.259   3.948  11.507 -0.5489 -0.0927 -1.0201
31416SOL    HW199568   3.218   3.998  11.577 -0.3621 -0.8993 -0.3280
31416SOL    HW299569   3.325   3.894  11.550 -0.7733 -0.9779 -1.7391
31417SOL     OW99570   5.521   5.302   2.654  0.1448  0.0770 -0.2840
31417SOL    HW199571   5.472   5.242   2.709  0.5694 -1.1150 -1.1488
31417SOL    HW299572   5.455   5.355   2.609 -0.2086  0.7809  1.0336
31418SOL     OW99573   0.557   5.774   1.201  0.3754 -0.0726 -0.3294
31418SOL    HW199574   0.567   5.856   1.152 -1.3229 -1.1765 -2.7051
31418SOL    HW299575   0.498   5.797   1.273  1.6908  1.2465  0.3938
31419SOL     OW99576  10.438   8.317   2.103 -0.0443 -0.2612  0.4663
31419SOL    HW199577  10.418   8.402   2.144  0.7119 -1.1707  2.9206
31419SOL    HW299578  10.357   8.267   2.111 -0.4829  0.1812 -0.9622
31420SOL     OW99579  11.009   6.267   1.435  0.1421  0.5495  0.9262
31420SOL    HW199580  10.951   6.339   1.408  0.8390  0.0360 -2.4362
31420SOL    HW299581  10.954   6.213   1.492 -1.2477  2.3211  1.3843
31421SOL     OW99582   7.379   5.218   8.067  0.0680 -0.5070  0.4423
31421SOL    HW199583   7.379   5.134   8.023  0.2316 -0.5681  0.5552
31421SOL    HW299584   7.470   5.249   8.060 -0.2530  0.2360 -0.6856
31422SOL     OW99585   4.436  10.515   0.200 -0.4336 -0.0842  0.1581
31422SOL    HW199586   4.461  10.423   0.187 -1.0695 -0.1608 -0.6283
31422SOL    HW299587   4.348  10.521   0.163 -1.2382  0.3751  2.0288
31423SOL     OW99588   8.750   8.325   8.550  0.0483  0.5681  0.3784
31423SOL    HW199589   8.715   8.257   8.609 -0.3320  0.1690 -0.2864
31423SOL    HW299590   8.689   8.398   8.559  0.2054  0.6552  0.7603
31424SOL     OW99591   7.278   6.490   5.531 -0.0935 -0.0760 -0.1207
31424SOL    HW199592   7.363   6.527   5.510 -0.6601  0.9206 -0.7648
31424SOL    HW299593   7.240   6.552   5.593 -0.1513 -0.7836  0.5657
31425SOL     OW99594   1.431   0.712   0.963  0.2411 -0.7535  0.0047
31425SOL    HW199595   1.459   0.633   1.011  3.2874 -0.3516 -0.8918
31425SOL    HW299596   1.510   0.767   0.960 -0.7490  0.6826 -2.5879
31426SOL     OW99597   9.670   5.093  11.400  0.3252  0.1381  0.2561
31426SOL    HW199598   9.644   5.092  11.308 -0.6906 -1.2414  0.5326
31426SOL    HW299599   9.760   5.127  11.399  1.0379 -1.5985 -1.4554
31427SOL     OW99600   3.538   7.581   6.310 -0.0182  0.6915 -0.6604
31427SOL    HW199601   3.506   7.515   6.249  1.5894 -0.6476 -0.1421
31427SOL    HW299602   3.601   7.632   6.259  0.9279 -0.0875 -0.3002
31428SOL     OW99603   0.847   9.295   8.066  0.2854  0.1576 -0.0031
31428SOL    HW199604   0.786   9.321   7.997  3.2294  2.5801 -1.8977
31428SOL    HW299605   0.821   9.347   8.142  0.0633  1.2298 -0.8024
31429SOL     OW99606   0.101   1.015   4.389  0.6518 -0.1375  0.0863
31429SOL    HW199607   0.055   0.938   4.421  0.5070  0.0836  0.4234
31429SOL    HW299608   0.141   0.987   4.307  0.8321 -0.6499  0.3427
31430SOL     OW99609  10.647   7.038   3.390  0.1140 -0.7486  0.0632
31430SOL    HW199610  10.643   6.953   3.435 -0.9474 -1.6120 -1.5476
31430SOL    HW299611  10.584   7.029   3.318  0.2256  1.3092 -0.3317
31431SOL     OW99612   5.949   6.600   8.622  0.6810  0.2869 -0.0701
31431SOL    HW199613   5.880   6.650   8.579 -0.5395  0.0122  1.4949
31431SOL    HW299614   5.953   6.635   8.710  1.6392 -0.5948  0.2546
31432SOL     OW99615   7.504   0.033   4.352 -0.2468  0.3773 -0.2287
31432SOL    HW199616   7.480   0.107   4.408  0.2935  0.3233  0.0858
31432SOL    HW299617   7.469  -0.044   4.399 -0.7914  0.4308 -0.5455
31433SOL     OW99618   2.402   4.352   8.687 -0.5395  0.1958 -0.5289
31433SOL    HW199619   2.362   4.309   8.612 -3.0941 -0.0662  0.8921
31433SOL    HW299620   2.347   4.428   8.703  0.5705  0.8176  0.4758
31434SOL     OW99621   0.597   6.032   3.184  0.0599 -0.0765 -0.0905
31434SOL    HW199622   0.507   6.002   3.200  0.7692 -1.7088  1.0775
31434SOL    HW299623   0.612   6.100   3.249 -0.5429  0.7275 -0.7639
31435SOL     OW99624   8.220   1.921   1.102  0.1975 -0.2211 -0.1152
31435SOL    HW199625   8.184   1.992   1.048 -1.8779 -1.2025 -0.1262
31435SOL    HW299626   8.149   1.857   1.106  1.1073 -1.1650  1.9648
31436SOL     OW99627   0.606   3.596   3.070 -0.6232  0.0268  0.7355
31436SOL    HW199628   0.692   3.557   3.062 -0.9669 -0.5533 -0.3645
31436SOL    HW299629   0.597   3.617   3.163  0.7255  0.1774  0.8455
31437SOL     OW99630   5.680   4.921   7.404  0.0514 -0.0564  0.1669
31437SOL    HW199631   5.756   4.927   7.462 -0.8249 -3.5175  1.8971
31437SOL    HW299632   5.629   5.000   7.424  1.2445  0.3335  1.9061
31438SOL     OW99633   3.265   3.291   6.431  0.0951  0.2915 -0.0289
31438SOL    HW199634   3.235   3.274   6.520  1.3340  0.2190  0.3880
31438SOL    HW299635   3.185   3.284   6.377 -0.6864  0.4871  1.0773
31439SOL     OW99636  11.143   2.923   8.524  0.0816  0.0944  0.0080
31439SOL    HW199637  11.208   2.918   8.454  0.2912  0.5205  0.1695
31439SOL    HW299638  11.097   3.006   8.508 -0.2565 -0.0860  0.0393
31440SOL     OW99639  10.097   5.148   6.957  1.0336 -0.1186 -0.5467
31440SOL    HW199640  10.061   5.213   7.017 -0.3031 -2.6172  1.6011
31440SOL    HW299641  10.070   5.176   6.870 -0.8245  1.3602  0.4556
31441SOL     OW99642   3.606  10.332   3.722  0.3895  0.2652  0.4448
31441SOL    HW199643   3.666  10.342   3.648 -0.1857 -0.2911 -0.1026
31441SOL    HW299644   3.662  10.303   3.794  0.6396 -1.3111 -0.3432
31442SOL     OW99645   8.231   5.267   7.481  0.0112  0.1790 -0.3595
31442SOL    HW199646   8.236   5.227   7.567  0.9966  1.1857  0.0590
31442SOL    HW299647   8.316   5.308   7.467 -0.1022 -0.0143 -1.8413
31443SOL     OW99648   1.182   4.586   0.587  0.3708 -0.0575 -0.3762
31443SOL    HW199649   1.119   4.517   0.608  0.7496 -0.1957  0.3334
31443SOL    HW299650   1.216   4.563   0.501 -0.4563 -0.0468 -0.7124
31444SOL     OW99651   2.324   4.824   4.139 -0.4654 -0.1571 -0.0974
31444SOL    HW199652   2.415   4.854   4.138 -0.2552 -0.6738  1.5202
31444SOL    HW299653   2.273   4.904   4.150 -0.0231 -0.1018  1.9789
31445SOL     OW99654  10.453  10.909   8.258  0.1429  0.2883  0.2402
31445SOL    HW199655  10.541  10.910   8.220  0.7828 -1.0074  1.6010
31445SOL    HW299656  10.423  11.000   8.250  0.4727  0.2530 -2.6702
31446SOL     OW99657   0.925   6.889   0.367 -0.9378  0.0513  0.3043
31446SOL    HW199658   0.924   6.908   0.273 -0.6650 -1.3081 -0.0098
31446SOL    HW299659   0.864   6.816   0.377  0.8765 -1.5177  0.7347
31447SOL     OW99660   9.274   6.607  11.402 -0.1522 -0.3441  0.1475
31447SOL    HW199661   9.234   6.687  11.368  0.0345 -0.9376 -1.5510
31447SOL    HW299662   9.245   6.603  11.493 -1.7182  0.6726 -0.2592
31448SOL     OW99663   0.168   8.901   5.351 -0.3579  0.5518  0.6546
31448SOL    HW199664   0.256   8.940   5.349 -0.3404  0.5720 -1.6455
31448SOL    HW299665   0.184   8.808   5.369  0.1974  0.4934 -0.0639
31449SOL     OW99666   4.560   9.730   4.976  0.4642  0.1149  0.1015
31449SOL    HW199667   4.627   9.774   4.923  1.7197 -1.0935  0.6023
31449SOL    HW299668   4.575   9.762   5.065 -0.1890  0.4763  0.0859
31450SOL     OW99669   2.841   3.015   8.101  0.3496 -0.5895 -0.1532
31450SOL    HW199670   2.900   2.948   8.065  0.7448 -0.0232 -0.5657
31450SOL    HW299671   2.814   3.066   8.025  1.2693  0.6849  0.3545
31451SOL     OW99672   4.600   5.640   0.830 -0.1430 -0.0441  0.1237
31451SOL    HW199673   4.620   5.733   0.821 -1.7328  0.4048  0.8363
31451SOL    HW299674   4.543   5.635   0.907 -0.7972 -1.4921 -0.4208
31452SOL     OW99675   6.716  10.257   2.485  0.4210  0.2703  0.0183
31452SOL    HW199676   6.635  10.296   2.518 -0.2376 -2.0066  1.2678
31452SOL    HW299677   6.767  10.238   2.564  1.2291 -0.3074 -0.6247
31453SOL     OW99678   0.059   1.666   1.994  0.2032 -0.4879  0.0610
31453SOL    HW199679   0.020   1.677   1.907  2.0367  1.2146 -0.6348
31453SOL    HW299680  -0.015   1.653   2.052 -1.1788 -0.3008 -1.5735
31454SOL     OW99681   5.790   7.930   8.808 -0.6700 -0.4327  0.2571
31454SOL    HW199682   5.740   7.986   8.749 -1.3764 -1.5504 -0.2419
31454SOL    HW299683   5.869   7.980   8.828  0.2458 -0.5298 -2.6671
31455SOL     OW99684   3.633  11.058  11.325  0.3050  0.4060 -0.0460
31455SOL    HW199685   3.545  11.041  11.359  0.1471  3.0520  1.1139
31455SOL    HW299686   3.690  11.004  11.379 -0.6036 -2.3109 -1.6155
31456SOL     OW99687   8.683   0.181  11.584 -0.1453 -0.0582 -0.1142
31456SOL    HW199688   8.699   0.232  11.505 -1.3090  0.9171  0.2482
31456SOL    HW299689   8.768   0.178  11.629  0.2868  0.2313 -0.8960
31457SOL     OW99690   8.124   1.365   7.784 -0.7474  0.2977 -0.0844
31457SOL    HW199691   8.119   1.311   7.705  0.1074 -1.0105  0.7121
31457SOL    HW299692   8.210   1.347   7.821 -0.3204  2.4356  0.1053
31458SOL     OW99693  10.971   2.074   2.165 -0.2476 -0.5362 -0.4484
31458SOL    HW199694  10.906   2.045   2.101 -0.9787 -0.4663  0.2553
31458SOL    HW299695  11.052   2.032   2.137 -0.5422 -0.4721 -1.4488
31459SOL     OW99696   9.933   2.396   5.910  0.3205 -0.1430 -0.2235
31459SOL    HW199697   9.933   2.448   5.991 -0.1216 -0.4823  0.0012
31459SOL    HW299698  10.023   2.400   5.879  0.4710  0.0761  0.2351
31460SOL     OW99699   4.155   7.993  11.111  0.0440 -0.4015  0.0400
31460SOL    HW199700   4.192   8.021  11.027  1.0430 -0.0724  0.5602
31460SOL    HW299701   4.157   7.898  11.108  0.4865 -0.3917 -0.1491
31461SOL     OW99702   1.649   3.117   6.981 -0.1270  0.2086  0.3369
31461SOL    HW199703   1.564   3.144   6.946  0.7118  0.8975 -1.2578
31461SOL    HW299704   1.647   3.021   6.978 -0.2992  0.2351 -1.1164
31462SOL     OW99705   2.501   9.168   7.180 -0.1857  0.7770  0.6831
31462SOL    HW199706   2.554   9.182   7.101 -1.2907 -1.3948 -0.5503
31462SOL    HW299707   2.433   9.235   7.176 -0.2972  0.6226 -0.3162
31463SOL     OW99708  10.701   7.922   6.830 -0.0488 -0.1766  0.0523
31463SOL    HW199709  10.655   7.860   6.774 -1.2989  0.2285  0.5876
31463SOL    HW299710  10.781   7.943   6.783 -0.2681 -1.1348 -0.7758
31464SOL     OW99711  10.465  11.523   8.788  0.3767 -0.3204  0.0746
31464SOL    HW199712  10.499  11.453   8.844  0.1944  0.1200  0.7518
31464SOL    HW299713  10.380  11.544   8.826  0.3618  0.1559 -0.2198
31465SOL     OW99714   7.028   3.241   3.400 -0.4503  0.2874 -0.3611
31465SOL    HW199715   7.106   3.295   3.389  0.6667 -1.2402 -0.3219
31465SOL    HW299716   7.049   3.183   3.473 -1.4277 -0.4859 -0.6626
31466SOL     OW99717   2.567   3.232   8.081 -0.5096 -0.5315 -0.9093
31466SOL    HW199718   2.557   3.160   8.143  1.8151 -0.1621 -0.0019
31466SOL    HW299719   2.593   3.190   7.999 -1.3769 -0.8541 -1.0318
31467SOL     OW99720   5.495   4.715   1.755  0.6658  0.0660  0.0525
31467SOL    HW199721   5.448   4.661   1.819  1.0702  1.3315  1.4462
31467SOL    HW299722   5.429   4.777   1.724  1.0043  0.8382  0.8541
31468SOL     OW99723   9.947   4.886   1.623 -0.1541  0.2991 -0.2515
31468SOL    HW199724   9.931   4.811   1.681  0.1198 -1.6830 -2.5681
31468SOL    HW299725   9.871   4.887   1.564  0.9740  0.2512 -1.7854
31469SOL     OW99726   9.684   8.426  10.157  0.4961  0.4324  0.3791
31469SOL    HW199727   9.717   8.382  10.235  0.1651  1.7089  1.2696
31469SOL    HW299728   9.718   8.515  10.163  0.2272  0.6380 -0.7946
31470SOL     OW99729   9.584   2.874   9.071 -0.2301 -0.0750 -0.0452
31470SOL    HW199730   9.623   2.787   9.069 -0.9583 -0.4161 -2.3396
31470SOL    HW299731   9.659   2.933   9.080  0.4624 -0.8724 -0.3666
31471SOL     OW99732  10.844   3.798   6.628 -0.3765 -0.2937  0.1181
31471SOL    HW199733  10.794   3.796   6.547 -0.0675 -1.7493 -0.0839
31471SOL    HW299734  10.936   3.802   6.599 -0.3174  0.7974  0.4400
31472SOL     OW99735   8.466   5.064   2.292  0.4852  0.3607  0.1254
31472SOL    HW199736   8.440   5.003   2.223 -2.0198  0.3756  0.9401
31472SOL    HW299737   8.548   5.027   2.327  0.5638 -0.9082 -1.2900
31473SOL     OW99738   6.656  10.045   3.838 -0.0849 -0.0161  0.0736
31473SOL    HW199739   6.721  10.077   3.775  1.8639 -2.0931  0.8798
31473SOL    HW299740   6.615   9.971   3.794 -2.1567  1.3694 -0.4918
31474SOL     OW99741   1.394   5.419   9.296  0.3179  0.1499 -0.7594
31474SOL    HW199742   1.404   5.324   9.294 -0.9779 -0.0450  0.3584
31474SOL    HW299743   1.386   5.440   9.389  0.3572  1.3339 -1.0074
31475SOL     OW99744   6.615   7.249   8.119 -0.0614 -0.2980  0.4853
31475SOL    HW199745   6.592   7.232   8.028  1.1294  0.6428 -0.0167
31475SOL    HW299746   6.617   7.345   8.125  2.5567 -0.3109  0.7624
31476SOL     OW99747   2.028   7.257   0.432  0.5109  0.3418 -0.1464
31476SOL    HW199748   1.989   7.250   0.345  1.1564 -2.0939 -0.3044
31476SOL    HW299749   1.954   7.256   0.492  0.1226  0.7914 -0.6114
31477SOL     OW99750   8.602   4.476   7.995 -0.5574  0.0684 -0.0556
31477SOL    HW199751   8.574   4.423   7.921 -0.8100  0.1599 -0.0270
31477SOL    HW299752   8.520   4.505   8.036 -0.4306 -0.6787  0.7631
31478SOL     OW99753   8.518   9.952   3.665 -0.0040 -0.0687 -0.1751
31478SOL    HW199754   8.529   9.953   3.761 -0.8710 -1.1386 -0.0455
31478SOL    HW299755   8.513  10.044   3.641 -2.5329  0.2341  1.1660
31479SOL     OW99756   3.005  10.146   5.158  0.5052  0.2661  0.0111
31479SOL    HW199757   3.054  10.079   5.207 -0.6568 -1.3717 -0.9557
31479SOL    HW299758   2.957  10.096   5.092  1.1724  2.2926 -2.1214
31480SOL     OW99759   4.996   5.060  10.335 -0.0796 -0.4272 -0.5537
31480SOL    HW199760   4.946   5.108  10.269 -2.2533  0.9906  1.9088
31480SOL    HW299761   5.058   5.123  10.370 -1.4168  0.0302  1.1487
31481SOL     OW99762   6.846   2.977   3.667 -0.0739  0.4018 -0.3830
31481SOL    HW199763   6.843   2.913   3.596  0.3575  0.3325 -0.3430
31481SOL    HW299764   6.914   2.944   3.726  0.9717  1.4729 -0.9371
31482SOL     OW99765   7.550   0.160   1.144 -0.8172 -0.1225 -0.4472
31482SOL    HW199766   7.645   0.162   1.127 -0.9720 -0.9639 -1.4836
31482SOL    HW299767   7.510   0.157   1.058 -1.7724 -0.6617 -0.0020
31483SOL     OW99768   9.658   7.529   5.681  0.2659 -0.2240  0.3309
31483SOL    HW199769   9.565   7.509   5.674  0.3025 -0.0155 -1.0485
31483SOL    HW299770   9.688   7.480   5.757 -1.2073  0.6304  1.5319
31484SOL     OW99771   9.760   7.356   2.942 -0.2040  0.2328  0.9008
31484SOL    HW199772   9.799   7.404   2.869  0.4076 -1.0892  0.3328
31484SOL    HW299773   9.786   7.407   3.019  1.8846 -0.0697  0.4695
31485SOL     OW99774  11.040  10.870   6.056 -0.5512 -0.1476 -0.3773
31485SOL    HW199775  11.011  10.959   6.076  0.6121  0.2760 -0.4662
31485SOL    HW299776  11.132  10.868   6.085 -0.4790 -1.2288 -0.6419
31486SOL     OW99777   3.771   1.931   6.665  0.3711  0.3205  0.0652
31486SOL    HW199778   3.829   1.862   6.697 -0.2615 -0.7667 -1.0239
31486SOL    HW299779   3.823   1.976   6.597 -0.1772 -0.9980 -1.2942
31487SOL     OW99780   2.293   4.603  11.744  0.1709  0.5451 -0.6698
31487SOL    HW199781   2.229   4.673  11.744  0.4388  0.7939 -1.5617
31487SOL    HW299782   2.247   4.527  11.708 -0.5143 -0.1405  1.4761
31488SOL     OW99783  11.098   9.894   0.049  0.3125  0.4271  0.6997
31488SOL    HW199784  11.182   9.873   0.091 -0.1913 -2.7883  0.3684
31488SOL    HW299785  11.033   9.870   0.115 -0.4020  1.2748  0.3186
31489SOL     OW99786   9.323   5.719   3.985  0.5388  0.0340  0.0281
31489SOL    HW199787   9.260   5.677   4.043  1.2611 -1.1292 -0.0004
31489SOL    HW299788   9.390   5.754   4.044  1.0807 -0.8243 -0.0547
31490SOL     OW99789   8.350   7.677   5.173  0.5106 -0.7337  0.3274
31490SOL    HW199790   8.278   7.688   5.236  0.1158 -0.4666 -0.1615
31490SOL    HW299791   8.321   7.726   5.096  0.8452 -1.3292 -0.1805
31491SOL     OW99792   9.403  10.120   5.536  0.1673 -0.3351 -0.1603
31491SOL    HW199793   9.389  10.215   5.531  1.8214 -0.1205 -2.8406
31491SOL    HW299794   9.480  10.104   5.481  0.6771 -3.1245  1.1793
31492SOL     OW99795   7.584   4.809   6.464  0.3675 -0.2812  0.0002
31492SOL    HW199796   7.552   4.786   6.551  2.8803 -1.0959  0.7897
31492SOL    HW299797   7.507   4.846   6.420 -1.2328 -0.7432  2.1942
31493SOL     OW99798   5.118   0.413   2.998 -0.0561 -0.0010  0.0373
31493SOL    HW199799   5.047   0.371   3.047 -1.6132 -0.1516 -2.2026
31493SOL    HW299800   5.127   0.360   2.919  0.8267  1.4709 -0.8933
31494SOL     OW99801   2.871   9.775   1.530  0.2722 -0.4105  0.3671
31494SOL    HW199802   2.811   9.726   1.586  1.8555 -0.3184  2.2619
31494SOL    HW299803   2.863   9.734   1.444 -4.0732  0.9786 -0.1422
31495SOL     OW99804   5.245  10.996   6.277  0.0222  0.0475 -0.1165
31495SOL    HW199805   5.299  10.916   6.280 -1.9901 -1.3880  0.4931
31495SOL    HW299806   5.206  10.996   6.190 -0.6099 -0.1076  0.1577
31496SOL     OW99807  10.253   9.855   0.749  0.1259 -0.0474 -0.5429
31496SOL    HW199808  10.336   9.893   0.777 -0.4846  0.3888  0.7348
31496SOL    HW299809  10.198   9.856   0.827 -0.3876 -2.3147 -0.8113
31497SOL     OW99810   7.955   1.361   5.281 -0.7298 -0.1546  0.1972
31497SOL    HW199811   7.995   1.434   5.233 -0.6990 -0.2666  0.0508
31497SOL    HW299812   8.006   1.355   5.361  0.9115 -1.5988 -0.8763
31498SOL     OW99813   7.945   7.279   3.199 -0.3148  0.1590  0.2093
31498SOL    HW199814   8.000   7.206   3.229 -0.9790 -0.2112  0.5414
31498SOL    HW299815   7.918   7.254   3.111 -0.7609 -0.1298  0.4232
31499SOL     OW99816  10.904   7.792   2.464 -0.2567  0.0165  0.6805
31499SOL    HW199817  10.906   7.848   2.542  2.2769 -0.3330  0.9461
31499SOL    HW299818  10.984   7.814   2.417 -1.1089 -0.7106 -1.1872
31500SOL     OW99819   0.671   7.785   7.311  0.1478  0.0819  0.1102
31500SOL    HW199820   0.754   7.747   7.283  0.0932  0.5077 -0.6376
31500SOL    HW299821   0.652   7.740   7.393  0.7239 -0.5869 -0.1056
31501SOL     OW99822  10.341   5.095   8.700 -0.0857  0.2450  0.3672
31501SOL    HW199823  10.367   5.094   8.608  1.8605 -0.7470  0.8547
31501SOL    HW299824  10.346   5.003   8.727  0.4380  0.6458  1.7098
31502SOL     OW99825   6.856  10.711   8.234 -0.6938  0.0988 -0.0925
31502SOL    HW199826   6.801  10.745   8.304 -2.7877  1.2199 -2.1483
31502SOL    HW299827   6.820  10.624   8.215  0.4133 -0.5704  0.7113
31503SOL     OW99828   3.579   7.397  10.986  0.0101 -0.0712  0.0566
31503SOL    HW199829   3.606   7.487  10.967  2.0158 -0.6842 -0.2158
31503SOL    HW299830   3.640   7.342  10.936 -1.2162 -1.6036  0.1457
31504SOL     OW99831   5.399   3.832  10.774  0.5030 -0.3789  0.3740
31504SOL    HW199832   5.470   3.771  10.793  0.7194  0.3594  2.1598
31504SOL    HW299833   5.413   3.905  10.835 -0.4510  0.8858 -0.8373
31505SOL     OW99834  10.201   5.822   4.531 -0.6744 -0.2984 -1.2092
31505SOL    HW199835  10.133   5.890   4.539 -1.6134 -1.2333 -1.0058
31505SOL    HW299836  10.242   5.820   4.618 -0.5648  0.0912 -1.2503
31506SOL     OW99837   7.214   2.683  10.063  0.6948  0.3414  0.2824
31506SOL    HW199838   7.283   2.676   9.997  0.8356  1.4172  0.3023
31506SOL    HW299839   7.259   2.665  10.146  0.2604 -2.3653  0.0215
31507SOL     OW99840   6.621   3.142   5.341 -0.5138  0.1690 -0.2972
31507SOL    HW199841   6.717   3.142   5.344 -0.5114 -1.0037  0.0499
31507SOL    HW299842   6.597   3.229   5.373  0.4057 -0.5103  2.5789
31508SOL     OW99843   6.536   3.318   7.808  0.3987 -0.1178 -0.8034
31508SOL    HW199844   6.570   3.404   7.784  1.2511  0.0771  0.9450
31508SOL    HW299845   6.555   3.262   7.732  2.3480  0.5974 -0.8874
31509SOL     OW99846  10.147   4.125   6.337 -0.0068  0.5371 -0.2723
31509SOL    HW199847  10.091   4.078   6.400 -1.1860  1.2736 -0.7449
31509SOL    HW299848  10.157   4.212   6.375  1.7824  0.0875  0.3651
31510SOL     OW99849   4.144   9.360   9.774  0.1449  0.3014 -0.0205
31510SOL    HW199850   4.172   9.320   9.692 -1.5324 -1.2808  0.0956
31510SOL    HW299851   4.054   9.331   9.785  0.2404  0.6600  2.2606
31511SOL     OW99852   7.289   3.928   7.770 -0.1851  0.2794 -0.3821
31511SOL    HW199853   7.263   3.867   7.701  1.2484 -1.2619  0.3499
31511SOL    HW299854   7.368   3.888   7.808 -0.4728  1.4685  1.6069
31512SOL     OW99855   8.359   0.943  11.319 -0.3827  0.4625  0.3909
31512SOL    HW199856   8.437   0.918  11.268  0.6744  2.1866  1.0787
31512SOL    HW299857   8.348   0.872  11.382 -0.5009 -0.7049 -0.8990
31513SOL     OW99858   2.110   6.765   7.763 -0.1240  0.2083  0.1315
31513SOL    HW199859   2.098   6.711   7.842  2.3939  0.1281  0.5465
31513SOL    HW299860   2.038   6.828   7.767 -1.6810 -1.4937  0.9815
31514SOL     OW99861   7.748  11.638   0.356 -0.0349 -0.2979 -0.1066
31514SOL    HW199862   7.715  11.599   0.276  1.4860  0.5635 -1.2176
31514SOL    HW299863   7.681  11.620   0.422 -0.8054 -2.0026 -1.2932
31515SOL     OW99864   6.914   5.823   8.794 -0.1102 -0.5557  0.0123
31515SOL    HW199865   6.882   5.906   8.831  1.1997  0.4662 -1.0532
31515SOL    HW299866   6.843   5.761   8.811 -0.0133  0.0527  3.3113
31516SOL     OW99867   1.598   6.083   7.528  0.1532  0.0774  0.4199
31516SOL    HW199868   1.543   6.021   7.575 -0.5671  1.2840  1.2274
31516SOL    HW299869   1.610   6.043   7.441 -0.8053 -0.8766  0.7033
31517SOL     OW99870   9.754   5.055   0.482  0.6208 -0.0980  0.3269
31517SOL    HW199871   9.732   4.970   0.520 -0.4015 -0.2225 -0.5084
31517SOL    HW299872   9.845   5.071   0.509  0.5773 -1.1101  1.1016
31518SOL     OW99873   7.606   0.034   1.747 -0.5294  0.4075 -0.0205
31518SOL    HW199874   7.545   0.075   1.808  0.1837  2.3262 -0.5104
31518SOL    HW299875   7.551  -0.011   1.683 -1.3421  0.2146  0.8130
31519SOL     OW99876   5.250   1.212   0.267 -0.2515 -0.1423 -0.3032
31519SOL    HW199877   5.286   1.225   0.355 -2.6407  0.2151  0.7075
31519SOL    HW299878   5.173   1.157   0.281 -2.2870  2.1291 -1.7606
31520SOL     OW99879  10.674   7.698   4.681  0.4861 -0.3000 -0.1127
31520SOL    HW199880  10.641   7.672   4.595 -2.6759  2.1845  0.1248
31520SOL    HW299881  10.717   7.782   4.666 -0.7131  0.5100  0.7208
31521SOL     OW99882   7.027   4.340   0.437 -0.7784 -0.3922  0.0745
31521SOL    HW199883   6.989   4.410   0.385 -1.4297  1.0357  2.3313
31521SOL    HW299884   6.992   4.354   0.525  1.4430 -1.7651  1.2555
31522SOL     OW99885   1.054   7.564   0.235 -0.7709 -0.0637  0.2535
31522SOL    HW199886   1.087   7.476   0.253 -0.7184  0.2962  2.0124
31522SOL    HW299887   0.987   7.551   0.167  0.1766 -1.2661 -0.4929
31523SOL     OW99888   6.868   0.498   1.795 -0.3771  0.2362  0.2733
31523SOL    HW199889   6.852   0.591   1.786 -3.2858 -0.0169  1.7669
31523SOL    HW299890   6.818   0.458   1.724 -0.3238 -0.2341  0.4949
31524SOL     OW99891   6.522   2.339   4.391  0.6294  0.2209 -0.0396
31524SOL    HW199892   6.538   2.354   4.485 -1.6995  0.7837  0.3288
31524SOL    HW299893   6.429   2.319   4.386  0.7473  0.0588 -2.2411
31525SOL     OW99894   4.692   6.191   3.124 -0.2273 -0.6521 -0.3013
31525SOL    HW199895   4.601   6.220   3.113  0.1351  1.0846  0.9600
31525SOL    HW299896   4.734   6.210   3.040 -0.6683 -0.0451 -0.3907
31526SOL     OW99897   7.230  10.801   7.754 -0.3883 -0.6260  0.0302
31526SOL    HW199898   7.318  10.838   7.761 -0.4187 -0.4298 -0.5344
31526SOL    HW299899   7.245  10.707   7.741 -0.2352 -0.5298 -0.5529
31527SOL     OW99900   4.653   1.380   5.152 -0.0305 -0.0533 -0.4678
31527SOL    HW199901   4.741   1.347   5.166 -0.2124 -0.6143 -0.5989
31527SOL    HW299902   4.619   1.398   5.239  0.0132 -0.3756 -0.3848
31528SOL     OW99903   7.089   1.741   4.226 -0.3363  0.0174  0.1244
31528SOL    HW199904   7.027   1.725   4.155 -2.0552 -0.1383  1.6061
31528SOL    HW299905   7.036   1.773   4.298  1.1079 -1.3997  1.9043
31529SOL     OW99906   7.000   0.145   8.511 -0.3167 -0.1415  0.0767
31529SOL    HW199907   7.014   0.187   8.427 -1.9914 -1.3721 -0.8825
31529SOL    HW299908   6.932   0.198   8.553  0.9717  0.8554  0.9969
31530SOL     OW99909  11.716   8.664   2.604 -0.8253 -0.1637 -0.2261
31530SOL    HW199910  11.715   8.731   2.672  0.1380  1.9710 -2.1916
31530SOL    HW299911  11.807   8.634   2.601 -0.8760 -0.2902 -0.5512
31531SOL     OW99912   9.043  10.054   4.433 -0.4309 -0.1477 -0.4361
31531SOL    HW199913   9.004  10.120   4.376 -1.8843 -0.7423 -0.1783
31531SOL    HW299914   8.968  10.008   4.472  0.5242 -0.5094  1.0765
31532SOL     OW99915   9.634   0.133  10.920 -0.4437 -0.5395 -0.5214
31532SOL    HW199916   9.574   0.059  10.916  0.0333 -0.9772  0.2296
31532SOL    HW299917   9.584   0.206  10.882 -0.2335 -1.6557 -3.1905
31533SOL     OW99918  10.827   9.346   5.889 -0.4431 -0.5528  0.1948
31533SOL    HW199919  10.824   9.254   5.864 -0.0726 -0.2612 -1.0378
31533SOL    HW299920  10.760   9.387   5.835  1.1190  0.2840 -1.2266
31534SOL     OW99921   6.977   2.242   2.147 -0.1468 -0.0046  0.3966
31534SOL    HW199922   7.012   2.162   2.185 -0.5389 -1.0803 -1.3929
31534SOL    HW299923   7.026   2.312   2.190 -0.0041 -1.1499  2.2210
31535SOL     OW99924  11.518  10.467   7.433  0.2747 -0.0626 -0.0524
31535SOL    HW199925  11.525  10.563   7.429 -0.1175 -0.0313  0.0138
31535SOL    HW299926  11.606  10.436   7.412  1.0367  0.3563  2.2344
31536SOL     OW99927   6.507   1.513   9.538  0.0112 -0.2965 -0.0856
31536SOL    HW199928   6.580   1.459   9.509  1.2167  0.8883  0.6548
31536SOL    HW299929   6.497   1.578   9.469  0.2306  0.0768  0.2343
31537SOL     OW99930   6.155   1.199   8.603 -0.0727 -0.1192 -1.0038
31537SOL    HW199931   6.182   1.112   8.576  2.1917  0.2770 -0.2214
31537SOL    HW299932   6.059   1.197   8.598 -0.2375 -3.2504  0.8488
31538SOL     OW99933   1.515   5.510   4.539 -0.0714 -0.0040  0.4587
31538SOL    HW199934   1.535   5.455   4.615 -0.3993  0.6506  1.0259
31538SOL    HW299935   1.420   5.523   4.544  0.0529  0.9164  0.5469
31539SOL     OW99936   8.920   1.047   1.573 -0.0196  0.2497  0.3333
31539SOL    HW199937   9.009   1.076   1.553 -0.1214 -0.1504 -0.7648
31539SOL    HW299938   8.864   1.098   1.515 -0.4090 -0.3180  0.1985
31540SOL     OW99939   8.220   2.049  11.220  0.0973 -0.2101 -0.0796
31540SOL    HW199940   8.230   2.009  11.133  0.3678  0.9962 -0.6341
31540SOL    HW299941   8.135   2.093  11.216  0.5068  0.6052 -0.0674
31541SOL     OW99942   8.904   3.029   8.083 -0.1158  0.0856 -0.0074
31541SOL    HW199943   8.898   2.990   7.995 -2.0282 -0.5147  0.3318
31541SOL    HW299944   8.983   2.990   8.121 -0.2212 -0.9946 -0.8466
31542SOL     OW99945   6.177   3.478   8.974 -0.4508  0.1556 -0.1323
31542SOL    HW199946   6.269   3.490   8.998 -0.2108 -0.0404 -0.9266
31542SOL    HW299947   6.133   3.555   9.008  0.3264  1.1560 -1.3162
31543SOL     OW99948   9.289   3.259   7.331 -0.2694 -0.1663  0.4419
31543SOL    HW199949   9.232   3.315   7.278 -1.2040 -1.1696  0.3347
31543SOL    HW299950   9.338   3.320   7.386 -0.5059  0.8021 -0.3756
31544SOL     OW99951   2.460   4.679   0.529  0.2885  0.7796 -0.3270
31544SOL    HW199952   2.382   4.733   0.534 -0.6868 -0.6456  0.5409
31544SOL    HW299953   2.511   4.704   0.606 -1.1945 -0.9846  1.3247
31545SOL     OW99954   1.002   5.367   1.555 -0.5489 -0.7126 -0.3790
31545SOL    HW199955   1.039   5.412   1.631 -0.1451 -1.9969  0.2072
31545SOL    HW299956   0.910   5.354   1.578 -0.5296 -0.7045 -0.2957
31546SOL     OW99957   8.200  10.773   2.456  0.2425  0.7592  0.0834
31546SOL    HW199958   8.243  10.848   2.497  1.7204  0.9883 -1.7481
31546SOL    HW299959   8.124  10.810   2.412  0.1159  0.9236  0.4353
31547SOL     OW99960   2.541   0.116   3.729  0.5650 -0.5519  0.1713
31547SOL    HW199961   2.626   0.115   3.685  0.0911  3.6023 -1.1831
31547SOL    HW299962   2.479   0.090   3.661  0.4227 -0.4913  0.2795
31548SOL     OW99963   6.528   9.695   4.821  0.0553 -0.2590  0.5862
31548SOL    HW199964   6.481   9.772   4.789 -0.3461 -1.3415 -1.6411
31548SOL    HW299965   6.464   9.624   4.816  1.3635 -1.4131 -0.8232
31549SOL     OW99966   8.164   7.325   6.684  0.4065 -0.4546  0.4068
31549SOL    HW199967   8.120   7.307   6.766  0.3316  0.9588  0.7117
31549SOL    HW299968   8.246   7.275   6.689  0.4780 -0.2610  1.4094
31550SOL     OW99969   6.548   9.086  10.586 -0.0440  0.2899  0.1505
31550SOL    HW199970   6.617   9.021  10.595 -1.2337 -0.9409  0.8407
31550SOL    HW299971   6.526   9.111  10.677 -0.0872  1.1444 -0.0792
31551SOL     OW99972   0.785   7.618   1.610  0.1321  0.5834 -0.3667
31551SOL    HW199973   0.787   7.527   1.640 -1.2667  0.5136 -0.4303
31551SOL    HW299974   0.871   7.632   1.570  0.4659 -0.6208 -0.1079
31552SOL     OW99975   5.796  11.160   1.726 -0.0550  0.0593  0.5161
31552SOL    HW199976   5.724  11.160   1.663  1.6907  1.8904 -1.6760
31552SOL    HW299977   5.786  11.243   1.773 -0.6976 -0.7835  1.9086
31553SOL     OW99978  11.011  10.290   8.238  0.4753  0.1085 -0.2377
31553SOL    HW199979  10.940  10.226   8.243  0.0896  0.5657  0.2799
31553SOL    HW299980  11.081  10.253   8.292 -0.1558  0.6256  0.9553
31554SOL     OW99981   3.577   0.698  10.285 -0.2225  0.5828  0.4584
31554SOL    HW199982   3.499   0.694  10.340  0.1871 -1.9504  0.9841
31554SOL    HW299983   3.579   0.613  10.241  1.3354  1.2452 -0.8493
31555SOL     OW99984   2.775   9.308   4.125 -0.5289 -0.4577 -0.1272
31555SOL    HW199985   2.739   9.308   4.214 -1.3946 -0.9820 -0.4613
31555SOL    HW299986   2.734   9.384   4.083  0.6052  0.3479  0.1905
31556SOL     OW99987   0.398   9.431  10.652  0.3069 -0.4012 -0.3696
31556SOL    HW199988   0.426   9.345  10.683 -0.3444 -1.2968 -2.1281
31556SOL    HW299989   0.329   9.413  10.589 -1.1664  1.5349  0.5847
31557SOL     OW99990   7.506  11.275   5.732 -0.1993  0.1786  0.1092
31557SOL    HW199991   7.473  11.303   5.647  0.5683  0.8693  0.0192
31557SOL    HW299992   7.434  11.228   5.772 -0.5603 -0.1767 -0.9350
31558SOL     OW99993  10.175   1.036   8.819  0.3917 -0.2432 -0.4904
31558SOL    HW199994  10.083   1.033   8.846 -0.1354  0.6696 -2.0396
31558SOL    HW299995  10.186   0.958   8.764  1.1456 -1.4741  1.3213
31559SOL     OW99996   8.452   0.003  10.000  0.0855 -0.2228 -0.3415
31559SOL    HW199997   8.395   0.049   9.938  1.1324  1.8489  0.1532
31559SOL    HW299998   8.500   0.072  10.045  1.0193 -1.7797  1.1891
31560SOL     OW99999  11.511   6.667   4.522  0.2476  0.6188  0.0956
31560SOL    HW1    0  11.452   6.627   4.585  1.4108  1.5215  1.8382
31560SOL    HW2    1  11.534   6.596   4.461  0.6407 -0.8383  1.8564
31561SOL     OW    2   6.329   4.424   9.092  0.0435  0.2140 -0.1079
31561SOL    HW1    3   6.253   4.423   9.150 -0.5994  1.6267 -0.8673
31561SOL    HW2    4   6.389   4.485   9.134  0.1224  0.2429 -0.2621
31562SOL     OW    5   7.647   7.053   1.595  0.0118  0.1326  0.3529
31562SOL    HW1    6   7.641   7.111   1.671  0.0104 -1.8752  1.9983
31562SOL    HW2    7   7.732   7.072   1.556 -0.2321  1.6031  0.5137
31563SOL     OW    8   3.981   0.335   8.418  0.5013  0.5089 -0.5573
31563SOL    HW1    9   3.905   0.297   8.374 -0.6057  2.0976 -0.0882
31563SOL    HW2   10   4.046   0.348   8.349 -0.4461  1.0785 -1.3525
31564SOL     OW   11   8.419   7.251   2.361  0.8721  0.1734  0.0780
31564SOL    HW1   12   8.404   7.259   2.456 -0.6949  1.2705 -0.2283
31564SOL    HW2   13   8.483   7.320   2.342  0.1338  0.8907  0.1346
31565SOL     OW   14   3.488   6.280   5.383  0.3730  0.3660  0.0311
31565SOL    HW1   15   3.569   6.230   5.389  0.8788  1.1481 -0.1480
31565SOL    HW2   16   3.513   6.369   5.405 -0.4369  0.6269 -0.0578
31566SOL     OW   17   3.104  11.796   7.685 -0.5426 -0.4707  0.3211
31566SOL    HW1   18   3.163  11.802   7.760 -0.8565  0.2404  0.5261
31566SOL    HW2   19   3.055  11.879   7.687 -3.0590 -1.8836  1.4163
31567SOL     OW   20   6.389   5.753  11.474  0.1932 -0.3037  0.0043
31567SOL    HW1   21   6.311   5.784  11.521  0.1695 -0.9586  0.4126
31567SOL    HW2   22   6.430   5.833  11.442 -0.5590  0.0657 -0.0798
31568SOL     OW   23   2.852  11.522   8.239  0.1524  0.0749 -0.0880
31568SOL    HW1   24   2.896  11.454   8.291 -0.9805  0.1765  1.0320
31568SOL    HW2   25   2.880  11.604   8.278 -0.6146  0.1554  0.3153
31569SOL     OW   26   7.867   4.919   1.988 -0.5153  0.4196  0.0741
31569SOL    HW1   27   7.863   4.919   2.084 -1.0891  0.0095  0.0540
31569SOL    HW2   28   7.837   5.007   1.963 -1.5588  0.1146  0.2317
31570SOL     OW   29   7.280   4.116   2.051  0.4137  0.0445 -0.3533
31570SOL    HW1   30   7.198   4.093   2.096 -0.3786  1.0882 -1.2153
31570SOL    HW2   31   7.304   4.037   2.003  1.0929 -0.9881  1.5677
31571SOL     OW   32   9.223   5.158   6.114 -0.1529 -0.4615 -0.3609
31571SOL    HW1   33   9.144   5.203   6.087  0.6457  1.0314 -0.2940
31571SOL    HW2   34   9.206   5.133   6.205  0.4841  2.4092  0.6239
31572SOL     OW   35   6.601   8.808   7.700 -0.7917 -0.3622 -0.0098
31572SOL    HW1   36   6.583   8.715   7.684  1.7278 -1.0763  0.7303
31572SOL    HW2   37   6.599   8.816   7.796  0.6951 -0.1201  0.0354
31573SOL     OW   38   2.314   7.876   7.005  0.2080 -1.0483 -0.0273
31573SOL    HW1   39   2.258   7.944   6.967 -1.6291 -3.4588 -1.9548
31573SOL    HW2   40   2.360   7.921   7.076  0.3268  2.5924 -2.1347
31574SOL     OW   41   7.643   8.940   8.925  0.2483  0.2046 -0.4722
31574SOL    HW1   42   7.708   8.958   8.993 -0.1056 -1.0603  0.2367
31574SOL    HW2   43   7.622   9.026   8.888 -1.0989  1.2747  2.4445
31575SOL     OW   44   8.830   1.560   1.113 -0.1741  0.2757  0.4300
31575SOL    HW1   45   8.848   1.531   1.023 -1.3586 -2.5109  0.9885
31575SOL    HW2   46   8.913   1.595   1.144  0.5971  0.1554 -1.3409
31576SOL     OW   47   7.731   0.198   5.470  0.1907  0.1142 -0.7548
31576SOL    HW1   48   7.748   0.123   5.527 -1.2978  1.7798  2.1531
31576SOL    HW2   49   7.673   0.164   5.402 -0.6370 -1.3581  0.6157
31577SOL     OW   50   2.726  11.451   5.122 -0.5533  0.4613 -0.1584
31577SOL    HW1   51   2.648  11.472   5.070  1.1755 -0.2963 -3.3622
31577SOL    HW2   52   2.708  11.365   5.159 -1.2572  0.2884 -0.8674
31578SOL     OW   53  10.037  11.345   2.037  0.0014  0.3523  0.0423
31578SOL    HW1   54  10.111  11.402   2.014  0.5327 -0.5745 -0.6072
31578SOL    HW2   55   9.976  11.355   1.964 -0.3922  0.8758  0.4296
31579SOL     OW   56   9.226  11.685  10.624 -0.3086 -0.6003  0.1660
31579SOL    HW1   57   9.179  11.757  10.584  1.2368  0.1522 -0.3817
31579SOL    HW2   58   9.308  11.724  10.655 -0.8232 -1.4205  2.8735
31580SOL     OW   59   5.283   1.100  10.111  0.9586 -0.1905  0.1295
31580SOL    HW1   60   5.333   1.100  10.029  1.6080 -0.1440  0.5132
31580SOL    HW2   61   5.250   1.189  10.119 -0.6969 -0.6551 -1.0034
31581SOL     OW   62  11.570   8.827  11.064 -0.7162  0.3420 -0.0808
31581SOL    HW1   63  11.523   8.902  11.101 -0.2495  0.9224 -0.6443
31581SOL    HW2   64  11.512   8.796  10.994 -1.9550 -1.2199  1.5307
31582SOL     OW   65   7.974  10.432   2.921  0.2277 -0.0052 -0.4433
31582SOL    HW1   66   7.999  10.515   2.963 -1.1217 -0.3497  1.1502
31582SOL    HW2   67   7.886  10.448   2.886  0.1776 -0.6087 -0.6005
31583SOL     OW   68  10.893  10.501   5.725  0.6511 -0.2997  0.1684
31583SOL    HW1   69  10.827  10.439   5.695  0.3247  0.8458 -1.6551
31583SOL    HW2   70  10.973  10.450   5.734  0.2842 -1.0729 -0.8352
31584SOL     OW   71   5.506  10.767   0.417  0.1638 -1.0880 -0.4045
31584SOL    HW1   72   5.571  10.799   0.355  0.6409 -1.1315  0.0671
31584SOL    HW2   73   5.508  10.671   0.407 -0.2816 -1.0571 -0.8354
31585SOL     OW   74  10.320   6.279   1.364 -0.1727 -0.0495  0.4565
31585SOL    HW1   75  10.404   6.234   1.357  0.0936  0.5276 -0.1007
31585SOL    HW2   76  10.311   6.300   1.457 -0.1374 -0.9314  0.6698
31586SOL     OW   77   2.345   2.846   0.046  0.3984 -0.4305 -0.4394
31586SOL    HW1   78   2.404   2.897  -0.009  1.3718  1.1090  1.8470
31586SOL    HW2   79   2.269   2.904   0.060 -0.0647 -0.9978 -0.5672
31587SOL     OW   80   4.193   4.237   5.974 -0.0114 -0.4723 -0.1937
31587SOL    HW1   81   4.107   4.257   6.010 -0.2230 -0.2584 -0.8091
31587SOL    HW2   82   4.179   4.226   5.880  0.4584 -1.4770 -0.1615
31588SOL     OW   83   8.056   7.194   7.644  0.4383 -0.1678 -0.4665
31588SOL    HW1   84   8.116   7.208   7.717 -0.2122 -0.0834  0.0610
31588SOL    HW2   85   8.095   7.121   7.595  0.5916 -0.6011  0.2792
31589SOL     OW   86   1.954   5.646   6.437 -0.5783  0.0709  0.0723
31589SOL    HW1   87   1.898   5.669   6.362  1.3362  1.3659 -1.0606
31589SOL    HW2   88   1.982   5.556   6.419 -1.0329 -0.0274 -0.1659
31590SOL     OW   89   6.079   8.881   7.382  0.7196 -0.3875  0.0267
31590SOL    HW1   90   6.125   8.827   7.318  1.6228  2.0508 -1.5149
31590SOL    HW2   91   6.147   8.905   7.446  0.6244 -0.1234  0.0310
31591SOL     OW   92   6.961   0.774   6.422 -0.3598  0.0965 -0.3667
31591SOL    HW1   93   7.040   0.809   6.382 -1.2557  1.1778 -1.2803
31591SOL    HW2   94   6.891   0.830   6.389 -1.2595  0.6628  2.2134
31592SOL     OW   95   3.780   6.060   1.540  0.4981  0.0468  0.1327
31592SOL    HW1   96   3.856   6.118   1.545  0.5118 -0.0306  0.9041
31592SOL    HW2   97   3.742   6.078   1.454  0.3670  1.3781  0.4479
31593SOL     OW   98   1.169   8.251   9.747  0.0848 -0.3621 -0.0396
31593SOL    HW1   99   1.151   8.328   9.693  1.4827 -1.4126 -2.1610
31593SOL    HW2  100   1.146   8.177   9.692  1.9268 -1.5039  0.6161
31594SOL     OW  101   5.323   4.994  10.786  0.2105 -0.3770  0.2233
31594SOL    HW1  102   5.275   5.075  10.774  0.8364 -0.1241 -0.6839
31594SOL    HW2  103   5.414   5.016  10.762  0.1299 -1.6748 -1.5079
31595SOL     OW  104   9.031   7.450   6.116  0.2268 -0.3631  0.1406
31595SOL    HW1  105   8.942   7.422   6.138  0.4249 -0.1413  1.2930
31595SOL    HW2  106   9.087   7.380   6.148  0.7174  1.1528  2.8835
31596SOL     OW  107   3.325   5.917   4.175 -0.2781 -0.1241  0.0715
31596SOL    HW1  108   3.328   6.012   4.163 -1.3684 -0.0955 -0.0419
31596SOL    HW2  109   3.364   5.902   4.262  0.7717  0.3276 -0.3065
31597SOL     OW  110  11.253   6.578   0.139  0.1793 -0.2053  0.0147
31597SOL    HW1  111  11.226   6.665   0.168 -0.9520 -0.8865  1.1205
31597SOL    HW2  112  11.305   6.594   0.060  0.5044  1.4971  0.5251
31598SOL     OW  113   7.332   9.257   0.301 -0.1924  0.5239  0.0897
31598SOL    HW1  114   7.399   9.299   0.355 -0.6869  1.6675 -0.1723
31598SOL    HW2  115   7.282   9.203   0.364 -0.1530  1.0730  0.6006
31599SOL     OW  116   7.548   9.375   0.730  0.1192  0.3856 -0.3012
31599SOL    HW1  117   7.466   9.339   0.764  1.6013 -2.1262  0.9306
31599SOL    HW2  118   7.576   9.438   0.796 -0.2848  0.4572 -0.1965
31600SOL     OW  119   2.619   5.033   9.702  0.4770 -0.4045  0.3224
31600SOL    HW1  120   2.586   5.122   9.688  0.1959 -0.5836 -0.1501
31600SOL    HW2  121   2.714   5.041   9.688  0.4471 -0.1903  0.2298
31601SOL     OW  122   9.619   5.365   8.915  0.0291  0.6245  0.4006
31601SOL    HW1  123   9.630   5.300   8.845  0.4516  1.2082 -0.0911
31601SOL    HW2  124   9.525   5.383   8.916 -0.2763 -0.8584  1.3581
31602SOL     OW  125  10.232   9.067   4.099  0.6365 -0.0300 -0.0440
31602SOL    HW1  126  10.299   9.128   4.127  0.2828  0.4088 -0.1463
31602SOL    HW2  127  10.252   8.986   4.146 -0.5579  0.9686  2.3839
31603SOL     OW  128   8.335  11.793   4.316  0.2702 -0.0852 -0.3784
31603SOL    HW1  129   8.308  11.731   4.384  0.4326  0.7269  0.4422
31603SOL    HW2  130   8.291  11.763   4.237 -1.3383 -0.0369  0.4675
31604SOL     OW  131  11.168   8.314   8.171 -0.3825  0.4785 -0.1363
31604SOL    HW1  132  11.224   8.391   8.182  0.2557  0.0698 -0.4882
31604SOL    HW2  133  11.080   8.350   8.163  0.0709  1.3109 -1.8875
31605SOL     OW  134   3.173   0.674   8.857  0.0331  0.0412 -1.0187
31605SOL    HW1  135   3.258   0.637   8.833  0.6876  0.2344  0.8633
31605SOL    HW2  136   3.150   0.731   8.783  1.1698 -0.5784 -1.8813
31606SOL     OW  137  10.959   6.861   4.396  0.4934  0.6764  0.8578
31606SOL    HW1  138  11.021   6.788   4.402 -0.7848 -0.3091  3.0033
31606SOL    HW2  139  10.972   6.910   4.476 -0.1483  1.6016  0.4091
31607SOL     OW  140   5.347   2.069   4.657 -0.3102 -0.1371 -0.0167
31607SOL    HW1  141   5.317   2.132   4.722 -0.2672 -0.8862  0.7463
31607SOL    HW2  142   5.332   2.112   4.573 -0.3003  0.8732  0.4856
31608SOL     OW  143   2.961   0.848   5.898  0.3249 -0.4196 -0.2251
31608SOL    HW1  144   2.879   0.866   5.944  0.0637 -1.8742 -0.0665
31608SOL    HW2  145   3.009   0.789   5.956  0.3633 -1.5954 -1.4143
31609SOL     OW  146   2.552   1.426   3.196  1.1216  0.4823 -0.2469
31609SOL    HW1  147   2.611   1.361   3.233 -1.8777 -1.8306  0.8809
31609SOL    HW2  148   2.493   1.376   3.139 -2.0135  1.8889  1.4800
31610SOL     OW  149   3.261  11.226   5.721 -0.3256  0.2565  0.4487
31610SOL    HW1  150   3.166  11.217   5.722 -0.5754  1.8729 -1.9253
31610SOL    HW2  151   3.293  11.136   5.708 -1.4820 -0.3217  1.4021
31611SOL     OW  152   9.864   1.555   4.267 -0.2092 -0.1331 -0.1468
31611SOL    HW1  153   9.930   1.619   4.296  0.9518 -1.6153  0.5981
31611SOL    HW2  154   9.810   1.604   4.204  1.6354  1.1183 -0.8578
31612SOL     OW  155   5.900   8.221   6.399  0.2850 -0.1721  0.1083
31612SOL    HW1  156   5.953   8.159   6.348  1.3562  0.5556  0.3106
31612SOL    HW2  157   5.850   8.269   6.332  0.0778 -0.6814 -0.1067
31613SOL     OW  158   6.976  11.641   5.522  0.1319 -0.0425 -0.8200
31613SOL    HW1  159   7.004  11.655   5.612  1.2119 -0.6118 -1.0392
31613SOL    HW2  160   7.056  11.614   5.476 -0.7267 -1.5081 -1.5547
31614SOL     OW  161   5.114   2.460   0.377  0.2257  0.2958  0.2833
31614SOL    HW1  162   5.086   2.406   0.304 -1.0596  1.1335  0.1208
31614SOL    HW2  163   5.124   2.398   0.450 -0.4856 -0.2741 -0.0839
31615SOL     OW  164   9.425   9.010   4.538 -0.0253  0.2316  0.3552
31615SOL    HW1  165   9.348   9.065   4.554  0.1667  0.1302  1.6774
31615SOL    HW2  166   9.499   9.069   4.549  0.1116  0.7883 -2.7080
31616SOL     OW  167   0.771   4.026   0.059  0.2351 -0.1130  0.2424
31616SOL    HW1  168   0.822   4.060   0.132  0.2105 -0.9963  0.6839
31616SOL    HW2  169   0.834   4.014  -0.011  0.2685  0.6983  0.1265
31617SOL     OW  170  11.556   9.005   5.521 -0.2159  0.0139  0.1637
31617SOL    HW1  171  11.468   9.024   5.554 -0.6236 -0.4936 -0.5936
31617SOL    HW2  172  11.573   9.074   5.457 -0.4386 -0.3970 -0.3449
31618SOL     OW  173   8.782   9.422   4.944 -0.2531  0.2986 -0.1548
31618SOL    HW1  174   8.868   9.383   4.929  0.0475  1.6553 -2.3523
31618SOL    HW2  175   8.791   9.470   5.026  0.3537 -1.3990  0.8250
31619SOL     OW  176   0.824   7.456   7.838 -0.7966 -0.2713  0.1709
31619SOL    HW1  177   0.908   7.445   7.882 -0.2692  0.9464 -0.4693
31619SOL    HW2  178   0.838   7.422   7.749 -0.0736  2.3926 -0.8353
31620SOL     OW  179  10.064   2.754   1.854 -0.2417 -0.0806 -0.0464
31620SOL    HW1  180  10.085   2.782   1.943  0.4837 -0.8302  0.0359
31620SOL    HW2  181  10.102   2.667   1.848 -0.8886 -0.3078 -0.8710
31621SOL     OW  182   5.762   3.940  11.739 -0.5362  0.1607  0.3905
31621SOL    HW1  183   5.773   3.933  11.644 -0.7608 -2.6397  0.4802
31621SOL    HW2  184   5.685   3.996  11.751 -1.0180 -0.1486 -1.1230
31622SOL     OW  185   4.320  11.792   1.186 -0.6174  0.6217  0.0812
31622SOL    HW1  186   4.274  11.871   1.215  1.2452  1.7867  0.0320
31622SOL    HW2  187   4.376  11.823   1.114  0.3525 -0.6838  0.2473
31623SOL     OW  188   3.775   3.864   5.252 -0.2447 -0.0171  0.2571
31623SOL    HW1  189   3.759   3.956   5.235  1.3681  0.1409 -0.5240
31623SOL    HW2  190   3.859   3.845   5.211 -0.1349 -1.6341  1.1244
31624SOL     OW  191  11.608   7.878   4.268  0.1266 -0.1765 -0.7799
31624SOL    HW1  192  11.531   7.925   4.298 -0.3724 -0.7277 -1.1823
31624SOL    HW2  193  11.649   7.937   4.205  0.8740  0.7512  0.5330
31625SOL     OW  194   2.351   1.805   9.229  0.4444  0.5493  0.5393
31625SOL    HW1  195   2.317   1.810   9.318 -1.0175 -0.9622  0.1048
31625SOL    HW2  196   2.426   1.745   9.236  0.1032  0.1350  0.6965
31626SOL     OW  197   6.664  11.607   5.121 -0.6307  0.4292 -0.4052
31626SOL    HW1  198   6.672  11.696   5.155 -3.8382  0.4134  0.7364
31626SOL    HW2  199   6.649  11.618   5.027 -2.4908  1.2878 -0.0669
31627SOL     OW  200   8.610   9.955   7.699  0.0445 -0.1298  0.5374
31627SOL    HW1  201   8.529   9.964   7.750 -0.1642  0.3230  0.1292
31627SOL    HW2  202   8.680   9.969   7.763 -0.2183  0.6329  0.6667
31628SOL     OW  203  10.003  11.062   6.601  0.1731 -0.2737 -0.1232
31628SOL    HW1  204  10.015  10.971   6.626 -1.0776  0.0729  1.9533
31628SOL    HW2  205   9.910  11.070   6.581  0.6952  0.0365 -2.7856
31629SOL     OW  206  10.612  10.627   1.794  0.5779 -0.0613 -0.4585
31629SOL    HW1  207  10.693  10.670   1.823  1.4353 -2.7261  1.5583
31629SOL    HW2  208  10.641  10.562   1.730  0.2089 -1.3366  0.5970
31630SOL     OW  209  11.287   8.187   5.973 -0.2817 -0.4487  0.1627
31630SOL    HW1  210  11.346   8.200   5.899 -0.4919  0.5006  0.1573
31630SOL    HW2  211  11.255   8.097   5.963 -0.8623 -0.1040 -1.3067
31631SOL     OW  212  10.986   4.483   4.244  0.6034 -0.2337  0.0296
31631SOL    HW1  213  11.011   4.415   4.182  0.3704 -0.8541  0.6050
31631SOL    HW2  214  11.057   4.483   4.309 -0.6711 -1.8156  1.5213
31632SOL     OW  215   1.643  11.646   3.154  0.0027 -0.6089  0.2996
31632SOL    HW1  216   1.682  11.586   3.218  0.0081 -0.8953  0.0311
31632SOL    HW2  217   1.713  11.710   3.136 -0.8051  1.0391  2.4964
31633SOL     OW  218   3.800   0.666   8.980 -0.5183 -0.3611 -0.0736
31633SOL    HW1  219   3.890   0.643   8.954 -0.8816 -0.1865 -1.6058
31633SOL    HW2  220   3.748   0.650   8.901 -2.1080 -1.9209  1.1969
31634SOL     OW  221   0.157   8.161   1.226  0.7379  0.1656  0.8340
31634SOL    HW1  222   0.203   8.084   1.193  1.2643  0.8678 -0.1111
31634SOL    HW2  223   0.148   8.144   1.320  1.2505 -0.8372  0.7233
31635SOL     OW  224   4.881   0.933   1.371 -0.1871 -0.4145 -0.2796
31635SOL    HW1  225   4.883   0.890   1.457  0.5922 -0.2850 -0.2167
31635SOL    HW2  226   4.851   0.865   1.311  1.1467 -1.1215 -0.2037
31636SOL     OW  227  11.311   3.208   2.446 -0.7484 -0.1157 -0.5965
31636SOL    HW1  228  11.386   3.219   2.388 -0.6279  1.3350 -0.2002
31636SOL    HW2  229  11.247   3.161   2.392  0.0053 -0.3460 -1.3186
31637SOL     OW  230   7.891  10.132   5.207 -0.1924  0.3272  0.3323
31637SOL    HW1  231   7.835  10.190   5.156 -0.2703  0.4327  0.5389
31637SOL    HW2  232   7.902  10.176   5.291  0.9784  0.7551 -0.0338
31638SOL     OW  233   6.566   0.794   3.231 -0.1987 -0.0261  0.3548
31638SOL    HW1  234   6.530   0.848   3.161  0.1545 -0.7362 -0.3962
31638SOL    HW2  235   6.569   0.852   3.307  1.3565  1.4225 -0.7348
31639SOL     OW  236   6.814   6.706   4.679 -0.7538 -0.0817 -0.6536
31639SOL    HW1  237   6.876   6.741   4.615 -0.1539 -0.6049 -0.3712
31639SOL    HW2  238   6.745   6.666   4.626  0.4940 -1.8556 -1.0247
31640SOL     OW  239   5.708   3.004   1.443  0.3021 -0.0939  0.1841
31640SOL    HW1  240   5.754   3.073   1.491  1.5799  0.4516 -1.7409
31640SOL    HW2  241   5.765   2.927   1.451 -0.2110 -0.4304  0.7440
31641SOL     OW  242   6.199   1.890   8.654 -0.0770 -0.7808  0.3386
31641SOL    HW1  243   6.123   1.834   8.638  0.4745 -1.3498 -0.3674
31641SOL    HW2  244   6.235   1.906   8.567 -0.6609  1.3225  0.4303
31642SOL     OW  245   8.983   6.693   2.138 -0.0152 -0.2206  0.0706
31642SOL    HW1  246   9.007   6.623   2.198  0.4807  1.3054  1.7465
31642SOL    HW2  247   9.059   6.701   2.079 -0.4973 -1.7148 -0.8015
31643SOL     OW  248   3.782  10.382   7.147  0.4969 -0.2318  0.2158
31643SOL    HW1  249   3.841  10.321   7.102  1.4175  0.4169  0.5123
31643SOL    HW2  250   3.695  10.356   7.118  0.9753 -0.7278 -0.8408
31644SOL     OW  251   9.949   3.832   9.264 -0.2075 -0.4203  0.2583
31644SOL    HW1  252   9.982   3.881   9.190  1.0907 -0.3727  0.8406
31644SOL    HW2  253   9.919   3.898   9.326  1.5462 -0.3140  1.0460
31645SOL     OW  254   3.394   2.829   8.637 -0.1424  0.1241 -0.4904
31645SOL    HW1  255   3.361   2.913   8.606  0.9686  0.4493 -0.8195
31645SOL    HW2  256   3.319   2.770   8.629 -0.9225  1.0602 -0.2954
31646SOL     OW  257   2.134  10.898   4.287  0.2599  0.2936 -0.1944
31646SOL    HW1  258   2.129  10.802   4.286 -0.8500  0.3356  0.1999
31646SOL    HW2  259   2.069  10.925   4.352  0.9070  1.2997  0.0529
31647SOL     OW  260   7.022  11.540  10.703 -0.5069 -0.0296 -0.0566
31647SOL    HW1  261   6.969  11.601  10.754  0.6415 -0.0229  1.1984
31647SOL    HW2  262   7.011  11.456  10.749 -0.4761 -0.3226 -0.5757
31648SOL     OW  263   0.665  11.323  10.739 -0.1563  0.0653 -0.4396
31648SOL    HW1  264   0.703  11.410  10.727 -0.6553  0.3345 -0.1378
31648SOL    HW2  265   0.701  11.271  10.668 -1.7791  1.1813 -2.1741
31649SOL     OW  266   0.034   0.465   0.830  0.1921  0.7256 -0.1913
31649SOL    HW1  267   0.071   0.397   0.773 -0.2223  0.1415  0.2193
31649SOL    HW2  268   0.093   0.467   0.906 -0.5627 -0.1752  0.4434
31650SOL     OW  269   0.015   9.938   0.644 -0.2106  0.1017 -0.3341
31650SOL    HW1  270   0.110   9.943   0.646 -0.0792 -1.1411 -1.7725
31650SOL    HW2  271  -0.005   9.854   0.604 -1.8702  1.1968 -2.0167
31651SOL     OW  272   3.331  11.763   1.891  0.7862 -0.5950 -0.2804
31651SOL    HW1  273   3.350  11.836   1.832 -0.9052 -0.1353 -0.2874
31651SOL    HW2  274   3.369  11.687   1.848  0.4047 -0.1098 -1.4934
31652SOL     OW  275   2.039   6.884   9.305 -0.0957 -0.0341 -0.1651
31652SOL    HW1  276   2.024   6.814   9.241  0.9507  0.2172 -0.7112
31652SOL    HW2  277   1.978   6.953   9.280 -0.3278 -0.2958 -0.3275
31653SOL     OW  278  10.366   8.463   8.224 -0.6768  0.1700 -0.2893
31653SOL    HW1  279  10.392   8.526   8.292  0.2343  0.7390 -1.1393
31653SOL    HW2  280  10.356   8.380   8.271  1.1280  0.2904  0.3690
31654SOL     OW  281   7.330   3.657   5.607 -0.8447 -0.0860  0.1253
31654SOL    HW1  282   7.287   3.741   5.622 -2.1245 -0.7567  0.3421
31654SOL    HW2  283   7.342   3.620   5.694 -2.8129 -1.3202 -0.0651
31655SOL     OW  284   6.237   7.483   1.904  0.0593 -0.0353 -0.3407
31655SOL    HW1  285   6.330   7.458   1.898 -0.0838 -0.3310 -1.8780
31655SOL    HW2  286   6.197   7.413   1.954  0.6328 -0.0205  0.1472
31656SOL     OW  287   1.591   2.156   4.774  0.0292  0.1344 -0.1626
31656SOL    HW1  288   1.605   2.105   4.854 -0.3366 -0.7068 -0.6234
31656SOL    HW2  289   1.672   2.207   4.763  1.2555 -1.8169 -0.7366
31657SOL     OW  290   5.449   1.446  10.258 -0.1628 -0.1945 -0.4854
31657SOL    HW1  291   5.476   1.367  10.211 -1.1907  0.1467 -1.7190
31657SOL    HW2  292   5.469   1.518  10.198  0.4668  0.4745  0.4955
31658SOL     OW  293   5.147   8.625   3.074  0.3276  0.5040 -0.0169
31658SOL    HW1  294   5.112   8.708   3.107  0.8381  0.3569  0.9036
31658SOL    HW2  295   5.117   8.622   2.983  1.6080  2.4576 -0.5694
31659SOL     OW  296   3.909   5.927   7.863 -0.7087  0.6774  0.1119
31659SOL    HW1  297   3.828   5.908   7.912  0.0069 -1.1804  0.6488
31659SOL    HW2  298   3.893   5.890   7.776 -0.3147 -0.0291  0.3333
31660SOL     OW  299   6.256   4.515   2.834 -0.0777  0.0579 -0.2145
31660SOL    HW1  300   6.299   4.601   2.838 -3.4453  1.8865  0.5293
31660SOL    HW2  301   6.275   4.475   2.919 -1.3154  1.6501  0.8656
31661SOL     OW  302   9.131  11.739   2.105  0.0508  0.5934  0.0828
31661SOL    HW1  303   9.164  11.680   2.173  0.5748  1.9783  1.0798
31661SOL    HW2  304   9.060  11.788   2.147 -2.6847 -1.5392 -1.7020
31662SOL     OW  305   8.675  10.202   8.743 -0.3047  0.0087  0.4271
31662SOL    HW1  306   8.614  10.128   8.745 -0.4262  0.0861 -0.1504
31662SOL    HW2  307   8.692  10.222   8.835  1.4883 -2.1784  0.6827
31663SOL     OW  308   3.485   5.418   1.965 -0.6489 -0.5389  0.1077
31663SOL    HW1  309   3.482   5.379   2.052  0.7073 -1.6447 -0.3043
31663SOL    HW2  310   3.393   5.434   1.942 -1.0791 -1.1951  1.3079
31664SOL     OW  311   9.947  10.989   7.998 -0.3710  0.0395 -0.4963
31664SOL    HW1  312   9.982  11.056   7.939 -0.1828  2.0510  1.7386
31664SOL    HW2  313   9.926  10.915   7.941  0.5566  1.5369 -2.9280
31665SOL     OW  314   5.195   6.517   5.430  0.6204  0.0307  0.0517
31665SOL    HW1  315   5.205   6.569   5.350  0.7410  1.2252  0.8130
31665SOL    HW2  316   5.243   6.436   5.412  0.7622  0.3420 -1.0297
31666SOL     OW  317   8.849  10.824   2.029  0.1813 -0.0212 -0.1674
31666SOL    HW1  318   8.855  10.897   2.090 -0.4882 -0.9760  1.0617
31666SOL    HW2  319   8.939  10.811   1.998  0.5079  0.5205  0.5508
31667SOL     OW  320   3.481   3.469   0.054  0.4473 -0.0980  0.6054
31667SOL    HW1  321   3.391   3.443   0.075  0.5652  0.0684  1.3292
31667SOL    HW2  322   3.473   3.516  -0.029 -0.6642  2.9200  2.2687
31668SOL     OW  323   3.434   5.437  10.151  0.1146  0.1949  0.4734
31668SOL    HW1  324   3.515   5.467  10.110  0.8662  0.7876  2.2703
31668SOL    HW2  325   3.391   5.517  10.181 -0.4786 -0.2014  0.7124
31669SOL     OW  326   7.054   5.647   3.315  0.1884  0.8208 -0.0161
31669SOL    HW1  327   7.062   5.641   3.410 -0.5577  1.8399  0.1314
31669SOL    HW2  328   7.024   5.560   3.288  0.9681  0.3436  0.5979
31670SOL     OW  329   7.084  11.067   7.461  0.2925 -0.2846  0.3396
31670SOL    HW1  330   7.068  10.973   7.458  2.0530 -0.5872 -0.4586
31670SOL    HW2  331   7.059  11.098   7.374 -0.2952  0.0006  0.6051
31671SOL     OW  332   2.074  11.777  11.497  0.5765  0.1436 -0.4413
31671SOL    HW1  333   2.153  11.738  11.462  0.3920 -1.0453  0.4063
31671SOL    HW2  334   2.083  11.769  11.592 -0.7218 -0.3506 -0.3442
31672SOL     OW  335   4.737   8.196   8.933 -0.1410  0.1724  0.2297
31672SOL    HW1  336   4.814   8.206   8.878 -0.8172 -0.3129 -0.8400
31672SOL    HW2  337   4.697   8.114   8.904 -1.7288  1.0283 -0.0906
31673SOL     OW  338   0.064   5.835   8.777  0.2461  0.0707  0.0935
31673SOL    HW1  339   0.055   5.920   8.820  0.2481 -1.0111  2.3956
31673SOL    HW2  340   0.025   5.773   8.839 -0.8000 -1.4976 -2.0257
31674SOL     OW  341  11.180   2.705   1.237 -0.3078 -0.1176  0.3561
31674SOL    HW1  342  11.098   2.742   1.270  0.3010  2.3338 -0.6326
31674SOL    HW2  343  11.248   2.759   1.279  0.6147  0.4530 -1.7364
31675SOL     OW  344  11.139   7.044   0.826  0.5754  0.2278  0.2777
31675SOL    HW1  345  11.220   7.091   0.844  0.3682 -0.2985  3.0336
31675SOL    HW2  346  11.168   6.958   0.796  1.0089  0.4795 -0.0379
31676SOL     OW  347   3.715  10.396   6.783  0.0207 -0.4538 -0.3828
31676SOL    HW1  348   3.672  10.467   6.831 -0.7036 -1.1314 -0.0059
31676SOL    HW2  349   3.748  10.437   6.703  1.4650  0.7576  0.7828
31677SOL     OW  350   2.887   4.071   2.710  0.2996  0.3292 -0.3102
31677SOL    HW1  351   2.937   4.152   2.720  1.9856 -0.4968 -1.6743
31677SOL    HW2  352   2.937   4.005   2.758  0.0010 -0.3241 -0.8775
31678SOL     OW  353   3.584   3.693   9.198 -0.0339 -0.1682  0.3073
31678SOL    HW1  354   3.676   3.685   9.224 -0.4885 -1.4136  1.6913
31678SOL    HW2  355   3.572   3.626   9.132  0.4068  1.0657 -1.0825
31679SOL     OW  356   3.510   5.165  11.479  0.5485  0.2458 -0.2702
31679SOL    HW1  357   3.587   5.114  11.454  1.1002  0.1274  1.5500
31679SOL    HW2  358   3.541   5.255  11.482 -0.3647  0.7644 -3.2373
31680SOL     OW  359   7.732  10.341  11.189  0.1549 -0.8546  0.2101
31680SOL    HW1  360   7.740  10.337  11.094 -0.4424 -0.4780  0.1426
31680SOL    HW2  361   7.808  10.292  11.221  0.3667 -0.9721 -0.4569
31681SOL     OW  362   6.499   3.601   9.499 -0.2015 -0.7869  0.3939
31681SOL    HW1  363   6.440   3.526   9.509  0.0371 -0.7678  2.0819
31681SOL    HW2  364   6.447   3.665   9.449 -0.7500 -1.6747 -0.2128
31682SOL     OW  365   0.895   1.905   5.571  0.5861  0.1325  0.0924
31682SOL    HW1  366   0.822   1.898   5.510  0.4336  0.3830  0.2427
31682SOL    HW2  367   0.966   1.856   5.529  0.4756  0.2781 -0.2756
31683SOL     OW  368   8.944  10.545   6.125  0.0748  0.1352 -0.5719
31683SOL    HW1  369   8.912  10.635   6.133 -0.4549 -0.0764 -0.2954
31683SOL    HW2  370   8.874  10.499   6.079 -0.0213 -0.3310  0.0289
31684SOL     OW  371   3.217   7.115  11.556  0.0577  0.2904  0.1535
31684SOL    HW1  372   3.291   7.127  11.498 -1.0649 -0.5357 -1.5280
31684SOL    HW2  373   3.232   7.029  11.596 -0.1259 -0.0070 -0.4092
31685SOL     OW  374   6.181   0.528   2.923 -0.3423 -0.7364 -0.3731
31685SOL    HW1  375   6.158   0.555   3.012 -2.0392 -1.7743 -0.4582
31685SOL    HW2  376   6.137   0.592   2.866  0.4293 -0.2962 -0.4881
31686SOL     OW  377   1.955   0.283  10.463 -0.0409  0.0130  0.4556
31686SOL    HW1  378   2.035   0.240  10.494 -0.0289  0.2259  0.7339
31686SOL    HW2  379   1.921   0.328  10.541  1.0090  2.1502 -0.2291
31687SOL     OW  380  11.326   1.923  10.309 -0.5307 -0.1688  0.2549
31687SOL    HW1  381  11.316   1.829  10.324  0.5480 -0.3416 -0.0121
31687SOL    HW2  382  11.364   1.957  10.390 -1.5259  0.1675  0.6001
31688SOL     OW  383   6.021   9.304   9.389 -0.8308 -0.0365  0.0911
31688SOL    HW1  384   6.046   9.283   9.479 -0.8435 -1.7990 -0.2773
31688SOL    HW2  385   6.104   9.313   9.342 -0.8311 -0.1744  0.0630
31689SOL     OW  386   3.570   5.908   0.352  0.1182  0.2843 -0.2185
31689SOL    HW1  387   3.485   5.897   0.310  0.0352  2.4801 -0.7295
31689SOL    HW2  388   3.633   5.891   0.282  0.2215 -2.4053  0.4070
31690SOL     OW  389   8.560   2.873   1.879 -0.1200 -0.5392  0.3917
31690SOL    HW1  390   8.655   2.882   1.881 -0.2773  2.7404 -0.3342
31690SOL    HW2  391   8.527   2.963   1.885 -3.1070 -1.2726 -2.0765
31691SOL     OW  392  11.067   3.854   5.838  0.5902 -0.4246 -0.3639
31691SOL    HW1  393  11.057   3.760   5.857  0.2076 -0.0678  1.3596
31691SOL    HW2  394  11.123   3.856   5.760  0.3505 -2.0833 -0.6339
31692SOL     OW  395   9.080   9.001   8.684  0.0954  0.0168  0.1441
31692SOL    HW1  396   9.031   8.996   8.602  1.2525  2.2754 -0.8006
31692SOL    HW2  397   9.045   8.931   8.738 -0.6754 -1.6170 -2.2934
31693SOL     OW  398   7.955   5.062   0.602  0.0081 -0.1895 -0.3906
31693SOL    HW1  399   7.937   5.147   0.562 -1.2757 -0.3731 -0.2282
31693SOL    HW2  400   8.042   5.038   0.569  1.4772  2.2554  1.4336
31694SOL     OW  401   8.737   4.878   2.132 -0.1832  0.6035 -0.0436
31694SOL    HW1  402   8.805   4.942   2.111  1.9113 -1.9757 -1.8700
31694SOL    HW2  403   8.692   4.864   2.049 -0.0007 -0.8679  0.0768
31695SOL     OW  404   1.941   0.324   2.733 -0.0715  0.2881  0.4018
31695SOL    HW1  405   1.968   0.382   2.662  2.3904 -1.7836 -0.4871
31695SOL    HW2  406   1.965   0.371   2.813  2.8025  0.1824 -0.3088
31696SOL     OW  407   2.899   1.898   4.598  0.1644 -0.3932  0.9163
31696SOL    HW1  408   2.920   1.830   4.534 -1.0083  0.4920 -0.4556
31696SOL    HW2  409   2.974   1.900   4.657  1.1266 -1.4553 -0.2342
31697SOL     OW  410  11.329   0.943   5.435 -0.2010 -0.5738  0.2056
31697SOL    HW1  411  11.309   0.873   5.373 -0.5980 -0.4198  0.1587
31697SOL    HW2  412  11.271   0.927   5.509 -0.7195  0.0485 -0.0579
31698SOL     OW  413   0.750   0.345   6.448 -0.0845  0.2591 -0.0365
31698SOL    HW1  414   0.660   0.316   6.434  0.5436 -1.3996 -0.9594
31698SOL    HW2  415   0.750   0.384   6.535 -1.4949 -0.6125  0.3776
31699SOL     OW  416   8.359   6.683   5.838 -0.0579 -0.3051  0.2078
31699SOL    HW1  417   8.326   6.702   5.750  0.0647 -0.6451  0.0859
31699SOL    HW2  418   8.300   6.616   5.871  1.3912 -2.0705 -0.6087
31700SOL     OW  419   9.977   3.290   9.083 -0.2835 -0.7828 -0.1003
31700SOL    HW1  420  10.011   3.376   9.109 -0.4311 -0.2844 -1.4566
31700SOL    HW2  421  10.032   3.265   9.008 -1.6516 -0.8362 -1.1237
31701SOL     OW  422   7.698   4.676   4.163 -0.0653 -0.4756 -0.5305
31701SOL    HW1  423   7.752   4.718   4.096  0.6626 -0.8638 -0.2081
31701SOL    HW2  424   7.626   4.637   4.115 -0.3626  0.5219 -0.9122
31702SOL     OW  425   3.002   1.246   2.964 -0.1649  0.2434  0.3427
31702SOL    HW1  426   3.034   1.337   2.968  0.5687 -0.0181  0.6000
31702SOL    HW2  427   2.949   1.236   3.043  3.0523 -0.7415  2.5732
31703SOL     OW  428   1.972   9.793   7.958 -0.1371 -0.1396 -0.0704
31703SOL    HW1  429   1.898   9.825   7.907 -1.0626  1.1783  1.9715
31703SOL    HW2  430   2.010   9.871   7.998  1.4298 -0.9592  0.1429
31704SOL     OW  431   9.785   3.628   5.427 -0.3711 -0.1692 -0.2378
31704SOL    HW1  432   9.702   3.676   5.417 -0.1124  0.2823 -0.2719
31704SOL    HW2  433   9.769   3.567   5.499 -0.9383 -0.5410 -0.6692
31705SOL     OW  434   0.273   1.799   1.576  0.3307  0.5652  0.0063
31705SOL    HW1  435   0.237   1.831   1.658 -0.5385  0.6247 -0.3873
31705SOL    HW2  436   0.295   1.708   1.593 -1.4242  0.0814 -0.1614
31706SOL     OW  437   3.320   5.343   3.423 -0.4976  0.1213 -0.5432
31706SOL    HW1  438   3.271   5.399   3.363  0.3155  1.0598 -0.3432
31706SOL    HW2  439   3.363   5.403   3.483 -2.4391 -0.8024  1.9557
31707SOL     OW  440   2.762   3.121   2.397 -0.1052 -0.3151  0.0983
31707SOL    HW1  441   2.732   3.089   2.312 -2.1422 -1.1747  1.0817
31707SOL    HW2  442   2.709   3.198   2.414 -1.8356 -1.7826  1.8157
31708SOL     OW  443   4.601   2.451   8.356 -0.0804 -0.3383  0.1135
31708SOL    HW1  444   4.621   2.376   8.299 -3.6079 -0.2259 -1.5375
31708SOL    HW2  445   4.542   2.415   8.423  0.9231  0.3327  1.3925
31709SOL     OW  446  10.929  11.801   2.431 -0.5392  0.1170 -0.5174
31709SOL    HW1  447  10.840  11.765   2.428 -0.9350  0.7306  1.7943
31709SOL    HW2  448  10.931  11.868   2.363 -2.1374  0.6632 -0.0628
31710SOL     OW  449   1.725   1.433  10.897  0.2618 -0.2044  0.3740
31710SOL    HW1  450   1.690   1.373  10.832  0.3220  0.6597 -0.4642
31710SOL    HW2  451   1.649   1.460  10.948  0.0567 -0.0773  0.0022
31711SOL     OW  452   2.033   6.021   4.292 -0.4314  0.1421 -0.7221
31711SOL    HW1  453   2.071   5.991   4.209 -2.2683  1.9553 -2.3122
31711SOL    HW2  454   2.004   5.941   4.336  2.4170 -1.0436 -0.7715
31712SOL     OW  455  10.218   3.405  11.743  0.8443 -0.4624 -0.2276
31712SOL    HW1  456  10.156   3.456  11.692 -0.5439  2.0175  3.4644
31712SOL    HW2  457  10.179   3.318  11.748 -0.1897 -0.0888 -1.3469
31713SOL     OW  458   0.307   6.000   9.793 -0.2005 -0.0830 -0.4776
31713SOL    HW1  459   0.393   5.960   9.805 -0.1379  0.4321  0.9186
31713SOL    HW2  460   0.288   6.044   9.876 -3.0253 -2.4621  0.3323
31714SOL     OW  461   0.669  10.605  10.153  0.6313 -0.0652 -0.7953
31714SOL    HW1  462   0.614  10.533  10.122 -0.3851 -0.8078  2.4121
31714SOL    HW2  463   0.608  10.677  10.168  0.6748 -0.4193  1.3766
31715SOL     OW  464   6.414   6.642   4.869  0.7684 -0.0416 -0.2489
31715SOL    HW1  465   6.452   6.702   4.933 -3.1743  0.5474  1.8095
31715SOL    HW2  466   6.437   6.555   4.902  0.5969  0.2881  0.7719
31716SOL     OW  467   1.161   7.629   9.554 -0.0028  0.2619 -0.6296
31716SOL    HW1  468   1.090   7.690   9.574 -0.4502 -0.1517 -0.9044
31716SOL    HW2  469   1.150   7.558   9.617  0.7924  0.6686 -0.0139
31717SOL     OW  470  11.602   9.444   9.760 -0.7167 -0.6833 -0.1409
31717SOL    HW1  471  11.539   9.507   9.724 -1.2035 -0.7470  0.5851
31717SOL    HW2  472  11.671   9.440   9.694 -1.0098  0.0970 -0.5137
31718SOL     OW  473   3.968   8.909   5.438  0.2550  0.6710 -0.3305
31718SOL    HW1  474   4.025   8.902   5.515 -0.7367  1.2773  0.4910
31718SOL    HW2  475   3.881   8.926   5.475 -0.4599 -0.2063 -1.5491
31719SOL     OW  476   7.933   3.762  10.551 -0.4946 -0.4705  0.0941
31719SOL    HW1  477   8.004   3.803  10.501 -1.3778  0.3645 -0.5149
31719SOL    HW2  478   7.974   3.734  10.633  0.7872 -1.0845 -0.7348
31720SOL     OW  479   1.174   6.874   4.704  0.7274 -0.2861  0.0099
31720SOL    HW1  480   1.151   6.818   4.779 -1.0659  0.0614 -0.2573
31720SOL    HW2  481   1.119   6.843   4.633 -1.8069  3.0023  0.3349
31721SOL     OW  482  11.545   4.829   4.681 -0.0701 -0.6074 -0.0710
31721SOL    HW1  483  11.537   4.913   4.635  1.0377 -0.2539  0.3604
31721SOL    HW2  484  11.460   4.817   4.723 -0.4129  0.0496 -0.5577
31722SOL     OW  485   5.308   1.584   7.897  0.0180 -0.2401  0.0909
31722SOL    HW1  486   5.402   1.577   7.880  0.3164 -1.1436  1.8147
31722SOL    HW2  487   5.298   1.550   7.986 -1.9339 -0.0374 -0.0134
31723SOL     OW  488   1.059   0.373   0.809 -0.7399  0.0074  0.0033
31723SOL    HW1  489   1.016   0.418   0.882 -1.4204  0.1149 -0.4476
31723SOL    HW2  490   1.146   0.413   0.804 -1.0761  0.7677  0.0685
31724SOL     OW  491   7.791   9.831   4.854  0.0487 -0.0562 -0.5357
31724SOL    HW1  492   7.719   9.768   4.852  0.7252 -1.0037  1.4212
31724SOL    HW2  493   7.751   9.915   4.831 -1.9845 -0.3510  1.5064
31725SOL     OW  494   5.208   1.764   3.460  0.0119  0.4113 -0.1903
31725SOL    HW1  495   5.177   1.712   3.386  0.3536 -1.1420  0.7061
31725SOL    HW2  496   5.136   1.762   3.523 -0.1867  1.5254 -0.3705
31726SOL     OW  497   8.355   9.371   1.840  0.2023 -0.1018  0.4093
31726SOL    HW1  498   8.407   9.303   1.797 -0.2357  0.3248 -0.8343
31726SOL    HW2  499   8.360   9.446   1.781 -0.9687  0.2861  0.7813
31727SOL     OW  500   4.635   9.953  10.778  0.1949 -0.5067  0.4602
31727SOL    HW1  501   4.564   9.928  10.719 -0.0919  0.8368  0.1971
31727SOL    HW2  502   4.591   9.973  10.861  0.6063 -2.4962  1.2123
31728SOL     OW  503   8.200   3.516  10.056  0.0879  0.0655  0.3135
31728SOL    HW1  504   8.109   3.543  10.045  0.5167  1.0883 -1.0581
31728SOL    HW2  505   8.248   3.569   9.992  2.0809  1.7886  3.0181
31729SOL     OW  506   1.477   8.109   4.981 -0.5433  0.1979  0.1527
31729SOL    HW1  507   1.436   8.074   5.060 -1.4304 -0.3638 -0.5249
31729SOL    HW2  508   1.428   8.067   4.909  1.8219 -1.2445 -0.7291
31730SOL     OW  509   4.526   0.445   0.256 -1.1621  0.2424  0.2336
31730SOL    HW1  510   4.532   0.473   0.165 -1.2100  0.3715  0.2699
31730SOL    HW2  511   4.464   0.372   0.255 -0.3667 -0.4437  0.0055
31731SOL     OW  512   9.705   8.438   5.172  0.0821  0.1759 -0.0412
31731SOL    HW1  513   9.668   8.519   5.138 -0.1476 -0.2837 -0.9313
31731SOL    HW2  514   9.719   8.384   5.094 -0.0904 -0.7651  0.5652
31732SOL     OW  515   0.485   1.480   8.345 -0.1468 -0.3722  0.1184
31732SOL    HW1  516   0.485   1.569   8.309  1.6477 -0.9354 -1.4301
31732SOL    HW2  517   0.393   1.454   8.346 -0.4180 -0.2940 -4.2021
31733SOL     OW  518   6.768   1.176   1.006 -0.1280 -0.3932  0.2369
31733SOL    HW1  519   6.709   1.103   1.026 -0.8046  0.6764  2.5911
31733SOL    HW2  520   6.844   1.161   1.064 -0.0771  0.5099  0.4105
31734SOL     OW  521   4.270  10.628   2.917 -0.2887 -0.6419  0.1007
31734SOL    HW1  522   4.317  10.638   3.000 -1.3107  1.5316  0.4793
31734SOL    HW2  523   4.221  10.709   2.907 -1.2499 -1.4081 -1.9955
31735SOL     OW  524   1.970   6.889   3.934 -0.4587 -0.3865 -0.5581
31735SOL    HW1  525   1.893   6.922   3.889  0.2986  1.4663 -0.5710
31735SOL    HW2  526   2.040   6.950   3.910  1.1564 -2.2755 -0.9409
31736SOL     OW  527   5.204   6.300   2.610 -0.3942  0.1002  0.1344
31736SOL    HW1  528   5.235   6.329   2.524  0.2742 -0.7649  0.0768
31736SOL    HW2  529   5.282   6.265   2.653 -1.0936 -1.1980  0.3716
31737SOL     OW  530   5.209   4.816   0.240  0.0676 -0.3430 -0.0733
31737SOL    HW1  531   5.187   4.775   0.156 -0.3606 -0.3627  0.0488
31737SOL    HW2  532   5.274   4.757   0.279 -3.1204 -2.9614  1.7651
31738SOL     OW  533   2.245  11.722   5.110  0.6352 -0.1924 -1.1617
31738SOL    HW1  534   2.220  11.630   5.113  1.2217 -0.3314  0.7548
31738SOL    HW2  535   2.163  11.769   5.095 -0.3821 -0.8325  1.8401
31739SOL     OW  536  11.363   2.715   8.778  0.1413 -0.2267 -0.2545
31739SOL    HW1  537  11.379   2.624   8.803 -0.3666 -0.3250 -0.2856
31739SOL    HW2  538  11.274   2.734   8.808 -1.1503 -0.8589 -3.3137
31740SOL     OW  539   2.297  10.296   1.097 -0.4901  0.0499  0.0366
31740SOL    HW1  540   2.302  10.207   1.062 -0.2999 -0.0268  0.2510
31740SOL    HW2  541   2.218  10.297   1.150  0.9605 -0.8644  2.3691
31741SOL     OW  542   8.723   0.621   1.988 -0.1574 -0.1187  0.1010
31741SOL    HW1  543   8.700   0.714   1.975  0.3604  0.5605  3.2321
31741SOL    HW2  544   8.812   0.613   1.955 -0.3550  0.4022 -0.5683
31742SOL     OW  545   0.767   9.329  10.583 -0.4230  0.1974 -0.3819
31742SOL    HW1  546   0.829   9.269  10.542  0.1584  1.4438 -1.4064
31742SOL    HW2  547   0.699   9.272  10.620  2.5143 -1.4749  3.0946
31743SOL     OW  548   7.862   1.054   3.834  0.3154 -0.4295 -0.1705
31743SOL    HW1  549   7.856   1.043   3.929  0.3418 -2.2380 -0.3556
31743SOL    HW2  550   7.775   1.084   3.808 -0.2486 -1.6512  0.2361
31744SOL     OW  551   5.374   4.410   7.940  0.1400  0.1986  0.6587
31744SOL    HW1  552   5.351   4.391   8.031 -0.3264  1.3346  0.7942
31744SOL    HW2  553   5.337   4.337   7.890 -2.3414  1.1010  1.0621
31745SOL     OW  554   4.869   2.519   3.100 -0.1855  0.1952  0.3097
31745SOL    HW1  555   4.841   2.603   3.135  1.2778  0.2769  1.3923
31745SOL    HW2  556   4.868   2.459   3.175 -0.9306 -0.6943 -0.3824
31746SOL     OW  557   7.070   3.061   0.954 -0.0444  0.0449 -0.0348
31746SOL    HW1  558   7.150   3.007   0.946  0.9843  1.4667  0.2854
31746SOL    HW2  559   6.998   2.998   0.949  1.0913 -1.2607 -0.5402
31747SOL     OW  560   9.639   2.351   6.492 -0.5187  0.3899 -0.2982
31747SOL    HW1  561   9.717   2.305   6.461 -1.5882 -0.5125 -1.7947
31747SOL    HW2  562   9.672   2.433   6.527  1.1187 -0.0203 -0.7934
31748SOL     OW  563   5.948   1.348   5.525  0.4572 -0.0673 -0.1433
31748SOL    HW1  564   5.975   1.429   5.568  0.8277 -0.4734  0.3963
31748SOL    HW2  565   5.974   1.360   5.434  0.1498  0.5815 -0.1515
31749SOL     OW  566   1.304   3.460   1.229 -0.0271 -0.2980 -0.2645
31749SOL    HW1  567   1.367   3.454   1.301 -1.0598  0.4466  0.7422
31749SOL    HW2  568   1.234   3.516   1.263 -0.8125 -0.3819 -1.6633
31750SOL     OW  569   2.621  11.776   2.913  0.2348 -0.4097 -0.2048
31750SOL    HW1  570   2.556  11.716   2.950  1.7798 -1.1113  1.5417
31750SOL    HW2  571   2.584  11.863   2.928 -1.0557 -0.8314 -0.7947
31751SOL     OW  572   1.345  10.581   0.273 -0.6476  0.1930 -0.4533
31751SOL    HW1  573   1.335  10.500   0.222 -2.2006  0.3319 -0.4353
31751SOL    HW2  574   1.260  10.591   0.318  0.7609 -0.1329  2.5200
31752SOL     OW  575   6.123   3.817   4.873  0.2569 -0.1589  0.3557
31752SOL    HW1  576   6.146   3.886   4.811  1.4156 -0.8801 -0.0616
31752SOL    HW2  577   6.031   3.832   4.894 -0.2320 -0.0364 -1.7135
31753SOL     OW  578   0.978   2.306   7.265 -0.1141  1.0301 -0.1936
31753SOL    HW1  579   0.980   2.244   7.339 -0.9730  0.4131 -0.6620
31753SOL    HW2  580   1.016   2.387   7.300  0.3851  0.4547  0.6376
31754SOL     OW  581   2.713   8.284  10.532 -1.0545  0.5706  0.0695
31754SOL    HW1  582   2.751   8.370  10.517  0.2256 -0.0635 -0.4950
31754SOL    HW2  583   2.645   8.299  10.598 -0.0484  1.8224  0.8850
31755SOL     OW  584   5.791   4.045   3.654 -0.2635  0.2298 -0.1606
31755SOL    HW1  585   5.742   4.050   3.571 -0.3199  0.6534 -0.1030
31755SOL    HW2  586   5.874   4.003   3.630  1.2789  3.5013 -1.1947
31756SOL     OW  587   1.444   9.998   6.245 -0.3995 -0.5858 -0.1506
31756SOL    HW1  588   1.405  10.081   6.273 -0.7390 -1.0011  0.6320
31756SOL    HW2  589   1.470   9.955   6.327  0.3278 -0.9847 -0.5825
31757SOL     OW  590  10.174  11.120   6.386  0.4302  0.2573 -0.3734
31757SOL    HW1  591  10.088  11.088   6.412  1.1611 -0.8621  0.8268
31757SOL    HW2  592  10.177  11.210   6.417 -0.2124  0.2234 -0.1916
31758SOL     OW  593   1.316   5.314   3.877 -0.2356  0.2590  0.0731
31758SOL    HW1  594   1.280   5.400   3.898 -0.3006  0.2652 -0.0633
31758SOL    HW2  595   1.289   5.258   3.949 -1.9094 -0.1303 -0.7920
31759SOL     OW  596   0.519   4.222   6.275 -0.5638 -0.5969 -0.3372
31759SOL    HW1  597   0.571   4.142   6.266 -0.3142 -0.3419 -1.3292
31759SOL    HW2  598   0.433   4.192   6.305 -0.2451 -1.1520  0.0454
31760SOL     OW  599  11.561   1.067   9.001 -0.4151 -0.1004  0.0603
31760SOL    HW1  600  11.588   1.008   8.931  0.6490  2.4495 -1.8431
31760SOL    HW2  601  11.470   1.090   8.980 -0.4133 -0.0772  0.0783
31761SOL     OW  602   3.054   9.759   3.599  0.5027  0.2828 -0.1604
31761SOL    HW1  603   3.031   9.844   3.637  2.6814 -0.2167  2.6015
31761SOL    HW2  604   2.971   9.723   3.569 -0.9943  1.9755  1.6552
31762SOL     OW  605   0.576   5.880   4.448  0.6753  0.1401 -0.4547
31762SOL    HW1  606   0.614   5.904   4.364  0.0277  0.2410 -0.7266
31762SOL    HW2  607   0.481   5.886   4.434  0.5600  1.9461  0.7954
31763SOL     OW  608  11.597   8.660   5.746  0.5050  0.1319  0.7434
31763SOL    HW1  609  11.577   8.701   5.830  2.6398  0.4225  1.1599
31763SOL    HW2  610  11.664   8.717   5.707 -1.1127  0.5478 -1.6300
31764SOL     OW  611   3.872  10.415   3.046 -0.0802 -0.4178 -0.1007
31764SOL    HW1  612   3.846  10.326   3.026 -0.1387 -0.5630  0.6122
31764SOL    HW2  613   3.957  10.406   3.090 -0.2603 -0.1478  0.3037
31765SOL     OW  614   9.550   5.412   9.822  0.1012  0.0479  0.0307
31765SOL    HW1  615   9.563   5.496   9.778 -0.2496 -0.2192 -0.5995
31765SOL    HW2  616   9.465   5.381   9.790 -1.1480  0.7681  2.4354
31766SOL     OW  617   5.239   6.336   6.916 -0.4290  0.4457 -0.0736
31766SOL    HW1  618   5.222   6.429   6.929  1.1492  0.4627  2.5611
31766SOL    HW2  619   5.333   6.332   6.898 -0.4936 -0.6352 -0.2246
31767SOL     OW  620   3.406   7.649   6.738 -0.3410 -0.5125 -0.3109
31767SOL    HW1  621   3.313   7.655   6.759 -0.2165  0.8271  0.0112
31767SOL    HW2  622   3.411   7.589   6.664 -1.3183 -1.5750  0.4522
31768SOL     OW  623  11.104   8.717   7.748  0.0088 -0.3978  0.2909
31768SOL    HW1  624  11.060   8.651   7.802 -0.2682 -0.6647 -0.2600
31768SOL    HW2  625  11.170   8.668   7.699  0.7483 -0.0464  0.8960
31769SOL     OW  626   1.230   2.865   2.088 -0.3361 -0.5082  0.5887
31769SOL    HW1  627   1.205   2.930   2.022 -0.9031  0.4415  1.6982
31769SOL    HW2  628   1.279   2.799   2.040 -0.3684  0.3800 -0.7028
31770SOL     OW  629   2.124   7.108   9.027  0.6246  0.2161 -0.7453
31770SOL    HW1  630   2.045   7.137   8.979  0.6223  1.4969 -0.0171
31770SOL    HW2  631   2.150   7.028   8.983  0.0947  0.8668 -2.3318
31771SOL     OW  632   4.868   0.487   3.878  0.1728 -0.1924  0.1247
31771SOL    HW1  633   4.941   0.467   3.819  0.2872  1.9160 -0.5289
31771SOL    HW2  634   4.906   0.480   3.965  1.0800  0.4655 -0.1981
31772SOL     OW  635   4.090   3.565   3.232 -0.5427  0.5495  0.1173
31772SOL    HW1  636   4.063   3.613   3.154  0.6204  0.7054 -0.2118
31772SOL    HW2  637   4.128   3.632   3.290  1.0116  0.0804 -0.3079
31773SOL     OW  638   0.885  11.555   4.502 -0.7825  1.0950 -0.6839
31773SOL    HW1  639   0.890  11.517   4.590  0.9716 -1.3045 -1.6715
31773SOL    HW2  640   0.977  11.562   4.475 -1.2843 -0.6647 -3.1974
31774SOL     OW  641   0.732   5.122   7.052 -0.4099  0.2361  0.2424
31774SOL    HW1  642   0.803   5.112   7.115 -1.6620  0.0755  1.6949
31774SOL    HW2  643   0.756   5.065   6.979 -0.1471 -1.6716  1.7377
31775SOL     OW  644   5.684   7.002  10.936 -0.6720  0.4207  0.8150
31775SOL    HW1  645   5.611   6.979  10.879 -1.1284  2.0416  0.7109
31775SOL    HW2  646   5.762   6.974  10.888 -1.0703  1.4636 -0.4913
31776SOL     OW  647   5.870  10.184   6.403 -0.2989  0.3621  0.4040
31776SOL    HW1  648   5.932  10.219   6.339  0.5129 -1.6969 -0.0157
31776SOL    HW2  649   5.857  10.256   6.465  1.2238  1.4093 -0.4161
31777SOL     OW  650   9.079   1.131   7.214  0.3193  0.5558 -0.0021
31777SOL    HW1  651   9.052   1.102   7.302  0.4113  1.3055  0.2814
31777SOL    HW2  652   8.997   1.155   7.171  0.4321  1.9503  0.5345
31778SOL     OW  653   7.615   2.060   6.797 -0.1971 -0.5231  0.0294
31778SOL    HW1  654   7.536   2.100   6.761 -0.3160 -0.0999  0.7357
31778SOL    HW2  655   7.584   2.009   6.872  0.2483  0.0914  0.6515
31779SOL     OW  656  11.297   1.186   6.338 -0.4706  0.8208  0.1339
31779SOL    HW1  657  11.252   1.124   6.396 -0.9681  0.1218 -0.9797
31779SOL    HW2  658  11.268   1.272   6.369 -0.7932  0.4624  0.8679
31780SOL     OW  659   7.836  10.354  10.931  0.6365 -0.3570 -0.2468
31780SOL    HW1  660   7.811  10.262  10.923 -0.7701  0.0567 -0.9624
31780SOL    HW2  661   7.848  10.384  10.841  0.1849  0.3835 -0.0760
31781SOL     OW  662   5.025  10.510   9.044 -0.5515  0.2634 -0.8343
31781SOL    HW1  663   5.058  10.495   8.955 -0.1243 -0.8640 -0.5000
31781SOL    HW2  664   5.081  10.579   9.079  0.5610 -0.6590 -0.7659
31782SOL     OW  665   3.220  10.373   8.199  0.2736  1.2684 -0.7399
31782SOL    HW1  666   3.221  10.467   8.219 -1.7591  1.1227  0.3551
31782SOL    HW2  667   3.155  10.364   8.129 -1.0004  0.5106  0.4837
31783SOL     OW  668   2.678   6.236   1.075  0.1358 -0.0574  0.0015
31783SOL    HW1  669   2.752   6.250   1.134  0.1342  0.5072 -0.1233
31783SOL    HW2  670   2.600   6.250   1.129  0.1317  0.1125 -0.0462
31784SOL     OW  671  10.247   5.961   6.653  0.1227  0.1489 -0.2090
31784SOL    HW1  672  10.336   5.944   6.683  0.2299 -2.1923 -1.6627
31784SOL    HW2  673  10.204   6.002   6.728  2.7092  2.6226  0.1080
31785SOL     OW  674   2.913   8.848   6.970 -0.1646 -0.1006  0.0804
31785SOL    HW1  675   2.948   8.794   7.040 -0.0353 -0.1489 -0.0195
31785SOL    HW2  676   2.951   8.811   6.890  1.0770  1.0194  0.1262
31786SOL     OW  677  10.218   5.657   8.860 -0.1601 -0.0964 -0.1181
31786SOL    HW1  678  10.199   5.660   8.766 -1.6310 -0.8927  0.1225
31786SOL    HW2  679  10.295   5.602   8.868  0.4706  0.6357 -0.9053
31787SOL     OW  680   6.678   2.444  10.108 -0.0445 -0.1557 -0.0471
31787SOL    HW1  681   6.607   2.391  10.072 -0.1171 -0.9523  1.2245
31787SOL    HW2  682   6.755   2.421  10.055 -0.7447  0.9071 -1.6040
31788SOL     OW  683   4.807  10.368   5.248  0.3049 -0.4967  0.4911
31788SOL    HW1  684   4.829  10.294   5.191  0.2395  0.7041 -1.1490
31788SOL    HW2  685   4.834  10.445   5.198  0.4607  0.5992  2.2109
31789SOL     OW  686   0.190   5.731   8.210 -0.5450 -0.1727  0.1405
31789SOL    HW1  687   0.140   5.787   8.150 -0.9323  0.4281  1.0009
31789SOL    HW2  688   0.278   5.768   8.210 -0.8403  0.5694  0.8344
31790SOL     OW  689  10.347   3.355  10.944  0.1213 -0.3025  0.4393
31790SOL    HW1  690  10.268   3.301  10.950 -0.6458  0.8752  1.7699
31790SOL    HW2  691  10.321   3.428  10.888 -0.0710  0.5684  1.6166
31791SOL     OW  692   4.571   4.500   5.723  0.6597 -0.5082 -0.1127
31791SOL    HW1  693   4.608   4.411   5.721  0.3465 -0.6660  0.7954
31791SOL    HW2  694   4.534   4.509   5.810  1.3682  0.8000  0.0824
31792SOL     OW  695   4.711   8.998   3.763 -0.0131 -0.0107  0.4588
31792SOL    HW1  696   4.673   8.913   3.744  1.4297 -0.5280 -0.3316
31792SOL    HW2  697   4.759   8.986   3.845  0.2686  0.0138  0.2986
31793SOL     OW  698   9.937   2.047   2.800 -0.0336 -0.1109  0.4282
31793SOL    HW1  699   9.870   2.044   2.868  0.5361 -1.4672  0.9604
31793SOL    HW2  700   9.888   2.060   2.719 -0.7936  0.6373  0.9907
31794SOL     OW  701  10.252   6.958   8.474 -0.0291  0.0689 -0.6971
31794SOL    HW1  702  10.232   6.887   8.534 -2.5561  1.2099 -0.0670
31794SOL    HW2  703  10.334   6.994   8.506  0.5026 -1.5586 -0.1173
31795SOL     OW  704   7.493  11.732   9.057  0.4513  0.0681  0.2671
31795SOL    HW1  705   7.564  11.793   9.077  0.9564  0.1957 -1.7418
31795SOL    HW2  706   7.417  11.788   9.044  0.6568  0.1892 -0.4485
31796SOL     OW  707   2.158   3.115   1.705 -0.2951  0.0995 -0.3144
31796SOL    HW1  708   2.205   3.085   1.782  2.1139  0.2927 -1.6082
31796SOL    HW2  709   2.093   3.046   1.688  1.1295 -1.4370  0.1956
31797SOL     OW  710   9.184   3.990   2.929 -0.4297 -0.5420 -0.2800
31797SOL    HW1  711   9.129   4.054   2.885  1.2098  0.3581 -1.1016
31797SOL    HW2  712   9.236   3.950   2.859 -0.6744 -2.0445  0.3510
31798SOL     OW  713   6.469   7.447  11.149 -0.1957 -0.0843  0.2079
31798SOL    HW1  714   6.439   7.537  11.139 -1.0925 -0.3152  0.7409
31798SOL    HW2  715   6.485   7.417  11.059  1.5374  1.0511  0.0860
31799SOL     OW  716   8.039   3.485   3.292 -0.3319 -0.2919  0.0747
31799SOL    HW1  717   7.947   3.512   3.285  0.4384  2.4691 -0.6671
31799SOL    HW2  718   8.058   3.491   3.386 -0.4220  1.1048  0.0272
31800SOL     OW  719   6.323   5.257   8.569 -0.2475  0.2338 -0.0056
31800SOL    HW1  720   6.417   5.270   8.574 -0.4284  1.7124  0.2616
31800SOL    HW2  721   6.298   5.292   8.484 -0.4163 -1.3497 -0.6383
31801SOL     OW  722  11.293   4.839   9.517 -0.4265  0.1538  0.1487
31801SOL    HW1  723  11.227   4.793   9.569  0.1550 -0.7328  0.1395
31801SOL    HW2  724  11.301   4.787   9.437  0.3655  0.1677  0.2075
31802SOL     OW  725   0.376   3.282   1.704  0.1549  0.1574 -0.3071
31802SOL    HW1  726   0.435   3.346   1.744  0.5401  0.3691 -1.1769
31802SOL    HW2  727   0.296   3.286   1.756  0.2639  1.1751 -0.2009
31803SOL     OW  728   8.562   3.867   2.105 -0.4722 -0.3679 -0.0101
31803SOL    HW1  729   8.635   3.917   2.140 -1.3996  0.1855  1.2159
31803SOL    HW2  730   8.562   3.885   2.011  1.1627 -0.6758 -0.0973
31804SOL     OW  731   3.247   5.865   8.103  0.3544  0.6855  0.3859
31804SOL    HW1  732   3.312   5.843   8.036  0.9976  0.8300  0.9466
31804SOL    HW2  733   3.215   5.951   8.078 -0.5725  0.0765 -0.6021
31805SOL     OW  734   9.898   6.754   3.154 -0.1251 -0.6346  0.0313
31805SOL    HW1  735   9.917   6.710   3.071  0.3592 -0.5165  0.0768
31805SOL    HW2  736   9.892   6.684   3.218  0.3140 -0.6615  0.0442
31806SOL     OW  737   2.569   2.496   2.691 -0.1136 -0.5905  0.0047
31806SOL    HW1  738   2.556   2.458   2.605 -1.3942  0.8519 -0.4804
31806SOL    HW2  739   2.636   2.563   2.677 -0.8799  0.1793 -0.0632
31807SOL     OW  740   3.688   1.931   5.422  0.1576 -0.1529 -0.2096
31807SOL    HW1  741   3.651   1.864   5.365  0.5212  0.4074 -1.1152
31807SOL    HW2  742   3.703   1.886   5.505 -1.0491 -0.7920 -0.3251
31808SOL     OW  743   8.428   3.266   4.455 -0.5703  0.4927  0.2714
31808SOL    HW1  744   8.370   3.268   4.531 -0.8033 -0.7802  0.1469
31808SOL    HW2  745   8.499   3.208   4.480 -0.4076  0.4281 -0.3140
31809SOL     OW  746   9.445  11.211   8.855 -0.6523 -0.1952  0.6882
31809SOL    HW1  747   9.481  11.262   8.782 -0.0620  0.3305  1.3315
31809SOL    HW2  748   9.503  11.136   8.863 -0.6965 -0.2348  0.6329
31810SOL     OW  749   6.226   5.557   9.620  0.0209  0.3876  0.0707
31810SOL    HW1  750   6.320   5.543   9.633 -0.0208  1.3851  1.9869
31810SOL    HW2  751   6.214   5.560   9.525  2.2255  1.8977 -0.2412
31811SOL     OW  752   6.462   1.999   3.592  0.3980 -0.5830  0.1070
31811SOL    HW1  753   6.368   1.998   3.573  0.4159  0.8584 -0.1582
31811SOL    HW2  754   6.504   2.013   3.508  0.6854  1.5530  0.5510
31812SOL     OW  755  10.309   1.787   4.519  0.3631  0.5395 -0.2238
31812SOL    HW1  756  10.213   1.781   4.524  0.3661  1.4011  2.2866
31812SOL    HW2  757  10.326   1.849   4.448 -1.0027  1.2544  0.0418
31813SOL     OW  758   2.793   0.394   3.136 -0.2104  0.1991 -0.2414
31813SOL    HW1  759   2.791   0.308   3.178 -1.1744 -0.9607 -2.4988
31813SOL    HW2  760   2.705   0.405   3.101  0.8276  0.5318 -2.9320
31814SOL     OW  761   6.239   1.507   3.193 -0.1547 -0.5099  0.5699
31814SOL    HW1  762   6.284   1.425   3.175 -0.4387 -0.4907 -0.2644
31814SOL    HW2  763   6.175   1.516   3.122 -0.2478  0.3431  0.7503
31815SOL     OW  764  10.338   1.312   2.008 -0.4513 -0.0587  0.3355
31815SOL    HW1  765  10.294   1.396   2.021 -0.4382 -0.2502  1.7685
31815SOL    HW2  766  10.369   1.288   2.095 -1.3386 -2.0349  0.1496
31816SOL     OW  767   9.835  10.990  10.207  0.0540 -0.0480  0.0764
31816SOL    HW1  768   9.855  10.897  10.193  1.0764 -0.0864  1.5421
31816SOL    HW2  769   9.835  11.028  10.119  1.1332 -1.1581 -0.4387
31817SOL     OW  770   2.971   5.791  10.117 -0.4362  0.3591  0.3845
31817SOL    HW1  771   2.904   5.770  10.182 -1.5445  1.2222 -0.4444
31817SOL    HW2  772   2.953   5.882  10.093  0.6742  0.4163 -0.2966
31818SOL     OW  773   6.405  11.747   8.436 -0.8322 -0.1550  0.4807
31818SOL    HW1  774   6.341  11.675   8.438 -0.5958 -0.4951 -1.7833
31818SOL    HW2  775   6.432  11.757   8.527 -0.3301 -3.4398  0.8318
31819SOL     OW  776  11.815  10.233   3.248  0.4403  0.5942 -0.1836
31819SOL    HW1  777  11.902  10.196   3.234  0.6612  1.7139 -2.2018
31819SOL    HW2  778  11.756  10.169   3.208  0.5273  0.7795 -0.6164
31820SOL     OW  779   3.761   8.756   2.552 -0.1764  0.0678  0.3687
31820SOL    HW1  780   3.720   8.836   2.584 -0.6181 -1.0572  2.8775
31820SOL    HW2  781   3.688   8.694   2.544  0.4077 -0.6209  0.3059
31821SOL     OW  782   3.059   5.741   3.884  0.5050  0.3235  0.3242
31821SOL    HW1  783   3.060   5.663   3.829 -0.2606  1.3362 -1.2204
31821SOL    HW2  784   2.984   5.791   3.853  1.8078  2.3485  0.2562
31822SOL     OW  785   1.794  10.282   7.251  0.1800  0.0521 -0.0115
31822SOL    HW1  786   1.754  10.354   7.300 -0.4854 -0.0833 -0.3423
31822SOL    HW2  787   1.865  10.323   7.201 -0.3215  0.5108 -0.3537
31823SOL     OW  788  10.747   5.726   1.984  0.3259  0.5439 -0.0182
31823SOL    HW1  789  10.834   5.687   1.993 -0.4509 -1.2806 -0.0089
31823SOL    HW2  790  10.728   5.763   2.070 -0.0532 -1.5834  0.8576
31824SOL     OW  791   8.218   3.965   1.162  0.4409  0.0155 -0.0849
31824SOL    HW1  792   8.253   4.048   1.129  1.1259 -0.6132 -0.9904
31824SOL    HW2  793   8.264   3.950   1.244  1.5638 -0.2793 -0.7446
31825SOL     OW  794   3.378   7.543   3.782  0.1617  0.0426 -0.0117
31825SOL    HW1  795   3.461   7.554   3.734  0.0106 -0.3332 -0.3709
31825SOL    HW2  796   3.347   7.632   3.798  1.5945  0.2611  1.8418
31826SOL     OW  797   7.743   5.684   8.859 -0.4127  0.5749  0.1008
31826SOL    HW1  798   7.701   5.600   8.842  1.2292 -0.3858  0.5966
31826SOL    HW2  799   7.718   5.705   8.950 -1.3479  0.9778 -0.2307
31827SOL     OW  800   5.889   2.082   5.812 -0.2356  0.1697  1.2205
31827SOL    HW1  801   5.905   2.014   5.746 -1.6218  0.2655  0.7479
31827SOL    HW2  802   5.895   2.164   5.763 -0.8980  0.2616  1.2885
31828SOL     OW  803   1.835  10.742   6.026 -0.1567  0.5258 -0.0276
31828SOL    HW1  804   1.928  10.763   6.034  0.1519 -1.0182  0.8457
31828SOL    HW2  805   1.827  10.696   5.943 -0.3324  1.5008 -0.5665
31829SOL     OW  806  10.625   3.997   6.167 -0.3013 -0.1388 -0.1773
31829SOL    HW1  807  10.630   4.081   6.211  1.0909  0.3692 -1.2265
31829SOL    HW2  808  10.532   3.985   6.148 -0.5658  0.9403  0.3775
31830SOL     OW  809   1.750   7.946   4.848 -0.1099 -0.0179  0.3103
31830SOL    HW1  810   1.751   7.921   4.940 -0.3348 -1.6249 -0.0899
31830SOL    HW2  811   1.780   8.036   4.847 -1.5079  0.5363  2.1041
31831SOL     OW  812   6.227   7.066   1.411 -0.0875 -0.1691  0.2399
31831SOL    HW1  813   6.320   7.082   1.392 -0.4796  0.2020 -1.5296
31831SOL    HW2  814   6.212   7.112   1.493  1.2610 -0.1007  0.4765
31832SOL     OW  815   2.681   0.207   5.678  0.3612 -0.5644 -0.0480
31832SOL    HW1  816   2.606   0.258   5.707  2.2792  3.1909 -1.0261
31832SOL    HW2  817   2.647   0.150   5.609 -1.9708 -0.9156  1.2979
31833SOL     OW  818   1.573   2.290   5.685 -0.0162  0.0653  0.0281
31833SOL    HW1  819   1.576   2.273   5.591  0.4700 -1.8622  0.3449
31833SOL    HW2  820   1.490   2.335   5.699 -0.4198 -0.2591 -1.2234
31834SOL     OW  821   0.317   6.478  11.031  0.4127  0.0521  0.1010
31834SOL    HW1  822   0.329   6.460  10.938  0.3166  0.6679 -0.0344
31834SOL    HW2  823   0.320   6.573  11.038 -2.3854  0.2064  0.3151
31835SOL     OW  824   6.006   9.230   1.947  0.1652 -0.5333 -0.7127
31835SOL    HW1  825   5.961   9.311   1.921 -0.9936 -1.1509 -0.7049
31835SOL    HW2  826   6.092   9.236   1.905  0.1948  0.8015 -0.5277
31836SOL     OW  827   7.948   7.164   6.168 -0.4884  1.0424 -0.4542
31836SOL    HW1  828   7.941   7.139   6.260  1.9490  0.4401 -0.3590
31836SOL    HW2  829   7.875   7.120   6.125 -0.3611 -0.5384  0.8501
31837SOL     OW  830   6.151   2.524  11.329 -0.0825  0.0883 -0.2420
31837SOL    HW1  831   6.180   2.536  11.420 -0.4385  2.5588 -0.3994
31837SOL    HW2  832   6.071   2.575  11.322  0.8156  1.3372 -2.3654
31838SOL     OW  833   8.312   2.912   2.289 -0.2432 -0.0373  0.7599
31838SOL    HW1  834   8.244   2.881   2.229  1.1877  0.2161 -1.1200
31838SOL    HW2  835   8.337   2.998   2.254  1.6678 -0.5333  0.7728
31839SOL     OW  836   9.634   5.326  11.135 -0.4174 -0.0664 -0.7116
31839SOL    HW1  837   9.579   5.317  11.057 -0.8961 -0.0918 -0.3798
31839SOL    HW2  838   9.722   5.307  11.105 -0.1149  2.7464 -1.8847
31840SOL     OW  839   3.102   8.158   1.587 -0.0663 -0.0915 -0.4861
31840SOL    HW1  840   3.007   8.168   1.598  0.2902  1.6565  1.7521
31840SOL    HW2  841   3.127   8.229   1.528 -0.1113 -0.3375 -0.8009
31841SOL     OW  842   8.923   4.577   1.729  0.1939 -0.1806  0.6554
31841SOL    HW1  843   8.906   4.550   1.639 -0.6436 -1.5570  1.2033
31841SOL    HW2  844   9.000   4.526   1.755  0.8438  0.7011  0.5354
31842SOL     OW  845   2.503   3.422   6.341 -0.0476 -0.4311 -0.0434
31842SOL    HW1  846   2.495   3.353   6.406 -2.3451  0.2261  0.4843
31842SOL    HW2  847   2.430   3.407   6.280 -0.4018  1.2847 -0.1132
31843SOL     OW  848   0.875   0.767   6.310 -0.0437 -0.4398  0.8074
31843SOL    HW1  849   0.902   0.859   6.307  1.2600 -0.8280 -0.8960
31843SOL    HW2  850   0.917   0.733   6.390 -0.6039  0.4363  1.4997
31844SOL     OW  851   8.604   9.608   6.010 -0.0513 -0.3159  0.1000
31844SOL    HW1  852   8.546   9.604   6.086  0.9427  0.9812  0.9682
31844SOL    HW2  853   8.654   9.526   6.014 -0.8001 -0.7808  0.1730
31845SOL     OW  854   6.571   8.937  11.145  0.2827 -0.7093  0.2910
31845SOL    HW1  855   6.605   8.951  11.056  1.0747 -1.8692  0.3799
31845SOL    HW2  856   6.643   8.893  11.190  0.7262  1.7447  2.1620
31846SOL     OW  857   2.890  10.365   6.902  0.3299 -0.2065 -0.3136
31846SOL    HW1  858   2.904  10.289   6.959  1.0082  0.3236  0.2339
31846SOL    HW2  859   2.822  10.336   6.841 -0.5769 -0.7131  0.8956
31847SOL     OW  860   4.624  11.799   9.329  0.2675 -0.1739 -0.3666
31847SOL    HW1  861   4.700  11.799   9.270  0.4828  1.7800 -0.1565
31847SOL    HW2  862   4.645  11.864   9.395  0.4947 -3.0100  2.5901
31848SOL     OW  863   6.828   7.788   7.235  0.5613  0.5069 -0.3549
31848SOL    HW1  864   6.825   7.707   7.183 -1.8196  2.3727 -3.4679
31848SOL    HW2  865   6.915   7.824   7.217  1.2425 -0.7651  0.2049
31849SOL     OW  866  11.727   6.619  10.099  0.2852 -0.3286  0.3852
31849SOL    HW1  867  11.768   6.686  10.044 -0.6289  0.7337  0.9717
31849SOL    HW2  868  11.668   6.572  10.040 -1.3492  1.3684  0.6043
31850SOL     OW  869   3.286   8.069   6.601  0.4540  0.0755 -0.2891
31850SOL    HW1  870   3.353   8.004   6.623  0.6377  0.6667  0.9633
31850SOL    HW2  871   3.260   8.046   6.512  1.2001 -1.1232 -0.2313
31851SOL     OW  872   9.393   0.556   8.122 -0.1972 -0.2037  0.4332
31851SOL    HW1  873   9.463   0.608   8.084 -2.3658  0.8502 -2.4180
31851SOL    HW2  874   9.410   0.467   8.090  0.8908 -0.4008  1.4587
31852SOL     OW  875   7.594   2.672   7.864 -0.0050  0.5957  0.0705
31852SOL    HW1  876   7.599   2.754   7.814 -1.8603  0.7757  0.1137
31852SOL    HW2  877   7.662   2.617   7.826  1.2567  2.1259  0.0121
31853SOL     OW  878   3.304  10.724   3.634  0.1103 -0.4578  0.2906
31853SOL    HW1  879   3.232  10.673   3.672  0.4809 -0.2974  1.2160
31853SOL    HW2  880   3.383  10.687   3.673  0.5412 -0.5672 -0.6472
31854SOL     OW  881   8.715  11.650   7.022 -0.0130 -0.2503 -0.0346
31854SOL    HW1  882   8.796  11.641   7.072 -0.9091 -0.0231  1.4946
31854SOL    HW2  883   8.665  11.572   7.043 -0.3952 -0.1594 -0.5960
31855SOL     OW  884   2.753   3.474   8.365 -0.1462 -0.4911 -0.1664
31855SOL    HW1  885   2.684   3.473   8.298 -0.8969 -0.4566  0.5799
31855SOL    HW2  886   2.786   3.384   8.366 -1.1772 -0.8805  0.4520
31856SOL     OW  887   4.281  11.740   0.242  0.0719  0.3700  0.4141
31856SOL    HW1  888   4.293  11.676   0.312  0.8739  0.1687  0.0964
31856SOL    HW2  889   4.205  11.792   0.269  1.0263  1.0113  1.9671
31857SOL     OW  890  11.450   5.762   7.504  0.6543 -0.2011  0.2131
31857SOL    HW1  891  11.534   5.780   7.462  1.0440 -0.6987  0.7469
31857SOL    HW2  892  11.398   5.841   7.491  0.7065 -0.3908 -1.3001
31858SOL     OW  893   8.498   4.377   8.574 -0.0755 -0.3226 -0.0184
31858SOL    HW1  894   8.510   4.366   8.480 -0.0275 -1.9498  0.1479
31858SOL    HW2  895   8.555   4.310   8.613 -1.1827 -0.6465  1.1086
31859SOL     OW  896   1.588   0.687   5.523 -0.2362  0.4976 -0.3404
31859SOL    HW1  897   1.614   0.721   5.608  0.7786 -0.2293 -0.3423
31859SOL    HW2  898   1.589   0.763   5.465  3.0495  0.3844 -0.5847
31860SOL     OW  899  10.115   9.076   8.850  0.6860  0.0733  0.1699
31860SOL    HW1  900  10.066   9.014   8.796  0.7291  0.1787  0.0118
31860SOL    HW2  901  10.206   9.050   8.840  0.6729 -0.0543  0.3785
31861SOL     OW  902   5.739  10.023   3.043  0.5339  0.0266 -0.2506
31861SOL    HW1  903   5.759  10.040   2.951  0.3020  0.5595 -0.2045
31861SOL    HW2  904   5.666  10.081   3.063 -0.3720 -1.1257 -0.1212
31862SOL     OW  905   6.833   1.784   1.446  0.1058  0.2099 -0.1960
31862SOL    HW1  906   6.909   1.795   1.388  0.3378  1.3074  0.2788
31862SOL    HW2  907   6.824   1.690   1.456  1.5496  0.0543 -0.0926
31863SOL     OW  908  11.786  11.623   2.697 -0.5760  0.2523  0.0959
31863SOL    HW1  909  11.818  11.659   2.614  1.9314 -2.0003 -0.0132
31863SOL    HW2  910  11.755  11.535   2.675  0.6164 -0.5786  1.5900
31864SOL     OW  911   5.159   4.736  11.210 -0.1425 -0.2654  0.1324
31864SOL    HW1  912   5.105   4.808  11.243  0.5643  0.0869  0.5544
31864SOL    HW2  913   5.173   4.680  11.287  1.0166  0.2454  0.3143
31865SOL     OW  914   6.931   4.606   5.353  0.0235 -0.4090  0.2266
31865SOL    HW1  915   6.928   4.699   5.377 -0.0925 -0.2263 -0.4686
31865SOL    HW2  916   6.855   4.568   5.395 -0.4891  0.0206 -0.2895
31866SOL     OW  917   4.005  11.379  10.342  0.0176 -0.1924 -0.5110
31866SOL    HW1  918   4.006  11.295  10.297  1.7735  0.4129 -1.7027
31866SOL    HW2  919   3.925  11.377  10.395  0.0622 -2.6373 -0.4085
31867SOL     OW  920   7.530  11.734   2.813  0.3153 -0.4188 -0.3516
31867SOL    HW1  921   7.495  11.812   2.856 -0.1931 -1.9911  2.2520
31867SOL    HW2  922   7.621  11.729   2.842  0.0678 -1.3162  0.2811
31868SOL     OW  923  11.333   5.467   0.313  0.0301 -0.1456 -0.7347
31868SOL    HW1  924  11.261   5.529   0.318  0.2751  0.0697  0.3503
31868SOL    HW2  925  11.408   5.513   0.349  0.2242 -1.0357  0.0626
31869SOL     OW  926   6.370   5.288   0.525  0.3656 -0.1845  0.3263
31869SOL    HW1  927   6.392   5.204   0.566 -0.0323 -0.8170 -0.7450
31869SOL    HW2  928   6.455   5.323   0.496  0.3061 -1.3851 -1.4232
31870SOL     OW  929   4.947   9.443   8.904  0.9134  0.0018 -0.6790
31870SOL    HW1  930   4.869   9.482   8.865  2.3647  2.0901 -1.6547
31870SOL    HW2  931   4.921   9.352   8.923 -1.4187  0.3448 -1.8405
31871SOL     OW  932  10.030   9.437   0.371  0.0834 -0.1924 -0.0128
31871SOL    HW1  933   9.951   9.483   0.342  0.0248  0.5404  1.2674
31871SOL    HW2  934   9.999   9.349   0.394 -0.5664  0.3705  1.3782
31872SOL     OW  935   6.377   4.299   1.175  0.6388  0.3064  0.0907
31872SOL    HW1  936   6.466   4.298   1.139  1.0851  2.3646  0.9977
31872SOL    HW2  937   6.324   4.254   1.109  2.0241  0.7792 -1.4154
31873SOL     OW  938   5.604   9.683   4.267  0.0209  0.0802  0.6318
31873SOL    HW1  939   5.653   9.712   4.190  1.3616  0.6075  1.6397
31873SOL    HW2  940   5.513   9.706   4.248  0.6011  2.0458  0.0388
31874SOL     OW  941   6.714   1.807   7.499  0.2745  0.0992  0.2502
31874SOL    HW1  942   6.666   1.885   7.471  2.0619  0.7193 -1.2933
31874SOL    HW2  943   6.760   1.835   7.578  1.9903  1.1171 -1.0433
31875SOL     OW  944   4.118   7.284   1.604  0.0589  0.0232  0.9347
31875SOL    HW1  945   4.117   7.339   1.526  2.6717  0.2152  0.9543
31875SOL    HW2  946   4.072   7.204   1.578  0.7348  0.1574 -0.7654
31876SOL     OW  947   5.516   4.124   8.837 -0.0560  0.8086  0.3622
31876SOL    HW1  948   5.590   4.093   8.785 -0.5678 -0.5240  0.3880
31876SOL    HW2  949   5.454   4.157   8.772 -1.1594 -1.8428 -0.0487
31877SOL     OW  950   8.776   2.853  11.329  0.6982  0.3476  0.5008
31877SOL    HW1  951   8.781   2.835  11.236 -0.1105  1.3640  0.2343
31877SOL    HW2  952   8.789   2.948  11.336  0.7197  0.2885  1.4125
31878SOL     OW  953   6.228   6.255  11.067 -0.5427 -0.1846  0.1544
31878SOL    HW1  954   6.218   6.161  11.077 -1.9198 -0.0668 -0.0404
31878SOL    HW2  955   6.293   6.279  11.133 -0.9531 -1.1187  0.9148
31879SOL     OW  956  11.684   8.180   9.837  0.3165 -0.2578 -0.5361
31879SOL    HW1  957  11.635   8.208   9.914 -2.8647 -1.4684 -1.9341
31879SOL    HW2  958  11.770   8.221   9.847 -0.6564  1.3461  2.5457
31880SOL     OW  959   3.428   2.374  10.659 -0.1601  0.2226  0.0610
31880SOL    HW1  960   3.498   2.310  10.672 -0.4811  0.1352  1.6067
31880SOL    HW2  961   3.347   2.324  10.673 -0.4427  0.7643  0.3898
31881SOL     OW  962   1.184  10.314   5.553 -0.0807  0.0848 -0.1640
31881SOL    HW1  963   1.198  10.233   5.504  0.8566 -0.6724  1.3045
31881SOL    HW2  964   1.141  10.286   5.634 -0.7706  1.2100 -0.1205
31882SOL     OW  965   4.207   3.928   9.511  0.2289  0.2188  0.2503
31882SOL    HW1  966   4.283   3.939   9.569  0.5962 -0.6921 -0.0266
31882SOL    HW2  967   4.157   3.856   9.551  0.0567  0.1271 -0.1224
31883SOL     OW  968   7.164  11.794   7.533 -0.4743 -0.1802  0.0771
31883SOL    HW1  969   7.231  11.805   7.601 -0.7738  0.8054  0.2313
31883SOL    HW2  970   7.109  11.723   7.564  0.4841 -0.9933 -0.0379
31884SOL     OW  971   4.737   0.865   8.173  0.1912 -0.1244 -0.6107
31884SOL    HW1  972   4.823   0.832   8.201 -0.2809 -1.2216 -0.4039
31884SOL    HW2  973   4.751   0.892   8.082  0.6910 -0.6032 -0.6845
31885SOL     OW  974   4.083   3.498  11.377  0.3790  0.5104  0.2582
31885SOL    HW1  975   4.055   3.562  11.312 -0.2572  1.7166  1.6503
31885SOL    HW2  976   4.003   3.475  11.424  0.3496 -2.2677 -0.9355
31886SOL     OW  977   6.663   7.166  11.179  0.0258 -0.0120  0.5455
31886SOL    HW1  978   6.631   7.240  11.230 -0.6622  0.3029 -0.3130
31886SOL    HW2  979   6.738   7.133  11.228 -0.4343  0.4649  1.5893
31887SOL     OW  980   7.863  10.329  10.605 -0.0896 -0.4148  0.1105
31887SOL    HW1  981   7.835  10.385  10.533  1.3155  1.6896  1.0798
31887SOL    HW2  982   7.943  10.371  10.638 -0.4257 -1.5233  2.5809
31888SOL     OW  983  10.222   5.320  11.391  0.2074  0.3809  0.4624
31888SOL    HW1  984  10.282   5.351  11.459  0.5004  0.5360  0.1397
31888SOL    HW2  985  10.274   5.256  11.341 -0.9232 -2.0012  2.1812
31889SOL     OW  986   7.420   8.808   6.904 -0.5108  0.2045  0.6397
31889SOL    HW1  987   7.333   8.810   6.944 -2.2389 -0.2806 -2.7443
31889SOL    HW2  988   7.449   8.717   6.913 -1.3090 -0.1232 -0.0185
31890SOL     OW  989  10.852   9.910   8.131  0.0802 -0.3782  0.1603
31890SOL    HW1  990  10.811   9.827   8.109  0.6533 -0.3767 -0.9763
31890SOL    HW2  991  10.902   9.933   8.054 -0.4429  1.2637  0.2697
31891SOL     OW  992   4.642   9.544  10.817 -0.6037  0.2649 -0.6370
31891SOL    HW1  993   4.604   9.565  10.731  2.3681 -0.6373 -2.3302
31891SOL    HW2  994   4.597   9.464  10.844  0.1352 -0.9236 -2.6577
31892SOL     OW  995   5.896  11.362   0.861 -0.6286 -0.3794 -0.4812
31892SOL    HW1  996   5.839  11.427   0.901 -0.8612 -1.2670  0.6835
31892SOL    HW2  997   5.838  11.308   0.807 -0.7164 -0.6187 -0.1512
31893SOL     OW  998   0.695   6.903   5.211  0.2286 -0.0341  0.1473
31893SOL    HW1  999   0.662   6.846   5.280 -0.4769  0.2117  0.0213
31893SOL    HW2 1000   0.620   6.916   5.152  0.9294 -0.5879 -0.9035
31894SOL     OW 1001   2.859   9.809   9.844 -0.2357  0.2541 -0.2307
31894SOL    HW1 1002   2.950   9.780   9.845  0.2425  1.5390 -1.7188
31894SOL    HW2 1003   2.863   9.902   9.819 -1.9007  0.5866  0.5822
31895SOL     OW 1004   8.908   1.678   8.869 -0.5363  0.6645  0.4104
31895SOL    HW1 1005   8.899   1.756   8.923  2.9047  1.1844  0.4539
31895SOL    HW2 1006   8.876   1.607   8.925 -0.2078  1.6033  1.8515
31896SOL     OW 1007  10.290   3.118   2.054 -0.2446 -0.1745 -0.5823
31896SOL    HW1 1008  10.383   3.099   2.048 -0.0807  0.5097 -0.3226
31896SOL    HW2 1009  10.250   3.036   2.084  0.5431  0.1099  1.3819
31897SOL     OW 1010   6.712  10.527  10.149 -0.7405 -0.3118 -0.3662
31897SOL    HW1 1011   6.721  10.599  10.086  0.4227 -2.1766 -2.4787
31897SOL    HW2 1012   6.746  10.563  10.231 -1.1784  1.8470 -1.0550
31898SOL     OW 1013   8.963   3.461   5.913  0.5064 -0.5556 -0.0056
31898SOL    HW1 1014   8.890   3.515   5.885  1.2854  1.0493  0.8907
31898SOL    HW2 1015   8.989   3.412   5.835 -0.7733 -0.2815 -0.6169
31899SOL     OW 1016   1.721  10.215  11.509 -0.0372  0.4891 -0.1100
31899SOL    HW1 1017   1.796  10.207  11.451  0.8111 -0.8637  1.0909
31899SOL    HW2 1018   1.655  10.157  11.470  1.2286 -2.0189  1.2220
31900SOL     OW 1019   8.484   4.954   7.918  0.0868 -0.3743  0.0496
31900SOL    HW1 1020   8.398   4.919   7.943 -0.9860  1.9100 -0.2614
31900SOL    HW2 1021   8.546   4.886   7.947 -1.7611 -1.9192  0.6071
31901SOL     OW 1022  11.434   9.675   1.875 -0.2968  0.0776  1.1802
31901SOL    HW1 1023  11.493   9.710   1.943 -1.8063  0.3606  2.3963
31901SOL    HW2 1024  11.414   9.586   1.905 -0.6374  0.0472  0.8603
31902SOL     OW 1025   4.492   6.401   2.557  0.5424  0.0878  0.7683
31902SOL    HW1 1026   4.448   6.446   2.629  1.8103  1.2077  0.8778
31902SOL    HW2 1027   4.585   6.420   2.569  0.9480 -1.1200 -0.2063
31903SOL     OW 1028  11.495   9.712   5.084  0.2965  0.5431  0.2811
31903SOL    HW1 1029  11.474   9.805   5.076 -0.3646  0.3228 -0.8547
31903SOL    HW2 1030  11.413   9.667   5.065  0.6930 -0.2791  0.4543
31904SOL     OW 1031   9.696   9.936   4.104  0.0999  0.9333  0.5956
31904SOL    HW1 1032   9.788   9.912   4.090  0.0416  1.3874 -0.6759
31904SOL    HW2 1033   9.652   9.853   4.118  0.3642  0.4953 -0.9680
31905SOL     OW 1034   5.521   3.625   5.235  0.2590 -0.4663 -0.6071
31905SOL    HW1 1035   5.516   3.717   5.210 -1.0835  0.3146  2.2145
31905SOL    HW2 1036   5.447   3.584   5.188  1.0346 -0.2214 -2.0972
31906SOL     OW 1037   4.025   3.183   5.671 -0.0147  1.1338  0.4950
31906SOL    HW1 1038   4.106   3.216   5.632  0.2441 -0.4451 -0.3976
31906SOL    HW2 1039   3.983   3.134   5.601 -0.7526  0.2496  1.5172
31907SOL     OW 1040   7.986   2.145   8.339 -0.5746 -0.0411  0.7939
31907SOL    HW1 1041   7.929   2.144   8.416  0.2862 -1.4636  1.4700
31907SOL    HW2 1042   7.946   2.082   8.279 -0.9060  0.6032  0.3370
31908SOL     OW 1043   4.196  10.891   5.120 -0.1053 -0.0145 -0.0297
31908SOL    HW1 1044   4.261  10.822   5.137  0.6477 -0.0423 -2.5419
31908SOL    HW2 1045   4.197  10.945   5.198  4.0020  0.7750 -0.3860
31909SOL     OW 1046  10.503   1.181  10.723 -0.5065  0.1063  1.4603
31909SOL    HW1 1047  10.580   1.141  10.682 -0.8872  0.1433  0.6945
31909SOL    HW2 1048  10.540   1.243  10.786  0.1816  1.9009 -0.5560
31910SOL     OW 1049   7.386   8.322  11.250 -0.2106  1.0939 -0.5915
31910SOL    HW1 1050   7.360   8.414  11.239  0.5939  1.1225 -2.6938
31910SOL    HW2 1051   7.428   8.299  11.167  1.0509 -0.7101  0.4749
31911SOL     OW 1052  11.694   4.626   4.551  0.5742 -0.3240  0.3105
31911SOL    HW1 1053  11.780   4.599   4.586 -0.1337 -0.4159  2.1082
31911SOL    HW2 1054  11.669   4.700   4.606 -1.2791 -1.4377  1.0635
31912SOL     OW 1055   5.729   7.286  11.307  0.5871  0.1931  0.0157
31912SOL    HW1 1056   5.750   7.196  11.282 -0.8582  0.5950 -3.2868
31912SOL    HW2 1057   5.806   7.336  11.280  0.2555  0.2421 -0.8924
31913SOL     OW 1058   2.182   7.922   1.540 -0.4164  0.2519  0.5180
31913SOL    HW1 1059   2.275   7.923   1.564 -0.6017  3.7954  1.6860
31913SOL    HW2 1060   2.178   7.867   1.462  2.3213 -1.4266  1.4022
31914SOL     OW 1061   4.163   5.909   5.681 -0.0418 -0.3230  0.2934
31914SOL    HW1 1062   4.108   5.835   5.658  0.5593 -0.9520  0.8234
31914SOL    HW2 1063   4.253   5.874   5.678  0.4883  1.0356 -2.0111
31915SOL     OW 1064   9.448   0.476  10.391 -0.4467  0.1025 -0.2816
31915SOL    HW1 1065   9.424   0.567  10.405  1.3716  0.5953 -0.0483
31915SOL    HW2 1066   9.529   0.480  10.340 -1.5178 -1.4611 -2.2219
31916SOL     OW 1067   5.053   9.941   0.654 -0.1490  0.1463 -0.0291
31916SOL    HW1 1068   5.023   9.984   0.734  1.1846  1.7227 -0.3238
31916SOL    HW2 1069   5.046   9.847   0.674 -0.6817  0.4939  1.6059
31917SOL     OW 1070   3.507   5.130   0.829 -0.7398 -0.2836  0.5418
31917SOL    HW1 1071   3.494   5.123   0.734  0.4049 -0.5682  0.3910
31917SOL    HW2 1072   3.540   5.044   0.855  4.6497  1.2999  0.1814
31918SOL     OW 1073   7.686   4.420   4.697 -0.0098  0.0829 -0.1009
31918SOL    HW1 1074   7.732   4.503   4.714  0.6792  0.0109 -1.5232
31918SOL    HW2 1075   7.673   4.419   4.602 -0.0514 -1.4200 -0.0944
31919SOL     OW 1076  11.656  10.002   1.621  0.5817  0.5093 -0.0868
31919SOL    HW1 1077  11.656  10.097   1.634  0.2125  0.5841 -0.5993
31919SOL    HW2 1078  11.727   9.986   1.559  1.8038  0.2420  1.3261
31920SOL     OW 1079   9.088   2.844   8.738  0.1271 -0.9447 -0.0059
31920SOL    HW1 1080   9.044   2.763   8.714 -1.4401 -0.0425 -0.2945
31920SOL    HW2 1081   9.175   2.837   8.700 -0.3849 -1.9841 -1.0195
31921SOL     OW 1082   2.925   2.268   3.269 -0.4293 -0.4592 -0.3630
31921SOL    HW1 1083   2.868   2.279   3.193 -0.2912  0.1788 -0.3778
31921SOL    HW2 1084   2.935   2.356   3.305  1.6721 -0.3060 -1.1880
31922SOL     OW 1085   0.924   8.119   1.634  0.0238  0.6399 -0.1769
31922SOL    HW1 1086   0.832   8.104   1.657  0.1800 -0.5153 -0.2278
31922SOL    HW2 1087   0.965   8.143   1.717 -0.1410  0.1809  0.0433
31923SOL     OW 1088   8.999   9.337   7.486  0.1000 -0.2370 -0.0622
31923SOL    HW1 1089   9.021   9.419   7.441  0.6312 -0.6453 -0.5726
31923SOL    HW2 1090   8.952   9.364   7.565  0.7628  0.5834  0.0657
31924SOL     OW 1091   7.332   2.832   8.915 -0.2574  0.5798 -0.1273
31924SOL    HW1 1092   7.240   2.845   8.937 -0.5233 -0.6313 -0.4329
31924SOL    HW2 1093   7.380   2.884   8.980 -1.1482  1.2417  0.0215
31925SOL     OW 1094   0.109  10.328   5.793 -0.4086 -0.4070 -0.5713
31925SOL    HW1 1095   0.027  10.318   5.746 -0.4172 -1.3618 -0.3582
31925SOL    HW2 1096   0.169  10.268   5.750  0.1575  0.2013 -0.6538
31926SOL     OW 1097   5.404   2.588   9.935  0.5228 -0.2055  0.1131
31926SOL    HW1 1098   5.362   2.510   9.972  0.2327  0.0764  0.3846
31926SOL    HW2 1099   5.331   2.649   9.921  0.6031 -0.3542 -1.0484
31927SOL     OW 1100   1.131  10.610   9.612 -0.0466 -0.4158  0.1362
31927SOL    HW1 1101   1.142  10.597   9.706  1.1749  0.4518  0.1352
31927SOL    HW2 1102   1.159  10.527   9.573  1.1652 -0.1760  0.4592
31928SOL     OW 1103   4.099   5.198   2.545 -0.6617  0.1339 -0.3922
31928SOL    HW1 1104   4.042   5.230   2.614 -1.1740  0.1721 -0.8258
31928SOL    HW2 1105   4.089   5.261   2.474  0.3657  0.4641 -0.2675
31929SOL     OW 1106   1.590   3.133   5.091 -0.8078  0.3223  0.2833
31929SOL    HW1 1107   1.542   3.213   5.110 -2.1830 -0.4124  0.0197
31929SOL    HW2 1108   1.601   3.133   4.996 -0.5686  0.3315  0.3106
31930SOL     OW 1109   7.014   2.028   8.526 -0.6278  0.1565  0.0829
31930SOL    HW1 1110   7.065   1.968   8.579  0.4054  0.4825 -0.5208
31930SOL    HW2 1111   7.061   2.111   8.531 -0.9533  0.3951 -0.6916
31931SOL     OW 1112   2.180   3.357   2.741 -0.0324 -0.1381 -0.3645
31931SOL    HW1 1113   2.248   3.370   2.807  2.0639 -2.3173 -1.9143
31931SOL    HW2 1114   2.168   3.262   2.738 -0.0049 -0.1134 -3.0984
31932SOL     OW 1115   1.710   8.748   2.345 -0.5735  0.0895  0.0816
31932SOL    HW1 1116   1.618   8.762   2.367 -0.2264  0.1004  1.6300
31932SOL    HW2 1117   1.731   8.817   2.282 -2.1498 -1.1814 -1.9520
31933SOL     OW 1118  11.356   0.872   0.306  0.5217  0.2621 -0.3791
31933SOL    HW1 1119  11.276   0.819   0.300 -0.1620  1.2594 -0.2954
31933SOL    HW2 1120  11.353   0.929   0.229  0.9415  0.5946 -0.1521
31934SOL     OW 1121   7.846   4.230   0.701 -0.0551  0.1137  0.0212
31934SOL    HW1 1122   7.817   4.297   0.639 -1.3829 -1.3919 -1.0806
31934SOL    HW2 1123   7.808   4.149   0.668  3.6494 -1.7431 -0.3163
31935SOL     OW 1124   6.639   4.127   0.792  0.1115 -0.3543  0.4297
31935SOL    HW1 1125   6.724   4.086   0.775 -0.8330 -1.2798 -2.9504
31935SOL    HW2 1126   6.589   4.062   0.841  0.8580 -0.3701  1.1885
31936SOL     OW 1127   2.802   8.973   7.344  0.2963 -0.0366 -0.8525
31936SOL    HW1 1128   2.745   8.924   7.284  0.5398 -2.3548  0.6921
31936SOL    HW2 1129   2.811   8.917   7.420  1.7674  1.8643  0.4776
31937SOL     OW 1130   7.704   8.492  10.952 -0.2850  0.1832  0.0113
31937SOL    HW1 1131   7.667   8.540  11.026  0.1045 -0.4792  0.6547
31937SOL    HW2 1132   7.755   8.556  10.904  2.7027 -0.1186  2.4999
31938SOL     OW 1133   4.660   5.278   0.556  0.2672  0.0103 -0.1245
31938SOL    HW1 1134   4.624   5.271   0.645  1.7759 -0.2686  0.4893
31938SOL    HW2 1135   4.647   5.191   0.518  0.0597 -0.0126  0.0006
31939SOL     OW 1136  10.687   9.727  10.008 -0.1799 -0.2749  0.4338
31939SOL    HW1 1137  10.684   9.708   9.914  1.0071  1.1819  0.0653
31939SOL    HW2 1138  10.636   9.657  10.048  0.4881 -1.7586 -1.1672
31940SOL     OW 1139   9.046   9.044   3.237  0.4337 -0.4538  0.7016
31940SOL    HW1 1140   9.019   9.062   3.327  0.3577  0.1897  0.5547
31940SOL    HW2 1141   8.999   9.108   3.184  0.7399 -0.6043  0.2373
31941SOL     OW 1142   9.208   3.838   3.811  0.5323  0.0919 -0.3019
31941SOL    HW1 1143   9.119   3.830   3.844  1.3109 -2.8270  1.4734
31941SOL    HW2 1144   9.254   3.887   3.879  0.4284  1.1306 -0.9639
31942SOL     OW 1145   6.590   6.024   2.878 -0.3566  0.2790  0.2436
31942SOL    HW1 1146   6.624   5.940   2.910  0.0126  0.4532  0.3180
31942SOL    HW2 1147   6.544   6.002   2.797 -0.6720 -0.0620  0.5084
31943SOL     OW 1148   2.023   3.259  10.749  0.1142  0.0740 -0.0922
31943SOL    HW1 1149   2.083   3.186  10.732  0.3835 -0.7837  3.6894
31943SOL    HW2 1150   2.076   3.322  10.798 -1.2687  0.7869  0.5389
31944SOL     OW 1151   7.310   6.339   9.127 -0.3481 -0.3111 -0.5717
31944SOL    HW1 1152   7.279   6.277   9.193  0.2236 -1.0702 -1.0071
31944SOL    HW2 1153   7.304   6.424   9.170 -0.9765 -0.6817  0.0951
31945SOL     OW 1154   6.991   9.883   0.793  0.3029  0.6772  0.2485
31945SOL    HW1 1155   7.010   9.874   0.886  0.6301  1.8825  0.3158
31945SOL    HW2 1156   6.895   9.884   0.788  0.2869  0.8367  0.5905
31946SOL     OW 1157   1.512   4.944   0.867  0.2215  0.0657 -0.1566
31946SOL    HW1 1158   1.487   4.995   0.791  1.3994 -1.2343 -1.4771
31946SOL    HW2 1159   1.533   5.009   0.934  0.4900  1.2739 -1.3784
31947SOL     OW 1160   1.828   1.204   1.035  0.2621  0.4718  0.1752
31947SOL    HW1 1161   1.869   1.167   0.956 -0.6576  0.9796 -0.5585
31947SOL    HW2 1162   1.877   1.284   1.052 -0.0453  0.7726 -0.3491
31948SOL     OW 1163   1.796   0.671   6.838  0.3599  0.3195 -0.5935
31948SOL    HW1 1164   1.744   0.686   6.917  1.1100 -0.2062  0.0092
31948SOL    HW2 1165   1.739   0.619   6.781  0.5858 -1.1956  0.5081
31949SOL     OW 1166   7.365   3.904   5.465  0.1370  0.4296  0.5337
31949SOL    HW1 1167   7.355   3.832   5.402 -0.9699  1.5927 -0.6710
31949SOL    HW2 1168   7.290   3.897   5.523 -1.3457  2.0031 -1.0896
31950SOL     OW 1169   8.636   7.569  10.486  0.8091 -0.5505  0.4071
31950SOL    HW1 1170   8.673   7.637  10.543  0.9203  0.3279 -0.6673
31950SOL    HW2 1171   8.599   7.617  10.412  1.4796 -1.6806 -0.7240
31951SOL     OW 1172   9.661   3.350   6.161 -0.1627  0.6025  0.1782
31951SOL    HW1 1173   9.721   3.334   6.088 -1.8183 -0.6634 -0.9650
31951SOL    HW2 1174   9.644   3.262   6.197  1.6640  1.2645  3.0544
31952SOL     OW 1175  11.277   2.185   0.660 -0.3109  0.7463 -0.2027
31952SOL    HW1 1176  11.203   2.206   0.716 -0.4026  0.7107 -0.3106
31952SOL    HW2 1177  11.308   2.100   0.692 -0.0083  0.9870  0.1627
31953SOL     OW 1178   5.555   7.617   4.006 -0.1483 -0.1350 -0.4405
31953SOL    HW1 1179   5.534   7.702   3.966 -0.5577  0.1197  0.2921
31953SOL    HW2 1180   5.651   7.613   4.003 -0.1486  0.1277 -0.9356
31954SOL     OW 1181   1.636   7.458  11.312  0.4256 -0.2797 -0.2797
31954SOL    HW1 1182   1.713   7.437  11.259 -0.1746 -0.9032 -0.9277
31954SOL    HW2 1183   1.663   7.534  11.364  1.0529  0.3325 -1.4532
31955SOL     OW 1184  10.439  10.674  10.107  0.2874  0.1840  0.6143
31955SOL    HW1 1185  10.440  10.621  10.027 -0.4592  1.6680 -0.4178
31955SOL    HW2 1186  10.454  10.763  10.077 -0.6714  0.8641  2.0508
31956SOL     OW 1187   8.434   1.555   3.203 -0.2041  0.5350  0.5313
31956SOL    HW1 1188   8.367   1.614   3.237 -0.5422  0.1894  0.4760
31956SOL    HW2 1189   8.480   1.523   3.281 -2.3656 -1.9472  0.9610
31957SOL     OW 1190   1.546  10.831   2.652 -0.3999  0.3747  0.8590
31957SOL    HW1 1191   1.470  10.826   2.594 -0.2081  0.9948  0.5536
31957SOL    HW2 1192   1.531  10.909   2.705  0.5842  1.1732 -0.0051
31958SOL     OW 1193   9.921   0.957  10.580 -0.4774 -0.1783 -0.3127
31958SOL    HW1 1194   9.976   1.018  10.530  1.2284  0.2795  1.9687
31958SOL    HW2 1195   9.863   1.013  10.631  1.0932 -0.3325  1.7917
31959SOL     OW 1196   0.469   0.569   0.074  0.5598 -0.3622 -0.4565
31959SOL    HW1 1197   0.476   0.474   0.076  1.2289 -0.3228 -0.3794
31959SOL    HW2 1198   0.379   0.587   0.047  1.0330 -1.0142 -2.6738
31960SOL     OW 1199   8.278   5.403   5.487 -0.3114  0.5023 -0.0386
31960SOL    HW1 1200   8.257   5.313   5.510  0.8053  0.2125 -0.1096
31960SOL    HW2 1201   8.248   5.413   5.397 -1.0390  0.4167  0.1863
31961SOL     OW 1202   8.229  10.240   4.230 -0.5165  0.0787 -0.1575
31961SOL    HW1 1203   8.310  10.265   4.275  0.5049  0.0830 -1.9252
31961SOL    HW2 1204   8.203  10.318   4.182  0.1069 -0.7592 -1.9599
31962SOL     OW 1205   9.579   9.103   3.184  0.0645 -0.2192 -0.1925
31962SOL    HW1 1206   9.589   9.184   3.234  2.4500 -1.4584  1.5786
31962SOL    HW2 1207   9.528   9.045   3.241 -0.0710 -0.5586 -0.6488
31963SOL     OW 1208   6.165   7.155   6.220 -0.6289  0.4153 -0.3244
31963SOL    HW1 1209   6.228   7.159   6.291 -1.0742 -0.1133  0.1098
31963SOL    HW2 1210   6.196   7.084   6.164 -0.6895  0.3295 -0.2504
31964SOL     OW 1211   9.918   8.232   6.128 -0.1200  0.6883 -0.0358
31964SOL    HW1 1212   9.949   8.308   6.176  1.8457  0.2428 -0.4706
31964SOL    HW2 1213   9.874   8.268   6.051 -0.3526  1.3709  0.4079
31965SOL     OW 1214   7.046   7.887   6.009  0.2652  0.6255  1.0780
31965SOL    HW1 1215   7.104   7.823   6.050 -1.1715 -0.6496  1.1994
31965SOL    HW2 1216   6.966   7.839   5.992 -0.1264  1.8500 -0.8010
31966SOL     OW 1217   1.881   9.279   3.756 -0.2406 -0.5368 -0.4098
31966SOL    HW1 1218   1.961   9.298   3.708 -0.8347 -1.3637 -1.8088
31966SOL    HW2 1219   1.818   9.343   3.723 -0.0241  0.4980  1.1189
31967SOL     OW 1220   0.906   3.688   5.656  0.0276 -0.7402  0.1602
31967SOL    HW1 1221   0.994   3.656   5.634  0.4664 -0.7117  1.7843
31967SOL    HW2 1222   0.884   3.748   5.585  2.0434  0.5591  0.5567
31968SOL     OW 1223   0.662   1.133   8.619 -0.5218  0.0676  0.4025
31968SOL    HW1 1224   0.721   1.152   8.546 -0.0866  2.2790  1.2458
31968SOL    HW2 1225   0.707   1.065   8.669 -0.1039 -0.3699 -0.5487
31969SOL     OW 1226   1.801   8.488   6.770  0.1156  0.0019  0.3308
31969SOL    HW1 1227   1.740   8.560   6.756  0.4363  0.2528  0.2141
31969SOL    HW2 1228   1.887   8.529   6.769  0.1928  0.1138  3.2144
31970SOL     OW 1229   0.241   4.462   5.200  0.2801 -0.8245 -0.4777
31970SOL    HW1 1230   0.231   4.549   5.162  0.5926 -1.4461 -2.0470
31970SOL    HW2 1231   0.317   4.471   5.258 -0.0526  0.0839 -0.1567
31971SOL     OW 1232   6.311   9.850   1.897  0.0266 -0.7125  0.0269
31971SOL    HW1 1233   6.373   9.807   1.956  0.8839 -1.0957 -1.0994
31971SOL    HW2 1234   6.366   9.883   1.826 -1.0919 -1.4446 -1.2240
31972SOL     OW 1235  11.134   5.174   5.712  0.6539 -0.3371 -0.0107
31972SOL    HW1 1236  11.044   5.148   5.729  1.3071 -1.8882  1.3905
31972SOL    HW2 1237  11.151   5.145   5.622 -0.4428  0.6519 -0.5597
31973SOL     OW 1238   8.841   8.100   3.206  0.7208 -0.7075 -0.4907
31973SOL    HW1 1239   8.865   8.068   3.293 -1.0745  1.2439  0.8160
31973SOL    HW2 1240   8.907   8.062   3.147  2.0933 -1.9419  1.7218
31974SOL     OW 1241   8.465   1.361   1.939  0.0179 -0.4923 -0.3519
31974SOL    HW1 1242   8.441   1.373   1.847  0.6748 -0.0085 -0.4616
31974SOL    HW2 1243   8.381   1.359   1.986 -0.3752 -1.6892 -1.0603
31975SOL     OW 1244   3.591   9.119  10.944  0.0703 -0.0048  0.6099
31975SOL    HW1 1245   3.556   9.077  10.865 -0.1743  0.0764  0.6761
31975SOL    HW2 1246   3.677   9.079  10.956 -0.2206 -0.5955  0.7573
31976SOL     OW 1247  10.326   7.430  10.148 -0.0551 -0.2843 -0.2610
31976SOL    HW1 1248  10.315   7.481  10.067  0.8379 -1.1403 -0.9650
31976SOL    HW2 1249  10.418   7.444  10.172 -0.7974  1.5699  1.7804
31977SOL     OW 1250   9.352   2.428  11.418  0.3734  0.2355 -0.1493
31977SOL    HW1 1251   9.266   2.465  11.437  0.3841 -0.1604  0.7435
31977SOL    HW2 1252   9.340   2.333  11.426  0.6875  0.1197 -0.9281
31978SOL     OW 1253   9.314   8.751   7.129  0.8622 -0.1053 -0.2983
31978SOL    HW1 1254   9.368   8.698   7.187  0.7562  0.4697  0.3476
31978SOL    HW2 1255   9.280   8.690   7.064  1.1652 -0.7234  0.1182
31979SOL     OW 1256   5.027   9.131   6.047 -0.5526 -0.2946  0.3184
31979SOL    HW1 1257   4.976   9.088   6.115 -1.5747 -0.6550 -0.6433
31979SOL    HW2 1258   4.992   9.220   6.043  0.7256  0.2978  1.4603
31980SOL     OW 1259   5.952   0.362   5.873  0.0011 -0.3089 -0.2481
31980SOL    HW1 1260   5.966   0.353   5.779  0.9058  1.4774 -0.3406
31980SOL    HW2 1261   5.859   0.380   5.882  0.0904  0.5553 -0.9190
31981SOL     OW 1262   6.630   8.457   7.502 -0.3151  0.0173 -0.2877
31981SOL    HW1 1263   6.661   8.434   7.589 -0.4509  0.0728 -0.2242
31981SOL    HW2 1264   6.669   8.392   7.444 -0.3789 -0.1354 -0.1610
31982SOL     OW 1265   9.299   1.835   4.047 -0.0427 -0.1847 -0.1994
31982SOL    HW1 1266   9.306   1.828   3.951 -0.3844  0.3920 -0.2694
31982SOL    HW2 1267   9.371   1.893   4.072  0.3150 -0.6871 -0.0571
31983SOL     OW 1268   8.807   2.549   3.713 -0.0074 -0.1458  0.5853
31983SOL    HW1 1269   8.749   2.487   3.757  1.8190 -0.8599  2.1224
31983SOL    HW2 1270   8.862   2.584   3.784  0.7325  1.2956 -0.6489
31984SOL     OW 1271   7.003   3.171   4.869  0.3063 -0.0699  0.2026
31984SOL    HW1 1272   6.909   3.154   4.878  0.2470  0.2199  0.1323
31984SOL    HW2 1273   7.013   3.204   4.779  0.9432 -3.3326 -1.0797
31985SOL     OW 1274   9.626   9.989   9.846  0.1024  0.6649 -0.3916
31985SOL    HW1 1275   9.672  10.001   9.929  0.2333 -0.7438 -0.2489
31985SOL    HW2 1276   9.622   9.894   9.833 -0.6966  0.8328 -1.5624
31986SOL     OW 1277  11.079   9.951   6.141 -0.6786  0.7266  1.1180
31986SOL    HW1 1278  11.067  10.012   6.213  2.0245  1.4584  1.0442
31986SOL    HW2 1279  11.173   9.952   6.123 -1.2503  0.9165 -2.6794
31987SOL     OW 1280   0.831   1.280  11.314 -0.6639  0.2499 -0.1562
31987SOL    HW1 1281   0.881   1.210  11.273 -0.5435  0.2789 -0.0569
31987SOL    HW2 1282   0.754   1.291  11.257  0.0291  1.0237 -0.9830
31988SOL     OW 1283   6.172   8.234   7.675  0.2283 -0.4013 -0.9379
31988SOL    HW1 1284   6.231   8.244   7.600 -0.0258 -0.7912 -1.1966
31988SOL    HW2 1285   6.090   8.273   7.645  0.1285 -0.5517 -0.8545
31989SOL     OW 1286   4.788  10.393   7.556 -0.2879  0.0573  0.1468
31989SOL    HW1 1287   4.736  10.408   7.477 -0.0312 -0.8441 -0.2060
31989SOL    HW2 1288   4.878  10.412   7.530  0.2166 -2.9322 -0.6394
31990SOL     OW 1289   2.929   5.472  11.144  0.2733  0.6039 -0.1695
31990SOL    HW1 1290   2.853   5.417  11.129  0.6082  0.1252 -0.1534
31990SOL    HW2 1291   2.978   5.469  11.061  0.0928  1.2053 -0.3048
31991SOL     OW 1292   8.429   3.117   1.213 -0.3207 -0.2928 -0.0513
31991SOL    HW1 1293   8.475   3.111   1.296  0.0978 -1.1432 -0.3342
31991SOL    HW2 1294   8.400   3.208   1.208  2.9559  0.8665 -0.6930
31992SOL     OW 1295   9.941   2.226   3.442  0.6278 -0.4435 -0.4854
31992SOL    HW1 1296   9.970   2.233   3.533  1.0808 -0.7731 -0.6011
31992SOL    HW2 1297   9.901   2.311   3.423  0.6530 -0.3231 -0.0222
31993SOL     OW 1298   2.089   0.176   9.020 -0.0861  0.3097  0.1003
31993SOL    HW1 1299   2.016   0.216   8.972  0.1065  0.8882  0.2781
31993SOL    HW2 1300   2.162   0.236   9.007 -0.0063  0.4331  1.0439
31994SOL     OW 1301   9.155   8.253   0.326  0.4693  0.2542 -0.0762
31994SOL    HW1 1302   9.186   8.172   0.287 -1.3721 -0.4553 -0.1716
31994SOL    HW2 1303   9.072   8.230   0.367 -0.1788  2.1188 -0.2237
31995SOL     OW 1304   8.229   5.858  10.523 -0.1575 -0.0177  0.2198
31995SOL    HW1 1305   8.280   5.801  10.582  1.3144  1.6078  0.6020
31995SOL    HW2 1306   8.242   5.821  10.436  2.2814  0.6941  0.2158
31996SOL     OW 1307   5.970   7.264   0.502 -0.5942 -0.1279  0.1023
31996SOL    HW1 1308   6.000   7.232   0.417 -0.3511 -3.2727  1.2188
31996SOL    HW2 1309   5.928   7.188   0.542 -0.2209  1.0791  3.0068
31997SOL     OW 1310   5.086  10.279   7.823  0.3310  0.7901  0.4673
31997SOL    HW1 1311   4.995  10.252   7.814  0.6496 -1.0545  1.9571
31997SOL    HW2 1312   5.082  10.368   7.856 -0.9283  0.7912  0.3399
31998SOL     OW 1313   6.079   2.042   1.368 -0.4207 -0.4590  0.6249
31998SOL    HW1 1314   6.083   2.124   1.319  2.5009  0.1045  1.5990
31998SOL    HW2 1315   6.006   2.055   1.429 -0.5742  1.0505  0.1767
31999SOL     OW 1316   9.655  10.180   0.167 -0.0786 -0.0510  0.2156
31999SOL    HW1 1317   9.745  10.175   0.198 -0.5936  0.5217  1.9456
31999SOL    HW2 1318   9.611  10.237   0.231 -1.3457  0.8389 -1.3626
32000SOL     OW 1319  11.795  11.793  10.827  0.2740  0.5033  0.1957
32000SOL    HW1 1320  11.791  11.873  10.774  0.1728  0.5597  0.2875
32000SOL    HW2 1321  11.789  11.722  10.764 -0.8657  0.5701  0.2108
32001SOL     OW 1322   3.768   1.430   9.425  0.3223  0.1141  0.3927
32001SOL    HW1 1323   3.775   1.478   9.341 -0.6468 -0.8137 -0.2373
32001SOL    HW2 1324   3.824   1.354   9.413  1.0336  0.5207  1.0132
32002SOL     OW 1325   0.623   4.042   0.481 -0.0411 -0.3750 -0.0864
32002SOL    HW1 1326   0.700   3.985   0.469  0.5489  0.5872 -0.9825
32002SOL    HW2 1327   0.660   4.129   0.496 -0.9630  0.0250 -0.1089
32003SOL     OW 1328   5.995   4.809   9.700 -0.1462 -0.2820  0.9832
32003SOL    HW1 1329   5.979   4.904   9.701 -1.7172 -0.5229  2.3401
32003SOL    HW2 1330   5.989   4.785   9.608  3.5476  1.3906  0.1143
32004SOL     OW 1331   4.681   3.047   7.220 -0.6243  0.2726 -0.4170
32004SOL    HW1 1332   4.753   3.009   7.170 -0.8054  1.4932 -1.6829
32004SOL    HW2 1333   4.604   2.997   7.193 -0.5039  0.0221 -0.2965
32005SOL     OW 1334   3.360   7.322   0.831  0.1741 -0.0747 -0.3859
32005SOL    HW1 1335   3.448   7.357   0.815 -0.2675  0.9915 -0.5410
32005SOL    HW2 1336   3.340   7.345   0.921 -0.8835  1.8686 -1.0475
32006SOL     OW 1337   8.942   2.617   9.011  0.1518 -0.1690 -0.3687
32006SOL    HW1 1338   8.924   2.656   8.925  0.2877 -0.3869 -0.4980
32006SOL    HW2 1339   8.964   2.526   8.991 -3.0029 -1.1745  0.1574
32007SOL     OW 1340   7.471   6.240   4.907 -0.4176 -0.6715  0.4387
32007SOL    HW1 1341   7.486   6.292   4.828 -0.0929  0.4042  1.1801
32007SOL    HW2 1342   7.389   6.193   4.891 -0.0022 -1.0057 -0.7993
32008SOL     OW 1343   5.044   2.467   4.943 -0.6513 -0.0968  0.0867
32008SOL    HW1 1344   5.004   2.426   5.020 -2.1974  0.8608 -0.1545
32008SOL    HW2 1345   5.100   2.535   4.979  0.1647 -0.9202  0.4083
32009SOL     OW 1346  10.124  11.077   1.984 -0.6444 -0.3784  0.2008
32009SOL    HW1 1347  10.110  11.163   2.023 -0.2321 -0.8573  1.4877
32009SOL    HW2 1348  10.040  11.032   1.993 -0.5534 -0.4841  0.5398
32010SOL     OW 1349   3.535   5.859   6.571  0.4296  0.1469  0.6287
32010SOL    HW1 1350   3.448   5.845   6.532  1.2827 -0.4392 -1.1831
32010SOL    HW2 1351   3.517   5.904   6.653 -1.5146  1.0699 -0.2297
32011SOL     OW 1352   7.597   5.710   4.693  0.3235  0.3212 -0.1789
32011SOL    HW1 1353   7.560   5.729   4.606 -0.4354 -0.7186 -0.0993
32011SOL    HW2 1354   7.569   5.621   4.712 -0.3643  0.8603  1.5547
32012SOL     OW 1355   6.219   3.790   3.548  0.7289 -0.0473 -0.3611
32012SOL    HW1 1356   6.295   3.780   3.490 -0.0440  1.0468 -1.6081
32012SOL    HW2 1357   6.179   3.872   3.521  0.1492  0.3353  1.5365
32013SOL     OW 1358   7.904   3.527   2.625  0.4023 -0.3169 -0.2029
32013SOL    HW1 1359   7.914   3.433   2.611 -0.8613 -0.4089 -0.6150
32013SOL    HW2 1360   7.897   3.536   2.720 -0.9307 -0.8168 -0.2372
32014SOL     OW 1361   8.986   2.626  10.865  0.4007 -0.3352  0.1482
32014SOL    HW1 1362   8.907   2.582  10.834  0.1129  1.1875 -1.4115
32014SOL    HW2 1363   9.004   2.585  10.950 -1.3327 -1.5737 -0.0234
32015SOL     OW 1364   4.962   8.832   3.107  0.3081 -0.5259  0.2776
32015SOL    HW1 1365   4.876   8.792   3.119 -0.1130 -0.0973 -1.1995
32015SOL    HW2 1366   4.947   8.926   3.111  0.4943 -0.4100 -1.1051
32016SOL     OW 1367   0.849   4.107   4.011  0.0492  0.4859  0.1344
32016SOL    HW1 1368   0.890   4.064   4.086 -0.5887 -0.4431 -0.0302
32016SOL    HW2 1369   0.769   4.146   4.047 -0.2239  0.0946 -0.0409
32017SOL     OW 1370   2.773   9.642   3.464 -0.4166  0.1405 -0.4796
32017SOL    HW1 1371   2.722   9.561   3.457  1.4833 -1.2918  1.1407
32017SOL    HW2 1372   2.762   9.670   3.555  2.0030 -0.5159  0.0916
32018SOL     OW 1373   8.531   8.147   9.710 -0.1338  0.1550 -0.2450
32018SOL    HW1 1374   8.464   8.126   9.645 -0.6855 -0.4424  0.5075
32018SOL    HW2 1375   8.495   8.116   9.793  0.1015  1.8683  0.5297
32019SOL     OW 1376   2.429   8.093   4.707  0.4839 -0.3668  0.5859
32019SOL    HW1 1377   2.508   8.050   4.675 -1.3149 -3.6107 -0.0259
32019SOL    HW2 1378   2.452   8.123   4.795  2.3793 -1.2272  0.4380
32020SOL     OW 1379   8.277   5.218   9.654  0.1838  0.2277 -0.2206
32020SOL    HW1 1380   8.307   5.129   9.642  0.5062  0.4058 -0.7559
32020SOL    HW2 1381   8.336   5.272   9.602  0.3365  0.8163  0.5319
32021SOL     OW 1382   2.119   8.712   1.965  0.3643  0.1774  0.3348
32021SOL    HW1 1383   2.177   8.689   1.892 -1.2801  0.5694 -1.1732
32021SOL    HW2 1384   2.078   8.794   1.937 -1.2954 -0.3630  1.1002
32022SOL     OW 1385   9.373   1.137  11.436  0.3350 -0.0072 -0.0231
32022SOL    HW1 1386   9.404   1.046  11.437  1.9735  0.4185 -2.3222
32022SOL    HW2 1387   9.284   1.132  11.403  0.0076 -0.8499  0.9470
32023SOL     OW 1388   8.435   3.541   8.083  0.1265 -0.2485  0.0036
32023SOL    HW1 1389   8.407   3.529   7.992 -1.4914 -0.4463  0.4816
32023SOL    HW2 1390   8.529   3.524   8.082  0.7362  2.5417 -2.1204
32024SOL     OW 1391   3.655   8.817   1.182  0.2348  0.1027  0.0682
32024SOL    HW1 1392   3.579   8.824   1.239  0.2650  0.5551  0.0537
32024SOL    HW2 1393   3.625   8.846   1.096  0.9053  2.2205  0.4949
32025SOL     OW 1394   8.713   3.131  11.282 -0.1185 -1.0904 -0.0661
32025SOL    HW1 1395   8.653   3.154  11.211 -0.6071  1.6659  1.1198
32025SOL    HW2 1396   8.655   3.114  11.357  0.4891  1.1525  0.9703
32026SOL     OW 1397   1.105   2.541   5.948 -0.4769 -0.2530 -0.3173
32026SOL    HW1 1398   1.055   2.463   5.973  0.0449 -0.7168 -0.7145
32026SOL    HW2 1399   1.151   2.515   5.868 -0.0017  0.3393 -0.2367
32027SOL     OW 1400   6.617   0.100   0.487  0.3995 -0.2088 -0.0672
32027SOL    HW1 1401   6.685   0.163   0.464  0.0488  0.3207  0.3149
32027SOL    HW2 1402   6.658   0.043   0.551  0.2596  0.5964  0.7632
32028SOL     OW 1403  11.091  10.502   0.024  0.0072  0.2186  0.0759
32028SOL    HW1 1404  11.027  10.435   0.048 -0.8473  1.0531  0.1915
32028SOL    HW2 1405  11.116  10.481  -0.066 -0.4946 -0.0636 -0.0020
32029SOL     OW 1406   6.696   8.189   2.758  0.3445 -0.3096  0.3308
32029SOL    HW1 1407   6.666   8.259   2.699  1.0621  0.9585  1.4044
32029SOL    HW2 1408   6.729   8.121   2.700 -0.1277  0.3647 -0.7578
32030SOL     OW 1409   6.425   8.948   7.231 -0.3752  0.2831 -0.5202
32030SOL    HW1 1410   6.418   8.893   7.152 -1.2478  0.0966 -0.3294
32030SOL    HW2 1411   6.391   9.033   7.204 -2.5605 -0.2995  0.1078
32031SOL     OW 1412   3.112   8.982  10.675  0.1879 -1.1070 -0.3501
32031SOL    HW1 1413   3.018   8.983  10.657  0.4554 -0.5771 -1.8538
32031SOL    HW2 1414   3.139   9.074  10.666  0.3006 -0.5883  3.4454
32032SOL     OW 1415   4.194   4.346   7.626  0.2972  0.5214 -0.2952
32032SOL    HW1 1416   4.146   4.266   7.605 -0.5531  0.9654 -0.1066
32032SOL    HW2 1417   4.192   4.350   7.722  2.4125 -0.4506 -0.1458
32033SOL     OW 1418   2.728   8.819   8.360 -0.1387 -0.1608  0.2117
32033SOL    HW1 1419   2.777   8.769   8.295 -0.1149  1.3278 -0.9714
32033SOL    HW2 1420   2.792   8.837   8.429 -0.2184 -1.9272  0.7976
32034SOL     OW 1421   9.530   1.663   4.555  0.0280  0.0536  0.3356
32034SOL    HW1 1422   9.508   1.656   4.647  2.4516 -3.0373  0.8707
32034SOL    HW2 1423   9.476   1.597   4.512 -0.6442  1.0494 -0.3963
32035SOL     OW 1424   0.692   7.413   7.339  0.3979 -0.4836  0.2999
32035SOL    HW1 1425   0.605   7.438   7.372 -0.1253  0.9022 -1.9285
32035SOL    HW2 1426   0.674   7.344   7.275  0.9039 -0.0568 -0.3122
32036SOL     OW 1427   4.946   4.874   6.151  0.0051  0.2031  0.1334
32036SOL    HW1 1428   4.992   4.957   6.144 -0.0202  0.3494  1.4590
32036SOL    HW2 1429   4.988   4.818   6.086  0.4832  1.0413 -0.2955
32037SOL     OW 1430   3.981   0.682  10.714  0.5469  0.4501 -0.1505
32037SOL    HW1 1431   3.938   0.664  10.630 -0.9680 -0.7157  0.8259
32037SOL    HW2 1432   3.911   0.676  10.779  2.0761 -1.0261  1.4797
32038SOL     OW 1433   3.856   2.829   1.083 -0.1798 -0.4509  0.2466
32038SOL    HW1 1434   3.912   2.882   1.027 -1.1638  1.0526  0.6253
32038SOL    HW2 1435   3.847   2.746   1.036  0.6667  0.0287 -0.8063
32039SOL     OW 1436   0.635   4.896   1.667 -0.3167  0.0533  0.5114
32039SOL    HW1 1437   0.614   4.813   1.710 -1.2468 -0.9060 -1.6360
32039SOL    HW2 1438   0.562   4.954   1.689 -0.4896 -0.2315  0.7006
32040SOL     OW 1439   1.053   5.531   4.000 -0.4987  0.2198  0.1646
32040SOL    HW1 1440   1.084   5.609   3.953  1.6814 -0.3522  0.5549
32040SOL    HW2 1441   1.037   5.562   4.089  0.0718  0.2871  0.2444
32041SOL     OW 1442   8.918   1.563  10.207 -0.3195 -0.1998  0.0100
32041SOL    HW1 1443   8.835   1.566  10.255 -0.0923 -0.2296  0.4117
32041SOL    HW2 1444   8.972   1.503  10.259  0.2123  0.4093  0.1639
32042SOL     OW 1445   7.420   4.016   9.530  0.3380  0.2335 -0.1009
32042SOL    HW1 1446   7.405   4.062   9.613 -0.0417  0.9656 -0.5587
32042SOL    HW2 1447   7.459   4.082   9.473 -0.3520  0.0383 -0.8203
32043SOL     OW 1448  11.053   4.108   9.175  0.3557  0.0338 -0.0521
32043SOL    HW1 1449  11.063   4.018   9.206 -2.6606  0.3017  2.0850
32043SOL    HW2 1450  10.959   4.124   9.178  0.8479  3.4823  0.3340
32044SOL     OW 1451   0.873   6.224  10.122  0.0400 -0.7497 -0.1962
32044SOL    HW1 1452   0.871   6.312  10.083  0.2633 -1.2264 -1.3415
32044SOL    HW2 1453   0.810   6.174  10.071  1.8248 -1.9309 -1.3797
32045SOL     OW 1454   0.540   3.202   3.066 -0.2869 -0.2044 -0.9219
32045SOL    HW1 1455   0.491   3.123   3.044 -0.4700 -0.3119 -0.1641
32045SOL    HW2 1456   0.575   3.233   2.982 -1.3688 -0.3070 -1.4206
32046SOL     OW 1457   8.079   8.190  10.785  0.4955 -0.2422  0.2214
32046SOL    HW1 1458   8.155   8.245  10.767  0.8238 -0.6535  0.3162
32046SOL    HW2 1459   8.010   8.225  10.729  0.8862 -0.1468 -0.2083
32047SOL     OW 1460   0.803   4.120   2.403  0.0811 -0.5304 -0.7133
32047SOL    HW1 1461   0.755   4.037   2.404 -1.2936  0.0767 -3.9481
32047SOL    HW2 1462   0.894   4.095   2.385  0.6096 -1.4851  2.5471
32048SOL     OW 1463   6.998  11.202   3.747 -0.2130 -0.8988  0.2811
32048SOL    HW1 1464   7.087  11.167   3.754  0.0458  0.0042  2.0292
32048SOL    HW2 1465   7.000  11.255   3.668  0.8218 -0.8767  0.3005
32049SOL     OW 1466   6.197  10.084   2.157  0.4796 -0.1753 -0.2889
32049SOL    HW1 1467   6.220  10.093   2.064  0.1201 -1.7068 -0.5527
32049SOL    HW2 1468   6.273  10.043   2.197 -0.0064 -1.0513 -0.2493
32050SOL     OW 1469   7.121  11.704   8.476  0.7016 -0.4467  0.3266
32050SOL    HW1 1470   7.197  11.695   8.419  0.5893 -1.9464  0.3935
32050SOL    HW2 1471   7.101  11.798   8.473  1.9471 -0.1802 -0.4580
32051SOL     OW 1472  10.197   0.590   8.487 -0.4441  0.0012  0.1653
32051SOL    HW1 1473  10.148   0.569   8.408 -1.4428  0.2007  0.7265
32051SOL    HW2 1474  10.158   0.536   8.556  1.9418 -1.9872  0.1093
32052SOL     OW 1475  11.376   5.964   1.217  0.1563  0.5136 -0.4339
32052SOL    HW1 1476  11.380   5.939   1.125  1.0531  2.0196 -0.8170
32052SOL    HW2 1477  11.445   5.913   1.259 -0.1011  0.0038 -0.6150
32053SOL     OW 1478   4.467   4.470   2.408  0.5276 -0.4262  0.5585
32053SOL    HW1 1479   4.448   4.513   2.325  1.5800  0.1302  0.5926
32053SOL    HW2 1480   4.561   4.455   2.407  0.2250 -2.7579  0.5495
32054SOL     OW 1481   2.775   8.549   3.825 -0.5023 -0.5247 -0.6600
32054SOL    HW1 1482   2.816   8.517   3.745  0.5290 -1.7057  0.2910
32054SOL    HW2 1483   2.829   8.513   3.896 -1.4790  0.3312  0.5788
32055SOL     OW 1484   0.802   2.477   6.806  0.0212  0.0557 -0.3471
32055SOL    HW1 1485   0.800   2.571   6.790 -1.3660 -0.1756 -1.6964
32055SOL    HW2 1486   0.869   2.466   6.874 -1.2463  2.2287  1.3951
32056SOL     OW 1487   5.291   9.644   0.421 -0.3183  0.2109  0.3527
32056SOL    HW1 1488   5.322   9.576   0.482  0.2722  1.0175  0.9777
32056SOL    HW2 1489   5.333   9.724   0.452  1.5922  0.3601 -2.2315
32057SOL     OW 1490   3.071   5.749   5.673  0.3605 -0.2893 -0.2521
32057SOL    HW1 1491   3.075   5.654   5.674  0.0722 -0.3046 -0.4528
32057SOL    HW2 1492   3.152   5.777   5.716 -0.3326 -0.6350  1.3353
32058SOL     OW 1493   9.486   2.954  11.159  0.8950  0.2803  0.1839
32058SOL    HW1 1494   9.537   2.900  11.219  0.5502 -1.4329 -0.9974
32058SOL    HW2 1495   9.498   2.912  11.074 -1.3425  0.6513 -0.3662
32059SOL     OW 1496   9.617   2.174   8.284  0.5592 -0.6429 -0.3239
32059SOL    HW1 1497   9.668   2.124   8.346  0.8136 -2.1007 -1.6487
32059SOL    HW2 1498   9.609   2.117   8.207  0.7001  1.2598 -1.8393
32060SOL     OW 1499   6.058   7.973   4.307 -0.2812  0.2534 -0.3689
32060SOL    HW1 1500   6.110   8.046   4.341  0.1749 -1.2692  2.3986
32060SOL    HW2 1501   5.967   8.001   4.319 -0.1272  1.0492 -0.9597
32061SOL     OW 1502   2.309   4.427   6.034  0.1756 -0.6220 -0.7282
32061SOL    HW1 1503   2.381   4.482   6.002  0.6966 -1.0953 -0.3923
32061SOL    HW2 1504   2.350   4.342   6.051 -0.7424 -1.3016 -1.8080
32062SOL     OW 1505   5.802   3.844   3.958  0.1384  0.1367  0.4207
32062SOL    HW1 1506   5.843   3.766   3.997 -1.0705  0.9641  3.6017
32062SOL    HW2 1507   5.876   3.897   3.929  1.0800 -0.9622  0.7227
32063SOL     OW 1508  11.658   0.501   9.142  0.1471 -0.3673 -0.0556
32063SOL    HW1 1509  11.576   0.528   9.185  0.8622 -1.0851  1.8770
32063SOL    HW2 1510  11.726   0.522   9.206  1.8531  2.5886 -2.6026
32064SOL     OW 1511   8.387   0.625   0.871 -0.0260  0.3941 -0.1229
32064SOL    HW1 1512   8.404   0.546   0.819 -1.1614  1.7260 -2.7163
32064SOL    HW2 1513   8.437   0.612   0.951 -0.8735 -3.3622  0.0082
32065SOL     OW 1514   6.351  10.880  10.106  0.7021 -0.0002 -0.3387
32065SOL    HW1 1515   6.294  10.901  10.032  0.6689 -1.2494 -0.6811
32065SOL    HW2 1516   6.318  10.935  10.178  0.1534  0.5380 -0.9901
32066SOL     OW 1517   5.744   9.700   7.817 -0.2145 -0.1748 -0.2122
32066SOL    HW1 1518   5.795   9.730   7.892 -0.4899  1.5169 -0.6670
32066SOL    HW2 1519   5.670   9.653   7.855 -1.1336  1.8662  0.6898
32067SOL     OW 1520  10.388   1.615   7.872 -0.4710  0.1924  0.0196
32067SOL    HW1 1521  10.430   1.700   7.860  0.4839 -0.1592  0.7932
32067SOL    HW2 1522  10.365   1.587   7.783  2.5452 -0.3971 -0.6884
32068SOL     OW 1523   1.834   8.166   1.337  0.3586 -0.1904  0.8588
32068SOL    HW1 1524   1.863   8.129   1.421 -0.5638 -0.8011  0.9323
32068SOL    HW2 1525   1.739   8.172   1.347  0.1319 -1.1439 -0.4824
32069SOL     OW 1526   3.667   6.128   9.250 -0.1885  1.2311  0.0766
32069SOL    HW1 1527   3.719   6.072   9.308 -1.4370 -1.9882 -1.7263
32069SOL    HW2 1528   3.728   6.198   9.224  1.3767  0.9063  2.5711
32070SOL     OW 1529   7.970   0.619   6.578  0.7946 -0.0214 -0.1016
32070SOL    HW1 1530   7.929   0.550   6.526 -0.9397  0.9588 -0.1170
32070SOL    HW2 1531   7.911   0.632   6.652  2.1105  0.1099  0.9760
32071SOL     OW 1532   8.317   2.713   2.871  0.0993 -0.3769 -0.8938
32071SOL    HW1 1533   8.293   2.792   2.920 -1.6925 -2.0124  1.0333
32071SOL    HW2 1534   8.404   2.690   2.903 -0.2911 -0.3899  0.2048
32072SOL     OW 1535   9.635   7.244   7.239 -0.2950  0.5522 -0.1567
32072SOL    HW1 1536   9.694   7.234   7.164  0.2615 -0.3052  0.3783
32072SOL    HW2 1537   9.597   7.157   7.251 -1.0856  0.9069 -0.0031
32073SOL     OW 1538   5.407   4.399   5.719  0.4250  0.0190 -0.1726
32073SOL    HW1 1539   5.339   4.378   5.783 -0.0583  3.0904  0.4968
32073SOL    HW2 1540   5.481   4.344   5.744 -0.2068  0.1372  2.2258
32074SOL     OW 1541   2.359   7.282  10.542 -0.0149  0.0381 -0.0149
32074SOL    HW1 1542   2.448   7.272  10.507  0.2607 -0.4641  0.7918
32074SOL    HW2 1543   2.302   7.251  10.472  0.4722 -0.0171 -0.3934
32075SOL     OW 1544   4.778   5.064   3.735  0.0310 -0.1260 -0.2876
32075SOL    HW1 1545   4.737   5.144   3.702  0.0712  0.3214  0.6913
32075SOL    HW2 1546   4.732   4.993   3.691 -1.8070  0.3614  0.7453
32076SOL     OW 1547   9.371   9.764   4.880  0.2434  0.2193  0.0323
32076SOL    HW1 1548   9.305   9.813   4.830 -0.4660 -1.1472 -0.4250
32076SOL    HW2 1549   9.323   9.730   4.956  0.7227  0.1999  0.3329
32077SOL     OW 1550   6.439   2.098   7.094  0.3502 -0.4486 -0.6519
32077SOL    HW1 1551   6.399   2.062   7.014  0.2786  0.0170 -0.8268
32077SOL    HW2 1552   6.413   2.036   7.163 -0.1100 -0.5189 -0.8809
32078SOL     OW 1553   8.305  10.750   7.677  0.1036  0.0428  0.5803
32078SOL    HW1 1554   8.351  10.667   7.665  0.1926  0.1221  0.3781
32078SOL    HW2 1555   8.215  10.724   7.697  0.0581 -0.0958  0.1976
32079SOL     OW 1556  10.486   7.946  10.276  0.0991 -0.0583  0.6157
32079SOL    HW1 1557  10.443   7.868  10.241  0.5544 -0.0294 -0.0353
32079SOL    HW2 1558  10.490   8.006  10.202 -0.4147  0.6620  1.1606
32080SOL     OW 1559   7.183   2.243   7.198 -0.0975 -0.2655  0.4216
32080SOL    HW1 1560   7.269   2.284   7.205  0.0367 -0.5642  0.5597
32080SOL    HW2 1561   7.177   2.214   7.107 -0.5602  0.8477  0.0827
32081SOL     OW 1562   0.537   6.897   8.111 -0.6418 -0.0406  0.4197
32081SOL    HW1 1563   0.597   6.970   8.094 -0.4072 -0.4181 -0.4010
32081SOL    HW2 1564   0.589   6.833   8.159 -0.4369 -0.2748 -0.1044
32082SOL     OW 1565   2.092   9.890  11.507  0.4352 -0.1319  0.1590
32082SOL    HW1 1566   2.138   9.806  11.503 -3.0884 -2.2650  0.2363
32082SOL    HW2 1567   2.065   9.899  11.598 -0.3587  0.3855 -0.1114
32083SOL     OW 1568   4.540  10.433   5.770 -0.1724 -0.0692  0.3230
32083SOL    HW1 1569   4.474  10.470   5.828  0.3280 -0.4009  1.1145
32083SOL    HW2 1570   4.602  10.389   5.828  0.6253  0.0444 -0.4195
32084SOL     OW 1571   8.497   3.046   8.191  0.1400  0.5660 -0.0640
32084SOL    HW1 1572   8.585   3.055   8.227  1.1782 -1.7611 -1.7771
32084SOL    HW2 1573   8.452   2.990   8.255  0.4086  0.4799  0.0542
32085SOL     OW 1574   8.992   2.597   2.545  0.1971 -0.0175  0.7703
32085SOL    HW1 1575   8.968   2.670   2.488  2.0570  0.1440  0.1434
32085SOL    HW2 1576   8.950   2.521   2.504 -0.1780  0.4015  0.3535
32086SOL     OW 1577   0.396  11.553   3.255 -0.5064  0.4404  0.1775
32086SOL    HW1 1578   0.305  11.521   3.258  0.1305 -1.5237 -0.1176
32086SOL    HW2 1579   0.410  11.591   3.341 -1.1112 -0.7665  0.8418
32087SOL     OW 1580   5.453   9.125   3.918  0.5381 -0.3185 -0.1593
32087SOL    HW1 1581   5.411   9.048   3.879  2.6534 -0.9241 -1.4014
32087SOL    HW2 1582   5.398   9.199   3.890  0.2332 -1.0636 -1.6631
32088SOL     OW 1583   6.485   3.766  10.239 -0.6876 -0.1089  0.0322
32088SOL    HW1 1584   6.537   3.707  10.183  1.0246  1.8449 -0.5910
32088SOL    HW2 1585   6.463   3.713  10.315  0.1077 -1.7744 -0.8236
32089SOL     OW 1586   0.486   1.075   8.152 -0.5789  0.0359 -0.2610
32089SOL    HW1 1587   0.393   1.072   8.131 -0.7197 -2.0126  0.4220
32089SOL    HW2 1588   0.489   1.087   8.247 -0.0693  1.9672 -0.4740
32090SOL     OW 1589   1.126   2.543   4.351  0.2490 -0.4324  0.3438
32090SOL    HW1 1590   1.209   2.553   4.396  0.4247 -1.5920  0.2971
32090SOL    HW2 1591   1.060   2.572   4.414  0.7692  2.4069 -0.2967
32091SOL     OW 1592   5.865   5.996   2.677  0.8644  0.1527  0.1318
32091SOL    HW1 1593   5.877   6.085   2.708 -0.0796 -0.3010  1.8776
32091SOL    HW2 1594   5.950   5.954   2.691  1.0163  0.4958  0.2374
32092SOL     OW 1595   3.863  11.525   0.325 -0.2070 -0.0318  0.0537
32092SOL    HW1 1596   3.782  11.480   0.345 -0.0171 -0.3632  0.0757
32092SOL    HW2 1597   3.835  11.612   0.295 -0.5368  0.0719  0.6549
32093SOL     OW 1598   2.468   0.274   0.757  0.4850 -0.4311  0.2468
32093SOL    HW1 1599   2.441   0.201   0.812  0.4443 -1.8184 -1.5156
32093SOL    HW2 1600   2.409   0.345   0.780  0.5587 -0.9215  2.0410
32094SOL     OW 1601   6.906   3.450   6.490  0.3507 -0.2440  0.6867
32094SOL    HW1 1602   6.938   3.364   6.518  1.5192  0.0649  0.3328
32094SOL    HW2 1603   6.942   3.510   6.555 -0.8679 -0.0653  1.2127
32095SOL     OW 1604   5.784   1.327   6.278  0.3216 -0.3430  0.1893
32095SOL    HW1 1605   5.749   1.416   6.292  0.7674 -0.0695 -0.4127
32095SOL    HW2 1606   5.859   1.340   6.220  0.6331 -1.0753  0.4277
32096SOL     OW 1607   8.550   1.518  10.410  0.5708  0.1924 -0.5053
32096SOL    HW1 1608   8.477   1.514  10.471  1.4318 -0.7024  0.5204
32096SOL    HW2 1609   8.528   1.589  10.351 -0.7169  0.5061  0.3046
32097SOL     OW 1610   6.324   4.843   7.472  0.3594 -0.1500  0.3310
32097SOL    HW1 1611   6.276   4.789   7.535  1.1790 -0.9253  0.3095
32097SOL    HW2 1612   6.323   4.931   7.509 -1.1285 -0.1281  0.2989
32098SOL     OW 1613   7.787  10.754   8.938  0.3289  0.2938 -0.2148
32098SOL    HW1 1614   7.785  10.747   8.843  0.4666 -0.2292 -0.1822
32098SOL    HW2 1615   7.792  10.848   8.956 -0.1991  0.4184 -0.7132
32099SOL     OW 1616   9.088  10.817   1.347  0.3025  0.4133  0.2294
32099SOL    HW1 1617   9.051  10.729   1.356  0.7722  0.0688 -0.9115
32099SOL    HW2 1618   9.183  10.802   1.337  0.2681  0.9229 -1.1757
32100SOL     OW 1619   8.870   5.568   3.611 -0.2284 -0.0081 -0.0405
32100SOL    HW1 1620   8.922   5.640   3.647 -1.9554  0.8107  0.9605
32100SOL    HW2 1621   8.795   5.562   3.670 -0.5487 -2.0935 -0.6068
32101SOL     OW 1622   9.559   0.702   2.842 -0.5778  0.4773 -0.5482
32101SOL    HW1 1623   9.646   0.668   2.866 -0.6659  0.9868  0.5419
32101SOL    HW2 1624   9.555   0.788   2.882 -1.8090  0.2251 -0.0926
32102SOL     OW 1625   1.629   2.379   7.576  0.4573  0.4990  0.1687
32102SOL    HW1 1626   1.685   2.421   7.510 -0.8988  1.0223 -0.6904
32102SOL    HW2 1627   1.548   2.429   7.573  0.4206  0.6600  2.4002
32103SOL     OW 1628   7.964   3.818   6.401 -0.3472 -0.3492 -0.2665
32103SOL    HW1 1629   7.911   3.853   6.330 -0.7589  1.7785  1.0060
32103SOL    HW2 1630   8.006   3.740   6.364 -3.3741 -1.4334 -1.6966
32104SOL     OW 1631  11.658   4.154   9.599  0.1054 -0.1629 -0.1230
32104SOL    HW1 1632  11.568   4.143   9.569 -0.5486  2.7310  0.4618
32104SOL    HW2 1633  11.687   4.066   9.621 -2.4118 -1.2349 -0.7562
32105SOL     OW 1634   3.225   3.288   5.474  0.5227 -0.4653 -0.3424
32105SOL    HW1 1635   3.179   3.234   5.538 -1.2719  1.0384 -0.2773
32105SOL    HW2 1636   3.297   3.327   5.523 -1.7108  1.8979  1.3598
32106SOL     OW 1637  11.258   1.869   5.944 -0.4852  0.8848 -0.3211
32106SOL    HW1 1638  11.312   1.933   5.898  0.5196 -0.3758 -0.9757
32106SOL    HW2 1639  11.321   1.804   5.977 -1.5961 -1.0436 -1.7636
32107SOL     OW 1640   7.688   1.854   1.382 -0.2597  0.3329 -0.0764
32107SOL    HW1 1641   7.661   1.925   1.440 -0.3860  0.5815 -0.4360
32107SOL    HW2 1642   7.783   1.857   1.383 -0.2399 -0.1043  0.6541
32108SOL     OW 1643   3.834   3.249   5.843 -0.0610  0.0411 -0.5408
32108SOL    HW1 1644   3.910   3.240   5.786 -0.8904 -1.0547 -1.5201
32108SOL    HW2 1645   3.857   3.201   5.922  0.5168  0.2713 -0.5685
32109SOL     OW 1646  11.377  10.025   5.613 -0.5938 -0.2874 -0.3579
32109SOL    HW1 1647  11.382  10.051   5.704  2.3105 -0.3722 -0.4034
32109SOL    HW2 1648  11.284  10.007   5.598 -0.8814 -3.0314  3.3318
32110SOL     OW 1649   6.484   0.429   8.230 -0.1379 -0.2452 -0.1422
32110SOL    HW1 1650   6.476   0.512   8.182 -3.3817  1.2390  2.4851
32110SOL    HW2 1651   6.405   0.380   8.206 -0.5246 -0.5584  1.5766
32111SOL     OW 1652   0.275   1.556   6.044 -0.1599  0.2103  0.0880
32111SOL    HW1 1653   0.238   1.473   6.071 -0.9429  0.4533 -0.1954
32111SOL    HW2 1654   0.214   1.589   5.978  0.3453  0.8261 -0.0874
32112SOL     OW 1655   2.096   8.432   2.049 -0.5463 -0.0980 -0.0631
32112SOL    HW1 1656   2.084   8.527   2.053  3.0443  0.5135 -0.2234
32112SOL    HW2 1657   2.091   8.403   2.140  1.7056  0.8679  0.4293
32113SOL     OW 1658  11.251   7.128   2.585 -0.2367 -0.4781  0.1839
32113SOL    HW1 1659  11.308   7.128   2.662  0.2925  1.2618 -0.1663
32113SOL    HW2 1660  11.299   7.077   2.520  0.8350  0.7696 -0.0281
32114SOL     OW 1661  10.625   1.716   9.807 -0.1443  0.1293  0.2235
32114SOL    HW1 1662  10.642   1.622   9.807 -0.9146 -0.1535  3.6830
32114SOL    HW2 1663  10.711   1.757   9.806  0.1960 -0.4832 -2.2071
32115SOL     OW 1664  11.618   3.802   8.274 -0.3989 -0.3802  0.0141
32115SOL    HW1 1665  11.532   3.763   8.290  0.6564 -3.1421 -0.4656
32115SOL    HW2 1666  11.636   3.780   8.182  0.7576  0.3145  0.0668
32116SOL     OW 1667   6.721   2.498   0.378 -0.5601  0.1729 -0.7216
32116SOL    HW1 1668   6.739   2.459   0.464 -0.0996 -0.1113 -0.9433
32116SOL    HW2 1669   6.632   2.531   0.385 -0.1716  1.0994  0.2317
32117SOL     OW 1670   8.185   8.803   9.849  0.7658  0.0417  0.3615
32117SOL    HW1 1671   8.259   8.863   9.853 -0.6590  1.8165  2.1983
32117SOL    HW2 1672   8.121   8.848   9.793  0.0585 -0.2291  0.9391
32118SOL     OW 1673   6.594   0.744  10.109  0.2726 -0.1340 -0.2581
32118SOL    HW1 1674   6.605   0.758  10.203  1.5395 -3.3306  0.2095
32118SOL    HW2 1675   6.510   0.699  10.101  0.6019 -0.7151 -0.5122
32119SOL     OW 1676   9.991   4.997   0.922  0.7329  0.7797  0.3327
32119SOL    HW1 1677  10.008   4.938   0.996 -1.5565  0.8138  0.9643
32119SOL    HW2 1678  10.074   5.001   0.875  1.6778 -0.8859  1.7360
32120SOL     OW 1679  10.417   0.437   3.290 -0.2875 -0.0128  0.2707
32120SOL    HW1 1680  10.497   0.417   3.242  0.8857  2.5667  0.9929
32120SOL    HW2 1681  10.383   0.516   3.249 -2.2375 -0.7480  0.3268
32121SOL     OW 1682   0.090   8.569   3.008  0.0538  0.3863  0.1508
32121SOL    HW1 1683   0.147   8.507   3.054 -0.3650  0.4678  0.7913
32121SOL    HW2 1684   0.055   8.625   3.077 -0.1530  0.8610 -0.3383
32122SOL     OW 1685   4.535   0.973   6.539  0.1289  0.0477  0.2487
32122SOL    HW1 1686   4.588   0.981   6.618 -1.1263 -0.9091  1.2366
32122SOL    HW2 1687   4.491   1.058   6.531 -0.1593 -0.0338  0.9045
32123SOL     OW 1688   6.591   9.491   9.474 -0.1852 -0.6301  0.5318
32123SOL    HW1 1689   6.683   9.492   9.499  0.2769  0.2555 -1.0583
32123SOL    HW2 1690   6.554   9.569   9.515  0.3153  0.2259 -0.5902
32124SOL     OW 1691   0.672  10.647   5.633 -0.1146 -0.9675 -0.0341
32124SOL    HW1 1692   0.604  10.665   5.569 -0.4454 -3.3653 -0.4303
32124SOL    HW2 1693   0.737  10.595   5.586  1.5069  0.3691  0.6239
32125SOL     OW 1694   1.963   1.182   8.484  0.2826  0.1209 -0.2253
32125SOL    HW1 1695   1.958   1.089   8.462 -2.3475 -0.3722  1.9411
32125SOL    HW2 1696   2.017   1.185   8.563 -0.4354  0.2734  0.2713
32126SOL     OW 1697   4.142   3.918   5.900 -0.0602 -0.6078 -0.2110
32126SOL    HW1 1698   4.163   3.978   5.829  1.0913 -1.1063 -0.3217
32126SOL    HW2 1699   4.126   3.834   5.858 -0.2922 -0.6942  0.0448
32127SOL     OW 1700  10.268   3.983   2.319  0.4890  0.5897 -0.8440
32127SOL    HW1 1701  10.264   3.997   2.414  0.0479  0.5589 -0.8561
32127SOL    HW2 1702  10.177   3.987   2.291  0.3821 -1.5539 -0.9663
32128SOL     OW 1703   5.581   7.811   8.953  0.0918  0.1627  0.3083
32128SOL    HW1 1704   5.667   7.846   8.928  0.1892 -0.9341 -1.0361
32128SOL    HW2 1705   5.571   7.733   8.899 -2.6769  1.4148 -1.1939
32129SOL     OW 1706   5.666   3.921   6.855  0.5007 -0.1979 -0.0488
32129SOL    HW1 1707   5.743   3.978   6.846  1.0670 -0.5607  2.1197
32129SOL    HW2 1708   5.667   3.892   6.946 -1.7650 -0.8830 -0.1771
32130SOL     OW 1709   9.370   2.180   0.267  0.2677 -0.2344 -0.1985
32130SOL    HW1 1710   9.398   2.092   0.240 -0.1024 -0.7175  0.9080
32130SOL    HW2 1711   9.399   2.237   0.197  0.4192 -1.2634 -1.0046
32131SOL     OW 1712   1.718   5.723   4.508 -0.0988  0.1258 -0.0354
32131SOL    HW1 1713   1.657   5.650   4.513 -0.0441  0.1062  0.3752
32131SOL    HW2 1714   1.727   5.754   4.599  1.4345 -0.6417  0.1151
32132SOL     OW 1715   6.145   3.336   2.990 -0.4852  0.8510 -0.3383
32132SOL    HW1 1716   6.050   3.324   2.985 -0.4819  1.1618 -1.2599
32132SOL    HW2 1717   6.174   3.271   3.054 -1.4003  1.2164  0.4628
32133SOL     OW 1718  10.414   7.972   2.289  0.2961  0.3062  0.2334
32133SOL    HW1 1719  10.390   7.889   2.330  1.1991  0.5355  1.2783
32133SOL    HW2 1720  10.457   7.947   2.207 -1.8155 -0.1491 -0.7925
32134SOL     OW 1721   2.813   7.944   1.863  0.5229  0.5347 -0.3779
32134SOL    HW1 1722   2.756   7.894   1.922 -0.0318 -1.4517 -2.4568
32134SOL    HW2 1723   2.901   7.910   1.880  0.5830  0.9584  0.2170
32135SOL     OW 1724   5.458   3.366   2.710  0.0744  0.7374  0.0536
32135SOL    HW1 1725   5.517   3.330   2.644  0.7175 -0.7085  1.3482
32135SOL    HW2 1726   5.471   3.460   2.705  2.0997  0.5029 -0.0970
32136SOL     OW 1727   0.493   0.408   1.105  0.7423  0.5794  0.4768
32136SOL    HW1 1728   0.572   0.456   1.080 -0.5600  2.7324  0.3045
32136SOL    HW2 1729   0.511   0.318   1.077  2.5133  1.3146 -0.9856
32137SOL     OW 1730   7.331   9.310   4.116  0.2063  0.0381 -0.0901
32137SOL    HW1 1731   7.338   9.215   4.117  0.0446 -0.1301  4.0963
32137SOL    HW2 1732   7.419   9.341   4.095  1.3992 -1.2342  2.5197
32138SOL     OW 1733   7.569   3.766   3.266 -0.2548  0.1030 -0.4283
32138SOL    HW1 1734   7.532   3.850   3.239  1.5840  2.0253  2.4210
32138SOL    HW2 1735   7.513   3.737   3.338  0.4509  0.1320  0.1484
32139SOL     OW 1736  11.266   9.114   0.788  0.6024 -0.5203  0.0778
32139SOL    HW1 1737  11.342   9.057   0.797  0.9873 -0.0816 -0.3388
32139SOL    HW2 1738  11.303   9.201   0.773  0.0201 -0.2948 -0.0700
32140SOL     OW 1739   0.225   5.237   5.294  0.2003  0.3698  0.7769
32140SOL    HW1 1740   0.309   5.219   5.337 -0.8055 -1.0589  2.2957
32140SOL    HW2 1741   0.193   5.317   5.336  0.2399  0.2133  1.1081
32141SOL     OW 1742   1.659   7.803   4.619 -0.4537  0.3601  0.4157
32141SOL    HW1 1743   1.714   7.861   4.566  0.5330  0.3855  1.4246
32141SOL    HW2 1744   1.663   7.839   4.707 -0.0859 -1.0329  1.0072
32142SOL     OW 1745   7.062   8.313   3.546 -0.2959 -0.2922 -0.0560
32142SOL    HW1 1746   7.138   8.360   3.512  0.6846 -0.3371  1.8933
32142SOL    HW2 1747   7.100   8.240   3.595 -1.5999 -0.3839  0.8677
32143SOL     OW 1748  10.668   0.331   3.184 -0.0292  0.5089  0.6644
32143SOL    HW1 1749  10.640   0.254   3.136 -0.1275  0.4799  0.7657
32143SOL    HW2 1750  10.674   0.400   3.118 -2.7399  1.1519  0.9789
32144SOL     OW 1751   1.184  10.456  10.745  0.6835  0.7150 -0.3207
32144SOL    HW1 1752   1.268  10.416  10.767 -0.3935 -0.9096  1.1543
32144SOL    HW2 1753   1.170  10.435  10.653  0.7102 -1.4230  0.1032
32145SOL     OW 1754   5.456   3.155   5.151 -0.1063  0.0645 -0.7753
32145SOL    HW1 1755   5.448   3.113   5.237 -0.2655  0.5430 -0.5486
32145SOL    HW2 1756   5.457   3.083   5.089  2.6624 -0.4876 -0.2316
32146SOL     OW 1757   6.160   6.962   4.029 -0.2139  0.1196  0.8319
32146SOL    HW1 1758   6.210   6.902   4.085  0.9628  2.2501  2.1707
32146SOL    HW2 1759   6.089   6.993   4.085 -1.8168 -1.1510 -0.3664
32147SOL     OW 1760   5.738   0.486   8.876 -0.3677 -0.4069 -0.0526
32147SOL    HW1 1761   5.688   0.567   8.863 -2.6865 -1.7709 -0.2672
32147SOL    HW2 1762   5.688   0.419   8.828  1.8654 -1.8693 -0.5100
32148SOL     OW 1763   3.146   2.331  10.922  0.3827 -0.0672 -0.6484
32148SOL    HW1 1764   3.182   2.264  10.865  0.4921  0.1468 -0.8288
32148SOL    HW2 1765   3.137   2.408  10.867  2.4877  0.8009  0.1078
32149SOL     OW 1766   3.803   1.870   7.000  0.2863 -0.0693  0.2788
32149SOL    HW1 1767   3.887   1.863   7.046 -0.3760  0.4642  1.6284
32149SOL    HW2 1768   3.824   1.849   6.909  2.1660  1.4628  0.2876
32150SOL     OW 1769   7.863   9.733   7.001  0.1124  0.7436  0.0457
32150SOL    HW1 1770   7.876   9.707   7.092 -0.6613  0.4603  0.0781
32150SOL    HW2 1771   7.890   9.825   6.999 -1.0366  1.1161  0.8453
32151SOL     OW 1772  10.390   9.576   6.560 -0.3803 -0.0803  0.1377
32151SOL    HW1 1773  10.438   9.495   6.578 -2.0996 -1.3359 -0.6418
32151SOL    HW2 1774  10.315   9.572   6.618 -0.5185  0.9501  0.0461
32152SOL     OW 1775   9.728  10.223   5.161 -0.0817 -0.1994 -0.2395
32152SOL    HW1 1776   9.721  10.272   5.079  2.5388 -1.0754 -1.0901
32152SOL    HW2 1777   9.781  10.147   5.139  1.6159  0.0715  2.4760
32153SOL     OW 1778   2.132   1.014   1.316  0.1390 -0.1218  0.2001
32153SOL    HW1 1779   2.058   0.967   1.355  1.2500 -0.5242  1.9304
32153SOL    HW2 1780   2.107   1.106   1.323 -0.5712 -0.2834 -0.0475
32154SOL     OW 1781   4.750   7.699   0.505 -0.1320 -0.5559 -0.5460
32154SOL    HW1 1782   4.773   7.668   0.418  0.7427 -0.7388 -0.2560
32154SOL    HW2 1783   4.777   7.629   0.564 -0.2520 -0.2161 -0.0784
32155SOL     OW 1784   4.624   5.915   6.928  0.0196 -0.4166 -0.2508
32155SOL    HW1 1785   4.572   5.914   7.008 -1.3999  1.6985 -1.0805
32155SOL    HW2 1786   4.657   5.825   6.920 -1.1377 -1.0794  1.8240
32156SOL     OW 1787  11.315   1.128   3.251 -0.3384 -0.1282 -0.4310
32156SOL    HW1 1788  11.230   1.168   3.266  0.6587  2.0646 -0.3294
32156SOL    HW2 1789  11.315   1.050   3.307 -1.9244  0.2925  0.2057
32157SOL     OW 1790   2.261  10.904   4.971  0.3980 -0.6315  0.2548
32157SOL    HW1 1791   2.333  10.965   4.986 -0.8807  1.0766 -0.2200
32157SOL    HW2 1792   2.184  10.959   4.962 -1.0185 -2.4051  0.8603
32158SOL     OW 1793   8.008  10.569   1.000 -0.0407  0.5228  0.1508
32158SOL    HW1 1794   7.923  10.566   1.043 -0.2667  2.1783 -0.1192
32158SOL    HW2 1795   7.988  10.552   0.908 -0.0852  0.9407  0.0829
32159SOL     OW 1796  11.675   3.436   8.058  0.1430 -0.3381  0.2586
32159SOL    HW1 1797  11.662   3.519   8.011 -1.6780 -0.6204  0.1878
32159SOL    HW2 1798  11.605   3.379   8.025 -0.1078 -1.1223  2.0396
32160SOL     OW 1799   1.882   6.361  10.548  0.0957  0.0748  0.6864
32160SOL    HW1 1800   1.828   6.338  10.472  2.0235  1.1438 -1.1093
32160SOL    HW2 1801   1.910   6.451  10.532  1.5280 -0.0680  2.0908
32161SOL     OW 1802   1.202   5.552   8.916 -0.0291 -0.4704  0.0842
32161SOL    HW1 1803   1.182   5.615   8.986  0.5559 -0.8431  0.5934
32161SOL    HW2 1804   1.117   5.515   8.893 -0.2724 -0.0951  0.3579
32162SOL     OW 1805   6.469   3.463  11.662 -0.6900 -0.3219 -0.1482
32162SOL    HW1 1806   6.501   3.509  11.585 -0.1133  0.1193  0.3385
32162SOL    HW2 1807   6.427   3.531  11.715  0.1400 -0.3387  0.5648
32163SOL     OW 1808   1.757  10.479   9.650  0.6896 -0.5114 -0.0856
32163SOL    HW1 1809   1.843  10.484   9.607 -0.1963  1.8556 -1.8205
32163SOL    HW2 1810   1.752  10.559   9.703 -0.2561 -0.8499  0.3483
32164SOL     OW 1811   0.512   2.168   2.049 -0.0383 -0.1861 -0.6794
32164SOL    HW1 1812   0.566   2.104   2.003  1.9575  1.2873 -0.5276
32164SOL    HW2 1813   0.544   2.167   2.139 -0.1839  0.7942 -0.6058
32165SOL     OW 1814   7.449   3.312   0.408 -0.6775 -0.8700 -0.7628
32165SOL    HW1 1815   7.469   3.292   0.499  1.4215 -0.7044 -1.1452
32165SOL    HW2 1816   7.381   3.379   0.413  0.8333  0.6529  0.7648
32166SOL     OW 1817   0.472   0.818   7.766  0.3877  0.4351  0.5119
32166SOL    HW1 1818   0.433   0.774   7.842  0.1941  0.4645  0.4291
32166SOL    HW2 1819   0.400   0.867   7.727 -0.1134 -1.3972 -1.0539
32167SOL     OW 1820   3.465   0.009   8.314  0.2525  0.1670  0.5609
32167SOL    HW1 1821   3.465   0.039   8.405  1.4828  3.3836 -0.3648
32167SOL    HW2 1822   3.553  -0.026   8.300  0.3830  0.5772  0.3513
32168SOL     OW 1823   6.170   5.273  11.722  0.5140 -0.0847  0.2425
32168SOL    HW1 1824   6.226   5.234  11.789 -0.1899  1.1350  1.6202
32168SOL    HW2 1825   6.215   5.355  11.699 -0.7503  1.0281  1.5435
32169SOL     OW 1826   8.101   8.850   7.227  0.5550 -0.1960  0.0958
32169SOL    HW1 1827   8.186   8.808   7.212  0.4141  0.0833 -1.7862
32169SOL    HW2 1828   8.122   8.942   7.242  0.6024 -0.1486 -0.2492
32170SOL     OW 1829   7.633   5.186   5.995  0.7918 -0.0206  0.0585
32170SOL    HW1 1830   7.553   5.175   6.047  0.8100  0.1510  0.1251
32170SOL    HW2 1831   7.604   5.179   5.905  1.1257 -2.7968  0.1067
32171SOL     OW 1832   8.243   4.750   7.866 -0.0119 -0.2191  0.2403
32171SOL    HW1 1833   8.250   4.775   7.774  2.1381 -0.2524  0.3422
32171SOL    HW2 1834   8.155   4.713   7.874 -0.3170 -0.0377 -1.7500
32172SOL     OW 1835  11.148  10.497   0.395 -0.1803 -0.0785 -0.1728
32172SOL    HW1 1836  11.083  10.540   0.450 -1.2685 -2.3378  0.4382
32172SOL    HW2 1837  11.191  10.434   0.453 -1.2085 -2.3786 -1.7227
32173SOL     OW 1838   4.818   6.216   0.317 -0.3821 -0.2138  0.0408
32173SOL    HW1 1839   4.732   6.242   0.285  0.1883  1.8088 -0.0574
32173SOL    HW2 1840   4.850   6.152   0.254 -0.8749  0.7859 -1.2591
32174SOL     OW 1841   2.987  11.618   0.652  0.0589 -0.2286 -0.0388
32174SOL    HW1 1842   2.911  11.585   0.604  1.1107  1.6021 -3.2762
32174SOL    HW2 1843   2.953  11.689   0.707 -0.8039 -0.6002 -0.0849
32175SOL     OW 1844   8.476   2.361   3.409 -0.4427 -0.7482  0.2606
32175SOL    HW1 1845   8.398   2.307   3.394  0.2740 -1.4324 -1.2826
32175SOL    HW2 1846   8.547   2.298   3.421 -0.0617 -0.1307  1.4001
32176SOL     OW 1847   3.375   8.506   6.423  0.6226  0.2478  0.6551
32176SOL    HW1 1848   3.313   8.489   6.352 -0.9271 -0.5919  2.1326
32176SOL    HW2 1849   3.419   8.422   6.437  0.9216  0.4095  0.6875
32177SOL     OW 1850   1.573   8.467   8.172 -0.2640 -1.0341  0.3693
32177SOL    HW1 1851   1.511   8.398   8.195 -1.7757 -0.2685 -1.1358
32177SOL    HW2 1852   1.650   8.420   8.139 -0.5362 -1.9947  1.0672
32178SOL     OW 1853   2.780   9.556  11.443  0.2957 -0.0583  0.0165
32178SOL    HW1 1854   2.806   9.644  11.469  3.2615 -0.1092 -2.3031
32178SOL    HW2 1855   2.836   9.498  11.495 -0.5154 -0.5594  0.3603
32179SOL     OW 1856   3.280   1.627   6.921 -0.2077  0.2141  0.1534
32179SOL    HW1 1857   3.215   1.683   6.879 -0.5232  0.6510  1.2106
32179SOL    HW2 1858   3.323   1.683   6.985  0.7578 -0.2542 -0.0593
32180SOL     OW 1859   0.371   0.355   5.654  0.3390 -0.2082  0.4180
32180SOL    HW1 1860   0.305   0.321   5.594  1.1005 -0.7712 -0.1268
32180SOL    HW2 1861   0.449   0.303   5.635  0.7697  0.0291  1.4713
32181SOL     OW 1862   9.716   7.165   9.169  0.1616  0.4000 -0.3665
32181SOL    HW1 1863   9.718   7.160   9.073 -1.2886 -0.1422 -0.3860
32181SOL    HW2 1864   9.781   7.233   9.190  1.3223 -0.2458 -1.6503
32182SOL     OW 1865   8.550   2.916   6.034 -0.0568  0.2844 -0.0021
32182SOL    HW1 1866   8.552   2.971   6.113 -2.1103 -1.3579  1.3023
32182SOL    HW2 1867   8.609   2.959   5.973  0.7282  2.2593  2.0263
32183SOL     OW 1868   1.580  11.271   5.719 -0.2573 -0.1475  0.3488
32183SOL    HW1 1869   1.563  11.315   5.802  1.1052  2.4920 -0.6479
32183SOL    HW2 1870   1.540  11.327   5.653  1.3807 -0.4519 -0.9852
32184SOL     OW 1871   8.163   7.554   8.413 -0.3654  0.4416  0.2681
32184SOL    HW1 1872   8.158   7.647   8.391 -0.5699  0.7943  1.7432
32184SOL    HW2 1873   8.103   7.512   8.351  0.7809  1.0796 -1.3635
32185SOL     OW 1874   8.774   3.390  11.441 -0.1387  0.3229 -0.0502
32185SOL    HW1 1875   8.779   3.296  11.422  3.2648  0.1612  0.9291
32185SOL    HW2 1876   8.773   3.432  11.355  2.8195 -0.6024 -0.6291
32186SOL     OW 1877   7.986   6.389   3.648 -0.1583 -0.0379 -0.0316
32186SOL    HW1 1878   8.000   6.306   3.602 -0.7847  0.5262 -1.3183
32186SOL    HW2 1879   7.891   6.396   3.654 -0.1220  0.7934 -0.3471
32187SOL     OW 1880   1.148   8.556   4.089 -0.0540  0.3681  0.0309
32187SOL    HW1 1881   1.099   8.498   4.147  0.0891  1.9024  1.7833
32187SOL    HW2 1882   1.093   8.566   4.012 -0.3805 -1.5078 -0.0328
32188SOL     OW 1883   4.162   3.499   0.970  0.1908  0.2289 -0.1028
32188SOL    HW1 1884   4.196   3.569   0.914  2.3861 -1.5823 -1.1972
32188SOL    HW2 1885   4.185   3.418   0.924 -3.3522 -1.2689  0.4796
32189SOL     OW 1886   4.672   2.642   4.296  0.0267  0.2633 -0.9663
32189SOL    HW1 1887   4.594   2.696   4.284 -0.2694  0.1866  0.4903
32189SOL    HW2 1888   4.642   2.552   4.283 -0.1805  0.2178 -0.1990
32190SOL     OW 1889   8.674   0.843   0.840  0.0421  0.5635 -0.3003
32190SOL    HW1 1890   8.740   0.858   0.772  0.1792 -1.2560 -0.6239
32190SOL    HW2 1891   8.611   0.784   0.799 -1.1518  1.3106  0.4176
32191SOL     OW 1892   6.002   6.130   8.406 -0.2164  0.4638 -0.1068
32191SOL    HW1 1893   6.081   6.163   8.362 -0.1657  1.5807  0.7756
32191SOL    HW2 1894   6.002   6.175   8.491 -0.8921 -0.8202  0.5987
32192SOL     OW 1895   7.305  11.731   9.547  0.5902 -0.3099  0.0350
32192SOL    HW1 1896   7.395  11.706   9.529  0.8567  0.5777  0.1063
32192SOL    HW2 1897   7.306  11.767   9.635 -0.0776 -1.4142  0.5292
32193SOL     OW 1898   4.199   6.823   6.558  0.5004 -0.0987 -0.2557
32193SOL    HW1 1899   4.127   6.785   6.609 -0.2735 -0.6577 -1.7186
32193SOL    HW2 1900   4.278   6.786   6.597  0.1007  1.0065  1.7994
32194SOL     OW 1901   9.144   0.295   5.705 -0.2001  0.1914 -0.0577
32194SOL    HW1 1902   9.093   0.327   5.780 -0.2935 -0.2736  0.0795
32194SOL    HW2 1903   9.085   0.236   5.659  0.6172 -1.4102  0.8516
32195SOL     OW 1904  11.012   6.792   1.715 -0.1179  0.5663 -0.0091
32195SOL    HW1 1905  11.052   6.795   1.629 -0.2894 -0.1092 -0.1180
32195SOL    HW2 1906  10.941   6.728   1.707  0.4385 -0.1871  0.8615
32196SOL     OW 1907   1.997   4.378   3.563  0.0630 -0.0385 -0.0600
32196SOL    HW1 1908   1.916   4.399   3.610  0.1125  2.9520 -1.1076
32196SOL    HW2 1909   2.059   4.354   3.632 -1.3497 -1.2340  0.8625
32197SOL     OW 1910   4.539  10.257  10.496 -0.5133  0.2668 -0.5384
32197SOL    HW1 1911   4.535  10.244  10.591  1.0725  0.3019 -0.4525
32197SOL    HW2 1912   4.465  10.316  10.478 -1.2534 -0.2741  0.5590
32198SOL     OW 1913   1.248   6.977   7.151  0.3174  0.3851  0.6416
32198SOL    HW1 1914   1.327   7.029   7.134  1.1442 -0.6316  1.2367
32198SOL    HW2 1915   1.239   6.921   7.074  0.1420  0.5296  0.5554
32199SOL     OW 1916   3.682   4.533  11.391 -0.2757  0.3467 -0.0265
32199SOL    HW1 1917   3.739   4.553  11.318 -1.2415 -0.7196 -1.1101
32199SOL    HW2 1918   3.623   4.609  11.396  0.9269  1.2648  0.8484
32200SOL     OW 1919   8.290  10.603  10.347 -0.1562  0.0571 -0.3994
32200SOL    HW1 1920   8.236  10.530  10.379 -0.4128  0.0520 -0.8314
32200SOL    HW2 1921   8.303  10.584  10.254 -1.4111  1.2783 -0.8605
32201SOL     OW 1922  11.584   8.873   6.958 -0.4075  0.4580 -0.0436
32201SOL    HW1 1923  11.625   8.919   6.884 -1.6579  0.9299 -0.4793
32201SOL    HW2 1924  11.494   8.855   6.928 -1.0526  0.9535  1.4712
32202SOL     OW 1925   5.014   5.429   3.324 -0.0496 -0.4645  0.1749
32202SOL    HW1 1926   4.969   5.509   3.349 -1.3327 -0.9602 -0.4338
32202SOL    HW2 1927   4.968   5.400   3.245  0.5792 -1.6346  0.2204
32203SOL     OW 1928   9.478   3.407   8.867  0.0524 -0.4032  0.5704
32203SOL    HW1 1929   9.502   3.413   8.959 -0.3790  0.3315  0.6390
32203SOL    HW2 1930   9.473   3.498   8.837 -1.4516 -0.5689  0.2504
32204SOL     OW 1931   5.222   1.235   2.638  0.4611 -0.3186 -0.2232
32204SOL    HW1 1932   5.256   1.245   2.549  0.4435 -0.2025 -0.2180
32204SOL    HW2 1933   5.294   1.195   2.687 -0.1739 -2.1671 -0.7208
32205SOL     OW 1934   0.046   0.368   3.571 -0.0761  0.2994  0.4310
32205SOL    HW1 1935   0.019   0.459   3.561 -1.3258 -0.1760 -0.8221
32205SOL    HW2 1936   0.073   0.361   3.663  0.1178  1.9350  0.5344
32206SOL     OW 1937   1.914   0.337   6.912  0.2551 -0.4519  0.1063
32206SOL    HW1 1938   1.905   0.394   6.988  0.5905 -0.0963 -0.1145
32206SOL    HW2 1939   2.007   0.314   6.909  0.3186 -0.1528 -0.4119
32207SOL     OW 1940   2.587   7.972   8.758  0.1921  0.2160 -0.1436
32207SOL    HW1 1941   2.634   8.055   8.764  0.8442 -0.1238 -0.3856
32207SOL    HW2 1942   2.497   7.993   8.780  0.6626  0.7008  1.4642
32208SOL     OW 1943   1.257  11.283   7.308 -0.4113 -0.2055 -0.7583
32208SOL    HW1 1944   1.238  11.189   7.307 -2.7871  0.2016 -1.3427
32208SOL    HW2 1945   1.277  11.304   7.217 -0.0780 -0.0965 -0.6617
32209SOL     OW 1946   2.668   6.916   4.077 -0.1410 -0.0871  0.2919
32209SOL    HW1 1947   2.648   6.946   4.166 -3.6597 -1.1738  0.0388
32209SOL    HW2 1948   2.735   6.849   4.088  1.2322  1.4482  1.8090
32210SOL     OW 1949   7.194   8.650   9.961 -0.0036 -0.4150  0.4791
32210SOL    HW1 1950   7.133   8.607   9.902 -0.9405  0.0427  1.0808
32210SOL    HW2 1951   7.140   8.714  10.009  1.2418  1.1153 -0.0689
32211SOL     OW 1952   7.558   7.421  11.468  0.3576  0.0497 -0.1100
32211SOL    HW1 1953   7.546   7.502  11.419  1.3070  0.2347 -0.0696
32211SOL    HW2 1954   7.553   7.448  11.560  0.8198  0.1023 -0.0947
32212SOL     OW 1955   0.780   1.076  11.486  0.1144 -0.1994  0.2499
32212SOL    HW1 1956   0.772   1.165  11.452 -0.8083 -0.0911  0.7189
32212SOL    HW2 1957   0.874   1.063  11.499  0.4411  0.0160 -1.6268
32213SOL     OW 1958  11.579   6.083  11.015 -0.0121  0.1839 -0.3665
32213SOL    HW1 1959  11.667   6.080  10.978 -0.4223  0.9893 -1.4648
32213SOL    HW2 1960  11.584   6.147  11.085  0.8204 -1.4859  1.1850
32214SOL     OW 1961   6.911   2.243   7.742  0.3949 -0.1268 -0.0156
32214SOL    HW1 1962   6.897   2.275   7.653 -2.5512  1.9425  1.0175
32214SOL    HW2 1963   6.836   2.185   7.758  0.8358 -0.4076  1.1301
32215SOL     OW 1964   1.305   8.984   4.692 -0.5721 -0.3336  0.0422
32215SOL    HW1 1965   1.237   8.946   4.747 -0.9249 -0.0595 -0.2060
32215SOL    HW2 1966   1.376   8.919   4.694 -0.7806 -0.5534  0.4101
32216SOL     OW 1967   0.012   7.615   6.069 -0.4482 -0.1556 -0.0972
32216SOL    HW1 1968   0.079   7.643   6.007 -0.5289 -0.0156 -0.1227
32216SOL    HW2 1969  -0.014   7.528   6.039 -0.4256 -0.1238 -0.2088
32217SOL     OW 1970   6.520  10.852  10.936  0.1855  0.2367  0.1486
32217SOL    HW1 1971   6.579  10.808  10.874 -1.7596  0.9130 -2.3771
32217SOL    HW2 1972   6.545  10.944  10.930  0.0701  0.2868  0.4741
32218SOL     OW 1973   8.125   9.695   0.506 -0.5224 -0.0374  0.5266
32218SOL    HW1 1974   8.168   9.672   0.589 -0.5767 -0.1690  0.5191
32218SOL    HW2 1975   8.197   9.714   0.446 -0.4770 -0.1533  0.5440
32219SOL     OW 1976  10.238   1.112   2.453  0.3843 -0.8626  0.5906
32219SOL    HW1 1977  10.289   1.039   2.489 -0.4379 -1.7830 -0.0960
32219SOL    HW2 1978  10.152   1.104   2.495  0.7369  0.6545  1.6980
32220SOL     OW 1979   1.245   8.490   8.631  0.4858 -0.4913 -0.5079
32220SOL    HW1 1980   1.322   8.447   8.668  1.5098  1.2950 -0.4614
32220SOL    HW2 1981   1.210   8.544   8.702 -0.1094 -0.3703 -0.8788
32221SOL     OW 1982   5.683   4.524   2.030 -0.0225  0.2875 -0.5496
32221SOL    HW1 1983   5.633   4.593   2.074  0.5899  0.4906 -0.1624
32221SOL    HW2 1984   5.718   4.565   1.951 -1.3387 -0.1480 -1.3976
32222SOL     OW 1985   5.690   7.342   4.963 -0.6934  0.6390  0.3669
32222SOL    HW1 1986   5.717   7.254   4.939  0.9821  0.7472  1.6343
32222SOL    HW2 1987   5.598   7.334   4.987 -0.5308 -0.7930  0.5718
32223SOL     OW 1988   1.089   2.522  10.442 -0.4736 -0.0221  0.0067
32223SOL    HW1 1989   1.180   2.532  10.468 -0.7867 -1.0588  1.6646
32223SOL    HW2 1990   1.093   2.503  10.348  1.2235 -2.5296  0.4824
32224SOL     OW 1991   9.654   6.146   8.097  0.1424 -0.1998  0.3784
32224SOL    HW1 1992   9.575   6.098   8.121  0.0911 -0.5547 -0.4514
32224SOL    HW2 1993   9.685   6.184   8.179 -1.7144  1.2160  0.4802
32225SOL     OW 1994   2.489   5.802   2.713  0.3254  0.3105 -0.4709
32225SOL    HW1 1995   2.437   5.882   2.725  0.7560  0.5921 -0.4698
32225SOL    HW2 1996   2.579   5.830   2.726  0.5056 -0.1164 -0.7858
32226SOL     OW 1997   8.817   1.613   5.011 -0.0008  0.3956 -0.6131
32226SOL    HW1 1998   8.735   1.652   5.043 -0.5765 -1.1219 -0.1715
32226SOL    HW2 1999   8.813   1.522   5.039  2.0684  0.3993 -0.1924
32227SOL     OW 2000   5.002   6.433   5.044 -0.7046 -0.4043 -0.1150
32227SOL    HW1 2001   5.025   6.374   5.116  0.0539  1.1744  1.0017
32227SOL    HW2 2002   4.968   6.376   4.976  0.3184 -2.1646  0.7761
32228SOL     OW 2003   5.320   9.281   3.706 -0.4722 -0.4455 -0.4367
32228SOL    HW1 2004   5.408   9.318   3.697  0.0348 -1.5457 -0.1590
32228SOL    HW2 2005   5.320   9.205   3.649 -0.7893 -1.2341  0.5852
32229SOL     OW 2006   9.185   8.359   0.726  0.1458 -0.2336 -0.4297
32229SOL    HW1 2007   9.260   8.415   0.749  0.3842 -1.4135  2.0128
32229SOL    HW2 2008   9.205   8.327   0.638  1.7784  0.6619 -0.4317
32230SOL     OW 2009   9.770   2.889   8.496  0.2284 -0.4188 -0.0768
32230SOL    HW1 2010   9.785   2.982   8.478  2.8471 -0.4621  1.3846
32230SOL    HW2 2011   9.739   2.887   8.587 -1.1814 -0.9393 -0.5365
32231SOL     OW 2012   4.616   5.698   7.730  0.7368  0.9219  0.3736
32231SOL    HW1 2013   4.686   5.635   7.750  0.8980  1.1804  0.6265
32231SOL    HW2 2014   4.636   5.730   7.642 -1.7305 -2.6419 -1.7410
32232SOL     OW 2015   5.803   0.086   5.741  0.6275 -0.1381 -0.0165
32232SOL    HW1 2016   5.788  -0.003   5.775 -0.6382  1.0452  2.9037
32232SOL    HW2 2017   5.721   0.108   5.697  0.1834  0.2058  0.9406
32233SOL     OW 2018   8.717   9.064  11.310 -0.1013 -0.0464  0.2507
32233SOL    HW1 2019   8.783   9.100  11.252  0.1169  0.7429  0.9771
32233SOL    HW2 2020   8.664   9.139  11.337 -1.7390 -0.7495 -0.8501
32234SOL     OW 2021   2.288   8.648   8.829  0.0203 -0.0767  0.2459
32234SOL    HW1 2022   2.348   8.676   8.760 -0.7052 -0.7608 -0.6958
32234SOL    HW2 2023   2.218   8.603   8.783 -0.7783 -0.0592  1.3957
32235SOL     OW 2024   8.407   6.931   3.109 -0.0100 -0.3054  0.1231
32235SOL    HW1 2025   8.461   6.935   3.188 -0.3929  0.0003  0.3748
32235SOL    HW2 2026   8.382   6.839   3.102 -1.4042 -0.0637  1.3463
32236SOL     OW 2027   8.736  10.221   2.433  0.1747  0.1322  0.3131
32236SOL    HW1 2028   8.721  10.266   2.517 -0.5063  1.3292 -0.4150
32236SOL    HW2 2029   8.816  10.172   2.447  0.5012  0.9204  1.4347
32237SOL     OW 2030   3.909   8.748   6.293 -1.1118 -0.6143  0.0598
32237SOL    HW1 2031   3.876   8.828   6.333 -0.2554 -0.7039  0.9796
32237SOL    HW2 2032   3.981   8.720   6.350 -2.3408 -2.8613  0.6398
32238SOL     OW 2033   4.321   0.282  10.244 -0.2399 -0.6108 -0.0864
32238SOL    HW1 2034   4.245   0.285  10.186 -0.7531  1.2593  0.5938
32238SOL    HW2 2035   4.391   0.246  10.190  0.0101  3.2905 -2.8283
32239SOL     OW 2036   9.652   9.310   2.337 -0.2266 -0.0567 -0.4024
32239SOL    HW1 2037   9.616   9.305   2.249  0.1165  0.0692 -0.5521
32239SOL    HW2 2038   9.729   9.254   2.336 -2.0966 -2.8504  0.7914
32240SOL     OW 2039  11.542   6.617   8.503  0.2482  0.0538  0.0938
32240SOL    HW1 2040  11.550   6.577   8.417 -2.1910 -0.4695  0.0183
32240SOL    HW2 2041  11.536   6.711   8.486 -0.5091 -0.0687 -0.3650
32241SOL     OW 2042   5.357  11.515   8.262  0.1244 -0.6256  0.1435
32241SOL    HW1 2043   5.351  11.453   8.189 -0.2174  0.0549 -0.4210
32241SOL    HW2 2044   5.429  11.574   8.238 -0.2332 -0.1715  0.1744
32242SOL     OW 2045   1.737   8.431  10.179  0.2404  0.0407  0.3067
32242SOL    HW1 2046   1.775   8.478  10.104  0.6818 -0.8671 -0.0498
32242SOL    HW2 2047   1.658   8.390  10.143  0.1987 -0.0126  0.4606
32243SOL     OW 2048  11.151  10.326   5.497  0.4388  0.7606  0.6982
32243SOL    HW1 2049  11.219  10.374   5.450  2.1942 -3.8475 -2.1041
32243SOL    HW2 2050  11.074  10.333   5.441  0.5656  0.6399  0.5076
32244SOL     OW 2051   8.469   7.924   2.621  0.0120 -0.6800  0.3260
32244SOL    HW1 2052   8.479   8.010   2.662 -0.0933 -1.1523  1.3847
32244SOL    HW2 2053   8.375   7.906   2.625 -0.4162  0.3909 -2.5611
32245SOL     OW 2054   6.385   3.569   8.549  0.3610  0.0664 -0.2330
32245SOL    HW1 2055   6.420   3.530   8.629 -1.1280  0.8962  0.8663
32245SOL    HW2 2056   6.399   3.502   8.482 -0.8171 -1.8191  1.2768
32246SOL     OW 2057   1.582   6.580   8.328  0.4149  0.1279 -0.3123
32246SOL    HW1 2058   1.533   6.525   8.389  0.0264 -0.9069 -1.5097
32246SOL    HW2 2059   1.635   6.637   8.384 -0.9953  0.2151  0.9912
32247SOL     OW 2060   0.351  10.670   0.579  0.4001  0.4920  0.1630
32247SOL    HW1 2061   0.276  10.644   0.526  1.1552 -0.3592 -0.5114
32247SOL    HW2 2062   0.417  10.699   0.516  1.3177 -0.5662  0.6121
32248SOL     OW 2063   9.199   9.619   5.560  0.5678  0.4541 -0.0309
32248SOL    HW1 2064   9.272   9.591   5.616 -0.4383 -0.7161  0.7473
32248SOL    HW2 2065   9.149   9.680   5.615 -1.0458 -1.5465  0.8408
32249SOL     OW 2066   7.140  10.937   9.587  1.4474  0.1674  0.6486
32249SOL    HW1 2067   7.212  10.992   9.558  2.0234 -0.9561 -0.1452
32249SOL    HW2 2068   7.156  10.853   9.544  0.7369 -0.6985  2.0182
32250SOL     OW 2069   1.653   4.597   6.367  0.6999  0.5377 -0.7157
32250SOL    HW1 2070   1.600   4.597   6.288 -0.5284  0.7498  0.0834
32250SOL    HW2 2071   1.691   4.685   6.370  0.5076  0.6287 -0.9057
32251SOL     OW 2072   4.587   1.930   6.220 -0.0342  0.2134 -0.0717
32251SOL    HW1 2073   4.600   1.841   6.251 -1.4765 -0.5152 -1.3991
32251SOL    HW2 2074   4.533   1.971   6.288  2.0784  0.6924  1.4108
32252SOL     OW 2075   4.085   5.719   4.437  0.6492 -0.1355  0.2163
32252SOL    HW1 2076   4.124   5.798   4.474 -0.0322  0.3722 -0.1315
32252SOL    HW2 2077   4.105   5.724   4.344  1.9304 -1.1566  0.4191
32253SOL     OW 2078   3.392   4.566   0.444  0.1758 -0.3128 -0.5984
32253SOL    HW1 2079   3.360   4.595   0.530 -0.8624 -2.2576 -0.2731
32253SOL    HW2 2080   3.313   4.548   0.394  0.7774  0.8022 -2.0010
32254SOL     OW 2081   4.081   7.230   0.446 -0.2036 -0.0066  0.4342
32254SOL    HW1 2082   4.170   7.205   0.471 -0.2547  1.0647  1.7803
32254SOL    HW2 2083   4.067   7.315   0.488 -0.2213  2.1242 -3.4427
32255SOL     OW 2084   6.709   0.651   5.416  0.4650  0.1994 -0.4853
32255SOL    HW1 2085   6.704   0.630   5.323 -0.1723 -2.7194  0.1309
32255SOL    HW2 2086   6.632   0.610   5.455  2.9856 -2.6662  1.9391
32256SOL     OW 2087  10.657   3.768   5.619  0.1259 -0.6498 -0.0549
32256SOL    HW1 2088  10.741   3.799   5.584 -0.3166  1.8895  0.9305
32256SOL    HW2 2089  10.596   3.774   5.545  0.1770  0.4085 -0.0270
32257SOL     OW 2090   2.642   0.220   3.995  0.3806 -0.2147 -0.3582
32257SOL    HW1 2091   2.715   0.175   3.952  0.4372 -1.7318  1.1986
32257SOL    HW2 2092   2.575   0.228   3.927  2.1089  1.6050 -1.9442
32258SOL     OW 2093   9.532   1.058  10.682 -0.4250  0.2792 -0.3586
32258SOL    HW1 2094   9.485   1.129  10.637 -2.1086  2.2919  4.0468
32258SOL    HW2 2095   9.623   1.088  10.684 -0.3921  0.3641 -1.8818
32259SOL     OW 2096  11.587   1.822   2.719  1.0341 -0.0952  0.0117
32259SOL    HW1 2097  11.601   1.914   2.740  0.1123  0.1114 -0.2292
32259SOL    HW2 2098  11.519   1.822   2.651 -0.2824 -1.0173  1.2590
32260SOL     OW 2099   1.591   3.384   7.687 -0.2299 -0.4171 -0.3807
32260SOL    HW1 2100   1.641   3.330   7.625 -0.1758 -1.0420  0.1915
32260SOL    HW2 2101   1.580   3.468   7.642  1.3273 -0.2602 -0.5291
32261SOL     OW 2102   3.572   6.898   1.797 -0.0794  0.2850  0.2815
32261SOL    HW1 2103   3.503   6.872   1.735 -2.1997 -0.0334  2.6010
32261SOL    HW2 2104   3.654   6.873   1.754 -1.2639  1.5664 -3.0534
32262SOL     OW 2105  11.556  10.290  11.430 -0.6548 -0.3401  0.0041
32262SOL    HW1 2106  11.466  10.278  11.461 -0.5237 -0.1003  0.4700
32262SOL    HW2 2107  11.576  10.382  11.448 -0.7907 -0.0140 -1.3454
32263SOL     OW 2108   5.205   9.418   8.946 -0.4485 -0.5491 -0.1539
32263SOL    HW1 2109   5.115   9.450   8.944 -0.3803 -0.0960 -3.8246
32263SOL    HW2 2110   5.206   9.348   8.880  1.5838 -1.5982  0.9108
32264SOL     OW 2111   4.636   8.160   8.108 -0.0862 -0.2225 -0.4027
32264SOL    HW1 2112   4.717   8.119   8.138  0.2969  0.8688  0.1361
32264SOL    HW2 2113   4.568   8.096   8.130  0.1749  0.4007  2.8183
32265SOL     OW 2114   5.486   6.622   3.382 -0.6526 -0.4347 -0.2812
32265SOL    HW1 2115   5.456   6.540   3.421 -0.3022 -0.7137 -0.5948
32265SOL    HW2 2116   5.581   6.616   3.384 -0.6247 -0.4423 -1.1400
32266SOL     OW 2117   6.199   7.245   8.872  0.7846 -0.5543  0.0824
32266SOL    HW1 2118   6.187   7.170   8.813  0.2665 -1.4303  1.2669
32266SOL    HW2 2119   6.137   7.230   8.943  1.2651  0.5838  0.7689
32267SOL     OW 2120   0.158   3.268   4.286  0.2895 -0.1272 -0.3849
32267SOL    HW1 2121   0.128   3.322   4.360  0.4815  0.4130 -0.6898
32267SOL    HW2 2122   0.081   3.218   4.260  0.2068 -0.2864  0.1500
32268SOL     OW 2123   2.786   7.460  11.335  0.0068  0.1199  0.5073
32268SOL    HW1 2124   2.693   7.440  11.336 -0.2244  1.1231  1.2384
32268SOL    HW2 2125   2.805   7.483  11.244 -0.6542  0.7008  0.5081
32269SOL     OW 2126   4.845   7.879   5.364  0.0149 -0.0242 -0.7684
32269SOL    HW1 2127   4.778   7.882   5.295  0.4341 -1.2677 -1.2516
32269SOL    HW2 2128   4.865   7.786   5.374 -0.2839  0.0955  1.3045
32270SOL     OW 2129   5.458   1.450   0.734 -0.0193  0.2390  0.1982
32270SOL    HW1 2130   5.363   1.452   0.747  0.1520  1.1670  1.5680
32270SOL    HW2 2131   5.483   1.542   0.724  0.7992  0.0544  0.4552
32271SOL     OW 2132   8.254   8.417   4.577 -0.7148 -0.4630 -0.2396
32271SOL    HW1 2133   8.195   8.383   4.510 -1.2069 -0.0826 -0.0063
32271SOL    HW2 2134   8.262   8.511   4.557  2.8604 -1.0643 -2.6006
32272SOL     OW 2135   7.725   0.593   5.330  0.1816  0.9552 -0.1275
32272SOL    HW1 2136   7.706   0.674   5.283 -1.2877  1.2301  0.8677
32272SOL    HW2 2137   7.750   0.531   5.261  0.7920  2.0852 -0.9538
32273SOL     OW 2138   5.902   2.248   0.773 -0.6289 -0.6501  0.0745
32273SOL    HW1 2139   5.989   2.246   0.813  0.1547 -0.9601 -1.5566
32273SOL    HW2 2140   5.887   2.341   0.754  0.1522 -0.7557 -1.2241
32274SOL     OW 2141  11.073   7.651   5.230  0.4942 -0.1892 -0.2822
32274SOL    HW1 2142  11.027   7.578   5.272 -0.5676 -0.3186 -1.5971
32274SOL    HW2 2143  11.164   7.620   5.221  0.4649 -0.6241  0.7852
32275SOL     OW 2144   4.845  11.088   3.950 -0.3091 -0.1439  0.1671
32275SOL    HW1 2145   4.931  11.123   3.924 -0.1469 -0.8988 -0.3534
32275SOL    HW2 2146   4.783  11.132   3.892 -0.1136 -0.6333 -0.4297
32276SOL     OW 2147   7.278   7.872   2.785 -0.7540 -0.1754  0.5882
32276SOL    HW1 2148   7.337   7.893   2.857 -1.5562  1.1724  0.9044
32276SOL    HW2 2149   7.213   7.813   2.823 -1.2394  0.6201  1.0356
32277SOL     OW 2150   4.840   3.864  11.470  0.2147 -0.1680 -0.2363
32277SOL    HW1 2151   4.870   3.912  11.547  0.1591  0.4651 -0.6020
32277SOL    HW2 2152   4.894   3.785  11.469  0.2685 -0.1503  0.4074
32278SOL     OW 2153   7.460   1.796   8.487 -0.1739 -0.0090 -0.0096
32278SOL    HW1 2154   7.506   1.730   8.539 -1.2457  0.0658  1.0957
32278SOL    HW2 2155   7.467   1.765   8.397 -2.1915 -2.6542  0.6147
32279SOL     OW 2156   0.011   2.992  10.385 -0.1876  0.2514  0.4563
32279SOL    HW1 2157  -0.074   2.985  10.341 -0.1121 -0.2316  0.3747
32279SOL    HW2 2158   0.074   2.995  10.314 -0.1988  1.7747  0.4954
32280SOL     OW 2159   8.734   0.715   1.355 -0.3934 -0.1044  0.3290
32280SOL    HW1 2160   8.759   0.623   1.353  2.8176  0.6616 -1.4142
32280SOL    HW2 2161   8.773   0.753   1.277 -1.5946  2.7824  0.9776
32281SOL     OW 2162   9.806   3.845   6.394 -0.0913  0.8430  0.2193
32281SOL    HW1 2163   9.812   3.820   6.302  1.0802 -0.5612  0.6514
32281SOL    HW2 2164   9.724   3.805   6.424  0.2001  0.1542  0.1144
32282SOL     OW 2165   6.742   5.600   3.503  0.0746  0.3790  0.0671
32282SOL    HW1 2166   6.831   5.631   3.519 -0.4498  1.6447  0.6160
32282SOL    HW2 2167   6.724   5.623   3.412  0.5256 -0.4742 -0.2513
32283SOL     OW 2168  11.245   4.625   0.788  0.5606  0.1042  0.0582
32283SOL    HW1 2169  11.192   4.705   0.786 -1.3738 -1.1251 -0.9520
32283SOL    HW2 2170  11.277   4.616   0.698  1.9207  0.4251  0.4860
32284SOL     OW 2171   1.718   2.679   0.594 -0.0150  0.1583  0.5153
32284SOL    HW1 2172   1.725   2.612   0.662 -0.6522  1.1414  1.5867
32284SOL    HW2 2173   1.794   2.664   0.538 -0.4875 -1.8739  0.3223
32285SOL     OW 2174   5.644   9.651   2.086  0.0955  0.2199  0.4149
32285SOL    HW1 2175   5.611   9.653   1.996  2.0003 -2.5108 -0.5007
32285SOL    HW2 2176   5.703   9.726   2.091 -0.1794  0.5219 -0.5368
32286SOL     OW 2177   1.295   6.779   9.002  0.1183  0.3989  0.5382
32286SOL    HW1 2178   1.333   6.855   8.959  0.6123  0.9918  1.9671
32286SOL    HW2 2179   1.307   6.707   8.940  0.3697  1.3155 -0.4873
32287SOL     OW 2180  10.456   7.685   8.415 -0.2427  0.0059  0.1710
32287SOL    HW1 2181  10.515   7.615   8.387  0.9517  0.8363  0.5708
32287SOL    HW2 2182  10.473   7.696   8.508 -0.6992  0.5743  0.1967
32288SOL     OW 2183  11.232   4.901   3.989 -0.6195 -0.0395 -0.2816
32288SOL    HW1 2184  11.204   4.922   3.899  1.1343  2.1645 -0.4269
32288SOL    HW2 2185  11.229   4.986   4.034  1.7680 -0.4481  0.7542
32289SOL     OW 2186   5.615   6.904   2.763  0.3048 -0.2125 -0.6733
32289SOL    HW1 2187   5.531   6.894   2.718  0.7419 -0.7845 -1.3791
32289SOL    HW2 2188   5.675   6.934   2.694  0.7008  0.1183 -0.1906
32290SOL     OW 2189   1.289   1.177   6.648  0.8090 -0.4067  0.1332
32290SOL    HW1 2190   1.291   1.252   6.708  1.3964 -0.5453  0.2875
32290SOL    HW2 2191   1.359   1.195   6.585  1.4925 -1.2113  0.6453
32291SOL     OW 2192   8.008   4.444   7.755  0.5297 -0.3359 -0.1189
32291SOL    HW1 2193   7.987   4.351   7.761 -1.0979  0.0777  1.4702
32291SOL    HW2 2194   7.998   4.465   7.662 -1.1476 -1.3311 -0.2007
32292SOL     OW 2195   2.616   7.251   1.696 -0.1945  0.3489 -0.0613
32292SOL    HW1 2196   2.525   7.268   1.721 -0.1042  0.0311  0.5155
32292SOL    HW2 2197   2.647   7.334   1.661 -0.6887  0.4773 -0.2126
32293SOL     OW 2198  11.088   2.492   8.178 -0.1768 -0.5866 -0.2630
32293SOL    HW1 2199  11.076   2.519   8.087 -1.1668  1.8503  0.5052
32293SOL    HW2 2200  11.069   2.399   8.178 -1.2374 -0.4409 -2.3733
32294SOL     OW 2201   4.989  11.124   5.950 -0.5015  0.5098  0.4614
32294SOL    HW1 2202   4.932  11.087   5.883 -1.6135  0.5838  1.3376
32294SOL    HW2 2203   5.068  11.069   5.948 -1.0662 -0.2945 -0.0082
32295SOL     OW 2204   1.137   3.162  11.262 -0.5511 -0.9291 -0.5433
32295SOL    HW1 2205   1.217   3.165  11.314  0.8801 -2.0648 -2.5688
32295SOL    HW2 2206   1.094   3.246  11.279  0.2933 -0.8821  1.6924
32296SOL     OW 2207   3.919   6.218   3.979 -0.7056 -0.1963  0.3719
32296SOL    HW1 2208   3.943   6.144   4.034 -0.7479 -0.8705 -0.4844
32296SOL    HW2 2209   3.835   6.193   3.940 -1.2216  0.7415  0.8323
32297SOL     OW 2210  10.754   7.656   8.081  0.6120 -0.2079  0.1289
32297SOL    HW1 2211  10.805   7.576   8.093  0.7434 -0.2782 -0.8026
32297SOL    HW2 2212  10.791   7.718   8.144  1.1848 -0.5694  0.1547
32298SOL     OW 2213   2.921   9.762   0.431  0.2686  0.7938 -0.0497
32298SOL    HW1 2214   2.847   9.805   0.473 -0.1517 -0.3152  0.3723
32298SOL    HW2 2215   2.896   9.756   0.338 -0.3544  0.0762  0.1546
32299SOL     OW 2216   6.319   8.439   8.682  0.4952  0.5205 -0.1901
32299SOL    HW1 2217   6.399   8.490   8.693  0.3307  0.4055  2.2461
32299SOL    HW2 2218   6.281   8.436   8.770 -2.6893  1.3503 -1.3923
32300SOL     OW 2219   8.503  11.290   1.289  0.1272  0.0647 -0.6533
32300SOL    HW1 2220   8.561  11.214   1.293  1.6946  1.2179 -0.2886
32300SOL    HW2 2221   8.514  11.323   1.200 -0.4528 -0.0448 -0.7704
32301SOL     OW 2222   9.644   8.694  11.431  0.5315 -0.2516 -0.4022
32301SOL    HW1 2223   9.580   8.743  11.483  1.1697 -0.3248  0.4795
32301SOL    HW2 2224   9.667   8.753  11.359  0.2617  0.1898 -0.1326
32302SOL     OW 2225   7.851   6.305   7.399 -0.2632  0.2678 -0.1812
32302SOL    HW1 2226   7.887   6.385   7.359  2.4643 -1.2075 -0.9167
32302SOL    HW2 2227   7.841   6.244   7.327 -2.2897 -0.1407  0.3833
32303SOL     OW 2228  10.982   4.429   4.685 -0.0918 -0.1471 -0.2647
32303SOL    HW1 2229  10.988   4.387   4.771  0.4432  0.1872 -0.1343
32303SOL    HW2 2230  10.910   4.383   4.641 -0.9617  0.2830  0.6851
32304SOL     OW 2231  10.251   3.679   3.815  0.2059  0.1191 -0.1293
32304SOL    HW1 2232  10.293   3.743   3.758  0.4139 -0.3411 -0.5004
32304SOL    HW2 2233  10.207   3.732   3.882  1.9138  0.6288  0.6673
32305SOL     OW 2234   3.750   7.661   7.303 -0.7117 -0.2979 -0.2768
32305SOL    HW1 2235   3.822   7.632   7.248  0.5625  2.7820 -0.4107
32305SOL    HW2 2236   3.773   7.629   7.391  0.4536  0.0148 -0.4538
32306SOL     OW 2237   3.131   9.763   3.110  0.3241 -0.2405 -0.1902
32306SOL    HW1 2238   3.086   9.717   3.181  2.1216 -0.7489  0.6784
32306SOL    HW2 2239   3.141   9.697   3.042 -0.0438 -0.1759 -0.3118
32307SOL     OW 2240   6.840  10.475   8.951 -0.5263 -0.2817 -0.5280
32307SOL    HW1 2241   6.850  10.563   8.986  0.7787 -0.5388 -0.1700
32307SOL    HW2 2242   6.882  10.478   8.865 -1.1916 -0.3658 -0.8633
32308SOL     OW 2243  11.310   9.054   7.050  0.0512  0.5446  0.3840
32308SOL    HW1 2244  11.351   9.066   6.965  0.2758  1.7814  0.6524
32308SOL    HW2 2245  11.383   9.037   7.110 -0.0979 -0.2307  0.3641
32309SOL     OW 2246   7.311  11.369   9.814 -0.0155 -0.1159  0.4741
32309SOL    HW1 2247   7.268  11.304   9.869 -1.8527  0.1082 -0.6194
32309SOL    HW2 2248   7.292  11.452   9.856  0.9427 -0.1319  0.9738
32310SOL     OW 2249   6.610   0.520   3.069 -0.4952  0.5115 -0.2148
32310SOL    HW1 2250   6.592   0.492   2.979  0.2927 -1.5752  0.1951
32310SOL    HW2 2251   6.555   0.596   3.082 -2.2451 -0.3893 -1.7881
32311SOL     OW 2252   5.234   4.109   9.768 -0.4368  0.4059 -0.3394
32311SOL    HW1 2253   5.201   4.192   9.801  0.1115  0.8473 -0.8796
32311SOL    HW2 2254   5.191   4.097   9.683 -0.4262  0.1902 -0.3166
32312SOL     OW 2255  10.908   2.857   7.095 -0.0402  0.0731 -0.3599
32312SOL    HW1 2256  10.872   2.807   7.022  0.6259  0.7223 -1.1468
32312SOL    HW2 2257  10.831   2.885   7.145 -0.5192 -0.0859 -0.9960
32313SOL     OW 2258   2.523   1.014   0.250 -0.0186 -0.0314  0.5672
32313SOL    HW1 2259   2.459   0.946   0.230 -0.7023  0.9111 -0.5574
32313SOL    HW2 2260   2.602   0.986   0.204 -0.5664  0.3607 -0.6658
32314SOL     OW 2261   1.297  10.205   3.873  0.8203  0.0510 -0.2978
32314SOL    HW1 2262   1.324  10.176   3.960 -0.5021  1.7257  0.7396
32314SOL    HW2 2263   1.378  10.211   3.824  1.7074 -0.1508  1.0820
32315SOL     OW 2264   8.647   6.539   9.842  0.2389 -0.2192 -0.1917
32315SOL    HW1 2265   8.631   6.470   9.907  0.2864 -1.0285 -1.0230
32315SOL    HW2 2266   8.682   6.612   9.893  3.2006 -1.8641  0.3214
32316SOL     OW 2267   5.534   7.823   5.008  0.4821 -0.8181 -0.4272
32316SOL    HW1 2268   5.572   7.821   5.096  1.0565 -0.6111 -0.6581
32316SOL    HW2 2269   5.513   7.732   4.988 -1.5137 -0.6524  0.6903
32317SOL     OW 2270   7.116   8.527   2.691  0.3006 -0.2221  0.1197
32317SOL    HW1 2271   7.204   8.523   2.728  0.7981  0.5370 -0.9349
32317SOL    HW2 2272   7.065   8.465   2.744  1.3560 -0.3629  1.0095
32318SOL     OW 2273   2.618   5.046  11.546  0.5233  0.3947 -0.0772
32318SOL    HW1 2274   2.651   4.961  11.576 -0.8571  0.0181  0.4728
32318SOL    HW2 2275   2.575   5.083  11.623  0.5881  1.3272 -0.4792
32319SOL     OW 2276   5.827   4.742  10.322 -0.0033  0.1186 -0.0957
32319SOL    HW1 2277   5.815   4.661  10.272 -2.3896 -0.2936  1.0143
32319SOL    HW2 2278   5.856   4.713  10.408 -0.9592  0.3990  0.3359
32320SOL     OW 2279  11.155  10.713   4.610  0.7474 -0.0739  0.7153
32320SOL    HW1 2280  11.086  10.776   4.591  0.4265 -0.2544  1.2718
32320SOL    HW2 2281  11.230  10.745   4.560  0.4907  0.5559  0.7187
32321SOL     OW 2282   9.293   9.189   3.095 -0.0746 -0.2584  0.3172
32321SOL    HW1 2283   9.352   9.241   3.150 -0.8309  0.1202  0.7909
32321SOL    HW2 2284   9.228   9.154   3.157  0.7932 -2.3173  0.1049
32322SOL     OW 2285   0.450   5.888   8.348  0.1003 -0.1942 -0.2493
32322SOL    HW1 2286   0.370   5.923   8.388  0.3663 -0.5086  0.5891
32322SOL    HW2 2287   0.519   5.948   8.378  0.5175 -1.2358  0.9719
32323SOL     OW 2288   6.473   9.942   9.397 -0.7484 -0.1307 -0.3736
32323SOL    HW1 2289   6.529   9.938   9.320  0.4695  0.8729  0.4268
32323SOL    HW2 2290   6.511   9.879   9.458 -0.9882 -0.0584 -0.1480
32324SOL     OW 2291   0.072  10.502   1.541  0.3901  0.5873  0.0408
32324SOL    HW1 2292   0.133  10.443   1.495 -1.6235 -2.4093  0.8711
32324SOL    HW2 2293  -0.014  10.463   1.526 -0.7529  1.5916  3.2320
32325SOL     OW 2294  11.371   9.110   4.230 -0.3007  0.8787  0.4139
32325SOL    HW1 2295  11.286   9.081   4.264 -0.9345  0.9049 -1.0826
32325SOL    HW2 2296  11.370   9.086   4.137  0.7803  2.0901  0.0505
32326SOL     OW 2297  10.849   9.520   4.926 -0.2655  0.4664  0.0787
32326SOL    HW1 2298  10.903   9.461   4.978 -2.4939 -2.0716 -0.2737
32326SOL    HW2 2299  10.771   9.535   4.980 -0.5725  1.5883 -0.6382
32327SOL     OW 2300   9.700   5.726  10.398 -0.4374  0.1165  0.3378
32327SOL    HW1 2301   9.651   5.801  10.364 -1.0073 -0.0245  0.8108
32327SOL    HW2 2302   9.764   5.705  10.331 -0.2306  1.0706  0.2333
32328SOL     OW 2303  10.565   1.587   7.272  0.4445 -0.4516 -0.0496
32328SOL    HW1 2304  10.557   1.676   7.307 -1.9235 -1.0313  1.1463
32328SOL    HW2 2305  10.475   1.555   7.269  1.2215 -2.7806 -0.5336
32329SOL     OW 2306   2.502   9.040   9.783 -0.3783 -0.2244 -0.2201
32329SOL    HW1 2307   2.452   9.099   9.839 -0.8525  0.3375 -1.2185
32329SOL    HW2 2308   2.439   8.973   9.756  0.1062 -1.0941  0.7414
32330SOL     OW 2309   7.555   9.467   5.882  0.0258  0.4409 -0.3866
32330SOL    HW1 2310   7.537   9.382   5.841 -1.4379  0.2392  0.6066
32330SOL    HW2 2311   7.482   9.523   5.856  0.7009  1.2637 -0.5934
32331SOL     OW 2312   2.079  11.588   4.769  0.4359  0.1327 -0.0081
32331SOL    HW1 2313   2.039  11.518   4.820  2.1747 -0.8992 -0.0092
32331SOL    HW2 2314   2.173  11.582   4.787  0.7132  2.0465 -0.5294
32332SOL     OW 2315   7.071   6.421   9.687  0.0268  0.1193 -0.6250
32332SOL    HW1 2316   7.120   6.399   9.607  0.9962 -0.8915  0.2057
32332SOL    HW2 2317   6.980   6.400   9.666  0.1193  0.7056 -1.7384
32333SOL     OW 2318   5.159   8.353   9.257  0.0739 -1.1190  0.1903
32333SOL    HW1 2319   5.108   8.430   9.284 -0.1849 -0.3352 -2.2361
32333SOL    HW2 2320   5.249   8.385   9.248 -0.0485 -1.0172 -0.9040
32334SOL     OW 2321   3.732   8.791   7.028  0.7511 -0.6078  0.1814
32334SOL    HW1 2322   3.767   8.704   7.011  2.2102  0.0720 -0.3999
32334SOL    HW2 2323   3.733   8.799   7.124 -0.7133 -1.7218  0.3289
32335SOL     OW 2324   0.189  10.755  10.953  0.0129 -0.2898  0.1136
32335SOL    HW1 2325   0.171  10.763  10.859  1.1567  0.3314 -0.0695
32335SOL    HW2 2326   0.256  10.822  10.970 -1.6748  1.0868  1.7987
32336SOL     OW 2327   3.430   4.475   8.629 -0.0714  0.2456  0.5287
32336SOL    HW1 2328   3.422   4.491   8.723 -0.1336 -1.0612  0.7691
32336SOL    HW2 2329   3.438   4.380   8.621  1.8287  0.4457 -0.6574
32337SOL     OW 2330   2.514   5.114  11.259 -0.1154  0.0324 -0.7086
32337SOL    HW1 2331   2.542   5.027  11.230 -0.8352 -0.1438 -0.8868
32337SOL    HW2 2332   2.529   5.113  11.354  1.1083  0.1864 -0.8850
32338SOL     OW 2333   9.364   5.562   1.884 -0.3665  0.4912 -0.2266
32338SOL    HW1 2334   9.401   5.645   1.917 -0.0908  0.1161  0.4279
32338SOL    HW2 2335   9.345   5.511   1.963  0.9906 -0.7281 -0.6474
32339SOL     OW 2336   5.069   5.638   8.915 -0.6025 -0.0018  0.3213
32339SOL    HW1 2337   4.988   5.683   8.893 -1.0623 -1.1414 -0.4186
32339SOL    HW2 2338   5.137   5.684   8.865 -1.1214 -0.3477 -0.7226
32340SOL     OW 2339   0.650   0.099   6.026 -0.1042  0.1282  0.0903
32340SOL    HW1 2340   0.612   0.095   6.114  0.3700 -0.2413  0.2834
32340SOL    HW2 2341   0.714   0.028   6.024  0.6692  0.8117 -0.1798
32341SOL     OW 2342   9.897   7.889  11.450  0.3965  0.3611 -0.3596
32341SOL    HW1 2343   9.911   7.984  11.454  2.8069  0.0408  0.7066
32341SOL    HW2 2344   9.942   7.862  11.370 -0.5368  0.1196 -0.8179
32342SOL     OW 2345   7.955   5.951   9.492 -0.2315  0.7054  0.1066
32342SOL    HW1 2346   8.015   6.025   9.480 -0.3161  0.7174 -0.2496
32342SOL    HW2 2347   7.966   5.926   9.584 -0.0998  1.0692  0.1904
32343SOL     OW 2348   8.289  10.738   7.249  0.9846 -0.5850  0.1262
32343SOL    HW1 2349   8.360  10.742   7.314  1.0060  2.0659  0.0784
32343SOL    HW2 2350   8.333  10.747   7.165  0.7094 -0.3164  0.0089
32344SOL     OW 2351   4.820   6.215   2.891  0.2202 -0.5115 -0.4535
32344SOL    HW1 2352   4.825   6.181   2.801 -2.3097  0.4434 -1.0447
32344SOL    HW2 2353   4.837   6.308   2.882  0.9295 -0.5705  0.2285
32345SOL     OW 2354   3.901   1.705   0.953 -0.5974  0.3344  0.9188
32345SOL    HW1 2355   3.925   1.620   0.916 -1.0051 -0.1648  1.7929
32345SOL    HW2 2356   3.869   1.755   0.878  0.9818  0.2290  0.1314
32346SOL     OW 2357   6.332   1.745   7.955 -0.7856 -0.3082  0.0082
32346SOL    HW1 2358   6.275   1.677   7.918 -1.7838 -0.9119  2.4752
32346SOL    HW2 2359   6.274   1.820   7.967 -0.8174 -0.5544  1.4947
32347SOL     OW 2360   2.507   0.249   9.856  0.1819  0.2030 -0.2961
32347SOL    HW1 2361   2.523   0.228   9.948  0.3313 -0.2035 -0.4104
32347SOL    HW2 2362   2.424   0.205   9.835  0.6866 -0.6241 -0.6390
32348SOL     OW 2363   5.172   0.251  11.349 -0.8283  0.9747 -0.1918
32348SOL    HW1 2364   5.253   0.209  11.320 -1.1004  0.4645 -0.2302
32348SOL    HW2 2365   5.134   0.189  11.412 -1.4613  0.9513 -0.5865
32349SOL     OW 2366   6.083   2.860  10.886 -0.6379  0.1308 -0.1192
32349SOL    HW1 2367   6.156   2.820  10.839 -1.9568 -1.5136 -0.8557
32349SOL    HW2 2368   6.121   2.890  10.968  0.8734 -0.6649 -0.4953
32350SOL     OW 2369   1.296   3.029  11.726 -0.4933  0.8065 -0.3937
32350SOL    HW1 2370   1.225   3.083  11.760 -1.4881  1.5945 -3.3726
32350SOL    HW2 2371   1.252   2.949  11.696  0.5870 -0.5946  1.5715
32351SOL     OW 2372   5.177   1.152  11.472 -0.1595 -0.0389 -0.2264
32351SOL    HW1 2373   5.083   1.163  11.462 -0.0348 -0.9671 -3.7506
32351SOL    HW2 2374   5.212   1.241  11.473 -1.0687  0.5001  3.9670
32352SOL     OW 2375   3.756   9.069   7.503  0.0591 -0.0697 -0.4073
32352SOL    HW1 2376   3.840   9.109   7.526 -0.2118 -0.0833  0.6843
32352SOL    HW2 2377   3.739   9.098   7.414 -0.1248  2.2745  0.3105
32353SOL     OW 2378   8.215   1.026  11.573 -0.2170 -0.3308 -0.2405
32353SOL    HW1 2379   8.202   1.093  11.640 -1.0759 -1.7224  1.0645
32353SOL    HW2 2380   8.264   1.070  11.504 -0.8194  1.6481  0.5175
32354SOL     OW 2381   0.897   9.856   1.292 -0.1016  0.4118 -0.5161
32354SOL    HW1 2382   0.974   9.898   1.251 -0.1362 -1.1542 -2.3190
32354SOL    HW2 2383   0.853   9.812   1.220 -1.5868 -0.4297  0.8507
32355SOL     OW 2384  10.490   2.512  11.030  0.7656  0.0671 -0.4255
32355SOL    HW1 2385  10.512   2.419  11.026 -0.4965 -0.3781  1.5255
32355SOL    HW2 2386  10.545   2.553  10.963  0.1362 -2.2886 -2.5045
32356SOL     OW 2387   9.546   7.741   0.213  0.1172 -0.0997  0.0625
32356SOL    HW1 2388   9.572   7.824   0.174 -0.3373 -0.3651 -0.8161
32356SOL    HW2 2389   9.526   7.684   0.139 -3.4024  0.2086  0.6111
32357SOL     OW 2390   3.507   6.786   7.725 -0.3823  0.2268 -0.8106
32357SOL    HW1 2391   3.492   6.821   7.637  0.7738 -1.3727 -1.6863
32357SOL    HW2 2392   3.467   6.698   7.722  0.5990 -0.2501 -0.0949
32358SOL     OW 2393   9.044  10.030   6.923 -0.0532  1.0116  0.1356
32358SOL    HW1 2394   9.100  10.108   6.917  0.7927  0.3339 -2.1340
32358SOL    HW2 2395   9.091   9.963   6.873 -1.2648 -0.6645  1.1227
32359SOL     OW 2396   9.144  10.996   6.536  0.1403 -0.1228 -0.0775
32359SOL    HW1 2397   9.186  11.021   6.453  0.1896 -1.0725 -0.3460
32359SOL    HW2 2398   9.084  11.068   6.555 -0.6630 -0.3734 -1.4991
32360SOL     OW 2399   5.516   9.262   9.962 -0.4291  0.3914  0.0894
32360SOL    HW1 2400   5.528   9.180   9.915 -0.8401 -0.3294  1.2160
32360SOL    HW2 2401   5.435   9.298   9.927  0.2046  0.7713 -1.0345
32361SOL     OW 2402   5.523   0.576   5.745 -0.4800  0.5813  0.0468
32361SOL    HW1 2403   5.453   0.528   5.701 -0.7728  1.6511 -0.6991
32361SOL    HW2 2404   5.485   0.662   5.763 -0.5533  0.0392  2.9285
32362SOL     OW 2405   6.087  10.115  11.483  0.3042  0.4394 -0.3277
32362SOL    HW1 2406   6.137  10.034  11.471 -0.4581  0.0332 -0.8848
32362SOL    HW2 2407   6.128  10.178  11.424  0.9212  0.4763  0.1299
32363SOL     OW 2408   9.251  10.302   6.883 -0.0138  0.0258  0.1850
32363SOL    HW1 2409   9.239  10.396   6.874 -0.5197 -0.0798 -0.3161
32363SOL    HW2 2410   9.245  10.268   6.793 -2.2115 -0.7347  0.5547
32364SOL     OW 2411   9.126   5.942   5.331  0.1140  0.1195 -0.3125
32364SOL    HW1 2412   9.092   6.032   5.333  0.8383  0.4176 -0.7437
32364SOL    HW2 2413   9.050   5.887   5.313 -0.3087  0.6672 -0.2188
32365SOL     OW 2414  11.414  11.270   0.014  0.7741  0.1637  0.4466
32365SOL    HW1 2415  11.463  11.351   0.004  1.3712 -0.2538 -0.0954
32365SOL    HW2 2416  11.327  11.289  -0.023  1.2100  0.2874 -0.5508
32366SOL     OW 2417   6.007  11.147   6.142  0.2841 -0.5589  0.0059
32366SOL    HW1 2418   6.088  11.177   6.101  0.5692 -1.9134 -0.4623
32366SOL    HW2 2419   5.965  11.093   6.076 -0.9390 -0.0137  0.3087
32367SOL     OW 2420  10.234   2.042   6.880  0.0075 -1.0285 -0.1412
32367SOL    HW1 2421  10.294   2.002   6.818  0.9334 -1.2329  0.8488
32367SOL    HW2 2422  10.227   1.977   6.951  0.7240  0.0973  1.0059
32368SOL     OW 2423   4.917  11.188   8.473 -0.5706 -0.1835  0.2765
32368SOL    HW1 2424   4.879  11.196   8.561 -1.8818 -0.2683 -0.2676
32368SOL    HW2 2425   4.850  11.222   8.414  0.4430  0.2252 -0.6808
32369SOL     OW 2426   3.482   5.822   3.661 -0.1873 -0.0347  0.0091
32369SOL    HW1 2427   3.440   5.842   3.577 -1.0120 -0.6280  0.2682
32369SOL    HW2 2428   3.573   5.803   3.638 -0.0392  1.2576 -0.5577
32370SOL     OW 2429   1.262   6.195   9.884 -0.3524 -0.2341  0.2891
32370SOL    HW1 2430   1.201   6.169   9.953  0.5827 -2.2329  0.4247
32370SOL    HW2 2431   1.224   6.159   9.804 -1.9636  2.9207 -0.5497
32371SOL     OW 2432   2.423   2.096   7.152 -0.4563 -0.2505  0.4838
32371SOL    HW1 2433   2.451   2.030   7.089  0.6998  1.4490 -0.8616
32371SOL    HW2 2434   2.386   2.166   7.099 -1.1745  0.4347  1.8381
32372SOL     OW 2435   7.645  11.406   5.030 -0.2992 -0.0632 -0.3059
32372SOL    HW1 2436   7.618  11.473   4.967 -2.0251  0.8091  1.2794
32372SOL    HW2 2437   7.680  11.455   5.104  0.9624 -1.0504 -0.2113
32373SOL     OW 2438   6.920   5.435   4.434 -0.2480  0.2358  0.0312
32373SOL    HW1 2439   6.948   5.352   4.472  0.0730  0.2116 -0.2529
32373SOL    HW2 2440   6.848   5.411   4.375 -0.2645  0.1807  0.0744
32374SOL     OW 2441   4.417   9.414   1.960  0.3783  0.1582  0.5393
32374SOL    HW1 2442   4.509   9.428   1.981  0.0984  0.1138  1.9002
32374SOL    HW2 2443   4.370   9.449   2.035 -0.7397  0.4978 -0.2925
32375SOL     OW 2444   4.430   6.929   8.132  0.3099  0.1787  0.2544
32375SOL    HW1 2445   4.435   6.837   8.106  0.7326  0.6696 -1.5359
32375SOL    HW2 2446   4.434   6.927   8.227 -1.1262 -1.7380  0.3359
32376SOL     OW 2447   4.928   2.396   6.804  0.2239  0.0682  0.0317
32376SOL    HW1 2448   4.903   2.469   6.747  0.2582  0.9379  1.1051
32376SOL    HW2 2449   5.001   2.430   6.855  1.3359 -1.2709 -0.5850
32377SOL     OW 2450  10.496   3.705   4.821 -0.1221  0.1694  0.2592
32377SOL    HW1 2451  10.589   3.699   4.801  0.4058  0.4281  2.4230
32377SOL    HW2 2452  10.453   3.659   4.749  1.5924  0.8284 -1.2546
32378SOL     OW 2453  10.687   9.056   4.652  0.3482  0.0765 -0.3242
32378SOL    HW1 2454  10.619   9.123   4.664  0.7897  0.5651 -0.5239
32378SOL    HW2 2455  10.651   8.978   4.694  1.0860  1.2257  2.6992
32379SOL     OW 2456   0.541   4.435   1.942  0.5361 -0.2702  0.2424
32379SOL    HW1 2457   0.498   4.420   2.026 -0.2162  0.8509  0.0802
32379SOL    HW2 2458   0.629   4.467   1.965 -0.6511  2.9971  0.7225
32380SOL     OW 2459   3.188   7.131   0.458 -0.4671 -0.1992 -0.1517
32380SOL    HW1 2460   3.135   7.167   0.387 -0.8746 -0.9911 -0.2663
32380SOL    HW2 2461   3.269   7.181   0.455 -0.7652  0.2622 -0.7154
32381SOL     OW 2462   4.373   8.371   0.635 -0.2466 -0.4025 -0.4685
32381SOL    HW1 2463   4.378   8.276   0.642  0.8371 -0.2708  0.8162
32381SOL    HW2 2464   4.279   8.390   0.641 -0.4748 -1.3781 -0.7341
32382SOL     OW 2465   5.182   6.669  10.574  0.2885  0.9829  0.2437
32382SOL    HW1 2466   5.169   6.682  10.480  0.3772  0.9728  0.2299
32382SOL    HW2 2467   5.095   6.644  10.606 -0.1023  2.4180  0.4042
32383SOL     OW 2468   9.926   5.036   6.444 -0.0282  0.0799  0.5110
32383SOL    HW1 2469   9.979   5.038   6.364  0.6222 -0.0997  0.9325
32383SOL    HW2 2470   9.955   5.113   6.493  0.7438 -0.6882  1.3038
32384SOL     OW 2471   8.281   5.168   7.749  0.7606 -0.4550  0.1144
32384SOL    HW1 2472   8.277   5.076   7.775  1.9084 -0.2842  0.9558
32384SOL    HW2 2473   8.350   5.205   7.803 -1.4842  1.5559  1.8619
32385SOL     OW 2474  10.030   0.095   7.741 -0.2025  0.0769  0.1578
32385SOL    HW1 2475  10.084   0.169   7.769  1.6966 -0.2784 -2.2150
32385SOL    HW2 2476  10.050   0.026   7.804  0.9311  0.4504  0.2312
32386SOL     OW 2477   7.850   4.333   1.775 -0.4073 -0.8260  0.0300
32386SOL    HW1 2478   7.839   4.395   1.847  1.0109 -0.5660  0.0376
32386SOL    HW2 2479   7.848   4.388   1.696 -2.8323 -1.1948 -0.2490
32387SOL     OW 2480   8.565   4.789   9.828  0.2124 -0.1246  0.1316
32387SOL    HW1 2481   8.551   4.819   9.738  0.4157  1.1656  0.4964
32387SOL    HW2 2482   8.478   4.777   9.864  0.1301 -0.5979 -0.2210
32388SOL     OW 2483   1.979   6.545   5.720 -0.1550  0.0500 -0.1019
32388SOL    HW1 2484   2.060   6.592   5.705  0.5906 -0.4031  2.0962
32388SOL    HW2 2485   1.929   6.600   5.780 -0.4585 -0.6991  0.3549
32389SOL     OW 2486   1.983   1.750   5.016  0.3354 -1.2132 -0.5356
32389SOL    HW1 2487   1.965   1.805   4.939 -0.6372 -0.0918  0.4571
32389SOL    HW2 2488   2.000   1.812   5.086  0.4804 -2.2083  0.3313
32390SOL     OW 2489   2.590   8.238   3.488  0.2822  0.4073 -0.2866
32390SOL    HW1 2490   2.646   8.218   3.413  2.0654  2.7060  0.3316
32390SOL    HW2 2491   2.647   8.226   3.564 -0.4093  1.5804  0.4464
32391SOL     OW 2492   5.153   5.712   2.084  0.0647 -0.9754 -0.0275
32391SOL    HW1 2493   5.091   5.697   2.012  0.5133  3.8823 -1.8133
32391SOL    HW2 2494   5.100   5.708   2.163 -2.1510  0.5750 -1.3056
32392SOL     OW 2495   4.810   2.218   1.645  0.1565  0.8441 -0.4826
32392SOL    HW1 2496   4.717   2.195   1.647  0.3285  0.1516 -0.0111
32392SOL    HW2 2497   4.827   2.257   1.731  0.1591  1.5637 -0.8071
32393SOL     OW 2498   1.967   0.696   2.354 -0.2100 -0.0674 -0.0719
32393SOL    HW1 2499   1.990   0.760   2.287 -0.0993  0.2853  0.3039
32393SOL    HW2 2500   1.969   0.744   2.436 -1.3613 -0.2537  0.0766
32394SOL     OW 2501   8.420   5.065   1.249 -0.2265 -0.2159 -0.4325
32394SOL    HW1 2502   8.332   5.092   1.274 -0.2778 -1.1310  0.4764
32394SOL    HW2 2503   8.438   5.110   1.167 -1.9052 -0.7390 -1.1144
32395SOL     OW 2504   9.409   9.610   9.592  0.4227  0.0204  0.6258
32395SOL    HW1 2505   9.418   9.583   9.500  1.0814 -0.1637  0.7418
32395SOL    HW2 2506   9.348   9.684   9.588  0.7519  0.2710 -0.0134
32396SOL     OW 2507   1.490   8.456   9.659  0.0344  0.0878  0.1926
32396SOL    HW1 2508   1.415   8.404   9.689 -1.8145  0.9723 -2.4890
32396SOL    HW2 2509   1.537   8.398   9.599  0.2078  0.2440  0.1763
32397SOL     OW 2510   5.047  10.625   3.290 -0.3809 -0.3615  0.2351
32397SOL    HW1 2511   5.036  10.531   3.305  2.9135 -0.8760  0.0287
32397SOL    HW2 2512   5.067  10.660   3.376  1.0762 -0.3424 -0.0926
32398SOL     OW 2513   2.551   9.513   4.623 -0.4488 -0.5115 -0.1752
32398SOL    HW1 2514   2.598   9.430   4.633 -1.1000 -0.8233  0.3743
32398SOL    HW2 2515   2.569   9.561   4.703 -1.0881 -0.6545  0.0631
32399SOL     OW 2516  11.305   7.462   9.298 -0.3507 -0.2251 -0.3110
32399SOL    HW1 2517  11.378   7.419   9.343 -0.9127 -0.2112  0.6637
32399SOL    HW2 2518  11.268   7.394   9.243  0.6461 -0.1143 -1.1444
32400SOL     OW 2519   1.593   6.116   0.747  0.1466 -0.3442 -0.3472
32400SOL    HW1 2520   1.639   6.199   0.735  1.6878 -1.1220 -0.0970
32400SOL    HW2 2521   1.646   6.068   0.811 -2.2921 -0.3916  1.7831
32401SOL     OW 2522   3.816   8.478   1.295 -0.0224 -0.1789  0.3794
32401SOL    HW1 2523   3.725   8.480   1.325  0.0010  0.7501  0.4253
32401SOL    HW2 2524   3.845   8.570   1.299  1.1170 -0.5372  0.9971
32402SOL     OW 2525   1.705  11.060   8.436 -0.1289  0.1141 -0.7005
32402SOL    HW1 2526   1.740  10.994   8.495 -1.1520  1.0108  0.9711
32402SOL    HW2 2527   1.778  11.082   8.378  0.5049 -1.7333 -0.6439
32403SOL     OW 2528   2.135  11.051   9.075 -0.2077  0.3543  0.3322
32403SOL    HW1 2529   2.087  11.125   9.112 -0.0743 -0.2530  1.8131
32403SOL    HW2 2530   2.098  10.974   9.120  1.4281 -0.2204  0.7423
32404SOL     OW 2531  10.831   6.743   5.996  0.1663 -0.4704 -0.2258
32404SOL    HW1 2532  10.878   6.815   5.954  1.3167 -1.4354 -0.6527
32404SOL    HW2 2533  10.896   6.699   6.049 -0.6730 -0.8301  0.5298
32405SOL     OW 2534   1.871   2.889   0.377 -1.1413  0.5104  0.8391
32405SOL    HW1 2535   1.831   2.904   0.291  0.1311 -0.8500 -0.0463
32405SOL    HW2 2536   1.841   2.962   0.431 -1.6858  1.6088 -0.8720
32406SOL     OW 2537   3.376   1.147   0.294  0.1724 -0.4605  0.3141
32406SOL    HW1 2538   3.335   1.084   0.235  1.8603 -0.3315 -1.0546
32406SOL    HW2 2539   3.332   1.133   0.378 -2.3058 -0.6362 -0.9238
32407SOL     OW 2540   5.359   8.825   6.536 -0.3643  0.3863  0.0774
32407SOL    HW1 2541   5.422   8.786   6.596 -0.6378 -0.4374 -0.1614
32407SOL    HW2 2542   5.363   8.919   6.555  1.0176  0.3647 -0.0123
32408SOL     OW 2543   4.558   7.460   4.097  0.0992 -0.4709  0.0201
32408SOL    HW1 2544   4.569   7.429   4.008 -0.3296 -0.6405  0.0219
32408SOL    HW2 2545   4.647   7.477   4.128  0.1654  1.8806 -1.2273
32409SOL     OW 2546   5.207   7.590  11.798  0.0157 -0.8487  0.3616
32409SOL    HW1 2547   5.279   7.589  11.736  0.2353  1.3367  0.5009
32409SOL    HW2 2548   5.240   7.641  11.872 -2.0389  1.2986 -0.1079
32410SOL     OW 2549   8.933   3.456   1.122 -0.1455 -0.2001  0.2858
32410SOL    HW1 2550   8.997   3.404   1.073  1.1024  0.8802  0.7178
32410SOL    HW2 2551   8.933   3.541   1.079  1.9198  1.2059  2.7990
32411SOL     OW 2552   2.822   2.967  11.718 -0.5042  0.0204 -0.2642
32411SOL    HW1 2553   2.732   2.967  11.687 -0.6587  0.4322  0.1641
32411SOL    HW2 2554   2.825   3.037  11.785 -0.0364 -0.4372  0.2082
32412SOL     OW 2555   6.856   6.588   6.557  0.2359 -0.1762 -0.1248
32412SOL    HW1 2556   6.883   6.534   6.483  1.5347  0.6976 -0.3235
32412SOL    HW2 2557   6.905   6.553   6.632  0.0771 -0.1048  0.0142
32413SOL     OW 2558   0.707  11.799   5.751  0.4609 -0.0940 -0.0563
32413SOL    HW1 2559   0.739  11.887   5.767 -0.9976  0.5917 -0.7315
32413SOL    HW2 2560   0.723  11.752   5.833 -0.7138  1.4187  1.0859
32414SOL     OW 2561   7.736   9.820   7.449 -0.1619 -0.0985 -0.3283
32414SOL    HW1 2562   7.658   9.851   7.496  0.6047  0.1505  0.8333
32414SOL    HW2 2563   7.809   9.862   7.495  0.7747 -1.7433 -0.2475
32415SOL     OW 2564   5.893   9.064   4.633  0.5269 -0.0962 -0.0246
32415SOL    HW1 2565   5.813   9.115   4.642  0.0939 -0.5304 -1.2514
32415SOL    HW2 2566   5.929   9.060   4.722 -1.2829 -0.6666  0.7322
32416SOL     OW 2567  10.050   5.142  10.790 -0.1957 -0.6219 -0.2102
32416SOL    HW1 2568  10.023   5.079  10.857 -2.7110  0.5710  0.0530
32416SOL    HW2 2569  10.116   5.197  10.834 -1.0014 -0.5459  0.9698
32417SOL     OW 2570  10.325  11.093   5.456  0.5382  0.0038 -0.0386
32417SOL    HW1 2571  10.266  11.160   5.492 -0.4754 -2.1396  2.5788
32417SOL    HW2 2572  10.282  11.063   5.376 -0.3911  0.5595  0.2387
32418SOL     OW 2573   8.759   3.032   8.324  0.0039 -0.3298 -0.2931
32418SOL    HW1 2574   8.800   2.987   8.397  0.8018 -0.0640 -0.5711
32418SOL    HW2 2575   8.813   3.011   8.249 -0.1023  0.3919 -0.5814
32419SOL     OW 2576   8.431   3.249   6.192  0.7863 -0.2296 -0.8540
32419SOL    HW1 2577   8.372   3.278   6.262  0.6192  0.9330 -1.4438
32419SOL    HW2 2578   8.495   3.194   6.237  0.2430 -0.1327  0.0852
32420SOL     OW 2579   2.907   9.097   0.431  0.5413  0.0170  0.5334
32420SOL    HW1 2580   2.919   9.156   0.356 -0.7328 -0.5849 -0.1831
32420SOL    HW2 2581   2.907   9.009   0.392  2.0677 -0.4711  1.5417
32421SOL     OW 2582   3.487   8.347   7.586  0.2087 -0.4477 -0.4615
32421SOL    HW1 2583   3.581   8.334   7.590 -0.0139 -1.9074  1.4462
32421SOL    HW2 2584   3.475   8.440   7.604  1.3406  0.3446 -3.2478
32422SOL     OW 2585   0.570   6.782   7.341 -0.4812  0.1048  0.3147
32422SOL    HW1 2586   0.483   6.741   7.336  0.4977 -2.1842  0.6533
32422SOL    HW2 2587   0.595   6.795   7.249 -1.0235  0.4444  0.2103
32423SOL     OW 2588   7.460   8.206   3.795  0.5227  0.3568 -0.0581
32423SOL    HW1 2589   7.432   8.118   3.817  1.0793  0.3888  0.8261
32423SOL    HW2 2590   7.505   8.197   3.711  0.0995 -0.0987 -0.2431
32424SOL     OW 2591   5.679   6.073   7.033 -0.7836  0.4071 -0.0947
32424SOL    HW1 2592   5.605   6.014   7.024  1.1329 -1.9612 -1.4365
32424SOL    HW2 2593   5.744   6.023   7.081  0.8196  1.5183 -1.0125
32425SOL     OW 2594   2.266   2.610   3.946  0.1056 -0.1143  0.2420
32425SOL    HW1 2595   2.196   2.580   3.888  0.7306 -0.8103 -0.1803
32425SOL    HW2 2596   2.262   2.551   4.021 -0.4181  0.5037  0.7062
32426SOL     OW 2597   7.287   9.279   7.498  0.2067  0.4899 -0.1557
32426SOL    HW1 2598   7.363   9.251   7.549 -0.4376  0.2130  0.6899
32426SOL    HW2 2599   7.292   9.375   7.498  0.9926  0.4556 -0.8105
32427SOL     OW 2600   4.298   6.989   4.483 -0.1873  0.3703  0.0336
32427SOL    HW1 2601   4.359   6.926   4.444 -1.4222 -0.4150 -0.6981
32427SOL    HW2 2602   4.261   6.943   4.558 -0.3162  0.6101  0.1173
32428SOL     OW 2603   0.024   2.322   9.755  0.1396  0.3646 -0.5027
32428SOL    HW1 2604  -0.067   2.351   9.763  0.2083  0.4173  0.1319
32428SOL    HW2 2605   0.066   2.390   9.701 -0.1328  0.4813 -0.5675
32429SOL     OW 2606   9.188   8.127   4.083 -0.4173 -0.4188  0.0523
32429SOL    HW1 2607   9.218   8.213   4.112  1.2892 -0.5510 -1.1555
32429SOL    HW2 2608   9.094   8.137   4.069 -0.1683  1.4101 -0.5538
32430SOL     OW 2609  10.942   2.982  10.106 -0.5197 -0.1325  0.4680
32430SOL    HW1 2610  11.019   2.962  10.053 -0.1655  0.6350  0.6724
32430SOL    HW2 2611  10.976   2.991  10.195 -0.8396  0.2367  0.5543
32431SOL     OW 2612   9.261   7.420   6.322 -0.2652 -0.3601  0.2346
32431SOL    HW1 2613   9.327   7.382   6.263  0.0239 -0.0430  0.3493
32431SOL    HW2 2614   9.311   7.481   6.377 -0.7435  0.2901 -0.0391
32432SOL     OW 2615   6.920  11.440   4.911 -0.3552 -0.0491 -0.7830
32432SOL    HW1 2616   6.923  11.535   4.926  0.1051 -0.3636  1.2870
32432SOL    HW2 2617   6.833  11.426   4.873 -0.6396  1.1292 -0.6240
32433SOL     OW 2618   4.849   9.511   8.290 -0.0788 -0.4770 -0.1279
32433SOL    HW1 2619   4.808   9.432   8.326 -0.8814  0.1414  0.3538
32433SOL    HW2 2620   4.811   9.520   8.203 -1.4823  0.4223  0.5361
32434SOL     OW 2621   0.956   9.865   7.015 -0.0173  0.6272  0.1977
32434SOL    HW1 2622   0.872   9.819   7.016  0.0822  0.4210  1.6016
32434SOL    HW2 2623   1.009   9.817   6.952 -1.0593  0.9796 -0.9859
32435SOL     OW 2624   6.704   6.551  10.052 -0.3619  0.5097 -0.1544
32435SOL    HW1 2625   6.631   6.613  10.046 -0.3837  0.7435  1.8995
32435SOL    HW2 2626   6.663   6.465  10.039 -0.9665  0.6675  0.6052
32436SOL     OW 2627   0.072   1.485   9.093  0.6366 -0.3787 -0.5392
32436SOL    HW1 2628   0.011   1.445   9.031 -2.9822  0.9759  1.8160
32436SOL    HW2 2629   0.121   1.550   9.041 -0.8286 -0.6502 -2.3336
32437SOL     OW 2630   4.525   0.830   3.738 -0.2092 -0.2891 -0.0249
32437SOL    HW1 2631   4.608   0.811   3.781  0.8191  1.2081 -1.2567
32437SOL    HW2 2632   4.463   0.842   3.811  0.9767 -0.0108  0.9708
32438SOL     OW 2633   0.253  10.291   4.981 -0.0802  0.4486 -0.0709
32438SOL    HW1 2634   0.235  10.326   4.894 -1.2398  0.2639  0.0732
32438SOL    HW2 2635   0.177  10.236   5.001  0.4779 -0.0385  0.7876
32439SOL     OW 2636   5.771   4.908   8.267 -0.1980  0.2219  0.3186
32439SOL    HW1 2637   5.690   4.901   8.216  1.4964 -1.3531 -2.4596
32439SOL    HW2 2638   5.802   4.818   8.275  2.2898  0.9248 -0.5730
32440SOL     OW 2639   7.470   0.674   5.990  0.3304  0.4638  0.4299
32440SOL    HW1 2640   7.453   0.750   5.934 -1.3388 -0.9520 -1.1312
32440SOL    HW2 2641   7.384   0.651   6.025  0.8950 -0.3997  1.3071
32441SOL     OW 2642   2.634   1.971   0.962  0.4602  0.0412 -0.1917
32441SOL    HW1 2643   2.567   1.903   0.962 -0.8973  1.3251 -0.0617
32441SOL    HW2 2644   2.654   1.984   0.869  0.1963 -0.0355 -0.2615
32442SOL     OW 2645   1.312   6.082  10.301 -0.5829 -0.3685 -0.0849
32442SOL    HW1 2646   1.258   6.101  10.225 -1.2987  0.1612  0.5406
32442SOL    HW2 2647   1.373   6.015  10.271 -0.6303  0.0731 -1.2145
32443SOL     OW 2648   0.062  10.279   4.719 -0.2627  0.2249  0.2352
32443SOL    HW1 2649   0.072  10.342   4.648  0.5217  0.1236  0.2456
32443SOL    HW2 2650   0.118  10.205   4.694 -0.2096  0.0609  0.8130
32444SOL     OW 2651   1.560   7.625   3.195  0.0904 -0.4539  0.7908
32444SOL    HW1 2652   1.474   7.630   3.236  0.3372  0.2689  1.2264
32444SOL    HW2 2653   1.600   7.710   3.211  0.7813 -0.6836  0.3453
32445SOL     OW 2654   6.212   7.954   2.305 -0.2984 -0.5165 -0.0382
32445SOL    HW1 2655   6.290   8.006   2.325 -2.2048  1.6266  2.3952
32445SOL    HW2 2656   6.161   8.010   2.247 -0.7407 -1.2570 -0.3715
32446SOL     OW 2657  10.355   5.637   2.127 -0.0662  0.2139 -0.0995
32446SOL    HW1 2658  10.322   5.579   2.196  0.1477  1.4866  1.1135
32446SOL    HW2 2659  10.369   5.721   2.170  2.2484  0.4686 -1.1740
32447SOL     OW 2660   2.254   4.641  11.462  0.5778  0.2705 -0.4855
32447SOL    HW1 2661   2.215   4.724  11.437 -2.0641 -1.0499 -1.1570
32447SOL    HW2 2662   2.316   4.662  11.532  1.1268  2.9238 -1.6785
32448SOL     OW 2663   3.993   5.034   6.434  0.5224 -0.6194  0.4025
32448SOL    HW1 2664   3.974   4.945   6.405  1.4010 -0.5954 -0.3100
32448SOL    HW2 2665   4.076   5.055   6.391 -0.1491  0.8947 -0.2185
32449SOL     OW 2666   6.413  10.612   9.790 -0.2265  0.3406 -0.0358
32449SOL    HW1 2667   6.479  10.545   9.807  0.5949  0.7409 -1.4743
32449SOL    HW2 2668   6.344  10.595   9.854  0.3199 -1.3764  0.1353
32450SOL     OW 2669   8.582   6.475   0.179  0.6425  0.5853  0.8214
32450SOL    HW1 2670   8.609   6.566   0.173  2.2917  0.2323  1.9898
32450SOL    HW2 2671   8.632   6.440   0.253  0.1202 -1.2877  0.3551
32451SOL     OW 2672   8.235   8.402   2.786  0.5150 -0.3679 -0.1272
32451SOL    HW1 2673   8.227   8.426   2.694 -1.1566  1.3763  0.3985
32451SOL    HW2 2674   8.274   8.479   2.827 -0.4882 -0.3763  0.8934
32452SOL     OW 2675  10.988   3.572   0.504 -0.0150 -0.8485 -0.3180
32452SOL    HW1 2676  11.017   3.607   0.589 -2.3849  0.1898  0.1334
32452SOL    HW2 2677  11.006   3.642   0.442  0.6637 -1.1723 -0.5031
32453SOL     OW 2678  11.424  10.499   3.793 -0.3764 -0.5533 -0.4392
32453SOL    HW1 2679  11.513  10.468   3.805 -0.9853 -1.7386  1.6707
32453SOL    HW2 2680  11.431  10.595   3.795  0.7167 -0.6088  1.5238
32454SOL     OW 2681  11.483  10.294   1.708  0.0943 -0.0710 -0.2563
32454SOL    HW1 2682  11.504  10.218   1.763  1.6389 -1.3642 -2.4947
32454SOL    HW2 2683  11.407  10.334   1.751  0.0183 -2.1218  1.7084
32455SOL     OW 2684  11.770   7.452  11.007  0.1400  0.0144 -0.0701
32455SOL    HW1 2685  11.801   7.455  10.916  0.4824 -0.9025  0.0109
32455SOL    HW2 2686  11.702   7.520  11.010 -0.9150 -0.9202 -1.4031
32456SOL     OW 2687   5.835   7.248   8.095 -0.7172  0.1759  0.2218
32456SOL    HW1 2688   5.788   7.322   8.056  1.5736  1.7765  0.3128
32456SOL    HW2 2689   5.816   7.253   8.188 -0.9980  0.3027  0.1573
32457SOL     OW 2690   0.851   6.824   4.215 -0.2196 -0.0911 -0.4296
32457SOL    HW1 2691   0.825   6.880   4.288 -1.2784 -0.2193 -0.7010
32457SOL    HW2 2692   0.801   6.743   4.228  1.7137 -1.2510  0.2975
32458SOL     OW 2693  10.992  11.197   8.625 -0.7840  0.3126  0.7173
32458SOL    HW1 2694  11.051  11.250   8.572  0.0202  0.6283  1.8907
32458SOL    HW2 2695  10.904  11.228   8.602 -0.4622  0.4213 -0.4273
32459SOL     OW 2696   2.264   6.966   1.312 -0.1319  0.0701 -0.3473
32459SOL    HW1 2697   2.234   6.965   1.403 -0.2907 -1.3406 -0.3843
32459SOL    HW2 2698   2.213   6.897   1.270  1.6624 -0.9589 -0.9194
32460SOL     OW 2699   4.878   9.126  10.072 -0.2483 -0.3286  0.0675
32460SOL    HW1 2700   4.848   9.065  10.140 -0.0262 -1.9266 -1.1938
32460SOL    HW2 2701   4.797   9.159  10.032 -0.3868 -0.8945 -0.1410
32461SOL     OW 2702   1.067   6.065   8.391 -0.6262  0.3223  0.2371
32461SOL    HW1 2703   1.012   6.051   8.315 -2.1690  0.5259  1.2728
32461SOL    HW2 2704   1.032   6.006   8.458 -0.7188  1.7088  1.4682
32462SOL     OW 2705   0.492   2.900   2.502  0.1277 -0.2047  0.0817
32462SOL    HW1 2706   0.405   2.862   2.489 -0.5744  1.4749 -0.3397
32462SOL    HW2 2707   0.495   2.922   2.595  0.3799 -0.8729  0.2396
32463SOL     OW 2708   9.427   0.643   5.110  0.2296 -0.3320  0.2985
32463SOL    HW1 2709   9.451   0.699   5.184  0.5355 -1.5339  1.1402
32463SOL    HW2 2710   9.335   0.665   5.093  0.4859  0.7720  0.2835
32464SOL     OW 2711  10.517   4.669   1.216 -0.2081 -0.0297  0.2656
32464SOL    HW1 2712  10.454   4.630   1.276  0.3932  0.0236  0.9511
32464SOL    HW2 2713  10.589   4.697   1.273  1.0364 -1.2873 -0.6440
32465SOL     OW 2714  10.064   6.065   4.437  0.1493  0.0957  0.0368
32465SOL    HW1 2715  10.132   6.107   4.490 -1.1856  1.3766  0.7801
32465SOL    HW2 2716  10.080   6.096   4.348  0.5241  0.3795  0.2026
32466SOL     OW 2717   8.764  11.369   6.214  0.4186 -0.3570  0.0221
32466SOL    HW1 2718   8.771  11.354   6.308  0.0171 -2.8377 -0.2805
32466SOL    HW2 2719   8.681  11.414   6.202  0.2760 -0.4025  0.8139
32467SOL     OW 2720   3.767   8.486   8.955 -0.9369 -0.1720  0.4356
32467SOL    HW1 2721   3.776   8.425   9.029  2.2222  0.0006  0.3609
32467SOL    HW2 2722   3.762   8.429   8.878 -1.0127 -0.3510  0.5718
32468SOL     OW 2723   5.947   3.933   6.351  0.3338 -0.0392 -0.7006
32468SOL    HW1 2724   5.855   3.928   6.328  0.2818  1.1629 -0.8282
32468SOL    HW2 2725   5.973   3.842   6.368 -1.2777 -0.2498  0.9993
32469SOL     OW 2726   4.192   2.053  11.482  0.4572  0.2311  0.0867
32469SOL    HW1 2727   4.145   1.996  11.420  0.3050  2.8859 -2.4502
32469SOL    HW2 2728   4.125   2.079  11.545  0.2423 -1.3506  0.5667
32470SOL     OW 2729   7.324   8.112   4.780  0.4264 -0.2350 -0.1349
32470SOL    HW1 2730   7.406   8.102   4.731  1.0467 -2.1856  1.1805
32470SOL    HW2 2731   7.352   8.146   4.866  0.0435 -2.0800  0.7564
32471SOL     OW 2732  11.693   8.298  11.342  0.1018 -0.0674  0.1600
32471SOL    HW1 2733  11.666   8.212  11.309  0.6015  0.0520 -0.5736
32471SOL    HW2 2734  11.650   8.360  11.283 -0.6823  0.2093  1.0053
32472SOL     OW 2735  11.419   6.397   5.564  0.6054  0.6073 -0.0697
32472SOL    HW1 2736  11.401   6.486   5.534 -1.8114 -0.2157 -1.3156
32472SOL    HW2 2737  11.347   6.377   5.623  1.0238 -0.6193  0.0483
32473SOL     OW 2738  11.340   1.956   1.398 -0.0281  0.0751  0.3106
32473SOL    HW1 2739  11.432   1.963   1.422 -0.2517 -0.6327  1.4406
32473SOL    HW2 2740  11.293   1.993   1.473 -0.6410  1.4033 -0.6999
32474SOL     OW 2741  11.088   7.298   8.220  0.2632  0.4463 -0.2682
32474SOL    HW1 2742  11.157   7.326   8.280 -0.7409 -0.0751  1.1779
32474SOL    HW2 2743  11.073   7.206   8.240 -3.2099  1.3058  2.0065
32475SOL     OW 2744   0.735   4.655   0.618 -0.2667 -0.5313  0.4640
32475SOL    HW1 2745   0.818   4.673   0.574  0.6709 -0.3238  2.2207
32475SOL    HW2 2746   0.675   4.632   0.547  0.8259  0.9164 -1.0304
32476SOL     OW 2747   0.331   8.413   9.513  0.3782 -1.1812  0.2681
32476SOL    HW1 2748   0.401   8.478   9.523  0.9891 -2.1436  3.1071
32476SOL    HW2 2749   0.256   8.464   9.483  1.4492  0.4200  0.1265
32477SOL     OW 2750  10.794   5.741   4.077  0.0183 -0.2948 -0.0245
32477SOL    HW1 2751  10.843   5.798   4.136 -1.7342  0.8857  0.3761
32477SOL    HW2 2752  10.751   5.801   4.017 -2.4615 -1.0819  0.8508
32478SOL     OW 2753   8.616   0.213   6.767  0.3955 -0.3707 -0.2995
32478SOL    HW1 2754   8.585   0.217   6.858 -0.9529  0.8420 -0.7633
32478SOL    HW2 2755   8.632   0.120   6.751  0.0453 -0.6746  0.9859
32479SOL     OW 2756   9.441   6.386   5.599 -0.0335 -0.4912  0.2289
32479SOL    HW1 2757   9.500   6.447   5.642  0.2783 -0.9371  0.4480
32479SOL    HW2 2758   9.447   6.306   5.651 -3.1515  0.3357  2.1580
32480SOL     OW 2759   8.607   8.206   7.660  0.3547  0.0248  0.4922
32480SOL    HW1 2760   8.553   8.143   7.612  0.3181  0.2019  0.2987
32480SOL    HW2 2761   8.578   8.291   7.627  0.6219  0.1281  0.5260
32481SOL     OW 2762   4.867   6.401  11.429  0.2529 -0.1817 -0.0459
32481SOL    HW1 2763   4.890   6.322  11.478  0.5275 -0.9003 -1.2985
32481SOL    HW2 2764   4.951   6.432  11.394  0.0109  0.0874 -0.3903
32482SOL     OW 2765   0.021   8.036   9.662  0.2353 -0.4936  0.0796
32482SOL    HW1 2766   0.087   8.077   9.717  0.7176  1.4646 -1.8120
32482SOL    HW2 2767  -0.060   8.082   9.683  0.3392 -0.0223 -0.5295
32483SOL     OW 2768  11.487   0.648   4.042  0.2314 -0.1469  0.1207
32483SOL    HW1 2769  11.574   0.684   4.057  0.1534 -0.5004  1.5334
32483SOL    HW2 2770  11.437   0.671   4.120 -0.1277 -2.3137  0.5950
32484SOL     OW 2771   7.522   0.421  10.463 -0.5547  0.3239  0.5026
32484SOL    HW1 2772   7.581   0.416  10.388 -0.7744  2.1703  0.1705
32484SOL    HW2 2773   7.444   0.374  10.435 -0.9070  1.5730 -0.7196
32485SOL     OW 2774   8.966  10.231   9.251 -0.5625  0.6941 -0.3770
32485SOL    HW1 2775   9.019  10.176   9.194  1.1838  0.9800  0.9066
32485SOL    HW2 2776   8.886  10.180   9.265  0.1585 -0.6156 -0.8227
32486SOL     OW 2777   4.295  10.815   4.060 -0.1303  0.1431 -0.2746
32486SOL    HW1 2778   4.368  10.768   4.021  0.2869  0.4170  0.1727
32486SOL    HW2 2779   4.301  10.798   4.153 -0.3416  0.5731 -0.1766
32487SOL     OW 2780   6.331   0.271   4.056 -0.0630  0.1457  0.2401
32487SOL    HW1 2781   6.312   0.189   4.101  1.8144 -0.4946 -0.0068
32487SOL    HW2 2782   6.419   0.295   4.086  1.0841 -0.0574 -2.5946
32488SOL     OW 2783   2.764   4.967   7.413  0.2095  0.0709  0.2824
32488SOL    HW1 2784   2.836   4.962   7.349 -0.1501 -0.3826 -0.1000
32488SOL    HW2 2785   2.700   4.903   7.381 -1.8288  2.6276 -1.2073
32489SOL     OW 2786   8.805   9.199  10.880 -0.3843 -0.2170 -0.0332
32489SOL    HW1 2787   8.712   9.182  10.864  0.2066 -2.4398 -1.5309
32489SOL    HW2 2788   8.848   9.181  10.797  1.6709 -1.7905  1.2691
32490SOL     OW 2789   8.184  11.735  10.934  0.1904  0.0077 -0.0137
32490SOL    HW1 2790   8.114  11.677  10.905  0.0095 -1.5332  3.1648
32490SOL    HW2 2791   8.179  11.811  10.875 -2.2271 -1.3442 -1.6802
32491SOL     OW 2792   0.850   8.167   7.007 -0.3780  0.2666 -0.0621
32491SOL    HW1 2793   0.812   8.079   7.008 -2.3490  1.0518  1.6700
32491SOL    HW2 2794   0.839   8.199   7.097  1.6564  1.7649 -0.2607
32492SOL     OW 2795   0.558  10.789   6.748  0.5112  0.6383  0.3055
32492SOL    HW1 2796   0.565  10.873   6.704  0.3720 -0.4308 -1.8682
32492SOL    HW2 2797   0.484  10.746   6.707  0.8264 -0.7263  1.0867
32493SOL     OW 2798  11.376  11.162   0.378 -0.2581  0.4382  0.0979
32493SOL    HW1 2799  11.289  11.190   0.350  0.0426 -0.5339 -1.9472
32493SOL    HW2 2800  11.410  11.110   0.305  1.6887  0.0372  1.2133
32494SOL     OW 2801   9.845   3.810  11.348  0.3498  0.4651 -0.7612
32494SOL    HW1 2802   9.750   3.810  11.347  0.3372 -0.8501 -1.0359
32494SOL    HW2 2803   9.871   3.766  11.267  1.1493 -0.4905 -0.0161
32495SOL     OW 2804   5.307   1.885   0.174 -0.5346 -0.1306 -0.3039
32495SOL    HW1 2805   5.272   1.841   0.252 -0.4155  2.7390  1.5284
32495SOL    HW2 2806   5.230   1.900   0.120 -1.2010  0.6507  0.8047
32496SOL     OW 2807   8.051   8.429   2.153 -0.5382 -0.6037  0.3661
32496SOL    HW1 2808   8.044   8.525   2.156 -0.4958 -0.6017  0.4256
32496SOL    HW2 2809   8.090   8.410   2.068 -0.8636 -0.5883  0.2102
32497SOL     OW 2810   4.214   5.810   8.741 -0.0556 -0.4001 -0.6852
32497SOL    HW1 2811   4.290   5.827   8.797  0.1466 -1.5795 -0.5810
32497SOL    HW2 2812   4.152   5.763   8.798 -0.6843  0.1657 -0.8923
32498SOL     OW 2813   9.389   6.461   5.322  0.1811  1.0253  0.0738
32498SOL    HW1 2814   9.367   6.372   5.295 -2.9524  1.4787  0.6616
32498SOL    HW2 2815   9.420   6.452   5.412 -0.9488  0.5561  0.4393
32499SOL     OW 2816   6.042   3.026   5.878  0.0689 -0.2693  0.2957
32499SOL    HW1 2817   6.076   3.029   5.789  2.9918  3.0691  1.3204
32499SOL    HW2 2818   5.947   3.027   5.867  0.3069 -1.1342 -2.7310
32500SOL     OW 2819   7.573   9.461  10.410  0.1981 -0.2045 -0.1373
32500SOL    HW1 2820   7.635   9.453  10.482 -0.7415 -1.6290  0.5819
32500SOL    HW2 2821   7.506   9.395  10.429 -0.1230 -0.5927 -2.2904
32501SOL     OW 2822  10.011   3.489   4.817  0.2243 -0.6212  0.1369
32501SOL    HW1 2823  10.037   3.571   4.775  1.7550 -1.6385 -1.0250
32501SOL    HW2 2824   9.984   3.432   4.745  1.6076 -1.9583  0.5951
32502SOL     OW 2825   4.699   1.231   6.014 -0.0770  0.5126 -0.3246
32502SOL    HW1 2826   4.622   1.288   6.015 -0.4554  0.1145  2.7399
32502SOL    HW2 2827   4.687   1.174   6.090  3.0487  0.1909  0.0452
32503SOL     OW 2828   5.363   8.338   8.797  0.3044 -0.0391 -0.1640
32503SOL    HW1 2829   5.364   8.424   8.755  2.7789  0.7187  1.2475
32503SOL    HW2 2830   5.296   8.346   8.865  1.4806  1.3366  0.8988
32504SOL     OW 2831   6.289   0.258   6.276  0.0570 -0.1079  0.1206
32504SOL    HW1 2832   6.217   0.202   6.247 -0.4784  1.2717 -1.3178
32504SOL    HW2 2833   6.264   0.346   6.249  1.2850  0.7261  1.5619
32505SOL     OW 2834   4.263   0.558   3.264 -0.0039 -0.3518 -0.0439
32505SOL    HW1 2835   4.278   0.651   3.250 -2.5338 -0.0245 -1.2050
32505SOL    HW2 2836   4.241   0.523   3.177  0.9947 -2.0844  0.3395
32506SOL     OW 2837  10.187   1.099   8.345  0.1168 -0.3397  0.2221
32506SOL    HW1 2838  10.146   1.113   8.260 -0.0806  0.9907  0.5238
32506SOL    HW2 2839  10.235   1.180   8.362  2.1066 -1.4770  0.3190
32507SOL     OW 2840   0.217   8.629   3.852 -0.1317  0.3622  0.2039
32507SOL    HW1 2841   0.248   8.637   3.762 -1.1883  1.8496 -0.0598
32507SOL    HW2 2842   0.295   8.603   3.901  0.5849  0.0673 -1.0440
32508SOL     OW 2843   1.942   2.050   7.921 -0.4575  0.1399 -0.3364
32508SOL    HW1 2844   1.900   1.968   7.898 -2.7000  1.4528 -1.1620
32508SOL    HW2 2845   2.001   2.027   7.993 -2.1322 -1.9243  0.4769
32509SOL     OW 2846   8.488   1.558  11.571 -0.2730  0.5058 -1.0552
32509SOL    HW1 2847   8.394   1.565  11.557 -0.2041  1.0951 -1.2548
32509SOL    HW2 2848   8.515   1.646  11.596 -0.5057 -0.5008  3.6975
32510SOL     OW 2849   8.478   3.404   1.294  0.1098 -0.1488  1.1049
32510SOL    HW1 2850   8.430   3.413   1.212  0.7945 -1.4891  0.5263
32510SOL    HW2 2851   8.557   3.356   1.271  0.0455 -1.0717  2.6525
32511SOL     OW 2852   3.670   9.207   9.983 -0.7656  0.4171 -0.4631
32511SOL    HW1 2853   3.676   9.141  10.053 -1.9530  0.3679 -0.3888
32511SOL    HW2 2854   3.578   9.205   9.956 -0.2611  0.1929 -2.2834
32512SOL     OW 2855  10.338   9.740  10.657  0.0699 -0.1807  0.4843
32512SOL    HW1 2856  10.291   9.668  10.614 -0.8614  0.2987  0.6647
32512SOL    HW2 2857  10.384   9.698  10.730  0.0018 -0.6785  0.2501
32513SOL     OW 2858  10.024  10.632   6.703  0.6102 -0.1105 -0.9060
32513SOL    HW1 2859  10.102  10.686   6.706  0.6045 -0.1103 -0.7857
32513SOL    HW2 2860   9.965  10.678   6.644  0.0426  0.7583  0.3037
32514SOL     OW 2861   4.811   4.280   4.380 -0.1340  0.3195  0.3592
32514SOL    HW1 2862   4.769   4.218   4.440  0.0485  1.0429  1.2539
32514SOL    HW2 2863   4.738   4.320   4.332 -0.3016 -0.0675  0.2900
32515SOL     OW 2864   6.707   3.811  11.392 -0.7643 -0.3292 -0.1776
32515SOL    HW1 2865   6.692   3.789  11.300  0.2868  1.4019 -0.8196
32515SOL    HW2 2866   6.802   3.803  11.403 -0.7849  0.2522  0.5133
32516SOL     OW 2867   7.541   3.975   7.590 -0.1063 -0.4231  0.2065
32516SOL    HW1 2868   7.512   3.898   7.541 -0.2415 -0.8062  0.8801
32516SOL    HW2 2869   7.538   3.948   7.682  0.0353  0.3214  0.4382
32517SOL     OW 2870   8.766   6.753   7.429  0.3998 -0.1406 -0.0558
32517SOL    HW1 2871   8.853   6.772   7.467  0.1842  2.0935 -0.5492
32517SOL    HW2 2872   8.753   6.660   7.446  2.3383 -0.2533  1.1866
32518SOL     OW 2873   6.903   1.314   7.299 -0.3277  0.9166  0.5459
32518SOL    HW1 2874   6.931   1.387   7.354 -0.2867  0.2938  1.3570
32518SOL    HW2 2875   6.984   1.268   7.277 -0.4621  0.5284  0.8703
32519SOL     OW 2876   5.064   9.699   0.768 -0.6161 -0.3570 -0.3082
32519SOL    HW1 2877   5.132   9.743   0.819  0.2066 -0.4661 -1.2984
32519SOL    HW2 2878   5.062   9.609   0.802  0.5229 -0.6666 -1.0444
32520SOL     OW 2879   0.898   6.134   6.526  0.0447  0.2100 -0.0629
32520SOL    HW1 2880   0.891   6.050   6.480  0.1299  0.4521 -0.5304
32520SOL    HW2 2881   0.830   6.130   6.593 -1.6936  0.7480 -1.6932
32521SOL     OW 2882   0.381   7.542   5.651  0.1145  0.3847 -0.6606
32521SOL    HW1 2883   0.381   7.611   5.585 -1.2807  1.4710  0.4210
32521SOL    HW2 2884   0.444   7.571   5.717 -2.0441  1.8115  0.8960
32522SOL     OW 2885   9.229   4.839  11.672  0.5153 -0.3137 -0.3549
32522SOL    HW1 2886   9.300   4.775  11.672 -0.1892 -1.1637 -2.1520
32522SOL    HW2 2887   9.247   4.895  11.596 -0.7208 -0.5580 -0.8497
32523SOL     OW 2888   0.010   2.115   1.724 -0.1613  0.5570 -0.3062
32523SOL    HW1 2889  -0.045   2.181   1.683 -1.0462  0.4717  0.7238
32523SOL    HW2 2890  -0.041   2.081   1.797 -0.1918 -2.0286 -1.3884
32524SOL     OW 2891   0.916   8.207   9.946  0.7463  0.0435  0.4875
32524SOL    HW1 2892   0.990   8.149   9.928 -0.6807 -1.4415 -0.8126
32524SOL    HW2 2893   0.914   8.267   9.871 -0.8708 -1.5735 -0.8349
32525SOL     OW 2894   4.171   6.961  10.548  0.5894 -0.1018  0.1977
32525SOL    HW1 2895   4.248   6.904  10.542 -0.2931 -1.2560 -0.5488
32525SOL    HW2 2896   4.098   6.901  10.562 -0.4151  0.7985 -0.9568
32526SOL     OW 2897   0.326   5.970  11.825 -0.4281  0.6221  0.1380
32526SOL    HW1 2898   0.331   5.921  11.743  0.3521 -1.2555  1.2558
32526SOL    HW2 2899   0.310   6.061  11.797  0.5243  0.1745 -2.1008
32527SOL     OW 2900   3.459  10.909   8.191 -0.6510 -0.2315  0.0927
32527SOL    HW1 2901   3.392  10.939   8.253  0.1092  2.0662 -0.0949
32527SOL    HW2 2902   3.526  10.869   8.247 -1.4196 -1.1088  0.4197
32528SOL     OW 2903   3.784  10.143   9.574 -0.5685 -0.0834  0.5010
32528SOL    HW1 2904   3.814  10.210   9.635  0.6451  0.4502 -0.6209
32528SOL    HW2 2905   3.690  10.159   9.564 -0.1685  2.0352 -0.3809
32529SOL     OW 2906   7.831   3.980   8.320  0.1005 -0.1306 -0.0706
32529SOL    HW1 2907   7.816   3.983   8.225 -0.2203 -0.9615 -0.0512
32529SOL    HW2 2908   7.743   3.979   8.358  0.1690 -2.1284  0.1459
32530SOL     OW 2909   2.913   4.907   9.147  0.3457 -0.4932  0.4964
32530SOL    HW1 2910   2.994   4.940   9.184 -0.5328  2.0275  0.3507
32530SOL    HW2 2911   2.938   4.868   9.064  1.6307 -1.4982  1.3189
32531SOL     OW 2912   1.068   8.860   1.471  0.1800 -0.1974 -0.2661
32531SOL    HW1 2913   1.155   8.840   1.505  0.6651  0.2767 -1.1631
32531SOL    HW2 2914   1.040   8.779   1.427 -0.0731 -0.5212  0.4687
32532SOL     OW 2915   6.473   7.294   8.802 -0.3224 -0.2277  0.7078
32532SOL    HW1 2916   6.473   7.206   8.764 -0.1871 -1.1349  2.6973
32532SOL    HW2 2917   6.381   7.313   8.817 -0.4211  0.3658 -0.4923
32533SOL     OW 2918   6.463   3.181   5.611 -0.3656 -0.4180 -0.5064
32533SOL    HW1 2919   6.460   3.240   5.536 -0.2396 -2.4149 -2.1730
32533SOL    HW2 2920   6.548   3.138   5.605 -0.8732 -1.5626 -0.0021
32534SOL     OW 2921   6.193   3.231   8.226 -0.3533 -0.0825 -0.1207
32534SOL    HW1 2922   6.127   3.166   8.203 -1.4503  0.9790 -0.0925
32534SOL    HW2 2923   6.156   3.275   8.303  0.4008  0.5114 -0.0942
32535SOL     OW 2924  11.504   6.150   3.249 -0.1060  0.4518  0.4627
32535SOL    HW1 2925  11.426   6.167   3.197 -0.8968  0.6553  1.6965
32535SOL    HW2 2926  11.571   6.206   3.210 -0.6246  0.4475 -0.4588
32536SOL     OW 2927   4.178   0.241   4.476 -0.1540  0.6127 -0.4562
32536SOL    HW1 2928   4.264   0.231   4.435  0.2212  0.6990  0.2877
32536SOL    HW2 2929   4.196   0.240   4.570 -1.2957 -2.9064 -0.0937
32537SOL     OW 2930   4.469   9.010   6.873  0.2402  0.1928 -0.3810
32537SOL    HW1 2931   4.446   9.101   6.892 -1.6264 -0.4427  0.6799
32537SOL    HW2 2932   4.524   8.983   6.946 -0.9400 -0.1137  0.4234
32538SOL     OW 2933   2.603   8.102   9.792 -0.1068 -0.0445 -0.0876
32538SOL    HW1 2934   2.620   8.190   9.828  0.3605 -0.5028  0.8601
32538SOL    HW2 2935   2.648   8.043   9.853  1.0198 -0.8464 -1.6361
32539SOL     OW 2936  10.876   4.432   2.721 -0.3884  0.1033  0.1584
32539SOL    HW1 2937  10.907   4.475   2.800 -0.0306 -0.2251  0.2028
32539SOL    HW2 2938  10.853   4.343   2.750 -1.3481  0.3315  0.1202
32540SOL     OW 2939   5.136   7.337   4.093  0.0082 -0.0728  0.2102
32540SOL    HW1 2940   5.162   7.248   4.070 -0.6379 -0.4188  0.7941
32540SOL    HW2 2941   5.177   7.392   4.026  0.3144 -0.8194 -0.2238
32541SOL     OW 2942   8.605   6.528   5.775 -0.2821 -0.3006  0.4037
32541SOL    HW1 2943   8.559   6.601   5.815 -2.1886 -1.0859 -0.2189
32541SOL    HW2 2944   8.580   6.531   5.683  0.4858 -1.1128  0.1489
32542SOL     OW 2945   1.385   7.925  10.608  1.1424  0.3220  0.3361
32542SOL    HW1 2946   1.372   7.925  10.513  1.4776  0.4650  0.2886
32542SOL    HW2 2947   1.374   8.016  10.634 -0.4293  0.0760  0.6509
32543SOL     OW 2948   4.633   9.157   6.224 -0.2865  0.3356  0.0497
32543SOL    HW1 2949   4.574   9.207   6.167 -0.1045 -0.0986 -0.5271
32543SOL    HW2 2950   4.583   9.144   6.305 -0.5706  0.9062 -0.0330
32544SOL     OW 2951   3.298   0.775   5.441 -0.3806 -0.1409 -0.0945
32544SOL    HW1 2952   3.270   0.793   5.530 -0.7945  0.0441 -0.2605
32544SOL    HW2 2953   3.221   0.738   5.398 -0.5821  0.9831 -0.7362
32545SOL     OW 2954   7.213   1.061   8.902 -0.3335  0.4222 -0.8290
32545SOL    HW1 2955   7.239   1.105   8.821  0.5775 -0.0853 -0.8198
32545SOL    HW2 2956   7.134   1.011   8.878  0.4282 -0.4298 -1.6491
32546SOL     OW 2957   2.769  11.787  10.614 -0.4442  0.4553 -0.2878
32546SOL    HW1 2958   2.813  11.872  10.615 -0.9068  0.7936  2.9642
32546SOL    HW2 2959   2.678  11.807  10.635 -0.9480 -0.7373 -1.2334
32547SOL     OW 2960   6.200   0.523  11.003 -0.3533  0.3958 -0.0522
32547SOL    HW1 2961   6.147   0.597  11.033  0.6641  1.0402  0.2073
32547SOL    HW2 2962   6.161   0.498  10.919 -1.7827  0.0867  0.6644
32548SOL     OW 2963  11.694   2.503   8.328  0.1400  0.6288 -0.0234
32548SOL    HW1 2964  11.769   2.521   8.271  0.4411  1.5985  0.6432
32548SOL    HW2 2965  11.667   2.589   8.359  0.4532  0.0821  1.8812
32549SOL     OW 2966   3.137   2.087  11.604 -0.0357  0.0314  0.3826
32549SOL    HW1 2967   3.230   2.108  11.596  0.0641 -0.7155 -0.5438
32549SOL    HW2 2968   3.130   1.995  11.579 -0.8795 -0.2441  1.5383
32550SOL     OW 2969   3.078   0.045   1.911 -0.7747  0.2530  0.0938
32550SOL    HW1 2970   3.073   0.062   1.817  0.2923  0.8954  0.1391
32550SOL    HW2 2971   3.160  -0.002   1.923 -1.0938 -0.1837  0.6655
32551SOL     OW 2972   6.532   3.659  10.639 -0.4290 -0.6823  0.1478
32551SOL    HW1 2973   6.480   3.653  10.559 -2.6320 -1.4776  1.5391
32551SOL    HW2 2974   6.501   3.587  10.693 -0.9921  1.3771  2.7814
32552SOL     OW 2975   6.739   8.915   3.314 -0.3994 -0.0148 -0.3369
32552SOL    HW1 2976   6.788   8.974   3.372 -1.9028  0.4224  0.5396
32552SOL    HW2 2977   6.788   8.833   3.317 -0.4033 -0.0068  1.5834
32553SOL     OW 2978   6.525   6.261   5.661 -0.3178  0.0870  0.1282
32553SOL    HW1 2979   6.607   6.234   5.619 -0.4617 -1.2564  0.6520
32553SOL    HW2 2980   6.456   6.219   5.609 -0.6979  1.3840 -0.4387
32554SOL     OW 2981   3.251   8.604   7.884  0.7298 -0.5367  0.0444
32554SOL    HW1 2982   3.283   8.554   7.959  0.1035 -0.0844  0.6266
32554SOL    HW2 2983   3.167   8.640   7.913  1.9648  2.4103  0.3866
32555SOL     OW 2984   2.987  10.171   0.871 -0.0462 -0.1490 -0.5114
32555SOL    HW1 2985   2.935  10.092   0.856  1.2863 -1.5388  1.6253
32555SOL    HW2 2986   2.932  10.226   0.927 -0.2960 -0.3594 -0.5463
32556SOL     OW 2987   1.967   1.249   1.720  0.4636 -0.1650  0.1282
32556SOL    HW1 2988   2.053   1.209   1.730 -0.0421 -1.4835 -0.5460
32556SOL    HW2 2989   1.924   1.198   1.651 -1.3979 -0.5130  1.4423
32557SOL     OW 2990   8.853  10.491   9.932 -0.1122  0.1961 -0.7140
32557SOL    HW1 2991   8.832  10.420   9.993 -0.9252  0.4379 -0.7023
32557SOL    HW2 2992   8.833  10.455   9.846 -1.1761  0.6170 -0.6627
32558SOL     OW 2993   3.540   0.404   9.922  0.6646 -0.0316  0.4060
32558SOL    HW1 2994   3.527   0.309   9.925 -0.4077  0.0646 -0.5368
32558SOL    HW2 2995   3.453   0.441   9.940  0.9665  0.7716  0.2608
32559SOL     OW 2996   8.118   5.943   2.333 -0.1113  0.4601  0.3826
32559SOL    HW1 2997   8.068   5.870   2.371  2.7204 -2.2658 -0.6999
32559SOL    HW2 2998   8.069   5.968   2.255 -1.6249  0.3759  1.2739
32560SOL     OW 2999   1.032   3.178   9.101 -0.0437  0.0206  0.2110
32560SOL    HW1 3000   1.089   3.106   9.074  0.0540  1.0108 -2.5149
32560SOL    HW2 3001   0.943   3.143   9.092  0.0236 -0.6723  1.8789
32561SOL     OW 3002   9.482   4.971   8.269  0.7409 -0.1502 -0.6586
32561SOL    HW1 3003   9.414   5.037   8.282  1.7266  0.9319 -0.8803
32561SOL    HW2 3004   9.512   4.985   8.179  2.1078  0.2172 -0.1618
32562SOL     OW 3005  11.410  10.764   4.082  0.4426  0.1844  0.0064
32562SOL    HW1 3006  11.355  10.787   4.007  0.8996  0.0199 -0.3882
32562SOL    HW2 3007  11.436  10.848   4.120  0.2068  0.2673 -0.0163
32563SOL     OW 3008   5.525   3.891   6.496  0.8972 -0.8884  0.2519
32563SOL    HW1 3009   5.520   3.961   6.561  0.8430 -1.2323  0.6228
32563SOL    HW2 3010   5.447   3.839   6.511  0.0385 -0.0617 -1.1664
32564SOL     OW 3011   9.353   4.510   1.070 -0.1486 -0.3627  0.1991
32564SOL    HW1 3012   9.388   4.422   1.055  1.6187 -0.0648  2.1583
32564SOL    HW2 3013   9.286   4.498   1.137 -1.3421 -0.4463 -0.9776
32565SOL     OW 3014   1.126   5.421  10.887  0.5249 -0.6468 -0.6266
32565SOL    HW1 3015   1.106   5.511  10.914  0.0807 -1.1993  1.0291
32565SOL    HW2 3016   1.214   5.425  10.852  1.3352  0.1196  1.3432
32566SOL     OW 3017   9.883   2.489  11.287  0.2211 -0.1919  0.0054
32566SOL    HW1 3018   9.792   2.464  11.270  0.0413  1.3879 -1.5685
32566SOL    HW2 3019   9.935   2.422  11.243 -0.1964 -0.2196 -0.4527
32567SOL     OW 3020   3.402  10.546   0.595 -0.4721 -0.3389  0.0620
32567SOL    HW1 3021   3.316  10.578   0.571  0.1899  0.0477 -1.9631
32567SOL    HW2 3022   3.385  10.472   0.653 -2.0772  1.3740  1.9247
32568SOL     OW 3023   6.402   1.102   8.915  0.2716  0.3699  0.5270
32568SOL    HW1 3024   6.328   1.162   8.906  0.4102  0.5849  0.8132
32568SOL    HW2 3025   6.371   1.033   8.972 -0.1645 -0.2820 -0.4736
32569SOL     OW 3026   4.671  11.222   3.781  0.0629 -0.1251 -0.3862
32569SOL    HW1 3027   4.636  11.243   3.694  0.1707  0.1905 -0.3534
32569SOL    HW2 3028   4.717  11.301   3.808 -1.5188  0.4622  0.7551
32570SOL     OW 3029   2.412   5.482   0.919  0.2094  0.6655  0.0227
32570SOL    HW1 3030   2.418   5.517   0.830  0.0779  1.4303  0.2996
32570SOL    HW2 3031   2.425   5.559   0.975  1.5148  0.0069  0.6756
32571SOL     OW 3032   9.258   4.630   3.593 -0.1221 -0.4114 -0.1384
32571SOL    HW1 3033   9.292   4.614   3.505  0.2211 -0.2647 -0.0336
32571SOL    HW2 3034   9.164   4.616   3.585 -0.1921  0.3291 -0.7075
32572SOL     OW 3035  11.609   0.069   4.603  0.2897  0.0997  0.2151
32572SOL    HW1 3036  11.626   0.031   4.517  1.2381 -0.2646  0.5518
32572SOL    HW2 3037  11.534   0.127   4.590 -0.3964 -0.9371 -0.5735
32573SOL     OW 3038   9.285   5.899  10.882  0.1676 -0.0756 -0.0526
32573SOL    HW1 3039   9.350   5.871  10.818  1.0789 -0.5171  1.0224
32573SOL    HW2 3040   9.312   5.856  10.964  0.1060  1.8659  1.0620
32574SOL     OW 3041   6.995   2.419   3.569  0.0760  0.9454  0.1774
32574SOL    HW1 3042   6.923   2.434   3.631 -0.6180  4.0330 -1.1816
32574SOL    HW2 3043   7.074   2.433   3.621 -0.3390 -0.2176  1.1656
32575SOL     OW 3044   7.256   3.843   1.732 -0.5766  0.1908 -0.1490
32575SOL    HW1 3045   7.201   3.921   1.729  1.1486  1.4327 -2.1476
32575SOL    HW2 3046   7.321   3.863   1.800 -0.4517  0.2572 -0.2888
32576SOL     OW 3047   3.174   5.873  11.390  0.2679 -0.0216 -0.6092
32576SOL    HW1 3048   3.089   5.889  11.350 -0.7992 -0.6312  1.2849
32576SOL    HW2 3049   3.238   5.901  11.324 -1.3706 -0.2813 -2.3784
32577SOL     OW 3050   9.891   9.889  10.503  0.0681  0.0253  0.0548
32577SOL    HW1 3051   9.894   9.914  10.595 -0.7694 -0.7029  0.2946
32577SOL    HW2 3052   9.921   9.798  10.502  0.6735  0.2233 -0.4813
32578SOL     OW 3053  10.689   9.254   7.372  0.0902 -0.2333  0.4413
32578SOL    HW1 3054  10.599   9.279   7.390  1.0143  1.7059  2.9560
32578SOL    HW2 3055  10.742   9.313   7.426  2.9097 -0.9162 -1.3527
32579SOL     OW 3056   6.772   9.326  11.526  0.5037  0.2799  0.2236
32579SOL    HW1 3057   6.715   9.342  11.450  2.4832  3.0620 -0.8425
32579SOL    HW2 3058   6.800   9.235  11.515 -2.4152 -0.7030 -0.0210
32580SOL     OW 3059   3.489   1.592   2.042  0.4555  0.7922  0.2846
32580SOL    HW1 3060   3.415   1.557   2.091 -0.3573 -1.0957 -2.1074
32580SOL    HW2 3061   3.540   1.514   2.018  2.3066  1.9099  0.4237
32581SOL     OW 3062   1.720   3.608   7.893 -0.1912  0.4093  0.2167
32581SOL    HW1 3063   1.676   3.693   7.898 -1.5327 -0.3191  1.9100
32581SOL    HW2 3064   1.652   3.544   7.916  0.4411 -1.2885 -2.1758
32582SOL     OW 3065   1.804   8.084   1.800 -0.1362 -0.2620 -1.0164
32582SOL    HW1 3066   1.835   8.075   1.890 -2.4833 -0.5866 -0.1836
32582SOL    HW2 3067   1.743   8.157   1.802 -1.9333 -1.6604 -1.8072
32583SOL     OW 3068   8.340   7.541  10.330  0.2478 -0.6164  0.9916
32583SOL    HW1 3069   8.378   7.514  10.246 -1.0291 -1.7555  0.7551
32583SOL    HW2 3070   8.313   7.632  10.316 -0.2009 -0.8804  0.0684
32584SOL     OW 3071  10.654   0.711   2.796  0.2548  0.5572 -0.4140
32584SOL    HW1 3072  10.576   0.754   2.833  0.7685  0.4965  0.7924
32584SOL    HW2 3073  10.727   0.765   2.825  0.7781 -0.2189 -0.2448
32585SOL     OW 3074   5.388   3.822   7.081 -0.2849  0.0904 -0.4598
32585SOL    HW1 3075   5.477   3.793   7.104 -0.9642 -1.1931  0.7277
32585SOL    HW2 3076   5.332   3.749   7.109 -1.4810 -0.4375 -3.8503
32586SOL     OW 3077   1.038   5.531   7.483  0.3863  0.0285  0.7889
32586SOL    HW1 3078   1.047   5.586   7.560 -0.3128  1.0290  0.1833
32586SOL    HW2 3079   1.113   5.553   7.428 -1.2472  2.4402 -0.6593
32587SOL     OW 3080   2.394  10.644   9.592  0.6775  0.3549 -0.4172
32587SOL    HW1 3081   2.349  10.695   9.525  1.1540  1.0888 -0.2052
32587SOL    HW2 3082   2.344  10.660   9.672  1.1392  0.9663 -0.2351
32588SOL     OW 3083  10.744   0.134   3.809 -0.6790  0.2951 -0.4228
32588SOL    HW1 3084  10.775   0.208   3.860  1.4245 -1.1878  0.6315
32588SOL    HW2 3085  10.657   0.159   3.780 -0.6699  2.5118  1.2107
32589SOL     OW 3086   7.441   5.216   6.724  0.0833 -0.4444 -0.5127
32589SOL    HW1 3087   7.369   5.274   6.748  0.3798 -0.0545 -0.5517
32589SOL    HW2 3088   7.450   5.157   6.799  0.1052 -0.1187 -0.2560
32590SOL     OW 3089   3.776   9.393  11.498 -0.1318 -0.1197 -0.2427
32590SOL    HW1 3090   3.778   9.448  11.419  1.5519 -0.6284 -0.5958
32590SOL    HW2 3091   3.717   9.321  11.476 -1.2644  0.7904 -0.2772
32591SOL     OW 3092   3.577   3.978   5.580 -0.0378  0.0849  0.2505
32591SOL    HW1 3093   3.637   4.052   5.568  1.8595 -1.1863  1.4238
32591SOL    HW2 3094   3.502   4.015   5.625 -0.2389  1.7502 -1.3408
32592SOL     OW 3095   5.208   5.872   6.880  0.2034 -0.2679  1.0972
32592SOL    HW1 3096   5.216   5.954   6.929 -0.4943  1.5411 -1.6447
32592SOL    HW2 3097   5.299   5.848   6.859  0.3887 -0.0540  1.6302
32593SOL     OW 3098  10.157   1.659   6.718  0.4372  0.3619  0.1089
32593SOL    HW1 3099  10.094   1.730   6.702 -0.8927 -0.6497  0.6318
32593SOL    HW2 3100  10.218   1.665   6.645 -1.4782  0.1204 -1.6324
32594SOL     OW 3101   7.436  11.752   6.257 -0.0277 -0.7852 -0.1509
32594SOL    HW1 3102   7.377  11.814   6.213  0.1392 -0.9270 -0.5769
32594SOL    HW2 3103   7.520  11.799   6.262  0.9121 -1.9831 -3.0203
32595SOL     OW 3104  11.093   3.041   5.522  0.2341  0.3582 -0.1102
32595SOL    HW1 3105  11.059   3.130   5.513  1.5324  0.7502 -1.6591
32595SOL    HW2 3106  11.075   3.017   5.612  0.6721  2.5464  0.6188
32596SOL     OW 3107   4.302   7.576   0.607  0.0309 -0.3571  0.0976
32596SOL    HW1 3108   4.354   7.497   0.603  1.5848  0.6736 -1.6580
32596SOL    HW2 3109   4.290   7.602   0.516  0.4323  1.9576  0.6336
32597SOL     OW 3110   0.796   4.768  10.249 -0.2565  0.2922  0.2856
32597SOL    HW1 3111   0.795   4.805  10.161  0.0633  0.3215  0.2957
32597SOL    HW2 3112   0.750   4.684  10.241  0.8682 -0.3002 -0.1686
32598SOL     OW 3113   8.932   9.707   0.660  0.1578  0.0866  0.1721
32598SOL    HW1 3114   9.025   9.692   0.644  0.0304 -0.1779 -0.3457
32598SOL    HW2 3115   8.889   9.628   0.627 -0.1154 -0.5583  1.9633
32599SOL     OW 3116   3.614   8.539  11.106  0.1884 -0.1504 -0.1064
32599SOL    HW1 3117   3.574   8.536  11.193  0.0560  2.7416  0.0233
32599SOL    HW2 3118   3.539   8.538  11.046  0.0863  1.1138 -0.0248
32600SOL     OW 3119   5.970   0.277   3.807  0.0190 -0.0151 -0.6866
32600SOL    HW1 3120   5.992   0.332   3.883  0.0272  1.1325 -1.4893
32600SOL    HW2 3121   6.018   0.317   3.734  0.5670 -1.5109 -1.1788
32601SOL     OW 3122   4.137   3.068   4.453 -0.3972 -0.4561  0.6718
32601SOL    HW1 3123   4.161   3.018   4.532  0.6126  0.8776  1.2491
32601SOL    HW2 3124   4.114   3.001   4.388 -0.6836 -1.5988  1.9133
32602SOL     OW 3125   9.365   1.194   0.302 -0.7875 -0.0078  0.0959
32602SOL    HW1 3126   9.347   1.287   0.290 -2.0161 -0.0854  1.0661
32602SOL    HW2 3127   9.360   1.180   0.397  0.7318 -0.8257  0.1003
32603SOL     OW 3128  10.825   6.993   8.812 -0.0130  0.1426  0.2062
32603SOL    HW1 3129  10.894   6.949   8.862 -0.9108  0.1689  1.5260
32603SOL    HW2 3130  10.790   7.059   8.872 -1.7509 -0.4446 -0.0969
32604SOL     OW 3131  10.344   1.709   3.124 -0.2330  0.2517 -0.3485
32604SOL    HW1 3132  10.380   1.795   3.145 -0.2751 -0.0886  1.2366
32604SOL    HW2 3133  10.250   1.720   3.131 -0.2241 -0.7021  3.6208
32605SOL     OW 3134   3.678   0.769   2.839  0.1752  0.0887  0.2391
32605SOL    HW1 3135   3.767   0.782   2.807  0.1113  0.9891  0.3985
32605SOL    HW2 3136   3.633   0.722   2.768  0.3334  1.0923 -0.5446
32606SOL     OW 3137   4.032   3.643   4.168  0.2537 -0.3350  0.0248
32606SOL    HW1 3138   4.018   3.563   4.217 -1.5413 -0.2991 -0.3894
32606SOL    HW2 3139   4.017   3.713   4.231  0.6188 -0.2978  0.0767
32607SOL     OW 3140   9.088   5.359   6.623 -0.4368 -0.0328  0.2330
32607SOL    HW1 3141   9.131   5.338   6.706 -0.7071  2.4496  1.1109
32607SOL    HW2 3142   8.995   5.352   6.642 -0.5368 -3.0018 -0.9664
32608SOL     OW 3143   5.407   2.620   4.930  0.2498  0.3194  0.1026
32608SOL    HW1 3144   5.386   2.611   4.837 -1.7557 -0.2687  0.5603
32608SOL    HW2 3145   5.428   2.532   4.958  0.7999  0.4888  0.2251
32609SOL     OW 3146   1.746   1.604   1.620  0.2650 -0.2555  0.0206
32609SOL    HW1 3147   1.674   1.613   1.558  1.0241  0.0549 -0.8249
32609SOL    HW2 3148   1.815   1.559   1.572  0.7583 -0.2777  0.7280
32610SOL     OW 3149  11.258   3.921  10.223  0.0177 -0.5532  0.5051
32610SOL    HW1 3150  11.330   3.984  10.221 -0.2420 -0.2544 -0.7926
32610SOL    HW2 3151  11.299   3.837  10.199 -0.0185 -0.4134 -0.0740
32611SOL     OW 3152   2.015  10.515  11.672  0.4143 -0.1934 -0.1994
32611SOL    HW1 3153   2.104  10.542  11.647  0.5428 -0.5781 -0.1709
32611SOL    HW2 3154   2.015  10.420  11.662  0.9167 -0.5858  2.5681
32612SOL     OW 3155   1.634   8.987  11.043 -0.4702 -0.0440 -0.0496
32612SOL    HW1 3156   1.701   9.054  11.040 -1.5600  1.4264  3.0752
32612SOL    HW2 3157   1.554   9.034  11.068 -1.6836 -2.2410  0.5268
32613SOL     OW 3158   1.758   4.401   3.710 -0.4344 -0.3543  0.3185
32613SOL    HW1 3159   1.755   4.426   3.803 -2.6711  0.1084  0.1627
32613SOL    HW2 3160   1.705   4.322   3.705  0.2324 -0.7652 -0.4882
32614SOL     OW 3161   0.801  11.190   7.815  0.5011 -0.9043  0.0104
32614SOL    HW1 3162   0.752  11.113   7.843  1.2309 -1.8902 -1.3077
32614SOL    HW2 3163   0.887  11.178   7.855  0.4332 -0.4719  0.2825
32615SOL     OW 3164   1.809   6.996  11.389  0.4670  0.3335  0.0265
32615SOL    HW1 3165   1.786   6.907  11.361  1.6020  0.5856 -1.8591
32615SOL    HW2 3166   1.768   7.053  11.324  0.8275  1.1232  0.4806
32616SOL     OW 3167   1.936   0.965   9.351 -0.3413 -0.1456 -0.1951
32616SOL    HW1 3168   1.848   0.978   9.385 -0.3775  0.6905 -0.5787
32616SOL    HW2 3169   1.943   1.026   9.277  1.3303  1.6068  1.2778
32617SOL     OW 3170   7.168   5.446   2.904  0.1541 -0.6434  0.0041
32617SOL    HW1 3171   7.175   5.507   2.978  0.5812 -1.2030  0.4348
32617SOL    HW2 3172   7.217   5.369   2.932  0.9576 -0.5837 -1.1726
32618SOL     OW 3173   8.753   6.677   3.546 -0.1358  0.3426 -0.0554
32618SOL    HW1 3174   8.779   6.673   3.638 -2.5454 -0.5846  0.6704
32618SOL    HW2 3175   8.749   6.585   3.518  0.7101  0.6244 -1.1440
32619SOL     OW 3176   9.015  10.589   9.108  0.6737  0.5333  0.0395
32619SOL    HW1 3177   8.938  10.614   9.057 -0.9088 -2.2504  0.8229
32619SOL    HW2 3178   9.057  10.671   9.131 -2.2006  2.2037 -0.2377
32620SOL     OW 3179   4.647   0.473   3.196 -0.6078 -0.1365 -0.2565
32620SOL    HW1 3180   4.681   0.412   3.262 -1.1022 -0.1979 -0.0522
32620SOL    HW2 3181   4.609   0.416   3.129 -0.8916 -0.0586 -0.1634
32621SOL     OW 3182   2.052   2.646   8.334  0.1517  0.5819  0.7022
32621SOL    HW1 3183   1.988   2.652   8.405 -0.9788  2.5347 -0.3841
32621SOL    HW2 3184   2.091   2.733   8.330  0.3071  0.4744 -0.9237
32622SOL     OW 3185   4.096   1.631   4.953 -0.3836  0.1891  0.3753
32622SOL    HW1 3186   4.156   1.558   4.966  2.0336  2.0481  0.3330
32622SOL    HW2 3187   4.074   1.660   5.042 -0.7479 -0.1271  0.3888
32623SOL     OW 3188   1.994  10.302  10.382  0.0610 -0.1750  0.0188
32623SOL    HW1 3189   1.968  10.381  10.428  1.6871  0.3129  0.1678
32623SOL    HW2 3190   2.028  10.244  10.450  1.6536  0.2039 -0.4176
32624SOL     OW 3191   8.581   2.963   3.553  0.3928  0.0701  0.1704
32624SOL    HW1 3192   8.666   3.006   3.552  1.0936 -1.2744 -0.1644
32624SOL    HW2 3193   8.529   3.014   3.615  0.7624  2.1400 -1.1469
32625SOL     OW 3194   6.648  10.787   4.720  0.6548  0.1322 -0.3289
32625SOL    HW1 3195   6.563  10.829   4.728  0.1851 -1.0018  0.9276
32625SOL    HW2 3196   6.653  10.759   4.628  0.8489  2.5469 -1.1165
32626SOL     OW 3197   6.421   8.627   7.026 -0.3840  0.5502 -0.0712
32626SOL    HW1 3198   6.487   8.567   7.060 -0.6888  0.3738  0.2168
32626SOL    HW2 3199   6.470   8.687   6.970 -0.1275 -0.1783 -0.6356
32627SOL     OW 3200   4.848   8.176   6.462 -0.5129 -0.1334  0.6668
32627SOL    HW1 3201   4.790   8.158   6.536 -4.2140  1.9770 -1.3761
32627SOL    HW2 3202   4.879   8.266   6.477  0.8132 -0.5885  0.8087
32628SOL     OW 3203   0.040   2.408   7.668 -0.3888 -0.3655 -0.0116
32628SOL    HW1 3204  -0.040   2.454   7.643 -1.2123 -0.7267  1.7835
32628SOL    HW2 3205   0.084   2.466   7.730 -1.3600 -1.7808  2.1612
32629SOL     OW 3206   9.588   3.827  11.354 -0.3965  0.3477 -0.2192
32629SOL    HW1 3207   9.534   3.865  11.285 -0.6602  0.1189 -0.1394
32629SOL    HW2 3208   9.591   3.894  11.422 -0.4173  0.4387 -0.3080
32630SOL     OW 3209   8.247   7.279   1.569  0.4164 -0.0571 -0.4543
32630SOL    HW1 3210   8.175   7.326   1.525  0.4981 -1.0928 -1.7641
32630SOL    HW2 3211   8.280   7.219   1.502  2.3373  0.1913  0.2125
32631SOL     OW 3212  10.814   9.371   1.878 -0.2329  0.1370 -0.7321
32631SOL    HW1 3213  10.868   9.313   1.825 -1.6777 -0.4964 -1.5705
32631SOL    HW2 3214  10.830   9.343   1.968  1.2368  0.3466 -0.9148
32632SOL     OW 3215  10.470   4.939   6.623 -0.1785  0.5011 -0.2176
32632SOL    HW1 3216  10.520   5.020   6.616 -0.0741  0.4090 -0.5876
32632SOL    HW2 3217  10.381   4.968   6.643 -0.1535  0.7120 -0.3992
32633SOL     OW 3218   8.738   3.741   2.805  0.3114  0.1435  0.1232
32633SOL    HW1 3219   8.679   3.687   2.857 -1.3475  1.3157 -0.4694
32633SOL    HW2 3220   8.817   3.748   2.858 -0.4111 -0.7226  1.3603
32634SOL     OW 3221   1.791   3.663   3.736  0.0176 -0.4205 -0.3017
32634SOL    HW1 3222   1.855   3.592   3.731  2.0193  0.9470  2.8584
32634SOL    HW2 3223   1.720   3.627   3.789  1.0133 -0.1616  1.2668
32635SOL     OW 3224   7.339   0.401   6.930 -0.3535 -0.0066 -0.5278
32635SOL    HW1 3225   7.305   0.368   7.013 -2.1513  2.0074 -0.3587
32635SOL    HW2 3226   7.298   0.345   6.864 -0.1006 -0.6818 -0.1154
32636SOL     OW 3227   1.650  11.063  10.488 -0.1696 -0.1850 -0.3928
32636SOL    HW1 3228   1.561  11.041  10.460 -0.5293 -0.2107  0.7163
32636SOL    HW2 3229   1.677  10.988  10.541 -0.4470  0.8933  1.3228
32637SOL     OW 3230   5.504   1.101   3.554  0.2249  0.7839 -0.2496
32637SOL    HW1 3231   5.516   1.114   3.460  0.4289 -0.2337 -0.3810
32637SOL    HW2 3232   5.580   1.049   3.581 -0.7860 -0.5789  0.0915
32638SOL     OW 3233   5.862  11.017   0.109  0.4764  0.3739  0.2791
32638SOL    HW1 3234   5.956  11.026   0.090  0.6291  1.1005  1.3091
32638SOL    HW2 3235   5.831  11.106   0.118 -0.1848  0.1157  0.5793
32639SOL     OW 3236   3.350   9.008  11.073  0.8456  0.1819 -0.0341
32639SOL    HW1 3237   3.430   9.023  11.023  0.7199 -1.2074 -0.7162
32639SOL    HW2 3238   3.296   8.953  11.016 -0.6323  1.1321  0.3831
32640SOL     OW 3239   1.052   7.796   6.027  0.3949  0.0969  0.3356
32640SOL    HW1 3240   1.048   7.741   5.949 -0.6565  0.0347  0.4132
32640SOL    HW2 3241   1.016   7.880   6.000 -2.1124 -0.5777  1.2325
32641SOL     OW 3242   5.418   5.749   3.051 -0.0745  0.4996 -0.2543
32641SOL    HW1 3243   5.323   5.760   3.057 -0.0302  0.2532  2.3614
32641SOL    HW2 3244   5.452   5.798   3.126  1.6740 -1.1572  0.1108
32642SOL     OW 3245   0.532   2.393   6.867 -0.5295 -0.3408 -0.0990
32642SOL    HW1 3246   0.534   2.346   6.950 -0.5299  0.4409  0.3522
32642SOL    HW2 3247   0.623   2.413   6.848 -0.5659 -0.1412 -0.0668
32643SOL     OW 3248  10.417   8.307   4.146  0.2345  0.0312 -0.3634
32643SOL    HW1 3249  10.362   8.296   4.223  1.0433 -0.4151  0.1662
32643SOL    HW2 3250  10.421   8.220   4.106  2.9156 -0.7395  1.2730
32644SOL     OW 3251   0.452   2.143   8.671  0.2250 -0.1403  0.3320
32644SOL    HW1 3252   0.490   2.086   8.604 -0.9900 -0.2426 -0.3124
32644SOL    HW2 3253   0.379   2.092   8.707  1.3937 -0.4561  2.4290
32645SOL     OW 3254   2.844   5.534   2.004 -0.0293  0.2265 -0.2553
32645SOL    HW1 3255   2.860   5.583   1.923 -1.1790  1.1964  0.0797
32645SOL    HW2 3256   2.791   5.459   1.976  0.0925  0.2298 -0.4965
32646SOL     OW 3257   2.879   7.741  10.334 -0.5061 -0.2500  1.1061
32646SOL    HW1 3258   2.802   7.743  10.391 -3.0712  0.3401 -2.0742
32646SOL    HW2 3259   2.878   7.653  10.296 -0.4677  0.2279 -0.0202
32647SOL     OW 3260  11.114   6.754   1.475  0.0653 -0.4475  0.0431
32647SOL    HW1 3261  11.024   6.741   1.444 -0.3444 -0.0585  1.0284
32647SOL    HW2 3262  11.161   6.677   1.442 -0.9894 -1.4667  0.8202
32648SOL     OW 3263   9.503   5.128  10.504 -0.1019 -0.0340  0.1877
32648SOL    HW1 3264   9.535   5.218  10.505  2.0173 -0.6221 -2.1354
32648SOL    HW2 3265   9.499   5.106  10.411 -0.8715 -2.2451  0.6943
32649SOL     OW 3266   9.644   1.697   9.276  0.2168  0.4647  0.0046
32649SOL    HW1 3267   9.697   1.648   9.214 -0.3190 -0.3849  0.2051
32649SOL    HW2 3268   9.609   1.631   9.336 -1.9232  0.8226 -0.7395
32650SOL     OW 3269   9.825   2.869  11.750  0.0529  0.4020 -0.2041
32650SOL    HW1 3270   9.762   2.910  11.809  1.8325  2.9993  0.0339
32650SOL    HW2 3271   9.892   2.832  11.808  1.2767  2.0626 -0.5053
32651SOL     OW 3272   4.591   0.691   7.843 -0.0456 -0.8076  0.2404
32651SOL    HW1 3273   4.674   0.686   7.890  0.3990 -1.2688 -0.5669
32651SOL    HW2 3274   4.558   0.779   7.863 -0.0844 -1.1458  1.7327
32652SOL     OW 3275   5.225   4.523  11.365 -0.2960  0.2025 -0.7149
32652SOL    HW1 3276   5.163   4.473  11.417 -0.3636  0.4656 -0.5377
32652SOL    HW2 3277   5.255   4.462  11.297 -0.9974  0.1691 -1.0057
32653SOL     OW 3278   5.807  11.805  10.113  0.3487  0.0689  0.2171
32653SOL    HW1 3279   5.856  11.886  10.125 -1.1391  0.9155  0.9374
32653SOL    HW2 3280   5.862  11.737  10.151  1.2388  0.8745  0.3997
32654SOL     OW 3281   1.814   0.403  10.683 -0.0480 -0.4847 -0.6612
32654SOL    HW1 3282   1.744   0.424  10.620 -1.1990 -0.7721  0.4915
32654SOL    HW2 3283   1.828   0.485  10.731 -0.9091 -0.9173  0.3535
32655SOL     OW 3284   6.527   3.447   8.073 -0.0804 -0.1411 -0.4734
32655SOL    HW1 3285   6.557   3.538   8.081 -1.4976  0.3776 -0.7788
32655SOL    HW2 3286   6.535   3.427   7.980  1.3991 -0.7775 -0.2372
32656SOL     OW 3287   0.718   9.163  11.363 -0.4124 -0.7860 -0.1117
32656SOL    HW1 3288   0.724   9.129  11.452  1.0183 -0.9521 -0.2492
32656SOL    HW2 3289   0.806   9.154  11.328 -0.2160  1.9385 -0.5829
32657SOL     OW 3290   5.389   9.097   8.877 -0.2219  0.2884 -0.2774
32657SOL    HW1 3291   5.476   9.092   8.838 -1.3040 -0.7640 -2.8269
32657SOL    HW2 3292   5.347   9.172   8.834 -1.6253 -1.2094 -1.7029
32658SOL     OW 3293   6.992   7.234   1.803 -0.2264 -0.4870  0.2972
32658SOL    HW1 3294   7.071   7.212   1.754  0.1504  1.8218 -0.2519
32658SOL    HW2 3295   6.998   7.181   1.882  1.4859 -0.9478 -0.0914
32659SOL     OW 3296   1.517   6.915   3.453 -0.1521 -0.2280 -0.4326
32659SOL    HW1 3297   1.472   6.891   3.372  1.3759 -0.2633 -1.3101
32659SOL    HW2 3298   1.531   7.009   3.446 -0.9621 -0.0390  0.3070
32660SOL     OW 3299   3.764   3.966   5.914 -0.1128 -0.1140 -0.5461
32660SOL    HW1 3300   3.762   3.904   5.987 -0.7316 -1.0653 -1.3383
32660SOL    HW2 3301   3.703   3.929   5.850 -0.5818  1.3901 -0.9944
32661SOL     OW 3302   6.178   1.306  10.469  0.0991  0.1370 -0.1802
32661SOL    HW1 3303   6.148   1.386  10.513 -0.9347 -0.9216  1.1309
32661SOL    HW2 3304   6.110   1.286  10.405 -0.3791 -0.4593  0.4977
32662SOL     OW 3305   9.040   2.085  10.657  0.2256 -0.0170  0.3267
32662SOL    HW1 3306   8.968   2.140  10.688 -0.8237 -1.2539  0.1455
32662SOL    HW2 3307   9.098   2.077  10.733 -0.4477 -0.0016  0.8500
32663SOL     OW 3308  10.889   0.704   8.437 -0.0625 -0.0123  0.0060
32663SOL    HW1 3309  10.919   0.760   8.366 -0.5969  1.2316  0.7367
32663SOL    HW2 3310  10.848   0.764   8.499 -0.0233 -1.1324  1.1419
32664SOL     OW 3311   1.377   8.220  10.619  0.4427  0.0314  0.3797
32664SOL    HW1 3312   1.416   8.280  10.556  0.3293 -1.3048 -1.0267
32664SOL    HW2 3313   1.283   8.232  10.608  0.4241 -0.1142  0.3744
32665SOL     OW 3314   7.621   3.218   6.044 -0.5086 -0.1686 -0.4367
32665SOL    HW1 3315   7.622   3.313   6.053  1.5813 -0.2133  0.3599
32665SOL    HW2 3316   7.597   3.185   6.130  0.8086 -0.3536 -0.1139
32666SOL     OW 3317   6.198   2.003   8.062  0.2645 -0.1997 -0.1815
32666SOL    HW1 3318   6.267   2.059   8.026  1.9141 -2.6452 -1.0948
32666SOL    HW2 3319   6.160   2.056   8.133  2.4284  1.6409 -0.2397
32667SOL     OW 3320  10.352   4.286   8.945 -0.7199  0.2877 -0.0430
32667SOL    HW1 3321  10.259   4.263   8.942 -1.3883  2.5355  1.1793
32667SOL    HW2 3322  10.370   4.302   9.038  0.3769  1.6554 -0.4514
32668SOL     OW 3323  10.734   7.494   3.734 -0.7991 -0.0414  0.0023
32668SOL    HW1 3324  10.692   7.409   3.721  1.2292 -1.1123  0.0581
32668SOL    HW2 3325  10.749   7.527   3.645 -1.5018  0.2279 -0.0212
32669SOL     OW 3326  11.065   2.381   2.000  0.1476 -0.6625 -0.0494
32669SOL    HW1 3327  11.072   2.382   2.095 -0.4165  0.2883 -0.0081
32669SOL    HW2 3328  11.029   2.295   1.979 -3.6247  0.4984  0.9182
32670SOL     OW 3329   0.860   4.899   2.148 -0.2895  0.5248  0.4766
32670SOL    HW1 3330   0.787   4.956   2.170  0.2069  1.2051  0.3955
32670SOL    HW2 3331   0.877   4.916   2.055 -1.3212 -1.1272 -0.0528
32671SOL     OW 3332   9.093   4.601   8.057  0.1697 -0.6623 -0.1881
32671SOL    HW1 3333   9.006   4.562   8.049  0.5517 -1.5865  0.0433
32671SOL    HW2 3334   9.153   4.535   8.022  0.7312  0.2606 -1.0545
32672SOL     OW 3335   0.326   2.157   9.111 -0.1139  0.1977  0.3796
32672SOL    HW1 3336   0.331   2.079   9.166  0.5181 -0.5786 -0.7445
32672SOL    HW2 3337   0.288   2.224   9.168 -2.0073 -1.2851  0.9570
32673SOL     OW 3338  11.654   2.469   4.398  0.2704 -0.1022 -0.1986
32673SOL    HW1 3339  11.739   2.513   4.407  0.3051 -0.1561 -0.2537
32673SOL    HW2 3340  11.671   2.380   4.429  0.6385 -0.5707 -1.6662
32674SOL     OW 3341   5.759   4.027   9.818 -0.5161  0.2263  0.2764
32674SOL    HW1 3342   5.737   4.079   9.895  1.0695  1.6614 -0.1736
32674SOL    HW2 3343   5.684   4.037   9.759 -1.5510 -0.5286  1.4085
32675SOL     OW 3344   6.871   1.613  10.344  0.4618 -0.3642  0.8088
32675SOL    HW1 3345   6.783   1.612  10.381 -0.3632  1.4758 -0.8899
32675SOL    HW2 3346   6.861   1.656  10.259  3.0383  0.0335  0.6145
32676SOL     OW 3347   4.445   9.558  10.602  0.5838  0.7609 -0.2132
32676SOL    HW1 3348   4.455   9.581  10.510  1.6042  0.5146 -0.1758
32676SOL    HW2 3349   4.436   9.462  10.602  0.3365  0.7818 -0.0699
32677SOL     OW 3350  11.178  11.676   9.885  0.2068 -0.2381 -0.2396
32677SOL    HW1 3351  11.193  11.582   9.894 -0.2257 -0.4645 -1.6675
32677SOL    HW2 3352  11.102  11.693   9.941 -0.4898 -0.9790 -0.9418
32678SOL     OW 3353   5.623   2.731   0.607  0.1796  0.4962 -0.3344
32678SOL    HW1 3354   5.654   2.786   0.680 -0.6464  0.3904  0.1101
32678SOL    HW2 3355   5.589   2.794   0.543 -1.3325  0.5245  0.4375
32679SOL     OW 3356   9.396   4.544  10.402 -0.3728  0.6910 -0.7047
32679SOL    HW1 3357   9.428   4.570  10.488 -2.2771 -0.1999  0.3334
32679SOL    HW2 3358   9.434   4.608  10.341  5.0860 -1.3819 -0.0251
32680SOL     OW 3359   8.213   4.555  11.567 -0.1047  0.0600  0.1821
32680SOL    HW1 3360   8.164   4.629  11.602  0.8316  0.9124 -0.2481
32680SOL    HW2 3361   8.193   4.555  11.473 -1.9228 -1.6821  0.5125
32681SOL     OW 3362   5.656   1.440   9.896 -0.0014  0.7125  0.3282
32681SOL    HW1 3363   5.697   1.441   9.809  1.5133 -0.7229  0.9797
32681SOL    HW2 3364   5.682   1.523   9.936  2.0979 -0.0168  0.6021
32682SOL     OW 3365  10.709   6.717  11.295 -0.6013  0.0860  0.3103
32682SOL    HW1 3366  10.670   6.640  11.335 -0.1311 -0.0213  0.5807
32682SOL    HW2 3367  10.670   6.791  11.341  0.0776 -0.0420  1.1274
32683SOL     OW 3368  11.325   8.168   9.883  0.3430  0.3099  0.0440
32683SOL    HW1 3369  11.395   8.207   9.936  0.6898 -0.5822  0.2671
32683SOL    HW2 3370  11.370   8.104   9.827 -0.2658 -0.1258  0.0384
32684SOL     OW 3371   8.831   1.121   7.972 -0.5570  0.4645 -0.6692
32684SOL    HW1 3372   8.854   1.043   7.922  0.8830  0.3985  0.0445
32684SOL    HW2 3373   8.890   1.189   7.939  0.0372  0.5532  0.5258
32685SOL     OW 3374   1.303   1.875   2.613 -0.0878 -0.0413 -1.0023
32685SOL    HW1 3375   1.390   1.874   2.573 -0.6359  0.1482 -2.2416
32685SOL    HW2 3376   1.315   1.925   2.694  0.9968 -0.2132 -1.0371
32686SOL     OW 3377   0.502   4.993   7.461  0.6199 -0.6597 -0.2083
32686SOL    HW1 3378   0.426   4.957   7.507 -0.4390  0.8799 -0.6545
32686SOL    HW2 3379   0.576   4.976   7.519  0.0943 -2.8932 -0.1112
32687SOL     OW 3380   1.418   4.825   4.506  0.1567  0.2653  0.8080
32687SOL    HW1 3381   1.345   4.780   4.548 -1.7194  1.4196 -1.0043
32687SOL    HW2 3382   1.378   4.900   4.461  2.5978  1.4793  0.4691
32688SOL     OW 3383   5.474  10.313   6.191  0.4410 -0.0443 -0.1322
32688SOL    HW1 3384   5.462  10.223   6.161  2.0213 -0.4910  0.4749
32688SOL    HW2 3385   5.390  10.336   6.230  0.2759 -1.6096  0.5396
32689SOL     OW 3386   8.745   5.247   7.982 -0.1133 -0.0425  0.0174
32689SOL    HW1 3387   8.776   5.307   7.914  1.4932  1.4865  1.9614
32689SOL    HW2 3388   8.777   5.161   7.956 -1.3730  0.0822 -2.1794
32690SOL     OW 3389   8.379   4.971   8.861 -0.2132  0.3331 -0.2373
32690SOL    HW1 3390   8.406   5.052   8.818 -0.7213  1.3209  1.2193
32690SOL    HW2 3391   8.345   4.916   8.790  1.1288  0.9439 -1.4005
32691SOL     OW 3392   6.754   0.703   8.369  0.0173 -0.4915 -0.0752
32691SOL    HW1 3393   6.667   0.729   8.399  0.2084 -1.2596  1.2063
32691SOL    HW2 3394   6.812   0.772   8.401  0.0292 -0.5746  0.0846
32692SOL     OW 3395   3.122   7.910  10.385 -0.7193  0.2418  0.4435
32692SOL    HW1 3396   3.048   7.849  10.386  0.3130 -1.2082 -1.9657
32692SOL    HW2 3397   3.199   7.854  10.390  0.2704  1.6688  2.0348
32693SOL     OW 3398   9.850   0.241   0.554  0.8691  0.0615  0.5921
32693SOL    HW1 3399   9.800   0.171   0.512 -0.5380  2.2076 -1.5416
32693SOL    HW2 3400   9.793   0.273   0.624  0.7133  0.3096  0.3503
32694SOL     OW 3401   7.058   6.243   1.833 -0.8971 -0.1442 -0.1943
32694SOL    HW1 3402   7.015   6.243   1.747 -0.5159 -0.2862 -0.3871
32694SOL    HW2 3403   6.988   6.221   1.895 -1.7733  2.4377 -0.1598
32695SOL     OW 3404  10.471   5.862   4.038 -0.0623  0.0296 -0.0818
32695SOL    HW1 3405  10.383   5.883   4.008  0.5647 -0.2619 -2.3234
32695SOL    HW2 3406  10.485   5.771   4.009  1.9555  0.9793 -2.4807
32696SOL     OW 3407   0.188   0.781   9.655 -0.3172 -0.1293  0.2127
32696SOL    HW1 3408   0.131   0.723   9.704 -0.5615 -0.8354 -0.8738
32696SOL    HW2 3409   0.137   0.805   9.577 -0.6490  2.4056  1.0965
32697SOL     OW 3410   4.542   0.664  10.075  0.2476 -0.4501  0.1224
32697SOL    HW1 3411   4.500   0.582  10.050 -1.3788  0.3023  0.2503
32697SOL    HW2 3412   4.634   0.653  10.051 -0.2669 -1.6712 -1.3921
32698SOL     OW 3413   0.587  11.536   4.972  0.8126 -0.5766  0.2019
32698SOL    HW1 3414   0.505  11.558   5.016  0.8701  1.2059 -0.4995
32698SOL    HW2 3415   0.561  11.509   4.884  0.9159 -1.0813  0.3226
32699SOL     OW 3416   2.262   5.889   9.300  0.2907 -0.1058 -0.1312
32699SOL    HW1 3417   2.245   5.923   9.388  3.1947  2.3900 -0.3768
32699SOL    HW2 3418   2.354   5.864   9.301  1.0909  2.1436 -2.9577
32700SOL     OW 3419   0.984  10.347  11.410 -0.3174  0.0801  0.1373
32700SOL    HW1 3420   1.035  10.423  11.438 -0.9482  0.4842  0.1993
32700SOL    HW2 3421   0.936  10.321  11.489  0.2044 -0.6381  0.2279
32701SOL     OW 3422  11.582   0.646   4.440  0.3917 -0.1458 -0.5704
32701SOL    HW1 3423  11.502   0.675   4.395  1.1370 -0.3597 -2.1167
32701SOL    HW2 3424  11.645   0.715   4.423  1.4246 -1.3795 -2.0947
32702SOL     OW 3425   0.125   1.837  10.112  0.1196 -0.5333 -0.0379
32702SOL    HW1 3426   0.076   1.863  10.035  0.0824  0.7212  0.3887
32702SOL    HW2 3427   0.064   1.849  10.185 -0.8262 -4.3203  0.0267
32703SOL     OW 3428   5.361   3.443   3.970 -0.1161 -0.0813 -0.3763
32703SOL    HW1 3429   5.369   3.364   4.024 -1.0767 -0.6291 -0.9970
32703SOL    HW2 3430   5.430   3.434   3.904 -0.2010 -0.3976 -0.4244
32704SOL     OW 3431   1.967   8.742   5.145  0.0309  0.3632 -0.0263
32704SOL    HW1 3432   1.878   8.721   5.116 -0.8714  0.8101  2.2259
32704SOL    HW2 3433   1.962   8.738   5.240  2.7598 -0.8480  0.1507
32705SOL     OW 3434   0.996  11.304   6.501 -0.2178  0.2888  0.4700
32705SOL    HW1 3435   1.041  11.274   6.422 -1.6676 -0.6103 -0.0555
32705SOL    HW2 3436   0.984  11.398   6.487  0.0248  0.2355 -0.1334
32706SOL     OW 3437   9.533   1.274   6.147 -0.4214  0.7789  0.1385
32706SOL    HW1 3438   9.623   1.299   6.171  1.7137 -4.4022 -1.0956
32706SOL    HW2 3439   9.502   1.223   6.222 -1.0226 -0.1571 -0.7274
32707SOL     OW 3440   3.095   3.080   3.423  0.4956 -0.5110 -0.0315
32707SOL    HW1 3441   3.128   3.168   3.409 -0.6170  0.0006  0.4817
32707SOL    HW2 3442   3.018   3.073   3.367 -2.6802  0.7888  3.6925
32708SOL     OW 3443   0.711   7.328   4.659 -0.2097 -0.5256  0.1080
32708SOL    HW1 3444   0.690   7.417   4.632 -1.2797 -0.5506  0.8018
32708SOL    HW2 3445   0.629   7.279   4.649  0.3561 -1.4411 -0.2561
32709SOL     OW 3446   5.736   2.435   3.184  0.2178  0.0077  0.0684
32709SOL    HW1 3447   5.823   2.474   3.182  0.6856 -1.0448 -1.5380
32709SOL    HW2 3448   5.676   2.506   3.161  0.7328  0.5073  0.2604
32710SOL     OW 3449   6.799   6.157  11.326  0.5311  0.4923 -0.5224
32710SOL    HW1 3450   6.855   6.115  11.262  0.5436  0.8999 -0.7820
32710SOL    HW2 3451   6.793   6.248  11.298 -0.8771  0.3027 -0.9410
32711SOL     OW 3452  10.532   1.890   6.808 -0.0446  0.0498  0.3666
32711SOL    HW1 3453  10.496   1.841   6.882  0.6475 -2.4226 -0.8419
32711SOL    HW2 3454  10.464   1.885   6.741 -1.1110  3.1613  1.0502
32712SOL     OW 3455   7.890   4.189   9.666  0.3676  0.0831 -0.3511
32712SOL    HW1 3456   7.873   4.192   9.571 -0.5617  1.1696 -0.1728
32712SOL    HW2 3457   7.962   4.126   9.675 -0.7083 -1.4136 -1.5912
32713SOL     OW 3458   1.234   8.006   9.893  0.3921  0.5516 -0.2514
32713SOL    HW1 3459   1.212   8.084   9.841  0.1610  0.4674 -0.2825
32713SOL    HW2 3460   1.273   7.945   9.830 -3.2721 -1.0761 -1.2370
32714SOL     OW 3461   9.314  11.444   2.116 -0.4349 -0.2662 -0.0538
32714SOL    HW1 3462   9.238  11.461   2.061  0.7926  1.4644 -1.3273
32714SOL    HW2 3463   9.381  11.412   2.055  0.4662  0.1227  0.7051
32715SOL     OW 3464   7.146   0.876   7.365 -0.6602 -0.1594  0.0937
32715SOL    HW1 3465   7.236   0.847   7.350 -0.1580  0.8991  0.9252
32715SOL    HW2 3466   7.111   0.890   7.278  0.7108  1.4955 -0.2488
32716SOL     OW 3467   5.788   0.832   7.012 -0.5642  0.1613  0.0974
32716SOL    HW1 3468   5.730   0.896   6.971 -0.2625  0.5253  0.2387
32716SOL    HW2 3469   5.729   0.768   7.052 -0.8683  0.0266 -0.5447
32717SOL     OW 3470  11.343   9.427   6.501 -0.2656  0.5324 -0.1320
32717SOL    HW1 3471  11.287   9.499   6.529 -0.5178  0.6832 -1.0050
32717SOL    HW2 3472  11.389   9.460   6.424  0.5357  0.1805  0.1829
32718SOL     OW 3473   7.425   4.364  10.604  0.4565 -0.4122 -0.4909
32718SOL    HW1 3474   7.486   4.424  10.561 -0.2438 -0.1912 -1.2032
32718SOL    HW2 3475   7.414   4.398  10.692  1.2513 -0.3798 -0.3978
32719SOL     OW 3476   4.214  10.656   5.941 -0.2123  0.6216  0.1261
32719SOL    HW1 3477   4.215  10.647   5.845  0.9485  1.8162 -0.0141
32719SOL    HW2 3478   4.130  10.697   5.961 -0.5063  0.2687 -0.3804
32720SOL     OW 3479   1.842   3.220   7.973 -0.2893  0.4002  0.4645
32720SOL    HW1 3480   1.875   3.304   8.004 -0.4154  0.8453 -0.5924
32720SOL    HW2 3481   1.747   3.233   7.965 -0.6318 -0.4983  2.3115
32721SOL     OW 3482  11.817   3.726   8.436  0.3590  0.1641 -0.2999
32721SOL    HW1 3483  11.754   3.746   8.366 -1.2901  0.6519  1.2451
32721SOL    HW2 3484  11.779   3.649   8.479  1.4593 -0.2504 -0.0561
32722SOL     OW 3485   8.088   4.082   7.249  0.4147  0.2830  0.0512
32722SOL    HW1 3486   8.088   3.999   7.297  2.7458  0.5068  0.5490
32722SOL    HW2 3487   8.042   4.143   7.307 -1.8174 -0.7367 -0.5633
32723SOL     OW 3488   1.942   7.558   8.388  0.1048  0.0262 -0.6382
32723SOL    HW1 3489   1.988   7.476   8.376 -0.6968 -1.0158  2.5544
32723SOL    HW2 3490   1.997   7.608   8.448 -0.7015  0.6876 -0.4289
32724SOL     OW 3491   1.062   9.328   6.959  0.8270  0.3199  0.3182
32724SOL    HW1 3492   1.154   9.306   6.971  0.9138  1.5862  2.4665
32724SOL    HW2 3493   1.016   9.282   7.029  0.0856  1.1247  0.3883
32725SOL     OW 3494   3.215   8.099   6.944 -0.5115 -0.1505 -0.4251
32725SOL    HW1 3495   3.298   8.071   6.907 -0.4809  0.6350 -0.9787
32725SOL    HW2 3496   3.232   8.107   7.038 -0.2826 -1.0882 -0.3816
32726SOL     OW 3497   0.595  10.401   1.792  0.2772 -0.6547  0.0060
32726SOL    HW1 3498   0.516  10.437   1.752  0.3781 -0.4288  0.0119
32726SOL    HW2 3499   0.630  10.341   1.725  2.0832  1.8978 -1.5413
32727SOL     OW 3500   4.348   1.825   9.379  0.1531 -0.2513 -0.9569
32727SOL    HW1 3501   4.333   1.807   9.287  1.5989  0.9104 -1.4658
32727SOL    HW2 3502   4.397   1.749   9.411 -0.2890 -0.6229 -1.1616
32728SOL     OW 3503   4.968  10.856   9.529 -0.7872  0.0565  0.4501
32728SOL    HW1 3504   4.993  10.889   9.443 -0.3496 -0.4427  0.3868
32728SOL    HW2 3505   4.884  10.812   9.515 -0.2805 -0.8103  0.1030
32729SOL     OW 3506   2.543   9.900   4.221 -0.1034  0.2095  0.3309
32729SOL    HW1 3507   2.499   9.937   4.145  0.2700 -0.8873 -0.4416
32729SOL    HW2 3508   2.483   9.834   4.254  0.0190  0.2306  0.5993
32730SOL     OW 3509   7.773   1.607  11.771 -0.0525 -0.5046  0.3612
32730SOL    HW1 3510   7.680   1.602  11.751  0.0295 -1.9323  0.2556
32730SOL    HW2 3511   7.815   1.630  11.688 -0.2378 -0.5768  0.2491
32731SOL     OW 3512   1.952   7.843   9.902  0.1095 -0.7640 -0.0855
32731SOL    HW1 3513   1.992   7.774   9.850 -0.6204 -1.0447 -0.2837
32731SOL    HW2 3514   1.902   7.895   9.838  1.3293  0.4628 -0.0841
32732SOL     OW 3515   4.053  10.932   0.761  0.2367  0.1571  0.0734
32732SOL    HW1 3516   4.036  10.971   0.847 -1.7107  0.9370 -0.5935
32732SOL    HW2 3517   4.014  10.994   0.699  0.5036 -0.9850 -1.2927
32733SOL     OW 3518   8.576   4.206   8.346  0.1056 -0.0891 -0.3532
32733SOL    HW1 3519   8.483   4.192   8.326  0.2280 -0.8496 -0.4164
32733SOL    HW2 3520   8.582   4.188   8.440  0.0898  0.5097 -0.2348
32734SOL     OW 3521   4.549   1.745   9.086 -0.3062  0.5064 -0.0280
32734SOL    HW1 3522   4.509   1.790   9.012  0.0345 -0.3461 -0.7487
32734SOL    HW2 3523   4.627   1.703   9.050  0.1336  0.4766  0.9164
32735SOL     OW 3524   9.437   3.231   5.138 -0.4642  0.3684  0.2525
32735SOL    HW1 3525   9.476   3.144   5.146 -0.3047  0.3757 -0.3547
32735SOL    HW2 3526   9.511   3.291   5.142 -0.4727  0.4180 -0.2961
32736SOL     OW 3527   1.897   5.794  10.876  0.5514  0.4490  0.4196
32736SOL    HW1 3528   1.839   5.747  10.816  1.6731  1.2383 -1.3527
32736SOL    HW2 3529   1.959   5.728  10.906  1.4671  0.5296 -1.2220
32737SOL     OW 3530   0.377   2.687   3.052  0.5290 -0.1273 -0.0025
32737SOL    HW1 3531   0.326   2.639   3.117  0.0191 -0.3228 -0.5425
32737SOL    HW2 3532   0.336   2.773   3.047  0.4894 -0.1567 -0.1655
32738SOL     OW 3533  11.175   1.254   7.238  0.0997  0.0948  0.0469
32738SOL    HW1 3534  11.241   1.315   7.271 -0.3996  1.2723 -1.0469
32738SOL    HW2 3535  11.163   1.279   7.146 -2.3735  0.3949  0.3917
32739SOL     OW 3536  10.242   1.521   2.472  0.3912  0.3594  0.5731
32739SOL    HW1 3537  10.306   1.570   2.421  1.0205 -0.5685  0.4306
32739SOL    HW2 3538  10.290   1.492   2.549 -0.0978  0.3766  0.8878
32740SOL     OW 3539   9.921   0.071   9.758  0.3766  0.0644 -0.3018
32740SOL    HW1 3540   9.839   0.083   9.805 -0.2964 -0.4351 -1.3203
32740SOL    HW2 3541   9.979   0.138   9.794 -0.8307  1.1849 -0.3836
32741SOL     OW 3542   9.751  10.986   6.951 -0.2722 -0.2982  0.2533
32741SOL    HW1 3543   9.678  10.934   6.985  0.2209 -0.0928  1.7220
32741SOL    HW2 3544   9.732  10.996   6.858 -1.1023 -1.9019  0.2088
32742SOL     OW 3545   4.885  10.629   7.767  0.3695  0.3750  0.2396
32742SOL    HW1 3546   4.978  10.641   7.745  0.5209  0.6174  0.9829
32742SOL    HW2 3547   4.882  10.549   7.819 -0.0255 -0.3489 -0.8676
32743SOL     OW 3548   2.065   5.978  10.539 -0.1814  0.6522 -0.3953
32743SOL    HW1 3549   2.097   6.008  10.454  0.5481  0.1135 -0.3246
32743SOL    HW2 3550   2.116   6.027  10.603  1.5332 -1.1360 -0.2725
32744SOL     OW 3551   2.386   2.288   7.857  0.4333  0.0461 -0.1492
32744SOL    HW1 3552   2.301   2.260   7.822  0.9524 -1.9584  0.0897
32744SOL    HW2 3553   2.371   2.377   7.887 -1.2848  0.1455 -1.1564
32745SOL     OW 3554   1.128   4.841   8.323  0.1738  0.3193 -0.2806
32745SOL    HW1 3555   1.202   4.901   8.314  0.6631 -0.3760 -1.0531
32745SOL    HW2 3556   1.054   4.898   8.345  0.7299  1.1427 -0.4645
32746SOL     OW 3557   3.905   9.162   0.724  0.0215  0.8342 -0.2440
32746SOL    HW1 3558   3.978   9.184   0.665  1.3917 -0.8996  0.7264
32746SOL    HW2 3559   3.840   9.121   0.667  0.8041  0.2735 -0.7500
32747SOL     OW 3560   3.509   0.047   3.572 -0.4612 -0.3336  0.1030
32747SOL    HW1 3561   3.602   0.056   3.554 -0.1880 -1.2680  0.9285
32747SOL    HW2 3562   3.466   0.072   3.491  0.3846  2.4645  0.4153
32748SOL     OW 3563   8.779   6.243   9.188 -0.2655  0.2576  0.2649
32748SOL    HW1 3564   8.830   6.162   9.178 -0.6999  0.1584 -1.4794
32748SOL    HW2 3565   8.832   6.297   9.247  2.1156  0.3084 -1.7356
32749SOL     OW 3566  10.162   9.466   7.064 -0.3747 -0.4593  0.5133
32749SOL    HW1 3567  10.209   9.389   7.095 -0.2375  0.5062  2.8850
32749SOL    HW2 3568  10.223   9.539   7.076 -0.9113  0.2019 -0.5739
32750SOL     OW 3569   3.731   1.491  11.334 -0.2275  0.3590  0.8252
32750SOL    HW1 3570   3.786   1.569  11.329  0.9817 -0.5107 -2.9390
32750SOL    HW2 3571   3.791   1.419  11.351 -0.7518 -0.1591  0.5545
32751SOL     OW 3572   5.083   2.480  11.089 -1.1613 -0.2253  0.1440
32751SOL    HW1 3573   5.179   2.486  11.095 -0.9925 -1.1746 -1.2232
32751SOL    HW2 3574   5.058   2.558  11.040 -1.1182  0.1022  0.6314
32752SOL     OW 3575   6.333   2.054   2.934 -0.4913 -0.0729 -0.1399
32752SOL    HW1 3576   6.351   2.147   2.931  1.1569 -0.3683 -0.2761
32752SOL    HW2 3577   6.244   2.048   2.969 -1.1245  1.5719 -1.3416
32753SOL     OW 3578  10.753   5.553   7.754 -0.3130 -0.0745 -0.2924
32753SOL    HW1 3579  10.698   5.629   7.771 -0.0712  0.4023 -1.4977
32753SOL    HW2 3580  10.692   5.482   7.734 -0.5236  0.1124 -0.3129
32754SOL     OW 3581   7.128   2.097   2.927  0.4502  0.3560 -0.1414
32754SOL    HW1 3582   7.104   2.043   3.003  1.4827 -1.5685 -1.0888
32754SOL    HW2 3583   7.068   2.069   2.858  1.4724 -0.1521 -0.8467
32755SOL     OW 3584   9.232   6.436  10.991 -0.1134  0.2972 -0.5802
32755SOL    HW1 3585   9.216   6.472  10.904 -1.2258 -0.3180 -0.6623
32755SOL    HW2 3586   9.249   6.343  10.976  0.2911  0.3072 -0.1918
32756SOL     OW 3587   3.115  10.380   9.484 -0.6689 -0.5174  0.3788
32756SOL    HW1 3588   3.106  10.354   9.393  0.6066  0.5170 -0.0863
32756SOL    HW2 3589   3.064  10.461   9.492  2.8996  2.1499 -0.7910
32757SOL     OW 3590   6.088   8.564   3.050 -0.2992  0.4256 -0.3796
32757SOL    HW1 3591   6.065   8.611   3.131 -0.4402  0.4614 -0.4397
32757SOL    HW2 3592   6.051   8.477   3.062  0.1995  0.2403 -0.1522
32758SOL     OW 3593   4.900   4.190   7.469  0.0342 -0.1461  0.4173
32758SOL    HW1 3594   4.895   4.127   7.398 -1.0503 -0.4347  0.7308
32758SOL    HW2 3595   4.962   4.152   7.531  0.5155 -0.1821 -0.0858
32759SOL     OW 3596   3.856   3.043   8.109  0.0682  0.2849  0.0061
32759SOL    HW1 3597   3.768   3.054   8.073  0.3885 -1.1195 -1.3121
32759SOL    HW2 3598   3.910   3.025   8.032  1.2306 -0.4158  0.9681
32760SOL     OW 3599   3.250   8.533   5.319 -0.0887 -0.3608 -0.4372
32760SOL    HW1 3600   3.250   8.596   5.390  0.1734  1.2116 -1.7736
32760SOL    HW2 3601   3.342   8.505   5.312 -0.3637 -1.7203  0.7989
32761SOL     OW 3602   3.403   3.031   4.463 -0.8229 -0.3889 -0.3516
32761SOL    HW1 3603   3.483   3.047   4.413  0.1904  0.4654  1.4597
32761SOL    HW2 3604   3.374   2.944   4.434  1.6805 -1.4758  0.1000
32762SOL     OW 3605   1.096  10.460   1.217  0.2024 -0.5312  0.4210
32762SOL    HW1 3606   1.091  10.553   1.239  1.6358 -0.1328 -0.7483
32762SOL    HW2 3607   1.040  10.450   1.140  0.3218 -0.5482  0.3347
32763SOL     OW 3608   3.194   7.167   7.057  0.9271 -0.0295  0.1038
32763SOL    HW1 3609   3.249   7.089   7.052 -1.0795 -1.4648 -1.2782
32763SOL    HW2 3610   3.159   7.166   7.146  0.9090 -0.7315  0.0952
32764SOL     OW 3611   0.230   0.469   1.070 -0.0096 -0.5497 -0.0472
32764SOL    HW1 3612   0.323   0.453   1.053 -0.5089 -1.9248 -1.7560
32764SOL    HW2 3613   0.225   0.564   1.083  1.7907 -0.5856  1.4049
32765SOL     OW 3614   3.929   3.127   8.891 -0.0116 -0.3722  0.3228
32765SOL    HW1 3615   3.898   3.053   8.839  1.2843  0.2426 -1.4194
32765SOL    HW2 3616   3.891   3.114   8.977 -1.7116 -1.7999 -0.5931
32766SOL     OW 3617   2.465   9.054   5.290 -0.2866  0.5083 -0.4412
32766SOL    HW1 3618   2.410   9.038   5.213  1.0717 -1.1598 -1.1268
32766SOL    HW2 3619   2.517   8.974   5.300 -1.2918  0.0998  3.0034
32767SOL     OW 3620   8.726  10.398   4.651 -0.0627  0.1874 -0.0374
32767SOL    HW1 3621   8.816  10.375   4.675  0.0961 -0.8318 -1.4522
32767SOL    HW2 3622   8.734  10.438   4.565 -1.0589 -1.1965 -0.8130
32768SOL     OW 3623   6.092   7.135   4.769 -0.4907 -1.4835 -0.6431
32768SOL    HW1 3624   6.044   7.087   4.836  0.7460 -1.7567  0.0871
32768SOL    HW2 3625   6.184   7.123   4.793 -0.1107  0.7723 -0.7594
32769SOL     OW 3626   2.571   1.176   5.232  0.1229 -0.2883  0.1933
32769SOL    HW1 3627   2.641   1.207   5.174  0.0027  0.2688  0.3376
32769SOL    HW2 3628   2.613   1.106   5.284  1.1706  1.3056  1.6098
32770SOL     OW 3629   9.465   0.338   4.845  0.3026  0.5450  0.5803
32770SOL    HW1 3630   9.453   0.267   4.781 -1.5616  1.1934  0.1438
32770SOL    HW2 3631   9.480   0.294   4.928 -0.4758 -0.3799  0.2485
32771SOL     OW 3632   1.471   7.199   2.124 -0.2407  0.2703  0.1637
32771SOL    HW1 3633   1.443   7.211   2.215 -0.4728 -2.8540  0.6119
32771SOL    HW2 3634   1.389   7.194   2.074 -0.1148  2.0023 -0.2665
32772SOL     OW 3635   4.518   7.319   3.168 -0.0226 -0.2396 -0.0898
32772SOL    HW1 3636   4.431   7.348   3.195 -0.5921 -1.0102 -1.0411
32772SOL    HW2 3637   4.548   7.386   3.106 -0.6086 -0.7572 -0.9561
32773SOL     OW 3638   7.737   6.631   9.820  0.1638  0.3794 -0.0042
32773SOL    HW1 3639   7.686   6.712   9.812 -1.7204 -0.7016  0.3837
32773SOL    HW2 3640   7.759   6.625   9.913 -1.6204 -0.5976  0.4009
32774SOL     OW 3641   6.300   8.751   3.280 -0.1165 -0.0784 -0.6099
32774SOL    HW1 3642   6.381   8.702   3.291 -1.2899 -2.2218 -0.8707
32774SOL    HW2 3643   6.299   8.776   3.188  1.8815  3.2151  0.1084
32775SOL     OW 3644  11.714   9.295  11.263  0.2145  0.3381  0.3909
32775SOL    HW1 3645  11.633   9.273  11.216  0.8979 -0.5634 -0.4265
32775SOL    HW2 3646  11.685   9.339  11.342 -1.0829  0.0316  0.1106
32776SOL     OW 3647   0.830   0.278   7.131  0.2058  0.2592 -0.2564
32776SOL    HW1 3648   0.897   0.241   7.188  0.9014  1.4705 -0.2587
32776SOL    HW2 3649   0.781   0.338   7.188  0.5236  1.0246 -0.7867
32777SOL     OW 3650   9.324   1.420   8.607  0.0073  0.4055 -0.1660
32777SOL    HW1 3651   9.235   1.453   8.610 -0.6973 -0.9841 -2.7383
32777SOL    HW2 3652   9.319   1.333   8.647  0.5826  0.9574  1.1533
32778SOL     OW 3653   7.535   9.953   1.883  0.1691 -0.4321  0.1076
32778SOL    HW1 3654   7.625   9.939   1.913  0.7786  0.5534 -1.1928
32778SOL    HW2 3655   7.484   9.957   1.964  1.5353  0.6501  0.9720
32779SOL     OW 3656   9.133   3.616   2.034  0.6375  0.2341 -0.6635
32779SOL    HW1 3657   9.192   3.615   2.109 -1.8209  0.5474  1.4100
32779SOL    HW2 3658   9.156   3.538   1.984  2.2404 -0.0770  0.4814
32780SOL     OW 3659  10.952  11.588   4.691  0.3026  0.7236 -0.4008
32780SOL    HW1 3660  10.926  11.505   4.729 -1.8571  1.1488 -0.7907
32780SOL    HW2 3661  10.885  11.650   4.720  1.5468  2.2283 -0.5641
32781SOL     OW 3662   6.512   0.485   6.996 -0.2810  0.4922  0.2045
32781SOL    HW1 3663   6.538   0.577   6.986  0.5174  0.2083 -0.5141
32781SOL    HW2 3664   6.429   0.488   7.044  0.8419  1.4898  2.2322
32782SOL     OW 3665   8.360   2.429   8.311 -0.5059  0.5932  0.4126
32782SOL    HW1 3666   8.370   2.515   8.271  1.0407 -0.3378 -1.3200
32782SOL    HW2 3667   8.436   2.379   8.281 -0.6181 -0.9685  2.5019
32783SOL     OW 3668   4.428   2.233   7.571  0.9751 -0.0134 -0.2280
32783SOL    HW1 3669   4.457   2.193   7.489 -0.4259 -0.5414 -0.4853
32783SOL    HW2 3670   4.339   2.200   7.584  0.3458  1.8005  0.3687
32784SOL     OW 3671   8.427   4.908   0.363  0.2923 -0.4922 -0.0039
32784SOL    HW1 3672   8.453   4.841   0.426  1.3027 -0.4101 -0.3127
32784SOL    HW2 3673   8.484   4.982   0.383 -0.6302  0.1922  0.1590
32785SOL     OW 3674   6.460   9.422   1.002  0.2583 -0.4410 -0.9901
32785SOL    HW1 3675   6.499   9.503   0.969 -0.4342 -0.1300 -1.0714
32785SOL    HW2 3676   6.451   9.436   1.096  1.3917 -0.9692 -0.7896
32786SOL     OW 3677   0.472   6.440   0.340 -0.3188 -0.3038 -0.0114
32786SOL    HW1 3678   0.407   6.461   0.408 -0.3257 -3.1629  1.0150
32786SOL    HW2 3679   0.525   6.519   0.332 -1.5552  0.8056  1.9367
32787SOL     OW 3680   9.335   6.107  10.657  0.2085  0.7816  0.1862
32787SOL    HW1 3681   9.275   6.171  10.620 -1.4700  0.8573  2.8270
32787SOL    HW2 3682   9.287   6.024  10.655  1.2134  0.1795 -0.4257
32788SOL     OW 3683  11.705   0.120   2.509  0.3074 -0.0671 -0.4875
32788SOL    HW1 3684  11.735   0.040   2.467  0.0950  0.6548 -2.1034
32788SOL    HW2 3685  11.610   0.121   2.492  0.2303  0.2786 -0.0437
32789SOL     OW 3686   8.072   7.334   2.408  0.5806  0.0648 -0.5758
32789SOL    HW1 3687   8.046   7.298   2.324 -0.3601 -0.1287 -0.2107
32789SOL    HW2 3688   8.081   7.258   2.466 -1.5732  0.3695  0.2383
32790SOL     OW 3689   9.932  10.442  11.595  0.1218 -0.6398  0.0854
32790SOL    HW1 3690   9.926  10.523  11.645 -1.4470  0.3367 -1.5491
32790SOL    HW2 3691   9.928  10.373  11.661 -0.7106  0.5973  1.3920
32791SOL     OW 3692   7.289   9.867  11.621 -0.0049 -0.1011  0.0271
32791SOL    HW1 3693   7.279   9.908  11.534 -1.1345  0.9096  0.5966
32791SOL    HW2 3694   7.202   9.833  11.641 -0.1541  0.9660  1.3539
32792SOL     OW 3695   2.319   3.314   0.583 -0.5150  0.2785 -0.0837
32792SOL    HW1 3696   2.329   3.223   0.611 -2.6190  0.0127 -0.0166
32792SOL    HW2 3697   2.329   3.365   0.664 -1.6554 -0.1009  0.3143
32793SOL     OW 3698   3.517   0.578   6.706 -0.1347 -0.1687  0.8214
32793SOL    HW1 3699   3.590   0.558   6.648 -1.9727  0.7360 -2.0231
32793SOL    HW2 3700   3.460   0.501   6.699 -0.4158 -0.0194  1.4153
32794SOL     OW 3701   3.110  11.769   3.107 -0.0122  0.3959  0.3291
32794SOL    HW1 3702   3.091  11.833   3.176 -0.0272 -0.3074  0.9901
32794SOL    HW2 3703   3.164  11.703   3.149  0.9581  0.5402 -0.6409
32795SOL     OW 3704  10.289   9.038   7.875  0.5337  0.2251  0.3392
32795SOL    HW1 3705  10.203   9.075   7.897  0.5955  1.4877 -1.3545
32795SOL    HW2 3706  10.270   8.975   7.806  0.9010  0.0445  0.4043
32796SOL     OW 3707   7.083  11.184  11.817  0.3924 -0.7846 -0.8294
32796SOL    HW1 3708   7.133  11.130  11.757 -0.4699 -2.1339 -0.3854
32796SOL    HW2 3709   7.147  11.217  11.880  0.9580 -1.1752 -1.1942
32797SOL     OW 3710  11.419   4.077   3.662 -0.3861  0.1452  0.5865
32797SOL    HW1 3711  11.473   4.136   3.715  0.1042  0.4359 -0.2241
32797SOL    HW2 3712  11.482   4.023   3.614 -0.8303 -0.3696  0.5677
32798SOL     OW 3713   9.455   7.675  11.457 -0.2020  0.7354  0.1875
32798SOL    HW1 3714   9.420   7.729  11.528  1.2566  1.4117  0.4268
32798SOL    HW2 3715   9.550   7.679  11.469 -0.0022 -0.5927 -0.7546
32799SOL     OW 3716   7.494  10.375   3.364  0.4820 -0.0378  0.4232
32799SOL    HW1 3717   7.404  10.372   3.332  0.5437  2.4652 -0.2219
32799SOL    HW2 3718   7.489  10.338   3.453 -1.0457 -0.5021  0.1832
32800SOL     OW 3719   9.815   6.878  10.612  0.6833 -0.3805  0.4932
32800SOL    HW1 3720   9.878   6.927  10.665  0.6002  1.7745 -1.2866
32800SOL    HW2 3721   9.781   6.941  10.549  1.0172 -2.7954 -2.3830
32801SOL     OW 3722   5.133  11.331   6.543 -0.2070 -0.1266  0.7968
32801SOL    HW1 3723   5.082  11.352   6.621  0.1375 -1.5452  1.4407
32801SOL    HW2 3724   5.070  11.290   6.484 -0.3627  0.5094  0.5122
32802SOL     OW 3725  10.113   5.188   9.168 -0.4647  0.2043  0.0572
32802SOL    HW1 3726  10.102   5.173   9.074  1.5227 -3.0155  0.1725
32802SOL    HW2 3727  10.187   5.248   9.174 -0.6916  0.5386 -0.4365
32803SOL     OW 3728   1.321   1.790   6.008  0.2727  0.5317  0.0665
32803SOL    HW1 3729   1.264   1.824   6.078  0.4815  0.2030  0.4004
32803SOL    HW2 3730   1.301   1.697   6.005 -0.3232  0.6785 -0.8724
32804SOL     OW 3731  11.618   3.359   6.162  0.5546 -0.4101 -0.4543
32804SOL    HW1 3732  11.652   3.364   6.251 -0.5197 -0.9178 -0.0053
32804SOL    HW2 3733  11.681   3.302   6.116  0.3857 -1.2597  0.3398
32805SOL     OW 3734   5.124   2.505  10.127  0.2157  0.2626  0.0411
32805SOL    HW1 3735   5.181   2.580  10.144  0.9984  0.1198 -1.7259
32805SOL    HW2 3736   5.106   2.509  10.034 -0.0504 -1.5167 -0.0300
32806SOL     OW 3737   8.031  10.947   6.725  0.2210  0.2420  0.1100
32806SOL    HW1 3738   7.995  10.998   6.652 -0.7084  0.7080  0.8796
32806SOL    HW2 3739   7.986  10.863   6.721 -0.1409  0.4215  0.4018
32807SOL     OW 3740   1.232   2.987   7.147  0.1268 -0.0499 -0.0516
32807SOL    HW1 3741   1.263   3.011   7.060 -0.2405  0.0041 -0.1664
32807SOL    HW2 3742   1.224   3.071   7.194 -1.0600  0.0612 -0.4219
32808SOL     OW 3743   8.647   4.883   7.478 -0.3629 -0.6269  0.2770
32808SOL    HW1 3744   8.601   4.925   7.551  1.4549  0.4244  0.8837
32808SOL    HW2 3745   8.621   4.791   7.484 -2.3691 -0.0819  0.5527
32809SOL     OW 3746  11.758   7.968  10.213 -0.4670 -0.1152  0.0324
32809SOL    HW1 3747  11.835   7.913  10.228 -0.1891  0.7294  2.1109
32809SOL    HW2 3748  11.750   7.974  10.118  2.7891  0.7568 -0.3148
32810SOL     OW 3749   2.064   6.956  11.516 -0.0226  0.3610 -0.0149
32810SOL    HW1 3750   1.972   6.971  11.495 -0.2301  0.0988  0.6702
32810SOL    HW2 3751   2.098   7.042  11.539  0.3573  0.7530 -1.9251
32811SOL     OW 3752   8.188   9.875   8.194 -0.2924  0.3081 -0.4427
32811SOL    HW1 3753   8.224   9.792   8.165 -0.2441  1.0341 -2.6719
32811SOL    HW2 3754   8.193   9.872   8.290 -3.2050 -3.5144 -0.1797
32812SOL     OW 3755   4.235   4.506   1.082  0.1505  0.2983  0.1394
32812SOL    HW1 3756   4.257   4.563   1.008  1.7917 -1.0141 -0.4407
32812SOL    HW2 3757   4.199   4.565   1.148 -1.9184  1.4342 -1.8923
32813SOL     OW 3758   7.701   7.908   8.262 -0.7004  0.1826  0.0293
32813SOL    HW1 3759   7.789   7.885   8.234 -0.5249  0.5529  0.2606
32813SOL    HW2 3760   7.668   7.830   8.306  0.2554  0.6433  1.6815
32814SOL     OW 3761   2.094   5.386   6.854  0.6777 -0.4436  0.7068
32814SOL    HW1 3762   2.131   5.469   6.826  0.0624  0.0842  1.4271
32814SOL    HW2 3763   2.046   5.354   6.777  0.9205 -0.1339  0.4247
32815SOL     OW 3764  10.395   9.887   5.787 -0.4072 -0.3527 -0.2634
32815SOL    HW1 3765  10.401   9.904   5.881 -0.7913 -1.2686 -0.0605
32815SOL    HW2 3766  10.303   9.866   5.773 -0.5642  0.7599 -1.0320
32816SOL     OW 3767   6.514  11.422  11.332  0.5359 -0.0256  0.4717
32816SOL    HW1 3768   6.468  11.436  11.415  0.5827 -1.4400  0.7543
32816SOL    HW2 3769   6.446  11.423  11.265  0.4350  0.5972  0.5812
32817SOL     OW 3770   7.882   5.782   1.457 -0.6022 -0.9037  0.0740
32817SOL    HW1 3771   7.820   5.753   1.390 -1.0799 -1.1569  0.6150
32817SOL    HW2 3772   7.959   5.811   1.408 -1.2284 -0.3831 -0.6187
32818SOL     OW 3773  10.338   9.226  11.608 -0.0840  0.4542 -0.0778
32818SOL    HW1 3774  10.243   9.215  11.598  0.1779 -1.1113 -1.0889
32818SOL    HW2 3775  10.347   9.299  11.670 -1.9799 -0.8999  1.9246
32819SOL     OW 3776   8.565   6.269   9.986 -0.1219  0.5449 -0.7953
32819SOL    HW1 3777   8.649   6.280  10.031 -0.9768  0.7481  0.8239
32819SOL    HW2 3778   8.542   6.178   9.999 -0.1140  0.4558 -1.3559
32820SOL     OW 3779   4.279  10.211   5.301  0.2391  0.1925 -0.4021
32820SOL    HW1 3780   4.303  10.303   5.301  1.4129 -0.1029 -0.8598
32820SOL    HW2 3781   4.360  10.164   5.280  0.1965 -1.0757  1.8984
32821SOL     OW 3782  11.106   9.166   1.146 -0.2908 -0.1121  0.5776
32821SOL    HW1 3783  11.130   9.097   1.209 -1.5418  0.8179  2.1537
32821SOL    HW2 3784  11.056   9.120   1.078  0.2890 -1.0067  0.7420
32822SOL     OW 3785  10.027   7.706   3.478  0.4772 -0.0781 -0.2243
32822SOL    HW1 3786   9.934   7.695   3.500  1.1642 -1.4284  2.4120
32822SOL    HW2 3787  10.063   7.754   3.552  2.2141 -1.2152 -0.2784
32823SOL     OW 3788   5.387   8.540   8.603 -0.5956  0.5575 -0.3779
32823SOL    HW1 3789   5.466   8.488   8.588 -0.6632  0.9834 -2.4347
32823SOL    HW2 3790   5.418   8.616   8.653  0.0739  0.1604 -0.1757
32824SOL     OW 3791   5.180   6.071  10.678  0.0225 -0.4198 -0.3125
32824SOL    HW1 3792   5.226   5.987  10.666  0.7780  0.1565 -1.6025
32824SOL    HW2 3793   5.224   6.131  10.618 -0.2833  1.0084  0.8498
32825SOL     OW 3794   0.604   0.458   1.506 -0.2129  0.3883  0.1261
32825SOL    HW1 3795   0.694   0.426   1.497 -0.2095  0.5755 -0.6587
32825SOL    HW2 3796   0.596   0.526   1.439 -1.8566 -1.7327 -2.0383
32826SOL     OW 3797   8.651   5.641   1.149  0.2078 -0.2252 -0.1319
32826SOL    HW1 3798   8.684   5.590   1.075 -1.7270 -2.3969  0.3805
32826SOL    HW2 3799   8.571   5.681   1.117 -0.5293 -1.0080  0.6863
32827SOL     OW 3800   6.917   4.623   2.520 -0.0193 -0.3007  0.5651
32827SOL    HW1 3801   6.840   4.574   2.547 -0.2040 -0.2681  0.1001
32827SOL    HW2 3802   6.948   4.578   2.442 -0.9394  1.0652 -0.6423
32828SOL     OW 3803  10.616   9.214  10.520  0.5362 -0.4275 -0.8218
32828SOL    HW1 3804  10.521   9.224  10.520  0.6376  1.0167  1.0567
32828SOL    HW2 3805  10.646   9.273  10.451  0.2364  2.0687  1.0635
32829SOL     OW 3806  10.318   1.826  11.813 -0.6357  0.1409  0.0294
32829SOL    HW1 3807  10.258   1.877  11.759  0.8612 -0.3780 -2.2842
32829SOL    HW2 3808  10.278   1.739  11.818 -1.4684  0.5567  1.0187
32830SOL     OW 3809   4.305   3.540  10.468  0.6604 -0.3829  0.7076
32830SOL    HW1 3810   4.292   3.446  10.475  0.7128 -0.7387 -2.6493
32830SOL    HW2 3811   4.385   3.557  10.518  0.5482 -2.0622  1.5074
32831SOL     OW 3812  10.486  10.428   2.017 -0.4693  0.0950 -0.0571
32831SOL    HW1 3813  10.432  10.506   2.002 -2.3098 -1.4950 -2.4812
32831SOL    HW2 3814  10.552  10.431   1.949  1.4532  1.0117  1.7272
32832SOL     OW 3815   2.908   3.241   4.006  0.5209 -0.0198 -0.0607
32832SOL    HW1 3816   2.828   3.269   3.962 -0.2238 -0.3124  1.0750
32832SOL    HW2 3817   2.964   3.318   4.005  1.3903 -0.5533 -3.3130
32833SOL     OW 3818   2.810   7.674   6.766  0.3055 -0.4043 -0.1127
32833SOL    HW1 3819   2.771   7.746   6.717  1.5172 -0.5848 -1.4134
32833SOL    HW2 3820   2.738   7.613   6.781 -0.4206  0.3852 -0.3010
32834SOL     OW 3821  11.707   4.811   4.069  0.3957 -0.0488 -0.4023
32834SOL    HW1 3822  11.662   4.859   4.138  0.5373  0.4563 -0.6523
32834SOL    HW2 3823  11.683   4.720   4.082 -1.3245  0.2946 -0.9893
32835SOL     OW 3824   2.135   4.222   2.575  0.4872  0.2869 -0.3380
32835SOL    HW1 3825   2.096   4.175   2.502 -0.0953 -0.9668  0.7430
32835SOL    HW2 3826   2.093   4.309   2.572 -0.5044 -0.1888 -0.7066
32836SOL     OW 3827   4.871   7.534   2.675  0.2025  0.4022  0.3425
32836SOL    HW1 3828   4.792   7.585   2.660 -0.5534 -0.7743  0.1759
32836SOL    HW2 3829   4.910   7.572   2.753 -1.5751 -0.2068  1.5929
32837SOL     OW 3830   5.208  10.114   5.235 -0.2898  0.0388  0.1172
32837SOL    HW1 3831   5.274  10.138   5.170  0.9997  2.0563  2.0223
32837SOL    HW2 3832   5.256  10.060   5.299 -0.6483  0.8207  1.0795
32838SOL     OW 3833   3.133   0.772   0.335  0.0381  0.0903  0.3768
32838SOL    HW1 3834   3.124   0.787   0.429  0.1390 -0.0099  0.4020
32838SOL    HW2 3835   3.060   0.714   0.313 -1.1184  1.5961  0.0495
32839SOL     OW 3836   3.509  11.370   3.930  0.7707  0.0006  0.0653
32839SOL    HW1 3837   3.599  11.368   3.962  0.3061 -0.6512  1.3937
32839SOL    HW2 3838   3.498  11.288   3.883  1.4844  1.0025 -1.9688
32840SOL     OW 3839   6.820   4.280   6.118  0.1115 -0.4795  0.4093
32840SOL    HW1 3840   6.852   4.237   6.039  1.4616  1.4044 -0.1215
32840SOL    HW2 3841   6.890   4.265   6.182  0.4145  0.5597  0.3310
32841SOL     OW 3842   7.193   1.845   1.603  0.0492  0.1053 -0.3343
32841SOL    HW1 3843   7.165   1.760   1.569  3.3704 -0.0682 -3.2052
32841SOL    HW2 3844   7.150   1.909   1.546  2.2098 -0.0126 -2.2189
32842SOL     OW 3845   3.166   9.994  10.310 -0.2974 -0.1243  0.7246
32842SOL    HW1 3846   3.239   9.965  10.364 -0.3795  0.3888  1.1197
32842SOL    HW2 3847   3.088   9.975  10.362 -0.4538 -0.7017  0.2917
32843SOL     OW 3848   4.367  10.877   9.677 -0.4578  0.5523  0.1522
32843SOL    HW1 3849   4.421  10.908   9.604  0.3235  1.7486  1.2015
32843SOL    HW2 3850   4.393  10.785   9.688 -0.6351  0.3359 -1.0899
32844SOL     OW 3851   2.327   1.718  11.383 -0.0665 -0.0874 -0.2778
32844SOL    HW1 3852   2.299   1.634  11.346 -0.9918  0.1214 -0.0683
32844SOL    HW2 3853   2.380   1.694  11.459 -2.3048 -0.5005  1.2416
32845SOL     OW 3854   5.497   2.028   5.286 -0.4747 -0.5923 -0.3040
32845SOL    HW1 3855   5.465   1.960   5.227 -1.5557 -0.0426 -0.3653
32845SOL    HW2 3856   5.463   2.004   5.372 -1.4702  0.2295 -0.4466
32846SOL     OW 3857   1.203   2.823  10.476 -0.2065  0.0898 -0.8128
32846SOL    HW1 3858   1.134   2.826  10.542  0.1878  2.7941 -0.4205
32846SOL    HW2 3859   1.160   2.853  10.396 -0.1696 -1.1886 -1.3467
32847SOL     OW 3860   3.721  10.478   2.263  0.9684  0.2347  0.3846
32847SOL    HW1 3861   3.661  10.463   2.190  1.1598  0.9691  0.0743
32847SOL    HW2 3862   3.762  10.393   2.278 -0.0576 -0.2513  0.5207
32848SOL     OW 3863   9.521   1.841   7.578 -0.3396  0.1093  0.3939
32848SOL    HW1 3864   9.514   1.894   7.499 -1.5917 -1.0560 -0.3115
32848SOL    HW2 3865   9.434   1.846   7.618 -0.7907 -2.0991 -0.1818
32849SOL     OW 3866  10.672   9.985   4.267 -0.2255  0.4313  0.0298
32849SOL    HW1 3867  10.668   9.912   4.205  2.5911 -1.0924  1.4622
32849SOL    HW2 3868  10.725  10.051   4.222  0.4473 -0.0098  0.1552
32850SOL     OW 3869   0.787  10.436   6.905  0.5007 -0.9330 -0.5969
32850SOL    HW1 3870   0.861  10.375   6.908  1.2028 -0.0812  1.8957
32850SOL    HW2 3871   0.821  10.513   6.859  0.7783 -1.0006 -0.5072
32851SOL     OW 3872   1.097   9.333   6.407  0.3763  0.3368  0.0165
32851SOL    HW1 3873   1.104   9.404   6.344 -1.5406 -0.5689 -1.3105
32851SOL    HW2 3874   1.090   9.377   6.492 -2.1329  1.8885 -0.8727
32852SOL     OW 3875   9.304   8.603   1.553  0.5229  0.1242  0.2240
32852SOL    HW1 3876   9.308   8.508   1.541  1.4254  0.3725 -1.7323
32852SOL    HW2 3877   9.275   8.614   1.644  1.4669 -2.0136  0.8506
32853SOL     OW 3878   8.634   1.376   5.284 -0.0506  0.9996 -0.3065
32853SOL    HW1 3879   8.644   1.328   5.366 -0.4271  0.5428 -0.5241
32853SOL    HW2 3880   8.585   1.454   5.308 -1.5381  0.1066 -0.3587
32854SOL     OW 3881   8.653   2.261  11.725  0.3734  0.3352 -0.2015
32854SOL    HW1 3882   8.564   2.254  11.759  1.1022 -1.1744  1.5412
32854SOL    HW2 3883   8.643   2.307  11.641 -1.8351  1.5507  0.6612
32855SOL     OW 3884   0.665   8.045   0.913  0.4909  0.3615  0.2375
32855SOL    HW1 3885   0.636   8.059   0.823  0.2119  0.7442  0.3868
32855SOL    HW2 3886   0.751   8.002   0.904 -0.4118 -1.4722 -0.2099
32856SOL     OW 3887   8.932   3.058  10.542  0.1658 -0.0114  0.1182
32856SOL    HW1 3888   8.952   2.968  10.567 -1.3211 -0.8954 -1.5852
32856SOL    HW2 3889   8.949   3.061  10.448 -0.5001  1.2762  0.0151
32857SOL     OW 3890   3.621   6.897   4.765 -0.1398 -0.2441  0.6683
32857SOL    HW1 3891   3.605   6.975   4.817 -0.4785  0.3836 -0.3433
32857SOL    HW2 3892   3.600   6.923   4.675  1.2338 -1.0345  0.0837
32858SOL     OW 3893   5.090   4.943  10.048 -0.1302  0.1039 -0.6840
32858SOL    HW1 3894   5.066   4.994   9.970 -1.9638 -1.7125 -1.4022
32858SOL    HW2 3895   5.058   4.994  10.122  1.2742  1.6586 -1.0769
32859SOL     OW 3896   3.085   9.330   6.187 -0.8672  0.3295 -0.4212
32859SOL    HW1 3897   3.078   9.237   6.169  0.3224  0.2286 -0.4675
32859SOL    HW2 3898   3.141   9.336   6.265 -0.0732  1.0274 -1.0219
32860SOL     OW 3899   0.645   3.557   0.029  0.0328 -0.1707 -0.2798
32860SOL    HW1 3900   0.613   3.634   0.076  1.7228 -0.3287  1.2474
32860SOL    HW2 3901   0.735   3.580   0.005  1.0939 -2.1522  1.5197
32861SOL     OW 3902  11.798   8.599   4.736  0.3746  0.6878 -0.3739
32861SOL    HW1 3903  11.864   8.549   4.687  0.3246  0.1453  0.1112
32861SOL    HW2 3904  11.833   8.688   4.739  0.4169  0.7149 -1.3314
32862SOL     OW 3905   9.820   1.786   2.085 -0.2075 -0.0529 -0.5442
32862SOL    HW1 3906   9.890   1.822   2.030  0.6772 -0.0106  0.5617
32862SOL    HW2 3907   9.846   1.695   2.101 -1.6612 -0.7835 -2.0860
32863SOL     OW 3908  11.133  11.808   3.582 -0.9122  0.0524  0.7533
32863SOL    HW1 3909  11.151  11.802   3.676  0.9656  3.1401  0.7102
32863SOL    HW2 3910  11.047  11.848   3.577 -0.4214  1.2075  1.2222
32864SOL     OW 3911   8.356   2.825   0.784 -0.4275  0.4556  0.8507
32864SOL    HW1 3912   8.341   2.825   0.878 -0.5207  0.0528  0.8387
32864SOL    HW2 3913   8.304   2.898   0.751  0.0457  0.9395  1.1790
32865SOL     OW 3914   3.183   8.812   6.453 -0.1991 -0.1681 -0.3082
32865SOL    HW1 3915   3.240   8.815   6.530 -0.1575  0.7029 -0.3636
32865SOL    HW2 3916   3.175   8.718   6.433  0.4385 -0.3580  0.2707
32866SOL     OW 3917   8.467   1.575   0.890 -0.0798  0.2067  0.4555
32866SOL    HW1 3918   8.472   1.496   0.836  0.1799  0.0077  0.7713
32866SOL    HW2 3919   8.390   1.563   0.945 -0.4377  0.4808  0.0227
32867SOL     OW 3920  10.613   5.405   3.324  0.4126  0.0735 -0.3373
32867SOL    HW1 3921  10.578   5.317   3.339  0.4017  0.1067 -0.1636
32867SOL    HW2 3922  10.541   5.453   3.282  0.4326 -0.0128 -0.4668
32868SOL     OW 3923   6.456   9.037   8.649 -0.2584  0.1888 -0.2599
32868SOL    HW1 3924   6.505   8.967   8.693 -1.0021  0.6243  1.3508
32868SOL    HW2 3925   6.379   8.994   8.613  0.2750 -0.1454 -1.0293
32869SOL     OW 3926   7.978   2.892   6.791  0.0147  0.0710  0.1859
32869SOL    HW1 3927   8.031   2.946   6.733  0.7613 -1.7937 -0.9474
32869SOL    HW2 3928   7.889   2.899   6.756  0.3164 -0.3564 -0.7078
32870SOL     OW 3929   5.417   5.369   4.230  0.4428  0.7648 -0.4996
32870SOL    HW1 3930   5.333   5.329   4.209  1.7090 -0.9567 -2.7164
32870SOL    HW2 3931   5.459   5.307   4.289  0.6201  1.0772 -0.2945
32871SOL     OW 3932   9.247  10.077   5.254 -0.6404  0.2245 -0.6504
32871SOL    HW1 3933   9.229  10.071   5.348 -0.4379  1.0757 -0.5497
32871SOL    HW2 3934   9.184  10.016   5.214  0.1406 -1.1400  0.1195
32872SOL     OW 3935   4.343   4.325   5.684 -0.4549  0.4118  0.7799
32872SOL    HW1 3936   4.255   4.289   5.674 -0.4397  0.6588 -0.4297
32872SOL    HW2 3937   4.399   4.249   5.700 -0.6217  0.0257 -0.3669
32873SOL     OW 3938   5.069   9.572   1.552  0.2746  0.2569 -0.4122
32873SOL    HW1 3939   4.997   9.612   1.600  0.7191  0.9756 -0.3277
32873SOL    HW2 3940   5.037   9.486   1.527  0.0133 -0.1189  1.1319
32874SOL     OW 3941  11.755   5.695   3.740  0.2214 -0.3361 -0.1511
32874SOL    HW1 3942  11.828   5.633   3.736  1.9885  1.4795  1.5169
32874SOL    HW2 3943  11.777   5.762   3.675 -0.3096 -0.1240 -0.1179
32875SOL     OW 3944  11.418  10.084   9.084 -0.0763 -0.5760 -0.2751
32875SOL    HW1 3945  11.449  10.174   9.076  0.4526 -0.8895 -2.2692
32875SOL    HW2 3946  11.491  10.031   9.052 -0.6591 -1.6705  0.1666
32876SOL     OW 3947   7.883   4.522   8.457 -0.0558  0.3355 -0.5556
32876SOL    HW1 3948   7.822   4.449   8.470 -0.1820  0.1402 -2.0727
32876SOL    HW2 3949   7.829   4.593   8.422  0.3967  0.5092 -0.9098
32877SOL     OW 3950   7.647  11.092   9.224  0.4866 -0.2021 -0.5484
32877SOL    HW1 3951   7.607  11.011   9.191  0.4402 -0.6391  0.5554
32877SOL    HW2 3952   7.628  11.157   9.156  0.5415 -1.1110 -1.4587
32878SOL     OW 3953   3.603  11.766   5.476  0.1008  0.3500  0.3080
32878SOL    HW1 3954   3.658  11.759   5.398 -1.2816  0.6418 -0.7304
32878SOL    HW2 3955   3.513  11.756   5.443 -0.5004  0.2098  1.9014
32879SOL     OW 3956   5.205   0.830   7.441 -0.1472 -0.3142  0.5415
32879SOL    HW1 3957   5.174   0.836   7.531 -0.6298 -0.0431  0.3627
32879SOL    HW2 3958   5.131   0.858   7.388 -1.1377 -3.8169 -0.1748
32880SOL     OW 3959   0.210   8.708  11.169 -0.1705 -0.1149 -0.2847
32880SOL    HW1 3960   0.124   8.743  11.192 -0.0820 -0.0517 -0.0422
32880SOL    HW2 3961   0.191   8.626  11.123 -0.3552 -0.2817  0.0792
32881SOL     OW 3962   0.035   2.662   7.394 -0.0746  0.4247 -0.3109
32881SOL    HW1 3963   0.043   2.717   7.472 -0.1028  0.2552 -0.1873
32881SOL    HW2 3964   0.116   2.676   7.346  0.7900 -0.9128  0.6900
32882SOL     OW 3965   0.797   2.200   6.894 -0.4137  0.2232  0.0514
32882SOL    HW1 3966   0.872   2.193   6.835 -1.2553 -0.8689 -0.9493
32882SOL    HW2 3967   0.772   2.292   6.891  2.1259  1.0934  2.0678
32883SOL     OW 3968   2.101  10.201   6.271 -0.0601 -0.1010 -0.2930
32883SOL    HW1 3969   2.144  10.116   6.270 -0.5439 -0.3836  0.9663
32883SOL    HW2 3970   2.107  10.230   6.362  2.8587  2.6716 -1.1708
32884SOL     OW 3971   1.035   1.622   0.947 -0.6915  0.1937 -0.0076
32884SOL    HW1 3972   1.004   1.600   1.035 -0.7471  0.3704  0.0180
32884SOL    HW2 3973   0.961   1.600   0.890 -1.4281  1.9510  0.2005
32885SOL     OW 3974   0.439   4.195   8.463  0.2019  0.1166  0.2978
32885SOL    HW1 3975   0.373   4.128   8.448  0.8631 -0.2921 -0.9561
32885SOL    HW2 3976   0.516   4.147   8.495  0.4432  0.3630  0.0925
32886SOL     OW 3977   1.608   2.779   3.588 -0.3861 -0.0693 -0.9462
32886SOL    HW1 3978   1.544   2.765   3.518 -0.5821  0.3241 -0.8466
32886SOL    HW2 3979   1.659   2.698   3.589 -2.4726 -1.4955  0.6525
32887SOL     OW 3980   9.376   3.182   1.947  0.5590  0.5152 -0.2399
32887SOL    HW1 3981   9.334   3.177   2.033  1.0780  0.1487 -0.0045
32887SOL    HW2 3982   9.355   3.099   1.905 -0.6746  1.1492 -0.9406
32888SOL     OW 3983   8.991  10.390   4.682  0.0131  0.4963 -0.4903
32888SOL    HW1 3984   9.053  10.419   4.748 -0.5553  1.0773 -0.2041
32888SOL    HW2 3985   9.000  10.453   4.611  0.3436  0.0941 -0.8192
32889SOL     OW 3986   3.662   9.037  10.169 -0.3752 -0.0238 -0.4843
32889SOL    HW1 3987   3.618   8.958  10.200  1.0727  0.2265  2.5322
32889SOL    HW2 3988   3.751   9.009  10.149 -0.8380  0.1677 -3.1835
32890SOL     OW 3989   6.876   5.831  10.132  0.3747 -0.4125  0.3823
32890SOL    HW1 3990   6.936   5.783  10.076  0.8737  1.7268 -1.0722
32890SOL    HW2 3991   6.794   5.833  10.082 -0.1002 -1.0301  1.1237
32891SOL     OW 3992   2.840   0.764   2.157  0.0850  0.3310  0.0153
32891SOL    HW1 3993   2.772   0.786   2.094 -0.4152  0.4719  0.5980
32891SOL    HW2 3994   2.831   0.669   2.170 -0.0096  0.3534  0.1089
32892SOL     OW 3995   2.550   1.570   3.466  0.0839  0.2660 -0.1096
32892SOL    HW1 3996   2.470   1.566   3.519 -0.1885 -0.3237 -0.5553
32892SOL    HW2 3997   2.530   1.518   3.388  1.1024 -0.3711  0.0342
32893SOL     OW 3998   4.119   1.692   6.593  0.1340  0.2679  0.0888
32893SOL    HW1 3999   4.075   1.687   6.507  0.4065  0.3602 -0.0583
32893SOL    HW2 4000   4.208   1.662   6.576 -0.3586 -1.7414  0.7699
32894SOL     OW 4001   4.770   6.229   9.036  0.5600 -0.3136 -0.2888
32894SOL    HW1 4002   4.728   6.244   8.951 -0.5991  3.1713  0.7523
32894SOL    HW2 4003   4.715   6.163   9.078 -2.4272  2.0986 -0.0867
32895SOL     OW 4004   9.268  10.412   0.817 -0.2154  0.0668  0.8410
32895SOL    HW1 4005   9.190  10.437   0.769 -0.2703  0.7165  1.2617
32895SOL    HW2 4006   9.235  10.376   0.900 -0.1078 -0.7461  0.5460
32896SOL     OW 4007   7.825  11.370   6.265  0.1090  0.3935  0.1061
32896SOL    HW1 4008   7.734  11.395   6.252 -0.0737 -0.3011  0.0238
32896SOL    HW2 4009   7.857  11.429   6.333 -0.6404  0.0723  0.7398
32897SOL     OW 4010   6.302   5.071   4.643  0.2893 -0.1232 -0.6321
32897SOL    HW1 4011   6.246   5.008   4.689 -1.6279 -0.4913 -3.2243
32897SOL    HW2 4012   6.389   5.058   4.680 -0.7672 -1.6057  1.5549
32898SOL     OW 4013  10.018   7.796  11.205 -0.3529  0.3155  0.4111
32898SOL    HW1 4014  10.081   7.747  11.152  0.8596  1.3727  0.8230
32898SOL    HW2 4015  10.002   7.876  11.155 -2.6863 -0.6422 -0.4848
32899SOL     OW 4016   3.946   8.044   2.787 -0.2167  0.3853  0.2385
32899SOL    HW1 4017   4.018   8.091   2.743  0.6285  1.5440  2.6966
32899SOL    HW2 4018   3.989   7.977   2.839 -0.9173  0.9129  1.5304
32900SOL     OW 4019   0.364   3.154   5.179 -0.3136 -0.3594  0.2552
32900SOL    HW1 4020   0.289   3.113   5.137 -0.5078  1.7386 -1.6148
32900SOL    HW2 4021   0.329   3.190   5.261 -1.2374  0.0730 -0.3116
32901SOL     OW 4022   4.640   7.117   2.876  0.6436 -0.1979  0.3882
32901SOL    HW1 4023   4.666   7.027   2.858 -0.1497 -0.2479 -0.5984
32901SOL    HW2 4024   4.581   7.140   2.804  0.5784  1.0009  0.7999
32902SOL     OW 4025   1.513   8.464   9.997 -0.1263  0.9314 -0.1609
32902SOL    HW1 4026   1.431   8.414  10.008  0.5766 -0.1056  0.5778
32902SOL    HW2 4027   1.494   8.525   9.926 -1.6688  0.9771  0.2463
32903SOL     OW 4028   8.890   0.832   3.856  0.0182  0.0154  0.4433
32903SOL    HW1 4029   8.949   0.830   3.780 -0.0613 -3.1566  0.3420
32903SOL    HW2 4030   8.804   0.849   3.818  0.3022  0.7644  0.1153
32904SOL     OW 4031   6.551   1.030  10.777  0.3209 -0.8235  0.8839
32904SOL    HW1 4032   6.640   1.035  10.742  0.7065  0.2687  1.9749
32904SOL    HW2 4033   6.528   1.120  10.799 -0.8994 -1.1465  1.0370
32905SOL     OW 4034   0.459   2.415   0.482 -0.2630 -0.4859 -0.0615
32905SOL    HW1 4035   0.397   2.347   0.510 -0.5910 -1.7297 -3.4110
32905SOL    HW2 4036   0.529   2.367   0.438 -0.0513  1.2552 -1.7547
32906SOL     OW 4037   8.205   1.400   0.792  0.1207 -0.3917 -0.5344
32906SOL    HW1 4038   8.284   1.366   0.751 -0.0238 -0.4733 -0.7472
32906SOL    HW2 4039   8.157   1.442   0.721 -2.1657 -4.0631 -1.4796
32907SOL     OW 4040   9.907   6.423   5.123  0.0778 -0.1178 -0.2089
32907SOL    HW1 4041   9.962   6.461   5.054  0.6932 -1.7612 -0.6689
32907SOL    HW2 4042   9.952   6.343   5.148 -1.9215 -1.3623 -0.3654
32908SOL     OW 4043   5.341   4.853   2.144 -0.2853 -0.1368 -0.0184
32908SOL    HW1 4044   5.261   4.891   2.108 -1.1302 -1.1085  0.7810
32908SOL    HW2 4045   5.412   4.901   2.100 -1.2855  0.2871 -1.2273
32909SOL     OW 4046   0.148   5.398   4.160 -0.0658 -0.3584 -0.2001
32909SOL    HW1 4047   0.077   5.336   4.144 -0.9110  1.0207 -2.1965
32909SOL    HW2 4048   0.226   5.357   4.122 -0.5882 -0.3019 -1.3641
32910SOL     OW 4049   2.356   8.194   2.999  0.3614 -0.0831  0.2589
32910SOL    HW1 4050   2.352   8.251   3.076  2.9857  1.4527 -0.5797
32910SOL    HW2 4051   2.446   8.161   2.999  1.1574  1.6287 -3.1443
32911SOL     OW 4052   4.328   6.018  11.735  0.1194 -0.4570  0.5587
32911SOL    HW1 4053   4.367   5.934  11.711 -0.5471 -0.2665 -1.2768
32911SOL    HW2 4054   4.244   6.020  11.689  0.2044  1.2889  0.4282
32912SOL     OW 4055  11.412   7.043   7.620  0.1204 -0.2993  0.4439
32912SOL    HW1 4056  11.318   7.056   7.609  0.3616  1.8845  0.4448
32912SOL    HW2 4057  11.436   7.101   7.693  2.1536  3.0905 -2.5434
32913SOL     OW 4058  11.681   2.644   9.622  0.3473 -0.0534 -0.2533
32913SOL    HW1 4059  11.631   2.571   9.659 -0.4401 -0.1953 -1.5496
32913SOL    HW2 4060  11.629   2.674   9.548  1.1665  1.1796 -0.3586
32914SOL     OW 4061   9.992   6.085   7.623 -0.3826 -0.3789  0.1318
32914SOL    HW1 4062   9.991   6.009   7.680 -0.6637 -0.0453  0.5786
32914SOL    HW2 4063   9.907   6.084   7.579  0.3265 -1.3646 -1.2748
32915SOL     OW 4064   8.033   1.327   4.213 -0.2426 -0.2878  0.3135
32915SOL    HW1 4065   8.084   1.250   4.237  1.2286  0.8782  1.0875
32915SOL    HW2 4066   7.982   1.347   4.292  1.0215  0.7629  0.9051
32916SOL     OW 4067   9.005  10.713   3.717 -0.1772 -0.1905  0.0583
32916SOL    HW1 4068   9.052  10.699   3.635 -0.8531 -1.5102 -0.1409
32916SOL    HW2 4069   9.067  10.761   3.773  0.2083  0.9027 -1.2803
32917SOL     OW 4070   7.410   3.293  11.186 -0.5468 -0.4003 -0.3813
32917SOL    HW1 4071   7.429   3.202  11.210 -2.6465 -0.7573  0.1314
32917SOL    HW2 4072   7.389   3.335  11.269  0.8086  0.6857 -0.5679
32918SOL     OW 4073   1.833  11.284  10.040  0.0060  0.2723  0.3645
32918SOL    HW1 4074   1.808  11.290   9.948 -0.7129  1.8730  0.6294
32918SOL    HW2 4075   1.929  11.281  10.038  0.0114  0.6914 -0.4222
32919SOL     OW 4076   8.979   1.155   0.202  0.0910 -0.1435 -0.4828
32919SOL    HW1 4077   8.927   1.190   0.274  2.6670 -0.3055  1.6150
32919SOL    HW2 4078   9.058   1.209   0.201  1.3875 -1.9583 -1.2480
32920SOL     OW 4079  11.572   1.370   8.949  0.8269 -0.1594 -0.0741
32920SOL    HW1 4080  11.562   1.327   8.864 -0.1285 -0.0421 -0.0333
32920SOL    HW2 4081  11.586   1.298   9.011 -1.0186 -0.4771  0.0339
32921SOL     OW 4082   2.785  11.112  10.298  0.0848  0.7470 -0.3503
32921SOL    HW1 4083   2.789  11.155  10.213  1.7507  2.2365  0.4244
32921SOL    HW2 4084   2.776  11.184  10.361  1.6117 -0.1050  0.9097
32922SOL     OW 4085  10.202  11.322   4.291 -0.1081  0.0598 -0.3602
32922SOL    HW1 4086  10.208  11.318   4.386  1.5448 -1.7010 -0.4627
32922SOL    HW2 4087  10.206  11.415   4.270  3.6908  0.4606  1.1853
32923SOL     OW 4088   7.023  10.053   9.728  0.3036 -0.2395  0.1638
32923SOL    HW1 4089   7.107  10.078   9.689  0.5029 -0.3602  0.5152
32923SOL    HW2 4090   6.993  10.132   9.773  0.0244 -0.0680 -0.3093
32924SOL     OW 4091   8.577   4.280   4.928 -0.3827 -0.3602 -0.3096
32924SOL    HW1 4092   8.510   4.248   4.989  0.8372 -0.3570  1.0967
32924SOL    HW2 4093   8.550   4.369   4.908 -1.1872 -0.5999 -0.3563
32925SOL     OW 4094   7.256   1.114  10.288 -0.3911  0.0327  0.0740
32925SOL    HW1 4095   7.299   1.100  10.372 -2.3271  0.0368  1.1447
32925SOL    HW2 4096   7.319   1.163  10.235  0.4489  1.0944  1.9637
32926SOL     OW 4097   8.379   4.437   2.000 -0.2843  0.1911 -0.8681
32926SOL    HW1 4098   8.440   4.364   1.993  1.0245  0.6552  3.2236
32926SOL    HW2 4099   8.413   4.503   1.940  1.3484 -0.7891 -1.0599
32927SOL     OW 4100   4.651   8.289  10.392 -0.6032 -0.7328 -0.1657
32927SOL    HW1 4101   4.718   8.349  10.423 -0.3619 -0.7343 -0.6920
32927SOL    HW2 4102   4.659   8.213  10.451 -1.2969 -0.0289  0.8741
32928SOL     OW 4103   1.334  11.327   1.549 -0.1489  0.2231  0.1169
32928SOL    HW1 4104   1.337  11.251   1.491  1.5863  0.1516  0.2637
32928SOL    HW2 4105   1.283  11.298   1.624  1.2719 -1.1378  0.6017
32929SOL     OW 4106   1.167   0.740  10.730  0.0808  0.0417 -0.4581
32929SOL    HW1 4107   1.110   0.803  10.686  0.2581  1.3929  1.1426
32929SOL    HW2 4108   1.256   0.774  10.718  0.1687  0.1872  0.5318
32930SOL     OW 4109   6.278   6.518   2.807 -0.3144  0.3083 -0.1822
32930SOL    HW1 4110   6.360   6.483   2.844 -0.7486 -0.3141  0.2237
32930SOL    HW2 4111   6.247   6.449   2.748 -0.2933  0.7531 -0.7195
32931SOL     OW 4112   9.285  10.338   3.413 -0.0226 -0.1229 -0.0408
32931SOL    HW1 4113   9.218  10.395   3.376 -1.3727 -1.6132  0.0232
32931SOL    HW2 4114   9.303  10.375   3.499  1.1838  1.7929 -1.0462
32932SOL     OW 4115  10.527  11.785   5.889 -0.0365  0.2442  0.2672
32932SOL    HW1 4116  10.488  11.871   5.873  0.3593  0.2223 -0.8812
32932SOL    HW2 4117  10.574  11.764   5.808 -2.7444 -2.4860 -0.7755
32933SOL     OW 4118   9.672   9.553   1.873 -0.1995  0.4359  0.1266
32933SOL    HW1 4119   9.675   9.624   1.810 -0.5457 -0.3584 -0.7991
32933SOL    HW2 4120   9.591   9.506   1.854  0.0357 -0.2300  0.7026
32934SOL     OW 4121   8.822   9.807   8.490 -0.7587 -0.1728  0.5616
32934SOL    HW1 4122   8.871   9.850   8.420 -0.9332  0.8971  1.0775
32934SOL    HW2 4123   8.738   9.853   8.492 -1.8841 -2.0622 -0.3999
32935SOL     OW 4124   8.755   4.937   8.642  0.4469  0.4659  0.4453
32935SOL    HW1 4125   8.715   4.850   8.636  3.2395 -0.9871  1.1509
32935SOL    HW2 4126   8.759   4.955   8.736  2.6367 -0.1122  0.5161
32936SOL     OW 4127   4.230   7.659   0.869  0.2424  0.6317  0.0392
32936SOL    HW1 4128   4.274   7.613   0.798  0.0978  1.4158 -0.5727
32936SOL    HW2 4129   4.283   7.641   0.947 -0.5494 -1.6818  0.1084
32937SOL     OW 4130   1.205   0.876   5.575 -0.0837 -0.4179 -0.0547
32937SOL    HW1 4131   1.210   0.826   5.656  0.8853  0.2677  0.3277
32937SOL    HW2 4132   1.295   0.907   5.560 -0.7016  1.5256 -0.0501
32938SOL     OW 4133   5.095   7.787   8.387  0.2562 -0.0563  0.0294
32938SOL    HW1 4134   5.061   7.704   8.352  0.4580 -0.5028  0.8785
32938SOL    HW2 4135   5.151   7.761   8.460  4.1151  0.4759 -2.4810
32939SOL     OW 4136   0.399  11.491   3.545 -0.2249 -0.7390 -0.9788
32939SOL    HW1 4137   0.413  11.405   3.505 -0.7323 -1.2603 -0.0649
32939SOL    HW2 4138   0.421  11.479   3.637  1.3263  0.5451 -1.1219
32940SOL     OW 4139   5.728   4.971   9.006  0.4916 -0.1759 -0.2814
32940SOL    HW1 4140   5.795   4.904   8.998  0.4705 -0.3070  0.5657
32940SOL    HW2 4141   5.769   5.051   8.972  0.1266 -0.8373 -2.4032
32941SOL     OW 4142   9.751   0.474   5.651  0.5581  0.2204 -0.6091
32941SOL    HW1 4143   9.667   0.513   5.625 -0.4378 -1.8773 -0.7955
32941SOL    HW2 4144   9.812   0.502   5.583  0.1045  1.9711 -0.3544
32942SOL     OW 4145   0.257   9.575   7.786 -0.0927 -0.4183 -0.5314
32942SOL    HW1 4146   0.350   9.579   7.766  0.3480 -0.9536  1.2591
32942SOL    HW2 4147   0.242   9.647   7.847 -0.0089 -2.4382  2.0611
32943SOL     OW 4148  10.571   6.157   9.294  0.3753  0.3131  0.4271
32943SOL    HW1 4149  10.513   6.148   9.370 -0.7430 -0.6925 -0.4934
32943SOL    HW2 4150  10.627   6.079   9.298  1.1360  0.8668  0.8580
32944SOL     OW 4151   3.842   0.171   5.059 -0.5920 -0.2768  0.2739
32944SOL    HW1 4152   3.926   0.199   5.095 -0.3841 -0.7323  0.1519
32944SOL    HW2 4153   3.782   0.243   5.079 -0.5525 -0.6370  1.7991
32945SOL     OW 4154  11.458   4.286   6.956 -0.2119 -0.3161  0.2666
32945SOL    HW1 4155  11.436   4.247   7.041  0.4481  0.2091  0.6890
32945SOL    HW2 4156  11.553   4.279   6.950 -0.2725 -0.5091 -0.5121
32946SOL     OW 4157   3.138   1.524   4.300 -0.2000 -0.2769  0.5529
32946SOL    HW1 4158   3.219   1.480   4.323  0.5424  0.3223 -0.7939
32946SOL    HW2 4159   3.069   1.460   4.319  0.3262 -0.0216  3.7806
32947SOL     OW 4160  11.329  10.360   5.922 -0.0377  0.3289 -0.4990
32947SOL    HW1 4161  11.246  10.382   5.963  0.8204 -0.7011  1.9651
32947SOL    HW2 4162  11.322  10.267   5.902  0.1313  0.4833 -1.3155
32948SOL     OW 4163   1.021   3.813   2.642  0.2942  0.2628  0.0324
32948SOL    HW1 4164   1.050   3.721   2.647  2.1332  0.8585  1.0775
32948SOL    HW2 4165   1.082   3.860   2.698 -0.6601  2.1404 -0.4547
32949SOL     OW 4166   8.371   3.343   9.733 -0.2147 -0.1268 -0.1336
32949SOL    HW1 4167   8.379   3.438   9.719 -1.2706  0.0280  0.2515
32949SOL    HW2 4168   8.415   3.304   9.657  2.8875  0.6024  1.1359
32950SOL     OW 4169   4.120   0.898   0.136 -0.3555 -0.5518 -0.5410
32950SOL    HW1 4170   4.037   0.932   0.169  0.4621  0.0896  0.9610
32950SOL    HW2 4171   4.170   0.874   0.214  0.3820 -2.1924 -1.4464
32951SOL     OW 4172   8.094   2.129   2.567 -0.3077 -0.2464  0.6915
32951SOL    HW1 4173   8.140   2.108   2.648 -1.2428 -0.2335  1.2384
32951SOL    HW2 4174   8.153   2.099   2.498  0.1394 -1.0279  1.3861
32952SOL     OW 4175   7.170   3.370   4.372  0.4232  0.0154 -0.1374
32952SOL    HW1 4176   7.251   3.389   4.323  1.2951 -2.6526  0.0985
32952SOL    HW2 4177   7.131   3.296   4.326 -1.6669  0.9011  0.0951
32953SOL     OW 4178   6.427  10.421   1.676  0.0393 -0.8101 -0.4690
32953SOL    HW1 4179   6.410  10.488   1.610 -1.2913 -2.9329 -2.4487
32953SOL    HW2 4180   6.509  10.380   1.648 -0.8582 -2.1456 -1.2930
32954SOL     OW 4181   9.189   7.996   0.211 -0.2187 -0.4401  0.1607
32954SOL    HW1 4182   9.253   7.959   0.149  0.5467  0.1936  0.5501
32954SOL    HW2 4183   9.121   7.929   0.218 -0.7301 -0.2264 -1.9574
32955SOL     OW 4184   5.805   4.087   9.388 -0.0199 -0.8557 -0.0050
32955SOL    HW1 4185   5.738   4.025   9.358 -1.2507  0.5204 -0.2479
32955SOL    HW2 4186   5.761   4.137   9.458  0.2050  1.0805 -1.1804
32956SOL     OW 4187   8.593  10.384   2.966 -0.3924 -0.0484  0.5837
32956SOL    HW1 4188   8.510  10.347   2.935 -1.2139 -0.2872  2.9162
32956SOL    HW2 4189   8.631  10.424   2.888 -2.4435 -0.3946 -0.6768
32957SOL     OW 4190   1.811   4.106   9.712  0.0458  0.1571 -0.6398
32957SOL    HW1 4191   1.814   4.137   9.621  1.4286 -0.9564 -1.0084
32957SOL    HW2 4192   1.902   4.095   9.737 -0.3334 -1.2795  0.2595
32958SOL     OW 4193   0.456  11.207  11.128  0.2168 -0.5030 -0.7199
32958SOL    HW1 4194   0.489  11.203  11.038  0.4957 -1.1386 -0.5979
32958SOL    HW2 4195   0.392  11.278  11.127  0.5332 -0.2158 -1.3154
32959SOL     OW 4196   4.756   3.836   3.815  0.1776  0.1302 -0.1339
32959SOL    HW1 4197   4.845   3.805   3.832 -0.3741 -1.8910 -0.7093
32959SOL    HW2 4198   4.767   3.910   3.755  1.4553 -0.0916 -0.2006
32960SOL     OW 4199   9.993  11.342   0.277  0.3396  0.8325 -0.0609
32960SOL    HW1 4200   9.994  11.356   0.183  0.0692  1.7940  0.0616
32960SOL    HW2 4201   9.972  11.428   0.314 -0.8558  0.1907  0.8215
32961SOL     OW 4202  10.167   0.338   6.914 -0.2061  0.0268 -0.7324
32961SOL    HW1 4203  10.261   0.318   6.912 -0.0754  0.6095 -0.4534
32961SOL    HW2 4204  10.129   0.276   6.851  0.4452  0.2139 -1.3289
32962SOL     OW 4205   8.208   5.122   3.202 -0.1569 -0.1082 -0.2023
32962SOL    HW1 4206   8.198   5.167   3.118  0.3682  0.6845  0.1482
32962SOL    HW2 4207   8.293   5.077   3.194 -0.8358 -1.3458 -0.6814
32963SOL     OW 4208  10.477   7.324   7.358  0.4537 -0.2833 -0.1014
32963SOL    HW1 4209  10.553   7.285   7.315 -0.9389 -1.7313 -1.3828
32963SOL    HW2 4210  10.403   7.293   7.307 -0.9698  1.6404  0.7033
32964SOL     OW 4211   3.568   9.282  10.451  0.3757 -0.1944  0.6423
32964SOL    HW1 4212   3.655   9.290  10.412  0.8393 -1.5898  1.3268
32964SOL    HW2 4213   3.538   9.195  10.426 -0.7690  0.1974  0.5661
32965SOL     OW 4214   9.803   3.165   8.470 -0.1582 -0.0799 -0.0454
32965SOL    HW1 4215   9.762   3.224   8.408  0.1357  0.5784  0.3731
32965SOL    HW2 4216   9.813   3.217   8.550  1.1423 -0.3284 -0.0152
32966SOL     OW 4217   6.720   4.770   2.276  0.5293  0.0032 -0.7612
32966SOL    HW1 4218   6.708   4.675   2.273 -0.0809  0.0399  0.1525
32966SOL    HW2 4219   6.813   4.783   2.256  0.4561 -0.7285 -1.6160
32967SOL     OW 4220   6.490   8.758   5.871  0.1209  0.2301 -0.1329
32967SOL    HW1 4221   6.537   8.786   5.949  1.3049  0.0836 -0.7696
32967SOL    HW2 4222   6.415   8.708   5.905 -0.2852  1.4931  0.9273
32968SOL     OW 4223   5.393   1.775   5.999  0.1796 -0.2293  0.1790
32968SOL    HW1 4224   5.454   1.710   5.965  3.5643  2.3280  0.7730
32968SOL    HW2 4225   5.402   1.850   5.940  2.1760  2.3528  3.3836
32969SOL     OW 4226   4.961   7.424   5.622  0.2472 -0.1247 -0.1817
32969SOL    HW1 4227   4.870   7.453   5.611  0.0538 -0.0789  1.3076
32969SOL    HW2 4228   4.954   7.337   5.661  0.8483 -0.4730 -0.8378
32970SOL     OW 4229   9.816   1.341   6.957 -0.3862 -0.4891  0.2671
32970SOL    HW1 4230   9.869   1.267   6.925  0.4711  0.4412 -0.5554
32970SOL    HW2 4231   9.764   1.305   7.028  1.5119 -1.4226  1.2584
32971SOL     OW 4232   7.658   8.729   4.569  0.2258 -0.6673  1.1012
32971SOL    HW1 4233   7.601   8.751   4.643  0.1100  1.0548  0.5372
32971SOL    HW2 4234   7.602   8.738   4.492  1.2229  1.1839  0.5257
32972SOL     OW 4235   4.112   9.657   1.513 -0.0008 -0.3363  0.1320
32972SOL    HW1 4236   4.094   9.737   1.560 -0.9048  0.5430 -1.6048
32972SOL    HW2 4237   4.054   9.592   1.551  0.0595  0.0695  0.9167
32973SOL     OW 4238   7.845   2.962  11.544 -0.1054  0.1686 -0.1054
32973SOL    HW1 4239   7.859   2.905  11.468 -1.6966 -0.6346  0.1632
32973SOL    HW2 4240   7.849   3.051  11.508  3.3161  0.0312 -0.3857
32974SOL     OW 4241  11.016   0.710  10.775  0.4423 -0.3256  0.3072
32974SOL    HW1 4242  11.033   0.616  10.784  2.1636 -0.0910 -0.0846
32974SOL    HW2 4243  10.934   0.725  10.822  1.5387 -1.5713  2.7572
32975SOL     OW 4244   8.045   0.422   8.012 -0.3724 -0.6264  0.4682
32975SOL    HW1 4245   8.058   0.343   7.961 -0.0979 -1.6930  2.1088
32975SOL    HW2 4246   8.123   0.429   8.066 -0.6644  0.4354  0.7755
32976SOL     OW 4247   8.996   0.200  11.136 -0.5937 -0.4820  0.0945
32976SOL    HW1 4248   8.950   0.118  11.118  0.1153 -0.8270 -0.2082
32976SOL    HW2 4249   9.024   0.192  11.227  0.6537 -1.1932 -0.3222
32977SOL     OW 4250   6.163   3.349  11.584 -0.6040 -0.3791 -0.0125
32977SOL    HW1 4251   6.094   3.347  11.650 -0.4342 -1.2512  0.1525
32977SOL    HW2 4252   6.175   3.257  11.560 -1.6786  0.0319 -2.3414
32978SOL     OW 4253   2.991  11.397   5.152 -0.3547  0.0850  0.2433
32978SOL    HW1 4254   3.024  11.360   5.070 -0.3099 -1.1977  0.8271
32978SOL    HW2 4255   2.898  11.411   5.136 -0.7209 -1.7862  0.5085
32979SOL     OW 4256   3.898   2.293   4.693  0.7636 -0.2984  0.1992
32979SOL    HW1 4257   3.966   2.316   4.756 -0.3684 -0.0877  1.3902
32979SOL    HW2 4258   3.859   2.377   4.669  1.7859 -0.2778 -1.5340
32980SOL     OW 4259   5.276   4.390   4.101  0.3438  0.0675 -0.1908
32980SOL    HW1 4260   5.219   4.318   4.076  1.1452 -1.0146  0.9526
32980SOL    HW2 4261   5.354   4.379   4.046  0.0485  0.6875 -0.7423
32981SOL     OW 4262   8.616  10.944   5.972 -0.3849  0.1592  0.5557
32981SOL    HW1 4263   8.640  11.036   5.961 -1.7721  0.4607 -0.0574
32981SOL    HW2 4264   8.632  10.904   5.887  0.7662 -0.3212  0.9749
32982SOL     OW 4265   1.213   0.268   9.616 -0.0829 -0.5298 -0.1477
32982SOL    HW1 4266   1.162   0.348   9.609  0.9448  0.2543  1.0193
32982SOL    HW2 4267   1.151   0.198   9.593 -1.7559  0.3661  1.3468
32983SOL     OW 4268   5.904   7.040   7.224 -0.5659  0.8270 -0.5173
32983SOL    HW1 4269   5.943   6.976   7.164  0.6297  1.5581 -0.5314
32983SOL    HW2 4270   5.842   6.988   7.276 -0.6204 -0.0791 -1.4429
32984SOL     OW 4271   3.037   9.682   4.779  0.9313  0.0585  0.0366
32984SOL    HW1 4272   2.960   9.720   4.736  0.1421  0.6542  1.8804
32984SOL    HW2 4273   3.110   9.703   4.720 -0.0349  1.2005 -0.7971
32985SOL     OW 4274  11.239   1.473   2.547  0.6644 -0.2273 -0.4604
32985SOL    HW1 4275  11.315   1.452   2.493  0.5949 -0.6396 -0.4029
32985SOL    HW2 4276  11.237   1.404   2.613  1.4414  0.9047  0.8087
32986SOL     OW 4277  10.915   4.867   4.260 -0.1945 -0.6082 -0.1458
32986SOL    HW1 4278  10.982   4.798   4.259 -1.1120 -1.5268  0.1165
32986SOL    HW2 4279  10.900   4.887   4.168 -0.2307 -1.0640 -0.2384
32987SOL     OW 4280   0.717   6.574   4.942 -0.6605  0.2293 -0.5797
32987SOL    HW1 4281   0.682   6.572   5.031 -2.2946 -1.4795 -1.1838
32987SOL    HW2 4282   0.695   6.661   4.909 -2.2666  0.0445 -0.1016
32988SOL     OW 4283  10.615   4.349   8.162  0.3763  0.1019  0.8801
32988SOL    HW1 4284  10.661   4.331   8.079  0.0846 -0.3838  0.8185
32988SOL    HW2 4285  10.682   4.338   8.229  0.8268  1.3406  0.6596
32989SOL     OW 4286   3.078   6.120   5.450 -0.0770 -0.1828 -0.1986
32989SOL    HW1 4287   3.064   6.111   5.544 -0.1958 -2.0647 -0.3495
32989SOL    HW2 4288   3.038   6.203   5.427  0.2763  0.4851  1.4673
32990SOL     OW 4289   9.868   0.075   8.915 -0.0552  0.1797 -0.1695
32990SOL    HW1 4290   9.814   0.149   8.889 -1.4456 -0.8689 -0.3807
32990SOL    HW2 4291   9.815   0.028   8.979  0.8122 -0.6164 -0.0164
32991SOL     OW 4292  10.247   9.643   8.683 -0.0433 -0.1374 -0.1984
32991SOL    HW1 4293  10.285   9.692   8.756  1.8299  2.0634 -2.4824
32991SOL    HW2 4294  10.178   9.591   8.724  1.1981  0.5774  3.1957
32992SOL     OW 4295   7.539  10.664   9.944 -0.1451 -0.0357  0.0430
32992SOL    HW1 4296   7.505  10.585   9.986  3.0071 -0.9896  1.0999
32992SOL    HW2 4297   7.539  10.730  10.013 -0.8134  0.2814 -0.2534
32993SOL     OW 4298  11.398   2.592   7.399 -1.0864  0.1275 -0.2835
32993SOL    HW1 4299  11.349   2.577   7.318 -1.4761  1.9802 -0.4431
32993SOL    HW2 4300  11.461   2.661   7.377 -0.6472  0.0829  0.7719
32994SOL     OW 4301  10.533   2.370   6.579 -0.0173 -0.5161  0.0752
32994SOL    HW1 4302  10.451   2.320   6.573  0.9361 -2.0621 -0.8138
32994SOL    HW2 4303  10.531   2.430   6.505 -0.7776  0.1729  0.6360
32995SOL     OW 4304   0.720   5.442   2.058 -0.1252 -0.0173 -0.1278
32995SOL    HW1 4305   0.756   5.498   2.127 -2.5769 -0.4076  1.5976
32995SOL    HW2 4306   0.654   5.496   2.016 -0.8411 -0.7971 -0.0324
32996SOL     OW 4307   7.935   6.869   2.855 -0.1725 -0.5370 -0.0865
32996SOL    HW1 4308   8.006   6.921   2.892 -0.7927 -0.2707  0.7680
32996SOL    HW2 4309   7.955   6.779   2.881  1.2484 -0.8681 -2.1193
32997SOL     OW 4310   2.555  10.458  11.710 -0.5517  0.0330 -0.1361
32997SOL    HW1 4311   2.640  10.415  11.720 -0.7709  0.1304  3.2275
32997SOL    HW2 4312   2.559  10.533  11.769 -1.8762  1.9665 -2.3720
32998SOL     OW 4313   9.429   6.369   2.527 -0.1514 -0.3485 -0.2538
32998SOL    HW1 4314   9.372   6.297   2.499  0.1169 -0.2214 -1.1751
32998SOL    HW2 4315   9.441   6.421   2.448  1.8811 -0.7990 -0.2800
32999SOL     OW 4316  10.413   8.524   1.160 -0.1232  0.1807  0.0037
32999SOL    HW1 4317  10.471   8.579   1.108  0.8129 -0.3982  0.4092
32999SOL    HW2 4318  10.416   8.438   1.117  0.8427 -0.3648  1.1149
33000SOL     OW 4319   5.839   8.750  10.509 -0.5924 -0.1459  0.1014
33000SOL    HW1 4320   5.855   8.841  10.485 -0.9803  0.1941  1.0609
33000SOL    HW2 4321   5.903   8.732  10.578  0.2051 -0.9499 -0.8312
33001SOL     OW 4322   6.810   8.494   9.549 -0.5317  0.3613 -0.3124
33001SOL    HW1 4323   6.771   8.522   9.467 -0.4606 -2.2015 -1.3104
33001SOL    HW2 4324   6.901   8.474   9.526 -0.4666 -0.2184  0.4219
33002SOL     OW 4325   4.475  10.527   0.599 -0.8169 -0.2400 -0.1498
33002SOL    HW1 4326   4.444  10.602   0.650  0.3591  0.0042  0.2516
33002SOL    HW2 4327   4.536  10.565   0.536 -0.6022 -0.8002 -0.2863
33003SOL     OW 4328   6.890   9.451   9.503 -0.6220  0.1639  0.0306
33003SOL    HW1 4329   6.943   9.447   9.424 -0.7277  1.5141 -0.1355
33003SOL    HW2 4330   6.906   9.368   9.548 -1.4708 -1.1502 -1.9690
33004SOL     OW 4331   1.278   6.991  11.735 -0.4315  0.0962 -0.1678
33004SOL    HW1 4332   1.294   7.027  11.823  0.9914  0.8554 -0.7153
33004SOL    HW2 4333   1.284   7.067  11.677  0.8727 -0.7407 -1.1641
33005SOL     OW 4334   7.141   4.585   1.927 -0.3640 -0.0696  0.5558
33005SOL    HW1 4335   7.215   4.605   1.870  0.2419 -2.4481  0.4136
33005SOL    HW2 4336   7.063   4.607   1.875  0.1901 -1.6377 -1.0323
33006SOL     OW 4337   0.774   8.940  10.251  0.0347  0.3256 -0.3155
33006SOL    HW1 4338   0.767   8.847  10.274  0.7136 -0.2300 -2.1145
33006SOL    HW2 4339   0.700   8.982  10.293  0.3278 -0.8393  1.4373
33007SOL     OW 4340   5.834   0.312   6.959  0.3841 -0.0551  0.0198
33007SOL    HW1 4341   5.830   0.407   6.956  0.7661 -0.0525 -1.2854
33007SOL    HW2 4342   5.805   0.284   6.872 -0.7645 -1.1789  0.7347
33008SOL     OW 4343  11.393   6.418   9.675 -0.0938 -0.0074  0.0576
33008SOL    HW1 4344  11.325   6.407   9.609 -0.5767 -1.1602  0.7106
33008SOL    HW2 4345  11.410   6.329   9.707 -0.9917  0.6502  2.5826
33009SOL     OW 4346   4.359   4.636  10.162  0.2000  0.2063  0.2283
33009SOL    HW1 4347   4.377   4.723  10.197 -0.3688  0.5053 -0.2115
33009SOL    HW2 4348   4.392   4.576  10.228 -1.7167  0.7378  1.7417
33010SOL     OW 4349   5.256   8.958   0.130 -0.0482  0.1194 -0.1988
33010SOL    HW1 4350   5.343   8.992   0.113 -0.9139  1.4551 -2.2942
33010SOL    HW2 4351   5.220   9.016   0.197 -0.2828  1.2783 -1.3025
33011SOL     OW 4352   2.450   0.387   2.687 -0.3220  0.1333  0.0248
33011SOL    HW1 4353   2.402   0.439   2.623  1.2393  0.4651 -0.9237
33011SOL    HW2 4354   2.523   0.350   2.638  0.6692  0.0329  1.5071
33012SOL     OW 4355   4.554   5.809   5.924 -0.0538 -0.3034 -0.1722
33012SOL    HW1 4356   4.522   5.832   6.012 -0.8907 -1.1153 -0.2522
33012SOL    HW2 4357   4.576   5.716   5.930  3.0468  0.3443  0.0755
33013SOL     OW 4358   7.118   0.099   0.634  0.6825 -0.2973  0.0214
33013SOL    HW1 4359   7.203   0.142   0.627  1.2059 -1.3275 -0.0164
33013SOL    HW2 4360   7.127   0.040   0.709 -0.2706  0.1892  0.5388
33014SOL     OW 4361   7.699   2.525  11.150 -0.9897  0.7477 -0.1386
33014SOL    HW1 4362   7.682   2.607  11.195  0.5720  0.3318  1.3037
33014SOL    HW2 4363   7.745   2.471  11.214 -1.1636 -0.9244 -1.3395
33015SOL     OW 4364   7.902   7.748   2.678 -0.7030  0.1582 -0.1946
33015SOL    HW1 4365   7.948   7.762   2.595 -0.4141  0.9155  0.0894
33015SOL    HW2 4366   7.944   7.672   2.717  0.4108  0.9257  0.1285
33016SOL     OW 4367   9.565  10.806   9.344  0.2983 -0.5075 -0.5371
33016SOL    HW1 4368   9.648  10.838   9.381 -0.0821  1.1300 -1.0207
33016SOL    HW2 4369   9.497  10.855   9.391 -0.3091 -0.5760 -1.3264
33017SOL     OW 4370   2.933  10.635   6.822 -0.6553 -0.3446 -0.7263
33017SOL    HW1 4371   2.961  10.685   6.899  0.2418  1.7266 -2.2673
33017SOL    HW2 4372   2.899  10.553   6.856  0.0640  0.3475  1.8254
33018SOL     OW 4373   1.739   9.007   2.933 -0.1853 -0.0688  0.4927
33018SOL    HW1 4374   1.691   8.933   2.894  0.1157  1.0691 -2.2596
33018SOL    HW2 4375   1.826   9.003   2.894 -0.6565  2.6308 -1.0819
33019SOL     OW 4376   3.269   5.593   5.386  0.0158  0.3823 -0.0937
33019SOL    HW1 4377   3.204   5.657   5.416 -0.1170  0.6616 -0.9487
33019SOL    HW2 4378   3.225   5.547   5.314 -0.5280 -1.8486  1.5758
33020SOL     OW 4379   6.274   0.968   9.239 -0.1055  0.5101  0.1249
33020SOL    HW1 4380   6.274   1.035   9.307  1.0315  0.3477  0.3100
33020SOL    HW2 4381   6.183   0.963   9.209 -0.1069  2.5326 -0.3084
33021SOL     OW 4382   7.710   2.504   7.084 -0.7276  0.0252 -0.1130
33021SOL    HW1 4383   7.618   2.503   7.057 -0.0724 -1.7622 -2.6614
33021SOL    HW2 4384   7.757   2.541   7.010  0.8107 -1.4099  0.0720
33022SOL     OW 4385  10.228   6.392   2.498 -0.0345 -0.2923  0.1694
33022SOL    HW1 4386  10.146   6.343   2.494 -0.9653  1.2695 -0.8341
33022SOL    HW2 4387  10.230   6.429   2.587  1.6374 -3.5926  1.6641
33023SOL     OW 4388   4.562   3.302   0.545 -0.7807 -0.4712  0.2121
33023SOL    HW1 4389   4.575   3.275   0.636  0.0325  0.7377  0.4845
33023SOL    HW2 4390   4.622   3.248   0.494 -0.3331 -0.2889  0.5460
33024SOL     OW 4391   1.513   9.262   3.998 -0.5821  0.3754 -0.3394
33024SOL    HW1 4392   1.499   9.302   4.084 -1.6703  1.7971 -1.1410
33024SOL    HW2 4393   1.475   9.324   3.936  0.0680 -0.6831 -1.8502
33025SOL     OW 4394   9.987   2.116   2.135 -0.0917  0.0939  0.3068
33025SOL    HW1 4395  10.007   2.041   2.080  0.0836  2.1898 -2.7304
33025SOL    HW2 4396  10.064   2.127   2.191  0.8989 -0.6108 -0.8762
33026SOL     OW 4397  10.690  10.233   3.340  0.2348  0.6937 -0.0971
33026SOL    HW1 4398  10.724  10.219   3.251  0.9120  0.3057  0.2108
33026SOL    HW2 4399  10.658  10.147   3.367  1.7607  0.3455  0.7221
33027SOL     OW 4400   7.506  11.516   7.227 -0.2511 -0.1988 -0.7171
33027SOL    HW1 4401   7.427  11.528   7.279  1.6671  0.4119  2.3543
33027SOL    HW2 4402   7.565  11.466   7.284  2.8499  2.4710 -1.2650
33028SOL     OW 4403   4.676   6.531  11.685  0.1644 -0.0685 -0.3133
33028SOL    HW1 4404   4.762   6.516  11.724  0.7561  0.5004 -1.3570
33028SOL    HW2 4405   4.693   6.586  11.609 -1.1558  0.2301 -0.4187
33029SOL     OW 4406   1.658   3.140  10.100 -0.0842  0.1558 -0.0477
33029SOL    HW1 4407   1.719   3.173  10.034 -0.3757  1.1740  0.1793
33029SOL    HW2 4408   1.715   3.108  10.171  0.2212 -0.7403 -0.6794
33030SOL     OW 4409   8.168   7.927   9.408 -0.0407 -0.4765  0.6276
33030SOL    HW1 4410   8.095   7.869   9.429  0.1040 -0.4410  1.2411
33030SOL    HW2 4411   8.129   8.014   9.401 -0.4998 -0.7859 -1.6310
33031SOL     OW 4412   0.125   5.420   2.814 -0.0308 -0.5829  0.1847
33031SOL    HW1 4413   0.132   5.347   2.876 -0.6417 -0.8150 -0.0069
33031SOL    HW2 4414   0.194   5.481   2.840 -1.5809  0.3407  2.4050
33032SOL     OW 4415   8.673   0.706   9.733  0.0633  0.0995  0.1304
33032SOL    HW1 4416   8.695   0.690   9.825 -0.9427  0.9932  0.5488
33032SOL    HW2 4417   8.590   0.754   9.736  0.2078  0.4868 -1.2368
33033SOL     OW 4418   0.379   1.787   5.252  0.1004 -0.7348  0.3176
33033SOL    HW1 4419   0.368   1.823   5.164 -0.9503 -1.7954 -0.0086
33033SOL    HW2 4420   0.459   1.734   5.247 -0.7859 -2.0764 -0.4846
33034SOL     OW 4421   1.027  11.369   7.046 -0.2087  0.1079 -0.0360
33034SOL    HW1 4422   1.106  11.386   6.996 -0.4566 -0.8418 -0.7759
33034SOL    HW2 4423   0.983  11.297   7.000 -1.3940  0.4650  0.4775
33035SOL     OW 4424  10.397   7.585   8.079 -0.3067  0.0370 -0.2613
33035SOL    HW1 4425  10.490   7.562   8.082 -0.2652  0.2418  2.1653
33035SOL    HW2 4426  10.395   7.679   8.097 -1.0127 -0.0895  0.3683
33036SOL     OW 4427   6.648   2.555   1.646 -0.8079  0.1877  0.1515
33036SOL    HW1 4428   6.715   2.486   1.655 -0.0572  1.0837  1.7487
33036SOL    HW2 4429   6.575   2.524   1.700 -1.1323 -0.1176 -0.4534
33037SOL     OW 4430   6.176  11.402   0.845 -0.2963 -0.1827  0.2247
33037SOL    HW1 4431   6.084  11.376   0.846 -1.0193  2.0446  2.0460
33037SOL    HW2 4432   6.222  11.334   0.895 -1.0188 -1.1085 -0.3652
33038SOL     OW 4433   0.376   9.456   4.418 -0.2473  0.1323 -0.5741
33038SOL    HW1 4434   0.346   9.367   4.403 -1.5191  0.3909  0.2884
33038SOL    HW2 4435   0.336   9.481   4.502  1.4373  0.9273  0.0345
33039SOL     OW 4436   1.060   5.775   1.731 -0.4873  0.5800 -1.0287
33039SOL    HW1 4437   1.051   5.860   1.690 -0.4366  1.4086  0.5912
33039SOL    HW2 4438   0.972   5.751   1.759 -0.2413  0.9863  0.1544
33040SOL     OW 4439   3.411   9.247   5.438  0.1331  0.2432  0.5490
33040SOL    HW1 4440   3.341   9.306   5.411 -1.3813 -1.2283  1.0582
33040SOL    HW2 4441   3.416   9.256   5.533  0.3408  0.0226  0.5632
33041SOL     OW 4442   5.177   9.340   5.831 -0.3995 -0.0770  0.2322
33041SOL    HW1 4443   5.122   9.369   5.903 -0.1055  0.4048  0.2678
33041SOL    HW2 4444   5.263   9.378   5.850 -0.9463  2.4083 -1.7899
33042SOL     OW 4445   9.182   4.353   4.955 -0.0033  0.2904  0.7930
33042SOL    HW1 4446   9.180   4.437   4.909  0.4259  0.6852  1.4881
33042SOL    HW2 4447   9.118   4.299   4.908  2.2964 -0.2412 -2.0427
33043SOL     OW 4448   9.633   3.094   5.786  0.0706  0.0041  0.1908
33043SOL    HW1 4449   9.688   3.020   5.758 -1.0402 -0.4401 -0.9428
33043SOL    HW2 4450   9.588   3.062   5.864 -0.4354 -0.5792 -0.3176
33044SOL     OW 4451   0.276   0.962   6.430 -0.2498  0.2709  0.6929
33044SOL    HW1 4452   0.322   0.878   6.433  0.2160  0.5282  0.6647
33044SOL    HW2 4453   0.220   0.955   6.352  0.2325  0.2184  0.3460
33045SOL     OW 4454   7.298   1.945  10.761 -0.3942  0.0852  0.2294
33045SOL    HW1 4455   7.333   1.866  10.800 -0.2955  0.6308  1.2697
33045SOL    HW2 4456   7.213   1.918  10.724 -0.5205 -0.4238  0.8814
33046SOL     OW 4457   4.785   7.530   3.743  0.5155  0.1515  0.3079
33046SOL    HW1 4458   4.834   7.481   3.677  0.0174  0.9749 -0.7094
33046SOL    HW2 4459   4.851   7.583   3.788  0.7938 -0.0611  0.1523
33047SOL     OW 4460   1.330   8.732   1.208  0.2006  1.1205 -0.1432
33047SOL    HW1 4461   1.420   8.760   1.225  0.8023 -0.7349  0.0502
33047SOL    HW2 4462   1.285   8.810   1.176  1.6277  2.3183  0.6552
33048SOL     OW 4463   0.075   2.405   2.158  0.7976  0.2176 -0.3556
33048SOL    HW1 4464   0.103   2.348   2.086  1.5537 -1.8000  1.4184
33048SOL    HW2 4465   0.056   2.344   2.230  0.0784  2.1411  1.1523
33049SOL     OW 4466   6.078   1.150   0.985 -0.0471  0.5673  0.1014
33049SOL    HW1 4467   6.039   1.163   0.899  0.0532 -0.4753 -0.1180
33049SOL    HW2 4468   6.057   1.230   1.034 -2.1163  0.2215 -0.1273
33050SOL     OW 4469   5.965   4.012   5.037  0.8222 -0.5502  0.2910
33050SOL    HW1 4470   5.903   3.939   5.033 -0.2396  0.0495  3.2124
33050SOL    HW2 4471   6.032   3.984   5.099  2.0993 -0.1483 -0.8399
33051SOL     OW 4472  11.121   4.537   2.264  0.1716  0.3630 -0.0104
33051SOL    HW1 4473  11.209   4.554   2.228  0.6808  0.3028  1.1822
33051SOL    HW2 4474  11.115   4.442   2.269  0.0511  0.3685 -0.0520
33052SOL     OW 4475   1.886   1.172  11.112 -0.3405 -0.1849  0.5462
33052SOL    HW1 4476   1.849   1.084  11.105 -0.1989 -0.3657  1.8363
33052SOL    HW2 4477   1.889   1.189  11.206  0.1429  0.9856  0.3299
33053SOL     OW 4478   3.488   9.206   6.939 -0.4714 -0.2121  0.5207
33053SOL    HW1 4479   3.446   9.162   7.013 -3.5425 -1.6979 -1.9006
33053SOL    HW2 4480   3.534   9.137   6.892 -2.3188 -0.2881 -1.3273
33054SOL     OW 4481   7.018   9.167   0.267  0.1482  0.4951 -0.2934
33054SOL    HW1 4482   7.090   9.170   0.204  1.4300 -0.3749  1.0783
33054SOL    HW2 4483   6.941   9.194   0.216  1.7594  3.7501 -1.2351
33055SOL     OW 4484  10.824   3.817   4.332 -0.0166 -0.3173 -0.3300
33055SOL    HW1 4485  10.818   3.857   4.246 -0.9335 -0.2097 -0.2233
33055SOL    HW2 4486  10.917   3.798   4.343  0.4237  1.5103 -0.5180
33056SOL     OW 4487   7.678   2.227  10.526  0.2237 -0.9527 -0.1239
33056SOL    HW1 4488   7.731   2.237  10.447 -1.6249  0.0854 -1.2745
33056SOL    HW2 4489   7.727   2.164  10.579  2.1077 -0.7729 -1.5483
33057SOL     OW 4490   9.545  11.771   2.603 -0.4312  0.3984 -0.0822
33057SOL    HW1 4491   9.582  11.858   2.621 -0.5577  0.1820  1.2593
33057SOL    HW2 4492   9.611  11.728   2.549 -0.2164  1.2065 -0.4815
33058SOL     OW 4493   7.462   3.700   4.649  0.4307  0.2806  0.3655
33058SOL    HW1 4494   7.469   3.606   4.665 -0.2020  0.2816  0.7143
33058SOL    HW2 4495   7.545   3.725   4.609  0.1836 -0.6393 -0.7796
33059SOL     OW 4496  10.973   5.115   9.414  0.3593  0.3818 -0.4331
33059SOL    HW1 4497  11.044   5.143   9.472  0.7327 -0.1113 -0.6465
33059SOL    HW2 4498  11.009   5.041   9.366  0.0329  0.7655 -1.2795
33060SOL     OW 4499   4.593  10.041   9.147 -0.0641  0.5466  0.4543
33060SOL    HW1 4500   4.627  10.108   9.088  2.3663 -0.6804  0.3509
33060SOL    HW2 4501   4.507  10.019   9.111  0.4117  1.4103 -1.3265
33061SOL     OW 4502   9.983   8.785   0.076  0.3368  0.1577  0.2160
33061SOL    HW1 4503   9.956   8.869   0.039  1.2399 -0.2541 -1.4898
33061SOL    HW2 4504   9.956   8.789   0.167  0.7759  2.4933  0.2971
33062SOL     OW 4505   2.201   1.540   1.049 -0.1084 -0.7060  0.1251
33062SOL    HW1 4506   2.244   1.606   0.994 -0.6613  1.1847  1.8278
33062SOL    HW2 4507   2.178   1.470   0.989 -2.5669  2.1233 -2.5479
33063SOL     OW 4508   9.416   7.639   6.427  0.3739  0.8216  0.0577
33063SOL    HW1 4509   9.451   7.710   6.372  0.7967  1.6266  1.3288
33063SOL    HW2 4510   9.463   7.647   6.510  1.2700 -1.6882 -0.1231
33064SOL     OW 4511  11.270  11.544  11.822  0.7832 -0.0045 -0.1239
33064SOL    HW1 4512  11.187  11.537  11.868  0.2558  2.0364 -0.6788
33064SOL    HW2 4513  11.266  11.477  11.754 -1.5115  1.6220 -1.7283
33065SOL     OW 4514   4.893   9.361   9.858  0.0218  0.4283  0.4700
33065SOL    HW1 4515   4.930   9.438   9.815 -0.2820 -1.0440 -2.7020
33065SOL    HW2 4516   4.969   9.314   9.892  0.5171  0.5087 -0.4953
33066SOL     OW 4517   9.541   9.834   1.781  0.3132  0.1323 -0.2370
33066SOL    HW1 4518   9.628   9.836   1.741  0.9620 -1.2478  1.0414
33066SOL    HW2 4519   9.514   9.926   1.783  1.2092  0.4648 -1.7365
33067SOL     OW 4520  10.369  10.835   3.509 -0.0933 -0.1638 -0.4160
33067SOL    HW1 4521  10.461  10.824   3.533 -0.1941  2.8254  1.7712
33067SOL    HW2 4522  10.351  10.759   3.453  4.0054 -0.2541 -2.0057
33068SOL     OW 4523   9.785   9.588  11.349 -0.2622  0.1473 -0.1102
33068SOL    HW1 4524   9.715   9.573  11.285  0.6939  0.0335 -1.1764
33068SOL    HW2 4525   9.823   9.671  11.323  1.7773 -1.0794 -1.3351
33069SOL     OW 4526   1.526   6.783   2.496 -0.1602 -0.6943 -0.0136
33069SOL    HW1 4527   1.615   6.770   2.527 -0.3327  0.5835  1.1077
33069SOL    HW2 4528   1.534   6.789   2.401  1.5607  3.2671  0.1949
33070SOL     OW 4529  11.708   9.137   1.386  0.3897 -0.2601 -0.1288
33070SOL    HW1 4530  11.615   9.158   1.395 -0.2172  0.7383 -5.4346
33070SOL    HW2 4531  11.753   9.211   1.428 -1.0986 -0.6071  2.2583
33071SOL     OW 4532   3.235   6.138   4.025  0.1727  0.1460  0.4711
33071SOL    HW1 4533   3.153   6.155   3.979 -0.7618 -1.0872  1.5820
33071SOL    HW2 4534   3.286   6.084   3.964  0.1182  0.8147 -0.1745
33072SOL     OW 4535  10.650   8.824  11.002 -0.0784 -0.6984 -0.1442
33072SOL    HW1 4536  10.690   8.748  10.961 -0.3092 -0.1678 -1.3797
33072SOL    HW2 4537  10.570   8.840  10.952  0.1968  0.6201 -0.1998
33073SOL     OW 4538  11.716   3.128  11.490 -0.2831 -0.1855 -0.0236
33073SOL    HW1 4539  11.790   3.150  11.546  0.2991  1.8929 -1.5150
33073SOL    HW2 4540  11.703   3.034  11.504  1.7489 -0.3325  1.2935
33074SOL     OW 4541   4.850   5.109   7.165 -0.2428 -0.5815  0.2383
33074SOL    HW1 4542   4.804   5.188   7.135  1.2748  0.2048 -0.1654
33074SOL    HW2 4543   4.917   5.094   7.099  0.6682 -1.1324  1.2503
33075SOL     OW 4544   4.689   6.830  10.437  0.7050  0.2008  0.6532
33075SOL    HW1 4545   4.618   6.880  10.398 -0.3467 -0.7826  1.2299
33075SOL    HW2 4546   4.768   6.861  10.394  0.1408  2.5593  1.2111
33076SOL     OW 4547   3.271   3.060   2.337  0.2089  0.1110 -0.1467
33076SOL    HW1 4548   3.263   3.006   2.258  0.7988 -2.1570  1.2454
33076SOL    HW2 4549   3.364   3.055   2.359 -0.1482 -0.4327  1.3938
33077SOL     OW 4550   4.739   9.808   9.086  0.5366 -0.5576 -0.0714
33077SOL    HW1 4551   4.685   9.886   9.101 -0.4441 -1.0949 -0.6740
33077SOL    HW2 4552   4.820   9.841   9.049  0.7674  0.3038  1.1472
33078SOL     OW 4553   8.666   3.133   4.478 -0.0682 -0.2310  0.1249
33078SOL    HW1 4554   8.689   3.040   4.472  1.5852  0.0558  1.1057
33078SOL    HW2 4555   8.710   3.174   4.403 -0.1183 -0.1432  0.1436
33079SOL     OW 4556  11.082   2.777  11.430  0.3677 -0.4342 -0.5702
33079SOL    HW1 4557  11.177   2.784  11.436  0.2967  0.0131  0.3457
33079SOL    HW2 4558  11.061   2.798  11.339  1.0712  0.4735 -0.5419
33080SOL     OW 4559   2.053   3.747   9.969  0.5389 -0.2144 -0.2602
33080SOL    HW1 4560   2.040   3.672  10.026  1.4206  1.4887  2.3879
33080SOL    HW2 4561   1.965   3.786   9.960  0.3097 -0.7819 -0.5275
33081SOL     OW 4562   2.930  10.235   4.297  0.3409  0.2886 -0.3084
33081SOL    HW1 4563   2.919  10.289   4.218  0.2305 -0.8639 -1.1107
33081SOL    HW2 4564   2.841  10.205   4.318  0.2059  1.4738  0.9281
33082SOL     OW 4565   0.189   5.182  11.233  0.2873 -0.0872  0.1264
33082SOL    HW1 4566   0.245   5.256  11.210  0.0893  0.2436  0.7126
33082SOL    HW2 4567   0.220   5.154  11.319 -1.3399  0.9884  1.1149
33083SOL     OW 4568   3.440   9.987   5.637 -0.3324 -0.6164  0.0054
33083SOL    HW1 4569   3.409   9.897   5.644 -0.6140 -0.6654 -1.6514
33083SOL    HW2 4570   3.528   9.985   5.675 -0.3954 -1.5551  0.1206
33084SOL     OW 4571   0.914   9.683   6.153  0.2471 -0.0028 -0.3194
33084SOL    HW1 4572   0.935   9.640   6.070  0.0646 -1.5021  0.3703
33084SOL    HW2 4573   0.835   9.734   6.134 -1.4371 -2.4768 -0.4873
33085SOL     OW 4574   7.271   0.399   1.213  0.5826 -1.0801 -0.1423
33085SOL    HW1 4575   7.188   0.357   1.236 -0.0128  0.1781  0.1150
33085SOL    HW2 4576   7.319   0.406   1.295  0.2374 -0.3507  0.0066
33086SOL     OW 4577   2.150   5.313   8.777 -0.1528 -0.8330  0.7755
33086SOL    HW1 4578   2.162   5.364   8.697  0.9797 -0.7412  0.9877
33086SOL    HW2 4579   2.069   5.347   8.816 -0.3684 -0.4430 -0.0018
33087SOL     OW 4580  10.432   2.232   0.670  0.0725 -0.0237  0.5085
33087SOL    HW1 4581  10.434   2.279   0.753 -2.0213 -1.2295  1.3175
33087SOL    HW2 4582  10.400   2.144   0.693  0.2881 -0.6581 -1.4480
33088SOL     OW 4583   7.930  10.753   2.267  0.1135 -0.1639 -0.6174
33088SOL    HW1 4584   7.932  10.829   2.209 -1.2503  0.9470  0.6913
33088SOL    HW2 4585   7.837  10.738   2.283  0.4300 -0.5445  1.0865
33089SOL     OW 4586  11.599   0.972  10.347  0.1674  0.8404 -0.0608
33089SOL    HW1 4587  11.603   0.963  10.252 -1.4411  3.0939 -0.4052
33089SOL    HW2 4588  11.671   0.917  10.378  0.2686 -0.5870 -2.4938
33090SOL     OW 4589   9.748   8.724   4.023  0.5823  0.7691  0.5158
33090SOL    HW1 4590   9.682   8.658   4.042  0.4020  1.6039  3.1266
33090SOL    HW2 4591   9.718   8.765   3.942 -0.5957 -0.6709  0.1770
33091SOL     OW 4592   1.134   7.168   8.263  0.0752  0.1787  0.3367
33091SOL    HW1 4593   1.096   7.210   8.186 -2.8619 -2.5100  0.1110
33091SOL    HW2 4594   1.083   7.201   8.337  1.9667  1.6800  1.0741
33092SOL     OW 4595   8.009   9.339   2.036  0.4778 -0.1572  0.2849
33092SOL    HW1 4596   7.918   9.349   2.064  0.2585 -1.6805  0.2265
33092SOL    HW2 4597   8.024   9.245   2.038  2.2414  0.1054  0.8147
33093SOL     OW 4598   1.137   4.141   7.522 -0.2840 -0.9125 -0.6097
33093SOL    HW1 4599   1.117   4.092   7.602  0.3834 -0.2854 -0.0467
33093SOL    HW2 4600   1.185   4.218   7.552 -1.4196  0.1756 -1.4614
33094SOL     OW 4601   1.141   2.195   0.193  0.2272 -0.4565  0.2272
33094SOL    HW1 4602   1.197   2.273   0.193 -0.8444  0.3748 -1.7888
33094SOL    HW2 4603   1.147   2.161   0.283  1.6191  1.2738  0.8366
33095SOL     OW 4604   3.104   8.997   1.707 -0.1917  0.0928 -0.1901
33095SOL    HW1 4605   3.079   8.907   1.686  0.3446 -0.1675  0.2460
33095SOL    HW2 4606   3.051   9.020   1.783 -1.5095  0.7319 -1.2667
33096SOL     OW 4607   1.469  11.532   8.070 -0.5924  0.1455  0.3127
33096SOL    HW1 4608   1.509  11.617   8.090 -0.5892 -0.0538  1.1850
33096SOL    HW2 4609   1.427  11.545   7.985  0.5981  0.6030 -0.2285
33097SOL     OW 4610   6.817   9.273  10.701 -0.4917  0.4123  0.3318
33097SOL    HW1 4611   6.750   9.296  10.637  1.6956  0.0644 -2.3256
33097SOL    HW2 4612   6.882   9.344  10.694  1.2123 -1.1027 -0.0927
33098SOL     OW 4613   3.649   4.876   7.224  0.1074  0.2120  0.3383
33098SOL    HW1 4614   3.707   4.933   7.175  0.1064  0.1421  0.2553
33098SOL    HW2 4615   3.565   4.923   7.226 -0.2603 -0.3474 -0.8253
33099SOL     OW 4616   3.843  11.721  10.376 -0.1280  0.2318  0.0127
33099SOL    HW1 4617   3.820  11.778  10.303  2.3559  1.9459  0.4693
33099SOL    HW2 4618   3.849  11.779  10.452  0.2395 -1.0307  0.9890
33100SOL     OW 4619   4.973   0.909   4.997  0.0224  0.3909  0.1572
33100SOL    HW1 4620   5.023   0.922   4.917 -0.0117  2.1246  0.3654
33100SOL    HW2 4621   4.929   0.993   5.011 -1.2366 -0.3915  1.1378
33101SOL     OW 4622  11.660   8.994   4.317 -0.1746 -0.2976  0.5453
33101SOL    HW1 4623  11.565   8.992   4.325 -0.3093  0.8336 -0.6695
33101SOL    HW2 4624  11.678   9.047   4.240  1.3859 -2.2948 -0.5906
33102SOL     OW 4625  11.334   2.637   3.694  0.2665 -0.3488  0.3089
33102SOL    HW1 4626  11.292   2.592   3.768 -0.7033 -1.6630 -0.9809
33102SOL    HW2 4627  11.263   2.686   3.652  1.3228  2.7273  1.7892
33103SOL     OW 4628   4.421   5.742   4.761  0.4894  0.4559 -0.3680
33103SOL    HW1 4629   4.341   5.696   4.786  0.6517  0.7827  0.8058
33103SOL    HW2 4630   4.420   5.741   4.666 -1.0524  0.6916 -0.3838
33104SOL     OW 4631  11.775   6.306   0.829 -0.6216  0.0908  0.0270
33104SOL    HW1 4632  11.704   6.332   0.887 -0.2883  2.9411 -0.6741
33104SOL    HW2 4633  11.786   6.381   0.770  1.2449 -1.3299 -1.5669
33105SOL     OW 4634   1.646   2.059   9.868 -0.0965 -0.4291 -0.1714
33105SOL    HW1 4635   1.721   2.091   9.818 -0.9237  1.9624  0.0015
33105SOL    HW2 4636   1.683   1.993   9.926  1.6028 -0.3564 -1.0865
33106SOL     OW 4637   7.413   8.599  11.221  1.1105  0.1349 -0.3790
33106SOL    HW1 4638   7.440   8.630  11.135  1.3996  0.6844 -0.0939
33106SOL    HW2 4639   7.490   8.610  11.276  0.7114  0.4616  0.1232
33107SOL     OW 4640   8.341   4.643   5.715  0.1302 -0.1529  0.1330
33107SOL    HW1 4641   8.385   4.580   5.772  0.7543  1.3771  1.3889
33107SOL    HW2 4642   8.326   4.594   5.634  0.1817 -2.0477  1.2063
33108SOL     OW 4643   2.298   5.894  11.825 -0.7084 -0.4425 -0.2307
33108SOL    HW1 4644   2.336   5.812  11.794  1.6785  1.3839 -2.5587
33108SOL    HW2 4645   2.345   5.913  11.906  1.3064  0.2521 -1.4861
33109SOL     OW 4646  11.800   7.133   0.969 -0.0928 -0.2420  0.6279
33109SOL    HW1 4647  11.862   7.167   1.033 -0.5078 -0.1435  0.9854
33109SOL    HW2 4648  11.764   7.210   0.926 -1.5743 -0.1411  1.9478
33110SOL     OW 4649   1.878  11.142   6.448 -0.1177  0.3670  0.1190
33110SOL    HW1 4650   1.839  11.108   6.367 -0.4216  1.8105 -0.3599
33110SOL    HW2 4651   1.918  11.225   6.423  1.4621 -0.0652  1.0609
33111SOL     OW 4652   9.457  10.346   4.642 -0.3122  0.2292  0.5816
33111SOL    HW1 4653   9.392  10.410   4.613 -0.3852 -0.1844 -0.2075
33111SOL    HW2 4654   9.415  10.261   4.628 -0.0907 -0.0062  1.2974
33112SOL     OW 4655   8.273   5.093   9.918  0.1571 -0.6132  0.0599
33112SOL    HW1 4656   8.321   5.165   9.960 -1.1170  0.1067  0.3248
33112SOL    HW2 4657   8.263   5.120   9.827 -0.5700 -0.3034  0.2239
33113SOL     OW 4658   0.954   2.288   5.662  0.2053 -0.3438  0.5345
33113SOL    HW1 4659   0.940   2.210   5.716 -0.6973  0.0808  0.9255
33113SOL    HW2 4660   1.042   2.318   5.687 -0.4157  0.1830  2.2421
33114SOL     OW 4661   9.372   3.579  10.958 -0.2350 -0.5637  0.1944
33114SOL    HW1 4662   9.290   3.627  10.947  0.7343  0.8915 -1.1259
33114SOL    HW2 4663   9.348   3.501  11.008 -2.0667  0.7726  1.5215
33115SOL     OW 4664   6.410   4.131   0.302  1.2264  0.6734 -0.4507
33115SOL    HW1 4665   6.356   4.140   0.224  1.5569 -0.7770 -0.8715
33115SOL    HW2 4666   6.437   4.220   0.324 -0.7859  1.3493 -0.6080
33116SOL     OW 4667   8.636   9.070   3.431  0.5798 -1.0167  0.5527
33116SOL    HW1 4668   8.568   9.074   3.498 -1.0133 -2.9600 -0.8250
33116SOL    HW2 4669   8.692   8.997   3.458 -0.6750 -2.5086 -0.6460
33117SOL     OW 4670   2.592   5.877  10.465 -0.3111 -0.2725 -0.6425
33117SOL    HW1 4671   2.543   5.948  10.507 -0.4659 -1.9449  2.2513
33117SOL    HW2 4672   2.527   5.809  10.449  0.3830 -1.0316 -0.3219
33118SOL     OW 4673   4.935  10.431   6.126 -0.7903  0.0798 -0.1482
33118SOL    HW1 4674   4.840  10.416   6.127 -1.2380  2.2454 -1.5304
33118SOL    HW2 4675   4.951  10.488   6.201 -0.3896 -0.9652  0.5910
33119SOL     OW 4676   4.911   5.642   3.867 -0.7614 -0.0347 -0.2030
33119SOL    HW1 4677   4.983   5.580   3.871  0.8480  1.7874  1.0487
33119SOL    HW2 4678   4.951   5.724   3.840 -2.6922  0.6767 -1.1204
33120SOL     OW 4679   8.222  10.101   2.882 -0.1905  0.1900 -0.0090
33120SOL    HW1 4680   8.210  10.099   2.787  0.0691  1.6057 -0.1007
33120SOL    HW2 4681   8.280  10.026   2.901  0.3655  0.3341 -1.0668
33121SOL     OW 4682  11.701   5.531   8.460  0.4065  0.1380 -0.1809
33121SOL    HW1 4683  11.608   5.527   8.481  0.0012 -0.4045 -1.9667
33121SOL    HW2 4684  11.745   5.511   8.543 -1.0406  0.8222  0.7866
33122SOL     OW 4685  10.693  11.417   6.959  0.0225 -0.8847  0.2883
33122SOL    HW1 4686  10.766  11.414   7.020 -0.6692  2.9444  1.5816
33122SOL    HW2 4687  10.725  11.466   6.884 -1.1688  0.9749  0.9379
33123SOL     OW 4688   9.603   4.820   6.433  0.0657 -0.5498 -0.5581
33123SOL    HW1 4689   9.585   4.833   6.339  1.6447 -0.6262 -0.9066
33123SOL    HW2 4690   9.569   4.732   6.452  0.4393 -0.8571 -1.2674
33124SOL     OW 4691   5.457   1.065   5.010  1.0771 -0.3061  0.6572
33124SOL    HW1 4692   5.448   1.104   5.097 -1.4930  0.5927  0.0812
33124SOL    HW2 4693   5.465   1.140   4.951 -0.2993 -0.7513 -0.1346
33125SOL     OW 4694   7.948   0.928   8.918  0.0959  0.3148  0.0105
33125SOL    HW1 4695   7.963   1.021   8.904  0.1260  0.5627  1.5588
33125SOL    HW2 4696   8.033   0.895   8.948  0.2933 -0.3857 -1.2145
33126SOL     OW 4697   8.292   3.014  10.689 -0.5832 -0.4345  0.7518
33126SOL    HW1 4698   8.246   2.930  10.696 -0.2007 -0.9380 -1.7489
33126SOL    HW2 4699   8.288   3.035  10.596  0.6592  1.5869  1.1048
33127SOL     OW 4700  11.753   3.164   2.734 -0.3112  0.0212  0.2489
33127SOL    HW1 4701  11.789   3.221   2.802  0.5275  0.0500 -0.2054
33127SOL    HW2 4702  11.815   3.091   2.728  0.8207  1.0614 -1.9230
33128SOL     OW 4703   1.908  10.480   1.700  0.5627 -0.2781 -0.1887
33128SOL    HW1 4704   1.855  10.554   1.730  1.0783  0.5562 -1.2804
33128SOL    HW2 4705   1.894  10.412   1.766 -1.0640  0.2762  0.0665
33129SOL     OW 4706   7.409   5.802   2.948 -0.1574 -0.3693 -0.2810
33129SOL    HW1 4707   7.323   5.800   2.906 -0.4451 -2.7207  0.2869
33129SOL    HW2 4708   7.389   5.798   3.042  0.5460 -1.7129 -0.1661
33130SOL     OW 4709   6.870   3.758   7.757  0.1544  0.3033  0.0129
33130SOL    HW1 4710   6.921   3.700   7.812 -2.0294 -1.8670 -0.0974
33130SOL    HW2 4711   6.930   3.783   7.686  1.9115  0.3063  1.4451
33131SOL     OW 4712   2.632   1.764   8.650  0.1070  0.1832 -0.1407
33131SOL    HW1 4713   2.601   1.850   8.678 -0.1610  0.2849 -0.7470
33131SOL    HW2 4714   2.560   1.728   8.598  0.4002 -0.2152 -0.2722
33132SOL     OW 4715   1.447   1.261   6.251  0.3775  0.1163 -0.2488
33132SOL    HW1 4716   1.467   1.305   6.169 -2.3030  2.6046  0.2841
33132SOL    HW2 4717   1.363   1.297   6.278  1.0776 -0.6607  3.5652
33133SOL     OW 4718   3.239   5.260   9.361 -0.0628 -0.0974  0.4717
33133SOL    HW1 4719   3.327   5.296   9.353  0.0276 -0.1853  1.0604
33133SOL    HW2 4720   3.181   5.335   9.345  0.1135  0.6763  3.0353
33134SOL     OW 4721   5.455   2.061   2.184  0.0242 -0.3096  0.3726
33134SOL    HW1 4722   5.504   2.071   2.102 -2.8460  1.8286 -1.2924
33134SOL    HW2 4723   5.385   2.000   2.161 -1.5850  1.3101  0.7443
33135SOL     OW 4724   6.332   2.558   5.548  0.2797 -0.4663 -0.4051
33135SOL    HW1 4725   6.316   2.652   5.545  1.1311 -0.2401  1.3517
33135SOL    HW2 4726   6.418   2.547   5.508 -0.3598 -0.6748 -1.7796
33136SOL     OW 4727   5.413   8.444   9.234 -0.2707 -0.3730 -0.4372
33136SOL    HW1 4728   5.490   8.392   9.210 -0.0781 -0.1790 -0.2404
33136SOL    HW2 4729   5.429   8.530   9.195 -0.7268 -0.5391 -1.0134
33137SOL     OW 4730  10.369   9.716   7.572 -0.0977  0.1030 -0.3300
33137SOL    HW1 4731  10.320   9.739   7.651 -0.7464 -1.2926 -0.2955
33137SOL    HW2 4732  10.332   9.632   7.545  1.2540 -0.2482 -1.1683
33138SOL     OW 4733   0.596   2.177   2.317  0.7762  0.1081 -0.1862
33138SOL    HW1 4734   0.598   2.094   2.366  0.7516 -0.2842 -0.8435
33138SOL    HW2 4735   0.616   2.244   2.383 -2.2360 -0.0692  1.0442
33139SOL     OW 4736   9.242   6.297  11.720  0.0131 -0.2499  0.0601
33139SOL    HW1 4737   9.302   6.227  11.695 -0.8349 -1.3310  0.9648
33139SOL    HW2 4738   9.167   6.252  11.758  0.3341  1.2055  2.6026
33140SOL     OW 4739   5.098   3.736  10.165  0.4615 -0.3613 -0.2941
33140SOL    HW1 4740   5.140   3.656  10.134  0.2904 -0.9127  0.8550
33140SOL    HW2 4741   5.170   3.797  10.180  0.6428 -0.5036 -0.5816
33141SOL     OW 4742   0.634   1.477   6.689 -0.0756  0.1523 -0.4350
33141SOL    HW1 4743   0.720   1.490   6.729  0.1147  2.0667 -1.3663
33141SOL    HW2 4744   0.643   1.510   6.600 -2.1478  1.8510 -0.1044
33142SOL     OW 4745   2.143   7.537   8.658 -0.3254 -0.0552  0.7190
33142SOL    HW1 4746   2.185   7.600   8.599 -1.2294 -0.5331 -0.4865
33142SOL    HW2 4747   2.054   7.569   8.669 -0.9156 -1.2817 -0.2154
33143SOL     OW 4748   5.817   6.650   3.505 -0.7383  0.7902  0.3831
33143SOL    HW1 4749   5.797   6.659   3.599  0.4010 -1.4545  0.9115
33143SOL    HW2 4750   5.897   6.702   3.493  0.7295 -1.0816  1.3711
33144SOL     OW 4751   1.597  11.709   8.682  0.3203 -0.0816  0.0294
33144SOL    HW1 4752   1.641  11.747   8.757  2.3007 -0.4540 -0.8901
33144SOL    HW2 4753   1.610  11.614   8.692  0.0630 -0.1727 -0.4701
33145SOL     OW 4754   6.582   8.145   9.132 -0.0010  0.1654 -0.3092
33145SOL    HW1 4755   6.633   8.075   9.174 -1.5914 -1.5642 -1.1627
33145SOL    HW2 4756   6.544   8.105   9.055 -0.9904  1.9890 -0.8254
33146SOL     OW 4757   6.574   2.079   1.564  0.1183  0.2390  0.1603
33146SOL    HW1 4758   6.522   2.044   1.492  1.6127 -1.6896 -0.0484
33146SOL    HW2 4759   6.510   2.094   1.634 -1.0922  0.4994 -0.9619
33147SOL     OW 4760  11.066   2.233   7.224 -0.4028 -0.4237 -0.3409
33147SOL    HW1 4761  11.089   2.144   7.251 -0.6187 -0.5059 -0.4239
33147SOL    HW2 4762  11.148   2.282   7.231 -0.4223 -0.4715  0.3402
33148SOL     OW 4763   2.981   6.599   2.978 -0.1210  0.0834 -0.1302
33148SOL    HW1 4764   2.947   6.516   3.011  0.6016  0.3457  1.3424
33148SOL    HW2 4765   3.074   6.596   2.999 -0.1363  1.3647  0.1796
33149SOL     OW 4766   7.015   7.373   2.077  0.3532 -0.0313 -0.2777
33149SOL    HW1 4767   7.020   7.406   1.988  1.0135  1.5525  0.3062
33149SOL    HW2 4768   7.045   7.283   2.072  1.0269  0.2512 -1.5456
33150SOL     OW 4769  11.456   1.378   3.383  0.1532  0.3262 -0.5979
33150SOL    HW1 4770  11.416   1.377   3.470 -0.4240  1.8991 -0.8021
33150SOL    HW2 4771  11.424   1.298   3.341 -0.5217  0.1446  0.2283
33151SOL     OW 4772   6.789   4.984   6.393 -0.1680 -0.2940  0.0848
33151SOL    HW1 4773   6.721   4.919   6.374  0.0140 -0.4230 -0.1352
33151SOL    HW2 4774   6.834   4.950   6.470 -0.8904  0.2133  0.7437
33152SOL     OW 4775   0.151   7.526  10.296  0.0388  0.1062 -0.2540
33152SOL    HW1 4776   0.105   7.609  10.304  0.6027  0.4128 -0.1426
33152SOL    HW2 4777   0.144   7.486  10.383  0.0330  0.1795 -0.2207
33153SOL     OW 4778  10.011   1.724   0.006  0.3309  0.3972 -0.1790
33153SOL    HW1 4779   9.921   1.739  -0.026  0.6179 -2.2992 -2.5919
33153SOL    HW2 4780  10.005   1.642   0.056  1.5047  0.0181 -0.6475
33154SOL     OW 4781   2.659  11.616   5.630 -0.2430 -0.3378 -0.2455
33154SOL    HW1 4782   2.648  11.570   5.547 -0.1663 -0.5730 -0.1294
33154SOL    HW2 4783   2.586  11.677   5.635  0.6577  0.8933 -1.2656
33155SOL     OW 4784   4.639   5.222   9.613 -0.8114  0.1205  0.2928
33155SOL    HW1 4785   4.551   5.203   9.579 -0.6629  0.2088 -0.1393
33155SOL    HW2 4786   4.674   5.288   9.554 -0.3376 -0.1258  0.2972
33156SOL     OW 4787  11.389   6.263   3.005  0.2579  0.1300  0.1008
33156SOL    HW1 4788  11.406   6.357   3.010  0.6073  0.1788 -1.5642
33156SOL    HW2 4789  11.401   6.240   2.913  1.8174 -1.8625  0.7077
33157SOL     OW 4790   1.868   7.872   1.337  0.1823 -0.3318 -0.3245
33157SOL    HW1 4791   1.954   7.864   1.295 -0.2506 -2.3148 -0.9378
33157SOL    HW2 4792   1.859   7.965   1.355  0.8913  0.5049 -3.5865
33158SOL     OW 4793   8.355   5.412  10.269  0.1348  0.4748  0.1768
33158SOL    HW1 4794   8.322   5.325  10.293  1.6123 -0.1585  0.0015
33158SOL    HW2 4795   8.315   5.430  10.184 -2.1651  1.1105  1.2886
33159SOL     OW 4796   2.658   1.467  11.467 -0.6608 -0.2995  0.1843
33159SOL    HW1 4797   2.667   1.388  11.413  1.0404  0.1609 -0.2648
33159SOL    HW2 4798   2.727   1.459  11.533 -1.2013  0.2839  0.8276
33160SOL     OW 4799   3.634   2.719   5.206 -0.4356 -0.1775  0.2093
33160SOL    HW1 4800   3.580   2.691   5.133 -0.7874  2.2615 -0.5443
33160SOL    HW2 4801   3.572   2.744   5.274 -0.3157  1.6971 -0.3041
33161SOL     OW 4802   2.274   3.590   1.682 -0.0520  0.4104  0.4693
33161SOL    HW1 4803   2.247   3.507   1.720  0.1027  0.3287  0.4018
33161SOL    HW2 4804   2.370   3.589   1.688  0.0637 -0.1637 -1.0646
33162SOL     OW 4805  11.673   4.452   8.364 -0.1912  0.9877 -0.1602
33162SOL    HW1 4806  11.653   4.471   8.456 -1.7814 -1.2373  0.0330
33162SOL    HW2 4807  11.599   4.487   8.315 -1.5518 -1.5644 -0.0944
33163SOL     OW 4808   6.459   4.787  11.233  0.1828  0.0831  0.7798
33163SOL    HW1 4809   6.395   4.848  11.270 -0.0811  0.0487  0.3820
33163SOL    HW2 4810   6.511   4.841  11.173  0.7297  0.1795  1.3299
33164SOL     OW 4811   7.741   7.837   4.985 -0.3605  0.0078 -0.2687
33164SOL    HW1 4812   7.714   7.821   4.895  0.5983  1.7277 -0.9145
33164SOL    HW2 4813   7.727   7.754   5.030 -0.1640 -1.1079 -2.1661
33165SOL     OW 4814  10.387  11.704   3.005  0.6271  0.0991  0.4910
33165SOL    HW1 4815  10.464  11.745   3.046  1.3206  0.0688 -0.7451
33165SOL    HW2 4816  10.369  11.627   3.060  2.3014 -0.6464  0.0632
33166SOL     OW 4817   4.490   3.021   0.428 -0.1307  0.1662  0.2199
33166SOL    HW1 4818   4.567   3.004   0.482 -0.8457 -2.3673  0.5693
33166SOL    HW2 4819   4.516   2.996   0.340 -0.0045  1.0569 -0.0003
33167SOL     OW 4820   8.855   1.105   2.117  0.3220 -0.2574  0.1014
33167SOL    HW1 4821   8.772   1.152   2.106  1.3897  1.4660 -1.0969
33167SOL    HW2 4822   8.892   1.101   2.029  1.3418 -1.3387  0.5557
33168SOL     OW 4823   8.997   8.354   0.948 -0.5278  0.3940 -0.3599
33168SOL    HW1 4824   9.048   8.342   1.028 -0.8196  0.4247 -0.1681
33168SOL    HW2 4825   9.061   8.343   0.877 -0.4187 -0.3994 -0.1475
33169SOL     OW 4826   6.616   7.004   2.995  0.2781 -0.2577  0.1010
33169SOL    HW1 4827   6.707   6.977   2.988  0.4695  0.2628  0.5120
33169SOL    HW2 4828   6.589   7.021   2.905  0.6459 -0.2168 -0.0032
33170SOL     OW 4829   8.669   6.274   9.502 -0.7343 -0.0142 -0.1662
33170SOL    HW1 4830   8.759   6.299   9.522 -0.5688 -0.5613 -0.2295
33170SOL    HW2 4831   8.622   6.358   9.494  0.2846  0.3962 -2.6801
33171SOL     OW 4832   0.666   7.388   6.559  0.1453 -0.0120  0.1875
33171SOL    HW1 4833   0.595   7.361   6.501 -0.1781  0.0254  0.5595
33171SOL    HW2 4834   0.622   7.432   6.632  0.5038 -0.4578  0.6851
33172SOL     OW 4835   9.042   8.561   7.158 -0.0284  0.0991  0.6639
33172SOL    HW1 4836   9.060   8.530   7.069  0.2467 -1.0429  1.0933
33172SOL    HW2 4837   8.956   8.526   7.178  0.3631 -0.5773  1.2237
33173SOL     OW 4838   8.039   2.254  11.764  0.0265  0.1250 -0.2109
33173SOL    HW1 4839   8.072   2.165  11.781 -0.7936 -0.3030 -0.7706
33173SOL    HW2 4840   8.061   2.270  11.672 -1.2377 -0.1507 -0.5823
33174SOL     OW 4841   4.356   6.275   1.321 -0.1548  0.3433 -0.0603
33174SOL    HW1 4842   4.374   6.362   1.284  0.7289  0.0446 -0.3446
33174SOL    HW2 4843   4.267   6.283   1.357 -0.0140  1.4161  0.0831
33175SOL     OW 4844   4.281   5.095   6.196 -0.3149 -0.1482 -0.0831
33175SOL    HW1 4845   4.363   5.047   6.190 -0.3083 -0.1061 -0.3347
33175SOL    HW2 4846   4.233   5.072   6.116 -0.8619 -0.7521  0.4110
33176SOL     OW 4847   2.436   3.358   0.830  0.2049  0.6841  0.3809
33176SOL    HW1 4848   2.413   3.265   0.825 -0.9757  0.9042  1.2328
33176SOL    HW2 4849   2.458   3.372   0.922 -0.6659  1.4675  0.4830
33177SOL     OW 4850   2.924   1.874   7.910 -0.2034 -0.7239  0.4307
33177SOL    HW1 4851   3.004   1.898   7.957 -0.1853 -1.1312  0.6139
33177SOL    HW2 4852   2.853   1.893   7.971 -0.3307  0.6389 -0.1228
33178SOL     OW 4853   8.987   6.446   4.374  0.3388 -0.0743  0.0615
33178SOL    HW1 4854   8.934   6.372   4.345 -2.3632  1.3356  0.9595
33178SOL    HW2 4855   8.947   6.472   4.458  1.6675  1.9007  0.1383
33179SOL     OW 4856   9.821   7.152   7.011  0.1299 -0.0891  0.0822
33179SOL    HW1 4857   9.816   7.209   6.934 -1.0278  0.6659  0.6973
33179SOL    HW2 4858   9.771   7.074   6.987 -3.1043  1.5127  1.1792
33180SOL     OW 4859   7.284   5.800   2.670  0.2855  0.1843  0.0289
33180SOL    HW1 4860   7.369   5.761   2.688  0.7570  0.8100 -0.7864
33180SOL    HW2 4861   7.226   5.726   2.655  0.4157 -0.2903  1.6563
33181SOL     OW 4862   5.780  11.697   2.156 -0.4817 -0.1567  0.1413
33181SOL    HW1 4863   5.751  11.758   2.224 -0.0368  0.1946  0.0232
33181SOL    HW2 4864   5.741  11.731   2.075  0.1164  0.2305  0.0062
33182SOL     OW 4865   1.102   2.363   3.290 -0.0681  0.0004 -0.0451
33182SOL    HW1 4866   1.110   2.452   3.322 -0.4638 -0.5799  1.7608
33182SOL    HW2 4867   1.074   2.373   3.199  0.0736  1.7045  0.0721
33183SOL     OW 4868   3.488   0.320   1.420  0.2341 -0.0780  0.0993
33183SOL    HW1 4869   3.491   0.315   1.515  0.3225 -0.7929  0.0625
33183SOL    HW2 4870   3.495   0.229   1.390  2.9367  0.2586 -0.6476
33184SOL     OW 4871   9.383   9.362   7.762 -0.3477  0.3311  0.2388
33184SOL    HW1 4872   9.333   9.284   7.738  0.2843 -0.4553  1.3699
33184SOL    HW2 4873   9.358   9.379   7.853 -0.3939  1.3977  0.0411
33185SOL     OW 4874   8.867   7.556  10.775 -0.0932  0.7252  0.1844
33185SOL    HW1 4875   8.786   7.520  10.811 -1.4876  0.8005 -2.5945
33185SOL    HW2 4876   8.912   7.481  10.736  0.1746  0.9902 -0.0240
33186SOL     OW 4877   4.944   6.341   6.467 -0.0935  0.0511  0.0874
33186SOL    HW1 4878   4.890   6.263   6.476  0.1396 -0.2105 -0.7316
33186SOL    HW2 4879   4.999   6.342   6.546 -2.4427  1.2661  1.8486
33187SOL     OW 4880   7.055   7.814   8.925  0.5362  0.2137 -0.0513
33187SOL    HW1 4881   7.134   7.767   8.953  0.1054 -0.0836  0.6942
33187SOL    HW2 4882   7.051   7.800   8.830  1.3797  0.2429 -0.1000
33188SOL     OW 4883   6.687   0.373   1.641 -0.4682 -0.1196 -0.1094
33188SOL    HW1 4884   6.667   0.351   1.732 -0.3353  1.8141  0.4487
33188SOL    HW2 4885   6.602   0.375   1.597 -0.6097 -0.3478  0.1539
33189SOL     OW 4886   2.090   6.009   6.742 -0.1282 -0.1033  0.0432
33189SOL    HW1 4887   2.178   6.007   6.704 -0.3878 -0.3935 -0.5592
33189SOL    HW2 4888   2.101   6.053   6.826  0.2574  1.6615 -0.8740
33190SOL     OW 4889   0.132  11.351   3.638  0.3368 -0.3689 -0.2654
33190SOL    HW1 4890   0.140  11.416   3.709  0.1466  0.1112 -0.6751
33190SOL    HW2 4891   0.198  11.285   3.658 -0.8060 -1.1267  1.2889
33191SOL     OW 4892   8.457   9.227   1.433 -0.3260  0.6200 -0.0072
33191SOL    HW1 4893   8.374   9.209   1.389  0.4299  0.5840 -1.4863
33191SOL    HW2 4894   8.454   9.321   1.450 -0.7120  0.6037  0.0290
33192SOL     OW 4895   4.094   8.555   2.283 -0.1433  0.2709  0.2936
33192SOL    HW1 4896   4.136   8.624   2.231  0.1477 -0.3180 -0.2636
33192SOL    HW2 4897   4.071   8.488   2.220 -1.0327  0.1433  0.7454
33193SOL     OW 4898   4.982   6.426   9.805 -0.7341 -0.3999  0.3453
33193SOL    HW1 4899   5.063   6.464   9.839 -0.1296 -1.8840  0.6569
33193SOL    HW2 4900   4.932   6.500   9.772  0.2183  0.6823  1.2650
33194SOL     OW 4901   7.778   8.117   1.969  0.4958 -0.0100  0.3942
33194SOL    HW1 4902   7.730   8.167   2.035  1.2883  1.1045  0.1413
33194SOL    HW2 4903   7.864   8.158   1.964  0.7623 -0.6397 -0.6917
33195SOL     OW 4904   9.918  11.582   0.413  0.1277 -0.0444 -0.1372
33195SOL    HW1 4905   9.859  11.651   0.444 -0.1334 -0.4779  0.3262
33195SOL    HW2 4906   9.940  11.608   0.324  0.4266  0.9115  0.2016
33196SOL     OW 4907  11.756   1.838   3.265 -0.3066  0.3269 -0.1915
33196SOL    HW1 4908  11.687   1.773   3.274 -0.0811  0.1955  0.6674
33196SOL    HW2 4909  11.736   1.883   3.183 -0.2995 -1.0162 -0.9506
33197SOL     OW 4910   4.054   6.823  11.342 -0.0875 -0.0765  0.3668
33197SOL    HW1 4911   3.979   6.848  11.395 -1.4772 -1.5563 -0.8261
33197SOL    HW2 4912   4.063   6.894  11.278 -0.1927  0.2989  0.7636
33198SOL     OW 4913   9.389  11.111   7.539  0.0636  0.3240 -0.0513
33198SOL    HW1 4914   9.448  11.132   7.612  2.3732 -0.4904 -1.5717
33198SOL    HW2 4915   9.312  11.074   7.581 -0.1452  2.9024  2.1545
33199SOL     OW 4916  10.531   2.987   9.699 -0.0550  0.0502  0.1565
33199SOL    HW1 4917  10.624   2.986   9.721 -0.3129  0.9122  1.4254
33199SOL    HW2 4918  10.488   3.005   9.782 -1.2837  0.8813 -0.6389
33200SOL     OW 4919  11.806   7.062  10.634 -0.1402  0.1573 -0.1522
33200SOL    HW1 4920  11.826   6.972  10.661  1.4778  0.3744 -0.5320
33200SOL    HW2 4921  11.866   7.116  10.686 -1.4437  1.0780  0.4451
33201SOL     OW 4922  11.577   7.206  10.590 -0.6079  0.3167  0.1754
33201SOL    HW1 4923  11.657   7.158  10.612  0.8393  2.2848 -0.4755
33201SOL    HW2 4924  11.605   7.271  10.525 -2.2666  2.4860  1.4778
33202SOL     OW 4925   2.717   5.853   1.343 -0.4680 -0.2987 -0.8629
33202SOL    HW1 4926   2.632   5.827   1.378 -0.2525  0.9469  0.7306
33202SOL    HW2 4927   2.734   5.939   1.383  0.3804  0.6934 -3.1702
33203SOL     OW 4928  10.557   0.730   6.078  0.0166 -0.2618  0.2824
33203SOL    HW1 4929  10.569   0.673   6.154 -1.5195 -1.3753 -0.2728
33203SOL    HW2 4930  10.464   0.750   6.077 -0.2457 -1.2675 -1.9527
33204SOL     OW 4931   1.270   5.509   8.063 -0.0145 -0.1847 -0.1554
33204SOL    HW1 4932   1.220   5.566   8.121 -0.7270  0.5419 -1.4400
33204SOL    HW2 4933   1.361   5.530   8.082 -0.2494  0.5933  0.1701
33205SOL     OW 4934   9.387   7.665   9.221  0.3034  0.2828 -0.1746
33205SOL    HW1 4935   9.457   7.599   9.224  0.1158  0.1058  0.7566
33205SOL    HW2 4936   9.355   7.670   9.312 -2.2637 -1.0949 -0.9110
33206SOL     OW 4937   0.340  10.265   7.502 -0.0654 -0.4646 -0.3401
33206SOL    HW1 4938   0.318  10.292   7.413 -0.0888 -2.1977 -0.9008
33206SOL    HW2 4939   0.265  10.294   7.554  0.0466  0.7592 -0.8266
33207SOL     OW 4940  10.060   2.554   9.381  0.2638  0.0970  0.0817
33207SOL    HW1 4941  10.016   2.639   9.378 -0.8762 -0.4960 -0.5220
33207SOL    HW2 4942   9.995   2.492   9.349  1.2235 -0.9527  0.1059
33208SOL     OW 4943   4.204   6.864   1.181 -0.3301 -0.3479  0.0332
33208SOL    HW1 4944   4.252   6.944   1.200 -0.9991  0.4474 -1.5042
33208SOL    HW2 4945   4.154   6.846   1.260  0.2437  0.4387  0.5813
33209SOL     OW 4946  10.568   0.709   7.886 -0.2519 -0.4912  0.4103
33209SOL    HW1 4947  10.597   0.739   7.972 -0.0507  0.8287 -0.0893
33209SOL    HW2 4948  10.630   0.747   7.824 -1.7186  0.5496 -0.5029
33210SOL     OW 4949   6.725   9.517   1.439 -1.0558 -0.3485 -0.6285
33210SOL    HW1 4950   6.717   9.431   1.481  0.7822  0.0045  0.5982
33210SOL    HW2 4951   6.697   9.579   1.507  0.9172  0.1700 -0.2129
33211SOL     OW 4952  11.198   3.011   6.248 -0.2703 -0.5433 -0.1376
33211SOL    HW1 4953  11.278   3.032   6.297 -0.2299 -0.2146 -0.3380
33211SOL    HW2 4954  11.128   3.051   6.300 -0.1758  0.2509 -0.6124
33212SOL     OW 4955  10.295  11.510   3.425  0.0995  0.5637  0.6343
33212SOL    HW1 4956  10.244  11.518   3.344  0.2566  0.2708  0.5039
33212SOL    HW2 4957  10.253  11.570   3.486  0.6448  1.6287 -0.0026
33213SOL     OW 4958  11.709  10.785   2.314  0.3274  0.3491 -0.5919
33213SOL    HW1 4959  11.618  10.801   2.289  0.1526  0.4213  0.0863
33213SOL    HW2 4960  11.727  10.696   2.284 -0.1605  0.1067 -0.1837
33214SOL     OW 4961   7.686   6.157   2.730 -0.6785 -0.2848 -0.2204
33214SOL    HW1 4962   7.608   6.117   2.769 -1.5305  0.2317 -1.3116
33214SOL    HW2 4963   7.660   6.175   2.640  0.8047 -0.3085 -0.6688
33215SOL     OW 4964   6.276   3.896   3.808 -0.4780  0.0349  0.5820
33215SOL    HW1 4965   6.251   3.862   3.722  0.9888 -0.6510  0.3992
33215SOL    HW2 4966   6.304   3.986   3.791  1.0032 -0.4875  0.0956
33216SOL     OW 4967   3.754   6.896   3.589  0.0515  0.0720 -0.4519
33216SOL    HW1 4968   3.745   6.838   3.665 -0.7691 -0.3013 -0.8222
33216SOL    HW2 4969   3.847   6.895   3.569  0.2108 -0.2063  0.2540
33217SOL     OW 4970   5.984   8.976   1.865 -0.4573  0.4756 -0.1920
33217SOL    HW1 4971   6.075   8.993   1.888  0.0426 -0.0776 -1.6766
33217SOL    HW2 4972   5.938   9.056   1.892  0.3351  0.5100  1.1525
33218SOL     OW 4973   6.532   8.161   4.432  1.1522 -0.1358  0.0711
33218SOL    HW1 4974   6.562   8.104   4.503 -0.1047 -0.8404  0.0717
33218SOL    HW2 4975   6.440   8.138   4.421  1.5213 -0.7162 -2.4004
33219SOL     OW 4976   5.791   8.614  11.218  0.3446 -0.2489 -0.4293
33219SOL    HW1 4977   5.872   8.569  11.244  0.1542 -0.4702 -0.2191
33219SOL    HW2 4978   5.721   8.555  11.246  0.1203 -0.2365 -0.9540
33220SOL     OW 4979   2.570   9.079   7.878 -0.2959  0.3027 -0.2151
33220SOL    HW1 4980   2.513   9.107   7.949 -0.6979  0.8958 -0.7569
33220SOL    HW2 4981   2.647   9.044   7.922 -0.8450 -0.0160  0.5215
33221SOL     OW 4982   6.397   0.002   1.149  0.4942  0.0187 -0.3880
33221SOL    HW1 4983   6.452   0.058   1.204  0.7637 -0.2739 -0.3539
33221SOL    HW2 4984   6.367  -0.067   1.209 -1.2583  1.0760  0.0049
33222SOL     OW 4985   3.815   9.497   5.807  0.1411 -0.3406 -0.8952
33222SOL    HW1 4986   3.858   9.581   5.822  0.2423 -0.8277  2.2705
33222SOL    HW2 4987   3.879   9.432   5.838 -1.9044 -1.1937  2.0035
33223SOL     OW 4988  11.191   7.151   2.174 -0.5174  0.0656 -0.0690
33223SOL    HW1 4989  11.187   7.080   2.238  0.9399  0.1916  0.2063
33223SOL    HW2 4990  11.236   7.111   2.098 -0.7209  0.3770 -0.3528
33224SOL     OW 4991  10.409   1.609   8.405  0.2692 -0.4862 -0.4366
33224SOL    HW1 4992  10.475   1.678   8.398 -0.6195  0.6879  1.7405
33224SOL    HW2 4993  10.434   1.559   8.482 -1.2529 -0.0925  0.3617
33225SOL     OW 4994   7.231  10.364   1.054 -0.3224 -0.1814  0.6881
33225SOL    HW1 4995   7.245  10.424   1.127 -0.8788 -1.0788  1.5698
33225SOL    HW2 4996   7.152  10.397   1.011  0.2715  0.6212  0.2026
33226SOL     OW 4997   8.883   3.579  10.923  0.2061  0.7727  0.1024
33226SOL    HW1 4998   8.839   3.578  10.838  0.3921  0.8597  0.0046
33226SOL    HW2 4999   8.968   3.537  10.907  1.0399  2.4891 -0.1894
33227SOL     OW 5000  10.382   4.991   2.517  0.2864 -0.0875 -0.0740
33227SOL    HW1 5001  10.442   5.066   2.511 -1.5179  1.4813  0.4800
33227SOL    HW2 5002  10.352   4.991   2.608  0.1643 -1.4418 -0.0878
33228SOL     OW 5003   6.955   8.328   2.821  0.4935 -0.2390  0.2188
33228SOL    HW1 5004   6.952   8.233   2.811  0.5134 -0.1076 -1.1699
33228SOL    HW2 5005   6.937   8.343   2.914 -0.3226 -1.5558  0.2975
33229SOL     OW 5006   8.202   7.413   2.129  0.3248 -0.0254  0.2064
33229SOL    HW1 5007   8.183   7.330   2.086  0.1425  0.7042 -1.2131
33229SOL    HW2 5008   8.289   7.401   2.167 -0.1850 -1.2257  1.0260
33230SOL     OW 5009   7.633   9.001   9.422 -0.2659 -0.1543  0.0595
33230SOL    HW1 5010   7.582   8.920   9.423 -1.4220  0.5349  0.5744
33230SOL    HW2 5011   7.604   9.046   9.343  1.4742 -0.8661 -1.0414
33231SOL     OW 5012   4.626   4.129   2.626 -0.4708 -0.0031  0.0246
33231SOL    HW1 5013   4.534   4.145   2.647 -0.1333 -0.5376  2.1835
33231SOL    HW2 5014   4.674   4.169   2.698  1.1268  1.6829 -1.8810
33232SOL     OW 5015   6.184   2.644   6.153 -0.6159  0.1643  0.8021
33232SOL    HW1 5016   6.279   2.644   6.146 -0.5549 -1.1323  1.3717
33232SOL    HW2 5017   6.159   2.736   6.144  0.6592  0.4864  0.3769
33233SOL     OW 5018   8.636   4.749   3.880 -0.1443 -0.0540 -0.0498
33233SOL    HW1 5019   8.640   4.696   3.960  0.6572  0.7331  0.4490
33233SOL    HW2 5020   8.706   4.814   3.890 -1.3523  1.3652 -0.4600
33234SOL     OW 5021   5.976   7.825  11.258  0.5506 -0.2055  0.3481
33234SOL    HW1 5022   5.911   7.775  11.208  1.3367 -2.5929  1.5384
33234SOL    HW2 5023   5.940   7.914  11.262 -2.8842 -1.4542  1.2305
33235SOL     OW 5024  11.207   2.600   4.183 -0.0692 -0.4396  0.0613
33235SOL    HW1 5025  11.162   2.665   4.236  2.2663  1.5024 -0.1299
33235SOL    HW2 5026  11.278   2.569   4.239  1.5515  0.5764 -1.3362
33236SOL     OW 5027   8.436   0.404   8.687  0.3648 -0.2734 -0.3447
33236SOL    HW1 5028   8.528   0.415   8.711  0.2382 -2.7692  1.8615
33236SOL    HW2 5029   8.391   0.474   8.734  1.1278  1.1975 -1.7411
33237SOL     OW 5030   8.385   1.048   9.614 -0.1575 -0.3998 -0.2096
33237SOL    HW1 5031   8.453   1.024   9.551  0.5817 -0.3574  0.5529
33237SOL    HW2 5032   8.355   0.965   9.651 -1.5754 -0.5355 -1.5885
33238SOL     OW 5033   3.086   9.333   8.389 -0.7716  0.4047 -0.2414
33238SOL    HW1 5034   3.111   9.325   8.296  0.6898 -1.3651  0.2476
33238SOL    HW2 5035   3.154   9.389   8.426 -1.2051  0.8892 -0.1743
33239SOL     OW 5036   8.557   4.074   1.042 -0.9775  0.1847  0.0225
33239SOL    HW1 5037   8.508   4.111   0.969 -0.9906 -0.1683 -0.1500
33239SOL    HW2 5038   8.510   4.103   1.120 -1.7283 -0.5213 -0.1515
33240SOL     OW 5039   9.246   7.161   7.929 -0.0642 -0.1037 -0.2705
33240SOL    HW1 5040   9.297   7.232   7.890 -1.0680  0.6082 -0.3037
33240SOL    HW2 5041   9.161   7.164   7.885 -0.6388 -0.3698  0.7724
33241SOL     OW 5042   4.974   5.012   5.032 -0.2558  0.2224 -0.2325
33241SOL    HW1 5043   5.029   5.069   4.978  0.4128  0.1708  0.3850
33241SOL    HW2 5044   5.030   4.985   5.104 -0.5805 -1.1630 -0.4726
33242SOL     OW 5045   0.337   5.918   7.655  0.2906  0.1099 -0.4647
33242SOL    HW1 5046   0.329   5.878   7.568 -1.6665 -0.2121 -0.1849
33242SOL    HW2 5047   0.373   5.848   7.710 -1.1185 -0.6274 -0.4375
33243SOL     OW 5048  10.771   7.859   3.924 -0.4867  0.2385  0.2862
33243SOL    HW1 5049  10.714   7.867   3.848 -1.0537 -1.0981  0.5414
33243SOL    HW2 5050  10.834   7.790   3.900  0.3404  0.9159  0.4353
33244SOL     OW 5051   6.674  11.177   6.384 -0.0478  0.6082 -0.1649
33244SOL    HW1 5052   6.770  11.177   6.386 -0.0280 -0.6794 -0.6403
33244SOL    HW2 5053   6.651  11.269   6.397  1.2729  1.0684 -0.8298
33245SOL     OW 5054  10.552   5.656   7.974 -0.0453  0.0769 -0.0404
33245SOL    HW1 5055  10.589   5.723   7.917  2.3224 -1.5558 -0.5746
33245SOL    HW2 5056  10.550   5.577   7.921  0.7050 -1.1255  1.6051
33246SOL     OW 5057   0.530   3.321   8.471 -0.4224  0.0361 -0.2331
33246SOL    HW1 5058   0.437   3.301   8.459 -0.6886  1.5016 -0.8066
33246SOL    HW2 5059   0.531   3.404   8.517  0.5597  1.1459 -2.1416
33247SOL     OW 5060  10.095   7.664   4.561 -0.2625  0.2188 -0.2957
33247SOL    HW1 5061  10.005   7.696   4.554 -0.5250 -0.5183 -0.4213
33247SOL    HW2 5062  10.089   7.591   4.623  0.5424  1.2338  1.0488
33248SOL     OW 5063   4.840   5.602  10.113 -0.2280  0.2393 -0.2553
33248SOL    HW1 5064   4.859   5.664  10.184  2.4681  0.1437 -0.7624
33248SOL    HW2 5065   4.814   5.658  10.039  2.3836  0.9076 -0.7722
33249SOL     OW 5066  11.683   6.917   3.257 -0.0347 -0.0359  0.6749
33249SOL    HW1 5067  11.619   6.962   3.202 -0.3985  0.3735  1.4301
33249SOL    HW2 5068  11.648   6.828   3.267 -0.2308  0.0419  0.6784
33250SOL     OW 5069   2.737   4.654  11.806  0.2819 -0.4591  0.0289
33250SOL    HW1 5070   2.658   4.641  11.860  0.9674 -0.9552  0.9538
33250SOL    HW2 5071   2.799   4.696  11.866  0.6448  0.1649 -0.7708
33251SOL     OW 5072   0.598   2.584   6.432  0.3056  0.0508 -0.1501
33251SOL    HW1 5073   0.548   2.663   6.453 -0.8865 -0.5073 -0.8145
33251SOL    HW2 5074   0.541   2.512   6.458  0.9811 -0.6110 -0.4605
33252SOL     OW 5075   2.212   2.208  11.359  0.2352 -0.1691 -0.6053
33252SOL    HW1 5076   2.118   2.226  11.368  0.6885  2.2864  0.1554
33252SOL    HW2 5077   2.233   2.151  11.433 -0.2394  1.4126  0.8271
33253SOL     OW 5078   0.685   3.419   7.191  0.1034 -0.0976  0.5481
33253SOL    HW1 5079   0.644   3.501   7.219  1.3145  0.4745  0.6762
33253SOL    HW2 5080   0.773   3.444   7.163 -0.1203 -1.0709 -1.1777
33254SOL     OW 5081   1.940  10.023   0.337  0.0390  0.4790 -0.8209
33254SOL    HW1 5082   1.991   9.986   0.265 -0.4592  0.8943 -1.4012
33254SOL    HW2 5083   1.921  10.113   0.310  0.4384  0.8735  0.1456
33255SOL     OW 5084   5.427   4.869   7.587 -0.3494 -0.2178 -0.0753
33255SOL    HW1 5085   5.475   4.948   7.613  1.3744 -0.9065 -0.9406
33255SOL    HW2 5086   5.366   4.899   7.520  0.6430  0.3277 -0.7667
33256SOL     OW 5087  10.426  11.731   2.374 -0.4189  0.2924  0.2835
33256SOL    HW1 5088  10.394  11.696   2.458 -1.1628 -0.1595 -0.1744
33256SOL    HW2 5089  10.349  11.726   2.316  0.3966 -0.5134 -0.7650
33257SOL     OW 5090   0.312   5.940   4.339  0.6992  0.2087  0.1935
33257SOL    HW1 5091   0.253   5.869   4.315  1.7394 -0.8664  0.7067
33257SOL    HW2 5092   0.260   5.998   4.395  0.5754 -1.6452  2.1061
33258SOL     OW 5093   4.911   7.058  10.769 -0.4700  0.7304  0.1362
33258SOL    HW1 5094   4.853   6.989  10.734 -0.5908  1.3085 -0.8525
33258SOL    HW2 5095   4.885   7.068  10.860 -1.0590  0.0826  0.0450
33259SOL     OW 5096   3.372   1.731   5.078 -0.7393  0.0764 -0.1938
33259SOL    HW1 5097   3.354   1.637   5.084 -1.1565  0.1729  0.0015
33259SOL    HW2 5098   3.417   1.752   5.159 -0.8031  0.0831 -0.1604
33260SOL     OW 5099  10.388   8.936   3.434  0.1700 -0.1004 -0.0974
33260SOL    HW1 5100  10.424   8.857   3.394 -2.3743 -0.7562 -1.3159
33260SOL    HW2 5101  10.439   8.948   3.514  0.6125 -3.0109  0.1614
33261SOL     OW 5102   6.308   7.548   4.663  0.0886  0.1312  0.6777
33261SOL    HW1 5103   6.259   7.502   4.731 -1.4372  1.1524  0.3156
33261SOL    HW2 5104   6.333   7.631   4.702 -0.7696  0.7123  0.0371
33262SOL     OW 5105   5.427   4.078   0.792  0.3134  0.4045 -0.1052
33262SOL    HW1 5106   5.402   3.985   0.790  0.8288  0.2694 -1.3873
33262SOL    HW2 5107   5.347   4.125   0.771 -0.4458  0.4158  2.4577
33263SOL     OW 5108   2.248  11.102   9.865 -0.3058  0.2234 -0.5582
33263SOL    HW1 5109   2.230  11.114   9.772 -2.1081  1.1676 -0.1313
33263SOL    HW2 5110   2.183  11.156   9.910 -0.4327 -1.3356  1.2898
33264SOL     OW 5111   2.101  11.268  10.039  0.5039  0.3585 -0.1298
33264SOL    HW1 5112   2.155  11.219  10.102  0.9506  0.7992 -0.1564
33264SOL    HW2 5113   2.135  11.357  10.044 -0.5464  0.7523  0.1937
33265SOL     OW 5114   5.917   4.017   1.236  0.0325 -0.5414 -0.1639
33265SOL    HW1 5115   5.889   4.103   1.265 -2.4678 -1.4494  0.3082
33265SOL    HW2 5116   5.879   4.007   1.148  1.4224 -0.6790 -0.7844
33266SOL     OW 5117  10.276   2.842   0.775  0.0727 -0.1961  0.3099
33266SOL    HW1 5118  10.227   2.780   0.829  0.1237 -0.3332  0.1982
33266SOL    HW2 5119  10.214   2.871   0.709  0.2632 -0.7026 -0.1011
33267SOL     OW 5120   7.389   2.609   2.300  0.5055 -0.3306 -0.2972
33267SOL    HW1 5121   7.454   2.568   2.242 -0.3334 -0.4642 -1.1764
33267SOL    HW2 5122   7.306   2.598   2.254 -0.0902  0.1913  0.6204
33268SOL     OW 5123   0.250   6.390   5.546 -0.1348  0.8896 -0.2649
33268SOL    HW1 5124   0.181   6.433   5.495 -2.4046 -0.9562  1.0412
33268SOL    HW2 5125   0.249   6.434   5.631 -1.4879 -0.6584  0.5892
33269SOL     OW 5126  10.101   5.497   6.422  0.3981 -0.1440  0.2171
33269SOL    HW1 5127  10.018   5.473   6.463  0.1038 -0.2834 -0.4409
33269SOL    HW2 5128  10.091   5.590   6.402  0.6213 -0.0282  0.6503
33270SOL     OW 5129   5.654   3.081   3.843 -0.1201 -0.6931  0.3245
33270SOL    HW1 5130   5.613   3.066   3.928  1.0241 -0.2472  0.9779
33270SOL    HW2 5131   5.746   3.062   3.857  0.5401  1.8931 -0.1217
33271SOL     OW 5132   8.519   9.252   4.928 -0.0343  0.4847  0.0104
33271SOL    HW1 5133   8.471   9.192   4.986 -1.1489  0.9234 -0.4342
33271SOL    HW2 5134   8.596   9.276   4.979 -0.0966 -0.5001  0.6194
33272SOL     OW 5135   0.338  11.530   2.248  0.0641 -1.0192 -0.1413
33272SOL    HW1 5136   0.317  11.500   2.337  2.1845  1.0499  1.1771
33272SOL    HW2 5137   0.253  11.537   2.205 -1.4563  0.8725  2.7736
33273SOL     OW 5138   6.243   3.669   0.897  0.2220 -0.1192  0.4593
33273SOL    HW1 5139   6.282   3.714   0.972  1.1277  1.1923 -0.7722
33273SOL    HW2 5140   6.317   3.629   0.852  0.0078  1.0826 -1.0327
33274SOL     OW 5141   3.603   8.487   3.653 -0.3617 -0.4226 -0.1737
33274SOL    HW1 5142   3.631   8.488   3.561  2.1846  1.6477  0.4856
33274SOL    HW2 5143   3.676   8.446   3.699 -1.9314 -2.1306  0.9318
33275SOL     OW 5144   3.085  10.139   0.264 -0.0639 -0.1969 -0.4389
33275SOL    HW1 5145   3.053  10.050   0.276  0.8598 -0.6198 -1.0074
33275SOL    HW2 5146   3.180  10.130   0.266  0.0409  0.8862  0.2403
33276SOL     OW 5147  11.279   0.686   2.662  0.5170  0.0344  0.0191
33276SOL    HW1 5148  11.331   0.746   2.608  0.6670  0.6846  0.8547
33276SOL    HW2 5149  11.191   0.692   2.626  0.5773  0.6029 -0.0473
33277SOL     OW 5150   7.583   0.890  10.013  0.4449  0.3272 -0.0653
33277SOL    HW1 5151   7.523   0.914   9.943 -0.6779  0.2716  0.8554
33277SOL    HW2 5152   7.539   0.820  10.060  2.7758 -2.2420 -1.4536
33278SOL     OW 5153   4.355   0.874   9.344 -0.5217 -0.5946  0.3265
33278SOL    HW1 5154   4.265   0.876   9.312 -0.4752  1.3819  0.2310
33278SOL    HW2 5155   4.346   0.861   9.439 -1.0914  2.4035  0.7556
33279SOL     OW 5156  11.169   4.338   8.121 -0.1415  0.1294  0.3134
33279SOL    HW1 5157  11.206   4.414   8.076  0.6936  1.2735  2.7681
33279SOL    HW2 5158  11.207   4.263   8.076  0.9984  1.2044 -0.5842
33280SOL     OW 5159   3.234   4.676  11.686  0.1554  0.2644 -0.0438
33280SOL    HW1 5160   3.312   4.712  11.728  0.9508 -0.2239 -1.0432
33280SOL    HW2 5161   3.161   4.722  11.726  0.9677  0.8389  0.8130
33281SOL     OW 5162   6.624   1.349   6.025 -0.4566  0.1487 -0.0987
33281SOL    HW1 5163   6.609   1.386   6.111 -0.6726 -0.4656  0.1351
33281SOL    HW2 5164   6.720   1.348   6.016 -0.4236 -0.0705  0.2628
33282SOL     OW 5165   2.232   6.080  10.309  0.0958  0.5119  0.0704
33282SOL    HW1 5166   2.242   6.172  10.333  0.3843  0.7660 -0.9805
33282SOL    HW2 5167   2.319   6.054  10.278 -0.1050  0.0166 -0.0820
33283SOL     OW 5168   5.921   1.863   3.907  0.5132 -0.1946  0.1277
33283SOL    HW1 5169   5.830   1.843   3.884  0.0462  2.1813 -0.3290
33283SOL    HW2 5170   5.916   1.900   3.994  1.1189 -0.3974  0.2533
33284SOL     OW 5171   1.822   5.782   4.766 -0.2935 -0.4673 -0.2649
33284SOL    HW1 5172   1.757   5.817   4.827  0.3422 -0.9481  0.7157
33284SOL    HW2 5173   1.902   5.831   4.786 -0.5401  0.8040 -2.1095
33285SOL     OW 5174  10.904   0.900   2.705 -0.1467  0.1968 -0.4834
33285SOL    HW1 5175  10.846   0.972   2.677  0.0407  0.1012 -1.1262
33285SOL    HW2 5176  10.930   0.924   2.794  0.0868  1.0424 -0.7663
33286SOL     OW 5177   1.900   2.366   7.143  0.1994 -0.0206  0.4889
33286SOL    HW1 5178   1.813   2.402   7.131  0.5245  0.5406 -0.2444
33286SOL    HW2 5179   1.916   2.314   7.064  0.1924 -0.8311  1.0109
33287SOL     OW 5180   7.977   9.112   5.645 -0.0350 -0.6564  0.6490
33287SOL    HW1 5181   7.996   9.019   5.641  1.0082 -0.4191 -0.6178
33287SOL    HW2 5182   7.882   9.117   5.653 -0.1760 -1.8067 -0.1701
33288SOL     OW 5183   3.837   2.972   9.354 -0.3313 -0.0476 -0.4157
33288SOL    HW1 5184   3.777   2.898   9.363 -2.4359  1.5486 -0.8080
33288SOL    HW2 5185   3.910   2.950   9.412 -1.8679 -1.4559  1.1078
33289SOL     OW 5186   1.240   5.254   7.457  0.1908 -0.4465  0.4868
33289SOL    HW1 5187   1.164   5.197   7.471  0.5481 -0.8684  0.7472
33289SOL    HW2 5188   1.235   5.277   7.365 -0.3772 -0.2917  0.5481
33290SOL     OW 5189   5.847  10.380   0.443  0.3845  0.2282 -0.0310
33290SOL    HW1 5190   5.852  10.382   0.538  0.1922  1.6696 -0.0384
33290SOL    HW2 5191   5.936  10.359   0.414  0.3435 -0.6970  0.4515
33291SOL     OW 5192  10.495   6.370   2.388 -0.3612  0.3042 -0.3444
33291SOL    HW1 5193  10.459   6.291   2.427 -1.0690  1.2091  0.8847
33291SOL    HW2 5194  10.423   6.433   2.390  0.7728  1.6281  0.6440
33292SOL     OW 5195   1.823   4.954  11.468  1.0945  0.0682  0.2684
33292SOL    HW1 5196   1.821   4.986  11.377  1.8370 -0.3270  0.1036
33292SOL    HW2 5197   1.731   4.946  11.492  0.8288  2.5729  0.4213
33293SOL     OW 5198   6.496   7.489   9.631  0.2536 -0.2500  0.4297
33293SOL    HW1 5199   6.583   7.453   9.614  0.9351  2.1215 -1.6578
33293SOL    HW2 5200   6.436   7.420   9.606  1.5076 -0.4887 -2.2113
33294SOL     OW 5201   4.775   7.127   0.648 -0.0826 -0.4202 -0.0491
33294SOL    HW1 5202   4.810   7.071   0.717  2.9274  0.9772 -0.2936
33294SOL    HW2 5203   4.769   7.069   0.572 -0.5144 -1.2333  0.5823
33295SOL     OW 5204   2.471   0.674   6.882  0.2432  0.2133  0.2896
33295SOL    HW1 5205   2.512   0.588   6.875 -0.6442 -0.3703  1.8333
33295SOL    HW2 5206   2.419   0.682   6.802 -0.2062 -0.9847  0.4406
33296SOL     OW 5207   6.244  10.543   7.989 -0.3571 -0.5507  0.1123
33296SOL    HW1 5208   6.280  10.464   8.029  2.1286 -0.6604 -2.0393
33296SOL    HW2 5209   6.298  10.557   7.911 -3.6485  0.6215 -2.2304
33297SOL     OW 5210   7.534   9.148   1.948  0.4150  0.5288 -0.0562
33297SOL    HW1 5211   7.458   9.145   1.889  0.3058  0.3205  0.0917
33297SOL    HW2 5212   7.556   9.056   1.962 -0.1741  0.5349  1.0080
33298SOL     OW 5213   7.810   1.375   2.716 -0.0789 -0.3118 -0.5207
33298SOL    HW1 5214   7.883   1.317   2.695  0.5749 -0.1830  1.2370
33298SOL    HW2 5215   7.759   1.326   2.781 -0.9762  0.0338 -0.9516
33299SOL     OW 5216   7.993   7.549   2.820 -0.2824  0.0458 -0.0890
33299SOL    HW1 5217   7.924   7.508   2.872  0.9336 -0.6738  1.0108
33299SOL    HW2 5218   8.066   7.560   2.881  0.9567 -0.1859 -1.4703
33300SOL     OW 5219  10.908   6.291   7.758  0.3436 -0.2270 -0.5457
33300SOL    HW1 5220  10.983   6.349   7.747 -0.0103  0.2962 -0.2242
33300SOL    HW2 5221  10.876   6.309   7.847 -1.2277  0.8385 -1.2773
33301SOL     OW 5222   6.306   7.472   5.266 -0.7653 -0.0177 -0.4767
33301SOL    HW1 5223   6.400   7.459   5.278 -0.7103  0.1175 -0.7841
33301SOL    HW2 5224   6.274   7.387   5.236 -0.9540 -0.4645  0.8905
33302SOL     OW 5225   5.843  11.785   7.187 -0.3819  0.2907 -0.0587
33302SOL    HW1 5226   5.905  11.796   7.116  0.9260  0.1817  1.0234
33302SOL    HW2 5227   5.785  11.861   7.181 -0.4346  0.1742 -1.3330
33303SOL     OW 5228   0.710   7.535   2.476 -0.4240  0.3065  0.0022
33303SOL    HW1 5229   0.620   7.523   2.445 -0.5502  2.6650 -0.7683
33303SOL    HW2 5230   0.763   7.533   2.396  0.2867 -1.3512  0.4780
33304SOL     OW 5231   6.769   3.011   1.368  0.2574  0.4146 -0.2700
33304SOL    HW1 5232   6.786   3.059   1.287  0.5018  0.3949 -0.2315
33304SOL    HW2 5233   6.708   2.942   1.343  1.5735 -0.6081 -0.7951
33305SOL     OW 5234   2.118   2.757   0.360 -0.1297  0.0208  0.1386
33305SOL    HW1 5235   2.093   2.691   0.295 -0.7009  0.2827  0.0932
33305SOL    HW2 5236   2.040   2.811   0.372  0.3374  0.7100  0.1580
33306SOL     OW 5237   3.206   6.165  10.415 -0.9503  0.0696  0.1220
33306SOL    HW1 5238   3.189   6.175  10.321 -2.3273 -0.0647  0.3410
33306SOL    HW2 5239   3.134   6.111  10.447 -0.5906  0.2552  1.2967
33307SOL     OW 5240   9.772   5.357   8.186 -0.4097 -0.0500 -0.1239
33307SOL    HW1 5241   9.724   5.383   8.107 -0.8210 -0.9854 -0.1924
33307SOL    HW2 5242   9.803   5.440   8.223  1.5436  0.3336 -2.3458
33308SOL     OW 5243   8.803   1.965   3.400 -0.1469 -0.2305 -0.0481
33308SOL    HW1 5244   8.843   1.985   3.315 -0.0841 -1.8531 -0.4289
33308SOL    HW2 5245   8.716   2.006   3.395 -0.5257 -1.1260 -1.3005
33309SOL     OW 5246   4.285   0.643   8.070  0.3132 -0.0253  0.2994
33309SOL    HW1 5247   4.302   0.730   8.034 -1.2354 -0.1666 -0.9117
33309SOL    HW2 5248   4.328   0.583   8.008  1.2719 -0.1416  1.0623
33310SOL     OW 5249   9.638   5.114   8.797  0.6004  0.1923  0.3333
33310SOL    HW1 5250   9.727   5.118   8.761  0.1812 -0.7009 -0.8399
33310SOL    HW2 5251   9.650   5.075   8.884  1.5299  1.6729  0.9173
33311SOL     OW 5252   4.327   7.519   7.066 -0.1645  0.8469  0.1243
33311SOL    HW1 5253   4.376   7.505   6.985 -1.4300  0.3117 -0.5806
33311SOL    HW2 5254   4.278   7.600   7.051 -1.0031  0.3343  0.0281
33312SOL     OW 5255   6.193   3.742  10.216 -0.3864 -0.2986  0.3329
33312SOL    HW1 5256   6.190   3.687  10.137 -0.0484 -1.0899  0.8656
33312SOL    HW2 5257   6.274   3.792  10.206 -0.5148 -0.1502  0.0134
33313SOL     OW 5258   9.372   0.579   0.604 -0.4398 -0.2274  0.3652
33313SOL    HW1 5259   9.440   0.565   0.538 -0.8369 -0.3710 -0.0254
33313SOL    HW2 5260   9.379   0.672   0.626 -0.6522 -0.0536 -0.2812
33314SOL     OW 5261   2.580  10.380   8.489  0.6046  0.2472  0.1610
33314SOL    HW1 5262   2.550  10.417   8.572  1.3209 -1.4319  1.2359
33314SOL    HW2 5263   2.646  10.442   8.458 -1.5096  2.2699 -0.5720
33315SOL     OW 5264   7.818   3.669   0.205  0.2371 -0.2307  0.3416
33315SOL    HW1 5265   7.833   3.756   0.242 -0.7122  1.1101 -2.1835
33315SOL    HW2 5266   7.896   3.652   0.152  1.3887 -1.9262  2.4576
33316SOL     OW 5267   7.087   0.084   2.347 -0.2758  0.0254 -0.8960
33316SOL    HW1 5268   7.124  -0.004   2.338 -1.5639 -0.6772  0.2815
33316SOL    HW2 5269   7.125   0.117   2.429 -1.6814 -0.4624 -0.0007
33317SOL     OW 5270   5.133  10.595   4.708  0.0860 -0.3719 -0.0318
33317SOL    HW1 5271   5.061  10.546   4.668  1.3679 -0.6836 -2.1482
33317SOL    HW2 5272   5.209  10.574   4.653  1.5752  0.7652  1.4899
33318SOL     OW 5273   9.929   8.608   5.262  0.5257 -0.0344  0.0576
33318SOL    HW1 5274   9.906   8.696   5.293  0.3545 -0.4427  1.1442
33318SOL    HW2 5275   9.933   8.616   5.167  0.7032  1.1947  0.1515
33319SOL     OW 5276  11.689   6.826   1.276 -0.2742  0.5064  0.5662
33319SOL    HW1 5277  11.705   6.774   1.354  2.2624 -0.7851 -0.6929
33319SOL    HW2 5278  11.741   6.906   1.289  0.7375 -0.0317 -0.0674
33320SOL     OW 5279  11.731  10.669   7.673  0.0670 -0.2937  0.5065
33320SOL    HW1 5280  11.808  10.659   7.617  0.7342  0.0736  1.3362
33320SOL    HW2 5281  11.747  10.609   7.746 -1.4091 -1.7552 -0.3151
33321SOL     OW 5282  11.315   7.145  10.963 -0.3772  0.5505 -0.2924
33321SOL    HW1 5283  11.329   7.156  11.057  1.9626  2.8303 -0.7904
33321SOL    HW2 5284  11.389   7.091  10.934 -1.8544 -1.3791 -0.7039
33322SOL     OW 5285  10.226   2.882   2.175  0.2830 -0.2265  0.1284
33322SOL    HW1 5286  10.133   2.882   2.200 -0.0729 -0.6070 -1.1416
33322SOL    HW2 5287  10.273   2.895   2.258 -0.9574  2.1208  0.5502
33323SOL     OW 5288   4.568   9.850   4.374  0.1618  0.0920 -0.5717
33323SOL    HW1 5289   4.655   9.833   4.408  0.4650 -0.4654 -1.5707
33323SOL    HW2 5290   4.538   9.765   4.340 -0.7840  0.2634 -0.2016
33324SOL     OW 5291   5.101  11.291   3.891 -0.1253 -0.4151  0.7243
33324SOL    HW1 5292   5.185  11.249   3.907 -0.5406 -1.9767 -0.8888
33324SOL    HW2 5293   5.114  11.342   3.811 -1.1800 -2.2785 -0.7155
33325SOL     OW 5294   0.873   9.931   2.756  0.6118 -0.3913  0.0279
33325SOL    HW1 5295   0.872   9.972   2.670 -1.4938  0.2148  0.2810
33325SOL    HW2 5296   0.924   9.992   2.811  0.0622  0.3748 -0.2944
33326SOL     OW 5297   7.570   0.306   2.149  0.1482 -0.4738 -0.0918
33326SOL    HW1 5298   7.618   0.363   2.208 -0.7841 -0.2303  0.4428
33326SOL    HW2 5299   7.559   0.224   2.197  0.3046 -0.6400 -0.3350
33327SOL     OW 5300   4.778  10.847   5.591 -0.2499  0.4328  0.3684
33327SOL    HW1 5301   4.710  10.847   5.523 -0.4809 -2.8487  0.4045
33327SOL    HW2 5302   4.780  10.756   5.622  3.1725  0.7130  1.3983
33328SOL     OW 5303   6.303  10.823   0.369 -1.0774 -0.1863  0.1883
33328SOL    HW1 5304   6.298  10.917   0.383 -1.5694 -0.1387 -0.2670
33328SOL    HW2 5305   6.226  10.788   0.415 -0.3295 -0.4860  1.2578
33329SOL     OW 5306   5.713   2.572   5.623  0.6017 -0.2733 -0.5529
33329SOL    HW1 5307   5.747   2.562   5.712  1.0986  0.0298 -0.7038
33329SOL    HW2 5308   5.774   2.633   5.581  0.2554 -0.2587 -1.0393
33330SOL     OW 5309  10.602   6.075   7.870 -0.1970 -0.0407 -0.1180
33330SOL    HW1 5310  10.686   6.031   7.856 -0.8338 -1.2171 -0.3773
33330SOL    HW2 5311  10.556   6.067   7.786 -0.8149  0.0299  0.2070
33331SOL     OW 5312  11.327   5.966   8.431  0.2352 -0.1755 -0.4710
33331SOL    HW1 5313  11.241   5.972   8.389 -0.5089  2.0434  1.2005
33331SOL    HW2 5314  11.348   5.872   8.428 -1.2703 -0.5199 -2.7146
33332SOL     OW 5315  11.337   8.328   8.761  0.5856  0.3857  0.0252
33332SOL    HW1 5316  11.281   8.259   8.796  0.1896  0.7162  0.0583
33332SOL    HW2 5317  11.282   8.374   8.698  0.1460  1.9186  1.4518
33333SOL     OW 5318   3.329   0.937   2.186 -0.2971 -0.1416  0.3235
33333SOL    HW1 5319   3.239   0.952   2.160 -0.5244  0.0313  1.1664
33333SOL    HW2 5320   3.359   1.022   2.219  0.2354 -0.1478 -0.1384
33334SOL     OW 5321   4.949   7.779   3.599  0.2201 -0.4032 -0.4026
33334SOL    HW1 5322   4.978   7.688   3.591  0.7981 -0.5422  2.3194
33334SOL    HW2 5323   4.854   7.775   3.585  0.2716 -1.3624 -0.5704
33335SOL     OW 5324   5.905   8.250   2.690 -0.4087  0.1799  0.4562
33335SOL    HW1 5325   5.826   8.281   2.734 -0.5275 -0.2635  0.5540
33335SOL    HW2 5326   5.976   8.270   2.751 -0.4526  0.5114  0.4003
33336SOL     OW 5327   4.209  10.983   5.935 -0.3517  0.0558 -0.3498
33336SOL    HW1 5328   4.199  10.957   6.026 -1.5218  0.1739 -0.4376
33336SOL    HW2 5329   4.134  11.039   5.917  0.8333  1.5516 -0.8637
33337SOL     OW 5330   1.240  11.759   0.986 -0.2477  0.4387  0.4397
33337SOL    HW1 5331   1.221  11.836   1.040 -2.1334  0.0746  0.3623
33337SOL    HW2 5332   1.315  11.785   0.933 -2.3543  3.3074 -1.5083
33338SOL     OW 5333   0.932   6.081   1.611  0.1093 -0.1331  0.1087
33338SOL    HW1 5334   0.867   6.034   1.558 -0.4053  0.9224 -0.2117
33338SOL    HW2 5335   0.889   6.096   1.695  1.3570 -2.8989  1.3516
33339SOL     OW 5336   1.004   7.313   6.159  0.3451 -0.1043 -0.5556
33339SOL    HW1 5337   1.036   7.403   6.155 -1.8811  0.7652 -0.3098
33339SOL    HW2 5338   0.960   7.307   6.244  0.6567 -1.5021 -0.4770
33340SOL     OW 5339   3.823   8.577   8.449  0.4108 -0.3060  0.6706
33340SOL    HW1 5340   3.772   8.496   8.442  0.8772 -0.7917  2.4244
33340SOL    HW2 5341   3.771   8.641   8.401 -0.5792 -1.3632  0.2635
33341SOL     OW 5342  10.133  11.265  11.642  0.2295  0.1097 -0.0681
33341SOL    HW1 5343  10.198  11.216  11.693  0.5844  0.0460 -0.5767
33341SOL    HW2 5344  10.180  11.295  11.565 -0.4886 -0.3975 -0.7162
33342SOL     OW 5345   3.211   6.846  11.495  0.0110 -0.1215 -0.3263
33342SOL    HW1 5346   3.147   6.886  11.437  0.6971  0.3354 -0.7793
33342SOL    HW2 5347   3.195   6.752  11.489 -0.0400 -0.0643 -1.1165
33343SOL     OW 5348   2.707   9.023   4.255  0.0363 -0.0626 -0.1698
33343SOL    HW1 5349   2.762   9.091   4.294  2.4196 -1.5128 -0.7851
33343SOL    HW2 5350   2.718   8.948   4.313 -0.2975 -0.7644 -1.0032
33344SOL     OW 5351   8.206   4.045   5.870 -0.2604  0.0737  0.2160
33344SOL    HW1 5352   8.133   4.050   5.932 -0.5048  1.0472 -0.1250
33344SOL    HW2 5353   8.183   3.973   5.812 -1.8691  1.4292 -0.9594
33345SOL     OW 5354   8.701   8.661   5.982 -0.2923  0.1328  0.5074
33345SOL    HW1 5355   8.697   8.727   5.913  2.4219 -1.2538 -1.1263
33345SOL    HW2 5356   8.731   8.709   6.059 -1.2006  1.2917  0.1696
33346SOL     OW 5357  11.192   8.313   6.187 -0.0467  0.2552  0.8463
33346SOL    HW1 5358  11.106   8.283   6.217 -0.8304 -0.2143 -1.6490
33346SOL    HW2 5359  11.202   8.274   6.100  0.7760  3.7731 -0.7998
33347SOL     OW 5360   9.514  11.536   8.575  0.4561  0.3832  0.5253
33347SOL    HW1 5361   9.452  11.526   8.503  1.1054 -1.9983  0.2223
33347SOL    HW2 5362   9.533  11.447   8.603  3.0987  1.0653  1.1866
33348SOL     OW 5363   2.063  11.470   0.971 -0.2759 -0.0574 -0.0593
33348SOL    HW1 5364   2.123  11.396   0.958  1.3289  1.3999 -1.3884
33348SOL    HW2 5365   1.977  11.434   0.949  0.2967 -1.8094  0.3806
33349SOL     OW 5366   2.813   3.432  11.394  0.3223 -0.4491 -0.4631
33349SOL    HW1 5367   2.804   3.351  11.446  2.0875 -0.2642  0.1938
33349SOL    HW2 5368   2.734   3.482  11.415 -0.2155 -1.4665  0.0617
33350SOL     OW 5369  10.381   6.810   2.659  0.0510  0.2798  0.0546
33350SOL    HW1 5370  10.352   6.842   2.745 -1.2275  2.4276 -1.0830
33350SOL    HW2 5371  10.301   6.788   2.613  0.5725  0.8846 -1.1943
33351SOL     OW 5372   0.681   7.501   8.907  0.1078  0.1279  0.7291
33351SOL    HW1 5373   0.610   7.518   8.969 -0.9554 -0.7959 -0.1957
33351SOL    HW2 5374   0.761   7.520   8.957 -0.7402  0.1423  2.1407
33352SOL     OW 5375   6.953   9.916   8.808  0.2172  0.3650  0.6395
33352SOL    HW1 5376   7.022   9.857   8.836 -0.1152 -0.5469 -0.3565
33352SOL    HW2 5377   6.954   9.987   8.872 -0.2922 -1.3938  2.7248
33353SOL     OW 5378   9.948   4.298   5.412 -0.1556  0.2025  0.0645
33353SOL    HW1 5379   9.920   4.247   5.336  1.2418 -0.4559 -0.0359
33353SOL    HW2 5380   9.913   4.250   5.487 -0.5717  0.2248 -0.1126
33354SOL     OW 5381   7.623   4.366   2.949  0.3005  0.6724  0.1971
33354SOL    HW1 5382   7.712   4.330   2.950 -0.1599 -0.5327  0.4406
33354SOL    HW2 5383   7.577   4.314   2.882  0.0401  1.9799 -0.6732
33355SOL     OW 5384  11.752   5.166  10.882 -0.3785  0.3863 -0.0272
33355SOL    HW1 5385  11.765   5.072  10.872 -0.5454  0.3904 -0.2978
33355SOL    HW2 5386  11.825   5.206  10.833 -0.1942  0.3961  0.2559
33356SOL     OW 5387   8.101   8.146   4.112 -0.1268  0.2138 -0.5613
33356SOL    HW1 5388   8.085   8.167   4.020 -0.0959 -0.9030 -0.8451
33356SOL    HW2 5389   8.167   8.209   4.141 -1.5758  1.8845 -0.7184
33357SOL     OW 5390   2.846   0.032   0.766  0.1098  0.4390 -0.3202
33357SOL    HW1 5391   2.790   0.106   0.744  1.1593  1.3845  0.1001
33357SOL    HW2 5392   2.870   0.047   0.857  1.7369  0.5339 -0.7358
33358SOL     OW 5393  10.018  10.669   3.684  0.1520 -0.3217  0.0721
33358SOL    HW1 5394   9.997  10.762   3.696 -0.9215 -0.7833  2.4926
33358SOL    HW2 5395  10.051  10.642   3.770  1.3671 -1.9688 -0.8743
33359SOL     OW 5396   5.055   7.352   6.611  0.6646  0.5646 -0.5982
33359SOL    HW1 5397   5.133   7.336   6.559  0.9619 -0.5095  0.1632
33359SOL    HW2 5398   5.051   7.279   6.672 -2.4531 -1.0311 -2.4266
33360SOL     OW 5399   2.945   0.828   8.952  0.7356 -0.0892 -0.2498
33360SOL    HW1 5400   2.951   0.783   9.036 -1.2951  0.9677  0.5217
33360SOL    HW2 5401   2.957   0.758   8.887  1.8701 -0.9941  0.8685
33361SOL     OW 5402   5.511   1.746   5.380  0.0287  0.3793 -0.0894
33361SOL    HW1 5403   5.520   1.651   5.392 -1.8253  0.2732  0.9317
33361SOL    HW2 5404   5.600   1.777   5.364  0.6135 -1.5929 -1.0029
33362SOL     OW 5405   6.462   8.296   9.765 -0.4074 -0.4467 -0.0223
33362SOL    HW1 5406   6.553   8.278   9.790  0.7983  0.9634 -2.9157
33362SOL    HW2 5407   6.435   8.369   9.821  0.6731 -0.1561  0.1381
33363SOL     OW 5408   9.926  11.790  11.436  0.0963  0.5074  0.3312
33363SOL    HW1 5409   9.982  11.789  11.514  0.5204 -0.6477  0.0181
33363SOL    HW2 5410   9.944  11.875  11.396  0.8950  0.5547  0.7627
33364SOL     OW 5411   5.801  10.513  10.618  0.5335  0.0666 -0.1079
33364SOL    HW1 5412   5.859  10.513  10.694  1.3624  0.1496 -0.7217
33364SOL    HW2 5413   5.753  10.430  10.624  0.0038  0.4249  0.9179
33365SOL     OW 5414   1.993   0.578   0.781 -0.7253  0.3022  0.2464
33365SOL    HW1 5415   1.993   0.552   0.689 -4.2639  1.8528 -0.3584
33365SOL    HW2 5416   2.081   0.556   0.812  0.9623  0.6404 -3.7153
33366SOL     OW 5417  11.125   9.845   7.925  0.1481 -0.4687 -0.1632
33366SOL    HW1 5418  11.103   9.774   7.865 -0.2003 -0.0664 -0.5174
33366SOL    HW2 5419  11.210   9.876   7.894 -0.7559  0.8245 -1.5102
33367SOL     OW 5420   8.389   9.565   5.805 -0.1855 -0.2199 -0.9251
33367SOL    HW1 5421   8.449   9.540   5.734  1.5042 -1.2564  0.7827
33367SOL    HW2 5422   8.446   9.580   5.880 -2.0336 -0.9594  0.7076
33368SOL     OW 5423   2.735   5.514   7.214  0.2666 -0.0857 -0.1918
33368SOL    HW1 5424   2.666   5.513   7.148 -0.0521 -0.2119  0.1412
33368SOL    HW2 5425   2.776   5.428   7.207 -0.5860 -0.5736  0.6257
33369SOL     OW 5426   7.534   8.509  10.229 -0.7700 -0.4776 -0.3491
33369SOL    HW1 5427   7.516   8.602  10.239  0.2246 -0.1670 -1.1534
33369SOL    HW2 5428   7.449   8.470  10.208 -0.9851  0.4699 -1.3439
33370SOL     OW 5429   7.706   6.411   0.558 -0.1998  0.0137 -0.3513
33370SOL    HW1 5430   7.742   6.345   0.499 -2.0405 -2.2564  0.8915
33370SOL    HW2 5431   7.650   6.465   0.503  0.3262 -0.2443 -1.1576
33371SOL     OW 5432   8.239   8.874   0.168  0.2427  0.2151 -0.2016
33371SOL    HW1 5433   8.184   8.820   0.111 -1.0443  0.3256  0.9032
33371SOL    HW2 5434   8.264   8.817   0.240  1.2768  0.2849 -0.4862
33372SOL     OW 5435   2.083   3.809   6.574 -0.0483  0.1422 -0.4199
33372SOL    HW1 5436   2.067   3.838   6.484 -0.8136  1.4700  0.1161
33372SOL    HW2 5437   2.160   3.753   6.567  0.8003  1.3666 -1.7126
33373SOL     OW 5438   4.013   7.388   0.037 -0.2351  0.6376 -0.1239
33373SOL    HW1 5439   4.042   7.299   0.020  0.5940  1.2241 -1.9800
33373SOL    HW2 5440   4.060   7.414   0.116  2.5689  0.7134 -1.6798
33374SOL     OW 5441   2.320  10.246   9.702  0.2047 -0.2437 -0.2100
33374SOL    HW1 5442   2.389  10.307   9.729  0.3954 -0.3217 -0.5208
33374SOL    HW2 5443   2.259  10.245   9.776 -1.2864  2.4911 -1.2410
33375SOL     OW 5444   0.779   7.740   5.625  0.4209 -0.0090 -0.9540
33375SOL    HW1 5445   0.771   7.770   5.715  1.1639  0.3583 -1.0012
33375SOL    HW2 5446   0.695   7.760   5.584 -0.1910 -0.8705 -0.1479
33376SOL     OW 5447   9.717   6.689   7.330  0.1327 -0.0088  0.4228
33376SOL    HW1 5448   9.725   6.653   7.242  0.6418  1.0574  0.0066
33376SOL    HW2 5449   9.733   6.615   7.389 -0.7377 -0.8425 -0.3647
33377SOL     OW 5450   4.612   3.368   9.066  0.1583 -1.1619 -0.2196
33377SOL    HW1 5451   4.599   3.380   8.972 -0.2695 -0.5448 -0.0879
33377SOL    HW2 5452   4.679   3.433   9.089  0.1618 -1.2164 -0.0769
33378SOL     OW 5453   4.795   0.412   9.862  0.2486 -0.9536 -0.1406
33378SOL    HW1 5454   4.841   0.452   9.935  3.1928 -1.9223 -1.3298
33378SOL    HW2 5455   4.812   0.319   9.870 -0.3856 -1.2078 -1.4026
33379SOL     OW 5456  11.621   0.408   5.394 -0.1241  0.4973  0.3440
33379SOL    HW1 5457  11.662   0.420   5.308 -2.6260  0.1468 -0.9777
33379SOL    HW2 5458  11.542   0.461   5.390 -0.2191  0.5732  2.5175
33380SOL     OW 5459  10.623  11.207   8.337 -0.1447 -0.0317 -0.2841
33380SOL    HW1 5460  10.673  11.266   8.280  2.9561 -0.2678  1.9238
33380SOL    HW2 5461  10.646  11.120   8.307  1.1639 -0.1501  0.9646
33381SOL     OW 5462   1.026   2.053   2.051 -0.5935  0.0663  0.2754
33381SOL    HW1 5463   1.006   2.144   2.030 -1.5840 -0.3283 -0.6273
33381SOL    HW2 5464   0.953   2.024   2.106 -0.1362 -0.1055  0.7991
33382SOL     OW 5465  10.519   8.172   0.301 -0.2965 -0.2471 -1.0444
33382SOL    HW1 5466  10.554   8.212   0.222 -0.4210 -1.4384 -1.7343
33382SOL    HW2 5467  10.595   8.134   0.346 -0.3770 -0.6565 -1.2476
33383SOL     OW 5468   1.454   3.069   9.906 -0.2687  0.5405  0.0400
33383SOL    HW1 5469   1.371   3.113   9.925 -1.0165 -0.8197  0.0394
33383SOL    HW2 5470   1.510   3.087   9.981 -1.3885 -0.4577  1.1505
33384SOL     OW 5471   2.780   2.038   0.718 -0.4519  0.7933  0.0431
33384SOL    HW1 5472   2.866   2.070   0.745  0.1899 -0.7636 -0.0528
33384SOL    HW2 5473   2.798   1.984   0.641 -1.3302 -0.5417  0.7371
33385SOL     OW 5474   8.149   6.706   8.431  0.1833 -0.2865 -0.5724
33385SOL    HW1 5475   8.141   6.802   8.433 -0.3107 -0.3332  0.3796
33385SOL    HW2 5476   8.067   6.676   8.392 -0.9350 -0.4153  1.7151
33386SOL     OW 5477   6.799   9.841   0.416  0.1221 -0.0247 -0.1835
33386SOL    HW1 5478   6.757   9.778   0.475  1.8851 -0.2715  0.8946
33386SOL    HW2 5479   6.792   9.925   0.462  0.9137 -0.0952  0.0735
33387SOL     OW 5480   0.811   9.584  11.528 -0.0167 -0.0767 -0.6256
33387SOL    HW1 5481   0.856   9.656  11.484  2.3233 -1.1291 -0.1029
33387SOL    HW2 5482   0.721   9.614  11.537  0.6861  2.4269 -1.1849
33388SOL     OW 5483  11.552   8.644   7.100 -0.0556  0.0587  0.2428
33388SOL    HW1 5484  11.609   8.586   7.050 -0.0993  0.2677 -0.0524
33388SOL    HW2 5485  11.562   8.729   7.058 -1.9249 -0.2510 -0.9500
33389SOL     OW 5486   3.463  11.651   5.966 -0.1021  0.5539  0.1874
33389SOL    HW1 5487   3.535  11.632   6.027 -0.6938  1.9492  1.3788
33389SOL    HW2 5488   3.384  11.633   6.017 -0.6125  1.3266 -0.3095
33390SOL     OW 5489   8.620   3.031   0.097 -0.4822  0.6253 -0.1250
33390SOL    HW1 5490   8.675   3.057   0.171 -1.0957  1.4381  0.0673
33390SOL    HW2 5491   8.555   2.972   0.135  1.4274 -2.0556 -0.7121
33391SOL     OW 5492   0.379   3.778  11.439  0.0191  0.0558  0.2511
33391SOL    HW1 5493   0.467   3.770  11.478 -0.2475 -1.9613  0.5908
33391SOL    HW2 5494   0.389   3.742  11.351 -0.4248 -0.0795  0.2546
33392SOL     OW 5495  10.230   9.510  10.545 -0.1605  0.3779 -0.0646
33392SOL    HW1 5496  10.243   9.476  10.457  1.2555 -1.0345  0.6500
33392SOL    HW2 5497  10.289   9.460  10.600 -2.2748 -0.0282  2.0186
33393SOL     OW 5498   9.838  11.806  10.132 -0.0020 -0.4686  0.4622
33393SOL    HW1 5499   9.820  11.880  10.073  0.2266 -0.2794  0.6287
33393SOL    HW2 5500   9.871  11.847  10.212 -0.9108 -0.6747  0.9612
33394SOL     OW 5501   9.871   8.566   6.548  0.2578  0.1054 -0.2046
33394SOL    HW1 5502   9.893   8.479   6.582 -4.0890 -1.6422 -1.1875
33394SOL    HW2 5503   9.833   8.549   6.462 -1.1143  2.9100 -0.2665
33395SOL     OW 5504   3.250   9.647   3.812 -0.2914 -0.9360  0.5183
33395SOL    HW1 5505   3.271   9.555   3.795  0.7588 -0.2801 -2.1188
33395SOL    HW2 5506   3.172   9.664   3.761 -0.0645 -0.1746  0.4138
33396SOL     OW 5507   8.011   3.754   9.305 -0.2117  0.1958 -0.6290
33396SOL    HW1 5508   7.957   3.759   9.384 -0.8797 -0.0422 -1.0578
33396SOL    HW2 5509   7.964   3.693   9.248 -0.7163  1.7120 -1.9323
33397SOL     OW 5510   6.964   7.933   3.587  0.0091  0.5938  0.0232
33397SOL    HW1 5511   6.905   7.857   3.587  1.6741 -0.7473  0.8358
33397SOL    HW2 5512   7.046   7.901   3.551  0.8722  1.9234  0.7185
33398SOL     OW 5513   8.558   7.793   3.341  0.3718 -0.2943  0.8454
33398SOL    HW1 5514   8.560   7.748   3.425 -2.8910 -0.1724  1.0901
33398SOL    HW2 5515   8.530   7.726   3.278  0.3195  0.2200  0.3107
33399SOL     OW 5516   9.387   1.945   6.067 -0.0256 -0.0641  0.0932
33399SOL    HW1 5517   9.471   1.990   6.054  0.2372 -0.4157  0.5347
33399SOL    HW2 5518   9.393   1.909   6.155 -1.3309  1.3697  0.8202
33400SOL     OW 5519  11.697  10.148   9.014  0.3505 -0.3484 -0.2297
33400SOL    HW1 5520  11.709  10.182   9.103 -1.6466 -1.4360  0.5214
33400SOL    HW2 5521  11.736  10.061   9.016 -1.2069 -1.0621  0.1285
33401SOL     OW 5522  11.800  10.538   2.183  0.2379 -0.2718 -0.2074
33401SOL    HW1 5523  11.762  10.470   2.128  0.6685 -0.3130 -0.4635
33401SOL    HW2 5524  11.868  10.578   2.128  0.2528  0.1012  0.0778
33402SOL     OW 5525   0.465   5.329   4.517  0.6375 -0.0054 -0.5136
33402SOL    HW1 5526   0.454   5.285   4.433 -0.3042 -1.4888  0.3423
33402SOL    HW2 5527   0.401   5.287   4.575  0.9690  1.2632  0.8408
33403SOL     OW 5528   8.321   7.253   9.837  0.2789  0.0877  0.4853
33403SOL    HW1 5529   8.416   7.250   9.831  0.5021 -0.7796  2.9880
33403SOL    HW2 5530   8.293   7.164   9.818 -0.1560  0.5443 -1.1488
33404SOL     OW 5531   4.915  11.677  10.101  0.3016  0.6690  0.1821
33404SOL    HW1 5532   4.851  11.707  10.037 -1.2380  0.3755  1.5226
33404SOL    HW2 5533   4.863  11.645  10.175  1.9602 -0.7851  0.8099
33405SOL     OW 5534   0.026  11.170   1.168  0.2009 -0.3445  0.0701
33405SOL    HW1 5535   0.039  11.079   1.193 -0.6096 -0.1572  1.2527
33405SOL    HW2 5536   0.044  11.220   1.247 -1.6006  0.3320  0.1054
33406SOL     OW 5537   5.995   2.048  11.656  0.6295  0.4416  0.9019
33406SOL    HW1 5538   5.917   2.042  11.710  0.0321  0.4649  0.0631
33406SOL    HW2 5539   6.026   1.957  11.649  0.8044  0.4599  1.4059
33407SOL     OW 5540   4.880   0.232   4.474  0.1987 -0.3391  0.3643
33407SOL    HW1 5541   4.972   0.220   4.451  0.2047 -0.5194  0.4826
33407SOL    HW2 5542   4.872   0.326   4.488  0.1412 -0.1938 -0.5913
33408SOL     OW 5543   0.682   8.371   9.387  0.2100  0.7290 -0.1096
33408SOL    HW1 5544   0.755   8.404   9.334  2.5817 -1.7509  1.4112
33408SOL    HW2 5545   0.648   8.297   9.337  0.4905  0.2402  0.4195
33409SOL     OW 5546   1.006   1.103  11.172  0.4747  0.4789 -0.2043
33409SOL    HW1 5547   1.082   1.156  11.147  1.2595 -0.5380 -0.0165
33409SOL    HW2 5548   1.043   1.026  11.215 -0.6098 -0.6363 -1.1936
33410SOL     OW 5549   1.489   6.733   9.184 -0.2380  0.0207 -0.0153
33410SOL    HW1 5550   1.396   6.724   9.163 -0.4620 -0.1493  1.0060
33410SOL    HW2 5551   1.523   6.794   9.118 -1.0388 -0.0300 -0.4837
33411SOL     OW 5552   7.754   3.903   5.078  0.3340 -0.3916 -0.7711
33411SOL    HW1 5553   7.707   3.871   5.155  1.6883  1.3665  0.8813
33411SOL    HW2 5554   7.698   3.973   5.043  0.4074 -0.1794 -0.4709
33412SOL     OW 5555   8.061   3.998   9.582  0.3687 -0.0165  0.0023
33412SOL    HW1 5556   8.146   3.959   9.564 -0.4647 -3.7896  2.8449
33412SOL    HW2 5557   8.000   3.925   9.579 -2.7095  2.3961 -1.1192
33413SOL     OW 5558   8.948   4.971   1.420  0.2088 -0.2276 -0.4411
33413SOL    HW1 5559   8.866   5.001   1.379  1.4808  0.8281 -2.3825
33413SOL    HW2 5560   9.004   5.048   1.421  1.9119 -1.3862 -1.1514
33414SOL     OW 5561   6.193   2.927   8.013  0.1620 -0.1707 -0.3033
33414SOL    HW1 5562   6.253   2.886   8.075  1.0766 -1.4730 -1.9899
33414SOL    HW2 5563   6.242   3.001   7.977 -0.1432  0.2175  0.0711
33415SOL     OW 5564   2.937   6.596   7.520  0.2244 -0.0875 -0.7244
33415SOL    HW1 5565   2.884   6.527   7.559  1.0102 -1.1165 -1.4210
33415SOL    HW2 5566   2.874   6.662   7.492 -0.6719 -1.1545 -1.2919
33416SOL     OW 5567   1.299   6.699   6.351 -0.9016 -0.2432  0.3605
33416SOL    HW1 5568   1.230   6.750   6.309  0.1253 -0.3597 -1.5805
33416SOL    HW2 5569   1.346   6.657   6.278  0.2573 -1.3979  1.7085
33417SOL     OW 5570   7.198   3.211   1.985 -0.6225  0.3550  0.8827
33417SOL    HW1 5571   7.225   3.296   2.020  0.5704  1.2191 -1.8758
33417SOL    HW2 5572   7.117   3.228   1.939 -0.0908  0.1537 -0.1580
33418SOL     OW 5573   0.718   4.058   6.796 -0.3139  0.5637 -0.1236
33418SOL    HW1 5574   0.711   4.019   6.708  0.2267  0.8068 -0.2813
33418SOL    HW2 5575   0.811   4.081   6.804 -0.1645 -0.3133  0.8795
33419SOL     OW 5576   9.117   2.651  10.178 -0.2123  0.0910 -0.3459
33419SOL    HW1 5577   9.066   2.688  10.250  0.8108  0.2857  0.2871
33419SOL    HW2 5578   9.197   2.620  10.218 -0.4636 -1.6161 -1.0876
33420SOL     OW 5579   8.301   0.830  10.994 -0.4760  0.5923 -0.1162
33420SOL    HW1 5580   8.263   0.857  10.911  0.1712  0.7359 -0.3727
33420SOL    HW2 5581   8.228   0.795  11.044 -1.0288  1.2922 -0.4192
33421SOL     OW 5582  10.511   8.696   1.880  0.0473 -0.6699 -0.0977
33421SOL    HW1 5583  10.550   8.767   1.931  0.3153 -0.5575 -0.4639
33421SOL    HW2 5584  10.437   8.667   1.934  0.7607 -1.0395  0.7149
33422SOL     OW 5585   5.110   5.552   5.536 -0.4291 -0.2815 -0.2312
33422SOL    HW1 5586   5.147   5.504   5.461  2.6012  1.3476  0.0606
33422SOL    HW2 5587   5.088   5.638   5.501  2.6474  1.1180  0.9403
33423SOL     OW 5588   2.074   9.071   2.258  0.2529  0.3245 -0.0415
33423SOL    HW1 5589   2.140   9.099   2.194  0.0962 -0.1194 -0.4066
33423SOL    HW2 5590   2.112   8.995   2.300  0.4295  0.7227  0.5279
33424SOL     OW 5591   2.396   6.638   1.392 -0.3425  0.0214  0.0449
33424SOL    HW1 5592   2.327   6.665   1.452  0.0696  1.0893  0.0475
33424SOL    HW2 5593   2.465   6.703   1.403  0.0749 -0.2285 -0.9973
33425SOL     OW 5594   2.157   0.667   0.173 -0.3873 -0.8443 -0.1018
33425SOL    HW1 5595   2.097   0.593   0.170 -0.9419 -0.3906 -0.3098
33425SOL    HW2 5596   2.119   0.727   0.237 -1.0615  0.1992 -1.4323
33426SOL     OW 5597   6.025   9.890   0.413 -0.3748 -0.4575  0.6964
33426SOL    HW1 5598   6.063   9.969   0.451 -0.0046 -0.3047  0.0231
33426SOL    HW2 5599   6.033   9.824   0.482  1.1848 -0.4535  0.5537
33427SOL     OW 5600   9.184   5.243   0.976 -0.2852 -0.4206  0.7007
33427SOL    HW1 5601   9.094   5.269   0.956 -0.2017 -0.3727  0.3800
33427SOL    HW2 5602   9.190   5.151   0.948  0.3912  0.1949 -1.3870
33428SOL     OW 5603  10.256   2.322   2.449  0.9532 -0.4485  0.3848
33428SOL    HW1 5604  10.169   2.359   2.437  0.2681 -0.4439  4.2153
33428SOL    HW2 5605  10.251   2.234   2.412  0.1989  0.4054 -1.7189
33429SOL     OW 5606   5.294  11.254  10.756 -0.7543 -0.0114 -0.2453
33429SOL    HW1 5607   5.313  11.318  10.687 -0.7513  0.6444  0.3546
33429SOL    HW2 5608   5.342  11.286  10.832  0.7357 -1.6935 -0.4038
33430SOL     OW 5609   9.169  10.105   3.482 -0.3288  0.0553  0.6248
33430SOL    HW1 5610   9.119  10.085   3.403 -1.3058  0.0338  1.2411
33430SOL    HW2 5611   9.203  10.193   3.467  1.7424 -0.9128 -0.9426
33431SOL     OW 5612   3.697   0.386   2.032 -0.6233  0.3957  0.2435
33431SOL    HW1 5613   3.775   0.441   2.023  0.1945 -0.8538 -0.7354
33431SOL    HW2 5614   3.727   0.308   2.078 -0.9696 -0.6270 -1.1648
33432SOL     OW 5615   3.294   1.829   7.126 -0.2760  0.0726  0.3418
33432SOL    HW1 5616   3.210   1.875   7.125 -0.6705 -0.6212 -1.4740
33432SOL    HW2 5617   3.351   1.883   7.072  0.3843  0.3665  1.2991
33433SOL     OW 5618   2.381   3.102   0.792  0.5028  0.4832  0.0922
33433SOL    HW1 5619   2.382   3.070   0.702  0.0947  1.2620 -0.1950
33433SOL    HW2 5620   2.310   3.054   0.834 -0.9130  1.8367 -0.6616
33434SOL     OW 5621   7.533   4.852  10.350  0.2741  0.2278  0.4563
33434SOL    HW1 5622   7.574   4.902  10.420  2.2821  0.8284 -1.0630
33434SOL    HW2 5623   7.471   4.912  10.310  0.0262  0.2891  0.9290
33435SOL     OW 5624  11.808   6.740   1.766  0.0186  0.0931 -0.3429
33435SOL    HW1 5625  11.742   6.783   1.821  0.1977 -0.3844  0.2549
33435SOL    HW2 5626  11.848   6.812   1.717 -0.3296  0.4952 -0.0450
33436SOL     OW 5627   4.331  11.670   2.264 -0.6342 -0.0388 -0.1821
33436SOL    HW1 5628   4.413  11.655   2.311 -0.4819  1.4591  0.0731
33436SOL    HW2 5629   4.264  11.677   2.332 -0.7096  0.2833 -0.2842
33437SOL     OW 5630   9.107   1.812   6.538 -0.2738  0.0172  0.1927
33437SOL    HW1 5631   9.194   1.772   6.548 -0.0401  0.2250 -0.8921
33437SOL    HW2 5632   9.049   1.739   6.516  0.0817  0.1822 -1.4034
33438SOL     OW 5633   0.301   1.368  10.892 -0.3811  0.2865  0.0456
33438SOL    HW1 5634   0.231   1.391  10.832  0.1009  2.7173  0.3135
33438SOL    HW2 5635   0.257   1.348  10.975 -0.9024 -1.1398 -0.5451
33439SOL     OW 5636   9.122   9.609   6.172  0.3183  0.6971 -0.4907
33439SOL    HW1 5637   9.142   9.637   6.261 -0.1379  0.9229 -0.4597
33439SOL    HW2 5638   9.155   9.679   6.117 -0.7253  1.2532 -0.4187
33440SOL     OW 5639   1.948  11.532  11.805  0.0402 -0.4176 -0.7030
33440SOL    HW1 5640   1.993  11.449  11.789 -1.7046 -1.2178 -1.7809
33440SOL    HW2 5641   1.885  11.539  11.733 -1.6915  0.5439  0.8408
33441SOL     OW 5642   3.031   5.512   4.714  0.4109 -0.0705  0.2113
33441SOL    HW1 5643   3.058   5.603   4.726  1.3885 -0.4002  0.6015
33441SOL    HW2 5644   3.073   5.464   4.786 -0.4071 -0.7718  0.2424
33442SOL     OW 5645   8.744   0.150  10.956 -0.0154 -0.1751 -0.0335
33442SOL    HW1 5646   8.669   0.112  10.911 -1.0496 -0.5856  1.9513
33442SOL    HW2 5647   8.807   0.078  10.963 -0.2747 -0.3863  0.1155
33443SOL     OW 5648   7.436   5.341   0.428 -0.3884 -0.0101 -0.5110
33443SOL    HW1 5649   7.509   5.278   0.426  0.2625  0.7309 -0.9174
33443SOL    HW2 5650   7.360   5.290   0.401  0.6683 -0.0136 -4.0206
33444SOL     OW 5651   9.546   6.154   7.636  0.3415  0.3852  0.0722
33444SOL    HW1 5652   9.453   6.132   7.628  0.7805 -1.1289 -1.4779
33444SOL    HW2 5653   9.548   6.222   7.703 -1.7831 -0.1657  0.7999
33445SOL     OW 5654   2.607   7.069   4.312 -0.3109  0.0631 -0.4251
33445SOL    HW1 5655   2.564   7.146   4.274 -1.1930 -0.2843 -0.1549
33445SOL    HW2 5656   2.688   7.103   4.349 -0.6301  0.8414 -0.4239
33446SOL     OW 5657   5.963   2.898   3.189 -0.5295  0.0814  0.1553
33446SOL    HW1 5658   5.962   2.976   3.245 -1.3042  0.3435 -0.2108
33446SOL    HW2 5659   5.897   2.916   3.122 -2.2502 -1.7537  1.2722
33447SOL     OW 5660   8.961  11.208   4.287  0.0572  0.0483  0.0100
33447SOL    HW1 5661   8.897  11.165   4.344 -0.6729 -2.0469 -2.2123
33447SOL    HW2 5662   8.913  11.282   4.248 -0.3930 -0.2975 -0.1016
33448SOL     OW 5663  11.122   4.892   3.723 -0.2201  0.6333  0.2492
33448SOL    HW1 5664  11.151   4.926   3.638  1.9469  0.4124  0.8364
33448SOL    HW2 5665  11.049   4.834   3.701 -0.0324  0.9538 -1.4079
33449SOL     OW 5666  10.845   1.419   3.223 -0.1655  0.2864  0.1542
33449SOL    HW1 5667  10.761   1.374   3.230 -0.3382  0.3892 -1.1428
33449SOL    HW2 5668  10.822   1.509   3.197  0.3317  0.3691 -0.0050
33450SOL     OW 5669   9.279  11.531   5.474 -0.1346 -0.2247  0.0153
33450SOL    HW1 5670   9.310  11.475   5.402  1.7766  0.9188 -0.1360
33450SOL    HW2 5671   9.351  11.593   5.488 -2.1302  2.1992  0.1819
33451SOL     OW 5672   2.561   8.557   8.792 -0.1479 -0.2951  0.5919
33451SOL    HW1 5673   2.506   8.479   8.787 -0.1319 -0.3737  1.5201
33451SOL    HW2 5674   2.591   8.560   8.883  1.8021 -0.5345  0.0025
33452SOL     OW 5675  10.481   5.067   8.463 -0.4737  0.0491  0.4202
33452SOL    HW1 5676  10.514   4.980   8.484  1.1263  0.9937  2.2158
33452SOL    HW2 5677  10.449   5.060   8.373 -1.2429 -2.5766  0.8255
33453SOL     OW 5678   7.783   1.641   8.092 -0.1096 -0.4920  0.3244
33453SOL    HW1 5679   7.754   1.552   8.075  1.1204 -0.8304 -0.0802
33453SOL    HW2 5680   7.814   1.640   8.183  1.5525 -0.9432 -0.2290
33454SOL     OW 5681  10.736   2.648   0.429 -0.2407  0.0198 -0.1869
33454SOL    HW1 5682  10.800   2.686   0.369 -2.0545  1.4939 -1.2824
33454SOL    HW2 5683  10.693   2.579   0.379  0.0023 -0.5067  0.3135
33455SOL     OW 5684   2.616   7.342   6.352 -0.9559 -0.0163 -0.0505
33455SOL    HW1 5685   2.627   7.335   6.447 -0.6893 -0.4608 -0.1104
33455SOL    HW2 5686   2.647   7.258   6.318  1.1381  0.9584 -0.7112
33456SOL     OW 5687   1.542   0.932   7.262  0.2203  0.5395  0.3580
33456SOL    HW1 5688   1.515   1.017   7.227 -0.1505  0.4647  0.4551
33456SOL    HW2 5689   1.490   0.868   7.212 -0.4640  0.4427  1.1792
33457SOL     OW 5690   9.378   6.565   8.006 -0.2574  0.1176  0.1085
33457SOL    HW1 5691   9.329   6.518   8.074 -1.0992  0.6140 -0.1314
33457SOL    HW2 5692   9.352   6.656   8.018  1.8221  0.6417  0.9560
33458SOL     OW 5693   2.911   5.500   6.692  0.0531 -0.7253 -0.2237
33458SOL    HW1 5694   2.873   5.584   6.665 -1.7729 -1.3859  0.1430
33458SOL    HW2 5695   2.921   5.451   6.611  0.4362 -0.4424 -0.3534
33459SOL     OW 5696   1.756   6.239   7.349 -0.1665  0.6005 -0.0015
33459SOL    HW1 5697   1.808   6.292   7.411 -1.6142  1.8409  0.1999
33459SOL    HW2 5698   1.669   6.235   7.389 -0.5411 -0.4504 -0.9075
33460SOL     OW 5699   7.798   0.965   0.614  0.0299 -0.5939  0.3952
33460SOL    HW1 5700   7.840   1.044   0.581 -1.6912  0.6554  1.0452
33460SOL    HW2 5701   7.856   0.933   0.682  0.9573 -0.1382 -0.1648
33461SOL     OW 5702   5.188   7.983   8.226 -0.1739  0.4404  0.6291
33461SOL    HW1 5703   5.191   7.890   8.248 -0.3042  0.2935  0.0392
33461SOL    HW2 5704   5.095   8.005   8.221 -0.2591  1.4119  4.0073
33462SOL     OW 5705   5.899   1.967   1.073 -0.3615  0.1753 -0.5118
33462SOL    HW1 5706   5.835   1.957   1.143 -0.6940  1.0249 -0.6923
33462SOL    HW2 5707   5.968   2.022   1.110 -0.7013  0.9124 -0.9486
33463SOL     OW 5708   0.285  11.637   5.882 -0.0125  0.3284  0.3188
33463SOL    HW1 5709   0.199  11.594   5.882  0.2812 -0.2775  1.0930
33463SOL    HW2 5710   0.267  11.727   5.908 -0.6932  0.8419 -1.7285
33464SOL     OW 5711  10.359   4.533   1.406  0.0551  0.1875 -0.6126
33464SOL    HW1 5712  10.333   4.572   1.490 -1.1689  0.6746 -1.1854
33464SOL    HW2 5713  10.279   4.537   1.353  0.9294  0.2633 -1.9463
33465SOL     OW 5714   3.182  10.872   0.805 -0.3128 -0.2960  0.6850
33465SOL    HW1 5715   3.265  10.875   0.758 -1.4842 -1.5099 -1.6377
33465SOL    HW2 5716   3.205  10.844   0.894  1.8570  0.6770  0.4894
33466SOL     OW 5717   0.971  10.858   5.370  0.2887  0.4194 -0.4789
33466SOL    HW1 5718   0.881  10.835   5.395  0.6869 -1.1202 -0.3731
33466SOL    HW2 5719   1.006  10.905   5.445 -0.8302  2.2393 -1.0297
33467SOL     OW 5720  10.748   2.955  11.503 -0.0645  1.2366 -0.0134
33467SOL    HW1 5721  10.682   3.018  11.473 -1.6329 -1.0610 -1.6617
33467SOL    HW2 5722  10.727   2.874  11.458  3.5693  0.1879 -0.1677
33468SOL     OW 5723   6.940   3.608   3.821 -0.4665  0.4471  0.6774
33468SOL    HW1 5724   6.907   3.674   3.760  1.7042 -1.3204 -2.7183
33468SOL    HW2 5725   6.880   3.534   3.810 -0.9090  0.6155  1.8668
33469SOL     OW 5726   7.469   5.596   0.481  1.1596  0.4993 -0.2008
33469SOL    HW1 5727   7.472   5.610   0.576  0.8901  0.1784 -0.1441
33469SOL    HW2 5728   7.471   5.501   0.470  1.6155  0.5436 -0.5378
33470SOL     OW 5729   9.944   1.305   2.850 -0.2603 -0.6526  0.0007
33470SOL    HW1 5730   9.925   1.396   2.826  0.6627 -0.7820 -1.3194
33470SOL    HW2 5731   9.961   1.308   2.944 -0.8652  0.4257  0.0907
33471SOL     OW 5732  11.821   3.829   9.879  0.0486  0.4711 -0.0016
33471SOL    HW1 5733  11.844   3.881   9.956 -0.3875  1.0490 -0.2616
33471SOL    HW2 5734  11.895   3.769   9.869 -0.5700 -0.6985  1.7901
33472SOL     OW 5735  10.058   2.274   1.211 -0.1522 -0.4519  0.3441
33472SOL    HW1 5736  10.132   2.213   1.205 -0.4873 -0.7815 -0.5827
33472SOL    HW2 5737   9.985   2.227   1.171 -0.4924  0.4444 -0.1126
33473SOL     OW 5738   6.282   5.468   1.700 -0.1750  0.0013 -0.6195
33473SOL    HW1 5739   6.347   5.501   1.762  0.4757  0.6995 -1.6360
33473SOL    HW2 5740   6.332   5.416   1.637 -0.7959 -0.5556 -0.6696
33474SOL     OW 5741   7.646  10.430   6.599  0.3790 -0.4001 -0.0808
33474SOL    HW1 5742   7.681  10.511   6.560  1.1822 -0.2136  0.9869
33474SOL    HW2 5743   7.663  10.363   6.532 -0.6204  0.3540 -1.1251
33475SOL     OW 5744  11.265  10.058   7.700  0.3596 -0.4475  0.0272
33475SOL    HW1 5745  11.311   9.995   7.755 -0.0340  0.4019  1.3576
33475SOL    HW2 5746  11.334  10.102   7.651  0.7458 -0.9595  0.0976
33476SOL     OW 5747   0.568   5.148   9.628  0.1793  0.4074 -0.0514
33476SOL    HW1 5748   0.580   5.136   9.533  0.4926  0.1361  0.0200
33476SOL    HW2 5749   0.479   5.118   9.645  0.0809  0.5688 -0.2814
33477SOL     OW 5750   7.459   1.912   6.284  0.0357 -0.1419 -0.1643
33477SOL    HW1 5751   7.522   1.881   6.349 -0.2686 -0.6471 -0.1041
33477SOL    HW2 5752   7.485   2.003   6.267  1.1118 -0.5076 -0.5445
33478SOL     OW 5753   7.419   2.214  10.678 -0.4940 -0.0074 -0.6260
33478SOL    HW1 5754   7.366   2.141  10.646  0.6272 -1.0689 -0.1414
33478SOL    HW2 5755   7.497   2.212  10.623 -0.2424  0.5235 -0.2895
33479SOL     OW 5756   1.667   1.820   0.619 -0.2627  0.1349  0.1046
33479SOL    HW1 5757   1.576   1.848   0.631 -1.1480 -1.2784 -2.6015
33479SOL    HW2 5758   1.663   1.725   0.620  1.2832  0.0437  0.3240
33480SOL     OW 5759  10.862   3.610   8.586 -0.1370  0.0861  0.1524
33480SOL    HW1 5760  10.865   3.522   8.623  1.4467 -0.7020 -1.6352
33480SOL    HW2 5761  10.774   3.641   8.604 -0.1781 -1.1466  2.3679
33481SOL     OW 5762   9.253   8.728  11.393  0.3049  0.1136 -0.8733
33481SOL    HW1 5763   9.300   8.651  11.360 -0.8776 -1.3813  0.7694
33481SOL    HW2 5764   9.162   8.715  11.365  0.3102  1.6431 -1.7394
33482SOL     OW 5765  10.959   5.524   7.910 -1.0250  0.3782  0.6300
33482SOL    HW1 5766  10.881   5.535   7.855 -0.6083  0.7357  0.1063
33482SOL    HW2 5767  10.934   5.563   7.994 -1.3956  0.5306  0.4522
33483SOL     OW 5768   6.842   6.711   7.570  0.1691 -0.5904 -0.1883
33483SOL    HW1 5769   6.837   6.738   7.662 -0.6763  0.3372 -0.4845
33483SOL    HW2 5770   6.808   6.786   7.521  0.9380 -0.9323 -1.2931
33484SOL     OW 5771   2.144   5.076   9.214 -0.5374 -0.0593 -0.0748
33484SOL    HW1 5772   2.100   4.991   9.212 -0.2807 -0.1928 -0.1564
33484SOL    HW2 5773   2.215   5.065   9.277  0.7278 -0.5306 -1.5105
33485SOL     OW 5774   0.781   7.816   1.967  0.3980 -0.1556  0.1033
33485SOL    HW1 5775   0.725   7.741   1.985 -0.6723  0.8865  1.3609
33485SOL    HW2 5776   0.757   7.844   1.879 -1.6348  0.6821  0.8588
33486SOL     OW 5777   6.034   8.106   2.133 -0.0150 -0.3800 -0.0405
33486SOL    HW1 5778   5.955   8.135   2.087  1.4841  0.5398 -2.2257
33486SOL    HW2 5779   6.064   8.184   2.179 -0.0704 -0.5800  0.3382
33487SOL     OW 5780   6.326   5.595  10.398  0.6399 -0.7627 -0.6968
33487SOL    HW1 5781   6.344   5.577  10.490 -1.5126 -1.9707 -0.4670
33487SOL    HW2 5782   6.354   5.516  10.352 -0.9177 -1.3343 -0.7080
33488SOL     OW 5783   1.999   7.493   0.081 -0.2011  0.1367  0.3627
33488SOL    HW1 5784   1.938   7.442   0.134 -0.3521  0.6576  0.6988
33488SOL    HW2 5785   2.075   7.437   0.071 -0.1212  0.0781  1.2390
33489SOL     OW 5786   7.163   9.753  10.586  0.2046 -0.5665 -0.1419
33489SOL    HW1 5787   7.244   9.777  10.540 -0.1574  0.0076 -0.5004
33489SOL    HW2 5788   7.107   9.719  10.516 -0.1196 -0.2877 -0.0170
33490SOL     OW 5789   3.620   0.899   7.882 -0.4345 -0.1445  0.0232
33490SOL    HW1 5790   3.527   0.910   7.904 -0.2866  0.5543  0.3278
33490SOL    HW2 5791   3.620   0.848   7.801 -1.0159 -2.1184  1.1999
33491SOL     OW 5792   8.664   4.445   1.067  0.0493 -0.5481  0.2237
33491SOL    HW1 5793   8.734   4.508   1.051 -0.4496  0.0324  0.2600
33491SOL    HW2 5794   8.709   4.362   1.082  0.6209 -0.6905 -2.0180
33492SOL     OW 5795   7.647   3.272  10.546 -0.0879 -0.7376 -0.0110
33492SOL    HW1 5796   7.573   3.262  10.607  0.1601 -0.5139  0.3299
33492SOL    HW2 5797   7.612   3.244  10.461 -0.8723  0.2959 -0.0529
33493SOL     OW 5798   4.944   0.326   0.273  0.1799  0.4287  0.1607
33493SOL    HW1 5799   4.976   0.255   0.329 -2.6089 -0.4866  0.7971
33493SOL    HW2 5800   4.950   0.290   0.184  2.4140  0.9719  0.0478
33494SOL     OW 5801   2.425   1.328   9.686 -0.1664  0.6515  0.2628
33494SOL    HW1 5802   2.369   1.389   9.638  0.9831  1.6191  0.1132
33494SOL    HW2 5803   2.457   1.267   9.620  0.3406  1.1640  0.0281
33495SOL     OW 5804  11.415   1.342   7.400  0.0345 -0.2198 -0.2042
33495SOL    HW1 5805  11.413   1.433   7.372  1.1247 -0.3459 -0.7140
33495SOL    HW2 5806  11.469   1.297   7.335 -0.5236 -1.2434  0.0094
33496SOL     OW 5807   6.973   9.730   6.877  0.0176 -0.1213 -0.0006
33496SOL    HW1 5808   6.977   9.674   6.799 -0.2047  1.0483 -0.8803
33496SOL    HW2 5809   6.920   9.805   6.850  0.3251  0.5281  1.1403
33497SOL     OW 5810   2.607   5.207  11.802 -0.0236 -0.0633  0.7251
33497SOL    HW1 5811   2.574   5.272  11.863  0.1664  0.1925  0.5545
33497SOL    HW2 5812   2.698   5.192  11.829 -0.3638 -1.0216  1.4115
33498SOL     OW 5813   6.730   2.384  10.514 -0.2491 -0.3214 -0.2855
33498SOL    HW1 5814   6.790   2.412  10.583  0.1871 -1.3142 -0.2448
33498SOL    HW2 5815   6.656   2.445  10.520 -0.5182 -0.7747  1.4540
33499SOL     OW 5816   6.305  10.564   5.780 -0.0761 -0.9992  0.5554
33499SOL    HW1 5817   6.390  10.549   5.739  0.5005  0.1798  1.2684
33499SOL    HW2 5818   6.249  10.495   5.744  0.8464 -1.0596 -0.8609
33500SOL     OW 5819   9.128   2.706   2.863  0.6699 -0.4984 -0.0551
33500SOL    HW1 5820   9.190   2.711   2.791 -0.0540 -2.3119 -0.8604
33500SOL    HW2 5821   9.043   2.723   2.823  0.3905 -0.2640  0.6143
33501SOL     OW 5822   1.818   0.732   7.286 -0.4187 -0.0590  0.2101
33501SOL    HW1 5823   1.895   0.742   7.230 -1.0065  1.3958 -0.3969
33501SOL    HW2 5824   1.842   0.665   7.349  2.1681  1.8265  1.4121
33502SOL     OW 5825   0.767   0.813  11.039  0.1922  0.2486  0.2345
33502SOL    HW1 5826   0.850   0.777  11.008  0.5755  0.4981  0.9352
33502SOL    HW2 5827   0.764   0.791  11.132  0.0010  1.1869  0.4712
33503SOL     OW 5828   4.127   6.627   4.335 -0.3708  0.1415  0.1091
33503SOL    HW1 5829   4.063   6.580   4.281 -0.6561 -1.8761  2.0895
33503SOL    HW2 5830   4.211   6.586   4.313  0.1676  2.0187 -1.6415
33504SOL     OW 5831   5.734   9.982  11.750 -0.3043 -0.1770  0.0710
33504SOL    HW1 5832   5.678  10.033  11.810 -0.3205  0.4130 -0.4359
33504SOL    HW2 5833   5.704  10.007  11.663  0.5209 -0.1119 -0.2030
33505SOL     OW 5834  11.589  10.749  11.251  0.0259  0.2183  0.2208
33505SOL    HW1 5835  11.668  10.721  11.203 -0.9650 -1.1807 -0.6773
33505SOL    HW2 5836  11.575  10.840  11.225  1.1090  0.3552  0.0791
33506SOL     OW 5837   3.640   8.611   2.079 -0.2375 -0.3484 -0.8516
33506SOL    HW1 5838   3.647   8.642   1.989 -0.3898 -0.5102 -0.9207
33506SOL    HW2 5839   3.582   8.534   2.074  0.7477 -1.1156 -0.7944
33507SOL     OW 5840   7.816  10.987   2.120  0.1351  0.6709 -0.3706
33507SOL    HW1 5841   7.860  10.923   2.064  1.0535  1.4693 -0.5922
33507SOL    HW2 5842   7.880  11.057   2.131 -0.6509  1.3037  0.3095
33508SOL     OW 5843   6.568   5.005   2.390  0.0330 -0.4974  0.3500
33508SOL    HW1 5844   6.524   5.078   2.433  0.7994 -0.0192  0.3350
33508SOL    HW2 5845   6.648   4.992   2.440  0.2867 -0.8065 -0.1265
33509SOL     OW 5846   0.572   1.057   7.883 -0.5987 -0.0365  0.3159
33509SOL    HW1 5847   0.576   0.963   7.863 -1.6516  0.1065 -0.6629
33509SOL    HW2 5848   0.523   1.062   7.965 -0.9807 -0.3248  0.1100
33510SOL     OW 5849   4.164   4.554   9.127 -0.7488 -0.1000 -0.1484
33510SOL    HW1 5850   4.230   4.493   9.094 -2.0764 -0.2926 -2.7255
33510SOL    HW2 5851   4.125   4.509   9.202  1.6029 -0.1961  1.1025
33511SOL     OW 5852  10.106  10.682  10.049  0.7493 -0.1743  0.5393
33511SOL    HW1 5853  10.087  10.649   9.961 -0.2582 -0.4280  0.8357
33511SOL    HW2 5854  10.109  10.777  10.040  1.2122 -0.2301  0.1262
33512SOL     OW 5855   8.503   7.056   7.598  0.2638 -0.0790 -0.6131
33512SOL    HW1 5856   8.500   7.100   7.683 -0.2068 -0.5512 -0.3846
33512SOL    HW2 5857   8.594   7.064   7.571  0.1555  1.2386 -0.6818
33513SOL     OW 5858   2.478  10.163   1.569  0.1517 -0.1309 -0.0298
33513SOL    HW1 5859   2.561  10.169   1.521  0.3773 -0.6237  0.2938
33513SOL    HW2 5860   2.446  10.075   1.552  0.2576 -0.3282  0.7591
33514SOL     OW 5861   0.383   0.034   4.470 -0.4242  0.0285 -0.3260
33514SOL    HW1 5862   0.365  -0.001   4.383  0.4204 -1.3879  0.0366
33514SOL    HW2 5863   0.456  -0.019   4.503 -0.8681  0.3831  1.3393
33515SOL     OW 5864  11.809   4.085   6.628 -0.0637 -0.1376 -0.2486
33515SOL    HW1 5865  11.777   4.036   6.704 -1.8572  0.1382 -0.7650
33515SOL    HW2 5866  11.793   4.027   6.553  0.3542  0.1506 -0.5642
33516SOL     OW 5867   2.480   4.877   7.871 -0.5637 -0.1215 -0.2728
33516SOL    HW1 5868   2.398   4.906   7.832 -0.0847  1.7061 -0.0150
33516SOL    HW2 5869   2.548   4.915   7.815  0.1077 -0.7587  0.0980
33517SOL     OW 5870   4.360   6.693   5.287 -0.1755  0.1812 -0.7344
33517SOL    HW1 5871   4.406   6.613   5.315  2.5514  2.2312  1.2837
33517SOL    HW2 5872   4.282   6.662   5.242  1.3605 -3.6037 -1.1488
33518SOL     OW 5873  11.732   4.819   7.951 -0.3114  0.5667 -0.3770
33518SOL    HW1 5874  11.788   4.866   7.889 -1.5746 -0.1561 -2.1244
33518SOL    HW2 5875  11.783   4.742   7.975  1.0979  1.8961  1.2680
33519SOL     OW 5876   7.919   0.772   3.537  0.1395 -0.6088  0.7076
33519SOL    HW1 5877   7.904   0.813   3.452 -0.9585 -1.1469  0.6238
33519SOL    HW2 5878   7.880   0.833   3.600 -0.6876 -1.0621  0.6557
33520SOL     OW 5879   3.830   9.298  10.313 -0.1862  0.3808 -0.0328
33520SOL    HW1 5880   3.872   9.297  10.399 -0.2280 -1.0210 -0.0120
33520SOL    HW2 5881   3.867   9.222  10.267  0.2597  1.4327 -1.4757
33521SOL     OW 5882   1.655  10.982   0.626  0.4128  0.0941 -0.1803
33521SOL    HW1 5883   1.712  10.918   0.584  0.7086  0.9373 -1.1070
33521SOL    HW2 5884   1.572  10.936   0.640  0.7017 -0.5553 -0.5988
33522SOL     OW 5885   4.552   6.033   9.589 -0.4282  0.4059  0.6506
33522SOL    HW1 5886   4.487   6.102   9.572 -0.3573  0.0728 -1.1189
33522SOL    HW2 5887   4.501   5.952   9.590 -0.0579  0.1336 -0.8249
33523SOL     OW 5888   1.442   9.664  10.817  0.3119 -0.2848  0.1078
33523SOL    HW1 5889   1.349   9.645  10.816  0.8635 -3.7046  0.4153
33523SOL    HW2 5890   1.453   9.729  10.887 -1.7057 -0.8322  0.9943
33524SOL     OW 5891   0.794   1.741   2.457  0.1794 -0.2792  0.2874
33524SOL    HW1 5892   0.793   1.679   2.385  0.1688  0.8942 -0.7612
33524SOL    HW2 5893   0.887   1.765   2.467  0.3522 -1.3583  1.5114
33525SOL     OW 5894   3.145   1.971   9.535  0.1495  0.1170  0.3778
33525SOL    HW1 5895   3.222   1.997   9.483  0.1265 -2.1138 -0.9239
33525SOL    HW2 5896   3.072   1.974   9.473 -0.6887  1.3330  1.3731
33526SOL     OW 5897   6.234   3.569   3.114 -0.3987  0.0207 -0.6409
33526SOL    HW1 5898   6.178   3.495   3.091  1.2664 -2.3275  2.0889
33526SOL    HW2 5899   6.192   3.609   3.189  0.2650 -0.1839 -0.1469
33527SOL     OW 5900   8.951   0.660   6.054 -0.4096  0.7137 -0.7819
33527SOL    HW1 5901   8.866   0.671   6.095 -1.1325  1.7182 -2.4738
33527SOL    HW2 5902   9.013   0.660   6.127 -1.8720 -0.8230  0.5586
33528SOL     OW 5903   9.359   5.931  11.510 -0.2633 -0.2471 -0.4336
33528SOL    HW1 5904   9.265   5.953  11.513 -0.3704 -0.5816 -1.1605
33528SOL    HW2 5905   9.380   5.932  11.417  0.2308 -1.1311 -0.3349
33529SOL     OW 5906   6.884   1.190   4.535 -0.4485  0.3133 -0.0186
33529SOL    HW1 5907   6.933   1.131   4.591  0.3849  1.3747  0.3903
33529SOL    HW2 5908   6.918   1.173   4.447  0.4124  0.8072  0.2182
33530SOL     OW 5909   5.973   4.267   4.876 -0.2369  0.1047 -0.0551
33530SOL    HW1 5910   5.879   4.255   4.857 -0.1514  0.0865 -0.4782
33530SOL    HW2 5911   5.990   4.209   4.950 -0.8552  1.0976  0.9014
33531SOL     OW 5912   8.114   7.248  10.317  0.0983  0.5371  0.7088
33531SOL    HW1 5913   8.163   7.312  10.266  0.5228  0.7522  1.3663
33531SOL    HW2 5914   8.134   7.270  10.408 -1.2960  0.6784  1.0025
33532SOL     OW 5915   7.214   5.760   5.874  0.0859  0.0815  0.5528
33532SOL    HW1 5916   7.207   5.724   5.785 -1.5661  0.8765  0.3264
33532SOL    HW2 5917   7.126   5.751   5.910  0.5535  0.4942  1.8403
33533SOL     OW 5918   9.944   1.095  11.041 -0.5047  0.2345  0.3384
33533SOL    HW1 5919   9.924   1.147  11.118 -0.6510 -1.0063  1.1773
33533SOL    HW2 5920   9.993   1.019  11.075  0.5420  0.2866 -0.9458
33534SOL     OW 5921   2.452  11.599   7.765 -0.4998 -0.1984 -0.2590
33534SOL    HW1 5922   2.448  11.693   7.749 -1.0464  0.0756  1.2814
33534SOL    HW2 5923   2.363  11.576   7.794 -1.0532 -1.6606 -2.8519
33535SOL     OW 5924   5.994   1.217   5.201 -0.3978  0.1442 -0.4819
33535SOL    HW1 5925   6.087   1.218   5.222 -0.2677  1.6339 -0.9709
33535SOL    HW2 5926   5.952   1.174   5.275  0.7371 -1.2132 -0.5892
33536SOL     OW 5927   4.140   1.718  10.844 -0.4032  0.3924  0.1291
33536SOL    HW1 5928   4.207   1.772  10.803 -0.8387  2.0680  1.4852
33536SOL    HW2 5929   4.185   1.676  10.917 -0.3835  0.0253 -0.0966
33537SOL     OW 5930   9.080   7.347   9.130  0.3560  0.2322 -0.2275
33537SOL    HW1 5931   9.135   7.414   9.090 -1.2073  1.8962  0.2853
33537SOL    HW2 5932   9.135   7.268   9.132  0.8351  0.1701 -4.8907
33538SOL     OW 5933   1.916  10.251   0.171  0.2422 -0.3359 -0.0211
33538SOL    HW1 5934   1.834  10.220   0.132 -1.1801  0.5278  2.1107
33538SOL    HW2 5935   1.891  10.327   0.222  2.3131 -0.3426  1.1059
33539SOL     OW 5936  10.913   1.050   4.035 -0.0288  0.0779 -0.0296
33539SOL    HW1 5937  10.850   1.103   3.987  0.5558  1.4677  0.6860
33539SOL    HW2 5938  10.997   1.068   3.993  0.5373  1.5209  1.6082
33540SOL     OW 5939   3.829   0.283   1.473  0.0436  0.1031  0.4266
33540SOL    HW1 5940   3.909   0.281   1.525 -0.2634 -1.3750  0.8881
33540SOL    HW2 5941   3.854   0.328   1.392  1.3492 -0.3778  0.5412
33541SOL     OW 5942   2.028   9.311   8.200  0.2109 -0.0689 -0.0559
33541SOL    HW1 5943   2.058   9.364   8.126 -2.9683 -0.4857 -1.8100
33541SOL    HW2 5944   1.944   9.350   8.225  1.0296 -0.1131  3.2605
33542SOL     OW 5945   5.244   5.698   4.694  0.6572 -0.0824  0.2165
33542SOL    HW1 5946   5.208   5.621   4.650  0.9023  0.7246 -1.5128
33542SOL    HW2 5947   5.170   5.737   4.740 -0.1597  0.1893 -1.2509
33543SOL     OW 5948   3.927   1.323   3.879  0.4401 -0.4312  0.4116
33543SOL    HW1 5949   3.900   1.392   3.939  0.3288  2.1026 -2.3310
33543SOL    HW2 5950   3.846   1.279   3.855  0.3971 -0.9529  1.4308
33544SOL     OW 5951   8.709   6.688   2.471 -0.0417  0.4485  0.1752
33544SOL    HW1 5952   8.743   6.603   2.441 -0.3059  0.9320 -1.5893
33544SOL    HW2 5953   8.785   6.734   2.505 -0.1069 -0.9900  2.5572
33545SOL     OW 5954   8.522  11.132   2.854 -0.6450  0.3787  0.3336
33545SOL    HW1 5955   8.450  11.183   2.890  0.5926  1.3082  1.6085
33545SOL    HW2 5956   8.492  11.042   2.855 -1.3025  0.5814  2.1492
33546SOL     OW 5957  11.735   7.698   3.935 -0.5693  0.0877 -0.0245
33546SOL    HW1 5958  11.651   7.713   3.979 -1.6070 -1.1247 -1.5036
33546SOL    HW2 5959  11.724   7.613   3.892  1.1746  0.2457 -0.8323
33547SOL     OW 5960   3.008   4.310   2.724 -0.2556  0.4961  0.5848
33547SOL    HW1 5961   3.085   4.354   2.758  0.6816  1.1277 -2.1634
33547SOL    HW2 5962   2.935   4.368   2.748  0.5090  1.5834  0.3548
33548SOL     OW 5963   5.493   0.379   7.723  0.4538  0.3726  0.4158
33548SOL    HW1 5964   5.558   0.373   7.653  2.0428  2.4978  1.6059
33548SOL    HW2 5965   5.461   0.469   7.719 -1.2511 -0.1713  0.9211
33549SOL     OW 5966   0.824   1.896   0.574 -0.7207 -0.1760 -0.2294
33549SOL    HW1 5967   0.895   1.833   0.577 -0.5401  0.0506  1.7961
33549SOL    HW2 5968   0.763   1.867   0.642 -0.9983  1.3832  0.2323
33550SOL     OW 5969   0.360   5.985   8.995 -0.1036  0.3575 -0.1108
33550SOL    HW1 5970   0.341   6.077   9.010 -0.0871  0.1578  1.2978
33550SOL    HW2 5971   0.438   5.985   8.940  0.1469  1.1857  0.2317
33551SOL     OW 5972   7.284   0.316  11.785 -0.2234 -0.1347 -0.7447
33551SOL    HW1 5973   7.233   0.239  11.807 -0.7101 -0.0126 -1.4371
33551SOL    HW2 5974   7.375   0.288  11.794 -0.3999 -0.4029  0.3072
33552SOL     OW 5975   1.627   0.304   1.969  0.1367  0.3939  0.2962
33552SOL    HW1 5976   1.542   0.262   1.978 -0.0584  0.3319 -1.3825
33552SOL    HW2 5977   1.629   0.370   2.038 -2.3959  2.1974 -1.1801
33553SOL     OW 5978   0.290   8.549   8.721 -0.5337  0.1394 -0.1527
33553SOL    HW1 5979   0.343   8.561   8.642 -0.4668 -1.2503 -0.3280
33553SOL    HW2 5980   0.219   8.491   8.694 -1.2644  0.7100  0.4924
33554SOL     OW 5981   0.053   2.520   6.367 -0.2711  0.2747  0.0135
33554SOL    HW1 5982  -0.016   2.466   6.328  0.4948 -0.5700 -0.1969
33554SOL    HW2 5983   0.080   2.579   6.297 -0.1421 -0.0213 -0.1873
33555SOL     OW 5984   5.679   4.812   4.332  0.0863  0.1163 -0.5374
33555SOL    HW1 5985   5.592   4.773   4.322  0.7384 -1.0416 -2.1417
33555SOL    HW2 5986   5.680   4.882   4.266 -0.1693  1.1904  0.5732
33556SOL     OW 5987   4.346   4.445   8.124 -0.0245  0.5156  0.1368
33556SOL    HW1 5988   4.345   4.460   8.030 -0.4024  0.4085  0.1220
33556SOL    HW2 5989   4.277   4.381   8.139 -0.6253  1.2492  0.5962
33557SOL     OW 5990  10.796   9.787   1.525  0.2578 -0.4827  0.0045
33557SOL    HW1 5991  10.804   9.717   1.459  0.0232 -0.9369  0.4470
33557SOL    HW2 5992  10.718   9.763   1.575 -0.5335  0.7633 -0.6064
33558SOL     OW 5993   1.498   3.251   2.698  0.7805  0.0059  0.2244
33558SOL    HW1 5994   1.573   3.307   2.677  0.6136  0.0558 -0.2385
33558SOL    HW2 5995   1.526   3.163   2.674  0.9685 -0.0867  0.7648
33559SOL     OW 5996   5.986   5.320   2.958 -0.5612 -0.1039  0.5933
33559SOL    HW1 5997   5.955   5.229   2.958 -0.2388 -0.2271 -0.8490
33559SOL    HW2 5998   5.942   5.360   2.884  1.4305  0.1603 -0.5033
33560SOL     OW 5999  11.731   7.526   9.649  0.8291 -0.0135 -0.1329
33560SOL    HW1 6000  11.726   7.436   9.618 -1.9741  0.5073 -1.4842
33560SOL    HW2 6001  11.661   7.534   9.713 -0.0221  1.5697 -1.1879
33561SOL     OW 6002   7.899   9.591   0.381  0.5079 -0.1793 -0.0961
33561SOL    HW1 6003   7.974   9.624   0.429  0.1637  0.8204 -0.2246
33561SOL    HW2 6004   7.906   9.495   0.387  1.2096 -0.0778  0.7687
33562SOL     OW 6005   6.302   4.743   6.642  1.0529  0.1964  0.1417
33562SOL    HW1 6006   6.392   4.711   6.632  0.4033 -1.0912 -2.5644
33562SOL    HW2 6007   6.290   4.804   6.570 -0.3046  0.1751  0.3242
33563SOL     OW 6008  10.874  10.260   7.019  0.6657  0.4951  0.2062
33563SOL    HW1 6009  10.861  10.354   7.004  0.7874  0.3756 -0.6469
33563SOL    HW2 6010  10.804  10.218   6.969 -0.5662  0.1856  2.0653
33564SOL     OW 6011   4.540  11.434   6.764 -0.0288  0.3535  0.4228
33564SOL    HW1 6012   4.585  11.399   6.842 -1.3296 -0.4365  0.8587
33564SOL    HW2 6013   4.610  11.450   6.701  0.8273 -1.4644  0.8287
33565SOL     OW 6014  11.475   3.886   9.694  0.5601  0.2173  0.4180
33565SOL    HW1 6015  11.563   3.889   9.656  0.5140 -1.4451  0.0831
33565SOL    HW2 6016  11.418   3.914   9.623  0.7861  0.9016  0.5039
33566SOL     OW 6017   7.778   5.534   1.907 -0.3909 -0.1700  0.1086
33566SOL    HW1 6018   7.744   5.475   1.975 -0.8484  1.5333  1.4198
33566SOL    HW2 6019   7.701   5.583   1.878  0.2709  1.0382  0.3557
33567SOL     OW 6020   8.263   5.241   3.769  0.6846 -0.2882  0.2185
33567SOL    HW1 6021   8.235   5.150   3.760  0.3378 -0.2186  0.5430
33567SOL    HW2 6022   8.328   5.239   3.839 -1.4832  0.1164  2.3735
33568SOL     OW 6023   9.872   8.913   5.760  0.3373  0.6098  0.0283
33568SOL    HW1 6024   9.783   8.912   5.724 -0.5559 -0.3685  2.0761
33568SOL    HW2 6025   9.882   8.827   5.801  1.7315  1.1956  0.9885
33569SOL     OW 6026   2.577   5.213   3.703  0.5513 -0.0924  0.3602
33569SOL    HW1 6027   2.632   5.263   3.763 -1.6335  1.9620  0.8128
33569SOL    HW2 6028   2.569   5.270   3.625 -0.3047 -0.6696  0.0160
33570SOL     OW 6029   2.268   6.307  11.521  0.9058 -0.2184  0.5218
33570SOL    HW1 6030   2.175   6.306  11.496  0.8127 -0.3389  0.8681
33570SOL    HW2 6031   2.290   6.215  11.531  0.8585 -0.1645  1.1817
33571SOL     OW 6032   0.309  10.259  10.564  0.0068 -0.0763  0.3240
33571SOL    HW1 6033   0.394  10.296  10.540  0.0206 -0.0433  0.4226
33571SOL    HW2 6034   0.309  10.259  10.660 -0.0836 -0.1236  0.3243
33572SOL     OW 6035   3.491   0.314   6.391  0.4080  0.3223 -0.2577
33572SOL    HW1 6036   3.396   0.323   6.403  0.6765  0.5005  2.5217
33572SOL    HW2 6037   3.515   0.386   6.334 -0.8365  1.9983  1.2060
33573SOL     OW 6038  11.180   7.251  10.445 -0.3056 -0.2725  0.3146
33573SOL    HW1 6039  11.237   7.322  10.475 -0.8032 -0.0871  0.8553
33573SOL    HW2 6040  11.229   7.172  10.464  0.3470 -0.0699 -0.4960
33574SOL     OW 6041   8.674   7.332  11.104  0.1040 -0.2014  0.3136
33574SOL    HW1 6042   8.669   7.409  11.048  0.1488  0.0552  0.6539
33574SOL    HW2 6043   8.664   7.257  11.045  0.1434  0.0642 -0.0297
33575SOL     OW 6044  10.264   1.014  11.715  0.3707  0.6094 -0.1962
33575SOL    HW1 6045  10.174   1.009  11.682  0.0710 -0.6461  0.7411
33575SOL    HW2 6046  10.315   1.048  11.641 -0.8946  1.4979 -0.6754
33576SOL     OW 6047   5.756   3.279   6.673 -0.2109 -0.1799 -0.7671
33576SOL    HW1 6048   5.766   3.195   6.629 -1.0818 -0.9380  0.4198
33576SOL    HW2 6049   5.673   3.272   6.720  0.9150  0.3823  1.4105
33577SOL     OW 6050   8.606   9.522   1.881  0.0774 -0.2532 -0.1045
33577SOL    HW1 6051   8.642   9.594   1.933  1.0745  0.1628 -1.3216
33577SOL    HW2 6052   8.512   9.523   1.902 -0.1662  2.1674 -0.8824
33578SOL     OW 6053   6.353   7.339   7.514  0.2458  0.4999 -0.1930
33578SOL    HW1 6054   6.329   7.246   7.510 -1.8272  1.0205 -3.2449
33578SOL    HW2 6055   6.288   7.378   7.572 -0.9244  0.4933 -1.4578
33579SOL     OW 6056   5.661   5.561   6.070  0.0260  0.4662  0.2048
33579SOL    HW1 6057   5.702   5.476   6.084 -1.9274 -0.4137  0.9209
33579SOL    HW2 6058   5.607   5.575   6.148 -1.8174  1.0548 -1.1129
33580SOL     OW 6059   2.890   1.793   2.862  0.3941  0.1938 -0.1031
33580SOL    HW1 6060   2.864   1.733   2.932  0.7723  0.6454  0.4464
33580SOL    HW2 6061   2.982   1.773   2.847 -0.3148 -1.7301 -2.3741
33581SOL     OW 6062   2.544   6.249   2.260 -0.4230 -0.2126  0.6532
33581SOL    HW1 6063   2.516   6.164   2.227  0.8142 -0.3219 -0.1867
33581SOL    HW2 6064   2.635   6.236   2.288 -0.4645  0.6424  1.2575
33582SOL     OW 6065   1.731   9.454   5.449 -0.3554  0.3566 -0.1697
33582SOL    HW1 6066   1.676   9.442   5.526 -0.9220  1.6979 -0.3377
33582SOL    HW2 6067   1.783   9.374   5.444 -0.8862 -0.0969  1.1292
33583SOL     OW 6068  10.908   6.427   3.120 -0.2880 -0.4928 -0.3784
33583SOL    HW1 6069  10.948   6.481   3.051 -0.4557 -0.5544 -0.5250
33583SOL    HW2 6070  10.896   6.488   3.193  1.6419 -0.8519  0.2929
33584SOL     OW 6071   1.390   2.639   7.221  0.3663  0.2210 -0.5513
33584SOL    HW1 6072   1.380   2.636   7.316 -0.5182  0.6752 -0.6196
33584SOL    HW2 6073   1.415   2.730   7.203 -1.6830  0.7575 -0.9223
33585SOL     OW 6074   8.318   4.927   6.339 -0.1515  0.2505 -0.3269
33585SOL    HW1 6075   8.350   5.010   6.303  1.3563 -0.2492 -0.2104
33585SOL    HW2 6076   8.384   4.903   6.405  1.1561 -2.5383 -2.4506
33586SOL     OW 6077   6.495   3.927   5.958  0.5291 -0.2578 -0.3262
33586SOL    HW1 6078   6.493   3.834   5.939  0.9017 -0.2893 -0.2212
33586SOL    HW2 6079   6.576   3.940   6.009 -0.4631 -0.1999  1.3242
33587SOL     OW 6080   3.172   5.178  10.127  0.3786  0.5534 -0.2637
33587SOL    HW1 6081   3.239   5.136  10.181  0.1518 -1.0597 -1.1666
33587SOL    HW2 6082   3.098   5.118  10.130 -0.4819  1.5748 -0.5164
33588SOL     OW 6083   7.790  11.589  10.366  0.1516 -0.1044  0.4490
33588SOL    HW1 6084   7.775  11.547  10.282 -0.7070  0.1654  0.4547
33588SOL    HW2 6085   7.869  11.547  10.401  1.5971  1.0430 -1.2899
33589SOL     OW 6086   0.947   2.475   1.025 -0.9344  0.1464 -0.9040
33589SOL    HW1 6087   0.887   2.422   1.077 -1.0031 -0.1158 -1.2497
33589SOL    HW2 6088   0.954   2.558   1.073  1.2350 -1.0713  1.1021
33590SOL     OW 6089   3.384  11.716  11.719  0.3425  0.4378 -0.1320
33590SOL    HW1 6090   3.449  11.666  11.669 -0.4595  0.3108 -1.0831
33590SOL    HW2 6091   3.394  11.806  11.688  0.4223  0.5112  0.1074
33591SOL     OW 6092   5.205   2.844  11.237  0.2125  0.0463  0.4889
33591SOL    HW1 6093   5.296   2.834  11.210 -0.2839  0.6649 -1.6942
33591SOL    HW2 6094   5.184   2.764  11.284  1.5232 -0.6864 -0.1308
33592SOL     OW 6095   9.602   1.381   2.174 -0.0602 -0.6084 -0.6248
33592SOL    HW1 6096   9.673   1.403   2.234  0.4741 -0.7227 -1.2081
33592SOL    HW2 6097   9.645   1.340   2.099 -0.7493 -0.7784 -0.9404
33593SOL     OW 6098   2.553   3.920   4.083  0.1501  0.4064  0.4043
33593SOL    HW1 6099   2.613   3.934   4.156  0.5501 -0.1241  0.1891
33593SOL    HW2 6100   2.563   3.827   4.062 -0.6043  0.3591  0.2361
33594SOL     OW 6101   3.224   1.895   0.870 -0.5546  0.4782 -0.4055
33594SOL    HW1 6102   3.169   1.837   0.923 -0.9734  1.2726  0.0552
33594SOL    HW2 6103   3.308   1.850   0.864 -1.3465 -0.9559 -1.4527
33595SOL     OW 6104   7.909   7.935   9.712  0.1924 -0.3056  0.6218
33595SOL    HW1 6105   7.883   7.894   9.630  1.1702  1.5531 -0.6839
33595SOL    HW2 6106   7.828   7.947   9.760 -1.1732  2.6459 -2.0496
33596SOL     OW 6107   3.516   5.956   2.479  0.1088 -1.1972 -0.1667
33596SOL    HW1 6108   3.532   5.915   2.394 -0.3472 -0.3771 -0.6666
33596SOL    HW2 6109   3.437   6.009   2.465 -0.0644 -1.1775  0.8164
33597SOL     OW 6110  10.193   5.323   8.786 -0.1595 -0.1663 -0.1065
33597SOL    HW1 6111  10.223   5.236   8.760 -0.8083 -0.8868  1.4715
33597SOL    HW2 6112  10.125   5.344   8.722  1.4067  0.1237 -1.7751
33598SOL     OW 6113   0.120   7.789  10.328 -0.0522 -0.0645 -0.0769
33598SOL    HW1 6114   0.154   7.817  10.413 -0.2119  1.5517 -0.5121
33598SOL    HW2 6115   0.190   7.809  10.266 -0.6217  0.5140 -0.5607
33599SOL     OW 6116   7.421   3.371   4.295 -0.0835 -0.3801 -0.0041
33599SOL    HW1 6117   7.413   3.297   4.354  1.5176  0.7685  1.7495
33599SOL    HW2 6118   7.514   3.391   4.293 -0.3713  1.0705 -1.0795
33600SOL     OW 6119   1.938  10.796  11.756  0.6181  0.1399  0.4610
33600SOL    HW1 6120   1.974  10.719  11.712  1.4226  0.6008  0.2830
33600SOL    HW2 6121   1.855  10.766  11.794 -0.0856 -0.2973 -1.3142
33601SOL     OW 6122  11.344   0.707   4.302 -0.2472  0.1394  0.2755
33601SOL    HW1 6123  11.290   0.659   4.364 -0.8217 -1.0953 -1.1425
33601SOL    HW2 6124  11.288   0.780   4.274 -0.7548 -0.4584 -0.2968
33602SOL     OW 6125  10.462   7.582   7.357 -0.7945  0.0718 -0.1959
33602SOL    HW1 6126  10.460   7.486   7.359 -0.0079  0.0158 -1.2401
33602SOL    HW2 6127  10.376   7.606   7.321 -1.0746 -0.2222  0.2605
33603SOL     OW 6128   1.439   1.288   3.837  0.5610  0.0191 -0.1097
33603SOL    HW1 6129   1.445   1.383   3.848 -2.3925  0.3782 -0.7859
33603SOL    HW2 6130   1.384   1.259   3.910 -0.7202 -0.7472 -1.3206
33604SOL     OW 6131   4.969   3.683   3.393 -0.4573  0.0356  0.2688
33604SOL    HW1 6132   4.946   3.594   3.364  1.9988 -0.5980  0.0825
33604SOL    HW2 6133   5.052   3.672   3.439 -0.2883  2.2114  0.5504
33605SOL     OW 6134   2.787   1.284   7.228 -0.3364  0.0113 -0.1375
33605SOL    HW1 6135   2.807   1.374   7.254  1.3632  0.0043 -1.2432
33605SOL    HW2 6136   2.810   1.280   7.135  0.9508 -1.9020  0.1945
33606SOL     OW 6137   3.144   6.826   8.761  0.1491  0.0143 -0.8644
33606SOL    HW1 6138   3.068   6.841   8.818  0.3993  0.5398 -0.6672
33606SOL    HW2 6139   3.122   6.872   8.680  0.2986  0.2369 -0.7764
33607SOL     OW 6140   5.384   5.479   7.589  0.4795 -0.5514  0.1509
33607SOL    HW1 6141   5.317   5.430   7.637 -0.6466  0.8159  0.0351
33607SOL    HW2 6142   5.454   5.490   7.653 -0.5796  0.3823  1.2166
33608SOL     OW 6143   6.924   9.192   2.294 -0.0672 -0.1453  0.1769
33608SOL    HW1 6144   6.951   9.132   2.364 -2.0540  1.5361  2.5524
33608SOL    HW2 6145   6.839   9.159   2.265 -0.9604  1.1926  1.1839
33609SOL     OW 6146   7.997   5.892   8.345  0.1799  0.0468 -0.1834
33609SOL    HW1 6147   7.902   5.889   8.331  0.3383  0.2001 -1.3717
33609SOL    HW2 6148   8.007   5.926   8.434 -0.8833 -0.4867  0.1534
33610SOL     OW 6149  10.643   7.855   6.355  0.7858 -0.2010 -0.7968
33610SOL    HW1 6150  10.656   7.794   6.282  0.5080  1.1834 -2.0461
33610SOL    HW2 6151  10.726   7.855   6.402  2.0286  1.0964 -2.8761
33611SOL     OW 6152   0.954   4.513   1.386 -0.4937 -0.6711  0.2916
33611SOL    HW1 6153   0.958   4.567   1.306 -1.5551  0.4335  0.9405
33611SOL    HW2 6154   0.898   4.563   1.445  0.4262 -1.3793  1.8161
33612SOL     OW 6155   0.177   3.335   4.017  0.2764 -0.1959 -0.4317
33612SOL    HW1 6156   0.174   3.243   3.992  3.8097 -0.4054 -0.6006
33612SOL    HW2 6157   0.149   3.336   4.109  0.9357 -1.5988 -0.1847
33613SOL     OW 6158   9.409   8.779  10.646  0.2536 -0.1548 -0.4842
33613SOL    HW1 6159   9.336   8.733  10.605  0.9726 -2.1371  0.3321
33613SOL    HW2 6160   9.459   8.815  10.572 -0.3397 -0.6757 -1.1599
33614SOL     OW 6161   4.508   4.465   5.151 -0.2985  0.3476  0.3856
33614SOL    HW1 6162   4.471   4.447   5.237  2.6095 -2.6559  1.2068
33614SOL    HW2 6163   4.577   4.529   5.168 -0.0876  0.1705  0.2016
33615SOL     OW 6164   1.999  10.655  10.187 -0.1500 -0.2374 -0.0966
33615SOL    HW1 6165   1.943  10.702  10.249  0.2746 -2.1505  1.8607
33615SOL    HW2 6166   2.040  10.724  10.134 -1.1999  1.4331  1.1688
33616SOL     OW 6167  10.655   0.664  10.638  0.0260  0.5240 -1.0054
33616SOL    HW1 6168  10.696   0.633  10.557  1.3803 -0.0473 -0.1316
33616SOL    HW2 6169  10.727   0.669  10.701 -0.9646  1.1754  0.1084
33617SOL     OW 6170  11.804   4.231   7.028  0.6152  0.2440  0.4196
33617SOL    HW1 6171  11.890   4.244   7.067  0.9192 -1.0482  0.2381
33617SOL    HW2 6172  11.744   4.226   7.102  0.8966 -0.1511  0.6255
33618SOL     OW 6173  11.648  10.608   0.692 -0.2922  0.5295  0.0084
33618SOL    HW1 6174  11.713  10.662   0.647 -0.6223  0.9462  0.0227
33618SOL    HW2 6175  11.588  10.579   0.623 -0.9394  1.3694  0.2045
33619SOL     OW 6176   8.499   9.068   4.503  0.5817  0.1648  0.2268
33619SOL    HW1 6177   8.563   9.018   4.452 -0.2438 -2.6829  1.7370
33619SOL    HW2 6178   8.426   9.081   4.443  0.9856 -0.0549 -0.3247
33620SOL     OW 6179   9.580  10.692   6.536 -0.0509 -0.1838  0.8187
33620SOL    HW1 6180   9.605  10.691   6.628  1.4478 -3.1000  0.4804
33620SOL    HW2 6181   9.567  10.600   6.513  0.2999  0.3863 -2.0691
33621SOL     OW 6182  10.759   3.555   9.605  0.3228  0.2380  0.3115
33621SOL    HW1 6183  10.747   3.573   9.512  1.6872 -0.0861  0.0575
33621SOL    HW2 6184  10.754   3.460   9.611 -0.8061  0.3100  0.7424
33622SOL     OW 6185   2.803  11.087   8.354 -0.3869  0.0133  0.2412
33622SOL    HW1 6186   2.723  11.039   8.334 -1.1665  0.8435  1.2515
33622SOL    HW2 6187   2.809  11.154   8.286  0.3033 -1.0061 -0.7339
33623SOL     OW 6188  11.135   5.545   6.891 -0.3651  0.0116  0.0252
33623SOL    HW1 6189  11.130   5.629   6.845  0.4904 -0.7096 -1.4430
33623SOL    HW2 6190  11.080   5.557   6.969 -0.0850  1.9989 -0.0372
33624SOL     OW 6191   8.161   1.255   8.110  0.3168 -0.9667 -0.4928
33624SOL    HW1 6192   8.146   1.300   8.193 -2.4945 -0.6458 -1.0698
33624SOL    HW2 6193   8.146   1.162   8.130  0.3263 -0.9690 -0.4962
33625SOL     OW 6194   6.077   9.506   9.748 -0.1117 -0.2054 -0.0073
33625SOL    HW1 6195   6.018   9.437   9.777 -0.3042 -0.1942 -0.3656
33625SOL    HW2 6196   6.114   9.473   9.666 -0.6580  0.3743 -0.4888
33626SOL     OW 6197   3.791   4.632  11.153  0.0522 -0.3488 -0.0808
33626SOL    HW1 6198   3.796   4.716  11.108 -0.4924  1.0234  2.2445
33626SOL    HW2 6199   3.882   4.609  11.171  0.1686  0.2075  0.0636
33627SOL     OW 6200   9.088   5.145   0.438  0.1781  0.1974 -0.2117
33627SOL    HW1 6201   9.156   5.127   0.373  0.4330 -3.3493  0.8353
33627SOL    HW2 6202   9.137   5.171   0.516  0.2431 -0.9463  0.1305
33628SOL     OW 6203   7.872   4.397   5.491 -0.4121  0.1147 -0.4301
33628SOL    HW1 6204   7.820   4.400   5.411  1.2010  0.8304 -1.5035
33628SOL    HW2 6205   7.944   4.337   5.471 -0.3910 -0.2818  0.7551
33629SOL     OW 6206   3.104   9.580   8.079 -0.0810 -0.2153 -0.4568
33629SOL    HW1 6207   3.107   9.674   8.065 -0.7789 -0.0941  0.1281
33629SOL    HW2 6208   3.177   9.545   8.027 -0.9341  0.4515 -2.1825
33630SOL     OW 6209   0.141   4.775   2.142 -0.8467 -0.1333  0.2982
33630SOL    HW1 6210   0.099   4.830   2.209  0.9977 -0.6819  1.9993
33630SOL    HW2 6211   0.234   4.785   2.158 -0.3498 -0.4842 -2.1089
33631SOL     OW 6212   0.334   7.451   9.502  0.7472 -0.5558 -0.0602
33631SOL    HW1 6213   0.309   7.511   9.432  1.4662  1.2348  1.1318
33631SOL    HW2 6214   0.340   7.365   9.460 -1.1365  0.0329 -1.6698
33632SOL     OW 6215   2.158   0.954   6.893  0.4720  0.3777 -0.2630
33632SOL    HW1 6216   2.082   1.006   6.865  1.6825  2.0135 -0.6731
33632SOL    HW2 6217   2.185   0.907   6.814 -1.1809 -1.7159  0.3240
33633SOL     OW 6218   7.240   7.985   0.699  0.1927  0.2552 -0.7658
33633SOL    HW1 6219   7.236   7.986   0.604 -1.8872  1.1734 -0.7283
33633SOL    HW2 6220   7.316   8.039   0.721  1.0376 -0.4456 -1.8902
33634SOL     OW 6221   9.001   3.029   5.890  0.4079 -0.0832 -0.1778
33634SOL    HW1 6222   8.959   3.001   5.809 -1.3169  2.1492 -0.1485
33634SOL    HW2 6223   9.088   3.060   5.863  0.0911  0.0450 -1.0753
33635SOL     OW 6224   5.213   8.069   0.053 -0.0418 -0.1308  0.0701
33635SOL    HW1 6225   5.124   8.033   0.055  0.0788 -0.4403 -0.0560
33635SOL    HW2 6226   5.205   8.151   0.005 -0.5668  0.7113  1.5478
33636SOL     OW 6227  11.595  11.224   8.901 -0.2374  0.1415 -0.6362
33636SOL    HW1 6228  11.537  11.283   8.950 -0.4145  0.4165 -1.1681
33636SOL    HW2 6229  11.679  11.269   8.900  0.2839 -0.7101  0.9951
33637SOL     OW 6230   7.043   2.648   5.535 -0.7486 -0.0692 -0.1796
33637SOL    HW1 6231   7.008   2.732   5.504 -1.8005  0.7461  2.8144
33637SOL    HW2 6232   6.965   2.594   5.550 -0.5000  0.0598  2.0439
33638SOL     OW 6233   1.562   1.718   7.571 -0.4543  0.7184  0.0996
33638SOL    HW1 6234   1.547   1.624   7.567 -0.6497  0.6493  1.6857
33638SOL    HW2 6235   1.478   1.754   7.600 -0.3116  1.3532 -0.2604
33639SOL     OW 6236   1.760   0.971   7.456 -0.6060  0.1350 -0.0274
33639SOL    HW1 6237   1.678   1.003   7.420 -0.2522 -0.2841 -1.2494
33639SOL    HW2 6238   1.783   0.895   7.402  1.0313  0.7836 -0.3255
33640SOL     OW 6239   1.169   9.442   5.301 -0.1010 -0.4892 -0.3186
33640SOL    HW1 6240   1.260   9.417   5.320  0.0896 -0.6546 -1.4081
33640SOL    HW2 6241   1.133   9.367   5.255 -0.2823  0.2478 -1.3950
33641SOL     OW 6242   6.968   8.931   0.788 -0.0913  0.8526 -0.3434
33641SOL    HW1 6243   6.922   8.859   0.744 -0.1944  1.5315 -1.3973
33641SOL    HW2 6244   6.927   9.010   0.753 -0.9749  1.4397  1.8661
33642SOL     OW 6245   4.894   9.399   5.216  0.0654  0.3038 -0.1008
33642SOL    HW1 6246   4.963   9.360   5.270 -0.9142 -0.0050  0.9896
33642SOL    HW2 6247   4.877   9.333   5.148  0.8189  0.3727 -0.3578
33643SOL     OW 6248   7.946   4.695   7.161  0.8241  0.7601 -0.6392
33643SOL    HW1 6249   7.882   4.762   7.138  0.5645  0.5798 -0.4467
33643SOL    HW2 6250   7.920   4.619   7.109  0.1210  0.2915  0.3785
33644SOL     OW 6251   0.139   9.134  10.312  0.5230 -0.2523  0.1651
33644SOL    HW1 6252   0.070   9.070  10.325 -0.2837  0.5001 -0.3238
33644SOL    HW2 6253   0.183   9.106  10.231  1.0070 -0.9074  0.6446
33645SOL     OW 6254   7.408   4.258   0.843 -0.5493  0.5280  0.4911
33645SOL    HW1 6255   7.317   4.232   0.838 -0.5203  0.4206  0.5109
33645SOL    HW2 6256   7.440   4.220   0.925 -0.1809 -0.4232 -0.0679
33646SOL     OW 6257   6.377   6.270   8.611  0.2500  0.2291  0.4903
33646SOL    HW1 6258   6.432   6.344   8.585 -0.4142  0.5859  0.0876
33646SOL    HW2 6259   6.291   6.289   8.574  0.0155 -0.6497  0.5499
33647SOL     OW 6260   9.286   3.701   4.630 -0.2285 -0.1774 -0.0807
33647SOL    HW1 6261   9.204   3.731   4.669  0.4322  0.0644  1.1615
33647SOL    HW2 6262   9.269   3.610   4.606 -0.0386 -1.0176  2.6952
33648SOL     OW 6263  11.217   2.488   5.818  0.6503 -0.4705  0.2360
33648SOL    HW1 6264  11.222   2.477   5.913 -0.9637 -0.1645  0.3856
33648SOL    HW2 6265  11.231   2.400   5.783  0.9759 -0.6333  0.7550
33649SOL     OW 6266   4.801   5.906  10.599  0.2313  0.3232  0.6078
33649SOL    HW1 6267   4.857   5.907  10.521  2.0841  0.3639  1.8575
33649SOL    HW2 6268   4.736   5.974  10.583 -1.0431 -1.3234 -1.9446
33650SOL     OW 6269  10.476   8.915   8.632  0.1121 -0.2837  0.4451
33650SOL    HW1 6270  10.454   8.904   8.725 -0.2685  1.0428  0.5258
33650SOL    HW2 6271  10.512   9.003   8.626 -0.5520 -0.0706 -0.7898
33651SOL     OW 6272   1.711   2.626   8.785  0.1964 -0.3678  0.3451
33651SOL    HW1 6273   1.665   2.545   8.762  0.7348 -1.0346  1.4890
33651SOL    HW2 6274   1.709   2.628   8.881  1.0985  0.4450  0.3626
33652SOL     OW 6275   0.186   1.312   6.148 -0.1928  0.8873 -0.1169
33652SOL    HW1 6276   0.116   1.265   6.194 -0.6108  0.7249 -0.9047
33652SOL    HW2 6277   0.208   1.256   6.073 -0.0373  1.4925 -0.5332
33653SOL     OW 6278   6.230  10.234   7.631 -0.5852  0.0230  0.6324
33653SOL    HW1 6279   6.182  10.188   7.563 -0.2964  1.1216 -0.3443
33653SOL    HW2 6280   6.307  10.180   7.648 -0.6145 -0.2168  0.0273
33654SOL     OW 6281   5.471  10.586   1.905 -0.0515 -0.1814  0.5033
33654SOL    HW1 6282   5.446  10.582   1.813 -1.4475  0.6085  0.8244
33654SOL    HW2 6283   5.549  10.531   1.911  0.0076 -0.3184 -1.1240
33655SOL     OW 6284   7.659   3.559   9.151  0.0895  0.1869 -0.1942
33655SOL    HW1 6285   7.660   3.655   9.151  1.3114  0.2206  1.5839
33655SOL    HW2 6286   7.643   3.536   9.243  0.5189 -1.3119 -0.4873
33656SOL     OW 6287   3.050   6.264   6.237  0.4239 -0.3679  0.0235
33656SOL    HW1 6288   3.110   6.330   6.271  0.7923 -0.8142  0.2432
33656SOL    HW2 6289   3.103   6.212   6.176  0.2679 -0.7581  0.2143
33657SOL     OW 6290   5.213   6.718  10.308  0.2367  0.2528 -0.2505
33657SOL    HW1 6291   5.291   6.663  10.313  0.0707 -0.0876 -1.3013
33657SOL    HW2 6292   5.242   6.798  10.265  0.0198  0.1403 -0.6102
33658SOL     OW 6293   4.932   2.132   5.873  0.5254  0.5702 -0.1485
33658SOL    HW1 6294   4.915   2.061   5.934  0.0926  0.8939  0.1190
33658SOL    HW2 6295   4.944   2.209   5.928  0.3359  0.8264 -0.4564
33659SOL     OW 6296  11.128   5.513  11.654 -0.4644  0.5507  0.2064
33659SOL    HW1 6297  11.176   5.569  11.594  1.9106  0.5908  2.0267
33659SOL    HW2 6298  11.176   5.430  11.653 -1.5998 -0.1328  0.5461
33660SOL     OW 6299  11.303   4.044   9.014 -0.1276  0.6373  0.9930
33660SOL    HW1 6300  11.220   4.012   9.049 -0.3693 -0.2086 -0.2689
33660SOL    HW2 6301  11.319   3.988   8.938 -0.4661  3.4329 -1.2638
33661SOL     OW 6302   7.512   7.163   2.403 -0.3122 -0.7826 -0.3053
33661SOL    HW1 6303   7.513   7.161   2.307 -0.5764 -0.7401 -0.3089
33661SOL    HW2 6304   7.550   7.079   2.428  1.1020 -0.1999 -0.4397
33662SOL     OW 6305   3.314   7.899   9.102 -0.2091  0.8193 -0.5947
33662SOL    HW1 6306   3.330   7.916   9.194 -0.0658 -0.1236 -0.4420
33662SOL    HW2 6307   3.232   7.850   9.100  1.0337 -1.3825 -0.7424
33663SOL     OW 6308   3.050   4.351   1.937 -0.1572 -0.5849 -0.0091
33663SOL    HW1 6309   3.029   4.261   1.963 -0.8854 -0.0383  1.4278
33663SOL    HW2 6310   3.043   4.351   1.842 -1.7851 -1.6621  0.0749
33664SOL     OW 6311  11.296  10.444   9.811  0.0258  0.2926  0.3868
33664SOL    HW1 6312  11.253  10.395   9.741 -1.5139  1.2589  0.6090
33664SOL    HW2 6313  11.386  10.453   9.782 -0.4537  0.2222 -1.2336
33665SOL     OW 6314   9.041   9.641   4.673 -0.5547 -0.2110  0.6622
33665SOL    HW1 6315   8.987   9.603   4.604 -2.1123 -0.0998  1.7652
33665SOL    HW2 6316   9.127   9.602   4.660 -1.0189 -0.8206 -0.8269
33666SOL     OW 6317   3.080   2.139   5.964 -0.1164 -0.0953  0.0935
33666SOL    HW1 6318   3.118   2.085   6.033 -0.4282  0.0829  0.4036
33666SOL    HW2 6319   3.107   2.096   5.883  0.2545 -0.3006  0.3239
33667SOL     OW 6320   7.879  11.123   9.924  0.4812 -0.5007  0.9443
33667SOL    HW1 6321   7.949  11.095   9.864  0.4820 -0.0027  0.7110
33667SOL    HW2 6322   7.923  11.135  10.008  0.7907  0.3774  0.6610
33668SOL     OW 6323   3.292  10.317   2.751  0.2070  0.4340 -0.3739
33668SOL    HW1 6324   3.200  10.293   2.755  0.1882  0.3786 -1.0160
33668SOL    HW2 6325   3.299  10.377   2.677  0.4659  1.4983  0.4783
33669SOL     OW 6326  11.605   0.906   0.904  0.9171  0.3052 -0.1552
33669SOL    HW1 6327  11.522   0.922   0.860 -0.6267 -2.4766  1.4264
33669SOL    HW2 6328  11.624   0.987   0.951  0.6933  2.0092 -2.7909
33670SOL     OW 6329   1.298   0.148   1.130 -0.3434  0.1733 -0.1808
33670SOL    HW1 6330   1.365   0.083   1.150 -1.0887 -1.0160 -1.4129
33670SOL    HW2 6331   1.287   0.196   1.212  0.7864 -0.7267  0.5344
33671SOL     OW 6332   9.719  10.520   9.339  0.2027 -0.1055  0.5046
33671SOL    HW1 6333   9.669  10.539   9.419  0.4187 -1.0118  0.8685
33671SOL    HW2 6334   9.666  10.556   9.269  0.2172  1.0888  1.0922
33672SOL     OW 6335   3.857   0.549   4.323  0.0588  0.2050 -0.3388
33672SOL    HW1 6336   3.891   0.533   4.411 -0.4408  0.9504  0.0023
33672SOL    HW2 6337   3.843   0.644   4.320  1.0170  0.3278 -1.5684
33673SOL     OW 6338   9.782   0.976   4.760 -0.2663  0.7455 -0.1730
33673SOL    HW1 6339   9.767   0.972   4.666 -0.7778 -1.4204 -0.0512
33673SOL    HW2 6340   9.840   0.902   4.779 -0.1817  1.1250  1.2099
33674SOL     OW 6341   3.184   3.993   0.768  0.4268  0.4441  0.3618
33674SOL    HW1 6342   3.277   4.015   0.762  0.9680 -1.2258  1.8931
33674SOL    HW2 6343   3.179   3.900   0.748 -1.0443  0.6464 -0.4144
33675SOL     OW 6344   9.214   8.194   3.202  0.1952 -0.0585 -0.8554
33675SOL    HW1 6345   9.216   8.135   3.127 -0.9521 -0.2126 -0.7823
33675SOL    HW2 6346   9.305   8.202   3.230  0.3507 -1.9913 -0.7112
33676SOL     OW 6347   4.862   3.279   6.492 -0.0644  0.0588 -0.1049
33676SOL    HW1 6348   4.944   3.326   6.511 -0.7313  1.6876 -1.0388
33676SOL    HW2 6349   4.816   3.336   6.430 -1.5549 -1.2096 -0.2105
33677SOL     OW 6350  11.763   7.811   8.362 -0.3238  0.9420  0.3008
33677SOL    HW1 6351  11.857   7.801   8.369 -0.3827  0.3315  0.2280
33677SOL    HW2 6352  11.750   7.866   8.284 -0.0602  0.4406 -0.1005
33678SOL     OW 6353   1.427   6.725   8.124 -0.5872 -0.6606 -0.0725
33678SOL    HW1 6354   1.498   6.690   8.178  1.4032 -0.1538 -2.1451
33678SOL    HW2 6355   1.380   6.785   8.182  1.6813  0.1918  1.0435
33679SOL     OW 6356   6.118   5.026   6.997  0.0580  0.0445  0.0800
33679SOL    HW1 6357   6.120   5.069   6.912 -2.4718 -0.7969 -0.4882
33679SOL    HW2 6358   6.200   4.976   7.001  0.9458  1.3140 -1.1366
33680SOL     OW 6359  11.480   8.820   9.253 -0.0714 -0.1790 -0.4038
33680SOL    HW1 6360  11.517   8.782   9.332 -0.6806  1.4463  0.7001
33680SOL    HW2 6361  11.426   8.892   9.283  0.2717  0.9710 -2.3421
33681SOL     OW 6362  11.449   6.803   6.095 -0.0887 -0.8133 -0.3638
33681SOL    HW1 6363  11.542   6.823   6.082  0.2432 -2.4452 -0.6806
33681SOL    HW2 6364  11.403   6.879   6.058  1.1055 -0.1027 -0.4382
33682SOL     OW 6365   5.119   2.798   3.316 -0.4458  0.1706 -0.4368
33682SOL    HW1 6366   5.191   2.800   3.253 -0.9043  0.6441 -0.9602
33682SOL    HW2 6367   5.061   2.869   3.287 -1.7374 -0.9897 -0.7737
33683SOL     OW 6368   9.504   9.437   0.521  0.1794 -0.2214  0.3323
33683SOL    HW1 6369   9.412   9.447   0.496  0.7679 -1.3310 -2.7677
33683SOL    HW2 6370   9.503   9.366   0.585 -0.9988 -2.1207 -1.6352
33684SOL     OW 6371  11.592   7.243   9.115 -0.2498 -0.4022  0.1400
33684SOL    HW1 6372  11.593   7.186   9.039 -3.3711 -0.1920 -0.1951
33684SOL    HW2 6373  11.603   7.331   9.079 -2.5208 -0.2170 -0.3127
33685SOL     OW 6374   4.625   7.093   3.728 -0.0248 -0.5175  0.5723
33685SOL    HW1 6375   4.666   7.008   3.716 -1.8553 -1.2246 -1.3976
33685SOL    HW2 6376   4.627   7.133   3.641  0.2593  1.1999  1.3385
33686SOL     OW 6377  11.630   7.468   8.942 -0.0981  0.0966  0.2810
33686SOL    HW1 6378  11.711   7.501   8.903  0.0428  0.5089  0.9221
33686SOL    HW2 6379  11.571   7.455   8.867  0.3757  0.2944 -0.1328
33687SOL     OW 6380   3.510   5.281   2.206  0.1713  0.4784  0.2067
33687SOL    HW1 6381   3.504   5.306   2.298 -0.3354 -0.7528  0.5278
33687SOL    HW2 6382   3.460   5.200   2.199 -0.7698  1.1439 -1.3999
33688SOL     OW 6383   5.559   4.573   8.320  0.3640  0.2233 -0.1606
33688SOL    HW1 6384   5.639   4.608   8.359 -1.4878  1.9553  2.4312
33688SOL    HW2 6385   5.492   4.588   8.386 -1.9863 -1.9100 -1.8734
33689SOL     OW 6386   1.536   4.765   3.510 -0.0981 -0.0993 -0.6276
33689SOL    HW1 6387   1.505   4.795   3.596  0.3677 -0.4946 -0.3173
33689SOL    HW2 6388   1.471   4.799   3.448 -1.2447 -1.0338  0.0242
33690SOL     OW 6389  11.428   4.902   2.802  0.1187 -0.1166 -1.2349
33690SOL    HW1 6390  11.369   4.974   2.821 -1.2330 -0.8188 -2.5348
33690SOL    HW2 6391  11.473   4.928   2.721 -0.2067 -0.6151 -1.5839
33691SOL     OW 6392   2.596   2.175   5.543  0.2118  0.0640 -0.4811
33691SOL    HW1 6393   2.619   2.205   5.455 -1.0411  1.4756 -0.3666
33691SOL    HW2 6394   2.584   2.255   5.593 -0.2654 -0.7032  0.6776
33692SOL     OW 6395   5.547   4.366   0.487 -0.3451 -0.1486 -0.1524
33692SOL    HW1 6396   5.576   4.410   0.567  0.2998 -0.3570 -0.2648
33692SOL    HW2 6397   5.581   4.277   0.495  0.2525 -0.0026 -0.9337
33693SOL     OW 6398   2.430   4.215   0.489  0.0341  0.1760  0.6247
33693SOL    HW1 6399   2.432   4.121   0.509 -2.4236 -0.1286 -0.2748
33693SOL    HW2 6400   2.504   4.228   0.430 -1.8112 -2.1085 -2.5044
33694SOL     OW 6401   5.092   1.639   3.910 -0.1305 -0.7174 -0.0809
33694SOL    HW1 6402   5.032   1.650   3.984 -3.3163  1.0566 -2.6526
33694SOL    HW2 6403   5.093   1.545   3.894 -0.0304 -1.0519  1.6477
33695SOL     OW 6404   1.098  10.715   2.465 -0.3813  0.2120 -0.1212
33695SOL    HW1 6405   1.040  10.683   2.397 -1.1026 -1.1681  1.0888
33695SOL    HW2 6406   1.047  10.709   2.546  0.6428  1.2337  0.6493
33696SOL     OW 6407   3.673   5.453   8.674 -0.1238  0.2938  0.1867
33696SOL    HW1 6408   3.732   5.433   8.601  0.8046  1.1563  0.6654
33696SOL    HW2 6409   3.586   5.447   8.637  0.1889 -1.8603 -0.3385
33697SOL     OW 6410   1.109   6.842   7.821  0.2145  0.0974  0.4036
33697SOL    HW1 6411   1.014   6.834   7.825 -0.0914  1.5318 -2.0515
33697SOL    HW2 6412   1.126   6.931   7.852  0.6969  0.0487  0.2847
33698SOL     OW 6413   8.764   7.279   9.489 -0.4592 -0.4823  0.7650
33698SOL    HW1 6414   8.805   7.335   9.423 -0.1537 -1.9346 -0.3127
33698SOL    HW2 6415   8.797   7.313   9.572  0.8191  0.0652  0.0649
33699SOL     OW 6416   5.009   8.045   4.944 -0.1987 -0.2044 -0.1882
33699SOL    HW1 6417   4.970   8.120   4.990 -0.3463  0.2350 -0.9991
33699SOL    HW2 6418   4.934   7.996   4.910 -0.1004  0.7710 -1.9506
33700SOL     OW 6419   2.770   0.483  10.747 -0.1580 -0.4653  0.3580
33700SOL    HW1 6420   2.683   0.492  10.709 -1.4892 -0.7123  3.1332
33700SOL    HW2 6421   2.814   0.418  10.692 -1.8423 -0.6225 -0.8549
33701SOL     OW 6422   9.922   9.897   2.438 -0.0677 -0.5882 -0.1479
33701SOL    HW1 6423   9.975   9.817   2.447  0.2846 -0.5092 -1.3477
33701SOL    HW2 6424   9.943   9.929   2.350 -0.6715  0.4969  0.0960
33702SOL     OW 6425   4.889   0.145   6.111 -0.1227  0.4755  0.1247
33702SOL    HW1 6426   4.944   0.223   6.102 -0.1413  0.3932 -0.8651
33702SOL    HW2 6427   4.836   0.144   6.031  1.1325 -1.4967 -0.7851
33703SOL     OW 6428   2.418   5.356   0.449  0.4829  0.0485  0.0280
33703SOL    HW1 6429   2.503   5.402   0.447  0.4645  0.0931  0.2464
33703SOL    HW2 6430   2.357   5.422   0.482  0.4814 -0.1772  0.4713
33704SOL     OW 6431   3.349  10.629   1.254 -0.0286 -0.3341  0.1580
33704SOL    HW1 6432   3.371  10.717   1.225  0.6859  0.2561  2.3519
33704SOL    HW2 6433   3.426  10.576   1.234 -0.0459 -0.2281 -0.1898
33705SOL     OW 6434   9.611   9.145   6.015 -0.2825  0.2072 -0.4656
33705SOL    HW1 6435   9.630   9.057   6.048 -1.3610  0.7438  1.7475
33705SOL    HW2 6436   9.518   9.142   5.992 -0.6445  1.0655  0.7975
33706SOL     OW 6437   6.333  11.469  11.542 -0.0299  0.0087  0.2582
33706SOL    HW1 6438   6.256  11.513  11.505  1.0464  1.1494 -0.6951
33706SOL    HW2 6439   6.348  11.513  11.626  0.0801  0.3660  0.0535
33707SOL     OW 6440   2.074   8.169   5.365  0.1153 -0.2419 -0.8078
33707SOL    HW1 6441   2.138   8.125   5.309  1.2074 -0.9308  0.8832
33707SOL    HW2 6442   2.123   8.242   5.403 -0.2548 -0.4598  0.0935
33708SOL     OW 6443   6.679   6.654   4.421 -0.0431 -0.8294 -0.3242
33708SOL    HW1 6444   6.712   6.629   4.334 -3.5171 -1.8524 -1.5385
33708SOL    HW2 6445   6.685   6.750   4.422  0.6451 -0.8436 -1.4236
33709SOL     OW 6446   8.758   2.450   4.630 -0.2895 -0.1430 -0.2230
33709SOL    HW1 6447   8.689   2.391   4.659  0.0435 -0.5105 -0.1742
33709SOL    HW2 6448   8.719   2.499   4.558 -1.0226  0.5711  0.6452
33710SOL     OW 6449   4.609   2.290   2.394  0.1353  0.8949  0.1471
33710SOL    HW1 6450   4.589   2.373   2.437 -0.9674  0.3510  0.7558
33710SOL    HW2 6451   4.673   2.248   2.451 -0.8075  0.4754  0.9185
33711SOL     OW 6452   1.246  11.500   7.506 -0.2885 -0.1531  0.8288
33711SOL    HW1 6453   1.286  11.449   7.436 -3.0614 -2.3905  0.7012
33711SOL    HW2 6454   1.307  11.573   7.521  2.6369 -2.1043 -0.7130
33712SOL     OW 6455   0.872   7.318   3.597  0.1878  0.2692 -0.0901
33712SOL    HW1 6456   0.892   7.339   3.688  0.9858  1.5620 -0.5267
33712SOL    HW2 6457   0.950   7.344   3.549  0.1901 -1.3840 -1.0469
33713SOL     OW 6458   0.564   7.146  11.049 -0.3394 -0.1673 -0.5384
33713SOL    HW1 6459   0.559   7.114  10.959  1.3043 -0.6004 -0.5103
33713SOL    HW2 6460   0.542   7.239  11.043  1.0823  0.1279 -1.6250
33714SOL     OW 6461   7.136  10.637   2.533  0.1442  0.2120 -0.1960
33714SOL    HW1 6462   7.128  10.732   2.527  1.3159  0.3754  0.3415
33714SOL    HW2 6463   7.226  10.619   2.504  0.0075 -0.6982 -0.0855
33715SOL     OW 6464   0.265  10.190   8.578  0.0798  0.0623 -0.1406
33715SOL    HW1 6465   0.331  10.167   8.645  0.7619  0.0729 -0.7979
33715SOL    HW2 6466   0.278  10.283   8.563 -0.0239  0.0417 -0.3519
33716SOL     OW 6467   0.601   5.255   3.387 -0.3794 -0.1201 -0.1448
33716SOL    HW1 6468   0.693   5.283   3.384 -0.9987  2.2938  1.1837
33716SOL    HW2 6469   0.581   5.248   3.480 -2.3792  2.7228 -0.2100
33717SOL     OW 6470   5.641   5.780  11.604  0.0967  0.3296  0.1974
33717SOL    HW1 6471   5.683   5.773  11.519  0.4850 -1.3951  0.4974
33717SOL    HW2 6472   5.712   5.801  11.664  0.7667 -3.0238  0.7765
33718SOL     OW 6473   0.811   3.664  10.372  0.1390  0.4609 -0.7464
33718SOL    HW1 6474   0.771   3.662  10.459 -1.6790 -0.3069 -1.5324
33718SOL    HW2 6475   0.844   3.753  10.362  1.1043  0.3430  1.0131
33719SOL     OW 6476   2.122  11.199   0.984  0.7108 -0.0489  0.3780
33719SOL    HW1 6477   2.127  11.106   1.007 -0.5440  0.3306  2.4597
33719SOL    HW2 6478   2.213  11.225   0.971  1.2046 -1.2581  1.1879
33720SOL     OW 6479   5.138  11.337   3.014 -0.1000 -0.2160 -0.0477
33720SOL    HW1 6480   5.115  11.380   2.932 -0.0855  1.7191  0.9045
33720SOL    HW2 6481   5.225  11.301   2.998  0.4392  1.2130 -0.5430
33721SOL     OW 6482   9.072   1.028   6.400  0.1590 -0.0716  0.7848
33721SOL    HW1 6483   8.999   1.006   6.458  0.8668 -0.6079  1.4719
33721SOL    HW2 6484   9.097   1.117   6.426  0.1472 -0.1206  0.9662
33722SOL     OW 6485   0.811   9.168   1.960  0.2516  0.3742 -0.7181
33722SOL    HW1 6486   0.871   9.243   1.960 -1.3575  1.7201  0.0376
33722SOL    HW2 6487   0.783   9.159   1.869  0.7754  0.4026 -0.8874
33723SOL     OW 6488   5.569   5.740   2.457 -0.0329  0.1228 -0.2920
33723SOL    HW1 6489   5.487   5.760   2.412 -1.0169  0.0745  1.4112
33723SOL    HW2 6490   5.558   5.777   2.545  0.5593 -2.4128  0.9404
33724SOL     OW 6491   1.191   3.396   1.595  0.2633 -0.0014  0.3186
33724SOL    HW1 6492   1.110   3.440   1.621 -0.1982 -1.2823  1.1277
33724SOL    HW2 6493   1.251   3.413   1.668  0.9830  1.5171 -0.5806
33725SOL     OW 6494   8.658   7.474   1.893 -0.5350 -0.3396 -0.2278
33725SOL    HW1 6495   8.649   7.530   1.816  0.0911  0.2274  0.1024
33725SOL    HW2 6496   8.608   7.396   1.872 -0.0695 -0.3436 -1.3649
33726SOL     OW 6497   8.317   0.552   3.232  0.5525 -0.6199 -0.1150
33726SOL    HW1 6498   8.231   0.532   3.269  1.4278 -0.3983  2.1800
33726SOL    HW2 6499   8.317   0.647   3.221  0.3330 -0.6746 -0.6355
33727SOL     OW 6500   4.811   6.078   2.304  0.1703  0.4153 -0.3943
33727SOL    HW1 6501   4.730   6.120   2.336  1.2612  0.6502  2.3453
33727SOL    HW2 6502   4.881   6.127   2.347  1.6493 -1.6496 -0.3376
33728SOL     OW 6503   2.105   5.123   6.964 -0.4332  0.1510  0.6298
33728SOL    HW1 6504   2.018   5.085   6.952 -1.8311  3.4350 -0.8953
33728SOL    HW2 6505   2.089   5.217   6.973  2.8473  0.6821  2.5302
33729SOL     OW 6506   1.274   8.291   4.309  0.2894 -0.2658 -0.2876
33729SOL    HW1 6507   1.205   8.355   4.291 -0.8707 -0.9787  1.3889
33729SOL    HW2 6508   1.288   8.246   4.225 -3.3944 -2.0726 -0.1068
33730SOL     OW 6509   3.936   6.513   3.012 -1.0556 -0.2741 -0.7115
33730SOL    HW1 6510   3.861   6.486   3.064 -0.8031  1.3433  0.5814
33730SOL    HW2 6511   3.901   6.577   2.950 -1.2199 -1.6423 -2.0855
33731SOL     OW 6512   9.627   1.265   3.422 -0.8823  0.0819  0.4631
33731SOL    HW1 6513   9.634   1.272   3.327 -0.6136  0.3414  0.4997
33731SOL    HW2 6514   9.628   1.356   3.453 -2.5729  0.0771  0.6038
33732SOL     OW 6515   5.729   6.260   8.107  0.0770  0.1007  0.8649
33732SOL    HW1 6516   5.755   6.341   8.150  0.1948 -0.3317  1.6264
33732SOL    HW2 6517   5.640   6.277   8.075 -0.1247  0.3289  1.5452
33733SOL     OW 6518  10.650   8.855   1.212 -0.2807 -0.1396  0.4011
33733SOL    HW1 6519  10.691   8.776   1.178 -1.6707 -0.4464 -0.6036
33733SOL    HW2 6520  10.600   8.890   1.139 -0.1720  1.3492  1.0109
33734SOL     OW 6521  10.288   5.758   7.081 -0.3757 -0.4098 -0.1874
33734SOL    HW1 6522  10.349   5.753   7.007 -0.2789  1.9888 -0.3480
33734SOL    HW2 6523  10.338   5.803   7.149 -1.2828 -0.3294  0.4336
33735SOL     OW 6524   5.556   6.963   6.567 -0.5323  0.6314 -0.3032
33735SOL    HW1 6525   5.468   6.973   6.604 -0.8287  3.0219 -1.4397
33735SOL    HW2 6526   5.561   7.030   6.498  0.9950 -1.7035 -2.6501
33736SOL     OW 6527   2.410   2.550   9.209  0.7542  0.3234  0.0350
33736SOL    HW1 6528   2.438   2.462   9.185 -0.7617  0.4143 -2.3808
33736SOL    HW2 6529   2.442   2.607   9.139 -0.4120  1.2964  0.2445
33737SOL     OW 6530   5.527   8.612   3.391 -0.1809  0.4757  0.0158
33737SOL    HW1 6531   5.440   8.592   3.357  0.5621 -0.6809 -1.2912
33737SOL    HW2 6532   5.547   8.700   3.359 -1.1822  1.1192  1.0584
33738SOL     OW 6533   9.690   6.339   2.102  0.4265 -0.2914  0.1703
33738SOL    HW1 6534   9.774   6.367   2.137  0.4543 -0.2364  0.0594
33738SOL    HW2 6535   9.688   6.373   2.012  0.1845 -0.0925  0.2502
33739SOL     OW 6536   2.749   2.108   9.522 -0.6109 -0.1114 -0.3816
33739SOL    HW1 6537   2.744   2.120   9.427  0.6064 -0.7470 -0.5476
33739SOL    HW2 6538   2.818   2.043   9.534 -0.9520 -0.2563  0.9317
33740SOL     OW 6539   1.667   6.375  10.900 -0.2191 -0.1858  0.1888
33740SOL    HW1 6540   1.626   6.353  10.816  1.0493  0.2654 -0.5831
33740SOL    HW2 6541   1.665   6.471  10.903  0.5134 -0.1696  0.2597
33741SOL     OW 6542   2.577   4.411  11.243  0.2252  0.2450  0.3710
33741SOL    HW1 6543   2.600   4.406  11.336 -0.8896  0.9192  0.7113
33741SOL    HW2 6544   2.483   4.390  11.241  0.4039 -0.5495 -0.7081
33742SOL     OW 6545   6.615   9.257   3.572 -0.3091  0.2560  0.4191
33742SOL    HW1 6546   6.549   9.322   3.596  0.6069  0.5323  2.4507
33742SOL    HW2 6547   6.697   9.307   3.568  0.3131 -0.6407  1.4493
33743SOL     OW 6548   9.762   0.465   1.164  0.1092 -0.6271 -0.1071
33743SOL    HW1 6549   9.752   0.559   1.155 -0.7680 -0.5192  1.6295
33743SOL    HW2 6550   9.672   0.431   1.158  0.4454 -1.4029 -1.0180
33744SOL     OW 6551   5.387   7.629   4.847 -0.3372  0.6448  0.4840
33744SOL    HW1 6552   5.414   7.605   4.759 -0.2666  2.0320  0.1109
33744SOL    HW2 6553   5.292   7.618   4.847 -0.3219  0.5061  0.2836
33745SOL     OW 6554  10.948   7.092   6.061 -0.0112 -0.2435  0.3423
33745SOL    HW1 6555  10.863   7.090   6.105 -0.3268  1.0580 -0.1564
33745SOL    HW2 6556  10.931   7.059   5.973  0.0268 -0.0663  0.2692
33746SOL     OW 6557   2.309   9.674   6.225  0.8573 -0.0222  0.3426
33746SOL    HW1 6558   2.357   9.684   6.307 -1.5034  0.4085  1.7642
33746SOL    HW2 6559   2.265   9.590   6.232 -1.3681  1.0936  0.7181
33747SOL     OW 6560   6.942   9.285   4.251  0.2772 -0.3902 -0.2916
33747SOL    HW1 6561   6.946   9.281   4.346  1.0229 -0.0751 -0.2988
33747SOL    HW2 6562   6.927   9.195   4.223  3.0272 -1.0594  0.0284
33748SOL     OW 6563   2.612   6.255   6.934 -0.0086  0.4961 -0.0586
33748SOL    HW1 6564   2.583   6.341   6.965 -0.7332  0.1823  0.1353
33748SOL    HW2 6565   2.689   6.236   6.988 -1.1885  0.0060  1.5463
33749SOL     OW 6566   2.284   9.763   4.185  0.1676  0.1806  0.2782
33749SOL    HW1 6567   2.197   9.744   4.151  0.2804  1.0634 -0.5514
33749SOL    HW2 6568   2.307   9.847   4.146  0.9906  0.4303  1.2662
33750SOL     OW 6569   6.755  11.379   0.096  0.3736  0.4520 -0.0034
33750SOL    HW1 6570   6.663  11.395   0.114  0.5049  1.0873  0.1573
33750SOL    HW2 6571   6.799  11.458   0.128  1.0201 -0.0330  0.3227
33751SOL     OW 6572  11.181   8.379   2.429  0.2687 -0.3370 -0.3227
33751SOL    HW1 6573  11.220   8.329   2.501  3.8223 -0.6600 -2.2890
33751SOL    HW2 6574  11.154   8.312   2.366 -1.2710  0.0313 -0.1011
33752SOL     OW 6575   9.698   7.190   5.989  0.3468  0.2154  0.2397
33752SOL    HW1 6576   9.657   7.107   5.964  1.3679  0.2844 -1.8538
33752SOL    HW2 6577   9.625   7.244   6.020 -0.6259 -0.8080 -0.1883
33753SOL     OW 6578   6.454   2.542   0.698 -0.0425  0.1595 -0.3433
33753SOL    HW1 6579   6.518   2.478   0.727 -0.7711 -0.8735 -0.9648
33753SOL    HW2 6580   6.500   2.626   0.702 -0.2543  0.3899  4.6331
33754SOL     OW 6581   4.395  11.127   9.412  0.3725 -0.2220  0.5118
33754SOL    HW1 6582   4.408  11.034   9.395  0.4828 -1.0166  4.1222
33754SOL    HW2 6583   4.484  11.163   9.419  0.3731 -0.3612  1.3088
33755SOL     OW 6584   2.213   8.798  10.853 -0.0730  0.6117 -0.0621
33755SOL    HW1 6585   2.279   8.768  10.790  0.5710  0.6342  0.5844
33755SOL    HW2 6586   2.260   8.801  10.937 -1.3431 -1.0479  0.7639
33756SOL     OW 6587   8.615   2.369   5.496 -0.2942  0.6844  0.3351
33756SOL    HW1 6588   8.612   2.273   5.497 -1.9647  0.7103 -0.4383
33756SOL    HW2 6589   8.658   2.390   5.414 -0.7310  0.6065  0.0854
33757SOL     OW 6590   4.862   5.045   0.885  0.7017 -0.7675  0.0860
33757SOL    HW1 6591   4.904   5.130   0.896 -0.6932  0.4447 -2.9036
33757SOL    HW2 6592   4.795   5.043   0.953 -0.4605  1.4112 -0.8962
33758SOL     OW 6593   5.734   8.423   2.846  0.0737 -0.0916  1.2099
33758SOL    HW1 6594   5.730   8.357   2.916 -3.5626  0.9553  2.1695
33758SOL    HW2 6595   5.715   8.506   2.890  1.7007  1.2220 -0.4453
33759SOL     OW 6596   6.434   4.542   0.738  0.5917 -0.1267 -0.1718
33759SOL    HW1 6597   6.371   4.588   0.684  0.9969  0.3121 -0.2740
33759SOL    HW2 6598   6.409   4.564   0.828  0.1364 -0.5718 -0.1840
33760SOL     OW 6599   8.800   1.371   8.508  0.8959 -0.7377  0.5332
33760SOL    HW1 6600   8.829   1.376   8.417  0.0717  0.1499  0.2979
33760SOL    HW2 6601   8.849   1.298   8.545  2.7399  0.1536 -0.0578
33761SOL     OW 6602   8.465   4.754   3.657  0.1693 -0.4873 -0.3350
33761SOL    HW1 6603   8.513   4.751   3.574  0.1080 -0.3959 -0.3737
33761SOL    HW2 6604   8.533   4.745   3.724  0.2192 -0.5618 -0.3951
33762SOL     OW 6605  11.050   8.593   0.802  0.4448  0.1207  0.2454
33762SOL    HW1 6606  11.058   8.518   0.742 -2.5720  0.5918 -0.9431
33762SOL    HW2 6607  11.071   8.557   0.888 -2.5322 -2.6888 -0.0041
33763SOL     OW 6608   3.051   7.842   0.283  0.8441  0.0682  0.3204
33763SOL    HW1 6609   3.066   7.887   0.365  1.3145 -0.2946  0.4407
33763SOL    HW2 6610   2.965   7.873   0.253  1.1713  1.0456  0.3816
33764SOL     OW 6611   5.679   0.497  10.552 -0.1600  0.2749  0.0045
33764SOL    HW1 6612   5.605   0.514  10.495  0.7859  1.0786 -1.0153
33764SOL    HW2 6613   5.641   0.491  10.640 -1.6735 -1.2401 -0.6891
33765SOL     OW 6614   4.033   9.554   1.221  0.1198 -0.3760 -0.0747
33765SOL    HW1 6615   3.943   9.523   1.209 -0.7521  1.8587  0.2156
33765SOL    HW2 6616   4.049   9.548   1.315  0.6299 -1.6209 -0.2270
33766SOL     OW 6617  11.605   9.825   5.724 -0.7941  0.8966 -0.1058
33766SOL    HW1 6618  11.511   9.811   5.720 -0.8517  1.4129 -0.6765
33766SOL    HW2 6619  11.630   9.796   5.812 -1.5975  1.4605  0.3168
33767SOL     OW 6620   0.132   6.986  11.623 -0.3389 -0.0709  0.1139
33767SOL    HW1 6621   0.144   7.080  11.640 -1.1374  0.0849 -0.1256
33767SOL    HW2 6622   0.217   6.957  11.591 -0.3014  0.7572 -0.6050
33768SOL     OW 6623   4.512   7.591   8.044  0.0471  0.1518 -0.3094
33768SOL    HW1 6624   4.455   7.596   7.968 -2.0117 -2.0919  0.9410
33768SOL    HW2 6625   4.454   7.605   8.119  1.6845  0.6449  0.9330
33769SOL     OW 6626   1.786   8.257   6.431  0.0985  0.0627  0.6056
33769SOL    HW1 6627   1.799   8.168   6.396 -0.4840  0.0255  0.4687
33769SOL    HW2 6628   1.702   8.251   6.478  0.2338  0.4517  0.8931
33770SOL     OW 6629   5.761   3.373   3.004 -0.6480  0.0721 -0.4544
33770SOL    HW1 6630   5.825   3.407   2.942 -0.4952 -1.2475 -1.0589
33770SOL    HW2 6631   5.794   3.398   3.090 -0.1956  0.8288 -0.8438
33771SOL     OW 6632   1.463   0.353   1.532  0.2697  0.1910  0.4246
33771SOL    HW1 6633   1.459   0.377   1.624 -0.1141  0.8733  0.2358
33771SOL    HW2 6634   1.373   0.332   1.508  0.6789 -2.1380  0.7482
33772SOL     OW 6635   0.647   5.162   3.908  0.2170  0.4388  0.1398
33772SOL    HW1 6636   0.639   5.067   3.918 -0.8244  0.4475 -0.4460
33772SOL    HW2 6637   0.728   5.184   3.952 -0.3585 -0.5052  1.7529
33773SOL     OW 6638   5.580   1.018   6.905  0.0809  0.6829 -0.0253
33773SOL    HW1 6639   5.611   1.060   6.825 -1.6206  1.1023 -0.4979
33773SOL    HW2 6640   5.487   1.039   6.909 -0.3410 -1.1498  0.9280
33774SOL     OW 6641   2.204   1.150   3.140  0.0241  0.3520 -0.1314
33774SOL    HW1 6642   2.124   1.187   3.176 -0.4493 -0.3119 -0.4676
33774SOL    HW2 6643   2.181   1.125   3.051  0.4051 -0.4744 -0.0109
33775SOL     OW 6644   2.322   1.019  10.800  0.3764  0.1290 -0.4436
33775SOL    HW1 6645   2.392   0.956  10.819 -0.5348 -0.9778 -0.6190
33775SOL    HW2 6646   2.350   1.064  10.720  1.0172 -0.0994 -0.3497
33776SOL     OW 6647   5.676  10.910   7.358  0.0493  0.1092  0.0780
33776SOL    HW1 6648   5.767  10.884   7.374 -0.0843 -0.6367 -0.3210
33776SOL    HW2 6649   5.659  10.882   7.268 -0.5398  0.3573  0.1096
33777SOL     OW 6650  11.494   4.371  11.544  0.1882 -0.1486  0.6544
33777SOL    HW1 6651  11.481   4.461  11.515  0.4674 -0.8879 -2.0246
33777SOL    HW2 6652  11.409   4.344  11.579 -0.2193  0.7849  0.4168
33778SOL     OW 6653   3.681   0.639   8.737 -0.6721 -0.1034  0.1016
33778SOL    HW1 6654   3.755   0.597   8.693 -0.7242  0.2976 -0.3807
33778SOL    HW2 6655   3.653   0.707   8.675 -1.1924  0.0015  0.4552
33779SOL     OW 6656  10.334  10.711   4.307  0.1276 -0.5399 -0.1574
33779SOL    HW1 6657  10.247  10.678   4.328 -1.2280  1.4174 -2.3577
33779SOL    HW2 6658  10.353  10.775   4.375 -1.6618  1.4593 -1.4514
33780SOL     OW 6659   3.243   4.884   7.929  0.5873  0.1472 -0.1896
33780SOL    HW1 6660   3.335   4.908   7.940  0.7139 -0.9874  1.7709
33780SOL    HW2 6661   3.194   4.952   7.976  0.5592 -0.2770  0.4000
33781SOL     OW 6662   3.465   9.679   2.971  0.3914 -0.7227 -0.1756
33781SOL    HW1 6663   3.418   9.596   2.962 -2.8768  0.8464  0.9303
33781SOL    HW2 6664   3.483   9.686   3.065 -2.9910  1.4800  0.4587
33782SOL     OW 6665   6.435   1.442  10.386  0.7403  0.3330  0.4926
33782SOL    HW1 6666   6.364   1.382  10.409  0.5006  0.6240  0.5153
33782SOL    HW2 6667   6.515   1.394  10.408  0.5751 -0.2424 -0.1118
33783SOL     OW 6668   2.509  10.027   9.778 -0.5851 -0.1600  0.6661
33783SOL    HW1 6669   2.512  10.083   9.856 -0.8766 -0.4557  0.8955
33783SOL    HW2 6670   2.420  10.039   9.744 -0.0914  0.8684 -0.2993
33784SOL     OW 6671  11.193   9.462   4.844  0.3886 -0.0845 -0.2660
33784SOL    HW1 6672  11.148   9.534   4.890 -1.0654 -0.5875 -0.8256
33784SOL    HW2 6673  11.284   9.490   4.838 -0.1019  1.6042 -0.2509
33785SOL     OW 6674   1.512   8.987  10.409 -0.4043 -0.4007  0.2038
33785SOL    HW1 6675   1.502   8.900  10.446 -1.3752 -0.3282  0.1488
33785SOL    HW2 6676   1.606   8.998  10.396 -0.2961 -1.5459 -0.0601
33786SOL     OW 6677   9.937   5.065   2.916 -0.0180  0.0786  0.2602
33786SOL    HW1 6678   9.973   4.994   2.969 -0.2528  0.7902  1.4036
33786SOL    HW2 6679   9.859   5.093   2.963 -0.4496  0.4820 -0.6721
33787SOL     OW 6680   8.984   2.225   7.520  0.1343 -0.3303 -0.4717
33787SOL    HW1 6681   9.041   2.238   7.596  2.4172 -0.6704 -2.0409
33787SOL    HW2 6682   8.963   2.314   7.491 -0.4393 -0.2002  0.3044
33788SOL     OW 6683   2.751   6.487  10.553 -0.4349  0.1670 -0.1662
33788SOL    HW1 6684   2.756   6.581  10.532 -0.2043 -0.0896 -1.3351
33788SOL    HW2 6685   2.658   6.471  10.568 -0.3726  0.7548  0.9495
33789SOL     OW 6686  11.209   0.934  10.190  0.5983  0.3846  0.0943
33789SOL    HW1 6687  11.174   1.000  10.131 -1.0274 -0.0390  0.5265
33789SOL    HW2 6688  11.266   0.880  10.136  0.7744  1.2468 -0.5938
33790SOL     OW 6689   4.585  10.993   1.537  0.9286 -0.6394 -0.3376
33790SOL    HW1 6690   4.553  11.083   1.531  1.6421 -0.1523  2.0867
33790SOL    HW2 6691   4.671  10.996   1.495  0.7818 -0.2614 -0.6153
33791SOL     OW 6692   2.450   4.141   5.579 -0.9583 -0.2338 -0.0533
33791SOL    HW1 6693   2.510   4.068   5.591 -1.4232 -0.7065 -0.5677
33791SOL    HW2 6694   2.363   4.104   5.594 -1.2567  0.0258 -1.0220
33792SOL     OW 6695   7.117   0.693   1.057 -0.2793  0.2441  0.1094
33792SOL    HW1 6696   7.142   0.607   1.022  0.9597  0.0922  1.2383
33792SOL    HW2 6697   7.196   0.747   1.045  0.4013  0.0450  2.9272
33793SOL     OW 6698   2.943   3.021   7.250 -0.4531 -0.2248  0.2449
33793SOL    HW1 6699   2.911   3.105   7.218  1.5657  0.9679  1.1913
33793SOL    HW2 6700   3.036   3.035   7.268  1.2294 -3.8530 -3.7524
33794SOL     OW 6701   7.535   2.184   0.293 -0.2040 -0.2317 -0.3504
33794SOL    HW1 6702   7.533   2.098   0.334 -1.9927  0.1336  0.4101
33794SOL    HW2 6703   7.494   2.171   0.207  1.2096 -0.4707 -1.0276
33795SOL     OW 6704  10.015  10.079   6.605  0.2942  0.8916 -0.9055
33795SOL    HW1 6705   9.924  10.055   6.590  0.4020  1.0002 -1.8132
33795SOL    HW2 6706  10.055  10.000   6.642  0.1215  0.4118 -1.7189
33796SOL     OW 6707   7.479   7.862   7.723 -0.3013 -0.0940 -0.6112
33796SOL    HW1 6708   7.446   7.940   7.678 -1.2428 -0.4431 -0.5525
33796SOL    HW2 6709   7.443   7.869   7.812 -1.7937 -1.4008 -1.0686
33797SOL     OW 6710   9.269   4.767   7.436  0.6784 -0.1025 -0.7857
33797SOL    HW1 6711   9.342   4.749   7.496 -1.6211  0.2347  2.3641
33797SOL    HW2 6712   9.258   4.862   7.441  0.1891 -0.1221 -1.4637
33798SOL     OW 6713   5.578   3.901   7.416  0.2623 -0.3691 -0.0103
33798SOL    HW1 6714   5.654   3.870   7.465  1.2558  0.2376 -1.1073
33798SOL    HW2 6715   5.615   3.963   7.352 -0.9031 -1.4682 -1.8235
33799SOL     OW 6716   7.191   6.246   6.579 -0.1918 -0.2397  0.0578
33799SOL    HW1 6717   7.237   6.240   6.663  1.6303  0.7636 -0.7968
33799SOL    HW2 6718   7.134   6.322   6.588  0.1434 -0.0148  0.3389
33800SOL     OW 6719   3.457   2.363   8.646  0.4219  0.0887  0.0635
33800SOL    HW1 6720   3.511   2.351   8.568  0.7088  0.5301  0.1917
33800SOL    HW2 6721   3.393   2.292   8.642  1.6989 -1.1254  0.4974
33801SOL     OW 6722   2.702   6.769  10.535  0.4812  0.0117  0.8853
33801SOL    HW1 6723   2.643   6.844  10.533 -1.3063 -1.2828  2.1003
33801SOL    HW2 6724   2.789   6.808  10.543 -0.1707  1.9822 -0.7037
33802SOL     OW 6725   7.449  11.225   7.040  0.0222  0.3257 -0.0717
33802SOL    HW1 6726   7.408  11.200   7.123 -0.1422 -1.9480 -0.7582
33802SOL    HW2 6727   7.514  11.156   7.025  0.5272  1.0811 -1.4898
33803SOL     OW 6728  11.437  10.174   8.078  0.3160  0.1134  0.0523
33803SOL    HW1 6729  11.442  10.148   8.170  0.6301  1.9082  0.5895
33803SOL    HW2 6730  11.357  10.134   8.046 -1.2504  1.6056  1.8665
33804SOL     OW 6731   5.961   7.315   2.289  0.6882 -0.3789 -0.6130
33804SOL    HW1 6732   5.944   7.328   2.382  2.1960 -1.7503 -0.0978
33804SOL    HW2 6733   5.969   7.403   2.253  0.4440  0.1626  0.6214
33805SOL     OW 6734   4.624   9.728   1.448 -0.3942  0.2977 -0.2312
33805SOL    HW1 6735   4.551   9.673   1.476  1.0029 -1.5538 -0.0455
33805SOL    HW2 6736   4.662   9.762   1.529 -0.8125  0.9544 -0.3068
33806SOL     OW 6737   2.242   2.045  11.579 -0.0250  0.0748 -0.2733
33806SOL    HW1 6738   2.248   1.969  11.637  0.0110 -0.7582 -1.3398
33806SOL    HW2 6739   2.314   2.102  11.607  0.3962 -0.6179  0.0889
33807SOL     OW 6740   3.140   8.954   9.807  0.2694  0.3312  0.2643
33807SOL    HW1 6741   3.119   9.031   9.754 -2.1898 -0.5719 -0.2155
33807SOL    HW2 6742   3.134   8.986   9.897 -1.6551  0.5748  0.0999
33808SOL     OW 6743   2.078   7.994   4.088 -0.3437 -0.0750 -0.0994
33808SOL    HW1 6744   2.150   8.054   4.067 -1.5962  1.0611 -1.3756
33808SOL    HW2 6745   2.048   8.023   4.174  0.3481 -0.2038  0.1973
33809SOL     OW 6746   9.341   6.224   9.304 -0.4575 -0.2258 -0.2957
33809SOL    HW1 6747   9.276   6.286   9.338 -0.7778 -0.3332 -0.7031
33809SOL    HW2 6748   9.291   6.169   9.244 -0.3954 -1.5346  0.8057
33810SOL     OW 6749  10.042   3.968   9.056 -0.0376 -0.3226  0.2303
33810SOL    HW1 6750  10.114   3.911   9.026 -0.0217 -0.9989  1.5028
33810SOL    HW2 6751  10.054   4.049   9.006  0.2000 -1.2510 -1.3036
33811SOL     OW 6752   1.808   6.327   2.155  0.3573 -0.1423  0.3638
33811SOL    HW1 6753   1.841   6.382   2.225  0.1556 -1.7231  1.7581
33811SOL    HW2 6754   1.780   6.246   2.198 -0.8900 -0.7164 -1.3795
33812SOL     OW 6755   7.070   0.246   3.142 -0.8656  0.3698  0.1043
33812SOL    HW1 6756   7.044   0.194   3.066 -0.4732  2.1458 -1.2991
33812SOL    HW2 6757   6.997   0.305   3.156 -0.6494  0.4965  0.7209
33813SOL     OW 6758   9.283   2.938  10.555 -0.3380 -0.3033  0.5966
33813SOL    HW1 6759   9.241   2.856  10.528  0.2148 -0.5384  0.4214
33813SOL    HW2 6760   9.290   2.931  10.650  0.9074 -1.0707  0.4722
33814SOL     OW 6761   8.597   2.684   9.820  0.2715 -0.3307  0.4771
33814SOL    HW1 6762   8.633   2.759   9.773 -0.4035  0.5058  1.2506
33814SOL    HW2 6763   8.505   2.680   9.792 -0.2053  0.3105  1.8112
33815SOL     OW 6764   3.320   9.318   0.133 -0.5515  0.7314 -0.3534
33815SOL    HW1 6765   3.287   9.230   0.117  0.4336  0.0634  1.0503
33815SOL    HW2 6766   3.413   9.313   0.109 -0.2099  1.0379  0.8229
33816SOL     OW 6767  11.672   2.118  10.441 -0.0402  0.2659  0.0338
33816SOL    HW1 6768  11.666   2.214  10.437 -0.4222  0.2578  0.3157
33816SOL    HW2 6769  11.586   2.090  10.472 -0.7860 -0.3472 -2.4166
33817SOL     OW 6770   6.942  11.094   6.421  0.0185 -0.2585  0.1812
33817SOL    HW1 6771   6.953  11.002   6.443  0.2672 -0.4185 -0.5675
33817SOL    HW2 6772   7.024  11.136   6.447 -0.5743  0.0041  1.7024
33818SOL     OW 6773   4.938   0.335   6.633  0.0094  0.1451  0.3274
33818SOL    HW1 6774   4.845   0.358   6.641  0.1058  0.8220 -0.3852
33818SOL    HW2 6775   4.951   0.321   6.539  0.2124 -1.7979  0.6092
33819SOL     OW 6776   9.420  11.740   3.557 -0.1627  0.2308  0.1766
33819SOL    HW1 6777   9.374  11.766   3.477  1.1599  0.4469 -0.5460
33819SOL    HW2 6778   9.394  11.805   3.622 -1.9679 -0.4758  0.1929
33820SOL     OW 6779   4.961   6.481   1.961 -0.3890 -0.4629 -0.3938
33820SOL    HW1 6780   4.928   6.410   2.015  1.5858  0.4633  2.2931
33820SOL    HW2 6781   4.907   6.557   1.985  0.2280 -0.1417  0.0193
33821SOL     OW 6782   4.059   5.640   9.641 -0.5663 -0.5578  0.2654
33821SOL    HW1 6783   4.013   5.704   9.695 -2.2278 -0.4887 -1.1295
33821SOL    HW2 6784   4.145   5.632   9.681 -0.7537  1.5753  1.2386
33822SOL     OW 6785   0.813  11.341   6.092 -0.6388  0.0374  0.1765
33822SOL    HW1 6786   0.838  11.405   6.159  2.7527 -3.0782  2.1891
33822SOL    HW2 6787   0.881  11.348   6.025 -0.3802 -1.2753  0.2896
33823SOL     OW 6788   2.989   4.860   1.214  0.2137 -0.3276 -0.3513
33823SOL    HW1 6789   3.046   4.788   1.190  1.6865  1.1461 -1.5539
33823SOL    HW2 6790   3.047   4.923   1.258 -0.6662  0.7991 -0.7349
33824SOL     OW 6791   3.625   0.395   1.689  0.2684  0.9500 -0.1094
33824SOL    HW1 6792   3.669   0.444   1.759 -0.0361  1.5768 -0.3451
33824SOL    HW2 6793   3.657   0.436   1.608  2.0670 -0.9499 -0.4597
33825SOL     OW 6794   6.978  10.883   7.691  0.9080  0.1483 -0.3542
33825SOL    HW1 6795   7.071  10.867   7.706  0.8349 -1.7827 -1.5175
33825SOL    HW2 6796   6.936  10.857   7.773  1.4466  2.5394  0.7631
33826SOL     OW 6797   5.524   4.797   3.321 -0.6180  0.1595 -0.3496
33826SOL    HW1 6798   5.497   4.754   3.240  0.0784 -0.8316 -0.0658
33826SOL    HW2 6799   5.609   4.835   3.301 -0.2473 -0.4598  0.0432
33827SOL     OW 6800   9.182   4.388   8.612 -0.4657  0.0617 -0.3571
33827SOL    HW1 6801   9.087   4.384   8.627 -0.6525  0.2959 -1.4258
33827SOL    HW2 6802   9.199   4.479   8.590 -0.3695 -0.4084 -2.4250
33828SOL     OW 6803   6.299   3.637   0.036 -0.1086  0.5461 -0.0239
33828SOL    HW1 6804   6.216   3.682   0.022 -0.5038  0.1095  0.8309
33828SOL    HW2 6805   6.360   3.706   0.061 -0.5857  0.6912  0.7757
33829SOL     OW 6806   0.494  10.339   9.394 -0.8026 -0.3276  0.1217
33829SOL    HW1 6807   0.494  10.249   9.361 -1.6694 -0.5993  0.8384
33829SOL    HW2 6808   0.437  10.387   9.334 -0.5020 -0.2859 -0.1395
33830SOL     OW 6809   4.658   9.175  10.370 -0.2004 -0.0078  0.4170
33830SOL    HW1 6810   4.624   9.118  10.439 -1.6985  2.2797  1.6881
33830SOL    HW2 6811   4.581   9.195  10.316  0.5762 -0.2134 -0.8065
33831SOL     OW 6812   8.350   8.084   1.440 -0.5472 -0.3423 -0.0574
33831SOL    HW1 6813   8.391   8.094   1.526 -1.9756  3.4340  0.3955
33831SOL    HW2 6814   8.414   8.123   1.379 -1.3834  1.2378  0.0172
33832SOL     OW 6815   6.818   8.839   1.301  0.6364 -0.2232 -0.0120
33832SOL    HW1 6816   6.905   8.833   1.260  1.2163 -0.6538  1.2520
33832SOL    HW2 6817   6.801   8.752   1.335 -0.4794 -0.2424 -0.5539
33833SOL     OW 6818   1.881  11.136   1.104  0.2665  0.9246 -0.1570
33833SOL    HW1 6819   1.828  11.097   1.034  1.5146 -0.0152 -0.6173
33833SOL    HW2 6820   1.961  11.166   1.061  0.6123  1.2757  0.7008
33834SOL     OW 6821   7.499   3.703   2.202  0.4726  0.0614 -0.1703
33834SOL    HW1 6822   7.541   3.691   2.117  0.1151 -0.4784 -0.2750
33834SOL    HW2 6823   7.554   3.656   2.264 -0.0165 -0.7289 -0.3223
33835SOL     OW 6824   3.472   1.393   0.043  0.2689 -0.2505  0.4172
33835SOL    HW1 6825   3.446   1.485   0.055  0.5391 -0.1464  0.2297
33835SOL    HW2 6826   3.521   1.371   0.122  0.5678 -0.1019  0.2730
33836SOL     OW 6827  11.806   9.138   9.742  0.0337 -0.1072  0.0848
33836SOL    HW1 6828  11.796   9.043   9.744  1.6587 -0.3789 -1.6670
33836SOL    HW2 6829  11.776   9.167   9.828 -1.5121 -2.0751  0.2803
33837SOL     OW 6830   3.206   5.217   8.808  0.2072 -0.0779 -0.3123
33837SOL    HW1 6831   3.179   5.282   8.743 -1.3597  1.0060  1.3392
33837SOL    HW2 6832   3.126   5.192   8.853  1.0331 -1.9244  0.2415
33838SOL     OW 6833   5.180   6.986   1.005  0.1011  0.0696  0.3320
33838SOL    HW1 6834   5.274   6.970   1.018  0.1938 -3.1969 -2.7087
33838SOL    HW2 6835   5.177   7.061   0.946  0.7008  1.0926  1.5695
33839SOL     OW 6836   0.581   5.472   4.857 -0.0575 -0.0941 -0.2453
33839SOL    HW1 6837   0.617   5.420   4.785 -1.8950 -1.4623 -0.2533
33839SOL    HW2 6838   0.552   5.553   4.816  1.9533  0.5952 -0.4126
33840SOL     OW 6839   5.686   8.950   9.045  0.2184  0.0879  0.3802
33840SOL    HW1 6840   5.621   8.946   9.115 -0.6762 -0.2315 -0.4524
33840SOL    HW2 6841   5.712   8.859   9.030  1.7671  0.2943  1.5019
33841SOL     OW 6842   1.607  10.284   0.722  0.2214 -0.0872 -0.2802
33841SOL    HW1 6843   1.562  10.210   0.763  0.4035 -0.0575 -0.0261
33841SOL    HW2 6844   1.546  10.316   0.655 -0.1009 -0.0975  0.0099
33842SOL     OW 6845   3.366   2.739   9.789 -0.1622  0.4991  0.6044
33842SOL    HW1 6846   3.343   2.736   9.696  1.1694  0.5631  0.2480
33842SOL    HW2 6847   3.460   2.758   9.789 -0.3418  1.5352  1.9872
33843SOL     OW 6848  11.118   6.417   3.811  0.1438 -0.2818 -0.2609
33843SOL    HW1 6849  11.034   6.430   3.766 -0.8436 -1.3314  1.1811
33843SOL    HW2 6850  11.165   6.354   3.756 -0.9218 -1.3316 -0.0033
33844SOL     OW 6851   3.496   2.315   1.998  0.0835 -0.3430 -0.2722
33844SOL    HW1 6852   3.442   2.346   1.925 -1.5073  3.5901  2.2565
33844SOL    HW2 6853   3.575   2.369   1.993  1.9540 -2.9704 -1.3236
33845SOL     OW 6854   7.324   6.750  11.671 -0.1948  0.0119 -0.3726
33845SOL    HW1 6855   7.262   6.819  11.694  0.0569  0.3604 -0.7442
33845SOL    HW2 6856   7.385   6.790  11.610 -1.4708 -1.1573 -2.5377
33846SOL     OW 6857   5.791   5.255  10.214 -0.4626 -0.0194 -0.2034
33846SOL    HW1 6858   5.770   5.337  10.258  0.2387  0.2885 -0.4308
33846SOL    HW2 6859   5.780   5.188  10.282 -0.0329  0.3792  0.2620
33847SOL     OW 6860   9.812   2.561   6.598  0.8133 -0.1886 -0.2227
33847SOL    HW1 6861   9.883   2.588   6.540  1.6938  2.3945  1.8436
33847SOL    HW2 6862   9.760   2.641   6.611  0.0395 -0.9341  1.6305
33848SOL     OW 6863   9.372   6.292   3.238  0.0742  0.3623 -0.4912
33848SOL    HW1 6864   9.431   6.242   3.294  0.0985  1.3129  0.3630
33848SOL    HW2 6865   9.328   6.226   3.184  0.1727 -0.5664  0.5330
33849SOL     OW 6866   9.799   5.852   9.710 -0.0341  0.2956  0.1380
33849SOL    HW1 6867   9.891   5.848   9.737 -0.3605 -0.9472  1.2067
33849SOL    HW2 6868   9.765   5.930   9.754  0.6334  1.1083 -0.7490
33850SOL     OW 6869   6.589   6.366   2.499 -0.2014 -0.0482 -0.0828
33850SOL    HW1 6870   6.550   6.392   2.416 -2.1506 -1.2031  0.4288
33850SOL    HW2 6871   6.576   6.441   2.556 -2.3174 -0.6330  0.2613
33851SOL     OW 6872   0.361   8.586   8.258 -0.1248  0.0125  0.1829
33851SOL    HW1 6873   0.356   8.650   8.188  1.8124 -0.1149 -0.1233
33851SOL    HW2 6874   0.287   8.527   8.242  1.3968 -1.2560 -3.0443
33852SOL     OW 6875   3.687   2.257  10.315 -0.3007  0.2292  0.1989
33852SOL    HW1 6876   3.780   2.270  10.297 -0.2798 -0.3985 -0.1592
33852SOL    HW2 6877   3.684   2.189  10.381 -0.5053  0.2509  0.2128
33853SOL     OW 6878   6.811   3.413   2.214  0.4815  0.4585  0.0628
33853SOL    HW1 6879   6.902   3.406   2.245  0.3553  1.6233  0.7755
33853SOL    HW2 6880   6.777   3.490   2.260 -1.5202 -1.1453  1.3848
33854SOL     OW 6881   7.739   9.072   3.819  0.6090 -0.1199  0.6536
33854SOL    HW1 6882   7.786   8.991   3.839  1.0089  0.3314  1.6340
33854SOL    HW2 6883   7.761   9.091   3.728  3.0642  0.5259  1.3021
33855SOL     OW 6884   8.622   1.547  11.818 -0.0648  0.0179  0.1311
33855SOL    HW1 6885   8.587   1.578  11.734 -0.5681 -1.3131 -0.1689
33855SOL    HW2 6886   8.557   1.577  11.882 -1.1695 -1.3722 -0.2882
33856SOL     OW 6887   4.776   3.321   9.538  0.1092 -0.0199  0.2948
33856SOL    HW1 6888   4.742   3.243   9.494  0.2076 -0.4625  0.9887
33856SOL    HW2 6889   4.707   3.387   9.527 -0.5368 -0.6009  0.8174
33857SOL     OW 6890   2.439  11.177   3.021 -0.4839  0.0255  0.4061
33857SOL    HW1 6891   2.451  11.254   3.077  0.0388  0.0401  0.2818
33857SOL    HW2 6892   2.492  11.195   2.943 -0.2883 -0.5000  0.4137
33858SOL     OW 6893   1.817   7.303   7.943 -0.0498  0.0913  0.0314
33858SOL    HW1 6894   1.734   7.257   7.940  0.5366 -1.1424  1.4087
33858SOL    HW2 6895   1.794   7.396   7.938 -1.4908 -0.2400  0.2117
33859SOL     OW 6896   6.822   7.419  11.558  0.2690 -0.3020 -0.7696
33859SOL    HW1 6897   6.803   7.327  11.578 -0.6236  0.0154 -0.0914
33859SOL    HW2 6898   6.896   7.415  11.497 -2.1385 -1.6195 -3.8442
33860SOL     OW 6899   3.451   9.070   4.510  0.4406  0.1280 -0.0330
33860SOL    HW1 6900   3.510   9.144   4.524  1.3461 -0.5521 -0.1815
33860SOL    HW2 6901   3.508   8.994   4.503 -0.3573 -0.3701 -1.6480
33861SOL     OW 6902   4.203   2.380   9.064 -0.5823  0.2106  0.1318
33861SOL    HW1 6903   4.118   2.355   9.026  0.0204 -3.5038  0.8362
33861SOL    HW2 6904   4.248   2.297   9.079  3.0178  2.0028  0.3340
33862SOL     OW 6905   3.580   6.351   3.087  0.0731 -0.3352  0.1497
33862SOL    HW1 6906   3.525   6.280   3.055 -1.0955  0.4478  0.3569
33862SOL    HW2 6907   3.623   6.316   3.165  1.7511 -1.7470 -1.3152
33863SOL     OW 6908   3.031   3.548   5.097  0.0277  0.5287  0.1224
33863SOL    HW1 6909   3.002   3.464   5.062  1.7080 -0.3664  0.7572
33863SOL    HW2 6910   3.127   3.544   5.094  0.1800  1.6140  1.9848
33864SOL     OW 6911  11.145   5.128   0.648  0.1849  0.4372  0.1253
33864SOL    HW1 6912  11.097   5.093   0.723  0.0250  0.7989  0.1940
33864SOL    HW2 6913  11.105   5.213   0.632 -0.0465  0.1925 -0.6242
33865SOL     OW 6914   6.023   1.253  10.211 -0.3895 -0.2342  0.2307
33865SOL    HW1 6915   5.963   1.181  10.228  2.0364 -2.8405 -1.3879
33865SOL    HW2 6916   6.060   1.235  10.124  2.2780  1.4857  0.8542
33866SOL     OW 6917   7.212   6.108   6.323  0.0411  0.7350 -0.5408
33866SOL    HW1 6918   7.297   6.086   6.287  0.7384  0.8062  0.9792
33866SOL    HW2 6919   7.231   6.156   6.404 -1.4094 -0.1304  0.3742
33867SOL     OW 6920   3.638   2.330   3.509 -0.2469  0.6536  0.1668
33867SOL    HW1 6921   3.669   2.347   3.420  0.7805  0.2071  0.4238
33867SOL    HW2 6922   3.718   2.329   3.562 -0.6120 -1.2605  0.7389
33868SOL     OW 6923   4.033  10.558   2.553  0.4136 -0.2152  0.0028
33868SOL    HW1 6924   4.042  10.652   2.538  0.1130  0.3402  2.7539
33868SOL    HW2 6925   3.992  10.551   2.639  1.8099 -2.8777  0.5758
33869SOL     OW 6926   4.506   6.812   9.544 -0.6879 -0.1237 -0.0259
33869SOL    HW1 6927   4.421   6.843   9.514 -0.8675 -1.2602 -0.7558
33869SOL    HW2 6928   4.520   6.857   9.628 -1.5177  0.8578 -0.3948
33870SOL     OW 6929   6.810  10.739   1.766  0.4494  0.0606 -0.0241
33870SOL    HW1 6930   6.852  10.811   1.813 -0.7378  1.3289 -0.8311
33870SOL    HW2 6931   6.716  10.758   1.772 -0.0316 -2.2426  1.0253
33871SOL     OW 6932   2.777   3.353   2.605  0.3684  0.1089 -0.2481
33871SOL    HW1 6933   2.762   3.391   2.519 -0.5092 -2.6764 -1.4492
33871SOL    HW2 6934   2.703   3.294   2.618  1.1355 -0.4795  1.8909
33872SOL     OW 6935   8.555   7.222   5.876  0.1606  0.2338 -0.0754
33872SOL    HW1 6936   8.473   7.173   5.884 -1.1259  2.5068  2.0121
33872SOL    HW2 6937   8.614   7.182   5.940  0.1244 -0.3138 -0.3733
33873SOL     OW 6938   7.700   3.944   9.410 -0.1289  0.1700 -0.1898
33873SOL    HW1 6939   7.755   3.913   9.482 -0.9170  2.1530  1.3429
33873SOL    HW2 6940   7.751   4.012   9.367 -0.7689  0.9785  0.3047
33874SOL     OW 6941   0.994   7.371   4.689 -0.1952 -0.1725  0.1704
33874SOL    HW1 6942   0.931   7.304   4.717  0.8405 -0.6509  1.4744
33874SOL    HW2 6943   0.954   7.411   4.612 -0.8981 -2.2124 -0.5863
33875SOL     OW 6944   5.316   9.254   5.611  0.2272 -0.0543 -0.1387
33875SOL    HW1 6945   5.277   9.263   5.698  0.5711  1.8191 -0.1331
33875SOL    HW2 6946   5.324   9.160   5.598 -4.2789 -0.6655 -0.1505
33876SOL     OW 6947  11.213   5.225   6.262 -0.2150 -0.2579 -0.2644
33876SOL    HW1 6948  11.251   5.200   6.178 -1.7768 -1.2355 -0.7193
33876SOL    HW2 6949  11.120   5.203   6.254 -0.3888 -0.4440  1.7526
33877SOL     OW 6950   1.975  10.492   7.148 -0.5170  0.5145 -0.4490
33877SOL    HW1 6951   2.049  10.482   7.208 -1.3119 -0.4431  0.4156
33877SOL    HW2 6952   1.986  10.579   7.111  1.2657  0.2461 -0.6569
33878SOL     OW 6953   4.050  10.589   7.761 -0.4353  0.2827  0.2973
33878SOL    HW1 6954   4.072  10.507   7.716  0.8228  0.0964  1.1916
33878SOL    HW2 6955   3.982  10.629   7.707  0.4608 -0.3036 -1.3264
33879SOL     OW 6956   3.900   4.121   4.841 -0.2582 -0.0245 -0.2262
33879SOL    HW1 6957   3.909   4.030   4.813  0.1122 -0.5840  1.5519
33879SOL    HW2 6958   3.970   4.168   4.796 -0.3782 -0.6379 -1.0656
33880SOL     OW 6959   5.385   9.608   3.966  0.0333 -0.7017 -0.5803
33880SOL    HW1 6960   5.397   9.679   3.904  1.3608  0.3614  0.8192
33880SOL    HW2 6961   5.473   9.589   3.999 -0.7482 -0.2460  1.9756
33881SOL     OW 6962   6.485   7.378  10.893 -0.1775  0.5524 -0.1493
33881SOL    HW1 6963   6.522   7.290  10.899  0.7240  0.8888 -0.6463
33881SOL    HW2 6964   6.401   7.366  10.849 -0.1988 -0.0894  0.0563
33882SOL     OW 6965  10.185   6.981  10.314 -0.0299 -0.2093 -0.1261
33882SOL    HW1 6966  10.221   7.028  10.239 -1.6247  0.2422 -0.6261
33882SOL    HW2 6967  10.176   7.047  10.383 -0.6429 -0.1591 -0.2566
33883SOL     OW 6968   5.831   8.014   1.956  0.0920  0.1362 -0.2738
33883SOL    HW1 6969   5.899   7.975   1.901  1.6876  2.2751  0.0667
33883SOL    HW2 6970   5.786   8.076   1.898 -0.7308 -0.2919 -0.1205
33884SOL     OW 6971   7.756   5.895   4.386 -0.6976 -0.2986  0.2279
33884SOL    HW1 6972   7.802   5.813   4.400 -0.0593  0.0058 -0.0094
33884SOL    HW2 6973   7.682   5.873   4.329  1.0652 -0.2773 -2.2122
33885SOL     OW 6974  10.342   2.868   8.465  0.1659 -0.0379  0.1892
33885SOL    HW1 6975  10.283   2.932   8.425 -0.4594 -0.7551 -0.0511
33885SOL    HW2 6976  10.305   2.852   8.551 -1.2154 -2.0221 -0.6990
33886SOL     OW 6977   0.122   3.603   8.737  0.2694  0.1988  0.4718
33886SOL    HW1 6978   0.097   3.690   8.766  0.1642  0.0351  0.8830
33886SOL    HW2 6979   0.091   3.597   8.647  0.5773  0.7070  0.3302
33887SOL     OW 6980   1.519   7.124   3.043 -0.0686  0.3640  0.4992
33887SOL    HW1 6981   1.468   7.064   2.988  0.2013  0.4764  0.1142
33887SOL    HW2 6982   1.610   7.095   3.031  0.0329  0.6542  0.5570
33888SOL     OW 6983   8.707   8.285   3.467  0.5761 -0.3365  0.0407
33888SOL    HW1 6984   8.762   8.257   3.541 -0.6189 -1.4272  0.5587
33888SOL    HW2 6985   8.692   8.378   3.483  1.9414 -0.0921  0.0760
33889SOL     OW 6986   1.260   2.521   4.680 -0.0445 -0.3947 -0.4041
33889SOL    HW1 6987   1.191   2.524   4.747  1.1081  0.5657  0.7793
33889SOL    HW2 6988   1.267   2.428   4.658 -1.7314 -0.5212 -0.6016
33890SOL     OW 6989   5.820   8.395   7.252 -0.7158  0.1381  0.3859
33890SOL    HW1 6990   5.774   8.430   7.175 -0.9560  0.2190  0.5666
33890SOL    HW2 6991   5.750   8.367   7.311 -0.5431  0.7094  0.8730
33891SOL     OW 6992   1.873  11.622   9.261 -0.4954 -0.5155  0.2143
33891SOL    HW1 6993   1.810  11.694   9.253 -0.8604 -0.7448  0.9439
33891SOL    HW2 6994   1.957  11.662   9.241 -0.8509 -0.1767 -0.6508
33892SOL     OW 6995   8.432   6.693   8.436 -0.0957  0.0277 -0.3441
33892SOL    HW1 6996   8.421   6.784   8.410 -2.3552 -0.5034 -1.4442
33892SOL    HW2 6997   8.343   6.658   8.442  0.6547 -1.7824  1.3404
33893SOL     OW 6998   2.834   9.666   2.112 -0.2305  1.0609 -0.5933
33893SOL    HW1 6999   2.799   9.706   2.032  0.7652 -0.3543 -1.7930
33893SOL    HW2 7000   2.761   9.667   2.173 -1.0730  2.0252 -1.5785
33894SOL     OW 7001  11.020   8.881   8.026 -0.4696 -0.4071 -0.1033
33894SOL    HW1 7002  11.056   8.846   7.945  1.7911 -1.5167  1.2612
33894SOL    HW2 7003  11.058   8.969   8.033 -1.8435  0.2807 -0.9120
33895SOL     OW 7004   0.428   3.504   8.633 -0.0465  0.4298  0.2028
33895SOL    HW1 7005   0.365   3.453   8.685  0.5216 -0.4258  0.0750
33895SOL    HW2 7006   0.374   3.550   8.569 -0.4251 -3.4381 -2.6780
33896SOL     OW 7007   0.198  11.453   4.616  0.0877  0.6196 -0.0375
33896SOL    HW1 7008   0.123  11.459   4.557  1.4899  0.5972 -1.9464
33896SOL    HW2 7009   0.225  11.544   4.630  0.6800  0.5688 -0.7514
33897SOL     OW 7010   6.491   0.137   9.105 -0.0232  0.0611  0.1670
33897SOL    HW1 7011   6.523   0.182   9.183  0.5254  0.2456 -0.1533
33897SOL    HW2 7012   6.532   0.051   9.108  1.3365  0.6346 -0.7459
33898SOL     OW 7013   5.908  10.218   3.386 -0.0672 -0.0220 -0.0272
33898SOL    HW1 7014   5.900  10.211   3.291  1.4806 -2.1273 -0.0523
33898SOL    HW2 7015   5.952  10.302   3.399 -1.4372  0.9215 -1.0335
33899SOL     OW 7016   6.848   9.340   6.322  0.1062 -0.2948 -0.2997
33899SOL    HW1 7017   6.912   9.405   6.294 -0.8344  0.2483 -1.2313
33899SOL    HW2 7018   6.877   9.259   6.280 -0.3415  0.1584 -1.5322
33900SOL     OW 7019   7.583   5.710   1.827 -0.7450  0.2549 -0.8334
33900SOL    HW1 7020   7.609   5.789   1.876 -0.5117  2.0245 -3.5906
33900SOL    HW2 7021   7.487   5.713   1.826 -0.7346  1.6588 -2.5141
33901SOL     OW 7022   5.598   8.341  11.282 -0.4724  0.1078  0.0360
33901SOL    HW1 7023   5.611   8.329  11.187 -0.1938  0.5027  0.0196
33901SOL    HW2 7024   5.520   8.289  11.302 -3.2142  3.3478 -1.2032
33902SOL     OW 7025   7.662  10.235   7.378 -0.4189  0.3345 -1.0463
33902SOL    HW1 7026   7.734  10.205   7.434 -1.5400 -0.3719  0.0689
33902SOL    HW2 7027   7.624  10.309   7.425  0.0600  1.2228 -2.0235
33903SOL     OW 7028   5.934   1.239   9.728  0.1055 -0.3267 -0.4756
33903SOL    HW1 7029   5.879   1.178   9.777  1.1415 -0.6727  0.2884
33903SOL    HW2 7030   5.875   1.310   9.703 -0.7988 -0.9518 -0.1351
33904SOL     OW 7031   9.561  11.577   0.561 -0.3222 -0.3072  0.0774
33904SOL    HW1 7032   9.491  11.523   0.523 -0.5545  0.5020 -0.6635
33904SOL    HW2 7033   9.566  11.653   0.504  1.0416 -0.2569  0.2477
33905SOL     OW 7034   2.427   0.782   0.149  0.2826  0.4129 -0.2752
33905SOL    HW1 7035   2.339   0.745   0.152  0.3956  0.1284 -0.3967
33905SOL    HW2 7036   2.423   0.848   0.080  0.2245  0.2386 -0.4401
33906SOL     OW 7037   5.280   3.775   0.300 -0.3742 -0.5307  0.1024
33906SOL    HW1 7038   5.312   3.688   0.276  3.9899  0.6996  0.5808
33906SOL    HW2 7039   5.264   3.819   0.215 -0.3725 -1.0771 -0.1823
33907SOL     OW 7040   6.485   2.879   8.595  0.0465  0.2305  0.0774
33907SOL    HW1 7041   6.488   2.857   8.688 -0.0372 -0.3268 -0.0488
33907SOL    HW2 7042   6.482   2.794   8.550 -2.1157  0.4866 -0.3694
33908SOL     OW 7043   8.255   2.270   9.687  0.5207  0.3802 -0.2301
33908SOL    HW1 7044   8.167   2.292   9.657  0.8684  1.0974 -0.7389
33908SOL    HW2 7045   8.312   2.334   9.645  1.4842 -1.0612 -1.2103
33909SOL     OW 7046   2.035   5.574  10.962  0.0471 -0.1670 -0.2976
33909SOL    HW1 7047   2.112   5.578  10.905 -0.2828  1.4927 -0.6897
33909SOL    HW2 7048   2.072   5.564  11.050  0.7882  1.2245 -0.4131
33910SOL     OW 7049   6.693   5.265   6.937  0.0305 -0.9114 -0.4475
33910SOL    HW1 7050   6.652   5.221   6.863 -1.1264 -2.4998  1.0672
33910SOL    HW2 7051   6.723   5.194   6.994  1.2541  0.2584  0.4557
33911SOL     OW 7052   8.627   0.627   3.393  0.0766  0.6515 -0.5555
33911SOL    HW1 7053   8.616   0.574   3.314  2.1399 -0.3581 -0.2401
33911SOL    HW2 7054   8.569   0.586   3.458  0.2811 -0.1030 -0.8412
33912SOL     OW 7055   6.394   9.511   7.999 -0.0575 -0.1294 -0.2799
33912SOL    HW1 7056   6.450   9.434   8.003 -1.5541 -1.1977  2.0816
33912SOL    HW2 7057   6.417   9.562   8.077 -1.4914  0.0080  0.0811
33913SOL     OW 7058   2.819   2.413   4.599 -0.3534  0.8083  0.2299
33913SOL    HW1 7059   2.832   2.319   4.584  0.3869  0.8464  0.5574
33913SOL    HW2 7060   2.834   2.424   4.693 -0.3196  1.2741  0.1721
33914SOL     OW 7061   2.118   4.818   0.814  0.0217  0.2960  0.1948
33914SOL    HW1 7062   2.121   4.808   0.719 -0.8464  0.6536  0.1211
33914SOL    HW2 7063   2.197   4.867   0.836  0.4835 -0.2203 -0.2740
33915SOL     OW 7064   2.796  10.497   8.368 -0.3666  0.2228 -0.0334
33915SOL    HW1 7065   2.821  10.588   8.353  2.1963 -0.2640  0.8208
33915SOL    HW2 7066   2.852  10.446   8.310 -1.3455 -0.8689 -0.0692
33916SOL     OW 7067   1.164   1.195   8.343 -0.7028  0.4987  0.7775
33916SOL    HW1 7068   1.197   1.205   8.254  0.7960 -0.8221  1.1421
33916SOL    HW2 7069   1.191   1.275   8.388 -0.5493  0.7063  0.3202
33917SOL     OW 7070   5.073  11.731   0.954  0.0254  0.4801 -0.9714
33917SOL    HW1 7071   4.988  11.761   0.985 -0.1567 -0.1205 -0.8900
33917SOL    HW2 7072   5.070  11.636   0.961  0.5415  0.4252 -1.3851
33918SOL     OW 7073   6.365   9.763   7.358 -0.6900  0.0333  0.5852
33918SOL    HW1 7074   6.299   9.740   7.424 -0.5965 -1.0952  0.3015
33918SOL    HW2 7075   6.441   9.709   7.380 -0.8278 -0.7280 -0.7222
33919SOL     OW 7076   2.388  10.053   5.663  0.2231  0.6670 -0.0916
33919SOL    HW1 7077   2.420  10.071   5.752 -1.8539  1.2817  0.5738
33919SOL    HW2 7078   2.429  10.121   5.609 -0.9378  2.2585  0.9577
33920SOL     OW 7079   6.221   5.711   1.897  0.0751 -0.0397 -0.3051
33920SOL    HW1 7080   6.163   5.675   1.829  0.1363  0.6464 -0.7261
33920SOL    HW2 7081   6.162   5.743   1.965 -0.0340  0.4654 -0.6361
33921SOL     OW 7082   8.767   2.007   6.545 -0.1100 -0.8796  0.3357
33921SOL    HW1 7083   8.680   2.038   6.572  0.6952  1.3401  0.5583
33921SOL    HW2 7084   8.756   1.980   6.454 -0.7959  0.4534  0.0098
33922SOL     OW 7085   2.652   0.353   8.533  0.8256  0.2306  0.4192
33922SOL    HW1 7086   2.629   0.444   8.551 -0.5410  0.2773 -1.2969
33922SOL    HW2 7087   2.708   0.357   8.456 -0.0435 -0.4119 -0.2705
33923SOL     OW 7088  10.848   8.064  10.921  0.0488 -0.1984 -0.7122
33923SOL    HW1 7089  10.780   8.074  10.987  2.1354  0.6711  1.4328
33923SOL    HW2 7090  10.888   7.979  10.940  0.8703  0.1990 -0.6415
33924SOL     OW 7091   8.348   0.737   4.269  0.0405  0.6807 -0.9495
33924SOL    HW1 7092   8.257   0.741   4.296  0.4852 -0.5445  0.9112
33924SOL    HW2 7093   8.345   0.704   4.179 -1.3376  0.6706 -0.9153
33925SOL     OW 7094   6.282   9.314   5.811 -0.4025 -0.6067  0.3702
33925SOL    HW1 7095   6.374   9.293   5.796 -0.3490  0.1739 -0.4680
33925SOL    HW2 7096   6.283   9.371   5.889  0.1219  1.5162 -1.1049
33926SOL     OW 7097   2.370  10.289   7.412  0.5422 -0.3631 -0.4042
33926SOL    HW1 7098   2.281  10.255   7.418  0.4111 -0.1666 -1.1093
33926SOL    HW2 7099   2.426  10.212   7.428  0.2491 -0.5305 -0.1716
33927SOL     OW 7100   9.222   8.348   9.380 -0.0083  0.4229 -0.0835
33927SOL    HW1 7101   9.144   8.306   9.417 -1.1478  2.5198  0.0411
33927SOL    HW2 7102   9.294   8.316   9.433 -1.1145  0.3541  1.4432
33928SOL     OW 7103   0.944   8.277   6.747  0.0427 -0.2479 -0.2303
33928SOL    HW1 7104   0.873   8.217   6.725 -0.4231  0.1821  0.0835
33928SOL    HW2 7105   0.937   8.288   6.842 -0.0581  0.5313 -0.3260
33929SOL     OW 7106   2.096   7.483   9.659  0.1901  0.5440  0.5513
33929SOL    HW1 7107   2.073   7.493   9.751 -2.2813 -2.0757  0.3394
33929SOL    HW2 7108   2.121   7.391   9.650  0.9978  0.8865 -1.3242
33930SOL     OW 7109   1.446   1.149   8.679 -0.4123  0.1474 -0.1588
33930SOL    HW1 7110   1.418   1.082   8.616 -0.9754 -0.0809  0.3212
33930SOL    HW2 7111   1.527   1.114   8.715 -0.8495 -0.4357  0.2984
33931SOL     OW 7112   9.258   7.525   9.001 -0.3390  0.8182 -0.1077
33931SOL    HW1 7113   9.305   7.597   9.044 -0.0941  1.2132 -1.0144
33931SOL    HW2 7114   9.206   7.568   8.933 -1.0246  0.2411  0.0412
33932SOL     OW 7115   5.930   8.742  10.144 -0.0450  0.3094 -0.1080
33932SOL    HW1 7116   5.877   8.722  10.066 -0.0216 -0.8775  0.1741
33932SOL    HW2 7117   5.924   8.664  10.198  1.2941  0.4941  0.3360
33933SOL     OW 7118   8.611  10.787   1.432  0.5106 -0.2490  0.2159
33933SOL    HW1 7119   8.630  10.752   1.519 -0.4425 -0.2135  0.4458
33933SOL    HW2 7120   8.657  10.729   1.372 -0.2548 -1.3312  0.6484
33934SOL     OW 7121   4.803   3.969   3.044  0.2433 -0.3722 -0.2476
33934SOL    HW1 7122   4.714   4.005   3.044  1.2274  2.2751 -0.0406
33934SOL    HW2 7123   4.848   4.015   2.973  2.2636  0.7664  1.6150
33935SOL     OW 7124   2.259  11.082  10.187  0.1355 -0.1662 -0.0517
33935SOL    HW1 7125   2.235  11.098  10.278  0.0378 -0.0397 -0.1007
33935SOL    HW2 7126   2.351  11.108  10.181  0.0025  0.2931 -0.1113
33936SOL     OW 7127   9.786   2.603   7.492 -0.0423 -0.7814  0.2931
33936SOL    HW1 7128   9.715   2.640   7.544 -0.7513 -1.8767  0.1344
33936SOL    HW2 7129   9.769   2.633   7.403  0.3422 -0.1134  0.4401
33937SOL     OW 7130   6.433   4.571   4.886  0.2700  0.2183 -0.2795
33937SOL    HW1 7131   6.513   4.605   4.846 -0.2025  2.0393  0.2227
33937SOL    HW2 7132   6.463   4.506   4.950  1.3619  0.9170 -0.0635
33938SOL     OW 7133   3.068   8.946   8.460  0.0755  0.2942 -0.1826
33938SOL    HW1 7134   3.055   8.851   8.449  1.6586 -0.2080  1.7725
33938SOL    HW2 7135   3.160   8.955   8.485 -0.2039  2.2988  0.2785
33939SOL     OW 7136   5.036   4.878   9.561 -0.0283 -0.2394  0.0100
33939SOL    HW1 7137   5.029   4.822   9.484 -0.6441  1.0301 -0.9078
33939SOL    HW2 7138   4.950   4.919   9.568  0.2546  0.2120  0.9409
33940SOL     OW 7139  11.584   9.412  11.493  0.1888 -0.5267 -0.0146
33940SOL    HW1 7140  11.628   9.489  11.458  0.8121 -1.1688 -0.6847
33940SOL    HW2 7141  11.508   9.447  11.540  0.1120  0.4553 -0.8316
33941SOL     OW 7142   7.225   5.986   9.934  0.6076  0.1907  0.6971
33941SOL    HW1 7143   7.137   5.989   9.896  0.9034 -0.8077 -0.1186
33941SOL    HW2 7144   7.250   6.078   9.943 -0.2945  0.4793  0.4138
33942SOL     OW 7145   1.110   3.513   7.428  0.1133 -0.5550 -0.1102
33942SOL    HW1 7146   1.128   3.539   7.337  0.1658  0.2625  0.1271
33942SOL    HW2 7147   1.023   3.473   7.424 -0.2312  0.1925 -0.3978
33943SOL     OW 7148   5.361   5.447   6.744 -0.3209  0.4116 -0.5431
33943SOL    HW1 7149   5.291   5.513   6.742 -0.0822  0.6709 -3.0001
33943SOL    HW2 7150   5.424   5.478   6.680  1.7594 -0.2100  1.1063
33944SOL     OW 7151   0.561   3.144  11.704 -0.0542  0.1557  0.0261
33944SOL    HW1 7152   0.473   3.108  11.720  0.4400 -1.2152 -0.1969
33944SOL    HW2 7153   0.612   3.116  11.780  0.0123  1.6443  0.5568
33945SOL     OW 7154   8.371   6.984   9.137  0.8312  0.2994  0.1356
33945SOL    HW1 7155   8.392   7.073   9.166  1.0558  0.6431 -1.0355
33945SOL    HW2 7156   8.276   6.982   9.132  0.8550  0.7352 -0.6002
33946SOL     OW 7157   4.377   9.575   3.725  0.1630 -0.5559  0.0626
33946SOL    HW1 7158   4.419   9.652   3.762  0.4196 -0.1755 -0.9861
33946SOL    HW2 7159   4.450   9.517   3.702  0.0242 -0.6080 -0.2431
33947SOL     OW 7160  11.042   2.372   0.481  0.0604  0.0022 -0.0828
33947SOL    HW1 7161  10.981   2.335   0.545  0.6919  1.3151  1.3307
33947SOL    HW2 7162  11.016   2.464   0.474 -0.7896 -0.3465 -2.7070
33948SOL     OW 7163   4.170  10.920   7.264  0.4089 -0.1351  0.1199
33948SOL    HW1 7164   4.145  10.832   7.293  0.3878  0.5686  2.3906
33948SOL    HW2 7165   4.254  10.937   7.306  1.1449  0.4022 -1.4906
33949SOL     OW 7166   6.908   5.307   1.992  0.5344 -0.0670 -0.1466
33949SOL    HW1 7167   6.833   5.273   1.944 -0.0924  0.0616  0.7125
33949SOL    HW2 7168   6.894   5.277   2.082  0.2948  1.8825  0.5120
33950SOL     OW 7169   4.010  10.684  10.880 -0.3404  0.1505 -0.3750
33950SOL    HW1 7170   3.918  10.696  10.855 -0.0256  1.7813 -0.8374
33950SOL    HW2 7171   4.037  10.769  10.914  1.1559 -0.1641 -0.7191
33951SOL     OW 7172   8.769   0.366   7.201 -0.5896  0.1111 -0.1874
33951SOL    HW1 7173   8.763   0.451   7.244 -2.9630  0.1627 -0.4977
33951SOL    HW2 7174   8.678   0.339   7.187  0.0828 -2.3522 -0.3698
33952SOL     OW 7175   9.656  11.328   6.019 -0.5750 -0.4827  0.8971
33952SOL    HW1 7176   9.569  11.319   5.980  0.1720  0.3915 -1.1207
33952SOL    HW2 7177   9.711  11.267   5.970  0.6965  1.6900 -0.5519
33953SOL     OW 7178   7.455  10.681   2.452  0.0375  0.2446  0.1179
33953SOL    HW1 7179   7.515  10.744   2.411  0.6292 -0.8150 -0.6965
33953SOL    HW2 7180   7.461  10.700   2.545  3.1086 -0.9817  0.3130
33954SOL     OW 7181   8.083   9.701  11.318 -0.2165 -0.1356  0.5559
33954SOL    HW1 7182   8.104   9.631  11.257  1.0964  0.2346  0.5556
33954SOL    HW2 7183   7.988   9.698  11.326 -0.4767  0.1313 -1.8805
33955SOL     OW 7184   4.997   1.889   5.731  0.2312  0.4286 -0.0655
33955SOL    HW1 7185   4.946   1.858   5.657  0.1688 -1.5195  0.7168
33955SOL    HW2 7186   4.972   1.981   5.741 -1.6718  0.0559 -0.8905
33956SOL     OW 7187  10.023   4.203   1.773  0.2292  0.1672 -0.1722
33956SOL    HW1 7188  10.009   4.270   1.840 -0.7748  0.1089 -0.3039
33956SOL    HW2 7189  10.110   4.222   1.737  0.9351 -0.0052  1.3668
33957SOL     OW 7190   5.664   0.564   2.101  0.3773 -0.5150 -0.8331
33957SOL    HW1 7191   5.635   0.606   2.182  0.1056  0.2736 -1.3310
33957SOL    HW2 7192   5.697   0.478   2.129  1.3985  0.1995  0.2635
33958SOL     OW 7193   7.098   7.365  11.180 -0.7182 -0.3407 -0.6145
33958SOL    HW1 7194   7.084   7.452  11.142 -0.1480 -0.6061 -1.4419
33958SOL    HW2 7195   7.192   7.350  11.171 -0.6555 -0.6368  0.4182
33959SOL     OW 7196   7.972  10.146   2.952 -0.0569  0.1901 -0.3321
33959SOL    HW1 7197   7.971  10.241   2.940  1.0497  0.3486  0.5428
33959SOL    HW2 7198   8.063  10.122   2.934 -0.2383 -0.6402 -0.1490
33960SOL     OW 7199   2.326   7.167   0.755 -0.2625 -0.3146 -0.1020
33960SOL    HW1 7200   2.313   7.094   0.815  1.9795 -1.0906 -0.4859
33960SOL    HW2 7201   2.268   7.236   0.788  0.7503 -0.7704  2.8697
33961SOL     OW 7202  11.663   4.679   3.678  0.4360  0.1785  0.3514
33961SOL    HW1 7203  11.642   4.764   3.717  2.3059  1.2632 -0.8782
33961SOL    HW2 7204  11.739   4.648   3.727 -0.9234 -1.4135  1.5759
33962SOL     OW 7205   7.575   9.932   4.181  0.3256 -0.3420  0.0369
33962SOL    HW1 7206   7.500   9.974   4.225 -0.1530 -1.2860  0.1489
33962SOL    HW2 7207   7.574   9.969   4.093 -2.1186 -2.4452 -0.9594
33963SOL     OW 7208   6.117   2.956   1.814 -0.2383  0.1636  0.4152
33963SOL    HW1 7209   6.162   3.033   1.848  2.3966 -1.0197 -0.1408
33963SOL    HW2 7210   6.118   2.894   1.887  0.0626 -0.2863  0.0316
33964SOL     OW 7211   5.908   8.060   1.419  0.3075 -0.3044 -0.0281
33964SOL    HW1 7212   5.950   7.988   1.465  2.2196 -0.1326 -1.3807
33964SOL    HW2 7213   5.863   8.019   1.345 -1.9961 -0.4804  1.3762
33965SOL     OW 7214   6.163  10.746   8.955  0.0135 -0.4414  0.2579
33965SOL    HW1 7215   6.198  10.756   9.043 -1.4548  2.1023  0.6471
33965SOL    HW2 7216   6.225  10.793   8.899 -0.4482  0.2653  0.3316
33966SOL     OW 7217   8.714   9.136   5.777 -0.1368  0.1886  0.2462
33966SOL    HW1 7218   8.711   9.231   5.777  0.0632  0.2071 -0.7840
33966SOL    HW2 7219   8.717   9.112   5.684  0.7940 -0.7866  0.5057
33967SOL     OW 7220   5.148   1.309   0.726 -0.4450  0.1824  0.2510
33967SOL    HW1 7221   5.107   1.291   0.811 -1.6785  0.7679 -0.1945
33967SOL    HW2 7222   5.086   1.274   0.662 -0.3044  1.1688 -0.4484
33968SOL     OW 7223   6.359   9.821   4.209  0.4154 -0.2583  0.0772
33968SOL    HW1 7224   6.296   9.883   4.171  0.4571  0.3628  0.9853
33968SOL    HW2 7225   6.311   9.739   4.214  0.4549 -0.4086 -1.4433
33969SOL     OW 7226   8.175   8.528   0.560  0.4734 -0.6579  0.0098
33969SOL    HW1 7227   8.143   8.575   0.636  0.2435 -1.4861  0.4318
33969SOL    HW2 7228   8.248   8.476   0.592 -0.2351 -1.7607 -0.1100
33970SOL     OW 7229   3.582  10.265   8.154 -0.0615  0.2176  0.0345
33970SOL    HW1 7230   3.508  10.289   8.210 -0.6913 -0.8368 -0.3229
33970SOL    HW2 7231   3.552  10.188   8.106  0.9970  0.2322 -0.6881
33971SOL     OW 7232   4.180   8.040   5.603  1.3641 -0.2567  0.1904
33971SOL    HW1 7233   4.088   8.055   5.622  1.7529  1.5542  0.8584
33971SOL    HW2 7234   4.199   8.101   5.531  1.5631 -2.1185 -1.3955
33972SOL     OW 7235   1.211   2.706   6.746  0.1245  0.0095 -0.4557
33972SOL    HW1 7236   1.237   2.678   6.834  0.8922  0.0491 -0.6649
33972SOL    HW2 7237   1.283   2.760   6.715 -0.2766  0.2466 -0.9971
33973SOL     OW 7238   3.774   7.569   6.691  0.1420  0.4476  0.6321
33973SOL    HW1 7239   3.856   7.567   6.740  0.1780 -1.1481  0.5753
33973SOL    HW2 7240   3.707   7.545   6.755  0.0633 -0.6981  0.1422
33974SOL     OW 7241   4.300   0.357   2.646  0.2084  0.0544 -0.1335
33974SOL    HW1 7242   4.220   0.341   2.595  1.0114 -1.3511 -1.0141
33974SOL    HW2 7243   4.272   0.349   2.737 -0.5257 -1.2301 -0.4437
33975SOL     OW 7244   9.334  10.490   3.706  0.3992 -0.1123  0.2637
33975SOL    HW1 7245   9.259  10.518   3.654  0.5168  1.7713  1.0269
33975SOL    HW2 7246   9.296  10.434   3.774 -0.2695  0.4792  0.3885
33976SOL     OW 7247   0.018   5.643   1.215 -0.3563  0.8854  0.0419
33976SOL    HW1 7248   0.058   5.561   1.186  1.4526  1.4731  0.7553
33976SOL    HW2 7249  -0.069   5.617   1.246 -1.5825 -0.1194 -3.6569
33977SOL     OW 7250   8.376   7.303  10.806  0.6500 -0.7207 -0.4386
33977SOL    HW1 7251   8.300   7.248  10.787  0.2324 -0.7238  1.1177
33977SOL    HW2 7252   8.392   7.351  10.724 -1.2714 -0.4372 -0.6969
33978SOL     OW 7253  11.656   8.247   0.947 -0.9260  0.2222 -0.3675
33978SOL    HW1 7254  11.597   8.212   0.880 -3.0115 -0.0513  1.5033
33978SOL    HW2 7255  11.605   8.315   0.990  0.7542  1.1212  0.2805
33979SOL     OW 7256   3.916  10.067   9.873 -0.0932  0.1431 -0.3113
33979SOL    HW1 7257   3.909   9.976   9.846 -1.2755  0.0561  0.2144
33979SOL    HW2 7258   3.996  10.099   9.831 -0.4980 -0.6863 -1.7768
33980SOL     OW 7259   8.911   2.040   1.366  0.1813 -0.2014 -0.6005
33980SOL    HW1 7260   8.834   2.096   1.370 -0.3486 -0.9342 -0.4172
33980SOL    HW2 7261   8.900   1.989   1.285  0.2050 -0.6806 -0.3053
33981SOL     OW 7262   4.314   0.947   6.107 -0.5258 -0.0728  0.0502
33981SOL    HW1 7263   4.298   1.040   6.116 -3.8118 -0.1853 -2.7873
33981SOL    HW2 7264   4.245   0.905   6.159 -1.7985 -0.7861 -2.1057
33982SOL     OW 7265  10.402   4.279   1.149  0.2704  0.3336 -0.3488
33982SOL    HW1 7266  10.346   4.327   1.089 -1.5406 -0.9372  0.2297
33982SOL    HW2 7267  10.430   4.202   1.099  1.0995  0.6945 -0.4590
33983SOL     OW 7268   6.395   7.941   6.472  0.1706 -0.2129  0.2387
33983SOL    HW1 7269   6.313   7.985   6.496 -0.7305 -1.2796 -0.8136
33983SOL    HW2 7270   6.374   7.848   6.476 -0.0399 -0.5506 -4.3348
33984SOL     OW 7271   4.353  11.465  11.513 -0.2049  0.6138 -0.2278
33984SOL    HW1 7272   4.317  11.387  11.555 -1.7304  0.5236 -1.6031
33984SOL    HW2 7273   4.279  11.526  11.508  0.6669  1.7107 -0.2111
33985SOL     OW 7274   9.015  10.664   0.872 -0.1370 -0.3863 -0.6122
33985SOL    HW1 7275   8.990  10.583   0.829 -0.2677  0.0227 -1.3177
33985SOL    HW2 7276   8.964  10.732   0.828 -0.6698 -0.0208  0.5365
33986SOL     OW 7277   2.141   9.324   5.170  0.1217 -0.0078  0.6222
33986SOL    HW1 7278   2.222   9.330   5.220  0.6785  0.8174 -0.3472
33986SOL    HW2 7279   2.102   9.410   5.177 -1.0970 -0.6212  1.7367
33987SOL     OW 7280  10.280   3.278   1.076  0.3844 -0.0710  0.0198
33987SOL    HW1 7281  10.274   3.345   1.145  0.5977  0.5926 -0.5953
33987SOL    HW2 7282  10.343   3.313   1.014  1.2063 -1.2783  0.1400
33988SOL     OW 7283   0.276   3.636   8.447  0.0258  0.1773 -0.2122
33988SOL    HW1 7284   0.326   3.696   8.391 -0.2474 -0.1504 -0.8269
33988SOL    HW2 7285   0.184   3.656   8.427 -0.0998  0.7791  0.9110
33989SOL     OW 7286  10.097   0.185   0.697 -0.5027 -0.8515 -0.5905
33989SOL    HW1 7287  10.080   0.250   0.765 -0.6614 -1.1784 -0.3193
33989SOL    HW2 7288  10.025   0.195   0.635 -0.2123 -0.3671 -0.8575
33990SOL     OW 7289   1.296  11.137   3.978  0.2653 -0.1319 -0.2268
33990SOL    HW1 7290   1.315  11.096   3.893 -1.5154  0.4531 -0.9369
33990SOL    HW2 7291   1.204  11.119   3.994  0.0996  1.3495  0.7009
33991SOL     OW 7292   5.139   2.386   2.998  0.0593 -0.0307  0.0087
33991SOL    HW1 7293   5.072   2.451   3.017 -0.5490 -0.3274 -1.0620
33991SOL    HW2 7294   5.202   2.395   3.070  0.4280  2.3105 -0.5294
33992SOL     OW 7295   7.103  10.746   4.616  0.1181  0.2867  0.1049
33992SOL    HW1 7296   7.134  10.679   4.555 -2.3044 -0.1118 -0.7675
33992SOL    HW2 7297   7.079  10.698   4.695 -0.9636  0.1715 -0.2739
33993SOL     OW 7298  11.363   2.566   2.032  0.0908  0.0496  0.2701
33993SOL    HW1 7299  11.352   2.492   1.973 -1.0293  0.5211 -0.1316
33993SOL    HW2 7300  11.453   2.557   2.065  0.0582 -1.3353  0.0408
33994SOL     OW 7301   3.679   1.239   5.325 -0.1775 -0.2717  0.2779
33994SOL    HW1 7302   3.768   1.253   5.294  0.6036 -1.4192  1.8636
33994SOL    HW2 7303   3.633   1.200   5.250  0.6959  0.1313 -0.4854
33995SOL     OW 7304   5.267   3.071  10.095  0.4000  0.0791  0.0811
33995SOL    HW1 7305   5.203   3.025  10.149 -1.1843 -0.1890 -1.8714
33995SOL    HW2 7306   5.334   3.006  10.075  0.9633  0.1676  1.5995
33996SOL     OW 7307   4.076   0.112   8.796 -0.1148  0.1981  0.6200
33996SOL    HW1 7308   4.132   0.083   8.868  2.3782  1.3248 -0.7087
33996SOL    HW2 7309   4.099   0.204   8.783 -0.5347  0.0686 -1.4810
33997SOL     OW 7310  10.681   4.539   7.205 -0.1436 -0.5525 -0.2661
33997SOL    HW1 7311  10.594   4.505   7.181  0.3750 -1.0510 -1.5249
33997SOL    HW2 7312  10.738   4.511   7.134  0.4736  2.3575 -1.0594
33998SOL     OW 7313   8.321   6.398   6.511 -0.1331  0.5013 -0.0814
33998SOL    HW1 7314   8.407   6.435   6.490  0.0792  0.3145  0.4456
33998SOL    HW2 7315   8.313   6.322   6.453  0.8502 -0.5662  1.1202
33999SOL     OW 7316   6.131   2.519   8.438 -0.1564 -0.4632  0.0225
33999SOL    HW1 7317   6.101   2.540   8.349 -1.3465  0.0789  0.5220
33999SOL    HW2 7318   6.052   2.490   8.483  0.6485 -1.8395  0.6092
34000SOL     OW 7319   1.714  10.112   9.153  0.3505  0.4020  0.0402
34000SOL    HW1 7320   1.794  10.165   9.152  0.5334  0.1265 -0.6671
34000SOL    HW2 7321   1.738  10.031   9.107  0.2665 -0.5997  1.6678
34001SOL     OW 7322   6.680  10.959   7.629 -0.2307  0.0686  0.2947
34001SOL    HW1 7323   6.713  11.015   7.699  1.6772 -0.9804  0.3284
34001SOL    HW2 7324   6.713  11.000   7.549 -1.0475  0.4015  0.1270
34002SOL     OW 7325   9.881   0.623   4.679 -0.1333  0.3850 -0.1930
34002SOL    HW1 7326   9.918   0.672   4.606  1.7933 -1.6995 -0.7374
34002SOL    HW2 7327   9.938   0.642   4.753  0.8561 -1.1948 -0.4991
34003SOL     OW 7328   7.099  11.597   7.095 -0.2119  0.0653 -0.5610
34003SOL    HW1 7329   7.019  11.603   7.147  0.5263 -2.2239  0.9900
34003SOL    HW2 7330   7.081  11.527   7.032  0.1363  0.4017 -1.0338
34004SOL     OW 7331   0.649   2.246   9.968 -0.0182  0.1642 -0.0778
34004SOL    HW1 7332   0.678   2.240   9.877  0.2371 -1.5735  0.0983
34004SOL    HW2 7333   0.680   2.166  10.009 -0.4466  0.7542  1.4679
34005SOL     OW 7334   5.864   1.558   7.907  0.2709 -0.0211 -0.0923
34005SOL    HW1 7335   5.936   1.538   7.847 -0.1375 -1.0549 -0.2487
34005SOL    HW2 7336   5.843   1.650   7.888  0.7639 -0.0542 -0.8703
34006SOL     OW 7337   1.237   4.804   2.047  0.9355  0.3335  0.3057
34006SOL    HW1 7338   1.299   4.766   1.984  1.9414 -0.5738  1.7767
34006SOL    HW2 7339   1.151   4.784   2.011  1.4808 -1.0585 -0.3080
34007SOL     OW 7340   7.312   2.239   1.476 -0.1297  0.1719 -0.0934
34007SOL    HW1 7341   7.307   2.323   1.523 -0.7016 -0.0058  0.1778
34007SOL    HW2 7342   7.359   2.181   1.536 -0.2709  0.1299 -0.0232
34008SOL     OW 7343   7.053   1.423   5.813 -0.1033  0.4058 -0.4673
34008SOL    HW1 7344   7.119   1.373   5.764  1.4744  0.1987  1.6821
34008SOL    HW2 7345   7.104   1.489   5.860 -1.4114  0.2560  1.2630
34009SOL     OW 7346   4.330   3.292   3.736 -0.3233 -0.0004  0.1116
34009SOL    HW1 7347   4.363   3.339   3.813 -1.3410  1.5300 -0.3397
34009SOL    HW2 7348   4.408   3.250   3.698  0.4885  0.6639  0.9908
34010SOL     OW 7349   3.709   9.212   3.773  0.1848 -0.7371 -0.2829
34010SOL    HW1 7350   3.727   9.123   3.802  1.9251 -0.2413  0.3059
34010SOL    HW2 7351   3.741   9.215   3.683  2.5194 -0.1028  0.4775
34011SOL     OW 7352   6.948  10.164   6.736  0.5077  0.7208  0.5553
34011SOL    HW1 7353   7.038  10.152   6.708  0.6900  3.4998 -0.3572
34011SOL    HW2 7354   6.923  10.250   6.702 -1.7100  1.0816  2.7752
34012SOL     OW 7355   5.416   7.406   5.018  0.8611  0.1209  0.7518
34012SOL    HW1 7356   5.344   7.384   5.078 -0.6405  0.3601 -0.8623
34012SOL    HW2 7357   5.390   7.490   4.981  2.1973  0.3942  0.4164
34013SOL     OW 7358   7.135  10.885   4.155  0.5854 -0.0526 -0.4157
34013SOL    HW1 7359   7.202  10.832   4.198  0.1842  0.4353  0.8817
34013SOL    HW2 7360   7.163  10.975   4.170  0.2426  0.1311 -0.8775
34014SOL     OW 7361   9.371  11.682   0.227  0.1501  0.3631  0.3319
34014SOL    HW1 7362   9.429  11.610   0.202  0.2812  0.7984 -0.6601
34014SOL    HW2 7363   9.285  11.643   0.235  0.3431 -0.0332  0.4770
34015SOL     OW 7364   0.384   2.704   0.694  0.0702 -0.3465  0.3837
34015SOL    HW1 7365   0.361   2.795   0.712  1.3443  0.7063 -2.6850
34015SOL    HW2 7366   0.311   2.669   0.644  0.0997 -0.6676  0.5565
34016SOL     OW 7367   9.291  10.794   0.034 -0.4374  0.8316 -0.4022
34016SOL    HW1 7368   9.297  10.769   0.126 -0.9511  0.1931 -0.5278
34016SOL    HW2 7369   9.252  10.881   0.034 -1.5486  0.3529 -0.0457
34017SOL     OW 7370   8.567   6.280   8.114  0.2377  0.2701 -0.1682
34017SOL    HW1 7371   8.490   6.248   8.067  0.5671  0.4671 -0.8615
34017SOL    HW2 7372   8.532   6.339   8.181 -0.4395 -2.0674  1.6426
34018SOL     OW 7373   8.281   1.141   5.154 -0.7189 -0.4809  0.8849
34018SOL    HW1 7374   8.189   1.123   5.134 -0.5365  0.3262 -0.8160
34018SOL    HW2 7375   8.287   1.236   5.158 -0.1081 -0.5468  1.8221
34019SOL     OW 7376   1.093   0.514   1.283 -0.4102 -0.4225 -0.3975
34019SOL    HW1 7377   1.048   0.559   1.355 -0.7332  0.4456 -1.1259
34019SOL    HW2 7378   1.089   0.575   1.210  1.7820 -0.4050 -0.5710
34020SOL     OW 7379   4.190   1.186   1.822  0.2882 -0.5315 -0.5562
34020SOL    HW1 7380   4.237   1.166   1.741 -0.8319 -1.9248 -0.8828
34020SOL    HW2 7381   4.098   1.189   1.797 -0.0327 -0.4516  0.5701
34021SOL     OW 7382  11.605   7.304   7.261  0.3080 -0.2183  0.0102
34021SOL    HW1 7383  11.536   7.301   7.194  0.1491 -0.5980  0.1908
34021SOL    HW2 7384  11.601   7.219   7.304  0.1618  0.1601  0.7502
34022SOL     OW 7385   8.497   0.852   8.000 -0.3330 -0.7613  0.1328
34022SOL    HW1 7386   8.456   0.813   8.077 -2.1103  0.5167 -0.1038
34022SOL    HW2 7387   8.526   0.938   8.029  0.1962 -0.7857 -0.2975
34023SOL     OW 7388  10.135   3.497   8.896  0.1698 -0.1968  0.2449
34023SOL    HW1 7389  10.224   3.525   8.875 -0.0054 -0.2464 -0.5853
34023SOL    HW2 7390  10.120   3.531   8.985  1.1201 -0.4558  0.5192
34024SOL     OW 7391  11.312   7.378   0.909 -0.3826  0.4200  0.0017
34024SOL    HW1 7392  11.332   7.285   0.908 -0.1125  0.4438  1.4727
34024SOL    HW2 7393  11.247   7.388   0.978  0.7406  1.5348  0.9374
34025SOL     OW 7394  11.242   5.139   0.361  0.2200  0.2228 -0.3714
34025SOL    HW1 7395  11.212   5.136   0.451  0.6312  1.6462 -0.1636
34025SOL    HW2 7396  11.222   5.228   0.331  0.5325 -0.0704 -1.5196
34026SOL     OW 7397   0.406   7.807   3.493 -0.2795  0.6810 -0.7543
34026SOL    HW1 7398   0.382   7.731   3.440  0.1979  0.4272 -0.6196
34026SOL    HW2 7399   0.501   7.797   3.507 -0.3777  0.7936  0.0537
34027SOL     OW 7400   6.528   1.929   8.101  0.2291  0.0019  0.0981
34027SOL    HW1 7401   6.561   1.939   8.012  0.0071 -0.3301 -0.0239
34027SOL    HW2 7402   6.436   1.905   8.089  0.7175 -2.2090  0.3624
34028SOL     OW 7403  10.978   0.846   5.742  0.5351 -0.0896  0.5346
34028SOL    HW1 7404  11.001   0.812   5.655 -0.2789  2.4908 -0.8148
34028SOL    HW2 7405  10.888   0.816   5.755 -0.0286  1.0848 -0.4444
34029SOL     OW 7406   2.470   0.416   0.390  0.2338 -0.5087  0.2309
34029SOL    HW1 7407   2.464   0.322   0.408  0.2949 -0.5837 -0.1320
34029SOL    HW2 7408   2.403   0.455   0.446  0.8283 -0.6713  1.0808
34030SOL     OW 7409   3.956   7.272   8.919 -0.0881 -0.2429 -0.2882
34030SOL    HW1 7410   4.043   7.237   8.899 -1.1224 -2.7579 -0.7734
34030SOL    HW2 7411   3.947   7.263   9.014  0.3885  0.6321 -0.1487
34031SOL     OW 7412  11.144   7.156   8.682 -0.7967  0.3067  0.0087
34031SOL    HW1 7413  11.190   7.100   8.619 -0.1658  2.1273 -1.2251
34031SOL    HW2 7414  11.198   7.153   8.761  0.0536  0.3772 -0.5626
34032SOL     OW 7415   7.572   4.082   7.326 -0.1136 -0.6019 -0.4205
34032SOL    HW1 7416   7.560   4.012   7.263 -1.2150 -0.7310 -0.0908
34032SOL    HW2 7417   7.654   4.061   7.371  0.2516 -0.9445 -1.2426
34033SOL     OW 7418  10.020   7.176   3.751 -0.1390 -0.2476  0.4758
34033SOL    HW1 7419  10.049   7.175   3.843 -0.0361  0.2375  0.4524
34033SOL    HW2 7420   9.991   7.266   3.736  1.4472  0.1478 -0.4507
34034SOL     OW 7421   1.450   4.286   8.228  0.4786  0.1087 -0.0512
34034SOL    HW1 7422   1.409   4.325   8.151  1.7960  1.0013 -0.3349
34034SOL    HW2 7423   1.381   4.232   8.267 -0.1001 -0.7276 -2.0856
34035SOL     OW 7424   2.339   3.332   1.757  0.2611  0.1729 -0.5346
34035SOL    HW1 7425   2.432   3.326   1.736  0.5843 -1.5011  1.0279
34035SOL    HW2 7426   2.299   3.260   1.707 -0.0643  0.3895 -0.5883
34036SOL     OW 7427  10.608  10.493  10.834  0.5884 -0.0907  0.6230
34036SOL    HW1 7428  10.555  10.431  10.885  1.3576 -0.4678  0.9963
34036SOL    HW2 7429  10.696  10.456  10.837  0.9521  0.7295  0.3602
34037SOL     OW 7430  11.786   8.937   3.943 -0.0296  0.4027  0.4101
34037SOL    HW1 7431  11.721   8.880   3.983  0.5047  0.2070  1.0180
34037SOL    HW2 7432  11.792   8.907   3.852 -0.8748  0.5140  0.3157
34038SOL     OW 7433   5.245   3.495   2.080 -0.1124 -0.1652 -0.4440
34038SOL    HW1 7434   5.261   3.494   2.174  2.2054  0.9626 -0.7598
34038SOL    HW2 7435   5.306   3.431   2.044  1.4237  1.7449 -1.4121
34039SOL     OW 7436   3.320   6.239   7.429 -0.0333 -0.6881  0.2584
34039SOL    HW1 7437   3.288   6.228   7.519 -0.8058  0.0369  0.0808
34039SOL    HW2 7438   3.260   6.188   7.376 -0.0783 -0.4327  0.0644
34040SOL     OW 7439   6.869   7.405   5.062 -0.3785 -0.1089  0.6290
34040SOL    HW1 7440   6.788   7.446   5.032  0.9360  0.4724 -2.5687
34040SOL    HW2 7441   6.841   7.324   5.103 -2.5706 -1.4307 -2.9903
34041SOL     OW 7442  10.017   1.895   6.740  0.2694 -0.1063 -0.3231
34041SOL    HW1 7443  10.089   1.933   6.791 -0.7193 -0.2406  1.2255
34041SOL    HW2 7444   9.975   1.969   6.698  0.5071  0.1080 -0.1852
34042SOL     OW 7445   1.750   3.656   2.397  0.0669  0.4428  0.3495
34042SOL    HW1 7446   1.772   3.735   2.446 -1.2843  0.5173  0.8729
34042SOL    HW2 7447   1.765   3.584   2.458  0.4057  0.3625  0.1753
34043SOL     OW 7448   7.417   2.930   4.036 -0.0178 -0.5136  0.6724
34043SOL    HW1 7449   7.326   2.915   4.063 -0.2314 -2.6532 -0.9670
34043SOL    HW2 7450   7.410   2.997   3.967 -0.0753  0.8256  1.9308
34044SOL     OW 7451   0.506   4.279  10.381 -0.4639 -0.1800  0.1227
34044SOL    HW1 7452   0.416   4.310  10.372 -0.2373  0.2332 -0.8606
34044SOL    HW2 7453   0.556   4.357  10.406 -0.2784 -0.2705  0.0356
34045SOL     OW 7454   4.739  11.160   7.542 -0.1469 -0.4731  0.3800
34045SOL    HW1 7455   4.701  11.073   7.531  0.2874 -0.4619 -1.7347
34045SOL    HW2 7456   4.805  11.150   7.610  0.8683 -2.1634 -0.7711
34046SOL     OW 7457  10.293   2.242   1.587  0.3757 -0.3645  0.3119
34046SOL    HW1 7458  10.233   2.278   1.521  0.8071  0.4285  0.3494
34046SOL    HW2 7459  10.267   2.284   1.669  0.1918 -0.9496  0.5637
34047SOL     OW 7460   8.712  10.235   8.993 -0.6464 -0.4498 -0.7100
34047SOL    HW1 7461   8.663  10.183   9.057  0.8538  0.8873  1.6566
34047SOL    HW2 7462   8.691  10.326   9.014 -0.0195  0.0277 -2.0603
34048SOL     OW 7463   1.199   1.883   1.914 -0.0317 -0.4284 -0.1404
34048SOL    HW1 7464   1.124   1.924   1.957  0.4118  0.1689  0.0838
34048SOL    HW2 7465   1.240   1.954   1.865 -0.0249 -0.9107 -0.8468
34049SOL     OW 7466   2.081   8.616  10.136  0.2040  0.1584 -0.1316
34049SOL    HW1 7467   2.137   8.548  10.173  2.1048  1.1953 -0.9088
34049SOL    HW2 7468   2.013   8.569  10.089  0.5570 -1.1797  0.6465
34050SOL     OW 7469   7.600   9.630   9.629  0.0733  0.0038  0.4346
34050SOL    HW1 7470   7.546   9.648   9.706  1.8596 -0.6417  1.9169
34050SOL    HW2 7471   7.689   9.626   9.663  1.2791  2.2531 -2.0998
34051SOL     OW 7472   0.715  11.060   1.966  0.1372 -0.0141 -0.4681
34051SOL    HW1 7473   0.730  11.045   1.872 -0.1586 -0.2022 -0.4856
34051SOL    HW2 7474   0.681  11.150   1.971 -0.8655 -0.3700 -0.6493
34052SOL     OW 7475   8.340   9.589  11.725 -0.4907  0.4032 -0.0338
34052SOL    HW1 7476   8.401   9.596  11.799  1.0112 -1.1302 -1.0539
34052SOL    HW2 7477   8.254   9.591  11.765  0.2902 -0.7967  1.8273
34053SOL     OW 7478   7.867   4.202  10.131  0.2156 -0.4159 -0.6598
34053SOL    HW1 7479   7.821   4.122  10.104 -0.8436 -0.5572  1.3183
34053SOL    HW2 7480   7.799   4.254  10.175  1.5548  0.1767  0.7870
34054SOL     OW 7481   2.678   9.115   0.157 -0.4069  0.0725  0.4666
34054SOL    HW1 7482   2.742   9.044   0.164  0.2536  0.6127 -0.0048
34054SOL    HW2 7483   2.727   9.194   0.178 -1.3500  0.3214  1.8697
34055SOL     OW 7484  11.342   9.662   0.398 -0.2111 -0.6197 -0.1130
34055SOL    HW1 7485  11.275   9.603   0.362 -0.0692 -1.1601  0.4931
34055SOL    HW2 7486  11.367   9.718   0.324 -1.3704 -0.3636 -0.3421
34056SOL     OW 7487   8.437   2.853   1.147  0.2308  0.6024  0.2635
34056SOL    HW1 7488   8.499   2.828   1.215 -0.0936  0.2592  0.4381
34056SOL    HW2 7489   8.416   2.944   1.166 -0.8926  0.1233  1.4439
34057SOL     OW 7490   3.893   0.300   6.128 -0.8364  0.1355  0.7175
34057SOL    HW1 7491   3.861   0.329   6.042  0.2678 -0.7726 -0.0297
34057SOL    HW2 7492   3.821   0.249   6.165 -1.1236  0.0728  0.0809
34058SOL     OW 7493  11.766   0.681  10.856  0.0633 -0.5884  0.1885
34058SOL    HW1 7494  11.845   0.668  10.803 -0.1721 -1.3811  0.0240
34058SOL    HW2 7495  11.694   0.667  10.796 -0.2091 -0.1065  0.3998
34059SOL     OW 7496  11.598   5.023   4.485 -0.2178  0.1786  0.3992
34059SOL    HW1 7497  11.633   5.082   4.552 -1.0361  0.5268  0.5316
34059SOL    HW2 7498  11.662   5.028   4.413  0.8561 -0.4725  1.2736
34060SOL     OW 7499   5.714   0.963   3.694 -0.9300  0.0449 -0.2704
34060SOL    HW1 7500   5.794   1.008   3.722 -1.3455  0.9576 -0.5192
34060SOL    HW2 7501   5.651   0.981   3.764 -1.0220 -0.3808 -0.2436
34061SOL     OW 7502  10.543   5.903   3.421  0.0124  0.0544 -1.0896
34061SOL    HW1 7503  10.512   5.870   3.337 -1.1907 -0.3265 -0.5137
34061SOL    HW2 7504  10.597   5.979   3.399  0.8025 -0.8119 -2.2822
34062SOL     OW 7505   7.470   5.105   1.778  0.3498  0.2344 -0.3082
34062SOL    HW1 7506   7.545   5.129   1.724  2.0253  0.6178  2.0518
34062SOL    HW2 7507   7.508   5.065   1.856 -2.0181 -1.4013  0.1071
34063SOL     OW 7508   9.500   1.946   6.947  0.2235 -0.0266 -0.4059
34063SOL    HW1 7509   9.565   1.883   6.978  0.5771 -0.4237 -1.8544
34063SOL    HW2 7510   9.507   2.019   7.007 -0.1263 -1.3094  1.2757
34064SOL     OW 7511   4.978  10.033   1.707  0.0351  0.2996 -0.1482
34064SOL    HW1 7512   5.014  10.030   1.796  2.0874 -1.0658 -0.9573
34064SOL    HW2 7513   4.984  10.126   1.683 -0.4365  0.6668  1.0778
34065SOL     OW 7514   0.988  11.666   2.324  0.2873  0.0229  0.5146
34065SOL    HW1 7515   0.939  11.593   2.286  1.4135 -1.1306  1.2017
34065SOL    HW2 7516   1.072  11.666   2.277  0.4827  0.5737  0.8552
34066SOL     OW 7517   1.851   5.165   7.172  0.0280  0.0696  0.3467
34066SOL    HW1 7518   1.786   5.201   7.112  0.1534  0.4830  0.4568
34066SOL    HW2 7519   1.816   5.079   7.196  0.4543 -0.5410 -1.0953
34067SOL     OW 7520   6.077   1.465   2.272 -0.4602 -0.8962  0.8757
34067SOL    HW1 7521   6.027   1.495   2.348 -1.5110  0.4344 -0.2755
34067SOL    HW2 7522   6.169   1.478   2.297 -0.8132  2.3107  0.9434
34068SOL     OW 7523  10.035   9.101   3.586  0.2750  0.4687 -0.2703
34068SOL    HW1 7524  10.065   9.135   3.670 -1.3239 -0.8925  0.9388
34068SOL    HW2 7525  10.104   9.124   3.524  2.3632  0.0109  1.7456
34069SOL     OW 7526   1.942   2.800   4.799 -0.1214 -0.5052 -0.7370
34069SOL    HW1 7527   1.893   2.722   4.824  0.5983 -0.4900  0.8765
34069SOL    HW2 7528   2.027   2.788   4.841  0.5820  0.3716 -1.8730
34070SOL     OW 7529   2.040   8.865   5.713 -0.5015 -0.2663 -0.5813
34070SOL    HW1 7530   2.061   8.779   5.677  2.1820 -0.0192  0.2243
34070SOL    HW2 7531   2.076   8.927   5.649 -0.8827  0.2468 -0.3011
34071SOL     OW 7532   8.074   5.765  11.497  0.2589 -0.7454  0.2686
34071SOL    HW1 7533   8.042   5.676  11.507 -0.2453 -0.5706  0.2206
34071SOL    HW2 7534   8.152   5.757  11.443  0.3909 -1.1905  0.5194
34072SOL     OW 7535   4.071   9.899  11.402  0.2946  0.4185  0.0567
34072SOL    HW1 7536   4.035   9.830  11.458  0.3626  0.6230  0.3597
34072SOL    HW2 7537   3.998   9.959  11.389  0.5017  0.8002  0.6183
34073SOL     OW 7538   4.148   8.178   2.676 -0.0108 -0.3630 -0.0388
34073SOL    HW1 7539   4.156   8.170   2.581  0.4331 -1.3463  0.0764
34073SOL    HW2 7540   4.139   8.272   2.691  0.2608 -0.1713 -1.0273
34074SOL     OW 7541   5.916   3.748   8.802 -0.2487 -0.1314 -0.4472
34074SOL    HW1 7542   5.943   3.719   8.889 -3.2765 -0.9873  0.3109
34074SOL    HW2 7543   5.985   3.716   8.744  1.7781  0.3209  1.5623
34075SOL     OW 7544   1.135  11.226   5.990  0.1786 -0.1633  0.0435
34075SOL    HW1 7545   1.159  11.253   5.902 -0.6974  0.1747 -0.1057
34075SOL    HW2 7546   1.063  11.164   5.978  1.3991 -1.7083  0.4359
34076SOL     OW 7547   0.050   9.548   9.944  0.1524  0.1793  0.6000
34076SOL    HW1 7548  -0.043   9.538   9.961 -0.0589  1.6485  0.4263
34076SOL    HW2 7549   0.079   9.613  10.007  0.6907  0.9911 -0.4573
34077SOL     OW 7550   2.824   4.448   7.443 -0.0490 -0.3579  0.2379
34077SOL    HW1 7551   2.901   4.404   7.406 -0.4272 -0.0568 -0.9570
34077SOL    HW2 7552   2.753   4.427   7.383 -0.0811  2.4933 -0.9044
34078SOL     OW 7553   2.226  11.284   8.326  0.3474 -0.4371 -0.2891
34078SOL    HW1 7554   2.173  11.337   8.266 -2.2578 -1.4835  0.8992
34078SOL    HW2 7555   2.312  11.325   8.325 -0.8131  2.2423 -1.3734
34079SOL     OW 7556   1.312   8.105   1.689 -0.4437 -0.1352  0.7360
34079SOL    HW1 7557   1.299   8.011   1.682 -0.6715  0.0259 -1.6305
34079SOL    HW2 7558   1.254   8.131   1.761 -1.0317 -1.6837  0.8662
34080SOL     OW 7559  11.393   5.465   5.573 -0.2071  0.2563 -0.6247
34080SOL    HW1 7560  11.480   5.458   5.613 -0.3110  0.9274 -0.2594
34080SOL    HW2 7561  11.411   5.495   5.484  0.0140 -1.0713 -1.0406
34081SOL     OW 7562  10.671   7.433   3.258  0.2301 -0.7072 -0.9927
34081SOL    HW1 7563  10.588   7.406   3.298 -0.0301 -0.9589 -1.6888
34081SOL    HW2 7564  10.686   7.521   3.293 -0.0187 -0.8900 -0.3990
34082SOL     OW 7565   7.354  10.874   7.429  0.0219  0.3526 -1.0943
34082SOL    HW1 7566   7.341  10.832   7.344 -0.3842 -0.8907 -0.4375
34082SOL    HW2 7567   7.291  10.832   7.487 -0.5697  2.0536 -0.4408
34083SOL     OW 7568   9.422   4.700   8.787 -0.4967 -0.5835 -0.5603
34083SOL    HW1 7569   9.491   4.635   8.779 -0.8940 -0.9836 -0.7830
34083SOL    HW2 7570   9.449   4.770   8.727  0.1114 -0.3727 -0.0474
34084SOL     OW 7571   1.431   0.516   7.876  0.2446  0.1125 -0.1639
34084SOL    HW1 7572   1.519   0.522   7.914 -0.0975 -0.6852  0.8077
34084SOL    HW2 7573   1.378   0.575   7.928  0.3030  1.0300 -1.1137
34085SOL     OW 7574   6.496   0.565   8.832 -0.3781 -0.3182  0.2434
34085SOL    HW1 7575   6.503   0.472   8.808  1.3525 -0.4197  1.0154
34085SOL    HW2 7576   6.466   0.564   8.923  0.8932 -0.1848  0.6815
34086SOL     OW 7577   0.878   8.184   8.490  0.4113  0.4836 -0.6537
34086SOL    HW1 7578   0.958   8.216   8.448  0.7363  0.9019  0.2674
34086SOL    HW2 7579   0.908   8.136   8.567 -0.1615 -0.6592 -1.1202
34087SOL     OW 7580   7.478   2.262   7.529  0.0880 -0.2001  0.7642
34087SOL    HW1 7581   7.439   2.179   7.503  0.5824 -1.3178  3.2605
34087SOL    HW2 7582   7.572   2.250   7.512 -0.1129  1.0636 -1.6889
34088SOL     OW 7583   9.447  10.488   6.262 -0.4220 -0.1848  0.1186
34088SOL    HW1 7584   9.496  10.453   6.187  1.5153 -0.7026  1.5298
34088SOL    HW2 7585   9.458  10.583   6.256  0.0272 -0.2454 -0.0689
34089SOL     OW 7586  11.247   1.450   7.623 -0.4251 -0.3202 -0.0566
34089SOL    HW1 7587  11.190   1.401   7.682 -1.7424 -0.1031 -1.1103
34089SOL    HW2 7588  11.304   1.383   7.585  1.0940 -0.3450  2.0984
34090SOL     OW 7589   4.234   0.541   2.330 -0.1103 -0.1269  0.5989
34090SOL    HW1 7590   4.268   0.559   2.242  1.2580 -0.8509  0.9450
34090SOL    HW2 7591   4.154   0.490   2.315 -0.2865  0.3758 -0.2314
34091SOL     OW 7592  11.605   3.974   8.962 -0.3246 -0.0764  0.4357
34091SOL    HW1 7593  11.650   4.050   8.925  0.5889 -1.4348 -1.3807
34091SOL    HW2 7594  11.554   4.010   9.034 -0.7849  2.4512 -1.0274
34092SOL     OW 7595   6.517   4.793   0.531  0.6656 -0.5931 -0.2024
34092SOL    HW1 7596   6.556   4.873   0.568 -0.2593 -0.5837  0.8099
34092SOL    HW2 7597   6.580   4.724   0.551  1.1510 -0.2396 -0.4787
34093SOL     OW 7598   6.454   2.857  10.277 -0.0273  0.1754 -0.1110
34093SOL    HW1 7599   6.483   2.898  10.195 -1.1738  0.1534 -0.5470
34093SOL    HW2 7600   6.443   2.765  10.255 -3.2706  0.6094 -0.8533
34094SOL     OW 7601   9.422   7.412   7.081 -0.3696 -0.4145 -0.4911
34094SOL    HW1 7602   9.496   7.471   7.090  0.6819 -1.7697  0.0342
34094SOL    HW2 7603   9.449   7.332   7.126 -1.2269 -1.7947 -2.2996
34095SOL     OW 7604   5.498   7.807   1.338 -0.4819 -0.6233 -0.1629
34095SOL    HW1 7605   5.499   7.743   1.409  1.6413 -0.0798  0.3732
34095SOL    HW2 7606   5.581   7.795   1.293 -0.5327  0.9869 -0.7569
34096SOL     OW 7607   8.870   5.174   1.133  0.1153 -0.7479 -0.3652
34096SOL    HW1 7608   8.822   5.094   1.153 -0.1417 -0.6661 -0.6491
34096SOL    HW2 7609   8.878   5.175   1.037 -1.5723  0.5049 -0.5587
34097SOL     OW 7610   7.150   9.474   5.420 -0.6213 -0.0796  0.0874
34097SOL    HW1 7611   7.193   9.445   5.500 -0.7275 -0.6725 -0.0690
34097SOL    HW2 7612   7.114   9.394   5.381 -0.3336  0.1664 -0.6938
34098SOL     OW 7613   6.115   0.421   6.501 -0.6483 -0.4094  0.0832
34098SOL    HW1 7614   6.161   0.425   6.418  0.6168  1.3325  0.7981
34098SOL    HW2 7615   6.025   0.397   6.477 -0.8326  1.9313 -2.0511
34099SOL     OW 7616  10.147   4.422   7.165 -0.0702 -0.7094 -0.4749
34099SOL    HW1 7617  10.090   4.416   7.242  0.8301 -0.1257  0.2711
34099SOL    HW2 7618  10.141   4.514   7.138  2.0186 -0.0901  0.8714
34100SOL     OW 7619   8.502   7.626   2.547  0.3690  0.4867  0.3166
34100SOL    HW1 7620   8.586   7.581   2.549  0.4712  0.5842 -0.8602
34100SOL    HW2 7621   8.524   7.719   2.553  0.3445  0.5082  0.0879
34101SOL     OW 7622   5.591  11.664   4.215  0.1753  0.2470  0.3060
34101SOL    HW1 7623   5.579  11.575   4.247  0.6886  0.5391  1.3489
34101SOL    HW2 7624   5.654  11.703   4.276  0.1502  1.2430 -0.2886
34102SOL     OW 7625   7.101   0.468   7.851 -0.7891  0.1481  0.0717
34102SOL    HW1 7626   7.193   0.444   7.847 -1.0027 -0.6030 -0.5273
34102SOL    HW2 7627   7.087   0.524   7.775 -1.0461 -0.5209 -0.3739
34103SOL     OW 7628   0.125   5.385   7.961  0.2807 -0.1643 -0.2689
34103SOL    HW1 7629   0.161   5.344   7.882 -2.2804 -1.1792 -1.0495
34103SOL    HW2 7630   0.092   5.311   8.012  2.2561  0.4447  2.0394
34104SOL     OW 7631   7.154  11.811   0.365  0.1502 -0.1885  0.0729
34104SOL    HW1 7632   7.227  11.767   0.410  0.5537  1.3963  1.0711
34104SOL    HW2 7633   7.091  11.828   0.435  0.3016  1.3497 -0.1269
34105SOL     OW 7634   7.032  10.516   0.718  0.7272 -0.1565 -0.1997
34105SOL    HW1 7635   6.951  10.496   0.671  0.7544  0.1933 -0.4054
34105SOL    HW2 7636   7.100  10.513   0.650  0.9771 -1.0124  0.0739
34106SOL     OW 7637  10.062   4.067   0.428 -0.0965  0.2466 -0.1893
34106SOL    HW1 7638  10.151   4.093   0.453  0.4624 -1.3944 -0.3428
34106SOL    HW2 7639  10.062   4.068   0.333 -0.1225 -0.1035 -0.1950
34107SOL     OW 7640   6.681  11.552   8.028 -0.1820  0.4248 -0.4287
34107SOL    HW1 7641   6.707  11.634   7.987 -1.9882  0.8884 -0.7214
34107SOL    HW2 7642   6.616  11.577   8.093  0.1965 -0.6528  0.3893
34108SOL     OW 7643   2.615   9.226   6.934  0.6020  1.0556 -0.1437
34108SOL    HW1 7644   2.689   9.165   6.931 -0.3447 -0.1194 -0.4258
34108SOL    HW2 7645   2.656   9.313   6.938  1.9884  0.4028  0.8689
34109SOL     OW 7646   9.388   1.174   2.608  0.5646  0.1295 -0.0154
34109SOL    HW1 7647   9.400   1.155   2.515 -0.1239  0.1659 -0.1155
34109SOL    HW2 7648   9.467   1.222   2.633  1.2146 -0.7436 -0.3426
34110SOL     OW 7649   6.550   5.005   7.839  0.1318  0.2231 -0.0060
34110SOL    HW1 7650   6.596   4.993   7.757 -1.4357  1.5815 -1.1384
34110SOL    HW2 7651   6.610   5.055   7.894  0.9376 -0.1492 -0.5315
34111SOL     OW 7652   9.434   1.926  10.775 -0.1155 -0.4206  0.1933
34111SOL    HW1 7653   9.427   1.833  10.755  0.0639 -0.5642  0.7813
34111SOL    HW2 7654   9.491   1.930  10.853  0.6286  0.2370 -0.3663
34112SOL     OW 7655  11.346   5.382   5.022 -0.2160 -0.1536 -0.4808
34112SOL    HW1 7656  11.270   5.351   4.973  0.6864 -0.1333 -1.9431
34112SOL    HW2 7657  11.412   5.401   4.955  1.4962 -1.2659  0.8175
34113SOL     OW 7658  11.212   8.237  11.009  0.9893  0.2597 -0.2587
34113SOL    HW1 7659  11.220   8.152  10.967  2.0608 -1.1400  2.5358
34113SOL    HW2 7660  11.141   8.228  11.071  1.6147  1.1381  0.6268
34114SOL     OW 7661   5.118   0.696   9.192 -0.2906 -0.4799  0.2504
34114SOL    HW1 7662   5.089   0.685   9.283 -1.4206  1.4643  0.1887
34114SOL    HW2 7663   5.212   0.682   9.195 -0.4793 -1.7101  1.4747
34115SOL     OW 7664   1.682   3.620   6.309 -0.0377  0.1326  0.7627
34115SOL    HW1 7665   1.627   3.570   6.249  2.1847 -0.1506 -1.1844
34115SOL    HW2 7666   1.675   3.711   6.277  1.6678 -0.1173 -0.4353
34116SOL     OW 7667   4.556   5.757   8.566  0.0999 -0.5753  0.0782
34116SOL    HW1 7668   4.651   5.755   8.562  0.1023  0.6119 -2.2820
34116SOL    HW2 7669   4.536   5.839   8.612  0.1902 -1.0391  0.9653
34117SOL     OW 7670   3.827   2.134   7.154  0.2662 -0.0836 -0.1001
34117SOL    HW1 7671   3.766   2.188   7.102 -0.8773 -1.8372 -0.6536
34117SOL    HW2 7672   3.801   2.044   7.136  1.5083 -0.8242  1.5501
34118SOL     OW 7673   5.137   3.892  10.896 -0.2560 -0.6397 -0.4591
34118SOL    HW1 7674   5.150   3.983  10.924  1.0731 -1.0133  0.2392
34118SOL    HW2 7675   5.185   3.885  10.814  1.5299 -1.2296  0.5738
34119SOL     OW 7676   7.392   8.527   1.730 -0.6746  0.3245 -0.1465
34119SOL    HW1 7677   7.385   8.434   1.711  0.0624  0.0141  1.0140
34119SOL    HW2 7678   7.483   8.540   1.757 -1.4905  0.7831  2.6617
34120SOL     OW 7679  11.533   5.291  10.792 -0.2233  0.5250  0.2379
34120SOL    HW1 7680  11.563   5.379  10.770  0.2153 -0.3311 -3.0600
34120SOL    HW2 7681  11.613   5.240  10.804 -0.4737  0.4382  1.6773
34121SOL     OW 7682   3.817   4.883   2.383 -0.3308 -0.2386  0.9979
34121SOL    HW1 7683   3.856   4.845   2.461 -0.0492 -0.4582  0.7556
34121SOL    HW2 7684   3.878   4.953   2.358 -0.5801  0.0307  1.1527
34122SOL     OW 7685   0.067   7.541   6.561  0.4896 -0.0252  0.2362
34122SOL    HW1 7686   0.041   7.617   6.508 -0.4664 -0.7306 -0.3493
34122SOL    HW2 7687   0.137   7.500   6.511  1.1244  0.5610  0.6380
34123SOL     OW 7688   5.040   9.559   3.213 -0.3425 -0.1138  0.0135
34123SOL    HW1 7689   5.092   9.639   3.208 -1.5697  0.8517  1.8167
34123SOL    HW2 7690   5.017   9.550   3.305  0.0504 -2.7746 -0.0696
34124SOL     OW 7691   3.014   9.888  10.659 -0.4948  0.1514 -0.6895
34124SOL    HW1 7692   2.918   9.885  10.651 -0.4293 -0.6033 -1.2565
34124SOL    HW2 7693   3.031   9.970  10.705 -1.4733 -0.1535  0.2754
34125SOL     OW 7694   2.654   2.555   0.946  0.1592 -0.0083  0.0682
34125SOL    HW1 7695   2.660   2.483   1.010 -0.4240  0.0741  0.2184
34125SOL    HW2 7696   2.569   2.542   0.904 -0.2570  1.0009  0.5801
34126SOL     OW 7697   3.774   7.033   5.140 -0.1520  0.1523 -0.2121
34126SOL    HW1 7698   3.768   7.120   5.180  1.4549  0.0836  0.2591
34126SOL    HW2 7699   3.863   7.003   5.160  0.1424 -0.6220 -2.3702
34127SOL     OW 7700   4.941   1.213   7.799  0.4998 -0.3362 -0.1958
34127SOL    HW1 7701   4.911   1.231   7.710  0.6531  0.5261 -0.0753
34127SOL    HW2 7702   5.037   1.218   7.794  0.5572 -1.1874 -0.1677
34128SOL     OW 7703   0.687  10.586   7.109 -0.0147  0.2617  0.2073
34128SOL    HW1 7704   0.700  10.506   7.058 -2.6993  0.6207 -1.2101
34128SOL    HW2 7705   0.718  10.657   7.052 -0.2976  0.4496  0.2839
34129SOL     OW 7706   9.881   6.460   5.804 -0.4169  0.3901 -0.1869
34129SOL    HW1 7707   9.833   6.532   5.846  0.5125  0.9961 -0.1406
34129SOL    HW2 7708   9.972   6.486   5.809  0.0758 -1.3421  0.8900
34130SOL     OW 7709   7.951  10.189   6.234  0.2952 -0.3083 -0.4883
34130SOL    HW1 7710   7.956  10.195   6.330 -1.8611 -1.3805 -0.2524
34130SOL    HW2 7711   7.904  10.268   6.208  1.4462  0.3109 -0.7704
34131SOL     OW 7712   6.316   2.194   5.476  0.1645 -0.0604  0.1126
34131SOL    HW1 7713   6.291   2.104   5.455 -0.3819 -0.5017  2.3810
34131SOL    HW2 7714   6.255   2.249   5.427 -0.4216 -0.9700 -0.1868
34132SOL     OW 7715   7.376   6.733   0.307 -0.8928 -0.0240 -0.2698
34132SOL    HW1 7716   7.445   6.742   0.373 -0.2368  0.9504 -1.0702
34132SOL    HW2 7717   7.324   6.659   0.338 -0.4322  0.2241  1.1904
34133SOL     OW 7718   3.876   6.538  10.339 -0.0326  0.0312 -0.0204
34133SOL    HW1 7719   3.937   6.464  10.344 -0.0573 -0.1065 -1.3950
34133SOL    HW2 7720   3.830   6.525  10.256  1.6409  2.8542 -1.5344
34134SOL     OW 7721  10.403   7.576   6.413  0.1953 -0.0196 -0.1710
34134SOL    HW1 7722  10.382   7.630   6.336 -1.7108 -1.3303 -0.6286
34134SOL    HW2 7723  10.366   7.624   6.487  1.3490  0.8556 -0.1303
34135SOL     OW 7724   3.002   4.118   5.156 -0.1123 -0.0177 -0.9504
34135SOL    HW1 7725   3.009   4.123   5.252  0.1457  0.6800 -1.0048
34135SOL    HW2 7726   2.987   4.025   5.139  0.1792 -0.2020 -0.2531
34136SOL     OW 7727   8.190   3.927  11.187  0.2355 -0.1513  0.2425
34136SOL    HW1 7728   8.145   3.901  11.107  0.8113 -1.2736  0.2555
34136SOL    HW2 7729   8.282   3.902  11.172  0.5700  0.6725  0.8130
34137SOL     OW 7730   4.906   8.200   3.003 -0.6746 -0.1335 -0.2754
34137SOL    HW1 7731   4.849   8.275   2.986 -0.0852  0.2897 -0.4410
34137SOL    HW2 7732   4.972   8.233   3.064  2.3144  0.9246 -3.6684
34138SOL     OW 7733   1.636   6.681   8.835 -0.2103  0.0643  0.1336
34138SOL    HW1 7734   1.706   6.725   8.882  0.7802 -0.3600 -0.8933
34138SOL    HW2 7735   1.617   6.603   8.887  1.6456 -0.9889 -0.6957
34139SOL     OW 7736   4.515   3.744   5.966 -0.0409  0.0970 -0.1407
34139SOL    HW1 7737   4.504   3.832   6.003  0.9884 -0.2608  1.1211
34139SOL    HW2 7738   4.511   3.686   6.043  2.5337 -0.6607 -0.5044
34140SOL     OW 7739   7.795  11.364  10.920  0.3603 -0.3119  0.0899
34140SOL    HW1 7740   7.796  11.456  10.892  1.7720 -0.2502  0.2676
34140SOL    HW2 7741   7.868  11.357  10.981  0.2190 -1.5476  0.1385
34141SOL     OW 7742   7.126   3.553  10.750  0.3499 -0.4493  0.0213
34141SOL    HW1 7743   7.127   3.464  10.715 -2.1411 -1.0774  1.3317
34141SOL    HW2 7744   7.062   3.600  10.697 -2.7375 -1.1535  2.7908
34142SOL     OW 7745   9.537   0.135  10.303  0.2065  0.2850 -0.2487
34142SOL    HW1 7746   9.617   0.188  10.304  1.0043 -0.8770  1.0082
34142SOL    HW2 7747   9.503   0.141  10.393 -1.3995  1.1066 -0.8599
34143SOL     OW 7748   4.151   8.419   6.061 -0.4424  0.0667 -0.2275
34143SOL    HW1 7749   4.194   8.356   6.119 -0.7822  1.2287  1.3531
34143SOL    HW2 7750   4.223   8.461   6.014  0.0971  0.9080  1.2661
34144SOL     OW 7751   5.665   9.008  10.833 -0.5254 -0.0893 -0.5057
34144SOL    HW1 7752   5.614   8.977  10.907 -1.9308  0.7987 -1.0659
34144SOL    HW2 7753   5.666   8.934  10.772  0.7384 -0.8662  0.4020
34145SOL     OW 7754  11.179   2.020   7.610  0.2519 -0.0720 -0.2719
34145SOL    HW1 7755  11.207   1.953   7.672 -0.5327 -0.7543 -0.6410
34145SOL    HW2 7756  11.251   2.084   7.610  0.4688 -0.2915  0.9789
34146SOL     OW 7757   2.748  10.318   0.749  0.3340  0.3764 -0.2492
34146SOL    HW1 7758   2.732  10.294   0.840 -1.9375  1.2707 -0.3438
34146SOL    HW2 7759   2.689  10.262   0.699  2.3589 -0.9164 -1.3276
34147SOL     OW 7760   8.117   1.526   2.585  0.3480 -0.0785  0.3457
34147SOL    HW1 7761   8.078   1.529   2.498  1.2380 -0.0474 -0.0550
34147SOL    HW2 7762   8.089   1.442   2.622 -0.8312  0.3178  0.4265
34148SOL     OW 7763   2.673   8.623   9.034  0.1184  0.8225 -0.2356
34148SOL    HW1 7764   2.679   8.552   9.098 -0.7214  0.8474 -0.1148
34148SOL    HW2 7765   2.755   8.619   8.985 -0.0034 -0.3773 -0.3696
34149SOL     OW 7766   2.478   2.000   2.690  0.4036 -0.1012  0.1412
34149SOL    HW1 7767   2.566   2.035   2.676  1.6481 -2.4037  1.6220
34149SOL    HW2 7768   2.482   1.910   2.658 -1.1997 -0.4907  0.9171
34150SOL     OW 7769   9.566   1.202   5.868 -0.3056  0.0333 -0.2908
34150SOL    HW1 7770   9.570   1.233   5.959 -0.3517  0.1985 -0.3442
34150SOL    HW2 7771   9.630   1.131   5.864  0.3651  0.6188 -0.3521
34151SOL     OW 7772   3.808   5.987   4.211 -0.8997  0.7983  0.0075
34151SOL    HW1 7773   3.807   5.905   4.161 -1.8439  0.6934  0.1809
34151SOL    HW2 7774   3.750   5.969   4.286  0.1790  1.0761  0.9378
34152SOL     OW 7775   7.001   6.250   2.715 -0.0638 -0.4875 -0.4054
34152SOL    HW1 7776   6.942   6.322   2.695  1.0137  1.0494  1.5452
34152SOL    HW2 7777   7.086   6.277   2.679  0.5420 -0.3162  1.0597
34153SOL     OW 7778   7.154   2.994   5.328 -0.3678  0.2032 -0.4409
34153SOL    HW1 7779   7.240   2.958   5.306 -0.7962 -0.9568 -0.2881
34153SOL    HW2 7780   7.165   3.029   5.416 -0.1708 -0.3787 -0.2271
34154SOL     OW 7781   6.735   5.203   1.816  0.7308  0.3484  0.1784
34154SOL    HW1 7782   6.655   5.237   1.855  1.2682  0.4424  1.2326
34154SOL    HW2 7783   6.711   5.115   1.785 -0.4555  1.3236 -1.8811
34155SOL     OW 7784   6.625   6.003  11.735  0.3202 -0.0924  0.1437
34155SOL    HW1 7785   6.651   5.958  11.815  1.6730  0.6998  0.1841
34155SOL    HW2 7786   6.666   6.089  11.742 -0.2532  0.2947 -1.0186
34156SOL     OW 7787   7.179   6.511  11.594 -0.2856 -0.0734 -0.2446
34156SOL    HW1 7788   7.145   6.515  11.504  1.5467  0.4175 -0.9793
34156SOL    HW2 7789   7.233   6.590  11.602  0.7981 -0.8825  0.7622
34157SOL     OW 7790   9.947   1.270   3.125 -0.4956 -0.8383  0.5747
34157SOL    HW1 7791   9.890   1.306   3.193 -0.5624  1.4484 -0.6074
34157SOL    HW2 7792   9.950   1.176   3.143 -3.2222 -0.7788  1.7261
34158SOL     OW 7793   5.762   9.057   6.062  0.3509 -0.2133  0.4775
34158SOL    HW1 7794   5.836   8.999   6.044 -0.2505 -0.7250 -0.4206
34158SOL    HW2 7795   5.789   9.142   6.028  1.4053  0.1825  2.1758
34159SOL     OW 7796   4.191   5.902   1.116 -1.3495 -0.5847 -0.2522
34159SOL    HW1 7797   4.276   5.868   1.088 -1.5033 -0.4746 -0.8626
34159SOL    HW2 7798   4.193   5.995   1.093 -2.0374 -0.8051 -1.2509
34160SOL     OW 7799   4.395   0.125   6.152  0.2935  0.0410 -0.2179
34160SOL    HW1 7800   4.388   0.166   6.066 -0.9737  1.5787  0.5504
34160SOL    HW2 7801   4.459   0.179   6.199  0.6984 -0.5668 -0.0556
34161SOL     OW 7802   7.851   2.806   0.774  0.0852  0.2440 -0.4793
34161SOL    HW1 7803   7.920   2.784   0.837 -0.2186  1.5141  0.3503
34161SOL    HW2 7804   7.803   2.725   0.760  0.0220 -0.0212  1.1298
34162SOL     OW 7805   1.220   3.239   2.191  0.3030  0.3188  0.3058
34162SOL    HW1 7806   1.233   3.297   2.116 -0.2530  0.8920  0.6435
34162SOL    HW2 7807   1.298   3.184   2.192  1.0180  1.3054  0.1972
34163SOL     OW 7808   9.193   6.293  10.426  0.0593  0.1103  0.2075
34163SOL    HW1 7809   9.126   6.253  10.482  0.1634  1.4405  1.3484
34163SOL    HW2 7810   9.159   6.380  10.407  0.2794 -0.1290 -1.4119
34164SOL     OW 7811   9.978   1.341   3.416  0.0944 -0.0788  0.2254
34164SOL    HW1 7812   9.912   1.362   3.482  0.2448 -1.7319  0.9534
34164SOL    HW2 7813   9.957   1.251   3.389  0.4569  0.3075 -1.4948
34165SOL     OW 7814   4.518   9.300  10.944  0.2526  0.0265  0.6034
34165SOL    HW1 7815   4.488   9.376  10.995 -0.4922 -0.1997  0.5071
34165SOL    HW2 7816   4.563   9.245  11.008 -0.5213 -0.1708  0.9912
34166SOL     OW 7817  10.257   1.035   4.381  0.4785  0.2665 -0.1238
34166SOL    HW1 7818  10.309   0.995   4.311  1.5119  0.5208  0.4687
34166SOL    HW2 7819  10.236   1.122   4.349  0.3998  0.1531 -0.3815
34167SOL     OW 7820   4.975   6.429   6.210 -0.1187  0.4311 -0.0976
34167SOL    HW1 7821   4.894   6.477   6.192 -0.6417 -0.4614 -0.2309
34167SOL    HW2 7822   4.945   6.347   6.251  0.6590 -0.2316 -0.8041
34168SOL     OW 7823   3.399   4.798   3.924  0.1077  0.4583  0.5204
34168SOL    HW1 7824   3.445   4.775   3.843 -1.2281 -1.3644  0.2211
34168SOL    HW2 7825   3.323   4.849   3.895  0.0142  0.4181  0.6914
34169SOL     OW 7826  11.400   3.198   4.970  0.1676 -0.1656 -0.4430
34169SOL    HW1 7827  11.456   3.134   4.925 -0.7273 -1.7512  0.5973
34169SOL    HW2 7828  11.314   3.157   4.974  0.2288 -0.2279  2.8180
34170SOL     OW 7829  11.205   7.107   7.078 -0.3223  0.3726  0.0937
34170SOL    HW1 7830  11.209   7.031   7.136 -1.0633  0.2215 -0.0481
34170SOL    HW2 7831  11.253   7.079   7.000 -1.1790 -0.2138 -0.2410
34171SOL     OW 7832   9.253   6.070   9.697 -0.6035  0.3021  0.1154
34171SOL    HW1 7833   9.348   6.082   9.697 -0.8167  2.3853  0.9090
34171SOL    HW2 7834   9.232   6.036   9.784 -0.4789 -1.7282 -0.5896
34172SOL     OW 7835   5.982   4.269   5.579  0.2730  0.3732 -0.3332
34172SOL    HW1 7836   5.981   4.238   5.670  0.3640 -0.0172 -0.4649
34172SOL    HW2 7837   5.901   4.236   5.541  1.1200 -1.1171 -0.9366
34173SOL     OW 7838  10.913   5.365  10.622 -0.4102  0.2147 -0.0240
34173SOL    HW1 7839  10.914   5.389  10.529  1.1105  1.4390  0.2821
34173SOL    HW2 7840  10.833   5.406  10.656  0.3342  1.9321 -0.2656
34174SOL     OW 7841   1.396   1.513   3.523  0.5049 -0.3292  0.2057
34174SOL    HW1 7842   1.429   1.559   3.600 -1.1209 -2.1501  2.1253
34174SOL    HW2 7843   1.474   1.474   3.483  1.3012 -0.0632  1.4378
34175SOL     OW 7844  10.693   5.744   6.023  0.3801  0.1650 -0.8530
34175SOL    HW1 7845  10.755   5.709   5.959  0.8537  1.2603 -1.0114
34175SOL    HW2 7846  10.682   5.836   5.998 -0.2114  0.3435  0.0327
34176SOL     OW 7847   1.859   4.297   8.191  0.5690 -0.0928 -0.2204
34176SOL    HW1 7848   1.781   4.283   8.245  1.1381 -0.3586  0.5483
34176SOL    HW2 7849   1.861   4.223   8.131 -0.9429  1.0007 -1.7261
34177SOL     OW 7850   6.116   3.277   5.950  0.4553 -0.0623 -0.6700
34177SOL    HW1 7851   6.208   3.280   5.923  0.5059  0.3955 -0.4669
34177SOL    HW2 7852   6.088   3.187   5.934  1.2970 -0.5410  0.4580
34178SOL     OW 7853   8.725   4.441   5.448  0.5092 -0.2598  0.5246
34178SOL    HW1 7854   8.730   4.407   5.359  0.5500 -0.9754  0.7949
34178SOL    HW2 7855   8.658   4.509   5.444 -0.0750 -0.8519  0.1282
34179SOL     OW 7856   0.957   2.253   8.192  0.0405  0.4358  0.0193
34179SOL    HW1 7857   0.960   2.166   8.151 -0.6418  0.8657 -0.9731
34179SOL    HW2 7858   1.013   2.308   8.138 -0.9910  1.0487 -0.4554
34180SOL     OW 7859   6.725   0.469   1.232  0.4279  0.2374 -0.0755
34180SOL    HW1 7860   6.815   0.499   1.222  0.4340 -0.0015 -0.7945
34180SOL    HW2 7861   6.695   0.509   1.314  0.1755  2.8390 -1.3365
34181SOL     OW 7862   1.407   8.495   4.559 -0.2491 -0.2218 -0.2912
34181SOL    HW1 7863   1.444   8.477   4.645  0.6306 -2.4770 -1.0846
34181SOL    HW2 7864   1.313   8.502   4.575 -0.2181 -1.6642  0.7408
34182SOL     OW 7865  11.691  10.994  10.297  0.6033 -0.5720  0.1033
34182SOL    HW1 7866  11.662  10.935  10.366  0.0036  0.3066  0.6307
34182SOL    HW2 7867  11.682  10.944  10.217 -0.3714 -1.0388  0.4858
34183SOL     OW 7868   0.270   0.277   4.567 -0.0822 -0.1479  0.4515
34183SOL    HW1 7869   0.315   0.212   4.513 -1.9426 -0.0995 -1.2791
34183SOL    HW2 7870   0.186   0.236   4.589 -0.1741  0.6404  1.6509
34184SOL     OW 7871   4.607   0.574  11.688  0.3030  0.1983  0.4310
34184SOL    HW1 7872   4.673   0.507  11.670  0.8370  0.8248  0.0244
34184SOL    HW2 7873   4.644   0.625  11.760  0.2807  0.5715  0.1818
34185SOL     OW 7874   4.146   0.715   8.733  0.1071 -0.2277  0.6184
34185SOL    HW1 7875   4.140   0.691   8.825 -1.1291  0.6612  0.7889
34185SOL    HW2 7876   4.226   0.768   8.727  0.3475 -0.5282  1.1100
34186SOL     OW 7877   9.153   2.583   0.444  0.1784 -0.0111  0.4133
34186SOL    HW1 7878   9.084   2.518   0.435  0.3100 -0.0732 -0.2048
34186SOL    HW2 7879   9.234   2.536   0.421  0.5209 -0.1039  1.7182
34187SOL     OW 7880   1.971   1.021   8.806 -0.0892 -0.5561  0.3643
34187SOL    HW1 7881   1.982   0.926   8.814  1.8560 -0.4481 -0.4355
34187SOL    HW2 7882   1.952   1.050   8.895  0.8745 -1.5466  0.9356
34188SOL     OW 7883   1.827   6.353   4.624 -0.2848 -0.6005  0.0215
34188SOL    HW1 7884   1.878   6.357   4.543 -0.6586 -0.3681 -0.2024
34188SOL    HW2 7885   1.825   6.260   4.646 -1.9806 -0.9443 -1.3983
34189SOL     OW 7886   2.076   5.924   4.754  0.7515  0.1424 -0.5039
34189SOL    HW1 7887   2.098   5.935   4.661 -0.8336  1.1895 -0.8089
34189SOL    HW2 7888   2.038   6.008   4.779 -0.6696 -0.7685  0.5539
34190SOL     OW 7889   5.395  11.817   9.731 -0.5200 -0.3497 -0.3723
34190SOL    HW1 7890   5.406  11.730   9.694 -1.8630 -1.1406  1.0312
34190SOL    HW2 7891   5.480  11.836   9.772 -0.1273 -0.8444 -0.9341
34191SOL     OW 7892   4.764   5.543   2.484 -0.2169  0.1703 -0.0426
34191SOL    HW1 7893   4.677   5.531   2.447 -1.4432 -0.9683  2.9525
34191SOL    HW2 7894   4.787   5.634   2.463 -2.8102  0.9940  0.4353
34192SOL     OW 7895   4.116  11.379   4.787  0.2120 -0.1237  0.1743
34192SOL    HW1 7896   4.115  11.298   4.839 -0.4951  0.5817  1.3030
34192SOL    HW2 7897   4.057  11.361   4.714 -0.9598 -0.2257  1.1043
34193SOL     OW 7898  10.628   5.005   4.541  0.0596 -0.1596  0.3943
34193SOL    HW1 7899  10.706   5.025   4.593  0.0341 -0.6760  0.6357
34193SOL    HW2 7900  10.570   4.958   4.602 -0.2970 -0.0867  0.1176
34194SOL     OW 7901   3.967   8.078   6.239  0.3759  0.4894  0.3831
34194SOL    HW1 7902   3.999   8.116   6.321 -0.7630 -1.9052  2.0450
34194SOL    HW2 7903   4.046   8.050   6.194  1.0119 -2.3677  2.9105
34195SOL     OW 7904   1.392   9.021   1.474 -0.6126  0.3531 -0.1028
34195SOL    HW1 7905   1.396   9.071   1.555  1.5292 -1.6159  1.1291
34195SOL    HW2 7906   1.369   8.932   1.502  0.6966 -0.5031 -1.5514
34196SOL     OW 7907   8.005  11.684   0.640  0.4684 -0.1201  0.1934
34196SOL    HW1 7908   7.986  11.769   0.601 -2.2106 -0.1776  1.1427
34196SOL    HW2 7909   8.005  11.701   0.734  0.9919 -0.9950  0.3598
34197SOL     OW 7910   4.170   8.779   3.359 -0.3388 -0.1728 -0.1841
34197SOL    HW1 7911   4.131   8.856   3.400 -0.0761  0.9678 -1.9254
34197SOL    HW2 7912   4.248   8.761   3.411 -1.0688 -0.0354  0.9828
34198SOL     OW 7913   1.653   1.198   0.249  0.0810  0.3033  0.0870
34198SOL    HW1 7914   1.584   1.248   0.293  1.8974  0.7620  2.6252
34198SOL    HW2 7915   1.733   1.222   0.295  1.4349 -3.0756 -0.2474
34199SOL     OW 7916   2.014  11.590   2.436  0.2197  0.5165  0.3001
34199SOL    HW1 7917   1.959  11.632   2.502 -1.5000 -0.2831 -0.5698
34199SOL    HW2 7918   2.081  11.656   2.417 -0.7298  1.7474  1.0210
34200SOL     OW 7919   1.310   2.184   3.268  0.1796 -0.0399 -0.1158
34200SOL    HW1 7920   1.311   2.198   3.362 -0.1559 -0.9550  0.0376
34200SOL    HW2 7921   1.227   2.221   3.239 -0.0967 -0.5030  0.0772
34201SOL     OW 7922   0.584   8.324   0.101 -0.5735  0.1889 -0.0848
34201SOL    HW1 7923   0.628   8.397   0.144 -0.9121  0.8206 -0.8050
34201SOL    HW2 7924   0.600   8.337   0.008 -0.1799 -0.9546 -0.2034
34202SOL     OW 7925   7.390   9.987   0.031  0.0809 -0.1024 -0.0970
34202SOL    HW1 7926   7.345   9.946  -0.043 -0.5187  1.1585 -0.4403
34202SOL    HW2 7927   7.439   9.915   0.071  1.4216 -0.5891 -2.4385
34203SOL     OW 7928   9.303   2.166   7.558  0.0909  0.2439  0.1950
34203SOL    HW1 7929   9.247   2.200   7.628  0.0801  0.4781  0.0739
34203SOL    HW2 7930   9.295   2.071   7.565 -0.9118  0.2860 -0.3000
34204SOL     OW 7931   4.179   2.677  10.314  0.3108  0.5455  0.3796
34204SOL    HW1 7932   4.239   2.625  10.260  0.6958  1.4388 -0.0794
34204SOL    HW2 7933   4.106   2.618  10.332  0.8226 -0.2106  0.0292
34205SOL     OW 7934   0.488   1.503   2.417  0.2631  0.2990 -0.2378
34205SOL    HW1 7935   0.400   1.464   2.416  0.5643 -0.4999  1.1948
34205SOL    HW2 7936   0.474   1.594   2.393 -1.1895  0.5676  1.4155
34206SOL     OW 7937   0.402   9.315   5.190 -0.1590 -0.2543 -0.4444
34206SOL    HW1 7938   0.370   9.404   5.206  0.2897 -0.1401 -0.1959
34206SOL    HW2 7939   0.478   9.305   5.246 -0.5257 -0.9916 -0.0508
34207SOL     OW 7940   3.770   7.892   3.128 -0.4542  0.3108 -0.2896
34207SOL    HW1 7941   3.710   7.821   3.151 -0.6998  1.1529  1.8566
34207SOL    HW2 7942   3.828   7.900   3.203  2.5296 -0.5455 -2.3224
34208SOL     OW 7943   7.387   6.267   7.287 -0.4484  0.2734 -0.2787
34208SOL    HW1 7944   7.306   6.318   7.298 -0.3703  0.6757 -1.4659
34208SOL    HW2 7945   7.425   6.300   7.205  0.1170 -1.0205 -0.5511
34209SOL     OW 7946   2.665   8.034  11.019  0.8249  0.4328 -0.2720
34209SOL    HW1 7947   2.639   7.968  10.956 -1.8828  1.9082 -0.8382
34209SOL    HW2 7948   2.672   7.987  11.102 -0.2368 -0.7069 -0.8027
34210SOL     OW 7949   2.989   5.168   8.981 -0.7012 -0.1241 -0.0349
34210SOL    HW1 7950   2.987   5.213   9.066 -0.2643  2.3325 -1.2153
34210SOL    HW2 7951   2.905   5.191   8.941 -0.2994 -0.0444 -0.8381
34211SOL     OW 7952  10.812   2.293   4.509 -0.5095  0.5573 -0.5127
34211SOL    HW1 7953  10.720   2.310   4.525 -0.2250  0.1124  1.9345
34211SOL    HW2 7954  10.818   2.199   4.496 -0.1580  0.1912  1.8603
34212SOL     OW 7955  10.948   0.757   5.146 -0.4720  0.1882 -0.1718
34212SOL    HW1 7956  11.033   0.733   5.182 -1.0091 -0.4962  0.6982
34212SOL    HW2 7957  10.900   0.674   5.141 -1.7825  0.8119  1.2795
34213SOL     OW 7958   7.487  11.510   5.873  0.5489 -0.0031  0.2517
34213SOL    HW1 7959   7.578  11.529   5.896  0.6620  1.0970 -1.0097
34213SOL    HW2 7960   7.489  11.420   5.841  1.0435 -0.2433  0.9246
34214SOL     OW 7961  10.208   3.556   5.746 -0.0986 -0.1488 -0.4111
34214SOL    HW1 7962  10.228   3.645   5.775 -2.6572 -0.0527  1.4962
34214SOL    HW2 7963  10.279   3.503   5.781  1.4439  1.0825 -1.5312
34215SOL     OW 7964   5.370   3.288  10.231 -0.1336  0.0042 -0.3106
34215SOL    HW1 7965   5.343   3.229  10.161  0.8564  0.0611 -0.7585
34215SOL    HW2 7966   5.292   3.341  10.250 -0.4162 -0.0352 -1.3473
34216SOL     OW 7967  10.186   2.475   5.760 -0.4434 -0.4860  0.0474
34216SOL    HW1 7968  10.147   2.550   5.716  1.0469 -0.5952 -1.5465
34216SOL    HW2 7969  10.251   2.513   5.820 -0.3273 -0.4508 -0.0997
34217SOL     OW 7970   1.723   8.576   6.448 -0.0411 -0.5843 -0.6411
34217SOL    HW1 7971   1.813   8.606   6.434 -0.1965 -0.4639 -1.4100
34217SOL    HW2 7972   1.727   8.481   6.436  0.2810 -0.7920  0.9216
34218SOL     OW 7973   8.605   3.663   3.299 -0.2121 -0.4148  0.1277
34218SOL    HW1 7974   8.697   3.652   3.273 -0.2588 -0.2758 -0.1007
34218SOL    HW2 7975   8.605   3.741   3.354  0.0360 -1.2225  1.3106
34219SOL     OW 7976   7.103   1.093   9.592 -0.0749  0.2551 -0.1246
34219SOL    HW1 7977   7.161   1.095   9.668  1.3440 -2.9118 -0.9528
34219SOL    HW2 7978   7.157   1.122   9.519 -0.5664  0.4978 -0.4003
34220SOL     OW 7979   6.157   0.991   8.283 -0.1034 -0.9185  0.8099
34220SOL    HW1 7980   6.171   1.085   8.269 -2.5826 -0.6921 -0.7213
34220SOL    HW2 7981   6.194   0.974   8.370  0.5025  1.4315  1.0766
34221SOL     OW 7982   0.742   5.340   1.618 -0.2535 -0.0621 -0.5740
34221SOL    HW1 7983   0.665   5.350   1.561 -1.2704 -0.0038  0.7571
34221SOL    HW2 7984   0.715   5.276   1.683  0.8819 -0.1018 -0.1241
34222SOL     OW 7985   3.449  11.612   8.920 -0.1649 -0.5498 -0.5062
34222SOL    HW1 7986   3.448  11.697   8.877 -0.5118 -1.2234 -1.9095
34222SOL    HW2 7987   3.368  11.610   8.972 -0.5923 -0.3370 -1.1446
34223SOL     OW 7988   8.927   4.341   8.288  0.2533  0.2868 -0.4280
34223SOL    HW1 7989   9.017   4.368   8.308  0.8005 -0.1255 -2.1487
34223SOL    HW2 7990   8.928   4.246   8.300  0.3888  0.1311 -1.5837
34224SOL     OW 7991   0.881   5.214   8.872  0.3574  0.1873 -0.0980
34224SOL    HW1 7992   0.914   5.194   8.784  0.4130 -0.9667  0.1667
34224SOL    HW2 7993   0.827   5.139   8.895 -1.2743  1.3576  0.0958
34225SOL     OW 7994   4.835   8.363  10.697 -0.5612  0.3977 -0.4467
34225SOL    HW1 7995   4.823   8.418  10.620  1.6414 -0.3726 -1.4099
34225SOL    HW2 7996   4.930   8.363  10.712 -0.8424 -0.3597  1.6168
34226SOL     OW 7997   0.615   6.775   0.771  0.3194  0.6482 -0.2061
34226SOL    HW1 7998   0.709   6.760   0.763 -0.1264 -2.9355 -0.3020
34226SOL    HW2 7999   0.584   6.787   0.681  0.5874  1.2462 -0.2219
34227SOL     OW 8000   4.775   2.105   8.278 -0.1314  0.0222 -0.1551
34227SOL    HW1 8001   4.848   2.167   8.280  0.0459 -0.1922  0.6317
34227SOL    HW2 8002   4.710   2.146   8.221  0.3723  0.4817 -0.4086
34228SOL     OW 8003  11.041   1.646   5.757 -0.1069  0.3091  0.1208
34228SOL    HW1 8004  11.136   1.658   5.752 -0.1299  3.0166  3.0436
34228SOL    HW2 8005  11.006   1.700   5.687  0.4668 -0.8619 -1.1059
34229SOL     OW 8006  10.838   8.993   2.892  0.1758 -0.0616  0.2013
34229SOL    HW1 8007  10.902   8.943   2.841 -0.1069  0.9187 -1.1631
34229SOL    HW2 8008  10.763   9.003   2.834 -1.5198 -1.6485  1.9602
34230SOL     OW 8009   8.124   0.734   6.398 -0.0093  0.1321 -0.3914
34230SOL    HW1 8010   8.076   0.701   6.473  2.6751  1.4121  2.0905
34230SOL    HW2 8011   8.175   0.660   6.366  0.1528 -0.0123  0.1962
34231SOL     OW 8012  10.631  10.963  10.945 -0.3317 -0.1599  0.0141
34231SOL    HW1 8013  10.656  10.930  11.031  1.3421  2.7463  0.7789
34231SOL    HW2 8014  10.691  10.922  10.884  1.6141  1.2239  0.9088
34232SOL     OW 8015   6.509   6.214   8.262 -0.6176  0.3323  0.1364
34232SOL    HW1 8016   6.555   6.139   8.299 -0.9330 -0.3388 -0.8015
34232SOL    HW2 8017   6.533   6.215   8.170  2.3319  3.5886  0.7226
34233SOL     OW 8018   6.813   6.796   5.977 -0.0926 -0.0889 -0.2141
34233SOL    HW1 8019   6.803   6.822   5.886 -0.0976  1.4858  0.2052
34233SOL    HW2 8020   6.726   6.767   6.004 -0.8578  2.2413  0.0718
34234SOL     OW 8021   6.670   6.971   5.436 -0.6883 -0.0509  0.6220
34234SOL    HW1 8022   6.595   7.031   5.442 -0.8275 -0.3483  2.9501
34234SOL    HW2 8023   6.637   6.889   5.474  0.1922 -0.8717 -0.3507
34235SOL     OW 8024   7.657   1.111   8.992 -0.4248 -0.3950 -0.2329
34235SOL    HW1 8025   7.721   1.094   9.062 -0.0712 -1.1284 -0.7167
34235SOL    HW2 8026   7.663   1.205   8.976  0.8284 -0.5076 -0.5325
34236SOL     OW 8027  10.176   6.865   1.594 -0.0932  0.0030  0.2589
34236SOL    HW1 8028  10.269   6.879   1.580 -0.5592  2.1264 -1.3611
34236SOL    HW2 8029  10.160   6.896   1.684  0.4652  1.6913 -0.1803
34237SOL     OW 8030  10.274   0.416  11.004  0.2499  0.2567 -0.3870
34237SOL    HW1 8031  10.251   0.365  10.926 -0.3033  0.8768 -0.6440
34237SOL    HW2 8032  10.190   0.436  11.045  0.4629  0.9099 -0.2591
34238SOL     OW 8033   8.209   9.742  11.534  0.1238 -0.3667  0.2154
34238SOL    HW1 8034   8.179   9.710  11.449 -1.4569 -2.1822  1.3634
34238SOL    HW2 8035   8.269   9.675  11.565  0.0812 -0.1134  0.8548
34239SOL     OW 8036   2.380  11.331   0.665 -0.4421 -0.5699 -0.7517
34239SOL    HW1 8037   2.333  11.316   0.583  1.3973  0.4368 -2.0636
34239SOL    HW2 8038   2.403  11.424   0.663 -1.3201 -0.2364  1.4914
34240SOL     OW 8039   3.400   3.882   1.674  0.1732  0.4186  0.1449
34240SOL    HW1 8040   3.468   3.892   1.608 -0.6479 -1.4042 -1.0702
34240SOL    HW2 8041   3.320   3.913   1.630 -0.5849 -1.8522 -0.1734
34241SOL     OW 8042   4.632   7.856   8.617 -0.1536 -0.2421  0.2688
34241SOL    HW1 8043   4.658   7.788   8.555  2.0713  0.8039 -0.0571
34241SOL    HW2 8044   4.565   7.907   8.570  1.4635  0.5166 -1.3702
34242SOL     OW 8045   8.746   7.529   3.779 -0.6477 -0.2424 -0.1442
34242SOL    HW1 8046   8.765   7.487   3.863 -1.0958  0.8023  0.5002
34242SOL    HW2 8047   8.830   7.562   3.749 -0.5378 -0.3297  0.0676
34243SOL     OW 8048   8.124   1.912  10.339  0.7134  0.2536 -0.1888
34243SOL    HW1 8049   8.053   1.973  10.355 -0.0253 -0.1336 -1.7648
34243SOL    HW2 8050   8.162   1.941  10.257  1.6604 -0.2169  0.0721
34244SOL     OW 8051   9.177  11.276   1.003  0.2324 -0.4086 -0.4684
34244SOL    HW1 8052   9.186  11.214   1.075  0.4814  0.2680  0.0932
34244SOL    HW2 8053   9.265  11.314   0.992  0.4611 -1.2474 -1.8235
34245SOL     OW 8054   6.799   8.502  10.013 -0.0725  0.3345  0.0378
34245SOL    HW1 8055   6.756   8.482  10.096 -0.5033  1.9416  0.2270
34245SOL    HW2 8056   6.766   8.435   9.953 -1.4546  0.4473  0.6343
34246SOL     OW 8057   7.697   5.498   7.862  0.1249  0.1592 -0.3328
34246SOL    HW1 8058   7.705   5.439   7.787  1.3459  2.4791 -2.1814
34246SOL    HW2 8059   7.605   5.528   7.859 -0.7589 -2.1488  1.1472
34247SOL     OW 8060   2.843  10.407   6.223 -0.3734 -0.2197  0.0853
34247SOL    HW1 8061   2.911  10.446   6.169 -1.0755  0.5560 -0.2710
34247SOL    HW2 8062   2.811  10.332   6.172 -0.8911  0.3867 -0.4971
34248SOL     OW 8063   4.351   1.173   7.448 -0.4629 -0.5476  0.0478
34248SOL    HW1 8064   4.365   1.139   7.360  0.2997 -0.8016  0.2585
34248SOL    HW2 8065   4.409   1.120   7.503 -0.2379  0.2264  0.5624
34249SOL     OW 8066  11.164   0.984   4.166 -0.5670  0.0905  0.3223
34249SOL    HW1 8067  11.155   1.008   4.073 -0.3548  0.1264  0.3116
34249SOL    HW2 8068  11.116   0.901   4.173 -0.9347  0.2972  0.2685
34250SOL     OW 8069   6.001   3.856   6.933  0.0828 -0.1214  0.2808
34250SOL    HW1 8070   6.079   3.911   6.939  0.0901 -0.2898  2.6149
34250SOL    HW2 8071   5.977   3.838   7.024 -0.9699 -2.4870 -0.3760
34251SOL     OW 8072  11.160   7.728   0.507 -0.2060 -0.2867  0.0577
34251SOL    HW1 8073  11.198   7.787   0.572 -0.3473  0.6782 -0.7114
34251SOL    HW2 8074  11.169   7.640   0.545  0.7724  0.1472  0.8441
34252SOL     OW 8075   3.757   4.656   3.275  0.1997  0.5794 -0.2097
34252SOL    HW1 8076   3.794   4.646   3.363 -0.2794 -0.5596 -0.1311
34252SOL    HW2 8077   3.715   4.742   3.276 -1.8522 -0.3598  1.4528
34253SOL     OW 8078   9.021   5.261  10.027 -0.0699  0.0513  0.6773
34253SOL    HW1 8079   8.992   5.256  10.118  1.3056 -1.7429  1.0619
34253SOL    HW2 8080   9.116   5.270  10.032  0.1296 -1.0594 -0.5804
34254SOL     OW 8081   5.590   6.799  10.690  0.3983 -0.1197  0.2471
34254SOL    HW1 8082   5.547   6.831  10.611 -0.2885 -0.0809  0.6365
34254SOL    HW2 8083   5.571   6.705  10.691 -0.8819  0.1311  1.1588
34255SOL     OW 8084   0.588   2.319   4.762  0.4856 -0.4797 -0.3346
34255SOL    HW1 8085   0.683   2.313   4.754  0.3750 -2.2545 -0.6906
34255SOL    HW2 8086   0.557   2.229   4.750 -1.2939  0.1724 -1.0105
34256SOL     OW 8087   1.418   6.746   5.082 -0.0749 -0.4327  0.3401
34256SOL    HW1 8088   1.377   6.737   5.168  1.6443  2.4713  1.6146
34256SOL    HW2 8089   1.427   6.841   5.070 -0.1555 -0.7337 -3.0500
34257SOL     OW 8090   5.133   8.648   2.180 -0.2950 -0.6586 -0.4554
34257SOL    HW1 8091   5.185   8.644   2.261 -1.2103  1.5228  0.3191
34257SOL    HW2 8092   5.158   8.569   2.132  2.4480 -0.5661  0.6264
34258SOL     OW 8093   0.699  10.253   5.235 -0.2879 -0.0010  0.1891
34258SOL    HW1 8094   0.612  10.252   5.274  1.0443 -0.2220  3.4093
34258SOL    HW2 8095   0.688  10.211   5.150 -3.0642 -1.1845  1.0477
34259SOL     OW 8096   9.532   2.062   9.845  0.0046  0.5245 -0.3600
34259SOL    HW1 8097   9.499   2.148   9.872 -1.0237  0.1023 -0.2213
34259SOL    HW2 8098   9.461   2.002   9.865  1.6517 -0.7864  2.0338
34260SOL     OW 8099   8.223   7.695   0.367 -0.3474  0.8217 -0.1048
34260SOL    HW1 8100   8.215   7.616   0.313 -0.5606  1.9726 -1.8452
34260SOL    HW2 8101   8.315   7.698   0.393  0.1662  1.0824 -1.8281
34261SOL     OW 8102   8.754   1.379  11.096 -0.2819  0.0118 -0.0551
34261SOL    HW1 8103   8.769   1.463  11.053  0.5689 -0.1052 -0.0191
34261SOL    HW2 8104   8.842   1.350  11.122 -0.7989  0.4786  2.5311
34262SOL     OW 8105  11.458   3.949   7.216 -0.1997  0.3809 -0.1759
34262SOL    HW1 8106  11.400   4.024   7.228 -1.7092 -0.7201 -0.2567
34262SOL    HW2 8107  11.444   3.922   7.125 -0.6028 -0.7107  0.1929
34263SOL     OW 8108   3.022   7.102   7.700  0.1231  0.2406  0.3150
34263SOL    HW1 8109   2.968   7.178   7.677 -0.8474 -0.6313 -0.3823
34263SOL    HW2 8110   2.958   7.034   7.721  0.9370 -1.0733 -1.3239
34264SOL     OW 8111   6.129   1.529  11.693  0.0957 -0.4454  0.0818
34264SOL    HW1 8112   6.172   1.444  11.696 -1.1846 -1.0891  1.5858
34264SOL    HW2 8113   6.053   1.516  11.636  0.0319 -0.2401  0.1193
34265SOL     OW 8114  10.880  11.673   8.262 -0.4301  0.1317 -0.4818
34265SOL    HW1 8115  10.818  11.746   8.266  1.3578  1.6731  1.0709
34265SOL    HW2 8116  10.943  11.699   8.194  0.6127  0.4437  0.5599
34266SOL     OW 8117   3.968   9.814   5.494 -0.0766 -0.0697 -0.4654
34266SOL    HW1 8118   4.004   9.834   5.580 -0.2944  0.8809 -0.5811
34266SOL    HW2 8119   3.937   9.898   5.461 -0.4981 -0.5171 -1.2418
34267SOL     OW 8120   8.082   2.610   4.013 -0.8253 -0.2410  0.1331
34267SOL    HW1 8121   8.107   2.560   3.936 -0.8710 -0.8248  0.4938
34267SOL    HW2 8122   8.049   2.693   3.978 -0.1159 -0.1849 -0.4332
34268SOL     OW 8123  10.800   1.601   2.253 -0.5159 -0.0351 -0.0930
34268SOL    HW1 8124  10.801   1.696   2.264  0.5776  0.0720 -1.0034
34268SOL    HW2 8125  10.753   1.586   2.171 -1.7513 -0.3798  0.6410
34269SOL     OW 8126   7.041   5.133   6.069 -0.4121 -0.0318  0.0542
34269SOL    HW1 8127   7.111   5.189   6.036 -1.4438  0.7788 -0.8776
34269SOL    HW2 8128   6.994   5.187   6.132 -1.7713  0.4413 -1.2785
34270SOL     OW 8129   6.935   9.257   1.533 -0.0067 -0.0417 -0.1919
34270SOL    HW1 8130   6.923   9.274   1.440 -2.5325 -1.1311 -0.1449
34270SOL    HW2 8131   6.846   9.251   1.568  0.8634  0.5012  2.3490
34271SOL     OW 8132   1.645   8.310   5.044 -0.1203 -0.2919  0.3818
34271SOL    HW1 8133   1.716   8.274   5.097 -0.1027  0.5042  0.9176
34271SOL    HW2 8134   1.586   8.237   5.029 -0.5479 -0.3484  2.2103
34272SOL     OW 8135  11.776  10.588   5.899 -0.1447 -0.2613 -0.2884
34272SOL    HW1 8136  11.871  10.584   5.911 -0.0450  0.9749 -0.5392
34272SOL    HW2 8137  11.764  10.648   5.825 -1.1316 -0.1838 -0.0772
34273SOL     OW 8138   1.232   5.136   7.796 -0.1019 -0.2290 -0.1000
34273SOL    HW1 8139   1.187   5.141   7.880  1.0008 -0.3657  0.5109
34273SOL    HW2 8140   1.284   5.216   7.791 -0.3776 -0.0826 -0.7892
34274SOL     OW 8141   4.247  10.368   5.576  0.2690 -0.0954  0.4020
34274SOL    HW1 8142   4.328  10.328   5.546  1.6538  2.9699 -0.3070
34274SOL    HW2 8143   4.231  10.329   5.662  2.4848 -0.7931  0.5492
34275SOL     OW 8144   9.397   2.607   4.591 -0.4897  0.2612  0.0432
34275SOL    HW1 8145   9.350   2.557   4.658  0.3513 -0.4453  0.1302
34275SOL    HW2 8146   9.392   2.552   4.513  0.7788 -0.1809  0.2410
34276SOL     OW 8147   9.794   3.194   1.902  0.6323 -0.3049 -0.0889
34276SOL    HW1 8148   9.823   3.113   1.943  0.0409  1.0038  3.2421
34276SOL    HW2 8149   9.869   3.253   1.910 -0.4316  0.8820  2.0303
34277SOL     OW 8150   3.070   1.475   2.708 -0.3356  0.4887  0.2249
34277SOL    HW1 8151   3.122   1.555   2.722  0.5462  0.6139 -2.9567
34277SOL    HW2 8152   2.984   1.506   2.681 -0.7998  0.2906  1.4021
34278SOL     OW 8153   5.435   9.305  10.884  0.0262  0.3695 -0.0085
34278SOL    HW1 8154   5.408   9.219  10.853 -1.8976  1.3633 -1.2761
34278SOL    HW2 8155   5.367   9.331  10.946 -0.0149  1.4071 -0.4638
34279SOL     OW 8156   3.251   6.224   3.238 -0.2331  0.2342 -0.3404
34279SOL    HW1 8157   3.192   6.150   3.250 -1.7267  1.1498 -1.6851
34279SOL    HW2 8158   3.297   6.205   3.156 -2.8225  2.0859 -2.3886
34280SOL     OW 8159  10.455   2.352   3.852  0.0119 -0.4251  0.4387
34280SOL    HW1 8160  10.465   2.421   3.787 -0.8079 -0.7360 -0.0398
34280SOL    HW2 8161  10.544   2.329   3.878  0.2965  0.6530  0.4464
34281SOL     OW 8162   8.051   0.111   1.087 -0.0766  0.2590  0.0330
34281SOL    HW1 8163   8.069   0.099   1.181 -0.4000 -0.1386  0.0492
34281SOL    HW2 8164   8.099   0.190   1.063 -1.8213  1.7194  1.0689
34282SOL     OW 8165   8.402   9.141   1.679  0.0351 -0.6027  0.1081
34282SOL    HW1 8166   8.409   9.187   1.596 -0.6298  1.0983  0.9403
34282SOL    HW2 8167   8.482   9.088   1.684  0.2994 -0.3925 -1.3947
34283SOL     OW 8168   5.719   2.716  11.468  0.1414 -0.0618 -0.0676
34283SOL    HW1 8169   5.803   2.703  11.423  0.0037 -0.2164 -0.2809
34283SOL    HW2 8170   5.653   2.698  11.401 -0.1890 -4.3244  1.1141
34284SOL     OW 8171  10.456   5.123  11.356 -0.3092  0.3046 -0.3505
34284SOL    HW1 8172  10.524   5.147  11.420 -0.2727 -3.0093  1.0564
34284SOL    HW2 8173  10.501   5.064  11.295 -0.8282  1.9254 -2.4051
34285SOL     OW 8174   0.739   9.842   9.478 -0.3120 -0.1527 -0.0398
34285SOL    HW1 8175   0.798   9.858   9.551 -1.3208  2.0595  0.3666
34285SOL    HW2 8176   0.796   9.848   9.400  0.1948  0.8606  0.3947
34286SOL     OW 8177   9.558   5.770   8.800  0.2364  0.3198  0.1609
34286SOL    HW1 8178   9.621   5.714   8.846 -0.0749 -0.7705 -0.6968
34286SOL    HW2 8179   9.500   5.802   8.870  0.6220 -0.1623  0.7146
34287SOL     OW 8180   4.648  10.014   9.433  0.3930  0.3188 -0.2820
34287SOL    HW1 8181   4.555   9.999   9.444  0.0700  2.2188 -0.0782
34287SOL    HW2 8182   4.660  10.023   9.338  0.1294  1.3400 -0.2282
34288SOL     OW 8183   5.867   2.516   1.999  0.6856 -0.1211  0.3737
34288SOL    HW1 8184   5.912   2.488   2.079 -0.3703 -0.2612  0.9448
34288SOL    HW2 8185   5.896   2.454   1.932  1.1144 -0.3831  0.7959
34289SOL     OW 8186   5.432   8.688   9.928  0.0332 -0.2259 -0.1519
34289SOL    HW1 8187   5.378   8.631   9.982 -1.3348  0.6844 -0.5151
34289SOL    HW2 8188   5.415   8.659   9.838  1.7054 -1.2264 -0.1867
34290SOL     OW 8189   5.871   5.745   9.561  0.3700  0.2264  0.4662
34290SOL    HW1 8190   5.925   5.752   9.640 -0.0916  0.1454  0.7917
34290SOL    HW2 8191   5.863   5.835   9.530  2.7358  0.0336 -0.9954
34291SOL     OW 8192   0.507   4.607   5.099  0.2383 -0.2047 -0.1871
34291SOL    HW1 8193   0.428   4.615   5.153  0.8211  0.4172  0.6020
34291SOL    HW2 8194   0.578   4.632   5.157  0.8701  0.7128 -1.3215
34292SOL     OW 8195   6.723   4.090   4.156  0.0820  0.4778  0.4031
34292SOL    HW1 8196   6.759   4.129   4.236 -2.0031  0.4940  1.4083
34292SOL    HW2 8197   6.733   3.996   4.169  1.2817  0.5173 -0.1147
34293SOL     OW 8198   8.097   3.088   2.714 -0.3210  0.2738 -0.3555
34293SOL    HW1 8199   8.156   3.032   2.664  0.3582  1.4662 -0.9202
34293SOL    HW2 8200   8.011   3.074   2.674  0.2005  1.1687 -1.8704
34294SOL     OW 8201  10.213   5.605   7.275  0.4134 -0.2844  0.1827
34294SOL    HW1 8202  10.146   5.657   7.319  0.7067 -0.8499  1.3441
34294SOL    HW2 8203  10.244   5.661   7.205 -0.0554  0.6697  0.7119
34295SOL     OW 8204  11.350   2.260   4.204  0.2666  0.5165 -0.4363
34295SOL    HW1 8205  11.408   2.208   4.259 -0.6073  1.1105  1.1311
34295SOL    HW2 8206  11.271   2.207   4.195  1.0421 -0.3590 -2.6927
34296SOL     OW 8207   1.514   7.094  10.415  0.4725  0.1068  0.4119
34296SOL    HW1 8208   1.470   7.081  10.499 -0.6914  0.6605 -0.0965
34296SOL    HW2 8209   1.576   7.165  10.431 -0.5824  1.0341  0.5312
34297SOL     OW 8210   1.586   4.679   9.157 -0.3700  0.0955 -0.1463
34297SOL    HW1 8211   1.525   4.655   9.227 -0.6265 -0.3051 -0.5047
34297SOL    HW2 8212   1.641   4.747   9.196 -2.5561  2.2167 -0.5587
34298SOL     OW 8213  11.221  11.764   0.789 -0.9479 -0.5791  0.5314
34298SOL    HW1 8214  11.300  11.773   0.735  0.9536  0.1993  3.1998
34298SOL    HW2 8215  11.178  11.849   0.782 -0.7034 -0.4718  0.2784
34299SOL     OW 8216  10.565   0.342   6.398 -0.2389 -0.4425 -0.4664
34299SOL    HW1 8217  10.658   0.332   6.381 -0.6479 -2.9358 -1.5220
34299SOL    HW2 8218  10.521   0.289   6.332 -2.4827  1.3501 -0.5587
34300SOL     OW 8219   2.607  11.418   0.166 -0.0849  0.4087  0.2509
34300SOL    HW1 8220   2.679  11.373   0.210 -1.4239 -0.7700  1.3495
34300SOL    HW2 8221   2.615  11.392   0.074  0.4841 -0.2673  0.4794
34301SOL     OW 8222   3.771  11.347   3.988  0.0401  0.2320 -0.2516
34301SOL    HW1 8223   3.781  11.255   3.965  0.4209  0.1072  0.4038
34301SOL    HW2 8224   3.845  11.390   3.946  0.3820  0.0998  0.2183
34302SOL     OW 8225   9.976   7.491  10.308  0.3713 -0.2587 -0.1288
34302SOL    HW1 8226   9.939   7.455  10.227  2.6202  0.9726 -1.8496
34302SOL    HW2 8227   9.909   7.552  10.340 -0.6580 -0.9346 -0.9268
34303SOL     OW 8228   0.219   4.586   7.619 -0.0485 -0.2039 -0.9080
34303SOL    HW1 8229   0.184   4.606   7.532 -0.5816  1.1468 -0.4113
34303SOL    HW2 8230   0.231   4.491   7.619 -0.3449 -0.2610 -2.3384
34304SOL     OW 8231   3.327   4.588  10.446 -0.1110  0.3864 -0.2981
34304SOL    HW1 8232   3.296   4.569  10.358 -1.8231  0.4626  0.2559
34304SOL    HW2 8233   3.340   4.501  10.486  1.1057  0.3464 -0.7523
34305SOL     OW 8234   7.443   6.474   2.513  0.7707 -0.0420 -0.0185
34305SOL    HW1 8235   7.518   6.520   2.552 -0.9820  2.1644  0.9813
34305SOL    HW2 8236   7.482   6.420   2.445  3.4875 -0.5030  1.7070
34306SOL     OW 8237   5.363   8.207   7.480 -0.4719  0.0381  0.7924
34306SOL    HW1 8238   5.292   8.215   7.416 -0.8171 -1.2012  0.9990
34306SOL    HW2 8239   5.368   8.114   7.500  2.4175 -0.2398 -0.5918
34307SOL     OW 8240   9.808  11.478   0.650 -0.2285 -0.4532 -0.4366
34307SOL    HW1 8241   9.868  11.508   0.581 -0.6837 -0.2396 -0.7386
34307SOL    HW2 8242   9.721  11.493   0.614 -0.4837 -2.1007 -0.5876
34308SOL     OW 8243   6.814   4.898   9.645 -0.2154 -0.5119  0.3425
34308SOL    HW1 8244   6.735   4.916   9.697 -0.8393  0.4354 -0.8765
34308SOL    HW2 8245   6.879   4.870   9.709 -1.2842 -0.4820  1.4872
34309SOL     OW 8246   3.761  10.225   1.175  0.4982  0.0597  0.2696
34309SOL    HW1 8247   3.759  10.266   1.088  1.2426  0.3925  0.4037
34309SOL    HW2 8248   3.670  10.202   1.192  0.2178  0.7209 -0.2583
34310SOL     OW 8249   3.631   7.664  10.931  0.3065 -0.3280 -0.0088
34310SOL    HW1 8250   3.694   7.679  10.860  0.6863 -0.8931  0.2030
34310SOL    HW2 8251   3.669   7.710  11.006 -0.2553  0.5417 -0.2438
34311SOL     OW 8252   1.186   3.104  10.567 -0.0053 -0.2185 -0.1551
34311SOL    HW1 8253   1.132   3.036  10.606  1.6470 -0.7252  1.4088
34311SOL    HW2 8254   1.136   3.184  10.579 -0.4769 -0.6754  1.1514
34312SOL     OW 8255   6.285   5.594  10.701 -0.3098 -0.4035  0.0506
34312SOL    HW1 8256   6.250   5.514  10.739  1.3840 -1.4537 -0.5215
34312SOL    HW2 8257   6.379   5.579  10.694  0.2360  2.0939  1.0238
34313SOL     OW 8258   7.343   8.033   5.392 -0.4673  0.0609 -0.0564
34313SOL    HW1 8259   7.316   8.022   5.301 -1.5283 -0.4780  0.3082
34313SOL    HW2 8260   7.416   8.095   5.388 -1.4472  1.1945 -1.1187
34314SOL     OW 8261   6.726   5.192  11.341 -0.1518  0.2841  0.6091
34314SOL    HW1 8262   6.736   5.112  11.392  1.9067  1.0723  1.5740
34314SOL    HW2 8263   6.682   5.253  11.401 -0.3887  0.3166  0.4004
34315SOL     OW 8264   3.885   7.494  11.164 -0.1339  0.2404  0.2973
34315SOL    HW1 8265   3.911   7.585  11.147 -1.5611  0.5672 -0.2963
34315SOL    HW2 8266   3.937   7.442  11.103 -0.6704  0.8446 -0.6907
34316SOL     OW 8267   3.659   8.089  10.563  0.3008 -0.3809 -0.8096
34316SOL    HW1 8268   3.631   8.046  10.482  1.4057  2.0686 -2.6077
34316SOL    HW2 8269   3.751   8.065  10.572 -0.0428 -1.3934  0.3010
34317SOL     OW 8270   9.195   9.450   8.324  0.8624 -0.1948  0.0311
34317SOL    HW1 8271   9.119   9.432   8.379 -0.1638  0.9746 -0.9586
34317SOL    HW2 8272   9.233   9.529   8.361  1.6884 -0.8289  0.5808
34318SOL     OW 8273   7.985  11.760  10.167 -0.4360  0.0863 -0.1478
34318SOL    HW1 8274   7.956  11.797  10.084 -0.3191  3.3378  1.1171
34318SOL    HW2 8275   7.904  11.735  10.212 -0.5699 -0.4791 -0.6827
34319SOL     OW 8276   9.418   2.465   0.789 -0.4127  0.5626 -0.2849
34319SOL    HW1 8277   9.497   2.502   0.749  0.6677 -2.3530 -1.1328
34319SOL    HW2 8278   9.439   2.459   0.882  0.3720 -0.1061 -0.4913
34320SOL     OW 8279  10.543   4.456   4.076 -0.0127 -0.1759 -0.1124
34320SOL    HW1 8280  10.453   4.448   4.107  0.3857 -0.5660  0.9533
34320SOL    HW2 8281  10.554   4.550   4.059 -0.9297 -0.2487 -1.2562
34321SOL     OW 8282   5.723   6.873   8.974  0.4659 -0.5966 -0.1844
34321SOL    HW1 8283   5.818   6.872   8.986  0.5816 -0.5644 -1.0865
34321SOL    HW2 8284   5.700   6.782   8.955  0.3834 -0.5133 -0.4830
34322SOL     OW 8285   5.103   3.392   9.723  0.4006  0.3503 -0.2228
34322SOL    HW1 8286   5.120   3.486   9.721 -0.7346  0.5558 -0.6184
34322SOL    HW2 8287   5.105   3.365   9.632 -1.6628  0.4642 -0.3588
34323SOL     OW 8288   9.431   3.712   4.864  0.0528  0.8829 -0.4434
34323SOL    HW1 8289   9.470   3.799   4.869 -1.0912  1.4137 -0.4591
34323SOL    HW2 8290   9.373   3.715   4.788  0.1784  0.0254 -0.5879
34324SOL     OW 8291   7.170   2.478   6.989  0.7387 -0.0676 -0.0939
34324SOL    HW1 8292   7.089   2.438   6.958  1.6192 -1.1730 -1.0448
34324SOL    HW2 8293   7.184   2.440   7.076  0.7756 -0.6581 -0.3592
34325SOL     OW 8294   7.747   1.968   5.997  0.1655 -0.2438 -0.2239
34325SOL    HW1 8295   7.815   2.032   5.978  0.4521 -0.4418  0.1347
34325SOL    HW2 8296   7.676   1.990   5.936 -0.2476  1.1948  0.7101
34326SOL     OW 8297   2.349   2.618   4.828 -0.1012 -0.2494 -0.0351
34326SOL    HW1 8298   2.298   2.696   4.847 -1.3920 -0.7522 -1.2094
34326SOL    HW2 8299   2.287   2.559   4.785  1.6525 -0.5362 -2.4100
34327SOL     OW 8300   0.635   5.395   1.089  0.0181  0.0887  0.0642
34327SOL    HW1 8301   0.621   5.385   1.184 -0.9968 -0.0453 -0.0849
34327SOL    HW2 8302   0.703   5.462   1.082  0.7151 -0.4989  0.9024
34328SOL     OW 8303   3.843   8.023   1.778 -0.3684 -0.3064 -0.4487
34328SOL    HW1 8304   3.803   7.938   1.762 -3.1265  1.0371 -1.2206
34328SOL    HW2 8305   3.824   8.074   1.699  2.2595  0.7409 -0.5281
34329SOL     OW 8306   9.267   9.874   1.665  0.6707 -0.1190 -0.9954
34329SOL    HW1 8307   9.223   9.882   1.749  1.4196  0.3190 -0.6320
34329SOL    HW2 8308   9.248   9.784   1.636 -0.9732  0.2576 -1.1734
34330SOL     OW 8309  11.419   7.713   1.713  0.3485 -0.2753  0.1858
34330SOL    HW1 8310  11.330   7.680   1.697 -0.1628  0.8815  0.5185
34330SOL    HW2 8311  11.475   7.660   1.657 -0.5093 -1.2682  0.2367
34331SOL     OW 8312   0.005   7.705   9.235  0.0506  0.2720  0.2739
34331SOL    HW1 8313  -0.082   7.681   9.201  0.2817  0.1940 -0.2777
34331SOL    HW2 8314  -0.012   7.780   9.292 -0.7224 -1.3304  2.2708
34332SOL     OW 8315   7.608   4.984   5.291  0.2837 -0.0839  0.4453
34332SOL    HW1 8316   7.573   4.897   5.311 -0.7151  0.3796  0.7964
34332SOL    HW2 8317   7.605   4.990   5.195 -1.1313  0.1375  0.4851
34333SOL     OW 8318   0.985   6.490   4.073  0.2704 -0.5352  1.0893
34333SOL    HW1 8319   1.011   6.578   4.044 -0.6557 -0.3324  0.8352
34333SOL    HW2 8320   1.063   6.455   4.116  1.7244 -0.8674 -1.6329
34334SOL     OW 8321   6.968   4.286  10.062  0.0457 -0.4440 -0.3043
34334SOL    HW1 8322   6.977   4.201  10.105  0.1807 -0.3847 -0.2157
34334SOL    HW2 8323   6.875   4.307  10.070 -0.1769 -1.0364 -1.1846
34335SOL     OW 8324   6.375   6.497   7.848  0.0885 -0.3098  0.5331
34335SOL    HW1 8325   6.383   6.437   7.773  1.5459  0.4214  0.0717
34335SOL    HW2 8326   6.328   6.446   7.914 -0.9492 -1.0855 -0.7458
34336SOL     OW 8327   4.509   6.753   4.812 -0.0087  0.1166  0.5687
34336SOL    HW1 8328   4.528   6.846   4.830  0.9209  0.3500 -1.3856
34336SOL    HW2 8329   4.595   6.711   4.810 -0.2981 -0.4532 -0.2028
34337SOL     OW 8330   6.452   7.018   5.180 -0.5326  0.3115 -0.6269
34337SOL    HW1 8331   6.464   6.932   5.140  0.6235  1.2411 -2.4071
34337SOL    HW2 8332   6.469   7.004   5.273  0.3990 -1.2320 -1.0020
34338SOL     OW 8333   3.527   7.651   4.128  0.1578  0.6689 -0.1318
34338SOL    HW1 8334   3.493   7.740   4.126 -0.1296  0.5891  0.6558
34338SOL    HW2 8335   3.619   7.661   4.153 -0.3593  0.6561  1.9686
34339SOL     OW 8336   0.144   9.957   5.531 -0.1011 -0.1652  0.4727
34339SOL    HW1 8337   0.126  10.016   5.458  0.2052  2.1517  2.1872
34339SOL    HW2 8338   0.076   9.889   5.524  0.1876 -0.2800 -2.1772
34340SOL     OW 8339   9.356   0.307   3.934  0.0697  0.2027  0.6524
34340SOL    HW1 8340   9.439   0.281   3.894 -0.5362 -0.9414  0.0897
34340SOL    HW2 8341   9.333   0.234   3.992 -2.0400 -1.0079 -1.5148
34341SOL     OW 8342   6.542  10.329   0.972 -0.1612 -0.0466  0.0347
34341SOL    HW1 8343   6.522  10.420   0.993 -0.4674  0.2047 -1.2763
34341SOL    HW2 8344   6.461  10.282   0.992 -0.2441  0.0874  0.0124
34342SOL     OW 8345   0.858   9.355   3.991 -0.1470  0.4509 -0.1649
34342SOL    HW1 8346   0.798   9.412   4.039  0.5405  0.0519  1.2290
34342SOL    HW2 8347   0.862   9.393   3.903 -1.3060  1.3211  0.1398
34343SOL     OW 8348   7.896   9.568   3.964  0.0874  0.1294 -1.0227
34343SOL    HW1 8349   7.877   9.483   3.925 -0.2505  0.5103 -1.7139
34343SOL    HW2 8350   7.842   9.571   4.043  0.9815 -0.7612 -0.3484
34344SOL     OW 8351   9.737   3.804   7.288 -0.3671 -0.0097  0.6995
34344SOL    HW1 8352   9.692   3.826   7.207 -0.6986  1.1542  1.1677
34344SOL    HW2 8353   9.713   3.713   7.306 -1.3683  0.1398  0.1841
34345SOL     OW 8354   3.010   7.400   8.644  0.1497 -0.4889 -0.1350
34345SOL    HW1 8355   3.035   7.451   8.722 -2.5710 -1.1722  1.3085
34345SOL    HW2 8356   2.951   7.457   8.596  2.5850  0.3305 -2.4091
34346SOL     OW 8357   7.383   5.830   6.417 -0.2818  0.2665 -0.7512
34346SOL    HW1 8358   7.463   5.784   6.391 -0.0720  0.4985 -0.5225
34346SOL    HW2 8359   7.335   5.843   6.335 -2.1943 -3.7030 -0.5225
34347SOL     OW 8360   0.545   0.352   4.573  0.0959  0.8108  0.7585
34347SOL    HW1 8361   0.453   0.336   4.553  0.0232  1.8285  0.2089
34347SOL    HW2 8362   0.589   0.347   4.488  0.2875  1.8820  0.7742
34348SOL     OW 8363   6.067   3.643  11.231  0.3145  0.6062 -0.5718
34348SOL    HW1 8364   6.135   3.640  11.299 -0.7187  0.5442  0.4879
34348SOL    HW2 8365   6.109   3.603  11.154  0.9008 -1.1374  0.5976
34349SOL     OW 8366   3.258   2.422   5.081 -0.2634 -0.0643 -0.0800
34349SOL    HW1 8367   3.264   2.430   5.176 -1.6307  0.3220 -0.0126
34349SOL    HW2 8368   3.249   2.328   5.066  1.4546 -0.2765  0.0563
34350SOL     OW 8369   0.303   1.402   9.278 -0.0622  0.0783  0.4183
34350SOL    HW1 8370   0.272   1.311   9.284  0.0298 -0.0227 -0.4733
34350SOL    HW2 8371   0.255   1.439   9.204 -0.7132  1.0182  1.2876
34351SOL     OW 8372   3.603   4.837   0.429 -0.5535  0.0812 -0.0437
34351SOL    HW1 8373   3.610   4.778   0.354  0.5641  1.3928 -1.0009
34351SOL    HW2 8374   3.630   4.922   0.396 -1.9950  1.1407  1.3552
34352SOL     OW 8375   9.309   1.324   9.225  0.4997 -0.0400  0.8540
34352SOL    HW1 8376   9.219   1.332   9.257  0.1144 -0.0635 -0.1899
34352SOL    HW2 8377   9.358   1.292   9.301 -0.4635 -0.5209  1.2997
34353SOL     OW 8378   1.507   7.720   9.405  0.2681  0.2510 -0.3598
34353SOL    HW1 8379   1.508   7.656   9.477  2.3791  0.4127 -0.1794
34353SOL    HW2 8380   1.426   7.701   9.358 -0.7405 -0.4478  1.5289
34354SOL     OW 8381   3.026   0.950   5.365 -0.0904  0.1297  0.3721
34354SOL    HW1 8382   3.031   1.037   5.325  0.9023 -1.2526 -2.8040
34354SOL    HW2 8383   3.099   0.948   5.427 -0.7298  1.8419  1.2432
34355SOL     OW 8384   6.442   2.043   6.767  0.1983  0.2322 -0.3001
34355SOL    HW1 8385   6.383   2.118   6.761  0.7381  0.6357 -0.7178
34355SOL    HW2 8386   6.386   1.966   6.753 -0.1594  0.6336 -1.0964
34356SOL     OW 8387  10.481  11.266   3.086  0.5319  0.4571 -0.1785
34356SOL    HW1 8388  10.460  11.175   3.067  3.1379 -0.2368 -0.1468
34356SOL    HW2 8389  10.523  11.299   3.006 -1.3636  2.0275 -0.5974
34357SOL     OW 8390   0.140   7.710   0.232 -0.1018  0.2004 -0.4064
34357SOL    HW1 8391   0.079   7.681   0.300 -1.4958 -0.3882 -1.8295
34357SOL    HW2 8392   0.181   7.788   0.268 -0.8747 -0.0231  1.0537
34358SOL     OW 8393   3.521   7.473   3.508  0.0941  0.4335 -0.0232
34358SOL    HW1 8394   3.590   7.529   3.545 -2.4576  1.5441  3.6332
34358SOL    HW2 8395   3.453   7.534   3.480 -2.0795 -0.5669  2.5860
34359SOL     OW 8396   4.194  11.653   7.656  0.0837 -0.0744  0.1867
34359SOL    HW1 8397   4.277  11.634   7.700 -0.0217 -2.2330 -0.4275
34359SOL    HW2 8398   4.148  11.712   7.716  2.1075  1.3709  0.4295
34360SOL     OW 8399   7.993   9.938   9.700 -0.0016  0.3862 -0.4461
34360SOL    HW1 8400   7.963  10.022   9.736 -1.0245 -0.3126  0.3749
34360SOL    HW2 8401   7.998   9.880   9.776  1.1654 -0.1781 -0.9337
34361SOL     OW 8402  11.596   6.674   3.350  0.0939  0.2086 -0.0645
34361SOL    HW1 8403  11.524   6.619   3.380  1.8249 -1.5559  1.0474
34361SOL    HW2 8404  11.675   6.621   3.362  1.4372  1.1173 -3.4726
34362SOL     OW 8405   5.664   3.731   9.552  0.5450 -0.3940 -0.2728
34362SOL    HW1 8406   5.649   3.806   9.495 -2.1816 -1.2625 -0.8704
34362SOL    HW2 8407   5.629   3.758   9.637  1.9419 -0.1205  0.2358
34363SOL     OW 8408   2.772  10.792   5.329  0.0774  0.0634  0.1088
34363SOL    HW1 8409   2.866  10.780   5.313  0.2110 -0.0744  0.9405
34363SOL    HW2 8410   2.736  10.703   5.330 -0.2878  0.1673 -1.4063
34364SOL     OW 8411  11.724   3.153   4.306 -0.1899 -1.1087 -0.2708
34364SOL    HW1 8412  11.675   3.145   4.388 -1.7041  0.3057 -0.9843
34364SOL    HW2 8413  11.732   3.063   4.274 -1.2579 -1.4965  0.4987
34365SOL     OW 8414  10.337   6.333  10.935 -0.2187 -0.0016  0.4391
34365SOL    HW1 8415  10.400   6.368  10.873 -0.8153  1.7731  0.7694
34365SOL    HW2 8416  10.318   6.245  10.903 -0.4076  0.7888 -1.8189
34366SOL     OW 8417   0.109  10.870   7.046 -0.2189  0.4387  0.1690
34366SOL    HW1 8418   0.161  10.821   6.982  0.4651  1.0848  0.2068
34366SOL    HW2 8419   0.094  10.808   7.117  0.7248  0.3004  0.2696
34367SOL     OW 8420   3.185   2.934   8.239 -0.6458 -0.1870 -0.9373
34367SOL    HW1 8421   3.144   2.880   8.172 -0.8521  1.2832 -2.0615
34367SOL    HW2 8422   3.277   2.940   8.213 -0.1927 -1.5657  0.2731
34368SOL     OW 8423   8.038   6.340   5.448 -0.5342 -0.8216 -0.4657
34368SOL    HW1 8424   8.126   6.301   5.444 -0.6253 -0.9613 -1.4397
34368SOL    HW2 8425   7.990   6.285   5.510 -0.1308 -1.1625 -0.4474
34369SOL     OW 8426   2.796   2.804   6.882  0.0773 -0.0006  0.0258
34369SOL    HW1 8427   2.824   2.892   6.906  0.1103  0.0145 -0.0686
34369SOL    HW2 8428   2.712   2.816   6.838 -0.7354 -0.1555  1.4843
34370SOL     OW 8429   0.886   3.573   8.646  0.5121  0.3379 -0.0994
34370SOL    HW1 8430   0.800   3.540   8.673 -0.2554  1.9824 -0.4509
34370SOL    HW2 8431   0.949   3.520   8.696 -0.7542  0.7161  2.0047
34371SOL     OW 8432   9.097   9.156  10.115 -0.2316  0.2785  0.5454
34371SOL    HW1 8433   9.140   9.240  10.099  2.4540 -0.4836  3.0023
34371SOL    HW2 8434   9.014   9.179  10.156 -0.3757  1.7314 -0.4740
34372SOL     OW 8435   6.575   7.776   0.707 -0.1380 -0.1429 -0.3815
34372SOL    HW1 8436   6.615   7.852   0.749  0.2552 -0.2735 -0.5144
34372SOL    HW2 8437   6.649   7.726   0.673 -0.4371 -0.0644 -1.1857
34373SOL     OW 8438   1.079   7.222  11.785  0.3377  0.1556  0.2621
34373SOL    HW1 8439   1.033   7.139  11.791  0.0684  0.2796 -0.0709
34373SOL    HW2 8440   1.157   7.210  11.839 -0.6742  0.3583  1.8305
34374SOL     OW 8441   0.259  10.516   5.897 -0.0139 -0.0073  0.2221
34374SOL    HW1 8442   0.213  10.451   5.844  0.0239 -1.1905  1.5648
34374SOL    HW2 8443   0.291  10.581   5.834 -0.0917 -1.2703 -1.1650
34375SOL     OW 8444  11.075   3.433   1.685 -0.6333  0.0520 -0.5686
34375SOL    HW1 8445  11.128   3.503   1.725 -1.2206  0.3661 -0.3256
34375SOL    HW2 8446  11.012   3.410   1.753 -0.2354 -0.9567 -0.5278
34376SOL     OW 8447   7.687   7.539   2.153  0.1370 -0.2232 -0.0478
34376SOL    HW1 8448   7.753   7.501   2.210 -0.2194  0.3935  0.7947
34376SOL    HW2 8449   7.632   7.465   2.126  0.4248 -0.5442  0.2457
34377SOL     OW 8450   3.890   5.457   3.202 -0.4487  0.2191 -0.1665
34377SOL    HW1 8451   3.977   5.486   3.174 -0.1109  0.4737  1.0706
34377SOL    HW2 8452   3.830   5.519   3.161 -0.0191  0.2702 -0.7258
34378SOL     OW 8453   5.264   1.133   9.284  0.0984 -0.4580  0.7619
34378SOL    HW1 8454   5.257   1.108   9.376 -0.3104 -1.3370  0.5045
34378SOL    HW2 8455   5.208   1.070   9.238  0.5955 -0.2655 -0.1289
34379SOL     OW 8456  11.332  10.466   0.177 -0.5095  0.3002  0.1440
34379SOL    HW1 8457  11.280  10.512   0.111 -0.5969  1.0443  0.7130
34379SOL    HW2 8458  11.271  10.450   0.248 -0.6196 -1.2169 -0.2650
34380SOL     OW 8459   0.996   6.400  11.667 -0.6770  0.4634  0.2124
34380SOL    HW1 8460   0.988   6.461  11.740  0.0429 -0.8983  1.4777
34380SOL    HW2 8461   1.087   6.371  11.669 -0.7856 -0.0085 -0.8948
34381SOL     OW 8462   9.893   7.025   3.193  0.1436 -0.3952  0.3485
34381SOL    HW1 8463   9.811   7.046   3.149  0.2911 -2.4888 -1.0898
34381SOL    HW2 8464   9.920   6.942   3.154  4.1388  1.3045 -0.9421
34382SOL     OW 8465   1.306   5.736   4.220  0.4846 -0.1918 -0.8003
34382SOL    HW1 8466   1.335   5.804   4.281  0.1778 -0.5429 -0.2521
34382SOL    HW2 8467   1.220   5.765   4.192 -0.0872 -0.8460  0.2210
34383SOL     OW 8468   4.638   2.620   1.540 -0.2406  0.5497  0.0479
34383SOL    HW1 8469   4.606   2.687   1.601  2.0131  0.5487  1.3856
34383SOL    HW2 8470   4.580   2.546   1.554  0.9620  0.0500  3.3633
34384SOL     OW 8471   8.420   4.097   6.564  0.2130  0.2898  0.1264
34384SOL    HW1 8472   8.332   4.113   6.598 -0.2317  0.1403 -0.9271
34384SOL    HW2 8473   8.407   4.044   6.486  1.1028  1.6246 -0.9955
34385SOL     OW 8474   5.565   2.344   5.680  0.1459 -0.2009  0.2693
34385SOL    HW1 8475   5.603   2.260   5.654  0.8953  0.3625 -0.5238
34385SOL    HW2 8476   5.639   2.404   5.682 -0.2157  0.2300  1.8576
34386SOL     OW 8477   9.182   7.678   1.298 -0.0601  0.1013  0.0637
34386SOL    HW1 8478   9.101   7.697   1.347 -0.8274 -0.4180 -0.9615
34386SOL    HW2 8479   9.249   7.669   1.366 -1.4388 -2.5122  1.2418
34387SOL     OW 8480   4.528   6.405   6.871  0.3319 -0.0123 -0.5632
34387SOL    HW1 8481   4.458   6.390   6.808  0.1082  0.6292 -0.4679
34387SOL    HW2 8482   4.608   6.413   6.818  0.0827  0.9595 -0.8032
34388SOL     OW 8483   6.070  10.035  11.041 -0.1306  0.1838  0.3319
34388SOL    HW1 8484   6.144   9.980  11.067 -0.0227  0.5296  0.7703
34388SOL    HW2 8485   5.993   9.988  11.070  0.0148  1.0032  2.1928
34389SOL     OW 8486   2.481  10.918  11.486  0.5413  0.1512 -0.1977
34389SOL    HW1 8487   2.538  10.864  11.541 -1.5131  0.1764  2.1564
34389SOL    HW2 8488   2.393  10.881  11.500 -0.2610  1.0891 -2.3997
34390SOL     OW 8489   4.799   4.420   1.437  0.0204  0.1195 -0.9197
34390SOL    HW1 8490   4.880   4.464   1.411 -0.5501  1.7741 -0.0464
34390SOL    HW2 8491   4.805   4.412   1.532 -0.5606 -0.3647 -0.9110
34391SOL     OW 8492  10.898   0.356   2.151 -0.1301 -0.3621  0.0439
34391SOL    HW1 8493  10.923   0.264   2.143  1.0456 -0.0348 -0.2423
34391SOL    HW2 8494  10.874   0.367   2.243  2.5032 -0.3335  0.8274
34392SOL     OW 8495   9.121   4.444   4.260  0.1511 -0.1302 -0.8322
34392SOL    HW1 8496   9.173   4.408   4.331  1.1938 -0.1047 -1.5623
34392SOL    HW2 8497   9.084   4.367   4.215 -0.5259 -0.1443 -0.2627
34393SOL     OW 8498   0.657   8.119   7.454 -0.3894 -0.7099  0.7736
34393SOL    HW1 8499   0.582   8.061   7.438  0.1892 -1.0151 -1.0981
34393SOL    HW2 8500   0.732   8.069   7.421  0.5582 -0.1251  1.9798
34394SOL     OW 8501  10.985   3.813   2.145 -0.7022 -0.8547  0.8178
34394SOL    HW1 8502  10.963   3.766   2.225 -1.8239 -1.5427  0.1398
34394SOL    HW2 8503  10.941   3.763   2.075  1.8320 -1.4087 -0.4769
34395SOL     OW 8504   2.588  10.427   1.209 -0.0680  0.1107  0.4409
34395SOL    HW1 8505   2.542  10.356   1.163 -0.8933  0.2466  1.0317
34395SOL    HW2 8506   2.624  10.481   1.139 -2.3445  1.0155 -0.1383
34396SOL     OW 8507   3.729   9.906   0.182 -0.2159 -0.3832 -0.4597
34396SOL    HW1 8508   3.779   9.873   0.107  0.5251 -1.8261  0.6261
34396SOL    HW2 8509   3.796   9.937   0.243 -0.8345  1.5379 -0.6788
34397SOL     OW 8510   5.821   8.748   0.080 -0.1230  0.3209 -0.0389
34397SOL    HW1 8511   5.819   8.754   0.175 -1.0785 -0.3702  0.0064
34397SOL    HW2 8512   5.826   8.839   0.050  0.8262  0.5084  0.6671
34398SOL     OW 8513   1.635   6.994   6.118  0.3484  0.2511  0.4300
34398SOL    HW1 8514   1.695   6.996   6.192  3.2620  1.1800 -1.7391
34398SOL    HW2 8515   1.673   7.056   6.055 -2.9923  0.9509 -1.1327
34399SOL     OW 8516  10.540   8.047  11.331  0.2428 -0.0126 -0.0126
34399SOL    HW1 8517  10.577   8.012  11.250  1.6128 -0.3431  0.7251
34399SOL    HW2 8518  10.571   8.138  11.334  0.0654  0.0453  0.0689
34400SOL     OW 8519   8.723   4.132  10.561  0.0851  0.2500 -0.5490
34400SOL    HW1 8520   8.799   4.180  10.594 -0.9851  1.1651  0.6668
34400SOL    HW2 8521   8.647   4.180  10.595 -1.0376 -1.2297 -0.8614
34401SOL     OW 8522   9.883   3.413   2.378  0.2932 -0.4700  0.0431
34401SOL    HW1 8523   9.882   3.444   2.287  1.2431  0.0065  0.1827
34401SOL    HW2 8524   9.909   3.490   2.429  0.5876 -0.9574  0.6300
34402SOL     OW 8525  11.219   8.001   4.544 -0.4954 -0.2603 -0.3916
34402SOL    HW1 8526  11.169   8.069   4.498 -0.9521  0.1779  0.7290
34402SOL    HW2 8527  11.175   7.919   4.521  1.0327 -0.4517 -3.1013
34403SOL     OW 8528   6.147   0.207   1.198 -0.0823  0.0291 -0.2762
34403SOL    HW1 8529   6.076   0.152   1.165 -0.4442  0.4720 -0.2332
34403SOL    HW2 8530   6.223   0.148   1.201 -0.6515 -0.6973  0.5579
34404SOL     OW 8531   1.312   9.843   4.548  0.5184  0.0426  0.4246
34404SOL    HW1 8532   1.269   9.818   4.630 -1.2741 -0.6838 -0.6938
34404SOL    HW2 8533   1.360   9.923   4.570  1.4185 -1.0050  2.5677
34405SOL     OW 8534   5.353   6.175   2.176  0.3830  0.0674 -0.1655
34405SOL    HW1 8535   5.267   6.217   2.171  0.6999  0.6514 -0.8509
34405SOL    HW2 8536   5.346   6.098   2.120 -0.2311 -0.8838  1.1729
34406SOL     OW 8537   0.388   6.280  10.845  0.3462 -0.1078  0.3345
34406SOL    HW1 8538   0.341   6.230  10.779  0.5380 -2.0408  1.5733
34406SOL    HW2 8539   0.478   6.285  10.813  0.0055  0.8426 -0.5298
34407SOL     OW 8540   4.115   3.711   6.838 -0.2010  0.4742 -0.0375
34407SOL    HW1 8541   4.142   3.688   6.927  0.5172 -0.1765 -0.4102
34407SOL    HW2 8542   4.065   3.792   6.848 -1.4236 -0.3744  1.1369
34408SOL     OW 8543   1.945   5.047  11.213 -0.4321  0.1936 -0.2088
34408SOL    HW1 8544   1.895   5.064  11.134  0.3997 -0.7332 -0.9581
34408SOL    HW2 8545   2.008   5.119  11.217  1.0012 -0.8857 -1.6572
34409SOL     OW 8546   1.976   7.991  11.691 -0.0055 -0.1031  0.1728
34409SOL    HW1 8547   2.055   7.965  11.643 -0.0681  0.2469 -0.1240
34409SOL    HW2 8548   1.904   7.961  11.637 -0.1218 -2.0702  1.3108
34410SOL     OW 8549   5.073  11.112   4.803 -0.3247  0.2104  0.0637
34410SOL    HW1 8550   5.013  11.176   4.765 -0.5706  0.9296  1.5741
34410SOL    HW2 8551   5.025  11.029   4.802 -1.4817  0.8194  1.4574
34411SOL     OW 8552  10.954   6.668  11.527  0.3904 -0.1476  0.1656
34411SOL    HW1 8553  10.887   6.734  11.544 -0.2913 -0.9894  0.8423
34411SOL    HW2 8554  11.037   6.713  11.542 -0.0989  0.0910  2.4191
34412SOL     OW 8555   1.969   9.053   2.793 -0.5467 -0.7300 -0.0094
34412SOL    HW1 8556   2.046   9.053   2.850 -1.2102 -1.0538  0.9116
34412SOL    HW2 8557   1.998   9.006   2.715  0.4534 -0.0633 -0.0697
34413SOL     OW 8558   5.949   8.586   7.426 -0.3626  0.3255 -0.0138
34413SOL    HW1 8559   6.043   8.573   7.418 -0.4620 -3.4319  2.2621
34413SOL    HW2 8560   5.913   8.554   7.343  0.3018  1.4813 -0.7663
34414SOL     OW 8561   8.856   1.308   9.488  0.2275 -0.3675  0.2382
34414SOL    HW1 8562   8.820   1.247   9.424  1.8195  0.1383 -1.2357
34414SOL    HW2 8563   8.785   1.370   9.504 -1.1276 -2.0468  1.1111
34415SOL     OW 8564   2.420   7.154  10.082 -0.8193 -0.2868 -0.4720
34415SOL    HW1 8565   2.331   7.120  10.071 -1.4656  0.0390  2.8847
34415SOL    HW2 8566   2.460   7.098  10.148  0.5706  1.1484 -0.0319
34416SOL     OW 8567   3.575   7.481   8.526 -0.2314 -0.1563 -0.4282
34416SOL    HW1 8568   3.581   7.466   8.431  1.0135  0.8714 -0.5354
34416SOL    HW2 8569   3.651   7.438   8.563 -0.3568  0.0105  0.0333
34417SOL     OW 8570   4.968   5.288   6.737  0.1245  0.2306 -0.1067
34417SOL    HW1 8571   4.982   5.355   6.804 -0.7729 -0.4478  0.7731
34417SOL    HW2 8572   5.048   5.235   6.740  0.0422  0.1386  0.4948
34418SOL     OW 8573   6.790   9.129   1.247  0.1013  0.2936 -0.2190
34418SOL    HW1 8574   6.869   9.183   1.243  0.1942  0.8382  4.0270
34418SOL    HW2 8575   6.822   9.043   1.276 -0.7005  0.2115  0.4616
34419SOL     OW 8576   9.933   6.028   4.131  0.6412 -0.3823  0.3046
34419SOL    HW1 8577   9.876   5.963   4.089  0.1709  0.4826 -0.4287
34419SOL    HW2 8578   9.876   6.073   4.192  1.5164 -2.2000  2.5986
34420SOL     OW 8579   7.801   0.878   3.289 -0.4403  0.4418 -0.0325
34420SOL    HW1 8580   7.775   0.961   3.248 -1.9240 -0.1177 -0.2749
34420SOL    HW2 8581   7.787   0.812   3.221  0.7960 -0.0263  0.1349
34421SOL     OW 8582   1.726   8.677   4.315 -0.4441 -0.7079  0.0307
34421SOL    HW1 8583   1.677   8.596   4.323  1.0931 -1.8750 -1.6649
34421SOL    HW2 8584   1.816   8.650   4.297 -0.0673  1.3544 -1.6325
34422SOL     OW 8585   8.916   9.237  11.794  0.5704 -0.4441  0.3812
34422SOL    HW1 8586   8.937   9.184  11.717  1.2666 -0.1756  0.3810
34422SOL    HW2 8587   8.963   9.194  11.865 -0.2155 -0.7969  0.7029
34423SOL     OW 8588   8.322  10.337   2.217 -0.2435  0.5692 -0.5398
34423SOL    HW1 8589   8.382  10.275   2.258 -0.1665 -0.6494 -2.3999
34423SOL    HW2 8590   8.298  10.397   2.288 -0.0143 -1.3348  1.2493
34424SOL     OW 8591   9.716   6.935   6.440  0.2709  0.2547  0.2497
34424SOL    HW1 8592   9.808   6.960   6.447  0.1769  0.5975  0.2725
34424SOL    HW2 8593   9.688   6.921   6.530  0.2600  0.3038  0.2542
34425SOL     OW 8594   4.783   8.856   7.494  0.2588  0.2598 -0.4947
34425SOL    HW1 8595   4.697   8.855   7.537 -0.9075 -1.7132 -2.6143
34425SOL    HW2 8596   4.812   8.765   7.499  0.8779  0.3270 -2.2879
34426SOL     OW 8597   9.032   5.686   4.949 -0.7595 -0.4171  0.2363
34426SOL    HW1 8598   8.939   5.707   4.946 -0.7171 -0.2750 -0.4847
34426SOL    HW2 8599   9.068   5.745   5.015 -1.1607 -0.3709  0.4125
34427SOL     OW 8600   9.794   3.667   4.635 -0.0240 -0.3391 -0.2749
34427SOL    HW1 8601   9.718   3.714   4.601  0.4039  0.9482  0.4933
34427SOL    HW2 8602   9.757   3.587   4.674 -0.9295  0.0512 -0.3191
34428SOL     OW 8603   9.597   6.809   4.710 -0.1331 -0.3846 -0.2511
34428SOL    HW1 8604   9.613   6.887   4.657 -1.4199  0.8162  1.0266
34428SOL    HW2 8605   9.535   6.838   4.777  0.2057 -2.2353  0.9433
34429SOL     OW 8606   7.243  11.336   0.747 -0.1886 -0.0663 -0.3431
34429SOL    HW1 8607   7.331  11.326   0.712 -0.3656  1.5985 -1.3890
34429SOL    HW2 8608   7.198  11.255   0.724  0.5584 -0.1873 -1.4352
34430SOL     OW 8609   7.254  11.351   6.792 -0.1648  0.1746 -0.1821
34430SOL    HW1 8610   7.204  11.429   6.819  1.2485  1.4089 -0.9736
34430SOL    HW2 8611   7.335  11.355   6.843  0.6970  0.2302 -1.4955
34431SOL     OW 8612   2.243   0.472   9.500 -0.6961 -0.0637  0.5320
34431SOL    HW1 8613   2.274   0.385   9.527  0.9470 -0.1481 -1.3976
34431SOL    HW2 8614   2.270   0.530   9.571 -1.1970 -0.9973  1.5263
34432SOL     OW 8615  11.360   3.700   5.938 -0.0526  0.1282 -0.4553
34432SOL    HW1 8616  11.353   3.605   5.935  2.8593 -0.1703 -1.0496
34432SOL    HW2 8617  11.418   3.717   6.012 -0.3889  1.4524 -0.4737
34433SOL     OW 8618  10.390   4.095  11.329 -0.0151  0.3373 -0.0391
34433SOL    HW1 8619  10.451   4.026  11.300 -0.1576  0.5522 -0.8714
34433SOL    HW2 8620  10.308   4.075  11.284 -1.1568 -0.9692  2.3973
34434SOL     OW 8621  10.426   4.900   4.725  0.0547 -0.1413  0.7041
34434SOL    HW1 8622  10.337   4.932   4.734 -0.3456 -0.8336 -0.6011
34434SOL    HW2 8623  10.419   4.805   4.735  0.7484 -0.1543  1.2114
34435SOL     OW 8624   5.478   6.991   0.948  0.2460 -0.4378  0.6580
34435SOL    HW1 8625   5.497   7.002   0.854 -2.1052  0.0588  0.1843
34435SOL    HW2 8626   5.550   7.036   0.992  0.3225  1.1686 -0.9719
34436SOL     OW 8627   3.608  11.310   0.851  0.6363  0.0662  0.2029
34436SOL    HW1 8628   3.534  11.277   0.800  2.1778 -2.5861 -0.5405
34436SOL    HW2 8629   3.600  11.267   0.935  0.4195  1.1327  0.7425
34437SOL     OW 8630  10.629   0.453   0.677  0.1116 -0.1044  0.2524
34437SOL    HW1 8631  10.575   0.516   0.724 -1.2489 -1.1948  0.2273
34437SOL    HW2 8632  10.590   0.447   0.590 -0.5604 -1.8262  0.6237
34438SOL     OW 8633  11.167   8.841  11.678 -0.4873  0.0792 -0.2444
34438SOL    HW1 8634  11.250   8.882  11.649  0.2565 -1.9845 -1.2043
34438SOL    HW2 8635  11.127   8.809  11.597 -1.8727  0.3361  0.3096
34439SOL     OW 8636   6.697   0.213   2.921 -0.2060  0.0060  0.3632
34439SOL    HW1 8637   6.630   0.166   2.971 -1.0238 -0.1412 -0.8216
34439SOL    HW2 8638   6.650   0.286   2.880  0.8434  1.2924  1.3558
34440SOL     OW 8639   4.870   3.475   2.644  0.2276 -0.0834  0.1502
34440SOL    HW1 8640   4.868   3.491   2.738  1.6218 -2.1387  0.5828
34440SOL    HW2 8641   4.916   3.550   2.608  0.5856  0.2309  1.2247
34441SOL     OW 8642   7.525   3.661   0.847 -0.0373  0.0130  0.0977
34441SOL    HW1 8643   7.446   3.704   0.880 -1.4694 -3.0397  1.1050
34441SOL    HW2 8644   7.536   3.585   0.904  2.9231 -0.3996 -0.8488
34442SOL     OW 8645   2.722   7.761   6.037  0.5207  0.3867 -0.1055
34442SOL    HW1 8646   2.701   7.675   6.072  0.3885  0.6259  0.4033
34442SOL    HW2 8647   2.743   7.744   5.945  2.5458 -0.5081  0.4466
34443SOL     OW 8648   6.930   8.339   5.562  0.1330 -0.0245 -0.0938
34443SOL    HW1 8649   7.006   8.395   5.548  0.2954 -0.2667 -0.1782
34443SOL    HW2 8650   6.951   8.287   5.639  0.4173 -0.7017 -0.6127
34444SOL     OW 8651   2.799   7.396   0.866  0.0776  0.4404  0.5128
34444SOL    HW1 8652   2.708   7.423   0.860 -0.2918 -0.6935  0.7092
34444SOL    HW2 8653   2.800   7.307   0.829  0.7164 -0.3513  2.3118
34445SOL     OW 8654   9.440   3.967   2.725 -0.4446  0.0812  0.2930
34445SOL    HW1 8655   9.517   3.944   2.776 -0.7147  0.1220  0.7269
34445SOL    HW2 8656   9.448   4.060   2.708 -0.9560  0.3311  1.3222
34446SOL     OW 8657  10.343  10.896   7.563  0.1130  0.9534 -0.6162
34446SOL    HW1 8658  10.414  10.919   7.623  0.9424 -1.7468 -0.4611
34446SOL    HW2 8659  10.384  10.844   7.495 -1.8472 -2.0353  0.3007
34447SOL     OW 8660   7.394   2.439   9.120 -0.0423  0.0307 -0.1605
34447SOL    HW1 8661   7.475   2.490   9.117 -0.2674  0.3461 -1.0089
34447SOL    HW2 8662   7.402   2.387   9.200  0.4968  0.8846  0.3612
34448SOL     OW 8663  10.939   8.590   3.170 -0.4635  0.5864 -0.4455
34448SOL    HW1 8664  11.000   8.516   3.171 -0.9568  0.1768  0.4544
34448SOL    HW2 8665  10.995   8.667   3.161  0.0653  0.1251 -1.2994
34449SOL     OW 8666   8.210   3.683   8.187 -0.0804 -0.0800 -0.1036
34449SOL    HW1 8667   8.267   3.617   8.146 -1.9001 -1.5437 -0.4140
34449SOL    HW2 8668   8.271   3.750   8.219  1.7991 -1.4847 -0.5171
34450SOL     OW 8669   2.703  11.433  11.058 -0.2738  0.3685 -0.3381
34450SOL    HW1 8670   2.733  11.485  10.983 -2.1800  1.5006 -0.3813
34450SOL    HW2 8671   2.724  11.488  11.134  1.0699 -0.4933 -0.0553
34451SOL     OW 8672   9.258   8.294   3.792  0.1937 -0.4041 -0.0443
34451SOL    HW1 8673   9.304   8.360   3.739 -0.4665 -0.2037 -0.3721
34451SOL    HW2 8674   9.210   8.345   3.857  0.0906 -0.5954  0.0284
34452SOL     OW 8675   8.663   1.675   6.458  0.1312 -0.0760  0.4036
34452SOL    HW1 8676   8.613   1.641   6.532 -0.9838 -1.2257 -0.8282
34452SOL    HW2 8677   8.600   1.727   6.409  0.4614 -0.5155 -0.5057
34453SOL     OW 8678  10.289   6.316   9.774 -0.5445 -0.3394 -0.2295
34453SOL    HW1 8679  10.227   6.348   9.839  1.1992  0.2901  1.1817
34453SOL    HW2 8680  10.345   6.391   9.754  1.1292 -1.4177  0.1883
34454SOL     OW 8681   1.117   9.145   7.329  0.6617  0.7718 -0.0466
34454SOL    HW1 8682   1.209   9.165   7.315  1.1500 -1.5272 -0.5901
34454SOL    HW2 8683   1.117   9.055   7.363 -1.3358  1.0643  0.8837
34455SOL     OW 8684   9.467   2.300   2.691  0.1837 -0.3583 -0.8551
34455SOL    HW1 8685   9.495   2.239   2.759 -0.4128  0.0997 -0.1806
34455SOL    HW2 8686   9.372   2.295   2.693 -0.0330  2.1697  0.7677
34456SOL     OW 8687  11.818  10.509  10.846 -0.0647 -0.1123 -0.0843
34456SOL    HW1 8688  11.750  10.549  10.792 -1.5054  1.3421  2.6010
34456SOL    HW2 8689  11.889  10.574  10.849 -0.9085  0.8067  1.4094
34457SOL     OW 8690   1.183   0.289   9.217  0.0029  0.7850 -0.1678
34457SOL    HW1 8691   1.135   0.240   9.284 -1.4942  0.7451 -1.2297
34457SOL    HW2 8692   1.118   0.310   9.151  1.8937 -1.8147 -3.1738
34458SOL     OW 8693  10.615   9.159   8.528  0.0296 -0.2648  0.4072
34458SOL    HW1 8694  10.530   9.147   8.485  0.2973 -0.4335 -0.0783
34458SOL    HW2 8695  10.680   9.135   8.461  0.4954  0.9334  0.4033
34459SOL     OW 8696   1.415  11.610   7.275  1.0799  0.1124  0.2605
34459SOL    HW1 8697   1.507  11.595   7.253  1.3183  0.9170  0.6613
34459SOL    HW2 8698   1.418  11.674   7.347  0.1998  0.4920 -0.0256
34460SOL     OW 8699   2.964   9.963   8.205  0.1812 -0.2611  0.0283
34460SOL    HW1 8700   2.936   9.913   8.128  0.5589  1.0033 -0.9857
34460SOL    HW2 8701   2.987   9.898   8.270  0.0145 -1.3847 -1.0040
34461SOL     OW 8702   4.311   0.957   9.986 -0.2576  0.0933 -0.5803
34461SOL    HW1 8703   4.334   1.032   9.932 -0.2344  1.2260  0.9333
34461SOL    HW2 8704   4.394   0.931  10.026  0.0663 -1.8340 -2.3333
34462SOL     OW 8705   7.287  11.545   7.355 -0.0293  0.6770 -0.3181
34462SOL    HW1 8706   7.220  11.583   7.298 -1.9184  0.8477  1.8492
34462SOL    HW2 8707   7.242  11.533   7.439  1.7847 -2.1700  0.3690
34463SOL     OW 8708   4.004   1.545   3.627 -0.8100 -0.1086 -0.4423
34463SOL    HW1 8709   4.026   1.544   3.720 -1.8000 -0.5344 -0.2069
34463SOL    HW2 8710   3.925   1.492   3.620 -2.7472  2.6010 -0.9968
34464SOL     OW 8711   0.582   5.611  10.029 -0.4534  0.6128  0.4638
34464SOL    HW1 8712   0.641   5.538  10.050  0.8111  1.6492  0.5862
34464SOL    HW2 8713   0.494   5.574  10.040  0.1400 -1.2027 -0.5383
34465SOL     OW 8714   8.149   1.488   3.431  0.1716  0.2168 -0.2305
34465SOL    HW1 8715   8.054   1.492   3.416  0.2125 -0.5457 -0.7238
34465SOL    HW2 8716   8.157   1.476   3.526 -0.3521 -2.7990 -0.4849
34466SOL     OW 8717   8.508   3.427  10.013  0.6880  0.4252  0.4833
34466SOL    HW1 8718   8.414   3.428   9.993  0.9728 -1.4018 -1.2840
34466SOL    HW2 8719   8.545   3.494   9.955  0.6066  0.2944  0.2775
34467SOL     OW 8720   4.647   3.152   2.937 -0.1080  0.0951  0.5496
34467SOL    HW1 8721   4.678   3.177   3.024  0.6439  0.9550  0.0435
34467SOL    HW2 8722   4.594   3.226   2.908  0.1864  0.1030  0.0138
34468SOL     OW 8723   8.652  10.143   9.783  0.4548  0.1646  0.1713
34468SOL    HW1 8724   8.593  10.142   9.707  1.0904 -1.6210 -0.3503
34468SOL    HW2 8725   8.607  10.089   9.848  0.4497  0.7317  0.6379
34469SOL     OW 8726   1.695   6.133   5.988  0.4211 -0.0369  0.3405
34469SOL    HW1 8727   1.675   6.177   6.071  2.4859 -2.7671  2.4838
34469SOL    HW2 8728   1.767   6.185   5.950 -0.2638  0.9965  0.4181
34470SOL     OW 8729   9.849   0.099   2.583  0.4301  0.4308 -0.1472
34470SOL    HW1 8730   9.896   0.019   2.607 -0.2568  0.2500  0.6436
34470SOL    HW2 8731   9.813   0.132   2.665 -0.4252  0.8206 -0.6538
34471SOL     OW 8732   6.723   5.574   4.221 -0.4930 -0.2987 -0.4558
34471SOL    HW1 8733   6.669   5.631   4.276 -2.1829 -0.3232 -1.9863
34471SOL    HW2 8734   6.718   5.488   4.264  3.2429  0.7822  2.6761
34472SOL     OW 8735   9.901   5.790   6.677 -0.3303 -0.0575 -0.4092
34472SOL    HW1 8736   9.962   5.790   6.751  0.2663  1.9742 -0.8342
34472SOL    HW2 8737   9.814   5.792   6.717 -0.0593 -0.3665  0.2142
34473SOL     OW 8738   3.805   8.149   2.502 -0.3326 -0.8207  0.1601
34473SOL    HW1 8739   3.773   8.162   2.413 -0.4575  1.3657  0.4735
34473SOL    HW2 8740   3.735   8.099   2.545 -1.3608  0.1203 -0.3517
34474SOL     OW 8741   7.750   3.510   8.296  0.4951  0.1313  0.2292
34474SOL    HW1 8742   7.712   3.491   8.382  0.0384  1.7888  0.4118
34474SOL    HW2 8743   7.765   3.604   8.296 -0.2431  0.2832 -1.7985
34475SOL     OW 8744   3.830   3.491   2.925  0.2953  0.3693  0.2535
34475SOL    HW1 8745   3.882   3.563   2.961 -0.4264  1.8272 -1.5018
34475SOL    HW2 8746   3.895   3.425   2.901  1.0360  0.7306  1.1793
34476SOL     OW 8747   6.473   3.903   9.966  0.4217  0.5493  0.0265
34476SOL    HW1 8748   6.436   3.833   9.912 -1.2581  1.2661  0.1930
34476SOL    HW2 8749   6.492   3.861  10.050  0.0057  0.1500 -0.0758
34477SOL     OW 8750  11.298   5.350   1.475  0.0978 -0.5489  0.2635
34477SOL    HW1 8751  11.331   5.277   1.528  0.4156  0.1015  0.9703
34477SOL    HW2 8752  11.203   5.338   1.474  0.1507 -0.9971  0.3285
34478SOL     OW 8753   0.560   3.623   5.360 -0.1982  0.0448 -0.1596
34478SOL    HW1 8754   0.486   3.563   5.363  1.0320 -1.5385 -0.2241
34478SOL    HW2 8755   0.572   3.651   5.451 -1.1474  0.7230 -0.2194
34479SOL     OW 8756   1.998   0.856   2.131  0.8575 -0.3108 -0.0262
34479SOL    HW1 8757   2.071   0.868   2.071 -0.6439  1.1652 -1.6785
34479SOL    HW2 8758   1.922   0.840   2.074  0.2343 -4.7524  1.6470
34480SOL     OW 8759   8.280   3.476   7.824 -0.1031  0.0875  0.5897
34480SOL    HW1 8760   8.275   3.384   7.797 -0.1444  0.4241 -0.5921
34480SOL    HW2 8761   8.191   3.509   7.816  0.2658  0.7730 -1.0483
34481SOL     OW 8762   2.159   6.136  10.822  0.1531 -0.1967  0.0639
34481SOL    HW1 8763   2.119   6.212  10.864 -1.0082 -0.2823 -0.8340
34481SOL    HW2 8764   2.240   6.121  10.871 -0.6955  0.2604  1.6532
34482SOL     OW 8765   2.299   6.980   4.916 -0.1578 -0.1322  0.5749
34482SOL    HW1 8766   2.362   6.915   4.886  0.5487 -0.5050  2.6648
34482SOL    HW2 8767   2.244   6.932   4.978 -1.8903  0.4418 -0.4429
34483SOL     OW 8768   2.315  11.383   7.420 -0.4857  0.1443  0.1858
34483SOL    HW1 8769   2.243  11.443   7.438 -0.4249  1.2076 -2.5189
34483SOL    HW2 8770   2.393  11.430   7.447 -0.6999 -0.7706  2.5724
34484SOL     OW 8771   0.601   8.658   2.655  0.0599  0.3204 -0.0227
34484SOL    HW1 8772   0.583   8.582   2.709 -1.0861  1.3245  1.0735
34484SOL    HW2 8773   0.594   8.732   2.715  1.6015  1.2855 -0.9507
34485SOL     OW 8774   2.749   9.667   3.753 -0.0301 -0.5545 -0.2021
34485SOL    HW1 8775   2.686   9.739   3.744 -0.4075 -0.9314 -0.6186
34485SOL    HW2 8776   2.820   9.705   3.804 -1.3998 -0.6456  1.9041
34486SOL     OW 8777   9.027   2.113   5.112  0.3298  0.5382 -0.0868
34486SOL    HW1 8778   8.984   2.198   5.117  0.0987  0.3335  2.1590
34486SOL    HW2 8779   8.956   2.052   5.093 -0.3140  0.3368  2.5974
34487SOL     OW 8780   9.762   2.318   3.762  0.0478  0.0332  0.0365
34487SOL    HW1 8781   9.693   2.365   3.810 -0.4076  0.5121 -1.0411
34487SOL    HW2 8782   9.788   2.379   3.693  1.3142 -0.2908  0.2179
34488SOL     OW 8783   7.521   0.227   8.049  0.1004 -0.0510  0.3063
34488SOL    HW1 8784   7.532   0.322   8.053 -0.9442  0.1193 -0.3554
34488SOL    HW2 8785   7.426   0.213   8.058  0.0701 -0.9187 -1.0808
34489SOL     OW 8786   8.446   6.219   9.751  0.5399 -0.0712  0.2046
34489SOL    HW1 8787   8.436   6.140   9.804 -0.1398  0.0948  0.3276
34489SOL    HW2 8788   8.497   6.279   9.806  2.2461 -0.8889 -0.3965
34490SOL     OW 8789   6.669   9.681   8.410 -0.2936 -0.1155  0.0788
34490SOL    HW1 8790   6.716   9.605   8.446  1.0811  0.1727 -1.0325
34490SOL    HW2 8791   6.710   9.756   8.451 -0.8099  0.0865  0.2305
34491SOL     OW 8792   5.673   6.311   3.702  0.0405 -0.0363 -0.0850
34491SOL    HW1 8793   5.646   6.280   3.788 -0.5233  1.6342  0.3860
34491SOL    HW2 8794   5.768   6.302   3.701  0.0032 -0.5421  0.5043
34492SOL     OW 8795   3.947   3.043   5.442  0.0147  0.0167 -0.1691
34492SOL    HW1 8796   3.872   3.022   5.385 -1.1528  1.1597  0.8736
34492SOL    HW2 8797   4.008   2.971   5.429 -1.3267 -1.0195 -0.9799
34493SOL     OW 8798  11.429   9.358   4.343  0.7181 -0.5754 -0.1508
34493SOL    HW1 8799  11.469   9.422   4.284 -1.0953  0.6252 -0.1515
34493SOL    HW2 8800  11.418   9.280   4.289 -0.0040  0.1856 -1.1382
34494SOL     OW 8801  11.398   4.601  10.785  0.2479  0.1176  0.4849
34494SOL    HW1 8802  11.351   4.680  10.811  1.7279  1.2313 -0.0679
34494SOL    HW2 8803  11.329   4.540  10.756 -0.9245  1.1661  0.9980
34495SOL     OW 8804   0.052   9.933   0.002  0.4379 -0.6780  0.0658
34495SOL    HW1 8805  -0.004   9.987   0.058 -0.4032 -1.2487 -0.2093
34495SOL    HW2 8806   0.008   9.849  -0.002 -0.2382 -0.2925 -2.5124
34496SOL     OW 8807   7.768  11.534   3.018 -0.7750 -0.3315 -0.1990
34496SOL    HW1 8808   7.756  11.490   3.102  1.6508 -2.1212 -0.6589
34496SOL    HW2 8809   7.680  11.554   2.988 -1.7950 -1.4998  1.8143
34497SOL     OW 8810   3.392   8.609  10.895 -0.1732 -0.0993  0.0523
34497SOL    HW1 8811   3.392   8.611  10.800 -1.2348 -0.6768  0.0219
34497SOL    HW2 8812   3.337   8.683  10.921  0.7504  0.5308  0.2456
34498SOL     OW 8813   9.620   1.881   3.333  0.5792 -0.0122  0.2947
34498SOL    HW1 8814   9.551   1.829   3.291  1.0192 -0.1292 -0.2957
34498SOL    HW2 8815   9.683   1.898   3.263  0.1629  1.8239  0.2953
34499SOL     OW 8816   9.758   0.688   7.325  0.7042 -0.0856  0.7387
34499SOL    HW1 8817   9.822   0.692   7.255  0.0376  1.1301  0.1758
34499SOL    HW2 8818   9.808   0.705   7.405  1.6240 -2.3290  0.7156
34500SOL     OW 8819  10.221   3.055  10.568 -0.2748 -0.2622  0.2360
34500SOL    HW1 8820  10.137   3.101  10.567  0.0851  0.4086  0.3929
34500SOL    HW2 8821  10.276   3.107  10.625  0.1311 -0.9304  0.4655
34501SOL     OW 8822   2.816  11.489   9.352 -0.4529  0.4226 -0.6931
34501SOL    HW1 8823   2.860  11.412   9.388 -1.3247  0.7493  1.1993
34501SOL    HW2 8824   2.885  11.555   9.345 -0.2174  0.2960  0.2714
34502SOL     OW 8825  10.030   9.828  11.776 -0.2269  0.1256 -0.3828
34502SOL    HW1 8826   9.955   9.769  11.774 -1.9674  2.1877  0.7497
34502SOL    HW2 8827  10.060   9.831  11.685 -0.7815 -1.5833 -0.6574
34503SOL     OW 8828   3.531   7.368  11.271 -0.0434 -0.0874 -0.3959
34503SOL    HW1 8829   3.562   7.401  11.187  0.7122  1.0181  0.2832
34503SOL    HW2 8830   3.607   7.373  11.328 -0.6618 -0.3805  0.4784
34504SOL     OW 8831   4.768   1.591   0.508  0.4245  0.2111 -0.7048
34504SOL    HW1 8832   4.845   1.561   0.458 -0.6783 -1.1399 -1.6652
34504SOL    HW2 8833   4.707   1.622   0.441 -0.7422 -0.8017 -0.1477
34505SOL     OW 8834   4.229   5.263   8.133 -0.0096 -0.1692 -0.1026
34505SOL    HW1 8835   4.162   5.223   8.078 -0.4121  0.5186 -0.1283
34505SOL    HW2 8836   4.290   5.304   8.072  0.7986 -1.3027 -0.1071
34506SOL     OW 8837   5.266   8.988   6.040  0.5745  0.3483 -0.0590
34506SOL    HW1 8838   5.185   9.032   6.014  0.7449  0.2673 -0.7476
34506SOL    HW2 8839   5.268   8.996   6.135 -0.9852 -0.9430  0.1277
34507SOL     OW 8840   2.872   4.310  10.053  0.0835 -0.1691  0.3449
34507SOL    HW1 8841   2.950   4.351  10.015  2.4854 -4.3609  0.2080
34507SOL    HW2 8842   2.831   4.264   9.980 -1.2037  0.0365  0.9113
34508SOL     OW 8843   5.695   5.089   2.534 -0.3608 -0.2162  0.0614
34508SOL    HW1 8844   5.639   5.162   2.558 -0.1898 -0.5199  1.4754
34508SOL    HW2 8845   5.659   5.014   2.583  0.1538 -0.8196 -0.4609
34509SOL     OW 8846  10.495   9.381   3.978  0.2340 -0.1452 -0.7464
34509SOL    HW1 8847  10.563   9.428   4.027 -0.0132  0.0203 -0.5611
34509SOL    HW2 8848  10.413   9.421   4.006 -0.2123 -2.2945  1.2548
34510SOL     OW 8849   8.034  11.151   7.093 -0.1173 -0.4982 -0.1080
34510SOL    HW1 8850   7.939  11.165   7.098 -0.0171 -0.1582  1.0563
34510SOL    HW2 8851   8.052  11.088   7.162  0.6218  0.0583  0.2078
34511SOL     OW 8852   4.430   9.237   3.813 -0.8610  0.4405 -0.2718
34511SOL    HW1 8853   4.381   9.304   3.860  0.9869  2.0322 -0.4927
34511SOL    HW2 8854   4.421   9.158   3.866 -2.0986  1.1651  0.6274
34512SOL     OW 8855   2.260   7.347   7.342 -0.0347  0.2875  0.3220
34512SOL    HW1 8856   2.283   7.291   7.267  1.6479 -0.9136  1.6438
34512SOL    HW2 8857   2.197   7.295   7.391  0.0838  0.3644  0.5574
34513SOL     OW 8858   1.340   0.113   3.991 -0.3574  0.2094  0.6975
34513SOL    HW1 8859   1.384   0.038   4.032 -0.0001  1.1962  2.2263
34513SOL    HW2 8860   1.412   0.170   3.962 -0.4235 -1.8282 -4.3799
34514SOL     OW 8861   9.207   4.888   6.804  0.5566 -0.6689 -0.0961
34514SOL    HW1 8862   9.242   4.950   6.868 -0.9096  1.2254 -1.0443
34514SOL    HW2 8863   9.219   4.802   6.845 -0.1098  0.4345  2.6179
34515SOL     OW 8864   7.740  11.475  10.129  0.5406  0.2483  0.0934
34515SOL    HW1 8865   7.672  11.476  10.061 -0.6202 -1.8439  1.1304
34515SOL    HW2 8866   7.760  11.382  10.141  1.9322  0.6944  1.4529
34516SOL     OW 8867   2.002   7.323   1.552  0.0868 -0.5617  0.2963
34516SOL    HW1 8868   1.944   7.385   1.595  1.2993 -0.1709  1.4541
34516SOL    HW2 8869   2.085   7.371   1.542  1.0318 -1.9323  1.1532
34517SOL     OW 8870   4.343   4.401  11.426 -0.0823  0.2230 -0.6893
34517SOL    HW1 8871   4.250   4.423  11.413 -0.2350  0.3177  0.4413
34517SOL    HW2 8872   4.389   4.456  11.363 -0.7439  0.7756 -0.7107
34518SOL     OW 8873   2.884   6.354   0.771  0.6098  0.0171  0.0713
34518SOL    HW1 8874   2.867   6.430   0.827  1.0483  0.5530 -0.4967
34518SOL    HW2 8875   2.824   6.286   0.802  0.4984  0.4646  0.8554
34519SOL     OW 8876   1.956   8.902   9.716 -0.4740 -0.3465 -0.1651
34519SOL    HW1 8877   1.896   8.943   9.654  1.3836  1.8418 -0.6806
34519SOL    HW2 8878   1.952   8.959   9.794 -0.1973 -1.0272  0.3586
34520SOL     OW 8879   9.148   9.750   2.656 -0.5507  1.0828 -0.6112
34520SOL    HW1 8880   9.231   9.729   2.613 -0.2330  0.7044  0.1694
34520SOL    HW2 8881   9.164   9.835   2.698 -0.0548  0.3184  0.7938
34521SOL     OW 8882   8.578  11.614   6.563  0.1273 -0.4149 -0.0648
34521SOL    HW1 8883   8.571  11.572   6.478  0.7333 -0.8363  0.0835
34521SOL    HW2 8884   8.570  11.542   6.626  2.0768 -0.4749  0.1801
34522SOL     OW 8885   3.491  10.937  10.079 -0.4510 -0.5557 -0.0212
34522SOL    HW1 8886   3.511  10.848  10.108  0.7051 -1.1168 -2.2591
34522SOL    HW2 8887   3.560  10.991  10.119  0.6601 -1.1829 -1.0042
34523SOL     OW 8888   9.871   8.609   5.776  0.1026  0.0674 -0.7705
34523SOL    HW1 8889   9.916   8.567   5.850  1.4421  0.7018 -1.1970
34523SOL    HW2 8890   9.778   8.603   5.799  0.4820  0.3695  1.0402
34524SOL     OW 8891  11.202  11.053   4.581 -0.3091  0.0140  0.3053
34524SOL    HW1 8892  11.229  10.976   4.530 -1.6006 -1.1324  1.2756
34524SOL    HW2 8893  11.219  11.028   4.672 -0.9302  0.7995  0.6444
34525SOL     OW 8894   3.966   1.414   9.714  0.0388 -0.4971  0.3123
34525SOL    HW1 8895   4.008   1.411   9.628 -1.0320 -0.5034 -0.2286
34525SOL    HW2 8896   4.035   1.442   9.773  0.2351  1.8094 -0.9196
34526SOL     OW 8897   6.905   6.872   3.306  0.1919 -0.3219 -0.2245
34526SOL    HW1 8898   6.844   6.834   3.369 -1.9430  0.6539 -1.6271
34526SOL    HW2 8899   6.992   6.854   3.344 -0.9450 -0.7886  2.3761
34527SOL     OW 8900  11.147   2.054   6.445  0.2718  0.0408  0.7968
34527SOL    HW1 8901  11.060   2.033   6.477  0.4392  0.9238  1.8899
34527SOL    HW2 8902  11.132   2.101   6.363 -0.2773  0.1890  0.9786
34528SOL     OW 8903   4.647   3.084   9.437  0.2719  0.3435 -0.3228
34528SOL    HW1 8904   4.633   3.092   9.342 -1.4172  0.6692 -0.0836
34528SOL    HW2 8905   4.561   3.059   9.471  1.5404 -3.1606  0.7825
34529SOL     OW 8906   7.878   9.122   0.080  0.3626 -0.0299 -0.0400
34529SOL    HW1 8907   7.837   9.103  -0.004  0.0578  0.7754 -0.0798
34529SOL    HW2 8908   7.847   9.209   0.103  0.5054 -0.2112  0.8732
34530SOL     OW 8909   5.463  11.676   5.678  0.1034  0.3016 -0.5743
34530SOL    HW1 8910   5.483  11.646   5.589  2.2946  0.0591 -0.0648
34530SOL    HW2 8911   5.456  11.595   5.728 -1.7615  0.4129 -0.6130
34531SOL     OW 8912   5.607   2.315   4.704 -0.4803  0.4468  0.0779
34531SOL    HW1 8913   5.616   2.223   4.729 -0.3662  0.6613  0.8585
34531SOL    HW2 8914   5.680   2.331   4.645 -0.6992 -0.0523 -0.3353
34532SOL     OW 8915  11.343   7.363  10.002 -0.4066  0.2780 -0.7197
34532SOL    HW1 8916  11.319   7.453   9.980  0.3809  0.4480 -0.9186
34532SOL    HW2 8917  11.350   7.318   9.918 -3.1936 -0.6384 -0.5506
34533SOL     OW 8918   4.577   5.832   4.520  0.2470 -0.1302  0.0534
34533SOL    HW1 8919   4.590   5.927   4.528 -0.0516 -0.1023  0.1969
34533SOL    HW2 8920   4.621   5.809   4.438 -0.4827  0.2813 -0.4615
34534SOL     OW 8921   1.088   5.927   2.079 -0.7620 -0.0368 -0.7934
34534SOL    HW1 8922   1.017   5.911   2.018 -2.3022 -2.1221  1.3548
34534SOL    HW2 8923   1.073   6.017   2.109 -3.1097 -0.6938  0.2383
34535SOL     OW 8924   3.022   9.660   6.665 -0.1128  0.3475  0.1913
34535SOL    HW1 8925   2.990   9.602   6.733 -1.2562  1.9641  1.1027
34535SOL    HW2 8926   3.059   9.735   6.712  1.4476  0.3436 -0.9398
34536SOL     OW 8927   2.624   8.778   8.115  0.0785  0.0783 -0.2616
34536SOL    HW1 8928   2.607   8.827   8.196  1.3534  1.9833 -1.0591
34536SOL    HW2 8929   2.580   8.694   8.127 -1.8685  1.2420  1.3957
34537SOL     OW 8930  11.723   4.040   5.676  0.2210  0.4607 -0.0069
34537SOL    HW1 8931  11.729   3.974   5.607 -0.5104 -1.3214  1.5563
34537SOL    HW2 8932  11.719   4.123   5.628  0.9369 -0.6005 -2.0575
34538SOL     OW 8933   4.837   6.990   7.656  0.0680 -0.6691  0.4506
34538SOL    HW1 8934   4.893   7.019   7.584 -0.8877 -0.1548 -0.1032
34538SOL    HW2 8935   4.885   6.918   7.696  0.3877 -1.3412 -1.0518
34539SOL     OW 8936   8.770  10.364   3.829 -0.0599  0.1566  0.0734
34539SOL    HW1 8937   8.825  10.379   3.906 -0.0804  1.7130 -0.1668
34539SOL    HW2 8938   8.680  10.361   3.863 -0.0133  0.1187  0.1908
34540SOL     OW 8939  10.031  10.336   9.518  0.0095 -0.2827 -0.9811
34540SOL    HW1 8940  10.068  10.423   9.504 -2.1527  0.8396 -0.1109
34540SOL    HW2 8941  10.064  10.309   9.603 -0.6336  0.4317 -0.4951
34541SOL     OW 8942   0.638   6.771   8.736  0.4394  0.4401 -0.1691
34541SOL    HW1 8943   0.684   6.690   8.712  1.1656  0.7812  0.0259
34541SOL    HW2 8944   0.657   6.782   8.829 -0.7351  0.1567  0.1231
34542SOL     OW 8945   5.945   9.332   8.745  0.8869  0.0650  0.8307
34542SOL    HW1 8946   5.975   9.371   8.827 -1.9399  1.9827  1.0882
34542SOL    HW2 8947   5.932   9.407   8.687 -1.5313 -0.7463  0.2091
34543SOL     OW 8948  10.531   3.682   6.201 -0.0066  0.2119  0.0901
34543SOL    HW1 8949  10.512   3.761   6.151 -1.6941 -0.1114  0.1444
34543SOL    HW2 8950  10.587   3.712   6.273  2.4253  0.6952 -1.8608
34544SOL     OW 8951   0.790   8.078   2.136  0.5643 -0.6333 -0.3743
34544SOL    HW1 8952   0.855   8.031   2.084  1.4589 -0.0133  0.1723
34544SOL    HW2 8953   0.706   8.043   2.105  1.1707 -2.2849 -0.2898
34545SOL     OW 8954   0.250   8.449   0.893  0.4787  0.1901 -0.3692
34545SOL    HW1 8955   0.341   8.424   0.909  0.5541  1.0026  0.5745
34545SOL    HW2 8956   0.202   8.366   0.897  1.1066 -0.1841 -0.3769
34546SOL     OW 8957   0.760   7.098  10.115  0.5219  0.2433 -0.6484
34546SOL    HW1 8958   0.811   7.137  10.186  0.7959 -2.5375  0.8084
34546SOL    HW2 8959   0.671   7.094  10.150  0.1563  1.0611 -1.4543
34547SOL     OW 8960   6.282   5.306   5.969  0.2054 -0.1791  0.0640
34547SOL    HW1 8961   6.356   5.310   5.909  0.2998  1.4790  0.2410
34547SOL    HW2 8962   6.321   5.300   6.056  0.2529  2.3812  0.2953
34548SOL     OW 8963   2.102  10.756   1.924  0.0959  0.1208  0.0672
34548SOL    HW1 8964   2.186  10.769   1.879 -1.1547 -0.5001 -2.6595
34548SOL    HW2 8965   2.114  10.674   1.973  1.7029  1.1385  1.5051
34549SOL     OW 8966  10.506   5.255   0.587  0.0454 -0.1986 -0.1434
34549SOL    HW1 8967  10.423   5.303   0.587 -1.7765 -3.1268  0.0532
34549SOL    HW2 8968  10.560   5.301   0.651 -1.5634  1.5447  0.0535
34550SOL     OW 8969   6.832   2.440   5.529  0.0231  0.2449  0.0437
34550SOL    HW1 8970   6.855   2.455   5.438  0.0619 -0.4699 -0.0663
34550SOL    HW2 8971   6.736   2.435   5.529  0.0458 -0.2440 -0.0384
34551SOL     OW 8972   5.840   2.301   6.584 -0.0496  0.1738  0.0661
34551SOL    HW1 8973   5.796   2.268   6.506  0.2469  0.8030 -0.3725
34551SOL    HW2 8974   5.801   2.252   6.656 -0.6259 -0.1118 -0.4343
34552SOL     OW 8975   6.149   9.754   4.529  0.1132  0.1949  0.6429
34552SOL    HW1 8976   6.101   9.723   4.606  0.1938  2.3102  1.6134
34552SOL    HW2 8977   6.239   9.722   4.543 -0.2200 -0.8069  0.5754
34553SOL     OW 8978   4.244   6.286   4.166 -0.1297  0.7724 -0.2999
34553SOL    HW1 8979   4.322   6.248   4.207  0.1681 -0.3609 -1.8214
34553SOL    HW2 8980   4.180   6.214   4.166 -0.7108  1.2793 -0.2978
34554SOL     OW 8981   5.863   4.903  10.009 -0.3100 -0.0807 -0.1714
34554SOL    HW1 8982   5.768   4.913  10.013 -0.2827  0.1433 -0.0639
34554SOL    HW2 8983   5.895   4.982   9.967  0.0313  1.0755  2.0766
34555SOL     OW 8984   9.790   1.461   4.741  0.3113  0.2253 -0.0420
34555SOL    HW1 8985   9.870   1.509   4.719  0.2520  0.5366  0.4143
34555SOL    HW2 8986   9.734   1.470   4.665  0.2980  0.8894  0.0477
34556SOL     OW 8987   4.921   8.449   7.975  0.7092  0.4396 -0.0913
34556SOL    HW1 8988   4.842   8.414   8.016  0.8779 -0.6606 -0.6636
34556SOL    HW2 8989   4.939   8.529   8.023 -0.4770  0.4570  0.3724
34557SOL     OW 8990   7.454   5.607   7.825  0.3810  0.6861 -0.9065
34557SOL    HW1 8991   7.445   5.608   7.729  0.2067  1.8531 -0.8945
34557SOL    HW2 8992   7.448   5.699   7.850  0.7286  0.4167  0.2084
34558SOL     OW 8993   2.560   2.149   4.303 -0.3189  0.2526  0.6061
34558SOL    HW1 8994   2.496   2.199   4.354 -0.9514 -0.9498  1.0445
34558SOL    HW2 8995   2.586   2.077   4.360 -1.0760 -1.1533 -0.7300
34559SOL     OW 8996   6.226   4.557   0.395 -0.4270  0.0949 -1.0035
34559SOL    HW1 8997   6.190   4.640   0.427 -0.9356 -0.4424 -0.1586
34559SOL    HW2 8998   6.165   4.529   0.327 -0.6052  0.1001 -0.8475
34560SOL     OW 8999   9.691   8.836   3.769 -0.0416 -0.0437 -0.2785
34560SOL    HW1 9000   9.755   8.871   3.706  1.4728 -0.8910  0.7122
34560SOL    HW2 9001   9.606   8.851   3.728  0.7663  1.4345 -1.5075
34561SOL     OW 9002   2.413   8.828   7.368  0.0888 -0.0487  0.0265
34561SOL    HW1 9003   2.434   8.880   7.446  3.4774 -1.0794 -0.0256
34561SOL    HW2 9004   2.376   8.747   7.403 -0.4522  0.3591  0.4159
34562SOL     OW 9005   0.494   2.843   7.452  0.0508 -0.4768  0.0958
34562SOL    HW1 9006   0.424   2.867   7.514 -0.9976 -1.5675 -0.6144
34562SOL    HW2 9007   0.448   2.833   7.369  1.5407  1.7105 -1.0904
34563SOL     OW 9008   2.443   7.578   8.497 -0.3156 -0.1291  0.8047
34563SOL    HW1 9009   2.423   7.485   8.490  1.4222 -0.5255  0.7544
34563SOL    HW2 9010   2.484   7.601   8.413  0.9065  0.2285  1.4678
34564SOL     OW 9011   7.991  10.898   6.039  0.2252  0.0760  0.0338
34564SOL    HW1 9012   7.971  10.971   6.097  0.8342  0.1540  0.1528
34564SOL    HW2 9013   8.053  10.845   6.088 -1.9491 -1.8220  0.9240
34565SOL     OW 9014   5.866   3.597   3.319  0.3850 -0.0310 -0.8126
34565SOL    HW1 9015   5.879   3.504   3.297  1.7722 -0.3683  1.1762
34565SOL    HW2 9016   5.915   3.644   3.252  1.5713 -0.8497 -0.5526
34566SOL     OW 9017  11.447  11.210   5.316 -0.2140 -0.2810 -0.2843
34566SOL    HW1 9018  11.533  11.213   5.276 -0.4291  0.4794 -0.7072
34566SOL    HW2 9019  11.462  11.235   5.408 -0.3536  3.1412 -1.0456
34567SOL     OW 9020   5.012  11.748   4.319  0.7935 -0.0766  0.1882
34567SOL    HW1 9021   5.011  11.837   4.354 -2.2929  0.4180 -0.8538
34567SOL    HW2 9022   5.020  11.760   4.224 -1.3831 -0.7273 -0.1310
34568SOL     OW 9023  10.745   9.108   1.000 -0.4763  0.8252  0.0523
34568SOL    HW1 9024  10.774   9.188   1.044  0.1941  0.2558  0.6822
34568SOL    HW2 9025  10.653   9.099   1.025 -0.4821  1.2482  0.2046
34569SOL     OW 9026   5.672   1.953   6.245  0.1635 -0.2060  0.3431
34569SOL    HW1 9027   5.685   2.033   6.295 -0.7149  0.2637 -0.1515
34569SOL    HW2 9028   5.708   1.883   6.300  0.4254  0.4614  1.0228
34570SOL     OW 9029   2.480  11.665  11.811 -0.2014 -0.5829  0.2653
34570SOL    HW1 9030   2.430  11.606  11.754  2.2594 -1.5433 -1.0113
34570SOL    HW2 9031   2.570  11.635  11.804  0.7778  1.8150  1.5671
34571SOL     OW 9032  10.653   3.935   2.942 -1.1629 -0.1619  0.0260
34571SOL    HW1 9033  10.612   3.935   3.028  0.1875 -0.2495  0.6983
34571SOL    HW2 9034  10.728   3.994   2.951 -2.3029  1.6949 -1.7587
34572SOL     OW 9035  11.071   3.883   1.862  0.2502 -0.3681  0.4946
34572SOL    HW1 9036  11.046   3.853   1.949 -1.6713  0.5606  0.3072
34572SOL    HW2 9037  11.058   3.977   1.864  0.7403 -0.2564 -0.6326
34573SOL     OW 9038   8.220   3.449  10.929  0.4681 -0.2496  0.5324
34573SOL    HW1 9039   8.234   3.355  10.938 -0.3137 -0.1826  3.4621
34573SOL    HW2 9040   8.276   3.488  10.996  0.2024  1.3334 -0.1155
34574SOL     OW 9041   1.580   7.353   3.628  0.2731 -0.1241  0.1753
34574SOL    HW1 9042   1.554   7.264   3.604  0.0079 -0.0011 -0.0056
34574SOL    HW2 9043   1.555   7.362   3.719 -1.0079  0.2302 -0.1857
34575SOL     OW 9044   9.267   0.853  11.133  0.4015  0.3560 -0.0681
34575SOL    HW1 9045   9.360   0.834  11.126  0.3844  0.2284  0.0212
34575SOL    HW2 9046   9.233   0.843  11.044  0.5882  1.0416 -0.2190
34576SOL     OW 9047   1.185   7.082   9.129 -0.0763  0.0432  0.6086
34576SOL    HW1 9048   1.223   7.144   9.067 -0.2333  1.2463  1.6700
34576SOL    HW2 9049   1.254   7.068   9.194  0.3512 -1.7651 -0.1816
34577SOL     OW 9050   1.205   5.751  10.302 -0.1367 -0.4219 -0.0380
34577SOL    HW1 9051   1.182   5.702  10.223 -0.9194 -0.4979  0.2347
34577SOL    HW2 9052   1.222   5.684  10.368  0.3397 -0.3551 -0.0894
34578SOL     OW 9053   2.819  11.220   8.887 -0.1802 -0.4687 -0.0185
34578SOL    HW1 9054   2.819  11.224   8.791 -1.2911  2.8397 -0.0245
34578SOL    HW2 9055   2.767  11.143   8.908  0.8766 -1.8132 -2.0336
34579SOL     OW 9056  11.563   4.404  11.814 -0.3718  0.2807 -0.4314
34579SOL    HW1 9057  11.480   4.384  11.771  0.4256 -0.2551 -1.8079
34579SOL    HW2 9058  11.548   4.386  11.907 -0.8816 -3.0066 -1.0317
34580SOL     OW 9059   4.246   8.248   4.091  0.2058 -0.2580 -0.2367
34580SOL    HW1 9060   4.330   8.293   4.102 -0.2497  0.6966 -0.4864
34580SOL    HW2 9061   4.229   8.251   3.997 -1.5677  2.4653  0.0186
34581SOL     OW 9062   3.562   9.392   2.262 -0.1991  0.2758 -0.2163
34581SOL    HW1 9063   3.619   9.320   2.235  0.8276  1.3936 -1.1470
34581SOL    HW2 9064   3.518   9.419   2.182 -2.2057 -0.6550  0.5103
34582SOL     OW 9065   4.926   8.021  10.551  0.5263 -0.0437 -0.2645
34582SOL    HW1 9066   5.013   8.025  10.590  0.0659 -0.4086  0.8461
34582SOL    HW2 9067   4.869   7.990  10.622 -0.4022 -0.4151 -1.1398
34583SOL     OW 9068   3.193   7.955   8.557 -0.6599 -0.3506  0.4940
34583SOL    HW1 9069   3.130   7.988   8.492  1.0821  0.6831 -0.7791
34583SOL    HW2 9070   3.196   8.023   8.624  0.4973  0.5746 -0.4525
34584SOL     OW 9071  10.790  10.581   8.589 -0.2230  0.2695  0.2485
34584SOL    HW1 9072  10.733  10.645   8.633 -1.6201 -0.8723  0.1815
34584SOL    HW2 9073  10.844  10.633   8.530 -0.1687  1.5527  1.3930
34585SOL     OW 9074   2.078   3.994   4.190  0.0131 -0.5653  0.4624
34585SOL    HW1 9075   2.146   4.003   4.124 -0.2926  0.5242  0.2866
34585SOL    HW2 9076   2.093   3.907   4.228  1.8393 -0.1332  0.8077
34586SOL     OW 9077  10.693  11.155   2.324 -0.1349  0.8618 -0.3144
34586SOL    HW1 9078  10.706  11.061   2.339 -0.1645  0.9217  0.0875
34586SOL    HW2 9079  10.749  11.174   2.248 -0.2921  0.4796 -0.5312
34587SOL     OW 9080   6.669  10.561   3.817 -0.1450 -0.6717  0.2182
34587SOL    HW1 9081   6.648  10.470   3.797 -0.1678 -0.4151 -1.0449
34587SOL    HW2 9082   6.753  10.557   3.863 -0.0910 -1.3276  0.0716
34588SOL     OW 9083   2.024   4.914   0.219  0.2828 -0.2857  0.1714
34588SOL    HW1 9084   1.958   4.982   0.206 -0.0243 -0.6789 -0.3618
34588SOL    HW2 9085   1.974   4.836   0.243  0.6508 -0.2677  1.0336
34589SOL     OW 9086   3.479   0.551   7.016 -0.3401  0.4174  0.0295
34589SOL    HW1 9087   3.560   0.551   6.966  0.7039 -0.0374  1.6354
34589SOL    HW2 9088   3.492   0.484   7.083 -2.2843 -0.0705 -0.0179
34590SOL     OW 9089  11.792   8.202   9.403  0.4477 -0.0250 -0.0181
34590SOL    HW1 9090  11.839   8.194   9.320 -1.8750 -1.6818 -1.2776
34590SOL    HW2 9091  11.844   8.151   9.466  1.1670 -0.4531 -0.9443
34591SOL     OW 9092   6.882   3.656   2.058 -0.2671  0.0588 -0.0960
34591SOL    HW1 9093   6.834   3.734   2.085 -0.5940  0.3136 -1.3568
34591SOL    HW2 9094   6.817   3.585   2.063 -0.2175  0.0307  0.1675
34592SOL     OW 9095   8.548   3.904  10.314  0.1584 -0.0585  0.2307
34592SOL    HW1 9096   8.546   3.822  10.264 -0.3937 -0.6409  1.1874
34592SOL    HW2 9097   8.628   3.899  10.365  0.1825  0.0617  0.2063
34593SOL     OW 9098   7.944   6.411   1.279  0.0941 -0.0784  0.0818
34593SOL    HW1 9099   7.995   6.491   1.272 -1.6031  0.9433 -1.9995
34593SOL    HW2 9100   7.978   6.355   1.209  1.5494 -1.4280  1.7849
34594SOL     OW 9101   6.619  10.262   8.240 -0.1456  0.4074  0.1934
34594SOL    HW1 9102   6.681  10.311   8.187  0.5505 -0.6937 -0.0411
34594SOL    HW2 9103   6.622  10.173   8.205  0.1672 -0.3037  1.8992
34595SOL     OW 9104  11.101   0.747   3.532  0.1642 -0.5074 -0.5274
34595SOL    HW1 9105  11.105   0.692   3.610 -0.8394 -1.7072 -1.2834
34595SOL    HW2 9106  11.023   0.801   3.544  0.1241 -0.5482 -0.6113
34596SOL     OW 9107  10.378  11.171   2.313  0.1904 -0.2066  0.8127
34596SOL    HW1 9108  10.389  11.240   2.247 -0.1827  1.2812  2.2210
34596SOL    HW2 9109  10.466  11.151   2.341  0.3337 -0.6480  0.0714
34597SOL     OW 9110   4.305  11.642   0.501 -0.0161  0.6407  0.2858
34597SOL    HW1 9111   4.383  11.679   0.543  0.1460  1.0281 -0.3547
34597SOL    HW2 9112   4.232  11.678   0.552  0.1547  1.5722 -0.1114
34598SOL     OW 9113   1.696   1.847   1.057  0.2384  0.0606 -0.1300
34598SOL    HW1 9114   1.748   1.812   0.984  2.0546 -1.0275  1.5843
34598SOL    HW2 9115   1.661   1.769   1.101 -1.0377  0.7084  0.0513
34599SOL     OW 9116  10.011   6.772   1.364  0.1420  0.9225 -0.5927
34599SOL    HW1 9117  10.004   6.677   1.358  0.2607  0.9931 -2.0470
34599SOL    HW2 9118  10.094   6.787   1.410 -0.1715  0.3362  0.1952
34600SOL     OW 9119   2.892   0.128  10.262  0.1179  0.0922  0.2637
34600SOL    HW1 9120   2.860   0.186  10.330 -0.1038  0.9810 -0.5792
34600SOL    HW2 9121   2.962   0.177  10.218  0.5405 -0.6236  0.1040
34601SOL     OW 9122   1.373   9.217  10.077  0.5107  0.5371 -0.4426
34601SOL    HW1 9123   1.453   9.164  10.076  0.8781  1.0533  0.3682
34601SOL    HW2 9124   1.302   9.153  10.083  0.9637  0.1107  0.8602
34602SOL     OW 9125   9.683  11.285  11.556  1.1684  0.1033  0.1118
34602SOL    HW1 9126   9.755  11.265  11.496 -0.6866 -2.0599 -1.5575
34602SOL    HW2 9127   9.611  11.312  11.500 -0.0537 -0.0567  1.5355
34603SOL     OW 9128   1.309   9.108   3.179  0.1430 -0.0104  0.2787
34603SOL    HW1 9129   1.354   9.027   3.155  2.3650  0.9174  1.0119
34603SOL    HW2 9130   1.307   9.159   3.098  3.8398  1.3986  0.8710
34604SOL     OW 9131   5.400   3.939   9.900  0.0983 -0.0516  0.2330
34604SOL    HW1 9132   5.334   3.955   9.967 -1.4780 -2.4662 -0.6029
34604SOL    HW2 9133   5.380   4.002   9.831 -1.3181 -0.6770  0.0364
34605SOL     OW 9134   3.154   9.328   7.417  0.3104 -0.1862  0.3311
34605SOL    HW1 9135   3.197   9.242   7.414  1.3247  0.3376 -0.8973
34605SOL    HW2 9136   3.170   9.366   7.331 -0.4027  1.1159  0.7492
34606SOL     OW 9137   0.593   8.987   3.235 -0.4204 -0.5839  0.0881
34606SOL    HW1 9138   0.507   8.970   3.196  0.1239  0.0765 -1.4583
34606SOL    HW2 9139   0.652   8.926   3.191  0.2088  0.1471 -0.0952
34607SOL     OW 9140   0.554   7.636   8.499 -0.2101 -0.0806 -0.5256
34607SOL    HW1 9141   0.631   7.586   8.528 -1.9303 -1.8076  1.3305
34607SOL    HW2 9142   0.535   7.601   8.412 -0.9266 -2.2512  0.4390
34608SOL     OW 9143   1.078   1.103   4.051  0.1999 -0.2528  0.1646
34608SOL    HW1 9144   1.067   1.197   4.062  2.1205  0.0332 -0.0693
34608SOL    HW2 9145   1.028   1.082   3.972 -0.8792  0.4165  0.6499
34609SOL     OW 9146   3.262   2.881   2.130 -0.0210  0.5921 -0.0721
34609SOL    HW1 9147   3.341   2.840   2.094 -0.2379  0.0836  0.0340
34609SOL    HW2 9148   3.190   2.841   2.082 -0.2920  0.1832  0.6736
34610SOL     OW 9149   5.030   7.498   7.221 -0.3557 -0.7266  0.2549
34610SOL    HW1 9150   5.076   7.551   7.286 -1.6359 -0.3571  0.8980
34610SOL    HW2 9151   5.087   7.422   7.208  1.7306  0.9440 -1.0175
34611SOL     OW 9152   4.710  10.179   8.944  0.2284 -0.6098  0.0614
34611SOL    HW1 9153   4.746  10.263   8.972 -0.1166  0.4819 -2.5494
34611SOL    HW2 9154   4.630  10.201   8.897  0.9213 -2.2111 -2.0438
34612SOL     OW 9155   8.991   3.015   8.455  0.0782  0.4594  0.1928
34612SOL    HW1 9156   9.065   2.965   8.422  0.2677  1.4627 -0.9633
34612SOL    HW2 9157   9.030   3.091   8.498 -0.2579  0.7164  0.0497
34613SOL     OW 9158   7.806   2.101   5.203 -0.0856 -0.3131  0.1211
34613SOL    HW1 9159   7.730   2.159   5.209 -0.9077 -1.3964  0.4011
34613SOL    HW2 9160   7.824   2.095   5.109 -0.7128 -0.5053  0.0096
34614SOL     OW 9161   1.863   2.844  11.021 -0.2269 -0.0878  0.2354
34614SOL    HW1 9162   1.807   2.888  11.084  1.2141  0.3663  1.2340
34614SOL    HW2 9163   1.906   2.915  10.973  1.0466 -0.3852  0.8993
34615SOL     OW 9164   9.299   1.123   4.699 -0.5500 -0.2168  0.3550
34615SOL    HW1 9165   9.315   1.213   4.673 -0.6374  0.4469  2.4215
34615SOL    HW2 9166   9.210   1.104   4.668  0.1337 -0.2635 -1.7073
34616SOL     OW 9167   9.262   9.817  10.266  0.6275  0.2772  0.0208
34616SOL    HW1 9168   9.206   9.745  10.296  2.5262 -1.0292  0.6991
34616SOL    HW2 9169   9.328   9.826  10.335  0.3173  2.8829  0.0581
34617SOL     OW 9170   6.216   1.220   8.033  0.0524 -1.0720  0.1649
34617SOL    HW1 9171   6.198   1.205   8.126  0.3192 -0.1889  0.3696
34617SOL    HW2 9172   6.157   1.161   7.987 -0.8692 -0.7244  0.8827
34618SOL     OW 9173   7.076   1.022   6.755  0.2760 -0.1004 -0.1491
34618SOL    HW1 9174   7.154   0.970   6.778 -0.2341 -0.5880  0.5234
34618SOL    HW2 9175   7.028   1.030   6.837 -1.8104 -2.2489 -1.0330
34619SOL     OW 9176   7.491   7.152   7.787 -0.6087 -0.0314  0.2162
34619SOL    HW1 9177   7.585   7.167   7.781 -0.7579  0.7671 -0.2057
34619SOL    HW2 9178   7.481   7.057   7.776  0.1023 -0.0644 -0.1773
34620SOL     OW 9179   5.525   3.633   8.273  0.3642 -0.4285 -0.2072
34620SOL    HW1 9180   5.488   3.610   8.359 -0.3565 -0.6842 -0.5818
34620SOL    HW2 9181   5.467   3.700   8.239  1.4305  0.6741  0.0858
34621SOL     OW 9182   6.498   9.660   6.076 -0.9228 -0.1843 -0.1646
34621SOL    HW1 9183   6.556   9.616   6.138 -0.4144 -0.0311 -0.5209
34621SOL    HW2 9184   6.484   9.747   6.113 -0.1646  0.1085 -0.5233
34622SOL     OW 9185   1.969   1.834  10.847 -0.0387  0.0608  0.3379
34622SOL    HW1 9186   1.907   1.771  10.809  0.8457 -0.9213  0.4872
34622SOL    HW2 9187   2.044   1.781  10.873  0.0776  0.9567  1.9303
34623SOL     OW 9188   8.958   3.611   4.509 -0.0270 -0.1765  0.5019
34623SOL    HW1 9189   9.028   3.551   4.486  0.9288  0.3722  1.8347
34623SOL    HW2 9190   8.999   3.675   4.567 -1.5134  0.4914  0.8781
34624SOL     OW 9191   0.158   1.078   3.353 -0.0737 -0.0348 -0.5050
34624SOL    HW1 9192   0.085   1.051   3.410 -0.5475  0.9594 -0.6270
34624SOL    HW2 9193   0.234   1.078   3.411 -0.5549  0.9838  0.1608
34625SOL     OW 9194   1.495   4.497   6.565 -0.1310  0.3044 -0.1244
34625SOL    HW1 9195   1.551   4.428   6.602  1.3253  1.3351 -0.3387
34625SOL    HW2 9196   1.546   4.533   6.492 -0.6509  1.9285  0.2758
34626SOL     OW 9197   7.729   4.140   7.013 -0.4921  0.8088  0.3398
34626SOL    HW1 9198   7.705   4.081   7.083 -1.1900  0.8572  0.1504
34626SOL    HW2 9199   7.655   4.137   6.952  0.2486  0.5077 -0.5631
34627SOL     OW 9200   6.719   5.944  10.812 -0.5750  0.2980  0.2768
34627SOL    HW1 9201   6.736   5.851  10.803 -0.6418  0.4143 -1.2549
34627SOL    HW2 9202   6.635   5.959  10.768 -0.5203  1.0870  0.4138
34628SOL     OW 9203   3.675   8.655   1.811  0.0534 -0.2496 -0.2436
34628SOL    HW1 9204   3.768   8.641   1.824 -0.0023 -0.9484 -0.5181
34628SOL    HW2 9205   3.667   8.682   1.719 -0.0687 -0.8447 -0.4143
34629SOL     OW 9206   7.305   1.245   5.949  0.4407  0.2099 -0.2067
34629SOL    HW1 9207   7.279   1.188   5.877 -0.0551  0.4294 -0.2012
34629SOL    HW2 9208   7.229   1.248   6.007  0.5009  0.7886 -0.1524
34630SOL     OW 9209   2.451   6.676   6.171 -0.2497  0.5141 -0.0473
34630SOL    HW1 9210   2.385   6.736   6.207 -0.0670  0.4105  0.4743
34630SOL    HW2 9211   2.534   6.709   6.206 -0.3363 -1.3118  2.0915
34631SOL     OW 9212   3.808   8.508   7.007 -0.3385 -0.3175  0.8385
34631SOL    HW1 9213   3.823   8.442   7.074 -0.4499 -0.8200  0.3703
34631SOL    HW2 9214   3.886   8.504   6.952 -0.6582 -0.5457  0.4026
34632SOL     OW 9215  11.084   0.358   7.648 -0.5778  0.6700 -0.0199
34632SOL    HW1 9216  11.014   0.382   7.587 -0.9852 -0.4773 -0.0235
34632SOL    HW2 9217  11.158   0.335   7.592 -0.2270  1.7522 -0.0194
34633SOL     OW 9218   3.879   4.052  10.181  0.8627 -0.2454 -0.5006
34633SOL    HW1 9219   3.938   4.018  10.248  0.1172  2.1479  1.5424
34633SOL    HW2 9220   3.910   4.141  10.165 -0.2483 -0.0599 -1.7882
34634SOL     OW 9221   3.196   9.612  10.772 -0.1872 -0.0929  0.6363
34634SOL    HW1 9222   3.158   9.629  10.685  0.5998 -0.8192  0.1332
34634SOL    HW2 9223   3.168   9.687  10.825 -0.5078  0.4716 -0.2951
34635SOL     OW 9224   8.742   0.064   8.480  0.2764 -0.2728  0.3323
34635SOL    HW1 9225   8.813   0.064   8.544 -0.0436  0.9296  0.7158
34635SOL    HW2 9226   8.689   0.140   8.502 -1.8183 -1.7512  0.7860
34636SOL     OW 9227   9.327   5.068  10.692 -0.1726 -0.3803 -0.1769
34636SOL    HW1 9228   9.301   5.159  10.709  0.0834  0.1618 -2.3748
34636SOL    HW2 9229   9.387   5.074  10.618  0.1171 -2.3388 -0.1453
34637SOL     OW 9230   3.703   2.435   9.836 -0.4734  0.2013  0.1993
34637SOL    HW1 9231   3.644   2.372   9.879 -0.1583 -0.4971 -0.3768
34637SOL    HW2 9232   3.785   2.427   9.884 -1.3392  2.6294  2.3446
34638SOL     OW 9233   2.302   6.027   2.659  0.0306 -0.3483  0.1089
34638SOL    HW1 9234   2.219   6.035   2.612 -1.2679 -3.5627  1.5877
34638SOL    HW2 9235   2.277   6.012   2.750  2.2644 -1.0202  0.6737
34639SOL     OW 9236  10.672   4.187  10.780 -0.1977 -0.0532 -0.1523
34639SOL    HW1 9237  10.685   4.195  10.686  2.7283 -0.7103  0.0920
34639SOL    HW2 9238  10.706   4.268  10.817  3.5170 -1.7399  0.5470
34640SOL     OW 9239  11.514   8.691   9.503  0.4964 -0.3670  0.3669
34640SOL    HW1 9240  11.505   8.760   9.569 -2.1594 -1.7214  1.5897
34640SOL    HW2 9241  11.533   8.612   9.553 -0.2374 -1.1879 -0.6003
34641SOL     OW 9242   0.224   2.124   0.186  0.2837  0.4283  0.0407
34641SOL    HW1 9243   0.193   2.036   0.164  0.8979  0.2241 -0.0216
34641SOL    HW2 9244   0.278   2.112   0.264  1.3391  0.5725 -0.6538
34642SOL     OW 9245   1.283   9.391   7.140 -0.8013 -0.1879 -0.0995
34642SOL    HW1 9246   1.252   9.434   7.219 -0.8244 -0.8701  0.2751
34642SOL    HW2 9247   1.329   9.313   7.172 -0.8755 -0.5128 -0.7596
34643SOL     OW 9248   4.175   7.873   9.981  0.3880 -0.2700  0.3213
34643SOL    HW1 9249   4.106   7.872   9.914  0.4143  0.3131  0.2833
34643SOL    HW2 9250   4.135   7.831  10.057  0.3022 -0.7872 -0.0051
34644SOL     OW 9251   5.141   2.280   3.426 -0.2793  0.6692  0.3174
34644SOL    HW1 9252   5.218   2.283   3.483 -0.1110 -0.5248  0.1861
34644SOL    HW2 9253   5.149   2.196   3.380 -2.0375  0.1838  0.8315
34645SOL     OW 9254  11.718   0.456  11.025 -0.2472  0.0591 -0.4678
34645SOL    HW1 9255  11.786   0.433  11.088  0.3931 -1.0041 -1.5002
34645SOL    HW2 9256  11.748   0.539  10.987 -0.5025  0.5650  0.4146
34646SOL     OW 9257   7.260  11.643   1.404  0.2350  0.2508  0.4833
34646SOL    HW1 9258   7.191  11.669   1.465 -0.8192 -1.3850  0.0653
34646SOL    HW2 9259   7.282  11.723   1.357 -0.7686  0.9922  1.2170
34647SOL     OW 9260   9.903  10.152  10.408  0.3719  0.6392  0.8072
34647SOL    HW1 9261   9.901  10.058  10.420  0.1111  0.6415  0.7849
34647SOL    HW2 9262   9.985  10.180  10.449  1.2390  0.2099 -0.5560
34648SOL     OW 9263   1.161   0.563   2.681 -0.7898 -0.2732 -0.1221
34648SOL    HW1 9264   1.220   0.548   2.756 -0.1624  0.3178 -0.4901
34648SOL    HW2 9265   1.149   0.658   2.679  0.6823 -0.0732 -1.8602
34649SOL     OW 9266   5.118  10.561   8.761 -0.1245  0.3546 -0.0730
34649SOL    HW1 9267   5.177  10.560   8.686 -1.0624  2.0981 -0.8923
34649SOL    HW2 9268   5.058  10.487   8.745 -1.6975  1.9702 -2.2810
34650SOL     OW 9269   8.354   1.868  11.463 -0.5157 -0.2710  0.5863
34650SOL    HW1 9270   8.394   1.819  11.391 -1.0047 -0.2093  0.2740
34650SOL    HW2 9271   8.263   1.880  11.437 -2.1392 -4.5000  3.3263
34651SOL     OW 9272   7.680  10.593  10.590  0.1325 -0.1811  0.4323
34651SOL    HW1 9273   7.606  10.534  10.582 -0.9110  1.2720 -1.4735
34651SOL    HW2 9274   7.740  10.567  10.519 -0.4819  1.1695 -0.6261
34652SOL     OW 9275   4.602  11.214  10.794  0.2087 -0.0451  0.0086
34652SOL    HW1 9276   4.646  11.298  10.784 -0.1686  0.1578  0.0718
34652SOL    HW2 9277   4.546  11.206  10.718  0.5898 -0.4555 -0.2397
34653SOL     OW 9278   1.592   0.381   8.839 -0.4864 -0.5414  0.0194
34653SOL    HW1 9279   1.522   0.318   8.854  0.9865 -2.2205  0.1567
34653SOL    HW2 9280   1.635   0.351   8.759 -0.7106  1.2412 -0.8183
34654SOL     OW 9281   4.753   5.351   7.334 -0.0179  0.5061  0.4653
34654SOL    HW1 9282   4.734   5.363   7.241  0.9740 -2.4298 -0.2406
34654SOL    HW2 9283   4.676   5.305   7.368  0.3876 -0.0587  0.6336
34655SOL     OW 9284   6.130   1.550   9.910 -0.4007  0.3913  0.1610
34655SOL    HW1 9285   6.135   1.455   9.925 -1.0565  0.3424  0.1025
34655SOL    HW2 9286   6.131   1.559   9.815  0.4271  0.4965  0.1721
34656SOL     OW 9287   8.795   4.219   7.183  0.3564 -0.3842 -0.0529
34656SOL    HW1 9288   8.870   4.186   7.233 -0.0512  1.6888  2.1257
34656SOL    HW2 9289   8.723   4.220   7.246 -0.8339  0.0843 -1.3724
34657SOL     OW 9290   7.424  10.824   5.223 -0.3880 -0.0022 -0.3072
34657SOL    HW1 9291   7.439  10.729   5.227 -0.0005 -0.1474 -3.1939
34657SOL    HW2 9292   7.506  10.860   5.189 -0.7459  1.3283  0.1673
34658SOL     OW 9293   5.072   6.474   1.499 -0.3768  0.4015 -0.4671
34658SOL    HW1 9294   5.099   6.547   1.555 -0.5932  0.1647 -0.0463
34658SOL    HW2 9295   4.999   6.507   1.448 -0.8353  0.3147  0.1242
34659SOL     OW 9296   6.497   5.636   6.065 -0.3042  0.3378  0.4246
34659SOL    HW1 9297   6.498   5.555   6.015  1.2210  0.7618 -0.2785
34659SOL    HW2 9298   6.472   5.704   6.002 -2.5203  0.3355  1.2153
34660SOL     OW 9299   5.528   3.250   0.508 -0.2844 -0.1983  0.0560
34660SOL    HW1 9300   5.616   3.282   0.524  0.3155 -2.2950  1.4081
34660SOL    HW2 9301   5.539   3.155   0.497 -2.0646 -0.2172 -2.5016
34661SOL     OW 9302   6.840   4.056   3.013 -0.0748 -0.2502 -0.0461
34661SOL    HW1 9303   6.858   4.091   3.101  0.5005 -1.2099  0.2278
34661SOL    HW2 9304   6.870   3.965   3.017  0.6103 -0.1106 -1.4431
34662SOL     OW 9305  11.126   3.318   7.952  0.5997  0.4178  0.0280
34662SOL    HW1 9306  11.200   3.367   7.917 -0.2954  0.0139 -2.7044
34662SOL    HW2 9307  11.051   3.376   7.941  0.1220 -0.1370  0.3223
34663SOL     OW 9308   1.449   8.382   6.346  0.4906  0.2096 -0.3740
34663SOL    HW1 9309   1.469   8.324   6.272 -2.8403 -0.3566 -1.0014
34663SOL    HW2 9310   1.440   8.469   6.306  1.2855  0.3835 -0.1748
34664SOL     OW 9311   3.739   7.675   6.944  0.6940  0.0584  1.0241
34664SOL    HW1 9312   3.830   7.664   6.916 -0.0628 -0.6279 -1.3393
34664SOL    HW2 9313   3.735   7.766   6.974  1.8213  0.5875 -0.2933
34665SOL     OW 9314   5.402   6.841   2.607  0.1805  0.5090  0.3750
34665SOL    HW1 9315   5.443   6.757   2.589 -0.3748  0.4815 -0.8787
34665SOL    HW2 9316   5.315   6.819   2.639 -0.6751  0.5593 -1.7233
34666SOL     OW 9317  10.431   3.164   5.592  0.3416  0.4394 -1.3492
34666SOL    HW1 9318  10.474   3.243   5.559  1.2205 -0.2123 -1.8322
34666SOL    HW2 9319  10.399   3.119   5.514 -1.1344  0.8373 -1.0031
34667SOL     OW 9320   2.198  10.678   8.459 -0.5783  0.5792  0.5797
34667SOL    HW1 9321   2.141  10.683   8.382 -0.5899  0.3443  0.5703
34667SOL    HW2 9322   2.200  10.585   8.481  1.2498  0.3143 -0.5116
34668SOL     OW 9323   8.109   6.633  11.588 -0.1435 -0.5771  0.2806
34668SOL    HW1 9324   8.202   6.624  11.607 -0.3976 -2.1450  1.0104
34668SOL    HW2 9325   8.096   6.726  11.570  1.8171 -0.5559 -1.3483
34669SOL     OW 9326   9.149   7.555   2.336  0.1779 -0.1899  0.2272
34669SOL    HW1 9327   9.195   7.616   2.279  0.3442 -0.8524 -0.3682
34669SOL    HW2 9328   9.090   7.610   2.388  0.0789  0.4388 -0.5295
34670SOL     OW 9329   5.885  11.176  10.704 -0.3680 -0.8908 -0.0304
34670SOL    HW1 9330   5.842  11.201  10.785 -2.4812 -4.3404  0.0983
34670SOL    HW2 9331   5.817  11.133  10.652  1.4180 -0.7112 -2.7665
34671SOL     OW 9332   8.322   3.945   9.498  0.1155 -0.6246 -0.3620
34671SOL    HW1 9333   8.400   3.963   9.550  0.2494  0.1226 -0.8040
34671SOL    HW2 9334   8.356   3.913   9.415  0.1576  2.4813 -1.7044
34672SOL     OW 9335   8.279   4.463   6.734  0.2719 -0.5551  0.1465
34672SOL    HW1 9336   8.232   4.526   6.789 -0.1879 -1.1608  0.4656
34672SOL    HW2 9337   8.357   4.442   6.785  1.9893  1.9822 -1.2778
34673SOL     OW 9338   8.103   6.336   0.403 -0.3829 -0.2918  0.2465
34673SOL    HW1 9339   8.024   6.319   0.352 -0.5154  2.1360 -0.4680
34673SOL    HW2 9340   8.152   6.254   0.399 -1.1088 -0.7001 -2.4765
34674SOL     OW 9341   9.455   8.909  11.283  0.2080  0.6812 -0.1251
34674SOL    HW1 9342   9.488   8.955  11.360 -0.4221  1.7499 -0.4763
34674SOL    HW2 9343   9.389   8.849  11.317  0.9921  0.0452  0.3297
34675SOL     OW 9344  10.253   9.475   7.749  0.1965  0.0185  0.2230
34675SOL    HW1 9345  10.232   9.382   7.753 -0.8819  0.2953  3.0456
34675SOL    HW2 9346  10.171   9.520   7.770  1.0430  1.5676  0.4149
34676SOL     OW 9347  10.909   8.672   9.092 -0.2420  0.1729  0.4360
34676SOL    HW1 9348  10.846   8.654   9.161 -1.7947  1.2754 -0.6268
34676SOL    HW2 9349  10.856   8.706   9.019  1.1070 -2.1679 -1.8192
34677SOL     OW 9350   5.152   6.060   1.779 -0.3850 -0.1565 -0.3168
34677SOL    HW1 9351   5.140   6.118   1.703  0.9148 -0.6473 -0.9079
34677SOL    HW2 9352   5.072   6.007   1.781  0.3146 -1.4179 -2.4842
34678SOL     OW 9353   7.971  11.373  10.397  0.3646  0.0812 -0.2278
34678SOL    HW1 9354   7.967  11.396  10.490 -1.4779  0.0268 -0.2567
34678SOL    HW2 9355   8.053  11.325  10.388 -0.7533 -2.5244  2.0228
34679SOL     OW 9356   5.988   3.054   8.186  0.3485  0.0019 -0.5629
34679SOL    HW1 9357   6.001   3.012   8.100  2.2905  0.1788 -0.3941
34679SOL    HW2 9358   5.945   2.987   8.239 -1.3042  0.0436 -1.7891
34680SOL     OW 9359   7.689  10.760   9.323 -0.2803 -0.5532 -0.0195
34680SOL    HW1 9360   7.642  10.787   9.244  2.6137 -0.2071 -1.7640
34680SOL    HW2 9361   7.684  10.665   9.323 -0.8944 -0.5200 -0.2223
34681SOL     OW 9362   1.092   1.827   8.973 -0.5065  0.0034  0.3801
34681SOL    HW1 9363   1.033   1.816   8.898 -0.3287  0.0591  0.2325
34681SOL    HW2 9364   1.144   1.747   8.976 -2.1751 -1.1114  1.9218
34682SOL     OW 9365   3.554   2.445   4.477  0.4411  0.1616 -0.0430
34682SOL    HW1 9366   3.574   2.356   4.448  0.7066  0.8748 -2.2246
34682SOL    HW2 9367   3.460   2.456   4.462  0.6254  0.6160 -1.0048
34683SOL     OW 9368   0.803   9.645   7.689 -0.1353 -0.2106  0.0620
34683SOL    HW1 9369   0.879   9.608   7.734 -0.9085 -1.7141  0.1815
34683SOL    HW2 9370   0.800   9.599   7.605 -0.5209  0.3282 -0.2254
34684SOL     OW 9371   4.767  10.648   0.708 -0.3192 -0.1281  0.0684
34684SOL    HW1 9372   4.834  10.631   0.774 -0.1718  0.5983  0.1183
34684SOL    HW2 9373   4.761  10.567   0.657  0.4117 -0.2848  0.2294
34685SOL     OW 9374   9.116   7.108   9.514  0.5840 -0.1988 -0.6761
34685SOL    HW1 9375   9.188   7.049   9.491  0.7080 -0.7772  1.0672
34685SOL    HW2 9376   9.037   7.055   9.500  0.6079 -0.2508 -0.6153
34686SOL     OW 9377   4.792  10.936   4.864  0.1707  0.0709 -0.1806
34686SOL    HW1 9378   4.717  10.897   4.820  0.0162  1.5676 -1.3489
34686SOL    HW2 9379   4.867  10.888   4.830 -0.0444  0.4672 -1.2677
34687SOL     OW 9380   1.585   2.432   5.990 -0.2325  0.1800  0.1155
34687SOL    HW1 9381   1.561   2.373   5.918 -0.7453  0.4416  0.0681
34687SOL    HW2 9382   1.621   2.509   5.946  1.5100 -0.5378  0.2039
34688SOL     OW 9383   0.953   6.817   5.518 -0.0393 -0.2007 -0.1307
34688SOL    HW1 9384   0.974   6.876   5.445 -1.2083  0.9179  0.3903
34688SOL    HW2 9385   0.902   6.747   5.478 -1.6998  1.0266 -0.2567
34689SOL     OW 9386   1.707   3.809   4.635  0.1758 -0.0335  0.8452
34689SOL    HW1 9387   1.791   3.811   4.588 -0.4798 -3.4362 -0.8034
34689SOL    HW2 9388   1.730   3.774   4.722  0.5388 -0.5218  0.5605
34690SOL     OW 9389   6.571   5.585   5.627 -0.8270 -0.2694 -0.7442
34690SOL    HW1 9390   6.478   5.577   5.606 -1.5457 -2.4299  2.5185
34690SOL    HW2 9391   6.611   5.621   5.547 -4.3378  0.3394 -2.4077
34691SOL     OW 9392   1.136   0.313   6.798  0.9871 -0.8458  0.1821
34691SOL    HW1 9393   1.173   0.393   6.762 -0.5389 -0.1236  0.1310
34691SOL    HW2 9394   1.065   0.344   6.856 -1.2696 -2.1786 -1.7108
34692SOL     OW 9395   1.166   5.155   0.377  0.1975 -0.3532 -0.3365
34692SOL    HW1 9396   1.225   5.081   0.391  1.2720  0.3835 -0.7576
34692SOL    HW2 9397   1.135   5.144   0.287  0.6259 -0.1299 -0.5180
34693SOL     OW 9398   6.419   7.785   7.822  0.6068 -0.3660  0.5074
34693SOL    HW1 9399   6.445   7.785   7.914  1.0093 -0.9229  0.3966
34693SOL    HW2 9400   6.327   7.811   7.824  1.0970  1.4657  0.9114
34694SOL     OW 9401   4.693   1.929   7.521 -0.0504  0.2036 -0.3002
34694SOL    HW1 9402   4.696   2.005   7.579  1.9064 -0.2093  0.2035
34694SOL    HW2 9403   4.677   1.855   7.580  1.0672 -0.1151 -0.3858
34695SOL     OW 9404   8.648   7.937   6.478 -0.2746  0.1556  0.0494
34695SOL    HW1 9405   8.721   7.914   6.536 -1.1480  0.1669  1.2018
34695SOL    HW2 9406   8.686   7.936   6.390  1.5351  1.8807  0.7366
34696SOL     OW 9407   8.504  10.988   5.468  0.1522  0.4392  0.1973
34696SOL    HW1 9408   8.425  11.025   5.508 -0.2176 -0.2729  0.1426
34696SOL    HW2 9409   8.541  10.933   5.537 -0.8782 -1.3674 -0.6357
34697SOL     OW 9410  10.646   9.054   6.528  0.6766 -0.3240 -0.5126
34697SOL    HW1 9411  10.685   8.967   6.525  2.3106  0.2159  1.9404
34697SOL    HW2 9412  10.705   9.108   6.475  2.1982  0.0790  1.5009
34698SOL     OW 9413   6.021  10.552   2.223 -0.5061  0.4683 -0.3825
34698SOL    HW1 9414   5.995  10.640   2.250 -0.1370  0.5941 -0.4326
34698SOL    HW2 9415   6.015  10.500   2.302  2.8819  1.3326  0.5781
34699SOL     OW 9416   2.916   5.395   5.982 -0.2496  0.2308  0.1016
34699SOL    HW1 9417   2.841   5.405   6.041 -0.9441  0.0180 -0.7215
34699SOL    HW2 9418   2.993   5.409   6.038 -0.8124 -1.5957  1.4340
34700SOL     OW 9419   8.067   2.895   8.221  0.4887  0.1324 -0.0395
34700SOL    HW1 9420   8.097   2.857   8.139 -0.9695 -0.4190 -0.3450
34700SOL    HW2 9421   8.113   2.845   8.289  1.1380  0.0983 -0.4876
34701SOL     OW 9422   8.724   0.802   8.537 -0.0498  0.1239  0.5440
34701SOL    HW1 9423   8.763   0.756   8.612 -1.7846 -2.1068  0.2104
34701SOL    HW2 9424   8.795   0.808   8.473  0.5382 -1.1872  1.0313
34702SOL     OW 9425   4.057   5.084   9.898 -0.0989 -0.1843  0.8017
34702SOL    HW1 9426   3.999   5.023   9.852 -0.3187 -0.3971  1.3530
34702SOL    HW2 9427   4.140   5.078   9.851 -0.2967 -0.4473  0.4766
34703SOL     OW 9428  10.441   3.161  10.161 -0.4718  0.0614  0.0199
34703SOL    HW1 9429  10.467   3.249  10.135 -0.4943  0.0752  0.0437
34703SOL    HW2 9430  10.423   3.116  10.079 -0.3455  0.0428  0.0026
34704SOL     OW 9431   7.528   2.631   8.125  0.7810 -0.2767  0.6670
34704SOL    HW1 9432   7.547   2.641   8.031 -1.1793  0.1842  0.2827
34704SOL    HW2 9433   7.496   2.716   8.153 -0.1828 -0.8535  1.3690
34705SOL     OW 9434   7.912   9.032  10.323  0.2471 -0.0615  0.4239
34705SOL    HW1 9435   7.926   9.075  10.239  1.3472  0.7619  0.9946
34705SOL    HW2 9436   7.930   8.940  10.306 -0.1274  0.0027 -0.3730
34706SOL     OW 9437   7.131   3.715   3.237  0.2397 -0.1380 -0.6073
34706SOL    HW1 9438   7.048   3.746   3.201 -0.1271  1.1211  1.1540
34706SOL    HW2 9439   7.193   3.786   3.219 -0.1745  0.9921  1.8698
34707SOL     OW 9440   5.788   3.333   0.564 -0.1632  0.8183  0.6432
34707SOL    HW1 9441   5.842   3.396   0.610  0.4646  1.0676 -0.4118
34707SOL    HW2 9442   5.831   3.248   0.579  1.0691  1.1227 -0.9187
34708SOL     OW 9443   0.490   7.911   6.916  0.6368 -0.2734  0.2356
34708SOL    HW1 9444   0.430   7.842   6.890  0.0534 -0.3897  1.7495
34708SOL    HW2 9445   0.577   7.879   6.892  0.4863 -2.0255  1.7780
34709SOL     OW 9446   3.256   0.565   9.215  0.8940  0.5145  0.0446
34709SOL    HW1 9447   3.349   0.577   9.233  0.9496  0.3407 -0.1401
34709SOL    HW2 9448   3.231   0.488   9.266  1.0615 -0.0069 -0.6566
34710SOL     OW 9449  10.876   2.484  10.715  0.9568 -0.0445 -0.4134
34710SOL    HW1 9450  10.857   2.573  10.684  2.0199  0.4713  0.3285
34710SOL    HW2 9451  10.915   2.440  10.639  0.6839  0.2161 -0.7050
34711SOL     OW 9452  10.831   7.751   9.064  0.3292 -0.2008  0.3596
34711SOL    HW1 9453  10.828   7.685   8.994 -0.2241  0.5039 -0.2951
34711SOL    HW2 9454  10.742   7.751   9.100  0.5654 -0.4327  0.9601
34712SOL     OW 9455   7.784   2.691   3.179  0.2315  0.5856 -0.1382
34712SOL    HW1 9456   7.792   2.606   3.137  0.5634  0.4901  0.1103
34712SOL    HW2 9457   7.731   2.743   3.119 -0.8839 -0.1201  0.2072
34713SOL     OW 9458   1.669  11.023   1.952 -0.0933 -0.1974  0.5073
34713SOL    HW1 9459   1.591  11.077   1.952 -0.1240 -0.2424 -0.0855
34713SOL    HW2 9460   1.742  11.085   1.946  0.0136 -0.0410  2.5149
34714SOL     OW 9461   0.071   6.881   7.743 -0.1449 -0.2362 -0.1676
34714SOL    HW1 9462   0.081   6.893   7.837  0.5265  0.8544 -0.3659
34714SOL    HW2 9463   0.068   6.786   7.731  1.9446 -0.4620  0.7349
34715SOL     OW 9464   6.102   0.905  10.217  0.2678 -0.0307  0.4927
34715SOL    HW1 9465   6.108   0.864  10.304 -2.2364 -1.1916  0.2259
34715SOL    HW2 9466   6.028   0.966  10.226  0.1242 -0.0059 -0.7525
34716SOL     OW 9467   8.064   0.032   4.173  0.7450 -0.1537  0.1024
34716SOL    HW1 9468   8.042   0.123   4.157  2.3500  0.2171 -0.1667
34716SOL    HW2 9469   8.071   0.026   4.269 -0.3093 -0.2494  0.1846
34717SOL     OW 9470   2.433   0.990   0.510 -0.0969 -0.2146  0.0510
34717SOL    HW1 9471   2.472   0.981   0.423  1.8545 -0.9804  0.9400
34717SOL    HW2 9472   2.368   0.919   0.514 -0.5783  0.1539 -0.9459
34718SOL     OW 9473   7.187   9.844   3.033  0.0725  0.6546 -0.5182
34718SOL    HW1 9474   7.202   9.898   3.110 -1.1125 -0.1219  0.2906
34718SOL    HW2 9475   7.232   9.761   3.053 -0.5853  0.3030 -0.4684
34719SOL     OW 9476   2.647   4.145   0.333  0.3988  0.2886 -0.3921
34719SOL    HW1 9477   2.662   4.052   0.316 -0.1238  0.2172 -0.4923
34719SOL    HW2 9478   2.707   4.190   0.274  0.7327  0.0138 -0.2635
34720SOL     OW 9479   0.444   7.561   8.133  0.4111 -0.1971  0.1411
34720SOL    HW1 9480   0.353   7.545   8.108  0.2320  1.7205 -0.6190
34720SOL    HW2 9481   0.494   7.492   8.087 -0.5951 -0.9776  0.1881
34721SOL     OW 9482   6.548   6.106   4.333  0.0654  0.1504  0.0173
34721SOL    HW1 9483   6.556   6.066   4.247 -0.9780  0.8726 -0.4424
34721SOL    HW2 9484   6.622   6.167   4.338 -0.2297  0.5776 -0.6455
34722SOL     OW 9485   1.994   7.183   2.168  0.2371  0.0973 -0.5526
34722SOL    HW1 9486   1.899   7.186   2.157  0.1897  1.0036  0.0250
34722SOL    HW2 9487   2.009   7.108   2.225 -0.4501  1.8440  2.1002
34723SOL     OW 9488   9.231   7.587   1.544  0.5723  0.0958  0.2617
34723SOL    HW1 9489   9.192   7.573   1.630 -1.4544  0.5766 -0.5006
34723SOL    HW2 9490   9.221   7.503   1.499 -0.2132  0.3864 -0.1394
34724SOL     OW 9491   4.028   9.205   5.112 -0.1669  0.0201  0.5244
34724SOL    HW1 9492   4.021   9.188   5.206  2.2068  1.8740  1.1470
34724SOL    HW2 9493   4.016   9.300   5.105  1.4911  0.1762 -0.7588
34725SOL     OW 9494   3.938  10.543   6.269  0.1344  0.2622 -0.1744
34725SOL    HW1 9495   3.983  10.621   6.301 -0.3616  0.5095 -0.0692
34725SOL    HW2 9496   3.846  10.557   6.292 -0.2852  0.5575 -1.8675
34726SOL     OW 9497  10.478   1.626   9.019  0.1086 -0.3122  0.4507
34726SOL    HW1 9498  10.497   1.716   9.045  0.1940 -0.7659  2.1043
34726SOL    HW2 9499  10.438   1.634   8.933  3.3182  1.0588 -1.1107
34727SOL     OW 9500   7.465   2.648   4.263 -0.2292  0.6865 -0.0832
34727SOL    HW1 9501   7.511   2.732   4.258 -1.0613  1.0883 -1.8732
34727SOL    HW2 9502   7.530   2.584   4.233 -0.0116  0.8856 -0.0463
34728SOL     OW 9503  10.696   2.743   3.968  0.2857  0.1925 -0.0332
34728SOL    HW1 9504  10.601   2.731   3.963  0.2588  0.8816 -1.5308
34728SOL    HW2 9505  10.714   2.749   4.062 -1.0910 -0.3611  0.2961
34729SOL     OW 9506  10.812   5.704   3.314  0.7102 -0.2795  0.9044
34729SOL    HW1 9507  10.798   5.716   3.220 -0.3042  0.3028  1.1086
34729SOL    HW2 9508  10.903   5.730   3.329  0.2649  1.7402  0.3978
34730SOL     OW 9509   8.993   1.702   0.217 -0.4365  0.1280  0.5616
34730SOL    HW1 9510   9.087   1.705   0.235 -0.1602 -1.0324 -0.5177
34730SOL    HW2 9511   8.962   1.623   0.260 -0.9050  0.4413  0.8144
34731SOL     OW 9512   1.940   4.534   6.854  0.0449 -0.2397 -0.3348
34731SOL    HW1 9513   1.869   4.598   6.848 -0.8431 -1.1866 -0.1606
34731SOL    HW2 9514   2.012   4.581   6.897 -0.2329  0.9270 -1.1072
34732SOL     OW 9515   7.641   3.893   7.162 -0.5237 -0.2259  0.1042
34732SOL    HW1 9516   7.569   3.831   7.148 -0.4519 -0.2355 -0.2239
34732SOL    HW2 9517   7.713   3.839   7.195  0.8487 -1.0701 -3.7333
34733SOL     OW 9518   5.048   0.084   7.916  0.9367 -0.2241  0.6012
34733SOL    HW1 9519   5.078   0.017   7.977  2.2753 -1.3975 -1.2502
34733SOL    HW2 9520   5.080   0.055   7.830 -2.8562  0.0734 -1.1123
34734SOL     OW 9521   2.432   0.027   7.726 -0.2823 -1.0249  0.2185
34734SOL    HW1 9522   2.443   0.055   7.635  0.2317  1.6263  0.9959
34734SOL    HW2 9523   2.351   0.070   7.754  1.0382  0.5967  1.7776
34735SOL     OW 9524   3.466   9.701   0.563  0.1728  0.2480  0.1006
34735SOL    HW1 9525   3.426   9.668   0.643 -0.6406  0.4801 -0.1919
34735SOL    HW2 9526   3.465   9.797   0.573 -0.1146  0.2866 -0.2623
34736SOL     OW 9527   5.577   6.445   3.995  0.5978 -0.1264 -0.0826
34736SOL    HW1 9528   5.516   6.509   4.032  0.3203  0.4831 -1.5033
34736SOL    HW2 9529   5.632   6.419   4.069 -1.6681 -1.1050  1.3919
34737SOL     OW 9530   4.007   5.123   7.212 -0.2349  0.4985  0.3101
34737SOL    HW1 9531   4.047   5.053   7.263  0.0221  0.2953 -0.1725
34737SOL    HW2 9532   3.957   5.078   7.144  0.7738  0.7937 -0.6479
34738SOL     OW 9533   6.983   9.472  11.395 -0.7593 -0.2474  0.5364
34738SOL    HW1 9534   6.964   9.494  11.304  1.4134  1.4495  0.4163
34738SOL    HW2 9535   6.902   9.432  11.427 -1.5991 -0.8637 -2.0939
34739SOL     OW 9536   1.185   4.255   8.293  0.1393 -0.2741  0.1127
34739SOL    HW1 9537   1.236   4.314   8.348  2.9174 -2.3500 -0.0087
34739SOL    HW2 9538   1.095   4.264   8.324  0.6281  2.9133  0.9702
34740SOL     OW 9539  11.617   2.051   9.671  0.0854  0.6147  0.1136
34740SOL    HW1 9540  11.679   2.086   9.608  0.2435 -0.3312 -0.2830
34740SOL    HW2 9541  11.569   2.127   9.703  0.6506  1.2195 -0.4389
34741SOL     OW 9542   1.001   3.281   7.659  0.4333 -0.3605  0.1223
34741SOL    HW1 9543   0.923   3.313   7.704  0.9102 -0.0120  0.7060
34741SOL    HW2 9544   0.968   3.210   7.602 -0.8291  1.7171 -1.9342
34742SOL     OW 9545   9.928  10.410   1.531  0.0116  0.0865 -0.6133
34742SOL    HW1 9546   9.986  10.430   1.458 -0.3777  1.1414 -0.6557
34742SOL    HW2 9547   9.947  10.319   1.553  1.8816  0.4732 -0.4383
34743SOL     OW 9548   6.832   3.432   7.752  0.5977 -0.3254  0.0109
34743SOL    HW1 9549   6.862   3.520   7.775 -1.5847  0.0699  1.7276
34743SOL    HW2 9550   6.763   3.447   7.687 -0.3932 -0.6338  0.9524
34744SOL     OW 9551   2.173   6.402   6.922  0.1175  0.2246 -0.0228
34744SOL    HW1 9552   2.218   6.404   7.007 -0.8514 -0.3656  0.5153
34744SOL    HW2 9553   2.130   6.317   6.919  0.5274  0.0425 -1.3282
34745SOL     OW 9554   1.654   9.424   1.103  0.1528  0.0917  0.0028
34745SOL    HW1 9555   1.684   9.467   1.183 -1.3230  0.1533  0.5623
34745SOL    HW2 9556   1.690   9.477   1.032  1.4855  0.0383  0.5995
34746SOL     OW 9557   7.996  10.002   0.765 -0.4808  0.6628  0.2092
34746SOL    HW1 9558   8.049  10.067   0.720 -0.6298  0.8260  0.2698
34746SOL    HW2 9559   8.054   9.926   0.775 -0.9170  0.0346 -1.6405
34747SOL     OW 9560   1.138   1.874   1.223 -0.0749  0.4523  0.1414
34747SOL    HW1 9561   1.161   1.848   1.134 -3.1015  0.6780 -0.8201
34747SOL    HW2 9562   1.089   1.799   1.259  0.8368  0.4820  1.5277
34748SOL     OW 9563   9.075   8.443   1.707  0.2433  0.5697 -0.1326
34748SOL    HW1 9564   9.020   8.416   1.781  0.0435 -0.1336 -0.5323
34748SOL    HW2 9565   9.113   8.527   1.735  0.4329  0.1578  0.9045
34749SOL     OW 9566   7.132   5.586   2.661  0.4120 -0.1830 -0.0069
34749SOL    HW1 9567   7.041   5.560   2.648  0.9730 -1.4404 -1.8104
34749SOL    HW2 9568   7.146   5.581   2.756 -1.9039  1.9792  0.5542
34750SOL     OW 9569   1.030  11.485   7.673 -0.4363 -0.2553 -0.2395
34750SOL    HW1 9570   1.102  11.476   7.611 -0.7951 -0.6382 -0.5988
34750SOL    HW2 9571   1.000  11.396   7.689 -1.6000 -0.0115 -0.9868
34751SOL     OW 9572  11.362   2.378   4.821 -0.0964  0.1206  0.0722
34751SOL    HW1 9573  11.393   2.288   4.814  0.6116  0.2614  1.2232
34751SOL    HW2 9574  11.271   2.370   4.851 -1.2908 -0.2869 -3.2557
34752SOL     OW 9575   2.203   4.133   8.724 -0.2669  0.1975  0.1752
34752SOL    HW1 9576   2.270   4.103   8.663 -1.6318  0.4687 -1.5382
34752SOL    HW2 9577   2.185   4.057   8.780  1.1111 -0.0094  0.3633
34753SOL     OW 9578   6.577  10.736   0.857 -0.9140 -0.2659  0.8266
34753SOL    HW1 9579   6.564  10.700   0.944 -0.0330 -1.2552  0.5789
34753SOL    HW2 9580   6.609  10.662   0.805 -0.5669  0.5133 -0.1083
34754SOL     OW 9581   5.883   3.810   5.274 -0.1063  0.2658  0.2315
34754SOL    HW1 9582   5.818   3.745   5.302  0.6860 -0.2287  0.9618
34754SOL    HW2 9583   5.869   3.884   5.334 -1.6044  1.1730 -1.1614
34755SOL     OW 9584   8.996   2.300   2.156 -0.5458  0.3497  0.3206
34755SOL    HW1 9585   8.996   2.206   2.174  0.6353  0.1292 -0.7023
34755SOL    HW2 9586   9.067   2.335   2.210  0.2854  0.3259 -0.7165
34756SOL     OW 9587   8.456   2.749   4.271 -0.2794 -0.2397  0.1508
34756SOL    HW1 9588   8.466   2.705   4.187 -0.4534 -0.7789  0.4069
34756SOL    HW2 9589   8.365   2.776   4.273 -0.8746 -2.0890  1.0301
34757SOL     OW 9590   4.678   0.777   0.383 -0.2422  0.3394 -0.1765
34757SOL    HW1 9591   4.620   0.788   0.458  0.0972 -0.1988  0.1743
34757SOL    HW2 9592   4.696   0.683   0.380  0.9906  0.5461  0.0158
34758SOL     OW 9593   6.828   4.761   1.052  0.1292  0.4517  0.2706
34758SOL    HW1 9594   6.858   4.842   1.092 -1.3883  0.7442  0.8443
34758SOL    HW2 9595   6.897   4.697   1.073  0.1192  0.9688  1.9911
34759SOL     OW 9596   3.275   3.734   2.224 -0.0169 -0.1364  0.9963
34759SOL    HW1 9597   3.229   3.652   2.208  1.1897 -1.0373  1.9063
34759SOL    HW2 9598   3.241   3.764   2.308 -1.1867  0.8485  0.1955
34760SOL     OW 9599   8.954   9.941   2.116 -0.2018 -0.8705 -0.5510
34760SOL    HW1 9600   8.895   9.879   2.158 -1.1616 -0.9065 -1.9096
34760SOL    HW2 9601   8.897  10.003   2.071  0.7521 -0.8974 -1.8829
34761SOL     OW 9602   9.066   2.571   8.381  0.4537  0.0428 -0.3184
34761SOL    HW1 9603   9.106   2.485   8.391  1.2938  0.6888  2.8255
34761SOL    HW2 9604   9.140   2.631   8.372  0.1030  0.8541  1.8070
34762SOL     OW 9605  10.619   9.057   2.661  0.4445  0.4617 -0.1545
34762SOL    HW1 9606  10.618   8.979   2.606  2.2409 -1.0228  1.7215
34762SOL    HW2 9607  10.703   9.099   2.641  0.1643  1.0760 -0.0618
34763SOL     OW 9608   1.225   0.565   6.661  0.5093 -0.4514 -0.3768
34763SOL    HW1 9609   1.260   0.639   6.611 -1.1210  1.5737  1.3178
34763SOL    HW2 9610   1.298   0.539   6.718  0.7432  0.6941 -0.1189
34764SOL     OW 9611   3.605   9.520   9.122 -0.2954  0.3071  0.4753
34764SOL    HW1 9612   3.661   9.570   9.063  0.3921 -0.0870  0.7847
34764SOL    HW2 9613   3.664   9.483   9.187 -0.6265 -1.6707 -0.2555
34765SOL     OW 9614   4.719  10.559   3.397 -0.1712  0.0786  0.0574
34765SOL    HW1 9615   4.696  10.648   3.425  1.7847  0.0469  1.9993
34765SOL    HW2 9616   4.701  10.505   3.474 -1.0360 -1.2056 -1.0028
34766SOL     OW 9617  10.152   2.733   8.229  0.1100 -0.7788 -0.1334
34766SOL    HW1 9618  10.091   2.676   8.184 -0.5723 -1.3556  1.4655
34766SOL    HW2 9619  10.097   2.791   8.281  0.8876 -1.4163  1.4698
34767SOL     OW 9620  10.450   7.825   0.256 -0.2485 -0.0101  0.0291
34767SOL    HW1 9621  10.533   7.819   0.303 -0.1595  0.7021 -0.0285
34767SOL    HW2 9622  10.473   7.865   0.172 -0.6921  0.4768  0.1334
34768SOL     OW 9623   6.980   7.573   8.208 -0.1832  0.2944 -0.1620
34768SOL    HW1 9624   6.898   7.593   8.164  0.1277 -1.2931 -1.5676
34768SOL    HW2 9625   6.955   7.523   8.285 -0.5155 -1.8817 -1.6005
34769SOL     OW 9626  10.670  11.186   0.562  0.4115  0.0021 -0.4281
34769SOL    HW1 9627  10.640  11.205   0.473 -0.2570  0.2685 -0.1538
34769SOL    HW2 9628  10.756  11.228   0.567  1.3720 -1.7231 -1.5873
34770SOL     OW 9629   2.656   6.806   9.655 -0.4216  0.5840  0.1893
34770SOL    HW1 9630   2.639   6.733   9.595  1.5577  0.5986 -0.4567
34770SOL    HW2 9631   2.657   6.884   9.600  0.5133  0.7076  0.3626
34771SOL     OW 9632   8.705   4.024   6.264  0.1243  0.3376  0.0951
34771SOL    HW1 9633   8.611   4.005   6.258  0.3776 -1.0165 -0.0181
34771SOL    HW2 9634   8.716   4.063   6.350 -0.2580 -1.5075  1.0342
34772SOL     OW 9635   3.973   9.484  11.037  0.2348 -0.0866  0.4014
34772SOL    HW1 9636   4.061   9.452  11.054  0.1968 -0.9210 -0.7815
34772SOL    HW2 9637   3.937   9.421  10.974 -1.8772 -0.8315  2.2107
34773SOL     OW 9638   2.667  11.169   6.675 -0.1645 -0.4449 -0.0857
34773SOL    HW1 9639   2.586  11.124   6.699  0.2858 -1.0081  0.3976
34773SOL    HW2 9640   2.733  11.133   6.734 -0.2160  2.5095  1.9485
34774SOL     OW 9641   7.018   1.492   8.566 -0.2261  0.2814 -0.6087
34774SOL    HW1 9642   7.025   1.509   8.660  0.6439 -2.5843 -0.0604
34774SOL    HW2 9643   7.067   1.562   8.525 -0.1793  1.2997  1.1054
34775SOL     OW 9644   7.162   6.150   8.240  0.8024  0.1672 -0.0065
34775SOL    HW1 9645   7.186   6.123   8.328 -2.3736 -1.9704  0.3856
34775SOL    HW2 9646   7.085   6.206   8.252 -0.3533 -1.0327 -1.4069
34776SOL     OW 9647   3.429   9.139   9.851 -0.1862  0.2319  0.0160
34776SOL    HW1 9648   3.335   9.150   9.836 -0.4259  0.6562  1.6001
34776SOL    HW2 9649   3.471   9.184   9.777 -1.2385  1.3055  0.0422
34777SOL     OW 9650   6.770   5.284  11.725 -0.6457  0.6048  0.4179
34777SOL    HW1 9651   6.723   5.201  11.730  2.6108 -1.5285 -0.7982
34777SOL    HW2 9652   6.807   5.297  11.813  0.2668 -0.2353  0.1782
34778SOL     OW 9653   4.534   5.962   6.471 -0.1343  0.0681  0.2399
34778SOL    HW1 9654   4.490   6.042   6.501  0.6950  0.5702  0.1668
34778SOL    HW2 9655   4.506   5.894   6.532 -0.4653  0.5263  0.6062
34779SOL     OW 9656  11.043   4.041   4.788 -0.7669  0.1439 -0.6343
34779SOL    HW1 9657  11.074   4.062   4.877  0.2678  0.7315 -1.1141
34779SOL    HW2 9658  10.995   3.959   4.799 -1.0342  0.4377  0.5423
34780SOL     OW 9659  10.362   4.557   5.101  0.4193  0.8753 -0.0528
34780SOL    HW1 9660  10.290   4.499   5.128  0.4001  1.6426  1.6695
34780SOL    HW2 9661  10.364   4.549   5.005 -1.3559  0.1353 -0.0757
34781SOL     OW 9662  10.457   9.669   5.497 -0.1663 -0.2433  0.5364
34781SOL    HW1 9663  10.497   9.602   5.443  1.4655  0.2889  1.0014
34781SOL    HW2 9664  10.517   9.678   5.572 -0.7192  1.1902  0.8499
34782SOL     OW 9665   4.042   7.058   4.436 -0.0297 -0.0688  0.5419
34782SOL    HW1 9666   4.134   7.037   4.423 -0.4853 -2.3189  0.5763
34782SOL    HW2 9667   4.002   7.049   4.349 -0.2359  1.0506  0.4930
34783SOL     OW 9668   3.586   1.515   7.659 -0.0783 -0.4917 -0.4521
34783SOL    HW1 9669   3.664   1.461   7.672 -0.0032 -0.4268 -0.6204
34783SOL    HW2 9670   3.535   1.505   7.739  0.6085  0.3114  0.0994
34784SOL     OW 9671   5.859   6.543   0.888 -0.3071  0.3808 -0.3407
34784SOL    HW1 9672   5.869   6.579   0.976  1.6298  3.0105 -1.5079
34784SOL    HW2 9673   5.946   6.512   0.864 -1.0599 -1.4066 -0.9692
34785SOL     OW 9674   1.510   3.846   9.528 -0.0525  0.2769  0.3037
34785SOL    HW1 9675   1.591   3.797   9.545  1.4448  2.2381 -0.8348
34785SOL    HW2 9676   1.461   3.840   9.610  2.0645  0.5297  1.6644
34786SOL     OW 9677   9.240   2.960   9.408 -0.2072 -0.1334  0.6371
34786SOL    HW1 9678   9.287   2.884   9.373 -0.0550 -0.0006  0.5504
34786SOL    HW2 9679   9.222   2.938   9.499  1.3475  0.4375  1.1028
34787SOL     OW 9680   2.596   0.926   8.207  0.2339 -0.1774  0.0643
34787SOL    HW1 9681   2.631   0.869   8.276  1.3740  0.9390  0.4522
34787SOL    HW2 9682   2.646   1.007   8.216 -0.6438  0.5204 -1.1295
34788SOL     OW 9683   6.242   5.766   8.640 -0.0338  0.1305  0.3289
34788SOL    HW1 9684   6.179   5.768   8.569 -1.1080 -0.5159  1.2420
34788SOL    HW2 9685   6.326   5.753   8.597 -0.6777 -0.4000 -0.8007
34789SOL     OW 9686   2.165   6.521   1.321  0.2873  0.1846  0.3184
34789SOL    HW1 9687   2.184   6.439   1.367  3.1513 -0.4537 -1.7222
34789SOL    HW2 9688   2.247   6.571   1.325 -0.4745  1.6450 -1.0043
34790SOL     OW 9689   5.106   0.788   9.503  0.3080 -0.1649 -0.3108
34790SOL    HW1 9690   5.032   0.803   9.563  0.9092 -0.8648  0.6412
34790SOL    HW2 9691   5.134   0.698   9.523  3.1506  0.9481  1.3259
34791SOL     OW 9692   4.946  10.888   7.205 -0.0434 -0.0675 -0.5386
34791SOL    HW1 9693   4.858  10.903   7.170 -0.1982  1.9338  0.5809
34791SOL    HW2 9694   4.942  10.800   7.243 -2.0208  0.5037  0.7341
34792SOL     OW 9695   0.369   8.343   2.655 -0.1082  0.2328  0.2105
34792SOL    HW1 9696   0.355   8.409   2.723  0.1427 -0.3524  0.8419
34792SOL    HW2 9697   0.463   8.326   2.657 -0.3026 -0.8679  0.7486
34793SOL     OW 9698   7.331   5.823   9.652 -0.8679  0.0138 -0.1658
34793SOL    HW1 9699   7.251   5.772   9.668 -1.0679 -0.0205 -1.1975
34793SOL    HW2 9700   7.396   5.784   9.709 -1.3234 -0.6579 -0.0959
34794SOL     OW 9701   2.124  10.827   0.448 -0.0197 -0.0032  0.3110
34794SOL    HW1 9702   2.115  10.732   0.453  0.4445 -0.0217  0.9894
34794SOL    HW2 9703   2.069  10.860   0.518 -0.3685  0.2419 -0.0797
34795SOL     OW 9704   1.519  10.443   4.796 -0.4832 -0.1388 -0.6733
34795SOL    HW1 9705   1.520  10.369   4.735 -0.6020 -1.0829  0.4430
34795SOL    HW2 9706   1.435  10.436   4.841 -0.5667  0.7854 -0.6658
34796SOL     OW 9707   8.373   7.478   4.500  0.0269  0.4045  0.1173
34796SOL    HW1 9708   8.445   7.442   4.550 -1.0440 -2.6285 -0.3401
34796SOL    HW2 9709   8.366   7.569   4.530  3.6248  0.6870  0.5270
34797SOL     OW 9710   5.320   6.329   5.843  0.0971  0.4592 -0.7956
34797SOL    HW1 9711   5.318   6.280   5.924  0.7275 -0.3595 -1.2643
34797SOL    HW2 9712   5.396   6.295   5.796 -0.8933  0.1130 -2.2209
34798SOL     OW 9713  11.794   0.098   5.355  0.4358  0.5540 -0.0530
34798SOL    HW1 9714  11.804   0.122   5.263 -0.0542 -0.4522 -0.3857
34798SOL    HW2 9715  11.699   0.101   5.371  0.5221  0.7953  0.4364
34799SOL     OW 9716  11.048  11.327   6.708  0.0230  0.6380 -0.4838
34799SOL    HW1 9717  11.131  11.332   6.660  0.9471  0.2690  1.0042
34799SOL    HW2 9718  11.028  11.233   6.711  1.7889  0.2312  2.6853
34800SOL     OW 9719   4.721   4.634   3.797  0.0534  0.3214 -0.0189
34800SOL    HW1 9720   4.815   4.651   3.805  0.0847 -0.1203  0.6162
34800SOL    HW2 9721   4.689   4.633   3.888 -0.3195 -0.9064 -0.1574
34801SOL     OW 9722   6.082   6.454   5.505 -0.9835  0.2168  0.5485
34801SOL    HW1 9723   6.025   6.512   5.455 -1.4022 -0.8509 -0.2517
34801SOL    HW2 9724   6.052   6.365   5.484  2.3597 -0.5703 -1.7695
34802SOL     OW 9725  10.083   3.196   8.406  0.2928  0.0922  0.1664
34802SOL    HW1 9726  10.105   3.107   8.380  2.0934  0.5885 -0.1498
34802SOL    HW2 9727   9.996   3.189   8.445 -0.2046 -1.5543 -1.1262
34803SOL     OW 9728   9.068   7.740   3.256  0.4058  0.4372 -0.2215
34803SOL    HW1 9729   9.146   7.688   3.239  0.3825 -0.0483  1.0779
34803SOL    HW2 9730   9.078   7.817   3.200  0.4882 -0.8673 -2.1276
34804SOL     OW 9731   9.696   0.089   1.782 -0.1847 -0.1971 -0.0021
34804SOL    HW1 9732   9.608   0.087   1.744 -1.3122  1.3678  2.2542
34804SOL    HW2 9733   9.692   0.027   1.855  0.8924 -0.7561 -0.3952
34805SOL     OW 9734  10.574   9.116   2.951  0.3972  0.1370 -0.2985
34805SOL    HW1 9735  10.661   9.075   2.960  0.1925  0.0282  1.4750
34805SOL    HW2 9736  10.559   9.118   2.856  1.8008 -0.9690 -0.5917
34806SOL     OW 9737   3.923   6.292   9.181  0.0228 -0.0165  0.1036
34806SOL    HW1 9738   3.881   6.359   9.127  1.4959  1.7301  1.0188
34806SOL    HW2 9739   4.013   6.286   9.147  0.6003  0.2044  1.5222
34807SOL     OW 9740   6.049  10.094   1.030  0.1454  0.7566  0.4388
34807SOL    HW1 9741   6.068  10.000   1.039 -0.7316  0.7931  4.4187
34807SOL    HW2 9742   6.027  10.105   0.937 -1.1341 -3.2743  0.0704
34808SOL     OW 9743   7.053   7.226   0.264 -0.0492  0.7129  0.1467
34808SOL    HW1 9744   7.116   7.265   0.204  0.6035  1.3926  1.2463
34808SOL    HW2 9745   6.968   7.239   0.221  0.2420  2.5223  0.0508
34809SOL     OW 9746   3.250   3.466   1.832 -0.2984 -0.5628  0.3990
34809SOL    HW1 9747   3.289   3.415   1.904 -0.7418  0.3066  1.2862
34809SOL    HW2 9748   3.280   3.555   1.848 -1.5674 -0.1106  0.3294
34810SOL     OW 9749   0.906   6.166   4.817 -0.3665  0.0989  0.5255
34810SOL    HW1 9750   0.942   6.091   4.769 -1.6764 -0.8254  0.9135
34810SOL    HW2 9751   0.926   6.148   4.909 -1.6056 -0.3559  0.7341
34811SOL     OW 9752   6.717   2.813   9.869  0.5523 -0.2488  0.0253
34811SOL    HW1 9753   6.763   2.848   9.793 -0.3223  2.6156  0.7052
34811SOL    HW2 9754   6.786   2.801   9.935  0.7572  1.4246  0.1592
34812SOL     OW 9755   8.981   0.908   2.838 -0.1347  0.1362 -0.1108
34812SOL    HW1 9756   8.918   0.970   2.801 -0.8609 -0.2048  0.5167
34812SOL    HW2 9757   9.052   0.905   2.774 -1.4348 -0.6067 -1.5917
34813SOL     OW 9758   4.261   2.058   8.162  0.4594 -0.6083  0.1034
34813SOL    HW1 9759   4.314   2.057   8.241 -1.0148 -1.2575  1.1337
34813SOL    HW2 9760   4.310   2.113   8.100  0.5986  1.7911  2.1880
34814SOL     OW 9761   8.152   8.657   7.587 -0.0531  0.2531 -0.0175
34814SOL    HW1 9762   8.234   8.632   7.544  1.0615  0.2051  2.0100
34814SOL    HW2 9763   8.088   8.659   7.517  1.5308 -0.4158 -1.5597
34815SOL     OW 9764   8.004  10.147   4.350 -0.6591 -0.5443 -0.1832
34815SOL    HW1 9765   7.975  10.077   4.291 -0.7754 -1.0222  0.4314
34815SOL    HW2 9766   8.078  10.188   4.304 -1.3093 -0.3168 -1.0641
34816SOL     OW 9767   0.030   1.149   4.864  0.1574  0.3290  0.2429
34816SOL    HW1 9768   0.076   1.069   4.839 -0.0382  0.2286  0.1991
34816SOL    HW2 9769   0.076   1.219   4.816 -0.6274  0.0642 -0.9556
34817SOL     OW 9770   1.323   2.322   7.367  0.7330 -0.3101 -0.6588
34817SOL    HW1 9771   1.322   2.243   7.421  1.6781  0.1527  0.0685
34817SOL    HW2 9772   1.407   2.320   7.321  0.0994 -0.5070 -1.8584
34818SOL     OW 9773  11.370  10.790   6.988 -0.4647  0.4042  0.5108
34818SOL    HW1 9774  11.356  10.728   7.060 -0.4720 -1.4242 -0.9978
34818SOL    HW2 9775  11.442  10.752   6.938 -1.3408  0.9084 -1.2061
34819SOL     OW 9776   1.932   0.008  10.628  0.1379 -0.9101  0.0110
34819SOL    HW1 9777   1.922   0.065  10.705  0.5024  0.6867 -1.0866
34819SOL    HW2 9778   1.854   0.024  10.576  0.4398 -1.1206 -0.5113
34820SOL     OW 9779   1.046  11.673   8.050 -0.1683 -0.2050  0.5285
34820SOL    HW1 9780   1.081  11.586   8.032  1.6206  0.8956 -1.8773
34820SOL    HW2 9781   1.105  11.710   8.115  0.5489  0.0392 -0.2409
34821SOL     OW 9782   1.471   7.301   9.717 -0.1033  0.4008  0.3587
34821SOL    HW1 9783   1.539   7.234   9.726 -0.4862  0.1442  1.4730
34821SOL    HW2 9784   1.489   7.363   9.787 -2.2341 -0.7875  2.0791
34822SOL     OW 9785   1.884  10.940   4.104  0.2629 -0.1375 -0.0906
34822SOL    HW1 9786   1.817  10.871   4.100 -1.0370  1.0346  0.4020
34822SOL    HW2 9787   1.963  10.899   4.070 -0.7420 -1.5410 -0.8490
34823SOL     OW 9788   8.009   7.330  11.148 -0.7598  0.2821  0.6028
34823SOL    HW1 9789   8.104   7.322  11.138 -0.7873  1.5333 -1.2607
34823SOL    HW2 9790   7.991   7.301  11.237  1.2027 -1.2173  0.5801
34824SOL     OW 9791   6.648   4.945   1.209  0.0340 -0.6148 -0.0858
34824SOL    HW1 9792   6.635   4.853   1.185 -1.8497 -0.3744 -0.1111
34824SOL    HW2 9793   6.649   4.991   1.125  1.0061 -0.5983 -0.0747
34825SOL     OW 9794   9.911   5.935   0.071 -0.4753 -0.2535 -0.3516
34825SOL    HW1 9795   9.923   5.905  -0.019  1.2701  0.0094 -0.2506
34825SOL    HW2 9796   9.911   6.031   0.064 -0.4729 -0.2350 -0.0987
34826SOL     OW 9797   7.459   2.521   1.354  0.4405  0.3319  0.9100
34826SOL    HW1 9798   7.531   2.582   1.337  1.2323 -0.8974 -0.2383
34826SOL    HW2 9799   7.502   2.439   1.377 -0.6062 -0.3059  0.6203
34827SOL     OW 9800   7.129  10.591   7.442 -0.2688  0.4916  0.7291
34827SOL    HW1 9801   7.131  10.530   7.369  0.7981  2.3466 -0.8753
34827SOL    HW2 9802   7.190  10.554   7.506  1.1565  0.3482 -0.6514
34828SOL     OW 9803   5.912   9.846   5.415 -0.7966  0.4359 -0.1344
34828SOL    HW1 9804   6.006   9.832   5.423 -1.0251 -0.6120  0.9300
34828SOL    HW2 9805   5.904   9.936   5.383  0.5548  0.6082 -0.0458
34829SOL     OW 9806   9.675   0.832  11.071 -0.2767  0.3953 -0.0829
34829SOL    HW1 9807   9.627   0.889  11.011  0.0253  0.7978  0.0472
34829SOL    HW2 9808   9.690   0.751  11.022 -1.1032  0.2563 -0.1094
34830SOL     OW 9809   4.654   6.475  10.934  0.4987  0.1009  0.0070
34830SOL    HW1 9810   4.616   6.452  10.850 -1.3151  0.1483  0.7822
34830SOL    HW2 9811   4.593   6.442  10.999  2.0015 -0.1934  1.3437
34831SOL     OW 9812   1.850   5.887   4.053  0.1701 -0.2202 -0.6016
34831SOL    HW1 9813   1.944   5.902   4.043 -0.0629  0.2374 -2.4294
34831SOL    HW2 9814   1.844   5.813   4.114  1.6447  0.6816  0.6875
34832SOL     OW 9815   3.743  11.072   9.347 -0.0435 -0.1874 -0.1288
34832SOL    HW1 9816   3.816  11.023   9.309 -0.3509 -0.5388 -0.2748
34832SOL    HW2 9817   3.717  11.134   9.279  0.1927  0.0178 -0.0333
34833SOL     OW 9818  10.253   5.434   6.749 -0.1273  0.0029 -0.1196
34833SOL    HW1 9819  10.305   5.475   6.680 -0.8276  2.0238  0.4756
34833SOL    HW2 9820  10.316   5.409   6.816  0.1936  1.6066  0.2021
34834SOL     OW 9821   0.626   9.069   7.429  0.3180 -0.2149 -0.1287
34834SOL    HW1 9822   0.634   8.990   7.376  1.9872 -0.3940  0.3311
34834SOL    HW2 9823   0.700   9.123   7.403 -0.8083  1.2559 -0.4626
34835SOL     OW 9824   5.033   2.593   8.850  0.3031  0.6691 -0.3038
34835SOL    HW1 9825   5.047   2.523   8.786  0.7153 -0.6725  1.1775
34835SOL    HW2 9826   5.116   2.598   8.898 -0.4310  0.6876  1.0048
34836SOL     OW 9827   9.138  10.668   3.498  0.3176  0.4658 -0.1027
34836SOL    HW1 9828   9.117  10.619   3.419 -0.5879 -0.3364  0.6134
34836SOL    HW2 9829   9.201  10.734   3.469 -1.0235  1.0794 -1.7619
34837SOL     OW 9830   0.092   4.105  10.517  0.4306 -0.7839  0.2059
34837SOL    HW1 9831   0.031   4.115  10.444  1.9769  0.2040 -1.0125
34837SOL    HW2 9832   0.132   4.019  10.504 -0.4038 -1.2864  0.8168
34838SOL     OW 9833   8.663   8.601   2.951  0.0403 -0.0286 -0.2101
34838SOL    HW1 9834   8.727   8.591   2.880  0.2339 -0.7473  0.0580
34838SOL    HW2 9835   8.702   8.666   3.009  0.6831 -0.6888  0.1103
34839SOL     OW 9836   8.003   9.540   3.374 -0.4432 -0.1197 -0.5657
34839SOL    HW1 9837   8.070   9.594   3.331 -0.2352  0.6363  0.6522
34839SOL    HW2 9838   7.921   9.564   3.331 -0.7540  2.9958  1.4336
34840SOL     OW 9839   3.452   8.563  11.345  0.1297 -0.2347  0.3373
34840SOL    HW1 9840   3.434   8.655  11.324  1.6500 -0.0759 -0.4807
34840SOL    HW2 9841   3.383   8.537  11.405 -1.1484  1.0250 -0.5377
34841SOL     OW 9842  10.831   7.893   1.630 -0.0140 -0.3746  0.3417
34841SOL    HW1 9843  10.801   7.979   1.600 -0.0387 -0.3847  0.3371
34841SOL    HW2 9844  10.892   7.912   1.701 -0.5853 -0.3773  0.8388
34842SOL     OW 9845   9.713   4.615   6.898  0.3526 -0.0662 -0.4356
34842SOL    HW1 9846   9.656   4.692   6.896  0.2109 -0.1653 -0.1612
34842SOL    HW2 9847   9.790   4.643   6.946 -0.8624 -0.8915  2.1658
34843SOL     OW 9848   5.885   0.633   5.263 -0.3602 -0.8483  0.0732
34843SOL    HW1 9849   5.828   0.639   5.186  0.6985  3.7277 -0.6672
34843SOL    HW2 9850   5.827   0.604   5.334 -2.7046 -0.0280 -1.3885
34844SOL     OW 9851  11.266   0.481   1.856  0.3856  0.1312  0.0613
34844SOL    HW1 9852  11.291   0.389   1.849 -0.8450 -0.1303 -1.1785
34844SOL    HW2 9853  11.240   0.492   1.948 -0.5866 -1.0701 -0.0475
34845SOL     OW 9854   1.435   4.005   4.939  0.0231  0.0592 -0.2114
34845SOL    HW1 9855   1.408   3.929   4.991  0.0658  1.6824  2.3727
34845SOL    HW2 9856   1.509   3.974   4.886  0.8773 -1.4021  1.7331
34846SOL     OW 9857   2.684   5.521   0.377  0.5048  0.2018 -0.1797
34846SOL    HW1 9858   2.620   5.563   0.435  1.3533  0.9239  0.2531
34846SOL    HW2 9859   2.769   5.552   0.408  1.0191  0.0319 -1.3618
34847SOL     OW 9860  11.304   9.932  10.839  0.0125 -0.0528 -0.2292
34847SOL    HW1 9861  11.233   9.990  10.865 -0.1186 -0.7265  0.9820
34847SOL    HW2 9862  11.341   9.900  10.922  1.7506  0.3116 -0.8257
34848SOL     OW 9863   3.092   9.930   8.571 -0.6589  0.4437  0.2471
34848SOL    HW1 9864   3.142   9.859   8.614  1.2141  1.1593 -0.6184
34848SOL    HW2 9865   3.039   9.968   8.641  0.6250  0.1352  1.4346
34849SOL     OW 9866   1.931   7.597  10.540 -0.1098 -0.1701 -0.0857
34849SOL    HW1 9867   1.932   7.548  10.458 -1.4398  0.3482 -0.4389
34849SOL    HW2 9868   1.839   7.600  10.566 -0.1070  2.1903 -0.1345
34850SOL     OW 9869   1.839  10.396  10.708 -0.5417 -0.1815 -0.1957
34850SOL    HW1 9870   1.837  10.467  10.643  0.4147  0.9797  0.9888
34850SOL    HW2 9871   1.831  10.441  10.792 -0.8554 -1.5833  0.5486
34851SOL     OW 9872   3.273   8.124   7.999  0.2389  0.8419 -0.2452
34851SOL    HW1 9873   3.251   8.051   7.941  1.1206  0.7404 -0.4694
34851SOL    HW2 9874   3.230   8.200   7.959  0.2719  0.6509 -0.6490
34852SOL     OW 9875   2.583  10.345   3.312  0.2794  0.7060 -0.1620
34852SOL    HW1 9876   2.653  10.291   3.274  1.3780  0.0911  2.5227
34852SOL    HW2 9877   2.511  10.283   3.329  0.3665  0.6818  0.1197
34853SOL     OW 9878   2.429  10.548   3.369 -0.0832 -0.5583  0.1334
34853SOL    HW1 9879   2.341  10.537   3.333  0.3225 -0.3462 -0.9762
34853SOL    HW2 9880   2.477  10.472   3.336  0.1319 -0.7147  0.8012
34854SOL     OW 9881  11.207   1.375   3.539 -0.1476  0.2399 -0.5952
34854SOL    HW1 9882  11.155   1.350   3.615  0.4927 -2.1480 -0.8779
34854SOL    HW2 9883  11.171   1.324   3.467 -0.3102  1.9719 -1.7966
34855SOL     OW 9884   2.827   4.341   6.178  0.1023  0.7174  0.5203
34855SOL    HW1 9885   2.772   4.310   6.106  2.1740 -0.3852 -0.6679
34855SOL    HW2 9886   2.825   4.271   6.243  0.9793  0.1453 -0.0453
34856SOL     OW 9887   6.727   5.182   7.944 -0.0225  0.1124  0.4637
34856SOL    HW1 9888   6.704   5.163   8.035 -0.2998  0.0836  0.3883
34856SOL    HW2 9889   6.820   5.206   7.947  0.0679 -0.2624  0.7022
34857SOL     OW 9890   6.898   6.929   9.095 -0.7158 -0.0714  0.0873
34857SOL    HW1 9891   6.963   6.860   9.078 -1.6295 -0.7835 -0.6377
34857SOL    HW2 9892   6.821   6.882   9.125 -0.4495  0.8754  2.4800
34858SOL     OW 9893   3.982   1.030  11.134 -0.1075 -0.1355  0.2705
34858SOL    HW1 9894   4.014   1.120  11.143  1.3867 -0.6807  0.7137
34858SOL    HW2 9895   4.043   0.989  11.073 -2.5396 -0.0779 -2.3866
34859SOL     OW 9896  10.696   4.899   0.851  0.1121 -0.5263  0.3782
34859SOL    HW1 9897  10.609   4.905   0.810  0.8343  0.3064 -1.1301
34859SOL    HW2 9898  10.679   4.905   0.945 -1.3997  0.7943  0.0688
34860SOL     OW 9899   3.913   4.887   3.685 -0.0454 -0.0388  0.4657
34860SOL    HW1 9900   4.006   4.889   3.663 -0.1549  1.1302  0.0288
34860SOL    HW2 9901   3.907   4.931   3.771 -0.1770 -0.2392  0.5606
34861SOL     OW 9902   7.020   2.929   6.691  0.1087 -0.0006  0.0615
34861SOL    HW1 9903   7.023   2.928   6.595  0.8167 -1.5078  0.0602
34861SOL    HW2 9904   7.043   2.839   6.716 -3.9319 -0.8074  1.5691
34862SOL     OW 9905   4.865   3.618   6.516 -0.1832 -0.0797 -0.5206
34862SOL    HW1 9906   4.951   3.652   6.542  0.1666  0.1540 -1.8994
34862SOL    HW2 9907   4.806   3.647   6.586  0.9580 -0.8044  0.7742
34863SOL     OW 9908   5.299   1.682   6.787  0.5730  0.5726  0.0629
34863SOL    HW1 9909   5.326   1.733   6.864  1.0750 -0.5505  0.6561
34863SOL    HW2 9910   5.243   1.613   6.823  0.5916  0.2017 -0.6102
34864SOL     OW 9911   8.334   1.835   5.387  0.1620  0.4713  0.1132
34864SOL    HW1 9912   8.359   1.911   5.440 -1.5425  0.4047  1.1094
34864SOL    HW2 9913   8.247   1.810   5.421  0.5592 -1.7697 -0.3492
34865SOL     OW 9914   9.264   0.972   7.070 -0.0448 -0.5679  0.4622
34865SOL    HW1 9915   9.215   1.029   7.130  1.3105 -0.2924  1.3464
34865SOL    HW2 9916   9.236   0.999   6.983  0.4782  1.4081  0.8522
34866SOL     OW 9917   8.613   0.636   7.102  0.2101  0.0181 -0.2883
34866SOL    HW1 9918   8.522   0.610   7.116  0.4019 -1.5857 -1.6915
34866SOL    HW2 9919   8.612   0.678   7.016  0.8056 -0.0483 -0.3279
34867SOL     OW 9920   0.728   3.445   5.676  0.0969  0.1008  0.4615
34867SOL    HW1 9921   0.647   3.485   5.706 -0.6244  0.2216 -1.4940
34867SOL    HW2 9922   0.790   3.518   5.672 -0.1671  0.3253  0.4055
34868SOL     OW 9923   1.300  10.832   8.055  0.0140  0.1689  0.2437
34868SOL    HW1 9924   1.301  10.738   8.036  2.2047  0.1235  0.2807
34868SOL    HW2 9925   1.380  10.865   8.015 -0.7951  2.0809  0.0950
34869SOL     OW 9926  10.486  10.659   0.798 -0.2763 -0.8645  0.3384
34869SOL    HW1 9927  10.451  10.690   0.882 -0.2916 -0.8104  0.3120
34869SOL    HW2 9928  10.415  10.673   0.736  0.1591  0.2615  0.0628
34870SOL     OW 9929  10.507   9.491  10.007 -0.6422 -0.1356  0.2041
34870SOL    HW1 9930  10.493   9.473  10.100  0.0606  1.9453  0.7580
34870SOL    HW2 9931  10.601   9.476   9.994 -0.5329  0.5940  0.0986
34871SOL     OW 9932   3.521   3.477   6.137 -0.2871 -0.7521  0.1105
34871SOL    HW1 9933   3.602   3.517   6.104  1.5098 -2.6810  1.9331
34871SOL    HW2 9934   3.467   3.465   6.058  0.3701  2.1874 -0.9259
34872SOL     OW 9935   5.893   5.732   3.694  0.1622  0.0861  0.0144
34872SOL    HW1 9936   5.828   5.801   3.687  1.1486  0.8448 -2.7820
34872SOL    HW2 9937   5.849   5.654   3.660  0.2409  0.2616 -0.4979
34873SOL     OW 9938   6.634   1.727   2.824 -0.6265 -0.1764  0.1804
34873SOL    HW1 9939   6.575   1.682   2.764 -1.4316  1.0572  0.0192
34873SOL    HW2 9940   6.721   1.699   2.797 -1.0908 -1.6441  0.1043
34874SOL     OW 9941   7.239  10.924   5.561  0.0943  0.1651 -0.5221
34874SOL    HW1 9942   7.315  10.885   5.604 -0.2601 -0.8294 -0.7680
34874SOL    HW2 9943   7.276  10.980   5.492  0.6129 -2.0760 -2.1667
34875SOL     OW 9944   5.078   0.473   1.284 -0.4177 -0.2428  0.0398
34875SOL    HW1 9945   5.140   0.521   1.229 -0.2972  0.9484  1.1876
34875SOL    HW2 9946   5.000   0.465   1.229 -0.1571  0.5386 -0.4573
34876SOL     OW 9947   8.804   6.807  11.502 -0.0095  0.3338 -0.1247
34876SOL    HW1 9948   8.810   6.901  11.518 -1.5169  0.4974 -0.3767
34876SOL    HW2 9949   8.868   6.790  11.433  0.7977  1.0329  0.4377
34877SOL     OW 9950   7.362   6.036  11.063 -0.1046  0.4017  0.0791
34877SOL    HW1 9951   7.425   5.966  11.048 -0.9028  0.0902 -2.2112
34877SOL    HW2 9952   7.408   6.115  11.033 -1.0576  0.0315 -2.6329
34878SOL     OW 9953  10.050   8.896   5.091  0.4007  0.5579  0.4368
34878SOL    HW1 9954  10.027   8.989   5.093 -2.1267  0.0541 -0.9334
34878SOL    HW2 9955   9.985   8.854   5.148  1.3291 -0.4186  0.8030
34879SOL     OW 9956   6.008   1.089   4.030 -0.0629  0.0118  0.2313
34879SOL    HW1 9957   6.028   1.056   4.117 -0.2304 -0.9807 -0.0953
34879SOL    HW2 9958   5.964   1.172   4.046  3.5080  1.9699  1.0110
34880SOL     OW 9959   7.768   7.987   6.222  0.6170  0.4033  0.0396
34880SOL    HW1 9960   7.741   7.912   6.170  1.4323  1.0568 -1.3867
34880SOL    HW2 9961   7.863   7.992   6.211  0.5726  1.6660  0.0647
34881SOL     OW 9962   3.398   5.787  11.720  0.5571 -0.0208  0.0214
34881SOL    HW1 9963   3.431   5.876  11.705 -1.4438  1.1105  1.8068
34881SOL    HW2 9964   3.406   5.774  11.815 -0.3129 -1.2891 -0.0588
34882SOL     OW 9965  10.120  11.717  10.480  0.3904  0.0486  0.5747
34882SOL    HW1 9966  10.209  11.733  10.449  0.3025 -0.7257 -0.1321
34882SOL    HW2 9967  10.127  11.634  10.529 -0.4519 -1.7299 -2.0975
34883SOL     OW 9968   4.437   2.501   1.053  0.2168  0.3813 -0.3514
34883SOL    HW1 9969   4.500   2.481   1.122  1.3194  0.2091 -1.3774
34883SOL    HW2 9970   4.409   2.416   1.021 -2.9442  0.2891  2.0851
34884SOL     OW 9971   5.320   2.718   4.429  0.3698 -0.2680 -0.0126
34884SOL    HW1 9972   5.411   2.707   4.458  0.2316  0.6081  0.7859
34884SOL    HW2 9973   5.292   2.630   4.404  1.0364 -0.7611  0.9346
34885SOL     OW 9974   8.975   2.439   5.653 -0.0381  0.4110  0.3363
34885SOL    HW1 9975   8.938   2.421   5.740  0.5368  0.6787  0.6449
34885SOL    HW2 9976   8.929   2.518   5.624  0.0374  0.5410  0.5629
34886SOL     OW 9977   2.188  10.161   7.008 -0.0619 -0.1540  0.4365
34886SOL    HW1 9978   2.102  10.186   6.975  0.5624  0.7597 -0.5764
34886SOL    HW2 9979   2.226  10.242   7.041  0.7280 -0.3819  0.1188
34887SOL     OW 9980   9.722   9.825   7.311  0.6729 -0.2936  0.0279
34887SOL    HW1 9981   9.641   9.780   7.335  0.2199  0.5959  0.2076
34887SOL    HW2 9982   9.773   9.760   7.263 -1.0092 -0.2899 -1.8876
34888SOL     OW 9983  10.008   0.643   0.652 -0.2014  0.3677 -0.0527
34888SOL    HW1 9984  10.098   0.671   0.635  0.8702 -2.8486 -0.4076
34888SOL    HW2 9985   9.970   0.631   0.565 -1.3599  2.5703  0.0867
34889SOL     OW 9986   7.410   4.383   7.031  0.1423  0.8153 -0.5429
34889SOL    HW1 9987   7.492   4.395   6.983  1.0112  2.2692  1.1942
34889SOL    HW2 9988   7.437   4.365   7.121 -1.4197  1.7568  0.1592
34890SOL     OW 9989   4.256   0.454   9.374 -0.2862 -0.0225 -0.1108
34890SOL    HW1 9990   4.314   0.378   9.381  0.0977  0.3195  0.4705
34890SOL    HW2 9991   4.273   0.489   9.286  1.4688  0.9097  0.5310
34891SOL     OW 9992  10.159   6.778  10.649 -0.1405 -0.1159  0.3486
34891SOL    HW1 9993  10.158   6.741  10.560 -2.9664  0.6472 -0.0572
34891SOL    HW2 9994  10.250   6.774  10.676  0.6743 -1.2240 -2.2337
34892SOL     OW 9995   2.042   8.268   0.096 -0.0402  0.0065 -0.0963
34892SOL    HW1 9996   2.028   8.175   0.112  0.3117 -0.0700 -0.2230
34892SOL    HW2 9997   2.016   8.281   0.005  3.5504 -0.7695 -1.3845
34893SOL     OW 9998   1.230   0.558  10.944  0.2146 -0.6859  0.0139
34893SOL    HW1 9999   1.241   0.631  10.883  1.5636  1.0710  2.2231
34893SOL    HW210000   1.285   0.489  10.908  2.0435  0.7703 -0.1364
34894SOL     OW10001   8.812   0.127   7.365  0.0175  0.5923  0.6799
34894SOL    HW110002   8.846   0.082   7.288  1.4632  1.2162  0.9076
34894SOL    HW210003   8.787   0.213   7.334 -2.0767 -0.0746  0.3852
34895SOL     OW10004   7.003   9.085   3.234  0.6084 -0.4247 -0.0315
34895SOL    HW110005   6.977   9.047   3.318 -1.8544 -1.3048 -1.0891
34895SOL    HW210006   7.049   9.165   3.258 -0.8238 -0.1457  2.1781
34896SOL     OW10007   1.365   3.266   0.508 -0.5298 -0.6723  0.0841
34896SOL    HW110008   1.373   3.250   0.414  1.4065  0.0890  0.0696
34896SOL    HW210009   1.273   3.293   0.519 -0.6535 -0.1611 -1.6968
34897SOL     OW10010  10.653   7.554   1.021 -0.3546  0.2812  0.1596
34897SOL    HW110011  10.635   7.470   0.978  0.7877  0.0861  0.0451
34897SOL    HW210012  10.703   7.531   1.099 -0.6139  0.8072  0.4816
34898SOL     OW10013   2.248   1.250   7.063 -0.2736 -0.6052  0.2583
34898SOL    HW110014   2.290   1.318   7.116  2.6206 -0.1123 -2.3885
34898SOL    HW210015   2.193   1.298   7.001 -1.9304 -1.0496  1.3195
34899SOL     OW10016   5.247   3.024   8.114 -0.0363  0.2035  0.3001
34899SOL    HW110017   5.270   3.026   8.207  1.9777 -0.8362 -0.1104
34899SOL    HW210018   5.320   3.069   8.071 -0.8495  0.5010 -0.8009
34900SOL     OW10019   4.188   2.631   3.364 -0.0711  0.6264  0.2358
34900SOL    HW110020   4.173   2.591   3.449  0.4119  1.2132  0.6078
34900SOL    HW210021   4.214   2.721   3.384 -2.3553  1.5618 -0.6088
34901SOL     OW10022  11.142   5.050   2.312 -0.2806 -0.7367  0.0633
34901SOL    HW110023  11.232   5.073   2.290 -0.6835 -1.1227 -2.1245
34901SOL    HW210024  11.138   4.955   2.303 -1.0075 -0.6781 -0.2984
34902SOL     OW10025   2.103   8.879  11.190 -0.1281 -0.1627 -0.1021
34902SOL    HW110026   2.101   8.824  11.268  1.1237 -0.1169 -0.0156
34902SOL    HW210027   2.196   8.882  11.165 -0.4261  0.3387 -1.2226
34903SOL     OW10028   0.737   5.565   6.401  0.4054  0.0559  0.8667
34903SOL    HW110029   0.719   5.622   6.327  1.9412  1.6120  1.6149
34903SOL    HW210030   0.656   5.563   6.451  0.3715  1.8359  0.9418
34904SOL     OW10031   3.193   0.749  11.259 -0.1771  0.0007 -0.8709
34904SOL    HW110032   3.175   0.842  11.244 -0.6896  0.4244  1.7305
34904SOL    HW210033   3.155   0.731  11.345  3.6567 -1.4734  0.7665
34905SOL     OW10034   1.251   3.770   4.226 -0.7673  0.0919  0.0924
34905SOL    HW110035   1.288   3.841   4.279  2.1535 -0.1402 -1.4173
34905SOL    HW210036   1.246   3.695   4.285  2.6099 -0.2261  0.1722
34906SOL     OW10037   9.484  11.144   4.012 -0.3985  0.1117  0.4070
34906SOL    HW110038   9.569  11.186   4.018  0.2362 -0.8210 -1.4971
34906SOL    HW210039   9.432  11.185   4.082  1.0386  1.9672  0.4530
34907SOL     OW10040  10.495   0.979   2.386 -0.1494 -0.8398 -0.3957
34907SOL    HW110041  10.445   1.009   2.311  0.0923 -1.4152 -0.8021
34907SOL    HW210042  10.431   0.937   2.443 -0.7278  1.5210  0.8236
34908SOL     OW10043   7.619   3.436   1.093 -0.1109  0.0982 -0.1935
34908SOL    HW110044   7.589   3.468   1.178  1.1413  0.7868  0.0146
34908SOL    HW210045   7.713   3.423   1.103  0.6149  2.7953 -2.1821
34909SOL     OW10046  11.511   2.134   4.760  0.1327 -0.0381  0.3293
34909SOL    HW110047  11.444   2.084   4.808  0.6046 -1.4465 -0.4050
34909SOL    HW210048  11.559   2.067   4.712  0.6236  1.1959 -0.9306
34910SOL     OW10049   4.316   1.898   3.666 -0.2538 -0.1502 -0.5701
34910SOL    HW110050   4.335   1.833   3.598  0.3545  0.2826 -0.8174
34910SOL    HW210051   4.400   1.941   3.682 -0.7445  0.8797 -0.7209
34911SOL     OW10052   2.373   3.065  11.379 -0.0437  0.6668  0.3187
34911SOL    HW110053   2.433   3.072  11.305  0.5048  1.1483  0.8005
34911SOL    HW210054   2.426   3.086  11.456 -0.8364  1.1725  0.7534
34912SOL     OW10055   8.912   9.952  11.221  0.1766  0.0128 -0.5755
34912SOL    HW110056   8.940   9.931  11.310  0.9048 -2.2471 -1.2592
34912SOL    HW210057   8.971  10.022  11.193  1.2598 -0.6228  0.0523
34913SOL     OW10058  11.264  10.921   1.255  0.2098  0.1931  0.0146
34913SOL    HW110059  11.185  10.874   1.281 -0.4041  1.5963  0.7630
34913SOL    HW210060  11.260  11.004   1.303  1.2477  1.0326 -1.2855
34914SOL     OW10061  11.312   5.026   7.828  0.1804  0.2502 -0.0208
34914SOL    HW110062  11.384   4.987   7.876 -0.0428  0.2856  0.3491
34914SOL    HW210063  11.283   5.099   7.882  0.5124  0.8533 -0.6454
34915SOL     OW10064   0.274   2.507   6.806 -0.6554 -0.8666  0.2568
34915SOL    HW110065   0.359   2.477   6.838 -1.2366 -1.8221  0.9917
34915SOL    HW210066   0.223   2.524   6.886 -1.4282 -1.1745 -0.1512
34916SOL     OW10067  11.725   4.810   9.223 -0.0761 -0.1385  0.5658
34916SOL    HW110068  11.820   4.806   9.237  0.0609 -0.0890 -0.2848
34916SOL    HW210069  11.697   4.718   9.225  0.0498 -0.1803  0.4515
34917SOL     OW10070   5.721  11.084   4.008 -0.4803 -0.3162 -0.0646
34917SOL    HW110071   5.739  11.022   4.078 -1.8224 -0.3561  0.2613
34917SOL    HW210072   5.690  11.163   4.053  0.1494  0.2115 -0.5343
34918SOL     OW10073   2.038   9.100  10.733 -0.4251 -0.2094 -0.1741
34918SOL    HW110074   1.954   9.145  10.736 -0.7666 -0.8634  0.8775
34918SOL    HW210075   2.030   9.039  10.659 -0.5957  0.2461 -0.5322
34919SOL     OW10076   5.172   4.361   1.042  0.6553  0.4543  0.1664
34919SOL    HW110077   5.085   4.400   1.031 -0.1699 -1.5575 -0.7820
34919SOL    HW210078   5.231   4.424   1.000 -0.5781  0.8626 -1.0294
34920SOL     OW10079   2.198   9.938   6.243 -0.1627  0.8565 -0.2305
34920SOL    HW110080   2.201   9.928   6.147  1.4956 -0.3147 -0.1072
34920SOL    HW210081   2.240   9.859   6.276 -1.6369  0.7700  1.5336
34921SOL     OW10082   9.601  11.819   3.020 -0.3136  0.3462  0.1949
34921SOL    HW110083   9.549  11.750   2.980  0.6064 -1.2189  1.5577
34921SOL    HW210084   9.538  11.870   3.071 -0.9621  0.3402 -0.5973
34922SOL     OW10085   3.452   1.638  10.385  0.6785 -0.3571  0.8868
34922SOL    HW110086   3.497   1.713  10.347 -0.3039 -0.2959 -0.2090
34922SOL    HW210087   3.513   1.605  10.451  0.8951  1.7504  1.8404
34923SOL     OW10088   9.953   6.181   1.792  0.2125 -0.6862 -0.1612
34923SOL    HW110089   9.949   6.265   1.838 -2.0116 -0.2167 -1.1207
34923SOL    HW210090   9.862   6.159   1.774  0.7317 -3.3373  0.0645
34924SOL     OW10091  11.728   4.992   2.063  0.4752  0.2392 -0.6241
34924SOL    HW110092  11.776   5.007   1.981  0.9216  0.1919 -0.3761
34924SOL    HW210093  11.772   5.047   2.127  1.0836 -0.8396 -0.0759
34925SOL     OW10094  11.402   2.259   6.266 -0.4384  0.2603 -0.1623
34925SOL    HW110095  11.400   2.163   6.275  0.6055  0.3791  1.9532
34925SOL    HW210096  11.310   2.284   6.269 -0.7398 -0.6826 -0.9287
34926SOL     OW10097   6.636  11.695  11.507  0.1823  0.1407 -0.1938
34926SOL    HW110098   6.729  11.698  11.485  0.2354 -2.0875 -0.5121
34926SOL    HW210099   6.592  11.689  11.422 -0.3359  2.0238 -0.0866
34927SOL     OW10100  10.795  10.463   2.188 -0.1036 -0.0582  0.1537
34927SOL    HW110101  10.786  10.486   2.095 -1.8851 -2.0325 -0.2374
34927SOL    HW210102  10.714  10.417   2.209 -0.6655  2.1061  3.3022
34928SOL     OW10103  11.767  11.044   9.109 -0.1749 -0.0473 -0.1894
34928SOL    HW110104  11.782  11.036   9.015 -1.0235  0.9593 -0.4221
34928SOL    HW210105  11.672  11.042   9.120 -0.3054  3.2433  0.2555
34929SOL     OW10106   5.213  10.820   4.511 -0.4822 -0.0497 -0.2298
34929SOL    HW110107   5.158  10.804   4.434 -1.5001  0.8387  0.2828
34929SOL    HW210108   5.297  10.779   4.490 -0.9647 -0.4180 -1.5220
34930SOL     OW10109   3.825   8.087   0.143  0.3161  0.2030 -0.3548
34930SOL    HW110110   3.849   8.050   0.228 -0.4809  1.3998  0.4264
34930SOL    HW210111   3.900   8.141   0.118 -0.3542  1.7293  0.7559
34931SOL     OW10112   2.752   9.658   8.257 -0.0966 -0.2731 -0.5524
34931SOL    HW110113   2.821   9.628   8.317 -0.6297 -0.1738  0.1192
34931SOL    HW210114   2.775   9.749   8.238 -0.1742 -0.1654 -0.1372
34932SOL     OW10115   4.550   6.329   0.259 -0.3867 -0.1417 -0.6689
34932SOL    HW110116   4.477   6.295   0.207 -2.1557  1.9990  0.2896
34932SOL    HW210117   4.569   6.414   0.221 -0.0957  0.4090  0.6716
34933SOL     OW10118   5.952   5.575   8.563 -0.2707 -0.8321 -0.2442
34933SOL    HW110119   5.938   5.486   8.596 -0.0414 -1.4326 -1.6713
34933SOL    HW210120   5.999   5.562   8.481 -0.7368  0.5916 -0.7572
34934SOL     OW10121   9.004   7.845   1.468 -0.0735 -0.4033 -0.2539
34934SOL    HW110122   9.091   7.884   1.468  0.6349 -1.9265 -0.1113
34934SOL    HW210123   8.945   7.920   1.479  1.1051  0.8323 -1.7218
34935SOL     OW10124   4.615   6.772   5.188  0.0652  0.4092  0.2364
34935SOL    HW110125   4.531   6.753   5.229  0.4244 -0.1795  0.7120
34935SOL    HW210126   4.635   6.693   5.137 -0.7777  1.4363 -1.7964
34936SOL     OW10127   0.716   1.778   6.050 -0.4996  0.0081 -0.7285
34936SOL    HW110128   0.727   1.807   5.959 -1.1334  0.0483 -0.8031
34936SOL    HW210129   0.621   1.771   6.060 -0.4076 -0.5271 -0.2327
34937SOL     OW10130   3.027   5.166  10.518 -0.6701  0.4002  0.5587
34937SOL    HW110131   3.109   5.122  10.500 -1.8893 -1.8668  0.1480
34937SOL    HW210132   2.979   5.164  10.435 -1.5081  0.8217  1.0119
34938SOL     OW10133   4.289   6.877   4.126  0.3598  0.2678  0.7902
34938SOL    HW110134   4.327   6.853   4.211  1.1049  0.6636  0.5716
34938SOL    HW210135   4.337   6.955   4.099  0.7040 -0.3332 -0.3980
34939SOL     OW10136   9.483   6.954   0.395 -0.2366 -0.0517  0.3600
34939SOL    HW110137   9.415   6.982   0.456 -0.4115 -0.9772  0.6042
34939SOL    HW210138   9.562   6.997   0.426 -0.9298  2.1604 -0.7399
34940SOL     OW10139   4.742  11.114   9.098 -0.0330 -0.3444  0.1449
34940SOL    HW110140   4.698  11.029   9.094 -1.1149  0.1360  1.1215
34940SOL    HW210141   4.705  11.163   9.025 -0.5158 -0.2281  0.4600
34941SOL     OW10142   3.667   1.115   3.148  0.1214 -0.4279 -0.2950
34941SOL    HW110143   3.677   1.023   3.127  0.3359 -0.2503 -0.9973
34941SOL    HW210144   3.641   1.156   3.066  3.5718  0.7145 -1.0201
34942SOL     OW10145   1.905   5.458   5.531  0.5954 -0.5403  0.0150
34942SOL    HW110146   1.980   5.483   5.585 -0.3131  0.2648  0.9449
34942SOL    HW210147   1.864   5.541   5.506 -0.4741 -0.9732  0.2505
34943SOL     OW10148   1.614   0.787   3.141  0.2133 -0.8518  0.3197
34943SOL    HW110149   1.573   0.873   3.137 -0.5049 -1.2176 -0.7199
34943SOL    HW210150   1.540   0.725   3.137  0.7488 -1.5147  0.4889
34944SOL     OW10151   0.670   1.104   7.099 -0.0265 -0.3110 -0.0723
34944SOL    HW110152   0.682   1.009   7.092 -0.2351 -0.6777  2.9695
34944SOL    HW210153   0.748   1.141   7.059  1.5512 -1.9174  1.3179
34945SOL     OW10154   0.991   7.874   4.060 -0.1133 -0.5505 -0.2890
34945SOL    HW110155   1.065   7.922   4.095  0.3649 -1.6218  0.2233
34945SOL    HW210156   0.924   7.941   4.044  0.9847  0.4393 -0.8737
34946SOL     OW10157   2.842  10.289   5.319 -0.3226  0.4320  1.0162
34946SOL    HW110158   2.897  10.306   5.395 -0.2196  1.8439  0.6630
34946SOL    HW210159   2.899  10.242   5.258 -0.4359 -0.7971  1.8255
34947SOL     OW10160  11.104   1.143  10.042  0.3183  0.0010 -0.1386
34947SOL    HW110161  11.091   1.230  10.080 -0.8746  0.1200 -0.7574
34947SOL    HW210162  11.083   1.154   9.949 -0.9780 -1.1700 -0.0139
34948SOL     OW10163   6.173   1.189   1.990  0.0554  0.0794  0.2709
34948SOL    HW110164   6.224   1.154   2.063 -0.2042  0.1950  0.5068
34948SOL    HW210165   6.218   1.270   1.966 -0.6418  0.7647  1.1973
34949SOL     OW10166   6.949   5.873   2.371  0.3670 -0.0331  0.4157
34949SOL    HW110167   6.986   5.928   2.441 -0.7708 -0.2930  1.2622
34949SOL    HW210168   7.023   5.854   2.314  0.9930  1.5694  0.6331
34950SOL     OW10169   8.997   2.389   8.892 -0.4412  0.4954 -0.1045
34950SOL    HW110170   9.058   2.321   8.921 -0.4059 -0.1134 -1.5036
34950SOL    HW210171   8.911   2.348   8.897 -0.3327 -0.0639 -1.9078
34951SOL     OW10172   0.067   2.551   8.134  0.2834 -0.1823  0.2779
34951SOL    HW110173   0.143   2.597   8.170  0.7490  0.9724 -1.9502
34951SOL    HW210174   0.095   2.526   8.046 -2.1458  1.0130 -0.9245
34952SOL     OW10175  11.114  10.463   6.075  0.0409  0.0435 -0.2532
34952SOL    HW110176  11.071  10.378   6.068 -0.3221  0.0872  1.1703
34952SOL    HW210177  11.055  10.516   6.128  0.8330  0.7896 -0.0943
34953SOL     OW10178   8.400   0.147   6.185 -0.2010  0.6891 -0.3883
34953SOL    HW110179   8.459   0.072   6.187 -0.3272  0.5585 -1.2786
34953SOL    HW210180   8.349   0.140   6.266  0.6381  0.5157  0.1360
34954SOL     OW10181   6.105   9.127   6.292  0.2215  0.0405  0.2835
34954SOL    HW110182   6.062   9.160   6.213  0.1865  1.4788  0.8729
34954SOL    HW210183   6.076   9.187   6.361  1.8384  0.0102  1.0154
34955SOL     OW10184  11.211   5.929   0.347 -0.1382  0.0137  0.0340
34955SOL    HW110185  11.280   5.912   0.283  1.1154  0.3152  1.2712
34955SOL    HW210186  11.208   6.025   0.354 -0.5680 -0.0034  0.1224
34956SOL     OW10187   9.335   0.820   9.561  0.1823  0.3215 -0.0090
34956SOL    HW110188   9.376   0.785   9.640  0.7181 -0.6673 -0.7019
34956SOL    HW210189   9.242   0.821   9.580  0.1011 -1.7586 -0.0187
34957SOL     OW10190   0.354   2.604   0.325 -0.1975 -0.1902  0.4527
34957SOL    HW110191   0.340   2.668   0.395  0.8230  0.1618  0.3537
34957SOL    HW210192   0.389   2.527   0.370  2.2027  0.6602  0.1765
34958SOL     OW10193  10.262  10.772   5.509 -0.2159 -0.0714  0.6448
34958SOL    HW110194  10.344  10.822   5.516 -0.4205  0.1808  1.4196
34958SOL    HW210195  10.267  10.729   5.424  0.3844  0.5388  0.3586
34959SOL     OW10196   0.121  10.372   7.968 -0.1917 -0.1135 -0.5437
34959SOL    HW110197   0.075  10.455   7.955 -0.7145 -0.1744  0.7421
34959SOL    HW210198   0.212  10.396   7.984 -0.2411  0.1711 -0.6913
34960SOL     OW10199  10.203   8.587   4.735 -0.3123  1.1833 -0.0687
34960SOL    HW110200  10.195   8.536   4.815  0.0223  1.2467  0.0078
34960SOL    HW210201  10.266   8.538   4.682 -1.4767  0.4670 -0.8316
34961SOL     OW10202   7.371   5.360  11.169 -0.7172  0.7019  0.0556
34961SOL    HW110203   7.378   5.325  11.258 -2.5811  1.0271  0.3800
34961SOL    HW210204   7.300   5.309  11.129 -0.6692  1.3215 -0.8553
34962SOL     OW10205   6.986   8.836   9.468 -0.0017 -0.6671  0.2238
34962SOL    HW110206   7.044   8.872   9.401 -0.6633  0.7098  0.3570
34962SOL    HW210207   6.955   8.753   9.431 -0.5687  0.1873 -1.3161
34963SOL     OW10208   6.925   1.022  10.236  0.2368  0.0369  0.2493
34963SOL    HW110209   6.989   1.089  10.212  0.4320  0.4369  1.7869
34963SOL    HW210210   6.925   0.961  10.162  0.2504  1.5704 -1.0730
34964SOL     OW10211   8.344   7.942   4.055 -0.1985 -0.4540 -0.3977
34964SOL    HW110212   8.254   7.974   4.057  0.1394  0.4771  0.3547
34964SOL    HW210213   8.356   7.913   3.965 -0.4930  1.6466 -1.1681
34965SOL     OW10214   2.958   1.579   3.344  0.3127 -0.0265 -0.4950
34965SOL    HW110215   2.961   1.644   3.415  2.2811 -0.8805  0.2503
34965SOL    HW210216   3.025   1.608   3.282  0.2397 -0.5855 -0.8410
34966SOL     OW10217  10.469   5.433   7.180 -0.1878  0.3558 -0.2207
34966SOL    HW110218  10.508   5.451   7.094 -0.0965  0.9761 -0.0540
34966SOL    HW210219  10.393   5.491   7.184  0.6224  1.4141  0.6926
34967SOL     OW10220   3.652   5.854   3.074 -0.3943 -0.2998 -0.4828
34967SOL    HW110221   3.570   5.894   3.103 -0.5643  0.1754 -1.5596
34967SOL    HW210222   3.717   5.924   3.083  0.1122 -0.9572  1.2728
34968SOL     OW10223   5.311   9.800   5.108 -0.2284 -0.7086  0.2948
34968SOL    HW110224   5.303   9.816   5.014  0.4576  1.0034  0.4906
34968SOL    HW210225   5.405   9.804   5.125 -0.3553 -0.8626  1.0819
34969SOL     OW10226   1.103   9.062  10.037  0.0779 -0.3573  0.0680
34969SOL    HW110227   1.101   8.968  10.057  0.8461 -0.2164  0.8159
34969SOL    HW210228   1.017   9.093  10.062  0.8992 -0.2203  3.0786
34970SOL     OW10229  11.360   3.584   0.303  0.2040  0.2016  0.2202
34970SOL    HW110230  11.452   3.561   0.290  0.3556  0.8554  0.1423
34970SOL    HW210231  11.350   3.592   0.398 -0.1320 -1.3186  0.3498
34971SOL     OW10232   0.348   6.258   9.065  0.0688 -0.4660  0.2354
34971SOL    HW110233   0.432   6.303   9.075  0.5768 -1.3398  0.0276
34971SOL    HW210234   0.315   6.249   9.154 -0.0131  0.2714  0.2789
34972SOL     OW10235   8.429   2.466   1.870 -0.4089  0.6743 -0.8873
34972SOL    HW110236   8.461   2.548   1.835  1.3911  0.0432 -0.8004
34972SOL    HW210237   8.508   2.415   1.888 -1.1829  0.5572  3.1208
34973SOL     OW10238   9.817   1.047   1.164 -0.0250 -0.4868  0.5992
34973SOL    HW110239   9.729   1.026   1.193 -0.5381  0.0611 -0.5114
34973SOL    HW210240   9.810   1.057   1.069  1.1442 -0.0090  0.5415
34974SOL     OW10241   5.963   1.746   5.025  0.4180  0.3540 -0.0764
34974SOL    HW110242   5.990   1.698   5.103 -0.1361  0.6407  0.2999
34974SOL    HW210243   5.975   1.838   5.049  1.7864  0.4144 -0.9042
34975SOL     OW10244  11.470   6.545   0.624 -0.1184  0.4290 -0.2255
34975SOL    HW110245  11.473   6.632   0.664 -0.7006  0.7883 -0.9382
34975SOL    HW210246  11.552   6.539   0.575  0.1228  0.4008  0.1817
34976SOL     OW10247   5.471  11.653   3.799 -0.3759  0.4103 -0.5471
34976SOL    HW110248   5.457  11.581   3.860  0.4836  1.7357  1.3163
34976SOL    HW210249   5.479  11.731   3.855  1.7645  1.5082 -2.2392
34977SOL     OW10250   5.591   0.209   8.846  0.2559 -0.1613  0.1936
34977SOL    HW110251   5.553   0.196   8.933  0.1319  0.4415  0.2357
34977SOL    HW210252   5.646   0.133   8.832  0.0797 -0.3858  0.6977
34978SOL     OW10253   3.835   9.390   7.055  0.0076  0.0676 -0.5095
34978SOL    HW110254   3.930   9.396   7.041  0.6867 -0.5671  2.8552
34978SOL    HW210255   3.819   9.447   7.131 -2.1574 -0.5307 -0.4661
34979SOL     OW10256   0.417   3.454   2.808 -0.1394 -0.1181  0.7763
34979SOL    HW110257   0.464   3.446   2.891  1.7074 -2.5173 -0.3699
34979SOL    HW210258   0.448   3.536   2.769 -0.7621  0.8475  2.2381
34980SOL     OW10259   8.058   8.895   6.787  0.2498 -0.3798  0.4334
34980SOL    HW110260   8.141   8.934   6.814  0.3844 -0.3882  0.0339
34980SOL    HW210261   8.069   8.801   6.802  0.0760 -0.3107  0.9982
34981SOL     OW10262  10.418   5.093   2.149 -1.1940 -0.1268 -0.1723
34981SOL    HW110263  10.355   5.135   2.207  0.2963  0.5008  1.0445
34981SOL    HW210264  10.502   5.103   2.193 -0.5599 -3.2004 -0.4661
34982SOL     OW10265  10.749   3.583   9.330 -0.2385 -0.1120  0.1921
34982SOL    HW110266  10.728   3.494   9.300 -0.9916  0.1930 -0.2041
34982SOL    HW210267  10.764   3.633   9.250 -0.1339  0.1935  0.4002
34983SOL     OW10268   0.418   6.308   0.768  0.7212 -0.6353 -0.3161
34983SOL    HW110269   0.341   6.285   0.717 -1.1045 -0.6142  2.2546
34983SOL    HW210270   0.397   6.393   0.807  1.3053 -1.3594  1.7200
34984SOL     OW10271   2.079   9.968   3.604 -0.5050 -0.5847 -0.3017
34984SOL    HW110272   2.129   9.904   3.553 -1.1912 -0.5026 -1.1076
34984SOL    HW210273   1.991   9.930   3.611 -0.8343  0.1130 -0.5267
34985SOL     OW10274   3.025   1.584   7.449  0.2906  0.0325 -0.0164
34985SOL    HW110275   2.930   1.579   7.451  0.1802  1.5674  0.4641
34985SOL    HW210276   3.052   1.523   7.381 -1.0926  0.2040 -0.7419
34986SOL     OW10277   8.250   8.302   5.526  0.2746  0.0895  0.0972
34986SOL    HW110278   8.168   8.302   5.573 -1.4516 -1.0189 -2.6491
34986SOL    HW210279   8.289   8.216   5.545  0.2706  0.1921  0.5694
34987SOL     OW10280   4.505   8.458  10.074  0.0869  0.4681  0.0439
34987SOL    HW110281   4.521   8.520  10.003 -0.3041  0.5327  0.0108
34987SOL    HW210282   4.580   8.398  10.070 -0.2196  0.1209 -0.7946
34988SOL     OW10283   9.348   4.126   3.649  0.0143  0.0420 -0.0389
34988SOL    HW110284   9.359   4.072   3.727  1.2107  1.5978  0.9305
34988SOL    HW210285   9.311   4.067   3.584  2.6247 -2.3580  0.4749
34989SOL     OW10286   9.970   2.320   4.347 -0.1139 -0.1117  0.4967
34989SOL    HW110287   9.888   2.348   4.306  0.3609 -0.2314 -0.5852
34989SOL    HW210288   9.970   2.363   4.432 -1.1388  0.1682  0.3697
34990SOL     OW10289  11.608   9.240   4.523 -0.2761  0.0702  0.0720
34990SOL    HW110290  11.560   9.304   4.470 -1.6715 -0.5860  0.4889
34990SOL    HW210291  11.700   9.259   4.506 -0.6598  1.8457 -0.2072
34991SOL     OW10292   5.306   7.855   9.411 -0.3872  0.1391 -0.3077
34991SOL    HW110293   5.268   7.768   9.419 -1.4074  0.7059  1.9703
34991SOL    HW210294   5.239   7.907   9.367 -0.2112  0.0018 -0.7335
34992SOL     OW10295   0.556   1.558   5.797  0.2587  0.0811  0.0127
34992SOL    HW110296   0.647   1.532   5.783  0.2361  0.0577 -0.0942
34992SOL    HW210297   0.524   1.500   5.866  0.2316 -0.1224 -0.1683
34993SOL     OW10298   7.413   6.611   0.074  0.2551  0.2981  0.3623
34993SOL    HW110299   7.401   6.663   0.154 -1.0721 -1.1759  1.1667
34993SOL    HW210300   7.363   6.659   0.007  0.4074  0.9279  0.6905
34994SOL     OW10301   7.866   1.946   8.207  0.2116 -0.2650  0.0400
34994SOL    HW110302   7.791   1.955   8.148  0.1377  0.8483  0.2873
34994SOL    HW210303   7.940   1.929   8.149 -0.0770 -0.4859 -0.2684
34995SOL     OW10304   1.963  10.252   9.145 -0.5290 -0.3535 -0.1941
34995SOL    HW110305   1.957  10.333   9.197  1.1560 -0.8550  0.8770
34995SOL    HW210306   1.969  10.282   9.055  0.9233  0.8153  0.2393
34996SOL     OW10307   9.615   5.603   4.696 -0.3707  0.6421 -0.4551
34996SOL    HW110308   9.656   5.689   4.701 -0.0932  0.7582 -3.2512
34996SOL    HW210309   9.525   5.619   4.668 -0.6373  0.0765  0.0480
34997SOL     OW10310  11.692   5.854   7.415  0.1415 -0.7495  0.3757
34997SOL    HW110311  11.763   5.797   7.443  1.2952  1.8429  3.2843
34997SOL    HW210312  11.734   5.938   7.394 -1.7918  0.1213 -0.3061
34998SOL     OW10313   7.332   5.411  10.590 -0.4247  0.0870 -0.3816
34998SOL    HW110314   7.424   5.434  10.576 -0.0104  0.7072  2.6444
34998SOL    HW210315   7.285   5.494  10.579 -0.2777  0.2898  0.4578
34999SOL     OW10316   5.391   0.296   0.311 -0.0049 -0.2519  0.0072
34999SOL    HW110317   5.467   0.240   0.332  0.3302  0.4472  0.6912
34999SOL    HW210318   5.426   0.385   0.310 -0.6827  0.0155 -0.3663
35000SOL     OW10319   0.456   9.152  10.941  0.3882  0.7812 -0.4171
35000SOL    HW110320   0.416   9.207  11.008  1.9505  0.6992  0.6292
35000SOL    HW210321   0.511   9.090  10.989  0.9451  0.2002 -1.7318
35001SOL     OW10322   2.126   6.324   2.465  0.5161  0.1099 -0.0192
35001SOL    HW110323   2.197   6.329   2.401  0.8047 -0.0929  0.2752
35001SOL    HW210324   2.092   6.235   2.457  0.4193  0.1474 -0.0300
35002SOL     OW10325   8.930   1.794   8.318  0.1140  0.0431  0.5217
35002SOL    HW110326   8.982   1.874   8.314  0.6397 -0.1766  2.0226
35002SOL    HW210327   8.843   1.824   8.347 -1.4543  0.7060 -4.1031
35003SOL     OW10328   8.016  11.415   8.964  0.2940 -0.7579  0.1116
35003SOL    HW110329   8.102  11.373   8.970  0.3319 -0.4376  2.3668
35003SOL    HW210330   8.003  11.428   8.870  2.6209 -0.9672 -0.3022
35004SOL     OW10331   0.094  11.552   8.394  0.0539 -0.2732 -0.3410
35004SOL    HW110332   0.041  11.492   8.445  0.5511  0.1439  0.7102
35004SOL    HW210333   0.185  11.529   8.416  0.2521  1.0769  0.4011
35005SOL     OW10334   1.221   6.135  10.874 -0.0017 -0.0821 -0.0142
35005SOL    HW110335   1.153   6.184  10.827 -0.5029 -1.6929 -1.0559
35005SOL    HW210336   1.220   6.048  10.833  4.1548  0.3918 -1.5195
35006SOL     OW10337   8.721   7.438   4.866 -0.3612 -0.3307 -0.0297
35006SOL    HW110338   8.812   7.446   4.894 -0.2157  1.5485 -0.8964
35006SOL    HW210339   8.669   7.470   4.939 -0.2143  0.3538 -0.2188
35007SOL     OW10340   4.669   4.999   6.023 -0.3068 -0.4392  0.4193
35007SOL    HW110341   4.746   4.942   6.022  0.6557  0.8336 -0.5662
35007SOL    HW210342   4.642   5.005   5.932 -0.4731  0.5835  0.5217
35008SOL     OW10343   2.539   8.884   1.434  0.1081  0.5003 -0.1633
35008SOL    HW110344   2.597   8.929   1.495  0.2546  0.0655  0.0297
35008SOL    HW210345   2.590   8.877   1.353  0.1116  0.6193 -0.1711
35009SOL     OW10346   0.379   1.598   4.689  0.4782  0.0703 -0.0118
35009SOL    HW110347   0.299   1.637   4.727 -1.8737 -2.0907 -2.3448
35009SOL    HW210348   0.425   1.672   4.649 -2.1096  1.0469 -1.4389
35010SOL     OW10349   2.764   7.966   9.973 -0.8517  0.8008  0.1889
35010SOL    HW110350   2.685   7.934  10.016 -1.0278 -0.0765 -0.7608
35010SOL    HW210351   2.836   7.926  10.022 -0.9889  1.2489  0.7750
35011SOL     OW10352   3.636   5.469   3.787 -0.3060  0.0808 -0.4454
35011SOL    HW110353   3.709   5.502   3.734  0.5194 -1.7970 -0.5610
35011SOL    HW210354   3.564   5.458   3.725 -0.0376  0.0060 -0.7440
35012SOL     OW10355   4.731   4.321  11.310  0.2649 -0.1495  0.7046
35012SOL    HW110356   4.743   4.406  11.268  2.0072  0.0277  1.4572
35012SOL    HW210357   4.665   4.276  11.256  1.2712  0.6417 -1.2847
35013SOL     OW10358   7.217   5.402   4.319 -0.1010  0.4297  0.2782
35013SOL    HW110359   7.227   5.343   4.393 -0.1513 -1.4473 -1.1416
35013SOL    HW210360   7.157   5.470   4.351 -0.5799 -0.6318  1.7649
35014SOL     OW10361   2.476   8.446   6.849  0.2379  0.2547  0.3743
35014SOL    HW110362   2.465   8.498   6.769 -1.2930 -1.4618 -0.5923
35014SOL    HW210363   2.454   8.357   6.823  1.9087 -0.7774  2.1933
35015SOL     OW10364   0.788   2.200   9.724  0.2734  0.0192 -0.2114
35015SOL    HW110365   0.834   2.278   9.693  0.5782 -0.2632 -0.4817
35015SOL    HW210366   0.842   2.127   9.694 -1.1089 -0.3982 -1.8515
35016SOL     OW10367   5.505   8.936   8.325 -0.2807  0.0361 -0.2778
35016SOL    HW110368   5.551   8.856   8.302  0.2535  0.5339 -1.0061
35016SOL    HW210369   5.459   8.961   8.245 -3.6606 -1.5893  0.9647
35017SOL     OW10370  10.491   5.487   2.476  0.2130  0.0311  0.2627
35017SOL    HW110371  10.477   5.570   2.523  0.5815 -0.5999  1.5165
35017SOL    HW210372  10.576   5.497   2.434 -0.1094  0.5972 -0.2648
35018SOL     OW10373   5.117   9.593   0.232  0.0821 -0.2501  0.3017
35018SOL    HW110374   5.183   9.623   0.295  1.0150  0.0345 -0.7794
35018SOL    HW210375   5.088   9.674   0.189 -1.3470 -0.3137  1.0970
35019SOL     OW10376   6.458   7.195   5.935 -0.2694  0.6302 -0.2149
35019SOL    HW110377   6.417   7.122   5.890  1.0180 -0.3053  0.0872
35019SOL    HW210378   6.477   7.161   6.023 -0.2000  1.5296  0.1275
35020SOL     OW10379   9.018   2.473   3.031 -0.1419 -0.2159  0.2012
35020SOL    HW110380   8.940   2.511   2.990  0.1494  1.3071  0.9858
35020SOL    HW210381   9.091   2.524   2.997  0.4588 -1.1639  0.0244
35021SOL     OW10382  10.089  10.130   1.858 -0.2340  0.4459  0.0364
35021SOL    HW110383  10.060  10.210   1.903  1.0370  2.3752 -2.3223
35021SOL    HW210384  10.183  10.124   1.880 -0.1322  0.0948 -0.4900
35022SOL     OW10385   5.187   5.562   8.559 -0.4664  0.3117 -0.3473
35022SOL    HW110386   5.149   5.510   8.631 -0.2368 -1.0618 -1.1807
35022SOL    HW210387   5.225   5.638   8.603 -0.4574 -0.4173  0.9859
35023SOL     OW10388   0.429   6.232   5.723  0.3850  0.0044 -0.6003
35023SOL    HW110389   0.520   6.259   5.727  1.2797 -2.6826 -0.9954
35023SOL    HW210390   0.390   6.266   5.804  1.3635  2.2051 -0.9887
35024SOL     OW10391  10.232   4.452   5.923 -0.1435 -0.0768  0.0552
35024SOL    HW110392  10.139   4.444   5.902  0.4499  1.3423 -4.1716
35024SOL    HW210393  10.244   4.546   5.939  0.7440  0.0345 -1.1026
35025SOL     OW10394   4.255   6.063   6.012 -0.3237 -0.1986  0.3498
35025SOL    HW110395   4.298   6.002   6.072 -1.1298 -0.0099  1.1517
35025SOL    HW210396   4.261   6.147   6.056 -3.2920 -0.4864  1.5470
35026SOL     OW10397   4.323  10.013   1.395 -0.0196 -0.6916  0.3094
35026SOL    HW110398   4.352  10.103   1.389 -0.3940 -0.6119 -0.3989
35026SOL    HW210399   4.227  10.018   1.395 -0.0463 -1.0638  0.7066
35027SOL     OW10400   9.671   2.818   6.384  0.1439  0.5583 -0.4398
35027SOL    HW110401   9.707   2.874   6.452 -0.0802 -0.5178  0.6076
35027SOL    HW210402   9.576   2.817   6.401  0.4221 -3.0676  2.0257
35028SOL     OW10403   2.264   9.920   8.015 -0.3022  0.4070  0.1142
35028SOL    HW110404   2.358   9.907   8.021 -0.2239  0.8495 -0.0797
35028SOL    HW210405   2.254  10.011   7.987 -0.7774  0.2837 -0.1427
35029SOL     OW10406   0.972   3.637   2.298  0.1498 -0.3250  0.1098
35029SOL    HW110407   0.958   3.722   2.256  1.1426 -0.4678 -0.5443
35029SOL    HW210408   1.060   3.610   2.270 -1.0659 -2.7292 -1.7723
35030SOL     OW10409   1.169  10.041   7.126  0.1767  0.5138  0.5728
35030SOL    HW110410   1.222   9.979   7.175  2.6458  1.5571 -0.6113
35030SOL    HW210411   1.095   9.989   7.094  1.2637 -1.4114  1.0373
35031SOL     OW10412   7.360   4.698   0.288 -0.8269  0.4776  0.2809
35031SOL    HW110413   7.329   4.781   0.323 -0.5883 -0.1558  2.0839
35031SOL    HW210414   7.456   4.705   0.289 -0.8155  0.5542 -0.5483
35032SOL     OW10415  11.257   3.831   8.847  0.4960 -0.4341  0.3375
35032SOL    HW110416  11.252   3.752   8.901  1.5561  0.2308  1.4597
35032SOL    HW210417  11.228   3.803   8.760  1.3268 -2.1721  0.5819
35033SOL     OW10418   5.804   7.819   7.410  0.3499 -0.0599  0.0861
35033SOL    HW110419   5.823   7.860   7.495 -0.6175  0.7300 -0.0534
35033SOL    HW210420   5.884   7.829   7.360  0.7223  0.0429  0.6925
35034SOL     OW10421   8.560   8.042   0.580 -0.1930  0.2304  0.5478
35034SOL    HW110422   8.633   7.981   0.592 -1.2016 -1.0123  0.5853
35034SOL    HW210423   8.581   8.088   0.499  0.7158  0.0256  0.6461
35035SOL     OW10424   6.815   0.757   6.978 -0.4665 -0.3164 -0.4585
35035SOL    HW110425   6.735   0.782   7.024  0.4006  0.2285  0.8152
35035SOL    HW210426   6.799   0.782   6.886 -0.5188  2.9721  0.3155
35036SOL     OW10427   6.734   1.484  10.847 -0.1922 -0.4544 -0.1307
35036SOL    HW110428   6.704   1.514  10.933  0.5942 -0.8648  0.2929
35036SOL    HW210429   6.722   1.559  10.790  0.5259  0.2517  0.6290
35037SOL     OW10430  10.593  10.266   7.303 -0.0210 -0.2720  0.0902
35037SOL    HW110431  10.588  10.196   7.238  0.0236  1.1714 -1.5393
35037SOL    HW210432  10.501  10.289   7.320 -0.0584 -1.1538  1.1273
35038SOL     OW10433   3.967  11.117   4.115  0.5516 -0.3322 -0.0672
35038SOL    HW110434   3.923  11.096   4.033 -1.0453  3.0966 -0.2666
35038SOL    HW210435   4.057  11.139   4.090  0.4084 -0.4928 -0.7355
35039SOL     OW10436   7.495  10.115   7.977  0.8887  0.2617  0.0163
35039SOL    HW110437   7.403  10.109   7.951  1.0954 -1.4075 -0.4387
35039SOL    HW210438   7.537  10.162   7.905  0.4130  1.0123  0.2155
35040SOL     OW10439   6.025   1.552   3.000 -0.4243 -0.2745 -0.0950
35040SOL    HW110440   5.952   1.609   3.024 -0.5482 -0.8164  0.8678
35040SOL    HW210441   6.004   1.468   3.040  1.4254 -0.0454  1.5252
35041SOL     OW10442   4.795   8.073   8.570 -0.0059 -0.2460 -0.3595
35041SOL    HW110443   4.860   8.121   8.622 -0.8565 -1.0677  1.5721
35041SOL    HW210444   4.760   8.008   8.630 -0.5987 -1.7073 -2.2013
35042SOL     OW10445  10.138   7.978   5.218 -0.4996  0.0913  0.3854
35042SOL    HW110446  10.168   7.887   5.213 -1.9144 -0.3458 -2.5100
35042SOL    HW210447  10.050   7.972   5.255 -1.1506  0.0677 -1.1117
35043SOL     OW10448   2.696   5.785   6.869  0.3452  0.0172 -0.1795
35043SOL    HW110449   2.745   5.798   6.789 -2.1132  1.5127 -1.5890
35043SOL    HW210450   2.633   5.857   6.870 -1.1387 -1.1932  1.9686
35044SOL     OW10451   4.936   6.957   0.822 -0.4638  0.0464  0.1017
35044SOL    HW110452   5.023   6.992   0.802  0.1904 -1.6579 -0.2000
35044SOL    HW210453   4.945   6.862   0.811 -1.5493 -0.4951  3.0514
35045SOL     OW10454   2.545   7.462   9.797 -0.2416  0.4436  0.1347
35045SOL    HW110455   2.534   7.379   9.844  0.6412  0.5916  0.6118
35045SOL    HW210456   2.581   7.436   9.712 -0.3722  0.3067  0.1199
35046SOL     OW10457  10.503   8.043   6.596  0.2296 -0.2515 -0.0071
35046SOL    HW110458  10.517   8.083   6.682  0.7480 -1.0243  0.2769
35046SOL    HW210459  10.589   8.047   6.554 -0.5302  2.3934 -1.5085
35047SOL     OW10460   6.234   2.733   3.734  0.1459  0.1315  0.1669
35047SOL    HW110461   6.190   2.758   3.816  0.1036 -0.7241  0.4260
35047SOL    HW210462   6.313   2.687   3.763 -0.6078 -1.5061 -0.2161
35048SOL     OW10463   7.692   3.163   7.937  0.1487 -0.3439 -0.0652
35048SOL    HW110464   7.728   3.180   8.024 -0.5151  0.8250 -0.0020
35048SOL    HW210465   7.767   3.136   7.884  1.0540  1.5555  0.1845
35049SOL     OW10466   0.347   0.041   7.362 -0.1524 -0.1634 -0.2383
35049SOL    HW110467   0.417   0.104   7.344  0.4518 -0.4251  1.0936
35049SOL    HW210468   0.392  -0.034   7.401 -1.2237 -0.0362  1.3427
35050SOL     OW10469   0.107   8.449   4.391 -0.1363  0.3628 -0.1458
35050SOL    HW110470   0.126   8.420   4.480 -1.5300  1.5337  0.5557
35050SOL    HW210471   0.051   8.380   4.355  0.6746 -0.2623 -0.2526
35051SOL     OW10472   4.172   6.503   7.752  0.3038  0.1914  0.3190
35051SOL    HW110473   4.124   6.420   7.752 -0.9427  0.8806 -0.3130
35051SOL    HW210474   4.262   6.479   7.732 -0.2599 -0.9060 -1.0496
35052SOL     OW10475   9.514   7.479   3.988  0.1341  0.0426  0.2575
35052SOL    HW110476   9.535   7.525   4.069  0.0942 -0.7900  0.7536
35052SOL    HW210477   9.473   7.398   4.017 -0.8515  0.2042 -0.6175
35053SOL     OW10478   7.265   1.107   6.299 -0.0537  0.3904  0.3053
35053SOL    HW110479   7.256   1.015   6.322 -0.2226  0.6410  1.2968
35053SOL    HW210480   7.339   1.110   6.238 -1.1259 -0.6021 -1.1161
35054SOL     OW10481   9.099   8.669   0.453  0.5862  0.1063 -0.1802
35054SOL    HW110482   9.147   8.674   0.536 -0.7581 -1.0366  0.7185
35054SOL    HW210483   9.165   8.686   0.386  1.6034  1.5949  1.1332
35055SOL     OW10484   6.602   5.656   1.999 -0.0752 -0.1669 -0.1906
35055SOL    HW110485   6.697   5.667   1.993  0.0317  0.3516  1.8192
35055SOL    HW210486   6.570   5.739   2.035 -1.1756 -0.7004  0.0972
35056SOL     OW10487   6.933   8.739  10.086 -0.5571  0.1618 -0.4702
35056SOL    HW110488   6.885   8.656  10.083  0.3824 -0.5113  1.5777
35056SOL    HW210489   6.865   8.805  10.099 -1.1737 -0.4640 -0.4618
35057SOL     OW10490   3.925  11.562  10.909 -0.7688  0.3765  0.0654
35057SOL    HW110491   3.933  11.600  10.821 -0.7309  0.9155  0.2983
35057SOL    HW210492   3.877  11.628  10.959 -1.6658 -0.3598  0.1890
35058SOL     OW10493   0.894   5.769   5.752 -0.1901  0.5888 -0.3514
35058SOL    HW110494   0.839   5.843   5.727 -1.5698 -0.6179 -1.0221
35058SOL    HW210495   0.939   5.798   5.831  1.6196  3.2478 -2.1855
35059SOL     OW10496   4.590   9.159   0.857  0.0390 -0.0884 -0.1184
35059SOL    HW110497   4.615   9.156   0.765 -0.2739 -0.3141 -0.1978
35059SOL    HW210498   4.496   9.180   0.856  0.2015  0.7149  0.1733
35060SOL     OW10499  11.490  11.419   6.104 -0.7031 -0.4705 -0.5433
35060SOL    HW110500  11.562  11.482   6.107 -0.6687 -0.5161 -0.3806
35060SOL    HW210501  11.449  11.433   6.018 -0.4458 -0.5054 -0.6729
35061SOL     OW10502   9.312   7.698   7.291  0.3181 -0.4627 -0.6303
35061SOL    HW110503   9.246   7.632   7.269  0.2657 -0.5406 -0.2491
35061SOL    HW210504   9.393   7.664   7.253  0.9685 -2.3041  2.0513
35062SOL     OW10505   4.263   3.512   2.883 -0.4228  0.5259  0.0463
35062SOL    HW110506   4.193   3.447   2.879 -1.6173  1.8260 -1.3962
35062SOL    HW210507   4.284   3.519   2.977 -1.2543 -0.8609  0.3586
35063SOL     OW10508   7.508   0.963   4.728  0.2798 -0.3519  0.7468
35063SOL    HW110509   7.455   1.020   4.672  1.8517  1.8937  1.4165
35063SOL    HW210510   7.557   0.909   4.666  1.8546  1.9683 -0.1688
35064SOL     OW10511   7.017   3.488   5.304 -0.0916  0.1275  0.2033
35064SOL    HW110512   6.930   3.463   5.273 -0.1648  1.9890 -1.2052
35064SOL    HW210513   7.077   3.454   5.238 -0.0227  1.6289 -0.5318
35065SOL     OW10514   4.998   0.031   7.129  0.0520 -0.6303 -0.0966
35065SOL    HW110515   4.915  -0.008   7.154  0.5718 -0.4218  2.0958
35065SOL    HW210516   5.051  -0.043   7.100  0.6277 -1.5215  2.9207
35066SOL     OW10517   1.318   3.865   7.837  0.1545  0.0101 -0.7131
35066SOL    HW110518   1.289   3.787   7.790  1.4849 -0.5502 -0.6645
35066SOL    HW210519   1.355   3.922   7.770  2.5414 -1.0163 -0.3787
35067SOL     OW10520  10.525   8.977   7.992 -0.1885 -0.2748  0.1330
35067SOL    HW110521  10.600   9.000   7.936 -0.2366 -0.1040  0.1382
35067SOL    HW210522  10.449   8.994   7.938 -0.3351  1.9426  0.9528
35068SOL     OW10523   8.343   8.686   0.377  0.0572  0.1674 -0.0919
35068SOL    HW110524   8.295   8.663   0.457 -1.3189 -1.7517 -1.3808
35068SOL    HW210525   8.433   8.659   0.395 -0.3219 -0.6445  0.6836
35069SOL     OW10526   5.392   0.492   5.233  0.1581  0.5118 -0.4892
35069SOL    HW110527   5.378   0.581   5.201 -0.9120  0.1112 -1.2053
35069SOL    HW210528   5.465   0.459   5.180 -0.4633  0.4439 -1.3161
35070SOL     OW10529   7.012   0.276   8.014 -0.3630  0.3814  0.3133
35070SOL    HW110530   7.030   0.357   7.967 -1.5755  1.6381  1.8755
35070SOL    HW210531   6.938   0.236   7.968 -0.7446  0.9524  0.4345
35071SOL     OW10532   2.213   1.868   8.943  0.1303 -0.0122 -0.2598
35071SOL    HW110533   2.221   1.776   8.968  0.0495 -0.1004 -0.5649
35071SOL    HW210534   2.303   1.898   8.933  0.1414 -0.3638 -1.2946
35072SOL     OW10535   4.323   8.672   7.438 -0.3744  0.5020  0.0142
35072SOL    HW110536   4.257   8.674   7.369  0.3100 -3.1350 -0.9461
35072SOL    HW210537   4.287   8.613   7.504  1.0279  0.1137  0.4602
35073SOL     OW10538  10.479  11.735   1.919  0.4353 -0.0638 -0.0032
35073SOL    HW110539  10.564  11.718   1.962  0.1282 -1.8840 -0.0399
35073SOL    HW210540  10.494  11.815   1.869  2.2433 -0.4880 -0.2396
35074SOL     OW10541   5.488   7.700   3.534  0.1878 -0.5115  0.2001
35074SOL    HW110542   5.559   7.665   3.481 -0.6069  0.3753 -1.5276
35074SOL    HW210543   5.427   7.627   3.544 -0.2842 -0.3300 -1.2616
35075SOL     OW10544   2.444   5.884   8.166 -0.7093 -0.6283  0.3166
35075SOL    HW110545   2.416   5.888   8.258  0.0744 -0.1560  0.5506
35075SOL    HW210546   2.493   5.802   8.160 -0.3330 -0.4152  0.4515
35076SOL     OW10547   9.538   1.025   7.608  0.4855  0.3636 -0.0218
35076SOL    HW110548   9.515   0.982   7.526  0.6571 -0.3335  0.2824
35076SOL    HW210549   9.628   0.996   7.625  0.0372 -0.4797  1.0179
35077SOL     OW10550   8.143   9.692   6.517 -0.0606 -0.1436  0.0756
35077SOL    HW110551   8.059   9.686   6.561 -1.4017 -0.1519 -2.3225
35077SOL    HW210552   8.190   9.614   6.544 -1.0509 -0.4326  1.0121
35078SOL     OW10553   2.211   9.522   9.661  0.2232  0.5810  0.0745
35078SOL    HW110554   2.251   9.605   9.687 -0.1621  0.7189  0.2483
35078SOL    HW210555   2.234   9.461   9.730  0.7751  0.4598 -0.2157
35079SOL     OW10556  10.986   7.529   1.466  0.2772 -0.1022 -0.0970
35079SOL    HW110557  10.936   7.516   1.385 -0.7738 -0.2891  0.5649
35079SOL    HW210558  11.017   7.620   1.462  0.6755 -0.2634 -0.9330
35080SOL     OW10559   9.392   4.634   3.831  0.0553 -1.0360 -0.1047
35080SOL    HW110560   9.474   4.593   3.802  0.5588  0.7016 -1.2938
35080SOL    HW210561   9.342   4.647   3.750  0.7750  2.4112 -0.1594
35081SOL     OW10562   7.926   6.045   5.425 -0.1887 -0.7244 -0.0954
35081SOL    HW110563   7.985   5.995   5.369 -0.0314 -0.6103 -0.0327
35081SOL    HW210564   7.839   6.034   5.386  0.0791  0.2977 -1.0378
35082SOL     OW10565   4.173   1.260   5.865 -0.0153  0.0513  0.6199
35082SOL    HW110566   4.139   1.235   5.951 -0.9515 -0.1485  0.2066
35082SOL    HW210567   4.132   1.345   5.847  1.8160  1.1301  1.2678
35083SOL     OW10568   7.791   0.600   4.425  0.3126  0.0671  0.0791
35083SOL    HW110569   7.800   0.508   4.451 -0.9038  0.0750  0.6162
35083SOL    HW210570   7.730   0.597   4.351  0.2110  0.4500  0.1475
35084SOL     OW10571  10.103  10.116   8.317  0.4565  0.4385  0.5731
35084SOL    HW110572  10.080  10.208   8.304  0.5762  0.6901  2.0221
35084SOL    HW210573  10.033  10.067   8.274 -0.1180  1.2017  0.6372
35085SOL     OW10574   6.338   7.837   3.027  0.0894  0.9271 -0.1053
35085SOL    HW110575   6.266   7.883   3.070 -0.7171  1.4847 -1.9428
35085SOL    HW210576   6.365   7.771   3.090 -1.8593  0.8854  0.7734
35086SOL     OW10577   8.037   7.659   4.443 -0.2889  0.5808  0.5763
35086SOL    HW110578   8.062   7.718   4.372 -1.3169  1.0959  0.6351
35086SOL    HW210579   7.942   7.660   4.444 -0.3182 -0.5092  1.0697
35087SOL     OW10580   5.855   7.026   0.496 -0.3250 -0.1667 -0.3014
35087SOL    HW110581   5.790   7.006   0.429 -0.6674  0.5695 -0.1881
35087SOL    HW210582   5.915   6.951   0.493  0.0336  0.1459 -1.8775
35088SOL     OW10583   4.661   4.083   0.529  0.2002 -0.2645 -0.0157
35088SOL    HW110584   4.733   4.028   0.561  0.8424  0.4581 -0.1979
35088SOL    HW210585   4.584   4.051   0.576  0.4828 -1.5661 -0.3747
35089SOL     OW10586   2.961   8.911   7.870 -0.1011  0.1072 -0.2469
35089SOL    HW110587   2.888   8.935   7.928  0.6519  2.0104 -0.0235
35089SOL    HW210588   2.962   8.980   7.803  2.5312  1.1480  0.7398
35090SOL     OW10589   7.842  11.106  11.300 -0.4080  0.1698 -0.2859
35090SOL    HW110590   7.810  11.058  11.224  1.5386 -2.0555  0.1849
35090SOL    HW210591   7.927  11.066  11.320 -0.5508  1.1008  2.6647
35091SOL     OW10592   1.489   9.619   5.386  0.2364 -0.1113 -0.2801
35091SOL    HW110593   1.445   9.535   5.393 -1.3533  0.7361  0.5237
35091SOL    HW210594   1.571   9.608   5.435 -0.7034 -0.7223  1.2089
35092SOL     OW10595   3.295   4.991   6.406  0.0716 -0.3881  0.1297
35092SOL    HW110596   3.349   4.912   6.411  0.0780 -0.4828 -1.0408
35092SOL    HW210597   3.225   4.968   6.345 -1.3498 -0.2730  1.6579
35093SOL     OW10598  11.696   5.411   0.945  0.0263 -0.1134  0.6314
35093SOL    HW110599  11.679   5.461   1.025  0.5100  2.0736 -0.5723
35093SOL    HW210600  11.660   5.464   0.875  1.2354 -1.0908 -0.7932
35094SOL     OW10601   2.633  10.777   9.586  0.0370  0.5974 -0.2461
35094SOL    HW110602   2.545  10.739   9.586 -0.6083  2.0601 -0.7527
35094SOL    HW210603   2.687  10.711   9.631 -1.9586  1.1842  3.4459
35095SOL     OW10604   8.759   0.693   2.428 -1.0241 -0.3616 -0.1025
35095SOL    HW110605   8.735   0.736   2.510 -0.9269 -0.6526  0.0803
35095SOL    HW210606   8.854   0.690   2.430 -1.0421 -2.5331  0.9275
35096SOL     OW10607   9.076  10.034   8.111 -0.3421  0.1569  0.2370
35096SOL    HW110608   9.041  10.116   8.145  1.1901  1.0672 -0.2810
35096SOL    HW210609   9.170  10.039   8.129 -0.3212 -1.8344  0.8695
35097SOL     OW10610   5.004   1.890  11.210 -0.5063 -0.3458 -0.0994
35097SOL    HW110611   5.064   1.821  11.181 -1.1253  0.7552 -4.8580
35097SOL    HW210612   5.060   1.960  11.241  0.3688 -1.1741  0.2304
35098SOL     OW10613   1.572   6.934   2.040  0.5267  0.4464  0.2079
35098SOL    HW110614   1.667   6.947   2.043  0.4303  1.0379  1.4119
35098SOL    HW210615   1.536   7.017   2.070 -0.4763  0.9865 -2.2896
35099SOL     OW10616   9.085   8.474   8.918  0.6587 -0.1698 -0.1877
35099SOL    HW110617   9.017   8.420   8.878  0.4150  1.3084 -1.8984
35099SOL    HW210618   9.055   8.488   9.008 -0.0571 -1.5248 -0.1947
35100SOL     OW10619   8.589   2.248   4.777  0.0862 -0.2712 -0.2066
35100SOL    HW110620   8.534   2.177   4.744  0.6937  0.2989 -2.6250
35100SOL    HW210621   8.530   2.304   4.827 -0.7107 -1.6414  0.4388
35101SOL     OW10622   0.967   8.167   7.716  0.0651  0.3109 -0.3203
35101SOL    HW110623   1.045   8.194   7.668  1.7766 -2.1912  0.8681
35101SOL    HW210624   0.939   8.087   7.672 -0.9583  0.3756  0.1922
35102SOL     OW10625  11.740   5.991   0.498  0.5263  0.8836 -0.3709
35102SOL    HW110626  11.675   6.061   0.490 -1.5080 -0.9859 -1.4059
35102SOL    HW210627  11.720   5.949   0.581  0.1611  0.0886 -0.8502
35103SOL     OW10628   2.346   2.346   6.022  0.1187  0.2609  0.7415
35103SOL    HW110629   2.425   2.392   5.995 -0.8613  1.7428  0.2213
35103SOL    HW210630   2.319   2.297   5.944  0.6878 -0.5106  1.0222
35104SOL     OW10631   8.445   1.931   1.519  0.1583 -0.7608 -0.3158
35104SOL    HW110632   8.462   1.897   1.431 -0.2779  0.3131 -0.8383
35104SOL    HW210633   8.414   2.020   1.504  1.3271 -0.0965  1.0049
35105SOL     OW10634   5.865   5.628   5.012  0.1427  0.3609 -0.3652
35105SOL    HW110635   5.863   5.644   4.918  1.4079  0.1888 -0.4374
35105SOL    HW210636   5.788   5.573   5.029  0.6573 -0.7595 -1.5164
35106SOL     OW10637  10.418   2.844   6.274 -0.3668 -0.4111 -0.2497
35106SOL    HW110638  10.440   2.860   6.183 -0.3722  0.0950 -0.1649
35106SOL    HW210639  10.323   2.843   6.276 -0.3767 -1.3291 -0.3971
35107SOL     OW10640   4.333   3.922   4.227  0.3177 -0.1892  0.2783
35107SOL    HW110641   4.355   3.829   4.221 -1.8973 -0.7454 -0.4981
35107SOL    HW210642   4.297   3.943   4.140  1.1840  1.5303  0.3029
35108SOL     OW10643  11.684   9.541   7.103  0.1125 -0.0296  0.7375
35108SOL    HW110644  11.760   9.580   7.059 -1.2031 -0.8805 -2.6637
35108SOL    HW210645  11.660   9.604   7.170  2.1815  1.5605  0.1025
35109SOL     OW10646   9.841   5.033   4.395 -0.1871  0.0504 -0.0211
35109SOL    HW110647   9.847   5.127   4.410 -2.1539  0.7121 -2.6517
35109SOL    HW210648   9.890   5.019   4.313 -0.7368 -1.0444 -0.1757
35110SOL     OW10649   9.329   5.628  10.111 -0.0898 -0.4811  0.1069
35110SOL    HW110650   9.270   5.697  10.138 -0.7299 -0.5887 -0.9832
35110SOL    HW210651   9.364   5.593  10.194 -0.8363  0.1834  0.7204
35111SOL     OW10652   5.355   4.896  10.080  0.1498  0.3845 -0.0789
35111SOL    HW110653   5.403   4.934  10.154  0.4852 -0.2720  0.0486
35111SOL    HW210654   5.273   4.945  10.077  0.2267  0.5673  0.5923
35112SOL     OW10655   2.345   2.958   9.448  0.3888  0.1655 -0.0863
35112SOL    HW110656   2.319   2.873   9.483 -0.5414 -0.0330 -1.2087
35112SOL    HW210657   2.376   3.007   9.524  2.5876 -1.7236  0.3697
35113SOL     OW10658   1.868  10.129  10.184  0.3348  0.2460  0.2353
35113SOL    HW110659   1.904  10.047  10.217  0.2382 -0.4353 -1.2586
35113SOL    HW210660   1.876  10.190  10.258 -1.8486 -1.7099  2.2484
35114SOL     OW10661   1.281   6.422  10.682 -0.0299  0.2294  0.0026
35114SOL    HW110662   1.212   6.478  10.646 -1.6818 -0.9828  1.1413
35114SOL    HW210663   1.245   6.334  10.678  1.5353 -0.4671  0.5238
35115SOL     OW10664  11.545   7.514   0.599 -0.1155  0.2523  0.3310
35115SOL    HW110665  11.585   7.497   0.514  0.5876 -1.1458  0.9179
35115SOL    HW210666  11.525   7.428   0.635  1.1494  0.6935  2.3020
35116SOL     OW10667   8.080  11.185   5.600  0.0289 -0.3201 -0.7415
35116SOL    HW110668   8.024  11.159   5.527  0.2177 -1.4090 -0.5167
35116SOL    HW210669   8.038  11.148   5.677  1.8260 -2.5714 -0.7218
35117SOL     OW10670   1.325  10.730  11.367  0.0312 -0.0570  0.3302
35117SOL    HW110671   1.294  10.798  11.307 -0.7884  0.0911  0.9154
35117SOL    HW210672   1.353  10.778  11.445  1.0223 -0.2584  0.1140
35118SOL     OW10673   7.165  10.026   3.763 -0.3157 -0.2622  0.0422
35118SOL    HW110674   7.140  10.081   3.689 -1.1483  0.4275  0.8121
35118SOL    HW210675   7.092  10.033   3.824  0.1929 -1.1121  0.7776
35119SOL     OW10676   3.715   2.215  10.669 -0.2117  0.1567  0.3808
35119SOL    HW110677   3.773   2.278  10.627 -0.1134 -0.6947 -0.7943
35119SOL    HW210678   3.692   2.153  10.600 -0.0628 -1.2832  1.5659
35120SOL     OW10679   0.928   8.964  11.006  0.2338  0.8106 -0.3016
35120SOL    HW110680   0.876   9.015  10.944  1.1036  0.7881 -1.0568
35120SOL    HW210681   0.878   8.882  11.017 -0.8407  1.5334  0.4376
35121SOL     OW10682   8.108   3.481   2.219  0.4386 -0.2815 -0.4210
35121SOL    HW110683   8.158   3.562   2.225 -1.2244  0.8452 -0.9561
35121SOL    HW210684   8.106   3.447   2.309 -0.9106  1.6313  0.3507
35122SOL     OW10685   5.588   6.063   3.060 -0.0686  0.1525 -0.5212
35122SOL    HW110686   5.568   6.003   3.133  3.7042 -0.0996  0.5663
35122SOL    HW210687   5.642   6.010   3.001 -0.5775  1.2199 -1.9786
35123SOL     OW10688   3.708   7.359   5.794  0.1542  0.9921  0.0274
35123SOL    HW110689   3.622   7.376   5.756 -0.3442 -0.3433  0.5111
35123SOL    HW210690   3.711   7.415   5.872  1.0113  3.4229 -1.6363
35124SOL     OW10691   5.717   4.413  10.557  0.0976 -0.2129  0.2253
35124SOL    HW110692   5.791   4.471  10.539 -0.9027  0.3101 -2.7501
35124SOL    HW210693   5.643   4.473  10.569 -0.5009 -0.7804 -0.5315
35125SOL     OW10694   3.763   0.569   0.340 -0.1355  0.4948 -0.1229
35125SOL    HW110695   3.813   0.538   0.265  0.6089 -0.3047  0.6828
35125SOL    HW210696   3.764   0.497   0.402 -2.5713  0.3292 -0.1725
35126SOL     OW10697   2.765   6.041   3.931 -0.1124  0.1678  0.1887
35126SOL    HW110698   2.804   5.969   3.882  0.0721 -0.5414  1.3462
35126SOL    HW210699   2.771   6.015   4.023 -2.4362  0.4522  0.4862
35127SOL     OW10700   0.340   2.599   3.315  0.0308 -0.6689  0.0710
35127SOL    HW110701   0.384   2.530   3.365  0.2318 -0.0710  0.7318
35127SOL    HW210702   0.278   2.637   3.377 -0.7570 -0.8774 -0.5754
35128SOL     OW10703   1.205   7.404   0.577 -0.3285 -0.3685 -0.2140
35128SOL    HW110704   1.173   7.426   0.489  0.0685  1.0034 -0.0513
35128SOL    HW210705   1.258   7.480   0.602 -0.9706 -0.4423  1.4803
35129SOL     OW10706  11.465   4.267   5.258  0.1074 -0.1443  0.6139
35129SOL    HW110707  11.532   4.206   5.288  0.0034 -0.0530  1.0370
35129SOL    HW210708  11.407   4.279   5.333 -0.3009 -0.1056  0.3010
35130SOL     OW10709  11.286   1.750   5.661  0.3330 -0.2825  0.1721
35130SOL    HW110710  11.347   1.819   5.687  0.4407 -0.4815  0.4599
35130SOL    HW210711  11.315   1.673   5.711  0.4666 -0.6412 -0.4448
35131SOL     OW10712   6.468   5.580   9.467  0.8072 -0.1790 -0.1712
35131SOL    HW110713   6.515   5.499   9.487  0.2739 -0.8576 -1.5181
35131SOL    HW210714   6.531   5.632   9.416  0.0624 -1.2659 -2.3467
35132SOL     OW10715   5.510   7.266   3.620 -0.2629 -0.9500 -0.2322
35132SOL    HW110716   5.418   7.252   3.640 -0.4862 -0.4465 -0.8641
35132SOL    HW210717   5.510   7.331   3.550  0.6269  0.1763  0.7738
35133SOL     OW10718   5.814   9.449   0.310 -0.4125  0.0049  0.4906
35133SOL    HW110719   5.840   9.360   0.334  0.4204  0.1461  0.1405
35133SOL    HW210720   5.892   9.487   0.269 -0.1498  1.5228  2.2720
35134SOL     OW10721   3.965   0.746   5.719  0.1611 -0.0359 -0.0005
35134SOL    HW110722   4.014   0.737   5.801 -0.8815  1.9932  0.9330
35134SOL    HW210723   4.007   0.684   5.659  2.2131 -0.2031  1.4835
35135SOL     OW10724   1.349   4.240   6.428  0.0489 -0.4561 -0.1259
35135SOL    HW110725   1.415   4.232   6.497 -0.3397 -0.3803  0.2574
35135SOL    HW210726   1.300   4.319   6.450 -0.5720 -0.8536 -0.0565
35136SOL     OW10727   8.435   6.484  10.114  0.4197 -0.2309  0.2357
35136SOL    HW110728   8.453   6.395  10.084 -0.2054 -0.4550  0.5045
35136SOL    HW210729   8.339   6.492  10.112  0.5076  1.2578 -2.0968
35137SOL     OW10730   3.173   5.529   6.790  0.5198  0.7217 -0.3937
35137SOL    HW110731   3.154   5.534   6.696 -0.4132 -1.0112 -0.3378
35137SOL    HW210732   3.101   5.478   6.827  2.0935 -0.7268  0.8504
35138SOL     OW10733   3.262   6.282   8.354  0.0589  0.1224 -0.0240
35138SOL    HW110734   3.274   6.202   8.304  1.4425  1.2746 -1.6443
35138SOL    HW210735   3.305   6.350   8.302 -0.0703  1.7290  1.8426
35139SOL     OW10736   0.162   1.502   4.224 -0.9620 -0.8657 -1.0046
35139SOL    HW110737   0.195   1.471   4.308 -0.8383 -2.2617 -1.5379
35139SOL    HW210738   0.236   1.546   4.183 -1.5380  1.6055  0.3849
35140SOL     OW10739   7.643   6.649  11.162  0.5060  0.4813  0.7244
35140SOL    HW110740   7.652   6.732  11.115  1.1225 -0.0694 -0.1393
35140SOL    HW210741   7.653   6.582  11.095  0.1460 -0.2990  1.4438
35141SOL     OW10742   2.103   0.228  11.566 -0.1126  0.2775 -0.6008
35141SOL    HW110743   2.172   0.200  11.627  1.0907  0.3822 -1.8536
35141SOL    HW210744   2.074   0.147  11.525 -1.7534  0.0583  0.8926
35142SOL     OW10745   6.909   9.805   9.830  0.3682 -0.0308  0.0074
35142SOL    HW110746   6.998   9.783   9.805  0.2440  0.8537 -1.3863
35142SOL    HW210747   6.913   9.898   9.852  0.1480 -0.4349  1.8856
35143SOL     OW10748  11.208   0.914   9.710 -0.6585  0.6904 -0.2593
35143SOL    HW110749  11.220   0.882   9.621  1.4443 -0.6844  0.4555
35143SOL    HW210750  11.233   0.840   9.766 -0.4554  1.9988  1.4646
35144SOL     OW10751   2.791   4.881   7.000  0.6308  0.0628 -0.2546
35144SOL    HW110752   2.696   4.871   7.000  0.8117 -2.2449  0.0218
35144SOL    HW210753   2.811   4.920   6.915 -0.5833  1.2160 -0.0510
35145SOL     OW10754   3.493  10.260   7.067 -0.5329  0.3023  0.6373
35145SOL    HW110755   3.436  10.334   7.047 -3.1884 -1.9546 -0.7797
35145SOL    HW210756   3.449  10.215   7.140  0.8916 -0.0672  1.3042
35146SOL     OW10757  11.725   0.194   6.338  0.1061 -0.0119  0.1295
35146SOL    HW110758  11.740   0.283   6.372 -0.7315  1.4618 -2.9551
35146SOL    HW210759  11.631   0.182   6.345  0.2419 -0.7488  0.7044
35147SOL     OW10760   2.234   7.545   8.921  0.5572  0.2900  0.2499
35147SOL    HW110761   2.252   7.451   8.934  0.5033  0.2528  0.0539
35147SOL    HW210762   2.187   7.549   8.838  0.0658  0.4339  0.5318
35148SOL     OW10763   6.979   4.586   8.912 -0.3244 -0.1624  0.2023
35148SOL    HW110764   7.038   4.512   8.900 -1.0416 -0.9386  1.2399
35148SOL    HW210765   6.901   4.548   8.954 -1.1853  0.9839 -0.2872
35149SOL     OW10766   0.172   7.187   5.597  0.1972 -0.6610  0.1571
35149SOL    HW110767   0.095   7.186   5.540 -0.1287 -1.4511  0.5997
35149SOL    HW210768   0.246   7.175   5.537 -0.1457 -1.5284 -0.1116
35150SOL     OW10769   6.438   0.858   5.011  0.3066 -0.3796  0.0790
35150SOL    HW110770   6.504   0.862   5.079 -1.5614  0.8732  1.9492
35150SOL    HW210771   6.455   0.935   4.957  0.2084  0.1138  0.7403
35151SOL     OW10772  10.760  10.253   4.213  0.5516  0.3047  0.8151
35151SOL    HW110773  10.791  10.276   4.125 -2.3575 -0.9756 -0.7091
35151SOL    HW210774  10.692  10.317   4.232 -0.6487 -0.9361  0.9114
35152SOL     OW10775  10.720  10.691   7.465 -0.4478 -0.4291  0.3116
35152SOL    HW110776  10.750  10.677   7.555 -0.7303 -0.0352  0.4656
35152SOL    HW210777  10.624  10.689   7.470 -0.5613  2.2372  0.4689
35153SOL     OW10778   2.223   1.807   8.368  0.3574 -0.4916  0.2334
35153SOL    HW110779   2.270   1.779   8.446  0.0566  1.2946  1.1245
35153SOL    HW210780   2.284   1.793   8.296  0.5250 -2.4675  0.7149
35154SOL     OW10781   4.211   5.332  10.826  0.0927  0.0027 -0.3446
35154SOL    HW110782   4.255   5.414  10.805  0.9079 -0.3954 -0.2270
35154SOL    HW210783   4.118   5.352  10.818  0.2132  1.3704  1.2166
35155SOL     OW10784   5.551   7.176   6.365 -0.4644 -0.2339  0.1476
35155SOL    HW110785   5.604   7.253   6.383  0.1890 -1.4129  4.4930
35155SOL    HW210786   5.596   7.132   6.293  2.0696  0.9392  0.8902
35156SOL     OW10787   8.301   5.031   4.991  0.0219  0.0152  0.1453
35156SOL    HW110788   8.379   5.082   4.971  0.2318 -0.8835 -1.4718
35156SOL    HW210789   8.260   5.015   4.906 -1.8043  0.2677  0.9363
35157SOL     OW10790  10.193   9.905   0.383  0.3516 -0.4432  0.2113
35157SOL    HW110791  10.230   9.865   0.304  2.0443  0.1286  0.6533
35157SOL    HW210792  10.207   9.840   0.451 -1.8531 -1.2812 -0.0538
35158SOL     OW10793   3.642   7.081   7.176  0.0870 -0.0502 -0.1353
35158SOL    HW110794   3.682   7.015   7.232  0.1496 -1.1951 -1.4914
35158SOL    HW210795   3.716   7.131   7.142  0.1464 -0.2666 -0.3219
35159SOL     OW10796   4.086   9.511   7.040  0.3226 -0.3931 -0.0584
35159SOL    HW110797   4.145   9.575   6.998 -0.4642  1.2368  1.1786
35159SOL    HW210798   4.142   9.465   7.103  0.3286  1.1811  1.1494
35160SOL     OW10799   4.926   9.525   2.699  0.4470  0.5097  0.3791
35160SOL    HW110800   4.932   9.459   2.631  1.2654  0.5853  0.3650
35160SOL    HW210801   4.890   9.479   2.775  0.2368  0.2522  0.1258
35161SOL     OW10802   6.465   2.573   0.374 -0.1241 -0.5440 -0.4158
35161SOL    HW110803   6.403   2.500   0.370 -0.6904 -0.0054 -2.1280
35161SOL    HW210804   6.478   2.599   0.283  0.7082  0.9695  0.0975
35162SOL     OW10805   4.826   9.844   5.994  0.2487  0.2698 -0.5140
35162SOL    HW110806   4.811   9.837   5.900  1.1090  0.5753 -0.6854
35162SOL    HW210807   4.910   9.889   6.002  0.2776  0.0862  0.4001
35163SOL     OW10808   1.497   7.327   5.898 -0.4982 -0.8737  0.2391
35163SOL    HW110809   1.455   7.299   5.979 -0.7965 -0.8164  0.1046
35163SOL    HW210810   1.587   7.349   5.924 -0.6241 -0.7508  0.5730
35164SOL     OW10811  11.705   4.912   1.364  0.0078  0.1911  0.2005
35164SOL    HW110812  11.633   4.938   1.421  0.8571  0.5723  1.1229
35164SOL    HW210813  11.778   4.894   1.424  0.5951 -0.4824 -0.6921
35165SOL     OW10814   1.731   0.906   9.526  0.2110 -0.0863  0.3875
35165SOL    HW110815   1.748   0.814   9.503 -0.0915 -0.2493  0.8106
35165SOL    HW210816   1.684   0.902   9.609  0.0142  0.4456  0.3062
35166SOL     OW10817   0.163   5.046   8.888 -0.1704 -0.5412  0.1243
35166SOL    HW110818   0.095   4.995   8.843  0.6557 -0.8572 -0.7872
35166SOL    HW210819   0.234   4.984   8.904  0.2566 -0.0141  0.3268
35167SOL     OW10820   9.274   6.201   5.084 -0.8292  0.3513  0.0904
35167SOL    HW110821   9.293   6.280   5.034 -0.3345  1.6570  2.1961
35167SOL    HW210822   9.199   6.224   5.139 -0.2204 -0.3650  1.2756
35168SOL     OW10823   9.092   5.935  11.563  0.4147  0.4474  0.1825
35168SOL    HW110824   9.041   5.968  11.488  0.7536  1.3177  0.3238
35168SOL    HW210825   9.051   5.851  11.584  0.7105 -0.1139 -1.3761
35169SOL     OW10826   4.659   2.944   2.095  0.3751  0.1667 -0.5645
35169SOL    HW110827   4.719   2.871   2.101  0.2917  0.1692  0.4728
35169SOL    HW210828   4.583   2.909   2.048  0.3520 -0.4020 -0.1123
35170SOL     OW10829   4.691   1.611   5.016 -0.4986 -0.1232  0.2931
35170SOL    HW110830   4.680   1.672   5.089 -0.5878 -0.2014  0.3451
35170SOL    HW210831   4.668   1.525   5.053  0.4936 -0.3266  0.4684
35171SOL     OW10832   7.671   5.127   0.491  0.4748  0.8987  0.5526
35171SOL    HW110833   7.701   5.038   0.474 -1.9136  0.5465 -2.9557
35171SOL    HW210834   7.596   5.117   0.550  0.8059  0.7207  0.9491
35172SOL     OW10835   3.373   8.809   7.403  0.4861 -0.7759  0.3949
35172SOL    HW110836   3.286   8.769   7.399  0.7421 -1.2186 -1.8276
35172SOL    HW210837   3.399   8.819   7.312  3.4862 -2.1810  0.9838
35173SOL     OW10838   0.464   8.318  11.214 -0.1321  0.4165  0.8269
35173SOL    HW110839   0.461   8.222  11.210  0.3342  0.3832  1.1909
35173SOL    HW210840   0.537   8.341  11.156 -1.6908  0.7046 -1.1543
35174SOL     OW10841   9.492  10.950   5.028 -0.4191 -0.5820  0.1442
35174SOL    HW110842   9.513  10.864   5.064 -0.0861 -1.0175 -1.0604
35174SOL    HW210843   9.428  10.933   4.959 -0.2449  0.1294 -0.2042
35175SOL     OW10844   7.947   9.456   8.911 -0.4111  0.2256  0.0892
35175SOL    HW110845   8.000   9.400   8.854 -1.4089 -0.8693  0.2052
35175SOL    HW210846   7.997   9.537   8.918 -0.3668  0.5169 -2.5935
35176SOL     OW10847   7.304   5.379   2.568 -0.0568 -0.4399 -0.1601
35176SOL    HW110848   7.219   5.334   2.576  0.1880 -0.6249  2.0611
35176SOL    HW210849   7.283   5.471   2.582  0.1586 -0.5739  1.2541
35177SOL     OW10850   2.325   2.568   0.061  0.2717 -0.0717  0.1362
35177SOL    HW110851   2.229   2.569   0.054  0.3937  1.3441 -2.2766
35177SOL    HW210852   2.349   2.660   0.067  1.5118 -0.4198  0.7210
35178SOL     OW10853   2.558   2.229   8.211  0.1125 -0.2698  0.7431
35178SOL    HW110854   2.621   2.272   8.269 -0.6092 -1.3392  2.4027
35178SOL    HW210855   2.578   2.135   8.220  0.0939 -0.4667 -0.9152
35179SOL     OW10856   8.100  10.486   6.132  0.2238 -0.1173  0.4496
35179SOL    HW110857   8.005  10.492   6.134  0.0263 -1.6900 -1.4492
35179SOL    HW210858   8.129  10.572   6.099 -0.6106  0.0342  0.0869
35180SOL     OW10859   5.302  11.713   4.850 -0.2073 -0.7567  0.1281
35180SOL    HW110860   5.335  11.624   4.846 -0.6384 -1.0251  1.7175
35180SOL    HW210861   5.208  11.706   4.836 -0.3885 -0.6892  1.2254
35181SOL     OW10862   1.038   0.746   3.426  0.0525  0.1791 -0.2715
35181SOL    HW110863   1.128   0.722   3.406  0.4906 -0.2166  1.9104
35181SOL    HW210864   0.989   0.721   3.347  1.4833 -1.7902 -0.6374
35182SOL     OW10865   8.509   5.467   4.849 -0.0669  0.0800  0.1648
35182SOL    HW110866   8.469   5.464   4.762  0.6374 -0.1487 -0.1576
35182SOL    HW210867   8.600   5.491   4.833  0.1400 -0.2363  0.8126
35183SOL     OW10868   4.523   8.595   5.376 -0.3907  0.5379  0.1602
35183SOL    HW110869   4.597   8.651   5.399 -0.9801  1.3232  0.1715
35183SOL    HW210870   4.506   8.544   5.455  0.7227 -0.3296 -0.1353
35184SOL     OW10871   9.566   1.719  10.221  0.0661 -0.2528  0.0414
35184SOL    HW110872   9.573   1.802  10.174  1.2454 -0.0329  0.5639
35184SOL    HW210873   9.653   1.680  10.213  0.1203 -0.4738  1.5518
35185SOL     OW10874   1.279   0.011   7.842 -0.1043 -0.4433  0.6928
35185SOL    HW110875   1.315   0.047   7.923  2.7920  0.3558 -0.8444
35185SOL    HW210876   1.317   0.065   7.772 -3.3881 -0.3404 -1.2435
35186SOL     OW10877   5.402   6.125   4.746 -0.2492  0.2771  0.1998
35186SOL    HW110878   5.335   6.083   4.800 -1.6309  0.4083 -1.3209
35186SOL    HW210879   5.363   6.210   4.723  0.5537  0.4666 -0.4914
35187SOL     OW10880   5.626   7.481   5.473  0.0081 -0.4709  0.2115
35187SOL    HW110881   5.627   7.537   5.395  1.3521 -0.4632  0.2157
35187SOL    HW210882   5.683   7.526   5.535  1.5102 -2.0613  0.0487
35188SOL     OW10883   0.944   8.733   0.509 -0.4429 -0.2662 -0.7664
35188SOL    HW110884   0.856   8.751   0.476 -0.9244  0.1868  0.6731
35188SOL    HW210885   0.940   8.759   0.601  0.6320 -2.1270 -0.1589
35189SOL     OW10886   1.004   7.736   9.079 -0.7418 -0.1873  0.2963
35189SOL    HW110887   0.971   7.816   9.038  0.4097 -0.0229 -0.3357
35189SOL    HW210888   1.010   7.757   9.172 -1.1076  0.2246  0.2278
35190SOL     OW10889   0.540   8.950   0.565  0.0345 -0.2501  0.1703
35190SOL    HW110890   0.598   9.026   0.573 -0.2631  0.0558 -0.5149
35190SOL    HW210891   0.597   8.881   0.532 -0.1751  0.3232 -1.4955
35191SOL     OW10892  11.351   4.622   4.377 -0.0077  0.2858 -0.6900
35191SOL    HW110893  11.288   4.559   4.413 -1.5050  1.3021 -1.4095
35191SOL    HW210894  11.344   4.699   4.434  0.7382  0.3426 -0.6662
35192SOL     OW10895   1.005  11.111   0.881 -0.2984  0.5438  0.2588
35192SOL    HW110896   1.016  11.072   0.967  1.0991 -0.5361 -0.3671
35192SOL    HW210897   0.922  11.075   0.848  0.2195 -0.7322  0.3054
35193SOL     OW10898   6.903   0.476   7.038  0.0025 -0.0489  0.3468
35193SOL    HW110899   6.916   0.536   6.965 -1.5088  0.2960  0.3194
35193SOL    HW210900   6.830   0.420   7.011  0.5007 -1.0080  0.9244
35194SOL     OW10901   0.706   2.532  11.751 -0.3477  0.0459 -0.2834
35194SOL    HW110902   0.784   2.565  11.796 -0.1000 -2.2164  1.0964
35194SOL    HW210903   0.636   2.541  11.816 -0.4538 -1.2292 -0.1964
35195SOL     OW10904   2.065   2.573   3.702  0.6097 -0.0429  0.0279
35195SOL    HW110905   2.081   2.505   3.767 -1.5973  0.8412  1.6089
35195SOL    HW210906   1.994   2.537   3.647 -0.2723  0.7650  0.6090
35196SOL     OW10907   5.138   8.872   1.853  0.2457 -0.0882 -0.3282
35196SOL    HW110908   5.204   8.817   1.810 -0.2336 -2.1255  1.3711
35196SOL    HW210909   5.068   8.880   1.788  0.3893 -1.4003 -0.6782
35197SOL     OW10910   2.385   7.203   5.074 -0.0104  0.0478  0.6483
35197SOL    HW110911   2.382   7.144   4.998  0.0864  0.7744  0.0723
35197SOL    HW210912   2.338   7.281   5.045 -1.1693 -0.1896  1.8015
35198SOL     OW10913   7.834  10.281   5.426 -0.2991 -0.5527 -0.3360
35198SOL    HW110914   7.871  10.274   5.514  1.2574 -0.4364 -0.9465
35198SOL    HW210915   7.747  10.242   5.433  0.6942 -2.7330  0.7363
35199SOL     OW10916   3.896   0.261   6.500 -0.3393 -0.4742  0.2934
35199SOL    HW110917   3.836   0.336   6.494  2.2077  1.6774 -0.2672
35199SOL    HW210918   3.843   0.186   6.475 -2.6415  1.3614 -0.7510
35200SOL     OW10919   8.618   5.666   4.299  0.4175  0.1861  0.1929
35200SOL    HW110920   8.628   5.702   4.386 -1.1028  2.9221 -0.6606
35200SOL    HW210921   8.525   5.645   4.291  0.4973  0.1257 -0.8119
35201SOL     OW10922   0.403   4.372   8.690  0.0904 -0.2118 -0.2912
35201SOL    HW110923   0.438   4.327   8.613  1.1624  0.8096 -0.4364
35201SOL    HW210924   0.312   4.390   8.669 -0.3975 -2.3624 -0.1807
35202SOL     OW10925   5.972   8.130   5.815  0.5009  0.0452 -0.0286
35202SOL    HW110926   5.987   8.163   5.726 -0.3864 -1.8582 -0.9588
35202SOL    HW210927   5.877   8.135   5.827  0.6574  0.7293  1.0144
35203SOL     OW10928   8.086   6.995   0.516  0.8175  0.6637  0.0225
35203SOL    HW110929   8.135   7.004   0.597  0.3680 -2.2352  0.7388
35203SOL    HW210930   8.012   6.938   0.538 -1.2729  2.4754 -1.6993
35204SOL     OW10931  10.467   0.947   8.401 -0.3317  0.2705  0.3455
35204SOL    HW110932  10.437   0.892   8.473 -0.9241 -1.5627 -1.1993
35204SOL    HW210933  10.388   0.988   8.366 -0.6270 -1.4977 -1.2788
35205SOL     OW10934   8.143   3.832   9.013 -0.4269 -0.0778 -0.1500
35205SOL    HW110935   8.089   3.753   9.026 -1.2923  0.2885 -1.3465
35205SOL    HW210936   8.116   3.865   8.928 -0.5285  1.8871  0.6040
35206SOL     OW10937   5.619  10.354   2.158 -0.2286 -0.1369 -0.1843
35206SOL    HW110938   5.705  10.320   2.135 -0.0956 -0.5374  0.8532
35206SOL    HW210939   5.579  10.284   2.210 -0.5037  0.7270  0.8047
35207SOL     OW10940   1.232   7.585   9.912 -0.3945  0.9443  0.1327
35207SOL    HW110941   1.167   7.651   9.938 -0.3417  0.8345  0.5627
35207SOL    HW210942   1.187   7.531   9.847 -0.0872  2.0394 -1.0273
35208SOL     OW10943   6.646  11.249  10.261  0.8185  0.0894 -0.0370
35208SOL    HW110944   6.562  11.212  10.290  0.7033  0.2015 -0.2225
35208SOL    HW210945   6.675  11.303  10.334  0.2440  0.8412 -0.3509
35209SOL     OW10946   1.184  10.225   1.814 -0.7409  0.0040 -0.7145
35209SOL    HW110947   1.165  10.309   1.856  0.0877  0.1943 -0.7033
35209SOL    HW210948   1.249  10.245   1.747 -0.5935 -0.6168 -0.7694
35210SOL     OW10949   2.218  10.621   7.199  0.1285 -0.2805 -0.4026
35210SOL    HW110950   2.203  10.637   7.106 -2.7508  0.6804  0.1415
35210SOL    HW210951   2.233  10.708   7.237 -1.8458 -0.2432  0.4379
35211SOL     OW10952   3.857   3.515  11.489  0.2399  0.3314 -0.3139
35211SOL    HW110953   3.801   3.572  11.542 -0.6765  0.8905 -1.8187
35211SOL    HW210954   3.800   3.443  11.463  0.8688 -0.2869  0.0039
35212SOL     OW10955   2.691   2.159  10.283  0.3663 -0.2226  0.8455
35212SOL    HW110956   2.632   2.098  10.328 -1.1405  0.0172 -0.6697
35212SOL    HW210957   2.692   2.236  10.339  0.8345 -0.9498  1.8700
35213SOL     OW10958   0.862   1.316   7.996  0.4553 -0.1510  0.1077
35213SOL    HW110959   0.828   1.400   7.968 -0.2889 -0.3946  0.2485
35213SOL    HW210960   0.860   1.320   8.092  0.0956 -0.4449  0.1181
35214SOL     OW10961  11.342   8.515   2.850  0.1364  0.6289  0.5395
35214SOL    HW110962  11.324   8.421   2.848 -1.2675  0.8855 -0.2000
35214SOL    HW210963  11.403   8.530   2.777 -2.1740  0.7247 -1.4878
35215SOL     OW10964   6.384   9.266  10.236  0.4348 -0.2665  0.8057
35215SOL    HW110965   6.372   9.330  10.166 -0.9051  1.0055  2.1188
35215SOL    HW210966   6.296   9.234  10.255  0.8060 -0.7665  1.7329
35216SOL     OW10967   4.988   1.702   2.974 -0.1141 -0.1721 -0.3372
35216SOL    HW110968   5.084   1.697   2.975 -0.1152 -0.1283  0.4957
35216SOL    HW210969   4.960   1.613   2.956  0.0836 -0.2847 -0.1046
35217SOL     OW10970   3.013   3.325  11.224  0.2176  0.4495 -0.0054
35217SOL    HW110971   2.934   3.340  11.276 -0.4592  1.8863 -1.3632
35217SOL    HW210972   3.024   3.230  11.225 -1.5931  0.1916  0.1558
35218SOL     OW10973  11.807   6.973   9.070 -0.0703  0.4153  0.0623
35218SOL    HW110974  11.869   6.912   9.029 -0.7570  0.0123 -0.4033
35218SOL    HW210975  11.743   6.992   9.001 -1.2207 -0.2404  0.9202
35219SOL     OW10976   7.965   2.704   8.680  0.2180  0.4260 -0.0543
35219SOL    HW110977   7.918   2.729   8.759  3.4547  0.9171  1.9091
35219SOL    HW210978   8.022   2.632   8.707  0.5883 -0.2100 -2.2847
35220SOL     OW10979   1.872   7.003  10.499 -0.7713 -0.3531 -0.0934
35220SOL    HW110980   1.828   6.941  10.557  2.0126  0.0018  2.6308
35220SOL    HW210981   1.957   6.962  10.480 -0.7202  0.5758 -2.1383
35221SOL     OW10982   4.198   1.154   5.587 -0.0305 -0.2048  0.1954
35221SOL    HW110983   4.249   1.178   5.665 -2.4523  0.9224  1.5446
35221SOL    HW210984   4.116   1.120   5.622 -1.8235  1.7380 -1.8118
35222SOL     OW10985   8.408   7.357   7.407 -0.3012 -1.1838  0.1505
35222SOL    HW110986   8.329   7.396   7.370  0.1290 -0.8977 -0.4805
35222SOL    HW210987   8.435   7.292   7.341  1.5035  0.6053 -0.9663
35223SOL     OW10988   6.064   6.443   4.240  0.4426  0.0484 -0.3442
35223SOL    HW110989   6.091   6.495   4.315  0.5008 -0.9942  0.3762
35223SOL    HW210990   6.032   6.507   4.176  2.0353  1.0803 -0.1342
35224SOL     OW10991   3.734   0.458   4.917  0.3083  0.7519  0.1918
35224SOL    HW110992   3.734   0.463   5.013 -0.7145 -1.7864  0.4077
35224SOL    HW210993   3.822   0.428   4.895 -0.1934 -1.1479  0.6012
35225SOL     OW10994   4.218   8.131   2.918 -0.5162 -0.6773  0.0870
35225SOL    HW110995   4.194   8.156   2.829  0.2040 -0.6871 -0.1169
35225SOL    HW210996   4.163   8.186   2.974 -0.0898  0.2312 -0.3572
35226SOL     OW10997  11.774   3.592   2.332  0.2846 -0.1651 -0.6341
35226SOL    HW110998  11.855   3.631   2.365 -0.0450 -1.2399  1.6921
35226SOL    HW210999  11.802   3.514   2.285  0.6660  0.3654 -1.3123
35227SOL     OW11000   5.984   3.556   1.499  0.4578 -0.7129 -0.9394
35227SOL    HW111001   6.062   3.592   1.540 -0.0792 -0.1743 -0.3455
35227SOL    HW211002   5.928   3.633   1.484 -1.7159 -1.3881  2.5223
35228SOL     OW11003   1.437   4.272   0.844 -0.1286  0.2817 -0.0201
35228SOL    HW111004   1.407   4.182   0.827 -1.4575  1.1840 -3.1513
35228SOL    HW211005   1.531   4.269   0.830  0.1620 -0.9247  1.7849
35229SOL     OW11006   8.816   4.999   7.915 -0.4495 -0.7053 -0.6525
35229SOL    HW111007   8.783   4.915   7.947 -2.2616 -0.2706 -1.2961
35229SOL    HW211008   8.899   4.977   7.872  1.2660 -1.5491  2.6993
35230SOL     OW11009  10.144   8.195   5.917  0.3126 -0.2552 -0.1681
35230SOL    HW111010  10.195   8.228   5.991 -2.2345  1.3596  0.9920
35230SOL    HW211011  10.107   8.113   5.949 -2.9623  1.7054  1.5532
35231SOL     OW11012   7.602   5.438   8.812 -0.2150  0.6191  0.2603
35231SOL    HW111013   7.515   5.401   8.828  0.2268 -0.7178 -0.2781
35231SOL    HW211014   7.660   5.362   8.804  0.9394  1.4664  0.1733
35232SOL     OW11015   7.054   1.878   1.245  0.2676  0.0751  0.4179
35232SOL    HW111016   7.040   1.971   1.261 -0.3086  0.0142  0.2841
35232SOL    HW211017   7.148   1.870   1.232  0.2445  0.7364 -0.2283
35233SOL     OW11018   7.401   1.852   6.028 -0.0127 -0.3003  0.0060
35233SOL    HW111019   7.423   1.871   6.120 -0.3190  3.0802 -0.4629
35233SOL    HW211020   7.306   1.867   6.023  0.4032  2.6041 -1.3334
35234SOL     OW11021   7.950  10.230   7.190  0.6974  0.7078 -0.3116
35234SOL    HW111022   8.020  10.255   7.250  0.0228  1.9768 -0.0018
35234SOL    HW211023   7.870  10.237   7.242 -0.0100  2.7856 -1.5227
35235SOL     OW11024   6.247   0.387   0.981 -0.0246  0.0315 -0.0432
35235SOL    HW111025   6.279   0.458   0.925 -2.1311  1.8891  0.9784
35235SOL    HW211026   6.205   0.326   0.920  0.1731  0.5929 -0.7637
35236SOL     OW11027  10.228   8.715  11.227 -0.2905 -0.5751 -0.2358
35236SOL    HW111028  10.239   8.796  11.178 -0.1776 -1.1872 -1.2650
35236SOL    HW211029  10.210   8.743  11.317  0.1961  0.5718 -0.4764
35237SOL     OW11030   0.493   8.814   2.150 -0.0789 -0.5359  0.1842
35237SOL    HW111031   0.468   8.790   2.239 -1.1469  1.6036  0.5321
35237SOL    HW211032   0.588   8.815   2.151 -0.0121  2.2013  2.2176
35238SOL     OW11033   0.164   7.208   1.174 -0.0188  0.0173  0.1401
35238SOL    HW111034   0.160   7.303   1.175 -0.7293 -0.0094  0.2547
35238SOL    HW211035   0.256   7.187   1.194  0.6449  0.7070 -1.9761
35239SOL     OW11036   0.506   7.842   8.206 -0.5291  0.5560  0.3831
35239SOL    HW111037   0.563   7.767   8.222  0.9980  1.5654 -0.1036
35239SOL    HW211038   0.469   7.826   8.120  0.3411  0.6942 -0.0192
35240SOL     OW11039   5.857   7.757   5.850 -0.0592 -0.4608  0.5749
35240SOL    HW111040   5.935   7.781   5.899  1.0047 -2.4463 -0.0225
35240SOL    HW211041   5.803   7.836   5.849  1.3287  0.5591  2.1468
35241SOL     OW11042   8.486  11.283   6.499 -0.5480  0.4425 -0.0472
35241SOL    HW111043   8.440  11.295   6.582  1.4919  0.1731  1.1775
35241SOL    HW211044   8.452  11.353   6.443 -2.4351  0.2381  0.7690
35242SOL     OW11045   7.536   1.406   2.131  0.2615 -0.0432  0.1182
35242SOL    HW111046   7.562   1.354   2.055  1.0550 -0.7741  0.8559
35242SOL    HW211047   7.610   1.464   2.148  0.6941 -0.8496  1.1359
35243SOL     OW11048   9.208   3.859   7.724  0.0324  0.0618  0.0155
35243SOL    HW111049   9.159   3.792   7.772 -0.5537  1.4494  1.4641
35243SOL    HW211050   9.244   3.813   7.648  0.0718 -1.9958  1.1986
35244SOL     OW11051   8.651   1.358   5.846  0.1206  0.4009 -0.1534
35244SOL    HW111052   8.678   1.269   5.868  0.7271  1.0276  1.8468
35244SOL    HW211053   8.560   1.363   5.875  0.1842  0.5089  0.0331
35245SOL     OW11054   9.375  10.878   7.747 -0.2169  0.3876  0.2905
35245SOL    HW111055   9.432  10.802   7.739 -1.2993 -0.2844 -1.7099
35245SOL    HW211056   9.426  10.941   7.799  1.3004 -1.1141  0.7068
35246SOL     OW11057   7.896   0.347   6.329 -0.5097 -0.5732 -1.0288
35246SOL    HW111058   7.943   0.274   6.370  1.7078  1.7262  0.7780
35246SOL    HW211059   7.830   0.372   6.393  0.0887  0.2496 -0.7108
35247SOL     OW11060   5.233  11.307   1.115 -0.1538 -0.1574 -0.4327
35247SOL    HW111061   5.323  11.340   1.121  0.3135 -1.6372  1.8264
35247SOL    HW211062   5.236  11.221   1.155 -2.3854 -0.7644 -1.3933
35248SOL     OW11063  11.443   9.038  11.165 -0.6799  0.3777  0.3178
35248SOL    HW111064  11.377   9.093  11.124  0.0710  1.4081  0.4591
35248SOL    HW211065  11.414   9.029  11.255 -1.6395 -0.8026 -0.0797
35249SOL     OW11066   5.308   5.868   7.944 -0.3691 -0.4380 -0.5164
35249SOL    HW111067   5.351   5.859   7.859 -1.4984 -0.1873 -1.1399
35249SOL    HW211068   5.361   5.932   7.991 -0.8234  0.9778 -1.8183
35250SOL     OW11069  10.047  10.441   1.854 -0.0603 -0.0062  0.1719
35250SOL    HW111070  10.097  10.391   1.790  0.1981 -0.3672  0.6453
35250SOL    HW211071   9.979  10.380   1.884  1.0351 -0.5498  1.6941
35251SOL     OW11072   8.757  11.541   5.096  0.4991  0.6322  0.1954
35251SOL    HW111073   8.723  11.452   5.110  1.9032 -0.0817 -0.7345
35251SOL    HW211074   8.834  11.546   5.153  0.1568  1.4564  0.6144
35252SOL     OW11075   1.396   0.814   6.404  0.0389  0.0291 -0.1389
35252SOL    HW111076   1.472   0.850   6.451  1.2403 -0.8452 -1.3227
35252SOL    HW211077   1.389   0.868   6.325 -1.1895  0.7068  0.4150
35253SOL     OW11078  10.101   8.461   8.137  0.1560 -0.0980  0.4976
35253SOL    HW111079  10.058   8.529   8.085  0.1645  0.9603  1.8112
35253SOL    HW211080  10.176   8.505   8.177 -1.2896 -0.0965  3.4607
35254SOL     OW11081   2.586   9.728   6.103  0.1460  0.2494 -0.2365
35254SOL    HW111082   2.589   9.749   6.197  0.7714 -1.3559  0.1376
35254SOL    HW211083   2.524   9.656   6.097  0.3916  0.1003 -1.0038
35255SOL     OW11084   9.809   1.308   6.216  0.2791 -0.5325 -0.5994
35255SOL    HW111085   9.796   1.319   6.310 -1.5607  0.1709 -0.8972
35255SOL    HW211086   9.844   1.219   6.207 -2.6473 -1.9438  0.5751
35256SOL     OW11087   8.433  10.994   9.239 -0.1507  0.0318  0.1614
35256SOL    HW111088   8.426  11.018   9.331  0.2987 -2.6190  0.9485
35256SOL    HW211089   8.343  10.975   9.212 -0.1551 -0.1665  0.3213
35257SOL     OW11090  11.139   6.596   5.868 -0.2923 -0.2263 -0.3422
35257SOL    HW111091  11.152   6.672   5.811 -0.2017 -0.7134 -0.9828
35257SOL    HW211092  11.206   6.605   5.936  0.0517 -0.0057 -0.7091
35258SOL     OW11093   7.706   4.434   5.280  0.2285 -0.0644 -0.2320
35258SOL    HW111094   7.763   4.419   5.205 -0.2683  0.5658 -0.7425
35258SOL    HW211095   7.617   4.422   5.247 -0.1999  2.9084 -0.4927
35259SOL     OW11096   2.582   8.038  11.647  0.6420  0.2575  0.5341
35259SOL    HW111097   2.496   8.008  11.678  0.2138  1.3172  0.4086
35259SOL    HW211098   2.564   8.122  11.606  1.4952 -0.2575 -0.9596
35260SOL     OW11099   0.497   2.329   4.062  0.0869  0.6044 -0.1932
35260SOL    HW111100   0.545   2.246   4.053 -0.8453  0.1381 -1.1320
35260SOL    HW211101   0.525   2.381   3.987 -0.8263  0.3317 -0.7437
35261SOL     OW11102   4.506   9.912  11.491  0.0539  0.1720 -0.0413
35261SOL    HW111103   4.497  10.001  11.526 -1.0833  0.1801 -0.3320
35261SOL    HW211104   4.601   9.900  11.480  0.1897  1.6218 -0.6931
35262SOL     OW11105   7.329   0.407   8.362 -0.2013  0.4180  0.0539
35262SOL    HW111106   7.401   0.460   8.328  1.3514 -2.0147 -0.7134
35262SOL    HW211107   7.250   0.452   8.332  1.0052  2.3741 -0.3625
35263SOL     OW11108  10.587   0.246   9.092  0.2030  0.1094 -0.1408
35263SOL    HW111109  10.652   0.231   9.162  0.4784  1.6547 -0.0432
35263SOL    HW211110  10.639   0.255   9.013 -0.1565 -2.5474 -0.7751
35264SOL     OW11111   3.766   5.151   1.559  0.3409 -0.5771  0.4697
35264SOL    HW111112   3.755   5.070   1.510 -0.1383 -0.0649 -0.2941
35264SOL    HW211113   3.750   5.126   1.650  0.6010 -1.4162  0.2893
35265SOL     OW11114  10.604  11.566   4.488 -0.1319 -0.2667 -0.0945
35265SOL    HW111115  10.610  11.506   4.414  1.2961  3.1165 -3.0810
35265SOL    HW211116  10.527  11.620   4.469  1.5723  2.1703 -0.5629
35266SOL     OW11117   9.264   4.372   9.451 -0.2925 -0.8535  0.3602
35266SOL    HW111118   9.351   4.352   9.486 -0.4981 -2.9155 -0.1499
35266SOL    HW211119   9.217   4.412   9.524  0.1111 -2.6588  1.6868
35267SOL     OW11120   0.583   4.685   8.022  0.3403 -0.5203 -0.0115
35267SOL    HW111121   0.611   4.593   8.028  0.1771 -0.5381  0.5881
35267SOL    HW211122   0.557   4.696   7.931 -0.6289 -1.3777  0.1277
35268SOL     OW11123   2.436   2.732   2.035 -0.2207 -0.0522 -0.1185
35268SOL    HW111124   2.445   2.638   2.049 -1.1096 -0.0920  0.3123
35268SOL    HW211125   2.415   2.767   2.122 -1.7077  0.2810 -0.5772
35269SOL     OW11126  11.666   6.352   6.155 -0.0227 -0.4370 -0.2452
35269SOL    HW111127  11.722   6.412   6.106 -0.6855  0.6568  0.3049
35269SOL    HW211128  11.581   6.355   6.111 -0.7248  0.8037  1.1016
35270SOL     OW11129   0.428   1.671   9.139  0.7448 -0.4651  0.1754
35270SOL    HW111130   0.482   1.728   9.083 -0.9780  1.2969  0.2282
35270SOL    HW211131   0.427   1.715   9.224 -2.7526  0.9892 -0.4705
35271SOL     OW11132   3.772  11.357   4.294  0.9491  0.2471 -0.3726
35271SOL    HW111133   3.861  11.392   4.290  0.1814  2.2366 -3.6923
35271SOL    HW211134   3.738  11.366   4.205 -2.3703 -1.0845  0.5911
35272SOL     OW11135   6.082   2.860   0.846 -0.1037 -0.0322  0.2073
35272SOL    HW111136   6.063   2.954   0.853 -0.9518 -0.1505 -0.3497
35272SOL    HW211137   6.120   2.838   0.931  1.6502  1.1353 -0.2240
35273SOL     OW11138   4.869   1.720   7.301 -0.0891 -0.4428  0.1341
35273SOL    HW111139   4.835   1.654   7.361 -0.2823  0.0856  0.6131
35273SOL    HW211140   4.898   1.792   7.357  0.0293 -0.0765 -0.3856
35274SOL     OW11141  11.359   4.777   2.182  0.1760  0.4361 -0.8240
35274SOL    HW111142  11.311   4.812   2.107  0.6893  2.2404 -0.3584
35274SOL    HW211143  11.379   4.686   2.158 -0.7580  0.5937 -2.3146
35275SOL     OW11144  10.320   4.050   5.703 -0.0232  0.2223  0.4834
35275SOL    HW111145  10.310   3.968   5.751  0.2809  1.1190  2.1590
35275SOL    HW211146  10.232   4.089   5.702 -0.7651 -1.1974 -2.5229
35276SOL     OW11147   0.698   0.576   6.303  0.1474  0.2777  0.5878
35276SOL    HW111148   0.742   0.510   6.356  0.0333  0.8339  1.3997
35276SOL    HW211149   0.756   0.652   6.306  0.4410  0.1192 -0.6199
35277SOL     OW11150   6.755   9.079   9.179  0.1845  0.6409 -0.2124
35277SOL    HW111151   6.715   9.054   9.096 -0.0428  1.8141 -0.4687
35277SOL    HW211152   6.795   9.165   9.162 -1.8506  2.0153  1.4703
35278SOL     OW11153   4.480   5.719   1.760 -0.6184 -0.3370  0.1484
35278SOL    HW111154   4.461   5.702   1.668 -0.2759 -0.2229  0.0555
35278SOL    HW211155   4.534   5.646   1.788 -1.6738 -0.9776  0.5775
35279SOL     OW11156   0.489   2.069   4.732 -0.4385 -0.3314 -0.0629
35279SOL    HW111157   0.397   2.049   4.753 -0.4111  0.4618  0.8761
35279SOL    HW211158   0.532   1.984   4.730 -0.5465 -0.5737  2.7835
35280SOL     OW11159   9.721   8.841   2.192 -0.7121  0.3630 -0.1877
35280SOL    HW111160   9.676   8.868   2.272  0.9308 -2.3597  1.8277
35280SOL    HW211161   9.655   8.790   2.144 -0.7294 -1.1732  1.3479
35281SOL     OW11162   3.275   8.111   4.267  0.6093 -0.2677  0.4600
35281SOL    HW111163   3.202   8.096   4.328 -0.2051 -1.7861 -0.8046
35281SOL    HW211164   3.250   8.191   4.220  0.9109  0.5229  1.5960
35282SOL     OW11165   5.551   4.789   6.177  0.7609 -0.2886 -0.0095
35282SOL    HW111166   5.570   4.742   6.259  0.9939 -1.4190 -0.6882
35282SOL    HW211167   5.485   4.736   6.134 -0.4802  1.0998  0.1084
35283SOL     OW11168   4.200  10.634  10.622 -0.3689  0.2444  0.0839
35283SOL    HW111169   4.200  10.600  10.532 -0.6964  0.9031 -0.1769
35283SOL    HW211170   4.286  10.613  10.656  0.5872  1.8794 -1.1368
35284SOL     OW11171   2.069   7.401  11.438  0.0392 -0.0025  0.3791
35284SOL    HW111172   1.980   7.421  11.466 -0.5103 -0.7005 -0.7975
35284SOL    HW211173   2.061   7.383  11.344  1.3939 -0.2242  0.2902
35285SOL     OW11174   8.440   3.932   6.315 -0.1274  0.0624 -0.1054
35285SOL    HW111175   8.349   3.959   6.305 -0.2827  0.6510  2.4093
35285SOL    HW211176   8.437   3.837   6.311 -0.7617  0.0955 -0.5863
35286SOL     OW11177  11.218   7.504   0.673 -0.6924  0.3558  0.4842
35286SOL    HW111178  11.195   7.415   0.646 -0.1116  0.3459 -0.0048
35286SOL    HW211179  11.288   7.491   0.737 -0.8823  0.4490  0.7115
35287SOL     OW11180  10.448   9.041   6.339 -0.0641 -0.5346  0.1018
35287SOL    HW111181  10.482   8.989   6.265  1.6247  0.2597  0.2739
35287SOL    HW211182  10.503   9.015   6.413  1.1039  1.7124  0.1126
35288SOL     OW11183   2.239   4.617  11.153 -0.2203 -0.3299  0.1398
35288SOL    HW111184   2.312   4.677  11.133  0.4650 -0.4559  2.0636
35288SOL    HW211185   2.167   4.675  11.179  0.9239 -0.2367  3.5681
35289SOL     OW11186   4.466   5.510   2.431  0.0907 -0.5881  0.6730
35289SOL    HW111187   4.443   5.417   2.424 -4.7271  0.4334 -0.3970
35289SOL    HW211188   4.417   5.541   2.507 -0.2424  1.5035 -0.3264
35290SOL     OW11189   8.094   7.042  11.326  0.0345 -0.0693  0.5123
35290SOL    HW111190   8.115   7.071  11.236  0.9211  2.1879  1.3573
35290SOL    HW211191   8.053   7.119  11.366 -1.7298 -1.5262  1.6320
35291SOL     OW11192   3.774   9.061   7.918  0.1908  0.7732  0.4954
35291SOL    HW111193   3.704   9.121   7.893  0.1570  0.8572  0.7884
35291SOL    HW211194   3.731   8.996   7.973  0.3960  0.9910  0.9160
35292SOL     OW11195  11.636   5.560  10.744 -0.9639  0.2141  0.1327
35292SOL    HW111196  11.672   5.544  10.657 -0.0758  2.0377  0.1253
35292SOL    HW211197  11.675   5.643  10.771 -1.5086 -0.1377  2.1267
35293SOL     OW11198   2.631  11.687   8.311  0.4472 -0.0959 -0.5355
35293SOL    HW111199   2.671  11.770   8.287  0.2944  0.3013  0.5236
35293SOL    HW211200   2.686  11.621   8.270  1.9081  0.4547  0.4567
35294SOL     OW11201   2.112   0.517   6.028 -0.2775  0.3350  0.4592
35294SOL    HW111202   2.193   0.512   6.078  0.3647  1.4318 -0.3969
35294SOL    HW211203   2.128   0.587   5.965 -1.3719 -0.3877 -0.6738
35295SOL     OW11204   2.673   6.737   3.543 -0.2788  0.2515 -0.1635
35295SOL    HW111205   2.641   6.737   3.453 -2.2448  1.5716  0.4806
35295SOL    HW211206   2.633   6.815   3.583 -0.2698 -0.8348  2.1140
35296SOL     OW11207   7.756   1.452   4.398  0.0646  0.2637 -0.1782
35296SOL    HW111208   7.826   1.401   4.437 -0.0087  0.1382 -0.2083
35296SOL    HW211209   7.712   1.494   4.472  1.2220  1.7139 -0.2849
35297SOL     OW11210   8.490   1.349   0.662 -0.1151 -0.4551 -0.1467
35297SOL    HW111211   8.501   1.255   0.646  0.4503 -0.3259 -0.5594
35297SOL    HW211212   8.477   1.387   0.575 -1.5414 -0.2877  0.1191
35298SOL     OW11213   9.551   3.501   7.624  0.0027  0.0381 -0.2149
35298SOL    HW111214   9.515   3.440   7.688  0.0169 -0.7796 -0.9645
35298SOL    HW211215   9.486   3.503   7.553  0.1545  0.6520 -0.3471
35299SOL     OW11216  11.013  10.725  10.525 -0.0237 -0.0958 -0.0193
35299SOL    HW111217  11.037  10.674  10.447  1.6894  0.3200  0.1929
35299SOL    HW211218  10.971  10.661  10.582  0.2216 -0.8105 -0.6020
35300SOL     OW11219   8.148  10.459  11.164  0.6381  0.0557 -0.0596
35300SOL    HW111220   8.173  10.466  11.256 -1.1052 -0.1244  0.4671
35300SOL    HW211221   8.064  10.505  11.158 -0.2159 -1.5137 -1.1205
35301SOL     OW11222   0.219   6.615   4.065  0.3341 -0.4155  0.6198
35301SOL    HW111223   0.272   6.541   4.034 -0.5604 -1.5663  1.7605
35301SOL    HW211224   0.134   6.577   4.087 -0.4416  1.1110  0.4375
35302SOL     OW11225   0.558   1.124   5.716 -0.2265  0.2950 -0.3609
35302SOL    HW111226   0.496   1.195   5.731  1.1004  1.3565  0.3434
35302SOL    HW211227   0.503   1.046   5.705 -1.6654  1.1346  0.5509
35303SOL     OW11228   2.568   7.244  10.376 -0.1523 -0.0125 -0.2927
35303SOL    HW111229   2.572   7.295  10.295  0.9017 -1.0331 -0.9195
35303SOL    HW211230   2.597   7.156  10.350 -1.3739 -0.7973  0.8701
35304SOL     OW11231   8.140   2.057   4.305  0.1500 -0.5821 -0.3779
35304SOL    HW111232   8.155   2.010   4.223  0.6899  1.7255 -1.6985
35304SOL    HW211233   8.080   2.128   4.281  0.9536  0.6259  1.0270
35305SOL     OW11234  10.234   2.723   0.075 -0.1473  0.3532 -0.0145
35305SOL    HW111235  10.197   2.740   0.161 -0.3623 -0.6804  0.1070
35305SOL    HW211236  10.282   2.641   0.085 -1.6682 -0.7553 -1.2997
35306SOL     OW11237   8.881   8.605   2.744  0.6845 -0.0866 -0.0240
35306SOL    HW111238   8.885   8.700   2.732  0.0682 -0.0235  0.2138
35306SOL    HW211239   8.836   8.573   2.666  0.8287 -0.1726 -0.0709
35307SOL     OW11240  10.552   2.688  11.752  0.1071  0.1083 -0.1867
35307SOL    HW111241  10.480   2.636  11.716  1.1913 -1.1984 -0.5732
35307SOL    HW211242  10.619   2.685  11.684 -0.0022  2.6026 -0.5003
35308SOL     OW11243   5.051  11.762   4.062  0.1307  0.1702 -0.6008
35308SOL    HW111244   5.057  11.705   3.986  1.9109  0.4465 -0.7330
35308SOL    HW211245   5.035  11.849   4.025  1.5453  0.3988 -0.7568
35309SOL     OW11246   5.765   6.670   2.471 -0.4267  0.7762  0.0101
35309SOL    HW111247   5.689   6.661   2.527 -0.5142  0.4116 -0.1667
35309SOL    HW211248   5.742   6.623   2.390  1.0739 -1.9241  1.0249
35310SOL     OW11249  10.305   0.733   5.161  0.3394 -0.0972 -0.5135
35310SOL    HW111250  10.228   0.755   5.214  0.7010  1.0718 -0.4438
35310SOL    HW211251  10.340   0.654   5.201  0.5752  0.7332  0.9855
35311SOL     OW11252   7.251   9.463   8.275  0.3328  0.5512 -0.4173
35311SOL    HW111253   7.189   9.424   8.213 -0.6508  1.7676 -0.2256
35311SOL    HW211254   7.313   9.510   8.220 -1.5104  3.0590 -0.5052
35312SOL     OW11255  10.110   5.496   9.401 -0.0121 -0.0264 -0.0175
35312SOL    HW111256  10.131   5.549   9.479  0.5631  1.0390 -0.8703
35312SOL    HW211257  10.108   5.559   9.329  0.2493 -1.1145 -1.0048
35313SOL     OW11258   9.267   9.363  10.229  0.1417  0.2110  0.1900
35313SOL    HW111259   9.327   9.325  10.292 -0.8609 -0.7394  0.6261
35313SOL    HW211260   9.243   9.448  10.265 -0.8372 -0.5502  1.3933
35314SOL     OW11261   8.105   0.721  11.246 -0.2373 -0.2250  0.6794
35314SOL    HW111262   8.147   0.806  11.241 -1.4386  0.3292 -1.1296
35314SOL    HW211263   8.015   0.740  11.274 -0.6136 -0.8318 -0.0578
35315SOL     OW11264   0.152   5.984   3.990 -0.1742  0.0635  0.0461
35315SOL    HW111265   0.213   6.047   4.028 -0.0826 -0.0765  0.1358
35315SOL    HW211266   0.125   5.929   4.063  0.9017 -0.9430 -0.2725
35316SOL     OW11267   7.224   2.104   0.797 -0.3712  0.0540  0.3471
35316SOL    HW111268   7.181   2.188   0.813  1.6246  1.1548  0.3513
35316SOL    HW211269   7.250   2.073   0.883 -0.3861 -0.1487  0.2795
35317SOL     OW11270   9.814   5.107   3.717 -0.3347  0.0908  0.6105
35317SOL    HW111271   9.758   5.161   3.662  0.8297  2.0916  1.2744
35317SOL    HW211272   9.764   5.027   3.731 -2.6363  1.4109  0.4824
35318SOL     OW11273   8.383   4.497   2.782 -0.1864 -0.2443  0.4092
35318SOL    HW111274   8.288   4.494   2.771 -0.0672  0.2452 -1.0355
35318SOL    HW211275   8.413   4.558   2.714  0.9447  1.5358  2.3693
35319SOL     OW11276   1.421   4.620   1.900 -0.6084  0.8542  0.3105
35319SOL    HW111277   1.510   4.646   1.877 -0.7718 -0.1705 -1.6637
35319SOL    HW211278   1.427   4.594   1.992  1.3229  0.0371  0.0024
35320SOL     OW11279   4.416   1.427   3.579 -0.3456  0.0817  0.3950
35320SOL    HW111280   4.425   1.456   3.670 -1.0333  0.2720  0.4080
35320SOL    HW211281   4.469   1.347   3.574 -0.6932 -0.1971  1.0902
35321SOL     OW11282  11.006   8.001   1.310 -0.2701 -0.0759  0.0579
35321SOL    HW111283  10.974   8.087   1.338 -1.4935 -0.7189  0.7608
35321SOL    HW211284  10.926   7.948   1.302  0.4324 -1.0485 -0.6997
35322SOL     OW11285   2.747   1.709   6.775  0.3281 -0.4167 -0.2657
35322SOL    HW111286   2.694   1.786   6.753  0.5261  0.2971  1.5882
35322SOL    HW211287   2.832   1.726   6.735  0.0121 -0.2331 -0.8656
35323SOL     OW11288   6.393  11.560   1.282 -0.3108  0.1988  0.4748
35323SOL    HW111289   6.320  11.573   1.343  0.1008  2.4390  0.5610
35323SOL    HW211290   6.458  11.510   1.333 -0.5130  0.9076  1.4677
35324SOL     OW11291   4.284   0.838   1.740 -0.2470  0.1194 -0.3702
35324SOL    HW111292   4.305   0.918   1.691 -1.1314 -0.1216 -1.1602
35324SOL    HW211293   4.368   0.811   1.778  0.2273  0.9448 -0.8006
35325SOL     OW11294   3.466   4.842   3.658 -0.2365  0.0134 -0.0291
35325SOL    HW111295   3.437   4.812   3.572  0.3427 -1.5968  0.3024
35325SOL    HW211296   3.551   4.883   3.642 -0.5101  0.4693 -0.3309
35326SOL     OW11297   8.962   6.059  11.322 -0.1902  0.4445 -0.1884
35326SOL    HW111298   8.994   6.045  11.233  1.8684  0.7864  0.4441
35326SOL    HW211299   8.980   6.151  11.339  3.2856 -0.4345  1.9050
35327SOL     OW11300  10.397   6.506   9.616  0.0031 -0.0763 -0.1797
35327SOL    HW111301  10.479   6.463   9.593 -0.2964 -0.3433 -0.7662
35327SOL    HW211302  10.342   6.498   9.538 -0.4047  0.5350  0.0353
35328SOL     OW11303   0.838  10.053   5.652  0.2428  0.4403  0.1523
35328SOL    HW111304   0.933  10.066   5.646  0.4448 -1.2554 -0.8107
35328SOL    HW211305   0.812  10.029   5.564 -0.6339 -1.8434  0.9714
35329SOL     OW11306   7.484   1.299  11.814 -0.2767 -0.2097  0.0676
35329SOL    HW111307   7.479   1.366  11.883 -0.9980 -0.8891  0.6899
35329SOL    HW211308   7.489   1.349  11.733  0.6252  0.6068  0.6101
35330SOL     OW11309   2.910   6.026   5.942  0.1131  0.0568 -0.0356
35330SOL    HW111310   2.968   5.994   6.011  0.8348  2.5850  0.6181
35330SOL    HW211311   2.846   6.081   5.987 -0.0128  0.9428 -1.2492
35331SOL     OW11312   5.304  10.084   0.096 -0.5103 -0.1688 -0.4725
35331SOL    HW111313   5.351  10.154   0.141 -1.1147 -0.3645  0.5104
35331SOL    HW211314   5.313  10.104   0.003  1.6081 -0.2685 -0.3458
35332SOL     OW11315   1.286  11.048   1.463  0.4009  0.6947 -0.3799
35332SOL    HW111316   1.283  11.021   1.555  0.1635 -2.6535 -1.2275
35332SOL    HW211317   1.200  11.021   1.428  1.1141  0.3245 -1.9251
35333SOL     OW11318   9.593   9.250   2.086  0.1908  0.1380 -0.3151
35333SOL    HW111319   9.574   9.248   1.992  1.5117  2.4118 -0.7057
35333SOL    HW211320   9.516   9.208   2.127 -1.4078  0.9725 -2.2866
35334SOL     OW11321   6.156   2.339   5.265 -0.0400 -0.3412 -0.0844
35334SOL    HW111322   6.247   2.370   5.269  0.1889 -1.0745  0.5330
35334SOL    HW211323   6.110   2.393   5.329  0.4024 -1.3833  1.1421
35335SOL     OW11324   1.273   4.038  10.249 -0.3849 -0.6519 -1.0409
35335SOL    HW111325   1.348   4.079  10.207 -0.0189 -0.3524 -0.1297
35335SOL    HW211326   1.198   4.063  10.195  0.0296 -0.0389 -1.3438
35336SOL     OW11327   4.854   6.036   6.045  0.1359  0.6565  0.4545
35336SOL    HW111328   4.826   6.042   5.954 -0.9176  3.4686  0.8869
35336SOL    HW211329   4.941   5.995   6.040  0.8621  2.2781 -1.9865
35337SOL     OW11330   2.038   7.757   6.392  0.1847 -0.1361  0.0409
35337SOL    HW111331   2.068   7.679   6.346  0.2782  0.5319 -1.0696
35337SOL    HW211332   2.119   7.806   6.410 -0.0159  0.6625 -1.0924
35338SOL     OW11333   1.035   8.376   1.214  0.2270  0.1610  0.1154
35338SOL    HW111334   0.970   8.314   1.247 -2.2781  1.5269 -1.8387
35338SOL    HW211335   1.059   8.342   1.127  0.3756  0.8522 -0.1257
35339SOL     OW11336   3.028  10.373   5.518  0.6579 -0.2490  0.1410
35339SOL    HW111337   3.094  10.308   5.543  1.9938  1.1931  0.5061
35339SOL    HW211338   3.056  10.454   5.560 -1.8077  0.2647  0.9708
35340SOL     OW11339   3.310   9.087   7.412  0.3184 -0.2193  0.0375
35340SOL    HW111340   3.376   9.138   7.459  0.0409 -0.5544  0.8255
35340SOL    HW211341   3.311   9.001   7.456 -2.0184  0.3682  1.4655
35341SOL     OW11342   9.607   6.965   7.281  0.0063  0.1312  0.0098
35341SOL    HW111343   9.618   6.965   7.186  1.1092 -1.5366  0.0938
35341SOL    HW211344   9.580   6.876   7.302  0.3319  0.3201  1.3176
35342SOL     OW11345   2.239   2.226   4.333 -0.3647  0.2547  0.3295
35342SOL    HW111346   2.211   2.237   4.424  0.9770  1.4311  0.6365
35342SOL    HW211347   2.283   2.141   4.331 -2.5696 -0.9590  0.1572
35343SOL     OW11348   5.639   7.553  10.989 -0.4384 -0.1942  0.1038
35343SOL    HW111349   5.592   7.569  11.070 -1.7966 -0.2512 -0.6471
35343SOL    HW211350   5.635   7.458  10.977 -2.3369  0.0058 -1.2083
35344SOL     OW11351  11.415  11.704   9.079 -0.2211  0.0801 -0.4097
35344SOL    HW111352  11.403  11.645   9.005 -1.1597  0.1485 -0.3260
35344SOL    HW211353  11.326  11.718   9.113 -0.1015  1.9150 -0.7394
35345SOL     OW11354   5.358   1.646   3.000  0.1043 -0.6365  0.1779
35345SOL    HW111355   5.434   1.691   2.962  0.0315 -0.0456  0.7174
35345SOL    HW211356   5.395   1.568   3.042  0.4928 -0.0823  0.8877
35346SOL     OW11357   1.998   4.869   5.500  0.6008 -0.2675  0.0395
35346SOL    HW111358   1.949   4.910   5.428  0.5363  0.4219  0.4754
35346SOL    HW211359   2.078   4.836   5.458  0.8264  0.6288 -0.2515
35347SOL     OW11360   8.907  11.153   3.159  0.0630 -0.2250  0.5874
35347SOL    HW111361   8.971  11.083   3.165  0.7811  0.0546 -2.1828
35347SOL    HW211362   8.944  11.224   3.210  0.8632 -0.8260  0.8647
35348SOL     OW11363   5.122   0.682   9.808 -0.2895  0.0867 -0.5604
35348SOL    HW111364   5.204   0.639   9.829 -1.6329 -1.8855  0.9721
35348SOL    HW211365   5.128   0.767   9.852  0.8486 -0.0903 -0.3387
35349SOL     OW11366   2.077   5.334  10.308  0.2112  0.6880  0.5692
35349SOL    HW111367   1.991   5.371  10.332  0.9856  1.4064  2.4486
35349SOL    HW211368   2.080   5.251  10.355 -0.2472 -0.3499 -1.1538
35350SOL     OW11369   6.348   7.669   1.548 -0.4386 -0.9528  0.0596
35350SOL    HW111370   6.266   7.638   1.585 -1.4214 -1.4922 -2.3745
35350SOL    HW211371   6.322   7.732   1.481  1.2062 -0.3107 -0.0292
35351SOL     OW11372   5.921  10.387   4.785 -0.1657 -0.4874 -1.0145
35351SOL    HW111373   5.839  10.398   4.832  0.2710 -2.0777  0.1980
35351SOL    HW211374   5.898  10.338   4.706 -0.4266 -0.7233 -0.7925
35352SOL     OW11375   6.106   8.339   9.216 -0.2098 -0.1039 -0.7432
35352SOL    HW111376   6.087   8.246   9.230  0.0960  0.1526  1.9914
35352SOL    HW211377   6.022   8.378   9.192 -0.4363 -1.0007 -1.4305
35353SOL     OW11378  11.492   9.174   6.859  0.1612  0.3992 -1.0562
35353SOL    HW111379  11.563   9.132   6.811 -0.6752 -0.0272 -1.9599
35353SOL    HW211380  11.509   9.268   6.849  0.8871  0.3059 -0.7885
35354SOL     OW11381   0.926   0.058   1.240  0.3865 -0.0693 -0.4705
35354SOL    HW111382   0.913   0.151   1.223  0.5132 -0.1047 -0.7560
35354SOL    HW211383   0.841   0.018   1.220  0.3913 -0.0424 -0.5464
35355SOL     OW11384   1.790   8.694   9.220 -0.3818 -0.4545  0.1959
35355SOL    HW111385   1.835   8.768   9.180 -0.2503 -1.6766 -2.0730
35355SOL    HW211386   1.788   8.715   9.313  2.1157  1.0813 -0.0001
35356SOL     OW11387  10.150   2.317   6.295  0.4264 -0.1294  0.2333
35356SOL    HW111388  10.167   2.378   6.223 -1.5258  1.7987  1.2908
35356SOL    HW211389  10.158   2.230   6.255 -0.0147  0.8563 -2.1794
35357SOL     OW11390  11.169   1.433   9.780  0.1168 -0.0522 -0.1595
35357SOL    HW111391  11.102   1.457   9.716 -1.1304 -0.0796  1.0816
35357SOL    HW211392  11.160   1.338   9.789 -0.8183  0.1322  1.1825
35358SOL     OW11393  11.688   4.060   3.065  0.0980 -0.1136  0.1222
35358SOL    HW111394  11.697   3.969   3.094 -0.7345 -0.0843  0.4866
35358SOL    HW211395  11.729   4.111   3.135 -1.3463 -0.0832  0.9754
35359SOL     OW11396   0.865   6.299   0.732 -0.4384  0.1807  0.3474
35359SOL    HW111397   0.769   6.298   0.731 -0.4352  0.0348  0.2869
35359SOL    HW211398   0.889   6.220   0.780 -0.3487  0.2606  0.4355
35360SOL     OW11399   4.022   9.825   9.139  0.1139  0.3270  0.2589
35360SOL    HW111400   4.006   9.899   9.080 -2.0382  0.6836  1.2082
35360SOL    HW211401   4.018   9.748   9.082 -1.0392  0.7184 -0.2039
35361SOL     OW11402   2.633   7.088   3.875  0.1168 -0.0481  0.2464
35361SOL    HW111403   2.675   7.163   3.917  1.6924 -1.0504  0.4948
35361SOL    HW211404   2.634   7.019   3.941  1.0924 -1.1119 -0.8478
35362SOL     OW11405   5.310   9.688  11.093 -0.7001 -0.4883  0.5704
35362SOL    HW111406   5.250   9.761  11.081  0.9058  1.2350  2.2322
35362SOL    HW211407   5.351   9.676  11.007 -0.7597  0.8124  0.3453
35363SOL     OW11408   5.698   0.024   3.570 -0.1507  0.0193  0.0723
35363SOL    HW111409   5.738   0.049   3.653 -0.7521  2.4131 -0.3019
35363SOL    HW211410   5.612   0.067   3.571 -1.1009 -1.7358 -0.8622
35364SOL     OW11411   1.392   3.082   9.161  1.2566 -0.4990  0.5000
35364SOL    HW111412   1.335   3.057   9.088  1.1349  2.3555 -0.4946
35364SOL    HW211413   1.479   3.090   9.121  1.2511  0.7534  0.7210
35365SOL     OW11414   2.841   0.376   8.076  0.4301 -0.0337  0.1902
35365SOL    HW111415   2.840   0.323   7.996  1.4289  0.9649 -0.5152
35365SOL    HW211416   2.933   0.377   8.103  0.1839  0.0900  1.0516
35366SOL     OW11417   6.717   3.123   5.891 -0.0648  0.5992 -0.5172
35366SOL    HW111418   6.685   3.213   5.891  1.4257  1.1612 -1.3895
35366SOL    HW211419   6.648   3.073   5.936 -1.9805  1.7661 -1.9792
35367SOL     OW11420   9.550   7.353   5.358  0.2767  0.3257 -0.3276
35367SOL    HW111421   9.483   7.293   5.391  0.4752 -0.1985 -0.8657
35367SOL    HW211422   9.507   7.399   5.285  0.9794 -1.1469 -1.7119
35368SOL     OW11423   6.532  10.374   3.301 -0.3689  0.9571  0.6586
35368SOL    HW111424   6.453  10.421   3.326 -1.0196 -0.7767  2.0657
35368SOL    HW211425   6.503  10.285   3.282  0.7842  1.0696 -2.1615
35369SOL     OW11426   6.515   1.018   1.417 -0.0123 -0.5660 -0.1508
35369SOL    HW111427   6.547   1.093   1.367  0.2130 -0.3506  0.3118
35369SOL    HW211428   6.567   1.019   1.498 -0.9474 -0.4127  0.4627
35370SOL     OW11429  11.393   9.884   1.690 -0.6101 -0.2651 -0.6188
35370SOL    HW111430  11.466   9.941   1.713 -2.3660  2.1477 -0.7298
35370SOL    HW211431  11.392   9.817   1.758  1.2034  0.1014 -0.1859
35371SOL     OW11432   3.027   4.546   5.835  0.0558  0.2580  0.2055
35371SOL    HW111433   3.120   4.569   5.832  0.1087  0.0055 -0.1716
35371SOL    HW211434   2.982   4.630   5.835  0.3032  0.4163  1.6715
35372SOL     OW11435  10.241   7.275   8.725  0.1515  0.0723  0.3994
35372SOL    HW111436  10.285   7.330   8.660 -1.9098 -1.0801 -2.1345
35372SOL    HW211437  10.300   7.200   8.736 -0.3075 -0.6596 -1.6918
35373SOL     OW11438   3.322   5.061   5.755 -0.1696  0.4121  0.2357
35373SOL    HW111439   3.395   5.120   5.735 -0.1917 -0.2372 -2.0402
35373SOL    HW211440   3.353   4.974   5.727 -1.9056  0.1841 -1.1789
35374SOL     OW11441   5.619  11.622   0.623 -0.0003 -0.2150  0.6719
35374SOL    HW111442   5.681  11.575   0.566 -1.2232 -0.0972 -0.8166
35374SOL    HW211443   5.586  11.556   0.683 -1.0760 -1.1294 -0.8593
35375SOL     OW11444   5.939   1.528  11.482  0.4236  0.4259 -0.0840
35375SOL    HW111445   5.939   1.451  11.425 -1.7267 -1.3138  2.0716
35375SOL    HW211446   5.932   1.602  11.421 -1.8981 -1.3162 -2.1336
35376SOL     OW11447   4.751   3.633   8.813 -0.0094  0.1276  0.1484
35376SOL    HW111448   4.752   3.671   8.725 -1.4487  0.7106  0.3492
35376SOL    HW211449   4.686   3.563   8.808  2.0607 -1.8762 -0.0081
35377SOL     OW11450   8.503   6.860   4.702 -0.2502  0.1843  0.8056
35377SOL    HW111451   8.520   6.952   4.717  0.4120 -0.2487  2.9576
35377SOL    HW211452   8.418   6.843   4.743 -0.8214 -0.0147 -0.3818
35378SOL     OW11453   7.198   3.348  11.042 -0.1893  0.0761  0.6722
35378SOL    HW111454   7.245   3.402  10.979 -0.0973  1.5578  1.9370
35378SOL    HW211455   7.264   3.323  11.107 -0.9164  1.5644  2.0711
35379SOL     OW11456   3.998   0.163   7.471  1.0425  0.4272 -0.0578
35379SOL    HW111457   4.082   0.209   7.476  1.1421  0.1646  0.8382
35379SOL    HW211458   3.935   0.231   7.446  1.2766  0.9462  0.7466
35380SOL     OW11459   9.650   5.275   6.427 -0.0932 -0.4633  0.3246
35380SOL    HW111460   9.588   5.339   6.393 -2.5115 -2.3918  0.7809
35380SOL    HW211461   9.677   5.225   6.349  0.2555 -0.1435  0.2383
35381SOL     OW11462   3.586   0.883   2.067  0.2493  0.3016  0.1158
35381SOL    HW111463   3.492   0.872   2.080  0.1959 -0.6969 -0.9211
35381SOL    HW211464   3.615   0.799   2.031  1.0378  1.4417 -2.1248
35382SOL     OW11465   5.384   1.038  10.932 -0.1767 -0.3190 -0.1417
35382SOL    HW111466   5.469   1.055  10.892  0.4508 -0.5197  1.0756
35382SOL    HW211467   5.371   1.110  10.993 -0.9229 -0.2435 -0.3869
35383SOL     OW11468   0.710   0.516   4.690  0.2867  0.7142 -0.3236
35383SOL    HW111469   0.765   0.457   4.740  1.3729  0.1084 -2.1553
35383SOL    HW211470   0.656   0.459   4.636 -1.5145  1.3280  0.7298
35384SOL     OW11471  11.153   7.781   8.926 -0.3963 -0.5033  0.3425
35384SOL    HW111472  11.066   7.814   8.904  0.6724  0.8642 -2.2623
35384SOL    HW211473  11.196   7.854   8.971  0.6269  0.3378 -1.8519
35385SOL     OW11474   7.729   0.862  11.576  0.2694 -0.1002  0.3423
35385SOL    HW111475   7.707   0.939  11.628  0.2434  0.2285 -0.1591
35385SOL    HW211476   7.648   0.810  11.574  0.0340  0.2871 -0.0730
35386SOL     OW11477   9.819  11.456  10.559  0.6800  0.2894 -0.5848
35386SOL    HW111478   9.731  11.467  10.525  0.5272  2.0703  0.2542
35386SOL    HW211479   9.876  11.462  10.482  0.2782  3.1802 -0.7803
35387SOL     OW11480   0.581   8.261   2.964 -0.3151  0.3889  0.0107
35387SOL    HW111481   0.606   8.250   3.055 -0.5601  1.9226  0.2867
35387SOL    HW211482   0.549   8.175   2.937  0.1055 -0.1736  1.2531
35388SOL     OW11483   4.811   6.697   5.779  0.4053  0.6355 -0.1651
35388SOL    HW111484   4.826   6.637   5.851 -1.1974  0.8498  0.3680
35388SOL    HW211485   4.804   6.641   5.702 -0.9545  0.1202  0.3069
35389SOL     OW11486   6.527  10.324   2.163 -0.6512  0.1703  0.3575
35389SOL    HW111487   6.582  10.388   2.118 -0.5305 -0.3814 -0.2891
35389SOL    HW211488   6.484  10.374   2.233 -0.0086  0.7924  0.3106
35390SOL     OW11489   9.676   2.517   0.612 -0.3452  0.5412 -0.2153
35390SOL    HW111490   9.642   2.517   0.523  1.1381  0.8716 -0.8081
35390SOL    HW211491   9.727   2.436   0.618  1.4597  1.6112 -0.4611
35391SOL     OW11492   7.883   5.129   7.912 -0.4564 -0.1456  0.4073
35391SOL    HW111493   7.910   5.200   7.854 -0.7548  0.1815  0.6636
35391SOL    HW211494   7.957   5.068   7.912 -0.6938 -0.4501 -0.7856
35392SOL     OW11495   3.078   7.128  10.810  0.2084  0.0215  0.1889
35392SOL    HW111496   3.011   7.099  10.872 -0.2827 -1.8576 -1.1388
35392SOL    HW211497   3.160   7.098  10.849  0.1768  1.1185  1.1479
35393SOL     OW11498   0.826   5.776   7.970 -0.2311  0.5041  0.4423
35393SOL    HW111499   0.783   5.829   7.902  2.3115  0.3323 -1.4392
35393SOL    HW211500   0.816   5.686   7.940 -1.1437  0.2065  1.5887
35394SOL     OW11501  10.103   7.898   9.101 -0.3165  0.2401 -0.0946
35394SOL    HW111502  10.135   7.907   9.191  0.0961 -1.1381 -0.0939
35394SOL    HW211503  10.113   7.986   9.064  0.6341  0.5452  0.8331
35395SOL     OW11504   5.297   9.530   4.567 -0.3225 -0.5850  0.0657
35395SOL    HW111505   5.233   9.516   4.637 -0.8504  1.9080  0.1910
35395SOL    HW211506   5.332   9.618   4.584  1.3410 -0.8965 -1.4241
35396SOL     OW11507   5.747   1.245   4.938 -0.2250 -0.5315 -0.0250
35396SOL    HW111508   5.723   1.259   4.847 -1.5047  0.8160  0.4668
35396SOL    HW211509   5.760   1.333   4.973  0.3443 -1.0254  1.0634
35397SOL     OW11510   3.670   4.912   3.270 -0.2767  0.0615 -0.3109
35397SOL    HW111511   3.730   4.977   3.231  0.8291  0.0926  1.3411
35397SOL    HW211512   3.610   4.965   3.322  0.1210 -0.1698  0.3908
35398SOL     OW11513  11.319   7.389   6.477  0.3354 -0.2915  0.7341
35398SOL    HW111514  11.307   7.295   6.487 -0.0703 -0.0676  2.7657
35398SOL    HW211515  11.414   7.402   6.475  0.3957 -0.8240 -0.7982
35399SOL     OW11516   2.892  11.572  10.135 -0.7519  0.4988 -0.6989
35399SOL    HW111517   2.812  11.580  10.186 -2.9307 -2.6192 -3.2048
35399SOL    HW211518   2.896  11.653  10.084 -2.1523  0.8421 -0.3074
35400SOL     OW11519   0.827  10.283  10.366  0.3003 -0.2377  0.1972
35400SOL    HW111520   0.813  10.280  10.272 -0.8860 -2.0887  0.3770
35400SOL    HW211521   0.760  10.343  10.399 -1.6206 -2.2190  0.1453
35401SOL     OW11522   5.594   0.396   5.045 -0.1943  0.4944  0.2975
35401SOL    HW111523   5.678   0.436   5.020 -0.4789  0.0127 -1.5419
35401SOL    HW211524   5.534   0.422   4.976 -0.9264 -1.2891  0.2318
35402SOL     OW11525   6.281  10.503   3.365 -0.1364  0.8331 -1.0301
35402SOL    HW111526   6.265  10.596   3.379 -1.4793  0.5849 -0.8066
35402SOL    HW211527   6.280  10.492   3.270 -0.0531  1.0321 -1.0531
35403SOL     OW11528   1.674  11.431   1.907  0.4492  0.4810  1.0202
35403SOL    HW111529   1.763  11.446   1.941  0.4268  2.5809  0.3242
35403SOL    HW211530   1.629  11.515   1.920 -1.6682 -0.7194  1.9432
35404SOL     OW11531   2.912   5.106   3.720 -0.0821 -0.0740 -0.2925
35404SOL    HW111532   2.992   5.125   3.670 -0.2632  0.8218 -0.2595
35404SOL    HW211533   2.923   5.154   3.802 -1.1088  0.9726 -0.7216
35405SOL     OW11534  10.526   0.615   6.313  0.4131  0.1991 -0.8265
35405SOL    HW111535  10.558   0.525   6.324  0.2730 -0.4263 -4.3830
35405SOL    HW211536  10.445   0.618   6.363  0.8796 -1.3637  0.0868
35406SOL     OW11537  10.485   7.523   6.039 -0.1124  0.3309  0.3906
35406SOL    HW111538  10.428   7.474   6.099 -0.8289  0.6454 -0.0202
35406SOL    HW211539  10.455   7.498   5.952  0.3248  0.5701  0.1712
35407SOL     OW11540   4.561   8.632   4.190  0.2968 -0.0220  0.4645
35407SOL    HW111541   4.595   8.722   4.196  0.2944  0.0366 -0.3092
35407SOL    HW211542   4.470   8.643   4.164  0.6950 -0.2748 -1.1282
35408SOL     OW11543   5.233   3.718   3.516  0.2155  0.1607 -0.4853
35408SOL    HW111544   5.292   3.777   3.562 -0.0325  0.7916 -0.9525
35408SOL    HW211545   5.287   3.675   3.450  0.0074  1.3566 -1.4721
35409SOL     OW11546   8.161   0.196   3.601  0.0258  0.0557 -0.1863
35409SOL    HW111547   8.219   0.240   3.539  1.3981 -0.1009  0.9159
35409SOL    HW211548   8.085   0.254   3.608  0.9407  1.3172 -0.2083
35410SOL     OW11549   1.250   5.605   1.819 -0.0474  0.4021  0.2936
35410SOL    HW111550   1.181   5.542   1.798  0.0303  0.5432 -0.4083
35410SOL    HW211551   1.215   5.689   1.789 -0.7026  0.9360  2.3778
35411SOL     OW11552   0.948   0.023   0.928  0.3903 -0.0538  0.0730
35411SOL    HW111553   0.942   0.083   1.003 -3.1594  1.0184 -0.8493
35411SOL    HW211554   1.017   0.059   0.873  0.1482  1.6517  0.8303
35412SOL     OW11555  11.062   5.055   6.023  0.3640  0.0461 -0.6584
35412SOL    HW111556  11.107   4.975   6.052 -0.0945 -0.6446 -1.7785
35412SOL    HW211557  11.132   5.111   5.990  0.6480 -0.0502 -0.2309
35413SOL     OW11558  10.073  10.884  10.971 -0.2898 -0.0504  0.7898
35413SOL    HW111559  10.075  10.884  10.875 -0.9008 -1.0571  0.7600
35413SOL    HW211560  10.102  10.796  10.996  0.4046  0.3786  1.5574
35414SOL     OW11561   7.717   4.880   1.169  0.2863  0.3962 -0.0420
35414SOL    HW111562   7.757   4.812   1.223 -1.3726  0.0015  0.7577
35414SOL    HW211563   7.649   4.918   1.224 -1.1163  0.3404 -1.6557
35415SOL     OW11564  10.733   2.297   3.905 -0.4415  0.1608  0.2342
35415SOL    HW111565  10.749   2.244   3.827  2.3549 -0.5496  1.1775
35415SOL    HW211566  10.771   2.382   3.885  1.7614 -0.4952  1.2793
35416SOL     OW11567   5.073   2.600   4.325  0.2783  0.4982 -0.2459
35416SOL    HW111568   5.064   2.694   4.314 -0.6712  0.4768  0.2348
35416SOL    HW211569   5.081   2.566   4.236  0.5460  1.0221 -0.4277
35417SOL     OW11570  11.382   3.464   8.034 -0.2094  0.2119  0.4211
35417SOL    HW111571  11.387   3.551   7.994 -1.1364  0.4487  0.7991
35417SOL    HW211572  11.348   3.480   8.122 -0.4284 -0.5413  0.4785
35418SOL     OW11573  10.412   7.023   7.618 -0.2079 -0.1241  0.0268
35418SOL    HW111574  10.353   6.983   7.683 -0.5775 -1.0279 -0.8291
35418SOL    HW211575  10.446   7.101   7.661 -1.3642 -0.0540  0.8700
35419SOL     OW11576   7.455   3.595  11.533 -0.3863  0.5917  0.1732
35419SOL    HW111577   7.443   3.686  11.506  1.3260  0.0161 -3.0109
35419SOL    HW211578   7.539   3.594  11.579 -0.0055  0.5318 -0.5076
35420SOL     OW11579   1.197   5.894   8.754  0.5086  0.3821 -0.0452
35420SOL    HW111580   1.261   5.853   8.812  0.9495 -1.4050 -1.6652
35420SOL    HW211581   1.228   5.984   8.744  2.6129 -0.3130 -0.4666
35421SOL     OW11582   5.750   4.525   5.711  0.1456  0.2084  0.1418
35421SOL    HW111583   5.811   4.457   5.682  0.1393 -0.0331  0.6965
35421SOL    HW211584   5.726   4.501   5.800  1.3037  1.7503  0.9187
35422SOL     OW11585   1.549   9.749   7.950  0.2163 -0.2421  0.2691
35422SOL    HW111586   1.608   9.729   7.878  1.8061 -0.2787  1.5195
35422SOL    HW211587   1.508   9.832   7.926  0.6031 -0.3263 -0.7209
35423SOL     OW11588   7.615  10.855  10.536 -0.3708  0.1998 -0.6741
35423SOL    HW111589   7.638  10.766  10.565 -0.5693 -0.6874 -3.0573
35423SOL    HW211590   7.579  10.897  10.615  0.2589 -1.6187  0.6562
35424SOL     OW11591   0.768   6.798   9.641  0.0056 -0.0405 -0.0755
35424SOL    HW111592   0.818   6.832   9.715  0.0288 -0.1315 -0.0498
35424SOL    HW211593   0.728   6.875   9.601  1.5007  0.2549 -1.1097
35425SOL     OW11594   7.773   3.830   5.880  0.5212  0.1651  0.2075
35425SOL    HW111595   7.696   3.830   5.822  1.0046  3.6520 -0.6815
35425SOL    HW211596   7.846   3.806   5.823  0.5439  0.2798  0.1875
35426SOL     OW11597  11.792  11.042   1.523  0.2520 -0.3115 -0.4683
35426SOL    HW111598  11.718  11.102   1.533 -1.8564 -2.8137  0.3158
35426SOL    HW211599  11.866  11.089   1.561 -1.4676  1.4367  0.9682
35427SOL     OW11600   0.490   8.039   5.943  0.5452  0.6895  0.5745
35427SOL    HW111601   0.511   8.098   6.015 -0.4316 -1.5340  2.8335
35427SOL    HW211602   0.420   7.983   5.977 -0.5001 -0.0003 -2.3978
35428SOL     OW11603   6.506   6.380  11.556 -0.0537  0.0413 -0.7009
35428SOL    HW111604   6.466   6.350  11.638  0.4948 -2.9192 -1.4120
35428SOL    HW211605   6.595   6.404  11.581 -0.4918  1.1637 -0.1202
35429SOL     OW11606  10.831   8.318  10.973 -0.6471  0.0940  0.0120
35429SOL    HW111607  10.886   8.396  10.984 -1.9345  1.4116 -2.0878
35429SOL    HW211608  10.889   8.252  10.937 -0.1382  1.0618 -1.0061
35430SOL     OW11609  10.700   0.237   3.457  0.3683 -0.1920 -0.3189
35430SOL    HW111610  10.718   0.224   3.363  0.4267 -0.2640 -0.2979
35430SOL    HW211611  10.605   0.231   3.464  0.3190  0.3463 -0.4566
35431SOL     OW11612  10.437  10.954  10.621 -0.1613 -0.0351  0.2917
35431SOL    HW111613  10.343  10.967  10.624 -0.3723 -1.4026  0.5625
35431SOL    HW211614  10.461  10.968  10.530 -1.0524 -2.0519 -0.3182
35432SOL     OW11615   8.967   8.924   8.119  0.1678 -0.1483  0.2734
35432SOL    HW111616   8.917   8.947   8.041 -1.2737  0.0442  1.2036
35432SOL    HW211617   9.008   9.006   8.147  0.2177 -0.0951  0.0412
35433SOL     OW11618   3.617   1.052   9.696 -0.1532 -0.1655  0.1254
35433SOL    HW111619   3.696   1.016   9.656 -0.5948 -2.4258  1.1424
35433SOL    HW211620   3.646   1.084   9.782 -0.2408 -0.4338  0.2537
35434SOL     OW11621   0.701   1.788   6.874  0.2986 -0.2262  0.3221
35434SOL    HW111622   0.731   1.872   6.907  3.2589 -1.4375  1.0005
35434SOL    HW211623   0.681   1.803   6.782  0.3415  1.2856  0.5418
35435SOL     OW11624   1.765   4.446   7.761  0.4413  0.2875  0.1769
35435SOL    HW111625   1.780   4.355   7.738 -2.1929 -0.0275 -0.6209
35435SOL    HW211626   1.842   4.492   7.729  0.7524 -1.3441 -1.5978
35436SOL     OW11627   8.962   3.680   6.911  0.1206 -0.3624 -0.2781
35436SOL    HW111628   8.956   3.585   6.924 -0.1646 -0.3490 -0.2899
35436SOL    HW211629   8.936   3.717   6.996  1.9766 -0.3057  0.3006
35437SOL     OW11630   5.226   4.341   7.386  0.0313 -0.3406 -0.1426
35437SOL    HW111631   5.295   4.300   7.336 -0.4363  0.4191 -1.4543
35437SOL    HW211632   5.167   4.379   7.321  0.0497  1.7630  0.9685
35438SOL     OW11633   3.076   3.852   5.259  0.6276 -0.2941  0.4086
35438SOL    HW111634   3.136   3.882   5.327  0.9642 -1.0044  0.4339
35438SOL    HW211635   3.002   3.814   5.306 -0.3938  1.5454  0.3962
35439SOL     OW11636   8.371   4.371   0.276 -0.0150  1.0484  0.3135
35439SOL    HW111637   8.306   4.303   0.254  0.7597  0.6982 -1.0318
35439SOL    HW211638   8.353   4.392   0.367 -1.4079  0.2795  0.2583
35440SOL     OW11639   3.645   4.572   1.602 -0.2369 -0.2211 -0.4074
35440SOL    HW111640   3.612   4.661   1.594 -0.6901 -0.4658 -1.5212
35440SOL    HW211641   3.665   4.546   1.512  0.7996 -0.9077  0.0035
35441SOL     OW11642   4.615   9.369   9.845  0.0761  0.0917  0.5457
35441SOL    HW111643   4.710   9.361   9.833  0.5396  1.3006  2.7887
35441SOL    HW211644   4.591   9.293   9.898 -0.2071 -0.1815  0.0292
35442SOL     OW11645   2.885   6.074   4.597 -0.2301  0.0110  0.9788
35442SOL    HW111646   2.966   6.024   4.581 -0.4225  0.0850 -0.3090
35442SOL    HW211647   2.915   6.163   4.614 -0.0909  0.7202 -2.3183
35443SOL     OW11648   6.936   5.799   7.240  0.2268 -0.4820 -0.9378
35443SOL    HW111649   6.943   5.891   7.217 -0.9722  0.1422  1.0319
35443SOL    HW211650   6.843   5.779   7.230 -0.3283 -0.2799  2.6611
35444SOL     OW11651   5.459   3.203   8.004  0.6826 -0.2880  0.3041
35444SOL    HW111652   5.493   3.290   8.027  0.5816  0.1345 -1.0454
35444SOL    HW211653   5.527   3.164   7.950  0.6532 -0.9966  0.7631
35445SOL     OW11654   5.235   4.611   9.237  0.1985  0.4678  0.1915
35445SOL    HW111655   5.272   4.573   9.157 -0.9648  0.3334 -0.2909
35445SOL    HW211656   5.294   4.582   9.306  0.6776 -0.2161 -0.4890
35446SOL     OW11657   6.373  11.016   9.205  0.2810  0.3301  0.3819
35446SOL    HW111658   6.448  11.074   9.221  0.0763  0.6922  0.0454
35446SOL    HW211659   6.304  11.051   9.262 -0.1974  1.1250 -0.6537
35447SOL     OW11660   4.467   3.604   8.697 -0.0504  0.2915  0.5485
35447SOL    HW111661   4.427   3.682   8.736 -2.4774 -0.6793  0.2210
35447SOL    HW211662   4.511   3.636   8.618 -0.8909  1.3630  0.4898
35448SOL     OW11663  10.454   1.366   5.363 -0.2486 -0.2878  0.0504
35448SOL    HW111664  10.472   1.452   5.401 -0.1642 -0.2251 -0.1326
35448SOL    HW211665  10.412   1.385   5.279 -1.5615 -0.4373  0.6542
35449SOL     OW11666   1.341   7.521   3.658 -0.4481  0.3607  0.3192
35449SOL    HW111667   1.338   7.547   3.750 -0.4472  1.0978  0.1188
35449SOL    HW211668   1.414   7.459   3.653 -0.5893  0.1438  0.8504
35450SOL     OW11669   0.059   6.127   6.745  0.3409 -0.0088 -0.7574
35450SOL    HW111670  -0.003   6.200   6.739  0.6584  0.2726 -0.6583
35450SOL    HW211671   0.134   6.163   6.794 -1.0389 -1.4523  2.7317
35451SOL     OW11672   1.975   4.207   0.587  0.1672 -0.0005 -0.7010
35451SOL    HW111673   2.020   4.248   0.661  0.5543  1.3262 -1.6324
35451SOL    HW211674   2.043   4.198   0.520 -0.9885  2.6386 -2.3759
35452SOL     OW11675   5.011   8.794   5.464 -0.0028  0.4572  0.4080
35452SOL    HW111676   4.978   8.808   5.375 -0.2316  0.9196  0.5646
35452SOL    HW211677   4.993   8.702   5.482 -1.2521  0.7034  0.5000
35453SOL     OW11678   6.363  11.441   0.127 -0.1336  0.2557 -0.0427
35453SOL    HW111679   6.293  11.389   0.087  0.7952 -0.3181 -0.9885
35453SOL    HW211680   6.432  11.377   0.146  0.0857  0.7887  0.9882
35454SOL     OW11681   3.093   8.485  11.323  0.0747  0.5062  0.1144
35454SOL    HW111682   3.160   8.534  11.373  0.2709  0.5991 -0.2354
35454SOL    HW211683   3.127   8.396  11.320  0.1756  0.5503 -0.0509
35455SOL     OW11684   9.270   3.949  10.895 -0.0802  0.0306 -0.1445
35455SOL    HW111685   9.337   4.014  10.876  0.4494  0.3782  2.5250
35455SOL    HW211686   9.194   3.977  10.844  0.2199  2.6026  0.6804
35456SOL     OW11687   9.222   8.040  10.109  0.2035 -0.2250  0.3014
35456SOL    HW111688   9.292   7.980  10.084 -0.9082 -1.2525 -0.4649
35456SOL    HW211689   9.156   8.031  10.040 -0.7288  0.6437  1.0370
35457SOL     OW11690  11.566   6.198  11.660 -0.0291 -0.4261 -0.0427
35457SOL    HW111691  11.509   6.223  11.732 -0.8681 -0.7402 -0.5798
35457SOL    HW211692  11.625   6.272  11.649 -1.3574  0.6102 -0.4792
35458SOL     OW11693   7.620   2.368   9.681  0.4475 -0.4273  0.1361
35458SOL    HW111694   7.653   2.407   9.600 -0.3045 -0.3426 -0.1391
35458SOL    HW211695   7.697   2.362   9.738  0.9653 -0.4013 -0.5460
35459SOL     OW11696   6.875   9.955   4.887 -0.6811 -0.5215  0.0387
35459SOL    HW111697   6.780   9.956   4.900 -0.4654 -0.8560  2.0317
35459SOL    HW211698   6.887   9.913   4.802 -2.3245 -0.0383 -0.4702
35460SOL     OW11699   6.723   8.119   3.023  0.3131  0.3938 -0.4289
35460SOL    HW111700   6.736   8.145   2.931  3.6474 -0.4318 -0.3358
35460SOL    HW211701   6.778   8.180   3.072  0.3649 -0.5858  0.7713
35461SOL     OW11702   7.691   3.029   1.898  0.0866  0.4315  0.1580
35461SOL    HW111703   7.734   3.114   1.886  0.2405  0.4530  0.8339
35461SOL    HW211704   7.734   2.991   1.974  1.8764 -1.4352 -1.6408
35462SOL     OW11705  11.223  10.793  11.267  0.1867  0.3042  0.7792
35462SOL    HW111706  11.137  10.809  11.307  0.0692 -1.4070  1.2919
35462SOL    HW211707  11.282  10.781  11.341  0.4186 -0.6930  0.4437
35463SOL     OW11708   1.819   5.502   7.251  0.7163  0.0886 -0.2813
35463SOL    HW111709   1.871   5.450   7.312  0.8850 -0.1854 -0.6486
35463SOL    HW211710   1.869   5.500   7.169  1.6251  2.3069  0.1487
35464SOL     OW11711   0.389   7.918   7.953  0.3814  0.7260 -0.0555
35464SOL    HW111712   0.437   7.904   7.871  0.7292 -0.7863  0.3805
35464SOL    HW211713   0.300   7.888   7.933  1.0478 -2.0556  0.7832
35465SOL     OW11714   7.308   7.927  10.040  0.0386  0.1152  0.1884
35465SOL    HW111715   7.388   7.893  10.081 -1.3020 -2.7127  0.7169
35465SOL    HW211716   7.254   7.956  10.113 -0.1865  0.1732 -0.0014
35466SOL     OW11717   9.434   0.559   3.984 -0.0851  0.8102  0.1619
35466SOL    HW111718   9.382   0.480   3.976  1.8354 -0.4244 -0.7442
35466SOL    HW211719   9.387   0.624   3.931 -1.5343  0.2300  0.6921
35467SOL     OW11720   4.735   8.358   2.040  0.1919  0.3125  0.3104
35467SOL    HW111721   4.762   8.437   2.087 -1.0849 -0.1835  1.9337
35467SOL    HW211722   4.712   8.296   2.108 -3.0446  0.0001 -0.9227
35468SOL     OW11723   5.977   0.076   5.456  0.3713 -0.3948 -0.0247
35468SOL    HW111724   6.033   0.035   5.390 -1.1280 -1.4551 -0.6728
35468SOL    HW211725   5.924   0.005   5.490 -1.0995  0.7025  0.0468
35469SOL     OW11726   1.269  11.708   3.210  0.2897  0.2885 -0.0266
35469SOL    HW111727   1.252  11.678   3.299  1.0191 -0.7660 -0.2312
35469SOL    HW211728   1.328  11.643   3.173  1.8847  1.9246 -0.5323
35470SOL     OW11729  10.785   0.752   3.906  0.0552 -0.2104 -0.0325
35470SOL    HW111730  10.878   0.765   3.927 -0.4241 -0.7010  2.7526
35470SOL    HW211731  10.786   0.685   3.838  1.7618  0.5331 -0.8105
35471SOL     OW11732   6.126  10.230   1.388  0.0102 -0.0043 -0.3191
35471SOL    HW111733   6.210  10.232   1.433 -1.0247 -0.3799  1.7273
35471SOL    HW211734   6.116  10.138   1.361 -0.0087 -0.0930 -0.0154
35472SOL     OW11735   6.889  10.686   2.087 -0.6241  0.1053  0.1082
35472SOL    HW111736   6.935  10.606   2.065 -0.3266  0.7618 -1.7879
35472SOL    HW211737   6.872  10.679   2.181  1.6194 -1.0168  0.4894
35473SOL     OW11738   1.328   4.861  10.629  0.5248  0.1657  0.0994
35473SOL    HW111739   1.409   4.828  10.591  1.1159  0.8708  0.7111
35473SOL    HW211740   1.356   4.913  10.705 -0.3849  1.5545 -0.4686
35474SOL     OW11741   6.300  11.472   8.101  0.0835  0.1227  0.6481
35474SOL    HW111742   6.351  11.419   8.162 -0.1215  0.7390  1.3758
35474SOL    HW211743   6.229  11.415   8.072 -1.5792  0.6790  3.3107
35475SOL     OW11744   2.944   4.095   4.533 -0.0999  0.6210 -0.5507
35475SOL    HW111745   3.032   4.059   4.532  0.9189  2.7955  1.1070
35475SOL    HW211746   2.939   4.151   4.455  0.2526  1.0179 -0.2934
35476SOL     OW11747  10.641   7.241   1.947  0.4072  0.2576 -0.1917
35476SOL    HW111748  10.681   7.249   2.034 -0.8856 -3.2883  0.8965
35476SOL    HW211749  10.548   7.256   1.962  0.5336  3.5521 -1.8183
35477SOL     OW11750   7.204   9.557   9.031  0.4490  0.1573  0.1611
35477SOL    HW111751   7.235   9.630   8.978  1.0458 -0.2693 -0.1015
35477SOL    HW211752   7.109   9.562   9.027  0.4842  0.9820  0.2424
35478SOL     OW11753  10.993   1.694   3.903  0.0387  0.1486 -0.9773
35478SOL    HW111754  11.027   1.767   3.852 -0.0039  0.2110 -0.9166
35478SOL    HW211755  11.071   1.646   3.932  0.1778  1.2835  0.6516
35479SOL     OW11756  11.303   1.910   1.812  0.4950  0.2362  0.0941
35479SOL    HW111757  11.364   1.984   1.818  1.4912 -0.5249 -0.2799
35479SOL    HW211758  11.356   1.840   1.774 -0.7440 -0.3262 -0.6360
35480SOL     OW11759   7.988   1.437   1.534 -0.2517  0.2395  0.1275
35480SOL    HW111760   8.004   1.343   1.545 -0.6192  0.2487  0.8690
35480SOL    HW211761   7.995   1.452   1.440 -2.2986 -0.9399 -0.2766
35481SOL     OW11762   3.461  11.109   3.489 -0.2250 -0.3819 -0.2535
35481SOL    HW111763   3.425  11.191   3.454  1.5258  0.3189 -0.5261
35481SOL    HW211764   3.551  11.107   3.457  0.2719 -1.6039  1.1130
35482SOL     OW11765   1.522   3.375   6.288 -0.4172  0.0230  0.1688
35482SOL    HW111766   1.603   3.378   6.237 -0.1997  0.0297  0.5076
35482SOL    HW211767   1.466   3.313   6.241 -0.2914  0.1654 -0.1740
35483SOL     OW11768   6.040   7.169   1.222  0.0953 -0.0846  0.3198
35483SOL    HW111769   6.084   7.220   1.154 -0.7026  0.0675 -0.0872
35483SOL    HW211770   6.109   7.152   1.287  0.9835 -0.6098 -0.7317
35484SOL     OW11771   0.066   6.614   5.475 -0.1156  0.0726  0.0861
35484SOL    HW111772   0.012   6.546   5.434 -1.6162  1.7183 -0.8501
35484SOL    HW211773   0.048   6.605   5.569  0.1964 -1.1963  0.0368
35485SOL     OW11774   3.079  11.465   9.794 -0.3118 -0.5152  0.3132
35485SOL    HW111775   3.085  11.377   9.757 -0.7254 -1.1805  1.7225
35485SOL    HW211776   3.156  11.472   9.851 -0.8923 -0.4475  1.1197
35486SOL     OW11777   6.817  11.197   8.330  0.1483 -0.0798  0.1077
35486SOL    HW111778   6.862  11.232   8.253  0.3557 -0.0751  0.2310
35486SOL    HW211779   6.763  11.270   8.361 -0.0984 -0.1497 -0.1574
35487SOL     OW11780   2.619   5.148   5.593  0.1850  0.1222  0.8179
35487SOL    HW111781   2.570   5.133   5.512  1.9059 -0.2403 -0.2245
35487SOL    HW211782   2.619   5.243   5.605 -0.7193  0.1276  0.8293
35488SOL     OW11783   4.457   2.417   6.356 -0.1209  0.0648  0.3648
35488SOL    HW111784   4.500   2.334   6.376  2.2750  0.6995 -1.6911
35488SOL    HW211785   4.408   2.401   6.276 -0.5566  0.3600  0.5668
35489SOL     OW11786   7.095   0.489   9.895  0.3079 -0.1619 -0.1490
35489SOL    HW111787   7.086   0.397   9.871 -1.2743  0.4471 -2.1890
35489SOL    HW211788   7.096   0.489   9.991 -0.0084 -2.2447 -0.1003
35490SOL     OW11789   2.272   6.411   9.703  0.4220 -0.0441  0.1634
35490SOL    HW111790   2.222   6.344   9.657  0.2604  1.1181 -1.4493
35490SOL    HW211791   2.312   6.365   9.776 -0.7203 -1.6089 -0.1418
35491SOL     OW11792   1.841   1.267   7.152  0.3689 -0.4354 -0.4935
35491SOL    HW111793   1.928   1.306   7.160 -0.1576  0.6469  0.3838
35491SOL    HW211794   1.782   1.335   7.185 -0.5217 -2.3741  2.3026
35492SOL     OW11795   6.612   1.498   4.081 -0.0963  0.5424 -0.3490
35492SOL    HW111796   6.660   1.529   4.004 -0.7507  0.8801 -0.6296
35492SOL    HW211797   6.572   1.577   4.118  1.1994  0.5907  1.0590
35493SOL     OW11798   1.989   5.265   0.630  0.2794 -0.5512  0.1463
35493SOL    HW111799   1.929   5.336   0.605 -0.2081 -1.2443 -0.6794
35493SOL    HW211800   2.076   5.300   0.611  0.0131 -0.3930 -0.8437
35494SOL     OW11801   7.392   5.545   9.600  0.1064 -0.1845  0.4854
35494SOL    HW111802   7.358   5.630   9.574  0.7482 -0.3569 -0.9787
35494SOL    HW211803   7.374   5.540   9.694  3.4759  3.2348  1.5771
35495SOL     OW11804   5.967   8.315   0.841 -0.0670  0.3456 -0.3353
35495SOL    HW111805   6.026   8.289   0.770  0.5558  1.6539 -0.3389
35495SOL    HW211806   5.903   8.373   0.799 -0.5832 -0.0334 -0.0864
35496SOL     OW11807   4.634   1.686   2.701  0.1442  0.0990  0.7226
35496SOL    HW111808   4.640   1.774   2.737 -0.5423  0.4172  0.1079
35496SOL    HW211809   4.592   1.634   2.769  1.4533 -0.0093  1.4819
35497SOL     OW11810   1.353   1.850   4.593  0.0402  0.2605 -0.2080
35497SOL    HW111811   1.320   1.797   4.520 -0.4782 -2.2523  1.7249
35497SOL    HW211812   1.275   1.868   4.646  0.5344  1.4453  0.1483
35498SOL     OW11813  11.482   2.932   8.650  0.2228 -0.2752  0.2811
35498SOL    HW111814  11.427   2.930   8.572  0.9256  0.3902 -0.2544
35498SOL    HW211815  11.445   2.866   8.709 -1.2795  0.3271  0.0400
35499SOL     OW11816   2.629   7.394   3.981 -0.0701  0.2613  0.0111
35499SOL    HW111817   2.611   7.480   4.020  3.8717  0.9218  0.7079
35499SOL    HW211818   2.648   7.413   3.889 -0.0347 -0.0250 -0.0423
35500SOL     OW11819   4.105   9.970   5.952 -0.3083 -0.0889  0.4044
35500SOL    HW111820   4.199   9.989   5.953 -0.4829  0.8301  0.1791
35500SOL    HW211821   4.075   9.990   6.041 -0.5436  1.0356  0.0926
35501SOL     OW11822   3.495   0.277   6.683  0.0190 -0.4391 -0.2109
35501SOL    HW111823   3.586   0.285   6.715 -0.0007  0.3024 -0.3117
35501SOL    HW211824   3.497   0.317   6.596 -0.9076  1.9712  0.7747
35502SOL     OW11825   4.079   2.145   6.006 -0.3150  0.5186  0.4606
35502SOL    HW111826   4.011   2.104   5.951  0.6205  0.4781 -0.7129
35502SOL    HW211827   4.159   2.098   5.983 -0.1244 -0.6218  3.0949
35503SOL     OW11828   0.666   4.444   7.918  0.1817  0.5802 -0.0348
35503SOL    HW111829   0.675   4.474   7.827  0.6302  0.7297  0.0584
35503SOL    HW211830   0.755   4.418   7.943 -0.2326 -1.1740 -0.2337
35504SOL     OW11831  10.124   0.612  10.592  0.3700  0.4884 -0.1196
35504SOL    HW111832  10.126   0.667  10.671 -1.2186 -0.1562  0.4155
35504SOL    HW211833  10.198   0.552  10.602 -0.0450  0.1468  1.1181
35505SOL     OW11834   1.582   7.094   1.048 -0.0768  0.4386  0.3436
35505SOL    HW111835   1.531   7.169   1.081 -0.1115  1.0323 -1.0069
35505SOL    HW211836   1.541   7.018   1.089 -0.4478  1.0990  1.2467
35506SOL     OW11837   8.278   2.051   9.847 -0.0014  0.7692  0.0738
35506SOL    HW111838   8.305   2.137   9.817 -0.2378  1.2617  1.2333
35506SOL    HW211839   8.193   2.037   9.805 -1.3295  2.3509  2.0836
35507SOL     OW11840   3.803   2.321   5.863 -0.0649 -0.1689 -0.1987
35507SOL    HW111841   3.847   2.366   5.935 -0.0654  0.2731 -0.4686
35507SOL    HW211842   3.714   2.305   5.896 -0.7698  1.9785 -0.8471
35508SOL     OW11843   0.670   0.685   6.000 -0.1421 -0.0271 -0.1958
35508SOL    HW111844   0.617   0.761   5.978 -0.6107 -0.3289 -0.1251
35508SOL    HW211845   0.646   0.664   6.090  1.2015  0.7321  0.3672
35509SOL     OW11846  11.808   6.421   8.502 -0.0594 -0.1535 -0.2474
35509SOL    HW111847  11.816   6.516   8.510 -0.6201 -0.0970 -0.3455
35509SOL    HW211848  11.894   6.392   8.470 -0.1087  0.4058 -0.9107
35510SOL     OW11849   6.579   0.998   1.085  0.4329  0.0948 -0.0333
35510SOL    HW111850   6.541   1.058   1.150  0.0492  1.0344 -1.0865
35510SOL    HW211851   6.505   0.973   1.030  1.1128  0.9902 -1.3825
35511SOL     OW11852   7.847  10.175   1.664  0.2145  0.0264 -0.1867
35511SOL    HW111853   7.869  10.082   1.663 -1.7658 -0.5101  0.7261
35511SOL    HW211854   7.806  10.191   1.579 -0.1861 -0.1570 -0.0328
35512SOL     OW11855   7.452   9.657   6.801 -0.5267 -0.4405  0.0439
35512SOL    HW111856   7.536   9.616   6.782 -2.1185 -3.2569 -1.5341
35512SOL    HW211857   7.403   9.590   6.849 -2.2240  0.7864  0.1002
35513SOL     OW11858   8.580   1.831   0.895 -0.2052  0.3326 -0.3382
35513SOL    HW111859   8.675   1.839   0.889 -0.2560  0.3892 -1.0688
35513SOL    HW211860   8.563   1.737   0.902 -0.0280  0.3776  1.1946
35514SOL     OW11861   4.410   1.297   5.681  0.4046  0.8689 -0.7232
35514SOL    HW111862   4.412   1.271   5.773  0.8235  0.2142 -0.9079
35514SOL    HW211863   4.367   1.382   5.681  1.2437  1.3064  0.1801
35515SOL     OW11864   3.901   3.094   2.250  0.0427 -0.4209  0.0764
35515SOL    HW111865   3.848   3.093   2.170 -0.2216 -1.6312  0.2542
35515SOL    HW211866   3.987   3.062   2.223 -0.4678 -2.2958  0.5265
35516SOL     OW11867   4.290   7.558  10.943 -0.5341  0.3176  0.4162
35516SOL    HW111868   4.327   7.500  11.010  0.1419  0.1631 -0.0865
35516SOL    HW211869   4.359   7.622  10.925 -0.4370 -0.0646 -0.6418
35517SOL     OW11870   9.684  11.679   3.316 -0.3865  0.3030  0.0219
35517SOL    HW111871   9.766  11.707   3.274 -0.2342 -0.7604 -0.4314
35517SOL    HW211872   9.621  11.673   3.244 -0.6127  0.2094  0.2268
35518SOL     OW11873  10.737   0.513   4.851  0.3287  0.2475  0.4037
35518SOL    HW111874  10.744   0.419   4.840  0.1778  0.2883 -0.0229
35518SOL    HW211875  10.645   0.529   4.869  0.1891  0.4114 -0.4442
35519SOL     OW11876   6.518   4.492   1.615 -1.0145 -0.4424 -0.3495
35519SOL    HW111877   6.604   4.451   1.626 -0.4819  0.6604 -0.3188
35519SOL    HW211878   6.480   4.448   1.539 -0.2862 -0.7049 -0.5694
35520SOL     OW11879   4.517   1.893   8.034  0.1932  0.4237 -0.2445
35520SOL    HW111880   4.568   1.961   8.078 -0.2029  0.0449  0.8504
35520SOL    HW211881   4.491   1.932   7.951  1.1310  1.1005 -0.2354
35521SOL     OW11882   1.460   3.377   8.591 -0.0573 -0.5131  0.6904
35521SOL    HW111883   1.520   3.409   8.523 -0.2309 -2.2802 -0.3526
35521SOL    HW211884   1.387   3.340   8.542 -2.5086  2.2861  1.9370
35522SOL     OW11885   1.795  10.348   6.416 -0.1167  0.2702 -0.0700
35522SOL    HW111886   1.794  10.430   6.368 -3.0463 -0.3890 -1.3242
35522SOL    HW211887   1.809  10.374   6.507 -2.1542  2.3303 -0.2506
35523SOL     OW11888  10.475   9.487  11.287 -0.1370  0.6352  0.4444
35523SOL    HW111889  10.425   9.491  11.205 -0.8865 -0.3844  0.8332
35523SOL    HW211890  10.504   9.396  11.293  1.1150  1.0280  0.6294
35524SOL     OW11891   6.788   8.701   1.778  0.2211  0.3067  0.2339
35524SOL    HW111892   6.860   8.722   1.718  0.3391  1.5740  0.7873
35524SOL    HW211893   6.790   8.606   1.784  1.8257  0.3035  0.1813
35525SOL     OW11894   5.387   8.425   9.520 -0.0181  0.2206 -0.1225
35525SOL    HW111895   5.383   8.440   9.426  0.6113  2.3417  0.1370
35525SOL    HW211896   5.480   8.416   9.540 -0.2015 -1.4065  0.1848
35526SOL     OW11897   0.671   3.863   2.402 -0.5392  0.3338 -0.2829
35526SOL    HW111898   0.585   3.854   2.441 -0.3332 -0.2876  0.0257
35526SOL    HW211899   0.679   3.788   2.342 -0.2191  0.3944 -0.3198
35527SOL     OW11900   4.866  11.335   3.537 -0.4557  0.2514 -0.1169
35527SOL    HW111901   4.797  11.343   3.471 -0.2963 -1.3337 -0.5360
35527SOL    HW211902   4.911  11.253   3.514  1.5767  1.2187  0.1294
35528SOL     OW11903   8.789   9.572   8.323  0.7464  0.0157 -0.3979
35528SOL    HW111904   8.875   9.531   8.327  0.5997 -0.1843  1.1979
35528SOL    HW211905   8.796   9.649   8.381  0.0217  0.3170 -0.7003
35529SOL     OW11906   9.927   9.942   4.947  0.2916  0.3161  0.1393
35529SOL    HW111907  10.000   9.881   4.955  1.2684  1.5192  0.7617
35529SOL    HW211908   9.873   9.925   5.025 -0.3530 -0.8589 -0.5316
35530SOL     OW11909   1.462   6.914   4.317  0.5183 -0.4141 -0.1568
35530SOL    HW111910   1.393   6.849   4.309 -0.5355  0.7801 -1.2467
35530SOL    HW211911   1.535   6.879   4.266 -0.3072 -0.4386 -1.3706
35531SOL     OW11912   2.109   4.630   7.293 -0.1370  0.3132  0.2140
35531SOL    HW111913   2.032   4.575   7.305 -1.1183  1.3469 -0.9922
35531SOL    HW211914   2.112   4.647   7.199  0.9088  1.2156  0.3909
35532SOL     OW11915   6.473   3.916  11.531 -0.8388  0.1853 -0.5551
35532SOL    HW111916   6.495   4.008  11.518 -1.2204  0.6203  1.4505
35532SOL    HW211917   6.549   3.869  11.498 -0.1180  1.2877 -0.5361
35533SOL     OW11918   9.950   0.872   6.699  0.2242 -0.1778  0.6020
35533SOL    HW111919   9.945   0.781   6.728 -2.7537  0.0389  1.1280
35533SOL    HW211920   9.875   0.914   6.740 -1.6813  1.2544 -3.7492
35534SOL     OW11921   5.369   6.800   6.261  0.0980 -0.4226  0.2906
35534SOL    HW111922   5.297   6.744   6.290  0.8767 -0.9907  1.2032
35534SOL    HW211923   5.363   6.878   6.317  1.9121 -1.7433  2.4812
35535SOL     OW11924  11.732   0.029  10.097 -0.0644 -0.2124 -0.1062
35535SOL    HW111925  11.796   0.093  10.066 -1.0510  1.6742  1.4693
35535SOL    HW211926  11.670   0.020  10.024  0.1680  0.5563 -0.4104
35536SOL     OW11927   9.279   2.760   8.385 -0.3241 -0.2321  0.2271
35536SOL    HW111928   9.316   2.734   8.470 -0.0447 -0.2540  0.1007
35536SOL    HW211929   9.353   2.753   8.324 -0.2117  0.9327  0.1985
35537SOL     OW11930   7.718  10.021   8.338  0.3415  0.2006 -0.6212
35537SOL    HW111931   7.622  10.021   8.342  0.3395 -0.4580 -0.5613
35537SOL    HW211932   7.740   9.931   8.313  1.0138 -0.1557  1.1386
35538SOL     OW11933   0.799   7.635   6.407 -0.5115 -0.1720 -0.4720
35538SOL    HW111934   0.778   7.682   6.326  0.8166  0.0317 -0.7191
35538SOL    HW211935   0.859   7.566   6.380  0.6367  0.4349  0.4563
35539SOL     OW11936  10.415  10.363   5.958 -0.8393  0.0835 -0.3706
35539SOL    HW111937  10.498  10.329   5.991  0.0659  2.5013  0.0393
35539SOL    HW211938  10.348  10.306   5.996  0.5666 -1.7082 -0.4334
35540SOL     OW11939   7.870   3.873   4.034  0.6219 -0.2743 -0.2794
35540SOL    HW111940   7.784   3.912   4.021  0.3836 -0.0986  1.5688
35540SOL    HW211941   7.922   3.904   3.959 -0.3330  1.3030 -0.3426
35541SOL     OW11942   4.814   7.646   7.490  0.2649  0.3031 -0.2560
35541SOL    HW111943   4.757   7.570   7.482 -0.3179  0.6968  0.0552
35541SOL    HW211944   4.870   7.626   7.565  0.6436 -0.1517 -0.6566
35542SOL     OW11945   0.084   8.966   3.369  0.4107 -0.2099 -0.4001
35542SOL    HW111946   0.139   8.957   3.447  1.6166  0.1763 -1.1752
35542SOL    HW211947   0.066   9.060   3.363  1.8433  0.0378 -1.5456
35543SOL     OW11948   4.675   0.395   2.677  0.4393 -0.1227 -0.3331
35543SOL    HW111949   4.626   0.473   2.649  2.5483  1.0278 -1.0312
35543SOL    HW211950   4.762   0.428   2.699  0.7824 -1.9943  1.4609
35544SOL     OW11951  10.817   7.769   7.058  0.0208 -0.1337 -0.4665
35544SOL    HW111952  10.894   7.789   7.112 -0.3636  1.8643 -0.5928
35544SOL    HW211953  10.851   7.713   6.988  1.3190  0.5280 -0.3985
35545SOL     OW11954   8.768   2.415   1.207 -0.6174  0.1070 -0.1578
35545SOL    HW111955   8.745   2.330   1.170  0.0864 -0.1041 -0.1179
35545SOL    HW211956   8.831   2.395   1.276  0.3487  0.7414 -0.8402
35546SOL     OW11957   8.646   0.955   0.432 -0.6155 -0.7235  0.5591
35546SOL    HW111958   8.570   0.988   0.479  0.8254  1.0229  1.7774
35546SOL    HW211959   8.700   0.912   0.498 -0.7737 -2.4860 -0.3898
35547SOL     OW11960   6.452   8.317   2.850 -0.4350  0.2907 -0.2454
35547SOL    HW111961   6.536   8.286   2.814  0.0251  0.4507  0.6694
35547SOL    HW211962   6.411   8.238   2.885 -0.3536  0.3233 -0.0761
35548SOL     OW11963   7.509   6.131   0.500 -0.7844  0.3896  0.5122
35548SOL    HW111964   7.459   6.149   0.421  1.0618  0.1281 -0.7794
35548SOL    HW211965   7.516   6.036   0.503  1.1871  0.4596 -0.4050
35549SOL     OW11966  10.639  11.112  11.638  0.5375 -0.1089  0.2231
35549SOL    HW111967  10.632  11.152  11.552  1.3279  0.5793  0.4651
35549SOL    HW211968  10.571  11.044  11.639  1.1878 -0.8198 -1.3046
35550SOL     OW11969   8.187   3.886   9.854  0.3197 -0.0704 -0.4004
35550SOL    HW111970   8.168   3.952   9.921  1.2011  1.2245 -1.3760
35550SOL    HW211971   8.107   3.834   9.848 -0.7917  1.5457 -0.2914
35551SOL     OW11972   0.582  10.188   3.987 -0.3961  0.0351  0.7621
35551SOL    HW111973   0.579  10.259   4.052  2.1285 -0.4102  1.4641
35551SOL    HW211974   0.575  10.233   3.903 -1.0431  0.8783  1.2422
35552SOL     OW11975   6.468   1.272   5.826  0.2537  0.0616  0.4197
35552SOL    HW111976   6.391   1.322   5.851  0.4362  1.6362 -1.8415
35552SOL    HW211977   6.505   1.241   5.909 -2.1140  0.2346  1.6272
35553SOL     OW11978   6.178   3.079  11.484  0.0552 -0.6165  0.4629
35553SOL    HW111979   6.271   3.058  11.489 -0.0613 -1.3275 -0.1355
35553SOL    HW211980   6.134   2.993  11.487 -0.6384 -0.2516  1.7328
35554SOL     OW11981   9.530   7.200   6.363  0.0510  0.3787 -0.0621
35554SOL    HW111982   9.475   7.130   6.328  1.4680 -0.3308 -0.9822
35554SOL    HW211983   9.617   7.183   6.326  1.1156  0.9394  2.0063
35555SOL     OW11984   2.534   9.753  11.386  0.0521  0.0974 -0.0031
35555SOL    HW111985   2.470   9.703  11.334 -1.0378  1.7731 -0.3773
35555SOL    HW211986   2.607   9.767  11.326  0.1179 -0.5697 -0.0791
35556SOL     OW11987   0.472   6.997   2.097 -0.7917  0.2450 -0.3756
35556SOL    HW111988   0.404   6.947   2.051 -1.6343  1.3194 -0.3514
35556SOL    HW211989   0.440   7.003   2.187 -1.3929  1.9176 -0.6573
35557SOL     OW11990   8.207   8.222   3.435 -0.0440 -0.3701  0.2069
35557SOL    HW111991   8.275   8.161   3.405 -0.1369 -0.2975 -0.1628
35557SOL    HW211992   8.162   8.248   3.354  0.4552  0.7511  0.2684
35558SOL     OW11993   9.534   8.298   8.782 -0.7772 -0.3541  0.0165
35558SOL    HW111994   9.516   8.274   8.873  1.9038  0.0564  0.7653
35558SOL    HW211995   9.531   8.215   8.735  0.7386 -1.0765  1.0940
35559SOL     OW11996   8.481   1.415   8.196 -0.3930  0.7859  0.0177
35559SOL    HW111997   8.457   1.502   8.164 -0.2559  1.1607  0.9084
35559SOL    HW211998   8.497   1.427   8.289  1.1807  0.1345 -0.1285
35560SOL     OW11999  11.364  11.638   0.263  0.3547  0.5503  0.1404
35560SOL    HW112000  11.414  11.559   0.285 -0.5088 -0.2869 -0.8071
35560SOL    HW212001  11.336  11.623   0.173  1.0581  2.4207 -0.4325
35561SOL     OW12002   4.588   6.049   9.167 -0.4347 -0.7636  0.3860
35561SOL    HW112003   4.613   5.980   9.229  0.7439 -0.6827  0.0167
35561SOL    HW212004   4.493   6.055   9.176 -0.6552 -2.8742 -0.0211
35562SOL     OW12005   5.462   4.547   9.411 -0.1778 -0.0383  0.4921
35562SOL    HW112006   5.532   4.609   9.431  0.4826 -0.9633  1.0776
35562SOL    HW212007   5.501   4.486   9.349  0.0394 -1.4661  1.9888
35563SOL     OW12008   8.905   0.923   4.990 -0.0100  0.3036 -0.3031
35563SOL    HW112009   8.860   0.864   4.929 -1.8793  0.8486  0.4836
35563SOL    HW212010   8.927   0.999   4.936 -0.9592  0.4553 -0.5032
35564SOL     OW12011   8.813  11.268   2.012  0.1887 -0.3003 -0.1410
35564SOL    HW112012   8.894  11.226   1.980 -1.2837 -0.6561 -3.9628
35564SOL    HW212013   8.829  11.362   2.001  0.7847 -0.2108  1.2259
35565SOL     OW12014  10.046   3.547   9.167  0.1723  0.4293 -0.1144
35565SOL    HW112015  10.034   3.523   9.258 -1.2830  0.2967 -0.3237
35565SOL    HW212016  10.026   3.641   9.164  0.5469  0.5061 -0.2396
35566SOL     OW12017   0.336   5.815  10.105 -0.2316  0.0453 -0.1607
35566SOL    HW112018   0.272   5.853  10.166 -0.3505  1.0013 -0.8588
35566SOL    HW212019   0.300   5.729  10.084 -1.1889  0.4779 -0.3739
35567SOL     OW12020   3.185   3.081   8.597  0.3644 -0.5799  0.7996
35567SOL    HW112021   3.091   3.063   8.590 -0.2411  2.3440  0.3064
35567SOL    HW212022   3.197   3.165   8.553  3.0648 -0.3899  1.7168
35568SOL     OW12023  11.515   6.149  10.600 -0.5893 -0.1116  0.3419
35568SOL    HW112024  11.524   6.222  10.538  1.0491 -0.0145  0.6632
35568SOL    HW212025  11.601   6.107  10.601 -0.6747 -0.3280  2.2680
35569SOL     OW12026   4.170   3.503   9.371 -0.1182  0.3683  0.0664
35569SOL    HW112027   4.130   3.425   9.409  0.7967 -0.1459 -0.0087
35569SOL    HW212028   4.217   3.471   9.294  0.3350  0.9871  0.0806
35570SOL     OW12029   1.442   1.019   9.456  0.0692 -0.2042  0.1937
35570SOL    HW112030   1.520   0.974   9.488  0.8848  0.6222 -0.5627
35570SOL    HW212031   1.387   1.031   9.533 -0.3171 -2.7087  0.3822
35571SOL     OW12032   1.578   0.532   2.105  0.4308  0.1131 -0.0325
35571SOL    HW112033   1.571   0.606   2.044  0.6038 -1.8951 -2.6538
35571SOL    HW212034   1.488   0.512   2.129  0.4003  1.3550  1.0689
35572SOL     OW12035   9.794   5.202  10.057  0.2743  0.6030 -0.1796
35572SOL    HW112036   9.874   5.246  10.027 -0.3141  0.3641 -2.2223
35572SOL    HW212037   9.735   5.274  10.081  0.8587  0.7944  0.7130
35573SOL     OW12038   7.666   5.212   2.422 -0.5835  0.1748 -0.0581
35573SOL    HW112039   7.603   5.276   2.389  0.9905  1.0858 -1.4483
35573SOL    HW212040   7.708   5.257   2.496 -0.4848  0.1709 -0.1126
35574SOL     OW12041   6.191   1.226  11.415  0.3158  0.5674  0.0046
35574SOL    HW112042   6.119   1.279  11.381 -0.1884  0.6843  1.2096
35574SOL    HW212043   6.248   1.211  11.339  0.0731  2.1754 -0.5263
35575SOL     OW12044   5.825   7.129   1.900 -0.6882  0.4596 -0.5027
35575SOL    HW112045   5.885   7.118   1.826 -1.0339  0.5399 -0.7978
35575SOL    HW212046   5.775   7.048   1.902 -0.6261  0.4274 -0.3100
35576SOL     OW12047   1.153  11.768   3.870  0.1750 -0.7332 -0.0216
35576SOL    HW112048   1.185  11.847   3.913  0.5698 -0.7103 -0.3421
35576SOL    HW212049   1.231  11.713   3.860  0.6098  0.1909 -2.7011
35577SOL     OW12050   1.903   1.714   5.967 -0.0098  0.3483  0.8941
35577SOL    HW112051   1.835   1.677   5.910  0.4497 -0.2349  0.7211
35577SOL    HW212052   1.854   1.764   6.033 -0.5622  0.7280  0.2106
35578SOL     OW12053  10.525   8.290   2.940 -0.6020  0.0530  0.1819
35578SOL    HW112054  10.548   8.301   2.847 -0.8263 -0.1859  0.0977
35578SOL    HW212055  10.433   8.266   2.939 -0.3387 -1.0122  0.3997
35579SOL     OW12056   6.814   6.363   9.650 -0.4081 -0.0747 -0.3535
35579SOL    HW112057   6.727   6.331   9.627 -0.9485  0.9427  0.2200
35579SOL    HW212058   6.816   6.357   9.746 -0.5079  1.5450 -0.2361
35580SOL     OW12059   0.069   2.057   7.797  0.7599 -0.2155  0.2554
35580SOL    HW112060   0.120   2.132   7.827 -0.8225  0.8222  0.4350
35580SOL    HW212061   0.076   1.993   7.868 -1.5686  1.5594  2.2514
35581SOL     OW12062   1.767   9.252  10.784 -0.1228 -0.6095  0.0138
35581SOL    HW112063   1.780   9.309  10.708 -0.1758 -1.6579 -0.7979
35581SOL    HW212064   1.718   9.178  10.750  0.9884 -1.7256  0.7760
35582SOL     OW12065   9.769   4.221   5.930 -0.3342  0.2068  0.3186
35582SOL    HW112066   9.829   4.203   6.003 -0.1310  0.1925  0.1498
35582SOL    HW212067   9.745   4.313   5.940 -0.6762  0.0858  0.6734
35583SOL     OW12068   6.789   7.959   4.087 -0.2510 -0.4387 -0.2981
35583SOL    HW112069   6.877   7.930   4.109 -0.4230 -1.6229 -1.1096
35583SOL    HW212070   6.794   7.987   3.996 -0.9318 -1.4956 -0.6761
35584SOL     OW12071  10.416   8.037  10.012  0.0554 -0.0354 -0.3115
35584SOL    HW112072  10.461   7.956   9.988  0.9168 -0.5176  2.4743
35584SOL    HW212073  10.481   8.106   9.997 -0.2686  0.0102 -1.5730
35585SOL     OW12074  11.737   8.878   9.757 -0.8434  0.3827  0.7467
35585SOL    HW112075  11.645   8.888   9.731 -1.0134  1.7900  1.7672
35585SOL    HW212076  11.760   8.789   9.731 -2.5096 -0.0076  0.5170
35586SOL     OW12077  10.958   0.555   2.851 -0.1284  0.7076 -0.2713
35586SOL    HW112078  10.934   0.624   2.914  0.1462 -1.4286  2.3416
35586SOL    HW212079  11.050   0.539   2.868  0.1391  0.5446 -1.7701
35587SOL     OW12080   3.971   2.757   6.624  0.0580  0.1675  0.2622
35587SOL    HW112081   3.996   2.835   6.574 -2.2868 -0.1105 -1.4856
35587SOL    HW212082   3.991   2.780   6.715  0.1893  2.4940 -0.2926
35588SOL     OW12083  11.535   9.481   2.269 -0.2948 -0.4507  0.3850
35588SOL    HW112084  11.512   9.573   2.263 -0.6133 -0.6135 -1.5761
35588SOL    HW212085  11.555   9.467   2.362 -0.9403  1.3995  0.8453
35589SOL     OW12086   1.978   2.373   3.270  0.4514  0.1355  0.7835
35589SOL    HW112087   1.886   2.397   3.257 -0.5123 -3.2366  0.6667
35589SOL    HW212088   2.013   2.360   3.182  0.3501 -0.8583  0.8829
35590SOL     OW12089   3.541   4.933  10.137 -0.2233  0.0348  0.0219
35590SOL    HW112090   3.596   5.011  10.127  1.8915 -1.3330  0.1830
35590SOL    HW212091   3.511   4.913  10.049 -0.5349  0.8629 -0.0617
35591SOL     OW12092   9.570   2.750  11.635 -0.2572 -0.6837 -0.1770
35591SOL    HW112093   9.652   2.799  11.633 -0.3354 -0.5726 -0.9863
35591SOL    HW212094   9.548   2.743  11.728  0.5528 -0.5253  0.0302
35592SOL     OW12095  11.210   4.523   2.670  0.5386  0.1846 -0.1389
35592SOL    HW112096  11.239   4.611   2.695  0.1498  0.0742  0.7370
35592SOL    HW212097  11.233   4.469   2.746  0.2535 -0.3613 -0.4433
35593SOL     OW12098   6.642  10.123  11.002 -0.7573 -0.1081 -0.4234
35593SOL    HW112099   6.692  10.044  11.021 -2.2815 -1.1916 -0.7372
35593SOL    HW212100   6.650  10.177  11.081 -1.4580 -1.5451  0.6756
35594SOL     OW12101   6.259   9.424   5.527  0.3317  0.5653 -0.2861
35594SOL    HW112102   6.266   9.395   5.618 -0.2448 -0.5133 -0.5709
35594SOL    HW212103   6.256   9.520   5.532  1.8783  0.5839  0.7098
35595SOL     OW12104   5.810   9.835  10.317  0.3945 -0.0209  0.2587
35595SOL    HW112105   5.875   9.867  10.380  0.7304 -0.1618 -0.0162
35595SOL    HW212106   5.840   9.747  10.295 -1.5169 -1.3384  2.4316
35596SOL     OW12107   5.836   7.028   0.122  0.0376 -0.2527 -0.1158
35596SOL    HW112108   5.868   6.983   0.043  0.4499 -1.2931  0.6225
35596SOL    HW212109   5.775   6.965   0.161 -1.3580  0.8709 -0.4023
35597SOL     OW12110   3.635   4.051   8.656 -0.7594  0.1598 -0.1359
35597SOL    HW112111   3.661   4.061   8.564  0.8574 -0.8030  0.1856
35597SOL    HW212112   3.598   3.963   8.660  1.1841 -0.6678  0.5418
35598SOL     OW12113   8.631   2.041   4.205  0.6704  0.2503  0.6043
35598SOL    HW112114   8.580   1.960   4.207  2.0587 -0.7082 -0.6379
35598SOL    HW212115   8.606   2.083   4.123  3.4479 -1.4127 -1.2804
35599SOL     OW12116   7.089   0.024  10.871 -0.0933 -0.4637 -0.1290
35599SOL    HW112117   7.113  -0.021  10.952  0.2391 -0.6717 -0.3415
35599SOL    HW212118   7.022   0.087  10.897  1.0815  0.5395  0.5800
35600SOL     OW12119   3.967   0.339   0.496 -0.3926  0.4464  0.4660
35600SOL    HW112120   3.946   0.311   0.406 -0.4146 -0.8983  0.8662
35600SOL    HW212121   3.883   0.358   0.536 -0.4560  0.1539  0.4748
35601SOL     OW12122   8.327   6.507   0.437 -0.3092 -0.4042 -0.3947
35601SOL    HW112123   8.323   6.545   0.349  0.5709  1.2207  0.2164
35601SOL    HW212124   8.247   6.455   0.445 -1.5390  1.2444 -1.3429
35602SOL     OW12125   7.830   5.124   6.671  0.2869 -0.4809 -0.3861
35602SOL    HW112126   7.785   5.109   6.588 -0.5244  1.7784 -0.4208
35602SOL    HW212127   7.785   5.068   6.733 -0.0739 -1.0800 -1.1724
35603SOL     OW12128   7.449   7.786   5.360 -0.6863  0.0948 -0.5990
35603SOL    HW112129   7.413   7.873   5.376  0.5033  0.3556  0.9298
35603SOL    HW212130   7.544   7.799   5.358 -0.4636 -1.1862 -0.0261
35604SOL     OW12131  10.588   5.222   2.534 -0.5488  0.1737  0.1279
35604SOL    HW112132  10.557   5.311   2.515  1.0251  0.6944 -0.1501
35604SOL    HW212133  10.657   5.234   2.599 -0.1486 -0.8265 -0.0939
35605SOL     OW12134   8.874  11.695   8.844  0.3999  0.1591 -0.4957
35605SOL    HW112135   8.911  11.684   8.756  1.5986 -0.7537  0.0916
35605SOL    HW212136   8.950  11.704   8.901 -0.3545  0.3334  0.5052
35606SOL     OW12137   8.661  10.032   2.895  0.2463 -0.8462 -0.8903
35606SOL    HW112138   8.704  10.081   2.965 -1.8974 -0.0643 -0.0083
35606SOL    HW212139   8.649   9.944   2.931  0.5492 -0.8834 -0.8832
35607SOL     OW12140  11.814   2.388   6.951 -0.0712 -0.0728 -0.0566
35607SOL    HW112141  11.854   2.435   7.024  1.8455 -0.5649 -0.7467
35607SOL    HW212142  11.801   2.299   6.984 -2.3428  0.4689  0.7496
35608SOL     OW12143   9.781   0.249  10.512  0.3595  0.7635 -0.5582
35608SOL    HW112144   9.808   0.204  10.592  0.3442  0.0044 -0.9675
35608SOL    HW212145   9.815   0.338  10.521 -0.2010  0.8748  0.5780
35609SOL     OW12146   0.897   4.448   1.717 -0.2080 -0.3484 -0.0997
35609SOL    HW112147   0.879   4.460   1.810  1.2598  1.0485  0.0544
35609SOL    HW212148   0.816   4.476   1.673 -0.6763 -0.3825  0.7245
35610SOL     OW12149   1.808   3.318   6.859 -0.3143  0.2439  0.1768
35610SOL    HW112150   1.748   3.254   6.897  1.1478 -0.5562  1.2266
35610SOL    HW212151   1.829   3.283   6.772  1.8992 -1.7760  1.4145
35611SOL     OW12152   6.054   2.002   7.803 -0.0923 -0.0354 -0.0025
35611SOL    HW112153   6.079   1.966   7.888 -0.1648  0.0888  0.0713
35611SOL    HW212154   5.962   2.026   7.813 -0.5862 -1.5510 -0.6255
35612SOL     OW12155   9.406   9.047   6.865 -0.3316  0.0232  0.6808
35612SOL    HW112156   9.335   9.003   6.912  0.0962 -1.2711  0.1854
35612SOL    HW212157   9.380   9.041   6.773 -1.0345  2.2957  0.6850
35613SOL     OW12158   0.358   2.374   3.701  0.0103  0.2346  0.0711
35613SOL    HW112159   0.373   2.457   3.746 -0.9072  0.3643  0.1525
35613SOL    HW212160   0.295   2.327   3.755  0.5728 -0.5554  0.0614
35614SOL     OW12161   8.395   4.776   0.879 -0.1624  0.0456 -0.1067
35614SOL    HW112162   8.408   4.716   0.806 -0.5923  1.9759 -1.8797
35614SOL    HW212163   8.301   4.773   0.896  0.0223 -0.8720  0.8317
35615SOL     OW12164   7.908   4.501  11.646 -0.3374  0.3817  0.3592
35615SOL    HW112165   7.927   4.531  11.557 -2.4985 -0.7106 -0.5272
35615SOL    HW212166   7.880   4.411  11.636  3.8416 -1.4759  2.7221
35616SOL     OW12167   0.822   4.560   6.156 -0.7230  0.0904 -0.2270
35616SOL    HW112168   0.913   4.532   6.152 -1.1480 -1.4120 -0.0229
35616SOL    HW212169   0.814   4.606   6.239 -0.2947 -0.3467  0.0617
35617SOL     OW12170   5.527   6.892   6.069  0.4978 -0.6981  0.2598
35617SOL    HW112171   5.456   6.852   6.120  0.2710 -1.1753 -0.4091
35617SOL    HW212172   5.605   6.879   6.123  0.1571 -0.6119  0.7805
35618SOL     OW12173  11.351   7.933   3.892  0.3065 -0.2324 -0.0875
35618SOL    HW112174  11.360   7.937   3.797  2.7386  0.1056  0.0752
35618SOL    HW212175  11.410   8.002   3.924 -0.0599 -0.6868  1.6637
35619SOL     OW12176   6.461   5.528   9.849 -0.5303 -0.3825  0.0610
35619SOL    HW112177   6.378   5.575   9.860  0.9848  2.7925 -0.9094
35619SOL    HW212178   6.508   5.542   9.931 -0.7780 -1.9006  0.4837
35620SOL     OW12179   7.705   4.711   8.619 -1.1325 -0.1520  0.7912
35620SOL    HW112180   7.791   4.721   8.659 -0.2361 -0.6802 -0.9333
35620SOL    HW212181   7.660   4.648   8.676 -0.3451  0.0275  1.6381
35621SOL     OW12182   9.301   4.132   0.638 -0.3349  0.3618  0.0383
35621SOL    HW112183   9.282   4.043   0.667  0.1012  0.7374  1.5603
35621SOL    HW212184   9.383   4.155   0.681 -0.2290  1.3586 -0.6617
35622SOL     OW12185   2.773   5.103  10.650  0.1912  0.5019  0.6862
35622SOL    HW112186   2.868   5.098  10.633 -0.1609 -1.7288 -1.2113
35622SOL    HW212187   2.763   5.068  10.739  1.0532 -0.9834  0.2455
35623SOL     OW12188   8.747   2.677  11.519  0.6218 -0.4472  0.1453
35623SOL    HW112189   8.752   2.748  11.583  0.6618 -0.2691 -0.0533
35623SOL    HW212190   8.742   2.722  11.434 -0.9574 -0.6425  0.1042
35624SOL     OW12191   2.188   5.077   4.096  0.2186 -0.3931  0.0594
35624SOL    HW112192   2.266   5.106   4.143  0.6379  0.1511 -0.9405
35624SOL    HW212193   2.121   5.142   4.118  0.4617 -0.0447 -0.2079
35625SOL     OW12194   7.896   8.989   6.314  0.0370  0.0298  0.7191
35625SOL    HW112195   7.926   9.029   6.233  0.3631 -2.3422 -0.4178
35625SOL    HW212196   7.941   9.037   6.384  0.5351  1.4441 -0.5292
35626SOL     OW12197   8.532   0.311   3.777  0.1445  0.1798  0.0876
35626SOL    HW112198   8.487   0.246   3.831  0.7368  0.2278  0.6549
35626SOL    HW212199   8.508   0.395   3.816  2.1735  0.1396  1.5980
35627SOL     OW12200  11.242   1.908   6.685 -0.3150 -0.1113  0.0953
35627SOL    HW112201  11.285   1.971   6.626 -0.1120  0.4050  0.7794
35627SOL    HW212202  11.149   1.917   6.666 -0.3911  1.3154  1.0657
35628SOL     OW12203   8.261   7.483   5.873 -0.0962  0.0616  0.3569
35628SOL    HW112204   8.282   7.426   5.947 -0.0987 -0.9185 -0.3848
35628SOL    HW212205   8.347   7.513   5.841 -0.0993  0.5951  0.8113
35629SOL     OW12206  11.766  10.912   8.795  0.3702  0.6441  0.3700
35629SOL    HW112207  11.773  10.962   8.714 -0.2159 -0.0381 -0.1113
35629SOL    HW212208  11.731  10.827   8.769  1.7426 -0.1943  1.1082
35630SOL     OW12209   8.842  10.446   1.793 -0.2688  0.1474 -0.0443
35630SOL    HW112210   8.845  10.353   1.774 -0.7777  0.1763 -0.2694
35630SOL    HW212211   8.781  10.483   1.729 -1.9623  0.2613  1.5232
35631SOL     OW12212   9.390   1.371   8.265 -0.0653  0.1005  0.4020
35631SOL    HW112213   9.317   1.324   8.306 -0.2521 -0.1717 -0.2108
35631SOL    HW212214   9.403   1.324   8.182  0.1316  0.7787  0.0469
35632SOL     OW12215  10.666   6.614   7.741 -0.5976  0.1803 -0.0834
35632SOL    HW112216  10.732   6.563   7.694 -0.5437 -0.5093  0.7279
35632SOL    HW212217  10.663   6.698   7.694 -0.8240 -0.6216 -1.5435
35633SOL     OW12218   1.415  10.051   1.359 -0.3612  0.0523  0.1315
35633SOL    HW112219   1.371  10.104   1.292 -1.9790 -1.7500 -0.3561
35633SOL    HW212220   1.480  10.000   1.310 -1.2767 -0.9773 -0.0737
35634SOL     OW12221   8.781   6.191   8.615  0.7788 -0.1313  0.5727
35634SOL    HW112222   8.765   6.098   8.604 -0.7529  0.4210 -4.1836
35634SOL    HW212223   8.696   6.228   8.642 -0.1404  0.3064 -2.5792
35635SOL     OW12224   2.786  10.173   9.388 -0.4102 -0.2435  0.3904
35635SOL    HW112225   2.728  10.136   9.322  3.0186 -0.6888 -2.6275
35635SOL    HW212226   2.800  10.263   9.360 -0.4274  0.2177  1.7467
35636SOL     OW12227  11.541   1.033   4.040 -0.2407 -0.2831  0.3700
35636SOL    HW112228  11.569   0.941   4.046  1.0264  0.1183  0.9220
35636SOL    HW212229  11.609   1.082   4.087 -0.7643  0.9666 -0.1355
35637SOL     OW12230   5.125   6.672   4.999  0.1120  0.2335  0.0089
35637SOL    HW112231   5.094   6.583   5.011  1.2530 -0.1349  0.3394
35637SOL    HW212232   5.180   6.690   5.075 -1.4865  1.8593  0.8565
35638SOL     OW12233   5.957  10.227   1.605 -0.4334 -0.1851 -0.0768
35638SOL    HW112234   6.023  10.195   1.544 -0.5978  0.7871 -0.7880
35638SOL    HW212235   6.007  10.251   1.684 -0.0872 -0.4602 -0.2088
35639SOL     OW12236  11.465   3.310   2.067  0.4424 -0.6538 -0.0282
35639SOL    HW112237  11.556   3.323   2.041  0.6351 -0.7963  0.5588
35639SOL    HW212238  11.469   3.245   2.137 -0.0181 -0.0008  0.6196
35640SOL     OW12239  10.171  11.709   3.570  0.1558 -0.0848  0.0908
35640SOL    HW112240  10.162  11.747   3.483 -0.3069  0.3006  0.3052
35640SOL    HW212241  10.090  11.659   3.582  0.7248 -1.1001 -0.1636
35641SOL     OW12242   6.002   0.848  11.446 -0.1594  0.2512  0.6690
35641SOL    HW112243   6.054   0.867  11.524  1.7220 -0.0544 -0.4592
35641SOL    HW212244   6.061   0.798  11.389 -1.9298 -0.7254 -0.3879
35642SOL     OW12245   6.276   9.574   9.901 -0.0436 -0.2368  0.2158
35642SOL    HW112246   6.282   9.666   9.875  0.1603 -0.1691  0.5041
35642SOL    HW212247   6.197   9.543   9.858 -0.1492  0.0912  0.1682
35643SOL     OW12248   4.173   4.633   5.283 -0.3223 -0.1971 -0.1935
35643SOL    HW112249   4.157   4.594   5.196  0.2060  0.0059 -0.3882
35643SOL    HW212250   4.091   4.677   5.305 -0.1170  0.6791 -1.0835
35644SOL     OW12251   1.227   1.077   3.253  0.0179  0.8557 -0.5462
35644SOL    HW112252   1.304   1.057   3.307  0.1750  0.4261 -0.9220
35644SOL    HW212253   1.181   1.146   3.301  1.2275  1.9270 -0.8530
35645SOL     OW12254   0.568   7.071  10.785  0.5240  0.4303  0.7796
35645SOL    HW112255   0.659   7.061  10.754 -0.0322 -1.2660 -0.4797
35645SOL    HW212256   0.539   6.981  10.801 -0.7515  0.9984  1.7880
35646SOL     OW12257   6.873   0.187   3.646 -0.7378 -0.2648 -0.3339
35646SOL    HW112258   6.830   0.115   3.600  0.6287 -1.6023  0.3840
35646SOL    HW212259   6.864   0.165   3.739 -0.4919  0.5963 -0.0987
35647SOL     OW12260   3.307   0.077   6.573 -0.4605 -0.1582  0.5203
35647SOL    HW112261   3.391   0.112   6.603  0.4077 -0.0186 -1.8544
35647SOL    HW212262   3.258   0.060   6.654  0.5140  2.9403  1.9219
35648SOL     OW12263  11.223   6.833   6.383 -0.2901 -0.2740  0.1963
35648SOL    HW112264  11.206   6.847   6.290 -2.3533 -0.7771  0.4547
35648SOL    HW212265  11.155   6.772   6.411  1.9933 -2.4397  1.4366
35649SOL     OW12266   9.898   2.972   7.035 -0.1998  0.0790  0.4980
35649SOL    HW112267   9.950   2.892   7.024 -0.2346 -0.0289  1.0667
35649SOL    HW212268   9.955   3.042   7.004 -0.0494 -0.1314  0.2899
35650SOL     OW12269  11.033   2.344  10.181 -0.0828 -0.5337 -0.7678
35650SOL    HW112270  10.972   2.303  10.120 -2.2337  0.4053  0.6359
35650SOL    HW212271  11.078   2.271  10.224 -0.6486 -1.2732 -1.4165
35651SOL     OW12272   5.296   4.146   3.906  0.2356  0.2944  0.2414
35651SOL    HW112273   5.249   4.092   3.844  1.2323  1.6063 -1.7581
35651SOL    HW212274   5.389   4.133   3.884  0.6001  1.0839  1.2165
35652SOL     OW12275   0.792   6.508   7.589  0.1203 -0.1141  0.0310
35652SOL    HW112276   0.721   6.451   7.560  0.8948 -1.1403  0.1009
35652SOL    HW212277   0.867   6.450   7.597  0.8214  0.8445  0.5469
35653SOL     OW12278   5.606   6.454  11.734  0.5181 -0.1129 -0.3951
35653SOL    HW112279   5.559   6.373  11.716 -1.0955  1.2471 -2.9405
35653SOL    HW212280   5.553   6.499  11.800 -0.1517  0.0586 -1.0293
35654SOL     OW12281   9.630   7.174  11.037  0.0543  0.6479  0.3722
35654SOL    HW112282   9.640   7.264  11.006 -2.2519  0.1848 -2.1616
35654SOL    HW212283   9.714   7.133  11.018  0.9223  2.0685  0.9427
35655SOL     OW12284   1.444   2.457   9.135 -0.2601  0.4245 -0.0631
35655SOL    HW112285   1.477   2.527   9.192 -1.5512  1.4678 -0.5486
35655SOL    HW212286   1.493   2.379   9.163  1.0461  1.4491  0.6545
35656SOL     OW12287   1.763   1.344   6.019  0.0065  0.3599 -0.2631
35656SOL    HW112288   1.846   1.366   5.978  0.3906  0.0937  0.3609
35656SOL    HW212289   1.787   1.297   6.099 -0.7538 -0.6813 -0.6202
35657SOL     OW12290  10.740   9.296   1.202 -0.2727 -0.5087 -0.3538
35657SOL    HW112291  10.823   9.344   1.211 -1.0910  1.1280 -1.0423
35657SOL    HW212292  10.712   9.280   1.292  0.9168 -1.3720 -0.1039
35658SOL     OW12293   1.118   2.622   3.417  0.2245  0.3777 -0.2243
35658SOL    HW112294   1.178   2.685   3.457  0.1561  0.4450 -0.2279
35658SOL    HW212295   1.039   2.673   3.397  0.5493  0.5297 -1.1750
35659SOL     OW12296   2.901  10.152  11.358 -0.3135  0.0243 -0.1814
35659SOL    HW112297   2.973  10.102  11.397 -1.3816 -1.4533 -0.0268
35659SOL    HW212298   2.824  10.096  11.369 -1.5373  1.6282 -0.1939
35660SOL     OW12299  10.965  10.702   0.179 -0.4939  0.3503 -0.2055
35660SOL    HW112300  10.902  10.644   0.222 -0.4986  0.6805  0.2343
35660SOL    HW212301  11.022  10.642   0.129 -1.7349  0.1160 -1.3972
35661SOL     OW12302   4.326   8.880   4.166 -0.4627 -0.2032  0.1530
35661SOL    HW112303   4.293   8.932   4.093 -0.9976 -0.2547  0.3508
35661SOL    HW212304   4.271   8.906   4.240  0.8070  0.7150  0.8251
35662SOL     OW12305   5.503  10.518   0.265 -0.1014 -0.3514  0.1634
35662SOL    HW112306   5.533  10.577   0.196  2.3599 -1.2700  0.3620
35662SOL    HW212307   5.475  10.439   0.220  0.6799 -0.6185  0.1234
35663SOL     OW12308   6.394   1.751   2.980 -0.1412  0.3438 -0.1459
35663SOL    HW112309   6.467   1.750   2.919 -2.5144 -2.8090 -3.3413
35663SOL    HW212310   6.354   1.837   2.969  1.7673  1.3340  0.1496
35664SOL     OW12311   3.436   1.802   1.105 -0.3865  0.4358  0.4618
35664SOL    HW112312   3.469   1.824   1.192  1.9114 -0.9206  0.0277
35664SOL    HW212313   3.498   1.737   1.072 -1.6941  0.2600 -1.8523
35665SOL     OW12314  10.510   6.867   0.627  0.1490  0.0917 -0.2335
35665SOL    HW112315  10.507   6.777   0.595  0.8430 -0.7942  1.9482
35665SOL    HW212316  10.434   6.910   0.588  0.3404 -1.1519 -2.0781
35666SOL     OW12317   3.089   0.567   5.779 -0.0690  0.0642  0.1498
35666SOL    HW112318   3.001   0.544   5.748  0.6869  1.6605 -3.8395
35666SOL    HW212319   3.145   0.495   5.749  0.4306  0.6427 -0.3238
35667SOL     OW12320   5.323   6.732   7.982 -0.4396 -0.6541  0.0230
35667SOL    HW112321   5.274   6.795   7.929 -0.2326 -0.7344 -0.2685
35667SOL    HW212322   5.302   6.754   8.072 -0.9350 -0.6266 -0.0983
35668SOL     OW12323   2.506  11.116   9.445 -0.4392  0.1708 -0.3568
35668SOL    HW112324   2.516  11.203   9.407  0.3670  0.2931  0.1210
35668SOL    HW212325   2.512  11.056   9.371 -3.4355  0.5973 -1.0777
35669SOL     OW12326   2.156  10.072   4.641  0.2218  0.1420  0.0775
35669SOL    HW112327   2.077  10.113   4.677  0.7128  0.5406  0.7285
35669SOL    HW212328   2.146   9.979   4.663 -0.5017  0.0307 -0.6730
35670SOL     OW12329  10.672   2.433   3.126  0.3176  0.0940 -0.2573
35670SOL    HW112330  10.717   2.386   3.197  0.1393 -1.7472 -1.2919
35670SOL    HW212331  10.591   2.384   3.113 -2.0480  3.2263  1.4255
35671SOL     OW12332   9.847   2.565   4.408  0.7176  0.3391 -0.0242
35671SOL    HW112333   9.882   2.582   4.496  2.9848 -0.8175 -0.6145
35671SOL    HW212334   9.764   2.612   4.405  0.5987  0.4355  2.7128
35672SOL     OW12335   2.214   1.916   5.382 -0.0525 -0.0611  0.3754
35672SOL    HW112336   2.285   1.853   5.397  0.3364 -0.2899 -1.9949
35672SOL    HW212337   2.257   2.001   5.378  0.2151 -0.2385 -1.4373
35673SOL     OW12338   6.099   7.801  10.845 -0.4148  0.2371  0.4184
35673SOL    HW112339   6.155   7.855  10.902 -0.7037  0.3428  0.6093
35673SOL    HW212340   6.147   7.795  10.763  0.0954 -0.0718  0.7351
35674SOL     OW12341   7.344   1.569   7.796  0.7746 -0.2733 -0.0420
35674SOL    HW112342   7.291   1.570   7.876 -0.3389  1.7821 -0.7191
35674SOL    HW212343   7.434   1.572   7.827  0.4459 -1.3834  1.1280
35675SOL     OW12344   4.993   4.883   3.891 -0.1949 -0.6732  0.0966
35675SOL    HW112345   4.984   4.897   3.796 -0.8414 -0.9821  0.1044
35675SOL    HW212346   4.978   4.789   3.902  2.4814 -1.1456  0.2235
35676SOL     OW12347   9.578   4.391   2.914 -0.4634 -0.0653 -0.0162
35676SOL    HW112348   9.560   4.449   2.988  1.1489 -1.6995  1.7943
35676SOL    HW212349   9.598   4.307   2.955  2.4709 -0.5663 -2.1958
35677SOL     OW12350  10.229   6.325   3.741  0.0312 -0.4852  0.0229
35677SOL    HW112351  10.143   6.337   3.781  0.6492  0.7605  1.0619
35677SOL    HW212352  10.213   6.270   3.665 -1.6702 -0.3272  0.2304
35678SOL     OW12353   6.684  10.596   7.882 -0.2587 -0.3995  0.4962
35678SOL    HW112354   6.647  10.599   7.794 -1.5416 -1.0323  0.9820
35678SOL    HW212355   6.740  10.673   7.887  0.1944 -0.5947 -1.0154
35679SOL     OW12356   1.231   4.316  10.894 -0.6141 -0.3396  0.5531
35679SOL    HW112357   1.243   4.238  10.839 -0.1509 -0.9343  1.4780
35679SOL    HW212358   1.309   4.319  10.949  1.2200  2.8381 -1.8751
35680SOL     OW12359   9.530   9.313   7.274  0.0369 -0.2547  0.7502
35680SOL    HW112360   9.534   9.274   7.187 -1.3349  0.2889  0.4066
35680SOL    HW212361   9.535   9.239   7.334  0.9692 -0.6399  0.2103
35681SOL     OW12362   0.206   3.837   8.861  0.1751  0.1373 -0.0170
35681SOL    HW112363   0.258   3.786   8.924 -1.6018  0.1638  1.5478
35681SOL    HW212364   0.268   3.857   8.791  2.3148  0.2428  1.7737
35682SOL     OW12365   4.056   5.785   9.181 -0.3684 -0.2037  0.1976
35682SOL    HW112366   4.148   5.773   9.207 -0.2097 -1.2755 -0.7550
35682SOL    HW212367   4.046   5.880   9.172  0.1662  0.0551  1.8943
35683SOL     OW12368  10.089   4.462   1.069  0.5065 -0.0686  0.2932
35683SOL    HW112369  10.164   4.448   1.011 -0.5255  0.7405 -1.3230
35683SOL    HW212370  10.032   4.387   1.052  0.7124 -0.4241  1.1422
35684SOL     OW12371   5.244  10.246   0.878 -0.3436  0.4862  0.1165
35684SOL    HW112372   5.153  10.233   0.849 -0.8555  2.2459  0.8282
35684SOL    HW212373   5.259  10.340   0.867  1.3577  0.2345  0.1452
35685SOL     OW12374   1.835   5.921  10.335 -0.0600 -0.2302  0.2353
35685SOL    HW112375   1.770   5.865  10.378  0.6392 -1.8723 -0.7462
35685SOL    HW212376   1.808   6.010  10.357 -1.6208 -0.9119  1.2888
35686SOL     OW12377   0.956   8.096   3.466 -0.3603  0.4041  0.1823
35686SOL    HW112378   0.880   8.076   3.520 -0.4880 -0.0979 -0.1787
35686SOL    HW212379   0.980   8.186   3.490 -0.9453  0.4940  0.4374
35687SOL     OW12380   3.213   5.119   5.436  0.4990  0.3665  0.3185
35687SOL    HW112381   3.261   5.039   5.456 -0.5618 -0.3069  0.2580
35687SOL    HW212382   3.280   5.188   5.436  1.7788 -0.7978 -1.6557
35688SOL     OW12383   3.535   0.172   0.302  0.3411  0.2202  0.7662
35688SOL    HW112384   3.532   0.252   0.249  0.2088  0.8818  1.7471
35688SOL    HW212385   3.523   0.101   0.239  2.8170  0.8037 -0.5110
35689SOL     OW12386   9.216   3.667   8.380  0.2393  0.1328  0.3402
35689SOL    HW112387   9.141   3.630   8.334  0.4563 -0.8679  0.7632
35689SOL    HW212388   9.183   3.688   8.468  0.6303 -1.0591  0.7912
35690SOL     OW12389  10.730   4.353   7.398  0.0813 -0.6611  0.6306
35690SOL    HW112390  10.724   4.262   7.371  3.1452 -1.1114  1.1638
35690SOL    HW212391  10.702   4.403   7.321  0.1914 -2.0303 -0.3228
35691SOL     OW12392   1.029   7.729  11.763 -0.1525 -0.0208 -0.6985
35691SOL    HW112393   1.091   7.657  11.774  0.6081  0.7177  0.0199
35691SOL    HW212394   0.999   7.721  11.672 -0.3452 -1.4286 -0.5295
35692SOL     OW12395   3.526   4.301   1.605  0.2851  0.0022  0.1073
35692SOL    HW112396   3.615   4.272   1.625  1.4105  1.5688 -2.1749
35692SOL    HW212397   3.528   4.396   1.620 -1.2661 -0.0455  0.8041
35693SOL     OW12398   7.880   4.067   9.203 -0.3883 -0.4358 -0.4857
35693SOL    HW112399   7.976   4.056   9.205 -0.2163  1.0123  0.0079
35693SOL    HW212400   7.860   4.081   9.111 -0.2842 -1.8622 -0.7521
35694SOL     OW12401   3.871   6.865   6.145  0.0428  0.3616  0.0103
35694SOL    HW112402   3.804   6.826   6.089 -0.2735 -2.2568  2.0404
35694SOL    HW212403   3.822   6.901   6.219  0.7152  0.4953  0.4002
35695SOL     OW12404   2.829   8.798  11.772  0.4183 -0.0144  0.0948
35695SOL    HW112405   2.748   8.764  11.734 -0.0019 -0.1928  1.1269
35695SOL    HW212406   2.876   8.836  11.698 -0.3525 -0.4067 -0.6099
35696SOL     OW12407   8.183   8.406  11.232 -0.7907  0.1731 -0.9094
35696SOL    HW112408   8.160   8.489  11.274  0.9134  1.0515 -1.6154
35696SOL    HW212409   8.129   8.404  11.153 -0.6990  0.6993 -0.9893
35697SOL     OW12410   2.357   8.288   2.205 -0.1580 -0.9904  0.0297
35697SOL    HW112411   2.348   8.364   2.147  0.7548 -0.1063  1.0038
35697SOL    HW212412   2.269   8.271   2.237 -0.2967  0.0230  0.2238
35698SOL     OW12413  10.646   7.370  11.781 -0.0486  0.1928  0.2321
35698SOL    HW112414  10.740   7.372  11.800  0.2487 -1.4186 -0.7791
35698SOL    HW212415  10.642   7.357  11.686 -1.2707 -0.6136  0.3792
35699SOL     OW12416   6.564   7.017   3.933 -0.1016 -0.5023  0.0950
35699SOL    HW112417   6.545   6.924   3.927  0.6743 -0.8438  2.1440
35699SOL    HW212418   6.502   7.050   3.999 -1.6290  0.8575 -1.8978
35700SOL     OW12419   3.537   4.736   6.703 -0.2215 -0.4493  0.2417
35700SOL    HW112420   3.526   4.831   6.713  0.7294 -0.2762 -0.2665
35700SOL    HW212421   3.623   4.718   6.741  0.7245 -0.7159 -1.9172
35701SOL     OW12422  10.904   4.717   5.445  0.3343  0.8979 -0.9740
35701SOL    HW112423  10.821   4.765   5.452 -2.1629 -2.8655 -1.8285
35701SOL    HW212424  10.882   4.639   5.394  4.9593  0.6397 -3.0235
35702SOL     OW12425   6.176   7.308  11.533  0.2771 -0.2214 -0.4652
35702SOL    HW112426   6.255   7.332  11.582 -0.7748  0.6279  0.8822
35702SOL    HW212427   6.144   7.229  11.577  0.1071 -0.2861 -0.7042
35703SOL     OW12428   9.138   4.263   6.611 -0.4212  0.2907  0.1333
35703SOL    HW112429   9.174   4.176   6.598 -0.7814  0.0172  0.8751
35703SOL    HW212430   9.189   4.320   6.554  1.0984 -0.1010  1.0414
35704SOL     OW12431   8.914   4.630   0.299 -0.2239  0.3061 -0.2790
35704SOL    HW112432   8.954   4.713   0.327 -1.4366  1.5999 -2.1228
35704SOL    HW212433   8.987   4.569   0.294  1.1209  1.8890 -1.0857
35705SOL     OW12434   3.283  10.421   0.250 -0.0532  0.3562 -0.3166
35705SOL    HW112435   3.317  10.510   0.258  0.5915  0.4236 -2.9417
35705SOL    HW212436   3.188  10.432   0.245  0.1001  1.2305 -3.0108
35706SOL     OW12437   6.009   8.610   2.722 -1.2232  0.1263  0.5314
35706SOL    HW112438   6.015   8.565   2.806 -0.7334  0.7191  0.8204
35706SOL    HW212439   6.040   8.699   2.740 -0.9375  0.2073 -0.3121
35707SOL     OW12440   8.668  10.615  11.783  0.0683  1.2240 -0.0671
35707SOL    HW112441   8.693  10.526  11.808 -2.5372  0.0305 -1.3952
35707SOL    HW212442   8.655  10.660  11.867  0.7243  0.1693  0.6392
35708SOL     OW12443   5.895   9.598   8.891 -0.6866  0.0177 -0.2881
35708SOL    HW112444   5.912   9.616   8.984 -0.1534  0.5641 -0.4840
35708SOL    HW212445   5.803   9.574   8.888 -0.8064  0.3737  0.3302
35709SOL     OW12446  11.340   5.254   8.354  0.0924  0.4695 -0.2732
35709SOL    HW112447  11.266   5.300   8.315 -0.6227 -0.3565  0.0616
35709SOL    HW212448  11.414   5.274   8.297 -0.1587  2.1226 -0.0629
35710SOL     OW12449   0.922   5.972   8.175 -0.3269 -0.0875 -0.1277
35710SOL    HW112450   0.842   6.021   8.195 -0.6491 -0.8597  0.5147
35710SOL    HW212451   0.890   5.892   8.133  0.0679 -0.7076  0.7425
35711SOL     OW12452   5.200   1.531   0.545  0.3716 -0.0025  0.5203
35711SOL    HW112453   5.173   1.448   0.586 -2.0971  0.5884  0.2782
35711SOL    HW212454   5.157   1.530   0.460 -0.3542  1.8517  0.8297
35712SOL     OW12455   0.401   1.621  11.782  0.1738  0.1482 -0.0193
35712SOL    HW112456   0.474   1.624  11.844 -0.2435 -0.4074  0.5122
35712SOL    HW212457   0.343   1.692  11.810  0.2765  0.2860 -0.1517
35713SOL     OW12458   7.521   2.075   3.950  0.4757  0.1451 -0.0794
35713SOL    HW112459   7.545   2.075   3.858 -0.3679 -1.6028 -0.3368
35713SOL    HW212460   7.426   2.082   3.951  0.2534 -2.1528  0.5140
35714SOL     OW12461   7.310  11.452   0.978 -0.3235 -0.3022  0.3854
35714SOL    HW112462   7.284  11.544   0.983  0.3838 -0.0526 -0.2871
35714SOL    HW212463   7.269  11.420   0.897 -0.8245 -0.6692  0.7787
35715SOL     OW12464   2.359  10.864   7.845  0.1282  0.2039 -0.0519
35715SOL    HW112465   2.340  10.780   7.888 -0.6897  0.4089  0.0175
35715SOL    HW212466   2.454  10.866   7.836  0.3084  0.0518  1.5305
35716SOL     OW12467   8.096   7.219   4.914  0.3074  0.1333  0.3226
35716SOL    HW112468   8.089   7.139   4.966 -1.0693 -0.6951 -1.0189
35716SOL    HW212469   8.046   7.284   4.964  1.2050  0.1065  1.2901
35717SOL     OW12470   9.415   6.720   1.628 -0.3708 -0.7000 -0.4234
35717SOL    HW112471   9.337   6.733   1.575 -1.7796 -1.1124  1.4328
35717SOL    HW212472   9.409   6.788   1.696  1.4529 -0.0726 -0.8355
35718SOL     OW12473   6.148  11.696   7.397  0.0131  0.5541  0.2193
35718SOL    HW112474   6.117  11.745   7.474 -0.0506  0.5080  0.2224
35718SOL    HW212475   6.128  11.753   7.323  2.2769  1.7263  0.4168
35719SOL     OW12476   8.898  10.163   1.250 -0.6234  0.0867  0.3011
35719SOL    HW112477   8.881  10.225   1.180 -2.4458  0.6101  1.1427
35719SOL    HW212478   8.988  10.133   1.235 -0.8698  0.3802 -2.0625
35720SOL     OW12479  11.778   0.558   0.523  0.5359  0.5828 -0.1501
35720SOL    HW112480  11.736   0.617   0.586 -0.7821 -1.1932  0.7127
35720SOL    HW212481  11.705   0.526   0.469  0.8441 -1.8780  0.7829
35721SOL     OW12482   5.225   2.056   2.771  0.4019 -0.3370  0.1879
35721SOL    HW112483   5.161   2.099   2.828  1.0465  0.6269  0.1974
35721SOL    HW212484   5.223   1.964   2.798 -0.3604 -0.1648  0.7576
35722SOL     OW12485   7.618   9.314   4.109 -0.2285  0.3007 -0.0065
35722SOL    HW112486   7.700   9.308   4.061 -0.9107 -0.9659 -1.0969
35722SOL    HW212487   7.644   9.314   4.201  1.0170  0.5801 -0.3395
35723SOL     OW12488   2.383   8.726   8.289 -0.0818  0.3633  0.9022
35723SOL    HW112489   2.291   8.711   8.312 -0.1667  0.7093  0.7979
35723SOL    HW212490   2.416   8.783   8.359 -0.1026  0.7052  0.6332
35724SOL     OW12491   2.097   1.472   3.403  0.0199  0.5264  0.0143
35724SOL    HW112492   2.032   1.542   3.394  0.4954  1.1381  1.0467
35724SOL    HW212493   2.173   1.503   3.353 -0.6127 -0.4006 -1.5816
35725SOL     OW12494   5.159   7.680   2.351  0.1749 -0.2939 -0.5930
35725SOL    HW112495   5.172   7.709   2.261 -0.8522  1.1239 -0.3161
35725SOL    HW212496   5.065   7.661   2.356 -0.4927  2.7724  0.9660
35726SOL     OW12497   6.001  10.429   7.094  0.2802 -0.1617 -0.0345
35726SOL    HW112498   5.916  10.463   7.121 -0.0837 -0.6930 -0.4848
35726SOL    HW212499   5.995  10.425   6.998  1.0268  0.3525 -0.1126
35727SOL     OW12500   3.614   4.903  11.188  0.1995 -0.1855 -0.9385
35727SOL    HW112501   3.549   4.852  11.237  1.7239 -1.8881 -0.5733
35727SOL    HW212502   3.564   4.946  11.120 -1.6150  0.1916  0.5415
35728SOL     OW12503   2.835   4.579   3.125  0.1015 -0.0312 -0.4530
35728SOL    HW112504   2.801   4.523   3.195  1.8850  0.8366  1.1986
35728SOL    HW212505   2.757   4.608   3.078 -1.1913 -0.5626  1.2409
35729SOL     OW12506   9.245   7.578   3.928 -0.7608 -0.4105 -0.0337
35729SOL    HW112507   9.335   7.608   3.914 -0.7671  0.6645  1.9151
35729SOL    HW212508   9.254   7.495   3.974 -0.7489  0.1994  1.0839
35730SOL     OW12509   1.048   1.861   5.305  0.3142  0.0184 -0.1659
35730SOL    HW112510   0.958   1.832   5.292  0.3658  0.4049 -1.6643
35730SOL    HW212511   1.083   1.802   5.372 -1.2162  0.2587  0.8933
35731SOL     OW12512   2.851   0.560   3.355  0.0180  0.4098 -0.5968
35731SOL    HW112513   2.852   0.519   3.268  3.9009 -0.8120 -0.1728
35731SOL    HW212514   2.882   0.650   3.339  1.6056 -0.0829 -0.4606
35732SOL     OW12515   8.536   4.073   4.217  0.0901  0.2603  0.7133
35732SOL    HW112516   8.521   4.121   4.298 -0.4402  1.3864 -0.0341
35732SOL    HW212517   8.560   4.140   4.153  0.7231 -0.6381 -0.0172
35733SOL     OW12518   8.227  11.441   3.585  0.3269 -0.3881 -1.5082
35733SOL    HW112519   8.156  11.381   3.606  2.1275 -2.0865  0.1534
35733SOL    HW212520   8.293  11.386   3.541  3.2605 -0.5573  2.5088
35734SOL     OW12521  10.739   0.036   2.960  0.4991  0.2240 -0.0741
35734SOL    HW112522  10.785  -0.023   2.900  1.4783 -0.6806  1.4939
35734SOL    HW212523  10.670   0.076   2.907  0.6409 -1.3559 -1.5196
35735SOL     OW12524  10.153   8.758   7.999 -0.1548 -0.3266 -0.7258
35735SOL    HW112525  10.079   8.710   7.961  0.5232 -1.4139 -0.7396
35735SOL    HW212526  10.143   8.847   7.968 -1.3114 -0.5127 -0.9406
35736SOL     OW12527   7.926   5.949   1.681 -0.4824  0.2382 -0.4299
35736SOL    HW112528   7.913   5.885   1.610  2.2730 -0.2466 -0.6052
35736SOL    HW212529   7.952   6.029   1.636 -1.7906  0.8859 -0.0781
35737SOL     OW12530   1.407   8.186   2.442  0.3155  0.2923 -0.2020
35737SOL    HW112531   1.314   8.201   2.426  0.2246 -0.5393 -0.4788
35737SOL    HW212532   1.435   8.129   2.371  1.5330  2.1852 -1.3390
35738SOL     OW12533   8.178   5.623   9.113  0.2701 -0.4768  0.1974
35738SOL    HW112534   8.113   5.687   9.084 -0.3069 -0.4912  1.3900
35738SOL    HW212535   8.260   5.672   9.118  0.2137 -0.2829 -0.6254
35739SOL     OW12536  10.607   6.989   7.941  0.0562  0.1934  0.0358
35739SOL    HW112537  10.642   6.904   7.968  1.7733  0.8791  0.0627
35739SOL    HW212538  10.607   7.042   8.021  2.2250  1.2572 -0.6066
35740SOL     OW12539   8.428   0.527   4.983 -0.2986  0.2375  0.2053
35740SOL    HW112540   8.472   0.610   5.000  1.3578 -0.1092 -1.8550
35740SOL    HW212541   8.487   0.460   5.020 -0.3662 -0.1065 -0.2873
35741SOL     OW12542   6.407   3.810   9.355  0.5153 -0.5427 -0.1952
35741SOL    HW112543   6.499   3.833   9.339  0.4929  1.3209  1.8453
35741SOL    HW212544   6.359   3.889   9.329 -0.5320 -1.4313 -1.0582
35742SOL     OW12545   5.282   3.016   3.485 -0.1454 -0.3609  0.1148
35742SOL    HW112546   5.357   2.966   3.451 -0.2153 -0.0630 -0.4924
35742SOL    HW212547   5.286   3.003   3.579  1.1025  0.2326  0.1607
35743SOL     OW12548   6.672   1.226   2.839 -0.0902 -0.4414 -0.9945
35743SOL    HW112549   6.649   1.277   2.761  1.3844 -0.3596 -1.4016
35743SOL    HW212550   6.587   1.202   2.877 -0.8377  1.5198 -1.2940
35744SOL     OW12551   0.976   6.191  10.731 -0.0820 -0.1433  0.2339
35744SOL    HW112552   0.900   6.136  10.709 -0.0722 -0.4622  0.9607
35744SOL    HW212553   0.945   6.280  10.718 -0.2247 -0.3062 -0.5818
35745SOL     OW12554   9.062   0.073   5.480  0.6505  0.1495  0.9693
35745SOL    HW112555   9.058  -0.014   5.520  0.7602 -0.2770  0.0847
35745SOL    HW212556   9.125   0.064   5.409 -0.4126  0.5454 -0.0702
35746SOL     OW12557   9.861  11.593   7.744 -0.0434  0.3720 -0.1494
35746SOL    HW112558   9.910  11.598   7.826  2.7468 -0.6792 -1.5938
35746SOL    HW212559   9.927  11.610   7.676 -1.4480 -2.0160 -2.3112
35747SOL     OW12560   4.995   1.782   5.475 -0.6997 -0.2675  0.3331
35747SOL    HW112561   4.940   1.857   5.451  1.7611  1.6870  0.4662
35747SOL    HW212562   4.992   1.725   5.398 -0.1443  1.5017 -1.0594
35748SOL     OW12563   0.557   2.454   1.480  0.2522 -0.4419 -0.1336
35748SOL    HW112564   0.552   2.410   1.395 -2.1005 -0.7338  0.0833
35748SOL    HW212565   0.547   2.384   1.544  2.0500 -0.2276  0.4433
35749SOL     OW12566   8.825   7.788  11.044  0.0736 -0.0171  0.0508
35749SOL    HW112567   8.891   7.723  11.021 -0.9968 -1.0021 -0.3176
35749SOL    HW212568   8.876   7.866  11.066  1.3081 -0.2906 -1.6274
35750SOL     OW12569   2.466   0.263   9.055 -0.2589  0.3740 -0.8145
35750SOL    HW112570   2.507   0.321   8.991 -1.5047  0.6940 -1.3593
35750SOL    HW212571   2.485   0.175   9.025  1.3993  0.4739 -0.1478
35751SOL     OW12572   1.838   7.560   7.177  0.0040  0.1728  0.6369
35751SOL    HW112573   1.930   7.585   7.171  0.2963 -1.0407 -0.4515
35751SOL    HW212574   1.789   7.636   7.145  0.6682  0.5195  0.4393
35752SOL     OW12575   8.835   8.182   4.435  0.0614  0.0770  0.2245
35752SOL    HW112576   8.770   8.132   4.385 -0.4213  0.9997 -0.1035
35752SOL    HW212577   8.792   8.198   4.519  0.6634 -1.0176  0.7552
35753SOL     OW12578   7.546   5.722   2.764 -0.7171  0.4123  0.4793
35753SOL    HW112579   7.628   5.771   2.759 -0.6998  0.2736 -0.8402
35753SOL    HW212580   7.503   5.756   2.843 -0.0264  1.4659  0.4289
35754SOL     OW12581   9.591   5.379  10.556  0.4971 -0.0486 -0.2515
35754SOL    HW112582   9.581   5.465  10.598 -0.9463  0.7726 -2.1162
35754SOL    HW212583   9.685   5.363  10.557  0.5927  0.3223  2.4204
35755SOL     OW12584   7.362   7.153   0.214  0.1252  0.3587 -1.0525
35755SOL    HW112585   7.327   7.237   0.184 -0.0706  0.5917 -0.1976
35755SOL    HW212586   7.293   7.116   0.269  1.1125  0.7206  0.4704
35756SOL     OW12587   8.057  11.132   6.485  0.3397  0.0392 -0.1114
35756SOL    HW112588   8.074  11.226   6.480 -0.3971  0.3708  2.3034
35756SOL    HW212589   8.143  11.093   6.501  0.2509  0.7854  2.8349
35757SOL     OW12590   0.508   4.186   8.897 -0.1463 -0.4503  0.0293
35757SOL    HW112591   0.443   4.225   8.840  0.5315 -0.9339 -1.0977
35757SOL    HW212592   0.512   4.245   8.972 -1.8471 -0.4036  0.1254
35758SOL     OW12593   1.720   0.610   0.151 -0.0418 -1.3129  0.3840
35758SOL    HW112594   1.644   0.590   0.097  0.6937 -0.5699 -1.0025
35758SOL    HW212595   1.700   0.696   0.189 -0.4631 -1.7337  1.1294
35759SOL     OW12596   2.501   8.899   0.334 -0.5790  0.6942 -0.3564
35759SOL    HW112597   2.588   8.904   0.374 -0.6877  2.3395 -0.2730
35759SOL    HW212598   2.440   8.891   0.407 -0.7077  2.7543 -0.1979
35760SOL     OW12599   4.498   6.600   6.325  0.5653  0.4694 -0.2736
35760SOL    HW112600   4.551   6.670   6.363 -0.0149  0.3983  0.7192
35760SOL    HW212601   4.411   6.639   6.316  0.4111  0.0991 -0.3904
35761SOL     OW12602   3.194  10.939   5.279 -0.1640  0.2823  0.0075
35761SOL    HW112603   3.195  10.929   5.374  2.3232 -1.3944 -0.0756
35761SOL    HW212604   3.131  11.009   5.262  0.3670  1.6272  2.9752
35762SOL     OW12605   2.455   3.328   9.240  0.4172 -0.2445  0.1869
35762SOL    HW112606   2.479   3.236   9.250  2.1083  0.1351 -0.0078
35762SOL    HW212607   2.525   3.365   9.186 -0.9434  0.8769 -0.8822
35763SOL     OW12608   3.643  11.758   5.790  0.3037 -0.1368  0.1219
35763SOL    HW112609   3.647  11.853   5.796 -0.2822 -0.1767  1.7704
35763SOL    HW212610   3.595  11.731   5.868  0.0824 -1.7667 -0.5239
35764SOL     OW12611   1.205   9.540   7.627 -0.4092  0.4476  0.2444
35764SOL    HW112612   1.168   9.595   7.558  1.4770  0.0319 -1.1628
35764SOL    HW212613   1.300   9.550   7.618 -0.0541 -1.7961  0.9771
35765SOL     OW12614   6.984   1.386   5.111 -0.9400 -0.2297  0.0424
35765SOL    HW112615   7.014   1.347   5.029 -1.6305  0.9934 -0.8149
35765SOL    HW212616   7.061   1.432   5.145 -0.4026 -1.4624  0.5584
35766SOL     OW12617   4.377  10.373   6.008  0.1007 -0.2769 -0.0523
35766SOL    HW112618   4.332  10.420   6.078 -0.5466  0.7713 -1.1311
35766SOL    HW212619   4.307  10.328   5.960  0.5721 -1.2577  0.1673
35767SOL     OW12620   2.641  10.413  10.662 -0.4967 -0.1221 -0.2181
35767SOL    HW112621   2.712  10.409  10.598 -1.5265  3.7819 -1.9254
35767SOL    HW212622   2.680  10.460  10.737 -0.4108 -1.0454  0.3329
35768SOL     OW12623   4.375   5.074   7.734 -0.5836  0.0813 -0.2989
35768SOL    HW112624   4.448   5.105   7.788  0.9418 -0.0466 -2.1829
35768SOL    HW212625   4.344   5.152   7.689 -1.8875  0.1979  0.7502
35769SOL     OW12626   8.231   8.215   7.603 -0.1072 -0.4526 -0.0492
35769SOL    HW112627   8.215   8.176   7.517  1.9266 -0.8270 -0.3129
35769SOL    HW212628   8.259   8.304   7.584  0.6380 -0.6289  0.1997
35770SOL     OW12629   1.035   1.952   7.609  0.1889 -0.3100 -0.2528
35770SOL    HW112630   1.066   1.943   7.699 -1.0013 -0.2021  0.1745
35770SOL    HW212631   0.953   1.904   7.606 -1.6597  2.5895 -0.2879
35771SOL     OW12632   6.838   5.246   3.149  0.6397  0.8144 -0.0324
35771SOL    HW112633   6.812   5.172   3.204  1.8709 -0.0148 -0.5156
35771SOL    HW212634   6.930   5.261   3.172  1.2964  0.1960 -2.0976
35772SOL     OW12635   5.587   9.946   2.772  0.6071 -0.3225 -0.2447
35772SOL    HW112636   5.589   9.942   2.676  0.3364 -0.6518 -0.2380
35772SOL    HW212637   5.514  10.005   2.792  0.6685 -0.2480 -0.2447
35773SOL     OW12638   4.413   0.912  11.813 -0.4164 -0.7217 -0.1422
35773SOL    HW112639   4.497   0.935  11.852  0.0133 -1.5128 -0.5787
35773SOL    HW212640   4.354   0.982  11.841  0.3507 -0.2242  0.2765
35774SOL     OW12641   9.344   7.049   3.750 -0.4831  0.1965  0.2613
35774SOL    HW112642   9.409   6.996   3.797 -1.3454 -1.0267  0.1327
35774SOL    HW212643   9.271   6.988   3.734 -0.5872  0.8002 -1.8693
35775SOL     OW12644   3.461   4.729   9.154 -0.1843  0.3306 -0.0852
35775SOL    HW112645   3.380   4.769   9.123  0.4151 -1.1345 -4.0967
35775SOL    HW212646   3.435   4.642   9.185 -0.2505 -0.1330 -1.3573
35776SOL     OW12647   9.372  11.336   5.989 -0.0561 -0.0101  0.0758
35776SOL    HW112648   9.318  11.354   5.912  0.2401 -0.7239 -0.3147
35776SOL    HW212649   9.327  11.264   6.033  0.7791 -0.9238 -0.4981
35777SOL     OW12650   3.668  10.120   6.361  0.5162 -0.4161 -0.4854
35777SOL    HW112651   3.580  10.083   6.366 -0.2483  1.2468 -1.0882
35777SOL    HW212652   3.722  10.058   6.410 -1.4581 -0.0270  2.4464
35778SOL     OW12653   9.532   2.544  10.091  0.0207 -0.3552 -0.0729
35778SOL    HW112654   9.608   2.515  10.041  0.5019  0.3690  0.2217
35778SOL    HW212655   9.529   2.484  10.166 -1.4778 -2.2868 -1.5890
35779SOL     OW12656   0.240   5.798   9.148 -0.1903 -0.8786  0.0072
35779SOL    HW112657   0.282   5.862   9.091 -1.1490  0.4000  0.6669
35779SOL    HW212658   0.171   5.847   9.192 -1.1367 -2.4495  0.3598
35780SOL     OW12659   9.063   6.610   0.568  0.0091 -0.0842 -0.0996
35780SOL    HW112660   9.023   6.644   0.648 -0.6725  0.0493 -0.4869
35780SOL    HW212661   9.131   6.673   0.546 -0.0954  0.1126  0.1353
35781SOL     OW12662  11.646   4.478   4.797 -0.6025  0.9465  0.6124
35781SOL    HW112663  11.683   4.447   4.879 -2.0879 -1.2786  0.5173
35781SOL    HW212664  11.661   4.408   4.735  1.1775  2.8928 -1.3421
35782SOL     OW12665   9.748   9.086  10.399  0.4935 -0.1038  0.4219
35782SOL    HW112666   9.776   9.168  10.437  0.3539 -0.0342  0.3768
35782SOL    HW212667   9.829   9.037  10.384  1.1968  1.9214 -4.0297
35783SOL     OW12668   1.665   7.151   0.777  0.3196 -0.1204 -0.0831
35783SOL    HW112669   1.660   7.120   0.867 -0.0154  1.0209  0.3069
35783SOL    HW212670   1.586   7.116   0.735 -0.1849  0.3822  0.4215
35784SOL     OW12671   0.272   9.510   3.681 -0.1315 -0.2096  0.0099
35784SOL    HW112672   0.287   9.500   3.775  1.2690  0.4972 -0.1176
35784SOL    HW212673   0.262   9.420   3.649 -2.5020 -0.4116  1.0655
35785SOL     OW12674   2.001   0.298   8.698 -0.3877 -0.2720  0.7732
35785SOL    HW112675   2.008   0.216   8.651 -0.4212  0.0592  0.1815
35785SOL    HW212676   1.909   0.302   8.727 -0.4530 -0.3190  0.5723
35786SOL     OW12677   8.516  11.360   4.485  0.1459 -0.3886 -1.3309
35786SOL    HW112678   8.584  11.322   4.429  0.5852 -0.0449 -1.0373
35786SOL    HW212679   8.553  11.442   4.516 -0.2842 -0.3413 -0.9234
35787SOL     OW12680   9.824   1.245  10.091  0.4010 -0.3942 -0.6776
35787SOL    HW112681   9.736   1.244  10.130  1.4751 -1.4251  1.9129
35787SOL    HW212682   9.854   1.335  10.106  1.5126 -1.2038  2.8871
35788SOL     OW12683   5.948   2.729   5.535  0.9439  0.5165 -0.6773
35788SOL    HW112684   6.041   2.750   5.529  0.6743  1.8706 -0.4940
35788SOL    HW212685   5.908   2.776   5.461  0.2733  0.8499 -0.1197
35789SOL     OW12686   7.825   4.344   7.958  0.3329 -0.0536  0.2722
35789SOL    HW112687   7.788   4.271   7.907 -0.5244  1.6611 -1.6836
35789SOL    HW212688   7.779   4.339   8.042 -0.7226 -0.9544 -0.3271
35790SOL     OW12689   2.448   6.746   6.824 -0.1871 -0.0089 -0.7852
35790SOL    HW112690   2.389   6.674   6.801  1.5341 -1.8921  0.4525
35790SOL    HW212691   2.390   6.811   6.864 -1.6472 -1.1206 -0.9810
35791SOL     OW12692   8.602   8.750   9.768 -0.0378 -0.1987  0.2022
35791SOL    HW112693   8.586   8.813   9.698  0.0123  0.5354  0.8258
35791SOL    HW212694   8.581   8.799   9.848  0.0790 -0.9582  0.7037
35792SOL     OW12695   3.925   1.053   4.918  0.4563 -0.3019 -0.1905
35792SOL    HW112696   3.882   0.985   4.866 -1.2826  0.7305 -0.1907
35792SOL    HW212697   4.013   1.059   4.882 -0.1400 -0.8418 -1.8266
35793SOL     OW12698   6.232   5.361   8.321  0.7668  0.1346  0.3301
35793SOL    HW112699   6.257   5.329   8.234 -0.4676 -2.5220  0.8654
35793SOL    HW212700   6.142   5.392   8.310  0.8158  0.3625  0.5530
35794SOL     OW12701   1.493  10.010  11.467  0.3211  0.2059 -0.4076
35794SOL    HW112702   1.427   9.941  11.457  0.3775  0.1945 -0.7206
35794SOL    HW212703   1.481  10.043  11.556 -0.4611  0.5603 -0.6326
35795SOL     OW12704   2.751   1.863   1.676  0.2456 -0.2530  0.7230
35795SOL    HW112705   2.681   1.927   1.666 -0.8402 -1.5385 -0.2101
35795SOL    HW212706   2.711   1.791   1.724 -0.2239 -2.5644 -2.7572
35796SOL     OW12707   2.066  10.727   6.376  0.0121  0.1816 -0.0844
35796SOL    HW112708   2.016  10.699   6.453  0.6414 -0.3263  0.1516
35796SOL    HW212709   2.078  10.646   6.326  0.3740  0.3470 -0.2630
35797SOL     OW12710   3.210   9.429   3.042 -0.5155 -0.7809  0.5428
35797SOL    HW112711   3.270   9.433   3.117  0.3309 -1.0057 -0.0968
35797SOL    HW212712   3.129   9.394   3.077 -0.0454 -1.1301  1.3002
35798SOL     OW12713   9.013   5.256   4.123  0.3862  0.2528  0.4701
35798SOL    HW112714   9.077   5.302   4.070  0.3426  0.2432  0.4085
35798SOL    HW212715   8.935   5.250   4.067  0.2801  0.4053  0.6011
35799SOL     OW12716   6.268   2.938   0.426  0.0367 -0.1569  0.0007
35799SOL    HW112717   6.359   2.941   0.395  0.1151  0.2578  0.2573
35799SOL    HW212718   6.252   3.026   0.460 -0.4971 -0.1999 -0.1382
35800SOL     OW12719   6.477   2.432   7.529 -0.1741  0.0531  0.0323
35800SOL    HW112720   6.516   2.508   7.571  1.9902 -0.7765 -0.3555
35800SOL    HW212721   6.461   2.459   7.439  1.5577 -0.2172 -0.3872
35801SOL     OW12722   1.462  11.373   5.496  0.6088 -0.4780  0.8006
35801SOL    HW112723   1.383  11.408   5.455  0.8522  1.2725  1.6947
35801SOL    HW212724   1.523  11.359   5.424  0.5079  1.0858  0.3741
35802SOL     OW12725   3.470   3.319   3.723 -0.6826 -0.7999  0.9252
35802SOL    HW112726   3.527   3.384   3.764  0.1116 -1.1571  0.3973
35802SOL    HW212727   3.387   3.328   3.771 -0.5142  0.4169  1.0404
35803SOL     OW12728   2.889  11.266   9.465 -0.0967  0.1626 -0.3180
35803SOL    HW112729   2.959  11.229   9.518  1.3285  1.7380 -1.0102
35803SOL    HW212730   2.809  11.243   9.511  0.9520 -0.5514  1.2205
35804SOL     OW12731   0.897   5.668  11.299  0.5550  0.2550 -0.4707
35804SOL    HW112732   0.841   5.620  11.360 -0.0169 -1.0744 -1.9839
35804SOL    HW212733   0.842   5.740  11.268  0.6303  0.5567  0.0788
35805SOL     OW12734   2.322   9.802   3.039  0.3985  0.0922  0.1520
35805SOL    HW112735   2.247   9.852   3.006  1.2321  0.2043 -1.6963
35805SOL    HW212736   2.368   9.864   3.097 -1.1476 -0.1415  1.7294
35806SOL     OW12737   7.262   3.000   2.157 -0.1733 -0.3047  0.6225
35806SOL    HW112738   7.171   2.973   2.173 -0.0794  0.0826  1.9029
35806SOL    HW212739   7.255   3.076   2.100 -0.6882 -0.0402  1.0277
35807SOL     OW12740   7.867  10.753   4.034  0.3560 -0.0355 -0.0176
35807SOL    HW112741   7.858  10.847   4.050 -0.1253 -0.3165  1.5771
35807SOL    HW212742   7.958  10.734   4.056  0.4187  0.0382 -0.2130
35808SOL     OW12743   9.306   6.708   8.325  0.1632  0.2493  0.1632
35808SOL    HW112744   9.269   6.783   8.372 -1.2388 -1.4092  1.8742
35808SOL    HW212745   9.390   6.692   8.368  0.1733  0.4450  0.2163
35809SOL     OW12746   9.581   7.957   2.131  0.1287  0.3855  0.1366
35809SOL    HW112747   9.501   7.931   2.086  0.5767  0.1777 -0.5532
35809SOL    HW212748   9.554   8.030   2.187 -0.7515 -0.3554  0.7011
35810SOL     OW12749   9.699   8.727   7.280 -0.3022  0.0822  0.1999
35810SOL    HW112750   9.747   8.655   7.321 -0.0028  1.1960  1.9327
35810SOL    HW212751   9.609   8.717   7.312 -0.7933 -0.8028 -1.3794
35811SOL     OW12752   8.823   0.756  11.245 -0.3962 -0.4661  0.3418
35811SOL    HW112753   8.884   0.802  11.302 -0.8351 -0.1442  0.5566
35811SOL    HW212754   8.846   0.663  11.255  0.7479 -0.2807 -0.3937
35812SOL     OW12755   0.059  10.406   9.861 -0.0803  0.1112  0.1557
35812SOL    HW112756   0.119  10.480   9.857 -0.6146  0.5665  0.5383
35812SOL    HW212757  -0.023  10.442   9.895 -0.5480 -0.5225 -0.2624
35813SOL     OW12758   2.781   6.852   4.583  0.3185 -0.2985  0.2969
35813SOL    HW112759   2.821   6.938   4.590 -1.7868  0.7182  0.6929
35813SOL    HW212760   2.722   6.859   4.508  0.5427 -1.5802 -0.0158
35814SOL     OW12761   8.045   5.619   8.311  0.5507 -0.2203  0.2627
35814SOL    HW112762   8.005   5.706   8.314  0.4353 -0.2822  0.5201
35814SOL    HW212763   8.046   5.589   8.402 -0.6985 -1.0648  0.0267
35815SOL     OW12764   8.431  10.468   2.647  0.1169  0.3387  0.0369
35815SOL    HW112765   8.419  10.376   2.669  2.6875  0.3303  1.7983
35815SOL    HW212766   8.349  10.510   2.675 -1.0084 -1.3353 -0.6046
35816SOL     OW12767  11.819  11.649   6.408  0.1516  0.1189  0.3158
35816SOL    HW112768  11.753  11.707   6.446 -0.7337 -1.1484  0.7803
35816SOL    HW212769  11.782  11.561   6.418 -0.1554 -0.3550 -3.5002
35817SOL     OW12770  11.644  11.427   4.150  0.5103  0.1748  0.1780
35817SOL    HW112771  11.661  11.356   4.087 -0.2398 -0.2206  0.3988
35817SOL    HW212772  11.664  11.507   4.102  1.4234 -0.1834 -0.0641
35818SOL     OW12773   4.295   2.407   1.302  0.5267 -0.0073  0.5220
35818SOL    HW112774   4.371   2.364   1.343  0.0189 -1.3510  0.0906
35818SOL    HW212775   4.279   2.357   1.222 -0.3587  0.7313  0.2183
35819SOL     OW12776   1.294  10.208   7.497 -0.8674  0.0422 -0.1872
35819SOL    HW112777   1.385  10.216   7.467 -0.2805 -0.1863  1.4191
35819SOL    HW212778   1.289  10.118   7.531 -0.9899  0.7568  1.8316
35820SOL     OW12779   8.787   5.489  10.110  1.0107  0.1532  0.1390
35820SOL    HW112780   8.730   5.535  10.172  0.5207 -0.1366 -0.0929
35820SOL    HW212781   8.856   5.451  10.164  0.4905 -0.2463  0.5327
35821SOL     OW12782   5.661   7.811   7.194  0.2841  0.4691  0.3476
35821SOL    HW112783   5.572   7.776   7.205 -0.4845  2.6056  1.4401
35821SOL    HW212784   5.696   7.816   7.283  1.0151  0.8547  0.0420
35822SOL     OW12785  11.533   6.169   3.898  0.1688  0.6174 -0.1931
35822SOL    HW112786  11.527   6.221   3.818 -0.7827  0.8899  0.0457
35822SOL    HW212787  11.507   6.229   3.967  0.2272  0.1627  0.2259
35823SOL     OW12788   3.177   1.292   3.880  0.0982 -0.2963 -0.4101
35823SOL    HW112789   3.107   1.297   3.945  0.9337  2.4416  0.4246
35823SOL    HW212790   3.132   1.286   3.796 -1.1206  0.2502  0.1757
35824SOL     OW12791  10.854   7.017   7.236  0.4595 -0.3836  0.4564
35824SOL    HW112792  10.914   6.967   7.292  3.0327 -0.0660 -1.7885
35824SOL    HW212793  10.857   6.972   7.152 -0.6935  1.0101 -0.3639
35825SOL     OW12794   0.149   6.236   2.127  0.0555 -0.2990  0.2362
35825SOL    HW112795   0.098   6.236   2.207 -0.1024  1.9981  0.2066
35825SOL    HW212796   0.138   6.325   2.091  0.8044 -0.9844 -1.8742
35826SOL     OW12797  11.089   9.611   9.611 -0.3933 -0.6279 -0.6965
35826SOL    HW112798  11.099   9.689   9.665 -0.6370  1.2781 -3.2391
35826SOL    HW212799  11.077   9.540   9.674 -1.4494  1.5365  1.7302
35827SOL     OW12800   5.887   0.994   8.172 -0.1204 -0.1324 -0.4854
35827SOL    HW112801   5.972   0.971   8.211 -0.2110 -0.1790 -0.3192
35827SOL    HW212802   5.851   0.910   8.143 -0.3258 -0.1651 -0.1283
35828SOL     OW12803   7.881   4.993   3.833 -0.1575  0.1608 -0.3688
35828SOL    HW112804   7.949   4.989   3.766 -0.8495 -0.1702 -1.0690
35828SOL    HW212805   7.802   4.963   3.789 -0.6263 -0.0893  0.6065
35829SOL     OW12806   9.512  10.299   0.815 -0.5278  0.1335  0.1594
35829SOL    HW112807   9.430  10.345   0.836 -0.2499  2.0412 -2.4351
35829SOL    HW212808   9.501  10.212   0.854 -3.0845  0.8479  1.2934
35830SOL     OW12809   9.933   9.263   8.961 -0.0258 -0.0122  0.4357
35830SOL    HW112810   9.894   9.185   8.921 -0.3243  0.6068 -0.5214
35830SOL    HW212811  10.011   9.280   8.908 -0.5823  0.9924 -0.0882
35831SOL     OW12812  11.535   1.367   1.461  0.1380 -0.0453  0.0788
35831SOL    HW112813  11.532   1.447   1.513 -1.7212 -0.2782  0.3768
35831SOL    HW212814  11.511   1.395   1.373 -0.9546 -0.3237  0.2766
35832SOL     OW12815   2.047   4.848  11.571 -0.4160  0.0958 -0.6149
35832SOL    HW112816   1.968   4.894  11.544 -2.7457 -1.2253  3.2433
35832SOL    HW212817   2.108   4.917  11.597 -1.8324  1.1126  0.0970
35833SOL     OW12818  11.242   2.251   2.894 -0.1161 -0.5353 -0.4890
35833SOL    HW112819  11.320   2.296   2.929 -0.0701 -0.3563 -0.8167
35833SOL    HW212820  11.173   2.270   2.957  0.2679 -1.2646  0.1656
35834SOL     OW12821   1.409   7.312   8.206 -0.0195 -0.1688  0.0225
35834SOL    HW112822   1.361   7.232   8.228  0.4393 -0.3930  0.2251
35834SOL    HW212823   1.349   7.362   8.151 -0.0951 -0.9178 -0.5962
35835SOL     OW12824   9.404   0.738   8.499  0.3176 -0.2467  0.2935
35835SOL    HW112825   9.351   0.745   8.419 -0.2461  0.7534  0.7319
35835SOL    HW212826   9.393   0.647   8.528 -0.5895 -0.2388 -0.0123
35836SOL     OW12827   6.130   5.237   6.830  0.0040 -0.1758  0.3534
35836SOL    HW112828   6.075   5.293   6.777  1.0754  0.7916  0.2270
35836SOL    HW212829   6.137   5.282   6.914  1.1863  0.0905  0.1236
35837SOL     OW12830  10.541  10.479   4.318 -0.0645  0.2362  0.2015
35837SOL    HW112831  10.527  10.571   4.298  2.5040  0.2694 -2.0614
35837SOL    HW212832  10.534  10.473   4.413 -1.5345  2.4811  0.3032
35838SOL     OW12833   9.784   1.028   4.446 -0.1139 -0.3749 -0.6419
35838SOL    HW112834   9.770   1.073   4.363 -1.0008  0.5418 -0.0250
35838SOL    HW212835   9.701   1.038   4.493  0.4717 -0.5908  0.4788
35839SOL     OW12836   2.918   8.663  11.543 -0.3545  0.6220  0.5299
35839SOL    HW112837   2.900   8.569  11.550 -0.3126  0.5509 -0.2298
35839SOL    HW212838   2.979   8.681  11.615 -1.1592  0.2791  1.3087
35840SOL     OW12839   5.866   4.167   8.181  0.5068  0.1935 -0.4141
35840SOL    HW112840   5.811   4.173   8.103 -0.3687  0.1874  0.1919
35840SOL    HW212841   5.847   4.080   8.217  0.0866  0.6066  0.3898
35841SOL     OW12842  11.650   0.952   4.777  0.5917  0.4364  0.8546
35841SOL    HW112843  11.691   0.869   4.753  1.8955  1.0188  0.9421
35841SOL    HW212844  11.718   1.018   4.761 -0.5495  1.5526  0.3578
35842SOL     OW12845   1.045  10.669   3.799  0.1796 -0.5601 -0.5048
35842SOL    HW112846   0.987  10.601   3.834  0.7518 -0.5370  0.5472
35842SOL    HW212847   1.024  10.674   3.706  0.4471 -2.5152 -0.7150
35843SOL     OW12848   8.887   0.366   1.090 -0.5914  0.1210 -0.0750
35843SOL    HW112849   8.971   0.357   1.045 -0.5960  2.2513 -0.6512
35843SOL    HW212850   8.825   0.386   1.020 -1.7310 -1.8966  0.2842
35844SOL     OW12851   1.685   6.001   5.581  0.0673 -0.6101 -0.0604
35844SOL    HW112852   1.608   5.946   5.568 -0.4947  0.3701 -1.1408
35844SOL    HW212853   1.657   6.067   5.644  1.1413 -2.2432  2.2555
35845SOL     OW12854   6.159   7.939   5.048 -0.1157  0.1687 -0.1965
35845SOL    HW112855   6.085   7.908   5.101  0.0804 -0.0753 -0.0641
35845SOL    HW212856   6.120   7.961   4.963 -0.5917  1.3485  0.2872
35846SOL     OW12857   0.051   5.103   8.021 -0.0485 -1.0157  0.2380
35846SOL    HW112858   0.044   5.072   7.930 -0.4843  1.3820 -0.6032
35846SOL    HW212859   0.141   5.082   8.046  0.7389  0.0974 -1.4861
35847SOL     OW12860  10.889   9.922   5.707  0.2906  0.0421  0.9870
35847SOL    HW112861  10.821   9.921   5.640  0.6517 -3.0444  0.5268
35847SOL    HW212862  10.842   9.908   5.789  0.1162  1.0998  1.0848
35848SOL     OW12863   9.004   4.503   5.159 -0.0214 -0.0236  0.0922
35848SOL    HW112864   9.096   4.476   5.153 -0.1161 -0.6192  0.9567
35848SOL    HW212865   8.955   4.425   5.132 -0.2745  0.2682 -0.2964
35849SOL     OW12866   1.567   7.576   6.411 -0.2478  0.4253  0.1289
35849SOL    HW112867   1.658   7.569   6.436 -0.1374  0.1270 -0.3306
35849SOL    HW212868   1.522   7.510   6.464  0.1253 -0.8592 -1.0665
35850SOL     OW12869  10.490  10.777   2.728 -0.7423  0.2573 -0.2238
35850SOL    HW112870  10.399  10.753   2.741 -0.6821 -0.7411 -1.4304
35850SOL    HW212871  10.535  10.745   2.806 -1.0455 -1.5373 -0.7446
35851SOL     OW12872   7.222   1.580   3.024  0.2968  0.1637 -0.3995
35851SOL    HW112873   7.213   1.639   2.949 -0.1944 -1.1039 -1.3695
35851SOL    HW212874   7.253   1.636   3.095 -0.8909  1.7370 -1.0745
35852SOL     OW12875   6.865   5.827   0.271 -0.0049 -0.4057 -0.0451
35852SOL    HW112876   6.885   5.740   0.306 -1.3641  0.1788  2.5013
35852SOL    HW212877   6.949   5.872   0.266  0.9511 -2.2588 -2.9136
35853SOL     OW12878   6.051   8.072   0.449  0.2329 -0.1013  0.4277
35853SOL    HW112879   5.972   8.022   0.430  0.3251 -0.0746 -0.0248
35853SOL    HW212880   6.118   8.035   0.391 -0.1785  1.8815 -1.4641
35854SOL     OW12881  10.523   0.121  10.543 -0.2963 -0.7857  0.3889
35854SOL    HW112882  10.585   0.177  10.498 -0.8599 -0.2238  0.2973
35854SOL    HW212883  10.561   0.108  10.630  0.4378 -1.2880  0.0102
35855SOL     OW12884  10.665   2.805   2.391  0.4775  0.1360 -0.1593
35855SOL    HW112885  10.626   2.719   2.400  0.8678 -0.0217  0.0438
35855SOL    HW212886  10.716   2.800   2.310  2.7184 -0.7097  1.2177
35856SOL     OW12887  11.474   5.702   1.567  0.3057 -0.4063  0.3354
35856SOL    HW112888  11.418   5.776   1.592  1.3701  0.4893  0.1613
35856SOL    HW212889  11.538   5.696   1.638  2.0993  0.8466 -1.0819
35857SOL     OW12890   7.713   4.167  11.138 -0.0463 -0.0370  0.7861
35857SOL    HW112891   7.646   4.206  11.194 -0.2577  1.6965 -0.5670
35857SOL    HW212892   7.730   4.082  11.177 -1.2870  0.4559  2.5607
35858SOL     OW12893   9.364   8.371   8.473  0.2490 -0.5279  0.2382
35858SOL    HW112894   9.425   8.297   8.476  1.2566  0.0769 -2.3520
35858SOL    HW212895   9.404   8.433   8.412 -1.4883  1.3229  0.8655
35859SOL     OW12896   2.732   0.459   0.754 -0.4802 -0.1547 -0.6375
35859SOL    HW112897   2.722   0.422   0.842 -1.3603  1.6318  0.0828
35859SOL    HW212898   2.820   0.434   0.727 -0.5333 -1.5337  0.3482
35860SOL     OW12899   4.119   2.376   1.553 -0.3281  0.0873 -0.0186
35860SOL    HW112900   4.160   2.383   1.467  0.6225  2.3761  0.5605
35860SOL    HW212901   4.192   2.383   1.615 -1.0565 -0.9882  1.0043
35861SOL     OW12902   1.263   8.588   8.261  0.5510 -0.0079  0.1705
35861SOL    HW112903   1.247   8.653   8.193 -0.2176 -0.1577  0.2000
35861SOL    HW212904   1.313   8.634   8.328 -0.6217  0.7704  0.5376
35862SOL     OW12905   4.880   9.339   2.456 -0.4495 -0.2852 -0.2399
35862SOL    HW112906   4.801   9.377   2.417 -1.8444 -0.4564  2.1850
35862SOL    HW212907   4.856   9.249   2.478  0.4007 -0.3398  0.5444
35863SOL     OW12908   1.568   8.086   8.522  0.1788  0.2592  0.1183
35863SOL    HW112909   1.498   8.150   8.517  0.5412  0.6322 -0.2957
35863SOL    HW212910   1.567   8.043   8.437 -0.1692 -0.4041  0.4517
35864SOL     OW12911   8.911   7.689   7.372 -0.3926 -0.7613 -0.4720
35864SOL    HW112912   8.886   7.597   7.367  0.6725 -1.0566 -0.6273
35864SOL    HW212913   8.903   7.712   7.465 -0.5523 -1.0369 -0.4182
35865SOL     OW12914   6.247   6.698   9.304 -0.5313 -0.0158 -0.1004
35865SOL    HW112915   6.216   6.638   9.372  0.0582 -0.7172 -0.4386
35865SOL    HW212916   6.182   6.692   9.234 -0.0475 -0.9035 -0.4849
35866SOL     OW12917   2.718  11.743   7.473 -0.3032 -0.5519  0.6573
35866SOL    HW112918   2.745  11.812   7.533  2.5576 -1.3186  0.3852
35866SOL    HW212919   2.668  11.788   7.405  0.6077  1.0926  1.0228
35867SOL     OW12920  10.885   3.138   6.598  0.3856 -0.2386 -0.0065
35867SOL    HW112921  10.840   3.086   6.664  0.1966  1.4248  1.2735
35867SOL    HW212922  10.848   3.226   6.608  2.4645  0.7367 -0.2656
35868SOL     OW12923   6.243  11.707  11.390 -0.0521  0.2362  0.0878
35868SOL    HW112924   6.159  11.752  11.381 -1.0811 -1.9299 -2.1161
35868SOL    HW212925   6.274  11.732  11.477 -2.4278  1.9781  0.5294
35869SOL     OW12926  10.786   6.744   6.422  0.3599 -0.0174 -0.1434
35869SOL    HW112927  10.820   6.818   6.473 -0.0813  0.0643  0.0325
35869SOL    HW212928  10.732   6.786   6.354  1.9002 -0.0359 -1.4540
35870SOL     OW12929   4.335   4.161   7.981  0.0684  0.2113 -0.0393
35870SOL    HW112930   4.309   4.176   8.072 -0.2352  0.6057 -0.1899
35870SOL    HW212931   4.299   4.075   7.960 -1.4903  0.9177 -0.3717
35871SOL     OW12932   9.993  11.301   8.138 -0.2309  0.0687 -0.2529
35871SOL    HW112933   9.985  11.307   8.233 -1.5247 -0.1808 -0.3327
35871SOL    HW212934   9.918  11.248   8.110  0.1025  0.1723 -1.4152
35872SOL     OW12935   5.805   5.974   2.930  0.4543  0.4891  0.0648
35872SOL    HW112936   5.838   5.976   2.840 -0.4361 -0.3044 -0.2924
35872SOL    HW212937   5.880   5.998   2.984  1.8490 -1.8429 -0.6778
35873SOL     OW12938   8.639   9.576   0.606 -0.0403 -0.0988 -0.5567
35873SOL    HW112939   8.583   9.512   0.562  0.7178 -1.3007  0.1618
35873SOL    HW212940   8.724   9.568   0.563  0.6390 -1.1064  0.9063
35874SOL     OW12941   6.502   8.807  11.763 -0.3162  0.2254  0.0514
35874SOL    HW112942   6.499   8.777  11.854  1.4613  2.4267  0.9332
35874SOL    HW212943   6.558   8.743  11.719  1.0383  0.5703  1.1944
35875SOL     OW12944   1.875   8.450   3.394 -0.3169  0.1558 -0.6244
35875SOL    HW112945   1.970   8.438   3.391 -0.2000 -0.2195  1.9837
35875SOL    HW212946   1.863   8.535   3.437 -1.1233 -0.5722  0.6388
35876SOL     OW12947   0.582   4.899   1.381 -0.2252  0.4745 -0.5453
35876SOL    HW112948   0.593   4.892   1.476  1.0757 -1.1222 -0.7781
35876SOL    HW212949   0.494   4.864   1.365 -1.0816  2.1653  0.1729
35877SOL     OW12950   1.220   8.522   0.992 -0.0104  0.0960 -0.3670
35877SOL    HW112951   1.218   8.617   0.980 -0.7929  0.1701  0.2362
35877SOL    HW212952   1.136   8.491   0.959 -1.0272 -0.0101  2.0636
35878SOL     OW12953  11.314   8.816   3.073  0.1296 -0.6191 -0.8895
35878SOL    HW112954  11.403   8.833   3.104  0.0495 -0.7106 -0.6083
35878SOL    HW212955  11.317   8.836   2.979  0.0398  0.9270 -0.5811
35879SOL     OW12956   9.569   7.917   4.624  0.2248  0.2174  0.0958
35879SOL    HW112957   9.661   7.934   4.644  0.4971 -1.3623  0.3076
35879SOL    HW212958   9.522   7.992   4.660  1.4307  1.1047 -0.1152
35880SOL     OW12959   3.700   3.007   0.114  0.6211  0.6473  0.0089
35880SOL    HW112960   3.606   2.988   0.119  0.4546  0.9116 -1.5150
35880SOL    HW212961   3.742   2.934   0.159 -0.3180  0.8212  1.2329
35881SOL     OW12962  11.729  10.439   3.605 -0.1765 -0.4426 -0.8872
35881SOL    HW112963  11.674  10.511   3.575  0.7489  0.1967 -1.0969
35881SOL    HW212964  11.732  10.449   3.700  3.4440  2.5460 -1.0740
35882SOL     OW12965   3.575   0.985   7.150  0.3168 -0.5970  0.0665
35882SOL    HW112966   3.557   1.078   7.136  2.5852  0.4455  3.1153
35882SOL    HW212967   3.620   0.957   7.071 -0.6410  0.7940 -1.0150
35883SOL     OW12968   2.244  10.078  11.220  0.2385 -0.3823 -0.2842
35883SOL    HW112969   2.239   9.990  11.181 -1.0800  0.3298 -1.8976
35883SOL    HW212970   2.309  10.124  11.166 -0.0167 -0.0134 -0.2810
35884SOL     OW12971  10.348   4.268   1.407  0.4573  0.2428  0.2480
35884SOL    HW112972  10.336   4.263   1.312 -1.5646 -0.3725  0.4952
35884SOL    HW212973  10.368   4.360   1.424  0.6221  0.3991 -0.7401
35885SOL     OW12974  11.270   1.037   1.128  0.7427 -0.5350  0.1573
35885SOL    HW112975  11.268   0.966   1.063 -2.1624  0.7485 -1.3607
35885SOL    HW212976  11.219   1.003   1.202 -1.2567  0.0701 -0.8519
35886SOL     OW12977   6.324   6.533   1.176 -0.6339  0.1806 -0.5687
35886SOL    HW112978   6.229   6.532   1.185 -0.5753  0.5503  0.1862
35886SOL    HW212979   6.343   6.467   1.110 -1.3256 -0.8323  0.2154
35887SOL     OW12980   9.278   6.895   3.398 -0.3666  0.4091 -0.2295
35887SOL    HW112981   9.350   6.954   3.420 -0.7807  0.6373  0.5844
35887SOL    HW212982   9.200   6.951   3.400 -0.7162 -0.0786  0.1821
35888SOL     OW12983   4.556   8.395   7.270 -0.2773  0.9428 -0.4585
35888SOL    HW112984   4.619   8.466   7.261 -0.5689  1.3494  0.5961
35888SOL    HW212985   4.471   8.435   7.253 -0.3808  0.7041 -0.5101
35889SOL     OW12986   3.337   1.038   5.721  0.0305 -0.1736  0.7990
35889SOL    HW112987   3.348   1.067   5.812  0.1516 -2.5783  1.6022
35889SOL    HW212988   3.276   0.965   5.726  0.0901 -0.4077 -1.0771
35890SOL     OW12989   2.711  11.619   0.881 -0.1324 -0.1948 -0.3299
35890SOL    HW112990   2.706  11.707   0.844 -1.6581 -0.1355 -0.0416
35890SOL    HW212991   2.765  11.629   0.959 -0.5673  0.5686 -0.1133
35891SOL     OW12992   7.299  10.025   9.522  0.7054 -0.0049 -0.0331
35891SOL    HW112993   7.271  10.064   9.439 -0.9196  0.2842  0.6187
35891SOL    HW212994   7.355  10.092   9.562 -0.1053  0.6841 -0.0229
35892SOL     OW12995   4.814   4.785  11.790  0.5930 -0.1173  0.1481
35892SOL    HW112996   4.759   4.835  11.850  0.1628 -2.1117  1.5121
35892SOL    HW212997   4.774   4.799  11.704  0.5709  1.9077  0.4481
35893SOL     OW12998   7.897   7.226   4.638  0.7231 -0.4571 -0.2614
35893SOL    HW112999   7.982   7.270   4.639 -0.8655  2.9777  2.1414
35893SOL    HW213000   7.840   7.286   4.590 -0.9054 -1.3455  0.4910
35894SOL     OW13001   2.903   0.687   4.022  0.4122 -0.2336  0.0892
35894SOL    HW113002   2.967   0.743   3.978  0.1903 -0.7936 -0.9935
35894SOL    HW213003   2.888   0.729   4.106  0.2934  1.3012 -0.6634
35895SOL     OW13004   2.129   5.567  11.242  0.6113 -0.3508 -0.1070
35895SOL    HW113005   2.054   5.511  11.263  1.2757 -1.5453 -0.8283
35895SOL    HW213006   2.124   5.639  11.306 -0.1574 -1.3135  0.9501
35896SOL     OW13007   9.416  10.424   6.615 -0.0481  0.4553  0.4644
35896SOL    HW113008   9.328  10.459   6.626 -0.4332  0.1716 -1.3812
35896SOL    HW213009   9.402  10.332   6.590  0.6590  0.8133 -1.4128
35897SOL     OW13010   9.204  11.163   0.745 -0.1286  0.1233 -0.9292
35897SOL    HW113011   9.199  11.183   0.839  1.0239 -2.0277 -0.3432
35897SOL    HW213012   9.294  11.186   0.720 -0.1139 -0.2851 -1.2581
35898SOL     OW13013   7.431   7.655   8.684  0.1480  0.6778 -0.3864
35898SOL    HW113014   7.425   7.717   8.756  0.7371  0.5875 -0.2551
35898SOL    HW213015   7.340   7.635   8.662 -0.0473  0.3828  0.6161
35899SOL     OW13016   4.892   1.870  11.686  0.0195 -0.5905  0.3743
35899SOL    HW113017   4.974   1.821  11.687 -0.5967 -1.8550 -2.3644
35899SOL    HW213018   4.849   1.845  11.604 -2.1269  1.6786  0.6617
35900SOL     OW13019   9.838   9.213   4.425 -0.2608  0.0253 -0.3431
35900SOL    HW113020   9.870   9.293   4.466  0.6276 -0.9406  0.9797
35900SOL    HW213021   9.870   9.218   4.334  0.4357  0.8254 -0.0715
35901SOL     OW13022   8.149   6.416   0.681  0.0766  0.0206 -0.1081
35901SOL    HW113023   8.226   6.435   0.627 -0.1172  0.8511 -0.1051
35901SOL    HW213024   8.151   6.321   0.692 -1.0001 -0.4878 -3.2862
35902SOL     OW13025   1.572   2.143  10.787 -0.3249 -0.1672 -0.1725
35902SOL    HW113026   1.537   2.056  10.807 -0.6295 -0.1919 -0.7761
35902SOL    HW213027   1.667   2.132  10.792 -0.3434 -0.6915 -0.8252
35903SOL     OW13028  10.095   1.044  10.363  0.1628 -0.3815  0.3025
35903SOL    HW113029  10.127   1.130  10.335 -0.1199  0.4519  2.3318
35903SOL    HW213030  10.038   1.015  10.292 -0.7321  1.7007  0.1015
35904SOL     OW13031   2.543   8.704   7.730  0.2650  0.1561  0.1454
35904SOL    HW113032   2.466   8.646   7.730 -0.2813  0.8496 -0.7759
35904SOL    HW213033   2.516   8.779   7.785  0.8466 -0.2848  1.0590
35905SOL     OW13034   4.631   6.811   1.046  0.2639  0.0556  0.1216
35905SOL    HW113035   4.612   6.897   1.011 -0.5542  0.1615  0.7905
35905SOL    HW213036   4.549   6.762   1.039  1.1251 -1.2310 -1.7460
35906SOL     OW13037   9.848   2.838   5.248  0.2631  0.2496  0.7380
35906SOL    HW113038   9.761   2.800   5.238  0.8480 -0.6162 -1.7571
35906SOL    HW213039   9.900   2.768   5.288  1.0385 -1.4028 -2.7455
35907SOL     OW13040   4.094   9.087   7.564 -0.2425  0.1570 -0.7136
35907SOL    HW113041   4.093   9.159   7.627  2.1043 -0.3627  0.0321
35907SOL    HW213042   4.098   9.008   7.619 -0.6165 -0.4358 -1.5228
35908SOL     OW13043   7.757   0.146  11.451  0.1077  0.0773  0.1838
35908SOL    HW113044   7.816   0.089  11.401  1.1020 -1.6857  3.0827
35908SOL    HW213045   7.813   0.184  11.518 -1.5897  0.3106  1.5342
35909SOL     OW13046   1.558   0.531  11.634  0.6956 -0.0035  0.3933
35909SOL    HW113047   1.568   0.618  11.672  0.1534  0.5727 -0.7169
35909SOL    HW213048   1.471   0.503  11.663  0.0772  0.6403 -0.7614
35910SOL     OW13049   5.466   7.543   7.145 -0.4003 -0.3931 -0.3398
35910SOL    HW113050   5.513   7.495   7.213  0.8127 -0.8141 -1.4336
35910SOL    HW213051   5.433   7.475   7.086 -2.0251 -0.0774  0.1538
35911SOL     OW13052   9.393   3.804   9.121  0.5217  0.3237  0.4389
35911SOL    HW113053   9.381   3.883   9.172 -1.0197  0.3517  0.0940
35911SOL    HW213054   9.484   3.807   9.091  0.4486  2.0121  0.3360
35912SOL     OW13055   4.487   0.034   0.676 -0.3259  0.2734 -0.1262
35912SOL    HW113056   4.437   0.109   0.708  0.7450  1.6696 -1.6118
35912SOL    HW213057   4.496  -0.023   0.753 -0.9847  1.7484  1.0871
35913SOL     OW13058  11.277   3.205   9.139 -0.4938 -0.6649 -0.3711
35913SOL    HW113059  11.345   3.268   9.164 -1.6236  0.1628  0.7848
35913SOL    HW213060  11.321   3.143   9.081  1.5591 -0.8842  1.3117
35914SOL     OW13061   4.790   9.233   7.469  0.0055  0.6254 -0.2893
35914SOL    HW113062   4.850   9.160   7.457  1.0589  1.7170 -2.2712
35914SOL    HW213063   4.737   9.209   7.545  2.4754 -0.6892  1.1491
35915SOL     OW13064  10.593   8.024   5.082  0.5119 -0.4316 -0.1382
35915SOL    HW113065  10.543   7.942   5.075 -0.1692 -0.0423  0.0371
35915SOL    HW213066  10.654   8.021   5.008  1.5428 -1.7774  0.7149
35916SOL     OW13067   5.249   4.431   1.682 -0.3947 -0.1386 -0.0543
35916SOL    HW113068   5.325   4.377   1.704 -0.7709 -0.1484  1.2961
35916SOL    HW213069   5.239   4.490   1.757 -1.0285  0.6459 -0.7340
35917SOL     OW13070  10.505   6.411   9.007  0.0657 -0.0765 -0.4713
35917SOL    HW113071  10.585   6.403   9.060  0.3049  0.2664 -0.7786
35917SOL    HW213072  10.534   6.393   8.918 -0.0057  1.0187 -0.7271
35918SOL     OW13073   0.873   7.245  10.954  0.0690 -0.2308 -0.0445
35918SOL    HW113074   0.899   7.292  11.033 -0.4222 -0.1935  0.0983
35918SOL    HW213075   0.778   7.248  10.955  0.0338  2.1013 -2.0282
35919SOL     OW13076   4.577   0.461   1.866 -0.6668 -0.1219  0.5264
35919SOL    HW113077   4.533   0.376   1.872 -0.3420 -0.3116  0.2620
35919SOL    HW213078   4.668   0.440   1.846 -0.0568  0.1922  2.7429
35920SOL     OW13079   5.294   7.208   8.538  0.6703  0.2780 -0.5169
35920SOL    HW113080   5.218   7.159   8.567 -0.5664  1.5368 -1.4729
35920SOL    HW213081   5.364   7.143   8.533 -0.4809 -1.0413 -0.1991
35921SOL     OW13082   5.596   7.069  10.059  0.5399 -0.3150 -0.2730
35921SOL    HW113083   5.636   7.005  10.117 -0.4570 -1.2694 -0.6032
35921SOL    HW213084   5.544   7.125  10.117  0.4616 -0.5453 -0.1217
35922SOL     OW13085  11.417   5.395   7.106  0.1164 -0.3666  0.4609
35922SOL    HW113086  11.417   5.391   7.201  0.2447 -1.2356  0.4378
35922SOL    HW213087  11.332   5.357   7.081 -0.0182  0.0785  0.2344
35923SOL     OW13088   6.161   4.119   6.951  0.1377 -0.4542  0.0023
35923SOL    HW113089   6.198   4.197   6.994 -0.2441 -0.4883  0.4019
35923SOL    HW213090   6.178   4.133   6.858  1.4725 -0.6402  0.2027
35924SOL     OW13091   1.111   8.973   6.265  0.3439 -0.1525 -0.2127
35924SOL    HW113092   1.184   9.028   6.238  0.4317  0.3784  1.0460
35924SOL    HW213093   1.093   8.918   6.189  1.7162  0.0614 -0.7172
35925SOL     OW13094  10.492   9.219   6.072 -0.4227  0.0187 -0.0330
35925SOL    HW113095  10.460   9.303   6.040 -1.9674 -0.4258  0.2583
35925SOL    HW213096  10.524   9.237   6.160 -0.8528  0.2907  0.0709
35926SOL     OW13097   6.164   5.037   7.324 -0.3990 -0.2294  0.6640
35926SOL    HW113098   6.152   4.943   7.316 -0.5615 -0.2103  0.6667
35926SOL    HW213099   6.231   5.048   7.391  4.0052 -0.5258 -3.2013
35927SOL     OW13100   5.503  10.680   3.569  0.5123 -0.0851 -0.2945
35927SOL    HW113101   5.515  10.720   3.483  1.0646  1.6180  0.5275
35927SOL    HW213102   5.585  10.699   3.616 -0.3687  0.3967  1.1147
35928SOL     OW13103  10.436   6.721  10.723  0.0524 -0.1459  0.1804
35928SOL    HW113104  10.457   6.814  10.731  1.7853 -0.5072  0.1387
35928SOL    HW213105  10.488   6.679  10.792 -1.0501 -1.0506  0.4823
35929SOL     OW13106  10.321   2.502   9.980  0.3545 -0.0756  0.3114
35929SOL    HW113107  10.416   2.494   9.983  0.1949 -2.8097  0.0007
35929SOL    HW213108  10.289   2.450  10.054 -0.9232 -0.2050 -0.2912
35930SOL     OW13109   2.299   6.469   8.936 -0.5801 -0.3644  0.2302
35930SOL    HW113110   2.212   6.488   8.970 -1.8722 -2.2913 -1.7248
35930SOL    HW213111   2.316   6.540   8.873 -1.6271 -0.9820 -0.7843
35931SOL     OW13112   3.556   8.232   1.179  0.0632 -0.7381  0.6237
35931SOL    HW113113   3.550   8.276   1.264  2.6248  0.7704  0.1512
35931SOL    HW213114   3.524   8.297   1.117 -0.1751 -1.1817  0.2785
35932SOL     OW13115   9.606   5.728   2.345 -0.0599  0.0444  0.3707
35932SOL    HW113116   9.697   5.699   2.342  0.4784  1.4156  1.9085
35932SOL    HW213117   9.560   5.658   2.390  0.2710 -0.5477 -0.2003
35933SOL     OW13118   1.900   2.406   5.247 -0.0319  0.2287  0.4195
35933SOL    HW113119   1.890   2.453   5.164  2.0031  0.7732  0.4091
35933SOL    HW213120   1.882   2.315   5.225 -0.9498  0.5605 -0.2832
35934SOL     OW13121   1.650   9.785   0.600  0.0209 -0.1765  0.5024
35934SOL    HW113122   1.737   9.817   0.626 -0.4762  0.3424  1.5746
35934SOL    HW213123   1.662   9.756   0.509  0.9277  1.3790  0.0856
35935SOL     OW13124   9.570   3.768   9.368 -0.1307 -0.2459  0.0266
35935SOL    HW113125   9.631   3.699   9.392  1.1272  0.2047 -1.7375
35935SOL    HW213126   9.576   3.775   9.273 -0.5776  1.9562  0.1011
35936SOL     OW13127   3.994   6.653   8.301  0.0578  0.1916 -0.1196
35936SOL    HW113128   4.049   6.591   8.255  0.5321  0.6282 -0.1499
35936SOL    HW213129   4.032   6.658   8.389 -0.3062  0.0319  0.0495
35937SOL     OW13130   8.004   2.347   6.664 -0.2526  0.1483  0.2664
35937SOL    HW113131   7.914   2.375   6.682 -1.3442 -2.4039 -0.6550
35937SOL    HW213132   8.019   2.372   6.573 -0.7510 -0.9412 -0.1443
35938SOL     OW13133   0.937  11.091   7.318  0.6035 -0.1320  0.1596
35938SOL    HW113134   0.905  11.074   7.229  1.4964  1.3312 -0.4773
35938SOL    HW213135   0.984  11.011   7.342 -0.6879 -1.0356 -0.1599
35939SOL     OW13136   1.384   0.147   3.324  0.1751  0.2723  0.2374
35939SOL    HW113137   1.351   0.078   3.268  0.9767 -0.1431  0.2584
35939SOL    HW213138   1.333   0.140   3.405 -1.0545  0.9417 -0.4556
35940SOL     OW13139  10.288  11.177   9.103 -0.0810  0.5648 -0.8835
35940SOL    HW113140  10.376  11.215   9.104 -0.3708  1.2644  0.4080
35940SOL    HW213141  10.241  11.224   9.172 -1.3918  0.0112 -1.3742
35941SOL     OW13142   3.505   4.014   5.024  0.2623 -0.3544  0.2092
35941SOL    HW113143   3.507   3.984   4.934 -0.0156 -1.4578  0.5550
35941SOL    HW213144   3.420   4.056   5.035  0.2452 -0.3367 -0.0045
35942SOL     OW13145   6.357  11.050   8.390  0.3457  0.3725  0.5336
35942SOL    HW113146   6.316  10.996   8.322  0.9293 -2.0456  1.9891
35942SOL    HW213147   6.450  11.030   8.383  0.7704  2.2647  0.2745
35943SOL     OW13148   7.922   2.698  10.212  0.1075 -0.0803  0.3220
35943SOL    HW113149   7.922   2.670  10.303  0.3403 -2.5799 -0.3705
35943SOL    HW213150   7.831   2.718  10.192  0.2376  1.8148  1.4158
35944SOL     OW13151  11.384   1.132   3.832 -0.2016  0.6551 -0.0992
35944SOL    HW113152  11.462   1.123   3.887 -0.7008 -0.3451  0.4917
35944SOL    HW213153  11.405   1.083   3.753 -0.5807 -0.4831  0.4824
35945SOL     OW13154   8.255   3.169   5.924  0.2186 -0.7120  0.7239
35945SOL    HW113155   8.223   3.255   5.951 -0.6666 -0.7780 -0.0533
35945SOL    HW213156   8.246   3.115   6.002 -0.2424 -0.3666  0.9181
35946SOL     OW13157   8.552   9.133   0.954  0.2818  0.5992 -0.1355
35946SOL    HW113158   8.465   9.137   0.913 -0.3438 -0.7515  0.9991
35946SOL    HW213159   8.610   9.104   0.883  0.0751  2.6328 -1.2233
35947SOL     OW13160   5.679   4.711   1.581 -0.1999 -0.0488  0.9454
35947SOL    HW113161   5.629   4.715   1.663  0.4414 -1.5833  1.4316
35947SOL    HW213162   5.741   4.784   1.588 -1.3483  0.9718  0.9797
35948SOL     OW13163   5.894   4.483   3.218 -0.0503  0.0263 -0.5090
35948SOL    HW113164   5.930   4.556   3.269 -0.8718  0.6926 -0.8641
35948SOL    HW213165   5.941   4.406   3.250 -0.4337  0.4510  1.1559
35949SOL     OW13166   9.137   6.161   0.513  0.2834 -0.2055 -0.1422
35949SOL    HW113167   9.148   6.071   0.546  3.7192 -0.1969 -0.9203
35949SOL    HW213168   9.043   6.176   0.517 -0.5139 -4.0144 -0.3885
35950SOL     OW13169   9.938  10.877   4.704  0.0324 -0.0235  0.4879
35950SOL    HW113170   9.907  10.897   4.615 -0.8815 -2.6221  0.1338
35950SOL    HW213171   9.859  10.879   4.758 -0.0963 -2.2082  0.4580
35951SOL     OW13172   3.394   5.369   8.157  0.1282 -0.2361 -0.1134
35951SOL    HW113173   3.360   5.414   8.079 -1.3146  0.5734  0.9480
35951SOL    HW213174   3.339   5.291   8.165  1.0039 -0.9183 -0.5070
35952SOL     OW13175   1.325   0.557  10.186 -0.5112  0.0960 -0.0747
35952SOL    HW113176   1.312   0.648  10.214  0.3463  0.3408 -0.4561
35952SOL    HW213177   1.245   0.536  10.139 -1.3631  0.1569  1.2704
35953SOL     OW13178   7.273   7.662   5.937 -0.0427 -0.3914 -0.0451
35953SOL    HW113179   7.291   7.729   5.871  2.1550 -2.4108 -1.6375
35953SOL    HW213180   7.199   7.613   5.903 -1.0334  0.5703  0.6570
35954SOL     OW13181   6.182   0.836   3.917 -0.5688  0.6099  0.4793
35954SOL    HW113182   6.192   0.872   3.829 -0.2302 -0.3039  0.1342
35954SOL    HW213183   6.087   0.834   3.931 -0.7596 -1.3904 -0.8045
35955SOL     OW13184   5.509   0.473   1.270 -0.0951  0.6751 -0.2121
35955SOL    HW113185   5.506   0.519   1.354 -2.4308 -1.3986  0.9916
35955SOL    HW213186   5.475   0.536   1.207  0.6818  1.9184  0.5834
35956SOL     OW13187   1.879   8.399   6.001  0.2527  0.0492 -0.1562
35956SOL    HW113188   1.869   8.308   6.030  1.1462  0.4928  1.6374
35956SOL    HW213189   1.799   8.442   6.030  0.6282  0.2350  0.6002
35957SOL     OW13190  10.111   0.137   9.056 -0.7556 -0.4687 -0.4711
35957SOL    HW113191  10.084   0.176   8.973  0.1019 -1.7400 -1.3768
35957SOL    HW213192  10.205   0.154   9.061 -1.1363  1.6610  1.4237
35958SOL     OW13193   6.128   0.481  10.746 -0.5468  0.6705  1.0333
35958SOL    HW113194   6.124   0.388  10.725 -0.3851  0.4839  1.8152
35958SOL    HW213195   6.050   0.518  10.705 -0.8740  0.1078  1.1345
35959SOL     OW13196   0.424   8.536   3.977  0.3726  0.1349 -0.0852
35959SOL    HW113197   0.357   8.522   4.045  0.4023  0.2723 -0.0286
35959SOL    HW213198   0.500   8.488   4.009  0.2846 -0.0678 -0.1762
35960SOL     OW13199  11.338   0.588   5.932  0.2896 -0.4609 -0.1168
35960SOL    HW113200  11.393   0.510   5.939  1.5983  0.4046 -0.3356
35960SOL    HW213201  11.340   0.611   5.839  0.1317 -0.0167 -0.0141
35961SOL     OW13202   4.390   2.418   8.157 -0.1357 -0.2411 -0.0156
35961SOL    HW113203   4.363   2.507   8.182 -1.5256 -0.6430 -0.0333
35961SOL    HW213204   4.365   2.364   8.232  0.8457 -0.6068  0.0562
35962SOL     OW13205   6.297   2.425   3.276 -0.1358 -0.2123  0.0926
35962SOL    HW113206   6.240   2.497   3.305 -1.5950 -1.2569 -0.0929
35962SOL    HW213207   6.357   2.412   3.349  1.2419  2.2090 -0.4722
35963SOL     OW13208   6.698   7.457   0.370  0.6255  0.1853  0.3833
35963SOL    HW113209   6.604   7.445   0.359  0.7265 -0.5543  0.2881
35963SOL    HW213210   6.715   7.547   0.342 -0.5217  1.4089  3.2348
35964SOL     OW13211   0.270   0.937   6.879 -0.1845  0.0298  0.3842
35964SOL    HW113212   0.210   0.979   6.817  0.5735  0.8043  0.1634
35964SOL    HW213213   0.322   1.008   6.914  2.2442 -0.8424 -1.1755
35965SOL     OW13214   6.772   2.431   0.097 -0.0873  0.1657 -0.4868
35965SOL    HW113215   6.789   2.463   0.186  1.7954  0.0856 -0.7705
35965SOL    HW213216   6.677   2.422   0.092 -0.2203  0.0087  1.5777
35966SOL     OW13217   1.573   4.364   9.145  0.4908 -0.0256 -0.0661
35966SOL    HW113218   1.541   4.378   9.056  0.6679  1.2335  0.0465
35966SOL    HW213219   1.635   4.435   9.160  1.3668 -0.9098  0.6561
35967SOL     OW13220   5.008   7.834   0.634  0.5670  0.2798 -0.6209
35967SOL    HW113221   5.071   7.904   0.651 -1.1182  1.7788 -0.2784
35967SOL    HW213222   4.933   7.856   0.688 -0.5184 -1.1118 -1.5025
35968SOL     OW13223   1.537  10.648   0.694 -0.1707  0.0207  0.2438
35968SOL    HW113224   1.531  10.655   0.789 -1.5750  0.3443  0.1500
35968SOL    HW213225   1.450  10.672   0.662  0.0474 -0.8372 -1.0860
35969SOL     OW13226   2.501   6.770   7.452  0.3578  0.3369 -0.3123
35969SOL    HW113227   2.438   6.843   7.453  0.4234  0.4824  2.7514
35969SOL    HW213228   2.457   6.701   7.404 -0.6335  1.6373 -1.3505
35970SOL     OW13229   7.648  11.665  11.750  0.1938 -0.4044 -0.2650
35970SOL    HW113230   7.584  11.636  11.815  0.1815 -0.1501 -0.1613
35970SOL    HW213231   7.598  11.724  11.693  0.1948 -0.6569 -0.5285
35971SOL     OW13232   1.000   2.317   4.484 -0.4251  0.1687  0.0229
35971SOL    HW113233   0.925   2.310   4.425  0.0247  2.1392 -0.8626
35971SOL    HW213234   1.071   2.350   4.429  0.7583 -0.5021  1.1036
35972SOL     OW13235   4.750   4.198  10.542  0.1538 -0.2659  0.3274
35972SOL    HW113236   4.799   4.249  10.478  0.8328 -0.1312  0.9455
35972SOL    HW213237   4.693   4.142  10.489  0.7878 -0.2426 -0.3978
35973SOL     OW13238   4.735   9.357   0.656 -0.1433  0.7143  0.1555
35973SOL    HW113239   4.686   9.422   0.605 -1.3139  0.4770  0.9357
35973SOL    HW213240   4.721   9.382   0.747  1.2607  0.6576  0.4042
35974SOL     OW13241  11.708   6.822   6.052 -0.3794  0.4885  0.4051
35974SOL    HW113242  11.752   6.748   6.093 -0.0593 -0.3786 -1.4173
35974SOL    HW213243  11.759   6.898   6.079 -0.5189  0.0316  2.0417
35975SOL     OW13244   8.960   0.005   0.306 -0.1374 -0.2911  0.1627
35975SOL    HW113245   8.998   0.032   0.222  1.5149  0.1485  1.0321
35975SOL    HW213246   8.968   0.082   0.362 -0.8498 -0.7215  0.8728
35976SOL     OW13247   8.339   6.539   1.191 -0.3861 -0.0632  0.5741
35976SOL    HW113248   8.404   6.522   1.259  1.4638  2.0961 -0.5198
35976SOL    HW213249   8.275   6.596   1.234  0.8026  1.3370  0.5792
35977SOL     OW13250   9.035   4.957   6.213 -0.2486 -0.2382 -0.0386
35977SOL    HW113251   8.986   5.023   6.263  0.3079  0.9374 -0.9757
35977SOL    HW213252   9.106   4.930   6.271  1.4867  2.4431 -0.7197
35978SOL     OW13253   3.964   8.568  10.036 -0.5426  0.3402  0.2277
35978SOL    HW113254   3.882   8.577  10.083  0.3750 -0.7127  2.1402
35978SOL    HW213255   3.953   8.489   9.982 -0.5630 -0.2193  1.0321
35979SOL     OW13256   8.368   7.472  10.607  0.2040  0.4646 -0.4841
35979SOL    HW113257   8.304   7.476  10.537 -0.1856 -1.3685 -0.2818
35979SOL    HW213258   8.451   7.497  10.566  0.2516 -1.8955 -1.9802
35980SOL     OW13259   4.948   5.119   7.415  0.4878  0.3131  0.2172
35980SOL    HW113260   4.903   5.091   7.335 -0.6302 -0.6137  1.1324
35980SOL    HW213261   4.932   5.213   7.419  1.6795  0.6173 -1.3158
35981SOL     OW13262   5.047   6.633   2.374 -0.1693 -0.8072 -0.0064
35981SOL    HW113263   5.001   6.697   2.427 -0.1315  1.3997 -2.4167
35981SOL    HW213264   5.136   6.667   2.366 -0.1471 -1.1165 -1.3451
35982SOL     OW13265   7.943   4.255   7.388 -0.1516 -0.3885 -0.0526
35982SOL    HW113266   7.900   4.341   7.388 -1.2558 -0.9230 -0.3569
35982SOL    HW213267   7.886   4.201   7.443  0.5836 -0.9103  0.2031
35983SOL     OW13268   7.720  10.095   2.997 -0.1493 -0.2817  0.2998
35983SOL    HW113269   7.813  10.118   2.991 -0.5939  1.9263  1.1085
35983SOL    HW213270   7.697  10.111   3.089 -1.0285 -2.2096  0.4740
35984SOL     OW13271   5.193   9.706   9.539 -0.1659  0.2071 -0.7723
35984SOL    HW113272   5.131   9.780   9.538 -1.5831 -0.8503  1.3202
35984SOL    HW213273   5.275   9.745   9.570 -1.1585  0.8230  1.3194
35985SOL     OW13274   5.203   0.306   3.737  0.2497  0.3701  0.4591
35985SOL    HW113275   5.271   0.371   3.752  0.4904  0.7910 -2.0480
35985SOL    HW213276   5.202   0.293   3.642 -1.4143 -1.5407  0.6628
35986SOL     OW13277   7.606   7.664   8.425  0.2307  0.3512 -0.1795
35986SOL    HW113278   7.614   7.587   8.369  1.5492  1.9222 -2.2928
35986SOL    HW213279   7.527   7.648   8.477  1.4751 -3.2547  0.9244
35987SOL     OW13280   2.931   6.326  10.708 -0.6579  0.1087  0.6909
35987SOL    HW113281   2.902   6.254  10.653  4.2931  1.0777 -3.9994
35987SOL    HW213282   2.884   6.402  10.674 -0.2908  0.1669  0.3051
35988SOL     OW13283   8.917   4.833   6.494 -0.8526 -0.5052  0.0551
35988SOL    HW113284   8.864   4.820   6.415  2.4543  1.9995 -2.9298
35988SOL    HW213285   8.982   4.763   6.490 -1.2869 -0.9993  1.2441
35989SOL     OW13286   5.258   6.868   3.016  0.7101  0.2178 -0.2818
35989SOL    HW113287   5.265   6.932   3.086 -0.4138  0.0251  0.0256
35989SOL    HW213288   5.277   6.784   3.058  0.8010  0.1871 -0.3825
35990SOL     OW13289   8.358   7.908   8.032 -0.4894  0.5004  0.1749
35990SOL    HW113290   8.426   7.860   8.079  0.1100 -1.0183 -2.1080
35990SOL    HW213291   8.403   7.985   7.997  0.0433 -0.3721 -1.1168
35991SOL     OW13292  11.095   9.701   3.660 -0.5259  0.0664 -0.1573
35991SOL    HW113293  11.011   9.728   3.696 -0.7701 -1.4091  0.4590
35991SOL    HW213294  11.073   9.638   3.591  0.0521  0.1534 -0.4303
35992SOL     OW13295   5.137   4.785   3.351  0.5450 -0.2065 -0.5669
35992SOL    HW113296   5.221   4.775   3.306  1.3267  2.3181  0.1486
35992SOL    HW213297   5.136   4.714   3.415  2.4959  0.0899 -0.1345
35993SOL     OW13298   8.238   5.969   6.302  0.9116 -0.6414  0.1742
35993SOL    HW113299   8.146   5.955   6.326  0.5776 -1.0021 -1.2201
35993SOL    HW213300   8.266   6.043   6.356 -0.1451 -0.6553  0.7590
35994SOL     OW13301   3.413   4.742   3.423 -0.1661  0.3603  0.4485
35994SOL    HW113302   3.382   4.652   3.433 -4.0441  1.5924  1.2520
35994SOL    HW213303   3.435   4.749   3.330 -0.3607 -1.2354  0.2519
35995SOL     OW13304   3.739   6.925   5.599  0.5129 -0.5429 -0.3472
35995SOL    HW113305   3.768   7.000   5.651  1.4112 -1.6342  0.7916
35995SOL    HW213306   3.691   6.964   5.525  0.4703  1.1104  0.5038
35996SOL     OW13307   2.338   0.070   6.576  0.1617  0.0246  0.3213
35996SOL    HW113308   2.281   0.113   6.513 -1.7092  0.2247  2.0348
35996SOL    HW213309   2.403   0.024   6.523 -1.3626  0.1024 -1.7296
35997SOL     OW13310   1.466   0.012   0.834 -0.4658 -0.7650 -0.1178
35997SOL    HW113311   1.491   0.006   0.741  2.3174  0.0773  0.4764
35997SOL    HW213312   1.512  -0.061   0.875  0.1594  0.1773  0.8979
35998SOL     OW13313   7.054   2.716   7.008  0.0990  0.7996 -0.8801
35998SOL    HW113314   7.125   2.759   6.960  0.6514 -0.2583 -1.0474
35998SOL    HW213315   7.079   2.624   7.009 -0.4937  0.6296  0.4323
35999SOL     OW13316   9.265  10.611   4.782 -0.3995  0.2840 -0.1734
35999SOL    HW113317   9.298  10.592   4.695  1.3358  0.5187  0.3913
35999SOL    HW213318   9.281  10.531   4.832  0.7090  0.8887  0.4842
36000SOL     OW13319   4.920   3.545   0.591 -0.1344 -0.3324  0.3532
36000SOL    HW113320   4.959   3.581   0.670 -0.3458 -1.6924  1.0941
36000SOL    HW213321   4.994   3.517   0.538 -0.0298 -0.8463  0.7648
36001SOL     OW13322   0.607   8.853   9.496  0.4697 -0.2713 -0.1495
36001SOL    HW113323   0.587   8.782   9.557 -0.6294  0.2879  0.1625
36001SOL    HW213324   0.523   8.876   9.458  1.1331 -0.5955 -1.8882
36002SOL     OW13325   8.300   3.182   2.246 -0.5215  0.5118 -0.1943
36002SOL    HW113326   8.230   3.216   2.301 -0.1108  2.1552 -0.6277
36002SOL    HW213327   8.265   3.186   2.157  1.4413  5.6742 -1.0818
36003SOL     OW13328   2.575   4.537   6.010 -0.3761 -0.2101  0.0300
36003SOL    HW113329   2.568   4.558   5.916  0.1982  1.8342  0.3883
36003SOL    HW213330   2.644   4.595   6.042 -0.0873 -1.3758  1.5985
36004SOL     OW13331   3.497   5.521  10.853  0.0448 -0.0614 -0.3835
36004SOL    HW113332   3.537   5.453  10.798  1.0414  1.2204 -1.3007
36004SOL    HW213333   3.510   5.490  10.942 -0.6012 -1.6471 -0.7940
36005SOL     OW13334   6.817   9.876   5.224 -0.0381  0.2479  0.5882
36005SOL    HW113335   6.850   9.822   5.152  0.0450  1.1547 -0.0669
36005SOL    HW213336   6.748   9.929   5.185 -0.8531 -0.1237  1.4698
36006SOL     OW13337   0.797  11.804   9.633  0.9262 -0.2852 -0.1677
36006SOL    HW113338   0.806  11.899   9.627  0.4220 -0.1996  0.2816
36006SOL    HW213339   0.741  11.781   9.559  1.4037 -0.2939 -0.5337
36007SOL     OW13340  11.202   0.402   5.321  0.3985  0.1421 -0.0968
36007SOL    HW113341  11.245   0.355   5.250 -3.6916 -0.9508 -2.1624
36007SOL    HW213342  11.216   0.495   5.301  2.0264 -0.1329 -0.3794
36008SOL     OW13343   6.964   2.352   1.204  0.0502 -0.4857 -0.4591
36008SOL    HW113344   6.874   2.332   1.175  0.3392 -1.8946 -0.4578
36008SOL    HW213345   7.012   2.270   1.191  1.4000  0.3100 -0.6510
36009SOL     OW13346  11.279   4.166   7.190  0.2914  0.4766  0.5934
36009SOL    HW113347  11.228   4.124   7.120  0.6446  0.9246  0.0569
36009SOL    HW213348  11.235   4.249   7.206  0.3017  0.4429  0.7953
36010SOL     OW13349   9.744   3.963  10.421 -0.3907  0.0949  0.6557
36010SOL    HW113350   9.825   3.914  10.432 -0.1115  1.1005  4.4313
36010SOL    HW213351   9.698   3.917  10.351  2.8386 -1.2248 -0.8219
36011SOL     OW13352   4.880   0.730   9.024  0.8424  0.0663 -0.1887
36011SOL    HW113353   4.957   0.714   9.078  1.0901 -0.3950 -0.6713
36011SOL    HW213354   4.852   0.643   8.996 -0.9639  0.0434  1.5032
36012SOL     OW13355   3.192   5.852  10.300 -0.6120  0.1552  0.3240
36012SOL    HW113356   3.117   5.850  10.241 -1.0628 -0.4844  0.9075
36012SOL    HW213357   3.157   5.882  10.384 -0.1328  0.2989  0.4779
36013SOL     OW13358   7.105   6.071   4.169 -0.7500  0.5267  0.0400
36013SOL    HW113359   7.038   6.047   4.234 -0.6424 -0.1427 -0.0859
36013SOL    HW213360   7.106   6.167   4.169 -0.6344  0.5321  1.1419
36014SOL     OW13361   1.708   2.859   2.932  0.3835  0.6842 -0.5804
36014SOL    HW113362   1.663   2.929   2.979 -1.6080 -0.5724 -0.4986
36014SOL    HW213363   1.773   2.904   2.879  0.3418  2.4350  0.7435
36015SOL     OW13364   3.336   3.203   0.317 -0.4108 -0.0120  0.0870
36015SOL    HW113365   3.416   3.255   0.307  0.8175 -1.7758  0.2753
36015SOL    HW213366   3.269   3.254   0.273  1.3361  0.4014 -2.2924
36016SOL     OW13367   6.410   2.538   7.292  0.5118  0.2206 -0.1370
36016SOL    HW113368   6.437   2.510   7.205  0.8860  1.0644 -0.3077
36016SOL    HW213369   6.439   2.629   7.298 -0.1577  0.3995  0.5959
36017SOL     OW13370   1.421   5.912   4.690 -0.1535 -0.3127 -0.3737
36017SOL    HW113371   1.469   5.988   4.659  0.2338 -1.0419 -1.6273
36017SOL    HW213372   1.335   5.919   4.647 -1.4080  1.1859  2.1402
36018SOL     OW13373   0.107   3.252   3.661 -0.5717 -0.1172  0.0828
36018SOL    HW113374   0.083   3.336   3.624  0.1597 -0.5157 -1.3918
36018SOL    HW213375   0.190   3.269   3.705  0.8645 -0.4740 -2.2682
36019SOL     OW13376   0.839   8.130   4.546 -0.4361 -0.4628  0.5951
36019SOL    HW113377   0.814   8.148   4.456  0.6185 -0.9397  0.1835
36019SOL    HW213378   0.935   8.123   4.543 -0.4041 -0.7052  1.7093
36020SOL     OW13379   2.603   7.856   7.964  0.6193  0.5437  0.0583
36020SOL    HW113380   2.620   7.936   7.915 -0.0183  0.4170 -0.3866
36020SOL    HW213381   2.598   7.883   8.055 -0.5016  1.1524 -0.1777
36021SOL     OW13382  11.242   1.027   6.582  0.3659 -0.8916 -0.2391
36021SOL    HW113383  11.304   1.051   6.651 -0.4587 -0.3721  0.3394
36021SOL    HW213384  11.156   1.039   6.622 -0.1225 -0.9301 -1.2499
36022SOL     OW13385   8.725   2.050  10.104 -0.2852  0.4099 -0.3096
36022SOL    HW113386   8.765   1.968  10.075  0.7653  0.2236  1.4474
36022SOL    HW213387   8.665   2.074  10.034 -0.0525 -1.4537 -1.2266
36023SOL     OW13388   8.185   7.311   0.485  0.0013 -0.0138  0.4340
36023SOL    HW113389   8.216   7.238   0.538  0.0392 -0.8254 -0.6667
36023SOL    HW213390   8.191   7.387   0.543  1.6975 -0.5607  1.0323
36024SOL     OW13391   6.588   1.527   4.525  0.5908  0.1434 -0.0793
36024SOL    HW113392   6.684   1.521   4.520  0.6522 -0.2043  1.1794
36024SOL    HW213393   6.557   1.480   4.447  1.4251 -1.6091  0.5847
36025SOL     OW13394  11.419   1.807   7.484 -0.9867 -0.2687 -0.5154
36025SOL    HW113395  11.382   1.784   7.569 -1.4900 -0.7486 -0.8589
36025SOL    HW213396  11.497   1.751   7.476  0.6773  1.6977  0.8054
36026SOL     OW13397   7.764   8.872   2.798 -0.1997  0.1494  0.4147
36026SOL    HW113398   7.674   8.841   2.802 -0.2505  0.3446  0.8196
36026SOL    HW213399   7.756   8.968   2.799  0.0880  0.2038  2.7499
36027SOL     OW13400   6.920   2.703   4.099  0.0277  0.4256  0.2397
36027SOL    HW113401   6.869   2.766   4.149 -2.6002 -0.9336 -0.5862
36027SOL    HW213402   6.856   2.640   4.066  2.2395 -1.3541 -0.9457
36028SOL     OW13403   5.108   6.286   7.912  0.4424  0.1442 -0.1253
36028SOL    HW113404   5.089   6.374   7.879 -0.4516 -0.2869 -0.7948
36028SOL    HW213405   5.183   6.257   7.860  0.7286  0.5012  0.0856
36029SOL     OW13406   5.140   9.122   6.645 -0.1828  0.3315  0.7516
36029SOL    HW113407   5.152   9.178   6.568 -1.1597  0.2830  0.5567
36029SOL    HW213408   5.219   9.137   6.697 -0.3414  1.7873  0.6337
36030SOL     OW13409   4.601  11.633  11.709 -0.8529 -0.1163  0.4865
36030SOL    HW113410   4.630  11.724  11.714  2.3918 -0.8620 -1.4160
36030SOL    HW213411   4.577  11.620  11.617 -4.0070 -0.5846  1.2580
36031SOL     OW13412  10.794   9.056   8.342 -0.3014  0.5864  0.1780
36031SOL    HW113413  10.884   9.065   8.310  0.1203 -1.3657  0.7004
36031SOL    HW213414  10.757   8.986   8.289 -1.2761  0.8225  0.5174
36032SOL     OW13415   8.938   0.434  10.685  0.1995  0.0774 -0.5186
36032SOL    HW113416   8.934   0.511  10.742  0.7356  0.3559 -0.8493
36032SOL    HW213417   8.948   0.360  10.745 -1.3612  0.1483 -0.1345
36033SOL     OW13418   6.751   1.572   6.452 -0.1637 -0.0286 -0.1632
36033SOL    HW113419   6.760   1.545   6.543  0.6627  2.8950  0.7518
36033SOL    HW213420   6.726   1.664   6.457  1.3482  0.6546 -2.8576
36034SOL     OW13421  10.854   7.001   4.660 -0.1687 -0.4777  0.0871
36034SOL    HW113422  10.795   6.938   4.620  1.2091 -0.0763 -2.8849
36034SOL    HW213423  10.799   7.077   4.677 -1.0675 -1.0924  0.0107
36035SOL     OW13424   7.802   7.048   2.703 -0.1848  0.4856  0.5438
36035SOL    HW113425   7.807   6.978   2.768 -0.1419 -0.6950 -0.7040
36035SOL    HW213426   7.732   7.021   2.644  1.6302  0.1104 -1.5326
36036SOL     OW13427   2.853   4.781   9.816  0.2206 -0.5991 -0.4510
36036SOL    HW113428   2.899   4.834   9.751  1.3489 -1.1918 -0.1499
36036SOL    HW213429   2.843   4.839   9.891  1.6140 -0.8541 -0.0566
36037SOL     OW13430   2.998   5.631   1.042  0.0327 -0.5242 -0.5968
36037SOL    HW113431   2.905   5.649   1.025  0.3305  0.5847 -1.1636
36037SOL    HW213432   3.008   5.538   1.023 -0.9735 -0.6729 -0.4851
36038SOL     OW13433   7.794  11.019   4.099  0.5051 -0.1689  0.1955
36038SOL    HW113434   7.873  11.072   4.114  0.5270 -0.3666  0.7887
36038SOL    HW213435   7.760  11.002   4.186 -0.4267  0.2547 -0.0747
36039SOL     OW13436   6.859   8.186   7.857 -0.3765 -0.0839  0.5959
36039SOL    HW113437   6.810   8.195   7.939  0.9421 -1.7216  1.6340
36039SOL    HW213438   6.829   8.102   7.821 -1.6904  1.0839 -1.1915
36040SOL     OW13439   2.928   9.907  11.805  0.9018  0.1902  0.1825
36040SOL    HW113440   2.852   9.965  11.808  0.5211 -0.3364  1.1996
36040SOL    HW213441   2.967   9.915  11.893 -0.1839 -2.4276  0.9838
36041SOL     OW13442   6.401   2.669   1.050 -0.1743  0.2201  0.8032
36041SOL    HW113443   6.396   2.641   0.959  0.5673  0.1854  0.7663
36041SOL    HW213444   6.439   2.595   1.097 -0.2873  0.3405  1.0919
36042SOL     OW13445   0.636   7.830   3.732  0.3886 -0.3214  0.1843
36042SOL    HW113446   0.541   7.833   3.742  0.4889  0.7188  1.0288
36042SOL    HW213447   0.653   7.752   3.680 -0.9632 -0.2630 -0.3642
36043SOL     OW13448  10.876  10.026   0.840 -0.2783 -0.0575  0.4530
36043SOL    HW113449  10.866   9.946   0.892  2.1502  0.2525  1.5504
36043SOL    HW213450  10.879  10.097   0.904 -3.6090  1.1722 -0.5684
36044SOL     OW13451   6.610   7.700   6.655 -0.0480 -0.2238  0.2480
36044SOL    HW113452   6.680   7.724   6.716 -0.8862  0.1334  1.0850
36044SOL    HW213453   6.540   7.666   6.710  0.4100 -3.1120 -0.7456
36045SOL     OW13454   5.907   9.404   1.700 -0.4570 -0.4164 -0.0618
36045SOL    HW113455   5.889   9.476   1.760  0.5189 -1.0956  1.0896
36045SOL    HW213456   5.858   9.426   1.620 -0.1514  1.5126  0.2479
36046SOL     OW13457   7.468   5.644   0.758 -0.1419 -0.2167 -0.2904
36046SOL    HW113458   7.449   5.714   0.821  1.1683  0.2209 -0.3613
36046SOL    HW213459   7.478   5.566   0.813  1.2695  0.2132  0.1190
36047SOL     OW13460   5.185   6.221   4.384  0.6351 -0.0885  0.6349
36047SOL    HW113461   5.102   6.175   4.376  0.3568  0.5036  0.0281
36047SOL    HW213462   5.251   6.159   4.352  0.0535  0.5809 -2.1073
36048SOL     OW13463   1.934   3.597   3.165 -0.3810  0.0511  0.0215
36048SOL    HW113464   1.919   3.503   3.167  1.9553 -0.3522  1.1778
36048SOL    HW213465   2.013   3.609   3.113 -1.8815  1.6435 -2.0812
36049SOL     OW13466   8.518  10.450   1.592 -0.3163 -0.1508  0.1948
36049SOL    HW113467   8.589  10.397   1.557 -0.7315  0.4105 -1.5846
36049SOL    HW213468   8.556  10.538   1.601 -0.3424 -0.1912  0.7949
36050SOL     OW13469   9.090   4.496   9.630  0.1557 -0.6215 -0.5407
36050SOL    HW113470   9.105   4.573   9.685  0.1625 -0.4215 -0.8171
36050SOL    HW213471   9.006   4.513   9.588  0.2785 -0.6467 -0.7965
36051SOL     OW13472   7.838   4.758   3.937  0.1763  0.2610 -0.0657
36051SOL    HW113473   7.828   4.699   3.862 -2.3004  1.7691 -1.0567
36051SOL    HW213474   7.862   4.842   3.899 -1.2972  1.1017  0.7644
36052SOL     OW13475  10.009   1.749   5.269 -0.4294  0.7010  0.4455
36052SOL    HW113476  10.085   1.783   5.222 -0.2608 -0.7465 -0.3767
36052SOL    HW213477   9.994   1.813   5.339  3.2960 -0.2749  2.4456
36053SOL     OW13478  11.314  10.402   4.458  0.1686  0.6666  0.2641
36053SOL    HW113479  11.277  10.322   4.420  0.0625  0.7556  0.1793
36053SOL    HW213480  11.274  10.473   4.407  0.2391  0.7741  0.3594
36054SOL     OW13481  10.484  11.823   8.366 -0.0476 -0.6188  0.4253
36054SOL    HW113482  10.507  11.773   8.287  1.9764 -0.4747  0.8661
36054SOL    HW213483  10.422  11.767   8.412  0.5791 -1.7991 -0.1135
36055SOL     OW13484   9.224  10.475  10.589 -0.1345  0.4563  0.6337
36055SOL    HW113485   9.283  10.403  10.566 -0.8781 -0.0470  0.2629
36055SOL    HW213486   9.243  10.492  10.682  0.7394  0.4543  0.4689
36056SOL     OW13487   0.439   5.553   0.175 -0.9298 -0.1025 -0.1966
36056SOL    HW113488   0.467   5.588   0.091  0.1657 -0.8916 -0.1757
36056SOL    HW213489   0.433   5.630   0.232 -1.6818  0.4362 -0.9811
36057SOL     OW13490   5.730   6.377   4.204  0.5879 -0.1227  0.7395
36057SOL    HW113491   5.809   6.430   4.215  0.3149  0.4581  0.0026
36057SOL    HW213492   5.759   6.287   4.214  0.9944  0.1677  2.4364
36058SOL     OW13493   9.535   2.621   4.927  0.3096 -0.1886 -0.3135
36058SOL    HW113494   9.444   2.616   4.897  0.6076 -1.8404 -1.1163
36058SOL    HW213495   9.530   2.617   5.022 -0.4867  0.5225 -0.3186
36059SOL     OW13496   7.108   5.991   2.566 -0.0251 -0.3916  0.2924
36059SOL    HW113497   7.148   5.923   2.620  0.2887 -0.9464 -0.6175
36059SOL    HW213498   7.138   6.073   2.605 -0.2777 -0.7573  1.3034
36060SOL     OW13499   0.480  11.535   9.323  0.4471  0.1479  0.3684
36060SOL    HW113500   0.463  11.454   9.275  1.0725 -1.3174  2.4472
36060SOL    HW213501   0.421  11.531   9.398 -0.4081  2.2789 -0.1169
36061SOL     OW13502   5.968  11.427   4.471  0.1260 -0.2783 -0.2859
36061SOL    HW113503   6.036  11.405   4.535  1.2860 -0.2012 -1.4700
36061SOL    HW213504   5.967  11.354   4.409  0.7729  0.7951 -1.6040
36062SOL     OW13505   1.420  11.380   0.932 -0.4178  0.0750  0.0675
36062SOL    HW113506   1.468  11.317   0.985 -1.6132 -1.4174 -0.5517
36062SOL    HW213507   1.415  11.340   0.846 -2.1541  0.4874 -0.0618
36063SOL     OW13508   2.658   1.430   9.020  0.2195 -0.1003 -0.3366
36063SOL    HW113509   2.712   1.422   9.098 -0.7752 -1.9177  0.2339
36063SOL    HW213510   2.650   1.524   9.005  2.0582  0.2435  0.5639
36064SOL     OW13511   0.923   5.039   5.334  1.0827 -0.3926 -0.6411
36064SOL    HW113512   0.893   4.986   5.407  1.0586 -1.3417 -1.3244
36064SOL    HW213513   0.847   5.046   5.276  0.7983  1.1806 -0.1464
36065SOL     OW13514  10.108   3.390   7.702 -0.2461  0.0144 -0.1368
36065SOL    HW113515  10.150   3.357   7.622  0.8774  3.1854 -1.0189
36065SOL    HW213516  10.014   3.388   7.683 -0.0724 -0.5534 -0.9923
36066SOL     OW13517   6.119   1.119   6.042  0.0598  0.0646  0.1297
36066SOL    HW113518   6.115   1.044   6.101  0.9006  0.2096  0.3812
36066SOL    HW213519   6.103   1.082   5.955  1.5712 -0.6077  0.0999
36067SOL     OW13520   4.887  10.439   6.468 -0.1019  0.2467 -0.0578
36067SOL    HW113521   4.976  10.405   6.467  0.1370  0.8571 -0.4802
36067SOL    HW213522   4.831  10.362   6.477  0.4370 -0.2080 -0.5606
36068SOL     OW13523   5.572   5.255   6.373  0.3338 -0.5595  0.0046
36068SOL    HW113524   5.525   5.282   6.295  0.6952 -1.6163 -0.5997
36068SOL    HW213525   5.570   5.332   6.430  0.4888  0.3873 -1.2331
36069SOL     OW13526   8.253   0.325   7.030  0.6280 -0.2385  0.2302
36069SOL    HW113527   8.272   0.259   6.964  1.6974 -2.0555  2.2240
36069SOL    HW213528   8.184   0.287   7.084  0.4175  0.7914  0.7214
36070SOL     OW13529   0.670   7.049   6.074  0.5627  0.2312 -0.0019
36070SOL    HW113530   0.681   7.039   6.168  1.5361  1.1768  0.0117
36070SOL    HW213531   0.754   7.021   6.037  1.6463  3.3773 -0.2703
36071SOL     OW13532   6.792   3.821   8.897 -1.2376  0.4847  0.7510
36071SOL    HW113533   6.799   3.915   8.914  0.4148  0.5001  0.1100
36071SOL    HW213534   6.881   3.788   8.904 -1.8011 -1.0720  1.0572
36072SOL     OW13535   8.115   8.624   6.801  0.4434  0.1026 -0.0278
36072SOL    HW113536   8.052   8.611   6.872  1.4403 -0.1370  0.8343
36072SOL    HW213537   8.105   8.546   6.747  0.8578 -0.5354  0.7926
36073SOL     OW13538   0.843  10.636   8.612 -0.3642  0.0019 -0.0697
36073SOL    HW113539   0.761  10.681   8.634 -2.0813 -1.4901 -2.8965
36073SOL    HW213540   0.825  10.544   8.628  0.1319 -0.5324 -2.2876
36074SOL     OW13541   4.374   2.071   0.624 -0.0647 -0.2171  0.1881
36074SOL    HW113542   4.319   2.081   0.546 -0.4287 -0.9675  0.3404
36074SOL    HW213543   4.324   2.013   0.681  1.3751 -1.8492 -0.1450
36075SOL     OW13544   7.224   8.986  10.784 -0.5373 -0.7255 -0.2405
36075SOL    HW113545   7.266   8.950  10.862 -2.0169 -2.2417 -0.0878
36075SOL    HW213546   7.186   8.910  10.740  1.1763 -0.0934 -3.0703
36076SOL     OW13547  10.935   5.206   1.689  0.1164  0.1458 -0.3165
36076SOL    HW113548  10.841   5.192   1.699  0.0876  1.1183  0.9519
36076SOL    HW213549  10.975   5.147   1.753  0.2858  0.7811  0.1782
36077SOL     OW13550   9.797   7.257   4.109 -0.2536 -0.0024 -0.0504
36077SOL    HW113551   9.878   7.281   4.064  0.4478  0.7092  1.5041
36077SOL    HW213552   9.801   7.162   4.117  0.8589  0.0943  0.7427
36078SOL     OW13553   3.739  10.814   6.714 -0.6177 -0.0449 -0.2109
36078SOL    HW113554   3.773  10.803   6.803 -1.1824  0.6285  0.1065
36078SOL    HW213555   3.795  10.881   6.675 -1.1922  0.6358  0.1094
36079SOL     OW13556   1.054   7.004  10.509  0.3733 -0.3961  0.0245
36079SOL    HW113557   1.146   7.016  10.531  0.7577 -3.6575  0.7368
36079SOL    HW213558   1.054   6.959  10.425 -0.7169  1.4792 -1.0493
36080SOL     OW13559   1.609   2.497   4.557 -0.1081 -0.3335 -0.1098
36080SOL    HW113560   1.550   2.533   4.624 -0.0379 -1.7027  0.7343
36080SOL    HW213561   1.568   2.520   4.474  0.7003  2.9859  0.2839
36081SOL     OW13562  11.642   4.721   7.168 -0.0599  0.4338  0.3189
36081SOL    HW113563  11.600   4.744   7.252 -1.9850 -3.0863  0.4896
36081SOL    HW213564  11.571   4.688   7.114  1.6526 -0.4044 -1.5433
36082SOL     OW13565   6.237   9.957   3.252  0.5731  0.2886 -0.4919
36082SOL    HW113566   6.145   9.971   3.271  0.4759 -0.8279 -0.0584
36082SOL    HW213567   6.239   9.880   3.196  1.2041  0.6945 -1.0509
36083SOL     OW13568   6.179   4.933   5.516 -0.1216  1.2700  0.1069
36083SOL    HW113569   6.171   4.996   5.587 -1.0992 -0.8084  1.9868
36083SOL    HW213570   6.257   4.883   5.537 -0.3474  0.7197 -0.3335
36084SOL     OW13571   9.005   4.313   5.429  0.0390 -0.4923  0.4211
36084SOL    HW113572   8.977   4.401   5.452  0.0278 -0.2099 -0.6346
36084SOL    HW213573   9.101   4.319   5.422 -0.0345 -0.3456 -0.5198
36085SOL     OW13574   9.455   1.438   4.379 -0.1081 -0.6434  0.0089
36085SOL    HW113575   9.411   1.354   4.387 -0.0266 -0.7702 -0.7538
36085SOL    HW213576   9.396   1.490   4.324 -0.2191 -0.1572  0.5768
36086SOL     OW13577   9.163   2.483   7.237 -0.1437 -0.3368 -0.3594
36086SOL    HW113578   9.145   2.478   7.143  0.4400 -0.5545 -0.4680
36086SOL    HW213579   9.227   2.413   7.253 -1.6700 -1.5925  0.5665
36087SOL     OW13580  11.524   2.608  10.410 -0.2602 -0.4274 -0.2038
36087SOL    HW113581  11.524   2.672  10.340  0.6385  0.1815  0.3379
36087SOL    HW213582  11.569   2.651  10.482 -0.7105 -1.2290  0.5800
36088SOL     OW13583   3.226   2.518   8.583  0.1990  0.2940 -0.0255
36088SOL    HW113584   3.304   2.483   8.626  1.5158  0.7428 -1.9124
36088SOL    HW213585   3.173   2.442   8.564  0.2252 -0.0370  1.1411
36089SOL     OW13586   1.094   8.872   7.435 -0.1986  0.4776  0.2499
36089SOL    HW113587   1.003   8.852   7.409  0.3267  0.1982 -1.5406
36089SOL    HW213588   1.091   8.879   7.530 -1.5092 -2.7572  0.5968
36090SOL     OW13589   8.037   2.816   1.720 -0.3517  0.4255  0.2102
36090SOL    HW113590   8.029   2.770   1.636  0.2684  0.6569  0.0154
36090SOL    HW213591   8.132   2.821   1.735 -0.4524 -1.3428  1.8887
36091SOL     OW13592  10.930   7.473   9.448  0.2324 -0.3617 -0.3060
36091SOL    HW113593  11.022   7.477   9.419  1.0101 -1.8443  1.7003
36091SOL    HW213594  10.930   7.518   9.532 -0.8346 -0.6016 -0.1665
36092SOL     OW13595   8.957   7.330   4.232  0.4806 -0.3674 -0.1237
36092SOL    HW113596   8.961   7.411   4.282 -0.2527 -0.5509  0.2452
36092SOL    HW213597   8.897   7.274   4.281  0.7496 -1.0261 -0.5298
36093SOL     OW13598   8.629  10.282   8.453  0.5033  0.0395 -0.5585
36093SOL    HW113599   8.539  10.314   8.460 -0.5662 -2.6359 -1.0594
36093SOL    HW213600   8.655  10.264   8.543  0.3080  0.1877 -0.4714
36094SOL     OW13601   9.930   5.157  11.113 -0.4551 -0.1899  0.2662
36094SOL    HW113602   9.946   5.117  11.198 -0.1536 -0.7171 -0.0283
36094SOL    HW213603   9.949   5.087  11.050 -1.6372 -0.1104 -0.2017
36095SOL     OW13604   2.252   2.467   4.173 -0.0903 -0.4121  0.2814
36095SOL    HW113605   2.275   2.528   4.243  0.1904 -1.8381  1.4718
36095SOL    HW213606   2.233   2.385   4.218 -0.3195 -1.2599 -1.2972
36096SOL     OW13607   7.192   2.065   7.759 -0.2555  0.8738 -0.7558
36096SOL    HW113608   7.197   2.057   7.664 -0.7478  0.9055 -0.7868
36096SOL    HW213609   7.123   2.130   7.774 -0.4292  0.6072 -0.3717
36097SOL     OW13610   3.794   3.349   8.772 -0.2879  0.0030 -0.2675
36097SOL    HW113611   3.889   3.337   8.766 -0.0139 -0.3607  3.0541
36097SOL    HW213612   3.762   3.269   8.813 -1.6206  1.1906  1.1368
36098SOL     OW13613   1.935   5.962   8.084 -0.3645  0.0526  0.5580
36098SOL    HW113614   1.979   5.888   8.041 -2.7501 -1.0563 -0.1442
36098SOL    HW213615   1.998   6.034   8.076  0.6264 -0.9414 -2.0112
36099SOL     OW13616  10.033  10.537   9.813  0.3499 -0.4645 -0.9375
36099SOL    HW113617   9.946  10.535   9.774 -0.5856  0.8336  0.9513
36099SOL    HW213618  10.036  10.460   9.870 -0.3681  0.5485  0.5274
36100SOL     OW13619   1.124   8.107   9.527 -0.8884  0.0280 -0.6494
36100SOL    HW113620   1.182   8.174   9.491 -0.9833  0.5157  0.0813
36100SOL    HW213621   1.170   8.025   9.511  0.0497  0.4128 -0.0244
36101SOL     OW13622   9.012   0.212   9.276 -0.5594  0.3604 -0.0088
36101SOL    HW113623   9.034   0.162   9.354 -0.1127  1.4054  0.5639
36101SOL    HW213624   9.092   0.260   9.255 -1.4211  2.1356  0.4901
36102SOL     OW13625   2.318   8.939   8.588  0.7440  0.5357 -0.6584
36102SOL    HW113626   2.382   8.986   8.643 -1.9518  1.0485  2.3520
36102SOL    HW213627   2.282   9.007   8.531  0.3609  1.0794  0.2036
36103SOL     OW13628   2.220   7.068   2.983  0.2879  0.1816 -0.6294
36103SOL    HW113629   2.206   7.034   3.071 -0.2867  0.9248 -0.4334
36103SOL    HW213630   2.133   7.078   2.946  0.4867  0.6921 -0.9739
36104SOL     OW13631  10.024   5.199   3.570  0.2376 -0.2326  0.4782
36104SOL    HW113632   9.950   5.160   3.616  1.0690 -0.9738  1.2449
36104SOL    HW213633  10.088   5.127   3.563  0.3207 -0.0265 -1.4629
36105SOL     OW13634   5.585   4.757   7.853  0.3024  0.2429  0.2393
36105SOL    HW113635   5.490   4.770   7.863  0.2465 -0.1046  0.1610
36105SOL    HW213636   5.597   4.732   7.762  0.3768 -0.5099  0.4494
36106SOL     OW13637   9.802   6.355   6.834  0.2622 -0.4842 -0.1802
36106SOL    HW113638   9.717   6.384   6.799 -0.1201 -1.6207 -0.2213
36106SOL    HW213639   9.784   6.335   6.926  0.7065  0.1433  0.0510
36107SOL     OW13640   8.083   5.567   4.895 -0.2316  0.6024 -0.4305
36107SOL    HW113641   8.090   5.477   4.925  1.2378  1.0819  0.8217
36107SOL    HW213642   8.009   5.567   4.834 -2.1099 -0.8597  1.6855
36108SOL     OW13643   3.701  11.022   0.417 -0.1299 -0.0220  0.7268
36108SOL    HW113644   3.737  11.032   0.506 -0.1920  0.7866  0.6721
36108SOL    HW213645   3.606  11.025   0.430 -0.3905 -4.1942  1.1218
36109SOL     OW13646   7.494   1.400   3.264  0.2143 -0.2647  0.3374
36109SOL    HW113647   7.522   1.422   3.175 -1.8831  0.2469 -0.2536
36109SOL    HW213648   7.533   1.315   3.282  0.1691 -0.6530 -1.3207
36110SOL     OW13649   0.258   0.346  11.045  0.2630  0.2600 -0.2117
36110SOL    HW113650   0.204   0.420  11.072  0.2122  0.7972 -1.7093
36110SOL    HW213651   0.251   0.283  11.117  0.1899  1.6378  1.0214
36111SOL     OW13652   9.377  10.235   2.459  0.0511  0.3955 -0.2167
36111SOL    HW113653   9.371  10.225   2.364  2.1198  0.6258 -0.4191
36111SOL    HW213654   9.314  10.172   2.494  0.3670 -0.8171 -1.7169
36112SOL     OW13655   4.784   2.165  10.687  0.0568  0.1474 -0.0070
36112SOL    HW113656   4.739   2.085  10.716  0.1714 -0.4883 -1.5142
36112SOL    HW213657   4.877   2.144  10.695  0.0886  0.4094  0.3204
36113SOL     OW13658   7.092   8.728   4.849  0.7147  0.0672  0.0337
36113SOL    HW113659   7.055   8.640   4.852 -0.4682  0.4989 -1.0803
36113SOL    HW213660   7.149   8.727   4.772  1.2329  0.0936  0.4078
36114SOL     OW13661   6.710   3.613   6.352  0.2225  0.3739  0.0510
36114SOL    HW113662   6.776   3.586   6.416  1.0546 -0.4901 -1.1166
36114SOL    HW213663   6.653   3.536   6.343  0.5991  0.1784 -0.8128
36115SOL     OW13664   3.079   0.363   1.719  0.0468  0.1117  0.1499
36115SOL    HW113665   3.164   0.406   1.714 -0.1095  0.2556 -2.1618
36115SOL    HW213666   3.090   0.280   1.673 -1.5036  0.9847 -1.9546
36116SOL     OW13667   1.105   6.877  10.245 -0.5045  0.3121  0.0335
36116SOL    HW113668   1.030   6.835  10.203  0.2419 -2.9293  1.6269
36116SOL    HW213669   1.177   6.868  10.182 -0.7700  0.9330 -0.3707
36117SOL     OW13670   3.585   0.308   2.387  0.3411  0.3845 -0.0504
36117SOL    HW113671   3.658   0.263   2.344  0.2175  0.4442 -0.3282
36117SOL    HW213672   3.507   0.260   2.358  0.3711 -0.5531  1.3609
36118SOL     OW13673   5.428  11.315   3.559  0.2208 -0.1452  0.0014
36118SOL    HW113674   5.338  11.290   3.580  0.3551 -1.2199 -0.6040
36118SOL    HW213675   5.424  11.409   3.546 -0.9160 -0.2312 -0.4249
36119SOL     OW13676   4.814   7.954   0.410  0.0581  0.3841  0.0216
36119SOL    HW113677   4.793   7.879   0.466 -0.2277  0.2618 -0.2427
36119SOL    HW213678   4.761   7.940   0.331  1.1423  0.0563 -0.6780
36120SOL     OW13679   7.584   2.348   1.592  0.1843  0.4455  0.2695
36120SOL    HW113680   7.674   2.352   1.622  0.2142  1.1377  0.1071
36120SOL    HW213681   7.532   2.374   1.667  0.0814 -0.3646  0.4922
36121SOL     OW13682   9.789   8.290   6.748 -0.0598  0.1753  0.4393
36121SOL    HW113683   9.773   8.350   6.821 -0.4675  1.1135 -0.3890
36121SOL    HW213684   9.883   8.297   6.731  0.0085  0.0684  0.7822
36122SOL     OW13685   1.484  11.231   1.936  0.1752  0.1550 -0.0929
36122SOL    HW113686   1.555  11.294   1.921  0.6082 -0.0437  1.0103
36122SOL    HW213687   1.407  11.284   1.954 -0.1209  0.3849 -1.8572
36123SOL     OW13688  10.735   2.455   8.118  0.1542  0.2759 -0.3355
36123SOL    HW113689  10.652   2.425   8.154  0.5146  0.1228  0.3890
36123SOL    HW213690  10.776   2.503   8.190  1.2294 -0.6860 -0.2717
36124SOL     OW13691   7.849   6.845   1.805 -0.2650 -0.0924 -0.3340
36124SOL    HW113692   7.839   6.935   1.774 -1.1798 -0.3086 -0.6817
36124SOL    HW213693   7.790   6.838   1.880 -2.9837 -1.3847 -2.4221
36125SOL     OW13694   3.337   2.014   6.790 -0.3650 -0.2124 -0.1401
36125SOL    HW113695   3.414   2.007   6.846  0.4105 -1.0615 -1.2487
36125SOL    HW213696   3.371   2.050   6.708 -1.0900 -0.8136 -0.7238
36126SOL     OW13697   2.904   7.185   9.897  0.0057  0.5489 -0.0251
36126SOL    HW113698   2.930   7.245   9.828 -2.1256 -0.1854 -1.5486
36126SOL    HW213699   2.882   7.104   9.852  2.5464 -1.4222  1.9161
36127SOL     OW13700   8.206   4.366   7.305 -0.4494  0.1831 -0.2181
36127SOL    HW113701   8.114   4.340   7.304 -0.4750  0.2678 -1.4410
36127SOL    HW213702   8.239   4.336   7.390 -1.1501 -1.4440 -0.5017
36128SOL     OW13703   8.207   1.252  10.781  0.3561 -0.3059  0.1686
36128SOL    HW113704   8.149   1.182  10.810 -1.6760  0.2997 -2.1339
36128SOL    HW213705   8.294   1.211  10.777 -0.2129 -1.7887  1.7655
36129SOL     OW13706   2.148   0.345  10.701  0.3769 -0.1010 -0.3573
36129SOL    HW113707   2.225   0.317  10.652  0.9893 -0.6979  0.8897
36129SOL    HW213708   2.183   0.390  10.778 -0.5485  0.6905 -0.3654
36130SOL     OW13709   6.942   0.759   7.896 -0.1375  0.2538  0.6159
36130SOL    HW113710   7.013   0.802   7.944  1.2286 -1.6019  0.3455
36130SOL    HW213711   6.921   0.681   7.948 -0.0844 -0.6707 -0.6860
36131SOL     OW13712   9.898   4.286   6.944  0.1314  0.0289 -0.2529
36131SOL    HW113713   9.850   4.361   6.910 -0.2538 -0.1715 -0.1541
36131SOL    HW213714   9.988   4.317   6.955 -0.5187  1.2457  2.2610
36132SOL     OW13715   3.378   1.397  10.186 -0.0814 -0.3888  0.1449
36132SOL    HW113716   3.432   1.378  10.110 -0.2837 -0.4345  0.0107
36132SOL    HW213717   3.440   1.422  10.254  0.0541  0.3627 -0.2474
36133SOL     OW13718   4.842   6.030   7.164 -0.1245 -0.3836  0.0735
36133SOL    HW113719   4.930   6.060   7.187  0.3932 -3.1410  2.3018
36133SOL    HW213720   4.857   5.957   7.103 -1.0022  0.3470 -1.0415
36134SOL     OW13721   6.519   7.009   7.710  0.0057 -0.5649 -0.8361
36134SOL    HW113722   6.604   7.019   7.667  0.1053 -0.6293 -0.6565
36134SOL    HW213723   6.524   6.924   7.753  0.4875  0.1486  0.5796
36135SOL     OW13724   9.115   6.921   7.827  0.8764 -0.3769  0.2020
36135SOL    HW113725   9.148   6.912   7.738  2.7064  2.5938  0.4423
36135SOL    HW213726   9.189   6.958   7.876 -0.9195  0.5998  2.3148
36136SOL     OW13727   6.893  11.444   5.702  0.1980 -0.0742 -0.7045
36136SOL    HW113728   6.959  11.513   5.695 -0.5748  0.5854 -1.6451
36136SOL    HW213729   6.938  11.365   5.672  0.1970  0.6222 -2.6707
36137SOL     OW13730  10.782   5.227   7.500 -0.0089  0.3237  0.3214
36137SOL    HW113731  10.725   5.289   7.545  0.9223  1.8300 -0.5071
36137SOL    HW213732  10.725   5.153   7.480 -1.4400  1.3777  0.3298
36138SOL     OW13733  10.220   1.953   7.885 -0.4295 -0.8059 -0.3390
36138SOL    HW113734  10.169   1.997   7.953 -0.1936 -0.1310 -0.5926
36138SOL    HW213735  10.165   1.878   7.859 -0.9895 -0.4671 -0.1523
36139SOL     OW13736   0.951   2.274   2.352  0.1372  0.8293 -0.1557
36139SOL    HW113737   0.891   2.209   2.388  0.7567 -0.6111 -1.6160
36139SOL    HW213738   0.902   2.318   2.283 -0.1961  1.7986  0.6615
36140SOL     OW13739   4.836   0.436   1.882 -0.3989  0.3611  0.3193
36140SOL    HW113740   4.885   0.354   1.874  0.4028  0.9396 -0.9796
36140SOL    HW213741   4.863   0.472   1.966 -2.5051 -1.7710  2.0517
36141SOL     OW13742   2.880   7.201  10.378  0.0657  0.4049  0.1826
36141SOL    HW113743   2.949   7.155  10.426  0.0142  1.7301  1.6073
36141SOL    HW213744   2.873   7.154  10.295  0.3534 -1.8331  1.3309
36142SOL     OW13745   0.095   9.468   6.705  0.3319 -0.2997 -0.3697
36142SOL    HW113746   0.159   9.529   6.741  0.7957 -1.0300  0.0673
36142SOL    HW213747   0.019   9.477   6.763  0.3939 -0.1393 -0.3118
36143SOL     OW13748   4.184   1.567   6.266 -0.6388  0.6418  1.0681
36143SOL    HW113749   4.251   1.542   6.330 -0.1582  0.1690  0.3988
36143SOL    HW213750   4.112   1.602   6.319  0.2757  1.5046  1.7893
36144SOL     OW13751   0.008   6.964   1.599  0.2449 -0.5497 -0.2135
36144SOL    HW113752  -0.018   6.974   1.508  2.7382 -0.3541 -0.9645
36144SOL    HW213753   0.092   7.010   1.606  0.4409 -1.1187  2.0178
36145SOL     OW13754   8.044   2.629  11.351  0.2724  0.0279  0.4161
36145SOL    HW113755   8.062   2.696  11.418 -0.6789  0.3025  0.4068
36145SOL    HW213756   8.122   2.574  11.351  0.4348  0.2348  1.5132
36146SOL     OW13757  10.145   7.425   0.799  0.3071  0.2058  0.0603
36146SOL    HW113758  10.066   7.408   0.749  0.0882 -0.8630  0.7423
36146SOL    HW213759  10.198   7.346   0.790  0.2559 -0.0244  1.4879
36147SOL     OW13760   0.231   0.900   7.622  0.0317 -0.0899  0.1345
36147SOL    HW113761   0.223   0.872   7.531  0.2586  1.9660 -0.5596
36147SOL    HW213762   0.145   0.879   7.661 -0.3311 -0.2940 -0.7492
36148SOL     OW13763   6.487   1.574   8.926  0.1356 -0.1442  0.0649
36148SOL    HW113764   6.504   1.666   8.947 -0.7918 -0.1167  0.8049
36148SOL    HW213765   6.405   1.554   8.971 -0.4984 -0.9072 -1.3717
36149SOL     OW13766   2.607   0.425   4.480  0.6353  0.5640  0.8077
36149SOL    HW113767   2.550   0.350   4.465  0.6841  0.6453  0.1989
36149SOL    HW213768   2.695   0.392   4.465  0.7578  0.4197  1.8247
36150SOL     OW13769   7.275   8.509   3.412  0.0856  0.0827 -0.4135
36150SOL    HW113770   7.324   8.576   3.459  1.9040 -0.2564 -1.6722
36150SOL    HW213771   7.240   8.554   3.335  0.4809 -0.1607 -0.7474
36151SOL     OW13772   0.317   9.233   0.628 -0.0037 -0.0940  0.1402
36151SOL    HW113773   0.230   9.224   0.591 -0.1750  0.4819  0.3942
36151SOL    HW213774   0.302   9.262   0.718  0.4660  1.9072 -0.3691
36152SOL     OW13775   4.769   4.039   3.604 -0.1626  0.1988  0.8314
36152SOL    HW113776   4.775   4.089   3.522  0.7769  0.6007  1.1288
36152SOL    HW213777   4.823   4.088   3.665 -0.2832 -0.4917  1.5010
36153SOL     OW13778   0.187   7.405   9.743  0.0902  0.4652 -0.4515
36153SOL    HW113779   0.107   7.456   9.736 -1.2616 -1.7358 -2.2060
36153SOL    HW213780   0.222   7.401   9.654  0.9506 -0.4186 -0.1019
36154SOL     OW13781  11.178  11.815  11.313 -0.0128 -0.6074 -0.4982
36154SOL    HW113782  11.097  11.839  11.357  0.2180 -0.1708 -0.3056
36154SOL    HW213783  11.172  11.856  11.227  0.4284  0.2492 -0.1302
36155SOL     OW13784   9.417   0.530   6.865  0.4510 -0.3547 -0.3240
36155SOL    HW113785   9.432   0.456   6.807  0.2255  0.2982 -1.2366
36155SOL    HW213786   9.377   0.597   6.810  1.3014  0.7128  0.2922
36156SOL     OW13787  10.849   1.732   0.922 -1.0486  0.1788 -0.4408
36156SOL    HW113788  10.866   1.764   1.010  0.7606  1.3761 -1.1582
36156SOL    HW213789  10.771   1.781   0.893 -1.2746  0.2341  0.2478
36157SOL     OW13790   5.680   4.440   1.500  0.4037  0.1800 -0.1835
36157SOL    HW113791   5.610   4.441   1.434  0.0891  1.1476  0.1593
36157SOL    HW213792   5.696   4.532   1.520  1.0573 -0.0747  0.5097
36158SOL     OW13793   0.443   9.878  11.199  0.0516  0.9840  0.1474
36158SOL    HW113794   0.362   9.843  11.162 -0.4577  1.6732  0.5750
36158SOL    HW213795   0.416   9.960  11.240  1.5359  3.0464 -2.6701
36159SOL     OW13796   2.949   0.647  10.321 -0.1377 -0.5421  0.5376
36159SOL    HW113797   2.854   0.634  10.323 -0.0771 -1.6427 -1.2732
36159SOL    HW213798   2.974   0.622  10.232  1.8928 -0.5318  1.0697
36160SOL     OW13799   2.424  10.828   6.984 -0.1215 -0.5471 -0.1082
36160SOL    HW113800   2.363  10.900   7.003 -1.2812 -1.8991  1.6302
36160SOL    HW213801   2.369  10.750   6.982  1.3311 -1.6115 -0.1658
36161SOL     OW13802   5.677   0.359   0.467  0.2310  0.2128  0.1010
36161SOL    HW113803   5.653   0.271   0.439  0.0103  0.0258  0.8502
36161SOL    HW213804   5.764   0.349   0.506  0.0748  0.2644  0.4685
36162SOL     OW13805  10.945   9.526   9.164  0.2114 -0.3277  0.1578
36162SOL    HW113806  10.882   9.465   9.202  1.1124 -0.8121  0.9456
36162SOL    HW213807  10.893   9.583   9.108 -1.4178  1.1420  2.9633
36163SOL     OW13808   5.606   0.680   5.196 -0.2306 -0.2973  0.0111
36163SOL    HW113809   5.598   0.724   5.111 -1.1948  2.7789  1.5563
36163SOL    HW213810   5.520   0.691   5.236 -0.0573 -2.4493  1.1214
36164SOL     OW13811  10.871  11.711   5.903 -0.4718 -0.1229 -0.2593
36164SOL    HW113812  10.822  11.705   5.821 -2.6622  1.0796  0.8703
36164SOL    HW213813  10.958  11.676   5.882 -1.8547 -2.6106 -2.2985
36165SOL     OW13814   4.066  11.389  11.363 -0.6454  0.4769 -0.1978
36165SOL    HW113815   3.988  11.334  11.357  0.9162 -1.6705 -3.3130
36165SOL    HW213816   4.107  11.363  11.446  0.1829 -3.4960 -1.6494
36166SOL     OW13817   7.158   8.669   1.755  0.2776  0.2962 -0.2736
36166SOL    HW113818   7.236   8.615   1.744  1.9425  2.5413 -0.2177
36166SOL    HW213819   7.147   8.677   1.850 -1.4258 -1.8256 -0.2302
36167SOL     OW13820   5.109   9.394   1.791  0.3012 -0.5715 -0.1157
36167SOL    HW113821   5.038   9.402   1.727  0.7731 -0.0710 -0.5762
36167SOL    HW213822   5.102   9.303   1.822 -0.2473 -0.6667 -0.4974
36168SOL     OW13823   8.996   8.748   6.570 -0.4994 -0.0123  0.4118
36168SOL    HW113824   9.040   8.811   6.512 -1.1273  1.0861  1.0851
36168SOL    HW213825   9.034   8.765   6.656  1.9561 -3.0213  0.1146
36169SOL     OW13826   1.906   7.921   8.595 -0.2960  0.3703  0.0244
36169SOL    HW113827   1.828   7.976   8.603  0.2887  0.9597  2.7966
36169SOL    HW213828   1.883   7.840   8.639  0.6621  0.5855  0.9598
36170SOL     OW13829   8.970   3.885   2.314  0.5090  0.2123 -0.8418
36170SOL    HW113830   9.023   3.910   2.390 -0.3008 -0.1391 -0.1489
36170SOL    HW213831   8.883   3.868   2.349 -0.3886  1.8396 -2.1183
36171SOL     OW13832   9.671   2.300   4.264 -0.2475 -0.0261  0.3338
36171SOL    HW113833   9.657   2.261   4.350  1.6566 -2.0579 -0.1624
36171SOL    HW213834   9.609   2.254   4.207  1.3214 -1.8007 -0.0641
36172SOL     OW13835   9.135  11.779   7.620 -0.6583 -0.2624  0.6388
36172SOL    HW113836   9.156  11.766   7.527 -0.5703 -1.8516  0.8454
36172SOL    HW213837   9.184  11.709   7.665  0.3261  1.2470  2.0307
36173SOL     OW13838   0.971   0.564   0.175 -0.1874 -0.2030 -0.0938
36173SOL    HW113839   0.881   0.584   0.201 -0.6905 -2.5642  0.2953
36173SOL    HW213840   1.020   0.562   0.257  0.1310  0.6217 -0.2567
36174SOL     OW13841   9.532   2.768   0.078  0.1224  0.7048 -0.6507
36174SOL    HW113842   9.522   2.854   0.119  0.5432  0.0663  0.8637
36174SOL    HW213843   9.564   2.711   0.148 -0.6768 -0.8307 -1.4740
36175SOL     OW13844   0.053   3.565  11.009 -0.4549  0.1956 -0.8468
36175SOL    HW113845   0.148   3.553  11.011 -0.5999 -0.9803 -0.4490
36175SOL    HW213846   0.030   3.552  10.917 -0.3249 -0.2924 -0.8107
36176SOL     OW13847   4.531   2.042   8.968  0.5737 -0.6999 -0.3901
36176SOL    HW113848   4.540   2.092   8.886  1.2253  1.7783  1.0884
36176SOL    HW213849   4.620   2.038   9.003  0.1313 -0.6812  0.7539
36177SOL     OW13850   2.838   6.923   5.622 -0.0999  0.3354  0.3919
36177SOL    HW113851   2.871   6.866   5.552 -1.3952  0.8692 -0.6960
36177SOL    HW213852   2.818   6.863   5.694  0.0124 -0.3915 -0.1684
36178SOL     OW13853   2.202   2.420   5.703 -0.1444 -0.2421  0.0820
36178SOL    HW113854   2.243   2.335   5.720  1.2339 -0.4285 -3.4038
36178SOL    HW213855   2.126   2.399   5.648  0.2098  0.7140 -0.8149
36179SOL     OW13856   4.943  10.648   7.311 -0.2006  0.6724  0.0847
36179SOL    HW113857   4.968  10.573   7.256 -0.1287 -0.0801  1.1165
36179SOL    HW213858   5.012  10.653   7.378 -0.1883  1.6915  0.0110
36180SOL     OW13859   7.256   1.177   9.815  0.0138 -0.3960  0.1695
36180SOL    HW113860   7.283   1.268   9.827  0.9536 -0.5033 -0.8735
36180SOL    HW213861   7.169   1.172   9.853 -0.1481  1.0019  0.0298
36181SOL     OW13862   2.970   8.626   9.433  0.1146 -0.0891  0.1958
36181SOL    HW113863   2.908   8.618   9.505 -0.5207  0.1429 -0.3232
36181SOL    HW213864   2.967   8.718   9.408 -0.5053 -0.3892 -0.8626
36182SOL     OW13865   4.538   6.033   4.132 -0.4084 -0.2491  0.2484
36182SOL    HW113866   4.494   5.954   4.165 -1.9598  0.0477 -1.0573
36182SOL    HW213867   4.519   6.034   4.038 -0.7237  1.8772  0.2983
36183SOL     OW13868   8.837   0.927  10.953 -0.4836 -0.2967 -0.3841
36183SOL    HW113869   8.890   0.940  11.031  0.8309 -3.6149 -0.5531
36183SOL    HW213870   8.747   0.928  10.984 -0.0305 -0.4475  0.9807
36184SOL     OW13871   7.207  10.488   2.820  0.3189  0.1316 -0.5149
36184SOL    HW113872   7.144  10.551   2.785  1.1185  0.8093 -0.7506
36184SOL    HW213873   7.259  10.461   2.744  1.1100  0.5058 -0.1151
36185SOL     OW13874   5.339   1.712   4.667 -0.1239  0.2615 -0.4992
36185SOL    HW113875   5.396   1.744   4.597  1.3270 -0.8339  0.1096
36185SOL    HW213876   5.392   1.721   4.746 -1.3185  0.4572  0.2911
36186SOL     OW13877  10.964  11.327   5.270  0.3733 -0.0414  0.0614
36186SOL    HW113878  11.008  11.345   5.353  2.4523 -0.1424 -0.9525
36186SOL    HW213879  10.911  11.249   5.287  1.4675 -0.6074  1.0687
36187SOL     OW13880   3.468   2.836   7.340 -0.2193 -0.2396 -0.3953
36187SOL    HW113881   3.405   2.899   7.305 -0.1900  0.5725  0.9566
36187SOL    HW213882   3.509   2.880   7.414 -0.0090 -1.7447  0.4398
36188SOL     OW13883   5.677   2.895  10.963 -0.1351 -0.2247  0.6191
36188SOL    HW113884   5.606   2.959  10.962  0.3090  0.2774 -1.2163
36188SOL    HW213885   5.667   2.846  10.881 -0.3166 -2.3907  1.8525
36189SOL     OW13886   9.092  10.999  11.384  0.2885  0.3965 -0.3016
36189SOL    HW113887   9.085  10.965  11.473  0.6345 -0.0624 -0.4433
36189SOL    HW213888   9.072  11.092  11.391  1.7356  0.6692  0.4872
36190SOL     OW13889   2.918   2.696   2.126 -0.2045 -0.2679  0.9185
36190SOL    HW113890   2.904   2.604   2.104  1.9379 -0.2281 -1.0778
36190SOL    HW213891   2.964   2.694   2.210  0.7159 -1.1190  0.4207
36191SOL     OW13892   9.179   0.793   3.386  0.2256 -0.0733 -0.2034
36191SOL    HW113893   9.250   0.850   3.415  0.4337 -0.6662  0.4847
36191SOL    HW213894   9.102   0.850   3.381  0.7853  0.6247 -1.1857
36192SOL     OW13895   2.770   1.729   3.540  1.1403 -0.3434 -0.6160
36192SOL    HW113896   2.734   1.654   3.492  0.4303  1.5494 -3.2543
36192SOL    HW213897   2.731   1.722   3.628 -0.5596 -1.9043 -1.4299
36193SOL     OW13898   0.966   0.195   7.628  0.1714  0.4820  0.5668
36193SOL    HW113899   0.996   0.252   7.698  3.3126 -1.9559  1.4370
36193SOL    HW213900   0.944   0.112   7.671  0.5919 -0.5649 -1.1150
36194SOL     OW13901   6.960   2.337   7.282  0.0469  0.3834  0.4616
36194SOL    HW113902   7.046   2.298   7.269  0.0354 -0.2024  1.9505
36194SOL    HW213903   6.974   2.431   7.272  0.3894  0.1708 -1.5353
36195SOL     OW13904   4.767   9.408   4.373  0.0988  0.1633  0.8972
36195SOL    HW113905   4.847   9.458   4.358 -0.1523  0.3688  0.2384
36195SOL    HW213906   4.740   9.433   4.462 -0.0133  1.1997  0.5893
36196SOL     OW13907   8.250   5.701   5.473  0.0437  0.1610 -0.4634
36196SOL    HW113908   8.248   5.745   5.558 -0.3026  1.1086 -0.9472
36196SOL    HW213909   8.254   5.608   5.494 -0.1145  0.3827  0.5926
36197SOL     OW13910  11.071   9.127   7.918 -0.3044  0.6129  0.1800
36197SOL    HW113911  11.073   9.162   7.829  0.8242  1.2641  0.4378
36197SOL    HW213912  11.036   9.198   7.971 -0.0815  0.5656  0.3924
36198SOL     OW13913  10.236   3.035   1.548 -0.2390  0.7973  0.1941
36198SOL    HW113914  10.258   3.033   1.455 -0.8950 -0.0762  0.0504
36198SOL    HW213915  10.193   3.120   1.560 -0.7483  0.6343 -0.4371
36199SOL     OW13916   4.381   8.348   8.481 -0.3194 -0.0680  0.4247
36199SOL    HW113917   4.293   8.337   8.515 -0.6432 -1.2758 -0.7066
36199SOL    HW213918   4.437   8.302   8.543 -0.4104  0.9713  1.3190
36200SOL     OW13919   6.146   1.284   3.756  0.4048 -0.3294 -0.2701
36200SOL    HW113920   6.194   1.254   3.679 -0.2226  2.4165 -1.8366
36200SOL    HW213921   6.204   1.264   3.830  1.4539 -2.1304 -1.5040
36201SOL     OW13922  10.536   9.215  10.130  0.6024 -0.1452  0.3315
36201SOL    HW113923  10.451   9.238  10.092  1.3404 -1.2332 -2.2777
36201SOL    HW213924  10.517   9.144  10.191 -0.4733  0.4064  0.6545
36202SOL     OW13925   7.549   4.572  10.467  0.1374  0.1217  0.1278
36202SOL    HW113926   7.547   4.659  10.509 -0.0802 -0.6751  1.8757
36202SOL    HW213927   7.545   4.591  10.373 -0.8714  1.9722  0.4837
36203SOL     OW13928   9.462   2.950   5.145 -0.2838 -0.1077 -0.0054
36203SOL    HW113929   9.465   2.881   5.211 -1.7514 -2.0045 -1.7897
36203SOL    HW213930   9.535   2.929   5.086  0.4839  1.0754  0.4666
36204SOL     OW13931   2.239   6.001   1.540 -0.0040 -0.0879 -0.2238
36204SOL    HW113932   2.229   6.081   1.489 -0.7365  1.3285  1.9753
36204SOL    HW213933   2.280   6.030   1.622  1.1227 -2.2359  0.0574
36205SOL     OW13934   6.741   4.116   7.261  0.0240 -0.1220 -0.4544
36205SOL    HW113935   6.723   4.062   7.337  2.0951 -1.9894 -1.1824
36205SOL    HW213936   6.684   4.193   7.272  0.0487 -0.4314  2.7711
36206SOL     OW13937   5.386   2.148   4.374  0.5807 -0.3051 -0.2699
36206SOL    HW113938   5.463   2.200   4.354  0.7372 -0.4412 -0.0219
36206SOL    HW213939   5.368   2.100   4.292  0.7402 -0.2498 -0.3379
36207SOL     OW13940   9.582   2.737   3.971 -0.0712  0.1587 -0.1561
36207SOL    HW113941   9.510   2.787   3.932 -1.1985  0.1564  1.7963
36207SOL    HW213942   9.628   2.800   4.026  0.5137 -0.2021 -0.2226
36208SOL     OW13943   9.789   6.031   0.389  0.1992 -0.3242  0.0049
36208SOL    HW113944   9.716   6.088   0.415  0.8453  0.6429 -0.2594
36208SOL    HW213945   9.760   5.993   0.306  1.0239  2.1256 -1.5213
36209SOL     OW13946   8.251   9.121   8.907 -0.1431  0.0515 -0.2176
36209SOL    HW113947   8.343   9.099   8.891 -0.1462  0.3796 -0.7234
36209SOL    HW213948   8.210   9.037   8.929  0.8080  0.2650  2.7900
36210SOL     OW13949   4.330   3.292   4.531 -0.7229  0.7786 -0.0492
36210SOL    HW113950   4.397   3.314   4.596  0.7305 -0.6980 -0.9543
36210SOL    HW213951   4.309   3.200   4.550 -0.3670  0.3661 -1.5478
36211SOL     OW13952   0.491   2.624   5.921 -0.4990  0.5221 -0.0494
36211SOL    HW113953   0.433   2.578   5.981 -1.5256  1.7507 -0.0659
36211SOL    HW213954   0.578   2.588   5.939 -1.3804 -2.2720 -0.8873
36212SOL     OW13955   3.319   8.951   6.226 -0.8407 -0.0090 -0.2499
36212SOL    HW113956   3.286   8.900   6.300 -1.6917 -1.7555 -1.7310
36212SOL    HW213957   3.307   8.893   6.150 -1.3259  2.2261 -1.9764
36213SOL     OW13958  10.927   0.906   6.001  0.4138  0.0807 -0.2496
36213SOL    HW113959  10.992   0.902   5.931  0.1363  0.3503 -0.5303
36213SOL    HW213960  10.846   0.875   5.960  0.0749  0.9501 -0.2623
36214SOL     OW13961   1.276   9.589   6.121 -0.0687 -0.6325 -0.0242
36214SOL    HW113962   1.247   9.680   6.124 -0.6218 -0.7862  3.0334
36214SOL    HW213963   1.205   9.541   6.078 -1.0589  0.0228  0.8430
36215SOL     OW13964   7.948   9.990   3.323  0.2649 -0.0608 -0.1020
36215SOL    HW113965   8.023  10.047   3.315  0.1194 -0.0234 -1.3890
36215SOL    HW213966   7.937   9.951   3.236 -1.1825 -0.0799  0.0583
36216SOL     OW13967   5.767   8.383   6.178  0.6192 -0.3502 -0.2676
36216SOL    HW113968   5.810   8.464   6.206 -0.7812  1.7262 -3.6383
36216SOL    HW213969   5.677   8.391   6.208  0.3015 -0.3260 -1.2096
36217SOL     OW13970   2.959   2.648   7.797 -0.4456 -0.1258 -0.6302
36217SOL    HW113971   3.025   2.642   7.728 -0.5771  1.1235 -0.8803
36217SOL    HW213972   2.982   2.578   7.858 -1.3142 -2.4327 -2.7479
36218SOL     OW13973   1.364   3.000  10.744  0.3529  0.1279 -0.1131
36218SOL    HW113974   1.332   3.012  10.655  0.6852 -0.0190 -0.2533
36218SOL    HW213975   1.296   3.039  10.799  0.4637  0.8337 -0.4615
36219SOL     OW13976   9.809   1.207   5.133  0.3099 -0.0604 -0.3101
36219SOL    HW113977   9.885   1.226   5.079 -0.9126  1.8269 -1.4665
36219SOL    HW213978   9.815   1.269   5.206  0.9749 -1.3563  0.7779
36220SOL     OW13979   1.462   4.737   8.426  0.2191 -0.1412  0.0339
36220SOL    HW113980   1.419   4.813   8.386  1.3380  1.0563  1.0336
36220SOL    HW213981   1.428   4.735   8.516  0.6481 -0.4728  0.1875
36221SOL     OW13982   7.753  11.460   3.276  0.2055 -0.0889 -0.0920
36221SOL    HW113983   7.691  11.392   3.303  1.1826 -1.2792 -0.7532
36221SOL    HW213984   7.800  11.482   3.357  0.1888 -0.5228  0.0390
36222SOL     OW13985   9.887   6.346   8.796 -0.6680 -0.6476  0.1673
36222SOL    HW113986   9.831   6.274   8.767  0.8168 -2.0748  0.6916
36222SOL    HW213987   9.905   6.326   8.888 -1.0368  0.9668  0.6242
36223SOL     OW13988   5.997   6.228   7.627  0.6367 -0.4467 -0.2794
36223SOL    HW113989   5.990   6.305   7.570 -0.7680  0.1014  0.5715
36223SOL    HW213990   5.908   6.215   7.660  1.2623 -1.1974  1.1923
36224SOL     OW13991   2.141   3.451   5.871  0.3537 -0.3223 -0.1591
36224SOL    HW113992   2.124   3.535   5.829  0.8604 -0.5658 -0.8753
36224SOL    HW213993   2.236   3.449   5.883  0.3126 -0.6616  0.1436
36225SOL     OW13994   6.692  11.170   9.764  0.0607  0.0439  0.1879
36225SOL    HW113995   6.683  11.119   9.844  1.1199  1.3498  1.1928
36225SOL    HW213996   6.786  11.167   9.744 -0.4068 -2.0654 -2.2935
36226SOL     OW13997   6.336   8.349   0.446  0.3316 -0.1842 -0.1272
36226SOL    HW113998   6.374   8.268   0.414  0.1319  0.2087 -1.3878
36226SOL    HW213999   6.305   8.394   0.368 -2.7207 -0.4501  0.7907
36227SOL     OW14000  10.879   7.202   9.340  0.2970 -0.2211  0.3828
36227SOL    HW114001  10.963   7.165   9.366  0.1473 -0.9797 -0.1822
36227SOL    HW214002  10.880   7.291   9.374  2.6960  0.9598 -2.3919
36228SOL     OW14003   1.859  11.240  10.479 -0.5705  0.2707 -0.4705
36228SOL    HW114004   1.826  11.312  10.427 -2.8810  0.4726  1.1252
36228SOL    HW214005   1.787  11.177  10.482  0.3315 -0.7721  0.5996
36229SOL     OW14006   8.453   3.087   7.244 -0.2974  0.1739 -0.4073
36229SOL    HW114007   8.370   3.134   7.240 -0.7589 -0.5210  0.6879
36229SOL    HW214008   8.431   3.001   7.280  0.7687 -0.3277 -0.8999
36230SOL     OW14009   3.515   4.591   5.659 -0.3913  0.0965  0.2285
36230SOL    HW114010   3.514   4.613   5.566 -0.0252 -0.2121  0.1505
36230SOL    HW214011   3.578   4.652   5.698 -1.2868  0.9010  0.4490
36231SOL     OW14012   6.228   8.582   7.479  0.1213 -0.0654 -0.3255
36231SOL    HW114013   6.218   8.628   7.562  0.6745  0.3759 -0.4998
36231SOL    HW214014   6.254   8.494   7.503 -0.1524 -0.0651 -0.0181
36232SOL     OW14015  10.089   4.148   3.972  0.6942  0.1804 -0.3591
36232SOL    HW114016  10.015   4.174   4.027  0.6731  0.2289 -0.4102
36232SOL    HW214017  10.105   4.225   3.916  1.2595  0.4373  0.1585
36233SOL     OW14018   8.490   4.953   9.589  0.1896 -0.0394  0.1716
36233SOL    HW114019   8.562   5.017   9.595 -0.6905  0.9313  0.5621
36233SOL    HW214020   8.496   4.919   9.499  1.0151  0.1761  0.1361
36234SOL     OW14021   8.598   6.366  11.274  0.6303 -0.1026 -0.5009
36234SOL    HW114022   8.604   6.273  11.252  1.0953  0.0214 -0.9063
36234SOL    HW214023   8.515   6.394  11.236  0.7427 -0.2288 -0.8454
36235SOL     OW14024   4.510   8.658   2.894 -0.4653  0.1255  0.1985
36235SOL    HW114025   4.450   8.723   2.931  0.9543  0.3696  2.2377
36235SOL    HW214026   4.458   8.612   2.828 -2.3221  1.5013  0.6206
36236SOL     OW14027   2.913   9.606  10.702 -0.2171  0.3001 -0.7948
36236SOL    HW114028   2.889   9.698  10.694 -0.2656  0.3134 -0.5156
36236SOL    HW214029   2.968   9.603  10.780  0.8978  0.3140 -1.5554
36237SOL     OW14030   4.383   9.972   5.933 -0.3852 -0.0588  0.4854
36237SOL    HW114031   4.381   9.881   5.904 -0.6880  0.2963 -0.6458
36237SOL    HW214032   4.472   9.984   5.967  0.0979 -0.3995 -0.6180
36238SOL     OW14033   9.294   9.026   5.786  0.8135  0.0468 -0.0048
36238SOL    HW114034   9.312   8.937   5.755  0.0282 -0.0596 -0.1622
36238SOL    HW214035   9.309   9.081   5.709 -1.1977 -0.2234 -0.6548
36239SOL     OW14036   1.659   3.851   7.224  0.0592  0.0105 -0.2322
36239SOL    HW114037   1.588   3.894   7.176 -0.0173 -0.7159 -0.7757
36239SOL    HW214038   1.733   3.852   7.163  0.0729 -0.5822 -0.2242
36240SOL     OW14039   4.694   4.542   8.340 -0.0456 -1.0548 -0.6048
36240SOL    HW114040   4.722   4.616   8.394 -1.8118 -1.4045  0.8979
36240SOL    HW214041   4.664   4.477   8.404 -3.1168 -1.1415 -1.9643
36241SOL     OW14042   5.664   1.415   8.459  0.0580  0.3245 -0.2114
36241SOL    HW114043   5.638   1.507   8.458 -1.1470 -0.0099 -0.8088
36241SOL    HW214044   5.597   1.370   8.409 -0.8023 -1.2889  2.2082
36242SOL     OW14045   3.088   8.427   9.999  0.4087  0.1939  0.0727
36242SOL    HW114046   3.048   8.345   9.969  0.7265  0.0739 -0.0232
36242SOL    HW214047   3.030   8.496   9.966  0.8261  0.0711 -0.9513
36243SOL     OW14048  10.999   8.249   4.561  0.0232  0.0700  0.6106
36243SOL    HW114049  11.037   8.220   4.478  0.1178 -0.4357  0.8281
36243SOL    HW214050  10.954   8.331   4.539 -1.3755 -0.9068 -0.2936
36244SOL     OW14051   9.839   6.871   0.593 -0.0510  0.4666 -0.2611
36244SOL    HW114052   9.882   6.897   0.675  0.7131  1.2487 -0.8985
36244SOL    HW214053   9.880   6.788   0.569 -0.9608 -0.2759  0.6316
36245SOL     OW14054   7.849   8.331  10.646 -0.0897  1.0630  0.1286
36245SOL    HW114055   7.887   8.404  10.598 -0.4766 -0.4029 -2.6334
36245SOL    HW214056   7.755   8.349  10.649 -0.0673  1.1479  0.3301
36246SOL     OW14057  11.304   0.353   9.069 -0.5090  0.6506 -0.1574
36246SOL    HW114058  11.249   0.382   9.143 -0.4310 -0.9166  0.5533
36246SOL    HW214059  11.388   0.331   9.110 -0.2073  0.5238 -0.8433
36247SOL     OW14060  10.583   8.670   0.974  0.3367  0.5797  0.0244
36247SOL    HW114061  10.673   8.644   0.989  0.2679  0.3788  0.0873
36247SOL    HW214062  10.589   8.751   0.923  0.5337  0.0236 -0.8394
36248SOL     OW14063   0.560   4.848   2.582  0.4645  0.4360 -1.0462
36248SOL    HW114064   0.501   4.775   2.561  1.4509 -0.7349  0.1234
36248SOL    HW214065   0.539   4.872   2.672  2.1130 -0.3923 -0.3939
36249SOL     OW14066   6.814  11.125   0.288  0.0051 -0.3712  0.0291
36249SOL    HW114067   6.877  11.066   0.247 -1.0262  0.4955 -3.0316
36249SOL    HW214068   6.865  11.202   0.311  0.6386 -0.9625  0.6973
36250SOL     OW14069   3.415  11.725   5.292 -0.3210  0.6796  0.1947
36250SOL    HW114070   3.370  11.648   5.257 -1.0709  0.3733  1.7554
36250SOL    HW214071   3.401  11.793   5.226  2.3757 -1.0388 -2.4313
36251SOL     OW14072  11.079   1.137  11.155 -0.1961 -0.1310 -0.1944
36251SOL    HW114073  11.091   1.087  11.074 -1.1644 -2.2941  0.9334
36251SOL    HW214074  11.026   1.212  11.128  1.5915  0.5837 -1.9902
36252SOL     OW14075   8.588   5.153   3.737 -0.1228  0.2930 -0.2583
36252SOL    HW114076   8.549   5.229   3.693  1.3763 -0.2400 -2.6614
36252SOL    HW214077   8.680   5.177   3.750 -0.0357 -0.4459  0.5792
36253SOL     OW14078   1.524   5.839   6.408 -0.0303 -0.3326 -0.5505
36253SOL    HW114079   1.588   5.872   6.345  0.7039  0.4357  0.5752
36253SOL    HW214080   1.513   5.747   6.384  1.0419 -0.3299 -1.1331
36254SOL     OW14081   6.661   5.023  10.636 -0.5320  0.4936  0.0075
36254SOL    HW114082   6.626   5.089  10.696 -1.2452  0.5138 -0.4069
36254SOL    HW214083   6.620   4.941  10.663  1.1268  0.0043  1.1549
36255SOL     OW14084   0.757   1.282   5.249  0.1304 -0.2049 -0.1102
36255SOL    HW114085   0.782   1.364   5.206 -0.5224  0.3575  0.5514
36255SOL    HW214086   0.725   1.309   5.335 -2.2561 -0.9072 -0.6997
36256SOL     OW14087   5.594   4.405   4.294  1.2583 -0.1276  0.4915
36256SOL    HW114088   5.639   4.460   4.359  0.2251  0.7068  0.5317
36256SOL    HW214089   5.602   4.454   4.212  2.7206 -1.2643 -0.1008
36257SOL     OW14090   2.380  10.001   2.812  0.2110  0.1368 -0.0119
36257SOL    HW114091   2.440   9.976   2.742 -1.7364 -1.7623 -1.0995
36257SOL    HW214092   2.437  10.037   2.880  2.3512  0.2641 -1.7796
36258SOL     OW14093   4.727   9.658   9.317 -0.1320  0.0185 -0.3572
36258SOL    HW114094   4.709   9.699   9.232 -1.1065 -2.0385 -1.2024
36258SOL    HW214095   4.645   9.665   9.365  0.1192  0.2700  0.0502
36259SOL     OW14096   5.298   5.959   1.539 -0.2109  0.2097  0.2316
36259SOL    HW114097   5.301   5.954   1.634  0.0034  1.2275  0.2843
36259SOL    HW214098   5.210   5.930   1.516 -1.4038  2.9329  0.9703
36260SOL     OW14099   9.550   2.200   3.271  0.0841  0.3735  0.0502
36260SOL    HW114100   9.470   2.248   3.248  0.3152  0.4288 -0.6604
36260SOL    HW214101   9.519   2.116   3.303 -0.2345 -0.2114 -1.6676
36261SOL     OW14102   5.787   0.006   8.865 -0.2257 -0.0996  0.0019
36261SOL    HW114103   5.749  -0.068   8.817 -1.2236  0.7229 -0.5105
36261SOL    HW214104   5.817  -0.032   8.948 -0.3697 -1.1465 -0.4102
36262SOL     OW14105   6.965   0.686  10.871  0.1015  0.2378  0.2694
36262SOL    HW114106   6.977   0.593  10.891 -2.6985 -0.1106  0.7874
36262SOL    HW214107   6.945   0.687  10.777  1.6024  0.5178 -0.0624
36263SOL     OW14108  10.789   6.906  10.472 -1.0028 -0.1365 -1.0797
36263SOL    HW114109  10.789   6.987  10.421  0.3510  0.0344 -0.8509
36263SOL    HW214110  10.847   6.925  10.546 -1.2953 -1.0596 -0.6079
36264SOL     OW14111  10.896   3.530   7.226 -0.3921 -0.0883 -0.2786
36264SOL    HW114112  10.872   3.466   7.160 -1.5158 -0.3314  0.3496
36264SOL    HW214113  10.833   3.518   7.297  0.5139  0.4580  0.6605
36265SOL     OW14114   0.911   7.603   0.965  0.1959  0.3949  0.3812
36265SOL    HW114115   0.974   7.554   0.912  0.6835  0.9321  0.4480
36265SOL    HW214116   0.826   7.566   0.942  0.5879 -0.7291  0.7150
36266SOL     OW14117   2.022   9.806   5.769  0.3310  0.4528  0.1490
36266SOL    HW114118   2.036   9.712   5.758 -0.6835 -0.0269  2.2861
36266SOL    HW214119   1.945   9.825   5.717 -0.1792 -0.1820  0.6515
36267SOL     OW14120  11.582   8.639   2.123 -0.1774 -0.1382 -0.2317
36267SOL    HW114121  11.597   8.628   2.216 -0.0343  2.0386  0.0383
36267SOL    HW214122  11.493   8.604   2.109 -0.9304  1.1603  1.0777
36268SOL     OW14123   5.323   4.461   3.035 -0.4168 -0.8623  0.1458
36268SOL    HW114124   5.371   4.430   2.957 -1.8094 -2.3098 -0.1787
36268SOL    HW214125   5.234   4.474   3.004 -0.6747 -0.0656  1.1947
36269SOL     OW14126   1.711   2.591   1.315  0.2845  0.1437  0.1904
36269SOL    HW114127   1.680   2.502   1.331  0.6545 -0.4964 -2.2218
36269SOL    HW214128   1.777   2.606   1.381  0.2594 -1.4080  0.6050
36270SOL     OW14129   8.479   9.468  11.100 -0.2630  0.5305 -0.1081
36270SOL    HW114130   8.557   9.470  11.156 -0.7374 -1.9378  0.7504
36270SOL    HW214131   8.477   9.379  11.066 -2.6104  0.6021 -0.2779
36271SOL     OW14132   5.871   5.771   6.052 -1.0633 -0.4141 -0.5260
36271SOL    HW114133   5.803   5.705   6.067 -0.7911 -0.5892 -0.0752
36271SOL    HW214134   5.914   5.783   6.136 -1.7477  1.0705 -0.3559
36272SOL     OW14135   4.993   7.077   4.768 -0.0479  0.4286  0.0261
36272SOL    HW114136   5.004   7.169   4.791  0.3507  0.2634  0.5160
36272SOL    HW214137   5.010   7.030   4.849 -3.0043  0.0322  0.5359
36273SOL     OW14138   8.796   6.380  11.511  0.1792  0.1310  0.2631
36273SOL    HW114139   8.765   6.449  11.569  1.9500  1.8126 -0.6666
36273SOL    HW214140   8.743   6.388  11.432 -0.6377 -0.6108  0.7185
36274SOL     OW14141   4.016   7.816   3.996 -0.1161 -0.3322  0.4113
36274SOL    HW114142   4.040   7.894   4.047  3.6194 -0.5968 -0.6438
36274SOL    HW214143   4.067   7.824   3.916 -2.2516 -2.2573 -1.2547
36275SOL     OW14144  11.430   5.348   2.759 -0.1114  0.4685  0.1385
36275SOL    HW114145  11.503   5.320   2.704 -0.6027 -3.1994  1.1465
36275SOL    HW214146  11.447   5.309   2.845 -2.2766  1.1507  0.9542
36276SOL     OW14147   8.975   6.404   0.262 -0.3866 -0.4998  0.0569
36276SOL    HW114148   9.066   6.388   0.283 -0.0519  0.3476 -0.6512
36276SOL    HW214149   8.972   6.401   0.166 -1.2718 -1.3404  0.0941
36277SOL     OW14150   6.754   1.980   8.585 -0.4873  0.2602  0.2619
36277SOL    HW114151   6.847   2.001   8.576 -0.2037 -1.3949 -1.1103
36277SOL    HW214152   6.710   2.036   8.521  0.0681 -1.8054 -2.0751
36278SOL     OW14153   5.996   1.584   9.363 -0.7479 -0.2700 -0.0670
36278SOL    HW114154   6.084   1.609   9.336  0.3098 -4.4359 -1.3536
36278SOL    HW214155   6.001   1.578   9.458  0.7506 -1.3015 -0.1623
36279SOL     OW14156   1.917   1.556   6.234  0.3811 -0.4969 -0.0726
36279SOL    HW114157   1.932   1.642   6.273  0.6318  0.4129 -2.0503
36279SOL    HW214158   2.005   1.517   6.227  0.1769 -1.3390  1.6646
36280SOL     OW14159  10.939   0.242   0.562  0.2192 -0.1090 -0.1025
36280SOL    HW114160  10.932   0.191   0.642 -0.8618  1.5924  0.9536
36280SOL    HW214161  10.861   0.220   0.512  0.1046 -0.0090  0.0321
36281SOL     OW14162   0.973  10.575   0.980  0.0336 -0.4375  0.5455
36281SOL    HW114163   0.882  10.587   0.954  0.5297  0.1026 -1.0876
36281SOL    HW214164   1.011  10.519   0.912  0.2424 -3.2381  2.7771
36282SOL     OW14165   9.952   9.893   0.837  0.0783  0.3729  0.1190
36282SOL    HW114166   9.982   9.804   0.820 -1.5639  0.0452 -1.3242
36282SOL    HW214167   9.888   9.885   0.908  1.2621  0.6974  1.2695
36283SOL     OW14168   2.737   6.409   7.981  0.1543 -0.1810 -0.0552
36283SOL    HW114169   2.732   6.352   7.904  2.6337 -0.7699  0.1216
36283SOL    HW214170   2.737   6.497   7.945  0.2606 -0.4210 -0.6732
36284SOL     OW14171   2.110   6.769   5.611  0.4964  0.0895 -0.0354
36284SOL    HW114172   2.108   6.740   5.519  0.0536  0.0185 -0.0079
36284SOL    HW214173   2.203   6.782   5.630  0.7377 -1.4754 -0.0020
36285SOL     OW14174   1.690   2.300   9.255 -0.2082  0.4017  0.8347
36285SOL    HW114175   1.724   2.228   9.202 -1.1959  0.2624  0.3700
36285SOL    HW214176   1.618   2.261   9.306 -1.6321  1.3053 -0.3827
36286SOL     OW14177   4.058   1.779   0.576  0.1471 -0.4819  0.0465
36286SOL    HW114178   4.126   1.781   0.644  0.1110 -1.1629  0.1061
36286SOL    HW214179   4.097   1.826   0.502  0.5861 -0.6550  0.1646
36287SOL     OW14180   8.339   6.812   7.299  0.5129 -0.1417  0.0423
36287SOL    HW114181   8.413   6.808   7.359 -0.1301 -2.1556  0.8097
36287SOL    HW214182   8.376   6.793   7.213  1.0318 -0.0430  0.2404
36288SOL     OW14183   5.034   7.406   2.478  0.0314 -0.2236 -0.1079
36288SOL    HW114184   4.984   7.460   2.538  2.3437  0.4096  1.3674
36288SOL    HW214185   5.023   7.448   2.393  1.5383  2.5113  0.9521
36289SOL     OW14186  10.046   1.561  11.002 -0.5481  0.2314 -0.1730
36289SOL    HW114187  10.109   1.575  10.931 -0.0277  0.7413  0.3765
36289SOL    HW214188  10.086   1.492  11.055 -0.2411  0.8435  0.4056
36290SOL     OW14189   3.997   2.368   1.189  0.1911 -0.1437 -0.2924
36290SOL    HW114190   3.915   2.321   1.177 -0.8150  1.4558 -0.0991
36290SOL    HW214191   4.065   2.301   1.184 -1.0645 -1.3982 -1.2678
36291SOL     OW14192   8.778   9.537   3.238  0.0560  0.4147 -0.0723
36291SOL    HW114193   8.732   9.459   3.270  1.0639 -0.1737 -0.0344
36291SOL    HW214194   8.748   9.608   3.296 -0.7739  0.0448 -0.0304
36292SOL     OW14195   5.686  11.271   7.772 -0.4554  0.5137  0.0586
36292SOL    HW114196   5.741  11.198   7.802 -0.1731  1.8018  2.9359
36292SOL    HW214197   5.717  11.288   7.683  1.3638 -1.0916  0.3038
36293SOL     OW14198   8.692   6.117   5.111  0.7083  0.1264 -0.2380
36293SOL    HW114199   8.645   6.046   5.069 -0.4846 -0.5813  2.1171
36293SOL    HW214200   8.738   6.161   5.040 -0.4698 -1.4929 -2.0946
36294SOL     OW14201   1.268   2.062   6.387 -0.0127 -0.3601 -0.3454
36294SOL    HW114202   1.309   2.145   6.411 -0.9815  0.1909 -0.5429
36294SOL    HW214203   1.341   2.000   6.382  0.5881  0.2084  0.9033
36295SOL     OW14204  10.358  11.258   5.121  0.1467  0.4925 -0.5316
36295SOL    HW114205  10.448  11.288   5.117  0.3911 -0.3412 -1.7848
36295SOL    HW214206  10.333  11.241   5.030  0.1445 -3.2975 -0.0158
36296SOL     OW14207   1.920   5.067   7.540  0.2987  0.3592  0.3175
36296SOL    HW114208   1.842   5.011   7.545  0.0402  0.3328 -2.3961
36296SOL    HW214209   1.981   5.019   7.485  1.7694  0.9617  1.3499
36297SOL     OW14210   9.840   1.929   8.076 -0.5352 -0.3407 -0.1618
36297SOL    HW114211   9.746   1.946   8.072 -0.2349  1.3450 -2.5774
36297SOL    HW214212   9.878   2.007   8.117 -0.1300 -0.6822  0.1232
36298SOL     OW14213   9.119   9.719   5.033 -0.1573  0.2996  0.0351
36298SOL    HW114214   9.092   9.770   4.956 -2.0438 -0.5928  0.0596
36298SOL    HW214215   9.097   9.774   5.108 -0.9694 -0.0031  0.0210
36299SOL     OW14216   6.385   9.082   3.073  0.0201 -0.0267 -0.0780
36299SOL    HW114217   6.426   9.145   3.014  0.4955  0.1800  0.4686
36299SOL    HW214218   6.401   8.997   3.032 -0.0664  0.1526 -0.4898
36300SOL     OW14219   0.442  11.778  10.401  0.6464 -0.4660  0.2744
36300SOL    HW114220   0.383  11.830  10.457  1.8618 -0.9997  2.1146
36300SOL    HW214221   0.385  11.747  10.331 -0.6561  1.3291  0.4444
36301SOL     OW14222   8.027   9.587   6.799  0.4137 -0.1231 -0.7868
36301SOL    HW114223   7.972   9.651   6.753 -0.5169 -0.0103  0.4498
36301SOL    HW214224   8.027   9.616   6.890  1.3675 -0.9464 -0.5041
36302SOL     OW14225   6.009   5.542   5.224 -0.2018 -0.2899  1.3902
36302SOL    HW114226   5.954   5.597   5.281  1.5958  1.8850  1.1347
36302SOL    HW214227   5.993   5.575   5.136  1.7281  0.6956  1.3463
36303SOL     OW14228   9.944   0.046   9.234 -0.1205 -0.5708  0.2802
36303SOL    HW114229  10.003   0.094   9.175  0.0577 -2.5770 -1.2582
36303SOL    HW214230   9.863   0.038   9.185 -0.0533 -2.0697  0.3885
36304SOL     OW14231   0.976   5.893   0.236  0.5121  0.1786 -0.6718
36304SOL    HW114232   1.063   5.859   0.256  0.6755 -0.3108 -2.0756
36304SOL    HW214233   0.947   5.840   0.161 -0.3479  1.3553 -1.1981
36305SOL     OW14234  10.852   3.994  11.241 -0.2523 -0.1843 -0.8402
36305SOL    HW114235  10.886   4.017  11.327 -0.0537 -0.2126 -0.9098
36305SOL    HW214236  10.863   4.073  11.189 -0.3448 -0.1758 -0.8461
36306SOL     OW14237   1.523   4.214   7.488 -0.0302  0.2272  0.3662
36306SOL    HW114238   1.545   4.303   7.514  0.2362 -0.3446  2.3088
36306SOL    HW214239   1.604   4.179   7.450  1.1808 -0.3544  3.1663
36307SOL     OW14240   9.653   3.895   4.817 -0.6302  0.5339 -0.0102
36307SOL    HW114241   9.748   3.903   4.827 -0.4561 -0.7887 -0.3636
36307SOL    HW214242   9.634   3.939   4.734 -0.0456 -0.7543 -0.8530
36308SOL     OW14243   2.758   1.767   6.162 -0.3790  0.3635  0.3574
36308SOL    HW114244   2.767   1.797   6.253  0.7432 -0.1664  0.4326
36308SOL    HW214245   2.820   1.694   6.155 -0.6474  0.2382 -0.7681
36309SOL     OW14246   0.332   6.534   7.409  0.2691  0.2510 -0.5935
36309SOL    HW114247   0.262   6.470   7.424  1.8357 -1.7405 -1.1928
36309SOL    HW214248   0.362   6.556   7.497  0.8755 -1.2915 -0.3699
36310SOL     OW14249   7.068   8.840   3.674 -0.9743 -0.2115 -0.1281
36310SOL    HW114250   7.049   8.756   3.717 -0.3071 -0.1251  0.3499
36310SOL    HW214251   7.079   8.902   3.746 -0.3249  0.0376 -0.4286
36311SOL     OW14252   4.954   5.500   7.424  0.0408  0.0567  0.4968
36311SOL    HW114253   4.968   5.470   7.514  2.6162 -1.0822 -0.2234
36311SOL    HW214254   4.900   5.431   7.384  0.5565 -0.4289  0.6266
36312SOL     OW14255  11.034   4.258   0.838  0.0844  0.3237 -0.0322
36312SOL    HW114256  11.037   4.258   0.743 -2.0256 -0.0130 -0.1583
36312SOL    HW214257  11.048   4.167   0.863 -0.9550  0.1157 -0.1477
36313SOL     OW14258   4.964   0.364   2.451 -0.1999 -0.3663 -0.1594
36313SOL    HW114259   4.893   0.421   2.423 -0.4905 -0.6280  0.0395
36313SOL    HW214260   4.952   0.283   2.402 -0.7603 -0.8575  0.7497
36314SOL     OW14261   5.026   2.072   1.314  0.4094 -0.3344 -0.1442
36314SOL    HW114262   5.078   2.088   1.393 -0.2902  0.8725  0.0897
36314SOL    HW214263   4.968   2.148   1.307 -0.9490 -1.3637 -0.6974
36315SOL     OW14264   7.483  10.700   4.554  0.6422 -0.2639 -0.0345
36315SOL    HW114265   7.573  10.687   4.523  0.9335  1.3188  0.1129
36315SOL    HW214266   7.489  10.695   4.649  0.9128  1.6479  0.0801
36316SOL     OW14267  11.145   9.919   0.462  0.5508  0.1742 -0.1379
36316SOL    HW114268  11.075   9.881   0.409 -0.6390  1.6601  0.2807
36316SOL    HW214269  11.211   9.850   0.469 -1.4651 -1.8083  0.6139
36317SOL     OW14270   0.993   3.474   9.084 -0.5977  0.2676  0.6390
36317SOL    HW114271   1.089   3.466   9.080 -0.4504  1.2623  1.6183
36317SOL    HW214272   0.976   3.565   9.062 -1.2027  0.4651  1.8519
36318SOL     OW14273   8.293  10.537  10.929 -0.5467 -0.1198 -0.0375
36318SOL    HW114274   8.367  10.479  10.911 -0.1314  0.5515 -0.5414
36318SOL    HW214275   8.245  10.494  11.000  0.1474 -0.7142  0.0797
36319SOL     OW14276   3.335   8.475   1.546  0.6916  0.3913  0.4051
36319SOL    HW114277   3.300   8.561   1.571  1.0271  0.9675 -1.0517
36319SOL    HW214278   3.259   8.427   1.514  1.0617  1.4881 -2.3373
36320SOL     OW14279  10.894   4.840   9.744  0.3249  1.0973 -0.1996
36320SOL    HW114280  10.861   4.923   9.709  2.7432  1.4756 -1.8691
36320SOL    HW214281  10.974   4.863   9.790 -0.8747  0.0774  2.6120
36321SOL     OW14282   8.409   5.130   6.067 -0.3306 -0.1360  0.2352
36321SOL    HW114283   8.350   5.065   6.029 -0.2554 -0.7953  1.2094
36321SOL    HW214284   8.413   5.199   6.001 -3.5594  0.7912  0.8269
36322SOL     OW14285   6.755   5.489   9.005  0.3572 -0.0912 -0.3878
36322SOL    HW114286   6.736   5.560   9.065  1.5492 -0.2650  0.2245
36322SOL    HW214287   6.792   5.532   8.927  0.8738 -0.0124 -0.1040
36323SOL     OW14288   6.177   7.011   2.473 -0.3780  0.2384 -0.7110
36323SOL    HW114289   6.102   7.027   2.531  0.3178  0.2879  0.1994
36323SOL    HW214290   6.138   6.994   2.387 -1.5763 -1.9501  0.1831
36324SOL     OW14291   4.299   0.178  11.238 -0.0203 -0.3008  0.0780
36324SOL    HW114292   4.346   0.156  11.158 -0.3670  0.2311 -0.2765
36324SOL    HW214293   4.322   0.269  11.256 -0.0552 -0.3729  0.5090
36325SOL     OW14294   1.221   6.487   7.173  0.1918  0.2521 -0.7153
36325SOL    HW114295   1.150   6.432   7.206  1.1929 -0.3981  0.4353
36325SOL    HW214296   1.187   6.576   7.179 -1.0114 -0.1355 -1.4717
36326SOL     OW14297   8.497  10.850   7.434 -0.3177  0.1637  0.2423
36326SOL    HW114298   8.485  10.900   7.515  0.0373  3.4858 -1.5903
36326SOL    HW214299   8.505  10.759   7.464  0.4526  1.2535  3.9769
36327SOL     OW14300   2.269   9.159   8.409 -0.8156 -0.1059 -0.1449
36327SOL    HW114301   2.350   9.116   8.381 -1.7027 -0.9356 -1.5811
36327SOL    HW214302   2.279   9.250   8.381 -0.0864 -0.0277  0.3515
36328SOL     OW14303  11.099   1.695   8.572  0.1493  0.1653 -0.3051
36328SOL    HW114304  11.072   1.620   8.625 -0.3539 -0.9039 -2.0017
36328SOL    HW214305  11.156   1.746   8.630 -1.7442  0.0088  1.8128
36329SOL     OW14306   5.273  10.813   2.453 -0.0935 -0.3460 -0.1604
36329SOL    HW114307   5.324  10.799   2.373 -1.2420 -2.3501 -0.6211
36329SOL    HW214308   5.185  10.836   2.421  0.0858  1.5077  0.5914
36330SOL     OW14309   0.733   1.829  10.974 -0.1918  0.3866 -0.3933
36330SOL    HW114310   0.781   1.750  10.999 -0.5404  0.2379 -0.1821
36330SOL    HW214311   0.774   1.857  10.892  1.4202  1.2548  0.6538
36331SOL     OW14312   7.838   5.724   7.551  1.2000 -0.2139  0.1109
36331SOL    HW114313   7.894   5.701   7.625  1.9148 -0.6796 -0.5450
36331SOL    HW214314   7.804   5.810   7.572 -0.0787 -1.0932  1.8070
36332SOL     OW14315   2.019   4.311   5.270  0.0268  0.2309 -0.7133
36332SOL    HW114316   2.092   4.373   5.267  0.0568  0.1572 -1.8508
36332SOL    HW214317   2.054   4.231   5.230 -0.8210  0.3668 -1.7788
36333SOL     OW14318   0.153  10.590   9.521 -0.6680 -0.6536 -0.8908
36333SOL    HW114319   0.068  10.622   9.489 -0.0957  1.2938 -0.6036
36333SOL    HW214320   0.217  10.651   9.484  0.4076 -0.8417  0.5756
36334SOL     OW14321   2.651   9.041   1.654 -0.4393  0.4139 -0.5715
36334SOL    HW114322   2.655   9.030   1.749 -2.3601 -0.1407 -0.4995
36334SOL    HW214323   2.734   9.083   1.630 -0.1762  1.1072  1.4117
36335SOL     OW14324   6.140   8.439   6.478  0.0783 -0.5241 -0.3614
36335SOL    HW114325   6.118   8.413   6.567  0.5393  1.9529  0.5443
36335SOL    HW214326   6.187   8.364   6.442  1.0816 -1.0819  1.9510
36336SOL     OW14327   3.751   9.468   8.333  0.0463  0.3337 -0.4823
36336SOL    HW114328   3.737   9.470   8.428  1.2034  0.8886 -0.2987
36336SOL    HW214329   3.683   9.526   8.298 -0.3285  0.2084  0.0138
36337SOL     OW14330   7.313   6.578   9.267 -0.0902 -0.0012  0.3913
36337SOL    HW114331   7.373   6.637   9.312  2.1077 -1.9486  0.1660
36337SOL    HW214332   7.269   6.530   9.337 -1.0901  1.0602  0.5362
36338SOL     OW14333   2.721  10.118   2.540 -0.2293  0.2439  0.8047
36338SOL    HW114334   2.737  10.120   2.445 -1.4495 -1.0514  0.5438
36338SOL    HW214335   2.807  10.098   2.578  0.3649  1.2043  0.0138
36339SOL     OW14336  10.218   4.716   5.958 -0.3557 -0.2856  0.1311
36339SOL    HW114337  10.309   4.734   5.981 -0.2073  0.8782 -1.2527
36339SOL    HW214338  10.174   4.801   5.962 -0.8503 -0.4329 -1.4131
36340SOL     OW14339   2.292   8.165   4.071  0.2211 -0.1651  0.3850
36340SOL    HW114340   2.292   8.248   4.120 -1.5318 -0.0794  0.2844
36340SOL    HW214341   2.320   8.190   3.983  1.3051  0.0281  0.7660
36341SOL     OW14342   1.412   5.578   0.202 -0.1902  0.0360 -0.4288
36341SOL    HW114343   1.433   5.627   0.123 -2.7755  1.5211 -0.3184
36341SOL    HW214344   1.341   5.519   0.176  0.3682 -1.0064  0.3259
36342SOL     OW14345  10.388   5.740   2.798  0.4927 -0.1874 -0.2398
36342SOL    HW114346  10.365   5.771   2.711  1.2069  3.6726  0.7635
36342SOL    HW214347  10.479   5.713   2.791  1.1395  1.8593 -0.3970
36343SOL     OW14348   0.471   6.336   8.252 -0.1223  0.0643  0.1114
36343SOL    HW114349   0.438   6.311   8.338 -0.9363  0.7540  0.0101
36343SOL    HW214350   0.408   6.400   8.219  1.0189  1.0138 -0.3255
36344SOL     OW14351  11.176  10.439   7.323  0.5848 -0.2434  0.4516
36344SOL    HW114352  11.147  10.365   7.270  0.8946  0.3106 -0.5104
36344SOL    HW214353  11.104  10.454   7.385  0.5953 -1.4492  0.7851
36345SOL     OW14354   1.695   9.123  11.595  0.1315 -0.2430 -0.0911
36345SOL    HW114355   1.756   9.197  11.594 -1.4544  1.1422 -1.3870
36345SOL    HW214356   1.740   9.054  11.546  1.8816 -0.4068  1.6330
36346SOL     OW14357   8.070  10.758   3.343  0.1370 -0.0771 -1.0046
36346SOL    HW114358   8.040  10.679   3.390  0.5556  0.8338  0.8730
36346SOL    HW214359   8.039  10.831   3.396  1.9724  0.9871 -1.3133
36347SOL     OW14360   8.241   3.362   1.427  0.1492  0.1544  0.5856
36347SOL    HW114361   8.316   3.390   1.375  0.0525 -1.3972 -0.4860
36347SOL    HW214362   8.168   3.414   1.394  0.5416  0.8905  0.8661
36348SOL     OW14363   7.018   9.827  11.755  0.3439 -0.1545  0.0541
36348SOL    HW114364   7.027   9.824  11.850 -0.1621  1.1398  0.1505
36348SOL    HW214365   6.998   9.918  11.735 -2.5490 -0.9135 -1.0290
36349SOL     OW14366   1.551   6.460   5.294  0.7806  0.5134 -0.1536
36349SOL    HW114367   1.589   6.372   5.288  0.1687  0.0762  1.8289
36349SOL    HW214368   1.583   6.494   5.378 -3.5318 -0.1111  2.0065
36350SOL     OW14369   6.747   3.771  11.750  0.0835  0.9774 -0.4606
36350SOL    HW114370   6.755   3.702  11.684  1.1900 -0.9791  1.5919
36350SOL    HW214371   6.830   3.819  11.744  1.0292 -0.4365  0.7555
36351SOL     OW14372  10.090  11.824   2.986 -0.7724 -0.4876 -0.1642
36351SOL    HW114373  10.134  11.741   2.968 -0.6370 -0.5876  0.5891
36351SOL    HW214374  10.030  11.836   2.913  2.8932  1.3806 -3.2618
36352SOL     OW14375   5.258   5.465   6.346 -0.5064 -0.3427  0.1035
36352SOL    HW114376   5.190   5.398   6.352 -0.1505 -0.6035  1.7973
36352SOL    HW214377   5.314   5.437   6.274 -0.8583 -1.4065  0.2343
36353SOL     OW14378   6.755   5.488   7.053  0.2600  0.2118  0.2787
36353SOL    HW114379   6.734   5.409   7.003 -1.7171  2.0375 -2.0481
36353SOL    HW214380   6.678   5.503   7.108  0.3407  0.8441  0.2281
36354SOL     OW14381   1.555   0.386  10.128 -0.0353 -0.3482  0.0715
36354SOL    HW114382   1.479   0.438  10.153 -0.2869  0.1529 -1.6196
36354SOL    HW214383   1.525   0.295  10.135 -0.3792 -0.1963  0.6361
36355SOL     OW14384   8.591  10.498   9.096 -0.0149 -0.5344 -0.3096
36355SOL    HW114385   8.637  10.572   9.056 -1.9321  0.6419 -0.4523
36355SOL    HW214386   8.629  10.492   9.184  0.2979  0.5037 -0.3532
36356SOL     OW14387   9.655   3.538   7.269 -0.1629  0.3349 -0.0740
36356SOL    HW114388   9.572   3.540   7.222 -1.3288 -1.2630  1.7877
36356SOL    HW214389   9.703   3.464   7.231 -0.4550  0.0004  0.2052
36357SOL     OW14390   6.671   4.055   6.225 -0.1041 -0.4960  0.0689
36357SOL    HW114391   6.727   4.103   6.163 -0.6800 -0.6976 -0.6310
36357SOL    HW214392   6.710   3.968   6.231 -1.3699 -1.2862 -1.9372
36358SOL     OW14393   2.729   9.272   7.404 -0.2150  0.4239  0.1510
36358SOL    HW114394   2.720   9.177   7.393 -2.1460  0.6665 -0.6416
36358SOL    HW214395   2.822   9.289   7.388 -0.0297 -1.2007 -0.7136
36359SOL     OW14396   7.146   8.173  11.581  0.1523  0.1434  0.3639
36359SOL    HW114397   7.142   8.151  11.488 -0.2703  2.7634 -0.3210
36359SOL    HW214398   7.201   8.252  11.585  0.2078  0.0492  2.3411
36360SOL     OW14399   2.906   7.546  10.792  0.0497 -0.6206  0.0317
36360SOL    HW114400   2.879   7.631  10.758  0.7367 -1.1912 -2.1079
36360SOL    HW214401   2.827   7.492  10.786 -0.3770 -0.1988  1.3577
36361SOL     OW14402   9.864   8.099   0.359 -0.4720  0.1193 -0.4704
36361SOL    HW114403   9.830   8.180   0.321 -1.0924  0.2382  0.3135
36361SOL    HW214404   9.959   8.105   0.347 -0.6496 -0.0196 -2.3070
36362SOL     OW14405   7.332  11.046   9.796 -0.2123 -0.3071  0.0446
36362SOL    HW114406   7.322  11.086   9.710 -0.1630 -0.5632 -0.0814
36362SOL    HW214407   7.425  11.058   9.817 -0.6027  1.5042  0.9357
36363SOL     OW14408  11.806   4.976   4.997  0.4048  0.0114 -0.1255
36363SOL    HW114409  11.767   4.889   4.983 -0.2963  0.3657 -0.4079
36363SOL    HW214410  11.892   4.970   4.955 -0.6583  0.2495 -2.5518
36364SOL     OW14411  10.614   7.472   8.373 -0.0234 -0.2056 -0.3316
36364SOL    HW114412  10.704   7.478   8.406 -0.1079 -0.7433  0.0023
36364SOL    HW214413  10.614   7.396   8.316 -0.2000 -0.0346 -0.5614
36365SOL     OW14414   3.072   6.750   5.155 -0.2076  0.4222 -0.4636
36365SOL    HW114415   2.997   6.694   5.171 -1.3455  1.8054 -0.7762
36365SOL    HW214416   3.148   6.694   5.174 -1.3120 -0.3379  2.1879
36366SOL     OW14417   5.892   2.805   1.383  0.6026  0.2715  0.4899
36366SOL    HW114418   5.963   2.818   1.447  0.2039 -0.8945  1.1827
36366SOL    HW214419   5.892   2.711   1.366  0.4959  0.5226 -1.0135
36367SOL     OW14420   8.489   3.141  11.500 -0.1533  0.7686 -0.0255
36367SOL    HW114421   8.419   3.158  11.437 -0.8279 -0.0340  0.4745
36367SOL    HW214422   8.448   3.155  11.586 -0.1690 -1.1304  0.3318
36368SOL     OW14423   9.634   4.932   7.027 -0.0576 -0.1827  0.1005
36368SOL    HW114424   9.647   4.940   6.933  1.6335 -0.6778  0.2503
36368SOL    HW214425   9.684   5.005   7.065 -0.0248 -0.4811  0.6469
36369SOL     OW14426   0.076   7.506   4.323  0.5285 -0.0245 -0.0189
36369SOL    HW114427   0.072   7.467   4.235 -2.6962 -0.0540  0.0183
36369SOL    HW214428  -0.010   7.487   4.361  1.4416  0.9523  2.7610
36370SOL     OW14429   7.009   3.678   2.472  0.0596  0.6618  0.1570
36370SOL    HW114430   7.068   3.618   2.518  0.2594  0.6102 -0.1628
36370SOL    HW214431   7.060   3.708   2.397 -0.3667  0.5381 -0.1804
36371SOL     OW14432   1.538   1.434   5.151 -0.1477  0.2956  0.0759
36371SOL    HW114433   1.581   1.461   5.232  1.8010  0.7305 -1.0176
36371SOL    HW214434   1.470   1.501   5.137 -0.5327  0.1965  1.3302
36372SOL     OW14435  11.083  11.726  10.796 -0.5974 -0.1537 -0.6231
36372SOL    HW114436  10.989  11.705  10.795 -0.4118 -1.1974  0.8276
36372SOL    HW214437  11.126  11.641  10.787  0.2053  0.1623  0.1502
36373SOL     OW14438   8.131   6.422   0.022 -0.4411  0.2919 -0.4489
36373SOL    HW114439   8.054   6.465  -0.015 -0.9596 -1.0261 -0.9411
36373SOL    HW214440   8.116   6.329   0.008  1.1321 -0.0058 -0.3255
36374SOL     OW14441   7.894   4.277   5.108 -0.0051 -0.2074 -0.4812
36374SOL    HW114442   7.953   4.347   5.081 -0.5589 -0.5379 -2.6591
36374SOL    HW214443   7.863   4.238   5.027 -1.3000 -1.6706  0.6519
36375SOL     OW14444   3.195  11.818   6.371 -0.0375  0.2459 -0.3765
36375SOL    HW114445   3.235  11.866   6.444 -2.1258  2.0940 -0.3390
36375SOL    HW214446   3.119  11.775   6.410 -1.4034  1.5728 -1.4876
36376SOL     OW14447  10.948  10.662   3.646 -0.0173 -0.4104 -0.1327
36376SOL    HW114448  10.865  10.621   3.672  0.1347 -1.5210 -1.2774
36376SOL    HW214449  11.001  10.660   3.725 -0.4903 -1.2706  0.1829
36377SOL     OW14450   9.711   9.054   8.010  0.3161 -0.4224 -0.0146
36377SOL    HW114451   9.663   9.126   8.052 -2.0381 -1.0065 -1.4944
36377SOL    HW214452   9.746   9.003   8.082 -0.6651  0.4803  1.1492
36378SOL     OW14453   7.585   8.395   6.513 -0.5096 -0.1364 -0.2179
36378SOL    HW114454   7.633   8.312   6.518  1.1433  0.7323 -0.9775
36378SOL    HW214455   7.588   8.430   6.602 -1.6223 -1.0725  0.2178
36379SOL     OW14456   3.773   2.146  10.936 -0.1736 -0.0408  0.0609
36379SOL    HW114457   3.787   2.178  10.846  2.1263 -1.5020 -0.2033
36379SOL    HW214458   3.858   2.160  10.979 -0.2948 -2.0855  1.0766
36380SOL     OW14459   3.853   8.877   2.819 -0.2346  0.1809 -0.4299
36380SOL    HW114460   3.806   8.868   2.902  0.7198 -2.0456 -0.0381
36380SOL    HW214461   3.787   8.907   2.757 -1.2292  0.8363  0.8958
36381SOL     OW14462   0.919   4.418  11.278 -0.5043  0.6132  0.0795
36381SOL    HW114463   0.993   4.388  11.331 -0.2392 -1.2005 -1.2263
36381SOL    HW214464   0.849   4.356  11.297 -0.2783 -0.3450 -1.9077
36382SOL     OW14465   7.874   7.471   5.509  0.8041  0.6906  0.8855
36382SOL    HW114466   7.884   7.390   5.559  0.7059  0.3498  0.3617
36382SOL    HW214467   7.781   7.476   5.488  0.7171  1.2118  1.3552
36383SOL     OW14468   2.943   6.609   3.316 -0.0628  0.1420  0.5394
36383SOL    HW114469   2.907   6.582   3.231 -2.9750  2.3199  0.9221
36383SOL    HW214470   2.898   6.554   3.380  0.7503 -0.2266  0.8046
36384SOL     OW14471  11.598   5.674   3.299  0.3518 -0.5074  0.2885
36384SOL    HW114472  11.689   5.670   3.270  0.5980  0.3475  0.9011
36384SOL    HW214473  11.593   5.753   3.354 -0.8490 -0.3120 -0.0596
36385SOL     OW14474   2.655   3.421   4.694  0.2048 -0.4422  0.0801
36385SOL    HW114475   2.585   3.470   4.650  2.0308 -0.5854 -3.4010
36385SOL    HW214476   2.681   3.477   4.767 -1.8597  0.7717 -0.0407
36386SOL     OW14477   2.437  10.997  10.528 -0.3448 -0.4990  0.6748
36386SOL    HW114478   2.402  10.927  10.474 -0.9385 -0.2549  0.7404
36386SOL    HW214479   2.361  11.051  10.551  0.3073  1.0999 -0.7159
36387SOL     OW14480   9.970   9.214   1.811  0.1349 -0.0422  0.2627
36387SOL    HW114481   9.977   9.251   1.899  3.1733  1.6870 -0.5192
36387SOL    HW214482   9.921   9.280   1.762  2.2486  1.3026 -0.2305
36388SOL     OW14483   0.651   1.971   1.253  1.1049 -0.3769 -0.5235
36388SOL    HW114484   0.674   1.955   1.345 -0.1277  0.7280  0.0161
36388SOL    HW214485   0.717   1.924   1.203  1.9930 -0.7399  0.9299
36389SOL     OW14486  10.870   9.662   0.647 -0.2454  0.2328  0.1020
36389SOL    HW114487  10.783   9.621   0.645 -0.3101  0.3651  0.1937
36389SOL    HW214488  10.921   9.612   0.584 -0.3261  0.0115  0.2076
36390SOL     OW14489  11.169   2.431   6.692 -0.0264 -0.0893 -0.0586
36390SOL    HW114490  11.207   2.353   6.732  0.4110  0.3136  0.3307
36390SOL    HW214491  11.223   2.503   6.724  1.8511  0.0682 -3.2176
36391SOL     OW14492   6.668   5.712  11.097  0.6273  0.2773  0.0857
36391SOL    HW114493   6.746   5.717  11.151  0.7480  1.6178 -0.1925
36391SOL    HW214494   6.632   5.801  11.096 -0.5148 -0.1580 -0.3560
36392SOL     OW14495   4.692   5.315   7.047  0.2349 -0.5660  0.5325
36392SOL    HW114496   4.662   5.296   6.959  0.1511  0.0823  0.4118
36392SOL    HW214497   4.735   5.401   7.040 -0.7935  0.0478  1.3317
36393SOL     OW14498   7.226   6.900   1.207 -0.2259 -0.1795 -0.8567
36393SOL    HW114499   7.134   6.879   1.224 -0.1405 -0.3703 -0.6315
36393SOL    HW214500   7.223   6.977   1.151 -0.5203 -0.0252 -0.6297
36394SOL     OW14501   7.664   8.093   9.665  0.4034  0.2451  0.5313
36394SOL    HW114502   7.580   8.077   9.709  0.4006  1.5549  1.0505
36394SOL    HW214503   7.718   8.137   9.731  1.5080 -0.5521  0.1951
36395SOL     OW14504   6.574   7.127  10.575 -0.3296 -0.3278  0.2916
36395SOL    HW114505   6.614   7.132  10.662 -1.1051 -1.7909  0.7641
36395SOL    HW214506   6.640   7.084  10.521 -0.6059 -1.2513  0.6688
36396SOL     OW14507   2.453   0.882   4.757  0.3485 -0.2948  0.0993
36396SOL    HW114508   2.390   0.879   4.829 -0.8291 -2.2597 -0.9480
36396SOL    HW214509   2.467   0.791   4.733 -0.1495  0.3150 -2.8650
36397SOL     OW14510   3.859   1.878   9.036  0.7320 -0.0253  0.0282
36397SOL    HW114511   3.769   1.910   9.032  0.7179  0.4326  2.2120
36397SOL    HW214512   3.887   1.872   8.945 -1.0950  0.9941 -0.6581
36398SOL     OW14513   0.054   3.395   4.506  0.3335 -0.1349  0.5502
36398SOL    HW114514   0.026   3.333   4.573  0.3628  0.9993  1.6274
36398SOL    HW214515  -0.027   3.423   4.464  0.0224  1.2931  2.0311
36399SOL     OW14516   0.319   5.929   3.169 -0.3721  0.1180  0.1659
36399SOL    HW114517   0.278   5.843   3.155 -0.5629  0.4592 -1.7287
36399SOL    HW214518   0.253   5.981   3.214 -0.5962 -0.4641  0.5188
36400SOL     OW14519   2.884   7.130   9.370  0.3126  0.1413 -0.2159
36400SOL    HW114520   2.927   7.191   9.429  1.5642 -0.6622 -0.2612
36400SOL    HW214521   2.827   7.185   9.316  0.9146  1.1741  0.1742
36401SOL     OW14522   0.689   8.562  10.641 -0.1014 -0.2614 -0.1461
36401SOL    HW114523   0.603   8.580  10.602  1.4693  1.9506 -2.9603
36401SOL    HW214524   0.730   8.501  10.580  1.0979  0.3714  0.0070
36402SOL     OW14525   9.008   1.670   5.485 -0.1983 -0.2254  0.0791
36402SOL    HW114526   9.029   1.672   5.578 -0.1947 -1.2165  0.1152
36402SOL    HW214527   9.012   1.577   5.462 -1.2365 -0.1031 -0.6682
36403SOL     OW14528   9.725   1.639   8.931 -0.2163  0.3152  0.1859
36403SOL    HW114529   9.800   1.619   8.987  0.3748  0.0946 -0.6565
36403SOL    HW214530   9.661   1.571   8.951  0.4454 -0.4440 -0.2222
36404SOL     OW14531   5.583   6.756   7.692  0.5633 -0.0613  1.0408
36404SOL    HW114532   5.535   6.838   7.701  0.6653  0.0747  0.4083
36404SOL    HW214533   5.525   6.700   7.640  0.7356 -0.1871  0.9827
36405SOL     OW14534   1.624   3.904   8.193 -0.5039  0.0280 -0.3522
36405SOL    HW114535   1.547   3.960   8.204  0.0511  0.4924  1.4754
36405SOL    HW214536   1.619   3.841   8.264  0.9563  0.2660  0.0002
36406SOL     OW14537   0.937   9.799  11.419  0.3615  0.7481 -0.2862
36406SOL    HW114538   1.008   9.801  11.354  0.8366 -1.3130  0.1030
36406SOL    HW214539   0.878   9.869  11.392  1.9445  1.7421 -1.3116
36407SOL     OW14540   1.566   7.702   2.327  0.3412 -0.0907  0.2154
36407SOL    HW114541   1.562   7.700   2.231 -0.2530 -0.9204  0.2450
36407SOL    HW214542   1.656   7.677   2.348  0.5673  0.4170 -0.1260
36408SOL     OW14543   3.310   0.613   9.847  0.1849  0.4193 -0.4662
36408SOL    HW114544   3.302   0.591   9.754  2.6198  1.4112 -0.9972
36408SOL    HW214545   3.395   0.658   9.853  0.0685  0.4034  2.2374
36409SOL     OW14546   3.681   3.453   5.746  0.1426 -0.1227  0.0425
36409SOL    HW114547   3.710   3.380   5.800 -1.0619 -0.5174  0.1759
36409SOL    HW214548   3.761   3.503   5.728  0.8395 -0.9997  0.6509
36410SOL     OW14549   3.944   0.722  10.208 -0.0299  0.0114 -0.4611
36410SOL    HW114550   3.876   0.687  10.152 -0.0803  2.3145 -1.9814
36410SOL    HW214551   4.021   0.730  10.151  1.3608 -1.7782  1.0068
36411SOL     OW14552   0.908   8.584  10.846  0.7323  0.3414 -0.4857
36411SOL    HW114553   0.847   8.570  10.773  1.7736 -1.3645 -1.0810
36411SOL    HW214554   0.974   8.643  10.811  1.1446 -0.3499 -0.8968
36412SOL     OW14555   5.811   9.935  11.221  0.3772 -0.1317 -0.0858
36412SOL    HW114556   5.747   9.919  11.151  0.5846  0.3072 -0.3863
36412SOL    HW214557   5.798   9.863  11.282  0.0966 -0.4537 -0.5112
36413SOL     OW14558   2.376   9.489   7.491  0.7998 -0.0037 -0.0155
36413SOL    HW114559   2.284   9.508   7.509  0.6417 -1.4674  0.9001
36413SOL    HW214560   2.401   9.427   7.559  2.1166 -0.6065 -1.0160
36414SOL     OW14561   0.162   2.261   3.844 -0.0332 -0.2144  0.0981
36414SOL    HW114562   0.086   2.205   3.862  0.6239 -1.2718 -0.3297
36414SOL    HW214563   0.184   2.300   3.928 -0.4326 -0.7029  0.4334
36415SOL     OW14564   2.795   3.871   3.807  0.0442  0.3538  0.1263
36415SOL    HW114565   2.783   3.823   3.889 -0.8241  1.9803  0.9889
36415SOL    HW214566   2.706   3.891   3.777  0.3696  1.4832 -0.1486
36416SOL     OW14567   2.942   4.622  11.078 -0.1356  0.6381 -0.2954
36416SOL    HW114568   2.986   4.657  11.001  0.7268 -1.1683 -0.6771
36416SOL    HW214569   3.013   4.588  11.133 -0.9324 -1.5859 -0.5391
36417SOL     OW14570  11.694   3.689   5.202  1.0039 -0.3259  0.7064
36417SOL    HW114571  11.734   3.606   5.173 -0.6302 -0.8488 -0.2006
36417SOL    HW214572  11.606   3.686   5.165  0.9229  1.8559  0.6217
36418SOL     OW14573  11.310   6.275  10.921  0.4639 -0.1691  0.1308
36418SOL    HW114574  11.280   6.253  11.010  0.4543  0.4533  0.2887
36418SOL    HW214575  11.243   6.335  10.888 -0.0927 -1.2137 -0.7043
36419SOL     OW14576   0.621   8.210   1.633  0.6257  0.0443 -0.3239
36419SOL    HW114577   0.541   8.262   1.639 -1.8876 -3.5053  0.5385
36419SOL    HW214578   0.629   8.189   1.540 -0.6686 -1.1382 -0.2058
36420SOL     OW14579   6.841   3.993  10.929 -0.0722  0.4564 -0.0867
36420SOL    HW114580   6.930   3.963  10.914  0.5065  0.2773  3.0855
36420SOL    HW214581   6.786   3.924  10.890  1.1338 -0.0889 -0.9029
36421SOL     OW14582   8.281  10.088   6.354 -0.0371 -0.4357  0.5233
36421SOL    HW114583   8.366  10.097   6.312  0.4185 -0.3042  1.4574
36421SOL    HW214584   8.235  10.023   6.301  0.3320  0.0691 -0.4629
36422SOL     OW14585   7.593   6.583   8.009  0.1589 -0.0238  0.0011
36422SOL    HW114586   7.629   6.524   7.944 -0.4813 -2.3327  1.6195
36422SOL    HW214587   7.498   6.579   7.995  0.0364 -0.2917  0.8250
36423SOL     OW14588   0.511  11.391   8.369  0.3811  0.2847  0.8884
36423SOL    HW114589   0.560  11.473   8.376  0.6389  0.4507 -1.8052
36423SOL    HW214590   0.500  11.377   8.274 -0.0065 -2.5796  1.2532
36424SOL     OW14591   2.822  11.591  10.426 -0.3807  0.2015  0.1150
36424SOL    HW114592   2.811  11.655  10.496 -1.1244 -0.4915  0.6322
36424SOL    HW214593   2.913  11.604  10.397  0.5272 -0.6439  2.3368
36425SOL     OW14594   5.156   5.746   3.147  0.0277 -0.3394 -0.9433
36425SOL    HW114595   5.090   5.813   3.127 -0.6411 -0.7534 -0.2022
36425SOL    HW214596   5.127   5.669   3.097  0.1619 -0.4073 -0.9152
36426SOL     OW14597   3.051  11.418   8.873 -0.1310 -0.3835  0.4894
36426SOL    HW114598   2.970  11.406   8.923 -2.6083 -1.7944 -3.3738
36426SOL    HW214599   3.079  11.329   8.851  1.2062  0.1505 -0.0777
36427SOL     OW14600  10.464   9.971   8.604 -0.3528 -0.1120  0.1712
36427SOL    HW114601  10.418   9.971   8.520 -0.2588  0.8886  0.1088
36427SOL    HW214602  10.401   9.932   8.666 -1.2697  1.1275  0.0624
36428SOL     OW14603   4.228   8.163   7.685  0.5374 -0.3844 -0.6117
36428SOL    HW114604   4.256   8.244   7.727  0.9218 -0.0818 -1.4329
36428SOL    HW214605   4.303   8.105   7.693  0.3549 -0.5764 -0.2550
36429SOL     OW14606   6.130   1.810  10.582 -0.5822 -1.2440 -1.0052
36429SOL    HW114607   6.045   1.832  10.544 -0.2654 -0.1706 -1.1296
36429SOL    HW214608   6.125   1.842  10.672  0.2716  0.3859 -1.5052
36430SOL     OW14609   0.044   1.887   8.786 -0.3881 -0.1734  0.2532
36430SOL    HW114610   0.038   1.873   8.691 -0.7896 -0.5998  0.3350
36430SOL    HW214611   0.115   1.950   8.797  0.2779 -0.8179 -0.2684
36431SOL     OW14612   5.076   4.493   2.467 -0.5017  0.5333 -0.3427
36431SOL    HW114613   5.047   4.458   2.551  0.0646 -1.9799 -1.1206
36431SOL    HW214614   5.012   4.562   2.447 -0.9195  0.8670  1.8883
36432SOL     OW14615   9.106  11.160   1.562 -0.0994 -0.2519  0.3518
36432SOL    HW114616   9.146  11.222   1.623  0.7146  0.0109 -0.4480
36432SOL    HW214617   9.044  11.111   1.617 -0.8150  1.2801  0.9928
36433SOL     OW14618   7.418   4.331   2.128 -0.5307  0.7134  0.5285
36433SOL    HW114619   7.376   4.246   2.120  2.5086 -0.8146 -0.8673
36433SOL    HW214620   7.454   4.333   2.216 -1.0449  0.8132  0.7410
36434SOL     OW14621   6.017  11.378   3.339 -0.5548  0.1053  0.0280
36434SOL    HW114622   5.925  11.351   3.344 -0.2459 -0.6550  3.5121
36434SOL    HW214623   6.043  11.397   3.429  3.1035 -1.0211 -0.5997
36435SOL     OW14624   3.942   1.114   8.916 -0.0447  0.2474  0.1242
36435SOL    HW114625   3.886   1.051   8.871  0.9774 -0.3486 -0.3439
36435SOL    HW214626   4.030   1.097   8.882  0.1503  2.4571 -0.6067
36436SOL     OW14627   5.238   7.672   6.914  0.3456 -0.5403  0.6928
36436SOL    HW114628   5.276   7.614   6.847  0.3111  1.9020 -1.6217
36436SOL    HW214629   5.309   7.688   6.976  0.9464 -1.4564  0.2635
36437SOL     OW14630   1.943   5.332   5.285 -0.4976 -0.2359 -0.6013
36437SOL    HW114631   1.990   5.398   5.233 -0.9569 -0.1401 -0.9008
36437SOL    HW214632   1.938   5.370   5.373  0.3440 -0.4289 -0.4672
36438SOL     OW14633   5.289   5.412  10.184  0.6924 -0.0844 -0.2575
36438SOL    HW114634   5.294   5.338  10.244 -1.9162 -0.7010 -0.6731
36438SOL    HW214635   5.197   5.414  10.156  1.0496  2.3222 -1.5235
36439SOL     OW14636   2.582   5.262   4.502  0.4607 -0.0560  0.0847
36439SOL    HW114637   2.642   5.200   4.461 -1.1667 -0.6697 -1.5465
36439SOL    HW214638   2.638   5.319   4.555  2.0965 -2.5049  1.1896
36440SOL     OW14639   1.509  10.493   3.990  0.1860  0.7718  0.0979
36440SOL    HW114640   1.417  10.468   3.996  0.6737 -1.1109  0.4019
36440SOL    HW214641   1.535  10.509   4.081  0.5322 -0.2450  0.1902
36441SOL     OW14642   2.502   8.644  10.194 -0.3873 -0.5542 -0.1212
36441SOL    HW114643   2.532   8.556  10.175  0.6562 -0.6969  1.9060
36441SOL    HW214644   2.427   8.633  10.253  0.0658 -0.0970  0.5571
36442SOL     OW14645   4.607   7.375   0.697  0.3390 -0.7798 -0.0869
36442SOL    HW114646   4.668   7.301   0.704  1.0473 -0.4248 -1.7879
36442SOL    HW214647   4.579   7.373   0.605 -1.6955 -0.4959  0.4905
36443SOL     OW14648   8.241   5.327   2.812 -0.4070 -0.3666 -0.2749
36443SOL    HW114649   8.285   5.244   2.793  0.6844  0.4197 -1.4129
36443SOL    HW214650   8.283   5.389   2.753 -0.9790  1.0661  0.7837
36444SOL     OW14651   5.731   0.596   1.070 -0.1948 -0.3624 -0.1447
36444SOL    HW114652   5.756   0.681   1.034  1.8267 -0.7233  0.2968
36444SOL    HW214653   5.761   0.533   1.004 -0.3198 -0.8146  0.2315
36445SOL     OW14654  10.032   8.920   3.066  0.0590 -0.3346  0.1472
36445SOL    HW114655  10.022   8.824   3.066  0.3211 -0.3677  1.2229
36445SOL    HW214656  10.087   8.938   3.142 -0.9976  0.7864  0.6657
36446SOL     OW14657   8.459   2.388   8.749  0.2320 -0.6433 -0.3614
36446SOL    HW114658   8.413   2.444   8.687 -0.7124 -2.5549 -1.4919
36446SOL    HW214659   8.547   2.425   8.755 -0.4915  1.1990 -0.6616
36447SOL     OW14660   1.250  10.516   4.098 -0.0203 -0.1673  0.2874
36447SOL    HW114661   1.189  10.443   4.093  0.0100 -0.1624 -0.2046
36447SOL    HW214662   1.242  10.548   4.187  1.1016 -1.7530  1.0054
36448SOL     OW14663   8.395  11.575  10.027  0.2199  0.9019 -0.2798
36448SOL    HW114664   8.316  11.578   9.973 -0.2172  1.7190  0.3717
36448SOL    HW214665   8.425  11.666  10.031  0.7392  0.7190  0.1209
36449SOL     OW14666  10.894   3.223  10.751  0.0072  0.1705  0.0418
36449SOL    HW114667  10.890   3.305  10.702 -0.7197  1.1265  1.6344
36449SOL    HW214668  10.813   3.176  10.726 -0.7310  0.9808  0.8586
36450SOL     OW14669   0.188   3.414  10.192 -0.6420 -0.2157 -0.3718
36450SOL    HW114670   0.128   3.489  10.197  1.3816  1.4121  1.4587
36450SOL    HW214671   0.170   3.363  10.271  0.9232  0.8247  0.7284
36451SOL     OW14672   0.582   8.586   9.547 -0.6048  0.2618  0.4747
36451SOL    HW114673   0.643   8.517   9.519  0.2023  1.6795 -1.4430
36451SOL    HW214674   0.591   8.589   9.642 -0.4041 -2.0151  0.5805
36452SOL     OW14675   7.298   2.961   1.596 -0.0538  0.3995  0.0048
36452SOL    HW114676   7.353   2.947   1.519 -0.3178  0.6951 -0.2404
36452SOL    HW214677   7.209   2.944   1.565  0.0505 -2.1269  0.9001
36453SOL     OW14678   3.852   7.474   8.752 -0.0652  0.0748  0.1166
36453SOL    HW114679   3.881   7.412   8.819  0.4891  1.6426  1.3964
36453SOL    HW214680   3.846   7.421   8.672  0.9926 -1.4826  0.9974
36454SOL     OW14681   0.625   3.581   8.784 -0.2195 -0.1728 -0.2552
36454SOL    HW114682   0.636   3.510   8.848 -0.7218 -1.2315 -1.2960
36454SOL    HW214683   0.555   3.550   8.726  0.4949  0.5457 -1.5550
36455SOL     OW14684   5.843   4.917   0.694 -0.5299 -0.0498 -0.2683
36455SOL    HW114685   5.831   4.989   0.756 -1.1253 -0.2102 -0.1945
36455SOL    HW214686   5.831   4.958   0.608 -0.1666  0.0767 -0.2630
36456SOL     OW14687   6.705   7.108   2.521  0.3294 -0.4025  0.6502
36456SOL    HW114688   6.626   7.086   2.471  1.1783  0.4667 -1.1829
36456SOL    HW214689   6.775   7.110   2.456  1.2008  2.5188  1.5040
36457SOL     OW14690   9.832   5.106   8.159  0.6929 -0.3444  0.4535
36457SOL    HW114691   9.747   5.070   8.132  1.3987 -0.7898 -1.3389
36457SOL    HW214692   9.816   5.200   8.168 -0.4963 -0.6895  2.3793
36458SOL     OW14693  10.146  10.615  10.937 -0.2715  0.1098  0.0427
36458SOL    HW114694  10.170  10.523  10.948  0.7145  0.1907 -1.2829
36458SOL    HW214695  10.229  10.659  10.918 -0.6237  1.4082  1.3325
36459SOL     OW14696   5.670   3.403   4.380  0.0095 -0.0294 -0.0857
36459SOL    HW114697   5.735   3.455   4.332 -0.0747  1.8700  1.7349
36459SOL    HW214698   5.690   3.313   4.356 -0.1338  0.7496 -3.7878
36460SOL     OW14699   0.738   0.087   1.873  0.8996 -0.5731 -0.1629
36460SOL    HW114700   0.676   0.018   1.850  1.3741 -0.9387 -0.3490
36460SOL    HW214701   0.816   0.068   1.821  0.2957  1.3413 -1.9237
36461SOL     OW14702  11.234  10.562   3.991  0.7296 -0.4834 -0.2491
36461SOL    HW114703  11.298  10.611   4.042  1.5926  1.1168 -2.7129
36461SOL    HW214704  11.286  10.517   3.925 -0.6085  0.9153 -2.3619
36462SOL     OW14705   4.463   3.967   0.665 -0.2252  0.3765  0.2258
36462SOL    HW114706   4.483   3.875   0.682  0.3488  0.4780  0.1222
36462SOL    HW214707   4.379   3.982   0.709 -0.3179 -0.1937  0.2473
36463SOL     OW14708   6.339   5.190   2.509 -0.0397 -0.2542 -0.0005
36463SOL    HW114709   6.301   5.267   2.465 -0.2672 -0.7521 -0.6857
36463SOL    HW214710   6.387   5.227   2.583 -0.7765  0.4963  0.1248
36464SOL     OW14711   1.730   6.186   9.741  0.0099  0.2694 -0.1466
36464SOL    HW114712   1.756   6.277   9.757 -0.7590  0.1935  1.8153
36464SOL    HW214713   1.812   6.140   9.723  0.4085  1.3359 -1.1339
36465SOL     OW14714  10.479  11.075   4.438 -0.3071 -0.4351 -0.0138
36465SOL    HW114715  10.543  11.136   4.402 -0.5908  0.2592  0.6289
36465SOL    HW214716  10.437  11.035   4.362 -0.8234  0.9142 -0.4536
36466SOL     OW14717   8.971   0.472   3.483 -0.1224 -0.1585 -0.2927
36466SOL    HW114718   8.975   0.567   3.487 -2.3472  0.0239 -0.8453
36466SOL    HW214719   8.911   0.447   3.553 -1.0733 -0.9513 -1.3281
36467SOL     OW14720   1.929  10.602   8.753  0.2095 -0.2210 -0.2595
36467SOL    HW114721   1.896  10.606   8.663 -1.6216 -1.5014  0.2916
36467SOL    HW214722   1.896  10.682   8.793  0.0526 -0.1899 -0.4443
36468SOL     OW14723   7.151   7.555   3.464 -0.3544 -0.0145 -0.6239
36468SOL    HW114724   7.069   7.515   3.494  0.2889 -1.4091 -0.6378
36468SOL    HW214725   7.152   7.642   3.505 -3.3916  1.4512 -3.2318
36469SOL     OW14726   7.840   7.449   7.212 -0.3645 -0.0936  0.4141
36469SOL    HW114727   7.800   7.512   7.272 -0.2486 -0.0908  0.4877
36469SOL    HW214728   7.833   7.365   7.256 -1.8541 -0.3786 -0.3159
36470SOL     OW14729   2.869   1.375   4.858 -0.2110  0.6553  0.2880
36470SOL    HW114730   2.909   1.355   4.773  0.2126  0.0876  0.6152
36470SOL    HW214731   2.942   1.377   4.919 -0.2819  2.7247  0.3863
36471SOL     OW14732   3.779   9.834   0.619 -0.0097  0.2947 -0.2047
36471SOL    HW114733   3.700   9.850   0.670 -0.0584  0.3571 -0.2995
36471SOL    HW214734   3.762   9.751   0.574  0.2751 -0.0722  0.3502
36472SOL     OW14735   0.640   9.225   5.337  0.1599  0.5822  0.3433
36472SOL    HW114736   0.713   9.225   5.274 -0.0757  0.2310  0.0698
36472SOL    HW214737   0.666   9.290   5.403  1.3658 -0.4879  0.9882
36473SOL     OW14738   3.080   3.610   2.479 -0.0487 -0.0484 -0.0362
36473SOL    HW114739   3.019   3.657   2.421 -1.3536 -0.9890  0.5137
36473SOL    HW214740   3.037   3.613   2.565  1.8623  1.3369  0.9365
36474SOL     OW14741   3.103   7.190   3.641  0.3127 -0.1961  0.3939
36474SOL    HW114742   3.014   7.154   3.648  0.0378  0.3790 -0.0674
36474SOL    HW214743   3.111   7.248   3.716  0.3199 -0.2930  0.4685
36475SOL     OW14744   1.133   6.133   2.698  0.2362  0.1412 -0.1982
36475SOL    HW114745   1.056   6.153   2.645 -1.4591 -3.3033  0.6897
36475SOL    HW214746   1.205   6.128   2.636 -0.9844 -0.2473 -1.6308
36476SOL     OW14747   2.148   0.541   2.089 -0.6107 -0.1383  0.5427
36476SOL    HW114748   2.052   0.535   2.082 -0.8869  2.4531  1.0496
36476SOL    HW214749   2.172   0.469   2.147 -2.2291 -0.9189  0.3141
36477SOL     OW14750   4.945   9.865  11.696  0.2622 -0.1734 -0.1222
36477SOL    HW114751   4.877   9.827  11.639  0.6150  0.3994 -0.9441
36477SOL    HW214752   4.932   9.959  11.687  0.4520 -0.0799  0.6032
36478SOL     OW14753   1.497   1.541  11.001  0.0731 -0.3275  0.2273
36478SOL    HW114754   1.461   1.517  11.087  0.4643  1.7665  1.0314
36478SOL    HW214755   1.419   1.562  10.949 -0.1631 -1.5558  0.0374
36479SOL     OW14756   5.176  11.655   2.133 -0.3362  0.6403  0.0515
36479SOL    HW114757   5.101  11.619   2.086  0.3982 -0.8880 -0.0035
36479SOL    HW214758   5.212  11.581   2.182  0.8270  1.4682  0.4982
36480SOL     OW14759  10.967   8.260   6.707  0.4154 -0.0623 -0.1449
36480SOL    HW114760  11.049   8.235   6.666  0.6311  0.4587 -0.0430
36480SOL    HW214761  10.978   8.235   6.799  0.6626  0.4681 -0.0265
36481SOL     OW14762   1.681   5.861   6.641  0.1806  0.3079 -0.1329
36481SOL    HW114763   1.650   5.868   6.551 -0.4162 -1.6366 -0.1351
36481SOL    HW214764   1.737   5.937   6.654  0.9309  0.2032 -2.4154
36482SOL     OW14765   8.147  10.662   5.242 -0.6998  0.3690 -0.0737
36482SOL    HW114766   8.151  10.568   5.227  0.2044  0.2958  0.5452
36482SOL    HW214767   8.162  10.672   5.336  2.0827  1.2496 -0.5131
36483SOL     OW14768   4.606   1.875  10.526  0.0958  0.0426  0.0115
36483SOL    HW114769   4.664   1.824  10.469 -2.9549 -1.9251 -1.6311
36483SOL    HW214770   4.606   1.963  10.488  0.0779 -0.6007 -1.5489
36484SOL     OW14771   5.171   4.171   9.342  0.2372 -0.1752 -0.3617
36484SOL    HW114772   5.134   4.107   9.402  2.2841 -1.7382 -0.6394
36484SOL    HW214773   5.200   4.244   9.397 -0.2757 -0.4074  0.2124
36485SOL     OW14774   5.666  10.957   1.546  0.6743 -0.8371 -0.9620
36485SOL    HW114775   5.722  10.907   1.604  1.0950 -0.3093 -0.9073
36485SOL    HW214776   5.585  10.905   1.540 -0.5729  0.4405  2.3884
36486SOL     OW14777   5.184   2.211   9.178  0.4874 -0.0839  0.7861
36486SOL    HW114778   5.144   2.160   9.248  1.6707 -0.8688  0.9228
36486SOL    HW214779   5.276   2.221   9.205  0.3746  1.8173  0.5833
36487SOL     OW14780   9.329   6.052   2.718  0.4083  0.2269 -0.3894
36487SOL    HW114781   9.282   5.984   2.767  0.2651 -1.0377 -2.1935
36487SOL    HW214782   9.311   6.033   2.626  1.0715  2.2277 -0.9918
36488SOL     OW14783   9.624   1.579   0.443 -0.0843 -0.1447 -0.1097
36488SOL    HW114784   9.636   1.536   0.528 -2.3915  0.4939  0.6304
36488SOL    HW214785   9.656   1.516   0.379  0.3122 -1.2729  1.1446
36489SOL     OW14786   2.896   3.583   3.851 -0.5029 -0.0522  0.0219
36489SOL    HW114787   2.913   3.677   3.851 -1.3940  0.1369  1.6897
36489SOL    HW214788   2.803   3.575   3.870 -0.8289 -1.2675 -1.7694
36490SOL     OW14789   0.522   6.630   9.995  0.5137 -0.6961 -0.2438
36490SOL    HW114790   0.577   6.557   9.967  0.0203 -0.7776 -1.0236
36490SOL    HW214791   0.533   6.696   9.927  0.0190 -0.5292 -0.1704
36491SOL     OW14792  10.943   8.578  11.045 -0.2194 -0.0071 -0.1521
36491SOL    HW114793  11.021   8.632  11.062 -0.4545  0.4252 -0.4216
36491SOL    HW214794  10.880   8.605  11.112  0.1224 -0.9016  0.5464
36492SOL     OW14795   5.629   3.352   6.148  0.1706  0.1674 -0.1190
36492SOL    HW114796   5.641   3.389   6.061 -0.4977  0.2810 -0.1638
36492SOL    HW214797   5.649   3.425   6.208 -0.4918  0.4153 -0.1968
36493SOL     OW14798   4.699   5.259  11.262 -0.0946  0.0666 -0.2319
36493SOL    HW114799   4.743   5.178  11.235  0.5491  0.8692 -1.6959
36493SOL    HW214800   4.753   5.293  11.333  0.8545  0.2970 -1.0475
36494SOL     OW14801   5.221   4.307   0.754 -0.0053  0.2217  0.0540
36494SOL    HW114802   5.143   4.359   0.735  0.8592  1.2368 -0.8428
36494SOL    HW214803   5.267   4.356   0.822 -0.0174 -0.2476  0.4066
36495SOL     OW14804   4.310   4.761   2.887  0.4629 -0.0905 -0.8346
36495SOL    HW114805   4.267   4.726   2.965 -0.1407 -0.7204 -1.4237
36495SOL    HW214806   4.237   4.790   2.831  0.7342 -1.4722 -1.9893
36496SOL     OW14807   1.637   2.940   8.191 -0.2740 -0.0209  0.0593
36496SOL    HW114808   1.670   2.934   8.102 -2.4150  1.4880 -0.9198
36496SOL    HW214809   1.683   2.871   8.238  0.2226 -1.5052 -2.4206
36497SOL     OW14810   3.792   8.729   7.322  0.2179 -0.8118 -0.3897
36497SOL    HW114811   3.814   8.639   7.345  0.6741 -0.3723  0.9711
36497SOL    HW214812   3.745   8.763   7.399  2.1039  0.8238  0.1231
36498SOL     OW14813   2.084   7.640   2.308  0.9875  0.2239  0.5539
36498SOL    HW114814   2.139   7.614   2.233  2.0510  0.3451  1.2647
36498SOL    HW214815   2.019   7.699   2.271 -0.0540 -1.5985 -0.7086
36499SOL     OW14816   4.989   3.010   4.594 -0.5375  0.5463  0.5018
36499SOL    HW114817   4.922   3.079   4.599 -0.9915  0.1348  0.2255
36499SOL    HW214818   4.948   2.935   4.638 -0.8678 -0.1873 -1.0046
36500SOL     OW14819   6.794   2.317   6.277 -0.2444  0.0207  0.1008
36500SOL    HW114820   6.846   2.262   6.218 -2.0018 -1.7863  0.1361
36500SOL    HW214821   6.849   2.326   6.355  0.5573 -0.7369 -0.3518
36501SOL     OW14822   6.107   5.747   0.438  0.9350  0.3850  0.0559
36501SOL    HW114823   6.082   5.798   0.515  1.8330  0.5098  0.2783
36501SOL    HW214824   6.131   5.661   0.474 -0.7624 -0.2986 -0.3349
36502SOL     OW14825   1.504  11.305   4.842 -0.5274  0.2423  0.4322
36502SOL    HW114826   1.491  11.381   4.899 -3.3105  1.2462 -1.3258
36502SOL    HW214827   1.479  11.230   4.897 -2.4381  1.1107  0.8459
36503SOL     OW14828  10.677   7.436   2.985 -0.0793 -0.2894 -0.1771
36503SOL    HW114829  10.652   7.439   3.078 -1.3519  2.2458 -0.4951
36503SOL    HW214830  10.609   7.383   2.944  0.0042 -0.7137  0.2309
36504SOL     OW14831  11.315   0.221   9.500 -0.0408  0.5703  0.2005
36504SOL    HW114832  11.235   0.205   9.551  1.7493 -0.5351  2.9276
36504SOL    HW214833  11.320   0.147   9.440 -1.1779  0.7863 -0.1819
36505SOL     OW14834   1.529   5.325   7.441 -0.1935  0.0729  0.0597
36505SOL    HW114835   1.435   5.326   7.459 -0.4497  0.2223 -1.1643
36505SOL    HW214836   1.548   5.414   7.411 -0.1687 -0.5752 -1.9791
36506SOL     OW14837  11.804   4.415   1.056 -0.0836 -0.2161 -0.2379
36506SOL    HW114838  11.752   4.401   1.135  0.1604 -0.0697 -0.0495
36506SOL    HW214839  11.803   4.510   1.043  1.3083 -0.0444  0.5871
36507SOL     OW14840   6.876   9.529  10.956 -0.0853  0.2462 -0.5725
36507SOL    HW114841   6.793   9.539  10.910 -1.4794  1.1343  1.9498
36507SOL    HW214842   6.942   9.552  10.891 -1.8342  0.2577 -2.4461
36508SOL     OW14843   9.623   3.173   8.114 -1.0677 -0.5777  0.2242
36508SOL    HW114844   9.657   3.246   8.165  0.4960 -0.5338 -0.8022
36508SOL    HW214845   9.532   3.163   8.143 -1.5232  2.1384 -0.0097
36509SOL     OW14846   3.133   2.662   7.557  0.2343 -0.2288 -0.1801
36509SOL    HW114847   3.221   2.685   7.586 -0.1574 -0.7307  1.5466
36509SOL    HW214848   3.142   2.642   7.464  2.4997 -2.9416  0.4865
36510SOL     OW14849   7.827   3.644   1.249 -0.4205 -0.6008 -0.2006
36510SOL    HW114850   7.734   3.659   1.265 -0.2084  0.7670 -0.0996
36510SOL    HW214851   7.858   3.727   1.212  0.9702 -0.6442  0.8047
36511SOL     OW14852  11.603   8.153   1.778 -0.5291 -0.3716  0.0022
36511SOL    HW114853  11.666   8.083   1.791 -1.1618 -0.9911 -0.1796
36511SOL    HW214854  11.641   8.229   1.823 -0.7798 -1.3604  2.0087
36512SOL     OW14855   9.050   3.977  10.733  0.2871  0.0305 -0.0033
36512SOL    HW114856   9.001   4.059  10.734  0.6262  0.2319  0.5921
36512SOL    HW214857   9.037   3.943  10.644 -0.2285  0.4960 -0.1188
36513SOL     OW14858  10.643   4.864   5.700 -0.0470  0.1614  0.3348
36513SOL    HW114859  10.654   4.824   5.786  0.9880 -1.3844 -0.4750
36513SOL    HW214860  10.582   4.806   5.655  0.9391 -0.1624 -0.6219
36514SOL     OW14861   0.436   2.464   7.268  0.2783  0.4201 -0.0338
36514SOL    HW114862   0.528   2.473   7.292 -0.0813  2.0190  0.8485
36514SOL    HW214863   0.406   2.387   7.317  0.8635  0.5556  0.5551
36515SOL     OW14864   4.945   8.910   4.402 -0.4898  0.4860  0.3720
36515SOL    HW114865   4.853   8.908   4.427 -0.3267 -0.6761  0.9497
36515SOL    HW214866   4.947   8.879   4.312 -0.5556 -0.7985  0.7934
36516SOL     OW14867  10.852   4.008   4.127  0.0740 -0.5156 -0.5406
36516SOL    HW114868  10.863   4.062   4.205 -0.8811 -0.2929 -0.5433
36516SOL    HW214869  10.816   4.068   4.061  1.2162 -0.6107 -1.2757
36517SOL     OW14870   3.713  11.771   7.212 -0.4752  0.0571  0.4332
36517SOL    HW114871   3.762  11.838   7.165 -0.3464  0.0242  0.5187
36517SOL    HW214872   3.621  11.795   7.200 -0.6131 -1.4012 -2.0709
36518SOL     OW14873   2.322   1.272   5.271  0.7170 -0.1615 -0.0173
36518SOL    HW114874   2.413   1.244   5.262  0.1867 -1.8239 -0.5645
36518SOL    HW214875   2.299   1.252   5.361  1.0568  0.8995  0.3315
36519SOL     OW14876   9.481   1.721   3.536  0.8552  0.3077 -0.7482
36519SOL    HW114877   9.413   1.699   3.473 -0.2454  0.3848  0.3756
36519SOL    HW214878   9.556   1.667   3.511  0.0667 -0.5025 -1.4119
36520SOL     OW14879  11.682   9.580   6.786  0.4256 -0.2387 -0.2315
36520SOL    HW114880  11.617   9.530   6.836  0.6062  0.5963  0.8646
36520SOL    HW214881  11.630   9.635   6.728  0.2095 -0.9815 -0.7682
36521SOL     OW14882  11.613  11.279   7.034 -0.0722 -0.5776  1.0242
36521SOL    HW114883  11.602  11.305   7.126  1.4641  0.5737  0.9251
36521SOL    HW214884  11.707  11.261   7.025 -0.2917 -1.2170 -0.1982
36522SOL     OW14885   6.408   5.423   4.066  0.2287  0.3731 -0.1229
36522SOL    HW114886   6.386   5.343   4.018 -0.4906 -0.0161  0.8356
36522SOL    HW214887   6.393   5.402   4.158 -1.6899  2.1114  0.0553
36523SOL     OW14888   7.716   7.668   0.891  0.3722  0.3192  0.5922
36523SOL    HW114889   7.691   7.594   0.835  1.2194  1.1148 -0.8965
36523SOL    HW214890   7.642   7.728   0.886  0.8609  0.8532 -0.5478
36524SOL     OW14891   5.000   1.012   5.933  0.3510 -0.1531 -0.0887
36524SOL    HW114892   4.914   1.000   5.974 -1.0235  0.7866 -2.4943
36524SOL    HW214893   5.009   0.936   5.875  0.2327  0.7086 -1.2673
36525SOL     OW14894   2.458   4.841   3.728  0.1941 -0.3423  0.3458
36525SOL    HW114895   2.545   4.881   3.720 -0.7489  1.5345 -1.4451
36525SOL    HW214896   2.406   4.907   3.775 -0.7778 -0.5219 -0.4549
36526SOL     OW14897   5.286   0.805  11.044 -0.3843 -0.6047  0.4131
36526SOL    HW114898   5.293   0.895  11.012  0.0056 -0.2295  1.5068
36526SOL    HW214899   5.214   0.767  10.993 -0.6768  0.3800  0.0650
36527SOL     OW14900   6.340   8.566   2.005 -0.1274 -0.4068 -0.0876
36527SOL    HW114901   6.385   8.645   2.033 -0.3526 -0.1230 -0.5186
36527SOL    HW214902   6.341   8.569   1.909  1.5029 -1.8615 -0.1619
36528SOL     OW14903   2.061   0.249   7.247  0.1048  0.0401  0.4010
36528SOL    HW114904   2.087   0.288   7.163 -0.8249 -0.2417 -0.0298
36528SOL    HW214905   2.048   0.323   7.305  0.8426  0.2352  0.3366
36529SOL     OW14906   6.320   7.863   7.400 -0.3615  0.4613 -0.8973
36529SOL    HW114907   6.395   7.843   7.457 -0.1270 -1.5581 -1.8328
36529SOL    HW214908   6.324   7.958   7.388  2.5139  0.3453 -1.5246
36530SOL     OW14909   6.328   7.268   5.624 -0.0284 -0.3834 -0.4203
36530SOL    HW114910   6.234   7.267   5.603  0.3077 -0.1781 -2.0433
36530SOL    HW214911   6.337   7.338   5.689 -0.9885 -0.3689 -0.2888
36531SOL     OW14912  10.650  10.107   1.086 -0.2097 -0.0427 -0.0038
36531SOL    HW114913  10.686  10.091   1.174 -0.5397  0.9390  0.3173
36531SOL    HW214914  10.726  10.130   1.033 -0.1224  0.2524  0.2440
36532SOL     OW14915   0.175   0.254   7.116 -0.1176  0.5242  0.1118
36532SOL    HW114916   0.237   0.198   7.068  1.3673  1.3701  0.9667
36532SOL    HW214917   0.120   0.192   7.164  0.4936 -0.2461 -0.1501
36533SOL     OW14918   2.326   3.755   2.329 -0.4155  0.2377  0.0514
36533SOL    HW114919   2.271   3.678   2.342  0.9156 -0.9616 -1.0312
36533SOL    HW214920   2.350   3.783   2.418 -1.0344 -0.4943  0.4569
36534SOL     OW14921   1.265   0.208   0.206  0.2680 -0.1020 -0.1306
36534SOL    HW114922   1.311   0.292   0.209  0.9679 -0.4012 -1.6164
36534SOL    HW214923   1.224   0.205   0.120 -1.3479 -0.4914  0.6100
36535SOL     OW14924  11.302   0.302  10.487  0.7988  0.2067 -0.6070
36535SOL    HW114925  11.387   0.262  10.507  1.1933  1.1827 -0.2320
36535SOL    HW214926  11.322   0.395  10.475  0.0412  0.1917 -2.2287
36536SOL     OW14927   8.158   2.047   3.847  0.7676  0.0290 -0.0339
36536SOL    HW114928   8.211   2.005   3.915  0.7652  1.9277  1.2177
36536SOL    HW214929   8.090   2.095   3.895  1.5687  2.5527 -1.2175
36537SOL     OW14930  11.441  10.993   9.603  0.3278  0.4745 -0.1847
36537SOL    HW114931  11.372  11.057   9.621  1.2505  1.1609  1.1097
36537SOL    HW214932  11.405  10.909   9.634 -0.7799  0.3756 -1.6409
36538SOL     OW14933   4.221  10.819   1.438  0.4088 -0.5210 -0.2315
36538SOL    HW114934   4.202  10.832   1.345  1.0634 -0.3425 -0.3491
36538SOL    HW214935   4.276  10.894   1.461  1.8093 -1.5381 -0.1731
36539SOL     OW14936   2.530   1.125   9.527 -0.3148  0.1307  0.6424
36539SOL    HW114937   2.526   1.063   9.454 -0.9220 -0.6187  1.2890
36539SOL    HW214938   2.623   1.146   9.536 -0.3870  1.6798 -1.4950
36540SOL     OW14939  10.039   4.970   0.386  0.4253  0.1686  0.1686
36540SOL    HW114940  10.060   5.019   0.466 -2.1449 -0.6299  1.4629
36540SOL    HW214941  10.110   4.907   0.376  0.3547 -0.3341  2.4076
36541SOL     OW14942   3.718  11.210  11.006  0.3454 -0.1992  0.2881
36541SOL    HW114943   3.693  11.118  11.002  0.7865 -0.3226  0.3296
36541SOL    HW214944   3.807  11.213  10.969  0.3896  0.1841  0.4202
36542SOL     OW14945   9.969   1.468  10.049 -0.2249  0.4522 -0.0243
36542SOL    HW114946  10.027   1.535  10.083  0.0533  1.2197 -1.8741
36542SOL    HW214947  10.018   1.427   9.978 -1.4065  0.1812 -0.7236
36543SOL     OW14948   9.705   3.091   5.280 -0.0864 -0.1664  0.1450
36543SOL    HW114949   9.763   3.152   5.234  0.1897 -0.7721 -0.3296
36543SOL    HW214950   9.728   3.005   5.244  0.9762 -0.8338  2.2764
36544SOL     OW14951   2.362   0.810   7.829  0.4728 -0.3514 -0.4489
36544SOL    HW114952   2.296   0.741   7.832 -0.1091  0.1573 -1.0842
36544SOL    HW214953   2.370   0.840   7.920  0.5716 -1.0957 -0.2079
36545SOL     OW14954   9.644   5.640   1.162 -0.1685  0.6933 -0.0254
36545SOL    HW114955   9.653   5.598   1.076 -0.3298  1.4167 -0.4021
36545SOL    HW214956   9.698   5.719   1.155 -1.4054  1.5624  0.0059
36546SOL     OW14957   2.230   9.873   1.871  0.2277 -0.0290  0.1230
36546SOL    HW114958   2.198   9.814   1.940  0.9222 -0.5132  0.0399
36546SOL    HW214959   2.189   9.841   1.791 -0.1424  0.1920  0.2211
36547SOL     OW14960   2.396   4.066   4.952 -0.4912 -0.2026  0.1503
36547SOL    HW114961   2.383   4.038   5.042 -0.0115  0.3243  0.3886
36547SOL    HW214962   2.457   4.002   4.915  1.1828  0.9013  0.9099
36548SOL     OW14963   7.985   9.256   3.400 -0.0868 -0.7385  0.2646
36548SOL    HW114964   7.982   9.351   3.388 -0.6830 -0.8635 -0.6735
36548SOL    HW214965   8.070   9.230   3.365 -0.2996 -0.6570 -0.3146
36549SOL     OW14966   4.890   1.164   2.450  0.0626  0.0945 -0.4342
36549SOL    HW114967   4.819   1.113   2.410  0.3423  0.3537 -1.2805
36549SOL    HW214968   4.846   1.234   2.498 -0.2374  0.7644 -1.6627
36550SOL     OW14969   4.282   6.916   0.084 -0.3381 -0.4857  0.1498
36550SOL    HW114970   4.278   6.838   0.138 -2.1617  0.6783  1.8263
36550SOL    HW214971   4.346   6.973   0.128 -2.2773  0.7167  1.5718
36551SOL     OW14972   6.204   2.135   9.657  0.2837 -0.1705 -0.2908
36551SOL    HW114973   6.184   2.120   9.750  2.9326 -0.5148  0.3067
36551SOL    HW214974   6.177   2.225   9.640 -0.3705 -0.1550  0.7663
36552SOL     OW14975   9.416   1.213   8.976  0.0761 -0.0549  0.0760
36552SOL    HW114976   9.486   1.150   8.994  0.5609  0.2718 -0.6200
36552SOL    HW214977   9.373   1.226   9.061  0.0921 -1.1700  0.2710
36553SOL     OW14978   3.960   9.753  11.097 -0.3652  0.8836 -0.4098
36553SOL    HW114979   3.908   9.777  11.020  0.0569 -0.6448 -1.2144
36553SOL    HW214980   3.967   9.657  11.093 -0.4122  0.7424  1.5928
36554SOL     OW14981   8.670   3.979   0.185 -0.3841 -0.0105  0.2343
36554SOL    HW114982   8.657   3.900   0.133 -0.6476  0.0723  0.1750
36554SOL    HW214983   8.662   4.050   0.123 -1.9690  0.1609  0.5891
36555SOL     OW14984   7.122   9.741   0.596 -0.3346 -0.0583  0.3093
36555SOL    HW114985   7.043   9.689   0.578 -1.4366  1.9385 -0.9570
36555SOL    HW214986   7.095   9.801   0.665 -0.0806  0.9453 -0.4560
36556SOL     OW14987   2.904   7.863   8.194  0.3786 -0.4100  0.7297
36556SOL    HW114988   2.999   7.859   8.196  0.5492  0.1711 -2.1694
36556SOL    HW214989   2.882   7.948   8.233  1.1525  0.0088  0.2776
36557SOL     OW14990  10.752  11.817   9.368 -0.7386 -0.1157  0.4932
36557SOL    HW114991  10.822  11.754   9.387 -0.1906  0.1220 -0.6444
36557SOL    HW214992  10.796  11.888   9.321 -1.6701  0.2365  0.1331
36558SOL     OW14993   9.429  11.649   1.207 -0.2941 -0.7038  0.0658
36558SOL    HW114994   9.432  11.592   1.130  0.1150 -0.6920  0.0723
36558SOL    HW214995   9.346  11.628   1.249 -0.9201 -0.1097 -0.8412
36559SOL     OW14996   4.143  11.670   6.540  0.4935 -0.4638  0.5777
36559SOL    HW114997   4.139  11.760   6.508  2.9719 -0.9321 -1.2889
36559SOL    HW214998   4.233  11.658   6.569  0.0417 -2.1753  1.4512
36560SOL     OW14999   6.294  11.194   5.258  0.1169 -0.3800  0.1187
36560SOL    HW115000   6.220  11.214   5.200  0.2299  2.8490  0.8556
36560SOL    HW215001   6.255  11.148   5.332 -1.0546  0.5532  0.1136
36561SOL     OW15002  11.769   9.382   7.309 -0.3720  0.2582 -0.5158
36561SOL    HW115003  11.716   9.410   7.234  0.1589 -1.3965 -1.5716
36561SOL    HW215004  11.797   9.463   7.351 -0.4274  1.2594 -2.3097
36562SOL     OW15005   2.717   2.814   1.018 -0.2140  0.3279 -0.5706
36562SOL    HW115006   2.633   2.837   1.058 -1.2310  1.5141 -3.1367
36562SOL    HW215007   2.705   2.725   0.986 -0.8853  0.8068 -1.7268
36563SOL     OW15008   0.419   6.270   5.985  0.1703 -0.2546 -0.3964
36563SOL    HW115009   0.469   6.189   5.979  0.4798 -0.1729  0.8376
36563SOL    HW215010   0.455   6.315   6.061  0.2165  1.1962 -1.2429
36564SOL     OW15011   4.622   6.950  11.087 -0.6259  0.3736 -0.3195
36564SOL    HW115012   4.573   6.915  11.013 -1.0955  0.8012 -0.2176
36564SOL    HW215013   4.636   6.875  11.145 -0.6883  0.1389 -0.6096
36565SOL     OW15014   5.150   2.150   0.292  0.4799 -0.3399  0.0580
36565SOL    HW115015   5.148   2.063   0.252 -1.9323 -1.0418  1.4819
36565SOL    HW215016   5.106   2.206   0.227 -3.4688 -1.4832  1.4424
36566SOL     OW15017   4.158  10.394   2.013 -0.8158  0.2627 -0.2096
36566SOL    HW115018   4.207  10.450   1.953 -1.5468  1.4197  0.2343
36566SOL    HW215019   4.074  10.439   2.025 -0.7537  0.0079  1.5568
36567SOL     OW15020   0.222   7.274   6.513 -0.7839  0.2866 -0.3954
36567SOL    HW115021   0.205   7.253   6.605 -0.3653 -1.9942 -0.7632
36567SOL    HW215022   0.154   7.225   6.465  2.3514 -3.5045 -1.5324
36568SOL     OW15023   5.598  11.385   5.373 -0.1604 -0.4604 -0.2366
36568SOL    HW115024   5.556  11.343   5.298 -0.6255 -0.4904  0.0369
36568SOL    HW215025   5.529  11.440   5.412  0.5462  0.8726 -0.8206
36569SOL     OW15026  11.191   2.753   5.816  0.0288 -0.5194 -0.0021
36569SOL    HW115027  11.210   2.751   5.910 -1.7579 -0.9568  0.3903
36569SOL    HW215028  11.191   2.661   5.790 -0.2651 -0.4448 -0.2656
36570SOL     OW15029   8.568   1.361   6.142 -0.0735 -0.2311  0.1127
36570SOL    HW115030   8.535   1.392   6.058  0.1111  0.0845  0.1560
36570SOL    HW215031   8.510   1.400   6.207 -0.0557 -0.2617  0.1467
36571SOL     OW15032   2.675  10.629   6.341 -0.3697 -0.3388 -0.0579
36571SOL    HW115033   2.702  10.634   6.433  1.3680  0.3992 -0.5496
36571SOL    HW215034   2.713  10.547   6.309 -2.9884 -1.8286  0.4170
36572SOL     OW15035   7.500  10.868   7.763 -0.1574  0.2315  0.2956
36572SOL    HW115036   7.561  10.845   7.833 -0.6359 -0.7484  0.4190
36572SOL    HW215037   7.553  10.913   7.698  1.2906 -2.6681 -0.7379
36573SOL     OW15038   5.887   0.783   3.839  0.1678  0.6304  0.7624
36573SOL    HW115039   5.914   0.872   3.812 -0.4682  0.3423 -0.9513
36573SOL    HW215040   5.795   0.778   3.814  0.4444 -0.8273 -0.0282
36574SOL     OW15041   6.930  10.259  11.170  0.2406  0.0582  0.4925
36574SOL    HW115042   6.930  10.335  11.230  0.2667 -0.2750  0.9197
36574SOL    HW215043   6.912  10.297  11.084 -0.2195  0.5022  0.7714
36575SOL     OW15044   2.648   4.727  10.626  0.5182  0.2593  0.0804
36575SOL    HW115045   2.644   4.675  10.546  1.7956 -2.3840  1.5701
36575SOL    HW215046   2.738   4.714  10.659 -0.0253  1.0488  2.0548
36576SOL     OW15047   2.151   1.712   5.684  0.1059 -0.2540  0.1846
36576SOL    HW115048   2.177   1.629   5.643 -2.2299 -1.3224  0.6922
36576SOL    HW215049   2.181   1.705   5.774  1.6026  0.3285 -0.2345
36577SOL     OW15050   3.899   7.511   5.188 -0.7956  0.0658  0.3763
36577SOL    HW115051   3.972   7.457   5.218 -1.1112  0.4199  1.8347
36577SOL    HW215052   3.842   7.449   5.141  0.3610 -0.2330 -0.6655
36578SOL     OW15053   7.670   7.949   7.343  0.8762 -0.3274  0.1423
36578SOL    HW115054   7.715   7.996   7.413  1.7358  0.0850 -0.6575
36578SOL    HW215055   7.578   7.970   7.355  1.0200 -0.1868  1.0813
36579SOL     OW15056   6.331   5.391   4.664  0.2507  0.4245 -0.3365
36579SOL    HW115057   6.364   5.391   4.754 -1.3221  0.1116  0.2844
36579SOL    HW215058   6.368   5.312   4.625  0.5482  0.2959  0.1914
36580SOL     OW15059   9.874   4.281   4.085  0.5046 -0.3648  0.0939
36580SOL    HW115060   9.842   4.368   4.061  0.3352 -0.2447  0.7370
36580SOL    HW215061   9.795   4.233   4.111  0.5920 -0.7225 -0.2963
36581SOL     OW15062   0.997   7.340  10.000  0.0453  0.1742  0.5824
36581SOL    HW115063   1.036   7.262   9.961  0.4498  0.1477  1.0232
36581SOL    HW215064   1.041   7.348  10.085 -2.2706 -0.9701  1.9651
36582SOL     OW15065   3.789  10.882  11.473  0.0089 -0.1522  0.4696
36582SOL    HW115066   3.761  10.791  11.466 -1.3240  0.3020 -0.6038
36582SOL    HW215067   3.778  10.904  11.566 -0.3326 -0.8841  0.6048
36583SOL     OW15068   9.996   3.502   9.425 -0.3517  0.0387 -0.3874
36583SOL    HW115069  10.006   3.425   9.480 -0.6683 -0.6492 -1.2793
36583SOL    HW215070   9.995   3.575   9.487 -0.7923 -0.7199  0.5281
36584SOL     OW15071   3.153  10.368   7.638  0.0142 -0.8426 -0.0121
36584SOL    HW115072   3.129  10.437   7.699 -1.4963 -0.3602 -1.0863
36584SOL    HW215073   3.134  10.287   7.685  2.6548 -0.6271  1.5937
36585SOL     OW15074  11.275   1.668  11.415 -0.2798  0.0571 -0.6397
36585SOL    HW115075  11.205   1.613  11.379 -1.5683  1.2752 -0.1050
36585SOL    HW215076  11.340   1.673  11.346 -0.7811 -0.9901 -1.2184
36586SOL     OW15077   3.472   5.721   1.766  0.0874 -0.1616 -0.4317
36586SOL    HW115078   3.501   5.799   1.719  1.1964 -0.4001 -0.1830
36586SOL    HW215079   3.464   5.749   1.857 -1.1961  0.0809 -0.6085
36587SOL     OW15080   5.591   0.541   6.951 -0.0400 -0.0511 -0.2700
36587SOL    HW115081   5.594   0.616   7.011  2.0315  0.6244 -1.1211
36587SOL    HW215082   5.524   0.484   6.987 -0.3311  1.3190  1.4969
36588SOL     OW15083   1.526   9.582  10.166 -0.1759  0.1011 -0.6415
36588SOL    HW115084   1.481   9.515  10.217  1.5357  0.0330  0.9038
36588SOL    HW215085   1.457   9.641  10.136 -1.5734 -1.6195 -0.9595
36589SOL     OW15086   4.940   2.508   9.236  0.2130  0.5924  0.5731
36589SOL    HW115087   4.913   2.559   9.313  1.2182  1.6167  0.2894
36589SOL    HW215088   5.005   2.564   9.193  1.4125 -0.9668  0.2667
36590SOL     OW15089   5.258   1.564   7.198  0.0642  0.1755  0.2330
36590SOL    HW115090   5.275   1.654   7.173  0.1053 -0.0318 -0.4884
36590SOL    HW215091   5.166   1.549   7.176 -0.7302  0.8340  2.7700
36591SOL     OW15092   0.382   9.584   2.295  0.5288  0.0715 -0.4113
36591SOL    HW115093   0.438   9.649   2.253  0.4191  0.0976 -0.5168
36591SOL    HW215094   0.315   9.564   2.229 -0.5687  1.2491  0.3029
36592SOL     OW15095  11.000   9.397   1.237 -0.3091 -0.3906  0.4695
36592SOL    HW115096  11.052   9.400   1.317 -1.0476 -2.9885  1.1422
36592SOL    HW215097  11.038   9.325   1.186 -1.5188 -0.5406 -0.2530
36593SOL     OW15098   4.919   7.158   5.422  0.0099 -0.5468 -0.0079
36593SOL    HW115099   4.838   7.189   5.460 -1.0111 -1.1665 -1.5725
36593SOL    HW215100   4.905   7.064   5.408  2.2684 -1.4438  2.7808
36594SOL     OW15101   0.237   2.145   2.071 -0.5869  0.2197  0.2005
36594SOL    HW115102   0.257   2.193   2.151 -1.5828 -0.7157  1.0489
36594SOL    HW215103   0.318   2.146   2.021 -0.3451  2.0454  0.5550
36595SOL     OW15104   4.290   9.161   4.742 -0.1946  0.4986 -0.0996
36595SOL    HW115105   4.377   9.163   4.782 -1.1731  0.8089  2.1522
36595SOL    HW215106   4.305   9.183   4.650  2.1836 -0.2461  0.0455
36596SOL     OW15107   6.349  10.294   6.504 -0.1235  0.4787 -0.3289
36596SOL    HW115108   6.432  10.262   6.538  0.0772 -0.4456 -1.6268
36596SOL    HW215109   6.283  10.257   6.563  0.2323 -0.8349 -0.7270
36597SOL     OW15110   8.759   9.594   6.806 -0.2319 -0.2631 -0.2352
36597SOL    HW115111   8.698   9.530   6.770  0.4631 -1.4546  0.6014
36597SOL    HW215112   8.725   9.614   6.893  0.1059 -0.3011 -0.0898
36598SOL     OW15113   1.256   6.578   8.837 -0.0136 -0.7887 -0.0817
36598SOL    HW115114   1.226   6.629   8.761  1.1975 -1.8854 -1.3376
36598SOL    HW215115   1.185   6.516   8.852 -0.0372 -0.9163 -0.6705
36599SOL     OW15116   2.551   7.540   6.940  0.1812 -0.2126  0.0703
36599SOL    HW115117   2.560   7.562   7.032 -0.5802  0.8452 -0.0942
36599SOL    HW215118   2.575   7.447   6.935 -0.0639 -0.3597  1.3708
36600SOL     OW15119   9.594   4.295   8.204 -0.1280 -0.5585 -0.3884
36600SOL    HW115120   9.552   4.286   8.290  0.9703 -0.1394  0.2087
36600SOL    HW215121   9.548   4.367   8.161  2.0040  2.1969  1.5727
36601SOL     OW15122   5.442   4.196   1.322  0.6698  0.3226 -0.3606
36601SOL    HW115123   5.458   4.202   1.228 -0.2356 -0.5218 -0.5853
36601SOL    HW215124   5.418   4.284   1.349  1.2232  0.6298 -0.8586
36602SOL     OW15125   9.815   3.527   7.488  0.6224 -0.1273  0.5363
36602SOL    HW115126   9.745   3.517   7.552  0.9202  1.3501  1.1249
36602SOL    HW215127   9.772   3.518   7.404  0.1081 -1.4297  0.9149
36603SOL     OW15128   8.105   7.462   6.274 -0.6508 -0.2008  0.7921
36603SOL    HW115129   8.082   7.478   6.365 -0.1394  2.5146  0.5227
36603SOL    HW215130   8.023   7.434   6.234 -1.2645  0.1609  1.7551
36604SOL     OW15131   4.697   3.116   3.882 -0.1296 -0.1205 -0.8208
36604SOL    HW115132   4.783   3.091   3.849 -0.4174 -0.6058 -1.2135
36604SOL    HW215133   4.705   3.210   3.900  0.2570 -0.0039 -1.5730
36605SOL     OW15134   8.680   8.312   9.436 -0.2173  0.1801 -0.7011
36605SOL    HW115135   8.706   8.304   9.528 -1.4145 -2.2997 -0.4690
36605SOL    HW215136   8.732   8.384   9.402 -0.3963  1.7906  2.1370
36606SOL     OW15137   7.829   6.865   9.215  0.6904 -0.0565  0.2623
36606SOL    HW115138   7.810   6.958   9.225  0.8474 -0.1426  1.5248
36606SOL    HW215139   7.865   6.838   9.300 -0.1881 -1.4715  0.2250
36607SOL     OW15140  10.636   7.002   0.352 -0.6992  0.0375 -0.7376
36607SOL    HW115141  10.644   6.934   0.419 -2.5860  0.4630 -0.0227
36607SOL    HW215142  10.659   7.083   0.397  2.0041 -0.0846 -1.7039
36608SOL     OW15143   8.168   2.111   8.926 -0.3513  0.3419  0.7475
36608SOL    HW115144   8.109   2.148   8.860  0.7798  0.5897 -0.1424
36608SOL    HW215145   8.125   2.029   8.953 -1.5510  0.9652  0.7993
36609SOL     OW15146   9.278   9.433   9.800 -0.3906  0.2386 -0.7284
36609SOL    HW115147   9.335   9.487   9.745  0.0627  2.8394  1.9938
36609SOL    HW215148   9.193   9.478   9.799 -0.2365  0.6609  0.9537
36610SOL     OW15149   4.850   2.644   1.388 -0.7262 -0.4318  0.0656
36610SOL    HW115150   4.780   2.636   1.452  0.5203 -3.1363  1.2509
36610SOL    HW215151   4.923   2.596   1.426  1.3617  1.1287 -1.7144
36611SOL     OW15152   5.582   7.076   2.432 -0.4415  0.1473  0.0599
36611SOL    HW115153   5.533   6.998   2.405 -0.8364 -0.0139  1.2049
36611SOL    HW215154   5.656   7.043   2.481 -0.7677  0.4903  0.8043
36612SOL     OW15155   2.703   4.668   2.394  0.1867 -0.2804  0.4278
36612SOL    HW115156   2.709   4.624   2.479  1.3584 -0.1349  0.4416
36612SOL    HW215157   2.633   4.731   2.405 -1.2190 -1.7954  0.5540
36613SOL     OW15158  11.298   5.515   9.267 -0.6503 -0.2793 -0.2606
36613SOL    HW115159  11.269   5.590   9.318  0.6159  0.4719 -0.5785
36613SOL    HW215160  11.218   5.468   9.245 -1.6328  1.6327 -1.0537
36614SOL     OW15161   3.776  11.184   8.879 -0.7138  0.2687  0.1700
36614SOL    HW115162   3.851  11.243   8.870 -1.3159  1.0213 -0.0049
36614SOL    HW215163   3.815  11.097   8.887  0.1928  0.6945  0.5260
36615SOL     OW15164   4.405   0.498   7.860  0.6711  0.0848 -0.0907
36615SOL    HW115165   4.450   0.417   7.885  0.9011  0.2250 -0.0539
36615SOL    HW215166   4.474   0.557   7.832  0.3483 -0.3939 -2.0197
36616SOL     OW15167   5.407   4.017   3.220  0.3099 -0.5393 -0.3255
36616SOL    HW115168   5.452   4.024   3.135  1.2796 -0.2681  0.1949
36616SOL    HW215169   5.350   3.941   3.211  0.0067 -0.2117 -1.3972
36617SOL     OW15170  10.661   6.389   7.455  0.1504 -0.1459 -0.5984
36617SOL    HW115171  10.661   6.450   7.382 -2.0018 -2.5176 -2.7990
36617SOL    HW215172  10.572   6.355   7.459  0.8447 -2.0440  1.4558
36618SOL     OW15173  10.709   6.760   1.889  0.0047 -0.2458  0.1791
36618SOL    HW115174  10.723   6.764   1.795 -2.5416 -1.3258 -0.3294
36618SOL    HW215175  10.674   6.846   1.912  0.2578 -0.1119  0.0619
36619SOL     OW15176   1.495   0.839   9.718 -0.2363 -0.4974  0.0636
36619SOL    HW115177   1.556   0.793   9.776  2.6527  1.5130 -1.1595
36619SOL    HW215178   1.455   0.906   9.773  0.7341 -0.1042  0.3148
36620SOL     OW15179   9.111   6.522   2.598 -0.0268 -0.2143 -0.5136
36620SOL    HW115180   9.036   6.478   2.557 -1.6957  1.7006  0.3255
36620SOL    HW215181   9.150   6.454   2.654 -0.7807 -1.4102 -1.3789
36621SOL     OW15182  10.226   5.521   2.353  0.1081  0.2721 -0.3374
36621SOL    HW115183  10.219   5.428   2.331  1.0416  0.3000 -0.7728
36621SOL    HW215184  10.303   5.527   2.409  0.2749  0.8359 -0.6209
36622SOL     OW15185   8.232   4.173  11.020 -0.0058  0.2342  0.0044
36622SOL    HW115186   8.328   4.170  11.025  0.0080  1.1213  0.6010
36622SOL    HW215187   8.202   4.114  11.090  0.1203  0.5990  0.3750
36623SOL     OW15188   3.589   9.817   2.537  0.8039 -0.3358 -0.2036
36623SOL    HW115189   3.551   9.855   2.616 -3.7524 -0.8748 -1.8040
36623SOL    HW215190   3.609   9.892   2.481 -0.0148 -0.0293 -0.1053
36624SOL     OW15191   3.409   9.814   6.661 -0.2416  0.1226  0.3674
36624SOL    HW115192   3.425   9.723   6.685  2.7008  0.3864 -0.1504
36624SOL    HW215193   3.467   9.864   6.719 -0.1964  1.4783 -0.7855
36625SOL     OW15194   2.608   9.515   7.340 -0.1610  0.1698  0.0965
36625SOL    HW115195   2.517   9.502   7.366 -0.5242 -0.1518 -1.2411
36625SOL    HW215196   2.648   9.429   7.348  0.1452  0.3975  1.0895
36626SOL     OW15197   0.547   8.160   9.274  0.0893 -0.2689 -0.6219
36626SOL    HW115198   0.538   8.092   9.206  0.8666  1.0065 -2.0606
36626SOL    HW215199   0.491   8.231   9.244 -0.9033 -0.3399  0.9961
36627SOL     OW15200   8.330   5.759   2.217  0.7145  0.1755 -0.5416
36627SOL    HW115201   8.300   5.829   2.274  0.5275  0.0372 -0.4700
36627SOL    HW215202   8.424   5.752   2.234  0.8717  0.8691 -1.0434
36628SOL     OW15203   7.582   3.531  10.269  0.2850 -0.2256 -0.7556
36628SOL    HW115204   7.506   3.557  10.321  2.0545  1.2252  1.2859
36628SOL    HW215205   7.607   3.445  10.304  1.1048  0.4766  0.4845
36629SOL     OW15206   5.644   4.875   3.844  0.0941 -0.1571 -0.1900
36629SOL    HW115207   5.738   4.887   3.832  0.1105  0.4393  0.4846
36629SOL    HW215208   5.630   4.781   3.831  0.5834 -0.0741 -1.5182
36630SOL     OW15209   9.166   6.976   4.788  0.1561 -0.4949 -0.7699
36630SOL    HW115210   9.135   6.939   4.871 -0.1832 -2.2746 -1.6368
36630SOL    HW215211   9.099   7.039   4.763 -0.6840 -1.2760 -0.5590
36631SOL     OW15212   7.173   8.123  11.300 -0.1950 -0.2750  0.2621
36631SOL    HW115213   7.212   8.207  11.276 -1.3816  0.1602 -0.2413
36631SOL    HW215214   7.246   8.061  11.298  0.4588  0.4976 -0.6761
36632SOL     OW15215   7.610  10.033   2.336  0.3159  0.7199  0.3320
36632SOL    HW115216   7.607  10.120   2.377  1.6935  2.3473 -2.7255
36632SOL    HW215217   7.552  10.040   2.261 -0.0904 -1.3002  0.3929
36633SOL     OW15218   5.806   2.325   5.978  0.0172 -0.0323 -0.2510
36633SOL    HW115219   5.829   2.315   5.886  0.0841  0.4928 -0.2961
36633SOL    HW215220   5.739   2.258   5.994  0.9217 -0.9783 -0.3461
36634SOL     OW15221   7.765  10.155   3.742 -0.3218  0.2462 -0.5678
36634SOL    HW115222   7.719  10.211   3.679 -1.3234  0.6968  0.5374
36634SOL    HW215223   7.856  10.155   3.711 -0.7902  0.3962 -2.0432
36635SOL     OW15224   2.823   4.914   3.172 -0.1008  0.8977 -0.0754
36635SOL    HW115225   2.802   4.879   3.259 -0.9603 -2.3101 -1.4068
36635SOL    HW215226   2.897   4.861   3.142 -3.0977 -2.0405 -3.2530
36636SOL     OW15227   1.180   8.328   0.404  0.2842 -0.1681 -0.1754
36636SOL    HW115228   1.262   8.278   0.402  0.5102  0.1640  0.3921
36636SOL    HW215229   1.118   8.276   0.353  0.3285 -1.3596  0.9606
36637SOL     OW15230   6.266   8.045  11.415  0.4044 -0.4010 -0.4966
36637SOL    HW115231   6.268   7.955  11.447 -1.5278 -0.7664 -1.2669
36637SOL    HW215232   6.186   8.081  11.451  0.3855  0.5328 -1.4424
36638SOL     OW15233   3.550   2.161   0.115 -0.1111 -0.5899 -0.4638
36638SOL    HW115234   3.539   2.091   0.050 -0.1653  0.3731 -1.5226
36638SOL    HW215235   3.645   2.169   0.125 -0.1059 -0.8980 -0.2289
36639SOL     OW15236   7.989   2.894   3.512  0.4535 -0.4227  0.5098
36639SOL    HW115237   8.035   2.905   3.595  2.6406 -2.0478 -0.3818
36639SOL    HW215238   8.038   2.948   3.450 -0.6260  0.0848  0.0801
36640SOL     OW15239   1.825   6.518   1.398 -0.1311  0.0813 -0.0183
36640SOL    HW115240   1.809   6.434   1.442 -2.4290  0.6115  0.2563
36640SOL    HW215241   1.858   6.494   1.311 -1.2298 -1.1280 -0.1205
36641SOL     OW15242   1.790   9.347   1.430 -0.4231  0.5975  0.1893
36641SOL    HW115243   1.747   9.423   1.390 -1.2451  0.1076  0.1344
36641SOL    HW215244   1.881   9.376   1.444  0.1996  0.5072 -2.8693
36642SOL     OW15245   6.290   9.295   3.897 -0.2162 -0.4134  0.2358
36642SOL    HW115246   6.231   9.298   3.821  0.0899 -0.6448 -0.0152
36642SOL    HW215247   6.359   9.359   3.876 -2.3224  2.8167  2.2071
36643SOL     OW15248   1.493   1.476   4.192 -0.3176  0.6213  0.3208
36643SOL    HW115249   1.477   1.568   4.173  0.3797  0.5230 -0.7701
36643SOL    HW215250   1.488   1.432   4.107  0.9867 -0.1075  0.5966
36644SOL     OW15251   6.163   3.139   0.153  0.5336  0.2077  0.2044
36644SOL    HW115252   6.179   3.161   0.245 -1.9344  0.8504  0.5454
36644SOL    HW215253   6.212   3.206   0.104  1.5340  0.1054  1.0327
36645SOL     OW15254   6.325   5.294  10.538  0.3415  0.3195 -0.4761
36645SOL    HW115255   6.400   5.323  10.487 -0.5338  1.1425 -1.3495
36645SOL    HW215256   6.302   5.209  10.502  0.8936  0.0332 -0.1561
36646SOL     OW15257   7.871   3.192  11.413  0.0735  0.5091 -0.0440
36646SOL    HW115258   7.955   3.197  11.368  0.1609 -0.8831 -0.0540
36646SOL    HW215259   7.820   3.265  11.377  1.4205  1.6807  0.3206
36647SOL     OW15260   8.868   6.905   9.231  0.4935 -0.4890 -0.0967
36647SOL    HW115261   8.844   6.942   9.316  0.1304 -3.6704  1.3125
36647SOL    HW215262   8.785   6.884   9.189  0.6949 -1.3287 -0.0843
36648SOL     OW15263   5.236   7.321   7.168  0.2552 -0.0542 -0.2051
36648SOL    HW115264   5.261   7.257   7.235  0.9340 -0.6933 -1.0254
36648SOL    HW215265   5.309   7.318   7.106 -0.0166  1.0589 -0.5891
36649SOL     OW15266   4.808   4.853   8.685 -0.1986 -0.1396 -0.2112
36649SOL    HW115267   4.772   4.860   8.774  2.1997 -1.3568  0.9625
36649SOL    HW215268   4.866   4.929   8.677 -2.4722  1.5642 -1.9131
36650SOL     OW15269   6.885   5.793   9.386  0.3822 -0.4737 -0.0084
36650SOL    HW115270   6.942   5.865   9.414  1.0744 -1.3981  1.0119
36650SOL    HW215271   6.945   5.727   9.351 -0.1687 -0.9258 -0.1113
36651SOL     OW15272   1.896   8.717   2.887 -0.1323  0.0187  0.7236
36651SOL    HW115273   1.878   8.643   2.944 -0.3472 -1.5614 -1.2656
36651SOL    HW215274   1.991   8.726   2.888 -0.0922 -0.4027  0.8499
36652SOL     OW15275   0.793  11.759   6.986 -0.4379 -0.8835  0.3246
36652SOL    HW115276   0.705  11.793   6.972 -0.1841  0.5414  1.7995
36652SOL    HW215277   0.804  11.760   7.081  0.9113 -1.7169  0.2034
36653SOL     OW15278  10.718   0.772   9.306 -0.0807 -0.1707 -0.3454
36653SOL    HW115279  10.673   0.690   9.289  0.3402 -0.2356 -1.2162
36653SOL    HW215280  10.723   0.814   9.220  3.6567 -1.2489 -0.8096
36654SOL     OW15281   0.005   3.603  10.265  0.5369 -0.0298 -0.3595
36654SOL    HW115282  -0.049   3.681  10.255 -0.9194 -1.1059 -1.2560
36654SOL    HW215283   0.012   3.591  10.359 -0.6214  0.2620 -0.2173
36655SOL     OW15284   0.733  10.958   6.579 -0.1145  0.0617 -0.0634
36655SOL    HW115285   0.826  10.936   6.585 -0.6826 -2.7220  0.0360
36655SOL    HW215286   0.723  11.036   6.633  1.8304 -0.7015  1.5215
36656SOL     OW15287   5.872   1.171   5.751 -0.6636 -0.0260 -0.5150
36656SOL    HW115288   5.947   1.112   5.743 -0.5526 -0.0437  0.5180
36656SOL    HW215289   5.888   1.239   5.685 -0.7062 -1.0426 -1.5989
36657SOL     OW15290   1.715   3.656   5.534  0.2078  0.3394 -0.3486
36657SOL    HW115291   1.775   3.582   5.532  0.5751  0.6374 -1.0884
36657SOL    HW215292   1.655   3.640   5.462  0.2880  0.7506 -0.5121
36658SOL     OW15293   9.121   9.352   6.761 -0.1234 -0.4746  0.0701
36658SOL    HW115294   9.067   9.387   6.833 -0.9008  0.9572 -1.1387
36658SOL    HW215295   9.199   9.407   6.760  0.0200 -0.6784  0.0123
36659SOL     OW15296  11.237   1.544   7.981  0.0945  0.5749  0.4312
36659SOL    HW115297  11.148   1.561   7.950 -0.0374  3.5304  2.0650
36659SOL    HW215298  11.251   1.608   8.050  3.0569 -0.6994  1.1769
36660SOL     OW15299  11.720   9.704   7.601 -0.3982 -0.1030  0.3253
36660SOL    HW115300  11.735   9.644   7.674  0.6894  2.1908  2.1101
36660SOL    HW215301  11.626   9.698   7.583 -0.7220 -0.5621  2.0525
36661SOL     OW15302  11.738   6.925   0.761  0.2752 -0.3251 -0.1131
36661SOL    HW115303  11.783   6.970   0.833 -1.1185 -1.6188  1.6766
36661SOL    HW215304  11.682   6.992   0.722 -0.6546 -0.0896  1.5274
36662SOL     OW15305   6.586   7.121   6.161 -0.2499 -0.0187  0.0632
36662SOL    HW115306   6.621   7.033   6.178 -0.2872 -0.0837 -0.1842
36662SOL    HW215307   6.565   7.156   6.247 -0.4930 -0.3600  0.1419
36663SOL     OW15308   7.925   9.521  10.542  0.1314  0.0414 -0.1547
36663SOL    HW115309   7.991   9.573  10.497 -0.1150 -0.6698 -1.4055
36663SOL    HW215310   7.970   9.484  10.617  1.4936 -1.2575 -1.5424
36664SOL     OW15311   5.702   6.514  10.147  0.7016  0.0828 -0.1484
36664SOL    HW115312   5.754   6.436  10.169  0.8179  0.6154  1.6397
36664SOL    HW215313   5.754   6.559  10.080  0.4763 -1.5080 -1.4510
36665SOL     OW15314   8.234   2.916  10.239 -0.5896 -0.0869  0.2805
36665SOL    HW115315   8.297   2.974  10.196 -1.5905  1.7463  1.2140
36665SOL    HW215316   8.197   2.864  10.167  0.1157  0.6199 -0.6196
36666SOL     OW15317   5.701   2.313   5.059 -0.5706 -0.4502 -0.1588
36666SOL    HW115318   5.746   2.271   4.984  1.2763  1.6428 -0.3184
36666SOL    HW215319   5.767   2.370   5.097 -1.6191 -1.0697  2.8487
36667SOL     OW15320   1.675   9.133   7.093  0.8076  0.5735  0.2631
36667SOL    HW115321   1.613   9.063   7.073  1.6730 -0.5049  1.1974
36667SOL    HW215322   1.684   9.181   7.010  0.1528 -0.3803 -0.3900
36668SOL     OW15323   4.209   3.621  10.938  0.5520 -0.4300  0.2721
36668SOL    HW115324   4.193   3.532  10.905 -1.4195  0.6060 -1.8682
36668SOL    HW215325   4.219   3.674  10.859 -0.1447  1.5431  1.4404
36669SOL     OW15326   2.744   0.211   7.868 -0.4410  0.0739 -0.2442
36669SOL    HW115327   2.762   0.213   7.774 -0.6973 -0.6645 -0.3134
36669SOL    HW215328   2.740   0.118   7.890  0.6981  0.2164  0.7120
36670SOL     OW15329   4.288   6.229   2.388 -0.2081  0.2680  1.0030
36670SOL    HW115330   4.217   6.213   2.450  0.3165  1.9472  2.1055
36670SOL    HW215331   4.352   6.279   2.438  0.4944  1.1927 -0.7428
36671SOL     OW15332   6.887   0.711   3.285  0.8642 -0.1175  0.5972
36671SOL    HW115333   6.855   0.759   3.209 -0.8035 -1.2050  0.5495
36671SOL    HW215334   6.871   0.770   3.359 -3.0373 -1.1405  0.8170
36672SOL     OW15335   5.225  11.080   5.400  0.7555  0.2679  0.5083
36672SOL    HW115336   5.134  11.062   5.375  1.3901 -1.6113 -0.6879
36672SOL    HW215337   5.219  11.113   5.490 -1.1424  0.8868  0.2061
36673SOL     OW15338  11.137   2.527   9.946 -0.2166  0.2241 -0.4940
36673SOL    HW115339  11.151   2.581  10.024 -1.8739  1.8620 -1.2534
36673SOL    HW215340  11.165   2.583   9.873 -1.8830  0.0661 -1.3093
36674SOL     OW15341   8.787   9.033   8.859 -0.1211 -0.5432 -0.0379
36674SOL    HW115342   8.790   8.962   8.922  1.5839  0.0292  0.5749
36674SOL    HW215343   8.854   9.094   8.888 -0.3002  0.4418 -1.5843
36675SOL     OW15344   8.422   8.862   4.900  0.2058 -0.2360  0.1449
36675SOL    HW115345   8.486   8.820   4.958  1.1361 -1.8380 -1.9261
36675SOL    HW215346   8.474   8.900   4.830 -0.9248  1.2253  0.0522
36676SOL     OW15347  11.375   8.806   8.245 -0.5758  0.0092 -0.0514
36676SOL    HW115348  11.347   8.891   8.211  0.2116  0.8592  1.3364
36676SOL    HW215349  11.450   8.781   8.191  0.1075  0.9153  0.4510
36677SOL     OW15350   3.488   4.848   9.476 -0.4279 -0.1571  0.6316
36677SOL    HW115351   3.414   4.871   9.532 -1.4103  1.0037 -1.0734
36677SOL    HW215352   3.459   4.867   9.387  1.7038 -0.2736 -0.1570
36678SOL     OW15353  10.611   1.318   7.507  0.2222 -0.2129  0.0069
36678SOL    HW115354  10.553   1.344   7.578  2.5896  2.0984  1.2780
36678SOL    HW215355  10.602   1.223   7.502 -1.0957 -0.3007  2.4329
36679SOL     OW15356   5.013  11.568   9.838 -0.2088  0.2736  0.3887
36679SOL    HW115357   5.007  11.580   9.933 -0.8886  0.4531  0.3241
36679SOL    HW215358   5.028  11.656   9.804  0.8053  0.1143  0.3774
36680SOL     OW15359   4.961   9.063   5.046 -0.0863 -0.1829 -0.4499
36680SOL    HW115360   5.003   9.007   4.981  0.8057 -1.6846  1.3617
36680SOL    HW215361   5.033   9.098   5.099 -0.7452  1.5341 -0.6054
36681SOL     OW15362   6.025   3.997   9.720 -0.8379  0.0088 -0.1532
36681SOL    HW115363   6.085   4.002   9.794  0.3102  1.7433 -1.1255
36681SOL    HW215364   5.938   4.006   9.759 -0.2449  1.2838  0.9841
36682SOL     OW15365   8.023   4.025  10.292  0.3782  0.3303  0.0676
36682SOL    HW115366   7.927   4.030  10.289  0.2708 -1.3117 -0.1575
36682SOL    HW215367   8.051   4.116  10.305 -1.2315  0.7321  1.0774
36683SOL     OW15368   2.349   5.335   5.643  0.2521  0.1301  0.1175
36683SOL    HW115369   2.371   5.355   5.552  0.1412  0.0373  0.0699
36683SOL    HW215370   2.284   5.265   5.637 -0.5744  0.8720  0.2314
36684SOL     OW15371   0.639  11.187   1.129 -1.0003  0.0626 -0.5356
36684SOL    HW115372   0.699  11.249   1.088 -1.5821 -0.9685 -3.1119
36684SOL    HW215373   0.659  11.103   1.088 -1.2677 -1.2207  1.7589
36685SOL     OW15374   5.381  10.435  10.950  0.1828 -0.5459  0.1528
36685SOL    HW115375   5.383  10.371  11.021 -1.7256 -0.8874 -0.0474
36685SOL    HW215376   5.418  10.388  10.875 -0.3775 -1.1370  0.2335
36686SOL     OW15377   1.959  10.524   3.999  0.3406 -0.1916 -0.0405
36686SOL    HW115378   1.980  10.434   4.024 -0.8282 -0.8771 -1.3906
36686SOL    HW215379   1.909  10.515   3.918 -0.9781  1.5987  0.5074
36687SOL     OW15380   0.858   2.775   9.354 -0.2022 -0.8766 -0.1362
36687SOL    HW115381   0.843   2.804   9.444  0.0955  0.9780 -0.6534
36687SOL    HW215382   0.870   2.680   9.361  1.6829 -0.5480  2.0264
36688SOL     OW15383   3.212   4.193   3.569 -0.1814 -0.7311 -0.4545
36688SOL    HW115384   3.289   4.237   3.531  0.0104 -0.4508  0.2452
36688SOL    HW215385   3.141   4.217   3.510  0.0385  0.0233 -0.4367
36689SOL     OW15386   4.294   0.928   0.714 -0.3906  0.1956 -0.3331
36689SOL    HW115387   4.285   0.992   0.784  0.8524  0.7793 -0.6842
36689SOL    HW215388   4.214   0.875   0.719  0.5655 -1.1866  2.9086
36690SOL     OW15389   0.905   5.138   8.613  0.0400  0.4799 -0.0589
36690SOL    HW115390   0.913   5.121   8.519  3.1666 -1.1122  0.3590
36690SOL    HW215391   0.841   5.073   8.643  0.0131  0.0954 -0.9017
36691SOL     OW15392   0.756   9.923   4.325  0.4834  0.1585  0.1874
36691SOL    HW115393   0.828   9.946   4.267 -0.5372  1.4040 -0.6535
36691SOL    HW215394   0.798   9.898   4.407  1.8471  1.7112  0.0246
36692SOL     OW15395   6.601   2.133   2.481 -0.7843  0.1654 -0.0928
36692SOL    HW115396   6.577   2.085   2.560 -0.0550 -2.1191 -1.1871
36692SOL    HW215397   6.696   2.140   2.485 -0.8324  1.0208 -0.2526
36693SOL     OW15398   0.983   2.764   6.598  0.6563 -0.0862 -0.3310
36693SOL    HW115399   1.056   2.716   6.638  0.2002 -0.9353 -0.4839
36693SOL    HW215400   0.913   2.758   6.663  1.3031  2.4100  0.6770
36694SOL     OW15401   4.602   1.701   9.516  0.3741  0.3957  0.6328
36694SOL    HW115402   4.665   1.660   9.458 -0.6893  0.8276 -0.8922
36694SOL    HW215403   4.655   1.749   9.580  1.5723 -0.3298  0.2072
36695SOL     OW15404   1.032   7.955   3.224  0.3109  0.1258  0.0306
36695SOL    HW115405   1.128   7.962   3.224  0.4233 -1.0386 -1.3708
36695SOL    HW215406   1.005   8.008   3.299  2.0129  0.8957  0.1597
36696SOL     OW15407  10.041   3.938   7.633  0.5497 -0.1146  0.4892
36696SOL    HW115408  10.029   3.880   7.558 -1.3088 -1.1314  1.4962
36696SOL    HW215409  10.025   4.026   7.599 -1.3254 -0.6460 -0.1426
36697SOL     OW15410   2.449   9.710   0.726 -0.9393  0.5171 -0.0145
36697SOL    HW115411   2.448   9.680   0.635 -1.5346  1.0275 -0.1831
36697SOL    HW215412   2.456   9.631   0.778 -1.1854  0.1790 -0.4906
36698SOL     OW15413  10.256   5.803   8.085  0.2668 -0.4635  0.1152
36698SOL    HW115414  10.244   5.892   8.053 -2.2130 -0.7310  0.1596
36698SOL    HW215415  10.262   5.812   8.180 -2.1007 -0.4822  0.3016
36699SOL     OW15416  10.542   0.566   3.529 -0.0542 -0.4997 -0.0129
36699SOL    HW115417  10.533   0.504   3.457 -0.2210 -0.4424 -0.0405
36699SOL    HW215418  10.628   0.546   3.566  0.2066 -0.2666 -0.4769
36700SOL     OW15419   0.845   2.528  11.128  0.3773  0.3405  0.2044
36700SOL    HW115420   0.892   2.611  11.126  0.5685  0.2242 -0.5205
36700SOL    HW215421   0.912   2.463  11.149  0.7326  0.0788 -1.5411
36701SOL     OW15422   9.339   5.624   4.674 -0.0469  0.0212 -0.3033
36701SOL    HW115423   9.263   5.683   4.672 -0.5691 -0.6549 -1.5986
36701SOL    HW215424   9.319   5.557   4.609  1.0614 -0.9456  0.3212
36702SOL     OW15425  10.812   2.889   2.583  0.5323 -0.5472  0.4468
36702SOL    HW115426  10.739   2.861   2.528  0.1023  0.8466  0.2659
36702SOL    HW215427  10.888   2.890   2.524  0.6521 -1.6773  0.5572
36703SOL     OW15428   2.268   1.032   8.483 -0.2165 -0.0161 -0.1547
36703SOL    HW115429   2.291   0.942   8.506 -1.4171 -0.4018 -0.4041
36703SOL    HW215430   2.242   1.072   8.566 -0.7547 -0.2392 -0.2115
36704SOL     OW15431   4.416   5.785   5.406 -0.6010 -0.3977 -0.0122
36704SOL    HW115432   4.460   5.704   5.381 -1.5050 -1.1001  0.5847
36704SOL    HW215433   4.324   5.760   5.414 -0.7686  0.4772  1.0278
36705SOL     OW15434   8.289   6.061   5.049  0.0848  0.5600  0.3835
36705SOL    HW115435   8.264   6.124   4.980 -0.8232  0.2482  0.4177
36705SOL    HW215436   8.216   5.999   5.052  0.0214  0.6910  1.7822
36706SOL     OW15437   8.736   7.139  11.577  0.1398  0.6219  0.5542
36706SOL    HW115438   8.769   7.101  11.658  1.4405 -0.0210 -0.2438
36706SOL    HW215439   8.747   7.234  11.589 -0.1035  0.5681  1.2799
36707SOL     OW15440  11.029   5.974   4.527 -0.0326  0.3186 -0.2528
36707SOL    HW115441  10.989   5.910   4.586 -1.5281  1.4798  0.0551
36707SOL    HW215442  11.022   5.933   4.440  2.0330 -1.3232  0.2779
36708SOL     OW15443  10.888   1.087   4.765  0.3576 -0.3070 -0.8924
36708SOL    HW115444  10.964   1.072   4.708  1.7668 -0.9238  1.0127
36708SOL    HW215445  10.914   1.048   4.849 -1.7868  0.1693  0.0510
36709SOL     OW15446  10.367   5.891  10.082 -0.6778  0.2119  0.4369
36709SOL    HW115447  10.379   5.888   9.987 -0.9709  1.6156  0.3246
36709SOL    HW215448  10.396   5.979  10.106  0.4051 -0.4964  1.8167
36710SOL     OW15449   7.658   6.870   2.007 -0.3553 -0.0639 -0.1196
36710SOL    HW115450   7.665   6.958   2.044 -0.7753  0.3449 -0.9900
36710SOL    HW215451   7.577   6.871   1.956  0.1142 -0.6608 -0.9135
36711SOL     OW15452  10.452   0.410   5.926  0.0320  0.0636 -0.0746
36711SOL    HW115453  10.437   0.357   5.848  0.3868 -0.1180 -0.0211
36711SOL    HW215454  10.544   0.396   5.947  0.4357  1.5999 -0.7289
36712SOL     OW15455   8.242   6.719   4.395  0.3748  0.2177 -0.2414
36712SOL    HW115456   8.152   6.750   4.391 -0.2579 -1.5090  0.1648
36712SOL    HW215457   8.288   6.771   4.328 -0.8799  1.1808 -0.3854
36713SOL     OW15458   1.862   1.368   6.835 -0.5253  0.0324  0.0092
36713SOL    HW115459   1.793   1.390   6.898 -1.4862  0.3069 -1.0988
36713SOL    HW215460   1.935   1.425   6.858 -1.4058  1.2188 -0.0573
36714SOL     OW15461   6.980  10.439  11.424  0.1558 -0.2475 -0.2885
36714SOL    HW115462   6.936  10.478  11.499  1.4600 -1.6407  1.2807
36714SOL    HW215463   6.933  10.473  11.348  0.4410  3.2922  0.9642
36715SOL     OW15464   0.417   9.239   7.102  0.1633 -0.2380 -0.0649
36715SOL    HW115465   0.491   9.272   7.051  0.2978 -0.0190  0.2705
36715SOL    HW215466   0.363   9.192   7.038 -0.6608  1.6529 -0.8311
36716SOL     OW15467   2.328   7.385  11.673  0.1401  0.0087 -0.5222
36716SOL    HW115468   2.271   7.461  11.665  0.9120  0.8578  1.2905
36716SOL    HW215469   2.325   7.362  11.766  1.2279 -1.1317 -0.7331
36717SOL     OW15470   3.641   9.463  11.729  0.0554  0.2913  0.6361
36717SOL    HW115471   3.729   9.487  11.759  0.4938 -0.1162 -0.3071
36717SOL    HW215472   3.655   9.420  11.645 -0.8677 -1.6232  1.4071
36718SOL     OW15473   9.338   4.441   7.105  0.0323 -0.0627  0.2355
36718SOL    HW115474   9.336   4.445   7.201  0.7707  0.7253  0.2340
36718SOL    HW215475   9.392   4.364   7.086 -0.1391 -0.2376  0.4528
36719SOL     OW15476   2.262   6.980   7.730 -0.1399 -0.2052 -0.4316
36719SOL    HW115477   2.239   6.890   7.755 -2.4312 -0.2154 -2.2152
36719SOL    HW215478   2.179   7.027   7.730  0.5500  1.1433 -2.3551
36720SOL     OW15479  10.596   7.945   9.415 -0.4348  0.0854  0.1605
36720SOL    HW115480  10.617   7.856   9.386  0.0185 -0.2200  1.3703
36720SOL    HW215481  10.670   7.997   9.385  0.8781 -0.5304  2.1623
36721SOL     OW15482   2.032   1.191  10.346  0.0390 -0.6045 -0.3473
36721SOL    HW115483   1.959   1.191  10.285 -0.3180  1.7954  0.0008
36721SOL    HW215484   1.993   1.213  10.431  0.9178 -1.1228  0.2077
36722SOL     OW15485   8.348   1.186   4.542  0.4148  0.3642 -0.7994
36722SOL    HW115486   8.276   1.136   4.502  0.1972 -0.1765  0.2440
36722SOL    HW215487   8.306   1.265   4.577  0.1771 -0.2861  0.4425
36723SOL     OW15488   9.020   3.562  10.492  0.2956 -0.1172  0.0021
36723SOL    HW115489   8.955   3.588  10.557  0.1231  0.6149 -0.4473
36723SOL    HW215490   9.032   3.468  10.506 -0.7688 -0.2417  0.1874
36724SOL     OW15491  10.375   1.594   1.434 -0.1920 -0.5472  0.2141
36724SOL    HW115492  10.293   1.626   1.395 -0.7518  0.4627  2.1087
36724SOL    HW215493  10.388   1.649   1.511  2.3871 -0.5857 -0.1252
36725SOL     OW15494   3.149   5.667   2.481 -0.4938  0.1992 -0.0624
36725SOL    HW115495   3.223   5.666   2.542 -1.4618  2.2401  1.2617
36725SOL    HW215496   3.186   5.640   2.397  1.0584 -1.9724  1.2173
36726SOL     OW15497   4.053   2.771   2.477 -0.6553 -0.1463  0.1479
36726SOL    HW115498   4.026   2.862   2.473  0.3955  0.1548 -0.6930
36726SOL    HW215499   4.072   2.748   2.386  3.1011  0.1026  0.7034
36727SOL     OW15500   1.364   1.985   3.870  0.0750  0.0580 -0.1705
36727SOL    HW115501   1.299   1.950   3.809  2.3268 -1.7062 -1.6992
36727SOL    HW215502   1.359   1.928   3.947 -0.4518  0.2096 -0.0865
36728SOL     OW15503   8.999   2.200  10.114  0.4763 -0.1854 -0.2891
36728SOL    HW115504   8.982   2.241  10.029 -0.5333  0.4237  0.1933
36728SOL    HW215505   8.920   2.149  10.132  1.4413 -1.8719 -0.5751
36729SOL     OW15506   2.851   3.718   8.289 -0.2694 -0.4039  0.5459
36729SOL    HW115507   2.821   3.638   8.332 -0.6665 -0.6993 -0.2401
36729SOL    HW215508   2.944   3.704   8.275 -0.7219 -1.7826 -1.6567
36730SOL     OW15509   3.052   2.295   2.279  0.4107 -0.0446  0.1151
36730SOL    HW115510   3.051   2.229   2.348  0.9527 -1.2030 -0.9413
36730SOL    HW215511   3.144   2.305   2.256  0.1296 -0.9200 -1.5585
36731SOL     OW15512   4.465   1.418   4.660  0.1674 -0.2764 -0.0383
36731SOL    HW115513   4.536   1.361   4.691  1.2319  0.7402 -0.5034
36731SOL    HW215514   4.490   1.505   4.689 -0.0858  0.3340 -1.5532
36732SOL     OW15515   2.535  10.420   9.740  0.0469  0.0768 -0.6319
36732SOL    HW115516   2.558  10.444   9.830 -1.3087  0.3033 -0.3353
36732SOL    HW215517   2.501  10.501   9.701  0.4110 -0.0783 -1.2812
36733SOL     OW15518   4.378   1.758   8.207  0.3180  0.7140 -0.5711
36733SOL    HW115519   4.445   1.803   8.155  3.4084 -2.0219  0.6688
36733SOL    HW215520   4.406   1.771   8.298 -0.4721 -1.0192 -0.0466
36734SOL     OW15521   3.942  10.686  10.542  0.5826 -0.1666 -0.2338
36734SOL    HW115522   3.993  10.698  10.622 -0.0471 -0.0354  0.1513
36734SOL    HW215523   4.007  10.659  10.476  0.9963 -0.9456  0.4798
36735SOL     OW15524   5.469   9.616   6.320  0.4807  0.9541  0.0951
36735SOL    HW115525   5.510   9.563   6.388 -1.3529 -0.2186  0.3568
36735SOL    HW215526   5.517   9.699   6.321  1.5659  0.3459  1.6481
36736SOL     OW15527   5.637   3.737   3.406 -0.2389 -0.1265 -0.0094
36736SOL    HW115528   5.571   3.672   3.429  0.7055 -0.7438  0.9950
36736SOL    HW215529   5.711   3.687   3.373 -0.5403  0.6023 -1.9915
36737SOL     OW15530   5.449   2.962   0.995  0.4608  0.0845  0.4809
36737SOL    HW115531   5.508   2.992   1.064 -0.5951 -0.8628  1.8535
36737SOL    HW215532   5.372   3.017   1.003 -0.6762 -1.5991  1.7209
36738SOL     OW15533  10.798   8.059   4.909  0.1386  0.1958  0.2531
36738SOL    HW115534  10.854   8.129   4.877 -0.2293 -0.0493 -0.9658
36738SOL    HW215535  10.854   7.981   4.911  0.6067  0.5243  1.8084
36739SOL     OW15536   8.933  10.863   5.571 -0.1469 -0.2749  0.2022
36739SOL    HW115537   8.949  10.948   5.610 -0.8931 -0.7783  1.6747
36739SOL    HW215538   9.019  10.824   5.561  0.1880  0.5797 -0.3508
36740SOL     OW15539   6.018   0.981   9.090  0.0469  0.0721  0.1167
36740SOL    HW115540   5.983   0.896   9.117 -1.7067  0.7629  0.1428
36740SOL    HW215541   6.029   0.973   8.995  0.7212 -0.4651  0.2370
36741SOL     OW15542  11.653   2.546   7.560  0.1141 -0.0121  0.2569
36741SOL    HW115543  11.672   2.596   7.481  0.0208  1.0808  0.9135
36741SOL    HW215544  11.561   2.519   7.550 -0.3885  1.4351  0.6636
36742SOL     OW15545   6.044   3.919  10.596  0.7260 -0.2382  0.1215
36742SOL    HW115546   5.958   3.941  10.561  1.4172  1.7968 -0.4529
36742SOL    HW215547   6.034   3.927  10.691  0.7451  2.1994 -0.0057
36743SOL     OW15548  11.547   3.769  11.720  0.2099  0.2269  1.0271
36743SOL    HW115549  11.474   3.718  11.756 -1.5236  2.0231  0.2306
36743SOL    HW215550  11.572   3.722  11.641  0.2652 -0.6614  1.5524
36744SOL     OW15551   1.331   3.579   4.649  0.2610  0.2946  0.3625
36744SOL    HW115552   1.281   3.636   4.708  2.2911  1.4159  1.1097
36744SOL    HW215553   1.338   3.496   4.695 -0.9824  0.0725  0.1823
36745SOL     OW15554   8.308   4.408   7.952 -0.0935  0.8575 -0.5478
36745SOL    HW115555   8.317   4.414   7.857 -0.9157  1.0458 -0.6240
36745SOL    HW215556   8.341   4.321   7.974  2.7272  1.8171 -0.6464
36746SOL     OW15557   1.718   0.583   7.867 -0.3854 -0.2501  0.2440
36746SOL    HW115558   1.730   0.533   7.787 -1.8364  0.7178 -0.6252
36746SOL    HW215559   1.771   0.662   7.854 -1.2185  0.2608 -0.1047
36747SOL     OW15560   0.360   8.701   6.618  0.3706  0.7206 -0.4937
36747SOL    HW115561   0.374   8.794   6.632  1.0487  0.4939  0.4715
36747SOL    HW215562   0.426   8.676   6.554 -1.3154  1.3279 -2.5915
36748SOL     OW15563   8.232   3.625   9.358  0.0404  0.0769 -0.0336
36748SOL    HW115564   8.253   3.663   9.444  1.2884  1.5114 -0.9221
36748SOL    HW215565   8.145   3.657   9.338 -0.9270 -1.5276  1.3337
36749SOL     OW15566   6.106   0.168   1.481 -0.1013  0.2811  0.1866
36749SOL    HW115567   6.121   0.223   1.404 -2.6625  0.8323 -0.0182
36749SOL    HW215568   6.150   0.214   1.552  0.2287  1.0600 -0.4998
36750SOL     OW15569   5.891   2.255   9.450  0.2336 -0.0735  0.0702
36750SOL    HW115570   5.800   2.264   9.477  0.3039 -1.4482  0.8561
36750SOL    HW215571   5.887   2.205   9.368  0.2067  1.4238 -0.8843
36751SOL     OW15572   8.654   8.991   1.156 -0.4787  0.1975  0.2756
36751SOL    HW115573   8.627   9.046   1.082 -2.1315 -0.9101  0.0038
36751SOL    HW215574   8.708   8.923   1.116 -0.5277  0.1782  0.2423
36752SOL     OW15575   6.008   3.804   0.792 -0.3826 -0.7189  0.1309
36752SOL    HW115576   6.082   3.749   0.817 -0.1642 -0.4437  0.0917
36752SOL    HW215577   5.983   3.773   0.704  1.8062  1.3342 -1.3367
36753SOL     OW15578   9.969   4.089   6.754  0.0918  0.4041  1.1774
36753SOL    HW115579   9.960   4.138   6.836  0.2676 -0.1999  1.5581
36753SOL    HW215580  10.063   4.091   6.735 -0.0712  1.5501  0.3593
36754SOL     OW15581   1.570   6.160   6.622 -0.0513 -0.1168  0.1458
36754SOL    HW115582   1.661   6.142   6.595 -0.1136  1.5472 -1.3334
36754SOL    HW215583   1.520   6.086   6.586  0.5360 -0.3611 -0.1914
36755SOL     OW15584  10.479   1.933   2.979  0.3244 -0.5650 -0.1100
36755SOL    HW115585  10.436   1.963   2.899  0.1405 -0.0283  0.1793
36755SOL    HW215586  10.488   2.012   3.032  0.4858 -0.9057  0.3804
36756SOL     OW15587   2.815  10.957   3.685 -0.5183 -0.0958 -0.3251
36756SOL    HW115588   2.882  10.912   3.736 -3.2800 -2.9392  1.1398
36756SOL    HW215589   2.847  10.955   3.595  1.5240 -0.8865  0.3648
36757SOL     OW15590   4.246   4.478   7.032 -0.1086 -0.5156  0.4072
36757SOL    HW115591   4.212   4.502   6.946 -0.7432 -1.4548  0.3810
36757SOL    HW215592   4.341   4.471   7.019 -0.2486 -1.1864 -0.3568
36758SOL     OW15593   2.351   5.077   6.802 -0.8663  0.2082 -0.0201
36758SOL    HW115594   2.395   5.003   6.844 -1.6997 -0.7239 -0.7271
36758SOL    HW215595   2.268   5.085   6.849 -0.9707  0.3983 -0.2361
36759SOL     OW15596   1.440  11.518   3.787 -0.1942 -0.2542 -0.0009
36759SOL    HW115597   1.427  11.445   3.727  1.3325 -1.5327  1.1466
36759SOL    HW215598   1.420  11.482   3.874  0.5720  0.6660  0.5833
36760SOL     OW15599   0.865   0.217   8.130 -0.1779  0.0966 -0.0741
36760SOL    HW115600   0.860   0.159   8.206  0.2578 -0.8735 -0.7672
36760SOL    HW215601   0.959   0.229   8.115 -0.2633  1.0104  0.0732
36761SOL     OW15602   7.046   5.469   4.788 -0.0602  0.0837 -0.2802
36761SOL    HW115603   7.044   5.471   4.884 -0.6247  2.0831 -0.2851
36761SOL    HW215604   7.015   5.382   4.765 -0.0262 -0.3924  1.3537
36762SOL     OW15605   9.508   0.106   5.432  0.3822  0.3872  0.1785
36762SOL    HW115606   9.588   0.102   5.379 -0.1519 -0.3680 -0.6137
36762SOL    HW215607   9.490   0.015   5.456  0.7061  0.7310  1.8409
36763SOL     OW15608   2.341   2.293   6.993 -0.1217  0.6757 -0.4361
36763SOL    HW115609   2.271   2.351   7.024 -0.0896  0.5352 -0.0911
36763SOL    HW215610   2.309   2.258   6.910 -2.1868 -2.3222  1.3961
36764SOL     OW15611   0.876   7.284  11.219 -0.5857  0.6862  0.0940
36764SOL    HW115612   0.859   7.202  11.265  0.0190  0.0302 -0.8165
36764SOL    HW215613   0.919   7.340  11.284  0.2250 -0.2102  0.3548
36765SOL     OW15614   4.694   7.725   3.517  0.5566 -0.5673  0.7275
36765SOL    HW115615   4.616   7.670   3.519  0.1875 -0.1984 -1.2140
36765SOL    HW215616   4.752   7.682   3.454  1.0632  0.2365  0.6233
36766SOL     OW15617  10.695   6.829   1.614  0.3854  0.9628  0.3479
36766SOL    HW115618  10.743   6.749   1.592 -1.2678 -0.3551  1.3128
36766SOL    HW215619  10.740   6.898   1.566  2.2588 -0.4343 -0.0180
36767SOL     OW15620   5.750   5.902   0.484  0.0065 -0.2952  0.0940
36767SOL    HW115621   5.796   5.890   0.401  0.3976 -0.3048  0.3066
36767SOL    HW215622   5.690   5.974   0.469 -1.2533 -1.4662 -0.7484
36768SOL     OW15623   9.794   1.156  10.723 -0.2120 -0.3156  0.3637
36768SOL    HW115624   9.827   1.229  10.670  0.4586 -1.4504 -0.8456
36768SOL    HW215625   9.773   1.196  10.807  1.4864  1.0319  0.2170
36769SOL     OW15626   2.372   6.526   2.446  0.4988  0.8012  0.2908
36769SOL    HW115627   2.384   6.451   2.505  2.1207 -0.0284 -0.9843
36769SOL    HW215628   2.459   6.565   2.439  0.2939  1.0746 -1.2479
36770SOL     OW15629   9.526   6.249   8.832 -0.1446  0.2893 -0.1884
36770SOL    HW115630   9.571   6.166   8.813  1.4946  0.5679  2.0377
36770SOL    HW215631   9.456   6.225   8.893 -0.7345  0.3414 -0.8379
36771SOL     OW15632  11.530   7.252   5.815  0.0546  0.0358  0.4443
36771SOL    HW115633  11.456   7.222   5.868  1.0955  0.6055  2.2928
36771SOL    HW215634  11.490   7.306   5.746 -1.3877 -1.3325  0.1409
36772SOL     OW15635   0.184  11.573  11.636  0.7170  0.1616 -0.3455
36772SOL    HW115636   0.262  11.587  11.582  1.2752  0.1000  0.4403
36772SOL    HW215637   0.171  11.655  11.682  0.4588  0.0882 -0.2846
36773SOL     OW15638   4.878   1.717   0.989  0.2048  0.1440  0.2741
36773SOL    HW115639   4.812   1.784   0.973  1.0789  0.8415 -0.5359
36773SOL    HW215640   4.907   1.691   0.902 -2.2007 -3.5210  0.3659
36774SOL     OW15641   4.691   8.618   7.210  0.0841  0.8078  0.5195
36774SOL    HW115642   4.779   8.630   7.244  0.4367  1.4824 -0.5724
36774SOL    HW215643   4.670   8.701   7.167 -0.2931  0.0009 -0.9269
36775SOL     OW15644   9.894   8.466   9.879 -0.2456 -0.0227 -0.4223
36775SOL    HW115645   9.882   8.499   9.968  1.9777 -0.8919  0.2594
36775SOL    HW215646   9.876   8.541   9.823  2.1687  1.7299  0.9590
36776SOL     OW15647   8.596  11.623   0.796 -0.1774 -0.0318 -0.0168
36776SOL    HW115648   8.667  11.594   0.739  0.7311  1.0861  0.4960
36776SOL    HW215649   8.520  11.572   0.768  1.4988 -3.7829  1.5810
36777SOL     OW15650   0.619   9.102   4.560 -0.3118 -0.4088  0.0512
36777SOL    HW115651   0.703   9.057   4.557 -0.7674 -1.2448 -3.2571
36777SOL    HW215652   0.618   9.145   4.646  3.8317  0.3753 -0.1121
36778SOL     OW15653   7.484  10.741   0.543 -0.1721  0.2178 -0.0181
36778SOL    HW115654   7.432  10.795   0.604 -0.2286 -0.6923  0.7709
36778SOL    HW215655   7.419  10.689   0.496 -0.1927  1.4847 -1.4803
36779SOL     OW15656   6.528   6.967   1.131 -0.5421  0.2784 -0.2598
36779SOL    HW115657   6.500   6.901   1.195 -1.4222  1.4867  0.6467
36779SOL    HW215658   6.597   7.016   1.174  3.1992 -2.5729 -2.4332
36780SOL     OW15659  11.002   9.360   6.518  0.1328  0.5331  0.0469
36780SOL    HW115660  11.055   9.321   6.588  1.7491  2.2891 -0.1133
36780SOL    HW215661  10.944   9.421   6.562  0.0340  0.4724  0.0008
36781SOL     OW15662   6.104  10.740   5.705  0.8428 -0.1416 -0.3248
36781SOL    HW115663   6.182  10.703   5.746 -0.4455 -2.6785  0.0733
36781SOL    HW215664   6.041  10.668   5.704 -2.0527  2.1408  0.7707
36782SOL     OW15665   4.040   2.136   1.692  0.4775  0.9742 -0.4345
36782SOL    HW115666   3.949   2.137   1.722  0.3436  0.8286 -0.8233
36782SOL    HW215667   4.049   2.214   1.638  0.9006  1.5828  0.4858
36783SOL     OW15668   1.478   6.658   9.877 -0.6530 -0.1022 -0.5999
36783SOL    HW115669   1.388   6.628   9.865 -0.6261 -0.6208  0.4228
36783SOL    HW215670   1.508   6.614   9.956  0.9765 -1.0511 -1.6732
36784SOL     OW15671   4.923   5.371   9.424  0.0181 -0.1068  0.4710
36784SOL    HW115672   4.929   5.282   9.388 -1.9571 -0.1967  0.2209
36784SOL    HW215673   5.005   5.412   9.399  0.1741 -1.2694 -1.1364
36785SOL     OW15674   0.003   4.751   4.779 -0.1802  0.0584  0.2980
36785SOL    HW115675  -0.007   4.667   4.823 -1.1385 -0.6783 -1.2447
36785SOL    HW215676  -0.085   4.772   4.747  0.1795  1.3159  0.0778
36786SOL     OW15677   6.823   1.520   9.735 -0.4614 -0.0519  0.0544
36786SOL    HW115678   6.768   1.513   9.657 -1.5834 -0.3985  0.8546
36786SOL    HW215679   6.777   1.469   9.802 -0.4510  1.6666  1.4422
36787SOL     OW15680   8.849  11.352  10.521 -0.2401 -0.0072  0.1235
36787SOL    HW115681   8.902  11.432  10.526 -0.1395  0.0897 -1.7811
36787SOL    HW215682   8.841  11.323  10.612 -0.2934  2.1645  0.8740
36788SOL     OW15683   5.549   6.136   3.969  0.3505  0.3508  0.0332
36788SOL    HW115684   5.601   6.059   3.992  0.2269  0.2188 -0.1203
36788SOL    HW215685   5.589   6.208   4.018 -0.2326 -0.0102  1.0669
36789SOL     OW15686   8.897   2.871  10.266 -0.3832  0.2701  0.4635
36789SOL    HW115687   8.814   2.830  10.243 -0.4974  1.2696 -1.1197
36789SOL    HW215688   8.918   2.837  10.352 -1.3548 -1.6769 -0.0098
36790SOL     OW15689   1.565   8.574   2.110 -0.5342  0.3731  0.3355
36790SOL    HW115690   1.557   8.670   2.107  2.4758  0.7206 -2.9537
36790SOL    HW215691   1.521   8.544   2.031  0.9048 -0.6502 -0.1040
36791SOL     OW15692   6.216   2.988   7.685  0.0274 -0.1985  0.6665
36791SOL    HW115693   6.160   2.941   7.623  0.0139  0.5604  0.0778
36791SOL    HW215694   6.185   3.079   7.680  2.1538  0.5314 -0.7115
36792SOL     OW15695   6.686   6.969   6.551 -0.0925  0.7847 -0.4227
36792SOL    HW115696   6.629   6.981   6.475  1.7287  2.8004 -1.5936
36792SOL    HW215697   6.763   6.923   6.516  0.4475  1.0823  0.3399
36793SOL     OW15698   9.902  10.770   6.033 -0.2033 -0.0547  0.3146
36793SOL    HW115699   9.995  10.786   6.018 -0.1322 -2.3542 -2.7157
36793SOL    HW215700   9.899  10.685   6.078 -0.8181 -0.7500 -0.9931
36794SOL     OW15701   3.905   6.509   7.218 -0.1981 -0.2489 -0.2469
36794SOL    HW115702   3.865   6.430   7.254  0.3495 -0.6823 -0.5692
36794SOL    HW215703   3.980   6.527   7.275  0.4568 -0.7267 -0.9307
36795SOL     OW15704   3.265   6.421   4.014 -0.3186  0.1476  0.0693
36795SOL    HW115705   3.288   6.329   4.005  1.0430  0.5540 -0.8968
36795SOL    HW215706   3.304   6.448   4.097 -0.8008 -0.1649  0.3980
36796SOL     OW15707   8.188  10.968   9.491  0.3093  0.1519 -0.4770
36796SOL    HW115708   8.122  10.930   9.550  1.0724  0.5949  0.7162
36796SOL    HW215709   8.151  10.959   9.404 -0.5869 -1.1378  0.0009
36797SOL     OW15710   8.019   8.460   0.827  0.8473  0.5191 -0.4489
36797SOL    HW115711   8.081   8.388   0.825 -0.1704 -0.5743  2.1925
36797SOL    HW215712   7.938   8.423   0.791  0.6102  0.6603 -0.0654
36798SOL     OW15713  11.550   4.775   9.619 -0.7019 -0.3686  0.5419
36798SOL    HW115714  11.454   4.774   9.611 -0.6125  1.7306 -2.1019
36798SOL    HW215715  11.580   4.824   9.543  2.5325 -1.0147  1.2550
36799SOL     OW15716   5.481   1.106   7.459  0.5068  0.3802 -0.7431
36799SOL    HW115717   5.442   1.164   7.525 -0.8297 -3.1333  1.9349
36799SOL    HW215718   5.408   1.083   7.401  0.6123  0.1198 -0.7731
36800SOL     OW15719   6.992   3.203   7.831 -0.1450  0.2824 -0.1014
36800SOL    HW115720   6.992   3.251   7.914  1.6569  0.5518 -0.2198
36800SOL    HW215721   6.955   3.264   7.768 -1.2047  0.2021  0.4223
36801SOL     OW15722   5.977  10.306  11.195 -0.1746  0.0388  0.1555
36801SOL    HW115723   6.031  10.231  11.170  0.2079 -0.2710  1.7930
36801SOL    HW215724   5.895  10.294  11.146 -0.4203 -1.9092  0.9507
36802SOL     OW15725   0.107   7.744   4.455 -0.7865 -0.2075 -0.7576
36802SOL    HW115726   0.079   7.697   4.534 -0.7621 -0.7125 -1.0423
36802SOL    HW215727   0.100   7.679   4.385  0.1670 -0.0632 -1.0019
36803SOL     OW15728   5.573   2.880   8.527 -0.0634 -0.3221 -0.0163
36803SOL    HW115729   5.637   2.946   8.553 -0.2244 -0.2675  0.2438
36803SOL    HW215730   5.495   2.900   8.578  0.5267 -1.9377  1.6261
36804SOL     OW15731   2.915   5.524   0.031  0.8021  0.4489 -0.2980
36804SOL    HW115732   2.939   5.588   0.098 -0.0700  0.4036  0.0716
36804SOL    HW215733   2.843   5.565  -0.017  0.7247  0.0476 -0.5296
36805SOL     OW15734   5.678   7.126   5.716  0.4721 -0.0664  0.5212
36805SOL    HW115735   5.705   7.064   5.784  0.3980  0.6868  1.2512
36805SOL    HW215736   5.737   7.201   5.727 -0.0794  0.4075  0.3026
36806SOL     OW15737  11.196  10.723   5.594 -0.0177 -0.2198  0.5841
36806SOL    HW115738  11.270  10.698   5.648 -1.3690 -1.2439  2.0683
36806SOL    HW215739  11.207  10.672   5.513  0.9346 -0.2875  0.7514
36807SOL     OW15740   9.429   8.624   9.503  0.4110  0.6271 -0.2505
36807SOL    HW115741   9.402   8.716   9.502  0.6607  0.6994 -0.3702
36807SOL    HW215742   9.372   8.583   9.568  0.6065  0.9600  0.1369
36808SOL     OW15743   3.907   2.490   4.060  0.2533 -0.4047 -0.1757
36808SOL    HW115744   3.987   2.439   4.075 -0.8460 -2.1181  0.2144
36808SOL    HW215745   3.836   2.427   4.073 -1.2738  1.5267  1.6987
36809SOL     OW15746  11.171   4.885   8.704  0.3994 -0.3313  0.1646
36809SOL    HW115747  11.118   4.882   8.625  1.4072  1.4503 -0.6342
36809SOL    HW215748  11.125   4.946   8.762  1.2405  0.7783 -0.3059
36810SOL     OW15749   6.250   7.218   3.878 -0.1560  0.4003  0.4568
36810SOL    HW115750   6.212   7.159   3.943 -0.0487  1.7654  1.7972
36810SOL    HW215751   6.190   7.213   3.803  0.3592 -2.1230  0.1089
36811SOL     OW15752   5.298   7.313   1.336 -0.3244 -0.3528 -0.2540
36811SOL    HW115753   5.274   7.343   1.424  0.3143  0.4965 -0.3595
36811SOL    HW215754   5.357   7.239   1.351  2.8426  2.0237  0.1927
36812SOL     OW15755  10.428   8.883   1.352  0.0360  0.3208 -0.5257
36812SOL    HW115756  10.356   8.850   1.299  1.0251  0.2030 -1.8412
36812SOL    HW215757  10.505   8.877   1.296  0.9940  0.9486  0.6508
36813SOL     OW15758   9.069   6.357   2.892  0.3305 -0.4193  0.3817
36813SOL    HW115759   9.115   6.356   2.976 -0.8419 -0.3017  1.0500
36813SOL    HW215760   8.994   6.414   2.907  0.8679  0.7643 -1.1865
36814SOL     OW15761   2.376   6.074   7.112  0.3554 -0.0151  0.1663
36814SOL    HW115762   2.359   6.092   7.205  0.6533  0.9299  0.0529
36814SOL    HW215763   2.445   6.136   7.089  1.9933 -1.8457 -0.0894
36815SOL     OW15764  11.347  10.983   1.662  0.5483 -0.5079  0.0880
36815SOL    HW115765  11.263  10.966   1.618  1.0440  0.0362 -1.1153
36815SOL    HW215766  11.326  11.046   1.730 -0.0692 -0.5652 -0.0424
36816SOL     OW15767  11.496   9.496  10.778 -0.0338 -0.0290 -0.3970
36816SOL    HW115768  11.471   9.502  10.686 -2.0653 -0.2040  0.0965
36816SOL    HW215769  11.418   9.522  10.826  0.6898 -0.8357  1.3059
36817SOL     OW15770   8.827  10.726   2.678  0.1977 -0.5475  0.1976
36817SOL    HW115771   8.881  10.770   2.612  1.4082 -2.6387 -0.2866
36817SOL    HW215772   8.871  10.745   2.761  0.2445 -0.2047  0.0981
36818SOL     OW15773   7.021   1.221   4.906 -0.4136 -0.1067  0.3740
36818SOL    HW115774   6.938   1.253   4.871 -1.5576 -2.5481  0.6453
36818SOL    HW215775   7.001   1.134   4.940  1.9075 -0.0904  2.0179
36819SOL     OW15776   8.037   6.319   6.245 -0.0517 -0.2418  0.5240
36819SOL    HW115777   7.988   6.266   6.181  0.4257 -1.7522  1.3448
36819SOL    HW215778   8.092   6.377   6.191 -0.2702 -0.8881 -0.4318
36820SOL     OW15779   6.968   6.881   4.534  0.1528 -0.5418  0.4899
36820SOL    HW115780   6.995   6.943   4.601 -2.3894 -0.9632  2.0719
36820SOL    HW215781   6.949   6.935   4.457  1.0520  0.2296  0.7956
36821SOL     OW15782   9.656   5.181   0.904  0.0740  0.5227  0.0188
36821SOL    HW115783   9.745   5.191   0.939 -0.0129 -1.1852  0.8434
36821SOL    HW215784   9.601   5.234   0.962  0.2860 -0.2324  0.9449
36822SOL     OW15785   9.545   8.591   3.144  0.3919  0.8705  0.5348
36822SOL    HW115786   9.474   8.568   3.085  2.0605 -0.6930 -0.9858
36822SOL    HW215787   9.557   8.685   3.133  0.7085  0.6117 -1.7666
36823SOL     OW15788  10.752   9.614   2.240  0.0725 -0.3952  0.0347
36823SOL    HW115789  10.752   9.633   2.146 -0.3003 -0.9457 -0.0853
36823SOL    HW215790  10.739   9.519   2.245 -2.0908 -0.1259  0.6769
36824SOL     OW15791   3.079   5.734   1.623  0.3991 -0.0356  0.3197
36824SOL    HW115792   3.158   5.680   1.635  0.8005  0.5069  0.1823
36824SOL    HW215793   3.080   5.755   1.529 -0.6597 -1.1445  0.0368
36825SOL     OW15794   8.746   0.174  10.595  0.4583  0.0921 -0.3490
36825SOL    HW115795   8.689   0.245  10.625 -0.5331  0.9010 -3.7244
36825SOL    HW215796   8.686   0.101  10.580  1.0402 -0.5366  0.3189
36826SOL     OW15797   5.503  11.790   3.193 -0.6731 -0.4364 -0.1915
36826SOL    HW115798   5.563  11.860   3.216 -1.6625 -0.3385  2.5012
36826SOL    HW215799   5.475  11.810   3.104  2.9053 -0.2999 -1.4158
36827SOL     OW15800   0.188   4.853   2.581  0.0874 -0.5234  1.1968
36827SOL    HW115801   0.137   4.872   2.660 -0.5942  0.2809  0.5663
36827SOL    HW215802   0.128   4.870   2.509  0.8244 -0.9072  0.4857
36828SOL     OW15803   0.120   5.933   7.814  0.4161 -0.4168 -0.0153
36828SOL    HW115804   0.157   5.855   7.858 -0.8737 -1.2924 -0.4346
36828SOL    HW215805   0.181   5.950   7.742  2.4047  0.8556  1.8155
36829SOL     OW15806   4.661   8.973   4.498 -0.1622 -0.3775  0.0173
36829SOL    HW115807   4.584   8.925   4.467 -0.0317  0.2642 -1.3717
36829SOL    HW215808   4.657   9.057   4.453  0.3349  0.4081  1.3906
36830SOL     OW15809   2.180   5.799   6.311 -0.6480 -0.0514 -0.4595
36830SOL    HW115810   2.249   5.735   6.291 -0.5052 -0.0760  0.1124
36830SOL    HW215811   2.103   5.746   6.329 -0.8014 -0.0262 -1.0030
36831SOL     OW15812   0.932   2.552   9.530 -0.3166  0.2827 -0.0107
36831SOL    HW115813   0.984   2.478   9.499 -2.6693 -0.5340 -2.4543
36831SOL    HW215814   0.993   2.626   9.530  1.1326 -0.8278 -1.6039
36832SOL     OW15815   8.814  10.802   3.358  0.3326 -0.3112 -0.0437
36832SOL    HW115816   8.900  10.843   3.350  1.2941 -2.2059  0.0445
36832SOL    HW215817   8.758  10.852   3.298  1.7095  0.3588 -0.8114
36833SOL     OW15818   1.930   8.066   1.563 -0.6119 -1.0595  0.4792
36833SOL    HW115819   1.998   8.001   1.584 -0.2638 -0.8067  0.1424
36833SOL    HW215820   1.878   8.072   1.643 -0.3959 -1.4475  0.6553
36834SOL     OW15821   9.796   4.648   8.594  0.2798  0.3411  0.1764
36834SOL    HW115822   9.784   4.590   8.519  0.8270  1.0111 -0.4414
36834SOL    HW215823   9.731   4.619   8.658 -0.6909  0.2286 -0.8407
36835SOL     OW15824  10.550   5.037   6.339  0.0690  0.4802  0.7592
36835SOL    HW115825  10.582   5.097   6.407  0.1839  0.1144  1.0298
36835SOL    HW215826  10.555   5.088   6.259  0.7994  0.6220  0.8869
36836SOL     OW15827   4.875   1.921   8.596  0.4708  0.0785 -0.2653
36836SOL    HW115828   4.889   1.841   8.545 -3.9279 -1.8098  0.9570
36836SOL    HW215829   4.925   1.908   8.676  0.1301 -1.3489 -0.2555
36837SOL     OW15830   9.604   1.972  11.264  0.2296 -0.2992 -0.1765
36837SOL    HW115831   9.577   1.942  11.177 -1.0296 -0.7242  0.3388
36837SOL    HW215832   9.655   2.051  11.246 -1.7568  0.8411 -1.2334
36838SOL     OW15833   4.222   7.326   0.219 -0.1788 -0.3694 -0.5955
36838SOL    HW115834   4.180   7.300   0.301 -0.7672 -1.3305 -1.1799
36838SOL    HW215835   4.295   7.264   0.208  1.5103  1.3182  0.4418
36839SOL     OW15836  11.542  11.784   6.772  0.2218 -0.3130  0.5033
36839SOL    HW115837  11.475  11.834   6.820 -0.2596  0.2544 -0.7351
36839SOL    HW215838  11.616  11.779   6.833  0.0496  1.3741  0.8907
36840SOL     OW15839   3.875   9.541   0.840 -0.0484 -0.1301 -0.2898
36840SOL    HW115840   3.949   9.594   0.869 -0.5926  0.2270  0.4758
36840SOL    HW215841   3.815   9.603   0.799 -1.7166  0.2927  2.5752
36841SOL     OW15842   7.226   7.485   1.881  0.0751 -0.7317 -0.6897
36841SOL    HW115843   7.244   7.425   1.808  1.7211  0.4339 -1.2986
36841SOL    HW215844   7.169   7.552   1.844  1.5434  0.2900 -1.1548
36842SOL     OW15845   0.254   4.703   5.123 -0.2271 -0.3300  0.1512
36842SOL    HW115846   0.249   4.743   5.036  1.9236  0.2307  0.2286
36842SOL    HW215847   0.173   4.729   5.166  0.1620  2.2719 -0.5280
36843SOL     OW15848   6.363   6.051   7.669  0.1622 -0.2743 -0.2885
36843SOL    HW115849   6.325   6.015   7.589 -1.3357  1.8603 -0.6330
36843SOL    HW215850   6.319   6.004   7.740 -1.4515  0.5090 -0.7234
36844SOL     OW15851   7.613   8.517   7.335  0.2930 -0.3522 -0.2492
36844SOL    HW115852   7.526   8.527   7.373  0.5217  0.1617  0.1494
36844SOL    HW215853   7.634   8.425   7.349  0.3444 -0.1924  0.8334
36845SOL     OW15854   2.062   9.824   1.654 -0.6757  0.1329  0.1420
36845SOL    HW115855   1.992   9.835   1.590 -0.5164  1.3023  0.1470
36845SOL    HW215856   2.062   9.730   1.674 -1.1176 -0.1561 -1.1184
36846SOL     OW15857   2.740   8.927   2.777  0.2041  0.5013 -0.2770
36846SOL    HW115858   2.704   8.999   2.724 -0.9462 -0.2871 -0.5907
36846SOL    HW215859   2.818   8.899   2.729 -0.6851 -0.0392 -1.4497
36847SOL     OW15860   0.264   3.945   2.259 -0.2094  0.3192 -0.0000
36847SOL    HW115861   0.278   3.944   2.354 -1.1464 -2.3094  0.1937
36847SOL    HW215862   0.351   3.961   2.222  0.3755  0.2275  1.2808
36848SOL     OW15863   6.219   4.842   3.477 -0.1965 -0.0548  1.2658
36848SOL    HW115864   6.159   4.911   3.503 -0.0720  0.4626  0.2299
36848SOL    HW215865   6.252   4.806   3.560 -1.1886  0.2895  1.8318
36849SOL     OW15866   6.069   5.924   5.500  0.4295  0.2452 -0.2180
36849SOL    HW115867   6.007   5.859   5.532 -0.6237  0.4036 -1.7868
36849SOL    HW215868   6.127   5.875   5.442  2.3971 -0.0680  1.8837
36850SOL     OW15869   9.697   6.308   0.658  0.4268 -0.2386  0.3593
36850SOL    HW115870   9.713   6.402   0.665  0.0201 -0.2563  1.9740
36850SOL    HW215871   9.779   6.272   0.624  0.8395  0.6159  0.4129
36851SOL     OW15872   4.190   1.877   4.295 -0.2505  0.7544 -0.2188
36851SOL    HW115873   4.227   1.873   4.383  2.0213 -1.8913 -1.1213
36851SOL    HW215874   4.129   1.803   4.292 -0.4498  0.9374 -0.8167
36852SOL     OW15875   3.848  10.700  11.210 -0.0752 -0.1602  0.2899
36852SOL    HW115876   3.936  10.666  11.229  0.1315  0.6756  0.9282
36852SOL    HW215877   3.789  10.639  11.255  0.1523 -0.8456 -0.3130
36853SOL     OW15878   0.378   9.473   3.937  0.5751 -0.3935 -0.6836
36853SOL    HW115879   0.408   9.435   4.019  0.6602 -0.1821 -0.6164
36853SOL    HW215880   0.457   9.476   3.882  0.3085 -1.5216 -1.1575
36854SOL     OW15881   3.588   1.505   6.415  0.2834 -0.0263 -0.8120
36854SOL    HW115882   3.598   1.549   6.330 -0.6894 -0.1232 -0.9874
36854SOL    HW215883   3.504   1.535   6.448 -0.5455 -1.9374 -1.0524
36855SOL     OW15884  11.293   1.660   6.773 -0.1756  0.0207 -0.1305
36855SOL    HW115885  11.303   1.748   6.737 -0.8461  0.2786  0.3117
36855SOL    HW215886  11.201   1.654   6.799 -0.1937 -0.8885 -0.3529
36856SOL     OW15887   8.249   7.242   2.952  0.0854  0.0342 -0.2825
36856SOL    HW115888   8.263   7.252   3.046 -0.5530  0.5115 -0.2312
36856SOL    HW215889   8.221   7.328   2.923  2.6767  0.6061 -1.3819
36857SOL     OW15890   4.295   6.218   7.276  0.3898  0.4621 -0.2728
36857SOL    HW115891   4.309   6.275   7.200  0.3620 -0.7242 -1.1889
36857SOL    HW215892   4.248   6.143   7.241  2.4858 -1.2526  0.4214
36858SOL     OW15893   2.471   1.055   6.250 -0.7714  0.6281 -0.5192
36858SOL    HW115894   2.380   1.044   6.278 -1.5093 -0.5860 -3.1229
36858SOL    HW215895   2.486   1.149   6.257 -2.3362  0.8986 -0.3304
36859SOL     OW15896   6.708   3.671   1.142  0.1044  0.1749  0.4115
36859SOL    HW115897   6.714   3.585   1.183 -0.9076  0.0702  0.3624
36859SOL    HW215898   6.720   3.654   1.048  0.3766  0.1514  0.4502
36860SOL     OW15899   8.627   8.672   0.477 -0.4827  0.2095 -0.2484
36860SOL    HW115900   8.697   8.715   0.526 -2.0828  0.9004  1.5527
36860SOL    HW215901   8.661   8.665   0.388  1.9150  0.3591  0.5836
36861SOL     OW15902   2.114   4.312   2.893  0.3873  0.1945  0.3158
36861SOL    HW115903   2.149   4.325   2.804 -0.0694  1.2700  0.2895
36861SOL    HW215904   2.152   4.228   2.920  1.5036  0.4295 -0.4295
36862SOL     OW15905   0.469   8.692   7.036  0.1058  0.2632  0.2532
36862SOL    HW115906   0.453   8.638   7.113  0.2964  0.3314  0.3392
36862SOL    HW215907   0.501   8.775   7.070 -1.1715  0.8203  0.1856
36863SOL     OW15908   1.187   1.663   0.292 -0.4113  0.7559  0.9095
36863SOL    HW115909   1.127   1.591   0.312 -1.1378  1.6842  2.2033
36863SOL    HW215910   1.139   1.717   0.229 -0.4263  0.8447  0.9974
36864SOL     OW15911   2.568   8.510   6.089 -0.5672  0.1776 -0.3004
36864SOL    HW115912   2.599   8.486   6.002 -0.0651  0.8825 -0.3269
36864SOL    HW215913   2.620   8.456   6.149 -2.0134 -1.4817 -0.4658
36865SOL     OW15914   2.917   2.230   0.314  0.1042  0.2428 -0.5340
36865SOL    HW115915   2.980   2.198   0.379 -1.0642 -1.1142 -0.0303
36865SOL    HW215916   2.960   2.306   0.275  0.8864  1.0742  1.7642
36866SOL     OW15917   0.179   5.429  10.645  0.0897 -0.0933  0.0768
36866SOL    HW115918   0.097   5.454  10.602 -0.5761  0.3084  1.4982
36866SOL    HW215919   0.172   5.334  10.655 -0.6104  0.0357  0.9410
36867SOL     OW15920   0.832   7.416   0.445 -0.6476  0.2677 -0.4873
36867SOL    HW115921   0.754   7.465   0.419 -1.4685 -0.8867 -0.2668
36867SOL    HW215922   0.831   7.337   0.390  0.2338  0.1132 -0.3059
36868SOL     OW15923   3.103   1.495   5.856  0.3061 -0.3732 -0.6646
36868SOL    HW115924   3.076   1.427   5.795  0.2031 -1.6944  0.7714
36868SOL    HW215925   3.124   1.447   5.937 -0.1514  1.3333  0.5249
36869SOL     OW15926   2.677   8.455   1.683 -0.3484 -0.5191  0.0030
36869SOL    HW115927   2.665   8.530   1.742 -0.7518  0.0258 -0.7572
36869SOL    HW215928   2.692   8.380   1.742 -0.1610  0.1128  0.7754
36870SOL     OW15929   6.310   0.728   5.343 -0.2321 -0.7003 -0.5286
36870SOL    HW115930   6.267   0.647   5.372  2.6507 -1.8344  0.9658
36870SOL    HW215931   6.404   0.711   5.355  0.6724  1.8632 -2.8927
36871SOL     OW15932   2.252  11.733   6.303 -0.4492 -0.1775 -0.0994
36871SOL    HW115933   2.341  11.728   6.269 -1.3902 -0.9902 -2.6807
36871SOL    HW215934   2.240  11.825   6.326  0.4128  0.3651 -1.6965
36872SOL     OW15935   1.288   2.093   8.812 -0.1937  0.2591 -0.0942
36872SOL    HW115936   1.264   2.088   8.905  0.2537  4.2123  0.3933
36872SOL    HW215937   1.361   2.031   8.804 -1.2320 -1.3431  1.7383
36873SOL     OW15938  10.690   5.590   2.339 -0.8966  0.2364  0.2635
36873SOL    HW115939  10.684   5.685   2.326 -1.1830  0.4380  1.6753
36873SOL    HW215940  10.650   5.553   2.261 -0.1448  1.2598 -0.6331
36874SOL     OW15941   8.919   6.564   4.122 -0.2648  0.4367 -0.2160
36874SOL    HW115942   8.962   6.487   4.157  0.2722  0.6050 -0.4778
36874SOL    HW215943   8.973   6.637   4.153 -2.1041  0.9400  2.0650
36875SOL     OW15944   8.471   4.671   0.612  0.0711 -0.3414 -0.8059
36875SOL    HW115945   8.497   4.648   0.523  0.2493  2.0193 -1.4447
36875SOL    HW215946   8.526   4.616   0.668  2.3252  0.3724 -2.1616
36876SOL     OW15947  10.386   3.566  10.536  0.0652  0.3301  0.3791
36876SOL    HW115948  10.460   3.600  10.586  1.1713 -0.2413 -0.8222
36876SOL    HW215949  10.396   3.603  10.448 -0.8861 -0.0335  0.0992
36877SOL     OW15950   5.925  10.686   1.369 -0.4451 -0.1688  0.1786
36877SOL    HW115951   5.885  10.683   1.456 -0.4694  0.9424  0.2269
36877SOL    HW215952   5.987  10.613   1.368  0.2728  0.3843  1.4925
36878SOL     OW15953   7.422  11.601   5.219  0.4214  0.5271 -0.6416
36878SOL    HW115954   7.451  11.682   5.261 -1.4349  0.8375  0.0993
36878SOL    HW215955   7.502  11.567   5.177  1.6390  1.7923  0.5279
36879SOL     OW15956   6.343   3.589   9.174  0.3876  0.1711 -0.2362
36879SOL    HW115957   6.365   3.670   9.220 -0.2602  1.6391 -2.3907
36879SOL    HW215958   6.428   3.549   9.155  0.7360  0.5778  0.4080
36880SOL     OW15959   6.679   4.806   6.131  0.5248  0.1820  0.6331
36880SOL    HW115960   6.764   4.850   6.126  0.6701 -0.2073 -0.9086
36880SOL    HW215961   6.699   4.717   6.159  0.9118 -0.5127 -1.6525
36881SOL     OW15962   9.608  10.192   6.311  0.0841 -0.1947  0.0364
36881SOL    HW115963   9.596  10.267   6.253  1.0960 -0.1664 -0.1461
36881SOL    HW215964   9.587  10.116   6.258  3.0971 -0.3531 -1.1064
36882SOL     OW15965   9.761   1.033   3.978 -0.1363  0.0379 -0.1982
36882SOL    HW115966   9.803   1.080   4.050 -0.9044 -0.8484  0.8526
36882SOL    HW215967   9.670   1.063   3.980 -0.4460 -0.9103 -0.0130
36883SOL     OW15968   1.114   5.026   0.002  0.5202  0.0262  0.0324
36883SOL    HW115969   1.036   5.069   0.038 -0.3012 -0.9388 -0.5188
36883SOL    HW215970   1.126   5.067  -0.084  0.1097 -0.3951 -0.2319
36884SOL     OW15971   8.483  11.219   7.893  0.0213 -0.3159  0.0790
36884SOL    HW115972   8.564  11.169   7.897  1.3109  1.6128 -0.2923
36884SOL    HW215973   8.485  11.260   7.806  0.9190  3.1858  1.5554
36885SOL     OW15974   1.018   1.313  10.090  0.3102 -0.3065  0.4973
36885SOL    HW115975   0.978   1.295  10.005  0.9135 -0.9439  0.3456
36885SOL    HW215976   1.092   1.370  10.070 -0.0087  0.1878  0.6914
36886SOL     OW15977  10.050  10.583   0.782 -0.3100 -0.0355 -0.4915
36886SOL    HW115978   9.955  10.578   0.776 -0.2778  0.7785 -3.3878
36886SOL    HW215979  10.080  10.495   0.759 -0.3451 -0.3969  0.8047
36887SOL     OW15980  10.308  10.398   7.290 -0.2327  0.2280 -0.5757
36887SOL    HW115981  10.304  10.323   7.349  1.0064  0.3429 -0.3015
36887SOL    HW215982  10.234  10.453   7.315  0.9396  0.8733  1.7438
36888SOL     OW15983   1.919  11.691   0.391  0.1410  0.7395 -0.0788
36888SOL    HW115984   1.906  11.755   0.321  1.4528  1.7315  0.5279
36888SOL    HW215985   1.982  11.629   0.356 -1.5636 -0.6110 -0.8768
36889SOL     OW15986   3.901   6.315   6.959 -0.2173 -0.2692 -0.0645
36889SOL    HW115987   3.968   6.380   6.978 -0.8799  0.3763  0.0949
36889SOL    HW215988   3.818   6.361   6.972 -0.7150 -1.4406  1.1193
36890SOL     OW15989  11.033   1.317  10.904 -0.0003 -0.2387  0.2407
36890SOL    HW115990  11.016   1.394  10.850 -0.5356 -0.4789  0.0629
36890SOL    HW215991  11.081   1.257  10.847 -3.6016 -2.0106 -1.2448
36891SOL     OW15992   1.184   4.667  11.765  0.7551 -0.5831  0.1122
36891SOL    HW115993   1.113   4.611  11.732 -1.1304  0.4057  2.2368
36891SOL    HW215994   1.206   4.723  11.691 -0.7983 -0.8186 -0.5686
36892SOL     OW15995   9.582   7.629   7.483  0.2171  0.0207 -0.2803
36892SOL    HW115996   9.632   7.616   7.564  0.1789  1.1686 -0.0540
36892SOL    HW215997   9.566   7.723   7.480  1.1737  0.1697 -2.1980
36893SOL     OW15998  10.132   7.181   0.098  0.2710 -0.2549 -0.0783
36893SOL    HW115999  10.222   7.149   0.093  0.5900  0.7619 -1.8511
36893SOL    HW216000  10.134   7.266   0.052 -1.8273 -0.8257 -1.3881
36894SOL     OW16001   6.306   5.442   2.277  0.0098  0.0077 -0.2125
36894SOL    HW116002   6.324   5.487   2.195 -0.6864  0.7287  0.0066
36894SOL    HW216003   6.220   5.402   2.264 -0.0389  0.0018  0.1101
36895SOL     OW16004   4.029   9.152   4.813  0.0864  0.6805  0.2200
36895SOL    HW116005   3.977   9.190   4.742  0.6070 -1.6499 -1.5433
36895SOL    HW216006   4.119   9.159   4.783  0.2870 -0.6501  0.4712
36896SOL     OW16007   7.229   0.670   2.924  0.1346  0.3631  0.1634
36896SOL    HW116008   7.241   0.615   2.846  1.6103  0.5741  0.2184
36896SOL    HW216009   7.195   0.752   2.889  1.3473  0.6663 -0.3604
36897SOL     OW16010   8.908   4.965   7.517 -0.6255 -0.5982 -0.3152
36897SOL    HW116011   8.929   4.886   7.568 -1.0733  0.4698  1.6069
36897SOL    HW216012   8.825   4.944   7.474 -0.2372 -1.5264 -0.6483
36898SOL     OW16013   9.918  10.048  11.001 -0.0417 -0.7121  0.1716
36898SOL    HW116014   9.939  10.012  10.915 -0.7908 -1.4821  0.2967
36898SOL    HW216015   9.916  10.143  10.988  1.5921 -0.7038 -0.2488
36899SOL     OW16016   4.953   2.175   6.242 -0.2806  0.4785  0.0534
36899SOL    HW116017   4.927   2.215   6.159  1.1066  1.0208 -0.1534
36899SOL    HW216018   4.953   2.248   6.305 -1.1027  0.1137  0.4886
36900SOL     OW16019   4.800   5.885  10.255  0.0824  0.4599 -0.0451
36900SOL    HW116020   4.820   5.973  10.286 -1.6571  0.8475  0.0784
36900SOL    HW216021   4.718   5.894  10.206  0.6162 -0.8541 -1.2891
36901SOL     OW16022   1.691   7.374   4.076 -0.3557 -0.0322  0.0373
36901SOL    HW116023   1.723   7.284   4.076 -0.5607 -0.1161  1.0039
36901SOL    HW216024   1.748   7.419   4.139  0.0728  0.6427 -0.8056
36902SOL     OW16025   8.181   2.271   9.351 -0.5175 -0.7079 -0.1601
36902SOL    HW116026   8.260   2.232   9.314 -0.4371 -0.2380 -0.4789
36902SOL    HW216027   8.130   2.196   9.384  0.1234 -0.9996  0.1796
36903SOL     OW16028   8.654   2.750  10.158  0.3369  0.0717 -0.2992
36903SOL    HW116029   8.678   2.717  10.072  1.0155  0.4682 -0.2695
36903SOL    HW216030   8.569   2.793  10.145  1.1948  1.6026 -1.1426
36904SOL     OW16031   8.552   7.468   6.851 -0.1343 -0.3774 -0.5521
36904SOL    HW116032   8.542   7.399   6.917 -0.1446  1.6223  1.7007
36904SOL    HW216033   8.627   7.519   6.883  0.1916  0.3773 -2.4256
36905SOL     OW16034   9.489   9.619   6.019  0.2261  0.1273 -0.2463
36905SOL    HW116035   9.424   9.689   6.029 -0.0236 -0.0313 -0.7231
36905SOL    HW216036   9.453   9.546   6.068 -0.8338 -0.5423 -1.9258
36906SOL     OW16037   0.134   0.771   2.241  0.2455 -0.2118 -0.0135
36906SOL    HW116038   0.125   0.863   2.215 -1.4982 -0.7233 -1.4109
36906SOL    HW216039   0.207   0.738   2.189  0.0808  0.0723 -0.4252
36907SOL     OW16040   1.474   5.716  10.116 -0.4854 -0.3102 -0.5503
36907SOL    HW116041   1.494   5.806  10.140  0.1257 -0.5630 -0.0736
36907SOL    HW216042   1.394   5.722  10.065  0.3700  0.6577 -1.8480
36908SOL     OW16043   0.493   5.709  10.432  0.2305 -0.4100  0.0889
36908SOL    HW116044   0.512   5.642  10.366  0.3605 -0.4798  0.1953
36908SOL    HW216045   0.565   5.772  10.423 -0.2072  0.0216 -0.4067
36909SOL     OW16046  11.500   4.426   2.816  0.5084  0.3482 -0.2213
36909SOL    HW116047  11.418   4.402   2.859 -0.3045  2.2004 -0.6062
36909SOL    HW216048  11.524   4.349   2.765 -0.8221 -0.3512  0.1499
36910SOL     OW16049   6.370   6.287   1.680 -0.0689 -0.0282 -0.2730
36910SOL    HW116050   6.352   6.352   1.748 -0.3479 -1.4049  1.0175
36910SOL    HW216051   6.284   6.247   1.663  0.2452 -0.6386 -0.4332
36911SOL     OW16052   6.655   7.376   2.379  1.2551 -0.6730 -0.2973
36911SOL    HW116053   6.578   7.384   2.322  1.2943  0.5667 -0.2040
36911SOL    HW216054   6.653   7.285   2.409  0.6329 -1.0525 -1.4263
36912SOL     OW16055   6.356   9.362   4.814  0.0540 -0.3856 -0.4483
36912SOL    HW116056   6.282   9.407   4.774 -1.9226 -2.3201  0.8175
36912SOL    HW216057   6.372   9.287   4.757 -0.8043 -1.4695  0.6718
36913SOL     OW16058   2.733   0.786   8.411 -0.3167  0.2213 -0.2900
36913SOL    HW116059   2.755   0.704   8.367  1.7487  0.4944  0.1531
36913SOL    HW216060   2.701   0.759   8.498 -0.6705 -0.1461 -0.5311
36914SOL     OW16061   8.157   2.008  11.814 -0.4942  0.2063  0.6389
36914SOL    HW116062   8.242   1.970  11.791 -1.0594 -0.8357  0.2149
36914SOL    HW216063   8.110   1.937  11.857 -1.9521  0.0751 -1.0706
36915SOL     OW16064   4.214   1.867   2.016  0.6079 -0.2880 -0.0334
36915SOL    HW116065   4.192   1.875   1.924  0.4954 -2.0352 -0.1980
36915SOL    HW216066   4.297   1.914   2.025  0.3714  0.3137 -0.9017
36916SOL     OW16067   7.086  10.263   2.933 -0.1489 -0.0231 -0.3751
36916SOL    HW116068   7.147  10.313   2.879  0.1525  0.0009 -0.0225
36916SOL    HW216069   7.000  10.296   2.910  0.1264  1.8471  1.0043
36917SOL     OW16070   9.071   4.262   9.784  0.4185 -0.5513 -0.2868
36917SOL    HW116071   9.105   4.190   9.731 -2.4905 -2.1812 -0.1616
36917SOL    HW216072   9.058   4.334   9.721  1.2114 -0.9056 -0.8715
36918SOL     OW16073   4.890   1.885   0.488 -0.0151  0.3250  0.2842
36918SOL    HW116074   4.834   1.811   0.512  0.4952 -0.6825 -1.4367
36918SOL    HW216075   4.968   1.874   0.541 -0.0520 -0.2196  0.2303
36919SOL     OW16076   7.313   4.984  10.217 -0.1298  0.1284 -0.2302
36919SOL    HW116077   7.283   5.025  10.136  1.8677 -0.3848 -1.2860
36919SOL    HW216078   7.295   5.050  10.285 -0.6826  1.0807 -1.2689
36920SOL     OW16079   1.662   5.547   3.570  0.0196  0.2705  0.2368
36920SOL    HW116080   1.645   5.469   3.518  1.2695  0.2128 -0.1314
36920SOL    HW216081   1.580   5.565   3.615 -0.2860 -1.2488  0.3241
36921SOL     OW16082   1.102   0.102  10.727 -0.0383 -0.0419  0.0827
36921SOL    HW116083   1.097   0.111  10.822 -0.6376 -0.2443  0.0723
36921SOL    HW216084   1.011   0.095  10.699  0.1309  0.1596 -0.5208
36922SOL     OW16085  11.443   4.933   7.568  0.2679 -0.3078 -0.1066
36922SOL    HW116086  11.419   4.977   7.650 -0.2044  0.2960 -0.5523
36922SOL    HW216087  11.463   5.005   7.508 -1.2011 -0.6513 -1.0585
36923SOL     OW16088   2.025   7.681   6.703  0.5123  0.2097  0.4496
36923SOL    HW116089   2.087   7.754   6.700  1.5702 -0.6800 -0.8272
36923SOL    HW216090   2.077   7.607   6.732 -0.0440 -0.4545 -0.2031
36924SOL     OW16091   3.958   1.778  10.654 -0.2906 -0.4088 -0.2856
36924SOL    HW116092   4.028   1.761  10.718 -0.4707 -1.7475 -0.4134
36924SOL    HW216093   3.881   1.796  10.708 -0.1434 -0.2579 -0.1267
36925SOL     OW16094   7.038   0.993  11.826 -0.6688  0.2620 -0.3984
36925SOL    HW116095   7.075   0.914  11.788 -0.6483 -0.2074  0.5781
36925SOL    HW216096   7.099   1.018  11.894 -0.8495  0.9380 -0.4762
36926SOL     OW16097   0.900   2.610   7.945  0.0856 -0.2231  0.5305
36926SOL    HW116098   0.957   2.657   7.884 -1.3290 -0.6518 -1.2155
36926SOL    HW216099   0.843   2.557   7.889 -1.5941 -0.3127  2.1948
36927SOL     OW16100   2.940  11.180   0.029 -0.4272 -0.4772 -0.5060
36927SOL    HW116101   2.872  11.117   0.052 -1.2337  0.4935 -0.1686
36927SOL    HW216102   2.984  11.141  -0.047 -0.2529 -1.9012  0.2840
36928SOL     OW16103   1.604  11.773   5.658 -0.1135 -0.2427 -0.1033
36928SOL    HW116104   1.520  11.769   5.611  0.8427  0.7024 -2.0275
36928SOL    HW216105   1.645  11.688   5.641  0.1113 -0.0042 -0.8176
36929SOL     OW16106   4.716   1.032   7.065 -0.6434  0.2045  0.7131
36929SOL    HW116107   4.683   1.026   7.155  1.5028  0.1154  1.5571
36929SOL    HW216108   4.746   1.123   7.057 -0.6826  0.1675  0.1389
36930SOL     OW16109  11.428   1.178  10.402  0.0746 -0.9000  0.2735
36930SOL    HW116110  11.366   1.156  10.472  0.4868 -2.0839  0.2927
36930SOL    HW216111  11.492   1.107  10.404  0.9522 -0.1380 -0.3121
36931SOL     OW16112  11.685   6.592   4.972  0.4628 -0.6916 -0.3928
36931SOL    HW116113  11.697   6.673   5.022 -1.1748 -1.1849  0.9051
36931SOL    HW216114  11.774   6.566   4.947  1.0931  1.0439 -0.1044
36932SOL     OW16115   3.509   3.725   6.937 -0.7778  0.3557 -0.1036
36932SOL    HW116116   3.588   3.670   6.931  0.0302  1.4486  0.1650
36932SOL    HW216117   3.444   3.679   6.883 -0.1984 -0.9477  0.2465
36933SOL     OW16118   0.651   4.233   6.542 -0.1646  0.7653 -0.1792
36933SOL    HW116119   0.679   4.317   6.579  0.7725  0.2678  0.2913
36933SOL    HW216120   0.607   4.256   6.460 -0.4751  1.7535  0.2471
36934SOL     OW16121   0.373  10.499   0.782 -0.4484  0.3242 -0.4513
36934SOL    HW116122   0.315  10.427   0.757 -1.4908  0.2450  1.9731
36934SOL    HW216123   0.361  10.564   0.713 -2.1274 -0.4078 -0.9000
36935SOL     OW16124   6.117   4.317  11.232 -0.0027 -0.1467  0.0645
36935SOL    HW116125   6.119   4.241  11.291  0.2792  0.0684  0.3314
36935SOL    HW216126   6.155   4.285  11.150  0.1691 -0.2757  0.1949
36936SOL     OW16127   0.828   3.450   8.074  0.7111 -0.4656  0.0753
36936SOL    HW116128   0.766   3.481   8.141  0.1275  0.4443 -0.8681
36936SOL    HW216129   0.904   3.419   8.125 -0.5359 -1.7434  1.2753
36937SOL     OW16130   8.898   5.380  10.721  0.2555 -0.1854 -0.3074
36937SOL    HW116131   8.956   5.455  10.702  0.4271 -0.2937 -0.2134
36937SOL    HW216132   8.812   5.419  10.734  0.7433  0.2737  2.0485
36938SOL     OW16133   3.042   1.246   9.344 -0.5833 -0.3914  0.2577
36938SOL    HW116134   3.131   1.211   9.334 -0.1308  1.1739 -1.8337
36938SOL    HW216135   2.987   1.168   9.353  0.5515 -1.7141 -2.8383
36939SOL     OW16136   9.675   4.946   4.153  0.0170 -0.6358  0.2031
36939SOL    HW116137   9.691   5.040   4.153 -1.9068 -0.2698  0.6846
36939SOL    HW216138   9.678   4.921   4.245  3.1125 -1.6200 -0.0242
36940SOL     OW16139   3.849  11.490   2.412  0.2819 -0.3597  0.0853
36940SOL    HW116140   3.889  11.577   2.403  0.4443 -0.5756 -1.3976
36940SOL    HW216141   3.758  11.508   2.438  0.8856  0.1681  2.0392
36941SOL     OW16142   7.703   2.477   9.459  0.1842 -0.4416  0.3120
36941SOL    HW116143   7.728   2.567   9.480 -0.1645 -0.7155  2.1105
36941SOL    HW216144   7.785   2.432   9.439  0.3553  0.2551 -0.6048
36942SOL     OW16145  10.622   1.928   5.512  0.0956 -0.0505  0.2714
36942SOL    HW116146  10.649   1.951   5.601 -0.4392 -1.3184  0.7786
36942SOL    HW216147  10.542   1.979   5.498  0.0770  0.0086  0.5812
36943SOL     OW16148   3.827   5.775   5.262  0.2109 -0.3892  0.5359
36943SOL    HW116149   3.788   5.848   5.214 -1.0416 -0.9699  0.6163
36943SOL    HW216150   3.884   5.732   5.198 -0.5860 -0.5015 -0.1178
36944SOL     OW16151   2.972  10.815   4.933 -0.0693 -0.1222  0.0150
36944SOL    HW116152   3.013  10.740   4.890  0.7648 -0.2813  1.0544
36944SOL    HW216153   2.930  10.778   5.011  0.2523  0.4747  0.4760
36945SOL     OW16154   0.424   5.293  10.416  0.5089 -0.0321 -0.0069
36945SOL    HW116155   0.372   5.337  10.349 -1.1311 -0.1466  1.1194
36945SOL    HW216156   0.364   5.284  10.491  2.3687  0.4168  1.6208
36946SOL     OW16157   6.343   0.483   4.749  0.1584  0.1331  0.7514
36946SOL    HW116158   6.392   0.521   4.822  1.0956 -1.8389  1.2141
36946SOL    HW216159   6.398   0.499   4.673  0.2131  0.3138  0.8280
36947SOL     OW16160  11.423   4.097   2.420  0.0169 -0.5474 -0.0964
36947SOL    HW116161  11.390   4.010   2.397 -2.2416  0.3453 -0.5206
36947SOL    HW216162  11.432   4.095   2.515  1.8105 -1.7890 -0.2443
36948SOL     OW16163  11.691   6.402   1.386  0.0630  0.3032  0.2496
36948SOL    HW116164  11.723   6.331   1.441 -1.0278 -0.4078 -0.0123
36948SOL    HW216165  11.740   6.392   1.304  0.0204 -0.0528  0.2644
36949SOL     OW16166   5.240   7.581   2.835 -0.4519  0.2515 -0.3583
36949SOL    HW116167   5.197   7.512   2.885  0.7450 -0.1119  0.2012
36949SOL    HW216168   5.174   7.650   2.828 -1.3070 -0.5126 -0.0213
36950SOL     OW16169   1.915   9.228   6.116 -0.2666  0.1598  0.1340
36950SOL    HW116170   1.937   9.249   6.207 -0.8996  0.7798  0.1543
36950SOL    HW216171   1.907   9.132   6.115  0.0303  0.1237  0.6582
36951SOL     OW16172   5.081   1.220   6.601  0.7689 -0.2648  0.0558
36951SOL    HW116173   5.032   1.287   6.554  0.6892 -0.6270 -0.3768
36951SOL    HW216174   5.158   1.266   6.634 -0.0667  0.4231  1.1265
36952SOL     OW16175   4.150   3.469   4.529  0.0090 -0.2702 -0.5191
36952SOL    HW116176   4.222   3.406   4.525  0.5649  0.4033 -1.4165
36952SOL    HW216177   4.098   3.452   4.450  0.1952  0.4148 -0.7992
36953SOL     OW16178   9.665   0.373   8.639 -0.1754 -0.1168 -0.2515
36953SOL    HW116179   9.608   0.296   8.642  1.1918 -1.1793 -0.1403
36953SOL    HW216180   9.753   0.338   8.658  0.7304  1.2109 -1.7181
36954SOL     OW16181  10.594   7.507  11.519  0.0238  0.2780  0.0480
36954SOL    HW116182  10.571   7.586  11.468  1.7631  0.5076 -0.4333
36954SOL    HW216183  10.533   7.508  11.593 -2.2883  0.1862 -1.7310
36955SOL     OW16184   8.035   9.716   4.888  0.3379 -0.6917  0.3586
36955SOL    HW116185   8.107   9.749   4.834  0.6868 -3.7780 -1.3158
36955SOL    HW216186   7.956   9.733   4.836  0.4925 -2.0864 -0.3861
36956SOL     OW16187   1.177   2.997   3.222 -0.3231  0.0365  0.5625
36956SOL    HW116188   1.085   2.998   3.197  0.0840 -0.4140 -1.0677
36956SOL    HW216189   1.215   2.925   3.171  1.5948  2.2272 -1.3499
36957SOL     OW16190   6.610   9.169   4.640  0.5830  0.5457 -0.3049
36957SOL    HW116191   6.628   9.263   4.651 -2.3326  1.3109 -1.1167
36957SOL    HW216192   6.603   9.157   4.545  1.1588 -0.5700 -0.2179
36958SOL     OW16193   7.799   4.693   5.797 -0.6652  0.6236 -0.0926
36958SOL    HW116194   7.767   4.710   5.708 -1.1045  1.3656  0.1909
36958SOL    HW216195   7.830   4.603   5.795  0.6154  1.0572 -1.3720
36959SOL     OW16196  11.045   4.128   7.371  0.6004 -0.9179  0.3221
36959SOL    HW116197  11.099   4.081   7.434  0.8304 -2.3922 -0.9103
36959SOL    HW216198  11.068   4.220   7.384  1.6988 -1.3104  1.3830
36960SOL     OW16199   0.202   9.718  11.518 -0.5652 -0.0694  0.2774
36960SOL    HW116200   0.237   9.686  11.434 -1.0226  0.6045 -0.1787
36960SOL    HW216201   0.147   9.646  11.549  2.2136 -1.7609  1.7028
36961SOL     OW16202   9.965   5.340   1.461 -0.3641  0.2762 -0.1286
36961SOL    HW116203   9.990   5.270   1.401 -0.9285  0.5734 -0.7361
36961SOL    HW216204   9.967   5.300   1.548  3.4864  0.6205  0.0859
36962SOL     OW16205   1.065  10.203   9.990  0.8408 -0.1018 -0.1074
36962SOL    HW116206   1.136  10.176   9.931  0.9000  2.7037 -1.4742
36962SOL    HW216207   0.987  10.197   9.936  0.4447 -0.3752  0.4892
36963SOL     OW16208   8.945  11.127   0.197 -0.1611  0.3936 -0.1847
36963SOL    HW116209   9.035  11.157   0.182 -0.3650  0.2548 -1.9021
36963SOL    HW216210   8.906  11.195   0.252  0.7463  0.9012 -0.1546
36964SOL     OW16211   0.387   4.288  10.627 -0.4486  0.1206 -0.9138
36964SOL    HW116212   0.450   4.286  10.555  1.8008 -2.2578  0.9048
36964SOL    HW216213   0.432   4.334  10.697 -0.7606 -1.4187  0.3604
36965SOL     OW16214   3.024   6.993   8.561 -0.0036  0.0928 -0.6802
36965SOL    HW116215   3.084   7.057   8.521  0.6912  0.0401  0.2567
36965SOL    HW216216   2.940   7.013   8.521  0.7249 -0.2108 -2.4671
36966SOL     OW16217   3.389   8.872   2.592 -0.3982  0.2741  0.3348
36966SOL    HW116218   3.398   8.909   2.505 -0.7667 -2.6732 -1.0905
36966SOL    HW216219   3.465   8.905   2.641 -0.4995  2.4385 -0.8534
36967SOL     OW16220  11.308   4.129  11.394 -0.4095  0.4677 -0.3668
36967SOL    HW116221  11.268   4.213  11.373 -0.0067  0.7471 -0.0158
36967SOL    HW216222  11.393   4.151  11.431 -1.3016  0.0053  2.1074
36968SOL     OW16223  11.728  10.687  10.221 -0.1107 -0.0880 -0.0428
36968SOL    HW116224  11.808  10.735  10.200  0.2578 -1.6449 -2.6457
36968SOL    HW216225  11.753  10.626  10.290  0.7892 -0.0778 -0.3505
36969SOL     OW16226   6.061   9.457  10.415  0.4493 -0.0420  0.1764
36969SOL    HW116227   6.112   9.494  10.342  2.3256 -0.0759  1.4065
36969SOL    HW216228   5.987   9.414  10.372  0.8791  0.8920 -1.6286
36970SOL     OW16229   3.836   5.954   6.813  0.3967 -0.2233 -0.2946
36970SOL    HW116230   3.865   6.042   6.792  1.5222 -1.1432 -2.9512
36970SOL    HW216231   3.911   5.898   6.795 -0.4289 -1.8105  0.8805
36971SOL     OW16232   4.724   5.240   6.169 -0.6397 -0.5582  0.2145
36971SOL    HW116233   4.777   5.233   6.090  0.1093  0.0907  0.6436
36971SOL    HW216234   4.730   5.153   6.209  0.2685 -0.4509  0.3461
36972SOL     OW16235   1.406   4.278   7.846  0.0150  0.1439  0.4474
36972SOL    HW116236   1.489   4.288   7.800  0.0964  0.8719  0.7410
36972SOL    HW216237   1.409   4.343   7.917 -2.0669  2.4243 -1.3772
36973SOL     OW16238   1.690   6.560   9.264  0.0288 -0.2385 -0.7384
36973SOL    HW116239   1.599   6.587   9.252  0.1212  0.4989  0.1114
36973SOL    HW216240   1.685   6.466   9.280 -0.3082 -0.7870 -3.6047
36974SOL     OW16241  10.645   4.052   0.735  0.5561  0.5677 -0.0076
36974SOL    HW116242  10.651   3.973   0.682  0.6162  1.2926 -1.1011
36974SOL    HW216243  10.734   4.069   0.765  0.3064 -0.6240  1.5301
36975SOL     OW16244   2.262   3.403   0.241 -0.0502 -0.0569  0.0923
36975SOL    HW116245   2.309   3.319   0.242  1.1438  0.5992  1.0664
36975SOL    HW216246   2.200   3.394   0.168  0.7586 -1.3971 -0.4812
36976SOL     OW16247   5.507   4.657   3.084  0.1932 -0.0768 -0.1166
36976SOL    HW116248   5.571   4.615   3.027  0.2266  2.3822 -2.0389
36976SOL    HW216249   5.427   4.606   3.072  0.5908 -0.4673 -1.2543
36977SOL     OW16250   0.169   6.628   8.360  0.3523  0.1700  0.1385
36977SOL    HW116251   0.234   6.694   8.337 -1.7827  2.1333 -0.6071
36977SOL    HW216252   0.175   6.622   8.456  0.7075  1.3486  0.2113
36978SOL     OW16253   2.225   7.886   6.686 -0.5378  0.1544  0.0674
36978SOL    HW116254   2.287   7.838   6.741 -1.5347 -1.0768  0.1348
36978SOL    HW216255   2.208   7.967   6.735  1.8234  1.0658 -0.4607
36979SOL     OW16256  11.549   5.729   8.954  0.3452 -0.2770 -0.0413
36979SOL    HW116257  11.519   5.755   8.866  1.6984  0.1800 -0.3832
36979SOL    HW216258  11.469   5.703   8.999 -0.5972  0.9951 -0.8943
36980SOL     OW16259  10.031   9.607   7.635  0.6033  0.0608 -0.4044
36980SOL    HW116260  10.083   9.566   7.566 -0.0339 -1.0636 -0.2377
36980SOL    HW216261   9.958   9.547   7.649  1.2870 -0.3231  1.9960
36981SOL     OW16262   5.103   6.215   1.573 -0.2118 -0.3349  0.1970
36981SOL    HW116263   5.114   6.304   1.539  0.6651 -0.4619  0.1264
36981SOL    HW216264   5.038   6.176   1.515  1.3523 -0.5939 -1.4739
36982SOL     OW16265   5.568   3.239   0.202  0.1932 -0.5272 -0.4793
36982SOL    HW116266   5.616   3.158   0.220  0.4356 -0.5260 -1.1144
36982SOL    HW216267   5.581   3.255   0.109 -1.1918 -0.6170 -0.7112
36983SOL     OW16268   2.863   1.076   1.414  0.0336 -0.1430  0.2298
36983SOL    HW116269   2.931   1.092   1.480  0.4347 -0.6624 -0.0473
36983SOL    HW216270   2.863   0.980   1.404 -0.3831 -0.1029 -0.1517
36984SOL     OW16271   9.061   3.297  10.555  0.2610 -0.2351 -0.2571
36984SOL    HW116272   9.008   3.218  10.551  0.8684 -0.6323 -0.6405
36984SOL    HW216273   9.056   3.325  10.647 -0.8250 -0.1018 -0.3495
36985SOL     OW16274   7.293  10.203   8.535  0.5175  0.4711 -0.2129
36985SOL    HW116275   7.344  10.157   8.468  0.7504 -0.6793  0.7087
36985SOL    HW216276   7.211  10.153   8.540  0.9623 -0.1693  1.1338
36986SOL     OW16277   6.019  10.843   3.820 -0.4208  0.1636  0.0446
36986SOL    HW116278   6.030  10.903   3.746  0.8437  0.5925  0.5441
36986SOL    HW216279   6.109  10.828   3.851 -0.8603 -0.7241  0.9238
36987SOL     OW16280   8.955   1.521   4.637 -0.6770 -0.1576 -0.5285
36987SOL    HW116281   9.008   1.494   4.713 -0.7284 -0.3252 -0.5501
36987SOL    HW216282   8.916   1.439   4.606 -0.7309 -0.0740 -0.6787
36988SOL     OW16283   1.101  11.628  10.868 -0.3156  0.1103 -0.5277
36988SOL    HW116284   1.063  11.558  10.920  1.3590 -2.0132 -1.9678
36988SOL    HW216285   1.124  11.695  10.932  3.7413 -3.2437  2.0871
36989SOL     OW16286  10.186   5.828  10.393  0.1531 -0.9348  0.4468
36989SOL    HW116287  10.118   5.781  10.344  0.9096 -0.7965 -0.7762
36989SOL    HW216288  10.174   5.920  10.368 -0.3509 -0.6567  1.6478
36990SOL     OW16289   9.431  11.180   1.232  0.3370  0.2626  0.1272
36990SOL    HW116290   9.463  11.223   1.153 -1.1102 -0.1534 -0.7309
36990SOL    HW216291   9.351  11.228   1.255  0.5819  0.1887  1.1578
36991SOL     OW16292   3.132  10.447   8.542 -0.1198 -0.3398  0.1543
36991SOL    HW116293   3.216  10.483   8.571 -0.5183  0.2148  0.6510
36991SOL    HW216294   3.132  10.458   8.447  0.2595 -0.1123  0.1793
36992SOL     OW16295   6.558  11.544   5.657  0.6890 -0.0605  0.3272
36992SOL    HW116296   6.603  11.598   5.722  1.6772 -0.8247  0.3108
36992SOL    HW216297   6.478  11.515   5.700  0.3564  1.0565  0.4801
36993SOL     OW16298  10.797  11.146   9.026 -0.8259  0.0376  0.7994
36993SOL    HW116299  10.841  11.067   9.057 -1.9311 -1.1612 -0.5492
36993SOL    HW216300  10.864  11.214   9.030  0.1544 -0.9519  1.9726
36994SOL     OW16301   2.151   5.649  11.518 -0.3808 -0.1250  0.3938
36994SOL    HW116302   2.079   5.710  11.532 -0.2193  0.2957 -0.4968
36994SOL    HW216303   2.173   5.617  11.605 -1.8872 -0.5638  0.6412
36995SOL     OW16304   2.346   4.228   7.664  0.3684  0.0510  0.6981
36995SOL    HW116305   2.333   4.138   7.634 -0.2429  0.6588 -1.0331
36995SOL    HW216306   2.292   4.236   7.743  0.4864 -1.1028  0.9061
36996SOL     OW16307  10.866   0.492   3.331  0.4044  0.1807 -0.4661
36996SOL    HW116308  10.849   0.494   3.425  1.9340  0.6859 -0.1649
36996SOL    HW216309  10.801   0.431   3.295 -1.1205  1.0657  0.7028
36997SOL     OW16310   5.082   2.239   9.579 -0.1581  0.1492  0.6342
36997SOL    HW116311   5.040   2.325   9.574  1.4058  0.9372  0.0398
36997SOL    HW216312   5.084   2.209   9.489 -0.3050 -0.3122  0.7849
36998SOL     OW16313   2.082  10.879   8.632  0.2346 -0.3059 -0.1430
36998SOL    HW116314   1.988  10.888   8.615  0.1043 -0.5422  0.4253
36998SOL    HW216315   2.108  10.805   8.578  0.5814  1.1524 -2.0720
36999SOL     OW16316   2.965   6.856  10.553  0.1876 -0.0622 -0.5086
36999SOL    HW116317   3.029   6.808  10.607  0.4066 -1.4291 -1.9110
36999SOL    HW216318   2.996   6.946  10.554  1.1626 -0.3815  0.2449
37000SOL     OW16319  11.130   8.366   7.032 -0.2473  0.5729  0.1862
37000SOL    HW116320  11.120   8.459   7.053  1.4978  0.1268  3.9529
37000SOL    HW216321  11.071   8.321   7.092  0.6610 -0.8016  0.1017
37001SOL     OW16322   6.141   2.535   1.335 -0.4045  0.3058 -0.6666
37001SOL    HW116323   6.213   2.520   1.395 -1.0875  0.1489  0.1355
37001SOL    HW216324   6.154   2.471   1.265 -0.5132 -0.6706  0.1756
37002SOL     OW16325  11.584  11.005  11.234  0.5707  0.2763  0.2267
37002SOL    HW116326  11.596  11.031  11.325  0.5901  0.8711  0.0601
37002SOL    HW216327  11.494  11.030  11.213  0.2418 -0.7542  0.3645
37003SOL     OW16328   9.330   1.693   6.903 -0.1362  0.7983 -0.1952
37003SOL    HW116329   9.369   1.768   6.947 -0.2953  0.5240  0.4199
37003SOL    HW216330   9.237   1.697   6.926 -0.0014 -0.0579  0.5319
37004SOL     OW16331   2.747   7.831  11.521 -0.0075  0.4448 -0.6139
37004SOL    HW116332   2.701   7.902  11.566 -0.3538  0.8221 -1.5319
37004SOL    HW216333   2.709   7.751  11.557 -2.0943  0.7293 -1.9770
37005SOL     OW16334   4.817   2.974   8.743  0.2190 -0.1866  0.1181
37005SOL    HW116335   4.741   3.020   8.778 -0.3488 -0.4663 -0.7326
37005SOL    HW216336   4.874   3.043   8.709 -0.6693 -0.0854 -1.2359
37006SOL     OW16337   3.523  10.267   2.900  0.3608 -0.5578 -0.3135
37006SOL    HW116338   3.443  10.310   2.869  0.4946  0.6008  0.8298
37006SOL    HW216339   3.571  10.244   2.821  0.8512  2.5555 -1.0762
37007SOL     OW16340  10.161  11.376   6.472  0.5564  0.5642  0.3296
37007SOL    HW116341  10.098  11.448   6.461 -2.4205 -0.8124  5.2171
37007SOL    HW216342  10.213  11.401   6.548  2.1226 -0.8798 -0.1962
37008SOL     OW16343   1.516   5.051   0.173 -0.2274  0.0342  0.3683
37008SOL    HW116344   1.504   5.076   0.081  4.6019 -3.5130 -1.6312
37008SOL    HW216345   1.453   4.980   0.187 -1.1189  0.7125 -0.0787
37009SOL     OW16346  10.694  11.730   4.209  0.1722  0.5162  0.2952
37009SOL    HW116347  10.615  11.759   4.255 -0.5424  1.9129 -1.6789
37009SOL    HW216348  10.735  11.811   4.179  2.0748 -0.2225  0.7704
37010SOL     OW16349   3.748   1.835   3.176  0.2156  0.3559 -0.3011
37010SOL    HW116350   3.758   1.839   3.081  2.2439  1.4636 -0.0861
37010SOL    HW216351   3.730   1.925   3.202  0.3895  0.1833  0.4382
37011SOL     OW16352   0.442   9.210   8.489 -0.6383 -0.2241 -0.5983
37011SOL    HW116353   0.472   9.120   8.502  1.1331  0.2485 -1.2434
37011SOL    HW216354   0.355   9.200   8.450 -2.0286 -1.6189  2.4573
37012SOL     OW16355   9.374   4.478  11.393  0.0550  0.4168 -0.0071
37012SOL    HW116356   9.364   4.459  11.486  0.7986 -0.1052 -0.0284
37012SOL    HW216357   9.302   4.539  11.373  0.5899  1.4694  1.1645
37013SOL     OW16358   3.435   8.193  10.675  0.9778  0.3952  0.8951
37013SOL    HW116359   3.518   8.149  10.654  0.8121  0.3979  0.2202
37013SOL    HW216360   3.370   8.148  10.622  0.8533  1.6208 -0.0312
37014SOL     OW16361   3.503   4.017   9.506 -0.5964 -0.2318 -0.0701
37014SOL    HW116362   3.475   4.107   9.521 -0.8363 -0.1916 -0.7047
37014SOL    HW216363   3.471   3.997   9.417 -2.3938 -1.6363  0.8178
37015SOL     OW16364   7.079   6.039  10.548 -0.1074  0.0178  0.0569
37015SOL    HW116365   7.033   5.976  10.605 -0.2379  0.1666  0.1178
37015SOL    HW216366   7.045   6.022  10.461  1.2518 -1.3009 -0.2614
37016SOL     OW16367   9.814   9.261   4.118 -0.4673  0.2331 -0.5014
37016SOL    HW116368   9.767   9.186   4.082 -0.7500 -0.1844  0.6834
37016SOL    HW216369   9.753   9.334   4.110 -0.1473  0.3943 -1.7710
37017SOL     OW16370  10.286  11.286   6.066  0.0646  0.2271 -0.3408
37017SOL    HW116371  10.314  11.352   6.129 -0.7067  0.9563 -0.7473
37017SOL    HW216372  10.192  11.298   6.059 -0.0390 -0.6985 -0.6799
37018SOL     OW16373   9.379   2.299   8.416 -0.7495  0.0397  0.1860
37018SOL    HW116374   9.451   2.261   8.365  0.2452  0.3200  1.3194
37018SOL    HW216375   9.314   2.325   8.351  0.3828  0.1993 -0.9201
37019SOL     OW16376   6.405  10.975   6.464  0.0460  0.7818  0.0256
37019SOL    HW116377   6.342  10.910   6.432 -0.0029  0.7132  0.2552
37019SOL    HW216378   6.417  11.036   6.391 -1.1122  1.4158  0.3485
37020SOL     OW16379   0.340   2.562   5.685 -0.5103  0.2521  0.4318
37020SOL    HW116380   0.377   2.613   5.756  1.2222 -0.1303 -0.1609
37020SOL    HW216381   0.336   2.623   5.611  2.9593 -0.7020 -0.7197
37021SOL     OW16382   6.657   8.221   3.645 -0.3009  1.0401 -0.0826
37021SOL    HW116383   6.598   8.194   3.716  1.0897  0.3279  0.8512
37021SOL    HW216384   6.656   8.147   3.584  1.1387  0.1259  0.9451
37022SOL     OW16385   3.813   1.017   2.616 -0.1783  0.2030 -0.3703
37022SOL    HW116386   3.901   1.043   2.643 -0.0340 -0.2522 -0.4060
37022SOL    HW216387   3.816   0.922   2.611 -0.5905  0.2034 -0.6592
37023SOL     OW16388   9.496   0.200  10.568  0.4375 -0.4968  0.0834
37023SOL    HW116389   9.568   0.259  10.545  1.0529 -1.8996 -1.8708
37023SOL    HW216390   9.450   0.244  10.639  2.0982  1.3325  0.0929
37024SOL     OW16391   7.744   1.136  11.644  0.5849  0.3527 -0.5509
37024SOL    HW116392   7.814   1.200  11.632 -1.2075  2.1152 -2.4653
37024SOL    HW216393   7.698   1.166  11.723 -0.2529  1.5273 -1.4422
37025SOL     OW16394   7.733   9.233   3.502 -0.3129  0.0465  0.3398
37025SOL    HW116395   7.680   9.162   3.466  1.2863 -1.1177  0.1767
37025SOL    HW216396   7.820   9.221   3.464  0.4172  1.1378  1.5552
37026SOL     OW16397   5.060   8.182   9.546 -0.1130  0.2266 -0.1145
37026SOL    HW116398   5.059   8.267   9.501  0.6419 -0.2692 -1.0958
37026SOL    HW216399   4.970   8.150   9.538 -0.5838  1.2030  0.8431
37027SOL     OW16400   0.510   5.320   1.418 -0.1751  0.0354 -0.6331
37027SOL    HW116401   0.536   5.407   1.388  1.2685 -0.1112  0.1170
37027SOL    HW216402   0.418   5.330   1.443 -0.8744  0.6394 -3.1373
37028SOL     OW16403  10.258   0.648   3.222 -0.4475 -0.5755  0.3641
37028SOL    HW116404  10.186   0.636   3.160 -0.9512  0.7250  0.6786
37028SOL    HW216405  10.215   0.652   3.308  0.2194 -2.1065  0.8132
37029SOL     OW16406  10.376  10.355   9.775  0.1967 -0.3542  0.0796
37029SOL    HW116407  10.408  10.335   9.863 -0.7558  1.3486  0.8635
37029SOL    HW216408  10.290  10.315   9.771  0.6297 -1.2641 -0.4625
37030SOL     OW16409   5.052  11.703   5.522 -1.0125  0.2502  0.1602
37030SOL    HW116410   4.973  11.687   5.575 -0.7541 -3.4223 -0.2651
37030SOL    HW216411   5.019  11.713   5.433 -1.1049 -2.1563 -0.1583
37031SOL     OW16412  10.429   7.742   3.766 -0.0744  0.4681 -0.2842
37031SOL    HW116413  10.472   7.732   3.681 -2.4999  0.4078 -1.5922
37031SOL    HW216414  10.453   7.830   3.796  1.5756  0.1251 -0.5441
37032SOL     OW16415   4.088   3.964  10.379 -0.3033 -0.3227  0.0504
37032SOL    HW116416   4.070   4.031  10.445 -2.3729 -1.2869  0.5527
37032SOL    HW216417   4.149   3.904  10.421  0.3721  0.4156  0.1463
37033SOL     OW16418   5.908   9.778   3.445  0.7015  0.0403 -0.4205
37033SOL    HW116419   5.918   9.842   3.516  0.0175 -0.9499  0.6163
37033SOL    HW216420   5.918   9.829   3.365  2.0679  1.0935  0.3842
37034SOL     OW16421   1.355   2.581  10.224 -0.1600 -0.2010 -0.0857
37034SOL    HW116422   1.338   2.593  10.317 -0.8877 -0.3295 -0.1961
37034SOL    HW216423   1.339   2.667  10.185  1.0815  0.0983  0.0322
37035SOL     OW16424   7.359   1.924   7.303 -0.1412 -0.2749  0.2586
37035SOL    HW116425   7.434   1.866   7.315 -1.1285 -1.5177  0.7589
37035SOL    HW216426   7.392   1.998   7.253  0.9846 -1.6924 -1.1754
37036SOL     OW16427   3.390   9.579   7.483  0.0365 -0.0766  0.1338
37036SOL    HW116428   3.359   9.637   7.551 -2.2354  0.1101 -0.9929
37036SOL    HW216429   3.486   9.588   7.486 -0.1809  3.1236  0.4860
37037SOL     OW16430   8.540   1.835   6.917 -0.6388 -0.0175 -0.0561
37037SOL    HW116431   8.586   1.792   6.989 -1.0798 -1.0891 -0.3950
37037SOL    HW216432   8.464   1.780   6.901 -0.5724  0.2226 -1.3146
37038SOL     OW16433   5.252   5.950   2.593 -0.8785  0.6765  0.5681
37038SOL    HW116434   5.305   5.882   2.634 -0.5583  0.0640 -0.7966
37038SOL    HW216435   5.315   6.008   2.552 -1.2049  0.8786  0.3513
37039SOL     OW16436   5.945   6.614   2.900 -0.6315  0.2828 -0.5319
37039SOL    HW116437   5.999   6.667   2.959 -0.2355 -0.1646 -0.4841
37039SOL    HW216438   5.859   6.656   2.901 -0.0920  1.4680 -1.1893
37040SOL     OW16439   3.360   5.738   5.850  0.5386  0.0521 -0.2160
37040SOL    HW116440   3.434   5.785   5.813 -1.0770  1.0260 -2.4442
37040SOL    HW216441   3.349   5.662   5.793 -1.1840  0.8679 -1.0748
37041SOL     OW16442   9.651   6.936   7.712 -0.3856 -0.3628 -0.2779
37041SOL    HW116443   9.656   7.007   7.776  0.2011 -1.2497  0.6995
37041SOL    HW216444   9.729   6.883   7.729  1.1322  0.6557 -3.3503
37042SOL     OW16445   7.776   7.271   9.020  0.3921  0.4417  0.4554
37042SOL    HW116446   7.744   7.354   9.057 -0.5189 -0.1487  1.0165
37042SOL    HW216447   7.696   7.225   8.993  0.9395  0.0739 -0.5839
37043SOL     OW16448   2.273   3.020   9.013  0.1681  0.2568  0.5417
37043SOL    HW116449   2.199   3.078   8.994 -1.0635 -1.2001  0.7083
37043SOL    HW216450   2.233   2.943   9.054  1.9627  0.1347  2.2128
37044SOL     OW16451   6.733   6.064   1.821  0.0708 -0.2218  0.9784
37044SOL    HW116452   6.788   6.086   1.896 -1.4991 -0.2268  2.1898
37044SOL    HW216453   6.652   6.030   1.860 -1.6355  1.7173 -0.6232
37045SOL     OW16454   8.929   0.378   3.931  0.2372  0.5698 -0.7317
37045SOL    HW116455   8.851   0.432   3.920  0.1287  0.7751  0.7835
37045SOL    HW216456   8.915   0.333   4.014  1.5849  0.3629 -0.5975
37046SOL     OW16457  11.471   2.262   1.257  0.0379 -0.2938  0.0143
37046SOL    HW116458  11.397   2.323   1.257 -0.0525 -0.4038  0.1830
37046SOL    HW216459  11.499   2.258   1.349 -1.1083 -1.9015  0.3356
37047SOL     OW16460  10.789  10.256   9.319 -0.0877  0.4102 -0.3025
37047SOL    HW116461  10.783  10.289   9.409  1.5537 -2.2200  0.9100
37047SOL    HW216462  10.857  10.189   9.323 -0.3180 -0.1487 -3.4333
37048SOL     OW16463  10.028   0.766   4.877  0.4743 -0.0686  0.3277
37048SOL    HW116464   9.989   0.796   4.958  1.2382  1.0358  0.3081
37048SOL    HW216465  10.112   0.812   4.872  0.9768 -1.0144 -0.5024
37049SOL     OW16466   6.398   3.120   7.953  0.2048 -0.6660 -0.6691
37049SOL    HW116467   6.446   3.196   7.920 -1.0234  1.1028  1.3737
37049SOL    HW216468   6.423   3.114   8.045 -1.8331 -1.0046 -0.1026
37050SOL     OW16469   5.220   5.554   5.081 -0.5844 -0.1097 -0.5301
37050SOL    HW116470   5.294   5.612   5.061 -1.3759  1.1204  0.0145
37050SOL    HW216471   5.177   5.541   4.997 -0.5905  0.3653 -0.6030
37051SOL     OW16472   3.829   6.359   7.949 -0.2622  0.2358 -0.0965
37051SOL    HW116473   3.916   6.370   7.987 -0.0248 -0.6502 -0.3581
37051SOL    HW216474   3.812   6.265   7.954 -1.3508  0.4401  0.2524
37052SOL     OW16475   5.782  11.404  11.345 -0.2188  0.4601 -0.0950
37052SOL    HW116476   5.698  11.373  11.379 -0.6926  1.4249 -0.3684
37052SOL    HW216477   5.763  11.488  11.304  1.3680  2.1780  2.3932
37053SOL     OW16478  10.636   6.084  11.753 -0.0099  0.4241  0.2641
37053SOL    HW116479  10.592   6.169  11.747 -0.6032  0.2067  1.2913
37053SOL    HW216480  10.567   6.020  11.735  0.3395  0.1358 -0.0812
37054SOL     OW16481   3.673  10.298  11.790  0.4231 -0.1546 -0.6035
37054SOL    HW116482   3.718  10.364  11.843 -0.2193 -0.6005  0.5340
37054SOL    HW216483   3.634  10.239  11.854 -0.0337 -0.9542 -1.5948
37055SOL     OW16484  10.037   9.689   1.777 -0.3358 -0.5938 -0.3028
37055SOL    HW116485   9.957   9.721   1.734 -0.4917  1.9801  1.6833
37055SOL    HW216486  10.005   9.644   1.855  0.1039 -1.2070 -0.4738
37056SOL     OW16487   8.035   6.231   6.745  0.2424  0.1520  0.0331
37056SOL    HW116488   8.016   6.291   6.817 -0.3984  1.1777 -0.9605
37056SOL    HW216489   8.130   6.227   6.742  0.3440  2.1099 -0.6439
37057SOL     OW16490   5.219  10.711  10.096 -0.2105  0.3574 -0.2619
37057SOL    HW116491   5.283  10.782  10.089 -0.5497  0.7569  0.6130
37057SOL    HW216492   5.192  10.694  10.006  0.4419  0.8065 -0.5504
37058SOL     OW16493   5.734   6.341   8.441 -0.2729  0.0734 -0.3590
37058SOL    HW116494   5.747   6.250   8.416  2.6520  0.1236  0.5866
37058SOL    HW216495   5.741   6.390   8.359  4.3677 -0.1548 -0.3649
37059SOL     OW16496   8.513   1.076   2.159 -0.2724  0.1017  0.1613
37059SOL    HW116497   8.461   1.074   2.079  1.3170  1.0801 -0.9539
37059SOL    HW216498   8.449   1.094   2.229 -2.4025 -4.8661 -0.1470
37060SOL     OW16499   4.026   7.715  10.127 -0.3166 -0.0824  0.0281
37060SOL    HW116500   4.035   7.750  10.216 -1.2267  0.4086 -0.0606
37060SOL    HW216501   3.953   7.653  10.133 -1.0927  0.7497 -0.5910
37061SOL     OW16502  10.455   1.268   0.657  0.4788 -0.3390 -0.3344
37061SOL    HW116503  10.378   1.252   0.602  1.1255 -0.8451 -1.1249
37061SOL    HW216504  10.528   1.270   0.595  1.2566 -1.1110  0.5194
37062SOL     OW16505   8.399   3.870   4.110  0.4848  0.1292  0.5317
37062SOL    HW116506   8.310   3.905   4.107  0.2581 -0.4634  0.2143
37062SOL    HW216507   8.449   3.937   4.156  0.7230  2.3406 -2.6344
37063SOL     OW16508   3.433  11.517   0.664  0.5261  0.1240 -0.1594
37063SOL    HW116509   3.383  11.440   0.637 -1.4531  0.9055  1.0064
37063SOL    HW216510   3.524  11.495   0.646 -0.0661 -2.1231 -0.6799
37064SOL     OW16511   0.184   9.925   8.766 -0.4486  0.1785 -0.4384
37064SOL    HW116512   0.175   9.991   8.834  0.3939  1.1341 -1.2090
37064SOL    HW216513   0.142   9.847   8.801  1.3139  0.1424  1.8366
37065SOL     OW16514   3.453  11.356   3.220  0.3269 -1.3471  0.1942
37065SOL    HW116515   3.540  11.394   3.232  0.2391 -0.8828 -0.5711
37065SOL    HW216516   3.409  11.415   3.158 -1.0187 -0.8122  1.5922
37066SOL     OW16517   8.839   7.097   3.601  0.5144  0.3049 -0.2120
37066SOL    HW116518   8.746   7.083   3.586 -0.4326  2.3200  2.8570
37066SOL    HW216519   8.866   7.154   3.528 -0.8024  0.2354 -0.7901
37067SOL     OW16520   3.020   2.982   6.959 -0.6985 -0.1968 -0.2350
37067SOL    HW116521   3.092   2.920   6.964 -0.3833  0.1715 -0.1714
37067SOL    HW216522   2.999   3.002   7.050 -1.1598 -0.6187 -0.2426
37068SOL     OW16523   3.610   9.984   7.582  0.8651 -0.2659  0.2528
37068SOL    HW116524   3.703   9.969   7.567  0.6066 -0.2602 -1.5532
37068SOL    HW216525   3.587   9.923   7.653  2.6607  1.2599  2.2611
37069SOL     OW16526   5.732   4.911  10.835 -0.3576  0.7450 -0.0930
37069SOL    HW116527   5.729   4.867  10.750 -2.0528 -0.4606  0.5317
37069SOL    HW216528   5.761   4.843  10.896  1.3702  1.7417  0.2693
37070SOL     OW16529   5.142   0.200   4.358  0.1455 -0.1551 -0.2544
37070SOL    HW116530   5.222   0.207   4.410  1.4701 -1.9586 -1.9424
37070SOL    HW216531   5.151   0.266   4.290 -0.0314 -0.0767 -0.2047
37071SOL     OW16532   4.262   6.971   0.745 -0.2490  0.0838 -0.3907
37071SOL    HW116533   4.295   6.902   0.687  1.4849  0.5404  0.0186
37071SOL    HW216534   4.202   6.926   0.804 -0.6263 -0.7158 -1.3614
37072SOL     OW16535   4.027   4.742   0.548 -0.2913 -0.0263 -0.4257
37072SOL    HW116536   4.086   4.748   0.623  1.2304 -2.7568 -1.2822
37072SOL    HW216537   4.053   4.815   0.492  2.3436 -1.1005 -0.7371
37073SOL     OW16538   0.930   7.854   3.003  0.4869  0.3130 -0.1492
37073SOL    HW116539   0.948   7.760   3.007  2.1529  0.6334  1.4391
37073SOL    HW216540   0.979   7.891   3.077 -2.6521  2.0732  1.2678
37074SOL     OW16541   4.317   9.354   2.710 -0.0928 -0.4528  0.6497
37074SOL    HW116542   4.405   9.321   2.730  0.2044 -0.3991 -0.4895
37074SOL    HW216543   4.286   9.298   2.639 -0.8066 -0.1840  0.7418
37075SOL     OW16544   6.484   6.132   1.094 -0.0178 -0.5211 -0.0075
37075SOL    HW116545   6.517   6.170   1.176 -2.4883  2.4945 -0.2619
37075SOL    HW216546   6.543   6.166   1.027 -0.1655  0.0277  0.1382
37076SOL     OW16547   8.675   8.555   5.424  0.1372  0.2090  0.3351
37076SOL    HW116548   8.758   8.532   5.466 -0.9907 -2.3535  1.3925
37076SOL    HW216549   8.608   8.519   5.482 -1.6793  1.1416 -1.0908
37077SOL     OW16550   8.209   8.840   2.837  0.2016  0.4743 -0.1451
37077SOL    HW116551   8.241   8.750   2.839 -0.3365  0.2345 -1.2768
37077SOL    HW216552   8.270   8.886   2.780  0.0778  0.6602 -0.1302
37078SOL     OW16553   0.652   1.805   0.752 -0.8127  0.1114  0.3015
37078SOL    HW116554   0.568   1.788   0.709 -1.0305  1.6801  0.0173
37078SOL    HW216555   0.629   1.836   0.840 -0.5373  0.3407  0.2976
37079SOL     OW16556   2.465   9.392   7.903 -0.3422 -0.0268  0.4888
37079SOL    HW116557   2.540   9.386   7.962 -0.3643 -0.6332  0.4611
37079SOL    HW216558   2.494   9.346   7.823  0.4335  2.4777 -0.7819
37080SOL     OW16559   0.626   4.573   8.494  0.2777 -0.3070  0.8014
37080SOL    HW116560   0.671   4.645   8.451  2.1279 -0.7153  1.9154
37080SOL    HW216561   0.568   4.536   8.427  1.3317  0.5002 -0.5934
37081SOL     OW16562   1.243   2.710   1.055  0.5549  0.1018 -0.0171
37081SOL    HW116563   1.255   2.715   0.960 -2.1125 -1.5015 -0.5446
37081SOL    HW216564   1.323   2.667   1.087  1.3171  0.3007 -1.5664
37082SOL     OW16565   8.769   8.070   0.941 -0.0812 -0.1718  0.0881
37082SOL    HW116566   8.780   8.055   0.847 -1.0556  1.5232 -0.3372
37082SOL    HW216567   8.858   8.079   0.974  0.3137 -1.6868 -0.4805
37083SOL     OW16568   9.580   3.161   3.845  0.1441 -0.1696  0.7047
37083SOL    HW116569   9.498   3.159   3.796  0.4960 -1.2913  0.1444
37083SOL    HW216570   9.648   3.174   3.779  0.4470  0.4168  1.1278
37084SOL     OW16571   5.438   0.771  10.442  0.3003 -0.5554  0.1408
37084SOL    HW116572   5.442   0.825  10.521 -2.2576 -1.9529  1.3613
37084SOL    HW216573   5.480   0.825  10.374 -3.3155  3.7725  0.8354
37085SOL     OW16574  10.713  10.764   0.711 -0.3046  0.0289 -0.3922
37085SOL    HW116575  10.638  10.725   0.756 -0.5882 -0.2009 -1.0585
37085SOL    HW216576  10.676  10.801   0.631  0.4760 -1.1733 -1.3414
37086SOL     OW16577   0.484   7.233   0.370  0.0625  0.1918 -0.1809
37086SOL    HW116578   0.546   7.187   0.427  0.6799 -0.7135 -1.5586
37086SOL    HW216579   0.519   7.322   0.365  0.0694  0.2560  0.7348
37087SOL     OW16580   9.222   3.148   5.753  0.1756  0.0816  0.0802
37087SOL    HW116581   9.271   3.160   5.834 -0.5214 -1.1784  0.7079
37087SOL    HW216582   9.276   3.191   5.686  0.5917  1.4294  1.2370
37088SOL     OW16583   5.618   4.590   4.099 -0.3611 -0.1192 -0.1918
37088SOL    HW116584   5.678   4.524   4.065 -0.3321 -0.0652 -0.2450
37088SOL    HW216585   5.548   4.595   4.034  1.0415  1.9467 -1.6667
37089SOL     OW16586   8.919   7.645   5.442  0.3795  0.4913  0.0787
37089SOL    HW116587   8.897   7.691   5.361  1.1821 -1.6783 -1.4735
37089SOL    HW216588   9.015   7.649   5.447  0.4129 -0.3681  0.2878
37090SOL     OW16589   9.309  11.092   2.052  0.6140 -0.0683 -0.0208
37090SOL    HW116590   9.286  11.025   1.987 -0.0177  0.5432 -0.4370
37090SOL    HW216591   9.392  11.128   2.021 -0.1795  0.9260 -1.0693
37091SOL     OW16592   7.387   9.382   2.573  0.1659 -0.5446  0.2291
37091SOL    HW116593   7.381   9.463   2.523 -2.6298 -0.5318  0.4469
37091SOL    HW216594   7.304   9.337   2.558  0.7650 -2.3591  1.8348
37092SOL     OW16595   2.746  11.007   5.518 -0.0445  0.8827  0.2292
37092SOL    HW116596   2.725  11.081   5.462  2.2087  1.1832 -0.3064
37092SOL    HW216597   2.753  10.932   5.458 -3.3608 -0.0971  0.8802
37093SOL     OW16598   7.253   3.293   2.790 -0.2944  0.6108 -0.2599
37093SOL    HW116599   7.311   3.255   2.855  0.4205  1.0319 -0.6380
37093SOL    HW216600   7.172   3.243   2.798  0.5179 -0.7943 -0.5616
37094SOL     OW16601   9.036   7.882  11.431  0.0179  0.6300 -0.0871
37094SOL    HW116602   8.988   7.804  11.402  0.0337 -0.0369  1.5657
37094SOL    HW216603   9.016   7.888  11.525  0.8294  2.0445  0.0135
37095SOL     OW16604   8.563   1.363   4.548  0.1876 -0.2444 -0.2547
37095SOL    HW116605   8.487   1.308   4.564 -0.9996  0.9716 -1.4004
37095SOL    HW216606   8.630   1.331   4.609 -1.5183 -0.7855  1.4188
37096SOL     OW16607   4.873  10.142   3.563  0.2554 -0.3664  0.0910
37096SOL    HW116608   4.801  10.084   3.584  1.0491 -1.1174  0.8164
37096SOL    HW216609   4.905  10.173   3.648 -0.0276  0.9904 -0.2707
37097SOL     OW16610   2.946   9.518  11.702  0.1292 -0.2946 -0.0086
37097SOL    HW116611   2.945   9.567  11.784 -0.2451 -0.2716 -0.0255
37097SOL    HW216612   2.963   9.428  11.729 -1.3844 -0.5369  0.2396
37098SOL     OW16613  10.820  10.648   8.305 -0.1676  0.7452  0.4074
37098SOL    HW116614  10.730  10.666   8.331 -0.7119  1.4412 -1.7940
37098SOL    HW216615  10.870  10.720   8.343 -0.6879  0.9470  0.7268
37099SOL     OW16616  10.159   1.314   0.025 -0.1806 -0.1345  0.2565
37099SOL    HW116617  10.105   1.378   0.072 -0.6027 -0.0508 -0.3313
37099SOL    HW216618  10.139   1.230   0.066 -2.0085 -0.3675 -0.9839
37100SOL     OW16619   1.146   6.727   9.225  0.0926  0.2150 -0.2002
37100SOL    HW116620   1.132   6.635   9.203 -2.2507  0.6726 -0.8034
37100SOL    HW216621   1.189   6.763   9.148 -1.5764  0.2225 -1.1622
37101SOL     OW16622   1.125   5.345   6.032 -0.1176 -0.2280 -0.0035
37101SOL    HW116623   1.059   5.346   5.963  0.7202  2.6580 -0.9191
37101SOL    HW216624   1.102   5.270   6.087 -2.8843 -0.5459 -1.4386
37102SOL     OW16625   9.356   9.157   2.160 -0.5593  0.1434 -0.3001
37102SOL    HW116626   9.288   9.222   2.145 -2.0157 -0.9537  1.2253
37102SOL    HW216627   9.322   9.077   2.120  1.0301  0.1369 -1.7917
37103SOL     OW16628   3.260   0.513   6.542  0.0654 -0.1149 -0.0760
37103SOL    HW116629   3.221   0.470   6.617  0.9257  0.6752  0.8518
37103SOL    HW216630   3.192   0.511   6.474 -0.5902 -1.1449  0.5957
37104SOL     OW16631   2.263   5.046   2.026  0.1670  0.1849  0.5254
37104SOL    HW116632   2.316   4.999   1.962 -2.7371  0.2713 -2.2160
37104SOL    HW216633   2.222   5.117   1.977 -2.3845  0.1697  2.3766
37105SOL     OW16634   5.639   8.711   9.444  0.3389  0.0579 -1.0050
37105SOL    HW116635   5.673   8.622   9.441  0.6462  0.2078 -2.8460
37105SOL    HW216636   5.691   8.754   9.512 -1.7077 -1.8418  2.0082
37106SOL     OW16637   5.175   6.543  11.752 -0.0290 -0.7731 -0.2686
37106SOL    HW116638   5.216   6.457  11.745  0.5635 -0.5504  0.3788
37106SOL    HW216639   5.229   6.590  11.815 -1.0735 -0.3473  0.3415
37107SOL     OW16640   6.992   1.908   0.966  0.0410  0.2823  0.4951
37107SOL    HW116641   6.995   1.936   0.875  1.0760  0.9218  0.6998
37107SOL    HW216642   7.034   1.822   0.967 -0.2161  0.1539  0.3358
37108SOL     OW16643   9.370  11.252   8.477 -0.2128  1.2092 -0.3895
37108SOL    HW116644   9.325  11.177   8.437 -0.1226  0.6964  0.4442
37108SOL    HW216645   9.448  11.265   8.423  1.9445 -1.8798  1.6950
37109SOL     OW16646   0.379   9.355   1.112  0.2461  0.4214  0.2824
37109SOL    HW116647   0.345   9.441   1.138  0.1515  0.7905 -0.9915
37109SOL    HW216648   0.392   9.308   1.194 -0.2578  1.4474  0.9644
37110SOL     OW16649  10.243   8.414   4.963  0.1721 -0.3257 -0.1970
37110SOL    HW116650  10.245   8.485   5.027 -1.1336  0.6573 -1.1755
37110SOL    HW216651  10.326   8.368   4.975  1.4066  1.8169 -0.0127
37111SOL     OW16652   2.297   7.896   6.412  0.1521  0.0915 -0.0452
37111SOL    HW116653   2.323   7.984   6.384 -0.7011 -0.5470 -3.2281
37111SOL    HW216654   2.280   7.905   6.506  0.5333  3.1894 -0.1597
37112SOL     OW16655   6.650   2.181   8.440 -0.9618 -0.4434 -0.3758
37112SOL    HW116656   6.655   2.276   8.434 -1.0587 -0.4811 -1.2013
37112SOL    HW216657   6.599   2.155   8.363 -0.0930 -1.2347 -0.7030
37113SOL     OW16658  11.077   4.150   1.800 -0.0027 -0.2791 -0.1954
37113SOL    HW116659  11.058   4.216   1.866 -1.5446  0.8064 -1.6649
37113SOL    HW216660  11.140   4.192   1.741 -1.1529  0.0003 -1.2564
37114SOL     OW16661  11.110   1.890   3.758  0.0938 -0.2866 -0.7802
37114SOL    HW116662  11.090   1.945   3.682  0.0838  0.4414 -0.2601
37114SOL    HW216663  11.204   1.902   3.772 -0.2689  1.2732  0.5982
37115SOL     OW16664   9.514   4.562   5.419  0.7767 -0.1049 -0.2060
37115SOL    HW116665   9.546   4.502   5.352  3.1862  0.6331  0.2085
37115SOL    HW216666   9.521   4.512   5.500 -0.1722 -0.2914 -0.2285
37116SOL     OW16667   2.008   3.926  10.984 -0.3009 -0.3650  0.4458
37116SOL    HW116668   1.965   4.010  10.970  1.2551  0.2799 -0.7935
37116SOL    HW216669   1.993   3.907  11.077 -1.7991  0.6086  0.4398
37117SOL     OW16670   6.942   3.661   1.628 -0.3429  0.0433  0.1036
37117SOL    HW116671   7.019   3.636   1.680 -0.3692  0.7773  0.5068
37117SOL    HW216672   6.887   3.583   1.628  1.0407 -0.9890 -1.4106
37118SOL     OW16673   7.707  11.627   5.922 -0.2392 -0.4138 -0.3180
37118SOL    HW116674   7.737  11.604   6.010  2.2047 -3.1391 -1.6893
37118SOL    HW216675   7.739  11.717   5.909  0.2635 -0.3412  1.2060
37119SOL     OW16676   0.669  11.170   8.408 -0.1139 -0.4704 -0.1639
37119SOL    HW116677   0.749  11.215   8.379  1.3512 -0.6509  3.0594
37119SOL    HW216678   0.602  11.238   8.407  1.2077  0.9527  1.2625
37120SOL     OW16679   3.442   6.209   3.624  0.1963  0.4297  0.0922
37120SOL    HW116680   3.455   6.258   3.542 -2.1918 -0.2367 -0.7568
37120SOL    HW216681   3.473   6.121   3.604 -2.3632 -0.3339 -0.9207
37121SOL     OW16682   4.250   1.548   0.340 -0.3259  0.8170  0.7454
37121SOL    HW116683   4.176   1.524   0.397  0.9855 -0.2541  2.0795
37121SOL    HW216684   4.246   1.484   0.269 -0.6214  0.6844  0.8738
37122SOL     OW16685   8.666   3.808   5.352  0.0170 -0.4698  0.1821
37122SOL    HW116686   8.617   3.726   5.352 -0.7747 -0.0107 -0.3476
37122SOL    HW216687   8.667   3.836   5.443  0.3719 -1.1111  0.3799
37123SOL     OW16688   2.756   5.975   5.227  0.5044 -0.8255  0.2662
37123SOL    HW116689   2.826   5.928   5.182  0.0200 -0.7285 -0.6057
37123SOL    HW216690   2.802   6.029   5.293  1.1375 -1.7040  0.5614
37124SOL     OW16691   4.540   8.662   7.591 -0.3049 -0.1317  0.0131
37124SOL    HW116692   4.484   8.644   7.516 -1.7713  0.0017  1.0306
37124SOL    HW216693   4.593   8.583   7.602 -1.1518 -0.7456 -0.2507
37125SOL     OW16694  10.413  10.428  10.641 -0.0060  0.4786  0.2877
37125SOL    HW116695  10.438  10.338  10.621  0.3989  0.3636  1.2617
37125SOL    HW216696  10.481  10.459  10.700 -0.6333  1.1228  0.6793
37126SOL     OW16697   5.558   9.884  11.104  0.9070  0.1969 -0.3593
37126SOL    HW116698   5.523   9.849  11.022  0.1735  1.0908 -0.4515
37126SOL    HW216699   5.520   9.828  11.172 -0.2162  0.7316 -0.5095
37127SOL     OW16700  10.784   5.562   7.323 -0.1718  0.5692 -0.1353
37127SOL    HW116701  10.709   5.517   7.284  0.4742 -0.7536  0.1084
37127SOL    HW216702  10.778   5.540   7.416  1.9146 -1.6919 -0.4561
37128SOL     OW16703   2.594   7.074   9.541 -0.2045  0.0631  0.0135
37128SOL    HW116704   2.505   7.054   9.511 -0.0346 -0.2930 -0.2582
37128SOL    HW216705   2.641   7.099   9.462  0.2384 -0.8546 -0.0302
37129SOL     OW16706   2.731   7.949   3.544 -0.1907 -0.0168 -0.4309
37129SOL    HW116707   2.775   8.031   3.564  0.8366 -0.8466  0.9245
37129SOL    HW216708   2.762   7.925   3.457 -0.2566  0.8540 -0.7029
37130SOL     OW16709   0.272   9.258   3.542  0.2130  0.1927 -0.1683
37130SOL    HW116710   0.348   9.203   3.520  0.8972  1.3129 -0.6787
37130SOL    HW216711   0.204   9.229   3.480 -0.4160 -2.0547  1.4505
37131SOL     OW16712   7.768   6.918   7.815  0.1959 -0.0974 -0.0043
37131SOL    HW116713   7.774   7.001   7.766 -2.3828  0.8738  1.1280
37131SOL    HW216714   7.680   6.886   7.795  0.6693 -1.8845  0.6692
37132SOL     OW16715  10.826   4.332  10.249  0.6413 -0.6038 -0.2934
37132SOL    HW116716  10.763   4.363  10.184 -0.0589  0.8410  1.0171
37132SOL    HW216717  10.900   4.299  10.197 -0.2576 -0.3322 -1.8148
37133SOL     OW16718   5.739   3.461   1.693  0.3957 -0.0259  0.5770
37133SOL    HW116719   5.821   3.460   1.742  0.0734  0.4410  1.1370
37133SOL    HW216720   5.744   3.541   1.640  0.6173 -0.3792  0.0577
37134SOL     OW16721   1.563  11.609   5.166  0.0814 -0.1693  0.4394
37134SOL    HW116722   1.625  11.679   5.144 -0.1929 -0.2679 -0.7025
37134SOL    HW216723   1.522  11.638   5.248  0.6566  0.5415  0.4873
37135SOL     OW16724   9.763   1.654   6.655  0.1048  0.7659 -0.4048
37135SOL    HW116725   9.736   1.566   6.681  0.5035  0.4261 -1.1063
37135SOL    HW216726   9.824   1.681   6.724  2.9465 -1.0372 -2.0232
37136SOL     OW16727   2.191   3.948   5.617 -0.4982  0.0743  0.3506
37136SOL    HW116728   2.107   3.991   5.602  0.1982  1.0566 -1.0161
37136SOL    HW216729   2.224   3.988   5.698 -1.1175  0.0349  0.6309
37137SOL     OW16730  10.109   6.470   9.904  0.0572  0.1436 -0.2341
37137SOL    HW116731  10.145   6.558   9.921 -1.8508  1.1636 -1.2256
37137SOL    HW216732  10.076   6.442   9.989 -2.0844  1.7445 -0.4659
37138SOL     OW16733   8.359   5.529   2.674  0.2162 -0.2081  0.2921
37138SOL    HW116734   8.395   5.500   2.589  0.5840 -0.4616  0.5313
37138SOL    HW216735   8.344   5.623   2.663 -0.4405 -0.3713 -0.3033
37139SOL     OW16736  10.988   0.566   1.205 -0.4021 -0.2940  0.5620
37139SOL    HW116737  11.018   0.578   1.296 -0.5398 -0.4153  0.6223
37139SOL    HW216738  11.064   0.590   1.152 -0.8656  1.5510  0.6642
37140SOL     OW16739   5.923   4.708   0.176 -0.1574  0.2711  0.1168
37140SOL    HW116740   5.946   4.670   0.091  1.7274 -0.4273  0.9026
37140SOL    HW216741   5.854   4.772   0.155 -0.0392 -0.1809 -1.8663
37141SOL     OW16742   3.554  10.886   9.819  0.5872 -0.0326 -0.0751
37141SOL    HW116743   3.474  10.899   9.768  1.1790 -0.4291 -1.1182
37141SOL    HW216744   3.527  10.904   9.910 -0.2727  1.5605 -0.5989
37142SOL     OW16745   3.804   6.936   7.361  0.3007 -0.4259 -0.2198
37142SOL    HW116746   3.818   6.965   7.451  3.7324 -1.0740 -0.3728
37142SOL    HW216747   3.750   6.858   7.369 -1.0090  0.5728  1.0682
37143SOL     OW16748   9.971   5.027   9.594  0.3096  0.7908 -0.1654
37143SOL    HW116749  10.052   5.051   9.549  1.6556  0.1881  1.8251
37143SOL    HW216750   9.984   4.935   9.618 -1.7822  0.1034 -1.4198
37144SOL     OW16751   3.196   9.133   3.748 -0.2015  0.3359  0.6843
37144SOL    HW116752   3.267   9.069   3.738 -1.0018 -0.4621 -0.0375
37144SOL    HW216753   3.116   9.084   3.727 -0.8655  1.5091  0.3818
37145SOL     OW16754   9.468   6.989  11.153 -0.5366  0.2641 -0.5448
37145SOL    HW116755   9.495   6.898  11.169  0.2085  0.2483 -1.7749
37145SOL    HW216756   9.551   7.036  11.140 -0.9294  1.0921 -0.1124
37146SOL     OW16757   0.750  10.648   0.853 -0.5497  0.1419 -0.1441
37146SOL    HW116758   0.704  10.710   0.910 -0.5888 -0.6671  0.7304
37146SOL    HW216759   0.685  10.579   0.837 -0.5187  0.3304 -1.1363
37147SOL     OW16760   3.479   9.553   5.080 -0.5007  0.8585 -0.1385
37147SOL    HW116761   3.490   9.625   5.142 -0.7149  0.7694  0.0054
37147SOL    HW216762   3.564   9.546   5.036  0.4432 -0.5939  1.7728
37148SOL     OW16763   8.780   4.020   6.860 -0.5245 -0.1686 -0.3833
37148SOL    HW116764   8.786   3.949   6.796  0.4797 -0.5272  0.0792
37148SOL    HW216765   8.870   4.033   6.889 -0.9610 -0.0226  0.9722
37149SOL     OW16766   9.108  10.953   3.379  0.0959  0.1186  0.1804
37149SOL    HW116767   9.177  10.890   3.358 -0.1549 -0.1624  0.2063
37149SOL    HW216768   9.108  10.958   3.475 -1.7991 -1.9875  0.3524
37150SOL     OW16769   0.420   1.795   2.779  0.0497 -0.4669  0.3840
37150SOL    HW116770   0.493   1.737   2.759  0.3608 -0.6257  1.8484
37150SOL    HW216771   0.456   1.883   2.766 -0.1157 -0.5637 -0.8334
37151SOL     OW16772   2.270   7.837   0.220  0.6314 -0.3085  0.3377
37151SOL    HW116773   2.350   7.871   0.261  0.1531 -1.0496  1.9603
37151SOL    HW216774   2.266   7.746   0.250 -0.7972 -0.2865  0.2393
37152SOL     OW16775   5.063   1.920  10.923  0.0339 -0.5424  0.7191
37152SOL    HW116776   5.045   1.957  11.010 -1.0713  0.0294  0.2605
37152SOL    HW216777   5.093   1.995  10.871 -2.2709 -0.2051 -0.2337
37153SOL     OW16778   8.412   8.087   9.185 -0.1082 -0.3049  0.2314
37153SOL    HW116779   8.381   8.043   9.265  0.3286 -0.6784  0.2011
37153SOL    HW216780   8.412   8.019   9.118 -2.2263  0.4202 -0.5734
37154SOL     OW16781   1.502   0.225   5.734  0.1078 -0.7861  0.7280
37154SOL    HW116782   1.565   0.248   5.802  1.4975 -2.0782 -0.0526
37154SOL    HW216783   1.524   0.135   5.710 -2.4895 -1.5611  0.8794
37155SOL     OW16784  10.150   6.046   4.864  0.1710  0.2819  0.1035
37155SOL    HW116785  10.127   6.056   4.956  1.1812 -1.2355  0.5627
37155SOL    HW216786  10.070   6.017   4.821  0.0510 -0.4863  0.8170
37156SOL     OW16787   5.145   7.024   5.746  0.1817 -0.1760 -0.0822
37156SOL    HW116788   5.238   7.025   5.772  0.5154  1.2362 -1.1815
37156SOL    HW216789   5.111   6.943   5.783  1.2408  0.4256  2.4331
37157SOL     OW16790   3.231   4.179  10.873  0.2523  0.2851  0.5453
37157SOL    HW116791   3.325   4.163  10.870  0.2242  0.2094  0.0362
37157SOL    HW216792   3.204   4.188  10.782 -0.1221  0.9988  0.7158
37158SOL     OW16793   7.603  10.207   7.714 -0.3051  0.4074 -0.1200
37158SOL    HW116794   7.686  10.186   7.671 -0.5242 -0.1278 -0.2970
37158SOL    HW216795   7.603  10.302   7.724 -0.4522  0.5881 -1.7172
37159SOL     OW16796   3.625  10.106   1.433  0.6497  0.4643 -0.2299
37159SOL    HW116797   3.557  10.039   1.446  0.4566  0.6121 -0.4595
37159SOL    HW216798   3.707  10.058   1.433  0.7040  0.4868  1.8812
37160SOL     OW16799   9.640   5.862   3.781 -0.2190 -0.3036  0.0093
37160SOL    HW116800   9.707   5.929   3.795 -0.9789  0.7588 -1.2519
37160SOL    HW216801   9.593   5.859   3.865  1.2003 -0.8740  0.8211
37161SOL     OW16802  11.757   5.120  10.359  0.2787 -0.4833  0.2622
37161SOL    HW116803  11.731   5.170  10.436 -0.3200  1.4418 -1.1119
37161SOL    HW216804  11.852   5.131  10.354  0.0869  1.2616 -0.4260
37162SOL     OW16805   8.999   8.644   2.415 -0.4819 -0.1571 -0.6355
37162SOL    HW116806   8.942   8.716   2.388 -0.8351 -0.8712 -1.8921
37162SOL    HW216807   9.082   8.661   2.371 -0.7456 -0.7985 -1.4125
37163SOL     OW16808   1.959   4.509   1.066 -0.2227 -0.4119  0.1243
37163SOL    HW116809   2.031   4.548   1.016 -0.7038  0.5506  0.1698
37163SOL    HW216810   1.999   4.484   1.149  0.2176 -0.5441 -0.1217
37164SOL     OW16811  10.193   9.787   4.936  0.2889 -0.0130 -0.3247
37164SOL    HW116812  10.183   9.781   5.031  1.2915  2.0405 -0.0292
37164SOL    HW216813  10.272   9.736   4.917 -0.0645 -0.6547 -0.1256
37165SOL     OW16814   6.529   1.286  11.084  0.1594 -0.1090  0.0256
37165SOL    HW116815   6.534   1.347  11.011  2.2088  1.7512  1.6002
37165SOL    HW216816   6.442   1.301  11.122  0.1312  0.8785 -0.4099
37166SOL     OW16817   6.953   3.625   5.567 -0.2120 -0.1958  0.2312
37166SOL    HW116818   6.972   3.589   5.480  0.1968 -1.1080  0.6838
37166SOL    HW216819   7.013   3.699   5.576 -0.0242 -0.3007 -0.1277
37167SOL     OW16820  10.486   4.731   6.031  0.4746  0.3930 -0.3295
37167SOL    HW116821  10.569   4.708   5.989  0.3588  0.4966 -0.6191
37167SOL    HW216822  10.501   4.717   6.124  0.6623 -0.0656 -0.4283
37168SOL     OW16823   8.627   3.816   7.490 -0.0667  0.3293 -0.1754
37168SOL    HW116824   8.719   3.792   7.499  0.0255  0.9329  0.6404
37168SOL    HW216825   8.608   3.805   7.397  0.4059 -1.2519 -0.1073
37169SOL     OW16826   7.100   2.783  10.595 -0.2601  0.1919  0.0145
37169SOL    HW116827   7.120   2.740  10.679  0.2876  1.0421  0.3372
37169SOL    HW216828   7.020   2.740  10.565 -0.0528 -0.6470  0.6024
37170SOL     OW16829  10.068   3.935   7.951 -0.6287  0.0665  0.4367
37170SOL    HW116830  10.081   3.905   7.861 -0.3697  1.0004  0.1453
37170SOL    HW216831   9.975   3.953   7.957 -1.2026 -2.6678  1.2495
37171SOL     OW16832   8.579   2.588   6.282  0.5482  0.0559  0.6366
37171SOL    HW116833   8.625   2.517   6.327 -0.6711  0.0343  1.9267
37171SOL    HW216834   8.638   2.615   6.212  1.8780 -0.9175  1.3492
37172SOL     OW16835  10.674   9.364   7.127  0.3296  0.3445  0.0522
37172SOL    HW116836  10.732   9.429   7.168  0.4613 -0.6472  1.5473
37172SOL    HW216837  10.678   9.289   7.187 -0.8900 -0.5153 -0.9120
37173SOL     OW16838   7.947   0.255  10.424  0.1427  0.1047  0.0972
37173SOL    HW116839   7.867   0.211  10.455 -1.2667  0.1459 -3.0977
37173SOL    HW216840   7.915   0.321  10.362  2.5119  2.5858  1.2901
37174SOL     OW16841   9.697  10.626  10.616  0.3424 -0.4082  0.4733
37174SOL    HW116842   9.779  10.616  10.665 -0.1426  0.1229  1.4339
37174SOL    HW216843   9.701  10.558  10.549  0.6349 -1.7780  1.8201
37175SOL     OW16844  10.329   4.579   8.659  0.3233 -0.1505  0.6448
37175SOL    HW116845  10.251   4.524   8.665 -0.1915  0.4211 -0.4263
37175SOL    HW216846  10.401   4.518   8.650 -0.0959 -0.6681  0.7462
37176SOL     OW16847   9.509   9.536   7.594 -0.4057 -0.5307 -0.2749
37176SOL    HW116848   9.457   9.491   7.661  0.6638  0.8318  1.5841
37176SOL    HW216849   9.541   9.615   7.638  2.4985 -0.8716 -1.5491
37177SOL     OW16850   3.814   2.035   6.011  0.1010  0.2099 -0.4471
37177SOL    HW116851   3.753   2.079   5.952 -1.2232 -0.4003  0.4261
37177SOL    HW216852   3.768   1.956   6.039  1.5021 -0.5454 -0.1540
37178SOL     OW16853   9.686   3.011  10.405  0.1874  0.9110 -0.0844
37178SOL    HW116854   9.688   3.011  10.309 -0.6561 -0.4867 -0.1317
37178SOL    HW216855   9.601   3.049  10.427 -1.0632 -1.6585 -0.0370
37179SOL     OW16856  11.818   4.527  10.228 -0.0668  0.3429 -0.0405
37179SOL    HW116857  11.848   4.515  10.318  0.5630  0.9708 -0.1584
37179SOL    HW216858  11.875   4.595  10.192 -1.1669  1.0469 -0.5048
37180SOL     OW16859   7.431   0.157  10.310  0.3246 -0.2262  0.6504
37180SOL    HW116860   7.348   0.143  10.265  0.6266 -2.4259  0.6569
37180SOL    HW216861   7.415   0.125  10.399  0.3893  1.9890  1.5058
37181SOL     OW16862   0.727   8.510   2.982  0.0654 -0.2761 -0.2653
37181SOL    HW116863   0.793   8.507   2.913 -0.3588  2.0376 -0.8703
37181SOL    HW216864   0.668   8.438   2.962  0.2217  0.0513 -2.0725
37182SOL     OW16865   5.588   9.925   7.433  0.7742 -0.3577 -0.4399
37182SOL    HW116866   5.583  10.001   7.491 -1.8735 -0.3059 -0.6118
37182SOL    HW216867   5.641   9.861   7.481 -0.4161  0.0853  1.5529
37183SOL     OW16868   4.313   7.147   1.221 -0.0844 -0.4066 -0.2803
37183SOL    HW116869   4.359   7.213   1.170  0.3385  0.3501  1.0316
37183SOL    HW216870   4.220   7.169   1.212  0.0992  1.3284  1.3121
37184SOL     OW16871   2.196   9.544   5.824  0.5380  0.5853  0.1288
37184SOL    HW116872   2.251   9.615   5.791 -0.0849  0.5975 -0.9430
37184SOL    HW216873   2.224   9.467   5.775  1.7754 -0.1291  1.8682
37185SOL     OW16874   6.645   4.908   0.270 -0.0126  0.6747  0.2199
37185SOL    HW116875   6.731   4.899   0.311  0.5222  0.0718 -0.9621
37185SOL    HW216876   6.587   4.855   0.325  0.4497  0.7852  0.8260
37186SOL     OW16877   5.478   9.620   1.556 -0.8651  0.2522  0.1222
37186SOL    HW116878   5.483   9.665   1.641 -0.0939 -0.8490  0.6853
37186SOL    HW216879   5.467   9.528   1.578 -0.5421 -0.0633 -0.9778
37187SOL     OW16880   2.423  10.442   5.337 -0.1079  0.5558 -0.1404
37187SOL    HW116881   2.438  10.513   5.400 -0.7723  0.5466  0.0321
37187SOL    HW216882   2.343  10.399   5.368  1.2056 -1.3659  0.7380
37188SOL     OW16883   6.225  11.480   1.916 -0.1794 -0.5469 -0.0989
37188SOL    HW116884   6.155  11.545   1.923 -0.3154 -0.5652 -1.1137
37188SOL    HW216885   6.263  11.477   2.004 -1.4020 -0.4869  0.4620
37189SOL     OW16886   9.232   7.583   6.954 -0.3151  0.4000  0.4692
37189SOL    HW116887   9.148   7.539   6.943 -0.6596  1.2490 -0.5747
37189SOL    HW216888   9.281   7.528   7.015 -1.8525  0.2189  1.5908
37190SOL     OW16889   8.480   1.219   1.244 -0.0316 -0.0569  0.5424
37190SOL    HW116890   8.519   1.160   1.308 -0.3181  0.6699  1.4029
37190SOL    HW216891   8.535   1.297   1.248 -1.7787  1.1726  2.1148
37191SOL     OW16892  10.828   6.449   1.387  0.6754 -0.1096 -0.5830
37191SOL    HW116893  10.828   6.524   1.326  1.7581  0.4066  0.0142
37191SOL    HW216894  10.739   6.415   1.383  0.6957 -0.0658 -2.4253
37192SOL     OW16895   2.627  11.230   0.669 -0.0106 -0.1824 -0.1332
37192SOL    HW116896   2.538  11.261   0.684 -0.2010 -0.4737 -0.6316
37192SOL    HW216897   2.618  11.135   0.660  0.5276 -0.3598  1.1025
37193SOL     OW16898   1.704   9.075   0.644  0.2026 -0.0615 -0.8659
37193SOL    HW116899   1.749   8.991   0.638 -0.9912 -1.0624  2.2640
37193SOL    HW216900   1.759   9.128   0.701 -0.6398  0.0746 -0.1529
37194SOL     OW16901   2.841   8.551  10.518  0.0632  0.0611 -0.3332
37194SOL    HW116902   2.833   8.605  10.596 -1.2944  1.1297 -1.1644
37194SOL    HW216903   2.935   8.532  10.512  0.7593  2.9401 -0.3775
37195SOL     OW16904   0.815   9.013   5.463  0.4178  0.0838 -0.2011
37195SOL    HW116905   0.796   9.058   5.380 -0.3175 -1.0984 -0.6903
37195SOL    HW216906   0.751   9.049   5.525  0.1746  0.0918 -0.4548
37196SOL     OW16907   7.432   3.715  11.097 -0.0264 -0.4304  0.3594
37196SOL    HW116908   7.475   3.797  11.123  1.3437 -1.3445  1.0728
37196SOL    HW216909   7.396   3.734  11.010  0.3264  0.9048  0.4796
37197SOL     OW16910   5.077   3.766  10.459 -0.4028  0.0966  0.0500
37197SOL    HW116911   5.166   3.748  10.490 -0.6883  0.6882  1.3057
37197SOL    HW216912   5.087   3.841  10.400 -0.0745  0.1935  0.2269
37198SOL     OW16913   3.042   3.433   3.669  0.1776 -0.8071 -0.1923
37198SOL    HW116914   2.971   3.482   3.709  1.6907  0.3332  1.1874
37198SOL    HW216915   3.056   3.476   3.585  0.4778  0.1630  0.3465
37199SOL     OW16916   9.304   4.338   9.951 -0.3618  0.0582  0.0030
37199SOL    HW116917   9.225   4.311   9.905  0.2130 -2.2934  0.2912
37199SOL    HW216918   9.283   4.425   9.985 -2.7877 -0.4707  0.0214
37200SOL     OW16919  10.818   8.450   6.609  0.0301 -0.0602  0.3084
37200SOL    HW116920  10.867   8.372   6.633  3.0684  1.5718 -0.0875
37200SOL    HW216921  10.777   8.427   6.525 -0.5120 -1.7181  0.9856
37201SOL     OW16922   1.488   0.221   0.397  0.0695  0.4303 -0.1069
37201SOL    HW116923   1.469   0.289   0.332 -2.8283  0.8459  1.0276
37201SOL    HW216924   1.581   0.201   0.384  0.5518  3.1849 -1.8093
37202SOL     OW16925   1.202   0.257   6.267 -0.3231  0.1393 -0.0710
37202SOL    HW116926   1.202   0.234   6.360  1.0756  0.8650  0.1299
37202SOL    HW216927   1.284   0.222   6.234 -0.7367  0.0342 -1.0155
37203SOL     OW16928  11.088  10.615   7.709 -0.2819 -0.2713 -0.1524
37203SOL    HW116929  11.175  10.649   7.685 -0.1445 -0.9467 -0.6337
37203SOL    HW216930  11.103  10.523   7.729 -0.9073 -0.4163 -0.3434
37204SOL     OW16931   2.634   6.246   5.158 -0.0203  1.0332  0.4082
37204SOL    HW116932   2.673   6.253   5.245 -0.8546 -0.1007  0.8947
37204SOL    HW216933   2.585   6.164   5.160  0.8871  0.3845 -1.5293
37205SOL     OW16934   1.240   3.754   6.330  0.3358 -0.3975  0.0833
37205SOL    HW116935   1.227   3.848   6.346 -0.9228 -0.2831 -1.3745
37205SOL    HW216936   1.294   3.725   6.404 -0.7646  1.0921  1.5745
37206SOL     OW16937   5.010   3.080   5.786 -0.3513 -0.3039  0.9674
37206SOL    HW116938   4.933   3.125   5.750  0.4475  0.7134  0.4766
37206SOL    HW216939   4.976   2.995   5.815 -1.5559 -0.0840  0.2993
37207SOL     OW16940  10.047   7.060   1.464  0.1207 -0.3214 -0.4198
37207SOL    HW116941  10.093   6.984   1.501  0.5763 -0.5277 -1.3795
37207SOL    HW216942  10.105   7.134   1.483  0.3375 -0.4216 -0.6852
37208SOL     OW16943  11.011   4.207   7.840 -0.6389 -0.8802 -0.5953
37208SOL    HW116944  10.941   4.259   7.801 -2.2106 -2.4157  0.0560
37208SOL    HW216945  11.083   4.269   7.852 -1.3370  0.4131 -2.6309
37209SOL     OW16946   2.265   3.633   3.406 -0.0005 -0.2474  0.7700
37209SOL    HW116947   2.257   3.684   3.325 -0.3070  0.5639  1.2906
37209SOL    HW216948   2.258   3.542   3.378 -0.2871  0.0278 -0.0972
37210SOL     OW16949   5.175   9.008   5.412  0.0923  0.3685  0.0768
37210SOL    HW116950   5.248   9.004   5.473 -0.4310  1.5733  0.8104
37210SOL    HW216951   5.116   8.939   5.440 -0.0617  0.8012  0.8465
37211SOL     OW16952   7.606   6.628   6.385 -0.2323 -0.4619  0.9433
37211SOL    HW116953   7.665   6.561   6.419 -0.0538 -0.5255  0.5131
37211SOL    HW216954   7.658   6.675   6.320 -1.4222 -2.2582 -1.4719
37212SOL     OW16955   2.465   9.831   6.420  0.0832  0.2282 -0.1968
37212SOL    HW116956   2.417   9.895   6.472  0.5798 -0.1384  0.7409
37212SOL    HW216957   2.552   9.828   6.460  0.4613 -0.1165 -1.0172
37213SOL     OW16958   0.783   6.035   5.694  0.1398 -0.3633 -0.2757
37213SOL    HW116959   0.830   6.037   5.610  0.0849  1.2258 -0.2968
37213SOL    HW216960   0.769   6.127   5.715 -2.4147 -0.7612  0.0579
37214SOL     OW16961   4.866  11.197   8.763  0.0428 -0.0648 -0.1868
37214SOL    HW116962   4.886  11.288   8.785  1.2844 -0.4579  0.3713
37214SOL    HW216963   4.935  11.146   8.806 -0.1570 -1.2070 -1.1747
37215SOL     OW16964   3.656  11.487   5.188 -0.3021 -0.4785 -0.1635
37215SOL    HW116965   3.630  11.484   5.096  0.1769  0.7861 -0.3549
37215SOL    HW216966   3.652  11.579   5.211  2.9313 -0.3181  0.0921
37216SOL     OW16967   5.265  10.247   8.725  0.6095  0.6205  0.5527
37216SOL    HW116968   5.324  10.180   8.689  1.0428  0.1836  2.0114
37216SOL    HW216969   5.319  10.326   8.729  0.1112  1.0969 -1.1273
37217SOL     OW16970   7.927   8.955   4.735  0.3302 -0.0990 -0.9440
37217SOL    HW116971   7.934   9.033   4.789  0.2489 -0.7918  0.1032
37217SOL    HW216972   7.922   8.883   4.798 -1.1602 -0.8356 -1.8535
37218SOL     OW16973  11.531   4.722   9.987  0.0208 -0.3508  0.0573
37218SOL    HW116974  11.624   4.698   9.988 -0.2159 -1.4166  2.6175
37218SOL    HW216975  11.521   4.782  10.061 -1.2516  0.2546 -0.5713
37219SOL     OW16976   6.149   2.921   5.024  0.3876  0.3221  0.7130
37219SOL    HW116977   6.155   3.017   5.026 -1.1206  0.4103  2.0636
37219SOL    HW216978   6.066   2.901   5.066  0.0896 -1.5512 -0.6689
37220SOL     OW16979   8.726  10.305  11.058  0.1848  0.0707 -0.1581
37220SOL    HW116980   8.818  10.289  11.039 -0.0344  0.0805 -1.2859
37220SOL    HW216981   8.678  10.263  10.986 -0.6970 -0.0132  0.4569
37221SOL     OW16982   7.200   9.762   4.469  0.1389  0.3264 -0.3027
37221SOL    HW116983   7.166   9.846   4.500  0.5440 -0.3015  2.0570
37221SOL    HW216984   7.216   9.775   4.376 -3.5822  1.5856 -0.9156
37222SOL     OW16985   0.017   4.832   9.779 -1.0859  0.0567  0.2212
37222SOL    HW116986  -0.049   4.810   9.713 -0.7012  1.3006 -0.6359
37222SOL    HW216987   0.027   4.753   9.831 -0.2055 -1.5574 -2.2393
37223SOL     OW16988   1.271   9.406   3.012 -0.0670 -0.0439 -0.3805
37223SOL    HW116989   1.288   9.492   2.974  1.8819 -1.2777 -2.4951
37223SOL    HW216990   1.338   9.349   2.976 -3.0191 -3.1805 -1.4890
37224SOL     OW16991   0.994  11.712   4.849 -0.2441  0.0518 -0.2752
37224SOL    HW116992   1.005  11.781   4.784 -1.2872  0.2388 -0.2639
37224SOL    HW216993   0.977  11.633   4.797 -0.2294  0.0352 -0.2546
37225SOL     OW16994   8.206   3.805   3.240 -0.3873  0.3789  0.1005
37225SOL    HW116995   8.196   3.732   3.301 -0.6404  0.3981  0.0851
37225SOL    HW216996   8.235   3.878   3.294 -2.3451  0.8942  0.5393
37226SOL     OW16997   8.782   2.647   3.452  0.3550 -0.4445  0.1519
37226SOL    HW116998   8.812   2.577   3.394 -1.2253 -2.2033  1.3267
37226SOL    HW216999   8.808   2.618   3.539 -0.3930  0.3828  0.6671
37227SOL     OW17000  11.764   6.150   4.018  0.4605 -0.1236 -0.2623
37227SOL    HW117001  11.816   6.073   3.999 -0.1874 -0.0802 -2.5136
37227SOL    HW217002  11.688   6.143   3.960 -0.9925  0.8601  1.4076
37228SOL     OW17003   9.781   7.883  10.468 -0.4643  0.4981  0.2360
37228SOL    HW117004   9.742   7.903  10.383  1.0084  1.8190 -0.1796
37228SOL    HW217005   9.707   7.860  10.524 -1.4052 -1.1917 -1.5814
37229SOL     OW17006   0.838   9.962   4.652  0.4760 -0.4937  0.1570
37229SOL    HW117007   0.842  10.058   4.651 -0.5045 -0.4457 -0.4988
37229SOL    HW217008   0.866   9.938   4.740 -0.6991  0.4778  0.8290
37230SOL     OW17009   9.557   5.378   8.013 -0.0607 -0.1375 -0.5051
37230SOL    HW117010   9.480   5.394   8.067  1.0230  0.6338  0.8999
37230SOL    HW217011   9.537   5.298   7.964 -1.0877 -0.8665  1.0504
37231SOL     OW17012   6.508  10.389   7.533  0.8377 -0.2707 -0.0832
37231SOL    HW117013   6.536  10.434   7.453 -0.2975 -0.8042 -0.8124
37231SOL    HW217014   6.448  10.321   7.502  0.3981 -0.5104  1.2282
37232SOL     OW17015   6.843   1.822   3.116 -0.4742  0.2067  0.0114
37232SOL    HW117016   6.834   1.775   3.199 -2.3718 -0.1305 -0.3226
37232SOL    HW217017   6.858   1.754   3.051  0.1791  0.3922 -0.0361
37233SOL     OW17018   1.412  11.156   4.560  0.5071  0.2674 -0.3577
37233SOL    HW117019   1.322  11.124   4.552  0.8722 -0.4633 -2.1092
37233SOL    HW217020   1.462  11.101   4.500  2.0529  0.9538  0.2494
37234SOL     OW17021   1.661   3.414   4.835  0.1109 -0.0002  0.3542
37234SOL    HW117022   1.702   3.390   4.752  1.0250  1.1569  0.4483
37234SOL    HW217023   1.601   3.342   4.853  0.5904 -0.7357 -0.8288
37235SOL     OW17024   3.446   3.266   5.040 -0.2489  0.1391  0.2982
37235SOL    HW117025   3.356   3.238   5.029  0.0540 -0.7424 -0.0030
37235SOL    HW217026   3.459   3.333   4.972 -1.0044  1.1238  1.0917
37236SOL     OW17027   1.130  11.137   3.669  0.0224 -0.5189 -0.2705
37236SOL    HW117028   1.080  11.103   3.594 -0.0636 -1.0470  0.0206
37236SOL    HW217029   1.212  11.088   3.666 -0.0620 -0.6819  0.0973
37237SOL     OW17030   8.986   0.998   9.113 -0.0514 -0.3739  0.6827
37237SOL    HW117031   9.016   0.954   9.193  0.5105 -1.0640  0.1154
37237SOL    HW217032   8.906   0.951   9.089  0.6703 -1.2775 -0.0470
37238SOL     OW17033   8.698   6.256   3.008  0.5324  0.4116  0.0832
37238SOL    HW117034   8.620   6.309   3.021  1.0331  0.9049  1.2319
37238SOL    HW217035   8.666   6.166   3.011  0.0747  0.5954  1.1458
37239SOL     OW17036   9.098   0.762   6.278 -0.1133  0.0651 -0.2511
37239SOL    HW117037   9.041   0.711   6.337 -1.1448 -0.7571 -1.8966
37239SOL    HW217038   9.089   0.852   6.310  0.0757 -0.4571  1.3954
37240SOL     OW17039   1.001   5.171   6.594  0.1088 -0.5919 -0.2872
37240SOL    HW117040   0.915   5.183   6.555  0.0956 -3.0103 -1.1954
37240SOL    HW217041   1.003   5.232   6.668 -1.8001  0.5271 -1.0828
37241SOL     OW17042   7.093   2.345   5.190  0.9643 -0.3942  0.4739
37241SOL    HW117043   7.044   2.411   5.141  1.3629  0.0234  0.6206
37241SOL    HW217044   7.035   2.269   5.194  0.6830 -0.2144 -0.1030
37242SOL     OW17045  11.074   5.107   8.135  0.0457 -0.1762 -0.3251
37242SOL    HW117046  11.110   5.195   8.139 -1.6036  0.4979  0.5550
37242SOL    HW217047  11.009   5.111   8.065  2.1625 -1.6121 -2.5099
37243SOL     OW17048   2.476   9.069  10.604 -0.5153  0.3401  0.1096
37243SOL    HW117049   2.482   9.116  10.687 -1.7249 -0.2160  0.5265
37243SOL    HW217050   2.537   9.115  10.546  0.0475  0.9767  1.1818
37244SOL     OW17051  10.980   6.306   6.131 -0.2020 -0.6392  0.0415
37244SOL    HW117052  10.977   6.402   6.122 -0.6545 -0.4855  1.4749
37244SOL    HW217053  10.919   6.274   6.065 -0.6150  0.1087  0.0402
37245SOL     OW17054   5.753   8.802   5.477  0.3738  0.3510  0.3368
37245SOL    HW117055   5.806   8.879   5.456 -0.0100  0.3671 -0.5948
37245SOL    HW217056   5.681   8.804   5.415  0.6588 -1.0691 -0.0805
37246SOL     OW17057   0.654   6.565   1.058  0.3250 -0.3933 -0.7103
37246SOL    HW117058   0.601   6.608   1.125 -1.8235 -0.9266 -1.9693
37246SOL    HW217059   0.677   6.634   0.996 -2.6303 -0.7696 -2.4192
37247SOL     OW17060   1.256   8.592   9.832 -0.1414 -0.0529  0.0663
37247SOL    HW117061   1.272   8.514   9.885  0.3057  0.1319  0.2069
37247SOL    HW217062   1.199   8.561   9.761 -0.6684 -0.3179  0.5968
37248SOL     OW17063   1.077   5.812   6.054  0.0975  0.9762 -0.0901
37248SOL    HW117064   1.103   5.743   5.994 -1.5336  0.2395  0.0045
37248SOL    HW217065   1.110   5.783   6.139 -1.7276 -0.4389  0.2069
37249SOL     OW17066   7.795   4.802   7.834  0.5960 -0.3377  0.0625
37249SOL    HW117067   7.803   4.873   7.770  0.1806 -0.1529  0.2109
37249SOL    HW217068   7.885   4.777   7.854  0.7347 -0.3163 -0.5057
37250SOL     OW17069  10.252   4.577   1.670 -0.1898 -0.4810  0.4119
37250SOL    HW117070  10.170   4.592   1.716  0.1750  0.2901  0.8239
37250SOL    HW217071  10.319   4.618   1.725  0.5705 -1.7212  0.4443
37251SOL     OW17072   2.007   6.923  11.121 -0.2519 -0.0495 -0.2200
37251SOL    HW117073   1.983   6.932  11.029 -0.6240 -2.0461 -0.3600
37251SOL    HW217074   1.943   6.978  11.168  0.2124  1.3391 -1.1384
37252SOL     OW17075  11.197   1.271   8.559 -0.2524  0.2041 -0.0767
37252SOL    HW117076  11.225   1.184   8.590 -1.9268 -0.5053 -0.4110
37252SOL    HW217077  11.277   1.323   8.558  0.4927 -0.7746  1.9849
37253SOL     OW17078  11.009   9.377  10.524  0.6284 -0.1668 -0.0982
37253SOL    HW117079  10.938   9.397  10.585 -0.0704  0.0890 -0.9603
37253SOL    HW217080  11.085   9.361  10.579 -0.2263 -1.0233  0.8885
37254SOL     OW17081  11.052   4.618   1.403  0.5128 -0.3344  0.0748
37254SOL    HW117082  10.962   4.651   1.399 -0.1463 -2.1535 -1.0783
37254SOL    HW217083  11.098   4.669   1.336  0.3825  0.6387  0.7006
37255SOL     OW17084   5.399   8.537   0.534 -0.1587  0.4986  0.3213
37255SOL    HW117085   5.341   8.612   0.542  0.1367  0.8502 -0.6785
37255SOL    HW217086   5.406   8.521   0.440 -0.5989 -1.0967  0.5336
37256SOL     OW17087   2.722   4.568   9.824 -0.0155  0.5774  0.1445
37256SOL    HW117088   2.757   4.656   9.841 -0.0325  0.3195  1.6001
37256SOL    HW217089   2.730   4.558   9.729  1.5146  1.5095  0.1338
37257SOL     OW17090   8.361   2.412   1.345 -0.2773  0.0466  0.1204
37257SOL    HW117091   8.334   2.501   1.367  0.6307  1.0455 -2.4419
37257SOL    HW217092   8.439   2.397   1.398 -1.5800 -0.0940  2.1235
37258SOL     OW17093   1.705   9.368   2.269 -0.2418  0.8332 -0.0834
37258SOL    HW117094   1.721   9.289   2.322 -0.7377  0.0156 -1.1123
37258SOL    HW217095   1.720   9.339   2.179  0.9289  2.2918 -0.3874
37259SOL     OW17096   0.451   4.677  10.578  0.2219  0.2859  0.7654
37259SOL    HW117097   0.355   4.686  10.574  0.2599  0.2546 -1.1592
37259SOL    HW217098   0.484   4.745  10.520  1.4122  0.5852  1.7643
37260SOL     OW17099  10.528   9.153   5.394  0.7493  0.1234  0.1552
37260SOL    HW117100  10.584   9.213   5.345  3.8189  0.0769  3.1855
37260SOL    HW217101  10.456   9.207   5.426  0.4659  0.8542 -1.5990
37261SOL     OW17102  11.769   4.219   3.426 -0.4451  0.5610 -0.0517
37261SOL    HW117103  11.851   4.175   3.447 -1.7586 -2.1690 -0.2402
37261SOL    HW217104  11.763   4.212   3.330 -0.5620  1.4012 -0.1085
37262SOL     OW17105   5.349   3.318   3.335  0.0211 -0.4610 -0.0097
37262SOL    HW117106   5.412   3.281   3.397  0.8678  1.3453  0.2840
37262SOL    HW217107   5.402   3.375   3.278 -1.4277  1.9474  0.9099
37263SOL     OW17108   7.341   6.865   9.927 -0.4049 -0.5341 -0.0308
37263SOL    HW117109   7.246   6.877   9.921 -0.4792 -0.1011  1.5633
37263SOL    HW217110   7.353   6.772   9.946 -0.5193 -0.5149  0.1291
37264SOL     OW17111   7.074   6.983  10.531  0.2442 -0.1501 -0.1658
37264SOL    HW117112   7.085   6.919  10.460  1.8190  0.3420 -0.4168
37264SOL    HW217113   7.130   6.950  10.601  1.0648  0.9235 -0.2963
37265SOL     OW17114   7.392   0.955   5.542  0.2247  0.5236 -0.0191
37265SOL    HW117115   7.486   0.960   5.526  0.2848  0.5310  0.3205
37265SOL    HW217116   7.373   0.861   5.544  0.2909  0.5160  0.2766
37266SOL     OW17117   7.633  11.750   6.965  0.2074 -0.0034  0.2653
37266SOL    HW117118   7.678  11.803   7.030  1.5520  0.1908 -0.7871
37266SOL    HW217119   7.683  11.762   6.884  0.2290 -2.3702 -0.1685
37267SOL     OW17120   4.351   3.332   8.232 -0.7789 -0.1318  0.1194
37267SOL    HW117121   4.372   3.245   8.198 -1.2007 -0.5529  0.9038
37267SOL    HW217122   4.270   3.357   8.187  0.2174  0.6103 -1.3708
37268SOL     OW17123   4.578  10.606  11.270 -0.2392  0.2093  0.5108
37268SOL    HW117124   4.488  10.625  11.294 -0.4484  0.9266 -0.7886
37268SOL    HW217125   4.580  10.511  11.256 -1.4711  0.5045 -2.0549
37269SOL     OW17126   6.095   4.364   0.792  0.3307 -0.0630 -0.7237
37269SOL    HW117127   6.052   4.345   0.709  0.7085 -1.8213 -0.5660
37269SOL    HW217128   6.187   4.342   0.778  0.0213 -2.7908  0.7690
37270SOL     OW17129   4.732   2.597   9.473 -0.0282 -0.3881 -0.2871
37270SOL    HW117130   4.720   2.676   9.420 -0.1211  0.1050  0.4625
37270SOL    HW217131   4.679   2.611   9.551  2.2558  0.1183  1.2554
37271SOL     OW17132   2.443   4.046   3.385 -0.9101  0.5653  0.4840
37271SOL    HW117133   2.389   4.046   3.306 -0.1973 -3.8185 -0.2928
37271SOL    HW217134   2.381   4.062   3.456 -3.3318 -3.2606 -0.4380
37272SOL     OW17135   5.916   3.567   0.959 -0.1403 -0.5188  0.0337
37272SOL    HW117136   5.838   3.616   0.985  0.2992 -0.0436  0.4866
37272SOL    HW217137   5.894   3.476   0.979 -0.4270 -0.3441  0.5481
37273SOL     OW17138   6.229   6.339   8.015  0.2287  0.0125 -0.1531
37273SOL    HW117139   6.137   6.348   7.992 -0.6448 -2.5862  1.8463
37273SOL    HW217140   6.256   6.255   7.978  1.9627  0.9031 -1.0407
37274SOL     OW17141   4.392   5.659   0.134  0.6783  0.0557 -0.2341
37274SOL    HW117142   4.446   5.685   0.210 -1.1367 -0.5533  1.3390
37274SOL    HW217143   4.424   5.572   0.111  0.4454 -0.2774  0.6518
37275SOL     OW17144   8.679   2.142   0.492  0.0365  0.4778  0.3119
37275SOL    HW117145   8.743   2.156   0.422  0.1638  0.9592  0.5189
37275SOL    HW217146   8.723   2.174   0.571  0.3852 -1.2277  0.8415
37276SOL     OW17147   7.842  11.809   3.820 -0.7056 -0.5616 -0.0174
37276SOL    HW117148   7.814  11.898   3.841 -1.5753 -1.6108  4.1975
37276SOL    HW217149   7.761  11.763   3.798 -0.5971 -0.8802  0.2453
37277SOL     OW17150   5.934   1.717   6.144 -0.0213  0.0529  0.0426
37277SOL    HW117151   6.014   1.669   6.164  0.8791  0.7250 -1.7692
37277SOL    HW217152   5.963   1.807   6.129 -1.2786  0.5483  0.4697
37278SOL     OW17153   4.699   8.560  10.831 -0.2493 -0.4358  0.6547
37278SOL    HW117154   4.736   8.481  10.791 -2.9413 -1.4107 -0.1180
37278SOL    HW217155   4.704   8.544  10.925  1.7766 -0.2453  0.6117
37279SOL     OW17156   8.732   7.296   8.621  0.3795  0.2027  0.4979
37279SOL    HW117157   8.769   7.382   8.639 -2.1759  1.3576  0.6471
37279SOL    HW217158   8.649   7.295   8.668  0.9019 -2.8933  1.6029
37280SOL     OW17159  10.310   6.052   7.940  0.6116  0.2126 -0.0701
37280SOL    HW117160  10.365   6.117   7.985  1.4813  0.0358 -0.8443
37280SOL    HW217161  10.358   6.033   7.859  0.0564 -0.9376 -0.1403
37281SOL     OW17162   8.215   6.986   1.891  0.4002 -0.0746 -1.0429
37281SOL    HW117163   8.242   6.904   1.932 -1.1387  0.0693  0.3479
37281SOL    HW217164   8.289   7.010   1.836  1.1532 -2.0510 -0.9957
37282SOL     OW17165   8.090   0.778   5.602  0.4660  0.2885 -0.1374
37282SOL    HW117166   8.016   0.718   5.612  0.4643  0.2729 -0.2411
37282SOL    HW217167   8.166   0.720   5.593  0.3830  0.2828 -0.9282
37283SOL     OW17168   4.957   1.101  10.613  0.1284  0.7829 -0.4693
37283SOL    HW117169   5.029   1.038  10.615  0.0130  0.5870 -1.5770
37283SOL    HW217170   4.936   1.110  10.520 -1.3159  0.7923 -0.1621
37284SOL     OW17171   5.708   2.417   5.409 -0.1928  0.3421  0.6925
37284SOL    HW117172   5.624   2.373   5.423 -0.6054  1.3867  1.6119
37284SOL    HW217173   5.713   2.481   5.479  1.0231  0.8329  0.1737
37285SOL     OW17174  10.366  11.634   9.170 -0.5449 -0.4643 -0.0127
37285SOL    HW117175  10.389  11.688   9.246 -1.0042 -0.7013  0.2932
37285SOL    HW217176  10.403  11.682   9.096 -3.9253  2.2685 -0.2290
37286SOL     OW17177   3.423   9.548   6.445  0.1167  0.3201 -0.1707
37286SOL    HW117178   3.488   9.600   6.398  0.0443  0.6602  0.1014
37286SOL    HW217179   3.466   9.463   6.458  0.0324  0.1269 -1.0910
37287SOL     OW17180   2.511   7.612   5.774  0.5290  0.0580  0.0821
37287SOL    HW117181   2.567   7.622   5.697  0.6425 -0.4774  0.0950
37287SOL    HW217182   2.517   7.520   5.796 -1.3141 -0.2715 -0.6318
37288SOL     OW17183  10.021   6.972  10.753  0.9097 -0.0870 -0.0685
37288SOL    HW117184  10.072   6.899  10.719  1.2249 -0.1545  0.5271
37288SOL    HW217185  10.075   7.050  10.738  1.3393 -0.1945  0.8286
37289SOL     OW17186   6.067   2.824   1.578  0.0728 -0.2783  0.0715
37289SOL    HW117187   6.075   2.883   1.653  0.5475 -0.1212 -0.0935
37289SOL    HW217188   6.096   2.739   1.612  0.5336 -0.1523  0.0058
37290SOL     OW17189   9.425   4.005   8.670  0.0847 -0.4766 -0.4323
37290SOL    HW117190   9.402   4.098   8.674  1.6044 -0.0835 -0.1788
37290SOL    HW217191   9.519   4.004   8.650  0.0821 -1.9616 -0.4989
37291SOL     OW17192   8.256   5.696   7.784 -0.4595  0.0442 -0.1828
37291SOL    HW117193   8.171   5.661   7.757  0.3123 -2.0910 -0.0760
37291SOL    HW217194   8.266   5.668   7.875  0.6835 -0.4861 -0.4453
37292SOL     OW17195   5.407   2.499   7.147 -0.7507  0.0141  0.0847
37292SOL    HW117196   5.464   2.460   7.213 -0.4220  0.5916  0.1430
37292SOL    HW217197   5.449   2.581   7.123 -3.0201  2.0232  2.3634
37293SOL     OW17198   0.775   5.656   2.208 -0.1530 -0.1013 -0.4477
37293SOL    HW117199   0.837   5.703   2.264 -0.8606  1.2179 -0.7285
37293SOL    HW217200   0.745   5.722   2.145 -0.9375 -1.0248 -1.0669
37294SOL     OW17201   6.093   3.677  10.482 -0.2326 -0.7450 -0.3409
37294SOL    HW117202   6.091   3.764  10.521  0.7983 -0.8276 -0.0834
37294SOL    HW217203   6.112   3.694  10.389  2.4911 -0.7748  0.1353
37295SOL     OW17204   4.574   2.627   6.690  0.3506  0.2765 -0.3018
37295SOL    HW117205   4.589   2.716   6.721 -0.7677  0.4842 -0.3108
37295SOL    HW217206   4.614   2.571   6.756  2.0327  0.7822 -0.8383
37296SOL     OW17207   6.790   9.407   1.884  0.5631 -0.0114  0.3848
37296SOL    HW117208   6.868   9.358   1.908 -0.2599 -0.7826  1.5529
37296SOL    HW217209   6.817   9.499   1.889  1.5781 -0.2815  0.0779
37297SOL     OW17210   8.115   0.205  10.136  0.1183 -0.3824  0.3671
37297SOL    HW117211   8.090   0.150  10.210 -0.5041 -1.3797 -0.5452
37297SOL    HW217212   8.070   0.166  10.061  3.4349 -1.5781 -1.1963
37298SOL     OW17213  11.662   0.666   0.746 -0.0989  0.1154 -0.1374
37298SOL    HW117214  11.726   0.607   0.786  0.2852  0.3177 -0.4450
37298SOL    HW217215  11.684   0.753   0.780 -1.2414 -0.0213  1.0426
37299SOL     OW17216   6.627   0.379   4.117 -0.0804  0.3154  0.1417
37299SOL    HW117217   6.722   0.390   4.127 -0.0051  0.5927 -0.7693
37299SOL    HW217218   6.591   0.406   4.201  0.7887 -1.9666  1.3298
37300SOL     OW17219   7.503   7.050   7.441 -0.7326 -0.2077  0.1389
37300SOL    HW117220   7.532   7.139   7.421 -1.3682 -0.1385 -0.4982
37300SOL    HW217221   7.515   7.002   7.359 -1.0826 -0.5306  0.2743
37301SOL     OW17222   2.777   7.742   5.615 -0.3513 -0.1839  0.5858
37301SOL    HW117223   2.767   7.677   5.685 -0.7373  0.9044  1.5761
37301SOL    HW217224   2.744   7.698   5.537 -0.4029 -1.2508  1.1867
37302SOL     OW17225   9.950  10.137   1.583 -0.3744  0.3636 -0.2598
37302SOL    HW117226  10.007  10.103   1.514 -0.2941  2.1028 -1.1058
37302SOL    HW217227   9.992  10.112   1.664  1.3105  1.0856 -0.8703
37303SOL     OW17228  10.643   8.086   3.268  0.0012  0.1552 -0.2462
37303SOL    HW117229  10.585   8.044   3.205 -0.5969 -1.7832  1.4496
37303SOL    HW217230  10.591   8.156   3.306 -0.5561 -0.2984 -0.1542
37304SOL     OW17231   6.376  11.166   4.731 -0.3501 -0.7688  0.4340
37304SOL    HW117232   6.357  11.092   4.675 -0.2882 -0.5267  0.0906
37304SOL    HW217233   6.308  11.163   4.798  0.1959 -1.6759  0.9690
37305SOL     OW17234   3.452   1.364   8.418  0.3821 -0.0602  0.1989
37305SOL    HW117235   3.435   1.276   8.453  0.7243 -0.2114 -0.0150
37305SOL    HW217236   3.544   1.363   8.393  0.1895  0.1011 -0.5444
37306SOL     OW17237   1.445   7.079  11.463 -0.0881 -0.2300 -0.2316
37306SOL    HW117238   1.507   7.059  11.534  0.5439  0.3251 -0.6248
37306SOL    HW217239   1.390   7.149  11.499  0.5745  0.4250 -0.4727
37307SOL     OW17240   8.066   9.208   7.025 -0.4829  0.1237 -0.0986
37307SOL    HW117241   7.990   9.176   6.976  0.0913 -2.0868  0.3437
37307SOL    HW217242   8.030   9.233   7.110 -1.2085  2.3813 -1.0007
37308SOL     OW17243   1.716   0.036   0.521  0.4327 -0.2118 -0.2400
37308SOL    HW117244   1.759   0.056   0.604 -1.4368  1.9951  0.3024
37308SOL    HW217245   1.783  -0.010   0.470  1.9570 -0.7576  2.0799
37309SOL     OW17246   8.099   4.525   4.289 -0.7082  0.4719 -0.1814
37309SOL    HW117247   8.144   4.594   4.338 -0.3237  0.4143 -0.4484
37309SOL    HW217248   8.096   4.451   4.348 -2.3878  1.1446  0.6448
37310SOL     OW17249   9.818   2.619   0.814 -0.1714  0.5389 -0.3420
37310SOL    HW117250   9.768   2.573   0.747  0.1948 -1.6236  0.7557
37310SOL    HW217251   9.753   2.647   0.878 -0.2671  0.2790 -0.3240
37311SOL     OW17252  11.796   4.345   8.142 -0.4698 -0.4604  0.5805
37311SOL    HW117253  11.764   4.380   8.225 -0.0025 -2.3512  1.5883
37311SOL    HW217254  11.728   4.284   8.114  0.7873 -2.1955  1.1953
37312SOL     OW17255   2.996   0.344   2.764  0.3887  0.1357 -0.0410
37312SOL    HW117256   2.936   0.286   2.810  0.6948 -0.3582 -0.2531
37312SOL    HW217257   3.080   0.299   2.768  0.4950  0.2644 -0.7570
37313SOL     OW17258   3.750   5.138   8.517  0.3385  0.3932  0.3006
37313SOL    HW117259   3.834   5.117   8.558  0.3027  1.1778  0.8032
37313SOL    HW217260   3.774   5.179   8.434  0.4718  0.9799  0.6212
37314SOL     OW17261   4.691  11.802   1.476  0.3669 -0.4856  0.1086
37314SOL    HW117262   4.669  11.885   1.519 -0.1599 -0.3941 -0.3289
37314SOL    HW217263   4.787  11.806   1.466  0.3373  0.1174 -0.0078
37315SOL     OW17264   0.446   7.436  10.336  0.2915  0.3548  0.1936
37315SOL    HW117265   0.356   7.465  10.324 -0.0233 -0.8466 -0.5730
37315SOL    HW217266   0.497   7.491  10.277  0.0200  0.7963  0.3619
37316SOL     OW17267   3.077   8.869   7.601 -0.0001  0.2979  0.1133
37316SOL    HW117268   3.147   8.874   7.667  1.8824  0.3204 -1.7998
37316SOL    HW217269   3.016   8.939   7.625  1.7513  1.7095  0.5915
37317SOL     OW17270  11.699   3.744   8.873  0.4297 -0.1095  0.0013
37317SOL    HW117271  11.678   3.827   8.915 -0.3074  0.3058 -1.1365
37317SOL    HW217272  11.652   3.679   8.925 -3.1494  0.7037 -1.8878
37318SOL     OW17273   9.984  11.754   1.982 -0.0504  0.8051 -0.4205
37318SOL    HW117274   9.895  11.718   1.990 -0.0334  0.5766 -1.1428
37318SOL    HW217275  10.026  11.732   2.065 -0.3419 -0.0286 -0.4817
37319SOL     OW17276   7.692  11.408   2.370 -0.3197 -0.0810  0.3848
37319SOL    HW117277   7.729  11.403   2.282 -0.7488  0.9916  0.1210
37319SOL    HW217278   7.763  11.443   2.424 -0.2114 -0.2609  0.3579
37320SOL     OW17279   2.670   0.952   3.902 -0.3948 -0.2560  0.1641
37320SOL    HW117280   2.631   1.029   3.944  0.0305 -0.4914  1.0102
37320SOL    HW217281   2.686   0.891   3.974 -0.6587 -1.1157 -0.4870
37321SOL     OW17282   2.090   1.266   9.441 -1.0541  0.8417 -0.3116
37321SOL    HW117283   2.155   1.240   9.375 -0.7505 -2.0921  0.9787
37321SOL    HW217284   2.014   1.293   9.390 -0.1319  0.6483 -1.8627
37322SOL     OW17285   1.394   1.582   7.116  0.4073 -0.2893  0.5108
37322SOL    HW117286   1.407   1.671   7.083 -0.6216 -0.2925  0.0541
37322SOL    HW217287   1.355   1.593   7.203  0.2551 -0.2864  0.4431
37323SOL     OW17288  10.007   6.253   9.539 -0.5843 -0.3336 -0.3150
37323SOL    HW117289  10.041   6.168   9.564  0.2804 -0.2776 -1.2040
37323SOL    HW217290   9.973   6.291   9.620  0.0055 -1.0776  0.2932
37324SOL     OW17291   3.400   8.613   3.979 -0.3304  0.3190  0.3593
37324SOL    HW117292   3.311   8.601   4.011 -0.9213 -0.7850 -1.5404
37324SOL    HW217293   3.391   8.629   3.885  1.5201 -2.8714 -0.5401
37325SOL     OW17294   4.616   9.991   4.084 -0.2254 -0.2061  0.0914
37325SOL    HW117295   4.553   9.964   4.151 -0.8559  0.8459 -0.0498
37325SOL    HW217296   4.677  10.049   4.130 -0.1179 -0.2044 -0.0509
37326SOL     OW17297   3.485   6.767   8.293  0.6089  0.6367 -0.2016
37326SOL    HW117298   3.547   6.723   8.350  0.0454 -0.7473 -0.6252
37326SOL    HW217299   3.539   6.815   8.230  1.2287  0.6588  0.3425
37327SOL     OW17300   9.173   1.489   1.443  0.2467  0.8564 -0.3328
37327SOL    HW117301   9.175   1.565   1.501  0.2789 -0.0333  0.8795
37327SOL    HW217302   9.264   1.473   1.420  0.6003 -0.4740  1.7260
37328SOL     OW17303   8.576  10.675   9.352 -0.0512 -0.1371  0.1490
37328SOL    HW117304   8.629  10.654   9.429  0.8761  0.0918 -0.4105
37328SOL    HW217305   8.486  10.674   9.384  0.4148  1.7117  1.6573
37329SOL     OW17306   9.331   5.107   6.935  0.2543  0.5655  0.0206
37329SOL    HW117307   9.411   5.142   6.895  0.6097  0.9431  1.0257
37329SOL    HW217308   9.315   5.163   7.011 -2.5181  2.2035 -1.6023
37330SOL     OW17309   4.588   0.280   6.263 -0.0904  0.5090 -0.6038
37330SOL    HW117310   4.677   0.286   6.228  0.2734 -0.1507  0.1716
37330SOL    HW217311   4.600   0.263   6.356 -1.0360  0.0937 -0.5460
37331SOL     OW17312   6.496   2.416   7.069 -0.0143  0.2034 -0.6698
37331SOL    HW117313   6.579   2.369   7.070 -0.0370  0.1539 -0.9576
37331SOL    HW217314   6.431   2.350   7.042 -0.2060  0.1525 -0.1071
37332SOL     OW17315  11.320   7.953  11.171 -0.0057 -0.3043  0.1729
37332SOL    HW117316  11.230   7.962  11.138 -0.0988  0.3180  0.5764
37332SOL    HW217317  11.324   8.014  11.245  0.7858 -0.2545  0.0905
37333SOL     OW17318   0.293   6.223   0.279  0.0219 -0.1419 -0.4364
37333SOL    HW117319   0.360   6.290   0.291 -0.6104  0.2435  1.3861
37333SOL    HW217320   0.319   6.175   0.200  2.1635  0.2823 -0.0362
37334SOL     OW17321   4.727   1.487   2.259 -0.0190 -0.0054  0.1665
37334SOL    HW117322   4.675   1.412   2.287  0.3025  0.1275  1.1491
37334SOL    HW217323   4.793   1.498   2.328  0.4202  0.6983 -0.3524
37335SOL     OW17324   7.935   4.134   6.813 -0.2924  0.1189 -0.0558
37335SOL    HW117325   7.864   4.111   6.873  0.3463  1.7280  1.3903
37335SOL    HW217326   7.931   4.067   6.744 -1.2494 -1.6390  1.6124
37336SOL     OW17327   8.975   0.013   9.994  0.0674 -0.3901 -0.2253
37336SOL    HW117328   9.029  -0.065  10.002  0.5159 -0.1652 -1.0178
37336SOL    HW217329   9.023   0.069   9.933 -0.2445  0.5052  0.3367
37337SOL     OW17330   3.514   3.310   1.235 -0.2643  0.1291  0.4566
37337SOL    HW117331   3.550   3.397   1.251 -1.2938  0.7776 -0.6200
37337SOL    HW217332   3.485   3.280   1.321  0.8223  0.4948  0.9713
37338SOL     OW17333   5.070   7.175   8.971 -0.3438 -0.6924 -0.2572
37338SOL    HW117334   5.023   7.238   9.027  0.9578  0.7553 -0.7043
37338SOL    HW217335   5.101   7.228   8.897  2.4196 -1.4331  0.2767
37339SOL     OW17336  11.659   5.517   1.460  0.0621  0.0261 -0.1582
37339SOL    HW117337  11.631   5.428   1.483 -0.7732 -0.2690 -2.0944
37339SOL    HW217338  11.590   5.573   1.494  0.6407 -0.0192  1.1621
37340SOL     OW17339   6.162   9.152   4.816 -0.0015  0.0222 -0.2911
37340SOL    HW117340   6.167   9.234   4.766  0.5882 -0.3896 -0.9112
37340SOL    HW217341   6.253   9.126   4.828 -0.0983  0.3682  1.4483
37341SOL     OW17342   1.778  10.999   6.106 -0.5072 -0.1166 -0.0381
37341SOL    HW117343   1.859  10.993   6.055  1.7881 -0.1875  3.2805
37341SOL    HW217344   1.749  10.908   6.115  0.1844 -0.3108  0.3387
37342SOL     OW17345   6.646   4.196  11.784 -0.5594  0.2910  0.8431
37342SOL    HW117346   6.666   4.153  11.867  0.0740  1.0760  1.1107
37342SOL    HW217347   6.604   4.278  11.809 -1.3024  0.0653  0.3531
37343SOL     OW17348   5.055   1.213   7.242 -0.0351 -0.1960  0.4298
37343SOL    HW117349   5.058   1.149   7.171 -0.0470 -1.5625  1.6327
37343SOL    HW217350   5.138   1.259   7.236  0.2857 -0.8202 -0.0024
37344SOL     OW17351   4.156   5.436   7.766 -0.1589  0.4073  0.5107
37344SOL    HW117352   4.136   5.346   7.791 -0.3527  0.4899  0.6570
37344SOL    HW217353   4.225   5.463   7.827 -0.5666  0.5770  0.9102
37345SOL     OW17354   0.490   6.663   5.630  0.0860 -0.6449 -0.7377
37345SOL    HW117355   0.429   6.733   5.653 -0.1220 -1.2045  0.4674
37345SOL    HW217356   0.482   6.655   5.535 -0.9954 -0.0525 -0.7164
37346SOL     OW17357   9.251  10.476  10.854  0.0113 -0.7630 -0.1961
37346SOL    HW117358   9.320  10.539  10.871  1.7160 -2.9020  1.2231
37346SOL    HW217359   9.189  10.487  10.926 -0.0642 -0.2634 -0.3357
37347SOL     OW17360  10.787   4.058   9.206  0.2099  0.9378 -0.6575
37347SOL    HW117361  10.770   4.095   9.119 -0.7876  0.8785 -0.5024
37347SOL    HW217362  10.716   3.995   9.219  1.6066 -0.7203 -0.7150
37348SOL     OW17363   9.181   5.225  11.507 -0.0166 -0.5324  0.1224
37348SOL    HW117364   9.249   5.231  11.440 -1.4711 -0.3368 -1.4013
37348SOL    HW217365   9.151   5.315  11.519 -0.0915 -0.6326  0.6958
37349SOL     OW17366  11.293   7.385   7.097 -0.3042 -0.5638  0.1103
37349SOL    HW117367  11.366   7.366   7.039 -1.1409 -2.6379 -0.3263
37349SOL    HW217368  11.228   7.318   7.079 -1.2836 -0.3147  2.2858
37350SOL     OW17369   9.488   0.205   0.177  0.5992 -0.7323 -0.2092
37350SOL    HW117370   9.492   0.289   0.223  0.6144 -1.3882  1.0244
37350SOL    HW217371   9.426   0.220   0.105  0.3442  0.2379  0.1995
37351SOL     OW17372   2.645   8.251   4.339 -0.0882 -0.4757  0.8163
37351SOL    HW117373   2.731   8.247   4.382 -0.4802  3.4793  2.3583
37351SOL    HW217374   2.650   8.328   4.282 -2.5631 -0.2030  0.8739
37352SOL     OW17375   1.108  10.729   8.562  0.2921  0.6088  0.2477
37352SOL    HW117376   1.016  10.704   8.565  0.3144  0.4961  0.0306
37352SOL    HW217377   1.155  10.646   8.551  0.2869  0.8351 -1.7813
37353SOL     OW17378   9.125   5.636   3.765 -0.0762  0.3523  0.2541
37353SOL    HW117379   9.157   5.612   3.678 -1.2328  0.5710 -0.2492
37353SOL    HW217380   9.202   5.630   3.821  0.5790 -0.3004 -0.6817
37354SOL     OW17381   4.325   0.781   1.356 -0.2583 -0.2836  0.2968
37354SOL    HW117382   4.297   0.696   1.320  0.9897 -0.4386 -0.3553
37354SOL    HW217383   4.298   0.778   1.448 -1.5974 -0.7546 -0.0792
37355SOL     OW17384   1.115   5.658  11.037  0.2069  0.4599 -0.3269
37355SOL    HW117385   1.060   5.628  11.109 -1.4755  0.0835 -1.7119
37355SOL    HW217386   1.148   5.743  11.066 -0.4322  0.3161  0.8718
37356SOL     OW17387   2.376   3.848   2.596  0.3983  0.0088  0.3789
37356SOL    HW117388   2.395   3.932   2.553 -0.6557 -0.2068 -0.5377
37356SOL    HW217389   2.282   3.838   2.589  0.5247 -1.3221  0.3806
37357SOL     OW17390   0.184   2.341   0.761 -0.4520  0.0495  0.0023
37357SOL    HW117391   0.194   2.248   0.784 -1.5947 -0.6612 -2.1577
37357SOL    HW217392   0.168   2.384   0.845  1.7938 -1.3847  1.3040
37358SOL     OW17393   4.238   2.659   7.963 -0.0769  0.4099 -0.4453
37358SOL    HW117394   4.225   2.564   7.962  0.5566  0.2985  0.4381
37358SOL    HW217395   4.227   2.686   7.872  1.9785 -0.8313 -1.1371
37359SOL     OW17396   7.070   6.245   5.878  0.8994 -0.1415 -0.2531
37359SOL    HW117397   7.153   6.266   5.920  0.9758 -1.2148  0.1706
37359SOL    HW217398   7.081   6.155   5.847 -0.9767 -1.3306  2.1637
37360SOL     OW17399  10.682  11.673   2.428  1.0424 -0.4366 -0.2245
37360SOL    HW117400  10.592  11.695   2.406  1.0338  0.5508  0.6593
37360SOL    HW217401  10.690  11.580   2.409  0.2609 -0.2393 -1.6456
37361SOL     OW17402   2.372   9.094  11.252 -0.4157 -0.0029  0.1168
37361SOL    HW117403   2.423   9.063  11.326 -1.5412 -2.5886 -0.0529
37361SOL    HW217404   2.406   9.181  11.233  2.2918 -0.6701  1.4334
37362SOL     OW17405   9.757   3.605   5.738  0.0581  0.5295  0.3274
37362SOL    HW117406   9.833   3.550   5.758  0.0959  0.5514  0.2463
37362SOL    HW217407   9.682   3.551   5.761 -0.0029 -0.5268 -1.9663
37363SOL     OW17408   8.197   6.385   8.584 -0.2528 -0.3838 -0.0660
37363SOL    HW117409   8.223   6.349   8.669  1.1489 -0.1044 -0.3408
37363SOL    HW217410   8.103   6.400   8.592  0.0534  0.8917  1.9303
37364SOL     OW17411  11.604   7.037  11.228 -0.0860  0.2616 -0.3341
37364SOL    HW117412  11.648   7.103  11.173 -0.9013  0.9179 -0.2196
37364SOL    HW217413  11.672   7.008  11.289  0.7396 -0.2479 -1.4756
37365SOL     OW17414   0.608   3.801   0.117  0.6363 -0.2418 -0.0850
37365SOL    HW117415   0.523   3.843   0.132 -0.4762 -2.2838 -0.3276
37365SOL    HW217416   0.663   3.871   0.082 -0.2597  1.6882  2.0778
37366SOL     OW17417   6.726   6.144   5.438 -0.0686  0.3123 -0.5077
37366SOL    HW117418   6.796   6.158   5.502 -1.5220  1.9059  0.8675
37366SOL    HW217419   6.689   6.059   5.461 -1.5739  1.5107  1.9321
37367SOL     OW17420   7.223   5.980   0.669  0.2956  0.3680  0.2899
37367SOL    HW117421   7.244   6.071   0.693  0.6384  0.1363  0.8963
37367SOL    HW217422   7.302   5.949   0.625  0.1318  0.4003 -0.0268
37368SOL     OW17423   7.231   6.996   8.003  0.0024 -0.1953  0.0424
37368SOL    HW117424   7.194   7.065   8.059 -0.6253 -1.1530  0.8279
37368SOL    HW217425   7.180   7.003   7.922  1.2266  1.5040 -0.6477
37369SOL     OW17426   1.417   5.726   8.409  0.3599 -0.8249  0.1131
37369SOL    HW117427   1.354   5.681   8.466 -0.3983 -0.4141 -0.3938
37369SOL    HW217428   1.364   5.788   8.359  1.3280  0.3295  0.4902
37370SOL     OW17429   9.544   2.526   8.804 -0.2628  0.2403  0.3443
37370SOL    HW117430   9.455   2.496   8.784 -0.5027  0.5035  0.9814
37370SOL    HW217431   9.580   2.457   8.861 -0.8458  1.1373  1.8796
37371SOL     OW17432   3.913   5.392   1.798  0.2153  0.3296 -0.0584
37371SOL    HW117433   3.930   5.384   1.704  2.0726  4.5446 -0.3099
37371SOL    HW217434   3.834   5.445   1.804 -0.6170 -0.9528  0.8522
37372SOL     OW17435   0.197  10.513  10.227  0.4889 -0.2390 -0.0061
37372SOL    HW117436   0.138  10.440  10.208 -0.3382  0.2524  0.6429
37372SOL    HW217437   0.208  10.558  10.143  0.8625 -0.9907 -0.3703
37373SOL     OW17438   4.956   1.114   9.598 -0.1045  0.4809  0.3715
37373SOL    HW117439   5.048   1.089   9.599  0.3129  1.8533 -0.4328
37373SOL    HW217440   4.934   1.131   9.689  0.4836  0.2880  0.5473
37374SOL     OW17441   5.650  10.497   9.053  0.0354 -0.2632 -0.0907
37374SOL    HW117442   5.656  10.570   9.116  0.9573 -1.0827  0.8104
37374SOL    HW217443   5.601  10.430   9.099  0.3331 -0.7068 -0.4127
37375SOL     OW17444   1.978   5.793   4.398  0.1337  0.2873  0.4817
37375SOL    HW117445   1.894   5.774   4.440  0.2516  2.1128  1.6749
37375SOL    HW217446   2.036   5.723   4.426 -0.8374 -0.6958  0.0924
37376SOL     OW17447   8.285  10.621   6.513 -0.5479 -0.1486 -0.1683
37376SOL    HW117448   8.288  10.526   6.498  0.8100 -0.2955  0.8347
37376SOL    HW217449   8.246  10.631   6.600  0.8424  0.0902  0.4550
37377SOL     OW17450   1.074   5.328   2.754 -0.4362  0.4306 -0.2004
37377SOL    HW117451   1.009   5.295   2.692 -0.4652  0.8574 -0.3971
37377SOL    HW217452   1.104   5.410   2.717 -1.3633  1.3310  0.9621
37378SOL     OW17453   8.046   0.582   4.119  0.4826  0.0224 -0.7083
37378SOL    HW117454   8.029   0.645   4.189 -0.4355 -1.7577  0.7548
37378SOL    HW217455   8.008   0.622   4.041  0.1642  1.3740  0.1026
37379SOL     OW17456   8.239   0.312   0.702  0.1727 -0.0235 -0.3874
37379SOL    HW117457   8.154   0.340   0.736 -0.3450 -1.2011 -0.6400
37379SOL    HW217458   8.248   0.222   0.732  0.4076 -0.5839 -2.0038
37380SOL     OW17459   6.092   7.217   2.967 -0.2514  0.3037  0.1174
37380SOL    HW117460   6.155   7.153   3.001  1.5183  1.8564 -0.1389
37380SOL    HW217461   6.020   7.163   2.933  1.4123 -1.6035 -0.5912
37381SOL     OW17462   2.949   4.091   6.016  0.3225  0.1244  0.5411
37381SOL    HW117463   3.001   4.169   6.034 -0.7661  1.0111 -0.0950
37381SOL    HW217464   2.988   4.024   6.072  1.3903  1.0596  0.9643
37382SOL     OW17465   3.131   9.407   2.709  0.0113 -0.0300 -0.1175
37382SOL    HW117466   3.151   9.498   2.732  1.3105 -0.4888  0.6405
37382SOL    HW217467   3.068   9.380   2.775  0.6652 -0.0914  0.4944
37383SOL     OW17468  10.094   1.423   5.223 -0.1519 -0.2858  0.3031
37383SOL    HW117469  10.069   1.487   5.157 -0.4259 -0.4538  0.2387
37383SOL    HW217470  10.155   1.469   5.280 -0.5765  0.1201  0.4310
37384SOL     OW17471   0.054   0.783   6.344  0.0379 -0.2142  0.0580
37384SOL    HW117472   0.135   0.736   6.324 -0.9814 -1.4947 -1.2681
37384SOL    HW217473  -0.014   0.733   6.301 -1.7661 -0.3358  2.8291
37385SOL     OW17474   7.625   0.995   8.097  0.4890 -0.9519  0.0577
37385SOL    HW117475   7.669   1.054   8.158  1.2716 -0.8440 -0.5854
37385SOL    HW217476   7.581   1.052   8.035  1.2333 -1.0251 -0.5564
37386SOL     OW17477   5.880  11.826   6.442  0.3197 -0.2967  0.2687
37386SOL    HW117478   5.906  11.778   6.363  0.9252 -0.2095  0.4123
37386SOL    HW217479   5.804  11.877   6.415 -0.3321 -1.3066  0.0994
37387SOL     OW17480   3.553   8.306  11.521 -0.4580  0.2006  0.3848
37387SOL    HW117481   3.532   8.237  11.458  0.9980  0.0652  0.0294
37387SOL    HW217482   3.559   8.385  11.468  1.4213 -0.0238  0.2204
37388SOL     OW17483   1.873   1.902   2.746 -0.1035  0.1139  0.1022
37388SOL    HW117484   1.821   1.833   2.707 -0.0250  1.2255 -2.1429
37388SOL    HW217485   1.820   1.935   2.818 -0.5113 -1.6706  0.6474
37389SOL     OW17486   4.441   9.010   8.426  0.1970  0.0794  0.0811
37389SOL    HW117487   4.418   9.098   8.398  0.9087  0.7083  1.3981
37389SOL    HW217488   4.523   8.991   8.380  0.2099  0.2276  0.0432
37390SOL     OW17489   5.477  10.551   5.449  0.6945 -0.0070 -0.4810
37390SOL    HW117490   5.545  10.616   5.432  1.4292 -0.5815  0.2076
37390SOL    HW217491   5.444  10.528   5.362  1.0430  0.6337 -0.7874
37391SOL     OW17492   6.518   4.099   3.321  0.0185  0.3492  0.5250
37391SOL    HW117493   6.604   4.056   3.326  0.2338  0.8761  1.6816
37391SOL    HW217494   6.533   4.176   3.267 -0.1689 -0.5407 -0.8314
37392SOL     OW17495  10.143   0.262   6.425 -0.0204 -0.3680 -0.3987
37392SOL    HW117496  10.195   0.338   6.398 -0.1193 -0.5932 -1.2163
37392SOL    HW217497  10.156   0.198   6.356 -1.6507 -0.3051 -0.7989
37393SOL     OW17498   2.282   7.663   3.017  0.5475 -0.0913  0.5752
37393SOL    HW117499   2.361   7.691   3.062  0.7391  1.5423 -0.6767
37393SOL    HW217500   2.257   7.739   2.964 -0.6146 -1.3200 -0.7113
37394SOL     OW17501   8.201   9.766   6.234 -0.4457 -0.0753  0.0870
37394SOL    HW117502   8.129   9.730   6.182 -1.4714  1.0421  0.6841
37394SOL    HW217503   8.185   9.732   6.322  0.1380 -0.3399  0.0936
37395SOL     OW17504   1.690   3.873   5.352 -0.6449  0.4901 -0.0785
37395SOL    HW117505   1.739   3.812   5.407 -1.1083  1.4496  1.4617
37395SOL    HW217506   1.649   3.817   5.285  0.7821 -0.5756 -0.1103
37396SOL     OW17507   0.208   9.708   4.291 -0.0859  0.8079  0.6841
37396SOL    HW117508   0.155   9.711   4.371 -1.7836  0.3108 -0.3542
37396SOL    HW217509   0.289   9.666   4.318 -0.5118  0.8751  2.1976
37397SOL     OW17510   1.687  10.183   7.911  0.4726  0.2810 -0.1131
37397SOL    HW117511   1.663  10.240   7.838 -2.0717  2.1890  2.0165
37397SOL    HW217512   1.718  10.102   7.870 -1.0796  1.1455 -3.2794
37398SOL     OW17513  10.662   3.706   0.256 -0.3136 -0.0905  0.7937
37398SOL    HW117514  10.576   3.731   0.223 -0.0099  0.1688  0.1777
37398SOL    HW217515  10.722   3.726   0.184  0.0866 -1.5613  0.6993
37399SOL     OW17516   6.056   6.322   6.611 -0.1865  0.1058 -0.2458
37399SOL    HW117517   6.115   6.356   6.678  0.6551  0.1784 -1.0172
37399SOL    HW217518   6.024   6.400   6.566 -1.4240  0.1191  0.5970
37400SOL     OW17519   9.869   5.410   6.569 -0.7418 -0.2404 -0.0529
37400SOL    HW117520   9.786   5.379   6.533 -1.0648  2.6453 -2.1797
37400SOL    HW217521   9.845   5.481   6.628  0.1171  1.4574 -1.6209
37401SOL     OW17522   0.392   5.486  11.403 -0.3875  0.5163  0.2370
37401SOL    HW117523   0.487   5.477  11.402 -0.3639  0.7468  0.4390
37401SOL    HW217524   0.368   5.498  11.311 -0.1335  1.3713  0.2789
37402SOL     OW17525   4.573   2.865  10.283  0.0090 -0.0926  0.0309
37402SOL    HW117526   4.540   2.928  10.346 -1.3454 -0.8658  0.1259
37402SOL    HW217527   4.527   2.885  10.202  1.0604  0.3057 -0.4937
37403SOL     OW17528  11.048   6.462  10.510  0.1891 -0.3331 -0.1333
37403SOL    HW117529  11.120   6.399  10.508  0.0096 -0.5841  0.8327
37403SOL    HW217530  10.987   6.432  10.442  1.5863  0.6397 -1.8974
37404SOL     OW17531  11.078   6.443   6.997 -0.2321  0.1882  0.2561
37404SOL    HW117532  11.023   6.466   7.073 -0.6435 -0.2467  0.0904
37404SOL    HW217533  11.016   6.414   6.931  0.2743 -1.4343  0.4605
37405SOL     OW17534   6.738   5.294   5.639 -0.1881 -0.4158  0.2199
37405SOL    HW117535   6.741   5.388   5.619 -1.0881 -0.3030  0.5489
37405SOL    HW217536   6.827   5.272   5.666  1.0259 -0.4841 -3.3567
37406SOL     OW17537   6.573  10.268   9.634 -0.0111  0.1877  0.3561
37406SOL    HW117538   6.650  10.248   9.581 -0.6163 -0.6234 -0.2508
37406SOL    HW217539   6.499  10.249   9.576 -0.6752  0.2970  1.1528
37407SOL     OW17540   4.445   2.360   6.081 -0.5808  0.1639 -0.0784
37407SOL    HW117541   4.470   2.268   6.073 -0.9835 -0.0014  0.4908
37407SOL    HW217542   4.490   2.403   6.009  1.1590 -0.1526  0.7622
37408SOL     OW17543   3.468   8.589   7.713 -0.4150 -0.1089  0.3443
37408SOL    HW117544   3.385   8.554   7.745 -0.1170  0.5022  1.9238
37408SOL    HW217545   3.526   8.585   7.789  1.1728 -0.9744 -0.8553
37409SOL     OW17546   8.829   7.399   9.730 -0.6350  0.2607 -1.0423
37409SOL    HW117547   8.868   7.486   9.744 -1.7106  0.5866  0.1218
37409SOL    HW217548   8.889   7.339   9.773 -1.8733  0.8756  1.8323
37410SOL     OW17549   1.974   6.064   9.703 -0.2133 -0.1096  0.0011
37410SOL    HW117550   2.015   6.116   9.634  0.2716  4.0031  2.9814
37410SOL    HW217551   2.048   6.035   9.757 -0.7731  0.1090  0.8902
37411SOL     OW17552   1.323   4.089   1.156 -0.5793 -0.7732  0.1221
37411SOL    HW117553   1.308   4.068   1.064 -0.1935 -0.8817  0.0793
37411SOL    HW217554   1.342   4.183   1.156  2.0434 -1.2150 -0.2797
37412SOL     OW17555   6.733  10.761   6.374 -0.4307 -0.2162  0.3165
37412SOL    HW117556   6.687  10.695   6.426 -0.8524  0.6477  1.0580
37412SOL    HW217557   6.664  10.807   6.327 -0.2974  0.7333  1.0246
37413SOL     OW17558   2.665   6.896   8.816 -0.2019  0.8122  0.0497
37413SOL    HW117559   2.656   6.858   8.729  0.1587  2.2800 -0.6416
37413SOL    HW217560   2.638   6.825   8.875 -1.8702  0.2738 -1.2896
37414SOL     OW17561   5.753   7.507   9.755 -0.1350 -0.1696  0.3096
37414SOL    HW117562   5.752   7.452   9.833 -0.4151 -2.2400 -1.0539
37414SOL    HW217563   5.707   7.587   9.780  0.3815 -0.4793  2.4216
37415SOL     OW17564   0.853   2.464   1.311 -0.3614 -0.1042 -0.5203
37415SOL    HW117565   0.810   2.379   1.315  0.3810 -0.4454  1.1732
37415SOL    HW217566   0.934   2.452   1.362  0.1114  1.4109 -0.8649
37416SOL     OW17567   2.968   9.146   7.238  0.3326 -0.9311  0.2805
37416SOL    HW117568   2.928   9.061   7.258 -0.7033 -0.6298 -0.4201
37416SOL    HW217569   3.043   9.152   7.297  0.1284 -2.1179  0.6796
37417SOL     OW17570   6.166   5.049   8.661 -0.4093  0.0335 -0.6842
37417SOL    HW117571   6.097   5.072   8.723  0.5884 -1.7956  1.2579
37417SOL    HW217572   6.208   5.132   8.640 -0.7242  0.7344  1.2499
37418SOL     OW17573   7.764   7.393  10.599 -0.0924 -0.1162  0.3059
37418SOL    HW117574   7.674   7.411  10.624 -0.1180  0.4723 -0.1852
37418SOL    HW217575   7.767   7.413  10.505  0.6665  0.3131  0.4179
37419SOL     OW17576  11.259   1.954   9.865 -0.4462  0.4222  0.0066
37419SOL    HW117577  11.340   1.975   9.912 -0.5170 -1.5160  1.0998
37419SOL    HW217578  11.266   1.861   9.846 -2.0123  0.4274 -0.7526
37420SOL     OW17579   9.532   9.239   5.315 -0.3468 -0.2198 -0.7650
37420SOL    HW117580   9.591   9.232   5.391  0.3238  0.1781 -1.2469
37420SOL    HW217581   9.555   9.322   5.274 -0.8171 -0.3639 -1.3227
37421SOL     OW17582   3.232   0.883   6.844 -0.3572 -0.2323  0.3655
37421SOL    HW117583   3.189   0.798   6.835 -0.0154 -0.2610 -1.1721
37421SOL    HW217584   3.322   0.868   6.814 -0.0120  0.4569  1.0090
37422SOL     OW17585   2.134   5.181   5.587 -0.1989 -0.8076  0.3373
37422SOL    HW117586   2.150   5.104   5.641 -0.6770 -1.2798 -0.1743
37422SOL    HW217587   2.077   5.237   5.640  0.1765 -0.7863  0.7222
37423SOL     OW17588   2.164   6.560   3.783  0.4143  0.2242  0.3518
37423SOL    HW117589   2.202   6.562   3.870 -2.2771 -0.7070  1.6462
37423SOL    HW217590   2.105   6.485   3.784 -2.7616  2.5205 -0.8936
37424SOL     OW17591   2.916   8.972   3.429 -0.0458  0.2284  0.2893
37424SOL    HW117592   2.991   9.025   3.402 -0.0946  0.0154 -0.2683
37424SOL    HW217593   2.872   9.026   3.496  2.0665 -0.7726  2.6242
37425SOL     OW17594   0.840   8.981   5.904  0.5440 -0.0997  0.4710
37425SOL    HW117595   0.841   9.069   5.867  1.7536 -0.4514 -0.4109
37425SOL    HW217596   0.820   8.924   5.829  0.9431 -0.6606  0.7808
37426SOL     OW17597  11.759   9.576  10.550 -0.6323  0.1928 -0.1794
37426SOL    HW117598  11.756   9.625  10.632  0.5945 -0.1506  0.0943
37426SOL    HW217599  11.819   9.504  10.567 -0.2146  0.2154 -1.4320
37427SOL     OW17600   5.641   1.487   4.826  0.3520  0.9343 -0.0608
37427SOL    HW117601   5.679   1.536   4.898  3.7843  0.5872 -1.4736
37427SOL    HW217602   5.655   1.541   4.749 -0.2792 -0.1066 -0.9447
37428SOL     OW17603   5.330   6.227   7.766  0.2926  0.4744 -0.0559
37428SOL    HW117604   5.364   6.312   7.793  0.7553  0.2781 -0.0138
37428SOL    HW217605   5.403   6.185   7.720  0.4095 -0.3196  0.8302
37429SOL     OW17606   1.064   5.395   9.730 -0.0714  0.1882 -0.0775
37429SOL    HW117607   1.085   5.309   9.766  1.0598  0.2716 -0.5081
37429SOL    HW217608   0.995   5.378   9.666  1.2115 -0.6364 -1.2833
37430SOL     OW17609  10.955   8.308   7.225  0.0429  0.4283  0.5917
37430SOL    HW117610  10.943   8.316   7.320 -0.5823  0.9039  0.4817
37430SOL    HW217611  10.891   8.242   7.198  0.5141 -0.0197  0.5534
37431SOL     OW17612   9.394   4.002   5.325  0.1825 -0.1759  0.0512
37431SOL    HW117613   9.439   3.917   5.324  1.3399  0.4201 -1.6240
37431SOL    HW217614   9.465   4.067   5.323 -0.6973  0.7913 -2.3294
37432SOL     OW17615   2.278   5.181  11.181 -0.2663  0.4831 -0.6453
37432SOL    HW117616   2.274   5.273  11.206  4.0420  1.5120 -2.8524
37432SOL    HW217617   2.357   5.147  11.223  0.5999 -0.9179 -3.1424
37433SOL     OW17618   5.959   4.135   0.371  0.1491  0.0001  0.1204
37433SOL    HW117619   5.863   4.129   0.376  0.0057 -0.0067 -1.9347
37433SOL    HW217620   5.976   4.173   0.285  2.0002  0.3657  0.6190
37434SOL     OW17621   8.935   6.431   5.036 -0.4690  0.1304  0.4659
37434SOL    HW117622   8.912   6.523   5.048  0.2563  0.4063 -0.1718
37434SOL    HW217623   9.029   6.427   5.057 -0.8048 -0.7716  2.0349
37435SOL     OW17624   7.674   7.540   3.599  0.2797 -0.0001 -0.5079
37435SOL    HW117625   7.695   7.607   3.664  1.0148  0.4654 -1.2120
37435SOL    HW217626   7.758   7.513   3.564 -0.0930 -0.4522 -1.0659
37436SOL     OW17627   5.124   5.559   4.297  0.1843  0.2093  0.0549
37436SOL    HW117628   5.171   5.623   4.244  2.7196 -1.4527  0.1442
37436SOL    HW217629   5.174   5.478   4.288 -3.3203 -2.1230 -0.7609
37437SOL     OW17630   6.871   1.447   9.109  0.6073  0.8074  0.6719
37437SOL    HW117631   6.910   1.414   9.190 -2.7638  0.6104  2.3968
37437SOL    HW217632   6.849   1.368   9.059  1.2367  0.8853  0.2476
37438SOL     OW17633   0.160  11.482   4.144 -0.2247 -0.1352 -0.7019
37438SOL    HW117634   0.181  11.397   4.105 -0.3054 -0.1410 -0.7334
37438SOL    HW217635   0.230  11.540   4.114  0.8164 -0.5928  0.7345
37439SOL     OW17636   1.347   6.059   2.245 -0.2412 -0.6816 -0.3526
37439SOL    HW117637   1.366   6.123   2.177  1.3474 -1.8002 -1.0391
37439SOL    HW217638   1.268   6.014   2.215 -0.4246 -0.1381 -0.6875
37440SOL     OW17639   5.445  11.484  11.284  0.0626 -0.0427 -0.2798
37440SOL    HW117640   5.412  11.547  11.349  2.3627 -0.2490  1.1995
37440SOL    HW217641   5.519  11.528  11.244  2.1510 -1.9358  1.2631
37441SOL     OW17642   0.290   5.439  11.134  0.0041  0.5245 -0.1010
37441SOL    HW117643   0.215   5.444  11.074  0.6572 -1.9337 -1.2039
37441SOL    HW217644   0.365   5.466  11.081  0.1647  1.3282  0.5190
37442SOL     OW17645  11.518   8.244   3.590  0.1409  0.3179  0.3894
37442SOL    HW117646  11.514   8.149   3.577  1.3257  0.4087 -0.8173
37442SOL    HW217647  11.487   8.280   3.507 -1.7597  1.0406  1.3456
37443SOL     OW17648   8.484   4.527   0.096 -0.0636 -0.1522 -0.3228
37443SOL    HW117649   8.459   4.450   0.148  0.5854 -0.2497 -0.1428
37443SOL    HW217650   8.458   4.505   0.007  1.6643 -1.3356 -0.5883
37444SOL     OW17651   1.614   8.449   6.084 -0.3098  0.2172  0.3894
37444SOL    HW117652   1.557   8.524   6.101  0.3188  0.5081  1.2655
37444SOL    HW217653   1.556   8.382   6.049 -0.9014  1.0670 -0.3016
37445SOL     OW17654   7.586   1.106   9.319  0.2891 -0.3253  0.0353
37445SOL    HW117655   7.609   1.046   9.248  0.5734  0.1932 -0.3157
37445SOL    HW217656   7.636   1.186   9.301 -1.7848  0.8796 -0.7661
37446SOL     OW17657   6.660   2.356   2.178 -0.0498 -0.0758  0.5002
37446SOL    HW117658   6.753   2.371   2.192 -0.0524 -1.7998  2.8159
37446SOL    HW217659   6.654   2.316   2.091  1.2173  0.8974 -0.0641
37447SOL     OW17660  10.695  10.140   0.370 -0.1786  0.1620 -0.6881
37447SOL    HW117661  10.705  10.064   0.428 -1.4697  0.1897 -0.3958
37447SOL    HW217662  10.731  10.213   0.419 -0.8952  0.1115 -0.0741
37448SOL     OW17663   2.291   6.922   1.892 -0.1999  0.5757 -0.2265
37448SOL    HW117664   2.358   6.876   1.842  1.0007  2.6860 -0.6775
37448SOL    HW217665   2.284   6.873   1.974  2.9516  1.0243  0.4337
37449SOL     OW17666  11.193   7.245   9.553  0.1107 -0.2562  0.5239
37449SOL    HW117667  11.209   7.164   9.506 -2.7493 -0.9793  0.6333
37449SOL    HW217668  11.119   7.226   9.610  1.0307  1.6974  2.5598
37450SOL     OW17669   4.185   6.152   1.877  0.1521  0.1251 -0.8699
37450SOL    HW117670   4.126   6.225   1.893 -0.0160 -0.1151 -0.3892
37450SOL    HW217671   4.135   6.093   1.819 -0.1711 -0.1885 -0.2780
37451SOL     OW17672   5.803   5.534   0.038  0.2095  0.9081 -0.0822
37451SOL    HW117673   5.827   5.577  -0.045  2.0215  1.0031  0.4494
37451SOL    HW217674   5.865   5.462   0.047  0.9642  1.7343  1.8529
37452SOL     OW17675   0.858   2.321   4.741 -0.2418 -0.3600  0.3132
37452SOL    HW117676   0.875   2.344   4.650 -1.7972  0.1252  0.1247
37452SOL    HW217677   0.940   2.342   4.787  0.8059 -1.2725 -1.0666
37453SOL     OW17678   6.741  10.769   8.911 -0.6538  0.2285 -0.0727
37453SOL    HW117679   6.668  10.706   8.905 -0.5797  0.1289  0.0638
37453SOL    HW217680   6.704  10.844   8.957 -0.8218  0.4050 -0.4888
37454SOL     OW17681   1.101   4.014   0.609  0.6085 -0.0760  0.6116
37454SOL    HW117682   1.190   4.002   0.643  0.7144 -2.2161 -0.2857
37454SOL    HW217683   1.112   4.075   0.536  1.1952  0.3367  1.0303
37455SOL     OW17684   0.131   6.322   5.203  0.2541  0.3521  0.4541
37455SOL    HW117685   0.114   6.228   5.214  0.7438  0.1633 -0.2833
37455SOL    HW217686   0.064   6.365   5.254 -0.4690 -0.3990  0.1612
37456SOL     OW17687   7.646   4.907  11.825  0.1554 -0.3478  1.0294
37456SOL    HW117688   7.630   4.813  11.823  0.7672 -0.4482 -0.4166
37456SOL    HW217689   7.559   4.946  11.839 -0.2769 -1.0997  0.5271
37457SOL     OW17690  10.534   5.452   5.145  0.2230  0.1621  0.1511
37457SOL    HW117691  10.529   5.411   5.232  1.1622  0.4399  0.3545
37457SOL    HW217692  10.588   5.529   5.159 -1.9689  1.8279 -0.1081
37458SOL     OW17693   5.545   2.116   8.941 -0.1085  0.2489  0.4883
37458SOL    HW117694   5.500   2.033   8.955  0.7211 -0.3744 -0.3856
37458SOL    HW217695   5.591   2.133   9.023 -1.9530  0.9372  1.4268
37459SOL     OW17696   7.901   6.949   7.498 -0.2495  0.3315 -0.1367
37459SOL    HW117697   7.955   6.953   7.419  2.4352 -2.3999  1.3421
37459SOL    HW217698   7.841   6.876   7.482  0.7619 -0.6814  0.5103
37460SOL     OW17699   8.432  11.493   5.935 -0.4426  0.8628  0.3302
37460SOL    HW117700   8.455  11.478   6.026 -2.6730  0.7779  0.9269
37460SOL    HW217701   8.337  11.479   5.931 -0.6649  2.4994 -1.6616
37461SOL     OW17702   5.337  11.046   7.265 -0.5822 -0.2955  0.6050
37461SOL    HW117703   5.262  11.039   7.207 -0.2951  0.0996  0.1827
37461SOL    HW217704   5.326  11.130   7.310  0.5275  0.6411 -0.7853
37462SOL     OW17705   4.484   4.572  11.241  0.2489  0.8077  0.0118
37462SOL    HW117706   4.461   4.665  11.233  1.1383  1.0428  0.1222
37462SOL    HW217707   4.499   4.542  11.152 -0.9383  0.5212 -0.1112
37463SOL     OW17708   8.278   6.640   8.189 -0.1136 -0.0657  0.1133
37463SOL    HW117709   8.323   6.724   8.191  1.3128 -0.7583 -1.1057
37463SOL    HW217710   8.208   6.649   8.255  0.2789  1.8838  0.3287
37464SOL     OW17711   6.924   6.989   4.291  0.3408 -0.5605  0.3783
37464SOL    HW117712   6.910   7.084   4.284 -1.8922 -0.9258 -0.9570
37464SOL    HW217713   7.006   6.974   4.244  0.9777  0.7479  1.0150
37465SOL     OW17714   8.526   2.939  10.784  0.0623  0.3447  0.2466
37465SOL    HW117715   8.598   2.979  10.735  0.8185 -0.0918  0.9775
37465SOL    HW217716   8.448   2.961  10.733  0.7183  0.7140 -0.6370
37466SOL     OW17717   4.382   9.880   9.812 -0.3162  0.1125  0.4158
37466SOL    HW117718   4.455   9.858   9.869 -0.3725  0.1364  0.4965
37466SOL    HW217719   4.307   9.890   9.870 -0.2409  0.7676  0.4141
37467SOL     OW17720  10.429   8.923   5.241 -0.3080 -0.3709 -0.5136
37467SOL    HW117721  10.506   8.929   5.185 -0.9016 -0.2919 -1.3498
37467SOL    HW217722  10.443   8.988   5.309  0.4226 -0.4565 -0.5738
37468SOL     OW17723   9.900   9.640   5.654 -0.1342  0.1622  0.0297
37468SOL    HW117724   9.927   9.581   5.583 -0.9586 -0.2343  0.0298
37468SOL    HW217725   9.899   9.584   5.731 -2.0530 -0.1555 -0.1664
37469SOL     OW17726   5.997   9.272  11.769 -0.0383  0.2845  0.2728
37469SOL    HW117727   6.034   9.326  11.699  0.8381 -1.4171 -0.6339
37469SOL    HW217728   6.029   9.312  11.850  1.4409  0.5143 -0.4105
37470SOL     OW17729   3.277   8.241   0.355 -0.4884 -0.1030 -0.2990
37470SOL    HW117730   3.268   8.333   0.332 -0.1978  0.0695  0.2719
37470SOL    HW217731   3.370   8.228   0.370 -0.7151 -0.0551  1.3535
37471SOL     OW17732   3.738  10.737  10.882  0.1993  0.1473  0.0537
37471SOL    HW117733   3.731  10.817  10.935  0.6191 -0.0922  0.4776
37471SOL    HW217734   3.684  10.673  10.928 -0.4653  0.2897 -0.5056
37472SOL     OW17735   9.985   7.945   2.476  0.4115  0.2936 -0.0536
37472SOL    HW117736   9.915   7.992   2.520  1.0300  0.2209  1.0250
37472SOL    HW217737  10.034   8.013   2.430  0.6595  0.5563  0.6031
37473SOL     OW17738   0.610  11.147   1.422 -0.2790  0.0030  0.0399
37473SOL    HW117739   0.653  11.180   1.343  1.9231  0.4317  1.3442
37473SOL    HW217740   0.544  11.212   1.442 -0.5869  0.0990 -1.1923
37474SOL     OW17741   1.982   5.338  11.337 -0.7094  0.0944 -0.2686
37474SOL    HW117742   1.898   5.344  11.292 -0.8671 -0.4583 -0.0566
37474SOL    HW217743   1.963   5.290  11.418  0.1957 -2.0885 -1.2497
37475SOL     OW17744   9.206   6.457   1.177  0.2652  0.0421  0.4282
37475SOL    HW117745   9.201   6.379   1.121  0.0284 -0.1059  0.6550
37475SOL    HW217746   9.120   6.463   1.218  0.6379 -0.1992  1.2540
37476SOL     OW17747   5.964  10.248   3.083 -0.4546 -0.2095 -0.3838
37476SOL    HW117748   5.978  10.187   3.011  0.8181  1.2628 -1.4470
37476SOL    HW217749   5.884  10.296   3.059  0.2563  0.6401 -1.1191
37477SOL     OW17750  10.005   2.696   6.441  0.4623 -0.3026  0.6869
37477SOL    HW117751   9.994   2.779   6.487  1.1190 -0.5667  1.3297
37477SOL    HW217752  10.024   2.721   6.351 -0.8461  0.2225  0.5336
37478SOL     OW17753  11.160  11.374   0.314 -0.2745  0.6068  0.0984
37478SOL    HW117754  11.172  11.410   0.402  1.4125  0.3784 -0.0170
37478SOL    HW217755  11.104  11.438   0.270  0.7483  1.9220  0.6389
37479SOL     OW17756   1.968   6.159   2.774 -0.4951  0.2696  0.1945
37479SOL    HW117757   1.891   6.215   2.781 -0.8227  0.0427 -1.3447
37479SOL    HW217758   1.970   6.131   2.682  0.8310 -0.5705  0.4478
37480SOL     OW17759  10.776   2.257   2.133  0.0872  0.4356 -0.5531
37480SOL    HW117760  10.866   2.235   2.155 -0.8017 -1.9097  1.1176
37480SOL    HW217761  10.748   2.187   2.074 -1.2403  0.0047  0.5539
37481SOL     OW17762   0.750   1.796   5.380 -0.5423  0.3720 -0.4238
37481SOL    HW117763   0.683   1.793   5.312 -0.4976 -1.3681 -0.4418
37481SOL    HW217764   0.769   1.704   5.399 -0.5824  0.7808  1.9657
37482SOL     OW17765   8.187   3.052   0.812 -0.4193 -0.4941  0.2401
37482SOL    HW117766   8.149   3.064   0.725 -0.0970 -1.8472 -0.1152
37482SOL    HW217767   8.113   3.027   0.868 -0.5075 -0.3514  0.1853
37483SOL     OW17768   8.153   0.984  10.777  0.3738  0.1347 -0.0011
37483SOL    HW117769   8.088   1.015  10.715  0.8236  2.3023  0.5233
37483SOL    HW217770   8.102   0.951  10.851 -0.1666  1.4895  0.2617
37484SOL     OW17771  11.212   7.575   8.163  0.2243  0.0725 -0.1164
37484SOL    HW117772  11.254   7.657   8.188 -0.2891  0.1196  0.6262
37484SOL    HW217773  11.260   7.508   8.212  1.1967 -0.1790 -1.3724
37485SOL     OW17774   2.652   3.379   6.957 -0.1056  0.2159  0.0551
37485SOL    HW117775   2.559   3.353   6.955  0.3199 -1.4109 -0.1718
37485SOL    HW217776   2.665   3.427   6.876 -0.6543  0.1161 -0.0970
37486SOL     OW17777   6.470  11.680   3.405 -0.1776 -0.2548  0.3736
37486SOL    HW117778   6.393  11.673   3.461 -0.5469  1.7575  0.1780
37486SOL    HW217779   6.441  11.732   3.330  0.4704 -2.3643 -1.4476
37487SOL     OW17780   4.077  11.315   6.656 -0.3058  0.1916  0.2462
37487SOL    HW117781   4.069  11.280   6.744 -1.4542 -1.9268 -0.6320
37487SOL    HW217782   4.043  11.246   6.599  1.5655  0.9500 -1.9715
37488SOL     OW17783  10.977   2.589   3.216  0.2033  0.4298  0.2580
37488SOL    HW117784  10.892   2.626   3.242  0.3040  1.3414 -0.6449
37488SOL    HW217785  10.988   2.513   3.273 -0.6854  0.9658  1.1919
37489SOL     OW17786   3.152   2.079   3.558  0.2366 -0.4265 -0.6527
37489SOL    HW117787   3.152   2.108   3.649  1.7610 -1.8948 -0.1295
37489SOL    HW217788   3.115   1.991   3.561  0.6628 -0.6404 -1.3864
37490SOL     OW17789   9.252   0.547   2.505 -0.2817 -0.3243  0.1419
37490SOL    HW117790   9.164   0.584   2.517 -0.1854 -0.0739  0.0737
37490SOL    HW217791   9.309   0.602   2.558  0.0975  0.6148 -1.1838
37491SOL     OW17792   9.368  10.239  10.484  0.2525 -0.5156  0.0888
37491SOL    HW117793   9.341  10.194  10.404 -0.6253  2.1350 -1.2519
37491SOL    HW217794   9.453  10.202  10.506 -0.5626 -3.0278 -0.6111
37492SOL     OW17795   3.688   3.940   0.963 -0.3692  0.0330 -0.1768
37492SOL    HW117796   3.618   3.976   1.018  0.6502  1.9000 -0.0183
37492SOL    HW217797   3.765   3.992   0.986  1.0557 -1.8515 -0.4761
37493SOL     OW17798   1.186   8.829   5.741  0.1935 -0.3272 -0.9921
37493SOL    HW117799   1.221   8.742   5.760 -0.3927 -0.1880  0.8852
37493SOL    HW217800   1.102   8.812   5.699 -0.2563 -0.6698  0.0431
37494SOL     OW17801   3.933   8.124  10.880  0.4105  0.1046  0.6853
37494SOL    HW117802   3.946   8.051  10.942 -2.6427 -1.5880 -0.4636
37494SOL    HW217803   3.860   8.173  10.916  0.3282  0.6789 -0.2435
37495SOL     OW17804   2.479   9.212  11.795 -0.2240  0.0877 -0.3252
37495SOL    HW117805   2.516   9.184  11.879 -1.4658 -0.3587  0.1006
37495SOL    HW217806   2.487   9.135  11.739 -0.0796  0.1404 -0.3765
37496SOL     OW17807  11.423   4.082   6.364  0.5873 -0.4599 -1.1711
37496SOL    HW117808  11.448   4.108   6.275 -1.4397  1.1931 -1.3453
37496SOL    HW217809  11.384   3.996   6.353  1.5296 -0.8366 -1.6638
37497SOL     OW17810   4.779   9.614   7.838  0.2032 -0.2466 -0.2801
37497SOL    HW117811   4.862   9.579   7.808  1.1944 -1.0930  3.0401
37497SOL    HW217812   4.789   9.709   7.832  0.6125 -0.3552 -1.7032
37498SOL     OW17813   7.431   8.548   6.941 -0.1520 -0.1240  0.4118
37498SOL    HW117814   7.499   8.487   6.968 -0.0252 -0.8769 -1.4284
37498SOL    HW217815   7.349   8.508   6.970  0.0597 -0.2382  0.8501
37499SOL     OW17816   2.119   2.254   7.789  0.4954 -0.0528 -0.5400
37499SOL    HW117817   2.065   2.190   7.836 -0.7249  0.9061 -0.5775
37499SOL    HW217818   2.084   2.339   7.817  2.3776  0.6320 -0.1277
37500SOL     OW17819  11.527   2.141   2.763 -0.4437  0.3577 -0.3962
37500SOL    HW117820  11.444   2.131   2.716  0.1133  1.1489 -1.6000
37500SOL    HW217821  11.517   2.223   2.811 -0.0440  0.9598 -1.2975
37501SOL     OW17822   0.737   8.300   4.884 -0.2690  0.2754 -0.5246
37501SOL    HW117823   0.741   8.209   4.857 -0.6723  0.3878 -0.9662
37501SOL    HW217824   0.643   8.318   4.893 -0.1753 -0.1344  2.2036
37502SOL     OW17825   1.343   7.438  11.388 -0.0283 -0.1953 -0.2663
37502SOL    HW117826   1.423   7.442  11.336  0.5801  0.0766  0.6677
37502SOL    HW217827   1.314   7.529  11.394 -0.2802 -0.2661 -0.4070
37503SOL     OW17828   8.872   6.234   9.828 -0.3254 -0.0935  0.5953
37503SOL    HW117829   8.893   6.318   9.787  1.5310 -0.3319  0.9831
37503SOL    HW217830   8.862   6.254   9.921 -0.2146 -0.2497  0.6411
37504SOL     OW17831   2.331   0.885   8.090  0.5461  0.0176  0.2721
37504SOL    HW117832   2.415   0.869   8.133  0.3075 -0.1754  0.6735
37504SOL    HW217833   2.275   0.812   8.119  0.9077 -1.1570 -1.7914
37505SOL     OW17834  10.427   3.815   1.720 -0.2639  0.0430  0.0768
37505SOL    HW117835  10.482   3.813   1.642  0.1108  0.2470  0.3338
37505SOL    HW217836  10.440   3.729   1.761 -0.3447 -0.0074 -0.0013
37506SOL     OW17837   8.574   0.203  10.115  0.0618 -0.0517 -0.4779
37506SOL    HW117838   8.511   0.261  10.158  2.0375  1.5015  0.4485
37506SOL    HW217839   8.652   0.256  10.103  1.8242 -2.3663 -0.0060
37507SOL     OW17840  11.095   2.832  11.141  0.3282 -0.2644  0.1823
37507SOL    HW117841  11.170   2.780  11.113 -0.5642 -0.9290 -1.0442
37507SOL    HW217842  11.068   2.880  11.063 -0.6624 -0.2327  0.5267
37508SOL     OW17843   0.248   0.097   4.939  0.1474  0.0146 -0.5074
37508SOL    HW117844   0.191   0.168   4.911 -1.5073 -1.1329 -0.1672
37508SOL    HW217845   0.285   0.126   5.022 -1.0020  0.2466 -0.0574
37509SOL     OW17846   2.445   9.116   0.817  0.2777  0.1980 -0.1963
37509SOL    HW117847   2.366   9.171   0.815  0.0393 -0.0428  1.4075
37509SOL    HW217848   2.472   9.111   0.725 -0.0650  2.4465 -0.4907
37510SOL     OW17849   8.882  11.792   2.215 -0.0231  0.0855 -0.2486
37510SOL    HW117850   8.794  11.810   2.249 -0.3701 -0.4490 -0.8422
37510SOL    HW217851   8.929  11.875   2.223 -0.3666  0.2005  0.7193
37511SOL     OW17852   5.366  11.032   6.794  0.0843 -0.0974  0.6891
37511SOL    HW117853   5.306  11.048   6.722  1.2240  1.5647  0.0478
37511SOL    HW217854   5.360  10.937   6.810 -1.3557 -0.2447 -0.5035
37512SOL     OW17855   3.088   4.966   6.218 -0.0393 -0.3011 -0.7909
37512SOL    HW117856   3.076   4.873   6.237 -2.5043 -0.0103 -0.6118
37512SOL    HW217857   3.088   4.972   6.123  2.8014 -0.7075 -0.8995
37513SOL     OW17858  10.616   1.316   0.439 -0.0866  0.7926 -0.4610
37513SOL    HW117859  10.580   1.399   0.408 -0.0044  0.7186 -0.7581
37513SOL    HW217860  10.636   1.267   0.359  0.4609  0.7438 -0.2978
37514SOL     OW17861   5.298   6.662  10.804 -0.0578  0.0436 -0.2359
37514SOL    HW117862   5.268   6.674  10.714 -1.3159 -2.2400 -0.2009
37514SOL    HW217863   5.361   6.590  10.798 -0.1121 -0.0876  0.6707
37515SOL     OW17864   1.160   3.641   4.846  0.4768 -0.2148  0.0569
37515SOL    HW117865   1.070   3.607   4.847 -0.1788  1.4039  0.6026
37515SOL    HW217866   1.170   3.684   4.931  1.0855  1.2623 -0.7233
37516SOL     OW17867   2.862   0.182   2.913  0.5897  0.4614 -0.1934
37516SOL    HW117868   2.844   0.090   2.897  1.3389  0.5147 -1.4976
37516SOL    HW217869   2.837   0.196   3.005  1.3722 -1.2512  0.3175
37517SOL     OW17870   5.839   0.520   3.896  0.3118 -0.3737 -0.2651
37517SOL    HW117871   5.798   0.533   3.810 -0.6269  2.4060  0.5276
37517SOL    HW217872   5.872   0.606   3.920 -1.2037 -0.5913  3.0427
37518SOL     OW17873   5.910   5.454   9.519  0.5886  0.2277  0.1931
37518SOL    HW117874   5.971   5.456   9.592 -0.2126 -1.1381  0.9412
37518SOL    HW217875   5.869   5.541   9.520  1.9043  0.8782  0.1702
37519SOL     OW17876   4.333   6.042   9.236 -0.2250  0.7907  0.7109
37519SOL    HW117877   4.261   6.104   9.227 -0.3237  0.7948  1.4749
37519SOL    HW217878   4.299   5.973   9.293  0.4153  0.8642  1.1935
37520SOL     OW17879   7.008   1.045   1.092  0.2275  0.0366  0.5092
37520SOL    HW117880   7.020   0.967   1.038  0.5686  0.4471 -0.0147
37520SOL    HW217881   7.049   1.023   1.175 -1.0219 -0.9053  0.9076
37521SOL     OW17882   4.613   8.630   6.129  0.7302  0.3992 -0.2470
37521SOL    HW117883   4.688   8.584   6.167  0.9575  0.2100 -0.9201
37521SOL    HW217884   4.587   8.577   6.054 -0.1128  0.4392 -0.0012
37522SOL     OW17885   3.686   4.515  10.493  0.1125 -0.1460 -0.2403
37522SOL    HW117886   3.717   4.443  10.437 -1.3912 -1.0976  0.1043
37522SOL    HW217887   3.630   4.567  10.436  1.6852  1.1595 -0.6637
37523SOL     OW17888   6.803   1.656   7.285 -0.2962 -0.1234  0.4849
37523SOL    HW117889   6.764   1.697   7.362  1.4035 -1.7510  2.3348
37523SOL    HW217890   6.896   1.649   7.306  0.1130 -1.3048 -1.4227
37524SOL     OW17891   7.848   1.673   9.729 -0.5726 -0.0822 -0.0729
37524SOL    HW117892   7.835   1.672   9.634 -0.9979 -1.8444 -0.0293
37524SOL    HW217893   7.942   1.678   9.741 -0.5608  1.0838 -0.5623
37525SOL     OW17894   6.831   6.444   2.625  0.4012  0.1285 -0.5716
37525SOL    HW117895   6.736   6.451   2.627  0.4134  0.1618  0.1778
37525SOL    HW217896   6.852   6.429   2.533 -0.2048  1.7101 -0.9857
37526SOL     OW17897   3.685   0.341   3.517  0.1934  0.5973 -0.3387
37526SOL    HW117898   3.662   0.404   3.585 -1.8613 -1.3751  0.9440
37526SOL    HW217899   3.780   0.342   3.514  0.2494  2.7822  0.5241
37527SOL     OW17900   0.096   7.132   5.013 -0.6764 -0.5026 -0.1309
37527SOL    HW117901   0.073   7.051   4.967 -1.4389  0.1459 -0.9197
37527SOL    HW217902   0.031   7.139   5.083  0.1348 -1.1901  0.7175
37528SOL     OW17903  11.439   7.416   2.555 -0.2942  0.1046  0.0368
37528SOL    HW117904  11.467   7.443   2.468 -0.9575  0.3165 -0.1172
37528SOL    HW217905  11.393   7.333   2.540 -0.3944  0.1324  0.1912
37529SOL     OW17906   0.230   6.188  11.057  0.5781  0.0375  0.3926
37529SOL    HW117907   0.250   6.279  11.035  1.8547 -0.2709  0.2236
37529SOL    HW217908   0.286   6.137  10.999 -0.2086 -0.8714  0.4088
37530SOL     OW17909   2.419   7.016  11.474  0.6153  0.0358 -0.7157
37530SOL    HW117910   2.365   7.093  11.493  0.2393 -0.4611  0.2804
37530SOL    HW217911   2.394   6.952  11.540  2.6498 -0.1155 -0.0377
37531SOL     OW17912   9.720   9.505   6.344  0.4616  0.1572 -0.1878
37531SOL    HW117913   9.737   9.568   6.413  0.6568 -1.0711  0.9190
37531SOL    HW217914   9.763   9.425   6.373  0.0773 -0.5496 -1.4705
37532SOL     OW17915   0.776   2.862   8.662 -0.4104  0.8237 -0.0049
37532SOL    HW117916   0.857   2.848   8.711 -1.4175 -0.3026  1.4131
37532SOL    HW217917   0.787   2.812   8.581  2.0224  4.1491 -2.0125
37533SOL     OW17918   2.153   3.424   8.801 -0.8608  0.0050  0.3917
37533SOL    HW117919   2.218   3.370   8.757 -0.8146 -3.8028  4.5088
37533SOL    HW217920   2.195   3.510   8.809  0.0559  0.2629 -4.2682
37534SOL     OW17921  10.239   5.625   7.862 -0.2188  0.1653  0.1580
37534SOL    HW117922  10.294   5.547   7.871 -0.0675  0.3528  0.9225
37534SOL    HW217923  10.267   5.682   7.933 -1.5559  0.1804  0.7047
37535SOL     OW17924   8.012   9.960  10.013 -0.2850  0.1512 -0.1085
37535SOL    HW117925   7.984   9.946  10.103 -2.2221 -0.9866 -0.8285
37535SOL    HW217926   8.099   9.920  10.008  0.3613  1.2721  1.5098
37536SOL     OW17927   8.134   0.057   5.419  0.1092 -0.5809  0.3972
37536SOL    HW117928   8.136   0.094   5.507  1.5428 -0.3974  0.3124
37536SOL    HW217929   8.062   0.103   5.375  1.5785  1.9405  0.4027
37537SOL     OW17930  11.635   9.372   9.151 -0.2865 -0.0774  0.3171
37537SOL    HW117931  11.599   9.283   9.147  0.0316 -0.2646  1.2984
37537SOL    HW217932  11.578   9.418   9.213 -0.0181  0.1992  0.3582
37538SOL     OW17933   1.870   1.655   6.727  0.4794  0.0830 -0.4001
37538SOL    HW117934   1.902   1.567   6.744 -0.0224  0.1252  0.8534
37538SOL    HW217935   1.780   1.642   6.697  0.0432  0.2083  0.8150
37539SOL     OW17936   5.333   4.580   3.360  0.4419 -0.3764 -0.7663
37539SOL    HW117937   5.383   4.512   3.315  0.5407 -0.0699 -1.1313
37539SOL    HW217938   5.398   4.648   3.379  0.2099 -0.0742 -1.0429
37540SOL     OW17939   0.340  10.982   9.374 -0.2533  0.0463  0.3532
37540SOL    HW117940   0.246  10.973   9.388 -0.2592  1.7793  1.8009
37540SOL    HW217941   0.378  10.904   9.414 -1.1661 -2.8165 -3.7094
37541SOL     OW17942   7.264  10.549   4.433  0.3487 -0.3487  0.5550
37541SOL    HW117943   7.241  10.458   4.448 -0.4708  0.1479  2.6543
37541SOL    HW217944   7.337  10.566   4.492  0.3806  0.4063  0.3123
37542SOL     OW17945   6.087  11.171   2.312  0.2908  0.1641 -0.3256
37542SOL    HW117946   6.003  11.125   2.320 -0.3738  1.4973  0.8744
37542SOL    HW217947   6.105  11.171   2.218 -0.2095 -1.5587 -0.4642
37543SOL     OW17948   2.966   7.797   0.708  0.2710 -0.0098  0.4737
37543SOL    HW117949   2.906   7.804   0.634 -0.8024 -0.6354  1.2585
37543SOL    HW217950   2.985   7.704   0.715  0.5377  0.0712  0.8629
37544SOL     OW17951   6.615   6.297   9.275 -0.0218  0.4354 -0.0665
37544SOL    HW117952   6.633   6.240   9.200 -0.6311 -0.3073  0.3392
37544SOL    HW217953   6.702   6.327   9.304  0.2931 -0.1341 -0.4051
37545SOL     OW17954   5.269  10.468   1.400  0.3196  0.1185 -0.7664
37545SOL    HW117955   5.292  10.491   1.311  1.3998 -0.8804 -0.7683
37545SOL    HW217956   5.211  10.392   1.391  0.2836  0.1269 -0.6202
37546SOL     OW17957   8.194   2.453   4.463 -0.3340 -0.1627 -0.2729
37546SOL    HW117958   8.233   2.491   4.384  0.1535  0.2585  0.1698
37546SOL    HW217959   8.113   2.502   4.475 -1.1571 -1.1941 -1.3251
37547SOL     OW17960   6.063   5.939   8.957  0.7344 -0.0120 -0.6650
37547SOL    HW117961   6.060   5.928   9.052 -1.8907  0.3152 -0.6552
37547SOL    HW217962   6.062   5.849   8.923 -0.7452 -0.1245 -0.3764
37548SOL     OW17963   6.172   2.383   4.069 -0.3465 -0.2125 -0.4331
37548SOL    HW117964   6.192   2.312   4.130 -0.0284  1.0334  0.9890
37548SOL    HW217965   6.200   2.351   3.984  0.2287 -1.5991  0.2506
37549SOL     OW17966   5.481   5.076   2.332 -0.0105 -0.5477  0.3296
37549SOL    HW117967   5.492   5.133   2.256  0.5217  0.5416  1.2088
37549SOL    HW217968   5.559   5.090   2.384 -0.0358 -1.8393  0.7384
37550SOL     OW17969   2.968   8.690   1.663  0.6495  0.1512  0.0349
37550SOL    HW117970   3.033   8.690   1.593 -0.1962 -2.0293 -0.8241
37550SOL    HW217971   2.912   8.615   1.644  0.5671 -0.7518  3.2207
37551SOL     OW17972   8.636   8.761   8.879 -0.1072  0.4206 -0.1851
37551SOL    HW117973   8.562   8.811   8.914  1.5598  0.9409  2.9459
37551SOL    HW217974   8.687   8.825   8.831 -1.0298  0.3123 -1.3594
37552SOL     OW17975   7.274   4.735   4.590  0.3213 -0.3283  0.6268
37552SOL    HW117976   7.195   4.725   4.643 -1.1132 -0.2340 -1.4028
37552SOL    HW217977   7.296   4.646   4.563 -0.5251 -0.1462 -0.7525
37553SOL     OW17978  10.044   1.533   1.624 -0.4577 -0.3342  0.9250
37553SOL    HW117979  10.070   1.593   1.554 -0.0550 -1.5926 -0.0459
37553SOL    HW217980  10.100   1.556   1.698  0.2919 -0.0596  0.2910
37554SOL     OW17981   7.961   4.933   1.612 -0.2287 -0.0396 -0.0815
37554SOL    HW117982   7.985   5.025   1.613  0.8514 -0.3134  0.6867
37554SOL    HW217983   8.041   4.886   1.636 -1.3190 -1.0403  1.9100
37555SOL     OW17984  10.226   9.292   3.492 -0.0635 -0.0329 -0.3188
37555SOL    HW117985  10.278   9.303   3.571  1.8761 -1.8549 -1.2504
37555SOL    HW217986  10.224   9.379   3.453  1.7831  0.2338  0.0891
37556SOL     OW17987   3.588   0.697   3.881  0.0822 -0.1177  0.5652
37556SOL    HW117988   3.568   0.701   3.974  1.1404  0.6202  0.7842
37556SOL    HW217989   3.649   0.769   3.867 -0.1847 -0.1218 -0.7369
37557SOL     OW17990  11.089   8.615   2.869 -0.0452 -0.1248  0.4092
37557SOL    HW117991  11.028   8.552   2.907  0.2238 -0.1561  0.7902
37557SOL    HW217992  11.176   8.582   2.891  0.1094  1.3580  2.3021
37558SOL     OW17993   2.632  11.825   4.142 -0.1845 -0.4988 -0.6581
37558SOL    HW117994   2.688  11.784   4.076 -1.2425 -1.1480 -1.1809
37558SOL    HW217995   2.615  11.913   4.109 -0.2635 -0.6354 -0.9860
37559SOL     OW17996   4.554   6.637   7.421  0.3614  0.4540 -0.6201
37559SOL    HW117997   4.492   6.677   7.361 -0.3717  0.2718  0.0081
37559SOL    HW217998   4.557   6.545   7.396 -0.5729  0.2034  0.1306
37560SOL     OW17999  10.640   1.827   2.212 -0.2567  0.1291  0.2171
37560SOL    HW118000  10.584   1.750   2.226 -0.7632  0.3174 -0.6366
37560SOL    HW218001  10.680   1.811   2.127  1.9298 -0.5376  1.3077
37561SOL     OW18002   2.208   3.898   2.093 -0.1405  0.1985 -0.1188
37561SOL    HW118003   2.191   3.812   2.056 -1.5507  0.7046 -0.7267
37561SOL    HW218004   2.239   3.881   2.182  1.2360 -0.9676 -0.7819
37562SOL     OW18005   2.003   5.317  10.719  0.0730 -0.1130  0.2820
37562SOL    HW118006   1.968   5.382  10.780  1.1583  0.7714 -0.0154
37562SOL    HW218007   2.067   5.268  10.770  1.1834  0.8071 -0.1892
37563SOL     OW18008   9.917   5.986   8.380 -0.2645  0.3227  0.2561
37563SOL    HW118009   9.979   6.002   8.451  0.1227  2.8464 -0.5378
37563SOL    HW218010   9.971   5.965   8.304 -0.4650  0.7193 -0.0035
37564SOL     OW18011   4.935   0.048   2.515 -0.1738  0.4054  0.5437
37564SOL    HW118012   4.916  -0.015   2.446 -1.8895  2.3688 -0.8787
37564SOL    HW218013   4.851   0.061   2.560  0.2868  1.2125  1.2135
37565SOL     OW18014   3.760   3.329  11.805  0.0115 -0.3593  0.2701
37565SOL    HW118015   3.785   3.342  11.714  0.7598  2.4718  0.7908
37565SOL    HW218016   3.664   3.323  11.803  0.0504 -0.8622 -0.7190
37566SOL     OW18017   5.839   7.573   3.977  0.3248  0.2177  0.4222
37566SOL    HW118018   5.904   7.630   4.019  0.6878  0.3866 -0.3530
37566SOL    HW218019   5.847   7.489   4.022  0.3867  0.5275  0.9968
37567SOL     OW18020   3.147  11.650   8.761  0.1847 -0.0175  0.1257
37567SOL    HW118021   3.111  11.561   8.762 -1.1734  0.4437 -1.8917
37567SOL    HW218022   3.072  11.707   8.774  0.8210  0.8819 -0.0547
37568SOL     OW18023   8.394   4.615  10.384  0.2204  0.2459 -0.0113
37568SOL    HW118024   8.479   4.621  10.427  0.4582 -1.3416 -0.2093
37568SOL    HW218025   8.409   4.558  10.308 -1.1206 -0.5305  0.2664
37569SOL     OW18026  11.425   7.409   4.033 -0.5508 -0.6200 -0.0448
37569SOL    HW118027  11.446   7.345   3.965 -3.0312 -0.8228 -0.7141
37569SOL    HW218028  11.339   7.381   4.066 -0.9573  1.4402  0.7568
37570SOL     OW18029   4.437   9.743   2.192  0.4751  0.7139 -0.0133
37570SOL    HW118030   4.525   9.704   2.185 -0.1944 -0.9205  0.1935
37570SOL    HW218031   4.430   9.767   2.285  0.1228 -0.6741  0.3429
37571SOL     OW18032   3.519   1.755   2.274  0.5389  0.5689  0.3816
37571SOL    HW118033   3.496   1.754   2.181 -0.0095 -1.7929  0.4592
37571SOL    HW218034   3.441   1.721   2.318  1.0433  0.9782  1.6297
37572SOL     OW18035   7.856   1.173   1.594 -0.1418  0.0068  0.4864
37572SOL    HW118036   7.817   1.093   1.630 -0.8478  0.1536  0.0834
37572SOL    HW218037   7.780   1.227   1.568  0.3160  0.9548  1.0683
37573SOL     OW18038   2.291   2.270  10.576  0.1713  0.4580  0.3375
37573SOL    HW118039   2.225   2.327  10.536 -0.8470 -1.2870 -0.6497
37573SOL    HW218040   2.260   2.257  10.666 -1.5620 -1.2297 -0.4239
37574SOL     OW18041   3.819   0.187   8.030  0.2996  0.1842  0.2953
37574SOL    HW118042   3.744   0.196   7.972  0.1960 -1.2005  0.1863
37574SOL    HW218043   3.895   0.192   7.972  0.2519  0.4567  0.2570
37575SOL     OW18044   1.383  10.812   8.576  0.1400 -0.8039  0.2049
37575SOL    HW118045   1.367  10.906   8.577 -0.5879 -0.9052  1.2947
37575SOL    HW218046   1.315  10.776   8.634  0.8836 -1.9125  0.4331
37576SOL     OW18047   0.132   6.683   7.125  0.4048  0.0444 -0.4133
37576SOL    HW118048   0.092   6.673   7.038  0.1538 -1.5521 -0.1328
37576SOL    HW218049   0.058   6.684   7.186  0.6635 -2.4480  0.0649
37577SOL     OW18050  10.336   3.667   6.757 -0.1499 -0.2632 -0.1976
37577SOL    HW118051  10.331   3.715   6.840 -0.3892  2.0842 -1.4928
37577SOL    HW218052  10.251   3.682   6.715 -0.8730 -3.2012 -0.0370
37578SOL     OW18053   3.595   3.274   0.226  0.4370  0.3410  0.3937
37578SOL    HW118054   3.571   3.335   0.156 -0.0998  0.2806  0.5195
37578SOL    HW218055   3.642   3.203   0.182 -1.4328 -0.5980 -0.1982
37579SOL     OW18056   6.346   6.569  10.612  0.4571  0.4978 -0.1345
37579SOL    HW118057   6.404   6.494  10.602  1.8885  1.7046 -1.2407
37579SOL    HW218058   6.294   6.549  10.690  1.4489 -1.1939  0.1339
37580SOL     OW18059   6.105  10.879   8.269 -0.7911  0.2974 -0.3376
37580SOL    HW118060   6.095  10.957   8.215 -2.7499 -0.3576 -1.0042
37580SOL    HW218061   6.046  10.893   8.343  1.8191  1.1709  1.7786
37581SOL     OW18062   2.109   4.289  10.854 -0.3445 -0.0127  0.4753
37581SOL    HW118063   2.161   4.209  10.868 -1.0923 -0.8855 -1.4458
37581SOL    HW218064   2.170   4.360  10.874  0.9719 -1.0426  0.2973
37582SOL     OW18065   5.425  11.625   7.216 -0.0151 -0.0465  0.3053
37582SOL    HW118066   5.474  11.691   7.265  0.3889 -0.9281  1.1081
37582SOL    HW218067   5.490  11.560   7.190 -0.8021 -1.6389  2.0540
37583SOL     OW18068   3.174  11.271   9.174  0.5164 -0.2928 -0.0001
37583SOL    HW118069   3.087  11.300   9.148 -0.2040 -2.6796 -0.4865
37583SOL    HW218070   3.223  11.352   9.187 -1.7420  1.1222  0.2809
37584SOL     OW18071   5.806   2.303   0.031  0.6557  0.4358 -0.4525
37584SOL    HW118072   5.840   2.316   0.119  0.2104 -0.6170 -0.1128
37584SOL    HW218073   5.785   2.392   0.000  0.6983  0.8037  0.5410
37585SOL     OW18074   4.706   1.024   0.210  0.3951 -0.3272  0.0820
37585SOL    HW118075   4.778   0.969   0.180 -1.5412 -2.5112 -0.9177
37585SOL    HW218076   4.683   0.989   0.296 -1.5161 -1.9475 -0.9902
37586SOL     OW18077   2.388  10.629   3.940  0.5359  0.1559  0.1798
37586SOL    HW118078   2.471  10.606   3.899 -0.1966 -0.8688 -0.8213
37586SOL    HW218079   2.323  10.615   3.871 -0.4316  1.3862  0.7898
37587SOL     OW18080   6.079   3.133   0.882  0.1245 -0.0630 -0.1867
37587SOL    HW118081   6.132   3.141   0.803  0.6182 -0.8636  0.0457
37587SOL    HW218082   6.141   3.107   0.950 -0.4901 -0.5860  0.1898
37588SOL     OW18083  10.036  11.071  11.470 -0.2921 -0.0712 -0.6204
37588SOL    HW118084  10.053  11.137  11.538 -0.1378 -0.9794  0.2464
37588SOL    HW218085   9.945  11.085  11.445 -0.5110 -0.0657  0.1580
37589SOL     OW18086   8.367  10.654   6.998  0.4791 -0.0138 -0.1860
37589SOL    HW118087   8.341  10.562   6.991  0.0251  0.2640 -4.2046
37589SOL    HW218088   8.462  10.652   6.991  0.3904 -0.1414 -1.5176
37590SOL     OW18089   8.410   8.599  10.837  0.0054 -0.6862 -0.1955
37590SOL    HW118090   8.366   8.663  10.892 -1.3712 -0.7989 -1.1252
37590SOL    HW218091   8.495   8.585  10.879 -0.0007  1.1250  0.4680
37591SOL     OW18092  10.427   5.469   8.383 -0.4964 -0.0959  0.1253
37591SOL    HW118093  10.365   5.401   8.355  0.5058 -1.8081  1.8586
37591SOL    HW218094  10.488   5.478   8.309 -1.9294  0.6176 -1.0390
37592SOL     OW18095  10.105   6.761   4.193 -0.5674 -0.0996  0.1904
37592SOL    HW118096  10.042   6.780   4.263 -2.0661 -0.9132 -0.8747
37592SOL    HW218097  10.076   6.676   4.158  2.7071 -1.8701  1.3652
37593SOL     OW18098   1.709   4.413   5.700 -0.3729  0.3063 -0.1491
37593SOL    HW118099   1.656   4.491   5.682 -0.3272  0.0545 -1.4553
37593SOL    HW218100   1.726   4.375   5.614 -0.7671 -1.4102  0.5098
37594SOL     OW18101   4.820   9.794   8.114  0.6759 -0.4304 -0.2478
37594SOL    HW118102   4.896   9.830   8.160  0.1650 -0.2749  0.5065
37594SOL    HW218103   4.760   9.769   8.185  0.0738 -0.6506 -0.8304
37595SOL     OW18104   5.805  10.669   1.669 -0.3065  0.5327 -0.0276
37595SOL    HW118105   5.753  10.601   1.711 -1.6691  0.5936 -1.5121
37595SOL    HW218106   5.783  10.749   1.716  0.8432  0.1084  1.3294
37596SOL     OW18107   7.636   8.815   9.734 -0.0236  0.0654  0.8224
37596SOL    HW118108   7.559   8.868   9.710 -0.5805 -0.3107  1.7265
37596SOL    HW218109   7.711   8.870   9.713 -0.4738 -0.0499 -1.3211
37597SOL     OW18110   8.427   1.352   3.719  0.1090 -0.5386  0.0348
37597SOL    HW118111   8.395   1.389   3.801  0.6086  0.8019 -0.3533
37597SOL    HW218112   8.477   1.275   3.746  1.3946  0.6223  1.1430
37598SOL     OW18113   8.477   2.268   6.160 -0.1381 -0.0530 -0.0434
37598SOL    HW118114   8.465   2.300   6.071  0.4279 -0.3391 -0.2305
37598SOL    HW218115   8.541   2.198   6.151  0.7122  0.5997  0.7141
37599SOL     OW18116  11.128  10.309  10.017  0.5170 -0.7984  0.2530
37599SOL    HW118117  11.121  10.383  10.077 -3.5473 -0.3407 -0.4621
37599SOL    HW218118  11.176  10.345   9.941  1.3245  0.1063  1.1566
37600SOL     OW18119  11.687   1.509   5.660  0.3807 -0.2037 -0.1099
37600SOL    HW118120  11.622   1.480   5.596  0.5095 -2.0439  0.5247
37600SOL    HW218121  11.651   1.482   5.744  1.0291  0.6029  0.4436
37601SOL     OW18122  11.290   8.555   0.414 -0.5625  0.0822 -0.0253
37601SOL    HW118123  11.286   8.595   0.501  0.7148 -1.0929  0.6113
37601SOL    HW218124  11.319   8.627   0.357 -0.7649  0.7061  0.6328
37602SOL     OW18125   0.285   6.252   1.150 -0.5219 -0.4452 -0.1656
37602SOL    HW118126   0.366   6.232   1.104  0.3864 -0.5140  1.3897
37602SOL    HW218127   0.247   6.167   1.171  0.1196 -0.4762  0.9566
37603SOL     OW18128   7.517   8.855   1.932  0.2867 -0.1623 -0.4019
37603SOL    HW118129   7.543   8.765   1.911 -0.7891 -0.8625  1.0468
37603SOL    HW218130   7.421   8.855   1.924  0.3078  1.0096 -0.8946
37604SOL     OW18131   2.764   3.813   7.342 -0.6962  0.2181  0.0200
37604SOL    HW118132   2.801   3.901   7.331 -1.5951  0.9082  2.0885
37604SOL    HW218133   2.789   3.767   7.262  0.2325  2.1911 -0.9021
37605SOL     OW18134  10.993   1.344   1.395 -0.1895 -0.3924  0.3482
37605SOL    HW118135  10.919   1.389   1.355  0.5030 -0.1583 -0.7069
37605SOL    HW218136  11.046   1.414   1.434 -0.7897 -0.6053  1.6038
37606SOL     OW18137   8.815   6.229   4.877 -0.3557 -0.3606  0.1062
37606SOL    HW118138   8.833   6.301   4.938  1.2363 -0.8699  0.2822
37606SOL    HW218139   8.869   6.249   4.800 -0.5911 -0.9102 -0.2065
37607SOL     OW18140   8.579   8.974   8.173 -0.0501  0.1309  0.5514
37607SOL    HW118141   8.643   8.937   8.234 -0.9242 -0.1926  1.2881
37607SOL    HW218142   8.495   8.966   8.218 -0.5426  1.0931 -0.1484
37608SOL     OW18143   3.280   2.523   9.121 -0.3119 -0.2010  0.4787
37608SOL    HW118144   3.259   2.616   9.108 -0.4214 -0.2737  0.1087
37608SOL    HW218145   3.203   2.487   9.164 -0.8396 -0.4010 -0.5944
37609SOL     OW18146   9.127   2.739   4.149 -0.6463  0.0831  0.0928
37609SOL    HW118147   9.036   2.766   4.162 -0.3996  0.3278  1.3691
37609SOL    HW218148   9.177   2.820   4.151 -0.3942 -0.0403 -0.7111
37610SOL     OW18149   4.447  10.520  10.694 -0.4953 -0.4129  0.7839
37610SOL    HW118150   4.460  10.438  10.743 -0.2254 -0.0226  1.3776
37610SOL    HW218151   4.493  10.586  10.746 -2.4716  0.5134  1.4273
37611SOL     OW18152   4.809   8.807   6.235 -0.2031  0.7839  0.2029
37611SOL    HW118153   4.749   8.780   6.166 -0.2618 -0.4023  0.6808
37611SOL    HW218154   4.836   8.895   6.212  0.5017  0.0850 -1.8285
37612SOL     OW18155   1.549   8.882   1.276 -0.1799 -0.1866 -0.1597
37612SOL    HW118156   1.630   8.904   1.322  0.0531 -0.4600 -0.4348
37612SOL    HW218157   1.480   8.920   1.330 -0.0228 -1.6591  1.1780
37613SOL     OW18158   5.666  10.220   8.871 -0.4404  0.1266  0.2530
37613SOL    HW118159   5.608  10.191   8.942 -0.4158 -1.3686 -0.2949
37613SOL    HW218160   5.665  10.147   8.809  3.4243 -0.7968  1.0208
37614SOL     OW18161   3.236  11.014   9.863  0.3440  0.3497 -0.5424
37614SOL    HW118162   3.221  11.083   9.798  3.2535  0.3620 -1.3438
37614SOL    HW218163   3.241  10.933   9.811  1.7962  0.2402 -0.2650
37615SOL     OW18164   0.122   6.545   9.513  0.1938 -0.1332  0.6579
37615SOL    HW118165   0.212   6.511   9.516 -0.6441 -2.5341  0.7637
37615SOL    HW218166   0.090   6.519   9.427 -0.2675  1.1699  0.4164
37616SOL     OW18167   3.217   3.362   7.144 -0.1798 -0.5583  0.2447
37616SOL    HW118168   3.216   3.267   7.135  0.2834 -0.8119  2.3945
37616SOL    HW218169   3.307   3.382   7.170 -0.4351  0.4082  0.4107
37617SOL     OW18170   3.315   5.476   7.865 -0.1491 -0.7522 -0.3722
37617SOL    HW118171   3.222   5.456   7.865 -0.1147 -0.9541  0.5982
37617SOL    HW218172   3.324   5.549   7.803 -1.0546 -0.2663  0.0475
37618SOL     OW18173   6.424   4.288   6.591  0.2010  0.4914 -0.2163
37618SOL    HW118174   6.388   4.212   6.636 -0.9246  0.8689 -0.4660
37618SOL    HW218175   6.351   4.324   6.541  1.2981  0.3832 -1.9615
37619SOL     OW18176   1.442   5.892   5.612  0.1102 -0.4112  0.3209
37619SOL    HW118177   1.454   5.946   5.690  0.2882 -1.0101  0.7094
37619SOL    HW218178   1.351   5.909   5.586  0.5355  1.0860 -0.3419
37620SOL     OW18179   4.394   9.479   8.446  0.2806 -0.2017 -0.4572
37620SOL    HW118180   4.485   9.464   8.471  0.3763 -0.2389 -0.8279
37620SOL    HW218181   4.399   9.528   8.365 -0.0307  1.4030  0.4597
37621SOL     OW18182   8.779   6.348   3.896  0.5145  0.5054  0.3378
37621SOL    HW118183   8.864   6.317   3.927 -0.4405 -1.0583  1.5927
37621SOL    HW218184   8.762   6.296   3.818  0.6272  0.6706  0.2040
37622SOL     OW18185   7.253  10.053   6.984 -0.0524 -0.3748 -0.7454
37622SOL    HW118186   7.318  10.111   7.024 -2.1672  2.3768 -1.0014
37622SOL    HW218187   7.174  10.068   7.035 -1.2166 -1.5499 -2.1319
37623SOL     OW18188  10.499   6.949   4.731 -0.1879  0.0426  0.0432
37623SOL    HW118189  10.451   6.906   4.803  1.7891 -1.1350  0.7230
37623SOL    HW218190  10.496   7.042   4.754 -1.0794 -0.1305  0.7185
37624SOL     OW18191   9.499  10.890   4.231 -0.4508 -0.3759 -0.0635
37624SOL    HW118192   9.489  10.892   4.136  1.5861 -0.3564 -0.3155
37624SOL    HW218193   9.546  10.970   4.252 -2.4106  0.5043  1.2125
37625SOL     OW18194   9.560   0.600   1.705  0.1161  0.4859 -0.6111
37625SOL    HW118195   9.542   0.693   1.722  0.4870  0.8327 -1.9640
37625SOL    HW218196   9.485   0.554   1.742 -0.2520  1.3577 -0.2332
37626SOL     OW18197   7.024   3.549   4.097 -0.9512 -0.0433  0.0204
37626SOL    HW118198   6.971   3.570   4.020 -1.6474  0.2607  0.5598
37626SOL    HW218199   7.108   3.520   4.062 -1.1702  0.3208 -0.8441
37627SOL     OW18200   0.248  10.498  11.080 -0.1269  0.5461 -0.1022
37627SOL    HW118201   0.213  10.562  11.019 -1.4181  0.0711  0.1141
37627SOL    HW218202   0.323  10.541  11.120 -0.2008  1.4291 -0.8939
37628SOL     OW18203   8.260   6.943   6.323 -0.3565 -0.0056 -0.2183
37628SOL    HW118204   8.176   6.974   6.357 -0.4931 -0.6710  0.0696
37628SOL    HW218205   8.292   6.881   6.389 -0.6756 -1.3916 -1.3087
37629SOL     OW18206   5.649   1.491   3.503 -0.9467  0.5522 -0.1784
37629SOL    HW118207   5.576   1.543   3.538 -0.9847  1.0008 -0.9039
37629SOL    HW218208   5.705   1.475   3.578 -1.4945  0.7114  0.2730
37630SOL     OW18209   3.086   5.209   2.842  0.0594 -0.1610  0.1747
37630SOL    HW118210   3.099   5.127   2.795  1.6472  0.4576 -0.5001
37630SOL    HW218211   2.992   5.208   2.865  0.0398 -2.1547  0.2267
37631SOL     OW18212   0.506   6.874   4.638  0.0025  0.0510 -0.3613
37631SOL    HW118213   0.410   6.867   4.634 -0.0775  1.2599 -2.9197
37631SOL    HW218214   0.522   6.957   4.682 -0.2035  0.4252 -0.9683
37632SOL     OW18215   5.063   5.511   5.844 -0.2105 -0.0652 -0.3882
37632SOL    HW118216   5.022   5.516   5.758 -1.9837 -1.7479  0.2862
37632SOL    HW218217   5.008   5.564   5.901  1.6064  2.0079 -0.4356
37633SOL     OW18218   9.903   9.122   5.078  0.1255 -0.1573  0.2385
37633SOL    HW118219   9.851   9.161   5.008 -0.4247 -0.7716  0.2951
37633SOL    HW218220   9.840   9.073   5.131  0.8945 -1.9407 -0.3973
37634SOL     OW18221   4.634   1.744   3.918 -0.6118  0.1314 -0.2423
37634SOL    HW118222   4.669   1.815   3.864 -1.7391  1.0136  0.1566
37634SOL    HW218223   4.626   1.782   4.005  0.5320 -1.0718  0.4335
37635SOL     OW18224   6.555  11.107   6.142  0.2082  0.2677  0.3787
37635SOL    HW118225   6.607  11.120   6.221 -0.8721  0.1193  1.1321
37635SOL    HW218226   6.468  11.138   6.166  0.1918  1.5971 -1.2083
37636SOL     OW18227   2.572   9.408   9.138  0.2270 -0.7265  0.0397
37636SOL    HW118228   2.539   9.373   9.054  1.9162 -0.4831 -0.7692
37636SOL    HW218229   2.539   9.497   9.141  0.1515 -0.7377 -0.3633
37637SOL     OW18230   5.618   5.459  10.029 -0.9665  0.0009 -0.3526
37637SOL    HW118231   5.575   5.536  10.066 -0.2982  0.7632 -1.1153
37637SOL    HW218232   5.658   5.415  10.104 -1.2668  0.4538  0.0770
37638SOL     OW18233   2.085   2.520   4.768 -0.4551  0.3966 -0.1246
37638SOL    HW118234   2.031   2.582   4.817 -0.2404 -1.3712  2.5600
37638SOL    HW218235   2.045   2.435   4.783  0.9678 -0.5049 -1.1504
37639SOL     OW18236   7.730   7.233   5.725  0.7248 -0.1480  0.3722
37639SOL    HW118237   7.772   7.206   5.644 -0.7228  0.0412 -0.4737
37639SOL    HW218238   7.636   7.231   5.706  0.4021  1.5123  1.5080
37640SOL     OW18239   4.550   5.463   6.070 -0.4387 -0.3384 -0.2750
37640SOL    HW118240   4.629   5.412   6.088 -0.6612 -0.2954  0.8902
37640SOL    HW218241   4.478   5.407   6.100 -0.8229 -0.1423 -0.8026
37641SOL     OW18242   3.848   9.160   2.489  0.8533 -0.1513 -0.2056
37641SOL    HW118243   3.792   9.116   2.554  1.1137 -0.5095 -0.2207
37641SOL    HW218244   3.838   9.107   2.410 -0.2772  0.8599 -0.7879
37642SOL     OW18245  10.705   8.365   6.068 -0.3505  0.0392  0.0094
37642SOL    HW118246  10.719   8.389   5.976  0.5371  0.6117  0.2820
37642SOL    HW218247  10.742   8.438   6.117 -1.2286 -0.0549  0.8206
37643SOL     OW18248   4.376   4.909  10.246  1.0580 -0.2478  0.8437
37643SOL    HW118249   4.332   4.968  10.185  1.0848  0.1407  1.1968
37643SOL    HW218250   4.357   4.944  10.333 -0.1181 -1.5584  1.1577
37644SOL     OW18251   1.827   2.455   1.859  0.0500  0.8626 -0.1809
37644SOL    HW118252   1.796   2.426   1.945 -0.2859  0.6346 -0.3739
37644SOL    HW218253   1.922   2.446   1.862 -0.0040  0.3271 -0.0227
37645SOL     OW18254   9.065   4.182   9.382  0.1215 -0.0601  0.8289
37645SOL    HW118255   8.993   4.224   9.430 -1.2540  1.4575 -2.3027
37645SOL    HW218256   9.135   4.247   9.380 -0.3713  0.4586 -0.3605
37646SOL     OW18257  11.730   3.841   6.156  0.1359 -0.3434 -0.3438
37646SOL    HW118258  11.807   3.792   6.184  0.2277 -1.1577 -1.8887
37646SOL    HW218259  11.683   3.780   6.098 -0.9317  0.6287 -0.5318
37647SOL     OW18260   3.997   5.969   7.433  0.5714  0.5959 -0.3935
37647SOL    HW118261   4.056   5.940   7.503 -0.1063  0.1374 -0.0012
37647SOL    HW218262   4.032   5.929   7.354  2.1913  2.2707 -0.5878
37648SOL     OW18263  10.268   7.342   6.191 -0.1839  0.0359  0.1195
37648SOL    HW118264  10.179   7.314   6.170  0.1302  0.5087 -2.1021
37648SOL    HW218265  10.282   7.314   6.282 -2.8257  0.5582  0.7621
37649SOL     OW18266   2.685   6.408   4.706 -0.4459  0.5196 -0.1753
37649SOL    HW118267   2.660   6.316   4.696  0.1008  0.4315 -0.8080
37649SOL    HW218268   2.623   6.455   4.649  0.1820  0.3953 -0.9785
37650SOL     OW18269   4.957   5.982   3.049 -0.5184 -0.1813 -0.5784
37650SOL    HW118270   4.893   6.040   3.007 -0.2303  0.7888  0.2711
37650SOL    HW218271   4.905   5.926   3.106 -0.8023 -0.8036 -1.4177
37651SOL     OW18272   4.566   3.993  10.045  0.3931  0.1484 -0.3026
37651SOL    HW118273   4.646   4.029  10.084 -0.6527  1.7662  0.4441
37651SOL    HW218274   4.559   4.038   9.960  1.3253 -1.5206 -1.3233
37652SOL     OW18275   5.494   9.750   4.528 -0.1615 -0.0455 -0.2330
37652SOL    HW118276   5.574   9.697   4.526  0.4117  0.7548  0.5755
37652SOL    HW218277   5.518   9.830   4.481 -0.2827  0.4716  0.5845
37653SOL     OW18278   0.611   3.723   9.545  0.0415  0.4316  0.5018
37653SOL    HW118279   0.568   3.715   9.460 -0.7539  1.6094  0.7790
37653SOL    HW218280   0.610   3.816   9.565  0.7815  0.2459  1.5300
37654SOL     OW18281   3.881   7.239   3.405 -0.4407 -0.4591  0.0766
37654SOL    HW118282   3.820   7.170   3.432  1.2768 -1.2013  2.3844
37654SOL    HW218283   3.947   7.241   3.475  0.8600  1.9385 -1.1133
37655SOL     OW18284   6.831   7.709   2.961 -0.0935 -0.8205  0.3068
37655SOL    HW118285   6.808   7.644   2.895 -2.1815 -0.0909  0.2200
37655SOL    HW218286   6.769   7.781   2.945  1.3619  0.6852  1.1321
37656SOL     OW18287  11.550   0.480   3.828  0.0272  0.4998  0.1746
37656SOL    HW118288  11.522   0.556   3.878  0.0976  0.3611  0.4272
37656SOL    HW218289  11.645   0.486   3.825  0.1352 -0.2818  1.3408
37657SOL     OW18290   0.481   8.716  11.117  0.1863  0.1774 -0.5469
37657SOL    HW118291   0.387   8.733  11.121 -0.2202 -1.9082 -0.1753
37657SOL    HW218292   0.508   8.707  11.208  0.1506 -1.9581 -0.6973
37658SOL     OW18293   3.388   1.653   0.147 -0.1485 -0.1552 -0.1939
37658SOL    HW118294   3.330   1.614   0.213  0.1931  1.0348  0.8542
37658SOL    HW218295   3.459   1.693   0.198 -0.3846  1.6535 -1.2037
37659SOL     OW18296   2.598   4.438  11.522  0.6123 -0.0764 -0.4909
37659SOL    HW118297   2.646   4.508  11.567  1.6115 -1.2538  0.3420
37659SOL    HW218298   2.621   4.358  11.570 -1.1959 -0.8748 -0.8690
37660SOL     OW18299   0.925   1.227   9.482  0.1727  0.2473  0.2294
37660SOL    HW118300   0.881   1.282   9.548  0.4543  0.3349  0.3456
37660SOL    HW218301   0.872   1.238   9.403 -0.3718 -0.1357  0.5318
37661SOL     OW18302   2.580   8.760   6.911 -0.0687 -0.5439  0.1346
37661SOL    HW118303   2.595   8.816   6.987  0.1897 -1.4378  0.7652
37661SOL    HW218304   2.635   8.798   6.842  1.7996 -1.2086  1.1621
37662SOL     OW18305   2.805   6.998   0.842 -0.3511 -0.1682 -0.2745
37662SOL    HW118306   2.873   7.042   0.893  2.2479 -0.3079 -3.3075
37662SOL    HW218307   2.756   7.069   0.801 -1.5173 -0.0830  1.2027
37663SOL     OW18308  10.622   5.566   5.525 -0.3511 -0.0756  0.7532
37663SOL    HW118309  10.614   5.645   5.577  0.1216 -0.8171  1.9987
37663SOL    HW218310  10.544   5.515   5.547 -0.1408 -0.4029  0.7445
37664SOL     OW18311   1.919   5.985   9.014 -0.0293  0.3547  0.0515
37664SOL    HW118312   2.010   5.970   9.037  0.0271  0.1903 -0.2706
37664SOL    HW218313   1.919   6.070   8.970  0.1154 -0.0401 -0.7420
37665SOL     OW18314   8.503   8.827   1.406  0.7473  0.3363  0.4805
37665SOL    HW118315   8.562   8.882   1.355 -0.8066  2.1151  0.4848
37665SOL    HW218316   8.431   8.885   1.432 -0.1174 -1.2772  2.0106
37666SOL     OW18317   8.006   8.763   1.657  0.1248  0.2507  0.1100
37666SOL    HW118318   8.002   8.706   1.580  0.2377 -0.6501  0.7461
37666SOL    HW218319   8.099   8.771   1.676  0.1144  0.7517 -0.0434
37667SOL     OW18320   9.982   0.423   0.801  0.2392 -0.2640 -0.0835
37667SOL    HW118321  10.006   0.492   0.738  1.5692 -1.7043 -1.2437
37667SOL    HW218322  10.053   0.424   0.866  0.2782 -0.5413 -0.1194
37668SOL     OW18323   2.679  11.383   4.811  0.1385 -0.6894 -0.0867
37668SOL    HW118324   2.612  11.342   4.757  1.0974 -0.8228 -1.2199
37668SOL    HW218325   2.750  11.319   4.814  1.5991  0.7352 -1.7601
37669SOL     OW18326  11.801   7.534   8.282  0.2943  0.8266  0.0548
37669SOL    HW118327  11.780   7.626   8.297 -0.6004  0.9686 -1.8175
37669SOL    HW218328  11.868   7.535   8.215  0.1758  0.1072 -0.0844
37670SOL     OW18329   6.072   4.274   7.810  0.3716 -0.0755 -0.5096
37670SOL    HW118330   5.989   4.311   7.839  0.4013  0.0094 -0.5331
37670SOL    HW218331   6.048   4.205   7.749  0.3404  0.4628 -1.1161
37671SOL     OW18332  11.501   0.194   8.268 -0.0092 -0.3839 -0.1435
37671SOL    HW118333  11.472   0.210   8.358  1.5985  0.9165  0.1978
37671SOL    HW218334  11.423   0.163   8.222 -0.9083 -0.8974  1.6491
37672SOL     OW18335   4.056   5.661   5.102 -0.6366 -0.6278 -0.3996
37672SOL    HW118336   4.019   5.582   5.142  1.6322 -1.6313 -0.1137
37672SOL    HW218337   4.085   5.633   5.015 -0.2734  0.0151 -0.4934
37673SOL     OW18338   2.226   3.887   1.125 -0.0853  0.4191 -0.2731
37673SOL    HW118339   2.220   3.924   1.212  0.4224 -0.8507  0.3321
37673SOL    HW218340   2.311   3.915   1.092  0.4094 -0.3836  0.2833
37674SOL     OW18341   2.347   5.293   9.416 -0.4661 -0.4599 -0.0567
37674SOL    HW118342   2.364   5.204   9.385  1.2547 -0.2913  0.3147
37674SOL    HW218343   2.347   5.286   9.511 -1.1510 -0.1883 -0.0313
37675SOL     OW18344   6.368   7.943  10.381  0.6444  0.2240 -0.0211
37675SOL    HW118345   6.345   7.941  10.288  0.8751 -0.0120 -0.0743
37675SOL    HW218346   6.362   8.035  10.405  0.0571  0.2197 -0.1361
37676SOL     OW18347   9.243   9.167   7.185  0.2474  0.1450  0.0579
37676SOL    HW118348   9.291   9.243   7.152 -2.0657  1.8052  0.2300
37676SOL    HW218349   9.165   9.162   7.129 -0.7248 -0.7449  1.4248
37677SOL     OW18350   8.282   3.931   7.117  0.1704  0.2542  0.2219
37677SOL    HW118351   8.222   3.982   7.172 -0.6381 -0.4158 -0.0123
37677SOL    HW218352   8.311   3.994   7.050 -1.2359  0.3117 -0.3859
37678SOL     OW18353   2.893  10.535   0.616  0.2432 -0.4501  0.1433
37678SOL    HW118354   2.855  10.613   0.655  0.4149 -0.2569 -0.0690
37678SOL    HW218355   2.870  10.464   0.675  0.4884 -0.1646  0.5872
37679SOL     OW18356   0.814  10.870   7.557  0.0811 -0.2038  0.0284
37679SOL    HW118357   0.874  10.898   7.626 -0.2631 -0.0059  0.2547
37679SOL    HW218358   0.773  10.791   7.592 -0.3437  0.0882  0.2002
37680SOL     OW18359   4.712   4.971   4.653 -0.1074  0.2592 -0.3825
37680SOL    HW118360   4.781   5.034   4.633  0.0233 -0.1480 -1.2899
37680SOL    HW218361   4.631   5.014   4.625 -0.1518  0.4867  0.0940
37681SOL     OW18362   9.910   0.532   4.312  0.3973  0.3384 -0.2279
37681SOL    HW118363   9.876   0.554   4.398  1.4374 -1.0182  0.5684
37681SOL    HW218364   9.885   0.606   4.257 -0.5902  1.0715  1.1411
37682SOL     OW18365   7.130   6.749   3.145  0.2554 -0.1487  0.3766
37682SOL    HW118366   7.134   6.801   3.225  0.0321  1.1168 -0.3989
37682SOL    HW218367   7.221   6.732   3.123  0.3141 -0.5580  0.9398
37683SOL     OW18368   8.185  11.273   1.242  0.2451  0.7132 -0.2090
37683SOL    HW118369   8.245  11.347   1.253  1.0921  0.1832 -1.0224
37683SOL    HW218370   8.151  11.283   1.153 -1.6370  1.5172  0.5556
37684SOL     OW18371   2.856   3.277   6.562 -0.5996  0.0691  0.4994
37684SOL    HW118372   2.899   3.191   6.556  1.9787  1.3651 -2.1704
37684SOL    HW218373   2.813   3.288   6.477  1.2678  2.3570 -0.2474
37685SOL     OW18374   7.042  11.108   7.185 -0.4623 -0.7022 -0.5450
37685SOL    HW118375   6.950  11.130   7.172 -0.7359 -1.4635 -0.0366
37685SOL    HW218376   7.071  11.073   7.101 -0.1154  1.1849 -1.2493
37686SOL     OW18377   9.672   9.416   9.503  0.0904  0.3102  0.1342
37686SOL    HW118378   9.623   9.492   9.536 -1.3216  0.0345 -1.2051
37686SOL    HW218379   9.748   9.453   9.459  1.9392  0.7071  3.3180
37687SOL     OW18380   3.929   9.860   3.005  0.2072 -0.0495  0.2753
37687SOL    HW118381   3.844   9.871   3.047  0.5469 -0.5780  1.1222
37687SOL    HW218382   3.908   9.840   2.914 -0.6483 -1.8240  0.8190
37688SOL     OW18383   9.378   4.196   5.067 -0.2024 -0.2139  0.1206
37688SOL    HW118384   9.304   4.248   5.035 -0.9167 -1.8517 -0.9750
37688SOL    HW218385   9.340   4.136   5.131  0.3647 -0.3495  0.3360
37689SOL     OW18386   3.923  10.810   4.184  0.5919 -0.2172 -0.2881
37689SOL    HW118387   3.827  10.810   4.178  0.6350 -0.4898 -1.0382
37689SOL    HW218388   3.947  10.902   4.177  0.3124 -0.0034  1.2987
37690SOL     OW18389   3.592   5.143   2.640  0.1802 -0.6265  0.2346
37690SOL    HW118390   3.614   5.152   2.733  0.5539  0.2516  0.0701
37690SOL    HW218391   3.546   5.224   2.618  2.2521  0.3126 -0.9309
37691SOL     OW18392   7.160  11.201   1.008  0.0396  0.5161 -0.1321
37691SOL    HW118393   7.210  11.278   1.036  1.0363 -0.0839 -0.2014
37691SOL    HW218394   7.213  11.163   0.938 -1.0925  0.4931 -1.0060
37692SOL     OW18395   8.446   8.371   9.279 -0.4252 -0.3607 -0.0447
37692SOL    HW118396   8.539   8.361   9.299  0.5611  1.1245 -3.1949
37692SOL    HW218397   8.426   8.299   9.220 -0.1647  1.3911 -2.3872
37693SOL     OW18398   1.058   8.858   5.133  0.2231  0.1079  0.5189
37693SOL    HW118399   1.042   8.880   5.225  2.1536 -0.0234  0.9167
37693SOL    HW218400   1.019   8.772   5.122 -3.1875  1.5232  0.2071
37694SOL     OW18401   9.701   5.606   9.023  0.1995  0.4038  0.2703
37694SOL    HW118402   9.771   5.569   9.077  0.2268  2.1559  1.5070
37694SOL    HW218403   9.659   5.530   8.983  1.6257 -0.7975  0.9630
37695SOL     OW18404   4.889   7.863   5.833  0.0953  0.3486  0.1483
37695SOL    HW118405   4.935   7.810   5.769  2.8394  0.8353  1.5699
37695SOL    HW218406   4.824   7.804   5.871  0.4770 -0.8177 -0.9617
37696SOL     OW18407  11.715   0.044   8.885  0.2764  0.0389 -0.7055
37696SOL    HW118408  11.786   0.098   8.852  0.6140 -1.1524 -2.0208
37696SOL    HW218409  11.758  -0.028   8.930 -0.1668  0.5371  0.5779
37697SOL     OW18410   7.264  10.563   9.264  0.2420 -0.4220 -0.3464
37697SOL    HW118411   7.250  10.624   9.336  0.6843  2.3800 -2.4296
37697SOL    HW218412   7.177  10.529   9.243 -0.1714  0.1755  0.3640
37698SOL     OW18413   6.585   3.306   9.370 -0.6257  0.0178  0.6884
37698SOL    HW118414   6.594   3.305   9.466  1.2499  1.3118  0.5718
37698SOL    HW218415   6.660   3.255   9.339  0.8394  2.5033 -0.1287
37699SOL     OW18416   6.677   3.430   1.236  0.3464 -0.0783 -0.9364
37699SOL    HW118417   6.644   3.443   1.325  2.6848  1.6589 -0.2334
37699SOL    HW218418   6.598   3.417   1.183 -1.3376  1.7985  0.9252
37700SOL     OW18419  10.704  11.100   2.800 -0.1970 -0.6051 -0.2652
37700SOL    HW118420  10.663  11.095   2.713 -1.2077  3.4213 -0.2201
37700SOL    HW218421  10.653  11.039   2.854 -1.3411 -1.1476 -1.8603
37701SOL     OW18422   1.327  11.527   4.454 -0.0431  0.1908 -0.0593
37701SOL    HW118423   1.293  11.480   4.530  1.1355 -2.5539 -1.0972
37701SOL    HW218424   1.250  11.559   4.408 -0.8036  1.1352  1.7950
37702SOL     OW18425   7.593   0.739   7.261  0.4008  0.0894  0.3324
37702SOL    HW118426   7.535   0.739   7.337 -1.4342  2.9532 -0.9332
37702SOL    HW218427   7.678   0.766   7.296 -0.3300  1.0361  1.4456
37703SOL     OW18428  10.326   0.127   4.943  0.5717 -0.4936  0.0226
37703SOL    HW118429  10.297   0.218   4.946  1.9047 -0.0529 -0.0116
37703SOL    HW218430  10.303   0.092   5.029  0.7590  0.0984  0.3193
37704SOL     OW18431   3.334   6.464   1.771 -0.4932  0.0463  0.1741
37704SOL    HW118432   3.289   6.548   1.776 -0.1624  0.5101 -2.9740
37704SOL    HW218433   3.419   6.484   1.732  0.7205 -1.4405  1.8699
37705SOL     OW18434   3.539   7.187   3.297  0.3188 -0.0247 -0.0254
37705SOL    HW118435   3.594   7.265   3.301  0.3497 -0.0310 -0.2993
37705SOL    HW218436   3.461   7.215   3.248  0.7490 -0.4135 -0.9520
37706SOL     OW18437   1.483   9.455   9.900  0.1760 -0.4825  0.0571
37706SOL    HW118438   1.449   9.367   9.912 -0.9328  0.0134  0.6403
37706SOL    HW218439   1.484   9.493   9.988 -1.5667  0.8714 -0.4638
37707SOL     OW18440  11.230   4.765   7.503  0.2864  0.3203  0.2066
37707SOL    HW118441  11.182   4.732   7.579 -1.0912  2.0838  0.1679
37707SOL    HW218442  11.288   4.833   7.538  2.2399 -1.2106  0.1216
37708SOL     OW18443   0.328   6.479   7.134  0.3404 -0.0134  0.2778
37708SOL    HW118444   0.338   6.475   7.229  0.6059 -0.6858  0.2236
37708SOL    HW218445   0.274   6.557   7.119  1.7943  1.1734  0.8728
37709SOL     OW18446   2.243   8.948   9.684  0.2071  0.0073 -0.2855
37709SOL    HW118447   2.221   9.037   9.656 -0.2215  0.4404  1.3447
37709SOL    HW218448   2.158   8.906   9.698  0.4103 -0.4367 -0.3576
37710SOL     OW18449   3.748   0.249   1.070  0.3327  0.3779  0.1912
37710SOL    HW118450   3.738   0.219   0.980  0.6536  1.0678 -0.0831
37710SOL    HW218451   3.725   0.173   1.123  1.3098 -0.4168 -0.4813
37711SOL     OW18452   1.417  10.697   9.812 -0.6708 -0.1357 -0.5335
37711SOL    HW118453   1.353  10.629   9.836 -0.6583  0.2102  0.5204
37711SOL    HW218454   1.378  10.778   9.843 -0.4226  0.2791 -1.2888
37712SOL     OW18455   1.772   0.381   7.393  0.2559  0.4840  0.0812
37712SOL    HW118456   1.686   0.343   7.407  0.1060  0.6261 -0.4559
37712SOL    HW218457   1.832   0.321   7.439  0.0570 -0.5597 -0.9713
37713SOL     OW18458   1.833   5.018   6.631 -0.0989  0.5303 -0.8192
37713SOL    HW118459   1.859   4.967   6.707 -0.4486  1.9307  0.2716
37713SOL    HW218460   1.916   5.042   6.589  0.0826 -0.4702 -1.0635
37714SOL     OW18461   9.402   3.718   8.768  0.2397  0.2149  0.1937
37714SOL    HW118462   9.398   3.798   8.715  1.1646 -0.5848 -1.1446
37714SOL    HW218463   9.495   3.700   8.775  0.0215 -1.0219  0.0287
37715SOL     OW18464   0.218   7.485   2.823  0.1220 -0.2313 -0.0584
37715SOL    HW118465   0.297   7.432   2.833  0.0632  0.1135  2.9925
37715SOL    HW218466   0.147   7.421   2.824  0.1781 -0.3084  1.3949
37716SOL     OW18467   3.178   2.493   3.970 -0.3910 -0.0253 -0.1959
37716SOL    HW118468   3.197   2.399   3.974 -1.1264 -0.2726 -1.7292
37716SOL    HW218469   3.226   2.525   3.894  1.1927  1.2341  1.2470
37717SOL     OW18470   6.246   7.885   3.850  0.2224 -0.1909  0.7450
37717SOL    HW118471   6.300   7.837   3.788 -1.6341 -0.0678 -1.0582
37717SOL    HW218472   6.280   7.860   3.936  1.7289 -1.7411 -0.2455
37718SOL     OW18473   7.279   9.613   4.957 -0.1811  0.0984 -0.1621
37718SOL    HW118474   7.226   9.537   4.935 -0.8971  0.2758  0.9155
37718SOL    HW218475   7.218   9.687   4.954  0.2980  0.4969 -0.2584
37719SOL     OW18476   1.983   7.205   0.825  0.1739 -0.7876  0.9572
37719SOL    HW118477   1.987   7.113   0.800  0.0898 -0.4763 -0.2900
37719SOL    HW218478   1.932   7.247   0.755  0.7654  0.3090  1.1522
37720SOL     OW18479   0.100   8.456  11.382  0.2720  0.0146 -0.3305
37720SOL    HW118480   0.020   8.404  11.389  1.3958 -1.8087 -0.3134
37720SOL    HW218481   0.093   8.500  11.298 -0.8932  0.1632 -0.1728
37721SOL     OW18482  10.477   8.809   0.267 -0.1966  0.1859  0.0974
37721SOL    HW118483  10.399   8.781   0.315 -2.3310  3.3396 -1.2312
37721SOL    HW218484  10.542   8.826   0.335 -1.3683 -0.4630  1.4294
37722SOL     OW18485   9.584   1.420   9.074 -0.1695 -0.4184 -0.1928
37722SOL    HW118486   9.577   1.391   9.165  0.2739  1.6232  0.5445
37722SOL    HW218487   9.506   1.385   9.032 -0.6646 -0.9542  1.1150
37723SOL     OW18488   8.736   7.481   8.170  0.4104  0.1070 -0.1675
37723SOL    HW118489   8.816   7.444   8.207  0.1310 -0.0250  0.3109
37723SOL    HW218490   8.732   7.569   8.205 -0.8925 -0.6597  1.7736
37724SOL     OW18491  10.505   4.280   3.243 -0.3494  0.3254  0.1660
37724SOL    HW118492  10.416   4.248   3.258 -0.6608  1.2830  0.4956
37724SOL    HW218493  10.504   4.370   3.277  0.1311  1.1011 -1.7036
37725SOL     OW18494   7.024   4.896   0.693  0.3266  0.5264  0.2821
37725SOL    HW118495   7.099   4.954   0.677  0.0203  1.1433  1.0233
37725SOL    HW218496   7.050   4.813   0.655  0.2548  1.4793 -1.9950
37726SOL     OW18497   8.495   0.476   9.697  0.3307 -0.0399  0.1065
37726SOL    HW118498   8.490   0.426   9.616  0.1685  1.9339 -1.1499
37726SOL    HW218499   8.587   0.505   9.702  0.7643 -1.5274  1.5276
37727SOL     OW18500   4.631   3.398   3.552  0.8117 -0.4199 -0.2551
37727SOL    HW118501   4.617   3.312   3.592 -1.0493  0.5248  1.2334
37727SOL    HW218502   4.676   3.449   3.618  0.4888  0.2267 -0.5248
37728SOL     OW18503   0.046   0.340   8.969 -0.5057 -0.5101 -0.0865
37728SOL    HW118504   0.111   0.312   9.034  0.3448  1.2421 -0.1304
37728SOL    HW218505  -0.022   0.383   9.021 -0.4399 -0.2270 -0.2297
37729SOL     OW18506   0.884   1.267   6.621  0.4767  0.3149 -0.0439
37729SOL    HW118507   0.793   1.263   6.653  0.5980  1.0235  0.4225
37729SOL    HW218508   0.911   1.176   6.613 -1.1293 -0.0457 -2.6853
37730SOL     OW18509   1.415   7.538   9.567 -1.0998  0.0981  0.5043
37730SOL    HW118510   1.330   7.558   9.528 -0.5600 -0.3025 -0.9273
37730SOL    HW218511   1.409   7.447   9.594 -0.8987 -0.1336 -0.2259
37731SOL     OW18512   5.868   1.291   0.468  0.0480 -0.2088  0.1769
37731SOL    HW118513   5.776   1.263   0.464  0.1532 -0.9835  1.9811
37731SOL    HW218514   5.864   1.381   0.501 -0.0461 -1.3208  3.5783
37732SOL     OW18515   4.970   0.981  11.786  0.0411  0.6190  0.2116
37732SOL    HW118516   4.975   0.907  11.846  0.7304 -0.2114 -0.8183
37732SOL    HW218517   5.036   0.961  11.719 -0.6766  1.5110 -0.7929
37733SOL     OW18518   8.781  10.679  10.097 -0.9607 -0.0437 -0.1467
37733SOL    HW118519   8.690  10.701  10.077  0.2244  2.2508 -3.9674
37733SOL    HW218520   8.804  10.612  10.033  0.1770 -0.3162  0.5242
37734SOL     OW18521   0.458   9.819  10.269 -0.1114  0.0125 -0.0301
37734SOL    HW118522   0.388   9.866  10.224 -1.2472 -1.2715  0.3183
37734SOL    HW218523   0.529   9.882  10.277 -1.3006  1.4169 -0.2408
37735SOL     OW18524   4.021   8.261   0.061 -0.3773 -0.0889  0.4493
37735SOL    HW118525   3.971   8.334   0.025  1.0790  1.1928  0.8703
37735SOL    HW218526   4.093   8.249  -0.001  0.4725  0.1443  1.3613
37736SOL     OW18527   8.958   3.992  11.027  0.3347 -0.1282 -0.0022
37736SOL    HW118528   8.908   4.074  11.035 -0.3936 -0.5484 -0.1940
37736SOL    HW218529   9.016   4.006  10.952 -0.2962 -0.0513 -0.4790
37737SOL     OW18530   4.498   1.186   5.456  0.0369  0.3930  0.2781
37737SOL    HW118531   4.463   1.097   5.464 -1.4788  0.9935  0.7694
37737SOL    HW218532   4.465   1.231   5.534  0.8500  1.3764  0.0732
37738SOL     OW18533   5.268   0.488   6.590  0.3187 -0.8962 -0.2272
37738SOL    HW118534   5.222   0.568   6.616  2.0016 -0.1316  0.5353
37738SOL    HW218535   5.245   0.424   6.657 -1.9013 -1.4553 -1.4138
37739SOL     OW18536   4.105   5.948  11.365  0.4589  0.4345  0.1985
37739SOL    HW118537   4.132   5.856  11.359 -0.3134  0.2682 -0.9651
37739SOL    HW218538   4.179   5.997  11.328  0.8352  0.2884  0.7407
37740SOL     OW18539   1.541   7.347   1.212 -0.1667  0.8116 -0.2789
37740SOL    HW118540   1.617   7.393   1.177  1.0501 -0.8747  0.0235
37740SOL    HW218541   1.568   7.321   1.301 -0.7503 -0.5573 -0.4771
37741SOL     OW18542   7.418   7.097   6.067  0.0643  0.1351  0.2510
37741SOL    HW118543   7.396   7.087   5.974  1.7799  0.6046 -0.2460
37741SOL    HW218544   7.388   7.016   6.108  1.3260 -1.0954 -1.1418
37742SOL     OW18545   2.929   5.763   8.845  0.0554 -0.2361  0.2662
37742SOL    HW118546   2.927   5.701   8.773  2.0641  0.0593 -0.1033
37742SOL    HW218547   2.960   5.845   8.806 -0.1435  0.3138  1.2178
37743SOL     OW18548   0.827  10.711   0.574  0.3973  0.0127  0.5699
37743SOL    HW118549   0.822  10.643   0.642  0.5096 -1.7647 -1.1309
37743SOL    HW218550   0.902  10.685   0.521  0.0504  1.1366 -0.4846
37744SOL     OW18551   7.085   0.540   5.033  0.1833  0.0616  0.5983
37744SOL    HW118552   7.144   0.518   4.960  1.2450  3.3635  0.2986
37744SOL    HW218553   7.006   0.572   4.990  0.2762  0.7082  0.9051
37745SOL     OW18554  10.881   9.820   9.741 -0.4802 -0.1630  0.1461
37745SOL    HW118555  10.908   9.797   9.652 -2.8286 -0.9300 -0.4481
37745SOL    HW218556  10.910   9.910   9.753  2.3428 -0.9183 -0.2865
37746SOL     OW18557   2.149   5.059   0.491 -0.4171  0.0015  0.0122
37746SOL    HW118558   2.064   5.067   0.534 -1.4226 -0.6878 -1.7616
37746SOL    HW218559   2.141   5.112   0.411  1.0131  0.3529  0.0673
37747SOL     OW18560   3.193   7.144   0.766  0.0988 -0.1340  0.0684
37747SOL    HW118561   3.244   7.089   0.707 -1.1587 -0.2435 -0.9766
37747SOL    HW218562   3.253   7.213   0.794  1.2039 -1.0548  0.0351
37748SOL     OW18563   7.575  10.203  10.174 -0.4017  0.4317  0.0006
37748SOL    HW118564   7.498  10.202  10.231  0.4582 -1.2156  1.2303
37748SOL    HW218565   7.574  10.117  10.131  0.6697  0.4442 -0.0734
37749SOL     OW18566   2.913   5.124   5.433  0.2867  0.1061  0.0640
37749SOL    HW118567   3.006   5.139   5.417  0.0160 -0.4999 -2.6370
37749SOL    HW218568   2.907   5.030   5.452  0.2942  0.2986  1.0515
37750SOL     OW18569   0.267   1.179   7.585  0.0242  0.0482  0.4813
37750SOL    HW118570   0.233   1.090   7.596  0.6510 -0.1788  0.6683
37750SOL    HW218571   0.348   1.180   7.637 -0.2277  0.8748  0.8714
37751SOL     OW18572   4.224   8.397   0.276 -0.2083 -0.2765 -0.0967
37751SOL    HW118573   4.315   8.388   0.304  0.1506 -2.0034 -1.5901
37751SOL    HW218574   4.228   8.449   0.196 -0.8803  1.9351  1.2288
37752SOL     OW18575   5.974   5.861   9.789  0.2975  0.3067  0.2017
37752SOL    HW118576   6.063   5.831   9.809 -0.2315 -1.1160  0.5571
37752SOL    HW218577   5.978   5.956   9.795  1.4478  0.1924  1.6967
37753SOL     OW18578   0.755   7.128   7.155  0.4513 -0.5609 -0.0144
37753SOL    HW118579   0.793   7.074   7.224  0.2516 -1.4064 -0.5549
37753SOL    HW218580   0.662   7.105   7.155  0.1720  0.5196  0.4067
37754SOL     OW18581   5.248  10.086  10.706 -0.1101 -0.2776 -0.2286
37754SOL    HW118582   5.205  10.153  10.760 -0.2884 -0.0315 -0.6696
37754SOL    HW218583   5.192  10.078  10.630  0.5873 -0.0081 -0.7796
37755SOL     OW18584  10.948   0.065   4.885 -0.0596  1.0175 -0.1555
37755SOL    HW118585  10.918  -0.026   4.880  2.9074 -0.0658 -0.0533
37755SOL    HW218586  10.962   0.081   4.979  2.3021  0.4825 -0.3666
37756SOL     OW18587  10.593  10.019   0.108  0.7883  0.3267 -0.1137
37756SOL    HW118588  10.608  10.074   0.185  1.3295 -0.2637  0.2111
37756SOL    HW218589  10.516  10.057   0.066 -0.6984 -0.4445  1.7557
37757SOL     OW18590   3.561   2.866  11.092  0.2140  0.5406 -0.2874
37757SOL    HW118591   3.558   2.772  11.110 -1.3062  0.2712 -1.7309
37757SOL    HW218592   3.606   2.872  11.008  0.7972  1.1609  0.0654
37758SOL     OW18593   3.983   1.080   5.720 -0.6237  0.3450 -0.2583
37758SOL    HW118594   3.981   0.984   5.725 -0.6850  0.2306 -1.9452
37758SOL    HW218595   3.926   1.109   5.791 -0.7367 -0.8730  0.1697
37759SOL     OW18596   7.411   9.198  10.505  0.6218  0.4722  0.4698
37759SOL    HW118597   7.319   9.217  10.522  0.7546  0.6315  1.0198
37759SOL    HW218598   7.410   9.143  10.426 -0.0012 -0.2336  0.9522
37760SOL     OW18599  10.866   0.425   1.553  0.4373  0.1309  0.0090
37760SOL    HW118600  10.818   0.499   1.514  1.7648  0.6988 -0.6137
37760SOL    HW218601  10.837   0.423   1.644 -1.4702 -0.1583 -0.5625
37761SOL     OW18602   5.647   8.794   9.715 -0.2048  0.0321  0.6201
37761SOL    HW118603   5.555   8.793   9.691 -0.7133  1.7574  2.2972
37761SOL    HW218604   5.675   8.702   9.706 -1.6221 -0.2677 -1.3742
37762SOL     OW18605   0.541  10.659   5.111 -0.3241 -0.2468  0.1029
37762SOL    HW118606   0.520  10.658   5.204 -0.6634 -3.0885  0.0992
37762SOL    HW218607   0.515  10.572   5.080  1.0252  0.1382 -2.3693
37763SOL     OW18608   4.032   9.038  11.129  0.1187  0.4324 -0.0565
37763SOL    HW118609   4.051   9.038  11.223  0.1296 -2.1367  0.0087
37763SOL    HW218610   4.113   9.070  11.088  0.2466  1.2069  0.7580
37764SOL     OW18611   2.954  10.503  10.267 -0.2899 -0.0393  0.4950
37764SOL    HW118612   3.004  10.584  10.255 -0.1465 -0.1223  0.5224
37764SOL    HW218613   2.875  10.530  10.313 -0.9332  0.3108 -0.7783
37765SOL     OW18614   6.212   2.438   1.890  0.1685  0.5686 -0.1862
37765SOL    HW118615   6.175   2.352   1.912 -1.7309  0.8236 -2.0369
37765SOL    HW218616   6.154   2.471   1.821  1.8693  2.6029 -0.7121
37766SOL     OW18617   2.659   7.986  10.611 -0.5659 -0.0222 -0.2240
37766SOL    HW118618   2.714   7.909  10.596  0.4763  0.1438  2.2190
37766SOL    HW218619   2.717   8.061  10.593 -1.5123  0.2503 -2.3857
37767SOL     OW18620   6.645   5.079   4.100  0.1145  0.3796  0.0152
37767SOL    HW118621   6.702   5.093   4.175 -0.3671  1.1116  0.2531
37767SOL    HW218622   6.638   5.165   4.058 -1.8417  0.6290  0.7474
37768SOL     OW18623   7.577   4.070   3.615  0.1468 -0.1565 -0.3984
37768SOL    HW118624   7.614   3.995   3.567  1.3908  0.2506 -0.1243
37768SOL    HW218625   7.520   4.031   3.681  1.7738 -0.9883  0.6011
37769SOL     OW18626   0.412   7.301   0.949 -0.2131  0.8641 -0.0412
37769SOL    HW118627   0.463   7.245   0.891  0.3311  1.3987 -0.0887
37769SOL    HW218628   0.339   7.331   0.896  0.6849  1.9569 -0.7088
37770SOL     OW18629   3.120   5.467   1.361  0.2964 -0.3149 -0.2091
37770SOL    HW118630   3.075   5.437   1.281 -0.2913 -1.2174  0.4387
37770SOL    HW218631   3.212   5.469   1.337  0.0825 -0.0746 -1.0632
37771SOL     OW18632   4.362   0.166   5.596  0.1224 -1.1575  0.3947
37771SOL    HW118633   4.316   0.242   5.632  0.6907 -0.8509  0.4824
37771SOL    HW218634   4.341   0.168   5.503  1.1629 -0.1438  0.1659
37772SOL     OW18635   3.262   7.210   7.807 -0.0837  0.1825  0.4647
37772SOL    HW118636   3.300   7.142   7.862  0.3020 -0.5524 -0.6716
37772SOL    HW218637   3.172   7.180   7.792 -0.5584  0.9664  1.6082
37773SOL     OW18638   6.005   0.659   7.541  0.8274  0.1281 -0.6576
37773SOL    HW118639   5.920   0.676   7.581  0.3586  0.1962 -1.6607
37773SOL    HW218640   6.045   0.593   7.598  0.0093 -0.0744 -0.3046
37774SOL     OW18641   4.427  10.155  11.663  0.2639 -0.9951  0.2442
37774SOL    HW118642   4.343  10.169  11.619 -0.1825  1.5393  1.6837
37774SOL    HW218643   4.489  10.209  11.614 -0.0302  1.0107  1.9108
37775SOL     OW18644   7.918   4.245   6.522 -0.1366  0.2389  1.3430
37775SOL    HW118645   7.862   4.182   6.477  1.1007  1.1950 -1.7219
37775SOL    HW218646   7.924   4.210   6.612 -0.7077 -3.1541  0.2223
37776SOL     OW18647  11.628   2.608   4.763  0.7721  0.1402 -0.3485
37776SOL    HW118648  11.608   2.660   4.841 -1.4453 -0.2426 -0.6044
37776SOL    HW218649  11.545   2.603   4.715  1.0705 -2.9229 -0.7586
37777SOL     OW18650   4.584  10.248   3.381 -0.4602  0.0381 -0.1129
37777SOL    HW118651   4.626  10.318   3.331 -1.0592  0.1959 -0.4115
37777SOL    HW218652   4.491  10.254   3.357 -0.6338 -0.3822  0.4311
37778SOL     OW18653  11.552   6.723   0.830  0.1269  0.6223  0.3115
37778SOL    HW118654  11.629   6.778   0.816  0.7630 -0.3525 -0.1489
37778SOL    HW218655  11.557   6.696   0.922  2.1260 -1.9608 -0.4172
37779SOL     OW18656   0.544   0.175   5.536 -0.4999 -0.0281  0.2506
37779SOL    HW118657   0.624   0.222   5.513  0.2229  0.1165  2.7709
37779SOL    HW218658   0.574   0.088   5.562 -1.4384 -0.7201 -0.8685
37780SOL     OW18659   5.952   4.423   4.519  0.1762 -0.8761  0.2876
37780SOL    HW118660   5.983   4.467   4.599 -0.7285  0.2998  0.0228
37780SOL    HW218661   5.857   4.429   4.524  0.0815 -1.5708 -0.4669
37781SOL     OW18662   4.601   0.931   9.772 -0.0549  0.1081  0.4460
37781SOL    HW118663   4.580   0.994   9.841  0.2954  0.5695  0.1354
37781SOL    HW218664   4.662   0.870   9.813  2.1923  1.8474 -0.1382
37782SOL     OW18665   1.781  10.384   4.580  0.2466  0.0488  0.0957
37782SOL    HW118666   1.816  10.364   4.667 -2.3524  1.2152  1.5218
37782SOL    HW218667   1.693  10.345   4.580  0.3940 -0.4298 -2.2624
37783SOL     OW18668   4.033   6.694   1.892  0.0251  0.1841  0.0026
37783SOL    HW118669   4.119   6.727   1.868 -1.2928  2.1526 -2.5234
37783SOL    HW218670   3.975   6.770   1.887 -1.9929 -1.1565  1.1018
37784SOL     OW18671   7.323   2.936   9.542  0.7609  0.4556  0.0456
37784SOL    HW118672   7.259   2.888   9.593  1.5209 -0.5146  0.1186
37784SOL    HW218673   7.343   3.014   9.595 -0.5346  0.9093 -0.1141
37785SOL     OW18674   5.974  11.410  10.456  0.4947 -0.0432  0.6109
37785SOL    HW118675   5.979  11.341  10.390  0.1494 -0.4762  1.0359
37785SOL    HW218676   6.059  11.406  10.501  0.2154 -0.6512  1.0911
37786SOL     OW18677   6.526   5.612   7.714 -0.0357 -0.4409  0.2748
37786SOL    HW118678   6.539   5.547   7.783 -0.7430 -0.2121  0.6333
37786SOL    HW218679   6.436   5.599   7.686 -1.0068  1.9147  1.9902
37787SOL     OW18680  11.547  10.901   4.771 -0.0105 -0.3797  0.1628
37787SOL    HW118681  11.460  10.861   4.778 -0.0399 -0.1323  1.2736
37787SOL    HW218682  11.548  10.970   4.837  1.0131 -0.3415  0.1247
37788SOL     OW18683   1.633   1.959   9.350 -0.1662  0.0597 -0.0604
37788SOL    HW118684   1.690   1.890   9.384  0.2756 -0.3435 -1.5694
37788SOL    HW218685   1.674   1.986   9.268 -0.9650  1.3142 -0.0652
37789SOL     OW18686   5.829   3.905   8.267 -0.0931  0.3358 -0.3178
37789SOL    HW118687   5.823   3.811   8.252 -2.9940  0.5550 -1.0928
37789SOL    HW218688   5.881   3.913   8.347 -0.7614 -2.0231  0.4380
37790SOL     OW18689  10.822   2.564   8.365  0.0459  0.0602  0.2443
37790SOL    HW118690  10.882   2.494   8.388  1.2373  1.0010  0.1246
37790SOL    HW218691  10.834   2.630   8.433 -1.0401  0.1747  0.3467
37791SOL     OW18692   3.693   1.219   4.946 -0.3795  0.3163  0.0946
37791SOL    HW118693   3.621   1.191   5.002 -2.1541 -2.1813 -3.0627
37791SOL    HW218694   3.758   1.149   4.953 -0.2872  0.3535 -0.3488
37792SOL     OW18695   2.041   9.832  10.543  0.0801 -0.3113  0.7654
37792SOL    HW118696   1.951   9.853  10.566 -0.1881 -1.2131  0.5882
37792SOL    HW218697   2.044   9.736  10.543  0.7708 -0.3053 -0.2230
37793SOL     OW18698   3.887   5.175  10.711 -0.1885  0.1125  0.2486
37793SOL    HW118699   3.913   5.248  10.767  2.2980 -1.2634  1.0171
37793SOL    HW218700   3.899   5.209  10.622 -0.6214  1.1226  0.5574
37794SOL     OW18701   6.337   1.146  11.606  0.4109 -0.0526 -0.4593
37794SOL    HW118702   6.265   1.170  11.548  0.6458  0.5074 -0.5222
37794SOL    HW218703   6.371   1.065  11.569  0.2538  0.0454 -0.8286
37795SOL     OW18704   6.524   0.307   7.768  0.2919  0.0327  0.1345
37795SOL    HW118705   6.562   0.386   7.730  1.9040 -0.4480  0.6606
37795SOL    HW218706   6.595   0.269   7.819 -0.3600 -1.9289 -0.3480
37796SOL     OW18707   6.566   0.762   2.186 -0.0462 -0.1928  0.3500
37796SOL    HW118708   6.490   0.724   2.142  1.0691 -1.2865 -0.6882
37796SOL    HW218709   6.584   0.843   2.139  0.9467 -1.1982 -1.0778
37797SOL     OW18710   5.915   3.449   2.807  0.1667 -0.0966  0.7187
37797SOL    HW118711   5.945   3.388   2.741 -2.6058  0.8057 -1.6063
37797SOL    HW218712   5.989   3.508   2.821  1.5065 -1.5404 -0.0097
37798SOL     OW18713   0.775   0.805   7.406  0.0516 -0.7143 -0.3584
37798SOL    HW118714   0.686   0.837   7.389  0.3574 -0.0676 -0.7893
37798SOL    HW218715   0.767   0.753   7.486 -0.2522  1.5461  1.1705
37799SOL     OW18716   5.966   5.961   3.987  0.5011  0.4184 -0.3210
37799SOL    HW118717   5.991   6.051   4.005  2.0289 -0.0428  0.0108
37799SOL    HW218718   6.042   5.923   3.944 -0.3941 -0.5206 -1.1336
37800SOL     OW18719   9.279  11.571  11.211 -0.1879  0.7202  0.6051
37800SOL    HW118720   9.317  11.637  11.270  0.7860  0.6828  0.0495
37800SOL    HW218721   9.238  11.622  11.141  0.4033  0.7551  0.2736
37801SOL     OW18722   4.294   3.547   5.926  0.3332 -0.2587  0.5995
37801SOL    HW118723   4.336   3.523   6.009  1.7003  1.0328  0.3422
37801SOL    HW218724   4.355   3.609   5.886  0.1283 -1.5112 -1.8104
37802SOL     OW18725   7.458   2.521   6.517 -0.0022 -0.0401 -0.3073
37802SOL    HW118726   7.390   2.492   6.577 -2.2876 -0.1365 -2.7623
37802SOL    HW218727   7.429   2.607   6.486  2.7921  1.5657  1.0563
37803SOL     OW18728   4.110   5.742   5.453  0.1044  0.3594 -0.2935
37803SOL    HW118729   4.092   5.820   5.400 -1.6081 -0.3560 -0.8441
37803SOL    HW218730   4.061   5.672   5.410  0.9319 -0.8555  0.6675
37804SOL     OW18731   7.876   6.552  10.480 -0.0222  0.6424 -0.3676
37804SOL    HW118732   7.966   6.582  10.468  0.3969 -0.6286 -0.5946
37804SOL    HW218733   7.865   6.482  10.415 -0.8163  0.0535  0.3689
37805SOL     OW18734   3.360   6.630   3.851 -0.2541  0.4109  0.4484
37805SOL    HW118735   3.410   6.666   3.924 -1.6232  0.5594  1.3410
37805SOL    HW218736   3.300   6.567   3.892  0.4907 -1.1925 -0.8169
37806SOL     OW18737  11.268   9.901  11.402  0.2187 -0.1177  0.5651
37806SOL    HW118738  11.195   9.839  11.407 -1.0187  1.2276 -0.0779
37806SOL    HW218739  11.226   9.987  11.407  1.5276  0.7608 -2.0907
37807SOL     OW18740  11.063   3.183   0.922 -0.3649  0.6440  0.0598
37807SOL    HW118741  11.107   3.267   0.911  0.4000  0.1773 -0.5087
37807SOL    HW218742  10.970   3.206   0.926 -0.2230  1.4579 -0.8722
37808SOL     OW18743   4.877   7.973   8.338  0.6573  0.1642  0.8208
37808SOL    HW118744   4.935   7.907   8.375 -0.7670 -2.1771 -0.8940
37808SOL    HW218745   4.827   8.006   8.413  1.8787 -0.1336  1.8030
37809SOL     OW18746   7.340   5.026   1.194 -0.3792  0.3735 -0.4566
37809SOL    HW118747   7.272   5.047   1.258  0.1800  2.0451 -0.3633
37809SOL    HW218748   7.422   5.030   1.244 -0.1247 -0.8535 -0.7381
37810SOL     OW18749   4.403   5.387   7.170 -0.3686  0.2897  0.1413
37810SOL    HW118750   4.434   5.296   7.169  0.9891  0.7308 -0.1661
37810SOL    HW218751   4.316   5.382   7.210  0.2104 -0.9920  1.3389
37811SOL     OW18752   2.735   2.073   2.740 -0.6535 -0.2486 -0.0830
37811SOL    HW118753   2.807   2.054   2.800 -1.1744  2.5529  1.5816
37811SOL    HW218754   2.777   2.106   2.661 -0.0429  1.0711  0.7654
37812SOL     OW18755   3.967   5.771   9.863 -0.6881  0.5998 -0.4507
37812SOL    HW118756   3.995   5.850   9.908 -0.5340  0.6900 -0.7024
37812SOL    HW218757   3.942   5.711   9.933 -0.3288  0.6933 -0.2408
37813SOL     OW18758   4.822   7.673   0.979  0.2657  0.0754 -0.0285
37813SOL    HW118759   4.866   7.588   0.979  0.1436 -0.0645 -2.4140
37813SOL    HW218760   4.893   7.737   0.979  0.3684 -0.0255  0.7406
37814SOL     OW18761  10.390   6.233   3.431 -0.1553 -0.3192  0.3919
37814SOL    HW118762  10.350   6.178   3.499  1.7206 -1.1912  0.8492
37814SOL    HW218763  10.403   6.318   3.474 -0.1324 -0.4829  0.7153
37815SOL     OW18764   8.212   5.603   5.729  0.1138  0.2927  0.1333
37815SOL    HW118765   8.286   5.596   5.789 -0.3664  1.9630  0.9944
37815SOL    HW218766   8.160   5.524   5.745  0.6312  0.1175  1.0286
37816SOL     OW18767   2.605   0.647   0.321 -0.4510 -0.2717  0.6433
37816SOL    HW118768   2.539   0.677   0.259  1.5656 -0.9065 -1.9962
37816SOL    HW218769   2.573   0.562   0.350  0.4327 -2.0741 -3.0108
37817SOL     OW18770   4.121  11.440   8.660  0.2173 -0.1497  0.3008
37817SOL    HW118771   4.134  11.531   8.684 -0.7824 -0.1536  0.9000
37817SOL    HW218772   4.105  11.442   8.565  0.9224  0.2120  0.1840
37818SOL     OW18773   1.120   4.973   8.040 -0.7128  0.3868 -0.0812
37818SOL    HW118774   1.211   4.989   8.016 -1.0271  2.3921 -0.0582
37818SOL    HW218775   1.125   4.934   8.127  0.0992  2.5989  0.9368
37819SOL     OW18776  11.767   1.956   6.123  0.0084  0.0257  0.7144
37819SOL    HW118777  11.834   2.022   6.107 -1.0761  1.2895  1.1532
37819SOL    HW218778  11.748   1.963   6.217 -0.6924 -0.3179  0.6082
37820SOL     OW18779   3.254   5.133  10.378  0.1712  0.5209  0.4894
37820SOL    HW118780   3.307   5.208  10.403 -0.5537  0.3746  2.7316
37820SOL    HW218781   3.299   5.058  10.416 -0.6258  0.1848  0.8090
37821SOL     OW18782   6.963   4.269   9.498 -0.3297  0.3628  0.4028
37821SOL    HW118783   6.938   4.263   9.406 -0.8999  0.1358  0.5698
37821SOL    HW218784   7.056   4.290   9.496 -0.1539 -0.4379 -0.2164
37822SOL     OW18785   1.192   3.891   9.348 -0.0207  0.0281  0.4526
37822SOL    HW118786   1.158   3.836   9.277 -2.0045 -2.5792  3.1842
37822SOL    HW218787   1.129   3.963   9.355  0.5180  0.6430 -0.7409
37823SOL     OW18788   0.410   7.543   8.760 -0.1622  0.0499 -0.0136
37823SOL    HW118789   0.482   7.484   8.781  1.0075  1.6965  0.7318
37823SOL    HW218790   0.405   7.542   8.664 -1.6308 -2.8838 -0.0363
37824SOL     OW18791   9.559   6.601   5.727 -0.0974  0.1261  0.3680
37824SOL    HW118792   9.505   6.669   5.767 -1.1390  0.2115 -1.1083
37824SOL    HW218793   9.569   6.535   5.795 -1.8247  0.2513  0.7878
37825SOL     OW18794   7.021   5.472   5.059  0.2656 -0.1170  0.0871
37825SOL    HW118795   7.050   5.541   5.118 -0.9400  0.7335 -0.2761
37825SOL    HW218796   6.926   5.476   5.063  0.1820 -1.3554 -0.4167
37826SOL     OW18797   9.337  10.911   1.843 -0.0101 -0.0644 -0.2067
37826SOL    HW118798   9.325  10.930   1.751 -0.4019 -0.4260 -0.2358
37826SOL    HW218799   9.285  10.832   1.858  1.1516 -0.8165  0.0114
37827SOL     OW18800   2.059   5.442   7.630 -0.0372 -0.0562  1.1461
37827SOL    HW118801   2.147   5.450   7.666 -0.6354 -0.8575  2.9245
37827SOL    HW218802   2.017   5.525   7.652  0.4053  0.5542 -0.2016
37828SOL     OW18803   5.424   4.278  10.018 -0.0571  0.3741  0.0545
37828SOL    HW118804   5.436   4.277   9.923 -1.0573 -0.0824 -0.0747
37828SOL    HW218805   5.339   4.237  10.032  0.7911 -1.0447  1.2635
37829SOL     OW18806   4.324   2.728   3.713 -0.1291 -0.3011 -0.6028
37829SOL    HW118807   4.292   2.818   3.723  1.7437  0.4477 -0.8865
37829SOL    HW218808   4.287   2.681   3.788  1.5513  1.5580  1.5431
37830SOL     OW18809   0.374   0.203   8.587 -0.0928 -0.2058 -0.0218
37830SOL    HW118810   0.347   0.119   8.550  0.7815  0.3492 -2.0731
37830SOL    HW218811   0.444   0.180   8.648 -0.7044 -1.0638  0.3747
37831SOL     OW18812   3.374   8.929   8.043  0.5612 -0.2877  0.1717
37831SOL    HW118813   3.440   8.969   8.100 -0.2351  1.0991  0.1646
37831SOL    HW218814   3.290   8.955   8.080  0.0131 -0.8125 -0.6500
37832SOL     OW18815  10.525   4.866   9.012  0.5673  0.2659 -0.4459
37832SOL    HW118816  10.473   4.899   9.085  0.4575  0.6218 -0.6839
37832SOL    HW218817  10.598   4.927   9.004  1.4067 -0.6117  0.3204
37833SOL     OW18818   0.465   4.743  10.860 -0.0358 -0.4567  0.5632
37833SOL    HW118819   0.412   4.817  10.890 -0.0281 -1.1441  2.4314
37833SOL    HW218820   0.422   4.714  10.780 -1.9742 -0.3964  1.5033
37834SOL     OW18821   2.208   9.856   8.417 -0.0801  0.1190  0.2979
37834SOL    HW118822   2.144   9.911   8.371  1.3497  1.4854 -0.1573
37834SOL    HW218823   2.159   9.820   8.491 -1.3878  1.0647 -0.0539
37835SOL     OW18824   1.761  11.437   2.606  0.8840  0.2212  0.2482
37835SOL    HW118825   1.822  11.492   2.654 -2.2800  3.4781  1.0047
37835SOL    HW218826   1.685  11.429   2.664 -1.3307  0.5399 -2.3881
37836SOL     OW18827   6.298   5.108   7.547  0.2176  0.3789 -0.2210
37836SOL    HW118828   6.250   5.119   7.629 -0.7732  0.6962 -0.8281
37836SOL    HW218829   6.357   5.183   7.543  0.2635  0.3669  0.1858
37837SOL     OW18830   3.828  10.370   4.783 -0.0812  0.4717 -0.5726
37837SOL    HW118831   3.745  10.348   4.825  0.6257  1.9652  1.7899
37837SOL    HW218832   3.874  10.286   4.776 -1.9279 -0.4827 -2.4709
37838SOL     OW18833   3.164   2.922   0.005 -0.3961  0.0995  0.1634
37838SOL    HW118834   3.190   2.867  -0.068  2.0888  1.4173 -0.0391
37838SOL    HW218835   3.110   2.990  -0.034 -0.4398 -0.1271 -0.1744
37839SOL     OW18836   2.538   0.863   6.046  0.3741 -0.5275 -0.0204
37839SOL    HW118837   2.547   0.776   6.084  1.8292 -0.4289 -0.0615
37839SOL    HW218838   2.506   0.918   6.118  1.3028 -0.7262  0.5640
37840SOL     OW18839   9.201   1.710   0.759  0.2853 -0.4370  0.3363
37840SOL    HW118840   9.261   1.656   0.707 -0.5140 -0.6320 -0.4025
37840SOL    HW218841   9.154   1.762   0.694 -1.6342 -1.5880  0.7266
37841SOL     OW18842   3.204   6.889   4.626 -0.4004  1.0915  0.0191
37841SOL    HW118843   3.167   6.801   4.629  1.4296  0.3053  0.9106
37841SOL    HW218844   3.206   6.910   4.532  1.4206 -0.8886 -0.4655
37842SOL     OW18845   4.413   8.624   9.584 -0.4119 -0.1477  0.1893
37842SOL    HW118846   4.369   8.649   9.666 -0.2289  2.0687 -0.3080
37842SOL    HW218847   4.350   8.649   9.516  0.6649  0.9792 -0.4310
37843SOL     OW18848   3.573  11.058   0.150  0.5877  0.7620  0.7455
37843SOL    HW118849   3.489  11.104   0.145  0.5769  0.6607 -0.1573
37843SOL    HW218850   3.584  11.040   0.243 -0.2092  1.1132  0.9238
37844SOL     OW18851   5.610   1.613   8.084 -0.4572  0.9167 -0.1021
37844SOL    HW118852   5.597   1.624   7.990  0.7268  1.5789 -0.2050
37844SOL    HW218853   5.692   1.564   8.091 -1.4755 -0.8144  0.5708
37845SOL     OW18854   7.350   3.404   6.144  0.2139 -0.2268 -0.2951
37845SOL    HW118855   7.308   3.448   6.218  1.4873  0.0416  0.2788
37845SOL    HW218856   7.442   3.427   6.150  0.3057  0.1046 -2.1815
37846SOL     OW18857   4.527   1.713   1.244 -0.3386  0.3578  0.4541
37846SOL    HW118858   4.615   1.742   1.219 -0.8987  1.1626 -0.6882
37846SOL    HW218859   4.477   1.794   1.254 -1.5012 -0.0972 -1.1182
37847SOL     OW18860   5.950   9.794   1.021  0.5108 -0.2424  0.0957
37847SOL    HW118861   5.949   9.724   0.955  1.6878 -0.8030  0.6414
37847SOL    HW218862   5.862   9.792   1.059  0.1332 -0.5762 -0.7761
37848SOL     OW18863   0.770  10.397   2.977 -0.1842  0.5668 -0.0825
37848SOL    HW118864   0.706  10.462   3.006  0.1277  1.3583 -1.1276
37848SOL    HW218865   0.796  10.425   2.889 -0.2269 -1.1124 -0.6651
37849SOL     OW18866   6.694   0.832   0.462 -0.2130 -0.2717  0.1715
37849SOL    HW118867   6.757   0.762   0.444 -1.5294 -1.1609 -1.3492
37849SOL    HW218868   6.611   0.796   0.430 -1.4712  0.8997  1.9777
37850SOL     OW18869   4.228   1.425   7.301 -0.3880 -0.5347  0.4948
37850SOL    HW118870   4.255   1.459   7.215 -0.2457  0.3188  0.8659
37850SOL    HW218871   4.266   1.337   7.305 -0.0262 -0.4139 -0.1367
37851SOL     OW18872   4.631   9.925  10.385  0.5855  0.4130 -0.0286
37851SOL    HW118873   4.716   9.935  10.428 -0.2688  0.0667  1.8632
37851SOL    HW218874   4.574   9.892  10.454 -1.5357  2.3130 -0.7658
37852SOL     OW18875   4.266   3.663   9.740 -0.6509 -0.2204  0.4269
37852SOL    HW118876   4.214   3.630   9.814 -0.3218  0.8089  1.1421
37852SOL    HW218877   4.205   3.662   9.666 -1.0101 -1.1995  0.7165
37853SOL     OW18878  10.211   4.267  11.555 -0.1543 -0.0001  0.1684
37853SOL    HW118879  10.275   4.338  11.559  0.0912 -0.0238 -2.1016
37853SOL    HW218880  10.264   4.188  11.541 -0.5943 -0.1175 -0.9704
37854SOL     OW18881   4.584   0.922   4.995 -0.3279  0.3400  0.5800
37854SOL    HW118882   4.578   1.017   4.988 -1.4744  0.2960  0.6740
37854SOL    HW218883   4.497   0.891   4.968  0.2262 -0.7176 -0.0582
37855SOL     OW18884   1.106   9.974   5.626  0.1768  0.2196 -0.0579
37855SOL    HW118885   1.153   9.930   5.555 -0.4329 -0.1159 -0.2590
37855SOL    HW218886   1.137   9.929   5.705  0.2944  0.0842 -0.1780
37856SOL     OW18887   0.504   7.544  10.675  0.1901  0.0070 -0.4397
37856SOL    HW118888   0.418   7.520  10.640 -0.4008 -0.3185  1.1226
37856SOL    HW218889   0.493   7.634  10.706  0.0690 -0.3904  0.7201
37857SOL     OW18890   3.478   5.096   9.763  0.4037  0.3785 -0.3162
37857SOL    HW118891   3.519   5.101   9.676 -0.0303  0.6625 -0.5113
37857SOL    HW218892   3.439   5.183   9.776  0.7978  0.4661  0.3341
37858SOL     OW18893   4.209   3.050  11.617 -0.1131 -0.2990  0.0068
37858SOL    HW118894   4.127   3.036  11.570 -0.5889 -0.1467  0.7869
37858SOL    HW218895   4.184   3.096  11.696  0.6992 -0.4511  0.3608
37859SOL     OW18896   3.851  10.761   9.668  0.1528 -0.5843  0.1706
37859SOL    HW118897   3.890  10.753   9.581  2.3030 -3.3460  1.2304
37859SOL    HW218898   3.817  10.674   9.687 -1.6092  0.3524  1.5790
37860SOL     OW18899   2.636   1.306   4.610 -0.0869  0.1801  0.1398
37860SOL    HW118900   2.645   1.399   4.630 -3.1040  0.2108  2.0414
37860SOL    HW218901   2.618   1.302   4.516  0.4149  1.4697 -0.0188
37861SOL     OW18902   7.196   8.282   5.403  0.2551  0.2402 -0.2192
37861SOL    HW118903   7.238   8.200   5.431 -0.8008  0.2844  1.6902
37861SOL    HW218904   7.107   8.256   5.379  0.2581  0.6740 -0.7112
37862SOL     OW18905   7.330   3.205   7.882  0.0919  1.0737  0.3798
37862SOL    HW118906   7.305   3.114   7.898  3.2484  0.5975  3.5628
37862SOL    HW218907   7.407   3.200   7.826  1.4628  1.5812  2.1329
37863SOL     OW18908   8.026   5.628  10.212  0.4003  0.4648 -0.4741
37863SOL    HW118909   7.968   5.576  10.270 -0.0687 -1.3548 -2.4431
37863SOL    HW218910   7.967   5.690  10.169  0.4979  0.8120 -0.1157
37864SOL     OW18911   7.932  11.227   5.882 -0.3500 -0.1500  0.4593
37864SOL    HW118912   7.848  11.180   5.875 -0.5707  0.1889  0.7684
37864SOL    HW218913   7.981  11.178   5.948 -0.5782  0.0443  0.7788
37865SOL     OW18914   9.543   2.057   7.793 -0.2238 -0.1433 -0.5101
37865SOL    HW118915   9.604   2.131   7.801  3.9616 -3.1729 -1.1650
37865SOL    HW218916   9.459   2.098   7.771  0.9589  4.5279  2.2878
37866SOL     OW18917   9.046  10.603   7.383  0.2012 -0.3574 -0.4148
37866SOL    HW118918   9.101  10.608   7.461  0.2880 -0.7609 -0.4505
37866SOL    HW218919   9.029  10.510   7.371 -0.1659 -0.2642 -0.6317
37867SOL     OW18920   8.458   5.635   8.819  0.3726  0.5732 -0.3328
37867SOL    HW118921   8.520   5.677   8.760  1.5860 -1.1691 -0.3348
37867SOL    HW218922   8.459   5.691   8.897 -0.4420  2.2878 -1.4885
37868SOL     OW18923   1.755  11.466   0.458 -0.5435 -0.2192 -0.3322
37868SOL    HW118924   1.811  11.407   0.407 -2.5474 -0.7144 -2.0882
37868SOL    HW218925   1.793  11.553   0.443  0.6863 -0.6991 -0.1451
37869SOL     OW18926  11.773   3.108   0.997  0.8110 -0.0798 -0.6870
37869SOL    HW118927  11.862   3.124   0.966  0.2156  1.7095 -1.5722
37869SOL    HW218928  11.774   3.138   1.088  0.6162  1.9609 -1.3093
37870SOL     OW18929   4.268   2.193   1.827  0.6397 -0.6264 -0.1767
37870SOL    HW118930   4.319   2.259   1.780 -0.1745  1.0240  1.1476
37870SOL    HW218931   4.194   2.174   1.769 -0.8790  2.0905  0.6557
37871SOL     OW18932  10.984   1.773  10.006 -0.6203 -0.3868 -0.1247
37871SOL    HW118933  11.066   1.772   9.956 -0.5883  0.1478 -0.0965
37871SOL    HW218934  10.937   1.850   9.973 -0.6951 -0.1528  0.4995
37872SOL     OW18935   1.258   0.031   5.364 -0.1179 -0.4085  0.3042
37872SOL    HW118936   1.179  -0.000   5.408 -0.6597  0.1952 -0.2122
37872SOL    HW218937   1.234   0.033   5.271  0.7770 -0.9972  0.0459
37873SOL     OW18938   9.056   3.395   0.766 -0.4238 -0.3480  0.2600
37873SOL    HW118939   8.971   3.420   0.803 -1.4906 -2.9242 -0.2088
37873SOL    HW218940   9.079   3.315   0.813  1.5002 -0.0199 -0.0433
37874SOL     OW18941   9.813   1.649  11.336  0.5413 -0.2355 -0.1710
37874SOL    HW118942   9.773   1.623  11.252  0.5134 -1.9469  0.3423
37874SOL    HW218943   9.808   1.571  11.390 -1.0185  1.2987  2.0744
37875SOL     OW18944  10.280   7.742  10.465  0.0148 -0.4065  0.0131
37875SOL    HW118945  10.291   7.727  10.371  0.4103 -2.1250  0.3134
37875SOL    HW218946  10.185   7.748  10.477 -0.0202  1.9590 -0.7511
37876SOL     OW18947   0.084   1.807   4.289  0.4266  0.4436  0.4460
37876SOL    HW118948   0.138   1.731   4.268 -1.6898 -0.8743 -0.5994
37876SOL    HW218949   0.125   1.879   4.239  1.1074 -0.5253 -0.4445
37877SOL     OW18950   8.394   6.912  10.150  0.0925 -0.2645 -0.4431
37877SOL    HW118951   8.416   6.861  10.228 -1.7566  0.5383  0.6902
37877SOL    HW218952   8.433   6.998  10.166 -0.5275 -0.0139 -0.2621
37878SOL     OW18953   9.896   5.312   6.154  0.3415  0.0212 -0.0014
37878SOL    HW118954   9.820   5.258   6.175 -2.6718  2.5901 -3.0364
37878SOL    HW218955   9.869   5.401   6.176  2.2143  1.1077 -1.7101
37879SOL     OW18956  11.258   2.521   1.640 -0.3948 -0.0426  0.3611
37879SOL    HW118957  11.180   2.504   1.587 -0.3747 -0.0302  0.3284
37879SOL    HW218958  11.290   2.434   1.663 -0.2052 -0.0533  0.0635
37880SOL     OW18959  11.457  10.367   9.341  0.0112 -0.1342  0.1351
37880SOL    HW118960  11.450  10.462   9.352  0.5794  0.2798 -2.4620
37880SOL    HW218961  11.382  10.343   9.286 -0.1469 -1.2215  0.7906
37881SOL     OW18962   6.119   2.389   6.227  0.5661  0.0969 -0.7067
37881SOL    HW118963   6.025   2.374   6.228  0.5296 -0.0026 -2.2132
37881SOL    HW218964   6.129   2.482   6.207  0.7793  0.0529 -0.8155
37882SOL     OW18965  10.568  11.769  11.518 -0.3078 -0.2550 -0.0465
37882SOL    HW118966  10.602  11.680  11.529 -0.0893 -0.0404  1.1168
37882SOL    HW218967  10.539  11.772  11.427 -3.0362 -2.4442  0.5966
37883SOL     OW18968  11.298   9.409  11.318 -0.5867  0.6721  0.6243
37883SOL    HW118969  11.233   9.341  11.301 -1.4435  1.5127  0.4101
37883SOL    HW218970  11.327   9.394  11.407 -0.1707 -0.4494  0.3156
37884SOL     OW18971  10.005   3.255   6.206 -0.0648 -0.5287 -0.2573
37884SOL    HW118972   9.946   3.188   6.174  0.8300 -0.9704 -1.0295
37884SOL    HW218973  10.015   3.316   6.132  0.2981 -0.3615 -0.0740
37885SOL     OW18974  11.361   2.685   7.849  0.3868  0.1217  0.3744
37885SOL    HW118975  11.334   2.605   7.803 -1.8298  0.8351  0.2945
37885SOL    HW218976  11.352   2.663   7.942 -1.6984  0.6397  0.3587
37886SOL     OW18977   6.597   9.595   2.638  0.7829 -0.1919  0.0144
37886SOL    HW118978   6.557   9.661   2.694  1.0186  1.3038 -1.5127
37886SOL    HW218979   6.691   9.603   2.653  0.8518  0.2573 -0.6163
37887SOL     OW18980   1.403  10.674   4.577  0.1103  0.2870 -0.2607
37887SOL    HW118981   1.469  10.739   4.601  0.0093 -0.6602  3.1561
37887SOL    HW218982   1.433  10.593   4.619 -1.9186 -0.8156 -0.8065
37888SOL     OW18983  11.235   0.831  11.112 -0.2948  0.4396 -0.2569
37888SOL    HW118984  11.183   0.864  11.039  0.7372  1.4500 -0.5694
37888SOL    HW218985  11.195   0.746  11.133 -1.6231  0.8728 -0.9061
37889SOL     OW18986  11.242   0.574  10.458 -0.3977 -0.1833  0.3988
37889SOL    HW118987  11.182   0.572  10.384  1.3610 -0.2016 -1.1108
37889SOL    HW218988  11.279   0.662  10.457  1.8660 -1.0749 -0.6871
37890SOL     OW18989  10.110   8.301   4.293 -0.0797 -0.2936 -0.0712
37890SOL    HW118990  10.092   8.344   4.377 -1.1488 -0.2978 -0.2884
37890SOL    HW218991  10.028   8.259   4.270  0.8747 -2.3057  0.0231
37891SOL     OW18992   3.124  11.072  10.619  0.1890  0.2941 -0.7473
37891SOL    HW118993   3.088  11.039  10.536 -1.9652 -1.0127  0.6266
37891SOL    HW218994   3.112  11.166  10.615 -0.6450  0.1652 -1.5781
37892SOL     OW18995   6.498   3.826   2.237  0.2840 -0.5353 -0.1893
37892SOL    HW118996   6.411   3.787   2.247  1.4756 -3.3143  0.1051
37892SOL    HW218997   6.533   3.831   2.326  0.3606  0.8270 -0.2745
37893SOL     OW18998   2.377   5.735   4.519  0.1451 -0.3701  0.1863
37893SOL    HW118999   2.400   5.793   4.446 -1.7544  0.7934  0.4551
37893SOL    HW219000   2.380   5.647   4.481  0.1809  0.1271 -1.0268
37894SOL     OW19001   7.648   5.476  10.885 -0.5649 -0.4716  0.2172
37894SOL    HW119002   7.567   5.502  10.929 -0.0396  2.4574 -0.3216
37894SOL    HW219003   7.708   5.453  10.957 -0.0001  3.3986  1.1891
37895SOL     OW19004   4.740   7.314   0.281  0.0246 -0.1464  0.7367
37895SOL    HW119005   4.813   7.317   0.343  0.4471 -0.4166  0.2613
37895SOL    HW219006   4.734   7.222   0.255 -0.1018 -0.0254  0.3250
37896SOL     OW19007   4.690   9.564   0.207  0.1108  0.1388 -0.2929
37896SOL    HW119008   4.637   9.616   0.147 -1.0225 -0.4416  0.1609
37896SOL    HW219009   4.649   9.577   0.293 -0.0303 -1.2407 -0.1221
37897SOL     OW19010  10.450   1.902   8.093 -0.2475 -0.0264  0.0012
37897SOL    HW119011  10.361   1.884   8.063  0.0920 -0.1860 -0.9353
37897SOL    HW219012  10.446   1.993   8.124 -0.9238 -0.2894  0.7461
37898SOL     OW19013   6.700   8.765   6.074  0.5614 -0.0502  0.1103
37898SOL    HW119014   6.691   8.697   6.007 -2.8167 -0.5070  0.8459
37898SOL    HW219015   6.759   8.727   6.139 -1.0125 -2.2774  0.3705
37899SOL     OW19016   5.981  11.776   1.179  0.0517 -0.2047  0.2119
37899SOL    HW119017   5.923  11.839   1.134 -0.4175  0.6334  1.9153
37899SOL    HW219018   6.004  11.713   1.111 -3.8136 -1.2718 -0.3364
37900SOL     OW19019   6.643   4.127   2.858  0.3485  0.0307  0.3042
37900SOL    HW119020   6.713   4.117   2.922 -0.2035  2.1476  1.3367
37900SOL    HW219021   6.673   4.197   2.801  0.1245 -0.7462 -0.8049
37901SOL     OW19022   2.693  10.597  11.110 -0.0571 -0.5361  0.5432
37901SOL    HW119023   2.703  10.514  11.157  1.1168 -0.3748  0.6173
37901SOL    HW219024   2.643  10.575  11.032  1.7073 -1.6836 -0.3219
37902SOL     OW19025   8.981  10.647   5.156 -0.4227  0.4048  0.0113
37902SOL    HW119026   8.954  10.594   5.081 -1.1954  1.4907 -0.5034
37902SOL    HW219027   9.067  10.612   5.181 -1.4640 -1.9318  0.5357
37903SOL     OW19028   7.338   8.487   7.427 -0.6496  0.3912 -0.6984
37903SOL    HW119029   7.273   8.458   7.362 -1.2598 -1.5946  0.7040
37903SOL    HW219030   7.288   8.494   7.508  0.4668  1.0909 -0.0583
37904SOL     OW19031   8.868   3.729   1.481 -0.4637 -0.0559 -0.1904
37904SOL    HW119032   8.873   3.666   1.553 -0.7344 -0.9918 -0.9653
37904SOL    HW219033   8.954   3.772   1.482  0.0996 -1.1186 -0.2365
37905SOL     OW19034   7.310   1.354   1.772  0.5798  0.4166 -0.1394
37905SOL    HW119035   7.232   1.397   1.808  0.2883 -1.2906  1.4381
37905SOL    HW219036   7.382   1.389   1.824  0.1546 -2.0771  2.3786
37906SOL     OW19037  11.363   0.440   1.404 -0.0542 -0.1018  0.2980
37906SOL    HW119038  11.399   0.479   1.484 -1.0958 -0.5571  1.0151
37906SOL    HW219039  11.438   0.402   1.359  0.8819  2.0136 -0.0367
37907SOL     OW19040   1.874   6.084   6.617 -0.1527 -0.4503  0.3199
37907SOL    HW119041   1.875   6.064   6.524  0.8966  4.8602 -1.1268
37907SOL    HW219042   1.961   6.058   6.648 -0.4100 -1.9704 -0.1232
37908SOL     OW19043   0.427   7.797   8.827  0.5031 -0.3854  0.0840
37908SOL    HW119044   0.406   7.854   8.753 -0.3153 -1.1352 -0.2726
37908SOL    HW219045   0.430   7.709   8.790  1.9850 -0.5789  0.5852
37909SOL     OW19046   1.442   6.424   7.906  0.1000 -0.0076 -0.2357
37909SOL    HW119047   1.448   6.513   7.872  1.1631  0.3904  0.9104
37909SOL    HW219048   1.463   6.368   7.832 -0.0005  0.7151 -0.8206
37910SOL     OW19049   7.401  11.324   7.503 -0.4019 -0.6013 -0.3012
37910SOL    HW119050   7.363  11.321   7.415 -0.2343 -2.3152 -0.3359
37910SOL    HW219051   7.392  11.416   7.530 -1.0227 -0.1870 -1.8476
37911SOL     OW19052   1.430   1.857   6.336 -0.9683  0.0970 -0.3360
37911SOL    HW119053   1.512   1.847   6.384 -1.6580 -0.2265  0.8066
37911SOL    HW219054   1.439   1.798   6.261 -1.0488 -1.7307  1.0152
37912SOL     OW19055  10.093   4.544  11.035 -0.2093 -0.3060  0.3540
37912SOL    HW119056  10.156   4.592  10.981  0.9432 -0.9859  1.0393
37912SOL    HW219057  10.079   4.600  11.111  0.8703 -0.8605  0.9889
37913SOL     OW19058   7.413   8.528   4.421 -0.0269  0.3631 -0.4321
37913SOL    HW119059   7.325   8.565   4.419 -0.6451 -0.9701  0.3848
37913SOL    HW219060   7.464   8.582   4.361 -0.9264  2.3404  0.5074
37914SOL     OW19061   1.979  11.104  11.025  0.2270  0.3250  0.1878
37914SOL    HW119062   1.925  11.075  11.099  1.2769 -2.7347 -0.0910
37914SOL    HW219063   1.967  11.035  10.959  2.9720  0.5104 -0.6018
37915SOL     OW19064  10.726   6.271   5.445 -0.2048 -0.1946  0.0292
37915SOL    HW119065  10.816   6.239   5.434  0.1655  0.3264  1.3361
37915SOL    HW219066  10.731   6.332   5.519 -1.5865  0.0746 -0.0693
37916SOL     OW19067  10.453   0.459  10.254  0.0375  0.3824  0.1190
37916SOL    HW119068  10.377   0.514  10.236  0.2052  1.2124  1.6879
37916SOL    HW219069  10.503   0.509  10.319  0.1734 -1.6416  1.6763
37917SOL     OW19070   1.617   0.851   5.809 -0.4697  0.0304  1.1267
37917SOL    HW119071   1.642   0.860   5.900  0.0533  0.6717  0.9296
37917SOL    HW219072   1.562   0.928   5.791  1.6988  1.4771  0.1839
37918SOL     OW19073   6.703   5.385  10.353  0.3414  0.2038  0.2822
37918SOL    HW119074   6.716   5.291  10.350 -0.8593  0.0078  0.6236
37918SOL    HW219075   6.771   5.421  10.296 -0.0158 -0.9519 -0.9149
37919SOL     OW19076   9.665   9.101   0.135  0.3577  0.3947  0.2552
37919SOL    HW119077   9.588   9.114   0.080 -0.1118  0.5515  0.9270
37919SOL    HW219078   9.629   9.077   0.221  1.0545 -4.1664 -0.4550
37920SOL     OW19079  11.587  10.081   6.104 -0.0587  0.3226 -0.4271
37920SOL    HW119080  11.666  10.029   6.119 -0.6088 -0.5425 -0.4981
37920SOL    HW219081  11.619  10.171   6.097  0.7065  0.2910  1.7455
37921SOL     OW19082   8.384   6.293   5.174  0.2860  0.2433  0.1032
37921SOL    HW119083   8.354   6.204   5.154  0.5164  0.0756  0.4853
37921SOL    HW219084   8.352   6.310   5.262  0.0962  0.6077 -0.0352
37922SOL     OW19085   5.673   4.850   2.908 -0.3405 -0.5926  0.0941
37922SOL    HW119086   5.619   4.814   2.978  1.0919 -1.7021  0.6788
37922SOL    HW219087   5.731   4.778   2.883  0.9804  0.5831 -0.3838
37923SOL     OW19088  10.510   8.100   1.423  0.0024 -0.2313  0.0478
37923SOL    HW119089  10.590   8.146   1.399  0.6144 -0.7832  0.9606
37923SOL    HW219090  10.446   8.169   1.440  0.0483  0.1977 -1.3859
37924SOL     OW19091   1.858   3.517   6.490 -0.3169 -0.4231  0.0063
37924SOL    HW119092   1.806   3.552   6.418  0.3965  0.6484 -0.0176
37924SOL    HW219093   1.882   3.429   6.461  0.6385  0.2738 -1.4742
37925SOL     OW19094  11.795  10.021   3.030  0.3736 -0.3551  0.3695
37925SOL    HW119095  11.799  10.049   2.939 -0.2166  1.2440  0.7940
37925SOL    HW219096  11.842   9.938   3.032  0.7257 -0.2322 -1.3116
37926SOL     OW19097  10.643   7.917  11.072 -0.6594  0.5386 -0.4210
37926SOL    HW119098  10.643   7.845  11.135  0.5625 -0.7874 -1.8442
37926SOL    HW219099  10.591   7.884  10.998  1.0369  0.5372 -1.6604
37927SOL     OW19100   2.181   5.734   6.809  0.3304 -0.2010 -0.0320
37927SOL    HW119101   2.133   5.814   6.786 -1.3149 -0.9566  0.5554
37927SOL    HW219102   2.193   5.688   6.726 -0.1118 -0.0630 -0.1772
37928SOL     OW19103   7.983   3.722   5.720  0.1134 -0.1593 -0.4631
37928SOL    HW119104   7.975   3.765   5.635 -2.3250 -0.4810 -0.4753
37928SOL    HW219105   7.939   3.638   5.709  1.4622 -1.0482  0.6106
37929SOL     OW19106  11.095  10.089  11.508 -0.3949 -0.8287  0.2866
37929SOL    HW119107  11.114  10.103  11.600 -1.5794 -2.5099  0.8473
37929SOL    HW219108  11.103  10.175  11.467  2.5678 -0.4632  1.4529
37930SOL     OW19109   1.641  11.744  11.173  0.6334 -0.5167  0.7679
37930SOL    HW119110   1.662  11.777  11.086 -1.5290  0.0327  0.3896
37930SOL    HW219111   1.709  11.780  11.230  1.9379 -0.6805 -0.6356
37931SOL     OW19112   6.502   8.726   0.735  0.4508  0.0223 -1.0514
37931SOL    HW119113   6.533   8.697   0.821 -0.7823  0.2230 -0.5108
37931SOL    HW219114   6.474   8.646   0.691 -3.4482  0.2461  0.6422
37932SOL     OW19115   1.214   1.383   1.107  0.1062  0.2907 -0.3640
37932SOL    HW119116   1.209   1.367   1.012 -1.5902 -0.1319 -0.2402
37932SOL    HW219117   1.149   1.451   1.123  0.6919  0.6707  0.4492
37933SOL     OW19118   5.584   7.749  11.359 -0.3589  0.3622  0.5159
37933SOL    HW119119   5.495   7.782  11.353 -0.3581  0.6268  1.6292
37933SOL    HW219120   5.574   7.654  11.371 -0.4673  0.3212  0.1099
37934SOL     OW19121   3.833   4.272   9.650  0.8367  0.0454 -0.2390
37934SOL    HW119122   3.904   4.254   9.711 -0.2711  0.2528  1.1531
37934SOL    HW219123   3.849   4.213   9.576  1.4063 -1.2653  0.8956
37935SOL     OW19124  10.136   5.501   8.109  0.3356 -0.0277  0.6411
37935SOL    HW119125  10.189   5.564   8.060 -0.0312 -0.5657 -0.4779
37935SOL    HW219126  10.062   5.552   8.141 -1.0757 -0.2435 -2.0330
37936SOL     OW19127  11.790   8.203   3.166 -0.3650  0.5711  0.5825
37936SOL    HW119128  11.798   8.220   3.072 -0.4467  1.7249  0.7696
37936SOL    HW219129  11.706   8.157   3.175 -0.8216  1.3085  0.1889
37937SOL     OW19130   7.664   8.583   1.565 -0.3839  0.0240  0.2876
37937SOL    HW119131   7.605   8.654   1.539 -0.5733 -0.2409 -0.0195
37937SOL    HW219132   7.681   8.599   1.657  2.1231  2.2939 -0.4589
37938SOL     OW19133  10.601   0.903   6.395  0.3027  0.3905  0.4121
37938SOL    HW119134  10.535   0.839   6.423 -0.5009  0.8234 -0.4370
37938SOL    HW219135  10.682   0.852   6.389  0.1887 -0.0374  1.9764
37939SOL     OW19136   5.002   4.929  10.677 -0.0388 -0.4789 -0.3572
37939SOL    HW119137   5.074   4.868  10.667  0.6365 -0.0285  1.4634
37939SOL    HW219138   5.042   5.016  10.669 -0.6475 -0.2347 -0.8687
37940SOL     OW19139   0.196   5.471   6.373 -0.0438  0.8591  0.0785
37940SOL    HW119140   0.248   5.549   6.350  0.4972 -0.0862 -2.1205
37940SOL    HW219141   0.246   5.398   6.339 -1.4052 -0.3411  0.5580
37941SOL     OW19142   6.505   8.514   3.708  0.5725  0.0746 -0.5162
37941SOL    HW119143   6.550   8.437   3.674  1.4228 -0.1731  1.0700
37941SOL    HW219144   6.548   8.532   3.792 -2.5969 -0.5139  1.3904
37942SOL     OW19145   1.164   9.286  10.736  0.0416 -0.1013 -0.3568
37942SOL    HW119146   1.088   9.272  10.680 -1.3500 -1.0758  1.6218
37942SOL    HW219147   1.237   9.246  10.689 -1.5701 -3.4410 -0.3455
37943SOL     OW19148   4.302  10.658  10.978 -0.5014  0.1231 -0.1632
37943SOL    HW119149   4.274  10.708  10.901  0.2866 -0.9249 -1.1685
37943SOL    HW219150   4.397  10.657  10.973 -0.4874 -2.2382 -0.7381
37944SOL     OW19151   4.347  11.488  11.177 -0.3931 -0.4852  0.1670
37944SOL    HW119152   4.340  11.529  11.091  2.2336  1.1867  0.6382
37944SOL    HW219153   4.263  11.506  11.219 -1.3802 -0.5410 -1.6926
37945SOL     OW19154   1.664   8.060   8.119  0.5217 -0.1523  0.7629
37945SOL    HW119155   1.741   8.026   8.165  1.1815  2.5993  1.9129
37945SOL    HW219156   1.692   8.066   8.028  1.2795 -0.2152  0.9812
37946SOL     OW19157   9.179   7.107   9.970 -0.2001  0.4802 -0.5138
37946SOL    HW119158   9.120   7.088  10.043 -0.2865 -2.0973 -1.1588
37946SOL    HW219159   9.262   7.130  10.011 -0.0907 -1.4340  0.4482
37947SOL     OW19160   8.429   9.954   3.181  0.0409 -0.3887  0.2411
37947SOL    HW119161   8.495  10.008   3.225  1.7497 -1.1988 -1.1705
37947SOL    HW219162   8.355  10.013   3.166  0.8369  0.8478  0.9896
37948SOL     OW19163   6.184   1.027   2.805 -0.9682  0.3218 -0.5901
37948SOL    HW119164   6.264   0.976   2.793 -1.6571 -0.4598 -2.2036
37948SOL    HW219165   6.168   1.026   2.899 -0.4818 -1.7312 -0.4791
37949SOL     OW19166   9.816   0.190   7.569  0.2448  0.3423  0.0626
37949SOL    HW119167   9.867   0.224   7.496  1.1669  0.2919  0.6656
37949SOL    HW219168   9.881   0.148   7.626 -0.6882 -1.2701 -0.0065
37950SOL     OW19169   9.449   4.770   1.813 -0.3992 -0.1848  0.0558
37950SOL    HW119170   9.523   4.710   1.805  0.0389  0.2239  0.9178
37950SOL    HW219171   9.472   4.826   1.887 -0.7094  1.1640 -0.8348
37951SOL     OW19172   1.283   2.819   3.009  0.0420  0.3513  0.4607
37951SOL    HW119173   1.295   2.736   2.962 -1.1185 -0.1081  0.9344
37951SOL    HW219174   1.248   2.879   2.943 -2.7391 -0.6203  0.8818
37952SOL     OW19175   5.705   4.081   1.896  0.2599  0.3965 -0.5131
37952SOL    HW119176   5.708   4.165   1.849  0.7290  0.3724 -0.5389
37952SOL    HW219177   5.797   4.065   1.921  0.0484  0.3079  0.2303
37953SOL     OW19178   1.335   4.414   4.446  0.1239 -0.2931  0.5613
37953SOL    HW119179   1.295   4.341   4.399  1.2456 -0.4445 -0.1702
37953SOL    HW219180   1.265   4.446   4.503 -0.0750 -2.6924  1.8132
37954SOL     OW19181   8.663   2.863   7.551 -0.6906  0.2853  0.1487
37954SOL    HW119182   8.643   2.796   7.485 -2.6228  2.4621 -1.6425
37954SOL    HW219183   8.614   2.835   7.629 -0.2091 -1.1559 -0.0397
37955SOL     OW19184   3.055  11.217   4.316  0.1659 -0.0901 -0.5453
37955SOL    HW119185   3.012  11.142   4.358 -0.6671  0.6432 -0.0546
37955SOL    HW219186   3.076  11.276   4.388 -0.6100  0.8559 -1.0797
37956SOL     OW19187   1.287   7.613   4.937  0.8861  0.1693  0.0039
37956SOL    HW119188   1.214   7.666   4.970 -0.7170 -0.0506 -2.8889
37956SOL    HW219189   1.247   7.530   4.913  2.2294 -0.1903 -1.0612
37957SOL     OW19190   1.100   1.348   8.951 -0.2922 -0.2128 -0.4980
37957SOL    HW119191   1.119   1.254   8.939 -0.0865 -0.6075  2.3660
37957SOL    HW219192   1.184   1.391   8.934 -0.5863 -0.3762 -2.7085
37958SOL     OW19193   6.928   8.725   8.742  0.1268 -0.0974  0.4640
37958SOL    HW119194   6.954   8.719   8.834 -0.0613 -2.5199  0.4218
37958SOL    HW219195   7.010   8.714   8.693  0.3750  2.1191  0.2759
37959SOL     OW19196   9.983   5.236   4.102  0.7339 -0.1195  0.0710
37959SOL    HW119197  10.012   5.295   4.171  0.2261 -1.2276  1.2749
37959SOL    HW219198  10.017   5.275   4.021  0.3092  1.8469  0.7989
37960SOL     OW19199   4.153   9.926   0.078  0.3672  0.0445  0.1491
37960SOL    HW119200   4.113   9.988   0.017  1.0122 -0.5113 -0.8750
37960SOL    HW219201   4.091   9.853   0.081  1.1500 -0.7161 -1.2593
37961SOL     OW19202   8.345   0.811   6.171  0.4971 -0.6285  0.0129
37961SOL    HW119203   8.254   0.784   6.174  0.4307 -0.3753  0.4766
37961SOL    HW219204   8.370   0.804   6.079  0.2383 -1.4301 -0.0005
37962SOL     OW19205  11.577   5.178   6.007  0.1838  0.6912  0.3936
37962SOL    HW119206  11.643   5.109   6.022 -1.3284 -0.5757  1.6009
37962SOL    HW219207  11.602   5.248   6.067  1.5539  1.1013 -0.6048
37963SOL     OW19208  10.023   4.865   3.099  0.3268 -0.0897  0.0532
37963SOL    HW119209  10.072   4.937   3.139  0.5794  0.8771 -1.9054
37963SOL    HW219210  10.082   4.790   3.107  1.3439  0.6150 -0.5463
37964SOL     OW19211   0.070   0.602   9.834  0.1546 -0.1077  0.1539
37964SOL    HW119212   0.005   0.622   9.901 -1.3367 -0.6427 -1.0664
37964SOL    HW219213   0.124   0.533   9.872  1.1464  1.5187  1.8508
37965SOL     OW19214   8.377   5.905   0.678 -0.3155  0.2119 -0.6138
37965SOL    HW119215   8.360   5.988   0.633  1.0383  0.6508 -0.3702
37965SOL    HW219216   8.302   5.850   0.656 -1.1639  1.4436 -0.9077
37966SOL     OW19217   1.371  11.538   1.727  0.2112 -0.0552 -0.4745
37966SOL    HW119218   1.417  11.459   1.700  1.3347  0.0798  0.9266
37966SOL    HW219219   1.336  11.517   1.813 -0.5653  0.5637 -0.6299
37967SOL     OW19220   4.911   7.515   4.759  0.0905  0.2224 -0.0903
37967SOL    HW119221   4.934   7.554   4.675 -0.9929  0.1812 -0.4199
37967SOL    HW219222   4.815   7.510   4.758  0.1213 -1.0537  0.5674
37968SOL     OW19223   1.179   9.089  10.989 -0.3938 -0.3328 -0.1884
37968SOL    HW119224   1.098   9.038  10.996 -1.4244  1.4377  1.8643
37968SOL    HW219225   1.207   9.078  10.898 -2.6234 -1.4632 -0.7932
37969SOL     OW19226   9.500   5.473   6.333  0.1231  0.2591 -0.2843
37969SOL    HW119227   9.471   5.496   6.421  0.1829  1.7796 -0.6455
37969SOL    HW219228   9.421   5.483   6.279  0.5449  1.3058 -0.7315
37970SOL     OW19229   0.917   7.152   7.870 -0.4597  0.2293  0.0807
37970SOL    HW119230   0.907   7.123   7.780  0.2269 -2.3240  0.7467
37970SOL    HW219231   0.845   7.109   7.918 -0.9552  1.7191  0.7564
37971SOL     OW19232  11.224  10.445   8.967  0.8024 -0.4654 -0.1025
37971SOL    HW119233  11.179  10.382   9.023  0.8521 -0.5155 -0.1184
37971SOL    HW219234  11.250  10.516   9.026  1.2164 -0.7114  0.0132
37972SOL     OW19235   6.573   7.820   1.900  0.2188  0.3386  0.7334
37972SOL    HW119236   6.573   7.844   1.808 -1.0992  0.1020  0.6569
37972SOL    HW219237   6.518   7.885   1.942 -1.6828 -1.2401  0.8498
37973SOL     OW19238   6.286   5.662   4.817  0.3331 -0.1534 -0.1544
37973SOL    HW119239   6.307   5.571   4.838  0.1507 -0.0889  0.3279
37973SOL    HW219240   6.318   5.675   4.728 -2.0886 -1.4948 -1.3037
37974SOL     OW19241   2.184   4.064  10.487 -0.0600 -0.4455  0.0625
37974SOL    HW119242   2.243   4.123  10.535  0.3307  0.2320 -1.2168
37974SOL    HW219243   2.122   4.034  10.554  0.5558  0.3508  1.0294
37975SOL     OW19244   1.624   0.148   1.566  0.3036  0.0145  0.4786
37975SOL    HW119245   1.558   0.213   1.542 -1.7076 -1.8851  0.4776
37975SOL    HW219246   1.576   0.083   1.617  2.2213 -1.4320  0.5500
37976SOL     OW19247  11.677  10.634   4.366 -0.0169 -0.0336  0.5117
37976SOL    HW119248  11.674  10.719   4.322 -0.0806  0.3705  1.2820
37976SOL    HW219249  11.606  10.637   4.430  0.8382 -0.1379  1.4888
37977SOL     OW19250   2.808   1.399   9.262  0.0711 -0.0779  0.2173
37977SOL    HW119251   2.774   1.389   9.350  0.1429  0.4553  0.3089
37977SOL    HW219252   2.890   1.350   9.262  0.2503  0.2259  0.5488
37978SOL     OW19253   9.025   3.307   2.501  0.3779  0.1203  0.5208
37978SOL    HW119254   9.093   3.279   2.440  2.3704  1.0244  2.1841
37978SOL    HW219255   9.063   3.384   2.545 -1.8981  0.9062  1.2643
37979SOL     OW19256   6.217   1.944   5.510  0.5649 -0.1000 -0.5373
37979SOL    HW119257   6.138   1.923   5.559  0.4904 -0.8604 -0.9715
37979SOL    HW219258   6.284   1.886   5.546  0.6237 -0.3239 -1.0008
37980SOL     OW19259   5.589   6.139   6.123  0.5599 -0.6738 -0.0936
37980SOL    HW119260   5.629   6.088   6.193 -0.0739 -0.5825  0.3346
37980SOL    HW219261   5.571   6.224   6.162 -1.2975 -1.1418  0.1327
37981SOL     OW19262   8.445   4.705  11.168  0.2152 -0.0095 -0.2276
37981SOL    HW119263   8.391   4.667  11.098 -0.9137  1.3730 -0.1750
37981SOL    HW219264   8.390   4.775  11.204  2.0630  1.4968 -0.1770
37982SOL     OW19265   5.089   7.384   1.966 -0.4838 -0.2206  0.1028
37982SOL    HW119266   5.170   7.435   1.971 -0.5274 -0.2053  0.6948
37982SOL    HW219267   5.118   7.293   1.957 -0.4007 -0.2261  0.4328
37983SOL     OW19268   0.286   1.323   2.136 -0.6891  0.2810  0.0360
37983SOL    HW119269   0.211   1.272   2.168  0.9815 -0.9063  2.3980
37983SOL    HW219270   0.357   1.259   2.131  0.8330  1.8830  0.4989
37984SOL     OW19271   8.871   3.568   4.939 -0.4085  0.1786  0.6682
37984SOL    HW119272   8.819   3.499   4.981 -2.0130  0.7769 -0.2766
37984SOL    HW219273   8.850   3.647   4.988 -0.5239  0.4538  0.1825
37985SOL     OW19274   0.191   4.680   7.888  0.0529 -0.0391  0.7524
37985SOL    HW119275   0.170   4.674   7.794 -0.4469 -3.0203  0.9506
37985SOL    HW219276   0.286   4.672   7.892 -0.0492 -1.7011  0.5330
37986SOL     OW19277  11.652   6.626   2.729 -0.0306  0.0267 -0.2314
37986SOL    HW119278  11.652   6.664   2.817  0.4941  1.1762 -0.7062
37986SOL    HW219279  11.613   6.539   2.741 -2.2171  1.0663  0.7363
37987SOL     OW19280  10.885   2.140   6.387  0.2321  0.0226  0.1525
37987SOL    HW119281  10.801   2.139   6.342  0.0863 -0.2043  0.4308
37987SOL    HW219282  10.871   2.091   6.468  0.4753  0.4849  0.4842
37988SOL     OW19283   1.741   1.158   9.691 -0.2799 -0.0357 -0.2692
37988SOL    HW119284   1.818   1.117   9.653 -0.7837 -0.5556 -0.7552
37988SOL    HW219285   1.729   1.114   9.775  1.0722  1.3946  0.7255
37989SOL     OW19286   9.194  10.100   6.282 -0.1172  0.9044  0.5249
37989SOL    HW119287   9.140  10.086   6.204  1.1026 -0.4992 -0.1076
37989SOL    HW219288   9.198  10.195   6.291 -0.5749  1.0917 -0.9232
37990SOL     OW19289   0.050  10.756   5.697 -0.0294 -0.0172 -0.4395
37990SOL    HW119290   0.016  10.845   5.705 -0.8008 -0.4548  1.8299
37990SOL    HW219291   0.144  10.765   5.712 -0.3715  0.2363  1.9629
37991SOL     OW19292   3.934   9.312   0.957 -0.3305 -0.1039 -0.2956
37991SOL    HW119293   3.936   9.248   0.886 -3.1797 -0.9502  0.2547
37991SOL    HW219294   3.928   9.397   0.913  0.4178 -0.4152 -1.0298
37992SOL     OW19295   2.955   8.863   4.108  0.2968 -0.2470 -0.0747
37992SOL    HW119296   2.972   8.953   4.080  0.7568 -0.2058  0.3204
37992SOL    HW219297   2.992   8.858   4.196  0.9473 -1.0308 -0.3761
37993SOL     OW19298   7.791   2.309   6.285 -0.3759 -0.3046 -0.8982
37993SOL    HW119299   7.734   2.236   6.261  1.5196 -1.5756 -1.7966
37993SOL    HW219300   7.860   2.309   6.219  0.1897  1.7525 -0.3850
37994SOL     OW19301   0.849   5.893   6.409  0.4798 -0.1841 -0.1682
37994SOL    HW119302   0.836   5.858   6.321 -1.4826  3.3486 -1.5214
37994SOL    HW219303   0.779   5.853   6.461 -0.4183  0.1092 -1.1144
37995SOL     OW19304   1.392  11.329   3.622 -0.2098  0.0513  0.0137
37995SOL    HW119305   1.354  11.252   3.664 -1.2781  0.2739 -0.5265
37995SOL    HW219306   1.470  11.295   3.577  0.3613 -0.3741  1.2598
37996SOL     OW19307  11.388   5.289   4.549  0.0455 -0.5121  0.2897
37996SOL    HW119308  11.425   5.321   4.632 -0.9414  0.0877  0.5144
37996SOL    HW219309  11.425   5.201   4.539  0.2989 -0.5324  1.2902
37997SOL     OW19310   1.329   0.813   8.202  0.0202  0.2763  0.4453
37997SOL    HW119311   1.350   0.825   8.295  1.0877 -0.7395  0.3609
37997SOL    HW219312   1.248   0.862   8.189 -2.0465 -2.2048  2.7131
37998SOL     OW19313   5.049   9.935   8.289 -0.2843  0.2710  0.0084
37998SOL    HW119314   5.122   9.873   8.283 -1.5701 -1.3705  0.5840
37998SOL    HW219315   5.048   9.962   8.381  0.1963  1.0648 -0.2147
37999SOL     OW19316   7.302   0.137   8.386  0.3634  0.5221  0.1036
37999SOL    HW119317   7.321   0.229   8.403  0.1747  0.5902 -0.0467
37999SOL    HW219318   7.387   0.094   8.388  0.5593  0.8451 -0.7497
38000SOL     OW19319   8.605   7.171  10.833  0.3693 -0.0586  0.3613
38000SOL    HW119320   8.517   7.204  10.847  1.5819  2.2117  4.5315
38000SOL    HW219321   8.633   7.210  10.750 -2.5744 -1.3254 -1.3785
38001SOL     OW19322   9.236   3.021   3.475  0.0763  0.5827 -0.4458
38001SOL    HW119323   9.222   2.932   3.508  0.7394  0.5668 -0.1916
38001SOL    HW219324   9.161   3.038   3.418  0.8047 -0.7887 -1.8933
38002SOL     OW19325   9.689   8.047   4.105 -0.2570 -0.2996  0.0858
38002SOL    HW119326   9.646   8.044   4.191 -1.4161  0.1629 -0.4478
38002SOL    HW219327   9.663   7.966   4.062 -1.0291  0.1927 -0.4168
38003SOL     OW19328   6.327   0.295   2.834 -0.3122 -0.4316 -0.4507
38003SOL    HW119329   6.307   0.278   2.741 -4.1518 -0.6217  0.2183
38003SOL    HW219330   6.284   0.378   2.852  0.7033 -0.2203  1.0872
38004SOL     OW19331   9.044   6.426   9.026 -0.6741  0.3677 -0.2056
38004SOL    HW119332   9.068   6.374   8.949 -2.5880  1.2864 -1.5114
38004SOL    HW219333   9.123   6.474   9.048  0.2702 -0.8352 -0.8295
38005SOL     OW19334   3.536   9.896   4.833 -0.1462  0.1605 -0.0747
38005SOL    HW119335   3.472   9.931   4.896 -0.7435  0.2615 -0.7278
38005SOL    HW219336   3.547   9.967   4.769  1.3460  0.5224  0.5325
38006SOL     OW19337   7.373   1.654   9.222  0.5225 -0.1847 -0.3453
38006SOL    HW119338   7.337   1.570   9.250  1.7810 -0.4899  0.4026
38006SOL    HW219339   7.297   1.701   9.185 -0.0162 -1.9764 -1.6583
38007SOL     OW19340   4.666   9.015  10.826  0.3431 -0.1085  0.3830
38007SOL    HW119341   4.735   8.951  10.842  0.4872  0.3052  1.5389
38007SOL    HW219342   4.698   9.096  10.867  0.1783  0.7324 -1.0526
38008SOL     OW19343   3.499   7.809  10.716 -0.2168 -0.1863  0.0578
38008SOL    HW119344   3.512   7.722  10.752  1.5602  0.0112  0.0045
38008SOL    HW219345   3.561   7.864  10.764 -1.0819  0.9874 -0.1277
38009SOL     OW19346  11.600   7.171   2.690  0.1372 -0.2129 -0.1769
38009SOL    HW119347  11.682   7.133   2.721  1.5395  3.1383  0.7348
38009SOL    HW219348  11.612   7.179   2.596 -0.5178 -2.5049 -0.5213
38010SOL     OW19349  10.803   6.982   1.412 -0.0436  0.3960  0.4071
38010SOL    HW119350  10.886   7.023   1.434 -1.2186  1.8281  2.5005
38010SOL    HW219351  10.774   7.028   1.333 -0.1279  1.8541  1.2644
38011SOL     OW19352   5.624  11.414   7.196  0.2472 -0.1017 -0.0732
38011SOL    HW119353   5.706  11.435   7.241  0.2223  0.3332 -0.2330
38011SOL    HW219354   5.646  11.337   7.143  0.5904  0.1038 -0.2328
38012SOL     OW19355   5.446   2.894   9.999  0.0692 -0.6146  0.0826
38012SOL    HW119356   5.518   2.885   9.937 -0.0394 -0.2409 -0.0998
38012SOL    HW219357   5.398   2.811   9.994  0.0946 -0.6066 -0.2853
38013SOL     OW19358   9.812   0.741   2.976 -0.1737  0.0453  0.8180
38013SOL    HW119359   9.800   0.778   3.064 -0.2050  0.8549  0.4791
38013SOL    HW219360   9.894   0.691   2.983 -0.4069 -0.2698  1.4236
38014SOL     OW19361   8.666   5.974   0.088 -0.3824  0.2308  0.1503
38014SOL    HW119362   8.689   6.048   0.032  0.9551  0.3745  0.8512
38014SOL    HW219363   8.714   5.990   0.169  1.5721 -2.4023 -0.3777
38015SOL     OW19364   2.863   6.778   0.697  0.2536  0.1037 -0.6035
38015SOL    HW119365   2.928   6.823   0.644  0.0704  0.7898 -0.2653
38015SOL    HW219366   2.832   6.845   0.759 -0.6995 -0.2339 -0.6928
38016SOL     OW19367   9.812   5.773   8.557  0.9077 -0.0680 -0.0793
38016SOL    HW119368   9.766   5.689   8.570 -0.2378  0.2142 -1.8477
38016SOL    HW219369   9.742   5.835   8.538  1.6647  1.5478  2.1436
38017SOL     OW19370   2.023   0.476  11.430 -0.1530  0.3114  0.1146
38017SOL    HW119371   2.052   0.480  11.338  1.1327 -0.3628  0.4646
38017SOL    HW219372   2.059   0.393  11.462 -0.1334  0.7998  1.3844
38018SOL     OW19373   2.665   0.863   7.515 -0.4746 -0.0136 -0.3721
38018SOL    HW119374   2.674   0.773   7.545 -1.1906 -0.1347 -0.5140
38018SOL    HW219375   2.681   0.916   7.592  0.5238 -0.2391 -0.4108
38019SOL     OW19376   0.814   5.568   8.214 -0.5467 -0.5326  0.6548
38019SOL    HW119377   0.825   5.487   8.165 -1.9390 -0.8305  0.7956
38019SOL    HW219378   0.721   5.588   8.206 -0.4632  0.3555  1.7277
38020SOL     OW19379   4.168   8.240   2.388  0.1626 -0.2149  0.2609
38020SOL    HW119380   4.156   8.328   2.352  1.9271  0.5387  1.3766
38020SOL    HW219381   4.154   8.181   2.313  0.7472  1.1251 -0.9462
38021SOL     OW19382   5.819   6.840   3.841  0.1525 -0.2362 -0.3340
38021SOL    HW119383   5.802   6.853   3.935  3.5069 -0.4336  0.4417
38021SOL    HW219384   5.763   6.766   3.817 -2.0275  0.8677  1.0409
38022SOL     OW19385  10.621   5.286   4.926 -0.0778  0.0050 -0.2901
38022SOL    HW119386  10.601   5.332   5.007  0.3949  0.4560 -0.4202
38022SOL    HW219387  10.548   5.226   4.913 -0.9529  1.0564 -0.3651
38023SOL     OW19388   6.794  11.045  11.371 -0.3237 -0.2876 -0.1703
38023SOL    HW119389   6.742  11.052  11.451  0.4520 -0.6094  0.3758
38023SOL    HW219390   6.830  11.132  11.357 -0.0966 -0.3371  0.0913
38024SOL     OW19391   6.525   4.770  10.393 -0.2486  0.4367 -0.8008
38024SOL    HW119392   6.461   4.704  10.419  0.4383  0.6181  1.5367
38024SOL    HW219393   6.517   4.839  10.458  1.1158  1.2835 -1.4764
38025SOL     OW19394   1.988   1.403   5.334 -0.2106 -0.3941 -0.0855
38025SOL    HW119395   2.067   1.368   5.294  1.2945 -0.0939  2.4616
38025SOL    HW219396   1.954   1.464   5.268  2.1159  0.0715 -0.9498
38026SOL     OW19397   6.762   0.386   7.339  0.0273  0.3052  0.2069
38026SOL    HW119398   6.787   0.465   7.292  0.9579  0.2085  0.5184
38026SOL    HW219399   6.834   0.325   7.323  0.4761  0.3350  1.9138
38027SOL     OW19400   6.639  11.151   4.598  0.0216  0.0957 -0.2544
38027SOL    HW119401   6.570  11.166   4.663 -0.0339  0.7266 -0.4509
38027SOL    HW219402   6.711  11.111   4.647  0.4574  1.6916  0.4637
38028SOL     OW19403   1.002   4.110  10.564 -0.2009  0.4847  0.2986
38028SOL    HW119404   1.084   4.135  10.522 -0.1689  2.0575  1.2145
38028SOL    HW219405   1.029   4.064  10.644 -0.2416 -0.3257 -0.1434
38029SOL     OW19406   9.067   9.218  11.145  0.0081  0.0506 -0.0935
38029SOL    HW119407   9.091   9.169  11.066  2.3949 -1.6518  1.5337
38029SOL    HW219408   9.138   9.280  11.158 -0.8181  0.9521  0.2466
38030SOL     OW19409   4.530   7.075   6.767  0.7416  0.0711  0.1754
38030SOL    HW119410   4.580   7.109   6.692 -1.2265 -0.2384 -1.3483
38030SOL    HW219411   4.567   7.121   6.843  2.9264  0.2524 -0.9193
38031SOL     OW19412   2.047   5.508   3.434 -0.0126  0.1729 -0.3793
38031SOL    HW119413   2.008   5.561   3.365  1.1716  0.2242 -1.0393
38031SOL    HW219414   2.029   5.418   3.408  1.3325  0.1575 -1.3406
38032SOL     OW19415   5.117   6.683  11.538 -0.2117 -0.0651  0.1070
38032SOL    HW119416   5.099   6.625  11.464  0.8501  0.2300 -0.4051
38032SOL    HW219417   5.154   6.626  11.605  1.0283  0.0015 -0.4723
38033SOL     OW19418   2.333   6.143   4.775 -0.3614  0.6981 -0.5979
38033SOL    HW119419   2.281   6.102   4.706 -0.1054  0.2195 -0.5153
38033SOL    HW219420   2.375   6.069   4.820 -1.4887  0.8983  0.8526
38034SOL     OW19421   5.803   1.779   9.277  0.1909 -0.4069 -0.3895
38034SOL    HW119422   5.774   1.826   9.355 -1.1080 -0.6389 -0.7057
38034SOL    HW219423   5.859   1.709   9.310 -0.5532 -0.6584  0.3685
38035SOL     OW19424   5.371  10.886   2.176 -0.2284  0.2242  0.3889
38035SOL    HW119425   5.318  10.964   2.196  0.5226  0.9480 -0.3993
38035SOL    HW219426   5.353  10.868   2.084 -0.4542 -0.5974  0.5868
38036SOL     OW19427   8.497   7.973   4.840 -0.1305  0.2552  0.0050
38036SOL    HW119428   8.513   7.997   4.749  1.4781 -0.0795  0.1826
38036SOL    HW219429   8.556   8.028   4.890 -1.9595  1.4271  0.9936
38037SOL     OW19430   3.694   8.717   9.080 -0.0788 -0.2642 -0.6572
38037SOL    HW119431   3.729   8.634   9.047 -0.3585 -1.7529  2.4833
38037SOL    HW219432   3.771   8.774   9.087  0.7905 -1.5266  0.5729
38038SOL     OW19433   5.529   3.575   7.281 -0.1613 -0.0861 -0.6296
38038SOL    HW119434   5.532   3.525   7.363  1.3638 -0.0568 -0.6436
38038SOL    HW219435   5.454   3.539   7.234 -0.1155 -1.1826  0.1014
38039SOL     OW19436   9.022   0.763   2.212  0.1806 -0.2184 -0.5788
38039SOL    HW119437   9.015   0.853   2.242  0.7473 -0.2875 -0.2285
38039SOL    HW219438   9.050   0.770   2.121  1.9024 -0.0416 -0.0800
38040SOL     OW19439   0.077   7.100   9.875  0.1503  0.3558 -0.0918
38040SOL    HW119440   0.133   7.076   9.949 -3.3691 -0.7058  2.5315
38040SOL    HW219441   0.098   7.192   9.858  1.3694  0.5373  2.0203
38041SOL     OW19442   9.714  10.821   4.844  0.0578 -0.1817  0.5008
38041SOL    HW119443   9.630  10.830   4.798 -0.1094  0.4017  0.8963
38041SOL    HW219444   9.698  10.753   4.909  1.2846 -3.5421 -2.4145
38042SOL     OW19445   1.329   0.585   5.523 -0.2734  0.6763 -0.0066
38042SOL    HW119446   1.287   0.587   5.609 -0.2470  0.3368  0.0143
38042SOL    HW219447   1.419   0.613   5.540  0.0952 -0.6271  0.2895
38043SOL     OW19448   7.526   8.981   5.221 -0.5201 -0.2992 -0.3053
38043SOL    HW119449   7.518   8.983   5.125  0.3231  0.0139 -0.3856
38043SOL    HW219450   7.466   8.913   5.249 -2.1565  0.8366 -0.8985
38044SOL     OW19451   7.107   8.625   1.462 -0.0677 -0.2865  0.4048
38044SOL    HW119452   7.092   8.614   1.556  0.9150 -0.9144  0.5128
38044SOL    HW219453   7.154   8.708   1.454 -4.2753  2.3030 -0.0473
38045SOL     OW19454  11.613   6.866   8.439  0.4342  0.5555  0.4094
38045SOL    HW119455  11.667   6.887   8.363  1.0567  0.1124  0.7228
38045SOL    HW219456  11.676   6.847   8.509 -0.0797 -2.1753  0.2126
38046SOL     OW19457  11.148   7.113   7.526  0.0070 -0.1088 -0.4371
38046SOL    HW119458  11.120   7.163   7.603  2.3743  0.6195  0.0422
38046SOL    HW219459  11.179   7.179   7.465 -1.0071 -0.7490 -1.6870
38047SOL     OW19460   5.170   9.629   2.819  0.1579  0.5919  0.3158
38047SOL    HW119461   5.078   9.602   2.815  0.0145  0.4525  2.7988
38047SOL    HW219462   5.184   9.678   2.738 -2.0002  0.3468 -0.2804
38048SOL     OW19463   3.958   0.567   6.455 -0.5274  0.1783 -0.5048
38048SOL    HW119464   3.986   0.563   6.547  1.3908  0.4241 -1.0221
38048SOL    HW219465   4.000   0.491   6.415 -2.3065 -0.5989 -0.9823
38049SOL     OW19466  10.355  11.803  10.380 -0.0546  0.2316 -0.2807
38049SOL    HW119467  10.370  11.806  10.286 -1.3315 -0.2922 -0.5287
38049SOL    HW219468  10.408  11.875  10.416  2.3368 -1.0382 -1.0913
38050SOL     OW19469   6.843   9.400   0.395 -0.2433  0.3375  0.1522
38050SOL    HW119470   6.855   9.464   0.325  0.8487  2.0844  1.8507
38050SOL    HW219471   6.901   9.327   0.370  2.0620  1.9886  0.3761
38051SOL     OW19472   5.258   6.945   6.606 -0.0386 -0.7097  0.1527
38051SOL    HW119473   5.250   7.001   6.529 -0.5167  0.2920  0.9147
38051SOL    HW219474   5.203   6.869   6.587 -1.5698  0.3402  0.2080
38052SOL     OW19475  10.134  11.395   9.937 -0.0765  0.2656  0.1852
38052SOL    HW119476  10.134  11.442   9.853 -2.1863 -0.0159 -0.0087
38052SOL    HW219477  10.089  11.454   9.997  0.6462  0.0872  0.9167
38053SOL     OW19478   2.280   6.323   2.188  0.0540 -0.1359 -0.4272
38053SOL    HW119479   2.369   6.329   2.222  0.8478 -0.3667 -2.3332
38053SOL    HW219480   2.278   6.241   2.139 -1.2404 -0.1735 -0.3569
38054SOL     OW19481   7.718   3.281  10.244 -0.7015  0.4508 -0.1414
38054SOL    HW119482   7.791   3.327  10.286  2.3185 -2.0075 -2.2749
38054SOL    HW219483   7.728   3.301  10.150 -1.6095 -1.4251 -0.6901
38055SOL     OW19484   9.491   4.578   3.101  0.2860  0.2912 -0.2160
38055SOL    HW119485   9.505   4.673   3.101  0.0328  0.3602 -1.8358
38055SOL    HW219486   9.419   4.565   3.163 -0.3364  1.2949 -0.6796
38056SOL     OW19487   2.572   1.124   5.612  0.2952 -0.2722 -0.4241
38056SOL    HW119488   2.622   1.077   5.545  2.3005  1.5444 -0.2880
38056SOL    HW219489   2.594   1.079   5.694  0.3754 -0.5120 -0.5767
38057SOL     OW19490   2.870   4.938   4.544  0.1394 -0.6058 -0.0734
38057SOL    HW119491   2.878   4.884   4.623 -0.1272 -1.1492 -0.4107
38057SOL    HW219492   2.953   4.986   4.539  0.0309 -0.3215  0.7104
38058SOL     OW19493   4.564   9.997   3.527  0.4523  0.6270  0.5848
38058SOL    HW119494   4.571  10.072   3.467 -0.3969 -0.9844 -1.6686
38058SOL    HW219495   4.473   9.998   3.557 -0.2890 -0.8320 -1.4234
38059SOL     OW19496   6.129  11.810   6.594 -0.2890 -0.3447 -0.2276
38059SOL    HW119497   6.166  11.783   6.510  2.6454  1.7626  0.2161
38059SOL    HW219498   6.042  11.842   6.572 -0.8934 -2.8438 -1.8654
38060SOL     OW19499   9.697   3.546   2.657  0.5074  0.0113  0.0274
38060SOL    HW119500   9.688   3.607   2.584 -0.6655 -0.8790 -0.6027
38060SOL    HW219501   9.620   3.561   2.711  1.1944  0.4204  0.9285
38061SOL     OW19502   0.953   3.291   5.622 -0.2188 -0.1165  0.4535
38061SOL    HW119503   1.027   3.352   5.615 -0.2572  0.5723  4.1623
38061SOL    HW219504   0.877   3.347   5.640 -1.1494 -1.0247 -0.4913
38062SOL     OW19505   3.739   1.119   3.647  0.3096  0.0956 -0.3124
38062SOL    HW119506   3.653   1.095   3.614 -0.5798  1.4851  0.8822
38062SOL    HW219507   3.756   1.057   3.718  0.1986 -0.0628 -0.4252
38063SOL     OW19508   5.168   3.442  10.351 -0.2128 -0.3541  0.1433
38063SOL    HW119509   5.088   3.465  10.398  1.0826  0.6728  1.9874
38063SOL    HW219510   5.238   3.484  10.402  1.4853 -1.0916 -1.4836
38064SOL     OW19511   7.092   3.031   0.474  0.1212  0.9202 -0.0197
38064SOL    HW119512   7.009   3.021   0.520 -0.7729  0.7578 -1.6063
38064SOL    HW219513   7.154   3.056   0.543 -1.0422  0.2463  1.3371
38065SOL     OW19514   4.172  10.754   9.050 -0.3833 -0.1482  0.3875
38065SOL    HW119515   4.194  10.840   9.086 -1.7943  1.0149 -1.3217
38065SOL    HW219516   4.106  10.773   8.983 -0.4200 -2.5417 -0.3383
38066SOL     OW19517   5.244  10.825   2.956  0.1703  0.2218  0.4031
38066SOL    HW119518   5.332  10.825   2.920  0.2328  1.7811  0.4828
38066SOL    HW219519   5.188  10.797   2.884  0.7619 -1.3084  0.5080
38067SOL     OW19520   8.983   3.668   2.988  0.5846  0.9151  0.6527
38067SOL    HW119521   8.985   3.691   2.895 -0.7142  0.0704  0.3975
38067SOL    HW219522   9.003   3.575   2.990 -0.7345  0.6298  1.0911
38068SOL     OW19523  11.259   2.665  10.160 -0.5135  0.2088  0.2536
38068SOL    HW119524  11.206   2.733  10.200  1.4639  0.7700  2.0549
38068SOL    HW219525  11.338   2.709  10.130 -0.4428 -0.8230 -1.2343
38069SOL     OW19526   6.072   7.888   0.806  0.1127 -0.3720 -0.1515
38069SOL    HW119527   6.089   7.976   0.774 -0.2581 -0.3636 -0.3364
38069SOL    HW219528   6.057   7.836   0.727  2.0140 -0.9921 -0.1637
38070SOL     OW19529   9.597   4.764   7.344 -0.3083  0.3666  0.3712
38070SOL    HW119530   9.671   4.825   7.344  1.4239 -1.6141  1.0897
38070SOL    HW219531   9.534   4.803   7.404  1.3954  0.7556  1.9933
38071SOL     OW19532   6.829   0.053   7.085  0.3564 -0.0202 -0.3846
38071SOL    HW119533   6.738   0.082   7.077  0.2310 -0.8999 -3.2295
38071SOL    HW219534   6.876   0.105   7.020  0.9155 -2.8816 -2.4495
38072SOL     OW19535   9.787   6.191   1.570  0.1430  0.5296  0.3012
38072SOL    HW119536   9.823   6.114   1.526  2.1565  0.4939  1.8579
38072SOL    HW219537   9.781   6.258   1.502  1.4768 -0.0474 -0.3992
38073SOL     OW19538   7.620   1.346   1.865 -0.3782 -0.8542 -0.6339
38073SOL    HW119539   7.675   1.422   1.885 -0.9181 -0.9793  1.6388
38073SOL    HW219540   7.614   1.345   1.770  1.0461  0.9380 -0.8034
38074SOL     OW19541   6.135  10.768   2.085 -0.1407  0.2451 -0.4369
38074SOL    HW119542   6.120  10.751   1.992 -0.1726 -0.1780 -0.3515
38074SOL    HW219543   6.052  10.804   2.116  0.4170  2.1985 -0.9905
38075SOL     OW19544   5.254   6.738   7.218  0.3385 -0.0515  0.2984
38075SOL    HW119545   5.281   6.657   7.260  1.0673 -1.3195 -2.3989
38075SOL    HW219546   5.259   6.720   7.124 -1.5942  2.4465 -0.4062
38076SOL     OW19547   6.624   3.977   8.126 -0.4093  0.3844 -0.2860
38076SOL    HW119548   6.633   4.064   8.087 -0.6243  0.9817  0.9470
38076SOL    HW219549   6.531   3.969   8.147 -0.2536  0.2039  0.3640
38077SOL     OW19550   2.525  11.286   6.450  0.2019  0.3322  0.0096
38077SOL    HW119551   2.441  11.240   6.452 -0.0104  0.6514 -0.8923
38077SOL    HW219552   2.580  11.238   6.512  0.1578 -1.4704 -1.2694
38078SOL     OW19553   4.178   3.750   4.566 -0.0520  0.0662  0.0254
38078SOL    HW119554   4.169   3.655   4.561  0.3137 -0.1340  2.1804
38078SOL    HW219555   4.263   3.768   4.527 -0.3463 -0.4171 -0.8677
38079SOL     OW19556   0.469   3.116   6.501 -0.2723 -0.4596 -0.0404
38079SOL    HW119557   0.432   3.173   6.433  0.8655  0.0519 -0.2601
38079SOL    HW219558   0.415   3.132   6.578 -1.0332 -0.3849 -0.5851
38080SOL     OW19559   0.339   6.468   5.156 -0.0944  0.0549  0.2962
38080SOL    HW119560   0.261   6.415   5.168 -0.7145  1.1223  1.1356
38080SOL    HW219561   0.355   6.467   5.061  0.5976 -2.5290  0.3495
38081SOL     OW19562   2.665   1.799   3.796 -0.3011 -0.3225 -0.3159
38081SOL    HW119563   2.743   1.815   3.849  2.1968 -1.4281 -3.3291
38081SOL    HW219564   2.612   1.740   3.849  1.7364 -0.9359  1.1735
38082SOL     OW19565   3.177   4.212   1.238 -0.6669 -0.1431 -0.7269
38082SOL    HW119566   3.082   4.217   1.246 -0.6242 -1.7679  2.0545
38082SOL    HW219567   3.209   4.291   1.280 -0.7610  0.1725 -1.2406
38083SOL     OW19568   5.735   2.270   2.957 -0.6349 -0.2480  0.7301
38083SOL    HW119569   5.739   2.328   3.033  0.1051  2.3820 -1.1707
38083SOL    HW219570   5.827   2.258   2.932 -0.8881 -0.8797  0.0843
38084SOL     OW19571   8.616   8.774  11.094 -0.6347  0.0036  0.1993
38084SOL    HW119572   8.678   8.746  11.027 -0.7111 -1.0250  0.5346
38084SOL    HW219573   8.654   8.854  11.130 -1.4959  1.6512 -2.2811
38085SOL     OW19574   7.525  11.341   0.075 -0.0609 -0.0848 -0.1244
38085SOL    HW119575   7.564  11.366  -0.009 -2.9302 -0.8102 -1.8176
38085SOL    HW219576   7.572  11.261   0.100  1.6833  0.8310 -0.3393
38086SOL     OW19577   0.955   7.596   1.228  0.0312 -0.2136 -0.0852
38086SOL    HW119578   0.939   7.609   1.134  0.4149  0.1553 -0.1035
38086SOL    HW219579   0.999   7.512   1.233 -0.8015 -0.6574 -0.1487
38087SOL     OW19580  10.070   9.056   6.342  0.8360 -0.7067  0.7590
38087SOL    HW119581  10.014   8.980   6.329  0.7651 -0.4597 -0.4839
38087SOL    HW219582  10.121   9.062   6.261  3.0219 -1.2147  2.0251
38088SOL     OW19583   7.061   5.791   7.698 -0.0210  0.2430  0.6200
38088SOL    HW119584   7.011   5.851   7.644 -0.8668  0.3596  1.5164
38088SOL    HW219585   7.150   5.795   7.663 -0.8646 -1.0153 -1.9086
38089SOL     OW19586   2.894   8.784   9.762  0.2546  0.2804 -0.2423
38089SOL    HW119587   2.967   8.846   9.760  0.2665  0.4329  2.1797
38089SOL    HW219588   2.823   8.831   9.805 -0.1789 -0.9309  0.4284
38090SOL     OW19589   3.467   4.244   3.445  0.4210  0.2114 -0.5351
38090SOL    HW119590   3.561   4.234   3.461 -0.0480 -2.3551  1.2032
38090SOL    HW219591   3.453   4.210   3.357  0.9595 -0.5471 -0.3318
38091SOL     OW19592  11.175   9.173   6.116  0.3115  0.4234  0.0430
38091SOL    HW119593  11.199   9.146   6.205  0.2255 -1.3447 -0.4445
38091SOL    HW219594  11.237   9.127   6.060  0.0474  1.1446 -0.8673
38092SOL     OW19595   2.249   9.413   4.747  0.5340  0.1593  0.4211
38092SOL    HW119596   2.170   9.361   4.762 -0.5601  1.2459 -1.2772
38092SOL    HW219597   2.294   9.367   4.676  0.9067  0.1196  0.6809
38093SOL     OW19598   3.205  10.006   1.505  0.2019 -0.0239  0.5776
38093SOL    HW119599   3.252   9.937   1.552  1.3163  0.4704  0.2074
38093SOL    HW219600   3.271  10.073   1.487  0.0353 -0.5210 -2.3784
38094SOL     OW19601   8.875   4.531  10.557 -0.0476 -0.6128  0.2537
38094SOL    HW119602   8.946   4.541  10.494 -1.7853  1.6055 -1.4989
38094SOL    HW219603   8.919   4.530  10.642  2.1007  0.4156 -0.7714
38095SOL     OW19604   7.723  11.214   7.886 -0.0244 -0.8940 -0.4719
38095SOL    HW119605   7.736  11.305   7.914 -0.6375 -0.2706 -2.0641
38095SOL    HW219606   7.629  11.199   7.900  0.4375 -2.0529  1.8041
38096SOL     OW19607   8.259   4.579   1.615 -0.3423  0.5722 -0.6527
38096SOL    HW119608   8.254   4.633   1.537 -1.3925  0.3804 -0.7222
38096SOL    HW219609   8.314   4.505   1.588 -3.2472 -1.1782 -2.2764
38097SOL     OW19610   7.382   6.341   6.386 -0.2508  0.4888  0.0573
38097SOL    HW119611   7.375   6.313   6.478 -0.5359 -0.5648 -0.2668
38097SOL    HW219612   7.475   6.329   6.365 -0.1435  0.9417  0.2723
38098SOL     OW19613   4.589   0.480   3.597  0.0342  0.0894 -0.1867
38098SOL    HW119614   4.668   0.511   3.551  1.1780 -2.1815  0.0985
38098SOL    HW219615   4.622   0.450   3.682 -1.8184  2.8036  1.6389
38099SOL     OW19616   9.708  10.432   0.985  0.0997  0.2804 -0.1738
38099SOL    HW119617   9.642  10.363   0.985  1.0129 -0.6281 -0.6528
38099SOL    HW219618   9.726  10.448   0.893 -0.2378  1.3146 -0.0745
38100SOL     OW19619   1.557   2.033   4.536 -0.2593 -0.4539 -0.5689
38100SOL    HW119620   1.565   2.067   4.625  1.6465 -0.2217 -0.7912
38100SOL    HW219621   1.490   1.964   4.543 -2.9917  2.0825  0.2110
38101SOL     OW19622   8.973   4.438  11.455 -0.5665 -0.3346 -0.5793
38101SOL    HW119623   8.902   4.454  11.518  1.2016 -1.2348  1.8014
38101SOL    HW219624   9.048   4.413  11.509  1.8068  1.1865 -2.9177
38102SOL     OW19625  11.097   9.408   4.337  0.1247  0.0543  0.7349
38102SOL    HW119626  11.192   9.401   4.347  0.0622 -1.7533  0.3904
38102SOL    HW219627  11.068   9.318   4.323 -1.5819  0.6445  0.2733
38103SOL     OW19628   5.634   8.704  10.274  0.1817  0.4330  0.4413
38103SOL    HW119629   5.695   8.734  10.342  0.7695  0.7683 -0.2303
38103SOL    HW219630   5.611   8.782  10.225  1.9370 -0.1799 -1.4866
38104SOL     OW19631  10.011   2.948  11.487  0.5419 -0.2729 -0.5229
38104SOL    HW119632   9.999   2.968  11.580 -0.7423  0.7104 -0.8675
38104SOL    HW219633   9.992   2.855  11.481 -0.7943 -0.0637  0.0048
38105SOL     OW19634   1.283   3.481   9.691  1.0706  0.3632 -0.0552
38105SOL    HW119635   1.355   3.424   9.665  2.3251  1.8127  0.1046
38105SOL    HW219636   1.263   3.532   9.613  0.0166 -0.1767 -0.1692
38106SOL     OW19637   2.547   5.867   0.824 -0.4564  0.3816  0.0314
38106SOL    HW119638   2.579   5.818   0.900 -0.0431 -0.5232 -0.7151
38106SOL    HW219639   2.556   5.807   0.750 -1.1764  1.1276 -0.6887
38107SOL     OW19640  10.643   0.082  10.789 -0.0445 -0.1029 -0.7566
38107SOL    HW119641  10.585   0.080  10.865 -1.0429  1.6178 -1.4247
38107SOL    HW219642  10.690  -0.001  10.794 -0.9547 -0.5824  1.0471
38108SOL     OW19643   7.985   6.053   1.127 -0.0984  0.4170  0.2126
38108SOL    HW119644   8.035   5.995   1.070  0.5671 -0.0424  1.2297
38108SOL    HW219645   7.898   6.056   1.087  0.0032 -0.8525 -0.1680
38109SOL     OW19646   8.713   8.885   2.039  0.3793 -0.5210 -0.5410
38109SOL    HW119647   8.632   8.924   2.072  1.6058  0.4824  1.4476
38109SOL    HW219648   8.747   8.949   1.977  0.4076 -0.2604 -0.2545
38110SOL     OW19649   9.384   6.256   2.877 -0.8629 -0.0173  0.6057
38110SOL    HW119650   9.361   6.198   2.804  0.9550 -0.8316  0.6438
38110SOL    HW219651   9.342   6.216   2.953  0.5893 -1.5026  0.6833
38111SOL     OW19652   6.237   3.377   5.171 -0.5404  0.1729 -0.0389
38111SOL    HW119653   6.145   3.397   5.191 -0.9415 -2.4624  1.0567
38111SOL    HW219654   6.255   3.296   5.217  1.1410 -1.6402 -3.5121
38112SOL     OW19655   6.073   9.570   6.167  0.6158  0.0998  0.3420
38112SOL    HW119656   6.154   9.529   6.198  1.3508 -0.0962 -1.6831
38112SOL    HW219657   6.102   9.645   6.115 -0.6734  2.4452  2.7876
38113SOL     OW19658   0.570   7.579   1.243 -0.4375  0.3207 -0.0765
38113SOL    HW119659   0.531   7.610   1.325 -1.1005  1.0081 -0.6386
38113SOL    HW219660   0.503   7.595   1.177 -0.0733 -0.6102 -0.6957
38114SOL     OW19661   4.708   3.719   8.526 -0.4618  0.6350 -0.1507
38114SOL    HW119662   4.671   3.747   8.442 -0.3624  0.0705 -0.3926
38114SOL    HW219663   4.760   3.641   8.504 -0.1117  0.7157  0.3730
38115SOL     OW19664   7.185   9.480  10.988  0.6004  0.1402  0.2672
38115SOL    HW119665   7.158   9.557  10.937 -1.5401  0.2012  1.3731
38115SOL    HW219666   7.197   9.411  10.923  0.2207  0.7967 -0.5240
38116SOL     OW19667   3.773  10.249   4.265  0.3837 -0.5371  0.2608
38116SOL    HW119668   3.685  10.224   4.293  0.1402  0.5301  0.4883
38116SOL    HW219669   3.813  10.287   4.343  0.5093  0.3602 -0.2329
38117SOL     OW19670   7.397   1.971   5.164  0.2994 -0.4286  0.5329
38117SOL    HW119671   7.380   1.927   5.081 -0.2008 -0.8211  0.8374
38117SOL    HW219672   7.459   1.913   5.209  1.4343  0.3343 -0.0188
38118SOL     OW19673   6.737  11.169   2.945  0.1860  0.1234  0.2608
38118SOL    HW119674   6.698  11.238   2.891  0.1251  0.2626  0.4823
38118SOL    HW219675   6.673  11.155   3.015  0.6512  0.5432  0.7823
38119SOL     OW19676   6.850   2.923   1.037 -0.0356 -0.2752  0.0530
38119SOL    HW119677   6.805   3.001   1.068 -1.0155 -0.8329  0.0783
38119SOL    HW219678   6.907   2.898   1.110  0.6176  0.6596 -0.1271
38120SOL     OW19679   3.855   5.389   8.889 -0.0222  0.5138  0.3988
38120SOL    HW119680   3.792   5.403   8.819 -0.6486  3.0010  1.3662
38120SOL    HW219681   3.937   5.426   8.854  0.3864 -0.7295 -0.0169
38121SOL     OW19682   1.942   2.628   1.144  0.3021  0.1104 -0.2959
38121SOL    HW119683   1.940   2.572   1.066  1.6268 -0.0299 -0.2619
38121SOL    HW219684   1.864   2.604   1.193 -0.1120 -0.3965 -1.1796
38122SOL     OW19685   6.936   1.926   5.349 -0.1787  0.3300 -0.1394
38122SOL    HW119686   6.919   1.837   5.319 -1.6628  0.2043  0.9223
38122SOL    HW219687   6.976   1.916   5.436  0.7402  0.6979 -0.5122
38123SOL     OW19688  11.386   9.446   2.039  0.7726  0.2287 -0.7841
38123SOL    HW119689  11.437   9.365   2.048  0.2544 -0.1385 -1.0772
38123SOL    HW219690  11.408   9.497   2.117 -0.6491 -1.1948  0.6046
38124SOL     OW19691   6.661  11.092   6.646  0.0404  0.1696 -0.2901
38124SOL    HW119692   6.576  11.084   6.688 -0.3801  3.2352 -0.2957
38124SOL    HW219693   6.641  11.117   6.555  0.9688 -1.5233 -1.0086
38125SOL     OW19694   4.320   5.529   5.595 -0.2559 -0.1612  0.2060
38125SOL    HW119695   4.288   5.610   5.556 -1.4544 -0.1324  1.1716
38125SOL    HW219696   4.295   5.536   5.688 -0.7195 -1.7906  0.2304
38126SOL     OW19697   7.299  11.595   9.183  0.5382 -0.0577 -0.4825
38126SOL    HW119698   7.326  11.514   9.139  1.9415 -0.7716  1.5097
38126SOL    HW219699   7.356  11.662   9.146  2.4086 -0.8303  0.8268
38127SOL     OW19700   8.169  11.271   9.768 -0.4010  0.1496 -0.1115
38127SOL    HW119701   8.137  11.310   9.850 -1.4285 -0.4441 -0.2113
38127SOL    HW219702   8.164  11.177   9.783  0.6300  0.0378 -0.4119
38128SOL     OW19703   3.493   2.154   3.671 -0.3892  0.1854 -0.0922
38128SOL    HW119704   3.556   2.208   3.623 -0.2355  1.4238  1.4171
38128SOL    HW219705   3.408   2.193   3.650 -0.3571  0.4700  0.2857
38129SOL     OW19706   1.847   4.497   5.944  0.3214 -0.0309  0.3435
38129SOL    HW119707   1.934   4.513   5.908  0.6228 -1.0432  0.6004
38129SOL    HW219708   1.793   4.477   5.868  0.4374  0.0443  0.2411
38130SOL     OW19709   7.492   1.612   6.607  0.5338  0.5819 -0.5268
38130SOL    HW119710   7.552   1.635   6.537 -1.4188  1.9470 -1.8947
38130SOL    HW219711   7.451   1.696   6.631 -0.4411 -0.2053  0.6920
38131SOL     OW19712   0.318   6.643   2.642 -0.0707  0.2710  0.0480
38131SOL    HW119713   0.330   6.651   2.737 -1.8855 -2.5866  0.6328
38131SOL    HW219714   0.394   6.594   2.612 -0.5198 -0.6603  0.4063
38132SOL     OW19715  11.125   4.092  10.400 -0.5350  0.0319  0.4965
38132SOL    HW119716  11.172   4.026  10.350 -2.2111  0.0205 -1.1391
38132SOL    HW219717  11.061   4.043  10.451 -1.9094  0.3593 -0.8633
38133SOL     OW19718  10.148   0.695   5.874 -0.3773  0.5094  0.2111
38133SOL    HW119719  10.201   0.669   5.949 -0.0258  0.8160  0.0719
38133SOL    HW219720  10.058   0.689   5.906 -0.2657 -0.1449  0.4031
38134SOL     OW19721   1.523   8.961   5.919 -0.2061  0.0347  0.1998
38134SOL    HW119722   1.579   8.883   5.921  1.5028  1.2125  1.2280
38134SOL    HW219723   1.583   9.033   5.902 -1.6718  1.2127 -0.2244
38135SOL     OW19724   3.600   2.009   9.000 -0.5693 -0.8335  0.5430
38135SOL    HW119725   3.521   2.048   8.962 -0.3124  0.7927  1.5884
38135SOL    HW219726   3.672   2.065   8.969 -0.3106  0.3188  2.9739
38136SOL     OW19727   2.430   3.312   1.343  0.8537 -0.3780  0.3714
38136SOL    HW119728   2.350   3.284   1.387  0.9453 -1.1528  0.0612
38136SOL    HW219729   2.496   3.314   1.412  0.3583  1.2606  0.8347
38137SOL     OW19730   5.720   1.522   5.635 -0.3492  0.5847  0.3426
38137SOL    HW119731   5.652   1.546   5.698  0.8307  0.1852  1.8120
38137SOL    HW219732   5.727   1.427   5.642 -0.3995  0.5000 -0.6299
38138SOL     OW19733  11.272   0.416   7.125 -0.0326  0.2177  0.6019
38138SOL    HW119734  11.356   0.389   7.087  1.3494  1.0566  2.8597
38138SOL    HW219735  11.249   0.344   7.185 -0.5534  0.3338  0.5414
38139SOL     OW19736  10.170   2.214   9.174 -0.2707 -0.3203  0.3795
38139SOL    HW119737  10.203   2.195   9.262 -1.8629 -0.0573  1.0846
38139SOL    HW219738  10.246   2.246   9.126  0.2226  1.7578  2.3545
38140SOL     OW19739  10.257   4.732  10.578 -0.5426  0.1864 -0.7048
38140SOL    HW119740  10.203   4.804  10.609  0.4594  0.2536  1.0396
38140SOL    HW219741  10.311   4.709  10.654  2.0185  0.2832 -2.3855
38141SOL     OW19742   4.037   2.907   9.649 -0.1356 -0.4823 -0.2647
38141SOL    HW119743   4.096   2.955   9.707 -2.1225  2.8942 -0.7421
38141SOL    HW219744   3.955   2.902   9.698 -1.0504  0.0096 -1.6843
38142SOL     OW19745   7.868   5.370  11.338  0.4978 -0.2798  0.5313
38142SOL    HW119746   7.835   5.397  11.423 -1.3681  0.3542 -0.3348
38142SOL    HW219747   7.960   5.397  11.338  0.1370  1.1035  1.7780
38143SOL     OW19748   9.002   8.461   7.507  0.2255  0.2083 -0.2089
38143SOL    HW119749   8.943   8.500   7.443  0.2305  1.0154  0.2686
38143SOL    HW219750   9.090   8.485   7.476  0.1865  1.7177  0.7899
38144SOL     OW19751   6.074   7.649   7.108  0.3485 -0.5632 -0.2963
38144SOL    HW119752   6.053   7.724   7.163  0.3631 -0.2100 -0.7664
38144SOL    HW219753   5.990   7.626   7.066  0.7583  0.5687 -1.8305
38145SOL     OW19754   1.541   1.346   9.729 -0.0500 -0.0037  0.3164
38145SOL    HW119755   1.489   1.304   9.660 -2.2733  1.0519  1.2830
38145SOL    HW219756   1.622   1.294   9.731 -0.4537 -0.8990 -2.1409
38146SOL     OW19757   4.268   5.274   4.349 -0.0818 -0.1382  0.3091
38146SOL    HW119758   4.178   5.255   4.373 -0.9683  0.4866 -2.2062
38146SOL    HW219759   4.284   5.362   4.383 -0.0036 -0.6807  1.7279
38147SOL     OW19760   4.482  10.241   4.144  0.1733 -0.0246  0.2051
38147SOL    HW119761   4.548  10.306   4.119 -2.3807  2.4190 -0.6694
38147SOL    HW219762   4.512  10.208   4.228  2.9025  0.3336 -0.5209
38148SOL     OW19763   1.929   1.031   4.754 -0.3062  0.7490 -0.1151
38148SOL    HW119764   1.920   0.944   4.793  0.1999  1.2064  1.0432
38148SOL    HW219765   1.840   1.066   4.751 -0.4145  0.4931  0.0975
38149SOL     OW19766   6.359   8.026  10.662 -0.2292 -0.0808  0.4788
38149SOL    HW119767   6.284   8.071  10.623 -0.8421 -0.6174  1.0127
38149SOL    HW219768   6.385   7.961  10.597 -1.9188 -1.6988  1.3440
38150SOL     OW19769   8.334  10.326   1.956  0.1140 -0.4170  0.6136
38150SOL    HW119770   8.319  10.329   2.051  0.1092  3.0246  0.6595
38150SOL    HW219771   8.295  10.408   1.924  1.3402 -0.8176 -2.1586
38151SOL     OW19772   2.469   1.616  11.604  0.1733  0.8302  0.4551
38151SOL    HW119773   2.510   1.550  11.547 -3.0169 -0.9506 -0.0118
38151SOL    HW219774   2.469   1.576  11.691  0.3755  1.2908  0.6688
38152SOL     OW19775   3.678   6.200   1.846  0.5275 -0.2112  0.7251
38152SOL    HW119776   3.737   6.227   1.917  0.8819  1.1272 -0.0492
38152SOL    HW219777   3.717   6.237   1.767 -0.7033 -0.3609  0.0236
38153SOL     OW19778   3.278   6.899   1.123  0.1125  0.0785 -0.1170
38153SOL    HW119779   3.371   6.876   1.111  0.4902  1.9783 -1.1975
38153SOL    HW219780   3.242   6.898   1.034 -0.7253  0.1355  0.2153
38154SOL     OW19781   8.169   1.195   9.160 -0.0816  0.1008 -0.3251
38154SOL    HW119782   8.258   1.231   9.165  0.3092 -0.5529 -2.0369
38154SOL    HW219783   8.112   1.272   9.161  0.6069  0.6349 -1.0257
38155SOL     OW19784  10.736   0.645   9.876  0.0133 -0.5731  0.2581
38155SOL    HW119785  10.666   0.699   9.839 -2.0134 -2.6902  0.7536
38155SOL    HW219786  10.742   0.673   9.967  0.5833  0.3370 -0.0487
38156SOL     OW19787   8.544   4.070   3.270 -0.2838 -0.0808 -0.0603
38156SOL    HW119788   8.469   4.023   3.308  0.1565  0.3296  1.3876
38156SOL    HW219789   8.621   4.028   3.307  0.1604  0.6384 -0.1398
38157SOL     OW19790   5.457   6.586   6.067  0.4684  0.1106 -0.5990
38157SOL    HW119791   5.433   6.609   5.977  0.3353 -1.4643 -1.0061
38157SOL    HW219792   5.423   6.658   6.121 -0.8242  0.3264 -1.6556
38158SOL     OW19793   0.794   5.606   1.069  0.0726  0.1047 -0.3459
38158SOL    HW119794   0.870   5.664   1.076 -0.1870  0.4558 -0.3730
38158SOL    HW219795   0.732   5.641   1.133 -0.1838  0.0080 -0.5407
38159SOL     OW19796   2.095   9.087   0.632 -0.0297  0.0752  0.1693
38159SOL    HW119797   2.052   9.011   0.670  0.7607 -0.1384  0.6687
38159SOL    HW219798   2.173   9.052   0.589  0.4126  0.6132  0.5208
38160SOL     OW19799   8.153  11.615   9.442  0.3969  0.2631  0.1806
38160SOL    HW119800   8.118  11.583   9.359  1.6526 -0.1712 -0.2029
38160SOL    HW219801   8.099  11.573   9.509 -0.9350  0.9939 -0.4074
38161SOL     OW19802   1.366   1.870   5.053 -0.2569  0.8306 -0.6204
38161SOL    HW119803   1.292   1.917   5.092  0.7890  1.4882  0.6411
38161SOL    HW219804   1.439   1.931   5.060  0.9983 -0.7161  0.4458
38162SOL     OW19805   1.814   0.386  10.179 -0.3495  0.8216  0.2041
38162SOL    HW119806   1.803   0.297  10.213  0.6265  0.9081  0.7661
38162SOL    HW219807   1.728   0.408  10.142 -0.6235 -0.3146  0.1310
38163SOL     OW19808   2.930   4.665   7.109  0.2174  0.1132  0.0985
38163SOL    HW119809   2.871   4.737   7.091 -1.6337 -1.1621  0.7502
38163SOL    HW219810   2.937   4.617   7.027 -0.2273 -0.1344  0.2056
38164SOL     OW19811   4.733   0.042   7.854  0.1148  0.3966 -0.0568
38164SOL    HW119812   4.789   0.080   7.787  0.5013 -0.3351 -0.1657
38164SOL    HW219813   4.722  -0.049   7.826  1.2001 -0.2305  1.4527
38165SOL     OW19814   0.828   5.134   9.962 -0.3759 -0.4443  0.0667
38165SOL    HW119815   0.914   5.116   9.923  0.1762 -1.3729  1.6425
38165SOL    HW219816   0.792   5.048   9.982 -0.8673 -0.0191  1.0769
38166SOL     OW19817   4.638   7.317   5.916 -0.2646  0.6337  0.0824
38166SOL    HW119818   4.681   7.347   5.997  2.3986 -1.2628 -0.4818
38166SOL    HW219819   4.708   7.274   5.867 -2.3830 -0.5817 -2.0659
38167SOL     OW19820   8.087   3.829   0.637 -0.5670  0.4694 -0.3758
38167SOL    HW119821   8.148   3.860   0.704  0.7958  0.5576 -1.5895
38167SOL    HW219822   8.055   3.745   0.670  0.8712  0.0177 -0.0624
38168SOL     OW19823   6.184   0.449   8.589 -0.3362  1.2628  0.2971
38168SOL    HW119824   6.177   0.420   8.680  1.2364  0.9591  0.3480
38168SOL    HW219825   6.124   0.392   8.541  0.3010  0.0754  0.8757
38169SOL     OW19826   0.245   2.438   2.491 -0.6157 -0.1265 -0.1283
38169SOL    HW119827   0.260   2.374   2.421 -0.5379  0.6744 -0.8630
38169SOL    HW219828   0.271   2.392   2.571  2.2119 -0.0843 -0.9175
38170SOL     OW19829   5.923   5.707  10.384  0.4577 -0.3289 -0.2528
38170SOL    HW119830   5.953   5.774  10.323 -0.3717  0.5559  0.2877
38170SOL    HW219831   5.953   5.737  10.470  0.5165 -0.9072 -0.0676
38171SOL     OW19832   7.318   7.971   3.911 -0.2014  0.2726  0.0591
38171SOL    HW119833   7.347   7.883   3.887 -0.2115  0.1401  0.5370
38171SOL    HW219834   7.373   7.996   3.984  1.5152  1.6694 -1.6199
38172SOL     OW19835   7.639  11.432   3.688  1.1438 -0.1951  0.0449
38172SOL    HW119836   7.636  11.339   3.665 -1.8732 -1.2171  3.6370
38172SOL    HW219837   7.564  11.470   3.642 -1.6624 -1.1447  3.3921
38173SOL     OW19838   1.629  10.246   0.265 -0.1333  0.0160  0.1289
38173SOL    HW119839   1.680  10.220   0.343  0.1031  0.2133  0.0439
38173SOL    HW219840   1.556  10.185   0.263 -0.5311  0.4521  0.9133
38174SOL     OW19841   8.069   8.175   6.488 -0.8960  0.4288 -0.0348
38174SOL    HW119842   8.164   8.170   6.498 -0.9888  0.5806  1.0441
38174SOL    HW219843   8.044   8.092   6.449 -0.3707  0.1984  0.1174
38175SOL     OW19844  10.543   4.864  11.564 -0.2256 -0.6605  0.0230
38175SOL    HW119845  10.466   4.920  11.571  0.1000 -0.3229  1.2166
38175SOL    HW219846  10.574   4.855  11.654  1.0176 -0.9425 -0.4158
38176SOL     OW19847   2.561   3.572   2.072 -0.0722 -0.0966 -0.7300
38176SOL    HW119848   2.475   3.528   2.076 -0.5589  0.8877 -0.1155
38176SOL    HW219849   2.546   3.649   2.017 -0.3893  1.7701  1.8274
38177SOL     OW19850  10.118   0.998   2.916 -0.4547 -0.0353  0.2704
38177SOL    HW119851  10.125   1.087   2.950  1.3949 -0.4038  0.9827
38177SOL    HW219852  10.208   0.975   2.892 -0.9293 -1.6460 -0.0531
38178SOL     OW19853   7.655  11.106  11.516  0.0041  0.3542  0.0508
38178SOL    HW119854   7.585  11.044  11.496 -0.4153  0.8577 -0.0672
38178SOL    HW219855   7.724  11.084  11.454  0.0967 -0.3735  0.3935
38179SOL     OW19856   9.633  10.677  11.046  0.2916 -0.3860  0.0007
38179SOL    HW119857   9.569  10.627  10.996 -0.5973  0.1420  0.5699
38179SOL    HW219858   9.659  10.748  10.987  0.2480 -0.5182 -0.1797
38180SOL     OW19859   3.644   4.470   0.404  0.6057 -0.5869  0.6511
38180SOL    HW119860   3.557   4.507   0.419  0.2857 -1.5811  1.3600
38180SOL    HW219861   3.680   4.522   0.333 -0.6722 -0.3181  0.1711
38181SOL     OW19862   5.203  10.819   0.004  0.8666 -0.3241  0.1780
38181SOL    HW119863   5.216  10.910   0.029  0.4201 -0.7090  1.9269
38181SOL    HW219864   5.132  10.788   0.060  1.0144 -1.7574 -0.3718
38182SOL     OW19865  11.735   5.450   4.617 -0.4673 -0.5749  0.0214
38182SOL    HW119866  11.686   5.480   4.541 -0.3135 -3.0883 -1.1670
38182SOL    HW219867  11.824   5.481   4.602 -0.3096 -1.5261 -1.1523
38183SOL     OW19868   0.516   3.243   9.834 -0.1822  0.8366 -0.1206
38183SOL    HW119869   0.545   3.333   9.820  0.2257  0.7921  0.3894
38183SOL    HW219870   0.463   3.247   9.913  3.5294 -0.0381  2.7109
38184SOL     OW19871   3.313   3.518   8.410 -0.1086  0.0822  0.1431
38184SOL    HW119872   3.374   3.455   8.370 -0.5686 -0.3784  0.1630
38184SOL    HW219873   3.354   3.603   8.393  1.2437 -0.2886  1.3565
38185SOL     OW19874   3.311   5.113  11.298  0.1803  0.5610 -0.4877
38185SOL    HW119875   3.382   5.133  11.359 -0.3429 -3.1535  1.5733
38185SOL    HW219876   3.258   5.193  11.298  1.0749  1.3214  2.7262
38186SOL     OW19877   0.280  10.755   2.187 -0.2369  0.3146 -0.3562
38186SOL    HW119878   0.193  10.766   2.149 -1.3535 -0.8633  1.6312
38186SOL    HW219879   0.305  10.842   2.217 -2.5533  0.1394  2.5191
38187SOL     OW19880   1.854   7.286   9.602 -0.2035  0.0917  0.4268
38187SOL    HW119881   1.845   7.252   9.691  0.5159 -1.6407 -0.1100
38187SOL    HW219882   1.920   7.355   9.608  1.2361 -1.2715  0.9704
38188SOL     OW19883   8.258   1.218   3.544 -0.2691  0.5614  0.4144
38188SOL    HW119884   8.174   1.194   3.583 -1.3943  2.9569 -0.3561
38188SOL    HW219885   8.299   1.276   3.607 -0.7823  2.1322 -0.6466
38189SOL     OW19886   5.108  11.111   9.582  0.0391  0.2591 -0.5968
38189SOL    HW119887   5.076  11.186   9.531 -0.5792  0.8490  0.6159
38189SOL    HW219888   5.029  11.073   9.620  0.5356  0.1751  0.3757
38190SOL     OW19889   6.284   9.608   5.236  0.6783  0.4722  0.5021
38190SOL    HW119890   6.308   9.550   5.163 -0.4458  1.2781 -0.5600
38190SOL    HW219891   6.326   9.570   5.312  1.6437 -0.5848 -0.5214
38191SOL     OW19892   4.093   4.264   3.596  0.2061 -0.6543  0.4405
38191SOL    HW119893   4.143   4.332   3.641 -0.1642 -0.2356  0.2402
38191SOL    HW219894   4.158   4.218   3.543  0.4241 -0.2826  0.3762
38192SOL     OW19895   1.894   5.399   4.628  0.0871 -0.0542  0.2616
38192SOL    HW119896   1.979   5.422   4.591 -0.0494 -0.3109 -0.2083
38192SOL    HW219897   1.860   5.330   4.571 -0.7251  0.4903  0.0680
38193SOL     OW19898   5.125   7.027  10.002  0.1134 -0.0213 -0.3459
38193SOL    HW119899   5.039   6.993  10.025  0.0922  0.0970 -0.2488
38193SOL    HW219900   5.143   6.992   9.915  1.2371 -2.4953  0.7914
38194SOL     OW19901  11.364  11.393   4.240  0.9882  0.0965  0.5425
38194SOL    HW119902  11.454  11.407   4.208  0.8814 -0.0557  0.1754
38194SOL    HW219903  11.311  11.452   4.187  0.5278 -1.6531 -1.0261
38195SOL     OW19904   9.980   2.017   2.508 -0.5171  0.1165 -0.4440
38195SOL    HW119905  10.048   2.064   2.459 -0.8086 -0.3133 -1.2992
38195SOL    HW219906  10.021   1.932   2.529 -0.7500 -0.1080 -0.8816
38196SOL     OW19907   6.176   4.067   1.314  0.0743 -0.0476 -0.2786
38196SOL    HW119908   6.182   4.061   1.410 -0.8147  0.9600 -0.1408
38196SOL    HW219909   6.083   4.058   1.296  0.0731  1.0817 -0.9368
38197SOL     OW19910   5.445   2.551   2.360 -0.0483 -0.3293 -0.0501
38197SOL    HW119911   5.425   2.462   2.330 -0.1935  0.2418 -1.7761
38197SOL    HW219912   5.525   2.575   2.313  0.0161  0.4409  0.4309
38198SOL     OW19913  10.634   3.155   7.386  0.1133 -0.3101 -0.1428
38198SOL    HW119914  10.622   3.138   7.292 -1.2392  0.5291 -0.1470
38198SOL    HW219915  10.700   3.091   7.413  0.1962 -0.8786 -1.5674
38199SOL     OW19916   7.064   4.614   1.059 -0.3016 -0.2127 -0.4214
38199SOL    HW119917   7.108   4.699   1.052  0.5283 -0.7316 -1.9100
38199SOL    HW219918   7.097   4.577   1.141  0.1070  0.4712 -0.2707
38200SOL     OW19919   7.636   8.218   6.043 -0.3530 -0.1192 -0.0152
38200SOL    HW119920   7.702   8.267   5.993  0.5751 -0.4899  0.8081
38200SOL    HW219921   7.687   8.168   6.106 -1.4182 -0.7197  0.3822
38201SOL     OW19922  10.743  11.371   9.561 -0.2775 -0.2081 -0.4722
38201SOL    HW119923  10.745  11.318   9.481 -1.8095 -0.4508 -0.3905
38201SOL    HW219924  10.745  11.306   9.632 -3.4645 -0.3737 -0.3668
38202SOL     OW19925   7.070   2.670  11.089  0.2374 -0.4935 -0.6565
38202SOL    HW119926   7.083   2.642  11.179 -0.9554  0.0990 -0.2805
38202SOL    HW219927   7.158   2.677  11.053  0.6831 -2.5529 -0.1164
38203SOL     OW19928   4.336   3.729   9.104 -0.0840  0.6704  0.0525
38203SOL    HW119929   4.247   3.745   9.136 -0.0282  0.2337  0.4317
38203SOL    HW219930   4.328   3.734   9.009 -0.8955 -1.2216 -0.0236
38204SOL     OW19931   2.430   9.084   4.341 -0.2405 -0.4993 -0.0254
38204SOL    HW119932   2.397   9.002   4.378 -2.1957 -0.5924 -1.7380
38204SOL    HW219933   2.520   9.064   4.315 -0.3171 -1.7604  0.6099
38205SOL     OW19934   1.978   1.306   5.802  0.0319 -0.0318 -0.2884
38205SOL    HW119935   1.950   1.336   5.715  1.1678 -0.6236 -0.8862
38205SOL    HW219936   1.997   1.213   5.790 -0.9814 -0.4234  0.9131
38206SOL     OW19937   7.273   9.552   2.812 -0.4082 -0.3708  0.4012
38206SOL    HW119938   7.302   9.594   2.731 -2.4933  0.0582 -0.1872
38206SOL    HW219939   7.349   9.555   2.870  0.8226  0.2006 -1.1948
38207SOL     OW19940   8.542   1.425   8.771 -0.4816  0.2230 -0.1375
38207SOL    HW119941   8.493   1.483   8.829  0.0364 -0.8641  1.4472
38207SOL    HW219942   8.618   1.478   8.743  0.1254  0.2706  1.4910
38208SOL     OW19943   3.353  11.121   8.013  0.5233  0.4024  0.3163
38208SOL    HW119944   3.329  11.202   8.059 -2.0316  0.5283 -1.0632
38208SOL    HW219945   3.353  11.054   8.080  0.1938  1.1265  1.0576
38209SOL     OW19946   2.974   2.318   9.850  0.3040 -0.3968 -0.1185
38209SOL    HW119947   3.014   2.238   9.817 -2.6087 -2.3858  0.7661
38209SOL    HW219948   2.887   2.320   9.808 -0.9978  0.4315  2.3980
38210SOL     OW19949   3.291   1.570   8.131  0.1557  0.3047  0.1603
38210SOL    HW119950   3.303   1.542   8.222 -1.6506 -2.4499 -0.3280
38210SOL    HW219951   3.201   1.545   8.110  0.1968  1.7935 -2.1238
38211SOL     OW19952   1.340   1.435  10.156 -0.2893 -0.3664 -0.9039
38211SOL    HW119953   1.403   1.482  10.101  1.9642 -1.0017  0.9592
38211SOL    HW219954   1.389   1.416  10.236 -2.7656 -1.3281  0.4633
38212SOL     OW19955   2.663   3.731   9.270 -0.2189  0.7477  0.1553
38212SOL    HW119956   2.695   3.728   9.180 -0.7024 -3.1651 -0.0564
38212SOL    HW219957   2.718   3.669   9.318 -2.1435  0.1066  1.6917
38213SOL     OW19958   9.199   5.050   4.668  0.2554 -0.5243 -0.2818
38213SOL    HW119959   9.149   4.972   4.689  0.2864 -0.8257 -1.3022
38213SOL    HW219960   9.198   5.055   4.573 -0.5713  1.2627 -0.2148
38214SOL     OW19961   7.152   1.736  11.725 -0.0912  0.7528  0.2576
38214SOL    HW119962   7.067   1.752  11.768 -1.8061  1.5447 -3.1073
38214SOL    HW219963   7.147   1.644  11.697  0.5840  0.5450  0.7904
38215SOL     OW19964   7.667   6.315   8.328  0.0379 -0.2299 -0.1155
38215SOL    HW119965   7.630   6.270   8.253 -0.6500  0.7566 -0.3826
38215SOL    HW219966   7.761   6.318   8.310 -0.3154  1.8192 -1.9938
38216SOL     OW19967   9.765   6.101   9.850 -1.0231  0.0989 -0.6279
38216SOL    HW119968   9.835   6.166   9.842  1.4988 -2.3154  0.6724
38216SOL    HW219969   9.735   6.109   9.941  0.2168 -1.3944 -0.0667
38217SOL     OW19970   6.711   6.682  11.473  0.0115  0.0909  0.4204
38217SOL    HW119971   6.727   6.734  11.394  0.8226 -0.4414  0.2251
38217SOL    HW219972   6.617   6.691  11.488  0.1251  1.5940  0.3818
38218SOL     OW19973   4.207   6.640  11.494  0.2818 -0.4546  0.1246
38218SOL    HW119974   4.234   6.696  11.568 -1.5872  0.6612  0.0130
38218SOL    HW219975   4.154   6.697  11.439  0.7482 -1.5808 -1.5478
38219SOL     OW19976   0.014   8.710   3.257  0.3498  0.0036 -0.3331
38219SOL    HW119977   0.046   8.786   3.307  1.2941 -0.7427  0.2235
38219SOL    HW219978   0.014   8.639   3.320  0.6083 -0.7379 -1.1539
38220SOL     OW19979   7.053   3.564   7.607  0.3521  0.3341 -0.0752
38220SOL    HW119980   7.125   3.516   7.649  2.1886  2.0237 -1.0987
38220SOL    HW219981   7.008   3.499   7.555  1.3313 -0.7305  0.3577
38221SOL     OW19982  10.039   1.539   3.674 -0.1894  0.2601 -0.1188
38221SOL    HW119983   9.949   1.534   3.642 -0.7678  0.8959  1.2834
38221SOL    HW219984  10.093   1.547   3.595 -1.3935  0.2615 -0.9673
38222SOL     OW19985   1.668  10.047   9.477  0.0825 -0.0413  0.3028
38222SOL    HW119986   1.753  10.037   9.434 -0.0280 -1.0546  0.3023
38222SOL    HW219987   1.683  10.018   9.567 -0.5757 -1.5278 -0.0492
38223SOL     OW19988   7.986   7.999   9.032 -0.1683 -0.0833 -0.2581
38223SOL    HW119989   7.892   8.014   9.040 -0.2788 -0.0974 -1.3397
38223SOL    HW219990   7.999   7.911   9.069 -0.8697 -0.7985 -1.6106
38224SOL     OW19991   9.634  11.294   8.368 -0.4812 -0.2694  0.5028
38224SOL    HW119992   9.671  11.221   8.319 -2.9569  0.0923 -2.2083
38224SOL    HW219993   9.695  11.309   8.440  1.6935 -2.9863 -0.6115
38225SOL     OW19994   3.442   9.063   0.502  0.2386 -0.0484  0.0814
38225SOL    HW119995   3.534   9.086   0.490  0.6591 -0.3207  2.3141
38225SOL    HW219996   3.397   9.147   0.509  0.4712  0.0859 -0.0381
38226SOL     OW19997   0.562   6.361   7.497 -0.3295 -0.1037 -0.5067
38226SOL    HW119998   0.519   6.282   7.530 -2.9559  1.1898 -0.6122
38226SOL    HW219999   0.502   6.395   7.431  1.7380  0.9044 -1.9521
38227SOL     OW20000  10.623  11.259  10.149  0.1296  0.4538 -0.0448
38227SOL    HW120001  10.534  11.283  10.124 -0.1984  0.8685  1.4395
38227SOL    HW220002  10.658  11.336  10.193 -0.1652 -0.8883  2.7971
38228SOL     OW20003   5.304   1.153   6.879  0.0864  0.5556  0.0917
38228SOL    HW120004   5.267   1.197   6.956  0.4492  0.5221  0.2885
38228SOL    HW220005   5.309   1.221   6.812  1.6446  1.0953  0.7246
38229SOL     OW20006   3.118   7.677   6.758 -0.3261  0.3404  0.4918
38229SOL    HW120007   3.032   7.640   6.777  0.0249 -0.1127  1.2319
38229SOL    HW220008   3.105   7.772   6.762 -0.4711  0.2744  2.1579
38230SOL     OW20009   0.432   2.972   3.555 -0.0308 -0.1839 -0.6049
38230SOL    HW120010   0.423   2.958   3.461 -1.5645 -1.0943 -0.3559
38230SOL    HW220011   0.346   3.003   3.583  0.8900  1.8039  0.2562
38231SOL     OW20012   4.257  11.317   9.605 -0.6195 -0.4484  0.0067
38231SOL    HW120013   4.318  11.353   9.669 -1.9379 -0.3125  1.2219
38231SOL    HW220014   4.311  11.258   9.552  0.4384 -0.8943  1.5033
38232SOL     OW20015   7.206   2.103   2.572 -0.4655 -0.0786  0.0744
38232SOL    HW120016   7.227   2.136   2.659 -2.7975 -3.1245  1.9985
38232SOL    HW220017   7.290   2.102   2.526  1.0671  0.6471  2.6166
38233SOL     OW20018   8.616   8.193   8.812 -0.1520 -0.0633 -0.3438
38233SOL    HW120019   8.531   8.235   8.827 -0.6245 -1.0386 -0.1859
38233SOL    HW220020   8.626   8.132   8.885  0.4335 -0.3470 -0.6556
38234SOL     OW20021   2.315   2.574   7.829  0.3993 -0.7306 -0.6919
38234SOL    HW120022   2.250   2.634   7.792  0.8299 -0.3005 -0.7673
38234SOL    HW220023   2.354   2.531   7.753  1.0225 -0.1203 -0.7313
38235SOL     OW20024   0.080   6.437   4.937 -0.0966  0.3274  0.3543
38235SOL    HW120025   0.098   6.383   5.014 -0.9694 -0.8041 -0.2049
38235SOL    HW220026   0.133   6.398   4.867  0.4615  1.1663  0.2944
38236SOL     OW20027   8.664   8.039   9.059  0.1702 -0.0637  0.4051
38236SOL    HW120028   8.736   8.091   9.093 -1.2697  1.8183  0.7323
38236SOL    HW220029   8.586   8.073   9.104 -1.3620  0.2399 -2.2844
38237SOL     OW20030   6.789   7.856   6.497  0.2328 -0.1068 -0.0832
38237SOL    HW120031   6.749   7.775   6.529 -0.1154  0.3220  0.5987
38237SOL    HW220032   6.735   7.882   6.423 -0.3365  0.0828  0.3840
38238SOL     OW20033   3.157   7.523   5.663  0.0888 -0.5258 -0.0917
38238SOL    HW120034   3.087   7.588   5.652  0.2961 -0.0477  1.2595
38238SOL    HW220035   3.177   7.495   5.574  1.0450  2.4150 -0.9193
38239SOL     OW20036   4.279  11.745   3.348 -0.0336  0.4165  0.2092
38239SOL    HW120037   4.304  11.815   3.287  0.4430 -0.4449 -0.6067
38239SOL    HW220038   4.196  11.712   3.313 -0.2885  0.5998  0.6281
38240SOL     OW20039   1.828  10.286   5.475  0.2977  0.2243  0.2206
38240SOL    HW120040   1.735  10.289   5.499  0.3505  0.3659  0.4085
38240SOL    HW220041   1.861  10.373   5.496  0.3361  0.3660 -0.4097
38241SOL     OW20042   9.910   2.796   0.202 -0.5134 -0.2440  0.2285
38241SOL    HW120043   9.998   2.796   0.240  1.4118  1.0941 -3.7243
38241SOL    HW220044   9.880   2.887   0.214 -0.7495 -0.3303  0.2863
38242SOL     OW20045   9.846   8.215   4.293 -0.3978 -0.0679 -0.2029
38242SOL    HW120046   9.899   8.147   4.336 -1.8315 -1.0405  0.0818
38242SOL    HW220047   9.800   8.169   4.223 -0.1292  0.9738 -1.0986
38243SOL     OW20048   8.321  10.280   8.413  0.0698 -0.4164  0.0629
38243SOL    HW120049   8.275  10.271   8.496  0.8643 -2.3324  0.3430
38243SOL    HW220050   8.271  10.346   8.366 -0.2633  0.8906  2.1290
38244SOL     OW20051   2.346   8.853   6.562  0.5270 -0.2877  0.1530
38244SOL    HW120052   2.394   8.906   6.625  0.5922  0.9494 -0.9042
38244SOL    HW220053   2.278   8.911   6.528  1.1170 -0.5853 -1.6287
38245SOL     OW20054   0.819   7.460   3.215 -0.1284  0.0021 -0.8323
38245SOL    HW120055   0.874   7.384   3.235 -1.2181 -0.7767 -0.7408
38245SOL    HW220056   0.859   7.532   3.264 -0.6884 -1.1145  1.3803
38246SOL     OW20057   5.656   1.368   5.926  0.2372 -0.2928 -0.2317
38246SOL    HW120058   5.645   1.442   5.986  0.3308 -2.6689  2.9517
38246SOL    HW220059   5.569   1.356   5.886 -0.2002  0.5193  0.4480
38247SOL     OW20060  11.220   6.929   4.817  0.5198  0.4273 -0.1080
38247SOL    HW120061  11.271   6.932   4.737 -2.2531 -1.2526 -2.1199
38247SOL    HW220062  11.175   7.014   4.821  1.7874  1.0948  0.5520
38248SOL     OW20063   0.427   2.599   3.859 -0.0896  0.5320  0.3132
38248SOL    HW120064   0.442   2.675   3.803 -2.0583  0.7919  0.0737
38248SOL    HW220065   0.416   2.635   3.947  2.0897  0.1971  0.7979
38249SOL     OW20066   5.823  10.055   1.865 -0.2845 -0.0616  0.0248
38249SOL    HW120067   5.754  10.088   1.808 -1.3627 -0.5497  0.9869
38249SOL    HW220068   5.895  10.034   1.806 -0.5998  1.3303 -0.9062
38250SOL     OW20069   6.960   6.532   8.513 -0.3315 -0.1120  0.6491
38250SOL    HW120070   6.952   6.545   8.419  2.6213 -2.3473 -0.0769
38250SOL    HW220071   6.897   6.463   8.534 -0.2966 -0.3026  0.1218
38251SOL     OW20072   0.166   1.714   5.447  0.7996  0.0476  0.2323
38251SOL    HW120073   0.243   1.756   5.409  1.0751 -0.9558 -0.3594
38251SOL    HW220074   0.114   1.786   5.481  1.0611  0.9019 -1.1074
38252SOL     OW20075   5.636  10.512   7.428 -0.2862 -0.3839  0.5717
38252SOL    HW120076   5.639  10.607   7.441 -0.1950 -0.0428 -1.5640
38252SOL    HW220077   5.725  10.482   7.448  0.1500  0.2515 -0.3538
38253SOL     OW20078   4.792   6.479   9.231  0.2334 -0.6272 -0.3984
38253SOL    HW120079   4.763   6.521   9.150  1.7086 -0.3634 -0.8326
38253SOL    HW220080   4.800   6.387   9.208 -1.5722 -0.9474  0.1321
38254SOL     OW20081   9.698   7.830   3.936  0.4274 -0.1191  0.5764
38254SOL    HW120082   9.611   7.805   3.904  0.7066  0.5631 -0.8063
38254SOL    HW220083   9.719   7.909   3.887  1.6426 -0.0119  1.2434
38255SOL     OW20084   1.752   2.875   9.563 -0.2860  0.1310  0.0586
38255SOL    HW120085   1.685   2.933   9.599  0.1005 -0.2280  1.4212
38255SOL    HW220086   1.825   2.933   9.540 -0.4268  0.3343  0.1285
38256SOL     OW20087   7.822   2.391   0.044  0.3232  0.2497 -0.2295
38256SOL    HW120088   7.853   2.479   0.025  0.0019  0.3554 -0.2662
38256SOL    HW220089   7.887   2.333   0.004  1.8741  0.4262  1.8346
38257SOL     OW20090   4.770   6.434   7.725  0.0756  0.0944 -0.5189
38257SOL    HW120091   4.801   6.348   7.695  1.2408 -0.0498  0.9841
38257SOL    HW220092   4.773   6.428   7.820  1.2262  2.1645 -0.3763
38258SOL     OW20093  11.633   6.931   0.297 -0.1664  0.0305  0.2737
38258SOL    HW120094  11.698   6.911   0.364  1.3278 -1.3382 -1.4905
38258SOL    HW220095  11.682   6.932   0.215 -2.0119  1.1393 -0.8915
38259SOL     OW20096   0.318   6.579   1.799  0.7821  0.1780 -0.5954
38259SOL    HW120097   0.413   6.571   1.793  0.6804 -0.6289 -1.1887
38259SOL    HW220098   0.287   6.574   1.709  0.0855 -0.8477 -0.3182
38260SOL     OW20099   2.829   5.124   6.860 -0.1745  0.5687 -0.2463
38260SOL    HW120100   2.768   5.191   6.891  0.6677  2.3637 -2.2493
38260SOL    HW220101   2.798   5.103   6.772  1.8825  1.2964 -1.1881
38261SOL     OW20102   5.072   7.326   4.884  0.0544 -0.3990 -0.1885
38261SOL    HW120103   5.018   7.397   4.851 -1.8127 -1.0565  1.2566
38261SOL    HW220104   5.097   7.353   4.972  0.2560 -1.0510 -0.0375
38262SOL     OW20105   7.947  10.153   5.736 -0.0947 -0.2312 -0.3595
38262SOL    HW120106   7.977  10.243   5.754  0.5332 -0.8320  1.9643
38262SOL    HW220107   8.027  10.101   5.735 -0.5478 -0.9312 -0.6018
38263SOL     OW20108   8.209   2.342  10.007  0.2399 -0.2138 -0.0731
38263SOL    HW120109   8.231   2.297   9.925  0.5025  0.1913 -0.2283
38263SOL    HW220110   8.173   2.426   9.979  0.4302 -0.0296  0.2258
38264SOL     OW20111   1.981  11.820   3.807 -0.1140  0.0842 -0.3937
38264SOL    HW120112   1.988  11.870   3.888  0.9027  1.7408 -1.4622
38264SOL    HW220113   1.949  11.882   3.742  3.8981  0.3124 -2.4637
38265SOL     OW20114   7.457  11.090   8.422  0.4173  0.6390  0.0602
38265SOL    HW120115   7.544  11.067   8.453 -0.0785  0.6393  1.5630
38265SOL    HW220116   7.398  11.041   8.480 -0.5787  0.5531 -0.9985
38266SOL     OW20117   7.654   8.783   8.012  0.1475 -0.6424 -0.7227
38266SOL    HW120118   7.675   8.708   8.068  1.3013 -2.4703 -3.3915
38266SOL    HW220119   7.563   8.804   8.032 -0.2293 -2.8369  0.0488
38267SOL     OW20120   8.585   1.900   0.548  0.0237  0.3919 -0.3032
38267SOL    HW120121   8.583   1.866   0.637 -0.3985 -1.2194 -0.8823
38267SOL    HW220122   8.616   1.990   0.556  0.4866  0.1014  1.4081
38268SOL     OW20123  10.635   9.532   0.628 -0.3083 -0.1869 -0.1118
38268SOL    HW120124  10.586   9.469   0.575 -0.8788  0.0680  0.1017
38268SOL    HW220125  10.570   9.568   0.689  0.2454 -0.1516  0.4636
38269SOL     OW20126   5.922   4.106   1.642 -1.0634  0.0755 -0.0919
38269SOL    HW120127   5.991   4.059   1.594 -0.3337  0.8592  0.1676
38269SOL    HW220128   5.925   4.069   1.730 -3.4156 -2.4530 -0.9224
38270SOL     OW20129   3.817  10.406   8.900  0.4862  0.2283 -0.1029
38270SOL    HW120130   3.855  10.480   8.852  2.0433 -0.1446  0.5132
38270SOL    HW220131   3.887  10.375   8.957 -0.4098 -1.1968  0.2813
38271SOL     OW20132   3.413  10.872   5.946 -0.4834  0.4387  0.1123
38271SOL    HW120133   3.371  10.789   5.965  0.7546  0.0693  1.3916
38271SOL    HW220134   3.425  10.914   6.031  0.8016  0.9702 -0.2992
38272SOL     OW20135   4.738   7.570   7.216  0.1277  0.0032 -0.5430
38272SOL    HW120136   4.831   7.577   7.239 -0.2130  1.7392  0.4451
38272SOL    HW220137   4.705   7.659   7.224 -1.5661 -0.5406 -1.1947
38273SOL     OW20138  10.713   5.193   5.216  0.5848  0.0578 -0.1760
38273SOL    HW120139  10.623   5.225   5.211  0.7917  0.3791 -2.7033
38273SOL    HW220140  10.711   5.107   5.174  1.5353  0.2769 -0.7130
38274SOL     OW20141   2.955   9.699   7.190  0.0961  0.2222 -0.2011
38274SOL    HW120142   3.041   9.720   7.227 -0.3107  1.2493  0.1899
38274SOL    HW220143   2.940   9.766   7.124 -0.5334  0.2365 -0.0546
38275SOL     OW20144   7.324   0.163   1.607 -0.3043 -0.0178 -0.3587
38275SOL    HW120145   7.330   0.257   1.625  0.5512  0.1764 -1.5628
38275SOL    HW220146   7.398   0.144   1.550  0.2855 -1.7016  0.8984
38276SOL     OW20147   6.741   8.322   9.805  0.3485 -0.4708 -0.4155
38276SOL    HW120148   6.737   8.385   9.733 -0.3892 -1.4220 -1.2332
38276SOL    HW220149   6.770   8.240   9.765 -1.2828 -1.3611  0.0911
38277SOL     OW20150   9.762   7.451   5.951 -0.6212 -0.3903  0.3655
38277SOL    HW120151   9.777   7.359   5.973 -1.3489 -1.1416 -2.0125
38277SOL    HW220152   9.801   7.499   6.024 -0.9641 -2.5721  2.1028
38278SOL     OW20153   4.035   1.918   7.749  0.4840 -0.0437  0.2507
38278SOL    HW120154   3.965   1.962   7.701  0.2138  1.4093  1.8744
38278SOL    HW220155   4.097   1.891   7.682  0.4403  2.4567 -0.9061
38279SOL     OW20156   7.441   7.958  11.281 -0.2651 -0.0198  0.3973
38279SOL    HW120157   7.509   8.026  11.277  0.4066 -0.6829  0.3686
38279SOL    HW220158   7.464   7.898  11.210 -1.7539  0.5370 -0.6022
38280SOL     OW20159   4.353   8.582   6.255 -0.2269 -0.1086 -0.7476
38280SOL    HW120160   4.309   8.663   6.230  1.0396  1.1890  0.9951
38280SOL    HW220161   4.437   8.585   6.208 -0.5542 -0.8916 -1.4035
38281SOL     OW20162  10.786   1.998   5.758 -0.1332  0.3298  0.5326
38281SOL    HW120163  10.858   2.054   5.729  0.7325 -0.0667  1.8084
38281SOL    HW220164  10.815   1.909   5.737 -1.2016  0.2725 -0.8588
38282SOL     OW20165  11.289   3.853   5.237 -0.1131  0.2942  0.0941
38282SOL    HW120166  11.358   3.891   5.292 -0.3971 -0.1623  0.7798
38282SOL    HW220167  11.335   3.820   5.159  0.2060  1.5477 -0.2671
38283SOL     OW20168   2.543   6.960  10.261  0.2510 -0.2248 -0.7253
38283SOL    HW120169   2.636   6.937  10.259  0.6088  1.1478 -1.8030
38283SOL    HW220170   2.507   6.920  10.182  0.0767 -0.1847 -0.6660
38284SOL     OW20171   7.232   3.957   0.174 -0.7036  0.0392  0.1502
38284SOL    HW120172   7.261   4.044   0.202 -0.8105  0.4557 -0.9793
38284SOL    HW220173   7.146   3.972   0.136 -1.5071 -0.8589  1.5327
38285SOL     OW20174   4.211   4.006   8.281  0.0455  0.0898  0.3606
38285SOL    HW120175   4.306   3.997   8.290 -0.0862 -0.4435  1.4911
38285SOL    HW220176   4.183   3.926   8.237  0.2592  0.9051 -1.3215
38286SOL     OW20177   5.721   0.155   4.454 -0.9294  0.2278  0.3175
38286SOL    HW120178   5.638   0.203   4.443 -0.1519  1.8581  1.0985
38286SOL    HW220179   5.758   0.150   4.366 -1.4870  0.1941  0.0805
38287SOL     OW20180   8.488   3.339   0.127 -0.9833 -0.9014 -0.1143
38287SOL    HW120181   8.551   3.293   0.183 -1.2064  0.3132  1.1960
38287SOL    HW220182   8.527   3.424   0.110 -1.7827 -0.5360 -0.1908
38288SOL     OW20183   5.838   4.844   3.526 -0.1937 -0.4874  0.1079
38288SOL    HW120184   5.767   4.879   3.473  0.6509  2.2323  0.6356
38288SOL    HW220185   5.824   4.878   3.614  1.7669  0.2021  0.2101
38289SOL     OW20186   8.999   8.097   1.834  0.2144 -0.1510  0.4236
38289SOL    HW120187   8.959   8.152   1.767  0.7386  0.1885  0.3826
38289SOL    HW220188   8.925   8.049   1.873 -0.1810  0.1867  0.1011
38290SOL     OW20189   3.570  11.445  10.809 -0.5754 -0.0033  0.0643
38290SOL    HW120190   3.590  11.467  10.900 -1.5537 -0.5528  0.4243
38290SOL    HW220191   3.641  11.385  10.783 -0.6287 -0.3411  0.6751
38291SOL     OW20192   4.063   1.351   6.097  0.2164  0.4590 -0.1804
38291SOL    HW120193   4.060   1.359   6.192  0.1883 -0.7992 -0.0498
38291SOL    HW220194   4.082   1.439   6.066 -1.3961  1.2417  0.8923
38292SOL     OW20195   6.190   8.351   4.044 -0.6321 -0.3068  0.2120
38292SOL    HW120196   6.130   8.292   3.998 -1.5969 -1.3691  2.6281
38292SOL    HW220197   6.265   8.297   4.066  0.0931  0.3476 -0.5867
38293SOL     OW20198   5.832   1.694   7.657 -0.2715 -0.0770 -0.4077
38293SOL    HW120199   5.914   1.645   7.666 -0.4779 -0.5326 -0.9354
38293SOL    HW220200   5.832   1.754   7.731  0.1366 -0.6608  0.0795
38294SOL     OW20201  11.113   6.020   7.847 -0.1809  0.3718 -0.2126
38294SOL    HW120202  11.191   5.964   7.848 -1.0162 -0.8173 -0.2752
38294SOL    HW220203  11.147   6.108   7.831  1.2380  0.0212  0.6786
38295SOL     OW20204   4.550   0.682   3.341 -0.4345  0.1782 -0.0145
38295SOL    HW120205   4.587   0.615   3.282  0.5009 -1.0223  1.8482
38295SOL    HW220206   4.487   0.729   3.286 -0.1004 -1.3079 -1.7975
38296SOL     OW20207   5.150   0.925   9.896 -0.0633  0.5691 -0.0691
38296SOL    HW120208   5.198   0.902   9.976  0.1989  0.0086 -0.3859
38296SOL    HW220209   5.197   1.000   9.861  2.0028 -1.3190 -1.5931
38297SOL     OW20210   2.351   5.206   5.116  0.2472 -0.2506 -0.3177
38297SOL    HW120211   2.304   5.169   5.191  0.2280  0.2389 -0.0798
38297SOL    HW220212   2.365   5.132   5.057 -0.7215 -0.4200 -0.3438
38298SOL     OW20213   6.297   4.573   8.029 -0.3935 -0.1691 -0.3718
38298SOL    HW120214   6.301   4.530   7.943 -0.7104  0.6533 -0.8137
38298SOL    HW220215   6.349   4.653   8.018  0.5590 -0.6328  0.5680
38299SOL     OW20216   9.623   8.744   7.731  0.4572 -0.3009  0.0341
38299SOL    HW120217   9.584   8.666   7.691  0.3474  0.0262 -0.4995
38299SOL    HW220218   9.715   8.741   7.702  0.4543 -0.2356  0.0194
38300SOL     OW20219   7.271   9.779   3.722 -0.0734 -0.5784 -0.1887
38300SOL    HW120220   7.225   9.861   3.738 -1.2588 -1.1633 -0.4914
38300SOL    HW220221   7.345   9.781   3.783 -1.3414 -0.2738  1.4086
38301SOL     OW20222   0.349   5.791  11.580 -0.1623  0.5712  0.0013
38301SOL    HW120223   0.335   5.851  11.507 -1.1726 -0.0984 -0.3592
38301SOL    HW220224   0.329   5.705  11.546  2.4797 -0.2066  0.1601
38302SOL     OW20225   3.601   2.056   8.639  0.2279  0.3697 -0.1714
38302SOL    HW120226   3.670   2.094   8.693 -0.0239  1.5081 -0.6042
38302SOL    HW220227   3.577   2.127   8.579 -1.7465  0.2112  0.3684
38303SOL     OW20228   9.924   1.083   3.339  0.4145  0.4645  0.0738
38303SOL    HW120229  10.009   1.051   3.366 -0.1535 -0.9328  0.2898
38303SOL    HW220230   9.862   1.019   3.373 -0.5511  0.1830 -2.0543
38304SOL     OW20231   0.359   5.583   7.530 -0.5544 -0.0488 -1.1658
38304SOL    HW120232   0.311   5.517   7.481 -0.3387  0.1776 -1.6947
38304SOL    HW220233   0.407   5.533   7.596 -1.5795 -0.2619 -0.5695
38305SOL     OW20234   8.533   9.210  10.986  0.0284 -0.4415 -0.1853
38305SOL    HW120235   8.498   9.172  11.067  1.4253 -2.3990 -0.4339
38305SOL    HW220236   8.499   9.154  10.917 -1.1275  1.2012 -0.9988
38306SOL     OW20237  11.069   3.711   6.902  0.1608 -0.1634 -0.0172
38306SOL    HW120238  10.985   3.707   6.856 -0.2837  1.1642  0.6339
38306SOL    HW220239  11.119   3.777   6.854 -0.0997  0.8292  1.0296
38307SOL     OW20240  11.792   8.517   1.091 -0.0470 -0.0212 -0.2312
38307SOL    HW120241  11.868   8.459   1.092  0.8993  1.1816 -0.3948
38307SOL    HW220242  11.761   8.514   1.001  1.4574  1.5068 -0.8645
38308SOL     OW20243   7.223   6.960   0.342 -0.3753  0.1756 -0.0457
38308SOL    HW120244   7.293   6.894   0.348 -0.3918  0.1707  0.1045
38308SOL    HW220245   7.154   6.917   0.292 -0.3386  0.1179 -0.0467
38309SOL     OW20246  11.029   9.186   3.487  0.3447 -0.5386 -0.1155
38309SOL    HW120247  11.089   9.113   3.474  0.7063  0.0869 -2.2488
38309SOL    HW220248  10.953   9.147   3.532  1.5533 -1.6823  1.0242
38310SOL     OW20249   7.546   1.350  10.024  0.2220  0.1472 -0.4851
38310SOL    HW120250   7.560   1.413   9.953 -0.5579  0.7806 -0.0940
38310SOL    HW220251   7.454   1.360  10.046  0.0021 -1.3807 -0.6318
38311SOL     OW20252   8.408   9.574   6.634  0.0519 -0.0699 -0.7346
38311SOL    HW120253   8.470   9.502   6.635 -0.0892 -0.2519 -2.3914
38311SOL    HW220254   8.453   9.645   6.681  0.1414 -1.2298  1.0116
38312SOL     OW20255   5.399   8.371  11.606  0.5107 -0.3420 -0.2708
38312SOL    HW120256   5.402   8.303  11.538 -0.7218  0.4984 -1.1957
38312SOL    HW220257   5.318   8.354  11.654  0.2911  0.3501 -0.3859
38313SOL     OW20258   6.895   8.891   7.474  0.4653 -0.1285 -0.4014
38313SOL    HW120259   6.955   8.942   7.420 -1.2545 -0.4944 -2.8598
38313SOL    HW220260   6.929   8.801   7.470  0.4722 -0.1129 -0.7219
38314SOL     OW20261   6.717   1.018   5.820  0.2215 -0.7300 -0.4371
38314SOL    HW120262   6.712   1.003   5.914 -1.6976 -1.1244 -0.5560
38314SOL    HW220263   6.728   1.113   5.811  0.6568 -0.7183  0.1722
38315SOL     OW20264   3.021  10.551  11.239  0.4997  0.3307 -0.1545
38315SOL    HW120265   3.114  10.541  11.258  0.9651  3.6216 -0.1514
38315SOL    HW220266   3.019  10.595  11.154 -1.0932 -0.0523 -0.3456
38316SOL     OW20267  11.217   6.996   7.902 -0.2091 -0.1982  0.5401
38316SOL    HW120268  11.259   7.078   7.874  0.3594  0.1066  2.1300
38316SOL    HW220269  11.125   7.008   7.881 -0.2892  1.2590  1.5288
38317SOL     OW20270   8.814   8.189  10.352  0.3146 -0.1075  0.3661
38317SOL    HW120271   8.770   8.111  10.386  0.6229 -0.3960  0.1194
38317SOL    HW220272   8.895   8.155  10.312 -0.2715  0.1473 -1.1152
38318SOL     OW20273   3.170   7.379   2.127  0.1848  0.7935  0.4377
38318SOL    HW120274   3.095   7.437   2.117 -0.6242 -0.5661 -2.1243
38318SOL    HW220275   3.245   7.430   2.097 -0.3103  0.9501 -0.5450
38319SOL     OW20276  10.531   4.097   8.163  0.6504 -0.4026  0.0595
38319SOL    HW120277  10.554   4.189   8.173  0.2335 -0.2947  0.0632
38319SOL    HW220278  10.435   4.096   8.162  0.6509 -0.7628 -0.5778
38320SOL     OW20279  10.315   0.582   2.350  0.0565  0.2315 -0.3037
38320SOL    HW120280  10.283   0.669   2.327 -0.8551 -0.4517 -1.7891
38320SOL    HW220281  10.296   0.573   2.443  0.4260  1.7111 -0.0577
38321SOL     OW20282   2.355   7.921  11.779  0.8367  0.2798 -0.0289
38321SOL    HW120283   2.353   7.909  11.874  0.5273  0.7815  0.0294
38321SOL    HW220284   2.308   8.003  11.764 -0.3384 -0.5104 -0.7354
38322SOL     OW20285   0.168   5.401   9.371  0.2333 -0.1443  0.7503
38322SOL    HW120286   0.107   5.465   9.406 -2.5129 -0.9867 -2.0309
38322SOL    HW220287   0.249   5.450   9.356 -0.4603  1.6063  2.4096
38323SOL     OW20288   5.004   3.718   2.664  0.8968  0.1814 -0.3301
38323SOL    HW120289   5.037   3.766   2.741  1.5468  2.6643 -2.0212
38323SOL    HW220290   4.915   3.749   2.653  0.1374 -1.5940  0.4324
38324SOL     OW20291   1.019   7.845   2.331  0.3314 -0.1003  0.2778
38324SOL    HW120292   0.969   7.796   2.396 -0.2977  0.9291  0.6051
38324SOL    HW220293   0.987   7.814   2.247  1.4951 -1.8019  0.3954
38325SOL     OW20294   2.248   7.087   6.789  0.3952  0.0835  0.3620
38325SOL    HW120295   2.271   7.164   6.737  2.4979 -0.7845 -0.0753
38325SOL    HW220296   2.188   7.038   6.733  2.6529 -0.8524 -1.3633
38326SOL     OW20297   1.355  11.567   1.311 -0.1822 -0.4745  0.2364
38326SOL    HW120298   1.308  11.602   1.387 -1.3056 -0.8014 -0.2859
38326SOL    HW220299   1.338  11.473   1.314 -0.7306 -0.4229 -0.7260
38327SOL     OW20300   6.455   6.558   8.661  0.0303 -0.2096  0.2086
38327SOL    HW120301   6.468   6.534   8.569  0.1040  1.9978 -0.4080
38327SOL    HW220302   6.371   6.604   8.662  1.3522  2.4103  0.6227
38328SOL     OW20303   9.217   5.702   8.580 -0.6546  0.2668  0.5216
38328SOL    HW120304   9.137   5.656   8.552  0.4534 -0.6585 -1.3954
38328SOL    HW220305   9.211   5.788   8.539 -1.3254  0.7743  1.6286
38329SOL     OW20306   0.467   3.319  10.365  0.0865 -0.1576 -0.2565
38329SOL    HW120307   0.443   3.412  10.372 -1.0434 -0.5039  0.8780
38329SOL    HW220308   0.415   3.276  10.433  0.8673 -1.5793 -0.5277
38330SOL     OW20309   6.860   1.310   1.645 -0.2841 -0.0657  0.1294
38330SOL    HW120310   6.954   1.292   1.639 -0.5373 -1.2495 -0.7311
38330SOL    HW220311   6.819   1.225   1.626 -1.5475  0.7502 -0.8805
38331SOL     OW20312   2.633   2.719   1.819  0.2165  0.1611 -0.7473
38331SOL    HW120313   2.604   2.646   1.765 -3.0769 -0.7774  1.9541
38331SOL    HW220314   2.574   2.718   1.894  2.4761  3.3122  1.3046
38332SOL     OW20315   5.749   1.238   4.586 -0.0381 -0.4479 -0.6293
38332SOL    HW120316   5.710   1.313   4.540 -0.8628 -0.6168 -0.2254
38332SOL    HW220317   5.841   1.263   4.598 -0.5138  0.9649  0.4102
38333SOL     OW20318   7.224   1.061   5.731  0.0055 -0.0986 -0.3902
38333SOL    HW120319   7.136   1.025   5.741 -1.0008  1.8758 -1.5382
38333SOL    HW220320   7.256   1.021   5.650 -1.2210  1.6597 -1.8200
38334SOL     OW20321   5.628   8.465   0.708  0.2973  0.3220 -0.0177
38334SOL    HW120322   5.545   8.485   0.664  1.1604  1.1135 -1.3696
38334SOL    HW220323   5.678   8.546   0.702  1.5067 -0.4054 -0.0284
38335SOL     OW20324   7.974   8.885  10.972  0.5678  0.2457 -0.7305
38335SOL    HW120325   7.996   8.815  10.909  1.3878 -0.3840  0.2218
38335SOL    HW220326   7.990   8.966  10.923 -0.7810 -0.2049 -1.9834
38336SOL     OW20327   4.772   4.874  10.925 -0.5530 -0.6284  0.1723
38336SOL    HW120328   4.679   4.885  10.945 -1.1021  0.0954 -2.4202
38336SOL    HW220329   4.776   4.792  10.876  0.2549 -0.8481  0.5911
38337SOL     OW20330   2.915   1.650   0.347  0.4557  0.0486  0.4896
38337SOL    HW120331   3.000   1.692   0.332  1.0187 -1.3286 -0.4205
38337SOL    HW220332   2.936   1.576   0.404  0.1892 -1.2650 -1.0397
38338SOL     OW20333   7.495   1.954   7.875  0.3568 -0.2605  0.4927
38338SOL    HW120334   7.544   1.940   7.794  0.1327  0.7391  0.1801
38338SOL    HW220335   7.445   2.034   7.860 -0.4320 -0.5928  1.2646
38339SOL     OW20336   3.721   3.400   9.784  0.1830  0.0458 -0.1795
38339SOL    HW120337   3.729   3.308   9.811 -1.0705 -1.1813 -3.4510
38339SOL    HW220338   3.627   3.416   9.782  0.3286  0.8216 -1.3140
38340SOL     OW20339   7.133   9.880   0.326  0.3533 -0.4335 -0.5195
38340SOL    HW120340   7.060   9.853   0.271 -0.2915  0.9019 -0.3679
38340SOL    HW220341   7.107   9.857   0.415 -1.3544  2.8127 -0.0545
38341SOL     OW20342   7.489   7.569   3.024 -0.7729 -0.2135 -0.0346
38341SOL    HW120343   7.513   7.496   2.967 -0.2666 -0.8215  0.9284
38341SOL    HW220344   7.406   7.543   3.064 -0.9244  0.0270 -0.1948
38342SOL     OW20345   5.746   5.812   9.991 -0.0287  0.0905  0.0705
38342SOL    HW120346   5.797   5.860   9.925 -1.2698  0.6927 -0.4881
38342SOL    HW220347   5.755   5.720   9.966  1.5220  0.0788  0.5401
38343SOL     OW20348   9.070  11.352  10.045 -0.2767 -0.0401 -0.2747
38343SOL    HW120349   9.002  11.341  10.111 -1.8269 -2.3994 -2.1081
38343SOL    HW220350   9.026  11.337   9.961  1.8092  1.8078 -1.8448
38344SOL     OW20351  11.012   0.308   7.930  0.1920 -0.2178 -0.0576
38344SOL    HW120352  10.995   0.354   7.848 -0.3368  0.0774  0.2134
38344SOL    HW220353  10.966   0.359   7.997 -1.9222 -2.0812  0.0469
38345SOL     OW20354   0.254  11.690   8.806  0.5751  0.2684  0.4956
38345SOL    HW120355   0.232  11.772   8.850 -0.6746 -0.1835  0.7679
38345SOL    HW220356   0.173  11.639   8.809  1.4453 -1.1458  0.6911
38346SOL     OW20357  10.641   5.478   4.103  0.6380 -0.0544 -0.2021
38346SOL    HW120358  10.601   5.511   4.023  1.6830  1.2895 -0.2020
38346SOL    HW220359  10.726   5.522   4.108  1.1903 -1.1709  0.9206
38347SOL     OW20360   3.779   7.877  10.115 -0.4177  0.1498 -0.2848
38347SOL    HW120361   3.731   7.887  10.197 -1.1374 -0.2452 -0.6555
38347SOL    HW220362   3.871   7.890  10.140 -0.6820  0.6713  0.4686
38348SOL     OW20363  10.119   6.075   5.906  0.0398 -0.1616  0.3457
38348SOL    HW120364  10.118   6.155   5.853 -1.3128  0.1426  0.7987
38348SOL    HW220365  10.197   6.027   5.876 -0.0252  0.5722 -1.0561
38349SOL     OW20366   2.874   0.868   5.025  0.1635  0.5352  0.4548
38349SOL    HW120367   2.910   0.954   5.047  0.4509  0.4806  0.2047
38349SOL    HW220368   2.818   0.884   4.949 -1.6477  0.9058  1.7934
38350SOL     OW20369   7.638   1.150   8.665  0.4573 -0.0311  0.0829
38350SOL    HW120370   7.544   1.153   8.683  0.0573 -0.2720 -1.7720
38350SOL    HW220371   7.671   1.236   8.691  0.1205 -0.5400  2.4770
38351SOL     OW20372   2.259   1.140   8.071  0.7102 -0.0349  0.3662
38351SOL    HW120373   2.238   1.133   8.164  0.8690 -0.1369  0.3962
38351SOL    HW220374   2.295   1.055   8.048  0.9460  0.0850  0.2839
38352SOL     OW20375   5.541   8.377   7.170 -0.0493 -0.1044 -0.5044
38352SOL    HW120376   5.587   8.375   7.086  0.5189  1.9965 -0.2962
38352SOL    HW220377   5.464   8.432   7.153 -0.2517 -0.1697  0.1967
38353SOL     OW20378   5.806   8.018  10.614  0.3893 -0.2122  0.0201
38353SOL    HW120379   5.886   7.994  10.569  0.0908  0.3767 -0.8708
38353SOL    HW220380   5.834   8.052  10.698  1.1090  0.3140 -0.4230
38354SOL     OW20381   1.963   5.811   1.530  0.1327  0.1477  0.2974
38354SOL    HW120382   1.997   5.740   1.476 -1.1538  0.7311 -1.3529
38354SOL    HW220383   2.012   5.804   1.612  2.2070 -0.7242 -0.9485
38355SOL     OW20384   3.246   5.744   0.979 -0.2938  0.1582 -0.1797
38355SOL    HW120385   3.188   5.811   1.015  0.4761  1.6666 -1.5882
38355SOL    HW220386   3.196   5.663   0.986 -1.4156  0.9191  1.2392
38356SOL     OW20387  10.845   3.004  11.742 -0.1659  0.9629 -0.0588
38356SOL    HW120388  10.816   2.973  11.657 -1.2631  0.1949  0.5745
38356SOL    HW220389  10.917   2.946  11.766  0.7817  1.7753 -0.8601
38357SOL     OW20390   6.448   7.829   9.338 -0.7458  0.6048  0.2144
38357SOL    HW120391   6.526   7.855   9.288 -0.8617 -0.8266 -0.7746
38357SOL    HW220392   6.464   7.863   9.426  1.0959  0.1967  0.0837
38358SOL     OW20393   5.181  10.032  10.282 -0.3880 -0.0033  0.5529
38358SOL    HW120394   5.154  10.070  10.366 -1.0469 -0.5652  0.6050
38358SOL    HW220395   5.115  10.062  10.220 -0.8813 -0.9881  0.5835
38359SOL     OW20396   9.161   6.383   6.328 -0.1654  0.3643  0.2181
38359SOL    HW120397   9.161   6.477   6.309 -0.8397  0.1247 -1.1420
38359SOL    HW220398   9.068   6.363   6.343 -0.1278 -0.2182 -0.3077
38360SOL     OW20399  10.362  11.679   4.417  0.2330 -0.3298 -0.1704
38360SOL    HW120400  10.300  11.654   4.348  0.7940  1.5524 -1.4371
38360SOL    HW220401  10.319  11.750   4.464  0.4358 -0.6592  0.5179
38361SOL     OW20402   6.282   1.455   4.902  0.3320  0.6648 -0.4406
38361SOL    HW120403   6.367   1.457   4.857  0.5605 -2.4689 -0.4396
38361SOL    HW220404   6.301   1.482   4.991  0.8833  2.0593 -0.9665
38362SOL     OW20405  10.144  10.927   7.272  0.5106  0.0597  0.1241
38362SOL    HW120406  10.152  10.959   7.182  0.8533 -1.5130 -0.4394
38362SOL    HW220407  10.171  11.001   7.327  1.0796  0.7797 -1.0945
38363SOL     OW20408   2.438   2.302   0.093 -0.3507  0.3613  0.5924
38363SOL    HW120409   2.426   2.395   0.072 -0.3106  0.8263  2.4573
38363SOL    HW220410   2.478   2.302   0.180  1.6760 -1.3775 -0.2367
38364SOL     OW20411   3.417   1.860   5.770  0.0159 -0.0011  0.8093
38364SOL    HW120412   3.389   1.834   5.858 -2.6611  1.8519  0.6476
38364SOL    HW220413   3.340   1.845   5.715  0.9116  0.8865 -0.7696
38365SOL     OW20414   6.628   4.923  11.052  0.0499 -0.2588 -0.1461
38365SOL    HW120415   6.697   4.934  10.986 -0.8915 -0.6101 -1.2235
38365SOL    HW220416   6.587   5.009  11.059 -0.5614 -0.4714 -0.8696
38366SOL     OW20417  11.619   1.136   1.584 -0.1454 -0.2792  0.1909
38366SOL    HW120418  11.683   1.133   1.655  0.5349 -0.7134 -0.4357
38366SOL    HW220419  11.607   1.229   1.566 -0.7306 -0.1309  1.2257
38367SOL     OW20420   4.390   0.977   8.359  0.2637 -0.5813 -0.4784
38367SOL    HW120421   4.395   0.896   8.410  0.3152  0.3774  1.1002
38367SOL    HW220422   4.321   0.961   8.295 -0.3714 -1.5373  0.4257
38368SOL     OW20423   0.579  10.060   9.383 -0.3165 -0.7841 -0.0952
38368SOL    HW120424   0.566  10.017   9.299  0.4623 -0.8699 -0.1757
38368SOL    HW220425   0.624   9.995   9.437 -3.7731 -2.0383  1.5593
38369SOL     OW20426  11.648   3.927   0.880 -0.2452  0.1951  0.1856
38369SOL    HW120427  11.662   4.009   0.833 -2.0397  0.3007 -0.2219
38369SOL    HW220428  11.660   3.951   0.972  0.8549  0.5214 -0.0167
38370SOL     OW20429   5.816   2.934  11.213  0.0569 -0.1603 -0.4772
38370SOL    HW120430   5.731   2.961  11.248 -0.6746 -1.0902 -1.4654
38370SOL    HW220431   5.803   2.931  11.119  1.5785  0.9300 -0.7493
38371SOL     OW20432   0.863   6.415   3.344 -0.4336 -0.3945 -0.3718
38371SOL    HW120433   0.957   6.434   3.340 -0.5714  0.5725  0.5063
38371SOL    HW220434   0.822   6.500   3.356 -1.4762 -0.7558 -1.2299
38372SOL     OW20435   7.716   8.228   5.536  0.1640  0.5084  0.3615
38372SOL    HW120436   7.792   8.171   5.553 -0.2563  0.7947  3.8545
38372SOL    HW220437   7.732   8.305   5.591 -2.5269  0.6618  1.0282
38373SOL     OW20438   5.706   7.511  11.784 -0.2943  0.0976  0.4094
38373SOL    HW120439   5.678   7.600  11.807 -0.5272  0.2040 -0.2895
38373SOL    HW220440   5.715   7.467  11.869 -0.9423  0.5567  0.7266
38374SOL     OW20441   0.820   0.258   5.527 -0.0949  0.2875 -0.4794
38374SOL    HW120442   0.825   0.218   5.613  0.8175  1.9311  0.2756
38374SOL    HW220443   0.844   0.350   5.541  0.8410  0.4369 -2.5829
38375SOL     OW20444  11.515   4.039  10.205  0.0991  0.0767  0.2023
38375SOL    HW120445  11.545   4.006  10.121 -0.2052 -0.9097  0.4704
38375SOL    HW220446  11.550   3.977  10.269 -0.6648  0.1428  0.7009
38376SOL     OW20447   9.662   4.130   3.521  0.4074  0.2167  1.0323
38376SOL    HW120448   9.641   4.038   3.535 -2.6504  0.5756 -0.5550
38376SOL    HW220449   9.733   4.129   3.456 -0.6856 -1.0437 -0.1993
38377SOL     OW20450  11.549   5.042  11.231  0.1859  0.4775 -0.1541
38377SOL    HW120451  11.638   5.008  11.243 -0.6773 -1.7071  0.5100
38377SOL    HW220452  11.510   4.986  11.164 -0.8612  1.0897 -0.0862
38378SOL     OW20453  10.910   9.099   6.137  0.3649 -0.9287 -0.1687
38378SOL    HW120454  10.846   9.087   6.067 -0.0341 -1.7111  0.3127
38378SOL    HW220455  10.982   9.145   6.096 -1.4119  2.0561 -0.2285
38379SOL     OW20456   6.909   6.940   4.916 -0.3767  0.5157 -0.0691
38379SOL    HW120457   6.992   6.914   4.877 -1.3411 -0.6244 -1.4439
38379SOL    HW220458   6.930   6.953   5.009  1.3495  0.3773 -0.3979
38380SOL     OW20459   4.966   3.065   9.250 -0.2792 -0.3358 -0.0690
38380SOL    HW120460   4.958   3.035   9.341  1.1233 -0.0690  0.1720
38380SOL    HW220461   4.886   3.035   9.208 -1.0317 -0.3273  1.2909
38381SOL     OW20462   9.420   8.100   7.665  0.4791  0.0764 -0.4339
38381SOL    HW120463   9.326   8.115   7.660  0.4876  0.0185 -0.8436
38381SOL    HW220464   9.445   8.129   7.752  0.0611 -0.0153 -0.2829
38382SOL     OW20465   4.742  11.113   2.287 -0.1726  0.3537 -0.6881
38382SOL    HW120466   4.838  11.112   2.288 -0.1724  0.3989 -0.6807
38382SOL    HW220467   4.717  11.094   2.377 -0.1658  1.3802 -0.4553
38383SOL     OW20468   0.642  10.140   0.691  0.0041 -0.1107  0.1744
38383SOL    HW120469   0.731  10.109   0.704 -0.2900 -0.1742  2.4795
38383SOL    HW220470   0.615  10.102   0.608  0.9958 -2.8684  1.0015
38384SOL     OW20471   5.247   8.982   6.298 -0.1514 -0.0495  0.2453
38384SOL    HW120472   5.187   9.034   6.351 -0.0504 -0.3565  0.6750
38384SOL    HW220473   5.329   8.983   6.348 -0.2850 -1.0120  0.5060
38385SOL     OW20474   0.817   9.192   7.043 -0.2299  0.1602  0.0775
38385SOL    HW120475   0.875   9.129   6.999  0.3156  1.3254 -0.9433
38385SOL    HW220476   0.736   9.189   6.993  0.0598  0.7869 -0.4558
38386SOL     OW20477   4.419  11.561   8.066  0.0284  0.0333  0.7208
38386SOL    HW120478   4.442  11.643   8.110  2.9037 -0.1240 -0.3350
38386SOL    HW220479   4.493  11.503   8.080 -1.4345 -2.0466  0.4456
38387SOL     OW20480   7.749   7.665   1.182 -0.0620  0.2917  0.3574
38387SOL    HW120481   7.758   7.617   1.100 -1.9912 -0.0468  0.3145
38387SOL    HW220482   7.684   7.732   1.164 -1.0199 -0.2100  1.7774
38388SOL     OW20483   5.636  10.649   9.924 -0.1326 -0.3610 -0.0398
38388SOL    HW120484   5.644  10.654   9.829 -1.0571  2.1492 -0.0695
38388SOL    HW220485   5.555  10.696   9.945  0.7387  0.3823  2.0433
38389SOL     OW20486  11.630   8.984   4.626 -0.0357 -0.3964  0.4422
38389SOL    HW120487  11.698   8.958   4.564 -0.9436 -0.1600 -0.6973
38389SOL    HW220488  11.601   9.070   4.594  0.0092  0.0946  1.6673
38390SOL     OW20489   2.886  10.300   9.000  0.3782  0.4505  0.3898
38390SOL    HW120490   2.818  10.235   9.014 -0.0827  0.8586  0.0863
38390SOL    HW220491   2.955  10.254   8.952  0.1644  0.1273  0.3953
38391SOL     OW20492   0.788  10.096   8.789  0.6211 -0.3946  0.4707
38391SOL    HW120493   0.835  10.121   8.709 -2.3702 -2.3892 -2.1588
38391SOL    HW220494   0.842  10.027   8.827  1.2023 -0.7465 -0.9232
38392SOL     OW20495   3.369   1.480   3.172 -0.7150 -0.5661 -0.1593
38392SOL    HW120496   3.293   1.491   3.116 -1.2072  1.6488  0.8699
38392SOL    HW220497   3.341   1.417   3.239 -1.9875  0.8797  0.7190
38393SOL     OW20498   0.055   2.978   7.838  0.0843  0.0243  0.0739
38393SOL    HW120499   0.090   2.972   7.927 -0.4766 -0.5589  0.2654
38393SOL    HW220500  -0.027   2.929   7.841  0.5288 -0.8379 -1.0086
38394SOL     OW20501   8.956   8.240   7.205 -0.6696  0.1685  0.5528
38394SOL    HW120502   8.899   8.313   7.230 -1.5154  0.3144 -1.5765
38394SOL    HW220503   8.899   8.164   7.205 -1.0177  0.3509 -1.8235
38395SOL     OW20504  10.151   2.916   6.235 -0.1844  0.2365 -0.0657
38395SOL    HW120505  10.072   2.967   6.252 -0.6956 -0.0729 -1.3962
38395SOL    HW220506  10.192   2.960   6.161 -0.1790 -0.7799 -0.6799
38396SOL     OW20507   5.586   5.514   4.915 -0.3466 -0.4484  0.2490
38396SOL    HW120508   5.560   5.453   4.985 -0.6915 -0.2128  0.3302
38396SOL    HW220509   5.549   5.598   4.942 -1.9741 -0.6985 -1.0683
38397SOL     OW20510   5.411   5.240   5.255  0.0978  0.3704  0.2741
38397SOL    HW120511   5.477   5.308   5.240  0.8309 -0.4607 -0.3193
38397SOL    HW220512   5.454   5.158   5.231 -0.2040 -0.5415  2.5783
38398SOL     OW20513   7.462   9.526   0.406 -0.1374 -0.1226  0.1308
38398SOL    HW120514   7.527   9.591   0.433 -0.1881 -0.5667  1.4036
38398SOL    HW220515   7.489   9.445   0.449 -0.0098 -1.0113 -1.5096
38399SOL     OW20516   4.971   4.362  10.727 -0.5584 -0.0209  0.4905
38399SOL    HW120517   4.961   4.281  10.777  3.5245 -1.7165 -0.9982
38399SOL    HW220518   4.911   4.351  10.653 -0.4798 -1.4286  0.6002
38400SOL     OW20519   3.025   2.440   7.366 -0.1710 -0.1791 -0.0893
38400SOL    HW120520   3.011   2.528   7.331  1.5980 -0.2575 -1.0908
38400SOL    HW220521   2.937   2.409   7.388 -0.9116  1.5050 -0.5103
38401SOL     OW20522   2.364  11.399   1.695 -0.4806  0.4651 -0.1033
38401SOL    HW120523   2.335  11.446   1.773 -0.8928  0.0414  0.0037
38401SOL    HW220524   2.387  11.312   1.726  1.0979  0.8229 -0.1533
38402SOL     OW20525   9.011   2.208   7.051 -0.0227  0.2422 -0.2975
38402SOL    HW120526   9.085   2.200   7.111  2.1000  1.7373 -2.5404
38402SOL    HW220527   9.021   2.133   6.991 -1.2528 -0.3954  0.2528
38403SOL     OW20528   5.604   0.636   3.652  0.3421  0.1277 -0.7320
38403SOL    HW120529   5.570   0.700   3.588 -1.0321  0.3184  0.1524
38403SOL    HW220530   5.573   0.668   3.737  0.9407 -0.8949 -0.1088
38404SOL     OW20531   6.629   1.555   9.169 -0.1127 -0.0516 -0.2165
38404SOL    HW120532   6.712   1.508   9.174  0.0305  0.2673  0.5150
38404SOL    HW220533   6.597   1.538   9.080  0.4166 -0.7076 -0.2873
38405SOL     OW20534   1.386   0.424   1.770  1.1630  0.9387 -0.7525
38405SOL    HW120535   1.308   0.478   1.779  0.1382 -0.6566  0.6965
38405SOL    HW220536   1.432   0.433   1.854  0.7556 -0.6862 -0.3171
38406SOL     OW20537  10.555   9.012  11.525  0.0546  0.2535 -0.0806
38406SOL    HW120538  10.610   8.993  11.601  1.4221  0.0906 -1.0702
38406SOL    HW220539  10.523   9.101  11.540  1.1849  0.6232  0.1855
38407SOL     OW20540   6.848   9.328   9.085  0.2544  0.2989 -0.5910
38407SOL    HW120541   6.806   9.412   9.064  3.7925  2.9771  1.7235
38407SOL    HW220542   6.892   9.302   9.004 -1.6751  0.0525 -1.6165
38408SOL     OW20543   6.515   0.221   5.734  0.8350  0.0628 -0.3173
38408SOL    HW120544   6.447   0.285   5.714  1.3683  0.2682 -1.6024
38408SOL    HW220545   6.505   0.154   5.666 -0.0734 -1.5415  1.3333
38409SOL     OW20546  11.791   0.741  11.595  0.3953 -0.7594 -0.1812
38409SOL    HW120547  11.799   0.773  11.505 -3.6141  1.1599 -0.0680
38409SOL    HW220548  11.735   0.664  11.587 -0.4612 -0.2383  0.6701
38410SOL     OW20549   1.151   5.858  10.748 -0.0163 -0.1169 -0.3845
38410SOL    HW120550   1.223   5.796  10.746  1.8650  1.9549 -0.7576
38410SOL    HW220551   1.090   5.827  10.682  1.2258 -1.1493 -1.0758
38411SOL     OW20552   8.120  11.125   3.230  0.3416  0.2729  0.3769
38411SOL    HW120553   8.171  11.155   3.305 -0.6274  1.0211  0.7503
38411SOL    HW220554   8.061  11.198   3.211 -0.7756 -0.6842  0.1121
38412SOL     OW20555   2.797   4.723   6.095 -0.2088  0.6336 -0.6660
38412SOL    HW120556   2.879   4.704   6.142 -0.3720  0.1781 -0.5632
38412SOL    HW220557   2.825   4.751   6.008  0.0490  0.3304 -0.6807
38413SOL     OW20558   0.498   9.964   9.134  0.1848 -0.2522  0.3641
38413SOL    HW120559   0.538  10.032   9.080  0.4011 -0.8390 -0.2464
38413SOL    HW220560   0.419   9.940   9.086 -0.6936  0.6121  1.3560
38414SOL     OW20561   3.660  10.085   9.169  0.2352  0.6436 -0.0897
38414SOL    HW120562   3.630  10.065   9.080  0.4734  0.3583 -0.1050
38414SOL    HW220563   3.593  10.145   9.203 -0.2953  0.1052 -0.1632
38415SOL     OW20564   1.287   0.570   2.143  0.4067 -0.7557 -0.3869
38415SOL    HW120565   1.192   0.559   2.141  0.4184 -0.9831 -2.8526
38415SOL    HW220566   1.305   0.641   2.081  1.6796  1.6223  2.4651
38416SOL     OW20567  10.655   1.101   8.309 -0.4331 -0.2292  0.4001
38416SOL    HW120568  10.601   1.042   8.362 -0.3758 -0.9112 -0.2831
38416SOL    HW220569  10.651   1.185   8.355  0.9603 -1.1792  2.4278
38417SOL     OW20570   8.132   0.308   9.350  0.5109 -0.2308  0.1382
38417SOL    HW120571   8.206   0.291   9.408  2.0003  1.5740 -1.1174
38417SOL    HW220572   8.170   0.353   9.275 -1.5008 -1.4652 -1.7650
38418SOL     OW20573   0.488   9.849   7.511 -0.2109  0.4399 -0.4253
38418SOL    HW120574   0.521   9.782   7.451 -2.9303 -0.4276 -1.1138
38418SOL    HW220575   0.478   9.803   7.594 -2.2017 -0.1440 -0.9307
38419SOL     OW20576   3.493   6.434   6.531  0.1048 -0.0255 -0.0234
38419SOL    HW120577   3.479   6.419   6.625 -1.8659 -0.5672 -0.3665
38419SOL    HW220578   3.484   6.529   6.521 -0.7517 -0.0759  0.1884
38420SOL     OW20579   4.794   4.880   9.217  0.1142 -0.3595 -0.0231
38420SOL    HW120580   4.866   4.820   9.197  0.0771 -0.6763  0.7465
38420SOL    HW220581   4.804   4.898   9.310  0.4327  1.2524 -0.3461
38421SOL     OW20582   7.836   8.724   0.648  0.1755  0.2734  0.2508
38421SOL    HW120583   7.866   8.786   0.714  0.0434  0.2663  0.3176
38421SOL    HW220584   7.851   8.638   0.687  0.0699  0.2698  0.2834
38422SOL     OW20585   6.942   5.180   7.171 -0.4364 -0.3312  0.6458
38422SOL    HW120586   6.852   5.173   7.202 -1.0860 -4.0585 -1.5137
38422SOL    HW220587   6.976   5.259   7.214 -4.8324  1.6021  1.1021
38423SOL     OW20588   6.953   0.159  11.673  0.3977  0.3806 -0.0597
38423SOL    HW120589   6.980   0.080  11.626  0.3457  0.0247  0.4948
38423SOL    HW220590   6.859   0.148  11.687  0.5447  0.1456  0.7523
38424SOL     OW20591  11.167   0.651   7.270 -0.1175 -0.0342 -0.0595
38424SOL    HW120592  11.205   0.606   7.195 -0.0759  0.3424 -0.2674
38424SOL    HW220593  11.074   0.631   7.266 -0.0086 -0.6285  0.2193
38425SOL     OW20594   4.212  10.035   7.784  0.3190 -0.4748  0.4362
38425SOL    HW120595   4.129  10.050   7.828  0.5769 -1.3460  1.2610
38425SOL    HW220596   4.266   9.990   7.849  1.2745 -0.3413 -0.2385
38426SOL     OW20597   8.124  11.793   1.559 -0.1222  0.7983 -0.0944
38426SOL    HW120598   8.048  11.830   1.603 -1.3929  2.5342 -3.3649
38426SOL    HW220599   8.097  11.706   1.532  0.0843  0.3613  1.0527
38427SOL     OW20600   9.065   7.241   9.780  0.6486  0.5187 -0.7806
38427SOL    HW120601   9.092   7.190   9.856  1.9575  0.2763 -1.3945
38427SOL    HW220602   9.084   7.186   9.705  0.8179  1.3628 -1.3765
38428SOL     OW20603  11.631   6.679  10.374 -0.1438 -0.7687  0.4352
38428SOL    HW120604  11.535   6.689  10.373 -0.0796 -0.2177 -0.2799
38428SOL    HW220605  11.654   6.658  10.283  0.4606 -0.5346  0.5343
38429SOL     OW20606   3.148   9.619   9.167  0.2064 -0.1363 -0.4026
38429SOL    HW120607   3.123   9.526   9.169 -0.4715  0.0483  0.0636
38429SOL    HW220608   3.120   9.653   9.252  0.5635  0.4754 -0.5232
38430SOL     OW20609   3.150   3.884   8.407  0.3659 -0.1217 -0.0616
38430SOL    HW120610   3.198   3.836   8.474 -0.2738 -2.4036 -1.1512
38430SOL    HW220611   3.132   3.820   8.339 -1.2455  1.4806 -1.2552
38431SOL     OW20612   2.352   5.583   2.809  0.2473 -0.1761 -0.5827
38431SOL    HW120613   2.395   5.662   2.777  2.0946 -0.7545  0.3525
38431SOL    HW220614   2.420   5.516   2.806 -1.6830 -2.2240 -2.9195
38432SOL     OW20615   2.894  11.225   0.564  0.1940 -0.4589 -0.5771
38432SOL    HW120616   2.815  11.231   0.618 -1.1703  0.1530 -2.5280
38432SOL    HW220617   2.901  11.132   0.542 -0.6030 -0.3780 -1.2218
38433SOL     OW20618   2.414   7.880   2.717  0.3932 -0.0309  0.2418
38433SOL    HW120619   2.373   7.897   2.632  0.1676 -0.4088  0.2717
38433SOL    HW220620   2.341   7.868   2.777  0.5287 -1.3236  0.1752
38434SOL     OW20621   2.966   5.504   4.058  0.5734 -0.4793 -0.3075
38434SOL    HW120622   3.040   5.514   4.118 -0.3388  2.2133  0.5315
38434SOL    HW220623   2.963   5.587   4.010 -1.9494 -0.4412 -0.2095
38435SOL     OW20624   5.664  10.863   0.193 -0.2090  0.0710  0.1052
38435SOL    HW120625   5.594  10.906   0.144  0.1408  0.5690  0.0391
38435SOL    HW220626   5.744  10.888   0.148  0.0698  0.0617  0.5934
38436SOL     OW20627  11.307   3.049   5.293 -0.1341  0.6252  0.0354
38436SOL    HW120628  11.270   3.131   5.259  0.0888  0.1246 -1.4600
38436SOL    HW220629  11.246   3.024   5.363 -2.3791  0.1355 -1.9645
38437SOL     OW20630   1.640   9.355   6.162  0.1052  0.4826  0.1745
38437SOL    HW120631   1.690   9.423   6.207  0.0185  2.0611 -1.9580
38437SOL    HW220632   1.702   9.284   6.147  1.1061  1.4455 -0.3746
38438SOL     OW20633  10.411   0.043   7.932 -0.5604  0.1031 -0.0112
38438SOL    HW120634  10.346   0.113   7.925 -0.0656  0.4456 -1.5599
38438SOL    HW220635  10.492   0.083   7.900  0.2463 -0.5611  1.1176
38439SOL     OW20636   4.850  11.307  11.505  0.2486 -0.3420  0.1173
38439SOL    HW120637   4.792  11.325  11.579 -1.6814  1.3547 -1.6637
38439SOL    HW220638   4.898  11.229  11.531 -3.7494 -2.7265  1.2862
38440SOL     OW20639   2.210   8.059   3.744  0.3567  0.3446  0.8879
38440SOL    HW120640   2.268   8.126   3.779 -1.0979  3.0071 -1.3915
38440SOL    HW220641   2.262   8.014   3.677  0.2328  1.9950 -0.3880
38441SOL     OW20642  11.749   5.084   8.337 -0.2648  0.3376  0.2914
38441SOL    HW120643  11.774   5.044   8.254 -0.5021  0.2774  0.2461
38441SOL    HW220644  11.804   5.162   8.344 -0.3312  0.4121  0.0148
38442SOL     OW20645   9.044   0.038   8.252  0.1071 -0.3216 -0.1096
38442SOL    HW120646   9.030  -0.054   8.228 -0.3819 -0.5226  0.8856
38442SOL    HW220647   9.037   0.039   8.348  1.0885  0.5983 -0.0365
38443SOL     OW20648  10.050   6.485   1.345  0.1370  0.0832 -0.1654
38443SOL    HW120649  10.027   6.401   1.383  0.2746 -0.2198 -0.7305
38443SOL    HW220650  10.146   6.485   1.342  0.3009  1.4406  2.4099
38444SOL     OW20651   3.941   2.962   8.336 -0.2398  0.3444 -0.7883
38444SOL    HW120652   4.036   2.954   8.329 -0.0398  0.1943  1.4534
38444SOL    HW220653   3.913   2.994   8.250  1.9234  1.2908 -1.1912
38445SOL     OW20654   8.679   4.980  10.012  0.3141 -0.2048  0.1001
38445SOL    HW120655   8.619   4.912   9.983  0.4705 -0.5117  0.4946
38445SOL    HW220656   8.752   4.977   9.950 -0.1626  0.3015 -0.5000
38446SOL     OW20657   1.596   5.464  10.548 -0.1153 -0.2579 -0.1845
38446SOL    HW120658   1.628   5.549  10.579 -1.5077  0.2071  0.0311
38446SOL    HW220659   1.546   5.429  10.621 -2.3675  0.2712 -1.3961
38447SOL     OW20660   4.835  11.083   3.175  0.0117  0.1812  0.3067
38447SOL    HW120661   4.741  11.099   3.168 -0.3240 -1.7338 -0.1021
38447SOL    HW220662   4.843  10.988   3.175  2.0770  0.2956 -1.3023
38448SOL     OW20663   5.260   1.094   1.517  0.1869  0.3521  0.2104
38448SOL    HW120664   5.313   1.148   1.575 -0.1444  1.0777 -0.1432
38448SOL    HW220665   5.307   1.012   1.510  1.4539  1.1013 -0.3779
38449SOL     OW20666   0.014   6.012  11.018  0.1086  0.2169  0.0040
38449SOL    HW120667   0.012   6.068  10.940 -1.3512  0.3376  0.1117
38449SOL    HW220668   0.096   6.036  11.061  1.0421  0.0172 -1.5687
38450SOL     OW20669   8.683   0.989   2.374 -0.1034 -0.2109 -0.8590
38450SOL    HW120670   8.690   0.900   2.340  3.1195 -0.0332 -0.9963
38450SOL    HW220671   8.675   1.044   2.296  0.5154 -0.2474 -0.9558
38451SOL     OW20672   8.532   9.092   8.791  0.7807  0.2008 -0.2474
38451SOL    HW120673   8.611   9.078   8.843 -1.1076  2.3965  3.7912
38451SOL    HW220674   8.541   9.180   8.756  0.2437  0.4052  0.1057
38452SOL     OW20675   4.832   3.518   9.231 -0.4341 -0.1824  0.4073
38452SOL    HW120676   4.872   3.568   9.160 -0.3542 -0.2009  0.4386
38452SOL    HW220677   4.868   3.557   9.311 -1.0908  0.3304  0.4650
38453SOL     OW20678   8.651   6.098   6.903  0.1173  0.1681  0.2505
38453SOL    HW120679   8.662   6.007   6.931 -0.6907 -0.2131 -0.6249
38453SOL    HW220680   8.630   6.092   6.810 -0.9412  1.2028  0.4048
38454SOL     OW20681   3.657   0.413   4.186  0.1318  0.1836  0.1039
38454SOL    HW120682   3.693   0.389   4.101 -1.1636  3.0221 -1.3902
38454SOL    HW220683   3.734   0.439   4.238  0.8223 -0.2252 -0.7014
38455SOL     OW20684  11.105  11.295   3.520  0.1904 -0.2113  0.0480
38455SOL    HW120685  11.146  11.381   3.532  0.4568 -0.3999  0.5127
38455SOL    HW220686  11.012  11.316   3.505  0.1130  0.1304  0.9277
38456SOL     OW20687   9.108   5.256   9.002 -0.2265 -0.1127 -0.3458
38456SOL    HW120688   9.020   5.290   9.019 -0.7051 -1.3036 -0.3687
38456SOL    HW220689   9.127   5.201   9.077 -0.7795 -2.3341 -1.7557
38457SOL     OW20690   2.829   2.887   1.951  0.0207 -0.1641  0.0394
38457SOL    HW120691   2.768   2.835   1.899 -3.2506  3.0124  0.3785
38457SOL    HW220692   2.877   2.822   2.003 -0.5004 -3.0481 -2.7836
38458SOL     OW20693   7.599  11.640   4.879 -0.0252  0.2406 -0.0939
38458SOL    HW120694   7.558  11.709   4.931  0.2244  0.1097  0.2825
38458SOL    HW220695   7.653  11.687   4.815 -0.6760  0.4111 -0.5275
38459SOL     OW20696  10.098   8.102   1.053 -0.1647  0.2646 -0.5252
38459SOL    HW120697  10.163   8.074   1.116  0.7017  1.4341 -0.8516
38459SOL    HW220698  10.023   8.129   1.106  0.4170  0.8917  0.0001
38460SOL     OW20699   9.046   6.474   8.536  0.0909  0.3199 -0.2063
38460SOL    HW120700   9.033   6.399   8.478  0.1683  0.6650 -0.6665
38460SOL    HW220701   8.977   6.466   8.602 -1.1524  0.9544 -1.3946
38461SOL     OW20702   7.002   9.427   3.780  0.2499 -0.6355  0.4592
38461SOL    HW120703   7.032   9.369   3.849 -0.0058 -1.4827 -0.1302
38461SOL    HW220704   7.025   9.515   3.810 -0.6651 -0.9051  2.0403
38462SOL     OW20705   7.731   0.403   6.548  0.3636 -0.0760 -0.1269
38462SOL    HW120706   7.672   0.464   6.594  0.3781  0.5060 -0.8483
38462SOL    HW220707   7.726   0.322   6.599 -1.4481 -0.2098 -0.4254
38463SOL     OW20708   3.565  11.336  10.046 -1.0384 -0.4572 -0.3989
38463SOL    HW120709   3.518  11.291  10.116  0.9122 -0.0295  1.2789
38463SOL    HW220710   3.603  11.265   9.994 -0.0206 -0.8172  0.7780
38464SOL     OW20711  10.674   9.303   5.220 -0.2666  0.0023  0.4760
38464SOL    HW120712  10.680   9.384   5.170  1.7920 -0.2292  0.2464
38464SOL    HW220713  10.647   9.237   5.156 -0.5410  0.2421  0.3413
38465SOL     OW20714   0.772   4.339   4.669  0.5984 -0.4060 -0.0792
38465SOL    HW120715   0.779   4.406   4.601  0.5039  0.0035  0.3170
38465SOL    HW220716   0.861   4.332   4.704  0.4357  0.1032  0.4436
38466SOL     OW20717   3.750   8.972   6.615  0.1780  0.6565 -0.3885
38466SOL    HW120718   3.815   9.037   6.642  0.5001 -0.2954  1.2129
38466SOL    HW220719   3.748   8.980   6.519  2.9119  0.4823 -0.5490
38467SOL     OW20720  11.826   7.321   0.540  0.0966 -0.0299 -0.2088
38467SOL    HW120721  11.758   7.285   0.597  0.6116  1.7133  1.6393
38467SOL    HW220722  11.808   7.282   0.454 -1.0555 -2.3544  0.9790
38468SOL     OW20723   6.537   0.509   8.508 -0.0135 -0.2063  0.1037
38468SOL    HW120724   6.514   0.485   8.418  2.0001  2.1848 -1.1840
38468SOL    HW220725   6.501   0.597   8.519 -1.2409 -0.9066  2.1282
38469SOL     OW20726   5.580   5.005   5.197 -0.2972  0.1594  0.6916
38469SOL    HW120727   5.605   4.949   5.270  1.5648 -0.4697 -0.3539
38469SOL    HW220728   5.626   4.968   5.122 -3.5374 -0.3616 -1.2431
38470SOL     OW20729   7.250   0.831  10.318  0.4477  0.3962 -0.4080
38470SOL    HW120730   7.259   0.819  10.412  1.2532 -2.0401 -0.7043
38470SOL    HW220731   7.263   0.924  10.304 -0.5763  0.9540  1.9525
38471SOL     OW20732   9.551   2.684   1.958 -0.7650 -0.0744  0.4716
38471SOL    HW120733   9.501   2.603   1.955  0.6799 -0.9545 -0.5771
38471SOL    HW220734   9.640   2.658   1.981 -0.3275  1.2428  0.3921
38472SOL     OW20735   4.238  11.043  10.213  0.0793 -0.5448  0.2416
38472SOL    HW120736   4.145  11.066  10.221 -0.2938 -0.3206 -3.1544
38472SOL    HW220737   4.245  11.001  10.127  2.8557 -2.2436  1.1657
38473SOL     OW20738   0.723  10.070   6.308  0.8033 -0.1529 -0.2093
38473SOL    HW120739   0.646  10.120   6.279 -0.3221 -1.6341  0.1223
38473SOL    HW220740   0.796  10.130   6.294 -0.3093  1.0449 -1.2363
38474SOL     OW20741   8.818   2.918   5.290  1.0025 -0.1378  0.2752
38474SOL    HW120742   8.835   2.842   5.344 -2.3396 -0.3849  1.1651
38474SOL    HW220743   8.843   2.891   5.201 -0.2613 -2.3635  0.5454
38475SOL     OW20744  11.001   4.981   1.888 -0.7004  0.1323 -0.0081
38475SOL    HW120745  11.055   5.039   1.942  0.1859 -0.1626 -0.5513
38475SOL    HW220746  10.969   4.915   1.949 -0.2732  0.1924  0.2894
38476SOL     OW20747  10.198   8.220   9.654  0.0742  0.4730 -0.3129
38476SOL    HW120748  10.154   8.158   9.711  0.9647  0.1722  0.0679
38476SOL    HW220749  10.132   8.246   9.590  0.2843 -2.6225 -1.9314
38477SOL     OW20750   3.032   2.226  11.156  0.1295  0.1885 -0.0794
38477SOL    HW120751   3.034   2.244  11.062 -0.1124  0.6465  0.0005
38477SOL    HW220752   2.997   2.306  11.195 -3.7709 -1.3246  0.0564
38478SOL     OW20753   7.002  10.100   5.083  0.9887 -0.0125  0.1155
38478SOL    HW120754   6.985  10.028   5.023  0.8400  0.1407 -0.0269
38478SOL    HW220755   6.916  10.136   5.103  0.7375 -1.6730  2.4648
38479SOL     OW20756   8.160   3.336   3.879 -0.1605  0.4956 -0.3425
38479SOL    HW120757   8.219   3.405   3.849  1.2295 -1.2458 -1.8446
38479SOL    HW220758   8.216   3.277   3.930 -1.0087 -0.2657 -0.2583
38480SOL     OW20759   4.569   2.161   0.280 -0.0357 -0.1843  0.0441
38480SOL    HW120760   4.554   2.208   0.198 -1.5778 -0.9810 -0.1759
38480SOL    HW220761   4.662   2.137   0.277  0.4548  1.6165 -0.4528
38481SOL     OW20762   4.267  10.166   2.816 -0.0655 -0.1880  0.4351
38481SOL    HW120763   4.264  10.258   2.787  0.4624 -0.2093  0.2998
38481SOL    HW220764   4.350  10.134   2.783  0.9250 -0.0116  2.6095
38482SOL     OW20765   3.674  11.109   7.258 -0.3341 -0.2871 -0.0561
38482SOL    HW120766   3.768  11.108   7.243 -0.1638  1.6570  0.5970
38482SOL    HW220767   3.636  11.136   7.175 -0.4134 -1.6785 -0.5101
38483SOL     OW20768   9.170   7.402   4.579  0.5829  0.2563  0.4639
38483SOL    HW120769   9.083   7.377   4.610  0.8060 -2.1707 -0.5924
38483SOL    HW220770   9.177   7.360   4.493  2.2145  1.7431 -0.1806
38484SOL     OW20771   0.087   2.111   5.504  0.0119  0.0987  0.2828
38484SOL    HW120772   0.172   2.102   5.461 -0.4647 -0.7770 -0.5256
38484SOL    HW220773   0.098   2.184   5.565  0.9584  0.8285 -0.7306
38485SOL     OW20774   5.812   2.803  10.054 -0.8513 -0.1654 -0.3666
38485SOL    HW120775   5.789   2.718  10.015 -0.7482  0.2829 -1.4297
38485SOL    HW220776   5.798   2.866   9.984  1.0063  0.4672 -0.2139
38486SOL     OW20777   5.035   5.876   8.049  0.5411 -0.3772  0.1367
38486SOL    HW120778   4.971   5.894   7.980  1.3088  0.2610 -0.4191
38486SOL    HW220779   5.120   5.886   8.007  1.0285 -1.2789  0.8544
38487SOL     OW20780   9.108   5.924   6.472  0.8906 -0.1176 -0.0671
38487SOL    HW120781   9.179   5.869   6.437  0.5530 -0.5921 -0.0076
38487SOL    HW220782   9.153   6.002   6.505  1.5972 -1.2127  1.6500
38488SOL     OW20783   6.956   5.863   0.659  0.3282  0.0905  0.4412
38488SOL    HW120784   7.045   5.897   0.661 -0.4216  2.3070 -0.3812
38488SOL    HW220785   6.904   5.934   0.620 -2.1654 -0.2447  2.8175
38489SOL     OW20786   1.591   4.835   4.758  0.0676 -0.1428 -0.0531
38489SOL    HW120787   1.662   4.881   4.713 -0.5148 -0.4707 -1.3724
38489SOL    HW220788   1.519   4.837   4.695 -1.8776  2.0712  2.0582
38490SOL     OW20789  10.796   3.230   9.918  0.6266  0.1799  0.1025
38490SOL    HW120790  10.799   3.136   9.902 -1.0574  0.2281 -0.7180
38490SOL    HW220791  10.793   3.269   9.831  2.0910  1.0580  0.4163
38491SOL     OW20792   7.176   6.291   2.143  0.3979 -0.2547  0.5085
38491SOL    HW120793   7.116   6.240   2.197 -0.4756  0.8029  0.5798
38491SOL    HW220794   7.121   6.323   2.071  1.4874 -1.5158 -0.9811
38492SOL     OW20795   0.773   6.440  11.072  0.4653  0.1866  0.5996
38492SOL    HW120796   0.743   6.379  11.005  3.7889  0.0809 -0.9713
38492SOL    HW220797   0.780   6.386  11.151 -1.4503 -0.1742  0.5941
38493SOL     OW20798   6.585   1.898   4.033 -0.1721  0.5391 -0.3013
38493SOL    HW120799   6.667   1.922   4.076 -1.2124  2.7186  0.6307
38493SOL    HW220800   6.548   1.829   4.089  0.8218 -0.1989 -0.5278
38494SOL     OW20801   5.620   4.383   9.240 -0.3442 -0.3227  0.7670
38494SOL    HW120802   5.602   4.290   9.224 -2.8538  0.2112  0.0268
38494SOL    HW220803   5.667   4.412   9.162 -1.3485 -0.5608  0.0479
38495SOL     OW20804   5.991   6.626   7.398 -0.2778 -0.1093 -0.2788
38495SOL    HW120805   5.978   6.531   7.400  0.5755 -0.2533 -1.0673
38495SOL    HW220806   6.086   6.637   7.398 -0.3634  0.7244 -0.8670
38496SOL     OW20807   4.272  11.303   1.932 -0.6730  0.4480  0.0410
38496SOL    HW120808   4.180  11.327   1.920 -1.0575 -0.4978  0.9493
38496SOL    HW220809   4.274  11.208   1.919  0.5421  0.7007 -1.9603
38497SOL     OW20810   0.135   6.921   6.677 -0.5918  0.8729  0.1132
38497SOL    HW120811   0.050   6.959   6.701 -0.0563  1.9885  0.3222
38497SOL    HW220812   0.128   6.829   6.702 -1.7176  0.9593  0.1846
38498SOL     OW20813   3.396  11.175  10.532  0.0018  0.1554  0.1965
38498SOL    HW120814   3.338  11.100  10.517  0.9166 -0.5147 -0.0590
38498SOL    HW220815   3.399  11.221  10.448  0.7699 -0.4822 -0.1334
38499SOL     OW20816  10.895  11.327  11.531  0.3127  0.1297  0.3567
38499SOL    HW120817  10.837  11.276  11.474  0.5386 -2.3247  2.1499
38499SOL    HW220818  10.837  11.369  11.594  0.2008  1.4612 -0.5861
38500SOL     OW20819   0.224  10.596   3.113 -0.7416 -0.5670 -0.0613
38500SOL    HW120820   0.264  10.525   3.063  0.8198  0.7509 -0.7761
38500SOL    HW220821   0.197  10.556   3.196 -1.1608 -2.2608 -0.9788
38501SOL     OW20822   2.013   8.041   2.514  0.2793  0.4780 -0.5857
38501SOL    HW120823   1.958   7.972   2.478 -0.0634 -0.1017  0.9552
38501SOL    HW220824   1.965   8.122   2.497 -0.2305  0.1469 -0.7219
38502SOL     OW20825   6.245   7.420   4.915 -0.2796 -1.0479  0.0235
38502SOL    HW120826   6.156   7.385   4.919  0.0894 -1.9688  0.4242
38502SOL    HW220827   6.301   7.344   4.931  0.5399 -0.2437  1.0714
38503SOL     OW20828   4.295   5.552   4.523 -0.4192 -0.1259 -0.3362
38503SOL    HW120829   4.225   5.582   4.465 -0.1259 -0.0782 -0.6629
38503SOL    HW220830   4.259   5.567   4.611 -0.7109  0.1626 -0.4966
38504SOL     OW20831   2.526   0.839   1.364  0.0377  0.0242  0.2911
38504SOL    HW120832   2.608   0.837   1.315  0.5073  0.6934  1.0260
38504SOL    HW220833   2.487   0.753   1.348  1.4666 -0.7913  0.8840
38505SOL     OW20834   4.080   6.047   4.186 -0.2837 -0.0759  0.5797
38505SOL    HW120835   3.987   6.032   4.203 -0.9147  0.2610 -2.0306
38505SOL    HW220836   4.104   5.977   4.125  0.9945  0.2511  0.6839
38506SOL     OW20837   3.634   6.748   6.477  0.0281 -1.1800 -0.3193
38506SOL    HW120838   3.577   6.699   6.537 -0.8853 -0.0652 -0.2513
38506SOL    HW220839   3.674   6.816   6.531  1.0578 -1.6361 -0.4802
38507SOL     OW20840   8.439   4.594   1.077  0.1089  0.0928  0.2930
38507SOL    HW120841   8.439   4.663   1.012 -1.1434 -1.7075 -1.7477
38507SOL    HW220842   8.528   4.557   1.073 -0.0695 -0.2618 -0.7453
38508SOL     OW20843   0.711   1.527   4.469  0.0477 -0.1742 -0.0704
38508SOL    HW120844   0.706   1.431   4.463 -2.1471 -0.2317  1.4272
38508SOL    HW220845   0.804   1.546   4.474  0.5229 -2.2689  0.1655
38509SOL     OW20846   0.915   4.726   5.443 -0.0805 -0.3337  0.1849
38509SOL    HW120847   0.949   4.690   5.525  0.3833  0.8318  0.5293
38509SOL    HW220848   0.840   4.780   5.469  1.0238  1.3392  0.0883
38510SOL     OW20849   3.445   4.828   0.647  0.3308 -0.0582  0.3744
38510SOL    HW120850   3.384   4.893   0.611  0.8435  1.1471  1.5829
38510SOL    HW220851   3.497   4.800   0.572 -1.9092 -1.4089 -0.7761
38511SOL     OW20852   2.465   4.150   9.819 -0.0744 -0.3337 -0.3276
38511SOL    HW120853   2.413   4.213   9.869  0.4436 -0.4590  0.3826
38511SOL    HW220854   2.547   4.196   9.800  0.3343 -0.8111  0.2597
38512SOL     OW20855   6.991   7.330   2.926 -0.3343 -0.4116  0.3218
38512SOL    HW120856   7.037   7.296   3.002 -1.9722 -2.4823  0.5015
38512SOL    HW220857   6.899   7.332   2.953 -0.5739  2.1525 -0.4870
38513SOL     OW20858   5.840   9.184  10.705  0.2268 -1.2642  0.1391
38513SOL    HW120859   5.759   9.138  10.726  1.0807 -2.2827  1.3082
38513SOL    HW220860   5.819   9.277  10.717 -1.2060 -1.3735 -1.1970
38514SOL     OW20861   7.721   4.960   0.739  0.6537  0.3718 -0.1110
38514SOL    HW120862   7.800   4.988   0.693  0.8622  0.9341  0.5727
38514SOL    HW220863   7.751   4.890   0.797  0.1491 -1.3070 -1.7578
38515SOL     OW20864   5.958   5.518  10.034  0.0477 -0.4136 -0.0083
38515SOL    HW120865   5.991   5.472  10.111 -0.0026  0.7616  0.7293
38515SOL    HW220866   5.943   5.608  10.064 -3.0115 -0.6401 -0.4841
38516SOL     OW20867   9.707   1.864   0.929 -0.2627  0.4633  0.0737
38516SOL    HW120868   9.620   1.888   0.962  0.8672  4.2327  0.8263
38516SOL    HW220869   9.767   1.895   0.996  1.7550 -2.1305 -0.3864
38517SOL     OW20870   8.583  10.978  10.484  0.9284  0.0802  0.5417
38517SOL    HW120871   8.670  10.999  10.516  1.8474 -0.9763 -1.1174
38517SOL    HW220872   8.560  10.896  10.528  0.3868  0.7710  1.5962
38518SOL     OW20873   8.613   0.939  10.713  0.2572 -0.2441  0.3899
38518SOL    HW120874   8.606   0.938  10.808 -0.3370 -0.2235  0.3452
38518SOL    HW220875   8.529   0.907  10.681  0.4093 -0.1443 -0.1328
38519SOL     OW20876   5.571   3.621  11.173  0.3219  0.3996  0.0824
38519SOL    HW120877   5.566   3.690  11.108 -1.3789 -0.6034 -0.9206
38519SOL    HW220878   5.659   3.584  11.162  1.0603  2.0226  0.2898
38520SOL     OW20879   3.811   7.815  10.774 -0.5837 -0.4624 -0.0746
38520SOL    HW120880   3.754   7.886  10.802  0.4983  1.8752 -3.3018
38520SOL    HW220881   3.897   7.855  10.765  0.5588 -2.7233 -0.0478
38521SOL     OW20882   7.611   4.304   5.574 -0.4519 -0.9060  0.2462
38521SOL    HW120883   7.617   4.270   5.663 -1.4259  1.0282  1.1203
38521SOL    HW220884   7.697   4.341   5.557 -0.9048  0.7931  1.3552
38522SOL     OW20885   9.798  11.106   8.232 -0.2640 -0.2122  0.6268
38522SOL    HW120886   9.828  11.052   8.159 -0.9521 -2.6749  2.0510
38522SOL    HW220887   9.859  11.085   8.303 -2.1491 -1.2968  2.0163
38523SOL     OW20888   7.950   8.818   0.081  0.1278 -0.4799 -0.3399
38523SOL    HW120889   7.907   8.896   0.045  2.4526  0.8824 -0.3235
38523SOL    HW220890   7.933   8.822   0.175 -0.0620 -0.2109 -0.3835
38524SOL     OW20891  11.596   1.735  10.357  0.1312 -0.1178  0.4213
38524SOL    HW120892  11.566   1.794  10.426 -0.2983  0.0562  0.0962
38524SOL    HW220893  11.559   1.650  10.381 -0.1521 -0.0236  0.3241
38525SOL     OW20894   7.916   0.609   6.161  0.0115 -0.0861 -0.2048
38525SOL    HW120895   7.916   0.530   6.215 -0.8334 -1.0501 -1.5495
38525SOL    HW220896   8.005   0.614   6.126  0.1623 -0.2538  0.1504
38526SOL     OW20897   9.485   0.591   4.846  0.5087  0.2501  0.4312
38526SOL    HW120898   9.441   0.624   4.924  1.7273  0.9780  0.8476
38526SOL    HW220899   9.467   0.497   4.845 -2.6099  0.7466 -0.4769
38527SOL     OW20900  11.174   7.937   5.928  0.7319  0.1276 -0.3393
38527SOL    HW120901  11.099   7.930   5.870  0.1287  1.8699  0.1478
38527SOL    HW220902  11.225   7.858   5.912 -0.5670 -0.5030 -1.5765
38528SOL     OW20903   9.571   8.276   9.946 -0.2033 -0.0247 -0.9872
38528SOL    HW120904   9.605   8.218  10.015 -1.2976 -0.5373 -0.8609
38528SOL    HW220905   9.620   8.357   9.958 -0.2302 -0.1738  0.2763
38529SOL     OW20906   1.017   0.175   0.620  0.2683 -0.6522 -0.2912
38529SOL    HW120907   1.010   0.238   0.691  0.5076  0.3874 -1.1622
38529SOL    HW220908   1.101   0.195   0.578  1.0404 -2.4921  0.2785
38530SOL     OW20909   6.649   5.150   8.219 -0.4024 -0.4651  0.3197
38530SOL    HW120910   6.614   5.069   8.256  2.1794 -0.7497  2.4128
38530SOL    HW220911   6.659   5.208   8.294  1.6506  0.2717 -0.4681
38531SOL     OW20912   1.273   5.169   4.123 -0.1502  0.5867  0.0572
38531SOL    HW120913   1.250   5.244   4.177 -0.3346  0.6230 -0.0725
38531SOL    HW220914   1.324   5.112   4.181 -1.3528  0.0626  0.6221
38532SOL     OW20915   9.469   8.000   9.349  0.0186  0.2910 -0.1443
38532SOL    HW120916   9.390   7.996   9.295 -0.3750  0.5023  0.4099
38532SOL    HW220917   9.539   8.018   9.286 -0.4026  0.3287 -0.6128
38533SOL     OW20918   0.779   0.635   3.001 -0.6462 -0.0917  0.3638
38533SOL    HW120919   0.803   0.554   2.956 -1.9643 -0.1811 -0.2163
38533SOL    HW220920   0.701   0.666   2.955  0.7750  2.4684 -0.6203
38534SOL     OW20921   7.542   5.093   8.885 -0.4438  0.6784 -0.3557
38534SOL    HW120922   7.630   5.122   8.910 -1.3219  2.5120  0.8604
38534SOL    HW220923   7.493   5.091   8.967 -1.6509  0.0412 -1.0575
38535SOL     OW20924   2.677   9.492   6.883  0.0718 -0.4007  0.2708
38535SOL    HW120925   2.669   9.583   6.852 -2.5016 -0.2314  1.2528
38535SOL    HW220926   2.728   9.499   6.964 -2.0243  0.5367  1.5846
38536SOL     OW20927   3.714   5.051   5.035  0.4910 -0.7943  0.5622
38536SOL    HW120928   3.767   5.080   5.109  0.0158 -0.9970  0.9872
38536SOL    HW220929   3.624   5.070   5.062  0.3584 -0.2088 -0.2578
38537SOL     OW20930   4.373   8.039   7.369 -0.4829 -0.4797 -0.0044
38537SOL    HW120931   4.288   8.082   7.378 -0.0900  0.2089  0.4654
38537SOL    HW220932   4.387   8.033   7.274 -1.5416 -1.6051 -0.1182
38538SOL     OW20933  11.495   5.955   5.550 -0.1996 -0.0934 -0.7078
38538SOL    HW120934  11.444   5.922   5.476 -3.3976  3.8976 -0.6368
38538SOL    HW220935  11.435   5.949   5.625  1.7684 -0.9900  0.8601
38539SOL     OW20936   8.868   5.082   1.828 -0.0233  0.3892  0.0914
38539SOL    HW120937   8.931   5.032   1.776  0.0610  0.1902  0.3814
38539SOL    HW220938   8.837   5.150   1.769  2.5322  2.2607  0.7625
38540SOL     OW20939   6.821   6.459   3.286 -0.6378 -0.3787 -0.5628
38540SOL    HW120940   6.770   6.532   3.250 -0.1205  0.0639 -0.4028
38540SOL    HW220941   6.842   6.405   3.210 -1.4003 -0.6061 -0.6230
38541SOL     OW20942   6.821   2.290  10.280  0.0957  0.1260 -0.2139
38541SOL    HW120943   6.796   2.314  10.369 -2.4146 -2.5195 -0.0588
38541SOL    HW220944   6.775   2.353  10.225 -1.5256 -0.5443  0.3126
38542SOL     OW20945  10.919   5.180   2.205  0.3258  0.1692 -0.3599
38542SOL    HW120946  10.998   5.132   2.230  0.0457 -0.4147 -0.6034
38542SOL    HW220947  10.926   5.263   2.253  1.3525  0.3509 -0.8000
38543SOL     OW20948  11.126   5.578   5.545 -0.4673  0.5055 -0.2206
38543SOL    HW120949  11.086   5.513   5.487 -1.5872  1.2268 -0.2872
38543SOL    HW220950  11.214   5.544   5.561 -0.6148 -0.4211 -1.2071
38544SOL     OW20951   9.421   3.801   1.331  0.4270 -0.1946  0.1547
38544SOL    HW120952   9.365   3.754   1.270 -0.3517 -0.8045  1.2910
38544SOL    HW220953   9.472   3.861   1.277 -0.0985 -0.8492 -1.0909
38545SOL     OW20954   4.483   7.809   6.379  0.0662 -0.1802  0.0884
38545SOL    HW120955   4.531   7.840   6.302  0.1369 -0.5434 -0.0127
38545SOL    HW220956   4.402   7.860   6.378  0.6583  0.7954  0.5368
38546SOL     OW20957   3.087   3.757  10.052  0.0522  0.4936 -0.1887
38546SOL    HW120958   3.127   3.794   9.974  0.0577  2.1905  0.5631
38546SOL    HW220959   3.060   3.669  10.027  1.7693  0.3167 -1.5169
38547SOL     OW20960  10.061   8.932   0.987 -0.0709 -0.4343  0.0361
38547SOL    HW120961  10.036   8.940   1.079 -0.3184 -0.4695 -0.0285
38547SOL    HW220962  10.143   8.980   0.980 -0.1078 -0.3410  0.2531
38548SOL     OW20963   2.745  11.057   7.361  0.1074  0.1651 -0.2117
38548SOL    HW120964   2.702  11.139   7.337  2.6034  1.3042 -1.1226
38548SOL    HW220965   2.810  11.043   7.293  1.8673 -0.9149  1.5733
38549SOL     OW20966   0.558   0.721   9.394  0.3564  0.2045 -0.2175
38549SOL    HW120967   0.612   0.649   9.361 -0.0388 -0.7231  1.0681
38549SOL    HW220968   0.522   0.688   9.476 -0.1440  1.7446  0.2162
38550SOL     OW20969   9.291   0.643   2.854 -0.2272  0.3015 -0.1669
38550SOL    HW120970   9.275   0.700   2.929 -0.9080 -0.6174  0.4094
38550SOL    HW220971   9.385   0.653   2.836  0.1145 -0.0253  1.2944
38551SOL     OW20972   2.726   6.112   8.064  0.3371  0.1275  0.3529
38551SOL    HW120973   2.793   6.054   8.028  0.3231  0.0976  0.3743
38551SOL    HW220974   2.676   6.142   7.988  0.1769 -0.1015  0.3669
38552SOL     OW20975   9.034   8.550   2.989  0.1169  0.2278 -0.3426
38552SOL    HW120976   8.968   8.506   3.043  0.9466  0.2029  0.6897
38552SOL    HW220977   8.985   8.590   2.918 -0.8186 -1.2932 -0.6092
38553SOL     OW20978   8.959   1.790   4.816 -0.3500  0.0305 -0.0481
38553SOL    HW120979   8.944   1.705   4.857 -1.9353  0.1595 -0.2907
38553SOL    HW220980   8.886   1.801   4.755  1.6251  0.0688 -2.5819
38554SOL     OW20981   3.322   5.417   7.293  0.2058  0.1071  0.1085
38554SOL    HW120982   3.239   5.434   7.338  1.0950 -0.7811  2.1785
38554SOL    HW220983   3.309   5.332   7.252  0.4216 -0.5426  1.3375
38555SOL     OW20984   5.212   4.656   7.045  0.4359  0.3963 -0.2585
38555SOL    HW120985   5.237   4.701   7.125  0.4762 -0.8685  0.4632
38555SOL    HW220986   5.288   4.664   6.987  0.2837  1.5861 -0.3076
38556SOL     OW20987   7.721   2.003   9.989 -0.5606 -0.0296 -0.1442
38556SOL    HW120988   7.679   1.927   9.949  0.5882 -0.5790 -0.3557
38556SOL    HW220989   7.753   2.054   9.915  1.3173 -0.8995  0.0059
38557SOL     OW20990   4.893  11.412   7.971  0.5769 -0.1827  0.0316
38557SOL    HW120991   4.949  11.418   7.894  0.7946 -0.3398  0.1750
38557SOL    HW220992   4.954  11.395   8.044  0.5525  1.4901  0.4895
38558SOL     OW20993   7.098   2.211   1.744 -0.4177 -0.1183 -0.4138
38558SOL    HW120994   7.062   2.132   1.703 -1.2469 -0.5514  1.0704
38558SOL    HW220995   7.132   2.182   1.828 -2.8546  1.4155  1.2445
38559SOL     OW20996  10.926   9.607   8.676 -0.1517 -0.2234 -0.2771
38559SOL    HW120997  10.982   9.629   8.602 -1.0514 -1.3767 -1.3335
38559SOL    HW220998  10.868   9.538   8.644 -2.7625  1.4632  0.4727
38560SOL     OW20999   5.281   9.136   1.104 -0.3001  0.3622 -0.2501
38560SOL    HW121000   5.228   9.205   1.144  0.2582  0.3686  0.5068
38560SOL    HW221001   5.341   9.109   1.174  0.0461 -0.3069 -0.7990
38561SOL     OW21002   0.714   4.298   9.340 -0.4811  0.3048 -0.2860
38561SOL    HW121003   0.726   4.284   9.434 -2.1635 -2.3200 -0.3526
38561SOL    HW221004   0.770   4.372   9.319 -0.5360  1.3846  2.8949
38562SOL     OW21005   4.543   5.663   2.888  0.4213  0.2202 -0.0430
38562SOL    HW121006   4.580   5.748   2.866  1.3101  0.0337  0.6887
38562SOL    HW221007   4.551   5.612   2.807  0.7931  0.5169 -0.1966
38563SOL     OW21008   0.569   0.453   9.044  0.3378 -0.0664 -0.8410
38563SOL    HW121009   0.625   0.528   9.062  0.0923  0.2248 -1.2643
38563SOL    HW221010   0.630   0.382   9.021  0.6842 -0.5301  1.2680
38564SOL     OW21011   9.335  10.845   3.794  0.1034 -0.3254  0.8331
38564SOL    HW121012   9.376  10.931   3.785 -0.1644 -0.3201 -0.4935
38564SOL    HW221013   9.388  10.787   3.738 -0.2009 -0.8563  1.0849
38565SOL     OW21014   6.232   2.663  10.372 -0.6073 -0.2820 -0.1029
38565SOL    HW121015   6.242   2.749  10.330 -0.1415 -0.0316  0.5184
38565SOL    HW221016   6.249   2.679  10.464 -0.9845 -0.9612  0.0926
38566SOL     OW21017   4.630  10.039   6.062 -0.5527  0.4739  0.6640
38566SOL    HW121018   4.585  10.012   6.142  1.3074 -0.3039  1.5061
38566SOL    HW221019   4.707   9.982   6.058  1.0934  2.6232  0.0652
38567SOL     OW21020   7.268   8.222   7.225  0.0492  0.0480 -0.0620
38567SOL    HW121021   7.221   8.160   7.170  1.1148  0.3147 -1.3273
38567SOL    HW221022   7.200   8.276   7.265 -0.8170 -1.0365 -0.0253
38568SOL     OW21023   9.323   6.321   4.566  0.5822  0.4225 -0.5219
38568SOL    HW121024   9.357   6.241   4.606  2.1692  0.3499 -1.8913
38568SOL    HW221025   9.235   6.331   4.603  0.9163 -1.1078  0.8241
38569SOL     OW21026  10.230   8.943   6.568 -0.4561 -0.1301  0.3353
38569SOL    HW121027  10.302   9.005   6.557 -0.1704  0.1291  3.0541
38569SOL    HW221028  10.158   8.982   6.518  0.8448  0.3013 -1.2972
38570SOL     OW21029   6.013   1.070   4.983  0.3102  0.3205  0.2668
38570SOL    HW121030   5.997   1.129   5.057 -3.1054  0.5747 -0.5235
38570SOL    HW221031   6.004   1.125   4.905  0.7298 -0.5539 -0.4142
38571SOL     OW21032   5.149   0.333   8.041  0.3106 -0.3134  0.2327
38571SOL    HW121033   5.059   0.360   8.023  0.3234 -0.7978 -0.6437
38571SOL    HW221034   5.171   0.275   7.968  1.3333 -0.2050  0.4416
38572SOL     OW21035   9.556   1.600   7.403  0.6931 -0.2477 -0.6716
38572SOL    HW121036   9.538   1.681   7.451  1.1263 -0.4613 -0.1398
38572SOL    HW221037   9.518   1.531   7.457  4.1138 -0.8907  1.2356
38573SOL     OW21038   3.961   9.587   4.341  0.3376  0.2544 -0.4159
38573SOL    HW121039   3.866   9.579   4.348  0.0457  2.9644 -0.3142
38573SOL    HW221040   3.994   9.556   4.426 -0.3745 -0.9723 -0.5502
38574SOL     OW21041   2.363   2.485  10.349 -0.2353 -0.1124  0.2713
38574SOL    HW121042   2.451   2.486  10.387 -0.4011  0.0369  0.6605
38574SOL    HW221043   2.377   2.477  10.255  0.1424 -3.1432  0.4928
38575SOL     OW21044   7.747  11.780   8.871  0.1582 -0.1989  0.0570
38575SOL    HW121045   7.661  11.766   8.831  0.3179 -1.8827  0.2187
38575SOL    HW221046   7.796  11.830   8.805 -1.0954  1.2863  0.2003
38576SOL     OW21047   0.632   2.844  10.610  0.2098  0.4417 -0.2808
38576SOL    HW121048   0.639   2.920  10.668  0.0484 -0.3014  0.7422
38576SOL    HW221049   0.550   2.856  10.563  0.1487  0.8565 -0.0712
38577SOL     OW21050   5.794   1.958   8.806  0.4529 -0.5430  0.3126
38577SOL    HW121051   5.745   1.925   8.731  0.0543 -3.6671  1.7555
38577SOL    HW221052   5.729   2.002   8.860 -0.3794 -2.5262  1.0394
38578SOL     OW21053   7.680   2.059  10.272  0.0336  0.0229  0.7353
38578SOL    HW121054   7.661   2.036  10.181  1.0505  2.2561 -0.0959
38578SOL    HW221055   7.598   2.039  10.319 -1.4120  1.1893 -1.1453
38579SOL     OW21056  11.010  10.902   7.728 -0.6121  0.5286  0.7022
38579SOL    HW121057  10.964  10.892   7.644 -0.3781  0.6712  0.5554
38579SOL    HW221058  11.003  10.817   7.770  1.7609 -0.4784 -0.7195
38580SOL     OW21059   9.883   4.923   3.361 -0.1120 -0.4671 -0.8689
38580SOL    HW121060   9.895   4.856   3.428 -0.8348  1.1646  0.9872
38580SOL    HW221061   9.893   4.876   3.278  0.8031 -2.5649  0.3537
38581SOL     OW21062   8.830  10.245  10.536  0.0598 -0.3784 -0.6995
38581SOL    HW121063   8.918  10.206  10.543  1.8369  2.7033 -3.1266
38581SOL    HW221064   8.828  10.311  10.605 -0.8389 -1.1905  0.0647
38582SOL     OW21065   2.410  10.608  10.620 -0.4160  0.1952  0.1059
38582SOL    HW121066   2.410  10.691  10.668 -0.9050  0.9948 -1.2417
38582SOL    HW221067   2.496  10.571  10.638  1.1901  2.6006 -1.9455
38583SOL     OW21068   8.261   3.301   4.674  0.3420  0.6189 -0.4581
38583SOL    HW121069   8.193   3.264   4.730  3.0466 -0.5059  2.3839
38583SOL    HW221070   8.223   3.382   4.640 -2.6682 -0.4038  0.2290
38584SOL     OW21071   9.172   1.367   6.892  0.4914  0.2120  0.0634
38584SOL    HW121072   9.161   1.420   6.971 -1.6563 -1.7178  1.1954
38584SOL    HW221073   9.109   1.405   6.830  0.6093  0.4031  0.0612
38585SOL     OW21074   3.163   0.210   8.932  0.1287  0.7524  0.7108
38585SOL    HW121075   3.081   0.229   8.888 -0.0506 -0.5079  0.4822
38585SOL    HW221076   3.139   0.198   9.024 -0.3781 -2.0255  0.2986
38586SOL     OW21077   6.667   5.196   6.283 -0.3418  0.3097  0.2015
38586SOL    HW121078   6.719   5.120   6.308  1.3074  1.3130 -0.0055
38586SOL    HW221079   6.674   5.256   6.358 -0.2017  0.9548 -0.3179
38587SOL     OW21080   6.192   3.915  11.551 -0.2704 -0.0991 -0.3426
38587SOL    HW121081   6.181   3.822  11.573 -0.3784  0.4817  2.4054
38587SOL    HW221082   6.278   3.938  11.588 -0.5953  1.0704 -0.2786
38588SOL     OW21083   6.983  11.118   7.827  0.0346 -0.3033 -0.1092
38588SOL    HW121084   7.077  11.138   7.819 -0.1448  0.3397 -0.6258
38588SOL    HW221085   6.967  11.055   7.757  0.0141 -0.1942 -0.2015
38589SOL     OW21086   1.633   6.431  10.101  0.2438  0.0222  0.3572
38589SOL    HW121087   1.703   6.488  10.071  3.8933 -3.7716  0.7265
38589SOL    HW221088   1.669   6.386  10.178 -2.5867 -2.1649  0.5841
38590SOL     OW21089   2.028   6.804   5.933 -0.1520  0.7174  0.2107
38590SOL    HW121090   2.044   6.895   5.959 -0.3698  0.4067  1.5138
38590SOL    HW221091   2.111   6.773   5.898 -0.2451  1.5964 -0.8277
38591SOL     OW21092   6.998   4.337   9.802  1.0978 -0.8732  0.2035
38591SOL    HW121093   6.910   4.320   9.768  0.9288  0.5483 -0.1526
38591SOL    HW221094   6.995   4.307   9.893  0.6780 -2.0964 -0.1941
38592SOL     OW21095   0.120   0.983  10.403  0.2561  0.4131  0.3622
38592SOL    HW121096   0.033   1.011  10.374  0.6854 -0.3496 -1.8548
38592SOL    HW221097   0.169   1.064  10.417  0.1319  0.8513 -1.5334
38593SOL     OW21098   2.011   8.888  11.739  0.2692 -0.3244  0.4045
38593SOL    HW121099   2.070   8.846  11.802 -0.4815  0.4117  1.6386
38593SOL    HW221100   1.934   8.910  11.791 -0.4459  0.1339 -0.8385
38594SOL     OW21101   0.019   8.681  10.271 -0.4820 -0.4693  0.0530
38594SOL    HW121102   0.049   8.674  10.181 -0.3272 -0.4457  0.1022
38594SOL    HW221103   0.037   8.596  10.310 -2.0878 -1.0562 -0.3904
38595SOL     OW21104   1.288   0.517   0.808  0.1889  0.2403  0.1226
38595SOL    HW121105   1.357   0.580   0.827  0.5507 -0.0199 -0.2998
38595SOL    HW221106   1.326   0.432   0.832 -1.1036  0.3559  2.8895
38596SOL     OW21107   9.049   7.160   6.927  0.0701  0.2227 -0.4595
38596SOL    HW121108   9.108   7.150   6.852  1.0731 -1.1779  0.4578
38596SOL    HW221109   9.099   7.126   7.001 -1.6016 -0.2438  0.5119
38597SOL     OW21110  10.321   7.179   0.869  0.4913 -0.6727  0.6570
38597SOL    HW121111  10.363   7.100   0.836  1.6177 -0.8847  2.4626
38597SOL    HW221112  10.288   7.153   0.956 -0.2250  0.5047  0.7538
38598SOL     OW21113   2.880   4.552   6.567 -0.0074  0.2308 -0.0841
38598SOL    HW121114   2.872   4.479   6.629 -0.8267  0.9418  0.6751
38598SOL    HW221115   2.932   4.517   6.495 -1.8049 -1.6651 -0.5662
38599SOL     OW21116   3.098   2.465   5.888 -0.5757 -0.6975  0.1425
38599SOL    HW121117   3.081   2.411   5.965  0.7387 -1.5496 -0.1456
38599SOL    HW221118   3.151   2.538   5.920  1.4014 -1.9269 -0.1944
38600SOL     OW21119   9.028   9.963  10.620  0.3343  0.7569 -0.0349
38600SOL    HW121120   9.096   9.909  10.661  0.2100 -0.0911 -0.8960
38600SOL    HW221121   8.974   9.993  10.692  0.4853 -0.1773  0.4848
38601SOL     OW21122   0.674   5.945   2.824 -0.0524 -0.4330  0.4759
38601SOL    HW121123   0.715   5.888   2.890  0.3221  0.0486  0.6644
38601SOL    HW221124   0.600   5.984   2.870  0.8792  0.7938  0.9882
38602SOL     OW21125  10.295   1.958   9.614 -0.0259 -0.1017 -0.3649
38602SOL    HW121126  10.207   1.937   9.644 -0.4958  0.9013 -0.9872
38602SOL    HW221127  10.332   2.012   9.684 -0.2448  0.2349 -0.5058
38603SOL     OW21128  10.785   9.983  11.711  0.0587 -0.1236  0.0377
38603SOL    HW121129  10.710   9.992  11.769  0.3913  0.0109  0.4540
38603SOL    HW221130  10.850  10.044  11.746  0.3081 -0.1318 -0.4021
38604SOL     OW21131   4.813  10.858   2.608  0.0356  0.1515  0.5258
38604SOL    HW121132   4.839  10.936   2.559 -2.0817  0.6648  0.1366
38604SOL    HW221133   4.885  10.844   2.670  1.7782  0.7272 -1.2601
38605SOL     OW21134   5.463   2.801  11.152 -0.0182 -0.0130  0.2017
38605SOL    HW121135   5.492   2.890  11.171  1.6037 -0.5140  0.2006
38605SOL    HW221136   5.544   2.750  11.147 -0.9145 -1.4772  0.1402
38606SOL     OW21137   9.579   0.568   1.397  0.4253 -0.1693 -0.2130
38606SOL    HW121138   9.571   0.574   1.492 -0.3325  1.1948 -0.3457
38606SOL    HW221139   9.567   0.475   1.378 -0.4601 -0.3065  0.9383
38607SOL     OW21140  11.359   6.087   0.954  0.4898 -0.0212 -0.3867
38607SOL    HW121141  11.340   5.993   0.950  2.7194 -0.8509  3.4938
38607SOL    HW221142  11.438   6.098   0.901  2.0209 -1.0470  1.5787
38608SOL     OW21143   5.966  10.856   9.195  0.2346 -0.0318  0.5755
38608SOL    HW121144   6.040  10.861   9.134  0.1356 -1.0898  0.3543
38608SOL    HW221145   6.002  10.889   9.278  1.0412 -0.7826  0.5430
38609SOL     OW21146   9.839   1.496   8.104 -0.4033 -0.2613 -0.0996
38609SOL    HW121147   9.826   1.525   8.014 -0.4811  0.5303  0.1600
38609SOL    HW221148   9.909   1.551   8.137  0.3058 -1.2090  0.0338
38610SOL     OW21149   0.783   8.400   3.728  0.3226 -0.1710 -0.5444
38610SOL    HW121150   0.743   8.320   3.761  0.1527  0.1488  0.0290
38610SOL    HW221151   0.869   8.373   3.697  0.3124 -0.5527 -0.2426
38611SOL     OW21152   5.065   9.553   5.006 -0.2920 -0.2775  0.3188
38611SOL    HW121153   5.080   9.533   5.098  0.4876  0.1409  0.2834
38611SOL    HW221154   4.971   9.538   4.994 -0.5270  0.2896  1.3317
38612SOL     OW21155   4.790   6.583   2.265  0.0867  0.2087 -0.4335
38612SOL    HW121156   4.768   6.640   2.191 -1.1517  1.9630  1.2037
38612SOL    HW221157   4.884   6.596   2.278 -0.0405  1.3036 -0.5509
38613SOL     OW21158   8.183  10.748   6.185  0.2895 -0.1015  0.5114
38613SOL    HW121159   8.216  10.671   6.233  0.9152  0.2178  0.6026
38613SOL    HW221160   8.262  10.799   6.165  0.1109 -0.4601 -1.2819
38614SOL     OW21161  10.998   7.959   6.745 -0.0900  0.5810  0.3718
38614SOL    HW121162  11.088   7.970   6.714  0.3473  0.0714  1.4269
38614SOL    HW221163  10.987   7.864   6.750 -0.5185  0.6492  0.7253
38615SOL     OW21164   8.355   6.329   3.930 -0.2023  0.0368  0.0616
38615SOL    HW121165   8.270   6.310   3.891 -0.5612  3.3012 -1.0620
38615SOL    HW221166   8.366   6.263   3.998 -0.9491 -4.0876 -3.3899
38616SOL     OW21167   1.700   9.172  11.316 -0.3611 -0.2921 -0.3772
38616SOL    HW121168   1.736   9.086  11.292  0.3261  0.3948 -1.9852
38616SOL    HW221169   1.741   9.232  11.254 -0.1214  1.3436  1.3090
38617SOL     OW21170   1.353   3.010   3.486  0.1335  0.0026  0.4899
38617SOL    HW121171   1.380   3.073   3.552 -1.1821  0.1410  0.9377
38617SOL    HW221172   1.323   3.064   3.412  0.6302 -0.1363  0.1812
38618SOL     OW21173   6.483   9.372   2.796  0.0442 -0.4589 -0.1325
38618SOL    HW121174   6.507   9.441   2.734  1.2762  0.0584  0.8797
38618SOL    HW221175   6.566   9.327   2.815 -0.6059 -1.7251 -0.1570
38619SOL     OW21176  11.204   0.399   4.377 -0.1133 -0.2626 -0.4379
38619SOL    HW121177  11.191   0.329   4.313 -0.6259  0.8778 -1.6152
38619SOL    HW221178  11.297   0.394   4.399 -0.2574 -1.6752 -0.0422
38620SOL     OW21179   0.791   0.524   1.053  0.7911  0.3493 -0.0768
38620SOL    HW121180   0.750   0.605   1.084 -0.3328 -0.3996  0.4632
38620SOL    HW221181   0.845   0.551   0.979  1.3023  1.7530  0.7669
38621SOL     OW21182   8.937   8.141   6.878 -0.4626 -0.2081 -0.1163
38621SOL    HW121183   8.877   8.189   6.820  0.0436  0.8542  0.2235
38621SOL    HW221184   8.890   8.060   6.898 -2.0397  0.8247  0.5746
38622SOL     OW21185   0.839   1.412   0.017  0.2976  0.0636 -0.9877
38622SOL    HW121186   0.880   1.325   0.013 -0.6827 -0.4331 -0.7616
38622SOL    HW221187   0.756   1.401  -0.031  0.2891  0.9543 -1.1907
38623SOL     OW21188   5.583   9.717   6.710  0.0044 -0.2350  0.5287
38623SOL    HW121189   5.632   9.797   6.687  0.5699 -0.2401  1.6469
38623SOL    HW221190   5.591   9.711   6.805 -0.1495 -1.5573  0.4727
38624SOL     OW21191   4.767   8.402   4.609  0.1768 -0.0654  0.0765
38624SOL    HW121192   4.861   8.416   4.625  0.4772 -0.2281 -1.3985
38624SOL    HW221193   4.756   8.418   4.516 -1.1138 -0.8881  0.0607
38625SOL     OW21194   5.633   4.850   9.654  0.0048  0.1674  0.0604
38625SOL    HW121195   5.615   4.899   9.735 -2.2069 -2.4095  1.2619
38625SOL    HW221196   5.674   4.769   9.684  0.3555 -0.2712 -1.5441
38626SOL     OW21197   5.301   6.150   8.327 -0.2408  0.1371  0.9919
38626SOL    HW121198   5.230   6.169   8.266 -0.2690  0.0402  0.9946
38626SOL    HW221199   5.316   6.232   8.373  2.0838  1.2716 -1.4750
38627SOL     OW21200  10.113   6.425   0.980  0.0252  0.2890 -0.3064
38627SOL    HW121201  10.036   6.473   1.012 -1.1633 -1.6633 -0.0704
38627SOL    HW221202  10.080   6.378   0.903  1.0619 -0.3786 -0.3502
38628SOL     OW21203   8.162   0.765   0.402  0.3307  0.0581  0.2225
38628SOL    HW121204   8.241   0.728   0.442  0.5634  1.0873  0.7501
38628SOL    HW221205   8.094   0.753   0.468  0.1234 -0.5175 -0.0938
38629SOL     OW21206   8.238   3.025  11.624  0.4624  0.1389  0.5160
38629SOL    HW121207   8.219   3.088  11.555 -1.2933  1.6102  2.2072
38629SOL    HW221208   8.287   3.075  11.689  3.8786 -1.7215 -0.4100
38630SOL     OW21209   5.988   2.353  10.936  0.1360 -0.4990  0.2293
38630SOL    HW121210   6.026   2.328  10.852 -1.0965  0.6146 -0.7036
38630SOL    HW221211   6.013   2.444  10.949  0.5343 -0.7326  1.2147
38631SOL     OW21212   4.241   6.451  11.105  0.3593  0.5364  0.0881
38631SOL    HW121213   4.195   6.375  11.070  0.8547 -0.2956  1.2109
38631SOL    HW221214   4.172   6.514  11.124  0.0774  1.2674 -2.8075
38632SOL     OW21215   0.160   1.713   8.951  0.8161 -0.6226 -0.1818
38632SOL    HW121216   0.246   1.744   8.924  0.2056 -0.6988 -2.4180
38632SOL    HW221217   0.099   1.759   8.894 -0.9237  1.3869  3.0074
38633SOL     OW21218   8.515   9.356   0.490  0.3416  0.1474  0.1349
38633SOL    HW121219   8.439   9.412   0.474  0.8889  1.5896  2.1533
38633SOL    HW221220   8.511   9.290   0.421 -3.5369 -0.6830  0.8639
38634SOL     OW21221   0.070   9.985   9.083  0.0815 -0.5317  0.3782
38634SOL    HW121222   0.100  10.065   9.040 -0.6383  0.7123  2.0690
38634SOL    HW221223   0.148   9.949   9.124  0.2236 -0.0799  0.5149
38635SOL     OW21224  10.173   8.016   8.592  0.1967  0.5930 -0.0353
38635SOL    HW121225  10.177   8.106   8.622 -0.0480  0.3325  0.8135
38635SOL    HW221226  10.137   8.021   8.503  1.1508  1.3968 -0.3929
38636SOL     OW21227   6.737  11.801  10.568 -0.2934 -0.0757 -0.0868
38636SOL    HW121228   6.709  11.726  10.621  1.4598  0.2603  1.4382
38636SOL    HW221229   6.812  11.768  10.518 -0.2991  0.3216 -0.3627
38637SOL     OW21230   1.067   0.043   7.002 -0.9692 -0.0393  0.1200
38637SOL    HW121231   1.058   0.111   6.936 -0.5337 -0.7638 -0.7108
38637SOL    HW221232   0.988  -0.011   6.992 -1.0585  0.0326  0.4166
38638SOL     OW21233   0.572   4.943  11.730  0.5482 -0.1303  0.1519
38638SOL    HW121234   0.542   4.981  11.812  0.1840  1.0230 -0.4978
38638SOL    HW221235   0.533   4.998  11.662  0.7216 -1.1484 -0.8027
38639SOL     OW21236   2.217   7.575   3.304 -0.4493 -0.7229 -0.0843
38639SOL    HW121237   2.295   7.521   3.292  0.4752  0.5394  0.0871
38639SOL    HW221238   2.245   7.663   3.282 -1.5626 -0.0724  0.9889
38640SOL     OW21239  10.897   2.823  10.728 -0.0535  0.1210 -0.3203
38640SOL    HW121240  10.959   2.886  10.764 -0.0947 -0.1439  0.2317
38640SOL    HW221241  10.815   2.871  10.718 -0.5025 -0.2058  1.5061
38641SOL     OW21242   1.572   1.292   0.984 -0.1965  0.3712  0.4306
38641SOL    HW121243   1.658   1.258   1.010 -0.3791 -0.7625 -0.4013
38641SOL    HW221244   1.579   1.305   0.890 -1.1862 -0.5229  0.2179
38642SOL     OW21245   8.488   1.206  10.035  0.1025  0.5376 -0.3773
38642SOL    HW121246   8.520   1.216  10.125  1.6179  0.8210 -0.9131
38642SOL    HW221247   8.565   1.224   9.980  0.2293 -3.1041 -1.6991
38643SOL     OW21248   6.010   9.266   5.790 -0.0423  0.3483  0.2686
38643SOL    HW121249   6.105   9.252   5.784 -0.0330  0.2074  0.6941
38643SOL    HW221250   5.972   9.181   5.769 -0.0285  0.0399  1.4200
38644SOL     OW21251   4.968   9.331   1.512 -0.9668 -0.5713  0.1344
38644SOL    HW121252   4.969   9.246   1.557 -0.8746 -1.2653 -1.1426
38644SOL    HW221253   4.927   9.313   1.427 -1.0909  0.6993 -0.0930
38645SOL     OW21254   3.706   7.465  11.753  0.4172 -0.0076  0.5072
38645SOL    HW121255   3.737   7.462  11.844  1.8129 -0.9222  0.0333
38645SOL    HW221256   3.784   7.448  11.701 -0.0771  1.9053 -0.9438
38646SOL     OW21257   4.287   0.281   8.508  0.0472  0.1161 -0.2582
38646SOL    HW121258   4.264   0.232   8.429 -1.1926  0.3112 -0.0335
38646SOL    HW221259   4.318   0.215   8.569  0.2299 -0.1360 -0.6150
38647SOL     OW21260   4.031   3.304   3.297  0.2165 -1.1401  0.2717
38647SOL    HW121261   4.114   3.297   3.345 -0.5425  0.7171  1.9697
38647SOL    HW221262   4.032   3.391   3.259 -1.3137 -0.7161  1.1057
38648SOL     OW21263   2.832   1.093   6.849  0.3791  0.3531  0.1202
38648SOL    HW121264   2.778   1.140   6.786 -1.3253 -0.5886  0.8392
38648SOL    HW221265   2.922   1.120   6.827 -0.2379  0.9185 -1.9448
38649SOL     OW21266   1.977   0.875   1.034  0.1877 -0.4159  0.0378
38649SOL    HW121267   1.929   0.938   0.979  1.3217  2.4030  2.1011
38649SOL    HW221268   2.058   0.859   0.986  0.3823  0.6001  0.0057
38650SOL     OW21269   1.357   0.037   8.353  0.6216 -0.2702 -0.7385
38650SOL    HW121270   1.372   0.052   8.259 -0.8813  0.0011 -0.9645
38650SOL    HW221271   1.328  -0.055   8.358  1.3885 -0.5026 -0.4393
38651SOL     OW21272   6.897   4.478   4.205  0.3505  0.1344  0.2605
38651SOL    HW121273   6.876   4.565   4.171 -1.6707 -0.0915  0.8384
38651SOL    HW221274   6.845   4.418   4.152  0.8980 -0.6448  0.5851
38652SOL     OW21275  10.624   4.496   6.609 -0.0396 -0.7728  0.3493
38652SOL    HW121276  10.701   4.552   6.619  1.0653 -2.3770  1.2078
38652SOL    HW221277  10.574   4.537   6.538  1.7210  0.1767 -0.4078
38653SOL     OW21278   6.442   4.833  10.651 -0.1952  0.0470  0.2889
38653SOL    HW121279   6.437   4.824  10.746  0.6750 -0.1204  0.3256
38653SOL    HW221280   6.352   4.818  10.621 -0.3660 -0.5076  1.0347
38654SOL     OW21281   1.107   9.758  10.109 -0.3478 -0.0486 -0.4103
38654SOL    HW121282   1.047   9.687  10.086 -0.7718  0.2926 -0.3800
38654SOL    HW221283   1.049   9.832  10.130  0.0634  0.0531  0.4036
38655SOL     OW21284   6.360   3.970   8.090  0.6119  0.4066 -0.0443
38655SOL    HW121285   6.290   4.033   8.107  0.7982  0.6815 -0.3073
38655SOL    HW221286   6.316   3.897   8.047  0.6286  0.9557 -1.0225
38656SOL     OW21287   4.726  11.555   3.243 -0.0311 -0.3168  0.6783
38656SOL    HW121288   4.673  11.601   3.308  1.9578 -0.5280  2.5597
38656SOL    HW221289   4.719  11.463   3.267 -1.8343 -0.8307 -1.4435
38657SOL     OW21290   2.915   9.651   5.558  0.5974 -0.1888 -0.4368
38657SOL    HW121291   2.872   9.589   5.499  1.1571 -0.9995 -0.0037
38657SOL    HW221292   2.959   9.597   5.623  1.0453  0.6640 -0.0048
38658SOL     OW21293   9.012   4.749   9.129 -0.4530  0.8177 -0.1736
38658SOL    HW121294   9.101   4.777   9.152 -0.1965 -0.3441  0.3469
38658SOL    HW221295   9.019   4.722   9.038 -0.1420  0.2982 -0.0049
38659SOL     OW21296   0.613   8.389   8.209  0.5545  0.3176 -0.0200
38659SOL    HW121297   0.616   8.319   8.144 -0.1748  0.0287  0.2466
38659SOL    HW221298   0.546   8.450   8.177  0.0734  0.0908  0.5348
38660SOL     OW21299   7.392   4.633   2.682  0.3235 -0.1636 -0.0017
38660SOL    HW121300   7.387   4.693   2.607  0.1150  1.0749  0.9846
38660SOL    HW221301   7.486   4.613   2.689  0.5670  1.0128  0.3864
38661SOL     OW21302   6.508   1.042   6.995 -0.2201  0.2916  0.5126
38661SOL    HW121303   6.598   1.054   7.025  0.1807 -0.0039 -0.5456
38661SOL    HW221304   6.495   1.110   6.929 -0.5883  0.0044  0.2810
38662SOL     OW21305   0.563   0.010   5.146  0.0448  0.2847 -0.2884
38662SOL    HW121306   0.512   0.091   5.141 -0.1511  0.1944  0.1917
38662SOL    HW221307   0.500  -0.057   5.173  0.1728 -0.0615 -0.8342
38663SOL     OW21308   2.328   1.070   1.989  0.3837  0.2167 -0.5890
38663SOL    HW121309   2.301   1.082   1.898  1.0926  1.3202 -0.6689
38663SOL    HW221310   2.369   0.983   1.990 -2.5131 -1.2843 -0.5746
38664SOL     OW21311   0.990   2.936  10.664  0.1511 -0.3667 -0.1251
38664SOL    HW121312   0.909   2.900  10.629 -0.0837 -0.0653  0.1034
38664SOL    HW221313   0.994   2.904  10.754 -0.3377  0.6126  0.2595
38665SOL     OW21314   3.654   9.936   3.264 -0.1045  0.0663 -0.1650
38665SOL    HW121315   3.627  10.003   3.201  2.0545  2.7506  1.5069
38665SOL    HW221316   3.633   9.973   3.350 -0.4141 -2.2268  0.8279
38666SOL     OW21317   5.464   7.323   6.983 -0.2043  0.5211  0.2037
38666SOL    HW121318   5.428   7.297   6.899  0.0264  0.5101  0.1071
38666SOL    HW221319   5.555   7.348   6.964  0.1619 -0.4435  0.6093
38667SOL     OW21320   3.755   8.825   0.091 -0.1395 -0.1535 -0.0878
38667SOL    HW121321   3.753   8.803   0.184  2.1402 -0.7798 -0.1280
38667SOL    HW221322   3.712   8.751   0.048  2.3978 -1.9199  0.2244
38668SOL     OW21323   0.465   6.865   6.064  0.0318  0.0208 -0.2038
38668SOL    HW121324   0.508   6.791   6.022 -1.1624 -0.6844 -0.2259
38668SOL    HW221325   0.524   6.939   6.048  1.2872 -0.9205 -0.1122
38669SOL     OW21326   5.963   5.223   7.438  0.0194  0.0608  0.0767
38669SOL    HW121327   5.890   5.162   7.443 -0.2031  0.2516 -0.7430
38669SOL    HW221328   6.031   5.176   7.390  0.3964 -0.0634  0.7100
38670SOL     OW21329   0.200  11.654  11.206 -0.1887  0.0346  0.7636
38670SOL    HW121330   0.196  11.723  11.139 -2.2791 -0.1030  0.6719
38670SOL    HW221331   0.237  11.578  11.160  1.2506  0.7825  0.6173
38671SOL     OW21332   3.006   3.482   7.266 -0.0233 -0.3543  0.1391
38671SOL    HW121333   2.954   3.522   7.197  0.3776 -0.9842 -0.5429
38671SOL    HW221334   3.077   3.437   7.220  0.6108 -0.2564  0.9975
38672SOL     OW21335   4.294   2.618   8.862 -0.0996 -0.1851 -0.0511
38672SOL    HW121336   4.330   2.632   8.949  0.0496 -0.5607 -0.0529
38672SOL    HW221337   4.332   2.689   8.809 -1.4478  1.0360  0.5399
38673SOL     OW21338   1.079   7.535  11.115 -1.2766  0.0777  0.7748
38673SOL    HW121339   1.022   7.577  11.050 -0.4997  1.6511  1.0823
38673SOL    HW221340   1.167   7.543  11.079 -1.1973 -2.6672  0.1290
38674SOL     OW21341   2.822   0.455   0.443  0.1704 -0.0773 -0.5640
38674SOL    HW121342   2.759   0.506   0.493  1.1441 -0.3063  0.9910
38674SOL    HW221343   2.815   0.367   0.480  3.2298  0.4384  1.6331
38675SOL     OW21344   5.292   3.509   8.047  0.2157  0.2964 -0.6570
38675SOL    HW121345   5.337   3.590   8.025 -1.7363  0.6178 -4.2806
38675SOL    HW221346   5.361   3.451   8.079  1.9536  2.7490  0.3391
38676SOL     OW21347  10.847   7.016   1.987  0.2056  0.1941 -0.2302
38676SOL    HW121348  10.820   7.092   1.936 -1.1635 -1.1579 -1.5975
38676SOL    HW221349  10.930   7.043   2.027  0.8283  1.6679 -2.3429
38677SOL     OW21350  10.731   5.368   3.755 -0.0077  0.5135  0.2644
38677SOL    HW121351  10.795   5.437   3.771 -0.1799  0.4212  1.3783
38677SOL    HW221352  10.783   5.288   3.750  0.1996  0.6960 -1.0866
38678SOL     OW21353   6.354   6.157   5.463 -0.0551 -0.4167 -0.4196
38678SOL    HW121354   6.356   6.126   5.373  0.9777 -0.3868 -0.4163
38678SOL    HW221355   6.301   6.237   5.459  0.6535  0.0319 -1.1518
38679SOL     OW21356   1.390  11.004  10.452  0.5234 -0.0246 -0.3360
38679SOL    HW121357   1.359  10.915  10.469 -0.2016  0.1753 -0.6010
38679SOL    HW221358   1.324  11.060  10.493  0.1814  0.4170 -1.4645
38680SOL     OW21359   8.670   7.077   2.270 -0.4486  0.0644 -0.4346
38680SOL    HW121360   8.753   7.032   2.288 -0.1730  0.5027 -0.5817
38680SOL    HW221361   8.646   7.117   2.353 -0.8422 -0.5851 -0.2293
38681SOL     OW21362   6.796   6.403  11.229 -0.1375 -0.6643  0.2107
38681SOL    HW121363   6.824   6.414  11.139  0.5205  0.3137  0.5116
38681SOL    HW221364   6.711   6.449  11.234 -0.3839 -1.0960 -0.0093
38682SOL     OW21365   9.394  11.720   7.765  0.6194 -0.4915 -0.1111
38682SOL    HW121366   9.393  11.625   7.776  3.5791 -0.6993 -0.9101
38682SOL    HW221367   9.487  11.744   7.764 -0.0005  2.3169 -0.7922
38683SOL     OW21368   5.396   2.484   9.653 -0.2828 -0.2813 -0.1884
38683SOL    HW121369   5.450   2.547   9.700 -2.4255  1.7589 -0.2660
38683SOL    HW221370   5.363   2.425   9.722  1.5802 -1.2979 -0.0945
38684SOL     OW21371  11.039   6.390   2.350 -0.0825  0.7991 -0.1373
38684SOL    HW121372  11.007   6.421   2.435  0.3466  1.1513 -0.1018
38684SOL    HW221373  10.991   6.309   2.335 -0.9751  1.3016 -0.0739
38685SOL     OW21374   0.400  11.094   6.590  0.6649  0.8133 -0.0808
38685SOL    HW121375   0.391  11.172   6.535 -0.7434  0.2360 -0.7211
38685SOL    HW221376   0.315  11.086   6.633  0.9456 -0.1267  0.3092
38686SOL     OW21377   8.332   2.329   7.115 -0.8510 -0.1548  0.1689
38686SOL    HW121378   8.278   2.354   7.190 -0.7381  2.3763 -0.4810
38686SOL    HW221379   8.414   2.378   7.128  0.3877 -2.0563 -0.0936
38687SOL     OW21380  11.094   1.167  10.376  0.1694  1.0817 -0.3778
38687SOL    HW121381  11.131   1.102  10.316 -0.6442  0.5152 -0.2817
38687SOL    HW221382  11.016   1.199  10.332 -0.3608  0.7609  0.3152
38688SOL     OW21383   7.119   4.536   3.933  0.2927  0.3063  0.3075
38688SOL    HW121384   7.214   4.532   3.926  0.5672  3.4631  0.6795
38688SOL    HW221385   7.099   4.496   4.018  1.3206 -0.1145  0.3592
38689SOL     OW21386   1.542   9.646   6.667  0.3086  0.6651  0.4851
38689SOL    HW121387   1.570   9.558   6.690 -0.9488  0.0104 -0.4020
38689SOL    HW221388   1.447   9.644   6.675 -0.0670  0.9708 -2.6116
38690SOL     OW21389   6.715   8.619   5.377 -0.2589  0.3342  0.0758
38690SOL    HW121390   6.715   8.615   5.473 -0.4792 -2.0049  0.0266
38690SOL    HW221391   6.785   8.560   5.351 -3.2557 -3.0319 -1.1900
38691SOL     OW21392   7.613   8.086  11.583 -0.5572 -0.2576  0.0639
38691SOL    HW121393   7.668   8.096  11.506  0.5883 -0.6293  0.8120
38691SOL    HW221394   7.542   8.149  11.570  1.4926  2.2705  0.3180
38692SOL     OW21395   6.104  11.640   5.933  0.0967 -0.2029  0.0772
38692SOL    HW121396   6.066  11.570   5.880  0.1381 -1.4783  1.6578
38692SOL    HW221397   6.108  11.715   5.874 -0.5088 -1.3532 -1.4975
38693SOL     OW21398   1.028  11.221   2.023 -0.0316 -0.1068  0.1957
38693SOL    HW121399   1.101  11.283   2.026  1.1233 -1.3158 -1.2845
38693SOL    HW221400   1.010  11.211   1.929 -0.8626 -1.2358  0.4598
38694SOL     OW21401   8.182   4.897  10.506  0.0722  0.5768  0.3819
38694SOL    HW121402   8.143   4.984  10.502 -0.8844  0.2145  1.3796
38694SOL    HW221403   8.108   4.837  10.500  0.7916 -0.2158 -1.1843
38695SOL     OW21404   1.893   4.710   5.226 -0.8116  0.1716  0.1700
38695SOL    HW121405   1.984   4.708   5.254 -0.4986 -0.5981 -0.8404
38695SOL    HW221406   1.888   4.784   5.166 -1.0800  0.7875  0.9459
38696SOL     OW21407   7.153   1.800  11.011 -0.1517  0.0083 -0.0448
38696SOL    HW121408   7.120   1.712  11.031 -1.7930  0.3024 -1.2852
38696SOL    HW221409   7.105   1.826  10.933  1.8454  1.1811 -0.9593
38697SOL     OW21410   2.725   7.977   5.426 -0.2263  0.3267  0.3378
38697SOL    HW121411   2.659   7.928   5.476 -0.8282 -0.1362 -0.8591
38697SOL    HW221412   2.776   8.024   5.492  0.5778 -2.1256  1.6252
38698SOL     OW21413  10.637   2.847   0.152 -0.1391 -0.3720  0.3166
38698SOL    HW121414  10.628   2.794   0.073  0.8710  0.4968 -0.4250
38698SOL    HW221415  10.705   2.802   0.203 -0.9487 -1.0548  0.8094
38699SOL     OW21416   1.179   5.031   8.688  0.7077  0.4299  0.2344
38699SOL    HW121417   1.110   5.010   8.624  1.1807 -1.3636  0.2487
38699SOL    HW221418   1.133   5.040   8.771  0.4327 -0.4023  0.1805
38700SOL     OW21419   9.892   9.953   1.872 -0.1444 -0.8421  0.0512
38700SOL    HW121420   9.946  10.031   1.884 -0.1830 -0.8474  0.2735
38700SOL    HW221421   9.943   9.882   1.910 -1.4253 -0.4277  2.8219
38701SOL     OW21422   1.918   3.315   7.175  0.2453 -0.0122  0.0025
38701SOL    HW121423   1.934   3.360   7.092 -2.5230  0.5648 -0.3022
38701SOL    HW221424   1.874   3.380   7.230  1.6588 -0.5074  1.8235
38702SOL     OW21425   1.383   7.450  10.562  0.1754  0.3408 -0.0455
38702SOL    HW121426   1.396   7.536  10.603 -1.4382  1.1285 -1.0827
38702SOL    HW221427   1.343   7.397  10.632  2.6230 -0.1226  1.1014
38703SOL     OW21428   7.489   5.862   7.971  0.3633  0.1954 -0.0816
38703SOL    HW121429   7.413   5.914   7.999  2.9802  2.6014  3.4458
38703SOL    HW221430   7.526   5.911   7.898 -0.0785  0.4055 -0.1682
38704SOL     OW21431   4.628   0.069   4.503  0.4537  0.2863 -0.2268
38704SOL    HW121432   4.666  -0.018   4.510  1.4012  0.5005 -2.0161
38704SOL    HW221433   4.699   0.129   4.525 -0.6190  0.6608  2.6169
38705SOL     OW21434   5.747   8.639   3.626 -0.0772  0.3240  0.0746
38705SOL    HW121435   5.827   8.691   3.620 -0.6439  1.2312  0.2121
38705SOL    HW221436   5.746   8.587   3.545  0.5273  0.4886 -0.0418
38706SOL     OW21437   0.493  11.117  10.835 -0.2234  0.0446  0.0412
38706SOL    HW121438   0.533  11.184  10.779 -1.5253  0.2503 -0.6949
38706SOL    HW221439   0.566  11.066  10.869  0.8874  2.2060  1.1259
38707SOL     OW21440   9.337   4.470   6.455 -0.3833  0.0068 -0.0485
38707SOL    HW121441   9.410   4.478   6.394 -0.0889 -0.1448  0.2859
38707SOL    HW221442   9.354   4.536   6.522  0.4126 -1.2392  1.0209
38708SOL     OW21443   2.880   3.081   3.259  0.4530  0.1079  0.2517
38708SOL    HW121444   2.839   3.151   3.207 -1.7349 -2.1109 -1.2702
38708SOL    HW221445   2.808   3.046   3.312  0.7358 -2.7088 -1.0666
38709SOL     OW21446  10.351   5.768  11.154 -0.5988  0.3103 -0.5237
38709SOL    HW121447  10.316   5.822  11.224 -0.1216 -1.2751  0.9994
38709SOL    HW221448  10.395   5.830  11.095  0.0532  1.5711  1.2098
38710SOL     OW21449   2.803   3.405  10.505  0.8798  0.4214  0.3012
38710SOL    HW121450   2.712   3.395  10.533  0.4415 -1.7178 -1.5747
38710SOL    HW221451   2.803   3.485  10.453  0.3581  1.0503  1.2228
38711SOL     OW21452   8.182   0.740   8.113 -0.1125 -0.6142 -0.2206
38711SOL    HW121453   8.223   0.810   8.164  0.0499  0.4617 -1.7552
38711SOL    HW221454   8.226   0.660   8.142  0.8838  0.1264  0.3872
38712SOL     OW21455   4.168   9.108   6.797 -0.3863  0.0899 -0.0254
38712SOL    HW121456   4.089   9.120   6.851 -1.0092 -1.4423 -0.5294
38712SOL    HW221457   4.195   9.018   6.815  0.0492 -0.0766 -1.4200
38713SOL     OW21458   2.225   3.673   0.206  0.2742 -0.4576  0.0750
38713SOL    HW121459   2.219   3.580   0.229 -1.4387 -0.2231  0.7205
38713SOL    HW221460   2.168   3.683   0.129  1.3251 -0.1330 -0.6816
38714SOL     OW21461   6.251   6.919  10.667 -0.2046 -0.1455 -0.0633
38714SOL    HW121462   6.321   6.942  10.607 -0.5459  0.2989 -0.2933
38714SOL    HW221463   6.248   6.991  10.729 -0.8322  0.1148 -0.3901
38715SOL     OW21464  11.100   1.170   9.745 -0.0428 -0.2853  0.0295
38715SOL    HW121465  11.153   1.093   9.723 -0.5653 -0.6027 -0.1291
38715SOL    HW221466  11.053   1.190   9.664 -0.0596  0.0876  0.1289
38716SOL     OW21467   1.273   0.768  10.381 -0.5155 -0.0020 -0.4066
38716SOL    HW121468   1.277   0.864  10.383  1.3828 -0.0459  0.8664
38716SOL    HW221469   1.325   0.740  10.456 -0.9592 -2.0544 -0.7889
38717SOL     OW21470   5.278   3.122   7.472 -0.2193  0.1816 -0.7463
38717SOL    HW121471   5.232   3.101   7.553 -0.9867 -0.7296 -1.3945
38717SOL    HW221472   5.219   3.094   7.402  0.2031  1.4461 -1.6384
38718SOL     OW21473   0.665   6.257   0.431 -0.3415  0.5294  0.0429
38718SOL    HW121474   0.609   6.315   0.379 -0.2079  1.3151  0.7607
38718SOL    HW221475   0.694   6.190   0.369 -1.5363  0.4880 -0.4942
38719SOL     OW21476   8.536   4.252   7.344  0.0739  0.4468 -0.0394
38719SOL    HW121477   8.533   4.159   7.325  2.1242  0.3841 -0.2541
38719SOL    HW221478   8.556   4.257   7.438  0.4082  0.6630 -0.1209
38720SOL     OW21479   0.132   8.803   1.206 -0.3474  0.1061  0.2023
38720SOL    HW121480   0.213   8.839   1.242 -0.6336  0.6091  0.3592
38720SOL    HW221481   0.157   8.718   1.172  0.0774 -0.1011  0.9931
38721SOL     OW21482   8.105   5.086   0.155  0.0676  0.3294 -0.0411
38721SOL    HW121483   8.073   5.020   0.093 -2.2977  0.3152  1.1193
38721SOL    HW221484   8.038   5.154   0.155 -0.1205  0.2448  2.5916
38722SOL     OW21485   3.090   7.040   2.720 -0.5005  0.0957  0.2682
38722SOL    HW121486   3.068   6.982   2.793 -2.4080  1.3223  0.7488
38722SOL    HW221487   3.007   7.083   2.698  0.2157  0.4415 -2.0396
38723SOL     OW21488   6.549   8.926   6.224 -0.2880 -0.1371  0.5225
38723SOL    HW121489   6.472   8.967   6.184 -0.1536  0.9567  1.3423
38723SOL    HW221490   6.586   8.872   6.154 -0.9524  0.5036 -0.3527
38724SOL     OW21491   6.441   5.802   5.850  0.2196 -0.1876 -0.4279
38724SOL    HW121492   6.436   5.832   5.759 -0.3800  2.0817  0.2842
38724SOL    HW221493   6.468   5.880   5.899  0.3721 -1.3245  1.3648
38725SOL     OW21494   6.929   0.702   3.588  0.0054 -0.0033  0.1883
38725SOL    HW121495   6.944   0.624   3.535  1.3485  0.0397  0.4744
38725SOL    HW221496   6.966   0.681   3.673  0.6881  1.0601  0.1731
38726SOL     OW21497   9.979  10.289   4.756 -0.3841 -0.0738  0.2026
38726SOL    HW121498   9.919  10.359   4.783 -0.6652 -0.4308  0.5171
38726SOL    HW221499   9.933  10.245   4.685 -0.3559 -0.1487  0.2312
38727SOL     OW21500   0.535   9.186  10.700  0.1656 -0.0751  0.3403
38727SOL    HW121501   0.517   9.179  10.793  2.0420 -0.0272  0.7560
38727SOL    HW221502   0.510   9.101  10.664  2.2568 -1.2391  1.4593
38728SOL     OW21503   5.676   9.841   8.964  0.3069  0.2647 -0.4551
38728SOL    HW121504   5.664   9.789   8.885  1.0705  0.5950 -0.7975
38728SOL    HW221505   5.737   9.910   8.939  0.2280  0.6289  0.3110
38729SOL     OW21506  11.518  10.231   4.721 -0.1065 -0.4318 -0.7668
38729SOL    HW121507  11.439  10.177   4.714 -0.1328 -0.7764  1.4138
38729SOL    HW221508  11.580  10.190   4.661 -1.4041 -0.4285 -2.1779
38730SOL     OW21509   4.564   7.492   3.580 -0.1655 -0.0024 -0.1786
38730SOL    HW121510   4.633   7.525   3.638 -0.3404  1.7971 -0.9194
38730SOL    HW221511   4.483   7.503   3.629 -0.2535  1.0049 -0.5219
38731SOL     OW21512   1.156   4.952   9.091  0.5355 -0.0187 -0.0047
38731SOL    HW121513   1.101   4.916   9.022 -0.0881  1.6086 -0.3975
38731SOL    HW221514   1.157   4.884   9.158 -1.3642 -0.4138 -0.3080
38732SOL     OW21515   7.801   2.280   0.758  0.2770 -0.8079  0.0462
38732SOL    HW121516   7.890   2.246   0.749  0.5979  0.2779 -1.1793
38732SOL    HW221517   7.792   2.344   0.688 -1.5668 -1.0605 -0.0184
38733SOL     OW21518   7.584   1.858   3.142  0.1301 -0.2552 -0.2222
38733SOL    HW121519   7.539   1.898   3.217  0.3242  1.8320 -1.1372
38733SOL    HW221520   7.528   1.878   3.067  0.5789 -1.1773 -0.8118
38734SOL     OW21521   4.079   4.757   4.289  0.1415  0.1859  0.1290
38734SOL    HW121522   4.047   4.830   4.342 -3.7645 -1.1707  0.0383
38734SOL    HW221523   4.047   4.775   4.200 -1.6525 -1.8181  0.2544
38735SOL     OW21524   3.850  10.133   7.361 -0.4194 -0.0170 -0.0052
38735SOL    HW121525   3.800  10.213   7.376  0.2634  0.1040  1.9015
38735SOL    HW221526   3.940  10.163   7.345 -0.3155 -0.3730 -0.1002
38736SOL     OW21527   6.331   0.724   6.114 -0.1853  0.3850  0.6834
38736SOL    HW121528   6.290   0.642   6.140  2.1432 -0.8861  0.5967
38736SOL    HW221529   6.381   0.703   6.035  1.0011  1.6968  1.0370
38737SOL     OW21530   0.465   8.552  11.352  0.1835  0.1772  0.1552
38737SOL    HW121531   0.377   8.591  11.351  0.8921  1.8196 -0.3278
38737SOL    HW221532   0.451   8.463  11.319 -1.3597  0.2573  0.4931
38738SOL     OW21533   2.457   2.987   1.483  0.5131 -0.5187  0.7082
38738SOL    HW121534   2.436   3.013   1.572  0.5039 -0.2065  0.6178
38738SOL    HW221535   2.509   2.907   1.492 -0.5045 -1.1728  0.9422
38739SOL     OW21536   9.971   6.567   0.518  0.0772  0.4305 -0.7292
38739SOL    HW121537   9.941   6.555   0.608 -0.6968  1.5077 -0.8209
38739SOL    HW221538   9.970   6.479   0.481  1.3688 -0.1747  0.5837
38740SOL     OW21539   4.791  10.137   4.877 -0.2664  0.0272  0.4030
38740SOL    HW121540   4.857  10.171   4.938 -0.8518  0.5080  0.7830
38740SOL    HW221541   4.842  10.098   4.806  0.4340 -1.1859  1.5329
38741SOL     OW21542  10.101   3.507  10.151  0.2672 -0.0943 -0.4262
38741SOL    HW121543  10.140   3.436  10.203  0.0481  0.9669  1.2678
38741SOL    HW221544  10.011   3.478  10.136  0.4488 -0.5968 -0.5801
38742SOL     OW21545   7.595  10.079   6.899 -0.3280  0.4204  0.2070
38742SOL    HW121546   7.638   9.999   6.929  0.0774 -0.0182 -1.4054
38742SOL    HW221547   7.588  10.067   6.804  0.1953  2.5117 -0.1404
38743SOL     OW21548  10.957   8.019  11.599  0.0453 -0.0542  0.5639
38743SOL    HW121549  10.934   7.961  11.527 -0.9578 -0.4519  1.1857
38743SOL    HW221550  11.025   7.972  11.648  0.5218  0.0931  0.0443
38744SOL     OW21551   5.754   6.954   5.892  0.3801 -0.2715 -0.3863
38744SOL    HW121552   5.692   6.959   5.965  1.5659  1.8494  0.6026
38744SOL    HW221553   5.815   6.885   5.917 -0.3874 -0.9453 -0.3587
38745SOL     OW21554   4.866  11.225   5.554 -0.3367 -0.5810 -0.8419
38745SOL    HW121555   4.905  11.140   5.574 -2.3019 -1.2899  0.2891
38745SOL    HW221556   4.931  11.289   5.583 -0.7093 -1.6639  2.8630
38746SOL     OW21557   3.498   7.747   8.599  0.5403 -0.1775  0.3750
38746SOL    HW121558   3.417   7.727   8.645  1.2790 -0.0328  1.7969
38746SOL    HW221559   3.545   7.664   8.595  0.4017 -0.2302 -0.3105
38747SOL     OW21560   2.880   8.374   0.061  0.4276 -0.5552 -0.0349
38747SOL    HW121561   2.837   8.295   0.027 -0.2129 -1.4613  2.6342
38747SOL    HW221562   2.973   8.355   0.055  0.2981 -1.1906 -0.1461
38748SOL     OW21563   4.642   8.175   4.693 -0.0908  0.1533  0.2079
38748SOL    HW121564   4.650   8.155   4.786  0.3695 -0.2703  0.0874
38748SOL    HW221565   4.700   8.250   4.680  2.0420 -1.4533 -0.2173
38749SOL     OW21566   6.991   4.910   4.741 -0.5076  0.2120  0.0060
38749SOL    HW121567   7.053   4.900   4.813  1.9482 -0.9127 -2.1104
38749SOL    HW221568   6.996   4.828   4.693 -1.8142  1.0451 -1.6613
38750SOL     OW21569   3.765   2.678   7.035 -0.1775 -0.2306  0.1269
38750SOL    HW121570   3.720   2.665   7.118 -0.1669 -1.9626 -0.1046
38750SOL    HW221571   3.722   2.617   6.974  0.4707  0.2806 -0.8836
38751SOL     OW21572  10.021   3.237  10.391  0.5123 -0.1844 -0.6408
38751SOL    HW121573   9.955   3.304  10.412  1.2004  0.7613 -1.3990
38751SOL    HW221574  10.094   3.287  10.355  1.7151 -1.1933  0.3272
38752SOL     OW21575   8.617   8.818   5.472  0.0300 -0.0799  0.1784
38752SOL    HW121576   8.644   8.730   5.444 -1.2610 -0.2191 -0.7382
38752SOL    HW221577   8.600   8.809   5.566  2.4455 -0.1240  0.6757
38753SOL     OW21578   7.774   0.442   3.455  0.4974 -0.3894 -0.2143
38753SOL    HW121579   7.690   0.468   3.495 -0.1352  0.6578 -2.1008
38753SOL    HW221580   7.759   0.451   3.361  2.3333 -1.5191 -0.6498
38754SOL     OW21581   3.756   6.187  10.185  0.0865  0.2260  0.4349
38754SOL    HW121582   3.687   6.162  10.246  0.1851 -0.4780  0.2691
38754SOL    HW221583   3.710   6.215  10.106 -0.0142 -0.7032  0.1491
38755SOL     OW21584   9.348   3.719  11.689  0.0901  0.4617  0.5078
38755SOL    HW121585   9.370   3.627  11.704 -0.4343  0.2514 -0.0135
38755SOL    HW221586   9.259   3.718  11.655 -0.2964  1.2343  1.4547
38756SOL     OW21587   5.185  10.579   7.762  0.0957  0.0626  0.4545
38756SOL    HW121588   5.186  10.581   7.858  0.1158 -1.6735  0.5268
38756SOL    HW221589   5.275  10.560   7.738 -0.1776 -0.8914  0.1607
38757SOL     OW21590   4.213   6.700   6.255  0.3365  0.5243  0.6518
38757SOL    HW121591   4.178   6.651   6.180 -0.1286 -0.4962  1.5102
38757SOL    HW221592   4.172   6.786   6.248  1.9561  1.2113 -1.4665
38758SOL     OW21593   9.648   2.895   7.819  0.1088 -0.2462  0.6609
38758SOL    HW121594   9.557   2.894   7.849 -0.0402  1.9103  0.4790
38758SOL    HW221595   9.682   2.980   7.848  1.5635 -0.3251 -0.6626
38759SOL     OW21596   9.719   6.281   7.113 -0.3435 -0.4232  0.1994
38759SOL    HW121597   9.624   6.277   7.116 -0.3465 -0.0431  0.8403
38759SOL    HW221598   9.748   6.234   7.192 -0.0419  0.3711  0.5748
38760SOL     OW21599   3.024   8.419   2.115 -0.4762 -0.4115 -0.2440
38760SOL    HW121600   2.968   8.466   2.176 -0.6907 -0.6872 -0.2278
38760SOL    HW221601   2.985   8.332   2.108  1.8788 -1.8454  2.4637
38761SOL     OW21602   0.136   0.615   2.971  0.3136 -0.8298 -0.5992
38761SOL    HW121603   0.189   0.670   2.914 -0.0586  1.6946  1.2974
38761SOL    HW221604   0.112   0.672   3.044  0.5480 -3.7512  1.9966
38762SOL     OW21605   9.861   7.401   9.213 -0.0359 -0.0770 -0.2170
38762SOL    HW121606   9.919   7.445   9.151 -1.7823  0.9148 -1.2557
38762SOL    HW221607   9.859   7.459   9.289 -1.7221  1.3899 -1.2765
38763SOL     OW21608  11.386  10.944   7.799  0.1796 -0.7669 -0.2137
38763SOL    HW121609  11.361  10.927   7.890 -0.7779  0.7444 -0.1619
38763SOL    HW221610  11.366  10.862   7.754 -0.9947 -0.9818  0.6366
38764SOL     OW21611   0.625   5.559   1.344  0.6441 -0.7871 -0.4929
38764SOL    HW121612   0.582   5.629   1.295  1.0993 -1.4610 -1.9146
38764SOL    HW221613   0.684   5.605   1.404 -0.6281  0.0870  0.1388
38765SOL     OW21614   6.908   8.109  11.700 -0.3261  0.7677  0.9054
38765SOL    HW121615   6.996   8.132  11.671 -0.7378  1.7147  0.3734
38765SOL    HW221616   6.866   8.192  11.721 -0.9877  0.3052  1.5018
38766SOL     OW21617   2.988  11.488   6.674 -0.1180 -0.4502 -0.4823
38766SOL    HW121618   2.988  11.552   6.745  0.1721  0.4705 -1.2829
38766SOL    HW221619   2.981  11.403   6.718 -0.3533  0.1161  0.6141
38767SOL     OW21620   7.497   9.803   9.840 -0.0064 -0.0716  0.4581
38767SOL    HW121621   7.520   9.803   9.932  0.9060  0.0130  0.2387
38767SOL    HW221622   7.565   9.856   9.798  1.2563 -2.4159 -0.6591
38768SOL     OW21623   7.950   3.187  11.121  0.2839  0.4439 -0.5446
38768SOL    HW121624   7.887   3.136  11.172  1.6614  0.4674  1.2517
38768SOL    HW221625   8.021   3.126  11.102 -0.2894  0.3596 -2.7430
38769SOL     OW21626   8.466  11.673   5.404 -0.1625 -0.0162  0.1886
38769SOL    HW121627   8.481  11.592   5.452  0.2366  0.3680  0.7289
38769SOL    HW221628   8.484  11.742   5.468 -0.7516  0.4961 -0.1878
38770SOL     OW21629   6.917   9.129   5.210 -0.6407  0.1079  0.4463
38770SOL    HW121630   6.899   9.063   5.278 -0.6140  0.3920  0.7302
38770SOL    HW221631   6.868   9.206   5.237 -0.7871  0.1616  0.0355
38771SOL     OW21632   0.489   5.337   9.228  0.1143  0.2160 -0.4808
38771SOL    HW121633   0.466   5.344   9.135  0.3484 -0.6079 -0.6097
38771SOL    HW221634   0.449   5.414   9.268 -2.6182 -0.9193 -0.7672
38772SOL     OW21635  11.081   4.866   1.030 -0.5608 -0.4821 -0.4222
38772SOL    HW121636  11.013   4.852   1.096 -0.5700 -0.2208 -0.3748
38772SOL    HW221637  11.054   4.945   0.984 -0.3523 -0.4456 -0.4815
38773SOL     OW21638   9.352   2.736  11.328  0.4417 -0.3986 -0.0793
38773SOL    HW121639   9.329   2.664  11.386  0.8165 -1.1227 -0.8158
38773SOL    HW221640   9.369   2.810  11.387 -0.0564 -0.8746  0.6715
38774SOL     OW21641   1.946   8.935  10.968  0.2169  0.3490 -0.6107
38774SOL    HW121642   1.992   8.988  10.903  0.4840 -0.1262 -0.8221
38774SOL    HW221643   2.011   8.920  11.037 -0.1977  1.2066 -0.0238
38775SOL     OW21644   9.934   8.460   5.559  0.3051 -0.0778  0.4484
38775SOL    HW121645   9.927   8.497   5.647  1.3052  1.4673 -0.0865
38775SOL    HW221646   9.981   8.378   5.572 -0.2886 -0.2776  1.4502
38776SOL     OW21647   1.220   5.102   2.099 -0.1015  0.1774 -0.6360
38776SOL    HW121648   1.304   5.057   2.088  0.0986  0.1477  0.8435
38776SOL    HW221649   1.155   5.035   2.077  0.1892 -0.9192  1.5369
38777SOL     OW21650   1.998   0.178   6.647 -0.6676 -0.3980 -0.9476
38777SOL    HW121651   2.051   0.253   6.675 -2.8595  0.9820 -0.2787
38777SOL    HW221652   2.031   0.157   6.559  1.3946 -0.0516 -0.3125
38778SOL     OW21653   1.155   2.215  11.538  0.0446 -0.2180 -0.4992
38778SOL    HW121654   1.169   2.220  11.444  1.0119 -1.1828 -0.4308
38778SOL    HW221655   1.069   2.175  11.548  0.9821 -2.5275 -1.0197
38779SOL     OW21656  10.818   5.365   0.980 -0.0703 -0.0352 -0.3429
38779SOL    HW121657  10.773   5.448   0.998  1.3723  0.7809 -0.2658
38779SOL    HW221658  10.810   5.315   1.061 -3.0440 -1.0661 -1.1515
38780SOL     OW21659   4.015   1.036  10.050 -0.5135  0.4633 -0.7833
38780SOL    HW121660   4.045   0.947  10.028 -2.4053 -0.1863 -0.9005
38780SOL    HW221661   4.096   1.084  10.067  0.5453 -1.4395 -0.0920
38781SOL     OW21662  10.141   0.547   4.077  0.2120  0.5502  0.2488
38781SOL    HW121663  10.235   0.544   4.058  0.1171 -1.1504 -0.0696
38781SOL    HW221664  10.136   0.540   4.173  0.3853 -0.4112  0.1930
38782SOL     OW21665   0.296  11.282   4.774 -0.3204 -0.0108  0.1840
38782SOL    HW121666   0.291  11.194   4.736 -0.2863 -0.2936  0.8351
38782SOL    HW221667   0.264  11.339   4.704 -1.0806 -0.6104  0.0261
38783SOL     OW21668  10.770   6.291   0.401  0.1596 -0.0666 -0.7342
38783SOL    HW121669  10.711   6.247   0.463 -0.2158 -0.8725 -1.6428
38783SOL    HW221670  10.754   6.247   0.317  2.4751 -0.7508 -0.9064
38784SOL     OW21671   8.097   7.461   3.722  0.3374  0.0663  0.1657
38784SOL    HW121672   8.181   7.496   3.694  0.6463  0.3862  1.4008
38784SOL    HW221673   8.109   7.442   3.815 -0.6348 -0.8811  0.1213
38785SOL     OW21674   9.852   3.529   8.922  0.2716 -0.5322 -0.8308
38785SOL    HW121675   9.858   3.514   9.017  1.0222  3.7280 -0.0050
38785SOL    HW221676   9.938   3.506   8.888  0.1053 -1.7590 -0.4821
38786SOL     OW21677  10.611   7.811   2.088  0.1564  0.1473 -0.0563
38786SOL    HW121678  10.532   7.758   2.076  0.3260  0.4445 -3.0087
38786SOL    HW221679  10.645   7.782   2.173 -1.6821 -1.8592  0.1105
38787SOL     OW21680   0.030   8.742   0.104  0.5539  0.5424  0.0075
38787SOL    HW121681   0.049   8.735   0.198  2.3918 -2.6149 -0.4659
38787SOL    HW221682   0.096   8.803   0.071  1.2649  0.0306  0.4599
38788SOL     OW21683   6.219  11.304  11.738 -0.3419  0.5311 -0.6088
38788SOL    HW121684   6.234  11.222  11.693  0.7242 -0.2167  0.9964
38788SOL    HW221685   6.259  11.371  11.681 -0.8879 -0.0843 -1.7402
38789SOL     OW21686   5.948   6.624   9.979  0.4037  0.3069 -0.0582
38789SOL    HW121687   5.966   6.537   9.943 -0.4494  0.3643 -0.6476
38789SOL    HW221688   6.003   6.683   9.928  0.6782  0.1676  0.0706
38790SOL     OW21689   1.056   5.085   9.846 -0.0805 -0.5218 -0.2163
38790SOL    HW121690   1.000   5.093   9.769 -2.6222  0.4051  1.5872
38790SOL    HW221691   1.088   4.994   9.843 -1.1145 -0.8804 -1.6922
38791SOL     OW21692   6.652  10.778  10.064 -0.0438 -0.1103 -0.2652
38791SOL    HW121693   6.561  10.793  10.090 -0.1220 -0.0806 -0.5477
38791SOL    HW221694   6.663  10.833   9.986  0.5222  0.6980  0.3678
38792SOL     OW21695   2.608   6.584   1.135  0.5601  0.4598 -0.5048
38792SOL    HW121696   2.539   6.620   1.190  0.3523  1.1166 -1.1772
38792SOL    HW221697   2.650   6.517   1.189 -2.0034 -1.5574 -0.8030
38793SOL     OW21698   6.138  11.425   1.250  0.4468 -0.2574 -0.8411
38793SOL    HW121699   6.207  11.365   1.279  0.7111 -0.6981 -2.2629
38793SOL    HW221700   6.134  11.411   1.155  0.0636  1.5161 -1.1202
38794SOL     OW21701   7.436   0.312   3.564 -0.2714 -0.1584 -0.1617
38794SOL    HW121702   7.487   0.311   3.483 -0.5796 -1.1231 -0.3529
38794SOL    HW221703   7.481   0.376   3.620  1.7128 -1.6444  0.0440
38795SOL     OW21704  10.234   7.583   7.614  0.0495 -0.1340  0.0061
38795SOL    HW121705  10.329   7.573   7.618 -0.1283 -1.5565  1.3165
38795SOL    HW221706  10.200   7.511   7.666 -1.7013  1.5730  1.3960
38796SOL     OW21707   9.302   9.879   8.867 -0.7994  0.5272 -0.1231
38796SOL    HW121708   9.376   9.923   8.909 -0.7824  0.0824  0.3309
38796SOL    HW221709   9.333   9.790   8.851 -1.0104  0.5259 -0.5511
38797SOL     OW21710   2.110   5.472   7.972  0.0079  0.0891  0.9544
38797SOL    HW121711   2.164   5.543   7.936 -0.4010  0.4798  1.1005
38797SOL    HW221712   2.168   5.396   7.972 -0.2980 -0.2368 -1.6363
38798SOL     OW21713   0.945   4.248   4.407  0.1267 -0.4774 -0.0725
38798SOL    HW121714   0.894   4.329   4.410  0.1864 -0.4774  2.1589
38798SOL    HW221715   1.023   4.267   4.459  0.5701 -1.6915 -0.2614
38799SOL     OW21716   7.729   0.155  10.739  0.3572  0.6265 -0.2906
38799SOL    HW121717   7.703   0.117  10.655  3.0622  1.1182 -1.4336
38799SOL    HW221718   7.812   0.114  10.760  1.5227  3.1018  0.3087
38800SOL     OW21719   9.055   9.429   2.871 -0.2883 -0.8385 -0.2226
38800SOL    HW121720   8.969   9.471   2.879  0.4735  0.5635  1.2183
38800SOL    HW221721   9.114   9.501   2.850  0.4234 -1.9514 -2.3636
38801SOL     OW21722   1.556   3.033   9.642 -0.1095 -0.1673 -0.4077
38801SOL    HW121723   1.520   3.079   9.717 -1.3558  0.4683 -1.3520
38801SOL    HW221724   1.571   3.101   9.576  1.1804 -0.6715 -0.6771
38802SOL     OW21725   3.963  10.432   9.343 -0.2920 -0.2323 -0.0098
38802SOL    HW121726   3.871  10.416   9.319 -0.5552  0.7974  0.2531
38802SOL    HW221727   3.965  10.423   9.438  0.3093 -2.2134 -0.1837
38803SOL     OW21728   1.207   2.152   0.878 -0.5042  0.5555 -0.2780
38803SOL    HW121729   1.276   2.105   0.832  2.2799  3.6190  0.3612
38803SOL    HW221730   1.129   2.140   0.824  0.5348 -2.7403 -1.2796
38804SOL     OW21731   6.464   2.149   8.265  0.0378 -0.0855 -0.1934
38804SOL    HW121732   6.480   2.089   8.192 -1.2617 -0.6932 -0.0189
38804SOL    HW221733   6.410   2.219   8.226 -0.6518 -0.4076  0.1679
38805SOL     OW21734   3.129   6.202   2.293 -0.4366 -0.2280  0.4662
38805SOL    HW121735   3.205   6.260   2.285 -0.3920 -0.2087  0.9898
38805SOL    HW221736   3.147   6.131   2.232  0.8350 -1.1252  1.7994
38806SOL     OW21737   3.187   8.675   2.585  0.1484  0.2637  0.1749
38806SOL    HW121738   3.244   8.751   2.586  0.6433 -0.0760 -0.6751
38806SOL    HW221739   3.117   8.696   2.646  1.8710  0.1268  2.3092
38807SOL     OW21740   2.727   5.672   0.975  0.1718  0.0785  0.5858
38807SOL    HW121741   2.683   5.631   1.050  0.2657 -0.8687  0.1259
38807SOL    HW221742   2.718   5.610   0.904  1.2944  0.3546  0.1728
38808SOL     OW21743   9.655   2.379   5.156 -0.0495  0.5178  0.5933
38808SOL    HW121744   9.635   2.470   5.180  0.0028  1.2976 -2.0553
38808SOL    HW221745   9.644   2.376   5.061 -3.2432 -3.1038  0.8498
38809SOL     OW21746   0.538  10.148  11.574  0.1009 -0.0578 -0.2185
38809SOL    HW121747   0.577  10.235  11.577  1.8085 -0.7863  0.2416
38809SOL    HW221748   0.568  10.106  11.655 -3.0976 -0.1488  1.0499
38810SOL     OW21749   2.294   6.676   5.901  0.1298 -0.0208 -0.4013
38810SOL    HW121750   2.377   6.698   5.942  0.1539 -0.6940 -0.0676
38810SOL    HW221751   2.261   6.602   5.952 -0.8843  0.5074 -0.2541
38811SOL     OW21752   3.956  11.639   8.474  0.0644  0.0754 -0.6036
38811SOL    HW121753   3.901  11.602   8.542 -1.3612 -0.0798 -1.7885
38811SOL    HW221754   3.905  11.711   8.438 -0.0441 -0.9429 -2.6600
38812SOL     OW21755   3.888   2.553   5.363  0.0262  0.1211 -0.3660
38812SOL    HW121756   3.828   2.485   5.334  1.9872 -0.9091 -2.3545
38812SOL    HW221757   3.901   2.536   5.456 -1.9054 -0.2321 -0.1208
38813SOL     OW21758   5.045   8.264   4.691  0.1557 -0.2842 -0.2766
38813SOL    HW121759   5.061   8.333   4.754 -0.7877  0.6152 -0.9920
38813SOL    HW221760   5.114   8.200   4.708  0.8290  0.6502  0.6410
38814SOL     OW21761   7.538   0.206   2.845 -0.3554  0.1754  0.3019
38814SOL    HW121762   7.625   0.238   2.821 -0.1917  0.3679  1.0933
38814SOL    HW221763   7.486   0.286   2.855 -0.7194  0.0446 -0.5024
38815SOL     OW21764   6.053   1.540   7.715 -0.1554  0.0860 -0.3161
38815SOL    HW121765   6.117   1.488   7.764 -1.6528 -0.6509  0.9682
38815SOL    HW221766   6.027   1.483   7.642 -1.8097 -1.0965  1.0996
38816SOL     OW21767   8.454   6.658   3.600 -0.2321 -0.0063  0.1254
38816SOL    HW121768   8.547   6.670   3.578 -0.1594 -1.3206 -0.3884
38816SOL    HW221769   8.453   6.578   3.653 -1.2021 -0.7348 -0.9490
38817SOL     OW21770   8.803  11.160   4.973 -0.6679 -0.4218 -0.3633
38817SOL    HW121771   8.735  11.107   5.014 -1.2675  0.4934 -0.1231
38817SOL    HW221772   8.852  11.099   4.919 -0.8621 -1.3583  0.4809
38818SOL     OW21773   0.765   1.676   1.959  0.1245 -0.3426 -0.1810
38818SOL    HW121774   0.725   1.597   1.922  0.8078 -1.3191  1.0755
38818SOL    HW221775   0.798   1.724   1.883 -2.8658  0.2516 -1.2568
38819SOL     OW21776   8.485  11.786   5.688  0.1222  0.2764  0.5161
38819SOL    HW121777   8.454  11.696   5.699 -0.8485  0.3807 -1.1342
38819SOL    HW221778   8.578  11.777   5.667 -0.0439 -0.3611  0.0467
38820SOL     OW21779   5.412  10.497   0.559  0.1386  0.1817  0.4838
38820SOL    HW121780   5.452  10.462   0.480  2.2356  0.1266  1.5029
38820SOL    HW221781   5.353  10.566   0.528 -0.0249 -0.6545 -1.1759
38821SOL     OW21782   5.843   9.015  11.791  0.6353  0.1087 -0.6185
38821SOL    HW121783   5.819   9.034  11.701  1.1891  1.4801 -0.5002
38821SOL    HW221784   5.925   9.062  11.805  2.1658 -2.4585 -0.2729
38822SOL     OW21785   1.203   6.283   6.797 -0.4845 -0.0712  0.6083
38822SOL    HW121786   1.216   6.193   6.826 -1.4194 -0.8813 -1.2837
38822SOL    HW221787   1.285   6.328   6.819  1.1054 -2.0775 -0.8270
38823SOL     OW21788   5.875   3.439  10.241  0.2483 -0.5129 -0.7575
38823SOL    HW121789   5.912   3.452  10.153 -1.6944  0.3028 -1.5153
38823SOL    HW221790   5.786   3.475  10.235  0.0738 -0.4115  1.5657
38824SOL     OW21791   1.429   6.571   1.364  0.1014 -0.2323 -0.1782
38824SOL    HW121792   1.477   6.599   1.441  2.0385 -3.0253 -0.2350
38824SOL    HW221793   1.365   6.507   1.396 -0.0613 -0.3511 -0.7115
38825SOL     OW21794  11.150   7.412   1.136 -0.3060 -0.4340 -0.8995
38825SOL    HW121795  11.095   7.489   1.121 -0.1170 -0.2068 -0.4255
38825SOL    HW221796  11.092   7.349   1.179 -0.5885 -0.7380 -1.6965
38826SOL     OW21797   6.774   7.935   2.290 -0.3180 -0.0927  0.1689
38826SOL    HW121798   6.752   7.858   2.236 -1.2994  1.4092 -1.6919
38826SOL    HW221799   6.861   7.961   2.259  0.0706 -0.4885  0.8926
38827SOL     OW21800   6.647   7.557   5.030  0.5311 -0.7912  0.5040
38827SOL    HW121801   6.590   7.564   4.953  0.0509 -1.4630  0.7905
38827SOL    HW221802   6.654   7.647   5.062 -2.1208 -0.8895  1.6779
38828SOL     OW21803   5.411   0.786   4.970  0.2592 -0.2709 -0.0712
38828SOL    HW121804   5.439   0.877   4.980  1.5139 -0.7870  1.3829
38828SOL    HW221805   5.409   0.772   4.875 -0.6985  1.4629 -0.3558
38829SOL     OW21806   7.856  11.647   1.858  0.7900 -0.0783 -0.0825
38829SOL    HW121807   7.913  11.572   1.876  1.0366  0.3561  1.0671
38829SOL    HW221808   7.818  11.628   1.773 -0.7430 -2.5220  1.0311
38830SOL     OW21809   4.777   1.325   7.020  0.2914  0.4570 -0.1741
38830SOL    HW121810   4.847   1.315   6.956 -0.4729  0.5253 -1.0433
38830SOL    HW221811   4.718   1.389   6.981 -1.6370 -1.5289 -0.7477
38831SOL     OW21812   2.644   9.593   2.733 -0.3296  0.0111 -0.3022
38831SOL    HW121813   2.560   9.552   2.753 -0.3354 -0.4590 -1.2184
38831SOL    HW221814   2.709   9.532   2.766 -0.3433 -0.5246 -1.2319
38832SOL     OW21815   9.530   9.393   6.181  0.0117  0.0188  0.5616
38832SOL    HW121816   9.528   9.309   6.225 -1.4963 -0.3773 -0.1933
38832SOL    HW221817   9.604   9.440   6.220  0.5204 -1.4268  1.3805
38833SOL     OW21818   6.665   6.614   6.849  0.1818 -0.0749 -0.1828
38833SOL    HW121819   6.685   6.522   6.832  4.7057  0.8762 -1.4500
38833SOL    HW221820   6.639   6.649   6.764 -1.9545 -0.1826  0.3851
38834SOL     OW21821  10.311   6.925   2.898  0.2705 -0.0365  0.3518
38834SOL    HW121822  10.264   7.008   2.905 -0.8621 -0.5690 -0.6159
38834SOL    HW221823  10.352   6.914   2.984 -2.0784  0.0611  1.5841
38835SOL     OW21824   8.497   9.695   3.272  0.4734 -0.1814  0.5824
38835SOL    HW121825   8.461   9.771   3.226  2.8537 -0.6098 -2.3160
38835SOL    HW221826   8.498   9.626   3.205  2.6765 -1.3520  1.7291
38836SOL     OW21827   8.528   5.932   2.655 -0.1748 -0.2151  0.1097
38836SOL    HW121828   8.586   5.856   2.663  0.2301  0.0297 -0.4306
38836SOL    HW221829   8.588   6.005   2.641 -0.3037  0.7083  3.5209
38837SOL     OW21830   2.036   3.581   2.638  0.3411  0.8109  0.2444
38837SOL    HW121831   1.955   3.532   2.620  0.7602  0.6696 -1.3645
38837SOL    HW221832   2.098   3.514   2.667  0.5301  0.5589 -0.7049
38838SOL     OW21833   3.688   7.100   1.560  0.0566  0.6323 -0.2469
38838SOL    HW121834   3.594   7.104   1.548 -0.0463  1.4723  0.7156
38838SOL    HW221835   3.710   7.178   1.611  1.2930  0.5403 -0.5908
38839SOL     OW21836   4.230   1.578  10.435  0.1532 -0.1861 -0.2171
38839SOL    HW121837   4.243   1.487  10.462  2.8103  0.4272  0.9106
38839SOL    HW221838   4.152   1.576  10.381  0.8351 -3.3675 -1.3115
38840SOL     OW21839   3.996   4.482  10.939  0.7760  0.2650  0.2503
38840SOL    HW121840   3.936   4.551  10.912  0.2152 -0.1327  0.4663
38840SOL    HW221841   3.989   4.415  10.871  0.2408 -0.2114  0.7587
38841SOL     OW21842   5.683   8.011   5.849  0.0837  0.1836 -0.3353
38841SOL    HW121843   5.594   7.990   5.821  0.1019 -0.8818  0.3449
38841SOL    HW221844   5.675   8.033   5.941  0.4920  0.3082 -0.3268
38842SOL     OW21845   2.044   0.530   9.081  0.7268  0.6502 -0.4226
38842SOL    HW121846   2.103   0.463   9.114  1.1838  0.5437 -1.4216
38842SOL    HW221847   2.041   0.596   9.151  2.6266  1.0175 -0.6430
38843SOL     OW21848   0.032   4.249  11.009 -0.4966  0.0068  1.0833
38843SOL    HW121849   0.032   4.171  11.065  0.9689 -1.2375 -0.5244
38843SOL    HW221850  -0.025   4.226  10.936 -0.0754  0.4585  0.6057
38844SOL     OW21851   5.893   7.593   9.097 -0.2260  0.1999 -0.1756
38844SOL    HW121852   5.810   7.547   9.080 -0.9845  1.4764 -0.0988
38844SOL    HW221853   5.894   7.606   9.192  0.6592 -0.8560 -0.0264
38845SOL     OW21854   7.361  11.083   2.186 -0.3577  0.3234  0.1776
38845SOL    HW121855   7.353  11.173   2.155  0.3717  0.7032  1.0168
38845SOL    HW221856   7.446  11.082   2.231 -0.0177 -0.9853 -0.4610
38846SOL     OW21857   0.641   5.807   5.382  1.1061  0.8318 -0.8900
38846SOL    HW121858   0.625   5.891   5.340 -0.2859  1.9966  1.7918
38846SOL    HW221859   0.555   5.778   5.413  2.0638  0.2210  1.4154
38847SOL     OW21860   9.288   3.993   4.537  0.3853  0.8283 -0.2425
38847SOL    HW121861   9.270   4.043   4.458  3.1966  0.8016 -0.9966
38847SOL    HW221862   9.211   3.937   4.548 -0.7093  1.8642 -2.0843
38848SOL     OW21863   1.582  11.053   0.098  0.4803 -0.0836 -0.8413
38848SOL    HW121864   1.534  10.971   0.108 -0.2470  0.3924 -0.2895
38848SOL    HW221865   1.578  11.093   0.185  2.2633 -0.2237 -0.6483
38849SOL     OW21866   3.907   1.537   1.815  0.2709 -0.0827  0.4578
38849SOL    HW121867   3.904   1.587   1.896  0.6536  1.2528 -0.3311
38849SOL    HW221868   3.841   1.468   1.827  0.2669  0.1403  1.8547
38850SOL     OW21869   8.961   3.638   8.933  0.1610  0.6035 -0.0959
38850SOL    HW121870   9.003   3.567   8.983 -2.0697 -2.2761 -1.9678
38850SOL    HW221871   9.034   3.687   8.895  1.8328  0.3764  2.5612
38851SOL     OW21872  11.253   9.182   9.101  0.3106 -0.3592 -0.2927
38851SOL    HW121873  11.233   9.190   9.008  3.3872  0.8117 -0.9911
38851SOL    HW221874  11.228   9.267   9.138 -0.5672 -0.6912 -0.1134
38852SOL     OW21875   2.926   4.755   2.316  0.0739  0.5027 -0.5185
38852SOL    HW121876   2.954   4.701   2.242  3.4327 -1.5800  1.9875
38852SOL    HW221877   2.845   4.713   2.347  2.0486 -2.7495  0.7176
38853SOL     OW21878   4.999   2.344  10.423  0.1670  0.1851 -0.3622
38853SOL    HW121879   5.074   2.404  10.428  1.1915 -0.9408 -1.5098
38853SOL    HW221880   4.972   2.332  10.514  0.9258  1.1632  0.0116
38854SOL     OW21881   1.679   5.670   3.287 -0.2312 -0.1532 -0.4214
38854SOL    HW121882   1.643   5.634   3.368  0.3978 -1.0159 -0.5061
38854SOL    HW221883   1.618   5.642   3.219 -0.6588  0.4132 -0.2819
38855SOL     OW21884   6.858   1.897   7.720  0.4777 -0.0180 -0.1673
38855SOL    HW121885   6.907   1.920   7.641  1.3008  0.0960  0.3632
38855SOL    HW221886   6.922   1.854   7.777  0.5991  2.1998  1.5074
38856SOL     OW21887   0.168   9.850   2.979  0.0402  0.3538  0.0288
38856SOL    HW121888   0.159   9.844   2.884 -1.3280 -0.1011  0.1633
38856SOL    HW221889   0.257   9.883   2.993 -0.2546  1.9192 -1.4508
38857SOL     OW21890   5.490   0.037  11.586  0.5551 -0.2321  0.3811
38857SOL    HW121891   5.466   0.106  11.648 -2.0969 -1.2904  0.6648
38857SOL    HW221892   5.506  -0.040  11.641  3.8072  0.1234  0.1006
38858SOL     OW21893  11.710   1.192   4.304 -0.7822  0.5955  0.1062
38858SOL    HW121894  11.744   1.226   4.221 -0.6602 -0.7352 -0.4178
38858SOL    HW221895  11.784   1.147   4.344 -0.2981  2.8261  1.8945
38859SOL     OW21896   8.646   4.572   0.793  0.4291  0.1879 -0.5585
38859SOL    HW121897   8.712   4.618   0.845 -0.5338  0.9641  0.0135
38859SOL    HW221898   8.649   4.482   0.825 -0.3043  0.7002  1.0567
38860SOL     OW21899  11.666   8.954   4.908 -0.5521  0.4986  0.1505
38860SOL    HW121900  11.633   9.015   4.842  0.6755 -0.7029 -1.6544
38860SOL    HW221901  11.612   8.876   4.898  0.5905 -0.2306 -0.4942
38861SOL     OW21902   1.898   9.481   4.164 -0.5435 -0.4342  0.4088
38861SOL    HW121903   1.909   9.504   4.257  0.3254 -1.1809  0.5015
38861SOL    HW221904   1.825   9.536   4.135 -0.0824  0.6563  1.2340
38862SOL     OW21905   0.373   7.218  10.501 -0.0638 -0.4260 -0.6277
38862SOL    HW121906   0.285   7.227  10.465 -0.5611  0.3262  0.6882
38862SOL    HW221907   0.421   7.294  10.470 -0.4086  0.0748  0.0375
38863SOL     OW21908   8.056   2.045   9.576 -0.3350  0.0457  0.3699
38863SOL    HW121909   8.054   1.961   9.530 -0.4444 -0.5417  1.4131
38863SOL    HW221910   8.016   2.027   9.661 -0.3767  1.1642  0.6082
38864SOL     OW21911  10.823   7.622   8.784 -0.1376  0.0168 -0.2151
38864SOL    HW121912  10.784   7.535   8.779  0.7289 -0.4014  0.1163
38864SOL    HW221913  10.907   7.608   8.826 -0.6836  1.2520  1.3935
38865SOL     OW21914   6.185  10.691  10.394  0.2663 -0.2105 -0.1763
38865SOL    HW121915   6.161  10.784  10.390  1.5730  0.1503 -0.0615
38865SOL    HW221916   6.102  10.645  10.387 -0.3931  0.9669 -0.4184
38866SOL     OW21917   0.375   4.134   1.613 -0.1564  0.8638 -0.4142
38866SOL    HW121918   0.450   4.174   1.658  0.4082 -0.0672 -0.4944
38866SOL    HW221919   0.381   4.041   1.635 -0.6631  0.6116 -1.3038
38867SOL     OW21920  10.478   2.766   3.019  0.6398 -0.9502 -0.1724
38867SOL    HW121921  10.427   2.831   2.971 -0.3930 -0.0478  2.0533
38867SOL    HW221922  10.434   2.683   3.002  0.7338 -0.7802 -1.3390
38868SOL     OW21923   9.196   6.986   7.085 -0.2047  0.1780 -0.0545
38868SOL    HW121924   9.262   6.942   7.032  1.4990  0.5875  1.6071
38868SOL    HW221925   9.130   6.920   7.103  0.4447 -0.6487 -0.6586
38869SOL     OW21926   1.980   7.616   2.685  0.3144 -0.2315  0.6164
38869SOL    HW121927   2.011   7.534   2.724  0.7947  0.7706  2.4121
38869SOL    HW221928   2.049   7.640   2.623 -0.0210 -1.3612 -0.2399
38870SOL     OW21929   3.135   0.770   1.853 -0.2590 -0.3655  0.1448
38870SOL    HW121930   3.196   0.696   1.859 -0.6598 -0.7988 -0.8686
38870SOL    HW221931   3.081   0.750   1.776 -1.5910  0.0709  0.9410
38871SOL     OW21932   8.553   5.796  11.180 -0.2806  0.0631 -0.0114
38871SOL    HW121933   8.481   5.734  11.192  0.2303 -0.8834 -1.5510
38871SOL    HW221934   8.629   5.752  11.219 -0.7400  1.7222  3.0633
38872SOL     OW21935   7.412   8.519   2.712 -0.2380 -0.1456  0.1381
38872SOL    HW121936   7.420   8.455   2.641 -1.2767 -0.9738  0.7199
38872SOL    HW221937   7.475   8.490   2.778 -0.1721 -0.1362  0.0785
38873SOL     OW21938   5.278  10.620  11.609 -0.2065 -0.2775  0.8750
38873SOL    HW121939   5.209  10.681  11.638 -2.2550 -1.2812 -1.4984
38873SOL    HW221940   5.240  10.533  11.623  0.7915 -0.8750 -0.0542
38874SOL     OW21941   0.025   9.863   8.504 -0.9662  0.0633 -0.8965
38874SOL    HW121942   0.053   9.773   8.485 -0.6619  0.4847 -2.6638
38874SOL    HW221943  -0.041   9.854   8.572  1.0709 -1.2595  1.0212
38875SOL     OW21944   2.837   2.945   4.973  0.1515 -0.0247  0.2684
38875SOL    HW121945   2.807   3.029   4.937  2.3430  1.1532  1.0116
38875SOL    HW221946   2.928   2.961   4.998  1.5795 -3.4364 -2.1159
38876SOL     OW21947   2.979   6.423   4.696 -0.5637  0.7942 -0.1120
38876SOL    HW121948   2.886   6.406   4.682 -0.4100 -0.5874  0.3226
38876SOL    HW221949   2.998   6.383   4.781  0.8699 -0.9487 -1.1775
38877SOL     OW21950   8.405  11.262   5.012 -0.3852 -0.5663  0.3915
38877SOL    HW121951   8.312  11.262   5.033 -0.7442 -0.2770 -1.0904
38877SOL    HW221952   8.417  11.186   4.956  0.1917 -0.3457  0.2088
38878SOL     OW21953   4.030  11.176   5.861  0.5211  0.0420  0.3691
38878SOL    HW121954   3.976  11.158   5.784  0.7965 -0.3558  0.2669
38878SOL    HW221955   3.968  11.181   5.933  0.4581 -1.6656  0.4560
38879SOL     OW21956   1.364   4.789   4.922 -0.1319 -0.0200 -0.2640
38879SOL    HW121957   1.447   4.791   4.875 -1.0134 -0.5937 -1.9114
38879SOL    HW221958   1.364   4.703   4.965 -0.6960 -0.8610 -1.8765
38880SOL     OW21959   6.271   5.606   1.236  0.1634  0.1387  0.2683
38880SOL    HW121960   6.247   5.692   1.271  1.0758  0.4024  0.2732
38880SOL    HW221961   6.335   5.624   1.168  0.6684 -0.5582  0.5387
38881SOL     OW21962   5.504   6.824   4.316  0.2575  0.3596 -0.1975
38881SOL    HW121963   5.451   6.901   4.332 -0.2419  0.2197 -1.1009
38881SOL    HW221964   5.541   6.801   4.401  1.2245  2.1750 -0.0849
38882SOL     OW21965   9.415   6.292   7.393  0.0973  0.1669  0.3963
38882SOL    HW121966   9.485   6.261   7.450 -0.5335 -2.2460 -0.0187
38882SOL    HW221967   9.411   6.387   7.408  3.0408  0.3191  0.8364
38883SOL     OW21968   3.836   2.716   3.599  0.6155  0.2824  0.3053
38883SOL    HW121969   3.870   2.673   3.677  2.0158  0.7539 -0.0190
38883SOL    HW221970   3.744   2.691   3.596  1.5178 -3.6042 -0.4388
38884SOL     OW21971   9.323   4.889   5.178  0.5102  0.1923  0.8963
38884SOL    HW121972   9.321   4.984   5.193  1.1218  0.0847  1.7070
38884SOL    HW221973   9.243   4.857   5.220 -0.4416  0.4948 -0.6021
38885SOL     OW21974   3.622   8.100   4.569 -0.4569 -0.0388 -0.3339
38885SOL    HW121975   3.689   8.054   4.618 -0.1587 -1.2058 -1.7774
38885SOL    HW221976   3.554   8.035   4.553 -0.9005  0.5246 -0.8054
38886SOL     OW21977   8.369   7.486  11.607 -0.5070  0.7077  0.0170
38886SOL    HW121978   8.357   7.403  11.560  0.1380 -0.7507  2.2495
38886SOL    HW221979   8.376   7.460  11.699  0.8173  3.1497  0.6854
38887SOL     OW21980   1.361   6.240   2.006  0.0270 -0.3759 -0.2646
38887SOL    HW121981   1.342   6.276   1.919  1.0565 -0.8122 -0.6997
38887SOL    HW221982   1.362   6.316   2.064 -3.6864 -0.3754  0.0073
38888SOL     OW21983   8.572   9.462   5.570  0.1950 -0.1349  0.0535
38888SOL    HW121984   8.665   9.456   5.590  0.0955 -0.8595  0.3266
38888SOL    HW221985   8.566   9.448   5.475  0.5089  1.6254 -0.2661
38889SOL     OW21986   4.421   4.569   4.862  0.0147 -0.5116 -0.2928
38889SOL    HW121987   4.384   4.619   4.935 -1.5092 -0.2216 -1.2281
38889SOL    HW221988   4.504   4.612   4.843  0.6296 -0.8314  1.5048
38890SOL     OW21989   4.609   0.121   3.519 -0.0205 -0.4735  0.6940
38890SOL    HW121990   4.643   0.122   3.609  0.3317 -0.2303  0.5605
38890SOL    HW221991   4.521   0.157   3.526  0.6720  1.3501  0.6790
38891SOL     OW21992   4.675   5.857   5.282  0.4785  0.6423 -0.6932
38891SOL    HW121993   4.690   5.854   5.376 -1.3052  1.2429 -0.3552
38891SOL    HW221994   4.626   5.778   5.262 -0.6494  1.3529 -0.8054
38892SOL     OW21995   6.351   9.387   5.093 -0.4642  0.4910  0.2182
38892SOL    HW121996   6.298   9.312   5.119 -0.4006 -0.0237 -1.0660
38892SOL    HW221997   6.376   9.369   5.003  3.2071 -0.0890  1.1625
38893SOL     OW21998   6.390   1.393   3.676 -0.4150 -0.2644 -0.8480
38893SOL    HW121999   6.407   1.468   3.733 -1.8108 -0.0223 -0.6961
38893SOL    HW222000   6.410   1.317   3.729  0.6431 -0.0110 -0.8695
38894SOL     OW22001   8.534   2.738   7.780 -0.5575 -0.1446  0.4755
38894SOL    HW122002   8.452   2.689   7.786 -0.3565 -0.5259  0.1480
38894SOL    HW222003   8.517   2.818   7.829 -1.2948  0.0164 -0.0223
38895SOL     OW22004   2.511   0.679   5.821  0.6579 -0.1748 -0.6869
38895SOL    HW122005   2.591   0.640   5.855  1.5516  1.6831 -0.5743
38895SOL    HW222006   2.489   0.748   5.883 -1.3479 -0.9625 -0.4328
38896SOL     OW22007   5.251  10.473   5.287 -0.3558 -0.2023  0.2452
38896SOL    HW122008   5.243  10.563   5.254  1.2070 -0.1494 -0.0672
38896SOL    HW222009   5.177  10.463   5.346 -0.7042  1.2082  0.0914
38897SOL     OW22010   4.729   2.469  10.446  0.4547  0.2174 -0.4898
38897SOL    HW122011   4.670   2.436  10.378  0.1072 -0.6972  0.2403
38897SOL    HW222012   4.677   2.535  10.493  0.8209  1.1321 -1.3200
38898SOL     OW22013  10.013   4.533   3.363  0.1762  0.1835  0.6758
38898SOL    HW122014   9.946   4.530   3.295  1.5578  0.6707 -0.7564
38898SOL    HW222015   9.969   4.572   3.439 -1.7330 -1.4796  0.4974
38899SOL     OW22016   7.811  11.154   6.578  0.0769 -0.2432  0.0908
38899SOL    HW122017   7.752  11.096   6.529  0.2677 -1.5251  1.3021
38899SOL    HW222018   7.898  11.135   6.543  0.0744 -0.3199  0.1245
38900SOL     OW22019   2.905   1.844   0.551  0.4544 -0.2660 -0.5740
38900SOL    HW122020   2.995   1.873   0.536 -0.1235  1.0952 -1.7249
38900SOL    HW222021   2.882   1.797   0.471  0.8683 -2.7423  0.6635
38901SOL     OW22022   9.546   9.461   5.145 -0.0879  0.1153  0.1638
38901SOL    HW122023   9.465   9.512   5.137  0.2254  0.7278  0.7431
38901SOL    HW222024   9.613   9.527   5.165  0.5764 -0.3695 -0.4294
38902SOL     OW22025   8.884   3.464   0.029 -0.0129  0.2553 -0.2471
38902SOL    HW122026   8.904   3.372   0.041  0.4918  0.3610 -0.2509
38902SOL    HW222027   8.902   3.481  -0.064  0.7278  0.5560 -0.0507
38903SOL     OW22028   2.704  10.358   3.927  0.4434  0.5867 -0.0730
38903SOL    HW122029   2.631  10.336   3.870 -1.1448 -0.2770  2.1620
38903SOL    HW222030   2.741  10.438   3.889 -0.0034 -0.3656 -2.6942
38904SOL     OW22031   8.469   7.520   9.806  0.1515 -0.0614 -0.0866
38904SOL    HW122032   8.516   7.437   9.807  3.2877  1.5716  0.4828
38904SOL    HW222033   8.509   7.569   9.734 -3.1620  0.2858 -1.9201
38905SOL     OW22034   9.370   7.559   0.575 -0.2534  0.2220  0.4722
38905SOL    HW122035   9.457   7.578   0.610  0.4597 -1.5519 -0.2083
38905SOL    HW222036   9.386   7.500   0.501 -1.9679  0.7532 -0.3856
38906SOL     OW22037   7.848   6.563  11.669 -0.6303 -0.3120  0.0108
38906SOL    HW122038   7.939   6.533  11.672 -0.4115  0.3993  1.3999
38906SOL    HW222039   7.824   6.555  11.577  0.7544 -0.7398 -0.3520
38907SOL     OW22040   0.104   9.870   4.507  0.6407  0.4245  0.7501
38907SOL    HW122041   0.057   9.815   4.569  0.9890 -3.3891 -2.0063
38907SOL    HW222042   0.190   9.883   4.547  0.3882 -0.7057  1.7249
38908SOL     OW22043   2.336   7.931   7.818 -0.1375  0.1320 -0.1218
38908SOL    HW122044   2.387   7.862   7.861 -1.5380 -0.9009 -0.0432
38908SOL    HW222045   2.275   7.961   7.884 -0.7658  0.1470 -0.6930
38909SOL     OW22046   7.708   7.994   7.057 -0.9761  0.1865  0.1215
38909SOL    HW122047   7.800   8.019   7.045 -1.3075  1.4303 -0.0085
38909SOL    HW222048   7.690   8.016   7.149 -0.9975 -0.5846  0.3080
38910SOL     OW22049   5.130   7.163  10.650  0.0121  0.1925  0.3485
38910SOL    HW122050   5.068   7.108  10.698  0.9693  0.9728  2.6385
38910SOL    HW222051   5.196   7.102  10.616 -0.9532 -0.4342 -0.4286
38911SOL     OW22052   8.044  11.549  11.263 -0.2777  0.0849 -0.4712
38911SOL    HW122053   8.110  11.486  11.292 -2.6706 -1.3421  2.3050
38911SOL    HW222054   7.993  11.502  11.197 -0.3666  0.0887 -0.4065
38912SOL     OW22055  10.017   4.646   6.757 -0.1025 -0.5630  0.1573
38912SOL    HW122056   9.970   4.680   6.680 -0.9615 -1.1023  0.4264
38912SOL    HW222057  10.016   4.718   6.820 -0.5585 -0.5639  0.1539
38913SOL     OW22058   5.516   6.761   8.421 -0.2042 -0.1017 -0.2057
38913SOL    HW122059   5.611   6.753   8.428 -0.2611 -1.5102 -0.7456
38913SOL    HW222060   5.484   6.750   8.510  0.0842 -0.6239 -0.1629
38914SOL     OW22061   5.320   9.417   2.088  0.0446  0.3219 -0.2699
38914SOL    HW122062   5.383   9.363   2.042  1.3699  0.9749  0.7191
38914SOL    HW222063   5.243   9.419   2.031  0.1156 -2.1918 -0.5522
38915SOL     OW22064  10.144   8.251   6.443 -0.3407 -0.5383  0.1444
38915SOL    HW122065  10.132   8.295   6.527 -1.7060 -0.5953 -0.0005
38915SOL    HW222066  10.195   8.313   6.390 -2.3367  1.0109 -0.1039
38916SOL     OW22067   4.085   5.559   3.485  0.3072  0.1499  0.7576
38916SOL    HW122068   4.128   5.639   3.455  0.8864  0.6511  2.7644
38916SOL    HW222069   4.121   5.490   3.430  1.5909  0.9606  0.5423
38917SOL     OW22070   6.273   1.257   4.249  0.1341  0.2370  0.5986
38917SOL    HW122071   6.186   1.281   4.280 -0.1869 -0.1303  0.0088
38917SOL    HW222072   6.261   1.170   4.212  0.7458  0.2062  0.4698
38918SOL     OW22073   7.584  11.139  10.974  0.1421  0.2254  0.2636
38918SOL    HW122074   7.597  11.201  11.045  2.2863  0.3351 -0.1265
38918SOL    HW222075   7.613  11.055  11.010 -0.2432 -0.0206  0.0036
38919SOL     OW22076   5.744   7.857   6.222  0.4473 -0.2997 -0.0746
38919SOL    HW122077   5.711   7.942   6.192  0.1869 -0.5264 -0.4290
38919SOL    HW222078   5.684   7.831   6.291  2.1333  1.1347  2.0829
38920SOL     OW22079  11.819   8.955   9.445  0.1107 -0.0451 -0.1531
38920SOL    HW122080  11.801   8.960   9.539  0.3377 -2.2052  0.0463
38920SOL    HW222081  11.862   9.038   9.425 -1.2896  1.1057  1.3171
38921SOL     OW22082   1.770   4.652   3.577  0.0624 -0.4421 -0.0538
38921SOL    HW122083   1.682   4.691   3.571 -0.3260 -1.4602 -1.2712
38921SOL    HW222084   1.761   4.582   3.641 -0.2051 -1.0075 -0.6995
38922SOL     OW22085  10.274   2.755   8.698 -0.2439  0.0927  0.2399
38922SOL    HW122086  10.182   2.741   8.677 -0.0785 -0.1249 -0.3717
38922SOL    HW222087  10.279   2.749   8.793 -1.0721  1.3383  0.3921
38923SOL     OW22088   0.116  11.812   2.113  0.5769 -0.0698  0.0103
38923SOL    HW122089   0.101  11.774   2.199 -0.4664 -0.6225 -0.3979
38923SOL    HW222090   0.074  11.751   2.052 -2.9418  2.5762 -0.5736
38924SOL     OW22091   8.227   7.353  10.105 -0.2217  0.3366  0.2814
38924SOL    HW122092   8.187   7.438  10.088 -0.1642  0.3162  0.0447
38924SOL    HW222093   8.233   7.311  10.019  0.6166  0.4767  0.2640
38925SOL     OW22094   3.280   1.650   7.648  0.2686 -0.4169 -0.1532
38925SOL    HW122095   3.280   1.623   7.557  0.8312  1.2556 -0.6910
38925SOL    HW222096   3.258   1.571   7.697 -1.4260 -1.0569 -1.8117
38926SOL     OW22097   4.265   9.253   9.250 -0.6816 -0.0837 -0.2088
38926SOL    HW122098   4.243   9.268   9.158  2.4388 -0.6146 -1.1537
38926SOL    HW222099   4.267   9.158   9.259 -1.5090 -0.0371  0.5735
38927SOL     OW22100   5.037   4.212   5.712  0.2185  0.2478  0.4877
38927SOL    HW122101   5.007   4.127   5.682 -0.4870  0.5561  0.2879
38927SOL    HW222102   5.036   4.267   5.634 -0.5313  0.7591  0.8404
38928SOL     OW22103   9.151   3.354   4.916  0.0139  0.3914 -0.4321
38928SOL    HW122104   9.069   3.370   4.964  1.4635  1.6229  1.8235
38928SOL    HW222105   9.174   3.264   4.938 -0.4295  0.2365 -0.5848
38929SOL     OW22106  10.074   6.917   3.695 -0.0800 -0.0907 -0.0035
38929SOL    HW122107  10.063   7.008   3.722  2.8620  0.7428 -1.2532
38929SOL    HW222108  10.068   6.919   3.599 -1.5271 -1.5201  0.0137
38930SOL     OW22109  10.617   3.256   3.646  0.4646  0.1439 -0.3848
38930SOL    HW122110  10.665   3.310   3.709  1.9065 -0.2601 -1.0909
38930SOL    HW222111  10.550   3.314   3.610  0.3830  0.7138  0.6674
38931SOL     OW22112   5.219   9.876   4.572  0.0660  0.6056 -0.7158
38931SOL    HW122113   5.307   9.893   4.538  1.2657 -0.1194  1.7677
38931SOL    HW222114   5.198   9.953   4.625 -0.1900  0.2109 -0.2242
38932SOL     OW22115   6.449   7.228   3.489 -0.4150  0.2953  0.6544
38932SOL    HW122116   6.452   7.316   3.527  1.3366  0.6255 -0.1671
38932SOL    HW222117   6.406   7.241   3.405  3.5390  1.2694 -1.4490
38933SOL     OW22118   0.331   5.897   2.776  0.1993  0.4531  0.1154
38933SOL    HW122119   0.409   5.843   2.781  0.1139  0.3296  0.0975
38933SOL    HW222120   0.356   5.978   2.822 -0.2559 -0.3011  1.7576
38934SOL     OW22121   9.439   1.302   0.812 -0.1981 -0.0975  0.0323
38934SOL    HW122122   9.508   1.257   0.861  0.4845 -1.4644 -2.0404
38934SOL    HW222123   9.396   1.358   0.876  0.3886 -2.0536  2.2652
38935SOL     OW22124   2.714   9.128   2.601 -0.3435  0.1449 -0.3314
38935SOL    HW122125   2.747   9.203   2.652 -2.5676  2.2805 -1.7921
38935SOL    HW222126   2.784   9.110   2.538  0.4359  0.6783  0.3539
38936SOL     OW22127   3.375   0.757  10.881 -0.7356  0.2274  0.1289
38936SOL    HW122128   3.441   0.718  10.939 -0.5668  0.7652  0.3059
38936SOL    HW222129   3.421   0.770  10.798 -0.8380 -0.0957  0.0210
38937SOL     OW22130   8.154   3.996   4.114  0.1773  0.2949 -0.3056
38937SOL    HW122131   8.139   4.085   4.082 -0.6034  0.2061 -0.2062
38937SOL    HW222132   8.069   3.953   4.104  0.1760 -0.0285  0.9394
38938SOL     OW22133   5.109   1.572   6.073 -0.1476 -0.5075 -0.0328
38938SOL    HW122134   5.171   1.539   6.137  0.7952 -0.1173 -0.7226
38938SOL    HW222135   5.139   1.535   5.990 -1.4326 -1.1255 -0.2506
38939SOL     OW22136   9.019   0.681   2.606  0.1622 -0.0509  0.7069
38939SOL    HW122137   9.091   0.743   2.594  1.4394 -1.5890  0.0503
38939SOL    HW222138   8.948   0.734   2.642  1.0445  1.8658 -0.1997
38940SOL     OW22139   7.356   8.875   5.852  0.0850 -0.8626  0.3483
38940SOL    HW122140   7.334   8.965   5.876 -0.7749  0.0037 -3.1359
38940SOL    HW222141   7.309   8.821   5.916 -2.2856  1.1615  0.4474
38941SOL     OW22142   2.529   4.418   1.244  0.0255  0.6996 -0.7632
38941SOL    HW122143   2.486   4.379   1.320 -2.4802 -0.3760 -2.6105
38941SOL    HW222144   2.617   4.439   1.275  0.2138 -2.6685  1.5715
38942SOL     OW22145   5.921   8.889   3.187  0.5800  0.1313 -0.2759
38942SOL    HW122146   5.987   8.955   3.169 -0.2523  0.6763 -1.4060
38942SOL    HW222147   5.971   8.814   3.219  1.6130  0.9768  0.1487
38943SOL     OW22148   3.516   3.142  11.130  0.5620  0.3081  0.2371
38943SOL    HW122149   3.480   3.152  11.042  1.9231  1.1691 -0.2547
38943SOL    HW222150   3.559   3.057  11.129 -3.1513 -1.7952  1.5186
38944SOL     OW22151   2.655   2.395   2.446  0.5022 -0.7577 -0.0404
38944SOL    HW122152   2.749   2.414   2.454  0.2628  0.4700  0.0678
38944SOL    HW222153   2.652   2.307   2.409  1.7162 -0.3398 -1.2453
38945SOL     OW22154   3.763   1.133  11.498 -0.7551  0.5622 -0.0999
38945SOL    HW122155   3.798   1.136  11.587  0.5343  1.7398 -0.6091
38945SOL    HW222156   3.801   1.209  11.454  0.2277 -0.9974 -2.2038
38946SOL     OW22157   7.150  11.651   6.590 -0.0016 -0.3755 -0.0877
38946SOL    HW122158   7.100  11.683   6.516 -0.1555 -1.1062 -0.3072
38946SOL    HW222159   7.112  11.695   6.666 -0.5852 -0.4870 -0.3154
38947SOL     OW22160   2.587   2.927   4.349  0.1973 -0.0473 -0.6466
38947SOL    HW122161   2.502   2.894   4.381  0.9642 -1.6811 -0.1576
38947SOL    HW222162   2.648   2.909   4.421  0.9091  1.4821 -0.8287
38948SOL     OW22163   2.307   7.016   8.658 -0.3925 -0.8041 -0.4465
38948SOL    HW122164   2.399   7.036   8.639 -0.0071 -2.2491 -0.1721
38948SOL    HW222165   2.262   7.100   8.648  0.6101 -0.4486 -2.6748
38949SOL     OW22166   2.367  11.581  11.488 -0.0309 -0.2169 -0.5286
38949SOL    HW122167   2.450  11.606  11.529 -0.3260 -0.0692 -0.0054
38949SOL    HW222168   2.309  11.563  11.562 -1.1249  1.8302 -0.8228
38950SOL     OW22169   1.706   5.923   4.986  0.0523 -0.4146  0.1045
38950SOL    HW122170   1.729   5.924   5.079 -1.3031 -1.0449  0.4796
38950SOL    HW222171   1.632   5.862   4.981  0.8542 -1.2919 -1.5721
38951SOL     OW22172   3.831   8.746   2.222  0.3342 -0.5092 -0.3715
38951SOL    HW122173   3.909   8.693   2.239  1.0542  0.5317 -0.3745
38951SOL    HW222174   3.770   8.685   2.179  0.3946 -1.8503  1.3181
38952SOL     OW22175   7.292   7.512   8.286 -0.6029  0.3914  0.0902
38952SOL    HW122176   7.236   7.588   8.274 -2.5430 -1.0664 -0.7049
38952SOL    HW222177   7.249   7.462   8.356 -0.1552 -0.6501 -0.3557
38953SOL     OW22178   9.481   0.486   9.926  0.6491  0.1351  0.1435
38953SOL    HW122179   9.512   0.543   9.997  0.9790  0.1959 -0.0471
38953SOL    HW222180   9.534   0.407   9.934  2.1143  0.9161 -1.2563
38954SOL     OW22181   0.787   4.142   5.443  0.2895  0.1108  0.0518
38954SOL    HW122182   0.719   4.195   5.486 -1.0340 -0.0056 -1.7950
38954SOL    HW222183   0.852   4.206   5.414  0.7541  0.2757  1.3910
38955SOL     OW22184   1.041   2.482   1.514 -0.3635  0.6258 -0.0841
38955SOL    HW122185   1.117   2.429   1.539 -0.5196  0.2799 -0.3356
38955SOL    HW222186   0.975   2.465   1.581 -0.0692  1.2759  0.3880
38956SOL     OW22187   3.120   1.016   4.753 -0.4797 -0.1982 -0.2256
38956SOL    HW122188   3.108   0.946   4.689 -0.9597  0.8891 -1.3661
38956SOL    HW222189   3.033   1.027   4.792 -0.3208 -0.4680  0.2142
38957SOL     OW22190  11.796  10.919  10.787 -0.1278 -0.3574  0.0216
38957SOL    HW122191  11.751  10.893  10.707 -0.6810  1.3205 -0.2507
38957SOL    HW222192  11.733  10.902  10.857 -0.1147 -0.6348 -0.0315
38958SOL     OW22193   2.414   2.974   9.977  0.5710 -0.8046  0.1296
38958SOL    HW122194   2.414   3.017   9.891  0.1929 -1.6657 -0.3114
38958SOL    HW222195   2.448   2.887   9.961  3.2142 -0.0923  1.3704
38959SOL     OW22196   2.553   0.190  10.126 -0.2252  0.3263  0.2851
38959SOL    HW122197   2.581   0.105  10.161  0.6316  0.3270 -0.3643
38959SOL    HW222198   2.571   0.252  10.196  2.1112  0.4310 -0.3217
38960SOL     OW22199   2.598   7.655   4.063  0.0908 -0.2617 -0.1444
38960SOL    HW122200   2.561   7.694   4.142 -3.3424 -4.2240  0.5222
38960SOL    HW222201   2.558   7.704   3.991  0.7796  1.3331  0.5149
38961SOL     OW22202   4.762   6.335   9.491 -0.1013 -0.2363  0.0863
38961SOL    HW122203   4.715   6.387   9.556 -1.1893  0.7681 -1.4021
38961SOL    HW222204   4.713   6.351   9.409  2.3576  0.2102 -1.3992
38962SOL     OW22205   9.347   2.819   7.270  0.0887 -0.6756  0.4484
38962SOL    HW122206   9.350   2.913   7.285 -1.2006 -0.4223 -0.6413
38962SOL    HW222207   9.395   2.781   7.343  0.9627  0.8385  0.7000
38963SOL     OW22208   8.409   4.159   8.066  0.4691  0.4080 -0.1877
38963SOL    HW122209   8.502   4.136   8.063  0.8144  1.5933  0.6016
38963SOL    HW222210   8.374   4.127   7.983  0.9728 -2.3857  0.5609
38964SOL     OW22211   0.812   9.245   5.789  0.5960  0.2349  0.2915
38964SOL    HW122212   0.765   9.309   5.842 -2.8251 -0.0170 -2.1191
38964SOL    HW222213   0.877   9.296   5.741 -1.3770  1.8299 -0.8208
38965SOL     OW22214   6.013   0.311   2.664 -0.9620 -0.4802  0.2550
38965SOL    HW122215   6.108   0.323   2.669 -0.6672 -2.6105  0.6618
38965SOL    HW222216   5.991   0.329   2.572 -0.0811 -0.5733  0.0186
38966SOL     OW22217   7.769   6.768   8.090  0.0943  0.2045 -0.3671
38966SOL    HW122218   7.694   6.712   8.068 -0.0340  0.1720  0.1381
38966SOL    HW222219   7.779   6.825   8.014 -1.4080  1.2229  0.1524
38967SOL     OW22220   3.772   4.609  10.101 -0.4607 -0.0415  0.2060
38967SOL    HW122221   3.835   4.680  10.089 -2.5628  1.8488 -0.2366
38967SOL    HW222222   3.723   4.633  10.180 -1.4930 -0.7720 -0.1852
38968SOL     OW22223  11.442   6.099   5.839 -0.0834  0.0102 -0.9805
38968SOL    HW122224  11.454   6.063   5.927 -0.3902 -0.7949 -1.2620
38968SOL    HW222225  11.531   6.111   5.806  0.0360  0.5661 -0.4621
38969SOL     OW22226   0.414   9.976   3.934 -0.3453 -0.3400 -0.0274
38969SOL    HW122227   0.434   9.905   3.995  1.2597 -0.5680 -0.7680
38969SOL    HW222228   0.486  10.039   3.945  0.7064 -0.9774 -2.4995
38970SOL     OW22229   4.660   6.858   7.197 -0.5423  0.6031  0.4028
38970SOL    HW122230   4.748   6.883   7.225 -0.2855 -0.4767  0.5820
38970SOL    HW222231   4.606   6.870   7.275 -0.4600  0.7878  0.4322
38971SOL     OW22232   2.694   2.824   5.564 -0.5576  0.0029 -0.0978
38971SOL    HW122233   2.612   2.816   5.515 -0.3586  1.4652 -0.7292
38971SOL    HW222234   2.667   2.837   5.655 -0.9668 -1.1684 -0.0341
38972SOL     OW22235   9.937   8.023   6.977 -0.2890  0.1401 -0.1339
38972SOL    HW122236   9.958   8.002   6.886  0.6596 -2.5558  0.6172
38972SOL    HW222237   9.844   8.045   6.976 -0.1023  1.0182 -1.8517
38973SOL     OW22238   4.792   2.136   0.527 -0.3050 -0.2956  0.1623
38973SOL    HW122239   4.810   2.046   0.503 -0.3713 -0.5522  1.0332
38973SOL    HW222240   4.709   2.156   0.485  0.8781  0.2058 -2.1311
38974SOL     OW22241   5.113   6.474  10.238  0.5093  0.3970  0.2024
38974SOL    HW122242   5.142   6.547  10.184  0.1887  0.4726  0.1338
38974SOL    HW222243   5.027   6.500  10.271  0.8893  0.5381  1.1026
38975SOL     OW22244   5.553  10.150   4.059  0.3697 -0.6549  0.6829
38975SOL    HW122245   5.593  10.157   4.146 -1.4202  1.2551  1.4409
38975SOL    HW222246   5.605  10.209   4.004  0.5423 -0.6609  0.8386
38976SOL     OW22247  10.228   5.462   1.006  0.4565  0.2223 -0.5146
38976SOL    HW122248  10.134   5.476   0.992 -0.1895 -2.1652  0.8986
38976SOL    HW222249  10.260   5.547   1.038 -1.2043  1.0824 -1.0044
38977SOL     OW22250   9.482   7.406   3.531  0.5683  0.5005 -0.3420
38977SOL    HW122251   9.523   7.421   3.616 -0.8485 -0.9719  0.6586
38977SOL    HW222252   9.478   7.311   3.522  0.6208  0.6232 -2.0383
38978SOL     OW22253   5.883   0.203   5.139  0.4489 -0.4154  0.4877
38978SOL    HW122254   5.889   0.216   5.044 -1.2264  1.7850  0.6134
38978SOL    HW222255   5.952   0.259   5.175 -1.4450  1.9275  0.6715
38979SOL     OW22256   9.655   4.647   3.628 -0.5654  0.3340  0.1281
38979SOL    HW122257   9.695   4.566   3.658  2.3145  0.4429 -2.8098
38979SOL    HW222258   9.598   4.620   3.556 -0.1888  0.7971 -0.3569
38980SOL     OW22259   9.759   7.823   6.025 -0.1704  0.7746 -0.1792
38980SOL    HW122260   9.755   7.814   5.930 -2.8471 -0.9762 -0.0043
38980SOL    HW222261   9.827   7.761   6.053  0.1240  0.7709 -0.8909
38981SOL     OW22262   0.178   0.694   8.662  0.1230  0.2536  0.2712
38981SOL    HW122263   0.141   0.760   8.604 -0.1577  1.2791  1.5815
38981SOL    HW222264   0.112   0.625   8.666  0.2816  0.0164 -0.8507
38982SOL     OW22265   7.631   8.195   3.582  0.1112 -0.3981  0.2223
38982SOL    HW122266   7.724   8.176   3.570  0.0773 -0.5428  0.1983
38982SOL    HW222267   7.607   8.248   3.505  0.3965  0.4205  0.6829
38983SOL     OW22268   8.981   1.405   6.322 -0.5437  0.5515  0.1620
38983SOL    HW122269   8.956   1.341   6.256  0.7112  1.0746 -0.8653
38983SOL    HW222270   9.037   1.356   6.383 -0.0605  0.5152 -0.2996
38984SOL     OW22271   2.205   8.945   5.906  0.3211  0.4437 -0.2706
38984SOL    HW122272   2.139   8.892   5.860 -0.4722  0.0496  1.2490
38984SOL    HW222273   2.177   9.035   5.891 -0.6917  0.2786  0.4892
38985SOL     OW22274   5.200   4.135  10.100  0.4374  0.3293 -0.5236
38985SOL    HW122275   5.213   4.211  10.157  1.1059  0.2335 -0.5340
38985SOL    HW222276   5.106   4.117  10.104  0.4848  0.2534  0.6394
38986SOL     OW22277  11.338   3.990   0.371 -0.2566  0.7756  0.4272
38986SOL    HW122278  11.318   3.980   0.464 -1.1023  0.6711  0.2420
38986SOL    HW222279  11.432   4.006   0.368 -0.0401 -0.2191  1.2306
38987SOL     OW22280   0.667   1.787   3.471 -0.1787  0.6215  0.7502
38987SOL    HW122281   0.573   1.768   3.467 -0.1199  0.1013  1.5472
38987SOL    HW222282   0.681   1.856   3.406 -1.0155  0.3192  0.2371
38988SOL     OW22283   6.084   4.745  11.423  0.5220 -0.1507  0.4719
38988SOL    HW122284   6.043   4.659  11.421  1.0892 -0.4332 -1.2849
38988SOL    HW222285   6.045   4.791  11.349  2.7923 -0.2055 -0.8539
38989SOL     OW22286   7.333   7.239  11.674 -0.1943  0.1380  0.0251
38989SOL    HW122287   7.278   7.310  11.641  1.1904  0.5660 -1.4747
38989SOL    HW222288   7.408   7.284  11.714  0.7009 -0.4380 -0.9543
38990SOL     OW22289   2.128   7.473   2.889  0.2507 -0.2087  0.4860
38990SOL    HW122290   2.170   7.548   2.931  3.9178 -1.6429 -0.2358
38990SOL    HW222291   2.068   7.439   2.955  1.4701  1.0116  2.3188
38991SOL     OW22292   6.320   7.026   5.762 -0.5625  0.1812  0.2559
38991SOL    HW122293   6.338   7.110   5.720  0.3165  0.6085  1.4469
38991SOL    HW222294   6.232   7.036   5.798  0.2505  1.3302  2.0513
38992SOL     OW22295   7.561   5.721   2.331  0.7135 -0.4365  0.3655
38992SOL    HW122296   7.632   5.668   2.367  1.4674  1.0285  1.1367
38992SOL    HW222297   7.604   5.785   2.275  0.2059  1.3848  1.9395
38993SOL     OW22298   6.683   7.051   7.157 -0.1742  0.3662 -0.8129
38993SOL    HW122299   6.616   7.041   7.089  1.3766 -0.5649 -2.2451
38993SOL    HW222300   6.703   7.145   7.157  0.4370  0.2567 -2.2837
38994SOL     OW22301   0.025   8.358   7.433  0.2637 -0.3592 -0.5054
38994SOL    HW122302   0.094   8.322   7.377 -0.7322 -3.2565 -0.0250
38994SOL    HW222303  -0.007   8.435   7.385  2.5110 -0.0535 -1.6290
38995SOL     OW22304   4.924   8.849   1.233 -0.2497 -0.8118  0.6443
38995SOL    HW122305   4.957   8.820   1.318  0.3407 -1.0652  0.3347
38995SOL    HW222306   4.987   8.916   1.205 -0.3833 -0.8045  0.3568
38996SOL     OW22307  11.085   9.419   2.037  0.4390  0.5795  0.0559
38996SOL    HW122308  11.179   9.435   2.040  1.0218 -2.2472 -0.4113
38996SOL    HW222309  11.062   9.427   1.944  0.5469 -0.1546 -0.0434
38997SOL     OW22310   6.074  10.648   8.160  0.5276 -0.1763  0.6189
38997SOL    HW122311   6.137  10.616   8.096 -1.2445  2.4638 -2.8065
38997SOL    HW222312   6.110  10.732   8.189 -0.6971  0.7061 -0.3314
38998SOL     OW22313   9.233   9.592   7.174  0.7504  0.0376  0.1290
38998SOL    HW122314   9.246   9.647   7.097 -1.6679 -0.6685 -0.9063
38998SOL    HW222315   9.276   9.510   7.153  1.7386  0.4790  0.3773
38999SOL     OW22316   7.801   6.068   6.808  0.0387 -0.4971 -0.5593
38999SOL    HW122317   7.877   6.112   6.769  0.2124 -0.6774 -0.4325
38999SOL    HW222318   7.836   6.026   6.887 -0.1243 -0.8460 -0.6663
39000SOL     OW22319   6.981  10.491   0.976 -0.2008  0.7936 -0.1542
39000SOL    HW122320   6.953  10.573   1.017  0.8047  1.1649 -0.1676
39000SOL    HW222321   6.986  10.511   0.883 -0.4376  0.5712 -0.2144
39001SOL     OW22322   4.897   3.778   6.732 -0.6116 -0.3501 -0.0271
39001SOL    HW122323   4.828   3.798   6.796 -1.5468 -0.6881 -0.8914
39001SOL    HW222324   4.975   3.762   6.785 -0.8328  1.4268  0.9179
39002SOL     OW22325   7.771   3.891   3.493 -0.4379 -0.1819  0.3742
39002SOL    HW122326   7.749   3.889   3.399 -0.8145  0.7129  0.4334
39002SOL    HW222327   7.735   3.809   3.527  1.0838 -1.2852 -0.5398
39003SOL     OW22328   8.419   9.900  11.108 -0.3450  0.2386  0.1636
39003SOL    HW122329   8.488   9.954  11.147 -0.9806  0.9966  0.2807
39003SOL    HW222330   8.407   9.828  11.170 -1.0681  1.2174  1.2045
39004SOL     OW22331   2.703   5.054  10.953 -0.0248  0.6917 -0.0245
39004SOL    HW122332   2.640   4.983  10.940  0.8343 -0.0908  0.0271
39004SOL    HW222333   2.759   5.024  11.024 -0.6713  2.1457  1.1648
39005SOL     OW22334   3.908   4.871   1.485  0.7130 -0.2041 -0.4123
39005SOL    HW122335   3.938   4.820   1.410 -0.2432  0.9187 -1.6289
39005SOL    HW222336   3.891   4.807   1.553  2.8786 -1.1536 -0.6659
39006SOL     OW22337   5.164   4.637  10.958 -0.1151 -0.4520  0.0330
39006SOL    HW122338   5.161   4.667  11.050  0.8621 -1.1009  0.2904
39006SOL    HW222339   5.256   4.614  10.944 -0.6713 -2.6307 -0.3703
39007SOL     OW22340  10.297   5.627   5.771 -0.2244 -0.1401  0.1198
39007SOL    HW122341  10.353   5.618   5.849 -0.1930  0.2223  0.1394
39007SOL    HW222342  10.280   5.721   5.765 -0.3150 -0.1821 -0.2512
39008SOL     OW22343  10.610  10.720  10.456  0.4258  0.4913  0.2414
39008SOL    HW122344  10.516  10.714  10.443  0.5761  0.4414 -0.8550
39008SOL    HW222345  10.620  10.786  10.525 -0.4353 -0.0041  0.8560
39009SOL     OW22346   4.937   5.320  11.415  0.1065  0.1887 -0.7336
39009SOL    HW122347   5.000   5.281  11.476  1.4898  1.9935 -0.9435
39009SOL    HW222348   4.990   5.368  11.352 -1.3335 -0.9057 -2.9203
39010SOL     OW22349   8.236   6.435   6.016 -0.1982 -0.1742  0.2068
39010SOL    HW122350   8.166   6.418   5.952  0.9998  1.2207 -1.5625
39010SOL    HW222351   8.291   6.357   6.013  1.0527  0.7108 -2.1800
39011SOL     OW22352   5.493   5.941  11.781  0.0382  0.6807 -0.3725
39011SOL    HW122353   5.426   5.904  11.839 -0.0809  1.2024 -0.1704
39011SOL    HW222354   5.535   5.865  11.740  2.8410 -0.0319  3.2988
39012SOL     OW22355   1.103   9.405   9.791 -0.1892  0.2078 -0.4288
39012SOL    HW122356   1.139   9.318   9.772 -0.9734 -0.2428  0.0703
39012SOL    HW222357   1.092   9.406   9.886  1.4799  1.5380 -0.2040
39013SOL     OW22358   7.149   0.584   6.060  0.0596 -0.3753  0.2856
39013SOL    HW122359   7.166   0.631   5.978  0.3347 -0.5700  0.2315
39013SOL    HW222360   7.089   0.514   6.036  0.8310 -0.9862  0.0718
39014SOL     OW22361  11.699   6.852   3.685  0.1314 -0.5935 -0.4256
39014SOL    HW122362  11.742   6.872   3.602 -1.6942 -0.1201 -1.3248
39014SOL    HW222363  11.766   6.810   3.738  1.8702  0.7121 -1.4658
39015SOL     OW22364   5.698   2.027  10.858 -0.0299 -0.4686  0.1043
39015SOL    HW122365   5.615   1.983  10.843 -0.0911  0.0383 -1.1176
39015SOL    HW222366   5.757   1.992  10.791  0.0461  0.9368 -0.6018
39016SOL     OW22367  11.287  10.944   9.356 -0.1821 -0.1886  0.2258
39016SOL    HW122368  11.354  10.920   9.420  0.4923  0.3668 -0.2493
39016SOL    HW222369  11.280  11.039   9.363  0.6483  0.0128 -1.1982
39017SOL     OW22370   7.012   4.966   4.249  0.2129 -0.5864 -0.0882
39017SOL    HW122371   6.939   4.912   4.219 -0.8656  0.0033  1.3607
39017SOL    HW222372   6.982   5.056   4.236  1.1573 -0.3324 -0.5599
39018SOL     OW22373   3.229   8.303   2.936  0.5337 -0.1533 -0.3411
39018SOL    HW122374   3.187   8.387   2.955  0.8054  0.0394 -0.5796
39018SOL    HW222375   3.295   8.292   3.005  0.1646 -0.4090 -0.0233
39019SOL     OW22376   5.666  11.144  10.038  0.1167  0.3607 -0.5589
39019SOL    HW122377   5.685  11.225  10.086  0.2690 -0.2629  0.4627
39019SOL    HW222378   5.571  11.136  10.041  0.0936  0.5344 -0.7410
39020SOL     OW22379  11.220  11.755   5.135 -0.1506  0.0697  0.4916
39020SOL    HW122380  11.179  11.669   5.139  0.9726 -0.4737  0.4885
39020SOL    HW222381  11.272  11.754   5.055  0.6133  0.4104  0.9756
39021SOL     OW22382   2.906   6.295   1.258 -0.1744  0.8670 -0.1777
39021SOL    HW122383   2.995   6.275   1.228 -0.2551  0.2580 -0.0153
39021SOL    HW222384   2.885   6.225   1.320 -0.4506  1.4711  0.4234
39022SOL     OW22385   0.997   0.152   6.035 -0.1013  0.3895 -0.1582
39022SOL    HW122386   1.077   0.199   6.013  0.4675 -0.0271  0.9192
39022SOL    HW222387   0.960   0.200   6.109 -1.3150  1.0634 -1.1630
39023SOL     OW22388   4.876   2.076   0.806  0.1263  0.1863 -0.0448
39023SOL    HW122389   4.807   2.071   0.740 -0.5880  0.1305  0.6797
39023SOL    HW222390   4.837   2.035   0.883  1.1564 -0.3021  0.2341
39024SOL     OW22391   7.961   9.274   0.417  0.3508 -0.1877  0.2254
39024SOL    HW122392   7.889   9.281   0.354  0.0435 -0.5774  0.5287
39024SOL    HW222393   8.014   9.201   0.386 -0.0677 -0.6924  0.6783
39025SOL     OW22394   0.719   3.733  10.613  0.6176 -0.0478  0.6731
39025SOL    HW122395   0.805   3.750  10.651  0.7155 -0.3182  0.5744
39025SOL    HW222396   0.671   3.688  10.683  1.0371 -1.1966  0.2370
39026SOL     OW22397   9.279   4.927   3.560 -0.6042 -0.1879  0.3688
39026SOL    HW122398   9.251   4.843   3.597 -4.0801  0.2691 -0.8788
39026SOL    HW222399   9.211   4.949   3.497  1.0453  2.8350 -0.5343
39027SOL     OW22400   0.352  10.387   3.001 -0.3267 -0.6570 -0.3261
39027SOL    HW122401   0.441  10.354   2.996 -0.6552 -1.4951 -1.0178
39027SOL    HW222402   0.309  10.334   3.067  0.1883  1.0550  1.4683
39028SOL     OW22403   5.082   5.037  11.363  0.4778  0.2784  0.7517
39028SOL    HW122404   5.085   5.090  11.443  1.8066  1.3658  0.0337
39028SOL    HW222405   5.024   5.086  11.304 -0.9297 -0.7922  1.1882
39029SOL     OW22406   2.404   1.195   9.950 -0.5929  0.4050 -0.1665
39029SOL    HW122407   2.393   1.115  10.002 -0.1979  0.8952  0.7016
39029SOL    HW222408   2.375   1.171   9.862  2.6210 -1.6845 -0.8205
39030SOL     OW22409   7.319   8.060   1.481 -0.2324  0.3922  0.2119
39030SOL    HW122410   7.407   8.030   1.462  0.0099  0.6450  0.9218
39030SOL    HW222411   7.286   8.000   1.547 -0.3231  0.7392  0.4845
39031SOL     OW22412   1.458   4.859   3.733  0.5917  0.2885  0.3555
39031SOL    HW122413   1.364   4.858   3.753  0.0823 -0.6711 -1.8630
39031SOL    HW222414   1.500   4.872   3.819 -1.5054 -0.3950  1.5617
39032SOL     OW22415   9.509   9.251   6.559 -0.1595  0.2491 -0.5956
39032SOL    HW122416   9.424   9.232   6.518 -0.2939 -1.0641  0.2301
39032SOL    HW222417   9.572   9.201   6.507 -0.1383 -0.2331 -0.1127
39033SOL     OW22418   1.368   2.623  10.510 -0.1610 -0.6499  0.2149
39033SOL    HW122419   1.416   2.639  10.592 -0.3767 -2.4729  0.7475
39033SOL    HW222420   1.309   2.697  10.502  2.2748  1.3916 -0.1571
39034SOL     OW22421   9.889  10.187   5.756 -0.2087 -0.2975 -0.1574
39034SOL    HW122422   9.799  10.214   5.741 -0.4501  0.1945  1.8187
39034SOL    HW222423   9.885  10.092   5.765 -0.4554 -0.3216 -0.5194
39035SOL     OW22424  11.067   4.392   4.946 -0.1374  0.0370 -0.0601
39035SOL    HW122425  11.070   4.462   5.011 -0.4242  0.1497 -0.1648
39035SOL    HW222426  11.153   4.350   4.951 -1.0901 -1.8420  2.4509
39036SOL     OW22427  10.384   4.172   3.798 -0.4122 -0.5294 -0.4042
39036SOL    HW122428  10.353   4.122   3.722 -0.4002 -1.2991  0.0929
39036SOL    HW222429  10.304   4.210   3.835 -0.8226 -2.4343  0.8198
39037SOL     OW22430   8.707  11.789   6.731 -0.3348  0.3001  0.0897
39037SOL    HW122431   8.726  11.744   6.813  1.2031  1.5536  0.4753
39037SOL    HW222432   8.677  11.720   6.672  2.0994 -1.3106  0.6057
39038SOL     OW22433   3.545   1.451   1.639  0.5824  0.7207  0.3103
39038SOL    HW122434   3.606   1.414   1.703  0.8896  0.5656 -0.0669
39038SOL    HW222435   3.458   1.436   1.677  0.7476  0.3678  0.5527
39039SOL     OW22436   8.597   5.136   4.657  0.2072  0.8011  0.3530
39039SOL    HW122437   8.689   5.159   4.672  0.4574  0.2951 -0.3484
39039SOL    HW222438   8.585   5.054   4.704  0.4017  0.3327 -0.4065
39040SOL     OW22439   9.159   0.901   3.953 -0.1753  0.1979 -0.3366
39040SOL    HW122440   9.227   0.855   4.002 -2.1679 -1.8013  0.7286
39040SOL    HW222441   9.196   0.987   3.936  2.1277 -0.3791  1.2507
39041SOL     OW22442   0.172   0.964   8.892 -0.2656 -0.3536 -0.3700
39041SOL    HW122443   0.194   0.886   8.943 -0.7667  0.2639  0.8194
39041SOL    HW222444   0.094   0.999   8.935  0.1833  1.0154 -0.6520
39042SOL     OW22445   9.128   1.371   5.572  0.2226 -0.3371 -0.4211
39042SOL    HW122446   9.119   1.318   5.493 -0.9238  2.5059 -2.3975
39042SOL    HW222447   9.039   1.383   5.604  0.4106  0.5705 -0.1871
39043SOL     OW22448   0.497   5.383   2.998  0.3494  0.0294  0.1105
39043SOL    HW122449   0.432   5.352   3.061  0.4148  0.5094  0.4163
39043SOL    HW222450   0.445   5.422   2.927  0.2994  0.8341  0.5724
39044SOL     OW22451   3.001   6.493   2.412  0.2486 -0.7158  0.3720
39044SOL    HW122452   2.994   6.465   2.320 -0.3506 -0.3501  0.2971
39044SOL    HW222453   3.080   6.546   2.415 -0.0332 -0.2504 -0.0733
39045SOL     OW22454   6.400  10.205   1.956  0.1196  0.2524 -0.6701
39045SOL    HW122455   6.467  10.190   1.889  2.2741 -2.0030  1.7708
39045SOL    HW222456   6.438  10.270   2.015  1.1617 -2.2967  1.7059
39046SOL     OW22457   5.846   4.503  10.121  0.0772 -0.5217 -0.1291
39046SOL    HW122458   5.751   4.512  10.123  0.1379  0.3471 -0.8093
39046SOL    HW222459   5.864   4.430  10.180 -1.0504 -1.0286 -0.3775
39047SOL     OW22460   3.774   8.388   4.180 -0.3124  0.4940  0.0110
39047SOL    HW122461   3.864   8.355   4.173 -0.3298  0.1056  1.3363
39047SOL    HW222462   3.722   8.326   4.130 -0.4592 -2.1492  3.1236
39048SOL     OW22463   0.508  10.148   8.828 -0.2719 -0.1714  0.2377
39048SOL    HW122464   0.595  10.189   8.828 -1.0002  1.4608 -0.5748
39048SOL    HW222465   0.521  10.063   8.787  1.3853 -1.0658  2.3814
39049SOL     OW22466   9.430   6.509  10.706  0.3271 -0.0090  0.4902
39049SOL    HW122467   9.337   6.490  10.718  0.6530 -0.9025  1.9459
39049SOL    HW222468   9.463   6.437  10.652  0.1260  0.4396 -0.2295
39050SOL     OW22469   6.177   4.180   3.685  0.5382 -0.5980 -0.1970
39050SOL    HW122470   6.113   4.117   3.651 -0.2463 -1.3403  2.3859
39050SOL    HW222471   6.126   4.260   3.699  0.3340 -0.9189  1.0272
39051SOL     OW22472  10.960  10.760   5.790 -0.2974 -0.2581 -0.1906
39051SOL    HW122473  10.936  10.671   5.765  1.0074 -0.6708 -0.0698
39051SOL    HW222474  11.042  10.750   5.839  1.7672  1.2425 -3.0509
39052SOL     OW22475   6.487   3.449   2.999 -0.3134  0.5163 -0.4094
39052SOL    HW122476   6.472   3.374   3.056 -1.6283  1.2630  0.2590
39052SOL    HW222477   6.402   3.491   2.990 -0.1304  0.5430 -2.8020
39053SOL     OW22478   3.608   3.513   4.295  0.1351 -0.0082 -0.2145
39053SOL    HW122479   3.704   3.511   4.297  0.1464 -0.4878 -0.7907
39053SOL    HW222480   3.582   3.503   4.387  0.6385  0.6025 -0.0004
39054SOL     OW22481  10.012   3.525   3.805  0.4752  0.2653 -0.1320
39054SOL    HW122482  10.046   3.437   3.795  0.3483  0.2210 -0.1722
39054SOL    HW222483  10.087   3.582   3.787  0.3522  0.1852 -0.9365
39055SOL     OW22484  10.978  10.386   5.267 -0.1031 -0.4078 -0.3038
39055SOL    HW122485  10.988  10.343   5.182 -0.8452 -0.3825 -0.4120
39055SOL    HW222486  10.973  10.479   5.246 -1.6798 -0.4908 -0.3747
39056SOL     OW22487   0.886   3.008   8.083  0.1636 -0.2544  0.6324
39056SOL    HW122488   0.896   3.026   8.177 -0.2436  0.0274  0.6225
39056SOL    HW222489   0.875   3.094   8.043  1.2671 -0.2951  0.2009
39057SOL     OW22490   7.877   9.765   6.628 -0.2852  0.7192 -0.6025
39057SOL    HW122491   7.905   9.855   6.645  0.5134  0.2648  0.7260
39057SOL    HW222492   7.803   9.773   6.568 -0.9491  2.3246  0.3577
39058SOL     OW22493   4.629   2.502   8.029 -0.4942  0.3813 -0.1975
39058SOL    HW122494   4.621   2.597   8.042 -0.8611  0.0981  2.0076
39058SOL    HW222495   4.549   2.466   8.065 -0.7523 -0.7504 -1.8025
39059SOL     OW22496   8.835   7.137   1.020 -0.5238 -0.0109  0.0109
39059SOL    HW122497   8.749   7.176   1.006 -0.0177  0.5797 -1.6478
39059SOL    HW222498   8.817   7.060   1.074 -2.1905 -0.3076 -0.8881
39060SOL     OW22499  10.826   7.605   4.149 -0.1217 -0.0913  0.4713
39060SOL    HW122500  10.821   7.581   4.057 -0.4029 -0.8961  0.6874
39060SOL    HW222501  10.901   7.665   4.154  0.6472 -0.9736 -0.0851
39061SOL     OW22502   7.921   7.962   1.472 -0.0206  0.0170  0.0783
39061SOL    HW122503   7.846   7.974   1.414  0.1999 -0.2045 -0.2575
39061SOL    HW222504   7.883   7.934   1.555 -0.3744  0.8245  0.1937
39062SOL     OW22505   6.141   0.303   9.713  0.0271 -0.3764  0.1305
39062SOL    HW122506   6.138   0.208   9.705  0.4235 -0.4401  0.7005
39062SOL    HW222507   6.059   0.333   9.674 -0.9809 -1.0815  1.5904
39063SOL     OW22508   9.729   9.746   5.972 -0.0104 -0.3687  0.6005
39063SOL    HW122509   9.640   9.712   5.983 -0.5929 -0.0784 -2.2532
39063SOL    HW222510   9.783   9.668   5.961 -0.1597 -0.5242  0.9669
39064SOL     OW22511   2.499   4.405  10.489 -0.3981  0.2888  0.0819
39064SOL    HW122512   2.414   4.440  10.460 -0.7767 -1.5227 -1.1066
39064SOL    HW222513   2.564   4.453  10.437 -0.7338  0.9969  0.3009
39065SOL     OW22514   3.995   9.895   1.634 -0.4784  0.2117 -0.1247
39065SOL    HW122515   3.908   9.884   1.673  0.4270  1.6932  2.5090
39065SOL    HW222516   4.054   9.900   1.709  1.6164  1.4740 -1.7802
39066SOL     OW22517   2.024   5.563   7.080  0.2690 -0.0360  0.3685
39066SOL    HW122518   2.091   5.628   7.099 -0.1366  0.6824 -0.5809
39066SOL    HW222519   2.073   5.486   7.050  0.6766  1.4611 -3.2985
39067SOL     OW22520   9.975   6.136   3.127  0.4979  0.2529  0.1246
39067SOL    HW122521   9.922   6.167   3.054  1.4975 -0.3490 -0.8780
39067SOL    HW222522  10.001   6.215   3.174 -1.9457  0.5443  1.1689
39068SOL     OW22523   7.895   8.803   9.480 -0.2500  0.0979  0.6888
39068SOL    HW122524   7.803   8.818   9.458  0.0163  1.1611  0.2583
39068SOL    HW222525   7.908   8.709   9.464 -1.0827  0.0731  0.0896
39069SOL     OW22526   6.909   7.471   3.647  0.3801 -0.4668  0.1918
39069SOL    HW122527   6.862   7.440   3.570  0.8765  0.3180 -0.4403
39069SOL    HW222528   6.912   7.395   3.705 -2.1991 -0.4003  0.5533
39070SOL     OW22529   1.150   6.599  10.532  0.5361  0.0325 -0.0559
39070SOL    HW122530   1.155   6.650  10.452 -0.4249 -0.1859 -0.2605
39070SOL    HW222531   1.057   6.596  10.554  0.5285 -1.8368 -0.1943
39071SOL     OW22532   1.210   4.763   4.012  0.0473  0.5354 -0.0109
39071SOL    HW122533   1.167   4.807   3.939  1.1248  1.4621 -0.1116
39071SOL    HW222534   1.245   4.682   3.975 -0.8736  0.1639 -0.1070
39072SOL     OW22535   2.331   4.138  10.960 -0.0158  0.8900 -0.7364
39072SOL    HW122536   2.292   4.170  11.041  0.5446  0.1923 -0.1807
39072SOL    HW222537   2.425   4.155  10.970  0.0269  1.0332 -1.3474
39073SOL     OW22538   8.295   5.973  11.089 -0.2470  0.3334  0.3818
39073SOL    HW122539   8.375   6.007  11.047 -0.1080  1.8537  1.7829
39073SOL    HW222540   8.301   6.003  11.179 -1.7123 -0.8089  0.8904
39074SOL     OW22541   3.116   9.236   1.385 -0.2258  0.1224 -0.0190
39074SOL    HW122542   3.075   9.153   1.361  1.9883 -1.8525  2.3817
39074SOL    HW222543   3.185   9.249   1.320 -1.8590  1.2982 -1.6279
39075SOL     OW22544   5.769  10.231   7.564  1.0889 -0.0473 -0.6966
39075SOL    HW122545   5.838  10.181   7.609  1.0489  3.0235  3.2461
39075SOL    HW222546   5.817  10.300   7.517  0.8822 -1.1713 -2.6834
39076SOL     OW22547   8.997   5.280   6.046 -0.4948  0.8684  0.1079
39076SOL    HW122548   8.943   5.268   5.968  1.5364 -1.1634 -1.1081
39076SOL    HW222549   8.945   5.242   6.117 -1.7545  1.4065 -0.4935
39077SOL     OW22550  10.124   6.162   3.983  0.4639  0.2964  0.1334
39077SOL    HW122551  10.064   6.103   4.028  0.8755  0.1954  0.5522
39077SOL    HW222552  10.069   6.236   3.956  0.0238 -0.0895 -0.0599
39078SOL     OW22553   8.755   4.287   2.958  0.0421  0.0472  0.3771
39078SOL    HW122554   8.699   4.211   2.942  0.0327  0.1202  0.0503
39078SOL    HW222555   8.699   4.362   2.941  0.4777  0.1187 -0.8654
39079SOL     OW22556   1.239   4.970   9.617  0.3777 -0.4360 -0.1132
39079SOL    HW122557   1.246   4.952   9.710  2.3706 -0.2524 -0.2012
39079SOL    HW222558   1.198   4.891   9.581  0.5451 -0.9388  0.7700
39080SOL     OW22559   3.695   1.133   7.767 -0.1755  0.1046  0.0157
39080SOL    HW122560   3.664   1.116   7.678 -1.1812  1.1550  0.1396
39080SOL    HW222561   3.689   1.049   7.811  1.1334 -0.6285 -1.1194
39081SOL     OW22562   6.416   5.998   8.728  0.6482  0.1645  0.2827
39081SOL    HW122563   6.386   6.073   8.677  0.5473  1.3550  1.9892
39081SOL    HW222564   6.361   5.925   8.698 -0.6713  1.2342 -0.0240
39082SOL     OW22565   5.836  11.732   3.080 -0.1377 -0.3002  0.6275
39082SOL    HW122566   5.809  11.645   3.050  0.7758 -0.5473  0.4746
39082SOL    HW222567   5.931  11.723   3.094  0.1523  0.9609 -0.3801
39083SOL     OW22568   5.333   4.945   3.493  0.5734  0.1513  0.3176
39083SOL    HW122569   5.262   4.880   3.493  0.5342  0.1712 -1.1822
39083SOL    HW222570   5.398   4.910   3.433  3.1575 -1.1650  3.5248
39084SOL     OW22571   3.384   9.320   6.266 -0.0555 -0.0327  0.1349
39084SOL    HW122572   3.341   9.404   6.281  0.0741  0.1172 -0.3071
39084SOL    HW222573   3.324   9.255   6.303  0.2909  0.3149  1.3454
39085SOL     OW22574   5.101  11.519   1.378  0.2023  0.1619  0.2302
39085SOL    HW122575   5.197  11.510   1.383  0.1802 -0.6310 -0.5411
39085SOL    HW222576   5.086  11.572   1.300 -0.0069 -0.5263 -0.2121
39086SOL     OW22577   4.162   8.752   8.669 -0.1742 -0.1317  0.7044
39086SOL    HW122578   4.230   8.717   8.726  0.4949  1.7551  1.1415
39086SOL    HW222579   4.080   8.729   8.713  0.2200 -0.9737  1.0332
39087SOL     OW22580   8.774   1.394   0.786  0.0516 -0.2219 -0.5384
39087SOL    HW122581   8.757   1.368   0.695  0.5746 -0.3690 -0.6018
39087SOL    HW222582   8.688   1.416   0.822 -0.3168 -1.3172 -0.7112
39088SOL     OW22583   3.964   7.894   2.121  0.3903 -0.1330  0.8374
39088SOL    HW122584   3.957   7.916   2.214  1.0451 -0.3038  0.9326
39088SOL    HW222585   4.037   7.946   2.089 -1.2184  1.6534 -0.1358
39089SOL     OW22586   5.722   1.170   1.064 -0.1027  0.1804 -0.1891
39089SOL    HW122587   5.655   1.238   1.070  0.5952  0.7742  1.3923
39089SOL    HW222588   5.774   1.181   1.143  1.3334 -0.8358 -0.9564
39090SOL     OW22589   1.725   2.563   3.849  0.0125 -0.0435  0.3952
39090SOL    HW122590   1.721   2.556   3.754  0.4880  0.3158  0.3449
39090SOL    HW222591   1.685   2.482   3.881 -1.2247  0.3566 -0.0952
39091SOL     OW22592   9.049   0.966   9.908 -0.2943 -0.1551  0.9405
39091SOL    HW122593   8.997   0.956   9.988 -1.8762  2.1097  0.2796
39091SOL    HW222594   9.103   1.043   9.925  1.8680 -1.6067  1.0346
39092SOL     OW22595   9.482   1.439  11.138  0.0820 -0.2055 -0.0544
39092SOL    HW122596   9.462   1.531  11.155 -0.0272 -0.3952  0.9147
39092SOL    HW222597   9.423   1.414  11.067 -0.6008  0.2058  0.3604
39093SOL     OW22598   9.376  10.395  11.562 -0.0898 -0.3287  0.4611
39093SOL    HW122599   9.351  10.417  11.652  0.0034 -1.0282  0.6633
39093SOL    HW222600   9.457  10.444  11.546 -1.3212  1.6757 -0.0683
39094SOL     OW22601   8.302   9.522   3.411  1.0933 -0.4640  0.2538
39094SOL    HW122602   8.318   9.518   3.505  1.3723 -0.6249  0.2011
39094SOL    HW222603   8.360   9.592   3.380  0.1240  0.4228  0.3750
39095SOL     OW22604   9.322   8.481   3.010 -0.0342  0.1897 -0.1757
39095SOL    HW122605   9.244   8.427   2.998 -0.3525 -0.0981  2.5072
39095SOL    HW222606   9.394   8.426   2.982 -0.6214 -0.4009 -0.5532
39096SOL     OW22607   4.988   1.942   6.443 -0.4567 -0.2119  0.6925
39096SOL    HW122608   5.052   1.949   6.514 -2.6203  1.7061  2.6366
39096SOL    HW222609   4.919   1.886   6.478 -0.3498 -1.4733 -0.9931
39097SOL     OW22610   3.461   1.940   0.598  0.0945 -0.0971  0.4883
39097SOL    HW122611   3.464   1.844   0.600  0.0323 -0.1294 -0.3748
39097SOL    HW222612   3.527   1.967   0.662 -0.5689 -0.7045  1.4522
39098SOL     OW22613   0.343   1.700   7.308 -0.0823 -0.0707  0.4132
39098SOL    HW122614   0.306   1.728   7.224  0.1141 -0.4631  0.1923
39098SOL    HW222615   0.379   1.780   7.346 -0.7325  0.2252  0.4137
39099SOL     OW22616   9.780   4.660   7.724  0.3107  0.4999  0.0066
39099SOL    HW122617   9.845   4.703   7.668 -0.0794  0.9966 -0.0735
39099SOL    HW222618   9.695   4.690   7.690  0.0783  1.4591  1.3638
39100SOL     OW22619   7.715   8.780  10.950 -0.0318 -0.2879  0.2563
39100SOL    HW122620   7.757   8.760  10.867  0.4870  1.8243 -0.0537
39100SOL    HW222621   7.785   8.818  11.004 -1.0171  1.2221  0.5311
39101SOL     OW22622  10.683   4.405   5.081  0.6816  0.1103 -0.1821
39101SOL    HW122623  10.615   4.351   5.119 -0.0229  0.5115 -0.8398
39101SOL    HW222624  10.701   4.364   4.996  1.5523 -0.2257  0.1557
39102SOL     OW22625   3.582  10.060   3.491 -0.0883  0.3068 -0.4162
39102SOL    HW122626   3.499  10.098   3.461  0.1488  0.7657 -0.4937
39102SOL    HW222627   3.561  10.018   3.574 -0.1017  1.6616  0.2911
39103SOL     OW22628   3.498   6.948   7.456 -0.2728  0.5138 -0.4224
39103SOL    HW122629   3.498   7.006   7.380 -0.0109  0.8965 -0.1337
39103SOL    HW222630   3.410   6.958   7.493  0.2133  1.8563  0.4646
39104SOL     OW22631   3.639   4.570   3.051 -0.1863  0.2313 -0.1284
39104SOL    HW122632   3.694   4.588   3.127 -0.5106 -1.6690  0.5948
39104SOL    HW222633   3.698   4.577   2.976  0.6132  0.0718  0.4815
39105SOL     OW22634   3.978   2.774   5.953 -0.1071  0.3253 -0.3294
39105SOL    HW122635   3.921   2.778   5.876  0.1021 -0.1475 -0.5145
39105SOL    HW222636   3.969   2.684   5.985  0.9937  0.0494 -0.7301
39106SOL     OW22637  11.057   2.207  10.709 -0.1954 -0.1072  0.1054
39106SOL    HW122638  11.096   2.184  10.793  2.9525 -0.9350 -1.4575
39106SOL    HW222639  11.035   2.122  10.669 -0.3121  0.2032 -0.4985
39107SOL     OW22640  11.196   9.773   4.341  0.2812 -0.0325  0.4544
39107SOL    HW122641  11.205   9.780   4.436 -0.5868  0.5367  0.5080
39107SOL    HW222642  11.286   9.777   4.308  0.5985 -0.3667  1.2569
39108SOL     OW22643   3.202   2.614   0.597 -0.4490  0.3462  0.2135
39108SOL    HW122644   3.296   2.601   0.604 -0.3511  1.6396  1.9974
39108SOL    HW222645   3.191   2.673   0.522  0.2597  0.9747  0.5987
39109SOL     OW22646  11.577   8.654   0.178  0.2401  0.2182  0.2033
39109SOL    HW122647  11.490   8.693   0.187  0.0239 -0.2219  0.0578
39109SOL    HW222648  11.599   8.665   0.086  0.5731  0.8170  0.3536
39110SOL     OW22649  10.880   7.559   3.488 -0.2023  0.0228  0.2043
39110SOL    HW122650  10.943   7.618   3.529  0.1329  0.0225 -0.3045
39110SOL    HW222651  10.884   7.580   3.395 -2.4733  1.4678  0.3610
39111SOL     OW22652   4.810   9.319  11.636  0.0256  0.0131 -0.2555
39111SOL    HW122653   4.781   9.391  11.692  0.7556 -0.2067  0.4269
39111SOL    HW222654   4.731   9.292  11.588 -0.5607  0.3654  0.4880
39112SOL     OW22655  10.725  11.514   9.914  0.0544  0.1777  0.2457
39112SOL    HW122656  10.778  11.449   9.961 -0.4904 -0.0517  0.5469
39112SOL    HW222657  10.676  11.559   9.982  1.1290  1.5768  0.1420
39113SOL     OW22658  10.688   2.705   4.943  0.2142 -0.2373 -0.5554
39113SOL    HW122659  10.609   2.653   4.950 -0.8344  1.4059  0.3751
39113SOL    HW222660  10.690   2.758   5.023  0.1594  2.5541 -2.2480
39114SOL     OW22661   3.048   5.350   7.338  0.2804 -0.4910 -0.0938
39114SOL    HW122662   3.036   5.442   7.313 -1.0539 -0.5204  0.3650
39114SOL    HW222663   3.021   5.300   7.262  1.2251 -0.5086 -0.4244
39115SOL     OW22664   1.513   2.172   6.869 -0.2479  0.2187  0.4094
39115SOL    HW122665   1.592   2.123   6.893  0.1830 -0.7251 -2.4560
39115SOL    HW222666   1.545   2.255   6.835 -0.7528  1.0999  1.9843
39116SOL     OW22667   2.066   8.242  10.449 -0.0275 -0.1534  0.2911
39116SOL    HW122668   2.068   8.306  10.521 -0.3072 -0.0214  0.1798
39116SOL    HW222669   2.155   8.245  10.412 -0.0233  0.1224  0.3268
39117SOL     OW22670   7.963   9.191   0.680 -0.6320  0.4459 -0.2701
39117SOL    HW122671   7.960   9.185   0.585  0.0514  0.1814 -0.2792
39117SOL    HW222672   8.032   9.254   0.699 -0.7617  0.4956  0.0499
39118SOL     OW22673   3.565  10.579   6.910  0.2740  0.1410  0.5103
39118SOL    HW122674   3.621  10.640   6.958 -0.5112 -0.4652  2.2598
39118SOL    HW222675   3.490  10.633   6.882  1.2358  0.7423 -1.0602
39119SOL     OW22676   3.929   1.574   5.628 -0.8539  0.1086  0.2011
39119SOL    HW122677   3.918   1.482   5.604 -1.1442 -0.0619  0.9838
39119SOL    HW222678   3.839   1.605   5.644 -0.6067 -0.0674  2.1113
39120SOL     OW22679   7.472  11.371   5.480  0.1612  0.4483  0.3457
39120SOL    HW122680   7.524  11.328   5.413 -2.8549 -2.3445 -0.4543
39120SOL    HW222681   7.524  11.446   5.507  4.8653 -2.3692  0.1747
39121SOL     OW22682   1.247   9.873   7.844  0.9644  0.0440 -0.4822
39121SOL    HW122683   1.180   9.854   7.778 -0.0826  0.9460  0.2668
39121SOL    HW222684   1.213   9.834   7.924  0.8629  1.2861  0.1079
39122SOL     OW22685   6.368   9.384  11.375  0.1825 -0.1171 -0.4333
39122SOL    HW122686   6.462   9.364  11.372  0.3409  0.5132  0.1151
39122SOL    HW222687   6.363   9.479  11.367 -0.2431  0.1132  1.8112
39123SOL     OW22688  10.569   2.280   2.903 -0.4068 -0.1003  0.1281
39123SOL    HW122689  10.579   2.233   2.986 -0.1277 -0.7683 -0.2754
39123SOL    HW222690  10.577   2.212   2.836 -2.1190  0.1824 -0.4128
39124SOL     OW22691   8.112   0.375   0.147 -0.2975  0.0224  0.1112
39124SOL    HW122692   8.142   0.466   0.146  1.8067 -0.6261 -1.6797
39124SOL    HW222693   8.104   0.351   0.055  0.1086 -1.8873  0.5305
39125SOL     OW22694   4.064   6.600   3.376 -0.2234 -0.1448  0.8466
39125SOL    HW122695   3.984   6.646   3.402 -0.8050 -0.5359 -0.2055
39125SOL    HW222696   4.114   6.665   3.327 -0.3135 -0.1599  0.7337
39126SOL     OW22697   9.430   2.156   2.206 -0.0664  0.6579 -0.1775
39126SOL    HW122698   9.469   2.215   2.271 -0.1297  1.0277 -0.4717
39126SOL    HW222699   9.382   2.091   2.258 -0.9664  1.5364  0.1278
39127SOL     OW22700   3.654   1.427   0.633  0.0888 -0.1477  0.0876
39127SOL    HW122701   3.578   1.370   0.638  0.1889 -0.2621  0.3211
39127SOL    HW222702   3.705   1.407   0.712 -1.0100  1.8916  1.4197
39128SOL     OW22703   6.005   0.021   1.890  0.5324  0.9154  0.1814
39128SOL    HW122704   6.012  -0.052   1.951  0.6030 -0.0443 -0.9336
39128SOL    HW222705   6.096   0.041   1.867  0.5376  1.6328  0.7702
39129SOL     OW22706   3.184   6.219   6.002 -0.1254  0.0630  0.3465
39129SOL    HW122707   3.190   6.302   5.954 -2.1019 -1.4113 -2.7621
39129SOL    HW222708   3.271   6.181   5.995 -0.5366 -0.6233 -3.4719
39130SOL     OW22709   2.131   6.264  10.564 -0.2549  0.3357  0.0642
39130SOL    HW122710   2.149   6.229  10.651 -0.1211  2.0489  0.7601
39130SOL    HW222711   2.041   6.296  10.569 -0.0671  0.9236 -0.2619
39131SOL     OW22712  11.471  10.097  11.231 -0.1686  0.6451 -0.2350
39131SOL    HW122713  11.511  10.021  11.274 -2.3491 -1.0405 -0.9922
39131SOL    HW222714  11.521  10.172  11.264  0.4329 -0.8425  2.6015
39132SOL     OW22715   7.565   9.600   7.558  0.4158  0.0898  0.1259
39132SOL    HW122716   7.617   9.520   7.551  2.6477  1.2923  1.5539
39132SOL    HW222717   7.619   9.668   7.517 -1.2431  0.9645 -0.7089
39133SOL     OW22718   9.342   9.871   9.598 -0.0684 -0.2215  0.6897
39133SOL    HW122719   9.437   9.862   9.589 -0.1199 -0.8519  0.7151
39133SOL    HW222720   9.316   9.927   9.525  0.3317  0.0039  0.7196
39134SOL     OW22721   5.449  11.771   4.439  0.7932 -0.0394  0.1320
39134SOL    HW122722   5.385  11.705   4.467  2.2079 -1.5270 -0.0078
39134SOL    HW222723   5.478  11.741   4.353  0.3254  1.6604 -0.6615
39135SOL     OW22724   9.937   9.463   6.904 -0.0204 -0.0857 -0.0829
39135SOL    HW122725   9.999   9.431   6.970 -1.6146 -1.3148  0.9050
39135SOL    HW222726   9.942   9.398   6.834 -0.0780 -0.1280 -0.0495
39136SOL     OW22727   6.418   8.024   2.015 -0.5923 -0.3759  0.0027
39136SOL    HW122728   6.350   8.070   1.966  1.0585  2.4519  0.1199
39136SOL    HW222729   6.432   8.078   2.093  0.6234 -1.7880  0.8299
39137SOL     OW22730   0.615   6.601   4.287  0.2553 -0.1048 -0.4568
39137SOL    HW122731   0.533   6.551   4.282  0.4884 -0.6478  0.8336
39137SOL    HW222732   0.591   6.682   4.333  0.5866 -0.6035  0.6085
39138SOL     OW22733   6.955   1.197  10.976  0.6210  0.3709  0.0090
39138SOL    HW122734   6.912   1.274  11.011 -0.0805  0.6792 -1.4337
39138SOL    HW222735   6.892   1.126  10.988  1.4500 -0.1343  1.7704
39139SOL     OW22736   5.439  10.541   6.043  0.4574 -0.4477 -0.2532
39139SOL    HW122737   5.495  10.566   5.970 -0.2394 -0.6427 -0.8712
39139SOL    HW222738   5.460  10.449   6.058  1.0119 -0.2536  0.1723
39140SOL     OW22739   6.103   3.450   7.115  0.0530  0.0128  0.1710
39140SOL    HW122740   6.197   3.448   7.100  0.2340 -0.6426  1.2845
39140SOL    HW222741   6.076   3.538   7.088  1.0328  0.3275  0.1710
39141SOL     OW22742  11.336   6.971   9.458 -0.3693  0.6309 -0.7779
39141SOL    HW122743  11.420   6.997   9.496 -0.2892 -0.4709 -0.1878
39141SOL    HW222744  11.312   6.891   9.503 -2.1774  1.3737 -0.3189
39142SOL     OW22745  10.170   5.596   9.872  0.1903  0.4346  0.3411
39142SOL    HW122746  10.210   5.619   9.788 -0.3285  1.3601  0.3251
39142SOL    HW222747  10.226   5.527   9.908 -0.1183 -0.6798 -1.2033
39143SOL     OW22748   1.116   8.172   4.756  0.3449  0.1342  0.1148
39143SOL    HW122749   1.100   8.168   4.661 -1.5123 -0.3413  0.4179
39143SOL    HW222750   1.090   8.260   4.781 -0.0507 -0.0341  0.3122
39144SOL     OW22751   9.775   4.473  10.692  0.1161  0.6087 -0.4923
39144SOL    HW122752   9.804   4.426  10.614 -1.2793  0.3284 -0.8686
39144SOL    HW222753   9.718   4.412  10.738  2.9304 -0.2542  2.2250
39145SOL     OW22754   0.630  11.587   7.286 -0.4228  0.1022 -0.2865
39145SOL    HW122755   0.666  11.673   7.305 -0.6520  0.2244 -0.4050
39145SOL    HW222756   0.703  11.527   7.299 -0.1311  0.3666 -0.6774
39146SOL     OW22757   2.416   2.902   2.284 -0.1157  0.2084  0.2076
39146SOL    HW122758   2.511   2.911   2.281 -0.1140  0.0790 -2.3389
39146SOL    HW222759   2.383   2.984   2.248 -1.0449  0.6935  2.0648
39147SOL     OW22760   3.406   2.192   9.715  0.4763  0.0117  0.2763
39147SOL    HW122761   3.408   2.282   9.748  1.9814 -0.4925  1.7036
39147SOL    HW222762   3.486   2.182   9.665 -0.1665 -0.2577 -0.7174
39148SOL     OW22763   1.220  10.976   9.633  0.3444 -0.4863  0.0272
39148SOL    HW122764   1.249  10.977   9.542 -1.7896 -1.1583 -0.7391
39148SOL    HW222765   1.153  10.907   9.636 -1.3660  1.1157  1.5108
39149SOL     OW22766   8.458   2.145  11.485 -0.0221  0.2930  0.4151
39149SOL    HW122767   8.448   2.053  11.461  0.2171  0.3379  0.1296
39149SOL    HW222768   8.517   2.180  11.418 -1.9914  1.2100 -0.9352
39150SOL     OW22769   1.197  10.133  10.918 -0.4948 -0.3400 -0.2359
39150SOL    HW122770   1.116  10.162  10.961 -1.6235 -0.4811 -2.1442
39150SOL    HW222771   1.167  10.069  10.853  1.2682 -1.0349 -0.4089
39151SOL     OW22772   9.454   5.369   5.638 -0.0443  0.1317 -0.2533
39151SOL    HW122773   9.378   5.376   5.695  1.5384 -0.5386  2.0624
39151SOL    HW222774   9.438   5.289   5.587  0.0715 -1.2463  1.7873
39152SOL     OW22775   1.169   0.367   7.782  0.0407  0.2050 -0.6734
39152SOL    HW122776   1.092   0.413   7.814  0.3400  1.0711 -1.1803
39152SOL    HW222777   1.243   0.417   7.816  0.4207 -0.9244  0.2747
39153SOL     OW22778   4.661   4.546   9.041 -0.0265 -0.7831 -0.3325
39153SOL    HW122779   4.649   4.496   8.960 -1.2585 -0.7251 -0.2086
39153SOL    HW222780   4.692   4.482   9.105  2.5350 -0.5122 -1.2244
39154SOL     OW22781   8.233   5.902  11.735 -0.2995  0.1352 -0.2186
39154SOL    HW122782   8.323   5.933  11.743 -0.2346 -0.1644  0.2737
39154SOL    HW222783   8.231   5.857  11.650 -0.3987  1.4521 -0.9438
39155SOL     OW22784   4.810   5.357   4.484  0.5119  0.1427 -0.1191
39155SOL    HW122785   4.810   5.358   4.388  0.5131 -2.5624 -0.2344
39155SOL    HW222786   4.719   5.373   4.508  0.4649  0.6073 -0.5909
39156SOL     OW22787   6.610  11.731   9.161 -0.2351 -0.5016  0.4465
39156SOL    HW122788   6.648  11.793   9.223  0.6864 -0.3909 -0.2039
39156SOL    HW222789   6.607  11.648   9.208  0.8906 -0.5277  0.4865
39157SOL     OW22790   8.685  10.886   8.500 -0.5188  0.2096  0.5305
39157SOL    HW122791   8.655  10.975   8.512 -1.7402 -0.1660  0.3744
39157SOL    HW222792   8.663  10.865   8.409 -1.4263 -0.6799  0.9432
39158SOL     OW22793   3.385  11.103   4.415  0.5566 -0.1158  0.2093
39158SOL    HW122794   3.321  11.094   4.485  1.3875 -0.6700  0.9200
39158SOL    HW222795   3.425  11.189   4.430  0.3051  0.0286  0.0486
39159SOL     OW22796   3.368  11.355   8.168  0.0083 -0.1930  0.3078
39159SOL    HW122797   3.393  11.427   8.226 -1.8535  0.5402  0.2752
39159SOL    HW222798   3.328  11.398   8.092 -1.4168 -1.2410  0.4145
39160SOL     OW22799   4.844   4.028   8.479 -0.1651  0.6510 -0.0899
39160SOL    HW122800   4.839   4.008   8.573  0.3265  0.6430 -0.0627
39160SOL    HW222801   4.818   3.947   8.436  2.0524 -0.1725  0.0130
39161SOL     OW22802   0.049   5.825  10.474  0.1596 -0.4186  0.1787
39161SOL    HW122803  -0.022   5.875  10.432  0.7588  1.2633  1.0811
39161SOL    HW222804   0.019   5.734  10.471 -1.2039  0.0275 -1.0860
39162SOL     OW22805   6.002   5.575   6.193 -0.6528  0.4606 -0.0507
39162SOL    HW122806   6.051   5.610   6.119  0.9150 -0.0155  0.6992
39162SOL    HW222807   6.001   5.645   6.258 -0.7372  0.3854  0.0311
39163SOL     OW22808   9.890   9.061   0.743 -0.2213 -0.1178  0.3965
39163SOL    HW122809   9.913   9.065   0.836 -0.6396 -0.7114  0.5279
39163SOL    HW222810   9.956   9.005   0.704 -0.7088 -0.8035  0.5474
39164SOL     OW22811   8.316   9.929   6.565 -0.1340  0.1301 -0.3963
39164SOL    HW122812   8.297   9.993   6.497 -1.4665  1.3475  1.0398
39164SOL    HW222813   8.246   9.865   6.559 -0.2227  0.2086 -0.2166
39165SOL     OW22814   7.815   3.921   0.728 -0.1524  0.1679 -0.1168
39165SOL    HW122815   7.874   3.859   0.685  1.1537 -0.4390  2.3553
39165SOL    HW222816   7.870   3.967   0.791 -1.6203  2.1445 -0.1983
39166SOL     OW22817   2.459   6.968  10.562  0.4294  0.4160  0.1716
39166SOL    HW122818   2.371   6.978  10.598 -0.1556 -1.3191 -0.6637
39166SOL    HW222819   2.446   6.966  10.467  1.2391 -0.7922  0.0667
39167SOL     OW22820   7.430  10.000   4.696 -0.2431 -0.4048  0.0138
39167SOL    HW122821   7.521  10.013   4.723 -0.9148  2.9764  1.2564
39167SOL    HW222822   7.395   9.936   4.758  0.7707 -0.0505  0.9919
39168SOL     OW22823   0.905   8.668   5.638  0.4294  0.3984 -0.1185
39168SOL    HW122824   0.832   8.727   5.656 -1.2375 -1.0573 -1.6813
39168SOL    HW222825   0.888   8.591   5.692 -0.0673 -0.5571 -1.5594
39169SOL     OW22826  11.158   9.444   6.120 -0.5141 -0.1949 -0.2766
39169SOL    HW122827  11.174   9.349   6.116 -0.1576 -0.1829  0.6338
39169SOL    HW222828  11.244   9.484   6.106 -0.4928 -0.0319  0.3017
39170SOL     OW22829   9.063   2.025   3.980  0.0776 -0.2503  0.2927
39170SOL    HW122830   9.095   1.950   4.031 -0.0780  0.6445  1.7646
39170SOL    HW222831   8.973   2.002   3.958 -0.1798 -0.2361  1.2898
39171SOL     OW22832   3.396   8.318   8.976  0.0076  0.0637  0.3114
39171SOL    HW122833   3.446   8.303   8.896  1.7970 -0.2335  1.4311
39171SOL    HW222834   3.327   8.252   8.975 -1.5868  1.6223 -2.1531
39172SOL     OW22835   9.549   0.859   7.365 -0.3496  0.4721 -0.3253
39172SOL    HW122836   9.484   0.875   7.296  0.0129  0.3926 -0.6887
39172SOL    HW222837   9.626   0.826   7.318 -0.9898 -2.1866  0.3337
39173SOL     OW22838   1.523   0.669   0.434  0.2054  0.1157  0.7055
39173SOL    HW122839   1.500   0.602   0.371 -1.1037  1.8914 -0.8255
39173SOL    HW222840   1.578   0.624   0.498 -1.4889 -2.6382  0.3971
39174SOL     OW22841   6.461  11.418   5.293 -0.2183  0.3253 -0.0216
39174SOL    HW122842   6.422  11.468   5.364 -2.0311  0.2449 -0.9089
39174SOL    HW222843   6.408  11.339   5.287  1.5997 -0.9793  0.2915
39175SOL     OW22844   7.841   4.089   1.930  0.1783 -0.0907  0.0227
39175SOL    HW122845   7.895   4.015   1.903  1.6973  1.0968 -0.2941
39175SOL    HW222846   7.870   4.161   1.875 -1.5864  0.6725  0.0086
39176SOL     OW22847   8.012   8.723   6.406  0.2637  0.3596 -0.2271
39176SOL    HW122848   7.980   8.767   6.327 -0.8063 -0.6679 -0.3936
39176SOL    HW222849   7.978   8.775   6.478 -0.3022  0.2702 -0.4277
39177SOL     OW22850   3.782   3.850   2.912  0.1970 -0.3890 -0.5502
39177SOL    HW122851   3.803   3.941   2.890  3.0816 -0.9078 -0.3729
39177SOL    HW222852   3.748   3.855   3.002  3.1294  0.3595  0.6526
39178SOL     OW22853   9.221   4.877   9.302 -0.6055  0.2963  0.0194
39178SOL    HW122854   9.179   4.803   9.346  1.0546 -1.1926 -0.7464
39178SOL    HW222855   9.313   4.873   9.331 -0.3220  1.5739 -0.6468
39179SOL     OW22856   6.005   2.508   6.628  0.2371  0.0831  0.3572
39179SOL    HW122857   5.981   2.542   6.542  0.7260 -0.3769  0.0295
39179SOL    HW222858   5.964   2.422   6.632  1.2730 -0.4471  0.0426
39180SOL     OW22859  10.276  10.912   9.073  0.1726 -0.1891 -0.5365
39180SOL    HW122860  10.320  10.928   8.989  0.4936  1.6167 -0.0604
39180SOL    HW222861  10.251  10.999   9.104  0.4492 -0.7785  1.4567
39181SOL     OW22862  10.831   0.492   5.147 -0.2306  0.0408 -0.0031
39181SOL    HW122863  10.776   0.445   5.084 -1.0291  0.3358  0.4631
39181SOL    HW222864  10.900   0.429   5.170  0.3249  0.0597 -1.4608
39182SOL     OW22865  10.740   0.865   2.354 -0.3843  0.0438 -0.0318
39182SOL    HW122866  10.794   0.943   2.341 -0.8633  0.4464  0.3289
39182SOL    HW222867  10.650   0.898   2.350 -0.6074 -0.5879 -0.4581
39183SOL     OW22868  10.175   5.730   1.377  0.0301 -0.0331  0.4216
39183SOL    HW122869  10.092   5.736   1.425 -0.1067 -0.4203  0.2344
39183SOL    HW222870  10.224   5.807   1.405  0.0262 -0.3458  1.3204
39184SOL     OW22871   8.232   6.566   2.659 -0.0227  0.5432  0.2095
39184SOL    HW122872   8.146   6.531   2.635 -1.2259  1.0529  3.3434
39184SOL    HW222873   8.225   6.660   2.642 -0.1612  0.6069  0.6050
39185SOL     OW22874  10.232   6.991   9.408 -0.2570 -0.1551 -0.4663
39185SOL    HW122875  10.296   6.994   9.480 -1.2012 -1.3932  0.4692
39185SOL    HW222876  10.261   6.918   9.353  0.4615  0.7875 -1.3788
39186SOL     OW22877   3.791   8.084   5.862 -0.2759  0.4326  0.7343
39186SOL    HW122878   3.821   7.994   5.871 -0.4033  0.4247  1.0857
39186SOL    HW222879   3.702   8.084   5.897 -0.9825  0.2948 -0.9588
39187SOL     OW22880   1.728   9.163   9.151 -0.2253  0.3048  0.2747
39187SOL    HW122881   1.689   9.079   9.127  1.3870 -0.5259  0.3850
39187SOL    HW222882   1.662   9.206   9.205 -1.6287 -0.2834 -0.8826
39188SOL     OW22883   1.937   3.886   0.647 -0.0019 -0.2536  0.0107
39188SOL    HW122884   1.940   3.976   0.616 -0.8875 -0.1054  0.3294
39188SOL    HW222885   2.000   3.883   0.719 -1.4135  0.6522  1.3354
39189SOL     OW22886   3.681   7.568   8.934 -0.1716 -0.4324 -0.3374
39189SOL    HW122887   3.625   7.495   8.960  1.2559 -1.1782  0.8106
39189SOL    HW222888   3.716   7.542   8.848 -0.8518 -0.3770 -0.6366
39190SOL     OW22889   2.431   5.023   9.300 -0.0508  0.5935 -0.1280
39190SOL    HW122890   2.525   5.003   9.297 -0.4318 -1.2458 -0.9356
39190SOL    HW222891   2.395   4.962   9.363 -0.6155  1.8727  0.8302
39191SOL     OW22892  10.419  10.932   8.800  0.3890  0.5858 -0.6013
39191SOL    HW122893  10.392  10.962   8.713 -0.1115  0.1243 -0.6056
39191SOL    HW222894  10.510  10.962   8.808  0.3035  0.9904 -1.1154
39192SOL     OW22895   7.477   0.241   4.520  0.5210  0.3693  0.3901
39192SOL    HW122896   7.558   0.261   4.567  0.0907  0.8580  0.9508
39192SOL    HW222897   7.423   0.320   4.531 -0.6406 -0.5288  1.3601
39193SOL     OW22898   9.202   4.763   4.110  0.2582  0.3574 -0.2675
39193SOL    HW122899   9.213   4.850   4.072 -0.7175  0.5391 -0.1622
39193SOL    HW222900   9.142   4.718   4.051  0.9280 -0.3404 -0.4482
39194SOL     OW22901   5.820   7.609   7.047 -0.2977 -0.5574  0.1260
39194SOL    HW122902   5.754   7.578   6.985 -1.7192 -1.8981  2.1825
39194SOL    HW222903   5.774   7.671   7.103  0.1546 -1.4761  1.5646
39195SOL     OW22904   5.193   8.677   8.428 -0.2184 -0.4454  0.2909
39195SOL    HW122905   5.233   8.595   8.459 -0.8945 -0.4010  1.2939
39195SOL    HW222906   5.114   8.686   8.480 -1.3470 -0.3117 -1.3786
39196SOL     OW22907   9.568   7.044   1.852 -0.3514 -0.9224 -0.1910
39196SOL    HW122908   9.659   7.047   1.882 -0.3182 -1.0941 -0.2717
39196SOL    HW222909   9.538   7.135   1.857 -0.7232 -1.1075  1.4804
39197SOL     OW22910   5.101   7.966   5.515 -0.1280 -0.4391 -0.4597
39197SOL    HW122911   5.051   7.965   5.433 -1.6678 -0.9642  0.4393
39197SOL    HW222912   5.084   7.880   5.555  3.8477 -1.8678 -1.3991
39198SOL     OW22913  11.373   9.674   9.217  0.7118 -0.2258 -0.1991
39198SOL    HW122914  11.333   9.751   9.178 -3.0934 -1.9562 -0.1327
39198SOL    HW222915  11.402   9.621   9.142  1.6838  0.4084 -0.2909
39199SOL     OW22916   6.246   1.309   0.013 -0.4232  0.8587 -0.2271
39199SOL    HW122917   6.274   1.262  -0.066  1.2344  2.7788 -0.8562
39199SOL    HW222918   6.251   1.244   0.082  1.7426  0.0419 -1.0660
39200SOL     OW22919  10.882  10.484   9.497  0.1438  0.0449 -0.2517
39200SOL    HW122920  10.806  10.531   9.462  0.8573  2.2080  0.9238
39200SOL    HW222921  10.873  10.491   9.592  0.7456 -1.5138 -0.0534
39201SOL     OW22922   3.945  10.961   1.620 -0.3962  0.2257 -0.2184
39201SOL    HW122923   4.040  10.970   1.614 -0.0655  0.5082  3.5220
39201SOL    HW222924   3.914  11.047   1.648 -1.8568  0.2027 -1.5753
39202SOL     OW22925   5.366   4.621   0.429  0.1976 -0.0376 -0.2232
39202SOL    HW122926   5.440   4.665   0.387  0.7770  1.6404  2.3687
39202SOL    HW222927   5.406   4.563   0.493 -0.6902 -2.1508 -1.4563
39203SOL     OW22928  11.464   7.601   0.974 -0.8488  0.5491  0.1987
39203SOL    HW122929  11.433   7.518   0.938  0.1208  0.5254 -0.6307
39203SOL    HW222930  11.494   7.651   0.898 -0.5547  1.2892  0.7795
39204SOL     OW22931   7.226   9.107   5.881 -0.0850 -0.2181  0.0806
39204SOL    HW122932   7.172   9.139   5.953  0.1866 -1.7304  1.0030
39204SOL    HW222933   7.162   9.079   5.815 -0.3976 -0.4629  0.4787
39205SOL     OW22934   5.094   9.717  10.174 -0.2419  0.3755  0.2944
39205SOL    HW122935   5.082   9.726  10.079 -0.6466  0.8138  0.3809
39205SOL    HW222936   5.073   9.804  10.208 -1.3796 -0.1250  0.9122
39206SOL     OW22937   1.501   1.233   2.549 -0.0406  0.3769  0.5409
39206SOL    HW122938   1.441   1.270   2.614 -1.1610  1.5590 -1.1055
39206SOL    HW222939   1.449   1.166   2.504 -0.2838  1.6607 -1.1459
39207SOL     OW22940   6.469  10.670   8.819  0.2666  0.4210 -0.1138
39207SOL    HW122941   6.462  10.760   8.853 -0.1285  0.4887 -0.3578
39207SOL    HW222942   6.411  10.669   8.743 -1.4258 -0.6102  1.1185
39208SOL     OW22943   7.316   6.967   4.377  0.1699 -0.1907  0.0816
39208SOL    HW122944   7.267   6.963   4.459 -1.7016 -1.0758 -1.0237
39208SOL    HW222945   7.385   6.901   4.387 -1.1699 -1.6231  0.2735
39209SOL     OW22946   5.667   5.147  11.275  0.2638 -0.4024  0.0349
39209SOL    HW122947   5.666   5.072  11.215 -0.7684  0.5282 -1.1633
39209SOL    HW222948   5.622   5.115  11.354 -0.9617 -0.8132 -0.7970
39210SOL     OW22949   9.917   7.594   7.863 -0.0645  0.6182 -0.4163
39210SOL    HW122950   9.926   7.499   7.857  0.3739  0.6820 -0.8135
39210SOL    HW222951  10.000   7.624   7.902 -0.5234  0.7646  0.4797
39211SOL     OW22952   4.781  10.513  10.869 -0.7894  0.4919  0.8187
39211SOL    HW122953   4.842  10.528  10.940  0.3840  0.5913 -0.1756
39211SOL    HW222954   4.768  10.418  10.868 -0.2913  0.4213  0.7606
39212SOL     OW22955   0.364   2.141   5.111 -0.3441 -0.1625 -0.0422
39212SOL    HW122956   0.304   2.090   5.167 -1.6144 -0.2761 -1.4360
39212SOL    HW222957   0.332   2.231   5.117  0.3107  0.0433  0.4073
39213SOL     OW22958   1.709   0.660   5.116  0.4877  0.6338 -0.3579
39213SOL    HW122959   1.735   0.578   5.159 -1.9746  0.1350  0.3365
39213SOL    HW222960   1.645   0.699   5.175 -0.2925  1.7692 -1.8800
39214SOL     OW22961   4.640   5.063   7.813  0.7275 -0.8343 -0.0724
39214SOL    HW122962   4.682   4.979   7.832  1.2375 -0.6172 -0.2108
39214SOL    HW222963   4.610   5.095   7.899 -0.0017 -1.4294 -0.0975
39215SOL     OW22964   2.352  10.796  10.228 -0.2397  0.2281  0.0559
39215SOL    HW122965   2.433  10.847  10.226 -0.5263  0.7989  1.8818
39215SOL    HW222966   2.289  10.850  10.180  0.3674 -0.1361 -1.2183
39216SOL     OW22967   0.205   6.142   7.520 -0.4969  0.0395 -0.5988
39216SOL    HW122968   0.231   6.140   7.427  2.6972 -1.1367  0.1898
39216SOL    HW222969   0.287   6.154   7.567 -1.9050 -0.5061  2.1584
39217SOL     OW22970   7.622   9.147   8.729  0.0389  0.0378  0.2178
39217SOL    HW122971   7.698   9.096   8.699  0.4302  1.3904 -1.2028
39217SOL    HW222972   7.555   9.133   8.662 -0.0148  0.9852  0.0581
39218SOL     OW22973   7.978   5.069   5.750 -0.0256 -0.2734 -0.0453
39218SOL    HW122974   7.964   4.976   5.734 -0.5244 -0.3926  0.9966
39218SOL    HW222975   7.898   5.099   5.794  0.4363  0.4716  0.3142
39219SOL     OW22976   5.551   0.693   2.546  0.6587  0.0846  0.2766
39219SOL    HW122977   5.515   0.617   2.592  0.8433  0.2377  0.6844
39219SOL    HW222978   5.627   0.658   2.500  0.5539 -0.0436  0.1992
39220SOL     OW22979   2.537   1.729   6.402  0.7095  0.2650 -0.5556
39220SOL    HW122980   2.598   1.656   6.410 -0.9728 -1.1588 -0.1933
39220SOL    HW222981   2.468   1.697   6.344 -2.2652 -0.0707  2.8630
39221SOL     OW22982   8.965   3.395   6.994  0.2715 -0.3863 -0.8429
39221SOL    HW122983   8.984   3.388   7.088 -1.0830 -3.2513 -0.6810
39221SOL    HW222984   9.039   3.353   6.951 -0.0603 -0.8942 -0.9232
39222SOL     OW22985   0.292   4.240   5.706 -0.0236  0.4659 -0.6100
39222SOL    HW122986   0.315   4.177   5.774 -0.1285  0.3176 -0.7113
39222SOL    HW222987   0.245   4.309   5.752  1.6138  1.3586 -0.1997
39223SOL     OW22988   7.848   2.079   4.917 -0.8604  0.3071  0.2952
39223SOL    HW122989   7.925   2.117   4.876  0.8511 -1.9806  1.1527
39223SOL    HW222990   7.774   2.114   4.867  0.9128 -0.1318 -2.9222
39224SOL     OW22991   3.370   9.591   0.821 -0.0372  0.5079 -0.3492
39224SOL    HW122992   3.446   9.540   0.851 -0.4962 -0.6227 -1.0579
39224SOL    HW222993   3.310   9.592   0.895 -0.5934 -1.1382 -0.7493
39225SOL     OW22994   4.908   1.324   5.247  0.4989  0.0607  0.1860
39225SOL    HW122995   4.930   1.292   5.334 -0.1214  0.7497  0.6051
39225SOL    HW222996   4.939   1.414   5.245 -0.8396  0.5539  0.2540
39226SOL     OW22997  10.007   4.462   1.501  0.2383  0.6047 -0.1088
39226SOL    HW122998  10.070   4.396   1.530  0.9579  1.1351 -0.4357
39226SOL    HW222999   9.988   4.514   1.580 -1.9988 -1.2586  0.7138
39227SOL     OW23000   3.511   7.187   6.041 -0.0145  0.0530 -0.0799
39227SOL    HW123001   3.537   7.279   6.042 -0.4994  0.1943 -0.2615
39227SOL    HW223002   3.482   7.170   5.952  1.8383 -0.7933 -0.5604
39228SOL     OW23003   5.776   7.576   0.891  0.4216  0.5951  0.2113
39228SOL    HW123004   5.832   7.524   0.833  0.7052  0.4893  0.5736
39228SOL    HW223005   5.726   7.511   0.940  0.9219  0.6483  0.8086
39229SOL     OW23006   0.494   4.233   0.160  0.7052 -0.0122 -0.3146
39229SOL    HW123007   0.467   4.142   0.162 -0.8051  0.3483  3.4940
39229SOL    HW223008   0.578   4.235   0.206  0.4169  0.5573  0.2114
39230SOL     OW23009   0.709   0.671  10.294 -0.0994  0.3574  0.1130
39230SOL    HW123010   0.725   0.710  10.208  1.2734 -1.6729 -0.6180
39230SOL    HW223011   0.793   0.678  10.339 -0.1295 -0.7343  0.3613
39231SOL     OW23012   9.451   1.447   6.852  1.0397  0.0603  0.2453
39231SOL    HW123013   9.408   1.381   6.797  1.0612 -0.9622  1.4211
39231SOL    HW223014   9.379   1.500   6.887  0.7269 -1.2582  1.7112
39232SOL     OW23015   3.076   8.425  10.882  0.4380 -0.3877  0.0615
39232SOL    HW123016   3.006   8.391  10.939 -0.5796 -2.3611 -2.2034
39232SOL    HW223017   3.152   8.372  10.904 -0.3995 -2.3518 -1.4670
39233SOL     OW23018   1.931   3.945   3.063  0.5866 -0.0173 -0.2771
39233SOL    HW123019   1.983   3.979   2.990 -0.0341 -1.5705 -1.4981
39233SOL    HW223020   1.968   3.859   3.082  0.5294  0.2248  1.0550
39234SOL     OW23021   1.887   6.224  10.120 -0.0712  0.7721 -0.2870
39234SOL    HW123022   1.872   6.302  10.066 -0.6518  0.3311 -0.7741
39234SOL    HW223023   1.958   6.178  10.075  0.7288  1.3393  0.3631
39235SOL     OW23024   9.905   9.423   3.653  0.0800 -0.1155  0.1322
39235SOL    HW123025   9.952   9.396   3.731  1.2110 -0.0753 -0.5166
39235SOL    HW223026   9.966   9.480   3.606 -1.2658  1.4227  0.1469
39236SOL     OW23027   6.593   6.515   1.249 -0.1975  0.0064 -0.0356
39236SOL    HW123028   6.611   6.425   1.276  0.0846  0.1016  0.0941
39236SOL    HW223029   6.503   6.512   1.215 -1.3210  0.2291  2.6289
39237SOL     OW23030  10.847   7.952   2.668  0.0640  0.1967  0.3872
39237SOL    HW123031  10.888   8.037   2.684 -0.4417  0.2738  1.3408
39237SOL    HW223032  10.754   7.971   2.663 -0.1493 -0.4160  1.5962
39238SOL     OW23033   7.566   8.119   2.611 -0.2886 -0.0495  0.8730
39238SOL    HW123034   7.519   8.056   2.556 -1.3764  0.9717  0.5790
39238SOL    HW223035   7.524   8.112   2.697  0.5026 -0.6800  1.2163
39239SOL     OW23036   6.681   9.284   6.557  0.2265 -0.2922 -0.1794
39239SOL    HW123037   6.753   9.302   6.496  0.7213 -0.7013  0.2776
39239SOL    HW223038   6.627   9.220   6.511 -0.0693  0.3041 -0.6848
39240SOL     OW23039   0.828   6.411   6.882 -0.3168 -0.1445 -0.3922
39240SOL    HW123040   0.890   6.484   6.885  0.6263 -0.9604  0.3326
39240SOL    HW223041   0.751   6.443   6.927 -0.4312  0.8738 -1.2741
39241SOL     OW23042   8.058   5.454   9.320 -0.2468 -0.8959  0.2557
39241SOL    HW123043   8.079   5.506   9.242 -0.4494  0.0608  0.8190
39241SOL    HW223044   8.064   5.363   9.291  1.8821 -0.6200 -0.3277
39242SOL     OW23045   4.385   2.734   4.353  0.1089  0.1924 -1.1647
39242SOL    HW123046   4.315   2.669   4.346 -1.6280  2.0826 -2.6381
39242SOL    HW223047   4.404   2.738   4.447  1.4271 -3.4583 -1.1260
39243SOL     OW23048  11.482   5.484   4.060 -0.0170 -0.0722  0.2704
39243SOL    HW123049  11.451   5.452   3.975 -0.9673 -1.7446  1.2124
39243SOL    HW223050  11.489   5.579   4.048 -0.2285 -0.2608 -1.6376
39244SOL     OW23051   5.952   7.582   3.278 -0.3651  0.3723  0.3225
39244SOL    HW123052   5.989   7.512   3.332  0.1027 -0.2934 -0.8130
39244SOL    HW223053   5.875   7.612   3.325 -1.5300 -2.0455  0.0618
39245SOL     OW23054   1.442   7.603   2.858 -0.1963 -0.4273  0.1818
39245SOL    HW123055   1.538   7.604   2.849 -0.1442 -2.0755  0.3121
39245SOL    HW223056   1.420   7.691   2.890  1.1480  0.3795 -0.9889
39246SOL     OW23057   2.181   6.974  10.711  0.2289  0.1225  0.1525
39246SOL    HW123058   2.111   7.039  10.701 -0.6048 -0.9460 -1.4839
39246SOL    HW223059   2.159   6.906  10.648  2.0458 -0.9077  0.5630
39247SOL     OW23060  11.424   2.666   2.316  0.0905 -0.4064 -0.9280
39247SOL    HW123061  11.455   2.608   2.385 -1.5257 -0.6115 -0.3406
39247SOL    HW223062  11.461   2.629   2.235 -0.3466 -1.8560 -0.4828
39248SOL     OW23063   1.916   1.660   8.943 -0.3317 -0.2002  0.2204
39248SOL    HW123064   1.897   1.742   8.897 -0.8984  0.6409  1.8540
39248SOL    HW223065   1.940   1.598   8.874 -2.5876  0.5595 -1.3567
39249SOL     OW23066   2.932   5.089   9.434  0.0188  0.0052 -0.1076
39249SOL    HW123067   2.929   5.165   9.375 -0.9336 -1.7289 -2.4329
39249SOL    HW223068   3.018   5.050   9.417 -0.5168 -0.8656 -0.8784
39250SOL     OW23069   6.926  10.812  11.775 -0.2632 -0.8064  0.0420
39250SOL    HW123070   6.927  10.851  11.862 -0.7993 -1.4213  0.3338
39250SOL    HW223071   6.847  10.758  11.774 -0.9150  0.1042 -1.2306
39251SOL     OW23072   5.789   9.246   3.441 -0.3447 -0.2501  0.3394
39251SOL    HW123073   5.868   9.205   3.477  0.7029  0.0374 -1.4999
39251SOL    HW223074   5.815   9.337   3.424 -1.5842  0.2905  1.1637
39252SOL     OW23075  10.262   9.179   0.097 -0.3104 -0.4345  0.1629
39252SOL    HW123076  10.310   9.096   0.090  0.6032  0.1595 -1.2541
39252SOL    HW223077  10.198   9.175   0.026 -0.1230  0.1420 -0.0428
39253SOL     OW23078   2.561   7.245   7.933 -0.1227  0.3925  0.4072
39253SOL    HW123079   2.603   7.274   8.014  1.8269  0.1313 -0.4526
39253SOL    HW223080   2.608   7.165   7.909 -1.4356 -0.1733 -0.4018
39254SOL     OW23081  10.180   9.199  10.807  0.4063  0.1767 -0.7234
39254SOL    HW123082  10.193   9.195  10.712  2.6484 -0.5594 -0.4573
39254SOL    HW223083  10.269   9.200  10.843 -0.3742 -0.5813  1.3999
39255SOL     OW23084   3.980   1.810   5.474 -0.3628 -0.2533 -0.1722
39255SOL    HW123085   3.978   1.715   5.486 -0.8060 -0.3389 -0.8779
39255SOL    HW223086   4.034   1.842   5.547  1.9996 -1.2940 -1.3339
39256SOL     OW23087   5.641   5.928   5.419 -0.0856  0.2413 -0.1815
39256SOL    HW123088   5.578   5.938   5.489 -0.6704 -1.4496 -0.4180
39256SOL    HW223089   5.605   5.978   5.346 -1.3995 -1.0070 -0.4382
39257SOL     OW23090   9.042  11.045   4.051 -0.5015  0.1396 -0.4618
39257SOL    HW123091   9.097  10.972   4.080  0.5112  0.5997 -1.1326
39257SOL    HW223092   9.021  11.094   4.131 -1.9494 -1.3564  0.1202
39258SOL     OW23093   7.453   1.125   7.447  0.0520  0.4036  0.0471
39258SOL    HW123094   7.539   1.102   7.482  0.2381  0.3050 -0.4616
39258SOL    HW223095   7.393   1.110   7.520  0.5190  0.9186  0.5514
39259SOL     OW23096   8.673   5.990   9.709 -0.3226  0.5089  0.1979
39259SOL    HW123097   8.667   6.070   9.656  1.7353  1.4561  1.2877
39259SOL    HW223098   8.755   5.999   9.757  0.6238 -2.8588 -0.5549
39260SOL     OW23099   6.532   6.138   9.946 -0.3030  0.0002 -0.0120
39260SOL    HW123100   6.460   6.079   9.923 -1.6240  1.5165  0.0992
39260SOL    HW223101   6.507   6.223   9.909 -0.4432  1.5027  3.1904
39261SOL     OW23102   6.903   0.741   2.802 -0.5268 -0.3397  1.0132
39261SOL    HW123103   6.848   0.726   2.879 -0.5374  0.1562  1.1084
39261SOL    HW223104   6.908   0.837   2.795  0.7556 -0.3732  1.3148
39262SOL     OW23105   8.340   9.003   9.930 -0.1894  0.5362 -0.2588
39262SOL    HW123106   8.363   9.091   9.900 -0.4499  0.4114 -0.8370
39262SOL    HW223107   8.355   9.005  10.024  1.0825  0.8089 -0.4411
39263SOL     OW23108   4.822   5.562  11.499 -0.2048 -0.1582  0.6030
39263SOL    HW123109   4.885   5.606  11.442  0.1299  0.0488  1.1300
39263SOL    HW223110   4.837   5.469  11.483 -0.7503 -0.0945 -0.3338
39264SOL     OW23111   6.869   7.395   4.766  0.3604 -0.3697  0.3943
39264SOL    HW123112   6.866   7.485   4.796  2.1831  0.2470 -1.1070
39264SOL    HW223113   6.890   7.344   4.844  0.1672  0.5942  1.0837
39265SOL     OW23114   8.907   9.117   4.434  0.6615 -0.3170 -0.1427
39265SOL    HW123115   8.840   9.183   4.452  2.9063  2.2540 -0.5411
39265SOL    HW223116   8.891   9.048   4.498 -2.1260  0.3027 -0.0481
39266SOL     OW23117   8.711   1.173   9.265  0.1506  0.2745 -0.5257
39266SOL    HW123118   8.739   1.089   9.229 -1.8101 -0.6745  0.0080
39266SOL    HW223119   8.757   1.238   9.213 -0.7623 -1.0606 -3.1857
39267SOL     OW23120   1.056  10.796   4.043 -0.3295 -0.1204  0.6638
39267SOL    HW123121   1.060  10.766   3.952 -1.3466 -1.5199  1.0532
39267SOL    HW223122   0.967  10.775   4.071 -0.4110  1.3761  1.6441
39268SOL     OW23123   3.594  11.638   2.322 -0.3259  0.7020  0.5947
39268SOL    HW123124   3.589  11.622   2.227 -1.9311  1.1266  0.5799
39268SOL    HW223125   3.580  11.733   2.331 -1.3659  0.4926  1.3166
39269SOL     OW23126  11.197   3.523   3.379 -0.2110 -0.0396 -0.5037
39269SOL    HW123127  11.164   3.600   3.332  0.0041 -0.8679 -2.0691
39269SOL    HW223128  11.290   3.540   3.391 -0.1169 -0.1370 -1.0510
39270SOL     OW23129   6.816   4.942   0.512  0.2285 -0.3431  0.1760
39270SOL    HW123130   6.889   4.932   0.574  0.0621 -2.2145  0.1296
39270SOL    HW223131   6.738   4.946   0.568  0.2762  0.8013  0.1848
39271SOL     OW23132   9.200  11.497   9.368  0.0919 -0.1854 -0.0214
39271SOL    HW123133   9.107  11.476   9.381  0.3401  0.2420  3.4412
39271SOL    HW223134   9.201  11.589   9.344 -0.3929 -0.3464 -0.6713
39272SOL     OW23135   2.617   7.588   7.195 -0.0114 -0.1213 -0.0819
39272SOL    HW123136   2.563   7.546   7.261  1.1487 -1.7302 -0.0969
39272SOL    HW223137   2.707   7.578   7.227  0.5132 -0.2993 -1.5300
39273SOL     OW23138   2.356  11.802   8.333  0.0459 -0.2930 -0.5542
39273SOL    HW123139   2.330  11.773   8.246  1.7112  0.4529 -1.3451
39273SOL    HW223140   2.439  11.756   8.351  0.3704  0.4994  0.0884
39274SOL     OW23141  10.403  10.990  10.211  0.7590  0.0872 -0.2756
39274SOL    HW123142  10.448  11.033  10.284  3.2789 -1.7838 -0.5758
39274SOL    HW223143  10.396  10.898  10.237 -0.1771 -0.2249 -1.5290
39275SOL     OW23144   4.391  10.583   1.025  0.6180  0.2706 -0.7082
39275SOL    HW123145   4.405  10.591   0.931 -0.7801 -1.0602 -1.0694
39275SOL    HW223146   4.302  10.613   1.039 -0.7820 -3.4507 -0.5286
39276SOL     OW23147  11.737   1.706   6.370 -0.2081 -0.4484 -0.0677
39276SOL    HW123148  11.821   1.701   6.415 -0.4167  0.0440  0.3804
39276SOL    HW223149  11.708   1.797   6.382 -1.2815 -0.8664  0.6551
39277SOL     OW23150   3.158   1.340   3.354 -0.2359 -0.0731  0.2890
39277SOL    HW123151   3.074   1.294   3.351 -1.0967  1.2412  2.2571
39277SOL    HW223152   3.134   1.431   3.369  1.5427  0.4816 -0.0302
39278SOL     OW23153   2.586   4.309   3.685 -0.5999 -0.0221 -0.4274
39278SOL    HW123154   2.598   4.280   3.776  0.9673  1.2275 -0.1897
39278SOL    HW223155   2.537   4.391   3.693 -0.7029 -0.0530 -0.7443
39279SOL     OW23156  10.365   4.589   9.913  0.2865  0.6679 -0.2009
39279SOL    HW123157  10.281   4.575   9.869  0.4340  0.2839 -0.3703
39279SOL    HW223158  10.382   4.683   9.903  0.1414  0.6504 -0.6494
39280SOL     OW23159   0.009   8.344   7.705  0.3850  0.0985 -0.1661
39280SOL    HW123160   0.062   8.269   7.731  1.8049  1.8204  2.3502
39280SOL    HW223161   0.031   8.358   7.613  2.5004 -0.7169  0.1501
39281SOL     OW23162   1.424   3.853   4.609  0.0559  0.4380 -0.4391
39281SOL    HW123163   1.515   3.855   4.639 -0.3284  3.1343  0.8816
39281SOL    HW223164   1.394   3.765   4.630  1.4578  0.4640  2.1310
39282SOL     OW23165   1.782   1.023   9.942 -0.6953  0.6437 -0.0563
39282SOL    HW123166   1.794   1.096  10.002 -0.3426 -0.2887  1.0419
39282SOL    HW223167   1.735   0.957   9.993  0.1513 -0.4092 -0.6001
39283SOL     OW23168   2.776   9.633   8.688  0.0853 -0.3894 -0.0549
39283SOL    HW123169   2.850   9.613   8.746 -0.5639 -2.1571  0.2266
39283SOL    HW223170   2.798   9.588   8.606 -0.8831 -1.3576  0.1955
39284SOL     OW23171   4.052   2.426   8.341 -0.0823 -0.5181  0.5654
39284SOL    HW123172   4.066   2.503   8.285  0.5265 -0.0385  1.3501
39284SOL    HW223173   4.140   2.393   8.359 -0.2306 -0.3971  1.5925
39285SOL     OW23174   6.833   8.341   3.356  0.5806 -0.0118  0.4590
39285SOL    HW123175   6.827   8.247   3.343 -1.3897  0.0377  0.6319
39285SOL    HW223176   6.903   8.353   3.420  1.2621 -1.2911 -0.0202
39286SOL     OW23177   4.551   8.925   2.159 -0.1168  0.6217 -0.0359
39286SOL    HW123178   4.535   8.870   2.082 -0.9400  2.0121 -0.9170
39286SOL    HW223179   4.646   8.934   2.163 -0.0332  0.0278 -0.5173
39287SOL     OW23180   3.614   9.275   4.811  0.2133  0.3138 -0.1363
39287SOL    HW123181   3.658   9.301   4.730 -0.7039  0.9451 -0.4458
39287SOL    HW223182   3.544   9.217   4.783  0.3669 -0.0844  0.2861
39288SOL     OW23183   1.337   9.101   6.200 -0.2066  0.1141  0.0418
39288SOL    HW123184   1.346   9.125   6.107  2.1489  2.4393  0.7590
39288SOL    HW223185   1.323   9.184   6.245 -2.4266 -1.0873  1.7456
39289SOL     OW23186   0.536  10.361   3.290  0.6536  0.1291  0.1397
39289SOL    HW123187   0.554  10.272   3.260 -0.1112  0.5267 -1.6944
39289SOL    HW223188   0.459  10.352   3.346  0.0581 -0.2995 -0.7142
39290SOL     OW23189   7.832  11.041   2.836  0.5039  0.5252 -0.1671
39290SOL    HW123190   7.748  11.033   2.790  1.0274  1.4693 -1.3553
39290SOL    HW223191   7.829  11.129   2.874 -0.0894 -0.3963  2.0250
39291SOL     OW23192   4.982   2.043   6.881  0.1400 -0.3750  0.0844
39291SOL    HW123193   4.969   1.963   6.830 -0.5030 -1.0204  1.2223
39291SOL    HW223194   4.895   2.064   6.916  0.7219 -0.4706  1.6505
39292SOL     OW23195  11.086   0.636   1.705  0.4345 -0.1187 -0.1267
39292SOL    HW123196  11.019   0.581   1.663  0.3545  0.5684 -0.9075
39292SOL    HW223197  11.143   0.574   1.750 -0.1403 -0.7841 -0.2972
39293SOL     OW23198   2.149   8.827   7.974  0.2536  0.2020  0.3723
39293SOL    HW123199   2.101   8.858   7.898 -1.5607 -2.0622  0.5117
39293SOL    HW223200   2.152   8.903   8.032  0.4773  1.5606 -1.3418
39294SOL     OW23201   5.333   4.679   5.775  0.4278 -0.1195  0.1993
39294SOL    HW123202   5.238   4.682   5.764  0.4306 -1.2908 -0.2197
39294SOL    HW223203   5.359   4.597   5.735  1.6090  0.1183  0.4558
39295SOL     OW23204   2.227   6.567  10.018 -0.0167 -0.4165 -0.2623
39295SOL    HW123205   2.150   6.604   9.976  0.2721  0.4816 -0.0195
39295SOL    HW223206   2.291   6.638  10.019  0.8885 -1.1995 -0.6344
39296SOL     OW23207   8.906   8.632   8.399  0.1366  0.2099 -0.4987
39296SOL    HW123208   8.931   8.540   8.396  1.2470  0.4507  0.5003
39296SOL    HW223209   8.868   8.643   8.486  0.6887  0.8422 -0.3285
39297SOL     OW23210   6.089   0.517  10.325  0.3412 -0.6280  0.4001
39297SOL    HW123211   6.042   0.526  10.242  1.4484 -1.3015 -0.3183
39297SOL    HW223212   6.165   0.463  10.304  0.3972 -1.2068  1.9584
39298SOL     OW23213   4.536   8.365  11.056 -0.3495  0.2789 -0.5510
39298SOL    HW123214   4.449   8.404  11.048 -0.0693  1.6685  1.9998
39298SOL    HW223215   4.522   8.287  11.109  0.1534  1.7846  1.9581
39299SOL     OW23216   2.667   5.546   8.673 -0.4265 -0.1535 -0.3475
39299SOL    HW123217   2.579   5.577   8.693 -0.0407  0.5488  0.3146
39299SOL    HW223218   2.667   5.533   8.578 -0.7342  1.5387 -0.6130
39300SOL     OW23219   8.074   1.001   1.469  0.1546 -0.1998  0.0015
39300SOL    HW123220   8.001   1.063   1.467 -0.5329 -0.9342  1.1267
39300SOL    HW223221   8.040   0.921   1.430  0.7307 -0.1913 -0.5375
39301SOL     OW23222   4.498   3.628   2.073 -0.2527  0.6488 -0.1715
39301SOL    HW123223   4.443   3.578   2.013  0.2708  0.4896 -0.5184
39301SOL    HW223224   4.438   3.691   2.113 -0.7477  0.2855 -0.3345
39302SOL     OW23225   8.777   2.520   9.946  0.0895  0.0626  0.0315
39302SOL    HW123226   8.795   2.441   9.895 -0.0840  0.8718 -1.3241
39302SOL    HW223227   8.716   2.570   9.892 -0.9253  0.4904  1.5034
39303SOL     OW23228  11.736  10.810  10.538 -0.1888 -0.0786 -0.2972
39303SOL    HW123229  11.823  10.829  10.504 -0.2538  2.4533  0.7031
39303SOL    HW223230  11.710  10.729  10.494  2.1325 -0.2135 -1.5800
39304SOL     OW23231  11.377   0.501   9.462  0.0277  0.0740 -0.5840
39304SOL    HW123232  11.340   0.413   9.463 -0.3008  0.2015 -1.5145
39304SOL    HW223233  11.412   0.513   9.551  1.2273 -1.4825 -0.8118
39305SOL     OW23234   5.674   8.159   9.964 -0.4436  0.4313  0.4741
39305SOL    HW123235   5.625   8.234   9.932  0.3290  0.0764 -1.7172
39305SOL    HW223236   5.669   8.095   9.894  2.1676 -0.0342  0.6082
39306SOL     OW23237   5.496   3.279   4.680 -0.2104 -0.5561  0.3475
39306SOL    HW123238   5.501   3.332   4.600  1.7497  3.4530  2.7577
39306SOL    HW223239   5.587   3.258   4.701 -0.6251 -1.1733  1.7087
39307SOL     OW23240   1.609  10.641   5.483  0.1610  0.4340  0.0390
39307SOL    HW123241   1.696  10.609   5.504  1.1037  1.5093 -2.0045
39307SOL    HW223242   1.555  10.562   5.480  0.9491 -0.2211  1.6019
39308SOL     OW23243  10.927   0.755   3.045  0.0296 -0.2882  0.1010
39308SOL    HW123244  10.931   0.850   3.034 -0.8615 -0.5307 -3.3154
39308SOL    HW223245  10.972   0.739   3.128  1.2055  2.9864  0.2466
39309SOL     OW23246   1.413   6.729  11.205  0.1669 -0.2142 -0.2529
39309SOL    HW123247   1.335   6.696  11.249  0.9816 -1.7564  0.1184
39309SOL    HW223248   1.382   6.752  11.117 -0.8159 -0.2536  0.0662
39310SOL     OW23249   9.546   6.549  11.454 -0.0243  0.0344 -0.0210
39310SOL    HW123250   9.527   6.542  11.547 -0.6077 -0.7711 -0.1920
39310SOL    HW223251   9.463   6.529  11.411  0.1684  0.6794 -0.7166
39311SOL     OW23252   3.427   1.447   5.099 -0.1087 -0.1771  0.5019
39311SOL    HW123253   3.519   1.468   5.082 -0.1373 -0.6429 -0.2943
39311SOL    HW223254   3.395   1.413   5.016 -1.0383  0.0897  0.7374
39312SOL     OW23255   1.190   5.549   0.424  0.3730  0.1554 -0.2587
39312SOL    HW123256   1.207   5.637   0.389 -0.8392  1.0976  1.4347
39312SOL    HW223257   1.187   5.493   0.346  0.1752  1.7699 -1.4596
39313SOL     OW23258  11.201  10.135   7.967  0.0225 -0.2018  0.2380
39313SOL    HW123259  11.219  10.203   7.903  0.5933  0.2220  0.8446
39313SOL    HW223260  11.116  10.099   7.940 -0.9657  1.6680  0.6888
39314SOL     OW23261   5.454  10.725   4.420  0.5999  0.4539  0.1811
39314SOL    HW123262   5.461  10.798   4.358 -1.5505  1.6198  1.2076
39314SOL    HW223263   5.517  10.660   4.388  0.4196  1.4930 -2.4963
39315SOL     OW23264   8.949   3.879  11.597 -0.3444  0.6063  0.3823
39315SOL    HW123265   8.958   3.882  11.692 -1.0807 -0.0526  0.4838
39315SOL    HW223266   9.007   3.808  11.569 -3.3347 -2.2316  0.8267
39316SOL     OW23267   1.930   9.642   4.400 -0.6760 -0.2081  0.5616
39316SOL    HW123268   1.913   9.652   4.493  1.3035  2.9806  0.7155
39316SOL    HW223269   1.923   9.730   4.364  0.5791 -1.0177 -1.9267
39317SOL     OW23270   5.331   8.890   8.563 -0.4642  0.0041 -0.2124
39317SOL    HW123271   5.296   8.810   8.524 -0.3078 -0.7885  1.1976
39317SOL    HW223272   5.422   8.894   8.534 -0.6155 -0.0346 -0.7044
39318SOL     OW23273   8.601   0.849   7.344  0.3404  0.2631  0.1979
39318SOL    HW123274   8.572   0.892   7.424  0.1063  0.1527  0.1729
39318SOL    HW223275   8.588   0.755   7.361 -3.4986  0.3277 -1.3734
39319SOL     OW23276   1.608   1.825  10.310  0.0548  0.4751  0.4929
39319SOL    HW123277   1.526   1.778  10.294  0.7632 -0.2160 -1.3652
39319SOL    HW223278   1.653   1.772  10.376  0.3707 -0.9050 -0.7939
39320SOL     OW23279   3.800   4.521   4.188  0.2109  0.1161  0.3278
39320SOL    HW123280   3.884   4.534   4.145 -0.3980 -0.3419 -1.0645
39320SOL    HW223281   3.736   4.557   4.126 -0.5297  1.9309  2.0588
39321SOL     OW23282   1.341   6.293   5.835  0.1861  0.1021 -0.2090
39321SOL    HW123283   1.393   6.219   5.805  0.0670 -0.0521 -0.0383
39321SOL    HW223284   1.372   6.367   5.783  1.5225  0.3027  0.8210
39322SOL     OW23285   9.810   9.658   9.710  0.1894  0.8728  0.1189
39322SOL    HW123286   9.729   9.680   9.756 -0.2781  0.8807 -0.6874
39322SOL    HW223287   9.837   9.741   9.669 -1.1112  0.2600 -2.2113
39323SOL     OW23288   2.605   0.623   4.712  0.0590 -0.4498  0.2209
39323SOL    HW123289   2.697   0.602   4.728  0.1814 -0.2783 -0.2350
39323SOL    HW223290   2.584   0.576   4.631 -0.6712 -1.6892  1.0988
39324SOL     OW23291   9.275   8.326   1.547  0.5907  0.2182 -0.2802
39324SOL    HW123292   9.191   8.353   1.585  0.5315 -1.0955  0.5888
39324SOL    HW223293   9.328   8.299   1.622  2.4871  2.6551 -0.6109
39325SOL     OW23294  10.394   7.219   0.377  0.1371 -0.1780  0.1562
39325SOL    HW123295  10.457   7.257   0.437 -1.3757  0.2803  1.5377
39325SOL    HW223296  10.358   7.143   0.424  1.7695 -2.3337 -1.8037
39326SOL     OW23297   7.992   5.058  11.619 -0.2603  0.0075  0.2082
39326SOL    HW123298   7.962   5.058  11.529 -0.5499 -3.3871  0.1823
39326SOL    HW223299   8.057   4.988  11.622 -2.6263 -2.3224  3.2545
39327SOL     OW23300   8.974   6.453   9.279 -0.4698  1.0619 -0.1308
39327SOL    HW123301   8.994   6.442   9.186 -1.6213  2.9171 -0.6479
39327SOL    HW223302   9.059   6.470   9.320  0.3731 -1.9164 -0.4034
39328SOL     OW23303   4.824   9.450   9.493 -0.1603  0.0707 -0.2943
39328SOL    HW123304   4.798   9.361   9.468 -0.9973  0.2312 -0.0306
39328SOL    HW223305   4.831   9.498   9.411  0.4561 -0.2793 -0.4491
39329SOL     OW23306  11.593   7.066   7.376 -0.4926 -0.1232 -0.0225
39329SOL    HW123307  11.513   7.047   7.425 -0.6105 -0.3089 -0.2873
39329SOL    HW223308  11.661   7.016   7.420 -0.7978 -1.1742 -0.7191
39330SOL     OW23309   7.637   7.315   3.966 -0.5312 -0.1668 -0.1231
39330SOL    HW123310   7.724   7.307   3.927  0.1700 -2.3844  1.6646
39330SOL    HW223311   7.581   7.259   3.913 -0.1949 -1.0150  0.4026
39331SOL     OW23312   3.884   5.818   8.579 -0.1874  0.1459  0.0574
39331SOL    HW123313   3.979   5.828   8.569 -0.3240  0.9772 -0.5277
39331SOL    HW223314   3.863   5.735   8.537  0.4868 -0.8301  1.5802
39332SOL     OW23315   5.145  10.886   3.240 -0.0362 -0.5066  0.4982
39332SOL    HW123316   5.146  10.932   3.156 -2.2724 -1.5067 -0.1701
39332SOL    HW223317   5.179  10.798   3.221  0.4449 -0.4133  0.8894
39333SOL     OW23318  11.779   0.097   9.783 -0.1601 -0.3858 -0.0958
39333SOL    HW123319  11.784   0.002   9.778  3.9100 -0.3354 -1.0091
39333SOL    HW223320  11.820   0.119   9.867 -0.1786  0.5788 -0.3239
39334SOL     OW23321   7.566  11.182   4.628 -0.2243  0.4497 -0.8260
39334SOL    HW123322   7.578  11.134   4.546  3.6549 -0.0076 -0.1791
39334SOL    HW223323   7.619  11.135   4.692  0.3378  3.1795  0.8963
39335SOL     OW23324  10.818   4.571   8.553  0.2855 -0.2250 -0.4244
39335SOL    HW123325  10.731   4.533   8.541 -0.0090 -0.5940  2.2020
39335SOL    HW223326  10.809   4.630   8.628  2.2107  0.0134 -0.3153
39336SOL     OW23327   7.681  11.313   7.266 -0.3582 -0.2098  0.3010
39336SOL    HW123328   7.667  11.222   7.238  1.6330 -0.4991  0.1187
39336SOL    HW223329   7.712  11.358   7.187  0.1895  0.2510  0.7759
39337SOL     OW23330   6.921  10.356   7.608  0.0220  0.4074  0.4166
39337SOL    HW123331   7.008  10.363   7.568  0.1404 -1.1140  0.3475
39337SOL    HW223332   6.860  10.373   7.536  0.2437  1.2009  0.4038
39338SOL     OW23333   9.334   3.972   5.942  0.8067 -0.1887  0.1403
39338SOL    HW123334   9.328   3.983   5.847 -0.5642  0.1682  0.2492
39338SOL    HW223335   9.427   3.985   5.962  1.9775 -4.2571 -1.5996
39339SOL     OW23336   1.042   4.962  11.027  0.1882 -0.8440  0.2883
39339SOL    HW123337   1.043   5.057  11.018  0.5005 -0.8270  0.4946
39339SOL    HW223338   1.090   4.930  10.950  0.8458 -0.7968  0.6775
39340SOL     OW23339   8.677   5.564  10.688  0.2385  0.7326  0.5819
39340SOL    HW123340   8.633   5.532  10.609  0.9976  0.6261  0.1930
39340SOL    HW223341   8.617   5.542  10.759 -0.3926  0.7083  0.0486
39341SOL     OW23342   0.549   5.882  10.714 -0.1149  0.5676 -0.6067
39341SOL    HW123343   0.505   5.844  10.638  2.2196 -0.3215 -1.5854
39341SOL    HW223344   0.607   5.813  10.746 -1.9764  0.3772  2.9321
39342SOL     OW23345   8.278   4.368   0.856 -0.5514  0.1335  0.0560
39342SOL    HW123346   8.359   4.344   0.811 -1.2227 -2.3109  0.0624
39342SOL    HW223347   8.219   4.396   0.785 -0.2084  0.4793 -0.1001
39343SOL     OW23348   6.798   7.050   0.531 -0.4744 -0.3277  0.0208
39343SOL    HW123349   6.841   6.969   0.504 -0.2505  0.1211 -1.0242
39343SOL    HW223350   6.869   7.112   0.545 -0.6949  1.0005 -3.6067
39344SOL     OW23351   9.926   2.945   6.541  0.7853 -0.2625  0.2378
39344SOL    HW123352   9.932   3.039   6.523 -0.7606 -0.0051  0.9334
39344SOL    HW223353   9.971   2.933   6.625  1.1127 -0.1796  0.0763
39345SOL     OW23354  10.697   3.626   2.993 -0.2402  0.3009 -0.0154
39345SOL    HW123355  10.710   3.704   2.940  0.7103 -0.2612 -0.6363
39345SOL    HW223356  10.743   3.557   2.946 -1.8421 -0.8512  0.0284
39346SOL     OW23357   7.436   8.211  10.144 -0.1326 -0.2959 -0.7043
39346SOL    HW123358   7.366   8.276  10.144 -0.1381 -0.3003 -0.5113
39346SOL    HW223359   7.401   8.137  10.096 -0.0932 -0.1180 -1.0085
39347SOL     OW23360   2.568   2.016   8.750 -0.6828 -0.2726  0.1012
39347SOL    HW123361   2.559   2.111   8.742  1.3200 -0.0157  0.3603
39347SOL    HW223362   2.528   1.996   8.835  0.0299  0.5380  0.6441
39348SOL     OW23363   8.317   6.249   8.045  0.2528 -0.5212  0.0245
39348SOL    HW123364   8.270   6.332   8.038  4.6822  2.3044  0.1506
39348SOL    HW223365   8.345   6.230   7.955  0.7826 -0.8430  0.2536
39349SOL     OW23366   0.329   6.714  10.547 -0.5131 -0.3465 -0.0531
39349SOL    HW123367   0.250   6.661  10.550  0.2373 -1.6091 -1.2900
39349SOL    HW223368   0.307   6.793  10.597 -1.7093 -1.7114  1.6923
39350SOL     OW23369  10.303   7.723  10.187 -0.0939  0.0051 -0.0946
39350SOL    HW123370  10.354   7.728  10.106  0.6783  1.2266  0.4400
39350SOL    HW223371  10.243   7.649  10.173  1.4968 -1.2016 -0.9392
39351SOL     OW23372   8.370   2.760   3.669  0.3791  0.5093 -0.0294
39351SOL    HW123373   8.433   2.813   3.717 -1.1241  1.6883  0.7247
39351SOL    HW223374   8.414   2.741   3.586  1.3487  2.1300  0.0685
39352SOL     OW23375   8.343   0.657   1.992  0.2066 -0.2591 -0.2832
39352SOL    HW123376   8.345   0.747   1.957  0.4025 -0.6612 -1.3634
39352SOL    HW223377   8.408   0.657   2.062 -0.4154  0.6639  0.3140
39353SOL     OW23378   0.410   2.203   8.281 -0.0447  0.3703  0.1414
39353SOL    HW123379   0.342   2.151   8.237 -0.5115  0.4272  0.7834
39353SOL    HW223380   0.443   2.146   8.350  1.6351 -0.2230 -1.0996
39354SOL     OW23381   6.138   6.106   2.627 -0.1567 -0.4143 -0.3004
39354SOL    HW123382   6.215   6.159   2.646 -0.1254 -0.7977  0.6908
39354SOL    HW223383   6.063   6.161   2.649 -0.1620 -0.2034 -0.8336
39355SOL     OW23384   7.662   4.175   5.858 -0.6131 -0.2074 -0.2396
39355SOL    HW123385   7.727   4.212   5.916  0.9621 -0.3178 -1.8399
39355SOL    HW223386   7.708   4.105   5.812 -2.0526 -0.7338 -0.9575
39356SOL     OW23387   8.791   9.348   1.933  0.0501  0.1890  0.5723
39356SOL    HW123388   8.784   9.257   1.903  0.0168  0.5098 -0.4394
39356SOL    HW223389   8.714   9.391   1.896 -0.0183  0.5919  1.1850
39357SOL     OW23390   7.070   2.656   2.693 -0.0044 -0.2640 -0.0136
39357SOL    HW123391   7.039   2.637   2.605 -2.2698 -0.5648  0.7728
39357SOL    HW223392   7.022   2.735   2.719  2.4192  1.2470  0.1224
39358SOL     OW23393  11.273   7.497   9.595  0.1039 -0.0683  0.1559
39358SOL    HW123394  11.260   7.403   9.591  0.5058 -0.1010 -0.6539
39358SOL    HW223395  11.287   7.523   9.504  1.0170  0.6236  0.4782
39359SOL     OW23396   8.295   5.983   7.264 -0.2701 -0.0879  0.2186
39359SOL    HW123397   8.329   6.054   7.209 -1.3797 -0.2786 -0.7662
39359SOL    HW223398   8.362   5.916   7.261 -0.9604 -0.7919 -2.3329
39360SOL     OW23399   5.366   7.839  11.052  0.2984  0.0825 -0.1874
39360SOL    HW123400   5.341   7.747  11.042  0.6861 -0.1222  0.6402
39360SOL    HW223401   5.313   7.886  10.988  1.1588 -0.8961 -1.6919
39361SOL     OW23402   2.260   3.121   4.906  0.0210 -0.0090  0.5405
39361SOL    HW123403   2.200   3.105   4.833 -2.0936 -2.0273  2.5398
39361SOL    HW223404   2.248   3.214   4.927  0.3651  0.4927 -1.3573
39362SOL     OW23405   5.134   1.214   0.007  0.4800  0.4576 -0.2674
39362SOL    HW123406   5.200   1.197   0.075 -1.5833 -0.2617  1.6983
39362SOL    HW223407   5.103   1.127  -0.018 -0.7818  0.8151 -0.0118
39363SOL     OW23408   6.487   2.658   1.332 -0.8331 -0.0326  0.3147
39363SOL    HW123409   6.440   2.725   1.283  0.3889  0.2863 -0.4597
39363SOL    HW223410   6.544   2.706   1.392  1.4722 -0.2467 -1.5699
39364SOL     OW23411   4.386   1.903   1.387  0.7236 -0.0388  0.2919
39364SOL    HW123412   4.340   1.987   1.383  2.4676  0.9422 -0.3738
39364SOL    HW223413   4.317   1.839   1.401 -0.8305  1.3513 -0.6058
39365SOL     OW23414   2.876   6.878   1.582 -0.3733  0.1399  0.1427
39365SOL    HW123415   2.866   6.842   1.670  0.0426 -1.1539 -0.3066
39365SOL    HW223416   2.928   6.812   1.535 -0.1227  1.0581 -0.9166
39366SOL     OW23417  10.360   2.765   5.634  0.2340  0.4179  0.4711
39366SOL    HW123418  10.445   2.737   5.666  0.6438  1.8486  0.7374
39366SOL    HW223419  10.321   2.811   5.708 -1.0368 -0.7202  0.5376
39367SOL     OW23420  11.163   3.397  10.915 -0.2289 -0.2674  0.2688
39367SOL    HW123421  11.079   3.444  10.913 -0.5976 -0.8044  1.6106
39367SOL    HW223422  11.150   3.329  10.982  1.0811 -0.7399  0.0645
39368SOL     OW23423   6.234   5.625   8.076 -0.1239  0.0079  0.4257
39368SOL    HW123424   6.235   5.682   8.153 -1.3321  1.2521 -0.4362
39368SOL    HW223425   6.218   5.538   8.111 -2.5962  0.8168  1.5021
39369SOL     OW23426   1.618   5.176  11.241  0.4402  0.3112  0.1850
39369SOL    HW123427   1.559   5.163  11.167  0.9222  2.0088 -0.5284
39369SOL    HW223428   1.670   5.253  11.218  1.4194  0.1740  1.7744
39370SOL     OW23429   8.978   1.582   3.368  0.4423  0.0188  0.4971
39370SOL    HW123430   9.026   1.644   3.313  1.1880 -1.0603 -0.1156
39370SOL    HW223431   8.951   1.633   3.444  0.3538  1.2770 -0.3393
39371SOL     OW23432  11.677   9.172   8.491  0.0098 -0.6250  0.0483
39371SOL    HW123433  11.588   9.168   8.526  1.1454  0.4266  3.4360
39371SOL    HW223434  11.716   9.089   8.515  0.0036 -1.0987 -1.4659
39372SOL     OW23435   0.540   3.362   6.907  0.0629 -0.2317 -0.0753
39372SOL    HW123436   0.604   3.332   6.972  1.5119  1.7108 -0.5289
39372SOL    HW223437   0.590   3.417   6.848 -1.6224 -0.4432 -1.7776
39373SOL     OW23438   5.985   4.861   5.764  0.0072 -0.1312  0.3066
39373SOL    HW123439   6.007   4.911   5.686 -0.3275 -0.0121  0.2864
39373SOL    HW223440   5.947   4.925   5.824 -2.8253 -0.7253 -0.6570
39374SOL     OW23441   3.398   3.893   9.271  0.7599 -0.8009 -0.3486
39374SOL    HW123442   3.387   3.941   9.189  2.0481  1.8484  0.9041
39374SOL    HW223443   3.456   3.819   9.248  0.3495 -0.6623 -1.9619
39375SOL     OW23444   1.352   9.948   4.984  0.6952  0.1696 -0.0624
39375SOL    HW123445   1.388   9.876   5.036 -2.1520 -0.4978  1.1938
39375SOL    HW223446   1.301   9.999   5.047 -1.3510  0.4204 -1.8183
39376SOL     OW23447   2.543   3.092   6.188  0.0996 -0.2971  0.3095
39376SOL    HW123448   2.448   3.078   6.180 -0.2082  1.9837 -1.0846
39376SOL    HW223449   2.566   3.139   6.108  2.5116 -1.1033  0.4660
39377SOL     OW23450   5.606   7.494  11.484 -0.7400 -0.2233 -0.3981
39377SOL    HW123451   5.638   7.476  11.572  0.2896 -0.7642 -0.8690
39377SOL    HW223452   5.634   7.419  11.433 -0.8022  0.3740 -1.3286
39378SOL     OW23453  11.636   4.316  10.199 -0.0443 -0.7896  0.2085
39378SOL    HW123454  11.645   4.294  10.107  0.5233 -0.4784  0.1866
39378SOL    HW223455  11.692   4.392  10.212 -3.2644  1.8212 -0.0948
39379SOL     OW23456  11.540   3.537   2.497  0.4590  0.1369  0.3506
39379SOL    HW123457  11.613   3.539   2.435  0.2289  2.3380  0.0695
39379SOL    HW223458  11.516   3.445   2.503  1.2224 -0.2769 -1.9683
39380SOL     OW23459   2.400   9.995   9.135 -0.1485  0.2733  0.1974
39380SOL    HW123460   2.349  10.073   9.158  0.0029  0.3476  0.2819
39380SOL    HW223461   2.334   9.931   9.108 -0.4536 -0.2260  1.9849
39381SOL     OW23462   0.449   6.749  11.332 -0.2276  0.0512  0.0639
39381SOL    HW123463   0.449   6.708  11.245  1.2990 -2.1182  0.9842
39381SOL    HW223464   0.539   6.778  11.344 -0.7590  1.6141  0.4034
39382SOL     OW23465   5.785   5.626   6.821 -0.3995 -0.0254  0.0113
39382SOL    HW123466   5.742   5.624   6.735 -1.3304  0.4189  0.4497
39382SOL    HW223467   5.875   5.653   6.802 -0.7915  0.8098 -0.7561
39383SOL     OW23468   0.780   6.481   2.045  0.9613  0.3392  0.1995
39383SOL    HW123469   0.789   6.487   1.950  2.2006 -1.5388  0.1461
39383SOL    HW223470   0.870   6.489   2.078  1.0613 -2.5483  0.9120
39384SOL     OW23471   6.352   7.460   6.242  0.0099  0.2370 -0.0917
39384SOL    HW123472   6.391   7.376   6.219 -0.5520 -0.0675  0.0575
39384SOL    HW223473   6.396   7.485   6.323 -0.9844 -0.7222  0.7715
39385SOL     OW23474  10.000   0.114   3.516 -0.6602 -0.0865  0.5032
39385SOL    HW123475   9.917   0.075   3.488 -0.5494 -0.6576  0.9546
39385SOL    HW223476  10.021   0.177   3.447 -1.2585 -0.2404  0.1742
39386SOL     OW23477   2.718   7.830   3.794  0.0717 -0.0823  0.6061
39386SOL    HW123478   2.736   7.853   3.703  0.7493 -0.5382  0.6194
39386SOL    HW223479   2.693   7.913   3.835 -1.8778 -0.1455 -0.3668
39387SOL     OW23480   0.180   1.757   3.281  0.0886  0.4229  0.4438
39387SOL    HW123481   0.096   1.802   3.271  0.2270  1.0836  1.9688
39387SOL    HW223482   0.217   1.755   3.193 -1.3607  0.4274 -0.1979
39388SOL     OW23483   3.808   6.689   8.062  0.5179 -0.0501 -0.2104
39388SOL    HW123484   3.847   6.682   8.149  0.1848  2.7168  0.2658
39388SOL    HW223485   3.881   6.675   8.002  0.8355 -1.5751  0.4673
39389SOL     OW23486   5.011   1.478  10.532 -0.3102 -0.5265 -0.4503
39389SOL    HW123487   5.003   1.572  10.546 -2.6074 -0.4813 -1.6429
39389SOL    HW223488   5.097   1.466  10.493 -0.2146  1.1508 -0.8040
39390SOL     OW23489   6.234   6.189   3.218  0.0846 -0.1892 -0.5259
39390SOL    HW123490   6.270   6.122   3.277 -0.0746  0.9005  0.8805
39390SOL    HW223491   6.293   6.189   3.143 -1.2167 -3.5005 -1.7359
39391SOL     OW23492   4.217   4.532   4.467  0.5529 -0.2640  0.4702
39391SOL    HW123493   4.192   4.442   4.490 -0.9138 -0.3545 -1.2497
39391SOL    HW223494   4.185   4.585   4.539 -2.1661 -0.7440 -0.2543
39392SOL     OW23495   8.968   1.519   1.880 -0.2521  0.0227 -0.1019
39392SOL    HW123496   9.019   1.446   1.916  1.8348  0.9527 -0.9822
39392SOL    HW223497   8.956   1.579   1.953 -0.9952 -0.6811  0.3598
39393SOL     OW23498   0.848  11.446   2.171  0.1310  0.8034  0.6623
39393SOL    HW123499   0.767  11.404   2.199 -1.3409  2.7208 -0.4760
39393SOL    HW223500   0.884  11.386   2.105  0.4802 -0.7826  2.2270
39394SOL     OW23501  11.749   7.550   2.134  0.8106  0.4395  0.3962
39394SOL    HW123502  11.784   7.470   2.174 -0.7972 -0.7376 -0.4398
39394SOL    HW223503  11.669   7.522   2.089 -0.5597  2.7578  1.1733
39395SOL     OW23504   5.785   6.809   7.344 -0.8912  0.0038  0.0597
39395SOL    HW123505   5.753   6.764   7.265 -1.9248 -0.7044  0.8626
39395SOL    HW223506   5.842   6.744   7.386 -3.4489 -1.1844  1.9387
39396SOL     OW23507   5.457   2.917   4.861 -0.4241 -0.7787  0.6420
39396SOL    HW123508   5.460   2.822   4.852 -2.2077 -0.8116  0.0071
39396SOL    HW223509   5.501   2.934   4.945  0.1527 -2.1232  0.6417
39397SOL     OW23510   2.459   8.318   0.457  0.3605 -0.0034  0.0921
39397SOL    HW123511   2.392   8.305   0.390 -0.6481 -2.4325  1.4169
39397SOL    HW223512   2.514   8.240   0.451  2.2227  1.2570  0.0166
39398SOL     OW23513   3.115   7.731   5.305  0.6040 -0.5850 -0.5026
39398SOL    HW123514   3.174   7.807   5.302 -0.0977 -0.0116 -3.4071
39398SOL    HW223515   3.081   7.731   5.395  2.7235  0.8392  0.3946
39399SOL     OW23516  11.469   6.587  11.760  0.0006 -0.6209 -0.1393
39399SOL    HW123517  11.528   6.526  11.805  1.7286  0.4157 -0.8848
39399SOL    HW223518  11.478   6.566  11.667 -1.9648 -1.3934 -0.2001
39400SOL     OW23519   9.917   8.126   8.941  0.6782 -0.3695  0.0828
39400SOL    HW123520   9.921   8.125   8.845  0.2804  0.3599  0.0527
39400SOL    HW223521   9.894   8.216   8.963  2.5014 -0.0654  0.9470
39401SOL     OW23522   0.469   3.574   7.793 -0.6078 -0.0038 -0.3549
39401SOL    HW123523   0.549   3.626   7.795 -1.1443  1.1046 -2.9606
39401SOL    HW223524   0.477   3.522   7.713 -1.7177 -1.2075  0.2815
39402SOL     OW23525   2.546   6.876   0.939  0.0003 -0.3077 -0.5611
39402SOL    HW123526   2.598   6.938   0.888  1.0843  0.4659  1.3730
39402SOL    HW223527   2.606   6.844   1.007 -1.0041 -2.2815 -0.5149
39403SOL     OW23528  11.715   0.302   9.626 -0.0543 -0.3543  0.2149
39403SOL    HW123529  11.627   0.323   9.658 -1.9052 -3.9585 -1.9377
39403SOL    HW223530  11.745   0.231   9.683  2.0262  1.4007  1.4986
39404SOL     OW23531   2.044   9.616   5.182 -0.1018 -0.2446 -0.5856
39404SOL    HW123532   2.100   9.688   5.211 -1.5375  0.1099  1.5927
39404SOL    HW223533   2.035   9.628   5.088  2.8306  0.0830 -0.9029
39405SOL     OW23534   6.051  10.145   8.343  0.1756  0.0726  0.0893
39405SOL    HW123535   6.002  10.152   8.425 -0.8825 -0.6907 -0.4642
39405SOL    HW223536   5.984  10.139   8.275  0.9834 -2.4871 -0.5787
39406SOL     OW23537  11.292   3.592   2.609 -0.1776 -0.5689 -0.1858
39406SOL    HW123538  11.381   3.587   2.576 -0.5098 -0.2663 -1.1576
39406SOL    HW223539  11.255   3.669   2.566 -0.6786 -0.2552  0.7823
39407SOL     OW23540  10.607   6.297   8.497 -0.2837 -0.4545 -0.1324
39407SOL    HW123541  10.610   6.371   8.436  1.9489  0.7108  1.2726
39407SOL    HW223542  10.588   6.221   8.441 -0.7195  0.8789 -1.9037
39408SOL     OW23543   4.588   6.019   5.068  0.0415  0.2838 -0.0170
39408SOL    HW123544   4.632   5.955   5.124 -0.9299 -0.3545  0.0329
39408SOL    HW223545   4.607   5.990   4.979 -3.2057 -2.1697 -0.0668
39409SOL     OW23546   0.531   0.274   3.960 -0.4871  0.2300 -0.5760
39409SOL    HW123547   0.494   0.263   3.872 -0.7734 -0.9785 -0.3134
39409SOL    HW223548   0.567   0.188   3.982 -2.0409 -0.0086  1.2186
39410SOL     OW23549   6.275   1.713   7.484 -0.2334 -0.3126 -0.2007
39410SOL    HW123550   6.287   1.766   7.563  0.6503  0.4916 -0.8433
39410SOL    HW223551   6.357   1.665   7.474  1.1460  2.2176 -2.4658
39411SOL     OW23552   0.171   6.237   3.796 -0.0844  0.1866  0.5439
39411SOL    HW123553   0.147   6.150   3.765  0.0180  0.2591  0.2588
39411SOL    HW223554   0.199   6.284   3.717  0.0698  0.4067  0.7281
39412SOL     OW23555  10.234   9.993  10.687  0.2950 -0.6175 -0.3238
39412SOL    HW123556  10.271   9.907  10.669 -1.2482 -1.7235  1.3918
39412SOL    HW223557  10.310  10.049  10.703  1.3709 -1.3410 -2.5658
39413SOL     OW23558   8.763   5.436   4.542 -0.4124  0.4642  0.0924
39413SOL    HW123559   8.819   5.455   4.467 -0.0662  1.0697  0.5003
39413SOL    HW223560   8.701   5.510   4.545  0.1634  0.9319  0.9486
39414SOL     OW23561   8.749   6.424   6.690 -0.3621  0.1531 -0.4513
39414SOL    HW123562   8.818   6.480   6.654 -0.1006 -0.2174 -0.5295
39414SOL    HW223563   8.692   6.485   6.736  0.5621  0.3577  0.4758
39415SOL     OW23564   8.615   8.471   8.994 -0.2962 -0.0341  0.1660
39415SOL    HW123565   8.520   8.479   8.987 -0.6490  1.6721  4.2159
39415SOL    HW223566   8.648   8.557   8.972  0.2137 -0.3089 -0.1481
39416SOL     OW23567  10.401   9.883   6.062  0.0096 -0.7995  0.4581
39416SOL    HW123568  10.342   9.815   6.094  0.9617 -0.7128  2.5904
39416SOL    HW223569  10.454   9.907   6.138  0.4550  1.5679 -0.4830
39417SOL     OW23570   1.034   8.199   6.408 -0.2256  0.9154  0.3296
39417SOL    HW123571   1.025   8.288   6.442 -0.6025  0.4375  1.5552
39417SOL    HW223572   1.056   8.147   6.485  3.8278  0.4815 -0.9010
39418SOL     OW23573   4.925  11.117  11.686  0.4359 -0.2207 -0.3432
39418SOL    HW123574   5.007  11.113  11.735  0.7340 -0.2131 -0.8394
39418SOL    HW223575   4.857  11.125  11.753  0.8789  0.3113  0.0433
39419SOL     OW23576   9.360   8.225   5.439  0.1723 -0.1718  0.1068
39419SOL    HW123577   9.450   8.195   5.429 -0.1796 -0.9172 -1.0523
39419SOL    HW223578   9.368   8.315   5.470  1.2746 -0.9143  2.1141
39420SOL     OW23579  10.131   4.924   4.731 -0.3264 -0.1107 -0.3697
39420SOL    HW123580  10.040   4.949   4.741 -0.8280 -1.5191 -1.0370
39420SOL    HW223581  10.136   4.836   4.770  0.6672 -0.1766 -0.6099
39421SOL     OW23582   8.647   6.641   0.569  0.0541 -0.1464 -0.2036
39421SOL    HW123583   8.714   6.624   0.504  1.0113  0.3625  0.6118
39421SOL    HW223584   8.695   6.645   0.652 -0.7384  1.7612  0.2156
39422SOL     OW23585   2.869   4.467   4.513 -0.2360 -0.3588 -0.5793
39422SOL    HW123586   2.962   4.462   4.532  0.0400 -0.0064 -1.7716
39422SOL    HW223587   2.860   4.542   4.454 -1.2712 -0.3842 -0.4855
39423SOL     OW23588   5.531   1.594  11.134 -0.1375  0.1984  0.2201
39423SOL    HW123589   5.569   1.655  11.070 -2.0308  1.1794 -0.0389
39423SOL    HW223590   5.554   1.631  11.219  1.7686 -0.7164  0.1508
39424SOL     OW23591   5.886   7.044   2.270 -0.1816  0.1775  0.2969
39424SOL    HW123592   5.916   7.127   2.307 -0.9573  0.3811  0.4863
39424SOL    HW223593   5.967   6.998   2.244  0.3296  0.4182  1.4041
39425SOL     OW23594   8.531   5.089  10.749  0.5571  0.3276 -0.1744
39425SOL    HW123595   8.457   5.058  10.802  0.9174 -0.2258  0.0198
39425SOL    HW223596   8.603   5.031  10.774  1.0769  0.9098 -0.3077
39426SOL     OW23597   9.269   8.387   7.797 -0.2024 -0.2550 -0.2933
39426SOL    HW123598   9.193   8.348   7.754 -1.3642  1.0982  0.4232
39426SOL    HW223599   9.233   8.434   7.872  0.7943  3.3367 -1.8132
39427SOL     OW23600   3.354   5.052   2.743  0.0780 -0.0763  0.2546
39427SOL    HW123601   3.368   5.095   2.827  0.6096  0.5465 -0.1473
39427SOL    HW223602   3.425   5.083   2.687 -1.0484  0.6307 -0.8539
39428SOL     OW23603   2.696   3.470  11.696  0.1405 -0.2700  0.5417
39428SOL    HW123604   2.607   3.475  11.730  0.0960 -1.7038  0.6849
39428SOL    HW223605   2.741   3.545  11.734 -0.6142 -0.3675  1.6462
39429SOL     OW23606   4.258   4.251  10.463 -0.6651 -0.1996  0.0661
39429SOL    HW123607   4.299   4.165  10.455 -0.0817  0.2514 -3.2406
39429SOL    HW223608   4.168   4.232  10.489 -0.8028 -1.9361 -1.4548
39430SOL     OW23609   0.756  10.251   1.336 -0.0545  0.0037 -0.4710
39430SOL    HW123610   0.707  10.224   1.258 -0.6944  1.4014 -0.5866
39430SOL    HW223611   0.766  10.346   1.327  1.3080 -0.0312  0.3511
39431SOL     OW23612  10.228   3.716   1.303 -0.6202 -0.2427 -0.3583
39431SOL    HW123613  10.166   3.644   1.294 -1.7303  0.6564 -0.1176
39431SOL    HW223614  10.175   3.795   1.289  0.1985  0.6168  1.1674
39432SOL     OW23615   6.920   4.245   5.382 -0.5022 -0.1470 -0.2153
39432SOL    HW123616   6.923   4.154   5.353 -0.9760 -0.3929  0.4860
39432SOL    HW223617   6.970   4.293   5.316 -0.2085 -0.9189 -0.5621
39433SOL     OW23618  10.851   5.631   8.166  0.0791  0.8987  0.0220
39433SOL    HW123619  10.831   5.640   8.259 -1.3652 -1.7007  0.0720
39433SOL    HW223620  10.808   5.705   8.125  0.4878  1.9253  1.3811
39434SOL     OW23621   7.061   2.845   8.946 -0.0401 -0.4467 -0.3047
39434SOL    HW123622   7.001   2.857   8.872 -0.0467  4.6652  0.2172
39434SOL    HW223623   7.006   2.807   9.015 -1.9906  1.3369 -0.7711
39435SOL     OW23624   3.531   7.723   4.956 -0.3148 -0.2224 -0.0705
39435SOL    HW123625   3.523   7.699   5.048 -0.6542 -0.7437 -0.2250
39435SOL    HW223626   3.623   7.708   4.935 -0.5555 -1.7251 -0.2271
39436SOL     OW23627   1.832   9.606   0.978 -0.0167 -0.1095 -0.6861
39436SOL    HW123628   1.912   9.562   0.952 -0.0141  0.0769 -1.0029
39436SOL    HW223629   1.830   9.686   0.925  0.5798  0.8733  0.7160
39437SOL     OW23630   0.295   8.125   1.541  0.1847  0.4967 -0.3628
39437SOL    HW123631   0.344   8.185   1.485  2.6475  0.2886  1.3820
39437SOL    HW223632   0.227   8.179   1.581 -0.8475  0.9018 -2.5142
39438SOL     OW23633   8.810   6.368   7.722  0.3242  0.3057  0.1903
39438SOL    HW123634   8.877   6.332   7.780  0.3286  1.4995  0.9661
39438SOL    HW223635   8.795   6.457   7.755 -0.7700  0.4814 -0.7122
39439SOL     OW23636   3.777   0.135   3.763  0.2547  0.6121 -0.3357
39439SOL    HW123637   3.864   0.098   3.775 -0.0610 -0.8540 -1.9964
39439SOL    HW223638   3.749   0.103   3.677 -1.7116  1.4735 -0.0866
39440SOL     OW23639   5.232   3.457   8.464  0.3695  0.2135 -0.0818
39440SOL    HW123640   5.192   3.371   8.452  3.0991 -1.3069  0.7290
39440SOL    HW223641   5.198   3.510   8.393 -2.0813 -1.2397 -0.0945
39441SOL     OW23642   0.035   5.510   5.693 -0.6091  0.2262  0.4643
39441SOL    HW123643   0.040   5.486   5.786 -1.3584 -1.4273  0.1107
39441SOL    HW223644   0.025   5.605   5.694  0.0345  0.3169  2.0540
39442SOL     OW23645   5.077   4.256  11.099  0.1350 -0.2069 -0.1959
39442SOL    HW123646   5.042   4.320  11.161  1.8955  0.2279  0.4042
39442SOL    HW223647   5.000   4.206  11.069 -1.2380  1.9123 -0.4062
39443SOL     OW23648   1.720   0.081   1.055 -0.5813 -0.1339 -0.0048
39443SOL    HW123649   1.740  -0.012   1.051 -0.6232 -0.1565  0.2680
39443SOL    HW223650   1.707   0.099   1.148 -1.3726 -0.0250 -0.1268
39444SOL     OW23651  11.032   3.506   9.305  0.4143 -0.2299 -0.0469
39444SOL    HW123652  11.039   3.472   9.216  0.0877 -1.4785  0.3877
39444SOL    HW223653  10.944   3.542   9.310  0.9792  1.3378 -0.7094
39445SOL     OW23654   6.145   8.317   5.599 -0.3834  0.3283  0.7937
39445SOL    HW123655   6.183   8.275   5.522 -0.4436  0.0610  0.9072
39445SOL    HW223656   6.210   8.306   5.668  0.4921  2.1962  0.3241
39446SOL     OW23657   8.012  10.440   9.185 -0.0015 -0.0706 -0.2236
39446SOL    HW123658   7.992  10.491   9.106  0.5243  0.4084 -0.0504
39446SOL    HW223659   8.081  10.490   9.229 -1.0774  0.2591  1.1403
39447SOL     OW23660   1.680   8.004   9.806 -0.0115 -0.1606 -0.3984
39447SOL    HW123661   1.704   8.043   9.722  0.5985  0.1617 -0.0774
39447SOL    HW223662   1.666   8.079   9.864  1.2374 -0.3888  0.2418
39448SOL     OW23663   5.490   5.885   0.834 -0.0742 -0.6330  0.1366
39448SOL    HW123664   5.573   5.865   0.791  0.2391 -0.7362  0.7828
39448SOL    HW223665   5.500   5.850   0.922 -0.0921  0.9831  0.8132
39449SOL     OW23666   8.016   4.809   6.645 -0.0872  0.1920 -0.3403
39449SOL    HW123667   7.957   4.814   6.570 -1.6197  0.7182  0.8520
39449SOL    HW223668   8.070   4.888   6.638  0.6666 -0.3888 -1.5402
39450SOL     OW23669  11.800   8.127   8.852 -0.5827 -0.1886 -0.1079
39450SOL    HW123670  11.706   8.113   8.841 -0.3994 -0.8647 -0.9088
39450SOL    HW223671  11.838   8.040   8.838  0.2499  0.2912 -0.8699
39451SOL     OW23672  11.294   8.501   5.046 -0.4857 -0.3052  1.3845
39451SOL    HW123673  11.283   8.573   4.985  1.6734 -0.8775  0.1946
39451SOL    HW223674  11.205   8.473   5.068 -1.3279  0.8904 -0.3336
39452SOL     OW23675  11.448   2.940   5.943  0.1123  0.3355  0.0490
39452SOL    HW123676  11.437   2.939   6.038  0.3928  0.0312  0.0797
39452SOL    HW223677  11.477   2.851   5.921  2.5330  1.0772 -0.0191
39453SOL     OW23678   6.252   2.311   3.801 -0.3187  0.6646  0.3161
39453SOL    HW123679   6.237   2.288   3.710  1.6616  0.9346 -0.1103
39453SOL    HW223680   6.268   2.227   3.845 -0.9073  0.5710  0.3666
39454SOL     OW23681   6.253   3.426   1.472  0.1889 -0.5284 -0.1714
39454SOL    HW123682   6.248   3.441   1.567 -2.5128  0.5259 -0.4032
39454SOL    HW223683   6.230   3.510   1.433  0.8152 -1.0762 -1.8044
39455SOL     OW23684  11.226   0.392   4.975  0.1149 -0.3388  0.3629
39455SOL    HW123685  11.282   0.467   4.996  0.3883 -0.0240 -1.3633
39455SOL    HW223686  11.288   0.320   4.960  0.1546  0.1075 -1.9525
39456SOL     OW23687   5.186   1.672   5.680 -0.1406  0.1847  0.1898
39456SOL    HW123688   5.151   1.695   5.594  0.6924  0.2831 -0.1307
39456SOL    HW223689   5.129   1.717   5.742 -0.9037 -0.0936 -0.2927
39457SOL     OW23690  11.241   4.633  11.657 -0.1351  0.3912  0.0907
39457SOL    HW123691  11.203   4.603  11.740 -3.0745 -1.8265 -1.8585
39457SOL    HW223692  11.314   4.689  11.683  0.0253 -1.3613  4.1501
39458SOL     OW23693   8.747   4.916   6.164  0.5945 -0.1427 -0.3349
39458SOL    HW123694   8.720   4.829   6.193  1.3276  0.5535  2.8044
39458SOL    HW223695   8.842   4.909   6.152  0.6927  0.2759  0.1832
39459SOL     OW23696  10.741   3.357   9.137 -0.0212 -0.0152 -0.1685
39459SOL    HW123697  10.835   3.339   9.140 -0.0469 -0.0574  0.5774
39459SOL    HW223698  10.704   3.285   9.085  0.3418 -0.0855 -0.3283
39460SOL     OW23699   9.479   4.771   7.875  0.1884 -0.0195 -0.0426
39460SOL    HW123700   9.532   4.819   7.938  0.8478 -1.5346  0.6030
39460SOL    HW223701   9.388   4.792   7.898  0.4540  0.8265  0.2667
39461SOL     OW23702   7.878  11.413   3.987 -0.2135 -0.0196  0.1079
39461SOL    HW123703   7.944  11.464   3.940  1.5360 -0.7535  1.6162
39461SOL    HW223704   7.830  11.477   4.040  0.4302  0.3386  0.2664
39462SOL     OW23705   8.615   8.938   9.173  0.1708  0.3351 -0.7043
39462SOL    HW123706   8.613   9.032   9.188 -2.1268  0.1090  1.0673
39462SOL    HW223707   8.533   8.919   9.127 -0.0098 -0.9300  0.0746
39463SOL     OW23708   5.176  11.306   5.883 -0.0146 -0.6661 -0.1347
39463SOL    HW123709   5.093  11.258   5.878 -0.2457 -0.5249  1.6895
39463SOL    HW223710   5.225  11.262   5.953  0.6937  0.3838  0.0473
39464SOL     OW23711   8.252   5.297   8.438  0.4700  0.7321  0.4859
39464SOL    HW123712   8.197   5.328   8.511 -1.0190  0.6068 -0.5331
39464SOL    HW223713   8.231   5.204   8.431 -0.4518  1.0226 -0.9511
39465SOL     OW23714   7.197   0.958   2.302  0.2524 -0.6169 -0.1422
39465SOL    HW123715   7.211   0.918   2.216 -0.3370  1.2371 -1.1506
39465SOL    HW223716   7.189   1.052   2.284  1.5805  0.0169  2.1098
39466SOL     OW23717   3.539   1.076   5.141 -0.4310 -0.1103 -0.5506
39466SOL    HW123718   3.533   0.985   5.170 -0.3753 -0.1536 -0.6746
39466SOL    HW223719   3.448   1.106   5.140 -0.3027  0.5018  1.5858
39467SOL     OW23720   1.454  10.476  10.085  0.2557  0.6906  0.0363
39467SOL    HW123721   1.367  10.454  10.050 -0.1297  1.6877  0.3117
39467SOL    HW223722   1.478  10.400  10.137 -1.3354  1.1143  1.5246
39468SOL     OW23723   7.990   9.222   3.685  0.2234 -0.5248 -0.0047
39468SOL    HW123724   8.026   9.311   3.685 -2.2815  0.5726 -0.1702
39468SOL    HW223725   8.011   9.188   3.598 -0.1016  0.5087 -0.5024
39469SOL     OW23726   0.183   2.318   9.313 -0.2061  0.6333 -0.0326
39469SOL    HW123727   0.107   2.360   9.353  1.0708  1.9142  1.1864
39469SOL    HW223728   0.231   2.278   9.386  0.3500 -0.0810 -0.7559
39470SOL     OW23729   6.303  10.052  10.681  0.6421 -0.0741 -0.3095
39470SOL    HW123730   6.219  10.029  10.640 -1.0785  1.3694  2.0759
39470SOL    HW223731   6.336  10.124  10.628  0.8724 -1.2437 -1.8099
39471SOL     OW23732   7.481   2.513   8.569 -0.7630 -0.9593 -0.1924
39471SOL    HW123733   7.492   2.602   8.534 -0.8631 -1.4516 -1.5351
39471SOL    HW223734   7.438   2.526   8.654 -0.3633  0.2899 -0.1567
39472SOL     OW23735  10.374   3.684  10.281 -0.1237  0.2590 -0.5610
39472SOL    HW123736  10.325   3.665  10.200 -1.2849 -0.5124  0.2940
39472SOL    HW223737  10.369   3.779  10.289 -2.4363  0.1454  0.0302
39473SOL     OW23738   4.928   4.469   7.519  0.2085  0.1731 -0.3530
39473SOL    HW123739   5.021   4.479   7.501  0.2971  1.2284  0.5930
39473SOL    HW223740   4.907   4.381   7.488  1.7547 -0.4938  0.3573
39474SOL     OW23741   8.844   7.865   6.923 -0.8440  0.9167 -0.5019
39474SOL    HW123742   8.768   7.835   6.973  0.1352  0.2594  0.6425
39474SOL    HW223743   8.918   7.856   6.983  0.7356 -1.7869 -2.6277
39475SOL     OW23744   9.589   8.349  11.279 -0.5775  0.0791  0.8442
39475SOL    HW123745   9.644   8.345  11.358  0.3996 -0.6330  0.1554
39475SOL    HW223746   9.621   8.277  11.224 -1.4252  0.3934 -0.0882
39476SOL     OW23747   1.196  11.344   0.036 -0.0118  0.1169 -0.2910
39476SOL    HW123748   1.224  11.432   0.061 -0.4516  0.2812 -0.3713
39476SOL    HW223749   1.180  11.300   0.119  0.4275  0.0408 -0.2462
39477SOL     OW23750   5.827   6.844   4.141 -0.2960 -0.1872  0.1757
39477SOL    HW123751   5.808   6.856   4.234 -1.1313  0.2028 -0.0342
39477SOL    HW223752   5.880   6.765   4.137  0.9871  0.5973  1.1230
39478SOL     OW23753  10.846   4.808  10.489  0.7674 -0.7903  0.5156
39478SOL    HW123754  10.856   4.897  10.523  1.2433 -0.8093  0.4324
39478SOL    HW223755  10.810   4.758  10.562 -1.6003 -0.0773 -0.0668
39479SOL     OW23756   4.560   6.197  10.492 -0.3048  0.0439  0.1134
39479SOL    HW123757   4.570   6.190  10.397 -0.4570  2.4836 -0.1415
39479SOL    HW223758   4.466   6.212  10.505  0.0765  2.6552  0.3410
39480SOL     OW23759   7.373   1.313   0.717 -0.0665 -0.3442  0.7592
39480SOL    HW123760   7.339   1.383   0.661  2.9034  0.7494  0.1147
39480SOL    HW223761   7.460   1.295   0.682  0.6836 -1.8446  3.1402
39481SOL     OW23762   5.605   0.232   4.735  0.8161  0.0439 -0.6176
39481SOL    HW123763   5.665   0.218   4.662  2.4548 -0.5616  0.7959
39481SOL    HW223764   5.589   0.144   4.771 -0.6423  0.2343 -0.7296
39482SOL     OW23765   5.663  11.413  10.096  0.7940  0.1465  0.1576
39482SOL    HW123766   5.583  11.435  10.144 -0.4492 -1.4385 -1.0613
39482SOL    HW223767   5.683  11.491  10.045  0.6585  0.9367  1.2928
39483SOL     OW23768  10.629   1.967   6.381  0.1884 -0.0732 -0.0654
39483SOL    HW123769  10.660   1.923   6.302  0.0756 -0.1063 -0.0918
39483SOL    HW223770  10.592   2.050   6.349  0.7323  0.2088  0.0227
39484SOL     OW23771   9.913   2.774   9.602 -0.3353  0.1443  0.1709
39484SOL    HW123772   9.966   2.807   9.529 -0.2235 -1.7753 -0.6706
39484SOL    HW223773   9.836   2.829   9.603  0.5271  1.4023 -0.1766
39485SOL     OW23774   6.504   7.192   5.410 -0.0407 -0.0531 -0.1212
39485SOL    HW123775   6.497   7.267   5.352  0.0328 -0.4901 -0.7089
39485SOL    HW223776   6.451   7.215   5.486  0.5346  0.8660  0.0146
39486SOL     OW23777   5.757   6.808   1.863 -0.3877  0.2582 -0.0760
39486SOL    HW123778   5.721   6.780   1.947 -0.6420 -0.3639 -0.3823
39486SOL    HW223779   5.851   6.817   1.878 -0.6154  1.6896  0.6803
39487SOL     OW23780   7.150   5.762   7.077 -0.5332  0.2411 -0.0594
39487SOL    HW123781   7.207   5.762   7.154 -0.2405  0.7142 -0.2698
39487SOL    HW223782   7.062   5.751   7.112 -0.3074 -0.6160  0.2641
39488SOL     OW23783   2.957  10.004   6.612 -0.4638  0.0657 -0.2339
39488SOL    HW123784   2.918  10.084   6.578  0.1469  0.3976 -0.1660
39488SOL    HW223785   3.045  10.002   6.574 -0.0979 -0.0244  0.6137
39489SOL     OW23786   2.476  10.038   7.388 -0.0983 -0.2015  0.1935
39489SOL    HW123787   2.555  10.002   7.429 -0.9660  1.6397  3.8008
39489SOL    HW223788   2.406   9.979   7.416 -0.4876  0.1200 -0.1003
39490SOL     OW23789   8.679   2.649   4.073  0.5259 -0.4494  0.2157
39490SOL    HW123790   8.672   2.570   4.127  0.8257 -0.2217  0.5922
39490SOL    HW223791   8.750   2.629   4.012 -0.7074 -1.2319 -1.0024
39491SOL     OW23792   3.873   9.921   7.534  0.2463 -0.0853 -0.3694
39491SOL    HW123793   3.842   9.994   7.479 -1.0829 -0.6317 -0.3905
39491SOL    HW223794   3.968   9.924   7.527  0.1949  1.3286 -0.7907
39492SOL     OW23795   4.010  11.326   8.916  0.0558 -0.2454  0.6382
39492SOL    HW123796   4.066  11.379   8.858 -0.9731 -0.3049 -0.4390
39492SOL    HW223797   4.064  11.312   8.994  0.8218  1.3302  0.4385
39493SOL     OW23798   5.811   3.620   8.206  0.0086 -0.0854 -0.2085
39493SOL    HW123799   5.716   3.625   8.212  0.0474 -0.3480  0.8314
39493SOL    HW223800   5.833   3.537   8.248  0.7605  0.3979  0.3672
39494SOL     OW23801  10.878   7.782   2.900  0.0505 -0.2134  0.6913
39494SOL    HW123802  10.958   7.730   2.893  0.8777  0.9592  1.1529
39494SOL    HW223803  10.875   7.831   2.817  1.4198  1.9009  1.7778
39495SOL     OW23804   6.253   4.384   2.356  0.3170  0.3834  0.3955
39495SOL    HW123805   6.173   4.336   2.377  0.7007 -0.6858 -0.4737
39495SOL    HW223806   6.223   4.474   2.341 -0.8084 -0.0883 -0.3701
39496SOL     OW23807   3.113   9.802   9.414  0.3719 -0.0023 -0.0474
39496SOL    HW123808   3.070   9.881   9.445 -1.0566 -1.2108  1.1932
39496SOL    HW223809   3.151   9.762   9.493  0.9987 -0.6178 -0.6336
39497SOL     OW23810  10.474   2.897   6.002  0.0840  0.7559  0.1104
39497SOL    HW123811  10.556   2.848   5.993 -0.4830 -0.8399  2.6849
39497SOL    HW223812  10.499   2.988   5.989  2.1832  0.2676  0.3494
39498SOL     OW23813   1.794   7.676   9.638  0.2425 -0.0046 -0.2071
39498SOL    HW123814   1.705   7.663   9.604 -0.1631  0.8276  0.4813
39498SOL    HW223815   1.798   7.621   9.716  0.7496 -0.9568 -0.8876
39499SOL     OW23816   3.367   9.014   1.165  0.1322  0.5739  0.4383
39499SOL    HW123817   3.429   9.086   1.177 -1.2041  2.1229 -1.3709
39499SOL    HW223818   3.344   9.017   1.072 -0.1187 -2.1141  0.3543
39500SOL     OW23819   9.184   3.409   8.095  0.1845  0.2990  0.2076
39500SOL    HW123820   9.178   3.344   8.025  0.6077 -1.0125  1.3586
39500SOL    HW223821   9.190   3.358   8.175  0.0403  1.7729  1.1936
39501SOL     OW23822   3.361   5.271   9.966 -0.4526 -0.1215 -0.5367
39501SOL    HW123823   3.386   5.321  10.044 -2.3051  0.8175 -0.4812
39501SOL    HW223824   3.273   5.238   9.986 -1.4977  1.1522 -2.6296
39502SOL     OW23825   4.127   6.981   6.221 -0.3288 -0.5126 -0.0832
39502SOL    HW123826   4.188   6.969   6.148  0.4281 -3.1611  0.8602
39502SOL    HW223827   4.040   6.973   6.182 -0.2379  3.2550 -1.4370
39503SOL     OW23828   1.979   6.985   0.625  0.2330  0.5225 -0.5853
39503SOL    HW123829   1.911   7.034   0.580 -0.3162  0.6900  0.3906
39503SOL    HW223830   1.990   6.905   0.574 -0.5607  0.5763 -0.8475
39504SOL     OW23831   6.481   5.856   3.185  0.1969 -0.1861 -0.9582
39504SOL    HW123832   6.553   5.917   3.167 -1.6460  2.1002 -1.0197
39504SOL    HW223833   6.425   5.902   3.247 -1.5681 -1.6194 -1.3877
39505SOL     OW23834   9.747   5.601  10.967  0.0311  0.1075 -0.1561
39505SOL    HW123835   9.694   5.533  10.926  0.1816  0.3760 -0.7984
39505SOL    HW223836   9.796   5.555  11.035 -2.1010  0.0870  1.5007
39506SOL     OW23837   4.857  11.574   7.378 -0.4063 -0.4237 -0.5876
39506SOL    HW123838   4.951  11.581   7.368 -0.1111 -0.9588  1.3049
39506SOL    HW223839   4.820  11.612   7.298  1.4082 -1.2976 -1.8959
39507SOL     OW23840   7.431  10.561   2.949  0.4383  0.5617  0.0889
39507SOL    HW123841   7.416  10.573   3.043 -0.4726  1.6141 -0.1697
39507SOL    HW223842   7.344  10.543   2.914  0.7419  0.4124 -0.5914
39508SOL     OW23843   1.435   3.633   5.459 -0.4246  0.3718  0.8729
39508SOL    HW123844   1.340   3.634   5.451 -0.3724  3.1192 -0.1884
39508SOL    HW223845   1.452   3.660   5.550 -0.6922  2.9361  0.2218
39509SOL     OW23846   7.380  11.535   2.692 -0.2445 -0.0173 -0.2068
39509SOL    HW123847   7.435  11.457   2.686 -0.3156 -0.0117 -0.9636
39509SOL    HW223848   7.436  11.601   2.734  0.5338  0.1594 -1.4549
39510SOL     OW23849   2.433   6.170   9.514 -0.5582 -0.3219 -0.0358
39510SOL    HW123850   2.518   6.204   9.543 -0.7089 -0.6401  0.7952
39510SOL    HW223851   2.439   6.172   9.418  0.6743 -1.0340  0.0004
39511SOL     OW23852  11.028   9.159   4.179 -0.2231  0.0741 -0.2145
39511SOL    HW123853  11.071   9.074   4.187  0.2072  0.1373 -1.6287
39511SOL    HW223854  11.022   9.174   4.085 -0.5259  1.4992  0.0145
39512SOL     OW23855   9.070   1.912   3.465 -0.7040 -0.0146 -0.5953
39512SOL    HW123856   9.024   1.963   3.533  0.0481  0.3366 -0.3324
39512SOL    HW223857   9.001   1.876   3.411 -1.3168 -0.1403  0.2541
39513SOL     OW23858   2.423   9.146   8.096  0.2684  0.2047 -0.1755
39513SOL    HW123859   2.452   9.083   8.162  0.6452 -0.2427 -0.7566
39513SOL    HW223860   2.418   9.230   8.143 -1.8072 -0.5063  1.0137
39514SOL     OW23861   7.587   9.118   7.982 -0.5382  0.0465  0.1027
39514SOL    HW123862   7.535   9.111   8.062 -1.5264  0.5982 -0.4688
39514SOL    HW223863   7.678   9.124   8.012 -0.8267 -0.5556  1.1351
39515SOL     OW23864   6.834   7.676   1.831 -0.1375 -0.1862 -0.1281
39515SOL    HW123865   6.769   7.739   1.862  0.1584 -0.2613  0.6612
39515SOL    HW223866   6.822   7.676   1.736  0.1360  1.3697 -0.2006
39516SOL     OW23867   3.776   3.676   3.411 -0.1459 -0.3205 -0.0116
39516SOL    HW123868   3.843   3.734   3.375 -0.5370  1.1654  1.5150
39516SOL    HW223869   3.823   3.596   3.435  0.8125  0.1688 -0.2106
39517SOL     OW23870   8.275   6.759   5.589 -0.1579 -0.4267  0.2294
39517SOL    HW123871   8.332   6.802   5.525 -1.4867  0.3971 -0.4604
39517SOL    HW223872   8.198   6.732   5.537 -2.1256  1.8735  1.6951
39518SOL     OW23873   8.650   4.470   3.446  0.6411  0.1524  0.1265
39518SOL    HW123874   8.712   4.401   3.423  0.2408 -0.2776  0.3281
39518SOL    HW223875   8.648   4.469   3.542 -0.9181 -0.9738  0.1237
39519SOL     OW23876  11.688   7.417   3.874  0.1306 -0.4047  0.2266
39519SOL    HW123877  11.646   7.343   3.831 -0.8655 -1.2939  2.5500
39519SOL    HW223878  11.732   7.379   3.950  0.8731  1.2057  0.6461
39520SOL     OW23879   0.432   9.293   8.202 -0.4758 -0.5394  0.2478
39520SOL    HW123880   0.371   9.271   8.273  2.3951 -0.9697  2.7478
39520SOL    HW223881   0.472   9.209   8.179  0.3869 -0.0274 -0.1418
39521SOL     OW23882   7.377   5.481   7.336  0.4793 -0.2363  0.1476
39521SOL    HW123883   7.341   5.451   7.420  1.5255  0.5022  0.9012
39521SOL    HW223884   7.363   5.576   7.337  2.2180  0.0507  0.3929
39522SOL     OW23885   4.473  11.605   5.774  0.1058 -0.4297 -0.1415
39522SOL    HW123886   4.455  11.544   5.703 -0.8764  0.5412 -0.7535
39522SOL    HW223887   4.507  11.683   5.731 -0.5271  0.1811  0.4327
39523SOL     OW23888   6.122   1.968   2.181 -0.4853 -0.2394  0.1547
39523SOL    HW123889   6.120   1.926   2.267  0.8605 -1.6408 -0.4439
39523SOL    HW223890   6.179   1.911   2.129 -0.9865  0.7800 -1.5585
39524SOL     OW23891  10.681   5.395   0.753  0.4728 -0.2160  0.0379
39524SOL    HW123892  10.704   5.374   0.843  0.1815  1.8362  0.6198
39524SOL    HW223893  10.746   5.460   0.726 -0.5400  0.5572 -0.6034
39525SOL     OW23894   6.568   4.657   6.619  0.0250  0.2250 -0.3471
39525SOL    HW123895   6.641   4.708   6.585  0.1099 -0.3418 -1.0500
39525SOL    HW223896   6.606   4.570   6.636 -0.3582  0.0839 -0.2039
39526SOL     OW23897   3.660   4.365  10.177 -0.0688 -0.4815  0.2134
39526SOL    HW123898   3.575   4.374  10.135 -0.2792  0.3364  0.7827
39526SOL    HW223899   3.712   4.438  10.142 -0.3316  0.3724  1.5121
39527SOL     OW23900   8.603   0.858   6.935  0.2117 -0.3227  0.2944
39527SOL    HW123901   8.696   0.876   6.953  0.1603 -1.0899  1.4342
39527SOL    HW223902   8.556   0.902   7.006 -0.1906 -1.1631  0.5602
39528SOL     OW23903  10.159   6.335   0.456  0.2785 -0.0524  0.2482
39528SOL    HW123904  10.176   6.244   0.479 -0.1258 -0.3661 -0.6518
39528SOL    HW223905  10.228   6.358   0.394  2.6410  1.4455  3.1592
39529SOL     OW23906   9.067  11.682   4.974  0.3750 -0.2527 -0.4400
39529SOL    HW123907   9.049  11.620   4.902  2.1967  0.2011 -1.3534
39529SOL    HW223908   9.074  11.627   5.052 -0.8075 -0.8534 -0.7331
39530SOL     OW23909   8.838   7.024   6.591  0.5712  0.3754 -0.7504
39530SOL    HW123910   8.771   7.003   6.526 -0.0002 -1.5745  0.3752
39530SOL    HW223911   8.915   7.046   6.540  0.0012 -0.6232 -2.0955
39531SOL     OW23912   7.937   3.270   5.023  0.0317 -0.1296  0.2128
39531SOL    HW123913   7.877   3.300   5.091  0.6098  1.9595 -0.1356
39531SOL    HW223914   7.946   3.176   5.039 -2.8666 -0.4240  0.6058
39532SOL     OW23915   9.237   8.707   2.274  0.4100 -0.7031  0.6974
39532SOL    HW123916   9.241   8.735   2.182 -1.2214 -0.4924  0.6568
39532SOL    HW223917   9.279   8.778   2.323  1.3967 -0.8720  0.1222
39533SOL     OW23918   1.705   8.727   5.893 -0.4007 -0.0279 -0.3918
39533SOL    HW123919   1.743   8.765   5.813 -0.6739  1.1110 -0.0057
39533SOL    HW223920   1.759   8.762   5.964 -1.5801  0.9122  0.0953
39534SOL     OW23921   7.391   3.310   7.033  0.3646  0.5143  0.2574
39534SOL    HW123922   7.414   3.236   6.977 -0.3857  0.0337  0.5516
39534SOL    HW223923   7.305   3.338   7.001  0.2682  0.7116  0.6829
39535SOL     OW23924   4.886   1.309   0.117 -0.0541 -0.3897 -0.1218
39535SOL    HW123925   4.966   1.269   0.083 -1.5103 -1.3976 -2.6790
39535SOL    HW223926   4.826   1.235   0.131 -1.3869  0.5134 -0.8273
39536SOL     OW23927   2.125  11.704   5.410 -0.5538  0.5586  0.4757
39536SOL    HW123928   2.029  11.708   5.408 -0.6591 -1.3528 -1.4765
39536SOL    HW223929   2.150  11.671   5.324  1.7897 -0.3682  1.4227
39537SOL     OW23930   5.285   4.266   6.640  0.2228  0.0441  0.1844
39537SOL    HW123931   5.346   4.200   6.609  1.8528  1.5558  0.0308
39537SOL    HW223932   5.279   4.251   6.735  0.3191 -0.5079  0.1060
39538SOL     OW23933   4.468   9.569   8.132  0.0757 -0.2387  0.7086
39538SOL    HW123934   4.386   9.536   8.094  0.5640 -1.0446  0.3381
39538SOL    HW223935   4.453   9.663   8.142  0.1695  0.1879 -2.2053
39539SOL     OW23936   5.611   9.233   5.604  0.8272 -0.0616  0.2121
39539SOL    HW123937   5.588   9.159   5.660 -0.7130  1.2828  1.4517
39539SOL    HW223938   5.663   9.194   5.534  0.5020 -2.2330  1.0845
39540SOL     OW23939   5.098   4.301   1.472 -0.4251  0.2775 -0.4860
39540SOL    HW123940   5.052   4.375   1.433  2.2114  2.2531 -0.1328
39540SOL    HW223941   5.143   4.338   1.549  0.0934 -1.9443  0.3523
39541SOL     OW23942  10.228   9.523   3.132  0.2807 -0.6909  0.7117
39541SOL    HW123943  10.194   9.605   3.166  1.0349  0.3576 -0.9188
39541SOL    HW223944  10.322   9.525   3.152  0.3739 -0.9536  0.3202
39542SOL     OW23945   5.752   5.261   7.756  0.3790  0.0361 -0.0917
39542SOL    HW123946   5.833   5.220   7.728  0.4881  0.1846  0.0052
39542SOL    HW223947   5.723   5.207   7.830 -0.6947 -1.2665 -1.3999
39543SOL     OW23948  10.961   4.768  10.251 -0.3525 -0.4454 -0.2849
39543SOL    HW123949  10.925   4.791  10.337 -0.9238  0.4286 -0.7351
39543SOL    HW223950  10.886   4.777  10.192  0.3808  0.5002 -1.1059
39544SOL     OW23951   7.927   1.264   0.478  0.6238 -0.1756 -0.0113
39544SOL    HW123952   7.865   1.337   0.480  2.0613  1.1622 -1.2844
39544SOL    HW223953   8.008   1.301   0.514  1.0263 -1.5488  0.5652
39545SOL     OW23954   1.354   7.155  10.147  0.1034 -0.3677 -0.4699
39545SOL    HW123955   1.387   7.113  10.227 -0.0654  0.7587  0.2109
39545SOL    HW223956   1.298   7.089  10.107  0.2254 -0.9720  0.3194
39546SOL     OW23957  11.190   9.160   2.675  0.2814  0.3995 -0.5938
39546SOL    HW123958  11.274   9.178   2.632  0.3738 -0.1875 -0.6632
39546SOL    HW223959  11.167   9.071   2.648 -0.8781  0.9127 -1.4103
39547SOL     OW23960   3.418   3.473   7.713 -0.4350 -0.4210 -0.2060
39547SOL    HW123961   3.442   3.484   7.621  1.7243  1.2877  0.4850
39547SOL    HW223962   3.376   3.387   7.717 -0.1676 -0.7296 -2.6892
39548SOL     OW23963  11.530   0.121   5.424 -0.4131  0.1208  0.2037
39548SOL    HW123964  11.506   0.168   5.504 -2.4852  0.8275 -0.7575
39548SOL    HW223965  11.503   0.180   5.353  1.2459 -0.5436 -1.0488
39549SOL     OW23966   6.603   8.022   6.612 -0.1766 -0.1783 -0.6613
39549SOL    HW123967   6.672   7.961   6.585 -0.0423  0.0474 -0.8292
39549SOL    HW223968   6.528   8.001   6.557  0.3865  0.9076 -1.8943
39550SOL     OW23969   9.392   3.730   9.651 -0.0007  0.2017  0.2282
39550SOL    HW123970   9.299   3.709   9.661 -0.0475  0.9589  1.6475
39550SOL    HW223971   9.408   3.722   9.557 -1.0763 -1.6168  0.1463
39551SOL     OW23972   2.711   4.728   5.325  0.6447 -0.3138  0.6521
39551SOL    HW123973   2.792   4.680   5.343  2.8190  2.3536 -1.1661
39551SOL    HW223974   2.728   4.775   5.244 -3.6121 -1.2524 -1.0358
39552SOL     OW23975  10.366   0.822   9.213 -0.6387  0.5376  0.2926
39552SOL    HW123976  10.439   0.876   9.242 -0.3663 -0.4576  1.5261
39552SOL    HW223977  10.397   0.779   9.133 -0.1698  0.7427  0.3650
39553SOL     OW23978   9.433   4.539  11.130 -0.2026 -0.6525 -0.3102
39553SOL    HW123979   9.523   4.514  11.110 -1.0818 -2.4926 -2.4475
39553SOL    HW223980   9.416   4.501  11.216  0.6763 -1.3555 -0.4286
39554SOL     OW23981   0.307   3.066   6.128 -0.0845  0.2245 -0.1273
39554SOL    HW123982   0.354   3.000   6.180 -0.2494 -0.2587 -0.5834
39554SOL    HW223983   0.372   3.135   6.114 -0.0096  0.3182  0.6345
39555SOL     OW23984   8.096   9.579   1.272  0.0132 -0.3152 -0.2114
39555SOL    HW123985   8.136   9.655   1.314 -0.0860 -0.9073  0.9784
39555SOL    HW223986   8.046   9.536   1.341 -0.9432 -0.7837 -1.1716
39556SOL     OW23987   1.569   1.120   7.817 -0.2409 -0.6253 -0.0471
39556SOL    HW123988   1.549   1.058   7.747 -0.7951 -2.0633  1.3321
39556SOL    HW223989   1.638   1.077   7.869 -0.6685 -0.1303  0.9636
39557SOL     OW23990   2.785   9.142   2.180  0.6935  0.4497  0.5575
39557SOL    HW123991   2.864   9.114   2.132  0.9143  0.6792  0.7864
39557SOL    HW223992   2.812   9.221   2.226 -0.1774  1.5633 -0.7898
39558SOL     OW23993   7.020   5.115   8.453 -0.0626 -0.0069  0.2659
39558SOL    HW123994   7.070   5.067   8.387  0.5888 -1.2111  1.5859
39558SOL    HW223995   6.949   5.056   8.477 -0.8744  0.8207 -0.0368
39559SOL     OW23996   8.210   8.521   3.960 -0.2162 -0.1092  0.2811
39559SOL    HW123997   8.294   8.507   4.003  0.3598 -0.6537 -0.9828
39559SOL    HW223998   8.223   8.599   3.906  0.1588 -1.3490 -1.4985
39560SOL     OW23999  10.745   9.699   2.511 -0.3679  0.0946 -0.5637
39560SOL    HW124000  10.733   9.619   2.563 -0.4612 -0.9605 -2.1497
39560SOL    HW224001  10.754   9.668   2.421 -0.1244  1.8677 -1.1841
39561SOL     OW24002   9.005   8.751   2.001 -0.0838  0.5739  0.0982
39561SOL    HW124003   9.047   8.833   2.024 -0.5110  1.1635 -1.1217
39561SOL    HW224004   8.923   8.750   2.052 -0.7324  1.5695 -0.8872
39562SOL     OW24005   1.441   8.327   6.966 -0.5524  0.4342  0.7116
39562SOL    HW124006   1.360   8.300   6.923 -0.1021 -0.3915  0.3666
39562SOL    HW224007   1.511   8.305   6.904  0.0416 -0.0443  1.5195
39563SOL     OW24008   8.268   5.358   9.103 -0.2482 -0.0197 -0.0950
39563SOL    HW124009   8.350   5.348   9.151  0.5198 -0.0506 -1.3789
39563SOL    HW224010   8.251   5.452   9.103 -0.4292 -0.0473  0.4974
39564SOL     OW24011   9.652   4.218   8.569  0.3144 -0.0377  0.1416
39564SOL    HW124012   9.703   4.282   8.519  0.5675 -0.1663  0.2329
39564SOL    HW224013   9.569   4.262   8.587  0.9659  0.7608  1.3258
39565SOL     OW24014   5.580   8.976   2.976  0.2296 -0.1977 -0.1279
39565SOL    HW124015   5.495   8.968   3.021  0.3788 -1.7650 -0.0727
39565SOL    HW224016   5.627   9.043   3.026 -0.1682 -0.8592  1.1974
39566SOL     OW24017   0.630   2.634   1.246  0.3556  0.2020 -0.0073
39566SOL    HW124018   0.725   2.620   1.254  0.3628  0.3334  0.1295
39566SOL    HW224019   0.597   2.622   1.334  0.4568  1.8052  0.2813
39567SOL     OW24020   6.627   1.307   8.893 -0.0150  0.2181  0.4570
39567SOL    HW124021   6.581   1.225   8.878  0.6167 -0.3099  1.2925
39567SOL    HW224022   6.558   1.369   8.917 -0.6346  0.2470 -1.2643
39568SOL     OW24023   4.677   0.258  11.092 -0.1835  0.1649 -0.2065
39568SOL    HW124024   4.734   0.242  11.166 -0.7377 -0.5651  0.0829
39568SOL    HW224025   4.732   0.241  11.015  0.2895  0.5653  0.0406
39569SOL     OW24026  10.279   1.318   1.249  0.3507 -0.4653 -0.0138
39569SOL    HW124027  10.194   1.313   1.294  0.6436  0.4163  0.6739
39569SOL    HW224028  10.259   1.296   1.158 -1.0640  1.9296 -0.3699
39570SOL     OW24029  10.550  10.422   0.127  0.0704 -0.0205  0.5777
39570SOL    HW124030  10.472  10.459   0.169  0.1780 -0.6977  1.4139
39570SOL    HW224031  10.561  10.473   0.047 -1.2045  0.1166  0.4672
39571SOL     OW24032   8.756   9.406   7.219  0.6546  0.0683  0.0675
39571SOL    HW124033   8.761   9.370   7.308 -1.4584 -1.3724 -0.3451
39571SOL    HW224034   8.782   9.497   7.229 -0.8161  0.3070  2.4303
39572SOL     OW24035   7.964   0.290   3.254 -0.0704  0.0527 -0.4138
39572SOL    HW124036   7.992   0.360   3.312  1.1446 -0.1987 -0.6756
39572SOL    HW224037   7.899   0.331   3.196  2.0454  1.5301 -1.8851
39573SOL     OW24038   1.293   0.266   7.009 -0.3996 -0.7360  0.2227
39573SOL    HW124039   1.241   0.270   6.928  1.3024  2.0195 -0.8923
39573SOL    HW224040   1.368   0.210   6.986  1.0920  1.5495 -0.9123
39574SOL     OW24041   6.739   3.834   4.283 -0.4175  0.3975  0.0477
39574SOL    HW124042   6.725   3.873   4.370 -1.2760 -0.1495  0.1668
39574SOL    HW224043   6.834   3.838   4.270 -0.2563  0.3014  1.1062
39575SOL     OW24044   3.908   9.296   9.146  0.6861  0.2058  0.0565
39575SOL    HW124045   3.840   9.298   9.213  0.4124 -0.2875 -0.1968
39575SOL    HW224046   3.944   9.207   9.151  0.3388  0.0165 -0.7673
39576SOL     OW24047   2.153   6.641   7.519  0.0067  0.1756 -0.0445
39576SOL    HW124048   2.142   6.689   7.601  1.6418 -1.4178  1.1814
39576SOL    HW224049   2.127   6.551   7.541 -0.4905 -0.0828 -1.5756
39577SOL     OW24050   3.723   5.999   2.015 -0.0846 -0.2996  0.0786
39577SOL    HW124051   3.640   5.954   1.997 -0.4860 -0.0727  1.2849
39577SOL    HW224052   3.725   6.069   1.950  0.8275 -2.3196 -2.2012
39578SOL     OW24053   4.839   2.878   5.867 -0.2717 -0.4804 -0.0073
39578SOL    HW124054   4.844   2.799   5.812 -0.1442 -1.8732  1.9262
39578SOL    HW224055   4.746   2.891   5.880 -0.2689 -0.8906  0.4508
39579SOL     OW24056   9.978   0.400   6.116 -0.2911 -0.6751 -0.9830
39579SOL    HW124057  10.063   0.425   6.151 -0.9218  0.8004 -0.4069
39579SOL    HW224058   9.945   0.333   6.177 -1.1599  1.5041  1.1038
39580SOL     OW24059   8.176   5.900   5.764  0.3892 -0.2693 -0.2882
39580SOL    HW124060   8.268   5.904   5.740  0.5572 -0.0184  0.3748
39580SOL    HW224061   8.154   5.806   5.762  0.4480 -0.2687 -1.1941
39581SOL     OW24062   3.247   1.920   7.595  0.0816 -0.2777 -0.5043
39581SOL    HW124063   3.184   1.923   7.523  1.0329 -2.6277 -1.5181
39581SOL    HW224064   3.246   1.830   7.626  1.2442  0.1819  1.0369
39582SOL     OW24065  11.265   5.937   5.691 -0.2270 -0.2174 -0.1448
39582SOL    HW124066  11.224   5.962   5.608  2.3203 -1.6099 -1.9442
39582SOL    HW224067  11.304   6.018   5.724 -0.7689  0.2295 -0.5920
39583SOL     OW24068   2.559   1.368   7.551  0.9589  0.0850  0.5716
39583SOL    HW124069   2.483   1.360   7.492  1.3021 -0.5077  0.2031
39583SOL    HW224070   2.635   1.362   7.493  1.3041  1.8999  0.7809
39584SOL     OW24071   2.840   3.107  11.391 -0.2398 -1.0869 -0.0675
39584SOL    HW124072   2.773   3.086  11.326 -0.9699 -0.8754  0.6009
39584SOL    HW224073   2.798   3.171  11.449  1.7770  2.2289 -1.9146
39585SOL     OW24074   3.753   9.638   7.973  0.4455  0.2663  0.5014
39585SOL    HW124075   3.745   9.549   7.937  0.7584  0.7923 -0.9232
39585SOL    HW224076   3.843   9.643   8.005 -0.0598 -0.4631  2.1582
39586SOL     OW24077   2.088   6.838   1.096 -0.3731 -0.2307 -0.5028
39586SOL    HW124078   2.032   6.915   1.106 -0.5335 -0.4120 -0.0152
39586SOL    HW224079   2.041   6.783   1.033  0.4807  0.7503 -2.0847
39587SOL     OW24080   8.457   3.649   5.318  0.2585  0.3552 -0.1525
39587SOL    HW124081   8.389   3.619   5.378  0.1613 -0.3861 -0.6231
39587SOL    HW224082   8.436   3.607   5.235 -0.3499  2.3959 -1.0774
39588SOL     OW24083   5.250   1.237  11.113 -0.1382  0.1018  0.4375
39588SOL    HW124084   5.253   1.284  11.197  0.0587  0.6351  0.1421
39588SOL    HW224085   5.283   1.301  11.049  1.5714 -0.9200  0.2367
39589SOL     OW24086   2.189  10.728   3.731  0.0143  0.3877  0.1131
39589SOL    HW124087   2.122  10.668   3.697 -0.5228  0.9407  0.1794
39589SOL    HW224088   2.236  10.758   3.653  0.9179 -0.8318  0.1500
39590SOL     OW24089   4.128   4.289   4.818  0.4861 -0.2042  0.3851
39590SOL    HW124090   4.174   4.354   4.871 -0.8345 -0.0871  1.4528
39590SOL    HW224091   4.149   4.312   4.728  1.9937  0.2062  0.8063
39591SOL     OW24092   9.477  10.471   2.244  0.1507  0.3762 -0.1212
39591SOL    HW124093   9.552  10.501   2.193 -0.2413  2.3008  0.3456
39591SOL    HW224094   9.425  10.419   2.183 -0.2879  2.5722 -1.7344
39592SOL     OW24095   6.623   7.004   9.523  0.2134 -0.4823  0.0500
39592SOL    HW124096   6.713   7.013   9.555  0.0072  0.0426  0.5005
39592SOL    HW224097   6.622   7.052   9.440  0.2563 -0.1546  0.2357
39593SOL     OW24098   2.040  11.695   0.627 -0.0902  0.7016 -0.1670
39593SOL    HW124099   1.974  11.742   0.678 -0.8187  2.7827 -2.8222
39593SOL    HW224100   1.994  11.667   0.548  1.8662  1.0174 -1.4818
39594SOL     OW24101   0.931   8.947   8.357 -0.3315  0.0192 -0.0452
39594SOL    HW124102   0.907   9.039   8.365  1.3054  0.4019  0.7759
39594SOL    HW224103   1.012   8.947   8.305 -0.5787 -1.0030 -0.4584
39595SOL     OW24104  10.018   4.983   4.199 -0.1508 -0.0952 -0.6316
39595SOL    HW124105   9.997   5.050   4.135 -0.0835  1.3344  0.7884
39595SOL    HW224106  10.097   5.015   4.242  1.0216 -2.0272 -1.1942
39596SOL     OW24107   6.249   8.962   9.592 -1.2388 -0.3015 -0.0386
39596SOL    HW124108   6.264   8.909   9.670 -3.0349  0.3658  0.8297
39596SOL    HW224109   6.286   8.911   9.520  0.4398 -0.9461  1.2241
39597SOL     OW24110   1.615   4.164   5.819 -0.4922 -0.0124  0.5411
39597SOL    HW124111   1.522   4.186   5.827 -0.4161  0.4363  0.2304
39597SOL    HW224112   1.658   4.248   5.799  0.0494 -0.1226  1.2162
39598SOL     OW24113   2.877   5.665   2.587 -0.0045 -1.0412 -0.2178
39598SOL    HW124114   2.922   5.586   2.619  0.4244 -0.8969 -0.4516
39598SOL    HW224115   2.946   5.715   2.544 -0.2502 -0.4780  0.0395
39599SOL     OW24116   2.047   4.394  11.488 -0.4277 -0.2973 -0.5349
39599SOL    HW124117   2.118   4.348  11.532  0.3448  0.0119 -1.4232
39599SOL    HW224118   2.075   4.486  11.485 -0.7531 -0.2100 -1.0894
39600SOL     OW24119   4.381  11.274   6.609  0.5572 -0.2500  0.1619
39600SOL    HW124120   4.432  11.341   6.654 -0.8131 -0.8547  2.8265
39600SOL    HW224121   4.290  11.300   6.624 -0.0031 -0.8502 -1.8258
39601SOL     OW24122   6.814   3.826   6.230  0.8347 -0.1701  0.3311
39601SOL    HW124123   6.837   3.800   6.141 -0.3791  2.3598 -0.8391
39601SOL    HW224124   6.766   3.751   6.265  1.0027 -1.0821 -1.2832
39602SOL     OW24125  10.786   1.203   0.242 -0.2427 -0.5746  0.2187
39602SOL    HW124126  10.815   1.164   0.160 -0.1190 -0.7623  0.3532
39602SOL    HW224127  10.850   1.176   0.307 -0.6309 -0.8702  0.4854
39603SOL     OW24128   2.225   5.975   3.219  0.3552 -0.0503  0.3092
39603SOL    HW124129   2.246   5.883   3.236  0.0511 -0.1974 -0.0901
39603SOL    HW224130   2.305   6.022   3.242  0.6120 -0.4451  0.2461
39604SOL     OW24131   1.158  10.511   3.243 -0.2287  0.1252  0.1886
39604SOL    HW124132   1.133  10.437   3.298 -0.9314  0.8405  0.8751
39604SOL    HW224133   1.079  10.531   3.193 -0.0293  0.3799 -0.0236
39605SOL     OW24134   9.093   6.205   2.422  0.0270 -0.2435  0.0007
39605SOL    HW124135   9.029   6.154   2.373  1.1499  0.1539 -2.0384
39605SOL    HW224136   9.076   6.186   2.514 -1.2302 -2.2345 -0.6018
39606SOL     OW24137   8.131   3.496   4.973  0.4409 -0.4002 -0.0010
39606SOL    HW124138   8.065   3.559   5.004  0.2758 -0.6005  0.0577
39606SOL    HW224139   8.085   3.412   4.972  0.0535 -0.2136 -2.0138
39607SOL     OW24140   8.056   3.955   3.802  0.2075 -0.1861 -0.1066
39607SOL    HW124141   8.095   3.886   3.749 -0.1342 -0.6199  0.1969
39607SOL    HW224142   8.023   4.018   3.739 -2.1484 -1.7272 -0.5592
39608SOL     OW24143   1.131   1.099   9.619  0.0184  0.3671 -0.0042
39608SOL    HW124144   1.095   1.011   9.618  0.2079  0.1344  3.3197
39608SOL    HW224145   1.068   1.151   9.570 -0.9014 -1.3176 -0.6835
39609SOL     OW24146   7.805   1.785   5.703 -0.4499 -0.3440  0.0633
39609SOL    HW124147   7.728   1.782   5.760  0.1525  1.0242  0.9954
39609SOL    HW224148   7.777   1.841   5.630 -0.4549 -0.1178  0.2363
39610SOL     OW24149   9.758   3.927   8.876 -0.2088 -0.1703 -0.0890
39610SOL    HW124150   9.847   3.912   8.844 -0.7996 -3.6633 -0.4868
39610SOL    HW224151   9.733   4.012   8.838  2.9022  0.9596  0.1141
39611SOL     OW24152   8.238   7.129   4.441  0.3226 -0.4104  0.1497
39611SOL    HW124153   8.146   7.106   4.454  0.6169 -0.9570  1.3465
39611SOL    HW224154   8.269   7.156   4.527  0.8813  1.3251 -0.5397
39612SOL     OW24155  10.240   2.153   6.547 -0.3432  0.2538 -0.4044
39612SOL    HW124156  10.227   2.211   6.471  0.0329 -0.4540 -1.0243
39612SOL    HW224157  10.190   2.194   6.617 -1.5703  0.3627 -1.3164
39613SOL     OW24158   3.909   2.151   4.382 -0.1781  0.3460 -0.3041
39613SOL    HW124159   3.926   2.106   4.465  1.0203  0.7145 -0.3309
39613SOL    HW224160   3.816   2.175   4.387 -0.2058  0.0894  0.7915
39614SOL     OW24161   1.636   9.948   1.247  0.3965 -0.3677 -0.6220
39614SOL    HW124162   1.616   9.908   1.163  2.4345 -0.5191 -1.0929
39614SOL    HW224163   1.694  10.021   1.226  1.8177 -1.0520  0.6899
39615SOL     OW24164   2.231   5.577  11.753  0.0845  0.2034 -0.2695
39615SOL    HW124165   2.164   5.510  11.757 -1.2058  1.3258 -1.6063
39615SOL    HW224166   2.313   5.532  11.773 -0.9963 -1.2862  0.9769
39616SOL     OW24167   9.171   4.195   6.010 -0.2535 -0.0081 -0.0129
39616SOL    HW124168   9.210   4.118   5.969 -0.2202  0.3989 -0.7588
39616SOL    HW224169   9.149   4.166   6.099 -0.9521 -1.1086 -0.5220
39617SOL     OW24170   5.402   0.497   2.940  0.4908 -0.1995 -0.8759
39617SOL    HW124171   5.460   0.469   3.011  0.6614  2.8610  0.3535
39617SOL    HW224172   5.315   0.497   2.979  0.6541  2.0367 -0.3989
39618SOL     OW24173   6.006   2.727   7.959 -0.1638 -0.0621 -0.2609
39618SOL    HW124174   5.929   2.758   7.912 -0.5195  1.7370  1.3750
39618SOL    HW224175   6.072   2.796   7.945  0.2626 -0.3060  0.4813
39619SOL     OW24176   0.675   5.353  10.549  0.2302  0.2774  0.1301
39619SOL    HW124177   0.721   5.271  10.527  0.8797  0.5912  0.2942
39619SOL    HW224178   0.589   5.343  10.509  0.6530 -0.0615 -0.7352
39620SOL     OW24179   3.524   9.969   2.181 -0.4516  0.2156 -0.4948
39620SOL    HW124180   3.562   9.941   2.098 -0.9248 -0.7538 -0.3941
39620SOL    HW224181   3.452   9.908   2.196  0.0198 -0.0086  0.9376
39621SOL     OW24182  10.399   4.330   4.539 -0.0283  0.3754  0.7111
39621SOL    HW124183  10.477   4.346   4.485 -2.1294  2.8140 -1.8886
39621SOL    HW224184  10.375   4.239   4.521  0.7908  0.3747 -0.4378
39622SOL     OW24185   1.913   8.203   4.922  0.3825  0.7167 -0.0459
39622SOL    HW124186   1.929   8.284   4.873  0.3748  0.9782  0.3802
39622SOL    HW224187   2.001   8.171   4.944  0.5342 -0.9608 -2.7172
39623SOL     OW24188   2.345   9.567   6.868 -0.3019 -0.2773 -0.2161
39623SOL    HW124189   2.353   9.644   6.812 -0.3019 -0.1552 -0.0479
39623SOL    HW224190   2.390   9.591   6.949 -1.4515  0.0445  0.3465
39624SOL     OW24191  10.950   6.573  10.104 -0.0200  0.4758  0.0145
39624SOL    HW124192  10.984   6.661  10.118 -1.1284  0.7342  1.3985
39624SOL    HW224193  10.858   6.586  10.080  0.0711 -0.2751 -0.7805
39625SOL     OW24194   8.349   3.655   9.812  0.4117 -0.1062  0.2444
39625SOL    HW124195   8.323   3.745   9.792  0.9981  0.0298  0.0859
39625SOL    HW224196   8.444   3.659   9.824  0.7598 -1.0752 -1.7957
39626SOL     OW24197   5.295   2.683   2.566 -0.0482  0.0904 -0.1440
39626SOL    HW124198   5.212   2.662   2.523  0.7300  0.9617 -2.2288
39626SOL    HW224199   5.362   2.645   2.508  1.0357 -0.6410  1.5084
39627SOL     OW24200   4.445   6.458   5.929 -0.1979 -0.3360 -0.2860
39627SOL    HW124201   4.459   6.549   5.955 -2.8993  0.0283  0.1640
39627SOL    HW224202   4.460   6.457   5.834  0.7226  0.3493 -0.1574
39628SOL     OW24203   4.077   6.835   7.257 -0.0791 -0.3014  0.4844
39628SOL    HW124204   3.999   6.871   7.299  0.0339 -0.9871  1.3000
39628SOL    HW224205   4.128   6.797   7.328  1.8263  1.5509  0.2058
39629SOL     OW24206   2.429  11.584   1.467 -0.3336 -0.0599 -0.3701
39629SOL    HW124207   2.398  11.520   1.532  0.0706  1.0694  0.9865
39629SOL    HW224208   2.457  11.531   1.393 -1.2950 -1.3680  0.1572
39630SOL     OW24209   4.813   6.468   5.276  0.3641  0.1610  0.1849
39630SOL    HW124210   4.862   6.390   5.250  0.5666  0.5500 -0.6123
39630SOL    HW224211   4.816   6.525   5.200  0.8882  1.2880  1.0215
39631SOL     OW24212   2.852   1.281   8.560  0.4009  0.0708 -0.2555
39631SOL    HW124213   2.779   1.230   8.526 -0.5175  1.1638  0.0080
39631SOL    HW224214   2.911   1.293   8.485  0.1710 -0.5679 -0.5402
39632SOL     OW24215  11.467  10.702   9.925  0.3233 -0.2303  0.4381
39632SOL    HW124216  11.485  10.612   9.950  2.5724  0.4324  1.3989
39632SOL    HW224217  11.493  10.707   9.832  0.3884 -0.5174  0.4398
39633SOL     OW24218  11.421   6.041   9.332  0.4056 -0.3314  0.1816
39633SOL    HW124219  11.366   6.042   9.254 -0.8154  3.1935  0.9162
39633SOL    HW224220  11.510   6.044   9.298 -0.0833  0.4810 -1.1062
39634SOL     OW24221   3.861   8.383   2.676 -0.0903  0.0435 -0.0899
39634SOL    HW124222   3.875   8.306   2.621 -1.3150  0.4519 -1.0025
39634SOL    HW224223   3.917   8.451   2.638  0.4225 -0.1789  0.2626
39635SOL     OW24224   9.432   9.725   7.034 -0.3937 -0.1179 -0.0733
39635SOL    HW124225   9.462   9.722   7.125  1.2513 -0.1915 -0.5872
39635SOL    HW224226   9.473   9.803   6.998 -0.6520 -0.3475 -0.8782
39636SOL     OW24227   2.104   5.602   0.746  0.0541  0.1588  0.2936
39636SOL    HW124228   2.117   5.582   0.653  2.1689  2.4856 -0.0144
39636SOL    HW224229   2.163   5.676   0.763  0.5147 -0.8332  3.7498
39637SOL     OW24230   1.060  11.383   3.818 -0.0201 -0.0596  0.1811
39637SOL    HW124231   1.084  11.291   3.804  0.0538 -0.1943  1.1184
39637SOL    HW224232   1.047  11.418   3.730  1.6665 -0.5123 -0.2832
39638SOL     OW24233   9.232   6.502   4.995  0.4634 -0.2064 -0.0803
39638SOL    HW124234   9.208   6.568   5.059 -0.7358 -2.8183  2.3571
39638SOL    HW224235   9.328   6.498   5.000  0.5642  1.3861 -0.3815
39639SOL     OW24236   0.917   4.511   7.007  0.0661  0.1631 -0.2374
39639SOL    HW124237   0.999   4.462   7.018  0.0660  0.4581  1.2129
39639SOL    HW224238   0.849   4.444   7.005  0.1538  0.0360  0.7602
39640SOL     OW24239   7.103   4.852   9.497  0.2065  0.8290 -0.4673
39640SOL    HW124240   7.146   4.782   9.546 -1.2308  1.4571  1.9128
39640SOL    HW224241   7.162   4.927   9.505  0.8722  0.4078 -1.3837
39641SOL     OW24242   4.345  10.671   5.133  0.5080  0.3273 -0.7595
39641SOL    HW124243   4.332  10.590   5.184  1.5540  0.2546 -0.5979
39641SOL    HW224244   4.373  10.641   5.047  0.9075  0.5184 -0.6964
39642SOL     OW24245   4.170  11.442   5.350  0.7372 -0.0235  0.1700
39642SOL    HW124246   4.266  11.448   5.350  0.7600 -0.1521  1.3989
39642SOL    HW224247   4.151  11.372   5.413 -0.1946  0.8793  0.9144
39643SOL     OW24248   0.316   2.992   0.732 -0.1250  0.2919 -0.7928
39643SOL    HW124249   0.252   2.988   0.804  0.3542  0.1657 -0.3697
39643SOL    HW224250   0.291   3.071   0.683 -0.7251  0.1373 -0.7478
39644SOL     OW24251   4.703   3.384  11.363  0.2242  0.0526 -0.1961
39644SOL    HW124252   4.765   3.433  11.309  0.4423  0.2843  0.2557
39644SOL    HW224253   4.752   3.307  11.391  0.6706  0.7473  1.0122
39645SOL     OW24254   4.338  11.679   6.225 -0.2981  0.4568 -0.2794
39645SOL    HW124255   4.363  11.767   6.197 -0.9641  0.9331  0.5589
39645SOL    HW224256   4.282  11.694   6.301 -0.4221 -0.6979 -0.1336
39646SOL     OW24257   5.607   9.997   6.662 -0.3208  0.0699 -0.0730
39646SOL    HW124258   5.676  10.057   6.689 -1.1227  1.8273 -1.6654
39646SOL    HW224259   5.526  10.038   6.693 -0.7298 -1.7235  1.3743
39647SOL     OW24260   3.192   1.618   9.002  0.2386  0.6427 -0.3026
39647SOL    HW124261   3.230   1.585   9.083 -0.4464  1.8506  0.5437
39647SOL    HW224262   3.242   1.575   8.932 -0.3432 -1.8437  0.7123
39648SOL     OW24263   9.058   8.274   4.331 -0.8752 -0.1084 -0.1334
39648SOL    HW124264   8.971   8.281   4.371 -0.7107  0.8981  0.0703
39648SOL    HW224265   9.115   8.243   4.401 -0.4736  2.1879  0.6257
39649SOL     OW24266   1.293   4.092   1.542 -0.5570  0.1730 -0.3660
39649SOL    HW124267   1.376   4.130   1.571  0.4902 -2.2575  0.0473
39649SOL    HW224268   1.253   4.161   1.489  2.1121  1.1207 -1.3126
39650SOL     OW24269   5.219  10.833   8.855 -0.1394 -0.1620  0.3085
39650SOL    HW124270   5.204  10.745   8.819  2.9517 -0.3276 -0.8599
39650SOL    HW224271   5.280  10.819   8.928  1.2899  1.0542 -0.6049
39651SOL     OW24272   4.949  11.358   6.751  0.1027  0.0460  0.3274
39651SOL    HW124273   4.887  11.420   6.713 -0.5076 -0.2878  0.7606
39651SOL    HW224274   4.894  11.293   6.794  0.7084 -1.1083 -0.5821
39652SOL     OW24275   3.552   3.046   2.332  0.0094 -0.2942  0.5282
39652SOL    HW124276   3.601   3.048   2.251 -1.3337 -0.6470 -0.3257
39652SOL    HW224277   3.593   2.977   2.384  0.3477 -0.6451 -0.1968
39653SOL     OW24278   9.733  10.950   6.385  0.0350  0.3401 -0.3269
39653SOL    HW124279   9.714  11.043   6.376 -0.6581  0.3491  1.0313
39653SOL    HW224280   9.716  10.914   6.298 -0.0247  1.4198 -0.7788
39654SOL     OW24281   7.265   1.904   8.663  0.4065 -0.0932  0.8209
39654SOL    HW124282   7.311   1.849   8.600  1.4383  0.7438  0.8310
39654SOL    HW224283   7.313   1.986   8.664  0.6295 -0.2043  2.9693
39655SOL     OW24284   5.145   7.519  10.812  0.6527  0.0329  0.1667
39655SOL    HW124285   5.187   7.555  10.890  1.1743  0.9547 -0.5280
39655SOL    HW224286   5.052   7.518  10.834  0.8208 -0.0354  0.9255
39656SOL     OW24287  10.812   0.523   6.184 -0.5975  0.1240 -0.1718
39656SOL    HW124288  10.827   0.494   6.094 -1.4415 -0.7142 -0.0635
39656SOL    HW224289  10.809   0.442   6.235  2.7788  0.6437  1.1464
39657SOL     OW24290   0.335   5.959  11.348 -0.7549  0.3896 -0.2260
39657SOL    HW124291   0.322   6.018  11.275 -2.3419 -0.9678 -1.0969
39657SOL    HW224292   0.356   5.874  11.308  1.0985  0.2092  0.9762
39658SOL     OW24293   3.814  11.480   3.059  0.2366  0.0356 -0.0980
39658SOL    HW124294   3.829  11.523   2.975  3.9157 -0.7564 -0.0107
39658SOL    HW224295   3.788  11.551   3.118 -1.4097  0.7543 -1.5925
39659SOL     OW24296   0.631   4.186   0.946 -0.3559  0.1781 -0.1285
39659SOL    HW124297   0.616   4.248   0.875  0.6660 -0.3249 -0.8022
39659SOL    HW224298   0.702   4.130   0.915 -0.6267 -0.7446  0.8471
39660SOL     OW24299   5.701   1.395   0.066 -0.2807  0.0781  0.6106
39660SOL    HW124300   5.794   1.383   0.085  0.0795  0.2337 -0.9570
39660SOL    HW224301   5.699   1.428  -0.023 -1.7697  1.6659  1.1808
39661SOL     OW24302   4.401   3.026   4.829 -0.3466 -0.5280 -0.5638
39661SOL    HW124303   4.466   3.036   4.899 -2.0261  0.0497  1.0179
39661SOL    HW224304   4.347   3.105   4.836 -0.5170 -0.4105 -2.6283
39662SOL     OW24305   9.800   0.990   7.659 -0.0843 -0.0042  0.0864
39662SOL    HW124306   9.829   0.970   7.748  1.5093 -0.7637 -0.5644
39662SOL    HW224307   9.846   0.926   7.604 -1.4512  0.1051 -1.2410
39663SOL     OW24308   9.669   7.008   5.394 -0.1833  0.1847 -0.2181
39663SOL    HW124309   9.657   6.928   5.445  0.8247  0.2342  0.1082
39663SOL    HW224310   9.659   6.980   5.303  1.2902 -0.5454 -0.1771
39664SOL     OW24311   0.447   9.089   5.058 -0.0805 -0.3557  0.5115
39664SOL    HW124312   0.523   9.078   5.000 -1.1022 -1.4777 -0.6793
39664SOL    HW224313   0.437   9.184   5.068 -0.2620 -0.0899 -1.7253
39665SOL     OW24314   2.975  11.436   2.895 -0.6037  0.1526 -0.0468
39665SOL    HW124315   2.996  11.494   2.822 -0.6263  1.6143  1.0320
39665SOL    HW224316   2.936  11.495   2.961  1.9832 -0.4808  2.2683
39666SOL     OW24317   7.542   8.332   8.612  0.0293 -0.3573 -0.0930
39666SOL    HW124318   7.449   8.320   8.590  0.2018  0.6665 -1.5250
39666SOL    HW224319   7.577   8.382   8.539  1.5952 -0.2276  0.7168
39667SOL     OW24320   3.320   3.683   8.994  0.1136 -0.0748 -0.7339
39667SOL    HW124321   3.369   3.601   9.004 -0.1978 -0.3546 -1.4212
39667SOL    HW224322   3.381   3.741   8.947  0.1982 -0.0357 -0.5767
39668SOL     OW24323   9.288   8.567   8.712  0.0945 -0.0823  0.4736
39668SOL    HW124324   9.288   8.508   8.637  0.8541 -0.2145  0.5686
39668SOL    HW224325   9.224   8.530   8.772  0.4441 -0.7257  0.4616
39669SOL     OW24326   5.199   6.849   0.692  0.3220  0.5101 -0.4475
39669SOL    HW124327   5.246   6.913   0.746 -0.2214  1.2650 -0.8589
39669SOL    HW224328   5.262   6.824   0.624  0.8706 -0.1446  0.2862
39670SOL     OW24329   1.558   0.786  11.714 -0.7936 -0.0133  0.4418
39670SOL    HW124330   1.474   0.825  11.693  0.0671  0.5284 -2.3019
39670SOL    HW224331   1.617   0.860  11.725 -0.8210 -0.3043  3.7233
39671SOL     OW24332   7.509   8.111   0.725 -0.0120 -0.3852 -0.1162
39671SOL    HW124333   7.460   8.191   0.740 -0.2055 -0.4383 -0.4521
39671SOL    HW224334   7.544   8.121   0.636  3.9608  1.4715  1.4071
39672SOL     OW24335   4.272  11.456   1.659 -0.8010 -0.2960 -0.1886
39672SOL    HW124336   4.317  11.499   1.586 -2.4426  1.4034 -0.2753
39672SOL    HW224337   4.207  11.399   1.618 -1.6357  0.5623 -0.0976
39673SOL     OW24338   6.390  10.461  10.739  0.3626  0.6247 -0.0051
39673SOL    HW124339   6.334  10.514  10.797 -0.9280 -0.8302  0.1389
39673SOL    HW224340   6.447  10.414  10.799 -1.2491 -1.1947  0.1970
39674SOL     OW24341  11.600  10.191   1.161  0.2875  0.2293  0.5760
39674SOL    HW124342  11.678  10.217   1.112  1.6965 -2.1045  1.3739
39674SOL    HW224343  11.534  10.174   1.094  1.0534  0.5014 -0.2684
39675SOL     OW24344  10.733   5.502   4.545 -0.4420  0.6100  0.5128
39675SOL    HW124345  10.702   5.516   4.635 -2.6172  1.8004 -0.3674
39675SOL    HW224346  10.673   5.551   4.490 -0.6665 -2.0310 -1.8479
39676SOL     OW24347   6.164   4.718   7.685  0.5928  0.5409 -0.2560
39676SOL    HW124348   6.130   4.792   7.736  0.5532 -0.2022  0.8205
39676SOL    HW224349   6.091   4.657   7.680  0.1747  1.1354 -2.3399
39677SOL     OW24350   5.702   2.464   2.514 -0.2096 -0.4616 -0.2586
39677SOL    HW124351   5.665   2.382   2.546  0.2891  0.0417  1.7856
39677SOL    HW224352   5.636   2.498   2.453 -1.4712 -1.2858  0.5955
39678SOL     OW24353   4.300   0.741   5.026  0.3671 -0.0028  0.1851
39678SOL    HW124354   4.366   0.689   5.070 -0.2065 -1.9338 -1.1111
39678SOL    HW224355   4.287   0.697   4.942 -3.0212 -0.1275  0.6435
39679SOL     OW24356  11.547   8.787   3.194 -0.0378  0.0135  0.4655
39679SOL    HW124357  11.544   8.826   3.282  1.3660  0.7298  0.2136
39679SOL    HW224358  11.621   8.727   3.196  2.1985  2.4991 -1.1537
39680SOL     OW24359   1.617   5.858   9.829  0.0261  0.5172  0.2152
39680SOL    HW124360   1.603   5.838   9.736  0.3703  1.1806  0.0209
39680SOL    HW224361   1.609   5.953   9.835  2.8317  0.8320  0.3407
39681SOL     OW24362   6.470   3.961   6.379 -0.1488  0.5126 -0.0290
39681SOL    HW124363   6.534   4.007   6.325  0.0784  0.4034  0.1460
39681SOL    HW224364   6.397   3.944   6.320 -0.8834  2.3980  0.2375
39682SOL     OW24365   7.687   3.646  11.680 -0.2450 -0.1006  0.2482
39682SOL    HW124366   7.710   3.738  11.693 -0.6033 -0.1335  1.1427
39682SOL    HW224367   7.768   3.598  11.698  0.4674  0.1266 -2.0076
39683SOL     OW24368   7.897   0.045   1.722  0.1780  0.5454  0.1761
39683SOL    HW124369   7.803   0.054   1.709  0.4797  1.9832 -1.3659
39683SOL    HW224370   7.906  -0.030   1.781 -1.8093 -1.9190 -2.3649
39684SOL     OW24371  10.573   2.602   2.708 -0.4171  0.5649 -0.2684
39684SOL    HW124372  10.570   2.588   2.613 -1.5138  0.1253 -0.1815
39684SOL    HW224373  10.482   2.603   2.735 -0.1014 -1.2519  1.0643
39685SOL     OW24374  11.102  11.266  10.463 -0.2869 -0.2932 -0.1920
39685SOL    HW124375  11.124  11.174  10.479  1.8693  0.2112 -0.0069
39685SOL    HW224376  11.120  11.279  10.370 -1.1454 -0.1859 -0.3501
39686SOL     OW24377   4.468   5.302  11.469 -0.1468 -0.0219 -0.2380
39686SOL    HW124378   4.486   5.378  11.414  1.1706  0.3008  0.5957
39686SOL    HW224379   4.491   5.331  11.557 -0.8415 -0.9906  0.2744
39687SOL     OW24380   2.491  10.324   5.114 -0.1632  0.0738 -0.6356
39687SOL    HW124381   2.532  10.390   5.058 -1.3365  0.1623 -1.4229
39687SOL    HW224382   2.463  10.372   5.192  2.6571 -0.2815  0.7358
39688SOL     OW24383   7.267  10.131   6.726  0.4168 -0.4241  0.0299
39688SOL    HW124384   7.284  10.213   6.772 -1.7089 -0.7474  1.5579
39688SOL    HW224385   7.258  10.066   6.795 -0.7646 -1.3704 -0.9688
39689SOL     OW24386   3.188   8.105  10.552  0.1130 -0.3479  0.0562
39689SOL    HW124387   3.161   8.042  10.486 -1.2783 -0.4432  0.6844
39689SOL    HW224388   3.115   8.108  10.614 -0.0002  2.0835 -0.0974
39690SOL     OW24389   1.811   1.654  11.142 -0.0136  0.2895  0.5566
39690SOL    HW124390   1.761   1.677  11.063 -0.5576  1.9171  1.3264
39690SOL    HW224391   1.786   1.563  11.161  0.9700 -0.5392 -1.7238
39691SOL     OW24392   1.224  11.447   9.804 -0.0447  0.3611 -0.4762
39691SOL    HW124393   1.222  11.352   9.798  1.6461  0.2866 -0.4470
39691SOL    HW224394   1.203  11.467   9.895 -2.8856  0.1962 -1.0173
39692SOL     OW24395   1.502   8.493   3.421 -0.3899  0.3668  0.1351
39692SOL    HW124396   1.579   8.518   3.371 -0.3458  0.7265  0.3745
39692SOL    HW224397   1.432   8.547   3.385 -0.3487  0.6606  0.4866
39693SOL     OW24398   0.455   5.874   2.176 -0.4504  0.1643 -0.2514
39693SOL    HW124399   0.419   5.960   2.197 -1.1938  0.0217 -0.8933
39693SOL    HW224400   0.458   5.827   2.260  1.7228  1.4312  0.4469
39694SOL     OW24401   7.186   8.244   2.143  0.0542  0.2515 -0.0008
39694SOL    HW124402   7.094   8.266   2.139 -0.0298 -0.1329 -0.2677
39694SOL    HW224403   7.231   8.316   2.097  0.0694  1.3970  1.7295
39695SOL     OW24404   7.040   8.208   6.786  0.5212 -0.4573 -0.0708
39695SOL    HW124405   7.099   8.275   6.751  1.7589 -0.5729  1.7272
39695SOL    HW224406   7.025   8.149   6.712  2.3966 -0.2556 -0.6565
39696SOL     OW24407   3.799   2.643   0.685  0.3536  0.0719  0.3362
39696SOL    HW124408   3.736   2.575   0.661 -0.3526  0.7680  0.1552
39696SOL    HW224409   3.850   2.604   0.756  0.9553 -1.1849 -0.7413
39697SOL     OW24410  10.199   9.128   3.243 -0.1460  0.9984 -0.1490
39697SOL    HW124411  10.112   9.169   3.248 -0.8077 -0.4384  0.8108
39697SOL    HW224412  10.249   9.170   3.313  1.0273  4.0607 -2.5912
39698SOL     OW24413   1.723   8.437   9.143 -0.3998  0.1170  0.7632
39698SOL    HW124414   1.758   8.510   9.194  0.5540  1.0789 -1.1768
39698SOL    HW224415   1.711   8.473   9.055  0.9427 -2.2879 -0.4931
39699SOL     OW24416   6.572   9.350   2.042  0.2174 -0.1081 -0.5769
39699SOL    HW124417   6.654   9.346   1.992 -0.1026 -2.1526 -1.0079
39699SOL    HW224418   6.591   9.301   2.122 -0.3082  0.2629 -0.2188
39700SOL     OW24419   5.684   4.712   9.448  0.7321 -0.8256  0.0979
39700SOL    HW124420   5.679   4.770   9.524 -0.0593 -1.2008  0.3425
39700SOL    HW224421   5.777   4.693   9.439  0.7392 -1.8788  1.8285
39701SOL     OW24422   1.314   2.025   2.823 -0.3667  0.7131 -0.2112
39701SOL    HW124423   1.346   2.040   2.911  3.2236 -0.2715 -1.1637
39701SOL    HW224424   1.255   2.098   2.805 -0.3290  1.5217  2.5714
39702SOL     OW24425   8.575  10.637   3.996  0.0949 -0.0754  0.1232
39702SOL    HW124426   8.601  10.720   3.955 -0.5561 -0.3206 -0.8056
39702SOL    HW224427   8.657  10.602   4.032  0.9119 -0.3583 -1.8689
39703SOL     OW24428   1.301   6.817   9.635  0.3462 -0.8881 -0.4090
39703SOL    HW124429   1.390   6.844   9.656  0.2209 -0.1608 -0.7956
39703SOL    HW224430   1.310   6.726   9.606  0.8939 -0.9796  0.0296
39704SOL     OW24431  11.380  10.595   7.199 -0.4809  0.4792  0.6506
39704SOL    HW124432  11.361  10.676   7.248 -0.8663  0.2892  0.8212
39704SOL    HW224433  11.312  10.534   7.227 -1.9353  0.9552 -1.5337
39705SOL     OW24434   3.785   6.058   3.783 -0.2233 -0.7183  0.0627
39705SOL    HW124435   3.816   6.118   3.715 -0.6057  0.7902  1.1781
39705SOL    HW224436   3.826   5.974   3.761  0.4554 -0.0320 -1.4490
39706SOL     OW24437   0.263  10.898   3.135 -0.2805  0.1638  0.1207
39706SOL    HW124438   0.242  10.808   3.108 -1.1302  0.8010 -1.4682
39706SOL    HW224439   0.358  10.900   3.140 -0.2418 -0.7736  0.0281
39707SOL     OW24440   0.019   9.222   3.070 -0.0616  0.6974  0.4336
39707SOL    HW124441  -0.007   9.314   3.072 -0.9322  0.4645  0.3111
39707SOL    HW224442   0.074   9.215   2.992  0.4257  1.2138  0.7209
39708SOL     OW24443  10.427   0.498   5.292  0.3887  0.2835  0.1894
39708SOL    HW124444  10.376   0.473   5.369 -0.4738  0.2173 -0.3849
39708SOL    HW224445  10.495   0.432   5.285 -1.0768 -1.2151 -0.5683
39709SOL     OW24446   1.922   4.532   6.333  0.3827 -0.0591  0.5697
39709SOL    HW124447   1.839   4.568   6.300  0.8110  0.5893  0.1661
39709SOL    HW224448   1.986   4.554   6.265  0.5305 -2.3960 -0.1425
39710SOL     OW24449   5.246   6.459   7.321  0.1308 -0.2725 -0.5498
39710SOL    HW124450   5.230   6.379   7.372  1.2757 -0.4501 -0.4435
39710SOL    HW224451   5.200   6.445   7.239 -0.5411 -0.5940 -0.1279
39711SOL     OW24452   0.857   3.678   8.387  0.0886 -0.0022  0.4055
39711SOL    HW124453   0.888   3.615   8.322  0.3484  0.4923  0.0357
39711SOL    HW224454   0.877   3.638   8.471 -0.8420 -0.9381  0.1881
39712SOL     OW24455   6.005   5.868   4.650 -0.0697 -0.1647 -0.2954
39712SOL    HW124456   6.041   5.780   4.641  0.5714  0.1863 -1.3693
39712SOL    HW224457   5.913   5.854   4.673  0.3086 -1.0870  0.7593
39713SOL     OW24458   7.930   5.897   3.717  0.4789  0.1940 -0.1101
39713SOL    HW124459   7.996   5.939   3.663 -0.8005  0.3191 -1.6301
39713SOL    HW224460   7.907   5.817   3.669  0.5125 -0.5720  1.1020
39714SOL     OW24461   7.456   7.396   2.070  0.0410  0.1840  0.1270
39714SOL    HW124462   7.507   7.316   2.085  1.7186  1.3815  1.1458
39714SOL    HW224463   7.415   7.382   1.985 -0.5745 -2.1877  0.7368
39715SOL     OW24464  11.675  10.379   3.899  0.4108 -0.7667  0.1367
39715SOL    HW124465  11.715  10.295   3.918  1.8493 -0.4264 -1.1890
39715SOL    HW224466  11.734  10.444   3.937  1.3091 -0.2576 -1.9407
39716SOL     OW24467   9.923   5.422  11.098 -0.1423  0.3419  0.0123
39716SOL    HW124468   9.939   5.407  11.192  0.7379  2.8012  0.3229
39716SOL    HW224469   9.973   5.353  11.054  0.7635  0.1209  1.3238
39717SOL     OW24470   1.556  11.344   8.247  0.5707 -0.6534 -0.0034
39717SOL    HW124471   1.545  11.423   8.194 -0.2992 -0.1517  0.8908
39717SOL    HW224472   1.638  11.358   8.294 -1.5298  1.8029  3.4234
39718SOL     OW24473  10.976  10.505  10.274 -0.6560 -0.0320  0.7629
39718SOL    HW124474  10.921  10.509  10.196  0.1992 -0.7509  0.1045
39718SOL    HW224475  10.914  10.492  10.346 -1.3611 -0.7926  0.0475
39719SOL     OW24476   6.515   3.446   8.766  0.3494  0.2011  0.0743
39719SOL    HW124477   6.602   3.410   8.749  0.3865  0.6035 -0.6250
39719SOL    HW224478   6.476   3.385   8.829  1.9082  1.1804  2.0857
39720SOL     OW24479   2.648   3.363   5.703 -0.4229  0.6767 -0.0953
39720SOL    HW124480   2.707   3.416   5.650 -0.0468 -0.5379 -0.9422
39720SOL    HW224481   2.604   3.306   5.640 -1.0824  0.2470  0.7412
39721SOL     OW24482   5.222   2.741  10.221 -0.6090 -0.1044 -0.1428
39721SOL    HW124483   5.181   2.764  10.304 -0.9953 -0.0975 -0.3351
39721SOL    HW224484   5.316   2.750  10.238 -0.6184 -1.2626  0.6516
39722SOL     OW24485   3.207   2.701   8.049 -0.2847  0.3324 -0.4563
39722SOL    HW124486   3.120   2.677   8.015  0.1615 -1.1418 -0.5986
39722SOL    HW224487   3.222   2.641   8.122  0.2046  1.2507  0.2239
39723SOL     OW24488   4.836  11.447   5.011 -0.0099  0.0410 -0.1524
39723SOL    HW124489   4.870  11.357   5.004 -0.0064 -0.0554  0.9529
39723SOL    HW224490   4.889  11.497   4.949  0.1864 -0.6583 -0.5682
39724SOL     OW24491  10.501   7.314   8.941  0.7749  0.7554 -0.4512
39724SOL    HW124492  10.474   7.235   8.895 -1.2622 -0.4373  2.4897
39724SOL    HW224493  10.449   7.384   8.901 -0.3045 -0.0814 -0.5462
39725SOL     OW24494   1.174   2.043   0.422  0.7707  0.0791  0.5162
39725SOL    HW124495   1.116   1.974   0.454  0.4164  0.2214  0.1845
39725SOL    HW224496   1.259   2.000   0.415  0.3036 -0.6739 -0.8376
39726SOL     OW24497   6.599   9.673   7.451 -0.1845  0.7082 -0.1132
39726SOL    HW124498   6.565   9.625   7.526 -1.6834 -0.4280 -1.4490
39726SOL    HW224499   6.654   9.610   7.405 -1.9918  0.2356 -1.7635
39727SOL     OW24500   7.564   8.217   0.021  0.2210  0.1366  0.4219
39727SOL    HW124501   7.648   8.247   0.057 -0.6881 -0.4825  3.3528
39727SOL    HW224502   7.588   8.165  -0.056  2.4295  0.8840  0.5357
39728SOL     OW24503   2.019   0.034   2.640 -0.1339 -0.6887 -0.2313
39728SOL    HW124504   2.021   0.036   2.544  0.1665  0.0093 -0.2161
39728SOL    HW224505   1.991   0.122   2.665  0.3849 -0.6786  0.3304
39729SOL     OW24506   8.228   4.193   6.722  0.2242  0.8269  0.4800
39729SOL    HW124507   8.149   4.187   6.775 -0.1434 -1.2458 -0.2038
39729SOL    HW224508   8.248   4.286   6.718 -2.3873  1.4502  0.3801
39730SOL     OW24509   9.966   0.293   3.069  0.3073 -0.4543 -0.2096
39730SOL    HW124510   9.875   0.321   3.073  0.4293 -0.0734 -0.0748
39730SOL    HW224511   9.982   0.275   2.977  0.6190  1.2481 -0.5133
39731SOL     OW24512   8.374   0.418   6.382  0.3353  0.4956  0.2421
39731SOL    HW124513   8.319   0.354   6.336  0.4584 -0.0692  0.8718
39731SOL    HW224514   8.344   0.415   6.473  1.8073 -0.2714  0.7300
39732SOL     OW24515   3.184   4.992   9.381  0.6107  0.2595  0.0256
39732SOL    HW124516   3.211   4.946   9.302  1.4911  0.4290  0.2216
39732SOL    HW224517   3.212   5.082   9.368  0.7806  0.2842  0.5396
39733SOL     OW24518   9.917  10.332   9.279 -0.4741 -0.3239 -0.1757
39733SOL    HW124519   9.932  10.312   9.372  1.2001  0.5843 -0.2041
39733SOL    HW224520   9.865  10.412   9.281  0.2079  0.1320  0.0209
39734SOL     OW24521  10.937   8.333  10.331  0.6838  0.0623 -0.0459
39734SOL    HW124522  10.879   8.384  10.387  0.5167 -1.5938  1.3332
39734SOL    HW224523  10.894   8.249  10.320  1.2642 -0.0645 -1.7482
39735SOL     OW24524   2.289   3.775   6.967 -0.0226 -0.9703 -0.7361
39735SOL    HW124525   2.373   3.751   7.006  0.7844  2.1149 -0.3376
39735SOL    HW224526   2.223   3.740   7.027  1.1147  0.0523  1.2073
39736SOL     OW24527   8.697   3.717   8.737  0.8263 -0.3017 -0.2523
39736SOL    HW124528   8.613   3.670   8.736  1.3613 -1.4334  1.7865
39736SOL    HW224529   8.758   3.659   8.691  0.6165  0.2778 -1.2718
39737SOL     OW24530   8.755   2.096  11.523 -0.7404  0.4220  0.6656
39737SOL    HW124531   8.757   2.000  11.518  1.5582  0.4485 -0.5121
39737SOL    HW224532   8.683   2.116  11.583  0.6025 -2.1594  3.4001
39738SOL     OW24533   9.282   4.059   3.968  0.0338 -0.0290  0.2233
39738SOL    HW124534   9.374   4.034   3.955  0.2674  0.6259  0.5962
39738SOL    HW224535   9.283   4.154   3.972 -0.6045 -0.0360  0.6756
39739SOL     OW24536   1.790  10.056   7.535  0.0825 -0.4437  0.4360
39739SOL    HW124537   1.807  10.149   7.515  2.4667 -0.0141  3.7273
39739SOL    HW224538   1.856  10.009   7.485 -0.3494 -0.2953 -0.2927
39740SOL     OW24539   1.715   1.401   2.804 -0.1848 -0.5854 -0.9093
39740SOL    HW124540   1.701   1.479   2.858 -0.2500  0.4517 -2.3511
39740SOL    HW224541   1.705   1.328   2.864 -0.5457  0.5036  0.4095
39741SOL     OW24542   2.698   9.728   2.498 -0.2559 -0.7781 -0.0178
39741SOL    HW124543   2.688   9.685   2.583  1.4799  0.5130  0.8930
39741SOL    HW224544   2.791   9.749   2.492 -0.5334  0.1251 -1.7748
39742SOL     OW24545  11.708   4.219   2.502 -0.3425 -0.5516  0.0553
39742SOL    HW124546  11.769   4.178   2.441  1.4422  0.2181  1.2331
39742SOL    HW224547  11.653   4.146   2.533  0.3889 -1.3893 -0.5631
39743SOL     OW24548   5.408   2.758   2.845 -0.3359 -0.0170  0.1974
39743SOL    HW124549   5.442   2.845   2.824  0.3386 -0.3455 -0.1254
39743SOL    HW224550   5.360   2.732   2.766  0.3296 -0.3467 -0.1098
39744SOL     OW24551   3.028   4.733   3.184  0.1073 -0.0235 -0.4590
39744SOL    HW124552   2.953   4.682   3.154 -0.5208  0.1536  0.7491
39744SOL    HW224553   3.045   4.700   3.272 -0.1497  1.6475  0.2448
39745SOL     OW24554   1.357   6.435   2.197  0.0500  0.4313 -0.2127
39745SOL    HW124555   1.428   6.468   2.142  0.6028  0.7712  0.6916
39745SOL    HW224556   1.300   6.511   2.210 -0.5150  0.1500 -0.9682
39746SOL     OW24557  11.496  10.065   2.647  0.3689  0.8592  0.4219
39746SOL    HW124558  11.591  10.073   2.660  0.4353 -1.2138  1.6045
39746SOL    HW224559  11.465  10.018   2.724 -1.6939  1.7240  0.1697
39747SOL     OW24560   9.077   7.803   9.961  0.1020  0.5219  0.3760
39747SOL    HW124561   9.071   7.753  10.041 -0.1467 -0.9503 -0.5282
39747SOL    HW224562   9.170   7.827   9.953  0.6143 -1.4940 -0.1473
39748SOL     OW24563   8.401   8.507   6.586 -0.1299 -0.2129 -0.9953
39748SOL    HW124564   8.374   8.567   6.655  1.2967  0.4984 -1.0289
39748SOL    HW224565   8.483   8.544   6.552  1.3429 -2.6512 -0.3538
39749SOL     OW24566   2.964   7.660  11.441  0.4626 -0.3919  0.5560
39749SOL    HW124567   2.903   7.722  11.480 -0.6489 -0.8074 -0.4328
39749SOL    HW224568   2.907   7.594  11.400  1.5565 -0.4203 -1.0056
39750SOL     OW24569   3.148   9.443   5.473 -0.4355 -0.2736  0.0639
39750SOL    HW124570   3.099   9.373   5.431 -2.5673  0.6801  0.7850
39750SOL    HW224571   3.109   9.449   5.561 -0.2565  1.7139  0.0492
39751SOL     OW24572   4.434   1.168   6.762  0.4972 -0.7987 -0.3275
39751SOL    HW124573   4.416   1.237   6.827  2.0776 -0.0049 -0.6928
39751SOL    HW224574   4.353   1.161   6.712 -0.1090 -0.0840  0.5155
39752SOL     OW24575   8.337   8.432   9.971 -0.3376 -0.4337 -0.1073
39752SOL    HW124576   8.412   8.428   9.913 -0.3230 -2.1594 -0.0166
39752SOL    HW224577   8.352   8.510  10.025 -0.0610  0.8648 -1.9687
39753SOL     OW24578  10.449   9.507   8.560  0.1125  0.2253 -0.0709
39753SOL    HW124579  10.403   9.566   8.620 -1.4528  0.2791 -1.2768
39753SOL    HW224580  10.430   9.419   8.593 -0.1368  0.2774 -0.0778
39754SOL     OW24581   5.583   5.030  11.046  0.0336 -0.3823  0.6321
39754SOL    HW124582   5.628   5.000  10.967  1.4787 -0.1886  1.3398
39754SOL    HW224583   5.516   4.964  11.062  1.5248 -1.9330  0.7716
39755SOL     OW24584   3.282   5.129   3.573 -0.7183 -0.0342  0.3197
39755SOL    HW124585   3.246   5.070   3.507  1.0641  0.0902 -0.8502
39755SOL    HW224586   3.282   5.215   3.532 -2.6925  0.7292  1.7727
39756SOL     OW24587   0.249   5.060  11.485  0.2385 -0.0969 -0.2648
39756SOL    HW124588   0.229   5.092  11.573  0.4420  0.6923 -0.4944
39756SOL    HW224589   0.180   4.995  11.467  0.1907 -0.2563  0.4645
39757SOL     OW24590   6.516   3.225   2.796 -0.1319 -0.3921 -0.3381
39757SOL    HW124591   6.568   3.298   2.831 -0.1862 -0.0872 -0.8928
39757SOL    HW224592   6.493   3.174   2.873 -0.5038  0.4392  0.1200
39758SOL     OW24593   8.865   0.638  11.796 -0.1599 -0.3088 -0.2455
39758SOL    HW124594   8.809   0.563  11.780 -0.6781 -0.0578  0.3477
39758SOL    HW224595   8.874   0.642  11.891 -1.1415  1.0770 -0.1770
39759SOL     OW24596   2.423   1.280   0.200 -0.3295 -0.0071  0.1215
39759SOL    HW124597   2.444   1.189   0.182  0.3361 -0.0216  0.9062
39759SOL    HW224598   2.457   1.295   0.288 -1.5072  0.6566  0.4812
39760SOL     OW24599   6.371   3.704  11.359 -0.3290  0.0922  0.2620
39760SOL    HW124600   6.336   3.644  11.425  0.9598  0.4669  1.3182
39760SOL    HW224601   6.363   3.791  11.399  0.8857  0.2778  0.1436
39761SOL     OW24602   1.988   6.470   6.666 -0.1174  0.3676 -0.2133
39761SOL    HW124603   1.938   6.423   6.732 -0.2079  0.3312 -0.3088
39761SOL    HW224604   2.063   6.505   6.713  0.3792 -0.5497 -0.3059
39762SOL     OW24605   3.259   8.378   1.211 -0.0062 -0.1240  0.5404
39762SOL    HW124606   3.252   8.455   1.155 -0.0066 -0.8224 -0.4644
39762SOL    HW224607   3.215   8.309   1.162  2.7963 -1.5648 -0.1534
39763SOL     OW24608   1.229   3.378   5.818  0.4210  0.0253  0.2884
39763SOL    HW124609   1.212   3.437   5.745  0.1872 -2.1387 -1.5222
39763SOL    HW224610   1.153   3.388   5.876  0.7171  1.9307  0.4135
39764SOL     OW24611   2.006  10.835   4.741 -0.5974  0.0057 -0.3788
39764SOL    HW124612   2.023  10.796   4.827 -0.2586  0.6956 -0.1246
39764SOL    HW224613   1.955  10.769   4.695 -2.6422  0.4609  1.1041
39765SOL     OW24614   8.609   5.744   2.299  0.2696 -0.1717  0.4195
39765SOL    HW124615   8.633   5.837   2.291 -2.7821  0.7923  1.0896
39765SOL    HW224616   8.647   5.703   2.221  0.4014  1.9924 -0.7459
39766SOL     OW24617   1.443   3.302   6.755 -0.6095  0.3503 -0.7211
39766SOL    HW124618   1.475   3.383   6.796 -0.1831  1.2761 -2.7427
39766SOL    HW224619   1.516   3.273   6.701 -1.0930 -0.9078 -0.7162
39767SOL     OW24620   6.237  11.414  10.195 -0.2938 -0.7787 -0.4746
39767SOL    HW124621   6.321  11.425  10.151  0.4114  0.6779  1.1158
39767SOL    HW224622   6.214  11.323  10.181  2.6959 -1.8610  0.9427
39768SOL     OW24623   1.840   1.340   5.568 -0.4084 -0.1616 -0.0635
39768SOL    HW124624   1.893   1.310   5.494  0.4389 -1.6263  1.0777
39768SOL    HW224625   1.778   1.402   5.529  0.7773  0.0309 -1.7906
39769SOL     OW24626   1.777   1.691   9.245 -0.4007  0.6294 -0.3179
39769SOL    HW124627   1.834   1.616   9.229  1.6035  2.0182 -0.0803
39769SOL    HW224628   1.742   1.713   9.159  1.8230  1.5271 -1.0651
39770SOL     OW24629  11.125  10.546   8.403  0.3251  0.0227  0.1407
39770SOL    HW124630  11.115  10.564   8.496 -0.7869  0.1510  0.0133
39770SOL    HW224631  11.053  10.487   8.382 -0.8708  1.8176 -1.0996
39771SOL     OW24632   9.719  10.060   2.119 -0.0457  0.2754  0.1904
39771SOL    HW124633   9.779  10.107   2.177  0.3400  0.3289 -0.2463
39771SOL    HW224634   9.772   9.993   2.078 -1.0506 -2.0739  2.4463
39772SOL     OW24635   4.303   6.754  10.289  0.4499  0.1901  0.5524
39772SOL    HW124636   4.215   6.789  10.279  0.1222 -0.0572  2.2987
39772SOL    HW224637   4.297   6.692  10.362  1.8230 -0.7132 -0.0571
39773SOL     OW24638   5.070   1.028   7.015  0.1933  0.1240  0.1214
39773SOL    HW124639   5.039   0.938   7.011  3.1273 -1.1312  2.0104
39773SOL    HW224640   5.123   1.038   6.936 -1.3923  0.8092 -0.9026
39774SOL     OW24641   1.631   0.672   7.054  0.2085  0.0592 -0.1182
39774SOL    HW124642   1.547   0.717   7.065  0.0061  0.4245 -2.6207
39774SOL    HW224643   1.669   0.671   7.142 -1.1075  2.4693  0.5706
39775SOL     OW24644   9.071   3.091   1.886  0.0162  0.0577 -0.0476
39775SOL    HW124645   9.137   3.039   1.840 -0.6833 -0.6463 -0.2709
39775SOL    HW224646   9.064   3.050   1.972  0.6140  0.7727  0.3521
39776SOL     OW24647  11.098  11.445   9.625 -0.5605  0.0336 -0.0036
39776SOL    HW124648  11.071  11.358   9.596 -0.5806  0.5367 -1.5914
39776SOL    HW224649  11.127  11.432   9.716  0.3708 -1.8213 -0.4991
39777SOL     OW24650  10.349   6.509   4.338  0.3843  0.6370 -0.4381
39777SOL    HW124651  10.273   6.469   4.296  0.1987  0.2266  0.2655
39777SOL    HW224652  10.408   6.436   4.356 -0.1205  0.5848  1.1936
39778SOL     OW24653   5.900   5.485  10.638  0.2300 -0.3307  0.3879
39778SOL    HW124654   5.984   5.459  10.676  0.5151  0.5789  0.4080
39778SOL    HW224655   5.923   5.528  10.556 -0.2719 -0.7348  0.0250
39779SOL     OW24656   6.887   3.158  10.836  0.0848  0.2059 -0.6583
39779SOL    HW124657   6.943   3.216  10.786  0.5293  0.2689 -0.1018
39779SOL    HW224658   6.893   3.073  10.792  1.7033 -0.1410  0.1562
39780SOL     OW24659   0.792   8.258   1.848 -0.4054  0.1266 -0.0632
39780SOL    HW124660   0.745   8.197   1.904  2.6295 -2.1516  0.2276
39780SOL    HW224661   0.740   8.260   1.767 -0.7605 -2.7210 -0.0126
39781SOL     OW24662   9.394   4.507   9.189  0.0027 -0.0435 -0.8178
39781SOL    HW124663   9.332   4.436   9.203 -0.7346  0.6877 -0.2077
39781SOL    HW224664   9.476   4.475   9.225  0.3419 -1.4975 -2.7084
39782SOL     OW24665   6.991  11.381   1.608  0.0216 -0.5020  0.4447
39782SOL    HW124666   6.983  11.472   1.636 -0.7094 -0.4160 -0.0185
39782SOL    HW224667   6.914  11.338   1.645  0.9821 -1.2106  1.6810
39783SOL     OW24668   1.234   9.477   2.245  0.2320 -0.4137  0.6360
39783SOL    HW124669   1.221   9.571   2.247 -1.7559 -0.5648 -1.3483
39783SOL    HW224670   1.222   9.448   2.336 -2.1040  0.9249  0.8115
39784SOL     OW24671   0.487   0.438   2.498  0.0229  0.0033  0.3872
39784SOL    HW124672   0.548   0.381   2.544  0.4104  0.4793  0.4669
39784SOL    HW224673   0.512   0.431   2.406 -0.3127 -0.4114  0.3207
39785SOL     OW24674   0.400   5.938   9.501 -0.4947 -0.1130  0.0942
39785SOL    HW124675   0.453   6.010   9.468 -1.7249  0.5149 -0.5878
39785SOL    HW224676   0.332   5.979   9.554 -2.1128 -0.5634 -1.4952
39786SOL     OW24677   4.502  11.006  10.302  0.2587  0.1467  0.1818
39786SOL    HW124678   4.440  11.067  10.261  2.1006  2.2658  0.3686
39786SOL    HW224679   4.516  10.938  10.237 -0.9964  0.5053 -0.4993
39787SOL     OW24680   4.310   7.562   4.262 -0.5824 -0.2615 -0.0327
39787SOL    HW124681   4.274   7.528   4.180  2.4136  0.0883 -1.6515
39787SOL    HW224682   4.360   7.489   4.299 -1.2919 -0.1860  1.1209
39788SOL     OW24683   2.729   0.555   7.628 -0.3239  0.2803 -0.5322
39788SOL    HW124684   2.742   0.483   7.566 -0.4358  0.6901 -1.0346
39788SOL    HW224685   2.813   0.563   7.673 -0.2119  0.0435 -0.6980
39789SOL     OW24686   3.491   4.764   8.210 -0.1737 -0.2206 -0.3937
39789SOL    HW124687   3.417   4.721   8.252  0.2098 -0.3039  0.2062
39789SOL    HW224688   3.526   4.823   8.277  0.5559 -0.4920 -0.5219
39790SOL     OW24689  10.343  10.058  11.706  0.6271  0.2256  0.5758
39790SOL    HW124690  10.302  10.107  11.778  0.9819  1.3932  0.0146
39790SOL    HW224691  10.410  10.118  11.672  0.3993 -0.2598 -0.7940
39791SOL     OW24692   7.398   5.749  10.729 -0.3179 -0.0958 -0.0183
39791SOL    HW124693   7.474   5.739  10.787 -0.4245 -0.5776  0.0373
39791SOL    HW224694   7.369   5.839  10.744 -1.6157 -0.8065  2.2572
39792SOL     OW24695   0.550   6.615   4.680 -0.3047  0.2564  0.2833
39792SOL    HW124696   0.528   6.706   4.660 -0.8194  0.7216  2.5915
39792SOL    HW224697   0.645   6.610   4.673 -0.4465  0.1751 -2.6049
39793SOL     OW24698   8.340   1.069   2.350 -0.5023 -0.5418  0.0574
39793SOL    HW124699   8.367   1.058   2.442  0.2773 -0.7040 -0.1806
39793SOL    HW224700   8.259   1.019   2.342 -1.4981  0.8388  1.0728
39794SOL     OW24701   6.061   3.711   5.692 -0.4654  0.2190 -0.4340
39794SOL    HW124702   6.041   3.621   5.715 -0.8247  0.2545 -0.5972
39794SOL    HW224703   6.065   3.757   5.777 -1.1298  0.2174 -0.3939
39795SOL     OW24704   2.349   2.197   5.746  0.0943  0.5569  0.5110
39795SOL    HW124705   2.304   2.113   5.746  1.4830 -0.3077 -1.8909
39795SOL    HW224706   2.351   2.223   5.653  1.6876  2.1045  0.9191
39796SOL     OW24707   6.216  10.789   3.113 -0.1191 -0.3139 -0.0926
39796SOL    HW124708   6.230  10.877   3.078  0.1256  0.1045  1.0199
39796SOL    HW224709   6.296  10.742   3.091 -1.1910 -1.0635 -2.8960
39797SOL     OW24710   9.663   8.358   7.018 -0.4637  0.1393  0.0811
39797SOL    HW124711   9.608   8.281   7.029  0.8503 -0.9941 -0.9072
39797SOL    HW224712   9.696   8.378   7.106 -0.7419 -0.4750  0.3267
39798SOL     OW24713   7.393   9.128   8.578 -0.1058 -0.1599 -0.0633
39798SOL    HW124714   7.412   9.221   8.569  1.9052 -0.6055 -1.1893
39798SOL    HW224715   7.325   9.111   8.513 -0.2403  0.4765 -0.0918
39799SOL     OW24716   8.517   8.482  11.231 -0.2065  0.3205  0.8942
39799SOL    HW124717   8.482   8.403  11.272 -2.2559  0.9969  0.5776
39799SOL    HW224718   8.567   8.450  11.156 -3.4420 -0.7113 -1.0495
39800SOL     OW24719   4.736   0.267   3.345  0.1530  0.5250  0.0485
39800SOL    HW124720   4.800   0.331   3.377  0.6364  0.0473  0.0454
39800SOL    HW224721   4.731   0.200   3.413  2.1588 -1.1793 -1.3440
39801SOL     OW24722   1.970   6.810   2.758 -0.3456  0.4784 -0.4770
39801SOL    HW124723   2.016   6.894   2.759 -0.2038  0.4302 -1.7945
39801SOL    HW224724   1.987   6.772   2.845  2.6140  0.1889 -1.0833
39802SOL     OW24725   7.875   8.426   8.816  0.4454 -0.0808  0.0074
39802SOL    HW124726   7.889   8.513   8.778 -2.3152  0.8285  0.8136
39802SOL    HW224727   7.784   8.428   8.847  0.1459 -3.4206 -0.3191
39803SOL     OW24728   9.694   7.513   2.190 -0.4601  0.4533  0.5590
39803SOL    HW124729   9.644   7.528   2.270 -0.3234  0.0888  0.7167
39803SOL    HW224730   9.738   7.596   2.173 -0.4297  0.5103  0.9054
39804SOL     OW24731   1.110   4.394   6.676 -0.1794  0.2459  0.2019
39804SOL    HW124732   1.044   4.401   6.746 -0.4284  2.0308 -0.1527
39804SOL    HW224733   1.066   4.345   6.607 -1.4150  1.9500 -0.2804
39805SOL     OW24734   5.963   8.046  10.338 -0.3401  0.1249  0.1673
39805SOL    HW124735   5.959   7.962  10.292  0.7458 -0.5714  1.3032
39805SOL    HW224736   5.884   8.092  10.309 -2.2027 -2.1797  1.2587
39806SOL     OW24737   5.617   7.668  10.540 -0.1399 -0.0772 -0.1418
39806SOL    HW124738   5.707   7.667  10.573  0.2867 -1.5893 -1.1962
39806SOL    HW224739   5.590   7.576  10.544 -0.4518 -0.1715 -2.8052
39807SOL     OW24740   2.044   9.539   1.717  0.1474 -1.1523 -0.5956
39807SOL    HW124741   1.992   9.498   1.787 -0.5171 -2.2668 -1.6965
39807SOL    HW224742   2.111   9.474   1.697  1.7621  0.0851  0.4932
39808SOL     OW24743   2.682   5.351   1.899  0.3449  0.6474  0.1883
39808SOL    HW124744   2.645   5.337   1.812  1.1343  0.1247 -0.0691
39808SOL    HW224745   2.700   5.263   1.932 -1.4089  0.7241  1.5497
39809SOL     OW24746   7.399   2.920   3.498  0.0931  0.0235 -0.3082
39809SOL    HW124747   7.474   2.919   3.558  0.3213  1.5125 -0.5420
39809SOL    HW224748   7.419   2.851   3.435  2.2330  1.5792 -1.4699
39810SOL     OW24749   1.900   0.905   3.145 -0.3108  0.2662 -0.6547
39810SOL    HW124750   1.812   0.868   3.138 -0.3234  0.1459  0.0443
39810SOL    HW224751   1.912   0.921   3.239  0.5610 -0.0916 -0.6914
39811SOL     OW24752   6.947   8.857   2.123 -0.3625  0.0837 -0.0587
39811SOL    HW124753   6.930   8.903   2.041 -1.4268  0.2049  0.2231
39811SOL    HW224754   6.871   8.876   2.178  0.5566  0.4284  1.1464
39812SOL     OW24755  10.939   2.240   5.186  0.4793  0.1097  0.0929
39812SOL    HW124756  10.931   2.334   5.170  1.4289 -0.1173 -2.1461
39812SOL    HW224757  10.850   2.206   5.180  0.3063  0.6796 -0.6864
39813SOL     OW24758   4.232   0.181   8.258  0.3105  0.0982  0.1970
39813SOL    HW124759   4.316   0.168   8.213  0.1266  0.3658 -0.2264
39813SOL    HW224760   4.200   0.265   8.225 -2.6825 -2.2542 -3.7812
39814SOL     OW24761   6.196   5.206   9.566  0.5703  0.1948 -0.0331
39814SOL    HW124762   6.283   5.182   9.536  0.2055 -0.4235 -0.6393
39814SOL    HW224763   6.145   5.216   9.485 -1.1805 -4.2887  0.2338
39815SOL     OW24764  11.778   3.522  11.258  0.1794  0.2338 -0.0091
39815SOL    HW124765  11.824   3.532  11.175  0.9441  1.1877  0.5060
39815SOL    HW224766  11.802   3.435  11.289 -1.4250 -0.8085 -1.5473
39816SOL     OW24767   1.827  10.745   8.035 -0.2040 -0.2718  0.7438
39816SOL    HW124768   1.788  10.658   8.041 -1.9293  0.2572 -1.1790
39816SOL    HW224769   1.863  10.749   7.947 -1.0990  1.2662  0.4001
39817SOL     OW24770   7.779   4.408   4.418 -0.4616 -0.3538  0.1049
39817SOL    HW124771   7.851   4.397   4.479 -1.1874 -1.0731  0.8687
39817SOL    HW224772   7.752   4.499   4.428  0.7223  0.1022 -0.6518
39818SOL     OW24773   5.773  11.661   5.788  0.2148  0.3033  0.2102
39818SOL    HW124774   5.732  11.626   5.867 -0.6804  0.0661 -0.3470
39818SOL    HW224775   5.835  11.593   5.761 -0.2546 -0.0931  0.1158
39819SOL     OW24776   0.279   0.053   2.481  0.1851  0.3298 -0.4452
39819SOL    HW124777   0.190   0.025   2.462 -0.7539  0.9620  2.4694
39819SOL    HW224778   0.277   0.148   2.473  0.9338  0.2657 -1.5106
39820SOL     OW24779   2.602  10.759   4.845  0.1546  0.4248 -0.2044
39820SOL    HW124780   2.632  10.789   4.931  1.1142  2.0473 -1.0454
39820SOL    HW224781   2.647  10.676   4.831  0.5643  0.5107  0.5502
39821SOL     OW24782   5.516  10.687   0.851 -0.1013 -0.1036  0.0137
39821SOL    HW124783   5.575  10.679   0.926 -0.3783  2.0924  0.5419
39821SOL    HW224784   5.572  10.711   0.778 -0.1703  0.8887  0.2679
39822SOL     OW24785   4.709   5.436   0.114 -0.2784 -0.3318  0.2208
39822SOL    HW124786   4.736   5.528   0.112 -1.3144 -0.0226 -1.2165
39822SOL    HW224787   4.768   5.395   0.177  0.2397  1.2986  0.8528
39823SOL     OW24788   1.719  11.342  11.456 -0.3117  0.0919  0.0046
39823SOL    HW124789   1.703  11.436  11.470 -0.6626 -0.1035  1.0333
39823SOL    HW224790   1.632  11.302  11.461 -0.4004 -0.1158 -2.2010
39824SOL     OW24791   1.795   8.439   5.462 -0.2234  0.1573 -0.0635
39824SOL    HW124792   1.705   8.426   5.493 -0.3846  1.2896 -0.0179
39824SOL    HW224793   1.798   8.394   5.378 -1.8425  2.8503 -1.7008
39825SOL     OW24794   6.474  10.356   4.804  0.0709  0.0937 -0.4821
39825SOL    HW124795   6.549  10.409   4.777 -0.9862  0.9400 -1.9003
39825SOL    HW224796   6.434  10.405   4.875 -0.9753  1.3230 -1.8698
39826SOL     OW24797  10.230   1.303   4.267  0.1345  0.2070 -0.1186
39826SOL    HW124798  10.282   1.382   4.282 -0.6448  1.1469 -2.0732
39826SOL    HW224799  10.142   1.328   4.296 -0.1017  0.0581 -0.6953
39827SOL     OW24800   1.912   2.174   0.532  0.1645 -0.4859  0.3190
39827SOL    HW124801   1.920   2.249   0.474 -1.1006 -0.3421  0.2970
39827SOL    HW224802   1.981   2.186   0.597 -1.3071  1.8636  1.5867
39828SOL     OW24803   6.799   1.816   8.090  0.0007  0.1810  0.2182
39828SOL    HW124804   6.849   1.875   8.147 -0.4122  0.7203  0.0239
39828SOL    HW224805   6.708   1.826   8.119 -0.3076  0.9415 -0.9487
39829SOL     OW24806   3.753  10.567  11.587 -0.2591  0.2243 -0.1331
39829SOL    HW124807   3.763  10.616  11.668  1.5801  1.5031 -1.0451
39829SOL    HW224808   3.837  10.523  11.576 -1.0291 -1.1922 -0.5884
39830SOL     OW24809   7.468   9.612   6.258 -0.0235  0.2009 -0.3006
39830SOL    HW124810   7.489   9.603   6.351 -3.7275 -0.4561  0.6563
39830SOL    HW224811   7.496   9.530   6.219 -2.8367 -1.7436  1.3849
39831SOL     OW24812   3.373   5.956   5.590 -0.3023 -0.3004 -0.3946
39831SOL    HW124813   3.361   6.050   5.603 -0.6985 -0.3708 -0.2241
39831SOL    HW224814   3.357   5.942   5.497 -1.9133 -0.4311 -0.1308
39832SOL     OW24815   2.212  10.776   2.217  0.5345  0.0301 -0.2037
39832SOL    HW124816   2.152  10.835   2.171  0.3483  0.1231  0.1559
39832SOL    HW224817   2.293  10.780   2.166  0.4870  0.5086 -0.2459
39833SOL     OW24818   0.029   2.160   1.248  0.3710 -0.7039  0.1472
39833SOL    HW124819  -0.039   2.164   1.180  2.3554 -0.9478 -1.9661
39833SOL    HW224820   0.014   2.075   1.290 -0.5715 -0.8007 -0.3398
39834SOL     OW24821  10.304   8.455   9.973  0.0020 -0.4571 -0.1293
39834SOL    HW124822  10.307   8.548   9.948  0.7462 -0.5131 -0.2778
39834SOL    HW224823  10.365   8.449  10.047 -0.1495 -0.8046 -0.0309
39835SOL     OW24824   2.638   6.413   7.684 -0.0932  0.2692 -0.1094
39835SOL    HW124825   2.630   6.505   7.710  1.7811  0.1988  0.9049
39835SOL    HW224826   2.643   6.415   7.589  0.2960  1.2660 -0.0787
39836SOL     OW24827  11.774   0.052  11.652  0.0687 -0.1019  0.4685
39836SOL    HW124828  11.819   0.024  11.572 -0.6763 -2.0916  0.6998
39836SOL    HW224829  11.730   0.134  11.627  0.7603 -0.0892 -0.8137
39837SOL     OW24830   8.751   8.501   2.510 -0.0325 -0.0015 -0.3135
39837SOL    HW124831   8.822   8.520   2.448  0.1548  1.4665  0.3142
39837SOL    HW224832   8.695   8.579   2.507  0.2119  0.3008  1.6672
39838SOL     OW24833   3.921  10.408   3.897  0.7658  0.2881 -0.3427
39838SOL    HW124834   3.861  10.483   3.896 -2.0881 -1.8418 -0.6355
39838SOL    HW224835   3.974  10.420   3.818 -3.3768 -0.6107 -3.6182
39839SOL     OW24836   7.623  10.829   7.475 -0.2055  0.1182 -0.0820
39839SOL    HW124837   7.533  10.840   7.444 -0.7639 -0.9942  1.0851
39839SOL    HW224838   7.676  10.828   7.395 -1.4723 -1.5122 -0.9473
39840SOL     OW24839   2.556   6.331   1.537 -0.0555  0.0030  0.6458
39840SOL    HW124840   2.640   6.341   1.583 -0.5315 -1.0427  1.7905
39840SOL    HW224841   2.549   6.409   1.483  1.4887  0.2885  0.8190
39841SOL     OW24842   5.899   6.614  11.382 -0.1117  0.1204  0.8241
39841SOL    HW124843   5.851   6.538  11.349 -0.5218 -0.1289  1.9275
39841SOL    HW224844   5.846   6.644  11.456  1.9337 -0.8163  2.7722
39842SOL     OW24845   0.983   2.090   0.739 -0.5515 -0.5870 -0.5624
39842SOL    HW124846   0.946   2.030   0.674 -0.0385 -2.3534  0.7028
39842SOL    HW224847   0.917   2.093   0.808  0.0511 -0.8144  0.0248
39843SOL     OW24848   0.901   4.886   0.154 -0.4930  0.3331 -0.4755
39843SOL    HW124849   0.986   4.894   0.197 -0.8438  2.1472 -0.0325
39843SOL    HW224850   0.921   4.892   0.061 -0.2353  2.4176 -0.3273
39844SOL     OW24851   3.152  11.261   7.440  0.1343  0.2035 -0.1050
39844SOL    HW124852   3.241  11.227   7.430  1.0596  1.5245  2.5027
39844SOL    HW224853   3.163  11.356   7.440 -1.0652  0.3897  1.4717
39845SOL     OW24854   1.934   0.192  10.799 -0.0511 -0.0415 -0.0991
39845SOL    HW124855   1.889   0.266  10.759  2.0079  0.3655 -1.8679
39845SOL    HW224856   2.027   0.216  10.798  0.6688 -2.5103 -0.5123
39846SOL     OW24857   7.716   1.044   2.627  0.2291  0.2458 -0.2739
39846SOL    HW124858   7.809   1.026   2.632  0.0013 -0.9865 -0.1391
39846SOL    HW224859   7.685   1.037   2.717 -0.0956  0.1011 -0.3964
39847SOL     OW24860   0.463   1.347   0.744 -0.1237  0.2562  0.3906
39847SOL    HW124861   0.450   1.260   0.782 -0.2681 -0.5870 -1.5191
39847SOL    HW224862   0.558   1.355   0.734 -0.1367  0.1543  0.1891
39848SOL     OW24863   8.284  10.061  11.333 -0.0045 -0.1281  0.2258
39848SOL    HW124864   8.311  10.142  11.290  0.2954 -0.3454 -0.0061
39848SOL    HW224865   8.261  10.002  11.261  0.5832 -0.5228  0.3469
39849SOL     OW24866   8.329   7.791   4.937 -0.1007  0.3407 -0.3005
39849SOL    HW124867   8.247   7.839   4.926 -0.7727 -0.8292 -0.5655
39849SOL    HW224868   8.394   7.843   4.889 -0.7078  1.1993 -0.2143
39850SOL     OW24869  10.635   1.113   1.355 -0.3288  0.5237 -0.1727
39850SOL    HW124870  10.550   1.083   1.321 -0.6233  0.6162  0.4639
39850SOL    HW224871  10.646   1.200   1.317  0.9226 -0.6458 -2.7058
39851SOL     OW24872   4.669   4.770   7.862 -0.4083 -1.1926 -0.2738
39851SOL    HW124873   4.719   4.727   7.793  0.0899 -1.5460  0.2948
39851SOL    HW224874   4.652   4.700   7.926  3.1981 -0.0096  2.2908
39852SOL     OW24875   5.223   6.325   6.360 -0.0686 -0.1252 -0.0452
39852SOL    HW124876   5.226   6.326   6.264 -1.1959  4.7488 -0.2855
39852SOL    HW224877   5.132   6.303   6.381 -0.7050  2.0216 -0.3532
39853SOL     OW24878   0.741  11.269   3.083  0.2077  0.1776 -0.5202
39853SOL    HW124879   0.778  11.253   2.996 -0.8014 -0.6061 -0.8306
39853SOL    HW224880   0.674  11.335   3.068  1.7500  1.9767  0.1228
39854SOL     OW24881   6.649   2.574   6.107 -0.1067  0.0628 -0.2217
39854SOL    HW124882   6.726   2.541   6.060 -0.6771 -0.9098 -0.5016
39854SOL    HW224883   6.680   2.589   6.197  0.6713  0.7236 -0.5866
39855SOL     OW24884   1.434   0.889  10.666  0.2269  0.0291 -0.4630
39855SOL    HW124885   1.469   0.869  10.752 -1.3464 -3.7133 -0.4544
39855SOL    HW224886   1.510   0.889  10.608  1.2002  1.7780  0.7336
39856SOL     OW24887   7.065   7.897   9.650 -0.2580 -0.5402  0.5087
39856SOL    HW124888   7.112   7.849   9.718  2.2206 -2.0967 -2.0551
39856SOL    HW224889   7.046   7.831   9.584 -0.9280  1.1888 -1.1100
39857SOL     OW24890   9.632   1.699   7.061 -0.2965  0.5570  0.3593
39857SOL    HW124891   9.581   1.624   7.032  0.3071 -0.0923  0.9407
39857SOL    HW224892   9.695   1.714   6.991  1.0274 -0.8817  1.1760
39858SOL     OW24893   0.660  11.316   4.767 -0.4742  0.7099 -0.4545
39858SOL    HW124894   0.732  11.281   4.820 -0.9075 -0.1029 -0.3957
39858SOL    HW224895   0.659  11.261   4.689 -3.0930 -1.5104  0.9581
39859SOL     OW24896  11.078  10.915   1.582 -0.1449  0.3210 -0.0156
39859SOL    HW124897  11.054  10.884   1.494  2.8672 -0.9246 -0.5140
39859SOL    HW224898  11.040  10.851   1.641 -0.1265 -0.2234 -0.5794
39860SOL     OW24899   6.052   5.251  10.167 -0.5589 -0.1624 -0.2906
39860SOL    HW124900   6.074   5.328  10.219  0.1974 -2.3870  3.0192
39860SOL    HW224901   5.958   5.238  10.182 -0.3264 -0.8469  0.7154
39861SOL     OW24902   2.242  10.565   2.728  0.4275 -0.0240  0.0267
39861SOL    HW124903   2.315  10.522   2.773  0.5719  0.1019 -0.0847
39861SOL    HW224904   2.228  10.646   2.777  0.9600  0.3921 -0.4779
39862SOL     OW24905  10.617   9.031   4.187  0.2567  0.7708  0.3376
39862SOL    HW124906  10.638   8.939   4.202 -0.3335  0.2255 -1.7532
39862SOL    HW224907  10.692   9.079   4.221  1.8928 -0.6958 -0.9969
39863SOL     OW24908   0.135   7.084   9.529 -1.2029 -0.8903  0.3480
39863SOL    HW124909   0.190   7.006   9.541  3.0763  1.9864  1.7006
39863SOL    HW224910   0.128   7.094   9.434  2.6700 -0.3230 -0.0369
39864SOL     OW24911   3.898  11.540   6.573 -0.8020 -0.2843 -0.7765
39864SOL    HW124912   3.958  11.596   6.523  0.6545 -0.9298  0.1675
39864SOL    HW224913   3.956  11.479   6.619 -2.0803  0.1049  1.4850
39865SOL     OW24914   3.294   0.032   5.837 -0.4777  0.0058 -0.2521
39865SOL    HW124915   3.255   0.008   5.753  1.2455 -1.8231 -0.6081
39865SOL    HW224916   3.319  -0.052   5.876 -0.5487  0.8801  1.7515
39866SOL     OW24917   9.447  10.090   2.163  0.2549 -0.6076  0.3553
39866SOL    HW124918   9.430  10.113   2.072  0.6807  0.0631  0.4386
39866SOL    HW224919   9.542  10.099   2.172  0.2702 -1.1155  0.7456
39867SOL     OW24920  11.129   7.057   9.877 -0.7389 -0.4072  0.5272
39867SOL    HW124921  11.164   7.066   9.966  0.8760 -0.2321 -0.0910
39867SOL    HW224922  11.138   7.144   9.839 -0.9359 -0.6072  0.0207
39868SOL     OW24923   3.690   9.546   0.544 -0.3020  0.3682  0.2523
39868SOL    HW124924   3.614   9.602   0.528 -0.9501 -0.4745  0.3540
39868SOL    HW224925   3.655   9.471   0.592 -0.0735 -1.7301 -2.5899
39869SOL     OW24926   3.219   7.497   7.793 -0.4131  0.1053 -0.2488
39869SOL    HW124927   3.225   7.402   7.779  0.0943  0.2740 -1.3268
39869SOL    HW224928   3.175   7.529   7.714 -0.3327  0.7945 -0.0129
39870SOL     OW24929   1.706   2.512   0.317  0.1820 -0.0511 -0.1355
39870SOL    HW124930   1.645   2.574   0.357  0.5092  0.1027  0.1302
39870SOL    HW224931   1.658   2.477   0.242 -0.3180 -0.0994  0.1984
39871SOL     OW24932   2.078  11.761   7.638  0.0351  0.2826  0.1938
39871SOL    HW124933   2.117  11.829   7.693 -4.1451  2.4913  0.8700
39871SOL    HW224934   2.042  11.698   7.701 -0.7324  0.3422 -0.1738
39872SOL     OW24935  10.262   5.650  10.170  0.1617 -0.1955  0.5478
39872SOL    HW124936  10.292   5.734  10.136 -0.1391 -0.0274  0.6916
39872SOL    HW224937  10.311   5.585  10.121 -0.3055  0.0404 -0.2371
39873SOL     OW24938   0.092   3.589   5.365 -0.0234 -0.6653 -0.5957
39873SOL    HW124939   0.029   3.524   5.396  0.8918 -1.4186 -0.2521
39873SOL    HW224940   0.162   3.588   5.431 -0.3797  1.2937 -0.1248
39874SOL     OW24941  10.488   9.414  10.727  0.2945  0.7975 -0.0155
39874SOL    HW124942  10.457   9.334  10.768  0.1687  1.3701  1.0351
39874SOL    HW224943  10.466   9.484  10.789  1.5903  1.4944 -0.2939
39875SOL     OW24944   3.300   8.386  10.479 -0.1858 -0.5013  0.2101
39875SOL    HW124945   3.261   8.314  10.528  1.2790 -2.3667 -1.2022
39875SOL    HW224946   3.242   8.399  10.403  0.3174 -1.2248 -0.3083
39876SOL     OW24947   1.466   6.358   9.431  0.1574 -0.0360  0.4764
39876SOL    HW124948   1.483   6.347   9.337  3.1675  0.9020  0.8193
39876SOL    HW224949   1.492   6.274   9.470 -0.5983 -0.2419  0.5587
39877SOL     OW24950   8.595   0.632   4.401 -0.7728 -0.3017  0.3533
39877SOL    HW124951   8.599   0.572   4.326 -0.5438 -0.8237  0.7689
39877SOL    HW224952   8.515   0.682   4.388 -2.2708 -2.3156  1.1617
39878SOL     OW24953   3.668   2.369   4.142 -0.3358 -0.1648 -0.1933
39878SOL    HW124954   3.632   2.300   4.086  0.6010 -0.2983 -0.6499
39878SOL    HW224955   3.682   2.326   4.227  0.0385 -0.4840 -0.4139
39879SOL     OW24956   8.063   0.123   8.360 -0.0398  0.1625  0.2150
39879SOL    HW124957   8.130   0.059   8.336 -0.7717 -1.4593  2.1733
39879SOL    HW224958   8.103   0.175   8.429 -0.7769 -0.9862  1.5847
39880SOL     OW24959   6.254   7.228  11.157  0.3834  0.2665 -0.1330
39880SOL    HW124960   6.322   7.295  11.164  1.2140 -0.3263 -2.0356
39880SOL    HW224961   6.174   7.274  11.181  1.0475  1.7380 -0.5816
39881SOL     OW24962  11.338   2.930   7.714 -0.3487  0.1073  0.1202
39881SOL    HW124963  11.266   2.977   7.757 -0.1663  0.2428  0.2810
39881SOL    HW224964  11.340   2.845   7.759  0.9501  0.8686  1.5983
39882SOL     OW24965   0.858   0.459   5.970  0.0568 -0.4258  0.3295
39882SOL    HW124966   0.891   0.440   6.058  0.7284  0.2957  0.2434
39882SOL    HW224967   0.774   0.503   5.986 -1.5328 -3.2912  0.5332
39883SOL     OW24968   2.468   9.442  10.684 -0.3039 -0.0197  0.0895
39883SOL    HW124969   2.480   9.364  10.629 -0.8256 -0.5212  0.6727
39883SOL    HW224970   2.549   9.447  10.735  0.3351  0.6492 -0.9403
39884SOL     OW24971   0.448   0.998   9.459  0.1496 -0.1074 -0.2302
39884SOL    HW124972   0.422   0.909   9.435  1.5576 -0.1162 -1.9746
39884SOL    HW224973   0.513   0.986   9.528  2.0725 -0.6694 -2.0128
39885SOL     OW24974   9.357   4.268   8.332  0.4788 -0.8448  1.2118
39885SOL    HW124975   9.278   4.319   8.347  0.9591 -0.0689  1.1130
39885SOL    HW224976   9.346   4.232   8.244  0.5507 -0.1616  0.9191
39886SOL     OW24977   8.016   1.107   7.167  0.0759 -0.3417  0.3909
39886SOL    HW124978   8.019   1.203   7.166  0.6109 -0.3575  0.0708
39886SOL    HW224979   8.013   1.082   7.075 -2.2772 -0.5967  0.4689
39887SOL     OW24980   9.217   1.575   4.167  0.7062  0.0267 -0.2870
39887SOL    HW124981   9.225   1.658   4.120 -0.8640 -0.2819 -1.1662
39887SOL    HW224982   9.202   1.600   4.258  1.9519  0.6643 -0.2451
39888SOL     OW24983   4.865   0.530   1.124  0.1829  0.5588 -0.0447
39888SOL    HW124984   4.790   0.472   1.134  1.0865 -0.9061 -1.3131
39888SOL    HW224985   4.884   0.530   1.030  1.4793  1.2795  0.1869
39889SOL     OW24986  10.193   4.132   0.749 -0.5430 -0.7785 -0.1877
39889SOL    HW124987  10.205   4.161   0.658  0.7413  1.0226  0.5075
39889SOL    HW224988  10.219   4.040   0.747  1.5564 -0.2328 -1.2864
39890SOL     OW24989   4.054   3.367   3.963 -0.4896 -0.4820 -0.3910
39890SOL    HW124990   4.039   3.317   4.043 -1.0159  0.3315  0.0344
39890SOL    HW224991   4.145   3.397   3.970 -0.8271  0.4083  0.3926
39891SOL     OW24992   2.607   9.273   5.935  0.1890  0.3743 -0.0364
39891SOL    HW124993   2.552   9.339   5.978 -0.0691  1.2600 -1.6559
39891SOL    HW224994   2.697   9.299   5.956  0.0498  0.0813  0.9634
39892SOL     OW24995   9.897   6.705   9.811  0.4994 -0.4129 -0.3300
39892SOL    HW124996   9.910   6.749   9.896 -0.5258  0.2320 -0.4955
39892SOL    HW224997   9.978   6.723   9.763  0.1164  1.3595 -0.3950
39893SOL     OW24998   2.133   6.651   1.846  0.1119  0.0685 -0.1546
39893SOL    HW124999   2.079   6.686   1.775 -1.3255 -0.3216  0.6957
39893SOL    HW225000   2.072   6.598   1.899  0.4852  2.2357  2.7122
39894SOL     OW25001   1.850   4.728   1.642  0.2808 -0.7485 -0.2607
39894SOL    HW125002   1.903   4.654   1.612  1.2895  0.6621 -2.2377
39894SOL    HW225003   1.907   4.804   1.629 -1.0453  0.4721  0.8386
39895SOL     OW25004   7.396  10.627   8.974 -0.1685  0.1763 -0.3886
39895SOL    HW125005   7.348  10.666   9.047 -0.1367  0.6879 -0.6349
39895SOL    HW225006   7.454  10.563   9.015  0.2028  0.8026  0.0920
39896SOL     OW25007   6.553  11.314   8.527 -0.2237  0.6526  0.2934
39896SOL    HW125008   6.614  11.261   8.577 -1.0290  0.2011  0.8259
39896SOL    HW225009   6.569  11.403   8.556  2.0570  0.9423 -1.5507
39897SOL     OW25010   3.213   3.722  10.291 -0.2745  0.1307  0.5435
39897SOL    HW125011   3.196   3.788  10.357  1.8201  1.1630  0.1401
39897SOL    HW225012   3.155   3.744  10.218 -0.0940  1.1195  0.6926
39898SOL     OW25013   4.085   7.036  11.564  0.7373  0.1854 -0.2489
39898SOL    HW125014   4.093   7.102  11.495  0.0512 -0.1455 -0.6654
39898SOL    HW225015   4.006   6.987  11.540  0.3652  0.2075  0.9023
39899SOL     OW25016   6.226   8.728  10.070  0.5138 -0.0286  0.3837
39899SOL    HW125017   6.270   8.802  10.112  0.3730  1.1676 -1.4540
39899SOL    HW225018   6.139   8.725  10.109  0.2399  1.3210 -0.0977
39900SOL     OW25019   4.585   7.996   3.563 -0.1815 -0.3303 -0.1795
39900SOL    HW125020   4.531   8.030   3.491  0.4486 -0.8360 -0.9150
39900SOL    HW225021   4.616   7.911   3.531 -0.9196 -1.1715  1.2208
39901SOL     OW25022   6.067  11.117   4.739 -0.0054  0.1401  0.1370
39901SOL    HW125023   6.059  11.199   4.788 -0.6160 -1.0084  2.0496
39901SOL    HW225024   6.077  11.145   4.648 -1.8273  2.3045  0.5077
39902SOL     OW25025   9.247   7.839   2.231 -0.1888  0.5015  0.4281
39902SOL    HW125026   9.315   7.834   2.298  0.7661 -0.1477 -0.5523
39902SOL    HW225027   9.222   7.931   2.229  0.4810  0.7037  0.9835
39903SOL     OW25028   3.754   6.478  10.712 -0.0497 -0.1122 -0.0820
39903SOL    HW125029   3.676   6.463  10.765  0.4978 -2.3076  0.1964
39903SOL    HW225030   3.721   6.489  10.623 -0.7683  0.5881  0.2610
39904SOL     OW25031   0.021   8.654   9.674 -0.3751 -0.2342 -0.2516
39904SOL    HW125032   0.115   8.670   9.684 -0.1388 -1.9308  0.6949
39904SOL    HW225033   0.013   8.605   9.593 -0.1254 -2.0458  0.7615
39905SOL     OW25034   1.951   8.543   7.688 -0.5209  0.3963 -0.4596
39905SOL    HW125035   1.985   8.458   7.716  1.7710  1.0161 -1.1570
39905SOL    HW225036   1.937   8.534   7.594 -1.5288  0.4249 -0.3257
39906SOL     OW25037   3.911   9.926   3.401 -0.5112 -0.0995 -0.1544
39906SOL    HW125038   3.830   9.896   3.360  0.3923 -1.5289 -1.0023
39906SOL    HW225039   3.972   9.853   3.391  0.3846  0.2502  2.0121
39907SOL     OW25040   9.509   6.290   0.107 -0.5557  0.1214 -0.4905
39907SOL    HW125041   9.597   6.255   0.121 -0.0818  0.5233 -2.2575
39907SOL    HW225042   9.452   6.213   0.114 -0.0266 -0.2292  0.1504
39908SOL     OW25043   8.865   7.579   3.369  0.3662  0.0338 -0.1836
39908SOL    HW125044   8.844   7.553   3.279  1.0470  1.8853 -0.9305
39908SOL    HW225045   8.932   7.646   3.359  0.1809  0.5552  1.7131
39909SOL     OW25046   5.127   2.248   6.525  0.4578  0.4709 -0.1934
39909SOL    HW125047   5.132   2.340   6.500  1.2367  1.3026  2.7029
39909SOL    HW225048   5.210   2.211   6.497  1.5016  1.4772  1.4304
39910SOL     OW25049   5.747   2.239  11.032 -0.1383 -0.2007  0.4634
39910SOL    HW125050   5.823   2.285  10.997 -0.6221  0.9750  0.9189
39910SOL    HW225051   5.730   2.169  10.969  2.1922 -1.4164  1.1083
39911SOL     OW25052   0.087  10.865  10.105  0.5548  0.3449 -0.4786
39911SOL    HW125053   0.140  10.808  10.050 -0.1930  0.4792 -1.3599
39911SOL    HW225054   0.080  10.947  10.056 -2.0418 -0.2865 -1.3280
39912SOL     OW25055  10.521   7.819   1.445  0.2000 -0.2416  0.1603
39912SOL    HW125056  10.502   7.911   1.425  0.2286 -0.6082 -1.7608
39912SOL    HW225057  10.541   7.780   1.360  2.3021 -1.5737  1.1925
39913SOL     OW25058   7.351   1.583   1.560 -0.1886 -0.0883  0.2305
39913SOL    HW125059   7.378   1.510   1.504 -1.9370  0.2535 -1.1568
39913SOL    HW225060   7.258   1.567   1.576 -0.3998  1.4041  0.5869
39914SOL     OW25061   7.113  10.551   3.366  0.0186 -0.0294  0.1679
39914SOL    HW125062   7.091  10.637   3.400 -2.2177  0.1268 -1.4548
39914SOL    HW225063   7.038  10.526   3.313  1.2943 -2.2950 -0.7241
39915SOL     OW25064   0.048   7.589   7.235  0.2015 -0.0891  0.0696
39915SOL    HW125065  -0.026   7.529   7.221  0.4456 -0.4222  0.1942
39915SOL    HW225066   0.098   7.584   7.154 -0.2149  0.5626 -0.2277
39916SOL     OW25067  10.633   1.355   8.371  0.3004  0.1147  0.3103
39916SOL    HW125068  10.618   1.399   8.287  1.7403  1.9011  0.9494
39916SOL    HW225069  10.664   1.423   8.430 -0.1374 -1.2152  2.1798
39917SOL     OW25070   2.248   3.403   4.918  0.5416 -0.4587  0.8135
39917SOL    HW125071   2.230   3.403   4.824  1.1475  0.9074  0.6669
39917SOL    HW225072   2.305   3.479   4.931  0.0725 -0.3439  2.3667
39918SOL     OW25073   2.973  10.955   9.017 -0.2012 -0.5308  0.6390
39918SOL    HW125074   2.945  11.015   9.085 -2.1207 -1.4943  0.7500
39918SOL    HW225075   2.893  10.911   8.988  0.8512 -1.6009 -0.8201
39919SOL     OW25076  10.893   4.287   8.184 -0.2992  0.1389 -0.3918
39919SOL    HW125077  10.875   4.366   8.133  1.3876  0.0095 -1.2862
39919SOL    HW225078  10.989   4.280   8.183 -0.3379 -1.0106  1.0852
39920SOL     OW25079   0.519   8.257   7.165  0.0914  0.4580  0.4315
39920SOL    HW125080   0.525   8.162   7.176 -0.9576 -0.0501 -2.5591
39920SOL    HW225081   0.453   8.285   7.228 -0.0471 -0.8961  0.9128
39921SOL     OW25082   1.263   2.607   6.358 -0.1786 -0.1035  0.0098
39921SOL    HW125083   1.252   2.572   6.446 -0.7640  0.2270  0.0780
39921SOL    HW225084   1.334   2.555   6.320  0.5433  0.1953  0.9021
39922SOL     OW25085   5.910  11.614   4.254  0.2117  0.1714  1.0047
39922SOL    HW125086   5.880  11.549   4.319  1.5930  0.9338  2.4713
39922SOL    HW225087   5.917  11.696   4.303  0.6337  0.9403 -0.2894
39923SOL     OW25088  11.285   4.913  11.443 -0.2659 -0.3961  0.5413
39923SOL    HW125089  11.371   4.951  11.462 -0.0521 -1.3325  1.4973
39923SOL    HW225090  11.227   4.988  11.432  0.6523  0.2448 -0.0383
39924SOL     OW25091   8.513   8.211   2.398 -0.4023 -0.2094  0.3738
39924SOL    HW125092   8.438   8.259   2.363 -1.0518 -0.8079  0.9382
39924SOL    HW225093   8.589   8.260   2.367 -1.0545  1.8311  1.8281
39925SOL     OW25094   3.548   1.706   5.317 -0.1380  0.7833 -0.0899
39925SOL    HW125095   3.626   1.653   5.327  0.7456  2.2096  0.9524
39925SOL    HW225096   3.483   1.665   5.374 -0.1804 -0.4341 -0.9965
39926SOL     OW25097   3.061   9.814   2.146 -0.0967 -0.1810 -0.5481
39926SOL    HW125098   3.050   9.877   2.075 -2.0455 -0.1727 -0.2729
39926SOL    HW225099   2.986   9.756   2.139  0.0792 -0.6426  1.0562
39927SOL     OW25100   7.094   4.832   2.595 -0.2682 -0.4575 -0.5810
39927SOL    HW125101   7.112   4.855   2.686  1.8356 -1.2783 -0.7322
39927SOL    HW225102   7.066   4.741   2.599  0.8752 -0.8408 -0.8067
39928SOL     OW25103   0.111   7.769   2.774  0.6206  0.0897 -0.3009
39928SOL    HW125104   0.144   7.786   2.686 -0.5423 -0.0641 -0.7795
39928SOL    HW225105   0.145   7.682   2.796 -1.8733 -1.4463 -2.0217
39929SOL     OW25106   0.393   5.699   1.788  0.3473 -0.0914 -0.1185
39929SOL    HW125107   0.406   5.657   1.703  2.9116 -0.2047  0.2484
39929SOL    HW225108   0.415   5.791   1.773 -1.9443  0.4976 -0.1547
39930SOL     OW25109   3.165  11.818   9.974 -0.0186  0.0242 -0.1348
39930SOL    HW125110   3.149  11.846   9.884  1.3844 -1.3807 -0.8595
39930SOL    HW225111   3.128  11.888  10.027 -1.9841  0.3262 -1.7499
39931SOL     OW25112   6.378   5.531   2.014  0.4344  0.2362 -0.3331
39931SOL    HW125113   6.465   5.568   2.029  0.7441  0.4468 -2.3462
39931SOL    HW225114   6.324   5.607   1.990  0.2232 -0.1667 -1.1378
39932SOL     OW25115   9.878   8.664   7.635  0.8717  0.1720 -0.3292
39932SOL    HW125116   9.843   8.589   7.587 -0.5579  1.9447 -2.2099
39932SOL    HW225117   9.900   8.728   7.568  2.2493  1.4121  1.2071
39933SOL     OW25118   1.509  11.292   3.309  0.4505 -0.6996  0.2463
39933SOL    HW125119   1.564  11.309   3.386  0.3646  0.4721  0.0706
39933SOL    HW225120   1.447  11.226   3.338  0.4910 -0.3565  1.1554
39934SOL     OW25121  11.252   6.809   0.737  0.4258  0.0585  0.2518
39934SOL    HW125122  11.263   6.832   0.644  1.4440 -0.9276  0.1015
39934SOL    HW225123  11.342   6.803   0.770  0.1045 -0.8671  0.9780
39935SOL     OW25124   8.569   5.960   4.550 -0.1530 -0.3641 -0.2421
39935SOL    HW125125   8.577   6.015   4.628 -0.6537 -3.0680  1.8898
39935SOL    HW225126   8.496   5.998   4.502  1.3450  2.4931 -0.4692
39936SOL     OW25127   9.875   2.503   8.174 -0.1332  0.3777 -0.3510
39936SOL    HW125128   9.823   2.547   8.241 -2.6186  0.3959 -2.1421
39936SOL    HW225129   9.880   2.565   8.102  0.8123 -0.3440 -0.9429
39937SOL     OW25130   3.208   9.406   3.532 -0.5241 -0.5141 -0.2461
39937SOL    HW125131   3.284   9.450   3.494 -1.2167  0.4066 -0.6034
39937SOL    HW225132   3.244   9.351   3.602  0.1953  1.9747  1.4453
39938SOL     OW25133   1.854   9.150  10.183  0.1000 -0.6015 -0.2128
39938SOL    HW125134   1.881   9.062  10.208 -0.5488 -0.4942  0.9092
39938SOL    HW225135   1.861   9.201  10.264  0.3916  0.3601 -0.8325
39939SOL     OW25136   3.268  10.810   9.458 -0.3577 -0.2517 -0.3398
39939SOL    HW125137   3.304  10.895   9.433 -0.1512  0.0543  0.9151
39939SOL    HW225138   3.193  10.797   9.400  0.2575  0.2688 -1.2840
39940SOL     OW25139   7.741   0.123   7.947 -0.2356  0.1932  1.0737
39940SOL    HW125140   7.749   0.198   7.888 -1.4178 -1.0910 -0.8241
39940SOL    HW225141   7.650   0.125   7.976 -0.7835 -1.4725 -0.4185
39941SOL     OW25142   6.739   7.555   6.213 -0.0173 -0.0945 -0.1804
39941SOL    HW125143   6.783   7.471   6.201  0.4393  0.0258  0.6221
39941SOL    HW225144   6.676   7.539   6.283 -0.1117  0.1645 -0.2040
39942SOL     OW25145   3.033   1.583   3.915  0.4265  0.1426  0.2657
39942SOL    HW125146   3.017   1.644   3.988 -0.0231  0.3577 -0.0066
39942SOL    HW225147   2.978   1.508   3.936 -1.8754  1.3057 -1.1970
39943SOL     OW25148   9.069   8.543   4.256  0.0108 -0.1474 -0.3175
39943SOL    HW125149   9.063   8.448   4.259  0.5673 -0.2500  4.1817
39943SOL    HW225150   9.144   8.565   4.311 -1.2258  2.9234  0.3814
39944SOL     OW25151   8.927   8.681   3.754 -0.4018  0.1409  0.0560
39944SOL    HW125152   8.925   8.624   3.832 -0.0287 -0.0987 -0.1090
39944SOL    HW225153   9.020   8.688   3.732 -0.5232  0.0155 -0.5100
39945SOL     OW25154   2.827  11.548   6.173  0.9359 -0.1693  0.3982
39945SOL    HW125155   2.854  11.619   6.232  0.1641 -0.4880  1.1524
39945SOL    HW225156   2.742  11.520   6.207  0.1923  0.0181 -1.2001
39946SOL     OW25157   0.854   8.977   6.848 -0.0461  0.7237 -0.1422
39946SOL    HW125158   0.864   9.021   6.764 -0.8121 -0.0401 -0.6544
39946SOL    HW225159   0.770   8.932   6.842  0.0531  0.3647  0.9004
39947SOL     OW25160  11.247   5.317   7.938  0.1134 -0.3191 -0.3760
39947SOL    HW125161  11.341   5.305   7.948  0.1409  0.4053  0.4100
39947SOL    HW225162  11.224   5.378   8.008 -1.2587 -1.9431  0.6588
39948SOL     OW25163  10.680   6.085   6.570  0.6134  0.1778 -0.3420
39948SOL    HW125164  10.649   6.175   6.562  0.3722  0.7228  4.0872
39948SOL    HW225165  10.766   6.085   6.529  0.1854  2.1119 -1.3568
39949SOL     OW25166   8.456   5.247   1.494  0.2114 -0.4735  0.6096
39949SOL    HW125167   8.467   5.200   1.411  1.3204 -0.8500  0.9506
39949SOL    HW225168   8.459   5.339   1.470 -0.8073 -0.5655  0.0783
39950SOL     OW25169   9.219  10.825   3.085  0.7360  0.4224 -0.7981
39950SOL    HW125170   9.283  10.762   3.053 -0.1615 -1.0835  0.2457
39950SOL    HW225171   9.146  10.818   3.024 -0.3783 -1.4020  0.6485
39951SOL     OW25172   0.117   4.104   0.195 -0.3055 -0.0962 -0.1168
39951SOL    HW125173   0.082   4.188   0.166  0.2413  0.1277 -0.1415
39951SOL    HW225174   0.058   4.076   0.265  0.2789  0.9668  0.8274
39952SOL     OW25175  10.510   4.552   2.288 -0.1339 -0.2825  0.0821
39952SOL    HW125176  10.459   4.545   2.207 -0.3738 -3.4037  0.3729
39952SOL    HW225177  10.468   4.624   2.336 -2.3027 -0.6985 -1.0378
39953SOL     OW25178   0.443   1.138   1.019 -0.5960  0.1910  0.3937
39953SOL    HW125179   0.537   1.138   1.035 -0.5527 -0.2156  0.1357
39953SOL    HW225180   0.412   1.220   1.058  0.1438  1.2423 -1.1188
39954SOL     OW25181   7.455   7.498   4.935 -0.4038  0.2757  0.3783
39954SOL    HW125182   7.442   7.587   4.902  4.5155  1.8563  1.8590
39954SOL    HW225183   7.508   7.455   4.867  0.0601 -0.3361  1.1114
39955SOL     OW25184   7.448   4.018   3.226 -0.6149  0.0134 -0.1460
39955SOL    HW125185   7.512   4.076   3.268  0.2627 -0.5202 -0.6965
39955SOL    HW225186   7.372   4.073   3.211  0.4759  1.2675 -1.3444
39956SOL     OW25187   1.300   4.473   8.460 -0.1256 -0.1514 -0.0774
39956SOL    HW125188   1.303   4.505   8.550  1.0070  1.8824 -0.7697
39956SOL    HW225189   1.372   4.519   8.416 -1.7506  0.2762 -2.4482
39957SOL     OW25190  11.123   1.510  11.276  0.0076  0.2815  0.3278
39957SOL    HW125191  11.118   1.589  11.221  1.2798  0.0222 -0.1930
39957SOL    HW225192  11.052   1.455  11.244  0.6468  0.1854 -1.0055
39958SOL     OW25193   2.431  11.416   9.596  0.1862  0.0494  0.2133
39958SOL    HW125194   2.511  11.383   9.637 -0.6054 -0.9507  0.9891
39958SOL    HW225195   2.453  11.424   9.503  1.3100  0.2053  0.4726
39959SOL     OW25196  11.229   3.985   0.640  0.1638 -0.3634  1.0101
39959SOL    HW125197  11.186   3.908   0.677 -0.2456 -1.1737 -1.0011
39959SOL    HW225198  11.158   4.048   0.627 -0.0755 -0.8632 -0.2469
39960SOL     OW25199  11.803   4.162   2.813 -0.0412  0.6281  0.2395
39960SOL    HW125200  11.827   4.088   2.757  2.3689  1.7353 -0.3287
39960SOL    HW225201  11.767   4.121   2.892  2.2669 -1.2793  0.4267
39961SOL     OW25202   4.462   3.496   9.842 -0.6713 -0.4125 -0.4756
39961SOL    HW125203   4.382   3.538   9.811 -0.5053 -0.7860 -1.4672
39961SOL    HW225204   4.481   3.537   9.926 -2.4113 -0.9670  0.2223
39962SOL     OW25205   9.703   0.149   9.949 -0.0065 -0.0090  0.0929
39962SOL    HW125206   9.608   0.152   9.965 -0.4634  1.8017 -2.2809
39962SOL    HW225207   9.731   0.241   9.958  0.9869 -0.0921 -1.7736
39963SOL     OW25208   2.668   6.753   5.144 -0.3776 -0.1153 -0.2698
39963SOL    HW125209   2.725   6.770   5.069  0.3518 -0.4707  0.1922
39963SOL    HW225210   2.634   6.839   5.169  0.3436  0.1629 -0.2468
39964SOL     OW25211  11.061   5.572   6.402  0.2951  0.7604  0.1780
39964SOL    HW125212  11.029   5.547   6.489 -0.0518  0.7072  0.0383
39964SOL    HW225213  11.001   5.528   6.341  0.8211  0.4109 -0.0949
39965SOL     OW25214   8.280  11.288  10.429 -0.1435  0.2929 -0.4953
39965SOL    HW125215   8.375  11.296  10.420 -0.2257  2.5440 -0.1332
39965SOL    HW225216   8.245  11.321  10.347 -0.6383 -2.0954 -1.2920
39966SOL     OW25217  11.731  11.441   0.140 -0.2500 -0.3502 -0.5453
39966SOL    HW125218  11.649  11.477   0.172  0.0377 -0.7082  0.6515
39966SOL    HW225219  11.795  11.510   0.156 -0.0508 -0.6422 -0.0687
39967SOL     OW25220   7.108   8.165   9.064  0.0811  0.4539  0.3375
39967SOL    HW125221   7.018   8.152   9.033  0.6618  1.1350 -1.8195
39967SOL    HW225222   7.107   8.250   9.108  0.1469  1.7261 -1.9696
39968SOL     OW25223   9.885   8.027   5.580  0.4311  0.0012  0.0388
39968SOL    HW125224   9.870   7.941   5.618 -2.9698  0.1911 -0.5289
39968SOL    HW225225   9.882   8.012   5.485  0.0302  0.7132 -0.0680
39969SOL     OW25226   0.859  10.913   3.023  1.0097  0.3800  0.0316
39969SOL    HW125227   0.948  10.925   2.987  0.4689 -1.4190 -2.1845
39969SOL    HW225228   0.804  10.903   2.945 -0.5525 -2.1010  1.3312
39970SOL     OW25229  10.935   7.243  10.647 -0.1349  0.1315  0.1182
39970SOL    HW125230  10.951   7.226  10.554 -0.0920 -0.7515  0.2796
39970SOL    HW225231  11.003   7.192  10.692  0.0504  0.8106  0.6287
39971SOL     OW25232   7.679   2.701   5.166 -0.6789 -0.2268  0.1325
39971SOL    HW125233   7.609   2.732   5.223  0.7374  2.3238  0.6310
39971SOL    HW225234   7.745   2.666   5.226  0.3453  1.4727  0.0585
39972SOL     OW25235   3.559   5.134   3.664 -0.2574  0.0285  0.6142
39972SOL    HW125236   3.600   5.191   3.599 -0.0630 -0.0078  0.7049
39972SOL    HW225237   3.465   5.148   3.652 -0.2050  1.3640  1.4972
39973SOL     OW25238   8.747   5.798   7.060  0.0747  0.0956  0.3324
39973SOL    HW125239   8.775   5.709   7.039 -1.6945 -0.1290 -1.3627
39973SOL    HW225240   8.654   5.799   7.041  0.2026  2.5373 -0.4662
39974SOL     OW25241   3.801   7.665   3.900 -0.5334 -0.3527 -0.1262
39974SOL    HW125242   3.845   7.746   3.928  0.6861 -0.7915 -0.6772
39974SOL    HW225243   3.810   7.606   3.975 -1.8214  0.1374  0.4491
39975SOL     OW25244   9.673   3.367   4.016 -0.1768 -0.2975 -0.7561
39975SOL    HW125245   9.623   3.302   3.966 -1.6948 -0.5800  1.0284
39975SOL    HW225246   9.667   3.447   3.964 -0.7295 -0.8572 -1.5845
39976SOL     OW25247   3.175   2.146   1.642 -0.4097  0.5098 -0.3864
39976SOL    HW125248   3.203   2.075   1.585 -0.1300  0.2759  0.0348
39976SOL    HW225249   3.094   2.114   1.682 -0.5559  0.6356 -0.5815
39977SOL     OW25250   9.570   0.739   4.396  0.5444 -0.2624 -0.2382
39977SOL    HW125251   9.580   0.677   4.468  0.3307  0.1692  0.1694
39977SOL    HW225252   9.537   0.818   4.437  1.4428  0.3414 -0.6583
39978SOL     OW25253   6.755   1.728   8.471 -0.3752 -0.1314 -0.1181
39978SOL    HW125254   6.743   1.805   8.527 -3.1154 -1.0559  0.7194
39978SOL    HW225255   6.739   1.760   8.382 -1.2110  0.3344  0.1928
39979SOL     OW25256   5.334   2.187   8.505 -0.3179  0.5951  0.1653
39979SOL    HW125257   5.366   2.217   8.420  1.9910 -0.4177  0.6129
39979SOL    HW225258   5.380   2.241   8.569  1.0853 -1.2997  0.8470
39980SOL     OW25259   1.370   2.494   3.774  1.1997 -0.6965  0.5229
39980SOL    HW125260   1.400   2.408   3.802  1.5071 -0.4612  0.9269
39980SOL    HW225261   1.329   2.532   3.852  0.9900 -0.5109  0.3240
39981SOL     OW25262   7.437   2.605   3.887  0.2729  0.1447 -0.4459
39981SOL    HW125263   7.491   2.531   3.913  1.7139  1.4553  0.4652
39981SOL    HW225264   7.487   2.683   3.912 -1.9828  1.4531  0.4022
39982SOL     OW25265   4.776  10.559   9.372  0.4739 -0.3111 -0.2018
39982SOL    HW125266   4.827  10.520   9.443  0.8223 -2.2241 -1.4167
39982SOL    HW225267   4.828  10.634   9.343  1.5436 -0.9622 -0.0126
39983SOL     OW25268   2.471  10.345   9.404  0.2161  0.0780  0.6172
39983SOL    HW125269   2.542  10.373   9.345 -0.1761 -1.1054 -0.4522
39983SOL    HW225270   2.516  10.319   9.484  1.0355 -0.7556 -0.0864
39984SOL     OW25271  11.405   6.003   3.656 -0.3039  0.4550  0.0449
39984SOL    HW125272  11.360   5.920   3.673 -1.1854  0.9612  0.2370
39984SOL    HW225273  11.466   5.982   3.585  1.5109 -1.0322  1.9073
39985SOL     OW25274   0.055   2.410   2.944 -0.1070  0.2903 -0.2838
39985SOL    HW125275   0.050   2.329   2.892 -0.0846  0.0704  0.0561
39985SOL    HW225276   0.107   2.470   2.889  2.1576 -0.7830  0.5595
39986SOL     OW25277   0.223   4.176   7.197  0.1193  0.2055  0.3172
39986SOL    HW125278   0.311   4.198   7.229  0.9214 -2.0018 -0.2260
39986SOL    HW225279   0.166   4.186   7.273  0.7050  2.1670  0.5541
39987SOL     OW25280   5.561   1.964   1.918  0.5847 -0.0587  0.0326
39987SOL    HW125281   5.573   1.897   1.851  1.9560 -0.8725  1.0461
39987SOL    HW225282   5.524   2.039   1.871  1.3229 -0.6651 -1.5856
39988SOL     OW25283   3.822   4.735   1.714 -0.1476  0.5781 -0.2036
39988SOL    HW125284   3.768   4.665   1.678 -0.0464 -0.0904  0.9153
39988SOL    HW225285   3.893   4.689   1.759 -0.3525  1.3800  0.9770
39989SOL     OW25286   9.728   4.081   4.277 -0.0502  0.1228 -0.0706
39989SOL    HW125287   9.734   4.147   4.345 -0.0967 -1.3934  1.4839
39989SOL    HW225288   9.641   4.043   4.289  0.0354 -0.3239 -0.8271
39990SOL     OW25289   1.381   6.109  11.329 -0.3636 -0.5776  0.2355
39990SOL    HW125290   1.290   6.081  11.320  0.2083 -2.7817  0.6437
39990SOL    HW225291   1.403   6.147  11.244 -0.6848 -3.2904 -1.1720
39991SOL     OW25292   6.981   4.058   7.777 -0.1320  0.2831  0.4801
39991SOL    HW125293   7.031   4.092   7.851  1.0769 -0.0226 -0.1671
39991SOL    HW225294   6.962   3.967   7.800 -2.9362  1.1279  1.9904
39992SOL     OW25295   1.629   6.260   6.247 -0.1699  0.1744 -0.1999
39992SOL    HW125296   1.550   6.213   6.272  0.1295  1.0131  2.6102
39992SOL    HW225297   1.605   6.353   6.254  1.2770  0.4570  1.7597
39993SOL     OW25298   8.216   4.311   9.160 -0.1200  0.1979  0.0152
39993SOL    HW125299   8.299   4.294   9.115 -0.3380  1.1425 -0.7769
39993SOL    HW225300   8.183   4.225   9.183  0.9124 -0.2089  0.0337
39994SOL     OW25301   9.170   7.062   8.875 -0.5370 -0.0310  0.1730
39994SOL    HW125302   9.158   7.112   8.794 -0.3635  1.5145  1.0816
39994SOL    HW225303   9.085   7.020   8.889 -0.8277  0.3571 -0.3625
39995SOL     OW25304   9.887   3.515   3.005 -0.4236 -0.2342 -0.6040
39995SOL    HW125305   9.886   3.545   3.096  3.0168  1.3360 -0.9395
39995SOL    HW225306   9.891   3.420   3.012 -1.7330 -0.2368  0.7819
39996SOL     OW25307   6.981  11.446   4.008  0.3536 -0.5812  0.0666
39996SOL    HW125308   7.058  11.454   3.951  0.6140  0.7277  0.5738
39996SOL    HW225309   6.946  11.359   3.988  2.3768 -1.5257  0.3305
39997SOL     OW25310   1.256   0.119   7.276  0.7226  0.5147 -0.2875
39997SOL    HW125311   1.210   0.034   7.271  0.6928  0.4740  0.5460
39997SOL    HW225312   1.227   0.166   7.198 -1.3511  0.7793  0.5819
39998SOL     OW25313   8.579   6.181   7.690 -0.3517  0.0583  0.2577
39998SOL    HW125314   8.567   6.141   7.776 -1.8275 -0.4635 -0.1668
39998SOL    HW225315   8.651   6.242   7.703  1.5552 -2.2107  1.0929
39999SOL     OW25316  10.668   1.009   7.249  0.1136 -0.1121 -0.3618
39999SOL    HW125317  10.576   0.985   7.239 -0.6692  2.0234  1.0766
39999SOL    HW225318  10.706   0.937   7.300 -0.3888 -1.6373 -2.0272
40000SOL     OW25319   0.601   2.996   0.368  0.1368 -0.2956 -0.5350
40000SOL    HW125320   0.618   2.949   0.450  0.9371 -0.1273 -0.5989
40000SOL    HW225321   0.610   3.088   0.392  1.8739 -0.2846 -1.1269
40001SOL     OW25322  11.247  10.422  10.281 -0.2895  0.0755  0.0391
40001SOL    HW125323  11.259  10.357  10.350  0.2803 -0.9337 -0.9720
40001SOL    HW225324  11.168  10.470  10.306 -1.4210 -1.8054  0.1975
40002SOL     OW25325   2.051   3.239   6.020 -0.1756 -0.5361  0.8368
40002SOL    HW125326   1.999   3.189   5.957  1.4635 -1.8959  0.5024
40002SOL    HW225327   2.065   3.324   5.977  0.1811 -1.1322 -0.2756
40003SOL     OW25328   9.907   8.930   9.202 -0.1709  0.4513  0.0161
40003SOL    HW125329   9.987   8.880   9.185  1.9454  3.5954 -0.1200
40003SOL    HW225330   9.888   8.975   9.120 -2.3130 -0.4121 -0.0309
40004SOL     OW25331   7.796   4.504   9.048 -0.2361  0.1701  0.2742
40004SOL    HW125332   7.888   4.480   9.035 -0.6304 -1.4528  0.2565
40004SOL    HW225333   7.787   4.517   9.143  0.4085  2.2014  0.0916
40005SOL     OW25334   2.256   0.829   1.183 -0.1202  0.1070  0.2955
40005SOL    HW125335   2.229   0.824   1.091  0.4972  1.8575 -0.0140
40005SOL    HW225336   2.200   0.897   1.221  0.3643  0.1556  0.9370
40006SOL     OW25337   6.760   5.706   5.794  0.7703 -0.1402 -0.2208
40006SOL    HW125338   6.684   5.673   5.747  1.6566 -1.4036 -0.8160
40006SOL    HW225339   6.742   5.800   5.805 -1.2407 -0.5616  0.4225
40007SOL     OW25340   8.219   3.025   3.468 -0.1371 -0.7093 -0.5938
40007SOL    HW125341   8.229   3.041   3.562 -1.8407 -0.6764 -0.3926
40007SOL    HW225342   8.300   3.060   3.429 -0.4850  1.6617  0.5991
40008SOL     OW25343   9.440   2.863   3.769 -0.7679 -0.0413  0.0943
40008SOL    HW125344   9.405   2.778   3.743  1.1176 -0.9990  0.5492
40008SOL    HW225345   9.487   2.895   3.692  2.2273 -1.4800  1.2032
40009SOL     OW25346   2.942  10.835  10.018 -0.3041 -0.2793 -0.4244
40009SOL    HW125347   2.853  10.804  10.001  0.0324 -1.4154 -0.1954
40009SOL    HW225348   2.943  10.924   9.984 -1.3715 -0.4420 -0.9268
40010SOL     OW25349  11.128   0.530   0.763  0.1592 -0.4391  0.2190
40010SOL    HW125350  11.089   0.601   0.711  0.1050 -0.4502  0.2444
40010SOL    HW225351  11.219   0.557   0.778  0.0918 -0.2998  0.3684
40011SOL     OW25352  10.386  11.454   6.977 -0.4341  0.0941  0.5693
40011SOL    HW125353  10.443  11.419   6.908  0.8384  0.7462  1.2446
40011SOL    HW225354  10.336  11.523   6.933 -2.3847 -1.9516 -0.5699
40012SOL     OW25355   2.147   7.759   4.199  0.3620  0.6029  0.2539
40012SOL    HW125356   2.101   7.682   4.167  0.5121  0.2570  0.8667
40012SOL    HW225357   2.105   7.832   4.153 -0.4566  0.2499  0.4192
40013SOL     OW25358   0.807   8.260   7.243 -0.6503 -0.0820 -0.0242
40013SOL    HW125359   0.714   8.239   7.242 -0.7345  0.2741 -1.3724
40013SOL    HW225360   0.838   8.225   7.326 -1.3874 -2.8593 -0.7865
40014SOL     OW25361   4.127   5.394   4.054  0.0950  0.1546  0.0548
40014SOL    HW125362   4.211   5.357   4.027  1.0935  1.9830  0.4155
40014SOL    HW225363   4.078   5.321   4.091  1.8350 -0.8223  0.5180
40015SOL     OW25364   5.530   7.139  11.817  0.8470 -0.0197 -0.2264
40015SOL    HW125365   5.443   7.172  11.794  0.5573 -0.4002  0.2970
40015SOL    HW225366   5.513   7.056  11.861  1.4853 -0.1564 -0.2336
40016SOL     OW25367   6.962  11.136   9.738  0.3688  0.1563 -0.1838
40016SOL    HW125368   6.924  11.062   9.785 -1.0627 -0.0252 -1.5276
40016SOL    HW225369   7.030  11.097   9.683  0.9459  0.1430  0.5231
40017SOL     OW25370   7.744   9.965   5.417 -0.0771 -0.0067 -0.2005
40017SOL    HW125371   7.771   9.959   5.509  0.4059  1.4074 -0.2136
40017SOL    HW225372   7.649   9.961   5.419 -0.0741  0.1537  0.3851
40018SOL     OW25373   3.625   7.238  10.162 -0.3837 -0.2564 -0.7807
40018SOL    HW125374   3.638   7.306  10.096 -1.7765 -0.9190 -1.7597
40018SOL    HW225375   3.597   7.161  10.113 -1.5617 -0.7304  0.5623
40019SOL     OW25376   9.096   9.742  10.811 -0.0520 -0.1028 -0.3142
40019SOL    HW125377   9.109   9.658  10.856  0.9106  0.0054 -0.3605
40019SOL    HW225378   9.010   9.772  10.839 -0.5316 -1.2421 -0.5184
40020SOL     OW25379   0.949  10.331   5.308  0.0287  0.2509 -0.2099
40020SOL    HW125380   0.874  10.311   5.253  0.4334  0.7175 -0.9478
40020SOL    HW225381   0.960  10.426   5.300  0.3949  0.2527  0.2778
40021SOL     OW25382   1.797  10.748   9.347 -0.2237 -0.3131  0.4479
40021SOL    HW125383   1.707  10.759   9.316  0.0846  0.7662 -0.1270
40021SOL    HW225384   1.788  10.733   9.441 -1.0001  0.0991  0.4504
40022SOL     OW25385  11.096   2.154   4.190 -0.0379  0.1087  0.3513
40022SOL    HW125386  11.076   2.077   4.137 -0.0989 -0.6846  1.4952
40022SOL    HW225387  11.031   2.219   4.164 -2.4309 -1.4626  1.9538
40023SOL     OW25388  10.899   8.439   0.400  0.4178 -0.9536  0.4107
40023SOL    HW125389  10.916   8.426   0.307  0.8998 -1.0463  0.5070
40023SOL    HW225390  10.863   8.527   0.406  0.6562 -0.8380  0.1641
40024SOL     OW25391   2.515   0.032  10.663 -0.2408  0.3426  0.6448
40024SOL    HW125392   2.523  -0.040  10.726  0.5955  0.4098  0.6308
40024SOL    HW225393   2.472  -0.006  10.587  0.9025 -0.3698  0.3250
40025SOL     OW25394   3.088   1.610   8.678 -0.6127 -0.2508  0.5443
40025SOL    HW125395   3.002   1.593   8.640 -0.4756  0.6453 -0.2058
40025SOL    HW225396   3.142   1.536   8.648 -0.9648 -0.4910  0.4979
40026SOL     OW25397   0.943   5.712  11.713  0.5094 -0.7142  0.1112
40026SOL    HW125398   0.898   5.645  11.661  0.2470 -1.0275  0.7390
40026SOL    HW225399   0.877   5.745  11.773  0.5988  0.2208 -0.2865
40027SOL     OW25400   5.256   3.102   8.368  0.1867 -0.0331  0.1591
40027SOL    HW125401   5.181   3.160   8.357 -0.1466 -0.6420 -0.9649
40027SOL    HW225402   5.218   3.017   8.391  0.6701  0.1767  1.8512
40028SOL     OW25403   6.224   4.234   4.460  0.3520  0.4403 -0.4264
40028SOL    HW125404   6.218   4.309   4.519  0.1364  0.6141 -0.6639
40028SOL    HW225405   6.168   4.168   4.500 -1.7408  1.3691 -1.6130
40029SOL     OW25406   7.890   2.004   1.578  0.0040 -0.0739 -0.1505
40029SOL    HW125407   7.813   2.055   1.605  0.2211 -0.1954  0.7310
40029SOL    HW225408   7.941   1.994   1.658 -1.5398 -4.3483  0.5316
40030SOL     OW25409   0.572  10.120   4.349 -0.3061  0.7727 -0.5788
40030SOL    HW125410   0.640  10.055   4.333  0.1063  1.1166 -0.2611
40030SOL    HW225411   0.490  10.074   4.334  0.0074  0.7570 -2.5753
40031SOL     OW25412   1.927   5.519   3.701 -0.1630 -0.8444 -0.1548
40031SOL    HW125413   1.965   5.497   3.616 -0.4001  1.1350 -0.8242
40031SOL    HW225414   1.835   5.534   3.683 -0.0717  0.3508  0.2837
40032SOL     OW25415   2.800   2.339   2.075 -0.8600  0.1625 -0.2638
40032SOL    HW125416   2.745   2.276   2.122 -0.6965 -0.6410 -1.1197
40032SOL    HW225417   2.884   2.336   2.121 -0.7755 -0.4318 -0.4494
40033SOL     OW25418  10.316   7.352  11.721  0.3821 -0.2438  0.6363
40033SOL    HW125419  10.298   7.294  11.647  2.2820  0.1391 -0.1826
40033SOL    HW225420  10.363   7.297  11.784  0.7091  0.0001  0.6016
40034SOL     OW25421   4.299   9.159   7.140  0.2267  0.0375  0.6613
40034SOL    HW125422   4.292   9.250   7.168  0.6628  0.3210 -0.1273
40034SOL    HW225423   4.355   9.118   7.207  1.0871  0.6545  0.3322
40035SOL     OW25424   0.493   6.524   2.312  0.1223 -0.8381 -0.1869
40035SOL    HW125425   0.544   6.594   2.271 -1.2535  0.6029  0.4344
40035SOL    HW225426   0.402   6.546   2.291 -0.3536 -2.4319  0.0864
40036SOL     OW25427  11.074   9.202   9.580  0.6802  0.3710  0.1149
40036SOL    HW125428  11.110   9.141   9.516 -0.2156  0.7402 -0.7590
40036SOL    HW225429  11.047   9.279   9.529 -1.9171 -0.1297  0.5878
40037SOL     OW25430   5.587   6.748   5.232  0.1524  0.3452  0.1978
40037SOL    HW125431   5.637   6.744   5.313 -0.9445  0.0563  0.8763
40037SOL    HW225432   5.613   6.831   5.192 -0.3316  1.1715  1.5378
40038SOL     OW25433  10.501   3.366   8.718 -0.0564 -0.0236 -0.0113
40038SOL    HW125434  10.438   3.416   8.666  0.2244  0.4421  0.0888
40038SOL    HW225435  10.462   3.279   8.725  0.2403 -0.3159 -1.6196
40039SOL     OW25436   4.128   6.756   6.982 -0.3329  0.1321  0.0076
40039SOL    HW125437   4.118   6.777   7.075 -0.8114  1.2870 -0.2784
40039SOL    HW225438   4.194   6.818   6.950  1.4400 -1.6395 -0.0145
40040SOL     OW25439   3.179   8.800   2.031  0.2144  0.3666  0.0397
40040SOL    HW125440   3.238   8.827   2.101  0.4897 -3.7212  1.6392
40040SOL    HW225441   3.227   8.818   1.950  1.9000  0.8972  1.1103
40041SOL     OW25442   5.537  11.331   5.713 -0.1013 -0.1888 -0.3079
40041SOL    HW125443   5.479  11.255   5.706 -0.0002 -0.3549  0.5626
40041SOL    HW225444   5.478  11.404   5.729 -0.2494  0.0297 -1.7452
40042SOL     OW25445  10.333   7.499   0.325  0.0036 -0.2596 -0.0036
40042SOL    HW125446  10.412   7.545   0.294  0.2960 -0.7772 -0.0386
40042SOL    HW225447  10.336   7.414   0.281  0.1736 -0.8313  1.0757
40043SOL     OW25448   5.039   3.939   7.655 -0.1862 -0.1594  0.4026
40043SOL    HW125449   5.025   3.973   7.743  2.4793 -2.0097  1.6813
40043SOL    HW225450   5.094   4.004   7.612 -1.3955  0.6901  0.1073
40044SOL     OW25451   5.651   0.441   3.081 -0.1707 -0.4729 -0.1079
40044SOL    HW125452   5.704   0.406   3.009  2.1993 -0.1590  1.3928
40044SOL    HW225453   5.671   0.385   3.156 -2.2271 -0.5102  0.4747
40045SOL     OW25454   4.488   0.785  11.577  0.0669  0.4453 -0.0580
40045SOL    HW125455   4.518   0.694  11.579 -0.4581  0.2745  0.5434
40045SOL    HW225456   4.480   0.810  11.669  0.1952  1.0983 -0.2178
40046SOL     OW25457   8.664   5.654   2.052 -0.7614  0.6033  0.1359
40046SOL    HW125458   8.706   5.688   1.972 -1.1265  1.5929  0.3554
40046SOL    HW225459   8.582   5.615   2.021 -0.4081  0.0259 -0.0981
40047SOL     OW25460   4.858   3.980   8.740  0.3967 -0.1044 -0.0241
40047SOL    HW125461   4.941   3.956   8.783 -0.7438 -0.9727  1.8140
40047SOL    HW225462   4.852   4.075   8.752  0.7425 -0.1513  0.5835
40048SOL     OW25463   4.243   5.362   9.235 -0.1126 -0.3935 -0.1321
40048SOL    HW125464   4.162   5.315   9.215 -0.7439 -0.0180  1.3972
40048SOL    HW225465   4.217   5.430   9.297  1.2950  0.0731 -0.0153
40049SOL     OW25466  10.059   5.850   9.817 -0.1955 -0.1140 -0.1116
40049SOL    HW125467  10.104   5.820   9.738  0.9159 -0.4885  0.6496
40049SOL    HW225468  10.080   5.784   9.883 -0.8172  0.3853  0.5947
40050SOL     OW25469   9.771   8.461   4.397  0.2547 -0.1218 -0.1181
40050SOL    HW125470   9.784   8.377   4.353  0.2856 -1.1021  1.6380
40050SOL    HW225471   9.847   8.470   4.454 -0.2060  0.6417  0.3932
40051SOL     OW25472   3.483   9.360   3.758 -0.4377 -0.2248  0.1321
40051SOL    HW125473   3.544   9.288   3.770  1.3502  1.4775  2.3807
40051SOL    HW225474   3.537   9.439   3.766 -2.0675  1.4886 -3.4015
40052SOL     OW25475   8.861   0.734   3.502  0.1380  0.8718  0.6797
40052SOL    HW125476   8.851   0.829   3.510  1.7102  1.1608 -0.4610
40052SOL    HW225477   8.773   0.703   3.481 -0.6602  1.9040  2.2617
40053SOL     OW25478   2.388  11.137   7.261 -0.3024  0.3506 -0.1654
40053SOL    HW125479   2.342  11.136   7.345 -0.3037 -0.9898 -0.1594
40053SOL    HW225480   2.452  11.207   7.269 -0.1998  0.1359  1.0130
40054SOL     OW25481   8.216   5.031   6.746 -0.0618  0.3690 -0.0998
40054SOL    HW125482   8.212   5.072   6.833 -0.9965  0.4158 -0.1471
40054SOL    HW225483   8.283   4.964   6.755  0.3059  0.7956  0.4719
40055SOL     OW25484   9.789   8.428   1.321  0.4984  0.1542  0.1448
40055SOL    HW125485   9.802   8.517   1.354  0.4756  0.2051  0.0155
40055SOL    HW225486   9.772   8.375   1.400  2.4965 -0.1129  0.4584
40056SOL     OW25487   3.011   1.114   0.028  0.1235 -0.5266  0.3243
40056SOL    HW125488   2.923   1.152   0.024  0.3273 -0.1458 -0.7481
40056SOL    HW225489   3.069   1.183  -0.002  0.8900 -0.5250  1.7340
40057SOL     OW25490   6.062   7.451   1.127  0.6919 -0.2613 -0.5488
40057SOL    HW125491   5.976   7.432   1.164  1.0274  0.4887  0.6836
40057SOL    HW225492   6.043   7.495   1.044 -0.1103 -0.3486 -0.4205
40058SOL     OW25493   6.510   7.358   4.196 -0.4957 -0.6245 -0.7121
40058SOL    HW125494   6.543   7.331   4.282 -1.0438  1.7998  0.3483
40058SOL    HW225495   6.576   7.327   4.134  1.7250  0.5436  0.9361
40059SOL     OW25496   8.603   0.882   6.491 -0.0405  0.2801 -0.5139
40059SOL    HW125497   8.596   0.791   6.520  3.1307  0.0380 -0.1304
40059SOL    HW225498   8.532   0.893   6.427 -0.8604 -2.2497 -0.1499
40060SOL     OW25499   8.502   4.255   0.719 -1.0809  0.8230 -0.3085
40060SOL    HW125500   8.474   4.315   0.651 -1.6807  1.8495  0.8009
40060SOL    HW225501   8.593   4.279   0.737 -1.4526  1.7421  0.4430
40061SOL     OW25502   4.718  11.257   5.825 -0.2676 -0.3832 -0.6574
40061SOL    HW125503   4.751  11.168   5.825  0.7607 -0.0332 -2.0092
40061SOL    HW225504   4.745  11.293   5.741 -0.8931  1.1193 -0.2524
40062SOL     OW25505   3.990   7.522   7.715  0.1165  0.2616 -0.3653
40062SOL    HW125506   4.019   7.461   7.647  0.6988 -0.7366  0.7177
40062SOL    HW225507   4.065   7.580   7.728 -0.4136  1.1916 -1.3494
40063SOL     OW25508   7.616   0.273   4.064  0.6436 -0.1384  0.0215
40063SOL    HW125509   7.565   0.247   4.140  0.0771 -0.6293 -0.5186
40063SOL    HW225510   7.573   0.230   3.990  0.9654  0.6129 -0.6230
40064SOL     OW25511   9.570   1.273   4.018  0.4481 -0.6762  0.2291
40064SOL    HW125512   9.526   1.189   4.026 -0.8152  0.0286  1.0070
40064SOL    HW225513   9.513   1.325   3.961  0.2438  0.2453  1.2328
40065SOL     OW25514   2.320   7.309   8.988  0.1964 -0.0077 -0.4337
40065SOL    HW125515   2.258   7.237   9.001  0.1861  0.2864  1.4402
40065SOL    HW225516   2.406   7.269   9.001  0.2259  0.1765 -0.0547
40066SOL     OW25517  10.556   6.561   1.851 -0.6810  0.3402  0.4368
40066SOL    HW125518  10.614   6.637   1.847 -0.1225 -0.0782  0.4457
40066SOL    HW225519  10.493   6.583   1.920 -0.3556  0.6790  0.6305
40067SOL     OW25520   9.031   2.082   6.527 -0.2466 -0.0187 -0.0056
40067SOL    HW125521   8.935   2.081   6.537 -0.2299 -0.7497  0.1238
40067SOL    HW225522   9.056   1.990   6.529  0.3657  0.1132 -1.0178
40068SOL     OW25523  11.376   2.079   3.313  0.2340 -0.0362 -0.4147
40068SOL    HW125524  11.374   2.137   3.389 -0.8792 -0.9318  0.2786
40068SOL    HW225525  11.285   2.073   3.285  0.4679 -0.6454 -1.0891
40069SOL     OW25526  10.218   6.555   2.858 -0.4609 -0.0087  0.4027
40069SOL    HW125527  10.162   6.632   2.846  1.6813  1.9724  2.0511
40069SOL    HW225528  10.209   6.535   2.952  1.5374  0.4041  0.7161
40070SOL     OW25529   7.706   6.585   1.477  0.7016  0.3077 -0.1377
40070SOL    HW125530   7.711   6.537   1.394  1.6564  0.0959  0.0368
40070SOL    HW225531   7.756   6.666   1.461  0.2667  0.6084  0.0060
40071SOL     OW25532  11.506   7.475   3.571  0.2321  0.0108 -0.4687
40071SOL    HW125533  11.447   7.514   3.506  0.7392  0.8431 -0.4490
40071SOL    HW225534  11.494   7.529   3.649 -0.1493 -0.7968  0.0419
40072SOL     OW25535  11.184   6.077   4.111 -0.3739 -0.0585  0.1528
40072SOL    HW125536  11.128   6.129   4.053  1.8238  0.5798 -1.5550
40072SOL    HW225537  11.184   6.125   4.193  0.6675  2.1399 -1.0307
40073SOL     OW25538   6.661  10.329   6.429  0.5379 -0.4161  0.9634
40073SOL    HW125539   6.609  10.344   6.350 -1.4128 -0.1331  2.2266
40073SOL    HW225540   6.750  10.356   6.404 -0.2690  0.9168 -0.7436
40074SOL     OW25541  11.066   9.314  11.725 -0.6999 -0.0569 -0.0732
40074SOL    HW125542  11.065   9.409  11.719  0.1306 -0.1131 -1.3776
40074SOL    HW225543  11.042   9.296  11.816 -3.0752  1.2992 -0.3627
40075SOL     OW25544  11.091   7.526   2.452 -0.0674  0.5280  0.2034
40075SOL    HW125545  11.146   7.548   2.377  1.1662  0.4488  1.0471
40075SOL    HW225546  11.127   7.577   2.525 -1.3588  0.7599  0.7199
40076SOL     OW25547   9.795   3.613   6.168  0.0336  0.3739 -0.1201
40076SOL    HW125548   9.775   3.663   6.089 -0.5732  1.3522  0.6212
40076SOL    HW225549   9.753   3.528   6.155  0.4111  0.3281 -1.0741
40077SOL     OW25550   7.971   1.359   6.870 -0.3420 -0.3144  0.1790
40077SOL    HW125551   8.003   1.437   6.825  0.5277 -0.4964  0.4519
40077SOL    HW225552   7.950   1.298   6.799  2.4662 -1.1693 -0.0479
40078SOL     OW25553   1.924   8.032  10.577  0.4347  0.2888  0.3500
40078SOL    HW125554   1.899   8.062  10.664 -0.5483 -1.2158  0.6267
40078SOL    HW225555   1.972   8.105  10.538 -2.3687  2.4493  0.7032
40079SOL     OW25556   7.520   9.800   8.506  0.0752  0.1617 -0.7688
40079SOL    HW125557   7.528   9.781   8.600  0.3023  1.9939 -0.3793
40079SOL    HW225558   7.609   9.794   8.473  0.5601  2.6821 -0.1510
40080SOL     OW25559   2.943   5.102   6.481  0.0746 -0.2345 -0.1033
40080SOL    HW125560   3.007   5.081   6.549 -0.7683 -2.7185  0.0522
40080SOL    HW225561   2.986   5.076   6.399 -0.0278 -0.0805 -0.2068
40081SOL     OW25562   4.217   1.262  10.123  0.3921  0.1810  0.1976
40081SOL    HW125563   4.221   1.204  10.200 -1.1988 -0.4497 -0.1642
40081SOL    HW225564   4.308   1.274  10.098  0.8487 -0.8537  1.2575
40082SOL     OW25565   9.789   1.301   8.923 -0.0884 -0.2423  0.0454
40082SOL    HW125566   9.715   1.306   8.983 -1.6217  0.6270 -1.8189
40082SOL    HW225567   9.815   1.392   8.908  1.1500 -0.5178  0.3993
40083SOL     OW25568   6.890   1.200  11.393  0.0064 -0.4160  0.1925
40083SOL    HW125569   6.833   1.199  11.316 -1.3817  0.3761  1.1528
40083SOL    HW225570   6.942   1.279  11.384 -0.2816 -0.2301  0.1533
40084SOL     OW25571  11.735   8.637  11.703  0.1339  0.0541 -0.2197
40084SOL    HW125572  11.769   8.676  11.784  0.9826 -1.3902  0.1564
40084SOL    HW225573  11.787   8.558  11.691 -2.6563 -1.9787  0.0191
40085SOL     OW25574   0.049  11.288   8.868  0.2497 -0.2862  0.1910
40085SOL    HW125575   0.119  11.225   8.888  0.6975  0.1171 -0.0761
40085SOL    HW225576   0.039  11.283   8.773 -0.1071 -0.3609  0.2313
40086SOL     OW25577   9.599   8.527   4.120  0.3899  0.1263 -0.1608
40086SOL    HW125578   9.550   8.446   4.139 -2.5944  1.6970 -0.5778
40086SOL    HW225579   9.632   8.555   4.205  1.6285 -1.5415 -0.0262
40087SOL     OW25580   4.103   6.734  10.790 -0.6180 -0.4189  0.2088
40087SOL    HW125581   4.058   6.663  10.837  0.0065 -0.5884  0.5711
40087SOL    HW225582   4.033   6.794  10.765 -1.3338 -1.7960 -1.2531
40088SOL     OW25583   7.292   8.070   3.111 -0.1801 -0.6820 -0.1591
40088SOL    HW125584   7.333   8.065   3.197  2.0491  0.3502 -1.0840
40088SOL    HW225585   7.336   8.003   3.059  1.5824  1.4644 -1.6082
40089SOL     OW25586   9.008   0.088   0.610 -0.3493 -0.0211 -0.0340
40089SOL    HW125587   9.069   0.027   0.569 -0.9282 -1.0159  0.5575
40089SOL    HW225588   8.922   0.047   0.601 -0.7464  0.6905  0.3864
40090SOL     OW25589   2.127   5.683   9.218  0.1317  1.0452  0.2385
40090SOL    HW125590   2.165   5.766   9.246 -0.1255  1.7725 -1.4225
40090SOL    HW225591   2.036   5.687   9.245  0.4062  0.7448  1.2547
40091SOL     OW25592   5.896   7.344   7.002 -0.2544 -0.1950  0.8184
40091SOL    HW125593   5.882   7.427   7.048 -0.8589 -0.2175  0.6875
40091SOL    HW225594   5.821   7.290   7.028  1.2376 -1.5091  2.6658
40092SOL     OW25595   9.136   1.388   0.027 -0.0703 -0.2055 -0.2998
40092SOL    HW125596   9.054   1.387  -0.022 -0.0399 -0.9854 -0.3474
40092SOL    HW225597   9.163   1.296   0.031  0.6885  0.0160 -0.0966
40093SOL     OW25598   7.058   2.775   1.216 -0.1927 -0.0491 -0.3037
40093SOL    HW125599   7.152   2.782   1.201 -0.0647 -0.0083  0.4354
40093SOL    HW225600   7.045   2.817   1.302 -0.9171  0.1671 -0.5107
40094SOL     OW25601   9.510   4.236   9.539  0.1323 -0.1640  0.2287
40094SOL    HW125602   9.505   4.148   9.576  0.7524 -0.1633  0.3334
40094SOL    HW225603   9.526   4.293   9.615  1.2689 -0.1462 -0.0087
40095SOL     OW25604   5.781   5.712   3.037  0.0168  0.3491  0.0220
40095SOL    HW125605   5.745   5.664   2.963  1.0893  1.1450 -1.0619
40095SOL    HW225606   5.808   5.796   3.000  1.7530  0.2898  1.0326
40096SOL     OW25607   9.295  10.148   0.503  0.4034 -0.6330  0.1633
40096SOL    HW125608   9.280  10.076   0.442 -1.0638 -0.2891  0.0927
40096SOL    HW225609   9.231  10.134   0.573 -0.6193  1.1280 -0.3526
40097SOL     OW25610   3.027   3.271  10.408  0.2267  0.0147 -0.6450
40097SOL    HW125611   3.047   3.322  10.329  1.0022  1.3599  0.3834
40097SOL    HW225612   2.946   3.310  10.441 -0.2578 -0.7414 -0.9276
40098SOL     OW25613   4.954   3.728   3.075 -0.6182  0.3744 -0.1281
40098SOL    HW125614   4.889   3.792   3.048  0.0998  1.1704 -0.0066
40098SOL    HW225615   4.963   3.740   3.169  2.0648  2.6028 -0.5472
40099SOL     OW25616   4.387  10.680   4.762 -0.0486  0.2311 -0.1002
40099SOL    HW125617   4.293  10.667   4.747 -0.3055  0.0554  1.4019
40099SOL    HW225618   4.410  10.613   4.826  0.8915  0.8656  0.2520
40100SOL     OW25619   1.475   0.357   7.530 -0.7471  0.0075 -0.2170
40100SOL    HW125620   1.430   0.396   7.456 -2.2013 -1.3555 -0.0983
40100SOL    HW225621   1.414   0.291   7.564  0.8221 -1.0186  0.7583
40101SOL     OW25622  10.222   5.263   0.188 -0.1551  0.0243  0.3393
40101SOL    HW125623  10.314   5.290   0.197 -0.6612  2.1467 -0.2445
40101SOL    HW225624  10.226   5.168   0.179  1.7556 -0.3204  3.3094
40102SOL     OW25625  10.144   6.521   1.734  0.0787  0.1905  0.3399
40102SOL    HW125626  10.098   6.498   1.815 -1.2412 -0.6099 -0.5790
40102SOL    HW225627  10.079   6.571   1.683  0.9472  0.8486 -0.1484
40103SOL     OW25628   3.050  11.029   7.532  0.1024  0.0498 -0.1307
40103SOL    HW125629   3.098  11.110   7.511 -0.3879 -0.0408 -1.6855
40103SOL    HW225630   3.119  10.966   7.552  0.6657  0.0635 -1.8274
40104SOL     OW25631   9.088   0.741   0.613  0.1053  0.3914  0.1329
40104SOL    HW125632   9.105   0.721   0.521 -0.6531  0.4199 -0.0223
40104SOL    HW225633   9.174   0.737   0.655  0.3164 -0.6457 -0.3756
40105SOL     OW25634   9.572  11.083   1.984 -0.0387 -0.0311  0.8065
40105SOL    HW125635   9.635  11.062   2.053 -0.2240 -0.4341  0.8527
40105SOL    HW225636   9.542  10.998   1.952 -0.6617  0.1616  0.8769
40106SOL     OW25637  10.840   9.440  11.309 -0.4355  0.3837  0.1817
40106SOL    HW125638  10.753   9.402  11.297  0.0222 -0.2104 -1.4638
40106SOL    HW225639  10.861   9.422  11.401 -2.5155  1.6243  0.9693
40107SOL     OW25640   2.746  11.534   0.597  0.1619 -0.2027  0.6439
40107SOL    HW125641   2.666  11.501   0.555 -0.8219  1.0464  1.4566
40107SOL    HW225642   2.729  11.525   0.691  1.5845 -1.2446  0.8327
40108SOL     OW25643   0.334   7.549   3.471  0.5261  0.4206 -0.1971
40108SOL    HW125644   0.389   7.519   3.398 -1.2069 -1.4496 -0.8133
40108SOL    HW225645   0.334   7.476   3.533 -1.5405  0.1789 -0.4121
40109SOL     OW25646   0.462   5.968   7.275 -0.0567 -0.4957  0.6672
40109SOL    HW125647   0.471   5.931   7.187  1.3147  1.1257  0.0771
40109SOL    HW225648   0.394   5.915   7.316  0.3817 -2.3033 -0.8193
40110SOL     OW25649   8.782   1.753   5.699 -0.2660  0.5794 -0.0251
40110SOL    HW125650   8.793   1.828   5.758  1.8380 -0.7076  1.3460
40110SOL    HW225651   8.860   1.699   5.714 -0.1192 -0.3309 -3.3028
40111SOL     OW25652  10.683   1.056   2.658  0.2875  0.0545  0.3076
40111SOL    HW125653  10.620   1.014   2.599  1.7179 -2.1302  0.2122
40111SOL    HW225654  10.658   1.149   2.658 -0.2223  0.0740 -3.2198
40112SOL     OW25655   0.643  10.339   2.350 -0.2162 -0.4791  0.5756
40112SOL    HW125656   0.690  10.348   2.267 -0.7653 -0.3255  0.2776
40112SOL    HW225657   0.569  10.281   2.330 -2.1572  1.9618  0.1583
40113SOL     OW25658   9.877   8.827  11.179  0.2869  0.1230 -0.1387
40113SOL    HW125659   9.794   8.816  11.133  1.9232 -1.8706 -2.8640
40113SOL    HW225660   9.892   8.922  11.179 -0.9954  0.3591 -1.5008
40114SOL     OW25661   2.255   1.805  10.737  0.1978 -0.2077 -0.3107
40114SOL    HW125662   2.222   1.736  10.795 -1.4077 -1.9198 -3.0249
40114SOL    HW225663   2.350   1.790  10.733  0.5233  0.5695  2.4533
40115SOL     OW25664  10.854   5.103   4.949 -0.0078  0.4529  0.0326
40115SOL    HW125665  10.800   5.181   4.964 -0.1709  0.2471  0.5302
40115SOL    HW225666  10.812   5.035   5.001  0.4536  0.1701  0.0341
40116SOL     OW25667   5.146   9.308   6.452 -0.0670 -0.1733  0.2472
40116SOL    HW125668   5.063   9.337   6.415  0.0187  0.7695  0.7604
40116SOL    HW225669   5.213   9.351   6.399  0.0625  0.5491  0.9778
40117SOL     OW25670  10.206   0.757   8.112  0.3686  0.4906 -0.3725
40117SOL    HW125671  10.299   0.740   8.125  0.3646  0.4204 -0.4364
40117SOL    HW225672  10.198   0.853   8.113  0.8034  0.6011 -2.8071
40118SOL     OW25673   9.988  10.662   2.116 -0.2690 -0.6309  0.1435
40118SOL    HW125674   9.974  10.742   2.167 -1.1102 -0.5987 -0.1179
40118SOL    HW225675   9.927  10.670   2.042 -2.0475 -2.5475  1.3098
40119SOL     OW25676   4.474   4.543   4.261  0.1646 -0.4851  0.4608
40119SOL    HW125677   4.505   4.455   4.241  0.3408 -0.7017  1.6131
40119SOL    HW225678   4.552   4.597   4.258 -0.1106 -0.1215 -1.4007
40120SOL     OW25679   1.611   5.956   0.307 -0.2388 -0.4167  0.1549
40120SOL    HW125680   1.671   6.001   0.367 -1.7695  1.6562  0.2607
40120SOL    HW225681   1.558   5.900   0.364 -0.0718 -0.3260  0.4035
40121SOL     OW25682   5.244  10.072   8.027 -0.8657 -1.1615  0.0245
40121SOL    HW125683   5.264  10.124   7.950  0.4349 -1.4519  0.1431
40121SOL    HW225684   5.161  10.107   8.059 -0.6690 -0.0449 -0.6444
40122SOL     OW25685   2.462   2.739   4.124  0.1056  0.0085 -0.1799
40122SOL    HW125686   2.396   2.709   4.062  1.1192  0.8165 -1.7379
40122SOL    HW225687   2.517   2.662   4.141 -0.1922 -0.2269 -0.2866
40123SOL     OW25688   2.349   7.137   3.833 -0.1715  0.5000 -0.0688
40123SOL    HW125689   2.363   7.201   3.763  1.8176  0.0935 -0.0991
40123SOL    HW225690   2.428   7.143   3.887 -0.8441 -0.5194  1.0823
40124SOL     OW25691   5.936   8.768   5.134  0.1847  0.0482 -0.5286
40124SOL    HW125692   5.988   8.821   5.074 -1.6998  1.4410 -1.0521
40124SOL    HW225693   5.996   8.743   5.204  1.4372  1.9176 -0.8825
40125SOL     OW25694   7.674  11.177   7.614 -0.1897  0.0949 -0.3488
40125SOL    HW125695   7.689  11.168   7.708 -1.2932  0.6401 -0.1027
40125SOL    HW225696   7.593  11.228   7.607  0.4265  0.9762 -1.5949
40126SOL     OW25697   4.076   8.615  11.745  0.3315 -0.2543 -0.3635
40126SOL    HW125698   4.001   8.557  11.730  0.7430 -0.6951 -0.7543
40126SOL    HW225699   4.038   8.702  11.753 -0.5196 -0.7769  2.1373
40127SOL     OW25700   3.892   8.063   9.303 -0.2253 -0.6108 -0.1995
40127SOL    HW125701   3.818   8.011   9.334 -0.8619 -0.0757 -0.7911
40127SOL    HW225702   3.926   8.106   9.382 -1.3863  0.1807 -0.1081
40128SOL     OW25703   2.444   2.317   9.504  0.2042  0.1935 -0.6720
40128SOL    HW125704   2.477   2.227   9.509  1.1114  0.5625  0.0949
40128SOL    HW225705   2.374   2.312   9.439  0.7493 -0.9156 -1.2098
40129SOL     OW25706  10.311   6.507   0.717 -0.2239  0.1138 -0.2466
40129SOL    HW125707  10.243   6.477   0.657  0.3324  0.0768 -0.8694
40129SOL    HW225708  10.278   6.484   0.804 -0.2445 -1.4788 -0.6400
40130SOL     OW25709   9.712   9.951   4.726  0.6075 -0.1241 -0.2382
40130SOL    HW125710   9.799   9.974   4.694  0.6906  0.6053  0.4573
40130SOL    HW225711   9.727   9.883   4.792  0.7475  0.5456  0.4439
40131SOL     OW25712   4.573   7.445   9.049  0.1381 -0.4464  0.6904
40131SOL    HW125713   4.530   7.391   9.116  0.6396 -0.1440  1.2679
40131SOL    HW225714   4.610   7.519   9.098  0.2039 -0.0275  0.0266
40132SOL     OW25715   5.476   7.983   8.180  0.2876  0.5568  0.2561
40132SOL    HW125716   5.482   8.055   8.243 -0.3802  1.8566 -1.1008
40132SOL    HW225717   5.383   7.978   8.158  0.1974 -1.2962  0.9385
40133SOL     OW25718   9.557   2.828   3.095 -0.1332 -0.1270  0.8608
40133SOL    HW125719   9.516   2.912   3.080 -0.2535 -0.4323 -0.6075
40133SOL    HW225720   9.520   2.797   3.178 -1.7032  0.2930  0.3437
40134SOL     OW25721   1.671   2.955   5.322  0.2153 -0.0876  0.4812
40134SOL    HW125722   1.652   3.031   5.266  1.6048  0.3743  0.5849
40134SOL    HW225723   1.734   2.904   5.271  0.8622 -0.0882  1.2544
40135SOL     OW25724   3.680   9.228   1.534 -0.9571 -0.1505  0.7255
40135SOL    HW125725   3.618   9.156   1.524 -1.3595  0.4070 -1.2275
40135SOL    HW225726   3.758   9.200   1.488 -0.9440  0.4491  0.3707
40136SOL     OW25727   7.460   1.738   1.339  0.6008  0.7326 -0.5414
40136SOL    HW125728   7.443   1.698   1.424 -0.0613  1.7175 -0.1962
40136SOL    HW225729   7.549   1.773   1.346  0.3214  1.3558 -0.0299
40137SOL     OW25730   2.946   5.257   0.103 -0.4289 -0.1563 -0.3682
40137SOL    HW125731   2.971   5.258   0.195 -2.3575 -1.8430  0.2271
40137SOL    HW225732   2.927   5.349   0.083 -1.7747  0.0149  1.4659
40138SOL     OW25733   1.050   0.848   9.017 -0.1198 -0.4232 -0.3456
40138SOL    HW125734   0.999   0.778   8.976 -0.1139 -0.3700 -0.4431
40138SOL    HW225735   0.991   0.886   9.082 -0.0840 -0.5951 -0.2105
40139SOL     OW25736   4.166   9.204   8.968  0.3965 -0.2948 -0.1777
40139SOL    HW125737   4.213   9.126   8.939 -1.8879 -2.0477  0.5288
40139SOL    HW225738   4.083   9.170   9.003 -0.5146  2.4333  0.5268
40140SOL     OW25739   9.502   7.491   0.871  0.4097 -0.0055 -0.7657
40140SOL    HW125740   9.562   7.420   0.847 -0.7847 -1.0216 -0.8139
40140SOL    HW225741   9.551   7.571   0.851  1.1634 -0.8034 -2.3201
40141SOL     OW25742   4.177   0.922   2.904  0.1667 -0.4580  0.2314
40141SOL    HW125743   4.267   0.893   2.916  0.1694 -0.3949  0.3597
40141SOL    HW225744   4.174   1.009   2.943  0.0769 -0.4166  0.1330
40142SOL     OW25745   7.954   0.708  10.647 -0.3727 -0.0026  0.4289
40142SOL    HW125746   7.873   0.663  10.670  0.2867 -0.0960  2.8522
40142SOL    HW225747   7.927   0.796  10.621 -1.1693  0.8874  3.8217
40143SOL     OW25748   6.274   7.633   9.226 -0.1180  0.1326 -0.6294
40143SOL    HW125749   6.193   7.676   9.198 -1.0656 -1.4351 -0.4061
40143SOL    HW225750   6.323   7.701   9.272 -1.8461  0.8062  0.2888
40144SOL     OW25751   9.629   7.877   3.403 -0.0193  0.0860  0.3444
40144SOL    HW125752   9.671   7.929   3.334  1.6938  1.5215  2.3241
40144SOL    HW225753   9.556   7.932   3.433 -0.3957 -0.2668  0.0812
40145SOL     OW25754  11.730   4.755   8.253  0.9442  0.4136  0.2572
40145SOL    HW125755  11.712   4.799   8.170  1.6638 -0.5803 -0.4502
40145SOL    HW225756  11.649   4.709   8.274  1.1215 -0.2606 -0.4982
40146SOL     OW25757  11.771   2.894   8.735  0.2238 -0.0160  0.0947
40146SOL    HW125758  11.732   2.888   8.822 -0.3415  0.4949 -0.1164
40146SOL    HW225759  11.697   2.899   8.675  0.6101 -0.6394 -0.4423
40147SOL     OW25760   2.461   2.338   4.825  0.2944 -0.4211 -0.1599
40147SOL    HW125761   2.520   2.408   4.854 -1.4697  0.8784  0.4196
40147SOL    HW225762   2.489   2.261   4.874  1.9750 -0.0403 -0.4592
40148SOL     OW25763   8.720   9.480   9.656  0.1237 -0.7901 -0.1528
40148SOL    HW125764   8.642   9.426   9.644  0.8978 -1.9891  0.0007
40148SOL    HW225765   8.789   9.417   9.679  1.3282  0.1260 -1.1127
40149SOL     OW25766   3.478  11.106   3.755 -0.2169  0.2955 -0.2949
40149SOL    HW125767   3.566  11.071   3.744 -0.3743  0.1358 -1.1500
40149SOL    HW225768   3.440  11.104   3.667 -0.7336  1.2830 -0.1113
40150SOL     OW25769   8.989   4.852   1.728  0.3500  0.3093 -0.5819
40150SOL    HW125770   8.931   4.778   1.745  1.1006 -0.2177 -0.2653
40150SOL    HW225771   9.074   4.812   1.709  1.4613  1.1277  2.1667
40151SOL     OW25772   6.563  11.295   7.117 -0.2896  0.5349  0.0871
40151SOL    HW125773   6.523  11.339   7.192 -0.0810  0.6864  0.1115
40151SOL    HW225774   6.491  11.247   7.076 -0.5760  1.0884 -0.0787
40152SOL     OW25775   4.202   5.729   6.050  0.5229 -0.2215  0.1977
40152SOL    HW125776   4.227   5.780   6.128 -0.9729  0.0730  0.5069
40152SOL    HW225777   4.142   5.785   6.002  0.9176 -0.6667 -0.8420
40153SOL     OW25778   8.616   6.637   6.761 -0.6733 -0.3023 -0.4049
40153SOL    HW125779   8.667   6.714   6.785  1.3972 -1.3553 -1.1829
40153SOL    HW225780   8.588   6.654   6.671  0.2737 -0.6773 -0.7801
40154SOL     OW25781   0.310  11.465   7.093 -0.0202  0.8166 -0.4022
40154SOL    HW125782   0.346  11.511   7.170 -0.3144 -0.7881  0.7489
40154SOL    HW225783   0.352  11.379   7.095 -1.8403 -0.1154 -0.6252
40155SOL     OW25784  11.067   4.880   5.271  0.0337  0.0329 -0.2918
40155SOL    HW125785  11.031   4.968   5.269 -0.5826 -0.2052  0.0648
40155SOL    HW225786  11.011   4.832   5.332 -1.1614 -1.2796 -2.3193
40156SOL     OW25787   5.571   3.746   5.870 -0.3495  0.5097 -0.0436
40156SOL    HW125788   5.651   3.705   5.904 -0.1974  0.4651 -0.4451
40156SOL    HW225789   5.555   3.820   5.929 -0.3802  0.1298  0.4275
40157SOL     OW25790   0.075   5.570   1.563  0.1406  0.2080  0.6629
40157SOL    HW125791   0.061   5.664   1.557  0.3544  0.1387 -1.4768
40157SOL    HW225792  -0.009   5.531   1.539  0.5575 -0.1304 -0.3137
40158SOL     OW25793   7.246   7.404   0.093  0.1480 -0.2496  0.0816
40158SOL    HW125794   7.187   7.444   0.029 -1.1429 -0.4633  1.1058
40158SOL    HW225795   7.333   7.419   0.057 -0.2726  2.9688  0.1087
40159SOL     OW25796   5.165   5.650   6.715  0.3690  0.3139  0.5409
40159SOL    HW125797   5.173   5.742   6.741 -2.3259  0.6178  0.5870
40159SOL    HW225798   5.103   5.652   6.642  0.1356 -1.4708  0.6646
40160SOL     OW25799   4.568   1.933  10.221  0.1560  0.0355 -0.1559
40160SOL    HW125800   4.498   1.979  10.175 -1.3251 -0.4427  1.5277
40160SOL    HW225801   4.559   1.842  10.194 -1.4726 -0.4680  1.8311
40161SOL     OW25802   2.933   1.691   1.954  0.3210  0.1693 -0.1543
40161SOL    HW125803   2.848   1.671   1.915  0.1848  2.9199 -1.4656
40161SOL    HW225804   2.997   1.666   1.888  0.4602 -0.5738  0.2547
40162SOL     OW25805   0.595   6.975   2.492 -0.3932  0.1768 -0.2159
40162SOL    HW125806   0.599   7.064   2.528  0.9472  0.0945 -0.0931
40162SOL    HW225807   0.609   6.918   2.568 -0.5692 -0.1095 -0.4001
40163SOL     OW25808   6.146  10.180   4.968  0.3489  0.3473 -0.0474
40163SOL    HW125809   6.057  10.174   4.935 -0.2070 -1.5012  1.5654
40163SOL    HW225810   6.194  10.111   4.923  0.7394  0.7170 -0.2144
40164SOL     OW25811   2.400   5.723   7.402 -0.1256  0.1461 -0.3575
40164SOL    HW125812   2.417   5.816   7.418 -1.2883  0.4880 -1.0702
40164SOL    HW225813   2.487   5.686   7.382  0.0765  1.4867 -2.1375
40165SOL     OW25814   0.863   0.678   8.345  0.8177  0.3189 -0.4744
40165SOL    HW125815   0.868   0.631   8.262 -0.0003  0.1134 -0.4187
40165SOL    HW225816   0.827   0.764   8.322 -1.4613 -0.4504 -0.1121
40166SOL     OW25817   2.571   6.607   4.380  0.1734 -0.1122  0.4115
40166SOL    HW125818   2.491   6.577   4.338 -0.1976  1.8240 -0.4109
40166SOL    HW225819   2.547   6.623   4.471 -0.3861  0.3858  0.1864
40167SOL     OW25820   8.954   1.403   3.748 -0.7688  0.5125  0.0412
40167SOL    HW125821   8.916   1.316   3.741 -0.6499  0.5497 -1.5794
40167SOL    HW225822   9.041   1.395   3.708  0.5108  0.7151  2.5835
40168SOL     OW25823  11.258   3.136   5.989 -0.2931 -0.2690  0.3244
40168SOL    HW125824  11.313   3.071   5.946  1.0290 -0.2258  1.8701
40168SOL    HW225825  11.246   3.103   6.078  1.3727  2.0791  1.5276
40169SOL     OW25826  10.079   0.655   1.104 -0.0244 -0.6038 -0.6304
40169SOL    HW125827  10.069   0.570   1.146 -0.4978 -0.0199  0.4870
40169SOL    HW225828  10.008   0.658   1.039 -0.7546 -0.6027  0.1463
40170SOL     OW25829  10.833   3.339   2.464  0.3329  0.1520  0.2238
40170SOL    HW125830  10.766   3.397   2.500  0.1525  0.7272 -0.9970
40170SOL    HW225831  10.916   3.373   2.499  0.1343  0.5278  0.3334
40171SOL     OW25832   9.595   0.819   6.680  0.0564 -0.1747  0.5419
40171SOL    HW125833   9.507   0.855   6.689 -0.1746 -0.7414  0.6321
40171SOL    HW225834   9.645   0.858   6.751  0.5522  2.0712 -0.9516
40172SOL     OW25835   1.153   3.287   3.219 -0.1642  0.4404 -0.0461
40172SOL    HW125836   1.168   3.193   3.223  0.1524  0.5221  1.7787
40172SOL    HW225837   1.237   3.325   3.247 -0.0066  1.3081 -1.5962
40173SOL     OW25838   5.261   2.590   3.788  0.5135  0.0661 -0.6693
40173SOL    HW125839   5.219   2.619   3.707  3.3507 -0.0216 -2.2734
40173SOL    HW225840   5.335   2.649   3.800  1.5139 -1.3683  0.5803
40174SOL     OW25841   3.867   4.951   3.038 -0.5069 -0.3281 -0.0464
40174SOL    HW125842   3.795   4.941   2.975 -0.3623  0.7704 -0.4074
40174SOL    HW225843   3.842   5.027   3.091  0.1011 -0.3166  0.2323
40175SOL     OW25844  10.005   5.428   7.396  0.2426 -0.6057 -0.5341
40175SOL    HW125845  10.022   5.471   7.480 -1.4432 -0.4106 -0.2554
40175SOL    HW225846   9.948   5.355   7.418 -1.9748  0.6705 -1.6999
40176SOL     OW25847   4.452   1.217   0.634  0.4015 -0.1587 -0.3435
40176SOL    HW125848   4.395   1.215   0.710 -0.5417  1.5444 -0.9593
40176SOL    HW225849   4.541   1.220   0.670 -0.0708  3.1300  0.8263
40177SOL     OW25850   1.068   7.940   8.208  0.1223  0.3755  0.3395
40177SOL    HW125851   1.091   7.991   8.131  0.4023  0.1905  0.2954
40177SOL    HW225852   0.973   7.945   8.215  0.2218  1.7867  0.9471
40178SOL     OW25853  10.611  10.507  10.222 -0.4695  0.0382 -0.0756
40178SOL    HW125854  10.542  10.573  10.210 -1.1313 -0.3067  1.5552
40178SOL    HW225855  10.679  10.532  10.160 -0.4949  2.5386  0.7770
40179SOL     OW25856   7.695   3.161   2.316  0.1932 -0.1456  0.3541
40179SOL    HW125857   7.752   3.099   2.270  0.7434  0.6096 -0.0090
40179SOL    HW225858   7.670   3.224   2.249 -1.5419 -0.7573  0.3727
40180SOL     OW25859   6.605   1.588   5.849  0.7218  0.5217 -0.1050
40180SOL    HW125860   6.611   1.537   5.929  2.0143 -2.3006 -1.8481
40180SOL    HW225861   6.692   1.583   5.810  0.1533  1.8675 -1.6576
40181SOL     OW25862   9.653   9.337   3.320 -0.4704  0.5480 -0.5483
40181SOL    HW125863   9.680   9.420   3.282 -1.9328  1.1911 -0.2423
40181SOL    HW225864   9.607   9.361   3.401 -0.3564 -0.5960 -0.1205
40182SOL     OW25865  11.770   4.897   3.803 -0.0222  0.3166 -0.1578
40182SOL    HW125866  11.803   4.986   3.813  1.0756 -0.1648  0.7293
40182SOL    HW225867  11.736   4.873   3.889  1.0052 -0.6078  0.0182
40183SOL     OW25868   3.883   0.794  11.620 -0.4876 -0.1079  0.5566
40183SOL    HW125869   3.909   0.816  11.530 -1.8234 -1.4396 -0.1997
40183SOL    HW225870   3.796   0.833  11.630 -1.1193 -1.4614  0.6075
40184SOL     OW25871   8.569  11.754   6.192 -0.4437 -0.3155 -0.0164
40184SOL    HW125872   8.626  11.721   6.123 -0.8742 -0.0559 -0.5020
40184SOL    HW225873   8.521  11.677   6.222 -0.0518 -0.4798  0.1912
40185SOL     OW25874   3.255   3.001   0.490 -0.0167 -0.0495  0.1375
40185SOL    HW125875   3.277   3.060   0.417 -0.6520 -0.1380 -0.1327
40185SOL    HW225876   3.190   2.941   0.453  1.4000 -1.6231  0.0812
40186SOL     OW25877   5.633   9.891   8.044 -0.1974  0.1886  0.2558
40186SOL    HW125878   5.567   9.835   8.003  0.5092 -1.1182  0.8474
40186SOL    HW225879   5.585   9.942   8.109 -0.6621 -0.5880  0.5278
40187SOL     OW25880   0.657  11.064   9.902 -0.7064 -0.6383 -0.1890
40187SOL    HW125881   0.649  10.994   9.838 -1.4903  0.6532 -1.5645
40187SOL    HW225882   0.731  11.116   9.872  0.4238 -1.3199  1.3071
40188SOL     OW25883   4.602   6.332   8.346 -0.0923 -0.2292  0.2670
40188SOL    HW125884   4.643   6.256   8.387 -0.1265  0.6285  1.9949
40188SOL    HW225885   4.583   6.391   8.419 -1.7650  0.6420 -0.8047
40189SOL     OW25886   3.820   7.525  10.224 -0.5241  0.2940  0.4367
40189SOL    HW125887   3.743   7.531  10.281  1.0540  1.8689  2.6053
40189SOL    HW225888   3.875   7.459  10.266 -0.6095 -0.7152 -1.0078
40190SOL     OW25889   5.308   3.487   4.683 -0.3401 -0.0328 -0.1960
40190SOL    HW125890   5.225   3.515   4.722 -0.0111 -0.2016  0.6252
40190SOL    HW225891   5.337   3.563   4.632 -0.3712  0.4687  0.5294
40191SOL     OW25892  11.352  11.351   1.076 -0.1388  0.2368  0.0616
40191SOL    HW125893  11.293  11.365   1.150 -0.4782 -0.8903  0.0135
40191SOL    HW225894  11.301  11.376   0.999 -0.3116 -0.0696  0.0778
40192SOL     OW25895   1.723   7.433   6.794 -0.0812 -0.2941  0.4120
40192SOL    HW125896   1.792   7.405   6.854  0.2802 -1.8153 -0.6680
40192SOL    HW225897   1.648   7.378   6.817 -0.3703  0.0790  0.3717
40193SOL     OW25898   8.359   9.914   0.994 -0.4853 -0.0639  0.2631
40193SOL    HW125899   8.326   9.827   1.015 -1.7837  0.4765  0.6048
40193SOL    HW225900   8.454   9.905   0.992 -0.6400 -1.7496 -0.9494
40194SOL     OW25901   2.699  10.768  10.505  0.0774 -0.0326 -1.1810
40194SOL    HW125902   2.657  10.847  10.472 -0.6046 -0.1084 -0.5225
40194SOL    HW225903   2.668  10.760  10.595  0.8110 -0.5849 -0.9673
40195SOL     OW25904   1.551   5.606   8.034 -0.1697 -0.0118  0.5056
40195SOL    HW125905   1.526   5.673   7.971 -0.8381 -0.4127  0.3332
40195SOL    HW225906   1.620   5.556   7.990  0.3850  0.6029  0.6662
40196SOL     OW25907  10.886   8.336   3.501  0.1961 -0.3939  0.1459
40196SOL    HW125908  10.925   8.400   3.561 -0.4570 -0.0831  0.2534
40196SOL    HW225909  10.961   8.290   3.463  0.7113  0.8515 -0.4000
40197SOL     OW25910   0.311   1.559   0.893  0.0892 -0.0787 -0.0209
40197SOL    HW125911   0.378   1.588   0.954  0.6204  0.4422 -0.8286
40197SOL    HW225912   0.341   1.473   0.862  0.2099  0.0035 -0.1303
40198SOL     OW25913   1.255   8.532   7.530 -0.8184 -0.2317  0.0085
40198SOL    HW125914   1.228   8.548   7.440  2.5349  2.8298 -0.6805
40198SOL    HW225915   1.344   8.497   7.524  0.4248  2.1984  1.9968
40199SOL     OW25916   0.993  10.542   5.877 -0.0504 -0.0747 -0.4308
40199SOL    HW125917   0.897  10.546   5.879 -0.0943 -0.2084 -1.7407
40199SOL    HW225918   1.020  10.624   5.836  0.3396 -0.4677 -0.9803
40200SOL     OW25919   3.597   8.554   0.076 -0.7424  0.2859 -0.0144
40200SOL    HW125920   3.516   8.572   0.027 -1.2762 -0.7374  0.4682
40200SOL    HW225921   3.624   8.467   0.047 -0.1925  0.3279  0.3536
40201SOL     OW25922   0.977   9.238   2.646  0.4945  0.0382 -0.4485
40201SOL    HW125923   0.901   9.231   2.588 -0.5019 -1.7166  0.9668
40201SOL    HW225924   0.944   9.285   2.722  1.7675  2.2261 -1.1682
40202SOL     OW25925   4.107   5.265   4.964 -0.1190  0.4803 -0.2571
40202SOL    HW125926   4.062   5.338   4.921 -0.0227  1.3472  1.0455
40202SOL    HW225927   4.197   5.271   4.931 -0.2255  0.6645 -0.5222
40203SOL     OW25928  11.773  10.149   9.767 -0.0117  0.4360 -0.2793
40203SOL    HW125929  11.824  10.228   9.781  2.5736 -1.0321 -0.8024
40203SOL    HW225930  11.722  10.165   9.688  0.5071  1.5402 -0.3915
40204SOL     OW25931   8.602   8.391   0.394 -0.2628 -0.5072  0.0716
40204SOL    HW125932   8.683   8.356   0.431 -0.0359  0.3633  0.4259
40204SOL    HW225933   8.602   8.484   0.419  0.0947  0.2572 -2.4542
40205SOL     OW25934   0.972   0.707  10.434  0.0097 -0.2810 -0.5144
40205SOL    HW125935   1.053   0.721  10.385  0.6133  0.8311  0.7385
40205SOL    HW225936   0.967   0.782  10.493 -0.6084 -1.6392  1.2256
40206SOL     OW25937   5.387   5.848   2.311  0.4854 -0.5302  0.2380
40206SOL    HW125938   5.446   5.880   2.243  1.0690 -2.0229 -0.0085
40206SOL    HW225939   5.314   5.809   2.263  0.0196 -0.0195  0.5155
40207SOL     OW25940   9.221   4.257   9.076  0.3524  0.5608 -0.5138
40207SOL    HW125941   9.145   4.307   9.107  0.2973  0.3157 -0.2577
40207SOL    HW225942   9.186   4.172   9.052  0.5364  0.4710 -0.4634
40208SOL     OW25943   4.246  11.715   9.521  0.4435 -0.0783 -0.5783
40208SOL    HW125944   4.246  11.756   9.435  3.0052 -1.2604 -1.2103
40208SOL    HW225945   4.283  11.781   9.579 -1.3920  0.7620 -0.2941
40209SOL     OW25946   7.789   9.939   6.156 -0.3864 -0.2000  0.4243
40209SOL    HW125947   7.714   9.940   6.215  1.0816 -1.6617  2.4591
40209SOL    HW225948   7.842  10.015   6.183 -0.5809  0.1846 -0.2581
40210SOL     OW25949   8.818   5.924   7.638  0.1900 -0.1072  0.0569
40210SOL    HW125950   8.783   5.972   7.713  0.2787 -1.5651  1.0797
40210SOL    HW225951   8.865   5.990   7.587 -0.7518  1.1136  0.7311
40211SOL     OW25952   1.638   0.316   6.204  0.6202 -0.3326  0.1256
40211SOL    HW125953   1.640   0.296   6.298 -3.3317  1.0113  0.6772
40211SOL    HW225954   1.622   0.410   6.200 -0.0468 -0.4891 -1.8590
40212SOL     OW25955   0.341  10.367   0.096  0.3557  0.2336 -0.1494
40212SOL    HW125956   0.417  10.418   0.126  2.1644 -3.3548  2.1292
40212SOL    HW225957   0.284  10.431   0.053  3.7999  3.4921 -0.3981
40213SOL     OW25958   1.853   4.890   9.862  0.2460  0.6313 -0.1556
40213SOL    HW125959   1.908   4.913   9.937  0.7014 -1.6835  0.3026
40213SOL    HW225960   1.763   4.897   9.895  0.4434 -0.4265  0.6720
40214SOL     OW25961  11.285  11.094   5.952 -0.6754 -0.3795 -0.5322
40214SOL    HW125962  11.280  11.039   6.030  3.6837  0.0679  0.3607
40214SOL    HW225963  11.353  11.053   5.898 -0.1833  1.9014 -1.7917
40215SOL     OW25964   3.975   3.087  11.485 -0.1793 -0.0816 -0.5684
40215SOL    HW125965   3.927   3.040  11.417 -1.0714 -0.1304  0.0893
40215SOL    HW225966   3.914   3.093  11.559  0.0804  1.6604 -0.4521
40216SOL     OW25967   7.584   0.563   8.332 -0.0030  0.4314 -0.1730
40216SOL    HW125968   7.618   0.645   8.366 -0.1156  0.2751  0.3223
40216SOL    HW225969   7.650   0.533   8.270  0.0090  0.9261 -0.4005
40217SOL     OW25970   3.225  10.153   5.497 -0.5571 -0.0689 -0.1096
40217SOL    HW125971   3.295  10.111   5.547 -0.0232  0.5031 -0.3541
40217SOL    HW225972   3.164  10.083   5.476  0.1472 -0.6568 -0.2294
40218SOL     OW25973   7.165   2.329   3.046  0.3410  0.2743 -0.2015
40218SOL    HW125974   7.197   2.399   2.989  1.8829  0.5365  0.9326
40218SOL    HW225975   7.170   2.250   2.993 -0.3269  0.8249 -1.1186
40219SOL     OW25976   3.321   2.317   6.206  0.2786  0.0432 -0.6674
40219SOL    HW125977   3.295   2.408   6.215  2.6862  0.5671  2.5096
40219SOL    HW225978   3.239   2.268   6.213 -0.8822  1.8684 -0.8081
40220SOL     OW25979   2.416   9.893   1.519 -0.4799 -0.2033 -0.5966
40220SOL    HW125980   2.443   9.869   1.430 -1.4097 -0.9598 -0.6908
40220SOL    HW225981   2.371   9.816   1.552 -0.9899  0.4137  0.1805
40221SOL     OW25982   9.166   7.620  10.183  0.2452 -0.8877 -0.1643
40221SOL    HW125983   9.136   7.688  10.243  0.1484 -0.8436 -0.2630
40221SOL    HW225984   9.107   7.546  10.199 -0.2555 -0.6126 -0.7433
40222SOL     OW25985   7.060   3.199  11.493 -0.2351  0.3117 -0.1229
40222SOL    HW125986   7.108   3.117  11.506 -2.4769 -0.9755  0.4877
40222SOL    HW225987   7.064   3.214  11.398  1.8402  0.5902 -0.0360
40223SOL     OW25988   4.315   5.326   1.065 -0.5286 -0.1931  0.5570
40223SOL    HW125989   4.377   5.316   1.138  0.5381  2.0222  0.0680
40223SOL    HW225990   4.247   5.383   1.099  1.2960  3.0622 -0.7255
40224SOL     OW25991   4.227   1.286   7.840  0.5998  0.0557  0.0558
40224SOL    HW125992   4.197   1.276   7.750  1.6739 -2.3181 -0.1081
40224SOL    HW225993   4.196   1.373   7.866 -0.2500  0.5562 -2.3756
40225SOL     OW25994   2.279   0.100   9.813 -0.2306 -0.2187 -0.4733
40225SOL    HW125995   2.258   0.117   9.905  0.5031 -0.5881 -0.2353
40225SOL    HW225996   2.205   0.048   9.781  0.0407 -1.0466  0.2120
40226SOL     OW25997   3.403   7.277   9.804  0.0869  0.6311  0.2224
40226SOL    HW125998   3.389   7.265   9.898  0.1025 -0.7168  0.0771
40226SOL    HW225999   3.490   7.316   9.798 -0.0096  0.9429  0.7838
40227SOL     OW26000   0.081   4.725   6.339  0.0891 -0.0224 -0.0942
40227SOL    HW126001  -0.014   4.715   6.350  0.0743  1.3523  1.3443
40227SOL    HW226002   0.091   4.804   6.287  0.4461 -1.0239 -1.6120
40228SOL     OW26003   7.611   9.943   7.654 -0.1794  0.3426 -0.3136
40228SOL    HW126004   7.613  10.023   7.706  1.7514  0.3821 -0.3542
40228SOL    HW226005   7.569   9.878   7.711 -0.1404  0.9448  0.4108
40229SOL     OW26006  10.367   3.406   6.028 -0.1078 -0.6455  0.4090
40229SOL    HW126007  10.417   3.351   5.968  2.0195  0.9984  0.5401
40229SOL    HW226008  10.401   3.382   6.115  0.3800  0.4063  0.5136
40230SOL     OW26009   0.589  11.331   1.909 -0.1149  0.1503  0.9290
40230SOL    HW126010   0.612  11.405   1.966  1.7417 -0.5523  1.1683
40230SOL    HW226011   0.498  11.347   1.884 -0.3613  1.5014  2.5206
40231SOL     OW26012   7.807   4.734   0.893  0.1933 -0.3059  0.1842
40231SOL    HW126013   7.751   4.662   0.866  1.1381 -1.2497  0.6549
40231SOL    HW226014   7.776   4.756   0.981 -0.6419  0.4580 -0.2788
40232SOL     OW26015   2.446   9.864   8.315 -0.2354 -0.0249 -0.6998
40232SOL    HW126016   2.503   9.931   8.353 -0.3219 -0.3355 -0.0210
40232SOL    HW226017   2.359   9.882   8.351  0.0338 -1.4506  0.7464
40233SOL     OW26018   6.073   5.344   3.822  0.5319 -0.3731  0.4436
40233SOL    HW126019   6.102   5.354   3.731  1.0799 -0.0544  0.6510
40233SOL    HW226020   6.043   5.431   3.848  2.3101  0.0618  1.2172
40234SOL     OW26021   2.085  11.505  11.233 -0.2913 -0.2746  0.0543
40234SOL    HW126022   2.078  11.600  11.223 -0.6714 -0.2762  0.2752
40234SOL    HW226023   2.030  11.470  11.162 -2.5814 -0.2936  1.7193
40235SOL     OW26024   5.714   1.632   5.049  0.1020 -0.4471  0.5400
40235SOL    HW126025   5.786   1.696   5.044  1.6041 -2.1074 -0.1726
40235SOL    HW226026   5.739   1.573   5.120 -0.0856 -1.5560 -0.2847
40236SOL     OW26027   5.693   9.705   9.935  0.0363 -0.1401  0.6625
40236SOL    HW126028   5.722   9.674  10.021  0.4320  0.0454  0.5987
40236SOL    HW226029   5.773   9.737   9.893 -0.0291 -0.9333 -0.0764
40237SOL     OW26030   3.954  11.021   6.639  0.1088 -0.6903 -0.0229
40237SOL    HW126031   4.036  10.981   6.665 -0.0253 -0.3441  0.9539
40237SOL    HW226032   3.971  11.055   6.550  0.7850 -1.2539 -0.1127
40238SOL     OW26033   3.100  10.538   2.657 -0.6270 -0.7819  0.0255
40238SOL    HW126034   3.075  10.567   2.745 -0.5934 -0.1088 -0.1884
40238SOL    HW226035   3.185  10.579   2.641 -1.4069  0.5195 -1.0029
40239SOL     OW26036   6.000   8.705   1.300  0.2968 -0.0604  0.0364
40239SOL    HW126037   6.074   8.644   1.298 -2.1350 -3.2619 -0.2505
40239SOL    HW226038   5.963   8.694   1.387 -0.9046  0.1097 -0.4431
40240SOL     OW26039   0.686   8.413   5.912 -0.4361  0.4374 -0.1342
40240SOL    HW126040   0.625   8.373   5.974 -0.5442 -0.3836 -0.7527
40240SOL    HW226041   0.772   8.376   5.936 -0.4278  0.3782 -0.2528
40241SOL     OW26042   4.033   4.845   2.557 -0.1339  0.1766  0.0364
40241SOL    HW126043   4.072   4.758   2.560  0.4846  0.4755  1.4937
40241SOL    HW226044   4.073   4.892   2.630 -1.8843  1.0704  0.4844
40242SOL     OW26045   3.842  10.763   3.558  0.2286  0.0780 -0.2931
40242SOL    HW126046   3.801  10.716   3.486  0.4006  1.5010 -1.3744
40242SOL    HW226047   3.935  10.742   3.552 -0.1501 -3.0837  2.1091
40243SOL     OW26048   0.962   9.959   9.731  0.1018 -0.5666  0.1318
40243SOL    HW126049   0.965  10.032   9.669 -0.2332 -0.8801 -0.2517
40243SOL    HW226050   1.051   9.955   9.767  0.5439 -0.9450 -0.9702
40244SOL     OW26051   9.590   1.168   0.143 -0.1543 -0.5485  0.3674
40244SOL    HW126052   9.565   1.250   0.099  1.2767 -0.0424  0.4543
40244SOL    HW226053   9.515   1.148   0.199 -0.6053  0.6235  0.2239
40245SOL     OW26054   6.854   2.171   1.428 -0.0936 -0.1400  0.7137
40245SOL    HW126055   6.778   2.114   1.422 -1.2044  1.2960  0.6204
40245SOL    HW226056   6.820   2.259   1.410  1.6022  0.5321  0.5537
40246SOL     OW26057   5.581  10.382   0.796  0.3185 -0.1711  0.4574
40246SOL    HW126058   5.672  10.411   0.787  0.8225 -1.6014  0.7932
40246SOL    HW226059   5.534  10.431   0.727  1.3021  0.6539  0.3395
40247SOL     OW26060   5.219   4.760   3.720  0.1019  0.1383  0.6138
40247SOL    HW126061   5.244   4.828   3.782  0.2785 -0.5841  1.3382
40247SOL    HW226062   5.291   4.697   3.721  0.1412  0.1448 -0.3754
40248SOL     OW26063   8.211  10.911   5.437 -0.0114  0.5075  0.4695
40248SOL    HW126064   8.246  10.944   5.354  2.3156  0.4078  1.3563
40248SOL    HW226065   8.205  10.988   5.493  0.2568  0.2855  0.8081
40249SOL     OW26066   8.403   1.199  10.399 -0.0429  0.4705  0.0675
40249SOL    HW126067   8.387   1.110  10.367 -0.0634  1.1035 -1.8032
40249SOL    HW226068   8.482   1.228  10.353  0.0495  1.3780  0.7581
40250SOL     OW26069   1.452   3.154   4.080  0.4153 -0.4763  0.1449
40250SOL    HW126070   1.458   3.119   4.169 -0.6743  1.7873  1.1823
40250SOL    HW226071   1.365   3.195   4.077  0.6730  0.0051 -1.7791
40251SOL     OW26072   3.138   5.559   3.669  0.2674 -0.1367  0.0197
40251SOL    HW126073   3.194   5.535   3.595  0.3907 -1.4488  0.5199
40251SOL    HW226074   3.055   5.584   3.628 -0.0092 -1.8289 -0.5532
40252SOL     OW26075   2.220   9.944   0.424 -0.6453 -0.0560 -0.3221
40252SOL    HW126076   2.196   9.905   0.508 -2.9279  0.8653 -0.4597
40252SOL    HW226077   2.179   9.888   0.359  2.2307 -1.5580 -1.0280
40253SOL     OW26078   8.045   7.868   2.057 -0.3859  0.1611 -0.0527
40253SOL    HW126079   7.959   7.842   2.023 -0.4178  0.1533  0.0343
40253SOL    HW226080   8.057   7.816   2.136 -0.3070  0.1713 -0.0581
40254SOL     OW26081   8.214   8.787   4.140  0.2640  0.3569  0.2338
40254SOL    HW126082   8.253   8.743   4.216  0.8753  1.8167  0.8079
40254SOL    HW226083   8.264   8.755   4.065 -0.4218 -1.1933  0.4018
40255SOL     OW26084   0.379   0.193   1.339 -0.0658  0.0587  0.0592
40255SOL    HW126085   0.395   0.105   1.304 -0.5480 -0.6203  1.4545
40255SOL    HW226086   0.457   0.212   1.392  0.3061  0.7405 -0.7128
40256SOL     OW26087   6.492   7.701   4.837 -0.5891  0.2934  0.2322
40256SOL    HW126088   6.503   7.743   4.923  1.6142 -1.5356  0.9575
40256SOL    HW226089   6.445   7.766   4.784 -0.2329  2.2931  2.2106
40257SOL     OW26090   3.263   4.317   4.018  0.1749  0.0066  0.0688
40257SOL    HW126091   3.197   4.370   3.974 -0.0114 -0.2892 -0.0080
40257SOL    HW226092   3.325   4.293   3.948  0.0007 -0.2742  0.0090
40258SOL     OW26093   6.935   1.153   9.347 -0.8131 -0.4606  0.1949
40258SOL    HW126094   6.974   1.084   9.401  0.5326  0.7955  0.9266
40258SOL    HW226095   6.900   1.108   9.271 -0.3533 -1.9878  0.8518
40259SOL     OW26096  10.922   4.973   4.684 -0.3204 -0.0410  0.3200
40259SOL    HW126097  10.954   4.888   4.715 -1.2879 -0.9723 -1.1102
40259SOL    HW226098  10.930   5.031   4.759  0.0880 -1.4690  1.4155
40260SOL     OW26099   1.136   0.191   8.359 -0.1789 -0.7392  0.1594
40260SOL    HW126100   1.207   0.132   8.381 -0.5796 -1.3509 -0.1627
40260SOL    HW226101   1.065   0.134   8.329 -1.8284 -0.4264  3.0694
40261SOL     OW26102   4.901   6.742   1.038  0.0998  0.5171 -0.2558
40261SOL    HW126103   4.949   6.714   0.960 -1.3342 -5.0437  0.4153
40261SOL    HW226104   4.817   6.772   1.005 -0.5967 -2.0393 -1.0792
40262SOL     OW26105   8.247   4.655  10.984  0.0674  0.8395 -0.0628
40262SOL    HW126106   8.209   4.710  10.916  0.9259  1.3578 -0.1304
40262SOL    HW226107   8.222   4.566  10.960  0.5133  0.9939 -1.1623
40263SOL     OW26108   8.125   5.973  10.847  0.2484 -0.4170  0.1971
40263SOL    HW126109   8.155   5.986  10.937  0.6960  0.5739 -0.0760
40263SOL    HW226110   8.195   5.921  10.806  1.6301  1.7681 -0.3970
40264SOL     OW26111   9.630   1.909   9.454 -0.3974 -0.7690 -0.5204
40264SOL    HW126112   9.705   1.962   9.428 -0.3569 -0.5645 -0.0048
40264SOL    HW226113   9.633   1.832   9.397  0.3090 -0.8526 -0.3783
40265SOL     OW26114  10.681   2.939   9.212 -0.1883 -0.4236 -0.4001
40265SOL    HW126115  10.601   2.974   9.171 -1.9929 -2.3977  1.2223
40265SOL    HW226116  10.752   2.982   9.164 -2.1642  0.1349 -3.1183
40266SOL     OW26117   5.112   7.239   0.317 -0.4243 -0.5729  0.2125
40266SOL    HW126118   5.183   7.223   0.380 -0.2074  1.9130  0.7214
40266SOL    HW226119   5.036   7.261   0.371 -0.8968 -0.7472 -0.3711
40267SOL     OW26120   0.585   9.862   3.491 -0.1152  0.0918 -0.0985
40267SOL    HW126121   0.529   9.795   3.450 -0.7040  0.4630  0.0905
40267SOL    HW226122   0.596   9.831   3.581 -2.2549  1.3490  0.6685
40268SOL     OW26123   8.667   8.940  10.345 -0.4734  0.5912  0.0920
40268SOL    HW126124   8.652   8.891  10.264 -0.9310 -0.8367  1.0013
40268SOL    HW226125   8.622   9.023  10.331  2.5200  1.9846 -2.5352
40269SOL     OW26126   7.763   9.971   5.687 -0.1296 -0.1036  0.8877
40269SOL    HW126127   7.762   9.918   5.767 -1.5568 -1.7374 -0.1182
40269SOL    HW226128   7.832  10.035   5.700  1.3716 -1.9339  2.3991
40270SOL     OW26129  10.187   4.034   9.660 -0.2465 -0.0060 -0.0076
40270SOL    HW126130  10.092   4.023   9.669 -0.4061  0.9529 -0.2906
40270SOL    HW226131  10.201   4.041   9.565  0.2361 -1.0851 -0.0259
40271SOL     OW26132   9.301   5.477   2.674  0.2924  0.1093 -0.1939
40271SOL    HW126133   9.265   5.403   2.626 -0.8814  0.4751  0.1072
40271SOL    HW226134   9.239   5.494   2.744  1.1312  0.6541  0.4456
40272SOL     OW26135   5.517   2.761   2.128  0.1737 -0.0183  0.0089
40272SOL    HW126136   5.577   2.801   2.065  2.8683  0.2402  2.5445
40272SOL    HW226137   5.486   2.682   2.084  0.3709  1.1137 -2.3367
40273SOL     OW26138   4.270   4.944   7.107  0.5037  0.4437  0.1985
40273SOL    HW126139   4.225   4.932   7.191  1.1212  1.5272  0.6930
40273SOL    HW226140   4.335   4.874   7.104 -0.2972 -0.3280  0.0649
40274SOL     OW26141   8.554   2.550  11.305 -0.3859  0.5233  0.2422
40274SOL    HW126142   8.546   2.509  11.391  0.2857  1.3627  0.7212
40274SOL    HW226143   8.551   2.644  11.324 -1.9669  0.7275 -0.8357
40275SOL     OW26144   7.139   3.046  11.025 -0.0891  0.4555 -0.0155
40275SOL    HW126145   7.205   3.064  10.959  1.7539  0.0898  1.6453
40275SOL    HW226146   7.085   3.126  11.028  1.5295  1.6012 -0.0255
40276SOL     OW26147   8.372  10.800   7.928 -0.7198 -0.4241  0.2372
40276SOL    HW126148   8.283  10.817   7.958 -0.6629 -1.5609  1.1541
40276SOL    HW226149   8.362  10.780   7.835 -1.1001  1.7234 -0.2250
40277SOL     OW26150   4.041   8.616   5.620  0.0201  0.1719  0.0679
40277SOL    HW126151   4.003   8.654   5.699  0.7725  2.1687 -0.4547
40277SOL    HW226152   3.980   8.548   5.594 -0.8353  0.2648  1.7124
40278SOL     OW26153   9.601   9.375   1.092 -0.1189  0.5765  0.4084
40278SOL    HW126154   9.657   9.453   1.096 -1.5618  1.6355  0.5670
40278SOL    HW226155   9.568   9.365   1.181  0.3020 -0.4334  0.4635
40279SOL     OW26156  11.662   5.410   9.087  0.0502 -0.0937  0.3026
40279SOL    HW126157  11.723   5.482   9.103  0.0794  0.1537 -0.8204
40279SOL    HW226158  11.713   5.344   9.041 -0.0719 -0.6981  1.0022
40280SOL     OW26159   0.185  11.806  11.783 -0.1602  0.0908 -0.0312
40280SOL    HW126160   0.108  11.853  11.751 -0.5612 -0.6392 -0.1624
40280SOL    HW226161   0.251  11.873  11.794 -1.3202  1.0292  1.7202
40281SOL     OW26162   0.590  10.754   2.358 -0.0006 -0.3730 -0.6950
40281SOL    HW126163   0.509  10.724   2.400  0.3730 -1.3704 -0.6692
40281SOL    HW226164   0.579  10.731   2.266  0.0303 -0.0241 -0.7867
40282SOL     OW26165   0.645   8.151   3.838 -0.3603 -0.4658  0.1318
40282SOL    HW126166   0.669   8.115   3.752  1.3004 -0.2600  0.4682
40282SOL    HW226167   0.560   8.192   3.824  1.1233  2.1563 -2.2042
40283SOL     OW26168   7.647   9.214   4.766 -0.3881  0.0204 -0.3029
40283SOL    HW126169   7.648   9.144   4.701  1.9876 -0.6417  0.3606
40283SOL    HW226170   7.626   9.293   4.716  0.0839 -0.6713 -1.6435
40284SOL     OW26171   0.819   2.955   5.911 -0.6789  0.0730 -0.4344
40284SOL    HW126172   0.845   2.873   5.953  0.4820 -0.8345 -2.7786
40284SOL    HW226173   0.823   3.020   5.981 -1.7191 -1.8351  1.5189
40285SOL     OW26174   5.278   0.921   0.546 -0.0328 -0.6582 -0.5270
40285SOL    HW126175   5.309   0.938   0.457 -0.2251 -1.2594 -0.7145
40285SOL    HW226176   5.275   1.008   0.588 -0.0194 -0.3630 -1.1296
40286SOL     OW26177   2.595   5.707   6.165 -0.3233  0.3290 -0.3195
40286SOL    HW126178   2.689   5.690   6.152 -0.2153 -0.3586  1.1205
40286SOL    HW226179   2.575   5.778   6.104  0.8852 -0.2135 -1.4037
40287SOL     OW26180  10.192   1.297  10.299 -0.1134  0.0496  0.1344
40287SOL    HW126181  10.228   1.332  10.218  0.3581  0.0855  0.3540
40287SOL    HW226182  10.269   1.277  10.353 -0.4309  0.5892  0.8120
40288SOL     OW26183   7.220   0.114   7.309  0.3658  0.3453  0.2654
40288SOL    HW126184   7.205   0.069   7.392  0.0746  0.1603  0.1144
40288SOL    HW226185   7.224   0.207   7.333  0.5333  0.2746  0.5188
40289SOL     OW26186   7.548  11.740   4.107 -0.0917 -0.2717 -0.0360
40289SOL    HW126187   7.460  11.728   4.073 -0.0695  1.5000 -0.8531
40289SOL    HW226188   7.536  11.780   4.193 -0.0824 -1.9332  0.7826
40290SOL     OW26189   6.067   4.304   5.862  0.4579  0.3702  0.1834
40290SOL    HW126190   6.123   4.372   5.900  3.0302  0.3242 -3.0137
40290SOL    HW226191   6.128   4.232   5.842 -0.8166 -0.0080 -2.8323
40291SOL     OW26192   0.123   0.775   8.044  0.2099  0.4078 -0.3946
40291SOL    HW126193   0.060   0.721   8.092  1.5956 -1.4099 -0.5055
40291SOL    HW226194   0.072   0.814   7.973 -0.9218 -0.4890 -0.1117
40292SOL     OW26195   0.689   1.155   2.497 -0.2131  0.1081  0.4220
40292SOL    HW126196   0.628   1.226   2.515 -2.8953 -1.9240 -0.0780
40292SOL    HW226197   0.732   1.180   2.415 -1.9128  0.7027 -0.3327
40293SOL     OW26198   6.957   0.594   1.283 -0.3104 -0.4367 -0.2269
40293SOL    HW126199   7.020   0.626   1.218 -0.3313  0.2495  0.0828
40293SOL    HW226200   6.904   0.670   1.304 -2.0637 -1.2650 -1.3840
40294SOL     OW26201   7.478   2.361   3.530  0.2871 -0.2931  0.7648
40294SOL    HW126202   7.441   2.385   3.445 -0.5390 -1.5690  0.7399
40294SOL    HW226203   7.550   2.422   3.543 -0.1048  0.4614 -0.4651
40295SOL     OW26204   3.736   6.122   0.051  0.4874  0.2699 -0.0656
40295SOL    HW126205   3.797   6.173   0.104  1.2372  1.5017 -2.0109
40295SOL    HW226206   3.684   6.188   0.005  0.1206 -0.7340 -1.1402
40296SOL     OW26207   5.846   4.681   7.310 -0.5282  0.0648  0.2162
40296SOL    HW126208   5.934   4.718   7.305  0.0372 -1.3132 -0.7180
40296SOL    HW226209   5.817   4.698   7.399  0.5155  0.9159  0.4056
40297SOL     OW26210  11.105   6.855   6.143  0.8355 -0.2459  0.4841
40297SOL    HW126211  11.176   6.875   6.082 -0.1306 -0.0892 -0.6228
40297SOL    HW226212  11.042   6.926   6.130  0.0865 -0.8407  0.8197
40298SOL     OW26213   5.935   0.668   6.300  0.0772  0.7538  0.2024
40298SOL    HW126214   5.875   0.604   6.262 -0.3571  0.7667  0.8536
40298SOL    HW226215   5.879   0.743   6.322 -0.0351  0.0511  2.5435
40299SOL     OW26216   3.086   4.046  10.199 -0.0011 -0.5371 -0.1495
40299SOL    HW126217   3.108   4.015  10.287 -1.3139 -0.9765  0.0395
40299SOL    HW226218   3.084   3.967  10.145  1.4931 -0.1954 -0.7529
40300SOL     OW26219  10.980   4.208   2.821 -0.2455  0.1572 -0.1460
40300SOL    HW126220  11.031   4.135   2.856 -1.3086  0.3318  1.9049
40300SOL    HW226221  11.032   4.241   2.747  0.4393 -2.4065 -0.9008
40301SOL     OW26222   4.374   9.501   1.137 -0.0543 -0.7197 -0.8174
40301SOL    HW126223   4.339   9.431   1.192 -1.4810 -0.1473 -0.9674
40301SOL    HW226224   4.343   9.582   1.177  1.0082 -0.1882 -1.0345
40302SOL     OW26225   8.662   2.768   0.891 -0.5215 -0.4468  0.4617
40302SOL    HW126226   8.570   2.794   0.881 -0.6714 -0.3972  1.8229
40302SOL    HW226227   8.663   2.715   0.970  0.5413 -0.8957  0.1545
40303SOL     OW26228   6.340   6.326   4.160 -0.2553  0.0700 -0.2701
40303SOL    HW126229   6.335   6.241   4.203 -0.4499 -0.7976 -1.9448
40303SOL    HW226230   6.262   6.373   4.190  0.7794  0.4190  2.1073
40304SOL     OW26231   7.292   1.947   4.215 -0.6668 -0.3549  0.3130
40304SOL    HW126232   7.263   2.038   4.215 -1.5639 -0.6329 -0.1196
40304SOL    HW226233   7.220   1.899   4.175 -0.1647 -1.2476  0.4631
40305SOL     OW26234   4.377   6.677   8.098  0.0887 -0.6205  0.7510
40305SOL    HW126235   4.322   6.601   8.117 -0.6491 -0.2367  0.2085
40305SOL    HW226236   4.389   6.676   8.003 -1.3971  0.8795  0.4852
40306SOL     OW26237  10.090   4.756   9.042  0.0421 -0.1191 -0.2805
40306SOL    HW126238  10.097   4.821   9.111  1.5892  0.8428 -1.2735
40306SOL    HW226239   9.997   4.738   9.034 -0.1300 -1.5040  3.1255
40307SOL     OW26240   5.986   7.570   2.178  0.0356  0.1006 -0.5041
40307SOL    HW126241   6.008   7.564   2.085 -0.7097 -0.1980 -0.6685
40307SOL    HW226242   5.897   7.605   2.180  0.3325  0.8785  0.1319
40308SOL     OW26243   7.120   5.407   8.998  0.0340  0.5168  0.0894
40308SOL    HW126244   7.198   5.369   8.957  0.0559  1.1355 -0.4672
40308SOL    HW226245   7.155   5.457   9.073 -0.1824 -2.2855  2.2068
40309SOL     OW26246   8.015   7.311   1.015 -0.1102  0.3226  0.0690
40309SOL    HW126247   8.029   7.330   1.107 -1.4359 -1.9321  0.8220
40309SOL    HW226248   7.936   7.359   0.992  1.1664  2.2924 -0.4517
40310SOL     OW26249   0.418   3.449  11.729 -0.2452 -0.0318 -0.4527
40310SOL    HW126250   0.470   3.522  11.761  0.3728 -0.4476 -0.4922
40310SOL    HW226251   0.354   3.432  11.799 -2.8605  2.8651 -1.9030
40311SOL     OW26252   3.011   5.547   0.316  1.2297 -0.0319  0.1381
40311SOL    HW126253   3.097   5.545   0.357  0.8426 -1.8283  0.9977
40311SOL    HW226254   2.953   5.580   0.384  1.2426  1.3997 -0.5146
40312SOL     OW26255   7.179   7.397   2.507  0.3022  0.3991  0.5140
40312SOL    HW126256   7.133   7.326   2.462 -0.6295  0.6542  1.0218
40312SOL    HW226257   7.228   7.442   2.438 -0.2202  0.1087 -0.0547
40313SOL     OW26258  11.651   9.460   0.493  0.7623  0.7638  0.3225
40313SOL    HW126259  11.722   9.399   0.515  1.0003  0.4931 -1.1244
40313SOL    HW226260  11.621   9.432   0.407 -3.1081 -1.0091  1.9588
40314SOL     OW26261  10.226   1.066   9.248 -0.4293 -0.2445  0.1273
40314SOL    HW126262  10.298   1.010   9.219 -0.8077 -0.5009 -0.3383
40314SOL    HW226263  10.195   1.026   9.329 -0.6982 -0.7101 -0.2029
40315SOL     OW26264   9.456   2.592  11.046 -0.4668  0.0449 -0.1031
40315SOL    HW126265   9.461   2.675  10.999 -0.9588  0.2535  0.2010
40315SOL    HW226266   9.368   2.592  11.084  0.3639  0.4686  1.9152
40316SOL     OW26267   3.917   1.131   1.446 -0.1179 -0.0867 -0.2844
40316SOL    HW126268   3.977   1.204   1.438 -0.2825 -0.0385 -1.1250
40316SOL    HW226269   3.831   1.168   1.427 -0.5587  0.0226  1.6748
40317SOL     OW26270   8.035   5.320   8.935  0.0371  0.1912  0.5027
40317SOL    HW126271   7.991   5.383   8.991 -1.0582 -0.8804  0.9050
40317SOL    HW226272   8.114   5.295   8.984  0.5087  1.2535  0.3118
40318SOL     OW26273   1.832  11.152  11.267  0.8640  0.0063 -0.2664
40318SOL    HW126274   1.779  11.072  11.266  3.1046 -1.5765  0.0777
40318SOL    HW226275   1.779  11.215  11.316 -0.9623 -1.2421 -0.5369
40319SOL     OW26276  10.938   9.233   2.144 -0.2401 -0.1605  0.6506
40319SOL    HW126277  10.988   9.314   2.133 -0.3013 -0.2362 -0.2234
40319SOL    HW226278  10.970   9.176   2.075 -1.4056 -0.2778  0.2069
40320SOL     OW26279   0.598   8.835   3.773  0.5364 -0.5343  0.2447
40320SOL    HW126280   0.618   8.843   3.680 -0.0843  1.9699  0.2342
40320SOL    HW226281   0.666   8.886   3.817 -1.3323  1.6749  0.7796
40321SOL     OW26282   6.535   5.775   1.640 -0.2036 -0.2014  0.4018
40321SOL    HW126283   6.540   5.693   1.690 -0.4469 -0.6505 -0.2880
40321SOL    HW226284   6.496   5.838   1.701 -2.8032 -1.3511  0.0694
40322SOL     OW26285   0.705   6.502   8.691 -0.3533  0.3418 -0.1617
40322SOL    HW126286   0.793   6.479   8.722 -1.1923 -0.9656  1.4288
40322SOL    HW226287   0.654   6.422   8.705 -1.8037  1.0843 -1.0467
40323SOL     OW26288   8.178   3.992   6.330 -0.7665  0.4483 -0.2009
40323SOL    HW126289   8.101   3.964   6.381 -1.2156  0.1252 -1.0405
40323SOL    HW226290   8.176   3.938   6.251  0.5150  0.2150 -0.0992
40324SOL     OW26291   3.769   0.528  11.566 -0.2480  0.6166 -0.4865
40324SOL    HW126292   3.804   0.617  11.558  0.2597  1.1235  4.2776
40324SOL    HW226293   3.847   0.472  11.562 -0.5121  0.3169 -2.9212
40325SOL     OW26294   3.533   0.031  10.527 -0.2515 -0.3380 -0.3967
40325SOL    HW126295   3.571  -0.001  10.609 -0.4335 -0.6889 -0.4487
40325SOL    HW226296   3.572   0.118  10.515 -0.9309  0.1134  0.5389
40326SOL     OW26297   6.129   6.111   1.675 -0.3111 -0.0113  0.4091
40326SOL    HW126298   6.106   6.179   1.738 -1.9455  0.3942 -0.5762
40326SOL    HW226299   6.072   6.037   1.697  0.6748 -0.6962  0.7703
40327SOL     OW26300   0.792   2.774   6.783 -0.0661  0.3180 -0.0516
40327SOL    HW126301   0.852   2.819   6.843 -0.4766  2.6332 -1.2680
40327SOL    HW226302   0.706   2.813   6.801 -0.7213 -1.0238 -0.1947
40328SOL     OW26303   6.658   3.578   4.267  0.5333 -0.0248  0.2293
40328SOL    HW126304   6.735   3.522   4.272 -0.2835 -1.1379  0.9417
40328SOL    HW226305   6.692   3.667   4.271  1.6619 -0.4982  3.0326
40329SOL     OW26306   0.953   5.241   7.854  0.7961  0.0321  0.2702
40329SOL    HW126307   1.024   5.253   7.917  1.2272 -0.2840 -0.1515
40329SOL    HW226308   0.925   5.151   7.866  0.2857  0.2322  0.6150
40330SOL     OW26309   7.851   5.694   5.330 -0.4087 -0.2373  0.0767
40330SOL    HW126310   7.796   5.717   5.405  2.0200 -0.8545  2.2026
40330SOL    HW226311   7.916   5.763   5.326 -0.0923 -0.5840 -1.0596
40331SOL     OW26312   4.994   6.919   4.998  0.2906 -0.1118 -0.6284
40331SOL    HW126313   4.953   6.931   5.084  0.2435 -1.6863 -0.3986
40331SOL    HW226314   5.049   6.840   5.008  2.1561  1.0207 -1.3773
40332SOL     OW26315   5.187   3.914   0.625 -0.3226 -0.5021  0.0534
40332SOL    HW126316   5.205   3.990   0.570 -2.0837 -0.2156 -0.1962
40332SOL    HW226317   5.267   3.900   0.675  0.3023  1.0122 -0.4781
40333SOL     OW26318   9.620   3.638   3.314 -0.2290 -0.0799  0.4127
40333SOL    HW126319   9.674   3.559   3.308  1.6949  1.1862 -0.1122
40333SOL    HW226320   9.570   3.639   3.233  1.8241  0.5872 -0.9410
40334SOL     OW26321   9.280   4.326   3.928 -0.5461 -0.3188  0.0526
40334SOL    HW126322   9.359   4.336   3.874  0.1776 -1.6331  0.8030
40334SOL    HW226323   9.304   4.363   4.013 -0.1959 -1.9784  0.7249
40335SOL     OW26324   0.541  11.663  11.802 -0.1009 -0.1823 -0.7427
40335SOL    HW126325   0.480  11.642  11.872 -0.4805 -1.3021 -1.3831
40335SOL    HW226326   0.551  11.758  11.807 -0.1538 -0.2258  0.7852
40336SOL     OW26327   7.286   4.617   4.926  0.0506  0.1556  0.4801
40336SOL    HW126328   7.260   4.650   5.012 -2.0288 -0.6020  0.1932
40336SOL    HW226329   7.212   4.563   4.898  0.8249  0.1189 -1.6459
40337SOL     OW26330   9.442   7.195   2.629  0.0107  0.0909  0.0209
40337SOL    HW126331   9.385   7.203   2.705  0.1918  1.3141  0.0368
40337SOL    HW226332   9.407   7.257   2.565  0.0309 -0.7132 -0.7997
40338SOL     OW26333  11.647   6.699  11.537 -0.0183 -0.6670  0.3500
40338SOL    HW126334  11.600   6.633  11.486  0.9166 -1.1742  0.1256
40338SOL    HW226335  11.674   6.652  11.617  0.8989 -0.6368  0.0575
40339SOL     OW26336   9.301   9.882   0.842  0.7716  0.4485  0.8364
40339SOL    HW126337   9.326   9.817   0.909  0.5600  0.3651  0.8371
40339SOL    HW226338   9.251   9.831   0.778 -0.9139  0.9029  1.7101
40340SOL     OW26339   8.785   7.662  11.812  0.6254 -1.0699 -0.0964
40340SOL    HW126340   8.718   7.596  11.798  0.4312 -1.0585  0.7062
40340SOL    HW226341   8.765   7.731  11.749 -2.0681  0.4206  2.1692
40341SOL     OW26342   2.444   3.276   2.469  0.4001  0.3261 -0.6162
40341SOL    HW126343   2.485   3.362   2.457 -0.1689  0.8973  1.1423
40341SOL    HW226344   2.469   3.250   2.558 -1.6720 -0.0636 -0.0911
40342SOL     OW26345  11.576   4.650   8.880 -0.2298  0.2266  0.0677
40342SOL    HW126346  11.595   4.637   8.973  0.3981  0.8766  0.0372
40342SOL    HW226347  11.486   4.683   8.879 -0.6734 -0.9049  0.3503
40343SOL     OW26348   0.753   5.191   6.462  0.2470 -0.0408 -0.3324
40343SOL    HW126349   0.793   5.126   6.404 -0.3228  0.1182 -0.9158
40343SOL    HW226350   0.769   5.275   6.420  0.1633  0.1134 -0.0599
40344SOL     OW26351   8.927   5.973   9.837 -0.2170 -0.2571  0.2493
40344SOL    HW126352   9.011   5.950   9.879 -0.8331  1.0266  2.3249
40344SOL    HW226353   8.925   6.068   9.839 -2.6052 -0.2666  2.2097
40345SOL     OW26354   0.425   9.696   1.627  0.6710  0.1145 -0.5814
40345SOL    HW126355   0.421   9.717   1.721  0.2414  1.9513 -0.9772
40345SOL    HW226356   0.334   9.694   1.599  0.7936 -0.6121 -0.9377
40346SOL     OW26357   0.611   4.579   0.382  0.3422 -0.1280 -0.0421
40346SOL    HW126358   0.694   4.597   0.337 -0.5273  0.9109 -1.3465
40346SOL    HW226359   0.551   4.555   0.311  0.0052 -2.8930  1.0906
40347SOL     OW26360   0.006   8.154   3.597 -0.0503 -0.1166  0.0792
40347SOL    HW126361   0.052   8.207   3.662 -2.4551  1.0465  0.9211
40347SOL    HW226362  -0.017   8.073   3.643  1.0890 -0.7159 -0.3537
40348SOL     OW26363   3.597   7.960   2.189  0.7328  0.0704 -0.8164
40348SOL    HW126364   3.642   8.040   2.218  0.2032  0.0433  0.1167
40348SOL    HW226365   3.536   7.991   2.122  1.0154  0.3468 -0.9508
40349SOL     OW26366  11.049   5.391   0.568 -0.0151  0.2705 -0.0234
40349SOL    HW126367  11.131   5.440   0.562  0.2392 -0.0750  0.5476
40349SOL    HW226368  10.987   5.442   0.516  0.6008  0.4496 -0.6053
40350SOL     OW26369   6.267   2.308  10.006  0.6672  0.2588  0.6093
40350SOL    HW126370   6.232   2.367  10.073  0.1853  0.3059  0.3182
40350SOL    HW226371   6.191   2.258   9.976  1.1159 -0.7257  1.0550
40351SOL     OW26372   3.957  10.224  10.923 -0.2648 -0.1261 -0.3220
40351SOL    HW126373   4.007  10.305  10.913  0.3946 -0.5685 -0.7062
40351SOL    HW226374   4.015  10.167  10.973 -0.7685 -0.3310  0.0373
40352SOL     OW26375   4.676   0.473   8.138  0.2939 -0.1637  0.3778
40352SOL    HW126376   4.717   0.411   8.077  2.4737 -0.3579  1.9523
40352SOL    HW226377   4.730   0.552   8.131 -0.9116  0.6713  0.2906
40353SOL     OW26378   8.756  10.054   8.409 -0.5721 -0.3418 -0.0202
40353SOL    HW126379   8.702  10.133   8.405  1.6909  1.2580 -0.7002
40353SOL    HW226380   8.817  10.070   8.481 -0.2791 -1.6356  0.0498
40354SOL     OW26381  11.756   4.654   1.249 -0.2337  0.0879  0.1094
40354SOL    HW126382  11.760   4.741   1.289  0.1328  0.1367 -0.0280
40354SOL    HW226383  11.692   4.606   1.301 -0.2162  0.3454  0.3695
40355SOL     OW26384   5.218   1.548  10.338  0.8534  0.1109  0.3761
40355SOL    HW126385   5.213   1.612  10.267 -0.3600 -0.4186 -0.0404
40355SOL    HW226386   5.307   1.513  10.332  1.1469  0.8994 -0.1298
40356SOL     OW26387   1.919  10.406  11.372  0.1799 -0.7784  0.0754
40356SOL    HW126388   1.934  10.358  11.453  1.0913 -1.7472 -0.6461
40356SOL    HW226389   1.988  10.377  11.313  0.3970  0.9716 -0.6034
40357SOL     OW26390  11.011   5.857   1.101 -0.4740 -0.0938  0.1650
40357SOL    HW126391  11.012   5.831   1.009 -0.2108  2.1038 -0.5334
40357SOL    HW226392  11.045   5.782   1.148 -0.3861 -1.1902 -1.5650
40358SOL     OW26393  10.279   7.046   5.705 -0.1660  0.2961 -0.7206
40358SOL    HW126394  10.337   7.033   5.630  0.0665  0.7925 -0.6276
40358SOL    HW226395  10.322   6.999   5.776  2.0236  3.4790  0.2934
40359SOL     OW26396   5.356   1.896  11.110  0.1381  0.6866  0.0636
40359SOL    HW126397   5.383   1.983  11.138 -0.1723  0.7969  0.0188
40359SOL    HW226398   5.428   1.865  11.054  0.8673  0.3724  1.1449
40360SOL     OW26399  11.185   0.823   7.776  0.0585 -0.3063  0.0230
40360SOL    HW126400  11.106   0.777   7.747  0.0852  0.5703 -1.5649
40360SOL    HW226401  11.200   0.792   7.865 -1.5645 -1.1610  0.0297
40361SOL     OW26402   1.528   0.356   3.456 -0.2523  0.2257  0.2122
40361SOL    HW126403   1.470   0.324   3.387 -1.0480  2.0516 -0.0388
40361SOL    HW226404   1.603   0.392   3.409  0.0775 -0.2018  0.4107
40362SOL     OW26405   7.611   8.131   1.552  0.3598 -0.2401 -0.1274
40362SOL    HW126406   7.692   8.160   1.510  0.9787  0.8003  1.6593
40362SOL    HW226407   7.627   8.040   1.576  0.3650 -0.5388 -1.2409
40363SOL     OW26408   9.566   2.172  11.566  0.8883 -0.3288  0.2324
40363SOL    HW126409   9.603   2.259  11.555  0.6518 -0.3548 -0.8340
40363SOL    HW226410   9.634   2.112  11.535  1.3379 -0.5820  1.6368
40364SOL     OW26411   7.966   6.119   2.576 -0.5646  0.4395 -0.0574
40364SOL    HW126412   7.910   6.073   2.514 -0.9302  1.5158 -0.5604
40364SOL    HW226413   8.045   6.065   2.582 -1.0922 -0.3875 -0.3915
40365SOL     OW26414   8.588   7.470   4.174  0.0791 -0.1067  0.4537
40365SOL    HW126415   8.539   7.552   4.177 -0.3536 -0.3894  2.0370
40365SOL    HW226416   8.639   7.470   4.255  3.0367  0.3368 -1.2392
40366SOL     OW26417   3.698   7.941   5.473 -0.2205 -0.6408 -0.9402
40366SOL    HW126418   3.716   7.872   5.409 -0.0025 -0.9350 -0.5650
40366SOL    HW226419   3.603   7.951   5.471 -0.0437  2.2738 -4.3615
40367SOL     OW26420   8.646   6.172   3.724 -0.3837  0.1968 -0.6800
40367SOL    HW126421   8.665   6.093   3.673 -0.8008  0.6096 -1.4890
40367SOL    HW226422   8.618   6.139   3.809 -0.1388 -0.5195 -0.8704
40368SOL     OW26423   7.658   9.339   7.708 -0.2802 -0.2401 -0.8355
40368SOL    HW126424   7.710   9.289   7.771 -0.5236 -0.9192 -1.1673
40368SOL    HW226425   7.651   9.282   7.631 -0.0639  0.5443 -1.4456
40369SOL     OW26426   7.655   0.493  10.238 -0.0511 -0.2558 -0.2893
40369SOL    HW126427   7.693   0.580  10.225  2.5199 -1.2847 -0.2931
40369SOL    HW226428   7.645   0.458  10.150  0.9925 -0.7321 -0.2410
40370SOL     OW26429   6.665   7.203   1.241  0.4471  0.3466 -0.0978
40370SOL    HW126430   6.664   7.294   1.212  0.8131  0.9337  1.6472
40370SOL    HW226431   6.602   7.200   1.313  0.4880 -0.7814 -0.0853
40371SOL     OW26432   5.117   7.844   0.343 -0.5783 -0.1392 -0.1451
40371SOL    HW126433   5.122   7.937   0.320 -0.1446 -0.2805 -0.6554
40371SOL    HW226434   5.084   7.842   0.433  1.1586  0.5838  0.5434
40372SOL     OW26435   5.544   4.006   8.312  0.1844 -0.5331  0.1229
40372SOL    HW126436   5.538   4.089   8.263 -0.2993  0.0144  1.0727
40372SOL    HW226437   5.626   3.967   8.283  0.2433  0.1086 -0.6153
40373SOL     OW26438   0.876  11.091   4.419  0.0362 -0.2078  0.1657
40373SOL    HW126439   0.905  11.178   4.391 -0.1066 -0.8363 -2.0807
40373SOL    HW226440   0.781  11.101   4.431  0.1780  0.2037  1.0838
40374SOL     OW26441   0.387   1.234  10.657 -0.1985 -0.0606 -0.5957
40374SOL    HW126442   0.319   1.239  10.723 -0.9366  1.4537 -1.4356
40374SOL    HW226443   0.467   1.216  10.707 -0.6662  1.3928  0.7643
40375SOL     OW26444   8.209   4.853   9.400 -0.1157 -0.1036 -0.4822
40375SOL    HW126445   8.121   4.824   9.374 -0.7040  0.0067  1.2412
40375SOL    HW226446   8.267   4.782   9.370 -0.7577 -0.1353 -1.7189
40376SOL     OW26447   9.322  11.228  10.085  0.0134  0.3082 -0.3214
40376SOL    HW126448   9.291  11.158  10.143  0.0791  0.1461 -0.4800
40376SOL    HW226449   9.245  11.283  10.071 -0.1995 -0.0810 -0.6959
40377SOL     OW26450   3.893   5.387   1.217 -0.4626  0.0021  0.5349
40377SOL    HW126451   3.983   5.416   1.236 -0.7618  0.1253  1.9045
40377SOL    HW226452   3.847   5.467   1.192 -0.3401  0.0512  0.4656
40378SOL     OW26453   1.491   4.180   0.365 -0.3178 -0.0189  0.0267
40378SOL    HW126454   1.586   4.181   0.355 -0.2819  0.2804  0.3753
40378SOL    HW226455   1.473   4.098   0.412 -0.3190 -0.4996 -0.7815
40379SOL     OW26456   2.127   8.963   5.329  0.4217  0.0762  0.1373
40379SOL    HW126457   2.128   8.995   5.419  1.6370  0.3956  0.0223
40379SOL    HW226458   2.195   8.896   5.327 -0.1037 -0.4591 -0.3717
40380SOL     OW26459   8.508   9.405   4.379 -0.2933  0.0044  0.6168
40380SOL    HW126460   8.438   9.440   4.325  1.9411 -1.4527 -3.7265
40380SOL    HW226461   8.569   9.478   4.390 -0.2723  0.0501  0.2098
40381SOL     OW26462   0.819   2.095   1.786  0.6741  0.4886  0.1213
40381SOL    HW126463   0.831   2.153   1.711 -1.5882 -0.7133 -1.2542
40381SOL    HW226464   0.846   2.148   1.861  1.5986  2.2366 -1.3532
40382SOL     OW26465   9.326   8.070  11.602 -0.6011  0.1084  0.2131
40382SOL    HW126466   9.289   8.156  11.620 -0.2807  0.3594 -0.2929
40382SOL    HW226467   9.320   8.061  11.507  0.5735  0.1293  0.1210
40383SOL     OW26468   8.813   8.464   6.178  0.1108  0.0778  0.1348
40383SOL    HW126469   8.803   8.515   6.098  3.3552 -0.7107 -0.9332
40383SOL    HW226470   8.732   8.415   6.186 -0.6369  0.8146 -2.2044
40384SOL     OW26471   8.488   1.556   3.549  0.1510  0.2003  0.2677
40384SOL    HW126472   8.466   1.482   3.606  0.0814 -0.3183 -0.4219
40384SOL    HW226473   8.417   1.619   3.564 -1.6494 -1.2509 -1.5643
40385SOL     OW26474   0.075   9.611   5.797  0.2658  0.0586  0.0643
40385SOL    HW126475   0.065   9.637   5.705 -0.2339  2.3343  0.7022
40385SOL    HW226476  -0.002   9.557   5.815 -1.1701  1.9482 -0.1343
40386SOL     OW26477   2.474   2.506   6.761  0.0038  0.0755 -0.0699
40386SOL    HW126478   2.488   2.450   6.837  0.1223  0.6543  0.3427
40386SOL    HW226479   2.379   2.511   6.751 -0.0150  0.1064  0.1245
40387SOL     OW26480   0.408   9.506   0.407  0.0813 -0.2406 -0.2460
40387SOL    HW126481   0.353   9.573   0.368  1.5701  0.3851 -1.3763
40387SOL    HW226482   0.380   9.424   0.365 -1.4352 -0.3113  0.8169
40388SOL     OW26483   0.301   2.210   7.933 -0.2456  0.1477 -0.0258
40388SOL    HW126484   0.313   2.150   8.006 -0.2090 -1.7865 -1.5348
40388SOL    HW226485   0.382   2.260   7.928  0.1818 -0.4768  0.5890
40389SOL     OW26486   4.060   8.460   8.839 -0.4344 -0.2354 -0.5407
40389SOL    HW126487   4.144   8.416   8.834 -1.9625 -3.6364  0.6028
40389SOL    HW226488   4.051   8.485   8.931 -0.9243 -0.4760 -0.5198
40390SOL     OW26489   4.960   9.195   5.693 -0.1926 -0.5810  0.6687
40390SOL    HW126490   5.021   9.247   5.746 -0.2809 -1.3037  1.4992
40390SOL    HW226491   4.981   9.104   5.714 -0.6670 -0.8667 -0.0561
40391SOL     OW26492   2.276   6.669   0.973 -0.1309  0.2996  0.5339
40391SOL    HW126493   2.256   6.761   0.958 -1.8447 -0.2081 -0.6051
40391SOL    HW226494   2.222   6.644   1.048  0.8493  0.3714  1.2804
40392SOL     OW26495   3.373   4.065   5.721  0.2421  0.0799  0.4106
40392SOL    HW126496   3.397   4.117   5.797 -0.2721 -1.4757  1.6927
40392SOL    HW226497   3.296   4.015   5.750  0.8246 -1.5129 -0.6805
40393SOL     OW26498   5.397   9.222  11.371 -0.7544  0.0187 -0.4916
40393SOL    HW126499   5.378   9.262  11.456  1.6410 -0.2368  0.2482
40393SOL    HW226500   5.487   9.248  11.353 -0.4956 -1.7090 -1.9248
40394SOL     OW26501   5.937   7.478   2.872  0.6687  0.1542  0.6400
40394SOL    HW126502   5.955   7.539   2.801  3.1281  2.5743  3.0986
40394SOL    HW226503   6.020   7.430   2.884 -0.0562 -1.0178  1.1576
40395SOL     OW26504   2.596   4.621   5.045 -0.1013  0.5532 -0.2230
40395SOL    HW126505   2.648   4.685   4.997  0.0473  0.3075 -0.3929
40395SOL    HW226506   2.657   4.551   5.066 -0.1161  0.7435  0.4984
40396SOL     OW26507   9.742   6.250   9.434 -0.2607  0.0707  0.2215
40396SOL    HW126508   9.745   6.253   9.338 -0.8493  0.0273  0.2022
40396SOL    HW226509   9.830   6.278   9.461 -0.5645  1.6447 -0.3060
40397SOL     OW26510   6.859   9.375   6.864 -0.2023  0.2797  0.3600
40397SOL    HW126511   6.908   9.419   6.933  0.1828 -0.3959  0.5198
40397SOL    HW226512   6.767   9.384   6.890 -0.1953  1.6655 -0.0086
40398SOL     OW26513  11.286   4.370   4.075  0.4937  0.0639  0.3891
40398SOL    HW126514  11.339   4.446   4.051  1.2268 -0.7332 -0.5975
40398SOL    HW226515  11.198   4.390   4.044  0.8005  0.2902 -0.3500
40399SOL     OW26516   6.158   7.526   3.800  0.7272  0.1342 -0.5912
40399SOL    HW126517   6.077   7.498   3.844  0.6818 -0.3299 -0.9621
40399SOL    HW226518   6.222   7.531   3.870  0.0897  1.7183 -0.0791
40400SOL     OW26519   3.871  11.419   1.039 -0.6191  0.2901 -0.2032
40400SOL    HW126520   3.949  11.468   1.062 -1.8094  1.1385  2.3833
40400SOL    HW226521   3.903  11.342   0.991  1.5422  1.8071 -1.3583
40401SOL     OW26522   5.095  10.454   5.668 -0.1067 -0.1514  0.2714
40401SOL    HW126523   5.058  10.474   5.582 -2.6220  1.6415  1.6170
40401SOL    HW226524   5.185  10.485   5.664  0.3157 -1.4951 -2.1268
40402SOL     OW26525   8.349  11.515  10.898 -0.2408  0.9961  0.1896
40402SOL    HW126526   8.333  11.449  10.965  1.3200  1.8199  1.4601
40402SOL    HW226527   8.302  11.592  10.929 -1.1316  0.8294 -0.7065
40403SOL     OW26528   7.401  10.161  10.366 -0.0678  0.1027 -0.4238
40403SOL    HW126529   7.432  10.216  10.438 -1.2841 -0.4514  0.5478
40403SOL    HW226530   7.308  10.148  10.383 -0.5831  0.5948 -2.5362
40404SOL     OW26531  11.351   9.960   3.590 -0.1740 -0.3941  0.6562
40404SOL    HW126532  11.262   9.944   3.621  0.0200  0.1822  1.5836
40404SOL    HW226533  11.374  10.044   3.630  1.2557 -1.1610  1.5178
40405SOL     OW26534   4.029  11.454   4.322 -0.4365 -0.1485  0.3309
40405SOL    HW126535   4.059  11.542   4.348 -1.8796  1.1933 -2.1228
40405SOL    HW226536   4.109  11.401   4.319  0.5547  1.2134  1.3563
40406SOL     OW26537   0.786   0.200   5.037  0.4516 -0.2847 -0.1513
40406SOL    HW126538   0.724   0.146   5.084  1.3432 -0.4348  0.8873
40406SOL    HW226539   0.737   0.280   5.016 -0.2005 -0.5594  0.2944
40407SOL     OW26540   1.862   7.562   1.648 -0.0087  0.6906 -0.7214
40407SOL    HW126541   1.896   7.573   1.559 -0.1056  0.3076 -0.8044
40407SOL    HW226542   1.881   7.646   1.691  1.5459  0.3079 -0.5989
40408SOL     OW26543   8.998   2.123   1.697 -0.3300  0.2914  0.0492
40408SOL    HW126544   9.057   2.103   1.625  0.9166  0.6905  0.9226
40408SOL    HW226545   8.923   2.066   1.683  1.2507 -1.9377  0.1550
40409SOL     OW26546   6.305   4.427   7.799 -0.6777 -0.1365 -0.5179
40409SOL    HW126547   6.234   4.363   7.798 -1.7229  0.9661  0.0955
40409SOL    HW226548   6.332   4.435   7.707 -1.6128 -0.3057 -0.8145
40410SOL     OW26549  10.414   1.788   1.997 -0.2224  0.1220 -0.0655
40410SOL    HW126550  10.407   1.741   2.080 -0.5955 -2.7833 -1.6054
40410SOL    HW226551  10.327   1.825   1.983 -1.2457 -2.2907 -0.6556
40411SOL     OW26552   6.665  11.362   4.817 -0.5804  0.0110 -0.1718
40411SOL    HW126553   6.597  11.365   4.884  1.1907  0.5742  1.7136
40411SOL    HW226554   6.650  11.281   4.770 -1.8360 -0.4515  0.9712
40412SOL     OW26555   7.729   3.208   7.518 -0.3345 -0.7881 -0.0626
40412SOL    HW126556   7.730   3.112   7.520  1.0380 -0.7811  0.5029
40412SOL    HW226557   7.764   3.231   7.432  1.9740 -0.8075  0.8240
40413SOL     OW26558  11.565   0.504   0.351  0.1547 -0.2092 -0.3121
40413SOL    HW126559  11.573   0.486   0.258  3.1442  0.7657 -0.3503
40413SOL    HW226560  11.524   0.426   0.388 -0.6064 -0.8194 -2.3563
40414SOL     OW26561   7.129   8.156   8.604  0.2748  0.2597  0.0496
40414SOL    HW126562   7.093   8.226   8.659  1.4980 -0.1823  1.5080
40414SOL    HW226563   7.205   8.196   8.562 -0.9901  0.7703 -1.8745
40415SOL     OW26564   4.427   7.101   0.239  0.1571 -0.1723 -0.2851
40415SOL    HW126565   4.430   7.092   0.335 -0.9752  2.5102  0.0959
40415SOL    HW226566   4.518   7.116   0.213  0.2582  0.9206  0.6332
40416SOL     OW26567   7.992  10.215   9.555  0.2700 -0.5068 -0.7126
40416SOL    HW126568   7.979  10.237   9.463 -0.7786 -0.3871 -0.5495
40416SOL    HW226569   8.018  10.123   9.555  1.3657 -0.2030 -1.1936
40417SOL     OW26570   7.796  10.975   4.379  0.5480  0.0876  0.5375
40417SOL    HW126571   7.830  10.968   4.468  1.7545  0.6689  0.1533
40417SOL    HW226572   7.740  10.898   4.368 -0.3284  0.4693  2.0792
40418SOL     OW26573   3.642   4.400  10.750 -0.0910 -0.2857  0.1631
40418SOL    HW126574   3.669   4.434  10.664  1.1812 -2.7641 -0.5286
40418SOL    HW226575   3.697   4.446  10.812 -0.0625  0.5732 -0.4804
40419SOL     OW26576   8.890   1.939   1.124  0.4083  0.2175  0.0772
40419SOL    HW126577   8.922   1.899   1.042 -0.2911  1.2542 -0.7257
40419SOL    HW226578   8.833   2.010   1.095 -0.8868 -0.2011  1.4689
40420SOL     OW26579   0.658   3.955   5.599 -0.0388  0.0687  0.6997
40420SOL    HW126580   0.684   3.980   5.687  1.9837 -0.5547  0.3374
40420SOL    HW226581   0.725   3.993   5.542 -0.5914 -0.6059 -0.4581
40421SOL     OW26582  11.389   9.901  10.287 -0.2596  0.1619  0.5289
40421SOL    HW126583  11.297   9.919  10.309  0.0010  0.5805  1.3133
40421SOL    HW226584  11.384   9.842  10.211 -1.1731  0.2163  0.5316
40422SOL     OW26585   3.078   4.442   5.559 -0.3814 -0.5099  0.2312
40422SOL    HW126586   3.123   4.357   5.557 -2.1966 -1.5277 -0.5914
40422SOL    HW226587   3.087   4.471   5.650  0.4351 -1.5054  0.4934
40423SOL     OW26588   9.310   5.975   2.448  0.1392  0.1398 -0.2534
40423SOL    HW126589   9.236   6.011   2.400 -0.2919 -1.6252 -0.9952
40423SOL    HW226590   9.387   6.019   2.411 -0.1936 -1.0241 -2.5297
40424SOL     OW26591   6.247  10.948   2.797 -0.6979 -0.1229  0.3658
40424SOL    HW126592   6.310  11.016   2.818 -1.3027  1.2431 -1.8603
40424SOL    HW226593   6.299  10.867   2.791  0.5196  0.6473  0.2809
40425SOL     OW26594  11.755   7.435   3.500 -0.0775  0.2631  0.2063
40425SOL    HW126595  11.754   7.341   3.483  0.7547  0.1732  0.6541
40425SOL    HW226596  11.672   7.453   3.545 -0.1410 -0.2858  0.3040
40426SOL     OW26597   5.219   3.422  11.107  0.1310 -0.3519 -0.4382
40426SOL    HW126598   5.226   3.478  11.030 -0.4172  0.0966 -0.1660
40426SOL    HW226599   5.274   3.465  11.173 -2.3486  1.3857  0.6484
40427SOL     OW26600  10.368   9.415   1.321  0.5976 -0.0925 -0.6746
40427SOL    HW126601  10.411   9.333   1.347  1.8352  0.9449  0.7772
40427SOL    HW226602  10.293   9.422   1.379  0.5722 -0.1254 -0.7034
40428SOL     OW26603   8.297   6.189   2.340  0.1648 -0.1638 -0.1271
40428SOL    HW126604   8.262   6.234   2.263 -2.4039  2.2300  2.1998
40428SOL    HW226605   8.263   6.100   2.335  1.4051 -0.5757 -2.4665
40429SOL     OW26606   7.638   8.886   5.458  0.1561 -0.0057 -0.0473
40429SOL    HW126607   7.575   8.885   5.386  1.3645  1.2758 -1.1968
40429SOL    HW226608   7.689   8.806   5.446 -0.5472 -0.5043  0.2385
40430SOL     OW26609   5.596   4.600   1.135 -0.3521 -0.8587  0.0590
40430SOL    HW126610   5.623   4.511   1.111  1.0732 -1.1004  2.2655
40430SOL    HW226611   5.622   4.653   1.060  2.5645 -1.7484  0.2959
40431SOL     OW26612   7.322   4.876   6.382 -0.4954 -0.4949  0.5492
40431SOL    HW126613   7.275   4.882   6.299 -0.9688 -0.6567  0.8058
40431SOL    HW226614   7.337   4.966   6.408 -2.0834 -0.4231  1.2700
40432SOL     OW26615   6.223  11.419   5.594  0.1523 -0.0673 -0.6525
40432SOL    HW126616   6.268  11.463   5.666  0.1124 -0.8016 -0.1753
40432SOL    HW226617   6.132  11.411   5.622  0.0549 -0.0114 -0.9445
40433SOL     OW26618  10.612   5.667   4.339  0.6007  0.3434 -0.0789
40433SOL    HW126619  10.519   5.666   4.361  0.6224  1.3222  0.1072
40433SOL    HW226620  10.619   5.613   4.260  0.2943 -2.0561  1.4089
40434SOL     OW26621  10.895   1.476   7.829 -0.6656 -0.4739 -0.6669
40434SOL    HW126622  10.819   1.507   7.878 -0.5601  1.0912 -1.4235
40434SOL    HW226623  10.949   1.431   7.894 -0.8316  0.9756  0.5184
40435SOL     OW26624   7.620   2.110   5.820  0.0848 -0.4536 -0.0947
40435SOL    HW126625   7.666   2.151   5.747 -0.7025  0.0113 -0.3448
40435SOL    HW226626   7.561   2.178   5.852 -1.1204 -1.3295 -0.3941
40436SOL     OW26627   5.099   3.647   6.900  0.2369  0.2031  0.0401
40436SOL    HW126628   5.107   3.630   6.993 -1.1742 -1.9951 -0.1697
40436SOL    HW226629   5.142   3.573   6.857  0.8762  1.1776 -1.0736
40437SOL     OW26630   0.096   7.449   1.350  0.5345 -0.4955 -0.0743
40437SOL    HW126631   0.117   7.542   1.348  1.3891 -0.6482  1.1065
40437SOL    HW226632   0.009   7.443   1.309  0.6618  0.7493 -0.5629
40438SOL     OW26633   7.759   9.165   2.820 -0.8980  0.2878  0.3426
40438SOL    HW126634   7.688   9.200   2.874 -0.5931  0.4633  0.6355
40438SOL    HW226635   7.730   9.180   2.730 -1.0042  0.8180  0.4615
40439SOL     OW26636   5.995   0.530  10.062  0.3030 -0.5398  0.0228
40439SOL    HW126637   5.910   0.505  10.024  0.1072 -1.2338  0.8701
40439SOL    HW226638   6.051   0.453  10.047  1.5018  0.7000 -2.4849
40440SOL     OW26639   9.752   8.320   8.497 -0.0579 -0.1020  0.0761
40440SOL    HW126640   9.706   8.400   8.520 -1.0214 -0.9233  1.1698
40440SOL    HW226641   9.683   8.253   8.492  0.9832 -1.4337  2.0562
40441SOL     OW26642   8.249   3.172  11.367 -0.0434  0.2523 -0.1775
40441SOL    HW126643   8.281   3.259  11.343 -0.6255  0.7208  0.7039
40441SOL    HW226644   8.206   3.139  11.288  0.5265  0.5894 -0.6371
40442SOL     OW26645  10.758   7.686   5.213 -0.2380  0.6198 -0.8064
40442SOL    HW126646  10.829   7.689   5.149  0.4851  0.3506 -0.0372
40442SOL    HW226647  10.682   7.722   5.167  0.6240  1.8046 -1.3573
40443SOL     OW26648   5.511   0.473   6.480 -0.4188 -0.7461  0.8097
40443SOL    HW126649   5.421   0.472   6.512 -0.8034  0.1477 -0.1689
40443SOL    HW226650   5.556   0.535   6.537 -1.0659  0.7361 -0.2192
40444SOL     OW26651   3.884   4.425   0.525 -0.4427  0.2889 -0.0616
40444SOL    HW126652   3.793   4.451   0.511 -0.4300 -0.1263 -0.9646
40444SOL    HW226653   3.882   4.379   0.609 -1.1463 -0.0964 -0.2771
40445SOL     OW26654   0.289  10.456  11.625  0.2285 -0.1186 -0.1216
40445SOL    HW126655   0.356  10.392  11.604 -1.5486 -2.2068  0.2626
40445SOL    HW226656   0.336  10.523  11.675  1.9356 -1.7224  0.5524
40446SOL     OW26657   9.292   0.457   8.681 -0.1104  0.3273 -0.4912
40446SOL    HW126658   9.258   0.403   8.753 -1.5719  1.5356 -0.2188
40446SOL    HW226659   9.271   0.407   8.602  0.8870 -0.6898 -0.1299
40447SOL     OW26660   2.495   2.867   5.190  0.0417 -0.0132 -0.3219
40447SOL    HW126661   2.550   2.789   5.193 -1.3883 -1.2006 -2.2669
40447SOL    HW226662   2.475   2.886   5.281  1.1320 -1.3948  0.2459
40448SOL     OW26663   9.804   8.377   8.965  0.1262  0.3933  0.0640
40448SOL    HW126664   9.721   8.355   8.922  0.7744  0.8797 -1.4920
40448SOL    HW226665   9.782   8.451   9.022 -0.0441  2.3779 -2.3940
40449SOL     OW26666   9.645  10.711   9.016  0.5713 -0.1590  0.6607
40449SOL    HW126667   9.679  10.622   9.019  0.6078 -0.1225  1.4780
40449SOL    HW226668   9.584  10.717   9.090 -0.0519  0.2482  0.1362
40450SOL     OW26669   1.378   4.885   5.650  0.2583 -1.4182  0.0556
40450SOL    HW126670   1.450   4.942   5.624  0.6722 -1.6237  0.7044
40450SOL    HW226671   1.419   4.798   5.660 -0.2283 -1.6863 -0.2806
40451SOL     OW26672   4.452   0.095  11.038  0.0507  0.9640  0.0390
40451SOL    HW126673   4.533   0.145  11.028 -1.1257  2.9417  0.0721
40451SOL    HW226674   4.438   0.055  10.952  1.6154 -0.3542  0.3412
40452SOL     OW26675   4.921   2.873   3.725  0.0347  0.9273  0.2476
40452SOL    HW126676   4.869   2.835   3.655  0.7796  0.5248 -0.1021
40452SOL    HW226677   4.898   2.823   3.803  0.2567  0.4230 -0.0066
40453SOL     OW26678   8.906   2.958   7.788  0.0178  0.2685  0.1428
40453SOL    HW126679   8.963   2.969   7.713 -1.2695  0.6130 -0.8177
40453SOL    HW226680   8.828   3.010   7.768 -0.7984 -0.4691  1.2322
40454SOL     OW26681   3.673   8.157   2.837 -0.4359 -0.0753 -0.1865
40454SOL    HW126682   3.675   8.248   2.806 -0.0763 -0.5074 -1.5002
40454SOL    HW226683   3.765   8.131   2.841 -0.5712 -0.7282 -0.9565
40455SOL     OW26684   8.426   0.325   9.487  0.1614 -0.2288  0.5758
40455SOL    HW126685   8.386   0.239   9.495 -0.6864  0.2642  1.8553
40455SOL    HW226686   8.429   0.341   9.392 -3.6799  0.1347  0.3677
40456SOL     OW26687   1.737  11.127   4.337  0.3622  0.0665 -0.0257
40456SOL    HW126688   1.711  11.123   4.245  1.4166 -0.7136 -0.3135
40456SOL    HW226689   1.693  11.052   4.377  0.9491 -0.3789 -0.1947
40457SOL     OW26690   2.754   9.005   5.107  0.5742  0.3072 -0.0060
40457SOL    HW126691   2.716   8.948   5.174  0.6946  0.6091  0.3270
40457SOL    HW226692   2.837   9.033   5.145  1.2370 -0.5144 -0.8205
40458SOL     OW26693   7.755   3.628   4.827  0.3417  0.0053 -0.4584
40458SOL    HW126694   7.671   3.590   4.853 -0.3685  0.7086 -1.6190
40458SOL    HW226695   7.795   3.657   4.908 -1.3846  1.3272 -0.0259
40459SOL     OW26696   2.242   0.701  10.824 -0.1181 -0.5570  0.5992
40459SOL    HW126697   2.277   0.622  10.865 -0.0136 -0.3501  0.9110
40459SOL    HW226698   2.194   0.745  10.894  1.1469  0.4580  0.8581
40460SOL     OW26699   3.380  10.230   1.457  0.0762  0.6888 -0.0157
40460SOL    HW126700   3.473  10.252   1.467  0.2633  0.0628 -0.3544
40460SOL    HW226701   3.335  10.288   1.519  0.7720  0.3224  0.8550
40461SOL     OW26702   5.506   0.106   9.106  0.0438  0.0093 -0.0919
40461SOL    HW126703   5.448   0.113   9.182 -0.4878 -2.7547 -0.1408
40461SOL    HW226704   5.593   0.123   9.141 -0.2087 -1.0988  1.1635
40462SOL     OW26705   6.710   2.388   0.627  0.0672  0.4307 -0.4457
40462SOL    HW126706   6.774   2.366   0.695 -1.1287 -0.6516  0.3568
40462SOL    HW226707   6.696   2.307   0.579 -0.8674  0.5937 -0.4703
40463SOL     OW26708   9.365  11.625   3.159 -0.2781  0.5049  0.0637
40463SOL    HW126709   9.355  11.712   3.199 -1.3777  0.8001 -0.8069
40463SOL    HW226710   9.277  11.588   3.159 -0.3338  0.4971 -1.9736
40464SOL     OW26711   4.077   6.201   2.763 -0.1641 -0.1100  0.5079
40464SOL    HW126712   4.040   6.209   2.851  0.1605 -3.3066  1.0412
40464SOL    HW226713   4.009   6.238   2.706 -1.5091 -0.3047  1.9119
40465SOL     OW26714   5.459  11.558   8.519 -0.3220 -0.7528 -0.1524
40465SOL    HW126715   5.432  11.544   8.428  1.4532 -1.4969 -0.6044
40465SOL    HW226716   5.467  11.470   8.556  1.6308 -0.6042 -0.1273
40466SOL     OW26717   8.107   2.302   4.028  0.4707 -0.2642  0.4325
40466SOL    HW126718   8.152   2.342   3.954  0.3401  0.6796  0.8620
40466SOL    HW226719   8.014   2.317   4.010  0.3116 -1.7305 -0.1742
40467SOL     OW26720   9.975   2.966  10.409 -0.2156  0.3964  0.0031
40467SOL    HW126721   9.880   2.978  10.407 -0.1478  2.0651  2.6776
40467SOL    HW226722  10.011   3.054  10.404  1.2374 -0.1959 -0.7700
40468SOL     OW26723  11.535   1.533   6.437 -0.1142 -0.0419 -0.1192
40468SOL    HW126724  11.500   1.517   6.349  0.7425 -1.4809 -0.2369
40468SOL    HW226725  11.604   1.599   6.423 -0.5216  0.3369 -0.3868
40469SOL     OW26726   6.501   4.576  10.846  0.1458  0.1348 -0.3639
40469SOL    HW126727   6.466   4.509  10.788 -0.5995  0.6224 -0.4886
40469SOL    HW226728   6.592   4.550  10.861  0.0406 -0.5612 -0.9059
40470SOL     OW26729   0.764  10.562   4.680  0.0803 -0.4172  0.3717
40470SOL    HW126730   0.757  10.470   4.706  0.8297 -0.9928 -1.3583
40470SOL    HW226731   0.854  10.572   4.650 -0.9058 -0.0589 -2.7516
40471SOL     OW26732   6.230   9.661   7.583 -0.1612 -0.6689 -0.5931
40471SOL    HW126733   6.251   9.680   7.674  1.0092 -0.2880 -0.9207
40471SOL    HW226734   6.238   9.566   7.576 -1.1733 -0.8030 -0.0951
40472SOL     OW26735   7.506   6.374   7.025 -0.3572 -0.3036  0.1233
40472SOL    HW126736   7.558   6.334   6.955 -0.4190 -1.8588  0.9261
40472SOL    HW226737   7.417   6.377   6.990  0.2824  3.6295 -1.8124
40473SOL     OW26738   7.205   1.882  10.327 -0.2733  0.1381 -0.2566
40473SOL    HW126739   7.186   1.847  10.239  1.3726  0.9055 -0.9593
40473SOL    HW226740   7.300   1.879  10.334 -0.2742  1.6179  0.8591
40474SOL     OW26741   8.311   2.807   8.403  0.1766 -0.4116  0.1324
40474SOL    HW126742   8.343   2.893   8.431 -1.2780  0.2281 -0.0937
40474SOL    HW226743   8.383   2.770   8.352  0.4060  1.1777 -0.7587
40475SOL     OW26744  10.206   5.265   7.257  0.0608  0.4523  0.4493
40475SOL    HW126745  10.300   5.283   7.257  0.2355 -0.3120 -0.8868
40475SOL    HW226746  10.166   5.345   7.291  1.2731  0.1489  2.7608
40476SOL     OW26747   1.149   1.421   3.123  0.3050 -0.3689 -0.3928
40476SOL    HW126748   1.232   1.455   3.156  0.5402 -0.8092 -0.5108
40476SOL    HW226749   1.085   1.441   3.192  0.6287 -0.5598 -0.0319
40477SOL     OW26750   7.906   9.176  10.554 -0.3138  0.0470 -0.3878
40477SOL    HW126751   7.917   9.124  10.474 -0.7204 -0.9449  0.1936
40477SOL    HW226752   7.812   9.196  10.556  0.0277  2.1267 -1.3893
40478SOL     OW26753  10.852  11.615   9.686  0.0989  0.2572 -0.8253
40478SOL    HW126754  10.850  11.583   9.776 -1.2183 -0.7251 -1.1666
40478SOL    HW226755  10.832  11.538   9.633  1.4823  0.6734 -2.0254
40479SOL     OW26756   4.240   0.291   2.094 -0.2281  0.1497 -0.3233
40479SOL    HW126757   4.170   0.297   2.159 -0.0267 -4.0679  0.6017
40479SOL    HW226758   4.196   0.258   2.015  0.5302 -2.1395  0.1409
40480SOL     OW26759   7.326   7.527   1.255  0.0452  0.2373 -0.2923
40480SOL    HW126760   7.391   7.590   1.223  0.1962  0.6081  0.6924
40480SOL    HW226761   7.310   7.469   1.181  0.4200  1.0211 -1.0028
40481SOL     OW26762   6.241  10.936   7.310  0.8885 -0.0183 -0.3295
40481SOL    HW126763   6.217  11.028   7.320 -0.4323 -0.5213  1.7434
40481SOL    HW226764   6.194  10.907   7.232  0.4356  0.8162 -0.3706
40482SOL     OW26765  10.483  11.121   3.545  0.0372  0.6267 -0.0150
40482SOL    HW126766  10.506  11.040   3.501 -2.0195  0.2467 -0.4932
40482SOL    HW226767  10.470  11.096   3.637 -1.5124  0.1803 -0.3290
40483SOL     OW26768  10.197  10.001   6.892  0.4797  0.2707 -0.4642
40483SOL    HW126769  10.126  10.065   6.890 -1.0609 -1.3351  0.1933
40483SOL    HW226770  10.153   9.916   6.894  2.3788 -0.7679  1.2998
40484SOL     OW26771   8.447   2.490   4.615  0.2438  0.2254 -0.1370
40484SOL    HW126772   8.357   2.478   4.585 -0.4666  1.8849  1.1342
40484SOL    HW226773   8.449   2.580   4.648  2.2559  0.0707  0.2831
40485SOL     OW26774   1.869   2.393   6.071 -0.1056  0.2799 -0.2722
40485SOL    HW126775   1.886   2.379   5.977 -1.2852  0.8775 -0.5914
40485SOL    HW226776   1.774   2.398   6.078 -0.1513 -1.4922  1.2418
40486SOL     OW26777   4.751   0.763   1.203  0.6348 -0.2584 -0.3362
40486SOL    HW126778   4.791   0.820   1.137 -0.1546 -0.7964 -1.3042
40486SOL    HW226779   4.785   0.675   1.183 -0.7606 -0.6750 -0.9904
40487SOL     OW26780  10.546  10.193   2.702 -0.5806 -0.7183  0.8609
40487SOL    HW126781  10.468  10.140   2.723 -1.5096 -0.1350 -0.9362
40487SOL    HW226782  10.613  10.129   2.680 -0.4659 -1.2371  2.5302
40488SOL     OW26783  11.203   0.743   6.932 -0.2511  0.0923 -0.4384
40488SOL    HW126784  11.117   0.780   6.914  0.0082  1.3486  0.7911
40488SOL    HW226785  11.240   0.798   7.001  1.7696 -0.0624 -1.2960
40489SOL     OW26786   3.584   5.673   6.877  0.5990  0.3361 -0.2857
40489SOL    HW126787   3.669   5.713   6.897  1.1273 -0.4511 -0.8924
40489SOL    HW226788   3.566   5.616   6.952  0.8467  0.1294 -0.3813
40490SOL     OW26789   7.421   9.088   1.004  0.3270 -0.0668  0.7619
40490SOL    HW126790   7.350   9.055   0.948  0.5732 -0.4882  0.6896
40490SOL    HW226791   7.478   9.012   1.017  1.7260  0.6744 -0.6455
40491SOL     OW26792   3.620   7.177   6.570 -0.1326  0.0124 -0.2346
40491SOL    HW126793   3.701   7.189   6.618  0.4958  0.9256 -1.4576
40491SOL    HW226794   3.598   7.264   6.536 -0.1783 -0.6711 -2.1189
40492SOL     OW26795   5.564   9.512   6.548  0.1200  0.2143 -0.0304
40492SOL    HW126796   5.556   9.586   6.608  0.0194 -0.2342  0.5214
40492SOL    HW226797   5.512   9.442   6.589 -0.3351  0.0483 -0.8762
40493SOL     OW26798   1.909   5.434   9.983 -0.2952 -0.3195  0.5124
40493SOL    HW126799   1.847   5.497  10.019 -0.5311 -0.3558  0.1667
40493SOL    HW226800   1.903   5.445   9.889  2.2709  1.6830  0.4759
40494SOL     OW26801   3.819   2.325   3.161 -0.0952  0.1371  0.2621
40494SOL    HW126802   3.786   2.383   3.093  3.1434  0.6921 -1.0358
40494SOL    HW226803   3.863   2.384   3.223  1.2181 -0.6767  0.1513
40495SOL     OW26804  10.135   7.809   6.967  0.0477  0.5911 -0.5224
40495SOL    HW126805  10.194   7.789   7.040  0.1081 -1.0225 -0.9766
40495SOL    HW226806  10.097   7.893   6.990 -0.2367 -0.0419  1.5942
40496SOL     OW26807   5.209   2.503  10.488  0.8384  0.0246  0.0382
40496SOL    HW126808   5.162   2.585  10.502  1.8056  0.7424 -0.7371
40496SOL    HW226809   5.290   2.514  10.539  2.0072  0.5212 -1.8300
40497SOL     OW26810   8.767   5.505   9.205  0.2541  0.4098 -0.7141
40497SOL    HW126811   8.844   5.561   9.211  0.0054  0.6517  0.4653
40497SOL    HW226812   8.698   5.554   9.249 -0.0623 -0.6453  0.0089
40498SOL     OW26813   2.744   0.040   1.317  0.1744  0.1736 -0.0814
40498SOL    HW126814   2.742  -0.046   1.275  0.9837 -0.6766  1.5324
40498SOL    HW226815   2.724   0.022   1.409  0.9652  1.6411  0.4019
40499SOL     OW26816   3.194  10.320   9.747  0.5074  0.3610  0.1744
40499SOL    HW126817   3.238  10.235   9.745 -0.4623 -0.1569 -0.0269
40499SOL    HW226818   3.170  10.337   9.656 -2.1574 -0.7376  0.5777
40500SOL     OW26819   1.406   6.503   3.671 -0.2361  0.3946 -0.3210
40500SOL    HW126820   1.497   6.530   3.659  0.0505 -0.2625  0.3006
40500SOL    HW226821   1.403   6.469   3.761 -0.4394 -2.1146 -1.2059
40501SOL     OW26822   8.282   5.750   3.192 -0.0839 -0.1142 -0.2765
40501SOL    HW126823   8.212   5.805   3.156  0.9409 -0.6845 -3.4319
40501SOL    HW226824   8.289   5.677   3.131  1.8466 -1.2071  1.1578
40502SOL     OW26825   9.140   8.480  11.000 -0.2447  0.0114  0.1360
40502SOL    HW126826   9.153   8.563  11.046  0.1477 -0.4404  0.8548
40502SOL    HW226827   9.123   8.416  11.069  2.5386 -1.1175 -0.0980
40503SOL     OW26828   6.058   9.334   8.074 -0.3075 -0.0991  0.3873
40503SOL    HW126829   5.964   9.321   8.060 -0.8777  0.8881  2.8319
40503SOL    HW226830   6.100   9.270   8.017 -2.3793  0.6189 -2.1343
40504SOL     OW26831   7.995   4.944   2.807 -0.0262 -0.1613 -0.1397
40504SOL    HW126832   8.066   4.969   2.748  1.2006 -0.5583  1.1055
40504SOL    HW226833   8.024   4.862   2.847 -1.2255 -0.3750  0.3536
40505SOL     OW26834   0.931   2.016   1.403 -0.4610  0.5688  0.7295
40505SOL    HW126835   0.942   1.931   1.362 -2.2247  0.7115 -0.1389
40505SOL    HW226836   0.865   2.002   1.471 -1.0626  1.3029  0.3181
40506SOL     OW26837   4.834   3.218   4.235  0.2356 -0.4295  0.0303
40506SOL    HW126838   4.748   3.202   4.196 -1.1095  1.7746  1.8169
40506SOL    HW226839   4.849   3.143   4.292 -1.1201 -0.2801  0.6260
40507SOL     OW26840  10.733   6.591   2.365 -0.3124  0.5124  0.5621
40507SOL    HW126841  10.769   6.569   2.279 -2.4937 -2.1714  0.2026
40507SOL    HW226842  10.804   6.572   2.427  0.4151 -0.0401 -0.4229
40508SOL     OW26843   2.331  11.652   3.997 -0.5022  0.3591 -0.0541
40508SOL    HW126844   2.333  11.748   3.997 -1.7005  0.3902 -0.3263
40508SOL    HW226845   2.291  11.629   3.913  2.2020 -0.4668 -1.2350
40509SOL     OW26846   0.475   0.195   3.696  0.0965 -1.0570  0.0915
40509SOL    HW126847   0.562   0.211   3.659 -0.2803 -0.0029 -0.3600
40509SOL    HW226848   0.427   0.152   3.626 -0.5018  0.6016 -0.5375
40510SOL     OW26849   8.276   2.192   3.653  0.0483  0.1257  0.2557
40510SOL    HW126850   8.209   2.191   3.584  0.2265 -0.3131  0.0843
40510SOL    HW226851   8.242   2.134   3.721 -0.3034  0.8566  0.7167
40511SOL     OW26852   5.400   7.940   7.494  0.2036 -0.2320  0.3538
40511SOL    HW126853   5.459   7.891   7.551  2.1115  0.4628 -0.9454
40511SOL    HW226854   5.384   7.881   7.420 -0.0403 -0.0809  0.2857
40512SOL     OW26855   8.507   8.022   1.008 -0.0777  0.4055 -0.4738
40512SOL    HW126856   8.597   8.051   0.998  0.3943 -0.1729  1.6740
40512SOL    HW226857   8.465   8.092   1.059 -0.3427 -0.1582  0.0909
40513SOL     OW26858   6.487   8.764   2.098  0.0856  0.4338 -0.3935
40513SOL    HW126859   6.540   8.780   2.176  1.2480  1.0518 -1.2764
40513SOL    HW226860   6.506   8.838   2.040 -0.9796  0.1413 -1.1575
40514SOL     OW26861   8.079   8.219   1.352 -0.0529 -0.5742 -0.2222
40514SOL    HW126862   8.106   8.305   1.385 -1.9201 -0.4394  1.1143
40514SOL    HW226863   8.046   8.235   1.264 -3.3509  0.7443  1.1088
40515SOL     OW26864   4.272   0.705   8.333  0.1161  0.1018 -0.5930
40515SOL    HW126865   4.268   0.698   8.238 -0.8573 -2.4200 -0.4618
40515SOL    HW226866   4.360   0.676   8.356  0.0177 -0.2969 -0.7031
40516SOL     OW26867   8.335   9.605   7.660 -0.0503 -0.4691 -0.0750
40516SOL    HW126868   8.382   9.592   7.578 -1.2529 -0.2233 -0.8174
40516SOL    HW226869   8.288   9.522   7.675 -2.1585  0.4545 -1.1925
40517SOL     OW26870   3.999   5.162   4.190  0.3102  0.5761  0.0433
40517SOL    HW126871   3.928   5.153   4.254 -0.0037  1.3832 -0.1941
40517SOL    HW226872   4.071   5.112   4.229 -0.9233 -1.8594 -0.5790
40518SOL     OW26873   3.672   6.707   7.425 -0.1698  0.6229  0.7327
40518SOL    HW126874   3.640   6.618   7.414  0.1949  0.0615  3.5783
40518SOL    HW226875   3.600   6.753   7.468 -0.5402  1.8969 -1.1343
40519SOL     OW26876   5.208   4.855   9.335  0.0178 -0.4424 -0.0865
40519SOL    HW126877   5.252   4.839   9.419  0.6317 -0.0943 -0.3406
40519SOL    HW226878   5.226   4.776   9.283  0.0078 -0.4678 -0.0516
40520SOL     OW26879   6.183   6.311   0.472  0.2882 -0.1508 -0.4137
40520SOL    HW126880   6.126   6.289   0.399  3.1504 -1.2780 -2.4873
40520SOL    HW226881   6.172   6.238   0.534 -2.4289  0.9951  0.6146
40521SOL     OW26882   0.504   7.891   4.725 -0.5100  0.0792  0.3036
40521SOL    HW126883   0.478   7.845   4.645 -0.1183  3.4936 -2.0114
40521SOL    HW226884   0.428   7.944   4.747  0.5395  1.7087  0.1219
40522SOL     OW26885  11.462   9.780   4.583 -0.0626  0.2781 -0.4114
40522SOL    HW126886  11.368   9.793   4.597 -0.3807 -0.2278 -1.9193
40522SOL    HW226887  11.492   9.734   4.662 -1.1088  0.2720 -0.0034
40523SOL     OW26888   3.185   8.242   8.578  0.4811 -0.0336  0.3884
40523SOL    HW126889   3.096   8.275   8.579  0.9775  1.4295  2.0934
40523SOL    HW226890   3.202   8.220   8.487 -1.8069 -0.9899  0.1195
40524SOL     OW26891   9.773   1.353   0.318  0.2776  0.2552  0.0449
40524SOL    HW126892   9.740   1.287   0.258 -0.2108  0.5187  0.0194
40524SOL    HW226893   9.789   1.305   0.400  0.3962  0.0139 -0.1182
40525SOL     OW26894   9.094   9.977   3.707 -0.0025  0.0829 -0.6274
40525SOL    HW126895   9.138  10.005   3.627 -2.9755  1.7065 -1.8561
40525SOL    HW226896   9.022  10.040   3.718 -1.2036 -1.5851  1.9113
40526SOL     OW26897   3.736  11.013   9.656 -0.0176  0.1923 -0.7291
40526SOL    HW126898   3.657  11.007   9.709  0.4709  0.2566  0.0135
40526SOL    HW226899   3.764  10.922   9.644  1.7279  0.2750  1.9747
40527SOL     OW26900   8.808   5.735   2.612  0.5419  0.1309 -0.6356
40527SOL    HW126901   8.778   5.660   2.663  1.0597  0.3287 -0.0351
40527SOL    HW226902   8.801   5.706   2.521 -0.6937 -0.1087 -0.4798
40528SOL     OW26903   5.119  11.793   2.736 -0.0980 -0.4872  0.2671
40528SOL    HW126904   5.061  11.830   2.668  0.3025 -0.5409 -0.1082
40528SOL    HW226905   5.155  11.714   2.695  0.2533 -0.4439  0.4959
40529SOL     OW26906   2.918   2.153   4.789 -0.1797 -0.0975 -0.6355
40529SOL    HW126907   2.849   2.140   4.724 -0.1313  2.6680 -1.3368
40529SOL    HW226908   2.990   2.099   4.758 -1.6998 -2.5622 -0.2217
40530SOL     OW26909  10.887   5.327  11.801 -0.0377  0.5166  0.2729
40530SOL    HW126910  10.929   5.363  11.879  0.6001  0.7104 -0.1478
40530SOL    HW226911  10.900   5.394  11.734  0.0086  0.0656 -0.1776
40531SOL     OW26912   6.125   0.420   3.973  0.1792 -0.1546  0.5588
40531SOL    HW126913   6.165   0.505   3.955  0.8681 -0.8415 -1.5246
40531SOL    HW226914   6.195   0.368   4.013 -0.1066  0.1098  1.4136
40532SOL     OW26915   0.869   3.893   9.448 -0.3549  0.6707 -0.1501
40532SOL    HW126916   0.807   3.851   9.507 -0.2186  0.7288  0.0358
40532SOL    HW226917   0.837   3.982   9.437 -0.2826  0.7138 -0.0197
40533SOL     OW26918   9.987   9.844   6.766  0.1085  0.0278 -0.3212
40533SOL    HW126919   9.893   9.841   6.785  0.0400  1.4933 -0.2697
40533SOL    HW226920  10.000   9.780   6.697 -0.7610 -0.8731  0.3281
40534SOL     OW26921   4.668   8.141   2.237  0.3526  0.1148  0.3682
40534SOL    HW126922   4.575   8.155   2.254 -1.0030 -0.1139 -4.8746
40534SOL    HW226923   4.681   8.048   2.251  0.2184  0.3623  2.3720
40535SOL     OW26924   1.819   4.697   7.123  0.3552  0.0278  0.1641
40535SOL    HW126925   1.908   4.709   7.091  0.3567 -0.6361 -0.0989
40535SOL    HW226926   1.798   4.606   7.102 -0.4837  0.2552 -0.0339
40536SOL     OW26927   0.106   2.742   9.906 -0.3361  0.5242 -0.1084
40536SOL    HW126928   0.196   2.772   9.897 -0.0838  0.1315  0.9518
40536SOL    HW226929   0.109   2.649   9.882 -0.1587  0.1386  1.3257
40537SOL     OW26930   0.375  10.862   8.114 -0.1105 -0.0586 -0.5606
40537SOL    HW126931   0.285  10.858   8.081 -0.0270 -0.9382 -0.7116
40537SOL    HW226932   0.412  10.775   8.095  1.4175  0.8963 -2.3226
40538SOL     OW26933  10.363   5.889   2.230 -0.1981  0.0154 -0.1344
40538SOL    HW126934  10.286   5.928   2.272  0.3974  0.3023  0.6915
40538SOL    HW226935  10.396   5.957   2.172  0.2665  0.4128  0.5813
40539SOL     OW26936   9.132  10.554   4.320  0.8455 -0.3783 -0.2014
40539SOL    HW126937   9.050  10.578   4.362  1.5897  2.2780 -0.0906
40539SOL    HW226938   9.118  10.572   4.228  0.8964 -1.2616 -0.3962
40540SOL     OW26939   4.191  10.253   0.110 -0.2851 -0.2406 -0.5780
40540SOL    HW126940   4.215  10.193   0.180 -2.2786  0.7488  1.0526
40540SOL    HW226941   4.126  10.205   0.059 -0.0235 -0.3692 -0.7944
40541SOL     OW26942   0.798   8.608   3.969 -0.0887 -0.0256 -0.6289
40541SOL    HW126943   0.777   8.532   4.024  1.8342 -0.2658 -0.1215
40541SOL    HW226944   0.763   8.586   3.883 -1.1822 -0.6527 -0.0472
40542SOL     OW26945   8.025   1.958   9.848 -0.1284  0.4166  0.7072
40542SOL    HW126946   8.014   1.865   9.828 -1.9091  0.8375 -0.4994
40542SOL    HW226947   7.963   1.975   9.920  0.8902  0.4914  1.5913
40543SOL     OW26948   7.542   5.548   8.495 -0.3765 -0.1728 -0.4041
40543SOL    HW126949   7.523   5.495   8.572 -0.2860 -0.1338 -0.3546
40543SOL    HW226950   7.492   5.629   8.508  0.3839  0.2314  0.0754
40544SOL     OW26951   0.721   3.362  10.412  0.0169  0.1088  0.0090
40544SOL    HW126952   0.630   3.336  10.402  0.0675  0.1408 -0.6091
40544SOL    HW226953   0.729   3.390  10.503 -0.1693 -1.5581  0.5841
40545SOL     OW26954   9.764   0.398  10.046 -0.4185  0.4488 -0.2424
40545SOL    HW126955   9.731   0.401  10.136  0.4205  1.5975  0.0455
40545SOL    HW226956   9.822   0.473  10.039 -0.4019  0.3243 -1.7332
40546SOL     OW26957   6.929  10.245   0.808  0.1747  0.9593  0.1826
40546SOL    HW126958   6.879  10.226   0.887 -0.4195 -1.9425 -0.7978
40546SOL    HW226959   6.962  10.334   0.822 -4.4287  2.7564  1.3151
40547SOL     OW26960   8.879   5.327  11.269 -0.1869  0.2399 -0.0340
40547SOL    HW126961   8.940   5.346  11.340 -0.8390  0.7527  0.3889
40547SOL    HW226962   8.793   5.333  11.309 -0.5383 -0.0520 -0.7369
40548SOL     OW26963   5.361   9.140   6.824 -0.0502  0.0839  0.0586
40548SOL    HW126964   5.343   9.224   6.864 -1.7836 -0.3297  0.2258
40548SOL    HW226965   5.399   9.087   6.894 -1.2232 -0.0141  0.6411
40549SOL     OW26966  10.385   6.742   7.184 -0.3411 -0.3625  0.0140
40549SOL    HW126967  10.317   6.804   7.158  1.0423  0.4317 -1.9392
40549SOL    HW226968  10.411   6.770   7.272 -2.3932 -0.6120  0.7438
40550SOL     OW26969   6.387  11.327   9.559  0.1696  0.0096  0.0934
40550SOL    HW126970   6.477  11.321   9.529  0.2735  3.1499 -0.6794
40550SOL    HW226971   6.388  11.296   9.649  1.6216 -1.6352 -0.4476
40551SOL     OW26972   3.408   2.728   5.381  0.8717  0.6936 -0.3193
40551SOL    HW126973   3.451   2.647   5.408 -0.5424  0.7748  2.5498
40551SOL    HW226974   3.322   2.700   5.350  0.0243  1.0815  1.5415
40552SOL     OW26975   3.066   9.321   5.065 -0.1263 -0.1064 -0.6379
40552SOL    HW126976   3.023   9.389   5.015  0.3313  1.3224  0.8200
40552SOL    HW226977   3.159   9.330   5.044  0.0324  0.2985  0.1829
40553SOL     OW26978   2.237   6.519   3.383 -0.3888 -0.1623  0.4431
40553SOL    HW126979   2.229   6.596   3.440  0.0798  0.5581 -0.4415
40553SOL    HW226980   2.185   6.452   3.427 -1.0177  0.7318  1.1152
40554SOL     OW26981   8.234  10.093   1.174  0.4571  0.3765  0.0798
40554SOL    HW126982   8.167  10.130   1.117  0.8416  1.0780  0.0768
40554SOL    HW226983   8.279  10.029   1.118 -1.3277 -1.4130  0.5917
40555SOL     OW26984   9.343   7.772   4.792  0.3070 -0.8642 -0.3152
40555SOL    HW126985   9.295   7.693   4.816 -0.5427 -0.4744 -0.6756
40555SOL    HW226986   9.343   7.772   4.696  0.8118 -0.7282 -0.3160
40556SOL     OW26987   9.928   3.742   7.793 -0.4509 -0.8710  0.1736
40556SOL    HW126988   9.834   3.732   7.809 -0.6112  0.6578  0.3598
40556SOL    HW226989   9.933   3.808   7.724  0.4791 -1.6723 -0.5532
40557SOL     OW26990   6.758   0.510   0.716  0.1891  0.0258 -0.2286
40557SOL    HW126991   6.741   0.502   0.622 -0.4429 -1.9093  0.0240
40557SOL    HW226992   6.853   0.518   0.722  0.3617 -1.2772 -0.9534
40558SOL     OW26993   6.852   0.248  10.098 -0.2635 -0.9657  0.0245
40558SOL    HW126994   6.925   0.233  10.037 -1.8198  0.6486 -2.3981
40558SOL    HW226995   6.848   0.168  10.150  2.5303 -1.5385 -0.4643
40559SOL     OW26996   3.258   6.099   9.214 -0.1606 -0.0662  0.3358
40559SOL    HW126997   3.189   6.080   9.150 -1.0494 -0.2356  1.3151
40559SOL    HW226998   3.339   6.072   9.171 -1.0073 -2.9184  0.3018
40560SOL     OW26999   6.627   9.366  10.507  0.4646  0.5750 -0.5320
40560SOL    HW127000   6.631   9.275  10.477 -0.6378  0.2487  0.2264
40560SOL    HW227001   6.533   9.387  10.505  0.5559  1.1911  0.7341
40561SOL     OW27002   0.706   9.255   0.918 -0.0515 -0.4287  0.3995
40561SOL    HW127003   0.645   9.193   0.877  0.2665 -0.6356  0.2350
40561SOL    HW227004   0.735   9.212   0.998  1.1394 -1.0576 -0.3366
40562SOL     OW27005   2.530   2.713   7.560 -0.4629  0.1217  0.5711
40562SOL    HW127006   2.624   2.716   7.541 -0.5298 -0.0317  0.1987
40562SOL    HW227007   2.506   2.621   7.550 -0.6555  0.1618  0.6504
40563SOL     OW27008   6.330  11.268   2.358  0.0611 -0.3918 -0.3028
40563SOL    HW127009   6.235  11.256   2.356 -0.0690  0.0972  1.3407
40563SOL    HW227010   6.351  11.270   2.451  1.9322 -2.3123 -0.6224
40564SOL     OW27011   3.378   3.702   4.058  0.1020 -0.0419 -0.6293
40564SOL    HW127012   3.428   3.672   3.982 -0.7822 -0.0925 -1.2148
40564SOL    HW227013   3.295   3.734   4.021  0.5069  1.9840  0.0913
40565SOL     OW27014   7.782  11.718   6.717 -0.0461  0.1720 -0.0351
40565SOL    HW127015   7.857  11.663   6.741  0.1354  0.9648  1.2826
40565SOL    HW227016   7.742  11.672   6.644  1.1996 -0.7393 -0.1827
40566SOL     OW27017   1.149   7.641  10.439  0.7052  0.2925 -0.4042
40566SOL    HW127018   1.175   7.631  10.530 -0.9735  0.0830  0.0838
40566SOL    HW227019   1.231   7.638  10.390  1.4773 -1.7409  0.9052
40567SOL     OW27020   2.642   3.961   5.648  0.5736  0.5233  0.1129
40567SOL    HW127021   2.672   3.940   5.736  1.2124 -0.2437 -0.2768
40567SOL    HW227022   2.630   3.877   5.605 -0.1121  0.8785 -0.4186
40568SOL     OW27023   2.859   8.364   5.984  0.7299  0.3606 -0.1050
40568SOL    HW127024   2.867   8.420   5.907 -0.6422 -0.2955 -0.7512
40568SOL    HW227025   2.768   8.335   5.984  0.6603  0.4111  1.8314
40569SOL     OW27026  10.615   2.516  10.046 -0.4530  0.1210 -0.5953
40569SOL    HW127027  10.627   2.483  10.135 -1.0184 -2.4412 -1.3830
40569SOL    HW227028  10.704   2.534  10.015 -0.3297  2.7911  1.0061
40570SOL     OW27029  11.294   7.976   9.065 -0.0367  0.8098 -0.0653
40570SOL    HW127030  11.318   8.052   9.119  0.1360  1.0945 -0.5294
40570SOL    HW227031  11.376   7.926   9.057 -0.4110 -0.0582  1.2020
40571SOL     OW27032   3.342   5.634   2.695 -0.3781 -0.3746 -0.1367
40571SOL    HW127033   3.348   5.705   2.759 -0.6311 -1.3627  1.0284
40571SOL    HW227034   3.431   5.627   2.659  0.0776 -0.5753  0.9845
40572SOL     OW27035   8.283   5.466  11.571 -0.2742 -0.1538 -0.0198
40572SOL    HW127036   8.217   5.491  11.507  1.4064 -1.8493 -2.5876
40572SOL    HW227037   8.284   5.371  11.570  1.3329 -0.1894  0.8794
40573SOL     OW27038   1.185   1.710  10.596 -0.6852 -0.1510  0.5816
40573SOL    HW127039   1.228   1.793  10.621 -2.5676  1.1612 -0.3164
40573SOL    HW227040   1.117   1.736  10.535  0.0662 -2.6335 -1.4725
40574SOL     OW27041   7.037  10.990   1.755  0.5787 -0.5188  0.6993
40574SOL    HW127042   7.084  11.069   1.730  1.9633 -0.8026  2.2068
40574SOL    HW227043   7.008  11.007   1.845 -1.5820 -0.6657  0.0771
40575SOL     OW27044  11.194   5.108   9.174  0.5705 -0.1850 -0.2736
40575SOL    HW127045  11.283   5.128   9.203 -0.3095  0.5538  2.1352
40575SOL    HW227046  11.159   5.192   9.147 -0.2188  0.0171  1.2975
40576SOL     OW27047   4.281   2.130   4.765 -0.2674 -0.2742  0.3543
40576SOL    HW127048   4.271   2.042   4.802  1.8927  0.1369  2.1328
40576SOL    HW227049   4.259   2.188   4.838  1.8682  0.5878  0.3678
40577SOL     OW27050   2.275   4.623   2.272 -0.0392 -0.0870  0.1586
40577SOL    HW127051   2.250   4.547   2.325 -0.1772 -0.8384 -0.9559
40577SOL    HW227052   2.338   4.589   2.209 -1.1093  0.4186 -1.2264
40578SOL     OW27053  10.264   2.253   8.416 -0.0368  0.0217 -0.3527
40578SOL    HW127054  10.198   2.323   8.419  1.2057  1.2120  0.8575
40578SOL    HW227055  10.341   2.295   8.377  0.2455 -1.1520 -1.1156
40579SOL     OW27056   5.319   8.825   7.562 -0.4024 -0.2023 -0.1373
40579SOL    HW127057   5.248   8.762   7.578 -0.2733 -0.4425 -0.4810
40579SOL    HW227058   5.390   8.797   7.620 -0.3466 -0.3776 -0.2862
40580SOL     OW27059   4.159   7.976   3.160 -0.0161  0.6129 -0.1242
40580SOL    HW127060   4.214   8.017   3.092  1.2270 -1.1496 -0.2541
40580SOL    HW227061   4.214   7.974   3.238  0.2843 -1.3944 -0.3168
40581SOL     OW27062   7.361   3.514   5.204  0.8424 -0.3218  0.1616
40581SOL    HW127063   7.388   3.503   5.295 -2.0566  1.3465  1.3803
40581SOL    HW227064   7.316   3.432   5.182 -0.7098  0.1965  1.2165
40582SOL     OW27065   3.005   8.753   5.879 -0.3010 -0.3437 -0.1944
40582SOL    HW127066   2.954   8.809   5.936 -0.9021 -1.2027  0.1327
40582SOL    HW227067   3.076   8.720   5.934 -1.3159 -1.7789  0.3094
40583SOL     OW27068   1.271   4.392   7.300 -0.1922 -0.3011 -0.2825
40583SOL    HW127069   1.258   4.387   7.395  1.2745 -1.4479 -0.1055
40583SOL    HW227070   1.331   4.465   7.288 -2.1707  1.3747 -0.5948
40584SOL     OW27071   5.302   0.571   3.996  0.2905  0.0248 -0.3862
40584SOL    HW127072   5.361   0.547   3.924  0.0762  2.4588 -1.4571
40584SOL    HW227073   5.270   0.658   3.973 -2.1590 -0.3687  1.1793
40585SOL     OW27074   7.157   4.052   7.246  0.3683 -0.4587 -0.0866
40585SOL    HW127075   7.109   4.110   7.305  2.3951  0.2003  1.0013
40585SOL    HW227076   7.191   4.111   7.178 -0.0262 -0.8524 -0.6284
40586SOL     OW27077   0.807   6.924   9.883 -0.1451 -0.9610  0.5086
40586SOL    HW127078   0.811   6.994   9.948  0.6774 -2.0424  1.6744
40586SOL    HW227079   0.896   6.919   9.848 -0.8115  0.3333 -1.5671
40587SOL     OW27080   1.541  11.430   4.306  0.5868  0.4531  0.8460
40587SOL    HW127081   1.472  11.457   4.367  0.2635 -0.3604  0.8539
40587SOL    HW227082   1.537  11.334   4.307 -0.3585  0.4016 -1.5005
40588SOL     OW27083   0.152   2.916   5.567  0.5800  0.3113 -0.0480
40588SOL    HW127084   0.118   2.970   5.639  0.6796  0.3961 -0.0637
40588SOL    HW227085   0.100   2.942   5.491 -0.4858 -0.7832  0.2792
40589SOL     OW27086   9.086   3.231   9.618 -0.1582  0.3392 -0.2467
40589SOL    HW127087   9.090   3.253   9.711 -0.4280 -0.7801  0.0483
40589SOL    HW227088   9.175   3.247   9.586  0.5360 -1.3394  0.7216
40590SOL     OW27089   5.622   4.512   8.050  0.0918  0.1679  0.5712
40590SOL    HW127090   5.533   4.511   8.015  0.1576 -1.6024  0.3983
40590SOL    HW227091   5.611   4.536   8.142 -0.6742 -1.0893  0.8208
40591SOL     OW27092   8.601   2.637   4.966  0.3321  0.2836 -0.7781
40591SOL    HW127093   8.558   2.553   4.953  0.1516  0.5755 -2.3409
40591SOL    HW227094   8.678   2.618   5.019  0.3272 -0.8816 -1.1721
40592SOL     OW27095   5.687  10.606   3.302 -0.0358  0.2920 -0.0363
40592SOL    HW127096   5.682  10.528   3.358  0.9653  0.0279 -0.2947
40592SOL    HW227097   5.777  10.607   3.271  0.0289  1.6808  0.1280
40593SOL     OW27098   2.834   9.748   4.614 -0.0243 -0.0622  0.3628
40593SOL    HW127099   2.757   9.769   4.668  0.4130  1.6179  0.3921
40593SOL    HW227100   2.798   9.739   4.525 -0.1444  2.2315  0.0942
40594SOL     OW27101  11.459   3.457   4.953  0.1127 -0.2369  0.5960
40594SOL    HW127102  11.453   3.361   4.948 -0.1993 -0.2043  0.2490
40594SOL    HW227103  11.378   3.483   4.997 -0.4136 -0.0508 -0.4584
40595SOL     OW27104   2.191   5.596   9.980 -0.0626 -0.1586  0.2494
40595SOL    HW127105   2.104   5.557   9.971  0.2672 -1.2300  1.4290
40595SOL    HW227106   2.234   5.544  10.047  0.4387  2.2216  1.9025
40596SOL     OW27107   4.259   9.392   3.295 -0.4664  0.0161 -0.2224
40596SOL    HW127108   4.204   9.369   3.371  0.7251 -0.3665  0.5492
40596SOL    HW227109   4.319   9.318   3.286  0.7332  0.9775 -0.2667
40597SOL     OW27110   3.369   3.168   6.858 -0.1265  0.3652 -0.5628
40597SOL    HW127111   3.392   3.078   6.881 -0.1889 -0.6019 -3.7975
40597SOL    HW227112   3.451   3.207   6.830 -0.3983  0.7533 -0.8212
40598SOL     OW27113   6.803   0.801   4.417 -0.1688 -0.2170  0.1353
40598SOL    HW127114   6.747   0.726   4.400 -2.0847  1.3451 -0.9518
40598SOL    HW227115   6.788   0.859   4.342  0.8153  1.4943  1.1901
40599SOL     OW27116   9.417  10.447  10.208  0.0805  0.1238 -0.7141
40599SOL    HW127117   9.388  10.528  10.167 -0.4475  0.8576  1.0006
40599SOL    HW227118   9.349  10.383  10.189 -1.1161  0.9659  0.5610
40600SOL     OW27119   5.601   0.209   6.386 -0.2613 -0.3021 -0.6755
40600SOL    HW127120   5.556   0.193   6.303 -0.3360 -0.7847 -0.5406
40600SOL    HW227121   5.595   0.304   6.398 -1.0251 -0.3280 -0.7827
40601SOL     OW27122   6.606   9.445   5.548 -0.5017  0.8082 -0.2732
40601SOL    HW127123   6.550   9.398   5.486  0.7439 -4.0092  1.7581
40601SOL    HW227124   6.597   9.396   5.630  0.1715  5.0438  2.6306
40602SOL     OW27125   4.244   0.032   7.248 -0.2987  0.1838  0.8278
40602SOL    HW127126   4.178  -0.005   7.306 -0.1306 -1.8089 -0.1375
40602SOL    HW227127   4.262  -0.039   7.186  0.7855  1.6272 -0.5648
40603SOL     OW27128   8.248   9.967  11.662  0.8714  0.2347  0.3148
40603SOL    HW127129   8.193  10.011  11.597 -0.5958  1.0704  2.0348
40603SOL    HW227130   8.251   9.876  11.632 -1.7310  0.0822  0.2381
40604SOL     OW27131   8.111  10.652  11.747 -0.0988 -0.3977  0.6398
40604SOL    HW127132   8.020  10.624  11.735 -0.7076  2.1128 -1.6822
40604SOL    HW227133   8.114  10.687  11.836 -1.3490 -0.6332  0.7947
40605SOL     OW27134   2.684   6.344   6.628  0.1157  0.6007 -0.2449
40605SOL    HW127135   2.632   6.317   6.704  0.0922 -1.2098 -0.8648
40605SOL    HW227136   2.656   6.285   6.558  0.1737  2.2031 -1.6702
40606SOL     OW27137   5.623   1.307  10.840  0.2169 -0.0012 -0.2175
40606SOL    HW127138   5.688   1.375  10.858  0.6927 -0.7987  1.3142
40606SOL    HW227139   5.631   1.248  10.914  0.3478 -2.1503 -1.8594
40607SOL     OW27140   5.711  10.931   6.197  0.5441 -0.9086 -0.6926
40607SOL    HW127141   5.749  10.906   6.281  0.0028 -1.2039 -0.5366
40607SOL    HW227142   5.670  10.851   6.164 -0.7730 -0.3609 -0.4202
40608SOL     OW27143   6.306   4.916  11.401  0.8840  0.0906  0.7011
40608SOL    HW127144   6.264   4.997  11.372  1.1228 -0.2468 -0.6643
40608SOL    HW227145   6.234   4.854  11.411  0.9478 -0.4067 -1.3618
40609SOL     OW27146   1.629   6.818  11.054  0.5744 -0.6442  0.4314
40609SOL    HW127147   1.578   6.803  10.974  0.7513  0.3926  0.1093
40609SOL    HW227148   1.582   6.771  11.122 -1.0772  0.6203  0.2223
40610SOL     OW27149   5.863   7.584   1.579 -0.0546  0.2486 -0.1771
40610SOL    HW127150   5.809   7.535   1.517 -0.2697 -0.1927  0.3513
40610SOL    HW227151   5.801   7.621   1.641  0.1696  0.6026 -0.1600
40611SOL     OW27152   8.812   4.912  11.034  0.4066 -0.6031  0.5579
40611SOL    HW127153   8.797   4.975  10.964 -0.7295 -0.0768  1.2411
40611SOL    HW227154   8.823   4.965  11.113  0.8695 -1.2132  0.9125
40612SOL     OW27155   5.963   3.023   4.496 -0.1719 -0.6062  0.0571
40612SOL    HW127156   6.010   3.032   4.578  0.4152 -0.3571 -0.2980
40612SOL    HW227157   5.950   2.928   4.486 -0.1081 -0.6471  0.3535
40613SOL     OW27158   7.282   6.939   0.833  0.0400  0.1484 -0.0179
40613SOL    HW127159   7.211   6.925   0.896 -2.9125 -1.1457 -3.2926
40613SOL    HW227160   7.346   6.870   0.852 -1.2434 -0.8135  0.9712
40614SOL     OW27161   2.672   4.254   8.622  0.4962 -0.0906 -0.0086
40614SOL    HW127162   2.604   4.322   8.629  1.3307  0.7920 -0.2264
40614SOL    HW227163   2.643   4.198   8.550  0.9664  1.4397 -1.4595
40615SOL     OW27164   1.389   6.436   6.922  0.5741 -0.1108  0.2493
40615SOL    HW127165   1.348   6.489   6.990  0.1920  1.8555 -1.4279
40615SOL    HW227166   1.482   6.458   6.926  0.6593 -0.5233  0.5784
40616SOL     OW27167   3.898   2.251   7.931 -0.0842 -0.5954 -0.1580
40616SOL    HW127168   3.891   2.248   7.836 -1.5734 -0.4093 -0.0717
40616SOL    HW227169   3.828   2.310   7.959 -1.3798 -2.6202  1.2059
40617SOL     OW27170   0.110   9.604   7.015  0.9407 -0.6155 -0.0937
40617SOL    HW127171   0.198   9.624   6.981  0.1141 -1.9000 -3.3813
40617SOL    HW227172   0.119   9.520   7.059  1.4698 -0.4767  0.0646
40618SOL     OW27173   8.629   0.298   6.175 -0.3721  0.4642 -0.2016
40618SOL    HW127174   8.552   0.243   6.184  0.5281 -0.6823  0.6596
40618SOL    HW227175   8.664   0.306   6.263  0.7034  0.6842 -0.6363
40619SOL     OW27176  10.511   7.871   4.013 -0.0223 -0.0790  0.0733
40619SOL    HW127177  10.503   7.779   4.036 -0.0851  0.1373  0.9319
40619SOL    HW227178  10.601   7.894   4.036  0.1656 -0.0524 -0.6405
40620SOL     OW27179   1.421  11.727   7.556 -0.1629  0.0097 -0.3487
40620SOL    HW127180   1.500  11.674   7.565  0.0301  0.5277  1.2379
40620SOL    HW227181   1.453  11.817   7.555 -0.3984  0.1939 -3.9429
40621SOL     OW27182   3.187   9.846   6.823  0.4292  0.4363 -0.2973
40621SOL    HW127183   3.268   9.842   6.773  1.7280  1.4269  1.6089
40621SOL    HW227184   3.196   9.924   6.878 -1.5960  0.2754  0.3644
40622SOL     OW27185   2.449   1.464   9.433 -0.6324 -0.7592  0.3327
40622SOL    HW127186   2.543   1.449   9.440 -0.5010 -0.0190  0.1920
40622SOL    HW227187   2.421   1.406   9.362  0.1033  0.5930 -1.1256
40623SOL     OW27188   5.006   3.198   7.442 -0.5594  0.0369 -0.5009
40623SOL    HW127189   4.947   3.137   7.397  0.3790  0.0358 -1.8068
40623SOL    HW227190   5.010   3.274   7.383  0.4693  0.1664 -0.2770
40624SOL     OW27191   6.932   4.530   7.428  0.4681  0.5443 -0.4589
40624SOL    HW127192   7.013   4.501   7.468  0.3279 -0.4983 -0.9099
40624SOL    HW227193   6.951   4.535   7.334  0.5227  2.0568 -0.3895
40625SOL     OW27194   6.751   7.196   5.167 -0.6177 -0.1804 -0.3628
40625SOL    HW127195   6.656   7.204   5.174 -0.7391 -1.3729 -0.4732
40625SOL    HW227196   6.779   7.160   5.252 -0.0139  1.9531  0.4072
40626SOL     OW27197   6.317   1.605   5.840  0.6529  0.0536  0.1122
40626SOL    HW127198   6.389   1.653   5.799 -0.0231 -0.1812 -1.3984
40626SOL    HW227199   6.273   1.561   5.768  0.4807 -1.8359  1.2991
40627SOL     OW27200   0.924  10.033   4.124 -0.1587  0.4051 -1.0193
40627SOL    HW127201   0.879  10.023   4.040 -0.8710  1.8314 -0.8397
40627SOL    HW227202   0.929  10.128   4.137  0.3976  0.2155  0.3196
40628SOL     OW27203   5.403   4.968   6.824 -0.7149  0.4759  0.3251
40628SOL    HW127204   5.342   4.983   6.751 -1.7136 -1.0427  0.7904
40628SOL    HW227205   5.458   4.895   6.795 -1.0407 -0.0577  1.0261
40629SOL     OW27206   3.412   5.701   9.183 -0.2439 -0.1405  0.0062
40629SOL    HW127207   3.414   5.797   9.183  1.5601 -0.1394 -0.5756
40629SOL    HW227208   3.442   5.676   9.096  0.3879 -1.2358  0.5114
40630SOL     OW27209   7.628   1.901   8.097  0.5877  0.1850  0.0821
40630SOL    HW127210   7.591   1.921   8.011 -1.4164  0.8497  1.0176
40630SOL    HW227211   7.658   1.811   8.090 -2.0684 -0.7326 -0.5718
40631SOL     OW27212   1.757   6.355   0.718  0.6266 -0.6805 -0.2366
40631SOL    HW127213   1.771   6.437   0.765  0.5529 -0.9212  0.2105
40631SOL    HW227214   1.830   6.299   0.746  1.8281 -0.1000 -2.0758
40632SOL     OW27215   7.510  10.229   9.633 -0.6486 -0.2430  0.0254
40632SOL    HW127216   7.596  10.261   9.659 -0.4393  0.0038 -0.9216
40632SOL    HW227217   7.451  10.304   9.644 -0.4973 -0.0414 -0.5128
40633SOL     OW27218   6.903   1.900   6.134 -0.3169 -0.5354  0.2600
40633SOL    HW127219   6.862   1.914   6.049  1.0310  0.0732 -0.3254
40633SOL    HW227220   6.875   1.974   6.187  0.9005  0.5001 -0.4974
40634SOL     OW27221   3.571   1.916   3.540 -0.0481  0.2958  0.0004
40634SOL    HW127222   3.541   1.844   3.596 -0.0262  0.6980  0.5353
40634SOL    HW227223   3.514   1.989   3.563  0.6479  0.7676  0.2594
40635SOL     OW27224   5.220   8.883   4.371  0.0224 -0.0850 -0.0946
40635SOL    HW127225   5.237   8.843   4.457  0.4680 -0.1330 -0.2040
40635SOL    HW227226   5.137   8.928   4.383 -0.8351 -1.5871 -0.1594
40636SOL     OW27227   2.377   9.087   6.885 -0.1716 -0.2092  0.1704
40636SOL    HW127228   2.468   9.101   6.860 -0.6289 -1.6986 -2.7661
40636SOL    HW227229   2.347   9.171   6.918  2.0021  0.5365  0.3560
40637SOL     OW27230   1.139   4.229   0.423  0.0081 -0.6390  0.3779
40637SOL    HW127231   1.119   4.180   0.343  0.8199  1.7664 -1.4207
40637SOL    HW227232   1.213   4.285   0.399  2.8579 -2.4364  3.9525
40638SOL     OW27233   6.747   0.406   3.536  0.0463  0.5944  0.2055
40638SOL    HW127234   6.707   0.462   3.469  1.1407 -0.5647 -1.5242
40638SOL    HW227235   6.731   0.317   3.504 -0.5724 -0.0816  2.2398
40639SOL     OW27236   8.114   3.194   4.434 -0.0482  0.9055  0.2896
40639SOL    HW127237   8.095   3.263   4.371 -1.9239 -0.7744 -1.1118
40639SOL    HW227238   8.076   3.224   4.516 -0.4326  1.7151 -0.1823
40640SOL     OW27239   6.904   9.855   0.186 -0.2889 -0.8286  0.2060
40640SOL    HW127240   6.835   9.859   0.121  0.1737 -3.1780 -0.5286
40640SOL    HW227241   6.859   9.866   0.270 -1.5313 -1.9756 -0.2711
40641SOL     OW27242   0.638  10.004   1.258 -0.3797  0.2203  0.0192
40641SOL    HW127243   0.649   9.988   1.164  0.2078 -0.2694  0.1669
40641SOL    HW227244   0.723   9.983   1.296 -1.3222 -2.1118  1.0017
40642SOL     OW27245   6.549   0.266   5.462 -0.0510  0.5665 -0.0329
40642SOL    HW127246   6.639   0.277   5.492  1.0368 -2.3380 -1.7681
40642SOL    HW227247   6.516   0.355   5.450  2.3660  1.7109  1.2102
40643SOL     OW27248   9.383   1.469  10.174 -0.1661  0.4227  0.0944
40643SOL    HW127249   9.382   1.541  10.238 -1.9977 -0.1694  0.7928
40643SOL    HW227250   9.341   1.396  10.219 -1.1654 -0.1368 -1.6488
40644SOL     OW27251   1.039   4.679  11.240  0.1627  0.1475  0.5564
40644SOL    HW127252   1.082   4.638  11.165  0.4916  1.4861 -0.0158
40644SOL    HW227253   0.982   4.611  11.275  2.6069 -1.6674  1.2635
40645SOL     OW27254   0.305  10.443   5.579  0.8714  0.2632  0.0034
40645SOL    HW127255   0.338  10.506   5.515  2.1278 -1.2582 -0.9344
40645SOL    HW227256   0.210  10.445   5.567  0.5310  3.9922  2.0274
40646SOL     OW27257   6.534   5.871   6.232  0.6312  0.0804 -0.4205
40646SOL    HW127258   6.570   5.805   6.173  0.5238  1.0416 -1.5970
40646SOL    HW227259   6.610   5.904   6.280  0.8940  0.0693 -0.8236
40647SOL     OW27260   0.399   3.150   6.797  0.3089 -0.8535  0.4698
40647SOL    HW127261   0.323   3.187   6.753  1.7292  0.3573 -1.0977
40647SOL    HW227262   0.453   3.226   6.820  1.9054 -1.7450 -0.1476
40648SOL     OW27263   0.388   6.643   0.705 -0.6964  0.0203 -0.1490
40648SOL    HW127264   0.429   6.707   0.764 -1.2239 -1.4577  1.9100
40648SOL    HW227265   0.461   6.605   0.657 -0.0521  0.0923  0.7493
40649SOL     OW27266   1.306  10.953   7.615  0.0228  0.4493 -0.5030
40649SOL    HW127267   1.386  11.001   7.636  0.2659 -0.2594  0.2513
40649SOL    HW227268   1.279  10.916   7.698 -0.4861 -0.2270 -0.9666
40650SOL     OW27269  11.660   1.979   6.392 -0.2345 -0.7017 -0.1431
40650SOL    HW127270  11.713   2.057   6.410 -0.6347 -0.8326  1.8261
40650SOL    HW227271  11.573   2.001   6.426 -0.6793 -1.5592 -0.7006
40651SOL     OW27272   6.204  10.559   6.736  0.5011 -0.5287  0.1974
40651SOL    HW127273   6.174  10.627   6.796  1.6531  0.2041 -0.0380
40651SOL    HW227274   6.273  10.513   6.784  1.1857 -0.1625 -0.4121
40652SOL     OW27275   9.816   4.551   0.647  0.1808  0.2892 -0.6067
40652SOL    HW127276   9.729   4.556   0.687 -1.0145  0.6460 -3.0823
40652SOL    HW227277   9.868   4.615   0.695 -1.0855  0.5224  0.5096
40653SOL     OW27278   7.049   8.256  10.631  0.2505  0.6576  0.1441
40653SOL    HW127279   7.087   8.211  10.706  0.9775 -2.1928 -1.7772
40653SOL    HW227280   7.117   8.252  10.564 -1.4301  0.4713 -1.6156
40654SOL     OW27281   3.593   3.909   1.489 -0.0012  0.1505 -0.5052
40654SOL    HW127282   3.650   3.865   1.426 -0.3534  1.3246 -1.6747
40654SOL    HW227283   3.614   4.002   1.482 -0.9083  0.4350  0.2244
40655SOL     OW27284   1.556   4.130   1.652  0.1759  0.1935 -0.1511
40655SOL    HW127285   1.598   4.044   1.646 -0.8505 -0.4843  1.6519
40655SOL    HW227286   1.613   4.180   1.711 -0.2687  0.0592  0.4037
40656SOL     OW27287  10.883   4.148   3.881  0.4004  0.3035  0.5212
40656SOL    HW127288  10.874   4.203   3.803 -3.2033  1.3511  1.4547
40656SOL    HW227289  10.950   4.084   3.858  2.2544  2.8880 -1.9398
40657SOL     OW27290   6.302   6.282   3.680 -0.2847  0.2214 -0.2425
40657SOL    HW127291   6.218   6.305   3.640 -0.5829 -1.8613 -0.9376
40657SOL    HW227292   6.368   6.312   3.617 -0.4319  2.1123  0.4319
40658SOL     OW27293   1.009   6.683   1.163  0.0928 -0.6247  0.4962
40658SOL    HW127294   0.976   6.594   1.153 -0.9704 -0.0496 -2.2984
40658SOL    HW227295   0.931   6.734   1.186  0.3720 -0.1761  0.4546
40659SOL     OW27296   9.161  10.173   9.953 -0.0972 -0.2935 -0.3086
40659SOL    HW127297   9.103  10.164   9.877 -1.5609 -0.0171  0.7259
40659SOL    HW227298   9.220  10.098   9.946 -2.5527 -2.4289  0.1926
40660SOL     OW27299   1.413   1.505   1.797 -0.2824 -0.0202  0.2324
40660SOL    HW127300   1.427   1.582   1.742 -2.4260 -0.3467 -0.8793
40660SOL    HW227301   1.446   1.531   1.883 -0.4183  1.9248 -0.2479
40661SOL     OW27302   1.178   8.061   2.510  0.5015  0.2740 -0.0526
40661SOL    HW127303   1.114   8.082   2.442  0.7138 -0.0161 -0.3417
40661SOL    HW227304   1.125   8.043   2.588  0.1271 -1.5644 -0.6979
40662SOL     OW27305   4.911   3.982   0.933  0.1272  0.4109 -0.1420
40662SOL    HW127306   4.986   4.010   0.986  1.2011  0.8780 -1.8219
40662SOL    HW227307   4.920   3.887   0.927  0.2236  0.3985  0.1840
40663SOL     OW27308   5.245   1.040   3.966  0.2728  0.6209  0.4199
40663SOL    HW127309   5.229   1.047   4.061  0.5869  1.4831  0.4189
40663SOL    HW227310   5.180   1.098   3.927 -0.8293 -0.8746  0.0028
40664SOL     OW27311   0.307   3.108   4.460  0.0254 -0.2473 -0.6425
40664SOL    HW127312   0.252   3.031   4.447  2.0799 -1.3277 -4.5032
40664SOL    HW227313   0.274   3.172   4.397  1.2792  0.2375 -0.8307
40665SOL     OW27314   3.781  10.588   7.900  0.0155  0.2870 -0.4825
40665SOL    HW127315   3.810  10.582   7.809  2.0164 -0.7899  0.1614
40665SOL    HW227316   3.805  10.677   7.928 -1.0972  0.8098 -1.1235
40666SOL     OW27317  10.229   1.256   3.150  0.7576  0.7301  0.3210
40666SOL    HW127318  10.137   1.247   3.127  1.3206  0.4810 -2.0238
40666SOL    HW227319  10.258   1.167   3.170  0.8259  0.5875 -0.3884
40667SOL     OW27320   8.243  10.749   8.421  0.1448 -0.2722  0.5832
40667SOL    HW127321   8.290  10.764   8.503  0.1004  0.6313  0.4531
40667SOL    HW227322   8.308  10.710   8.362  0.9784  1.6774  0.1501
40668SOL     OW27323   1.036   6.730   7.195  0.1131 -0.4051 -0.0907
40668SOL    HW127324   0.943   6.711   7.208 -0.1169 -0.0299 -1.1016
40668SOL    HW227325   1.041   6.770   7.108  1.2624 -0.7205 -0.1939
40669SOL     OW27326  11.416   6.614   5.910 -0.0739  0.1954 -0.4235
40669SOL    HW127327  11.487   6.618   5.846 -0.8661  1.8655 -1.2744
40669SOL    HW227328  11.434   6.685   5.971  0.1007 -0.7199  0.6179
40670SOL     OW27329   1.614   7.300   6.526 -0.3043  0.1130 -0.1440
40670SOL    HW127330   1.577   7.212   6.528  1.6089 -0.7341  2.0091
40670SOL    HW227331   1.609   7.330   6.617  1.4978  1.1318 -0.3305
40671SOL     OW27332   0.108  11.311  11.585  0.5601  0.5166 -0.1234
40671SOL    HW127333   0.087  11.329  11.493  1.9764 -1.7441 -0.9849
40671SOL    HW227334   0.148  11.392  11.617 -1.2807  1.8423 -1.0167
40672SOL     OW27335   9.366  10.587   7.445 -0.0729  0.0314 -0.5298
40672SOL    HW127336   9.445  10.602   7.496 -0.6542  1.3821  0.0284
40672SOL    HW227337   9.342  10.673   7.411 -2.1861  0.0157  0.6785
40673SOL     OW27338   2.916   2.493   8.622 -0.0704  0.0926  0.1375
40673SOL    HW127339   2.894   2.550   8.696  0.6915  0.3784  0.1588
40673SOL    HW227340   2.979   2.544   8.571 -1.4864  0.3853 -1.3911
40674SOL     OW27341   8.873   3.813   8.329 -0.2430 -0.6496  0.0724
40674SOL    HW127342   8.894   3.723   8.303  2.9945  0.2521 -0.8238
40674SOL    HW227343   8.874   3.811   8.425  1.1689 -1.3185  0.0662
40675SOL     OW27344   8.169   2.468   1.686  0.2876  0.4612  0.0910
40675SOL    HW127345   8.200   2.519   1.611 -0.4099  1.1416  0.2597
40675SOL    HW227346   8.232   2.487   1.755  0.2028  0.8516  0.0616
40676SOL     OW27347   9.599   2.709   1.008  0.2068  0.8488 -0.2912
40676SOL    HW127348   9.538   2.732   0.938 -0.3230  0.8127  0.1539
40676SOL    HW227349   9.583   2.775   1.076  0.4570  0.6638 -0.0524
40677SOL     OW27350   1.499   5.627   5.607 -0.3846 -0.1204  0.1320
40677SOL    HW127351   1.451   5.708   5.589  0.6202  0.1810 -1.2981
40677SOL    HW227352   1.569   5.654   5.667  1.4156  0.6168 -2.1754
40678SOL     OW27353  11.447   0.992  11.066 -0.5163 -0.2888 -1.1912
40678SOL    HW127354  11.373   0.932  11.073  0.0474 -0.8035  2.3669
40678SOL    HW227355  11.523   0.935  11.055 -0.2309 -0.1232 -0.2128
40679SOL     OW27356   1.493   0.798  10.942  0.2280 -0.6302  0.4176
40679SOL    HW127357   1.574   0.849  10.931  0.2393 -0.7859 -0.2728
40679SOL    HW227358   1.507   0.748  11.022  0.9919 -0.9730  0.0773
40680SOL     OW27359   3.913   6.232   2.246 -0.3128  0.0802 -0.1819
40680SOL    HW127360   3.912   6.241   2.150  3.5210  1.9655 -0.2350
40680SOL    HW227361   3.851   6.161   2.264 -4.0184  1.9633 -3.6420
40681SOL     OW27362   7.392   0.550   9.594 -0.1136 -0.3156  0.1797
40681SOL    HW127363   7.414   0.458   9.613 -1.2098 -0.9341 -1.3732
40681SOL    HW227364   7.386   0.555   9.499  1.0750  1.6796  0.1521
40682SOL     OW27365   5.736   5.138   3.494 -0.3626 -0.3170  0.1014
40682SOL    HW127366   5.758   5.229   3.510 -0.8858 -0.1826  0.0517
40682SOL    HW227367   5.645   5.129   3.522 -0.3776 -0.7743 -0.0766
40683SOL     OW27368   5.057   8.948  10.809  0.3304 -0.7009 -0.0747
40683SOL    HW127369   4.990   8.891  10.847 -0.6580  0.3650 -0.1499
40683SOL    HW227370   5.012   8.993  10.737  0.8874  0.6381  0.3773
40684SOL     OW27371  10.724   7.046   9.160  0.0827 -0.4022 -0.3061
40684SOL    HW127372  10.670   6.976   9.195  0.4945  0.4316  2.1905
40684SOL    HW227373  10.761   7.089   9.237 -0.3467  2.7161 -1.6714
40685SOL     OW27374   0.502   4.042   2.173 -0.1939 -0.1838 -0.3030
40685SOL    HW127375   0.497   4.056   2.078 -1.5995 -0.8293 -0.3525
40685SOL    HW227376   0.594   4.020   2.189  0.1066  0.1203 -1.4785
40686SOL     OW27377   8.949   5.701   5.733 -0.2195  0.4906  0.4414
40686SOL    HW127378   8.979   5.684   5.822  0.2061  0.4126  0.2858
40686SOL    HW227379   8.933   5.795   5.730 -0.2562  0.4885  0.6071
40687SOL     OW27380   4.306   4.857   6.416 -0.0208  0.0527  0.0054
40687SOL    HW127381   4.291   4.919   6.488 -0.4796  0.6106 -0.5596
40687SOL    HW227382   4.357   4.906   6.352 -1.5033  0.2990 -1.0312
40688SOL     OW27383   9.368  11.250  10.902  0.6531 -0.0021  0.6674
40688SOL    HW127384   9.417  11.332  10.909 -2.3695  1.9449  1.3823
40688SOL    HW227385   9.302  11.267  10.834  0.1487 -1.9749  0.5987
40689SOL     OW27386   4.934   3.129   6.225 -0.1310  0.5050 -0.5938
40689SOL    HW127387   4.905   3.149   6.314 -1.2567 -0.3593 -0.7415
40689SOL    HW227388   4.882   3.187   6.169 -0.0695  0.4264 -0.7337
40690SOL     OW27389  11.135  10.636   8.657 -0.3947 -0.3275  0.0080
40690SOL    HW127390  11.159  10.721   8.621  0.1057 -0.6275 -0.3581
40690SOL    HW227391  11.095  10.658   8.742  0.6338  0.2082  0.3705
40691SOL     OW27392   2.484   0.714  10.567 -0.3370 -0.0920  0.1947
40691SOL    HW127393   2.426   0.745  10.636 -0.7616 -2.4883  1.0173
40691SOL    HW227394   2.545   0.786  10.552 -2.4654  1.8736  0.4541
40692SOL     OW27395   5.225   7.099   4.585  0.2592  0.0874 -0.8829
40692SOL    HW127396   5.144   7.083   4.634  2.3319  0.1465  3.0189
40692SOL    HW227397   5.243   7.192   4.599  1.7004 -0.2432 -0.3074
40693SOL     OW27398   1.577   2.315   2.398 -0.0599  0.2485 -0.5851
40693SOL    HW127399   1.570   2.284   2.488  0.2123  0.4601 -0.4884
40693SOL    HW227400   1.642   2.257   2.358 -0.0361  0.2787 -0.5900
40694SOL     OW27401   9.883   7.097   0.909  0.0834 -0.1613  0.4426
40694SOL    HW127402   9.895   7.188   0.938  1.5129  0.3880 -1.6749
40694SOL    HW227403   9.860   7.050   0.989 -0.7312  2.0522  1.5973
40695SOL     OW27404  10.320   4.139   5.407  0.1212 -0.4899  0.0229
40695SOL    HW127405  10.270   4.067   5.369 -2.3359 -0.1234  2.2535
40695SOL    HW227406  10.318   4.122   5.502  2.3948  0.7665  0.3734
40696SOL     OW27407  10.436   6.890   1.551  0.6006  0.0284  0.3444
40696SOL    HW127408  10.512   6.859   1.600  0.4078  1.1052  1.3588
40696SOL    HW227409  10.440   6.985   1.558 -0.2807  0.1337 -0.4587
40697SOL     OW27410   6.394  11.055   6.721 -0.1160  0.4776 -0.1381
40697SOL    HW127411   6.387  11.044   6.626  0.0860 -2.1839  0.0769
40697SOL    HW227412   6.337  11.128   6.742  0.5249  1.6912 -2.4049
40698SOL     OW27413   8.413   1.516   8.982  0.1281 -0.3619 -0.3397
40698SOL    HW127414   8.384   1.474   9.064 -0.9261 -0.4127 -0.7197
40698SOL    HW227415   8.479   1.579   9.010  0.9386 -1.4878  0.3700
40699SOL     OW27416   8.134   3.558   6.368  0.2110 -0.4293 -0.0272
40699SOL    HW127417   8.162   3.633   6.419 -0.3802 -0.9828  1.1473
40699SOL    HW227418   8.215   3.510   6.349  0.5039  0.1172 -0.1761
40700SOL     OW27419   3.390   4.203   8.628 -0.1278  0.0759  0.1367
40700SOL    HW127420   3.326   4.132   8.639  0.1425 -0.5855 -2.1767
40700SOL    HW227421   3.475   4.160   8.634  0.0517  0.3535 -0.3819
40701SOL     OW27422   0.580   1.894   0.371 -0.0163 -0.0968 -0.0107
40701SOL    HW127423   0.497   1.918   0.413 -0.8080 -0.6621 -1.1907
40701SOL    HW227424   0.646   1.907   0.439 -1.1782 -0.4750  1.2409
40702SOL     OW27425   4.726   2.150  10.062 -0.3482  0.5046 -0.4469
40702SOL    HW127426   4.678   2.186   9.988  0.1487 -0.0206 -1.0337
40702SOL    HW227427   4.662   2.098  10.110 -0.6358  0.7384 -0.5753
40703SOL     OW27428   6.380   9.645  11.380  0.1023 -0.5403  0.0386
40703SOL    HW127429   6.291   9.676  11.363 -0.3145 -1.5596  0.2641
40703SOL    HW227430   6.394   9.662  11.473  0.1233 -0.4387  0.0171
40704SOL     OW27431   6.188   9.010   4.460 -0.4299  0.6063 -0.3748
40704SOL    HW127432   6.111   9.039   4.411 -0.6025  0.0889 -0.4136
40704SOL    HW227433   6.163   8.925   4.496 -0.3641  1.0526  0.7593
40705SOL     OW27434   5.844   2.033   0.601  0.1038 -0.2931  0.2842
40705SOL    HW127435   5.816   2.123   0.587 -2.3409 -0.7994  1.3671
40705SOL    HW227436   5.897   2.036   0.680  1.4921  0.3877 -0.6241
40706SOL     OW27437  10.590   4.741   6.279  0.3634 -0.1781  0.0723
40706SOL    HW127438  10.511   4.729   6.331  0.7595  0.4217  0.8278
40706SOL    HW227439  10.637   4.813   6.322  0.8030  0.1936 -0.9867
40707SOL     OW27440   1.814  11.379   0.917  0.1158 -0.1217 -0.1184
40707SOL    HW127441   1.757  11.330   0.976  0.0026 -0.7393 -0.7284
40707SOL    HW227442   1.813  11.329   0.835  0.5370  0.5395 -0.5378
40708SOL     OW27443   5.582  10.666   8.706 -0.2798 -0.9777 -0.0398
40708SOL    HW127444   5.525  10.741   8.687 -0.4041 -0.2775  2.7017
40708SOL    HW227445   5.668  10.692   8.673 -0.4053  0.2341  0.5204
40709SOL     OW27446   4.592   8.162   5.613  0.5977 -0.0019 -0.7084
40709SOL    HW127447   4.661   8.160   5.679  0.1969  0.9150 -0.2405
40709SOL    HW227448   4.637   8.149   5.530  0.8888 -3.4106 -0.1709
40710SOL     OW27449   9.720   4.246  11.574  0.0547 -0.4568 -0.0071
40710SOL    HW127450   9.803   4.198  11.574 -0.0726 -0.7364 -1.5179
40710SOL    HW227451   9.739   4.327  11.527 -0.3480 -0.1781  0.3046
40711SOL     OW27452   5.522   8.937  10.520  0.0357 -0.1155 -0.7081
40711SOL    HW127453   5.459   8.953  10.590 -0.4534  0.2644 -1.2241
40711SOL    HW227454   5.484   8.980  10.443  1.0463  0.3474 -0.9713
40712SOL     OW27455   4.857   0.692   7.930  0.0860 -0.3773  0.0784
40712SOL    HW127456   4.909   0.613   7.944  1.9011  0.6995 -0.2233
40712SOL    HW227457   4.909   0.744   7.869 -1.7007  0.4772 -0.7739
40713SOL     OW27458   8.969   7.330  10.678 -0.0238 -0.2923  0.3807
40713SOL    HW127459   9.051   7.302  10.638 -0.3788 -0.4858 -0.2237
40713SOL    HW227460   8.974   7.298  10.768  1.3015  1.1899  0.8816
40714SOL     OW27461   0.501   8.517   4.571 -0.3266  0.2519  0.3203
40714SOL    HW127462   0.444   8.589   4.601  1.5186  1.7659  0.3745
40714SOL    HW227463   0.583   8.530   4.619  0.2110 -1.6634 -0.0073
40715SOL     OW27464  11.425   3.567   7.034  0.4369  0.2606 -0.5570
40715SOL    HW127465  11.399   3.655   7.007 -1.5799 -0.2023 -0.3406
40715SOL    HW227466  11.503   3.547   6.983  0.3049  1.7655 -1.3957
40716SOL     OW27467   1.275   6.067   9.402 -0.0938 -0.1756  0.0080
40716SOL    HW127468   1.342   6.029   9.344  0.6700 -0.5410  1.0940
40716SOL    HW227469   1.326   6.116   9.467 -0.8643 -0.6658  0.9993
40717SOL     OW27470   4.599   8.558   6.597  0.0234  0.1262 -0.2805
40717SOL    HW127471   4.590   8.643   6.554 -1.3718 -0.0599 -0.4139
40717SOL    HW227472   4.518   8.512   6.576 -0.2843 -0.3372  1.7362
40718SOL     OW27473  11.659   1.291   5.327  0.6495 -0.0169  0.9227
40718SOL    HW127474  11.680   1.239   5.249 -1.2250  0.0995  0.2652
40718SOL    HW227475  11.675   1.381   5.300 -2.1781  0.2587 -0.2544
40719SOL     OW27476   2.140   9.320   9.867 -0.0081 -0.5041  0.2621
40719SOL    HW127477   2.116   9.234   9.900 -0.3121  0.0021  1.3972
40719SOL    HW227478   2.081   9.381   9.912 -0.8468  0.1858 -1.6425
40720SOL     OW27479   7.809   8.354   0.728  0.3079 -0.0773  0.1637
40720SOL    HW127480   7.835   8.294   0.658  0.3547 -1.2894  1.1885
40720SOL    HW227481   7.790   8.298   0.802  0.4815  1.1982  1.2103
40721SOL     OW27482   1.989   1.818   3.105  0.1379  0.0613 -0.5281
40721SOL    HW127483   2.009   1.831   3.012 -1.3612  0.1963 -0.8533
40721SOL    HW227484   1.989   1.723   3.116 -1.5429 -0.0526 -1.1426
40722SOL     OW27485   7.395   5.637   1.453 -0.6434 -0.5252  0.2880
40722SOL    HW127486   7.393   5.675   1.365 -0.0940  0.9852  0.8813
40722SOL    HW227487   7.476   5.671   1.491 -0.9858 -0.9686  1.4524
40723SOL     OW27488   2.274   4.339   0.199 -0.3792  0.0854 -0.0474
40723SOL    HW127489   2.199   4.344   0.140 -0.4808 -0.0724  0.0655
40723SOL    HW227490   2.350   4.339   0.142 -0.4822 -0.2196 -0.1872
40724SOL     OW27491   8.428   3.384   1.675  0.1566 -0.0951 -0.0111
40724SOL    HW127492   8.342   3.404   1.638  0.4724  0.3317 -0.5260
40724SOL    HW227493   8.482   3.459   1.652  0.4005  0.1208  1.2072
40725SOL     OW27494   4.369   2.315   9.405  0.4405 -0.2153  0.2878
40725SOL    HW127495   4.378   2.317   9.501 -0.4805 -1.4382  0.4305
40725SOL    HW227496   4.370   2.222   9.383  4.0466  0.0267 -1.3055
40726SOL     OW27497  10.167   5.909  10.650  0.2896  0.6118  0.3327
40726SOL    HW127498  10.211   5.983  10.692  2.2896  0.2093 -0.8997
40726SOL    HW227499  10.201   5.909  10.561 -0.3888 -1.2531  0.0349
40727SOL     OW27500  10.608   3.073   7.138  0.1412  0.1611  0.1648
40727SOL    HW127501  10.540   3.007   7.126 -0.0996  0.5447 -0.6579
40727SOL    HW227502  10.602   3.128   7.060  0.3798  1.1216  0.8127
40728SOL     OW27503   0.847   4.336   7.576 -0.2978 -0.2961 -0.0434
40728SOL    HW127504   0.811   4.417   7.614 -0.9635  0.3507 -1.9672
40728SOL    HW227505   0.933   4.327   7.618 -0.1733  1.4682  0.1683
40729SOL     OW27506  11.196   6.368   5.731 -0.1644  0.0905 -0.1828
40729SOL    HW127507  11.194   6.439   5.796 -1.0254  0.8293 -0.9909
40729SOL    HW227508  11.174   6.290   5.782  1.4647  0.2563  0.8523
40730SOL     OW27509   6.346   3.335   7.105  0.3938 -0.7243  0.1767
40730SOL    HW127510   6.292   3.257   7.116  0.5767 -0.6784  1.6636
40730SOL    HW227511   6.431   3.302   7.075  0.0760 -0.9521 -0.4935
40731SOL     OW27512  10.790  10.082  11.320  0.4784 -0.4530  0.0048
40731SOL    HW127513  10.861  10.120  11.268 -0.2228  1.6274  0.4637
40731SOL    HW227514  10.797  10.126  11.405  0.2141 -2.1354  0.9482
40732SOL     OW27515   2.098   6.230   5.908  0.0915  0.0986  0.3546
40732SOL    HW127516   2.080   6.208   5.817  1.7062 -0.5709  0.1525
40732SOL    HW227517   2.152   6.157   5.940  1.3752  1.3639  1.1843
40733SOL     OW27518   0.811  10.041   3.475  0.2175 -0.2000  0.4569
40733SOL    HW127519   0.895   9.995   3.469 -0.7256 -2.0846  1.0287
40733SOL    HW227520   0.746   9.972   3.476 -1.5137  1.2363 -1.8070
40734SOL     OW27521   7.797   1.394   7.066  0.2183 -0.0052  0.2077
40734SOL    HW127522   7.866   1.387   6.999  1.2557  2.2368  0.9456
40734SOL    HW227523   7.720   1.425   7.019  0.2752 -0.6194 -0.3006
40735SOL     OW27524   3.194   7.633   4.022  0.8052 -0.0285 -0.9251
40735SOL    HW127525   3.228   7.704   3.968 -0.4869  0.5355 -1.0426
40735SOL    HW227526   3.100   7.648   4.024  0.8544  0.7429  2.5186
40736SOL     OW27527   6.696  10.542   4.889 -0.1366 -0.5663 -0.9276
40736SOL    HW127528   6.712  10.628   4.849 -0.7738 -1.0392 -2.2354
40736SOL    HW227529   6.631  10.560   4.957  2.6427  0.6575  1.6820
40737SOL     OW27530  11.027   2.179   6.698  0.4897 -0.5624 -0.3387
40737SOL    HW127531  11.001   2.259   6.652 -0.9365 -0.2865  0.8559
40737SOL    HW227532  11.076   2.210   6.774 -0.9391 -0.7148  0.6883
40738SOL     OW27533   1.884   8.712   0.272  0.9972  0.1370 -0.1258
40738SOL    HW127534   1.793   8.725   0.296  0.3448 -0.2865 -2.2313
40738SOL    HW227535   1.896   8.617   0.275  1.4305  0.2005  0.3051
40739SOL     OW27536   1.365   4.957   8.292  0.2200 -0.2946  0.2204
40739SOL    HW127537   1.383   5.034   8.347 -1.3292  1.0732 -1.0722
40739SOL    HW227538   1.378   4.988   8.202 -0.7932 -1.4349 -0.3540
40740SOL     OW27539   5.161   2.130  11.205  0.1622 -0.4942  0.1401
40740SOL    HW127540   5.227   2.190  11.240 -0.5132 -0.0924  0.7623
40740SOL    HW227541   5.084   2.185  11.191 -0.0232 -0.9408 -0.6356
40741SOL     OW27542   1.964   8.279  11.656  0.2169  1.0480 -0.5199
40741SOL    HW127543   1.974   8.193  11.614  0.3259  0.7120  0.1829
40741SOL    HW227544   2.018   8.337  11.603 -0.6469  0.8991 -1.6069
40742SOL     OW27545   9.315   6.837   8.072 -0.4130  0.4951 -0.5940
40742SOL    HW127546   9.350   6.923   8.097 -1.0788  0.6699 -0.2265
40742SOL    HW227547   9.272   6.806   8.152 -1.8910  0.7034 -1.2852
40743SOL     OW27548   0.485   3.629   5.068  0.0236  0.6160  0.2750
40743SOL    HW127549   0.406   3.575   5.060  0.4333  0.2774 -1.9737
40743SOL    HW227550   0.488   3.652   5.161 -1.2146 -1.6343  0.9660
40744SOL     OW27551   9.050   8.753   5.615 -0.3551 -0.4318  0.3289
40744SOL    HW127552   9.143   8.765   5.633 -0.2354 -0.3273 -0.3397
40744SOL    HW227553   9.009   8.834   5.648 -0.2474 -0.5952  0.8680
40745SOL     OW27554   0.585   5.007   6.732  0.1053  0.0743  0.3526
40745SOL    HW127555   0.526   4.943   6.773  1.3815 -0.2184  1.8166
40745SOL    HW227556   0.672   4.981   6.762  0.7641  1.8077  0.0249
40746SOL     OW27557   7.322   9.847   0.855 -0.1572 -0.6261  0.3743
40746SOL    HW127558   7.352   9.782   0.791 -1.4745 -1.0474  0.1513
40746SOL    HW227559   7.227   9.836   0.857 -0.1050 -1.5074  3.3485
40747SOL     OW27560   6.114   8.295   2.857 -0.3739 -0.4997  0.4672
40747SOL    HW127561   6.158   8.211   2.848 -2.3233 -1.7480  1.8948
40747SOL    HW227562   6.126   8.318   2.950 -1.9747 -0.4810  0.6917
40748SOL     OW27563   7.967  11.100   7.685  0.0688 -0.5100 -0.5345
40748SOL    HW127564   7.983  11.138   7.772  0.0369  0.5459 -0.9789
40748SOL    HW227565   7.873  11.106   7.673  0.0764 -0.6308 -0.6569
40749SOL     OW27566   5.663   2.545   3.868 -0.3863 -0.3258  0.0734
40749SOL    HW127567   5.665   2.528   3.773 -1.1200 -1.5338  0.2558
40749SOL    HW227568   5.580   2.507   3.897  0.4561 -1.2222  1.4199
40750SOL     OW27569   9.547   9.977  11.217 -0.5000 -0.7041  0.4240
40750SOL    HW127570   9.515   9.993  11.129  0.6828  1.5027  0.3255
40750SOL    HW227571   9.549  10.063  11.258 -0.4444 -1.5923  2.4229
40751SOL     OW27572  11.760   3.223   4.689 -0.5299  0.3787  0.1968
40751SOL    HW127573  11.672   3.201   4.659  0.0370  0.1746 -1.3708
40751SOL    HW227574  11.807   3.140   4.688  0.0578  0.7099 -0.3180
40752SOL     OW27575  10.545   2.560   2.435  0.1870  0.2150  0.2875
40752SOL    HW127576  10.486   2.561   2.359  1.3431  1.0413 -0.6168
40752SOL    HW227577  10.608   2.491   2.415 -0.5169 -0.7804  1.3316
40753SOL     OW27578   9.426   1.932   8.388 -0.6862  0.1498 -0.8498
40753SOL    HW127579   9.515   1.968   8.381 -1.0524  0.7659 -3.2316
40753SOL    HW227580   9.437   1.838   8.377 -0.3368  0.2280 -1.1971
40754SOL     OW27581   7.913   4.889   2.300 -0.1360  0.0638 -0.8238
40754SOL    HW127582   7.993   4.837   2.296 -1.0495 -1.4350 -0.4813
40754SOL    HW227583   7.942   4.976   2.325  1.4385 -0.3044 -1.2751
40755SOL     OW27584   7.142   2.378  10.698  0.2117 -0.2621 -0.0226
40755SOL    HW127585   7.212   2.433  10.661 -0.1096  1.1837  1.3982
40755SOL    HW227586   7.150   2.295  10.651  1.3813  0.6416 -1.5453
40756SOL     OW27587  10.755   6.058   3.762 -0.5291 -0.3408 -0.3422
40756SOL    HW127588  10.705   5.980   3.742 -3.4635  1.3642 -0.2462
40756SOL    HW227589  10.795   6.084   3.679  1.3747 -2.3824 -0.1691
40757SOL     OW27590  10.252   7.313   9.778 -0.1880  0.0223  0.3798
40757SOL    HW127591  10.320   7.253   9.748 -0.0271  0.8401 -0.9872
40757SOL    HW227592  10.197   7.328   9.701 -0.2400  1.5810  0.6744
40758SOL     OW27593   6.585   5.170   0.197  0.2367  0.3508 -0.0130
40758SOL    HW127594   6.490   5.181   0.190  0.3683  1.2315 -0.5276
40758SOL    HW227595   6.596   5.081   0.231 -0.7752  0.3128  0.2542
40759SOL     OW27596  10.423   0.939   0.825 -0.1354 -0.2756  0.2478
40759SOL    HW127597  10.386   1.028   0.827  0.9518  0.1903  1.1479
40759SOL    HW227598  10.429   0.918   0.732 -0.7665  0.4360  0.0294
40760SOL     OW27599   2.225   3.069   1.014  0.9095  0.4878 -0.6709
40760SOL    HW127600   2.274   3.090   1.093  0.1748  0.4893 -0.2040
40760SOL    HW227601   2.235   2.975   1.003 -0.1057  0.2609  0.2064
40761SOL     OW27602   0.789   5.272   8.148  0.6033 -0.5684  0.0882
40761SOL    HW127603   0.829   5.211   8.087  0.9628  0.5626 -0.8391
40761SOL    HW227604   0.695   5.263   8.133  0.4158 -3.0996  2.1483
40762SOL     OW27605   3.139   4.319   4.502  0.2058 -0.3593  0.2289
40762SOL    HW127606   3.126   4.239   4.553 -0.6920  0.8233  1.9862
40762SOL    HW227607   3.220   4.304   4.454  0.7473 -1.8227  1.5055
40763SOL     OW27608   0.147   8.257  10.599  0.3338  0.8468 -0.2789
40763SOL    HW127609   0.083   8.213  10.543  0.5117  0.8837 -0.5152
40763SOL    HW227610   0.231   8.225  10.567  0.4319  0.7864  0.0431
40764SOL     OW27611   9.677   2.634  10.789 -0.0118  0.2113  0.1435
40764SOL    HW127612   9.615   2.638  10.716  0.5619 -0.7004 -0.4220
40764SOL    HW227613   9.748   2.578  10.756  0.8248  0.7552  0.9833
40765SOL     OW27614   5.453  10.239   0.391  0.6616  0.4367 -0.0845
40765SOL    HW127615   5.534  10.188   0.386  0.9820  0.9568 -0.4639
40765SOL    HW227616   5.409  10.208   0.470  0.6709 -0.6649 -0.4911
40766SOL     OW27617   9.783   1.814   4.711 -0.1199  0.2360  0.2461
40766SOL    HW127618   9.726   1.883   4.744 -0.2291 -0.0194  0.6025
40766SOL    HW227619   9.725   1.738   4.704  0.2996 -0.1837  1.1715
40767SOL     OW27620   8.592  10.538   5.195  0.0917  0.2108 -0.1910
40767SOL    HW127621   8.638  10.507   5.273  0.9652  0.0239 -0.7641
40767SOL    HW227622   8.554  10.622   5.221 -0.8716 -0.5157  0.8680
40768SOL     OW27623   8.251   0.014   3.964  0.3913  0.2173  0.0955
40768SOL    HW127624   8.264   0.109   3.966 -2.4995  0.8383 -2.6863
40768SOL    HW227625   8.169  -0.000   4.010 -0.0303 -0.6799 -0.8801
40769SOL     OW27626   8.673  11.375  10.056  0.1700  0.1341 -0.3095
40769SOL    HW127627   8.588  11.396  10.095  0.3592 -0.0716  0.2140
40769SOL    HW227628   8.695  11.453  10.005 -0.9140 -0.2807 -1.4760
40770SOL     OW27629   2.541   3.335   9.555 -0.5419  0.3960 -0.4926
40770SOL    HW127630   2.531   3.427   9.529 -0.1691  0.3932 -0.6627
40770SOL    HW227631   2.579   3.293   9.478 -0.6928  0.1014 -0.4076
40771SOL     OW27632   2.605   0.443   6.846  0.0539  0.1082 -0.2202
40771SOL    HW127633   2.693   0.416   6.872  0.3930  0.2214 -1.2072
40771SOL    HW227634   2.559   0.361   6.829 -0.6682 -0.0436  2.2035
40772SOL     OW27635   8.464   1.474   7.703  0.2093  0.6426  0.0273
40772SOL    HW127636   8.396   1.540   7.716  0.0008  0.5340 -0.4882
40772SOL    HW227637   8.460   1.419   7.781 -0.3300  0.6060 -0.0284
40773SOL     OW27638   5.359  10.016   3.549  0.3347 -0.2544  0.5705
40773SOL    HW127639   5.386   9.969   3.470 -0.3529 -2.6988  1.7153
40773SOL    HW227640   5.270  10.045   3.530  0.8047  0.7437 -0.1876
40774SOL     OW27641   2.180   4.075   0.110  0.2564 -0.5890  0.4398
40774SOL    HW127642   2.116   4.010   0.141  0.6175 -1.1427  0.0446
40774SOL    HW227643   2.128   4.152   0.088 -0.1208 -0.5321  1.4719
40775SOL     OW27644   4.784  11.485   6.593  0.0270 -0.3606 -0.3198
40775SOL    HW127645   4.784  11.576   6.564 -1.9449 -0.0158  0.5767
40775SOL    HW227646   4.768  11.435   6.513  0.3090  0.1301 -0.6910
40776SOL     OW27647  11.249   1.482   1.158 -0.0242  0.2809 -0.0546
40776SOL    HW127648  11.246   1.387   1.169 -1.3041  0.0330 -1.9968
40776SOL    HW227649  11.200   1.516   1.232 -1.6055 -0.7450 -0.5705
40777SOL     OW27650   9.046   3.857   2.049 -0.4121  0.4012 -0.1033
40777SOL    HW127651   9.022   3.842   2.141  1.1482  0.3641  0.3305
40777SOL    HW227652   9.061   3.770   2.013 -0.7248  0.4338 -0.3227
40778SOL     OW27653   7.698  10.393   4.686 -0.8086  0.0756 -0.7814
40778SOL    HW127654   7.671  10.475   4.644  0.1278  0.8086  0.0029
40778SOL    HW227655   7.794  10.393   4.678 -0.7963 -0.8750 -0.6538
40779SOL     OW27656   7.217   6.428   3.238 -0.1222  0.4199 -0.0143
40779SOL    HW127657   7.222   6.431   3.142 -0.7689  0.5944 -0.0478
40779SOL    HW227658   7.217   6.335   3.259  0.6037  0.3836 -0.1447
40780SOL     OW27659   0.613   6.466  11.472  0.0575  0.2585  0.1223
40780SOL    HW127660   0.553   6.441  11.402  1.9130 -0.5152 -1.2763
40780SOL    HW227661   0.556   6.493  11.544 -1.9523 -0.8377 -0.9677
40781SOL     OW27662   9.860   1.977   3.446 -0.7016  0.3037  0.2528
40781SOL    HW127663   9.768   1.977   3.419 -0.2967  1.9584 -1.3899
40781SOL    HW227664   9.886   2.069   3.441  0.4325  0.2203  3.1030
40782SOL     OW27665   8.609   3.506   6.768 -0.7055  0.2815 -0.4812
40782SOL    HW127666   8.589   3.417   6.737  2.1916 -0.7582  0.3352
40782SOL    HW227667   8.627   3.495   6.861  0.5591  1.5544 -0.5561
40783SOL     OW27668   2.919   5.605   8.612 -0.2473  0.2352  0.0453
40783SOL    HW127669   2.829   5.588   8.640 -0.1045  0.2447  0.5267
40783SOL    HW227670   2.910   5.645   8.526 -0.6806 -0.2182 -0.1239
40784SOL     OW27671   9.720   8.068   7.593 -0.3534  0.7708 -0.6368
40784SOL    HW127672   9.740   8.051   7.501 -2.1040  0.6955 -1.0323
40784SOL    HW227673   9.629   8.040   7.604  0.1166 -0.1537  1.3816
40785SOL     OW27674   3.153   7.490   9.262 -0.1182  0.1818 -0.2223
40785SOL    HW127675   3.230   7.529   9.301 -0.3837  1.5251 -0.9986
40785SOL    HW227676   3.181   7.402   9.236  0.9371  0.4094  0.1105
40786SOL     OW27677   3.843   7.730   5.329  0.5244  0.0238 -0.1211
40786SOL    HW127678   3.866   7.648   5.285  0.8191 -0.5363  1.0618
40786SOL    HW227679   3.915   7.745   5.391 -0.2025  0.4753  0.6223
40787SOL     OW27680   0.692  10.135   7.762 -0.0017 -0.4544  0.0588
40787SOL    HW127681   0.702  10.044   7.733  0.1056 -0.7759  1.0530
40787SOL    HW227682   0.756  10.184   7.712 -0.6416 -0.7755 -1.1169
40788SOL     OW27683   4.429   4.315   4.948  0.7037  0.2610  0.2228
40788SOL    HW127684   4.437   4.373   5.023 -1.3680  0.9618 -0.0192
40788SOL    HW227685   4.388   4.368   4.880 -0.6183 -1.2442 -0.2450
40789SOL     OW27686   9.278   0.998   3.608  0.0116 -0.1283  0.1641
40789SOL    HW127687   9.357   0.980   3.659 -0.5676 -2.7250  0.2914
40789SOL    HW227688   9.298   1.077   3.558  2.7828 -0.8740 -0.0186
40790SOL     OW27689  11.502   4.967   7.986  0.0870  0.5572 -0.3408
40790SOL    HW127690  11.577   4.911   7.966 -0.8298 -1.3431  1.1655
40790SOL    HW227691  11.478   4.944   8.076 -2.2443  1.1223 -0.7399
40791SOL     OW27692   2.107   7.437   4.476 -0.3615 -0.3771  0.2891
40791SOL    HW127693   2.158   7.366   4.438  1.2496  1.0886 -0.4439
40791SOL    HW227694   2.030   7.444   4.420 -0.4672 -1.4223  0.2852
40792SOL     OW27695   9.291   5.122   9.212 -0.2325  0.0971 -0.3229
40792SOL    HW127696   9.246   5.186   9.267 -0.4619  0.3321 -0.7787
40792SOL    HW227697   9.276   5.038   9.256 -1.9595  0.0273 -0.9702
40793SOL     OW27698   3.695   8.149   3.324 -0.5465  0.0843  0.0186
40793SOL    HW127699   3.687   8.082   3.391 -1.2169 -1.8712 -1.9025
40793SOL    HW227700   3.787   8.174   3.326 -0.9137  1.6998  3.0304
40794SOL     OW27701   7.811   8.354   6.890 -0.2448 -0.6320  0.5397
40794SOL    HW127702   7.883   8.292   6.877 -1.2080 -1.8695  0.8407
40794SOL    HW227703   7.822   8.383   6.981  0.0098 -0.6401  0.5132
40795SOL     OW27704   6.042   7.521  11.434 -0.0174  0.6216 -0.8291
40795SOL    HW127705   6.074   7.444  11.481  1.0696  1.0615 -0.8127
40795SOL    HW227706   6.120   7.576  11.424 -0.4168  0.9294 -2.3736
40796SOL     OW27707   6.140   5.056   4.419  0.6592  0.2764  0.0739
40796SOL    HW127708   6.188   4.990   4.368  2.9581  1.7462  0.1668
40796SOL    HW227709   6.189   5.063   4.501 -1.9257 -0.7234  1.8103
40797SOL     OW27710   2.080   5.133   8.957  0.4431 -0.4429  0.1912
40797SOL    HW127711   2.109   5.195   8.889  0.3246 -0.7074 -0.1008
40797SOL    HW227712   2.128   5.161   9.035 -1.0928  1.2747  0.5833
40798SOL     OW27713   6.714   4.451   7.844 -0.0500  0.2001 -0.0884
40798SOL    HW127714   6.784   4.513   7.825  0.2768 -0.0612  0.2297
40798SOL    HW227715   6.737   4.373   7.795  0.6570 -0.3829  1.1124
40799SOL     OW27716   3.441   4.115   3.203 -0.5453 -0.3045 -0.0315
40799SOL    HW127717   3.536   4.111   3.212 -0.5940 -0.4906  0.4113
40799SOL    HW227718   3.417   4.032   3.161 -0.4498  0.0135 -0.7238
40800SOL     OW27719   8.685   0.993   3.174 -0.4312  0.1504  0.5397
40800SOL    HW127720   8.667   0.949   3.257  2.1532 -2.0671  0.0926
40800SOL    HW227721   8.623   0.955   3.112  0.0417 -0.9483  0.7244
40801SOL     OW27722   2.995   6.369   5.318 -0.0412 -0.1239  0.1961
40801SOL    HW127723   2.923   6.397   5.262  0.9568  1.1743 -0.4820
40801SOL    HW227724   3.064   6.433   5.303  1.2891 -1.3529  0.7935
40802SOL     OW27725   4.148   0.405   6.219 -0.0475  0.3410 -0.2725
40802SOL    HW127726   4.068   0.369   6.182  0.2004  0.1819 -0.6647
40802SOL    HW227727   4.214   0.390   6.151  0.1406  1.1997 -0.2893
40803SOL     OW27728   7.686   2.957   0.593 -0.2908  0.4451 -0.1940
40803SOL    HW127729   7.707   2.908   0.672  0.1653  1.1091  0.1081
40803SOL    HW227730   7.771   2.978   0.553 -0.5330 -1.2154 -1.7214
40804SOL     OW27731  10.071   9.784   6.119  0.0998  0.4793  0.3275
40804SOL    HW127732  10.121   9.788   6.200 -0.6331  1.8224  0.7440
40804SOL    HW227733  10.012   9.709   6.131  1.2089 -0.4253  0.2793
40805SOL     OW27734   5.621   8.513   4.647  0.1447 -0.0241 -0.1600
40805SOL    HW127735   5.645   8.494   4.738 -0.6374  0.5246  0.1706
40805SOL    HW227736   5.534   8.552   4.653  1.1376  2.5159 -0.8904
40806SOL     OW27737   2.326  11.236  10.643  0.0781  0.6020 -0.4085
40806SOL    HW127738   2.303  11.213  10.733  0.6310  0.4983 -0.2918
40806SOL    HW227739   2.414  11.273  10.649 -0.0585  1.0107 -0.8469
40807SOL     OW27740   8.686   6.173  10.637 -0.0617 -0.2316  0.8904
40807SOL    HW127741   8.749   6.235  10.673  0.4298 -0.3054  0.1695
40807SOL    HW227742   8.601   6.215  10.650  0.3590  1.4936 -1.2304
40808SOL     OW27743  11.636   7.221   0.347 -0.2782  0.0233 -0.0402
40808SOL    HW127744  11.605   7.146   0.296  1.4843 -1.1774  0.5830
40808SOL    HW227745  11.607   7.203   0.436 -0.4647  0.4647 -0.0073
40809SOL     OW27746   9.106   3.705   0.111  0.3446  0.6652  0.0703
40809SOL    HW127747   9.116   3.689   0.205 -0.2415 -0.1998 -0.0038
40809SOL    HW227748   9.053   3.632   0.080  0.5259  0.9480 -0.9367
40810SOL     OW27749   6.797   5.387   9.427 -0.0414 -0.6057  0.1608
40810SOL    HW127750   6.766   5.400   9.338  0.9989  1.2870  0.0276
40810SOL    HW227751   6.719   5.361   9.476 -0.8259 -0.6975 -1.0842
40811SOL     OW27752   8.650  11.032  11.743  0.6307 -0.5317 -0.1458
40811SOL    HW127753   8.678  11.120  11.767  0.2089 -0.5047  0.2604
40811SOL    HW227754   8.629  11.038  11.650 -2.2147  0.5631  0.4623
40812SOL     OW27755   8.093   0.156   5.691  0.1588  0.1833 -0.1719
40812SOL    HW127756   8.179   0.180   5.727 -0.1401  0.1037  0.6199
40812SOL    HW227757   8.064   0.083   5.746 -0.5790  0.4487 -0.2071
40813SOL     OW27758   9.460   9.553   6.538  0.7754 -0.1608  0.1143
40813SOL    HW127759   9.469   9.460   6.561 -0.0196  0.2967  2.5842
40813SOL    HW227760   9.450   9.553   6.443  0.2642 -2.6499  0.0912
40814SOL     OW27761   4.335   7.899   1.632 -0.1812  0.0020 -0.1440
40814SOL    HW127762   4.361   7.891   1.540  0.8006  1.2253  0.0058
40814SOL    HW227763   4.245   7.867   1.634  0.2439 -1.3842 -1.2634
40815SOL     OW27764  11.407   6.935   5.388  0.3427 -0.7391  0.5105
40815SOL    HW127765  11.415   6.992   5.312 -1.0332 -0.2680  0.6842
40815SOL    HW227766  11.489   6.947   5.436  0.9385 -0.5270 -0.5451
40816SOL     OW27767   3.388   2.203  11.049 -0.2025 -0.3786  0.0354
40816SOL    HW127768   3.363   2.156  11.128  0.0084  2.1135  1.6822
40816SOL    HW227769   3.306   2.217  11.002 -0.6290 -0.1830  0.8191
40817SOL     OW27770   3.173   8.006   0.480 -0.0954 -0.3125  0.4339
40817SOL    HW127771   3.258   7.966   0.498 -0.2317 -0.7677  0.0771
40817SOL    HW227772   3.194   8.092   0.445  0.1937  0.3524  2.1061
40818SOL     OW27773   1.416   0.178   6.129  0.1184  0.3561  0.5455
40818SOL    HW127774   1.490   0.233   6.154  1.2232 -1.9989  2.9505
40818SOL    HW227775   1.448   0.089   6.138 -2.3585 -0.7567 -0.6347
40819SOL     OW27776   2.864   7.506   9.555  0.6095 -0.0278  0.1550
40819SOL    HW127777   2.874   7.557   9.474 -0.4969  0.8486  0.5357
40819SOL    HW227778   2.775   7.472   9.550  1.2583 -1.8243  0.0057
40820SOL     OW27779   9.650   8.277   3.590 -0.2840 -0.0552 -0.0125
40820SOL    HW127780   9.682   8.311   3.674 -0.9844  0.7439 -0.0518
40820SOL    HW227781   9.725   8.234   3.551  0.1432 -0.1471  0.8773
40821SOL     OW27782   5.855   0.161   0.635 -0.0373  0.5098 -0.0660
40821SOL    HW127783   5.843   0.066   0.636  0.2491  0.4732 -0.0934
40821SOL    HW227784   5.806   0.193   0.711 -3.0294  0.6831 -1.9017
40822SOL     OW27785   3.914   2.025   4.659  0.8346  0.5668  0.1426
40822SOL    HW127786   3.907   1.985   4.746  1.8170 -1.4665 -0.6428
40822SOL    HW227787   3.908   2.119   4.676 -1.0778  0.1850  2.1725
40823SOL     OW27788   4.546   0.723   8.280 -0.3024  0.2596 -0.0157
40823SOL    HW127789   4.624   0.764   8.244 -0.3849  0.8545  0.4650
40823SOL    HW227790   4.572   0.633   8.300 -0.0698  0.1225 -0.9148
40824SOL     OW27791   3.676   2.530   8.549  0.0152 -0.2950 -0.1218
40824SOL    HW127792   3.645   2.597   8.488 -0.3715 -0.4979 -0.1560
40824SOL    HW227793   3.598   2.508   8.601 -0.6840 -2.8839 -2.0941
40825SOL     OW27794   3.003   4.149   7.075  0.1160 -0.3681  0.6612
40825SOL    HW127795   2.943   4.131   7.147  0.0640  0.5185  0.8532
40825SOL    HW227796   3.035   4.237   7.093 -1.3113  0.6380 -1.4014
40826SOL     OW27797   3.095   2.486   6.994  0.0283  0.2281 -0.1767
40826SOL    HW127798   3.004   2.514   7.006  0.1964  0.4020  0.7649
40826SOL    HW227799   3.139   2.563   6.959 -0.1652  0.1644 -0.5712
40827SOL     OW27800  10.940   1.816   5.558  0.1073 -0.0687 -0.7044
40827SOL    HW127801  10.871   1.857   5.505  0.4398 -0.9197 -1.8433
40827SOL    HW227802  11.021   1.850   5.520  0.3359  0.2258  0.0425
40828SOL     OW27803   5.311   9.479   4.884 -0.2299 -0.1401 -0.2655
40828SOL    HW127804   5.237   9.532   4.915 -0.4577 -0.6855  0.1320
40828SOL    HW227805   5.383   9.502   4.943 -0.9614 -2.0287  1.4810
40829SOL     OW27806  11.357   4.807   2.477  0.0654  0.1116 -0.3951
40829SOL    HW127807  11.368   4.783   2.385 -2.5989  0.5926 -0.8968
40829SOL    HW227808  11.263   4.822   2.488  0.6303  3.2299  1.6067
40830SOL     OW27809  11.294   1.643  10.336 -0.4941  0.2692  0.0330
40830SOL    HW127810  11.323   1.566  10.287 -0.7856 -0.0891  0.4175
40830SOL    HW227811  11.225   1.610  10.393 -0.0248  0.6343  0.8276
40831SOL     OW27812   4.647   7.240  10.083  0.2283  0.3317  0.3624
40831SOL    HW127813   4.690   7.304  10.026  1.4769  0.1202  1.0368
40831SOL    HW227814   4.662   7.273  10.172  2.7659 -1.9165  0.8984
40832SOL     OW27815   1.823   9.214   1.716 -0.0816  0.3025 -0.0664
40832SOL    HW127816   1.895   9.154   1.695 -1.3518 -0.9408 -1.1170
40832SOL    HW227817   1.787   9.237   1.630 -2.5646 -1.2200  0.4745
40833SOL     OW27818   3.218   0.450   8.635  0.2669 -0.6315  0.2204
40833SOL    HW127819   3.176   0.379   8.684 -1.1736 -0.5928 -0.9040
40833SOL    HW227820   3.298   0.469   8.685  0.5209 -2.7907  0.7309
40834SOL     OW27821   9.781   1.562  11.061  0.0773  0.4643  0.3001
40834SOL    HW127822   9.765   1.472  11.031 -1.0538  0.8651 -0.3939
40834SOL    HW227823   9.874   1.577  11.045  0.3574 -0.6924  0.7506
40835SOL     OW27824   2.182   6.460   6.020 -0.1775  0.2477 -0.3425
40835SOL    HW127825   2.180   6.433   6.112 -0.6068  0.9535 -0.1330
40835SOL    HW227826   2.148   6.384   5.972 -0.4653  0.0720  0.1327
40836SOL     OW27827   1.228   8.804   2.777 -0.2632  0.0838 -0.2776
40836SOL    HW127828   1.225   8.727   2.721 -1.4670 -0.4650  0.5089
40836SOL    HW227829   1.161   8.862   2.743  0.1180  0.4629 -0.3953
40837SOL     OW27830  11.565   9.408   8.132 -0.4418 -0.0050  0.0275
40837SOL    HW127831  11.502   9.435   8.198 -2.2300  1.0089 -1.9737
40837SOL    HW227832  11.641   9.464   8.147 -0.4703 -0.3628  1.6822
40838SOL     OW27833   6.642   5.320   3.989  0.1845  0.0062  0.4557
40838SOL    HW127834   6.690   5.370   3.923 -0.6340  0.0327 -0.1234
40838SOL    HW227835   6.590   5.386   4.035  0.3520 -0.0902  0.7905
40839SOL     OW27836  11.300   7.333   5.055  0.6176 -0.1097 -0.0367
40839SOL    HW127837  11.270   7.253   5.098  1.3336  0.1516  0.9836
40839SOL    HW227838  11.331   7.304   4.969 -0.7296 -0.6608 -0.3568
40840SOL     OW27839   7.591   8.722   1.299 -0.2359  0.0192 -0.0826
40840SOL    HW127840   7.620   8.635   1.327 -0.1710 -0.6527 -2.0889
40840SOL    HW227841   7.497   8.710   1.280 -0.0609  0.1798 -1.0807
40841SOL     OW27842   2.478   9.646   7.123 -0.6661  0.0821 -0.2434
40841SOL    HW127843   2.388   9.620   7.144 -0.8745 -1.5925 -2.8294
40841SOL    HW227844   2.530   9.611   7.195 -1.7753 -1.6065 -0.2037
40842SOL     OW27845   4.686   7.415   7.562  0.9293 -0.2426  0.2394
40842SOL    HW127846   4.709   7.363   7.640  3.9208 -1.4712 -1.2949
40842SOL    HW227847   4.651   7.351   7.500 -0.0054  0.4689  0.0063
40843SOL     OW27848  11.714   9.136   3.484 -0.4300  0.5301 -0.0529
40843SOL    HW127849  11.753   9.148   3.570 -2.7685  2.1206  0.8739
40843SOL    HW227850  11.728   9.220   3.439  0.6642 -0.2381 -1.2219
40844SOL     OW27851  10.381   0.002   6.707 -0.1667  0.6080 -0.4820
40844SOL    HW127852  10.393   0.085   6.754  1.2230  1.1427 -1.7065
40844SOL    HW227853  10.465  -0.043   6.717 -0.4413 -0.0269 -1.0093
40845SOL     OW27854   5.424   0.955   0.277  0.6344  0.1157 -0.5715
40845SOL    HW127855   5.351   1.010   0.249  1.0634  2.4862  2.4527
40845SOL    HW227856   5.491   0.967   0.209 -1.4266 -1.7517 -3.1614
40846SOL     OW27857   1.199   9.714   4.296 -0.5049  0.0991  0.1215
40846SOL    HW127858   1.226   9.733   4.386  0.5689  0.7802 -0.3281
40846SOL    HW227859   1.139   9.640   4.305 -0.2036 -0.0271  1.3725
40847SOL     OW27860   9.733   5.914   0.640 -0.2639  0.2141 -0.0280
40847SOL    HW127861   9.639   5.920   0.623 -0.0585  1.2158 -0.8927
40847SOL    HW227862   9.774   5.952   0.562  0.8792 -0.8578  0.0193
40848SOL     OW27863  10.605   3.459   0.336 -0.4904 -0.6224  0.0296
40848SOL    HW127864  10.514   3.455   0.306 -0.9019  0.4836  1.0437
40848SOL    HW227865  10.632   3.549   0.318  0.4479 -0.9695 -0.3552
40849SOL     OW27866   4.513   9.125   3.064  0.1487  0.5606 -0.0564
40849SOL    HW127867   4.482   9.034   3.060  0.1578  0.3698  2.6817
40849SOL    HW227868   4.518   9.145   3.157 -1.2310  3.8865 -0.5586
40850SOL     OW27869   0.170   0.712   3.953  0.2413  0.5006  0.4941
40850SOL    HW127870   0.224   0.725   4.031  0.8104 -0.8626  0.3584
40850SOL    HW227871   0.177   0.794   3.905  0.2367  1.2021  1.6505
40851SOL     OW27872   5.673  10.350   7.780  0.3996  0.1907 -0.2140
40851SOL    HW127873   5.706  10.292   7.712 -0.0537  1.9617 -2.0352
40851SOL    HW227874   5.623  10.293   7.838  1.5959 -1.5239 -0.7921
40852SOL     OW27875   7.468   8.936  11.158  0.5109 -0.5679  0.1444
40852SOL    HW127876   7.436   8.880  11.088  1.6559 -1.4647  0.3066
40852SOL    HW227877   7.533   8.882  11.204  1.2206  0.6894  0.6628
40853SOL     OW27878   0.886   9.023   4.512 -0.4646 -0.0791 -0.3969
40853SOL    HW127879   0.931   8.972   4.580 -0.0415  2.1769  1.1431
40853SOL    HW227880   0.948   9.024   4.439 -0.8394 -2.3898 -0.8113
40854SOL     OW27881   2.502   4.633   0.112 -0.6924  0.3375  0.5834
40854SOL    HW127882   2.515   4.574   0.187 -0.7946  0.2866  0.5615
40854SOL    HW227883   2.419   4.605   0.074 -0.2266 -0.2102 -0.0678
40855SOL     OW27884   4.772   1.820   9.691  0.2256 -0.6708 -0.1812
40855SOL    HW127885   4.839   1.797   9.755  1.1054 -0.4519 -1.0039
40855SOL    HW227886   4.772   1.915   9.690 -0.3229 -0.6632  0.0309
40856SOL     OW27887   9.880   8.882   5.318  0.2792  0.2386  0.7810
40856SOL    HW127888   9.786   8.885   5.333  0.4626 -1.5141  2.6858
40856SOL    HW227889   9.918   8.931   5.391  0.9108 -1.0812  1.3579
40857SOL     OW27890  10.242   7.119   4.209  0.0456 -0.1218  0.5377
40857SOL    HW127891  10.224   7.025   4.199 -0.6042  0.2950 -3.9263
40857SOL    HW227892  10.335   7.123   4.231 -0.0514 -1.7458  1.4696
40858SOL     OW27893   7.619   9.436   1.957  0.9892  0.2494  0.2737
40858SOL    HW127894   7.606   9.342   1.973  1.0741  0.2781  0.5148
40858SOL    HW227895   7.662   9.440   1.871  1.4756  0.0398  0.5062
40859SOL     OW27896   6.805   8.699   7.109  0.1848 -0.0840 -0.2689
40859SOL    HW127897   6.796   8.779   7.057 -0.1156 -0.9019 -1.5383
40859SOL    HW227898   6.871   8.720   7.174 -0.8122  1.6056  0.2619
40860SOL     OW27899   6.146  11.168   4.484 -0.3099 -0.3052 -0.0903
40860SOL    HW127900   6.167  11.209   4.400 -2.0102 -0.2042 -0.5136
40860SOL    HW227901   6.219  11.109   4.501  0.0779 -0.3252 -1.6527
40861SOL     OW27902   8.626   9.727  11.607  0.3613  0.1893 -0.1955
40861SOL    HW127903   8.551   9.669  11.593  0.7364 -0.2481 -0.3869
40861SOL    HW227904   8.601   9.809  11.565  0.3643 -0.2448 -1.0600
40862SOL     OW27905   7.277   6.756  11.194 -0.4348 -0.1577 -0.8318
40862SOL    HW127906   7.336   6.824  11.160 -0.1334 -0.8012 -1.6358
40862SOL    HW227907   7.208   6.750  11.128 -0.1899 -0.9716 -1.0231
40863SOL     OW27908   5.028   9.875   2.234  0.2784 -1.0026  0.0372
40863SOL    HW127909   4.962   9.813   2.267 -1.6568 -0.0192 -1.7022
40863SOL    HW227910   5.023   9.950   2.293  0.5384 -1.3232  0.4681
40864SOL     OW27911  10.610   1.477   6.771  0.2631  0.3827 -0.1703
40864SOL    HW127912  10.642   1.554   6.817 -1.1058  1.2058 -0.5579
40864SOL    HW227913  10.630   1.494   6.679  2.2811 -0.9084 -0.0376
40865SOL     OW27914   0.410   0.276   8.942 -0.4576  0.3602  0.4600
40865SOL    HW127915   0.452   0.359   8.965 -0.9683  0.2542  1.8647
40865SOL    HW227916   0.451   0.250   8.859  0.6648  1.3376  0.6896
40866SOL     OW27917   7.772   0.024   2.037 -0.2770 -0.4732  0.1025
40866SOL    HW127918   7.759   0.078   1.959 -0.2212 -1.5544 -0.6789
40866SOL    HW227919   7.809  -0.057   2.003 -2.4468 -1.8914  0.9706
40867SOL     OW27920   0.211   0.415   6.246  0.0851 -0.4086  0.1979
40867SOL    HW127921   0.299   0.434   6.213 -0.5472  0.4685 -1.1018
40867SOL    HW227922   0.224   0.349   6.314  1.5353 -1.9735 -1.4885
40868SOL     OW27923   7.757   7.175   6.576 -0.0356  0.2446  0.6698
40868SOL    HW127924   7.725   7.090   6.606 -1.9124  1.1365  1.4032
40868SOL    HW227925   7.764   7.227   6.656  0.2070  1.0408  0.1397
40869SOL     OW27926   5.082   8.211   5.645  0.2261  0.1759 -0.1654
40869SOL    HW127927   5.138   8.200   5.722  1.8414  0.5729 -1.2265
40869SOL    HW227928   5.084   8.125   5.602 -0.1374  0.1371 -0.1032
40870SOL     OW27929   6.391  11.809   2.804 -0.3902 -0.1705 -0.3831
40870SOL    HW127930   6.378  11.877   2.872  2.1110 -0.8705  0.9055
40870SOL    HW227931   6.382  11.857   2.722 -1.6584  1.0984  0.4208
40871SOL     OW27932   7.627   9.035   1.504  0.0947  0.2297  0.0565
40871SOL    HW127933   7.660   8.999   1.422  0.9838  2.4652 -0.6542
40871SOL    HW227934   7.675   8.988   1.572  2.7492  1.4121 -0.8813
40872SOL     OW27935   9.531   3.762   4.526 -0.9320 -0.2834 -0.3431
40872SOL    HW127936   9.533   3.668   4.508 -0.9250 -0.4739  0.6298
40872SOL    HW227937   9.444   3.777   4.564 -0.8334  0.0592 -0.2534
40873SOL     OW27938   0.422   4.324   2.254 -0.6394  0.3540 -0.3547
40873SOL    HW127939   0.444   4.231   2.242 -1.1409  0.3296 -1.1450
40873SOL    HW227940   0.498   4.361   2.299 -0.2013 -0.3251 -0.5235
40874SOL     OW27941   4.735   8.182   7.226 -0.0223 -0.0499  0.2398
40874SOL    HW127942   4.720   8.099   7.270  1.1697  1.4447  3.8285
40874SOL    HW227943   4.654   8.231   7.238 -0.1711 -0.0956 -0.5097
40875SOL     OW27944   9.450  10.499   2.831  0.2080  0.2399 -0.7624
40875SOL    HW127945   9.473  10.587   2.859  0.5169 -0.1982  0.4111
40875SOL    HW227946   9.466  10.499   2.737  0.2075  1.4254 -0.7799
40876SOL     OW27947   4.546   5.236   2.454  0.3905 -0.2319  0.4547
40876SOL    HW127948   4.616   5.208   2.513 -0.8375 -0.0635  2.0774
40876SOL    HW227949   4.471   5.182   2.479 -0.8624  1.5553  0.7822
40877SOL     OW27950   2.404   9.611   1.891 -0.2998  0.5009 -0.3708
40877SOL    HW127951   2.399   9.625   1.797 -0.4257  1.6603 -0.2082
40877SOL    HW227952   2.342   9.675   1.928 -2.3232 -1.7283  0.3661
40878SOL     OW27953   6.190   7.270   2.676 -0.1761  0.3445  0.2267
40878SOL    HW127954   6.231   7.341   2.627 -0.8269  2.2474  2.2923
40878SOL    HW227955   6.227   7.277   2.764 -3.1523  0.7628  1.5802
40879SOL     OW27956   3.306   8.593   2.196 -0.1591  0.3040  0.1844
40879SOL    HW127957   3.329   8.581   2.104  0.0443 -1.1468  0.4005
40879SOL    HW227958   3.242   8.524   2.214 -0.6231  0.9229  0.9997
40880SOL     OW27959   5.106   0.366   4.908 -0.2209  0.1845 -0.0159
40880SOL    HW127960   5.168   0.423   4.953 -0.6325 -0.0644  0.9095
40880SOL    HW227961   5.156   0.325   4.838 -0.0553  2.0828 -1.0487
40881SOL     OW27962   8.527   9.863   8.424 -0.2356  0.2475 -0.0874
40881SOL    HW127963   8.551   9.838   8.335  0.0414 -0.5163  0.1849
40881SOL    HW227964   8.432   9.867   8.424 -0.2994 -0.8748 -0.1520
40882SOL     OW27965   9.749   6.124   7.857 -0.4356  0.0988 -0.4147
40882SOL    HW127966   9.693   6.071   7.801 -0.9433 -0.1399  0.2960
40882SOL    HW227967   9.709   6.117   7.944  0.6081  0.0463  0.0784
40883SOL     OW27968   6.425   3.518   5.019  0.1311  0.1059  0.2752
40883SOL    HW127969   6.340   3.493   5.056 -0.3409 -1.9163 -1.8858
40883SOL    HW227970   6.483   3.445   5.040  0.9475  0.7997  0.4868
40884SOL     OW27971  10.033   5.425   0.737 -0.2634 -0.2967  0.1300
40884SOL    HW127972  10.031   5.411   0.831  1.1228 -0.4112  0.1668
40884SOL    HW227973   9.985   5.507   0.724 -2.8788 -1.6619  0.5954
40885SOL     OW27974  11.791  10.196  11.442 -0.6507  0.2481 -0.0955
40885SOL    HW127975  11.709  10.244  11.431 -0.3989  1.0529  1.3275
40885SOL    HW227976  11.769  10.126  11.504 -0.4369  0.0191 -0.2797
40886SOL     OW27977  11.492   5.773   5.077 -0.2279 -0.2678 -0.1451
40886SOL    HW127978  11.501   5.762   5.172  0.1888 -1.3618 -0.2955
40886SOL    HW227979  11.482   5.684   5.043 -0.5360  0.1219 -1.1179
40887SOL     OW27980  11.622   5.012   6.805 -0.2559  0.4514 -0.2190
40887SOL    HW127981  11.675   5.091   6.807 -0.2027  0.4023  1.3924
40887SOL    HW227982  11.532   5.044   6.805 -0.2456  0.5448  1.1113
40888SOL     OW27983   1.152   8.163   7.079  0.8377  0.6051  0.3087
40888SOL    HW127984   1.148   8.233   7.013  2.1841  0.3103 -0.1092
40888SOL    HW227985   1.063   8.129   7.082  0.2407  2.0737  0.2361
40889SOL     OW27986   0.412  10.346   9.674  0.3140  0.7776 -0.1867
40889SOL    HW127987   0.435  10.357   9.582 -0.1601  2.2536 -0.1592
40889SOL    HW227988   0.342  10.281   9.675  0.4336  0.6417 -0.8522
40890SOL     OW27989   4.556   0.361   2.941  0.1849  0.1696  0.8067
40890SOL    HW127990   4.615   0.287   2.957 -0.8543 -0.4419  1.9158
40890SOL    HW227991   4.553   0.368   2.845 -0.0041 -1.4934  0.6637
40891SOL     OW27992   4.498   7.764   5.570 -0.6265 -0.2795  0.1587
40891SOL    HW127993   4.458   7.714   5.640 -2.1147  0.2637 -0.2567
40891SOL    HW227994   4.495   7.855   5.600 -0.2297 -0.1692 -0.1265
40892SOL     OW27995   4.649   1.382   9.265 -0.5351  0.0013  0.1195
40892SOL    HW127996   4.739   1.369   9.294  0.6158 -0.3252 -3.2051
40892SOL    HW227997   4.611   1.295   9.263 -0.3667 -0.0626 -0.1772
40893SOL     OW27998   7.317  11.669   4.481  0.0225 -0.0346 -0.3424
40893SOL    HW127999   7.316  11.638   4.572 -1.1465  0.2584 -0.2457
40893SOL    HW228000   7.279  11.597   4.431 -0.3281  0.2183 -0.4485
40894SOL     OW28001   1.109  11.047   4.593  0.4531  0.1370  0.0478
40894SOL    HW128002   1.096  11.132   4.551  0.9879  0.3243  0.2531
40894SOL    HW228003   1.063  10.985   4.536 -1.6826  0.7936  0.9577
40895SOL     OW28004   9.914   6.075  10.273  0.6935 -0.0910 -0.1522
40895SOL    HW128005   9.931   5.986  10.241 -0.3511 -1.1495  2.0287
40895SOL    HW228006   9.998   6.104  10.309  0.4707 -1.2420  1.4000
40896SOL     OW28007   7.108   4.722   8.413 -0.1263 -0.0677 -0.3359
40896SOL    HW128008   7.108   4.801   8.468 -0.6001 -1.8338  2.3953
40896SOL    HW228009   7.199   4.692   8.415 -0.2481 -0.4297 -0.0098
40897SOL     OW28010   2.489  10.075   3.124  0.2944  0.2028  0.0338
40897SOL    HW128011   2.493  10.011   3.195 -0.4369 -0.0292 -0.1224
40897SOL    HW228012   2.579  10.103   3.112  0.4145  0.3865  1.1846
40898SOL     OW28013   5.095   6.235   2.173 -0.7360  0.3668 -0.3730
40898SOL    HW128014   5.012   6.251   2.129 -1.3716  1.2038  1.0667
40898SOL    HW228015   5.098   6.140   2.187 -1.5064  0.3527 -0.3058
40899SOL     OW28016   1.369   5.891  11.031 -0.0150 -0.2344  0.1612
40899SOL    HW128017   1.298   5.882  10.966 -2.0699  1.4851  2.0173
40899SOL    HW228018   1.373   5.985  11.048  5.5218  0.4273 -2.6520
40900SOL     OW28019  10.032   8.473   5.958  0.3028 -0.5347 -0.1829
40900SOL    HW128020  10.113   8.523   5.962  0.2044 -0.4325  0.9464
40900SOL    HW228021  10.059   8.387   5.926  0.5608  0.0265 -1.5692
40901SOL     OW28022   9.398   2.739   8.628 -0.0527  0.4063 -0.2567
40901SOL    HW128023   9.405   2.763   8.720  1.2072  0.0240 -0.2345
40901SOL    HW228024   9.427   2.648   8.625 -0.9541  0.1233 -0.9091
40902SOL     OW28025  10.702   5.032   3.039 -0.5894 -0.0200 -0.1955
40902SOL    HW128026  10.776   4.975   3.059 -0.3515 -0.1372 -1.3067
40902SOL    HW228027  10.741   5.111   3.002 -1.0033 -0.1796 -1.0222
40903SOL     OW28028   4.984   8.274   6.042  0.0382 -0.1606  0.9349
40903SOL    HW128029   4.923   8.318   6.101 -0.9033 -0.0833 -0.0630
40903SOL    HW228030   4.945   8.187   6.029 -0.1669  0.0781 -0.1388
40904SOL     OW28031   8.651   0.522   5.690 -0.0524 -0.1684 -0.2607
40904SOL    HW128032   8.602   0.492   5.613 -0.3146 -1.7022  0.4624
40904SOL    HW228033   8.607   0.479   5.763  1.5172 -0.4425  0.5399
40905SOL     OW28034   0.302  10.562   8.228 -0.2120  0.1644  0.5440
40905SOL    HW128035   0.371  10.497   8.215 -0.4814  0.1145 -0.8322
40905SOL    HW228036   0.279  10.590   8.139 -1.1812  1.0032  1.0402
40906SOL     OW28037   9.203  11.305   6.355  0.2172  0.5103  0.3898
40906SOL    HW128038   9.138  11.258   6.302  0.3689 -0.4178  1.0067
40906SOL    HW228039   9.242  11.368   6.295 -0.2102  0.0571 -0.3819
40907SOL     OW28040   0.324   4.410   2.886  0.1398  0.2928  0.6695
40907SOL    HW128041   0.271   4.429   2.809  0.1065 -1.2280  0.2782
40907SOL    HW228042   0.261   4.389   2.955  0.1757 -0.8335  0.3908
40908SOL     OW28043   1.327   3.606   8.360  0.2289 -0.5005  0.8029
40908SOL    HW128044   1.415   3.638   8.380 -0.0206  0.4188  0.4812
40908SOL    HW228045   1.330   3.585   8.266  0.3597 -1.3624  0.9864
40909SOL     OW28046   2.605  11.151  11.820  0.1480 -0.0411  0.2194
40909SOL    HW128047   2.596  11.177  11.729 -0.1295  1.3888  0.6207
40909SOL    HW228048   2.526  11.101  11.839 -0.2131  0.4053 -0.0913
40910SOL     OW28049   9.629   8.542   0.138 -0.2544  0.0110 -0.1335
40910SOL    HW128050   9.651   8.514   0.050  0.4630  2.1987 -0.6978
40910SOL    HW228051   9.585   8.626   0.127 -3.2260 -1.1731  1.3952
40911SOL     OW28052   1.137   6.380   2.812  0.0871 -0.9482 -0.0369
40911SOL    HW128053   1.120   6.290   2.786  0.1922 -0.9196 -0.2055
40911SOL    HW228054   1.217   6.375   2.866  1.4485 -0.6791 -1.9265
40912SOL     OW28055   3.456   4.199   1.365 -0.3843  0.2237 -0.0321
40912SOL    HW128056   3.497   4.227   1.447 -0.1573  2.0014 -0.7055
40912SOL    HW228057   3.366   4.232   1.371 -0.0971  1.2065 -0.8723
40913SOL     OW28058   7.315   2.891   7.701 -0.3510  0.1385 -0.0109
40913SOL    HW128059   7.405   2.896   7.734 -0.8157 -0.5434  1.4425
40913SOL    HW228060   7.323   2.846   7.617  0.5641 -0.8896  0.6017
40914SOL     OW28061  10.671  10.609   5.210 -0.0613 -0.4348 -0.3002
40914SOL    HW128062  10.603  10.551   5.175  0.3405 -1.5983  0.7564
40914SOL    HW228063  10.662  10.601   5.305  0.0283  1.2506 -0.1244
40915SOL     OW28064   3.442   1.498   7.182 -0.1696  0.7682 -0.2514
40915SOL    HW128065   3.496   1.554   7.125 -0.7569  2.6561  0.9345
40915SOL    HW228066   3.415   1.557   7.253 -1.2056 -0.9569  0.8358
40916SOL     OW28067   6.532   4.963   8.396 -0.3536  0.1196 -0.1051
40916SOL    HW128068   6.480   4.887   8.370 -1.6430  1.1662 -0.6810
40916SOL    HW228069   6.500   4.985   8.483  1.2485 -1.0172  0.8245
40917SOL     OW28070   8.278   9.787  10.689  0.8357  0.0339 -0.1701
40917SOL    HW128071   8.334   9.812  10.615  0.8884  0.8209  0.1230
40917SOL    HW228072   8.333   9.729  10.742  0.4069 -1.5022 -1.3335
40918SOL     OW28073   4.376   9.641   1.600  0.7711  0.4339 -0.3275
40918SOL    HW128074   4.286   9.628   1.571  0.0967  0.8725  1.4111
40918SOL    HW228075   4.404   9.556   1.633  0.7539  0.4490 -0.2734
40919SOL     OW28076   8.346   0.079   9.548  0.2544  0.1114  0.0095
40919SOL    HW128077   8.399   0.019   9.601  2.7665  1.7834 -0.4230
40919SOL    HW228078   8.324   0.028   9.469 -1.0646 -1.4406  1.2966
40920SOL     OW28079   9.092   2.312   8.320  0.5253 -0.3526  0.0171
40920SOL    HW128080   9.021   2.302   8.257  0.5913  0.0644 -0.1265
40920SOL    HW228081   9.081   2.238   8.381 -0.4449  0.0901  0.4005
40921SOL     OW28082   8.141   3.505   1.067 -0.1538 -0.2142  0.5750
40921SOL    HW128083   8.098   3.584   1.033 -0.8824 -0.1126  1.6823
40921SOL    HW228084   8.132   3.442   0.995 -1.4470  0.0668  0.4502
40922SOL     OW28085   2.919   7.478   5.327 -0.1839  0.2511 -0.0237
40922SOL    HW128086   2.963   7.563   5.326  1.1585 -0.3026  2.9396
40922SOL    HW228087   2.827   7.498   5.310  0.0970  2.3022  0.5992
40923SOL     OW28088   0.242   2.761   2.518 -0.5312  0.0123  0.9029
40923SOL    HW128089   0.239   2.668   2.494 -1.7960  0.4749 -0.9752
40923SOL    HW228090   0.208   2.764   2.608 -0.8628 -1.2971  0.8417
40924SOL     OW28091   6.284   6.751  11.039  0.3569 -0.3451 -0.1267
40924SOL    HW128092   6.372   6.789  11.038 -0.3163  1.3070 -0.0247
40924SOL    HW228093   6.271   6.722  11.129  0.4310  0.3482  0.1146
40925SOL     OW28094   3.377  10.830   2.880 -0.1301  0.1958 -0.1006
40925SOL    HW128095   3.360  10.903   2.820  0.0997 -0.0049 -0.4137
40925SOL    HW228096   3.458  10.854   2.925  0.4666 -0.2856 -0.8808
40926SOL     OW28097   7.715   4.394   3.903  0.5735  0.2849 -0.3437
40926SOL    HW128098   7.791   4.444   3.932 -0.1335  1.2453 -0.1032
40926SOL    HW228099   7.722   4.311   3.950  1.4204  0.3949 -0.2566
40927SOL     OW28100  10.706   6.031   4.051 -0.8977  0.0664  0.4615
40927SOL    HW128101  10.616   5.999   4.046 -1.3382  1.2330  0.5519
40927SOL    HW228102  10.734   6.038   3.959 -1.1251  0.2870  0.4065
40928SOL     OW28103  11.456   6.608   4.087 -0.5000 -0.5909  0.3445
40928SOL    HW128104  11.495   6.695   4.098  0.3601 -1.0950  1.5215
40928SOL    HW228105  11.385   6.622   4.025 -0.5277  0.9938  0.6751
40929SOL     OW28106   8.441   6.446   8.329  0.0041 -0.1561  0.1586
40929SOL    HW128107   8.363   6.482   8.287 -1.1606  0.2905  2.5463
40929SOL    HW228108   8.477   6.518   8.380 -0.7441 -1.5114  2.7859
40930SOL     OW28109   3.293   4.615   5.814  0.1639  0.5383 -0.0766
40930SOL    HW128110   3.356   4.567   5.760  0.3196  0.0936  0.4802
40930SOL    HW228111   3.282   4.699   5.770  0.3176  0.2045 -0.7709
40931SOL     OW28112   2.157   7.783   0.530  0.5360  0.3205  0.0620
40931SOL    HW128113   2.210   7.727   0.474 -0.2742 -0.7760  0.3501
40931SOL    HW228114   2.083   7.809   0.476  1.5927  2.3301 -0.5290
40932SOL     OW28115  10.390   7.959   8.319 -0.3077 -0.1879 -0.0726
40932SOL    HW128116  10.412   7.875   8.358 -0.7993 -0.1266  0.3499
40932SOL    HW228117  10.332   7.938   8.246  1.5671 -0.3988 -1.5794
40933SOL     OW28118   1.333   1.685   8.180  0.4126 -0.3285  0.0605
40933SOL    HW128119   1.272   1.628   8.132  0.1593  0.8643 -1.0757
40933SOL    HW228120   1.323   1.658   8.272 -1.5577 -0.4194 -0.1294
40934SOL     OW28121   3.383   3.377   5.891  0.2996 -0.0555  0.0072
40934SOL    HW128122   3.426   3.331   5.819 -1.8854  0.5920 -1.8254
40934SOL    HW228123   3.346   3.308   5.946  1.6833 -0.5479  0.3629
40935SOL     OW28124   9.661   7.065   2.603 -0.0290 -0.1296 -0.4254
40935SOL    HW128125   9.664   7.013   2.683  1.4703  0.6288  0.0423
40935SOL    HW228126   9.587   7.124   2.615  0.0495 -0.1732  0.3060
40936SOL     OW28127  11.639   0.699  11.298 -0.3104  0.3726  0.2441
40936SOL    HW128128  11.570   0.661  11.245 -0.4202  1.1307 -0.1704
40936SOL    HW228129  11.689   0.754  11.237  0.0216  0.6463  0.7539
40937SOL     OW28130   1.502   8.729   9.681 -0.1188  0.5419 -0.0532
40937SOL    HW128131   1.417   8.748   9.720  0.6985 -0.0567  2.1699
40937SOL    HW228132   1.501   8.634   9.667 -0.0951  0.6410 -0.7341
40938SOL     OW28133   4.515   0.618   5.164  0.3101  0.0273 -0.1593
40938SOL    HW128134   4.552   0.689   5.217  0.0014 -0.5332  0.8169
40938SOL    HW228135   4.517   0.542   5.221 -3.4175  0.1867  0.4264
40939SOL     OW28136  10.455   3.425   0.907  0.2084 -0.6548  0.8729
40939SOL    HW128137  10.502   3.375   0.841 -0.1469 -1.2182  1.0420
40939SOL    HW228138  10.398   3.484   0.856 -0.1357 -1.1524  0.6737
40940SOL     OW28139   1.908   4.174  11.648  0.1785 -0.5223  0.4749
40940SOL    HW128140   1.928   4.085  11.676  0.6997 -0.1372  1.3706
40940SOL    HW228141   1.957   4.186  11.567  1.0774 -0.6463  0.9937
40941SOL     OW28142   1.549   6.114  10.441  0.1934 -0.3077  0.5839
40941SOL    HW128143   1.507   6.060  10.508  0.6496 -0.8679  0.4267
40941SOL    HW228144   1.476   6.146  10.387 -0.1811  0.1714  1.3533
40942SOL     OW28145   4.883   2.180   9.382 -0.5572 -0.0530 -0.5562
40942SOL    HW128146   4.834   2.099   9.393 -1.6740  0.5637 -0.8676
40942SOL    HW228147   4.818   2.249   9.389  0.6181  0.9258  1.3827
40943SOL     OW28148   7.262   4.994  11.737  0.2211  0.1247 -0.5299
40943SOL    HW128149   7.290   5.043  11.814 -0.6813 -0.0153 -0.1014
40943SOL    HW228150   7.273   4.902  11.761 -1.9496  0.0141  0.2075
40944SOL     OW28151   3.674   8.936   2.029  0.0837 -0.5082  0.1310
40944SOL    HW128152   3.677   9.021   2.074  2.1201 -0.0400 -0.7728
40944SOL    HW228153   3.745   8.886   2.068  2.7252  0.3354 -3.1646
40945SOL     OW28154   6.453   8.283   6.283  0.4973 -0.1775  0.2790
40945SOL    HW128155   6.488   8.266   6.370 -1.8921 -0.8852  1.1618
40945SOL    HW228156   6.425   8.198   6.251 -1.6100  0.4892  0.2084
40946SOL     OW28157   8.738   7.674   6.162 -0.0720  0.1535  0.7193
40946SOL    HW128158   8.677   7.745   6.178  0.2347  0.4446  0.6228
40946SOL    HW228159   8.822   7.707   6.195 -0.2584 -0.8372  2.2990
40947SOL     OW28160   8.549   5.536   9.810  0.0515 -0.0869  0.5632
40947SOL    HW128161   8.456   5.528   9.790 -0.3641  1.2301  1.7636
40947SOL    HW228162   8.568   5.458   9.862 -0.0962 -0.9028 -0.5665
40948SOL     OW28163   3.008   0.162   9.145 -0.2456 -0.8143  0.3015
40948SOL    HW128164   3.008   0.232   9.210 -1.4700  0.9736 -1.4972
40948SOL    HW228165   2.929   0.111   9.165 -0.0572 -0.8959  0.8373
40949SOL     OW28166   4.041   5.607   7.079 -0.7454  0.4411  0.6523
40949SOL    HW128167   4.075   5.520   7.059  0.5472  0.9981  0.2846
40949SOL    HW228168   3.960   5.591   7.126  0.0164 -0.9883  1.5620
40950SOL     OW28169   0.004   2.267   6.688 -0.0749 -0.0290  0.4924
40950SOL    HW128170   0.039   2.180   6.707  2.0534  0.4578 -0.8122
40950SOL    HW228171   0.011   2.314   6.771 -0.2775 -0.7790  0.9498
40951SOL     OW28172   3.798   8.598   6.087 -0.7769  0.2366 -0.5652
40951SOL    HW128173   3.862   8.634   6.148 -0.1363  0.6110 -1.4333
40951SOL    HW228174   3.779   8.510   6.120  1.4487 -0.5337 -1.1706
40952SOL     OW28175   7.867   8.431   3.746  0.1926  0.1232 -0.2263
40952SOL    HW128176   7.836   8.353   3.698 -1.5064  0.7781 -0.2763
40952SOL    HW228177   7.798   8.448   3.810  1.0347  1.0009  0.4717
40953SOL     OW28178   0.322   8.074  11.637  0.6313 -0.0618  0.3670
40953SOL    HW128179   0.353   8.163  11.621 -0.7097  0.3297 -0.2230
40953SOL    HW228180   0.317   8.067  11.733 -0.2085  0.8683  0.4108
40954SOL     OW28181   2.107   2.822   2.686 -0.9048  0.2073 -0.3275
40954SOL    HW128182   2.156   2.822   2.604 -1.3953 -2.8536 -0.7464
40954SOL    HW228183   2.175   2.820   2.754 -0.3576 -1.9412 -0.8476
40955SOL     OW28184   5.103   3.004   6.981 -0.1044 -0.0710 -0.4651
40955SOL    HW128185   5.083   3.090   6.944 -2.4048 -0.9943 -1.5288
40955SOL    HW228186   5.130   2.951   6.905 -0.8582 -0.8839 -0.1806
40956SOL     OW28187   7.949   0.372   3.643  0.1845 -0.3504 -0.1262
40956SOL    HW128188   7.878   0.421   3.601  0.0400 -0.9811 -0.6348
40956SOL    HW228189   7.904   0.312   3.703  0.1925 -1.5092 -1.2324
40957SOL     OW28190   2.316   5.384  11.377 -0.4257  0.4814  0.6644
40957SOL    HW128191   2.293   5.336  11.457 -0.7526 -1.1861 -0.3850
40957SOL    HW228192   2.258   5.460  11.378 -0.5350  0.4062  1.9348
40958SOL     OW28193   2.103   5.822   1.767 -0.2799 -0.0611  0.2606
40958SOL    HW128194   2.047   5.819   1.845  0.4267 -0.2114  0.7721
40958SOL    HW228195   2.132   5.913   1.762 -0.5419  0.0106  0.0100
40959SOL     OW28196   0.478   2.543   4.877 -0.1407  0.4100  0.1006
40959SOL    HW128197   0.499   2.611   4.814 -1.4338  1.0320  0.3011
40959SOL    HW228198   0.506   2.462   4.836  2.5017  1.1119  0.3300
40960SOL     OW28199   7.198   8.080  10.969 -0.4487 -0.6695  0.2441
40960SOL    HW128200   7.249   8.014  10.921 -1.4283 -2.1184  1.1005
40960SOL    HW228201   7.248   8.094  11.050 -1.1815 -1.8481  0.9366
40961SOL     OW28202   1.349   9.825   0.474 -0.2374 -0.1341 -0.2131
40961SOL    HW128203   1.434   9.783   0.490  0.2583  0.5002 -1.0570
40961SOL    HW228204   1.297   9.758   0.430  0.3634 -0.0467 -1.0780
40962SOL     OW28205   9.998   8.482   8.824 -0.0422 -0.0498 -0.1153
40962SOL    HW128206   9.962   8.567   8.798  0.4806 -0.6194 -3.0027
40962SOL    HW228207   9.928   8.440   8.874 -1.3258  1.0286 -0.9389
40963SOL     OW28208   5.940   1.035  10.932 -0.3807 -0.0850  0.3372
40963SOL    HW128209   5.971   0.983  10.858 -1.6763  0.0007 -0.2818
40963SOL    HW228210   5.929   1.123  10.897 -0.0950  0.1729  0.8806
40964SOL     OW28211   1.951   0.484   0.226 -0.2847 -0.1276  0.0826
40964SOL    HW128212   1.859   0.510   0.222 -0.6806 -0.9799  2.1934
40964SOL    HW228213   1.957   0.411   0.164 -0.7170  0.6810 -0.9535
40965SOL     OW28214  11.575   7.630   7.486  0.0499  0.5391  0.3518
40965SOL    HW128215  11.612   7.709   7.524  1.2193 -0.9964  2.6718
40965SOL    HW228216  11.488   7.623   7.526 -0.2623  0.8931 -0.2514
40966SOL     OW28217   6.808   5.446   0.356 -0.6222 -0.2652  0.2141
40966SOL    HW128218   6.830   5.400   0.437 -0.9276  0.5299  0.7621
40966SOL    HW228219   6.741   5.508   0.381 -0.5494  0.1631 -0.6073
40967SOL     OW28220   8.710   7.816  10.620  0.1422  0.0689 -0.3518
40967SOL    HW128221   8.669   7.856  10.697 -0.2881  1.3938 -1.2317
40967SOL    HW228222   8.791   7.778  10.653  0.2794  1.1753  0.6564
40968SOL     OW28223   0.025   1.894   7.532  0.2924 -0.5590  0.6004
40968SOL    HW128224   0.003   1.987   7.533 -1.8782 -0.9893  2.6265
40968SOL    HW228225   0.030   1.871   7.439 -0.7991  1.2220  0.0584
40969SOL     OW28226   4.298  11.291  10.879  0.3863 -0.1656 -0.4686
40969SOL    HW128227   4.354  11.368  10.889 -0.4354  0.3678  0.1118
40969SOL    HW228228   4.354  11.217  10.902  2.0174 -0.0689 -3.5421
40970SOL     OW28229  11.523   8.602   9.931 -0.2489  0.0781 -0.2150
40970SOL    HW128230  11.446   8.650   9.961 -0.5329 -0.1565 -0.5580
40970SOL    HW228231  11.513   8.597   9.836  0.1223 -0.0694 -0.2490
40971SOL     OW28232   3.483   2.789   6.590  0.5005 -0.1882  0.3661
40971SOL    HW128233   3.456   2.732   6.517 -0.5544  2.0161 -1.0673
40971SOL    HW228234   3.405   2.840   6.611  1.2031  0.2140  2.1359
40972SOL     OW28235   2.685   4.975   3.668 -0.0741  0.4435  0.0514
40972SOL    HW128236   2.775   5.003   3.682  0.0849  1.9804 -2.9771
40972SOL    HW228237   2.633   5.053   3.689 -0.6102 -0.1209  0.8389
40973SOL     OW28238   4.800   8.414   1.747 -0.4101  0.6239  0.0050
40973SOL    HW128239   4.724   8.464   1.716 -2.5177 -1.0666  2.0105
40973SOL    HW228240   4.801   8.428   1.842  2.2612  1.0908 -0.0130
40974SOL     OW28241   5.138   9.208  11.271  0.0670 -0.1927 -0.4137
40974SOL    HW128242   5.233   9.212  11.282  0.0941  0.4840 -0.8329
40974SOL    HW228243   5.118   9.114  11.268  0.9121 -0.3605 -1.9321
40975SOL     OW28244   8.166   7.966   4.599  0.2141 -0.0291  0.0056
40975SOL    HW128245   8.135   7.982   4.510 -1.4528 -1.9119  0.1787
40975SOL    HW228246   8.244   7.912   4.588 -0.0659 -0.3672 -0.3149
40976SOL     OW28247   3.539   4.215   9.754 -0.5237  0.5704  0.0834
40976SOL    HW128248   3.631   4.195   9.736 -0.0490  2.5868  0.0002
40976SOL    HW228249   3.515   4.276   9.685 -1.1407  2.0460  1.5379
40977SOL     OW28250   5.174   2.052   4.950  0.2623  0.2080  0.0057
40977SOL    HW128251   5.239   1.994   4.990  0.1713  0.6973  0.8741
40977SOL    HW228252   5.225   2.126   4.917  0.1191  0.7533  0.9850
40978SOL     OW28253  11.544   1.139   6.956  0.4618  0.4193  0.3277
40978SOL    HW128254  11.564   1.055   6.914  0.5858  0.5747  0.0680
40978SOL    HW228255  11.472   1.175   6.904 -0.3567 -0.0322  1.1206
40979SOL     OW28256   8.037   8.317   5.684 -0.1759  0.0273  0.1824
40979SOL    HW128257   7.997   8.230   5.681  0.4943 -0.2689 -1.6160
40979SOL    HW228258   7.984   8.365   5.747 -2.4996 -0.7844 -1.0041
40980SOL     OW28259   9.572   9.679   3.951 -0.3334 -0.1841  0.5646
40980SOL    HW128260   9.618   9.700   3.870  0.4913 -0.3156  0.9975
40980SOL    HW228261   9.508   9.750   3.961 -2.1075 -1.3904 -1.4280
40981SOL     OW28262   2.623   3.575   1.471  0.6642 -0.0629  0.9010
40981SOL    HW128263   2.542   3.616   1.443  1.3951  0.4784 -0.4964
40981SOL    HW228264   2.595   3.498   1.521 -0.7046 -0.3678 -0.2729
40982SOL     OW28265   1.203   4.116   2.360  0.3308 -0.1030 -0.2626
40982SOL    HW128266   1.278   4.153   2.407 -0.3608  2.5324 -1.0488
40982SOL    HW228267   1.215   4.145   2.269 -2.4360  1.9493 -0.1155
40983SOL     OW28268   3.510   8.048   8.536 -0.3872 -0.2929 -0.2840
40983SOL    HW128269   3.422   8.017   8.519 -0.8394  0.3184  0.8634
40983SOL    HW228270   3.537   8.004   8.616 -0.8287  1.7249  1.0598
40984SOL     OW28271   0.615   5.126   9.359  0.2362 -0.0463  0.8261
40984SOL    HW128272   0.703   5.138   9.324  0.2789  0.3278  1.0645
40984SOL    HW228273   0.561   5.189   9.310  0.3129  0.5452  1.5006
40985SOL     OW28274   3.943   2.283  10.524  0.6013  0.5308 -0.0837
40985SOL    HW128275   4.012   2.260  10.586  0.1773 -1.3116 -0.2336
40985SOL    HW228276   3.977   2.256  10.439  0.1802  0.7183 -0.3145
40986SOL     OW28277   4.358   6.782   3.215 -0.3003  0.0387  0.6165
40986SOL    HW128278   4.433   6.731   3.184 -0.5262  0.2113 -0.2308
40986SOL    HW228279   4.358   6.861   3.162  1.1076  1.8396  3.1068
40987SOL     OW28280   4.396   8.147  10.023  0.0409 -0.1490  0.6016
40987SOL    HW128281   4.452   8.086  10.071  0.1775 -1.0600 -0.6551
40987SOL    HW228282   4.307   8.115  10.038  0.1854 -1.5239 -1.1082
40988SOL     OW28283   2.663   8.552   3.305 -0.1359  0.1438 -0.3177
40988SOL    HW128284   2.687   8.635   3.265 -1.5100  0.4533 -0.5501
40988SOL    HW228285   2.659   8.570   3.399 -2.1903  0.8369 -0.5033
40989SOL     OW28286   7.219  10.604   0.482  0.2435 -0.1045  0.1922
40989SOL    HW128287   7.161  10.538   0.444 -1.0837  0.5870  0.9227
40989SOL    HW228288   7.162  10.680   0.495  1.1443  0.3650  1.5869
40990SOL     OW28289   5.398   6.715   5.809  0.6521  0.1219 -0.3928
40990SOL    HW128290   5.453   6.790   5.832 -1.1190  1.2083  0.5402
40990SOL    HW228291   5.311   6.752   5.798 -0.3486 -1.8516  0.4128
40991SOL     OW28292  10.334   0.996   3.184 -0.3686  0.4402 -0.1857
40991SOL    HW128293  10.424   0.998   3.218 -0.9908  2.9856  1.5917
40991SOL    HW228294  10.341   0.946   3.103  2.6948  0.7358 -0.2404
40992SOL     OW28295   1.673   8.006   5.467  0.4737 -0.1652 -0.1634
40992SOL    HW128296   1.596   8.047   5.427  1.3862 -0.3665 -2.2387
40992SOL    HW228297   1.645   7.986   5.556 -2.1514 -0.9170 -1.0521
40993SOL     OW28298   7.959   0.904   5.392 -0.3635 -0.1685  0.1872
40993SOL    HW128299   7.980   0.826   5.443 -2.0985 -0.9126 -0.1675
40993SOL    HW228300   8.036   0.918   5.336  1.7606  0.8851  3.1185
40994SOL     OW28301   2.569   2.067   5.807 -0.7211 -0.0147  0.6035
40994SOL    HW128302   2.485   2.097   5.843 -1.7250 -0.4498 -1.2378
40994SOL    HW228303   2.589   2.129   5.737 -1.0854 -1.5739 -0.9656
40995SOL     OW28304   6.103   2.176   1.981 -0.2764  0.6126 -0.0250
40995SOL    HW128305   6.115   2.103   2.042 -0.6651  1.7576  1.4790
40995SOL    HW228306   6.017   2.160   1.941  0.6032 -0.9256 -1.4454
40996SOL     OW28307   6.833  10.643   9.301  0.4293 -0.0050  0.4724
40996SOL    HW128308   6.881  10.561   9.300  0.2700 -0.1010 -0.2313
40996SOL    HW228309   6.741  10.617   9.309  0.1858 -0.0418 -1.6570
40997SOL     OW28310   4.010   3.553   5.927  0.1812  0.5533  0.7888
40997SOL    HW128311   4.102   3.528   5.923  0.1863  0.6633 -1.5890
40997SOL    HW228312   3.971   3.495   5.992  1.3622 -1.5620 -0.3057
40998SOL     OW28313   7.314   2.373   4.802  0.4419 -0.1975  0.5625
40998SOL    HW128314   7.402   2.411   4.800  0.0356  0.7756  0.6859
40998SOL    HW228315   7.321   2.300   4.865  1.0792  0.0733  0.8192
40999SOL     OW28316   3.458   1.727   1.791  0.8663 -0.4826  0.1143
40999SOL    HW128317   3.472   1.683   1.876  2.3631 -0.1620  0.0517
40999SOL    HW228318   3.499   1.669   1.727  3.2753  1.1400  0.0749
41000SOL     OW28319   1.754   5.349   7.606 -0.4920 -0.1085  0.6964
41000SOL    HW128320   1.671   5.311   7.575 -0.3986 -1.5726  2.1047
41000SOL    HW228321   1.728   5.421   7.663 -0.7283  0.7259 -0.4427
41001SOL     OW28322  10.180   9.842   2.980  0.7462 -0.5992 -1.1909
41001SOL    HW128323  10.096   9.858   2.936  0.0875 -0.6980 -0.0387
41001SOL    HW228324  10.156   9.830   3.072  1.7651 -3.0040 -1.1603
41002SOL     OW28325   3.147  10.963   5.561 -0.2291 -0.3971 -0.0605
41002SOL    HW128326   3.073  10.950   5.620  0.3881 -0.0844  0.7967
41002SOL    HW228327   3.225  10.947   5.615  0.3732  0.5317 -0.6171
41003SOL     OW28328   0.830   8.530   4.429  0.4911 -0.5527 -0.1960
41003SOL    HW128329   0.740   8.547   4.404  0.5613  1.9825  0.8972
41003SOL    HW228330   0.833   8.553   4.522  2.0362 -1.6113  0.0526
41004SOL     OW28331   0.715  10.757   1.255  0.2362 -0.1847  0.2551
41004SOL    HW128332   0.689  10.798   1.173 -1.6091 -0.6586  0.5521
41004SOL    HW228333   0.639  10.766   1.312  1.1267 -0.7212  1.5856
41005SOL     OW28334   6.495   6.257   6.142  0.0906 -0.2472  0.5316
41005SOL    HW128335   6.469   6.321   6.076 -1.3833 -0.8003  0.5371
41005SOL    HW228336   6.582   6.286   6.170 -0.2196  1.3125  0.0048
41006SOL     OW28337   2.484   9.347   8.607  0.2356  0.3758 -0.0182
41006SOL    HW128338   2.393   9.339   8.635  0.6436  0.7494  1.4933
41006SOL    HW228339   2.508   9.437   8.628  0.8239  0.4239 -0.8521
41007SOL     OW28340   3.872   7.795   5.815 -0.7226 -0.3824  0.3035
41007SOL    HW128341   3.784   7.761   5.800 -0.3802 -1.7884  1.2851
41007SOL    HW228342   3.917   7.725   5.861  0.7197  0.5752  0.4112
41008SOL     OW28343   2.985  10.742  10.999 -0.1368 -0.4758  0.0164
41008SOL    HW128344   2.891  10.744  11.016  0.0149 -0.5830  0.9280
41008SOL    HW228345   3.008  10.834  10.982 -1.0236 -0.8241 -4.0950
41009SOL     OW28346  10.703   3.120   5.384  0.7904 -0.0243 -0.0851
41009SOL    HW128347  10.614   3.144   5.359  0.8125  0.3777  0.2161
41009SOL    HW228348  10.696   3.027   5.406  0.5889 -0.1623 -0.7088
41010SOL     OW28349   3.291   0.130   8.142  0.5896 -0.2812  0.1965
41010SOL    HW128350   3.275   0.214   8.186 -1.4660 -1.2229  1.4118
41010SOL    HW228351   3.353   0.085   8.199  1.4356  0.2489 -0.2825
41011SOL     OW28352   6.197  10.770   7.517 -0.8127 -0.3693 -0.3236
41011SOL    HW128353   6.221  10.677   7.511 -1.2873 -0.6760  1.5954
41011SOL    HW228354   6.209  10.804   7.429  1.0087 -1.8597 -0.7291
41012SOL     OW28355   8.754   2.840   0.620 -0.3671  0.1274 -0.6868
41012SOL    HW128356   8.789   2.756   0.589  1.1325  0.4657 -0.0112
41012SOL    HW228357   8.759   2.834   0.715 -2.0087  0.2939 -0.5663
41013SOL     OW28358   3.889   8.643   7.643  0.6632  0.2178  0.2848
41013SOL    HW128359   3.863   8.735   7.643  0.3427  0.1332  0.8332
41013SOL    HW228360   3.819   8.598   7.596 -0.2771 -0.0239  1.8476
41014SOL     OW28361   7.409   9.250   1.550  0.0002  0.7554 -0.1787
41014SOL    HW128362   7.405   9.208   1.636 -2.0876 -0.2204 -0.6649
41014SOL    HW228363   7.501   9.246   1.525  0.2144 -1.8116  0.6856
41015SOL     OW28364   5.395   5.576  11.599  0.0174 -0.0384 -0.1962
41015SOL    HW128365   5.371   5.557  11.508 -1.3561  0.5695  0.0155
41015SOL    HW228366   5.457   5.649  11.592  0.2541 -0.2774 -0.6610
41016SOL     OW28367   5.401   8.240   0.729  0.0046 -0.4067 -0.4939
41016SOL    HW128368   5.462   8.204   0.794 -2.1037  0.2041  1.9889
41016SOL    HW228369   5.394   8.333   0.751 -0.3566 -0.0466 -2.0005
41017SOL     OW28370   5.819  10.747  10.165  0.0066 -0.1387 -0.1096
41017SOL    HW128371   5.851  10.662  10.192  0.1766 -0.4656 -1.2691
41017SOL    HW228372   5.778  10.731  10.080 -0.5226  0.8203 -0.0529
41018SOL     OW28373   9.074   6.232   3.939  0.4533 -0.2161 -0.4698
41018SOL    HW128374   9.146   6.295   3.946  1.0768 -0.8565 -1.0010
41018SOL    HW228375   9.117   6.147   3.928 -0.3851 -0.5645 -1.1782
41019SOL     OW28376   6.812   9.481   7.380  0.7040 -0.1924 -0.1759
41019SOL    HW128377   6.819   9.417   7.452 -0.3164 -1.0001 -0.7745
41019SOL    HW228378   6.887   9.539   7.393  1.1624 -0.9854  0.9026
41020SOL     OW28379   1.244  10.226   1.222  0.0685 -0.9353  0.5743
41020SOL    HW128380   1.192  10.298   1.258  1.4281 -0.7135  2.1801
41020SOL    HW228381   1.184  10.182   1.161 -1.0110  1.1154  0.0530
41021SOL     OW28382   9.607   2.624   2.353  0.3685  0.0175  0.0892
41021SOL    HW128383   9.674   2.601   2.288 -1.1613 -0.8951 -1.2418
41021SOL    HW228384   9.656   2.637   2.434  2.2057 -0.1295 -0.9319
41022SOL     OW28385   2.065   4.328   7.270  0.3988  0.4472  0.1350
41022SOL    HW128386   1.974   4.344   7.244  0.3187 -0.7072 -0.3401
41022SOL    HW228387   2.059   4.294   7.359  0.2764 -0.5658 -0.2478
41023SOL     OW28388   6.021   1.509   6.468 -0.6535 -0.2841  0.2626
41023SOL    HW128389   5.995   1.417   6.458  0.0026 -0.5087  0.5736
41023SOL    HW228390   6.062   1.531   6.384  0.4217 -0.6893  0.6775
41024SOL     OW28391   4.177  10.286  10.075  0.3525  0.1605  0.1945
41024SOL    HW128392   4.121  10.362  10.057 -0.0731  0.4533  2.4603
41024SOL    HW228393   4.148  10.255  10.161  1.4927 -1.7120 -0.0386
41025SOL     OW28394   6.371   1.740   8.250  0.0734 -0.2483 -0.2377
41025SOL    HW128395   6.436   1.691   8.301 -1.0929 -0.6794  0.8740
41025SOL    HW228396   6.380   1.705   8.161 -0.0092 -1.7763  0.3206
41026SOL     OW28397   3.389   4.176   6.414  0.2368  0.4485 -0.0694
41026SOL    HW128398   3.320   4.157   6.350  0.5996  1.2327 -0.7211
41026SOL    HW228399   3.406   4.093   6.457  0.1688 -0.1712 -1.1850
41027SOL     OW28400   9.984   7.899   3.274  0.1115  0.6754 -0.0678
41027SOL    HW128401   9.990   7.857   3.360 -0.3878 -2.0174 -1.2301
41027SOL    HW228402  10.075   7.917   3.249  0.3040  0.7872  0.6987
41028SOL     OW28403   0.979   3.515   6.370  0.2773 -0.3610 -0.2393
41028SOL    HW128404   0.925   3.495   6.447  1.2043  0.4772  0.6560
41028SOL    HW228405   1.064   3.475   6.390  0.7325  0.4605 -0.5024
41029SOL     OW28406   3.934   4.622   8.984 -0.5503  0.3047  0.0159
41029SOL    HW128407   3.886   4.664   9.054 -0.2739  0.9840 -0.1949
41029SOL    HW228408   4.010   4.582   9.027 -1.4674 -1.0889  0.4063
41030SOL     OW28409   2.075   9.984   8.208  0.7031 -0.2192  0.3442
41030SOL    HW128410   2.030  10.051   8.156  0.4358 -1.4325 -1.0587
41030SOL    HW228411   2.158   9.970   8.163  0.6652 -0.9803  0.4998
41031SOL     OW28412   9.506  10.027   5.778  0.2762  0.2113  0.5311
41031SOL    HW128413   9.587  10.075   5.796  1.1906 -1.0566 -0.1220
41031SOL    HW228414   9.475  10.062   5.694  0.1210  0.6976  0.7828
41032SOL     OW28415   7.011   8.228   9.408  0.0273 -0.3287 -0.2393
41032SOL    HW128416   7.079   8.192   9.352  1.2870 -1.2307  1.7545
41032SOL    HW228417   7.051   8.233   9.495 -1.6292  1.5722  0.5068
41033SOL     OW28418   5.337   1.956   9.524  0.3141  0.4855 -0.4721
41033SOL    HW128419   5.312   1.978   9.614  2.0939  1.2124 -0.1248
41033SOL    HW228420   5.257   1.972   9.473 -0.9753 -0.6744  1.0436
41034SOL     OW28421   7.796   2.203   5.602  0.3652  0.0527  0.0928
41034SOL    HW128422   7.724   2.213   5.539  2.8611  2.1955 -2.7029
41034SOL    HW228423   7.846   2.129   5.569  1.2180  0.6495  0.0175
41035SOL     OW28424   7.403   2.825   4.609 -0.6360  0.0665  0.1485
41035SOL    HW128425   7.393   2.888   4.680 -1.4317 -1.1053  1.1159
41035SOL    HW228426   7.444   2.749   4.650  0.6518  0.0686 -1.0789
41036SOL     OW28427   5.966   7.674   4.667 -0.2254  0.6923  0.1087
41036SOL    HW128428   5.914   7.638   4.739  0.4790  0.7706  0.6768
41036SOL    HW228429   5.947   7.618   4.592  2.0446 -1.9912  1.3242
41037SOL     OW28430   5.660   2.084   5.982  0.3036 -0.7327  0.2942
41037SOL    HW128431   5.711   2.051   5.908 -2.6170 -1.9541 -1.3622
41037SOL    HW228432   5.678   2.023   6.053  0.0595 -2.0384 -0.7226
41038SOL     OW28433   2.308  11.141   7.530 -0.3324 -0.1104  0.2410
41038SOL    HW128434   2.389  11.091   7.537 -0.7308 -0.7476  0.3522
41038SOL    HW228435   2.336  11.229   7.503  0.2694 -0.7102 -1.1322
41039SOL     OW28436   4.166  10.850  10.387  0.0596  0.2456  0.2570
41039SOL    HW128437   4.130  10.905  10.457 -1.2278 -1.6393  1.1646
41039SOL    HW228438   4.236  10.903  10.349 -0.2002  1.9418  1.9686
41040SOL     OW28439   7.074   6.626   4.535 -0.1673 -0.6203 -0.4707
41040SOL    HW128440   7.107   6.598   4.620  0.5549 -0.4053 -0.6699
41040SOL    HW228441   7.056   6.719   4.545 -2.0427 -1.0032  0.0308
41041SOL     OW28442   0.544  11.398   6.181  0.3365 -0.4088  0.2508
41041SOL    HW128443   0.462  11.374   6.223  0.4870 -1.4484 -0.0187
41041SOL    HW228444   0.523  11.477   6.131 -0.1963  0.0036  1.1098
41042SOL     OW28445   0.086   4.896   0.361  0.8843 -0.0024 -0.1828
41042SOL    HW128446   0.030   4.937   0.295  2.1137 -0.0568 -1.2804
41042SOL    HW228447   0.101   4.808   0.328 -0.9021 -1.0855  1.6618
41043SOL     OW28448   0.337   9.981   0.088  0.3171 -0.5590  0.1025
41043SOL    HW128449   0.246   9.988   0.059 -0.3547 -2.2647  1.5901
41043SOL    HW228450   0.332   9.998   0.182  1.6862  0.1490  0.0595
41044SOL     OW28451   6.641   2.262   6.671  0.0977 -0.2842  0.5140
41044SOL    HW128452   6.596   2.178   6.658 -1.4724  0.7105 -0.9824
41044SOL    HW228453   6.733   2.239   6.681 -0.2877 -2.1772  0.1449
41045SOL     OW28454   4.086   8.130   4.620 -0.0927  0.0199  0.4767
41045SOL    HW128455   4.078   8.159   4.529  0.1393  0.5095  0.6092
41045SOL    HW228456   4.055   8.039   4.619  1.1360 -0.4203 -0.3452
41046SOL     OW28457   8.223   3.651   3.490 -0.0968 -0.0071  1.3957
41046SOL    HW128458   8.176   3.596   3.554 -0.6781 -0.5642  0.5137
41046SOL    HW228459   8.280   3.590   3.443 -0.1172  0.2861  0.9835
41047SOL     OW28460   5.124   4.494   6.227 -0.4644 -0.3154  0.3927
41047SOL    HW128461   5.091   4.572   6.181 -0.4873  0.1442  1.1864
41047SOL    HW228462   5.174   4.528   6.301  2.5075 -0.9552 -1.1569
41048SOL     OW28463  10.890   6.154   6.354 -0.0660 -0.2209  0.0616
41048SOL    HW128464  10.931   6.068   6.351 -0.6731 -0.4986 -0.5193
41048SOL    HW228465  10.931   6.203   6.283  0.5403  0.0986  0.6210
41049SOL     OW28466   4.387   8.088   3.335  0.1563 -0.2604  0.2682
41049SOL    HW128467   4.415   8.126   3.252  1.5983  1.1016  1.3120
41049SOL    HW228468   4.355   8.162   3.386 -0.0909 -0.9601  1.1686
41050SOL     OW28469  10.043   4.735   8.679 -0.4619 -0.0272 -0.7791
41050SOL    HW128470  10.003   4.673   8.618  1.4117 -3.0007  0.7858
41050SOL    HW228471  10.014   4.707   8.765  1.2430  0.6429  0.0660
41051SOL     OW28472  10.343   6.392   7.427 -0.2568  0.4846  0.4931
41051SOL    HW128473  10.350   6.352   7.514  0.7564 -0.9541 -0.2139
41051SOL    HW228474  10.249   6.402   7.412 -0.8956 -4.6218 -0.5220
41052SOL     OW28475   5.335   4.351   0.330 -0.5070  0.1151 -0.9360
41052SOL    HW128476   5.309   4.421   0.271 -0.0930 -1.0617 -2.5645
41052SOL    HW228477   5.419   4.380   0.366 -0.6782  0.7560 -1.0497
41053SOL     OW28478   8.988   7.186   8.647  0.1032  0.3060 -0.3128
41053SOL    HW128479   8.984   7.272   8.689  0.4441  0.7891 -1.2416
41053SOL    HW228480   8.908   7.180   8.595  0.4322  0.3774 -0.8349
41054SOL     OW28481   5.574   5.547   0.655 -0.7001 -0.0686  0.6062
41054SOL    HW128482   5.596   5.456   0.634  0.0610  0.1503  0.4347
41054SOL    HW228483   5.577   5.550   0.751  1.8968  0.3804  0.5746
41055SOL     OW28484  11.385   1.536   5.790  0.0164 -0.5708  0.1715
41055SOL    HW128485  11.324   1.462   5.783 -1.9976  0.6871  2.6455
41055SOL    HW228486  11.463   1.500   5.832 -1.1418 -1.2507  1.8397
41056SOL     OW28487   3.402   7.805   1.057 -0.7469 -0.1145 -0.2943
41056SOL    HW128488   3.375   7.886   1.100 -0.7491  1.0177 -2.3580
41056SOL    HW228489   3.491   7.823   1.027 -0.7187 -0.9179 -0.7035
41057SOL     OW28490   6.543   8.803   5.296 -0.6866  0.1376  0.4744
41057SOL    HW128491   6.603   8.733   5.324  0.4419  0.5920 -0.6938
41057SOL    HW228492   6.466   8.757   5.263 -0.0834 -0.5718 -0.0037
41058SOL     OW28493   1.356   3.217   6.158 -0.4065  0.4244 -0.7890
41058SOL    HW128494   1.325   3.244   6.072 -0.1003 -2.1785 -1.8159
41058SOL    HW228495   1.318   3.130   6.171  0.0664  0.4824  1.4476
41059SOL     OW28496   1.312   9.668   8.797 -0.2652 -0.1093  0.0126
41059SOL    HW128497   1.404   9.646   8.787 -0.0594  0.1264  1.2386
41059SOL    HW228498   1.270   9.587   8.827 -0.1069  0.2607  1.2752
41060SOL     OW28499   9.618  11.803  11.494 -0.0503 -0.4118  0.6939
41060SOL    HW128500   9.669  11.723  11.507 -1.3750 -1.4082  0.0715
41060SOL    HW228501   9.682  11.868  11.467  0.8478 -1.7636 -0.6341
41061SOL     OW28502   0.537   4.456  10.898  0.1942 -0.4184 -0.1123
41061SOL    HW128503   0.561   4.532  10.951  0.7596 -1.6330  1.4896
41061SOL    HW228504   0.450   4.431  10.930  0.3434 -0.8814 -0.0469
41062SOL     OW28505   0.765   4.693   5.916 -0.1199  0.4867 -0.1349
41062SOL    HW128506   0.774   4.649   6.000  1.0598  1.0129  0.0323
41062SOL    HW228507   0.711   4.634   5.863 -0.4421 -0.0852  0.8112
41063SOL     OW28508   8.716   1.736   5.427 -0.2597  0.5690 -0.0889
41063SOL    HW128509   8.673   1.677   5.489  1.7274 -1.6070 -0.6373
41063SOL    HW228510   8.797   1.762   5.472  0.5599  0.0207 -1.2032
41064SOL     OW28511   9.488  11.614   2.850  0.5065  0.5277 -0.4140
41064SOL    HW128512   9.393  11.620   2.856  0.4402  0.2970 -1.1252
41064SOL    HW228513   9.509  11.645   2.762  0.9863 -0.4392 -0.6583
41065SOL     OW28514   7.238   3.411   7.705 -0.3930  0.3989  0.2566
41065SOL    HW128515   7.285   3.461   7.771 -0.4767  1.2863 -0.3390
41065SOL    HW228516   7.232   3.322   7.741  1.4220  0.3400  0.4875
41066SOL     OW28517  11.100   5.979  11.635 -0.1714 -0.3718 -0.2158
41066SOL    HW128518  11.016   6.023  11.622 -1.1803 -2.1284  0.0582
41066SOL    HW228519  11.139   5.976  11.547 -0.6755 -0.0989 -0.4514
41067SOL     OW28520  11.436   0.958   8.211  0.5315  0.2841  0.7097
41067SOL    HW128521  11.453   0.937   8.119  0.4081  0.3552  0.6705
41067SOL    HW228522  11.445   1.053   8.216 -0.2584  0.3742  0.6024
41068SOL     OW28523   6.992   4.885  11.670  0.4634 -0.0627  0.4176
41068SOL    HW128524   7.084   4.896  11.695  0.5560 -0.6681  0.3677
41068SOL    HW228525   6.942   4.908  11.748  0.7161 -1.1265  0.9117
41069SOL     OW28526   9.431  11.568   5.774 -0.5400 -0.6216 -0.5025
41069SOL    HW128527   9.389  11.581   5.859  0.6759  3.9813 -0.3138
41069SOL    HW228528   9.511  11.519   5.793 -0.1709  0.5406  1.1366
41070SOL     OW28529  10.848   8.285  11.377 -0.4962 -0.4206 -0.0429
41070SOL    HW128530  10.798   8.293  11.459 -1.0109 -1.5457 -0.2296
41070SOL    HW228531  10.922   8.345  11.389 -0.2194 -1.0050  1.5094
41071SOL     OW28532   6.041  10.775  10.711 -0.1212 -0.3661  0.1902
41071SOL    HW128533   6.002  10.766  10.798  1.6120  0.2215  1.0566
41071SOL    HW228534   6.125  10.730  10.716  0.7157  1.0027 -0.6953
41072SOL     OW28535   8.417   7.969   9.523  0.3720 -0.0923  0.7915
41072SOL    HW128536   8.398   7.927   9.607 -0.0052  0.5137  1.0190
41072SOL    HW228537   8.333   7.966   9.476  0.7096 -0.8880  0.2264
41073SOL     OW28538   2.882   6.508   6.100 -0.1373 -0.2599  0.1251
41073SOL    HW128539   2.924   6.422   6.102  1.3060  0.3886 -0.3446
41073SOL    HW228540   2.821   6.503   6.027  0.5218 -0.6481 -0.4164
41074SOL     OW28541   5.058   2.489   9.828 -0.0566 -0.1231 -0.4646
41074SOL    HW128542   5.040   2.488   9.734 -0.2547  0.9160 -0.4455
41074SOL    HW228543   5.130   2.427   9.839  1.3199  1.2109 -1.5753
41075SOL     OW28544   2.753   8.113   0.027  0.3658 -0.0621 -0.3946
41075SOL    HW128545   2.693   8.092  -0.045 -2.1799 -0.8218  1.7950
41075SOL    HW228546   2.697   8.153   0.094  2.0676 -1.7605  2.2013
41076SOL     OW28547   3.605   8.730   7.527  0.5342 -0.5129  0.2033
41076SOL    HW128548   3.540   8.775   7.473  0.4978 -0.2560  0.4593
41076SOL    HW228549   3.554   8.678   7.589  0.5767 -1.0334 -0.1959
41077SOL     OW28550   2.065   2.208   2.001 -0.1280  0.1333 -0.1023
41077SOL    HW128551   2.116   2.150   2.057  0.2467 -0.3460 -0.9153
41077SOL    HW228552   2.108   2.203   1.916 -1.6445 -0.4515 -0.8802
41078SOL     OW28553   1.461   3.397  11.771 -0.4505  0.1801  0.1877
41078SOL    HW128554   1.412   3.336  11.826 -2.1264  1.1540 -0.1483
41078SOL    HW228555   1.462   3.479  11.821  1.3738  0.0516  0.4338
41079SOL     OW28556   5.420   5.510   1.592 -0.4871  0.4346  0.1389
41079SOL    HW128557   5.465   5.493   1.675  1.2804  0.8663 -0.6946
41079SOL    HW228558   5.337   5.550   1.618  0.8610  2.4209  1.6748
41080SOL     OW28559  11.301   4.692   9.288  0.4854  0.5919  0.3921
41080SOL    HW128560  11.356   4.724   9.217  1.2467 -0.6611  0.3857
41080SOL    HW228561  11.299   4.597   9.276 -0.0299  0.4356  1.5766
41081SOL     OW28562   5.824   3.291   0.932  0.1047  0.4980 -0.0504
41081SOL    HW128563   5.843   3.233   0.858 -2.3777  1.3610 -1.4998
41081SOL    HW228564   5.728   3.294   0.935  0.1435  1.6014  2.3635
41082SOL     OW28565   7.419   0.212   5.659  0.1009  0.1186 -0.1683
41082SOL    HW128566   7.406   0.254   5.744 -1.2264  0.1544 -0.3633
41082SOL    HW228567   7.463   0.279   5.606 -0.4535  0.6624  0.0407
41083SOL     OW28568   0.945   6.307   3.875  0.4025 -0.5993  0.2616
41083SOL    HW128569   0.967   6.351   3.957  2.2516 -0.7598 -0.1062
41083SOL    HW228570   0.944   6.377   3.810  0.9221 -0.7507  0.0889
41084SOL     OW28571  10.479   8.946  11.210  0.1718  0.3291 -0.1548
41084SOL    HW128572  10.493   8.908  11.296 -0.3637  0.2502 -0.0977
41084SOL    HW228573  10.547   8.907  11.155  0.4146  0.2605  0.1961
41085SOL     OW28574   4.760   8.374   8.603 -0.1242  0.2009 -0.1326
41085SOL    HW128575   4.742   8.407   8.515 -0.9865  0.3865  0.1063
41085SOL    HW228576   4.684   8.321   8.625  1.2353 -2.0566 -0.5234
41086SOL     OW28577   3.093   8.853   4.506  0.1412  0.7173  0.4152
41086SOL    HW128578   3.142   8.863   4.587  2.5569 -0.1917 -0.8137
41086SOL    HW228579   3.121   8.927   4.452  1.2225 -0.4502 -0.7394
41087SOL     OW28580   0.935   2.845   7.014  0.2898 -0.1295  0.1678
41087SOL    HW128581   1.017   2.855   6.966 -1.8896  1.7186 -3.5860
41087SOL    HW228582   0.912   2.934   7.042 -0.1483 -0.7222  1.8322
41088SOL     OW28583   0.204   0.273   6.802 -0.2981  0.1299 -0.2746
41088SOL    HW128584   0.218   0.336   6.732 -0.7113 -1.0920 -1.4883
41088SOL    HW228585   0.110   0.253   6.798 -0.5694  0.8927  1.3937
41089SOL     OW28586   3.427   9.798  10.968 -0.4107 -0.3049  0.1019
41089SOL    HW128587   3.335   9.797  10.993 -0.0676  1.0368  1.5805
41089SOL    HW228588   3.469   9.739  11.031  0.0639  0.9962  1.0536
41090SOL     OW28589   4.366   6.431   7.121 -0.0939 -0.5359  0.4425
41090SOL    HW128590   4.422   6.365   7.080  1.2738  1.2147 -0.6310
41090SOL    HW228591   4.291   6.439   7.061 -0.1435 -0.9297  0.4500
41091SOL     OW28592   0.438   8.581   6.177  0.4057  0.1135  0.1890
41091SOL    HW128593   0.367   8.639   6.150 -0.2614 -0.8425 -0.1819
41091SOL    HW228594   0.416   8.496   6.138  1.6484 -0.2568  0.2405
41092SOL     OW28595  10.318   9.252   9.982 -0.0948 -0.0797 -0.2529
41092SOL    HW128596  10.328   9.277   9.890 -0.6272 -2.2187 -0.9510
41092SOL    HW228597  10.228   9.277  10.004  0.3512  1.3660  0.0395
41093SOL     OW28598  10.866  10.997   9.495  0.1563 -0.1482  0.3337
41093SOL    HW128599  10.900  10.908   9.504 -1.2352 -0.9160 -1.3382
41093SOL    HW228600  10.783  10.996   9.541 -0.5770 -0.1972 -0.9353
41094SOL     OW28601   2.222   5.646   5.439 -0.5660 -0.0822 -0.0054
41094SOL    HW128602   2.176   5.634   5.523  0.6872  0.4876  0.7952
41094SOL    HW228603   2.214   5.740   5.421 -0.9263 -0.2209 -0.5922
41095SOL     OW28604   2.563   6.957   3.644  0.0828  0.2878  0.1387
41095SOL    HW128605   2.581   7.020   3.714  0.7123  0.1933  0.0649
41095SOL    HW228606   2.489   6.996   3.596 -0.9426 -0.0674  1.3631
41096SOL     OW28607   7.845   3.730   8.419 -0.1383  0.5893  0.0374
41096SOL    HW128608   7.850   3.811   8.369  0.1007  0.2907 -0.4306
41096SOL    HW228609   7.932   3.692   8.412 -0.9445 -1.0786 -2.1183
41097SOL     OW28610   9.543   0.894   3.758  0.7656  0.4369  1.0719
41097SOL    HW128611   9.553   0.814   3.707 -2.6269 -0.4176  1.4965
41097SOL    HW228612   9.595   0.959   3.712  3.9709 -1.9667  0.8926
41098SOL     OW28613   8.039   2.632   9.686 -0.2195 -0.2284  0.0958
41098SOL    HW128614   7.978   2.638   9.759 -1.6609 -1.7191 -0.9108
41098SOL    HW228615   8.037   2.539   9.662  0.9252  0.0733 -1.2563
41099SOL     OW28616   4.713   2.643   5.133 -0.6783 -0.0245  0.5506
41099SOL    HW128617   4.805   2.658   5.153 -0.0350 -2.8037  0.0654
41099SOL    HW228618   4.683   2.582   5.201 -1.6433 -0.5768 -0.3411
41100SOL     OW28619   1.469   9.537   6.971  0.0158 -0.2615 -0.0209
41100SOL    HW128620   1.434   9.623   6.946  2.4614  1.1557  1.0725
41100SOL    HW228621   1.395   9.491   7.010 -1.4380  1.2109 -0.9242
41101SOL     OW28622   2.171   3.026  10.120  0.4514  0.3560 -0.2806
41101SOL    HW128623   2.232   2.990  10.056  0.0647 -2.4461  0.7648
41101SOL    HW228624   2.225   3.078  10.179  1.2974  0.4745 -1.1457
41102SOL     OW28625   6.526   3.795   5.632 -1.0398  0.1876 -0.4833
41102SOL    HW128626   6.476   3.768   5.709 -0.2994 -1.1117 -0.4276
41102SOL    HW228627   6.491   3.742   5.560 -2.0919  1.7664 -1.2037
41103SOL     OW28628   1.299   3.419   2.593 -0.5584 -0.3294  0.0967
41103SOL    HW128629   1.338   3.476   2.527 -1.9739  1.6563  0.8607
41103SOL    HW228630   1.360   3.346   2.603  0.3691  0.0567 -2.3387
41104SOL     OW28631   5.396   3.824   2.473 -0.0694 -0.4684 -0.4353
41104SOL    HW128632   5.356   3.752   2.521  2.6132 -0.5115  1.9938
41104SOL    HW228633   5.387   3.900   2.530  1.3634 -0.0164 -0.7545
41105SOL     OW28634   6.409  11.404   5.013 -0.2440  0.0188 -0.6822
41105SOL    HW128635   6.356  11.482   4.997  0.5138  0.5108 -0.8155
41105SOL    HW228636   6.437  11.412   5.104  0.1281  0.0881 -0.8000
41106SOL     OW28637   9.427   9.998  10.947  0.0543  0.0296  0.3621
41106SOL    HW128638   9.478   9.973  10.870 -0.8673  1.1774 -0.6629
41106SOL    HW228639   9.379  10.077  10.920 -0.2824  0.4752  2.1221
41107SOL     OW28640   5.318  10.308   4.734  0.1814 -0.1491  0.4598
41107SOL    HW128641   5.398  10.256   4.725  0.7553  0.2401  2.7984
41107SOL    HW228642   5.346  10.398   4.723  0.0444 -0.0200  1.1550
41108SOL     OW28643   6.042  11.571   2.866 -0.1858  0.5991 -0.2850
41108SOL    HW128644   5.967  11.526   2.904  0.2194 -0.3057 -0.5182
41108SOL    HW228645   6.012  11.660   2.850 -0.9709  0.4487  0.3128
41109SOL     OW28646   4.941   9.558   6.736 -0.1208  0.6324 -0.0786
41109SOL    HW128647   4.950   9.605   6.819 -4.3940  1.1540  0.3439
41109SOL    HW228648   4.937   9.466   6.761  2.6019  0.3747 -0.2874
41110SOL     OW28649   6.904   4.672  11.020 -0.4404 -0.1226  0.2055
41110SOL    HW128650   6.950   4.754  11.037 -0.2705 -0.2792  0.5120
41110SOL    HW228651   6.906   4.662  10.925  0.4286 -0.2806  0.2396
41111SOL     OW28652   5.531   5.222   4.404 -0.3949  0.4680  0.4843
41111SOL    HW128653   5.618   5.185   4.386 -0.5052 -0.3928  1.5526
41111SOL    HW228654   5.487   5.153   4.454 -1.6443  0.9583  0.0741
41112SOL     OW28655   4.657   1.869   5.153  0.3884 -0.4599  0.3206
41112SOL    HW128656   4.666   1.870   5.058 -1.2462 -1.5712  0.1194
41112SOL    HW228657   4.662   1.962   5.178  2.3432 -0.2464 -0.6424
41113SOL     OW28658  11.261   8.637   5.285  0.1302 -0.7634 -0.0581
41113SOL    HW128659  11.295   8.583   5.214  1.0399  0.0386 -0.2443
41113SOL    HW228660  11.335   8.689   5.314 -0.2640 -0.9546  1.3856
41114SOL     OW28661   7.916   8.150   8.733 -0.0897  0.5176  0.7766
41114SOL    HW128662   7.876   8.117   8.814  1.1231 -0.5634  0.9711
41114SOL    HW228663   7.880   8.238   8.722 -2.5035 -0.3784  0.9353
41115SOL     OW28664   7.846   9.334   6.222  0.1089  0.3256 -0.1912
41115SOL    HW128665   7.803   9.338   6.308 -0.3866  0.2211 -0.4274
41115SOL    HW228666   7.855   9.241   6.204 -1.0634  0.3227 -0.8628
41116SOL     OW28667   4.775   9.269   4.971  0.2218  0.1378  0.0743
41116SOL    HW128668   4.702   9.228   4.924  1.4559 -1.3736 -0.5864
41116SOL    HW228669   4.842   9.201   4.976  2.0041  1.7905 -0.2096
41117SOL     OW28670   8.977   9.516   5.957  0.5484  0.5778 -0.2170
41117SOL    HW128671   9.043   9.537   6.023 -0.3103  2.7078  0.0264
41117SOL    HW228672   8.910   9.467   6.005  0.3691  1.3184  0.3042
41118SOL     OW28673   2.331   0.569   0.547 -0.5072  0.2398 -0.3882
41118SOL    HW128674   2.305   0.648   0.594  3.3224  1.6839 -0.3597
41118SOL    HW228675   2.348   0.505   0.616  0.5235  0.8241 -0.0829
41119SOL     OW28676   6.511   1.586   0.875 -0.0640 -0.8553 -0.3967
41119SOL    HW128677   6.570   1.566   0.948 -0.3370  0.2549  0.1602
41119SOL    HW228678   6.425   1.557   0.906  0.0687 -1.8677 -0.9433
41120SOL     OW28679   4.515   5.049   6.898  0.2903 -0.1584  0.1000
41120SOL    HW128680   4.421   5.046   6.918  0.1878 -1.7058 -0.4721
41120SOL    HW228681   4.532   4.966   6.853  2.1123 -0.2641  0.9125
41121SOL     OW28682   7.033   8.491  11.451  0.5384 -0.1327 -0.2918
41121SOL    HW128683   7.051   8.422  11.515 -0.1704 -0.2112 -0.1643
41121SOL    HW228684   7.089   8.564  11.477 -0.7236  0.3337  1.2617
41122SOL     OW28685   8.970  11.812   5.988  0.4988 -0.0700 -0.4627
41122SOL    HW128686   8.978  11.862   6.069  1.1828 -1.0561  0.1077
41122SOL    HW228687   9.056  11.819   5.947  1.0452 -1.8312  0.2913
41123SOL     OW28688   6.425   1.750   1.362  0.6218 -0.2017 -0.0524
41123SOL    HW128689   6.515   1.765   1.391  0.1399 -0.1996  1.5455
41123SOL    HW228690   6.421   1.657   1.341  1.1101 -0.1051 -0.5858
41124SOL     OW28691   6.196   6.109   5.178  0.1457  0.7920  0.0372
41124SOL    HW128692   6.281   6.070   5.157  0.5234  1.0654  0.9664
41124SOL    HW228693   6.132   6.045   5.147  0.7043  0.3364 -0.2022
41125SOL     OW28694   9.368   7.986   7.219  0.5333  0.3818  0.3650
41125SOL    HW128695   9.311   8.002   7.143 -0.4457  1.5020  1.2950
41125SOL    HW228696   9.352   7.895   7.241  0.1175  0.2995 -0.2192
41126SOL     OW28697   0.537   7.971   6.384 -0.2532 -0.0643 -0.5085
41126SOL    HW128698   0.611   8.026   6.357  2.0392 -1.0238  3.0939
41126SOL    HW228699   0.561   7.883   6.357 -0.2384 -0.3159  0.2857
41127SOL     OW28700   5.253   1.471   5.359 -0.0502 -0.4122  0.4099
41127SOL    HW128701   5.254   1.442   5.450  0.2814 -1.1279  0.1846
41127SOL    HW228702   5.343   1.458   5.328  0.3902  1.8716  0.5982
41128SOL     OW28703   1.046   7.831   2.017 -0.6078 -0.0441 -0.0456
41128SOL    HW128704   1.072   7.740   2.003  0.4313  0.3599 -0.9735
41128SOL    HW228705   0.951   7.829   2.019 -0.5863 -1.3357  1.4375
41129SOL     OW28706   7.459   9.719   9.400  0.1988  0.4720 -0.1216
41129SOL    HW128707   7.503   9.672   9.328 -0.7672  0.6326 -0.8338
41129SOL    HW228708   7.513   9.700   9.477  0.4295 -0.9302 -0.5951
41130SOL     OW28709  11.552   3.779   9.931  0.4872 -0.5274  0.1113
41130SOL    HW128710  11.505   3.842   9.877  0.1674  1.4249  2.4879
41130SOL    HW228711  11.643   3.783   9.900 -0.0067 -0.8898 -1.4638
41131SOL     OW28712   4.505  11.642   9.122  0.3602  0.9892  0.3574
41131SOL    HW128713   4.464  11.718   9.081 -0.5382  1.2164  1.5869
41131SOL    HW228714   4.554  11.678   9.196  0.5774  0.4478  0.4841
41132SOL     OW28715   1.545   9.204   3.294 -0.1940  0.3712  0.6946
41132SOL    HW128716   1.611   9.135   3.299  0.3108  0.7588 -0.3455
41132SOL    HW228717   1.470   9.162   3.250  0.1101  0.4678  0.0695
41133SOL     OW28718   0.326  10.581   6.155 -0.1884  0.1359 -0.0002
41133SOL    HW128719   0.421  10.594   6.145 -0.2268  1.0477  0.6659
41133SOL    HW228720   0.295  10.562   6.067  0.4413  1.0868 -0.4448
41134SOL     OW28721   3.369  11.035   6.184  0.1078  0.4032 -0.4584
41134SOL    HW128722   3.460  11.066   6.185  0.1417  0.3092  1.1898
41134SOL    HW228723   3.317  11.115   6.185  0.1971  0.4753  1.4176
41135SOL     OW28724  10.776   6.251   4.535  0.1565 -0.0245 -0.3975
41135SOL    HW128725  10.845   6.226   4.596  0.6986 -0.8082 -1.3121
41135SOL    HW228726  10.796   6.204   4.454 -1.9953 -1.0962 -0.3923
41136SOL     OW28727   0.361  10.613   6.639 -0.1258  0.0800  0.3047
41136SOL    HW128728   0.294  10.629   6.573 -0.2642  1.2202  0.6947
41136SOL    HW228729   0.425  10.556   6.596  0.8473  2.4401 -1.5554
41137SOL     OW28730  10.313   8.790   0.861  0.5075 -0.2378  0.2283
41137SOL    HW128731  10.241   8.814   0.919  1.8006  0.0287  1.8322
41137SOL    HW228732  10.309   8.695   0.854 -0.7571 -0.1287 -0.7909
41138SOL     OW28733   7.381   6.004   5.913 -0.0475 -0.1506 -0.0911
41138SOL    HW128734   7.331   5.925   5.894  2.0553 -2.2338  2.2625
41138SOL    HW228735   7.454   6.001   5.851  1.0056 -1.1195  1.1398
41139SOL     OW28736   7.484   9.034   6.241 -0.3321  0.6347  0.0685
41139SOL    HW128737   7.502   9.067   6.153 -1.1298 -1.4967 -0.9648
41139SOL    HW228738   7.556   8.973   6.259 -1.1364 -0.3297  0.0921
41140SOL     OW28739   7.626   1.489   3.966 -0.1043 -0.3019  0.2139
41140SOL    HW128740   7.717   1.469   3.988 -0.5360 -2.5874  0.2023
41140SOL    HW228741   7.576   1.458   4.042 -0.8798  1.1325  0.3151
41141SOL     OW28742   4.016  11.051   0.000  0.1076 -0.4027  0.3856
41141SOL    HW128743   4.009  11.084   0.090  0.0490  1.3795 -0.2423
41141SOL    HW228744   4.106  11.069  -0.026 -0.2767  0.4571 -0.4043
41142SOL     OW28745   9.949   6.811   8.077 -0.0558 -0.2172  0.9109
41142SOL    HW128746   9.985   6.745   8.136 -0.0931 -1.3811 -0.3374
41142SOL    HW228747   9.933   6.765   7.995  0.7632  1.5311 -0.3073
41143SOL     OW28748   3.304   6.974   9.758  0.4249  0.2206  0.2028
41143SOL    HW128749   3.316   7.067   9.778 -2.4079  0.6945  0.0893
41143SOL    HW228750   3.318   6.968   9.663 -0.3585  0.7588  0.0399
41144SOL     OW28751   4.949   2.739   8.603 -0.1650 -0.0445  0.0156
41144SOL    HW128752   4.908   2.669   8.654 -0.0701  0.0673  0.2457
41144SOL    HW228753   4.898   2.817   8.626  1.4866  0.5354  1.9674
41145SOL     OW28754   1.667   3.099   1.917 -0.0403  0.1101 -0.3106
41145SOL    HW128755   1.607   3.168   1.943  0.2338  1.7224 -3.4646
41145SOL    HW228756   1.615   3.019   1.921 -1.1684  0.8689  0.8057
41146SOL     OW28757   6.614   2.782   7.958 -0.0043  0.0138 -0.1622
41146SOL    HW128758   6.525   2.817   7.948 -0.2113 -0.5888 -0.4448
41146SOL    HW228759   6.670   2.859   7.951 -0.6113  0.8784  2.8498
41147SOL     OW28760   0.650  10.630   3.721  0.1839 -0.7309  0.3838
41147SOL    HW128761   0.647  10.661   3.631 -1.6642  0.1070  0.6829
41147SOL    HW228762   0.641  10.710   3.774 -1.3825 -1.4127  1.2253
41148SOL     OW28763   5.368   2.125   6.179 -0.2244 -0.3407  0.2389
41148SOL    HW128764   5.441   2.125   6.118  0.9141  0.5081  1.5336
41148SOL    HW228765   5.327   2.211   6.169 -0.0482 -0.2070  0.6382
41149SOL     OW28766  11.814  11.744   9.342 -0.5379  0.2246 -0.3874
41149SOL    HW128767  11.852  11.753   9.255  0.5482 -0.9436 -0.0598
41149SOL    HW228768  11.725  11.712   9.326 -0.4792  0.4003 -1.0754
41150SOL     OW28769   6.916   8.184   1.659 -0.2258  0.1699  0.1785
41150SOL    HW128770   6.968   8.235   1.721 -2.0697  1.8856  0.4421
41150SOL    HW228771   6.838   8.158   1.709 -0.2227 -1.2442 -0.5222
41151SOL     OW28772  11.178   2.970   8.786 -0.3261 -0.5302 -0.4734
41151SOL    HW128773  11.108   3.035   8.781 -2.0977 -2.3872 -1.7789
41151SOL    HW228774  11.189   2.941   8.695  2.0216 -0.4687 -0.2501
41152SOL     OW28775   6.300   3.914   8.360  0.0623  0.3581 -0.0958
41152SOL    HW128776   6.388   3.877   8.365 -0.3656 -0.8781 -1.1506
41152SOL    HW228777   6.272   3.899   8.270 -0.9288  1.4709 -0.0066
41153SOL     OW28778   3.836   2.257   5.409 -0.5373  0.2121 -0.3192
41153SOL    HW128779   3.831   2.219   5.496 -1.3173  2.3511  0.6284
41153SOL    HW228780   3.929   2.256   5.387 -0.3482 -0.4539  0.4865
41154SOL     OW28781   6.632  11.174   3.190  0.2984  0.6638 -0.0777
41154SOL    HW128782   6.682  11.194   3.269  0.9867 -1.1842  0.0166
41154SOL    HW228783   6.556  11.232   3.193  1.2490  1.9048  0.9753
41155SOL     OW28784   2.541   5.881   9.428 -0.0881 -0.0265 -0.2228
41155SOL    HW128785   2.575   5.969   9.410  0.8406  0.0332  1.5804
41155SOL    HW228786   2.617   5.831   9.458 -1.3641  0.0850  3.9175
41156SOL     OW28787   2.690   4.310   2.026 -0.4928 -0.0369  0.0147
41156SOL    HW128788   2.762   4.247   2.020 -0.5169 -0.0634  0.0093
41156SOL    HW228789   2.716   4.380   1.966  0.4352  0.8456  1.3822
41157SOL     OW28790   1.466   2.985   5.484  0.0105 -1.0375  0.2379
41157SOL    HW128791   1.547   2.975   5.433  0.8542  2.4766  0.6020
41157SOL    HW228792   1.466   3.077   5.510 -2.2756 -1.7818  3.4793
41158SOL     OW28793   2.821   8.353  11.031  0.1938 -0.0314  0.0232
41158SOL    HW128794   2.736   8.325  10.998 -0.0830 -0.4825  1.0718
41158SOL    HW228795   2.826   8.316  11.119  0.1362  2.6301  1.2217
41159SOL     OW28796   4.650   7.940   2.731 -0.5225  0.1321 -0.2422
41159SOL    HW128797   4.696   7.895   2.660  0.0471 -0.0545  0.2398
41159SOL    HW228798   4.714   7.944   2.803 -0.6053  1.5646 -0.2118
41160SOL     OW28799   5.786   1.437   9.627 -0.7500  0.3054  0.5166
41160SOL    HW128800   5.866   1.491   9.625 -0.5330  0.0054  0.9026
41160SOL    HW228801   5.726   1.481   9.567  0.0236  0.0382 -0.4860
41161SOL     OW28802  10.961   8.738   3.615  0.3054  0.3714 -0.0788
41161SOL    HW128803  10.878   8.713   3.656  0.0744  0.0661 -0.7200
41161SOL    HW228804  11.016   8.660   3.621  0.2441  0.3013 -0.4147
41162SOL     OW28805   4.059  10.745   1.880 -0.2561 -0.0605  0.6654
41162SOL    HW128806   3.976  10.790   1.868  0.4396  0.8659 -0.9905
41162SOL    HW228807   4.067  10.689   1.802  0.3883 -0.6302  1.1237
41163SOL     OW28808   7.149   0.923   1.309 -0.3403  0.3147  0.3356
41163SOL    HW128809   7.209   0.873   1.254  1.5090  2.1011  0.6041
41163SOL    HW228810   7.172   0.898   1.399 -1.1957 -0.2422  0.4136
41164SOL     OW28811  10.111   3.958  10.347 -0.1681  0.4095 -0.6608
41164SOL    HW128812  10.196   3.957  10.303 -0.2629 -0.0956 -0.8438
41164SOL    HW228813  10.074   4.044  10.328 -0.0136  0.3587 -1.1906
41165SOL     OW28814  10.153   5.297   6.042  0.8605  0.5811  0.0941
41165SOL    HW128815  10.073   5.299   6.096  1.6300 -1.0030  1.3832
41165SOL    HW228816  10.204   5.373   6.072 -0.7393  2.5605 -1.8337
41166SOL     OW28817  11.067   5.466   8.873 -0.1082 -0.3064 -0.2741
41166SOL    HW128818  11.077   5.562   8.873  0.2971 -0.3425 -0.8632
41166SOL    HW228819  11.157   5.433   8.883 -0.3804 -0.6363  1.5055
41167SOL     OW28820   6.471   5.055   5.839 -0.0968 -0.1821  0.3057
41167SOL    HW128821   6.444   4.972   5.876 -0.5418  0.3086  1.1164
41167SOL    HW228822   6.538   5.088   5.900  1.1812 -0.6383 -0.8148
41168SOL     OW28823   2.749  11.102   3.221  0.2271  0.2186  0.0999
41168SOL    HW128824   2.715  11.190   3.237  0.9571  0.1341  2.4499
41168SOL    HW228825   2.800  11.081   3.299  1.2155 -1.7645 -1.0036
41169SOL     OW28826  10.529   5.261   8.811 -0.1595  0.2425 -0.0977
41169SOL    HW128827  10.450   5.224   8.771  0.4979 -1.0172 -0.2714
41169SOL    HW228828  10.557   5.195   8.873  0.2219  1.1178  0.6875
41170SOL     OW28829   1.000   5.216  11.004  0.0082  0.4633  0.2382
41170SOL    HW128830   1.059   5.283  10.970 -1.8099  2.2804  0.4145
41170SOL    HW228831   0.912   5.249  10.983 -0.9902 -2.5012 -0.7514
41171SOL     OW28832   1.845   9.793   8.694  0.1701  0.0083  0.0384
41171SOL    HW128833   1.822   9.720   8.636  1.9614  1.0292 -2.0990
41171SOL    HW228834   1.783   9.862   8.671 -0.4008 -0.2385  0.8072
41172SOL     OW28835   3.509   9.010   2.372 -0.1294 -0.0195  0.3047
41172SOL    HW128836   3.585   9.004   2.313 -0.6694 -0.1769 -0.3829
41172SOL    HW228837   3.547   9.035   2.456  0.9305 -1.9080  0.4619
41173SOL     OW28838  10.858   6.890   3.677  0.0188  0.0675  0.6965
41173SOL    HW128839  10.795   6.854   3.615  0.9609  0.3531 -0.4671
41173SOL    HW228840  10.806   6.943   3.737 -1.1861 -1.8625  1.4459
41174SOL     OW28841   9.514  11.061   2.784  0.3492  0.2396  0.6003
41174SOL    HW128842   9.554  10.978   2.809  2.6915  1.9990  3.3229
41174SOL    HW228843   9.445  11.075   2.849  0.7135  0.9038  0.8578
41175SOL     OW28844   2.702  10.583   1.044  0.7760 -0.2558  0.4200
41175SOL    HW128845   2.796  10.593   1.057  0.5093 -0.0845  2.5204
41175SOL    HW228846   2.688  10.608   0.953  2.3020  3.4418  1.0173
41176SOL     OW28847   5.157   6.149   5.021  0.1828 -0.4229 -0.4186
41176SOL    HW128848   5.129   6.212   4.954  0.7762 -0.7075 -0.9533
41176SOL    HW228849   5.088   6.151   5.087 -0.6914 -0.5331 -1.3121
41177SOL     OW28850   8.645   3.791   1.337 -0.0261  0.3345  0.8802
41177SOL    HW128851   8.714   3.769   1.400 -1.0245  0.4001  2.0314
41177SOL    HW228852   8.643   3.717   1.277  1.2587  0.4809  0.6322
41178SOL     OW28853   8.223   1.094   3.863  0.1453  0.4381  0.1934
41178SOL    HW128854   8.317   1.112   3.868 -0.0277  1.4409  0.0841
41178SOL    HW228855   8.215   1.000   3.882  1.0664  0.5497  1.2460
41179SOL     OW28856   2.134   4.128  10.230  0.0585  0.1015  0.0671
41179SOL    HW128857   2.147   4.129  10.325  1.0649 -0.0157 -0.0616
41179SOL    HW228858   2.043   4.101  10.219  0.5066 -1.9680  0.9482
41180SOL     OW28859   9.501   6.373   3.632 -0.3546 -0.1421 -0.5808
41180SOL    HW128860   9.417   6.406   3.600 -0.8710 -1.0087 -0.1450
41180SOL    HW228861   9.481   6.287   3.668  0.8895 -0.7734 -1.3294
41181SOL     OW28862   1.263  11.813   4.817 -0.1112 -0.2343 -0.1469
41181SOL    HW128863   1.181  11.812   4.866 -0.4205  1.3828 -0.5780
41181SOL    HW228864   1.238  11.842   4.729  0.8974  0.1413 -0.3216
41182SOL     OW28865   5.532  10.855   1.116  0.4632  0.3490  0.1583
41182SOL    HW128866   5.609  10.884   1.066  0.2421  0.8616  0.1029
41182SOL    HW228867   5.546  10.761   1.130  0.7683  0.3001 -0.4399
41183SOL     OW28868   1.767   6.995   3.776 -0.0298 -0.0265 -0.0648
41183SOL    HW128869   1.674   7.009   3.794  0.3351  1.7513  0.6535
41183SOL    HW228870   1.786   7.054   3.704  0.5426 -0.4358 -0.2544
41184SOL     OW28871   5.388   9.299   7.584  0.0335 -0.4285  0.3737
41184SOL    HW128872   5.323   9.344   7.531 -0.8147  0.2915  1.9483
41184SOL    HW228873   5.413   9.222   7.532  0.4567  1.0599 -1.7448
41185SOL     OW28874   1.438   9.122  11.192 -0.4806  0.2925  0.8914
41185SOL    HW128875   1.410   9.201  11.146  1.5004  0.2942 -0.4540
41185SOL    HW228876   1.517   9.149  11.239 -0.2366 -0.6838  1.0587
41186SOL     OW28877   4.465   4.241   9.340  0.0399  0.0856  0.3284
41186SOL    HW128878   4.470   4.146   9.340 -1.2110 -0.0076 -0.0216
41186SOL    HW228879   4.544   4.270   9.294 -0.6038 -0.8970 -1.5154
41187SOL     OW28880   0.020   1.820   9.841 -0.0250  0.5110 -0.3897
41187SOL    HW128881   0.037   1.913   9.825 -0.5461  0.8733  1.0188
41187SOL    HW228882   0.091   1.775   9.796  0.0280  1.5598 -1.4197
41188SOL     OW28883  11.735   5.199   0.480 -0.0146 -0.0064  0.3789
41188SOL    HW128884  11.724   5.201   0.575  1.1434  0.1660  0.5193
41188SOL    HW228885  11.718   5.108   0.456  0.3773 -0.2075  0.8405
41189SOL     OW28886   8.414   9.881   0.663  0.2744  0.8671  0.3937
41189SOL    HW128887   8.489   9.856   0.717  1.2679  0.3778 -1.1389
41189SOL    HW228888   8.431   9.973   0.640 -0.0598  1.0249  0.7742
41190SOL     OW28889   5.722   2.313   0.505 -0.2551  0.2580 -0.3155
41190SOL    HW128890   5.739   2.342   0.594 -0.8434 -0.6224  0.1021
41190SOL    HW228891   5.689   2.390   0.459  0.2059  0.7516  0.1769
41191SOL     OW28892  11.016   6.291   2.720 -0.1139 -0.2582 -0.1802
41191SOL    HW128893  11.038   6.279   2.813 -2.7643 -0.0418  0.5532
41191SOL    HW228894  10.976   6.208   2.695  0.6385 -0.3344 -1.1815
41192SOL     OW28895   1.352   7.103   2.435 -0.2456 -0.6062  0.6155
41192SOL    HW128896   1.444   7.109   2.459 -0.1666 -1.3718  0.5177
41192SOL    HW228897   1.324   7.194   2.422  0.6837 -0.4146 -0.0910
41193SOL     OW28898   8.833   0.667   1.102  0.4600  0.0929  0.5858
41193SOL    HW128899   8.847   0.579   1.066  0.4041 -0.6042  2.1850
41193SOL    HW228900   8.853   0.726   1.030 -0.0831 -1.2483 -0.7131
41194SOL     OW28901   9.163   8.456   6.640  0.8808  0.2316  0.1531
41194SOL    HW128902   9.189   8.547   6.652  1.8140 -0.1379  1.1257
41194SOL    HW228903   9.119   8.455   6.555  1.9511  1.3620 -0.4541
41195SOL     OW28904   7.488   5.781   0.267 -0.1475 -0.0877 -0.6514
41195SOL    HW128905   7.489   5.822   0.181  1.9790  0.1546 -0.5615
41195SOL    HW228906   7.483   5.687   0.249  1.1051 -0.0817 -1.0839
41196SOL     OW28907   5.101  10.020   3.458  0.4210 -0.4261 -0.4017
41196SOL    HW128908   5.033  10.071   3.503  0.8012  0.3232 -0.6744
41196SOL    HW228909   5.063   9.932   3.451 -0.0643 -0.2975  0.4517
41197SOL     OW28910   0.944   0.445  10.359  0.1825  0.0937 -0.2533
41197SOL    HW128911   1.026   0.397  10.352  0.6967  0.7659  0.8213
41197SOL    HW228912   0.970   0.533  10.386 -0.8581  0.4606 -0.3916
41198SOL     OW28913   8.183   9.341   0.659 -0.1178 -0.1878 -0.2113
41198SOL    HW128914   8.161   9.365   0.569 -2.0537  2.0082  0.7509
41198SOL    HW228915   8.228   9.417   0.695 -2.5493  0.4792  1.6680
41199SOL     OW28916  11.749   0.196   9.352 -0.1029 -0.1624 -0.8482
41199SOL    HW128917  11.795   0.112   9.355  1.3591  0.5976 -0.8130
41199SOL    HW228918  11.751   0.227   9.443 -0.3131  0.0755 -0.9237
41200SOL     OW28919   1.461  10.936   6.980 -0.3361  0.5747 -0.0134
41200SOL    HW128920   1.413  10.870   6.930 -0.0321  1.5998 -1.7356
41200SOL    HW228921   1.545  10.944   6.934 -0.5019  2.3839 -0.0384
41201SOL     OW28922  11.495   8.570   8.378  0.0697 -0.3293 -0.5909
41201SOL    HW128923  11.436   8.625   8.326  0.9538  0.1539 -1.1025
41201SOL    HW228924  11.445   8.490   8.394 -0.7455  0.0925 -0.9697
41202SOL     OW28925   9.303   2.217   4.191 -0.6002  0.3713 -0.3883
41202SOL    HW128926   9.362   2.194   4.119  0.7745 -0.3985  0.9181
41202SOL    HW228927   9.261   2.134   4.215  0.4411  0.2151  0.9596
41203SOL     OW28928   2.691   6.260   9.674 -0.1337 -0.7155 -0.0623
41203SOL    HW128929   2.783   6.250   9.697 -0.0847 -2.3813 -0.8884
41203SOL    HW228930   2.643   6.225   9.750 -0.0191 -2.4803 -0.7581
41204SOL     OW28931   2.206  10.353  11.322  0.2192 -0.1215  0.2769
41204SOL    HW128932   2.187  10.281  11.262  0.1258 -0.1402  0.3269
41204SOL    HW228933   2.258  10.314  11.391 -0.9872 -0.4555  1.0301
41205SOL     OW28934   2.327   0.245  10.500  0.4259  0.1686  0.0666
41205SOL    HW128935   2.419   0.238  10.475  0.1182  1.6565 -1.6932
41205SOL    HW228936   2.295   0.155  10.497  1.6177 -0.2820 -0.0369
41206SOL     OW28937   1.322   4.775   0.902 -0.1783 -0.5511  0.4739
41206SOL    HW128938   1.351   4.684   0.904 -1.4086 -1.0185 -1.2357
41206SOL    HW228939   1.401   4.824   0.878  0.1257 -1.3470 -0.2229
41207SOL     OW28940   6.379   8.495   0.666 -0.2017 -0.0279 -0.2452
41207SOL    HW128941   6.362   8.451   0.583  0.7527  0.6863 -0.8382
41207SOL    HW228942   6.402   8.424   0.726  1.1094 -0.3998 -1.1345
41208SOL     OW28943   9.299   2.018   6.455  0.2515 -0.3069 -0.1967
41208SOL    HW128944   9.211   2.033   6.488  0.6702 -0.3074  0.9365
41208SOL    HW228945   9.317   1.926   6.475  1.1213  0.1264  1.0599
41209SOL     OW28946   2.713  10.043   2.920  0.2562 -0.0936  0.0199
41209SOL    HW128947   2.686   9.954   2.943 -2.1151 -0.0978 -2.1968
41209SOL    HW228948   2.779  10.031   2.852  1.4087 -0.0890  1.0950
41210SOL     OW28949   9.513  10.668   7.694  0.4080 -0.7475 -0.0310
41210SOL    HW128950   9.478  10.593   7.742  2.2236 -1.2276  0.6120
41210SOL    HW228951   9.595  10.636   7.656  0.8531  0.7102 -0.3574
41211SOL     OW28952   3.753   8.464  10.220  0.3064 -0.0213 -0.1354
41211SOL    HW128953   3.721   8.473  10.310  1.9208 -0.0719  0.4697
41211SOL    HW228954   3.751   8.370  10.202  2.1941 -0.2713  0.7332
41212SOL     OW28955   3.995   6.958   5.255  0.1359  0.1878 -0.5103
41212SOL    HW128956   4.087   6.949   5.228  0.2024  1.4941 -0.7866
41212SOL    HW228957   4.000   6.979   5.348  0.0646 -0.6085 -0.3174
41213SOL     OW28958   1.046  10.830   5.811 -0.2208  0.5777  0.2440
41213SOL    HW128959   1.124  10.798   5.856  0.8620  2.0632 -0.4855
41213SOL    HW228960   1.072  10.916   5.777 -1.2749 -0.0745 -2.4200
41214SOL     OW28961   3.883  11.053   2.444  0.2640 -0.2817  0.3270
41214SOL    HW128962   3.900  10.965   2.412 -0.5137  0.1018 -1.2464
41214SOL    HW228963   3.802  11.046   2.493  0.9550 -0.6880  1.4554
41215SOL     OW28964   4.238   2.891   0.579  0.2452  0.0803  0.3576
41215SOL    HW128965   4.158   2.839   0.590  1.1476 -0.9153  2.6948
41215SOL    HW228966   4.210   2.965   0.524 -2.1221 -0.5659  0.5622
41216SOL     OW28967  10.665   4.740   8.278  0.7506 -0.5282 -0.2662
41216SOL    HW128968  10.671   4.827   8.241 -0.1947 -0.8909 -1.3167
41216SOL    HW228969  10.697   4.682   8.210  0.3790 -1.0865  0.0211
41217SOL     OW28970   5.852   2.976   7.140  0.4988  0.0599 -0.2266
41217SOL    HW128971   5.777   3.005   7.089  1.6840  0.8892 -1.5625
41217SOL    HW228972   5.899   2.915   7.084  1.4925  0.5070  0.0811
41218SOL     OW28973   7.972   2.135  11.152 -0.6446  0.0174  0.2149
41218SOL    HW128974   7.971   2.207  11.215  0.4254 -0.0060  0.2863
41218SOL    HW228975   7.883   2.131  11.119 -0.7957  1.1965  0.4173
41219SOL     OW28976   3.580   0.356   5.390  0.0488  0.0030 -0.1701
41219SOL    HW128977   3.588   0.411   5.468  1.6545 -0.7821  0.2607
41219SOL    HW228978   3.536   0.277   5.421 -2.5088  1.0743 -0.8456
41220SOL     OW28979   1.163   6.936   1.058  0.1152 -0.5713  0.4302
41220SOL    HW128980   1.186   6.909   1.147 -0.2069  2.2897  1.4664
41220SOL    HW228981   1.147   6.853   1.012 -0.9291 -2.1405  3.3405
41221SOL     OW28982   1.491   0.413   9.530 -0.1679 -0.2898  0.5928
41221SOL    HW128983   1.515   0.470   9.603 -0.7803  0.8152 -0.0289
41221SOL    HW228984   1.428   0.351   9.567  0.1153 -0.2324  1.1747
41222SOL     OW28985   7.237   9.821   8.517  0.3429  0.3845 -0.2160
41222SOL    HW128986   7.201   9.832   8.429 -0.0916  0.3543 -0.0454
41222SOL    HW228987   7.330   9.806   8.503 -0.1561 -2.7467 -0.8848
41223SOL     OW28988   6.516   0.196   0.725  0.5144 -0.1032  0.5725
41223SOL    HW128989   6.592   0.227   0.776 -0.0246  0.3837  1.1037
41223SOL    HW228990   6.541   0.209   0.634  0.0927  2.5826  0.7633
41224SOL     OW28991  10.735   4.604   9.919 -0.0618 -0.6307  0.2945
41224SOL    HW128992  10.692   4.629   9.837  2.9080  1.3942 -0.8095
41224SOL    HW228993  10.759   4.687   9.960 -1.4541 -1.5823  3.3451
41225SOL     OW28994   0.360   7.040   6.289 -0.8907  0.1085 -0.0150
41225SOL    HW128995   0.375   6.960   6.238 -0.6726 -0.2777  0.6349
41225SOL    HW228996   0.271   7.030   6.324 -0.1640 -0.8243  1.7124
41226SOL     OW28997   6.745   7.232   9.693  0.0029 -0.2215  0.1529
41226SOL    HW128998   6.789   7.154   9.659 -0.5748 -1.3310  1.8620
41226SOL    HW228999   6.816   7.292   9.713  0.8901 -2.0046  2.9133
41227SOL     OW29000   7.092   4.781  10.745  0.6799 -0.3854  0.5031
41227SOL    HW129001   7.044   4.700  10.733 -0.9537  0.5307  0.5470
41227SOL    HW229002   7.184   4.754  10.750  0.3562 -2.0455 -1.2016
41228SOL     OW29003   5.865   6.261   0.463 -0.2931 -0.2415  0.0334
41228SOL    HW129004   5.909   6.285   0.381  0.0287  1.4578  0.6614
41228SOL    HW229005   5.776   6.239   0.436  0.3099 -1.6304 -0.9873
41229SOL     OW29006  10.218   3.119   4.400  0.0157  0.1884  0.1434
41229SOL    HW129007  10.281   3.187   4.422  2.9804 -1.8827 -1.2592
41229SOL    HW229008  10.246   3.087   4.314 -1.8550 -2.0776  0.2706
41230SOL     OW29009   8.702   4.762   4.252 -0.3792  0.0307 -0.3847
41230SOL    HW129010   8.788   4.727   4.232 -1.0671 -0.8802 -1.8883
41230SOL    HW229011   8.701   4.771   4.347  0.8789 -1.2560 -0.2248
41231SOL     OW29012  11.213   5.513   2.714 -0.1157  0.1901  0.2220
41231SOL    HW129013  11.225   5.579   2.782  0.3789 -0.1741  0.5052
41231SOL    HW229014  11.265   5.438   2.745  0.3072  0.1037 -0.6701
41232SOL     OW29015   7.571   7.120   3.552  0.4499 -0.3328  0.8209
41232SOL    HW129016   7.547   7.131   3.460  0.4069 -2.5759  0.5117
41232SOL    HW229017   7.541   7.032   3.574  2.0285 -0.5146  2.4732
41233SOL     OW29018  10.821   2.244   7.377 -0.3701  0.2072  0.1297
41233SOL    HW129019  10.889   2.276   7.317 -0.2645  0.1511  0.2174
41233SOL    HW229020  10.795   2.159   7.341 -0.7794  0.4740 -0.2064
41234SOL     OW29021   8.187   7.523   0.128  0.4870  0.2836  0.5137
41234SOL    HW129022   8.132   7.449   0.103 -0.4860  1.3022 -0.4853
41234SOL    HW229023   8.277   7.490   0.121  0.1306 -0.4386 -1.2550
41235SOL     OW29024   1.716  11.231   6.653 -0.3955  0.3496  0.1460
41235SOL    HW129025   1.779  11.303   6.654  1.2090 -1.0031  1.3767
41235SOL    HW229026   1.736  11.183   6.572  1.5506 -1.1701  1.4390
41236SOL     OW29027   6.664   2.786   5.476 -0.6146 -0.9174 -0.1690
41236SOL    HW129028   6.753   2.819   5.461 -0.7641 -0.4746 -0.0802
41236SOL    HW229029   6.636   2.829   5.557 -1.5408  0.2449 -1.0767
41237SOL     OW29030   2.741   6.202   8.973 -0.1601  0.3715 -0.0712
41237SOL    HW129031   2.778   6.161   8.895 -3.3690 -0.0068 -1.5491
41237SOL    HW229032   2.779   6.152   9.046  0.2812 -1.6096 -1.5659
41238SOL     OW29033   7.273  11.568   7.854 -0.0454 -0.5600  0.0351
41238SOL    HW129034   7.217  11.643   7.874  0.9903  0.4095 -0.5576
41238SOL    HW229035   7.259  11.508   7.926  0.2983  0.9199  1.3985
41239SOL     OW29036   3.815   1.995   4.180  0.1080 -0.3934  0.1289
41239SOL    HW129037   3.783   1.931   4.244  2.1896 -0.4129  1.2122
41239SOL    HW229038   3.861   2.060   4.232 -2.1172  2.2042 -0.9188
41240SOL     OW29039   7.045   6.510   6.047 -0.6021 -0.0097  0.4955
41240SOL    HW129040   7.080   6.465   5.970  0.2080  3.0086 -1.0630
41240SOL    HW229041   7.112   6.499   6.114  0.6013  0.6196 -0.5497
41241SOL     OW29042   1.958  11.391   6.352 -0.4278  0.5714  0.1447
41241SOL    HW129043   1.932  11.469   6.304  0.1416  0.6660 -0.0188
41241SOL    HW229044   1.983  11.328   6.284 -0.4451  0.4073  0.2899
41242SOL     OW29045   4.044   1.470   0.481  0.9536  0.5180  0.0739
41242SOL    HW129046   4.004   1.500   0.562  2.4149 -1.3643  1.5745
41242SOL    HW229047   4.020   1.377   0.475 -0.0654  0.8354 -2.2997
41243SOL     OW29048   4.628   6.631   9.959 -0.3113  0.0843  0.5053
41243SOL    HW129049   4.590   6.699   9.904  1.8613 -0.1088 -1.3815
41243SOL    HW229050   4.556   6.603  10.016 -2.2369  1.4343 -1.1157
41244SOL     OW29051   7.724   1.564   2.485 -0.2453  0.1630 -0.1407
41244SOL    HW129052   7.751   1.533   2.571 -1.4021 -3.7826 -1.0079
41244SOL    HW229053   7.791   1.532   2.425 -0.6813  0.7544 -0.9659
41245SOL     OW29054   7.565   9.995   0.373  0.0872 -0.7664  0.1731
41245SOL    HW129055   7.503   9.945   0.427  0.9357 -1.0244  0.9317
41245SOL    HW229056   7.547   9.966   0.283 -1.4582 -0.2066  0.2788
41246SOL     OW29057   7.460   5.600   9.080 -0.4068  0.4289 -0.3250
41246SOL    HW129058   7.457   5.509   9.106 -1.9191  0.7222  0.6187
41246SOL    HW229059   7.548   5.629   9.104 -0.1396 -0.5903 -0.0270
41247SOL     OW29060   1.843  11.569   5.819 -0.3905  0.1718  0.0068
41247SOL    HW129061   1.850  11.476   5.843 -0.5561 -0.5660 -2.5102
41247SOL    HW229062   1.916  11.611   5.864 -0.2448 -1.1710  1.1071
41248SOL     OW29063   5.134   0.945   6.761 -0.3422 -0.0217 -0.1154
41248SOL    HW129064   5.210   0.991   6.797 -0.7012  0.7173 -0.2737
41248SOL    HW229065   5.157   0.853   6.766  0.5978  0.1966 -0.2388
41249SOL     OW29066  10.782   3.613   6.840 -0.2707 -0.8437  0.1588
41249SOL    HW129067  10.824   3.532   6.811 -1.1935 -1.3944  0.2999
41249SOL    HW229068  10.786   3.671   6.764 -1.5002 -1.8007 -0.6697
41250SOL     OW29069  10.066   8.474   1.209 -0.7320 -0.6877  0.0661
41250SOL    HW129070  10.023   8.549   1.169  1.2383  1.5196  1.8171
41250SOL    HW229071  10.024   8.464   1.294  1.2084  0.7338  1.2872
41251SOL     OW29072   2.849   0.323   3.465  0.2027  0.8266  0.2647
41251SOL    HW129073   2.937   0.291   3.446  0.7691  1.3491  1.8614
41251SOL    HW229074   2.845   0.409   3.423  0.2742  0.6202 -0.1784
41252SOL     OW29075   6.696   6.456   8.120  0.1285  0.4787  0.2393
41252SOL    HW129076   6.645   6.392   8.069  2.2840 -2.4646  1.4912
41252SOL    HW229077   6.780   6.461   8.076  0.1602  2.2220  0.4253
41253SOL     OW29078   3.605   8.007   2.630 -0.6968  0.1728 -0.2671
41253SOL    HW129079   3.527   8.054   2.599 -0.9424 -0.9488 -1.4630
41253SOL    HW229080   3.629   8.051   2.711 -1.2758  1.9485 -0.9969
41254SOL     OW29081  11.787   8.708   7.797  0.3627 -0.1455 -0.1261
41254SOL    HW129082  11.797   8.685   7.704 -0.0300 -1.0638  0.0397
41254SOL    HW229083  11.766   8.801   7.797 -1.8591 -0.5752 -1.1365
41255SOL     OW29084   8.741  11.816   7.804  0.0527 -0.4607  0.6090
41255SOL    HW129085   8.783  11.882   7.749 -1.8442  1.3706  1.2162
41255SOL    HW229086   8.753  11.848   7.893 -1.0077 -0.8527  0.9045
41256SOL     OW29087  10.544   1.288  10.335 -0.2359  0.0446 -0.0762
41256SOL    HW129088  10.497   1.206  10.347 -1.0700  0.7993  2.3927
41256SOL    HW229089  10.497   1.333  10.265  0.7047 -1.8139 -2.0340
41257SOL     OW29090   5.913   3.762   3.643 -0.4003 -0.7083  0.6075
41257SOL    HW129091   5.917   3.779   3.549 -0.8810  0.6569  0.8147
41257SOL    HW229092   6.005   3.761   3.671 -0.2761 -0.6239  0.2048
41258SOL     OW29093   5.153   0.420   4.204 -0.2895  0.2534  0.9975
41258SOL    HW129094   5.069   0.463   4.221  0.0436  1.0675  0.6089
41258SOL    HW229095   5.202   0.483   4.152  0.1868 -0.6264  0.3603
41259SOL     OW29096   4.074   7.885   1.699  0.1505 -0.0326  0.5064
41259SOL    HW129097   4.033   7.843   1.623 -0.9745  2.8150 -0.5596
41259SOL    HW229098   4.020   7.961   1.718  2.3318  1.2513  2.0445
41260SOL     OW29099   5.312  11.187   2.245 -0.2082  0.1806 -0.3944
41260SOL    HW129100   5.295  11.269   2.291  0.8722  0.9583 -1.3545
41260SOL    HW229101   5.404  11.191   2.220  0.0959 -1.6760  0.2202
41261SOL     OW29102   7.007   8.839  11.723  0.0078  0.4918  0.3178
41261SOL    HW129103   7.013   8.771  11.790 -0.3605  1.4144  1.3145
41261SOL    HW229104   7.074   8.903  11.747  0.6449  0.2838 -0.8543
41262SOL     OW29105   2.871  11.213   0.974  0.3769  0.8150  0.2203
41262SOL    HW129106   2.959  11.224   0.940 -1.2455  0.8070 -4.6889
41262SOL    HW229107   2.861  11.118   0.986  0.7895  0.7534  0.0899
41263SOL     OW29108   6.283   9.702   7.861 -0.0048  0.4887  0.5078
41263SOL    HW129109   6.201   9.691   7.908 -0.9783 -0.5374 -1.2966
41263SOL    HW229110   6.343   9.639   7.901 -1.3904 -1.7643 -0.7465
41264SOL     OW29111  10.690   5.051   4.213  0.1856 -0.1762 -0.5268
41264SOL    HW129112  10.635   4.987   4.259 -0.6740 -0.6040 -2.0852
41264SOL    HW229113  10.775   5.044   4.256 -1.2242  1.5619  2.9876
41265SOL     OW29114  10.683   9.016   3.291 -0.1498 -0.0300  0.2963
41265SOL    HW129115  10.634   8.960   3.232 -0.4952  1.6215 -1.0681
41265SOL    HW229116  10.773   8.984   3.286 -0.6954 -1.8494  1.3218
41266SOL     OW29117   7.514   3.322   1.368 -0.2328 -0.0174 -0.5653
41266SOL    HW129118   7.541   3.299   1.456 -0.3036 -3.0338 -1.2273
41266SOL    HW229119   7.447   3.390   1.380 -0.2098 -0.3157  1.6504
41267SOL     OW29120   8.106   5.470  11.334  0.0108 -0.3247  0.2501
41267SOL    HW129121   8.139   5.411  11.267 -4.6196  0.0914 -2.8567
41267SOL    HW229122   8.124   5.558  11.300 -0.5892 -0.0746  0.5485
41268SOL     OW29123   8.095   3.457   0.168 -0.0730 -0.3446  0.3062
41268SOL    HW129124   8.014   3.414   0.198 -0.5947  0.9935  0.9037
41268SOL    HW229125   8.086   3.460   0.072  0.4200 -2.3674  0.1570
41269SOL     OW29126   3.502   8.380   2.065 -0.1416  0.6886 -0.0568
41269SOL    HW129127   3.452   8.341   2.136  1.2467  0.7202  0.9809
41269SOL    HW229128   3.455   8.353   1.985 -1.8031  0.7678  0.8500
41270SOL     OW29129   4.330  10.634  11.315 -0.6787 -0.1301  0.7738
41270SOL    HW129130   4.292  10.600  11.234  1.0468  1.2091 -0.6831
41270SOL    HW229131   4.255  10.652  11.372 -1.7995 -4.1480  0.8294
41271SOL     OW29132  10.182   8.684   8.301  0.3877 -0.4284 -0.8803
41271SOL    HW129133  10.172   8.738   8.222 -0.2676  0.6004 -0.1208
41271SOL    HW229134  10.182   8.747   8.373  0.9918 -1.3513 -0.0458
41272SOL     OW29135   8.425   3.175   0.726  0.1288  0.0710 -0.0424
41272SOL    HW129136   8.402   3.130   0.644  0.4337 -3.3360  1.5815
41272SOL    HW229137   8.359   3.146   0.789  0.5750  1.6825  1.2360
41273SOL     OW29138   4.005   5.744  10.921  0.2674  0.1657 -0.1098
41273SOL    HW129139   3.931   5.796  10.889  1.8996  2.2831 -0.5894
41273SOL    HW229140   4.078   5.766  10.864  1.0681 -2.7903 -0.4074
41274SOL     OW29141   9.363   4.007   7.557 -0.2954 -0.0395  0.0574
41274SOL    HW129142   9.346   3.985   7.465  0.2015 -1.0192  0.1902
41274SOL    HW229143   9.281   3.987   7.602 -0.6154  0.6583 -0.1949
41275SOL     OW29144  10.270   7.892   8.092 -0.0838 -0.7293 -0.3396
41275SOL    HW129145  10.184   7.925   8.067 -0.1053 -1.9442 -2.0577
41275SOL    HW229146  10.317   7.881   8.009  0.7181 -2.7627  0.3176
41276SOL     OW29147   6.747   6.032   7.751  0.4991  0.7505 -0.0381
41276SOL    HW129148   6.737   6.126   7.736  1.8271  0.9669  0.2804
41276SOL    HW229149   6.683   6.012   7.819  0.7275  1.5923  0.4452
41277SOL     OW29150   5.140   3.558   7.440 -0.2581 -0.2083 -0.1033
41277SOL    HW129151   5.195   3.489   7.477 -1.8102 -0.0925  2.6866
41277SOL    HW229152   5.060   3.513   7.414 -0.3475  0.2051 -0.5622
41278SOL     OW29153   3.587   7.614   2.830 -0.3203 -0.2454 -0.0209
41278SOL    HW129154   3.654   7.682   2.829  1.1160 -1.4398  3.0633
41278SOL    HW229155   3.518   7.650   2.885 -0.7432 -0.3303 -0.4824
41279SOL     OW29156   4.351   8.140   4.707  0.2331  0.1998 -0.1452
41279SOL    HW129157   4.355   8.170   4.797  2.3876 -2.0238  0.6113
41279SOL    HW229158   4.258   8.149   4.682 -0.2754  1.5084  1.9862
41280SOL     OW29159   7.516   0.791   2.887  0.3731 -0.3489 -0.2730
41280SOL    HW129160   7.436   0.810   2.839 -0.1294 -1.8999 -0.0889
41280SOL    HW229161   7.488   0.777   2.977  0.7312 -1.6332 -0.3432
41281SOL     OW29162   7.207   8.170   2.784  0.1879 -0.7650  0.5525
41281SOL    HW129163   7.142   8.209   2.842 -1.0687 -1.3524 -0.4009
41281SOL    HW229164   7.191   8.076   2.790  0.0328 -0.8328 -0.7257
41282SOL     OW29165  10.196  10.848   1.864 -0.0665 -0.2629 -0.0933
41282SOL    HW129166  10.184  10.923   1.923  2.5920 -1.4483  2.2299
41282SOL    HW229167  10.250  10.882   1.793 -0.3239  0.4217  0.0317
41283SOL     OW29168   6.110   8.873   2.783  0.3706 -0.5401 -0.1678
41283SOL    HW129169   6.195   8.874   2.826  0.0248 -0.2572  0.5311
41283SOL    HW229170   6.047   8.859   2.854 -0.2088 -0.1688 -0.5950
41284SOL     OW29171   3.188  11.436   0.150 -0.0711  0.0991 -0.2577
41284SOL    HW129172   3.219  11.509   0.203  3.0271 -2.1124  1.2725
41284SOL    HW229173   3.200  11.465   0.060 -0.5837  2.0719  0.2681
41285SOL     OW29174  11.321   7.702   7.577 -0.2658  0.7049  0.6248
41285SOL    HW129175  11.239   7.662   7.549  0.2591 -0.6099  0.8954
41285SOL    HW229176  11.304   7.731   7.667 -0.8528  1.7342  0.2033
41286SOL     OW29177   0.366   6.336   2.982 -0.2260 -0.3378  0.1921
41286SOL    HW129178   0.357   6.284   2.902  0.1331  1.7013 -1.2507
41286SOL    HW229179   0.460   6.348   2.992 -0.3423  0.9114 -0.1135
41287SOL     OW29180   4.449  10.913  11.784 -0.3520  0.1514  0.1928
41287SOL    HW129181   4.493  10.862  11.852 -1.7578 -0.2371  0.8374
41287SOL    HW229182   4.425  10.849  11.717  1.1946  0.5563 -0.8297
41288SOL     OW29183   0.720   9.225   4.297 -0.4183  0.4813  0.2911
41288SOL    HW129184   0.815   9.233   4.296 -0.2983 -0.5370 -1.3871
41288SOL    HW229185   0.696   9.236   4.389  1.5426 -1.4699  1.1310
41289SOL     OW29186  11.287   2.331   7.319  0.0122 -0.1114 -0.0092
41289SOL    HW129187  11.323   2.393   7.383  0.6898  1.2561 -1.6388
41289SOL    HW229188  11.364   2.289   7.281 -0.0400  1.8606 -2.5734
41290SOL     OW29189   1.550   8.157  10.831 -0.0757  0.2238 -0.8201
41290SOL    HW129190   1.544   8.233  10.890 -1.1493 -0.5617  0.1315
41290SOL    HW229191   1.506   8.186  10.751  1.5475  1.3641 -1.3488
41291SOL     OW29192   9.385   3.753   0.849  0.0786  0.1088  0.3284
41291SOL    HW129193   9.362   3.751   0.756 -0.3143  0.2105  0.4184
41291SOL    HW229194   9.354   3.669   0.883 -0.0614  0.2006  0.4288
41292SOL     OW29195   0.440   3.919   6.307 -0.6690 -0.7799 -0.2023
41292SOL    HW129196   0.441   3.887   6.397 -0.4430 -0.2167  0.0015
41292SOL    HW229197   0.356   3.889   6.272 -0.7455 -1.0267  0.1848
41293SOL     OW29198   3.101   7.274   8.042  0.0961 -0.5873 -0.0971
41293SOL    HW129199   3.182   7.278   7.990  0.3652 -1.4454  0.2316
41293SOL    HW229200   3.073   7.182   8.035  0.4690 -0.8823  1.7525
41294SOL     OW29201   3.715   2.715   9.293 -0.3511 -0.2533  0.1787
41294SOL    HW129202   3.639   2.661   9.314  1.4349 -2.0568  2.4141
41294SOL    HW229203   3.767   2.717   9.373  2.4807  0.0604 -1.5225
41295SOL     OW29204   6.041   7.895   4.800 -0.4286  0.6730 -0.2832
41295SOL    HW129205   5.953   7.885   4.837 -0.4618  0.9702 -0.2833
41295SOL    HW229206   6.051   7.818   4.744  0.0788 -0.4303  1.2339
41296SOL     OW29207   7.506  10.798  11.056 -0.1029 -0.0076 -0.6196
41296SOL    HW129208   7.531  10.758  10.973  3.4052 -1.3488  0.8564
41296SOL    HW229209   7.589  10.816  11.100 -1.7502 -0.0336  2.8880
41297SOL     OW29210   1.432   3.643   3.467  0.2982  0.3512  0.4494
41297SOL    HW129211   1.452   3.671   3.378 -0.5798  0.8692  0.4025
41297SOL    HW229212   1.473   3.709   3.523 -1.3690  1.5377  0.3482
41298SOL     OW29213   1.298  11.235   4.226 -0.2001 -0.0301  0.0135
41298SOL    HW129214   1.293  11.191   4.140  0.7571  1.3806 -0.8042
41298SOL    HW229215   1.345  11.172   4.281 -1.0359 -1.0625 -0.4048
41299SOL     OW29216  11.794   6.404  10.735 -0.2667  0.3848  0.2817
41299SOL    HW129217  11.727   6.471  10.722 -1.7426 -1.1042 -0.0852
41299SOL    HW229218  11.799   6.393  10.830 -1.6050 -0.4711  0.2825
41300SOL     OW29219   8.642   9.558   7.767  0.0646  0.2303 -0.2113
41300SOL    HW129220   8.577   9.562   7.838  0.7590  2.6194  0.3627
41300SOL    HW229221   8.695   9.636   7.778  2.2692 -0.9815 -1.4521
41301SOL     OW29222   3.964   0.375   3.454 -0.4061 -0.0290  0.0817
41301SOL    HW129223   4.008   0.423   3.384  0.8323  0.3738  1.1050
41301SOL    HW229224   4.016   0.296   3.466  0.1715  0.5204  1.4060
41302SOL     OW29225   2.271   6.370  11.070 -0.1828 -0.2252 -0.4318
41302SOL    HW129226   2.330   6.413  11.131 -3.2669  2.5160  0.9545
41302SOL    HW229227   2.311   6.382  10.984  1.7151  0.5729  0.5188
41303SOL     OW29228   2.938  10.566   5.080  0.2674  0.1025 -0.0079
41303SOL    HW129229   2.956  10.475   5.103 -1.4528 -0.0257  0.9958
41303SOL    HW229230   2.921  10.564   4.986 -4.8033 -1.6449  0.6452
41304SOL     OW29231   8.760   8.627   6.545  0.2903 -0.1195 -0.1181
41304SOL    HW129232   8.834   8.687   6.551  0.2102 -0.0149 -0.1744
41304SOL    HW229233   8.704   8.665   6.478 -0.1104  0.1229  0.3478
41305SOL     OW29234   2.280   0.929   8.833  0.3484  0.2944  0.4280
41305SOL    HW129235   2.290   0.949   8.927  1.9266  0.5225  0.2366
41305SOL    HW229236   2.244   0.841   8.831 -2.4021  1.2818  1.2438
41306SOL     OW29237   8.602   9.987   3.944 -0.2092  0.2365  0.0513
41306SOL    HW129238   8.581   9.903   3.985 -1.6157 -0.6713 -2.3229
41306SOL    HW229239   8.697   9.982   3.928  0.3819  0.5735  2.8240
41307SOL     OW29240   5.803   9.831   4.573  0.0582  0.0871  0.1420
41307SOL    HW129241   5.797   9.860   4.664 -0.7586  0.6288 -0.0715
41307SOL    HW229242   5.778   9.739   4.576 -0.1827  0.1604  0.4430
41308SOL     OW29243   9.840   3.278   7.769 -0.2053 -0.4710  0.2706
41308SOL    HW129244   9.904   3.228   7.818  3.2871  2.0431 -1.3331
41308SOL    HW229245   9.814   3.219   7.697  2.5517 -0.6692 -0.6694
41309SOL     OW29246   6.778   8.249  10.814 -0.1460  0.0840 -0.1659
41309SOL    HW129247   6.814   8.222  10.899  0.3900 -1.0472 -0.7343
41309SOL    HW229248   6.765   8.167  10.766 -0.8945  0.6772 -1.0075
41310SOL     OW29249   3.236  10.452  11.681 -0.5578  0.2921 -0.2824
41310SOL    HW129250   3.289  10.532  11.689 -1.0827  0.5773  0.4871
41310SOL    HW229251   3.300  10.381  11.679 -0.1303  0.6518  0.3410
41311SOL     OW29252   9.801   2.916   1.972 -0.0520  0.0308  0.1764
41311SOL    HW129253   9.720   2.870   1.993 -0.3009  0.1090 -0.5955
41311SOL    HW229254   9.858   2.849   1.936  0.2244 -0.0212  0.7065
41312SOL     OW29255  11.188   1.979  11.520  0.2093  0.3982  0.5574
41312SOL    HW129256  11.197   1.884  11.513  0.6467  0.1903  3.0919
41312SOL    HW229257  11.113   2.000  11.464 -0.3219 -1.5353  0.4797
41313SOL     OW29258   9.793   5.654   4.366  0.0434  0.3159  0.3339
41313SOL    HW129259   9.700   5.646   4.386 -0.4855  1.6522 -1.2901
41313SOL    HW229260   9.804   5.602   4.286  0.8621 -0.4176  0.9120
41314SOL     OW29261   1.272  11.776   2.002  0.0674  0.3316  0.6028
41314SOL    HW129262   1.302  11.685   1.991  0.9213  0.8609 -2.3240
41314SOL    HW229263   1.178  11.772   1.985  0.5207  0.2834 -2.4974
41315SOL     OW29264  10.976   1.010   5.024 -0.1246 -0.0201 -0.0377
41315SOL    HW129265  10.960   0.925   5.066  2.7924 -0.3884  0.5599
41315SOL    HW229266  11.043   1.051   5.078  1.9194  0.6253 -2.8492
41316SOL     OW29267   6.674   8.051   4.639 -0.1491  0.3846 -0.4792
41316SOL    HW129268   6.642   8.093   4.718  1.4547 -1.1979  1.1054
41316SOL    HW229269   6.767   8.073   4.636  0.0867 -0.6419 -1.2037
41317SOL     OW29270   4.663   5.120   8.798 -0.0178  0.3100  0.2318
41317SOL    HW129271   4.722   5.133   8.724 -0.5748 -1.1286 -0.5055
41317SOL    HW229272   4.605   5.195   8.796  2.0124  2.0153  1.2573
41318SOL     OW29273   4.208   3.990   3.135 -0.0888  0.3275  0.5095
41318SOL    HW129274   4.266   3.986   3.212 -0.2747  0.0065  0.6355
41318SOL    HW229275   4.120   3.997   3.172 -0.3932 -1.9400  0.4058
41319SOL     OW29276   5.868   5.721   5.366  0.0574 -0.1776  0.0130
41319SOL    HW129277   5.831   5.667   5.436 -0.1379 -2.4281 -1.6967
41319SOL    HW229278   5.816   5.802   5.369  0.0084 -0.2151  2.3568
41320SOL     OW29279   1.682   2.829   4.891 -0.1476  0.1426 -0.2784
41320SOL    HW129280   1.756   2.842   4.831 -2.0721  0.1665 -2.7977
41320SOL    HW229281   1.703   2.749   4.939  2.2035  0.9963  0.2612
41321SOL     OW29282   9.011   8.972   0.155  0.0961 -0.0717 -0.1206
41321SOL    HW129283   9.034   9.056   0.194  0.1219 -0.7300  1.3856
41321SOL    HW229284   8.923   8.954   0.189 -1.4789  0.9833 -3.3196
41322SOL     OW29285   7.469   7.657   1.062  0.5339  0.6941 -0.0235
41322SOL    HW129286   7.540   7.593   1.067 -0.0958 -0.3827 -2.8412
41322SOL    HW229287   7.395   7.608   1.025 -1.1260  2.2233  1.0960
41323SOL     OW29288  10.391   0.777   0.044 -0.3633 -0.0091  0.3634
41323SOL    HW129289  10.304   0.782   0.084 -0.5154 -1.4905  0.2808
41323SOL    HW229290  10.386   0.836  -0.031 -1.6521 -0.8447 -0.2441
41324SOL     OW29291   9.897   8.719   9.764  0.0020  0.1123 -0.0487
41324SOL    HW129292   9.829   8.761   9.712 -0.0860  1.9059  1.4278
41324SOL    HW229293   9.979   8.750   9.724 -0.0633  1.6152  0.9066
41325SOL     OW29294   7.717  10.426   3.134 -0.2654 -0.1801 -0.5768
41325SOL    HW129295   7.708  10.470   3.049 -1.2898  0.2395 -0.2647
41325SOL    HW229296   7.647  10.463   3.188 -0.4030 -1.3316  0.0677
41326SOL     OW29297   4.129  10.192   7.318  0.4680  0.0255 -0.2815
41326SOL    HW129298   4.185  10.213   7.392  0.8530  1.3266 -0.9030
41326SOL    HW229299   4.179  10.125   7.269  0.9558  0.3426 -0.2260
41327SOL     OW29300  10.571   8.512   5.232  0.0456 -0.0399 -0.4940
41327SOL    HW129301  10.618   8.452   5.174  1.2074  0.9472 -0.5964
41327SOL    HW229302  10.602   8.490   5.320 -0.3040 -0.2624 -0.4217
41328SOL     OW29303   6.291   0.752   7.288 -0.0611 -0.2951  0.2866
41328SOL    HW129304   6.248   0.667   7.286  0.4297 -0.5826  1.4584
41328SOL    HW229305   6.247   0.799   7.358  0.2576  0.1060  0.2207
41329SOL     OW29306   3.534   7.117   4.890 -0.3157 -0.4261  0.1328
41329SOL    HW129307   3.506   7.141   4.978 -0.7784 -0.5634  0.0283
41329SOL    HW229308   3.597   7.185   4.865  0.5385 -0.9039  0.9295
41330SOL     OW29309   4.801   7.482   6.930  0.5534 -0.5575  0.2817
41330SOL    HW129310   4.797   7.509   7.022  2.3269  1.6456 -0.1947
41330SOL    HW229311   4.797   7.565   6.881  1.6593 -1.5146 -1.5372
41331SOL     OW29312  11.007  11.498   0.121  0.1440  0.1746  0.0100
41331SOL    HW129313  10.993  11.593   0.116 -2.8516 -0.1285  0.6307
41331SOL    HW229314  10.942  11.461   0.061  1.4716 -1.5015 -0.4608
41332SOL     OW29315   1.152   4.672   0.224 -0.2282 -0.1445  0.4643
41332SOL    HW129316   1.124   4.651   0.135 -0.3306 -1.6243  0.8179
41332SOL    HW229317   1.216   4.742   0.213 -2.1382  1.5425 -0.5452
41333SOL     OW29318   2.874   8.160   3.605  0.1735  0.7378 -0.0583
41333SOL    HW129319   2.891   8.154   3.699 -0.2933  1.2561  0.0657
41333SOL    HW229320   2.954   8.196   3.568  0.7320 -0.4028 -0.0021
41334SOL     OW29321   0.759   8.230   9.019 -0.0813 -0.0222  0.0352
41334SOL    HW129322   0.768   8.292   8.946  0.8031  0.0884  0.2242
41334SOL    HW229323   0.681   8.179   8.998 -1.6676  2.0390  0.5281
41335SOL     OW29324   4.645   1.124  10.868  0.2523 -0.1627  0.0114
41335SOL    HW129325   4.587   1.188  10.909 -0.3368 -0.5562 -0.1841
41335SOL    HW229326   4.630   1.136  10.774 -0.0440 -0.7408 -0.0220
41336SOL     OW29327   2.521   3.869  11.042  0.1947  0.5292  0.1542
41336SOL    HW129328   2.484   3.924  10.972  0.0157  1.2037  0.7700
41336SOL    HW229329   2.449   3.813  11.069  0.5180 -0.4045 -0.8362
41337SOL     OW29330   7.908   0.383   2.509 -0.4837  0.1584  0.7968
41337SOL    HW129331   7.897   0.303   2.459  0.0348  0.3006  0.4547
41337SOL    HW229332   7.987   0.423   2.475 -0.7109  0.7977  0.9945
41338SOL     OW29333   0.470  10.791   7.704 -0.1667  0.3536 -0.2527
41338SOL    HW129334   0.504  10.797   7.615  0.0803  0.8378 -0.1321
41338SOL    HW229335   0.383  10.829   7.700 -0.4365 -0.2856 -0.4321
41339SOL     OW29336   4.897   8.575   3.668  0.1417  0.1874  0.3318
41339SOL    HW129337   4.858   8.489   3.655  1.4373 -0.5685  1.2115
41339SOL    HW229338   4.903   8.584   3.763  0.2854  1.1276  0.2372
41340SOL     OW29339   6.273   4.344   6.373 -0.2105  0.3897  0.4676
41340SOL    HW129340   6.228   4.422   6.340  0.7808  1.1382  0.8487
41340SOL    HW229341   6.203   4.278   6.382 -0.6409  0.2917 -2.5834
41341SOL     OW29342   1.817   9.281   0.811  0.3479  0.5512  0.0824
41341SOL    HW129343   1.896   9.256   0.860  0.3397  1.4286  0.5508
41341SOL    HW229344   1.825   9.375   0.798  0.5521  0.2949 -1.9869
41342SOL     OW29345   1.257  11.418   4.721  0.5214 -0.1693 -0.0712
41342SOL    HW129346   1.288  11.459   4.802 -0.3486 -0.2908  0.3395
41342SOL    HW229347   1.332  11.369   4.687  1.6642  1.8872 -0.6736
41343SOL     OW29348   8.157  10.997   9.868 -0.2760 -0.0850 -0.4806
41343SOL    HW129349   8.225  11.020   9.931 -0.3289  0.5359 -0.6369
41343SOL    HW229350   8.114  10.921   9.905 -1.2555  1.1115  0.9537
41344SOL     OW29351   1.415   2.493  11.085 -0.1650 -0.2634  0.1081
41344SOL    HW129352   1.432   2.586  11.099  0.3964 -0.5666  1.5569
41344SOL    HW229353   1.327   2.479  11.120  0.0481 -0.4152  0.5965
41345SOL     OW29354   6.474   2.115  10.497  0.3521 -0.4486  0.2400
41345SOL    HW129355   6.468   2.193  10.552  1.7051 -0.4766  0.4501
41345SOL    HW229356   6.461   2.148  10.408 -3.0484 -0.5587  0.5498
41346SOL     OW29357   0.570   6.257   8.707 -0.1918 -0.3518  0.2891
41346SOL    HW129358   0.593   6.183   8.650  1.5278  1.0094 -0.8890
41346SOL    HW229359   0.488   6.290   8.670 -0.3071 -0.8853  0.0497
41347SOL     OW29360   6.723   7.393  10.032 -0.2037  0.0834 -0.5678
41347SOL    HW129361   6.772   7.452   9.975  2.3300 -2.8009 -1.6410
41347SOL    HW229362   6.669   7.340   9.973 -0.0018 -0.8073  0.0181
41348SOL     OW29363   2.123   8.126   6.186 -0.6835 -0.3946 -0.6650
41348SOL    HW129364   2.093   8.065   6.254 -1.8172 -0.4511 -1.1979
41348SOL    HW229365   2.217   8.132   6.200 -0.6199 -1.8744 -0.2807
41349SOL     OW29366   6.940   5.612   2.929  0.2546 -0.0456 -0.3538
41349SOL    HW129367   6.914   5.520   2.923  0.2716 -0.0143 -1.0321
41349SOL    HW229368   6.915   5.650   2.845  0.2742  0.5680 -0.0929
41350SOL     OW29369   9.139   6.996   1.134 -0.5824 -0.6034  0.1604
41350SOL    HW129370   9.208   7.039   1.085 -0.4121  1.6449  2.1811
41350SOL    HW229371   9.076   6.968   1.068  0.9204 -0.2355 -1.5019
41351SOL     OW29372   4.364   2.318   5.207  0.1963  0.7778 -0.0145
41351SOL    HW129373   4.389   2.288   5.295  0.2690  0.8188 -0.0212
41351SOL    HW229374   4.274   2.349   5.218 -1.0905 -2.3631 -0.6716
41352SOL     OW29375   3.888   9.696   3.725  0.1856  0.2364  0.0826
41352SOL    HW129376   3.974   9.693   3.684 -0.1675  0.9948 -0.7551
41352SOL    HW229377   3.903   9.736   3.811  0.4495  1.8892 -0.7099
41353SOL     OW29378   6.372   3.410   2.193  0.1296  0.1861 -0.5827
41353SOL    HW129379   6.446   3.351   2.182  0.8765  0.5761  1.6927
41353SOL    HW229380   6.362   3.418   2.288 -2.9255  0.0865 -0.8019
41354SOL     OW29381   4.101  10.620   4.816  0.2385 -0.7855 -0.4857
41354SOL    HW129382   4.027  10.584   4.866 -0.2353 -1.8800 -1.9088
41354SOL    HW229383   4.096  10.714   4.832  0.0561 -1.0749  1.4245
41355SOL     OW29384   7.568   9.716  11.414  0.4228  0.0353  0.2817
41355SOL    HW129385   7.558   9.762  11.498  0.3635 -0.8827  0.7920
41355SOL    HW229386   7.549   9.783  11.348 -1.1378  0.3803  1.0295
41356SOL     OW29387   8.898   8.476   1.493 -0.3229  0.4077  0.0388
41356SOL    HW129388   8.822   8.530   1.513 -0.1398  1.1493 -1.2032
41356SOL    HW229389   8.939   8.461   1.579 -1.0100  1.2682  0.5375
41357SOL     OW29390   5.813   9.849   2.319  0.1248 -0.4347  0.0002
41357SOL    HW129391   5.779   9.873   2.232  2.6067 -0.2309 -0.9914
41357SOL    HW229392   5.891   9.904   2.330 -0.0124 -0.6224  2.3030
41358SOL     OW29393   8.668   4.116   2.614 -0.5949  0.2942 -0.0959
41358SOL    HW129394   8.655   4.095   2.707  2.8236  1.8230  0.8914
41358SOL    HW229395   8.639   4.207   2.607  0.6514  0.7014 -0.0972
41359SOL     OW29396  11.558   3.059   7.593  0.0601  0.2146 -0.2983
41359SOL    HW129397  11.478   3.037   7.641  0.2530 -0.6894 -0.3681
41359SOL    HW229398  11.582   3.146   7.623  0.2089 -0.3529  1.3123
41360SOL     OW29399   6.856   3.353   0.553 -1.1302  0.3962  0.9101
41360SOL    HW129400   6.841   3.447   0.545 -1.7383  0.2558  0.2461
41360SOL    HW229401   6.945   3.345   0.585 -0.7471  1.1853  0.0694
41361SOL     OW29402   4.322   9.725   7.053  0.1166  0.3403 -0.1363
41361SOL    HW129403   4.260   9.797   7.060 -0.0786  0.1601  0.0130
41361SOL    HW229404   4.386   9.741   7.123 -0.9531 -0.6120  1.1224
41362SOL     OW29405   5.778  10.526   7.182  0.7177 -0.4449  0.1108
41362SOL    HW129406   5.696  10.518   7.133  1.2223 -2.3115 -0.4780
41362SOL    HW229407   5.752  10.515   7.273  0.1950  0.0132  0.0279
41363SOL     OW29408   0.072   9.953  11.460 -1.0365  0.2459 -0.4107
41363SOL    HW129409   0.080   9.876  11.404 -1.1887  0.0661 -0.1887
41363SOL    HW229410   0.068   9.918  11.549  0.3435  0.5852 -0.1935
41364SOL     OW29411   1.226   1.639   2.002  0.1389 -0.2786  0.3420
41364SOL    HW129412   1.225   1.733   1.990 -0.1924 -0.1517  1.2463
41364SOL    HW229413   1.318   1.618   2.017  0.4371 -0.3376 -1.4540
41365SOL     OW29414   5.005   4.344  11.407 -0.1564  0.1468  0.3132
41365SOL    HW129415   4.913   4.318  11.403  0.1727 -1.1784  0.9341
41365SOL    HW229416   5.053   4.266  11.380  0.7841  0.9722 -0.4789
41366SOL     OW29417  10.563   6.863   9.244  0.0297 -0.0392  0.2419
41366SOL    HW129418  10.487   6.810   9.217 -1.1101  0.7358  1.7665
41366SOL    HW229419  10.553   6.872   9.338  3.0736 -1.4439  0.8174
41367SOL     OW29420   0.477   3.347   9.432  0.7191 -0.1319 -0.5749
41367SOL    HW129421   0.419   3.309   9.366  0.6176  0.2953 -0.7355
41367SOL    HW229422   0.542   3.396   9.381  0.7389  0.0601 -0.3673
41368SOL     OW29423   3.309   8.874   4.165  0.5166 -0.0643  0.2934
41368SOL    HW129424   3.329   8.950   4.111  1.3980  0.1072  0.8384
41368SOL    HW229425   3.338   8.799   4.113 -0.7091 -0.0713 -0.4078
41369SOL     OW29426   4.071  10.670   7.283  0.1901  0.0774  0.5888
41369SOL    HW129427   4.107  10.581   7.284  0.7010  0.2506 -0.7658
41369SOL    HW229428   4.008  10.669   7.211 -0.2665  0.6492  0.9733
41370SOL     OW29429   3.153   1.249   1.472 -0.0260 -0.4562  0.6299
41370SOL    HW129430   3.166   1.211   1.385  1.3365 -2.2840  1.5775
41370SOL    HW229431   3.148   1.343   1.456  2.8891 -0.4998 -1.1836
41371SOL     OW29432   5.968   3.137   1.424 -0.0474 -0.7887  0.4715
41371SOL    HW129433   6.055   3.153   1.388  0.3372  0.3391  1.8031
41371SOL    HW229434   5.909   3.144   1.348  0.9756 -1.2489 -0.3881
41372SOL     OW29435  10.434   5.693   6.846  0.5409 -0.1863 -1.1346
41372SOL    HW129436  10.471   5.776   6.816  0.3351  0.1794 -0.4211
41372SOL    HW229437  10.442   5.634   6.772  1.7230  0.1488 -1.2981
41373SOL     OW29438   1.825   7.128   5.325  1.1348 -0.3127  0.5361
41373SOL    HW129439   1.837   7.033   5.313 -0.7526 -0.6124  0.5794
41373SOL    HW229440   1.747   7.134   5.381  1.1637  1.2698  0.4275
41374SOL     OW29441   4.653   7.767  11.534 -0.0123  0.2985  0.4293
41374SOL    HW129442   4.702   7.804  11.460  0.4501  0.9745  1.0630
41374SOL    HW229443   4.570   7.815  11.534 -1.0485 -1.3542 -1.1010
41375SOL     OW29444   5.943   6.376   9.792  0.0409 -0.2310 -0.2705
41375SOL    HW129445   6.014   6.314   9.776  0.5883  0.2555  0.1880
41375SOL    HW229446   5.930   6.420   9.708  0.6023 -0.0092 -0.2488
41376SOL     OW29447   0.043   0.020   3.030 -0.0340 -0.2599 -0.3950
41376SOL    HW129448   0.099   0.086   2.989  0.5240 -1.3817 -1.4990
41376SOL    HW229449  -0.028   0.006   2.967 -0.7054 -0.0105  0.2834
41377SOL     OW29450  10.874   4.242   9.555 -0.1488 -0.0648 -0.1470
41377SOL    HW129451  10.935   4.293   9.502  1.2206 -1.1740  0.3107
41377SOL    HW229452  10.905   4.253   9.645 -1.0307 -0.1193  0.1810
41378SOL     OW29453   6.880  10.561   0.169 -0.7637  0.2320 -0.2154
41378SOL    HW129454   6.803  10.616   0.151 -0.0902  1.0756 -0.6312
41378SOL    HW229455   6.950  10.624   0.186 -1.2067 -0.3743  5.4904
41379SOL     OW29456   4.484   5.277  10.594  0.2227 -0.2894  0.0525
41379SOL    HW129457   4.411   5.304  10.538 -0.9595 -1.6004  0.8883
41379SOL    HW229458   4.547   5.349  10.588 -0.2684  0.0256 -2.1873
41380SOL     OW29459   9.662  10.396   8.471  0.1964  0.2141 -0.1258
41380SOL    HW129460   9.742  10.448   8.471  0.7197 -0.5664 -0.3588
41380SOL    HW229461   9.600  10.446   8.524  1.3706  0.0672  1.4610
41381SOL     OW29462   1.059   7.175   6.958  0.1626 -0.1329 -0.0923
41381SOL    HW129463   0.976   7.213   6.928  0.5167 -0.0304 -0.9709
41381SOL    HW229464   1.039   7.139   7.044 -0.4940  0.9521  0.2220
41382SOL     OW29465   6.847   7.063   8.478  0.2189  0.2988  0.6378
41382SOL    HW129466   6.759   7.091   8.455 -0.4590 -0.9841  1.4660
41382SOL    HW229467   6.843   6.967   8.476  1.6345  0.2079  0.5827
41383SOL     OW29468   8.362   7.877   3.798  0.1638  0.3279 -0.0282
41383SOL    HW129469   8.300   7.812   3.831 -2.0547  1.9222 -0.8283
41383SOL    HW229470   8.309   7.935   3.743  2.2003  2.3304 -0.0150
41384SOL     OW29471   6.177  10.072   7.408 -0.7193 -0.0816  0.4598
41384SOL    HW129472   6.150   9.980   7.412 -1.8760  0.2901  2.8974
41384SOL    HW229473   6.101  10.116   7.369 -1.2741  0.1701  1.7882
41385SOL     OW29474  10.928   7.604  11.806 -0.5974  0.0762 -0.0107
41385SOL    HW129475  10.984   7.679  11.823 -1.3563  0.7968 -0.6186
41385SOL    HW229476  10.930   7.594  11.711 -0.5656 -0.6327  0.0548
41386SOL     OW29477   0.200  11.255   0.396 -0.0646 -0.4774 -0.3281
41386SOL    HW129478   0.252  11.237   0.318  1.7418 -1.6453  1.0511
41386SOL    HW229479   0.109  11.251   0.366  0.5825 -0.7850 -2.3744
41387SOL     OW29480   5.472   3.341   9.446 -0.2634  0.1352 -0.4719
41387SOL    HW129481   5.469   3.431   9.413 -1.0958  0.3362  0.1169
41387SOL    HW229482   5.473   3.286   9.368 -1.6222  0.6160 -0.8544
41388SOL     OW29483   8.281   9.024   3.047 -0.5974  0.4379 -0.3305
41388SOL    HW129484   8.319   8.977   3.121 -2.4074  1.0895  1.1092
41388SOL    HW229485   8.258   8.956   2.984 -0.9488 -0.3750  0.6454
41389SOL     OW29486   3.069  10.586   8.954  0.7198 -0.1783  0.1622
41389SOL    HW129487   3.049  10.492   8.953  0.0350 -0.0829 -2.5796
41389SOL    HW229488   3.165  10.589   8.947  0.8525 -0.6298  1.4503
41390SOL     OW29489   6.589   4.440  10.276  0.5241 -0.3963 -0.1319
41390SOL    HW129490   6.578   4.348  10.296 -2.0382  0.0189  0.7691
41390SOL    HW229491   6.527   4.485  10.334  0.6919  1.7622 -1.5055
41391SOL     OW29492   4.170   8.085   2.138 -0.0439  0.3295  0.0654
41391SOL    HW129493   4.210   8.028   2.073  3.8299 -0.3629  2.7577
41391SOL    HW229494   4.172   8.172   2.098 -0.6676 -0.5032 -1.8681
41392SOL     OW29495   4.489  10.209   6.834 -0.1331  0.2797 -0.1673
41392SOL    HW129496   4.472  10.115   6.834 -0.4922  0.3153  1.2873
41392SOL    HW229497   4.429  10.245   6.769  0.3508 -0.5436 -1.0879
41393SOL     OW29498  11.100   0.630   2.306 -0.0206  0.0858 -0.3867
41393SOL    HW129499  11.055   0.605   2.387  0.6427  0.9037  0.2507
41393SOL    HW229500  11.133   0.718   2.323  0.7094  0.0036 -1.3030
41394SOL     OW29501   9.656   2.883   4.900  0.3024  0.0474  0.3474
41394SOL    HW129502   9.661   2.788   4.915 -0.4644 -0.1596 -0.6158
41394SOL    HW229503   9.741   2.906   4.864 -0.3827 -0.7996 -2.0242
41395SOL     OW29504   7.664  10.154   3.271  0.7436 -0.1143  0.0100
41395SOL    HW129505   7.748  10.155   3.316  0.0363 -0.2462  1.4267
41395SOL    HW229506   7.611  10.217   3.320 -0.4319 -1.1349  0.0920
41396SOL     OW29507  10.133   9.836  11.490  0.6479  0.5568  0.1350
41396SOL    HW129508  10.184   9.765  11.451  0.7502 -0.0433  1.3151
41396SOL    HW229509  10.114   9.895  11.417 -0.0129 -1.0089 -1.0031
41397SOL     OW29510   6.244   9.608   3.912  0.5007 -0.1992  0.3335
41397SOL    HW129511   6.207   9.621   3.999  0.4883  0.6303  0.2105
41397SOL    HW229512   6.169   9.618   3.853  0.0370 -2.9458  0.3130
41398SOL     OW29513   0.011   4.416   1.558 -0.0989  0.4766 -0.0226
41398SOL    HW129514  -0.044   4.491   1.578  0.2504  1.3578 -2.0830
41398SOL    HW229515  -0.019   4.347   1.618 -1.2055  1.8906  1.1143
41399SOL     OW29516   0.159   3.729   8.077  0.7443 -0.1526  0.2540
41399SOL    HW129517   0.183   3.707   7.986  0.6782 -0.8487  0.3940
41399SOL    HW229518   0.149   3.644   8.120 -0.1914  0.1455  0.6675
41400SOL     OW29519   0.343  10.131  11.329  0.5850  0.3112 -0.0469
41400SOL    HW129520   0.373  10.136  11.420  1.5689 -0.2802 -0.3176
41400SOL    HW229521   0.389  10.202  11.284 -0.3558  0.9802  0.0255
41401SOL     OW29522   5.237   5.765   0.330  0.2957  0.2478  0.1425
41401SOL    HW129523   5.261   5.776   0.238 -0.6488  1.5807  0.0158
41401SOL    HW229524   5.320   5.755   0.376  0.7479 -1.1177 -0.9096
41402SOL     OW29525  11.245   0.221   2.437  0.3077  0.0315 -0.5133
41402SOL    HW129526  11.206   0.270   2.510 -0.6225 -3.2867  1.4450
41402SOL    HW229527  11.180   0.228   2.367  0.1968  1.4975 -0.2972
41403SOL     OW29528   4.514  11.096   5.974 -0.3654  0.0666 -0.0991
41403SOL    HW129529   4.602  11.057   5.970 -1.1195 -1.9201  1.3230
41403SOL    HW229530   4.530  11.188   5.996  1.3982  0.1187 -1.3650
41404SOL     OW29531   8.299   4.251   0.520 -0.2577 -0.2233 -0.6303
41404SOL    HW129532   8.347   4.181   0.474 -0.0595 -0.5812  0.1119
41404SOL    HW229533   8.255   4.207   0.592  2.8343  0.8415  2.2023
41405SOL     OW29534   1.496   7.238   6.789 -0.2687 -0.1079  0.1733
41405SOL    HW129535   1.478   7.201   6.876 -1.0091 -0.1832 -0.0041
41405SOL    HW229536   1.450   7.180   6.729  0.2550 -0.0640 -0.2774
41406SOL     OW29537   1.061   0.812   1.519  0.1514 -0.1197  0.6962
41406SOL    HW129538   0.989   0.811   1.455  1.4253 -0.1120 -0.7833
41406SOL    HW229539   1.057   0.726   1.561  0.3774 -0.8009 -0.6475
41407SOL     OW29540   4.463   3.528   3.386  0.5957 -0.1515 -0.0357
41407SOL    HW129541   4.541   3.485   3.421 -0.6974 -1.3181  1.5640
41407SOL    HW229542   4.432   3.583   3.457  1.0889  2.0136 -1.3836
41408SOL     OW29543   8.511   6.548   0.978  0.2252 -0.1644  1.0663
41408SOL    HW129544   8.471   6.588   0.901  0.4974 -1.4340  0.2395
41408SOL    HW229545   8.463   6.586   1.052 -1.6254 -0.6215  0.1766
41409SOL     OW29546   5.580   1.170  11.227  0.5093 -0.3114 -0.5822
41409SOL    HW129547   5.613   1.109  11.161 -0.3748  0.9034 -2.2027
41409SOL    HW229548   5.597   1.256  11.190 -1.6708  0.3832 -0.0712
41410SOL     OW29549   6.122   8.128   3.923  0.6771  0.0841  0.0948
41410SOL    HW129550   6.054   8.111   3.858  2.0807  0.5937 -1.5766
41410SOL    HW229551   6.174   8.048   3.925  0.8424  0.1962  0.3379
41411SOL     OW29552   0.231   5.594   7.113  0.2023 -0.3413 -0.0904
41411SOL    HW129553   0.144   5.561   7.091  0.8388 -1.9872 -0.2937
41411SOL    HW229554   0.286   5.566   7.039  0.8223  1.1022 -0.2054
41412SOL     OW29555   1.783   3.928   9.933  0.1296 -0.0390 -0.4550
41412SOL    HW129556   1.799   4.006   9.878 -0.4544 -0.3601 -1.1002
41412SOL    HW229557   1.688   3.921   9.937  0.1718 -0.9924 -0.8125
41413SOL     OW29558  10.666   3.427   4.888 -0.1360 -0.3872  0.3132
41413SOL    HW129559  10.736   3.419   4.953  0.1051  2.2817  0.4809
41413SOL    HW229560  10.585   3.410   4.936  0.2403 -1.5435  0.5618
41414SOL     OW29561   5.534  10.115  10.937 -0.0884  0.3982 -0.2847
41414SOL    HW129562   5.575  10.061  10.869  0.6186  0.4864  0.0646
41414SOL    HW229563   5.543  10.063  11.017 -1.1146  0.1980 -0.2907
41415SOL     OW29564   0.228   7.781   6.843 -0.6136  0.1675  0.2990
41415SOL    HW129565   0.203   7.688   6.841 -1.4456  0.3788 -1.6941
41415SOL    HW229566   0.144   7.828   6.845 -0.1889  0.8929  1.7548
41416SOL     OW29567   5.185   9.578   8.026  0.0542  0.2504 -0.6017
41416SOL    HW129568   5.143   9.550   8.107 -2.4860 -0.2648 -2.0075
41416SOL    HW229569   5.158   9.669   8.015  0.6177  0.4037 -0.7565
41417SOL     OW29570   1.252   1.098   2.553 -0.2914  0.0336  0.4143
41417SOL    HW129571   1.256   1.024   2.615  0.3739 -0.2689  0.0255
41417SOL    HW229572   1.249   1.056   2.467 -3.7436  0.3822  0.2561
41418SOL     OW29573   7.600   2.879   3.682 -0.4180  0.3313  0.8800
41418SOL    HW129574   7.674   2.940   3.685 -0.7485  0.7220  2.9954
41418SOL    HW229575   7.641   2.793   3.669  0.2136  0.7676 -0.1185
41419SOL     OW29576   0.267   2.142  11.555  0.3333 -0.0432  0.4874
41419SOL    HW129577   0.294   2.233  11.568  1.4270 -0.4416  1.1042
41419SOL    HW229578   0.277   2.101  11.640 -0.2866 -0.7254  0.2450
41420SOL     OW29579   3.120   5.620   8.232 -1.3807  0.5538  0.1611
41420SOL    HW129580   3.088   5.585   8.149 -3.2001  1.4351  0.4422
41420SOL    HW229581   3.162   5.703   8.209 -2.3238  1.0406  0.1520
41421SOL     OW29582   2.909   6.407  11.677 -0.0327 -0.0716  0.3922
41421SOL    HW129583   2.828   6.436  11.719 -0.2301  0.4003 -0.2968
41421SOL    HW229584   2.895   6.314  11.660 -0.5415  0.0686  0.0272
41422SOL     OW29585   0.616   4.470  10.510  0.1372  0.3811 -0.2397
41422SOL    HW129586   0.553   4.538  10.534 -0.4036 -0.4334  0.7414
41422SOL    HW229587   0.693   4.489  10.564 -0.6299 -0.7262  1.3322
41423SOL     OW29588   6.026   7.813   1.509  0.0360 -0.1744 -0.4608
41423SOL    HW129589   6.029   7.720   1.531 -0.1496  0.0279  0.4851
41423SOL    HW229590   6.067   7.819   1.423  0.9898 -0.9955 -0.0816
41424SOL     OW29591   9.913   9.486   2.228  0.4080 -0.2373  0.1495
41424SOL    HW129592  10.000   9.522   2.211  0.2906 -0.4470 -0.9189
41424SOL    HW229593   9.922   9.439   2.311  0.4108  2.7891  2.0394
41425SOL     OW29594   6.383  10.616  10.192  0.2719 -0.1583 -0.2739
41425SOL    HW129595   6.385  10.705  10.157 -1.7023  0.1829  0.3377
41425SOL    HW229596   6.320  10.621  10.265  1.7921 -1.5650  1.2078
41426SOL     OW29597   7.751  10.695   7.689 -0.0339 -0.0197 -0.0067
41426SOL    HW129598   7.759  10.741   7.772 -0.3794 -1.1525  0.6801
41426SOL    HW229599   7.700  10.754   7.633 -0.9993  0.1799  1.0515
41427SOL     OW29600   2.931   9.571   6.212  0.2194 -0.2209  0.6716
41427SOL    HW129601   3.007   9.516   6.228  0.8671  1.1796  2.8536
41427SOL    HW229602   2.935   9.592   6.119  2.3645 -0.3745  0.6918
41428SOL     OW29603   4.753   7.140  10.352  0.5052  0.2903  0.4171
41428SOL    HW129604   4.765   7.178  10.439  1.6575 -0.8390  0.7767
41428SOL    HW229605   4.836   7.156  10.307  0.9087 -1.4614  0.4681
41429SOL     OW29606   3.290   3.735   7.130 -0.3937 -0.1514 -0.4803
41429SOL    HW129607   3.211   3.757   7.081  0.3043 -0.3438 -1.7458
41429SOL    HW229608   3.357   3.724   7.063  0.0846 -2.8256  0.3064
41430SOL     OW29609   8.256   7.780   1.913 -0.0657  0.0523  0.4388
41430SOL    HW129610   8.338   7.806   1.956 -0.4327 -1.2648  2.0304
41430SOL    HW229611   8.189   7.795   1.979 -0.7350 -1.4799  0.1372
41431SOL     OW29612   0.194   9.222   8.356  0.3215  0.2069  0.1609
41431SOL    HW129613   0.114   9.254   8.399  1.4339  0.6641  2.0099
41431SOL    HW229614   0.162   9.168   8.284 -1.6506  0.7515  0.5524
41432SOL     OW29615   7.392  11.382   9.002 -0.9513  0.0270  0.5807
41432SOL    HW129616   7.317  11.371   8.943 -1.1043 -0.0356  0.7856
41432SOL    HW229617   7.467  11.348   8.952 -1.0499  0.1356  0.3555
41433SOL     OW29618   8.887   9.713   3.575  1.0538  0.1502  0.3810
41433SOL    HW129619   8.913   9.757   3.494  0.7128 -2.5798 -1.3453
41433SOL    HW229620   8.792   9.718   3.576  1.0604  0.2659  0.6991
41434SOL     OW29621  10.791   2.294   5.637  0.0200  0.1070  0.0671
41434SOL    HW129622  10.876   2.253   5.628 -0.2153 -0.0109 -2.5491
41434SOL    HW229623  10.809   2.380   5.674  1.3776  0.3164 -0.9974
41435SOL     OW29624   2.560   8.181   1.918 -0.4579  0.5652 -0.0207
41435SOL    HW129625   2.652   8.167   1.898 -0.5134  1.8025 -1.2364
41435SOL    HW229626   2.520   8.205   1.835 -1.9716 -0.3043  0.4107
41436SOL     OW29627   1.684   5.992   7.098  0.8175 -0.2566 -0.4415
41436SOL    HW129628   1.656   6.054   7.031  0.2849 -0.4963 -0.4498
41436SOL    HW229629   1.719   5.917   7.049  0.0818 -0.5923 -0.4691
41437SOL     OW29630  11.125   5.478   7.667 -0.4822 -0.2254 -0.4348
41437SOL    HW129631  11.211   5.515   7.685 -1.2408  0.8506  1.2770
41437SOL    HW229632  11.080   5.546   7.618 -0.1423 -1.0943 -2.0138
41438SOL     OW29633  10.913  11.751   3.958  0.0979 -0.2303  0.4669
41438SOL    HW129634  10.878  11.668   3.990 -1.2922 -0.1730 -0.7962
41438SOL    HW229635  10.841  11.789   3.906  2.3829 -0.7285 -3.4588
41439SOL     OW29636   8.110  10.736   9.960 -0.4871  0.6125 -0.3006
41439SOL    HW129637   8.020  10.743   9.989 -0.4323 -0.0657  0.0428
41439SOL    HW229638   8.106  10.681   9.882 -0.2031 -0.7441  0.6107
41440SOL     OW29639   5.686   5.989   8.829 -0.3622 -0.2623  0.2007
41440SOL    HW129640   5.753   6.043   8.871  0.1687  0.3017 -1.3034
41440SOL    HW229641   5.732   5.946   8.756 -1.8112  0.9211 -1.5056
41441SOL     OW29642   5.310  11.395   5.391 -0.5054  0.1202 -0.9204
41441SOL    HW129643   5.229  11.400   5.340 -0.6883  2.1394 -0.5245
41441SOL    HW229644   5.287  11.344   5.468 -0.6924 -1.4761 -1.9713
41442SOL     OW29645  10.372   0.963   2.079 -0.1225 -0.0722 -0.0447
41442SOL    HW129646  10.463   0.990   2.070  0.5296 -2.1732 -0.2280
41442SOL    HW229647  10.322   1.040   2.053  1.5090  1.8961  2.2331
41443SOL     OW29648   0.536   7.485   3.259 -0.7731 -0.6476 -0.2900
41443SOL    HW129649   0.509   7.474   3.167 -2.8388  0.2182  0.1599
41443SOL    HW229650   0.632   7.483   3.256 -0.7464  0.4514 -2.6151
41444SOL     OW29651   8.893  11.617   9.236 -0.1114  0.0056 -0.4855
41444SOL    HW129652   8.868  11.549   9.173 -0.8815 -0.2322  0.0652
41444SOL    HW229653   8.903  11.571   9.319  2.2929  0.0696 -0.6786
41445SOL     OW29654   2.940  11.542   1.386  0.3851 -0.3353 -0.0370
41445SOL    HW129655   3.024  11.552   1.341  0.0443 -1.5106 -1.0006
41445SOL    HW229656   2.887  11.488   1.326 -1.2896  0.9051  0.2511
41446SOL     OW29657   9.184  10.866   7.557 -0.0122 -0.0858 -0.0229
41446SOL    HW129658   9.262  10.862   7.612 -0.0336 -0.1849  0.0001
41446SOL    HW229659   9.120  10.811   7.602 -0.5815  1.1542  0.7466
41447SOL     OW29660   9.150   1.295   5.850 -0.0644 -0.0026  0.4623
41447SOL    HW129661   9.178   1.318   5.761  0.6833 -1.0847  0.3944
41447SOL    HW229662   9.076   1.354   5.868  2.2609  3.0998  0.6852
41448SOL     OW29663   5.886   5.058   5.570 -0.8137  0.0753 -0.5108
41448SOL    HW129664   5.852   5.086   5.485 -2.4978  0.5313  0.2855
41448SOL    HW229665   5.908   5.139   5.615  1.8566 -0.2034 -1.1484
41449SOL     OW29666   4.333   6.583   6.734 -0.4877  0.7043 -0.6650
41449SOL    HW129667   4.317   6.541   6.650  0.3471  0.5439 -0.7423
41449SOL    HW229668   4.403   6.645   6.718 -0.0773  0.4206 -0.0096
41450SOL     OW29669   0.334   4.928  11.194 -0.0202  1.0604  0.2341
41450SOL    HW129670   0.411   4.978  11.168 -1.0339  1.3061 -2.5991
41450SOL    HW229671   0.264   4.957  11.135 -2.1718  0.4129  2.2770
41451SOL     OW29672   7.523   8.771   3.170 -0.0526 -0.1678  0.1316
41451SOL    HW129673   7.434   8.740   3.184 -0.1815 -0.3176 -0.9126
41451SOL    HW229674   7.514   8.844   3.108  0.5379 -0.0606  0.1622
41452SOL     OW29675   7.296   6.549   6.838 -0.0451  0.0495  0.2826
41452SOL    HW129676   7.291   6.558   6.934 -0.5225 -0.8241  0.3419
41452SOL    HW229677   7.379   6.592   6.815  0.0227  0.3620  1.0764
41453SOL     OW29678   4.863   1.325   8.302  0.5878  0.4834  0.3466
41453SOL    HW129679   4.789   1.265   8.288  2.1719 -2.2706  2.6419
41453SOL    HW229680   4.929   1.296   8.239  0.3363  1.8859 -0.6031
41454SOL     OW29681   9.593   2.474  11.254 -0.8056 -0.0010 -0.1518
41454SOL    HW129682   9.541   2.480  11.335 -0.7117  0.4649 -0.1244
41454SOL    HW229683   9.552   2.537  11.195 -1.6063 -1.1627 -0.8905
41455SOL     OW29684   9.581   0.831   6.404  0.1164  0.0673 -0.0569
41455SOL    HW129685   9.524   0.756   6.387 -2.6083  2.0020 -0.1792
41455SOL    HW229686   9.597   0.828   6.498 -0.2154 -0.4954 -0.0130
41456SOL     OW29687   7.593   7.472   8.242 -0.2878 -0.2010  0.0389
41456SOL    HW129688   7.508   7.429   8.256  0.1895 -1.3145 -0.3730
41456SOL    HW229689   7.610   7.461   8.149 -1.3133  3.1387 -0.6707
41457SOL     OW29690  10.383   2.064   1.849  0.3587 -0.6616 -0.5914
41457SOL    HW129691  10.439   1.991   1.825  0.4252 -0.0222 -2.5511
41457SOL    HW229692  10.304   2.023   1.886  1.5074 -1.5971  0.9706
41458SOL     OW29693   7.750   9.459   8.479 -0.0557 -0.4858 -0.3258
41458SOL    HW129694   7.808   9.526   8.513 -0.3101  0.3144 -1.4309
41458SOL    HW229695   7.686   9.445   8.549  1.3800 -1.3224  0.8694
41459SOL     OW29696   3.465   8.073   1.988  0.8315 -0.0351  0.2030
41459SOL    HW129697   3.494   8.109   1.905  1.3344  0.8411  0.7454
41459SOL    HW229698   3.381   8.117   2.004  0.9405  0.1186  0.3584
41460SOL     OW29699  10.965   9.436   0.479 -0.2667  0.6294  0.0881
41460SOL    HW129700  10.897   9.379   0.442  0.3814 -0.8074  1.0242
41460SOL    HW229701  11.011   9.381   0.542 -0.5802  2.6279  2.2186
41461SOL     OW29702   7.294   9.878   5.973  0.3918 -0.0881  0.3905
41461SOL    HW129703   7.299   9.961   6.019  2.6017 -0.0689  0.2272
41461SOL    HW229704   7.297   9.901   5.880 -1.1786 -0.2717  0.2725
41462SOL     OW29705   6.384   5.514   3.631 -0.1748  0.4404  0.6811
41462SOL    HW129706   6.299   5.473   3.616  0.2560  0.0486 -0.8393
41462SOL    HW229707   6.369   5.574   3.705 -1.9282  0.8617  0.0362
41463SOL     OW29708   9.101   1.047   3.313  0.0987 -0.5618  0.2409
41463SOL    HW129709   9.125   1.139   3.307 -1.0411 -0.1570  1.4796
41463SOL    HW229710   9.061   1.027   3.228  1.0267 -0.1324 -0.3065
41464SOL     OW29711   8.429   5.812   9.045 -0.2197 -0.0486 -0.6614
41464SOL    HW129712   8.402   5.904   9.038  1.4613  0.5127 -0.3923
41464SOL    HW229713   8.506   5.814   9.103  0.1062 -1.5744 -0.9909
41465SOL     OW29714   2.228   7.171   1.987 -0.7474  0.1603 -0.3188
41465SOL    HW129715   2.249   7.084   1.952  0.5366 -0.3541  1.5267
41465SOL    HW229716   2.144   7.158   2.033  0.2358 -0.6169  1.3831
41466SOL     OW29717   0.763   2.174   7.943 -0.4635  0.2906 -0.3276
41466SOL    HW129718   0.850   2.206   7.919 -0.2041  0.7112  1.1112
41466SOL    HW229719   0.771   2.149   8.035 -1.5452 -0.8508 -0.5146
41467SOL     OW29720   3.088  10.348   4.609 -0.3313  0.2786 -0.2472
41467SOL    HW129721   3.007  10.399   4.615 -0.8493  0.1511 -3.9395
41467SOL    HW229722   3.064  10.260   4.638 -0.5753  0.9539  1.8098
41468SOL     OW29723  10.685   8.963   6.990 -0.2680  0.0661  0.3444
41468SOL    HW129724  10.730   8.911   6.924 -1.1671  0.9449 -0.9898
41468SOL    HW229725  10.725   8.936   7.073 -1.4473 -3.5689 -0.1141
41469SOL     OW29726   5.447   9.966   1.504 -0.3409  0.6366  0.0838
41469SOL    HW129727   5.422  10.056   1.482 -1.5513  0.1416 -0.6811
41469SOL    HW229728   5.368   9.929   1.544 -0.2711 -0.4287 -0.7195
41470SOL     OW29729   5.796   6.788   8.494  0.2078  0.6485 -0.0018
41470SOL    HW129730   5.846   6.778   8.413  2.0604 -3.2191  1.3971
41470SOL    HW229731   5.842   6.858   8.542  2.3977 -0.6149 -0.1410
41471SOL     OW29732  10.421   0.757  10.742  0.7661  0.0332  0.3954
41471SOL    HW129733  10.412   0.683  10.802  1.9533 -2.1777 -1.9515
41471SOL    HW229734  10.510   0.748  10.707  0.8141  2.3951 -0.2178
41472SOL     OW29735   8.914   2.030   6.803 -0.1920  0.1470 -0.4014
41472SOL    HW129736   8.887   1.983   6.724 -0.9866 -0.8805  0.4423
41472SOL    HW229737   8.835   2.074   6.833  0.1012  0.5165 -0.1526
41473SOL     OW29738   2.134   7.586   7.217 -0.5704 -0.0960 -0.3362
41473SOL    HW129739   2.131   7.495   7.246 -2.1820  0.4434  1.3165
41473SOL    HW229740   2.205   7.625   7.268 -0.9323 -0.0477  0.1333
41474SOL     OW29741   0.419   1.771   2.302  0.0231  0.3590 -0.5796
41474SOL    HW129742   0.377   1.780   2.216  0.9353 -0.2368 -1.0968
41474SOL    HW229743   0.349   1.790   2.365 -0.8364  0.0884 -1.4388
41475SOL     OW29744   2.831   3.376   8.073 -0.1267 -0.4677 -0.1682
41475SOL    HW129745   2.791   3.458   8.041  0.8626 -0.2882 -0.9997
41475SOL    HW229746   2.756   3.323   8.101 -0.7405  1.0953  1.3565
41476SOL     OW29747   0.325  10.247   0.434  0.8949  0.0649 -0.6939
41476SOL    HW129748   0.396  10.305   0.463  0.2868  0.5774 -0.1736
41476SOL    HW229749   0.262  10.306   0.393 -0.4647  0.0475  1.2181
41477SOL     OW29750   9.743   2.171   1.331 -0.3796 -0.0088  0.3660
41477SOL    HW129751   9.654   2.175   1.297 -0.2849  1.7644  0.2281
41477SOL    HW229752   9.792   2.120   1.266 -1.2261 -0.7713  0.3146
41478SOL     OW29753   9.242   6.803   0.752  0.4530 -0.5807  0.0557
41478SOL    HW129754   9.161   6.775   0.794  1.1654 -0.9378  1.2274
41478SOL    HW229755   9.309   6.793   0.819  1.4863 -0.3265 -0.9028
41479SOL     OW29756   0.902   2.319  10.780 -0.7354 -0.0334 -0.1659
41479SOL    HW129757   0.959   2.279  10.845 -0.8072  1.9090  1.1655
41479SOL    HW229758   0.947   2.400  10.755 -0.9303 -0.4964 -2.2458
41480SOL     OW29759   2.227   3.844   1.601  0.3022 -0.7224 -0.0387
41480SOL    HW129760   2.246   3.895   1.680 -1.1734  0.6830 -0.5423
41480SOL    HW229761   2.222   3.753   1.632 -0.1413 -0.2182  1.4678
41481SOL     OW29762   0.742   2.296  11.612 -0.4859 -0.4648  0.2705
41481SOL    HW129763   0.714   2.383  11.641  0.5613 -0.0406  0.0609
41481SOL    HW229764   0.821   2.312  11.560  0.1919 -1.5945  0.8962
41482SOL     OW29765  11.325   6.950  10.201  0.2463 -0.9197  0.5728
41482SOL    HW129766  11.254   6.888  10.219 -0.0235 -0.1880  2.2206
41482SOL    HW229767  11.281   7.035  10.200  0.9913 -0.5283  0.8366
41483SOL     OW29768  11.297   8.934   2.042  0.0132 -0.1428 -0.1914
41483SOL    HW129769  11.295   8.988   1.963  1.0211 -0.5126 -0.4860
41483SOL    HW229770  11.209   8.897   2.048 -0.2026  0.2292 -0.8954
41484SOL     OW29771  10.192   3.064   6.885  1.1390  0.2411  0.2267
41484SOL    HW129772  10.195   3.159   6.871  3.0734  0.1741 -0.1406
41484SOL    HW229773  10.230   3.052   6.973  2.0022 -0.2496 -0.2011
41485SOL     OW29774   6.393   2.499   8.673  0.1284 -1.1094  0.0276
41485SOL    HW129775   6.394   2.552   8.593  0.8851 -1.1971 -0.0290
41485SOL    HW229776   6.485   2.492   8.698 -0.1948  0.3713  1.8870
41486SOL     OW29777   9.181   1.906   5.886 -0.1054 -0.3524 -0.2069
41486SOL    HW129778   9.205   1.904   5.979 -0.2343  0.0470 -0.1652
41486SOL    HW229779   9.264   1.893   5.840 -0.0036 -0.2909 -0.0422
41487SOL     OW29780   1.917   0.977   6.368 -0.0959 -0.3952  0.0562
41487SOL    HW129781   1.995   0.947   6.323  0.2945 -1.5066  1.3879
41487SOL    HW229782   1.946   0.995   6.457 -1.5799 -2.3052  1.0314
41488SOL     OW29783   8.765   3.237  10.983 -0.5088 -0.1282 -0.8781
41488SOL    HW129784   8.681   3.208  11.017 -0.1340 -0.7075 -0.4178
41488SOL    HW229785   8.743   3.299  10.913 -1.3168  2.0873  1.1829
41489SOL     OW29786   4.858   8.604   7.540 -0.2120  0.0802  0.4237
41489SOL    HW129787   4.814   8.585   7.623  0.8763 -1.7737  0.6155
41489SOL    HW229788   4.843   8.526   7.486  0.6045  0.5177 -0.4618
41490SOL     OW29789   4.077   2.285  11.347 -0.5760  0.1556  0.0632
41490SOL    HW129790   4.131   2.359  11.319 -1.3116  1.1475  1.1801
41490SOL    HW229791   4.139   2.212  11.354  0.5047  1.0890  0.6421
41491SOL     OW29792   8.879   0.567   4.486 -0.5905  0.0158  0.2173
41491SOL    HW129793   8.786   0.549   4.494 -0.1809 -3.1288 -0.6480
41491SOL    HW229794   8.901   0.543   4.396  1.2989 -0.8490  0.8515
41492SOL     OW29795  10.269   3.918   1.919 -0.0747 -0.5396  0.0804
41492SOL    HW129796  10.325   3.881   1.851  0.3833  0.5001 -0.1301
41492SOL    HW229797  10.294   3.872   1.999  0.2176 -0.9357 -0.2383
41493SOL     OW29798   3.683   8.209   2.228  0.1033 -0.3460 -0.2639
41493SOL    HW129799   3.718   8.257   2.153  2.2217  0.1322  0.9402
41493SOL    HW229800   3.592   8.239   2.234  0.3490  0.8373 -1.6601
41494SOL     OW29801   0.447   1.662  11.467  0.3229  0.0934  0.5248
41494SOL    HW129802   0.494   1.713  11.533 -1.5636 -1.1012  3.0072
41494SOL    HW229803   0.405   1.727  11.411  1.1231  1.1857  1.1653
41495SOL     OW29804   1.243   1.763   3.000  0.2016  0.1508  0.0811
41495SOL    HW129805   1.298   1.842   3.000 -0.1138  0.3759 -0.0723
41495SOL    HW229806   1.211   1.755   3.090 -1.5523  1.4832 -0.3469
41496SOL     OW29807   4.104   7.771   2.782 -0.3667  0.3045 -0.1483
41496SOL    HW129808   4.036   7.778   2.715  0.2335 -1.1869 -0.9659
41496SOL    HW229809   4.158   7.697   2.754  0.6720  0.4568  1.3141
41497SOL     OW29810   1.179   7.300   9.344 -0.1447  0.0628  0.3440
41497SOL    HW129811   1.173   7.241   9.269 -0.0244 -1.7200  1.6763
41497SOL    HW229812   1.263   7.345   9.333 -0.0467 -0.3121 -0.4865
41498SOL     OW29813   1.828   9.614   5.923  0.1809  0.1340  0.0682
41498SOL    HW129814   1.912   9.634   5.965  0.6887  1.1796 -1.3753
41498SOL    HW229815   1.769   9.683   5.954 -0.1155 -0.4703  0.9022
41499SOL     OW29816   8.193   5.649   8.711 -0.9241 -0.1661  0.2972
41499SOL    HW129817   8.281   5.626   8.739 -1.3968  0.6256  2.6284
41499SOL    HW229818   8.156   5.567   8.678  0.4038 -0.6805  0.0581
41500SOL     OW29819   6.085   2.057   6.694  0.3435  0.5058  0.3899
41500SOL    HW129820   6.041   1.975   6.717  1.4964  0.1878  1.5387
41500SOL    HW229821   6.039   2.087   6.615 -0.8599 -0.6301  0.6217
41501SOL     OW29822   8.685  10.037   1.380 -0.6214 -0.0648  0.4573
41501SOL    HW129823   8.745  10.066   1.312 -0.9492 -1.8911 -0.6701
41501SOL    HW229824   8.741  10.022   1.456 -0.2742  2.1258  0.7100
41502SOL     OW29825  11.458   4.354   3.719 -0.4163  0.1849 -0.4039
41502SOL    HW129826  11.403   4.430   3.733  2.7246  2.4015  1.2429
41502SOL    HW229827  11.502   4.370   3.635 -0.2899 -0.1746 -0.4100
41503SOL     OW29828   3.828   5.262   2.423  0.1202  0.7885  0.2488
41503SOL    HW129829   3.898   5.198   2.436 -0.5262 -0.2159 -0.9207
41503SOL    HW229830   3.819   5.268   2.327  1.2767  3.9172  0.2085
41504SOL     OW29831   7.504   8.394   7.715  0.0475  0.1586  0.0707
41504SOL    HW129832   7.444   8.333   7.671  0.5695 -2.4581  2.6661
41504SOL    HW229833   7.591   8.362   7.692  0.3435  0.3543  0.8811
41505SOL     OW29834  11.144   1.404   0.175 -0.2812  0.5311 -0.2477
41505SOL    HW129835  11.059   1.428   0.213 -1.0433  1.6733 -2.4718
41505SOL    HW229836  11.172   1.483   0.128  2.4875  0.4855  1.1344
41506SOL     OW29837   8.842   7.053   3.071  0.5550 -0.2792 -0.2783
41506SOL    HW129838   8.820   6.969   3.113  1.3938  0.1830  1.1574
41506SOL    HW229839   8.890   7.028   2.992  1.4322 -1.1782  0.4974
41507SOL     OW29840   4.858  11.012   1.135 -0.3578 -0.2765 -0.3473
41507SOL    HW129841   4.771  10.997   1.097 -0.2891 -0.2864 -0.5002
41507SOL    HW229842   4.911  11.045   1.062  0.0262 -1.1654 -0.4824
41508SOL     OW29843   8.164  10.359  10.475  0.6533 -0.4519  0.0009
41508SOL    HW129844   8.135  10.396  10.558  1.7374 -0.7997  0.5447
41508SOL    HW229845   8.101  10.289  10.457 -0.3942  0.4984 -0.1831
41509SOL     OW29846   9.366  10.736   8.811 -0.3837 -0.1149  0.4194
41509SOL    HW129847   9.398  10.739   8.901 -2.5081  0.7273  1.2247
41509SOL    HW229848   9.365  10.828   8.782  0.4581 -0.3936 -0.5469
41510SOL     OW29849   2.331   8.597   5.904 -0.1785 -0.3523 -0.7159
41510SOL    HW129850   2.364   8.523   5.955 -1.4577 -0.9557 -0.7291
41510SOL    HW229851   2.299   8.559   5.823  1.0138  0.4948 -1.6403
41511SOL     OW29852   8.948   8.283   0.034  0.1397  0.1403 -0.3657
41511SOL    HW129853   8.933   8.251   0.123 -2.3608 -0.8878 -1.0923
41511SOL    HW229854   9.001   8.362   0.046  1.1969 -0.8134  1.8953
41512SOL     OW29855   1.532   1.102   1.791 -0.2158  0.1931  0.6149
41512SOL    HW129856   1.612   1.125   1.838 -0.6458 -0.7715  1.8553
41512SOL    HW229857   1.494   1.030   1.841 -1.6141  0.3056 -0.2257
41513SOL     OW29858   0.334   9.937   8.435  0.2134  0.7576  0.0122
41513SOL    HW129859   0.412   9.973   8.476  1.0026  0.2375 -0.9929
41513SOL    HW229860   0.340   9.964   8.343 -1.2262  1.4371  0.0917
41514SOL     OW29861   8.075   4.653   6.844 -0.6036  0.6298 -0.0942
41514SOL    HW129862   8.065   4.710   6.768  1.8945  1.4084  0.0914
41514SOL    HW229863   8.152   4.686   6.890  0.3136 -2.2237  0.6318
41515SOL     OW29864  11.031   3.327   0.013 -0.4820  0.1715 -0.1601
41515SOL    HW129865  11.046   3.246   0.062  0.1262  0.3676 -0.0077
41515SOL    HW229866  11.077   3.313  -0.070 -2.5003 -0.6354 -1.2095
41516SOL     OW29867   1.436  11.072  11.670 -0.4560 -0.6379 -0.4847
41516SOL    HW129868   1.347  11.085  11.700 -0.8784 -1.9389 -1.0517
41516SOL    HW229869   1.491  11.091  11.746 -1.4547 -3.6923  1.2034
41517SOL     OW29870   4.548   3.931   7.704  0.2333 -0.0902  0.2494
41517SOL    HW129871   4.615   3.997   7.691 -0.2125  0.1922 -0.7426
41517SOL    HW229872   4.595   3.854   7.735  0.9678  0.2194 -0.0789
41518SOL     OW29873   6.275   6.718   0.853 -0.1311 -0.0111 -0.5103
41518SOL    HW129874   6.236   6.762   0.778  0.0485  0.5201 -0.2980
41518SOL    HW229875   6.226   6.752   0.929 -0.3539 -0.5880 -0.3861
41519SOL     OW29876   3.553  11.556  10.450 -0.1191  0.1608 -0.1860
41519SOL    HW129877   3.492  11.555  10.376  0.3907 -0.7177 -0.6102
41519SOL    HW229878   3.596  11.641  10.445 -2.3140  1.4357  0.9876
41520SOL     OW29879   6.972   1.139   8.334  0.4907 -0.1580  0.4516
41520SOL    HW129880   7.031   1.063   8.334  2.1776  1.0839 -0.7981
41520SOL    HW229881   6.944   1.148   8.243  0.2726  0.6920  0.5969
41521SOL     OW29882   5.849   7.515   3.724  0.2127  0.1641  0.2687
41521SOL    HW129883   5.839   7.421   3.742  0.3150  0.2395  0.7305
41521SOL    HW229884   5.854   7.556   3.811  2.3793  0.3582  0.1204
41522SOL     OW29885   1.952   3.959   2.061 -0.1505 -0.4984  0.6280
41522SOL    HW129886   2.041   3.977   2.092  0.3152  0.3895 -1.0707
41522SOL    HW229887   1.955   3.979   1.967 -2.1567 -0.3846  0.5403
41523SOL     OW29888   4.815   4.334   2.186 -0.2588 -0.0800  0.2463
41523SOL    HW129889   4.860   4.288   2.115 -0.5725  0.6143 -0.4127
41523SOL    HW229890   4.735   4.367   2.146 -0.7321 -0.1840  1.0832
41524SOL     OW29891   8.714   0.889  10.462 -0.4099 -0.0313 -0.2238
41524SOL    HW129892   8.694   0.895  10.555  0.6031  1.1549 -0.0485
41524SOL    HW229893   8.784   0.824  10.456  0.7333  1.1267  0.0901
41525SOL     OW29894   4.022   4.308   5.334  0.0824  0.8347 -0.5383
41525SOL    HW129895   3.928   4.306   5.350 -0.0831  2.0018 -1.2349
41525SOL    HW229896   4.033   4.266   5.249  0.5316 -1.7896  0.7064
41526SOL     OW29897  10.020   1.166   5.963  0.2212  0.2430  0.1218
41526SOL    HW129898  10.001   1.179   5.870  1.2645  1.9788  0.1093
41526SOL    HW229899   9.941   1.126   5.998 -0.5443  0.4064 -1.3332
41527SOL     OW29900  11.598   2.458   9.820  0.0276 -0.2290  0.0052
41527SOL    HW129901  11.533   2.401   9.779  0.0997 -1.9740  2.1051
41527SOL    HW229902  11.555   2.489   9.900  0.6837  1.1553 -0.1531
41528SOL     OW29903   0.062   4.437   9.320  0.1325  0.5300 -0.7557
41528SOL    HW129904   0.056   4.527   9.354 -0.6219  0.8636 -1.7424
41528SOL    HW229905   0.067   4.383   9.398 -0.4012  1.3626 -0.1243
41529SOL     OW29906   1.560   9.105   8.173 -0.1353  0.5430 -0.1822
41529SOL    HW129907   1.612   9.069   8.100 -0.4151  1.5969 -0.9176
41529SOL    HW229908   1.469   9.099   8.143 -0.3171  0.2521  0.4149
41530SOL     OW29909   9.409   1.498   7.852 -0.0142  0.4033 -0.2278
41530SOL    HW129910   9.408   1.404   7.832  0.8376  0.3575 -0.0845
41530SOL    HW229911   9.343   1.536   7.794  1.9854  0.2103 -2.8103
41531SOL     OW29912   0.542   5.619   8.246  0.3961 -0.6597 -0.6972
41531SOL    HW129913   0.469   5.580   8.198  0.4395 -2.4947  0.6231
41531SOL    HW229914   0.505   5.699   8.284 -1.1490 -1.8652  0.4601
41532SOL     OW29915   8.116   8.291   6.165  0.1907 -0.2875 -0.5754
41532SOL    HW129916   8.146   8.222   6.225  0.8341 -0.8934 -1.5711
41532SOL    HW229917   8.044   8.333   6.212  0.8901 -0.5296  0.7554
41533SOL     OW29918  10.618   4.120   3.998  0.2575  0.1419  0.4147
41533SOL    HW129919  10.545   4.149   3.943  0.7997 -2.4682 -1.8489
41533SOL    HW229920  10.693   4.172   3.969  0.2529 -0.2950 -0.3808
41534SOL     OW29921   9.640  11.557   6.161 -0.0419  0.1222 -0.0728
41534SOL    HW129922   9.656  11.489   6.095 -0.6452  0.5974 -0.7236
41534SOL    HW229923   9.578  11.517   6.221  0.6506 -0.3809  0.3199
41535SOL     OW29924   8.620   2.783   7.036 -0.4105  0.1740 -0.0477
41535SOL    HW129925   8.608   2.873   7.008 -1.3586 -0.0783 -0.5119
41535SOL    HW229926   8.711   2.762   7.012 -1.5311 -0.5282 -4.6328
41536SOL     OW29927   4.389   2.715   9.147 -0.9433  0.1435  0.7858
41536SOL    HW129928   4.364   2.638   9.198  2.7023  0.1275  2.9480
41536SOL    HW229929   4.342   2.788   9.189 -0.8435 -0.3628  1.8113
41537SOL     OW29930   1.469   4.485   0.605 -0.0398 -0.0125  0.2442
41537SOL    HW129931   1.415   4.435   0.666 -1.7022  0.9232 -0.3793
41537SOL    HW229932   1.440   4.455   0.518 -1.2142  2.0877 -0.1532
41538SOL     OW29933   2.577   0.949   6.518 -0.4895  0.5754 -0.1847
41538SOL    HW129934   2.664   0.979   6.546 -1.5608  2.1080  1.7755
41538SOL    HW229935   2.564   0.992   6.433  0.3587  0.9581 -0.1390
41539SOL     OW29936   2.316   9.336   1.427  0.5642 -0.4490  0.0363
41539SOL    HW129937   2.405   9.368   1.443  1.3067 -2.1246 -0.5565
41539SOL    HW229938   2.326   9.242   1.414 -1.0642 -0.4350 -1.7500
41540SOL     OW29939   2.355  11.637   9.755  0.1005  0.0317  0.2826
41540SOL    HW129940   2.419  11.630   9.825  0.7650 -0.1896 -0.3338
41540SOL    HW229941   2.371  11.560   9.700 -0.9722 -0.2519  0.3481
41541SOL     OW29942  10.656   6.580   5.288  0.4351 -0.6381  0.3343
41541SOL    HW129943  10.565   6.591   5.262  0.2694 -0.0972  1.1139
41541SOL    HW229944  10.689   6.669   5.299  1.0537 -0.8309  0.0757
41542SOL     OW29945   9.172   1.463  11.217 -0.0897  0.4915  0.5368
41542SOL    HW129946   9.163   1.435  11.126 -0.6762 -2.2898  1.3521
41542SOL    HW229947   9.219   1.546  11.212 -0.3495  0.5647 -2.2970
41543SOL     OW29948   7.249  10.430  10.593  0.2893  0.6123  0.0075
41543SOL    HW129949   7.216  10.520  10.596 -0.4572  0.3131  1.2737
41543SOL    HW229950   7.202  10.384  10.663  1.6455 -0.4421  0.2722
41544SOL     OW29951   0.154   6.475   1.187  0.0771  0.0013 -0.2913
41544SOL    HW129952   0.185   6.386   1.171 -0.7729 -0.8000  2.0939
41544SOL    HW229953   0.224   6.515   1.240  0.0562  0.4807 -0.6149
41545SOL     OW29954   3.503   6.695   6.715 -0.2521 -0.2899 -0.3156
41545SOL    HW129955   3.442   6.768   6.720 -0.0860  0.0162 -2.1844
41545SOL    HW229956   3.556   6.703   6.795 -0.9040  1.0178  0.0100
41546SOL     OW29957  11.798   0.071   7.797 -0.3810 -0.1564 -0.0141
41546SOL    HW129958  11.875   0.023   7.769 -1.6534 -1.7540 -0.9508
41546SOL    HW229959  11.765   0.113   7.718 -0.1031  1.1407  0.5208
41547SOL     OW29960   1.060  11.006   3.449 -0.7212 -0.4110 -0.2144
41547SOL    HW129961   1.011  11.015   3.367  0.2386 -0.6553 -0.8376
41547SOL    HW229962   1.052  10.913   3.472  0.5642 -0.7589 -1.0653
41548SOL     OW29963   2.245   6.276   0.878  0.1178 -0.6894 -0.2360
41548SOL    HW129964   2.291   6.240   0.802 -0.1944 -0.5317 -0.5002
41548SOL    HW229965   2.286   6.361   0.893 -0.0205 -0.5915 -0.4114
41549SOL     OW29966  10.738  10.683   7.166 -0.2018  0.4499  0.0749
41549SOL    HW129967  10.729  10.778   7.161  1.5901  0.8032  2.1452
41549SOL    HW229968  10.735  10.662   7.259  0.6683 -1.3725 -0.2511
41550SOL     OW29969  11.018   8.842   0.293 -0.2578 -0.5030  0.1942
41550SOL    HW129970  11.005   8.750   0.270  0.5627 -0.4109 -0.6944
41550SOL    HW229971  10.947   8.888   0.249  1.0458 -0.3801 -1.8943
41551SOL     OW29972   7.379   1.781   1.097 -0.3053 -0.5928 -0.4498
41551SOL    HW129973   7.392   1.754   1.188 -0.0506 -1.1294 -0.6429
41551SOL    HW229974   7.370   1.699   1.048  1.7802 -0.4206 -1.2503
41552SOL     OW29975   4.163   5.153   0.626  0.4542  0.4342 -0.0724
41552SOL    HW129976   4.176   5.146   0.721  1.6373  0.2990 -0.2342
41552SOL    HW229977   4.130   5.242   0.614 -1.4593 -0.1307  0.6226
41553SOL     OW29978   8.474   3.063  10.130 -0.4634 -0.1790 -0.0686
41553SOL    HW129979   8.420   3.102  10.062 -1.5080 -0.0745  0.7962
41553SOL    HW229980   8.555   3.113  10.128 -2.3274  3.3867  2.1368
41554SOL     OW29981  10.408   1.407  11.317  0.3246  0.1383  0.3142
41554SOL    HW129982  10.365   1.478  11.270 -0.1636 -1.0977 -1.1837
41554SOL    HW229983  10.345   1.335  11.316  1.5579 -0.9957 -0.0448
41555SOL     OW29984   7.652   3.269   2.717  0.1275 -0.2132  0.4339
41555SOL    HW129985   7.602   3.288   2.638 -0.3127 -0.1144  0.7281
41555SOL    HW229986   7.633   3.177   2.736  0.8236 -0.4449  0.0113
41556SOL     OW29987   8.352   1.815   8.250  0.3421  0.3411 -0.3528
41556SOL    HW129988   8.398   1.742   8.209  1.3976  1.5570 -1.4377
41556SOL    HW229989   8.362   1.887   8.188 -0.2839  1.5283  0.8712
41557SOL     OW29990  11.357   8.576   9.333 -0.1985 -0.1484  0.3514
41557SOL    HW129991  11.422   8.626   9.381 -1.0674  0.2889  1.0943
41557SOL    HW229992  11.286   8.638   9.315 -0.9622 -0.9069  0.6435
41558SOL     OW29993  11.326   7.686  11.027  0.0865  0.1922 -0.1452
41558SOL    HW129994  11.413   7.701  10.991  0.9121 -0.8446  1.3139
41558SOL    HW229995  11.308   7.763  11.081  0.4755  0.0104  0.2446
41559SOL     OW29996  11.823   8.239   9.112 -0.0934 -0.3773 -0.1532
41559SOL    HW129997  11.829   8.189   9.031  0.9852 -1.6446  0.6789
41559SOL    HW229998  11.730   8.236   9.135 -0.5658  0.7127 -1.7348
41560SOL     OW29999   7.565   3.710   6.866 -0.0518 -0.9039  0.4689
41560SOL    HW130000   7.584   3.619   6.890  2.2027 -0.7646 -0.6083
41560SOL    HW230001   7.521   3.703   6.781  0.9867 -0.9658 -0.0736
41561SOL     OW30002   8.241   9.278   3.276  0.3094  0.5075 -0.2778
41561SOL    HW130003   8.273   9.304   3.190  0.6329 -0.0249 -0.3227
41561SOL    HW230004   8.246   9.358   3.329  1.7903  0.4267 -0.2656
41562SOL     OW30005   6.396   6.507   9.626  0.1281 -0.1864 -0.0919
41562SOL    HW130006   6.426   6.419   9.605  0.1420  0.1090 -1.4011
41562SOL    HW230007   6.459   6.565   9.583 -0.8302  0.4430 -0.7016
41563SOL     OW30008   4.708   1.374   1.312  0.1325 -0.1583  1.2131
41563SOL    HW130009   4.672   1.455   1.276  2.8953  0.8269  0.4037
41563SOL    HW230010   4.704   1.312   1.238  0.1530 -0.0414  1.1131
41564SOL     OW30011   6.606   2.527   6.837 -0.3644  0.2520  0.0331
41564SOL    HW130012   6.583   2.438   6.810  3.7872 -1.1656  0.5340
41564SOL    HW230013   6.627   2.518   6.930  3.4148  0.8604 -0.6299
41565SOL     OW30014  10.820  10.710   1.045 -0.1413  0.6603  0.1408
41565SOL    HW130015  10.847  10.771   0.977  2.6012 -0.8756 -0.3251
41565SOL    HW230016  10.777  10.764   1.111  1.0802  2.8898 -0.7808
41566SOL     OW30017   0.298   6.248   3.515 -0.3670 -0.1595  0.3781
41566SOL    HW130018   0.374   6.301   3.537 -0.6891  0.9620 -1.0494
41566SOL    HW230019   0.286   6.260   3.421 -2.4101 -0.1534  0.5832
41567SOL     OW30020  11.470   7.421   6.181  0.5043 -0.4562 -0.2625
41567SOL    HW130021  11.424   7.502   6.201  0.2336 -0.4593 -0.8557
41567SOL    HW230022  11.540   7.416   6.246 -0.2229 -0.3614  0.5312
41568SOL     OW30023  11.543  10.025   5.391  0.3134  0.6434 -0.1017
41568SOL    HW130024  11.495  10.004   5.471  1.2712 -1.6414 -0.0283
41568SOL    HW230025  11.620  10.072   5.420  0.2058  0.6185  0.2246
41569SOL     OW30026   9.820   4.026  10.824  0.4322  0.0202 -0.1937
41569SOL    HW130027   9.839   4.113  10.788  0.5082 -0.0889 -0.4167
41569SOL    HW230028   9.877   3.967  10.775  0.6645 -0.1088  0.2210
41570SOL     OW30029   1.423   2.855   2.342 -0.6200  0.0640 -0.1715
41570SOL    HW130030   1.361   2.858   2.268 -0.2372 -1.0919 -0.5613
41570SOL    HW230031   1.507   2.836   2.301 -0.2411  0.2764  0.4975
41571SOL     OW30032   0.527   8.568   5.275  0.1044 -0.1028 -0.5287
41571SOL    HW130033   0.595   8.505   5.251 -0.2524  0.2960 -2.7223
41571SOL    HW230034   0.476   8.581   5.195 -0.5224  2.1302  0.1631
41572SOL     OW30035   5.560  10.516   7.019  0.2746  0.2354 -0.2565
41572SOL    HW130036   5.544  10.423   7.033 -0.3650  0.5108  0.9413
41572SOL    HW230037   5.558  10.526   6.924 -1.8698 -0.6082 -0.3434
41573SOL     OW30038  11.626   6.621   0.409  0.1319 -0.1723  0.3177
41573SOL    HW130039  11.657   6.600   0.320 -0.0090 -0.2390  0.2840
41573SOL    HW230040  11.545   6.669   0.395 -0.5735 -1.3002  0.4324
41574SOL     OW30041   4.923   7.419   9.059 -0.2898  0.9890  0.4423
41574SOL    HW130042   5.011   7.434   9.094 -0.5069  0.5827  1.1898
41574SOL    HW230043   4.888   7.506   9.043  0.1661  1.1605  0.3623
41575SOL     OW30044   7.304   1.009   8.179  0.2346 -0.2450  0.0551
41575SOL    HW130045   7.253   0.998   8.260 -0.3273  1.1432 -0.0835
41575SOL    HW230046   7.389   1.040   8.209 -0.0197  0.4054  0.1053
41576SOL     OW30047   9.556  11.499   9.586 -0.3355 -0.1418 -0.2182
41576SOL    HW130048   9.525  11.433   9.648 -0.7809  1.1613  0.9969
41576SOL    HW230049   9.617  11.452   9.529 -0.5162 -1.5525  0.7033
41577SOL     OW30050   3.723   4.453   1.909  0.5781 -0.3205  0.1476
41577SOL    HW130051   3.756   4.416   1.827  1.7543  0.4443  0.2450
41577SOL    HW230052   3.713   4.378   1.967 -1.9285 -1.1085 -1.1942
41578SOL     OW30053   2.114  11.090   0.355 -0.4479 -0.1159  0.4130
41578SOL    HW130054   2.026  11.089   0.318 -0.1187 -2.0454 -0.4443
41578SOL    HW230055   2.130  11.000   0.384  1.1176  0.2626  0.8527
41579SOL     OW30056   3.814   9.936   8.924 -0.2260 -0.6258  0.2938
41579SOL    HW130057   3.882   9.991   8.886 -0.0560 -1.0073  0.0411
41579SOL    HW230058   3.734   9.987   8.916  0.1888  0.2813  1.5531
41580SOL     OW30059   1.841   1.901   0.817  0.4306  0.1686  0.0329
41580SOL    HW130060   1.908   1.840   0.786  0.5727  0.8930 -1.1352
41580SOL    HW230061   1.767   1.887   0.759 -0.6931 -1.0394  1.6716
41581SOL     OW30062   4.294   6.518   9.150  0.2235  0.0392  0.1595
41581SOL    HW130063   4.350   6.521   9.228  1.8850  0.9438 -1.0095
41581SOL    HW230064   4.337   6.455   9.092  0.2226  0.9820 -0.8961
41582SOL     OW30065   5.359  11.374  11.743 -0.1324 -0.1903 -0.4545
41582SOL    HW130066   5.324  11.457  11.711 -0.5339 -0.5247 -0.9097
41582SOL    HW230067   5.453  11.378  11.722  0.1532  0.7782  0.9159
41583SOL     OW30068  11.767   9.029   7.728  0.1330  0.1136 -0.0251
41583SOL    HW130069  11.688   9.022   7.783  0.9231  0.1717  1.1621
41583SOL    HW230070  11.827   9.081   7.780  1.6685 -1.5504 -0.0312
41584SOL     OW30071   2.790  11.346   4.471  0.0912 -0.0898  0.4129
41584SOL    HW130072   2.829  11.263   4.447  1.7416  0.3379  1.4335
41584SOL    HW230073   2.726  11.324   4.539  0.7414 -0.5009  0.9010
41585SOL     OW30074   7.410   5.627   1.140 -0.0358 -0.4114 -0.1805
41585SOL    HW130075   7.380   5.557   1.082 -0.3131  0.6953 -1.4234
41585SOL    HW230076   7.330   5.660   1.182  0.1318 -1.0232  0.6562
41586SOL     OW30077   7.775   6.813   0.326  0.8578  0.7337 -0.0575
41586SOL    HW130078   7.817   6.899   0.336 -2.0202  2.4979 -1.7674
41586SOL    HW230079   7.771   6.800   0.231 -0.2374 -0.5076  0.1477
41587SOL     OW30080   4.839   8.841   9.922  0.1243  0.2927  0.8749
41587SOL    HW130081   4.900   8.835   9.848  0.1276  1.6655  0.7272
41587SOL    HW230082   4.758   8.874   9.882 -0.5972 -1.0722  1.1430
41588SOL     OW30083   2.213   8.836  10.035 -0.8004  0.0572 -0.0500
41588SOL    HW130084   2.164   8.754  10.042 -0.9302 -0.0064 -1.4713
41588SOL    HW230085   2.295   8.811   9.994 -0.3494  0.4711  0.5768
41589SOL     OW30086   9.177   5.139   1.853  0.2884  0.2467 -0.0004
41589SOL    HW130087   9.202   5.063   1.801  0.7536  0.7983 -0.6031
41589SOL    HW230088   9.106   5.180   1.803  1.3966  1.3336 -0.7484
41590SOL     OW30089   8.145   0.092  10.627  0.2515  0.5500 -0.0389
41590SOL    HW130090   8.113   0.182  10.632 -0.2595  0.4905 -1.8089
41590SOL    HW230091   8.071   0.038  10.654  0.5674  0.6225  1.0524
41591SOL     OW30092   9.573   6.825  10.158 -0.7993 -0.1169  0.3993
41591SOL    HW130093   9.581   6.746  10.104  1.1827  0.2155  0.1475
41591SOL    HW230094   9.618   6.803  10.240  1.7103  1.3827 -0.4722
41592SOL     OW30095   0.165   5.168   2.968 -0.0890 -0.5289  0.2306
41592SOL    HW130096   0.217   5.209   3.038 -1.1995 -0.1355  0.8502
41592SOL    HW230097   0.138   5.084   3.005 -2.2417  0.4489  1.0698
41593SOL     OW30098   4.249   5.302   1.804 -0.5103 -0.2882 -0.2826
41593SOL    HW130099   4.178   5.290   1.867  1.1988 -1.1470  1.5976
41593SOL    HW230100   4.223   5.249   1.728 -2.5009  0.5687 -0.2484
41594SOL     OW30101   3.750   1.387   3.537  0.5966 -0.7122 -0.3761
41594SOL    HW130102   3.757   1.316   3.600  1.1264 -1.5949 -1.4068
41594SOL    HW230103   3.688   1.355   3.471  0.3647  0.0296 -0.5298
41595SOL     OW30104   2.944   6.542  11.432  0.0250  0.1316  0.3915
41595SOL    HW130105   2.912   6.534  11.521 -0.7189  0.9829  0.2040
41595SOL    HW230106   3.035   6.513  11.437 -0.7056 -2.3076  0.9391
41596SOL     OW30107   3.074   4.216   6.354 -0.1360  0.2658 -0.3019
41596SOL    HW130108   3.087   4.180   6.442 -0.8658  0.6453 -0.0278
41596SOL    HW230109   3.134   4.166   6.299 -0.6983 -0.9860  0.1613
41597SOL     OW30110   1.941   8.022   3.079  0.3802 -0.5953 -0.0326
41597SOL    HW130111   1.943   7.939   3.031 -1.7198  0.5446 -2.3326
41597SOL    HW230112   1.953   8.089   3.012 -1.7773  1.0662  1.1006
41598SOL     OW30113   2.180   9.848   5.244  0.0297  0.2072  0.0522
41598SOL    HW130114   2.163   9.913   5.313  0.7894  2.7935 -1.9917
41598SOL    HW230115   2.265   9.875   5.207 -0.6706 -0.5757 -2.3179
41599SOL     OW30116   4.380   3.827   2.985 -0.4046  0.2889  0.4005
41599SOL    HW130117   4.343   3.889   3.048  2.0057  0.6950  1.5162
41599SOL    HW230118   4.436   3.771   3.037 -0.7729 -1.4212 -0.9626
41600SOL     OW30119   6.815   9.103   3.039 -0.0090  0.1893  0.6504
41600SOL    HW130120   6.853   9.072   2.957 -0.6523 -0.3284  0.5460
41600SOL    HW230121   6.889   9.104   3.101  0.5860  1.0626 -0.0510
41601SOL     OW30122   8.476   1.772   2.537  0.1195 -0.5661 -0.2062
41601SOL    HW130123   8.390   1.794   2.571 -0.0970 -0.4994 -0.7769
41601SOL    HW230124   8.523   1.734   2.611 -0.3486 -0.4606  0.1451
41602SOL     OW30125  11.610  11.562   4.890 -0.3630 -0.0328 -0.0507
41602SOL    HW130126  11.564  11.495   4.942  0.4120  0.8869  1.9436
41602SOL    HW230127  11.692  11.521   4.864 -0.4140 -0.2575  0.1428
41603SOL     OW30128   0.912   7.534   2.297 -0.3200 -0.2192 -0.0461
41603SOL    HW130129   0.979   7.490   2.244 -0.7926  1.5417 -2.2806
41603SOL    HW230130   0.959   7.602   2.345 -0.3310  0.3894 -0.8724
41604SOL     OW30131   4.989   8.906   8.994 -0.3962 -0.2338  0.4217
41604SOL    HW130132   5.037   8.875   8.917  1.0930 -1.6022  1.8083
41604SOL    HW230133   4.968   8.826   9.042  0.8275  0.6649  2.6011
41605SOL     OW30134   5.992   8.262  10.760  0.3435  0.1806  0.0282
41605SOL    HW130135   6.081   8.237  10.782  0.2874  0.5916  0.7821
41605SOL    HW230136   5.940   8.236  10.837 -0.3971 -1.1900 -0.9028
41606SOL     OW30137   5.591   8.306  11.028  0.2348  0.4313 -0.4439
41606SOL    HW130138   5.525   8.259  10.978 -0.0152  0.9464 -0.6038
41606SOL    HW230139   5.614   8.381  10.973  0.0149  0.9616  0.1747
41607SOL     OW30140   1.027   3.689  10.964  0.1427  0.2515  0.3155
41607SOL    HW130141   1.113   3.721  10.992  0.1838 -0.3316  0.8920
41607SOL    HW230142   1.037   3.674  10.870  0.8339 -0.2840  0.4622
41608SOL     OW30143   7.634   8.731   0.449  0.0098  0.2764  0.3396
41608SOL    HW130144   7.700   8.781   0.401  0.3726  0.2062  0.7711
41608SOL    HW230145   7.664   8.730   0.539 -0.8384  0.6780  0.6394
41609SOL     OW30146  10.225   7.040   6.459 -0.1590  0.0846  0.1450
41609SOL    HW130147  10.240   7.133   6.444 -0.2251  0.1591  0.5529
41609SOL    HW230148  10.273   6.997   6.388 -0.6129  0.4485 -0.4008
41610SOL     OW30149   1.555   9.659   0.831  0.0911 -0.3302  0.3593
41610SOL    HW130150   1.508   9.578   0.811 -3.3752  1.4759  0.4736
41610SOL    HW230151   1.592   9.687   0.747 -0.8414 -0.7644 -0.2099
41611SOL     OW30152   2.679   3.631  10.785  0.4185 -0.2884 -0.2736
41611SOL    HW130153   2.662   3.697  10.853 -1.8943 -0.0279 -0.9990
41611SOL    HW230154   2.744   3.671  10.728  1.0181  0.2511  0.7617
41612SOL     OW30155   3.245   4.643   9.562  0.4075 -0.1386 -0.0069
41612SOL    HW130156   3.248   4.736   9.581  3.4561 -0.2867  0.8708
41612SOL    HW230157   3.249   4.638   9.466 -2.6043  0.5500 -0.2615
41613SOL     OW30158   8.856   0.147   5.137  0.5034 -0.3834 -0.0506
41613SOL    HW130159   8.895   0.211   5.078 -0.5039  0.5120  0.2361
41613SOL    HW230160   8.824   0.078   5.079 -0.9083  0.7122 -0.6412
41614SOL     OW30161   5.656   5.785  10.571 -0.4876  0.1914  0.4126
41614SOL    HW130162   5.659   5.874  10.535 -2.6532  0.4041  0.6036
41614SOL    HW230163   5.704   5.791  10.653  0.2399  0.9236 -0.0409
41615SOL     OW30164   0.139   1.937   9.495 -0.0367 -0.2085 -0.2600
41615SOL    HW130165   0.186   2.019   9.506 -0.4700  0.0967 -0.6462
41615SOL    HW230166   0.048   1.959   9.514 -0.2534 -0.4549 -0.9622
41616SOL     OW30167   2.958   7.150   3.981 -0.3906 -0.1450  0.7784
41616SOL    HW130168   2.882   7.114   3.935 -1.0028  0.6626  1.1212
41616SOL    HW230169   3.023   7.080   3.979 -0.8612 -0.5803 -0.1966
41617SOL     OW30170  10.584   4.221   0.009  0.3560 -0.0597  0.0696
41617SOL    HW130171  10.585   4.305   0.054  2.7491 -0.2424  0.5063
41617SOL    HW230172  10.589   4.243  -0.084  2.1303  0.3618  0.2135
41618SOL     OW30173  11.720  11.584  11.027  0.4379  0.6107 -0.8417
41618SOL    HW130174  11.747  11.676  11.021  1.5574  0.3223 -0.4968
41618SOL    HW230175  11.670  11.578  11.108  2.2760  0.4890  0.3437
41619SOL     OW30176   6.992  11.336   0.473  0.2102  0.5948 -0.0067
41619SOL    HW130177   7.039  11.393   0.412 -1.2538  0.1975 -1.5716
41619SOL    HW230178   7.061  11.282   0.511  1.3075  1.5969 -0.4723
41620SOL     OW30179   2.127   2.578   9.530 -0.4406 -0.0103  0.1359
41620SOL    HW130180   2.075   2.593   9.451 -1.6693 -1.2230  0.6695
41620SOL    HW230181   2.217   2.589   9.501 -0.8529 -0.5086 -1.4673
41621SOL     OW30182   8.183   5.017   2.644 -0.1127 -0.4358  0.8098
41621SOL    HW130183   8.212   4.949   2.584  0.3615  0.8755 -0.5225
41621SOL    HW230184   8.264   5.055   2.679 -0.3079  0.4362  0.3530
41622SOL     OW30185   4.446   9.597   6.216 -0.9738 -0.4605  0.3346
41622SOL    HW130186   4.387   9.643   6.156  0.1622  0.3954 -0.1568
41622SOL    HW230187   4.534   9.619   6.185 -0.3679 -2.3209  0.5737
41623SOL     OW30188   5.492  11.059   0.425 -0.3933  0.3485 -0.0308
41623SOL    HW130189   5.432  11.087   0.494 -0.2742 -0.6674  0.4909
41623SOL    HW230190   5.481  10.964   0.420 -1.9044  0.5566 -2.7945
41624SOL     OW30191  10.320   3.899   6.469  0.1843  0.0217 -0.0811
41624SOL    HW130192  10.287   3.815   6.437 -1.4418  0.3246  0.6672
41624SOL    HW230193  10.255   3.963   6.440  1.9973  1.2323 -1.6444
41625SOL     OW30194   7.639   7.350   9.390  0.1056 -0.7188  0.2310
41625SOL    HW130195   7.632   7.280   9.455 -2.2137  0.4672  1.3439
41625SOL    HW230196   7.566   7.335   9.330  0.8913 -0.4889 -0.8183
41626SOL     OW30197   8.870   9.763   2.283 -0.1635  0.3358  0.3876
41626SOL    HW130198   8.866   9.763   2.379 -1.0821 -1.0504  0.3788
41626SOL    HW230199   8.960   9.737   2.263 -0.4719 -1.2900  0.9173
41627SOL     OW30200   7.780   5.152   7.245  0.2391  0.6007 -0.3299
41627SOL    HW130201   7.740   5.229   7.285  0.2531  0.3109  0.2697
41627SOL    HW230202   7.874   5.170   7.249  0.2476  0.5132 -0.0937
41628SOL     OW30203   8.964   9.052   0.990 -0.1535  0.2980  0.0151
41628SOL    HW130204   8.986   9.055   1.083  2.0642  0.6904 -0.4439
41628SOL    HW230205   8.950   8.959   0.971  0.0238  0.1443  0.6295
41629SOL     OW30206   4.970   1.187   9.873  0.1510 -0.0803 -0.0725
41629SOL    HW130207   4.931   1.108   9.910 -0.6199  0.0737 -0.5410
41629SOL    HW230208   4.910   1.257   9.898 -0.7864 -0.0602 -2.1736
41630SOL     OW30209   4.228   2.526  10.065  0.4022  0.0972  0.1073
41630SOL    HW130210   4.316   2.503  10.034 -0.0026 -1.9586  0.3259
41630SOL    HW230211   4.169   2.478  10.006 -0.4630 -0.9124  1.7240
41631SOL     OW30212   1.225   5.621  10.017 -0.7910  0.0725 -0.2290
41631SOL    HW130213   1.234   5.525  10.020 -0.8729  0.0754  0.1945
41631SOL    HW230214   1.236   5.643   9.925 -2.1124 -0.4751 -0.5375
41632SOL     OW30215   4.306   5.603   2.670 -0.4198  0.4866  0.3264
41632SOL    HW130216   4.348   5.678   2.714 -1.3333  0.9171  0.4948
41632SOL    HW230217   4.212   5.620   2.679 -0.6318 -0.2373 -0.4148
41633SOL     OW30218   3.527   7.486   6.923  0.1072 -0.8239 -0.1860
41633SOL    HW130219   3.600   7.542   6.951  0.8737 -1.2639 -1.2362
41633SOL    HW230220   3.475   7.542   6.865 -0.8389 -0.2732  1.1511
41634SOL     OW30221   0.448  10.185   2.253  0.1658 -0.0137  0.3663
41634SOL    HW130222   0.437  10.224   2.166  1.9836 -1.2214 -0.4588
41634SOL    HW230223   0.374  10.126   2.263  0.9957 -1.4029 -1.2716
41635SOL     OW30224   8.052   8.132   2.019  0.3914 -0.1940  0.4684
41635SOL    HW130225   8.070   8.041   2.040  3.0254  0.8972  3.7678
41635SOL    HW230226   8.125   8.158   1.961  2.2275  0.7688  3.0154
41636SOL     OW30227   4.340   1.396   3.143 -0.4580  0.1614 -0.7034
41636SOL    HW130228   4.305   1.307   3.148  0.7834 -0.4094 -1.6229
41636SOL    HW230229   4.433   1.386   3.163 -0.8189  1.7272  2.4103
41637SOL     OW30230   7.544   7.712   1.407  0.2546 -0.0202  0.6176
41637SOL    HW130231   7.593   7.757   1.476  1.1937 -1.1852  0.7505
41637SOL    HW230232   7.593   7.631   1.392 -0.8472 -0.5478 -0.2815
41638SOL     OW30233   3.549   7.189   1.895  0.0297 -0.5969  0.3320
41638SOL    HW130234   3.537   7.097   1.919 -0.1539 -0.6901 -0.1171
41638SOL    HW230235   3.469   7.213   1.849  0.0039 -0.1599  0.6037
41639SOL     OW30236   8.016   4.995   9.571  0.4448  0.8080  0.0282
41639SOL    HW130237   8.029   5.079   9.528  1.7070  0.4107 -0.4095
41639SOL    HW230238   8.104   4.969   9.599  0.5443 -1.5798 -2.1394
41640SOL     OW30239   8.985   0.836   5.612  0.8092  0.5586 -0.1367
41640SOL    HW130240   9.037   0.915   5.599  1.1062  0.4071  0.1119
41640SOL    HW230241   9.049   0.766   5.626  0.5911  0.7864  2.7231
41641SOL     OW30242   6.713   6.256   2.875  0.1622  0.3329 -0.4164
41641SOL    HW130243   6.789   6.276   2.822  0.2635 -0.1509 -0.4536
41641SOL    HW230244   6.696   6.163   2.860 -0.2438  0.3623 -0.1660
41642SOL     OW30245   9.871   7.573   3.077  0.1944 -0.9391  0.7265
41642SOL    HW130246   9.793   7.618   3.045  1.7815  0.3423 -1.6691
41642SOL    HW230247   9.919   7.641   3.125  0.7301 -1.1836  0.5396
41643SOL     OW30248   4.619   2.727   8.981  0.3261  0.8166 -0.2189
41643SOL    HW130249   4.594   2.791   8.914 -0.3245  1.9464  1.0465
41643SOL    HW230250   4.537   2.709   9.027  0.7165 -0.1428  0.1090
41644SOL     OW30251   9.175  10.262   6.587 -0.2912 -0.4445  0.2806
41644SOL    HW130252   9.195  10.279   6.495 -0.3817 -0.7514  0.2012
41644SOL    HW230253   9.080  10.270   6.593 -0.2134  0.3409  0.5136
41645SOL     OW30254  10.527   8.259   5.778  0.2579  0.2195 -0.5236
41645SOL    HW130255  10.526   8.183   5.837 -0.0477  0.9776  0.4804
41645SOL    HW230256  10.483   8.228   5.699 -2.5636  0.1443  0.9422
41646SOL     OW30257   1.201  10.199   8.480  0.0611 -0.3717 -0.0196
41646SOL    HW130258   1.286  10.173   8.514 -0.7862 -1.5587  1.3511
41646SOL    HW230259   1.205  10.179   8.387 -0.0634 -4.6223  0.6711
41647SOL     OW30260   9.743   1.364  10.546 -0.0242 -0.0859  0.0357
41647SOL    HW130261   9.703   1.394  10.628  3.6205  0.7359  1.7381
41647SOL    HW230262   9.701   1.418  10.478 -1.0030  1.4368  1.7511
41648SOL     OW30263   7.063   8.067   7.022  0.1929 -0.5869  0.2546
41648SOL    HW130264   7.064   8.118   6.940  0.4747 -1.4436 -0.2841
41648SOL    HW230265   7.102   7.983   6.998  2.8580  0.0727  1.9009
41649SOL     OW30266  10.209   1.294   7.881  0.0380  0.1734  0.3928
41649SOL    HW130267  10.213   1.383   7.918  1.0651  0.9822 -1.5024
41649SOL    HW230268  10.116   1.281   7.861 -0.1290  0.8440  0.6910
41650SOL     OW30269  10.893   0.644   7.325 -0.1097  0.6673 -0.4062
41650SOL    HW130270  10.844   0.705   7.269 -0.3712  0.4521 -0.4165
41650SOL    HW230271  10.829   0.577   7.348 -0.4115  1.5317  1.3824
41651SOL     OW30272   6.441   1.654  10.012 -0.1198 -0.2662 -0.3239
41651SOL    HW130273   6.402   1.573  10.045 -2.5100  0.8693 -0.1237
41651SOL    HW230274   6.439   1.644   9.917 -2.6383  0.4054 -0.4228
41652SOL     OW30275   8.856   1.081   8.252 -0.0516  0.2927  0.0473
41652SOL    HW130276   8.802   1.053   8.178 -0.2257  0.9856 -0.0914
41652SOL    HW230277   8.891   1.166   8.226  1.3499 -0.2678  0.0130
41653SOL     OW30278   0.261  11.329   9.411 -0.2629  0.4366 -0.3136
41653SOL    HW130279   0.284  11.284   9.492 -2.4182 -0.3753 -0.1036
41653SOL    HW230280   0.250  11.259   9.346 -1.0402  0.8695 -0.6602
41654SOL     OW30281   7.457  11.803   5.486  0.0412 -0.0523  0.1731
41654SOL    HW130282   7.440  11.883   5.536  1.7331  0.7543 -0.4792
41654SOL    HW230283   7.494  11.834   5.404 -0.2419 -1.4886 -0.5245
41655SOL     OW30284  10.942   1.513  10.699  0.1390  0.3468  0.4566
41655SOL    HW130285  11.006   1.564  10.650  1.4609  0.0618  1.8182
41655SOL    HW230286  10.895   1.577  10.752 -0.7229  0.5478 -0.5012
41656SOL     OW30287   5.933   8.993   5.735 -0.3168 -0.7266  0.0261
41656SOL    HW130288   6.007   8.934   5.745 -0.9141 -1.2859  1.4473
41656SOL    HW230289   5.888   8.962   5.656  0.3356 -1.0692 -0.2204
41657SOL     OW30290   9.030   2.871   4.498  0.7933 -0.2964  0.7968
41657SOL    HW130291   9.047   2.951   4.449  0.1001 -0.0485  0.9398
41657SOL    HW230292   9.116   2.833   4.514  1.0174 -0.8399 -1.3756
41658SOL     OW30293  11.200   4.904   8.251 -0.2259  0.2395 -0.8010
41658SOL    HW130294  11.147   4.974   8.212 -1.8236  1.4191  3.0237
41658SOL    HW230295  11.290   4.937   8.247 -0.9598  2.8907  1.2021
41659SOL     OW30296   2.333   5.439   4.180  0.1756 -0.2472 -0.5139
41659SOL    HW130297   2.301   5.522   4.145  0.7463  0.5183  0.7112
41659SOL    HW230298   2.400   5.410   4.117  1.2652  1.1570 -0.0578
41660SOL     OW30299   3.752   8.377   7.691  0.6799 -0.4677 -0.1768
41660SOL    HW130300   3.762   8.285   7.713 -0.4941 -0.0364  2.6159
41660SOL    HW230301   3.797   8.424   7.762 -1.6937  1.0790  0.4360
41661SOL     OW30302   4.925   2.288  11.160 -0.7244 -0.3781 -0.0205
41661SOL    HW130303   4.902   2.347  11.232  2.0046 -0.9957  1.5013
41661SOL    HW230304   4.971   2.343  11.097 -0.6887 -0.3418  0.0377
41662SOL     OW30305   5.646  10.016   5.700  0.4705  0.4721 -0.2960
41662SOL    HW130306   5.576  10.021   5.635  0.1673 -1.8455 -0.2253
41662SOL    HW230307   5.721  10.058   5.658 -0.0399  0.0258 -1.7254
41663SOL     OW30308   2.742   3.897   6.823 -0.9162 -0.9715  0.0401
41663SOL    HW130309   2.730   3.870   6.732 -1.0552  0.3783 -0.3571
41663SOL    HW230310   2.758   3.815   6.870 -0.7646 -1.6814 -1.2024
41664SOL     OW30311   3.509   4.760  11.484  0.3815  0.3587  0.2387
41664SOL    HW130312   3.503   4.814  11.563  0.0409  1.2193 -0.3655
41664SOL    HW230313   3.421   4.765  11.446  0.4948 -0.2063 -0.0992
41665SOL     OW30314   9.482   8.757   5.437  0.2063 -0.5259  0.1197
41665SOL    HW130315   9.482   8.682   5.378  1.0519 -1.1904  0.9457
41665SOL    HW230316   9.416   8.735   5.503 -0.0374 -0.2242 -0.0183
41666SOL     OW30317   9.449   2.947   1.487  0.4140 -0.0710 -0.2319
41666SOL    HW130318   9.521   2.991   1.442  0.6505  0.9449  1.0642
41666SOL    HW230319   9.493   2.889   1.550  0.1921  1.6064  1.5785
41667SOL     OW30320   5.225   5.076   6.637  0.1423 -0.5828 -0.5291
41667SOL    HW130321   5.146   5.030   6.607  0.7069 -0.9954 -1.4217
41667SOL    HW230322   5.273   5.096   6.556  0.9119 -0.2608  0.0004
41668SOL     OW30323   4.947  11.597   8.335 -0.5981  0.1044  0.0060
41668SOL    HW130324   4.893  11.675   8.328 -0.0365  0.4804 -0.2118
41668SOL    HW230325   4.987  11.604   8.422  1.5283  1.4596 -0.9904
41669SOL     OW30326   9.968   8.725  11.433 -0.4666  0.3653  0.0714
41669SOL    HW130327   9.921   8.736  11.350 -1.4028  2.4121  0.8075
41669SOL    HW230328   9.978   8.814  11.466  1.2568 -0.2954  1.4326
41670SOL     OW30329   7.430   1.046  10.501 -0.2558 -0.1486 -0.0732
41670SOL    HW130330   7.413   1.136  10.528 -1.7961 -0.3442 -0.2957
41670SOL    HW230331   7.365   0.994  10.548  0.0772 -1.0431 -0.5743
41671SOL     OW30332   7.335   7.193   3.814  0.2422 -0.2198 -0.0705
41671SOL    HW130333   7.313   7.107   3.779 -0.2863  0.2457 -0.9408
41671SOL    HW230334   7.392   7.232   3.747 -1.1506  0.8672 -0.6804
41672SOL     OW30335   0.109   7.211   5.855  0.1227 -0.2211  0.2674
41672SOL    HW130336   0.188   7.177   5.898  0.7795 -0.5377 -1.1557
41672SOL    HW230337   0.133   7.220   5.763 -1.0469  1.1083  0.0625
41673SOL     OW30338   1.877   3.194   5.059 -0.4327  0.4370 -0.1392
41673SOL    HW130339   1.897   3.276   5.104 -1.7333  1.3476 -1.1582
41673SOL    HW230340   1.782   3.182   5.072 -0.2562 -0.9520  0.0473
41674SOL     OW30341   4.669   9.782   9.831  0.2293  0.3477 -0.1462
41674SOL    HW130342   4.670   9.711   9.767  2.7650  1.4003 -1.4126
41674SOL    HW230343   4.704   9.857   9.784  2.6809  1.0715  2.5564
41675SOL     OW30344   9.671   6.899   2.798  0.3361 -0.0732 -0.1455
41675SOL    HW130345   9.711   6.852   2.871  0.0920  0.1173  0.1140
41675SOL    HW230346   9.617   6.833   2.753  1.8204 -0.6267 -1.1901
41676SOL     OW30347   2.387   6.860   5.576  0.4965  0.2718 -0.4667
41676SOL    HW130348   2.389   6.891   5.485  0.6744  2.0372  0.1104
41676SOL    HW230349   2.427   6.773   5.572 -0.1459  0.0113 -2.1794
41677SOL     OW30350   4.859   3.422   3.368 -0.7172  0.2258  0.4487
41677SOL    HW130351   4.800   3.396   3.439  0.4535 -0.4335  1.2219
41677SOL    HW230352   4.939   3.370   3.384 -0.0959  0.7675 -0.8112
41678SOL     OW30353   1.019   0.731   1.115  0.1198 -0.1370 -0.4920
41678SOL    HW130354   1.004   0.721   1.021 -1.7650  1.2403 -0.3954
41678SOL    HW230355   1.032   0.825   1.128 -1.6444 -0.0202  0.8198
41679SOL     OW30356   3.314   6.682   4.338  0.1511 -0.2544 -0.3236
41679SOL    HW130357   3.328   6.769   4.301 -0.5278 -1.0621 -2.6704
41679SOL    HW230358   3.219   6.674   4.344  0.2022 -0.8910 -0.2909
41680SOL     OW30359   9.655   0.785   8.380 -0.1663 -0.1986  0.3271
41680SOL    HW130360   9.579   0.761   8.434 -0.0960  0.8176  0.8988
41680SOL    HW230361   9.712   0.709   8.384 -0.8954 -0.7637  0.3498
41681SOL     OW30362  11.339   7.827   8.216 -0.1980  0.3919  0.1139
41681SOL    HW130363  11.407   7.816   8.149  0.1704 -2.5591  0.8192
41681SOL    HW230364  11.281   7.894   8.181  2.5732  2.4260 -0.9160
41682SOL     OW30365   3.223   0.331   1.049 -0.5448 -0.2633  0.0752
41682SOL    HW130366   3.164   0.406   1.058 -0.0147  0.1974 -0.2084
41682SOL    HW230367   3.191   0.267   1.112 -1.6600 -0.2296 -0.4254
41683SOL     OW30368   9.056  10.270   2.032  0.1435  0.4836  0.4359
41683SOL    HW130369   9.050  10.299   2.123  0.6326 -0.2064  0.7031
41683SOL    HW230370   8.970  10.232   2.014  0.1733  0.2630  0.7446
41684SOL     OW30371   0.816  11.725   5.192 -0.5527  0.0931 -0.2361
41684SOL    HW130372   0.825  11.820   5.183 -0.9882  0.2642  0.9105
41684SOL    HW230373   0.722  11.711   5.204 -0.2789 -0.2182  1.9928
41685SOL     OW30374   7.911   2.636   3.408 -0.0980  0.1316 -0.3786
41685SOL    HW130375   7.856   2.666   3.336 -2.4868  2.0081  2.0350
41685SOL    HW230376   7.929   2.715   3.460  1.3032 -1.1582  1.2423
41686SOL     OW30377   9.610   0.377   5.176 -0.9755  0.8017 -0.4620
41686SOL    HW130378   9.571   0.418   5.253  0.2003 -0.5208  0.9174
41686SOL    HW230379   9.544   0.315   5.146 -0.8874  0.2645  0.4108
41687SOL     OW30380  10.975   2.320  11.475  0.7042  0.0660 -0.3735
41687SOL    HW130381  10.949   2.232  11.501  0.6801  0.5396  1.3402
41687SOL    HW230382  11.068   2.312  11.453  0.6320 -0.4371 -0.5111
41688SOL     OW30383   0.282   6.183   6.511  0.5064 -0.3933 -0.2909
41688SOL    HW130384   0.257   6.268   6.548 -0.3961 -0.2425 -1.2075
41688SOL    HW230385   0.216   6.122   6.545 -1.9377  0.1843 -3.5406
41689SOL     OW30386   5.022   9.939   5.634  0.0299 -0.1318  0.2672
41689SOL    HW130387   5.106   9.897   5.650 -1.3407 -2.5168  1.6737
41689SOL    HW230388   4.958   9.885   5.680 -2.2189  2.0413 -0.0720
41690SOL     OW30389   4.757  10.823   3.420  0.0866  0.1359 -0.7156
41690SOL    HW130390   4.694  10.893   3.436  0.1574  0.0950 -0.2425
41690SOL    HW230391   4.783  10.834   3.329 -0.7835  0.0067 -0.9894
41691SOL     OW30392   7.333   5.139   5.386  0.1377 -0.1239 -1.0815
41691SOL    HW130393   7.302   5.066   5.440 -0.7344  0.5326 -0.6550
41691SOL    HW230394   7.428   5.130   5.385  0.1305 -0.5021  0.0665
41692SOL     OW30395   2.874   7.159   6.608 -0.2447  0.2479 -0.0162
41692SOL    HW130396   2.952   7.214   6.620  0.1167 -0.0612 -0.9255
41692SOL    HW230397   2.893   7.107   6.531 -1.2681  0.0004 -0.1065
41693SOL     OW30398   1.766   2.540   6.853  0.0836  0.0043  0.2937
41693SOL    HW130399   1.764   2.590   6.935 -0.5255 -0.7727  0.7703
41693SOL    HW230400   1.674   2.533   6.827  0.1166 -1.2151  0.4596
41694SOL     OW30401  10.122   5.027   6.226 -0.5088  0.3955  0.1892
41694SOL    HW130402  10.157   5.110   6.260 -2.6559  1.7317 -0.6255
41694SOL    HW230403  10.115   5.041   6.132 -0.6059 -0.8515 -0.0002
41695SOL     OW30404   6.075   2.892  10.070  0.1772  0.0785 -0.0829
41695SOL    HW130405   6.111   2.903  10.158 -0.4861  1.5748  0.0318
41695SOL    HW230406   5.998   2.837  10.083 -0.1136  0.5772  0.3238
41696SOL     OW30407  10.698   7.253  10.423 -0.3695 -0.0935  0.0327
41696SOL    HW130408  10.672   7.168  10.389 -0.1409 -0.4309  0.6682
41696SOL    HW230409  10.767   7.283  10.364 -1.8781  0.6249 -1.4269
41697SOL     OW30410   9.564   3.328   2.401 -0.2979 -0.3743  0.4825
41697SOL    HW130411   9.516   3.276   2.466 -1.3799  0.3066  0.2499
41697SOL    HW230412   9.602   3.400   2.451  0.4655 -0.8917  0.6603
41698SOL     OW30413  10.919   7.852   4.417 -0.0489 -0.0886  0.1092
41698SOL    HW130414  10.912   7.904   4.337  2.3399 -0.1882 -0.2233
41698SOL    HW230415  10.975   7.778   4.393  0.0301 -0.5713  1.6707
41699SOL     OW30416   4.717   7.449   1.827 -0.2717  0.6539 -0.3230
41699SOL    HW130417   4.738   7.424   1.917 -1.6398  1.5605  0.2896
41699SOL    HW230418   4.668   7.375   1.793  2.6309 -0.9376 -1.3491
41700SOL     OW30419   4.337  11.586   4.227 -0.7727  0.5937 -0.4963
41700SOL    HW130420   4.265  11.642   4.255 -1.2561  0.2437 -1.0118
41700SOL    HW230421   4.296  11.502   4.206 -0.3304  0.6004 -1.4848
41701SOL     OW30422   2.827  11.042  10.570 -0.8364  0.2605 -0.2032
41701SOL    HW130423   2.765  11.107  10.538 -1.3689  0.5023  1.2270
41701SOL    HW230424   2.879  11.088  10.636 -0.5282 -0.4806  0.0861
41702SOL     OW30425   9.437   8.278   0.958 -0.2167 -0.5700  0.2690
41702SOL    HW130426   9.445   8.345   1.026 -0.0934 -0.2146 -0.0929
41702SOL    HW230427   9.393   8.206   1.001 -2.2018  0.5005  0.1292
41703SOL     OW30428   9.707   6.765   0.876  0.1105 -0.2148  0.1738
41703SOL    HW130429   9.688   6.786   0.967 -0.3434  0.3967 -0.0563
41703SOL    HW230430   9.776   6.699   0.881  1.8777  1.5959  0.9301
41704SOL     OW30431   9.556   4.179   3.116 -0.2857  0.3221  0.7301
41704SOL    HW130432   9.543   4.087   3.138 -1.0285  0.3498  0.4524
41704SOL    HW230433   9.606   4.215   3.189  1.0628 -0.5716  0.2782
41705SOL     OW30434  10.712   0.836  11.675 -0.4771 -0.2151  0.3491
41705SOL    HW130435  10.650   0.896  11.717  1.2515 -0.1729  3.0956
41705SOL    HW230436  10.769   0.893  11.624  0.1894  0.3684  1.6813
41706SOL     OW30437   9.436   1.217   7.803 -0.0614 -0.6213  0.0398
41706SOL    HW130438   9.470   1.158   7.735  0.0277 -1.0669  0.4598
41706SOL    HW230439   9.346   1.187   7.817  0.0704 -0.8400  0.4450
41707SOL     OW30440  11.821   9.834   6.935  0.1319 -0.7546 -0.7074
41707SOL    HW130441  11.823   9.739   6.919 -0.4467 -1.3536  2.1986
41707SOL    HW230442  11.905   9.854   6.976 -0.6538 -0.5346  0.8838
41708SOL     OW30443   9.472   4.588   5.902 -0.1341 -0.7377 -0.0815
41708SOL    HW130444   9.461   4.683   5.893  0.2037 -0.6998 -0.1142
41708SOL    HW230445   9.473   4.555   5.812 -1.3223 -0.9076 -0.0565
41709SOL     OW30446   3.000   7.163   0.980 -0.0502 -0.2719 -0.1108
41709SOL    HW130447   3.006   7.196   1.070  0.1221 -0.7001  0.0386
41709SOL    HW230448   3.089   7.173   0.945 -0.5094  1.6076 -0.8594
41710SOL     OW30449   8.299   7.642   6.171  0.0499 -0.4440 -0.1574
41710SOL    HW130450   8.236   7.638   6.099 -0.2370 -1.7178  0.1420
41710SOL    HW230451   8.249   7.670   6.247  0.4330  1.3025 -0.5055
41711SOL     OW30452   0.857   7.492   0.032  0.2860  0.0649 -0.1477
41711SOL    HW130453   0.835   7.448   0.114 -1.2796  0.2542 -0.4155
41711SOL    HW230454   0.772   7.519  -0.004  0.9634  0.3482 -1.6329
41712SOL     OW30455   5.202   5.986   8.905 -0.0366  0.7567  0.3683
41712SOL    HW130456   5.215   6.035   8.824  0.9699  1.4594  0.9361
41712SOL    HW230457   5.189   6.053   8.971 -0.7211  0.1899  0.8235
41713SOL     OW30458   1.839   8.353   8.058  0.5232 -0.0347  0.4347
41713SOL    HW130459   1.861   8.349   8.151  0.0978 -0.3986  0.5262
41713SOL    HW230460   1.869   8.439   8.029  0.5541  0.1242  0.9339
41714SOL     OW30461   5.435  11.597   6.128  0.1853 -0.1568  0.6114
41714SOL    HW130462   5.480  11.620   6.209  2.0098 -0.1642 -0.3578
41714SOL    HW230463   5.344  11.584   6.155  0.4994  1.0003  2.4406
41715SOL     OW30464   0.645  11.657   8.358 -0.2124 -0.1916  0.1520
41715SOL    HW130465   0.614  11.747   8.352  2.2929  0.6422 -2.3898
41715SOL    HW230466   0.686  11.639   8.273  0.2602 -3.4053  0.9067
41716SOL     OW30467  11.767   3.192   1.273  0.2740 -0.1332 -0.4053
41716SOL    HW130468  11.747   3.146   1.355  1.2595 -1.1180 -0.6761
41716SOL    HW230469  11.786   3.282   1.299  0.0710 -0.3170  0.3896
41717SOL     OW30470   1.264   3.543  11.200  0.1823 -0.1182  0.5407
41717SOL    HW130471   1.274   3.620  11.145  1.0587 -0.4707  0.2027
41717SOL    HW230472   1.294   3.571  11.286  0.0075  0.0586  0.5474
41718SOL     OW30473   8.749   3.826   9.404 -0.5493  0.7676  0.2126
41718SOL    HW130474   8.733   3.920   9.394  0.4041  0.9316  0.1661
41718SOL    HW230475   8.814   3.805   9.337  0.8251  0.5148  1.5686
41719SOL     OW30476  11.348   3.394   6.054  0.4806  0.4849 -0.0666
41719SOL    HW130477  11.320   3.308   6.024 -0.0117  1.0934 -1.4250
41719SOL    HW230478  11.422   3.376   6.112  0.2814 -0.8485 -0.1901
41720SOL     OW30479  11.407   3.640   3.623  0.4838 -0.2160  0.8584
41720SOL    HW130480  11.433   3.614   3.535 -0.3912  0.2209  0.4573
41720SOL    HW230481  11.346   3.713   3.610 -0.5753 -0.9048  1.7610
41721SOL     OW30482   6.023   7.331   8.485  0.0942  0.0904 -0.1142
41721SOL    HW130483   6.108   7.289   8.468  1.1307  1.2701  1.7423
41721SOL    HW230484   6.021   7.405   8.425 -0.3081 -0.7792 -1.1918
41722SOL     OW30485  10.068   6.280   1.535  0.4614  0.3196  0.0836
41722SOL    HW130486  10.017   6.251   1.611 -0.4605  1.5408 -0.0452
41722SOL    HW230487  10.123   6.351   1.569 -0.5735  1.4419 -0.5629
41723SOL     OW30488   9.459   7.493   5.159 -0.3003  0.3266  1.1542
41723SOL    HW130489   9.502   7.491   5.074 -1.4146 -2.0579  0.5604
41723SOL    HW230490   9.475   7.581   5.192  1.2740  0.8990 -0.9267
41724SOL     OW30491   6.948   0.158  11.069 -0.5818  0.9970 -0.1259
41724SOL    HW130492   6.880   0.097  11.097  0.7913 -0.2023  0.7315
41724SOL    HW230493   7.006   0.165  11.145  0.8127  1.1682 -1.1695
41725SOL     OW30494  11.058   5.963   4.823 -0.5843 -0.4889 -0.1527
41725SOL    HW130495  10.970   5.993   4.845 -1.0873 -1.1477 -1.1990
41725SOL    HW230496  11.108   6.043   4.807 -1.0431 -0.1204  0.2407
41726SOL     OW30497  11.798   8.649   8.905 -0.0477 -0.4861 -0.5233
41726SOL    HW130498  11.768   8.604   8.827 -1.0981 -2.3061  0.8578
41726SOL    HW230499  11.717   8.671   8.953  0.5488  0.8863 -0.0896
41727SOL     OW30500   6.347  10.547   0.076 -0.0885 -0.0114  0.3177
41727SOL    HW130501   6.406  10.574   0.146 -0.7015 -0.3648  0.9754
41727SOL    HW230502   6.386  10.466   0.042 -2.4327 -2.8619  3.7387
41728SOL     OW30503  10.444   1.278   7.732  0.7218 -0.5345  0.3601
41728SOL    HW130504  10.357   1.256   7.767  0.6289 -1.6474 -0.5146
41728SOL    HW230505  10.504   1.259   7.803  0.2734  0.0548  0.9082
41729SOL     OW30506   1.799   1.831   9.642 -0.9404 -0.0026  0.7041
41729SOL    HW130507   1.729   1.775   9.676 -1.1034 -0.0846  0.2404
41729SOL    HW230508   1.872   1.772   9.628  0.9740  0.6939  5.6560
41730SOL     OW30509   9.097   1.674   3.824  0.9164  0.0173  0.1854
41730SOL    HW130510   9.173   1.730   3.810  0.7165  0.0132 -1.0529
41730SOL    HW230511   9.130   1.585   3.809  1.0429 -0.1501  1.3336
41731SOL     OW30512   9.292   6.059   7.650  0.0236 -0.4146  0.5504
41731SOL    HW130513   9.316   6.044   7.742 -2.0794  1.5399  1.5126
41731SOL    HW230514   9.261   5.973   7.620  2.2255 -1.4754  1.0990
41732SOL     OW30515   0.082   3.847   2.081  0.1301  0.2138  0.0792
41732SOL    HW130516   0.090   3.924   2.026  0.8015  0.4690  0.5290
41732SOL    HW230517   0.140   3.863   2.155 -0.1142 -0.4942  0.4398
41733SOL     OW30518   7.973   0.671   0.038  0.2958  0.3374 -0.2661
41733SOL    HW130519   7.989   0.716  -0.045  0.7665 -0.2362 -0.4922
41733SOL    HW230520   8.059   0.641   0.067 -0.1610 -1.6505 -0.8460
41734SOL     OW30521   2.129   3.912   8.121  0.4774  0.0091  0.1675
41734SOL    HW130522   2.216   3.946   8.102  0.0569  0.7446 -0.4891
41734SOL    HW230523   2.128   3.902   8.216  0.6273  1.8596  0.3997
41735SOL     OW30524   0.414  10.910   4.931  0.1143 -0.2061 -0.0150
41735SOL    HW130525   0.400  10.950   4.845  1.5804 -0.3359 -0.3417
41735SOL    HW230526   0.328  10.913   4.973 -0.9428 -1.2510 -1.9435
41736SOL     OW30527  11.081   9.897   8.287 -0.0198  0.4007  0.3799
41736SOL    HW130528  11.115   9.985   8.301  1.2622 -0.0263  0.0443
41736SOL    HW230529  11.012   9.908   8.221  0.9647  0.9972 -0.5755
41737SOL     OW30530   2.442   2.544   5.429  0.2954 -0.6288 -0.1645
41737SOL    HW130531   2.469   2.495   5.507  0.9953  0.1352  0.0904
41737SOL    HW230532   2.351   2.569   5.445 -0.1060 -1.9213 -0.3477
41738SOL     OW30533  10.840   9.577   7.780 -0.2060 -0.0576 -0.3016
41738SOL    HW130534  10.935   9.590   7.788 -0.1986 -0.0481 -0.4128
41738SOL    HW230535  10.803   9.636   7.846 -0.2876  2.0544 -2.1418
41739SOL     OW30536   2.151   2.427   8.573 -0.1675 -0.3542  0.2418
41739SOL    HW130537   2.218   2.490   8.547 -0.0046 -1.6162 -2.7975
41739SOL    HW230538   2.093   2.476   8.631  1.0626  1.9808 -0.3741
41740SOL     OW30539   7.997   0.829   1.998 -0.1919  0.9855  0.0781
41740SOL    HW130540   7.927   0.780   1.955 -0.7199  1.7730  0.0234
41740SOL    HW230541   8.071   0.823   1.938 -0.0259 -0.3091  0.3852
41741SOL     OW30542   6.748   9.375   1.038 -0.0499 -0.5129  0.4074
41741SOL    HW130543   6.664   9.362   1.082  0.6323 -2.4155  1.2569
41741SOL    HW230544   6.806   9.409   1.107 -0.2801  1.5524 -0.3645
41742SOL     OW30545   8.396   8.896   3.243  0.1662  0.1569  0.1291
41742SOL    HW130546   8.430   8.810   3.217  1.0572  0.6792 -0.4800
41742SOL    HW230547   8.378   8.887   3.336 -0.4104 -0.8996 -0.0691
41743SOL     OW30548  10.749   4.021   2.239 -0.1807  0.3672  0.5012
41743SOL    HW130549  10.730   3.930   2.262  1.4323 -0.6689 -1.8593
41743SOL    HW230550  10.811   4.050   2.306  0.4545 -0.8035  0.4604
41744SOL     OW30551   4.594   2.189   8.088  0.8835  0.2788 -0.1678
41744SOL    HW130552   4.528   2.258   8.091  0.2099 -0.2680 -1.3940
41744SOL    HW230553   4.644   2.207   8.008  0.0990 -1.1252 -1.0335
41745SOL     OW30554   9.340  11.521   0.887  0.1097 -0.3695  0.3553
41745SOL    HW130555   9.391  11.566   0.819 -0.3259  1.0929  0.9550
41745SOL    HW230556   9.251  11.553   0.875 -0.4467 -1.9478  0.1142
41746SOL     OW30557   0.899   6.481  10.717  0.6531 -0.2118 -0.1101
41746SOL    HW130558   0.822   6.488  10.660 -0.3845 -0.6695  1.1763
41746SOL    HW230559   0.906   6.567  10.758  1.3842  0.1099 -0.9007
41747SOL     OW30560   4.967   5.373  10.421  0.1159  0.2890  0.0683
41747SOL    HW130561   4.993   5.447  10.367 -1.5534  1.5449  0.8799
41747SOL    HW230562   4.876   5.356  10.396  0.5996 -1.8432 -0.4473
41748SOL     OW30563   4.012   0.284   3.091  0.3287 -0.2481 -0.3023
41748SOL    HW130564   3.931   0.273   3.140 -0.1131 -2.5110 -1.3942
41748SOL    HW230565   4.007   0.373   3.055 -2.5836 -0.9129 -1.8193
41749SOL     OW30566   9.765   4.813   9.960 -0.1797  0.0179 -0.0170
41749SOL    HW130567   9.765   4.718   9.969 -2.2333  0.0195  0.4686
41749SOL    HW230568   9.775   4.846  10.050  1.7056  0.3144 -0.2947
41750SOL     OW30569   7.092   9.360   4.037 -0.2307  0.7421  0.1454
41750SOL    HW130570   7.171   9.312   4.062 -0.3464  0.1140 -0.6646
41750SOL    HW230571   7.038   9.360   4.116  0.7676  1.5994  0.8532
41751SOL     OW30572   1.986   1.333   6.604  0.4341 -0.0930 -0.1640
41751SOL    HW130573   2.052   1.271   6.635 -0.1797 -0.8624 -0.3630
41751SOL    HW230574   1.926   1.343   6.678  0.0655 -0.3940 -0.4194
41752SOL     OW30575   5.952   7.672   0.074 -0.1137  0.1727 -0.2264
41752SOL    HW130576   5.904   7.755   0.073 -0.1057  0.1804 -0.0281
41752SOL    HW230577   5.992   7.666  -0.013 -1.7619 -0.5880 -0.9629
41753SOL     OW30578   5.169   4.743  10.570 -0.0187 -0.3540  0.2354
41753SOL    HW130579   5.231   4.781  10.508  0.3369 -2.0668 -0.5086
41753SOL    HW230580   5.142   4.660  10.530 -0.1142 -1.2977  2.1371
41754SOL     OW30581   2.060   0.788  10.263  0.0415 -0.1799  0.9998
41754SOL    HW130582   1.976   0.831  10.278 -0.9583 -1.4629 -0.5931
41754SOL    HW230583   2.043   0.695  10.279  0.0487 -1.0288 -2.9251
41755SOL     OW30584   5.880  10.267   2.049 -0.1912  0.9520 -0.4656
41755SOL    HW130585   5.907  10.193   1.995  0.1380  0.3565  0.4751
41755SOL    HW230586   5.956  10.325   2.050  0.4035  0.2053  0.6031
41756SOL     OW30587   9.364   8.065   4.734 -0.5231  0.5715 -0.4193
41756SOL    HW130588   9.293   8.025   4.683  0.2088 -0.9300 -0.3197
41756SOL    HW230589   9.387   7.998   4.799  0.3509  1.4122  0.1735
41757SOL     OW30590   6.206   8.938  11.731 -0.3397  0.2767  0.3281
41757SOL    HW130591   6.295   8.926  11.766  0.3337  1.9323 -0.7068
41757SOL    HW230592   6.168   8.850  11.733  1.8506 -0.7821 -0.6312
41758SOL     OW30593  11.003   4.361  10.699 -0.3725  0.6808  0.1220
41758SOL    HW130594  10.967   4.371  10.788 -1.1669  1.5275 -0.2774
41758SOL    HW230595  10.927   4.371  10.642  0.3999  1.8444 -0.7215
41759SOL     OW30596   8.223   4.315   5.589 -0.4215  0.6743  0.1547
41759SOL    HW130597   8.150   4.254   5.580  0.1829 -0.2682  1.2776
41759SOL    HW230598   8.287   4.267   5.643  0.5827  1.8542  0.0483
41760SOL     OW30599   6.927   9.917   5.815  0.3483 -0.2367 -0.4484
41760SOL    HW130600   6.958   9.844   5.762  0.5074 -0.0329 -0.6383
41760SOL    HW230601   6.834   9.899   5.829  0.0049  0.3355 -1.8442
41761SOL     OW30602   5.719   0.860   6.322 -0.9511 -0.0873 -0.2285
41761SOL    HW130603   5.700   0.869   6.416  0.2022 -0.2500  0.0264
41761SOL    HW230604   5.739   0.949   6.294  0.6233 -0.3042  0.1219
41762SOL     OW30605  10.880   1.615   9.628  0.1604 -0.4857 -0.7192
41762SOL    HW130606  10.931   1.694   9.647 -0.1143 -0.7897  1.6539
41762SOL    HW230607  10.944   1.554   9.591  0.1191  1.1847 -3.8477
41763SOL     OW30608   7.434   5.877  10.047  0.3816 -0.1040  0.6751
41763SOL    HW130609   7.476   5.960  10.070 -0.0458  0.3355 -0.1245
41763SOL    HW230610   7.355   5.901   9.999  1.0398 -0.9737 -0.9298
41764SOL     OW30611   1.320   1.265   7.778 -0.3524 -0.1592  0.2514
41764SOL    HW130612   1.399   1.216   7.800  1.0171  1.2796 -1.1947
41764SOL    HW230613   1.250   1.199   7.777  1.1180 -1.7728 -0.0915
41765SOL     OW30614   0.305   5.716   6.340  0.3694  0.2640 -0.3902
41765SOL    HW130615   0.398   5.715   6.365  0.2293  0.8073  0.1823
41765SOL    HW230616   0.267   5.786   6.392 -0.3829  0.0072 -0.5775
41766SOL     OW30617   5.474   5.338   9.837 -0.0023  0.0157  0.1467
41766SOL    HW130618   5.538   5.370   9.900 -0.3880  0.2154  0.4384
41766SOL    HW230619   5.514   5.258   9.801  0.9774  0.8149 -0.6150
41767SOL     OW30620  10.802   6.470  10.340 -0.3060  0.3100  0.1962
41767SOL    HW130621  10.765   6.526  10.408 -2.3072 -0.3412 -0.2966
41767SOL    HW230622  10.816   6.528  10.265 -1.2847  0.3833  0.0632
41768SOL     OW30623   7.494   9.702   1.769  0.2760 -0.2064 -0.9372
41768SOL    HW130624   7.577   9.662   1.744  0.6707 -1.8737  2.4630
41768SOL    HW230625   7.517   9.792   1.792  0.9534 -0.3517 -1.0268
41769SOL     OW30626   4.573   3.904  11.001  0.7266 -0.4258 -0.0059
41769SOL    HW130627   4.665   3.907  10.973  0.3046 -0.9417 -1.4998
41769SOL    HW230628   4.523   3.931  10.924 -0.3716  0.2995  0.9280
41770SOL     OW30629   3.284   1.108   9.364 -0.3792 -0.0208  0.3108
41770SOL    HW130630   3.283   1.012   9.364 -1.5793 -0.0272  0.8517
41770SOL    HW230631   3.360   1.131   9.416  0.9780 -0.6451 -1.2880
41771SOL     OW30632   9.729   7.911   8.866  0.4498  0.0583  0.1790
41771SOL    HW130633   9.704   7.846   8.932 -0.4555  0.1727 -0.0394
41771SOL    HW230634   9.802   7.959   8.906  0.8682 -0.8365  0.4942
41772SOL     OW30635   4.791   1.984   5.468  0.5523 -0.0028 -0.1399
41772SOL    HW130636   4.806   2.051   5.535  0.5670  0.1196 -0.2646
41772SOL    HW230637   4.698   1.962   5.475 -0.3176  2.4453 -2.3073
41773SOL     OW30638   2.927   5.014   2.206  0.2533 -0.2446 -0.1725
41773SOL    HW130639   2.912   4.921   2.225 -3.7186 -0.0259 -1.4348
41773SOL    HW230640   2.923   5.057   2.292  1.8022 -1.1156  0.3869
41774SOL     OW30641   3.631  11.176   1.116  0.0217 -0.0222  0.0770
41774SOL    HW130642   3.713  11.199   1.160  0.3269 -0.8877 -0.0123
41774SOL    HW230643   3.642  11.084   1.091 -1.3943 -0.4896  1.0216
41775SOL     OW30644   1.599  11.177   9.570  0.2043  0.2687 -0.7118
41775SOL    HW130645   1.593  11.257   9.622  1.1141  0.5690 -1.0404
41775SOL    HW230646   1.662  11.122   9.618 -0.6719 -0.4056 -0.3063
41776SOL     OW30647   6.149   7.250   7.721 -0.4062  0.0935 -0.2488
41776SOL    HW130648   6.061   7.226   7.750 -0.6338 -0.1157 -1.0929
41776SOL    HW230649   6.206   7.219   7.791 -1.1239  1.9888  1.2904
41777SOL     OW30650   7.228   8.723   6.007 -0.3385  0.4777 -0.2459
41777SOL    HW130651   7.140   8.735   6.042 -0.6678 -0.1244 -0.8357
41777SOL    HW230652   7.285   8.727   6.084 -0.7925  1.6713  0.0461
41778SOL     OW30653   9.598  11.268   6.609 -0.1263 -0.3748 -0.9095
41778SOL    HW130654   9.519  11.272   6.661 -0.0895 -1.1286 -0.7780
41778SOL    HW230655   9.638  11.184   6.633  0.0474 -0.5963 -1.9131
41779SOL     OW30656  10.249   8.708   5.759  0.2725  0.2634 -0.1713
41779SOL    HW130657  10.182   8.686   5.694 -1.1475 -1.2562  1.6758
41779SOL    HW230658  10.308   8.633   5.758 -0.9908 -0.8545  1.7061
41780SOL     OW30659   1.074   7.411   7.459  0.1857 -0.1549  0.0784
41780SOL    HW130660   1.091   7.478   7.524  1.7360 -2.4606  2.2430
41780SOL    HW230661   0.991   7.371   7.487  0.2099 -0.3359 -0.1005
41781SOL     OW30662   7.971   6.015  10.638  0.1386  0.1872 -0.2837
41781SOL    HW130663   8.018   5.996  10.720 -0.3218 -0.1262 -0.0880
41781SOL    HW230664   8.020   5.968  10.571 -1.3280 -2.3139  0.2711
41782SOL     OW30665   3.300   8.336   9.600  0.6365  0.3918 -0.1347
41782SOL    HW130666   3.351   8.310   9.523  0.3078 -1.0081  0.0859
41782SOL    HW230667   3.310   8.262   9.661  0.1024  1.0534  0.7744
41783SOL     OW30668   5.604   7.293  10.926  0.4358  0.1016 -0.5944
41783SOL    HW130669   5.655   7.212  10.936 -0.0588 -0.2687 -1.0605
41783SOL    HW230670   5.537   7.272  10.861 -0.1386  0.6729 -0.2012
41784SOL     OW30671   5.393   4.585   6.021 -0.0548 -0.3374 -0.3014
41784SOL    HW130672   5.360   4.618   5.938 -0.5679 -1.9713 -0.7847
41784SOL    HW230673   5.368   4.492   6.022  2.1230 -0.9959  0.5234
41785SOL     OW30674   3.827  11.580   4.681 -0.3718 -0.4707 -0.3394
41785SOL    HW130675   3.859  11.567   4.770 -0.6737  0.3362 -0.1038
41785SOL    HW230676   3.891  11.533   4.626 -0.9424 -2.1675  0.3677
41786SOL     OW30677  10.276   5.559   8.614 -0.0758  0.4402  0.2870
41786SOL    HW130678  10.305   5.542   8.525  0.2584  0.6676  0.3475
41786SOL    HW230679  10.299   5.479   8.663  0.3817  0.5821  0.3142
41787SOL     OW30680   9.890   8.462   3.791  0.2017 -0.2071 -0.0895
41787SOL    HW130681   9.918   8.463   3.883 -0.4029  0.2175  0.0957
41787SOL    HW230682   9.925   8.543   3.755 -0.5968  0.2285  0.0908
41788SOL     OW30683   2.889   8.143   0.377  0.6759 -0.5228  0.0493
41788SOL    HW130684   2.897   8.202   0.302 -0.6335 -0.6583 -0.2195
41788SOL    HW230685   2.979   8.122   0.401  1.4145  3.6006  1.7753
41789SOL     OW30686  10.473  10.151  10.610  0.1368 -0.1422  0.1052
41789SOL    HW130687  10.448  10.069  10.568 -0.5802  0.5871 -0.9506
41789SOL    HW230688  10.545  10.184  10.556  1.0898 -0.5358  1.1005
41790SOL     OW30689   8.818  10.481   3.571  0.1659  0.3214 -0.1428
41790SOL    HW130690   8.880  10.555   3.568  2.2754 -1.3818 -2.0075
41790SOL    HW230691   8.816  10.455   3.664  0.3746  1.8864  0.3296
41791SOL     OW30692   6.602   9.791   3.675 -0.7023  0.3674 -0.2240
41791SOL    HW130693   6.625   9.836   3.593 -0.6267 -0.2205 -0.5354
41791SOL    HW230694   6.511   9.765   3.663 -1.6475  2.7664  1.0432
41792SOL     OW30695   5.415   5.631  11.324  0.6054  0.6673  0.5815
41792SOL    HW130696   5.366   5.689  11.266  3.1591  0.3152 -2.1638
41792SOL    HW230697   5.381   5.544  11.307  1.3984  0.5555 -0.5252
41793SOL     OW30698   6.274   1.345   9.615  0.7500  0.0447  0.3501
41793SOL    HW130699   6.352   1.389   9.581 -0.0362  0.8495 -0.4357
41793SOL    HW230700   6.243   1.291   9.543  0.7188 -0.4764  0.7456
41794SOL     OW30701   8.550   8.338   3.009 -0.1114  0.0205  0.5467
41794SOL    HW130702   8.612   8.407   2.986 -0.8648  0.3405 -0.6246
41794SOL    HW230703   8.491   8.333   2.933 -0.3865 -1.5476  0.8352
41795SOL     OW30704   2.133  10.971  11.676 -0.1935  0.2029 -0.0578
41795SOL    HW130705   2.103  11.059  11.658  0.6304  0.2220 -1.4338
41795SOL    HW230706   2.053  10.919  11.681 -0.5914  0.5920 -1.7375
41796SOL     OW30707  11.503   7.689   4.087 -0.7068 -0.0307  0.1109
41796SOL    HW130708  11.513   7.758   4.153  0.6395  0.6369 -0.7575
41796SOL    HW230709  11.465   7.615   4.136  1.2174  0.0660  1.8847
41797SOL     OW30710   8.717  10.902   8.799  0.1064  0.6644 -0.3405
41797SOL    HW130711   8.641  10.961   8.802 -0.4442 -0.0124 -0.6472
41797SOL    HW230712   8.741  10.900   8.706  0.2150  0.5179 -0.3082
41798SOL     OW30713   4.085   7.118   0.011  0.5777 -0.2468 -0.9184
41798SOL    HW130714   4.126   7.036   0.039  0.9061  0.2233  0.0213
41798SOL    HW230715   4.084   7.113  -0.084  1.2539 -1.0250 -0.8940
41799SOL     OW30716   7.903   7.548   2.417 -0.2468 -0.1300  0.2515
41799SOL    HW130717   7.824   7.543   2.472 -1.0740 -0.6105 -0.9533
41799SOL    HW230718   7.953   7.469   2.440 -1.3608 -1.1708 -0.8194
41800SOL     OW30719   4.168   0.028   9.278 -0.0961 -0.1080 -0.7597
41800SOL    HW130720   4.153   0.115   9.315  1.1811 -0.3668  0.4637
41800SOL    HW230721   4.220   0.045   9.199  2.4866  0.1695  0.8761
41801SOL     OW30722   9.782   6.530   8.375 -0.3912  0.7588  0.4916
41801SOL    HW130723   9.835   6.564   8.447  1.4722  0.5715 -0.7245
41801SOL    HW230724   9.764   6.439   8.401  0.2832  0.6823  0.7161
41802SOL     OW30725  11.820   4.435   7.270 -0.0718 -0.2468 -0.4279
41802SOL    HW130726  11.848   4.379   7.342 -0.2560 -1.0287 -0.9572
41802SOL    HW230727  11.727   4.449   7.285  0.3011  1.4063  0.6885
41803SOL     OW30728   7.512   0.153   5.275 -0.1256  0.4472 -0.0651
41803SOL    HW130729   7.479   0.241   5.294 -1.5359 -0.4757  2.2093
41803SOL    HW230730   7.454   0.119   5.207 -1.2641  0.3553  0.9300
41804SOL     OW30731   9.982  10.717   7.915 -0.0650 -0.1515  0.1523
41804SOL    HW130732   9.982  10.634   7.868  0.0334 -0.2831  0.3814
41804SOL    HW230733   9.989  10.692   8.008 -0.7436  0.0839  0.2738
41805SOL     OW30734   4.858   6.687   1.586  0.1947  0.1652  0.5778
41805SOL    HW130735   4.952   6.704   1.596  1.4663 -2.1994 -4.1726
41805SOL    HW230736   4.823   6.768   1.548  0.7702  0.3821  0.5053
41806SOL     OW30737   4.535   4.792   6.768  0.6258  0.1227 -0.2627
41806SOL    HW130738   4.468   4.835   6.715  0.3686 -0.7327 -0.6552
41806SOL    HW230739   4.541   4.703   6.732  3.2226  0.6627 -1.3746
41807SOL     OW30740   3.585   6.643   3.040 -0.3554  0.0043  0.0034
41807SOL    HW130741   3.583   6.552   3.069 -0.2385  0.1009  0.3183
41807SOL    HW230742   3.585   6.694   3.121  2.3673  0.2537 -0.0539
41808SOL     OW30743  11.459   8.029  11.490  0.2979 -0.1452  0.3140
41808SOL    HW130744  11.527   8.083  11.448 -0.0970  0.3001  0.2434
41808SOL    HW230745  11.378   8.057  11.448  0.1937 -1.4799 -0.4253
41809SOL     OW30746   8.488   7.811   0.826  0.5487  0.2664  0.0072
41809SOL    HW130747   8.511   7.882   0.886  3.1203 -1.8484  1.7170
41809SOL    HW230748   8.556   7.814   0.759 -0.5439  0.6683 -1.1234
41810SOL     OW30749  10.635   4.106   7.283 -0.0331 -0.4317 -0.6352
41810SOL    HW130750  10.588   4.025   7.303  0.8918 -0.8938 -0.2725
41810SOL    HW230751  10.711   4.078   7.232  0.7282  0.0997  0.1687
41811SOL     OW30752   7.432   6.003   7.151 -0.3437 -0.4567  0.2947
41811SOL    HW130753   7.416   6.002   7.056 -0.8588  1.3555  0.3131
41811SOL    HW230754   7.370   6.068   7.184  0.8587  0.0330  1.6764
41812SOL     OW30755  10.818   4.622   4.062 -0.0379  0.2223  0.3107
41812SOL    HW130756  10.870   4.596   4.138  0.3648  0.1775  0.0297
41812SOL    HW230757  10.812   4.717   4.068 -0.1153  0.2061  0.4692
41813SOL     OW30758   9.648  11.387   2.475  0.4759 -0.1485  0.1261
41813SOL    HW130759   9.707  11.316   2.450  2.0480  0.9626  0.5135
41813SOL    HW230760   9.622  11.366   2.565 -1.0686 -1.4727 -0.5808
41814SOL     OW30761   9.971  10.753   0.453 -0.5280 -0.0623 -0.2817
41814SOL    HW130762   9.909  10.688   0.486 -1.3408  0.0101 -1.6008
41814SOL    HW230763  10.011  10.711   0.376  0.6343  0.1248  0.2002
41815SOL     OW30764   9.518   8.156  10.378 -0.0170  0.3222 -0.0193
41815SOL    HW130765   9.536   8.218  10.448  1.1649 -1.2506  1.1429
41815SOL    HW230766   9.439   8.110  10.407  0.0441  0.1759 -0.0842
41816SOL     OW30767   9.838  10.445   2.148 -0.0493 -0.2427  0.4835
41816SOL    HW130768   9.836  10.403   2.062  0.2127 -1.2648  0.9544
41816SOL    HW230769   9.906  10.512   2.140  0.6361 -0.9565  0.1628
41817SOL     OW30770   5.957   3.730   4.392 -0.2203 -0.6113  0.0771
41817SOL    HW130771   5.869   3.760   4.367  1.2007  3.0409 -1.2513
41817SOL    HW230772   5.976   3.658   4.332 -1.6401 -0.2981 -0.7958
41818SOL     OW30773   1.889   2.834   5.174  0.5922 -0.7545 -0.2205
41818SOL    HW130774   1.927   2.759   5.128  1.0850  0.3083 -1.6079
41818SOL    HW230775   1.934   2.910   5.138 -1.3093  0.3874 -0.3361
41819SOL     OW30776   6.315   0.085   4.270  0.1689  0.2246  0.1561
41819SOL    HW130777   6.258   0.156   4.300  0.9590  1.0028 -0.1696
41819SOL    HW230778   6.374   0.069   4.344 -0.1843 -0.2894  0.3323
41820SOL     OW30779   5.247  10.272   3.098 -0.0586 -0.0665  0.0579
41820SOL    HW130780   5.269  10.349   3.046 -0.2186  0.1265  0.2773
41820SOL    HW230781   5.152  10.276   3.109 -0.1603 -0.6630 -0.5121
41821SOL     OW30782   4.702   1.029   5.834  0.0632  0.1841 -0.2594
41821SOL    HW130783   4.616   0.988   5.848  0.0798 -0.8286 -2.6633
41821SOL    HW230784   4.701   1.106   5.890 -1.4390 -1.0941  1.6313
41822SOL     OW30785   6.673   8.535   2.271  0.6682 -0.3242  0.2793
41822SOL    HW130786   6.610   8.505   2.205  0.3037 -0.5996  0.7494
41822SOL    HW230787   6.717   8.455   2.301  0.5907 -0.2402  0.6182
41823SOL     OW30788   5.727  10.229   6.767  0.0554  0.0128  0.7442
41823SOL    HW130789   5.710  10.291   6.696 -3.4931 -0.4500  1.0061
41823SOL    HW230790   5.814  10.253   6.799 -0.2289  3.4194 -0.5617
41824SOL     OW30791   1.098   8.359   5.260 -0.5712  0.1925 -0.1947
41824SOL    HW130792   1.080   8.365   5.354  1.1282 -1.2196  0.2865
41824SOL    HW230793   1.051   8.281   5.231 -0.2342  0.0065 -0.2571
41825SOL     OW30794   6.059   4.332   1.553  0.1977 -0.4904 -0.1006
41825SOL    HW130795   5.995   4.271   1.590  0.3906  0.5429  2.1068
41825SOL    HW230796   6.046   4.412   1.602 -0.2575  1.4429 -3.1205
41826SOL     OW30797  11.236   1.269   2.743  0.2221  0.4630 -0.3670
41826SOL    HW130798  11.284   1.216   2.807  2.2227  2.6445  0.0604
41826SOL    HW230799  11.223   1.211   2.668  2.2263 -0.6687  0.1034
41827SOL     OW30800   3.361  10.675   4.880  0.0778  0.2824 -0.6667
41827SOL    HW130801   3.350  10.761   4.921 -2.6763  0.2484 -1.1114
41827SOL    HW230802   3.337  10.613   4.949 -0.0337 -0.0046 -0.9636
41828SOL     OW30803   2.744   1.210   8.826 -0.2277  0.1184  0.0364
41828SOL    HW130804   2.692   1.277   8.869  1.3523  0.8614  0.9049
41828SOL    HW230805   2.785   1.255   8.752  0.3261 -0.0313  0.2393
41829SOL     OW30806  10.554   5.965   8.620 -0.7833  0.4661  0.5874
41829SOL    HW130807  10.584   5.998   8.535  1.9418  2.3532  2.1056
41829SOL    HW230808  10.620   5.900   8.645 -0.7716  0.9284  1.8304
41830SOL     OW30809   1.949   3.328   3.117  0.7446  0.1323 -0.7573
41830SOL    HW130810   2.043   3.324   3.136  1.1317  1.3605 -2.2066
41830SOL    HW230811   1.944   3.324   3.021 -0.4647  2.7018 -0.8821
41831SOL     OW30812   2.031   1.265   1.342 -0.1191 -0.7861 -0.1491
41831SOL    HW130813   1.991   1.305   1.265 -1.3883  1.3079  1.5002
41831SOL    HW230814   2.114   1.310   1.353 -0.1922 -0.6872  0.0105
41832SOL     OW30815   5.643   5.590   3.662  0.3270  0.9298 -0.2249
41832SOL    HW130816   5.559   5.546   3.673  0.3058  0.5773 -1.5814
41832SOL    HW230817   5.624   5.683   3.675  0.0328  0.7147  0.9412
41833SOL     OW30818   0.939   5.655   4.213  0.3315  0.3376 -0.4752
41833SOL    HW130819   0.885   5.701   4.149 -0.6440 -2.2640 -1.6636
41833SOL    HW230820   0.919   5.698   4.296 -0.8619  1.7127 -1.4159
41834SOL     OW30821   0.289   7.746   4.148  0.0961  0.5558 -0.4561
41834SOL    HW130822   0.311   7.713   4.235 -0.4906  0.0907 -0.4802
41834SOL    HW230823   0.194   7.748   4.146  0.1090  0.7432 -1.0232
41835SOL     OW30824   5.810  11.427   2.969 -0.4603 -0.1913 -0.7559
41835SOL    HW130825   5.843  11.337   2.965 -0.4022 -0.1876 -0.3826
41835SOL    HW230826   5.718  11.418   2.993 -0.3438 -0.1329 -0.2797
41836SOL     OW30827   8.798   8.668   2.204  0.7628  0.0034  0.1519
41836SOL    HW130828   8.752   8.584   2.200  2.4254 -0.9615 -0.0082
41836SOL    HW230829   8.753   8.724   2.141 -0.5391 -0.6718  0.4447
41837SOL     OW30830   9.578   2.818   6.977  0.2252  0.2851  0.6294
41837SOL    HW130831   9.549   2.909   6.985 -0.4381 -0.0023  1.7793
41837SOL    HW230832   9.633   2.804   7.054  0.5732 -0.2040  0.2979
41838SOL     OW30833   2.681   8.729   1.781 -0.1660  0.4187  0.4397
41838SOL    HW130834   2.755   8.789   1.781  0.2486 -0.0290 -1.3161
41838SOL    HW230835   2.662   8.714   1.874  0.8535  1.8397  0.9132
41839SOL     OW30836   2.393   4.235   2.702  0.2500 -0.6163  0.3647
41839SOL    HW130837   2.391   4.159   2.643  0.2757 -0.7303  0.5111
41839SOL    HW230838   2.483   4.267   2.696  0.0672 -0.1799 -0.2256
41840SOL     OW30839  11.794   3.260   8.737 -0.0278  0.0721 -0.4169
41840SOL    HW130840  11.854   3.240   8.810 -0.8931  0.1312  0.3296
41840SOL    HW230841  11.851   3.265   8.660  1.1771  1.8277  0.5198
41841SOL     OW30842   1.159  10.579   5.472  0.6485  0.2133 -0.0611
41841SOL    HW130843   1.068  10.581   5.445  0.3678  0.3101  0.8728
41841SOL    HW230844   1.175  10.489   5.500  0.3354  0.5914  1.4150
41842SOL     OW30845   2.532   3.003   2.914 -0.6434 -0.4093  0.2316
41842SOL    HW130846   2.513   3.067   2.983 -0.3305 -0.7868  0.6700
41842SOL    HW230847   2.462   2.938   2.921 -1.2116  0.1050 -0.4994
41843SOL     OW30848   4.260   3.142   9.581  0.1711  0.4900  0.4165
41843SOL    HW130849   4.312   3.221   9.592  0.1755  0.3610  1.5131
41843SOL    HW230850   4.278   3.091   9.660  0.5503 -0.8288 -0.4906
41844SOL     OW30851   0.653  10.679   9.239  0.1818  0.5050 -0.3516
41844SOL    HW130852   0.721  10.745   9.250 -0.6665  1.3659 -0.0529
41844SOL    HW230853   0.676  10.632   9.159  2.2966 -0.7034  0.8844
41845SOL     OW30854   2.137   8.005   2.069  0.4477  0.1109 -0.2230
41845SOL    HW130855   2.199   7.950   2.022  0.0992 -0.8609  0.4147
41845SOL    HW230856   2.080   7.943   2.114  0.7235  0.9920  1.4167
41846SOL     OW30857   0.860   1.998   7.291 -0.5111 -0.1675 -0.3794
41846SOL    HW130858   0.898   1.916   7.325  0.3085  0.4720  0.3173
41846SOL    HW230859   0.866   2.059   7.365 -0.4582  0.7199 -1.0956
41847SOL     OW30860  11.196   3.672   1.164 -0.5052  0.1002 -0.3968
41847SOL    HW130861  11.107   3.662   1.130 -0.6226  1.8644 -0.6645
41847SOL    HW230862  11.251   3.684   1.087  0.3057 -2.8025 -0.3810
41848SOL     OW30863   4.283   9.305  10.485 -0.4212 -0.5137  0.6105
41848SOL    HW130864   4.219   9.235  10.474 -0.8211  0.0297 -0.7896
41848SOL    HW230865   4.338   9.277  10.557 -0.3145 -2.4708 -0.1723
41849SOL     OW30866   0.671   9.341   7.859 -0.2442  0.2791 -0.2512
41849SOL    HW130867   0.660   9.351   7.765  1.0588 -0.9441 -0.5724
41849SOL    HW230868   0.697   9.428   7.890 -1.5850  0.9210 -0.8487
41850SOL     OW30869   7.231   3.696   0.250  0.8291  0.1179 -0.4442
41850SOL    HW130870   7.298   3.687   0.318  1.9377  1.2139 -1.3442
41850SOL    HW230871   7.235   3.788   0.224 -2.5328  0.8098  0.9447
41851SOL     OW30872   7.307   9.051  10.288 -0.2687  0.7958  0.7286
41851SOL    HW130873   7.274   8.968  10.323 -1.3282  0.8437 -0.1212
41851SOL    HW230874   7.232   9.090  10.242  1.5266 -0.3232 -3.6393
41852SOL     OW30875   4.358   9.109   8.134  0.4359 -0.1086 -0.0147
41852SOL    HW130876   4.334   9.081   8.046  0.8773 -0.0176 -0.1670
41852SOL    HW230877   4.416   9.040   8.166 -0.7272 -0.7824  0.6959
41853SOL     OW30878  10.714   0.203   2.468 -0.0486  0.1200  0.1154
41853SOL    HW130879  10.673   0.168   2.388  2.0997 -4.2325  0.6324
41853SOL    HW230880  10.640   0.227   2.524 -1.7910 -2.2674 -1.0074
41854SOL     OW30881   1.032   3.296   0.244 -0.0271 -0.3684  0.6448
41854SOL    HW130882   0.986   3.217   0.271  0.0936 -0.3064  1.0434
41854SOL    HW230883   1.029   3.353   0.322  0.6327 -0.3263  0.6422
41855SOL     OW30884   1.587  10.741   3.880 -0.0983  0.2047 -0.3419
41855SOL    HW130885   1.497  10.756   3.849 -0.9029  2.2885  2.5898
41855SOL    HW230886   1.584  10.653   3.919 -1.1139  0.5148  0.3381
41856SOL     OW30887   3.871  11.335  11.682  0.2497 -0.1730 -0.4360
41856SOL    HW130888   3.965  11.319  11.677  0.1964 -0.5808 -0.2027
41856SOL    HW230889   3.862  11.430  11.672  0.8261  0.1284  1.5573
41857SOL     OW30890  10.872   2.861   0.891 -0.4696  0.0074 -0.1455
41857SOL    HW130891  10.958   2.825   0.913 -0.0845  0.2691 -1.1673
41857SOL    HW230892  10.882   2.955   0.905 -0.9088 -0.0690  0.7226
41858SOL     OW30893   4.621   5.455   1.072 -0.1343  0.1676 -0.5997
41858SOL    HW130894   4.667   5.422   1.149 -0.5303  1.1279  0.0642
41858SOL    HW230895   4.689   5.489   1.015  0.1255 -0.1532 -0.4842
41859SOL     OW30896   4.808   0.501  10.137 -0.0205 -0.0528 -0.2297
41859SOL    HW130897   4.848   0.538  10.216  0.3634 -0.1937 -0.3568
41859SOL    HW230898   4.721   0.474  10.165 -0.5367  1.4620 -0.2527
41860SOL     OW30899   8.350   3.997   0.094 -0.1441 -0.3125  0.6111
41860SOL    HW130900   8.364   3.903   0.094 -0.1650 -0.4641 -2.9728
41860SOL    HW230901   8.256   4.008   0.079 -0.1091  0.2720  0.7631
41861SOL     OW30902   0.267   1.505   0.332  0.3053 -0.4276  0.5786
41861SOL    HW130903   0.334   1.501   0.264  0.0107 -0.9808  0.3093
41861SOL    HW230904   0.268   1.596   0.362  1.6824 -0.5825  1.0926
41862SOL     OW30905   1.052  10.863  10.435 -0.2490 -0.1525 -0.2140
41862SOL    HW130906   1.124  10.801  10.423  0.0957 -0.0980  1.3929
41862SOL    HW230907   1.081  10.943  10.391  1.6248  0.5414  2.0538
41863SOL     OW30908   3.841   2.471   8.189  0.3349  0.2963  0.3534
41863SOL    HW130909   3.906   2.441   8.253  0.1374  1.4934  1.1361
41863SOL    HW230910   3.889   2.530   8.132  0.6990 -1.3360 -1.1380
41864SOL     OW30911   9.622  11.373   1.683  0.1756 -0.1362  0.3854
41864SOL    HW130912   9.629  11.457   1.639  1.6368  0.0218  0.8797
41864SOL    HW230913   9.593  11.312   1.615 -2.6140  1.0330  0.3930
41865SOL     OW30914  10.993   5.420   5.907 -0.3099 -0.1580  0.5894
41865SOL    HW130915  10.926   5.470   5.861 -0.5478 -0.8011  0.2316
41865SOL    HW230916  11.070   5.425   5.849  0.0194  0.7079  1.0702
41866SOL     OW30917   6.184  11.358   9.207 -0.6578  0.0098 -0.1646
41866SOL    HW130918   6.096  11.329   9.232 -0.2251 -0.3112  1.0437
41866SOL    HW230919   6.180  11.454   9.211 -0.7362 -0.0217  0.7041
41867SOL     OW30920   0.797   7.215   6.883  0.1216  0.3940  0.4483
41867SOL    HW130921   0.747   7.145   6.841 -1.0452  0.7151  1.2450
41867SOL    HW230922   0.767   7.213   6.974  1.0569  1.0688  0.7797
41868SOL     OW30923   8.435  10.367   4.359  0.2358 -0.7665 -0.3392
41868SOL    HW130924   8.435  10.355   4.454 -2.0213 -2.2277 -0.4499
41868SOL    HW230925   8.410  10.459   4.346 -2.1213 -1.2102  0.5360
41869SOL     OW30926   5.024   0.135   2.177 -0.2000 -0.0536  0.6313
41869SOL    HW130927   4.977   0.051   2.173  0.5363 -0.4380 -0.2852
41869SOL    HW230928   4.954   0.201   2.177 -0.8173 -0.5586 -2.1641
41870SOL     OW30929   9.493   7.897   0.411  0.3886 -0.1984 -0.2454
41870SOL    HW130930   9.573   7.894   0.464 -0.0958 -0.9199  0.4551
41870SOL    HW230931   9.509   7.833   0.341  0.5208 -0.1605 -0.2509
41871SOL     OW30932   8.719   4.248   1.682 -0.5074  0.3738  0.2234
41871SOL    HW130933   8.769   4.251   1.600  1.7269 -0.1114  1.4742
41871SOL    HW230934   8.661   4.324   1.678  0.3050  0.9552 -1.3324
41872SOL     OW30935   6.453   0.448   6.034  0.3145  0.3596  0.5643
41872SOL    HW130936   6.400   0.373   6.007 -1.0277  0.8948  1.5981
41872SOL    HW230937   6.514   0.412   6.099  0.8853 -0.1539 -0.2346
41873SOL     OW30938   5.113   4.945   5.639 -0.4782 -0.0137  0.1778
41873SOL    HW130939   5.133   4.942   5.546 -3.0609 -0.2605 -0.4365
41873SOL    HW230940   5.125   5.037   5.663  1.2200 -0.1234 -0.0841
41874SOL     OW30941  11.441   1.174   6.091  0.1263  0.5505  0.6629
41874SOL    HW130942  11.378   1.153   6.021  0.7632  0.4553  0.1109
41874SOL    HW230943  11.392   1.159   6.172 -0.3547 -0.1920  0.2502
41875SOL     OW30944   0.902   2.231   1.565  0.0310 -0.5026  0.5090
41875SOL    HW130945   0.927   2.168   1.497  1.4967  2.8852 -2.4271
41875SOL    HW230946   0.985   2.264   1.599 -0.5887  1.6124  0.0957
41876SOL     OW30947   6.628   6.652   3.024  0.0504  0.3585  0.3158
41876SOL    HW130948   6.607   6.732   2.976  0.1182  0.2150  0.0461
41876SOL    HW230949   6.665   6.683   3.106 -1.2841  0.6239  0.8476
41877SOL     OW30950   8.401   6.645   0.730 -0.2300  0.7739 -0.4233
41877SOL    HW130951   8.329   6.686   0.683 -0.7354 -1.4093 -1.6606
41877SOL    HW230952   8.468   6.630   0.663  0.5230  0.8572  0.2923
41878SOL     OW30953   1.259   0.574   7.480 -0.0668  0.1874  0.1424
41878SOL    HW130954   1.189   0.533   7.532  0.1445  0.1684  0.4173
41878SOL    HW230955   1.261   0.523   7.399  0.8992 -1.0518  0.9042
41879SOL     OW30956  10.101   0.837  10.023  0.4937 -0.4366  0.6996
41879SOL    HW130957  10.134   0.892   9.953  1.8841 -0.5014  1.2791
41879SOL    HW230958  10.179   0.799  10.064 -0.0144  1.3549  3.7162
41880SOL     OW30959   4.527   8.677  10.617 -0.3241 -0.2784  0.1172
41880SOL    HW130960   4.454   8.622  10.587  1.3270 -1.4053 -2.1618
41880SOL    HW230961   4.556   8.636  10.698 -0.0800 -1.9926 -0.7785
41881SOL     OW30962   6.156   5.966   7.164  0.2174 -0.2572  0.3858
41881SOL    HW130963   6.068   5.930   7.164  0.5571 -1.1420  1.2392
41881SOL    HW230964   6.144   6.060   7.150 -0.8507 -0.3758  0.4525
41882SOL     OW30965  10.409   5.931   1.364 -0.7965 -0.3987  0.3005
41882SOL    HW130966  10.331   5.981   1.341 -0.2919  0.4002  0.2590
41882SOL    HW230967  10.438   5.892   1.282 -1.1058 -0.6268  0.3000
41883SOL     OW30968  10.324   2.734   5.148  0.1533 -0.0231 -0.2450
41883SOL    HW130969  10.259   2.805   5.153 -0.9435 -1.0239  0.2604
41883SOL    HW230970  10.335   2.707   5.239 -0.1891 -1.1561 -0.5354
41884SOL     OW30971   2.802  11.131   8.616 -0.6138  0.0524 -0.0990
41884SOL    HW130972   2.834  11.043   8.636  0.4858  0.5991  0.6596
41884SOL    HW230973   2.811  11.138   8.521  1.8309  0.2232  0.0596
41885SOL     OW30974   3.714   3.787   6.167 -0.5596 -0.0785  0.0131
41885SOL    HW130975   3.772   3.711   6.168 -0.1132  0.2600  0.4846
41885SOL    HW230976   3.629   3.752   6.139  0.1303 -0.3796 -1.8456
41886SOL     OW30977   7.806   9.774   8.950  0.2695  0.0532  0.2767
41886SOL    HW130978   7.876   9.726   8.993  1.9298  0.7009 -1.5781
41886SOL    HW230979   7.777   9.838   9.015  0.0476 -1.4330  1.7198
41887SOL     OW30980   2.360   8.396   5.697  0.3674 -0.1698 -0.0603
41887SOL    HW130981   2.317   8.311   5.699  2.6111 -1.3731  0.7967
41887SOL    HW230982   2.346   8.428   5.608 -0.7264 -1.3106 -0.3268
41888SOL     OW30983  10.647   4.828   3.835  0.5884  0.6964 -0.1479
41888SOL    HW130984  10.605   4.833   3.921 -0.0692 -0.7714 -0.3642
41888SOL    HW230985  10.586   4.872   3.776  0.3526  0.4348 -0.1014
41889SOL     OW30986  11.606  10.530   6.336  0.3679  0.0714 -0.7285
41889SOL    HW130987  11.609  10.483   6.253 -0.5986  0.0677 -0.7828
41889SOL    HW230988  11.532  10.490   6.383  2.1871 -1.3916  1.0525
41890SOL     OW30989   1.903   4.108   7.993  0.0284 -0.5004  0.0819
41890SOL    HW130990   1.932   4.023   8.027  0.5421 -0.3268  0.0851
41890SOL    HW230991   1.979   4.141   7.945 -0.5709 -0.6028 -0.9767
41891SOL     OW30992   9.733   8.309   4.901  0.1814  0.3778 -0.2800
41891SOL    HW130993   9.802   8.244   4.891 -0.8819 -0.9570  0.7367
41891SOL    HW230994   9.677   8.297   4.824 -0.3296 -0.3400  0.1878
41892SOL     OW30995   7.043   5.596   3.582 -0.2731  0.2162  0.6491
41892SOL    HW130996   7.023   5.629   3.670 -0.6590  3.2394 -0.4333
41892SOL    HW230997   7.132   5.562   3.589  0.2302  1.6455  1.9555
41893SOL     OW30998   8.974   0.625  10.874 -0.7197  0.5347 -0.3353
41893SOL    HW130999   9.006   0.575  10.950 -1.7744  0.1331 -0.1304
41893SOL    HW231000   8.982   0.716  10.900 -1.3115  0.3946  0.3807
41894SOL     OW31001   8.645  10.903   0.719  0.1982  0.2800 -0.5361
41894SOL    HW131002   8.579  10.854   0.767 -0.2806  1.4642  0.0461
41894SOL    HW231003   8.694  10.950   0.786  1.6623 -0.5837 -0.9543
41895SOL     OW31004   1.215   4.201   5.565 -0.0818 -0.7613 -0.2364
41895SOL    HW131005   1.254   4.126   5.519  1.1598 -0.8982  0.9526
41895SOL    HW231006   1.282   4.227   5.628 -1.2740  0.1237  0.7120
41896SOL     OW31007   5.128   3.806   7.300 -0.6634 -0.4626  0.2203
41896SOL    HW131008   5.130   3.726   7.353 -0.7740 -2.2736 -2.3463
41896SOL    HW231009   5.039   3.839   7.311 -1.0580 -1.4879  0.2373
41897SOL     OW31010   3.536   7.016   8.526 -0.3201 -0.1957  0.1204
41897SOL    HW131011   3.532   6.922   8.509 -0.6507 -0.0499 -0.6530
41897SOL    HW231012   3.479   7.029   8.602  0.7126 -0.7825  1.0297
41898SOL     OW31013   5.680   0.304   2.178 -0.6283 -0.7490  0.5021
41898SOL    HW131014   5.709   0.221   2.215  0.5007 -0.2228  0.8480
41898SOL    HW231015   5.620   0.340   2.243 -0.1665 -0.7393  0.9338
41899SOL     OW31016   9.510  10.466   2.553  0.1970 -0.3212  0.3437
41899SOL    HW131017   9.510  10.543   2.497 -0.9570  0.7846  1.7809
41899SOL    HW231018   9.461  10.401   2.503 -1.7411  0.9793  0.4409
41900SOL     OW31019  11.235   6.032   8.836  0.3487 -0.4443 -0.4349
41900SOL    HW131020  11.280   6.114   8.814  0.6173 -0.9364 -1.8120
41900SOL    HW231021  11.154   6.036   8.785 -1.4664  0.6287  2.3346
41901SOL     OW31022   0.276   8.436   0.149  0.1008  0.7607 -0.6278
41901SOL    HW131023   0.279   8.340   0.151 -2.2254  0.6461 -0.0856
41901SOL    HW231024   0.307   8.462   0.236  1.3480  0.5589 -0.9930
41902SOL     OW31025   9.473   3.179  11.528 -0.4230  0.3261 -0.6212
41902SOL    HW131026   9.461   3.224  11.445  0.4830  1.4760 -0.1668
41902SOL    HW231027   9.566   3.190  11.547 -0.7050  0.4591  0.7566
41903SOL     OW31028   5.006   2.240   7.385 -0.0169 -0.4511 -0.7743
41903SOL    HW131029   5.095   2.249   7.418 -1.1602 -0.4239  2.7002
41903SOL    HW231030   4.951   2.283   7.451 -2.6200 -0.1676 -2.9389
41904SOL     OW31031   6.899   8.922   9.713  0.0708  0.5247  0.1255
41904SOL    HW131032   6.840   8.848   9.726  1.1505 -0.0323  2.2578
41904SOL    HW231033   6.968   8.889   9.656  1.1458 -0.5177  1.9577
41905SOL     OW31034   7.375   4.964   4.530 -0.5246 -0.3673  0.1294
41905SOL    HW131035   7.352   4.893   4.590  1.4280 -2.1601 -1.0949
41905SOL    HW231036   7.420   4.920   4.458  0.5207  2.1141 -0.8251
41906SOL     OW31037   0.107  10.346   7.655  0.3638 -0.0521  0.3308
41906SOL    HW131038   0.135  10.437   7.661 -0.2845  0.2369 -0.6663
41906SOL    HW231039   0.108  10.314   7.745  0.2202  1.0672  0.7467
41907SOL     OW31040  11.129   5.774   8.235 -0.6030  0.1466 -0.1818
41907SOL    HW131041  11.091   5.760   8.148  0.5073  0.8940 -0.8128
41907SOL    HW231042  11.218   5.807   8.217 -0.7345  1.3425  1.2335
41908SOL     OW31043   6.514   0.749   8.633  0.2241  0.4971  0.0082
41908SOL    HW131044   6.543   0.823   8.686 -0.0648  0.0170  0.8754
41908SOL    HW231045   6.500   0.679   8.697  3.5215 -1.3223 -1.0263
41909SOL     OW31046   7.328   0.826   8.992  0.1154  0.8854 -0.7710
41909SOL    HW131047   7.342   0.764   8.920 -0.3216  0.5944 -0.6058
41909SOL    HW231048   7.302   0.907   8.949 -2.2776  0.1388 -0.8722
41910SOL     OW31049   4.636  11.303   2.791 -0.0819  0.2716  0.3044
41910SOL    HW131050   4.714  11.358   2.793 -0.1474  0.4709 -1.5761
41910SOL    HW231051   4.608  11.304   2.700 -2.4248  0.3755  0.9688
41911SOL     OW31052   1.335   7.822   7.970  0.0803 -0.1240  0.3565
41911SOL    HW131053   1.339   7.917   7.978 -0.1878  0.0377 -1.1127
41911SOL    HW231054   1.407   7.800   7.911  0.3804 -0.8807  0.9934
41912SOL     OW31055   7.885   8.053   3.261  0.4150  0.9102 -0.5655
41912SOL    HW131056   7.814   8.112   3.236  0.1622  0.9937  0.3282
41912SOL    HW231057   7.856   7.966   3.232 -1.8045  0.2652  2.9859
41913SOL     OW31058   2.060   8.797   7.020  0.0204  0.0235  0.1814
41913SOL    HW131059   2.128   8.804   6.952  0.8704 -0.0690  0.9962
41913SOL    HW231060   1.979   8.817   6.974  0.7225  1.2718 -0.6036
41914SOL     OW31061   9.357  10.988  10.823  0.0815  0.0772  0.4717
41914SOL    HW131062   9.371  11.063  10.881 -2.9101  0.1691  1.2624
41914SOL    HW231063   9.312  10.924  10.878 -0.9039 -0.7131 -1.1743
41915SOL     OW31064   8.719   0.814   2.652 -0.0764 -0.2879  0.0195
41915SOL    HW131065   8.627   0.804   2.678  0.0430  0.8701  0.9780
41915SOL    HW231066   8.750   0.890   2.702  1.2283 -0.2673 -0.7746
41916SOL     OW31067   6.247   2.886   9.881  0.1574 -0.2730 -0.3142
41916SOL    HW131068   6.179   2.895   9.948  0.3543  0.7855 -0.2338
41916SOL    HW231069   6.268   2.792   9.881  0.4430 -0.2569  1.4153
41917SOL     OW31070   0.246   2.489   9.638  0.1671  0.3830  0.7233
41917SOL    HW131071   0.331   2.475   9.679  0.8944  0.0382 -0.8368
41917SOL    HW231072   0.253   2.575   9.597  0.1254 -0.0341 -0.1946
41918SOL     OW31073   6.079   8.481   5.340 -0.1804 -0.5926  0.6592
41918SOL    HW131074   6.078   8.519   5.428 -0.1868 -0.0425  0.4225
41918SOL    HW231075   6.124   8.397   5.351 -1.4438 -1.1941  1.4604
41919SOL     OW31076   9.504   0.949   9.377 -0.1073  0.0565 -0.2539
41919SOL    HW131077   9.591   0.959   9.417 -0.8609  0.7456  1.2989
41919SOL    HW231078   9.462   0.880   9.429 -0.7364  0.2016 -0.5676
41920SOL     OW31079   8.188   4.072   8.196 -0.8700 -0.4364 -0.2426
41920SOL    HW131080   8.269   4.091   8.148  0.4076 -0.1192  1.9433
41920SOL    HW231081   8.126   4.138   8.165  0.9471  1.9899  0.9902
41921SOL     OW31082  11.142   9.286   4.602  0.5467 -0.1121  1.0735
41921SOL    HW131083  11.070   9.224   4.615  1.9645 -2.4708 -1.4362
41921SOL    HW231084  11.182   9.295   4.688  0.1721 -2.5902  1.5607
41922SOL     OW31085  11.467   8.362  11.812 -0.4549  0.7206 -0.3111
41922SOL    HW131086  11.474   8.381  11.905 -0.3083  0.9904 -0.3773
41922SOL    HW231087  11.547   8.313  11.791 -0.8130  0.0509 -0.1489
41923SOL     OW31088   1.501  11.760   4.524 -0.1619  0.2403  0.0652
41923SOL    HW131089   1.415  11.800   4.511 -1.8225 -1.9653  2.9638
41923SOL    HW231090   1.485  11.666   4.518  2.0447 -0.2344  0.7385
41924SOL     OW31091  10.078   4.230  10.293 -0.6678 -0.0476 -0.2897
41924SOL    HW131092  10.101   4.256  10.204 -1.6440  1.9380 -0.0304
41924SOL    HW231093  10.150   4.262  10.347 -1.2398  1.0111 -0.1207
41925SOL     OW31094  10.690  11.262   8.596 -0.1124  0.4414  0.1384
41925SOL    HW131095  10.699  11.358   8.597  1.1228  0.4242 -2.4257
41925SOL    HW231096  10.694  11.238   8.504 -0.4892 -2.1096  0.7095
41926SOL     OW31097   2.393   8.227   1.673  0.4408 -0.0978 -0.2926
41926SOL    HW131098   2.331   8.238   1.601  1.7033 -1.2997 -1.6264
41926SOL    HW231099   2.338   8.221   1.751 -1.0921 -0.6965 -1.3759
41927SOL     OW31100   5.214   6.489   2.792 -0.5246 -0.2469  0.0700
41927SOL    HW131101   5.260   6.459   2.871  0.9437  1.4806 -0.0548
41927SOL    HW231102   5.200   6.410   2.741  0.2108 -1.1464  1.2042
41928SOL     OW31103   8.378   1.464   8.535  0.3201 -0.1272 -0.1629
41928SOL    HW131104   8.408   1.464   8.627  1.1732  2.0427 -0.3611
41928SOL    HW231105   8.436   1.528   8.492 -0.4206 -0.7048 -2.1000
41929SOL     OW31106   4.970   7.942   4.297  0.4687 -0.0869  0.0708
41929SOL    HW131107   4.930   7.858   4.273  1.5076 -0.2631 -1.1141
41929SOL    HW231108   4.920   7.970   4.374  0.4546 -2.0574  0.8531
41930SOL     OW31109  11.635   0.232   0.657 -0.2111  0.0320  0.4565
41930SOL    HW131110  11.576   0.230   0.732  0.2943  0.6560  0.8793
41930SOL    HW231111  11.578   0.240   0.581 -0.6379  1.4572  0.9073
41931SOL     OW31112  11.661   5.773   6.629  0.4184  0.0524  0.2052
41931SOL    HW131113  11.649   5.815   6.544 -2.0556  0.8447  0.8591
41931SOL    HW231114  11.601   5.699   6.628  0.1839  0.2021  1.3356
41932SOL     OW31115   8.517   2.995   3.096 -0.2337  0.3599  0.1987
41932SOL    HW131116   8.427   2.971   3.070 -0.9106  1.3516  1.4926
41932SOL    HW231117   8.543   2.927   3.157 -1.4045  1.7095  2.3445
41933SOL     OW31118  11.513   6.105   8.555  0.0482  0.6171 -0.0107
41933SOL    HW131119  11.557   6.162   8.492  0.3609 -1.3012 -1.6130
41933SOL    HW231120  11.441   6.065   8.506 -0.7450  0.2944  1.3353
41934SOL     OW31121   3.474  10.345   3.376 -0.3168 -0.2968 -0.1468
41934SOL    HW131122   3.417  10.419   3.356 -0.1189  0.1212  0.7759
41934SOL    HW231123   3.416  10.281   3.417 -0.7713 -1.2499 -2.1433
41935SOL     OW31124   6.934   7.590   9.953 -0.4109 -0.6254 -0.2912
41935SOL    HW131125   6.867   7.656   9.968 -0.7997 -1.3812  1.6527
41935SOL    HW231126   6.995   7.631   9.891 -0.7065  1.5038  0.7267
41936SOL     OW31127   8.450   2.579   6.560 -1.0257 -0.2532  0.0317
41936SOL    HW131128   8.501   2.562   6.481 -1.9275 -1.2689 -0.3648
41936SOL    HW231129   8.509   2.558   6.632 -0.9027 -1.5907 -0.4265
41937SOL     OW31130   0.618   7.599   1.951 -1.0756  0.2956  0.1948
41937SOL    HW131131   0.623   7.518   2.001 -0.7654  0.4505  0.4190
41937SOL    HW231132   0.602   7.571   1.861  0.8913 -0.1288 -0.0663
41938SOL     OW31133   1.710  10.470   0.043 -0.5198 -0.8493 -0.3204
41938SOL    HW131134   1.728  10.433  -0.043  0.1094 -2.7324  0.5595
41938SOL    HW231135   1.655  10.404   0.086  2.0630 -1.7533  1.9440
41939SOL     OW31136   3.733   6.681  11.383 -0.3294  0.0634  0.0120
41939SOL    HW131137   3.762   6.656  11.295  1.7757  0.2544  0.5775
41939SOL    HW231138   3.648   6.639  11.394  0.2388 -1.5784 -1.4042
41940SOL     OW31139   0.979   9.613   4.068  0.2344  0.4076  0.1114
41940SOL    HW131140   0.923   9.683   4.033 -0.4688 -0.4137 -0.4603
41940SOL    HW231141   1.055   9.659   4.104  0.1110  1.4256 -0.8549
41941SOL     OW31142  11.692   3.599   9.426 -0.0646 -0.5957  0.2026
41941SOL    HW131143  11.619   3.658   9.409  1.0190  1.4965  2.2579
41941SOL    HW231144  11.651   3.522   9.466 -1.2158  0.2174  0.6510
41942SOL     OW31145   9.699   2.401   3.007  0.1331 -0.4777 -0.2349
41942SOL    HW131146   9.789   2.393   3.037  0.8340  0.8239 -1.8463
41942SOL    HW231147   9.657   2.458   3.071  1.0624  0.6638 -0.6014
41943SOL     OW31148   3.489   6.533   9.725 -0.0825 -0.1445 -0.3720
41943SOL    HW131149   3.511   6.622   9.696  1.7877  0.2069  1.8559
41943SOL    HW231150   3.558   6.478   9.688 -0.3244 -0.4315 -0.4044
41944SOL     OW31151   9.065  10.087   6.047 -0.6019 -0.2759 -0.0957
41944SOL    HW131152   8.977  10.105   6.012 -0.7815  1.6305  1.2061
41944SOL    HW231153   9.124  10.134   5.988 -0.6707  0.5235  0.4632
41945SOL     OW31154  10.616  10.682   9.632 -0.1511 -0.1998 -0.0506
41945SOL    HW131155  10.628  10.666   9.538 -0.0654 -1.9135  0.2160
41945SOL    HW231156  10.625  10.777   9.642  1.2294 -0.1299 -1.5687
41946SOL     OW31157   4.886   8.668   1.934  0.5676 -0.2570 -0.1536
41946SOL    HW131158   4.960   8.616   1.904  0.8439  0.6527 -1.1115
41946SOL    HW231159   4.914   8.759   1.921  0.0146  0.1384  1.2744
41947SOL     OW31160   3.557   0.658   4.154 -0.0350  0.0577  0.1655
41947SOL    HW131161   3.604   0.577   4.168  0.9723  0.5471 -0.3026
41947SOL    HW231162   3.600   0.721   4.212  0.5277  0.7342 -0.9534
41948SOL     OW31163   4.843   8.549   3.294 -0.4065 -1.0970 -0.0169
41948SOL    HW131164   4.890   8.625   3.328  2.0401 -2.4165 -0.2679
41948SOL    HW231165   4.771   8.588   3.243 -0.8472  0.9614  1.9657
41949SOL     OW31166   4.380   0.626  10.721  0.7528  0.4982  0.3368
41949SOL    HW131167   4.457   0.654  10.770  0.8240  0.7033  0.1134
41949SOL    HW231168   4.416   0.572  10.650  0.7266  0.9497 -0.0200
41950SOL     OW31169   6.580   4.458  11.393  0.5775 -0.1369  0.2768
41950SOL    HW131170   6.655   4.447  11.452  1.1285 -2.7773 -0.7408
41950SOL    HW231171   6.618   4.480  11.308  0.1115 -0.2684  0.0273
41951SOL     OW31172   4.218   7.179   8.890  0.1672  0.3773 -0.2336
41951SOL    HW131173   4.225   7.097   8.841 -1.8366  0.7186 -1.1606
41951SOL    HW231174   4.292   7.231   8.860  1.1464 -0.8441 -0.0489
41952SOL     OW31175  11.060   5.773   8.731  0.1646  0.4180 -0.1346
41952SOL    HW131176  11.073   5.851   8.677 -1.0444  0.8548  0.1707
41952SOL    HW231177  10.975   5.786   8.772 -0.3560 -1.3515 -0.5497
41953SOL     OW31178   6.987  10.770   5.535 -0.2420 -0.2640 -0.3835
41953SOL    HW131179   7.057  10.827   5.566 -3.0161  1.6126  3.1094
41953SOL    HW231180   6.936  10.826   5.476  0.0259 -0.9741 -1.3111
41954SOL     OW31181   3.786   5.255   9.829 -0.2104  0.3829 -0.1440
41954SOL    HW131182   3.787   5.320   9.759 -2.0293 -0.5315 -1.1163
41954SOL    HW231183   3.877   5.249   9.858  0.6346  0.7766 -2.4728
41955SOL     OW31184   2.278   0.509  10.311 -0.4705 -0.4103 -0.9223
41955SOL    HW131185   2.266   0.428  10.360 -2.0474 -0.2755 -1.0341
41955SOL    HW231186   2.219   0.571  10.353  2.5387  1.5257  0.8496
41956SOL     OW31187   0.558   6.472   7.822 -0.8065  0.1606 -0.4217
41956SOL    HW131188   0.501   6.396   7.834 -1.5799  0.7514 -0.3389
41956SOL    HW231189   0.523   6.516   7.745 -0.6645  0.7109 -0.1723
41957SOL     OW31190   5.978   8.788   3.617 -0.7061 -0.1036  0.6408
41957SOL    HW131191   6.067   8.754   3.617 -0.5957  0.1639 -0.2612
41957SOL    HW231192   5.987   8.879   3.647 -0.5767  0.1407 -0.1143
41958SOL     OW31193   9.141   7.835  10.347  0.0009  0.1028 -0.2494
41958SOL    HW131194   9.054   7.852  10.310  0.8542  0.3345 -2.2928
41958SOL    HW231195   9.188   7.918  10.337  0.9813 -0.4902 -0.7369
41959SOL     OW31196   4.421  10.604   2.503 -0.1204  0.1819  0.2077
41959SOL    HW131197   4.340  10.598   2.553  0.6132  2.6520  1.8860
41959SOL    HW231198   4.452  10.513   2.495 -2.3810 -0.6731  0.6032
41960SOL     OW31199   2.734   6.096   1.698 -0.0923 -0.4052  0.0383
41960SOL    HW131200   2.782   6.028   1.745  2.2977  2.1543  1.5621
41960SOL    HW231201   2.738   6.173   1.754 -0.7896  1.6528 -2.5182
41961SOL     OW31202   9.314   5.346   3.066  0.0233 -0.8259  0.5955
41961SOL    HW131203   9.242   5.388   3.019  0.8942 -0.5214 -0.5092
41961SOL    HW231204   9.389   5.352   3.006  1.0728 -0.8005  1.8518
41962SOL     OW31205   4.728  10.457   8.824  0.3143  0.3525 -0.0535
41962SOL    HW131206   4.646  10.458   8.774  0.1036  1.6759  0.2682
41962SOL    HW231207   4.702  10.482   8.912  0.7571 -1.4658  0.6208
41963SOL     OW31208   0.831   2.111   6.240 -0.4185 -0.1818  0.1570
41963SOL    HW131209   0.830   2.016   6.226 -1.2375 -0.1323 -0.2301
41963SOL    HW231210   0.757   2.126   6.299 -0.9322  0.3111 -0.5883
41964SOL     OW31211   0.977   2.245   3.683 -0.0921 -0.2710  0.3166
41964SOL    HW131212   0.958   2.220   3.593  0.1329 -1.6051  0.6321
41964SOL    HW231213   1.008   2.336   3.676  0.4830 -0.5462 -1.0135
41965SOL     OW31214   1.590   1.932   2.487 -0.5160  0.0369  0.3498
41965SOL    HW131215   1.576   1.862   2.423  0.4235 -0.7877  1.0283
41965SOL    HW231216   1.683   1.954   2.480 -0.0321 -1.0769  2.3957
41966SOL     OW31217   2.085   5.385   0.253  0.4993  0.2194 -0.4262
41966SOL    HW131218   2.013   5.413   0.196 -1.2915 -1.8175  0.6943
41966SOL    HW231219   2.154   5.358   0.192 -0.9468 -0.8590 -1.6634
41967SOL     OW31220   8.086   7.696   7.489  0.5402 -0.0643 -0.1220
41967SOL    HW131221   8.168   7.682   7.442  0.4114 -3.2151  0.3822
41967SOL    HW231222   8.109   7.686   7.581 -0.4786 -1.9820 -0.0123
41968SOL     OW31223   1.078  10.338   4.317 -0.5167 -0.7653 -0.3490
41968SOL    HW131224   1.012  10.299   4.374  0.5345 -3.2587 -0.7205
41968SOL    HW231225   1.049  10.318   4.229 -0.4094  0.1612 -0.6117
41969SOL     OW31226   6.869  11.750   9.880  0.2929 -0.1192 -0.5136
41969SOL    HW131227   6.955  11.790   9.869  0.1955 -0.1947 -1.6445
41969SOL    HW231228   6.887  11.659   9.904  0.5214  0.0654  0.0185
41970SOL     OW31229   7.075   7.664   0.186  0.0946  0.0810  0.0054
41970SOL    HW131230   7.126   7.732   0.142  0.5400  0.1159  0.5662
41970SOL    HW231231   7.022   7.626   0.116  1.8552 -0.8681 -0.8808
41971SOL     OW31232   7.426   1.322   9.116 -0.0638  0.5599 -0.1193
41971SOL    HW131233   7.401   1.348   9.205 -2.5034  0.6471 -0.7417
41971SOL    HW231234   7.344   1.290   9.077  1.6280 -3.1359 -1.1233
41972SOL     OW31235   8.524   0.714   1.691 -0.2316  0.0831  0.2631
41972SOL    HW131236   8.543   0.627   1.726 -1.4144  0.0202  0.7814
41972SOL    HW231237   8.610   0.755   1.682  0.2073 -0.3172  2.1774
41973SOL     OW31238   2.154   8.126  10.185 -0.1970 -0.4396  0.0021
41973SOL    HW131239   2.162   8.202  10.127 -0.9574  0.0794  0.5557
41973SOL    HW231240   2.064   8.130  10.218  0.2177 -0.7064  1.2278
41974SOL     OW31241   9.120   4.909   8.286  0.2855 -0.2205  0.1839
41974SOL    HW131242   9.181   4.838   8.308  0.6975  0.4891  1.4347
41974SOL    HW231243   9.149   4.982   8.340 -2.8215 -0.3916  2.3377
41975SOL     OW31244   5.678   9.401   5.156  0.0665  0.3205  0.4805
41975SOL    HW131245   5.773   9.394   5.152 -0.0157 -3.1982  1.4085
41975SOL    HW231246   5.656   9.374   5.245 -1.8257  0.4599  0.0962
41976SOL     OW31247   6.047   0.114   9.208  0.1281  0.6194  0.2674
41976SOL    HW131248   6.065   0.177   9.138 -0.6736  1.6142  0.9140
41976SOL    HW231249   6.133   0.080   9.233  0.3191 -0.7669 -2.0719
41977SOL     OW31250   6.758   2.434   5.259 -0.0264 -0.7566  0.0625
41977SOL    HW131251   6.819   2.485   5.206 -2.1472 -0.0631 -1.8957
41977SOL    HW231252   6.753   2.349   5.215  1.5151 -1.8280  1.8096
41978SOL     OW31253   0.025  10.849   8.423 -0.2266 -0.1237  0.6046
41978SOL    HW131254   0.040  10.757   8.445  0.0021 -0.2582 -0.0821
41978SOL    HW231255   0.112  10.889   8.427 -0.2470 -0.0548  0.4030
41979SOL     OW31256   8.680   5.341   8.230 -0.1496 -0.0954 -0.0839
41979SOL    HW131257   8.722   5.279   8.290  0.7395  1.0865  0.5499
41979SOL    HW231258   8.690   5.301   8.144 -0.1526 -1.1278  0.3745
41980SOL     OW31259   0.065   6.146   5.620 -0.2596  0.0561 -0.1564
41980SOL    HW131260   0.017   6.083   5.675 -0.4975  1.1749  0.9791
41980SOL    HW231261  -0.003   6.206   5.588  0.1494  0.6171  0.0148
41981SOL     OW31262   5.249   0.981   3.551 -0.0402  0.7412 -0.0297
41981SOL    HW131263   5.338   1.011   3.568  0.1864  1.1637 -1.7747
41981SOL    HW231264   5.206   1.056   3.510 -0.4662 -0.2213 -1.4159
41982SOL     OW31265   5.438   7.870   1.740 -0.4432  0.6066  0.4743
41982SOL    HW131266   5.346   7.849   1.755 -0.5035  0.6808  0.2040
41982SOL    HW231267   5.439   7.918   1.657 -0.0682 -0.1078  0.0586
41983SOL     OW31268   1.207   7.028   5.762  0.1701  0.0921  0.3092
41983SOL    HW131269   1.176   6.952   5.810  0.0439  0.3194  0.5868
41983SOL    HW231270   1.130   7.084   5.753 -0.1984 -0.6164 -1.4687
41984SOL     OW31271   9.785   0.942   6.233 -0.1719 -0.2994 -0.7866
41984SOL    HW131272   9.700   0.915   6.268 -0.1931  0.0955 -0.5318
41984SOL    HW231273   9.848   0.919   6.301 -0.1999  0.3652 -0.5298
41985SOL     OW31274   4.683   4.478   1.131 -0.4792 -0.0537 -1.1457
41985SOL    HW131275   4.769   4.521   1.133 -0.0370 -0.9476 -0.0214
41985SOL    HW231276   4.689   4.409   1.197 -2.1394 -0.0152 -0.9185
41986SOL     OW31277  11.771   9.116   7.033 -0.3545 -0.0137  0.2521
41986SOL    HW131278  11.746   9.079   7.117  0.0109 -1.0402 -0.0710
41986SOL    HW231279  11.694   9.105   6.977 -0.6709  0.8624  0.5074
41987SOL     OW31280   8.786   2.380   6.559 -0.4384 -0.5808  0.5594
41987SOL    HW131281   8.757   2.403   6.647 -0.4875  0.6759  0.2317
41987SOL    HW231282   8.708   2.341   6.518 -0.5577 -0.7137  0.9095
41988SOL     OW31283   0.870   7.595   7.013 -0.1391 -0.0249  0.2698
41988SOL    HW131284   0.790   7.553   6.981 -0.5890  0.6748  0.4526
41988SOL    HW231285   0.861   7.595   7.108  0.4229 -0.5980  0.3318
41989SOL     OW31286   7.005  11.182   5.316 -0.5810 -0.3242 -0.0238
41989SOL    HW131287   6.991  11.090   5.340 -0.9935 -0.4084 -0.5653
41989SOL    HW231288   7.097  11.186   5.292 -0.5942 -0.6318 -0.1368
41990SOL     OW31289   9.041   3.816   1.770 -0.0958  0.3823 -0.2276
41990SOL    HW131290   8.989   3.739   1.794 -1.8288  1.2428 -1.0219
41990SOL    HW231291   9.073   3.851   1.853  0.3279 -0.9062  0.1728
41991SOL     OW31292   3.864   2.703  10.735 -0.1827 -0.0983  0.2241
41991SOL    HW131293   3.789   2.644  10.726 -1.0406  1.2355 -2.2797
41991SOL    HW231294   3.920   2.683  10.659  1.4318 -0.2226  1.3853
41992SOL     OW31295   3.900   5.206   5.168 -0.0134  0.3050 -0.4148
41992SOL    HW131296   3.952   5.135   5.206 -1.0781 -1.0162 -1.3179
41992SOL    HW231297   3.951   5.234   5.091 -0.1610 -0.3099 -0.7403
41993SOL     OW31298   6.031  11.665   6.847 -0.2917 -0.3913 -0.4171
41993SOL    HW131299   6.087  11.710   6.784  0.6322 -1.1492 -0.1605
41993SOL    HW231300   6.013  11.731   6.914  0.9025 -0.3292 -0.1309
41994SOL     OW31301   2.447   3.918   0.555  0.5295 -0.1323 -0.2886
41994SOL    HW131302   2.366   3.899   0.508  0.2382 -1.3903  0.6597
41994SOL    HW231303   2.512   3.858   0.517  0.6843 -0.0410 -0.1685
41995SOL     OW31304   7.889   9.907   2.389 -0.1531 -0.2061 -0.1536
41995SOL    HW131305   7.882   9.985   2.333 -0.7843 -1.1318 -1.4014
41995SOL    HW231306   7.975   9.870   2.367  0.0774  0.0348  0.3233
41996SOL     OW31307  10.304  11.090   4.163  0.0141 -0.3583 -0.2195
41996SOL    HW131308  10.265  11.177   4.171  1.2402  0.3776 -1.7476
41996SOL    HW231309  10.247  11.033   4.215 -0.8464  1.3331  0.7606
41997SOL     OW31310   3.472   5.208   4.020 -0.3776 -0.2148  0.6696
41997SOL    HW131311   3.381   5.192   3.996 -0.4238 -0.2690  0.8767
41997SOL    HW231312   3.521   5.134   3.984 -0.5700 -0.7647  1.5071
41998SOL     OW31313   9.780   4.012   9.385  0.0627  0.1791  0.5986
41998SOL    HW131314   9.715   4.020   9.454 -0.2450 -1.8760  0.6103
41998SOL    HW231315   9.729   4.009   9.304  0.2628  0.2601  0.4685
41999SOL     OW31316   8.859  11.228  10.248 -0.6137  0.1267  0.6132
41999SOL    HW131317   8.852  11.273  10.332  0.5873 -1.7919  1.8131
41999SOL    HW231318   8.769  11.217  10.219 -1.0453  0.8529  1.6187
42000SOL     OW31319   8.713   0.794   5.778 -0.0016  0.0714 -0.7705
42000SOL    HW131320   8.761   0.727   5.729  0.7849 -0.7830  1.0651
42000SOL    HW231321   8.623   0.762   5.781  0.2927 -0.7338 -0.2423
42001SOL     OW31322   7.798   4.229   4.868 -0.3321 -0.2064  0.3135
42001SOL    HW131323   7.760   4.281   4.797 -0.2697  0.3806  0.7120
42001SOL    HW231324   7.872   4.184   4.826  0.8513  1.5501  0.4085
42002SOL     OW31325   0.147  11.199   0.906  0.3554  0.5312 -0.3991
42002SOL    HW131326   0.095  11.216   0.984  1.0301  1.1697 -0.0718
42002SOL    HW231327   0.214  11.137   0.935  0.0037 -0.0222 -0.7348
42003SOL     OW31328   9.419  11.614   4.018 -0.0510 -0.9855  0.2383
42003SOL    HW131329   9.347  11.568   4.061 -0.5465 -1.2836 -0.8874
42003SOL    HW231330   9.408  11.596   3.925  0.2922  0.6129 -0.1555
42004SOL     OW31331   3.579  11.179   5.065  0.3398  0.4507  0.4618
42004SOL    HW131332   3.540  11.197   5.151 -0.4391  1.8275 -0.1465
42004SOL    HW231333   3.516  11.122   5.022 -0.9808  2.4598 -0.4189
42005SOL     OW31334   8.894   0.443   9.543  0.1325  0.1466  0.2257
42005SOL    HW131335   8.918   0.510   9.479  0.4642  0.7528  0.9657
42005SOL    HW231336   8.901   0.487   9.628 -2.2105 -0.0643  0.5832
42006SOL     OW31337   2.031   2.573   8.771  0.0820  0.2182  0.2932
42006SOL    HW131338   1.955   2.581   8.828 -0.5673  1.7971 -0.7007
42006SOL    HW231339   2.103   2.553   8.829 -1.0682 -1.3470  1.2687
42007SOL     OW31340   1.423   9.519   3.889  0.1020 -0.2985  0.6165
42007SOL    HW131341   1.343   9.478   3.921  0.0494 -0.9974 -0.3771
42007SOL    HW231342   1.395   9.568   3.811  0.7456 -1.0644 -0.1043
42008SOL     OW31343   7.317   9.100   1.769 -0.4890  0.1095 -1.1730
42008SOL    HW131344   7.292   9.040   1.699  2.5251 -0.0349 -2.2623
42008SOL    HW231345   7.241   9.101   1.827 -0.5208 -5.4344 -0.5784
42009SOL     OW31346   4.926  10.193   9.382 -0.2267  0.0639 -0.3802
42009SOL    HW131347   4.906  10.100   9.394 -1.2545  0.1112 -1.5082
42009SOL    HW231348   4.967  10.197   9.296 -1.8078  0.8316 -1.1443
42010SOL     OW31349   3.836   2.701   8.717 -0.0044 -0.4831  0.1701
42010SOL    HW131350   3.926   2.674   8.701 -0.3871 -1.7322 -0.0385
42010SOL    HW231351   3.783   2.632   8.676 -1.1165  1.7640 -2.5222
42011SOL     OW31352   2.972   5.845   0.037 -0.3381  0.3952  0.3020
42011SOL    HW131353   2.960   5.911   0.105  0.8327  0.2126  0.7196
42011SOL    HW231354   3.040   5.881  -0.019  0.5554 -0.5724  0.7247
42012SOL     OW31355   7.262  11.504   2.939  0.6835  0.3601 -0.1576
42012SOL    HW131356   7.191  11.569   2.943 -0.1214 -0.5621  1.9010
42012SOL    HW231357   7.295  11.510   2.850 -0.5187  2.3747 -0.5271
42013SOL     OW31358   3.745   1.255   0.851 -0.4676  0.1078  0.5505
42013SOL    HW131359   3.652   1.238   0.844  0.0508 -2.3335 -1.7119
42013SOL    HW231360   3.776   1.193   0.917 -0.5616  1.9771  2.4924
42014SOL     OW31361  10.649   5.151   7.850 -0.6345 -0.6312  0.0104
42014SOL    HW131362  10.587   5.209   7.805  0.4937  1.2377  0.7746
42014SOL    HW231363  10.632   5.065   7.811 -1.6294  0.3748 -1.9660
42015SOL     OW31364   5.718   6.751   2.937  0.0831  0.1297 -0.3815
42015SOL    HW131365   5.673   6.795   2.865 -1.2847 -1.1307 -0.3432
42015SOL    HW231366   5.655   6.754   3.010 -0.4426 -2.5312 -0.6175
42016SOL     OW31367   5.225  11.592  11.008  0.3363 -0.4146  0.4137
42016SOL    HW131368   5.198  11.627  10.923 -1.6350  1.7593  1.8193
42016SOL    HW231369   5.143  11.574  11.054  1.1996  1.8684  3.1259
42017SOL     OW31370   5.192   3.903   6.552  0.1576  0.1467  0.5050
42017SOL    HW131371   5.115   3.955   6.574  1.0155  0.8379  2.0796
42017SOL    HW231372   5.232   3.882   6.636 -0.2001 -3.2583 -0.0287
42018SOL     OW31373   6.709   5.495   2.234 -0.3518 -0.4195  0.1864
42018SOL    HW131374   6.648   5.442   2.285 -0.5529 -1.4011 -1.0179
42018SOL    HW231375   6.684   5.479   2.143  1.2640 -0.2860 -0.3082
42019SOL     OW31376  10.468   1.633   5.445 -0.1168  0.4445  0.1698
42019SOL    HW131377  10.433   1.705   5.393 -0.3113 -0.3783 -0.8755
42019SOL    HW231378  10.547   1.668   5.486  0.6325  0.8341 -1.5107
42020SOL     OW31379   5.173   2.723   6.267  0.4703 -0.9812 -0.2801
42020SOL    HW131380   5.111   2.776   6.216 -0.3466 -0.0163  1.5841
42020SOL    HW231381   5.254   2.775   6.268 -0.0465 -0.1381  0.7742
42021SOL     OW31382   9.047   6.030   4.151  0.1517  0.0147  0.4036
42021SOL    HW131383   9.017   6.006   4.063 -2.0609  0.0028  1.1109
42021SOL    HW231384   9.041   5.949   4.201  0.3049  0.2749  0.8481
42022SOL     OW31385  10.985   2.100   3.861 -0.6260  0.1655  0.2037
42022SOL    HW131386  10.895   2.066   3.868 -0.0806 -0.9728  2.6952
42022SOL    HW231387  11.028   2.043   3.798 -0.6220 -1.8494  1.9447
42023SOL     OW31388   9.206   1.182   9.966  0.1670 -0.4229  0.0896
42023SOL    HW131389   9.179   1.188   9.874  0.2088 -1.1643  0.0238
42023SOL    HW231390   9.292   1.139   9.962 -0.6019 -2.0829  0.5788
42024SOL     OW31391   0.100  10.892   8.071 -0.3270 -0.7867  0.5890
42024SOL    HW131392   0.096  10.983   8.100 -0.3451 -0.4600 -0.3890
42024SOL    HW231393   0.011  10.870   8.045 -0.5547 -1.4588  1.8615
42025SOL     OW31394   6.498   5.250   2.726 -0.1146 -0.3700  0.3799
42025SOL    HW131395   6.459   5.213   2.805 -1.4766 -1.0848 -0.5977
42025SOL    HW231396   6.591   5.229   2.733 -0.3157 -0.9391  1.5069
42026SOL     OW31397   5.585   0.826   0.589  0.4333 -0.3360 -0.1610
42026SOL    HW131398   5.547   0.766   0.653 -1.7037 -0.1871 -1.2142
42026SOL    HW231399   5.527   0.820   0.513  0.5642  2.4636 -0.5942
42027SOL     OW31400   9.495   1.386  11.403 -0.3643 -0.3652 -0.3905
42027SOL    HW131401   9.495   1.425  11.315 -1.2134 -0.7411 -0.5697
42027SOL    HW231402   9.458   1.299  11.391 -1.1773 -0.1552  0.4426
42028SOL     OW31403   3.886   1.118   7.005  0.7981 -0.3971 -0.0487
42028SOL    HW131404   3.923   1.089   6.922  0.0552 -0.2873 -0.4190
42028SOL    HW231405   3.800   1.075   7.010 -0.1663  1.4007 -0.4135
42029SOL     OW31406   6.243   7.820   4.132  1.0847  0.6476  0.2624
42029SOL    HW131407   6.331   7.844   4.164  1.2280  0.7166 -0.1763
42029SOL    HW231408   6.185   7.882   4.175  1.2246  0.4598  0.7297
42030SOL     OW31409  11.686  11.587   6.147 -0.7362  0.0513 -0.3076
42030SOL    HW131410  11.763  11.545   6.109 -1.1383  0.1879 -1.3163
42030SOL    HW231411  11.720  11.650   6.210 -0.1003 -1.3172  0.7624
42031SOL     OW31412   2.686   1.693   8.941  0.2758  0.0066 -0.2503
42031SOL    HW131413   2.780   1.693   8.925  0.2983 -1.7074 -0.3501
42031SOL    HW231414   2.647   1.705   8.854  0.3936  0.5549 -0.2309
42032SOL     OW31415   6.752   4.644   0.098  0.2660 -1.1137  0.3427
42032SOL    HW131416   6.817   4.715   0.100  0.7835 -1.5090 -1.2754
42032SOL    HW231417   6.667   4.690   0.094  0.5726 -0.5751 -0.1915
42033SOL     OW31418  11.284   9.666   2.580 -0.5408 -0.0140 -0.2520
42033SOL    HW131419  11.262   9.664   2.673 -2.2896 -0.0018 -0.6225
42033SOL    HW231420  11.214   9.617   2.538  0.1969  0.0225 -1.5735
42034SOL     OW31421   6.638   5.078   1.439  0.3191 -0.0035 -0.3780
42034SOL    HW131422   6.546   5.102   1.452 -0.2382 -2.0236 -0.3146
42034SOL    HW231423   6.642   5.047   1.349  0.5489 -1.4822  0.1170
42035SOL     OW31424   9.534   3.494   4.431 -0.5488 -0.1059  0.1089
42035SOL    HW131425   9.565   3.449   4.352 -2.4754 -0.9636 -0.2208
42035SOL    HW231426   9.567   3.440   4.503 -2.3004 -1.7933 -0.2674
42036SOL     OW31427   0.728   4.550   5.255  0.1765  0.0521  0.5285
42036SOL    HW131428   0.742   4.488   5.327 -0.5683 -2.0879 -1.0706
42036SOL    HW231429   0.816   4.577   5.230  0.5109 -0.1951  1.3841
42037SOL     OW31430   3.642   6.954  10.744  0.3547  0.5722 -0.0415
42037SOL    HW131431   3.649   7.019  10.814  0.2260  0.2473  0.2749
42037SOL    HW231432   3.586   6.885  10.780 -1.2948  1.2828 -1.1519
42038SOL     OW31433   3.539  10.365   4.892  0.5979  0.1208  0.2101
42038SOL    HW131434   3.482  10.314   4.834  1.8888  0.3442 -1.3113
42038SOL    HW231435   3.478  10.413   4.948 -0.6813 -2.2483  1.0268
42039SOL     OW31436   5.209   6.115   3.628 -0.4448 -0.0597  0.1285
42039SOL    HW131437   5.227   6.170   3.552  0.1586  1.3691  1.2644
42039SOL    HW231438   5.294   6.104   3.671 -0.9774  0.2563  1.3004
42040SOL     OW31439   5.074   7.297   1.147  0.9018  0.5808 -0.0016
42040SOL    HW131440   5.043   7.361   1.212  0.4399 -1.3140  1.7607
42040SOL    HW231441   5.163   7.277   1.174  0.9736  0.3238 -0.4274
42041SOL     OW31442   9.808  10.282  10.980 -0.7627 -0.4377 -0.4376
42041SOL    HW131443   9.714  10.296  10.978 -0.4185  2.2875 -1.5398
42041SOL    HW231444   9.844  10.361  11.019  1.1769 -0.5002 -1.9265
42042SOL     OW31445  11.538   4.971   2.264  0.0250 -0.0964 -0.2432
42042SOL    HW131446  11.485   4.895   2.239  1.7146 -1.3121 -0.2579
42042SOL    HW231447  11.586   4.993   2.184 -0.4207  1.0136 -0.2308
42043SOL     OW31448   5.265   6.248  10.943  0.1072 -0.2477  0.0890
42043SOL    HW131449   5.246   6.339  10.920 -0.7703 -0.7314 -1.1883
42043SOL    HW231450   5.183   6.215  10.979  0.5146 -0.4556  0.8460
42044SOL     OW31451   5.619   2.183   6.392 -0.5191  0.0787 -0.0723
42044SOL    HW131452   5.605   2.273   6.361 -0.8184  0.6112  1.4986
42044SOL    HW231453   5.546   2.167   6.452  0.1076 -0.8406  0.4705
42045SOL     OW31454   4.605   4.988   5.737  0.1175  0.4451 -0.2360
42045SOL    HW131455   4.647   4.943   5.664 -0.3450  0.1860 -0.3504
42045SOL    HW231456   4.520   5.015   5.701 -0.0225  0.5091  0.1446
42046SOL     OW31457   5.781   2.645   6.885  1.0147 -0.4162 -0.5920
42046SOL    HW131458   5.735   2.674   6.964 -3.2206  0.1986 -2.9919
42046SOL    HW231459   5.777   2.549   6.888  1.7539 -0.4354  0.3175
42047SOL     OW31460   7.821   3.883   4.735 -0.2891  0.0248  0.4721
42047SOL    HW131461   7.875   3.882   4.814  2.4070 -0.9500 -1.2479
42047SOL    HW231462   7.778   3.798   4.734  0.8141 -0.5438  0.1865
42048SOL     OW31463   2.477   6.422   3.282 -0.3321 -0.2943 -0.4224
42048SOL    HW131464   2.404   6.469   3.322  1.6097  0.6569  2.3629
42048SOL    HW231465   2.475   6.447   3.190 -1.9020  1.8799  0.1296
42049SOL     OW31466   3.450   0.896   8.987  0.9124 -0.0585  0.5565
42049SOL    HW131467   3.451   0.801   8.996  1.1376 -0.0853  0.2333
42049SOL    HW231468   3.421   0.928   9.073  0.6875 -0.4219  0.6177
42050SOL     OW31469  11.781   6.022   1.954  0.3743  0.2579 -0.0440
42050SOL    HW131470  11.834   6.098   1.930  3.0395 -1.9451 -1.7680
42050SOL    HW231471  11.817   5.994   2.038 -1.2332  1.3546  1.0559
42051SOL     OW31472   4.409   9.707   9.594  0.3233  0.2986 -0.2550
42051SOL    HW131473   4.485   9.664   9.633  1.7902  1.0486 -2.1326
42051SOL    HW231474   4.382   9.772   9.659  2.4182  1.2259 -0.2377
42052SOL     OW31475  10.815  10.821  10.268  0.1672 -0.0360  0.0998
42052SOL    HW131476  10.906  10.806  10.293 -0.0641 -1.2820  0.2476
42052SOL    HW231477  10.764  10.763  10.325 -0.7195  0.5201 -0.0936
42053SOL     OW31478  11.502   9.492   2.551  0.2432 -0.6308 -0.6841
42053SOL    HW131479  11.491   9.429   2.622  0.4367  0.2447  0.1363
42053SOL    HW231480  11.422   9.543   2.551  0.4965 -0.2297 -0.6877
42054SOL     OW31481   0.994   2.841   9.124 -0.5302 -0.3418 -0.4339
42054SOL    HW131482   0.940   2.844   9.202 -1.6826  2.2305 -1.2164
42054SOL    HW231483   0.971   2.759   9.081 -0.6218 -1.2901  1.3715
42055SOL     OW31484  11.813   6.562   6.426 -0.2195  0.1913  0.0959
42055SOL    HW131485  11.774   6.649   6.439  1.4707  0.7358  2.0360
42055SOL    HW231486  11.831   6.558   6.332 -0.1992  2.0244 -0.0156
42056SOL     OW31487   8.760  11.059   6.619  0.1835  0.0979 -0.5203
42056SOL    HW131488   8.781  11.132   6.560 -1.7286  0.6036 -0.6543
42056SOL    HW231489   8.665  11.048   6.611  0.1318 -1.0548  1.0754
42057SOL     OW31490   6.263   2.626   9.863  0.0544 -0.2200  0.1001
42057SOL    HW131491   6.269   2.552   9.804 -1.7308 -1.9472  1.9198
42057SOL    HW231492   6.196   2.601   9.927 -0.4346  2.8431  0.9851
42058SOL     OW31493  10.065   2.987   3.195 -0.0043  0.3991  1.0037
42058SOL    HW131494  10.002   2.921   3.165 -0.0345  1.3747 -1.2482
42058SOL    HW231495  10.134   2.936   3.237 -0.7176 -0.9474  0.5993
42059SOL     OW31496   4.182   1.300   5.338  0.1216  0.0593 -0.2750
42059SOL    HW131497   4.240   1.364   5.296  1.2465  0.0098  1.1466
42059SOL    HW231498   4.222   1.283   5.423 -0.5793 -1.9582 -0.2934
42060SOL     OW31499  11.779   3.744   2.827 -0.5184  0.2393  0.7061
42060SOL    HW131500  11.873   3.762   2.827 -0.5104  0.2258  0.0253
42060SOL    HW231501  11.763   3.697   2.909  0.4950 -1.8436 -0.2128
42061SOL     OW31502  10.855   0.050   1.926 -0.2521  0.3331  0.1343
42061SOL    HW131503  10.772   0.079   1.886  0.0667  1.7689  0.4628
42061SOL    HW231504  10.920   0.065   1.857 -0.0620  0.5512  0.3608
42062SOL     OW31505   7.252   3.761   8.620  0.8089 -0.3274  0.3485
42062SOL    HW131506   7.319   3.700   8.589  2.0956  0.3830  1.6548
42062SOL    HW231507   7.201   3.782   8.541  1.8778 -1.1783 -0.5988
42063SOL     OW31508   3.254   0.649   1.441 -0.0302 -0.3035 -0.1268
42063SOL    HW131509   3.337   0.658   1.488  1.5674  1.7147 -3.0275
42063SOL    HW231510   3.251   0.557   1.416  2.1902 -0.1273 -1.2906
42064SOL     OW31511  10.682  11.141   0.081  0.5202 -0.4825  0.3780
42064SOL    HW131512  10.666  11.129  -0.013  1.9979  0.6940 -0.0492
42064SOL    HW231513  10.711  11.055   0.112 -1.3007 -1.2558  0.0947
42065SOL     OW31514   6.897   2.290   9.193 -0.0076 -0.5389  0.9691
42065SOL    HW131515   6.975   2.344   9.204  0.1469  0.0897 -2.1957
42065SOL    HW231516   6.930   2.210   9.151 -1.1783  1.0870 -3.6880
42066SOL     OW31517   4.951   5.064   1.768  0.0243 -0.2337 -0.0284
42066SOL    HW131518   5.008   5.004   1.720 -1.1884 -0.7583 -0.8727
42066SOL    HW231519   4.954   5.146   1.717  1.6599  0.4684  1.1107
42067SOL     OW31520   0.718  10.248   9.062 -0.2148 -0.1976  0.2132
42067SOL    HW131521   0.729  10.338   9.092  0.1017 -0.3881  0.6887
42067SOL    HW231522   0.791  10.200   9.102 -2.1092 -1.3145  2.6272
42068SOL     OW31523  11.220   5.884   1.730  0.0932 -0.3692 -0.4238
42068SOL    HW131524  11.193   5.883   1.639  0.4785 -0.8007 -0.5425
42068SOL    HW231525  11.288   5.951   1.735  1.3520 -1.5622 -0.8602
42069SOL     OW31526  10.520   0.843   3.441  0.4341  0.3828  0.2311
42069SOL    HW131527  10.490   0.755   3.465 -1.1715  0.2334 -2.0441
42069SOL    HW231528  10.600   0.828   3.391 -1.2708 -0.1398 -2.5649
42070SOL     OW31529   6.059   8.828   3.950 -0.4879 -0.5621  0.5061
42070SOL    HW131530   6.010   8.759   3.904 -2.0986  1.8233 -1.6698
42070SOL    HW231531   6.006   8.847   4.027 -2.1692  0.6910 -0.8532
42071SOL     OW31532   4.863   5.609   6.094  0.0879  0.6458 -0.1707
42071SOL    HW131533   4.898   5.693   6.122  2.9128 -0.6408  0.5623
42071SOL    HW231534   4.839   5.565   6.176 -0.2549  0.2992 -0.4573
42072SOL     OW31535   4.792   0.142   3.732  0.2027 -0.3640  0.2497
42072SOL    HW131536   4.748   0.116   3.813 -1.6509 -0.2302 -0.6605
42072SOL    HW231537   4.856   0.073   3.716  0.6518 -0.3558  1.8450
42073SOL     OW31538   1.229   0.864   7.401 -0.3583 -0.2627  0.0733
42073SOL    HW131539   1.210   0.788   7.456  0.3234 -1.2269 -0.9792
42073SOL    HW231540   1.318   0.850   7.371 -0.2716  0.8946 -0.2658
42074SOL     OW31541   5.403   2.900   0.710 -0.6455  0.4153  0.0794
42074SOL    HW131542   5.365   2.981   0.677  1.6467  1.3977 -0.2951
42074SOL    HW231543   5.452   2.926   0.788 -0.7557 -0.8096  0.5904
42075SOL     OW31544   1.371  10.532  11.691 -0.6726 -0.0548 -0.2264
42075SOL    HW131545   1.383  10.627  11.694 -0.0771 -0.0952 -1.0077
42075SOL    HW231546   1.449  10.500  11.645 -0.9258 -0.9118 -0.0704
42076SOL     OW31547   9.830   5.926  11.209 -0.3297 -0.2181  0.3645
42076SOL    HW131548   9.916   5.885  11.219 -0.5681 -0.7765  0.1930
42076SOL    HW231549   9.793   5.885  11.130 -0.2759  0.8829 -0.2447
42077SOL     OW31550  11.549   7.620  10.880 -0.0108 -0.7148 -0.4308
42077SOL    HW131551  11.546   7.533  10.841  1.4678  0.2043 -2.8640
42077SOL    HW231552  11.492   7.673  10.824  0.9698  0.3435 -0.4760
42078SOL     OW31553   2.331   5.375  10.668 -0.3782  0.1707 -0.0142
42078SOL    HW131554   2.253   5.321  10.661  0.9803 -1.8684 -0.0405
42078SOL    HW231555   2.389   5.328  10.728  0.7750  1.7259  0.1728
42079SOL     OW31556   4.077   2.330   9.593 -0.1627 -0.3826  0.2657
42079SOL    HW131557   4.107   2.244   9.624  1.7966 -0.6448 -2.0499
42079SOL    HW231558   4.036   2.311   9.509  0.7599  0.9805 -0.5217
42080SOL     OW31559   0.864   3.064   6.736  0.6597 -0.6909  0.0107
42080SOL    HW131560   0.941   3.007   6.742  0.7082 -0.7402 -0.9367
42080SOL    HW231561   0.842   3.065   6.643  0.7951  1.0203 -0.0357
42081SOL     OW31562  11.482   1.178   7.620 -0.1050 -0.2430 -0.1424
42081SOL    HW131563  11.572   1.201   7.644  0.0837 -0.2786 -0.8058
42081SOL    HW231564  11.460   1.238   7.549 -0.5341 -0.3859 -0.1326
42082SOL     OW31565   4.142   6.030   1.553 -0.4114  0.0999  0.0172
42082SOL    HW131566   4.144   5.961   1.619  1.3414  0.6614  0.5983
42082SOL    HW231567   4.234   6.052   1.538 -0.9010  1.8823 -0.6214
42083SOL     OW31568  11.172   1.033   2.615 -0.2547 -0.2947  0.4967
42083SOL    HW131569  11.091   1.073   2.583  0.6915  1.7507  0.5317
42083SOL    HW231570  11.203   0.982   2.541 -1.1642 -0.4695  0.2179
42084SOL     OW31571   6.131   6.775   4.497  0.1825  0.1080 -0.1721
42084SOL    HW131572   6.188   6.778   4.574 -2.8110  0.8083  2.2235
42084SOL    HW231573   6.115   6.682   4.482 -0.3045 -0.0152  1.0022
42085SOL     OW31574   4.199   4.011   4.935 -0.4686  0.8622  0.1510
42085SOL    HW131575   4.177   4.086   4.880  0.2689  1.3979  0.5671
42085SOL    HW231576   4.295   4.013   4.941 -0.5457  1.0838  1.8076
42086SOL     OW31577   4.643   1.372   7.998 -0.7038  0.0505 -0.0246
42086SOL    HW131578   4.617   1.436   8.064 -0.1268 -0.4093  0.6703
42086SOL    HW231579   4.680   1.299   8.049  1.7032  0.5480 -0.9128
42087SOL     OW31580   6.876   3.517   8.797 -0.0184  0.1480 -0.0562
42087SOL    HW131581   6.893   3.425   8.775  0.6652  0.2737 -0.0829
42087SOL    HW231582   6.866   3.517   8.892  0.4833  0.1106  0.0032
42088SOL     OW31583   9.588   9.620   2.276 -0.4679 -0.1862  0.2781
42088SOL    HW131584   9.649   9.546   2.285 -0.1516  0.0604  0.1662
42088SOL    HW231585   9.560   9.618   2.185 -0.4506 -0.1590  0.2723
42089SOL     OW31586   8.204   5.858   9.331 -0.3497 -0.6270 -0.0390
42089SOL    HW131587   8.122   5.863   9.381  0.2497 -0.5002  0.9627
42089SOL    HW231588   8.197   5.929   9.268 -0.5233  0.1389  0.8121
42090SOL     OW31589  11.142  11.672   5.827 -0.2341  0.3908 -0.1697
42090SOL    HW131590  11.174  11.757   5.799  1.9377 -0.2272  0.2678
42090SOL    HW231591  11.159  11.614   5.753 -2.5873  0.4486 -0.8553
42091SOL     OW31592   5.898   4.724   5.236  0.9473 -0.0724 -0.1213
42091SOL    HW131593   5.934   4.803   5.276 -0.3505 -0.3569  1.7660
42091SOL    HW231594   5.945   4.652   5.277 -0.1915 -0.3642  0.7100
42092SOL     OW31595   1.929  11.639  10.918  0.4342 -0.4349  0.5920
42092SOL    HW131596   1.931  11.597  10.832  1.4194  0.7074  0.0191
42092SOL    HW231597   1.909  11.568  10.979 -0.5971 -1.2063 -0.5993
42093SOL     OW31598   1.257   7.015   6.819 -0.4805  0.1925 -0.5604
42093SOL    HW131599   1.221   6.978   6.739 -1.0593  1.6867 -1.0223
42093SOL    HW231600   1.191   7.077   6.849  1.4301  2.6918 -1.1746
42094SOL     OW31601   5.137   9.311  11.023  0.1148 -0.1386  0.5546
42094SOL    HW131602   5.102   9.400  11.024  1.1677  0.2951  1.1277
42094SOL    HW231603   5.134   9.283  11.114  2.4962  0.4662  0.8901
42095SOL     OW31604   0.115   7.463   5.630 -0.2185  0.4834 -0.1078
42095SOL    HW131605   0.110   7.375   5.592 -0.0474 -0.4157  1.8317
42095SOL    HW231606   0.208   7.486   5.624  0.1327 -0.4381  1.3679
42096SOL     OW31607   7.844   3.589   8.854 -0.3407 -0.5969 -0.3700
42096SOL    HW131608   7.883   3.516   8.806 -1.3100 -0.2972 -1.6601
42096SOL    HW231609   7.750   3.573   8.850 -0.4741 -0.5288  1.4340
42097SOL     OW31610   5.946   0.432   8.251 -0.3045  0.0683  0.0606
42097SOL    HW131611   5.878   0.492   8.280  1.6588  2.6267 -0.3000
42097SOL    HW231612   5.978   0.390   8.331 -0.7500  0.5721  0.5060
42098SOL     OW31613   3.666   5.263   1.026  0.3256 -0.2503 -0.1585
42098SOL    HW131614   3.660   5.205   0.950 -1.2184  0.1636 -0.3814
42098SOL    HW231615   3.697   5.346   0.990  0.1015 -0.2043 -0.2435
42099SOL     OW31616   8.191   2.658  10.077 -0.1522  0.0731 -0.3149
42099SOL    HW131617   8.114   2.665  10.133 -0.8218  2.5635 -1.4221
42099SOL    HW231618   8.257   2.615  10.132 -0.9324  1.9238  2.2480
42100SOL     OW31619  10.492  10.962   2.991  0.8086 -0.3629  0.4427
42100SOL    HW131620  10.459  10.902   3.058  0.9828 -0.8404  0.1019
42100SOL    HW231621  10.445  10.937   2.911  0.8542 -0.0211  0.3070
42101SOL     OW31622   2.479  11.135   8.515  0.6633  0.1425 -0.1904
42101SOL    HW131623   2.423  11.058   8.505  0.9128  0.0182 -0.6671
42101SOL    HW231624   2.503  11.159   8.426 -0.8173  1.8416 -0.1964
42102SOL     OW31625   3.089   0.683   5.309 -0.2104  0.2159 -0.2266
42102SOL    HW131626   3.030   0.758   5.312 -0.9785 -0.3882  0.4149
42102SOL    HW231627   3.034   0.609   5.284  0.4039 -0.2532 -0.2369
42103SOL     OW31628   0.295   5.810   7.405 -0.2372  0.9999 -0.8418
42103SOL    HW131629   0.204   5.781   7.393 -0.2490 -0.7955  2.3600
42103SOL    HW231630   0.341   5.730   7.431  2.0167  2.1177 -1.2122
42104SOL     OW31631   5.542   3.678   3.089  0.2522  0.1665 -0.0252
42104SOL    HW131632   5.548   3.747   3.155  0.3963  0.6005 -0.4858
42104SOL    HW231633   5.633   3.663   3.062  0.0399  1.6257 -1.7756
42105SOL     OW31634  11.472   8.603  11.521  0.4534  0.4717  0.0538
42105SOL    HW131635  11.527   8.662  11.573 -0.6327  1.9672 -0.4140
42105SOL    HW231636  11.398   8.582  11.578 -1.0118  2.5353 -0.9590
42106SOL     OW31637   4.500  10.665   6.921  0.0847 -0.1783  0.0974
42106SOL    HW131638   4.450  10.723   6.978 -1.0614 -0.8934 -0.1570
42106SOL    HW231639   4.506  10.712   6.838 -1.2996 -0.6152 -0.2729
42107SOL     OW31640   0.019   5.987  11.402  0.6858  0.3659 -0.2372
42107SOL    HW131641  -0.038   5.985  11.479  0.1250  1.1378 -0.6159
42107SOL    HW231642   0.085   6.053  11.424  0.7576  0.3009 -0.2598
42108SOL     OW31643   4.943   3.505   7.786  0.3917 -0.6304 -0.4860
42108SOL    HW131644   4.877   3.486   7.719 -0.4584  0.0501  0.1348
42108SOL    HW231645   5.000   3.428   7.787 -1.5107 -2.1027  0.2836
42109SOL     OW31646   1.823   7.151   7.670 -0.2929  0.3938 -0.2371
42109SOL    HW131647   1.775   7.170   7.589 -0.6549 -0.7990 -0.3347
42109SOL    HW231648   1.759   7.164   7.740  0.0449  1.5108 -0.1219
42110SOL     OW31649   0.616   7.064   3.032  0.0046 -0.0074  0.8480
42110SOL    HW131650   0.641   7.107   2.951  0.7427 -1.1605  0.4323
42110SOL    HW231651   0.646   7.123   3.101 -2.9073  2.2488  0.3641
42111SOL     OW31652   6.626   8.149   8.511 -0.9511 -0.1134 -0.3770
42111SOL    HW131653   6.654   8.060   8.535  1.2015  0.4098 -0.7374
42111SOL    HW231654   6.598   8.188   8.593 -1.9577 -1.1201 -0.2175
42112SOL     OW31655   9.944   5.237   0.273  0.1002  0.1642 -0.0903
42112SOL    HW131656   9.961   5.145   0.295  0.6473  0.4171  0.6093
42112SOL    HW231657  10.029   5.270   0.243  0.5135  1.0388  1.9097
42113SOL     OW31658  10.995   7.349  10.887 -0.0991 -0.2042 -0.3704
42113SOL    HW131659  10.932   7.336  10.816  0.0618  0.5722 -0.6648
42113SOL    HW231660  10.949   7.322  10.966 -0.5203 -0.4106 -0.6843
42114SOL     OW31661   6.163   8.188   3.445  0.0064  0.1536  0.2638
42114SOL    HW131662   6.079   8.222   3.475 -0.6160  0.4849 -1.7155
42114SOL    HW231663   6.169   8.100   3.483 -0.2407  0.9060  2.1147
42115SOL     OW31664   2.159   8.733   2.230  0.0762 -0.1110 -0.6355
42115SOL    HW131665   2.099   8.677   2.279 -0.0226 -1.1040 -1.8441
42115SOL    HW231666   2.128   8.728   2.139  1.5901 -0.1190 -1.1757
42116SOL     OW31667  11.625   3.358  10.236 -0.6529  0.2623 -0.3183
42116SOL    HW131668  11.682   3.432  10.214  0.4685 -0.7550 -0.9688
42116SOL    HW231669  11.555   3.362  10.171 -1.2918  1.4570  0.4102
42117SOL     OW31670   5.037   5.473   9.142  0.2100  0.0461 -0.4933
42117SOL    HW131671   5.060   5.525   9.065 -1.7702  2.0020  0.1350
42117SOL    HW231672   5.093   5.508   9.211  0.4940 -0.2567 -0.5674
42118SOL     OW31673   6.036  11.801  11.042 -0.1618  0.1315 -0.0313
42118SOL    HW131674   5.993  11.717  11.028 -1.2954  0.8140 -0.8549
42118SOL    HW231675   6.102  11.807  10.972  0.1323 -0.1980  0.2167
42119SOL     OW31676   6.465   3.296   1.118 -0.2920 -0.2456  0.1767
42119SOL    HW131677   6.413   3.309   1.039 -0.9771 -1.9361  0.3118
42119SOL    HW231678   6.412   3.239   1.173  0.1701  0.8921  1.8893
42120SOL     OW31679   1.141   0.284   8.074  0.3022 -0.1264  0.5105
42120SOL    HW131680   1.223   0.244   8.103  0.6934  1.2917  1.4645
42120SOL    HW231681   1.164   0.375   8.054 -0.7273 -0.1138 -0.7587
42121SOL     OW31682   0.333   4.619  11.182  0.2200 -0.2697  0.3878
42121SOL    HW131683   0.381   4.620  11.264  0.4193 -0.1602  0.2714
42121SOL    HW231684   0.346   4.706  11.145  2.1774 -1.0490 -0.9267
42122SOL     OW31685   5.847   2.498   5.207  0.3640  0.1648  0.1281
42122SOL    HW131686   5.932   2.496   5.252  0.0133  2.1149  0.9548
42122SOL    HW231687   5.786   2.460   5.271  0.5111 -0.8544 -0.3109
42123SOL     OW31688   5.992   1.624   9.620  0.6515 -0.5553 -0.1794
42123SOL    HW131689   5.933   1.698   9.631  1.3757  0.0384 -0.1925
42123SOL    HW231690   6.079   1.662   9.627  1.0406 -1.3293 -0.6975
42124SOL     OW31691   4.522   1.545   2.897  0.1123 -0.3432  0.2138
42124SOL    HW131692   4.589   1.482   2.924 -0.0844 -1.0323 -0.8600
42124SOL    HW231693   4.442   1.493   2.890 -0.2096  0.1781  0.0116
42125SOL     OW31694   7.114   3.110   1.241 -0.3164 -0.6768 -0.1320
42125SOL    HW131695   7.079   3.198   1.261  0.6734 -0.6394  1.7058
42125SOL    HW231696   7.085   3.092   1.152 -1.7299  0.9411 -0.0570
42126SOL     OW31697   7.717   6.570   9.079 -0.0082  0.4678  0.0443
42126SOL    HW131698   7.663   6.645   9.054  0.1041  0.1076 -1.3708
42126SOL    HW231699   7.661   6.494   9.066 -0.2088  0.3061  1.7409
42127SOL     OW31700   4.440   5.774   9.491 -0.3684  0.3262 -0.4838
42127SOL    HW131701   4.389   5.745   9.567  0.5272 -0.2843 -0.1086
42127SOL    HW231702   4.528   5.740   9.506  0.4666  2.2826 -0.5784
42128SOL     OW31703  10.387   9.972   1.768  0.3309 -0.1128  0.0009
42128SOL    HW131704  10.343   9.890   1.788 -2.3636  1.2302 -0.0412
42128SOL    HW231705  10.388  10.020   1.851  1.7641 -0.0938 -0.0000
42129SOL     OW31706   5.156   6.212  11.476  0.1948 -0.1379  0.0315
42129SOL    HW131707   5.231   6.185  11.528 -0.7591 -1.7173  0.6540
42129SOL    HW231708   5.080   6.186  11.528 -0.9349  4.0186  0.8694
42130SOL     OW31709   2.716   7.810   9.525 -0.2953 -0.3601  0.1631
42130SOL    HW131710   2.658   7.741   9.491 -1.1024  0.9502 -1.2849
42130SOL    HW231711   2.656   7.877   9.558  0.4620 -0.1437  1.1350
42131SOL     OW31712   4.823   5.823   1.200  0.0273  0.3572 -0.3895
42131SOL    HW131713   4.912   5.795   1.221 -0.2371 -0.3250 -0.1721
42131SOL    HW231714   4.770   5.744   1.207 -0.7921  0.9605  0.5709
42132SOL     OW31715   7.169  10.898   2.297 -0.2879  0.1640  0.0027
42132SOL    HW131716   7.169  10.820   2.241 -1.0164 -0.4675  0.8440
42132SOL    HW231717   7.233  10.957   2.258 -0.5399 -0.4010 -1.2940
42133SOL     OW31718   3.644   3.369   3.086 -0.1913 -0.4237  0.2524
42133SOL    HW131719   3.710   3.420   3.040  0.3970  0.1125  1.6265
42133SOL    HW231720   3.565   3.378   3.034  0.5515 -0.2126 -0.8667
42134SOL     OW31721   9.775   9.415  11.565 -0.0426 -0.2860  0.4199
42134SOL    HW131722   9.773   9.453  11.477  1.6013 -2.7302 -0.7847
42134SOL    HW231723   9.799   9.487  11.622 -0.1558  1.1562 -1.2721
42135SOL     OW31724   5.370   0.843   3.259  0.1456  0.2107 -0.0835
42135SOL    HW131725   5.275   0.836   3.270 -0.0735  0.7073 -1.4609
42135SOL    HW231726   5.386   0.811   3.170  1.3823 -0.6803  0.4353
42136SOL     OW31727   5.785   8.352   5.897 -0.3128  0.5754 -0.3950
42136SOL    HW131728   5.786   8.359   5.992  0.0163  0.8416 -0.4175
42136SOL    HW231729   5.706   8.400   5.871  1.1526  3.1445 -0.4401
42137SOL     OW31730  10.170  10.091   1.070 -0.2006  0.1932 -0.5725
42137SOL    HW131731  10.254  10.138   1.061 -0.5283  0.9455  0.1534
42137SOL    HW231732  10.111  10.136   1.010  0.0077 -0.6073 -1.4027
42138SOL     OW31733   7.900   5.210   8.574  0.7845  0.0404  0.4613
42138SOL    HW131734   7.922   5.138   8.515 -1.0918  0.3188 -0.6532
42138SOL    HW231735   7.830   5.176   8.629 -0.5339  1.1651 -0.4742
42139SOL     OW31736   5.197   9.625   6.291 -0.4725  0.3377 -0.1411
42139SOL    HW131737   5.280   9.613   6.338 -1.3148  2.1158  2.0021
42139SOL    HW231738   5.223   9.645   6.201  1.3955  0.3042  0.3558
42140SOL     OW31739   5.890   8.400   4.590  0.0166  0.0409  0.0275
42140SOL    HW131740   5.915   8.402   4.497  1.8731  1.0947  0.4962
42140SOL    HW231741   5.795   8.412   4.589 -0.2383 -1.5940 -1.7871
42141SOL     OW31742  10.258   0.451   6.127 -0.7449  0.7806  0.9127
42141SOL    HW131743  10.250   0.544   6.146  1.3736  1.3831 -0.7831
42141SOL    HW231744  10.334   0.445   6.069 -0.1438 -2.1221  1.8401
42142SOL     OW31745   6.014   3.252  11.254 -0.2519  0.2753  0.1754
42142SOL    HW131746   5.924   3.243  11.285 -1.2454 -0.9751 -2.7728
42142SOL    HW231747   6.067   3.220  11.327 -2.1322  0.9222  1.9421
42143SOL     OW31748   9.753   4.437   8.406 -0.2970 -0.4485 -0.3899
42143SOL    HW131749   9.781   4.387   8.330 -1.7196 -1.5571 -0.2320
42143SOL    HW231750   9.659   4.447   8.395 -0.7344 -1.5784  1.7158
42144SOL     OW31751   2.782   3.331   1.221  0.0797 -0.0291  0.3714
42144SOL    HW131752   2.727   3.253   1.224  0.8694 -0.5770  1.0496
42144SOL    HW231753   2.854   3.308   1.162 -0.7743  0.9462 -1.1263
42145SOL     OW31754   4.890   3.819   4.383 -0.3273  0.3766 -0.8855
42145SOL    HW131755   4.962   3.875   4.414  0.8813 -1.2542 -0.6117
42145SOL    HW231756   4.934   3.743   4.346 -1.9298 -1.2270  0.3336
42146SOL     OW31757   2.431   4.709   9.122 -0.2074  0.8569 -0.6398
42146SOL    HW131758   2.392   4.797   9.119 -0.5378  0.7170 -0.4275
42146SOL    HW231759   2.445   4.686   9.030 -0.1145  1.1307 -0.6962
42147SOL     OW31760   8.806   7.880   8.056  0.5316 -0.0001  0.3573
42147SOL    HW131761   8.803   7.805   7.997  0.7887  0.1526  0.1509
42147SOL    HW231762   8.837   7.953   8.002 -2.1763  0.8906 -0.1230
42148SOL     OW31763   7.531   9.799   0.157  0.6258 -0.0742 -0.0423
42148SOL    HW131764   7.606   9.741   0.152  0.9777  0.4659 -1.1192
42148SOL    HW231765   7.457   9.740   0.177  0.9188 -0.9446 -1.3974
42149SOL     OW31766   5.967   1.605   5.629 -0.5637 -0.2891 -0.3134
42149SOL    HW131767   5.879   1.585   5.662 -0.3244 -1.1248 -0.1579
42149SOL    HW231768   6.006   1.661   5.697 -0.3944 -1.2661  0.4190
42150SOL     OW31769   3.187   5.072   4.271 -0.3572  0.2740 -0.2658
42150SOL    HW131770   3.249   5.012   4.227 -1.1980 -0.4273 -0.5274
42150SOL    HW231771   3.200   5.054   4.364 -2.0776 -1.9199 -0.3622
42151SOL     OW31772   1.748   6.445   9.644 -0.5893  0.5031  0.2787
42151SOL    HW131773   1.776   6.389   9.572  0.5473  0.2372  0.9021
42151SOL    HW231774   1.707   6.520   9.601  1.8647  1.3662 -0.7970
42152SOL     OW31775   8.473   5.918   7.519  0.3281 -0.2920 -0.1235
42152SOL    HW131776   8.506   5.920   7.429 -1.1070  0.4501 -0.6866
42152SOL    HW231777   8.511   5.995   7.560  0.0316  0.0607 -0.4920
42153SOL     OW31778   5.509   6.914  10.401 -0.1821 -0.1424  0.2325
42153SOL    HW131779   5.573   6.849  10.373 -0.9342 -0.3310 -1.1607
42153SOL    HW231780   5.449   6.922  10.327  0.4464  2.8984 -0.0809
42154SOL     OW31781   7.019   6.813   2.237  0.0335  0.3814 -0.0875
42154SOL    HW131782   6.971   6.749   2.184  0.2726 -0.6477  0.8907
42154SOL    HW231783   6.960   6.888   2.245 -0.8664 -0.3215 -0.0133
42155SOL     OW31784  11.295   8.095   4.789 -0.5605  0.5116  0.0162
42155SOL    HW131785  11.264   8.074   4.701  0.1849  0.6673 -0.2903
42155SOL    HW231786  11.363   8.161   4.776 -0.4809  0.5793  0.7116
42156SOL     OW31787   8.559   5.481  10.426  0.3831 -0.2508  0.0595
42156SOL    HW131788   8.489   5.453  10.367  0.8262  1.6375 -1.4481
42156SOL    HW231789   8.629   5.417  10.414  0.1961 -0.2662 -0.9854
42157SOL     OW31790  10.301  10.998   6.188  0.0724  0.8277  0.3076
42157SOL    HW131791  10.265  11.037   6.267 -2.7595  0.2629 -0.5719
42157SOL    HW231792  10.319  10.907   6.212  1.8681  1.3353  0.9977
42158SOL     OW31793   9.414   6.034   8.167  0.5874  0.2201  0.3585
42158SOL    HW131794   9.354   6.013   8.239  0.9854 -1.1205  0.3167
42158SOL    HW231795   9.398   5.966   8.102  2.5952 -0.5640  0.6209
42159SOL     OW31796   6.457   4.048   2.063 -0.5161  0.3616 -0.0614
42159SOL    HW131797   6.400   3.989   2.014  1.9461 -0.4057 -2.1997
42159SOL    HW231798   6.489   3.995   2.136 -1.0777  0.2064  0.0759
42160SOL     OW31799   8.455   7.021   1.052 -0.4028  0.0961  0.4101
42160SOL    HW131800   8.491   7.016   1.140 -0.4569  1.2656  0.5069
42160SOL    HW231801   8.370   7.064   1.063 -0.1926  0.6956 -0.2737
42161SOL     OW31802   3.126   7.473   4.223 -0.2207  0.3525  0.4047
42161SOL    HW131803   3.041   7.459   4.181  0.6942 -0.5666 -1.2298
42161SOL    HW231804   3.171   7.535   4.166  1.5841 -1.9846 -0.8799
42162SOL     OW31805   6.575  10.080   6.518  0.1785 -0.0615  0.1027
42162SOL    HW131806   6.595   9.991   6.487 -1.2229 -0.5359  0.4712
42162SOL    HW231807   6.645  10.134   6.483  1.5962 -1.4576  0.6455
42163SOL     OW31808   8.070   8.931   9.312 -0.2401  0.2891 -0.0539
42163SOL    HW131809   8.008   8.870   9.351  0.4365 -0.2520  0.2071
42163SOL    HW231810   8.156   8.898   9.340  0.1790  0.7992 -0.7149
42164SOL     OW31811   3.273   5.801   6.073 -0.1659 -0.5158 -0.2114
42164SOL    HW131812   3.297   5.774   5.984 -1.9189 -1.1684 -0.5299
42164SOL    HW231813   3.266   5.719   6.122 -1.8665 -0.4177 -0.2150
42165SOL     OW31814   0.520   0.444  10.987  0.2866 -0.5545 -0.4919
42165SOL    HW131815   0.576   0.384  11.037  0.3084 -0.9383 -0.9695
42165SOL    HW231816   0.431   0.423  11.015  0.3616 -0.0932  0.1063
42166SOL     OW31817   8.796   0.995   6.276 -0.5351 -0.2184 -0.0870
42166SOL    HW131818   8.700   0.997   6.275 -0.5983  2.4707  1.7589
42166SOL    HW231819   8.818   0.973   6.367  0.5392  1.1937  0.0195
42167SOL     OW31820   1.496   9.181   2.990 -0.5304  0.2121 -0.3113
42167SOL    HW131821   1.578   9.137   3.009  0.7723  2.0852 -1.2519
42167SOL    HW231822   1.466   9.143   2.908 -0.8498 -0.7630  0.2403
42168SOL     OW31823   8.666   1.568   9.507 -0.5232 -0.0513  0.1191
42168SOL    HW131824   8.746   1.610   9.475 -0.8869 -0.2369 -1.0668
42168SOL    HW231825   8.601   1.638   9.509 -0.9959 -0.4076 -1.3845
42169SOL     OW31826  11.213   8.556   9.859  0.3605 -0.5229 -0.1003
42169SOL    HW131827  11.265   8.542   9.938 -0.7145 -0.7079  0.6037
42169SOL    HW231828  11.169   8.472   9.844 -0.3264 -0.1491 -0.2277
42170SOL     OW31829   1.633   0.430   2.987 -0.4064 -0.0722  0.0574
42170SOL    HW131830   1.714   0.475   2.962  1.0109 -2.7635 -0.5430
42170SOL    HW231831   1.620   0.455   3.079  1.1917  0.3186  0.2127
42171SOL     OW31832   9.562   9.927   9.200 -0.0656 -0.0504  0.0881
42171SOL    HW131833   9.573  10.012   9.243  0.4162 -1.0470  2.0599
42171SOL    HW231834   9.549   9.948   9.108 -0.4674  2.1777  0.6022
42172SOL     OW31835  11.474  11.680   5.447  0.0723  0.4499 -0.5434
42172SOL    HW131836  11.501  11.613   5.384  0.6768 -1.0460  1.1979
42172SOL    HW231837  11.527  11.756   5.425 -1.0022  0.6007 -2.9141
42173SOL     OW31838   9.785   1.842   7.691 -0.0069 -0.2840 -0.1406
42173SOL    HW131839   9.819   1.928   7.669  0.0101  0.1066  1.3128
42173SOL    HW231840   9.699   1.839   7.649  0.3577  0.0763 -0.9358
42174SOL     OW31841   6.801   3.443   1.645 -0.1692 -0.1052 -0.4634
42174SOL    HW131842   6.832   3.353   1.643 -0.5264 -0.3219  1.6492
42174SOL    HW231843   6.714   3.438   1.684 -0.1823  1.1532 -0.2870
42175SOL     OW31844   9.713  11.780   9.104  0.4934  0.4159 -0.1830
42175SOL    HW131845   9.704  11.685   9.098  0.2085  0.4430 -0.1924
42175SOL    HW231846   9.623  11.813   9.099  0.6712  0.7619 -1.3487
42176SOL     OW31847  11.573  11.223  11.068 -0.3127 -0.2076 -0.6978
42176SOL    HW131848  11.588  11.158  11.137 -0.8309  0.5319  0.1424
42176SOL    HW231849  11.512  11.180  11.008  1.5569 -1.5509 -1.7336
42177SOL     OW31850   4.709  11.141   6.576 -0.5518  0.2051 -0.2362
42177SOL    HW131851   4.648  11.128   6.649 -0.3835  0.4925 -0.0429
42177SOL    HW231852   4.663  11.197   6.515 -1.1037 -0.8902 -0.8554
42178SOL     OW31853   7.683   7.893   9.871  0.4419 -0.5153  0.1600
42178SOL    HW131854   7.650   7.818   9.920 -0.2961 -0.5430 -0.3627
42178SOL    HW231855   7.608   7.951   9.863  1.1509  0.5821  1.0864
42179SOL     OW31856   7.493   5.339   6.319 -0.2886 -0.2193  0.5328
42179SOL    HW131857   7.583   5.314   6.297  0.2439  1.3252  0.8292
42179SOL    HW231858   7.479   5.421   6.272 -1.8275 -0.8302 -0.1225
42180SOL     OW31859   5.636   7.686   4.297  0.0634  0.5452 -0.0513
42180SOL    HW131860   5.568   7.740   4.338  0.7272  1.1515  0.2845
42180SOL    HW231861   5.673   7.743   4.230 -0.1039  0.0322 -0.5819
42181SOL     OW31862  10.982   6.311   6.567  0.8197 -0.7115 -0.0944
42181SOL    HW131863  11.076   6.318   6.551  0.7743 -0.1597 -0.1444
42181SOL    HW231864  10.952   6.242   6.507  1.1003 -0.5109 -0.4678
42182SOL     OW31865   2.147  10.361   5.644  1.0600 -0.4167 -0.3101
42182SOL    HW131866   2.170  10.295   5.580  2.8154  1.2474 -1.5037
42182SOL    HW231867   2.093  10.423   5.596 -2.3432 -1.8799  1.3058
42183SOL     OW31868  10.260   0.292   2.164 -0.7938 -0.1499  0.1155
42183SOL    HW131869  10.304   0.326   2.242 -1.8001 -1.2642  1.2308
42183SOL    HW231870  10.330   0.262   2.107 -0.0725 -1.0708  1.4460
42184SOL     OW31871   6.842  10.494   4.322 -0.3276 -0.4994 -0.1388
42184SOL    HW131872   6.908  10.549   4.279  0.1630 -0.7542  0.2638
42184SOL    HW231873   6.818  10.429   4.257  0.4949 -0.9546 -0.0041
42185SOL     OW31874   2.388   6.424  10.827  0.5596  0.7988  0.1213
42185SOL    HW131875   2.443   6.497  10.854 -0.5292  1.7231 -0.0937
42185SOL    HW231876   2.387   6.429  10.731  0.1863  0.7472  0.1186
42186SOL     OW31877  10.038  10.419   3.520 -0.0399 -0.3529 -0.2415
42186SOL    HW131878  10.042  10.508   3.557 -1.6421 -0.1932 -0.3995
42186SOL    HW231879   9.967  10.423   3.456  0.3614 -1.5689 -0.7862
42187SOL     OW31880   0.412   8.900   0.052 -0.2055  0.2705 -0.7795
42187SOL    HW131881   0.480   8.962   0.077 -0.6514  1.0074 -1.3648
42187SOL    HW231882   0.417   8.896  -0.044  1.2253 -2.2152 -0.6864
42188SOL     OW31883   5.728   9.165   4.282  0.3205 -0.0761 -0.6228
42188SOL    HW131884   5.680   9.245   4.304 -0.5252 -0.8971  0.6486
42188SOL    HW231885   5.660   9.097   4.276  1.0258 -0.7107 -1.6813
42189SOL     OW31886   2.607  11.534   5.385  0.2613  0.2333  0.1524
42189SOL    HW131887   2.530  11.571   5.342  1.2521  1.1564 -0.9116
42189SOL    HW231888   2.679  11.551   5.323  1.0063 -2.3370  0.2055
42190SOL     OW31889   6.609   1.055   6.550 -0.1294 -0.5073  0.3676
42190SOL    HW131890   6.513   1.048   6.554 -0.3611  0.0723 -2.1977
42190SOL    HW231891   6.630   1.127   6.610 -1.1682 -1.2349  1.6674
42191SOL     OW31892   3.536  10.068   0.086 -0.0096 -0.2975  0.4007
42191SOL    HW131893   3.504  10.122   0.159 -1.9446 -0.5985 -0.1492
42191SOL    HW231894   3.600  10.010   0.126 -1.2374 -0.6689  1.9714
42192SOL     OW31895   4.272   6.593   9.453 -0.5904  0.4995  0.0470
42192SOL    HW131896   4.365   6.593   9.430 -0.1260  1.6239  1.7435
42192SOL    HW231897   4.235   6.661   9.397 -0.8523 -1.2802 -2.0737
42193SOL     OW31898  11.769  10.782   2.902  0.2173 -0.1500 -0.5182
42193SOL    HW131899  11.749  10.755   2.992 -0.0394  1.8652  0.0750
42193SOL    HW231900  11.697  10.747   2.850 -1.0110  0.7680  0.4847
42194SOL     OW31901   7.382   6.398   1.708 -0.0769 -0.2832  0.2180
42194SOL    HW131902   7.369   6.382   1.801  0.9553 -1.1397  0.2419
42194SOL    HW231903   7.446   6.469   1.705 -0.8453  0.4157  0.1461
42195SOL     OW31904   9.509   9.985   6.932  0.1121  0.6563 -0.2312
42195SOL    HW131905   9.464  10.026   7.006  0.1259 -1.9067  1.3270
42195SOL    HW231906   9.456  10.008   6.856 -0.1709  2.9832  0.5924
42196SOL     OW31907   0.348   2.069   3.672 -0.2290  0.4671  0.5738
42196SOL    HW131908   0.414   2.134   3.697 -0.0126  0.3065  0.4307
42196SOL    HW231909   0.379   2.034   3.588 -0.1741 -0.0483  0.8020
42197SOL     OW31910  11.813   6.121   1.213 -0.5791 -1.0586  0.7905
42197SOL    HW131911  11.905   6.108   1.236 -0.7416 -1.9088  1.0189
42197SOL    HW231912  11.796   6.213   1.231  0.3513 -0.7806  0.2753
42198SOL     OW31913   0.969   3.191   1.955 -0.0858  0.4370 -0.5053
42198SOL    HW131914   0.894   3.130   1.952  0.1292  0.1961 -1.2538
42198SOL    HW231915   1.045   3.135   1.941  0.3409  0.5404  1.2014
42199SOL     OW31916   7.416   6.992   0.565  0.0300 -0.5713  0.5631
42199SOL    HW131917   7.380   7.034   0.487  0.9971  0.7795  0.8141
42199SOL    HW231918   7.339   6.978   0.622 -0.7884 -2.1851 -0.8492
42200SOL     OW31919   7.960   8.934   8.277  0.0178  0.2065 -0.3121
42200SOL    HW131920   8.031   8.985   8.238  1.6152  0.8003  3.0432
42200SOL    HW231921   7.976   8.844   8.249  1.5034  0.4905 -0.4287
42201SOL     OW31922   7.428   5.001   8.440 -0.9933 -0.0675 -0.0108
42201SOL    HW131923   7.356   4.973   8.384 -0.1075 -1.5078 -0.4851
42201SOL    HW231924   7.495   5.032   8.379 -1.7644  2.8725  0.4676
42202SOL     OW31925   2.995   4.943  10.877  0.0200  0.1967 -0.2267
42202SOL    HW131926   3.089   4.924  10.871 -0.4038 -1.8907 -1.0062
42202SOL    HW231927   2.990   5.019  10.935  2.1952  0.4987 -0.3422
42203SOL     OW31928   4.049  10.513   9.013 -0.3373 -0.3463 -0.0241
42203SOL    HW131929   4.116  10.478   9.073  1.9034 -0.1735 -2.2471
42203SOL    HW231930   4.055  10.608   9.024  1.1592 -0.2225 -1.4729
42204SOL     OW31931   8.499  10.008   9.952 -0.4474  0.4098  0.1336
42204SOL    HW131932   8.513  10.023  10.046  0.0755  1.6033 -0.1158
42204SOL    HW231933   8.515   9.914   9.940  0.3773  0.4099  1.0878
42205SOL     OW31934   0.814   1.892   0.031 -0.2843  0.3382  0.1944
42205SOL    HW131935   0.740   1.912   0.087 -0.0424  0.5156  0.4563
42205SOL    HW231936   0.793   1.934  -0.053 -0.5104  0.3269  0.2446
42206SOL     OW31937   0.145   3.783   7.494 -0.4737 -0.0580 -0.0660
42206SOL    HW131938   0.055   3.751   7.495 -0.5229  0.0747 -0.1478
42206SOL    HW231939   0.150   3.838   7.416  0.3324 -1.8941 -1.3783
42207SOL     OW31940   5.668   0.003  10.391 -0.2102  0.4572  0.0802
42207SOL    HW131941   5.735   0.001  10.322 -0.1457  0.6848  0.1355
42207SOL    HW231942   5.709   0.052  10.462  0.6186 -1.7437  1.2097
42208SOL     OW31943   7.323   7.429   9.849 -1.0366  0.2134 -0.1986
42208SOL    HW131944   7.417   7.437   9.832 -0.6568 -1.5459  0.8599
42208SOL    HW231945   7.282   7.452   9.766  0.3817 -0.3091 -1.0818
42209SOL     OW31946   1.513   9.058   2.079  0.0378 -0.0551 -0.1743
42209SOL    HW131947   1.459   9.137   2.093  0.5577 -0.0963  2.7171
42209SOL    HW231948   1.603   9.090   2.078  0.1463 -0.1795 -3.4401
42210SOL     OW31949   4.892   9.503   4.084  0.3749  0.2178  0.1039
42210SOL    HW131950   4.859   9.581   4.040  0.4051  0.7770  1.0476
42210SOL    HW231951   4.971   9.533   4.129  0.6923 -0.4874  0.0208
42211SOL     OW31952  11.362   7.591   4.867  0.1790 -0.0795  0.5754
42211SOL    HW131953  11.275   7.599   4.907  0.0355 -0.5761  0.3716
42211SOL    HW231954  11.392   7.681   4.858  0.1635  0.0513  1.6876
42212SOL     OW31955   1.280   8.782   1.623 -0.3894 -0.3364  0.5903
42212SOL    HW131956   1.274   8.830   1.705  1.2521  0.4720  0.2846
42212SOL    HW231957   1.367   8.741   1.625 -0.7211 -1.1278 -0.3049
42213SOL     OW31958   3.289   5.587   2.261 -0.0901  0.5946 -0.8060
42213SOL    HW131959   3.215   5.538   2.226  1.0428 -0.5822 -1.6092
42213SOL    HW231960   3.331   5.626   2.184  0.9422  0.0918 -0.5074
42214SOL     OW31961   1.040   8.049   2.733 -0.0998 -0.4792  0.3011
42214SOL    HW131962   0.950   8.063   2.704 -0.0787  0.3630  0.5886
42214SOL    HW231963   1.032   8.017   2.823 -0.1198 -0.0300  0.4663
42215SOL     OW31964   1.358   5.071   9.946 -0.1408 -0.0965 -0.7951
42215SOL    HW131965   1.348   4.990   9.996  2.1792  1.7195  3.1128
42215SOL    HW231966   1.289   5.128   9.980 -0.7276  0.1369 -2.3140
42216SOL     OW31967   7.953   0.555   2.991  0.5087  0.7727 -0.2001
42216SOL    HW131968   7.892   0.609   2.941 -1.3986 -0.3813  0.7289
42216SOL    HW231969   7.897   0.506   3.052  2.2184 -1.4347 -0.2537
42217SOL     OW31970   7.492   4.503   9.886 -0.3974  0.3027 -0.1027
42217SOL    HW131971   7.553   4.562   9.931 -0.4940 -0.4440  1.0769
42217SOL    HW231972   7.487   4.537   9.797  0.5092  1.3238  0.2020
42218SOL     OW31973   0.366  11.414   1.779  0.3054 -0.1929 -0.2873
42218SOL    HW131974   0.272  11.397   1.788  0.0942  0.0267 -1.9052
42218SOL    HW231975   0.392  11.364   1.702  1.8279 -1.3601  0.9150
42219SOL     OW31976   6.654   2.955   6.419  0.6056  0.4532 -0.6408
42219SOL    HW131977   6.617   3.043   6.422  1.4268  0.8362 -1.3122
42219SOL    HW231978   6.742   2.967   6.383  0.5151 -0.7096 -1.2979
42220SOL     OW31979   5.675   9.509  10.554  0.2026  0.0023  0.7817
42220SOL    HW131980   5.589   9.547  10.572  0.5500  1.0652  0.2819
42220SOL    HW231981   5.656   9.427  10.510 -0.5654 -0.1862  1.4399
42221SOL     OW31982   1.767   8.882   8.902 -0.4938 -0.3076  0.3567
42221SOL    HW131983   1.768   8.803   8.849  0.2526  0.6665 -1.1429
42221SOL    HW231984   1.829   8.941   8.859 -2.5183  1.8655  0.2257
42222SOL     OW31985   8.248  11.726   7.817  0.1188  0.2851  0.2027
42222SOL    HW131986   8.250  11.743   7.911  2.8070  1.0277  0.1088
42222SOL    HW231987   8.221  11.634   7.810  0.0304  0.1718  1.7162
42223SOL     OW31988   5.848   1.404   3.665 -0.6131  0.2768 -0.2593
42223SOL    HW131989   5.821   1.322   3.707 -1.0544  1.4770  1.9584
42223SOL    HW231990   5.943   1.395   3.655 -0.6049 -0.3841  0.2613
42224SOL     OW31991   8.441   3.445   0.655  0.2440 -0.9051 -0.3791
42224SOL    HW131992   8.452   3.355   0.686 -0.6147 -1.5583 -1.8969
42224SOL    HW231993   8.364   3.442   0.599  0.7948  0.5660 -1.2599
42225SOL     OW31994   3.394  10.287   8.888  0.3592 -0.2042 -0.2609
42225SOL    HW131995   3.466  10.309   8.828  1.6727 -2.3381  0.4606
42225SOL    HW231996   3.384  10.366   8.942  1.0203  0.7313 -1.4385
42226SOL     OW31997   4.166   1.055   8.174  0.1478  0.7972 -0.1912
42226SOL    HW131998   4.183   1.149   8.183 -1.2052  1.0075  0.4257
42226SOL    HW231999   4.167   1.040   8.079  1.8276  1.1181 -0.2518
42227SOL     OW32000   7.656   7.023  11.670 -0.1292 -0.2845  0.4033
42227SOL    HW132001   7.741   6.978  11.669 -0.2575 -0.6026 -1.4537
42227SOL    HW232002   7.595   6.960  11.631 -0.6151  0.9135 -0.9003
42228SOL     OW32003   3.931   4.310  10.764 -0.0140 -0.2743 -0.1244
42228SOL    HW132004   3.858   4.252  10.743  0.1769 -1.0831  1.3207
42228SOL    HW232005   4.008   4.253  10.765  0.1324 -0.1100  1.6277
42229SOL     OW32006   7.870   3.452   6.295 -0.4075  0.4759  0.5087
42229SOL    HW132007   7.961   3.473   6.315 -0.9484  1.9742  1.5878
42229SOL    HW232008   7.867   3.356   6.292  1.2026  0.4105  0.4031
42230SOL     OW32009  10.054  10.284   9.044 -0.5833  0.2921  0.4382
42230SOL    HW132010  10.038  10.366   8.998 -1.3218  0.1051  0.3561
42230SOL    HW232011  10.017  10.298   9.131  0.5984  0.5602  0.9201
42231SOL     OW32012   9.294   3.099   4.909  0.1251 -0.3396  0.0279
42231SOL    HW132013   9.362   3.144   4.959 -0.2093 -0.2591  0.4133
42231SOL    HW232014   9.338   3.069   4.830  0.1805  1.3716 -0.6324
42232SOL     OW32015   4.739   1.615   7.507  0.3827 -0.3805  0.1487
42232SOL    HW132016   4.705   1.529   7.531 -1.1026  0.5062  1.3942
42232SOL    HW232017   4.730   1.667   7.586 -0.7343  1.5176 -1.1566
42233SOL     OW32018   3.583   3.415  11.228 -0.1385 -0.0798 -0.3869
42233SOL    HW132019   3.495   3.442  11.255 -0.2573  0.3842 -1.1908
42233SOL    HW232020   3.577   3.320  11.218 -1.1710  0.1354 -2.4740
42234SOL     OW32021   5.279   5.262   1.646  0.0630  0.1177  0.2373
42234SOL    HW132022   5.331   5.342   1.641  0.8144 -0.3892 -0.2945
42234SOL    HW232023   5.315   5.205   1.578  0.4066 -1.1753  1.4516
42235SOL     OW32024   9.268  11.236   9.224  0.3601 -0.0870 -0.1092
42235SOL    HW132025   9.310  11.266   9.305  2.5214  1.2861 -1.6411
42235SOL    HW232026   9.270  11.312   9.166  1.9069 -1.8556 -2.5788
42236SOL     OW32027   6.746   0.637  10.317 -0.1663 -0.0957 -0.1439
42236SOL    HW132028   6.814   0.647  10.250  1.0368  0.3767  1.0892
42236SOL    HW232029   6.750   0.718  10.368  0.1962 -1.1206  1.5553
42237SOL     OW32030   3.837   8.266  11.326 -0.1620  0.1630  0.4148
42237SOL    HW132031   3.754   8.224  11.349 -0.7765  1.1073 -0.0155
42237SOL    HW232032   3.904   8.210  11.366 -0.8868 -1.6631 -0.7700
42238SOL     OW32033   2.326  11.616   1.882  0.4371  0.0676  0.1346
42238SOL    HW132034   2.306  11.707   1.861  3.0325  0.4839 -0.9078
42238SOL    HW232035   2.315  11.611   1.977 -1.6062  0.9034 -0.0068
42239SOL     OW32036   5.793   9.129   9.438 -0.5067  0.2517  0.3181
42239SOL    HW132037   5.869   9.183   9.417 -0.2738 -0.0564  0.3615
42239SOL    HW232038   5.827   9.062   9.496 -0.6165 -0.4503 -0.4120
42240SOL     OW32039   5.344   0.226   2.586 -0.0034  0.4965  0.1112
42240SOL    HW132040   5.333   0.140   2.546 -0.8393  1.2991 -1.4894
42240SOL    HW232041   5.421   0.216   2.643 -0.1995 -1.3362  0.1166
42241SOL     OW32042   2.664   4.562   6.841 -0.5061 -0.1560 -0.1133
42241SOL    HW132043   2.597   4.526   6.783 -0.6681 -0.4499  0.2581
42241SOL    HW232044   2.662   4.656   6.823  1.0084 -0.4560 -2.2567
42242SOL     OW32045   8.559   5.136  10.191 -0.4089 -0.0240 -0.0243
42242SOL    HW132046   8.603   5.088  10.121 -0.9447 -1.2102  0.4242
42242SOL    HW232047   8.500   5.072  10.231  1.3405 -0.0369  2.8288
42243SOL     OW32048   2.247  11.486   9.115  0.0153  0.4242 -0.4144
42243SOL    HW132049   2.228  11.484   9.208 -0.6632 -1.6739 -0.5508
42243SOL    HW232050   2.167  11.519   9.074  0.2880  1.2732 -0.2920
42244SOL     OW32051   9.031  11.475  11.546 -0.2676  0.2001  0.4002
42244SOL    HW132052   9.103  11.536  11.560  0.0365 -0.4673  2.0866
42244SOL    HW232053   8.963  11.526  11.502  1.0783  0.9320 -0.9061
42245SOL     OW32054   7.522  11.375   8.453 -0.2514  0.2360  0.3204
42245SOL    HW132055   7.476  11.298   8.421  0.1539  0.1967 -0.1698
42245SOL    HW232056   7.457  11.422   8.506 -1.5307  1.2638 -2.0080
42246SOL     OW32057   3.977  10.079   1.211 -0.0065  0.2081 -0.1834
42246SOL    HW132058   3.904  10.138   1.196 -0.6828 -0.1306  1.5724
42246SOL    HW232059   4.007  10.098   1.300  1.0606 -0.7036 -0.3173
42247SOL     OW32060   8.274   7.412  11.033  0.3793  0.3277 -0.1928
42247SOL    HW132061   8.305   7.369  10.953 -1.9066 -2.6479  0.2934
42247SOL    HW232062   8.317   7.365  11.103 -0.8888 -0.0963  0.3410
42248SOL     OW32063  10.024   9.183   2.687 -0.7287  0.7303  0.0668
42248SOL    HW132064  10.093   9.178   2.753 -0.9439 -1.5839  0.2033
42248SOL    HW232065   9.944   9.195   2.737 -0.8380 -0.5494  0.2312
42249SOL     OW32066   4.279   3.317   3.412  0.0047 -0.5349 -0.5751
42249SOL    HW132067   4.361   3.363   3.396  1.0788 -2.6372 -1.5806
42249SOL    HW232068   4.282   3.295   3.505 -1.2096  2.4983  0.2989
42250SOL     OW32069   5.306   4.368  10.452 -0.3901 -1.0469  0.2389
42250SOL    HW132070   5.307   4.437  10.384  0.0663 -1.3607 -0.0826
42250SOL    HW232071   5.296   4.287  10.403 -1.3818 -1.1833  0.6527
42251SOL     OW32072   7.634  10.590  11.306 -0.4467  0.7751  0.5262
42251SOL    HW132073   7.672  10.529  11.244  2.5810  2.5806  0.4374
42251SOL    HW232074   7.636  10.544  11.390  1.6343  0.6074  0.4311
42252SOL     OW32075   1.522   8.286   9.220  0.0319 -0.4607 -0.1953
42252SOL    HW132076   1.603   8.322   9.182  1.6054 -2.4259  1.0806
42252SOL    HW232077   1.464   8.273   9.145  1.5201 -0.5223 -1.3825
42253SOL     OW32078   7.353   3.416   3.599 -0.0528 -0.2234  0.2649
42253SOL    HW132079   7.304   3.447   3.523  0.2392 -1.9133 -0.6605
42253SOL    HW232080   7.285   3.391   3.662 -0.3047  0.6261  0.3439
42254SOL     OW32081   1.076  10.034   6.340  0.3721 -0.8711  0.0727
42254SOL    HW132082   1.134  10.100   6.379  0.3585 -0.9625  0.2477
42254SOL    HW232083   0.990  10.051   6.378  0.4256 -1.1640  0.3293
42255SOL     OW32084   9.399   5.508   0.932  0.6634 -0.0820  0.2815
42255SOL    HW132085   9.320   5.462   0.902  0.9156  0.0900 -0.6915
42255SOL    HW232086   9.430   5.457   1.006 -0.4331 -0.0817  0.7536
42256SOL     OW32087   7.851   2.551   7.327  0.2673 -0.4506  0.1399
42256SOL    HW132088   7.885   2.640   7.314 -1.4847  0.3582  0.8069
42256SOL    HW232089   7.805   2.531   7.246 -0.5180 -0.1673  0.5012
42257SOL     OW32090   6.071   1.760   1.353  0.4108 -0.6086  0.3419
42257SOL    HW132091   6.121   1.830   1.311  0.2502 -1.5666 -1.5059
42257SOL    HW232092   5.981   1.775   1.324 -0.4406  0.8514  3.3044
42258SOL     OW32093   4.603   3.826   9.114  0.1768  0.0556 -0.2219
42258SOL    HW132094   4.513   3.794   9.122  0.8573 -1.5255  2.0797
42258SOL    HW232095   4.639   3.779   9.039 -0.0882 -1.5299  0.6093
42259SOL     OW32096   8.957   0.990  10.173  0.7513 -0.0376  0.5942
42259SOL    HW132097   8.941   1.077  10.211  1.3067  0.4013 -0.1459
42259SOL    HW232098   8.876   0.942  10.190  1.6913 -0.6645  4.3420
42260SOL     OW32099   9.604  10.740   6.812 -0.4107  0.3486 -0.1190
42260SOL    HW132100   9.540  10.767   6.877 -1.0511 -0.1405 -0.5263
42260SOL    HW232101   9.630  10.651   6.838 -0.6801  0.1449 -0.5227
42261SOL     OW32102   3.793   3.866   6.603 -0.1235  0.8140 -0.5536
42261SOL    HW132103   3.746   3.925   6.544 -0.5635  1.5986  0.5278
42261SOL    HW232104   3.872   3.914   6.627  0.2131  0.3637 -0.7624
42262SOL     OW32105   2.101   5.507   9.633  0.0991  0.4684  0.3409
42262SOL    HW132106   2.095   5.504   9.537 -0.6351 -0.0219  0.3984
42262SOL    HW232107   2.012   5.491   9.663  0.5213 -0.4819  1.1268
42263SOL     OW32108   2.271   5.026   2.310 -0.8641  0.1072  0.0098
42263SOL    HW132109   2.364   5.043   2.325 -0.9342 -0.1919  0.8913
42263SOL    HW232110   2.260   5.027   2.215  0.0181  0.2462 -0.0938
42264SOL     OW32111   0.254   0.636   9.166 -0.4483 -0.5768  0.8225
42264SOL    HW132112   0.264   0.650   9.072 -1.1030  0.1806  0.8571
42264SOL    HW232113   0.286   0.547   9.180  1.2580 -0.0999  0.1682
42265SOL     OW32114   3.413   1.706   2.569 -0.0016  0.1632 -0.1262
42265SOL    HW132115   3.351   1.725   2.640  1.0749  0.4143  0.7788
42265SOL    HW232116   3.442   1.792   2.539  0.4731  0.0385 -0.0290
42266SOL     OW32117   3.124  10.312   4.956  0.0760  0.0044 -0.4223
42266SOL    HW132118   3.216  10.286   4.953 -0.1592 -1.1343  1.0542
42266SOL    HW232119   3.091  10.273   5.037 -1.2045  2.1080  0.1424
42267SOL     OW32120   2.408   7.790   6.166 -0.5228 -0.2329 -0.8586
42267SOL    HW132121   2.451   7.706   6.149  0.6221  0.3421 -0.8843
42267SOL    HW232122   2.390   7.789   6.261 -0.4861 -0.4923 -0.8543
42268SOL     OW32123   7.698   2.181  11.068  0.8751  0.0417  0.0520
42268SOL    HW132124   7.696   2.218  10.979  2.3788  1.8609  0.7022
42268SOL    HW232125   7.610   2.196  11.102  0.5362  0.1415 -0.8338
42269SOL     OW32126   1.864   2.127   5.589 -0.3376 -0.9513  0.5156
42269SOL    HW132127   1.769   2.119   5.578 -0.1434 -2.2958 -0.4222
42269SOL    HW232128   1.888   2.053   5.645  0.3630 -1.6781 -0.7078
42270SOL     OW32129   7.473  11.524  11.061  0.0769  0.3054  0.7174
42270SOL    HW132130   7.417  11.495  10.989 -0.7853 -0.6578  1.7533
42270SOL    HW232131   7.528  11.448  11.082  0.4307  0.6258  0.9858
42271SOL     OW32132   3.775   9.436   9.905 -0.0477 -0.1462  0.1687
42271SOL    HW132133   3.736   9.353   9.931 -0.6314 -0.3328 -1.1691
42271SOL    HW232134   3.777   9.489   9.985 -2.6962 -0.2960  0.4248
42272SOL     OW32135   5.769   5.781   1.807  0.0332  0.0432  0.1031
42272SOL    HW132136   5.691   5.833   1.828 -0.7997 -1.1534  0.0978
42272SOL    HW232137   5.739   5.719   1.740  0.9704 -0.5113  0.1800
42273SOL     OW32138   3.532   4.041   8.050 -0.0445  0.2567  0.4594
42273SOL    HW132139   3.524   4.137   8.043 -0.2140  0.4131  2.2746
42273SOL    HW232140   3.441   4.010   8.054 -0.0466 -0.1850 -1.8624
42274SOL     OW32141  10.334   4.253   6.053  0.0855 -0.1279  0.4813
42274SOL    HW132142  10.422   4.236   6.018  0.5100  1.1355  0.8754
42274SOL    HW232143  10.306   4.333   6.009 -0.9181 -0.5713  0.2957
42275SOL     OW32144   7.269  10.067   1.833 -0.5762 -0.1913 -0.1694
42275SOL    HW132145   7.253  10.132   1.764 -0.3388  1.1338  0.9864
42275SOL    HW232146   7.351  10.025   1.807 -0.5453  0.2159 -0.7610
42276SOL     OW32147   4.749   8.455   5.188 -0.6206  0.1498  0.3583
42276SOL    HW132148   4.766   8.476   5.280 -1.9568 -2.1044  1.1957
42276SOL    HW232149   4.656   8.476   5.175 -0.5124  0.1873 -0.3991
42277SOL     OW32150   2.957   5.107   7.646  0.4213  0.5531 -0.1957
42277SOL    HW132151   3.014   5.115   7.722  0.2120 -0.1155  0.0446
42277SOL    HW232152   3.017   5.088   7.573  0.4570 -1.3617  0.2675
42278SOL     OW32153   1.105   7.385   3.776  0.1145  0.1311 -0.6492
42278SOL    HW132154   1.149   7.405   3.693  1.0154  0.9776  0.0195
42278SOL    HW232155   1.113   7.465   3.827 -0.1124 -0.5073  0.4039
42279SOL     OW32156  11.233   8.397   1.369  0.0116  0.0615  0.3556
42279SOL    HW132157  11.218   8.462   1.438 -1.3892 -0.9729  1.0627
42279SOL    HW232158  11.240   8.449   1.289  0.1646  1.1740  1.0667
42280SOL     OW32159   5.009   5.536   0.929  0.2841 -0.4255  0.2993
42280SOL    HW132160   4.999   5.532   0.833 -1.0753  1.3652  0.3048
42280SOL    HW232161   5.067   5.611   0.943 -1.7226  1.0919  0.9127
42281SOL     OW32162   7.903   6.800   6.923 -0.0700 -0.0118 -0.5027
42281SOL    HW132163   7.908   6.738   6.995  0.4478  1.0954  0.4633
42281SOL    HW232164   7.967   6.868   6.946 -0.5488  0.8284 -1.5489
42282SOL     OW32165   7.653  11.173   1.604  0.5020  0.4507  0.5403
42282SOL    HW132166   7.672  11.099   1.546 -1.7398  0.5579 -0.4514
42282SOL    HW232167   7.574  11.147   1.651 -1.3646  2.7456 -1.0484
42283SOL     OW32168   4.206   9.434   3.917 -0.1071 -0.3724 -0.4797
42283SOL    HW132169   4.251   9.497   3.860 -0.0413 -0.1905 -0.2315
42283SOL    HW232170   4.199   9.479   4.001 -0.3451 -0.5785 -0.3878
42284SOL     OW32171   2.482  10.931   1.286  0.7316 -0.8716  0.1788
42284SOL    HW132172   2.432  11.012   1.284  0.4757 -1.0353 -0.0649
42284SOL    HW232173   2.562  10.951   1.237  1.0000 -0.5538  0.7298
42285SOL     OW32174   2.109   9.969   2.338 -0.2993  0.1604 -0.2835
42285SOL    HW132175   2.062   9.892   2.369  0.5735 -0.7748 -1.2135
42285SOL    HW232176   2.176   9.985   2.405 -0.3606  0.0119 -0.1869
42286SOL     OW32177   3.091   9.484   9.543  0.1280  0.4741 -0.2613
42286SOL    HW132178   3.160   9.550   9.546 -0.0823  0.8549 -2.0865
42286SOL    HW232179   3.016   9.525   9.587  0.7895  0.3772  0.9910
42287SOL     OW32180   0.192  11.738   6.252  0.4685  0.0528 -0.2461
42287SOL    HW132181   0.119  11.714   6.309 -0.7804  0.6475 -1.5299
42287SOL    HW232182   0.253  11.786   6.308 -0.6343  0.4733  0.6139
42288SOL     OW32183  10.983  10.995   7.220 -0.3290  0.0336 -0.2167
42288SOL    HW132184  10.968  11.046   7.140  1.0265  0.4109 -0.2572
42288SOL    HW232185  11.079  10.987   7.225 -0.2439  1.5584  2.3091
42289SOL     OW32186   8.541   7.087   8.317 -0.5163 -0.4300  0.1288
42289SOL    HW132187   8.512   7.153   8.379  0.0871  1.4920 -1.5309
42289SOL    HW232188   8.631   7.067   8.342 -0.8665 -1.0582  0.9437
42290SOL     OW32189   3.801   3.350   4.899 -0.8865  0.9646 -0.0589
42290SOL    HW132190   3.892   3.352   4.867 -0.1407  0.2754  1.8891
42290SOL    HW232191   3.748   3.349   4.819  0.8921 -2.6822 -1.4276
42291SOL     OW32192  10.479   1.430   9.208 -0.4052  0.5377 -0.0158
42291SOL    HW132193  10.448   1.492   9.142 -1.8150 -0.1218 -0.0094
42291SOL    HW232194  10.510   1.355   9.158 -0.4921  0.4639  0.0417
42292SOL     OW32195   0.753  10.788   3.500 -0.2523 -0.5744  0.4308
42292SOL    HW132196   0.730  10.787   3.407 -1.0391 -0.0218  0.6188
42292SOL    HW232197   0.731  10.875   3.531 -1.0580 -1.0951  1.4001
42293SOL     OW32198   4.767   1.938   9.365 -0.2226 -0.0859  0.1006
42293SOL    HW132199   4.752   1.844   9.351 -0.1891 -0.4455  2.2208
42293SOL    HW232200   4.687   1.968   9.408 -0.7510  1.1764 -1.6366
42294SOL     OW32201   5.127   8.326   0.559  0.0003 -0.3888 -0.2887
42294SOL    HW132202   5.221   8.335   0.571  0.2779 -1.9063 -1.0565
42294SOL    HW232203   5.109   8.372   0.476  0.1370 -0.4756 -0.3667
42295SOL     OW32204   6.036   9.686   4.778  0.3269 -0.4842  0.0545
42295SOL    HW132205   5.941   9.677   4.774  0.4329 -0.9985 -1.8399
42295SOL    HW232206   6.058   9.662   4.868 -1.4413  0.9042  0.9191
42296SOL     OW32207  11.738   0.851  10.565 -0.0420 -0.3075 -0.6502
42296SOL    HW132208  11.684   0.776  10.592 -0.3555  0.6552  1.5437
42296SOL    HW232209  11.828   0.818  10.570  0.0733  0.1422  3.1654
42297SOL     OW32210   6.444   5.377  10.284  0.1541  0.5447 -0.1559
42297SOL    HW132211   6.428   5.315  10.213  1.0141  1.1954 -0.9389
42297SOL    HW232212   6.539   5.385  10.288  0.0667  1.5649  0.1571
42298SOL     OW32213   3.719   5.596   5.763  0.1109 -0.2144 -0.0287
42298SOL    HW132214   3.673   5.671   5.725  0.6255  1.1880  1.9717
42298SOL    HW232215   3.656   5.524   5.758  0.0979 -0.1078 -3.2820
42299SOL     OW32216   1.027  11.267  11.323 -0.0134  0.5995  0.4578
42299SOL    HW132217   1.080  11.204  11.372 -2.6789 -0.1635  2.5649
42299SOL    HW232218   1.091  11.324  11.281  2.4700 -0.6048  2.3453
42300SOL     OW32219   7.577   6.678   5.806 -0.0094 -0.0029 -0.2393
42300SOL    HW132220   7.492   6.722   5.807  0.2637  0.6117  2.3365
42300SOL    HW232221   7.556   6.586   5.793 -1.2485 -0.0749  1.8655
42301SOL     OW32222   4.320   6.950   5.176  0.0452 -0.1847  0.2700
42301SOL    HW132223   4.265   6.937   5.099 -0.3878  1.8029  0.1951
42301SOL    HW232224   4.329   6.863   5.214 -1.0095 -0.9561 -1.1558
42302SOL     OW32225   4.676   4.169   7.655  0.2541  0.2648 -0.0698
42302SOL    HW132226   4.749   4.167   7.593 -0.0272  1.6084 -0.4607
42302SOL    HW232227   4.613   4.230   7.618 -0.3511  0.3708  1.0707
42303SOL     OW32228   1.272   9.851   5.421  0.2416  0.3110  0.0013
42303SOL    HW132229   1.362   9.822   5.437  0.3038  1.8746  3.4282
42303SOL    HW232230   1.281   9.923   5.358  1.8015  2.1091  2.1308
42304SOL     OW32231   8.303   4.041   7.807 -0.0023 -0.1790  0.0689
42304SOL    HW132232   8.345   3.969   7.759  0.5595  0.6121 -0.6575
42304SOL    HW232233   8.217   4.007   7.830 -0.2889 -0.6079 -1.5017
42305SOL     OW32234   7.147   0.518   6.447 -0.1510 -0.5982  0.0882
42305SOL    HW132235   7.065   0.566   6.456 -0.6453 -1.0201 -1.7640
42305SOL    HW232236   7.207   0.561   6.508 -1.0578  1.3037 -0.2952
42306SOL     OW32237   7.048   2.242   5.571  0.2394  0.2203 -0.3196
42306SOL    HW132238   7.134   2.284   5.561  0.4154 -0.0901 -0.1308
42306SOL    HW232239   6.989   2.314   5.592  0.2595  0.5867 -1.4571
42307SOL     OW32240   1.159   5.836   5.313 -0.2820 -0.6062 -0.2901
42307SOL    HW132241   1.176   5.889   5.391  0.9334 -1.4612  0.0562
42307SOL    HW232242   1.129   5.751   5.347 -2.0832 -0.2296 -0.8312
42308SOL     OW32243   1.395   4.461  10.441  0.0096 -0.3461 -0.8803
42308SOL    HW132244   1.331   4.531  10.433  1.9603  1.7420  0.4067
42308SOL    HW232245   1.451   4.470  10.363  1.3457  0.7844  0.1582
42309SOL     OW32246   0.560   2.577   2.083 -0.5582 -0.5849 -0.2709
42309SOL    HW132247   0.479   2.597   2.129  0.1268  0.4191  0.5681
42309SOL    HW232248   0.533   2.548   1.996 -1.8225 -0.8092  0.1822
42310SOL     OW32249   4.653  11.273  11.706  0.3231 -0.2075  0.1356
42310SOL    HW132250   4.691  11.249  11.790 -2.2944 -0.6434  1.3002
42310SOL    HW232251   4.641  11.190  11.660  0.3063 -0.1287 -0.0040
42311SOL     OW32252   3.169   9.652  11.536 -0.0167 -0.6144 -0.3254
42311SOL    HW132253   3.132   9.576  11.581  1.3931 -0.5535  1.0434
42311SOL    HW232254   3.181   9.717  11.606 -1.8595  1.1767 -1.5692
42312SOL     OW32255  11.276  10.215  10.451 -0.3386 -0.1937  0.5334
42312SOL    HW132256  11.365  10.190  10.477  0.3680 -0.6057 -1.9815
42312SOL    HW232257  11.241  10.137  10.408 -1.6205  0.2372  0.7730
42313SOL     OW32258   6.749   9.333   8.271 -0.1946  0.1977  0.3838
42313SOL    HW132259   6.679   9.351   8.334  0.7392  0.2879  1.4276
42313SOL    HW232260   6.800   9.414   8.268  1.6275 -0.7753  1.9885
42314SOL     OW32261   2.660   7.089   5.452  0.0363 -0.3468 -0.0867
42314SOL    HW132262   2.672   7.030   5.526 -0.4872  0.9187  1.0416
42314SOL    HW232263   2.745   7.133   5.443  0.0353 -0.3498 -0.1099
42315SOL     OW32264   4.116   9.549  11.401  0.2725 -0.3569  0.6138
42315SOL    HW132265   4.183   9.487  11.431  1.0631  0.5558  0.7720
42315SOL    HW232266   4.124   9.548  11.306 -0.0980 -0.9078  0.5851
42316SOL     OW32267  10.200   8.860   3.739  0.0931  0.2474 -0.0663
42316SOL    HW132268  10.272   8.827   3.686  2.0972  3.2923  0.5524
42316SOL    HW232269  10.203   8.807   3.819  1.8945  0.5355  0.0884
42317SOL     OW32270   9.393   5.153   1.309  0.7664 -0.1109 -0.1428
42317SOL    HW132271   9.318   5.120   1.359  0.8371  0.5814  0.4482
42317SOL    HW232272   9.427   5.225   1.363  1.2038  0.2713 -0.9150
42318SOL     OW32273   3.915   7.171   0.229  0.0648 -0.8152  0.0233
42318SOL    HW132274   3.953   7.148   0.144  1.4507  1.4029 -0.0477
42318SOL    HW232275   3.988   7.159   0.291  0.1704  1.0496  0.2974
42319SOL     OW32276   1.677  11.551   9.751  0.4616 -0.5766  0.2738
42319SOL    HW132277   1.640  11.556   9.663  1.4965 -2.3678 -0.3186
42319SOL    HW232278   1.611  11.590   9.808 -0.1768  0.7399 -1.2934
42320SOL     OW32279   7.317   1.519   2.287 -0.1263  0.5593 -0.1635
42320SOL    HW132280   7.382   1.470   2.237  0.0189  2.6005 -2.1341
42320SOL    HW232281   7.367   1.565   2.354  0.3030  1.0040 -0.7732
42321SOL     OW32282  11.090   3.800   2.994  0.5133 -0.2999 -0.0184
42321SOL    HW132283  11.170   3.756   3.023  1.4500  1.5813  0.3894
42321SOL    HW232284  11.116   3.891   2.980 -1.7474  0.5559  0.9257
42322SOL     OW32285   9.943  11.269   2.982 -0.1248 -0.3356 -0.0844
42322SOL    HW132286   9.993  11.268   3.063  2.0217  2.1016 -1.2592
42322SOL    HW232287   9.925  11.362   2.965  0.6303 -0.6341 -3.0220
42323SOL     OW32288  11.462  10.858   3.167 -0.0039 -0.5501  0.4518
42323SOL    HW132289  11.400  10.813   3.225  0.5737 -0.3592  1.2306
42323SOL    HW232290  11.546  10.817   3.185  0.0068 -1.2482 -1.0752
42324SOL     OW32291   5.226   7.890   3.014 -0.1024 -0.2774 -0.4798
42324SOL    HW132292   5.276   7.954   3.064  1.4243 -1.4260 -0.4666
42324SOL    HW232293   5.277   7.876   2.934 -0.9793 -0.6833 -0.9904
42325SOL     OW32294   2.441  11.133   4.955 -0.2310  0.2262 -0.4121
42325SOL    HW132295   2.487  11.147   5.038  0.7805 -0.5778 -0.8134
42325SOL    HW232296   2.508  11.146   4.888 -0.7739 -0.2400 -1.0584
42326SOL     OW32297   3.554   3.559   2.066  0.2610  0.1020 -0.0456
42326SOL    HW132298   3.510   3.487   2.113  1.6030 -0.1118  0.9330
42326SOL    HW232299   3.490   3.586   1.999  0.5299 -3.5031 -2.0014
42327SOL     OW32300  11.746   1.169   3.789 -0.3459 -0.0083 -0.3836
42327SOL    HW132301  11.794   1.097   3.830 -0.3364 -0.9566 -1.9847
42327SOL    HW232302  11.813   1.221   3.745 -0.4502  0.5568  0.0987
42328SOL     OW32303   6.501   9.465   7.602  0.3178 -0.1472  0.4374
42328SOL    HW132304   6.440   9.396   7.575  0.5687 -0.0766 -0.3458
42328SOL    HW232305   6.577   9.418   7.634  0.8693 -0.2654 -0.9680
42329SOL     OW32306   3.129   4.977   5.922 -0.0225  0.2635 -0.0274
42329SOL    HW132307   3.206   4.998   5.870  0.0880  0.1497  0.0893
42329SOL    HW232308   3.066   5.046   5.901  0.3473  0.7346  0.3818
42330SOL     OW32309   1.609   0.235  10.963 -0.0167 -0.4828 -0.0739
42330SOL    HW132310   1.552   0.237  10.886  1.8310 -0.5881 -1.5169
42330SOL    HW232311   1.653   0.151  10.958  0.1573 -0.4727  1.1004
42331SOL     OW32312   1.805   4.987   8.228  0.6438 -0.0833  0.0498
42331SOL    HW132313   1.752   4.908   8.242 -0.0550  0.5220  0.9823
42331SOL    HW232314   1.742   5.053   8.201  1.2095  0.1949 -0.6099
42332SOL     OW32315   5.674   0.441  10.081 -0.7299  0.2409  0.2800
42332SOL    HW132316   5.677   0.472   9.991 -0.3384  1.6716  0.7604
42332SOL    HW232317   5.649   0.349  10.074 -0.7694  0.3471 -1.2749
42333SOL     OW32318   6.831   6.169  10.871 -0.2930  0.2304 -0.1296
42333SOL    HW132319   6.802   6.089  10.827  0.8795 -2.0273  2.8448
42333SOL    HW232320   6.757   6.229  10.863 -2.5918 -2.3341  0.2744
42334SOL     OW32321   1.631   9.705   3.072 -0.2467 -0.7012  0.1666
42334SOL    HW132322   1.621   9.611   3.082 -0.2438 -0.7737 -0.4374
42334SOL    HW232323   1.547   9.742   3.100 -0.3429 -0.9035  0.1451
42335SOL     OW32324   7.840   8.165   2.592 -0.3161  0.7711  0.2161
42335SOL    HW132325   7.875   8.151   2.504  0.4643 -2.3764  0.8968
42335SOL    HW232326   7.749   8.137   2.586 -0.1911  0.3082  0.4636
42336SOL     OW32327   4.912   2.626  10.262  0.1608  0.3235 -0.1758
42336SOL    HW132328   4.984   2.591  10.210 -1.2469  0.2398 -2.1735
42336SOL    HW232329   4.900   2.563  10.333  1.0256 -0.4960 -0.7422
42337SOL     OW32330   0.405   7.268   2.802  0.0694  0.1564 -0.0891
42337SOL    HW132331   0.423   7.178   2.826 -1.0432 -0.2041 -0.5215
42337SOL    HW232332   0.444   7.279   2.715 -1.5408 -0.5705 -0.9548
42338SOL     OW32333   6.260   5.791   2.345  0.3074  0.0968 -0.4033
42338SOL    HW132334   6.324   5.780   2.415  0.0357 -0.3400 -0.2195
42338SOL    HW232335   6.244   5.885   2.341 -1.0486  0.0022  1.3633
42339SOL     OW32336   2.299  11.309   8.692 -0.2689 -0.3536  0.4910
42339SOL    HW132337   2.339  11.263   8.618 -3.3091  0.5481 -1.9599
42339SOL    HW232338   2.234  11.247   8.726  0.0998 -0.2127  1.4761
42340SOL     OW32339  11.280   6.213  10.474 -0.2353  0.1031 -0.0116
42340SOL    HW132340  11.357   6.167  10.508 -1.0715 -0.9902  0.4713
42340SOL    HW232341  11.250   6.159  10.401  0.0980  1.1306 -0.9396
42341SOL     OW32342   4.657   9.068   6.640 -0.0610  0.5612  0.7634
42341SOL    HW132343   4.594   9.059   6.712 -0.7647  2.7206  0.4877
42341SOL    HW232344   4.602   9.075   6.562  0.6945 -2.1421 -0.1361
42342SOL     OW32345  10.611   1.842   9.080  0.4630  0.2512  0.2316
42342SOL    HW132346  10.615   1.813   9.171 -1.8542 -0.9029  0.0376
42342SOL    HW232347  10.699   1.825   9.046  1.3483  0.6085  2.1893
42343SOL     OW32348   7.734   3.684   0.472  0.6574  0.4190  0.0742
42343SOL    HW132349   7.744   3.779   0.476  1.0281  0.4585 -1.1665
42343SOL    HW232350   7.768   3.660   0.386  1.5203 -0.9692  0.7623
42344SOL     OW32351   2.285   8.729  11.647 -0.0498  0.4880  0.5708
42344SOL    HW132352   2.328   8.776  11.718  0.4679 -0.5847  1.0024
42344SOL    HW232353   2.336   8.648  11.638  0.3289  0.9033 -1.5228
42345SOL     OW32354   3.302  11.414   7.745  0.4516 -0.2092  0.1216
42345SOL    HW132355   3.396  11.430   7.745  0.3510  0.4833  0.8608
42345SOL    HW232356   3.273  11.446   7.830 -0.5334  0.0959 -0.3146
42346SOL     OW32357   2.248   0.084   8.695 -0.2821 -0.5232 -0.4780
42346SOL    HW132358   2.299   0.126   8.625 -0.8954  1.7725  0.3770
42346SOL    HW232359   2.309   0.024   8.737  0.7382 -0.2748 -1.5651
42347SOL     OW32360  10.306   4.644   3.852 -0.3165 -0.5191  0.3754
42347SOL    HW132361  10.385   4.602   3.820 -0.6318 -2.3280  1.8121
42347SOL    HW232362  10.319   4.651   3.947 -1.5652 -0.1768  0.5406
42348SOL     OW32363   9.018   1.339   7.971 -0.3626 -0.0227  0.2131
42348SOL    HW132364   8.995   1.364   8.061  0.7062 -0.5012  0.6400
42348SOL    HW232365   9.024   1.422   7.924  2.1499  0.5574  1.3683
42349SOL     OW32366   9.044   4.448   7.184 -0.0434  0.0010 -0.6031
42349SOL    HW132367   9.096   4.382   7.230 -1.3167 -0.0028  0.9170
42349SOL    HW232368   9.108   4.500   7.136  1.2925 -0.4557  0.6173
42350SOL     OW32369   6.878  10.073   7.513  0.0908 -0.7307 -0.1597
42350SOL    HW132370   6.868  10.127   7.591  0.2667 -1.0582  0.0913
42350SOL    HW232371   6.790  10.038   7.497 -0.5136  1.2653 -1.5434
42351SOL     OW32372   2.442   7.752   6.782  0.6019 -0.0612 -0.5150
42351SOL    HW132373   2.480   7.672   6.817 -1.8232 -0.5226  1.3243
42351SOL    HW232374   2.452   7.816   6.852 -2.6530 -0.4807  0.5202
42352SOL     OW32375  11.114   5.316   7.306 -0.2640  0.3101 -0.3217
42352SOL    HW132376  11.194   5.318   7.359  1.2444  1.5746 -2.5103
42352SOL    HW232377  11.069   5.235   7.334  1.4780 -0.1633  1.3397
42353SOL     OW32378   1.504   3.523   6.858  0.4233  0.5208  0.1401
42353SOL    HW132379   1.453   3.604   6.851 -1.6546 -0.8410 -3.4704
42353SOL    HW232380   1.572   3.532   6.791  1.7517  0.2216  1.4060
42354SOL     OW32381  10.107   6.476  10.178  0.4982  0.2164  0.2682
42354SOL    HW132382  10.074   6.472  10.268  0.2270  0.3630  0.1760
42354SOL    HW232383  10.043   6.530  10.132  2.2370  2.8393  0.7039
42355SOL     OW32384   9.973   3.747   3.479  0.3020 -0.0342  0.1193
42355SOL    HW132385   9.912   3.762   3.551 -0.3141 -3.1315  0.3753
42355SOL    HW232386   9.923   3.768   3.400 -0.3182 -0.3467  0.4221
42356SOL     OW32387  11.717   7.209   2.444 -0.0813  0.0352  0.0671
42356SOL    HW132388  11.770   7.130   2.439  1.6734  1.0542  1.3354
42356SOL    HW232389  11.772   7.277   2.404 -1.8786  0.5219 -1.7961
42357SOL     OW32390   6.864   6.787  10.072 -0.2212 -0.0323  0.0728
42357SOL    HW132391   6.837   6.700  10.043  0.9427 -0.4362  0.1510
42357SOL    HW232392   6.783   6.837  10.076 -0.9388 -1.1802  0.2612
42358SOL     OW32393   2.556   2.074  10.824 -0.1742 -0.7232  0.4011
42358SOL    HW132394   2.566   1.995  10.771 -2.5462 -0.0770 -1.2145
42358SOL    HW232395   2.463   2.098  10.813  0.1264  1.4674  2.0072
42359SOL     OW32396   4.677   6.299   5.039  0.3129 -0.2309 -0.2379
42359SOL    HW132397   4.664   6.218   5.088 -1.4116 -0.2610 -0.6704
42359SOL    HW232398   4.732   6.273   4.965 -1.0779 -1.2823 -0.9506
42360SOL     OW32399   0.089   4.276   9.531 -0.2908  1.1343 -0.3398
42360SOL    HW132400   0.017   4.261   9.591 -0.9402 -0.5021 -1.4464
42360SOL    HW232401   0.132   4.191   9.522  0.6455  1.6540 -1.1123
42361SOL     OW32402   4.923   3.732   6.026  0.5080  0.2329  0.0680
42361SOL    HW132403   4.888   3.821   6.022 -0.8483 -0.2975 -0.5415
42361SOL    HW232404   4.904   3.702   6.114  1.7866  0.8366  0.5785
42362SOL     OW32405   3.096   3.999   9.651 -0.7778  0.3610 -0.9871
42362SOL    HW132406   3.024   4.062   9.658 -2.3659 -1.1615 -2.6672
42362SOL    HW232407   3.148   4.030   9.577 -1.1927  0.0259 -1.4146
42363SOL     OW32408   3.038   0.034   9.731  0.1410  0.3317 -0.2645
42363SOL    HW132409   2.985  -0.036   9.693 -1.4188  0.9229  0.7132
42363SOL    HW232410   3.119   0.032   9.681  0.3139 -2.3963 -0.0546
42364SOL     OW32411   8.771   3.295   6.131  0.1675  0.3097 -0.0198
42364SOL    HW132412   8.781   3.200   6.126  0.3693  0.1426  2.2790
42364SOL    HW232413   8.861   3.327   6.141  0.2448  0.9176 -2.2384
42365SOL     OW32414   9.732   7.452   7.389  0.3554 -0.1874  0.3833
42365SOL    HW132415   9.684   7.534   7.402 -0.0751 -0.5644  1.2306
42365SOL    HW232416   9.679   7.402   7.328  0.4891  0.0643  0.0623
42366SOL     OW32417   3.409   2.306  10.014  0.0106  0.6277 -0.0490
42366SOL    HW132418   3.464   2.362  10.068  0.6608  0.1929 -0.2553
42366SOL    HW232419   3.391   2.230  10.069  0.5442  0.2560 -0.3798
42367SOL     OW32420   7.293   1.444   7.107  0.0251 -0.0419 -1.0220
42367SOL    HW132421   7.312   1.363   7.154 -0.6904 -0.8193 -2.0191
42367SOL    HW232422   7.356   1.508   7.141  0.9085 -1.1402 -0.5530
42368SOL     OW32423   4.278   1.334   0.124 -0.0001  0.2712 -0.3432
42368SOL    HW132424   4.285   1.405   0.060  0.1269  0.1623 -0.4504
42368SOL    HW232425   4.347   1.272   0.099 -0.0652  0.1435 -0.2078
42369SOL     OW32426   9.467   1.216   9.665  0.4849 -0.1201  0.0762
42369SOL    HW132427   9.536   1.187   9.724  0.0002 -0.3338  0.5464
42369SOL    HW232428   9.452   1.308   9.689  0.2499 -0.2227  0.3279
42370SOL     OW32429   3.424   2.112  10.229  0.4806  0.4849  0.3343
42370SOL    HW132430   3.424   2.073  10.316 -1.1884  1.4000  0.7733
42370SOL    HW232431   3.419   2.037  10.169 -0.5206 -0.0629  1.0903
42371SOL     OW32432   4.125   0.191  10.736  0.0935 -0.5377 -0.3901
42371SOL    HW132433   4.219   0.211  10.735  0.1820 -0.9418 -1.5332
42371SOL    HW232434   4.103   0.187  10.829  1.3291 -0.9419 -0.0920
42372SOL     OW32435   1.183   5.848   2.661  0.5429 -0.4611  0.5955
42372SOL    HW132436   1.217   5.888   2.741  1.5420 -0.4046  0.1645
42372SOL    HW232437   1.135   5.919   2.618 -0.6632 -0.7004  1.4951
42373SOL     OW32438  11.338   8.258   2.658 -0.1588  0.0306 -0.7344
42373SOL    HW132439  11.407   8.239   2.722 -0.4757 -1.9569 -0.8913
42373SOL    HW232440  11.376   8.230   2.574 -0.9959 -0.7158 -0.8739
42374SOL     OW32441   4.153   9.864   7.570  0.1579  0.3664  0.1996
42374SOL    HW132442   4.206   9.930   7.615  0.7788 -0.4436  0.6746
42374SOL    HW232443   4.169   9.783   7.618 -1.7893  0.1554  0.5861
42375SOL     OW32444   5.914   4.346   8.367  0.0572  0.6038 -0.4137
42375SOL    HW132445   5.897   4.292   8.290  1.3415  0.0950 -0.3599
42375SOL    HW232446   6.000   4.318   8.397  0.5923  2.4376 -0.1528
42376SOL     OW32447   5.212   8.780   0.821 -0.2169  0.0404  0.1419
42376SOL    HW132448   5.145   8.842   0.851 -0.2697  0.3655 -0.6297
42376SOL    HW232449   5.294   8.816   0.853 -0.2368  0.5750 -0.3982
42377SOL     OW32450   7.221  10.352  11.745  0.2176  0.2448  0.3546
42377SOL    HW132451   7.162  10.373  11.818  0.1091 -2.5262  1.1757
42377SOL    HW232452   7.302  10.324  11.787  0.1324 -1.4791 -0.5379
42378SOL     OW32453   0.810   7.004  10.651 -0.2948 -0.0389 -1.1776
42378SOL    HW132454   0.758   7.018  10.572 -0.6048 -0.5806 -1.0815
42378SOL    HW232455   0.901   7.003  10.621 -0.4446 -0.9230 -1.6442
42379SOL     OW32456   5.928   0.005  11.432 -0.1016 -0.0478 -0.8725
42379SOL    HW132457   5.879   0.036  11.356  0.3129  0.0763 -1.0902
42379SOL    HW232458   6.005   0.062  11.437  1.0525 -1.4483 -1.7093
42380SOL     OW32459   2.502   3.757   1.850  0.6392  0.2008  0.3528
42380SOL    HW132460   2.535   3.844   1.874 -0.8878  1.3521 -1.4357
42380SOL    HW232461   2.531   3.744   1.760  0.4211 -0.9425  0.4269
42381SOL     OW32462   1.893   0.865   6.660  0.0201 -0.3307  0.1914
42381SOL    HW132463   1.915   0.947   6.704 -0.4052  0.4052 -0.9249
42381SOL    HW232464   1.867   0.806   6.730 -0.3997  0.7255  0.9438
42382SOL     OW32465  10.805  11.063  10.114  0.2346 -0.0243 -0.2474
42382SOL    HW132466  10.786  10.991  10.174  0.0158 -0.8399 -1.2636
42382SOL    HW232467  10.746  11.133  10.142 -0.6201 -0.7588 -0.1449
42383SOL     OW32468   2.712   8.949   5.807  0.0181 -0.4147 -0.0957
42383SOL    HW132469   2.715   9.038   5.841  0.1561 -0.6714  0.5789
42383SOL    HW232470   2.634   8.911   5.847  1.0115 -1.1996  1.1744
42384SOL     OW32471   8.794   3.962   4.590  0.4254  0.7100  0.1603
42384SOL    HW132472   8.741   4.039   4.569 -0.1557  0.6963  1.4626
42384SOL    HW232473   8.749   3.921   4.664  0.6879 -0.9397 -0.5447
42385SOL     OW32474   6.649   0.762   6.480  0.1905 -0.5345 -0.1266
42385SOL    HW132475   6.635   0.710   6.559 -1.4136 -0.4364 -0.3000
42385SOL    HW232476   6.659   0.852   6.511 -0.0621 -0.5504  0.0074
42386SOL     OW32477   8.836   5.264   7.318  0.4689  0.3820  0.1678
42386SOL    HW132478   8.772   5.320   7.272 -0.0141  0.4980  0.9699
42386SOL    HW232479   8.827   5.179   7.276  0.9772  0.8037 -0.8446
42387SOL     OW32480   8.478  10.814   5.232 -0.1245  0.1764 -0.7512
42387SOL    HW132481   8.479  10.894   5.283 -2.3089  0.1822 -0.5843
42387SOL    HW232482   8.415  10.831   5.162  0.5912 -0.8448 -1.6926
42388SOL     OW32483   0.913   7.104   1.258  0.4491 -0.0577  0.0530
42388SOL    HW132484   0.978   7.094   1.328  1.8417 -1.8225 -1.4039
42388SOL    HW232485   0.941   7.182   1.210 -0.3178  0.9623  1.1960
42389SOL     OW32486   8.480   1.097   1.573 -0.0028 -0.1885 -0.6345
42389SOL    HW132487   8.549   1.066   1.632  0.4959 -1.0445 -1.6269
42389SOL    HW232488   8.455   1.183   1.607  1.5653  0.1486 -0.2584
42390SOL     OW32489   0.024   2.289   4.485  0.5411 -0.0016 -1.0320
42390SOL    HW132490   0.037   2.194   4.482  1.7141  0.1446 -1.1908
42390SOL    HW232491   0.004   2.308   4.577 -2.2247 -0.6573 -1.4107
42391SOL     OW32492   1.249   3.387   2.982 -1.1997 -0.1178 -0.4299
42391SOL    HW132493   1.170   3.415   2.936 -1.3451  0.8404  0.3654
42391SOL    HW232494   1.218   3.340   3.059 -1.1879  2.7604  1.5235
42392SOL     OW32495  10.537   9.996   3.403 -0.1805  0.1108 -0.3804
42392SOL    HW132496  10.472  10.009   3.334 -0.7131  1.0475  0.2688
42392SOL    HW232497  10.494  10.028   3.483  0.2256 -1.4163  0.5031
42393SOL     OW32498   6.694   4.550   0.824  0.1791  0.0003 -0.2000
42393SOL    HW132499   6.714   4.640   0.798  0.2604 -0.0530 -0.3214
42393SOL    HW232500   6.603   4.537   0.799 -0.0117  0.2409  0.3437
42394SOL     OW32501   2.467   4.705   4.474  0.8878 -0.2866  0.8433
42394SOL    HW132502   2.383   4.693   4.429  0.6665 -0.4094  1.2811
42394SOL    HW232503   2.474   4.800   4.486  0.9311 -0.2553  0.5911
42395SOL     OW32504  11.421   8.995   1.107 -0.5413 -0.1636 -0.2823
42395SOL    HW132505  11.454   8.914   1.147 -1.1211 -0.9105 -1.2531
42395SOL    HW232506  11.499   9.044   1.085 -0.1283 -1.0318 -0.8041
42396SOL     OW32507  11.658   3.079   6.847  0.0571  0.1487  0.5720
42396SOL    HW132508  11.630   3.030   6.769 -1.1943  1.3520  0.2111
42396SOL    HW232509  11.619   3.165   6.835  3.5597  1.8531  0.3517
42397SOL     OW32510  10.655   1.886   2.588 -0.0313  0.3968  0.3224
42397SOL    HW132511  10.681   1.938   2.512  0.6662  0.5449  0.6473
42397SOL    HW232512  10.560   1.875   2.579 -0.1531  1.5188  0.1151
42398SOL     OW32513   9.397  11.264   4.253 -0.3238  0.2824 -0.5755
42398SOL    HW132514   9.345  11.341   4.232 -3.0278 -1.8538 -2.3347
42398SOL    HW232515   9.337  11.205   4.298  1.1953 -1.4737 -0.7178
42399SOL     OW32516   7.769   2.083   9.713  0.1491 -0.3053 -0.4447
42399SOL    HW132517   7.785   2.015   9.648 -2.3413 -1.8240  0.3704
42399SOL    HW232518   7.681   2.115   9.693  0.7378  1.7722  0.0361
42400SOL     OW32519   6.157   0.657   0.115 -0.4959  0.7680  0.0398
42400SOL    HW132520   6.122   0.644   0.203 -1.3915  2.9451  0.0773
42400SOL    HW232521   6.092   0.617   0.057 -0.9057  1.0301  0.3090
42401SOL     OW32522   3.541   5.579   8.935 -0.1716 -0.0242  0.0479
42401SOL    HW132523   3.542   5.484   8.950  0.7866  0.0077  0.2479
42401SOL    HW232524   3.561   5.588   8.842 -2.1106 -0.0702 -0.4088
42402SOL     OW32525   1.806   0.131  10.282 -0.1231  0.0859  0.1298
42402SOL    HW132526   1.843   0.180  10.356 -0.2711  0.6419 -0.1663
42402SOL    HW232527   1.882   0.094  10.237  0.1023  1.3804 -0.5847
42403SOL     OW32528   4.495   0.246   9.769  0.3002  0.1398  0.4836
42403SOL    HW132529   4.542   0.314   9.817 -0.5205  0.7339  0.4660
42403SOL    HW232530   4.427   0.216   9.829 -0.5778  0.7163 -0.1964
42404SOL     OW32531   5.314   0.427  10.749 -0.2748 -0.1733 -0.1716
42404SOL    HW132532   5.242   0.478  10.712 -0.8355 -1.2178 -0.5418
42404SOL    HW232533   5.275   0.382  10.824 -0.6228 -2.4414 -1.6279
42405SOL     OW32534   4.025  10.732   0.551  0.2937  0.1772 -0.8709
42405SOL    HW132535   4.027  10.776   0.637  0.1875  0.2073 -0.8842
42405SOL    HW232536   4.110  10.754   0.512  0.8676 -0.8692 -0.2623
42406SOL     OW32537   8.664   9.094  10.065 -0.0796 -0.0100  0.5880
42406SOL    HW132538   8.715   9.158  10.015 -0.6216  1.3040  1.6449
42406SOL    HW232539   8.582   9.140  10.087 -0.1842 -0.7974  1.9891
42407SOL     OW32540   4.597   3.213   7.681 -0.4679 -0.2121  0.1984
42407SOL    HW132541   4.511   3.249   7.658  0.5426  2.5139  0.3758
42407SOL    HW232542   4.588   3.186   7.772 -0.9961  0.5540  0.3806
42408SOL     OW32543   3.946   7.180   8.181 -0.1619 -0.1513 -0.8071
42408SOL    HW132544   3.875   7.135   8.227 -0.2908  0.9703  0.1627
42408SOL    HW232545   4.021   7.121   8.188 -0.7835 -0.9961 -1.1448
42409SOL     OW32546   8.720   3.997   0.439 -0.0425 -0.0070 -0.6974
42409SOL    HW132547   8.782   3.924   0.440 -1.8281 -1.5889  0.7888
42409SOL    HW232548   8.705   4.014   0.346  0.3483 -1.5826 -1.0758
42410SOL     OW32549  11.636   7.059   1.795  0.2740 -0.4643  0.0858
42410SOL    HW132550  11.687   7.034   1.718  1.3246 -1.2714  1.0122
42410SOL    HW232551  11.578   6.985   1.809  0.1756 -0.3745  0.1458
42411SOL     OW32552   2.650   5.452   6.045 -0.2004  0.1509 -0.1396
42411SOL    HW132553   2.559   5.438   6.021 -0.4319  1.8140 -0.3954
42411SOL    HW232554   2.653   5.544   6.074  1.0741 -0.3145  1.3791
42412SOL     OW32555   3.880   7.164   6.930 -0.0772  0.6256  0.2351
42412SOL    HW132556   3.891   7.190   7.021  3.5788 -0.1350  0.1869
42412SOL    HW232557   3.896   7.245   6.880  0.3452  0.5584  0.2559
42413SOL     OW32558   7.074   3.102   5.694 -0.7399  0.4940  0.2369
42413SOL    HW132559   6.983   3.099   5.666 -0.8104 -3.4180  0.3225
42413SOL    HW232560   7.073   3.069   5.784  0.8246 -1.0335 -0.2440
42414SOL     OW32561   1.986   8.470   1.371  0.5298 -0.1009 -0.1538
42414SOL    HW132562   2.009   8.510   1.455 -1.2035  0.6312  0.0254
42414SOL    HW232563   1.972   8.378   1.392  0.3285  0.0321  0.3236
42415SOL     OW32564  10.242   0.380   0.482  0.1368 -0.6634 -0.2267
42415SOL    HW132565  10.155   0.410   0.455  0.2080 -0.3410 -0.1023
42415SOL    HW232566  10.237   0.285   0.475  0.0269 -0.6089 -0.9853
42416SOL     OW32567   1.372   9.928   9.000  0.0132 -0.6549  0.0011
42416SOL    HW132568   1.411   9.922   9.087 -1.9888 -1.9065  0.8937
42416SOL    HW232569   1.446   9.923   8.939  1.6173  1.6939  1.5800
42417SOL     OW32570  10.641   9.710   7.564  0.2624 -0.1584 -0.5723
42417SOL    HW132571  10.550   9.719   7.593  0.9812  1.0758  1.4710
42417SOL    HW232572  10.650   9.618   7.541 -0.8915 -0.8233  1.4146
42418SOL     OW32573   9.341   9.646   0.212  0.4607 -0.1067  0.2364
42418SOL    HW132574   9.369   9.728   0.252  0.0160  0.5448 -0.7493
42418SOL    HW232575   9.321   9.669   0.122  0.7739 -1.4002 -0.1871
42419SOL     OW32576   1.348  10.107   0.642 -0.0177  0.0498  0.7004
42419SOL    HW132577   1.336  10.074   0.731 -0.3819 -0.1785  0.5697
42419SOL    HW232578   1.335  10.031   0.586  0.0517  0.2265  0.4406
42420SOL     OW32579   6.082   0.959   9.663  0.0269  0.5968 -0.0782
42420SOL    HW132580   6.033   1.009   9.598  0.3541 -0.0122 -0.8136
42420SOL    HW232581   6.017   0.939   9.731  0.0508  2.5252  0.5449
42421SOL     OW32582   7.368   6.641   3.026  0.1524  0.1020 -0.4312
42421SOL    HW132583   7.364   6.714   2.964  1.4955  1.5524  1.0928
42421SOL    HW232584   7.456   6.604   3.013  1.0776  1.4433  1.6394
42422SOL     OW32585   0.373   4.042   5.917 -0.5377 -0.2082  0.1494
42422SOL    HW132586   0.313   4.078   5.982 -0.7078 -1.7534  0.8890
42422SOL    HW232587   0.459   4.075   5.942 -0.5780 -0.9338  1.2818
42423SOL     OW32588   3.996   5.365   5.626 -0.2271 -0.7700  0.5432
42423SOL    HW132589   4.065   5.430   5.611 -1.4294  0.4028 -0.0647
42423SOL    HW232590   4.042   5.281   5.622  0.9972 -0.0892 -0.9430
42424SOL     OW32591  11.599   6.866   9.476 -0.2583  0.5985  0.2829
42424SOL    HW132592  11.607   6.791   9.535 -0.2673  1.0136  0.8098
42424SOL    HW232593  11.677   6.861   9.421  1.3595  1.9652  2.3472
42425SOL     OW32594   6.163   6.726   8.254 -0.0205 -0.2860 -0.5474
42425SOL    HW132595   6.225   6.658   8.226  0.7418  0.5559 -0.9481
42425SOL    HW232596   6.218   6.802   8.271 -0.8938  0.2966 -0.3180
42426SOL     OW32597   2.946   2.280   5.016  0.0002  0.4170  0.5512
42426SOL    HW132598   3.030   2.242   5.040  0.6014  0.5721 -1.1536
42426SOL    HW232599   2.926   2.243   4.930 -1.9918 -0.0838  1.1786
42427SOL     OW32600   4.360   6.466  10.420  0.5264 -0.3419  0.0941
42427SOL    HW132601   4.327   6.494  10.506  0.4617 -2.5243  0.8255
42427SOL    HW232602   4.295   6.404  10.388  0.0878  1.0796 -2.0052
42428SOL     OW32603   0.195   8.954   2.436  0.4696 -0.4472  0.2867
42428SOL    HW132604   0.221   8.966   2.344  0.5550  1.4223  0.5219
42428SOL    HW232605   0.128   8.886   2.433 -0.0428  0.0872 -1.2563
42429SOL     OW32606   1.166  11.145   8.180 -0.5452 -0.0853  0.4667
42429SOL    HW132607   1.258  11.120   8.187 -0.6783 -0.1370  2.9545
42429SOL    HW232608   1.119  11.062   8.178 -0.5672 -0.0832 -1.6931
42430SOL     OW32609   5.204   2.167   6.787 -0.1154 -0.7972 -0.5844
42430SOL    HW132610   5.181   2.198   6.699  0.8317 -2.8839 -1.6497
42430SOL    HW232611   5.122   2.132   6.822 -0.5513  0.2530 -0.5059
42431SOL     OW32612   7.233  10.116   0.203  0.6167 -0.3856  0.0354
42431SOL    HW132613   7.290  10.072   0.141  0.4243 -0.4148 -0.1224
42431SOL    HW232614   7.212  10.048   0.268  0.6688 -0.4077  0.0290
42432SOL     OW32615   4.666   7.203   5.497  0.1787 -0.3631  0.1377
42432SOL    HW132616   4.597   7.211   5.432 -0.1518  0.0809  0.5381
42432SOL    HW232617   4.632   7.141   5.561  0.0214  0.0777  0.4897
42433SOL     OW32618   6.301   1.943   8.411 -0.0611 -0.6131 -0.2421
42433SOL    HW132619   6.332   2.030   8.386  0.4263 -0.3529  1.1656
42433SOL    HW232620   6.347   1.883   8.352  1.5584 -0.0832  0.4440
42434SOL     OW32621   5.074   7.939   1.282  0.4537  0.4979 -0.4817
42434SOL    HW132622   5.038   7.966   1.198  1.4712  0.6694 -0.8737
42434SOL    HW232623   5.126   7.861   1.262 -1.7469 -1.3577  0.4963
42435SOL     OW32624   3.274   6.877   4.888  0.5154  0.4041 -0.4420
42435SOL    HW132625   3.308   6.963   4.911 -1.0298  0.6618  1.1480
42435SOL    HW232626   3.283   6.872   4.793 -1.3017  3.2596 -0.8903
42436SOL     OW32627   7.047   9.111   8.629 -0.3432 -0.1502 -0.2952
42436SOL    HW132628   6.982   9.047   8.658 -0.0839 -1.3553 -2.2336
42436SOL    HW232629   7.012   9.146   8.547  0.0194  1.4585  0.2076
42437SOL     OW32630   0.524   0.736   8.461  0.1526 -0.1584 -0.0449
42437SOL    HW132631   0.468   0.812   8.475 -0.8157 -0.4173 -2.1064
42437SOL    HW232632   0.604   0.773   8.423 -0.4832 -0.1355 -1.4539
42438SOL     OW32633   1.053  11.084   4.045  0.1100  0.0589  0.1971
42438SOL    HW132634   1.054  10.990   4.062  1.1444  0.1499  0.7396
42438SOL    HW232635   1.007  11.121   4.121  0.7629  0.0818  0.5903
42439SOL     OW32636  10.724   9.361   4.532  0.1578 -0.0873  0.3687
42439SOL    HW132637  10.783   9.435   4.517 -0.5108  0.3489 -0.1615
42439SOL    HW232638  10.761   9.290   4.479  0.2128  0.1744  0.0551
42440SOL     OW32639   0.141   0.254   1.179 -0.4710  0.1269 -0.2382
42440SOL    HW132640   0.165   0.341   1.146 -0.5853  1.6543  3.2104
42440SOL    HW232641   0.214   0.230   1.236 -0.8224 -1.7359 -0.5235
42441SOL     OW32642   7.036   0.159   6.906  0.1818  0.0546 -0.4071
42441SOL    HW132643   7.057   0.214   6.831 -2.6498  1.1740 -0.5069
42441SOL    HW232644   7.082   0.199   6.979 -0.3839  1.5127 -0.8167
42442SOL     OW32645   5.618   9.761   3.389 -0.2588  0.0292 -0.0574
42442SOL    HW132646   5.586   9.704   3.459  0.9844  1.3236  1.6438
42442SOL    HW232647   5.705   9.789   3.418 -0.1007  1.3650 -1.6732
42443SOL     OW32648   8.529   5.157   1.017  0.3349  0.7895  0.0907
42443SOL    HW132649   8.463   5.126   0.955  0.5664 -0.2168  0.3323
42443SOL    HW232650   8.561   5.239   0.979 -1.9308  1.9845  0.5803
42444SOL     OW32651   4.727  11.722  10.791  0.0483 -0.5097  0.1260
42444SOL    HW132652   4.809  11.703  10.837  0.0907  0.6114  0.5347
42444SOL    HW232653   4.725  11.817  10.785 -0.3805 -0.6077 -1.4585
42445SOL     OW32654   2.854   9.111   6.982  0.4803 -0.1342 -0.6501
42445SOL    HW132655   2.878   9.018   6.984 -1.7882 -0.8456  2.4486
42445SOL    HW232656   2.885   9.145   7.067 -0.5766  1.3819 -0.8368
42446SOL     OW32657   7.812   7.408  10.321 -0.4159 -0.3632 -0.0640
42446SOL    HW132658   7.746   7.413  10.252 -0.0516  0.7740 -0.3557
42446SOL    HW232659   7.858   7.492  10.316  0.5384 -0.8264  0.6452
42447SOL     OW32660   8.657   6.012   0.730  0.8686  0.6023 -0.3993
42447SOL    HW132661   8.697   5.960   0.800  0.4024  1.5229  0.5872
42447SOL    HW232662   8.578   6.049   0.770  0.4955  1.0141 -1.4740
42448SOL     OW32663   0.762   5.816   4.069  0.0454 -0.1287 -0.7703
42448SOL    HW132664   0.686   5.845   4.119 -0.1738 -1.3352 -0.3570
42448SOL    HW232665   0.780   5.887   4.008  0.0550  1.2227  0.7203
42449SOL     OW32666   0.541   7.669   0.783 -0.0930  0.4613  0.3314
42449SOL    HW132667   0.498   7.604   0.727  0.8899  0.5267 -0.5162
42449SOL    HW232668   0.474   7.737   0.796 -0.1409  0.7735 -1.3245
42450SOL     OW32669   4.169   8.164   6.840  0.7079  0.4297  0.0188
42450SOL    HW132670   4.226   8.170   6.763 -1.1826 -1.7057 -1.6463
42450SOL    HW232671   4.196   8.084   6.884 -1.1500 -0.7951 -0.9818
42451SOL     OW32672   9.521  11.136   5.234  0.8205  0.0325 -0.1246
42451SOL    HW132673   9.555  11.106   5.318 -0.8723 -0.0779  0.5616
42451SOL    HW232674   9.513  11.056   5.182  1.1755  0.0058 -0.1452
42452SOL     OW32675   6.918   1.779   6.593  0.3847  0.0286  0.2624
42452SOL    HW132676   6.923   1.720   6.667  3.0577  1.3796  1.3029
42452SOL    HW232677   6.973   1.739   6.526 -2.4951 -1.4966 -1.3755
42453SOL     OW32678  11.384   4.633   7.085 -0.2125  0.2194  0.1794
42453SOL    HW132679  11.330   4.599   7.014 -1.3680  0.2404  1.0062
42453SOL    HW232680  11.321   4.670   7.147  0.6760 -0.5622  1.6202
42454SOL     OW32681   1.375   4.008  10.718  0.6631 -0.0512 -0.4839
42454SOL    HW132682   1.456   4.040  10.757  1.0005  0.2862 -1.4392
42454SOL    HW232683   1.374   4.045  10.630 -0.3976 -0.2739 -0.5835
42455SOL     OW32684   3.967  10.270   6.995  0.3810  0.3615 -0.6694
42455SOL    HW132685   4.024  10.345   6.981 -0.6887  1.1434 -0.9266
42455SOL    HW232686   3.942  10.242   6.907 -0.1979  0.4788 -0.5472
42456SOL     OW32687   1.788   1.966   3.474  0.0041 -0.2779  0.3176
42456SOL    HW132688   1.827   2.005   3.552 -2.0626  0.5314  1.0251
42456SOL    HW232689   1.718   1.910   3.508 -1.6639  0.9423 -0.9443
42457SOL     OW32690   6.617   7.336   4.448 -0.3690  0.5943  0.1494
42457SOL    HW132691   6.710   7.333   4.423  0.0890  0.8597  1.7134
42457SOL    HW232692   6.600   7.250   4.486 -0.8364  0.4627 -0.3576
42458SOL     OW32693   1.445   9.129  11.533  0.1634  0.1590 -0.1127
42458SOL    HW132694   1.539   9.115  11.541  0.4732  2.0948  0.2507
42458SOL    HW232695   1.436   9.224  11.525 -1.7404 -0.0145 -0.5200
42459SOL     OW32696   9.587  11.687   4.615 -0.2190  0.2019 -0.4988
42459SOL    HW132697   9.680  11.692   4.592  0.0064 -1.2081  0.0168
42459SOL    HW232698   9.541  11.676   4.532 -0.1599  2.9877 -0.9883
42460SOL     OW32699  11.669   8.498   6.810 -0.0194  0.0207  0.3172
42460SOL    HW132700  11.693   8.449   6.732  0.1731 -0.4195  0.6487
42460SOL    HW232701  11.725   8.463   6.879  2.2252  2.6628  0.0101
42461SOL     OW32702   6.893   3.203   1.563  0.3520  0.0340 -0.2946
42461SOL    HW132703   6.916   3.265   1.494  0.8556  0.5318  0.3065
42461SOL    HW232704   6.831   3.142   1.522 -0.8135  1.4317 -0.6687
42462SOL     OW32705   7.788   9.781   0.748  0.5012  0.3477 -0.1745
42462SOL    HW132706   7.727   9.747   0.682  3.1555 -1.4726 -1.9127
42462SOL    HW232707   7.823   9.861   0.709  1.5699 -0.3704 -0.7627
42463SOL     OW32708   4.859   5.793   8.523  0.1986  0.1816 -0.4537
42463SOL    HW132709   4.919   5.808   8.450  0.6321  0.2551 -0.0954
42463SOL    HW232710   4.899   5.841   8.596 -0.4319  0.4350 -0.2722
42464SOL     OW32711   8.749   7.555   2.498 -0.0473 -0.0371 -0.0797
42464SOL    HW132712   8.778   7.524   2.413  2.8147 -0.7498  1.0500
42464SOL    HW232713   8.822   7.608   2.531 -1.3247  0.7483  1.6704
42465SOL     OW32714   7.965   4.364  11.344  0.8507 -0.0808  0.1348
42465SOL    HW132715   7.896   4.377  11.279  0.8664  1.0117  0.3172
42465SOL    HW232716   7.970   4.269  11.355 -0.8101 -0.1870  0.2974
42466SOL     OW32717   0.934   7.639   8.256  0.1046 -0.9054 -0.0064
42466SOL    HW132718   0.892   7.554   8.241  0.9559 -1.3619  0.1006
42466SOL    HW232719   0.962   7.667   8.169 -0.8263 -0.3656 -0.1494
42467SOL     OW32720   6.148   5.849   2.751  0.3058 -0.7808  0.7183
42467SOL    HW132721   6.189   5.860   2.837 -0.9484  1.9751  1.0836
42467SOL    HW232722   6.191   5.914   2.695  0.9567 -2.3917 -0.7468
42468SOL     OW32723   4.319   3.122   7.528 -0.2706 -0.6266  0.3358
42468SOL    HW132724   4.342   3.031   7.510  1.1701 -0.0390 -1.0897
42468SOL    HW232725   4.274   3.151   7.449  0.9256  0.3818 -0.0114
42469SOL     OW32726   2.322   4.063   9.117  0.7858  0.3765 -0.4668
42469SOL    HW132727   2.283   4.145   9.150 -1.2659 -0.0652 -1.5818
42469SOL    HW232728   2.251   4.022   9.068  2.2356 -1.3669 -1.2005
42470SOL     OW32729   0.240   5.071   2.092 -0.1808 -0.4510  0.6748
42470SOL    HW132730   0.294   4.998   2.060  1.0616  0.5470  0.4322
42470SOL    HW232731   0.174   5.083   2.024 -0.6906 -1.6302  0.9336
42471SOL     OW32732   0.625   1.283   7.749 -0.7669 -0.0488 -0.5663
42471SOL    HW132733   0.596   1.215   7.811 -0.8876  0.1060 -0.4541
42471SOL    HW232734   0.645   1.235   7.669  0.1951 -0.3693 -0.1590
42472SOL     OW32735   0.084   3.263   2.985 -0.0511  0.0492 -0.8387
42472SOL    HW132736   0.056   3.259   3.076  1.6551  0.7754 -0.2404
42472SOL    HW232737   0.147   3.190   2.976  2.0302  1.7065 -0.5495
42473SOL     OW32738   2.506   8.747   4.153  0.3095 -0.3641 -0.4337
42473SOL    HW132739   2.570   8.801   4.199  0.1532  0.6161 -1.3103
42473SOL    HW232740   2.546   8.732   4.067  0.5485 -2.0613 -0.0550
42474SOL     OW32741   5.959   9.075   1.568  0.8563 -0.0148  0.7837
42474SOL    HW132742   5.999   9.021   1.637 -0.2995 -2.0329 -0.0417
42474SOL    HW232743   6.007   9.053   1.489  0.4578  0.2983  0.4501
42475SOL     OW32744   1.439   7.815  10.119  0.2237 -0.1219 -0.3258
42475SOL    HW132745   1.344   7.808  10.106 -0.1591 -0.2698  2.0546
42475SOL    HW232746   1.474   7.832  10.032 -1.8790 -1.1248 -1.4507
42476SOL     OW32747  11.425   5.416   9.943 -0.0349 -0.0720 -0.3379
42476SOL    HW132748  11.486   5.376   9.880 -2.5735 -2.3570 -1.5664
42476SOL    HW232749  11.460   5.392  10.029  0.9064 -1.1780 -0.9975
42477SOL     OW32750   7.361  11.480  10.799  0.6389 -1.0973  0.3281
42477SOL    HW132751   7.370  11.421  10.724  0.5227 -0.3804 -0.2653
42477SOL    HW232752   7.322  11.559  10.762  1.0754 -0.5335  1.0504
42478SOL     OW32753   9.182   5.612  10.468 -0.1038  0.5765  0.4033
42478SOL    HW132754   9.223   5.530  10.495  0.6217  0.6425 -0.4429
42478SOL    HW232755   9.254   5.675  10.465 -0.7509  1.4376  1.6875
42479SOL     OW32756   8.675   1.929   9.637 -0.5460 -0.1333 -0.2191
42479SOL    HW132757   8.730   1.971   9.571 -1.7535  0.0675 -1.1389
42479SOL    HW232758   8.621   1.868   9.587 -1.2385 -0.2355  0.6318
42480SOL     OW32759   0.549   7.662   4.956  0.4858 -0.6265  0.0979
42480SOL    HW132760   0.548   7.681   4.862  1.9820 -1.5665 -0.1409
42480SOL    HW232761   0.458   7.676   4.984 -0.1480 -1.0078 -1.6239
42481SOL     OW32762   3.575  11.047   2.344  0.1388 -0.2931  0.3150
42481SOL    HW132763   3.589  11.002   2.260 -0.2677  1.2664 -0.6213
42481SOL    HW232764   3.629  11.126   2.338 -1.2201  0.7063  0.7987
42482SOL     OW32765   1.313   7.003   5.510  0.3373 -0.2943  0.6969
42482SOL    HW132766   1.244   6.982   5.573 -1.3356 -1.3871 -1.3731
42482SOL    HW232767   1.316   7.099   5.509  0.6774 -0.2556  2.6642
42483SOL     OW32768   5.599   9.160   8.427  0.3782  0.0557 -0.0406
42483SOL    HW132769   5.570   9.216   8.354 -0.3104 -0.0450  0.1550
42483SOL    HW232770   5.558   9.075   8.410  0.6896 -0.1338  0.1519
42484SOL     OW32771   8.517   1.994   2.126  0.4389  0.0856  0.0143
42484SOL    HW132772   8.478   1.991   2.213 -2.1222  1.8450 -0.9552
42484SOL    HW232773   8.470   1.928   2.076 -0.2065  1.0954 -0.7557
42485SOL     OW32774   3.538  11.303   6.431  0.3074 -0.5072 -0.1760
42485SOL    HW132775   3.612  11.245   6.449  0.8626 -0.3724 -1.8707
42485SOL    HW232776   3.522  11.293   6.337 -0.9250  0.5350 -0.1043
42486SOL     OW32777   4.792   4.812   7.134 -0.4432 -0.2449 -0.2233
42486SOL    HW132778   4.783   4.906   7.149  1.6065  0.2698 -1.7258
42486SOL    HW232779   4.837   4.780   7.213 -1.6303 -0.1179  0.5378
42487SOL     OW32780   0.247   3.602   9.274 -0.3328  0.1581 -0.5714
42487SOL    HW132781   0.245   3.639   9.362  1.7296 -0.9064  0.0045
42487SOL    HW232782   0.181   3.650   9.225 -0.8230  1.4600  1.2961
42488SOL     OW32783   5.893   0.055   1.610 -0.1822  0.0058 -0.1542
42488SOL    HW132784   5.925   0.049   1.700  1.8889  1.2076 -0.7471
42488SOL    HW232785   5.961   0.103   1.563 -0.9680 -0.9996 -2.4887
42489SOL     OW32786  11.555  10.018   6.614  0.4091  0.2345 -0.0878
42489SOL    HW132787  11.488  10.074   6.652 -0.0830  0.6779 -1.5624
42489SOL    HW232788  11.633  10.035   6.667 -0.2106  0.9299  0.6234
42490SOL     OW32789   3.951   4.122   6.069  0.4323  0.1588 -0.0636
42490SOL    HW132790   4.033   4.093   6.029  0.2899  0.3954 -0.5333
42490SOL    HW232791   3.884   4.067   6.028  0.4013 -0.3564  0.6612
42491SOL     OW32792   8.754   8.947   0.261  0.1344 -0.3351 -0.7306
42491SOL    HW132793   8.720   8.879   0.320  0.6863 -0.4774 -0.5694
42491SOL    HW232794   8.700   9.023   0.278  0.5124 -0.2680  0.2249
42492SOL     OW32795   5.843   8.362   4.047 -0.8322 -0.3604  0.3331
42492SOL    HW132796   5.846   8.415   3.968 -0.4010  1.9482  1.7973
42492SOL    HW232797   5.751   8.363   4.073 -1.1077 -1.7484 -0.4825
42493SOL     OW32798   0.895   3.852   2.158 -0.1891  0.9833  0.3004
42493SOL    HW132799   0.923   3.882   2.245  0.7382  0.2346  0.2827
42493SOL    HW232800   0.891   3.931   2.105  1.4590  1.2183  0.4506
42494SOL     OW32801   1.855   1.724   2.199 -0.3389  0.0635 -0.1229
42494SOL    HW132802   1.777   1.740   2.252  0.1961  0.4177  0.5780
42494SOL    HW232803   1.872   1.809   2.157 -0.4462 -0.0672 -0.4285
42495SOL     OW32804   7.867   4.663  10.651 -0.1865 -0.1379  0.5968
42495SOL    HW132805   7.889   4.581  10.696 -1.8006  0.5574  2.8016
42495SOL    HW232806   7.925   4.728  10.691 -0.6484  0.2384  0.6574
42496SOL     OW32807  10.027   7.178  11.218 -0.0389 -0.0765 -0.1621
42496SOL    HW132808   9.933   7.181  11.238 -0.1541  0.0188 -0.7079
42496SOL    HW232809  10.031   7.164  11.124  0.4972 -0.0081 -0.1503
42497SOL     OW32810   7.367   2.186   4.407 -0.1959 -0.4250  0.5056
42497SOL    HW132811   7.338   2.271   4.440 -0.6197 -0.9875  1.6039
42497SOL    HW232812   7.338   2.123   4.472 -2.9314 -1.8515 -1.8445
42498SOL     OW32813   6.829   0.030   9.310  0.4324  0.1080 -0.5209
42498SOL    HW132814   6.822   0.030   9.406 -0.9281  1.6640 -0.5586
42498SOL    HW232815   6.917  -0.000   9.292  0.4524 -0.9987  1.1945
42499SOL     OW32816   5.809  10.824   0.965  0.1069  0.3144  0.2086
42499SOL    HW132817   5.854  10.894   1.013 -0.5907 -0.6336  2.3969
42499SOL    HW232818   5.840  10.743   1.006 -0.6681 -0.5529 -0.8483
42500SOL     OW32819   5.224   1.774   2.772  0.3003 -0.4334 -0.5477
42500SOL    HW132820   5.277   1.726   2.836 -1.1874 -2.4001 -0.7175
42500SOL    HW232821   5.229   1.721   2.692 -1.8492 -0.6608 -0.5795
42501SOL     OW32822   7.280   0.172   2.534 -0.1838 -0.0401 -0.1345
42501SOL    HW132823   7.261   0.181   2.627  0.0940 -0.1851 -0.0634
42501SOL    HW232824   7.367   0.131   2.531 -1.1413 -2.2065 -0.4304
42502SOL     OW32825   2.930   2.049   2.969 -0.1086 -0.4776  0.5918
42502SOL    HW132826   2.909   1.962   2.936  0.3665 -0.2361 -0.3707
42502SOL    HW232827   2.992   2.034   3.041 -0.0222 -0.9299  0.4212
42503SOL     OW32828   3.821   7.324   8.512  0.1556  0.4276  0.9864
42503SOL    HW132829   3.815   7.384   8.437  0.8127  1.3354  1.6401
42503SOL    HW232830   3.820   7.237   8.472 -1.9212  0.7987  0.0822
42504SOL     OW32831   1.043   9.679   9.535  0.4988 -0.0952 -0.0154
42504SOL    HW132832   1.117   9.673   9.595  0.6485 -1.8035 -0.3154
42504SOL    HW232833   1.079   9.718   9.455  0.8401 -0.0032  0.1823
42505SOL     OW32834   6.230   0.459   2.239 -0.2469 -0.3001 -0.2867
42505SOL    HW132835   6.283   0.479   2.316  0.3837  2.7259 -1.3775
42505SOL    HW232836   6.255   0.370   2.215  0.0031 -1.1017  2.5730
42506SOL     OW32837  11.674   2.493   1.867  0.5867 -0.2786 -0.0743
42506SOL    HW132838  11.606   2.430   1.843 -0.1830 -0.0991  1.4719
42506SOL    HW232839  11.725   2.505   1.787 -0.0517 -1.8438 -0.7663
42507SOL     OW32840   9.392   6.864   6.889  0.7259  0.4830  0.4537
42507SOL    HW132841   9.404   6.888   6.797  0.1367 -0.8536  0.0009
42507SOL    HW232842   9.430   6.776   6.896 -0.2800  0.0872  1.1971
42508SOL     OW32843   8.455   2.031   5.508  0.1436 -0.4256 -0.0069
42508SOL    HW132844   8.500   2.073   5.435  0.4916  1.7602  1.3566
42508SOL    HW232845   8.525   2.001   5.566 -0.1247 -2.0495 -0.4767
42509SOL     OW32846   3.789  11.054   0.691 -0.1463 -0.6013  0.3081
42509SOL    HW132847   3.783  10.972   0.740  2.4775 -0.6332  0.7342
42509SOL    HW232848   3.719  11.108   0.727 -0.9702 -2.1011  1.0869
42510SOL     OW32849   0.419   1.623   6.846 -0.1599  0.4972  0.1083
42510SOL    HW132850   0.501   1.574   6.837  0.5698  1.9047 -1.3571
42510SOL    HW232851   0.353   1.569   6.803  0.4708  0.4021 -0.7574
42511SOL     OW32852   6.376   9.620   7.038  0.6823  0.3030  0.3385
42511SOL    HW132853   6.448   9.663   6.994 -0.7269  2.5637  0.1084
42511SOL    HW232854   6.378   9.655   7.127  1.5539 -1.8144  1.2352
42512SOL     OW32855   8.991   9.294   9.728 -0.4251  0.0320 -0.3964
42512SOL    HW132856   9.051   9.308   9.802 -0.8493 -1.6890  0.3213
42512SOL    HW232857   9.045   9.305   9.650  0.2204  1.0747  0.1796
42513SOL     OW32858   4.965   6.947   2.713  0.0905  0.6203 -0.1087
42513SOL    HW132859   5.044   6.895   2.725  0.5928  1.5566  0.7731
42513SOL    HW232860   4.979   6.994   2.630  0.7363  1.2356  0.3376
42514SOL     OW32861   9.605   7.964   9.604 -0.2568 -0.5573  0.0676
42514SOL    HW132862   9.555   7.991   9.527 -0.7310 -1.0527  0.1952
42514SOL    HW232863   9.645   8.044   9.636  1.3509 -0.5933 -1.6802
42515SOL     OW32864   0.673   9.620   6.453 -0.5665  0.4670  0.0376
42515SOL    HW132865   0.647   9.671   6.529  0.8219  0.9987  0.1956
42515SOL    HW232866   0.650   9.675   6.378 -0.2077  0.7927  0.1612
42516SOL     OW32867   6.437   3.240   4.790  0.1095 -0.0448  0.2451
42516SOL    HW132868   6.355   3.258   4.746 -0.1726  1.5447  1.3480
42516SOL    HW232869   6.504   3.246   4.722 -0.5142  0.3943 -0.3334
42517SOL     OW32870   6.045  10.502   1.581 -0.0983 -0.1608  0.0372
42517SOL    HW132871   5.980  10.432   1.573  0.3221 -0.4307 -1.2396
42517SOL    HW232872   6.009  10.560   1.649 -0.7742 -1.2537  0.6340
42518SOL     OW32873   4.971  10.311   1.604 -0.2780 -0.1792 -0.9126
42518SOL    HW132874   5.040  10.324   1.539  0.9408  1.3924  0.5995
42518SOL    HW232875   4.970  10.392   1.654 -1.0294 -1.3831  1.1572
42519SOL     OW32876   7.883   3.296   3.949  0.5287 -0.3650  0.5122
42519SOL    HW132877   7.962   3.343   3.921 -0.8808  1.7645 -0.1230
42519SOL    HW232878   7.819   3.365   3.964 -2.0354 -2.1343 -1.5549
42520SOL     OW32879   7.711   3.698  11.277 -0.1073 -0.0801 -0.0528
42520SOL    HW132880   7.644   3.739  11.222  0.5539  0.7271 -0.2873
42520SOL    HW232881   7.756   3.772  11.318  0.3245 -0.6307  0.4736
42521SOL     OW32882   5.442  10.674   0.030  0.1662  0.0935 -0.6956
42521SOL    HW132883   5.504  10.740  -0.001  0.8207 -0.1911 -0.0188
42521SOL    HW232884   5.357  10.718   0.025  0.4626  0.6224 -1.2535
42522SOL     OW32885   8.374   9.143   7.483 -0.2664 -0.4097  0.1206
42522SOL    HW132886   8.410   9.062   7.447 -0.1310  0.0153 -0.7313
42522SOL    HW232887   8.283   9.122   7.504  0.5467 -1.6539  2.8178
42523SOL     OW32888   4.982   1.230   0.941 -0.1295 -0.0803 -0.7843
42523SOL    HW132889   4.896   1.272   0.950  0.2076  0.5686 -0.4559
42523SOL    HW232890   4.962   1.139   0.922 -0.9192 -0.3817  1.2213
42524SOL     OW32891  10.264   4.699   8.308 -0.0337  0.0367 -0.1541
42524SOL    HW132892  10.213   4.629   8.348 -0.7350  0.5713 -0.0922
42524SOL    HW232893  10.336   4.714   8.368  0.3394 -0.8908 -0.3586
42525SOL     OW32894   1.770   5.201   6.409 -0.5518 -0.4957 -0.0332
42525SOL    HW132895   1.827   5.194   6.332 -0.4619 -2.5711  0.1509
42525SOL    HW232896   1.682   5.210   6.372 -0.2538  1.6591 -0.3219
42526SOL     OW32897   3.176   8.849   3.068  0.2068 -0.5569 -0.5609
42526SOL    HW132898   3.128   8.921   3.109 -1.2007 -1.4605 -0.5547
42526SOL    HW232899   3.241   8.892   3.012  1.2271  0.7106  1.4877
42527SOL     OW32900   5.267   3.269   6.163 -0.7889 -0.0826 -0.3064
42527SOL    HW132901   5.236   3.196   6.110 -0.0046 -0.0492 -0.8201
42527SOL    HW232902   5.326   3.317   6.106  1.6264 -1.1372  1.1715
42528SOL     OW32903   8.872   0.483   5.421  0.4808  0.5392 -0.7271
42528SOL    HW132904   8.796   0.518   5.467  0.9074  0.9673 -0.3328
42528SOL    HW232905   8.851   0.493   5.328 -0.9324 -1.5089 -0.6870
42529SOL     OW32906   0.500   6.447   5.413  0.3276 -0.0790 -0.4630
42529SOL    HW132907   0.442   6.446   5.337 -1.0244  0.7004  0.5150
42529SOL    HW232908   0.451   6.402   5.482  1.2171 -0.1281  0.1609
42530SOL     OW32909   8.207   4.597   6.464 -0.0894  0.0040  0.1276
42530SOL    HW132910   8.203   4.628   6.554 -0.8762  1.2607 -0.3161
42530SOL    HW232911   8.115   4.598   6.434  0.0456 -1.2906 -0.4018
42531SOL     OW32912   0.422   5.992  10.939  0.0035 -0.4268  0.2194
42531SOL    HW132913   0.474   5.976  10.861  1.5339 -1.3490  1.3635
42531SOL    HW232914   0.371   5.912  10.951 -0.2606 -0.2705  0.1505
42532SOL     OW32915   8.220  11.763  11.655 -0.0040 -0.3504 -0.6080
42532SOL    HW132916   8.244  11.815  11.578  1.2820 -1.1377 -0.7762
42532SOL    HW232917   8.124  11.758  11.652 -0.1050  1.3371 -1.0004
42533SOL     OW32918   7.428   1.953  11.649  0.0859  0.0979  0.3194
42533SOL    HW132919   7.451   2.035  11.607 -0.0697 -0.0198  0.0019
42533SOL    HW232920   7.481   1.887  11.604 -0.3192 -0.0724  0.0830
42534SOL     OW32921   2.213   0.867   9.308  0.6115 -0.1461 -0.1222
42534SOL    HW132922   2.168   0.783   9.304 -0.2703  0.3548 -1.5819
42534SOL    HW232923   2.147   0.928   9.339  1.1084  0.0977  0.4703
42535SOL     OW32924  10.051   8.447   8.441  0.4297  0.2819 -0.0892
42535SOL    HW132925  10.109   8.509   8.398 -0.5566  0.7736 -0.7390
42535SOL    HW232926  10.108   8.372   8.462  1.8206  1.6932  1.4405
42536SOL     OW32927   8.809   4.307   1.436  0.0944  0.4138 -0.3581
42536SOL    HW132928   8.832   4.395   1.465  1.0926  0.1838 -0.4152
42536SOL    HW232929   8.871   4.288   1.366  0.8430 -0.8698  0.6016
42537SOL     OW32930   1.208   7.692   7.356 -0.0435  0.9277  0.3729
42537SOL    HW132931   1.208   7.657   7.445  0.3983  0.1736  0.0790
42537SOL    HW232932   1.256   7.775   7.363  1.6334 -0.0147  0.5027
42538SOL     OW32933   6.618   0.337   4.478  0.3275  0.1712  0.3770
42538SOL    HW132934   6.544   0.277   4.465  1.0712 -0.6133 -0.3912
42538SOL    HW232935   6.583   0.424   4.458 -0.2928 -0.2409 -0.3672
42539SOL     OW32936  10.872   6.170   8.326  0.4316  0.1013  0.2730
42539SOL    HW132937  10.920   6.094   8.359 -0.0580 -0.6666 -0.7501
42539SOL    HW232938  10.885   6.167   8.232  2.8850  2.9745  0.3550
42540SOL     OW32939   5.031  10.628   1.333 -0.1363 -0.5371 -0.3417
42540SOL    HW132940   4.958  10.573   1.305 -0.8078  0.2735 -0.2164
42540SOL    HW232941   5.104  10.567   1.345 -0.4774 -1.2131 -1.5484
42541SOL     OW32942   2.497   7.675   5.002 -0.0424  0.3391 -0.3295
42541SOL    HW132943   2.434   7.746   4.995 -0.2827  0.3760  1.6818
42541SOL    HW232944   2.444   7.596   5.015  0.2784  0.3379  1.1446
42542SOL     OW32945   4.313   3.523   5.230  0.0427 -0.6240 -0.0720
42542SOL    HW132946   4.220   3.513   5.212 -0.0878  0.3342  0.0123
42542SOL    HW232947   4.341   3.437   5.262 -0.5276 -1.2790 -1.2994
42543SOL     OW32948   1.827   1.324  10.519 -0.0622  0.5509  0.6484
42543SOL    HW132949   1.790   1.289  10.437 -0.8614 -0.8412  1.5576
42543SOL    HW232950   1.783   1.408  10.531 -1.2230 -0.0113  0.4976
42544SOL     OW32951   3.985   0.043   2.634  0.0987 -0.6080  0.1404
42544SOL    HW132952   4.073   0.019   2.663  0.0984 -1.1982 -0.3396
42544SOL    HW232953   3.936   0.053   2.715  0.8919  0.9152  0.4761
42545SOL     OW32954   6.058   1.906   7.442  0.4811  0.0713 -0.4710
42545SOL    HW132955   6.116   1.836   7.471  1.1324  0.5838 -0.4971
42545SOL    HW232956   6.118   1.977   7.416 -0.0649 -0.2575 -2.8011
42546SOL     OW32957   2.271   9.562   2.225  0.8932  0.3998  0.0005
42546SOL    HW132958   2.286   9.622   2.299  1.2851  0.6770 -0.3016
42546SOL    HW232959   2.355   9.519   2.211  0.5968 -0.2868  0.2618
42547SOL     OW32960  11.192   5.294   6.807  0.0173  0.3829  0.5568
42547SOL    HW132961  11.170   5.374   6.855 -1.0447  0.2119  0.3770
42547SOL    HW232962  11.136   5.227   6.846  0.9000 -0.2873  0.7098
42548SOL     OW32963   1.179   9.631   0.691 -0.3671 -0.9531 -0.6066
42548SOL    HW132964   1.140   9.554   0.649 -0.3901 -1.7159  0.7601
42548SOL    HW232965   1.261   9.599   0.729 -0.1250 -0.1832 -0.4690
42549SOL     OW32966   5.692   2.576   5.903  0.2411 -0.4547 -0.3414
42549SOL    HW132967   5.734   2.520   5.968  0.8966 -0.4150 -0.7186
42549SOL    HW232968   5.755   2.648   5.889  0.8984 -1.3219 -2.2273
42550SOL     OW32969   9.619   2.250   4.593  0.2860 -0.0581 -0.1157
42550SOL    HW132970   9.536   2.267   4.549  0.6799  1.2557 -0.3862
42550SOL    HW232971   9.647   2.335   4.626  1.0328 -0.6573  0.8670
42551SOL     OW32972   0.710  10.485   9.507  0.0224 -0.6437  0.2196
42551SOL    HW132973   0.637  10.433   9.474  0.7099 -1.1322 -0.6060
42551SOL    HW232974   0.774  10.484   9.435  1.6458 -1.8397  1.6056
42552SOL     OW32975   1.583   5.708   5.266  0.3738  0.0397 -0.2085
42552SOL    HW132976   1.578   5.627   5.317  0.2301  0.3920  0.3353
42552SOL    HW232977   1.609   5.679   5.178  0.5830 -0.5701  0.0505
42553SOL     OW32978   6.901   4.904   2.848  0.2456 -0.2004  1.0223
42553SOL    HW132979   6.878   4.846   2.920  0.2033 -1.8713 -0.2752
42553SOL    HW232980   6.994   4.923   2.861  0.7791 -2.1519  0.4671
42554SOL     OW32981   4.405   8.046   5.770 -0.2833 -0.6800  0.1110
42554SOL    HW132982   4.471   8.090   5.716  1.1004 -0.7942  1.6272
42554SOL    HW232983   4.325   8.049   5.718  0.9025 -0.5023 -1.7879
42555SOL     OW32984   8.959   5.871   0.020  0.3686 -0.1234  0.3015
42555SOL    HW132985   8.944   5.819  -0.059  0.1903 -0.4423  0.5474
42555SOL    HW232986   8.883   5.853   0.075  0.8097 -0.4024  0.8208
42556SOL     OW32987   6.734   9.961   1.530 -0.7332  0.5758 -0.6001
42556SOL    HW132988   6.815   9.911   1.528 -1.5439 -0.8322  0.2127
42556SOL    HW232989   6.738  10.016   1.452  0.4196 -0.3952 -1.2633
42557SOL     OW32990   8.236   3.894   5.498 -0.0215 -0.0979 -0.1852
42557SOL    HW132991   8.284   3.823   5.539  0.7187  0.9460  0.8342
42557SOL    HW232992   8.301   3.938   5.443 -0.2795  0.2310 -0.2290
42558SOL     OW32993   6.791   6.013   0.505 -0.5033  0.3412 -0.3654
42558SOL    HW132994   6.721   6.059   0.458  0.6713  0.3945 -2.1883
42558SOL    HW232995   6.840   5.968   0.436  0.7168 -0.4449  0.9554
42559SOL     OW32996   8.915   5.638   3.935 -0.6125 -0.6458  0.2150
42559SOL    HW132997   8.864   5.557   3.940 -1.3165 -0.5273 -3.0182
42559SOL    HW232998   8.972   5.626   3.859 -0.1461  1.5712  0.1531
42560SOL     OW32999   0.197   5.163   9.204  0.2696 -0.1099 -0.4135
42560SOL    HW133000   0.269   5.176   9.143  1.8406 -0.1786  1.3611
42560SOL    HW233001   0.192   5.245   9.253 -0.3087 -0.4097  0.0485
42561SOL     OW33002   6.741   0.153   7.577 -0.6050  0.0949 -0.3232
42561SOL    HW133003   6.670   0.139   7.514 -0.1045 -1.9886 -0.4794
42561SOL    HW233004   6.801   0.212   7.532 -0.1683 -1.4906 -1.9299
42562SOL     OW33005   1.559  10.854   9.615 -0.2737  0.2122 -0.5494
42562SOL    HW133006   1.625  10.883   9.678 -1.7169  1.6168  0.4025
42562SOL    HW233007   1.510  10.786   9.661 -1.2330  1.1319 -0.1743
42563SOL     OW33008   6.372   6.870   1.772 -0.5181  0.5379  0.0359
42563SOL    HW133009   6.433   6.797   1.781 -2.6784 -1.2766  0.9989
42563SOL    HW233010   6.304   6.838   1.713 -1.8102  1.5315  0.9120
42564SOL     OW33011   8.816   6.046   5.698 -0.2428  0.0571 -0.2968
42564SOL    HW133012   8.795   6.132   5.735  0.0102 -0.3941  0.9249
42564SOL    HW233013   8.901   6.024   5.736 -0.2333 -0.6652 -0.7275
42565SOL     OW33014   9.573   3.493   9.143 -0.0702  0.7719  0.2605
42565SOL    HW133015   9.598   3.418   9.197 -0.3263  0.8780  0.5295
42565SOL    HW233016   9.480   3.507   9.163 -0.4019  0.2575 -0.8776
42566SOL     OW33017  10.346   2.010   7.634 -0.3001 -0.1430  0.4603
42566SOL    HW133018  10.303   1.999   7.718 -2.6885  0.8207 -0.5480
42566SOL    HW233019  10.276   2.002   7.569  0.8972  2.0968 -1.2850
42567SOL     OW33020   6.364   4.896   2.592  0.2918 -0.9120  0.3852
42567SOL    HW133021   6.432   4.920   2.655  0.0268 -2.1114  1.1604
42567SOL    HW233022   6.365   4.967   2.528  1.1033 -0.0535  1.3098
42568SOL     OW33023   0.232   1.997   5.956  0.3981 -1.1592  0.0834
42568SOL    HW133024   0.163   2.044   6.002  1.3749  0.9869 -0.4931
42568SOL    HW233025   0.190   1.918   5.923 -1.6597 -0.1541  0.1419
42569SOL     OW33026   0.845  11.059   3.239  0.1807 -0.2476  0.2202
42569SOL    HW133027   0.861  10.990   3.175  1.9833 -0.3102  0.6812
42569SOL    HW233028   0.802  11.129   3.189  3.2140  0.5146 -1.6376
42570SOL     OW33029   6.927   7.241   6.689  0.0878 -0.1143  0.0851
42570SOL    HW133030   6.901   7.151   6.670  1.1575 -0.1040 -1.7253
42570SOL    HW233031   6.984   7.234   6.765 -1.5457 -0.6638  1.3106
42571SOL     OW33032   2.153  11.550   0.282 -0.3162 -0.2298  0.0525
42571SOL    HW133033   2.218  11.508   0.225  0.7926  0.4765  0.7382
42571SOL    HW233034   2.204  11.578   0.358 -1.1739  1.5754  0.0084
42572SOL     OW33035   7.354   2.808   3.021  1.0379  0.2857 -0.3333
42572SOL    HW133036   7.272   2.836   2.981  0.7162 -1.9840 -1.3998
42572SOL    HW233037   7.388   2.887   3.064 -1.6028  1.3147  0.0397
42573SOL     OW33038   5.654  10.541   8.375  0.3509 -0.0219  0.1231
42573SOL    HW133039   5.610  10.613   8.421 -0.4606 -0.5831  0.2468
42573SOL    HW233040   5.747  10.560   8.384  0.1505  1.4882 -0.6008
42574SOL     OW33041   3.872   8.441  11.740  0.3941 -0.1789 -0.3583
42574SOL    HW133042   3.817   8.519  11.735  0.3598  0.0441  2.0994
42574SOL    HW233043   3.811   8.369  11.758  0.6989 -0.2130  0.6196
42575SOL     OW33044   4.608   4.532   8.069  0.3249 -0.1849 -0.6113
42575SOL    HW133045   4.636   4.539   8.160  0.8577 -1.4056 -0.6567
42575SOL    HW233046   4.512   4.535   8.073  0.3606  0.5667 -0.1007
42576SOL     OW33047   9.491   7.468   6.082  0.4017 -0.2889  0.1487
42576SOL    HW133048   9.574   7.492   6.042  0.0495 -0.5185 -0.7300
42576SOL    HW233049   9.438   7.548   6.077  0.2662 -0.3923 -0.0836
42577SOL     OW33050   8.879   5.490   8.771 -0.2978 -0.1183  0.0488
42577SOL    HW133051   8.816   5.463   8.839 -0.5748  1.0224  0.2583
42577SOL    HW233052   8.824   5.509   8.695  0.0424 -1.7948 -0.6672
42578SOL     OW33053   8.547   8.042   8.598  0.4737 -0.1774 -0.0404
42578SOL    HW133054   8.524   8.096   8.522  0.7647 -0.1224 -0.0904
42578SOL    HW233055   8.544   8.103   8.672 -0.9027 -0.4610  0.1714
42579SOL     OW33056   6.332   5.499   5.541  0.6320 -0.1179 -0.4489
42579SOL    HW133057   6.274   5.428   5.568  1.7064 -0.0582  2.3428
42579SOL    HW233058   6.290   5.535   5.463 -1.0608 -2.4273 -0.7328
42580SOL     OW33059  10.435   6.633   0.508  0.4866 -0.2300 -0.0451
42580SOL    HW133060  10.417   6.556   0.561  0.7667 -0.0098  0.3853
42580SOL    HW233061  10.482   6.600   0.432  1.0147 -0.4397  0.3620
42581SOL     OW33062   6.522   9.185   9.837 -0.5707 -0.2093 -0.0474
42581SOL    HW133063   6.613   9.161   9.856 -0.2206  1.0868 -0.0165
42581SOL    HW233064   6.526   9.232   9.753 -1.1032  0.5187  0.3244
42582SOL     OW33065   6.958  11.498   4.362 -0.2451 -0.2429 -0.1976
42582SOL    HW133066   7.048  11.528   4.349 -0.7558  0.9622 -1.1575
42582SOL    HW233067   6.934  11.458   4.278 -0.3396 -1.3323  0.3295
42583SOL     OW33068   7.111   8.708   0.939 -0.2469 -0.1038 -0.0600
42583SOL    HW133069   7.115   8.673   1.029  2.0697  1.3841  0.5130
42583SOL    HW233070   7.032   8.763   0.939 -0.4009 -0.2855  1.0112
42584SOL     OW33071   2.724   6.862   1.153 -0.0474 -0.1848 -0.0700
42584SOL    HW133072   2.805   6.815   1.129 -0.0609 -0.4084  0.3063
42584SOL    HW233073   2.755   6.945   1.190  0.0849 -0.8193  1.3135
42585SOL     OW33074  10.043   4.550   7.769 -0.0387  0.5602  0.0329
42585SOL    HW133075  10.041   4.547   7.865 -1.4890 -1.3884  0.0099
42585SOL    HW233076   9.951   4.562   7.744  0.3440  1.2080 -1.1221
42586SOL     OW33077   7.963   9.102   6.560  0.6931  0.2401 -0.7914
42586SOL    HW133078   8.059   9.105   6.564  0.6708  2.5832  2.1185
42586SOL    HW233079   7.937   9.079   6.649 -1.5640 -3.0730 -2.1339
42587SOL     OW33080  10.853  10.790   4.886 -0.0986 -0.2085 -0.1312
42587SOL    HW133081  10.803  10.713   4.857 -0.7308 -0.0490  0.4879
42587SOL    HW233082  10.908  10.813   4.812 -1.4164 -0.0075 -1.0764
42588SOL     OW33083   8.343   3.942   1.643 -0.7144 -0.5643  0.3027
42588SOL    HW133084   8.381   3.951   1.555 -1.6611  0.7473 -0.0055
42588SOL    HW233085   8.357   4.028   1.684  0.0887 -1.2855  1.6111
42589SOL     OW33086   0.825   1.983   8.853  0.1881 -0.2622 -0.4778
42589SOL    HW133087   0.797   2.069   8.824 -1.0439 -0.5184 -0.1058
42589SOL    HW233088   0.799   1.924   8.781 -1.4738 -0.6787  0.4064
42590SOL     OW33089   2.764   8.060   7.581 -0.3136 -0.4323 -0.5632
42590SOL    HW133090   2.758   7.979   7.531  0.0031 -0.7379 -0.1166
42590SOL    HW233091   2.858   8.076   7.589 -0.3044 -1.2729  1.3416
42591SOL     OW33092   9.483   2.473   5.465  0.3264 -0.2753 -0.2727
42591SOL    HW133093   9.512   2.538   5.401 -0.8321 -1.4653 -2.1031
42591SOL    HW233094   9.493   2.389   5.420  0.1125 -1.2417  1.3809
42592SOL     OW33095   7.070   1.564   9.798 -0.5795 -0.1292 -0.1946
42592SOL    HW133096   7.107   1.594   9.882 -0.8260 -0.5991  0.0856
42592SOL    HW233097   6.978   1.547   9.817 -0.5765 -0.4973 -0.4971
42593SOL     OW33098   5.768   6.933   9.628  0.3301  0.3743  0.3845
42593SOL    HW133099   5.803   6.959   9.713  1.5156 -0.9460  0.3295
42593SOL    HW233100   5.844   6.906   9.577 -0.6158 -1.3055 -0.2045
42594SOL     OW33101  10.368   8.245   8.403  0.2939 -0.0657  0.2256
42594SOL    HW133102  10.403   8.249   8.492  0.8035  0.6852 -0.0056
42594SOL    HW233103  10.403   8.163   8.368 -1.9960 -1.7100  1.5616
42595SOL     OW33104  10.141   8.674   7.353 -0.4089  0.0999  0.3654
42595SOL    HW133105  10.110   8.631   7.273  0.8878  2.9083 -1.8767
42595SOL    HW233106  10.067   8.727   7.382  0.1857  1.9813 -1.3143
42596SOL     OW33107  10.321   1.976   8.413 -0.0717  0.9431 -0.3753
42596SOL    HW133108  10.254   2.041   8.436 -0.1642  0.2040  1.6981
42596SOL    HW233109  10.392   1.993   8.475 -0.1911 -1.0255  0.3896
42597SOL     OW33110  10.622   3.909  11.313 -0.2918  0.0009 -0.4257
42597SOL    HW133111  10.717   3.916  11.306 -0.2379 -0.5810 -0.3474
42597SOL    HW233112  10.599   3.840  11.250 -0.9827  2.0528 -2.5962
42598SOL     OW33113   2.551   8.126  11.304 -0.1260 -0.5102  0.2174
42598SOL    HW133114   2.575   8.040  11.271  0.3938 -0.3032  0.0538
42598SOL    HW233115   2.465   8.143  11.265 -0.1220 -0.8517  0.0581
42599SOL     OW33116   7.155   4.922   6.182 -0.0837 -0.4479 -0.6618
42599SOL    HW133117   7.101   4.844   6.167  0.4505 -0.8570 -0.5190
42599SOL    HW233118   7.099   4.996   6.159 -1.7045 -0.6661  2.1575
42600SOL     OW33119   3.619   5.170   2.905 -0.1608 -0.0372  0.1421
42600SOL    HW133120   3.616   5.078   2.934  0.2162  0.3670  1.5413
42600SOL    HW233121   3.575   5.219   2.975  0.3945  0.9407 -0.1763
42601SOL     OW33122   8.716   3.469   7.066 -0.3554  0.4513 -0.4026
42601SOL    HW133123   8.806   3.459   7.034 -0.0239  1.5965  0.1244
42601SOL    HW233124   8.669   3.397   7.025  0.8272 -0.2517 -0.5907
42602SOL     OW33125   5.520   7.851   3.869 -0.5850  0.6373 -0.2611
42602SOL    HW133126   5.544   7.890   3.785  1.3038 -0.0485 -0.0978
42602SOL    HW233127   5.537   7.920   3.933  0.5243  0.3391 -0.2077
42603SOL     OW33128   4.601   2.320   3.859 -0.2525  0.1040 -0.5562
42603SOL    HW133129   4.560   2.278   3.935  0.4265 -1.1221 -0.8479
42603SOL    HW233130   4.534   2.381   3.828 -0.1354  1.4784  1.6750
42604SOL     OW33131   4.917   0.760   1.620 -0.3927  0.4894 -0.2862
42604SOL    HW133132   4.982   0.694   1.597  0.1400  0.8123  0.2893
42604SOL    HW233133   4.899   0.746   1.713 -0.0326  1.3604 -0.0772
42605SOL     OW33134   2.206   6.048   8.467 -0.3052  0.3251 -0.0749
42605SOL    HW133135   2.131   6.073   8.522  0.1393  0.5879  0.4198
42605SOL    HW233136   2.169   5.989   8.402 -0.6514 -0.8441  1.1551
42606SOL     OW33137   8.445   7.764   1.564 -0.6928  0.0691  0.3622
42606SOL    HW133138   8.364   7.743   1.610 -0.5692  0.2983  0.6858
42606SOL    HW233139   8.467   7.853   1.592 -0.0150 -0.2047  0.7418
42607SOL     OW33140   7.297   7.213   4.832  0.5606  0.0422  0.2561
42607SOL    HW133141   7.202   7.207   4.838  0.5981 -0.6498  0.3200
42607SOL    HW233142   7.321   7.285   4.890  0.0027  0.8635 -0.5143
42608SOL     OW33143   0.761   0.491   6.721  0.3914 -0.0910  0.4625
42608SOL    HW133144   0.826   0.466   6.786  0.3531  2.3197  1.5356
42608SOL    HW233145   0.709   0.559   6.764 -1.5819 -0.5462 -1.0594
42609SOL     OW33146  10.233   9.444   4.030  0.2475 -0.0790 -0.4645
42609SOL    HW133147  10.154   9.424   3.980  0.0427  0.6647 -0.4473
42609SOL    HW233148  10.218   9.531   4.065 -0.0397 -0.9340  1.7091
42610SOL     OW33149   2.809   6.029   9.189  0.3506  0.0554  0.0238
42610SOL    HW133150   2.784   6.063   9.275  0.4551  0.3659 -0.0659
42610SOL    HW233151   2.783   5.937   9.191 -0.4309  0.2696  0.0778
42611SOL     OW33152   1.763   4.642   8.879 -0.1390 -0.3125  0.1588
42611SOL    HW133153   1.670   4.660   8.892 -0.4339 -1.6158  0.0168
42611SOL    HW233154   1.808   4.719   8.914 -1.3550  2.0904 -2.9950
42612SOL     OW33155   4.342   7.512   1.909 -0.1448 -0.5170 -0.2542
42612SOL    HW133156   4.262   7.553   1.875 -0.1727 -0.5033 -0.1731
42612SOL    HW233157   4.362   7.563   1.988 -0.1173 -0.5896 -0.2146
42613SOL     OW33158   7.055   2.903   6.406  0.2257  0.0183 -0.3681
42613SOL    HW133159   6.987   2.948   6.356  0.9613  0.3101 -1.1356
42613SOL    HW233160   7.136   2.945   6.378  0.8384 -1.1450 -0.3871
42614SOL     OW33161   2.386   2.879   2.604  0.0571  0.2615 -0.1246
42614SOL    HW133162   2.344   2.957   2.641 -0.7664  0.3642 -1.2135
42614SOL    HW233163   2.391   2.897   2.510  1.2438 -0.3763 -0.2089
42615SOL     OW33164  10.723   0.536  11.137  0.4505 -0.4539 -0.1408
42615SOL    HW133165  10.745   0.451  11.176  0.8173 -1.2790 -2.0396
42615SOL    HW233166  10.627   0.540  11.142  0.4210 -1.0376 -0.1216
42616SOL     OW33167   9.830   4.943   1.254 -0.0155 -0.0015 -0.3510
42616SOL    HW133168   9.821   4.888   1.176  1.6152 -0.1246 -0.4833
42616SOL    HW233169   9.765   4.909   1.315 -1.6544  0.3840 -1.7843
42617SOL     OW33170   8.759   6.646   7.832 -0.5908 -0.3418 -0.1126
42617SOL    HW133171   8.844   6.654   7.875 -0.9182 -0.1378  0.5205
42617SOL    HW233172   8.736   6.736   7.810 -0.6217 -0.4024 -0.3279
42618SOL     OW33173   3.918   5.402   4.757  0.4919 -0.0304 -0.3944
42618SOL    HW133174   3.881   5.459   4.689  1.3885  0.8759 -0.1525
42618SOL    HW233175   4.004   5.440   4.775  0.5406 -0.6623  0.7696
42619SOL     OW33176   6.737   5.393  11.012 -0.3782 -0.5499 -0.2514
42619SOL    HW133177   6.719   5.314  11.064 -0.4801  0.6207  1.6041
42619SOL    HW233178   6.813   5.432  11.054 -0.8102  0.7443 -0.6349
42620SOL     OW33179   2.971  10.628   9.481 -0.3954 -0.2533  0.2016
42620SOL    HW133180   2.965  10.688   9.406  1.7101 -0.5724 -0.2953
42620SOL    HW233181   2.975  10.685   9.558  0.8175  0.2596 -0.2111
42621SOL     OW33182  11.134   8.143   4.344 -0.0045  0.0431 -0.3372
42621SOL    HW133183  11.096   8.108   4.264 -1.6772  2.2051 -0.5754
42621SOL    HW233184  11.168   8.229   4.319 -0.4164  0.6911  1.2014
42622SOL     OW33185   8.065   5.389   8.669 -0.0539  0.3522  0.0230
42622SOL    HW133186   8.075   5.362   8.760 -0.0656 -1.7835 -0.5659
42622SOL    HW233187   7.993   5.336   8.636  1.0408 -0.1576 -1.6631
42623SOL     OW33188   3.421  11.084   4.844 -0.5029 -0.1328  0.5474
42623SOL    HW133189   3.437  11.063   4.752 -3.3415  2.7442 -0.7915
42623SOL    HW233190   3.372  11.009   4.877 -1.0696 -0.4021 -0.8392
42624SOL     OW33191  10.002   8.397   0.017  0.0428  0.0131 -0.4701
42624SOL    HW133192   9.985   8.325  -0.044  1.6541  0.1709 -1.1741
42624SOL    HW233193  10.010   8.474  -0.040  1.3306  0.2061 -0.0716
42625SOL     OW33194   5.711   0.501   6.242 -0.2365  0.0336 -0.1715
42625SOL    HW133195   5.633   0.462   6.203 -0.6279  0.3478  0.2759
42625SOL    HW233196   5.678   0.548   6.319  0.4724 -0.3580  0.3919
42626SOL     OW33197   9.376   7.635   9.498 -0.6326 -0.3640  0.8697
42626SOL    HW133198   9.348   7.551   9.461 -1.9179 -0.1518  1.2963
42626SOL    HW233199   9.442   7.611   9.564 -0.2391 -0.9403  0.2808
42627SOL     OW33200   5.649   2.494  10.277  0.3176  0.2434 -0.1121
42627SOL    HW133201   5.653   2.493  10.372 -0.8122 -2.9899  0.0482
42627SOL    HW233202   5.653   2.586  10.253  0.0542  1.1950  3.0755
42628SOL     OW33203   8.412   8.703  10.122 -0.0769 -0.5106  0.0670
42628SOL    HW133204   8.324   8.738  10.112 -0.2719 -0.8294  0.6138
42628SOL    HW233205   8.470   8.775  10.096 -0.4912 -0.1843  0.0441
42629SOL     OW33206  10.053   5.736  11.268 -0.5483  0.3000  0.3184
42629SOL    HW133207  10.032   5.668  11.333  0.6333 -0.1903  0.2058
42629SOL    HW233208  10.126   5.784  11.307  0.0394  0.1298 -0.5474
42630SOL     OW33209   9.944   3.734   1.920 -0.3956  0.0974 -0.0813
42630SOL    HW133210   9.946   3.708   2.012 -0.5350  1.4411  0.3149
42630SOL    HW233211   9.964   3.827   1.921 -0.5687  0.1621 -1.4005
42631SOL     OW33212   5.620   1.179   6.632  0.1075  0.4292  0.3605
42631SOL    HW133213   5.677   1.253   6.652 -0.0910  0.3533  1.2515
42631SOL    HW233214   5.564   1.210   6.561  0.0738  1.1097  0.6808
42632SOL     OW33215   1.049   5.231   9.097  0.2349  0.4324 -0.5373
42632SOL    HW133216   1.070   5.138   9.098 -1.3209  0.0630  1.0531
42632SOL    HW233217   0.964   5.237   9.053 -0.3054  0.9271  0.5328
42633SOL     OW33218   0.174   0.018  11.006  0.3925 -0.3257  0.0794
42633SOL    HW133219   0.232   0.061  10.943 -0.1225  1.1413  0.5614
42633SOL    HW233220   0.092   0.007  10.959  1.1046 -2.8316 -0.7617
42634SOL     OW33221   0.212   8.928   7.878  0.1113  0.1881 -0.2419
42634SOL    HW133222   0.228   8.904   7.786  1.7576  1.4300 -0.3213
42634SOL    HW233223   0.258   8.861   7.928  0.4199  0.3138 -0.3558
42635SOL     OW33224   4.206  11.226   6.201  0.4212  0.1263 -0.2388
42635SOL    HW133225   4.278  11.271   6.156  0.2998  1.5313  0.9081
42635SOL    HW233226   4.129  11.278   6.179  0.0760 -0.2315  0.1273
42636SOL     OW33227   3.895   1.036  10.317 -0.2581  0.2269  0.8556
42636SOL    HW133228   3.908   0.996  10.231 -0.0582 -1.2720  1.5429
42636SOL    HW233229   3.926   1.126  10.307  0.2956 -0.0877 -0.4886
42637SOL     OW33230   5.447   0.900   1.510  0.1702 -0.4327  0.8733
42637SOL    HW133231   5.432   0.806   1.498  0.6087 -0.2397 -2.0817
42637SOL    HW233232   5.542   0.910   1.506  0.2122  0.0268  2.5732
42638SOL     OW33233   3.397   9.648   5.444  0.7296  0.6199 -0.8705
42638SOL    HW133234   3.318   9.594   5.433  0.7473  0.5045 -0.4650
42638SOL    HW233235   3.400   9.666   5.538  0.6382  1.4719 -1.0262
42639SOL     OW33236   0.090   4.482   4.853 -0.0785  0.0114  0.7448
42639SOL    HW133237   0.185   4.493   4.851  0.1826 -1.8989  0.9467
42639SOL    HW233238   0.070   4.434   4.772 -0.4718 -2.0380  1.9892
42640SOL     OW33239   4.516   1.581   0.049 -0.2433  0.1274  0.2637
42640SOL    HW133240   4.445   1.552  -0.007 -2.0263  4.1563  0.1322
42640SOL    HW233241   4.577   1.626  -0.009  0.9128 -0.6510  0.8196
42641SOL     OW33242   8.656   5.331  11.446 -0.6054  0.7123  0.2445
42641SOL    HW133243   8.653   5.398  11.515  1.3945 -0.4911  1.5987
42641SOL    HW233244   8.649   5.248  11.492  0.6716 -0.1325 -0.9797
42642SOL     OW33245   1.625  10.983  11.452  0.5456  0.2732 -0.1941
42642SOL    HW133246   1.556  10.988  11.386  0.0263 -0.2539  0.2944
42642SOL    HW233247   1.587  11.021  11.531  1.8848  2.9208 -0.7226
42643SOL     OW33248   7.739   9.170   0.850 -0.2719  0.1081  0.3092
42643SOL    HW133249   7.818   9.185   0.799  0.3347 -0.7224  0.9760
42643SOL    HW233250   7.671   9.220   0.805  0.6830  1.0347 -0.1250
42644SOL     OW33251   8.406   5.230  10.566 -0.2221  0.4046  0.1893
42644SOL    HW133252   8.455   5.195  10.641 -0.2366  0.9324  0.4491
42644SOL    HW233253   8.463   5.214  10.491  0.4253  1.1595  0.5098
42645SOL     OW33254   8.706   6.941   7.818  0.2634  0.9301 -0.5246
42645SOL    HW133255   8.740   7.026   7.788 -0.4922  1.5023  0.2107
42645SOL    HW233256   8.720   6.941   7.912 -1.2699  0.9631 -0.2728
42646SOL     OW33257  11.159   1.061   5.731  0.4717  0.2181  0.1482
42646SOL    HW133258  11.105   0.982   5.742 -0.7264  1.1674  1.3865
42646SOL    HW233259  11.122   1.105   5.654  1.4310 -0.6060 -0.8260
42647SOL     OW33260   4.576  10.766   4.287  0.3260 -0.6050  0.1720
42647SOL    HW133261   4.579  10.814   4.204  2.1862 -1.5865 -0.4039
42647SOL    HW233262   4.525  10.821   4.346 -2.2863 -0.5107 -1.9914
42648SOL     OW33263   7.559   0.909   4.158 -0.5242  0.0763  0.5137
42648SOL    HW133264   7.529   0.877   4.243  0.5186  0.6008  1.1052
42648SOL    HW233265   7.637   0.960   4.179 -0.6482  0.7855 -0.6919
42649SOL     OW33266  10.506   6.208   7.030 -0.3872 -0.9751 -0.4566
42649SOL    HW133267  10.481   6.285   7.082 -0.8600 -0.0975 -1.8976
42649SOL    HW233268  10.576   6.166   7.080 -0.3267  0.2370  0.5204
42650SOL     OW33269   2.075   1.944  10.557 -0.3046 -0.2091 -0.4136
42650SOL    HW133270   2.032   1.989  10.629 -1.2381  0.0469 -1.1185
42650SOL    HW233271   2.138   1.885  10.599 -0.6912  0.0913  0.5913
42651SOL     OW33272  10.338   7.707   2.369 -0.3106 -0.0844  0.1569
42651SOL    HW133273  10.389   7.670   2.442 -0.1111 -0.3704 -0.1236
42651SOL    HW233274  10.308   7.630   2.320  3.0076  0.0630 -2.4516
42652SOL     OW33275   0.709   9.425   3.211  0.3931  0.0032 -0.6779
42652SOL    HW133276   0.648   9.472   3.155 -0.7084  0.4613  0.8450
42652SOL    HW233277   0.722   9.341   3.167 -0.3739  0.3813 -1.6558
42653SOL     OW33278   7.600   9.883   3.275  0.3747 -0.3052  0.2512
42653SOL    HW133279   7.539   9.875   3.348  1.2633 -2.0066  0.8645
42653SOL    HW233280   7.616   9.977   3.268 -1.2639  0.0558  0.9261
42654SOL     OW33281   7.266  11.702   4.879  0.7811  0.6886 -0.0018
42654SOL    HW133282   7.276  11.631   4.816  1.6570  0.7416  0.0612
42654SOL    HW233283   7.253  11.781   4.826 -1.3158  0.3635 -0.0648
42655SOL     OW33284   9.893   9.602   7.174 -0.1238 -0.0959 -0.2562
42655SOL    HW133285   9.862   9.517   7.204  0.1078 -0.7592 -1.7820
42655SOL    HW233286   9.902   9.592   7.079  1.0981  1.2399 -0.3218
42656SOL     OW33287  11.672   4.644  11.735 -0.2080  0.3901 -0.6773
42656SOL    HW133288  11.639   4.560  11.767  0.4332 -0.3726 -1.9038
42656SOL    HW233289  11.764   4.626  11.715 -0.3529  1.0641 -2.0152
42657SOL     OW33290   4.245   8.935   6.339 -0.1370 -0.1914 -0.2355
42657SOL    HW133291   4.178   9.003   6.332 -2.0096 -1.8957  0.3389
42657SOL    HW233292   4.259   8.907   6.248  0.9351  1.1661 -0.5233
42658SOL     OW33293   6.679  10.837  10.326  0.2026 -0.2021 -0.5421
42658SOL    HW133294   6.770  10.809  10.334 -0.1422 -1.0653  0.6176
42658SOL    HW233295   6.660  10.831  10.233  1.6974  1.2179 -0.9821
42659SOL     OW33296   4.511   4.930   6.240 -0.0725 -0.1464  0.7840
42659SOL    HW133297   4.590   4.941   6.294  0.0973 -2.3812  1.1159
42659SOL    HW233298   4.542   4.944   6.150  0.3700  0.4194  1.0139
42660SOL     OW33299   0.096  11.040   5.289  0.0125 -0.2274 -0.1937
42660SOL    HW133300   0.034  11.067   5.357  0.0072  1.8680 -0.9494
42660SOL    HW233301   0.042  10.994   5.224 -0.2471 -0.8627  0.4651
42661SOL     OW33302  11.526   0.568   6.482 -0.4252 -0.1160 -0.3272
42661SOL    HW133303  11.491   0.615   6.406  0.4526  2.2172  0.6506
42661SOL    HW233304  11.529   0.633   6.552  0.4031 -1.7617  1.2465
42662SOL     OW33305   8.609   7.558   3.528  0.5698  0.3367  0.3681
42662SOL    HW133306   8.655   7.529   3.607  1.5175  1.6206  0.3188
42662SOL    HW233307   8.679   7.575   3.465 -0.1283  0.1864 -0.4679
42663SOL     OW33308   2.219   4.801   0.537 -0.2745 -0.6332  0.1145
42663SOL    HW133309   2.185   4.881   0.499  1.7955 -0.6718 -2.0315
42663SOL    HW233310   2.157   4.733   0.510 -1.1668 -0.0133  0.5697
42664SOL     OW33311  10.385   9.312   3.719  0.5019 -0.5259 -0.4891
42664SOL    HW133312  10.332   9.244   3.761 -0.9715  0.4289 -0.7086
42664SOL    HW233313  10.440   9.346   3.789 -0.9496  0.1215  0.3933
42665SOL     OW33314   4.559   1.710  11.135  0.6053  0.2645 -0.1046
42665SOL    HW133315   4.602   1.725  11.051 -0.1445  0.1177 -0.5240
42665SOL    HW233316   4.551   1.797  11.174  1.8060  0.2320  0.2523
42666SOL     OW33317  10.616   9.226  11.292  0.1932  0.0455 -0.3037
42666SOL    HW133318  10.593   9.156  11.353  2.1598  1.0724  1.7598
42666SOL    HW233319  10.686   9.189  11.238  1.8475  0.5826  1.3635
42667SOL     OW33320   6.232   6.697   8.631  0.5006  0.5995  0.2551
42667SOL    HW133321   6.153   6.668   8.587  0.4968  0.6451  0.2325
42667SOL    HW233322   6.261   6.773   8.581  0.6773  0.4549  0.1348
42668SOL     OW33323   0.991   3.028   7.494 -0.5556  0.4552 -0.1197
42668SOL    HW133324   1.009   2.940   7.462 -1.2866  0.2199  0.1016
42668SOL    HW233325   0.937   3.068   7.426 -2.8334 -0.3323  1.1185
42669SOL     OW33326   7.769   4.726   1.608 -0.1093 -0.7615 -0.4515
42669SOL    HW133327   7.838   4.791   1.596  0.4151 -1.1564  0.3560
42669SOL    HW233328   7.785   4.689   1.695 -1.1559 -1.0781 -0.3756
42670SOL     OW33329   6.817  11.165   2.238 -0.0433 -0.0353 -0.4503
42670SOL    HW133330   6.880  11.183   2.168  0.0047  0.0723 -0.3804
42670SOL    HW233331   6.732  11.184   2.199  0.0806  1.6254 -0.0009
42671SOL     OW33332   7.830   3.909  11.419  0.2924  0.2525 -0.4005
42671SOL    HW133333   7.828   3.923  11.514 -1.9051  2.2623 -0.6495
42671SOL    HW233334   7.904   3.960  11.388  0.2359  0.6458  0.1068
42672SOL     OW33335   6.853   1.075  10.718 -0.2633  0.6565  0.3996
42672SOL    HW133336   6.876   1.137  10.649  0.7108 -0.0992  0.0202
42672SOL    HW233337   6.927   1.078  10.778 -0.2644 -0.0538  0.4398
42673SOL     OW33338   4.212   9.299   6.328  0.0420  0.6694  0.2970
42673SOL    HW133339   4.235   9.264   6.242 -1.2076 -0.2178  0.2939
42673SOL    HW233340   4.138   9.358   6.310  0.3214  1.1405  0.6664
42674SOL     OW33341   7.224  11.498   5.418 -0.1406  0.3680  0.0994
42674SOL    HW133342   7.246  11.574   5.364  1.5036 -0.5720 -0.6429
42674SOL    HW233343   7.303  11.444   5.416 -1.5966 -1.8852 -0.3150
42675SOL     OW33344   2.777   7.849   0.113  0.4678  0.1868 -0.0994
42675SOL    HW133345   2.765   7.935   0.072  0.8235  0.9699  1.3728
42675SOL    HW233346   2.695   7.833   0.159  1.3538  1.0609  1.9138
42676SOL     OW33347   2.927   4.018  10.819  0.1918 -0.1023  0.1179
42676SOL    HW133348   2.896   4.109  10.820  1.4152  0.3833 -1.4678
42676SOL    HW233349   3.023   4.025  10.824  0.2447 -1.3938  1.5126
42677SOL     OW33350   5.743  11.574   4.675 -0.0445  0.4381  0.4570
42677SOL    HW133351   5.733  11.483   4.647 -1.1596  0.2884  1.2481
42677SOL    HW233352   5.825  11.576   4.723  0.3101  0.0051 -0.1120
42678SOL     OW33353   7.273   3.812   7.263  0.0869 -0.1319  0.0205
42678SOL    HW133354   7.205   3.774   7.209 -0.3732  1.3299 -0.4810
42678SOL    HW233355   7.244   3.902   7.279  1.7188  0.4233  0.0813
42679SOL     OW33356   0.753   9.751  11.173 -0.1100 -0.2899  0.0243
42679SOL    HW133357   0.819   9.681  11.170  0.5807  0.3750 -0.9085
42679SOL    HW233358   0.699   9.729  11.249  1.1461 -0.8953  0.7920
42680SOL     OW33359   1.859   7.633   8.718 -0.1217 -0.6309 -0.5932
42680SOL    HW133360   1.816   7.583   8.649 -1.7903  0.9400 -0.7704
42680SOL    HW233361   1.796   7.635   8.790  0.1681  0.6266 -0.3472
42681SOL     OW33362   7.946   5.256   4.440 -0.2663 -0.7710 -0.0783
42681SOL    HW133363   7.887   5.263   4.365  0.2094 -0.3300 -0.4235
42681SOL    HW233364   8.031   5.283   4.405 -0.7623  3.6087  1.5365
42682SOL     OW33365   0.179   4.729   3.734 -0.6351 -0.1993  0.0518
42682SOL    HW133366   0.104   4.767   3.780 -0.2244  0.3879  0.2476
42682SOL    HW233367   0.250   4.730   3.799 -0.1096  0.4252 -0.5140
42683SOL     OW33368   4.218   6.499   8.251 -0.2815  0.2012 -0.1846
42683SOL    HW133369   4.282   6.437   8.216 -0.9518  0.4209 -1.9332
42683SOL    HW233370   4.194   6.463   8.336  1.3577 -0.4488  0.0368
42684SOL     OW33371   0.158   9.448   5.338  0.4850  0.7652  0.4687
42684SOL    HW133372   0.219   9.392   5.385  0.3654 -0.1530 -0.4380
42684SOL    HW233373   0.105   9.489   5.406 -1.1483 -2.1622  1.1248
42685SOL     OW33374   6.979  11.535   9.660 -0.3113 -0.3748  0.1395
42685SOL    HW133375   6.971  11.447   9.624  0.9659 -0.9328  1.1697
42685SOL    HW233376   7.072  11.556   9.653 -0.7125  1.2811 -0.9197
42686SOL     OW33377   6.080   3.776   1.254 -0.4568  0.1119  0.2802
42686SOL    HW133378   6.048   3.701   1.203 -0.0968  0.2708 -0.1790
42686SOL    HW233379   6.012   3.842   1.243 -2.2429 -1.0588  2.9954
42687SOL     OW33380   6.258   6.811   2.868  0.0895  0.3766  0.0260
42687SOL    HW133381   6.226   6.726   2.837 -1.7735  0.6813  0.9310
42687SOL    HW233382   6.267   6.864   2.789  2.3828 -0.9355 -0.6869
42688SOL     OW33383  10.919   9.497   2.866  0.0302 -0.0273 -0.4330
42688SOL    HW133384  10.944   9.445   2.943  0.2935  0.6948 -0.0165
42688SOL    HW233385  10.827   9.518   2.880 -0.2458 -0.9028 -0.9123
42689SOL     OW33386  11.403   5.031   8.607  0.2442  0.2260 -0.1644
42689SOL    HW133387  11.459   5.001   8.679  0.1013  0.5983  0.1003
42689SOL    HW233388  11.317   4.994   8.628  0.2616  0.1216 -0.2788
42690SOL     OW33389   6.483   2.204   8.646 -0.8505 -0.2997 -0.3933
42690SOL    HW133390   6.402   2.238   8.608  0.3867  0.6824 -2.2818
42690SOL    HW233391   6.533   2.171   8.571 -0.6414 -3.5641  1.0052
42691SOL     OW33392   5.818   8.102  11.274 -0.3086 -0.3590  0.3405
42691SOL    HW133393   5.765   8.023  11.266 -1.1086  0.2422 -0.5474
42691SOL    HW233394   5.810   8.145  11.188 -0.7614  1.2003  1.1227
42692SOL     OW33395   9.889   7.771   1.205 -0.5433 -0.0370  0.5050
42692SOL    HW133396   9.932   7.832   1.264  0.0564  0.8304 -0.8009
42692SOL    HW233397   9.824   7.824   1.159 -0.1071 -0.3887 -0.5479
42693SOL     OW33398   3.649   9.337   4.226 -0.7111 -0.1461  0.0915
42693SOL    HW133399   3.604   9.406   4.276 -0.9618 -0.3530  0.1558
42693SOL    HW233400   3.589   9.319   4.153  0.0134  0.7198 -0.7519
42694SOL     OW33401   4.874   4.770  11.356  0.3040 -0.0601 -0.0159
42694SOL    HW133402   4.802   4.793  11.415 -0.9503 -2.1638 -0.6259
42694SOL    HW233403   4.935   4.721  11.411  1.0621  1.2303  0.3606
42695SOL     OW33404   6.225   7.923   8.791  0.7413  0.5150 -0.1689
42695SOL    HW133405   6.187   7.846   8.833  1.0142  0.2903 -0.3242
42695SOL    HW233406   6.165   7.994   8.812 -1.2435 -0.2898 -2.5511
42696SOL     OW33407   6.360   5.818   7.868 -0.5734  0.4449 -0.2010
42696SOL    HW133408   6.425   5.787   7.806  0.8730 -0.1348  1.5111
42696SOL    HW233409   6.340   5.742   7.922 -1.1427  1.1344  0.5950
42697SOL     OW33410  10.264   4.349   0.912  0.2164  0.4375 -0.2709
42697SOL    HW133411  10.223   4.291   0.848  0.4568  0.1671 -0.1834
42697SOL    HW233412  10.325   4.402   0.861  1.1483 -0.4705 -0.1274
42698SOL     OW33413   4.191   1.002   5.036 -0.0147  0.5882 -0.5013
42698SOL    HW133414   4.246   0.923   5.033 -0.8565 -0.0122 -0.6211
42698SOL    HW233415   4.183   1.022   5.129 -0.4377  0.0453 -0.4077
42699SOL     OW33416   6.002  11.402   6.944 -0.2571 -0.5045  0.0028
42699SOL    HW133417   6.034  11.481   6.900 -0.7381 -0.0568  0.4584
42699SOL    HW233418   6.059  11.393   7.020 -1.7133  0.8018  1.3225
42700SOL     OW33419   1.583   5.324  11.509  0.3994  0.1144 -0.3206
42700SOL    HW133420   1.505   5.372  11.482  0.5757  0.3600 -0.3992
42700SOL    HW233421   1.594   5.256  11.443  0.1513 -0.0310 -0.2103
42701SOL     OW33422   7.221   9.599   4.037 -0.6961 -0.4373  0.4302
42701SOL    HW133423   7.151   9.536   4.021  0.0214 -1.1080 -0.1228
42701SOL    HW233424   7.294   9.570   3.982 -0.5123  1.1624 -0.2407
42702SOL     OW33425   0.158  11.276  11.177  0.5561  0.2381  0.5291
42702SOL    HW133426   0.102  11.198  11.170  0.9707 -0.1244  1.1552
42702SOL    HW233427   0.179  11.298  11.087 -0.2620  0.1360  0.3030
42703SOL     OW33428   4.799   8.675   5.038  0.0869 -0.6118 -0.3020
42703SOL    HW133429   4.747   8.641   4.964 -1.2178  0.7669 -0.0711
42703SOL    HW233430   4.797   8.604   5.102  0.3193 -1.4143 -1.1547
42704SOL     OW33431   9.251   3.274   8.317 -0.2272 -0.0121  0.7019
42704SOL    HW133432   9.318   3.332   8.353 -0.9855  0.0557  2.0516
42704SOL    HW233433   9.251   3.199   8.375 -0.4172 -0.6213 -0.0683
42705SOL     OW33434   4.875   6.085   4.008 -0.3514  0.0230  0.1099
42705SOL    HW133435   4.921   6.150   3.957  0.1463 -0.0995  0.3958
42705SOL    HW233436   4.790   6.075   3.964 -0.3902  0.7734  0.0004
42706SOL     OW33437  11.650  11.040   0.546  0.2227 -0.8657  0.2331
42706SOL    HW133438  11.654  10.954   0.504  0.5004 -1.7722  2.0339
42706SOL    HW233439  11.717  11.036   0.615 -0.6826  0.3161  1.2196
42707SOL     OW33440   2.340   3.818  11.654 -0.3950  0.4568  0.3485
42707SOL    HW133441   2.415   3.803  11.712 -0.4999  0.5904  0.5239
42707SOL    HW233442   2.289   3.737  11.659  0.8141 -0.4639 -1.4250
42708SOL     OW33443   0.344   4.514   6.642  0.1424  0.3630  0.0588
42708SOL    HW133444   0.311   4.428   6.669  0.0285  0.0106 -1.1165
42708SOL    HW233445   0.436   4.513   6.666  0.3869 -0.5019 -0.8449
42709SOL     OW33446   9.939   7.265  10.870  0.3889  0.7177 -0.2523
42709SOL    HW133447   9.998   7.258  10.794  0.2051  1.0659 -0.4323
42709SOL    HW233448   9.909   7.356  10.868 -0.9111  0.2963 -0.7313
42710SOL     OW33449   3.701  11.232   4.658  0.1023 -0.3829 -0.0423
42710SOL    HW133450   3.618  11.266   4.623  1.1734  1.6855 -0.7253
42710SOL    HW233451   3.683  11.140   4.676 -2.1231 -0.1778 -0.8761
42711SOL     OW33452   3.470   3.838   2.507  0.1319 -0.3416  0.0270
42711SOL    HW133453   3.500   3.867   2.421  1.3192 -2.3763 -0.3046
42711SOL    HW233454   3.428   3.915   2.545  2.4949  1.5991 -1.0315
42712SOL     OW33455   9.990   7.406  11.771  0.1748  0.5166  0.6032
42712SOL    HW133456   9.986   7.328  11.715  1.1368  0.8864 -0.0110
42712SOL    HW233457   9.898   7.433  11.781 -0.0138  0.6260 -1.0954
42713SOL     OW33458   1.239   9.101   6.516 -0.2687 -0.5760 -0.4405
42713SOL    HW133459   1.147   9.097   6.491 -0.3239  0.6651 -0.4622
42713SOL    HW233460   1.253   9.191   6.545  0.7930 -0.9054  0.1417
42714SOL     OW33461   4.756  11.230   6.923  0.5568 -0.0127  0.0364
42714SOL    HW133462   4.803  11.267   6.998  0.8150 -1.7038  0.7403
42714SOL    HW233463   4.754  11.136   6.939  1.3020 -0.5362 -2.4664
42715SOL     OW33464   0.251   4.027   9.598  0.3665  0.3905 -0.1597
42715SOL    HW133465   0.344   4.029   9.575  0.3831  1.6622 -0.0866
42715SOL    HW233466   0.209   3.985   9.523  0.9777 -0.0685 -0.2564
42716SOL     OW33467   8.736   9.838   7.460  0.1985 -0.4151 -0.3011
42716SOL    HW133468   8.804   9.803   7.517  0.3603 -0.3833 -0.4742
42716SOL    HW233469   8.677   9.884   7.520 -0.9821 -2.4163  0.1743
42717SOL     OW33470  10.706   8.501   3.300  0.5186  0.6310  0.0986
42717SOL    HW133471  10.757   8.536   3.226 -0.0901  0.1230 -0.5798
42717SOL    HW233472  10.769   8.495   3.372  0.8696  2.1801 -0.0448
42718SOL     OW33473  10.840   3.078   9.027 -0.3274 -0.1933  0.2874
42718SOL    HW133474  10.909   3.104   9.087 -0.2157  0.3101 -0.0556
42718SOL    HW233475  10.878   3.090   8.940 -0.8076 -0.0183  0.0976
42719SOL     OW33476   9.380   6.434  11.228 -0.5262  0.0984 -0.6264
42719SOL    HW133477   9.356   6.431  11.136 -1.8863 -0.2894 -0.2912
42719SOL    HW233478   9.322   6.501  11.265 -3.5066 -2.9764  0.8221
42720SOL     OW33479   6.043   8.856   6.377  0.5378 -0.1247 -0.6084
42720SOL    HW133480   5.954   8.847   6.344  0.0497  0.7556  0.3977
42720SOL    HW233481   6.063   8.949   6.366  0.8919 -0.0920  0.2403
42721SOL     OW33482   7.220  10.211   5.171 -0.0404 -0.0942  0.5505
42721SOL    HW133483   7.244  10.269   5.099 -1.1532  0.2511  0.4349
42721SOL    HW233484   7.138  10.171   5.143 -0.2578 -0.2876  1.4327
42722SOL     OW33485   9.791   6.713   6.836 -0.0202 -0.0351  0.4739
42722SOL    HW133486   9.790   6.654   6.760  0.3895  1.0672 -0.4121
42722SOL    HW233487   9.870   6.766   6.824 -1.7601  2.6050 -0.3051
42723SOL     OW33488   7.097   6.636   3.924  0.0400 -0.7140 -0.1044
42723SOL    HW133489   7.075   6.665   3.835 -1.3592  0.2059  0.5171
42723SOL    HW233490   7.025   6.667   3.978  2.1615  1.2490  1.8377
42724SOL     OW33491   6.943   0.112   2.961 -0.4245 -0.2673  0.7063
42724SOL    HW133492   6.995   0.150   2.891 -1.3474 -0.7001 -0.2400
42724SOL    HW233493   6.859   0.157   2.956 -0.2183  0.3364  2.1342
42725SOL     OW33494   3.764   2.313   7.372  0.4348  0.5886 -0.6126
42725SOL    HW133495   3.774   2.238   7.313  1.8826 -0.5244  0.9249
42725SOL    HW233496   3.677   2.301   7.410  0.8309 -0.6324 -0.0293
42726SOL     OW33497   5.982   8.194   7.159  0.5474 -0.3431 -0.3168
42726SOL    HW133498   5.896   8.155   7.145  0.4801 -1.3584  2.4374
42726SOL    HW233499   5.963   8.283   7.189  0.5713  0.1937 -1.8068
42727SOL     OW33500   0.958   9.114  11.278  0.5554  0.1469 -0.0915
42727SOL    HW133501   1.048   9.142  11.293  1.2513 -1.8460 -0.1759
42727SOL    HW233502   0.966   9.041  11.216 -0.6067 -3.0100  3.1388
42728SOL     OW33503   0.622   2.992   0.642 -0.2539 -0.2109  0.1795
42728SOL    HW133504   0.669   2.940   0.706 -1.1448 -0.7325  0.4301
42728SOL    HW233505   0.531   2.992   0.673  0.0844  3.9804  1.8956
42729SOL     OW33506   0.828   2.639   0.203  0.3556 -0.2318  0.2306
42729SOL    HW133507   0.831   2.549   0.236  0.5344 -0.4655 -0.4038
42729SOL    HW233508   0.835   2.693   0.281 -0.5938 -0.7622  0.7004
42730SOL     OW33509   8.247   7.799  10.041  0.2903  0.8171 -0.0084
42730SOL    HW133510   8.157   7.786  10.009 -0.0005  1.5841  0.4820
42730SOL    HW233511   8.247   7.762  10.129  0.4338  0.8955  0.0251
42731SOL     OW33512   1.005   8.548   8.936  0.0855 -0.1259  0.1624
42731SOL    HW133513   0.974   8.510   8.854  0.7399  1.3413 -0.8035
42731SOL    HW233514   0.930   8.595   8.971  0.2292  0.5625 -0.4246
42732SOL     OW33515   4.263   0.564   6.436 -0.2653 -0.1425  0.6928
42732SOL    HW133516   4.217   0.509   6.372  0.6762 -0.5280  0.3213
42732SOL    HW233517   4.248   0.521   6.520 -1.4884  0.3509  0.7488
42733SOL     OW33518   4.703   6.597   4.993  0.3271 -0.1864  0.5309
42733SOL    HW133519   4.763   6.626   4.924  0.5733  0.1577  0.8882
42733SOL    HW233520   4.740   6.514   5.024  0.7474  0.1444  0.9122
42734SOL     OW33521   1.037   9.116   1.414  0.0541 -0.0774  0.6901
42734SOL    HW133522   1.041   9.024   1.442  0.3209 -0.2599  0.0470
42734SOL    HW233523   1.114   9.128   1.359  0.6898  0.8714  1.7555
42735SOL     OW33524  10.369   4.577   0.248  0.2535 -0.2941  0.2876
42735SOL    HW133525  10.428   4.554   0.320 -0.6632 -1.2358  0.7472
42735SOL    HW233526  10.296   4.517   0.256 -1.0228  1.1618  0.0074
42736SOL     OW33527   1.864   2.183   8.407  0.1583 -0.0146  0.1240
42736SOL    HW133528   1.959   2.188   8.416  0.1039  1.9673  0.1625
42736SOL    HW233529   1.830   2.220   8.489 -0.6327  0.0124 -0.2080
42737SOL     OW33530   4.804   8.415   0.306  0.4135 -0.7779 -0.2972
42737SOL    HW133531   4.739   8.367   0.358 -1.0098 -0.5642 -1.7973
42737SOL    HW233532   4.780   8.507   0.319  0.5208 -0.6891 -0.7245
42738SOL     OW33533   0.394   2.139   7.659 -0.5354 -0.7382  0.1802
42738SOL    HW133534   0.367   2.186   7.738 -2.0065 -0.3563 -0.5030
42738SOL    HW233535   0.348   2.055   7.665 -0.0808 -0.9922  0.0829
42739SOL     OW33536   1.607   1.364   7.847 -0.2540 -0.2581 -0.2174
42739SOL    HW133537   1.664   1.361   7.770  0.6022 -1.5465  0.4450
42739SOL    HW233538   1.576   1.274   7.858  1.1147 -0.5284  1.9977
42740SOL     OW33539   6.682   9.427   4.213  0.1393  0.2297  0.3505
42740SOL    HW133540   6.702   9.440   4.120  1.5629  4.0667  1.0371
42740SOL    HW233541   6.747   9.363   4.243  1.3359  0.8941 -0.7581
42741SOL     OW33542  10.714   5.952   9.402 -0.2520 -0.1074  0.5284
42741SOL    HW133543  10.776   5.958   9.474  0.1346 -1.0557  0.2786
42741SOL    HW233544  10.648   5.890   9.432 -1.0484  0.8152  0.7498
42742SOL     OW33545   2.424   9.555   9.861  0.1949  1.0503  0.2806
42742SOL    HW133546   2.514   9.559   9.894  0.6803  0.8172 -0.9355
42742SOL    HW233547   2.422   9.621   9.791  0.0933 -0.3931 -1.1554
42743SOL     OW33548   8.039   8.664   2.702  0.2504 -0.3794 -0.0470
42743SOL    HW133549   7.993   8.622   2.629 -0.6376 -1.8566  1.3063
42743SOL    HW233550   8.128   8.677   2.670 -0.1095 -0.9913 -1.3908
42744SOL     OW33551   7.516   4.197   1.774 -0.1119  0.1385  0.0243
42744SOL    HW133552   7.558   4.256   1.837  0.0110  1.1747 -0.9926
42744SOL    HW233553   7.422   4.207   1.790 -0.0628 -1.8384  1.9957
42745SOL     OW33554  10.126   0.667   9.291 -0.3827 -0.7567 -0.2234
42745SOL    HW133555  10.198   0.720   9.325 -1.0028 -0.1454  0.1863
42745SOL    HW233556  10.053   0.685   9.350 -1.2424 -0.3580 -1.3526
42746SOL     OW33557   1.330   4.447   9.475 -0.1891 -0.8162 -0.0854
42746SOL    HW133558   1.333   4.466   9.381  0.0745  1.1191  0.2595
42746SOL    HW233559   1.244   4.407   9.488  0.0504 -1.7756 -1.2428
42747SOL     OW33560   3.552  10.261   4.482  0.0763 -0.4292  0.3495
42747SOL    HW133561   3.476  10.318   4.469 -1.0155 -0.7585  3.9946
42747SOL    HW233562   3.622  10.319   4.511 -0.3558 -0.6066  1.8418
42748SOL     OW33563   5.108  11.436   3.572  0.1434  0.2545 -0.1182
42748SOL    HW133564   5.138  11.508   3.516 -0.4558  0.7733  0.2173
42748SOL    HW233565   5.026  11.408   3.531  1.4828 -1.7916 -1.5976
42749SOL     OW33566  11.739  10.975   9.678  0.3209 -0.3369  0.0015
42749SOL    HW133567  11.706  10.903   9.624 -0.8865  1.3719 -1.6672
42749SOL    HW233568  11.661  11.027   9.699  1.4231  1.8789 -1.0434
42750SOL     OW33569   6.345   7.517   3.315 -0.1860  0.5483 -0.2859
42750SOL    HW133570   6.363   7.424   3.300 -0.1454  0.6288 -0.7724
42750SOL    HW233571   6.356   7.529   3.409 -1.1326 -0.1402 -0.0728
42751SOL     OW33572   1.089  11.567   4.302 -0.1222 -0.3834  0.1253
42751SOL    HW133573   1.079  11.660   4.283 -2.3041 -0.6846 -0.4947
42751SOL    HW233574   1.049  11.523   4.228  0.6172 -1.8343  0.5436
42752SOL     OW33575   8.525   0.789   3.058  0.0318 -0.2445 -0.2577
42752SOL    HW133576   8.452   0.806   3.118  1.3311  0.5454  1.1770
42752SOL    HW233577   8.564   0.708   3.091  0.2162 -0.2837 -0.5716
42753SOL     OW33578  11.765   8.862   7.219 -0.2206 -0.3413  0.5142
42753SOL    HW133579  11.823   8.910   7.279  2.4835 -1.9566 -0.6385
42753SOL    HW233580  11.733   8.788   7.270 -0.0216 -0.2775  0.7328
42754SOL     OW33581  11.101   2.301   3.133 -0.3543 -0.1179  0.1984
42754SOL    HW133582  11.080   2.330   3.222 -0.3955  1.2104 -0.2210
42754SOL    HW233583  11.077   2.209   3.132 -1.4273  0.1194  1.2400
42755SOL     OW33584   3.200   6.302   0.443  0.1792  0.0491  0.8215
42755SOL    HW133585   3.139   6.235   0.474  2.8134 -2.9188  0.1076
42755SOL    HW233586   3.274   6.298   0.504  0.6819  1.9472  0.4156
42756SOL     OW33587   4.285   5.002   1.254  0.1338  0.3740 -0.2879
42756SOL    HW133588   4.334   5.078   1.285 -0.9807  0.2610  1.8700
42756SOL    HW233589   4.195   5.018   1.280 -0.0223 -1.9916  0.8885
42757SOL     OW33590   2.206   8.559   8.556  0.4644  0.0908 -0.1000
42757SOL    HW133591   2.136   8.498   8.533  0.1693  0.4049 -0.0414
42757SOL    HW233592   2.287   8.513   8.531  0.2419 -0.2831 -0.1442
42758SOL     OW33593  11.766   4.847   0.814 -0.1036  0.7195  0.4052
42758SOL    HW133594  11.820   4.817   0.888 -0.9582 -1.9857  0.0427
42758SOL    HW233595  11.678   4.814   0.833 -0.9993  2.4869 -0.4557
42759SOL     OW33596   8.949   2.752   0.299  0.3267  0.4000 -0.1758
42759SOL    HW133597   9.015   2.708   0.353  0.6330  0.4384 -0.5145
42759SOL    HW233598   8.913   2.682   0.245 -0.5229  0.2159  0.6065
42760SOL     OW33599   2.981   3.722   7.851 -0.9579 -0.2172 -0.6363
42760SOL    HW133600   2.909   3.736   7.913  0.6373  2.2446  0.8144
42760SOL    HW233601   2.983   3.802   7.798  0.3888 -0.4568 -0.9906
42761SOL     OW33602   9.786   8.514   0.393 -0.5685 -0.3708 -0.6059
42761SOL    HW133603   9.729   8.509   0.316 -0.6088 -1.2419 -0.5356
42761SOL    HW233604   9.863   8.461   0.369 -0.6609 -0.8024  0.0066
42762SOL     OW33605  11.174   5.063   2.576 -0.0357  0.5239 -0.0802
42762SOL    HW133606  11.143   5.058   2.485  1.9638  0.4063 -0.8139
42762SOL    HW233607  11.197   5.155   2.589  0.7796  0.3336 -0.1088
42763SOL     OW33608  10.542   2.466   6.859  0.3053  0.3187  0.4223
42763SOL    HW133609  10.514   2.444   6.771 -0.0932  3.3261 -0.3148
42763SOL    HW233610  10.637   2.455   6.858  0.2777  0.1462 -0.3136
42764SOL     OW33611   6.794   2.542   8.925  0.4739  0.6005 -0.1745
42764SOL    HW133612   6.812   2.617   8.982 -0.5976  1.2005 -0.5784
42764SOL    HW233613   6.745   2.481   8.980  1.4564  0.1312  0.1904
42765SOL     OW33614   5.564   3.204   3.010  0.5934  0.3119  0.0944
42765SOL    HW133615   5.560   3.182   3.103  0.3643 -0.2538 -0.0432
42765SOL    HW233616   5.636   3.266   3.003 -0.6361  1.9076  0.9501
42766SOL     OW33617   4.139   6.305   3.270 -0.3360 -0.1759 -0.0149
42766SOL    HW133618   4.087   6.384   3.263 -0.6439 -0.3277  0.5446
42766SOL    HW233619   4.196   6.320   3.345  1.8011  0.7781 -1.7197
42767SOL     OW33620  10.315   7.383   1.091  0.1416 -0.1224  0.1234
42767SOL    HW133621  10.281   7.472   1.075 -2.3736 -1.2589 -1.4232
42767SOL    HW233622  10.349   7.356   1.006  0.7143 -0.7482  0.5455
42768SOL     OW33623   0.279   0.131  10.535 -0.6235  0.3245 -0.5593
42768SOL    HW133624   0.207   0.111  10.475 -1.1966  1.7002 -0.3873
42768SOL    HW233625   0.312   0.216  10.505  0.9341 -0.2679 -0.6127
42769SOL     OW33626   3.415   5.199   4.793  0.2003  0.1861 -0.4310
42769SOL    HW133627   3.483   5.264   4.812 -0.2666  1.5286 -2.9488
42769SOL    HW233628   3.441   5.161   4.709 -0.1286 -2.1864  0.4633
42770SOL     OW33629  11.772   2.117   8.655  0.3637  0.4509  0.4816
42770SOL    HW133630  11.839   2.086   8.594 -1.3952 -1.3638 -0.6715
42770SOL    HW233631  11.756   2.207   8.628  1.6797  0.6224  0.1972
42771SOL     OW33632   7.743   9.761   8.312 -0.5635  0.4886 -0.5958
42771SOL    HW133633   7.814   9.697   8.320 -0.7413  0.4221  0.7036
42771SOL    HW233634   7.731   9.772   8.218  1.4441  0.8197 -0.8537
42772SOL     OW33635   2.355  10.906   6.540  0.6789 -0.7800  0.4962
42772SOL    HW133636   2.337  10.977   6.478 -2.4906  0.9757  3.1296
42772SOL    HW233637   2.409  10.947   6.608  1.0867 -1.6700  0.7253
42773SOL     OW33638   3.751  10.284   6.142 -0.2643 -0.3141  0.6214
42773SOL    HW133639   3.702  10.226   6.201 -0.8302 -1.1717 -0.6460
42773SOL    HW233640   3.760  10.234   6.061 -0.6179  1.3051 -0.4697
42774SOL     OW33641   6.477   0.652   6.682  0.0713  0.4343 -0.1779
42774SOL    HW133642   6.428   0.571   6.665  1.1172 -0.6001  1.4603
42774SOL    HW233643   6.410   0.720   6.682 -0.9061 -0.4802 -1.1450
42775SOL     OW33644   0.873  10.220   3.765  0.3876 -0.2264 -0.0762
42775SOL    HW133645   0.826  10.212   3.682  0.1454  0.3712 -0.0014
42775SOL    HW233646   0.871  10.132   3.803  0.4093 -0.4804 -0.6520
42776SOL     OW33647   9.022  10.843   7.039  0.0866 -0.4136  0.4229
42776SOL    HW133648   9.114  10.828   7.062  0.0555 -0.5946  0.4245
42776SOL    HW233649   8.978  10.857   7.122  0.3290  0.8868  0.3682
42777SOL     OW33650   3.219   4.158   8.365 -0.2358 -0.2036 -0.6506
42777SOL    HW133651   3.178   4.227   8.418  0.3969  0.0992 -0.5470
42777SOL    HW233652   3.194   4.077   8.409  0.6200  0.0617  0.3756
42778SOL     OW33653  11.468   2.464   2.546  0.3082 -0.1256 -0.1408
42778SOL    HW133654  11.546   2.484   2.495  0.7016 -2.2247 -0.4592
42778SOL    HW233655  11.427   2.390   2.501 -0.5358 -0.6362  1.3692
42779SOL     OW33656   5.087   5.074   4.067 -0.3051 -0.3217 -0.2495
42779SOL    HW133657   5.075   5.045   3.976  2.6191 -0.8007 -0.5740
42779SOL    HW233658   5.091   4.992   4.117  1.8913 -0.3053 -0.3026
42780SOL     OW33659   1.122   8.431   7.232  0.4461 -0.0051 -0.7365
42780SOL    HW133660   1.123   8.443   7.137  0.4624  0.0673 -0.7270
42780SOL    HW233661   1.088   8.343   7.245  0.0699  0.1308 -0.7956
42781SOL     OW33662   7.767   1.158   7.458  0.0590  0.0717 -0.2703
42781SOL    HW133663   7.754   1.077   7.506 -1.9097  1.5095  1.8247
42781SOL    HW233664   7.860   1.179   7.471  0.9771 -2.4215 -2.0172
42782SOL     OW33665   1.303   7.894  11.207 -0.6388 -0.0604  0.8027
42782SOL    HW133666   1.212   7.878  11.232 -0.4063 -0.8772  1.1937
42782SOL    HW233667   1.298   7.948  11.129 -1.4407  0.6107  1.3069
42783SOL     OW33668   6.765  10.242  10.097 -0.5019  0.1394 -0.0543
42783SOL    HW133669   6.841  10.253  10.040 -0.1300 -1.5625  0.0582
42783SOL    HW233670   6.730  10.330  10.108  1.3821  0.9519 -0.1982
42784SOL     OW33671   0.490   2.973   2.748 -1.1841 -1.0163 -0.2761
42784SOL    HW133672   0.452   3.049   2.703 -0.8493 -0.5079  0.2729
42784SOL    HW233673   0.449   2.974   2.835 -0.0893 -0.5729  0.2621
42785SOL     OW33674  11.295   8.465  10.901  0.4205 -0.0936 -0.5222
42785SOL    HW133675  11.260   8.470  10.812  2.4678 -1.0822 -1.4579
42785SOL    HW233676  11.258   8.384  10.937 -0.6221  0.4447 -0.3388
42786SOL     OW33677   7.700   7.781   6.035 -0.7781  0.1947 -0.0093
42786SOL    HW133678   7.652   7.753   5.957 -0.1311 -0.0773 -0.3147
42786SOL    HW233679   7.764   7.712   6.051 -0.4802  0.5530  0.3907
42787SOL     OW33680   5.558  11.663  10.017 -0.2974 -0.1001 -0.0786
42787SOL    HW133681   5.536  11.700  10.103 -0.3658  0.8567 -0.4910
42787SOL    HW233682   5.648  11.690  10.002  0.4433 -2.0563  0.5941
42788SOL     OW33683   3.548  10.480   6.118 -0.2865  0.2675 -0.0532
42788SOL    HW133684   3.499  10.397   6.111 -1.7060  1.1307 -0.8559
42788SOL    HW233685   3.621  10.469   6.058 -1.0540 -0.0357 -0.9617
42789SOL     OW33686   0.396   6.472   4.901  0.6440 -0.4585 -0.2742
42789SOL    HW133687   0.468   6.509   4.850 -0.7659  1.0863 -1.2182
42789SOL    HW233688   0.380   6.387   4.860  1.5107 -0.5631 -0.4321
42790SOL     OW33689   7.193   2.199   6.460 -0.6782 -0.0410  0.3791
42790SOL    HW133690   7.191   2.260   6.386  1.5671  0.8867  0.9807
42790SOL    HW233691   7.112   2.215   6.508  0.0678  2.9201  0.8041
42791SOL     OW33692   9.026   3.000   6.401 -0.4466 -0.0710  0.5314
42791SOL    HW133693   9.082   3.077   6.411 -0.1599 -0.0798 -0.8199
42791SOL    HW233694   8.937   3.033   6.416 -0.2560  0.3517  0.7622
42792SOL     OW33695  11.488  11.097   9.147 -0.2341 -0.5198  0.2092
42792SOL    HW133696  11.503  11.099   9.242  0.7382  1.1360  0.0524
42792SOL    HW233697  11.440  11.178   9.129  1.9217  0.5754 -1.0389
42793SOL     OW33698   2.762   8.609   4.983 -0.3202  0.1223  0.2582
42793SOL    HW133699   2.832   8.647   5.036  0.8366 -2.5063  0.7469
42793SOL    HW233700   2.690   8.671   4.992  2.0967  3.4066 -0.9328
42794SOL     OW33701   7.966   3.023   0.631 -0.1878  0.0611  0.7770
42794SOL    HW133702   7.934   2.958   0.694 -1.1338 -0.7246 -0.4887
42794SOL    HW233703   8.022   2.973   0.572 -0.5567  0.4884  0.0631
42795SOL     OW33704   6.554   2.016   2.722  0.3750  0.1027 -0.2127
42795SOL    HW133705   6.530   1.927   2.747 -0.0424  0.3512  0.2970
42795SOL    HW233706   6.592   2.054   2.801  1.0143  0.2222 -0.5700
42796SOL     OW33707   6.454   7.196   0.217  0.2065  0.6373  0.1267
42796SOL    HW133708   6.489   7.194   0.129  0.3450  1.3637  0.1592
42796SOL    HW233709   6.385   7.130   0.217 -0.3608  1.2058 -0.7720
42797SOL     OW33710   4.681   4.038   2.377  0.2792  0.1011  0.0737
42797SOL    HW133711   4.611   4.069   2.320 -0.2538 -0.9823  0.0945
42797SOL    HW233712   4.652   4.061   2.465 -0.1162 -0.4326  0.0899
42798SOL     OW33713  10.609   5.527   8.572 -0.4456  0.4392  0.0569
42798SOL    HW133714  10.650   5.441   8.583 -0.9466  0.2441  0.4401
42798SOL    HW233715  10.542   5.514   8.505 -0.5378  0.5211  0.1307
42799SOL     OW33716   7.128   3.879   9.730 -0.1575 -0.0596 -0.0968
42799SOL    HW133717   7.218   3.868   9.700 -0.3997 -0.7615 -0.6001
42799SOL    HW233718   7.084   3.927   9.660 -0.7328 -1.7379 -0.9505
42800SOL     OW33719   0.209   0.236   6.470  0.2814 -0.3621  0.1725
42800SOL    HW133720   0.125   0.196   6.494 -0.4875  1.0540 -0.0704
42800SOL    HW233721   0.205   0.324   6.508  0.5552  0.6618 -2.0221
42801SOL     OW33722   6.398   5.761   9.085  0.3000 -0.2791 -0.3388
42801SOL    HW133723   6.350   5.755   9.168 -1.8641 -2.5372 -1.6342
42801SOL    HW233724   6.410   5.671   9.057  1.3735  0.4160 -2.2978
42802SOL     OW33725  10.737   1.448   9.787 -0.2479 -0.3867  0.0024
42802SOL    HW133726  10.679   1.447   9.711 -0.6414  0.6670  0.2786
42802SOL    HW233727  10.808   1.507   9.762 -1.8746  2.4079  1.4923
42803SOL     OW33728   8.944   7.199   0.650  0.3640 -0.0586 -0.2720
42803SOL    HW133729   8.973   7.111   0.673  0.4043 -0.4701 -1.7592
42803SOL    HW233730   8.856   7.186   0.612 -0.3000  0.7423  0.9312
42804SOL     OW33731  10.139   0.101   5.734  0.5275 -1.0371  0.2602
42804SOL    HW133732  10.091   0.078   5.654  2.1547  1.5453 -1.6123
42804SOL    HW233733  10.080   0.161   5.780  0.0901 -1.5579  0.3908
42805SOL     OW33734   1.047   2.223   2.782 -0.2626  0.1082 -0.2096
42805SOL    HW133735   1.109   2.268   2.724 -0.3327  1.6480  0.8452
42805SOL    HW233736   0.994   2.293   2.819 -0.1316 -0.7912  1.8137
42806SOL     OW33737  11.185   5.248  10.439  0.0515  0.0851  0.1776
42806SOL    HW133738  11.275   5.279  10.439 -0.0340  0.4970  2.3913
42806SOL    HW233739  11.146   5.287  10.362  1.5734  0.4796 -0.4255
42807SOL     OW33740   8.707   0.891  10.197 -0.1297 -0.6529  0.4305
42807SOL    HW133741   8.668   0.810  10.165  2.4005 -1.8672  0.1984
42807SOL    HW233742   8.704   0.883  10.293  1.3493 -1.7311  0.4212
42808SOL     OW33743   9.707   7.724  11.538 -0.4268  0.1554 -0.5526
42808SOL    HW133744   9.761   7.797  11.508 -0.0550  0.2128  0.2183
42808SOL    HW233745   9.751   7.646  11.504  0.9265  0.1141  1.1403
42809SOL     OW33746   8.748   6.973  10.940 -0.0471 -0.6973 -0.4678
42809SOL    HW133747   8.705   7.057  10.921  0.1763 -0.6238 -0.6567
42809SOL    HW233748   8.749   6.927  10.857  2.1329  0.1751 -0.9985
42810SOL     OW33749   3.787  11.396   2.666 -0.4175  0.0628  0.2056
42810SOL    HW133750   3.849  11.405   2.594 -0.0063 -2.3108  0.2153
42810SOL    HW233751   3.824  11.451   2.735  1.2492 -0.6399 -0.0776
42811SOL     OW33752   5.317  10.220   7.475 -0.0659  0.2100 -0.2684
42811SOL    HW133753   5.343  10.259   7.391 -0.3561  0.2362 -0.3496
42811SOL    HW233754   5.319  10.125   7.459 -0.3375  0.2193 -0.3775
42812SOL     OW33755   3.730   1.574  11.664 -0.6107  0.0978  0.2109
42812SOL    HW133756   3.705   1.490  11.625 -0.7417 -0.0661  0.6357
42812SOL    HW233757   3.666   1.637  11.630 -0.5918  0.0022 -0.0043
42813SOL     OW33758   6.409   1.816  11.062 -0.4979 -0.5206  0.3544
42813SOL    HW133759   6.422   1.902  11.022  0.7672 -0.7301  0.2644
42813SOL    HW233760   6.357   1.833  11.140 -0.6950  0.2593  0.0614
42814SOL     OW33761   6.538  10.980   5.902  0.8287  0.1284 -0.3202
42814SOL    HW133762   6.455  10.974   5.854 -0.0724 -2.1402  1.3633
42814SOL    HW233763   6.527  11.056   5.959  0.6350  0.8633 -1.2935
42815SOL     OW33764  10.870   6.381  11.574 -0.5899 -0.1700  0.4571
42815SOL    HW133765  10.884   6.459  11.520 -1.0172  0.1174  0.7556
42815SOL    HW233766  10.897   6.408  11.662  1.6325 -1.1100  0.1487
42816SOL     OW33767   3.076   4.384   8.762 -0.5134 -0.5917 -0.2137
42816SOL    HW133768   2.989   4.369   8.798 -0.2885 -1.7793 -0.1210
42816SOL    HW233769   3.075   4.341   8.677 -0.7657  1.4676 -1.2985
42817SOL     OW33770   8.370   1.218   7.229 -0.0689 -0.2721  0.0872
42817SOL    HW133771   8.447   1.264   7.264  1.2981 -0.9808 -1.8175
42817SOL    HW233772   8.317   1.286   7.189 -0.8831  0.3264  2.0249
42818SOL     OW33773  10.690   8.441   1.512 -0.3819 -0.0700 -0.5623
42818SOL    HW133774  10.629   8.474   1.577  0.2653  0.1079 -0.0278
42818SOL    HW233775  10.750   8.513   1.496  1.3590 -1.0749  1.0068
42819SOL     OW33776   1.800   0.051   3.515  0.0471 -0.0619  0.0024
42819SOL    HW133777   1.849  -0.030   3.531  0.2711  0.0534 -0.0940
42819SOL    HW233778   1.742   0.059   3.591  0.3184 -0.0985  0.2153
42820SOL     OW33779   3.848   1.780   0.355 -0.0549  0.4005 -0.0457
42820SOL    HW133780   3.911   1.764   0.426 -0.5273 -0.7180  0.1376
42820SOL    HW233781   3.849   1.700   0.303 -0.3246  0.8979 -0.8484
42821SOL     OW33782   5.675  10.383   4.886 -0.7118  0.7372  0.0003
42821SOL    HW133783   5.614  10.326   4.839 -1.4924  2.0828 -0.6693
42821SOL    HW233784   5.621  10.427   4.952  0.2952 -0.8491  2.0095
42822SOL     OW33785   5.036   6.932   2.058 -0.0589 -0.5125  0.1896
42822SOL    HW133786   4.953   6.930   2.104 -0.2391  0.2038 -0.0820
42822SOL    HW233787   5.102   6.950   2.126 -0.4875  2.1320  0.0225
42823SOL     OW33788   3.633  10.359   8.474  0.3131  0.3692 -0.0764
42823SOL    HW133789   3.569  10.331   8.409  1.1943 -0.7472 -0.5124
42823SOL    HW233790   3.715  10.367   8.425  1.1183 -1.0048  0.9622
42824SOL     OW33791   4.398   0.805   9.625 -0.1498 -0.5668 -0.0277
42824SOL    HW133792   4.466   0.855   9.671 -1.3088  0.2237  0.8867
42824SOL    HW233793   4.430   0.715   9.625  0.3818 -0.4116  1.4135
42825SOL     OW33794   9.632   4.105  10.216 -0.4654 -0.2270 -0.0012
42825SOL    HW133795   9.549   4.059  10.234 -1.1666  1.1111  0.3295
42825SOL    HW233796   9.693   4.068  10.280 -0.7975 -1.2167 -0.2270
42826SOL     OW33797  10.142   6.156   1.134 -0.0736  0.4129 -0.0240
42826SOL    HW133798  10.195   6.149   1.213 -0.2921 -0.0911  0.0759
42826SOL    HW233799  10.165   6.242   1.099  0.6663  0.2871  0.1221
42827SOL     OW33800  11.227   2.486  10.978  0.2554 -0.0327  0.1762
42827SOL    HW133801  11.268   2.553  11.034 -0.6740 -0.0989  0.9592
42827SOL    HW233802  11.274   2.405  11.000 -1.1720 -0.4067  2.1480
42828SOL     OW33803   1.944   0.664   3.329  0.2381 -0.3236 -0.2858
42828SOL    HW133804   1.953   0.640   3.422  0.4570  0.1428 -0.1817
42828SOL    HW233805   1.982   0.752   3.324 -1.2192  0.3169 -0.5158
42829SOL     OW33806   2.550  10.521  11.418 -0.7616  0.5201  0.2735
42829SOL    HW133807   2.532  10.502  11.511  0.3935 -1.3392  0.1769
42829SOL    HW233808   2.620  10.586  11.420  0.2105 -0.5124  0.7501
42830SOL     OW33809   9.138   4.756   7.212  0.4267  0.1174 -0.5214
42830SOL    HW133810   9.205   4.797   7.158  0.5887 -0.6521 -0.9040
42830SOL    HW233811   9.176   4.754   7.300  0.4545  0.6919 -0.5131
42831SOL     OW33812   0.716   3.095  10.676  0.4179  0.3199 -0.4878
42831SOL    HW133813   0.809   3.119  10.678  0.2015  1.1563 -0.0512
42831SOL    HW233814   0.671   3.176  10.651 -0.1045 -0.3906 -1.9199
42832SOL     OW33815   1.117   7.438   0.857 -0.3548 -0.1761 -0.3017
42832SOL    HW133816   1.139   7.421   0.766  1.7697 -0.5720  0.2228
42832SOL    HW233817   1.199   7.470   0.896 -0.7111 -1.6486  1.8401
42833SOL     OW33818  11.014   2.419   6.998 -0.1647 -0.0245  0.5139
42833SOL    HW133819  11.005   2.399   7.091  1.3312  2.4893  1.3027
42833SOL    HW233820  11.082   2.360   6.967  1.1288  0.7908  1.6780
42834SOL     OW33821   6.125   1.857   4.206  0.1401 -0.1568  0.3512
42834SOL    HW133822   6.051   1.826   4.258 -0.6860 -0.3092 -0.8626
42834SOL    HW233823   6.147   1.782   4.149 -0.5103  0.7405 -1.1430
42835SOL     OW33824   8.085   1.781   5.486  0.0483 -0.0056 -0.4494
42835SOL    HW133825   8.040   1.865   5.475 -0.3618 -0.1750 -0.1001
42835SOL    HW233826   8.105   1.776   5.580  0.3071 -0.1777 -0.5122
42836SOL     OW33827   9.566   3.970   0.201  0.1187  0.3574 -0.6512
42836SOL    HW133828   9.474   3.953   0.182 -0.6140  2.5217  0.6199
42836SOL    HW233829   9.612   3.943   0.122 -1.5769 -0.7955 -1.3020
42837SOL     OW33830   9.079   6.894   0.491 -0.1192 -0.4801  0.3417
42837SOL    HW133831   9.024   6.905   0.569 -1.6920  0.0718 -0.7837
42837SOL    HW233832   9.161   6.937   0.513 -1.0315  0.9022  1.2076
42838SOL     OW33833   8.818   6.324  10.086  0.0883 -0.2739 -0.1295
42838SOL    HW133834   8.854   6.285  10.165 -1.0648 -0.0959  0.5160
42838SOL    HW233835   8.857   6.411  10.082 -0.0756 -0.1642  0.4371
42839SOL     OW33836   8.735   3.247   4.734  0.1315  0.3989 -0.3080
42839SOL    HW133837   8.817   3.295   4.724  1.2246 -1.2798  0.0984
42839SOL    HW233838   8.729   3.195   4.654  0.1035 -0.3823  0.1945
42840SOL     OW33839   6.607   6.444   1.870  0.5070  0.4192 -0.0220
42840SOL    HW133840   6.526   6.490   1.892  0.1258  0.6798 -1.7852
42840SOL    HW233841   6.677   6.501   1.900  0.0863  2.8552 -3.1490
42841SOL     OW33842   3.746   0.742   2.366  0.3601  0.2108 -0.1624
42841SOL    HW133843   3.789   0.805   2.308  0.3283 -1.1124 -1.7222
42841SOL    HW233844   3.653   0.746   2.343  0.3231 -0.2119 -0.1075
42842SOL     OW33845  10.405   5.259   9.506 -0.3741 -0.2142 -0.0908
42842SOL    HW133846  10.388   5.293   9.593  1.8367 -0.5585  0.5492
42842SOL    HW233847  10.402   5.336   9.449  0.8594  0.4896  0.7470
42843SOL     OW33848   5.724   0.792   9.440  0.5798 -0.3952 -0.2977
42843SOL    HW133849   5.758   0.812   9.527 -0.2430 -1.6132  0.3413
42843SOL    HW233850   5.761   0.859   9.383  2.5413 -0.5742  0.6719
42844SOL     OW33851   2.564   7.299   4.682 -0.1015  0.4375  0.4791
42844SOL    HW133852   2.595   7.377   4.728  0.5661  1.7559 -2.0246
42844SOL    HW233853   2.544   7.330   4.594 -1.2090 -1.9653 -0.1875
42845SOL     OW33854   4.585   6.280   8.814  0.1050  0.2151  0.5374
42845SOL    HW133855   4.670   6.271   8.771  0.9670  0.7872  2.0189
42845SOL    HW233856   4.526   6.313   8.746  0.8777 -0.8595 -0.6909
42846SOL     OW33857   0.083   2.633   5.567  0.1369 -0.3095 -0.1410
42846SOL    HW133858   0.142   2.693   5.524  2.0506 -0.8200  1.6040
42846SOL    HW233859   0.013   2.688   5.602 -0.1385  0.3827 -1.7275
42847SOL     OW33860   1.788   1.503   3.202 -0.1853  0.3540 -0.1397
42847SOL    HW133861   1.809   1.424   3.151 -0.5446 -0.6544  1.2209
42847SOL    HW233862   1.701   1.485   3.238 -0.3156  1.4324  0.1060
42848SOL     OW33863   4.070   2.452   6.449  0.9374 -0.3804  0.6609
42848SOL    HW133864   4.114   2.514   6.507  0.7811 -0.9043  1.3514
42848SOL    HW233865   4.141   2.407   6.403  1.0455  0.5688 -0.1440
42849SOL     OW33866   3.339  10.163  11.142  0.1079 -0.2527 -0.5357
42849SOL    HW133867   3.283  10.091  11.170 -0.6198 -0.2975 -1.9740
42849SOL    HW233868   3.410  10.121  11.093 -0.8443 -0.0019 -2.2303
42850SOL     OW33869   3.194   9.268   9.779 -0.0425  0.4464 -0.4108
42850SOL    HW133870   3.194   9.353   9.824 -1.8865  0.2365  0.0650
42850SOL    HW233871   3.128   9.278   9.710 -1.4968 -1.0836  0.6950
42851SOL     OW33872  10.345  11.263   4.619  0.4816 -0.7237  0.0080
42851SOL    HW133873  10.389  11.210   4.552 -0.9064  0.9420 -2.3406
42851SOL    HW233874  10.417  11.306   4.666  1.4884 -1.3874 -0.8793
42852SOL     OW33875   5.040   6.428   0.708 -0.2012 -0.1788 -0.2571
42852SOL    HW133876   5.033   6.449   0.615 -1.7765 -0.2403 -0.1715
42852SOL    HW233877   5.134   6.430   0.726  0.0629  0.7137 -1.6396
42853SOL     OW33878   3.429   0.246   9.421 -0.0454 -0.1592  0.3053
42853SOL    HW133879   3.434   0.314   9.353 -0.7176 -0.9943 -0.6006
42853SOL    HW233880   3.503   0.189   9.404 -0.0591 -0.2192  0.4422
42854SOL     OW33881   2.329   2.153  10.088 -0.2373  0.2343 -0.7578
42854SOL    HW133882   2.421   2.156  10.062 -0.0727 -0.4277 -0.2672
42854SOL    HW233883   2.330   2.123  10.179 -1.0671 -2.5482 -1.5768
42855SOL     OW33884   7.981  11.523  10.697 -0.3157 -0.3988  0.1896
42855SOL    HW133885   7.957  11.560  10.781  0.3830 -0.8584  0.6078
42855SOL    HW233886   8.051  11.461  10.718  1.4544  1.0902 -0.9596
42856SOL     OW33887   4.354   8.101   9.120 -0.4380  0.0758 -0.2717
42856SOL    HW133888   4.349   8.016   9.077 -0.2741  0.6260 -1.4078
42856SOL    HW233889   4.446   8.110   9.146 -0.6153 -0.4219  0.5660
42857SOL     OW33890   6.579  10.854  11.292  0.1477 -0.7923  0.2616
42857SOL    HW133891   6.583  10.945  11.261  1.2299 -0.2497  1.8697
42857SOL    HW233892   6.524  10.858  11.371  1.6453 -1.1754  1.3786
42858SOL     OW33893   3.860   4.395   1.389  0.4924  0.2295 -0.3839
42858SOL    HW133894   3.930   4.385   1.452  0.5519  2.2201 -0.0613
42858SOL    HW233895   3.896   4.455   1.323 -1.0220  1.7353  0.0773
42859SOL     OW33896   7.017   9.480   3.166 -0.0029  0.2049  0.4596
42859SOL    HW133897   7.097   9.429   3.176 -0.4447 -0.2968  1.6194
42859SOL    HW233898   7.016   9.538   3.241 -0.4489  0.6026  0.1508
42860SOL     OW33899   7.080   5.991   0.304 -0.0677 -0.6721 -0.0936
42860SOL    HW133900   7.097   6.007   0.397  1.2177 -1.1426 -0.2321
42860SOL    HW233901   7.150   6.038   0.259 -1.9406  1.4528 -0.9754
42861SOL     OW33902   5.373   1.910   0.619 -0.1391 -0.2994  0.0145
42861SOL    HW133903   5.433   1.943   0.551  0.2679  1.1654  1.0346
42861SOL    HW233904   5.376   1.977   0.687 -1.2865 -1.2758  1.0539
42862SOL     OW33905  10.225  11.602  11.591  0.5722  0.3442 -0.1256
42862SOL    HW133906  10.292  11.588  11.658  1.5050 -2.3456 -1.4612
42862SOL    HW233907  10.189  11.688  11.610  2.5666  0.7561  2.2476
42863SOL     OW33908   3.313  10.953   2.343  0.1920  0.3210  0.6216
42863SOL    HW133909   3.396  10.994   2.368  1.0923 -1.2270  0.3483
42863SOL    HW233910   3.319  10.864   2.379 -0.9846 -0.0891 -0.1344
42864SOL     OW33911  10.725  10.976   8.248 -0.1331 -0.1350  0.6281
42864SOL    HW133912  10.785  10.922   8.299  0.0838 -2.2368 -1.6392
42864SOL    HW233913  10.768  10.985   8.162 -0.5984  2.9774  0.6034
42865SOL     OW33914   6.868  11.257   8.781  0.0819  0.8712 -0.1763
42865SOL    HW133915   6.950  11.213   8.805  0.4671  0.3807 -2.1965
42865SOL    HW233916   6.885  11.292   8.694 -1.2447  2.4532  0.1576
42866SOL     OW33917   4.025   6.681   2.171 -0.5315 -0.2105  0.0730
42866SOL    HW133918   4.087   6.610   2.187 -2.1535 -1.6584  0.1836
42866SOL    HW233919   4.023   6.690   2.076  0.8455  0.8079  0.1108
42867SOL     OW33920  10.731   1.086  10.625  0.0882 -0.0404  0.0158
42867SOL    HW133921  10.787   1.063  10.698  0.2916 -0.3846 -0.2434
42867SOL    HW233922  10.760   1.173  10.598  2.0481 -1.0774 -1.5377
42868SOL     OW33923   6.354   7.898   4.704  0.5310 -0.0140  0.0387
42868SOL    HW133924   6.303   7.963   4.753 -0.7393 -1.8092  1.2445
42868SOL    HW233925   6.303   7.881   4.625 -0.2280 -0.9594  0.6938
42869SOL     OW33926  11.496   1.379   5.507  0.1430 -0.6009  0.5782
42869SOL    HW133927  11.449   1.303   5.541 -0.5134 -0.7246 -0.5604
42869SOL    HW233928  11.556   1.343   5.442 -1.2344 -0.0495 -1.0783
42870SOL     OW33929   2.453   5.120   4.205  0.2499  0.1674 -0.0115
42870SOL    HW133930   2.534   5.101   4.253 -0.2685  0.1345  0.8787
42870SOL    HW233931   2.478   5.183   4.138  0.8526  0.7899  0.7904
42871SOL     OW33932   0.790  11.321  11.147  0.0288  0.5681  0.0310
42871SOL    HW133933   0.854  11.259  11.182  0.0002  0.5542  0.0589
42871SOL    HW233934   0.738  11.347  11.224 -0.2684  0.2564 -0.0625
42872SOL     OW33935   4.980   5.357   2.369  0.7432  0.2414 -0.3137
42872SOL    HW133936   5.075   5.348   2.358  0.5434 -1.1792 -1.1054
42872SOL    HW233937   4.947   5.374   2.281  0.2814  0.9885 -0.0016
42873SOL     OW33938   1.187   2.107   4.872  0.9753 -0.2135 -0.0579
42873SOL    HW133939   1.181   2.068   4.959  1.5496  0.3894  0.2635
42873SOL    HW233940   1.149   2.041   4.813  2.9058 -1.7430  0.3170
42874SOL     OW33941   7.809   2.581   4.428 -0.7788 -0.4079  0.1973
42874SOL    HW133942   7.816   2.531   4.509 -2.0884  0.2817  0.7694
42874SOL    HW233943   7.862   2.533   4.365 -1.2947 -2.0356  0.9563
42875SOL     OW33944   9.269   8.076   1.051  0.1672 -0.2110 -0.8665
42875SOL    HW133945   9.260   8.053   0.959 -0.1727 -0.4375 -0.7802
42875SOL    HW233946   9.273   7.992   1.096 -1.3271 -0.1119 -0.5205
42876SOL     OW33947   8.602   1.374   6.947  0.2841 -0.3550 -0.2479
42876SOL    HW133948   8.556   1.434   7.006 -2.2452 -1.4639 -0.9484
42876SOL    HW233949   8.643   1.430   6.882  1.0686  0.7480  1.1288
42877SOL     OW33950   3.727   8.260   7.135  0.0319 -0.0790 -0.6089
42877SOL    HW133951   3.672   8.189   7.169 -0.1909  0.5782  0.4522
42877SOL    HW233952   3.686   8.283   7.052 -0.7218 -0.2573 -0.2974
42878SOL     OW33953   2.848  10.628   1.668  0.1986  0.6080  0.1306
42878SOL    HW133954   2.825  10.585   1.586  3.0892  0.9374 -0.9546
42878SOL    HW233955   2.782  10.696   1.679 -1.4542 -0.7688 -0.7827
42879SOL     OW33956   4.194   1.249   4.311  0.0227  0.8883 -0.0553
42879SOL    HW133957   4.288   1.264   4.323  0.6012 -2.4173  0.6733
42879SOL    HW233958   4.157   1.336   4.297  3.0152  2.4268  0.7424
42880SOL     OW33959   8.480   6.900   2.110  0.3319 -0.3344 -0.2239
42880SOL    HW133960   8.568   6.867   2.125  0.8739  0.4985 -1.4432
42880SOL    HW233961   8.446   6.849   2.037  0.9353  1.2964 -1.6968
42881SOL     OW33962   2.352   5.219   2.908 -0.1821  0.2894  0.5030
42881SOL    HW133963   2.406   5.229   2.986  1.9355 -1.2637 -0.6660
42881SOL    HW233964   2.325   5.127   2.909  1.3002 -0.2317 -1.3726
42882SOL     OW33965   2.518  11.229   8.026  0.9016  0.1478  0.1521
42882SOL    HW133966   2.490  11.320   8.020 -1.4769 -0.5630 -0.6993
42882SOL    HW233967   2.556  11.210   7.939  0.5628  0.0742  0.0201
42883SOL     OW33968   4.421   5.848   8.918 -0.2886  0.4841  0.4553
42883SOL    HW133969   4.504   5.894   8.935  0.3508 -0.2256 -0.6209
42883SOL    HW233970   4.436   5.759   8.950  0.9495 -0.9020 -3.3801
42884SOL     OW33971   4.979   3.627  11.463 -0.1948  0.1849  0.0175
42884SOL    HW133972   5.072   3.650  11.460 -0.2900  0.5888  0.1077
42884SOL    HW233973   4.978   3.532  11.457  0.1680  0.2438 -1.2609
42885SOL     OW33974   9.681   7.070   8.460 -0.1529  0.0560  0.4855
42885SOL    HW133975   9.753   7.007   8.469 -0.2083  0.1502  1.8292
42885SOL    HW233976   9.680   7.092   8.367  0.4473 -1.2436  0.1431
42886SOL     OW33977  11.684   0.667   8.082  0.3173  0.2356 -0.2731
42886SOL    HW133978  11.672   0.593   8.022 -1.6076 -0.7283  1.1836
42886SOL    HW233979  11.598   0.680   8.121  1.1741  1.7558  1.2326
42887SOL     OW33980   8.583  10.089   0.121 -0.0547 -0.1498  0.2751
42887SOL    HW133981   8.566  10.083   0.027  0.3009 -0.6846  0.2381
42887SOL    HW233982   8.604   9.999   0.147  0.5319  0.1098  0.7293
42888SOL     OW33983   4.543   9.263   9.374 -0.0518  0.0419 -0.1996
42888SOL    HW133984   4.532   9.171   9.349 -0.4531  0.2413 -0.7770
42888SOL    HW233985   4.472   9.309   9.330  0.4816  0.7184 -0.3782
42889SOL     OW33986   5.449   7.451   3.419  0.3015  0.0236  0.1834
42889SOL    HW133987   5.490   7.498   3.346  2.0127 -2.6536 -0.7289
42889SOL    HW233988   5.363   7.426   3.386  0.2891  0.5375 -0.1745
42890SOL     OW33989   0.117   9.971  11.159  0.8200  0.6733  0.0031
42890SOL    HW133990   0.075   9.885  11.152  0.8328  0.6868 -0.2679
42890SOL    HW233991   0.151   9.987  11.071 -1.0710  1.9430 -0.5449
42891SOL     OW33992   8.078   2.809   4.648 -0.1321  0.3147  0.1669
42891SOL    HW133993   8.144   2.741   4.661  0.9202  1.5819  1.8691
42891SOL    HW233994   8.122   2.891   4.672 -1.7733  1.4413 -0.4751
42892SOL     OW33995   0.333   7.430   2.009  0.0582 -0.1194 -0.3497
42892SOL    HW133996   0.247   7.462   2.037 -0.3927 -1.3682 -0.2418
42892SOL    HW233997   0.350   7.356   2.066  0.5896 -0.7221 -1.2772
42893SOL     OW33998   6.179   8.456   9.766  0.0001  0.0656  0.5341
42893SOL    HW133999   6.208   8.445   9.856 -0.4619 -0.5002  0.6213
42893SOL    HW234000   6.145   8.370   9.741 -0.7388  0.4578  0.1318
42894SOL     OW34001   3.801   5.988   2.301  0.1126 -0.1940 -0.0402
42894SOL    HW134002   3.849   5.907   2.281 -0.6478 -0.4830 -0.7578
42894SOL    HW234003   3.721   5.981   2.249  0.4123  1.4017 -0.7539
42895SOL     OW34004   1.840  10.797   1.823 -0.1479 -0.1762  0.4714
42895SOL    HW134005   1.759  10.831   1.862 -1.7697 -2.8509 -0.2695
42895SOL    HW234006   1.895  10.773   1.897 -0.9100 -0.1715  1.0461
42896SOL     OW34007   7.930   1.219   6.625 -0.0489  0.6064 -0.0188
42896SOL    HW134008   7.911   1.271   6.547  1.5981  0.2359 -0.6996
42896SOL    HW234009   7.897   1.132   6.604  0.8846  0.3687 -0.5446
42897SOL     OW34010   1.622   3.096   1.581  0.0233 -0.0579  0.1487
42897SOL    HW134011   1.681   3.111   1.507  0.6114  0.7268  0.7508
42897SOL    HW234012   1.619   3.001   1.591  0.1801 -0.1560 -0.6867
42898SOL     OW34013   2.664   5.963   7.698 -0.2860 -0.6534 -0.2390
42898SOL    HW134014   2.754   5.947   7.669  0.1146  0.3818  0.3648
42898SOL    HW234015   2.666   6.052   7.734 -1.8549 -0.1075 -1.3944
42899SOL     OW34016  11.796  10.565   6.580 -0.3497  0.3965 -0.3481
42899SOL    HW134017  11.853  10.620   6.527 -0.7281  0.6223 -0.5191
42899SOL    HW234018  11.740  10.520   6.517 -0.8999  0.7772 -0.1285
42900SOL     OW34019   1.284   3.394   9.089 -0.5868 -0.5187 -0.0967
42900SOL    HW134020   1.317   3.421   9.175  0.7322  0.9897 -1.0015
42900SOL    HW234021   1.262   3.302   9.099 -0.7565 -0.2991  1.9337
42901SOL     OW34022   6.508   2.284   0.014  0.7091  0.0519  0.2798
42901SOL    HW134023   6.533   2.203  -0.031  1.4913  0.4988 -0.1041
42901SOL    HW234024   6.412   2.286   0.007  0.7781 -0.1168 -0.9812
42902SOL     OW34025   2.261   8.086   1.270 -0.8252  0.0832 -0.2591
42902SOL    HW134026   2.200   8.107   1.199 -1.7541  0.3002  0.5722
42902SOL    HW234027   2.338   8.139   1.252 -1.3416  0.6949 -0.7165
42903SOL     OW34028  10.776   3.187   2.197  0.4401 -0.2810  0.5147
42903SOL    HW134029  10.697   3.229   2.163  0.6718 -1.5663 -1.7822
42903SOL    HW234030  10.792   3.232   2.280 -1.8658  1.0035  0.3653
42904SOL     OW34031   7.335  11.432   6.102 -0.0227 -0.1108  0.5340
42904SOL    HW134032   7.378  11.480   6.031  0.2579 -0.3436  0.5463
42904SOL    HW234033   7.291  11.500   6.153 -1.0056 -0.0227 -0.3903
42905SOL     OW34034  10.816   8.836   8.195 -0.0288  0.3913 -0.1543
42905SOL    HW134035  10.766   8.765   8.155  0.0903  0.3615 -0.2480
42905SOL    HW234036  10.888   8.852   8.135 -0.8171  1.5353 -0.8334
42906SOL     OW34037   0.837   0.051  11.155  0.7508  0.1699 -0.0842
42906SOL    HW134038   0.833  -0.001  11.235 -1.6879  0.0938 -0.1703
42906SOL    HW234039   0.818  -0.012  11.085 -0.9404  0.8821 -0.3102
42907SOL     OW34040   8.092   4.656   5.280  0.1803  0.6057  0.0277
42907SOL    HW134041   8.116   4.741   5.245 -0.6234  0.1703 -1.7021
42907SOL    HW234042   8.065   4.605   5.203  1.3305 -1.4461  0.9113
42908SOL     OW34043   6.104   4.114   2.474 -0.2081  0.1635 -0.7673
42908SOL    HW134044   6.032   4.177   2.472 -0.9841 -0.7073 -0.6984
42908SOL    HW234045   6.140   4.122   2.562 -1.5196 -0.8095 -0.1022
42909SOL     OW34046   2.214   8.669   7.459 -0.1716  0.2838  0.0072
42909SOL    HW134047   2.186   8.585   7.494  0.2837  0.8238  1.7687
42909SOL    HW234048   2.158   8.733   7.501  0.9874  1.0414  0.4572
42910SOL     OW34049  11.063   5.731  11.803  0.3117 -0.1508 -0.1447
42910SOL    HW134050  11.042   5.805  11.747 -1.5449 -0.8884 -0.4890
42910SOL    HW234051  11.073   5.657  11.743  0.1333 -0.5811  0.3461
42911SOL     OW34052  10.770   6.164  10.604  0.1341 -0.3841  0.1094
42911SOL    HW134053  10.717   6.148  10.526 -1.0432  0.8668  0.6053
42911SOL    HW234054  10.852   6.116  10.589  0.5245  0.9769 -2.5232
42912SOL     OW34055   7.222  11.154   9.050  0.0812 -0.1918 -0.1965
42912SOL    HW134056   7.168  11.128   8.976  0.1694 -1.9307  0.2988
42912SOL    HW234057   7.297  11.199   9.011  0.1327 -1.0936 -1.1963
42913SOL     OW34058   1.430  10.058   4.742  0.2796  0.6858  1.1075
42913SOL    HW134059   1.358  10.111   4.775 -0.8591  0.3240 -0.6417
42913SOL    HW234060   1.434   9.983   4.801 -0.7882  0.7044  1.2122
42914SOL     OW34061   8.671   7.580  10.971 -0.9587 -0.1945 -0.1373
42914SOL    HW134062   8.590   7.628  10.953 -0.6883  0.3733  0.1187
42914SOL    HW234063   8.729   7.645  11.012 -0.6006 -0.7574  0.2699
42915SOL     OW34064   2.315   9.626   2.486 -0.5122  0.1981  0.0688
42915SOL    HW134065   2.350   9.553   2.538 -2.2605 -0.6896  0.0630
42915SOL    HW234066   2.359   9.703   2.521  0.2900 -0.6825  1.0758
42916SOL     OW34067  11.537   1.196   9.775 -0.1965 -0.2418  0.1930
42916SOL    HW134068  11.474   1.238   9.834 -1.0116 -0.2992 -0.6170
42916SOL    HW234069  11.607   1.260   9.765  0.5126 -0.6472  2.0649
42917SOL     OW34070   6.505   5.428   7.137 -0.6224 -0.1323  0.1715
42917SOL    HW134071   6.417   5.416   7.171 -0.0894 -1.5876  1.1181
42917SOL    HW234072   6.516   5.357   7.073  0.0284 -0.2459  0.4038
42918SOL     OW34073   0.371  11.629   4.077 -0.0104 -0.7720  0.2662
42918SOL    HW134074   0.428  11.566   4.033  0.9105  0.1777  0.0592
42918SOL    HW234075   0.431  11.680   4.133 -0.7346 -0.0991  0.4453
42919SOL     OW34076   8.488   7.838   7.020 -0.2044 -0.7161  0.4598
42919SOL    HW134077   8.535   7.852   7.102  1.1139 -0.2138 -0.3520
42919SOL    HW234078   8.501   7.745   7.001  2.0596 -0.2400 -0.6542
42920SOL     OW34079   4.477   6.317   9.071 -0.0791 -0.6139 -0.2594
42920SOL    HW134080   4.532   6.315   8.992  0.5743 -1.1905  0.1991
42920SOL    HW234081   4.491   6.232   9.112 -1.5793 -0.8970 -0.2939
42921SOL     OW34082   9.991   4.003   1.943  0.2108 -0.2123 -0.5284
42921SOL    HW134083  10.079   4.014   1.908  0.2565 -2.4529 -1.2526
42921SOL    HW234084   9.935   4.049   1.879  0.6118 -1.3274 -1.7276
42922SOL     OW34085   8.672   5.018   5.907  0.2151 -0.2608 -0.0422
42922SOL    HW134086   8.704   5.004   5.996 -0.8360 -1.8361  0.1290
42922SOL    HW234087   8.582   4.986   5.908 -0.0350  0.2889 -1.5211
42923SOL     OW34088   0.680   7.650   5.206 -0.0862 -0.3055 -0.7462
42923SOL    HW134089   0.634   7.664   5.123 -0.7383 -0.1502 -0.3577
42923SOL    HW234090   0.771   7.634   5.179 -0.0091  1.0507 -1.4273
42924SOL     OW34091   5.379   1.923  10.076 -0.0715 -0.6479  0.1813
42924SOL    HW134092   5.347   2.002  10.119  0.6705 -0.3021  0.1090
42924SOL    HW234093   5.448   1.890  10.134  1.5806  0.3309 -1.1452
42925SOL     OW34094  10.385   6.194   5.012  0.1224 -0.4276 -0.1077
42925SOL    HW134095  10.326   6.188   4.937  1.0610  0.8820 -0.9994
42925SOL    HW234096  10.346   6.262   5.068 -1.1898 -2.1728  1.2421
42926SOL     OW34097   7.513   2.446   1.864  0.3205  0.1708  0.0276
42926SOL    HW134098   7.432   2.396   1.856  0.6144 -0.4923  1.0538
42926SOL    HW234099   7.485   2.533   1.893 -0.0418 -0.0205  0.2605
42927SOL     OW34100   4.056   7.723   5.034  0.0654 -0.8848 -0.2808
42927SOL    HW134101   3.977   7.689   5.077  0.5549 -0.4828  0.9776
42927SOL    HW234102   4.078   7.657   4.969 -2.0027 -0.4450 -1.5497
42928SOL     OW34103   7.539   6.782   2.287  0.7451 -0.4986  0.4314
42928SOL    HW134104   7.606   6.719   2.261  0.4943 -0.5742 -0.0324
42928SOL    HW234105   7.506   6.818   2.205 -1.2638 -1.9885  0.5058
42929SOL     OW34106   3.125  11.791   7.402 -0.5044  0.2454  0.4128
42929SOL    HW134107   3.095  11.797   7.493 -0.9320 -0.4463  0.3258
42929SOL    HW234108   3.191  11.721   7.404 -0.5863  0.1622  0.1674
42930SOL     OW34109  11.079   2.537   7.919 -0.0100 -0.2795  0.7739
42930SOL    HW134110  11.043   2.617   7.882 -0.5707 -0.3789  1.0943
42930SOL    HW234111  11.078   2.474   7.847 -2.5744 -0.9483  1.3174
42931SOL     OW34112   1.892   9.690   9.463 -0.3221  0.2179 -0.9495
42931SOL    HW134113   1.928   9.772   9.499 -1.5510  1.3415 -2.1435
42931SOL    HW234114   1.800   9.692   9.490  0.0579 -1.8225  0.7275
42932SOL     OW34115   9.054   9.617   8.079  0.0609 -0.1042  0.0039
42932SOL    HW134116   9.025   9.526   8.074 -0.5586  0.1673 -2.3351
42932SOL    HW234117   9.102   9.632   7.997  1.6406  1.2184  1.0852
42933SOL     OW34118  11.175   4.441   5.985 -0.6559 -0.5568 -0.0384
42933SOL    HW134119  11.103   4.469   6.042  0.0310 -0.2694  0.6939
42933SOL    HW234120  11.196   4.518   5.933 -0.0786 -0.2677  0.6019
42934SOL     OW34121   0.938   4.201   6.542 -0.0313 -0.2294  0.3121
42934SOL    HW134122   0.843   4.199   6.555 -0.0157 -0.3112  0.4113
42934SOL    HW234123   0.968   4.113   6.564  0.0431 -0.2623  0.0874
42935SOL     OW34124   9.949   7.029   6.508 -0.2624 -0.1058  0.1393
42935SOL    HW134125   9.931   7.122   6.497  0.9185  0.0659 -0.4916
42935SOL    HW234126  10.044   7.023   6.508 -0.3221 -1.4336 -0.7866
42936SOL     OW34127   9.392   9.704   1.970  0.1878  0.1293  0.3870
42936SOL    HW134128   9.402   9.623   1.919  1.7053  0.7736 -0.4041
42936SOL    HW234129   9.428   9.772   1.913 -0.9666  1.3570  1.0849
42937SOL     OW34130   5.798   2.158   8.069  0.6569 -0.0458 -0.0882
42937SOL    HW134131   5.812   2.188   7.979 -0.9712 -0.2688 -0.4439
42937SOL    HW234132   5.800   2.063   8.063  1.6105 -0.0653  0.3195
42938SOL     OW34133   4.011   2.061   0.956  0.2782 -0.3229  0.1710
42938SOL    HW134134   3.993   2.081   0.864 -1.3130  2.0401  0.9093
42938SOL    HW234135   4.099   2.094   0.971  0.2964 -0.1203 -0.3613
42939SOL     OW34136  10.365   1.305   6.260 -0.1759  0.5069  0.0951
42939SOL    HW134137  10.325   1.310   6.173 -0.4305 -0.4529  0.1482
42939SOL    HW234138  10.459   1.320   6.244 -0.0822 -0.5962 -0.4791
42940SOL     OW34139   1.849   5.246   9.055 -0.3054  0.4479  0.2145
42940SOL    HW134140   1.924   5.187   9.050  0.7055  1.6608  0.4016
42940SOL    HW234141   1.795   5.211   9.125 -0.2153 -0.7685 -0.3014
42941SOL     OW34142   2.104  10.479  11.021  0.1465  0.1525  0.2783
42941SOL    HW134143   2.133  10.434  10.942  0.8010  0.3531  0.4042
42941SOL    HW234144   2.069  10.410  11.076 -0.1327 -0.0151 -0.0995
42942SOL     OW34145   2.505   3.612   7.533  0.4673 -0.1052 -0.0168
42942SOL    HW134146   2.529   3.704   7.538  2.2365 -0.5225 -0.1266
42942SOL    HW234147   2.437   3.608   7.467  0.4281  1.1132 -0.0580
42943SOL     OW34148   6.824   0.923  11.022  0.2381 -0.1665  0.1374
42943SOL    HW134149   6.733   0.901  11.004 -0.1566 -0.5913  2.3564
42943SOL    HW234150   6.875   0.864  10.967 -0.8373 -1.0900  0.1094
42944SOL     OW34151   2.523  11.653  10.820 -0.4365 -0.3320  0.2605
42944SOL    HW134152   2.433  11.638  10.849 -0.5214  0.8243  0.6381
42944SOL    HW234153   2.574  11.657  10.902 -0.1248 -0.4362  0.0731
42945SOL     OW34154   1.197   1.657   2.763  0.0376 -0.1263 -0.7124
42945SOL    HW134155   1.227   1.666   2.854 -0.5267 -0.7749 -0.4576
42945SOL    HW234156   1.202   1.746   2.728  1.2300 -0.0419 -0.3595
42946SOL     OW34157   8.150   5.292   4.985 -0.6588 -0.1851 -0.0586
42946SOL    HW134158   8.196   5.213   5.015  0.9544  0.3377 -1.0465
42946SOL    HW234159   8.058   5.267   4.983 -0.2313 -1.8763  0.1644
42947SOL     OW34160   0.851   6.909   2.069 -0.0674  0.3176  0.3392
42947SOL    HW134161   0.821   6.842   2.130 -1.1568  0.8322  0.3985
42947SOL    HW234162   0.783   6.910   2.001  0.9557 -0.0185 -0.7194
42948SOL     OW34163   1.177   3.594   7.156  0.1961  0.6147  0.3825
42948SOL    HW134164   1.201   3.685   7.139  0.5935  0.2399 -1.1893
42948SOL    HW234165   1.259   3.545   7.151 -0.2497 -0.0663 -0.5622
42949SOL     OW34166  10.816   6.531   2.101 -0.0771 -0.1653 -0.1365
42949SOL    HW134167  10.852   6.460   2.048 -1.4310 -1.2436  0.3584
42949SOL    HW234168  10.782   6.594   2.037  0.1230 -0.4919 -0.5644
42950SOL     OW34169  10.282   0.770   3.828 -0.4475 -0.3541 -0.8719
42950SOL    HW134170  10.282   0.687   3.780 -0.1959 -0.9602  0.1564
42950SOL    HW234171  10.197   0.772   3.872  0.3540 -1.1113  0.8167
42951SOL     OW34172   7.893   1.586   5.500 -0.2022  0.1436 -0.1741
42951SOL    HW134173   7.849   1.629   5.573  1.1444 -0.0251  0.7831
42951SOL    HW234174   7.955   1.651   5.467  0.6941 -0.4645  0.2406
42952SOL     OW34175   8.619   3.478   2.352 -0.1448  0.2003 -0.2034
42952SOL    HW134176   8.569   3.552   2.317 -0.7444  0.3045  0.8504
42952SOL    HW234177   8.634   3.500   2.444 -1.4880 -1.5908  0.4980
42953SOL     OW34178   8.680   3.854   2.505  0.3573 -0.3554  0.4115
42953SOL    HW134179   8.660   3.944   2.531 -1.2746 -0.3691 -0.6561
42953SOL    HW234180   8.690   3.807   2.587  0.5137  0.6419  0.9803
42954SOL     OW34181   4.539   5.710   6.185  0.4303  0.3942 -0.4874
42954SOL    HW134182   4.609   5.731   6.246  0.1619  0.6135 -0.2531
42954SOL    HW234183   4.544   5.614   6.175  0.4644  0.3557 -0.1122
42955SOL     OW34184  11.374   4.136   3.088  0.6271  0.1406  0.3074
42955SOL    HW134185  11.387   4.090   3.171  0.3733  0.6796  0.6470
42955SOL    HW234186  11.461   4.161   3.059  0.8274 -1.0224 -0.1547
42956SOL     OW34187   9.612   2.798   3.470  0.2749 -0.3187  0.7473
42956SOL    HW134188   9.610   2.721   3.526 -0.4442  0.2057  1.4596
42956SOL    HW234189   9.530   2.795   3.421  0.1748  0.0622  0.8846
42957SOL     OW34190   2.944   1.936   9.869  0.3612 -0.0336 -0.6820
42957SOL    HW134191   2.991   1.856   9.892 -0.3322 -0.4620 -0.7513
42957SOL    HW234192   3.012   1.995   9.836  0.8859 -0.5614 -0.5521
42958SOL     OW34193   3.138   3.005   6.189  0.1179 -0.0336 -0.1476
42958SOL    HW134194   3.217   3.025   6.240  0.3663  1.6516 -1.0975
42958SOL    HW234195   3.159   3.037   6.101 -1.0608 -0.9881 -0.7850
42959SOL     OW34196   8.878   4.206   5.075 -0.3163 -0.2681 -0.2044
42959SOL    HW134197   8.859   4.144   5.005 -1.7238 -1.1980  0.9643
42959SOL    HW234198   8.918   4.153   5.144  2.1431  0.8233 -0.6825
42960SOL     OW34199   8.230   5.372   2.042 -0.6073  0.1479  0.3520
42960SOL    HW134200   8.175   5.340   1.970 -0.8403  1.1947  0.0472
42960SOL    HW234201   8.170   5.381   2.116 -0.2558 -1.4752  0.8635
42961SOL     OW34202   6.912   7.340   1.333  0.5478 -0.1867 -0.2537
42961SOL    HW134203   6.897   7.365   1.425  0.8819  0.2424 -0.3107
42961SOL    HW234204   6.846   7.273   1.316  2.3523 -2.4978  1.1710
42962SOL     OW34205   3.354   1.416   4.414  0.5519 -0.2587  0.5678
42962SOL    HW134206   3.387   1.469   4.486  0.7532  0.4914 -0.0670
42962SOL    HW234207   3.328   1.333   4.455  0.0642  0.3905  1.5994
42963SOL     OW34208   6.675   3.696   8.099 -0.3461 -0.3446  0.0378
42963SOL    HW134209   6.658   3.782   8.138 -0.5085 -0.9701  1.4252
42963SOL    HW234210   6.769   3.682   8.114 -0.7058 -1.2563  1.7001
42964SOL     OW34211   9.135  10.529   3.278  1.0503  0.3838  0.3638
42964SOL    HW134212   9.071  10.470   3.237  0.6285  0.9625  0.1757
42964SOL    HW234213   9.194  10.553   3.206  1.8666 -0.6319  0.6654
42965SOL     OW34214   8.734   8.157   1.716  0.2657 -0.0940 -0.0600
42965SOL    HW134215   8.700   8.144   1.805  0.7547  0.3347  0.1929
42965SOL    HW234216   8.688   8.235   1.685 -0.4199 -0.6407 -0.4492
42966SOL     OW34217   3.499   1.896   0.007 -0.1043 -0.5206 -0.0565
42966SOL    HW134218   3.511   1.865  -0.083  0.7910 -1.4521  0.3740
42966SOL    HW234219   3.414   1.860   0.033 -0.0236 -0.8768 -0.2774
42967SOL     OW34220   3.547  10.820  10.599 -0.2745 -0.3647 -0.5110
42967SOL    HW134221   3.468  10.858  10.561  0.3980  2.1641  0.3750
42967SOL    HW234222   3.541  10.840  10.692  1.3951 -0.0948 -0.4332
42968SOL     OW34223   6.391  11.702   7.106 -0.0082 -0.0888  0.1289
42968SOL    HW134224   6.465  11.715   7.165  0.7373 -1.6407 -0.4193
42968SOL    HW234225   6.356  11.790   7.092 -0.1920  0.3547  2.8267
42969SOL     OW34226  10.410   2.184  10.438  0.2640 -0.3289  0.3998
42969SOL    HW134227  10.348   2.222  10.500 -0.4268  0.4725 -0.7522
42969SOL    HW234228  10.358   2.124  10.385  0.7447 -0.6421  0.2737
42970SOL     OW34229   3.165   4.903   9.951 -0.1570 -0.0327 -0.2317
42970SOL    HW134230   3.139   4.913   9.859  2.7672 -1.1695 -1.3195
42970SOL    HW234231   3.259   4.886   9.947  0.0567 -0.2003  3.0124
42971SOL     OW34232   5.041   1.897   8.803 -0.4375  0.1081  0.2641
42971SOL    HW134233   5.000   1.843   8.870 -1.8094  0.3398 -0.3473
42971SOL    HW234234   5.052   1.982   8.843  0.9419 -0.3532  0.9456
42972SOL     OW34235   8.052   6.019   7.419  0.1318  0.1887 -0.0856
42972SOL    HW134236   8.098   6.005   7.336 -0.3761 -2.2452 -0.0298
42972SOL    HW234237   8.097   5.961   7.481 -0.6492  0.5996  0.8808
42973SOL     OW34238   9.186   1.442   9.627  0.2160  0.1482 -0.3721
42973SOL    HW134239   9.133   1.510   9.668 -0.0491  0.8131 -1.7665
42973SOL    HW234240   9.276   1.463   9.653  0.2415  1.5988 -1.4917
42974SOL     OW34241   8.816   2.857   8.944 -0.5322  0.1412  0.0824
42974SOL    HW134242   8.727   2.884   8.969  0.4316  2.0904  1.6770
42974SOL    HW234243   8.871   2.932   8.966  1.4800 -0.8469 -1.2897
42975SOL     OW34244   4.068   7.932   0.574 -0.1657 -0.2097  0.2989
42975SOL    HW134245   4.098   7.910   0.662 -1.3736  0.5259  0.9189
42975SOL    HW234246   4.149   7.948   0.525  0.5188 -0.3731  1.3367
42976SOL     OW34247   8.477   3.442   8.933 -0.2683 -0.5478  0.5013
42976SOL    HW134248   8.476   3.349   8.910  0.2680 -0.4017 -0.1654
42976SOL    HW234249   8.392   3.458   8.973 -1.1383 -0.9110 -1.1056
42977SOL     OW34250   7.292   0.610   0.453 -0.2284 -0.2593  0.4594
42977SOL    HW134251   7.301   0.532   0.399 -2.7108 -1.4832  1.6542
42977SOL    HW234252   7.255   0.676   0.394  0.3871 -0.4644 -0.1653
42978SOL     OW34253   6.000   8.655   0.302  0.2411  0.1867 -0.2693
42978SOL    HW134254   5.931   8.592   0.325 -0.6194  0.3628 -2.1974
42978SOL    HW234255   6.048   8.614   0.230 -0.1677  1.5826 -1.3876
42979SOL     OW34256   0.184  11.120   3.256  0.8908  0.6118  0.0421
42979SOL    HW134257   0.198  11.087   3.345 -1.9673 -0.8814  0.0866
42979SOL    HW234258   0.227  11.056   3.199 -0.7073 -0.8016  0.3105
42980SOL     OW34259   5.569  10.984   0.840 -0.0990  0.2888  0.0348
42980SOL    HW134260   5.621  11.063   0.824 -0.7368  0.4791 -1.2281
42980SOL    HW234261   5.629  10.912   0.820  0.2405  0.4613  0.4089
42981SOL     OW34262   3.166   6.487   1.295  0.2274 -0.6823  0.0286
42981SOL    HW134263   3.180   6.512   1.204 -1.1063  0.8666  0.2044
42981SOL    HW234264   3.220   6.409   1.307  1.3667 -0.2155 -1.7339
42982SOL     OW34265   9.879   5.600   8.268  0.1621  0.0209  0.1652
42982SOL    HW134266   9.823   5.671   8.236  1.0820 -0.0732 -1.8258
42982SOL    HW234267   9.910   5.631   8.353  0.9736  2.3090 -0.8781
42983SOL     OW34268   6.273  11.514   6.186  0.2360  0.0988 -0.4569
42983SOL    HW134269   6.203  11.576   6.162 -1.1749 -1.1681  0.2278
42983SOL    HW234270   6.274  11.451   6.114  2.7019  1.6166 -1.9283
42984SOL     OW34271  10.638   1.567   9.392 -0.0647 -0.0481  0.3193
42984SOL    HW134272  10.561   1.528   9.350  0.0674  0.2669 -0.2259
42984SOL    HW234273  10.633   1.537   9.483 -0.1621 -1.0353  0.0061
42985SOL     OW34274   4.564  11.497   7.100 -0.1154  0.1608  0.4789
42985SOL    HW134275   4.493  11.462   7.045  0.3258  1.8821 -1.2979
42985SOL    HW234276   4.521  11.518   7.183 -1.4033 -0.1024 -0.0868
42986SOL     OW34277   8.490   4.440   7.178  0.1999  0.1371  0.7750
42986SOL    HW134278   8.406   4.426   7.134 -0.1998 -0.4986  1.7156
42986SOL    HW234279   8.498   4.368   7.240  1.1076  0.5864  1.2125
42987SOL     OW34280   4.492  10.483  11.633 -0.0451 -0.0129 -0.7032
42987SOL    HW134281   4.562  10.547  11.635  1.1326 -1.2692  0.2572
42987SOL    HW234282   4.526  10.411  11.580 -1.5326  0.3055 -2.2031
42988SOL     OW34283   9.698   4.983  10.633  0.0204  0.1150 -0.2903
42988SOL    HW134284   9.745   4.936  10.564  2.7338  0.2507  1.2993
42988SOL    HW234285   9.628   5.028  10.588  0.6500 -1.1275 -2.6893
42989SOL     OW34286  10.840   0.355   1.103  0.1540  0.0931 -0.0824
42989SOL    HW134287  10.857   0.369   1.010  2.0127  0.8807  0.3312
42989SOL    HW234288  10.867   0.436   1.145 -0.3592 -0.3637  1.1890
42990SOL     OW34289   3.359   1.463   9.184 -0.1199 -0.1703  0.0263
42990SOL    HW134290   3.348   1.444   9.277  1.6758  0.2755  0.3650
42990SOL    HW234291   3.349   1.379   9.140  0.9458 -0.7306  0.8307
42991SOL     OW34292   5.198   7.258   7.472  0.3627  0.3601 -0.4178
42991SOL    HW134293   5.114   7.263   7.427 -0.1778 -1.4303  0.3188
42991SOL    HW234294   5.248   7.193   7.422 -0.6475 -2.5094  2.0122
42992SOL     OW34295   4.912   9.974   3.116 -0.3768 -0.2041  0.3069
42992SOL    HW134296   4.835   9.920   3.099  0.3928 -0.5770 -2.2880
42992SOL    HW234297   4.979   9.912   3.143 -0.1422 -0.2666 -0.4116
42993SOL     OW34298   4.931   2.518   3.656  0.2731  0.2379  0.1521
42993SOL    HW134299   5.015   2.551   3.625  1.9150 -1.9779  1.9283
42993SOL    HW234300   4.891   2.478   3.579  1.5526 -0.0604 -0.3869
42994SOL     OW34301   8.110   2.869   0.466 -0.0949 -0.1583 -0.1545
42994SOL    HW134302   8.039   2.831   0.413 -0.2568  0.4019 -0.3462
42994SOL    HW234303   8.166   2.795   0.487 -1.6948 -0.9747  1.5484
42995SOL     OW34304   0.713   0.538   9.617 -0.1783  0.4667  0.2931
42995SOL    HW134305   0.621   0.540   9.642  0.0231  0.1985  1.0650
42995SOL    HW234306   0.759   0.578   9.690  0.4876 -1.0330  0.7172
42996SOL     OW34307   8.831   1.807   2.967  0.0769 -0.0873 -0.2486
42996SOL    HW134308   8.743   1.772   2.985  0.9957 -1.0066  3.2499
42996SOL    HW234309   8.876   1.735   2.924 -0.3074 -0.3749 -0.1828
42997SOL     OW34310   8.718   7.150  10.079  0.0962  0.2189  0.3123
42997SOL    HW134311   8.780   7.081  10.100 -0.2581  0.0464  0.8222
42997SOL    HW234312   8.772   7.228  10.066  0.7434 -0.6226 -2.7011
42998SOL     OW34313   7.270   2.366   5.765  0.1999 -0.3913  0.2340
42998SOL    HW134314   7.232   2.448   5.797 -1.0783 -0.5086 -0.8645
42998SOL    HW234315   7.343   2.394   5.709 -0.5585  0.0579 -0.5672
42999SOL     OW34316   8.426  10.355   0.226 -0.1785  0.2311 -0.0242
42999SOL    HW134317   8.484  10.304   0.283 -0.6659 -1.6961 -1.1873
42999SOL    HW234318   8.481  10.381   0.153 -0.2129  0.4163  0.0157
43000SOL     OW34319   6.120  11.562   4.091 -0.3194 -0.1675  1.2015
43000SOL    HW134320   6.056  11.589   4.157 -0.4880  0.2992  0.8483
43000SOL    HW234321   6.119  11.633   4.027 -0.3290 -0.7377  0.5705
43001SOL     OW34322   7.094   5.387   7.277 -0.1727  0.6270 -0.5017
43001SOL    HW134323   7.164   5.348   7.329 -1.1315 -0.0818  0.3054
43001SOL    HW234324   7.065   5.463   7.327 -0.3424  0.6054 -0.5667
43002SOL     OW34325   0.860  10.539   6.469  0.3014 -0.1174 -0.1414
43002SOL    HW134326   0.764  10.545   6.472  0.2749 -0.0695 -0.8507
43002SOL    HW234327   0.885  10.604   6.404  0.5643 -2.3766 -2.4601
43003SOL     OW34328   4.113   2.911   5.718 -0.1489  0.0966  0.3442
43003SOL    HW134329   4.112   2.995   5.672 -0.9387 -0.2410 -0.2721
43003SOL    HW234330   4.023   2.879   5.713  0.3415 -1.2523 -0.2975
43004SOL     OW34331  10.842   0.432   0.843  0.2355  0.1114  0.3785
43004SOL    HW134332  10.802   0.427   0.757 -0.1153 -0.5087  0.5746
43004SOL    HW234333  10.904   0.505   0.837  0.4894 -0.1725 -0.5061
43005SOL     OW34334   3.312   2.889   3.401  0.1790 -0.4512 -0.0214
43005SOL    HW134335   3.365   2.955   3.357 -0.3040 -0.2909 -0.3666
43005SOL    HW234336   3.226   2.930   3.411  0.1149 -0.7125  0.5260
43006SOL     OW34337   3.632   8.361   5.755 -0.4356 -0.3126 -0.4148
43006SOL    HW134338   3.608   8.449   5.783  1.1241  0.4682 -1.3660
43006SOL    HW234339   3.700   8.333   5.815 -0.9051 -0.8832 -0.1309
43007SOL     OW34340   6.454   0.944   7.911 -0.0605  0.2839 -0.1639
43007SOL    HW134341   6.456   0.854   7.944  0.3461  0.9251  1.7051
43007SOL    HW234342   6.379   0.946   7.851  0.2225 -1.4038 -0.6303
43008SOL     OW34343   1.208   2.156   9.851  0.4998 -0.5624 -0.6760
43008SOL    HW134344   1.276   2.181   9.788 -1.0970 -1.1755 -2.7383
43008SOL    HW234345   1.246   2.081   9.897  1.2670 -0.8532 -1.7246
43009SOL     OW34346   9.203   1.898   2.150 -0.0752  0.7133 -0.1349
43009SOL    HW134347   9.210   1.941   2.236 -2.3182 -0.1726  0.5696
43009SOL    HW234348   9.231   1.965   2.088 -2.6803  3.0513  0.9634
43010SOL     OW34349  11.766   1.707   1.448 -0.0686  0.0972  0.4916
43010SOL    HW134350  11.795   1.798   1.445 -2.9285  1.0969 -1.2906
43010SOL    HW234351  11.672   1.712   1.469 -0.2260 -2.4707  0.7690
43011SOL     OW34352  10.480   9.522   4.228 -0.2232  0.1228  0.3406
43011SOL    HW134353  10.520   9.541   4.313 -1.9015 -0.8528  1.3940
43011SOL    HW234354  10.455   9.430   4.233 -1.5799  0.4014 -0.6809
43012SOL     OW34355  11.199   4.077   5.089  0.6633 -0.5993 -0.7140
43012SOL    HW134356  11.234   4.007   5.143 -0.8259 -0.7228  0.1328
43012SOL    HW234357  11.197   4.153   5.146  1.0429 -0.1858 -1.2390
43013SOL     OW34358   2.226   5.903   5.484 -0.1717  0.3342  0.3024
43013SOL    HW134359   2.134   5.892   5.462 -0.4345  0.5094  1.2818
43013SOL    HW234360   2.231   5.988   5.527  0.4555  0.3436  0.2223
43014SOL     OW34361   7.143  11.559   0.142  0.3837 -0.0507 -0.3015
43014SOL    HW134362   7.158  11.576   0.049  0.7159  0.2269 -0.1999
43014SOL    HW234363   7.051  11.535   0.147  0.5856 -1.0044 -0.8366
43015SOL     OW34364   7.684   1.284   7.746  0.1585  0.1619  0.2029
43015SOL    HW134365   7.741   1.213   7.716  0.0983 -0.2410  1.0228
43015SOL    HW234366   7.743   1.351   7.779  0.1919  0.2479 -0.0265
43016SOL     OW34367  11.592   7.605   7.042 -0.0773  0.5158 -0.4653
43016SOL    HW134368  11.539   7.660   6.984  2.0927  0.4941 -2.6805
43016SOL    HW234369  11.615   7.663   7.114 -0.9823  1.3072 -0.7863
43017SOL     OW34370   2.217   9.598   4.939 -0.1223  0.2251 -0.4350
43017SOL    HW134371   2.235   9.523   4.881  0.3089 -0.3278  0.3958
43017SOL    HW234372   2.188   9.667   4.880  1.6401  0.1238 -1.5147
43018SOL     OW34373   1.935   9.270   6.390  0.1538 -0.2286  0.0287
43018SOL    HW134374   2.013   9.220   6.412  0.4606  0.3722  0.3609
43018SOL    HW234375   1.866   9.205   6.378  0.4203 -0.7027  0.9494
43019SOL     OW34376   8.345   0.083   8.999 -0.3800 -0.6888  0.0161
43019SOL    HW134377   8.292   0.007   9.024 -0.5630 -0.7635 -0.5649
43019SOL    HW234378   8.433   0.061   9.027 -0.2489 -1.5513 -0.9870
43020SOL     OW34379   9.255   7.458   9.763 -0.1557 -0.0109 -0.0720
43020SOL    HW134380   9.246   7.437   9.670  0.6788 -2.4090  0.3200
43020SOL    HW234381   9.192   7.402   9.807  1.1151 -0.6995  0.9508
43021SOL     OW34382  10.603   4.384   2.978 -0.3648  0.3760 -0.2227
43021SOL    HW134383  10.548   4.455   2.944  0.7901  1.5006  0.1574
43021SOL    HW234384  10.581   4.379   3.071 -0.1061  0.5688 -0.1497
43022SOL     OW34385   5.458   9.540   0.954  0.3566  0.0408 -0.2773
43022SOL    HW134386   5.401   9.566   1.026 -1.2780  0.1699 -1.5699
43022SOL    HW234387   5.469   9.620   0.902 -0.8831 -0.6991 -1.7389
43023SOL     OW34388   6.893   6.048   4.887 -0.7186  0.5908 -0.3800
43023SOL    HW134389   6.807   6.029   4.925 -0.5713 -0.2794 -0.4513
43023SOL    HW234390   6.937   5.963   4.883 -0.4268  0.7792 -1.7480
43024SOL     OW34391   5.172   8.236  10.499  0.9766  0.4617  0.0650
43024SOL    HW134392   5.129   8.256  10.583  0.1828 -0.9996  0.0331
43024SOL    HW234393   5.265   8.234  10.520  0.7636 -0.2934  1.0159
43025SOL     OW34394   3.147   6.748   7.608  0.1865  0.6503  0.4425
43025SOL    HW134395   3.176   6.676   7.665 -2.0319 -0.0783  0.7300
43025SOL    HW234396   3.067   6.715   7.566  0.5981  1.9592 -1.5231
43026SOL     OW34397   0.820  10.153   3.097  0.3156  0.0024 -0.9175
43026SOL    HW134398   0.909  10.120   3.089  0.3459  0.0225 -0.6756
43026SOL    HW234399   0.825  10.243   3.065 -0.0086 -0.5734 -2.6972
43027SOL     OW34400   2.734   0.900   7.015 -0.7252  0.2414  0.0354
43027SOL    HW134401   2.760   0.822   6.966 -1.4427 -0.4678  0.7430
43027SOL    HW234402   2.763   0.973   6.961  0.4883 -0.5100 -0.3720
43028SOL     OW34403   2.558   9.165  10.851  0.2747  0.2240  0.3349
43028SOL    HW134404   2.486   9.151  10.911  1.4236  0.7905  1.9127
43028SOL    HW234405   2.636   9.142  10.901  1.3205  1.2440 -0.7522
43029SOL     OW34406   5.689   8.136   9.033 -0.0813  0.0279 -0.3582
43029SOL    HW134407   5.779   8.129   9.001  0.5005  0.1350  1.1577
43029SOL    HW234408   5.650   8.205   8.980  1.1008  0.7867 -0.2771
43030SOL     OW34409   7.660   7.528   6.371  0.4962  0.0040  0.5257
43030SOL    HW134410   7.724   7.596   6.392  1.2721 -0.4605 -0.2793
43030SOL    HW234411   7.671   7.513   6.277 -0.6107 -0.2817  0.4268
43031SOL     OW34412  10.463   8.914   0.658  0.4379  0.0630 -0.4226
43031SOL    HW134413  10.398   8.968   0.614 -0.1902  1.5240  2.0955
43031SOL    HW234414  10.415   8.872   0.730  1.4942 -1.8627 -0.7693
43032SOL     OW34415   2.969  11.735   1.592  0.0983  0.6732 -0.3078
43032SOL    HW134416   2.945  11.693   1.509  0.3155 -0.0044 -0.0349
43032SOL    HW234417   3.022  11.669   1.637 -0.8564  0.6363  0.8113
43033SOL     OW34418   5.463   7.422   2.878 -0.5321 -0.2804  0.6465
43033SOL    HW134419   5.387   7.364   2.882 -0.2583 -0.8781 -1.3922
43033SOL    HW234420   5.428   7.506   2.849 -0.3821 -0.8075 -1.2414
43034SOL     OW34421   4.383   7.422  11.163 -0.0103 -0.3342 -0.7102
43034SOL    HW134422   4.364   7.445  11.254 -1.6095 -0.9520 -0.8676
43034SOL    HW234423   4.440   7.345  11.170  0.8987  0.3555 -0.2426
43035SOL     OW34424   9.376   7.396   7.800  0.2323  0.3022  0.0787
43035SOL    HW134425   9.415   7.455   7.864 -0.2759 -0.8997  1.5538
43035SOL    HW234426   9.450   7.355   7.756  0.6132 -0.0160  1.0038
43036SOL     OW34427   8.887   7.181   7.268 -0.6423 -0.4424  0.3815
43036SOL    HW134428   8.982   7.179   7.281 -0.4401  1.1388 -0.5773
43036SOL    HW234429   8.862   7.270   7.295 -1.6061 -0.3369 -0.8313
43037SOL     OW34430  11.608   4.746   6.318 -0.7063 -0.3087 -0.1156
43037SOL    HW134431  11.558   4.787   6.388  0.8357 -0.0797  0.8999
43037SOL    HW234432  11.560   4.767   6.238 -1.7350  0.6288  0.7252
43038SOL     OW34433   4.604  11.427   0.358  0.2601  0.9148  0.1757
43038SOL    HW134434   4.643  11.448   0.274  1.8078 -1.6830  0.1360
43038SOL    HW234435   4.592  11.332   0.357  2.2049  0.4309  3.5235
43039SOL     OW34436   6.548   5.083   4.750 -0.2912  0.0820  0.2250
43039SOL    HW134437   6.524   5.114   4.837 -0.2822  3.7653 -0.9498
43039SOL    HW234438   6.630   5.034   4.764  0.3575  1.5973  2.1398
43040SOL     OW34439   9.490   8.820   1.588  0.3767 -0.0971  0.5102
43040SOL    HW134440   9.441   8.737   1.584 -0.6376  0.3712  2.2252
43040SOL    HW234441   9.438   8.881   1.535  1.2768 -0.5856 -0.9959
43041SOL     OW34442   1.343  11.543   5.921 -0.5170  0.1538 -0.5829
43041SOL    HW134443   1.416  11.502   5.966  0.4577  0.8218 -1.5152
43041SOL    HW234444   1.298  11.471   5.877  0.8992 -0.0208 -1.8172
43042SOL     OW34445   2.290   8.832   6.892  0.3378 -0.5516 -0.5061
43042SOL    HW134446   2.323   8.921   6.876 -0.9068  0.2970  1.2238
43042SOL    HW234447   2.366   8.783   6.921  0.7491  0.4207  0.1214
43043SOL     OW34448   4.919  10.802   3.916 -0.5967  0.7511 -0.4635
43043SOL    HW134449   4.935  10.791   3.822 -0.6169  1.5471 -0.5676
43043SOL    HW234450   4.908  10.896   3.927 -1.9822  0.5410  0.1218
43044SOL     OW34451  10.472   7.855   5.746  0.0662 -0.1025 -0.3117
43044SOL    HW134452  10.453   7.923   5.681 -1.3990 -0.0686  0.1138
43044SOL    HW234453  10.426   7.884   5.825 -0.2196 -1.3683  0.0030
43045SOL     OW34454   0.042  11.451   2.198  0.0297 -0.0922  0.0107
43045SOL    HW134455   0.033  11.365   2.240  2.9240 -0.1095  0.8360
43045SOL    HW234456   0.058  11.511   2.270  4.0329  0.0516 -0.7673
43046SOL     OW34457   7.267   6.986   5.839  0.0009  0.2291 -0.0935
43046SOL    HW134458   7.218   6.905   5.851 -0.5352  0.7557  1.5387
43046SOL    HW234459   7.216   7.036   5.775  0.1580 -0.5623 -0.8498
43047SOL     OW34460   3.615   8.022   1.358  0.1062  0.3157  0.1246
43047SOL    HW134461   3.621   8.085   1.286  1.6460 -0.0705 -0.1258
43047SOL    HW234462   3.558   7.953   1.324 -0.2904  0.7990 -0.2073
43048SOL     OW34463   5.744   6.095   1.367  0.1165 -0.3644 -0.2951
43048SOL    HW134464   5.710   6.046   1.442 -0.2217 -1.4972 -1.1768
43048SOL    HW234465   5.702   6.181   1.375  1.0871 -0.0056  1.5277
43049SOL     OW34466   7.021   1.370   6.819 -0.0196 -0.3189 -0.6322
43049SOL    HW134467   7.086   1.388   6.751 -0.5022 -1.5847 -1.4659
43049SOL    HW234468   7.023   1.448   6.875  1.3202  0.1958 -1.3377
43050SOL     OW34469   3.918   0.013   4.850 -0.1038  0.0172  0.2933
43050SOL    HW134470   3.890  -0.078   4.867 -3.0070  0.6815 -0.3434
43050SOL    HW234471   3.880   0.063   4.922 -0.1376  0.9662 -0.3757
43051SOL     OW34472   6.279  11.060   9.805 -0.4891 -0.4139  0.3102
43051SOL    HW134473   6.185  11.078   9.805 -0.2911  0.7342 -0.3619
43051SOL    HW234474   6.293  11.005   9.729 -0.6441 -0.7592  0.5295
43052SOL     OW34475   1.030   1.294   4.369 -0.0072 -0.0472  0.0496
43052SOL    HW134476   0.949   1.248   4.394 -1.0657  0.2415 -2.5240
43052SOL    HW234477   1.049   1.263   4.281  0.7875  2.4042 -0.7130
43053SOL     OW34478   8.960  11.257   8.030  0.1053 -0.4296  0.2538
43053SOL    HW134479   8.917  11.266   8.115 -1.8197 -0.1172 -0.7053
43053SOL    HW234480   8.969  11.346   7.997  1.4189 -0.4978  0.3628
43054SOL     OW34481  10.014   9.085   5.911  0.0711  0.3320  0.3650
43054SOL    HW134482  10.060   9.010   5.947  1.0794  0.9168  0.3241
43054SOL    HW234483   9.940   9.047   5.864  0.3230 -0.6030  0.7057
43055SOL     OW34484   0.739   8.124   6.632  0.0965  0.4649  0.8574
43055SOL    HW134485   0.656   8.171   6.628 -0.3571 -0.3769  0.1221
43055SOL    HW234486   0.720   8.037   6.595  1.7633  0.9076 -1.2244
43056SOL     OW34487   2.949   8.699   0.449 -0.4556 -0.7478 -0.1146
43056SOL    HW134488   3.034   8.689   0.491 -0.4011 -0.3625 -0.1291
43056SOL    HW234489   2.958   8.655   0.364 -0.4526 -1.2066  0.1187
43057SOL     OW34490   2.822  10.400   7.839 -0.5797 -0.0210 -0.0821
43057SOL    HW134491   2.830  10.304   7.845  1.3365  0.1504  1.2875
43057SOL    HW234492   2.751  10.415   7.777  1.3548 -2.3268 -3.1373
43058SOL     OW34493   3.648   5.192  11.007  0.3757 -0.3903 -0.1657
43058SOL    HW134494   3.649   5.286  11.028  0.6917 -0.5245  0.4386
43058SOL    HW234495   3.555   5.170  11.005  0.2680  0.0871 -1.0447
43059SOL     OW34496   1.402   3.620   1.982 -0.1965  0.3390 -0.0815
43059SOL    HW134497   1.487   3.646   2.017  0.1260  0.0396 -0.6290
43059SOL    HW234498   1.404   3.525   1.982 -1.6920  0.1716  2.7106
43060SOL     OW34499   2.841   3.498   5.552  0.4806 -0.0445 -0.1908
43060SOL    HW134500   2.922   3.483   5.601 -0.0727 -0.3880  0.6202
43060SOL    HW234501   2.866   3.484   5.460  1.0174 -1.5548  0.1683
43061SOL     OW34502   2.623   4.036   4.608 -0.4254 -0.0305  0.0920
43061SOL    HW134503   2.706   4.055   4.565 -1.7956  0.5208 -2.5273
43061SOL    HW234504   2.600   3.948   4.579  0.0083 -0.9029  2.2246
43062SOL     OW34505  10.714   8.306   6.366  0.0261  0.1979  0.0021
43062SOL    HW134506  10.645   8.367   6.338 -1.1665 -1.4528 -0.7888
43062SOL    HW234507  10.773   8.301   6.292  0.2934  0.5987  0.1822
43063SOL     OW34508   8.133   6.230   8.362 -0.1590  0.1257  0.3403
43063SOL    HW134509   8.104   6.145   8.395 -1.8741  0.8521  0.7766
43063SOL    HW234510   8.165   6.276   8.440  0.2667  0.0936  0.1898
43064SOL     OW34511   5.092   7.114   6.752 -0.4608 -0.1440 -0.7633
43064SOL    HW134512   5.070   7.057   6.825  1.1414  1.9003  1.4958
43064SOL    HW234513   5.145   7.060   6.694 -0.6907 -1.4975  0.2484
43065SOL     OW34514   8.897   1.665  10.707 -0.2077 -0.1096 -0.4238
43065SOL    HW134515   8.875   1.740  10.652  0.6859 -0.3949 -1.1987
43065SOL    HW234516   8.841   1.594  10.675  0.4756 -0.3380 -1.1442
43066SOL     OW34517  10.258   7.732   3.342 -0.0607 -0.1306 -0.1998
43066SOL    HW134518  10.282   7.656   3.289  1.0996  0.5645 -0.7082
43066SOL    HW234519  10.175   7.707   3.383 -0.4765 -1.0849 -1.5403
43067SOL     OW34520   8.763  11.671   3.688  0.2172 -0.4997 -0.2029
43067SOL    HW134521   8.732  11.623   3.612  0.0656 -0.4870 -0.1492
43067SOL    HW234522   8.774  11.761   3.658  0.7869 -0.6243 -0.3837
43068SOL     OW34523   2.336   6.772   2.138 -0.3979  0.1061 -0.2508
43068SOL    HW134524   2.418   6.810   2.168 -0.7877  0.5217  0.3011
43068SOL    HW234525   2.362   6.706   2.073  0.3566  0.3361 -0.1855
43069SOL     OW34526   6.712   5.813   6.689 -0.2246  0.3506 -0.0165
43069SOL    HW134527   6.696   5.785   6.779 -0.5230  2.7360  0.7450
43069SOL    HW234528   6.679   5.741   6.635 -1.1009 -0.6400  1.7495
43070SOL     OW34529   5.759   2.019  11.782  0.2088  0.4040  0.4958
43070SOL    HW134530   5.759   2.113  11.800 -0.6806  0.6641 -0.6978
43070SOL    HW234531   5.718   1.979  11.859  0.2771  1.0250  0.8566
43071SOL     OW34532   9.197   4.229   3.376 -0.2488 -1.1848  0.0836
43071SOL    HW134533   9.211   4.234   3.282  0.5434 -0.2804  0.2363
43071SOL    HW234534   9.210   4.137   3.398  0.7607 -1.1905 -0.5143
43072SOL     OW34535   1.127   9.483   8.899 -0.3292 -0.4887  0.3902
43072SOL    HW134536   1.062   9.505   8.966  0.0524  0.9189  0.3133
43072SOL    HW234537   1.099   9.397   8.867 -1.8550 -0.1507  0.7163
43073SOL     OW34538   1.855   7.672  10.112  0.0474  0.1897 -0.0463
43073SOL    HW134539   1.900   7.606  10.166 -0.5352  0.4631  0.7965
43073SOL    HW234540   1.925   7.732  10.085  0.0361  1.7158  2.8519
43074SOL     OW34541  11.813  10.998   5.812  0.0034 -0.6161 -0.5754
43074SOL    HW134542  11.770  11.084   5.820  3.8252  1.3780  2.8134
43074SOL    HW234543  11.787  10.951   5.891  0.1773 -1.4089 -0.9834
43075SOL     OW34544   9.563   8.249   4.678 -0.2043  0.1313 -0.0737
43075SOL    HW134545   9.488   8.189   4.673  0.5653 -0.9973  1.3419
43075SOL    HW234546   9.528   8.333   4.649 -1.4350 -0.8605 -1.6653
43076SOL     OW34547   1.574   8.738   8.154 -0.1531  0.5838 -0.0287
43076SOL    HW134548   1.565   8.777   8.240 -0.1518  0.3028  0.1012
43076SOL    HW234549   1.572   8.643   8.170 -2.3213  0.4761 -0.5285
43077SOL     OW34550   5.309   1.477   8.152  0.3875  0.5400  0.2791
43077SOL    HW134551   5.404   1.471   8.156  0.3380 -0.6431  0.0820
43077SOL    HW234552   5.278   1.388   8.166 -0.6564  0.6887 -0.8422
43078SOL     OW34553   0.619   9.147   5.640 -0.0060 -0.1397 -0.1487
43078SOL    HW134554   0.680   9.207   5.684 -1.3715  0.2914  1.2376
43078SOL    HW234555   0.533   9.189   5.649 -0.8676 -1.8633  0.0626
43079SOL     OW34556   6.369   7.426   5.861 -0.7218 -0.1580  0.3203
43079SOL    HW134557   6.407   7.346   5.896  0.7461 -0.3141 -1.4534
43079SOL    HW234558   6.441   7.489   5.861 -0.3583 -0.3849 -2.8922
43080SOL     OW34559  11.472   4.030  11.673  0.2321 -0.0987 -0.7623
43080SOL    HW134560  11.385   4.047  11.711  0.9067  1.5887  0.1651
43080SOL    HW234561  11.496   3.943  11.704  0.0642  0.5820  1.4421
43081SOL     OW34562   5.853   5.478   7.970  0.1010 -1.2288  0.1769
43081SOL    HW134563   5.787   5.442   8.028  1.2367 -1.7056  1.2117
43081SOL    HW234564   5.881   5.559   8.013  1.5362 -1.9995  0.7793
43082SOL     OW34565  10.494  11.670   8.142  0.4265  0.1438  0.3510
43082SOL    HW134566  10.484  11.728   8.066 -3.6377 -0.4673  0.1899
43082SOL    HW234567  10.548  11.598   8.109 -0.8535  0.1168 -1.8986
43083SOL     OW34568   4.783   6.661   7.573 -0.3483 -0.4810 -0.3336
43083SOL    HW134569   4.703   6.655   7.521 -2.3605  0.9468  2.3344
43083SOL    HW234570   4.781   6.583   7.628 -0.5481  0.1291  0.5382
43084SOL     OW34571   9.739   1.312   7.604  0.0455  0.5055 -0.0045
43084SOL    HW134572   9.652   1.288   7.574 -0.2511  2.2699 -0.6863
43084SOL    HW234573   9.724   1.375   7.675  0.7316  1.4440 -0.6617
43085SOL     OW34574   1.174  11.081  11.727  0.5107  0.4663  0.0843
43085SOL    HW134575   1.109  11.076  11.657  0.7733  0.5279 -0.1670
43085SOL    HW234576   1.175  11.173  11.753  0.7125  0.5197 -0.1163
43086SOL     OW34577   5.683   9.883  10.792 -0.5549  0.5915  0.4251
43086SOL    HW134578   5.589   9.873  10.777 -0.5688  1.2434  0.0359
43086SOL    HW234579   5.717   9.917  10.710  0.2170 -0.7081  0.1933
43087SOL     OW34580   2.135   4.154   0.374 -0.4593  0.5415  0.2166
43087SOL    HW134581   2.171   4.069   0.399 -1.2655 -0.2394 -1.1621
43087SOL    HW234582   2.197   4.188   0.310 -0.2807  0.8903  0.5661
43088SOL     OW34583   1.248  11.557   3.444  0.0470  0.2842 -0.0343
43088SOL    HW134584   1.179  11.506   3.486  1.7271 -1.6770  0.5069
43088SOL    HW234585   1.327  11.533   3.492  1.1082  2.6207 -0.4879
43089SOL     OW34586   0.191   2.330  11.816 -0.0853 -0.3617 -0.4951
43089SOL    HW134587   0.239   2.257  11.855  1.3236  0.0284 -1.4092
43089SOL    HW234588   0.124   2.352  11.881  2.3289  0.4573  1.9296
43090SOL     OW34589   8.473   3.957   5.748 -0.2924  0.0210 -0.0850
43090SOL    HW134590   8.413   3.883   5.754  1.0548 -1.2491 -1.2834
43090SOL    HW234591   8.502   3.973   5.838  0.0762 -1.5068  0.0822
43091SOL     OW34592  11.152   8.118   0.440 -0.2625  0.5188  0.0296
43091SOL    HW134593  11.230   8.165   0.467 -0.7806  1.7153 -0.4539
43091SOL    HW234594  11.149   8.130   0.345 -2.2298  2.5243  0.2543
43092SOL     OW34595   6.500   2.957   1.774 -0.0180  0.3013 -0.2999
43092SOL    HW134596   6.451   2.907   1.839  2.0616 -0.5236  0.7414
43092SOL    HW234597   6.592   2.940   1.795  0.7531  2.0451 -1.9128
43093SOL     OW34598   2.388  10.511  11.174  1.0014  0.2239  0.5131
43093SOL    HW134599   2.310  10.463  11.200 -0.9185  2.3765 -0.9314
43093SOL    HW234600   2.439  10.520  11.255 -0.0550 -1.4614  1.4233
43094SOL     OW34601  11.116  10.869   4.121 -0.2852 -0.1282 -0.1532
43094SOL    HW134602  11.136  10.952   4.165  1.3529 -0.7221  0.3043
43094SOL    HW234603  11.133  10.886   4.029  1.9035 -0.4205  0.1424
43095SOL     OW34604   6.646   9.672   6.902 -0.2560  0.6128  0.5594
43095SOL    HW134605   6.669   9.755   6.943  1.8774  0.9479 -1.0590
43095SOL    HW234606   6.695   9.606   6.952  1.8507  0.9512 -0.9046
43096SOL     OW34607   7.940   9.642  11.568  0.4066 -0.0830  0.2171
43096SOL    HW134608   8.032   9.659  11.550  0.7855 -2.3453 -0.3391
43096SOL    HW234609   7.897   9.652  11.483 -0.1803  2.3964  0.7295
43097SOL     OW34610   1.342   5.619   3.394  0.8285 -0.3161  0.7908
43097SOL    HW134611   1.256   5.660   3.400  1.6426  1.4695  0.6030
43097SOL    HW234612   1.354   5.577   3.480  0.0639 -0.0206  1.0505
43098SOL     OW34613   8.004   5.935   6.439 -0.1024  0.4146  0.2878
43098SOL    HW134614   7.990   5.942   6.533  0.2002 -0.5811  0.4216
43098SOL    HW234615   7.942   5.997   6.400  0.7613  1.8877  1.1842
43099SOL     OW34616   8.709   3.004   5.825  0.1485 -0.0752 -0.2480
43099SOL    HW134617   8.670   3.091   5.817 -2.0300 -0.9251  0.4035
43099SOL    HW234618   8.776   3.001   5.757  0.8083  2.3548  0.2028
43100SOL     OW34619  10.079   4.960   5.939  0.2288  0.0975  0.0687
43100SOL    HW134620   9.985   4.975   5.940  0.2357  0.1265  0.2215
43100SOL    HW234621  10.113   5.026   5.878  0.0147 -0.7160 -0.9601
43101SOL     OW34622   1.935   5.176  11.560 -0.2357  0.5465  0.9258
43101SOL    HW134623   1.883   5.109  11.516 -0.6830  0.2027  1.9390
43101SOL    HW234624   1.890   5.190  11.643 -2.2046  4.6812 -0.6005
43102SOL     OW34625   4.920   1.498   7.987 -0.1768  0.5515 -0.3010
43102SOL    HW134626   4.829   1.522   8.006  0.1125  0.5714  1.2013
43102SOL    HW234627   4.914   1.408   7.954 -0.6766  0.1854  0.7367
43103SOL     OW34628   5.607   0.699   7.180  0.2108 -0.3388 -0.0801
43103SOL    HW134629   5.660   0.687   7.259 -0.7885 -0.3355  0.6045
43103SOL    HW234630   5.517   0.687   7.209 -0.2288  0.3865 -1.0821
43104SOL     OW34631   2.504   6.813   1.653 -0.4837 -0.2260 -0.1970
43104SOL    HW134632   2.542   6.801   1.566 -1.7630 -2.1534 -0.5697
43104SOL    HW234633   2.572   6.785   1.713 -0.1942 -0.6015 -0.6886
43105SOL     OW34634   8.649   3.651   5.645  0.7843 -0.0072 -0.3633
43105SOL    HW134635   8.677   3.624   5.732  0.2734 -0.3888 -0.3101
43105SOL    HW234636   8.664   3.745   5.642  0.8336  0.0007  0.1224
43106SOL     OW34637   0.373  10.539   2.290 -0.1993  0.2669 -0.8975
43106SOL    HW134638   0.344  10.625   2.257  0.4344  0.5339 -0.7662
43106SOL    HW234639   0.460  10.527   2.254  0.3903  0.4229  0.4060
43107SOL     OW34640   2.137  11.369   3.877 -0.1472  0.0632  0.1375
43107SOL    HW134641   2.044  11.369   3.854  0.4319  0.9774 -2.5551
43107SOL    HW234642   2.168  11.456   3.853  1.7272 -0.7419 -0.5421
43108SOL     OW34643   5.195   8.892   3.372  0.0202 -0.3237  0.0800
43108SOL    HW134644   5.171   8.805   3.406  0.9935 -0.0535  1.5754
43108SOL    HW234645   5.113   8.929   3.342 -0.2396 -2.2565 -1.8365
43109SOL     OW34646   4.456   8.116   1.843  0.2856  0.4225 -0.1448
43109SOL    HW134647   4.485   8.078   1.760 -0.3011  0.8437 -0.5501
43109SOL    HW234648   4.432   8.206   1.821 -0.3194  0.3976  0.3922
43110SOL     OW34649   3.740  10.833   0.836  0.0101  0.6613 -0.2793
43110SOL    HW134650   3.696  10.861   0.916  0.1846  0.7274 -0.2063
43110SOL    HW234651   3.670  10.796   0.782 -0.2411  1.3431 -0.4286
43111SOL     OW34652   2.936   9.964   2.356  0.9031  0.0244 -0.2457
43111SOL    HW134653   2.967   9.897   2.296  1.6510  0.3124 -0.1926
43111SOL    HW234654   2.894  10.030   2.300 -0.6422 -0.8905 -0.2249
43112SOL     OW34655   1.516   7.516   8.353 -0.3670  0.1342 -0.2961
43112SOL    HW134656   1.548   7.590   8.301  0.1173 -0.1018 -0.3341
43112SOL    HW234657   1.475   7.458   8.288  0.3061 -0.1975 -0.4270
43113SOL     OW34658   4.251   8.352  11.014  0.2513 -0.7622 -0.8847
43113SOL    HW134659   4.207   8.337  10.931 -0.3730 -1.4631 -0.4374
43113SOL    HW234660   4.184   8.336  11.080  1.4359 -3.1285 -0.1302
43114SOL     OW34661   2.072   0.011  10.199  0.3085  0.0670  0.2503
43114SOL    HW134662   2.087  -0.048  10.125 -2.0632  0.9437 -1.0500
43114SOL    HW234663   2.135   0.083  10.186  0.4846 -0.2031 -0.4357
43115SOL     OW34664   1.631   5.242   8.125  0.1373  0.2534 -0.3930
43115SOL    HW134665   1.718   5.281   8.129 -0.0302  0.7796 -1.3761
43115SOL    HW234666   1.586   5.292   8.057 -1.3081  0.7446  0.8623
43116SOL     OW34667   3.073  10.348   9.217  0.4543 -0.0734  0.4044
43116SOL    HW134668   3.142  10.285   9.193  0.4927  0.1564 -0.0912
43116SOL    HW234669   2.996  10.319   9.168  0.2913 -0.1167  0.6817
43117SOL     OW34670   4.028   6.573   9.081 -0.0201  0.0284  0.4687
43117SOL    HW134671   4.119   6.576   9.111  0.0187  0.7452  0.3055
43117SOL    HW234672   3.979   6.542   9.157  0.4560 -1.1897  0.3013
43118SOL     OW34673   7.222   5.567   5.685 -0.0362 -0.6201 -0.0939
43118SOL    HW134674   7.140   5.525   5.658  0.0408 -1.5646  1.0569
43118SOL    HW234675   7.278   5.495   5.713  1.2485  0.0086 -0.9555
43119SOL     OW34676   3.831   0.088   2.869 -0.0812  0.7565  0.0665
43119SOL    HW134677   3.879   0.035   2.934 -0.5696 -0.5258 -0.5789
43119SOL    HW234678   3.790   0.157   2.921 -0.5706 -0.3158  1.1749
43120SOL     OW34679   9.397   7.462   1.125 -0.7739 -0.0737 -0.0163
43120SOL    HW134680   9.446   7.436   1.047 -0.3157  1.1156 -0.1542
43120SOL    HW234681   9.462   7.458   1.196 -1.0836 -0.7447  0.2384
43121SOL     OW34682   5.099   4.704   9.810 -0.7133  0.0699 -0.4008
43121SOL    HW134683   5.080   4.784   9.761 -2.0748 -0.8123 -1.3765
43121SOL    HW234684   5.119   4.639   9.742 -0.4900 -0.6420  0.3380
43122SOL     OW34685   2.518   6.488   9.737 -0.1098 -0.2048  0.2943
43122SOL    HW134686   2.435   6.442   9.724  0.3823 -1.3186  0.9995
43122SOL    HW234687   2.520   6.553   9.667 -1.3393 -0.5043 -0.0434
43123SOL     OW34688   6.356   0.421   6.667 -0.1349  0.4432  0.0484
43123SOL    HW134689   6.378   0.335   6.703 -1.5528  0.1340  0.2226
43123SOL    HW234690   6.281   0.405   6.610  1.2284  1.1416 -2.0824
43124SOL     OW34691   7.036   9.514   9.831 -0.4651  0.3547  0.4819
43124SOL    HW134692   7.002   9.569   9.901 -1.1815 -0.4180  0.7680
43124SOL    HW234693   6.968   9.447   9.818  0.7511 -0.9861  0.7495
43125SOL     OW34694   7.677   1.078   1.959  0.3393  0.0474  0.1403
43125SOL    HW134695   7.709   1.167   1.948 -2.9895  1.4069  0.2750
43125SOL    HW234696   7.687   1.059   2.052 -0.7081  1.1064  0.4912
43126SOL     OW34697   8.419   9.973   5.591  0.6230  0.0770  0.9037
43126SOL    HW134698   8.507   9.969   5.627  0.5375  0.0438  1.1106
43126SOL    HW234699   8.409   9.891   5.543  1.1343  0.6049 -0.1288
43127SOL     OW34700   8.321   8.860   5.575  0.0826 -0.2371  0.0079
43127SOL    HW134701   8.234   8.861   5.614 -0.3202  2.6740 -0.6935
43127SOL    HW234702   8.306   8.853   5.481  0.4399  1.5622 -0.2314
43128SOL     OW34703  10.520   9.494   5.920 -0.0996 -0.2666  0.3894
43128SOL    HW134704  10.597   9.509   5.975  1.0849 -0.6337 -1.0766
43128SOL    HW234705  10.490   9.582   5.896  0.9141 -0.1045 -0.3704
43129SOL     OW34706  11.791   2.360   5.255  0.1777 -0.2954  0.9966
43129SOL    HW134707  11.716   2.414   5.280  0.1411 -0.0669  0.4228
43129SOL    HW234708  11.769   2.328   5.167  2.0380  2.2610 -0.5615
43130SOL     OW34709   7.705   8.951   1.256  0.1292 -0.0567  0.2479
43130SOL    HW134710   7.709   8.949   1.161  0.8218  0.9587  0.2460
43130SOL    HW234711   7.667   8.866   1.280  0.2034 -0.4313 -0.9072
43131SOL     OW34712   7.563   5.018   1.355  0.0122 -0.3023 -0.4942
43131SOL    HW134713   7.536   5.105   1.385  0.0457 -0.3011 -0.4678
43131SOL    HW234714   7.530   4.959   1.423  1.6764 -0.1453  0.4961
43132SOL     OW34715   3.724   3.228   3.302  0.4548 -0.1728 -0.1727
43132SOL    HW134716   3.663   3.291   3.341  0.7561  0.9445 -1.3955
43132SOL    HW234717   3.741   3.264   3.214  1.8639 -1.1438 -0.3231
43133SOL     OW34718   7.252   9.835  11.044 -0.6012 -0.4876  0.2521
43133SOL    HW134719   7.339   9.875  11.035 -0.8965  0.0234 -0.4759
43133SOL    HW234720   7.198   9.904  11.082 -0.7815 -0.6700  0.3252
43134SOL     OW34721   7.885  10.956   9.220 -0.1984  0.1662 -0.3115
43134SOL    HW134722   7.815  11.021   9.227 -0.1794  0.1410  0.1395
43134SOL    HW234723   7.859  10.886   9.280 -0.1551 -0.1851 -0.6963
43135SOL     OW34724   9.388   7.719   6.045 -0.1420 -0.3668 -0.2820
43135SOL    HW134725   9.435   7.768   5.979  0.2156 -0.0458  0.2048
43135SOL    HW234726   9.383   7.778   6.120  2.4009 -1.8569  1.2063
43136SOL     OW34727   1.312   7.758   1.123  0.1525 -0.0529 -0.4692
43136SOL    HW134728   1.382   7.787   1.181  0.5699 -1.8407 -0.0057
43136SOL    HW234729   1.311   7.823   1.052  0.1457  1.7310  1.1056
43137SOL     OW34730  10.289   8.762   2.232  0.5265 -0.2856 -0.4941
43137SOL    HW134731  10.280   8.856   2.247 -0.7634 -0.1864 -1.6428
43137SOL    HW234732  10.277   8.722   2.318 -0.1007  0.5412 -0.1839
43138SOL     OW34733   9.460  11.388   8.164  0.4506  0.3281  0.1678
43138SOL    HW134734   9.415  11.467   8.193 -2.2463 -0.7867 -0.6759
43138SOL    HW234735   9.538  11.384   8.219  0.8960  3.7167  0.0077
43139SOL     OW34736   5.747   0.407   9.334  0.0239  0.0186 -0.1186
43139SOL    HW134737   5.836   0.432   9.360 -0.2341  0.9323 -0.0492
43139SOL    HW234738   5.690   0.469   9.380 -0.5409  0.6061 -1.5215
43140SOL     OW34739   8.193   5.654   0.941 -0.4133  0.0606 -0.5265
43140SOL    HW134740   8.246   5.591   0.892 -0.9124 -0.6040 -0.2360
43140SOL    HW234741   8.116   5.604   0.969 -0.3544  0.5440  0.5515
43141SOL     OW34742  10.313   2.621   6.992  0.6425  0.3640 -0.4220
43141SOL    HW134743  10.402   2.592   6.969  0.8222  1.8274 -1.7650
43141SOL    HW234744  10.316   2.634   7.087  1.2346 -1.5724 -0.1360
43142SOL     OW34745   8.983   7.214  11.232  0.3835  0.4475 -0.5896
43142SOL    HW134746   9.067   7.208  11.277  0.7224  1.3791 -1.0668
43142SOL    HW234747   8.975   7.131  11.185  1.2861  0.5469 -0.9517
43143SOL     OW34748   0.352   7.699   5.404 -0.1906  0.2402 -0.1660
43143SOL    HW134749   0.349   7.618   5.353 -0.1377 -0.4075  0.8344
43143SOL    HW234750   0.267   7.740   5.388 -0.6915 -0.6089  0.2551
43144SOL     OW34751   3.253   2.686   7.294 -0.2490  0.8461 -0.0083
43144SOL    HW134752   3.310   2.616   7.264 -1.3318 -0.4659  0.8927
43144SOL    HW234753   3.313   2.756   7.321  0.8120  0.8489 -2.1574
43145SOL     OW34754   6.764  11.129   7.431 -0.8317 -0.3945 -0.2008
43145SOL    HW134755   6.754  11.122   7.336  0.4549 -2.8873 -0.2399
43145SOL    HW234756   6.828  11.199   7.444 -2.2690  1.1199 -1.0387
43146SOL     OW34757   7.368  11.072   0.401 -0.9142 -0.5443  0.1017
43146SOL    HW134758   7.463  11.063   0.405 -0.8845 -0.0507  0.7170
43146SOL    HW234759   7.339  11.004   0.340 -0.1488 -0.5612 -0.2503
43147SOL     OW34760   3.043   1.286   1.904 -0.0110 -0.0635 -0.0647
43147SOL    HW134761   2.998   1.300   1.820 -0.6029 -0.9701  0.0870
43147SOL    HW234762   2.979   1.315   1.970  0.7996  1.5340  0.0667
43148SOL     OW34763   3.934   2.442   6.068 -0.0999  0.1177  0.1820
43148SOL    HW134764   4.025   2.414   6.075 -0.2738 -0.8645 -1.1178
43148SOL    HW234765   3.904   2.448   6.158  1.4005  1.0209  0.6541
43149SOL     OW34766   9.848  11.339   8.993 -0.0617  0.3971  0.1121
43149SOL    HW134767   9.868  11.396   8.919  0.2384  0.5079  0.2772
43149SOL    HW234768   9.843  11.251   8.955  0.2804  0.4291 -0.0068
43150SOL     OW34769  10.857   5.098   9.825 -0.2823  0.1531  0.2464
43150SOL    HW134770  10.854   5.187   9.792 -1.5215  0.2423  0.5705
43150SOL    HW234771  10.768   5.080   9.857 -0.1883 -1.3608 -0.2521
43151SOL     OW34772   4.509   3.130   0.022 -0.2031  0.0756 -0.5371
43151SOL    HW134773   4.547   3.182  -0.049  2.3264 -1.9479 -0.8429
43151SOL    HW234774   4.473   3.053  -0.023 -1.6215  0.3432  0.1093
43152SOL     OW34775  10.534   9.676   8.343 -0.3671  0.6321  0.1565
43152SOL    HW134776  10.476   9.750   8.361 -0.1092  0.9319 -0.2199
43152SOL    HW234777  10.515   9.613   8.412  0.1244  1.4626  1.0760
43153SOL     OW34778   4.106   7.772   6.391 -0.1312  0.0561 -0.4721
43153SOL    HW134779   4.150   7.722   6.322  0.7952  0.1805  0.0003
43153SOL    HW234780   4.089   7.857   6.351  1.0981  0.3870 -0.3378
43154SOL     OW34781   5.578   5.235   8.356  1.0688  0.1195  0.3887
43154SOL    HW134782   5.500   5.284   8.379  0.5747 -0.4792  0.0197
43154SOL    HW234783   5.565   5.149   8.396  1.3045 -0.1478 -0.1071
43155SOL     OW34784  10.249   3.352   7.242  0.2240 -0.4810  0.0369
43155SOL    HW134785  10.260   3.320   7.332 -1.8748 -0.9603  0.1749
43155SOL    HW234786  10.191   3.427   7.251 -0.4193 -0.8416 -0.9461
43156SOL     OW34787   7.868   7.674   8.481 -0.1550  0.1122 -0.7033
43156SOL    HW134788   7.776   7.680   8.457 -0.7103 -0.2691  1.1893
43156SOL    HW234789   7.879   7.736   8.553  0.8166 -0.5709 -0.2293
43157SOL     OW34790  10.196  10.095   9.317 -0.6873  0.3409  0.2838
43157SOL    HW134791  10.262  10.037   9.278 -2.0909 -1.7380  0.8593
43157SOL    HW234792  10.223  10.105   9.408 -1.2724 -0.7057  0.5809
43158SOL     OW34793   7.080   0.024   1.591 -0.1265 -0.1139 -0.1259
43158SOL    HW134794   7.161   0.075   1.599  0.5164 -0.6000 -2.6264
43158SOL    HW234795   7.011   0.090   1.585 -0.0638  0.3054  2.6066
43159SOL     OW34796   4.688   5.803   2.364  0.1379 -0.3742  0.1926
43159SOL    HW134797   4.597   5.823   2.385 -0.1398  0.9863 -2.0442
43159SOL    HW234798   4.736   5.883   2.383  0.4421 -0.2858 -0.8683
43160SOL     OW34799  11.510   7.775   0.733  0.0992  0.4159 -0.1598
43160SOL    HW134800  11.512   7.708   0.665 -0.7950  1.3567 -1.1590
43160SOL    HW234801  11.422   7.813   0.726 -0.3589 -0.0456  2.1259
43161SOL     OW34802   6.841   9.379   3.559 -0.3000  0.0246 -0.4758
43161SOL    HW134803   6.902   9.341   3.622 -0.8045  0.6843  0.4334
43161SOL    HW234804   6.835   9.471   3.583  0.6830  0.6747 -2.4754
43162SOL     OW34805  11.500   1.904   7.216  0.3884  0.7784 -0.4605
43162SOL    HW134806  11.480   1.862   7.300  2.6047  0.8557  0.1593
43162SOL    HW234807  11.496   1.833   7.152  2.5771 -0.1411  0.3420
43163SOL     OW34808   7.825   7.678  11.155  0.2950  0.1323 -0.4682
43163SOL    HW134809   7.873   7.728  11.089  0.3688  0.0361 -0.4869
43163SOL    HW234810   7.822   7.737  11.231 -0.7358  0.6826 -0.9135
43164SOL     OW34811   3.202   7.826   2.202 -0.2605  0.0796  0.1953
43164SOL    HW134812   3.112   7.809   2.175  0.5256 -2.2795 -1.2646
43164SOL    HW234813   3.251   7.831   2.120  1.2604 -0.9646  0.9886
43165SOL     OW34814   1.023   6.101   1.174  0.4444  0.3704  0.6495
43165SOL    HW134815   1.042   6.176   1.118 -0.3855  0.8006  0.9236
43165SOL    HW234816   0.927   6.092   1.170  0.6782 -2.0358 -1.1202
43166SOL     OW34817   8.888   8.285   1.323  0.9596  0.2203 -0.1881
43166SOL    HW134818   8.960   8.297   1.262  0.2190  1.8222 -0.7867
43166SOL    HW234819   8.899   8.354   1.388  0.7456 -0.3947  0.5207
43167SOL     OW34820   9.969   4.433   0.460  0.0760  0.0701 -0.2029
43167SOL    HW134821   9.913   4.496   0.504  1.2165  2.2319 -1.6180
43167SOL    HW234822  10.058   4.461   0.481  0.6356 -1.3981 -0.4675
43168SOL     OW34823   7.631   8.782  10.319  0.4820  0.1159 -0.0214
43168SOL    HW134824   7.579   8.830  10.255 -1.2887 -0.2278  1.0933
43168SOL    HW234825   7.722   8.799  10.294 -0.1304  1.7619 -1.2967
43169SOL     OW34826  11.161   8.568   6.673  0.6862 -0.4362 -0.2326
43169SOL    HW134827  11.254   8.579   6.691  0.8592  3.0897 -2.3425
43169SOL    HW234828  11.157   8.526   6.587  0.3769 -0.0909 -0.3928
43170SOL     OW34829   8.788   9.514   3.861 -0.1056  0.0146 -0.1281
43170SOL    HW134830   8.876   9.526   3.895 -0.4311  0.4484  0.5730
43170SOL    HW234831   8.769   9.596   3.816 -1.1635  1.0389  2.0418
43171SOL     OW34832   7.945   3.244   9.118 -0.8894 -0.0471 -0.5968
43171SOL    HW134833   7.944   3.255   9.214  0.0848  0.1071 -0.6001
43171SOL    HW234834   7.972   3.154   9.104  0.7143  0.4371 -0.7475
43172SOL     OW34835   0.034   8.830   3.712  0.1176 -0.3640  1.1079
43172SOL    HW134836   0.073   8.747   3.740  1.3093 -0.5585 -0.9353
43172SOL    HW234837   0.106   8.878   3.671 -1.7199 -0.9537 -3.3148
43173SOL     OW34838  10.077   7.392   8.909  0.2200  0.0686  0.4193
43173SOL    HW134839  10.129   7.361   8.835  1.1318  1.6238  0.3712
43173SOL    HW234840  10.097   7.331   8.979  2.5426  0.8700  0.5462
43174SOL     OW34841   9.158   8.055   3.468 -0.2192 -0.8857 -0.3440
43174SOL    HW134842   9.146   8.105   3.387 -0.2907  0.4564  0.4746
43174SOL    HW234843   9.069   8.034   3.496 -0.4729  1.9059  1.3238
43175SOL     OW34844   5.106   6.778   5.500  0.4976 -0.7129 -0.3488
43175SOL    HW134845   5.196   6.811   5.502  0.3964 -0.4600  0.3617
43175SOL    HW234846   5.115   6.685   5.479  0.9643 -0.8179  0.2739
43176SOL     OW34847  10.222   6.762   6.881 -0.5034 -0.2985 -0.2163
43176SOL    HW134848  10.223   6.834   6.945 -1.5561 -1.8381  1.6370
43176SOL    HW234849  10.154   6.786   6.819 -0.9377  0.2473  0.4508
43177SOL     OW34850  10.919  10.096   7.894  0.2748 -0.4585 -0.0169
43177SOL    HW134851  10.879  10.170   7.848  0.7530 -0.2496 -0.1007
43177SOL    HW234852  10.900  10.020   7.838  1.7947 -0.0534 -1.1554
43178SOL     OW34853   2.746   7.717   0.508 -0.6290  0.2117 -0.0707
43178SOL    HW134854   2.704   7.654   0.566  0.6012 -1.9719 -1.4342
43178SOL    HW234855   2.739   7.678   0.421  0.6346  1.7201 -0.9056
43179SOL     OW34856   6.389   2.148   0.355  0.2571  0.8991 -0.2640
43179SOL    HW134857   6.404   2.095   0.276 -0.4776 -2.2881  1.5775
43179SOL    HW234858   6.320   2.101   0.403 -0.8707  3.8951  1.3170
43180SOL     OW34859   4.333   6.935  11.307  0.9434  0.0359  0.0060
43180SOL    HW134860   4.325   6.908  11.215 -0.8212 -0.2318  0.1905
43180SOL    HW234861   4.268   6.882  11.352  1.2208  0.7550  1.2884
43181SOL     OW34862   1.830   5.490   9.189  0.3458 -0.1056 -0.2674
43181SOL    HW134863   1.870   5.531   9.112  1.8838  0.1814  0.6417
43181SOL    HW234864   1.809   5.401   9.161 -0.0397  0.2859 -1.2944
43182SOL     OW34865   2.923   7.213   1.758  0.4915 -0.0382 -0.8494
43182SOL    HW134866   2.839   7.173   1.735 -1.0028  2.9538 -1.1151
43182SOL    HW234867   2.904   7.267   1.834  1.2504  3.2063 -2.7368
43183SOL     OW34868   3.987   5.593   5.823 -0.7478  0.1294  0.0371
43183SOL    HW134869   4.018   5.509   5.790 -1.7490  0.2525 -1.2686
43183SOL    HW234870   3.892   5.589   5.814 -0.9460  0.7497  1.5719
43184SOL     OW34871   8.542   2.621   0.642  0.7215 -0.9420  0.0431
43184SOL    HW134872   8.459   2.596   0.683  1.2848 -0.7530  1.3536
43184SOL    HW234873   8.553   2.713   0.665 -0.2173 -0.0049 -2.8055
43185SOL     OW34874   5.372   1.206   1.287  0.1082 -0.4665 -0.1826
43185SOL    HW134875   5.315   1.176   1.217 -0.3851 -0.3390  0.1597
43185SOL    HW234876   5.327   1.179   1.367  0.0880  0.4199  0.1076
43186SOL     OW34877   6.398   1.667   3.381 -0.3298  0.3685 -0.3170
43186SOL    HW134878   6.451   1.724   3.325  0.7990  0.4223  0.7465
43186SOL    HW234879   6.374   1.594   3.325  1.8526 -0.2272 -0.5939
43187SOL     OW34880   3.936  11.446   8.261  0.4191  0.7211  0.0690
43187SOL    HW134881   3.980  11.516   8.309 -0.1765  0.5329  0.9290
43187SOL    HW234882   3.887  11.399   8.329  0.4767 -0.2683 -0.5603
43188SOL     OW34883   9.113  10.788   8.703 -0.0639 -0.0904  0.5357
43188SOL    HW134884   9.089  10.873   8.741  0.3854  0.1500  0.2957
43188SOL    HW234885   9.190  10.761   8.752  1.4270  0.9184 -1.1294
43189SOL     OW34886  11.574   3.222  10.519 -0.0950  0.3302 -0.3488
43189SOL    HW134887  11.654   3.256  10.558 -0.3596  2.2038 -1.3448
43189SOL    HW234888  11.592   3.219  10.425 -1.4555  1.6456 -0.6883
43190SOL     OW34889   4.609   7.561   5.282  0.2310 -0.1364 -0.4824
43190SOL    HW134890   4.668   7.522   5.218 -1.1396 -0.9994 -1.2351
43190SOL    HW234891   4.540   7.497   5.295 -0.9201  1.1321 -0.1017
43191SOL     OW34892   7.664   6.900   3.127 -0.0060 -0.5746  0.5240
43191SOL    HW134893   7.656   6.919   3.221 -1.1258 -0.9568  0.5145
43191SOL    HW234894   7.625   6.975   3.084 -0.8795 -1.0909  0.4023
43192SOL     OW34895   2.533  10.258  11.415  0.7902  0.1981  0.4450
43192SOL    HW134896   2.540  10.353  11.401  2.5618 -0.1135 -1.1547
43192SOL    HW234897   2.622  10.230  11.436  0.6568 -1.3398 -0.8549
43193SOL     OW34898  10.774   4.633   1.870  0.8759  0.0589 -0.5770
43193SOL    HW134899  10.822   4.701   1.823  1.1518 -0.1598 -0.6173
43193SOL    HW234900  10.727   4.679   1.939 -0.0812  0.4893 -1.4756
43194SOL     OW34901  10.946   2.117   2.489  0.1747 -0.3381 -0.4963
43194SOL    HW134902  10.893   2.081   2.419 -0.6581  0.8752 -0.5302
43194SOL    HW234903  11.022   2.156   2.445  0.3331 -0.7465 -0.5884
43195SOL     OW34904   0.425   4.805   6.844  0.0085  0.1227  0.5504
43195SOL    HW134905   0.340   4.809   6.889 -1.1064  1.7551 -1.5062
43195SOL    HW234906   0.436   4.712   6.824 -1.6209 -0.0647  0.3175
43196SOL     OW34907   4.987   3.716   0.961  0.1020 -0.1358  0.3326
43196SOL    HW134908   4.984   3.629   1.002 -1.7741 -0.2298  0.0969
43196SOL    HW234909   5.034   3.701   0.878  2.1070 -0.3559  1.4550
43197SOL     OW34910   9.394   9.725   9.293  0.0992 -0.1134  0.0708
43197SOL    HW134911   9.373   9.704   9.203  1.2155  1.6275 -0.6513
43197SOL    HW234912   9.437   9.811   9.289  1.2954 -0.5297  2.1073
43198SOL     OW34913   5.663   6.968   1.645 -0.1650  0.1622 -0.2472
43198SOL    HW134914   5.693   6.899   1.705 -0.0006 -0.7046 -1.3031
43198SOL    HW234915   5.708   6.950   1.563  1.5080  2.7883  0.0025
43199SOL     OW34916   7.601   0.477   7.987 -0.5697  0.4055 -0.2812
43199SOL    HW134917   7.624   0.556   7.939 -0.6898  0.3533 -0.4262
43199SOL    HW234918   7.668   0.469   8.055  0.3421 -0.2125 -1.2304
43200SOL     OW34919   0.248   8.444   9.774  0.2344 -0.0264  0.0183
43200SOL    HW134920   0.285   8.449   9.686  0.6340  5.6238  0.1465
43200SOL    HW234921   0.302   8.503   9.827 -1.5001 -1.2311  3.4733
43201SOL     OW34922   7.230  10.198   7.930 -0.3217 -0.2169  0.4630
43201SOL    HW134923   7.243  10.292   7.919 -1.6152 -0.1818 -1.0769
43201SOL    HW234924   7.155  10.192   7.989 -0.8003 -0.2546 -0.1398
43202SOL     OW34925   3.680  10.189   5.706  0.1452  0.3151 -0.0189
43202SOL    HW134926   3.756  10.130   5.701 -0.5500 -0.6732  0.6121
43202SOL    HW234927   3.673  10.227   5.619  0.4371 -0.7780 -0.5374
43203SOL     OW34928   2.003   6.154   0.710 -0.0686 -0.1957 -0.4095
43203SOL    HW134929   2.057   6.075   0.717 -0.0375 -0.0638  1.1775
43203SOL    HW234930   2.056   6.214   0.657 -0.5538 -1.5713 -2.5779
43204SOL     OW34931  10.920   1.088   2.316 -0.8836  0.2539 -0.4270
43204SOL    HW134932  10.937   1.122   2.404 -1.0202  0.4639 -0.4794
43204SOL    HW234933  10.902   1.166   2.263  0.9733  0.2984 -1.0640
43205SOL     OW34934   2.453  10.774   3.550  0.2597 -0.0831  0.1599
43205SOL    HW134935   2.493  10.783   3.637  0.2472  1.0916  0.0639
43205SOL    HW234936   2.486  10.691   3.517  0.6948 -0.2881  1.0721
43206SOL     OW34937   0.194   7.286  11.625  0.3600  0.0078  0.1105
43206SOL    HW134938   0.257   7.306  11.694  0.3568 -0.6770  0.3124
43206SOL    HW234939   0.114   7.331  11.652  0.0995 -0.9639  1.0067
43207SOL     OW34940  11.088   4.604  11.429 -0.0273  0.9191 -0.3671
43207SOL    HW134941  11.130   4.648  11.355  1.9060 -2.0898 -1.2623
43207SOL    HW234942  11.146   4.622  11.503  0.4449  0.3856 -0.6003
43208SOL     OW34943   5.000   6.458   4.631 -0.0769  0.0162  0.1494
43208SOL    HW134944   4.994   6.536   4.686  1.1303  0.1498  0.1289
43208SOL    HW234945   4.970   6.487   4.545  1.4697  0.8159 -0.1649
43209SOL     OW34946   4.935   2.906   9.748 -0.0935  0.0358  0.1865
43209SOL    HW134947   4.971   2.947   9.826  0.4775 -0.3322  0.1205
43209SOL    HW234948   4.926   2.813   9.770 -0.5611  0.0462  0.0448
43210SOL     OW34949  11.460   4.192   1.391 -0.6070 -0.3759 -0.5937
43210SOL    HW134950  11.478   4.098   1.397 -1.6260 -0.6002 -0.9463
43210SOL    HW234951  11.410   4.202   1.310 -0.2193  0.5240 -0.7395
43211SOL     OW34952   6.650   6.245   1.348  0.0493  0.3114  0.1412
43211SOL    HW134953   6.677   6.179   1.285  1.4473  0.9649  0.0063
43211SOL    HW234954   6.625   6.195   1.426 -0.0180 -0.4240 -0.3499
43212SOL     OW34955   8.387   6.902  11.787 -0.1639 -0.6636 -0.1709
43212SOL    HW134956   8.295   6.928  11.791  0.0540 -0.0488  2.7380
43212SOL    HW234957   8.404   6.888  11.693 -2.6800  1.0475 -0.9723
43213SOL     OW34958   8.550   4.226   1.346  0.2262 -0.2504 -0.3777
43213SOL    HW134959   8.521   4.317   1.342 -0.0206 -0.3607 -1.6972
43213SOL    HW234960   8.640   4.231   1.379  0.2881  0.4936 -0.6423
43214SOL     OW34961   5.899   9.371   4.475  0.8553 -0.6128 -0.2706
43214SOL    HW134962   5.872   9.304   4.539  2.2657  0.1996  1.2674
43214SOL    HW234963   5.929   9.321   4.399 -1.9368 -1.5851 -0.8441
43215SOL     OW34964   4.208   9.881   1.080  0.3465  0.4460  0.3865
43215SOL    HW134965   4.222   9.871   1.174 -3.6501 -0.5173  1.0786
43215SOL    HW234966   4.208   9.976   1.065  0.1808  0.6359  1.5355
43216SOL     OW34967   3.659   2.811   3.089 -0.2448  0.0333 -0.5057
43216SOL    HW134968   3.715   2.802   3.012 -0.9680  0.2413 -1.0632
43216SOL    HW234969   3.571   2.825   3.054 -0.3104  2.0598  0.3331
43217SOL     OW34970   8.548  11.381   1.013  0.5254  0.5451  0.0201
43217SOL    HW134971   8.527  11.471   0.987 -1.5295  0.2550  0.4717
43217SOL    HW234972   8.531  11.330   0.934 -0.3133  0.3388  0.3176
43218SOL     OW34973  11.050   3.091   9.235 -0.4267 -0.0163  0.0124
43218SOL    HW134974  11.129   3.126   9.195 -0.7166 -0.2047 -0.7538
43218SOL    HW234975  11.047   3.129   9.322 -0.7078  1.8524 -0.7682
43219SOL     OW34976  11.191   4.260   8.374 -0.3520 -0.3691  0.2752
43219SOL    HW134977  11.187   4.292   8.284 -0.8406 -1.4716 -0.1110
43219SOL    HW234978  11.224   4.334   8.424  0.3073  0.1430 -0.8709
43220SOL     OW34979   5.856  11.545   7.329  0.2372 -0.2230  0.8468
43220SOL    HW134980   5.840  11.637   7.308 -0.4315 -0.3498  0.7511
43220SOL    HW234981   5.943  11.526   7.293 -0.3140 -0.0724 -0.6592
43221SOL     OW34982   2.010  10.199   2.267 -0.1062 -0.1101  0.3697
43221SOL    HW134983   2.025  10.196   2.173 -2.2809 -0.4989 -0.0082
43221SOL    HW234984   2.035  10.112   2.298 -0.0516 -0.2118  0.0417
43222SOL     OW34985   0.179   5.453   5.472 -0.0971 -0.3876 -0.5320
43222SOL    HW134986   0.108   5.509   5.503  1.0439  0.0503  1.4071
43222SOL    HW234987   0.225   5.425   5.551  1.6252 -1.0440 -1.6976
43223SOL     OW34988   1.952   2.563   6.639  0.7934 -0.8826 -0.3457
43223SOL    HW134989   1.935   2.557   6.732 -1.3164 -1.9493 -0.7539
43223SOL    HW234990   2.003   2.485   6.618  3.3204  0.4945  0.2366
43224SOL     OW34991   4.871   8.181   9.853  0.2216  0.6825 -0.6537
43224SOL    HW134992   4.922   8.100   9.859 -1.8778 -0.6805  0.0955
43224SOL    HW234993   4.861   8.196   9.759 -1.1093 -1.1917 -0.8813
43225SOL     OW34994   6.325   4.763   9.965 -0.3679  0.2409 -0.1810
43225SOL    HW134995   6.374   4.741  10.044  1.3682 -0.3392 -1.3715
43225SOL    HW234996   6.249   4.812   9.998 -0.5924 -1.3478  1.9681
43226SOL     OW34997   8.800  11.675   9.809 -0.1430 -0.3253 -0.1438
43226SOL    HW134998   8.715  11.631   9.810  0.8878 -2.4971 -1.2767
43226SOL    HW234999   8.813  11.705   9.899 -2.2023  0.3128 -0.0204
43227SOL     OW35000  10.974   6.295  11.056  0.4001 -0.1446 -0.1661
43227SOL    HW135001  11.004   6.286  10.965  1.2077  1.3199 -0.0641
43227SOL    HW235002  10.972   6.389  11.071  2.2395 -0.3889  1.9816
43228SOL     OW35003   8.119   4.877   1.205  0.0736 -0.1116 -0.2684
43228SOL    HW135004   8.061   4.952   1.220  0.6911  0.3450 -0.1324
43228SOL    HW235005   8.133   4.876   1.110  0.6741  0.4166 -0.1930
43229SOL     OW35006   5.918   8.958  10.302  0.0037 -0.1027 -0.8652
43229SOL    HW135007   5.858   9.010  10.249 -0.1989  0.4971 -0.0664
43229SOL    HW235008   5.941   8.884  10.246 -0.9080  0.0353 -1.4491
43230SOL     OW35009   3.145   7.272   4.427 -0.0281 -0.2375 -0.3707
43230SOL    HW135010   3.188   7.341   4.375  1.3987  0.5752  1.7273
43230SOL    HW235011   3.216   7.211   4.449 -1.0259 -1.7058 -1.1087
43231SOL     OW35012   1.260   7.332  10.803  0.4404  0.1555  0.2014
43231SOL    HW135013   1.332   7.322  10.865 -0.1373  1.1886  1.0687
43231SOL    HW235014   1.200   7.260  10.825  0.5453  0.1300  0.4074
43232SOL     OW35015   2.114   6.841  10.484 -0.3004  0.1427  0.2350
43232SOL    HW135016   2.051   6.770  10.494 -2.1035  1.5347 -0.6013
43232SOL    HW235017   2.158   6.823  10.401 -0.3630 -0.2763  0.2917
43233SOL     OW35018   7.639   5.779   9.454 -0.4076  0.0790 -0.0277
43233SOL    HW135019   7.654   5.769   9.548 -1.4174  0.6232  0.2106
43233SOL    HW235020   7.726   5.791   9.416  0.0484 -0.5413  0.7780
43234SOL     OW35021   0.961   5.788   2.388 -0.1966  0.1250  0.0170
43234SOL    HW135022   0.928   5.744   2.467  0.9610  1.0746  1.0826
43234SOL    HW235023   0.950   5.881   2.406 -1.3986  0.3438 -1.6566
43235SOL     OW35024   0.903   5.532   0.144  0.2125  0.1754 -0.0254
43235SOL    HW135025   0.838   5.586   0.101 -0.0240  1.1403  1.4520
43235SOL    HW235026   0.861   5.506   0.227  1.4497  0.2981  0.6668
43236SOL     OW35027   4.038  10.738   3.942  0.3424  0.8770 -0.4279
43236SOL    HW135028   4.127  10.756   3.971 -0.0157 -0.1739  1.5510
43236SOL    HW235029   3.984  10.755   4.020 -1.1541  1.1913 -1.4862
43237SOL     OW35030   3.607   9.315   0.659 -0.1696  0.0869  0.1987
43237SOL    HW135031   3.644   9.246   0.603 -1.8501  0.2299 -1.2003
43237SOL    HW235032   3.513   9.297   0.658 -0.7768  2.8361 -0.8766
43238SOL     OW35033  11.286   0.020   1.134 -0.6076  0.0190  0.2225
43238SOL    HW135034  11.206   0.065   1.161 -0.6446  1.6906 -2.3309
43238SOL    HW235035  11.257  -0.039   1.064  0.4029  0.8440 -0.9147
43239SOL     OW35036   7.909   8.230   0.084  0.1819 -0.0707  0.0050
43239SOL    HW135037   7.862   8.185   0.154 -1.4512  0.2836 -0.8026
43239SOL    HW235038   7.975   8.167   0.055 -3.5455 -3.2436 -2.7417
43240SOL     OW35039  11.020   8.286  11.711 -0.1158 -0.0303 -0.0685
43240SOL    HW135040  11.103   8.248  11.681  0.0027 -0.1339  0.3757
43240SOL    HW235041  10.959   8.212  11.711  0.2054 -0.3288  1.1418
43241SOL     OW35042   6.748  11.455   5.445  0.3545  0.0079 -0.4517
43241SOL    HW135043   6.673  11.487   5.495 -0.5675 -1.7076 -0.6729
43241SOL    HW235044   6.823  11.469   5.502 -0.1758  1.3161 -0.0342
43242SOL     OW35045   8.604   5.077   7.700 -0.1659 -0.0006  0.4329
43242SOL    HW135046   8.677   5.092   7.760 -0.6992  1.4116  0.7764
43242SOL    HW235047   8.535   5.042   7.755  0.7020 -2.8779 -0.1689
43243SOL     OW35048   9.282   4.415   8.010  0.0315 -0.0579 -0.1330
43243SOL    HW135049   9.302   4.332   7.966  0.4669  0.8331 -1.6526
43243SOL    HW235050   9.367   4.454   8.028 -0.0839 -0.7476  2.2858
43244SOL     OW35051   5.379   4.626  10.340 -0.2846  0.0151 -0.2534
43244SOL    HW135052   5.429   4.631  10.258  0.7360 -0.7580  0.2940
43244SOL    HW235053   5.318   4.699  10.336  0.3040  0.4626 -1.3454
43245SOL     OW35054   6.296   2.401   0.241 -0.2232  0.1262  0.1902
43245SOL    HW135055   6.206   2.393   0.272 -0.0053 -3.0379  0.4155
43245SOL    HW235056   6.338   2.319   0.268  1.7872 -0.0183 -2.8108
43246SOL     OW35057   2.986   2.676   6.701 -0.2466  0.1935  0.1498
43246SOL    HW135058   2.955   2.610   6.639 -0.7071 -3.6400  3.9852
43246SOL    HW235059   2.906   2.713   6.738  0.0190  2.7635 -1.6247
43247SOL     OW35060   7.588   0.625   0.286 -0.2381 -0.1132 -0.0027
43247SOL    HW135061   7.675   0.660   0.271  0.0565 -1.3267 -1.4743
43247SOL    HW235062   7.557   0.668   0.365  2.0599 -0.3434  1.0939
43248SOL     OW35063   0.089   3.272   5.066  0.0629 -0.1837  0.3542
43248SOL    HW135064  -0.005   3.289   5.078 -0.0972 -0.4652 -0.4393
43248SOL    HW235065   0.093   3.178   5.048  0.5191 -0.2027  0.5548
43249SOL     OW35066   5.339   3.257   9.827  0.4518 -0.4902 -0.2521
43249SOL    HW135067   5.258   3.284   9.783  0.2806  1.7724  1.2630
43249SOL    HW235068   5.324   3.165   9.850 -1.3516 -0.3653 -0.7297
43250SOL     OW35069   9.528   6.497   4.500  0.3037 -0.5935  0.6799
43250SOL    HW135070   9.465   6.427   4.519  0.9713 -0.8446  2.1787
43250SOL    HW235071   9.614   6.456   4.514  0.7502  0.1496  0.1611
43251SOL     OW35072   7.447   0.959  10.896 -0.2071  0.7016  0.0308
43251SOL    HW135073   7.443   1.054  10.894 -0.4837  0.6814 -0.7195
43251SOL    HW235074   7.356   0.931  10.909  0.0715  0.5592  1.8909
43252SOL     OW35075   1.846   4.473   2.436  0.2091 -0.2165 -0.2476
43252SOL    HW135076   1.905   4.519   2.376  1.1184 -1.9575 -0.7583
43252SOL    HW235077   1.896   4.466   2.517 -1.3683  2.9852  1.2003
43253SOL     OW35078  11.644   7.651   1.506  0.1972  0.3547  0.3742
43253SOL    HW135079  11.687   7.702   1.438  1.3163 -0.5237  0.3893
43253SOL    HW235080  11.701   7.575   1.519 -0.2588  0.2294  1.9176
43254SOL     OW35081   6.418   9.773   8.496  0.0702 -0.0735  0.2047
43254SOL    HW135082   6.500   9.742   8.458  0.8364  0.0626  1.7021
43254SOL    HW235083   6.405   9.719   8.573 -1.3165 -0.1556 -0.0583
43255SOL     OW35084   2.479   1.395   6.883 -0.2663 -0.0234 -0.0516
43255SOL    HW135085   2.481   1.308   6.843  0.1581 -0.5528  1.0858
43255SOL    HW235086   2.557   1.439   6.849  0.1837 -0.5278  0.3261
43256SOL     OW35087  10.804   4.053   5.316 -0.1636  0.2704  0.2328
43256SOL    HW135088  10.726   4.099   5.347 -0.8645 -0.6872 -0.0661
43256SOL    HW235089  10.828   4.099   5.235  1.1102  2.1746  1.5982
43257SOL     OW35090   9.696   0.236   5.799 -0.1289  0.5898  0.1903
43257SOL    HW135091   9.616   0.214   5.752 -0.1594 -1.6370  1.1483
43257SOL    HW235092   9.722   0.322   5.765 -3.2081  1.6728  0.2683
43258SOL     OW35093   6.533   9.431   8.410 -1.0266 -0.1055 -0.0431
43258SOL    HW135094   6.512   9.476   8.492 -1.3128  1.0619 -0.7298
43258SOL    HW235095   6.449   9.393   8.382 -1.4499  1.3951 -0.9022
43259SOL     OW35096   4.844   7.662   8.984 -0.2590 -0.3046  0.1687
43259SOL    HW135097   4.805   7.742   9.021 -0.7676 -0.5115  0.0868
43259SOL    HW235098   4.888   7.692   8.905 -0.0797 -0.0326  0.3699
43260SOL     OW35099   7.884  10.865   0.564  0.1539  0.2267 -0.5532
43260SOL    HW135100   7.836  10.818   0.631 -1.8573  0.5760 -1.6758
43260SOL    HW235101   7.903  10.950   0.604 -0.4685  0.2033 -0.1885
43261SOL     OW35102   5.001   4.121  10.392  0.1392  0.1957 -0.5115
43261SOL    HW135103   4.997   4.217  10.395  0.8798  0.2165 -0.0686
43261SOL    HW235104   5.081   4.099  10.441 -1.6796 -0.7949  2.2855
43262SOL     OW35105  11.662  11.236  10.453  0.0249  0.0602  0.6324
43262SOL    HW135106  11.596  11.240  10.522  1.7956 -0.4499  2.4671
43262SOL    HW235107  11.645  11.153  10.408  0.0529 -0.5987  1.7974
43263SOL     OW35108   0.399   4.990   1.728  0.4135  0.0128 -0.1720
43263SOL    HW135109   0.385   4.948   1.812  0.1889 -0.5573 -0.4884
43263SOL    HW235110   0.311   5.018   1.700  0.4993  0.2862 -0.1771
43264SOL     OW35111   9.528  10.555   3.258 -0.6229 -0.4975 -0.1336
43264SOL    HW135112   9.524  10.576   3.351 -0.1417 -1.3048  0.0812
43264SOL    HW235113   9.621  10.540   3.240 -0.7866 -0.9967 -0.5945
43265SOL     OW35114   6.332   2.195   0.704 -0.0289 -0.1370  0.2528
43265SOL    HW135115   6.419   2.210   0.742 -0.3049 -0.3766  1.0009
43265SOL    HW235116   6.335   2.105   0.672  0.4013  0.2585 -0.8566
43266SOL     OW35117   6.199   4.481   9.872 -0.2942 -0.3309  0.2321
43266SOL    HW135118   6.274   4.511   9.821  0.9322 -1.0621  1.5159
43266SOL    HW235119   6.181   4.552   9.933  0.5011 -0.8396  1.0842
43267SOL     OW35120   3.501   7.142   5.779  0.1184 -0.1617  0.6414
43267SOL    HW135121   3.494   7.162   5.685 -1.6237  1.2561  1.0211
43267SOL    HW235122   3.595   7.125   5.793  0.7125  1.4371 -1.0063
43268SOL     OW35123   7.850   4.829   6.424  0.4651  0.4041  0.1512
43268SOL    HW135124   7.849   4.896   6.355  2.5387  0.5850  0.2233
43268SOL    HW235125   7.761   4.830   6.460  0.3373  2.8985 -0.0621
43269SOL     OW35126   7.018   6.125   3.833  0.4439  0.0247  0.0817
43269SOL    HW135127   6.950   6.182   3.869 -0.2878  0.4399 -1.8422
43269SOL    HW235128   7.100   6.162   3.867 -0.1450  0.8679  0.6418
43270SOL     OW35129   4.037   9.638   8.400 -0.4214  0.7719  0.3254
43270SOL    HW135130   3.953   9.599   8.375  0.3814 -0.7554 -0.1615
43270SOL    HW235131   4.077   9.573   8.457  0.5082  1.3940  0.3987
43271SOL     OW35132   6.562   7.285   7.061 -0.0332 -0.3694 -0.3129
43271SOL    HW135133   6.599   7.295   7.149  2.0314 -1.0325 -1.0373
43271SOL    HW235134   6.518   7.368   7.043 -1.3130 -0.5508  1.6687
43272SOL     OW35135   4.495   3.109  10.980  0.4490 -0.0533 -0.0940
43272SOL    HW135136   4.541   3.065  11.052  1.9250 -0.5404 -1.2925
43272SOL    HW235137   4.560   3.169  10.943  0.2501 -0.9571 -2.0035
43273SOL     OW35138   3.322   5.921  10.029 -0.0850  0.7343  0.3334
43273SOL    HW135139   3.285   5.874  10.104  1.6130 -0.9721  0.1697
43273SOL    HW235140   3.337   6.010  10.061 -1.5165  0.6578  1.2847
43274SOL     OW35141   2.047   6.841   2.208  0.1587 -0.5588  0.2895
43274SOL    HW135142   2.109   6.900   2.251  1.8676 -0.9998 -1.4873
43274SOL    HW235143   2.077   6.753   2.230  0.0942 -0.7789 -0.4761
43275SOL     OW35144   3.126   0.184   5.274 -0.2169 -0.0546  0.1168
43275SOL    HW135145   3.169   0.140   5.200  1.0619 -0.5663  1.1052
43275SOL    HW235146   3.146   0.276   5.262  2.7943 -0.4118  1.4425
43276SOL     OW35147  11.723   3.209   3.843 -0.3623  0.0918 -0.2748
43276SOL    HW135148  11.783   3.243   3.777  0.1671  1.8887  1.0612
43276SOL    HW235149  11.718   3.278   3.910 -4.5376  0.4221 -0.6549
43277SOL     OW35150   2.165  10.108  10.915  0.5814 -0.4421 -0.5529
43277SOL    HW135151   2.169  10.046  10.842  3.7919 -2.7675  1.3203
43277SOL    HW235152   2.256  10.121  10.941 -0.2228  2.4404  1.3865
43278SOL     OW35153  11.109   7.898   7.438 -0.3252 -0.0360  0.2196
43278SOL    HW135154  11.176   7.966   7.432 -0.5784  0.2217  0.2637
43278SOL    HW235155  11.155   7.821   7.470  0.2292 -0.2531 -1.0416
43279SOL     OW35156   1.698  10.815   8.285 -0.2734 -0.4472 -0.5807
43279SOL    HW135157   1.704  10.905   8.318  0.5093 -1.1206  1.2602
43279SOL    HW235158   1.746  10.816   8.203  1.9017  0.3130  0.6255
43280SOL     OW35159   8.004   3.007   6.006 -0.8086 -0.2342 -0.1157
43280SOL    HW135160   7.927   2.959   6.036 -0.5252 -1.9907 -1.9412
43280SOL    HW235161   8.078   2.962   6.046 -0.6589  1.6741  1.9307
43281SOL     OW35162   8.284   2.208   0.743 -0.3898  0.2019  0.1185
43281SOL    HW135163   8.312   2.117   0.751 -0.4678  0.2636  1.1669
43281SOL    HW235164   8.192   2.202   0.714 -0.2428 -0.0365 -0.3080
43282SOL     OW35165   1.147   0.240   4.218 -0.0269 -0.6033  0.4287
43282SOL    HW135166   1.067   0.191   4.199 -0.2915  0.0058 -0.0571
43282SOL    HW235167   1.200   0.231   4.139  1.0635 -2.2661  1.2917
43283SOL     OW35168   5.499   6.551  10.628  0.6847  0.5423 -0.1421
43283SOL    HW135169   5.489   6.575  10.536 -0.8701 -0.2326 -0.2096
43283SOL    HW235170   5.495   6.455  10.628  1.8554  0.4791  0.6184
43284SOL     OW35171   6.023   4.706   8.687 -0.3409  0.1947  0.0273
43284SOL    HW135172   6.029   4.752   8.604  0.3712 -1.7345 -1.0762
43284SOL    HW235173   6.110   4.716   8.726  0.2517 -1.2452 -0.8460
43285SOL     OW35174   9.098   3.272   6.437  0.6394 -0.0758 -0.3327
43285SOL    HW135175   9.107   3.339   6.369 -1.3020  0.7162  0.1093
43285SOL    HW235176   9.010   3.286   6.472  0.9792 -1.5352  1.2185
43286SOL     OW35177   2.608   4.591   3.509  0.3134 -0.1632  0.0123
43286SOL    HW135178   2.521   4.631   3.503  0.9021  1.0109 -1.0740
43286SOL    HW235179   2.616   4.541   3.427  0.7071 -0.1640  0.0530
43287SOL     OW35180   4.633   0.184   1.602 -0.0449 -0.1640  0.3515
43287SOL    HW135181   4.685   0.264   1.605  0.8837 -0.7656  0.9179
43287SOL    HW235182   4.580   0.187   1.682  0.3358 -0.3204  0.6183
43288SOL     OW35183   0.017   6.270   8.744 -0.2729 -0.3900  0.6433
43288SOL    HW135184   0.099   6.308   8.775 -0.3621  0.5446 -0.2291
43288SOL    HW235185   0.009   6.300   8.654 -2.7545  1.6373  1.4034
43289SOL     OW35186   7.989   9.175   7.527 -0.3261  0.2074 -0.6338
43289SOL    HW135187   7.898   9.149   7.524 -0.0127 -0.9572 -0.3639
43289SOL    HW235188   8.035   9.100   7.565  0.4937  1.4833  1.0174
43290SOL     OW35189   0.061   0.151   8.067  0.1439 -0.2985  0.3873
43290SOL    HW135190   0.026   0.093   8.000 -1.2004 -0.6781  1.3860
43290SOL    HW235191   0.066   0.237   8.024 -0.9935 -0.4693 -0.1149
43291SOL     OW35192   2.522   2.958   8.161  0.1705  0.0449  0.0814
43291SOL    HW135193   2.598   2.920   8.116 -0.3925 -0.0813 -0.8017
43291SOL    HW235194   2.446   2.917   8.118 -0.3956  0.2109  0.9071
43292SOL     OW35195   3.593  11.551  11.641  0.2501 -0.5222  0.1785
43292SOL    HW135196   3.668  11.601  11.673 -0.2008 -0.7938  1.7339
43292SOL    HW235197   3.627  11.502  11.566  0.6565  2.2699 -1.6330
43293SOL     OW35198   9.879   5.994   4.772 -0.7751 -0.4520  0.1135
43293SOL    HW135199   9.873   5.950   4.687 -1.5164 -0.1785  0.0105
43293SOL    HW235200   9.796   6.040   4.780 -0.9301 -0.8977  1.2281
43294SOL     OW35201   2.357   7.765   4.364  0.2392 -0.1533  0.4700
43294SOL    HW135202   2.282   7.759   4.306 -0.3845 -2.3615  1.4068
43294SOL    HW235203   2.320   7.781   4.450  0.7648 -1.6186  1.0040
43295SOL     OW35204   3.287   9.169   8.602 -0.3306  0.0492  0.2333
43295SOL    HW135205   3.244   9.110   8.664 -0.3766  0.3490  0.4907
43295SOL    HW235206   3.258   9.256   8.628  2.3748  0.5440  2.0821
43296SOL     OW35207   5.980   7.343   4.965 -0.1130  0.0796  0.8611
43296SOL    HW135208   5.923   7.397   5.019 -0.1103  1.6927 -0.6636
43296SOL    HW235209   5.920   7.284   4.918 -0.3825  0.6510  0.4816
43297SOL     OW35210   7.695  10.976   9.519  0.2215  0.4105 -0.6075
43297SOL    HW135211   7.676  10.950   9.429 -0.8880  0.3769 -0.3770
43297SOL    HW235212   7.741  11.060   9.510 -0.0918  0.5263 -1.2034
43298SOL     OW35213   0.943   4.581   3.697 -0.1389  0.0386 -0.5310
43298SOL    HW135214   0.974   4.651   3.639  0.4997 -1.0539 -1.5544
43298SOL    HW235215   1.016   4.520   3.702  0.0072  0.3160  1.8586
43299SOL     OW35216   3.612   7.764   5.722 -0.0639  0.1112 -0.4535
43299SOL    HW135217   3.648   7.791   5.637  0.4636 -1.1272 -0.6402
43299SOL    HW235218   3.518   7.783   5.714  0.0546  0.4563 -1.1414
43300SOL     OW35219   2.370   5.586   6.256 -0.0904 -0.1170 -0.0976
43300SOL    HW135220   2.451   5.635   6.241  1.3419 -1.6895  1.9737
43300SOL    HW235221   2.380   5.507   6.203 -0.0551 -0.4992  0.4661
43301SOL     OW35222  11.594  11.527   5.247  0.1702  0.3496  0.6634
43301SOL    HW135223  11.541  11.491   5.176 -0.2953 -0.1827  1.2599
43301SOL    HW235224  11.675  11.476   5.245  0.9347  1.5417 -0.6096
43302SOL     OW35225  11.495   5.574  11.709  0.2838 -0.1575  0.5739
43302SOL    HW135226  11.473   5.645  11.649 -1.9150 -0.8873  0.4157
43302SOL    HW235227  11.434   5.503  11.686 -0.4050 -0.6011  3.3558
43303SOL     OW35228  10.986   2.392   1.713 -0.2365 -0.0951  0.1997
43303SOL    HW135229  10.904   2.344   1.722  0.9680 -2.1960  0.7388
43303SOL    HW235230  11.019   2.402   1.802  0.2824  0.3954 -0.0386
43304SOL     OW35231   6.198   5.241   3.263 -0.1505  0.0224  0.4264
43304SOL    HW135232   6.202   5.330   3.226  1.7099 -0.6241 -1.0994
43304SOL    HW235233   6.106   5.216   3.255 -0.1423  0.5562 -2.4017
43305SOL     OW35234   4.275   2.664   1.696 -0.0899 -0.4155  0.8398
43305SOL    HW135235   4.294   2.576   1.665 -0.2088 -1.3961  3.3519
43305SOL    HW235236   4.360   2.699   1.723 -0.1164  0.0860  0.3058
43306SOL     OW35237   1.373   9.515   9.297 -0.6456 -0.6508  0.4819
43306SOL    HW135238   1.279   9.530   9.299 -0.4332  3.5048 -3.3438
43306SOL    HW235239   1.411   9.595   9.333  1.3144 -0.9624 -0.7135
43307SOL     OW35240   0.005  10.944  11.378  0.4354 -0.5815  0.6504
43307SOL    HW135241   0.017  10.968  11.286 -0.8186 -0.0194  0.6044
43307SOL    HW235242   0.068  10.875  11.394 -1.7982 -3.4444 -1.7019
43308SOL     OW35243   5.801   7.570   6.204  0.7721 -0.2568  0.6304
43308SOL    HW135244   5.895   7.580   6.218  0.5025  0.6459  1.9433
43308SOL    HW235245   5.771   7.655   6.174  0.2891 -0.3703  0.7702
43309SOL     OW35246   2.546   9.287   3.542  0.2785  0.6553  0.3037
43309SOL    HW135247   2.565   9.243   3.625  1.5204  0.6259  0.0165
43309SOL    HW235248   2.536   9.215   3.479 -2.4794  0.5562  0.7145
43310SOL     OW35249   0.502   7.635   1.500 -0.4661  0.2001 -0.2492
43310SOL    HW135250   0.588   7.594   1.514 -0.7577 -1.5569 -2.8630
43310SOL    HW235251   0.514   7.725   1.529  2.2094 -0.0504 -0.2973
43311SOL     OW35252   1.021   9.005   2.057 -0.0450 -0.5068 -0.4158
43311SOL    HW135253   0.962   9.060   2.005 -0.8531 -0.9045  0.0513
43311SOL    HW235254   1.063   9.065   2.118 -0.8235 -0.3754  0.0053
43312SOL     OW35255  10.087   0.921  11.199 -0.0017 -0.1619  0.1777
43312SOL    HW135256  10.060   0.958  11.283 -0.2720  0.9438 -0.3862
43312SOL    HW235257  10.168   0.874  11.219 -0.4305 -0.5087  1.1863
43313SOL     OW35258   4.218   9.035   1.588  0.2730  0.1672  0.9222
43313SOL    HW135259   4.130   9.000   1.604  0.8201 -0.8974  1.7702
43313SOL    HW235260   4.224   9.045   1.493 -1.1303  1.2809  0.9219
43314SOL     OW35261   7.235   0.107   8.753  0.4214 -0.1478 -0.3286
43314SOL    HW135262   7.248   0.185   8.701 -1.0050  1.5379  1.6680
43314SOL    HW235263   7.154   0.069   8.721  0.2796  0.1049 -0.2714
43315SOL     OW35264   5.811   9.758   6.389 -0.4720 -0.2870 -0.0916
43315SOL    HW135265   5.791   9.665   6.405 -0.8534 -0.0406  0.9791
43315SOL    HW235266   5.897   9.771   6.428  0.4567 -0.6110 -1.9361
43316SOL     OW35267   9.849   2.683   2.256  0.1871  0.5368  0.5523
43316SOL    HW135268   9.912   2.638   2.312 -0.2554  0.2299  0.8067
43316SOL    HW235269   9.856   2.775   2.280  0.2320  0.4454  0.8856
43317SOL     OW35270   5.863  11.388   8.689  0.6007  0.2229 -0.5939
43317SOL    HW135271   5.830  11.477   8.706 -0.1735 -0.2706  0.6400
43317SOL    HW235272   5.956  11.400   8.671  0.3314  1.3709 -1.3717
43318SOL     OW35273   2.836   8.975  10.596 -0.0258  0.5673  0.5513
43318SOL    HW135274   2.798   9.037  10.658 -1.0840 -0.4551  0.9495
43318SOL    HW235275   2.790   8.992  10.514 -0.0968  0.5084  0.5796
43319SOL     OW35276   2.584   7.058   6.362  0.0209 -0.4618  0.1450
43319SOL    HW135277   2.631   6.975   6.360  0.2427 -0.3339 -0.0862
43319SOL    HW235278   2.495   7.035   6.389  0.0353 -0.7945 -0.0868
43320SOL     OW35279   1.256   0.489  11.704  0.2807 -0.4087 -0.0575
43320SOL    HW135280   1.238   0.555  11.771 -2.4519  0.1726 -1.2245
43320SOL    HW235281   1.230   0.406  11.746  1.4949 -0.4786  0.6023
43321SOL     OW35282   1.729  11.535   9.008  0.3034  0.3957  0.0583
43321SOL    HW135283   1.688  11.605   9.058 -0.5974 -0.8639  1.1382
43321SOL    HW235284   1.820  11.534   9.038  0.3061  1.0218  0.0949
43322SOL     OW35285   0.106   0.320   4.873 -0.3836 -0.0063 -0.5735
43322SOL    HW135286   0.085   0.412   4.887 -0.0487  0.5964 -3.3343
43322SOL    HW235287   0.035   0.288   4.817  0.4744 -0.8711 -1.2100
43323SOL     OW35288   6.048   4.640   0.874  0.2147  0.3375  0.0594
43323SOL    HW135289   6.042   4.681   0.960  2.3995  0.9051  0.0027
43323SOL    HW235290   6.106   4.565   0.887  0.2824  0.2265 -0.8346
43324SOL     OW35291   1.142   3.679  10.224  0.0617  0.0899 -0.3434
43324SOL    HW135292   1.145   3.744  10.295 -2.7181 -0.5653  0.5187
43324SOL    HW235293   1.231   3.677  10.190  1.0025  2.0345  1.6870
43325SOL     OW35294   4.842  10.588   1.642  0.2197  0.3651 -0.0910
43325SOL    HW135295   4.842  10.583   1.737  0.1998 -0.6027 -0.1350
43325SOL    HW235296   4.860  10.680   1.623  2.5744  0.1602  0.8210
43326SOL     OW35297  10.772   9.080   5.886 -0.1079  0.1488 -0.3968
43326SOL    HW135298  10.685   9.087   5.848 -0.2085 -1.8136 -0.5943
43326SOL    HW235299  10.812   9.005   5.842  0.8969 -0.3080  1.1945
43327SOL     OW35300   1.917  10.761   7.797 -0.7338  0.1596 -0.4676
43327SOL    HW135301   1.937  10.828   7.731 -0.6460  2.8899  2.1093
43327SOL    HW235302   1.981  10.692   7.782  0.5611  1.6055 -1.9646
43328SOL     OW35303   2.847   1.197   3.160  0.9226  0.2047 -0.1151
43328SOL    HW135304   2.894   1.241   3.231  2.0030 -0.3098 -0.4719
43328SOL    HW235305   2.762   1.176   3.196  0.8879  1.3415  0.5098
43329SOL     OW35306   1.549   4.420   9.681  0.8455 -0.1284 -0.8588
43329SOL    HW135307   1.459   4.446   9.663  0.7854 -0.2258 -0.7040
43329SOL    HW235308   1.599   4.453   9.607  0.5083 -1.0670 -1.5230
43330SOL     OW35309  11.609   5.714   7.145  0.0136 -0.1468 -0.6545
43330SOL    HW135310  11.639   5.760   7.067 -0.0552 -0.1045 -0.6557
43330SOL    HW235311  11.626   5.775   7.217  1.3956 -0.7283 -0.4448
43331SOL     OW35312   2.765  10.434   9.359 -0.1134 -0.1503  0.0722
43331SOL    HW135313   2.800  10.493   9.426 -0.7045 -0.5670  0.7623
43331SOL    HW235314   2.789  10.475   9.276 -0.2862  0.9380  0.5393
43332SOL     OW35315   9.017  10.112   2.379  0.3959  0.6379  0.2026
43332SOL    HW135316   9.022  10.044   2.312 -0.1080  1.1928 -0.4044
43332SOL    HW235317   9.043  10.068   2.460 -0.8514 -0.5157 -0.0067
43333SOL     OW35318  11.032   5.785   5.696 -0.4106  0.2495 -0.4503
43333SOL    HW135319  11.055   5.699   5.661  1.3740  0.4645  0.1307
43333SOL    HW235320  11.112   5.836   5.689 -1.0267  1.4111  0.6094
43334SOL     OW35321  10.246   8.624   3.507  0.4360 -0.2511 -0.2422
43334SOL    HW135322  10.330   8.608   3.550  0.8996 -0.6016 -1.2509
43334SOL    HW235323  10.195   8.544   3.522  0.0815  0.1577  0.8002
43335SOL     OW35324   6.817   9.209   0.104  0.1584  0.0104 -0.1886
43335SOL    HW135325   6.741   9.157   0.078  0.5536 -0.1322 -1.0860
43335SOL    HW235326   6.830   9.270   0.031  2.1289 -1.3052 -1.0068
43336SOL     OW35327   9.802   1.359   9.621  0.1250 -0.8433  0.3500
43336SOL    HW135328   9.846   1.284   9.660 -0.1889 -1.0452  0.3265
43336SOL    HW235329   9.771   1.410   9.695 -2.6215 -2.4788  0.4836
43337SOL     OW35330   2.651   4.333   7.287 -0.0987  0.5386  0.5314
43337SOL    HW135331   2.646   4.410   7.231 -2.0379  0.7891  0.9863
43337SOL    HW235332   2.562   4.320   7.319  0.3604 -1.3578  1.2009
43338SOL     OW35333   9.140   9.960  11.775  0.3253  0.0264  0.8262
43338SOL    HW135334   9.223   9.946  11.730 -0.2878  0.4601 -0.4955
43338SOL    HW235335   9.103   9.872  11.784  0.1392 -0.0089 -0.1773
43339SOL     OW35336   2.682   9.152   1.028  0.3195 -0.4498  0.1513
43339SOL    HW135337   2.613   9.166   0.962 -0.6747 -1.2362  0.9852
43339SOL    HW235338   2.735   9.232   1.024 -1.2697  0.6750  0.1900
43340SOL     OW35339   2.270  10.206   6.503  0.5796 -0.2951 -0.1788
43340SOL    HW135340   2.277  10.299   6.479  1.0756 -0.1897  0.3552
43340SOL    HW235341   2.193  10.202   6.560  2.1476  0.3167  2.1406
43341SOL     OW35342   3.870   3.372   6.363 -0.1875 -0.0745  0.1756
43341SOL    HW135343   3.848   3.288   6.323 -0.4960 -0.7339  1.6559
43341SOL    HW235344   3.870   3.355   6.458  2.1607  1.0018  0.4550
43342SOL     OW35345  10.492  10.712   4.094  0.1420  0.3568  0.5165
43342SOL    HW135346  10.528  10.801   4.103  1.6686 -0.2900  1.1169
43342SOL    HW235347  10.432  10.703   4.168 -1.1196  1.3488 -0.3282
43343SOL     OW35348   6.618   2.868   0.123  0.2016 -0.2900 -0.5885
43343SOL    HW135349   6.591   2.881   0.032  2.0756 -0.1450 -1.1829
43343SOL    HW235350   6.676   2.943   0.141 -1.5508  0.6803  1.3547
43344SOL     OW35351  10.215   9.374  10.298 -0.9069 -0.0687 -0.1351
43344SOL    HW135352  10.305   9.400  10.279  0.2002 -3.3686 -0.1203
43344SOL    HW235353  10.178   9.351  10.213 -0.8579 -1.0710  0.1002
43345SOL     OW35354   2.937  11.570   0.316 -1.0604  0.2682  0.7468
43345SOL    HW135355   2.904  11.482   0.298  0.4256 -0.5264  1.6833
43345SOL    HW235356   2.859  11.620   0.343 -2.0563 -0.4992 -0.6074
43346SOL     OW35357  11.201   6.461   5.089  0.1763 -0.0776  0.3997
43346SOL    HW135358  11.189   6.556   5.085  0.4393 -0.0570 -2.7997
43346SOL    HW235359  11.119   6.425   5.054  0.2167 -1.0592  1.2422
43347SOL     OW35360   2.814   3.818   5.395 -0.3957 -0.2058 -0.5359
43347SOL    HW135361   2.877   3.839   5.463 -0.5938  1.2246 -0.7561
43347SOL    HW235362   2.733   3.798   5.443 -1.1693  2.9381 -0.2984
43348SOL     OW35363   4.896   5.375   2.069  0.0509 -0.0171  0.3631
43348SOL    HW135364   4.866   5.351   1.981  1.4433  1.5999 -0.6035
43348SOL    HW235365   4.829   5.435   2.101  0.0353  0.1674 -0.0081
43349SOL     OW35366   3.575   2.576   6.281 -0.6128 -0.0615 -0.1197
43349SOL    HW135367   3.481   2.593   6.285 -1.2427 -2.7242 -1.3003
43349SOL    HW235368   3.596   2.583   6.187  0.6621  1.5394  0.2243
43350SOL     OW35369   3.624   2.630   7.256  0.4665 -0.1118 -0.1000
43350SOL    HW135370   3.568   2.706   7.274 -0.3028 -0.7363  0.1956
43350SOL    HW235371   3.671   2.615   7.338  1.4681  0.7095 -0.4915
43351SOL     OW35372  10.680  10.983   4.673 -0.2767 -0.6759 -0.3911
43351SOL    HW135373  10.588  10.969   4.693 -0.1244 -1.3440 -0.1448
43351SOL    HW235374  10.696  11.075   4.697 -0.4078 -1.0821  1.3915
43352SOL     OW35375   6.194   0.284   1.709  0.5370 -0.1896 -0.1977
43352SOL    HW135376   6.258   0.294   1.779  1.3797 -0.2884 -0.9321
43352SOL    HW235377   6.115   0.329   1.741  0.7210 -0.7246  1.0304
43353SOL     OW35378   0.080  11.347   6.728  0.7925  0.3464  0.0223
43353SOL    HW135379  -0.010  11.362   6.756  1.0958 -0.1635  1.3558
43353SOL    HW235380   0.113  11.433   6.702  0.8696  1.1328  2.4881
43354SOL     OW35381   7.284   1.140   9.389 -0.1032 -0.0267 -0.2761
43354SOL    HW135382   7.367   1.104   9.358  0.3902  1.3491 -0.6341
43354SOL    HW235383   7.234   1.157   9.309  0.2169  1.3025 -0.2147
43355SOL     OW35384   4.956   1.699   2.633 -0.6639  0.0860  0.3843
43355SOL    HW135385   4.909   1.726   2.712 -0.1868  1.0419  0.3584
43355SOL    HW235386   5.040   1.666   2.666 -1.8292 -3.0391  0.5652
43356SOL     OW35387   9.540   1.116   2.371  0.1349  0.2994 -0.3209
43356SOL    HW135388   9.634   1.131   2.373  0.2839 -0.5918  0.4054
43356SOL    HW235389   9.516   1.121   2.279  0.7823  1.1356 -0.4525
43357SOL     OW35390   9.005   7.756   0.204  0.2483  0.2848 -0.2724
43357SOL    HW135391   9.087   7.708   0.202  0.5403  0.7566  0.1501
43357SOL    HW235392   8.951   7.715   0.137  0.2387 -1.0786  0.5345
43358SOL     OW35393   1.701   3.023   5.934 -0.4216  0.1206  0.2166
43358SOL    HW135394   1.651   3.082   5.878 -1.7637  0.0736  1.3300
43358SOL    HW235395   1.784   3.012   5.888 -2.1253 -1.4533 -2.7709
43359SOL     OW35396   6.762  10.221   4.508  0.4482 -0.3447  0.6398
43359SOL    HW135397   6.838  10.163   4.509  1.5700  0.9917 -1.1971
43359SOL    HW235398   6.713  10.196   4.430 -1.7611 -2.0240  2.4548
43360SOL     OW35399   4.459   0.407   2.405 -0.1708 -0.0581 -0.2751
43360SOL    HW135400   4.378   0.448   2.374 -1.2096 -1.0730  0.9894
43360SOL    HW235401   4.435   0.366   2.488  1.5995 -0.5641  0.0238
43361SOL     OW35402   5.106   5.211   3.462  0.5310  0.6256  0.2444
43361SOL    HW135403   5.082   5.299   3.433  0.0113 -0.1403 -1.8191
43361SOL    HW235404   5.177   5.184   3.404 -0.6598 -1.0386 -0.5562
43362SOL     OW35405   2.990   9.375   0.680  0.0822 -0.5280 -0.4285
43362SOL    HW135406   3.061   9.312   0.690  0.7646 -0.0507 -1.8836
43362SOL    HW235407   3.010   9.420   0.598  0.5953  2.7925  1.3254
43363SOL     OW35408   4.469   0.985   3.471  0.5612  0.3379  0.4082
43363SOL    HW135409   4.500   1.076   3.473  0.4300  0.3685  1.1598
43363SOL    HW235410   4.499   0.947   3.553 -0.3103  0.0098  0.5848
43364SOL     OW35411   8.831   3.918   6.036 -0.4423 -0.4133 -0.1778
43364SOL    HW135412   8.836   3.829   6.070 -1.0861 -0.6484 -0.6799
43364SOL    HW235413   8.788   3.968   6.105  0.9870 -0.2139  0.6084
43365SOL     OW35414   8.574   8.653   4.679 -0.0941  0.1043 -0.3525
43365SOL    HW135415   8.611   8.709   4.747 -0.1286 -0.8276  0.4561
43365SOL    HW235416   8.498   8.701   4.647  0.7535  1.2118 -0.7626
43366SOL     OW35417   0.422   4.176   6.904  0.0063  0.1582 -0.2511
43366SOL    HW135418   0.414   4.115   6.831  2.6346  0.8002 -1.1941
43366SOL    HW235419   0.353   4.240   6.891 -1.5026 -1.4031 -0.3833
43367SOL     OW35420   2.992   6.658   1.421  0.8047  0.3523 -0.1695
43367SOL    HW135421   2.983   6.728   1.356 -0.3579 -0.1617 -0.5822
43367SOL    HW235422   3.055   6.598   1.382  2.4162  1.5179  0.5277
43368SOL     OW35423   0.430   3.798   2.954  0.0659  0.1717  0.0602
43368SOL    HW135424   0.498   3.735   2.979 -0.0639  0.4316  1.1159
43368SOL    HW235425   0.475   3.881   2.945  0.0760  0.1200 -0.3506
43369SOL     OW35426   9.663   4.608   1.808  0.0339 -0.0048 -0.1891
43369SOL    HW135427   9.684   4.524   1.848 -1.2279  0.3284  1.2532
43369SOL    HW235428   9.748   4.642   1.778  0.4622 -2.1198 -1.5688
43370SOL     OW35429   8.011   7.166   9.125 -0.4158 -0.2805 -0.7008
43370SOL    HW135430   7.915   7.172   9.117 -0.3963 -0.8533 -1.4790
43370SOL    HW235431   8.043   7.246   9.082 -0.5519  0.1813  0.0355
43371SOL     OW35432   6.400   5.400   6.727 -0.3022  0.0727 -0.5339
43371SOL    HW135433   6.349   5.429   6.652 -1.8541  0.1919  0.5142
43371SOL    HW235434   6.360   5.318   6.754 -0.6777  0.7104  0.9795
43372SOL     OW35435   6.831   8.898   5.646 -0.2233 -0.0193 -0.4394
43372SOL    HW135436   6.800   8.972   5.593  0.2539 -0.3694 -1.2296
43372SOL    HW235437   6.811   8.923   5.736  0.3325  1.2915 -0.6457
43373SOL     OW35438   3.841   7.546   1.401  0.1120 -0.2216 -0.1629
43373SOL    HW135439   3.747   7.550   1.381  0.1788  1.2727 -0.2740
43373SOL    HW235440   3.845   7.539   1.496 -0.1165  0.5457 -0.0904
43374SOL     OW35441   1.651   0.673  10.684 -0.1469  0.1012 -0.5069
43374SOL    HW135442   1.648   0.602  10.619 -1.0702  0.4466 -0.8514
43374SOL    HW235443   1.704   0.740  10.642  1.7297 -0.8063  0.2844
43375SOL     OW35444   9.220   9.706   8.465  0.7613 -0.7180 -0.6130
43375SOL    HW135445   9.148   9.720   8.404  0.0220  0.4058  0.4786
43375SOL    HW235446   9.221   9.784   8.520  2.9096 -0.6418 -0.6621
43376SOL     OW35447   6.076   1.546  10.539 -0.1577  0.2744  0.7887
43376SOL    HW135448   6.089   1.561  10.446 -0.9319  0.6121  0.7252
43376SOL    HW235449   6.118   1.621  10.582 -1.6049  1.2262  0.6012
43377SOL     OW35450   8.871  10.454  10.698 -0.8663  0.5241  0.4055
43377SOL    HW135451   8.965  10.443  10.708 -1.0269 -1.1093  0.3847
43377SOL    HW235452   8.845  10.507  10.773 -0.1109 -0.1056  1.1292
43378SOL     OW35453  10.192   7.483   9.503  0.8060 -0.1927 -0.1714
43378SOL    HW135454  10.183   7.513   9.412 -0.8219  1.1577  0.3961
43378SOL    HW235455  10.203   7.563   9.554  1.2344 -0.9055  0.8877
43379SOL     OW35456   9.214   6.801  10.890  0.1023 -0.6813  0.1135
43379SOL    HW135457   9.265   6.882  10.878 -0.9106 -0.2301 -1.5560
43379SOL    HW235458   9.161   6.795  10.811  0.9096 -3.5756 -0.3211
43380SOL     OW35459  11.075   3.245   7.267 -0.1878 -0.0856 -0.1104
43380SOL    HW135460  11.112   3.172   7.219  0.0958 -0.3504  0.4987
43380SOL    HW235461  10.982   3.245   7.243  0.0225  0.0121 -0.9263
43381SOL     OW35462   7.458   2.089   0.655  0.1991 -0.7422  0.3535
43381SOL    HW135463   7.378   2.065   0.702  0.4136  0.2901  1.2867
43381SOL    HW235464   7.528   2.040   0.699  0.5082  0.8042  1.6609
43382SOL     OW35465   9.112   2.020   7.378 -0.0150 -0.1145 -0.0800
43382SOL    HW135466   9.082   2.099   7.424  1.1130  0.2725  0.0343
43382SOL    HW235467   9.160   2.054   7.302  0.0344 -0.7067 -0.3140
43383SOL     OW35468   4.686   0.108   3.971 -0.0804 -0.3067 -0.5304
43383SOL    HW135469   4.658   0.181   4.027  0.0276 -0.0152 -0.8536
43383SOL    HW235470   4.640   0.032   4.007  0.3651 -0.2148  0.2552
43384SOL     OW35471   2.523   1.652   7.957 -0.7718  0.4268  0.6386
43384SOL    HW135472   2.581   1.592   7.911 -3.9819 -1.6391 -1.1005
43384SOL    HW235473   2.537   1.737   7.915 -1.3438 -0.7311 -2.0858
43385SOL     OW35474   0.869   2.450   2.677  0.4762 -0.6225  0.2351
43385SOL    HW135475   0.964   2.450   2.684  0.4764 -0.4222  0.2305
43385SOL    HW235476   0.844   2.542   2.685  0.1676 -0.8249  1.7862
43386SOL     OW35477   8.334  11.797   4.903  0.4447  0.0698  0.4658
43386SOL    HW135478   8.381  11.715   4.889  1.1602  0.4922  0.3469
43386SOL    HW235479   8.295  11.787   4.990  1.7410  0.1657  1.0817
43387SOL     OW35480   6.646   0.380  11.234 -0.0361 -0.2322 -0.4398
43387SOL    HW135481   6.690   0.300  11.205  0.0234 -0.7837  1.0868
43387SOL    HW235482   6.618   0.423  11.153 -0.7290 -2.1691 -1.2812
43388SOL     OW35483   1.791   5.977   5.281  0.2710  0.0054  0.2624
43388SOL    HW135484   1.854   6.013   5.343  0.5396 -0.1081  0.0565
43388SOL    HW235485   1.766   5.892   5.319 -1.9622  1.2674  1.8505
43389SOL     OW35486   7.104  10.157  11.390 -0.1105  0.2373 -0.3065
43389SOL    HW135487   7.053  10.146  11.310  2.6909  1.0271 -2.3441
43389SOL    HW235488   7.089  10.248  11.417 -0.9754 -0.0019  0.0457
43390SOL     OW35489   5.436   8.591   3.756 -0.2205  1.0482 -0.2500
43390SOL    HW135490   5.360   8.646   3.734 -0.3733  1.3031  0.8495
43390SOL    HW235491   5.506   8.622   3.699 -0.1437  2.8059  0.7285
43391SOL     OW35492   1.677   4.632   5.396  0.4341  0.4178  0.6195
43391SOL    HW135493   1.595   4.663   5.358  0.2984  0.5413  1.0062
43391SOL    HW235494   1.744   4.653   5.331  0.5251  2.5743  1.3366
43392SOL     OW35495   5.432   5.939   6.489  0.3482 -0.4264 -0.0350
43392SOL    HW135496   5.404   6.009   6.548 -0.3894  0.4862 -1.4282
43392SOL    HW235497   5.439   5.862   6.546  0.9629  0.6950  1.4898
43393SOL     OW35498   6.348   9.620   0.257  0.1534  0.4056 -0.2399
43393SOL    HW135499   6.262   9.636   0.217  1.0687 -0.4857 -2.8239
43393SOL    HW235500   6.330   9.563   0.332 -1.7944  3.0541  1.4725
43394SOL     OW35501   6.901   5.037   3.911 -0.5336  0.4112 -0.4315
43394SOL    HW135502   6.896   4.956   3.963  0.2764  0.4809 -0.2266
43394SOL    HW235503   6.813   5.073   3.914 -0.7401 -0.1167  0.0501
43395SOL     OW35504   2.233   5.682   3.568 -0.4816  0.5086 -0.2036
43395SOL    HW135505   2.173   5.653   3.499  0.9730  1.3994 -1.9349
43395SOL    HW235506   2.193   5.763   3.601 -0.7042  0.6092 -0.7050
43396SOL     OW35507   2.471  11.817   0.942  0.0535 -0.0661 -0.2593
43396SOL    HW135508   2.382  11.815   0.906  0.6699  0.3682 -1.8901
43396SOL    HW235509   2.500  11.726   0.940 -0.0515 -0.0938 -0.4822
43397SOL     OW35510   0.604   4.923   6.338  0.3267 -0.5550 -0.1486
43397SOL    HW135511   0.547   4.901   6.264  1.0160 -0.8667 -0.5978
43397SOL    HW235512   0.549   4.975   6.397 -0.3145 -0.5587 -0.7379
43398SOL     OW35513  10.968  10.022   3.320 -0.4179  0.4495  0.0299
43398SOL    HW135514  10.981   9.927   3.319 -0.5786  0.3935  1.4261
43398SOL    HW235515  10.908  10.039   3.247 -1.4399 -0.6947  0.5659
43399SOL     OW35516   4.055   0.215   0.753 -0.3582  0.4714 -0.5858
43399SOL    HW135517   3.968   0.194   0.788  0.1204 -0.0808  0.2930
43399SOL    HW235518   4.037   0.267   0.674 -1.4809  1.5652  0.3454
43400SOL     OW35519   1.990   4.321   0.027 -0.0221 -0.3192 -0.0367
43400SOL    HW135520   1.960   4.274  -0.051  1.0562  0.2993 -0.8483
43400SOL    HW235521   1.911   4.331   0.081 -0.7909 -0.7113 -1.0633
43401SOL     OW35522   4.466  11.464   3.014 -0.2086  0.3981 -0.2278
43401SOL    HW135523   4.552  11.495   3.041 -0.6972  1.1575  0.5043
43401SOL    HW235524   4.483  11.380   2.972  0.8375  0.3360  0.2917
43402SOL     OW35525  10.673   9.489   5.429 -0.4951  0.2030  0.1762
43402SOL    HW135526  10.732   9.556   5.464  1.1091 -0.6025 -0.8446
43402SOL    HW235527  10.723   9.449   5.357 -1.0538 -2.6370  1.2487
43403SOL     OW35528  11.797   9.800   5.014  0.3902  0.6612 -0.4799
43403SOL    HW135529  11.745   9.720   5.022  1.1432  0.3299  1.5311
43403SOL    HW235530  11.747   9.855   4.953 -2.4408  0.4461  1.4788
43404SOL     OW35531   2.772   2.955   2.763  0.6411  0.1505  0.1462
43404SOL    HW135532   2.729   2.959   2.848 -1.1891  1.3200 -0.7593
43404SOL    HW235533   2.711   2.906   2.708  1.2827  0.3288 -0.7508
43405SOL     OW35534   9.355   1.659  10.722 -0.5598 -0.1393  0.0738
43405SOL    HW135535   9.277   1.604  10.720 -0.5613 -0.1356 -2.1311
43405SOL    HW235536   9.410   1.627  10.650  1.3124  0.1292  1.2979
43406SOL     OW35537   0.724   8.782   3.047 -0.0107  0.6253  0.2160
43406SOL    HW135538   0.774   8.797   2.966  0.1109  1.3117  0.4168
43406SOL    HW235539   0.731   8.687   3.061  0.5382  0.5944 -0.2096
43407SOL     OW35540   8.110   7.925  10.779  0.2773  0.5321  0.0271
43407SOL    HW135541   8.204   7.926  10.760  0.0845 -0.0853 -1.0469
43407SOL    HW235542   8.084   8.017  10.774  1.1459  0.9471  2.1708
43408SOL     OW35543   2.332   6.825   2.900  0.4030  0.3287  0.1552
43408SOL    HW135544   2.319   6.919   2.914 -2.0740 -0.0606  1.0071
43408SOL    HW235545   2.246   6.786   2.916  1.5602 -2.2088  0.7346
43409SOL     OW35546  11.017   0.079   7.690 -0.4555  0.2467  0.2029
43409SOL    HW135547  10.964   0.059   7.766  1.0527  0.7596  1.4467
43409SOL    HW235548  11.034   0.173   7.696  1.6530 -0.1132  0.6017
43410SOL     OW35549   9.234   9.323   8.970  0.6514 -0.1050 -0.4431
43410SOL    HW135550   9.259   9.251   8.912 -0.0403 -1.9946  1.4741
43410SOL    HW235551   9.200   9.280   9.048 -0.0693  2.3379  0.6827
43411SOL     OW35552   9.008   1.260   2.934  0.6822 -0.0846  0.2722
43411SOL    HW135553   8.950   1.193   2.898 -0.3769  1.1484 -0.4215
43411SOL    HW235554   8.975   1.275   3.023  0.5372 -0.0736  0.2178
43412SOL     OW35555  11.805   3.222  10.672 -0.2529 -0.0553  0.8114
43412SOL    HW135556  11.895   3.191  10.661 -0.6000 -0.6303 -0.5668
43412SOL    HW235557  11.806   3.269  10.755  1.1097 -0.8114  1.2456
43413SOL     OW35558   1.746   4.364   6.638 -0.4084  0.2917  0.5049
43413SOL    HW135559   1.814   4.393   6.577 -1.0992  0.1493 -0.3430
43413SOL    HW235560   1.794   4.313   6.704  0.1885 -0.5925 -0.5925
43414SOL     OW35561  11.264  11.515   7.899 -0.4131  0.0486  0.2589
43414SOL    HW135562  11.239  11.582   7.836  0.1472  0.9363  0.9605
43414SOL    HW235563  11.192  11.451   7.896 -1.5395  1.2602  0.4050
43415SOL     OW35564   2.677   6.125   6.034 -0.1474 -0.8020  0.1978
43415SOL    HW135565   2.636   6.155   6.115  0.3041 -0.1405  0.1940
43415SOL    HW235566   2.635   6.042   6.014 -2.1593  0.2662 -0.2909
43416SOL     OW35567  11.002   3.832   9.185 -0.0431 -0.0744  0.0706
43416SOL    HW135568  11.081   3.792   9.219  0.3896  1.1519  0.5525
43416SOL    HW235569  10.963   3.765   9.129  0.5097 -1.2417  1.0495
43417SOL     OW35570   1.145   5.669   6.830 -0.2612  0.4848  0.2073
43417SOL    HW135571   1.221   5.721   6.803 -0.6704  0.4398 -1.1351
43417SOL    HW235572   1.150   5.666   6.925  0.8048  1.4078  0.2004
43418SOL     OW35573   8.413   0.979   4.211 -0.0166 -0.2114  0.2165
43418SOL    HW135574   8.423   0.888   4.237  0.1051  0.0050  0.9359
43418SOL    HW235575   8.345   1.014   4.268 -0.8732 -0.1348 -0.8066
43419SOL     OW35576   4.425   3.405   7.023  0.3063  0.1121 -0.2049
43419SOL    HW135577   4.473   3.458   6.961 -0.1402  1.0470  0.2295
43419SOL    HW235578   4.457   3.433   7.109  1.9808 -2.1655  0.0221
43420SOL     OW35579   0.280   7.641   6.385 -0.0275 -0.0898 -0.4019
43420SOL    HW135580   0.367   7.608   6.365  0.6007  0.3239  1.4066
43420SOL    HW235581   0.295   7.709   6.450 -1.8186 -1.8030  2.0186
43421SOL     OW35582   9.935   6.502   3.446  0.2045  0.0300  0.1566
43421SOL    HW135583   9.852   6.526   3.406  0.5382  1.7679  0.4322
43421SOL    HW235584   9.912   6.436   3.512 -0.9506  0.4720  0.2108
43422SOL     OW35585   1.271   7.662   4.226  0.4623 -0.1439  0.5547
43422SOL    HW135586   1.331   7.624   4.163 -0.2067 -0.8664  0.3321
43422SOL    HW235587   1.327   7.702   4.292  1.1691  0.5546 -0.4470
43423SOL     OW35588   6.469   7.041   4.229 -0.6663 -0.0278 -0.5247
43423SOL    HW135589   6.548   6.995   4.258 -0.5079  1.0386  0.8741
43423SOL    HW235590   6.405   7.026   4.299 -1.2884  0.1255 -1.0548
43424SOL     OW35591   3.790   5.968  11.631  0.2884  0.2598 -0.9123
43424SOL    HW135592   3.771   5.936  11.543 -0.5222 -1.3677 -0.1938
43424SOL    HW235593   3.719   6.028  11.651 -0.3442 -0.4940 -0.8431
43425SOL     OW35594   2.941   8.395   2.698 -0.1218  0.3360  0.3177
43425SOL    HW135595   3.002   8.322   2.692 -0.6828 -0.1605  0.5596
43425SOL    HW235596   2.993   8.472   2.674 -0.0849 -0.4079 -2.1534
43426SOL     OW35597   4.414   6.869  10.072 -0.0576 -0.6356  0.1258
43426SOL    HW135598   4.386   6.823  10.151  1.1188  0.0086  0.9470
43426SOL    HW235599   4.404   6.962  10.093  2.3220 -0.3802  0.3682
43427SOL     OW35600   0.905   7.627   5.072 -0.8256 -0.3081 -0.1533
43427SOL    HW135601   0.899   7.640   4.978 -2.3177 -2.8963 -0.5152
43427SOL    HW235602   0.967   7.556   5.083 -0.1216  0.4322  0.9203
43428SOL     OW35603   8.498   0.595   6.226  0.2199 -0.4001  0.0561
43428SOL    HW135604   8.456   0.526   6.278  1.6690 -0.3112  1.4242
43428SOL    HW235605   8.438   0.669   6.232 -0.2527 -0.8063  0.5097
43429SOL     OW35606   7.526  11.185   8.740 -0.4244 -0.4201  0.4632
43429SOL    HW135607   7.562  11.199   8.827  0.5084  0.3963 -0.0404
43429SOL    HW235608   7.559  11.257   8.687 -0.6480 -1.1130 -0.6715
43430SOL     OW35609  11.814   5.579   5.249 -0.2197  0.5144 -0.0581
43430SOL    HW135610  11.906   5.606   5.247 -0.6582  2.3370  1.5306
43430SOL    HW235611  11.812   5.506   5.311  0.1140  0.6261  0.0873
43431SOL     OW35612   1.499   8.148   4.398 -0.2807  0.2032 -0.2554
43431SOL    HW135613   1.541   8.173   4.480 -3.0372 -1.1582  1.7281
43431SOL    HW235614   1.439   8.220   4.378  1.1038  1.0176 -1.7397
43432SOL     OW35615   4.926   6.968  11.527  0.7961  0.4875 -0.1261
43432SOL    HW135616   4.903   6.892  11.580  0.8103  1.1454  0.8413
43432SOL    HW235617   5.021   6.974  11.533  0.6751  1.7311  1.4858
43433SOL     OW35618  10.167   3.944  11.274  0.8016 -0.0045 -0.7893
43433SOL    HW135619  10.162   3.849  11.282  1.1828  0.0345  0.0357
43433SOL    HW235620  10.082   3.971  11.241 -0.0581 -0.4537  0.9475
43434SOL     OW35621   6.675  11.152  11.609  0.2328 -0.2861  0.5967
43434SOL    HW135622   6.734  11.129  11.681  2.0007 -0.3584 -0.8045
43434SOL    HW235623   6.601  11.092  11.620  0.4356 -0.2873  2.3380
43435SOL     OW35624   4.383  10.030   9.419  0.1592 -0.6986  0.2555
43435SOL    HW135625   4.325   9.961   9.451 -0.8145 -0.2243 -0.4230
43435SOL    HW235626   4.342  10.061   9.338  0.2958  1.0068  0.7839
43436SOL     OW35627   5.398  10.562   8.895 -0.8320  0.1286  0.0760
43436SOL    HW135628   5.462  10.610   8.843 -1.7165  2.3445  0.8771
43436SOL    HW235629   5.445  10.486   8.929  0.7209  0.5291 -1.0858
43437SOL     OW35630   8.022   1.659   6.111  0.0364  0.6786  0.3845
43437SOL    HW135631   8.014   1.588   6.047  0.3353  0.4590  0.5902
43437SOL    HW235632   8.097   1.710   6.081 -0.9181  1.6242 -0.4553
43438SOL     OW35633   2.749   7.579   8.593  0.4789 -0.0958  0.0497
43438SOL    HW135634   2.756   7.614   8.682  0.9491  1.0446 -0.4156
43438SOL    HW235635   2.656   7.588   8.571  0.7157  1.7766 -0.3876
43439SOL     OW35636   7.183   0.133  10.199  0.1704 -0.5708  0.3778
43439SOL    HW135637   7.136   0.149  10.118 -0.2050  0.7576  0.8348
43439SOL    HW235638   7.173   0.214  10.250 -0.7209 -1.8020  2.2967
43440SOL     OW35639   1.187   0.561   8.056  0.0146  0.4344  0.2942
43440SOL    HW135640   1.211   0.639   8.107 -0.6459  0.7223  0.1766
43440SOL    HW235641   1.118   0.592   7.997  3.1271  1.0338 -3.4017
43441SOL     OW35642   9.884   3.892   2.562 -0.1145  0.1309 -0.5531
43441SOL    HW135643   9.856   3.964   2.507 -1.7170  0.3206  0.4425
43441SOL    HW235644   9.826   3.820   2.539  0.8534 -0.5742 -0.8673
43442SOL     OW35645   4.665   0.308   0.885  0.6252 -0.3360 -0.4269
43442SOL    HW135646   4.740   0.329   0.830  1.0344  0.6609  0.4852
43442SOL    HW235647   4.600   0.375   0.863  0.5995 -0.2414 -0.0613
43443SOL     OW35648  10.651   7.267  10.690 -0.4773 -0.2336 -0.0833
43443SOL    HW135649  10.739   7.231  10.697 -0.1831  0.5901  0.5389
43443SOL    HW235650  10.631   7.264  10.596 -0.0160 -0.9534 -0.1602
43444SOL     OW35651   6.167   5.499   0.441 -0.0159 -0.2322 -0.6682
43444SOL    HW135652   6.195   5.481   0.351 -0.3488 -0.2913 -0.7614
43444SOL    HW235653   6.224   5.444   0.495 -0.1150 -0.5342 -0.8679
43445SOL     OW35654  10.419   7.514  11.254  0.2372  0.1967 -0.3386
43445SOL    HW135655  10.437   7.430  11.296  1.9961  1.0151  0.6421
43445SOL    HW235656  10.328   7.507  11.225  0.1840 -1.8441  0.1620
43446SOL     OW35657  10.925   1.213   6.640  0.1270  0.1830 -0.2533
43446SOL    HW135658  10.833   1.186   6.631  0.0696  0.3755 -0.2499
43446SOL    HW235659  10.925   1.305   6.612  0.2293  0.3319  0.2332
43447SOL     OW35660   6.628   5.502   8.194 -0.7579 -0.0192 -0.1312
43447SOL    HW135661   6.623   5.450   8.274 -1.1129 -0.4368 -0.4223
43447SOL    HW235662   6.583   5.584   8.216 -1.1534 -0.2673 -0.0062
43448SOL     OW35663   3.571   4.454   3.663 -0.0367  0.0529 -0.2761
43448SOL    HW135664   3.506   4.523   3.647 -0.1384  0.7776  2.6927
43448SOL    HW235665   3.655   4.499   3.664  0.1024 -0.2035 -0.2068
43449SOL     OW35666   5.825   1.498   7.097 -0.0951  0.4265  0.6869
43449SOL    HW135667   5.881   1.444   7.042 -1.8464  0.5342 -1.3593
43449SOL    HW235668   5.813   1.579   7.047 -0.6597  1.1045  1.8770
43450SOL     OW35669   5.285   4.546   7.573  0.0307  0.1318 -0.0571
43450SOL    HW135670   5.370   4.542   7.618  0.9702  3.2126 -1.3148
43450SOL    HW235671   5.286   4.472   7.513  1.1073 -0.8304  1.0993
43451SOL     OW35672  10.500   7.217   4.805 -0.1657  0.4906 -0.1903
43451SOL    HW135673  10.442   7.272   4.751 -0.7297  0.0246 -0.0754
43451SOL    HW235674  10.585   7.260   4.801 -0.6718  1.5562  0.1608
43452SOL     OW35675  11.252   8.771   6.973  0.3185  0.5229 -0.2996
43452SOL    HW135676  11.283   8.698   7.027  0.3228  0.7795  0.0438
43452SOL    HW235677  11.250   8.735   6.884 -0.9799 -0.3106  0.0383
43453SOL     OW35678   9.869   1.784   9.734  0.3688 -0.2488  0.5407
43453SOL    HW135679   9.956   1.754   9.760  0.1814 -0.0154  1.4995
43453SOL    HW235680   9.863   1.873   9.769 -0.7086 -0.7104  1.6379
43454SOL     OW35681  11.300   9.128   6.380  0.2384  0.2683  0.4407
43454SOL    HW135682  11.373   9.167   6.428  1.6294  0.9210 -1.9917
43454SOL    HW235683  11.314   9.034   6.386 -0.0831  0.2916  1.9112
43455SOL     OW35684   1.370  11.077   3.413 -0.5631 -0.0908 -0.0192
43455SOL    HW135685   1.294  11.022   3.395  0.1059 -0.9576 -0.2560
43455SOL    HW235686   1.434  11.017   3.451  0.5309  0.3242 -1.1657
43456SOL     OW35687   8.787   7.827   1.877 -0.3638 -0.1166 -0.8095
43456SOL    HW135688   8.743   7.759   1.827  2.0874 -0.8516 -2.1547
43456SOL    HW235689   8.880   7.816   1.855  0.6347  0.8132  2.4122
43457SOL     OW35690   2.811  11.312   1.314  0.0816  0.5229  0.4398
43457SOL    HW135691   2.781  11.283   1.400  0.4601 -0.5125  0.2441
43457SOL    HW235692   2.894  11.266   1.302 -0.3288  0.0619 -0.7823
43458SOL     OW35693   8.206   2.416   3.808 -0.0113  0.1026  0.5934
43458SOL    HW135694   8.234   2.335   3.764  1.3687  0.9511 -0.1413
43458SOL    HW235695   8.221   2.485   3.744  0.6911  1.2014  1.8939
43459SOL     OW35696   3.318   5.181   7.666  0.1623 -0.0122 -1.0103
43459SOL    HW135697   3.261   5.104   7.659 -1.2403  0.9709 -0.7310
43459SOL    HW235698   3.400   5.154   7.624 -0.1698 -1.7694 -0.6149
43460SOL     OW35699   2.277   6.877   6.229 -0.5993 -0.5583  0.0033
43460SOL    HW135700   2.253   6.901   6.139  1.0762 -0.1535 -0.3736
43460SOL    HW235701   2.265   6.958   6.279  2.5954  0.5306 -0.7662
43461SOL     OW35702   0.931   2.606  10.649 -0.0967  0.2108 -0.0964
43461SOL    HW135703   0.983   2.573  10.575  0.1507 -0.6226  0.4293
43461SOL    HW235704   0.995   2.647  10.707 -0.2054  0.3399 -0.0684
43462SOL     OW35705   2.584  10.696   0.048  0.2083  0.1392  0.0955
43462SOL    HW135706   2.604  10.734  -0.038  1.8530 -0.8607  0.0065
43462SOL    HW235707   2.500  10.735   0.071  0.9635  2.4823 -0.7655
43463SOL     OW35708   9.784  11.339   9.834 -0.2437 -0.8941 -0.0739
43463SOL    HW135709   9.757  11.342   9.926 -0.9079  0.0085 -0.2901
43463SOL    HW235710   9.837  11.418   9.821 -0.8656 -0.5646 -0.6768
43464SOL     OW35711  10.933  10.670   2.404  0.1181 -0.4302 -0.2814
43464SOL    HW135712  10.942  10.577   2.383  0.8907 -0.5257  0.4219
43464SOL    HW235713  10.851  10.675   2.455 -0.8703 -0.4393 -1.8161
43465SOL     OW35714   1.869   7.146   8.574 -0.0097 -0.0514  0.3406
43465SOL    HW135715   1.812   7.179   8.505  0.7280 -0.5172 -0.5176
43465SOL    HW235716   1.936   7.213   8.585 -0.8246  0.6068  1.5172
43466SOL     OW35717   3.944   5.126   8.971  0.3384 -0.0071 -0.0872
43466SOL    HW135718   3.986   5.078   8.899  0.5414  0.6849 -0.4423
43466SOL    HW235719   3.928   5.213   8.935  1.3157  0.6642  1.0040
43467SOL     OW35720   8.358  11.643   9.621  0.5207  0.0015  0.3150
43467SOL    HW135721   8.435  11.646   9.565  0.3462  0.2467  0.0865
43467SOL    HW235722   8.288  11.611   9.564  0.5661 -0.7270  0.6567
43468SOL     OW35723   6.198   2.943   1.346  0.5006  0.7162 -0.2682
43468SOL    HW135724   6.194   2.919   1.439 -0.7967  1.7752 -0.0003
43468SOL    HW235725   6.221   3.036   1.347  1.7945  0.4231 -1.0862
43469SOL     OW35726   0.146   8.565   2.593 -0.4670 -0.0220  0.4609
43469SOL    HW135727   0.178   8.580   2.682  0.7844  2.3538 -0.2913
43469SOL    HW235728   0.204   8.497   2.557 -1.8588 -2.0282  1.8269
43470SOL     OW35729   5.710  10.442   6.235 -0.4243 -0.0741 -0.0310
43470SOL    HW135730   5.735  10.413   6.322 -0.2828 -0.8779 -0.3322
43470SOL    HW235731   5.625  10.402   6.220  0.1730 -1.1107 -0.8033
43471SOL     OW35732   5.418   6.758   2.254 -0.7312 -0.3315  0.3874
43471SOL    HW135733   5.373   6.837   2.224 -1.9501 -0.8909  0.6715
43471SOL    HW235734   5.356   6.687   2.237  1.1140 -1.5421 -1.7652
43472SOL     OW35735   5.169   8.273   9.815 -0.0014 -0.2090 -0.2464
43472SOL    HW135736   5.145   8.221   9.738  0.2416  1.3078 -1.3817
43472SOL    HW235737   5.144   8.218   9.889 -1.6550 -1.0875 -1.3930
43473SOL     OW35738   7.002  11.631   3.385  0.3555 -0.5994 -0.2429
43473SOL    HW135739   7.078  11.665   3.339  0.3103  2.0380  1.4304
43473SOL    HW235740   6.949  11.590   3.316  1.6384  0.5760 -2.0334
43474SOL     OW35741   7.567   3.970   0.913 -0.0528 -0.1300 -0.5044
43474SOL    HW135742   7.491   3.913   0.902 -0.7097  1.0253 -2.5972
43474SOL    HW235743   7.635   3.930   0.860  0.0451  0.0919 -0.5474
43475SOL     OW35744   1.584   9.730  11.612 -0.2456 -0.5073  0.5909
43475SOL    HW135745   1.541   9.810  11.641  1.9232  0.3459  1.6968
43475SOL    HW235746   1.615   9.688  11.692  0.5972 -1.2965 -0.1114
43476SOL     OW35747   6.669   2.709   4.682  0.1922  0.1576 -0.5961
43476SOL    HW135748   6.619   2.769   4.627 -0.7588 -0.6700 -0.6551
43476SOL    HW235749   6.642   2.730   4.771 -0.3505 -0.3606 -0.6346
43477SOL     OW35750   6.004   9.834   2.067  0.3107 -0.0829  0.3945
43477SOL    HW135751   5.914   9.868   2.060  0.6016  0.9517  1.3761
43477SOL    HW235752   6.053   9.883   2.000  0.3783  0.2189  0.6607
43478SOL     OW35753   8.774   5.902   8.631  0.2660 -0.0713 -0.0660
43478SOL    HW135754   8.848   5.842   8.638  1.2876  1.2619  0.9253
43478SOL    HW235755   8.706   5.851   8.585  2.1277 -0.9712 -1.9859
43479SOL     OW35756   2.664   7.837   7.058 -0.0342 -0.3898  1.2925
43479SOL    HW135757   2.656   7.754   7.105 -1.1591 -0.7688  0.4978
43479SOL    HW235758   2.739   7.826   7.000 -1.5498 -1.8382 -0.5735
43480SOL     OW35759   7.558   5.452   5.318 -0.4399  0.1173  0.1286
43480SOL    HW135760   7.619   5.378   5.310 -1.8381 -1.2517  1.3772
43480SOL    HW235761   7.575   5.486   5.406 -0.9192  0.2404  0.1730
43481SOL     OW35762   2.000   0.538  10.332 -0.3559 -0.0634 -0.8834
43481SOL    HW135763   1.999   0.447  10.360  0.6269  0.1130 -0.2445
43481SOL    HW235764   1.913   0.553  10.296 -1.5324 -0.4474  1.6055
43482SOL     OW35765   6.589   1.152   4.480 -0.0972  0.3533 -0.0964
43482SOL    HW135766   6.684   1.152   4.485 -0.0673  1.3540 -0.4394
43482SOL    HW235767   6.567   1.236   4.440 -1.0349 -0.6043 -1.6971
43483SOL     OW35768   4.152   6.854   4.967 -0.0402 -0.0191  0.6537
43483SOL    HW135769   4.066   6.891   4.945  0.2175  0.2190  0.0270
43483SOL    HW235770   4.201   6.857   4.884  0.2366 -1.0735  0.7760
43484SOL     OW35771  10.697   4.610   4.784 -0.3532 -0.0845 -0.3742
43484SOL    HW135772  10.759   4.556   4.833 -1.5731 -1.0314  0.1749
43484SOL    HW235773  10.728   4.606   4.693  0.4036 -0.5144 -0.1029
43485SOL     OW35774  10.885   7.266   3.115  0.1117 -0.2276 -0.2898
43485SOL    HW135775  10.809   7.323   3.109  0.6483  0.8721  2.2019
43485SOL    HW235776  10.960   7.324   3.103  0.6606 -0.3345  2.0669
43486SOL     OW35777   7.904   5.548   1.224  0.8520  0.1110  0.3381
43486SOL    HW135778   7.944   5.545   1.137  3.3439  1.2969  1.3421
43486SOL    HW235779   7.837   5.616   1.216  2.9755  2.3114 -0.0322
43487SOL     OW35780   3.594   6.374   2.269 -0.1027  0.0871  0.0595
43487SOL    HW135781   3.602   6.326   2.187  1.4010  1.8458 -0.9046
43487SOL    HW235782   3.647   6.453   2.256 -0.5765  0.8768  2.3914
43488SOL     OW35783   2.246   2.424   0.651 -0.3066  0.0766  0.0852
43488SOL    HW135784   2.205   2.337   0.656 -1.2674  0.5646  1.2711
43488SOL    HW235785   2.273   2.433   0.560 -1.0969 -1.0641 -0.2869
43489SOL     OW35786   6.536   2.119   3.358 -0.3840 -0.5002 -0.4061
43489SOL    HW135787   6.580   2.073   3.287 -0.1686 -1.7179  0.4840
43489SOL    HW235788   6.536   2.210   3.330 -2.1911 -1.1618 -2.9485
43490SOL     OW35789   8.148   6.723   0.644  0.5638  0.1442  0.4058
43490SOL    HW135790   8.066   6.694   0.683 -0.5071  0.9181 -1.1557
43490SOL    HW235791   8.152   6.680   0.559  2.2273 -0.5548  0.8011
43491SOL     OW35792   1.816  11.420   7.344  0.0538  0.7941  0.2523
43491SOL    HW135793   1.877  11.452   7.278  1.0498  0.2771  0.8811
43491SOL    HW235794   1.865  11.352   7.390 -1.8583 -1.4387 -0.8316
43492SOL     OW35795   9.647   7.650   0.638 -0.1967 -0.0964 -0.3184
43492SOL    HW135796   9.691   7.726   0.675 -0.3046 -0.2648  0.1619
43492SOL    HW235797   9.717   7.586   0.625 -0.3921 -0.6670  1.2127
43493SOL     OW35798   5.969   3.360   9.515 -0.0678  0.4556  0.1957
43493SOL    HW135799   6.027   3.427   9.551 -1.2455  1.5650  0.1199
43493SOL    HW235800   5.920   3.406   9.447 -0.1198 -0.7912 -0.6355
43494SOL     OW35801  11.092   2.987  10.894  0.0973 -0.3042  0.4467
43494SOL    HW135802  11.049   3.067  10.924 -0.5630 -0.1415 -0.8776
43494SOL    HW235803  11.165   3.018  10.840 -0.1753 -0.5923 -0.0913
43495SOL     OW35804   3.649   4.566   7.149  0.5726  0.2740 -0.1631
43495SOL    HW135805   3.599   4.494   7.187 -1.5934  2.2242  0.8862
43495SOL    HW235806   3.622   4.644   7.197  4.1694  1.6313  0.0289
43496SOL     OW35807   8.719   3.246   5.645  0.0365  0.4110 -0.0269
43496SOL    HW135808   8.811   3.258   5.669 -0.3423 -0.3625  2.0521
43496SOL    HW235809   8.722   3.201   5.561  1.5255  1.1913 -0.4389
43497SOL     OW35810   8.273  10.982  10.731 -0.0229 -0.2279 -0.2195
43497SOL    HW135811   8.199  10.991  10.671 -0.7736 -0.7619  0.6010
43497SOL    HW235812   8.233  10.959  10.815  1.1828 -2.9829 -0.2929
43498SOL     OW35813   7.323   4.127  10.872  0.3985  0.1868 -0.3728
43498SOL    HW135814   7.405   4.093  10.837 -0.4090 -2.1469 -0.1150
43498SOL    HW235815   7.283   4.174  10.798  1.4519  0.4645 -0.7884
43499SOL     OW35816   1.150   9.091   5.483 -0.4045  1.0641  0.7615
43499SOL    HW135817   1.099   9.014   5.457  0.8553  0.6442 -0.5844
43499SOL    HW235818   1.223   9.056   5.534  1.0264  1.1410 -1.1257
43500SOL     OW35819   7.040   1.867  10.770  0.1614 -0.1417  0.2434
43500SOL    HW135820   6.969   1.928  10.789  0.5596 -0.0614  1.5462
43500SOL    HW235821   7.025   1.841  10.679 -1.0857  0.4625  0.2523
43501SOL     OW35822   9.487   3.907   7.042  0.4586 -0.0580  0.1756
43501SOL    HW135823   9.395   3.881   7.041  0.0500  1.1329  2.2996
43501SOL    HW235824   9.486   4.002   7.045  1.7433 -0.0346  0.8502
43502SOL     OW35825   7.649   3.015   0.290 -0.6728 -0.9113 -0.1305
43502SOL    HW135826   7.585   3.053   0.230 -0.1744 -0.9901 -0.7155
43502SOL    HW235827   7.615   3.036   0.377 -0.7483  0.2920 -0.4323
43503SOL     OW35828   2.438   8.980   1.890 -0.4798 -0.1180  0.0565
43503SOL    HW135829   2.493   8.903   1.896 -0.6552 -0.2985 -0.5996
43503SOL    HW235830   2.495   9.053   1.916  0.1070 -0.2839 -0.7411
43504SOL     OW35831   1.994   5.308   5.796  0.1424 -0.1307  0.0345
43504SOL    HW135832   1.906   5.308   5.832  0.4403 -3.5463  1.0944
43504SOL    HW235833   2.051   5.326   5.871  0.4668 -1.6052  0.1829
43505SOL     OW35834   5.136   7.548   8.067 -0.4581 -0.5597 -0.1786
43505SOL    HW135835   5.079   7.534   8.143 -1.5087 -0.6952 -0.9723
43505SOL    HW235836   5.089   7.611   8.012  0.1750 -0.6428 -0.8387
43506SOL     OW35837  10.087   1.070   0.094 -0.0915  0.8265 -0.1932
43506SOL    HW135838  10.075   0.976   0.082 -0.6471  0.9090 -0.3269
43506SOL    HW235839  10.001   1.108   0.073  0.7359  1.5997 -2.6147
43507SOL     OW35840   1.707   6.697   3.418 -0.4041  0.4493  0.4208
43507SOL    HW135841   1.761   6.690   3.496  0.7133 -0.2735 -0.3878
43507SOL    HW235842   1.632   6.751   3.445 -1.0757 -1.3796  2.5336
43508SOL     OW35843  10.368   6.687   5.284 -0.1766  0.3056 -0.6288
43508SOL    HW135844  10.303   6.731   5.229 -1.6429  1.3707  1.7999
43508SOL    HW235845  10.392   6.753   5.350  0.7929 -1.1830  0.5621
43509SOL     OW35846   0.850  11.723   0.104  0.7012 -0.2178 -0.3756
43509SOL    HW135847   0.781  11.769   0.055 -1.7003 -0.9159  2.0656
43509SOL    HW235848   0.880  11.787   0.169  1.4399 -0.3263 -0.6081
43510SOL     OW35849   9.299   5.767   9.643  0.1039  0.1231  0.0726
43510SOL    HW135850   9.233   5.740   9.707 -1.1275  0.3019 -1.1039
43510SOL    HW235851   9.290   5.862   9.637 -1.9022 -0.1198 -2.5266
43511SOL     OW35852   5.145   4.423   0.011  0.0359  0.1451  0.2019
43511SOL    HW135853   5.123   4.398   0.101  0.5123  0.5099  0.4199
43511SOL    HW235854   5.085   4.371  -0.043 -0.2155 -0.1177  0.7256
43512SOL     OW35855   9.095   8.264  11.161  0.1413  0.5636  0.3562
43512SOL    HW135856   9.063   8.259  11.251  0.3879  0.2595  0.4282
43512SOL    HW235857   9.036   8.206  11.112 -0.6852  1.5815  0.1142
43513SOL     OW35858   7.407   8.146   7.430  0.1214  0.1910 -0.0698
43513SOL    HW135859   7.368   8.209   7.369  0.4059 -1.0072 -1.5322
43513SOL    HW235860   7.332   8.106   7.475 -0.1577  0.2434 -0.4848
43514SOL     OW35861   9.422   1.912   0.130  0.5164 -0.0035 -0.4135
43514SOL    HW135862   9.507   1.950   0.105  1.0610 -1.3216 -0.6376
43514SOL    HW235863   9.402   1.850   0.060  0.7336 -1.7476  0.9906
43515SOL     OW35864   9.769   6.367   1.365  0.0867 -0.5352  0.2881
43515SOL    HW135865   9.717   6.310   1.307  1.0343 -1.2965  0.1555
43515SOL    HW235866   9.727   6.453   1.357 -0.9852 -1.0555 -0.0163
43516SOL     OW35867   5.067   1.502   8.813  0.5556  0.2908  0.2801
43516SOL    HW135868   5.161   1.499   8.794  0.8457 -0.2651  1.6886
43516SOL    HW235869   5.056   1.578   8.869  0.7234 -1.3234  2.6719
43517SOL     OW35870   7.435   6.384  11.523  0.4911  0.1285 -0.1600
43517SOL    HW135871   7.468   6.457  11.470 -0.2094  0.7000  0.1815
43517SOL    HW235872   7.340   6.394  11.520  0.1686 -2.4286 -2.4781
43518SOL     OW35873   0.821   5.929   6.991 -0.1100  0.2778 -0.2189
43518SOL    HW135874   0.879   5.875   7.045 -0.0307  0.6979  0.1178
43518SOL    HW235875   0.880   5.980   6.936 -0.1312  1.1981  0.5954
43519SOL     OW35876   9.569  11.723  10.205 -0.5992 -0.0756  0.1892
43519SOL    HW135877   9.547  11.807  10.245 -0.5852 -0.1123  0.2740
43519SOL    HW235878   9.654  11.738  10.162 -1.5346  0.5287 -1.5436
43520SOL     OW35879  11.103   2.292   0.885 -0.1354  0.5222  0.8140
43520SOL    HW135880  11.053   2.356   0.834  0.6071 -0.6766 -1.5883
43520SOL    HW235881  11.038   2.232   0.921 -0.5873 -0.3662 -1.3343
43521SOL     OW35882  10.808   9.128   4.381  0.4865  0.0152  0.0200
43521SOL    HW135883  10.814   9.049   4.435  1.4480 -0.4604 -0.7513
43521SOL    HW235884  10.882   9.121   4.320 -1.1601 -0.0139 -2.0841
43522SOL     OW35885   7.499   4.707   9.088 -0.5517  0.3319 -0.0454
43522SOL    HW135886   7.520   4.614   9.085  1.8020  0.8132 -2.2536
43522SOL    HW235887   7.581   4.749   9.115 -1.3793  1.8217  0.2318
43523SOL     OW35888   7.774   7.464   0.358  1.3145 -0.2101  0.6257
43523SOL    HW135889   7.820   7.402   0.415 -0.9618  0.1361  3.0451
43523SOL    HW235890   7.711   7.410   0.310  0.7773 -0.0759  1.1628
43524SOL     OW35891   9.126   1.910  11.814 -0.5722  0.0121 -0.2085
43524SOL    HW135892   9.201   1.854  11.794 -0.0489  1.1973 -1.7749
43524SOL    HW235893   9.089   1.873  11.894  1.8009 -0.4894  0.7407
43525SOL     OW35894   5.884  11.359   0.515  0.2462 -0.1121  0.0566
43525SOL    HW135895   5.968  11.313   0.511  0.2516 -0.1575  0.6286
43525SOL    HW235896   5.819  11.289   0.517  0.1528 -0.0763 -0.9910
43526SOL     OW35897   5.728   4.398   3.475  0.2905  0.2045  0.7447
43526SOL    HW135898   5.765   4.316   3.442  0.6836  0.5486  0.3220
43526SOL    HW235899   5.770   4.466   3.423 -0.2572  0.6581  0.8895
43527SOL     OW35900   0.175   4.970  10.029  0.5431  0.2963  0.3474
43527SOL    HW135901   0.168   5.047   9.973 -2.2221  0.3212  0.5964
43527SOL    HW235902   0.173   4.896   9.968 -0.1869  0.3662  0.2821
43528SOL     OW35903   2.617   3.572   3.904  0.5272 -0.2605  0.0743
43528SOL    HW135904   2.589   3.625   3.829  2.0097 -0.1188 -0.4185
43528SOL    HW235905   2.546   3.579   3.967 -1.4815 -1.5759 -1.8803
43529SOL     OW35906   5.267   5.193   9.978  0.3347  0.8023  0.2360
43529SOL    HW135907   5.196   5.219  10.036  0.8745  1.3560  0.6571
43529SOL    HW235908   5.322   5.271   9.971  0.1020  0.8585 -1.2898
43530SOL     OW35909   4.948   2.853   3.019 -0.2126  0.0948 -0.0243
43530SOL    HW135910   4.890   2.888   3.086 -0.1629  1.4885 -0.6571
43530SOL    HW235911   5.017   2.919   3.011 -0.6578  0.3906 -1.9898
43531SOL     OW35912   9.796  10.966   3.888 -0.6082  0.5481 -0.0617
43531SOL    HW135913   9.769  11.003   3.804 -0.5505  0.2349 -0.2205
43531SOL    HW235914   9.749  10.883   3.894 -0.8383  0.7039  0.3519
43532SOL     OW35915   0.628  10.874   3.891  0.1373  0.1771  0.4550
43532SOL    HW135916   0.543  10.911   3.913 -0.2600 -0.1629 -0.4289
43532SOL    HW235917   0.687  10.949   3.890  0.0524  0.2785  1.9978
43533SOL     OW35918   2.328   3.324   7.609  0.7672  0.7775 -0.1999
43533SOL    HW135919   2.350   3.252   7.669 -0.5169 -0.5317 -1.2181
43533SOL    HW235920   2.403   3.330   7.551  1.1730  0.7212  0.3078
43534SOL     OW35921   2.149   7.617  10.713 -0.3812 -0.6870  0.2705
43534SOL    HW135922   2.074   7.617  10.654 -0.0772 -1.6793 -0.1371
43534SOL    HW235923   2.152   7.706  10.748 -2.1734 -0.8180  0.8586
43535SOL     OW35924  11.013   6.774   1.976 -0.1374  0.1135  0.2623
43535SOL    HW135925  10.946   6.836   2.004 -1.7298 -1.7898  0.8982
43535SOL    HW235926  11.001   6.768   1.881 -1.4494 -0.7844  0.4574
43536SOL     OW35927   7.165   7.875   7.331  0.3032 -0.1347  0.0544
43536SOL    HW135928   7.238   7.857   7.272  0.0290 -0.5233 -0.1690
43536SOL    HW235929   7.173   7.808   7.399 -1.0621 -1.5531 -1.0904
43537SOL     OW35930   0.387   5.100   0.060 -0.5762 -0.3979  0.1711
43537SOL    HW135931   0.376   5.154  -0.018  0.4135  0.8910  0.8868
43537SOL    HW235932   0.442   5.152   0.118  1.1001 -2.4737  0.5964
43538SOL     OW35933   2.665  10.946   1.105  0.2761  0.4824 -0.1808
43538SOL    HW135934   2.592  10.923   1.047 -1.0905 -3.6944  2.7087
43538SOL    HW235935   2.736  10.887   1.078  0.4611  0.2714  0.7489
43539SOL     OW35936  10.722   9.136   7.847 -0.8024  0.0746 -0.5024
43539SOL    HW135937  10.703   9.205   7.910 -0.6057 -1.1030  0.9042
43539SOL    HW235938  10.809   9.105   7.870 -1.2466 -1.2424 -0.4958
43540SOL     OW35939   5.751  10.963   7.815  0.0617 -0.5596  0.3910
43540SOL    HW135940   5.677  10.911   7.784 -0.2230  0.0600 -0.0067
43540SOL    HW235941   5.744  10.961   7.910 -0.0679 -1.0652  0.3745
43541SOL     OW35942   3.213   4.489   3.193  0.4973  0.2562  0.0661
43541SOL    HW135943   3.196   4.413   3.250  3.4278 -1.1489 -0.7341
43541SOL    HW235944   3.130   4.502   3.147 -0.3409 -2.0508  0.7319
43542SOL     OW35945   2.647   7.774   1.998 -0.6613  0.0875  0.3007
43542SOL    HW135946   2.588   7.811   2.064  0.7103 -2.3493  3.1820
43542SOL    HW235947   2.597   7.702   1.959 -0.2233 -1.0150  1.6654
43543SOL     OW35948   0.940   6.885   9.095 -0.0617 -0.5121 -0.2625
43543SOL    HW135949   1.002   6.834   9.147  0.2117 -1.5235 -1.5411
43543SOL    HW235950   0.961   6.976   9.115  0.5586 -0.8602  0.7688
43544SOL     OW35951   3.309   2.672   5.956  0.4541 -0.0899  0.0923
43544SOL    HW135952   3.318   2.682   5.861  1.1590 -1.2289  0.0125
43544SOL    HW235953   3.399   2.675   5.989  0.3339 -1.0727  0.5517
43545SOL     OW35954   9.183   3.202   2.234 -0.3533  0.3225 -0.2082
43545SOL    HW135955   9.255   3.139   2.245 -0.1733  0.5725  0.0551
43545SOL    HW235956   9.220   3.286   2.263 -0.7258  0.4678 -0.1544
43546SOL     OW35957   8.397   6.877   8.215  1.1639  0.4444  0.1397
43546SOL    HW135958   8.454   6.945   8.251  0.9673  0.9030 -0.4061
43546SOL    HW235959   8.408   6.884   8.120 -1.8710  2.4334 -0.1955
43547SOL     OW35960   4.013   8.906   5.170  0.1685 -0.0217  0.4149
43547SOL    HW135961   3.988   8.912   5.262 -1.6698  0.7829 -0.0862
43547SOL    HW235962   4.087   8.845   5.169  0.4970  0.2638  2.4511
43548SOL     OW35963   7.545   1.745   1.734 -0.2685 -0.4221  0.0363
43548SOL    HW135964   7.491   1.706   1.802 -0.3802  3.4803  2.5057
43548SOL    HW235965   7.485   1.802   1.686  0.5363 -0.4993 -1.1038
43549SOL     OW35966  10.462  10.540   7.048 -0.1856  0.1345 -0.5610
43549SOL    HW135967  10.424  10.608   6.993  0.1188 -2.1442 -3.8675
43549SOL    HW235968  10.540  10.581   7.088  0.3520  1.5716 -2.9240
43550SOL     OW35969   4.555   4.663   2.214 -0.0587 -0.1835 -0.1253
43550SOL    HW135970   4.520   4.732   2.271  0.6144 -1.1852  1.5908
43550SOL    HW235971   4.634   4.700   2.177 -1.4145  1.1200 -1.8907
43551SOL     OW35972   0.435   4.894   9.363 -0.3371  0.3454  0.2219
43551SOL    HW135973   0.511   4.952   9.371  0.1179 -0.2968  0.6074
43551SOL    HW235974   0.450   4.826   9.428 -0.4526 -0.6839 -0.8019
43552SOL     OW35975   1.428   8.096   5.381 -0.6333 -0.1754 -0.1032
43552SOL    HW135976   1.403   8.181   5.345  2.2626  0.7129 -0.2868
43552SOL    HW235977   1.421   8.036   5.307  0.6506  0.6643 -0.9612
43553SOL     OW35978   8.922   8.122   0.390 -0.0347 -0.0075  0.0537
43553SOL    HW135979   8.844   8.080   0.353  0.0459 -1.3082  1.2845
43553SOL    HW235980   8.979   8.049   0.416  2.2928  0.8868 -2.1493
43554SOL     OW35981   6.888   0.620   0.358 -0.6729 -0.1361 -0.1393
43554SOL    HW135982   6.982   0.635   0.359 -0.7361  0.4756  1.6269
43554SOL    HW235983   6.870   0.577   0.275  1.1768 -0.3738 -0.4442
43555SOL     OW35984   4.104  10.050  11.108 -0.1124  0.1692 -0.4627
43555SOL    HW135985   4.025  10.014  11.148 -1.0994  1.9582 -0.6821
43555SOL    HW235986   4.134   9.982  11.048 -0.6027 -1.1442  0.7357
43556SOL     OW35987   7.387   5.452   0.927 -0.8358 -0.3396  0.3207
43556SOL    HW135988   7.360   5.461   0.835 -1.3586  1.2143  0.6043
43556SOL    HW235989   7.318   5.399   0.966  0.3501 -2.6845 -0.5521
43557SOL     OW35990   5.298   3.077   3.765 -0.4185  0.4570  0.1717
43557SOL    HW135991   5.216   3.127   3.771 -0.8301 -0.2935  0.8927
43557SOL    HW235992   5.342   3.093   3.848 -1.1730 -1.4326  0.9665
43558SOL     OW35993   3.558   8.861  11.480  0.4431 -0.6540  0.0886
43558SOL    HW135994   3.526   8.861  11.390 -0.1185 -1.7133  0.2796
43558SOL    HW235995   3.479   8.855  11.534  0.5834  2.2329  0.7674
43559SOL     OW35996   4.904   8.412   9.407 -0.6862 -0.1437 -0.2843
43559SOL    HW135997   4.812   8.409   9.383 -1.1111  1.9442  0.8507
43559SOL    HW235998   4.904   8.439   9.499  1.0576  2.0481 -0.8464
43560SOL     OW35999   3.999  10.442  11.599  0.0695  0.1855 -0.1532
43560SOL    HW136000   4.019  10.396  11.518 -1.2005 -1.3953  0.3750
43560SOL    HW236001   4.082  10.442  11.647  0.1000 -1.6766 -0.1511
43561SOL     OW36002   2.892   6.666   7.981 -0.7529  0.3881 -0.3059
43561SOL    HW136003   2.964   6.716   7.943 -0.3521 -0.9293 -1.3406
43561SOL    HW236004   2.883   6.701   8.070 -0.9651  2.7644 -1.1962
43562SOL     OW36005   7.299   4.758   0.776  0.4735 -0.3018  0.1553
43562SOL    HW136006   7.324   4.680   0.826 -2.4237 -1.7093 -0.3251
43562SOL    HW236007   7.247   4.810   0.838  0.3934  0.0351 -0.1914
43563SOL     OW36008   5.502  11.406   2.709 -0.1701 -0.4634 -0.0641
43563SOL    HW136009   5.573  11.343   2.697 -0.1159 -0.2767 -0.7875
43563SOL    HW236010   5.488  11.409   2.803  0.8884 -0.3860  0.1046
43564SOL     OW36011  10.328  10.659  11.377  0.0781  0.0352 -0.2877
43564SOL    HW136012  10.391  10.642  11.447 -1.0524 -1.0758  0.4993
43564SOL    HW236013  10.380  10.655  11.297  0.9714 -1.0702  0.3195
43565SOL     OW36014   0.511   5.621   2.021 -0.3926  0.0805 -0.1681
43565SOL    HW136015   0.477   5.688   2.080 -0.8993 -0.7305  0.4850
43565SOL    HW236016   0.482   5.649   1.934 -3.1918 -0.7730  0.3891
43566SOL     OW36017   2.004   3.277  10.232  0.2500  0.0169  0.2849
43566SOL    HW136018   1.988   3.182  10.236 -0.6422  0.1798  0.8986
43566SOL    HW236019   2.099   3.285  10.235  0.3149 -0.8350  1.1515
43567SOL     OW36020   2.155   6.963   3.662 -0.2480  0.0720  0.3023
43567SOL    HW136021   2.219   7.005   3.719 -0.3608  0.2780  0.2781
43567SOL    HW236022   2.126   7.033   3.603 -0.3104 -0.0811  0.1500
43568SOL     OW36023   0.710  11.368   1.666 -0.3438 -0.6690  0.0684
43568SOL    HW136024   0.665  11.422   1.602 -0.3027 -1.1262 -0.3514
43568SOL    HW236025   0.673  11.394   1.750 -0.3368 -0.0059 -0.1276
43569SOL     OW36026   6.914   0.889   1.992  0.5019 -0.4441 -0.0642
43569SOL    HW136027   6.864   0.970   1.996  1.2491  0.0013  0.5971
43569SOL    HW236028   7.003   0.916   1.970  1.0006 -0.9562  1.2078
43570SOL     OW36029   2.706   2.025   7.508 -0.3993 -0.2048  0.2492
43570SOL    HW136030   2.632   2.086   7.505 -0.1860  0.1454  1.7684
43570SOL    HW236031   2.665   1.939   7.517 -0.6498 -0.1601 -0.3740
43571SOL     OW36032   1.464   9.217   2.651  0.2584  0.0595 -0.2849
43571SOL    HW136033   1.448   9.131   2.690  0.4484  0.4883  0.7737
43571SOL    HW236034   1.538   9.253   2.700  1.1213  0.2519 -1.6688
43572SOL     OW36035   4.555   4.615   0.429 -0.3853  0.0225 -0.3142
43572SOL    HW136036   4.517   4.651   0.509 -0.3128  0.6488 -0.5634
43572SOL    HW236037   4.641   4.657   0.421  1.1451 -2.5187  1.0998
43573SOL     OW36038   5.203   4.227   6.885 -0.0746  0.1020  0.9120
43573SOL    HW136039   5.130   4.282   6.913 -0.2227 -0.0518  0.8312
43573SOL    HW236040   5.192   4.146   6.935 -1.5011 -0.9835 -1.0070
43574SOL     OW36041   6.458   7.367  10.519 -0.0349  0.2234  0.7079
43574SOL    HW136042   6.381   7.333  10.565  1.2572 -0.3448  2.6014
43574SOL    HW236043   6.527   7.304  10.539  0.9354  0.7108 -0.9441
43575SOL     OW36044  11.328   5.626   1.935 -0.2907  0.4908 -0.0292
43575SOL    HW136045  11.376   5.560   1.885 -0.0145  0.1049  0.7373
43575SOL    HW236046  11.261   5.576   1.982 -1.7739  1.0716 -1.4376
43576SOL     OW36047   4.926   3.812   4.678  0.1297 -0.1754  0.1349
43576SOL    HW136048   4.881   3.817   4.594 -0.2811  0.5037  0.3873
43576SOL    HW236049   4.896   3.889   4.726  0.8946 -0.1816  0.6407
43577SOL     OW36050   8.235   4.358  10.096 -0.2527 -0.0679  0.1508
43577SOL    HW136051   8.241   4.275  10.049  0.6639 -1.4420  2.4915
43577SOL    HW236052   8.323   4.371  10.132 -0.4080  1.9045 -0.1157
43578SOL     OW36053  11.088   5.878   1.481 -0.7318 -0.7237 -0.1226
43578SOL    HW136054  11.002   5.919   1.485 -0.7030 -0.6896  0.1355
43578SOL    HW236055  11.089   5.833   1.396 -0.1389  1.1554 -1.1587
43579SOL     OW36056   3.822   0.643   0.666  0.6689 -0.7279  0.1362
43579SOL    HW136057   3.803   0.562   0.713 -0.0436 -2.8214 -3.3360
43579SOL    HW236058   3.875   0.615   0.591 -0.4368  1.8183 -1.7527
43580SOL     OW36059   0.911   0.509   3.579 -0.5145  0.6899  0.2809
43580SOL    HW136060   0.963   0.588   3.567  0.2652  0.4244  1.6904
43580SOL    HW236061   0.915   0.464   3.494  4.6193 -1.1347  1.1360
43581SOL     OW36062   6.775   8.299   5.932 -0.5084 -0.2012 -0.1028
43581SOL    HW136063   6.703   8.345   5.975  0.5936  0.2062  1.3801
43581SOL    HW236064   6.814   8.245   6.000 -0.0533 -1.2213 -1.1426
43582SOL     OW36065   9.979   4.903  10.970  0.2840  0.5246  0.0029
43582SOL    HW136066   9.947   4.821  10.931 -0.5198  1.1439 -0.6854
43582SOL    HW236067  10.053   4.876  11.023  0.4932 -0.5678 -0.7881
43583SOL     OW36068   6.177   9.992   7.001 -0.1911  0.3645 -0.4738
43583SOL    HW136069   6.261   9.989   7.048 -0.9614 -0.0915  0.9422
43583SOL    HW236070   6.163   9.903   6.972  0.1625  0.5969 -1.3838
43584SOL     OW36071   1.713  11.446   8.726 -0.6278 -0.2147 -0.2042
43584SOL    HW136072   1.670  11.378   8.675  0.2203 -1.4093  0.6056
43584SOL    HW236073   1.802  11.413   8.741 -0.6460  0.3791  1.4599
43585SOL     OW36074  10.489   9.245   3.365 -0.5423 -0.6150 -0.1076
43585SOL    HW136075  10.432   9.215   3.436 -0.4841 -1.4543 -0.4140
43585SOL    HW236076  10.541   9.169   3.341  1.0356  0.2351  0.4490
43586SOL     OW36077   1.408   4.736   7.170 -0.5334 -0.0206  0.5118
43586SOL    HW136078   1.335   4.762   7.113 -0.0661 -1.9369 -1.0616
43586SOL    HW236079   1.366   4.715   7.253 -1.9082 -1.5067 -0.4921
43587SOL     OW36080   2.259  10.234   5.431  0.5412  0.3373  0.2717
43587SOL    HW136081   2.325  10.177   5.392  0.6804  1.1701 -0.7676
43587SOL    HW236082   2.188  10.238   5.367 -0.4982 -0.4638  1.3333
43588SOL     OW36083   3.607   7.687   9.993 -0.0291 -0.1399 -0.5045
43588SOL    HW136084   3.688   7.737  10.002  0.6876 -1.3300 -0.0090
43588SOL    HW236085   3.537   7.750  10.007  0.8489  0.5447  0.9713
43589SOL     OW36086   6.362   0.532   9.421 -0.4418  0.2151  0.2614
43589SOL    HW136087   6.373   0.504   9.512 -0.1173  1.1963  0.5335
43589SOL    HW236088   6.313   0.613   9.427  0.7197  0.9864 -0.3524
43590SOL     OW36089   4.104   2.102   7.207 -0.1569 -0.0431 -0.2061
43590SOL    HW136090   4.114   2.165   7.279  2.1076  0.7494 -1.1271
43590SOL    HW236091   4.013   2.112   7.179 -0.0612  2.3443  0.1356
43591SOL     OW36092   3.164   3.951  10.470 -0.2670 -0.5900  0.4071
43591SOL    HW136093   3.197   4.018  10.530 -0.7840  0.7061 -0.7057
43591SOL    HW236094   3.087   3.916  10.513 -0.8037  0.5359  0.3902
43592SOL     OW36095   8.913  10.096   7.159 -0.3990  0.0892  0.5905
43592SOL    HW136096   8.974  10.048   7.103  1.2267  0.0775  2.2745
43592SOL    HW236097   8.900  10.180   7.115  0.1517 -0.2403 -0.2277
43593SOL     OW36098   5.340   7.020   5.000 -0.0327 -0.1110 -0.1711
43593SOL    HW136099   5.267   7.053   5.053 -0.3919 -3.1251  1.3976
43593SOL    HW236100   5.308   6.938   4.963  1.6606 -0.1008 -1.8218
43594SOL     OW36101   8.166   2.631   0.002  0.9710  0.0976 -0.2398
43594SOL    HW136102   8.153   2.550   0.050 -0.0824 -1.7597 -3.3592
43594SOL    HW236103   8.093   2.687   0.028 -1.0117 -1.7994 -1.3864
43595SOL     OW36104   4.853   3.163  10.289  0.2307 -0.0608 -0.3333
43595SOL    HW136105   4.877   3.161  10.382  1.9830  2.8318 -0.5874
43595SOL    HW236106   4.863   3.073  10.259  2.3438 -0.5787  1.6770
43596SOL     OW36107   4.557   0.217  10.476  0.1679 -0.7720  0.1090
43596SOL    HW136108   4.503   0.152  10.432  1.4034 -0.1570 -2.5769
43596SOL    HW236109   4.644   0.206  10.436  0.8281  1.3408  0.8395
43597SOL     OW36110   3.444   2.298   5.663 -0.3806 -0.5289 -0.2353
43597SOL    HW136111   3.502   2.222   5.667 -1.8556 -1.8093 -1.9565
43597SOL    HW236112   3.455   2.340   5.748  0.3183 -2.7808  0.8654
43598SOL     OW36113   8.032  11.787   3.631 -0.1066 -0.0389 -1.0022
43598SOL    HW136114   7.973  11.785   3.706  2.1490 -2.1052  0.9233
43598SOL    HW236115   8.076  11.872   3.638  0.8016 -0.5996  0.7167
43599SOL     OW36116  11.649   1.843   4.350  0.1367 -0.0020 -0.0440
43599SOL    HW136117  11.724   1.821   4.294  0.1839 -0.4812  0.2067
43599SOL    HW236118  11.649   1.776   4.418 -0.5551 -0.0357 -0.0734
43600SOL     OW36119   7.321   1.064   3.734  0.0416 -0.1448  0.3658
43600SOL    HW136120   7.249   1.120   3.704 -0.0977 -1.1277 -1.2544
43600SOL    HW236121   7.303   0.979   3.694  1.3885 -0.7776  1.0543
43601SOL     OW36122   5.555   1.874   3.628  0.2487 -0.7082 -0.5779
43601SOL    HW136123   5.543   1.848   3.536  1.4364 -0.2317 -0.8849
43601SOL    HW236124   5.500   1.951   3.638 -1.1636 -1.7111 -0.4214
43602SOL     OW36125   2.383   5.338   6.137  0.4488  0.1809 -0.0486
43602SOL    HW136126   2.463   5.288   6.123  0.0549 -0.3862 -0.3348
43602SOL    HW236127   2.357   5.317   6.227 -0.8765 -1.9011 -0.8252
43603SOL     OW36128  10.250   8.714   0.385  1.1243  0.3409 -0.2329
43603SOL    HW136129  10.202   8.685   0.307  1.6092  1.3814 -0.9558
43603SOL    HW236130  10.191   8.696   0.458 -0.3693  1.4983 -1.0826
43604SOL     OW36131   4.453  10.752   3.556 -0.1336  0.0285  0.0038
43604SOL    HW136132   4.477  10.837   3.519 -2.0108  0.6446  0.1222
43604SOL    HW236133   4.483  10.757   3.647  0.6323  0.1794 -0.2485
43605SOL     OW36134   6.408   9.647   4.510  0.0878 -0.4274 -0.0223
43605SOL    HW136135   6.419   9.571   4.453 -0.6908 -0.2255 -0.4668
43605SOL    HW236136   6.494   9.688   4.514  0.1791 -0.4986 -0.9920
43606SOL     OW36137   8.246   7.424   1.151 -0.0100  0.0086  0.2205
43606SOL    HW136138   8.303   7.397   1.079  1.1692  0.7384  0.8459
43606SOL    HW236139   8.186   7.488   1.112 -0.2944 -0.6403 -0.4114
43607SOL     OW36140   5.788   1.208   2.849  0.1357 -0.4182 -0.0193
43607SOL    HW136141   5.804   1.296   2.881  1.5164 -0.6558  0.0044
43607SOL    HW236142   5.694   1.194   2.862  0.3654 -0.0126  2.7021
43608SOL     OW36143   0.216   4.729   5.843 -0.1044  0.2875 -0.1490
43608SOL    HW136144   0.293   4.672   5.852  0.2554  0.3819 -2.0903
43608SOL    HW236145   0.152   4.693   5.904  2.2813  1.7461  3.4864
43609SOL     OW36146   9.742   1.253  10.971  0.1027  0.1986 -0.2751
43609SOL    HW136147   9.810   1.192  11.000  0.7227  0.7742 -0.4994
43609SOL    HW236148   9.667   1.233  11.027  0.4638 -0.4171  0.0034
43610SOL     OW36149  10.477   2.603   7.932  0.1063 -0.1597 -0.1490
43610SOL    HW136150  10.464   2.650   8.014  0.8002  0.3050 -0.2933
43610SOL    HW236151  10.571   2.607   7.917  0.3424 -2.4289  0.3115
43611SOL     OW36152  11.118   8.180   0.176  0.2099 -0.1391  0.0833
43611SOL    HW136153  11.095   8.272   0.166 -2.1320 -0.4967  1.4313
43611SOL    HW236154  11.180   8.163   0.105 -0.1106  2.1915 -0.8486
43612SOL     OW36155   6.486  10.900  10.503 -1.0739  1.0079 -0.2555
43612SOL    HW136156   6.558  10.901  10.440  1.2941  1.4498  2.2783
43612SOL    HW236157   6.468  10.806  10.516  1.3274  0.6937  1.3994
43613SOL     OW36158   9.321   1.410   4.671 -0.2822 -0.3363 -0.2646
43613SOL    HW136159   9.380   1.462   4.726 -0.7890 -0.4444  0.3936
43613SOL    HW236160   9.333   1.445   4.583  0.3872 -0.0190 -0.0543
43614SOL     OW36161   2.889   7.385   4.094 -0.6009 -0.3314 -0.4406
43614SOL    HW136162   2.819   7.397   4.029 -0.5840  0.0621 -0.3906
43614SOL    HW236163   2.916   7.294   4.084 -0.8302 -0.3664 -0.7565
43615SOL     OW36164   0.556   5.277   0.193  0.1231  0.2092  0.1782
43615SOL    HW136165   0.612   5.295   0.118 -1.4507 -0.6953 -1.2915
43615SOL    HW236166   0.522   5.362   0.219  0.1705  0.4691 -0.5818
43616SOL     OW36167   7.686   8.123  11.263 -0.0799 -0.0898  0.4058
43616SOL    HW136168   7.733   8.199  11.296  1.7625 -0.8242 -0.4101
43616SOL    HW236169   7.745   8.084  11.198 -1.7521 -1.1597 -0.5633
43617SOL     OW36170   8.641   6.277   1.037  0.2347 -0.1507 -0.3562
43617SOL    HW136171   8.570   6.244   1.092  0.2344  0.2979 -0.0808
43617SOL    HW236172   8.606   6.356   0.998  0.7996  0.4344  0.2922
43618SOL     OW36173   4.464   5.136   4.967 -0.1634  0.1696  0.1959
43618SOL    HW136174   4.559   5.136   4.977 -0.2081  1.0025  0.6895
43618SOL    HW236175   4.446   5.211   4.910 -0.4444 -0.6588 -0.8486
43619SOL     OW36176   9.299   5.383   6.840  0.5793  0.5404  0.7917
43619SOL    HW136177   9.333   5.472   6.847 -1.2213  1.2999  0.3440
43619SOL    HW236178   9.371   5.333   6.802  1.1745  2.0790 -0.2029
43620SOL     OW36179   9.028   9.998   9.459 -0.1015 -0.0509 -0.1983
43620SOL    HW136180   9.064   9.936   9.395 -0.4165  1.4111 -1.8927
43620SOL    HW236181   8.941  10.018   9.425 -0.9261 -0.3988  1.5922
43621SOL     OW36182   0.096   2.634   4.216 -0.4335 -0.0094  0.7393
43621SOL    HW136183   0.020   2.611   4.163  0.7685 -1.1519 -0.5614
43621SOL    HW236184   0.127   2.551   4.253  1.1743  0.1437 -0.1637
43622SOL     OW36185   7.404   6.951   4.928 -0.6794  0.5380 -0.2809
43622SOL    HW136186   7.431   6.951   5.020 -0.5686 -0.2666 -0.3140
43622SOL    HW236187   7.484   6.974   4.880  0.1077 -2.1242 -0.4015
43623SOL     OW36188   1.393  10.917   0.709  0.4538 -0.1479  0.3334
43623SOL    HW136189   1.427  10.871   0.786  0.2168 -0.4574  0.2551
43623SOL    HW236190   1.304  10.885   0.699  0.0841  0.7713  0.6185
43624SOL     OW36191   6.503   6.751   5.110  0.0410  0.4733  0.7527
43624SOL    HW136192   6.580   6.695   5.099  0.2876  0.6830  1.3853
43624SOL    HW236193   6.464   6.724   5.193  0.1007  1.1671  1.0143
43625SOL     OW36194   6.040   6.243   7.118 -0.1351  0.8058 -0.4476
43625SOL    HW136195   5.997   6.214   7.199  1.1334  0.8690  0.2771
43625SOL    HW236196   5.969   6.282   7.066 -1.4093 -1.2379 -0.3592
43626SOL     OW36197   5.846  11.072   2.367  0.4117  0.1707  0.1855
43626SOL    HW136198   5.794  11.046   2.443 -0.4582  1.3397  0.0287
43626SOL    HW236199   5.795  11.143   2.327  2.6606  2.2018  0.7013
43627SOL     OW36200   7.649   5.704   1.206  0.0877  0.0059  0.3615
43627SOL    HW136201   7.611   5.785   1.241  1.4676  0.3688  1.0577
43627SOL    HW236202   7.576   5.662   1.161 -0.9518  1.0620  0.9943
43628SOL     OW36203   0.721   3.006  10.945 -0.1603 -0.0824 -0.7371
43628SOL    HW136204   0.632   3.030  10.972 -0.4022 -1.1371 -0.5563
43628SOL    HW236205   0.729   3.041  10.856 -1.7549 -2.2601 -1.8211
43629SOL     OW36206   7.714   5.201   5.422 -0.2878  0.7306  0.0191
43629SOL    HW136207   7.712   5.120   5.371  0.2429  2.1525 -2.4555
43629SOL    HW236208   7.788   5.250   5.386  0.5852  1.5786  2.7167
43630SOL     OW36209   2.064  10.975   2.071  0.2806 -0.0416 -0.3571
43630SOL    HW136210   2.042  10.917   1.999 -2.1374 -0.6897  0.7911
43630SOL    HW236211   1.995  11.041   2.071  0.5470  0.2784  0.9848
43631SOL     OW36212   9.297  10.179   5.917 -0.6088  0.1442 -0.0780
43631SOL    HW136213   9.360  10.160   5.847  0.5610  2.6826  0.1462
43631SOL    HW236214   9.349  10.225   5.983 -2.2328  0.1276  1.2489
43632SOL     OW36215   0.828   5.639   5.519 -0.2136 -0.5137 -0.5261
43632SOL    HW136216   0.863   5.679   5.599 -1.3847  0.1819 -0.3399
43632SOL    HW236217   0.763   5.701   5.487 -0.7111 -1.3954 -1.2952
43633SOL     OW36218   1.647   7.944   6.781  0.1936 -0.3712 -0.2496
43633SOL    HW136219   1.632   8.003   6.855  0.2434 -0.6887  0.0161
43633SOL    HW236220   1.720   7.984   6.734  1.9581 -1.5459  1.3612
43634SOL     OW36221  10.424  11.363   2.127 -0.2971 -0.1669  0.2284
43634SOL    HW136222  10.487  11.411   2.182  1.1235  0.1917 -1.6099
43634SOL    HW236223  10.359  11.428   2.103  0.5990  0.3870 -0.7372
43635SOL     OW36224  11.584  10.413   9.722  0.7402 -0.3477  0.5254
43635SOL    HW136225  11.576  10.491   9.667 -1.1861 -0.2068  0.9307
43635SOL    HW236226  11.636  10.442   9.797  1.2528  0.1452 -0.0162
43636SOL     OW36227  10.072   9.630   0.862  0.0561 -0.0764  0.1431
43636SOL    HW136228  10.041   9.552   0.815 -0.5099 -0.0388  0.4477
43636SOL    HW236229  10.102   9.596   0.946 -1.5375  0.1912  0.8621
43637SOL     OW36230  11.536   8.096   5.266  0.2812 -0.3066 -0.2283
43637SOL    HW136231  11.530   8.180   5.219  1.8858 -0.8980 -1.5745
43637SOL    HW236232  11.546   8.031   5.197 -1.6083 -1.7339  0.7588
43638SOL     OW36233   0.361   3.758   3.513  0.5634 -0.2191 -0.3134
43638SOL    HW136234   0.302   3.693   3.475 -0.9861 -0.7628  2.7102
43638SOL    HW236235   0.318   3.842   3.496 -1.2432 -0.6161  1.9182
43639SOL     OW36236   1.293   2.416   7.906  0.3099  0.0698  0.1399
43639SOL    HW136237   1.379   2.438   7.942  0.0845  1.2027  0.0371
43639SOL    HW236238   1.231   2.459   7.965 -0.1462 -0.0284 -0.2608
43640SOL     OW36239   4.517   6.992   1.977 -0.1135 -0.0519 -0.2747
43640SOL    HW136240   4.428   7.012   1.947 -0.0963  1.2387  0.4410
43640SOL    HW236241   4.560   6.954   1.901 -1.4829 -1.4141 -0.4314
43641SOL     OW36242   5.509   0.026   4.002 -0.4114 -0.2103 -0.0914
43641SOL    HW136243   5.503  -0.019   4.086 -1.1035  0.4937  0.2473
43641SOL    HW236244   5.438   0.090   4.004  1.2782  1.7336 -0.0497
43642SOL     OW36245   7.362   3.830  10.773  0.3553  0.3955  0.0871
43642SOL    HW136246   7.419   3.889  10.724  1.0325 -2.0706 -2.3289
43642SOL    HW236247   7.407   3.745  10.770 -1.1976 -0.6077  2.2696
43643SOL     OW36248   4.069   7.741   8.892 -0.3689  0.3834  0.3155
43643SOL    HW136249   4.044   7.764   8.981 -0.2597 -1.7974  0.9656
43643SOL    HW236250   4.039   7.651   8.881  3.3395 -0.9837 -0.2825
43644SOL     OW36251   6.849   4.407   0.084  0.4835  0.0187 -0.7249
43644SOL    HW136252   6.825   4.499   0.097  0.5750 -0.1550  0.8079
43644SOL    HW236253   6.773   4.358   0.114  1.3943 -0.4507  0.8886
43645SOL     OW36254   2.707   9.300   4.712 -0.5242 -0.0651 -0.2883
43645SOL    HW136255   2.751   9.358   4.774 -1.4132 -0.8396  1.1155
43645SOL    HW236256   2.769   9.228   4.698 -0.6320 -0.2894  0.3458
43646SOL     OW36257  10.570   9.770   6.544 -0.2267 -0.3373 -0.8515
43646SOL    HW136258  10.660   9.738   6.543  0.3176  1.0096  0.9302
43646SOL    HW236259  10.516   9.691   6.554  0.7997 -1.0455 -0.7864
43647SOL     OW36260   4.280   4.253   4.591  0.3791 -0.3529 -0.3170
43647SOL    HW136261   4.362   4.286   4.627  0.1138  1.5029 -1.3030
43647SOL    HW236262   4.301   4.165   4.561  1.6442 -0.4122  0.6323
43648SOL     OW36263   3.410  11.376   2.332  0.4982 -0.1912  0.1089
43648SOL    HW136264   3.453  11.460   2.316  0.2339 -0.1874 -0.5982
43648SOL    HW236265   3.454  11.341   2.410 -1.2763  1.8755  2.1736
43649SOL     OW36266   5.278   7.035   6.354 -0.1030 -0.3420 -0.4439
43649SOL    HW136267   5.202   7.042   6.296 -0.2113 -0.8257 -0.3642
43649SOL    HW236268   5.323   7.118   6.344  0.3649 -0.7382 -1.8935
43650SOL     OW36269   8.130   8.015   1.660 -0.2177 -0.1768 -0.1588
43650SOL    HW136270   8.039   8.040   1.676 -0.3071 -0.5169 -0.1323
43650SOL    HW236271   8.173   8.031   1.744 -0.5276 -1.2381  0.2117
43651SOL     OW36272   5.847   2.721   4.208  0.6761 -0.3059  0.2071
43651SOL    HW136273   5.888   2.652   4.156  0.4903 -0.0942 -0.2242
43651SOL    HW236274   5.761   2.734   4.168 -0.0439 -1.1061  1.4191
43652SOL     OW36275   5.473   5.809   2.716 -0.2087 -0.2046 -0.2308
43652SOL    HW136276   5.511   5.758   2.787 -2.2264 -0.2812  0.8489
43652SOL    HW236277   5.473   5.899   2.748 -0.1132 -0.0659 -0.6059
43653SOL     OW36278  11.551   5.760   9.608  0.4094 -0.5119 -0.4987
43653SOL    HW136279  11.505   5.728   9.685 -1.6589  0.7180 -1.1125
43653SOL    HW236280  11.497   5.730   9.534  1.7516 -0.7612 -1.4233
43654SOL     OW36281   7.403   5.123   6.466 -0.1029  0.4741  0.4138
43654SOL    HW136282   7.413   5.162   6.553 -0.3006 -0.6369  0.9537
43654SOL    HW236283   7.404   5.198   6.406  0.4500  1.2286  1.3277
43655SOL     OW36284   6.059   8.438   4.878  0.1282  0.2587 -0.0627
43655SOL    HW136285   6.037   8.530   4.866  0.3349  0.3172 -0.0058
43655SOL    HW236286   6.107   8.436   4.961  0.5986  0.1816 -0.3337
43656SOL     OW36287   6.429   3.615   4.562 -0.3003  0.1600 -0.1803
43656SOL    HW136288   6.379   3.680   4.514 -0.5022 -1.2887 -2.0369
43656SOL    HW236289   6.403   3.628   4.654  0.1534  3.0381 -0.3623
43657SOL     OW36290   9.879  11.400   1.807  0.3385 -0.7463  0.0837
43657SOL    HW136291   9.893  11.490   1.778 -0.4548 -0.5996  0.1454
43657SOL    HW236292   9.785  11.385   1.795  0.8025 -2.3506 -2.2227
43658SOL     OW36293   6.417  11.113   1.713  0.8332 -0.2000 -0.3837
43658SOL    HW136294   6.504  11.130   1.748 -0.0359 -0.2171  1.9951
43658SOL    HW236295   6.382  11.200   1.693  1.1338 -0.1409 -0.6519
43659SOL     OW36296   5.361   7.578   5.426 -0.2463 -0.3531  0.0803
43659SOL    HW136297   5.341   7.641   5.495  1.6852  1.6659 -1.0818
43659SOL    HW236298   5.450   7.549   5.445  0.1618 -0.0797 -1.2975
43660SOL     OW36299  11.464   8.675   1.691 -0.0160 -0.3632 -0.1796
43660SOL    HW136300  11.514   8.753   1.717  1.3413 -0.7481 -1.4634
43660SOL    HW236301  11.383   8.681   1.741  1.9628 -0.5960  3.4499
43661SOL     OW36302   3.382   1.582   1.452 -0.4994  0.5992  0.2506
43661SOL    HW136303   3.434   1.530   1.513 -1.2525  2.0874  2.2663
43661SOL    HW236304   3.319   1.520   1.415  2.5642 -1.2793 -2.3290
43662SOL     OW36305   9.548   4.163   1.989  0.0014 -0.3841  0.2316
43662SOL    HW136306   9.473   4.177   1.931  0.1838  0.0539  0.0965
43662SOL    HW236307   9.513   4.177   2.077  0.0527  0.4168  0.1320
43663SOL     OW36308   6.292   1.431   9.313  0.0498  0.3495 -0.3413
43663SOL    HW136309   6.272   1.514   9.356  1.9854  0.9287 -0.4598
43663SOL    HW236310   6.268   1.445   9.222 -0.1374  0.5772 -0.2595
43664SOL     OW36311   3.853   5.189   3.201 -0.2632  0.0886 -0.7042
43664SOL    HW136312   3.857   5.285   3.201 -1.5296  0.1924  1.1696
43664SOL    HW236313   3.945   5.162   3.193  0.1351  1.4401 -1.0752
43665SOL     OW36314   7.941   9.236   8.456 -0.0543 -0.3701  0.0655
43665SOL    HW136315   7.894   9.312   8.492  1.0812  0.5879 -0.3948
43665SOL    HW236316   7.879   9.195   8.397 -1.2709 -0.8055  1.5800
43666SOL     OW36317   8.851   1.410   7.277 -0.2850 -0.1919  0.0426
43666SOL    HW136318   8.936   1.407   7.322 -0.1569  0.0000 -0.1848
43666SOL    HW236319   8.802   1.478   7.323 -0.0715  0.1629 -0.2468
43667SOL     OW36320  10.060   7.887  10.113 -0.1978  0.0149 -0.0778
43667SOL    HW136321  10.080   7.940  10.190  0.0295  1.5365 -1.1347
43667SOL    HW236322  10.121   7.813  10.119 -0.5088 -0.1562  1.4204
43668SOL     OW36323   6.824   5.040   7.501  0.1380 -0.2918 -0.9308
43668SOL    HW136324   6.791   4.960   7.542  2.2273 -0.1981  1.1698
43668SOL    HW236325   6.789   5.111   7.556  0.2666  0.0819 -1.3259
43669SOL     OW36326   3.313   6.685   6.467 -0.5776  0.3486 -0.9209
43669SOL    HW136327   3.246   6.636   6.515 -0.3892  0.6230 -0.3662
43669SOL    HW236328   3.310   6.773   6.505  1.9848 -0.3124  1.1143
43670SOL     OW36329   1.342   5.009   5.339 -0.5354 -0.3826  0.3236
43670SOL    HW136330   1.332   4.927   5.388  0.6306  0.0338  1.3385
43670SOL    HW236331   1.435   5.012   5.318 -0.6822  0.3912 -0.2347
43671SOL     OW36332   9.451   6.488   1.790  0.6586  0.4760  0.3280
43671SOL    HW136333   9.459   6.555   1.722 -0.6300  0.1374 -0.2021
43671SOL    HW236334   9.389   6.424   1.753  3.3547 -2.1182 -0.0665
43672SOL     OW36335   0.743   7.694  11.266 -0.5642 -0.2416  0.2436
43672SOL    HW136336   0.761   7.687  11.360 -2.3501  0.1669  0.6461
43672SOL    HW236337   0.702   7.611  11.243  0.6375 -0.6877 -0.3993
43673SOL     OW36338   8.831   9.400   5.721  0.4594 -0.4042  0.1604
43673SOL    HW136339   8.851   9.370   5.632 -0.3945 -0.7091  0.0593
43673SOL    HW236340   8.902   9.366   5.775 -0.6224 -2.8999  0.1095
43674SOL     OW36341   9.923   7.352   9.533 -0.1869 -0.4674 -0.8870
43674SOL    HW136342   9.932   7.280   9.470  0.7576 -0.4404 -0.7951
43674SOL    HW236343  10.004   7.401   9.525 -1.2448  1.2595 -1.7498
43675SOL     OW36344   4.556   1.125   2.799  0.1426 -0.1179 -0.4478
43675SOL    HW136345   4.556   1.031   2.817 -2.8005 -0.4959 -1.7866
43675SOL    HW236346   4.583   1.132   2.708  2.4315  0.6132  0.2154
43676SOL     OW36347   4.742   7.205   2.020 -0.1019 -0.1161  0.3345
43676SOL    HW136348   4.656   7.229   2.055 -0.1391  0.3572 -0.0725
43676SOL    HW236349   4.725   7.180   1.929  0.5281  2.6177 -0.6325
43677SOL     OW36350   2.204   7.010   2.364  1.0803 -0.0460  1.0448
43677SOL    HW136351   2.297   7.025   2.376  1.0463  0.6936  0.4625
43677SOL    HW236352   2.162   7.090   2.397  0.9001  1.3938 -2.2472
43678SOL     OW36353   5.445   7.446   2.239  0.0015  0.0832  0.4613
43678SOL    HW136354   5.535   7.416   2.241  0.5572  1.6791  1.0741
43678SOL    HW236355   5.415   7.438   2.330 -1.4018 -2.9227 -0.1507
43679SOL     OW36356   2.163   8.407   6.144  0.6496 -0.3882  0.0834
43679SOL    HW136357   2.143   8.317   6.117  1.4910 -0.1161 -1.5754
43679SOL    HW236358   2.096   8.460   6.101  0.9664 -0.1035 -0.0593
43680SOL     OW36359   9.286   8.865   8.127 -0.3272  0.1723 -0.2441
43680SOL    HW136360   9.205   8.860   8.076 -0.5166  1.2668 -0.0782
43680SOL    HW236361   9.264   8.826   8.211 -1.4377  2.5572  0.6788
43681SOL     OW36362   3.533  10.379  11.526  0.1108  0.1235 -0.3378
43681SOL    HW136363   3.550  10.293  11.488 -1.5139  0.2976 -1.5560
43681SOL    HW236364   3.579  10.378  11.610  0.9357 -1.5565 -0.7785
43682SOL     OW36365  10.679   6.866   0.918  0.2627 -0.6554  0.0106
43682SOL    HW136366  10.729   6.793   0.881  1.5232  0.3414 -0.3295
43682SOL    HW236367  10.660   6.923   0.844 -0.5893 -0.5558  0.2953
43683SOL     OW36368   4.800  11.196   7.831 -0.7230 -0.4162 -0.4967
43683SOL    HW136369   4.851  11.255   7.885 -1.0056 -0.6450  0.0361
43683SOL    HW236370   4.812  11.110   7.871 -0.0279 -0.7966 -1.4669
43684SOL     OW36371  11.310   1.053   2.185 -0.0287 -0.4772 -0.2921
43684SOL    HW136372  11.293   1.136   2.229 -0.0973  0.1363 -1.4104
43684SOL    HW236373  11.405   1.050   2.176 -0.0463 -0.3333 -0.5636
43685SOL     OW36374   5.202   6.768   1.861 -0.1963 -0.5839 -0.1570
43685SOL    HW136375   5.165   6.808   1.940  0.0579  0.7253 -0.6631
43685SOL    HW236376   5.272   6.829   1.835  1.4579 -2.3091  0.0434
43686SOL     OW36377   7.244   1.720   6.813  0.4347  0.3234 -0.1780
43686SOL    HW136378   7.261   1.630   6.841  0.1037  0.5931  0.9242
43686SOL    HW236379   7.216   1.712   6.721 -0.4978 -0.7901  0.1865
43687SOL     OW36380   6.809   0.841   3.043  0.0121 -0.8610 -0.8874
43687SOL    HW136381   6.796   0.912   2.980 -0.3128  1.1855  1.3464
43687SOL    HW236382   6.721   0.821   3.075  0.3839  0.1634  0.9369
43688SOL     OW36383   1.514   8.573  10.743  0.0103 -0.3314  0.2045
43688SOL    HW136384   1.528   8.506  10.810  0.7550 -0.5618 -0.1683
43688SOL    HW236385   1.420   8.573  10.727 -0.5520  1.2705  2.8607
43689SOL     OW36386  11.419   7.998   1.479 -0.3415  0.7187 -0.2356
43689SOL    HW136387  11.396   8.044   1.398  0.9589  1.2746 -0.3065
43689SOL    HW236388  11.451   7.912   1.449  1.0096  1.2537 -0.4140
43690SOL     OW36389   1.858   0.037   0.176 -0.2702  0.6031 -0.1521
43690SOL    HW136390   1.932   0.074   0.127 -0.2653  2.0695  0.9229
43690SOL    HW236391   1.783   0.047   0.118 -0.1690  1.8564 -0.0863
43691SOL     OW36392   6.349  10.634   9.402 -0.2854  0.0075  0.5665
43691SOL    HW136393   6.440  10.640   9.431 -0.6749 -0.1168  1.8832
43691SOL    HW236394   6.324  10.543   9.420 -0.6073 -0.0275 -0.0172
43692SOL     OW36395  10.046   5.234   6.706 -0.0169 -0.4772 -0.6799
43692SOL    HW136396  10.109   5.302   6.730 -0.8918 -0.0037  0.4145
43692SOL    HW236397   9.972   5.282   6.669 -0.4282 -0.8666 -0.3747
43693SOL     OW36398   9.693   2.470   2.749  0.7716 -0.9966 -0.7087
43693SOL    HW136399   9.731   2.464   2.836 -0.2351  4.2716  0.4417
43693SOL    HW236400   9.607   2.429   2.758  1.1391 -1.5645  0.3964
43694SOL     OW36401  11.171  11.558   6.867  0.1528  0.2723 -0.2405
43694SOL    HW136402  11.126  11.498   6.808  1.5151 -1.2608  0.2179
43694SOL    HW236403  11.262  11.558   6.837  0.4168  1.1666  0.5097
43695SOL     OW36404   8.131  11.650   5.534  0.0402 -0.0228  0.0257
43695SOL    HW136405   8.134  11.730   5.481  2.5390 -0.8669 -1.2544
43695SOL    HW236406   8.156  11.679   5.622 -0.6291  0.8175 -0.0440
43696SOL     OW36407   6.283   7.229   3.275  0.0171  0.2239 -0.0151
43696SOL    HW136408   6.189   7.231   3.294 -0.3482 -0.7643 -1.5942
43696SOL    HW236409   6.291   7.178   3.195  1.7310  1.9685 -1.0497
43697SOL     OW36410   2.606   3.023   6.720 -0.3550 -0.4288 -0.0030
43697SOL    HW136411   2.649   3.055   6.799 -2.0927 -0.3195  0.9457
43697SOL    HW236412   2.564   2.942   6.747 -0.6081 -0.6166 -0.9383
43698SOL     OW36413  10.961   3.531   7.937 -0.4683  0.5026 -0.5394
43698SOL    HW136414  11.005   3.561   7.858 -1.2037  3.2431  0.0057
43698SOL    HW236415  10.993   3.589   8.006  0.2037 -1.8418  1.2557
43699SOL     OW36416   8.029   2.234   8.705 -0.0210  1.0215 -0.0330
43699SOL    HW136417   7.952   2.204   8.656  0.1228  2.4615 -1.2141
43699SOL    HW236418   8.094   2.253   8.638  1.1218  0.5504  0.9063
43700SOL     OW36419   4.275   2.706   0.962  0.1083  0.2625 -0.0857
43700SOL    HW136420   4.334   2.637   0.991  0.2571  0.2666 -0.3742
43700SOL    HW236421   4.193   2.661   0.942 -0.2031  0.3469  0.9536
43701SOL     OW36422   6.895   7.572   8.494  0.3478  0.4572 -0.0359
43701SOL    HW136423   6.893   7.542   8.585  0.0553 -0.2342 -0.2686
43701SOL    HW236424   6.972   7.629   8.490  1.5497 -1.0703  0.1698
43702SOL     OW36425   5.188   8.582   1.745 -0.1202  0.5388  0.0406
43702SOL    HW136426   5.146   8.496   1.743 -0.2951  0.6261 -0.1865
43702SOL    HW236427   5.278   8.565   1.771 -0.1414  0.2804 -0.0544
43703SOL     OW36428   8.059   3.225   2.392  0.3351 -0.4504  0.7737
43703SOL    HW136429   8.121   3.270   2.449  0.0530 -0.0257  0.7457
43703SOL    HW236430   7.987   3.199   2.449 -0.4920  0.9767  0.4298
43704SOL     OW36431   0.717   5.807   3.062  0.5518  0.1947 -0.2344
43704SOL    HW136432   0.685   5.876   3.120  1.0153 -0.5606  0.9593
43704SOL    HW236433   0.777   5.757   3.116  0.9992 -0.5463 -1.3851
43705SOL     OW36434   5.186   3.294   7.204  0.4720 -0.3493 -0.2188
43705SOL    HW136435   5.237   3.214   7.212 -3.7302 -3.3438  0.1608
43705SOL    HW236436   5.151   3.292   7.115 -1.7765 -0.4895  0.5930
43706SOL     OW36437   2.559  10.336   7.607  0.1043  0.2806  0.0524
43706SOL    HW136438   2.602  10.251   7.623  2.5055  1.0567 -1.7708
43706SOL    HW236439   2.472  10.313   7.576  0.4898 -1.5196  0.1861
43707SOL     OW36440   7.032   4.996   2.375  0.2004  0.4447  0.3192
43707SOL    HW136441   7.032   4.920   2.317  0.2592  0.8885 -0.2716
43707SOL    HW236442   7.027   4.959   2.463  2.4907 -0.3375  0.1677
43708SOL     OW36443  10.650   6.967  11.393 -0.0354 -0.5007 -0.0082
43708SOL    HW136444  10.566   6.993  11.356 -0.2400  1.5111  1.6239
43708SOL    HW236445  10.641   6.987  11.487  2.5836  0.8152  0.0557
43709SOL     OW36446  10.911   9.962   1.828  0.4469 -0.0121 -1.1117
43709SOL    HW136447  10.820   9.934   1.831  0.5892 -0.5789 -1.8698
43709SOL    HW236448  10.955   9.907   1.892  0.1750  0.5956 -0.3922
43710SOL     OW36449   8.830   3.533  11.193 -0.3119 -0.1696 -0.1708
43710SOL    HW136450   8.849   3.617  11.235 -0.7939 -0.7196  1.1729
43710SOL    HW236451   8.885   3.533  11.114  0.2168  1.1004  0.1772
43711SOL     OW36452   9.304  10.158  10.794  0.0772 -0.1890 -0.0337
43711SOL    HW136453   9.273  10.247  10.806 -0.8954 -0.6030  0.6133
43711SOL    HW236454   9.312  10.148  10.699 -1.4009  0.0620 -0.2047
43712SOL     OW36455   3.226   8.020   5.122  0.4253  0.7457 -0.7643
43712SOL    HW136456   3.259   8.024   5.212 -1.5696  0.5656  0.0341
43712SOL    HW236457   3.299   8.048   5.068  2.1117 -0.4618  0.7965
43713SOL     OW36458  11.029   6.709  10.925 -0.1573  0.3149 -0.6281
43713SOL    HW136459  11.049   6.747  11.010 -1.9948 -1.5807  0.7544
43713SOL    HW236460  11.108   6.659  10.902  0.0539  0.1522  0.3880
43714SOL     OW36461   4.383   5.100   5.600 -0.0761 -0.2236  0.4607
43714SOL    HW136462   4.290   5.122   5.610 -0.7974 -3.4276  1.8878
43714SOL    HW236463   4.428   5.184   5.611 -2.7695  1.6337 -1.3472
43715SOL     OW36464   6.953   8.773   2.704 -0.3897  0.1677  0.7447
43715SOL    HW136465   6.877   8.731   2.744 -0.3881 -0.6201 -0.0522
43715SOL    HW236466   7.008   8.700   2.675 -1.2447  0.6017 -2.3199
43716SOL     OW36467   0.784   2.856   0.027  0.3366  0.1001  0.0660
43716SOL    HW136468   0.688   2.852   0.024  0.3592 -0.1559 -0.3601
43716SOL    HW236469   0.810   2.775   0.072  0.4111 -0.4962 -1.0296
43717SOL     OW36470   4.001   7.834  10.367 -0.6248  0.2967 -0.7303
43717SOL    HW136471   4.055   7.903  10.406  0.2960  0.5222 -2.3091
43717SOL    HW236472   4.014   7.758  10.424  1.5113  0.3139 -1.1036
43718SOL     OW36473   5.386   0.551   1.991 -0.1406 -0.0795 -0.8417
43718SOL    HW136474   5.472   0.586   2.015 -0.0462 -0.7002 -0.2327
43718SOL    HW236475   5.385   0.463   2.030 -0.7507 -0.3699 -1.4952
43719SOL     OW36476   6.859  10.050   3.203  0.1412  0.4245 -0.5808
43719SOL    HW136477   6.861  10.041   3.108  0.2776 -0.0373 -0.5353
43719SOL    HW236478   6.904  10.133   3.220  0.7789  0.1482 -0.8756
43720SOL     OW36479   9.449   0.017   9.088  0.1357  0.3378  0.7761
43720SOL    HW136480   9.395   0.042   9.014  0.7281  0.6535  0.4376
43720SOL    HW236481   9.388  -0.020   9.152 -0.3030 -0.5276 -0.1126
43721SOL     OW36482  10.550   3.534  11.423 -0.2760 -0.4861  0.5742
43721SOL    HW136483  10.634   3.495  11.447 -1.1998 -1.3731  2.6144
43721SOL    HW236484  10.531   3.498  11.336  0.6686 -1.5838  0.8018
43722SOL     OW36485  10.600   6.375   9.524 -0.1149  0.4846 -0.1109
43722SOL    HW136486  10.597   6.344   9.434  0.7583 -0.5581  0.1965
43722SOL    HW236487  10.613   6.296   9.576 -3.8571  0.5957  1.2852
43723SOL     OW36488   9.213   1.197   3.897  0.1827  0.6571  0.4866
43723SOL    HW136489   9.159   1.239   3.964 -0.0322  1.2834 -0.0799
43723SOL    HW236490   9.289   1.165   3.946  0.8708  2.6298  0.7813
43724SOL     OW36491   7.618   2.144   3.683 -0.2107  0.2262 -0.5091
43724SOL    HW136492   7.557   2.174   3.615 -1.1091 -1.0751 -0.3186
43724SOL    HW236493   7.683   2.092   3.635 -0.7257 -0.5159 -0.4317
43725SOL     OW36494  10.664   0.360  10.860  0.4370 -0.3705  0.4338
43725SOL    HW136495  10.644   0.270  10.835 -0.3262  0.0678 -0.6245
43725SOL    HW236496  10.755   0.357  10.891  1.0582 -1.1966 -1.3274
43726SOL     OW36497   4.024   0.029   3.868 -0.5300 -0.0107  0.3680
43726SOL    HW136498   4.100   0.015   3.812  0.0096  0.2635  1.0173
43726SOL    HW236499   4.060   0.040   3.956 -1.3785 -0.7564  0.8305
43727SOL     OW36500   6.572   0.058   3.065  0.5416 -0.0725  0.1260
43727SOL    HW136501   6.501   0.021   3.118  0.7112  1.0367  1.1739
43727SOL    HW236502   6.644  -0.003   3.076 -0.0284 -0.8518 -0.3884
43728SOL     OW36503  10.294   5.803   8.367  0.1367  0.6417 -0.8314
43728SOL    HW136504  10.285   5.897   8.384 -0.8263  0.6542 -1.3795
43728SOL    HW236505  10.312   5.765   8.453 -3.1319  0.8951  0.0991
43729SOL     OW36506   8.376   6.615  10.584  0.2256  0.0744  0.0295
43729SOL    HW136507   8.310   6.567  10.634  0.4456  0.5414  0.7796
43729SOL    HW236508   8.443   6.550  10.563  1.0781  0.2208  1.9959
43730SOL     OW36509   5.698   6.126  11.777 -0.1448  0.0467  0.0136
43730SOL    HW136510   5.748   6.046  11.793 -1.0596 -0.5038  0.2011
43730SOL    HW236511   5.607   6.096  11.769 -0.2333  0.7703 -2.3711
43731SOL     OW36512   1.225  10.803   4.236 -0.0549  0.4088  0.3020
43731SOL    HW136513   1.179  10.782   4.155  1.1636 -0.8124 -0.1146
43731SOL    HW236514   1.229  10.720   4.284  0.7723  0.7183  0.7944
43732SOL     OW36515   3.173   8.078   2.292  0.4641  0.2785 -0.3211
43732SOL    HW136516   3.199   7.988   2.271  0.0191  0.1211 -0.2117
43732SOL    HW236517   3.093   8.068   2.344  0.0872  0.7583 -0.7930
43733SOL     OW36518   7.870   6.416   4.057 -0.1482  0.2252  0.3324
43733SOL    HW136519   7.855   6.492   4.001 -0.4812  0.7015  1.0462
43733SOL    HW236520   7.897   6.346   3.997 -0.3759  0.7534 -0.3970
43734SOL     OW36521   8.462   6.668   4.989  0.5329  0.2534 -0.1455
43734SOL    HW136522   8.444   6.609   4.915 -0.1606 -0.1025  0.2996
43734SOL    HW236523   8.494   6.610   5.058  0.0583  0.4215  0.2203
43735SOL     OW36524   1.530   6.150   6.938  0.2195  0.3920 -0.7137
43735SOL    HW136525   1.519   6.230   6.887  0.4069 -0.0444 -1.4575
43735SOL    HW236526   1.449   6.101   6.924  0.7580 -0.2736 -1.5936
43736SOL     OW36527   8.038   2.132   0.689  0.0765  0.5760  0.5548
43736SOL    HW136528   8.043   2.037   0.704  1.8582  0.7684  1.4504
43736SOL    HW236529   8.003   2.141   0.601  2.2593 -0.9994 -0.5504
43737SOL     OW36530   1.174   7.697   3.546 -0.1266  0.6174  0.7553
43737SOL    HW136531   1.101   7.688   3.608 -0.7632 -0.3299 -0.1083
43737SOL    HW236532   1.238   7.633   3.577 -0.0774  0.7475  0.9277
43738SOL     OW36533  10.088   4.446   5.072 -0.0799  0.4692 -0.3235
43738SOL    HW136534  10.136   4.363   5.078 -2.5671 -1.1089 -0.5029
43738SOL    HW236535  10.009   4.424   5.022 -1.7728  2.4764  1.2714
43739SOL     OW36536   4.548   3.140   3.651  0.0716  0.2582  0.5266
43739SOL    HW136537   4.595   3.112   3.730  2.9093 -1.0985 -1.4677
43739SOL    HW236538   4.540   3.060   3.598 -1.7200  1.1328 -0.6122
43740SOL     OW36539   2.796   2.453  10.792 -0.0234 -0.2494 -0.1959
43740SOL    HW136540   2.785   2.431  10.699 -0.8551 -1.3455  0.1365
43740SOL    HW236541   2.885   2.487  10.798 -0.2052  0.5662 -1.5213
43741SOL     OW36542   9.125   9.515   0.961  0.3828  0.5379  0.0650
43741SOL    HW136543   9.146   9.513   0.868  3.6638 -0.8147  0.6767
43741SOL    HW236544   9.055   9.450   0.971  0.4642  0.1845 -1.3797
43742SOL     OW36545  11.291   4.340  11.728  0.6854 -0.5863  0.5285
43742SOL    HW136546  11.259   4.422  11.765  2.5780  0.1425  0.7147
43742SOL    HW236547  11.280   4.276  11.798 -0.3324 -0.3666  0.5728
43743SOL     OW36548   9.079   6.930   5.040 -0.3128 -1.2961  0.0746
43743SOL    HW136549   9.084   6.879   5.121 -2.7525 -1.2240  0.3391
43743SOL    HW236550   9.032   7.010   5.065  0.8232 -0.2615 -0.9726
43744SOL     OW36551   1.467   6.664   7.185 -0.4129 -0.0239 -0.4193
43744SOL    HW136552   1.405   6.680   7.256 -1.4648  1.2588 -1.5547
43744SOL    HW236553   1.543   6.625   7.227 -1.8942 -1.4703  1.0670
43745SOL     OW36554   4.878   2.949   2.343 -0.7993  0.0751 -0.2947
43745SOL    HW136555   4.946   3.011   2.317  0.1958 -0.4185  1.0368
43745SOL    HW236556   4.881   2.881   2.276 -0.3198  0.3156 -0.5258
43746SOL     OW36557  11.758   2.078   9.195  0.3176 -0.1727  0.5856
43746SOL    HW136558  11.814   2.117   9.127  1.0718  0.8523  1.7455
43746SOL    HW236559  11.758   1.985   9.175  3.2714 -0.3687  1.0724
43747SOL     OW36560   3.193   3.029   0.975 -0.2365  0.3182 -0.0994
43747SOL    HW136561   3.111   2.995   1.009  0.2375  0.0212  0.7814
43747SOL    HW236562   3.174   3.052   0.884 -1.6278  1.4538  0.4412
43748SOL     OW36563  10.553   9.670   4.462  0.2565  0.3934 -0.1048
43748SOL    HW136564  10.590   9.690   4.548  0.4908 -0.5562  0.0219
43748SOL    HW236565  10.630   9.655   4.406  0.1300  1.8425 -0.7037
43749SOL     OW36566   8.873   8.716  10.121 -0.6298  0.0435 -0.5098
43749SOL    HW136567   8.939   8.705  10.052 -0.0711  0.2303 -0.0162
43749SOL    HW236568   8.811   8.645  10.106  1.5710 -2.4310  1.1403
43750SOL     OW36569   1.189   5.738   2.233  0.1939 -0.1078 -0.2919
43750SOL    HW136570   1.157   5.789   2.159  2.1336  3.4690  1.1090
43750SOL    HW236571   1.137   5.767   2.308 -0.0257 -1.7969  0.2701
43751SOL     OW36572   4.896  11.642   5.751 -0.0661  0.1249 -0.1609
43751SOL    HW136573   4.820  11.584   5.742 -0.1165 -0.1391  1.5939
43751SOL    HW236574   4.894  11.669   5.843  1.3090  1.0574 -0.3788
43752SOL     OW36575   6.785  11.067   5.574 -0.0392  0.5053  0.8499
43752SOL    HW136576   6.809  11.116   5.496 -1.5640  1.4681  0.9551
43752SOL    HW236577   6.727  10.998   5.542  0.1184  0.2820  1.0329
43753SOL     OW36578   1.266   7.841   5.714  0.3046  0.5454 -0.3967
43753SOL    HW136579   1.249   7.893   5.635 -2.9732  2.5175  1.3812
43753SOL    HW236580   1.268   7.906   5.784  1.3844 -1.3167  1.3864
43754SOL     OW36581   9.103  11.487   0.343 -0.6551 -0.1487 -0.1563
43754SOL    HW136582   9.080  11.517   0.255  0.9449  0.7007 -0.3228
43754SOL    HW236583   9.041  11.417   0.361 -0.8917 -0.4928 -2.0533
43755SOL     OW36584   0.766   7.241   5.151 -0.2731 -0.0624 -0.0967
43755SOL    HW136585   0.729   7.310   5.097  0.1927 -0.7320 -1.3062
43755SOL    HW236586   0.829   7.197   5.095  0.0481 -0.9471  0.9119
43756SOL     OW36587   7.717   6.635   5.261 -0.5302 -0.0294  0.0864
43756SOL    HW136588   7.763   6.556   5.232 -2.4687 -1.1107 -0.2042
43756SOL    HW236589   7.710   6.689   5.182  3.1713  1.8087  0.8042
43757SOL     OW36590   8.869   6.719  10.247 -0.0850 -0.8859  0.5532
43757SOL    HW136591   8.921   6.791  10.212  0.0621 -1.3066 -0.1211
43757SOL    HW236592   8.804   6.702  10.178 -0.4371 -1.0692  0.9260
43758SOL     OW36593   3.896   4.156  11.153 -0.1740  0.3359  0.6449
43758SOL    HW136594   3.933   4.100  11.084 -0.7291  1.5760 -0.7141
43758SOL    HW236595   3.930   4.244  11.133 -0.8496  0.8227  1.5849
43759SOL     OW36596   2.546   0.701   8.952  0.1622 -0.1450 -0.3334
43759SOL    HW136597   2.572   0.790   8.973  0.5590 -0.3917  0.2420
43759SOL    HW236598   2.458   0.709   8.914  0.1280  0.4643 -0.1228
43760SOL     OW36599   5.119   4.019   7.047 -0.1988 -0.3544 -0.0193
43760SOL    HW136600   5.177   3.949   7.077  1.1807  1.3609  1.6315
43760SOL    HW236601   5.063   4.037   7.123 -0.5539  0.2830 -0.4261
43761SOL     OW36602   6.603   4.250   4.841 -0.2323  0.2586  0.0900
43761SOL    HW136603   6.628   4.231   4.931 -0.0522 -0.7562 -0.1533
43761SOL    HW236604   6.671   4.309   4.809  0.5514 -0.5579  0.1775
43762SOL     OW36605   2.308   7.340   1.467  0.4689 -0.1463 -0.2343
43762SOL    HW136606   2.400   7.353   1.488 -0.1143  0.0196  2.6169
43762SOL    HW236607   2.300   7.246   1.453  1.1012 -0.1319 -0.7378
43763SOL     OW36608   7.415  10.036   7.434  0.2391  0.4297  0.0149
43763SOL    HW136609   7.454  10.007   7.516  0.3693  0.7026  0.0497
43763SOL    HW236610   7.476  10.101   7.399 -0.0215  0.6211 -0.0902
43764SOL     OW36611   4.683   7.109   9.234 -0.0145 -0.2277  0.1338
43764SOL    HW136612   4.761   7.153   9.200  0.5760 -1.6010 -0.3731
43764SOL    HW236613   4.616   7.177   9.237  1.4179  1.2231  1.4160
43765SOL     OW36614   8.428   2.970  11.158 -0.1875 -0.3192 -0.3159
43765SOL    HW136615   8.448   3.061  11.137  3.5446 -0.8773  0.1526
43765SOL    HW236616   8.467   2.919  11.087 -3.3290 -1.6415 -1.2655
43766SOL     OW36617   6.442   4.324   2.152 -0.3496  0.0868  0.2620
43766SOL    HW136618   6.450   4.234   2.121  0.4930  0.6145 -1.1437
43766SOL    HW236619   6.391   4.317   2.233  1.9087 -1.9250  1.6495
43767SOL     OW36620   2.209   9.078   2.009 -0.2733 -0.2236  0.1530
43767SOL    HW136621   2.226   9.172   2.007 -0.4390 -0.1941 -0.1399
43767SOL    HW236622   2.278   9.039   1.955 -0.5965 -0.1953 -0.2936
43768SOL     OW36623   8.186  10.279   7.622 -0.3952  0.0165 -0.0958
43768SOL    HW136624   8.129  10.213   7.660  0.6907 -0.4298  0.7949
43768SOL    HW236625   8.157  10.286   7.530 -0.6791 -1.5074 -0.1397
43769SOL     OW36626   5.030   7.729   3.194  0.2526 -0.0548 -0.2537
43769SOL    HW136627   5.098   7.775   3.145  1.9106 -0.8535  1.1700
43769SOL    HW236628   5.039   7.638   3.168 -0.3803 -0.1430 -0.1704
43770SOL     OW36629   8.114   3.263   6.816  0.3810  0.6610 -0.3509
43770SOL    HW136630   8.207   3.258   6.796  0.3356  1.4918 -0.8291
43770SOL    HW236631   8.083   3.340   6.768 -0.6330  0.1667 -0.5257
43771SOL     OW36632   5.782   3.941   3.132 -0.0882 -0.5157 -0.3193
43771SOL    HW136633   5.821   3.881   3.196  0.0068 -1.1416 -0.9417
43771SOL    HW236634   5.826   4.024   3.147  1.4312 -1.1588 -0.9093
43772SOL     OW36635   8.649   2.406   7.907  0.2696  0.2776 -0.3850
43772SOL    HW136636   8.629   2.471   7.974  1.9425 -0.5162  0.9694
43772SOL    HW236637   8.739   2.425   7.881  0.4263 -0.8527 -0.7251
43773SOL     OW36638   0.621   9.489   3.806  0.0301  0.3278 -0.3273
43773SOL    HW136639   0.584   9.465   3.720 -2.4778 -1.0530  1.0303
43773SOL    HW236640   0.709   9.520   3.786 -0.8042  1.0298 -3.5182
43774SOL     OW36641   5.325   6.140   3.354  0.0233  0.7416 -0.3459
43774SOL    HW136642   5.335   6.225   3.313 -1.6257 -0.0142 -2.4726
43774SOL    HW236643   5.415   6.108   3.364  0.6582  2.5848  0.3117
43775SOL     OW36644   2.118   4.795  10.193 -0.8509  0.0394  0.0193
43775SOL    HW136645   2.132   4.736  10.118  3.7056 -0.1715  0.7065
43775SOL    HW236646   2.137   4.741  10.270 -0.5534  1.4208  0.9538
43776SOL     OW36647   7.152   9.864   5.165  0.0177  0.6369 -0.1313
43776SOL    HW136648   7.105   9.947   5.168 -2.3502 -0.6435  0.3075
43776SOL    HW236649   7.160   9.838   5.257  5.4521  2.6990  0.3564
43777SOL     OW36650   0.535   7.748   6.244 -0.1113 -0.1337  0.1788
43777SOL    HW136651   0.465   7.804   6.210  0.4825  1.0234  0.7800
43777SOL    HW236652   0.596   7.737   6.170 -0.0280  0.3686  0.1698
43778SOL     OW36653   4.611   1.521   0.984  0.0725  0.6976  0.0677
43778SOL    HW136654   4.668   1.581   1.032  1.8484 -1.1181  0.4113
43778SOL    HW236655   4.657   1.505   0.901 -0.2384 -0.3185  0.0725
43779SOL     OW36656  11.691   9.389   2.079  0.4444  0.7180  0.2913
43779SOL    HW136657  11.635   9.409   2.154  0.0990 -1.0760  0.5513
43779SOL    HW236658  11.747   9.318   2.110  0.6807  0.3347 -0.9873
43780SOL     OW36659   1.218  10.799   3.261 -0.3282  0.4939 -0.2020
43780SOL    HW136660   1.160  10.782   3.335  1.3041  0.9008  1.2357
43780SOL    HW236661   1.224  10.716   3.215 -0.5690 -0.0534  0.7355
43781SOL     OW36662  11.470   0.282   3.989 -0.9597  0.0560  0.2251
43781SOL    HW136663  11.523   0.297   4.067  0.1967 -1.4231 -0.2345
43781SOL    HW236664  11.509   0.338   3.922 -0.3198 -0.5975  0.0419
43782SOL     OW36665   9.580   6.969   0.137 -0.3653 -0.4219 -0.0723
43782SOL    HW136666   9.553   6.883   0.105 -0.5321 -0.7615  0.9480
43782SOL    HW236667   9.547   6.973   0.227 -0.1907  0.6335 -0.0408
43783SOL     OW36668   2.382   9.393   8.308  0.0857 -0.1338 -0.2744
43783SOL    HW136669   2.430   9.460   8.358  0.1311  0.8675 -1.5841
43783SOL    HW236670   2.333   9.443   8.244 -1.1306 -1.2946 -0.2784
43784SOL     OW36671   8.347   8.228   1.088 -0.5492  0.8036 -0.5396
43784SOL    HW136672   8.340   8.316   1.051  0.4020  0.4164 -1.6869
43784SOL    HW236673   8.259   8.191   1.078 -0.4369  0.8768 -2.0425
43785SOL     OW36674   3.286   9.459   1.550  0.1036 -0.4391  0.0847
43785SOL    HW136675   3.231   9.532   1.580 -0.6239 -0.8260 -0.2592
43785SOL    HW236676   3.223   9.389   1.529  0.7001 -0.7523 -0.7217
43786SOL     OW36677   9.788   0.297   4.142 -0.3001  0.5511  0.2370
43786SOL    HW136678   9.867   0.336   4.180 -0.3095  0.2475  0.5774
43786SOL    HW236679   9.743   0.369   4.100  0.1267  0.7421  0.1004
43787SOL     OW36680   4.738   3.533   8.051  0.2300  0.4702  0.5322
43787SOL    HW136681   4.807   3.483   8.095  0.0438 -0.7728 -0.5493
43787SOL    HW236682   4.771   3.547   7.962 -0.4924  0.7146  0.2993
43788SOL     OW36683   4.643   2.719  11.548 -0.2657  0.0088 -0.0072
43788SOL    HW136684   4.712   2.654  11.531 -1.8729 -1.2931 -2.0950
43788SOL    HW236685   4.588   2.679  11.615 -0.3064  0.0030 -0.0445
43789SOL     OW36686   8.247   0.497   5.847 -0.3253 -0.0946  0.7315
43789SOL    HW136687   8.275   0.406   5.836 -0.8823 -0.3025  0.9970
43789SOL    HW236688   8.226   0.526   5.758 -0.4386 -0.3232  0.6838
43790SOL     OW36689   6.049   3.885   8.442  0.4027  0.1314  0.2426
43790SOL    HW136690   6.137   3.902   8.408  0.2107  1.5087  0.3616
43790SOL    HW236691   6.063   3.832   8.521  1.2161  1.1475  0.8105
43791SOL     OW36692   6.951   4.741   6.160 -0.1339 -0.0341  0.5394
43791SOL    HW136693   6.950   4.691   6.241  0.1962 -0.5996  0.2024
43791SOL    HW236694   6.933   4.677   6.091 -0.7795  0.4992  0.1932
43792SOL     OW36695   3.274   1.150   6.747  0.1685  0.5473 -0.1149
43792SOL    HW136696   3.264   1.064   6.786 -0.3785  0.4917 -0.3759
43792SOL    HW236697   3.317   1.133   6.663  0.0843  0.5292 -0.1547
43793SOL     OW36698   5.817   4.385   7.254 -0.7878 -0.5628 -0.0767
43793SOL    HW136699   5.787   4.417   7.169 -0.3280 -0.2036 -0.1049
43793SOL    HW236700   5.905   4.420   7.263 -1.4668  0.8955  1.3403
43794SOL     OW36701   5.875  11.252   3.827  0.1842  0.8567 -0.8772
43794SOL    HW136702   5.837  11.196   3.895  1.8191  0.1129 -0.5336
43794SOL    HW236703   5.800  11.301   3.792 -0.5662  2.2496  2.3129
43795SOL     OW36704   6.410  11.201   3.736  0.2560 -0.0829  0.1777
43795SOL    HW136705   6.441  11.281   3.777 -0.8121  0.0019  0.8650
43795SOL    HW236706   6.361  11.156   3.805 -0.3689 -0.6377 -0.6030
43796SOL     OW36707   4.754   4.166  11.549 -0.5664  0.0137 -0.0348
43796SOL    HW136708   4.705   4.228  11.494 -1.2173 -0.5923 -0.1606
43796SOL    HW236709   4.765   4.089  11.493 -0.8967 -0.4628  0.5435
43797SOL     OW36710   5.384   7.965  11.551 -0.3396  0.4196  0.5646
43797SOL    HW136711   5.343   7.904  11.490 -0.0694  1.0676 -0.2837
43797SOL    HW236712   5.418   7.910  11.621 -0.2022 -0.3910 -0.1264
43798SOL     OW36713   3.424   3.642   0.795 -0.2732 -0.2678 -0.0284
43798SOL    HW136714   3.519   3.654   0.802 -0.1506 -0.6801 -0.8694
43798SOL    HW236715   3.409   3.552   0.824 -0.5635  0.1560  1.2205
43799SOL     OW36716   1.581   6.005   2.716 -0.2798 -0.2623  0.1031
43799SOL    HW136717   1.519   6.047   2.656 -1.0208 -1.4371  0.0106
43799SOL    HW236718   1.592   6.069   2.787  0.7990  1.2551 -1.3617
43800SOL     OW36719   8.155   8.230   3.832  0.5793  0.0830  0.6895
43800SOL    HW136720   8.080   8.289   3.823  0.6627  0.5219  2.4184
43800SOL    HW236721   8.231   8.286   3.813  0.5360 -1.0636 -4.3134
43801SOL     OW36722  10.619   2.820  10.302 -0.7555  0.2702  0.4520
43801SOL    HW136723  10.676   2.889  10.269 -0.7316  0.0945  0.1257
43801SOL    HW236724  10.536   2.863  10.319 -0.6397  0.4488  0.5746
43802SOL     OW36725   7.133   5.708  11.531  0.0294 -0.2335 -0.1511
43802SOL    HW136726   7.073   5.719  11.604 -0.7591 -2.7836 -0.3254
43802SOL    HW236727   7.127   5.615  11.509  1.2078  0.2043 -2.6276
43803SOL     OW36728   5.068  11.653  10.477 -0.2180  0.1917  0.0155
43803SOL    HW136729   5.148  11.633  10.429 -1.2912  1.7469 -2.6048
43803SOL    HW236730   5.005  11.589  10.445 -0.5815  0.2799  0.5374
43804SOL     OW36731   9.920   1.041   8.890 -0.0433 -0.0757  0.3301
43804SOL    HW136732   9.913   1.022   8.983  2.1285 -0.4047  0.4905
43804SOL    HW236733   9.912   1.137   8.884  2.2565  0.2412  1.2250
43805SOL     OW36734   6.859   7.723   7.969 -0.5405  0.1433 -0.5239
43805SOL    HW136735   6.851   7.780   7.893  0.6141 -0.7891 -1.3733
43805SOL    HW236736   6.862   7.784   8.043  0.9915  1.2314 -1.4248
43806SOL     OW36737   6.726  11.400   9.456  0.3289 -0.0173  0.4332
43806SOL    HW136738   6.801  11.417   9.399 -0.5946 -1.1382 -1.2008
43806SOL    HW236739   6.712  11.305   9.449  0.4411 -0.2831  2.9091
43807SOL     OW36740   0.620   9.214   3.835  0.4180 -0.1448  0.2737
43807SOL    HW136741   0.623   9.309   3.849  0.1131 -0.1621  0.4644
43807SOL    HW236742   0.598   9.178   3.920 -0.7130 -0.2976 -0.0654
43808SOL     OW36743   7.346   0.583   3.937 -0.2246 -0.0733  0.5507
43808SOL    HW136744   7.434   0.557   3.909 -0.6225 -1.9601  0.8993
43808SOL    HW236745   7.315   0.510   3.991 -1.1599  1.5402  2.3272
43809SOL     OW36746   6.311   7.860   8.537 -0.6356 -0.2469 -0.6313
43809SOL    HW136747   6.284   7.898   8.620 -0.8304  0.4520 -1.0116
43809SOL    HW236748   6.368   7.787   8.561 -2.6150 -1.6302  0.2026
43810SOL     OW36749   9.428   0.499   5.858  0.2191 -1.4430 -0.0902
43810SOL    HW136750   9.394   0.440   5.790 -0.0569 -3.5742  1.7628
43810SOL    HW236751   9.353   0.513   5.916  0.5246  0.1121 -0.0450
43811SOL     OW36752   0.472   7.300   6.394 -0.5119  0.1427  0.2415
43811SOL    HW136753   0.459   7.290   6.299 -1.1016  1.6226  0.1454
43811SOL    HW236754   0.387   7.278   6.432 -0.4815  0.2540  0.3727
43812SOL     OW36755   8.855   3.194   9.231 -0.5508  0.0039  0.1076
43812SOL    HW136756   8.831   3.171   9.321 -1.2680  1.2740  0.2681
43812SOL    HW236757   8.793   3.264   9.207 -0.2215 -0.1556 -1.2900
43813SOL     OW36758   3.708   8.861   8.644  0.3055  0.1043 -0.3440
43813SOL    HW136759   3.760   8.918   8.588 -0.6023  0.4380 -0.8733
43813SOL    HW236760   3.771   8.800   8.682  1.0395  0.3237 -1.1757
43814SOL     OW36761   4.780   0.754   3.856 -0.0443  0.1856 -0.0898
43814SOL    HW136762   4.747   0.776   3.943 -1.1078 -1.1660 -0.0990
43814SOL    HW236763   4.806   0.662   3.863  3.2594  1.0107 -0.2778
43815SOL     OW36764   2.490   2.408   9.776 -0.4138  0.1015  0.1247
43815SOL    HW136765   2.449   2.358   9.705  0.2252 -0.4989  0.1624
43815SOL    HW236766   2.581   2.417   9.749 -0.1278 -0.2706  0.9349
43816SOL     OW36767   9.190  11.679   0.507 -0.0226 -0.1601  0.6014
43816SOL    HW136768   9.134  11.617   0.459 -0.0076 -0.7745  1.3608
43816SOL    HW236769   9.228  11.627   0.578  0.0404  0.7090  1.2163
43817SOL     OW36770  10.938   0.887   7.440 -0.0238 -0.4136 -0.7100
43817SOL    HW136771  11.013   0.945   7.427  0.8845 -1.2646  0.4857
43817SOL    HW236772  10.973   0.799   7.426 -1.0377 -0.7651 -1.0980
43818SOL     OW36773   7.902   0.709   2.517  0.3837  0.0087 -0.1639
43818SOL    HW136774   7.936   0.653   2.447 -2.0357 -1.5090 -0.2160
43818SOL    HW236775   7.843   0.770   2.473 -2.9819 -2.4116  0.5769
43819SOL     OW36776   3.467   6.762   2.381  0.1737 -0.2033 -0.3016
43819SOL    HW136777   3.454   6.698   2.451  1.0731 -0.1378 -0.0669
43819SOL    HW236778   3.475   6.846   2.427  1.7670 -0.2827 -0.3796
43820SOL     OW36779   0.304   5.021   9.620  0.0112  0.7424 -0.7121
43820SOL    HW136780   0.289   5.008   9.527  0.7122 -0.4095 -0.6826
43820SOL    HW236781   0.237   5.084   9.647  0.0246  1.3577 -2.0526
43821SOL     OW36782   4.439   6.586   8.582 -0.2884 -0.1573 -0.1922
43821SOL    HW136783   4.492   6.635   8.645 -0.5574 -0.0344 -0.0632
43821SOL    HW236784   4.431   6.645   8.507 -0.4977 -0.0587 -0.0911
43822SOL     OW36785  11.271   9.070   2.308 -0.2919 -0.0560 -0.3485
43822SOL    HW136786  11.314   8.987   2.333  1.1368  1.4669  2.8603
43822SOL    HW236787  11.293   9.081   2.215  2.5247 -1.6035  0.0026
43823SOL     OW36788   6.277   9.245   2.317 -0.0865  0.0689  0.0178
43823SOL    HW136789   6.247   9.213   2.402 -0.9658  1.7373  0.3645
43823SOL    HW236790   6.197   9.265   2.269  0.4232  0.0159 -0.8754
43824SOL     OW36791   7.915  10.388   8.820 -0.1527 -0.6625 -0.0027
43824SOL    HW136792   7.953  10.475   8.827  0.0704 -0.5845 -1.7257
43824SOL    HW236793   7.827  10.397   8.857  0.3788 -0.0797  1.1585
43825SOL     OW36794   3.253   0.305   4.546 -0.2841  0.0282  0.4271
43825SOL    HW136795   3.194   0.377   4.522 -1.0313 -0.7557 -0.1504
43825SOL    HW236796   3.321   0.306   4.479  0.4655  1.0273  1.1753
43826SOL     OW36797   3.204   9.923   7.930 -0.0304  0.6192  0.4555
43826SOL    HW136798   3.201   9.990   7.998 -0.8799 -0.4838  1.5505
43826SOL    HW236799   3.259   9.854   7.966  0.0724  0.3152 -0.2621
43827SOL     OW36800   7.301   1.942   4.575  0.1865 -0.2648  0.0999
43827SOL    HW136801   7.276   1.865   4.627 -0.2997 -1.4092 -1.7544
43827SOL    HW236802   7.222   1.997   4.575  0.4191  0.0868  1.1353
43828SOL     OW36803   7.894  11.525   5.448 -0.4517  0.4300 -0.2323
43828SOL    HW136804   7.984  11.552   5.464  0.0277 -0.2914 -1.5075
43828SOL    HW236805   7.863  11.490   5.532  0.1879  1.3793  0.4099
43829SOL     OW36806   2.927   0.651   9.626  0.5205 -0.2803  0.4180
43829SOL    HW136807   2.839   0.644   9.665  0.3089 -2.2409 -0.2694
43829SOL    HW236808   2.932   0.741   9.594 -1.0434  0.0203  0.9074
43830SOL     OW36809   7.418   1.628  10.821  0.3547 -0.1207 -0.2012
43830SOL    HW136810   7.339   1.587  10.786  0.3070 -0.8421  0.7163
43830SOL    HW236811   7.487   1.563  10.810  0.8695  0.5743 -1.1553
43831SOL     OW36812   6.180   5.978  11.094 -0.0562 -0.4223  0.3093
43831SOL    HW136813   6.165   5.896  11.140 -1.3929 -0.9231 -0.9251
43831SOL    HW236814   6.236   5.955  11.020  1.3525  0.2090  1.1447
43832SOL     OW36815   2.113   6.352   6.302  1.2568 -0.2055  0.1090
43832SOL    HW136816   2.108   6.257   6.299 -0.5549 -0.1343 -0.7680
43832SOL    HW236817   2.025   6.380   6.326  2.1572  1.2422  1.9765
43833SOL     OW36818   9.205   5.531   0.055  0.4118  0.1537  0.2630
43833SOL    HW136819   9.272   5.512   0.121  0.3350  1.7973  0.8456
43833SOL    HW236820   9.141   5.460   0.065  1.3088 -0.6254  0.6867
43834SOL     OW36821   1.146   6.694   0.415  0.1970 -0.2576  0.0384
43834SOL    HW136822   1.171   6.656   0.331 -0.0115  1.3610 -0.7929
43834SOL    HW236823   1.069   6.644   0.442 -0.6229  0.1425 -1.4745
43835SOL     OW36824   3.468  11.280   5.557  0.1260  0.4232 -0.1822
43835SOL    HW136825   3.393  11.269   5.615 -0.5617  1.7592 -0.7707
43835SOL    HW236826   3.527  11.340   5.603 -0.3002  1.2779 -0.7280
43836SOL     OW36827   9.038   2.567   4.361 -0.6665 -0.1608 -0.6467
43836SOL    HW136828   8.962   2.626   4.360 -1.0435 -0.5497  1.3406
43836SOL    HW236829   9.100   2.608   4.300 -0.8305  2.4497  0.7893
43837SOL     OW36830   7.007   3.015   5.972 -0.4069 -0.0783 -0.3016
43837SOL    HW136831   6.936   2.969   6.018 -0.4029  0.1039 -0.1137
43837SOL    HW236832   7.029   3.088   6.029 -0.0773 -0.1248 -0.3695
43838SOL     OW36833   0.699   8.636   5.027  0.1767  0.4389  0.6612
43838SOL    HW136834   0.696   8.575   5.101  0.9781  1.0484  1.2155
43838SOL    HW236835   0.626   8.610   4.972  1.0608 -1.6547  0.3794
43839SOL     OW36836  11.580   1.239   7.196  0.0621  0.1483 -0.7029
43839SOL    HW136837  11.673   1.225   7.214 -0.2643 -1.0632  0.1510
43839SOL    HW236838  11.566   1.196   7.111  0.1001 -0.4296 -0.4193
43840SOL     OW36839   4.226   0.421   9.679 -0.0875 -1.1366  0.2761
43840SOL    HW136840   4.173   0.490   9.638  0.9965  0.3923  1.3280
43840SOL    HW236841   4.315   0.437   9.647 -0.0321 -3.0656 -0.7012
43841SOL     OW36842   5.636   1.861   4.190  0.5485  0.6754  0.4135
43841SOL    HW136843   5.665   1.800   4.122  1.1573  1.7694 -0.3244
43841SOL    HW236844   5.551   1.892   4.159 -0.7350 -1.2552  1.7619
43842SOL     OW36845   7.665   5.592  10.208  0.4381  0.4594  0.1221
43842SOL    HW136846   7.704   5.578  10.294 -1.9851 -1.7059  1.0142
43842SOL    HW236847   7.597   5.657  10.222 -0.5446 -0.5274  0.0883
43843SOL     OW36848   2.530   6.508   6.966 -0.4167 -0.5669  0.0102
43843SOL    HW136849   2.494   6.508   6.877 -2.2940 -1.1734  0.7164
43843SOL    HW236850   2.570   6.595   6.976 -2.8185  0.6791 -0.4718
43844SOL     OW36851  11.796   4.304   5.567 -0.4859  0.2323  0.4089
43844SOL    HW136852  11.890   4.302   5.583 -0.0676  0.6082 -1.7606
43844SOL    HW236853  11.761   4.354   5.641  1.0000  0.0283  1.2943
43845SOL     OW36854   1.454   7.082  10.862 -0.5477  0.0383 -0.3357
43845SOL    HW136855   1.482   7.174  10.864  0.7286 -0.3384  0.0288
43845SOL    HW236856   1.415   7.068  10.949 -1.2176  0.3643 -0.5754
43846SOL     OW36857   2.544   6.239   7.280 -0.4574  0.2248  0.5745
43846SOL    HW136858   2.630   6.265   7.247 -1.1550  1.5298 -0.2994
43846SOL    HW236859   2.563   6.172   7.346  1.1822  0.0655 -0.0142
43847SOL     OW36860   5.028   4.728   8.058 -0.0650 -0.2079 -0.3113
43847SOL    HW136861   4.944   4.770   8.072  0.1561  0.4311 -0.8547
43847SOL    HW236862   5.023   4.692   7.970  0.5632  0.6464 -0.7074
43848SOL     OW36863   7.003   1.495   3.287 -0.5371  0.3897 -0.0849
43848SOL    HW136864   7.082   1.537   3.321 -1.4986  0.8658  1.7627
43848SOL    HW236865   7.034   1.434   3.221  1.2181  1.6385 -0.5040
43849SOL     OW36866   7.551   0.285  11.790 -0.1506  0.0216  0.1603
43849SOL    HW136867   7.545   0.379  11.806 -0.4124  0.1566 -0.6892
43849SOL    HW236868   7.639   0.261  11.820  0.8139  0.9915 -1.7674
43850SOL     OW36869  11.800   6.344   2.329  0.2658 -0.2018 -0.6886
43850SOL    HW136870  11.873   6.377   2.382 -0.4127 -0.9468  0.7973
43850SOL    HW236871  11.731   6.409   2.339  0.2819 -0.1400 -0.9954
43851SOL     OW36872  10.477   8.813  11.814 -0.3173  0.1730 -0.0153
43851SOL    HW136873  10.467   8.776  11.902 -0.4320  0.5438  0.1300
43851SOL    HW236874  10.552   8.766  11.777 -1.4083 -1.3421 -0.4279
43852SOL     OW36875   1.375   9.137   7.215 -0.2163 -0.3975  0.1799
43852SOL    HW136876   1.413   9.064   7.167  1.8980  1.7463 -1.6517
43852SOL    HW236877   1.417   9.133   7.301  1.0895 -0.4503 -0.4409
43853SOL     OW36878   4.142   9.586   0.170 -0.1355 -0.2412  0.4364
43853SOL    HW136879   4.119   9.633   0.250 -1.0999  1.9914 -1.0564
43853SOL    HW236880   4.232   9.614   0.150  0.4991 -1.5978  1.2163
43854SOL     OW36881  11.301   2.818   4.788  0.0061 -0.1875 -0.6152
43854SOL    HW136882  11.215   2.798   4.824  0.1167 -0.6524 -0.6028
43854SOL    HW236883  11.322   2.743   4.731  0.6585 -0.3794 -0.1463
43855SOL     OW36884   3.501   3.854   4.247  0.0593 -0.2713 -0.4570
43855SOL    HW136885   3.449   3.782   4.211 -1.1774 -1.3217  2.9465
43855SOL    HW236886   3.591   3.819   4.250 -0.2957 -1.1940 -0.0749
43856SOL     OW36887   3.291   8.884   7.792 -0.1212 -0.2407  0.1375
43856SOL    HW136888   3.302   8.910   7.883 -0.4040 -1.0661  0.4200
43856SOL    HW236889   3.309   8.790   7.792 -0.0466 -0.2310 -0.6723
43857SOL     OW36890  11.195   7.649  10.391  0.7023 -0.1142 -0.5523
43857SOL    HW136891  11.269   7.663  10.332  0.7589 -0.7570 -0.6398
43857SOL    HW236892  11.221   7.575  10.446 -0.1474 -0.8319 -1.0675
43858SOL     OW36893   9.579   5.586   3.056 -0.5101 -0.5419 -0.5102
43858SOL    HW136894   9.551   5.503   3.019  0.5854 -0.5953 -1.2724
43858SOL    HW236895   9.537   5.652   3.001 -0.0827 -0.6148 -0.9350
43859SOL     OW36896   1.110  11.042   9.339 -0.6310  0.0928  0.1265
43859SOL    HW136897   1.199  11.049   9.303 -0.8454 -0.0041 -0.4388
43859SOL    HW236898   1.104  11.113   9.402  0.5057 -1.0760  1.6206
43860SOL     OW36899   2.680   3.987   1.955 -0.2485 -0.8632  0.3299
43860SOL    HW136900   2.641   4.070   1.930  0.2252  0.2337  2.9751
43860SOL    HW236901   2.761   4.011   2.002 -0.8481 -2.6851  2.4716
43861SOL     OW36902   6.974   1.978   4.810  0.0282  0.1448 -0.0511
43861SOL    HW136903   6.895   1.954   4.761 -0.3422  2.7919 -0.8622
43861SOL    HW236904   6.968   1.926   4.890 -2.2961 -0.0728 -0.2826
43862SOL     OW36905   8.988   3.515   8.306  0.2376  0.1428 -0.3237
43862SOL    HW136906   8.949   3.446   8.359  0.8252  0.2866  0.3021
43862SOL    HW236907   9.016   3.471   8.225  0.1101 -0.2411 -0.1557
43863SOL     OW36908  10.972  11.485   7.071 -0.7264 -0.0562 -0.1078
43863SOL    HW136909  10.924  11.567   7.087 -1.2470 -0.4980  0.6532
43863SOL    HW236910  11.057  11.513   7.037 -0.9761  0.7945 -0.0506
43864SOL     OW36911   0.984  10.761   1.191  0.0699 -0.1593  0.1707
43864SOL    HW136912   0.898  10.741   1.228  0.0818 -2.2182 -0.7728
43864SOL    HW236913   0.989  10.708   1.112  2.0881  0.1711  0.0268
43865SOL     OW36914  10.213   3.654   2.705  0.5180 -0.1798 -0.3219
43865SOL    HW136915  10.140   3.592   2.708 -0.4409  0.9403  1.3920
43865SOL    HW236916  10.174   3.736   2.677  0.7781  0.7889  1.9590
43866SOL     OW36917   5.981   6.080   3.099 -0.4799  0.0386  0.3718
43866SOL    HW136918   6.067   6.119   3.111 -0.4522  1.8869 -4.1256
43866SOL    HW236919   5.920   6.154   3.102 -1.6359 -0.8783  0.7082
43867SOL     OW36920   2.725   4.893   2.781 -0.2121  0.4588 -0.3294
43867SOL    HW136921   2.811   4.864   2.811  0.1426  1.8673  0.1060
43867SOL    HW236922   2.663   4.849   2.839  0.1948 -0.7664 -0.8098
43868SOL     OW36923   6.274   0.287   9.274  0.0538 -0.1087 -0.8031
43868SOL    HW136924   6.367   0.300   9.258  0.9373 -1.3826  2.3966
43868SOL    HW236925   6.248   0.363   9.326  0.2739 -1.3520  1.2379
43869SOL     OW36926   3.355   9.256   8.097  0.1764  0.5047  0.0021
43869SOL    HW136927   3.448   9.279   8.092  0.1368  0.6122 -0.2879
43869SOL    HW236928   3.341   9.232   8.188  0.5326  0.3023  0.0058
43870SOL     OW36929  10.154   2.078   0.432  0.2342 -0.5570 -0.0696
43870SOL    HW136930  10.145   1.990   0.394  0.8711 -1.7372  2.3369
43870SOL    HW236931  10.157   2.136   0.356 -0.4157 -2.5792 -1.7397
43871SOL     OW36932   9.635   8.129  11.572 -0.0608  0.6741  0.3625
43871SOL    HW136933   9.544   8.137  11.599  0.5759  1.6645  2.4347
43871SOL    HW236934   9.672   8.065  11.633  0.1198 -1.6293 -2.0085
43872SOL     OW36935   6.193   4.993   6.147 -0.1689  0.4275  0.1525
43872SOL    HW136936   6.155   4.992   6.234  0.7976  3.2838  0.7013
43872SOL    HW236937   6.279   5.034   6.158  0.7522 -0.7683 -1.8855
43873SOL     OW36938   6.944  10.620   2.842 -0.1277 -0.0154  0.1758
43873SOL    HW136939   7.009  10.673   2.887 -0.6199 -0.1850  1.1136
43873SOL    HW236940   6.862  10.668   2.851 -0.3917 -0.4599  0.1850
43874SOL     OW36941   2.505   6.062   7.504 -0.4675  0.5346 -0.1120
43874SOL    HW136942   2.436   6.018   7.555  0.7589  2.3717  3.4465
43874SOL    HW236943   2.586   6.037   7.548  0.8064  1.4922 -1.8241
43875SOL     OW36944   1.766   0.781   7.667  0.0168  0.1784 -0.3709
43875SOL    HW136945   1.682   0.736   7.663  0.3343 -0.7911  2.0784
43875SOL    HW236946   1.760   0.850   7.600 -2.0392 -0.9339 -1.4122
43876SOL     OW36947   8.373   4.596   2.241  0.4832 -0.0504 -0.2192
43876SOL    HW136948   8.466   4.603   2.260  0.2308  2.5645  0.4022
43876SOL    HW236949   8.369   4.549   2.158  2.3210 -0.4836 -0.1042
43877SOL     OW36950   7.292   8.422   3.824  0.0158 -0.3265  0.2384
43877SOL    HW136951   7.329   8.497   3.777 -1.2566  0.3776  0.3239
43877SOL    HW236952   7.357   8.352   3.813  1.1960  0.7551  0.0908
43878SOL     OW36953  11.755   0.483   6.420  0.1143 -0.0507 -0.1639
43878SOL    HW136954  11.751   0.491   6.325  1.9108 -0.3045 -0.2963
43878SOL    HW236955  11.666   0.500   6.450 -0.4742  0.0272 -1.8874
43879SOL     OW36956   5.243   9.687   8.585 -0.6937 -0.3934 -0.0197
43879SOL    HW136957   5.156   9.685   8.626 -0.9061 -3.0791 -0.4247
43879SOL    HW236958   5.296   9.628   8.640  0.3348 -0.2848 -0.8674
43880SOL     OW36959   4.724   5.868   2.847  0.1767 -0.1862 -1.1156
43880SOL    HW136960   4.769   5.932   2.793  2.1340 -0.3778  0.1978
43880SOL    HW236961   4.683   5.920   2.916  0.6292 -0.2330 -0.8108
43881SOL     OW36962   3.224   6.260   6.820  0.7491  0.0574  0.2168
43881SOL    HW136963   3.291   6.249   6.888  0.1812 -1.5484  0.5456
43881SOL    HW236964   3.222   6.354   6.805 -1.2763  1.0258  4.6764
43882SOL     OW36965   6.790   6.923   7.403  0.4044 -0.6194 -0.1648
43882SOL    HW136966   6.769   6.942   7.312 -1.4561 -1.7415 -0.0122
43882SOL    HW236967   6.813   7.008   7.441 -0.3132  0.1074 -1.3119
43883SOL     OW36968   7.472   9.697   3.901 -0.3185  0.0439  0.7600
43883SOL    HW136969   7.542   9.678   3.838 -0.8110  0.0462  0.1990
43883SOL    HW236970   7.495   9.647   3.979  0.5090  0.3491  0.7227
43884SOL     OW36971   8.041   5.369   5.790 -0.0577  0.2913 -0.6265
43884SOL    HW136972   8.042   5.381   5.885 -0.5556  0.9906 -0.7037
43884SOL    HW236973   8.011   5.279   5.778 -1.3440  0.6312 -0.1407
43885SOL     OW36974   8.512   4.071  10.077  0.1748 -0.5580 -0.1558
43885SOL    HW136975   8.430   4.045  10.119  0.0354  1.0153  0.6081
43885SOL    HW236976   8.486   4.133  10.009  0.4739 -2.4706 -2.1359
43886SOL     OW36977  11.242   5.806   6.110 -0.4059  0.0182  0.4628
43886SOL    HW136978  11.150   5.828   6.128 -0.8546 -0.2388 -1.2968
43886SOL    HW236979  11.272   5.762   6.189 -1.1897  1.8474  1.8477
43887SOL     OW36980  10.542   7.294   7.640 -0.2790 -0.4743 -0.1283
43887SOL    HW136981  10.518   7.272   7.550 -1.7169 -0.9728  0.3499
43887SOL    HW236982  10.530   7.388   7.647 -1.8932 -0.6586 -0.0028
43888SOL     OW36983  11.759   8.742   6.707  0.0851  0.0554  0.1557
43888SOL    HW136984  11.835   8.707   6.659  0.0548  0.3663 -0.1228
43888SOL    HW236985  11.742   8.677   6.775  1.6080  0.7500  1.2536
43889SOL     OW36986   5.919   6.818   4.909  0.2461  0.0284  0.0927
43889SOL    HW136987   6.013   6.823   4.928 -0.1858  0.6854  2.3977
43889SOL    HW236988   5.899   6.725   4.914  0.7417 -0.1100 -0.3512
43890SOL     OW36989   4.771   1.774   5.834 -0.3349 -0.1537 -0.4502
43890SOL    HW136990   4.771   1.679   5.845  0.0283 -0.2002 -0.8518
43890SOL    HW236991   4.861   1.796   5.808 -0.5157  0.2565 -0.7442
43891SOL     OW36992   9.809  11.638   2.891  0.4335 -0.3776  0.4112
43891SOL    HW136993   9.763  11.722   2.893  1.1215 -0.0047  1.0103
43891SOL    HW236994   9.739  11.572   2.890 -0.1109  0.1861  0.8600
43892SOL     OW36995   7.791   0.045   4.393 -0.1135  0.9128 -0.3653
43892SOL    HW136996   7.822  -0.045   4.398  1.1665  1.1711 -2.5297
43892SOL    HW236997   7.703   0.037   4.356 -0.4401  0.5040  0.4759
43893SOL     OW36998   5.062   9.383   3.552 -0.3736 -0.0399 -0.0025
43893SOL    HW136999   5.019   9.449   3.606 -1.8356  0.0768 -1.2371
43893SOL    HW237000   5.101   9.323   3.614  0.8652  1.8780  1.1623
43894SOL     OW37001  11.660  10.474   3.225 -0.2910 -0.1796  0.0280
43894SOL    HW137002  11.716  10.396   3.226  0.1527  0.1243 -0.7845
43894SOL    HW237003  11.600  10.460   3.152 -0.3742  0.1263  0.0385
43895SOL     OW37004   1.766   0.560   4.010 -0.3524 -0.1138  0.1929
43895SOL    HW137005   1.708   0.487   3.990 -2.2237  0.7261  2.0990
43895SOL    HW237006   1.853   0.520   4.019 -1.3910 -2.2609  1.7584
43896SOL     OW37007  10.817  11.780   6.331 -0.5500 -0.4714 -0.5331
43896SOL    HW137008  10.865  11.814   6.407 -1.3022 -3.2457  1.3202
43896SOL    HW237009  10.735  11.829   6.332  0.6847  1.7700 -1.5780
43897SOL     OW37010   0.675   2.462   3.871  0.1570  0.4000  0.6514
43897SOL    HW137011   0.753   2.514   3.851  0.7776 -0.4577  0.7983
43897SOL    HW237012   0.604   2.526   3.874  0.0058  0.7789 -3.7274
43898SOL     OW37013   6.145   6.588   0.502  0.4530  0.4210  0.6625
43898SOL    HW137014   6.238   6.596   0.522  0.7930 -0.5338 -0.4243
43898SOL    HW237015   6.127   6.494   0.507 -0.0609  0.4253 -0.7210
43899SOL     OW37016   3.017   1.439   6.644 -0.0797  0.3119 -0.3403
43899SOL    HW137017   3.058   1.391   6.572 -0.7034  1.2224 -1.3344
43899SOL    HW237018   2.935   1.392   6.660 -0.4045  0.6658 -0.9071
43900SOL     OW37019   0.998   5.314   1.899  0.0006  0.1374  0.2491
43900SOL    HW137020   0.913   5.270   1.897  0.1200 -0.3532  2.9592
43900SOL    HW237021   1.061   5.246   1.872 -0.3346  0.2277 -0.8059
43901SOL     OW37022   8.275   7.149   4.710  0.0149 -0.0987 -0.3671
43901SOL    HW137023   8.348   7.128   4.769 -0.2126  0.0754 -0.0174
43901SOL    HW237024   8.216   7.202   4.763 -0.6396 -0.7008 -0.4683
43902SOL     OW37025  10.623   1.151   9.698 -0.3965 -0.4465 -0.0128
43902SOL    HW137026  10.670   1.082   9.651 -0.3523 -0.2490 -0.2587
43902SOL    HW237027  10.531   1.137   9.676 -0.7117 -2.0414  2.0061
43903SOL     OW37028  10.580   9.159   5.006  0.9547  1.0572  0.0853
43903SOL    HW137029  10.494   9.129   4.978  0.2993  2.1574  0.8284
43903SOL    HW237030  10.607   9.222   4.939  2.2086 -0.8770 -1.3306
43904SOL     OW37031  11.313  10.915   8.680 -0.3209 -0.4752  0.2721
43904SOL    HW137032  11.223  10.946   8.674  0.5218  2.1318 -0.6374
43904SOL    HW237033  11.333  10.916   8.773 -0.3909  1.9338  0.3383
43905SOL     OW37034   6.826   9.621   5.590  0.0072  0.2267  0.2397
43905SOL    HW137035   6.807   9.678   5.664  1.9636  2.6367 -0.9416
43905SOL    HW237036   6.759   9.553   5.593 -0.4116  0.6395  3.7288
43906SOL     OW37037  10.674   5.830   6.466 -0.2100  0.4477  1.0032
43906SOL    HW137038  10.709   5.855   6.381 -2.5008 -0.4090 -0.2824
43906SOL    HW237039  10.632   5.909   6.500 -0.4254  0.4547  0.7215
43907SOL     OW37040   0.811   1.507   6.903  0.5429 -0.0914  0.1367
43907SOL    HW137041   0.778   1.597   6.898 -1.1005 -0.7188 -1.0345
43907SOL    HW237042   0.895   1.515   6.950  0.5486  2.0646 -0.1393
43908SOL     OW37043   6.212   6.133   6.493  0.0770  0.3654  0.3522
43908SOL    HW137044   6.196   6.218   6.533  2.9660  2.4174 -2.3990
43908SOL    HW237045   6.191   6.145   6.401 -0.9600 -2.4768  0.0906
43909SOL     OW37046   2.713   9.731   1.892 -0.3743 -0.1609  0.2156
43909SOL    HW137047   2.745   9.684   1.815  0.2412  4.1310 -2.5451
43909SOL    HW237048   2.630   9.771   1.863  0.4784  2.5776  1.2005
43910SOL     OW37049   3.836   1.098   8.524 -0.2716 -0.8504  0.2788
43910SOL    HW137050   3.871   1.052   8.601  2.5071  3.2411  1.7458
43910SOL    HW237051   3.885   1.062   8.450  1.3435 -0.7481  1.2652
43911SOL     OW37052   3.606   5.739   3.905 -0.5829  0.0048 -0.1988
43911SOL    HW137053   3.665   5.778   3.840 -2.2687  2.1755 -0.5271
43911SOL    HW237054   3.664   5.711   3.976  1.0023  0.4103 -1.2823
43912SOL     OW37055   1.816   1.566   7.357 -0.8042  0.5041  0.5227
43912SOL    HW137056   1.741   1.507   7.349 -1.1046  0.8978  0.4023
43912SOL    HW237057   1.792   1.643   7.306  0.3709 -0.0283 -0.9061
43913SOL     OW37058   9.074   2.220   4.746  0.0970  0.2958  0.4129
43913SOL    HW137059   8.982   2.206   4.768  0.0695 -0.3581 -0.0838
43913SOL    HW237060   9.115   2.134   4.756  0.8270  0.7474  1.4189
43914SOL     OW37061   9.618   2.157   3.592 -0.4576 -0.7246  0.4373
43914SOL    HW137062   9.554   2.222   3.563 -0.0156 -0.8763 -0.9589
43914SOL    HW237063   9.685   2.208   3.638  0.0640 -0.1159 -0.9466
43915SOL     OW37064   5.284   1.138   8.001  0.1571  0.1869  0.1907
43915SOL    HW137065   5.277   1.092   7.918  0.8213  0.5317 -0.0698
43915SOL    HW237066   5.361   1.099   8.043 -1.1938 -1.2462  1.4745
43916SOL     OW37067   8.254   5.365   5.223 -0.3947  0.0211  0.3418
43916SOL    HW137068   8.203   5.385   5.145 -0.1191  2.4445  0.7187
43916SOL    HW237069   8.342   5.349   5.191 -0.3490  0.6964  0.1222
43917SOL     OW37070   4.854   9.699   2.365  0.2406  0.6351  0.1219
43917SOL    HW137071   4.790   9.731   2.428 -0.1313  1.1667 -0.5032
43917SOL    HW237072   4.802   9.667   2.292  0.6231 -1.2153  0.6238
43918SOL     OW37073  10.298   3.638   3.509  0.7175 -0.8494  0.4679
43918SOL    HW137074  10.386   3.624   3.473  0.2952  0.7033 -1.3482
43918SOL    HW237075  10.276   3.728   3.484 -1.0047 -0.8607  1.7617
43919SOL     OW37076   1.792   8.474   2.614 -0.0326 -0.1441 -0.9245
43919SOL    HW137077   1.773   8.462   2.707 -2.0055  0.3222 -1.2319
43919SOL    HW237078   1.867   8.534   2.613 -0.9688  1.1373  0.3743
43920SOL     OW37079   7.244   2.029   8.176 -0.1994  0.6038 -0.6076
43920SOL    HW137080   7.287   1.961   8.125  0.0143  1.4408 -1.5799
43920SOL    HW237081   7.159   2.041   8.133 -0.2345  0.9421 -0.4440
43921SOL     OW37082   9.475   3.147   8.736 -0.1109 -0.4899  0.5251
43921SOL    HW137083   9.508   3.228   8.775 -2.6099  0.1403  1.5613
43921SOL    HW237084   9.545   3.083   8.749  2.0299  1.5011 -0.5238
43922SOL     OW37085   0.806   3.508   2.802  0.0368 -0.6106  0.6538
43922SOL    HW137086   0.718   3.545   2.795 -0.5613 -1.9083  0.9053
43922SOL    HW237087   0.854   3.571   2.856  0.0264  1.3463 -1.4753
43923SOL     OW37088  10.060   8.323  10.114  0.0121 -0.0469 -0.0559
43923SOL    HW137089  10.112   8.360  10.042 -0.6757 -0.4315 -0.7588
43923SOL    HW237090  10.048   8.396  10.174 -1.1234  0.8423 -1.3062
43924SOL     OW37091   8.395   0.832   9.336 -0.0226  0.0663 -0.2696
43924SOL    HW137092   8.470   0.884   9.365 -0.0856 -0.9703  1.9927
43924SOL    HW237093   8.329   0.897   9.312  0.9489  1.0017 -0.4990
43925SOL     OW37094   4.058  10.061   8.954  0.3792  0.1020 -0.7865
43925SOL    HW137095   4.085  10.136   8.901  1.0494  1.0303  0.7977
43925SOL    HW237096   4.001  10.099   9.021  2.4620 -0.3998  1.3777
43926SOL     OW37097   5.912   4.590  10.540  0.0229 -0.2273 -0.7099
43926SOL    HW137098   5.983   4.527  10.531 -1.1420 -1.9249  0.9605
43926SOL    HW237099   5.924   4.627  10.628  0.0330  1.0702 -1.2356
43927SOL     OW37100  11.243  10.499   2.878 -0.4169  0.4403  0.6463
43927SOL    HW137101  11.185  10.489   2.953 -0.8809  1.3512  0.4229
43927SOL    HW237102  11.190  10.474   2.803  0.3091 -1.3184  0.6750
43928SOL     OW37103  10.007  11.546   3.141  0.9174 -0.8277  0.3800
43928SOL    HW137104   9.986  11.487   3.213 -0.3723  1.0020  1.5985
43928SOL    HW237105   9.922  11.569   3.103  1.3459  0.4681  0.1522
43929SOL     OW37106   2.908   9.877   6.969 -0.2363 -0.8140  0.4618
43929SOL    HW137107   2.982   9.868   6.908 -1.5378  2.6246 -1.9740
43929SOL    HW237108   2.837   9.830   6.926 -0.4865 -0.6347  0.6818
43930SOL     OW37109   8.033   1.476  11.195  0.3060  0.4442 -0.4350
43930SOL    HW137110   7.963   1.411  11.194  1.8454 -1.3547  1.2172
43930SOL    HW237111   8.075   1.467  11.110  1.4919 -2.0027  0.3020
43931SOL     OW37112   5.684   3.890   1.354  0.3180 -0.7630  0.7729
43931SOL    HW137113   5.762   3.922   1.310 -0.2633 -1.3113 -0.7158
43931SOL    HW237114   5.669   3.953   1.425  2.1860 -0.7598  1.1997
43932SOL     OW37115   8.870  10.543   6.629 -0.1267 -0.4221 -0.5998
43932SOL    HW137116   8.885  10.630   6.592  1.5943 -0.6323 -0.4703
43932SOL    HW237117   8.783  10.518   6.596  0.0156  0.6874 -1.9133
43933SOL     OW37118   2.194   8.192   7.525 -0.4706 -0.0566  0.3498
43933SOL    HW137119   2.237   8.268   7.485  1.6623 -2.0974 -1.4773
43933SOL    HW237120   2.262   8.125   7.528 -2.2007 -1.8310  2.1953
43934SOL     OW37121   0.342   8.641   0.007  0.1809  0.0919 -0.4577
43934SOL    HW137122   0.358   8.703   0.078 -0.9216  0.5905 -0.6289
43934SOL    HW237123   0.313   8.561   0.051  0.2836  0.1333 -0.3126
43935SOL     OW37124   2.058   8.243   9.546  0.0887 -0.2698  0.2196
43935SOL    HW137125   2.073   8.285   9.462 -1.3600  1.6108  0.8418
43935SOL    HW237126   2.142   8.202   9.568  0.8553  0.2825 -1.5313
43936SOL     OW37127   6.405   6.449  10.258 -0.9562 -0.5545  0.2106
43936SOL    HW137128   6.375   6.374  10.207 -0.1001 -0.4171 -0.5383
43936SOL    HW237129   6.328   6.504  10.269 -0.9190  0.0592 -2.1244
43937SOL     OW37130   0.106   0.404  11.620 -0.2383 -0.0199  0.2178
43937SOL    HW137131   0.045   0.466  11.579 -0.6041 -1.1177 -0.9531
43937SOL    HW237132   0.141   0.353  11.548 -0.7518 -1.8944  1.2235
43938SOL     OW37133   0.704   6.497   4.045  0.0927  0.4637  0.0285
43938SOL    HW137134   0.797   6.497   4.065 -0.3128 -0.2894  2.1333
43938SOL    HW237135   0.661   6.521   4.127 -1.5908  0.4095 -0.7842
43939SOL     OW37136   9.656   5.360   2.503  0.4646 -0.0266  0.2717
43939SOL    HW137137   9.736   5.345   2.452  0.5153  0.6687  0.1269
43939SOL    HW237138   9.648   5.283   2.559 -0.0441 -1.2266 -1.3579
43940SOL     OW37139   7.594   4.074   4.637 -0.2251 -0.0687  0.3642
43940SOL    HW137140   7.623   4.000   4.691 -0.4556  0.4526  1.2181
43940SOL    HW237141   7.675   4.112   4.603 -0.0049  0.2050  1.1704
43941SOL     OW37142  10.668   7.259   4.502 -0.2388 -0.3334 -0.0003
43941SOL    HW137143  10.717   7.341   4.500 -0.0903 -0.4248 -1.3062
43941SOL    HW237144  10.667   7.230   4.410 -0.4938 -1.6633  0.4017
43942SOL     OW37145   4.636   8.125   9.172 -0.5160  0.2019 -0.1212
43942SOL    HW137146   4.712   8.138   9.229 -0.6673  0.5670  0.0053
43942SOL    HW237147   4.668   8.147   9.084 -0.4861  0.4066 -0.0604
43943SOL     OW37148  10.563   9.556  11.547 -0.6846 -0.1585  0.7019
43943SOL    HW137149  10.540   9.542  11.455 -1.1500 -1.8717  1.0506
43943SOL    HW237150  10.509   9.630  11.574 -1.2051 -0.2132 -0.1625
43944SOL     OW37151   0.672   8.182  10.412 -0.1957 -0.0319 -0.3218
43944SOL    HW137152   0.724   8.253  10.450  0.1086 -0.3494 -0.1416
43944SOL    HW237153   0.737   8.125  10.370 -0.4633 -0.0610 -0.7017
43945SOL     OW37154   2.918   9.453   4.862  0.0381  0.0559  0.3215
43945SOL    HW137155   2.974   9.526   4.837 -0.2033 -0.0205 -0.4449
43945SOL    HW237156   2.954   9.378   4.815  0.0448 -0.2507  0.8003
43946SOL     OW37157   2.644   0.992   2.938  0.2760  0.5126 -0.7094
43946SOL    HW137158   2.597   1.041   2.869  0.9528 -0.4491 -1.8842
43946SOL    HW237159   2.651   0.903   2.904  0.6633  0.0161  0.6096
43947SOL     OW37160   3.923   9.153   0.336 -0.2085  0.5785  0.2136
43947SOL    HW137161   4.015   9.170   0.360 -0.5726  0.9547  1.4362
43947SOL    HW237162   3.902   9.220   0.272  0.2119  0.8568  0.3587
43948SOL     OW37163  10.347   6.394   9.252  0.4024 -0.2311 -0.3358
43948SOL    HW137164  10.370   6.311   9.294 -1.1705  0.2112  1.5751
43948SOL    HW237165  10.405   6.400   9.177  0.9087 -2.8252 -0.2532
43949SOL     OW37166   3.925  10.394   0.601  0.1276 -0.5055 -0.5543
43949SOL    HW137167   3.992  10.359   0.659  0.7198  2.5270  0.8039
43949SOL    HW237168   3.972  10.419   0.521 -0.0156 -1.3792 -0.9166
43950SOL     OW37169   6.773   0.057   2.684 -0.0611  0.4384 -0.1323
43950SOL    HW137170   6.745   0.107   2.761  1.0890 -0.9533  1.2610
43950SOL    HW237171   6.867   0.075   2.677  0.3718 -1.4003  0.3703
43951SOL     OW37172   3.292   5.018   0.960 -0.1564  0.4272 -0.1704
43951SOL    HW137173   3.347   5.073   0.905  0.5240 -0.5021 -0.4374
43951SOL    HW237174   3.325   4.930   0.947 -1.2359 -0.0610  0.2408
43952SOL     OW37175   0.660   3.061   7.475 -0.4511 -0.5157  0.3623
43952SOL    HW137176   0.679   3.065   7.568  0.8304 -1.5591  0.1762
43952SOL    HW237177   0.620   2.975   7.462  1.2162 -1.2504 -0.3079
43953SOL     OW37178  11.007   5.849   4.264  0.5101 -0.7567  0.1952
43953SOL    HW137179  11.038   5.924   4.213 -0.3929  0.5440  1.4670
43953SOL    HW237180  11.047   5.773   4.222  0.9039  0.3646 -1.5739
43954SOL     OW37181   9.404   9.932   7.787  0.2950 -0.1883 -0.5216
43954SOL    HW137182   9.390  10.004   7.725  1.2252  1.0187  0.5817
43954SOL    HW237183   9.472   9.879   7.747 -0.5246 -0.5695 -1.4355
43955SOL     OW37184   5.427   6.106   7.339  0.1348 -0.2538 -0.3362
43955SOL    HW137185   5.348   6.089   7.288  0.0663 -2.3471  0.3839
43955SOL    HW237186   5.453   6.021   7.373  1.4206  0.7320  1.3379
43956SOL     OW37187  10.711   8.587   2.927 -0.1440  0.0948  0.3835
43956SOL    HW137188  10.780   8.651   2.908  0.2465  0.2690  2.2169
43956SOL    HW237189  10.755   8.502   2.922 -0.0605  0.1343  0.4428
43957SOL     OW37190   1.956   0.728  10.008 -0.2781  0.2955 -0.0070
43957SOL    HW137191   1.994   0.641  10.003  0.7485  0.6487  1.0392
43957SOL    HW237192   2.031   0.786  10.020 -0.8179  1.5003 -2.0681
43958SOL     OW37193  10.083   3.198   0.654  0.1247  0.2958  0.3287
43958SOL    HW137194  10.018   3.256   0.615 -0.7771 -0.8552  0.0669
43958SOL    HW237195  10.050   3.180   0.742  0.3482  0.0995  0.3735
43959SOL     OW37196   0.434   3.560   2.094 -0.5200 -0.1101  0.5770
43959SOL    HW137197   0.463   3.599   2.177 -0.7840 -0.2343  0.7264
43959SOL    HW237198   0.457   3.468   2.102 -0.1184 -0.0370  0.3208
43960SOL     OW37199  11.441   2.775   9.222  0.1529 -0.2225  0.6002
43960SOL    HW137200  11.504   2.704   9.207  1.8515  1.7512 -2.9008
43960SOL    HW237201  11.362   2.747   9.175  0.2902 -0.4579  0.5066
43961SOL     OW37202   1.656   9.623   0.024 -0.1450  0.0495  0.2441
43961SOL    HW137203   1.580   9.568   0.043  0.6500 -0.6397  1.4882
43961SOL    HW237204   1.678   9.664   0.108  1.5370 -0.6177  0.1527
43962SOL     OW37205  11.126  10.182   2.812 -0.1612  0.0543  0.1479
43962SOL    HW137206  11.143  10.104   2.760 -1.2315 -0.1177  0.0356
43962SOL    HW237207  11.145  10.156   2.902  2.1057  0.4714 -0.1445
43963SOL     OW37208   5.425   4.885   1.338  0.3488  0.6424 -0.1298
43963SOL    HW137209   5.517   4.859   1.327  0.1516  0.2437 -0.9411
43963SOL    HW237210   5.391   4.891   1.249 -0.5292  0.3665  0.1717
43964SOL     OW37211  10.140   9.745   2.493 -0.1373 -0.3909 -0.4024
43964SOL    HW137212  10.135   9.714   2.584 -1.6488  0.5731 -0.1125
43964SOL    HW237213  10.205   9.815   2.496  1.4691 -1.8010 -0.5613
43965SOL     OW37214  11.514  11.151   1.520 -0.6395  0.6350 -1.0824
43965SOL    HW137215  11.481  11.233   1.556 -0.2749  0.1138  0.5540
43965SOL    HW237216  11.474  11.083   1.574  1.2472 -0.1123 -0.5166
43966SOL     OW37217   0.082  10.200   6.798  0.5090  0.3510 -0.1833
43966SOL    HW137218   0.054  10.122   6.750  0.7228  1.4857 -2.2669
43966SOL    HW237219   0.028  10.200   6.877 -1.7748 -0.2396 -1.6383
43967SOL     OW37220   4.291   2.752   7.696  0.3629  0.3829 -0.3365
43967SOL    HW137221   4.270   2.830   7.748  1.7436  0.0528  0.7963
43967SOL    HW237222   4.332   2.786   7.617 -2.1471  0.9156 -1.5066
43968SOL     OW37223   9.684   9.223   0.635 -0.6509  0.6709  0.8080
43968SOL    HW137224   9.731   9.307   0.639 -0.6105  0.8096 -1.3225
43968SOL    HW237225   9.753   9.157   0.639 -0.5924  0.7591  1.3617
43969SOL     OW37226  10.941   8.576   9.950 -0.0151  0.4889 -0.4837
43969SOL    HW137227  10.952   8.488   9.987 -1.1829 -0.9665 -3.2870
43969SOL    HW237228  11.029   8.602   9.924  0.0739 -0.8238 -1.5667
43970SOL     OW37229  10.860   1.066   0.026  0.3764  0.1372 -0.1162
43970SOL    HW137230  10.911   0.985   0.036  0.1897 -0.3535 -2.6014
43970SOL    HW237231  10.771   1.036   0.008 -0.5270  0.9866  2.4939
43971SOL     OW37232   8.543   9.498   4.817  0.1926 -0.4500  0.2520
43971SOL    HW137233   8.633   9.506   4.851 -0.3572  1.1242  1.5043
43971SOL    HW237234   8.522   9.405   4.825  1.3211 -0.6605  1.0299
43972SOL     OW37235   5.719   0.240   1.546  0.7869  0.5377  0.1972
43972SOL    HW137236   5.770   0.277   1.473  0.8184 -1.7977 -1.0591
43972SOL    HW237237   5.773   0.169   1.580 -0.3366 -0.0470  0.8219
43973SOL     OW37238   8.232   5.758   1.758 -0.3694  0.4874  0.2600
43973SOL    HW137239   8.295   5.736   1.827  1.0007 -0.1169 -1.1119
43973SOL    HW237240   8.151   5.715   1.785  0.6571 -1.3622  0.5955
43974SOL     OW37241   3.995   6.419   8.765 -0.0765 -0.2453  0.1595
43974SOL    HW137242   3.927   6.367   8.723  0.0200 -0.3915  0.1855
43974SOL    HW237243   3.954   6.453   8.844  0.1015 -0.9309  0.5577
43975SOL     OW37244   1.377   2.489   1.829  0.2068 -0.2753  0.5813
43975SOL    HW137245   1.378   2.433   1.906 -0.7910 -0.1221  0.7173
43975SOL    HW237246   1.329   2.439   1.763  1.2067 -0.4848 -0.0143
43976SOL     OW37247  11.525   7.329   9.375 -0.6291 -0.2179 -0.4576
43976SOL    HW137248  11.544   7.286   9.291  1.8485  0.9202 -0.5962
43976SOL    HW237249  11.597   7.302   9.432 -1.0704  0.7586  0.5991
43977SOL     OW37250   2.857   2.137   8.317  0.1284 -0.0968 -0.0284
43977SOL    HW137251   2.787   2.075   8.337 -0.9102  0.8460 -0.6345
43977SOL    HW237252   2.935   2.099   8.357 -0.9094 -0.6981  1.5186
43978SOL     OW37253  10.866   8.060   5.999 -0.7624 -0.3674  0.3597
43978SOL    HW137254  10.877   8.151   5.974 -0.7351 -0.8708 -1.6117
43978SOL    HW237255  10.936   8.043   6.062 -0.7852  0.9637  0.7589
43979SOL     OW37256   7.284   9.023   4.079  0.4026 -0.2943  0.5477
43979SOL    HW137257   7.206   8.968   4.076 -0.8975  1.4232  1.0885
43979SOL    HW237258   7.335   8.996   4.003 -1.3959 -0.5331 -0.6370
43980SOL     OW37259   1.231   5.289   6.416 -0.0164  0.0330 -0.4643
43980SOL    HW137260   1.182   5.257   6.340  1.3676  0.5935 -1.6384
43980SOL    HW237261   1.173   5.274   6.491 -1.8009  0.2981 -1.7366
43981SOL     OW37262   0.923   9.628   8.355  0.0804  0.3327  0.6214
43981SOL    HW137263   0.977   9.641   8.433  3.2842  1.2177 -1.5497
43981SOL    HW237264   0.941   9.538   8.328  0.2602  0.5290  0.0651
43982SOL     OW37265   3.284   7.180   4.152  0.2783 -0.3650  0.6270
43982SOL    HW137266   3.214   7.168   4.089  0.5725  0.0501  0.2203
43982SOL    HW237267   3.302   7.274   4.153  1.9035 -0.6175 -0.4659
43983SOL     OW37268   2.452   9.493   6.041  0.1418  0.4959  0.4873
43983SOL    HW137269   2.424   9.495   6.132  0.5016  0.6355  0.5961
43983SOL    HW237270   2.370   9.493   5.991 -0.0560  0.4209  0.8072
43984SOL     OW37271   0.430   2.048   3.391  0.1162 -0.2226  0.2849
43984SOL    HW137272   0.404   2.095   3.312  0.4885 -1.9930 -0.9595
43984SOL    HW237273   0.514   2.087   3.416  0.2854 -0.0444 -0.5560
43985SOL     OW37274   9.628  11.800   8.509 -0.4998  0.2697  0.4343
43985SOL    HW137275   9.575  11.724   8.485 -1.4394  1.1055 -0.2622
43985SOL    HW237276   9.644  11.845   8.426  2.8839 -0.8810  0.3538
43986SOL     OW37277   3.777   2.742   6.402 -0.2394  0.2420  0.2692
43986SOL    HW137278   3.833   2.700   6.467 -0.5262 -0.5991 -0.0209
43986SOL    HW237279   3.698   2.688   6.399 -0.5338  0.6869 -0.2576
43987SOL     OW37280   9.342   5.142  11.769 -0.4063 -0.5622 -0.1995
43987SOL    HW137281   9.280   5.151  11.697 -1.1124  2.8462  0.6331
43987SOL    HW237282   9.400   5.070  11.743 -1.8172 -0.7592 -3.1970
43988SOL     OW37283   0.086   0.182   0.687  0.4537  0.1595  0.1378
43988SOL    HW137284  -0.003   0.216   0.677  0.8312  1.3652  0.6009
43988SOL    HW237285   0.092   0.157   0.779  0.2033 -1.1218 -0.1872
43989SOL     OW37286   0.424   3.862   9.338 -0.0248 -0.1398  0.0500
43989SOL    HW137287   0.335   3.897   9.338  0.1512  0.3156  0.2479
43989SOL    HW237288   0.479   3.936   9.315  0.1054 -0.9756 -2.7004
43990SOL     OW37289   4.824   5.828   5.008 -0.3511  0.1967  0.1107
43990SOL    HW137290   4.788   5.874   4.933  1.8783  0.6722 -0.7351
43990SOL    HW237291   4.831   5.895   5.076 -1.4393 -0.0016  0.4253
43991SOL     OW37292   4.872   8.530   2.221  0.5105 -0.3055 -0.1368
43991SOL    HW137293   4.954   8.579   2.215 -0.3328  1.0467 -1.3222
43991SOL    HW237294   4.807   8.595   2.248 -0.3021 -1.2054  0.1317
43992SOL     OW37295   7.483   0.603   6.638  0.5546 -0.7291  0.5436
43992SOL    HW137296   7.523   0.689   6.625 -0.1218 -0.5739 -0.7184
43992SOL    HW237297   7.399   0.621   6.680 -0.8591 -0.4236 -2.1379
43993SOL     OW37298  10.906   6.354   1.905  0.1439 -0.1529  0.3551
43993SOL    HW137299  10.868   6.369   1.818  0.7427 -1.3516 -0.1519
43993SOL    HW237300  10.862   6.275   1.937  1.2562 -0.8318  0.2944
43994SOL     OW37301   2.363   3.947   8.599  0.4816 -0.6256 -0.1503
43994SOL    HW137302   2.288   3.919   8.546 -0.5748  0.5143  0.6774
43994SOL    HW237303   2.432   3.884   8.579 -0.9705 -2.2340 -0.2789
43995SOL     OW37304   8.565   2.934   9.022  0.0734 -0.6375 -0.6007
43995SOL    HW137305   8.481   2.892   9.005  0.8897 -2.3336 -0.6773
43995SOL    HW237306   8.580   2.920   9.116  0.0364  0.1176 -0.4800
43996SOL     OW37307   3.932  10.983   9.148  0.0711  0.4848 -0.0803
43996SOL    HW137308   3.928  10.986   9.053  0.7200  1.3928 -0.0950
43996SOL    HW237309   4.012  11.031   9.170  0.9116 -1.2324  0.8379
43997SOL     OW37310   8.514   1.755   5.759 -0.0797 -0.5592 -0.3500
43997SOL    HW137311   8.592   1.761   5.703 -0.3478  0.2920 -0.6589
43997SOL    HW237312   8.545   1.779   5.846 -0.2814  1.5219 -0.7805
43998SOL     OW37313   4.741  10.755   5.930 -0.1492  0.0317  0.6452
43998SOL    HW137314   4.699  10.698   5.994 -1.2044 -0.9504 -0.8470
43998SOL    HW237315   4.821  10.708   5.905 -0.1632  0.0174  0.6265
43999SOL     OW37316  11.723   7.493   7.947 -0.2943  0.3971 -0.1196
43999SOL    HW137317  11.654   7.448   7.994 -0.7637  0.2969 -0.8793
43999SOL    HW237318  11.747   7.433   7.876  0.8074  0.2899  0.3277
44000SOL     OW37319   4.376   4.651   1.765 -0.1429  0.0514 -0.1275
44000SOL    HW137320   4.325   4.639   1.844  0.2351  1.5704  0.3842
44000SOL    HW237321   4.370   4.567   1.719 -1.0391 -0.5830  1.0994
44001SOL     OW37322   1.669   6.847  10.340  0.5811  0.3607  0.1564
44001SOL    HW137323   1.609   6.921  10.327 -0.3400 -0.5689 -1.1028
44001SOL    HW237324   1.753   6.888  10.363 -0.0321  1.7712 -0.0239
44002SOL     OW37325   2.937   1.066   5.725 -0.4366  0.2895 -0.3853
44002SOL    HW137326   2.957   0.988   5.776 -0.1247  1.0375  0.6770
44002SOL    HW237327   2.873   1.114   5.778  1.3941  2.0820  0.3747
44003SOL     OW37328   2.347   3.634   3.944 -0.1059  0.0024 -0.2706
44003SOL    HW137329   2.312   3.645   3.856  1.2857 -1.7731 -1.1301
44003SOL    HW237330   2.281   3.672   4.002 -1.2545  0.8182 -2.0382
44004SOL     OW37331   6.702   9.660   2.922 -0.2991 -0.1999 -0.5092
44004SOL    HW137332   6.730   9.612   2.999 -2.6004 -1.2955 -0.2787
44004SOL    HW237333   6.625   9.708   2.950 -1.0345 -0.4118 -2.0409
44005SOL     OW37334   7.244   4.998   8.238  0.0156  1.0231 -0.7999
44005SOL    HW137335   7.161   5.000   8.189 -0.6551 -0.3962  0.2267
44005SOL    HW237336   7.302   5.055   8.188 -1.1299  0.8846 -2.3640
44006SOL     OW37337   5.938   1.352   8.837  0.1247  0.2905  0.0439
44006SOL    HW137338   5.960   1.395   8.920  2.0516  1.0167 -0.8101
44006SOL    HW237339   5.865   1.403   8.803  1.3684  1.9805 -0.2019
44007SOL     OW37340   8.781  10.703   8.963  0.0873 -0.3630 -0.0704
44007SOL    HW137341   8.747  10.633   8.907  1.3360 -1.5192  0.5209
44007SOL    HW237342   8.761  10.784   8.916 -3.0244 -0.9465  0.0784
44008SOL     OW37343   9.935   2.738   8.017 -0.1552 -0.5409  0.4961
44008SOL    HW137344   9.990   2.710   7.944  0.7431 -1.4715  1.4915
44008SOL    HW237345   9.938   2.834   8.015  0.5197 -0.5713 -0.1994
44009SOL     OW37346   7.906   7.440   3.537  0.8361  0.2010 -0.1958
44009SOL    HW137347   7.951   7.473   3.460 -0.6578  4.5515  0.5573
44009SOL    HW237348   7.961   7.467   3.611 -0.6641  1.4890  0.5010
44010SOL     OW37349  10.626   3.125   7.775 -0.2871 -0.4118 -0.0465
44010SOL    HW137350  10.570   3.056   7.810  0.2080 -1.5370 -1.4232
44010SOL    HW237351  10.565   3.197   7.757 -0.5859  0.2108  2.9192
44011SOL     OW37352   9.678  11.625   4.080 -0.3045  0.9684  0.1025
44011SOL    HW137353   9.584  11.622   4.062 -0.3181  0.1095  0.2993
44011SOL    HW237354   9.714  11.680   4.011 -1.2950  3.6293  1.5596
44012SOL     OW37355   9.530   9.945   5.197 -0.3541  0.0797  0.0356
44012SOL    HW137356   9.514   9.974   5.107 -0.2820  1.1268  0.3398
44012SOL    HW237357   9.447   9.960   5.242 -0.4346 -0.5825  0.1135
44013SOL     OW37358   1.946   0.857   1.508  0.4599  0.0140  0.2088
44013SOL    HW137359   1.901   0.843   1.424  1.3374 -1.8445 -0.0119
44013SOL    HW237360   1.889   0.816   1.573  0.9344 -0.7141  0.1752
44014SOL     OW37361   7.997   9.026   2.742  0.7345  0.1947  0.6878
44014SOL    HW137362   7.934   9.096   2.760 -1.5586 -1.6754  0.3630
44014SOL    HW237363   8.031   9.048   2.655 -1.0371  0.1936 -0.0457
44015SOL     OW37364   1.622   0.752   1.635 -0.3762 -0.4845  0.1225
44015SOL    HW137365   1.573   0.756   1.716 -0.4976  0.5879  0.0175
44015SOL    HW237366   1.711   0.729   1.662 -0.1966  0.7994  0.6750
44016SOL     OW37367   4.802   2.043  11.108  0.3701 -0.5845 -0.6469
44016SOL    HW137368   4.863   1.980  11.148 -1.0908 -0.9414  1.1607
44016SOL    HW237369   4.845   2.128  11.119  0.4660 -0.7959  0.8291
44017SOL     OW37370   3.545   1.232   1.155 -0.6515 -0.3195 -0.1595
44017SOL    HW137371   3.526   1.287   1.079 -0.6599  0.1181  0.1561
44017SOL    HW237372   3.638   1.210   1.145 -0.9059 -1.1459 -0.8542
44018SOL     OW37373   7.642   0.791   9.667 -0.0587  0.4757  0.0091
44018SOL    HW137374   7.690   0.710   9.684  0.9819  1.5283  2.6758
44018SOL    HW237375   7.707   0.850   9.629 -0.5724  0.3807 -1.0475
44019SOL     OW37376  10.290   9.666   1.875  0.2184  0.5997  0.3546
44019SOL    HW137377  10.205   9.661   1.831  0.6895  0.1455 -0.5431
44019SOL    HW237378  10.354   9.652   1.804  1.0064 -0.2262  1.2090
44020SOL     OW37379  10.238  10.580   2.253 -0.4823  0.0162 -0.0471
44020SOL    HW137380  10.157  10.620   2.222 -0.0340  2.1671  1.3377
44020SOL    HW237381  10.269  10.638   2.323  1.9169 -1.0801 -0.0781
44021SOL     OW37382   4.208   7.825   3.765 -0.1326 -0.6449 -0.5518
44021SOL    HW137383   4.208   7.733   3.740 -1.0124 -0.5554 -0.9221
44021SOL    HW237384   4.228   7.872   3.684 -2.2543 -0.3929 -0.9773
44022SOL     OW37385   5.427   8.869   6.996 -0.1241 -0.4743 -0.3918
44022SOL    HW137386   5.505   8.857   7.049 -0.2253 -1.6213 -0.4739
44022SOL    HW237387   5.376   8.789   7.010 -0.4789 -0.4931 -1.6535
44023SOL     OW37388   2.450   2.438   0.833  0.4267  0.6076 -0.1366
44023SOL    HW137389   2.378   2.448   0.770  0.4420  1.1460 -0.0671
44023SOL    HW237390   2.497   2.361   0.802 -0.8341 -0.4514  0.4638
44024SOL     OW37391   0.093   5.569   9.700  0.1397  0.1107  0.0042
44024SOL    HW137392   0.014   5.544   9.747 -0.2989  2.3050  0.5870
44024SOL    HW237393   0.063   5.588   9.611  0.1693  0.0809 -0.0124
44025SOL     OW37394   2.517   3.421   0.413  0.0716  0.0652  0.3470
44025SOL    HW137395   2.574   3.393   0.485 -1.4492 -0.5075  1.3731
44025SOL    HW237396   2.432   3.382   0.433  0.1270 -2.2448 -3.0316
44026SOL     OW37397   4.335   9.744   1.319  0.0238 -0.1933  0.3348
44026SOL    HW137398   4.279   9.703   1.386 -1.0295  0.6346 -0.0064
44026SOL    HW237399   4.358   9.829   1.356 -0.7534  0.3657 -0.4342
44027SOL     OW37400  10.120   6.062   8.908 -0.2645 -0.1390 -0.2576
44027SOL    HW137401  10.184   6.025   8.847  0.0081  0.7706 -0.5369
44027SOL    HW237402  10.157   6.146   8.933 -1.5480  0.6109 -0.7819
44028SOL     OW37403   1.447   5.790   6.781 -0.5949 -0.1075 -0.1663
44028SOL    HW137404   1.396   5.858   6.825  0.5140 -1.5547  3.8109
44028SOL    HW237405   1.523   5.837   6.746 -0.5138  0.9467  1.2943
44029SOL     OW37406   3.556   5.952  10.816  0.3270  0.3106 -0.3816
44029SOL    HW137407   3.474   5.995  10.841 -0.5828 -2.0380  1.0432
44029SOL    HW237408   3.552   5.946  10.721 -2.0767 -1.2728 -0.2750
44030SOL     OW37409  10.847   0.252   9.244  0.0353 -0.0983 -0.5469
44030SOL    HW137410  10.852   0.303   9.164 -0.8473 -0.3638 -0.7827
44030SOL    HW237411  10.909   0.294   9.303  1.3413 -0.4249 -1.6449
44031SOL     OW37412   2.691   9.692   0.121 -0.1240  0.1632 -0.0296
44031SOL    HW137413   2.641   9.664   0.044 -0.2498  0.3779 -0.0250
44031SOL    HW237414   2.687   9.787   0.119 -1.4662  0.1547  1.1351
44032SOL     OW37415  10.140   8.282  10.574  0.1268 -0.1152  0.3471
44032SOL    HW137416  10.065   8.246  10.526  1.4176  1.6695 -3.4138
44032SOL    HW237417  10.185   8.205  10.609 -0.4198 -1.7205 -2.2289
44033SOL     OW37418   6.380  10.168   3.696  0.6740  0.1938  0.3265
44033SOL    HW137419   6.381  10.120   3.778 -0.8693  0.8435  0.7686
44033SOL    HW237420   6.388  10.101   3.628  0.1167 -0.5311  0.9663
44034SOL     OW37421   5.780   7.455   1.228  0.0503  0.4004 -0.4863
44034SOL    HW137422   5.729   7.420   1.301 -1.9306  2.0809 -0.9973
44034SOL    HW237423   5.733   7.426   1.150  1.6462 -0.6078 -1.1286
44035SOL     OW37424   7.821   2.188   8.552  0.7062 -0.4777 -0.0934
44035SOL    HW137425   7.742   2.135   8.541  1.3839 -1.2292 -1.8557
44035SOL    HW237426   7.790   2.278   8.558 -0.3009 -0.7655 -0.7269
44036SOL     OW37427   4.900  10.198   5.669 -0.2250  0.0248 -0.1236
44036SOL    HW137428   4.986  10.223   5.635  0.2998  1.0401  1.7707
44036SOL    HW237429   4.903  10.103   5.676  0.6064  0.0239 -0.4132
44037SOL     OW37430  11.549   5.009   2.570 -0.1118 -0.4210 -0.4181
44037SOL    HW137431  11.453   5.004   2.562 -0.0729 -0.7518 -0.6860
44037SOL    HW237432  11.581   4.939   2.515  0.2343 -1.3344  0.9006
44038SOL     OW37433   5.541   3.404   6.819 -0.2417 -0.0095 -0.4451
44038SOL    HW137434   5.511   3.347   6.889  0.7163 -1.0835 -0.8827
44038SOL    HW237435   5.611   3.456   6.859 -0.0839 -0.2192 -0.4467
44039SOL     OW37436   4.427   6.307   8.606  0.8442  0.1848  0.6326
44039SOL    HW137437   4.332   6.308   8.616  0.1054 -2.0266 -3.8620
44039SOL    HW237438   4.451   6.397   8.585 -0.7291  0.2650 -0.9616
44040SOL     OW37439   5.337   1.017   1.859 -0.3452  0.4176  0.1531
44040SOL    HW137440   5.405   0.962   1.820 -1.6087 -0.5810 -0.7431
44040SOL    HW237441   5.382   1.067   1.927  0.9233 -1.4861  0.7724
44041SOL     OW37442  11.653   6.220   4.273  0.2381  0.2943  0.0470
44041SOL    HW137443  11.696   6.208   4.189  1.3790  0.6188  0.5601
44041SOL    HW237444  11.644   6.315   4.282 -0.2409  0.2463  0.1258
44042SOL     OW37445   8.182  10.492   2.463  0.6432 -0.1278 -0.5329
44042SOL    HW137446   8.121  10.465   2.394  0.0243 -0.9815  0.3212
44042SOL    HW237447   8.174  10.587   2.466  0.5868 -0.0838 -1.5392
44043SOL     OW37448  10.660  11.271   4.308  0.5018  0.2662 -0.1051
44043SOL    HW137449  10.674  11.275   4.213 -1.3049 -0.7533 -0.4676
44043SOL    HW237450  10.744  11.241   4.343  1.6180  1.8965 -1.2028
44044SOL     OW37451   2.431   3.729   8.402 -0.1721 -0.4384  0.1532
44044SOL    HW137452   2.494   3.743   8.332 -1.2633  1.6951 -0.4749
44044SOL    HW237453   2.346   3.745   8.362 -0.8334  0.6840  1.9017
44045SOL     OW37454   6.443   6.064   9.529 -0.1020  0.0562 -0.5411
44045SOL    HW137455   6.516   6.009   9.500 -1.0840 -1.4639 -0.2412
44045SOL    HW237456   6.417   6.026   9.613 -0.5306  1.2767 -0.0953
44046SOL     OW37457   8.282   6.701   8.921  0.1354  0.3257 -0.1105
44046SOL    HW137458   8.349   6.658   8.974 -0.9013  1.1634  1.9902
44046SOL    HW237459   8.278   6.790   8.955 -2.1305  0.2575 -0.0556
44047SOL     OW37460   9.773   7.517   1.897  0.6818 -0.3306  0.0303
44047SOL    HW137461   9.811   7.464   1.967  0.3077  0.1982  0.6440
44047SOL    HW237462   9.756   7.602   1.937 -1.3342 -0.5979 -0.1275
44048SOL     OW37463   5.844  10.170   4.986  0.0274 -0.5150  0.2225
44048SOL    HW137464   5.804  10.252   4.958  1.1326 -0.3380 -0.9253
44048SOL    HW237465   5.792  10.142   5.061 -2.2583 -0.3265 -1.1873
44049SOL     OW37466   5.862   5.150   6.490 -0.0272  0.3375  0.6950
44049SOL    HW137467   5.845   5.223   6.431  0.2218  1.4571  1.9516
44049SOL    HW237468   5.786   5.093   6.481 -0.0563  0.5495 -0.5724
44050SOL     OW37469  11.352   2.788  11.402 -0.2447  0.1607  0.2174
44050SOL    HW137470  11.386   2.704  11.372 -1.0552  0.2855 -1.1177
44050SOL    HW237471  11.417   2.819  11.465  2.4425  0.6184 -2.5255
44051SOL     OW37472   9.409   5.028   8.956 -0.0538 -0.3394 -0.4643
44051SOL    HW137473   9.385   5.065   9.041  0.2350 -0.1567 -0.4591
44051SOL    HW237474   9.476   5.088   8.922  2.9529 -2.5880  1.0248
44052SOL     OW37475   9.419   1.153   8.106 -0.0834 -0.4954 -0.3903
44052SOL    HW137476   9.424   1.161   8.011  0.4808  1.2390 -0.2511
44052SOL    HW237477   9.449   1.064   8.124  0.4204 -0.6392 -1.8044
44053SOL     OW37478  10.163   2.702   3.088 -0.1463  0.4944  0.3202
44053SOL    HW137479  10.107   2.724   3.013 -1.6786 -3.6109 -0.0165
44053SOL    HW237480  10.232   2.647   3.051  1.8511  2.1482  1.3767
44054SOL     OW37481   2.719   4.321   8.173  0.1562 -0.0709 -0.3049
44054SOL    HW137482   2.638   4.304   8.124 -2.0969  1.9564  2.4210
44054SOL    HW237483   2.765   4.386   8.119  0.4877 -1.8289 -2.2909
44055SOL     OW37484  10.600   3.757   8.027 -0.4965 -0.2548 -0.3433
44055SOL    HW137485  10.506   3.749   8.047 -0.9697 -0.7543 -2.4826
44055SOL    HW237486  10.628   3.667   8.010 -0.1338  0.0711 -1.6131
44056SOL     OW37487   3.521   5.672   8.349 -0.7014  0.2512  0.0467
44056SOL    HW137488   3.496   5.609   8.282  0.1107 -0.3385  0.2876
44056SOL    HW237489   3.617   5.670   8.349 -0.6285  1.9939 -0.4248
44057SOL     OW37490  11.741  11.651   9.755 -0.1472 -0.5082 -0.1366
44057SOL    HW137491  11.724  11.569   9.709 -2.2482 -0.1585 -0.0723
44057SOL    HW237492  11.659  11.670   9.801  1.7960 -0.9288  3.9351
44058SOL     OW37493   5.627   7.020   5.468  0.2529 -0.6137 -0.4004
44058SOL    HW137494   5.637   7.063   5.554  0.6112 -1.1357 -0.1788
44058SOL    HW237495   5.582   7.086   5.414 -1.1819 -0.7433  0.5618
44059SOL     OW37496   5.298   8.943   3.744 -0.0406  0.0933  0.1248
44059SOL    HW137497   5.214   8.925   3.702 -0.1635  0.2424  0.3071
44059SOL    HW237498   5.357   8.960   3.670 -0.5496  1.6221  0.0359
44060SOL     OW37499   4.042   5.669   8.931 -0.1309 -0.2517  0.3089
44060SOL    HW137500   4.035   5.656   9.026 -1.7738  2.2454  0.6235
44060SOL    HW237501   3.992   5.749   8.914  0.9070 -0.0989 -2.5628
44061SOL     OW37502   1.799   7.716   0.935  0.0879  0.1432 -0.4459
44061SOL    HW137503   1.738   7.790   0.934 -0.6071 -0.3883  0.5062
44061SOL    HW237504   1.799   7.683   0.846 -1.1798  0.0374 -0.4242
44062SOL     OW37505   9.850   4.469   4.587  0.5173 -0.5148 -0.2328
44062SOL    HW137506   9.824   4.483   4.677  3.0983  0.6659  0.4343
44062SOL    HW237507   9.771   4.483   4.535 -0.8556 -0.5663  1.7815
44063SOL     OW37508  10.910   8.844   4.597 -0.5585 -0.0474  0.9207
44063SOL    HW137509  10.819   8.826   4.623 -0.1382 -0.8701  1.8773
44063SOL    HW237510  10.929   8.929   4.636 -0.8254 -0.0146  0.9847
44064SOL     OW37511  10.906  10.319   9.865 -0.6365  0.5952 -0.1051
44064SOL    HW137512  10.963  10.320   9.942  0.2287  2.0314 -0.7291
44064SOL    HW237513  10.850  10.242   9.878  1.5934 -1.0469  0.4118
44065SOL     OW37514   0.747   4.292   0.532  0.4167 -0.1746  0.4918
44065SOL    HW137515   0.820   4.351   0.551  0.4348 -0.1762  0.4245
44065SOL    HW237516   0.721   4.313   0.443 -0.8555  1.1184  1.1218
44066SOL     OW37517  10.854  11.407   2.549  0.1163  0.2817  0.1683
44066SOL    HW137518  10.857  11.431   2.642  0.0698  2.2266 -0.2779
44066SOL    HW237519  10.876  11.314   2.547 -0.7240 -0.0095  2.1885
44067SOL     OW37520   4.470   2.000   6.963  0.7154 -0.0238 -0.1056
44067SOL    HW137521   4.549   2.055   6.968  1.7501 -1.4414 -0.2284
44067SOL    HW237522   4.425   2.030   6.884  2.6837 -1.1173 -1.7340
44068SOL     OW37523   4.229   0.965   4.358 -0.1183  0.5114  0.3737
44068SOL    HW137524   4.215   1.059   4.350 -0.7574  0.3664 -0.3692
44068SOL    HW237525   4.144   0.931   4.389  0.0657  0.1664  0.5014
44069SOL     OW37526   3.094   7.097  10.522  0.6220 -0.5877  0.1245
44069SOL    HW137527   3.092   7.120  10.615  1.4044  1.2403 -0.2693
44069SOL    HW237528   3.164   7.150  10.486 -1.5952  1.0261 -2.0738
44070SOL     OW37529   3.782   3.563   4.066  0.8707 -0.1786 -0.7354
44070SOL    HW137530   3.871   3.557   4.100  0.0178 -0.3041  1.6545
44070SOL    HW237531   3.749   3.473   4.068  0.0611  0.1331  0.2560
44071SOL     OW37532   3.408   3.250  10.213 -0.1637 -0.0300 -0.2004
44071SOL    HW137533   3.460   3.201  10.149 -0.0442  0.0638 -0.1766
44071SOL    HW237534   3.329   3.276  10.166  0.6530  1.4532 -0.8153
44072SOL     OW37535   9.457   6.262   2.010 -0.1301 -0.5397 -0.0682
44072SOL    HW137536   9.539   6.297   2.046 -1.7947  1.7964  1.8151
44072SOL    HW237537   9.478   6.243   1.919  2.5252 -0.1339  0.3537
44073SOL     OW37538   1.440   3.033   6.364  0.2939  0.5817 -0.3664
44073SOL    HW137539   1.498   3.078   6.302 -0.2213  0.0173 -1.2839
44073SOL    HW237540   1.364   3.009   6.311  0.0768 -0.3848  0.3682
44074SOL     OW37541   7.715   3.274   0.712 -0.1950 -0.1974 -0.2030
44074SOL    HW137542   7.713   3.368   0.695 -1.5618 -0.3896 -1.2490
44074SOL    HW237543   7.623   3.250   0.724  0.2430 -1.1671  1.5307
44075SOL     OW37544   9.548   4.420   5.187  0.1506 -0.0509 -0.0195
44075SOL    HW137545   9.600   4.493   5.152  0.3885  1.3837  3.0416
44075SOL    HW237546   9.478   4.408   5.123  1.6557  1.0020 -1.9882
44076SOL     OW37547   7.612   8.625   5.122 -0.2270  0.3341 -0.2743
44076SOL    HW137548   7.659   8.546   5.095  1.1547  0.3872  1.7888
44076SOL    HW237549   7.633   8.690   5.055  0.1174 -0.4961 -1.0003
44077SOL     OW37550   2.696   0.550   5.958  0.2131  0.8391 -0.1493
44077SOL    HW137551   2.671   0.592   6.040 -2.2165  0.5031 -0.6398
44077SOL    HW237552   2.744   0.472   5.985 -0.2331  0.9232  0.9425
44078SOL     OW37553   7.504   5.527   4.197  0.1141  0.3696  0.2244
44078SOL    HW137554   7.441   5.598   4.208  0.0955  0.2730  0.8079
44078SOL    HW237555   7.462   5.451   4.238  0.5376  0.2636  0.4701
44079SOL     OW37556   7.294   6.658   1.106  0.3271  0.0465  0.1316
44079SOL    HW137557   7.361   6.636   1.042 -0.5457 -1.4850 -0.3236
44079SOL    HW237558   7.302   6.753   1.119  2.3358 -0.0512 -0.1237
44080SOL     OW37559   2.930   8.391   8.506 -0.8956  0.1090 -0.3207
44080SOL    HW137560   2.878   8.338   8.446 -0.8231  1.4853 -1.6319
44080SOL    HW237561   2.873   8.462   8.533 -0.2036  0.7555 -0.5271
44081SOL     OW37562   2.675   0.818   8.679  0.0617  0.8246 -0.2185
44081SOL    HW137563   2.617   0.892   8.699 -1.0151 -0.4465  1.6619
44081SOL    HW237564   2.741   0.820   8.748 -0.2198 -0.1896  0.0943
44082SOL     OW37565   9.306   1.594   3.364  0.4397  0.3523  0.3178
44082SOL    HW137566   9.264   1.530   3.421 -0.2031  1.1899  0.8043
44082SOL    HW237567   9.233   1.635   3.316  1.0379 -1.2319 -2.1047
44083SOL     OW37568   4.660   8.461   9.799  0.5207  0.1340 -0.5561
44083SOL    HW137569   4.665   8.390   9.863 -1.2937 -0.4611 -1.0279
44083SOL    HW237570   4.626   8.535   9.847 -1.7175 -0.5648 -0.9555
44084SOL     OW37571   0.784   9.584   4.298  0.1642  0.4860  0.2080
44084SOL    HW137572   0.694   9.618   4.303  0.0377  0.2756 -0.4868
44084SOL    HW237573   0.814   9.608   4.210 -0.3475 -2.1079 -0.8030
44085SOL     OW37574   4.226  11.670  10.944  0.4489  0.4994  0.4613
44085SOL    HW137575   4.196  11.675  10.853  0.5325  1.6836  0.4851
44085SOL    HW237576   4.179  11.595  10.980  1.0440 -0.4938 -0.7770
44086SOL     OW37577  11.150   0.211  10.134 -0.4607  0.1868 -0.0616
44086SOL    HW137578  11.226   0.265  10.154  0.7616 -1.0938 -1.0438
44086SOL    HW237579  11.148   0.144  10.202 -0.2691 -0.2252 -0.4610
44087SOL     OW37580   8.032   8.708   9.102 -0.3628 -0.1983  0.2080
44087SOL    HW137581   8.020   8.627   9.053  0.4876 -0.1105 -0.1638
44087SOL    HW237582   8.085   8.684   9.178  1.0230  0.2301 -0.5954
44088SOL     OW37583  10.828  10.392   2.938 -0.1255  0.2117 -0.2365
44088SOL    HW137584  10.842  10.479   2.975  0.7332  0.3292 -0.8045
44088SOL    HW237585  10.906  10.376   2.884 -0.4725 -0.7290 -0.4790
44089SOL     OW37586   2.609   9.840   9.987  0.3352  0.0064 -0.4929
44089SOL    HW137587   2.543   9.875   9.927 -0.2185  0.3968  0.3243
44089SOL    HW237588   2.687   9.829   9.933 -0.4659 -0.7651 -1.5645
44090SOL     OW37589   8.414  10.219   9.277  0.9923 -0.0279  0.1548
44090SOL    HW137590   8.458  10.304   9.286 -0.4914  0.8748 -0.7663
44090SOL    HW237591   8.397  10.192   9.367  0.5032  1.1918  0.4496
44091SOL     OW37592   2.449   7.999   5.937 -0.2166 -0.1674  0.7309
44091SOL    HW137593   2.480   7.919   5.977 -0.0165 -0.9496 -0.8858
44091SOL    HW237594   2.527   8.053   5.925 -0.0413 -0.5376  0.1321
44092SOL     OW37595   0.893   9.448   9.622 -0.4514 -0.2405  0.2769
44092SOL    HW137596   0.932   9.495   9.549 -0.9245  0.6121  0.5651
44092SOL    HW237597   0.965   9.433   9.683 -0.5945  1.5445  0.9230
44093SOL     OW37598   6.413  11.020   3.507 -0.2398  0.8839 -0.0906
44093SOL    HW137599   6.367  11.060   3.433  1.2114 -0.0776 -1.5945
44093SOL    HW237600   6.405  11.083   3.577 -0.2105  2.6307 -1.5865
44094SOL     OW37601   1.149   7.836   0.738 -0.3862 -0.1016 -0.0269
44094SOL    HW137602   1.210   7.764   0.723  1.0521  1.0980 -0.2244
44094SOL    HW237603   1.154   7.888   0.657 -0.3537  0.9372  0.6261
44095SOL     OW37604   9.031   1.236  11.144  0.7055 -0.4278  0.2192
44095SOL    HW137605   9.081   1.156  11.158  0.9698 -0.1454  0.8891
44095SOL    HW237606   9.058   1.295  11.214  0.4923  0.2435 -0.2477
44096SOL     OW37607   0.397  11.216   3.508  0.4524 -0.0756  0.2859
44096SOL    HW137608   0.390  11.156   3.582  1.0691  0.5046  0.8203
44096SOL    HW237609   0.469  11.182   3.455 -1.5774 -1.9838 -1.4729
44097SOL     OW37610   1.491  10.232  10.192 -0.0170 -0.4389 -1.0094
44097SOL    HW137611   1.424  10.169  10.167 -0.5797 -0.6935  0.9349
44097SOL    HW237612   1.512  10.209  10.283  0.9361  1.1678 -0.7803
44098SOL     OW37613   1.827   4.054   0.363 -0.6669  0.1621  0.2940
44098SOL    HW137614   1.891   4.120   0.389 -0.2117  1.3512 -3.3483
44098SOL    HW237615   1.879   3.980   0.333 -0.9701  0.6378 -1.4875
44099SOL     OW37616   7.904   5.654   4.413  0.7199 -0.0421 -0.5927
44099SOL    HW137617   7.960   5.600   4.358  3.0437 -0.1241  1.6582
44099SOL    HW237618   7.962   5.724   4.444 -1.2281  1.6025 -0.4208
44100SOL     OW37619   3.151   9.934   5.229 -0.0167 -0.5338  0.7738
44100SOL    HW137620   3.122   9.884   5.153  2.2362 -2.5009  1.0858
44100SOL    HW237621   3.126   9.880   5.304 -2.0982  1.3179  1.5190
44101SOL     OW37622  11.057   7.007   4.190 -0.0833 -0.1023  0.1040
44101SOL    HW137623  11.029   6.977   4.276  0.7895  1.4594  0.9885
44101SOL    HW237624  11.150   7.029   4.201  0.4360 -1.2159 -1.6297
44102SOL     OW37625  10.360   1.892   9.341 -0.0922  0.0642  0.7147
44102SOL    HW137626  10.314   1.855   9.416 -0.9484  0.9406  0.6304
44102SOL    HW237627  10.447   1.851   9.344 -1.1747 -2.4844  0.2163
44103SOL     OW37628  11.588  10.657   6.888  0.5365  0.0460  0.2450
44103SOL    HW137629  11.542  10.630   6.808  0.6644 -1.3932  0.6311
44103SOL    HW237630  11.677  10.626   6.876  0.8183  0.7477  0.5092
44104SOL     OW37631   4.362   4.205  10.126  0.2240  0.5833  0.1210
44104SOL    HW137632   4.402   4.146  10.190 -2.1454  0.1996  1.3621
44104SOL    HW237633   4.330   4.146  10.057  1.0794  0.8202 -0.4998
44105SOL     OW37634   7.743   4.059   0.179  0.1692 -0.3182 -0.1826
44105SOL    HW137635   7.743   4.020   0.092  0.7436  1.0852 -0.8492
44105SOL    HW237636   7.659   4.035   0.217  0.3100 -1.7678 -0.7234
44106SOL     OW37637  10.625   4.683   5.143 -0.3844 -0.2435 -0.3722
44106SOL    HW137638  10.544   4.659   5.098 -0.9435 -2.3101  1.5205
44106SOL    HW237639  10.693   4.631   5.100 -0.5982 -0.7451 -0.1239
44107SOL     OW37640   6.439   8.777   6.510  0.2744  0.2109  0.2853
44107SOL    HW137641   6.359   8.740   6.471 -0.0713  2.7560 -1.6911
44107SOL    HW237642   6.509   8.743   6.454  0.1093  1.1833 -0.5526
44108SOL     OW37643   7.190   4.788   1.694 -0.4617 -0.0698 -0.1313
44108SOL    HW137644   7.232   4.804   1.609  0.4415  0.4793  0.3935
44108SOL    HW237645   7.202   4.870   1.742 -1.3584 -0.2214  0.3744
44109SOL     OW37646  11.416   0.322  11.249  0.4955  0.0007  0.2414
44109SOL    HW137647  11.335   0.315  11.301  0.1211 -0.1084 -0.3468
44109SOL    HW237648  11.484   0.289  11.307  0.3218  1.2281  1.1991
44110SOL     OW37649   6.107   8.433   8.527 -0.1847  0.3195 -0.2073
44110SOL    HW137650   6.089   8.339   8.516 -0.4167  0.2713  0.5357
44110SOL    HW237651   6.191   8.437   8.571 -2.1665  0.2478  4.1545
44111SOL     OW37652  11.028  10.222   5.981  0.1599  0.6024  0.3497
44111SOL    HW137653  11.069  10.151   6.030 -0.0238 -0.1608 -0.5759
44111SOL    HW237654  11.053  10.206   5.890 -2.2641  0.0405 -0.2746
44112SOL     OW37655  11.793   7.857  11.363 -0.4647  0.0342 -0.2530
44112SOL    HW137656  11.728   7.858  11.432 -1.5449 -0.7924 -1.2280
44112SOL    HW237657  11.860   7.796  11.394  0.0285  1.0979  0.8765
44113SOL     OW37658   4.437   1.692   7.590 -0.0027 -0.2528 -0.0591
44113SOL    HW137659   4.465   1.615   7.539  0.5872  0.3705 -0.7118
44113SOL    HW237660   4.494   1.691   7.667  0.2226 -0.3017 -0.2223
44114SOL     OW37661   6.801   3.703   7.241  0.2782  0.0644  0.2413
44114SOL    HW137662   6.758   3.683   7.158 -1.2605 -0.8015  1.1951
44114SOL    HW237663   6.851   3.623   7.262  0.8899  0.3840  0.0307
44115SOL     OW37664   3.088   9.778  11.324 -0.0590 -0.3418  0.0980
44115SOL    HW137665   3.077   9.725  11.245  0.4583  0.1894 -0.3364
44115SOL    HW237666   3.101   9.714  11.394 -2.1103 -0.8866  0.0398
44116SOL     OW37667  11.665   4.369   1.321 -0.4819 -0.2947 -0.3694
44116SOL    HW137668  11.744   4.352   1.371 -0.1345 -1.2946 -1.2307
44116SOL    HW237669  11.598   4.316   1.363 -0.9197  1.1374  0.8394
44117SOL     OW37670  10.103   2.055   3.603 -0.1163  0.4396 -0.0478
44117SOL    HW137671  10.021   2.024   3.566  0.8355 -1.7441 -0.5409
44117SOL    HW237672  10.138   1.979   3.650  0.9523  1.7304  1.3574
44118SOL     OW37673   2.517  10.976   4.502  0.5248 -0.4961  0.3566
44118SOL    HW137674   2.542  10.935   4.419 -0.8506 -1.2387  0.2854
44118SOL    HW237675   2.426  11.003   4.489  0.4750 -0.1077  1.4287
44119SOL     OW37676   8.174   4.736   7.576  0.1748 -0.4680 -0.0565
44119SOL    HW137677   8.245   4.711   7.518  0.5666  0.8028 -0.1547
44119SOL    HW237678   8.094   4.723   7.524  0.4002 -0.9073 -0.2986
44120SOL     OW37679   0.082   7.741   2.032  0.2450  0.2854  0.2622
44120SOL    HW137680   0.023   7.688   2.085 -1.0043  1.3939  0.0304
44120SOL    HW237681   0.061   7.718   1.941  1.6741 -0.8609  0.1808
44121SOL     OW37682   7.221   4.450   8.886  0.0318  0.6791 -0.3736
44121SOL    HW137683   7.231   4.394   8.809  0.2744  0.3615 -0.1146
44121SOL    HW237684   7.267   4.531   8.864  1.3649  0.0511 -0.0207
44122SOL     OW37685  10.080   7.293   6.650  0.1746 -0.3368 -0.3776
44122SOL    HW137686  10.168   7.319   6.622 -0.0497  3.3954  1.8010
44122SOL    HW237687  10.025   7.310   6.574  0.8434  0.9447 -0.6072
44123SOL     OW37688   0.389   4.862  10.249  0.3575  0.2324  0.4863
44123SOL    HW137689   0.470   4.908  10.228  0.4582 -0.3187 -0.3962
44123SOL    HW237690   0.324   4.899  10.189  0.4390 -0.7421 -0.2281
44124SOL     OW37691   6.590   1.423   6.303  0.0449 -0.5440  0.3753
44124SOL    HW137692   6.591   1.332   6.333  0.3091 -0.7723 -0.3063
44124SOL    HW237693   6.643   1.470   6.367  1.0276 -1.1150  0.0024
44125SOL     OW37694  10.452   1.044  10.290 -0.7144  0.0403 -0.0032
44125SOL    HW137695  10.459   1.020  10.198  1.0420 -0.0327  0.1213
44125SOL    HW237696  10.392   0.978  10.327 -1.9897  0.4796 -1.1934
44126SOL     OW37697   6.846   3.333   6.797 -0.3435 -0.2958 -0.0633
44126SOL    HW137698   6.766   3.301   6.755 -0.3417  2.3180 -2.3611
44126SOL    HW237699   6.916   3.279   6.761 -0.8271 -1.3891  0.5663
44127SOL     OW37700   5.895   8.736   1.061 -0.3048 -0.0134  0.3477
44127SOL    HW137701   5.832   8.669   1.035  0.8966 -1.5590  1.1797
44127SOL    HW237702   5.897   8.730   1.157 -0.9537  2.0063  0.5338
44128SOL     OW37703   0.209   4.591   9.675  0.5544 -0.3943 -0.1557
44128SOL    HW137704   0.261   4.632   9.743  0.1980 -0.1713 -0.0174
44128SOL    HW237705   0.212   4.497   9.695 -0.1031 -0.2704  0.5584
44129SOL     OW37706   0.808  10.748  10.443  0.4887  0.3426 -0.1195
44129SOL    HW137707   0.749  10.806  10.395  0.4464  0.8529  0.5372
44129SOL    HW237708   0.884  10.802  10.463  0.2958  0.2875  0.8104
44130SOL     OW37709   0.590   0.101   8.393  0.0197 -0.0946  0.0048
44130SOL    HW137710   0.567   0.184   8.352  1.3099  1.1224  1.5658
44130SOL    HW237711   0.523   0.088   8.460 -0.5855 -0.7099 -0.7028
44131SOL     OW37712   3.211   7.236   9.364 -0.3594 -0.1217  0.4465
44131SOL    HW137713   3.147   7.183   9.413 -1.1562  0.8900  0.5389
44131SOL    HW237714   3.247   7.295   9.430  0.1617 -0.2096  0.2408
44132SOL     OW37715  11.493   0.270   9.264  0.1563  0.1428 -0.1292
44132SOL    HW137716  11.458   0.237   9.347  1.0207 -1.0907 -0.2236
44132SOL    HW237717  11.586   0.286   9.282 -0.0345  1.6835 -0.3639
44133SOL     OW37718   9.826   2.833   3.174  0.1393 -0.3743 -0.5253
44133SOL    HW137719   9.731   2.842   3.163  0.1453 -0.1211 -0.3917
44133SOL    HW237720   9.846   2.746   3.139 -0.0146 -0.0827 -1.3790
44134SOL     OW37721   3.959   2.880  11.246 -0.2720  0.0331 -0.1751
44134SOL    HW137722   3.869   2.898  11.271 -0.4126  0.5079 -1.0030
44134SOL    HW237723   3.988   2.814  11.309 -1.7122 -1.3401 -0.8752
44135SOL     OW37724   3.761   4.993   1.769 -0.1719 -0.3002 -0.5981
44135SOL    HW137725   3.806   5.001   1.853  2.1114  0.6673 -1.8080
44135SOL    HW237726   3.774   4.902   1.744 -2.6290 -1.1771  0.9113
44136SOL     OW37727   2.110   7.731   5.458  0.4811 -0.7922 -0.1468
44136SOL    HW137728   2.094   7.814   5.502 -1.9193 -1.7827  1.0464
44136SOL    HW237729   2.151   7.676   5.526 -0.6719 -1.4550  0.0476
44137SOL     OW37730   3.536   1.988   1.859  0.0161 -0.0729  0.0578
44137SOL    HW137731   3.465   2.041   1.824  0.0474 -0.0737 -0.0080
44137SOL    HW237732   3.505   1.898   1.850 -0.3804 -0.0297  0.9324
44138SOL     OW37733   7.938   3.256   2.123 -0.2543  0.1215  0.2907
44138SOL    HW137734   8.009   3.216   2.072 -1.2670 -1.3571 -0.0112
44138SOL    HW237735   7.968   3.249   2.214 -1.3102 -3.5889  0.5422
44139SOL     OW37736   1.290   1.451   9.801 -0.3778 -0.3473 -0.1146
44139SOL    HW137737   1.383   1.434   9.815 -0.5372 -0.5112  0.7841
44139SOL    HW237738   1.274   1.419   9.712 -0.0335 -2.3009  0.4743
44140SOL     OW37739  10.937   9.041  11.632  0.0812  0.2610  0.2589
44140SOL    HW137740  11.008   8.978  11.618 -0.0361  0.4533 -1.3240
44140SOL    HW237741  10.977   9.110  11.684  0.4713 -0.6419  1.1985
44141SOL     OW37742   3.752   3.773   4.280 -0.3940 -0.0125 -0.0412
44141SOL    HW137743   3.733   3.700   4.222 -0.4816 -1.4407  1.6948
44141SOL    HW237744   3.847   3.773   4.289 -0.3425  0.5244 -0.5743
44142SOL     OW37745   7.314  11.067   5.334 -0.4705 -0.3908 -0.5274
44142SOL    HW137746   7.363  11.130   5.282  0.7102 -0.1808  0.7957
44142SOL    HW237747   7.338  10.981   5.298 -0.2885 -0.2159 -0.8254
44143SOL     OW37748   8.627  10.440   4.942  0.4330 -0.2077 -0.0389
44143SOL    HW137749   8.690  10.508   4.917 -0.3482  0.2888 -0.7417
44143SOL    HW237750   8.604  10.461   5.033 -0.3771  0.9705 -0.4850
44144SOL     OW37751   9.095   8.259  10.223 -0.4041 -0.4905  0.1949
44144SOL    HW137752   9.138   8.334  10.181 -2.4176 -0.4065 -1.9836
44144SOL    HW237753   9.142   8.183  10.191 -0.0056 -0.2890  0.2891
44145SOL     OW37754  10.955   2.005   7.851  0.2947  0.0023  0.0891
44145SOL    HW137755  10.949   2.094   7.887  1.1523  0.3021 -0.4837
44145SOL    HW237756  11.038   1.971   7.886  1.4619  0.5155 -2.0154
44146SOL     OW37757   1.463   1.462   7.597 -0.7492  0.0150 -0.0477
44146SOL    HW137758   1.397   1.420   7.652  0.0605  0.1760  1.0751
44146SOL    HW237759   1.544   1.416   7.617 -0.5382 -0.3619 -1.6149
44147SOL     OW37760   8.500   1.684   8.071  0.1479 -0.4457  0.2315
44147SOL    HW137761   8.574   1.626   8.089  0.1166  0.4104  3.9485
44147SOL    HW237762   8.533   1.745   8.005  2.1622 -1.1644  0.4937
44148SOL     OW37763  10.099   2.168   5.440  0.4123 -0.2821  0.2400
44148SOL    HW137764  10.010   2.150   5.471  0.5511 -0.2327  0.6743
44148SOL    HW237765  10.087   2.215   5.358  0.0321  0.3596  0.6531
44149SOL     OW37766  10.982   0.238   7.305  0.2386  0.2888 -0.9605
44149SOL    HW137767  11.044   0.178   7.347 -0.5392 -0.4775 -0.8887
44149SOL    HW237768  10.988   0.217   7.212 -0.9573 -0.8157 -0.8168
44150SOL     OW37769   1.010   1.435   8.527  0.4448 -0.1408  0.1577
44150SOL    HW137770   0.977   1.478   8.605 -1.0617  0.4495 -0.7706
44150SOL    HW237771   1.054   1.357   8.560 -0.5839 -0.1641  1.5743
44151SOL     OW37772   7.532  11.312   6.235  0.0370  0.6152  0.0735
44151SOL    HW137773   7.510  11.286   6.324 -0.2453  0.6353  0.0113
44151SOL    HW237774   7.453  11.355   6.202 -0.0777  0.0780 -0.3874
44152SOL     OW37775   2.870   2.652   4.783 -0.3688 -0.5442 -0.7333
44152SOL    HW137776   2.875   2.729   4.839 -1.2755  0.4985 -2.0543
44152SOL    HW237777   2.777   2.634   4.773 -0.3171  0.1390 -2.9941
44153SOL     OW37778   0.269   1.109   0.121 -0.2946  0.3349 -0.8731
44153SOL    HW137779   0.360   1.095   0.144 -0.2984 -0.0973 -1.1202
44153SOL    HW237780   0.272   1.166   0.044 -0.2126 -0.2399 -1.2983
44154SOL     OW37781   3.444   0.886   9.285 -0.2960  0.2489 -0.0116
44154SOL    HW137782   3.534   0.916   9.278 -0.6137  0.9498 -1.3190
44154SOL    HW237783   3.451   0.794   9.311  0.7682  0.4086  0.3037
44155SOL     OW37784  11.395   4.465   5.770  0.3384  0.1266  0.5787
44155SOL    HW137785  11.306   4.430   5.761  0.8280 -1.1039  0.4619
44155SOL    HW237786  11.416   4.500   5.684  0.6517 -1.2553  0.0716
44156SOL     OW37787  10.952   2.538  10.970  0.0741 -0.2043 -0.1122
44156SOL    HW137788  10.907   2.531  10.886 -1.7956 -0.9879  0.8931
44156SOL    HW237789  11.043   2.518  10.951 -0.8354 -3.7422 -1.4741
44157SOL     OW37790   0.721   6.993   9.249 -0.9105 -0.5522  0.1756
44157SOL    HW137791   0.769   7.023   9.172 -1.5699 -1.8399 -0.7701
44157SOL    HW237792   0.655   7.060   9.264 -0.8014 -0.3107 -0.3948
44158SOL     OW37793   5.456   4.919   5.742 -0.5461  0.2818  0.5744
44158SOL    HW137794   5.397   4.844   5.746  0.8710 -0.9980 -0.8986
44158SOL    HW237795   5.541   4.884   5.767  0.0891  1.4524  0.1285
44159SOL     OW37796   1.245   5.491   5.632  0.1455 -0.6550 -0.0808
44159SOL    HW137797   1.264   5.411   5.584  1.3473 -0.1167 -0.5491
44159SOL    HW237798   1.328   5.538   5.636 -1.0348  2.0050 -2.5455
44160SOL     OW37799   1.994   5.298   7.353 -0.0212  0.4930 -0.3941
44160SOL    HW137800   2.075   5.317   7.305  0.4820  0.8080  0.5421
44160SOL    HW237801   1.951   5.230   7.302  0.7952  0.3854 -0.9569
44161SOL     OW37802   0.804  10.153   9.865  0.3289 -0.1291  0.2607
44161SOL    HW137803   0.844  10.072   9.832 -1.0352 -0.9417  0.5134
44161SOL    HW237804   0.719  10.157   9.822 -0.7905 -0.3249  2.3295
44162SOL     OW37805   6.959   3.318   9.579 -0.4910  0.3446  0.0143
44162SOL    HW137806   6.957   3.411   9.554 -0.5410  0.9932  2.2203
44162SOL    HW237807   6.916   3.315   9.664  1.5885 -1.3082  1.1129
44163SOL     OW37808   2.828   9.164  10.864 -0.0036  0.1141  0.5690
44163SOL    HW137809   2.773   9.241  10.849 -0.1083 -0.2554 -1.0703
44163SOL    HW237810   2.918   9.198  10.863  0.0437  0.0661 -1.5742
44164SOL     OW37811   9.552   5.648  10.636  0.1746  0.1876  0.6693
44164SOL    HW137812   9.548   5.725  10.694 -1.4738  0.1807  0.5986
44164SOL    HW237813   9.600   5.679  10.559  0.7286  0.7385  1.2182
44165SOL     OW37814   0.659   0.385   8.725 -0.0800 -0.3453 -0.4744
44165SOL    HW137815   0.579   0.437   8.709  0.0064 -0.1309 -0.2308
44165SOL    HW237816   0.715   0.403   8.650 -0.2479 -0.4695 -0.6300
44166SOL     OW37817   1.606   7.405   7.120 -0.2256  0.2857 -0.2831
44166SOL    HW137818   1.695   7.437   7.102  0.1088 -0.0533  0.6964
44166SOL    HW237819   1.567   7.473   7.175 -1.3862  1.5262 -2.5072
44167SOL     OW37820   0.300   6.698   6.216  0.3991 -0.1481  0.0621
44167SOL    HW137821   0.382   6.649   6.231  0.3480 -0.3157 -0.2055
44167SOL    HW237822   0.325   6.767   6.155  0.2808 -0.3569 -0.2186
44168SOL     OW37823   0.284   7.905   8.616  0.2349 -0.1610  0.3800
44168SOL    HW137824   0.319   7.988   8.584  1.2776 -0.7550 -0.0750
44168SOL    HW237825   0.252   7.861   8.538  0.3571 -0.4908  0.5154
44169SOL     OW37826   0.910   1.831   1.778 -0.6380  0.1958 -0.3876
44169SOL    HW137827   0.954   1.826   1.693  3.9825  0.2961  1.7225
44169SOL    HW237828   0.901   1.925   1.795  1.0800  0.2589  0.3462
44170SOL     OW37829   0.077  10.601   8.529  0.4694 -0.2516  0.4575
44170SOL    HW137830  -0.009  10.612   8.570  0.2342 -0.3742 -0.0062
44170SOL    HW237831   0.064  10.537   8.460  0.6083  0.8029 -0.5827
44171SOL     OW37832   3.625   6.336  11.729  0.4583  0.1735  0.3749
44171SOL    HW137833   3.589   6.373  11.649 -0.0308 -0.0132  0.5058
44171SOL    HW237834   3.687   6.402  11.760  1.1413 -0.0464 -0.5018
44172SOL     OW37835   5.217  10.397   0.333 -0.0015  0.6776 -0.0626
44172SOL    HW137836   5.286  10.331   0.332  0.4844  1.1612  0.5744
44172SOL    HW237837   5.254  10.469   0.281  0.5611  1.4987  1.4284
44173SOL     OW37838   7.391   3.167   9.703  0.6763 -0.2701  0.1938
44173SOL    HW137839   7.486   3.159   9.703  0.6890 -0.5365  1.9975
44173SOL    HW237840   7.374   3.259   9.722  0.5321  0.2510 -2.1849
44174SOL     OW37841   9.440   9.195   0.766  0.3458  0.4437 -0.2027
44174SOL    HW137842   9.517   9.167   0.716 -0.0333 -1.0658  0.0010
44174SOL    HW237843   9.375   9.217   0.698  0.6258  0.7484 -0.3735
44175SOL     OW37844   1.688   4.494   0.951  0.1496 -0.1708 -0.3467
44175SOL    HW137845   1.689   4.421   0.889  2.0665 -0.4427 -0.0484
44175SOL    HW237846   1.775   4.534   0.943 -0.1961  0.8946  0.8765
44176SOL     OW37847   7.662  10.602   3.314  0.0465  0.2774 -0.5058
44176SOL    HW137848   7.599  10.670   3.337  0.9932  0.5533  1.5376
44176SOL    HW237849   7.632  10.525   3.362  1.5513  0.5864  1.0233
44177SOL     OW37850   9.970   9.118   7.179 -0.3028  0.1505  0.3777
44177SOL    HW137851  10.004   9.118   7.089  1.0047 -0.0687  0.8489
44177SOL    HW237852   9.885   9.074   7.172 -0.2831  0.2622 -0.7739
44178SOL     OW37853  10.332   6.987   9.054  0.2513  0.6126 -0.4322
44178SOL    HW137854  10.251   6.952   9.091  0.0414  1.7131  0.1885
44178SOL    HW237855  10.363   6.917   8.996  0.0998 -0.7901  1.0847
44179SOL     OW37856   1.960   1.867   8.394 -0.7512  0.1698  0.5033
44179SOL    HW137857   2.044   1.822   8.406 -1.4477 -1.2467  0.2432
44179SOL    HW237858   1.964   1.901   8.304  0.4253  2.1050  1.2179
44180SOL     OW37859   8.135   3.603   7.588 -0.5315  0.5978 -0.0788
44180SOL    HW137860   8.070   3.615   7.657  0.4318 -0.6703  1.0881
44180SOL    HW237861   8.115   3.517   7.550  0.4563  0.1862  0.3046
44181SOL     OW37862   2.927   7.836   6.991  0.1627  0.1907  0.5009
44181SOL    HW137863   2.972   7.797   7.066  0.1334  2.0524  1.5292
44181SOL    HW237864   2.993   7.838   6.922  0.7609  0.1822  1.0619
44182SOL     OW37865   4.260  10.072   4.043 -0.0368  0.3954  0.2986
44182SOL    HW137866   4.203  10.144   4.069  0.2754  0.3198  1.2295
44182SOL    HW237867   4.347  10.098   4.073  0.7493  1.1556 -2.3165
44183SOL     OW37868   3.903  10.425   7.400 -0.2323  0.4803  0.5281
44183SOL    HW137869   3.857  10.435   7.316  2.2081  2.4432 -0.7046
44183SOL    HW237870   3.867  10.495   7.455  1.7697  2.6604 -0.7669
44184SOL     OW37871   3.957   8.332   5.842 -0.0845 -0.4818 -0.1857
44184SOL    HW137872   3.993   8.350   5.929  0.2820  0.9365 -0.5994
44184SOL    HW237873   3.910   8.249   5.852  1.9453 -1.5897  0.7708
44185SOL     OW37874   3.705  11.138   8.620 -0.2644  0.1823  0.8347
44185SOL    HW137875   3.716  11.156   8.714 -0.4783 -0.6385  1.0207
44185SOL    HW237876   3.614  11.108   8.612 -0.0444 -0.3923  0.4669
44186SOL     OW37877   5.822   1.980   3.644  0.5877 -0.0641  0.1993
44186SOL    HW137878   5.729   1.955   3.642  0.2990  0.9726 -0.9761
44186SOL    HW237879   5.869   1.898   3.630 -0.0663 -0.8436  2.2626
44187SOL     OW37880   4.984   7.550   0.605  0.1487  0.0220  0.1103
44187SOL    HW137881   5.076   7.524   0.600  0.4641  0.6887  1.9053
44187SOL    HW237882   4.987   7.643   0.629 -0.9896 -0.0005  0.3638
44188SOL     OW37883   5.460   1.315   9.357 -0.0944 -0.3704 -0.2523
44188SOL    HW137884   5.431   1.238   9.307  2.0796  0.1440 -2.5503
44188SOL    HW237885   5.529   1.281   9.414 -0.6237 -0.4560  0.3531
44189SOL     OW37886   3.490   6.515   1.146 -0.2505  0.3765 -0.6307
44189SOL    HW137887   3.439   6.439   1.173  1.4377 -1.5545 -2.3999
44189SOL    HW237888   3.469   6.526   1.053  0.6330  1.1188 -0.7600
44190SOL     OW37889   1.821   8.300   8.780  0.2218 -0.2761 -0.5546
44190SOL    HW137890   1.802   8.393   8.796 -1.3954 -0.7944  0.8091
44190SOL    HW237891   1.840   8.264   8.866 -1.2799 -1.6507 -0.7615
44191SOL     OW37892   0.457   2.642  10.351  0.4941  0.1445  0.3345
44191SOL    HW137893   0.368   2.608  10.351  0.7034 -0.5636 -1.7959
44191SOL    HW237894   0.456   2.710  10.418 -1.7946  0.5092  0.0321
44192SOL     OW37895  11.507   4.837   4.262 -0.1145  0.6099  0.2157
44192SOL    HW137896  11.490   4.886   4.342 -0.8027 -1.6049  1.5071
44192SOL    HW237897  11.484   4.747   4.283  1.7099 -0.4464 -1.8284
44193SOL     OW37898   5.151   3.281   1.278 -0.2184  0.2625 -0.0032
44193SOL    HW137899   5.123   3.292   1.369 -1.2304  0.9288 -0.3826
44193SOL    HW237900   5.116   3.357   1.232 -1.4893 -1.0593 -1.3414
44194SOL     OW37901   1.649   0.536   3.284 -0.3993 -0.2658  0.0216
44194SOL    HW137902   1.568   0.587   3.292 -0.2254  0.1032 -0.5038
44194SOL    HW237903   1.718   0.602   3.280 -0.0662 -0.5810  0.5209
44195SOL     OW37904   5.481   8.377   9.876  0.6381 -0.1480  0.1991
44195SOL    HW137905   5.416   8.411   9.814  0.6954 -0.0461  0.1948
44195SOL    HW237906   5.429   8.343   9.949  0.6084  1.1047  0.7998
44196SOL     OW37907   0.930   1.040   7.732 -0.2161 -0.2482 -0.3964
44196SOL    HW137908   0.926   1.088   7.650 -0.4791  1.1355  0.3974
44196SOL    HW237909   0.858   0.976   7.726 -0.3548 -0.0268 -1.1570
44197SOL     OW37910   4.279  11.738   9.855  0.0548  0.3505 -0.1398
44197SOL    HW137911   4.198  11.686   9.847 -0.6170  1.3276  0.1581
44197SOL    HW237912   4.251  11.828   9.839  0.6315  1.0242  2.2547
44198SOL     OW37913   3.883   5.896   8.835  0.5788  0.0846 -0.3247
44198SOL    HW137914   3.870   5.881   8.741 -1.2013  1.6718 -0.4036
44198SOL    HW237915   3.923   5.983   8.839  0.2255  0.2140  0.4123
44199SOL     OW37916   9.447   3.086   9.277 -0.2092  0.5059 -0.2728
44199SOL    HW137917   9.373   3.049   9.325 -1.9315  1.5761 -1.9931
44199SOL    HW237918   9.460   3.027   9.203  1.6845 -0.4862  0.7562
44200SOL     OW37919   7.513   6.943   5.185 -0.1719 -0.0930 -0.0399
44200SOL    HW137920   7.565   7.021   5.206 -0.5642  0.2186 -0.2275
44200SOL    HW237921   7.529   6.884   5.258 -1.0522  0.7445  0.8604
44201SOL     OW37922   9.346   6.956   2.263  0.0869  0.7444  0.2443
44201SOL    HW137923   9.441   6.952   2.272  0.1077  1.1131  0.1944
44201SOL    HW237924   9.313   6.936   2.351  0.2456  2.2318  0.6639
44202SOL     OW37925   5.581  10.589   1.174  0.1235 -0.5330 -0.6066
44202SOL    HW137926   5.569  10.509   1.124 -0.0424  0.2471 -1.8623
44202SOL    HW237927   5.588  10.560   1.265  0.7127 -2.0207 -1.0901
44203SOL     OW37928   8.826   0.836   9.548 -0.6077  0.1269 -0.0719
44203SOL    HW137929   8.901   0.859   9.603 -0.5721 -0.5878  0.1927
44203SOL    HW237930   8.779   0.769   9.598  0.6533 -2.2433 -1.8480
44204SOL     OW37931   0.518   0.863   8.908  0.2106 -0.1438 -0.7875
44204SOL    HW137932   0.486   0.936   8.855  0.2625  0.5796  0.1374
44204SOL    HW237933   0.446   0.801   8.910 -0.3827  0.5393 -0.4305
44205SOL     OW37934  10.061   3.988  11.749 -0.0963  0.1129 -0.2806
44205SOL    HW137935  10.118   3.965  11.676 -0.3248 -1.5522  0.0281
44205SOL    HW237936   9.976   4.003  11.709 -0.0013  0.1684 -0.4634
44206SOL     OW37937  10.646   8.925   5.500  0.4775 -0.4371  0.2508
44206SOL    HW137938  10.739   8.930   5.480  0.9660  1.8931  2.5415
44206SOL    HW237939  10.607   8.999   5.453  0.1734 -0.1518  0.9381
44207SOL     OW37940   7.099   5.346  10.715 -0.5804  0.2101  0.3433
44207SOL    HW137941   7.176   5.327  10.662 -0.8810  0.0876 -0.0593
44207SOL    HW237942   7.096   5.275  10.779  0.3004  0.8512  1.1278
44208SOL     OW37943   2.002   1.629   9.582  0.0917  0.3056 -0.3271
44208SOL    HW137944   1.945   1.561   9.618  0.0518  0.8396  0.6935
44208SOL    HW237945   2.090   1.601   9.605  0.0472  0.8017  0.5150
44209SOL     OW37946   1.689   0.021   1.318 -0.3465  0.0441 -0.0679
44209SOL    HW137947   1.663   0.067   1.398  0.2148  0.1416  0.0608
44209SOL    HW237948   1.608  -0.017   1.285 -0.9456  1.6045 -0.4916
44210SOL     OW37949   6.447   3.703   1.880  0.3918 -0.3253  0.5130
44210SOL    HW137950   6.478   3.661   1.961 -2.4232 -0.4755  1.6358
44210SOL    HW237951   6.379   3.764   1.909 -0.2866  0.0605 -1.6947
44211SOL     OW37952   8.967   6.832   0.984 -0.4414  0.4876 -0.0413
44211SOL    HW137953   9.042   6.775   0.969  0.3211  1.6949 -1.0180
44211SOL    HW237954   8.903   6.776   1.028  0.6821 -0.8065  0.0270
44212SOL     OW37955   6.737   7.974   5.672  0.0684 -0.2266  0.1929
44212SOL    HW137956   6.825   7.987   5.707  0.3657 -0.4248 -0.4663
44212SOL    HW237957   6.702   8.063   5.662  0.3575 -0.1251  0.0641
44213SOL     OW37958   2.732   8.493   2.015  0.1969 -0.6580  0.0922
44213SOL    HW137959   2.793   8.567   2.006  2.0731 -2.2288 -0.8229
44213SOL    HW237960   2.698   8.501   2.104 -1.2267  2.4043 -0.5971
44214SOL     OW37961   9.603  10.544  11.547  0.1143  0.3488  0.3991
44214SOL    HW137962   9.680  10.496  11.577 -0.7186 -1.2369  0.1034
44214SOL    HW237963   9.591  10.613  11.612  1.5827  0.4269  0.6224
44215SOL     OW37964  11.672  10.876   0.338  0.3736  0.2222  0.2920
44215SOL    HW137965  11.696  10.936   0.268 -0.4281  1.2436  0.8650
44215SOL    HW237966  11.590  10.837   0.308  0.1816  0.4427  0.5307
44216SOL     OW37967   7.572   8.555  11.614 -0.5380  0.1137  0.8624
44216SOL    HW137968   7.582   8.558  11.709 -2.7333  0.3668  1.1296
44216SOL    HW237969   7.544   8.643  11.590  1.5275  0.5340 -0.2769
44217SOL     OW37970   5.995   6.799   0.430  0.1953 -0.3056 -0.0074
44217SOL    HW137971   6.029   6.710   0.442 -2.7283 -1.5875 -0.1707
44217SOL    HW237972   6.015   6.820   0.339  1.2696 -0.6206  0.1477
44218SOL     OW37973   9.229   4.024   9.686  0.4223 -0.2598 -0.4575
44218SOL    HW137974   9.155   3.988   9.735 -0.2471  1.1429 -0.3963
44218SOL    HW237975   9.235   3.970   9.607 -0.1923 -0.8402 -0.1102
44219SOL     OW37976   0.167   7.604   9.980 -0.1083 -0.4951 -0.1205
44219SOL    HW137977   0.212   7.545   9.919  0.8060 -0.4440  0.4786
44219SOL    HW237978   0.197   7.575  10.067  0.2731  0.7809  0.1893
44220SOL     OW37979   3.451   7.207   6.907  0.4087 -0.3953 -0.0013
44220SOL    HW137980   3.464   7.302   6.911  0.6118 -0.3042 -1.8503
44220SOL    HW237981   3.363   7.193   6.942 -0.3003  0.6993 -1.2286
44221SOL     OW37982  10.041   6.823   5.518  0.0818  0.0373 -0.3311
44221SOL    HW137983  10.023   6.848   5.608 -0.4849 -0.0235 -0.4245
44221SOL    HW237984  10.029   6.904   5.468 -1.5725 -0.3581 -0.6095
44222SOL     OW37985   8.487   9.033   7.079 -0.0326  0.0237  0.4165
44222SOL    HW137986   8.531   9.117   7.092 -0.4916  0.2570  0.4798
44222SOL    HW237987   8.425   9.048   7.007 -0.5606 -0.0822  0.8387
44223SOL     OW37988   3.067   4.692   6.190  0.0044  0.2607  0.1693
44223SOL    HW137989   3.134   4.676   6.124  0.9152  1.1954  0.8354
44223SOL    HW237990   3.069   4.614   6.246  0.6669  0.3520  0.2815
44224SOL     OW37991  11.466  10.938   8.903  0.2654 -0.0491  0.6528
44224SOL    HW137992  11.441  10.993   8.977  0.0379  0.1273  0.4475
44224SOL    HW237993  11.559  10.954   8.890  0.0041  1.0375 -0.0209
44225SOL     OW37994   0.053   3.927   8.230 -0.0849  0.0965  0.0428
44225SOL    HW137995  -0.021   3.885   8.273 -0.9556  1.0932 -0.4126
44225SOL    HW237996   0.096   3.857   8.181 -0.8700 -0.4543  0.1261
44226SOL     OW37997   4.379  11.437   6.088  0.2828 -0.4162  0.5520
44226SOL    HW137998   4.450  11.458   6.028 -0.2935  0.3622  0.1161
44226SOL    HW237999   4.345  11.522   6.116  0.0345 -0.7748  1.3700
44227SOL     OW38000   6.526   3.445   1.467 -0.4317  0.1607 -0.0172
44227SOL    HW138001   6.534   3.453   1.562 -1.3191 -0.8858  0.1616
44227SOL    HW238002   6.431   3.446   1.451 -0.2996 -0.0489 -0.8505
44228SOL     OW38003   2.090   5.463   0.984  0.0029 -0.6417 -0.3670
44228SOL    HW138004   2.161   5.399   0.971  0.8600  0.4718 -1.3406
44228SOL    HW238005   2.100   5.525   0.913 -0.9336  0.4898  0.4541
44229SOL     OW38006  11.294   8.637   2.353 -0.0996  0.3640 -0.4962
44229SOL    HW138007  11.316   8.635   2.260  0.9740 -0.6050 -0.2524
44229SOL    HW238008  11.270   8.547   2.374 -1.9995  0.9053 -0.1838
44230SOL     OW38009   3.759  10.854  10.417 -0.1976  0.5550  0.3179
44230SOL    HW138010   3.825  10.817  10.475 -0.6640 -2.1435 -0.7444
44230SOL    HW238011   3.684  10.871  10.475 -1.1442 -3.3477  0.4593
44231SOL     OW38012  10.815   4.297   2.040 -0.0708  0.4041  0.5336
44231SOL    HW138013  10.797   4.348   2.119  0.6380  0.4539  0.6746
44231SOL    HW238014  10.890   4.342   2.000 -0.5334  0.4807 -0.2566
44232SOL     OW38015  10.814   9.777   1.104 -0.9262  0.2435 -0.4161
44232SOL    HW138016  10.721   9.754   1.098 -0.9547  0.5251 -1.2138
44232SOL    HW238017  10.858   9.708   1.054 -0.6800 -0.0110  0.1460
44233SOL     OW38018   1.786   8.388   2.926 -0.8488 -0.2588  0.1360
44233SOL    HW138019   1.719   8.334   2.969  1.1026 -1.5861  1.6755
44233SOL    HW238020   1.825   8.438   2.997 -0.3277  0.6544 -0.7739
44234SOL     OW38021   0.302   8.651   9.145  0.1538  0.7693  0.3326
44234SOL    HW138022   0.238   8.715   9.175 -0.2188  1.7838 -2.3619
44234SOL    HW238023   0.261   8.608   9.070  1.1565 -1.3476  0.8909
44235SOL     OW38024   4.369   7.552   0.216  0.2990 -0.6315  0.5495
44235SOL    HW138025   4.320   7.475   0.186 -4.2613  1.2752  2.1655
44235SOL    HW238026   4.376   7.606   0.137 -3.0181  0.2474  0.7140
44236SOL     OW38027   9.825   0.786   3.909  0.0841  0.2491 -0.3061
44236SOL    HW138028   9.786   0.874   3.911  0.4520  0.4304 -0.8088
44236SOL    HW238029   9.913   0.798   3.945 -0.7856 -0.4321  2.2587
44237SOL     OW38030  11.597   6.818   2.233 -0.2393 -0.3586 -0.0121
44237SOL    HW138031  11.617   6.893   2.289 -1.0624 -0.1834  0.0615
44237SOL    HW238032  11.578   6.747   2.294  0.3343 -0.5780 -0.0812
44238SOL     OW38033   1.244   7.485   8.090 -0.2035  0.4570 -0.0191
44238SOL    HW138034   1.231   7.577   8.065 -0.9085  0.7613  1.3739
44238SOL    HW238035   1.173   7.439   8.045  0.8699  0.3749 -1.7139
44239SOL     OW38036   0.771  11.142  10.208 -0.7508 -0.6590  0.9856
44239SOL    HW138037   0.820  11.209  10.160  0.7616  0.2354  3.5778
44239SOL    HW238038   0.798  11.059  10.170 -4.0234 -0.0052 -3.5917
44240SOL     OW38039   8.651   8.496   7.047  0.5243 -0.0561  0.0900
44240SOL    HW138040   8.689   8.557   6.984 -1.3690  0.0723 -0.9924
44240SOL    HW238041   8.581   8.452   6.999 -0.2853 -0.7275  1.8027
44241SOL     OW38042   6.508   8.751   1.547 -0.5593 -0.5090  0.0922
44241SOL    HW138043   6.533   8.792   1.465 -0.0677  2.7314  1.6731
44241SOL    HW238044   6.574   8.684   1.563  0.8085  0.5437 -0.9620
44242SOL     OW38045   2.566  10.128   8.393  0.4301 -0.1420  0.0840
44242SOL    HW138046   2.547  10.217   8.423  3.1539  0.3442  0.6230
44242SOL    HW238047   2.661  10.123   8.392  0.5458 -1.5388 -4.4812
44243SOL     OW38048   4.493   6.200   5.285  0.0412 -0.3359  0.2424
44243SOL    HW138049   4.403   6.169   5.299 -0.5378  0.5855 -1.1900
44243SOL    HW238050   4.534   6.131   5.234 -0.5023  0.1044 -0.8371
44244SOL     OW38051   4.367  10.447  10.393  0.5053  0.1763  0.0263
44244SOL    HW138052   4.287  10.498  10.378 -1.1973 -2.1088  0.7573
44244SOL    HW238053   4.416  10.455  10.311 -0.2997  1.8813 -0.3324
44245SOL     OW38054   9.533   0.496   0.351  0.5419 -0.0404 -0.0715
44245SOL    HW138055   9.441   0.477   0.369  0.7268  0.0654  1.0732
44245SOL    HW238056   9.531   0.575   0.297 -0.0155  1.2747  1.7485
44246SOL     OW38057   4.810   0.470   9.364 -0.3540 -0.0139 -0.6943
44246SOL    HW138058   4.753   0.504   9.432 -2.1580 -1.1556 -1.5466
44246SOL    HW238059   4.899   0.491   9.393 -1.2051  2.3530  0.3929
44247SOL     OW38060   3.078   0.374   0.814  0.8264 -0.0921 -0.5243
44247SOL    HW138061   3.079   0.309   0.744 -0.3083 -2.0786  1.1658
44247SOL    HW238062   3.077   0.322   0.895 -1.8575  1.9449  0.9214
44248SOL     OW38063   8.639   8.896  11.724 -0.3280 -0.2837 -0.3600
44248SOL    HW138064   8.711   8.890  11.786 -0.7794  0.8133  0.2826
44248SOL    HW238065   8.616   8.805  11.705 -1.2374 -0.7021  2.3333
44249SOL     OW38066  10.544   1.026   6.800  0.1811 -0.1735  0.0858
44249SOL    HW138067  10.466   1.049   6.749  0.5047 -2.0746 -1.3849
44249SOL    HW238068  10.616   1.035   6.737  0.5204 -3.2440 -0.0964
44250SOL     OW38069   6.263   1.622   9.649 -0.2242 -0.3222  0.3189
44250SOL    HW138070   6.252   1.527   9.656 -0.3913 -0.2409  1.3529
44250SOL    HW238071   6.357   1.635   9.660 -0.0853 -0.4230 -0.6720
44251SOL     OW38072   2.134   6.146   8.090  0.2794  0.4766 -0.2750
44251SOL    HW138073   2.093   6.220   8.134 -0.2789  0.3725 -0.6128
44251SOL    HW238074   2.226   6.171   8.081  0.2985  0.6960  0.5223
44252SOL     OW38075  10.285  11.224   3.396 -0.1489  0.1716 -0.5341
44252SOL    HW138076  10.356  11.189   3.451 -1.2532  0.6554  1.2894
44252SOL    HW238077  10.278  11.316   3.422 -0.6354  0.4506 -1.6007
44253SOL     OW38078   3.687   8.099   0.941  0.2803  0.8141 -0.5556
44253SOL    HW138079   3.634   8.129   1.015  0.4524  0.1317 -0.1435
44253SOL    HW238080   3.684   8.171   0.878 -1.7735  0.5266 -0.8816
44254SOL     OW38081   6.918   6.036   5.224 -0.4468  0.1337 -0.4880
44254SOL    HW138082   6.842   6.088   5.200 -0.4004  0.9065  0.9278
44254SOL    HW238083   6.985   6.100   5.249  0.5926 -0.5385 -1.4485
44255SOL     OW38084   2.998   6.795   1.164 -0.8553 -0.2100 -0.3111
44255SOL    HW138085   3.062   6.739   1.121 -1.0744  0.6024 -1.7713
44255SOL    HW238086   3.042   6.879   1.174 -0.6949 -0.4528  1.4178
44256SOL     OW38087   2.360   7.296   3.042  0.2397  0.0191 -0.4257
44256SOL    HW138088   2.297   7.230   3.013 -2.6869  1.5993  1.8068
44256SOL    HW238089   2.312   7.378   3.037  2.1265  1.3230  1.4507
44257SOL     OW38090   1.607   8.383   7.253 -0.4627  0.2799 -0.1699
44257SOL    HW138091   1.547   8.347   7.187 -0.3447  1.1282 -0.7528
44257SOL    HW238092   1.694   8.370   7.214 -0.2645 -0.7944  0.5970
44258SOL     OW38093   8.870  10.413   0.827 -0.0937  0.7317 -0.5280
44258SOL    HW138094   8.852  10.379   0.740 -0.7932  1.3946 -0.6504
44258SOL    HW238095   8.791  10.461   0.851  0.0474  0.4615  0.5233
44259SOL     OW38096   1.721   7.359   8.815 -0.0506  0.4568  0.9594
44259SOL    HW138097   1.649   7.297   8.820  1.2588 -1.1317  0.6969
44259SOL    HW238098   1.721   7.388   8.724 -1.3551  1.7645  1.3265
44260SOL     OW38099   0.165   4.719   7.371  0.3864  0.0393  0.1190
44260SOL    HW138100   0.204   4.754   7.291  0.4132 -1.6165 -0.6279
44260SOL    HW238101   0.102   4.654   7.341 -0.6027  0.3469  1.4138
44261SOL     OW38102   9.427   1.824   4.878  0.7347 -0.5644  0.0023
44261SOL    HW138103   9.507   1.877   4.868  0.0620  0.3875 -0.4781
44261SOL    HW238104   9.356   1.886   4.864 -0.1064 -1.3012  0.9198
44262SOL     OW38105   7.504   8.334   2.463 -0.9538  0.2624  0.4495
44262SOL    HW138106   7.585   8.370   2.427 -1.2872 -1.6671 -2.6055
44262SOL    HW238107   7.532   8.255   2.509 -0.8971  0.9615  1.6680
44263SOL     OW38108   6.157  10.359   9.729 -0.0179 -0.7438 -0.3399
44263SOL    HW138109   6.194  10.271   9.727 -0.9857 -1.2595  1.8342
44263SOL    HW238110   6.063  10.346   9.730 -0.1753  0.2830  0.5751
44264SOL     OW38111   0.582   8.116   0.299  0.3656 -0.9042 -0.2410
44264SOL    HW138112   0.584   8.171   0.378 -0.4434 -1.3624  0.1119
44264SOL    HW238113   0.569   8.178   0.227 -1.2600 -0.6683  0.2194
44265SOL     OW38114  10.808   8.465   2.590  0.2015 -0.7644 -0.5748
44265SOL    HW138115  10.787   8.519   2.514 -1.0921 -0.0625  0.2499
44265SOL    HW238116  10.880   8.511   2.633  1.8094 -1.8132 -1.9963
44266SOL     OW38117   6.392   0.126   5.244 -0.3365 -0.1338 -0.2469
44266SOL    HW138118   6.478   0.144   5.280 -0.2206 -0.7823 -0.1853
44266SOL    HW238119   6.363   0.209   5.208  0.6489 -0.0898 -0.9654
44267SOL     OW38120   0.328   7.910   9.474  0.3512  0.0305  0.6114
44267SOL    HW138121   0.243   7.868   9.489  0.9898 -2.1167 -1.1880
44267SOL    HW238122   0.337   7.913   9.379  2.1347  0.5304  0.7636
44268SOL     OW38123   6.361   9.730  11.057  0.0829  0.2774 -0.2830
44268SOL    HW138124   6.382   9.776  10.976 -0.8285 -0.2733 -0.8569
44268SOL    HW238125   6.330   9.799  11.116  1.8853  0.8650  0.0512
44269SOL     OW38126   7.727   4.332   0.127  0.5381  0.3193  0.2446
44269SOL    HW138127   7.764   4.244   0.141  0.2433  0.3072  1.0376
44269SOL    HW238128   7.632   4.318   0.128  0.4901  0.4662 -0.9641
44270SOL     OW38129   6.664  10.976   0.924  0.3272 -0.0763  0.2651
44270SOL    HW138130   6.643  10.887   0.897  1.3822  0.0291 -0.9757
44270SOL    HW238131   6.753  10.991   0.892  0.4957  1.1233  1.2188
44271SOL     OW38132   5.798   1.850   7.873 -1.0538 -0.4790 -0.6888
44271SOL    HW138133   5.742   1.917   7.834  0.1858  1.2266  0.3084
44271SOL    HW238134   5.783   1.857   7.967  0.5685 -0.1986 -0.4228
44272SOL     OW38135   5.657   7.084   4.399 -0.1987  0.2206 -0.4537
44272SOL    HW138136   5.608   7.043   4.470 -0.9379  0.0887 -1.0310
44272SOL    HW238137   5.738   7.034   4.394  0.3467  0.8828  0.9816
44273SOL     OW38138   4.564  10.894   7.863 -0.3992 -0.5309 -0.6992
44273SOL    HW138139   4.558  10.974   7.810 -0.1422 -1.5667 -2.3579
44273SOL    HW238140   4.505  10.910   7.937 -0.7230  0.9876 -1.2440
44274SOL     OW38141  10.007   0.469   4.960  0.0200  0.6296 -0.1392
44274SOL    HW138142   9.918   0.436   4.948 -0.0509  0.7052  0.1792
44274SOL    HW238143   9.998   0.564   4.967 -0.0105  0.5470  1.1015
44275SOL     OW38144   1.319   3.211   9.403  0.1753 -0.5725  0.1973
44275SOL    HW138145   1.395   3.263   9.428 -0.5968  0.5325  0.2892
44275SOL    HW238146   1.342   3.175   9.318  0.6820 -0.0025  0.0859
44276SOL     OW38147   7.051   7.200   4.891 -0.3144 -0.0908 -0.1149
44276SOL    HW138148   7.021   7.119   4.933 -0.6122  0.4945  0.8186
44276SOL    HW238149   7.068   7.260   4.963 -0.4826  0.8267 -0.8165
44277SOL     OW38150   9.313   5.372  10.498  0.2109 -0.0562 -0.5338
44277SOL    HW138151   9.381   5.340  10.557  0.2483  1.4466  0.2707
44277SOL    HW238152   9.275   5.292  10.461  1.1021 -0.9870  0.4706
44278SOL     OW38153   7.588   0.900   6.660  0.0114  0.0260  0.7511
44278SOL    HW138154   7.557   0.896   6.570 -1.1576  1.5169  1.0542
44278SOL    HW238155   7.615   0.991   6.672  0.3339 -0.2001  1.8589
44279SOL     OW38156   4.238   5.164   2.974  0.2150 -0.4333 -0.5981
44279SOL    HW138157   4.290   5.095   2.932  0.6947 -0.2428 -0.3216
44279SOL    HW238158   4.287   5.244   2.959  1.2973 -0.5616  1.7152
44280SOL     OW38159  11.130   0.454   6.087  0.3949  0.3591 -0.3538
44280SOL    HW138160  11.049   0.444   6.037 -0.4108  0.4103  0.8935
44280SOL    HW238161  11.191   0.496   6.026 -0.1996 -0.5367 -1.6117
44281SOL     OW38162   1.205   7.522   9.026 -0.4755  0.1033  0.3796
44281SOL    HW138163   1.129   7.579   9.035 -0.7011  0.0370 -0.8782
44281SOL    HW238164   1.177   7.439   9.065 -0.3160  0.6921  1.7693
44282SOL     OW38165   3.477   7.165   2.576 -0.3483  0.4973  0.2233
44282SOL    HW138166   3.528   7.163   2.496 -2.0825  0.6371 -0.9353
44282SOL    HW238167   3.507   7.089   2.626  0.0144 -0.2060 -1.0311
44283SOL     OW38168   7.856   5.609   0.030 -0.3785  0.7332  0.3384
44283SOL    HW138169   7.915   5.684   0.025 -0.9478  1.1777  0.3236
44283SOL    HW238170   7.769   5.646   0.044 -0.7435  0.1103 -0.1964
44284SOL     OW38171   5.041   9.678   6.972 -0.5439  0.1630  0.2433
44284SOL    HW138172   5.043   9.761   7.019  0.3029 -0.1011  0.6996
44284SOL    HW238173   5.083   9.616   7.031 -2.3203 -0.8949  0.4502
44285SOL     OW38174   9.958   8.559   7.880 -0.0751 -0.2863  0.4749
44285SOL    HW138175   9.912   8.590   7.802 -0.1694  1.1126  1.0711
44285SOL    HW238176   9.908   8.481   7.907 -0.0979 -0.7295 -0.7811
44286SOL     OW38177   6.761   3.234   8.487  0.6349 -0.8098 -0.3132
44286SOL    HW138178   6.668   3.212   8.478 -0.1503  1.3224  1.7539
44286SOL    HW238179   6.780   3.287   8.409 -0.4330  0.3642  0.1992
44287SOL     OW38180  10.993   0.663  11.548  0.0086  0.4302 -0.4275
44287SOL    HW138181  10.932   0.620  11.608 -0.6282  0.6731 -0.8749
44287SOL    HW238182  10.987   0.611  11.467  2.0091 -0.8132  0.1684
44288SOL     OW38183   1.570   6.164   5.250  0.2345 -0.4220 -0.2695
44288SOL    HW138184   1.490   6.115   5.268  0.0447  0.4113  1.4691
44288SOL    HW238185   1.641   6.103   5.273  0.0160 -0.2518  0.9639
44289SOL     OW38186   1.421   6.482   0.835 -0.0620  0.0155 -0.3395
44289SOL    HW138187   1.501   6.534   0.833  1.5424 -2.2030  0.8313
44289SOL    HW238188   1.371   6.512   0.759  1.4461  2.0979 -0.6020
44290SOL     OW38189   9.691   7.304   0.248  0.4335 -0.9454 -0.1759
44290SOL    HW138190   9.765   7.249   0.274  0.3845 -0.3879  1.2126
44290SOL    HW238191   9.729   7.392   0.240  0.4574 -1.0831 -2.1013
44291SOL     OW38192  10.768   0.757   0.417  0.2410  0.3912  0.0021
44291SOL    HW138193  10.711   0.720   0.350 -1.0849  1.7875  0.3074
44291SOL    HW238194  10.826   0.685   0.441 -1.1166 -0.9743 -0.6194
44292SOL     OW38195  11.309   5.590   1.366  0.0372  0.3658 -0.0147
44292SOL    HW138196  11.321   5.648   1.441  1.0922  0.1162  0.0316
44292SOL    HW238197  11.313   5.502   1.403 -1.5271  0.2379 -0.0894
44293SOL     OW38198  11.616   2.542   5.508 -0.5522 -0.0879  0.2816
44293SOL    HW138199  11.552   2.613   5.523 -1.7717 -1.1441  0.2440
44293SOL    HW238200  11.680   2.580   5.448  0.2065  1.7721  2.1352
44294SOL     OW38201   0.320   5.709   6.668  0.1148 -0.5434 -0.0846
44294SOL    HW138202   0.281   5.783   6.715  0.8749 -0.6677  0.7598
44294SOL    HW238203   0.313   5.636   6.729  1.9117 -0.5069  0.2069
44295SOL     OW38204   2.583   4.241   3.986  0.1514 -0.2707 -0.2989
44295SOL    HW138205   2.625   4.163   4.022 -0.7034 -0.4877  0.2466
44295SOL    HW238206   2.494   4.239   4.020 -0.1731  0.4351 -1.0550
44296SOL     OW38207   8.497   1.913   7.662 -0.1153 -0.5167  0.2589
44296SOL    HW138208   8.429   1.918   7.729  0.4743 -2.2267  1.0326
44296SOL    HW238209   8.558   1.983   7.683 -0.1180 -0.8236  1.3104
44297SOL     OW38210   8.892   9.733   9.103 -0.3983  0.4306 -0.0385
44297SOL    HW138211   8.936   9.808   9.064  0.0078  1.0027  1.4877
44297SOL    HW238212   8.899   9.664   9.036  2.4336  0.6146 -0.0193
44298SOL     OW38213   3.679   6.820   2.595  0.3500  0.2760  0.0800
44298SOL    HW138214   3.629   6.738   2.590  2.8195 -1.2880 -0.4707
44298SOL    HW238215   3.741   6.815   2.523  1.6133  1.9418  0.9856
44299SOL     OW38216  10.230   5.669  10.776 -0.5507  0.3074  0.5885
44299SOL    HW138217  10.192   5.748  10.739 -0.3681 -0.7019 -1.9724
44299SOL    HW238218  10.320   5.693  10.799 -0.8183  1.0887  0.8444
44300SOL     OW38219  10.914   1.069   7.134 -0.2422  0.4143 -0.0728
44300SOL    HW138220  10.832   1.044   7.176 -0.6164 -0.3670 -1.2278
44300SOL    HW238221  10.898   1.158   7.102 -0.4198  0.4966  0.2402
44301SOL     OW38222  10.687  11.774   8.697 -0.0439 -0.0646 -0.2500
44301SOL    HW138223  10.647  11.691   8.722  1.6761 -1.1073 -0.8407
44301SOL    HW238224  10.700  11.768   8.603  0.3187  0.7958 -0.2688
44302SOL     OW38225   6.564   7.230   9.887  0.1064  0.2799 -0.0987
44302SOL    HW138226   6.606   7.218   9.802 -1.7988 -2.5923 -0.7588
44302SOL    HW238227   6.471   7.221   9.870 -0.3095 -0.8171  2.3056
44303SOL     OW38228   7.755   2.871  10.558  0.6013  0.1339 -0.7578
44303SOL    HW138229   7.802   2.954  10.560  0.5188  0.1663  0.9166
44303SOL    HW238230   7.664   2.896  10.546  0.3242  0.4568  1.5837
44304SOL     OW38231   0.064   1.290   4.095  0.1386  0.0334  0.2984
44304SOL    HW138232   0.120   1.247   4.031  0.7194 -1.2434  1.5953
44304SOL    HW238233   0.108   1.373   4.115  0.0873  0.3162 -0.7092
44305SOL     OW38234   7.417   6.082   1.118 -0.6958 -0.2463 -0.8683
44305SOL    HW138235   7.330   6.093   1.157 -1.1560 -0.3060 -1.8548
44305SOL    HW238236   7.457   6.011   1.169 -0.7810  0.5237  0.3137
44306SOL     OW38237   4.610   8.169   6.343  0.1212 -0.9339 -0.1899
44306SOL    HW138238   4.595   8.083   6.303  0.2930 -0.4822 -1.2595
44306SOL    HW238239   4.693   8.160   6.388 -0.4603 -1.6946  0.7795
44307SOL     OW38240   6.544   2.877   6.657  0.0056 -0.1321 -0.0998
44307SOL    HW138241   6.604   2.871   6.582  0.4481 -1.6029  0.3545
44307SOL    HW238242   6.491   2.798   6.652 -0.0328 -0.1974  1.0908
44308SOL     OW38243   1.374  10.469   7.658  0.2149  0.2702 -0.1597
44308SOL    HW138244   1.298  10.525   7.642  0.8270  1.1580 -0.0518
44308SOL    HW238245   1.350  10.384   7.621 -1.8668 -0.2751  2.1939
44309SOL     OW38246   4.344   9.906   8.010  0.7377 -0.7058 -0.2020
44309SOL    HW138247   4.374   9.972   8.073  2.9136 -0.1593 -1.6851
44309SOL    HW238248   4.287   9.849   8.061 -1.0699  2.1414  1.1958
44310SOL     OW38249   6.664   7.694   4.273 -1.1343  0.1400  0.1586
44310SOL    HW138250   6.573   7.665   4.270 -1.1506  0.2539 -1.2734
44310SOL    HW238251   6.701   7.665   4.189  0.5026 -1.0273  1.2287
44311SOL     OW38252   4.566   0.345   5.851 -0.0534 -0.0667  0.0592
44311SOL    HW138253   4.511   0.337   5.929 -0.3840  0.4913 -0.1084
44311SOL    HW238254   4.636   0.280   5.864 -0.1758 -0.0704  0.7579
44312SOL     OW38255   8.265   6.414   7.274 -0.0922  0.2229  0.2642
44312SOL    HW138256   8.338   6.353   7.266  0.2147  0.7051 -0.9143
44312SOL    HW238257   8.282   6.481   7.208 -2.5222 -0.5903 -1.3317
44313SOL     OW38258   3.169   3.252   6.679  0.1092  0.2706 -0.2994
44313SOL    HW138259   3.073   3.252   6.671  0.1125  0.2142 -0.3381
44313SOL    HW238260   3.186   3.210   6.763  0.0507  1.3867  0.2863
44314SOL     OW38261   5.069   4.493   3.493  0.4451  0.5965  0.3174
44314SOL    HW138262   5.152   4.494   3.445 -0.4145  0.4919 -1.2492
44314SOL    HW238263   5.005   4.466   3.428 -1.0301  1.9574  1.1419
44315SOL     OW38264   8.914   3.283   7.459  0.3005 -0.1988 -0.4379
44315SOL    HW138265   8.914   3.189   7.476  2.8812 -0.2069  0.0149
44315SOL    HW238266   8.823   3.304   7.441 -0.7136 -2.3941  1.4970
44316SOL     OW38267  10.848   6.894   0.521 -0.2217  0.3426 -0.0431
44316SOL    HW138268  10.785   6.903   0.593 -0.7593 -0.2634 -0.4265
44316SOL    HW238269  10.891   6.810   0.537 -0.9317 -0.1999 -0.8615
44317SOL     OW38270  11.065   6.325   8.901  0.2756 -0.1319  0.1489
44317SOL    HW138271  11.043   6.309   8.809  0.2227 -1.2192  0.3400
44317SOL    HW238272  10.995   6.383   8.932 -0.7267 -1.1894 -0.0421
44318SOL     OW38273   2.397   1.077   4.475  0.0646 -0.4321  0.5436
44318SOL    HW138274   2.484   1.116   4.468  0.2707 -1.0490 -0.6351
44318SOL    HW238275   2.368   1.099   4.563 -0.0057  2.7085 -0.1493
44319SOL     OW38276   9.182  11.242  10.700  0.4679 -0.1218  0.2941
44319SOL    HW138277   9.126  11.165  10.687 -0.1262  0.5519 -1.3768
44319SOL    HW238278   9.241  11.241  10.625  1.9334 -0.1412  1.4146
44320SOL     OW38279   8.926   7.281   1.530 -0.6490  0.4052 -0.5821
44320SOL    HW138280   8.855   7.250   1.586  0.3108  0.9032  0.9687
44320SOL    HW238281   8.926   7.220   1.456 -0.1738 -2.0614  1.3221
44321SOL     OW38282   2.927   1.546  11.052  0.3833 -0.0162  0.1077
44321SOL    HW138283   2.865   1.590  10.993  0.9907  1.2866  0.3939
44321SOL    HW238284   2.909   1.584  11.138  0.2309 -1.1105  0.5625
44322SOL     OW38285   8.655  11.548   8.893 -0.0727  0.3898  0.3515
44322SOL    HW138286   8.742  11.580   8.872  1.3372 -2.4729  1.2415
44322SOL    HW238287   8.613  11.619   8.940  2.0916  1.5493  0.6297
44323SOL     OW38288   8.520   1.234   5.023  0.3594  0.0909  0.3615
44323SOL    HW138289   8.492   1.169   5.088  1.6255 -0.5107  0.3306
44323SOL    HW238290   8.490   1.318   5.058 -2.4008 -0.5734 -0.1754
44324SOL     OW38291   8.729  11.209   5.982 -0.2360 -0.3361 -0.3218
44324SOL    HW138292   8.800  11.251   5.934 -1.4050  0.1078 -1.7282
44324SOL    HW238293   8.738  11.242   6.071  1.6447 -0.7304 -0.3239
44325SOL     OW38294   2.966   7.361  10.603 -0.2187 -0.0995  0.3176
44325SOL    HW138295   3.055   7.378  10.573 -0.4491  2.4917  0.8481
44325SOL    HW238296   2.958   7.412  10.684 -2.0584 -0.6013  0.4982
44326SOL     OW38297   5.320   0.585   7.607  0.0349 -0.4659 -0.7542
44326SOL    HW138298   5.259   0.651   7.640  0.0741 -1.2864  1.1264
44326SOL    HW238299   5.268   0.530   7.549 -0.8374 -0.6590  0.1717
44327SOL     OW38300   0.306  10.359  10.840  0.7162  0.4450 -0.4587
44327SOL    HW138301   0.288  10.369  10.934 -1.4213  0.9675 -0.8656
44327SOL    HW238302   0.307  10.449  10.806  0.4278  0.2082 -1.1025
44328SOL     OW38303   6.533  11.423   3.085 -0.0271 -0.4317 -0.0697
44328SOL    HW138304   6.551  11.494   3.023  1.6933 -0.7744 -0.0292
44328SOL    HW238305   6.570  11.454   3.168 -1.3866 -0.4123  0.5575
44329SOL     OW38306   3.974   6.493   1.234 -0.1983 -0.3760 -0.0625
44329SOL    HW138307   3.886   6.471   1.204  0.5347 -5.7068  0.7510
44329SOL    HW238308   4.030   6.477   1.158  0.3356  0.3627  0.1616
44330SOL     OW38309   4.304   5.203   0.389 -0.2408 -0.1599 -0.0283
44330SOL    HW138310   4.295   5.175   0.480 -1.6720 -0.1856 -0.1533
44330SOL    HW238311   4.346   5.289   0.395 -1.1635  0.2622  0.7257
44331SOL     OW38312  11.244   6.504   9.969 -0.3943 -0.1517  0.3682
44331SOL    HW138313  11.187   6.577   9.944  2.2301  1.5558 -1.2047
44331SOL    HW238314  11.265   6.460   9.887  0.0736 -1.0855  0.9730
44332SOL     OW38315   3.307   0.629   7.743 -0.5424  0.2069 -0.4357
44332SOL    HW138316   3.282   0.642   7.834  0.6621 -0.8869  0.0650
44332SOL    HW238317   3.401   0.612   7.745 -0.6735 -0.8522 -1.7748
44333SOL     OW38318   9.262   5.732   5.721 -0.1423 -0.3283  0.2409
44333SOL    HW138319   9.197   5.669   5.690 -2.1676 -0.1271  3.5439
44333SOL    HW238320   9.244   5.812   5.672 -0.4774 -1.0481 -0.8551
44334SOL     OW38321   6.959  10.165   0.111 -0.3459  0.8485 -0.2954
44334SOL    HW138322   7.044  10.164   0.154  0.3462  2.3754 -1.5526
44334SOL    HW238323   6.976  10.136   0.022 -1.1673  1.0047 -0.5182
44335SOL     OW38324   8.314   3.697   6.977  0.0507 -0.4322 -0.4149
44335SOL    HW138325   8.316   3.784   7.016 -1.2856 -1.0189  1.0646
44335SOL    HW238326   8.339   3.711   6.886  2.5405  1.1107  0.4061
44336SOL     OW38327   4.673   9.838  10.102 -0.2077  0.6214 -0.5368
44336SOL    HW138328   4.683   9.830  10.007 -0.7676 -1.8046 -0.4683
44336SOL    HW238329   4.722   9.763  10.137 -0.4925  1.1423  1.0560
44337SOL     OW38330   4.941   6.881   2.411  0.7218 -0.1644 -0.0658
44337SOL    HW138331   4.881   6.910   2.343  1.3968 -0.8795 -0.9957
44337SOL    HW238332   4.993   6.958   2.432  0.6654  0.0031 -0.5254
44338SOL     OW38333   9.708   4.365   1.891  0.2328  0.4220  0.0554
44338SOL    HW138334   9.645   4.310   1.937  1.0832  0.5632  1.4674
44338SOL    HW238335   9.792   4.341   1.929  0.8489  1.2922 -0.7233
44339SOL     OW38336   8.250   2.915   2.574  0.3115 -0.6058 -1.1716
44339SOL    HW138337   8.335   2.892   2.613 -0.5647  2.0455  2.8626
44339SOL    HW238338   8.273   2.961   2.494  2.6726 -0.4646 -0.5048
44340SOL     OW38339   8.420   6.084   0.273 -0.5466  0.4284  0.0210
44340SOL    HW138340   8.472   6.112   0.198  0.1626 -1.8362 -0.4040
44340SOL    HW238341   8.479   6.094   0.348  0.1548 -1.0155 -0.3018
44341SOL     OW38342   2.050   7.786   3.827 -0.0806  0.5893 -0.3486
44341SOL    HW138343   2.047   7.791   3.732 -1.2657  1.8428 -0.2782
44341SOL    HW238344   2.064   7.876   3.856  0.0909  0.2556  0.6646
44342SOL     OW38345   5.582   2.788   6.702 -0.1833  0.0121  0.1046
44342SOL    HW138346   5.668   2.747   6.711  0.5030  1.3947  0.0734
44342SOL    HW238347   5.599   2.871   6.658 -1.8298 -0.7440 -2.2094
44343SOL     OW38348   0.842   4.732   9.709 -0.2834 -0.3374  0.3665
44343SOL    HW138349   0.893   4.657   9.678 -0.0283  0.1565 -0.4501
44343SOL    HW238350   0.773   4.693   9.763 -0.2390 -1.1773 -0.1530
44344SOL     OW38351   2.365   5.004   5.752  0.1793  0.4365 -0.5825
44344SOL    HW138352   2.449   5.038   5.783 -0.3591  0.5353  0.8523
44344SOL    HW238353   2.303   5.026   5.822 -0.7165 -1.1356 -0.8346
44345SOL     OW38354   7.079   1.217   0.374 -0.2986 -0.4510 -0.1643
44345SOL    HW138355   6.987   1.194   0.380 -0.0013 -1.5950  0.2573
44345SOL    HW238356   7.108   1.225   0.465  0.2327 -1.0509 -0.2673
44346SOL     OW38357   5.913   8.410   1.857  0.2848 -0.4175  0.4713
44346SOL    HW138358   5.907   8.381   1.948 -1.5799  2.1880  1.3051
44346SOL    HW238359   5.884   8.334   1.806 -1.5993 -1.0248  2.2839
44347SOL     OW38360   3.296   1.163   9.112  0.6479  0.6042  0.5087
44347SOL    HW138361   3.207   1.146   9.080  1.0199 -0.0777 -0.1878
44347SOL    HW238362   3.294   1.131   9.202  0.6250 -0.9405 -0.0022
44348SOL     OW38363   7.465   1.447   8.116  0.8990  0.2673 -0.4967
44348SOL    HW138364   7.520   1.368   8.116 -0.1801 -0.5104 -1.5496
44348SOL    HW238365   7.375   1.414   8.114  0.4345  1.5279 -1.3146
44349SOL     OW38366  10.978  11.190   7.016 -0.3611 -0.1943  0.5303
44349SOL    HW138367  11.046  11.159   6.956  0.6292  0.8654  1.0697
44349SOL    HW238368  10.977  11.285   7.005 -1.8425 -0.1905  0.4688
44350SOL     OW38369   8.156   0.408   2.869  0.0754  0.1050  0.7759
44350SOL    HW138370   8.082   0.450   2.912 -0.5249  0.1172 -0.2409
44350SOL    HW238371   8.118   0.329   2.829  0.0286  1.4057 -1.9311
44351SOL     OW38372   3.101  11.124   2.315 -0.1045 -0.3066  0.4361
44351SOL    HW138373   3.109  11.209   2.359  0.9703 -0.5376  0.7304
44351SOL    HW238374   3.179  11.076   2.343 -0.6798 -1.3767  0.2378
44352SOL     OW38375   9.028   6.595   5.441 -0.5008 -0.6631 -0.3409
44352SOL    HW138376   8.935   6.575   5.449 -0.1219 -3.2935 -1.3724
44352SOL    HW238377   9.071   6.529   5.495  0.7974  1.1426  0.9604
44353SOL     OW38378   2.511   9.205   2.917  0.5793  0.5545 -0.4613
44353SOL    HW138379   2.485   9.113   2.926  2.5009 -0.0929 -0.9326
44353SOL    HW238380   2.520   9.237   3.007 -1.8218  0.8625 -0.2747
44354SOL     OW38381   9.132   4.565  10.463  0.2423 -0.2623  0.0639
44354SOL    HW138382   9.207   4.545  10.406  0.6998 -0.3297  0.6768
44354SOL    HW238383   9.172   4.589  10.547 -0.4091  0.2546  0.2304
44355SOL     OW38384   6.197   9.425   1.315  0.5694 -0.4864 -0.3148
44355SOL    HW138385   6.269   9.376   1.274  1.5695  0.4288  0.3264
44355SOL    HW238386   6.160   9.364   1.379  1.7730 -0.4486  0.4433
44356SOL     OW38387  11.032   6.662   4.749  1.0583 -0.1521 -0.2685
44356SOL    HW138388  11.081   6.678   4.668 -1.5780  1.0965 -1.7405
44356SOL    HW238389  11.021   6.749   4.788  0.5479 -0.4922  0.3661
44357SOL     OW38390   0.679   5.112   4.300 -0.1280  0.1537 -0.1072
44357SOL    HW138391   0.657   5.029   4.342 -1.0763  0.2851 -0.3165
44357SOL    HW238392   0.774   5.120   4.309  0.1495 -1.5504 -1.1621
44358SOL     OW38393   8.149   2.504   8.756  0.4243 -0.3817 -0.0441
44358SOL    HW138394   8.106   2.419   8.751  0.3006 -0.3378  0.2238
44358SOL    HW238395   8.199   2.511   8.674  0.2359 -0.6031 -0.1797
44359SOL     OW38396   3.575   5.453  11.100 -0.0563 -0.3667 -0.5398
44359SOL    HW138397   3.546   5.465  11.190  0.0935  0.5513 -0.6040
44359SOL    HW238398   3.653   5.508  11.092 -1.1144  1.0520 -1.7412
44360SOL     OW38399  10.127   6.755   2.560  0.3331  0.2670  0.1109
44360SOL    HW138400  10.097   6.842   2.585  0.9136  0.1374  1.3182
44360SOL    HW238401  10.050   6.699   2.569 -0.0237  0.6299 -0.6043
44361SOL     OW38402   5.770   4.668   0.422 -0.3778 -0.2501 -0.1984
44361SOL    HW138403   5.863   4.676   0.444 -0.2550 -0.2363 -0.7143
44361SOL    HW238404   5.729   4.635   0.502 -0.2063  1.3822  0.6009
44362SOL     OW38405   8.918   2.881   3.029  0.0220 -0.0738  0.3002
44362SOL    HW138406   8.911   2.798   2.981 -1.4560 -0.6251  1.3982
44362SOL    HW238407   8.874   2.945   2.972 -0.1686 -0.3646  0.1186
44363SOL     OW38408   4.890   0.335   5.089  0.0611  0.3207  0.0761
44363SOL    HW138409   4.935   0.380   5.162 -1.2588  0.7730  0.6357
44363SOL    HW238410   4.954   0.337   5.018  0.9163  1.0030  0.8260
44364SOL     OW38411   6.166   2.011   0.061 -0.5609  0.3352 -0.2797
44364SOL    HW138412   6.122   1.960  -0.007 -2.2067  1.0225  0.2169
44364SOL    HW238413   6.199   1.945   0.122 -0.7309 -0.2190 -0.7697
44365SOL     OW38414   7.251   3.427   3.984 -0.2890  0.4814  0.0276
44365SOL    HW138415   7.241   3.379   3.902  1.0430 -1.3931  0.8932
44365SOL    HW238416   7.243   3.361   4.052  0.1441  1.7419  1.3636
44366SOL     OW38417   7.327   4.227  10.386  0.2996  0.1985  0.5178
44366SOL    HW138418   7.268   4.284  10.337  1.6976  1.0324 -0.2597
44366SOL    HW238419   7.351   4.278  10.463  1.8652  0.8655 -0.3785
44367SOL     OW38420   2.030   6.443   2.017 -0.2137 -0.3286  0.3270
44367SOL    HW138421   1.946   6.430   2.062 -1.0527  2.5400 -0.2102
44367SOL    HW238422   2.096   6.430   2.084 -1.2113 -0.3771  1.3356
44368SOL     OW38423   9.284   8.451   5.582 -0.0384  0.4047  0.5633
44368SOL    HW138424   9.195   8.426   5.607  0.0809  0.1441  0.7341
44368SOL    HW238425   9.304   8.527   5.638 -0.0756  0.3289  0.6808
44369SOL     OW38426   3.370   1.700   7.343 -0.1721 -0.0457  0.1783
44369SOL    HW138427   3.429   1.764   7.384  0.9159 -0.3921 -0.8084
44369SOL    HW238428   3.343   1.742   7.261 -0.2640 -0.4302  0.0105
44370SOL     OW38429   9.947   8.224  11.625 -0.1388 -0.8419 -0.5382
44370SOL    HW138430   9.912   8.140  11.654 -1.0188  0.1899  1.5596
44370SOL    HW238431   9.916   8.233  11.535 -1.0573 -2.2047 -0.3917
44371SOL     OW38432  11.754   6.898  11.825 -0.0224 -0.4760  0.6597
44371SOL    HW138433  11.772   6.989  11.846  0.5367 -0.4653  0.1482
44371SOL    HW238434  11.802   6.881  11.744  1.8341 -1.8813  1.9454
44372SOL     OW38435   6.645   6.865   9.762 -0.1723 -0.1782  0.4085
44372SOL    HW138436   6.695   6.786   9.740 -1.1316 -1.2895  1.9970
44372SOL    HW238437   6.644   6.916   9.681  1.7123 -1.0963 -0.2419
44373SOL     OW38438   5.227   5.043   4.758  0.5679  0.0318  0.1028
44373SOL    HW138439   5.280   5.026   4.836  1.7830 -0.4903 -0.8021
44373SOL    HW238440   5.176   5.121   4.779 -0.1353 -0.8710  1.9117
44374SOL     OW38441   4.860   5.257   9.795 -0.2298 -0.4133  0.0682
44374SOL    HW138442   4.895   5.199   9.727 -0.5562  0.4736 -0.8843
44374SOL    HW238443   4.938   5.291   9.840  0.0664  0.1359 -0.8401
44375SOL     OW38444   1.371   9.357   6.268 -0.2293  0.2206 -0.0311
44375SOL    HW138445   1.337   9.430   6.216 -0.0053  1.2248  1.1907
44375SOL    HW238446   1.464   9.354   6.245 -0.2372  0.3296 -0.0791
44376SOL     OW38447   3.128   0.890   0.582  0.2032 -0.1541 -0.2104
44376SOL    HW138448   3.159   0.981   0.584 -0.4800  0.1226 -1.1815
44376SOL    HW238449   3.050   0.890   0.637  0.7971 -0.4069  0.6507
44377SOL     OW38450  10.588   7.026  10.298 -0.2069  0.1881 -0.0005
44377SOL    HW138451  10.563   7.055  10.210 -1.7074 -0.6165  0.1244
44377SOL    HW238452  10.540   6.945  10.310  0.4723 -0.0315  1.3409
44378SOL     OW38453   5.249   0.270   7.629 -0.2276 -0.3031 -0.1288
44378SOL    HW138454   5.268   0.322   7.551  0.4634 -1.5376 -0.8236
44378SOL    HW238455   5.324   0.285   7.687 -1.0149  1.0681  0.5794
44379SOL     OW38456  10.459   0.204   3.851  0.5630  0.0928 -0.2971
44379SOL    HW138457  10.443   0.131   3.911 -0.6154  1.3569  1.0289
44379SOL    HW238458  10.432   0.171   3.765 -1.5315 -0.5485  0.5352
44380SOL     OW38459  10.396   3.616   8.834 -0.1070  0.4629  0.2269
44380SOL    HW138460  10.445   3.551   8.784  1.9048  1.9067  0.1874
44380SOL    HW238461  10.449   3.632   8.912 -0.9368  1.4729  0.6085
44381SOL     OW38462   8.251   2.934   3.032  0.2460  0.0993 -0.4106
44381SOL    HW138463   8.164   2.905   3.060 -0.4252 -1.2812 -3.4348
44381SOL    HW238464   8.253   3.027   3.053 -1.3107 -0.1674  1.1699
44382SOL     OW38465   6.422   0.901  10.582 -0.2043  0.0160 -0.3320
44382SOL    HW138466   6.331   0.924  10.603 -0.6885  0.6330 -2.8497
44382SOL    HW238467   6.474   0.944  10.651 -1.7591 -0.0406  0.9301
44383SOL     OW38468   4.914   6.874  10.083 -0.2560  0.2203 -0.6044
44383SOL    HW138469   4.905   6.895  10.176  0.1956  1.5922 -0.8535
44383SOL    HW238470   4.913   6.778  10.080  1.3432  0.0987  0.9874
44384SOL     OW38471   3.923   3.694   7.852 -0.0399 -0.3715 -0.0595
44384SOL    HW138472   3.833   3.675   7.876 -0.1311  1.6435  1.4802
44384SOL    HW238473   3.975   3.668   7.929  0.4618  0.2123 -0.1907
44385SOL     OW38474   3.704  10.498   4.082  0.3314 -0.3842  0.3750
44385SOL    HW138475   3.685  10.487   4.175  1.0968 -1.1150  0.4541
44385SOL    HW238476   3.736  10.588   4.074 -0.8504  0.0735  0.6171
44386SOL     OW38477   9.015   8.269   8.649 -0.1368 -0.1518 -0.4866
44386SOL    HW138478   9.000   8.198   8.587 -0.1495  0.4897 -1.2352
44386SOL    HW238479   8.930   8.312   8.658 -0.4957 -1.1136  1.1204
44387SOL     OW38480   2.980   8.775   3.688  0.6074 -0.3325 -0.1760
44387SOL    HW138481   2.944   8.688   3.700  1.5462 -0.6176  0.7379
44387SOL    HW238482   3.002   8.779   3.594 -0.5714 -0.6125 -0.4715
44388SOL     OW38483   4.691   4.205   7.130  0.4271  0.2691  0.2413
44388SOL    HW138484   4.679   4.295   7.160 -0.3839  0.2341  0.0427
44388SOL    HW238485   4.684   4.210   7.035  0.5789  0.0265  0.2179
44389SOL     OW38486   4.327   1.075   1.588  0.0340 -0.0740 -0.1581
44389SOL    HW138487   4.296   1.099   1.501 -0.4055 -4.7792 -1.5991
44389SOL    HW238488   4.417   1.045   1.575  0.7759  1.1965  1.5316
44390SOL     OW38489   9.596   4.080   0.739  0.0701  0.0207 -0.9256
44390SOL    HW138490   9.628   4.119   0.657  1.1157  0.4704 -0.3189
44390SOL    HW238491   9.627   4.138   0.807  0.1845 -0.9620 -0.1181
44391SOL     OW38492   7.984   1.700   0.351  0.4421 -0.2547 -0.4383
44391SOL    HW138493   7.900   1.672   0.388 -0.7367  0.5238 -2.3459
44391SOL    HW238494   7.960   1.755   0.277  2.6710  0.6804 -0.5463
44392SOL     OW38495  10.060   9.593   1.232  0.2250  0.1230 -0.0700
44392SOL    HW138496  10.133   9.654   1.222 -0.7783  1.4587  0.4992
44392SOL    HW238497  10.077   9.549   1.315 -0.4986  1.6834  0.9225
44393SOL     OW38498   2.608   3.781   2.275 -0.0035 -0.2666  0.0312
44393SOL    HW138499   2.614   3.855   2.215  1.6898 -0.9259 -0.6822
44393SOL    HW238500   2.514   3.765   2.285 -0.3473  0.8217 -1.2492
44394SOL     OW38501   2.832   8.683   6.658 -0.3986 -0.3192  0.7524
44394SOL    HW138502   2.928   8.683   6.662 -0.4120  0.3276  1.1479
44394SOL    HW238503   2.809   8.769   6.624 -0.8057 -0.9078 -0.5163
44395SOL     OW38504   3.909   8.311   8.691 -0.1801 -0.2083 -0.1288
44395SOL    HW138505   3.828   8.361   8.681  0.4974  1.2160  1.0468
44395SOL    HW238506   3.968   8.371   8.736  0.8148 -1.9699  1.0133
44396SOL     OW38507   0.898   0.255   9.400  0.5918  0.5822 -0.0596
44396SOL    HW138508   0.877   0.258   9.493 -0.4447  0.4707 -0.2771
44396SOL    HW238509   0.918   0.346   9.377 -0.8685  0.9210 -0.0885
44397SOL     OW38510  10.877   8.468   4.447 -0.3767 -0.1028 -0.5740
44397SOL    HW138511  10.782   8.467   4.431 -0.5807  0.6779  0.5115
44397SOL    HW238512  10.907   8.548   4.404  0.0532 -1.0731 -2.1720
44398SOL     OW38513   7.234   6.509   0.354  0.4048 -0.0991 -0.4515
44398SOL    HW138514   7.258   6.441   0.291 -2.7139 -0.2662 -1.6437
44398SOL    HW238515   7.170   6.468   0.412 -0.6801  1.4460 -0.4778
44399SOL     OW38516  10.165   3.909   2.595  0.8815  0.8396  0.4528
44399SOL    HW138517  10.075   3.897   2.565  0.7978 -1.3061  1.4066
44399SOL    HW238518  10.158   3.914   2.691  1.5649  3.3461  0.4568
44400SOL     OW38519   1.868   7.287   7.281 -0.4606  0.2917  0.4066
44400SOL    HW138520   1.783   7.253   7.311 -0.0007 -0.3671  0.9847
44400SOL    HW238521   1.852   7.381   7.268 -1.5098  0.0227 -0.3615
44401SOL     OW38522   9.055   0.445   4.257  0.2659 -0.0596 -0.5035
44401SOL    HW138523   9.150   0.444   4.259  0.2850 -2.5058  0.3167
44401SOL    HW238524   9.028   0.380   4.322 -1.9888  0.8545 -0.4148
44402SOL     OW38525   9.074   0.489   2.794  0.1792  0.5125 -0.0231
44402SOL    HW138526   9.150   0.548   2.802  1.2249 -0.8906  0.9777
44402SOL    HW238527   9.012   0.537   2.740  1.5678  1.9377 -0.4358
44403SOL     OW38528   3.525  10.647   6.619  0.0902  0.2844  0.1055
44403SOL    HW138529   3.521  10.696   6.537  1.7230 -1.8712 -1.4081
44403SOL    HW238530   3.592  10.691   6.671 -1.0182  1.7180  0.3575
44404SOL     OW38531   4.098   6.811   1.625 -0.4566  0.5362  0.5365
44404SOL    HW138532   4.061   6.742   1.570 -0.6281  0.2380  1.0163
44404SOL    HW238533   4.053   6.891   1.595 -0.0849  0.4861 -0.1790
44405SOL     OW38534   8.010   9.596   8.287 -0.4583  0.3324 -0.4783
44405SOL    HW138535   8.101   9.592   8.261 -0.5214 -1.2100 -0.5455
44405SOL    HW238536   7.963   9.549   8.219 -1.0261 -0.7958  0.6476
44406SOL     OW38537   1.928   0.103   5.561  0.0354 -0.2623  0.0813
44406SOL    HW138538   1.914   0.183   5.611  0.1318  0.0034 -0.3059
44406SOL    HW238539   2.012   0.069   5.593 -0.3509 -0.5925  0.7449
44407SOL     OW38540   5.208   1.157   8.882  0.2772 -0.0858 -0.1571
44407SOL    HW138541   5.284   1.204   8.915  0.8063  0.1591 -1.6613
44407SOL    HW238542   5.170   1.116   8.959  1.0711  1.0047  0.8470
44408SOL     OW38543   7.175   9.005  11.309 -0.5284  0.2331  0.2920
44408SOL    HW138544   7.216   9.032  11.227  1.8534 -1.3201  0.8554
44408SOL    HW238545   7.243   9.019  11.376 -1.4905 -0.9282  1.5816
44409SOL     OW38546   0.394   4.014  10.343  0.0138 -0.3059  0.3345
44409SOL    HW138547   0.421   4.106  10.337 -0.9736  0.0528  1.2438
44409SOL    HW238548   0.447   3.978  10.414  0.9894 -0.6770 -0.5508
44410SOL     OW38549   8.264   9.963   8.476  0.0254  0.0420  0.5799
44410SOL    HW138550   8.255  10.048   8.433 -0.4793  0.4227  1.4150
44410SOL    HW238551   8.223   9.975   8.562  0.8519 -0.7512  1.1045
44411SOL     OW38552  11.442  11.092   2.233  0.4151  0.3293  0.0262
44411SOL    HW138553  11.355  11.094   2.192  0.5733 -0.6383 -0.3783
44411SOL    HW238554  11.499  11.138   2.171  0.1044  1.4888  0.5610
44412SOL     OW38555   4.373   1.705   3.510 -0.2154 -0.1031 -0.3358
44412SOL    HW138556   4.378   1.610   3.520  2.6951  0.1638  2.2149
44412SOL    HW238557   4.434   1.725   3.439  0.1465 -0.0530 -0.0112
44413SOL     OW38558   1.003   8.146   0.286 -0.3290  0.1039  0.1949
44413SOL    HW138559   0.933   8.206   0.308  1.6054  2.3765  0.5925
44413SOL    HW238560   0.968   8.093   0.214 -2.4868  0.9752  0.5408
44414SOL     OW38561   8.058   2.458   8.181  0.2608 -0.0556 -0.0170
44414SOL    HW138562   8.022   2.436   8.266 -0.3419  1.3393  0.1121
44414SOL    HW238563   7.984   2.492   8.130  0.3847 -1.8269 -1.4777
44415SOL     OW38564   9.845   3.883   0.181 -0.2125  0.5677 -0.4909
44415SOL    HW138565   9.852   3.967   0.135  0.8913  0.3713 -0.6924
44415SOL    HW238566   9.792   3.903   0.259  1.0286  1.7261  0.0972
44416SOL     OW38567   3.615   6.201  11.292 -0.7554 -0.6243 -0.2619
44416SOL    HW138568   3.707   6.194  11.318 -0.9662 -1.1036  0.3717
44416SOL    HW238569   3.583   6.280  11.335 -0.5454 -0.2518 -0.7825
44417SOL     OW38570  11.596   2.000   1.463  0.5340  0.3599  0.0081
44417SOL    HW138571  11.671   1.982   1.406  0.9200  0.9354  0.3208
44417SOL    HW238572  11.590   2.095   1.466 -1.2892  0.3363 -1.3922
44418SOL     OW38573   3.574   4.911   2.985 -0.2812  0.1745 -0.1684
44418SOL    HW138574   3.516   4.867   2.923 -0.5169  1.1952 -0.6916
44418SOL    HW238575   3.592   4.845   3.052 -0.9209 -0.5915 -0.7322
44419SOL     OW38576   7.240   0.696   7.047 -0.3157 -0.9942  0.1366
44419SOL    HW138577   7.166   0.755   7.035  1.4064  0.9003 -2.3894
44419SOL    HW238578   7.203   0.618   7.087 -3.4286  0.2924  0.0408
44420SOL     OW38579  11.494   7.000  11.558  0.3048  0.2838  0.7695
44420SOL    HW138580  11.465   6.947  11.632  1.4669  1.2610  1.9758
44420SOL    HW238581  11.547   6.940  11.505 -0.8270 -0.5155  0.4950
44421SOL     OW38582   3.760   0.693   8.367 -1.0397 -0.4207 -0.4549
44421SOL    HW138583   3.797   0.700   8.455  0.0656 -0.5002 -0.9106
44421SOL    HW238584   3.831   0.716   8.308 -2.1068  0.8293 -1.3041
44422SOL     OW38585  10.401   2.832  10.746  0.3003  1.2683 -0.6255
44422SOL    HW138586  10.343   2.883  10.803 -1.3007 -2.2243  1.1467
44422SOL    HW238587  10.342   2.780  10.692  1.7197 -0.5989 -0.4966
44423SOL     OW38588  11.481   4.267   8.750 -0.0851 -0.3616 -0.0891
44423SOL    HW138589  11.419   4.315   8.695  0.1361 -1.5534 -1.4417
44423SOL    HW238590  11.489   4.181   8.708  0.2605 -1.2530  1.7055
44424SOL     OW38591   2.934  10.422   9.803  0.0092  0.6401  0.2165
44424SOL    HW138592   3.026  10.403   9.785 -0.2950  1.1599 -2.1985
44424SOL    HW238593   2.885  10.354   9.757 -0.8547  0.7512  0.9225
44425SOL     OW38594   7.922   4.390   2.911  0.2028  0.0113  0.6346
44425SOL    HW138595   7.935   4.311   2.858  0.2284 -0.7728  1.7724
44425SOL    HW238596   7.988   4.451   2.880 -0.2037 -0.1799 -0.6771
44426SOL     OW38597   3.153   9.059   2.808 -0.5825  0.0209 -0.0399
44426SOL    HW138598   3.210   9.041   2.733  1.3845 -1.4983  1.7239
44426SOL    HW238599   3.208   9.108   2.869 -1.8186  0.3158  0.8788
44427SOL     OW38600   2.458   4.785  11.171 -0.4714 -0.0477  0.0504
44427SOL    HW138601   2.458   4.809  11.264 -0.7025  1.6222 -0.3532
44427SOL    HW238602   2.545   4.748  11.156  0.1934  1.2725  0.5528
44428SOL     OW38603   7.552   8.130   0.456 -0.2048 -0.2791  0.0253
44428SOL    HW138604   7.461   8.113   0.430  0.3312 -2.6868 -0.5277
44428SOL    HW238605   7.604   8.100   0.382  1.0824  0.0025  0.7933
44429SOL     OW38606   0.136   7.854   4.836 -0.6980  0.2342 -0.8337
44429SOL    HW138607   0.159   7.766   4.867  0.8129  1.0901  0.6429
44429SOL    HW238608   0.058   7.840   4.783 -0.2292 -2.0615 -1.0509
44430SOL     OW38609   3.969   5.801   0.292  0.1152  0.0171 -0.4756
44430SOL    HW138610   4.001   5.875   0.345 -0.3410 -1.4592  2.0405
44430SOL    HW238611   3.891   5.834   0.248 -0.9360  0.6925  1.7632
44431SOL     OW38612   8.230   6.683   4.674  0.0000  0.1303 -0.7025
44431SOL    HW138613   8.136   6.664   4.677  0.4090 -1.9537  0.3924
44431SOL    HW238614   8.247   6.708   4.584 -1.8106  1.8590 -0.6363
44432SOL     OW38615  11.171   9.967   2.236 -0.4586  0.0338 -0.1823
44432SOL    HW138616  11.082   9.999   2.252  0.1553  1.2057  1.1094
44432SOL    HW238617  11.195   9.922   2.316  1.0742  2.1447  0.6371
44433SOL     OW38618   4.145   0.924   7.011 -0.3357  0.2247 -0.0549
44433SOL    HW138619   4.216   0.863   6.989  0.2053  0.2965  1.3646
44433SOL    HW238620   4.130   0.910   7.105 -1.8439  0.6026 -0.2150
44434SOL     OW38621   3.966   8.753  11.449 -0.0256 -0.2038 -0.3551
44434SOL    HW138622   3.916   8.709  11.380 -0.8823  0.2886 -0.0702
44434SOL    HW238623   4.049   8.707  11.452 -0.7539 -1.5567 -0.3272
44435SOL     OW38624   8.457   8.911   5.963  0.1883  0.1583  0.2114
44435SOL    HW138625   8.417   8.946   5.883 -2.8454 -0.9889  1.0798
44435SOL    HW238626   8.411   8.828   5.978  0.7626  0.2591  3.0604
44436SOL     OW38627   4.402   1.102   0.372  0.5439 -0.5537 -0.0209
44436SOL    HW138628   4.443   1.143   0.296  3.1995 -0.9260  1.1081
44436SOL    HW238629   4.412   1.166   0.442 -1.6254 -0.3317  0.1745
44437SOL     OW38630   1.684   2.814   4.476  0.2737  0.1250  0.1885
44437SOL    HW138631   1.626   2.843   4.547 -0.2872  0.7546 -0.5114
44437SOL    HW238632   1.628   2.759   4.421  0.9068 -0.9976  0.6322
44438SOL     OW38633   3.342   3.595  10.095 -0.0887 -0.5404 -0.4223
44438SOL    HW138634   3.301   3.624  10.176 -0.4903 -0.8615 -0.5057
44438SOL    HW238635   3.269   3.565  10.040  0.3285 -2.2394 -0.1245
44439SOL     OW38636  10.475  11.258   9.684  0.0258 -1.0086 -0.1110
44439SOL    HW138637  10.558  11.239   9.726  0.6030  0.3380 -0.5610
44439SOL    HW238638  10.452  11.345   9.716 -0.4181 -0.7154 -1.1661
44440SOL     OW38639   9.913  10.171   5.382 -0.4063  1.3333 -0.1598
44440SOL    HW138640   9.936  10.256   5.418  0.3384  1.3089 -0.5697
44440SOL    HW238641   9.931  10.178   5.289 -0.5666  0.8015 -0.2372
44441SOL     OW38642   5.243   9.062   7.710 -0.4631 -0.8139  0.2896
44441SOL    HW138643   5.303   9.135   7.693 -0.5647 -0.4560  1.3975
44441SOL    HW238644   5.217   9.032   7.623 -0.9108  0.8900 -0.2089
44442SOL     OW38645  10.026  11.337   6.213  0.2658  0.4945  0.0929
44442SOL    HW138646   9.994  11.425   6.233 -0.7235  0.1527  0.0445
44442SOL    HW238647  10.083  11.315   6.286  1.2678  1.5284 -0.3360
44443SOL     OW38648   1.814   4.154   6.816  0.1181  0.3543  0.2845
44443SOL    HW138649   1.822   4.069   6.773  0.7285  0.5474  0.0039
44443SOL    HW238650   1.742   4.143   6.878 -0.7342  0.0524 -0.7289
44444SOL     OW38651   1.806  10.309   3.560 -0.2575 -0.2152 -1.0080
44444SOL    HW138652   1.741  10.280   3.624 -0.4029  0.8972 -0.6217
44444SOL    HW238653   1.878  10.247   3.568 -1.5852 -1.9989 -2.0420
44445SOL     OW38654   0.419   6.375   4.613 -0.1591 -0.4411 -0.0559
44445SOL    HW138655   0.467   6.456   4.630  0.6550 -0.6230 -1.3352
44445SOL    HW238656   0.479   6.322   4.560 -1.6099 -0.8680 -1.3374
44446SOL     OW38657   0.577   1.713   1.450  0.0997 -0.2307 -0.3243
44446SOL    HW138658   0.496   1.725   1.401 -0.0660 -1.2307 -0.3041
44446SOL    HW238659   0.630   1.655   1.395  1.5891  1.8440 -1.2382
44447SOL     OW38660   9.599  10.382   1.485 -0.7418 -0.7528 -0.3548
44447SOL    HW138661   9.643  10.301   1.460 -0.0611  0.3917 -3.2269
44447SOL    HW238662   9.650  10.415   1.559 -1.5735 -3.2889  1.5266
44448SOL     OW38663   0.435   4.487   5.374  0.1694 -0.1387 -0.5700
44448SOL    HW138664   0.436   4.468   5.467 -1.0606  0.3507 -0.4338
44448SOL    HW238665   0.523   4.521   5.355  0.3596 -0.0276  0.4483
44449SOL     OW38666   0.990   8.448  11.441  0.0316  0.1071  0.1731
44449SOL    HW138667   1.023   8.430  11.529 -0.4491 -1.0154  0.1431
44449SOL    HW238668   0.912   8.393  11.433 -0.5485  1.0032 -0.5741
44450SOL     OW38669   7.900   7.641   3.972 -0.5797  0.0075  0.0658
44450SOL    HW138670   7.873   7.714   4.028  1.4615  0.6563  0.2694
44450SOL    HW238671   7.891   7.564   4.028  1.2688  0.6267  1.2856
44451SOL     OW38672   5.150   2.455   7.741  0.1737 -0.3334  0.2699
44451SOL    HW138673   5.076   2.406   7.704  0.2620  0.7616 -1.4688
44451SOL    HW238674   5.141   2.543   7.705  1.9488 -0.0019  0.5598
44452SOL     OW38675   4.522   3.159   8.410  0.1062  0.1367 -0.2705
44452SOL    HW138676   4.500   3.124   8.497 -0.7509  1.8109  0.2177
44452SOL    HW238677   4.458   3.228   8.395  0.3143 -0.0455 -2.2134
44453SOL     OW38678   3.326   6.658  10.557  0.4280 -0.0838 -0.2894
44453SOL    HW138679   3.268   6.709  10.614  0.5835 -0.7599  0.5025
44453SOL    HW238680   3.323   6.703  10.473 -2.3152 -0.8469 -0.6953
44454SOL     OW38681   4.537   5.733   9.953 -0.7105 -0.1455 -0.5560
44454SOL    HW138682   4.627   5.719   9.925 -0.5220 -0.2672  0.0855
44454SOL    HW238683   4.483   5.700   9.881 -0.2477 -1.0276 -0.5084
44455SOL     OW38684   1.792   2.657   8.059 -0.3496  0.2425  0.5809
44455SOL    HW138685   1.785   2.740   8.012  3.3319  0.0760 -0.5924
44455SOL    HW238686   1.837   2.679   8.141 -0.5619 -0.4117  0.8767
44456SOL     OW38687  11.008   5.306   2.913 -0.3195 -0.3781 -0.2356
44456SOL    HW138688  11.080   5.244   2.919  0.0541  0.1515  1.4735
44456SOL    HW238689  11.022   5.365   2.988 -1.2176  1.1427 -1.2200
44457SOL     OW38690   1.163   2.491   2.739 -0.3117  0.2408 -0.1659
44457SOL    HW138691   1.219   2.567   2.725 -0.8982  0.5187 -1.0741
44457SOL    HW238692   1.197   2.423   2.681 -0.4542  0.1628 -0.1601
44458SOL     OW38693   5.061   4.719   5.755  0.3091 -0.2749 -0.1679
44458SOL    HW138694   5.081   4.800   5.709  1.5174 -1.4938 -1.9349
44458SOL    HW238695   4.998   4.674   5.698  0.9832 -1.3251 -0.1225
44459SOL     OW38696  11.362   3.066   1.624  0.3878  0.0415  0.1566
44459SOL    HW138697  11.301   3.006   1.667  0.5264 -0.3895 -0.2237
44459SOL    HW238698  11.343   3.152   1.661 -2.3409  0.4462 -1.8833
44460SOL     OW38699  10.576  11.599  10.779  0.0366 -0.4792 -0.5253
44460SOL    HW138700  10.481  11.593  10.795 -0.0565  3.4109  1.5157
44460SOL    HW238701  10.603  11.508  10.764 -3.7568 -1.9397  0.2738
44461SOL     OW38702   4.249  11.044   5.387  0.1229 -0.2403  0.1164
44461SOL    HW138703   4.164  11.083   5.407  0.3122 -0.0405  0.5392
44461SOL    HW238704   4.292  11.108   5.331 -0.4189 -0.8136 -0.9914
44462SOL     OW38705   5.180   3.969   3.754 -0.4030  0.0864  0.0049
44462SOL    HW138706   5.152   4.011   3.673  0.6534  0.6968 -0.0512
44462SOL    HW238707   5.253   3.913   3.728 -0.7142 -0.4996  0.3672
44463SOL     OW38708   5.860   3.567   3.838  0.8156  0.3699 -0.3850
44463SOL    HW138709   5.876   3.644   3.784  2.3643  0.9167  0.7713
44463SOL    HW238710   5.827   3.500   3.777  1.1335  1.3926 -1.7103
44464SOL     OW38711   3.716   5.598  11.778  0.2111 -0.6240  0.9788
44464SOL    HW138712   3.702   5.652  11.700 -1.2550 -1.7326  0.4132
44464SOL    HW238713   3.808   5.571  11.772  0.4851  0.3837  0.3579
44465SOL     OW38714   3.295   4.646   4.990  0.2518 -0.7335  0.4899
44465SOL    HW138715   3.356   4.709   5.028 -0.0871  0.0886 -0.3004
44465SOL    HW238716   3.350   4.585   4.941  0.3964  0.9771 -1.6397
44466SOL     OW38717   3.330  11.168   0.050 -0.0787 -0.3282 -0.6944
44466SOL    HW138718   3.267  11.110   0.006  0.4298 -0.0437 -1.8447
44466SOL    HW238719   3.276  11.229   0.100 -0.6768 -0.7286 -0.8383
44467SOL     OW38720   4.155   6.493   6.443 -0.0907 -0.4748  0.2942
44467SOL    HW138721   4.063   6.511   6.461 -0.2093 -1.5320  0.8436
44467SOL    HW238722   4.193   6.578   6.422 -0.9546  0.1337  1.1406
44468SOL     OW38723   1.321   7.700  11.434  0.1585  0.3343 -0.1421
44468SOL    HW138724   1.291   7.738  11.516  1.3388  1.2315 -0.0959
44468SOL    HW238725   1.347   7.776  11.381  2.7495 -0.3461  0.0150
44469SOL     OW38726   3.381   9.843   0.131  0.6304 -0.1943 -0.3475
44469SOL    HW138727   3.433   9.923   0.129 -1.5938  1.3902  0.4871
44469SOL    HW238728   3.439   9.775   0.097  3.0356  1.5010  0.1274
44470SOL     OW38729   0.616   0.682   6.837 -0.0435  0.2290  0.5250
44470SOL    HW138730   0.540   0.707   6.890  1.0347  2.5784  1.0907
44470SOL    HW238731   0.595   0.714   6.749 -0.4012 -0.6491  0.2805
44471SOL     OW38732  10.053   0.451   0.021  0.4866  0.3758  0.0345
44471SOL    HW138733  10.023   0.371  -0.021  0.1793 -0.1072  1.1378
44471SOL    HW238734   9.976   0.507   0.025  0.7391  0.8160 -0.8869
44472SOL     OW38735   0.728   7.841   7.779  0.2260  0.2695  0.0502
44472SOL    HW138736   0.665   7.911   7.760  1.1773  1.3746  0.7898
44472SOL    HW238737   0.700   7.768   7.725 -2.5277  0.2234  1.3933
44473SOL     OW38738   0.952  11.504   5.023 -0.1205  0.2383 -0.3032
44473SOL    HW138739   0.883  11.546   5.075  0.6181 -0.5256  1.3766
44473SOL    HW238740   0.983  11.574   4.965  0.0411  1.6254  1.3445
44474SOL     OW38741   0.252   8.858   6.899  0.0335  0.6665  0.0459
44474SOL    HW138742   0.174   8.806   6.918 -0.2571  1.2783  0.5880
44474SOL    HW238743   0.321   8.794   6.884 -0.6003  0.1144 -0.5587
44475SOL     OW38744   5.526   2.590   3.090 -0.1759 -0.7524  0.2113
44475SOL    HW138745   5.493   2.623   3.006  1.6004 -2.4839 -1.2794
44475SOL    HW238746   5.479   2.507   3.102 -1.2078 -0.0232  1.5515
44476SOL     OW38747  10.789   7.847   1.297  0.3769 -0.6283 -0.6409
44476SOL    HW138748  10.710   7.802   1.266  1.0021 -2.3589  0.1378
44476SOL    HW238749  10.814   7.799   1.375  1.5201  0.6819 -0.1737
44477SOL     OW38750   5.880   8.738   7.104 -0.4822  0.0498 -0.8045
44477SOL    HW138751   5.873   8.654   7.059  1.3325 -0.0557 -0.9678
44477SOL    HW238752   5.971   8.743   7.131  0.7277  3.8157 -4.5604
44478SOL     OW38753  11.101   3.390   7.536 -0.0246  0.0494 -0.9797
44478SOL    HW138754  11.094   3.340   7.455  0.1236 -1.7372  0.0666
44478SOL    HW238755  11.038   3.349   7.596  2.8835 -1.5819  1.2242
44479SOL     OW38756   8.641   8.091   1.300  0.4349  0.0576  0.3060
44479SOL    HW138757   8.728   8.080   1.336  0.1413  1.3587  1.4856
44479SOL    HW238758   8.652   8.154   1.228  1.2722 -3.5863 -3.1222
44480SOL     OW38759   7.044  11.711   5.266  0.0830  0.0137  0.8137
44480SOL    HW138760   6.975  11.743   5.324  0.2897  0.1875  0.9633
44480SOL    HW238761   7.004  11.636   5.221  0.7790 -1.9111  3.1732
44481SOL     OW38762   2.627   3.794   6.470 -0.0888 -0.7255  0.0220
44481SOL    HW138763   2.573   3.758   6.541  0.6253 -0.0858  0.9261
44481SOL    HW238764   2.594   3.883   6.458 -0.1984 -0.8275 -0.4590
44482SOL     OW38765  11.486   3.664  10.399  0.5772  0.2817 -0.7812
44482SOL    HW138766  11.455   3.581  10.435  0.3678  1.2258  1.3532
44482SOL    HW238767  11.444   3.671  10.314 -0.6804 -1.0397 -0.2991
44483SOL     OW38768   6.159   4.760  10.303 -0.2563  0.2687 -0.5164
44483SOL    HW138769   6.181   4.852  10.290  0.6715  0.0686 -0.4190
44483SOL    HW238770   6.083   4.745  10.246 -0.1499  0.9783 -0.8531
44484SOL     OW38771   6.752   6.006   5.794 -0.5081  0.2465  0.4238
44484SOL    HW138772   6.758   6.096   5.763 -0.7081 -0.1808 -0.9250
44484SOL    HW238773   6.663   5.998   5.827 -0.1856  0.8071  1.4696
44485SOL     OW38774   0.046   5.155   3.859  0.0926 -0.0050  0.1482
44485SOL    HW138775   0.003   5.213   3.923  0.2219 -0.4738  0.6705
44485SOL    HW238776   0.126   5.201   3.834 -0.8995  1.0845 -1.1619
44486SOL     OW38777  10.136   4.113   5.072 -0.5216  0.6261 -0.3104
44486SOL    HW138778  10.054   4.063   5.070 -0.9641  1.3304 -0.0182
44486SOL    HW238779  10.161   4.122   4.980  0.4448 -1.5227 -0.3407
44487SOL     OW38780  11.490   5.541   6.655 -0.3970  0.1335  0.4371
44487SOL    HW138781  11.529   5.485   6.722 -0.3952 -0.0155  0.3115
44487SOL    HW238782  11.486   5.486   6.577  1.8662  1.0146 -0.4060
44488SOL     OW38783   2.582  10.392   8.146  0.5483  0.4797 -0.3143
44488SOL    HW138784   2.653  10.388   8.211  1.3541 -0.2160 -1.2151
44488SOL    HW238785   2.576  10.485   8.124  1.4098  0.5139 -0.4569
44489SOL     OW38786   9.464   4.262   7.475  0.3226 -0.0001 -0.3411
44489SOL    HW138787   9.458   4.169   7.497  0.2167 -0.3793 -1.8818
44489SOL    HW238788   9.496   4.263   7.385  0.9221  1.4835 -0.1307
44490SOL     OW38789   9.702   8.040   8.324  0.1725  0.2516  0.0918
44490SOL    HW138790   9.759   8.016   8.396 -1.2070 -1.0967  0.7921
44490SOL    HW238791   9.666   7.956   8.293  1.4552  0.6521 -2.8339
44491SOL     OW38792  11.431  10.752  11.508 -0.3204  0.2345 -0.1100
44491SOL    HW138793  11.452  10.844  11.496  0.9498 -0.0616 -0.3295
44491SOL    HW238794  11.509  10.714  11.548 -1.6152 -0.3383  2.0170
44492SOL     OW38795   4.133  10.450  10.894  0.3775  0.6006 -0.0512
44492SOL    HW138796   4.210  10.466  10.840 -1.8985  0.7891 -3.5806
44492SOL    HW238797   4.085  10.533  10.891 -1.5289 -0.4726 -0.8387
44493SOL     OW38798   4.945   3.460  10.505 -0.5855 -0.5550 -0.0720
44493SOL    HW138799   4.913   3.369  10.512  1.5555 -1.4138 -0.7507
44493SOL    HW238800   4.881   3.503  10.448 -1.6798 -1.6058  0.3061
44494SOL     OW38801   1.015   3.517  10.451 -0.0036  0.0887 -0.2622
44494SOL    HW138802   1.067   3.543  10.375 -0.6105 -0.8148 -1.0007
44494SOL    HW238803   0.925   3.534  10.426 -0.0859  2.9842  1.5308
44495SOL     OW38804  10.837   8.925  11.351 -0.2061 -0.1218  0.3241
44495SOL    HW138805  10.802   8.836  11.357 -1.5896  0.4245  0.6431
44495SOL    HW238806  10.929   8.915  11.374 -0.1029 -1.6072 -0.5381
44496SOL     OW38807   8.777   3.979   1.703 -0.3054  0.2434 -0.5615
44496SOL    HW138808   8.757   4.072   1.691 -1.2397  0.0483 -0.5958
44496SOL    HW238809   8.865   3.968   1.667  0.8129  1.5664  1.5110
44497SOL     OW38810   7.011   6.929   6.742  0.4548 -0.3987  0.2867
44497SOL    HW138811   6.922   6.942   6.773 -0.5305 -1.3167 -1.9318
44497SOL    HW238812   7.058   6.892   6.817 -1.3437 -1.0216  1.1631
44498SOL     OW38813   1.488   0.894   9.200  0.0754 -0.2355 -0.2587
44498SOL    HW138814   1.463   0.904   9.292  0.7539 -0.2226 -0.0748
44498SOL    HW238815   1.426   0.829   9.166  0.8486 -1.5041  0.6388
44499SOL     OW38816  11.165   5.020   2.838 -1.2283  0.6061  0.0712
44499SOL    HW138817  11.107   4.950   2.868 -1.8153  0.7751 -0.6431
44499SOL    HW238818  11.171   5.007   2.743  2.1425 -1.1277  0.3277
44500SOL     OW38819   8.861   3.097   9.496  0.2755 -0.1423  0.0907
44500SOL    HW138820   8.937   3.139   9.535  0.1204  0.6405 -0.4254
44500SOL    HW238821   8.807   3.069   9.571  1.0611 -0.7184  0.4559
44501SOL     OW38822   2.483   7.712   0.926 -0.3217  0.0286 -0.1782
44501SOL    HW138823   2.569   7.751   0.905 -0.5275  0.4969 -0.1701
44501SOL    HW238824   2.430   7.730   0.848  0.1564 -2.0361 -1.0416
44502SOL     OW38825  10.744  10.044  10.253  0.0291 -0.1033 -0.2598
44502SOL    HW138826  10.650  10.031  10.242 -0.2668  1.4570  0.1438
44502SOL    HW238827  10.783  10.009  10.172 -0.8653 -0.9124 -0.3608
44503SOL     OW38828   2.221  11.746   8.097  0.3190 -0.1884 -0.1487
44503SOL    HW138829   2.150  11.714   8.041 -2.3050  1.7348  1.8385
44503SOL    HW238830   2.225  11.840   8.079  1.8534 -0.1023  0.4319
44504SOL     OW38831   0.360   5.510   6.889  0.1249  0.3024  0.2856
44504SOL    HW138832   0.331   5.469   6.807  0.2137 -0.5390  0.6588
44504SOL    HW238833   0.428   5.451   6.922  0.1837  0.7064  0.8912
44505SOL     OW38834   1.008  10.116   7.898  0.0646 -0.1907  0.1772
44505SOL    HW138835   0.993  10.024   7.879 -0.3449  0.5675 -4.1068
44505SOL    HW238836   1.103  10.126   7.896  0.0599 -0.2961 -0.8207
44506SOL     OW38837  10.460  10.563   4.584 -0.3946  0.4448 -0.4808
44506SOL    HW138838  10.473  10.657   4.569 -0.1726  0.3579 -0.8132
44506SOL    HW238839  10.365  10.552   4.579 -0.3149  0.3665 -2.1023
44507SOL     OW38840   8.910   2.027   5.367  0.1698 -0.2774 -0.2982
44507SOL    HW138841   8.965   1.963   5.413  1.0973  1.0503  0.5007
44507SOL    HW238842   8.935   2.018   5.275  1.2240 -0.1811 -0.0324
44508SOL     OW38843   3.275  10.740   8.488  0.1167 -0.1341 -0.5262
44508SOL    HW138844   3.238  10.803   8.550 -1.9583 -1.3198 -0.4432
44508SOL    HW238845   3.349  10.701   8.535  1.0816  1.8005 -0.3730
44509SOL     OW38846   3.428   5.702  10.312  0.0724 -0.6425  0.6323
44509SOL    HW138847   3.495   5.769  10.321  0.8204 -1.5332  2.0739
44509SOL    HW238848   3.345   5.749  10.315  0.5887  0.2337  1.4458
44510SOL     OW38849   8.664   8.361   9.981 -0.1698  0.4375 -0.0765
44510SOL    HW138850   8.590   8.300   9.981  0.0689  0.1349  0.6851
44510SOL    HW238851   8.741   8.304   9.970 -0.0682  0.7832 -1.2560
44511SOL     OW38852   7.436   6.356   2.839 -0.2901  0.0403 -0.1017
44511SOL    HW138853   7.514   6.405   2.815  0.3465 -0.7853  0.2560
44511SOL    HW238854   7.447   6.336   2.932 -0.6026 -0.6586 -0.2058
44512SOL     OW38855   5.805  11.757   6.699  0.2572  0.5759 -0.3403
44512SOL    HW138856   5.829  11.677   6.745 -0.3331  0.4686 -0.2024
44512SOL    HW238857   5.815  11.736   6.606  3.5501  1.4543 -0.3080
44513SOL     OW38858   3.586   9.897   0.836 -0.0658 -0.5883  0.0564
44513SOL    HW138859   3.561   9.977   0.790  1.1163 -0.1877  0.0793
44513SOL    HW238860   3.503   9.857   0.861 -0.7039 -0.0041 -1.0283
44514SOL     OW38861   4.108  10.177   4.339 -0.0766  0.3881 -0.0702
44514SOL    HW138862   4.027  10.197   4.386  0.4618 -0.6333  1.3762
44514SOL    HW238863   4.129  10.087   4.365  0.8286  0.1710 -1.4533
44515SOL     OW38864  10.691   6.552   0.955  0.4864  0.2036  0.3586
44515SOL    HW138865  10.691   6.581   0.864 -0.0298 -0.8441  0.0066
44515SOL    HW238866  10.633   6.613   1.000 -1.0030 -0.5509 -0.4682
44516SOL     OW38867   9.281   0.698   3.781  0.3579 -0.1938 -0.1634
44516SOL    HW138868   9.222   0.630   3.749  0.0829 -0.4317  0.8110
44516SOL    HW238869   9.233   0.779   3.769  0.3921 -0.2387 -0.6414
44517SOL     OW38870   5.558   1.571   7.823  0.2423  0.2258 -0.3563
44517SOL    HW138871   5.605   1.488   7.826  0.3932  0.3350  0.5595
44517SOL    HW238872   5.572   1.603   7.734 -0.6656 -1.1964 -1.0424
44518SOL     OW38873   7.976  10.211  11.148 -0.0364  0.1702  0.3670
44518SOL    HW138874   8.048  10.269  11.170 -0.2097  0.2347  0.7616
44518SOL    HW238875   8.000  10.175  11.062  0.4026  0.2847  0.4404
44519SOL     OW38876   0.121   3.840   5.168 -0.0866  0.8231  0.0703
44519SOL    HW138877   0.048   3.779   5.159 -1.0285  1.8602  0.4913
44519SOL    HW238878   0.187   3.793   5.218 -1.6741  0.8758  2.3163
44520SOL     OW38879   9.762   4.585   5.154 -0.1447  0.2241 -0.4421
44520SOL    HW138880   9.761   4.676   5.122 -1.5865  0.3104 -0.2252
44520SOL    HW238881   9.810   4.590   5.237 -1.6621  1.1653  0.4611
44521SOL     OW38882   3.807   0.867   3.838 -0.2154 -0.0387  0.0898
44521SOL    HW138883   3.888   0.822   3.863  0.5613  0.0214 -2.1083
44521SOL    HW238884   3.801   0.941   3.898  2.7475  1.4113 -1.1647
44522SOL     OW38885   5.206   6.505   1.857 -0.0192  0.5451 -0.1759
44522SOL    HW138886   5.224   6.597   1.836  0.5795  0.7903  1.2880
44522SOL    HW238887   5.114   6.503   1.881  0.0636  0.8313  0.1641
44523SOL     OW38888   9.027  11.512   7.931 -0.0620  0.1345  0.0417
44523SOL    HW138889   9.075  11.494   7.850  0.6862 -0.1244  0.5224
44523SOL    HW238890   9.047  11.603   7.952 -1.2698  0.5919 -0.7116
44524SOL     OW38891   3.627   2.702   8.960  0.0009 -0.4692 -0.1589
44524SOL    HW138892   3.719   2.685   8.937 -0.4467 -2.4342 -0.6808
44524SOL    HW238893   3.599   2.769   8.897  1.1176  0.3054  0.1411
44525SOL     OW38894   5.276   2.421   4.446 -0.6431  0.0613  0.6373
44525SOL    HW138895   5.184   2.413   4.420  0.2971 -1.6023 -2.8285
44525SOL    HW238896   5.312   2.334   4.431  1.7113  0.9337  0.8935
44526SOL     OW38897   0.927   0.438   6.932 -0.1267  0.1235  0.0445
44526SOL    HW138898   0.981   0.497   6.985  0.2923 -0.8000  0.6772
44526SOL    HW238899   0.889   0.377   6.996  0.0445 -0.7467 -0.6713
44527SOL     OW38900   2.598   9.277   1.313  0.3555  0.0087  0.0211
44527SOL    HW138901   2.521   9.238   1.272  0.6154  0.4102 -0.8681
44527SOL    HW238902   2.665   9.276   1.244  0.3088  2.2199 -0.1323
44528SOL     OW38903   7.726   0.353   0.236  0.2640  0.0915 -0.0904
44528SOL    HW138904   7.726   0.391   0.148  1.0771 -1.3228 -0.7355
44528SOL    HW238905   7.726   0.258   0.222  2.9913 -0.2321  1.3681
44529SOL     OW38906   0.187   5.114   8.567 -0.0204  0.2915 -0.3242
44529SOL    HW138907   0.263   5.169   8.547 -0.2457 -0.0610 -2.3210
44529SOL    HW238908   0.147   5.155   8.643  1.1221  1.5512 -0.3671
44530SOL     OW38909  10.093   6.000   9.509  0.4108 -0.5731  0.1270
44530SOL    HW138910  10.112   5.911   9.541  4.8206 -0.1379 -0.5503
44530SOL    HW238911  10.055   5.987   9.422  0.8987 -1.8174  0.0774
44531SOL     OW38912   5.662   1.011  11.023 -0.0155  0.2286 -0.0836
44531SOL    HW138913   5.628   0.926  10.996  1.6724 -0.7765  0.7832
44531SOL    HW238914   5.757   1.001  11.019  0.3319  0.8790  3.4504
44532SOL     OW38915   5.409   3.364   5.634  0.5490 -0.5943 -0.3178
44532SOL    HW138916   5.358   3.293   5.673 -0.8529  0.8981  0.6970
44532SOL    HW238917   5.359   3.390   5.557  0.3038  0.1908  0.0969
44533SOL     OW38918  11.643  10.118   0.757 -0.1001 -0.4796  0.0385
44533SOL    HW138919  11.669  10.049   0.695  1.2608  0.6977 -0.7680
44533SOL    HW238920  11.721  10.173   0.765  0.0025 -0.9088  3.3372
44534SOL     OW38921   2.535   1.641   7.320 -0.3604 -0.0774 -0.2017
44534SOL    HW138922   2.465   1.593   7.365 -0.1451  0.7025  0.9945
44534SOL    HW238923   2.555   1.714   7.378  0.7540  0.2868 -1.0221
44535SOL     OW38924   1.688   6.504   2.495  0.3044  0.2532 -0.3141
44535SOL    HW138925   1.767   6.488   2.444  0.0357  0.7713 -0.9124
44535SOL    HW238926   1.618   6.507   2.430 -0.5692 -2.3558  0.3744
44536SOL     OW38927   7.261   2.401   3.738  0.0851  0.3663 -0.3637
44536SOL    HW138928   7.331   2.393   3.673  1.5668 -0.5138  1.2678
44536SOL    HW238929   7.230   2.311   3.752 -0.2064  0.5423  0.1665
44537SOL     OW38930   4.587  10.568   9.887 -0.2049  0.4260 -0.5155
44537SOL    HW138931   4.636  10.648   9.868 -0.7575  0.8179 -0.3273
44537SOL    HW238932   4.646  10.497   9.864  1.8958  0.7972  2.9368
44538SOL     OW38933   2.391   6.451   6.738  0.1527 -0.4630  0.1752
44538SOL    HW138934   2.374   6.407   6.654 -1.8275 -0.0090  0.2911
44538SOL    HW238935   2.317   6.427   6.793  2.0037 -1.7608  2.2774
44539SOL     OW38936   2.918   6.113   7.697 -0.3550  0.0178 -0.1319
44539SOL    HW138937   2.992   6.173   7.706  0.1143 -0.5438 -0.2208
44539SOL    HW238938   2.899   6.112   7.603  0.1520 -0.5890 -0.2278
44540SOL     OW38939   2.470  10.515   8.708  0.1255 -0.0807  0.4342
44540SOL    HW138940   2.548  10.488   8.757  1.4719 -0.4360 -1.7595
44540SOL    HW238941   2.452  10.604   8.738  0.3148 -0.5941  2.1840
44541SOL     OW38942   6.644  11.616   6.670 -0.0271  0.5338  0.1793
44541SOL    HW138943   6.632  11.569   6.752  2.1713  2.9128  2.0183
44541SOL    HW238944   6.681  11.551   6.610 -2.2722 -1.4110  0.7354
44542SOL     OW38945   0.293   0.214  11.758  0.4435 -0.3350  0.5054
44542SOL    HW138946   0.218   0.263  11.724  0.9254  1.3758  1.7801
44542SOL    HW238947   0.347   0.196  11.680 -0.2926  0.1900 -0.1418
44543SOL     OW38948   6.832   0.450   8.388 -0.9026  0.7032 -0.1702
44543SOL    HW138949   6.801   0.435   8.478  1.5813  1.4621  0.9171
44543SOL    HW238950   6.818   0.543   8.373  2.5229  1.5981  1.2049
44544SOL     OW38951   4.365   1.501  10.804 -0.1648  0.2597 -0.5976
44544SOL    HW138952   4.409   1.423  10.773 -0.3651  0.2434 -0.8434
44544SOL    HW238953   4.411   1.574  10.763 -1.1249  0.1977 -1.8419
44545SOL     OW38954   6.857   1.386  11.126 -0.2030  0.2562 -0.3415
44545SOL    HW138955   6.787   1.409  11.186 -0.1077  1.7143 -0.7503
44545SOL    HW238956   6.932   1.436  11.156  0.3347 -0.3449 -0.6442
44546SOL     OW38957   5.530   5.784  10.994 -0.3307  0.3970 -0.1371
44546SOL    HW138958   5.606   5.795  11.052 -0.0141 -0.1319 -0.4382
44546SOL    HW238959   5.522   5.868  10.950 -0.7946  0.9278  0.9221
44547SOL     OW38960   2.422   0.820   4.356  0.4443 -0.6668  0.3818
44547SOL    HW138961   2.463   0.845   4.273 -0.5093  0.3886  0.2036
44547SOL    HW238962   2.424   0.900   4.408 -1.6784 -0.4663  0.2337
44548SOL     OW38963  11.015   4.150  10.068  0.1459 -1.0551 -0.0225
44548SOL    HW138964  11.024   4.122  10.159  0.3931 -0.2349  0.2149
44548SOL    HW238965  10.931   4.113  10.040 -0.9668  0.3877  1.2078
44549SOL     OW38966   4.445   3.303   5.746  0.5561 -0.2808  0.2573
44549SOL    HW138967   4.413   3.302   5.837 -0.5460  0.4328 -0.1058
44549SOL    HW238968   4.530   3.260   5.751  0.0802 -1.1552  1.4712
44550SOL     OW38969   3.408   4.928   1.928  0.5312  0.0527 -0.3405
44550SOL    HW138970   3.336   4.903   1.987 -0.1837  1.2050 -0.6849
44550SOL    HW238971   3.486   4.925   1.984 -0.2886  2.3973  1.1020
44551SOL     OW38972  11.725   1.500   8.733  0.4424  0.4268 -0.1877
44551SOL    HW138973  11.815   1.519   8.757  0.0922 -1.0143  2.7134
44551SOL    HW238974  11.725   1.406   8.714 -0.6141  0.1705  0.9651
44552SOL     OW38975   5.258   1.365   4.128 -0.3542  0.3774 -0.5063
44552SOL    HW138976   5.238   1.415   4.049  2.2459  1.9432 -0.2760
44552SOL    HW238977   5.341   1.322   4.110 -0.0415  0.2062  1.1282
44553SOL     OW38978   9.186   4.224   2.643 -0.0461 -0.2182  0.2610
44553SOL    HW138979   9.146   4.259   2.563 -1.3773 -0.1029  0.9534
44553SOL    HW238980   9.264   4.277   2.655  0.3518 -0.4373 -1.1224
44554SOL     OW38981   9.235   2.223   6.240  0.2800  1.0643  0.2152
44554SOL    HW138982   9.312   2.280   6.231  0.8610  0.3623  0.6941
44554SOL    HW238983   9.265   2.150   6.294  0.0967 -0.6817 -1.8985
44555SOL     OW38984   2.953   9.486   1.505 -0.1668  0.1286 -0.4921
44555SOL    HW138985   2.993   9.411   1.461  3.6445  0.7099  1.5256
44555SOL    HW238986   2.922   9.542   1.433  0.0620 -1.7296 -2.1359
44556SOL     OW38987   9.234   1.492   2.995 -0.3824  0.2531 -0.0853
44556SOL    HW138988   9.170   1.438   2.949  1.0449 -0.7146 -1.0399
44556SOL    HW238989   9.315   1.441   2.991  0.0128  0.4838  2.8489
44557SOL     OW38990   9.913   2.907   0.767  0.9013 -0.1524 -0.6706
44557SOL    HW138991   9.917   2.815   0.793  0.2584  0.0164  0.0758
44557SOL    HW238992   9.847   2.909   0.698  0.2299 -0.1336 -0.0507
44558SOL     OW38993   8.233   1.732   5.738 -0.7539 -0.0296  0.5495
44558SOL    HW138994   8.328   1.743   5.734 -0.6249 -0.8984  0.9205
44558SOL    HW238995   8.211   1.747   5.830 -0.6693 -1.8845  0.9182
44559SOL     OW38996   4.767  10.986   5.823  0.3127  0.0232 -0.2187
44559SOL    HW138997   4.771  10.946   5.736 -1.5611 -1.7366  0.4272
44559SOL    HW238998   4.771  10.911   5.883 -1.3269  0.9578  1.1113
44560SOL     OW38999   8.973   6.596   6.672  0.4566  0.2119  0.5348
44560SOL    HW139000   8.945   6.681   6.707 -0.1241 -0.2390  1.1981
44560SOL    HW239001   9.066   6.590   6.694  0.8170  1.2136 -0.6248
44561SOL     OW39002  11.374  10.064   5.870 -0.0278  0.6571  0.5302
44561SOL    HW139003  11.382  10.040   5.963 -0.2552 -0.6888  0.2269
44561SOL    HW239004  11.464  10.077   5.841  0.3766 -2.1110  0.1957
44562SOL     OW39005   9.162   6.584   5.943  0.1588 -0.1371 -0.0196
44562SOL    HW139006   9.066   6.591   5.940  0.1107  0.9493  2.0472
44562SOL    HW239007   9.193   6.669   5.914  0.4330  0.0573  0.8200
44563SOL     OW39008  11.224  10.297  11.333 -0.2307 -0.0927 -0.0508
44563SOL    HW139009  11.264  10.240  11.267 -1.3222 -0.3044 -0.5419
44563SOL    HW239010  11.214  10.381  11.289 -1.6936 -0.4450 -0.4586
44564SOL     OW39011  10.914   7.983   0.165 -0.6565  0.2801  0.1851
44564SOL    HW139012  10.930   7.954   0.255 -1.4111  1.6486  0.7891
44564SOL    HW239013  10.979   8.052   0.150 -0.8541  0.3948 -0.1454
44565SOL     OW39014  10.288   3.569   1.558 -0.4622  0.4250 -0.0065
44565SOL    HW139015  10.287   3.625   1.480 -0.1665  1.8749  0.9910
44565SOL    HW239016  10.196   3.548   1.573 -0.6352  1.1025 -0.0875
44566SOL     OW39017  11.721   5.897   0.757  0.4952 -0.3900 -0.6787
44566SOL    HW139018  11.725   5.921   0.850 -0.6347 -3.4721  0.2620
44566SOL    HW239019  11.628   5.899   0.735  0.7890  1.0528 -2.0617
44567SOL     OW39020   9.896   9.749   7.966  0.7171 -0.1027  0.0897
44567SOL    HW139021   9.811   9.788   7.983  0.5110  1.0767 -2.9435
44567SOL    HW239022   9.885   9.656   7.984 -1.3241 -0.0138 -0.5091
44568SOL     OW39023  10.296   8.178   2.845 -0.5820  0.4057  0.2101
44568SOL    HW139024  10.246   8.100   2.870  0.6539 -0.2119  0.8916
44568SOL    HW239025  10.268   8.197   2.756 -3.5845  1.3776  1.2431
44569SOL     OW39026   6.282   5.586   4.452  0.7942  0.1870  0.1340
44569SOL    HW139027   6.187   5.581   4.452  0.8363 -1.1197  1.0477
44569SOL    HW239028   6.310   5.512   4.505  2.3406  0.2974 -0.4686
44570SOL     OW39029   1.754   6.869  10.710  0.0615 -0.5153  0.1190
44570SOL    HW139030   1.809   6.815  10.768  1.6963  1.2086  0.2942
44570SOL    HW239031   1.665   6.836  10.724  0.6865 -1.6096  1.9423
44571SOL     OW39032   1.102  11.060  10.105  0.3120 -0.4307 -0.4877
44571SOL    HW139033   1.042  10.988  10.091 -0.2519 -0.0188 -0.2473
44571SOL    HW239034   1.188  11.026  10.082 -0.0156 -1.0315 -0.8109
44572SOL     OW39035  10.919   5.429  11.409 -0.1190  0.3117 -0.1223
44572SOL    HW139036  11.014   5.425  11.400 -0.2151 -0.2574 -0.9818
44572SOL    HW239037  10.887   5.442  11.320 -0.9520 -1.9330 -0.2118
44573SOL     OW39038  11.567   2.537   2.782 -0.1924 -0.0643 -0.1991
44573SOL    HW139039  11.520   2.532   2.699  0.5168  0.8015 -0.6658
44573SOL    HW239040  11.659   2.544   2.757  0.4385 -3.4157  0.7050
44574SOL     OW39041   8.081   4.585   4.001 -0.7199 -0.1963 -0.0689
44574SOL    HW139042   8.084   4.567   4.095 -1.1638  1.6040  0.3259
44574SOL    HW239043   8.006   4.645   3.991  0.5817  1.3149 -1.2307
44575SOL     OW39044   8.627   6.843   5.814 -0.1476 -0.0879  0.4782
44575SOL    HW139045   8.574   6.922   5.823  0.9496  0.5854  1.3523
44575SOL    HW239046   8.651   6.819   5.904 -2.0190 -2.5607  0.4059
44576SOL     OW39047   8.246   9.011   7.812  0.1129  0.3866  0.4645
44576SOL    HW139048   8.330   8.965   7.802 -0.2569 -0.1066 -0.5693
44576SOL    HW239049   8.196   8.957   7.873 -0.1353 -0.3453 -0.3657
44577SOL     OW39050   7.661   4.610   2.723  0.2423 -0.1136 -0.1458
44577SOL    HW139051   7.753   4.631   2.737  0.4091 -1.1115  0.3772
44577SOL    HW239052   7.662   4.522   2.686 -0.5069 -0.1490 -0.0985
44578SOL     OW39053   2.050   5.560   4.154  0.0780 -0.3650 -0.2296
44578SOL    HW139054   2.073   5.585   4.064  1.0172  0.0793  0.1137
44578SOL    HW239055   1.980   5.621   4.178 -0.0462 -0.3588 -0.5978
44579SOL     OW39056   7.417   0.815   1.319 -0.0626 -0.5610 -0.4137
44579SOL    HW139057   7.431   0.727   1.284 -3.1494 -1.2273 -0.2586
44579SOL    HW239058   7.395   0.800   1.411  1.9321  0.6514  0.3052
44580SOL     OW39059   3.426   0.311  10.687  0.3585  0.3377 -0.0405
44580SOL    HW139060   3.350   0.341  10.735  0.5855  1.3757 -0.3054
44580SOL    HW239061   3.390   0.269  10.608  0.0300 -0.4381  0.5100
44581SOL     OW39062   9.632   5.550   5.720  0.8329  0.0505  0.2040
44581SOL    HW139063   9.592   5.530   5.804  0.3314 -0.2675 -0.1045
44581SOL    HW239064   9.586   5.494   5.657  1.6206 -0.1773 -0.1937
44582SOL     OW39065   4.760  10.585   5.602  0.1629 -0.0638 -0.3587
44582SOL    HW139066   4.813  10.556   5.676  1.0788 -0.8943 -1.3028
44582SOL    HW239067   4.672  10.551   5.621  0.7357 -1.6852 -0.3866
44583SOL     OW39068   6.540   3.535   6.807  0.0956 -0.2559  0.1155
44583SOL    HW139069   6.564   3.464   6.748 -0.2512 -0.9664  0.8134
44583SOL    HW239070   6.448   3.519   6.828  0.4324 -0.5161  1.5176
44584SOL     OW39071  11.078  11.076   8.310 -0.0968 -0.4059  0.9178
44584SOL    HW139072  11.111  11.079   8.221 -0.2600 -0.0842  0.8671
44584SOL    HW239073  11.041  11.163   8.326 -0.8490 -0.7283  0.9977
44585SOL     OW39074   1.101   9.611   1.950  0.1351 -0.2117 -0.2323
44585SOL    HW139075   1.171   9.627   2.013  0.7309 -1.2659 -0.5949
44585SOL    HW239076   1.146   9.588   1.869 -0.5634 -2.4482 -0.0696
44586SOL     OW39077   3.342  10.888   3.222 -0.4632  0.5478  0.2503
44586SOL    HW139078   3.331  10.945   3.299 -0.3076  0.7408  0.1305
44586SOL    HW239079   3.384  10.944   3.157  0.4717  0.0615  0.4181
44587SOL     OW39080  11.815   9.821   0.296  0.7375  0.0253 -0.3099
44587SOL    HW139081  11.787   9.761   0.227 -0.3824  0.0399  0.1023
44587SOL    HW239082  11.779   9.906   0.271  0.3938  0.0490  0.2290
44588SOL     OW39083   0.131   4.019   9.112  0.2544 -0.7133 -0.0800
44588SOL    HW139084   0.162   3.997   9.024  1.4791 -0.6129  0.3058
44588SOL    HW239085   0.167   4.106   9.128 -2.3277  0.5342 -0.5590
44589SOL     OW39086   0.199   3.264   6.639  0.3979  0.0036  0.4373
44589SOL    HW139087   0.264   3.318   6.593 -0.3509 -1.2536 -2.3228
44589SOL    HW239088   0.130   3.325   6.663  1.3995  0.9239  1.0916
44590SOL     OW39089   2.497   5.295   2.682  0.4842 -0.2243  0.2467
44590SOL    HW139090   2.456   5.286   2.768  0.4202  0.8526  0.3507
44590SOL    HW239091   2.463   5.221   2.632 -1.0425  0.2233  0.5537
44591SOL     OW39092   0.188   9.994   7.729 -0.0528 -0.3185  0.3388
44591SOL    HW139093   0.210   9.983   7.636  2.3111  0.1880  0.7776
44591SOL    HW239094   0.097  10.024   7.728 -0.5590 -1.6774 -1.7177
44592SOL     OW39095   3.572   5.122   6.594 -0.3321 -0.0210  0.7601
44592SOL    HW139096   3.623   5.135   6.514  0.7471 -1.2671  1.2056
44592SOL    HW239097   3.516   5.046   6.575 -0.9883  0.4547  0.7694
44593SOL     OW39098   7.550   2.277   8.959  0.0257 -0.7603  0.1240
44593SOL    HW139099   7.492   2.310   9.028  0.2535 -1.2242  0.5451
44593SOL    HW239100   7.602   2.353   8.933 -2.6651  0.4370 -2.2830
44594SOL     OW39101   4.123   8.202   4.354  0.0266 -0.3692 -0.0373
44594SOL    HW139102   4.154   8.286   4.322 -1.2049 -0.5139 -1.7514
44594SOL    HW239103   4.081   8.161   4.279  1.1311 -2.8190  0.5684
44595SOL     OW39104   5.247   3.981  11.343 -0.1626 -0.1655  0.1752
44595SOL    HW139105   5.272   4.015  11.430 -0.7321  2.1812 -0.4937
44595SOL    HW239106   5.152   3.987  11.342 -0.2428 -1.4051 -0.1706
44596SOL     OW39107   0.290   1.518   1.942 -0.6386  0.2331 -0.4504
44596SOL    HW139108   0.309   1.441   1.996 -1.3797  0.3899  0.0512
44596SOL    HW239109   0.215   1.559   1.985 -0.5155  1.0023 -0.9571
44597SOL     OW39110   1.812   3.501   1.631 -0.0335 -0.3870 -0.1746
44597SOL    HW139111   1.835   3.550   1.710  2.6694 -2.9740  0.8483
44597SOL    HW239112   1.725   3.467   1.648  0.1499 -0.1746  1.3578
44598SOL     OW39113   7.320   7.061  11.478  0.2586 -0.0048  0.6718
44598SOL    HW139114   7.336   7.111  11.397 -0.4686 -0.8450 -0.0198
44598SOL    HW239115   7.337   7.123  11.548 -1.6741  1.5906 -0.1591
44599SOL     OW39116   1.107   2.490   3.680 -0.1920  0.2598  0.4402
44599SOL    HW139117   1.113   2.524   3.591  1.6079 -1.6660 -0.2612
44599SOL    HW239118   1.194   2.504   3.717 -1.0368  1.4325  2.1048
44600SOL     OW39119  11.093   7.392   3.962  0.3288  0.2938 -0.1042
44600SOL    HW139120  11.081   7.360   4.052 -0.2823 -0.7797 -0.5565
44600SOL    HW239121  11.050   7.478   3.962  0.4416  0.3645  0.6496
44601SOL     OW39122   1.609   9.493   7.542  0.1392 -0.0430  0.1938
44601SOL    HW139123   1.583   9.479   7.451  2.5681  1.0931 -0.7674
44601SOL    HW239124   1.697   9.454   7.548  0.7315  1.3840  1.5712
44602SOL     OW39125   6.328   4.639   1.290  0.1811 -0.6831  0.0004
44602SOL    HW139126   6.421   4.620   1.285  0.1635 -0.4195 -2.1207
44602SOL    HW239127   6.319   4.728   1.255 -0.7001  0.0169  1.8390
44603SOL     OW39128  10.158   0.554   7.247 -0.3275  0.3626 -0.2827
44603SOL    HW139129  10.230   0.583   7.191  1.3775 -0.9048  1.1516
44603SOL    HW239130  10.201   0.524   7.327 -2.1719 -3.0368 -0.4098
44604SOL     OW39131   5.645   3.283   2.535  0.1916  0.3212  0.3877
44604SOL    HW139132   5.636   3.208   2.476  0.6368  0.6220 -0.0726
44604SOL    HW239133   5.694   3.249   2.609 -0.7093 -0.1600  0.7844
44605SOL     OW39134   8.560  11.809  10.824  0.3493  0.0338  0.5737
44605SOL    HW139135   8.497  11.879  10.806  1.5152  0.9436 -0.0777
44605SOL    HW239136   8.539  11.741  10.760  1.9508  1.6143 -1.7637
44606SOL     OW39137   2.280   0.969   3.462 -0.0857 -0.0327  0.1799
44606SOL    HW139138   2.332   0.895   3.429 -0.2294  0.2639 -0.7409
44606SOL    HW239139   2.345   1.033   3.490  0.1170  0.8345 -2.0787
44607SOL     OW39140   1.066   6.308   8.555 -0.0841 -0.1777  0.7392
44607SOL    HW139141   1.023   6.360   8.488 -2.4111 -1.0867  1.4415
44607SOL    HW239142   1.070   6.219   8.519 -0.3980 -0.4585  1.3666
44608SOL     OW39143  10.932   1.717   7.312 -0.4120  0.3810 -0.3787
44608SOL    HW139144  11.001   1.666   7.270  1.0136  1.1177  0.9762
44608SOL    HW239145  10.904   1.663   7.385  0.1135  0.9177  0.2255
44609SOL     OW39146   4.513   3.371   2.807  0.2028 -0.7487 -0.0575
44609SOL    HW139147   4.432   3.321   2.798  0.5059 -1.5290  1.3979
44609SOL    HW239148   4.485   3.457   2.839 -0.0018 -1.2871  1.2573
44610SOL     OW39149   0.921   0.514   9.448 -1.3059  0.6799  0.6180
44610SOL    HW139150   0.998   0.528   9.503 -1.1552  2.9810 -0.0820
44610SOL    HW239151   0.848   0.548   9.500 -1.9114 -1.4240  1.2527
44611SOL     OW39152   4.643  10.062   5.761 -0.0436  0.0211  0.0784
44611SOL    HW139153   4.553  10.033   5.776  0.4299 -0.6952  1.7712
44611SOL    HW239154   4.675  10.087   5.847  1.6764 -0.5962 -0.3403
44612SOL     OW39155   8.781   6.173   1.851 -0.4400  0.2358 -0.4669
44612SOL    HW139156   8.816   6.111   1.915  1.3989  0.3523 -1.2972
44612SOL    HW239157   8.686   6.170   1.865 -0.2523 -1.2648  0.8553
44613SOL     OW39158   5.227   5.342   1.971 -0.0953  0.2514 -0.0393
44613SOL    HW139159   5.140   5.373   1.998  0.2247  2.6616 -1.5297
44613SOL    HW239160   5.215   5.314   1.880  0.5615 -0.1106 -0.0237
44614SOL     OW39161   2.348   4.601   2.823 -0.2145 -0.1637 -0.3081
44614SOL    HW139162   2.265   4.577   2.865 -0.4481 -0.7754 -1.1061
44614SOL    HW239163   2.328   4.604   2.730 -0.1664  2.9507 -0.3402
44615SOL     OW39164   9.447   8.579  10.064 -0.2964 -0.2218 -0.6020
44615SOL    HW139165   9.492   8.496  10.079 -1.8115 -0.9695  0.0782
44615SOL    HW239166   9.511   8.646  10.087  1.0112 -1.1859 -1.3187
44616SOL     OW39167   1.573  11.207   0.315  0.0324  0.3020 -0.1130
44616SOL    HW139168   1.661  11.243   0.325  0.0659  0.3601 -0.6158
44616SOL    HW239169   1.515  11.282   0.328  0.0885  0.4531 -0.7202
44617SOL     OW39170   5.830   4.738   7.040  0.3980  0.2048  0.0878
44617SOL    HW139171   5.760   4.695   6.991  1.0125 -2.1405  1.0939
44617SOL    HW239172   5.800   4.736   7.131  0.2391  2.4865  0.1426
44618SOL     OW39173   6.502  10.472   5.636  0.1836 -0.5733 -0.1551
44618SOL    HW139174   6.511  10.472   5.541 -0.5139  0.7527 -0.2416
44618SOL    HW239175   6.591  10.487   5.668  0.1389  0.8851 -0.6652
44619SOL     OW39176   0.558  10.775   6.416 -0.0469  0.4314  0.4934
44619SOL    HW139177   0.632  10.786   6.475 -0.3869 -0.9533  1.2373
44619SOL    HW239178   0.513  10.697   6.449 -0.3738 -0.2714 -1.4738
44620SOL     OW39179   0.747   0.365  11.633 -0.1764  0.7885 -0.1166
44620SOL    HW139180   0.842   0.370  11.632 -0.1480  0.2701 -0.9050
44620SOL    HW239181   0.728   0.274  11.656 -0.4995  1.1207  0.9677
44621SOL     OW39182   8.012  10.512   2.208 -0.2181  0.5751  0.1392
44621SOL    HW139183   7.996  10.603   2.231 -2.9745  0.3629 -0.6107
44621SOL    HW239184   7.985  10.506   2.116  1.1018 -0.7610 -0.2003
44622SOL     OW39185  10.983   9.225   3.933  0.2095  0.2744  0.0553
44622SOL    HW139186  11.022   9.301   3.889 -0.5843 -0.0225 -1.2052
44622SOL    HW239187  10.910   9.199   3.876  0.7052 -1.6813  0.2450
44623SOL     OW39188   2.162   7.082   0.201 -0.0118 -0.5139 -0.0681
44623SOL    HW139189   2.175   7.079   0.296  2.0006 -2.2571 -0.3272
44623SOL    HW239190   2.069   7.065   0.188 -0.5866  1.0771  1.6086
44624SOL     OW39191   2.037   9.722   4.089 -0.2513  0.2002  0.5288
44624SOL    HW139192   1.967   9.757   4.035 -0.2034  1.9323  1.5469
44624SOL    HW239193   2.003   9.638   4.121 -1.0939  0.1366 -0.4938
44625SOL     OW39194   8.718   0.419   1.448 -0.1768  0.1217  0.7180
44625SOL    HW139195   8.654   0.352   1.475  0.7299 -0.1168  2.4336
44625SOL    HW239196   8.781   0.421   1.520  3.0244 -1.2287 -1.7887
44626SOL     OW39197   5.719   3.502   6.997  1.0749 -0.0038  0.3936
44626SOL    HW139198   5.733   3.583   7.047  1.6703 -1.6633  3.1123
44626SOL    HW239199   5.803   3.486   6.954  0.8205  0.9962 -0.5329
44627SOL     OW39200  10.345   2.000   4.323  0.0647  0.1225 -0.2114
44627SOL    HW139201  10.272   2.057   4.348  0.0525 -0.2473  0.6370
44627SOL    HW239202  10.338   1.991   4.228 -0.2377  1.1148 -0.2871
44628SOL     OW39203   8.334   5.943   3.836  0.1818 -0.0190  0.5245
44628SOL    HW139204   8.256   5.924   3.889 -0.9900 -0.1294 -1.1781
44628SOL    HW239205   8.303   5.943   3.746  2.3218 -0.8779 -0.2787
44629SOL     OW39206   7.621   1.292   1.544  0.0989 -0.4497  0.0516
44629SOL    HW139207   7.529   1.285   1.520  0.7346 -1.0420 -2.5924
44629SOL    HW239208   7.652   1.371   1.499  1.2670 -1.3011 -0.6992
44630SOL     OW39209   4.435  10.271   3.681  0.2387 -0.9932 -0.4931
44630SOL    HW139210   4.349  10.272   3.639  0.2682  2.5559 -0.7946
44630SOL    HW239211   4.487  10.334   3.630  2.2931 -1.2925  1.0980
44631SOL     OW39212   5.169   7.377   9.170 -0.0285 -0.2179 -0.0341
44631SOL    HW139213   5.241   7.430   9.135  0.3644 -0.5948  0.1974
44631SOL    HW239214   5.186   7.371   9.263 -0.4022 -0.2549  0.0341
44632SOL     OW39215  11.629   6.015   2.594 -0.2057  0.1034 -0.1115
44632SOL    HW139216  11.675   5.993   2.512 -1.0738  2.5323 -1.3596
44632SOL    HW239217  11.538   5.991   2.577 -0.2758  0.0077  0.4038
44633SOL     OW39218   2.364   6.331   6.514  0.0001 -0.0953 -0.3836
44633SOL    HW139219   2.312   6.385   6.455  1.8444  3.4234  0.8914
44633SOL    HW239220   2.436   6.298   6.459 -0.9874 -1.1080 -1.1122
44634SOL     OW39221  11.170   0.897  10.662 -0.2701 -0.4508 -0.1368
44634SOL    HW139222  11.122   0.825  10.703  0.8756 -0.8998  0.4530
44634SOL    HW239223  11.202   0.861  10.580  1.5989 -1.1651  0.8346
44635SOL     OW39224   3.093   7.827   4.969 -0.0029 -0.5271  0.1194
44635SOL    HW139225   3.141   7.879   5.034 -0.3352  0.2107 -0.2174
44635SOL    HW239226   3.162   7.784   4.918  0.2922  0.0226  0.0473
44636SOL     OW39227   3.367   5.665  11.167  0.2511 -0.0907 -1.0184
44636SOL    HW139228   3.327   5.600  11.109  0.1120 -0.8357 -0.1152
44636SOL    HW239229   3.394   5.615  11.244 -0.5920  1.0311  0.0552
44637SOL     OW39230   9.690   8.254   5.697 -0.5217 -0.1863  0.5735
44637SOL    HW139231   9.725   8.299   5.774  0.7592 -0.1152 -0.0210
44637SOL    HW239232   9.746   8.177   5.686 -2.0420 -1.4129  0.9699
44638SOL     OW39233   6.993   6.833   6.191 -0.5130 -0.5761  0.5860
44638SOL    HW139234   6.921   6.830   6.128 -0.7703  1.2276  0.7208
44638SOL    HW239235   6.949   6.838   6.276 -0.2214 -0.5121  0.7334
44639SOL     OW39236  10.946   0.864   6.952  0.4115 -0.1565 -0.0025
44639SOL    HW139237  10.938   0.940   7.009 -2.0952  0.3608 -0.9296
44639SOL    HW239238  10.885   0.800   6.988 -0.5319 -0.1670 -1.5435
44640SOL     OW39239   1.580   3.793  10.644 -0.1721  0.1293  0.2254
44640SOL    HW139240   1.588   3.882  10.609  2.5267 -0.0593  0.1679
44640SOL    HW239241   1.553   3.805  10.735 -0.1749  1.0057  0.1136
44641SOL     OW39242   9.884   5.838   2.467  0.3439 -0.1181 -0.5740
44641SOL    HW139243   9.930   5.769   2.419 -0.4210 -1.3847  0.4559
44641SOL    HW239244   9.884   5.913   2.407  1.9981 -0.6924 -1.3672
44642SOL     OW39245   2.204   4.587   0.923 -0.8296  0.5990  0.7906
44642SOL    HW139246   2.292   4.590   0.961  0.4221 -1.4922 -1.6257
44642SOL    HW239247   2.190   4.675   0.889  1.6497  0.2794 -1.3355
44643SOL     OW39248  11.480  11.717   8.349 -0.1311  0.0552 -0.7902
44643SOL    HW139249  11.564  11.717   8.303 -0.3442 -0.1216 -1.1888
44643SOL    HW239250  11.480  11.798   8.400  0.1221  0.2449 -1.0878
44644SOL     OW39251   8.036   0.779   9.577 -0.2715 -0.0050  0.0537
44644SOL    HW139252   8.125   0.755   9.553 -0.6351 -1.7016  0.2347
44644SOL    HW239253   7.982   0.744   9.507 -0.8272  0.6434  0.1530
44645SOL     OW39254   1.245   3.814  10.486  0.2267  0.6441  1.1214
44645SOL    HW139255   1.306   3.841  10.417 -1.3333  0.2838 -0.4751
44645SOL    HW239256   1.292   3.832  10.568  2.0219  1.3967 -0.0067
44646SOL     OW39257   0.798   7.985   8.202  0.2777 -0.5933 -0.4456
44646SOL    HW139258   0.786   8.075   8.171  1.1746  1.0935  3.4744
44646SOL    HW239259   0.710   7.949   8.207 -0.3425  0.8967 -0.0465
44647SOL     OW39260   7.103  11.382   3.538 -0.1820  0.1559  0.4394
44647SOL    HW139261   7.080  11.469   3.508  0.7662  0.4068  0.4137
44647SOL    HW239262   7.141  11.338   3.462  0.0287 -0.0230  0.6431
44648SOL     OW39263  10.353  10.456   1.130 -0.1829 -0.0725 -0.4313
44648SOL    HW139264  10.368  10.380   1.073 -1.0715 -0.0197 -0.7485
44648SOL    HW239265  10.270  10.493   1.099  0.7903  1.7237 -1.0382
44649SOL     OW39266   8.485   5.559   7.091 -0.3355 -0.2469  0.1777
44649SOL    HW139267   8.562   5.507   7.066  0.5078  0.4432  1.2531
44649SOL    HW239268   8.481   5.552   7.186  0.1950  2.1400  0.4485
44650SOL     OW39269   7.451   7.103   5.680  0.3889  0.3743 -0.2572
44650SOL    HW139270   7.405   7.187   5.668 -2.1754 -0.4030  2.8638
44650SOL    HW239271   7.414   7.067   5.760  3.8216 -2.2610  0.3492
44651SOL     OW39272   9.194   7.367   5.073  0.1590 -0.1622 -0.0094
44651SOL    HW139273   9.200   7.289   5.130 -0.4978 -0.5555 -0.4678
44651SOL    HW239274   9.263   7.425   5.106 -0.6187 -0.0974  1.6238
44652SOL     OW39275   3.466   1.326  11.030 -0.1694 -0.0114 -0.4075
44652SOL    HW139276   3.374   1.316  11.054  0.3420 -0.3047  1.5540
44652SOL    HW239277   3.476   1.270  10.953 -1.5172 -0.3785 -0.3456
44653SOL     OW39278   8.943   9.933   0.803  0.1114  0.2638 -0.3484
44653SOL    HW139279   8.936   9.852   0.752  0.2172 -0.2424  0.4249
44653SOL    HW239280   8.999   9.911   0.877  0.0870  1.0273 -0.0884
44654SOL     OW39281   5.905   9.185  11.326  0.0466 -0.5591 -0.3321
44654SOL    HW139282   5.879   9.154  11.239 -0.3201 -1.1134 -0.0324
44654SOL    HW239283   5.956   9.264  11.309  0.6610 -1.1080 -1.0922
44655SOL     OW39284   1.915   8.209   3.754  0.0445 -0.1009  0.2057
44655SOL    HW139285   1.910   8.137   3.817 -0.8164  0.1811  0.4729
44655SOL    HW239286   1.971   8.274   3.796  1.1459 -0.7679 -0.2039
44656SOL     OW39287   7.748   9.639   0.169  0.0904 -0.7137  0.3037
44656SOL    HW139288   7.765   9.656   0.262  2.6520  1.4753 -0.4534
44656SOL    HW239289   7.818   9.579   0.143  1.6057  1.4352 -0.9031
44657SOL     OW39290   5.808   6.332   1.795  0.0818 -1.1157 -0.3193
44657SOL    HW139291   5.853   6.330   1.711 -0.6211 -0.1971 -0.7345
44657SOL    HW239292   5.740   6.399   1.785 -0.4420 -1.4522  0.7613
44658SOL     OW39293   9.935   7.657   6.868  0.1992 -0.1066 -0.2297
44658SOL    HW139294   9.971   7.637   6.782 -0.9360 -0.9646 -0.5351
44658SOL    HW239295   9.991   7.726   6.903 -0.5503  1.7665 -2.5023
44659SOL     OW39296   9.647   8.854  10.764  0.2145 -0.4493  0.3128
44659SOL    HW139297   9.555   8.863  10.740 -0.1497 -0.2811  1.6926
44659SOL    HW239298   9.658   8.913  10.839  1.8373  0.7426 -0.8029
44660SOL     OW39299   6.082   0.276   0.164  0.2908  0.3058 -0.0024
44660SOL    HW139300   6.112   0.199   0.213  2.0316  0.5178 -0.6327
44660SOL    HW239301   6.079   0.346   0.229 -2.3646 -0.4548  0.8124
44661SOL     OW39302  11.201  11.176   4.306 -0.2275 -0.3532  0.4911
44661SOL    HW139303  11.241  11.146   4.388 -0.7324  1.5005  1.4809
44661SOL    HW239304  11.261  11.244   4.274 -0.0934 -0.9915 -0.6382
44662SOL     OW39305   7.870   8.420   1.482  0.1477 -0.0433  0.0161
44662SOL    HW139306   7.804   8.489   1.492  0.3279  0.3971 -1.5478
44662SOL    HW239307   7.866   8.397   1.389  1.7641 -0.4656  0.0326
44663SOL     OW39308   2.170   6.604   4.705 -0.7137 -0.0837  0.0329
44663SOL    HW139309   2.165   6.529   4.645 -1.5032 -0.0892  0.0899
44663SOL    HW239310   2.099   6.662   4.677  0.5627  1.1825 -0.6988
44664SOL     OW39311   6.970   1.458   1.287 -0.0238  0.2304  0.1640
44664SOL    HW139312   6.897   1.482   1.345  0.4097  0.6862  0.5258
44664SOL    HW239313   6.956   1.510   1.208  1.5353  2.6837  1.3604
44665SOL     OW39314   0.833   4.993   7.882  0.6189  0.5899 -0.2935
44665SOL    HW139315   0.879   4.916   7.850  0.0925  0.3526 -0.4913
44665SOL    HW239316   0.816   4.974   7.974 -0.8210 -0.1973 -0.6859
44666SOL     OW39317   7.381   2.349   9.538 -0.3242 -0.3400  0.2176
44666SOL    HW139318   7.444   2.351   9.609 -0.9729 -0.6872  0.8111
44666SOL    HW239319   7.359   2.441   9.523  1.1607 -0.1069 -0.7755
44667SOL     OW39320   5.661  10.151   9.383  0.2708  0.4242 -0.0567
44667SOL    HW139321   5.729  10.152   9.450 -0.7421  0.9442  1.0052
44667SOL    HW239322   5.618  10.066   9.394 -0.0086  0.5815  0.0816
44668SOL     OW39323   0.293  10.133   5.739  0.0588  0.4769  0.5736
44668SOL    HW139324   0.388  10.127   5.728  0.1739  1.5938  0.9038
44668SOL    HW239325   0.258  10.088   5.662  0.8478 -0.1270  0.5488
44669SOL     OW39326   1.779   9.052   6.349 -0.2540  0.0026 -0.3179
44669SOL    HW139327   1.721   9.020   6.419 -0.2829  0.7255 -0.0004
44669SOL    HW239328   1.833   8.976   6.327  0.0579 -0.1342  0.8061
44670SOL     OW39329   0.288   7.619   9.306  0.2924 -0.0944 -0.4027
44670SOL    HW139330   0.324   7.704   9.280  0.1721  0.1065  0.0801
44670SOL    HW239331   0.283   7.570   9.225 -1.4635  1.0287 -1.0358
44671SOL     OW39332   4.173  10.792   3.144  0.0804  0.1513  0.1974
44671SOL    HW139333   4.263  10.819   3.162 -0.0978  0.4573  0.6573
44671SOL    HW239334   4.161  10.809   3.051  1.2196 -2.0492 -0.4072
44672SOL     OW39335   4.628   9.518   3.332 -0.2782 -0.0679 -0.2531
44672SOL    HW139336   4.648   9.609   3.310 -1.8980  0.3780 -0.0338
44672SOL    HW239337   4.627   9.517   3.427 -1.4078 -0.0186 -0.2535
44673SOL     OW39338   5.759   0.998  10.535  0.4998 -0.2583 -0.1161
44673SOL    HW139339   5.818   0.924  10.554 -0.2273 -1.5561 -2.5208
44673SOL    HW239340   5.779   1.022  10.445 -1.8986 -0.0671 -0.6565
44674SOL     OW39341   4.217   2.806   0.094 -0.6599  1.0924  0.2823
44674SOL    HW139342   4.176   2.759   0.167 -0.0087  0.0213 -0.0206
44674SOL    HW239343   4.289   2.749   0.066  0.1530  2.2765 -0.1119
44675SOL     OW39344   6.763   8.317  11.670  0.0291  0.4538 -0.9192
44675SOL    HW139345   6.755   8.404  11.710  1.7460  0.2375  0.0019
44675SOL    HW239346   6.683   8.306  11.619 -1.3057  1.6308  0.8065
44676SOL     OW39347   1.545   7.803   7.794 -0.8621  0.3276  0.0086
44676SOL    HW139348   1.563   7.765   7.707  1.2236 -1.0727  0.9656
44676SOL    HW239349   1.612   7.870   7.805 -0.9064  0.2614  0.6794
44677SOL     OW39350   2.276   5.734   0.328  0.0740  0.5820  0.1353
44677SOL    HW139351   2.305   5.802   0.268  0.0201  1.2869  0.9006
44677SOL    HW239352   2.351   5.717   0.384  0.0069  0.1854  0.1124
44678SOL     OW39353  11.250   2.280   0.030 -0.1396 -0.2789 -0.1315
44678SOL    HW139354  11.219   2.371   0.033 -0.5002 -0.4184  0.6954
44678SOL    HW239355  11.175   2.230  -0.002 -0.7095 -0.5707  1.5458
44679SOL     OW39356   1.595   9.065   6.587 -0.0208 -0.2010  0.1859
44679SOL    HW139357   1.524   9.001   6.584 -0.5280  0.2900  1.1654
44679SOL    HW239358   1.554   9.147   6.558  0.7617 -0.4035 -1.6336
44680SOL     OW39359  10.147   8.455   1.870  0.0861 -0.1385  0.4599
44680SOL    HW139360  10.142   8.361   1.850 -1.0818  0.1819 -0.9989
44680SOL    HW239361  10.056   8.485   1.865  0.6891  1.6530 -2.4509
44681SOL     OW39362   6.354   4.746   9.666 -0.2388 -0.8344  0.1843
44681SOL    HW139363   6.358   4.777   9.757  0.2230 -2.6416  0.8147
44681SOL    HW239364   6.275   4.786   9.631 -1.4928 -1.5830  1.9883
44682SOL     OW39365   6.886   9.592   1.234 -0.0280 -0.0582  0.7124
44682SOL    HW139366   6.952   9.643   1.280 -1.4444  1.9593  0.6441
44682SOL    HW239367   6.828   9.559   1.302 -1.4531  1.9508  0.5603
44683SOL     OW39368   5.471   1.710  11.784  0.5341 -0.4192 -0.5305
44683SOL    HW139369   5.509   1.770  11.847  2.8168 -3.2324  0.9855
44683SOL    HW239370   5.435   1.638  11.836 -2.8057 -0.1914 -2.2004
44684SOL     OW39371  10.989   6.408   9.900  0.5997  0.4579 -0.2120
44684SOL    HW139372  11.005   6.462   9.977 -0.9705 -1.0692  1.2492
44684SOL    HW239373  10.984   6.319   9.934 -1.1138 -0.1514 -1.9236
44685SOL     OW39374   6.065   7.542   8.056 -0.0780  0.4938 -0.1725
44685SOL    HW139375   6.026   7.556   7.970 -1.8812  3.2138  0.9619
44685SOL    HW239376   6.155   7.515   8.038  0.2782  3.0943 -2.9616
44686SOL     OW39377   1.710   9.863   4.884 -0.8758 -0.0034 -0.2899
44686SOL    HW139378   1.742   9.773   4.870  1.9925  0.4560  2.1856
44686SOL    HW239379   1.707   9.873   4.979  1.2596  3.1605 -0.3931
44687SOL     OW39380   5.647   7.119   7.499 -0.4277  0.3727  0.4138
44687SOL    HW139381   5.604   7.126   7.584  0.5810 -2.2259  1.2632
44687SOL    HW239382   5.734   7.158   7.513 -0.4481  0.4151  0.4227
44688SOL     OW39383   1.074   7.049   1.474 -0.6498  0.2790  0.2123
44688SOL    HW139384   1.124   7.104   1.534  1.2190 -1.0968  0.0252
44688SOL    HW239385   0.992   7.029   1.520 -0.0300  0.7245  1.5328
44689SOL     OW39386   7.918   2.671   9.935  1.1476 -0.7962  0.3153
44689SOL    HW139387   7.853   2.638   9.996 -0.0415  3.1188  1.4945
44689SOL    HW239388   7.997   2.685   9.988  1.7418 -1.8933 -0.2364
44690SOL     OW39389  10.908   5.250   8.818  0.7325 -0.0348 -0.4001
44690SOL    HW139390  10.883   5.284   8.732  0.3438  1.6561  0.3347
44690SOL    HW239391  10.974   5.311   8.849 -1.1081  1.0662  1.6487
44691SOL     OW39392  11.684   6.848   4.624 -1.0514  0.1469 -0.1550
44691SOL    HW139393  11.633   6.776   4.587 -0.9306  0.4142 -0.8474
44691SOL    HW239394  11.737   6.881   4.551 -2.0579  1.7817 -0.2100
44692SOL     OW39395   5.009   0.228   9.893  0.4977 -0.2099 -0.1208
44692SOL    HW139396   5.042   0.144   9.923  1.0791 -0.3582 -1.1326
44692SOL    HW239397   5.080   0.290   9.911 -0.1309  0.1900  1.1158
44693SOL     OW39398   7.330   6.155   7.557  0.5253  0.3165 -0.0660
44693SOL    HW139399   7.378   6.185   7.479  1.8107  1.2992  1.0609
44693SOL    HW239400   7.386   6.179   7.630 -0.7613 -0.4054  1.1945
44694SOL     OW39401   4.535   1.891   5.785 -0.2199  0.1787 -0.0143
44694SOL    HW139402   4.627   1.870   5.798 -0.0562  1.1768  0.5755
44694SOL    HW239403   4.522   1.973   5.834 -1.9060 -1.0273  1.7480
44695SOL     OW39404   9.473   3.595   1.508 -0.1064 -0.2236 -0.1830
44695SOL    HW139405   9.410   3.585   1.579  1.0390  1.9953  1.2539
44695SOL    HW239406   9.436   3.663   1.451  1.1731  1.5605  1.0160
44696SOL     OW39407  10.537   2.389   1.530 -0.2190 -0.0219 -0.4044
44696SOL    HW139408  10.491   2.468   1.499  0.0309  0.5472  0.6048
44696SOL    HW239409  10.468   2.335   1.569 -0.3550 -0.1979 -0.8819
44697SOL     OW39410   0.311  10.617   4.881 -0.5366 -0.0662  0.2615
44697SOL    HW139411   0.223  10.656   4.871 -0.5601  0.1622  1.2128
44697SOL    HW239412   0.364  10.688   4.918 -0.0228 -0.2949 -0.0275
44698SOL     OW39413   0.237   7.789   8.368 -0.4755 -0.8737 -0.2195
44698SOL    HW139414   0.309   7.731   8.341  0.1324 -0.0462 -0.4297
44698SOL    HW239415   0.254   7.871   8.322 -1.5032 -0.6247 -0.1773
44699SOL     OW39416   8.263  10.878  10.427  0.3206  0.2954  0.0261
44699SOL    HW139417   8.271  10.786  10.403  0.3228 -0.2832  2.0245
44699SOL    HW239418   8.350  10.903  10.457  0.6656  1.3770 -1.7602
44700SOL     OW39419   8.153   7.958   0.248  0.4032  0.1651 -0.3071
44700SOL    HW139420   8.186   7.871   0.227 -2.4260 -1.2039  0.3275
44700SOL    HW239421   8.128   7.995   0.163  0.2473 -0.2934 -0.4695
44701SOL     OW39422   2.460   9.115   7.438  0.1996 -0.0633  0.3046
44701SOL    HW139423   2.510   9.141   7.361 -0.2078  2.0240  0.6739
44701SOL    HW239424   2.373   9.092   7.403  0.0940  0.6257  0.0845
44702SOL     OW39425   5.390   4.849   4.325  0.0035 -0.3932 -0.3343
44702SOL    HW139426   5.402   4.916   4.392 -0.1947 -1.9984  1.3907
44702SOL    HW239427   5.364   4.897   4.246  1.8142  1.7052  0.2631
44703SOL     OW39428   1.788   5.742   9.591 -0.1866  0.1723 -0.5375
44703SOL    HW139429   1.785   5.668   9.529 -0.1874 -0.1274 -0.1849
44703SOL    HW239430   1.710   5.793   9.571  0.5781  0.9012 -1.7864
44704SOL     OW39431   5.861   3.500  10.779  0.0228 -0.3347  0.1880
44704SOL    HW139432   5.927   3.527  10.842 -0.4040  0.5702  0.2618
44704SOL    HW239433   5.911   3.473  10.702  0.5078 -0.6161  0.5969
44705SOL     OW39434   8.106   0.646   0.958  0.1420  0.4384  0.0594
44705SOL    HW139435   8.117   0.672   1.049 -1.7712 -1.4043  0.8822
44705SOL    HW239436   8.196   0.635   0.926  0.9116 -1.8450  2.6494
44706SOL     OW39437   3.493   4.689   4.719  0.5080 -0.4146  0.0085
44706SOL    HW139438   3.552   4.757   4.751  1.1169 -1.6888  1.7317
44706SOL    HW239439   3.489   4.625   4.790 -1.6565 -1.1928 -0.7242
44707SOL     OW39440   3.660   1.497   5.495 -0.7224 -0.3269 -0.3108
44707SOL    HW139441   3.659   1.403   5.478 -0.6331 -0.4332  0.2634
44707SOL    HW239442   3.571   1.517   5.525 -0.8164 -0.1781 -0.6779
44708SOL     OW39443   0.203   1.962   6.494 -0.1464 -0.1030 -0.3837
44708SOL    HW139444   0.263   1.959   6.569  0.3990  0.7304 -0.7723
44708SOL    HW239445   0.228   1.887   6.440  1.5773  1.0504 -1.2894
44709SOL     OW39446   1.062   8.799  10.723  0.1132 -0.1427 -0.2344
44709SOL    HW139447   1.003   8.843  10.661 -0.1402 -1.2208 -0.7768
44709SOL    HW239448   1.127   8.866  10.745 -0.1863  0.4719 -1.1454
44710SOL     OW39449   7.232   8.024   0.395  0.0152  0.2411  0.0120
44710SOL    HW139450   7.190   8.094   0.346  1.4083  0.8150 -0.3884
44710SOL    HW239451   7.295   7.986   0.334  1.2689  0.5001  1.0954
44711SOL     OW39452   1.554   3.410   8.099 -0.0833 -0.0134  0.1944
44711SOL    HW139453   1.581   3.354   8.026  2.1476 -0.2982  1.1336
44711SOL    HW239454   1.516   3.349   8.163 -1.5138  0.1608 -0.4568
44712SOL     OW39455   6.797   8.421   1.863 -0.4869  0.2579  0.5442
44712SOL    HW139456   6.751   8.379   1.791  1.2910 -1.7992  0.5052
44712SOL    HW239457   6.751   8.393   1.942  0.0920 -1.0545  0.4446
44713SOL     OW39458   0.107   9.750   2.366 -0.3503 -0.4078 -0.4996
44713SOL    HW139459   0.099   9.655   2.360 -1.6625 -0.2894 -0.8349
44713SOL    HW239460   0.052   9.774   2.441 -3.7183  0.4587 -3.0175
44714SOL     OW39461   9.884   5.247   2.720 -0.0040 -0.2101  0.0981
44714SOL    HW139462   9.841   5.194   2.653  1.6562  0.2780 -1.4107
44714SOL    HW239463   9.923   5.183   2.780 -0.4706 -0.6507 -0.0616
44715SOL     OW39464   0.152   5.921   1.758  0.2659 -1.0001  0.0983
44715SOL    HW139465   0.119   6.001   1.799 -2.6889 -1.6926 -0.6857
44715SOL    HW239466   0.236   5.946   1.721 -0.7887  1.9544 -0.6055
44716SOL     OW39467   6.756   8.021   0.134  0.1252 -0.1349  0.0265
44716SOL    HW139468   6.669   8.060   0.142  0.7998  1.5360 -0.5624
44716SOL    HW239469   6.768   8.009   0.040  1.0393  0.8596  0.0052
44717SOL     OW39470   8.433   0.738   5.923  0.3472  0.3850  0.2300
44717SOL    HW139471   8.520   0.703   5.943  1.2634  1.1365 -2.0890
44717SOL    HW239472   8.378   0.660   5.911  1.2104 -0.1640 -0.2756
44718SOL     OW39473   8.944   9.884  10.380 -0.4177  0.2505  0.4282
44718SOL    HW139474   9.027   9.852  10.343 -0.5240  0.6387 -0.1642
44718SOL    HW239475   8.966   9.908  10.470 -0.2779 -1.2175  0.8106
44719SOL     OW39476   3.294   0.404   3.459  0.3635 -0.3100 -1.3407
44719SOL    HW139477   3.231   0.334   3.442  1.1275 -1.3017 -0.3078
44719SOL    HW239478   3.296   0.410   3.554  1.7089 -0.2097 -1.3625
44720SOL     OW39479   6.290   3.272   8.634 -0.1823 -0.0600 -0.8542
44720SOL    HW139480   6.245   3.336   8.689 -0.7951 -1.5007  0.3831
44720SOL    HW239481   6.223   3.239   8.575 -0.1624 -0.4680 -0.6461
44721SOL     OW39482   4.995   6.877   4.376  0.0686  0.1585 -0.1746
44721SOL    HW139483   5.045   6.811   4.329  2.3526  1.6035  0.0395
44721SOL    HW239484   5.031   6.961   4.345 -1.8441  1.2918  0.4636
44722SOL     OW39485   8.068   6.601   5.804 -0.3290  0.1367 -0.0134
44722SOL    HW139486   7.976   6.575   5.804 -0.7055  1.3993  0.1869
44722SOL    HW239487   8.090   6.616   5.712  0.3643 -2.3435 -0.3274
44723SOL     OW39488   5.395  10.811   4.124  0.2302  0.1526 -0.1322
44723SOL    HW139489   5.340  10.839   4.051  2.0444  0.4875 -1.4486
44723SOL    HW239490   5.459  10.753   4.085 -0.4018 -1.9297  1.7165
44724SOL     OW39491   1.532   5.649   4.119 -0.0381 -0.6767 -0.4691
44724SOL    HW139492   1.453   5.691   4.153  0.6628  0.7600 -0.5372
44724SOL    HW239493   1.548   5.691   4.035  0.9030 -0.8071 -0.3693
44725SOL     OW39494   5.229   2.810   4.686  0.0010  0.5257 -0.0307
44725SOL    HW139495   5.264   2.780   4.602  0.8816 -2.3595  1.2237
44725SOL    HW239496   5.141   2.772   4.690  0.4601 -0.5059  0.8428
44726SOL     OW39497   6.595  11.763   7.297 -0.4032  0.5427 -0.6204
44726SOL    HW139498   6.539  11.785   7.372  0.5791  0.1971  0.2338
44726SOL    HW239499   6.619  11.848   7.260  0.3627  0.8159  0.4213
44727SOL     OW39500   6.475   9.139   0.254 -0.0118 -0.6592 -0.2064
44727SOL    HW139501   6.411   9.073   0.281 -0.1037 -0.5781 -0.2255
44727SOL    HW239502   6.526   9.095   0.185  0.7470 -1.1487  0.6483
44728SOL     OW39503   4.290   5.970   3.562  0.0059  0.5055 -0.8339
44728SOL    HW139504   4.295   6.013   3.477 -0.1200 -1.8039 -2.0951
44728SOL    HW239505   4.290   6.042   3.625  1.5279  2.2682 -2.6880
44729SOL     OW39506   7.232   2.292   8.268 -0.3564  0.3963  0.4835
44729SOL    HW139507   7.137   2.303   8.279 -0.3664 -0.9252  2.2462
44729SOL    HW239508   7.243   2.200   8.244  0.4599  0.6692 -0.2344
44730SOL     OW39509   8.960   2.051   2.199 -1.2513  0.3942 -0.3950
44730SOL    HW139510   9.021   1.979   2.215 -0.2415  1.2341 -0.3585
44730SOL    HW239511   8.890   2.012   2.147 -0.8380 -0.6630 -0.1863
44731SOL     OW39512   6.685   4.724   8.148  0.0006 -0.2049  0.4023
44731SOL    HW139513   6.734   4.797   8.109  0.2476  0.6487  2.1918
44731SOL    HW239514   6.731   4.646   8.120  0.4289  0.3904 -0.6079
44732SOL     OW39515   1.327   2.377   0.265  0.1867 -0.5010  0.0037
44732SOL    HW139516   1.413   2.365   0.227  0.8615 -2.7785  1.9618
44732SOL    HW239517   1.339   2.358   0.358 -2.4384 -1.0705  0.3151
44733SOL     OW39518   4.509   4.897  10.960  0.1795  0.3739 -0.1761
44733SOL    HW139519   4.519   4.832  11.029 -0.0597  1.5230  0.9610
44733SOL    HW239520   4.423   4.936  10.975  1.0363  2.2047  0.2857
44734SOL     OW39521   6.002   5.876  10.162  0.1693 -0.0475  0.0356
44734SOL    HW139522   6.080   5.931  10.161 -1.2319  2.0865  0.9991
44734SOL    HW239523   5.948   5.909  10.090  0.2439 -1.7284 -0.8432
44735SOL     OW39524   3.692   7.933   9.414 -0.0428  0.1052  0.0279
44735SOL    HW139525   3.605   7.943   9.451 -0.2572 -0.0585 -0.4232
44735SOL    HW239526   3.739   7.877   9.477 -0.3610 -0.0660  0.1148
44736SOL     OW39527   5.191   8.521   0.109  0.3837 -0.0892 -0.3159
44736SOL    HW139528   5.194   8.589   0.177  0.6770 -1.0857  0.7046
44736SOL    HW239529   5.142   8.449   0.150  0.3152 -0.5972 -1.2759
44737SOL     OW39530   2.658   9.876   7.840  0.7012 -0.0915 -0.2420
44737SOL    HW139531   2.605   9.849   7.915  1.5915  0.5983  0.6705
44737SOL    HW239532   2.619   9.830   7.766 -0.5208 -0.4098  0.5512
44738SOL     OW39533   2.484   3.751   7.774  0.1710 -0.4323 -0.3023
44738SOL    HW139534   2.463   3.686   7.707  1.6069  0.9430 -2.2113
44738SOL    HW239535   2.560   3.797   7.740 -0.0052  1.4125  1.5627
44739SOL     OW39536   9.777   1.850   5.670  0.6898 -0.2305 -0.3097
44739SOL    HW139537   9.817   1.795   5.737 -1.9541 -1.3098  0.5254
44739SOL    HW239538   9.754   1.790   5.599  0.1367  0.2341 -0.5417
44740SOL     OW39539   6.849   8.097   9.690  0.2925 -0.2452 -0.4968
44740SOL    HW139540   6.797   8.083   9.611 -0.2963 -0.3436 -0.1020
44740SOL    HW239541   6.921   8.034   9.683  1.3624  1.0431 -1.8765
44741SOL     OW39542   0.648   6.240   9.011 -0.2794  0.1813  0.2788
44741SOL    HW139543   0.727   6.203   9.049 -0.2844 -0.5423 -0.4029
44741SOL    HW239544   0.651   6.216   8.919 -1.8599 -0.8854  0.4713
44742SOL     OW39545   8.363   8.241  11.032 -0.3634  0.8342  0.0805
44742SOL    HW139546   8.284   8.239  10.978 -0.8290 -5.1765  0.3467
44742SOL    HW239547   8.330   8.252  11.121 -0.7665 -0.0618  0.0511
44743SOL     OW39548   4.762  11.693   9.652  0.0652 -0.0515  0.2063
44743SOL    HW139549   4.857  11.685   9.641  0.2417 -2.0586  2.4154
44743SOL    HW239550   4.752  11.758   9.721 -0.2741  0.8160 -0.6242
44744SOL     OW39551   3.642   4.907   8.387 -0.6068  0.0802  0.7297
44744SOL    HW139552   3.612   4.842   8.450 -1.7168  0.1897  0.3513
44744SOL    HW239553   3.699   4.965   8.437 -1.7869  0.3989  1.7477
44745SOL     OW39554  10.143   2.207   0.893 -0.0889 -0.6166 -0.2360
44745SOL    HW139555  10.136   2.208   0.797 -0.8425  0.6173 -0.1837
44745SOL    HW239556  10.052   2.200   0.923 -0.1508  1.8856  0.3805
44746SOL     OW39557   2.414   6.091   0.468  0.3649  0.6983 -0.0473
44746SOL    HW139558   2.499   6.062   0.436  1.4157  0.9733  2.3285
44746SOL    HW239559   2.395   6.169   0.416  2.3976  1.6364  0.5186
44747SOL     OW39560   4.361   1.600   0.945 -0.3414 -0.0034 -0.5687
44747SOL    HW139561   4.444   1.554   0.959 -1.7918 -2.2542  1.4429
44747SOL    HW239562   4.336   1.631   1.032 -1.0740  1.7480 -1.3458
44748SOL     OW39563   3.229   7.823   9.756  0.3997  0.0538  0.1976
44748SOL    HW139564   3.143   7.782   9.759 -0.4768  1.8750  1.8064
44748SOL    HW239565   3.224   7.894   9.819  2.1968  1.9645 -1.6669
44749SOL     OW39566  11.539   1.236   8.228 -0.2071 -0.3792  0.1348
44749SOL    HW139567  11.505   1.286   8.153  1.1827  0.5608  0.0839
44749SOL    HW239568  11.610   1.290   8.262 -0.1760 -1.2549  1.5521
44750SOL     OW39569   9.645   1.846   6.457  0.4402  0.4362 -0.1271
44750SOL    HW139570   9.637   1.892   6.541 -0.8708 -1.1969  0.6942
44750SOL    HW239571   9.732   1.806   6.460  0.7578  1.1089  0.0325
44751SOL     OW39572   0.190   9.298  10.513 -0.1727 -0.4018  0.0431
44751SOL    HW139573   0.191   9.222  10.570  0.0377 -0.5435 -0.1516
44751SOL    HW239574   0.158   9.265  10.429 -0.2313 -0.2444  0.0028
44752SOL     OW39575   2.117  11.140   8.797  0.2865  0.1307 -0.4149
44752SOL    HW139576   2.136  11.106   8.884 -0.1766  0.5137 -0.1652
44752SOL    HW239577   2.112  11.062   8.742  2.4150 -0.0135 -0.4742
44753SOL     OW39578   7.046  10.279   8.856 -0.2092  0.1718 -0.0880
44753SOL    HW139579   7.131  10.240   8.878 -0.3911 -0.4884 -0.5421
44753SOL    HW239580   7.065  10.373   8.847  0.3677  0.1027  0.3263
44754SOL     OW39581   7.950   8.725   4.997  0.0261  0.3822 -0.5027
44754SOL    HW139582   7.863   8.737   4.961 -0.0903 -1.0262 -0.7415
44754SOL    HW239583   7.945   8.762   5.086 -0.9063  0.0108 -0.3977
44755SOL     OW39584   0.383  11.403   3.815  0.8689  0.4368 -0.1280
44755SOL    HW139585   0.322  11.357   3.873 -2.0835  2.6020 -1.2736
44755SOL    HW239586   0.456  11.428   3.872  0.4222 -1.5992  1.4885
44756SOL     OW39587   4.883   7.916   2.977  0.1103  0.3711  0.0971
44756SOL    HW139588   4.877   8.011   2.984 -1.1132  0.3233 -0.0579
44756SOL    HW239589   4.899   7.886   3.066 -2.2404  0.5732  0.6467
44757SOL     OW39590   9.796   2.041   0.284 -0.1588 -0.2404 -0.6481
44757SOL    HW139591   9.730   2.082   0.340 -0.4882 -0.9960 -0.4646
44757SOL    HW239592   9.816   1.958   0.328  2.5806  0.9168  0.5272
44758SOL     OW39593   6.672   0.686   4.046  0.2026  0.0673  0.4659
44758SOL    HW139594   6.591   0.721   4.008  0.9819  0.5426 -0.8566
44758SOL    HW239595   6.702   0.621   3.982  1.2651  0.4689  0.5306
44759SOL     OW39596   8.865   9.976   5.609 -0.3598  0.2629  0.2594
44759SOL    HW139597   8.833   9.938   5.691  0.7939 -1.0241  0.1461
44759SOL    HW239598   8.815   9.931   5.541 -0.7233  0.7242  0.2210
44760SOL     OW39599   8.160   4.765   2.204 -0.0860 -0.3582  0.0958
44760SOL    HW139600   8.240   4.712   2.204  0.5108  0.5206 -0.2392
44760SOL    HW239601   8.123   4.753   2.117 -0.7559 -1.3836  0.5035
44761SOL     OW39602   3.642   2.194   4.400  0.1561 -0.1500  0.1140
44761SOL    HW139603   3.648   2.133   4.473 -0.1388  0.5416  0.7329
44761SOL    HW239604   3.582   2.152   4.338 -1.4875  0.2872  1.3318
44762SOL     OW39605   3.945   3.854   3.308  0.0032 -0.1817 -0.1621
44762SOL    HW139606   4.027   3.811   3.332  0.1333  1.1176  1.9847
44762SOL    HW239607   3.963   3.947   3.318 -1.0717  0.2784 -2.0304
44763SOL     OW39608   9.290   7.938   1.694 -0.1484  0.0808  0.0457
44763SOL    HW139609   9.321   7.929   1.784  1.9734 -0.8085 -0.7167
44763SOL    HW239610   9.200   7.905   1.697  0.4784 -1.7064  1.5098
44764SOL     OW39611   8.359   2.775   8.935 -0.5519  0.1694 -0.5220
44764SOL    HW139612   8.347   2.688   8.973  0.8767  0.2723  0.2451
44764SOL    HW239613   8.321   2.769   8.848  0.1210 -1.4407 -0.7424
44765SOL     OW39614   8.301   1.382   3.955  0.0364 -0.3171 -0.4920
44765SOL    HW139615   8.294   1.336   4.038  1.9207 -0.6936 -0.4927
44765SOL    HW239616   8.222   1.357   3.907 -0.6191 -0.8421  0.8030
44766SOL     OW39617   6.059   2.111   8.772  0.3509 -0.1331  0.5319
44766SOL    HW139618   6.099   2.052   8.709 -2.3727 -0.8021 -0.7407
44766SOL    HW239619   5.965   2.090   8.768 -0.6749  3.6384  0.6394
44767SOL     OW39620   8.110  10.923   7.513 -0.1545 -0.5568 -0.2192
44767SOL    HW139621   8.063  10.987   7.567  0.9150 -0.7294  0.9396
44767SOL    HW239622   8.187  10.899   7.564  2.7195  1.6829 -3.0871
44768SOL     OW39623  11.800   8.202   0.624 -0.2087 -0.3658  0.8829
44768SOL    HW139624  11.709   8.199   0.654 -3.2518  3.1087 -5.6036
44768SOL    HW239625  11.804   8.137   0.554  1.6529  0.6932 -0.0769
44769SOL     OW39626  10.091   1.728   1.409  0.1627  0.3555 -0.3643
44769SOL    HW139627   9.999   1.728   1.383  0.3233 -0.4713 -0.9755
44769SOL    HW239628  10.127   1.810   1.374 -0.5052  1.0624  0.5485
44770SOL     OW39629   7.557   6.150  11.395 -0.3133  0.3782  0.1781
44770SOL    HW139630   7.487   6.216  11.395 -0.6940 -0.0157  0.7475
44770SOL    HW239631   7.604   6.166  11.313 -3.1426 -1.4995 -2.0490
44771SOL     OW39632   4.423   5.527   7.399  0.1462  1.0064 -0.3331
44771SOL    HW139633   4.436   5.471   7.322 -0.7717  0.0328  0.2075
44771SOL    HW239634   4.356   5.483   7.451  1.2833  1.2465  1.4251
44772SOL     OW39635   7.490   3.933   2.343  0.1532 -0.2120 -0.3420
44772SOL    HW139636   7.476   3.865   2.276 -0.3909 -0.0653 -0.3885
44772SOL    HW239637   7.567   3.904   2.391  0.5287 -0.3447 -1.0088
44773SOL     OW39638   3.497   9.313   6.566  0.0855 -0.3189 -0.6632
44773SOL    HW139639   3.463   9.229   6.536 -1.8378 -0.0419  0.5629
44773SOL    HW239640   3.534   9.295   6.652  0.9254 -0.1329 -0.9682
44774SOL     OW39641  11.823   6.831   9.308 -0.0681  0.9016 -0.1547
44774SOL    HW139642  11.857   6.746   9.279 -1.9781 -0.0636  0.2817
44774SOL    HW239643  11.823   6.884   9.228 -0.4151 -0.0573 -0.8176
44775SOL     OW39644   8.591   2.288   6.394 -0.1040  0.3969 -0.3208
44775SOL    HW139645   8.556   2.284   6.305 -0.8630 -0.2060 -0.0108
44775SOL    HW239646   8.522   2.249   6.448  0.2878  0.8884  0.5494
44776SOL     OW39647   9.049   7.386   5.837 -0.2967  0.4841  0.9394
44776SOL    HW139648   9.040   7.401   5.931 -2.0304 -1.6289  1.2044
44776SOL    HW239649   8.964   7.409   5.800 -0.7066 -1.6851  0.4059
44777SOL     OW39650  10.044   3.702   4.600 -0.3312 -0.0318 -0.2998
44777SOL    HW139651   9.951   3.686   4.613 -0.6352 -0.1887 -2.3036
44777SOL    HW239652  10.047   3.781   4.546  0.7995  1.0116  1.1901
44778SOL     OW39653   3.774   2.773   0.219 -0.3163 -0.7572  0.2314
44778SOL    HW139654   3.827   2.783   0.298 -0.5231  0.6977  0.2169
44778SOL    HW239655   3.830   2.725   0.158  0.1021 -1.2902  1.0187
44779SOL     OW39656   7.320  10.128   0.912  0.0848  0.2505  0.3984
44779SOL    HW139657   7.316  10.218   0.943  0.0619 -0.0485  1.2725
44779SOL    HW239658   7.237  10.089   0.939  0.0580 -0.0112 -0.0494
44780SOL     OW39659  11.296   6.775  10.495 -0.2668 -0.0577  0.2731
44780SOL    HW139660  11.316   6.710  10.427  0.8240 -2.1694  2.4707
44780SOL    HW239661  11.203   6.761  10.515 -0.5641  0.4961 -0.6200
44781SOL     OW39662   0.914   2.297   8.920 -0.3423  0.0405 -0.6825
44781SOL    HW139663   0.878   2.270   8.835 -0.1668 -2.5359 -0.0166
44781SOL    HW239664   0.837   2.323   8.971 -1.4074 -4.3700  0.3643
44782SOL     OW39665   1.996  10.952   0.656 -0.5644  0.0798 -0.2152
44782SOL    HW139666   2.004  11.047   0.643 -3.5379  0.3250 -1.0527
44782SOL    HW239667   1.931  10.943   0.726 -2.8857 -1.2420 -2.3818
44783SOL     OW39668   7.219  11.721  10.677 -0.2022  0.4432 -0.5693
44783SOL    HW139669   7.193  11.790  10.738  0.6809  1.5008 -1.3439
44783SOL    HW239670   7.139  11.672  10.660 -0.6861  0.7794  0.5941
44784SOL     OW39671   1.328   8.333   1.183  0.3501 -0.0701  0.0020
44784SOL    HW139672   1.282   8.281   1.116  1.8222 -0.5355 -0.6848
44784SOL    HW239673   1.330   8.276   1.259  1.7182 -0.9521 -0.6651
44785SOL     OW39674   4.314   5.183   9.800  0.3025 -0.3122  0.2031
44785SOL    HW139675   4.337   5.225   9.717  1.5064 -2.2180 -0.4855
44785SOL    HW239676   4.333   5.250   9.866 -1.3945  1.5141 -1.0416
44786SOL     OW39677   4.082   5.523   9.998  0.1302 -0.3745 -0.6425
44786SOL    HW139678   4.127   5.607   9.994  2.1064 -1.2963  0.5863
44786SOL    HW239679   4.117   5.474   9.923  1.0848 -1.0379  0.2186
44787SOL     OW39680   1.521   6.975   4.653 -0.5188 -0.5556  0.6245
44787SOL    HW139681   1.481   6.895   4.618  0.5445 -1.2990  1.0469
44787SOL    HW239682   1.528   6.959   4.747 -1.3113  0.5087  0.8790
44788SOL     OW39683   6.191   1.489   7.944 -0.0665  0.2599 -0.1433
44788SOL    HW139684   6.104   1.514   7.976 -0.6353  0.9427 -2.0727
44788SOL    HW239685   6.217   1.417   8.001 -1.5730  0.5245  0.9584
44789SOL     OW39686   6.723   0.962   9.206 -0.1126  0.3336  0.2058
44789SOL    HW139687   6.755   0.919   9.127 -1.4044  2.2306 -1.4711
44789SOL    HW239688   6.628   0.961   9.197 -0.3841 -0.6985  2.5171
44790SOL     OW39689   4.364   5.898   2.683  0.5252  0.0998  0.6372
44790SOL    HW139690   4.399   5.987   2.692 -0.7658  0.8078 -0.9449
44790SOL    HW239691   4.272   5.906   2.706  0.4099 -0.8373  0.5081
44791SOL     OW39692   2.826   6.140   2.967 -0.1375 -0.5111 -0.3621
44791SOL    HW139693   2.819   6.054   3.009 -0.5029  0.4153  1.6263
44791SOL    HW239694   2.736   6.171   2.963  0.0573  0.0560 -0.4138
44792SOL     OW39695   4.510  10.960   6.313  0.5205 -0.1025 -0.0596
44792SOL    HW139696   4.532  11.053   6.302  1.0665 -0.0020  1.4983
44792SOL    HW239697   4.592  10.914   6.297  1.4505  0.0814  3.3828
44793SOL     OW39698   3.076   9.354   9.074  0.3087  0.7747 -0.2151
44793SOL    HW139699   3.105   9.275   9.118 -0.4867 -0.8063 -2.3470
44793SOL    HW239700   2.993   9.376   9.115 -1.1449 -1.5064 -1.7344
44794SOL     OW39701   5.708   2.645   9.489 -0.3294  0.0113 -0.4986
44794SOL    HW139702   5.780   2.693   9.448 -0.8096 -0.4801 -1.9798
44794SOL    HW239703   5.655   2.614   9.416 -0.8558 -1.4951  0.4669
44795SOL     OW39704   6.131   3.321  10.292 -0.1243  0.4911  0.1257
44795SOL    HW139705   6.047   3.294  10.255  0.0792  1.1774 -0.8677
44795SOL    HW239706   6.176   3.366  10.221  0.6082  1.1638  0.9789
44796SOL     OW39707   9.544   2.155   9.247  0.0632  0.6419  0.1981
44796SOL    HW139708   9.531   2.090   9.179  0.0593  0.5692  0.2689
44796SOL    HW239709   9.580   2.106   9.321 -0.3201  0.6533  0.3915
44797SOL     OW39710   2.924   4.807   5.857  0.0114  0.6726 -0.2562
44797SOL    HW139711   2.857   4.871   5.833  0.3977  0.5223 -1.8328
44797SOL    HW239712   3.005   4.858   5.862  0.2704  0.3834 -1.2392
44798SOL     OW39713   0.191   4.142   8.850 -0.1998 -0.0478 -0.2009
44798SOL    HW139714   0.185   4.177   8.939 -0.3915  0.1585 -0.2935
44798SOL    HW239715   0.110   4.171   8.807  1.1769  2.3836 -1.3403
44799SOL     OW39716   4.431   9.938   0.003 -0.0098  0.5123  0.2306
44799SOL    HW139717   4.337   9.917   0.002 -0.1512  1.1340 -0.5039
44799SOL    HW239718   4.440  10.012  -0.058  0.9348  0.5610  0.4127
44800SOL     OW39719   3.335   4.546  10.180  0.0358  0.5012  0.0204
44800SOL    HW139720   3.291   4.463  10.194  1.2452  0.0107  1.1748
44800SOL    HW239721   3.317   4.569  10.089  0.2597 -1.3757 -0.5288
44801SOL     OW39722   4.919   7.316   0.476 -0.8563 -0.3319  0.1611
44801SOL    HW139723   4.906   7.255   0.549  0.9926 -0.1980  0.6647
44801SOL    HW239724   4.946   7.397   0.517 -0.1296 -0.1492 -0.6516
44802SOL     OW39725   2.029   8.372  10.667 -0.4827 -0.0550 -0.3219
44802SOL    HW139726   1.999   8.291  10.707 -0.1971 -0.4234 -0.8429
44802SOL    HW239727   2.062   8.424  10.740  2.1911 -1.6325 -0.2512
44803SOL     OW39728   5.690   6.298   6.570  0.2766  0.2649  0.6417
44803SOL    HW139729   5.645   6.371   6.613  0.5564 -0.8992  3.0375
44803SOL    HW239730   5.747   6.339   6.506  0.4047  2.1672  1.9087
44804SOL     OW39731   6.480   7.760   9.672 -0.1955 -0.0939  0.0208
44804SOL    HW139732   6.551   7.797   9.724 -0.1578 -0.2167  0.0574
44804SOL    HW239733   6.500   7.667   9.665 -0.0548 -0.0314 -0.4488
44805SOL     OW39734   0.454  10.682  10.441 -0.0618  0.1658  0.5882
44805SOL    HW139735   0.458  10.763  10.493 -0.6372  0.8339 -0.3813
44805SOL    HW239736   0.478  10.709  10.353  1.1617 -1.0111  0.5261
44806SOL     OW39737   0.218  10.076   7.088 -0.4624 -0.4958 -0.2795
44806SOL    HW139738   0.210   9.990   7.129  2.0170 -0.2246  0.9038
44806SOL    HW239739   0.275  10.062   7.012  0.1003  0.1218  0.0198
44807SOL     OW39740  11.652   6.002   8.253 -0.8154 -0.5763  0.8135
44807SOL    HW139741  11.658   6.092   8.287  0.4809 -1.3518  2.8272
44807SOL    HW239742  11.700   5.949   8.317 -1.4217 -2.7038 -0.3973
44808SOL     OW39743   8.989   4.053   8.251  0.4534  0.0280 -0.1268
44808SOL    HW139744   8.928   3.981   8.268  0.1477  0.2645 -0.1963
44808SOL    HW239745   9.057   4.015   8.195  0.6148 -0.3529  0.3320
44809SOL     OW39746   7.219   6.733   6.618  0.0202 -0.0628  0.1251
44809SOL    HW139747   7.281   6.711   6.688 -1.1814  1.1648  1.6632
44809SOL    HW239748   7.133   6.717   6.656 -0.6884  1.2554 -0.8402
44810SOL     OW39749   7.724   5.949   8.149  0.5561 -0.5070 -0.0029
44810SOL    HW139750   7.695   5.880   8.090 -1.0885  0.8519 -0.8648
44810SOL    HW239751   7.700   5.918   8.236 -0.7077 -0.7909 -0.4299
44811SOL     OW39752  11.545   0.966   6.364  1.1425 -0.5896 -0.2911
44811SOL    HW139753  11.560   0.914   6.443  0.4108  3.2246  2.6502
44811SOL    HW239754  11.451   0.983   6.364  1.2192  0.0079 -1.6736
44812SOL     OW39755   8.986   5.152   4.373 -0.2451  0.5196 -0.1616
44812SOL    HW139756   8.991   5.187   4.284 -0.0684  0.1987 -0.2819
44812SOL    HW239757   9.064   5.098   4.382  0.2011  1.2661  0.5100
44813SOL     OW39758   8.769   9.192   9.197 -0.1218 -0.2387  0.4057
44813SOL    HW139759   8.812   9.226   9.118 -0.6798 -1.4687 -0.4536
44813SOL    HW239760   8.836   9.199   9.265  0.0912  1.6471  0.0611
44814SOL     OW39761   1.351   7.956   0.912  0.2202  0.3687 -0.1941
44814SOL    HW139762   1.310   7.921   0.833  0.9177 -0.6495 -0.1171
44814SOL    HW239763   1.445   7.948   0.896  0.4672  3.1230 -0.5787
44815SOL     OW39764  11.225   3.535   8.936 -0.4437  0.2631  0.9569
44815SOL    HW139765  11.155   3.504   8.878 -0.2551 -0.3671  1.0606
44815SOL    HW239766  11.296   3.472   8.925 -0.9999 -0.8429  3.0890
44816SOL     OW39767   1.425   6.390   8.489  0.2087  0.0090 -0.0675
44816SOL    HW139768   1.472   6.307   8.480  0.3762  0.0706  0.2323
44816SOL    HW239769   1.336   6.369   8.460  0.7047  0.2084 -1.8537
44817SOL     OW39770   8.754   1.922   4.685  0.2728 -0.2858  0.0885
44817SOL    HW139771   8.770   2.009   4.721 -0.2850 -0.7294  1.4794
44817SOL    HW239772   8.796   1.923   4.598  1.6870  0.8155  0.7491
44818SOL     OW39773   1.293   9.499  11.333 -0.4575  0.8257 -0.2349
44818SOL    HW139774   1.387   9.494  11.351  0.2620  1.6451 -3.2331
44818SOL    HW239775   1.258   9.416  11.366  1.1890  0.7371  1.4494
44819SOL     OW39776   2.832   4.486   8.367  0.0710  0.0050  0.6772
44819SOL    HW139777   2.752   4.539   8.372  0.2444  0.2691  0.7027
44819SOL    HW239778   2.805   4.406   8.323 -0.4195 -0.3052  1.5122
44820SOL     OW39779   6.652   9.326   8.707  0.4078 -0.7071 -0.4861
44820SOL    HW139780   6.739   9.321   8.746  0.0541 -0.3507  0.3702
44820SOL    HW239781   6.668   9.315   8.613  1.3178 -1.1521 -0.2965
44821SOL     OW39782   9.883   2.736   9.046 -0.1871  0.0735 -0.3958
44821SOL    HW139783   9.903   2.696   9.131  0.5812 -0.1774 -0.6847
44821SOL    HW239784   9.948   2.806   9.038 -0.5822  0.4275 -0.5576
44822SOL     OW39785   3.595   4.187  10.449  0.3811  0.6892 -0.0232
44822SOL    HW139786   3.552   4.153  10.371  0.8766  1.6461 -0.7365
44822SOL    HW239787   3.676   4.227  10.417  0.3121  1.6207  0.8862
44823SOL     OW39788   3.697   0.709   6.054 -0.1818 -0.0524  0.2599
44823SOL    HW139789   3.691   0.722   5.959 -2.9818 -0.2542  0.3376
44823SOL    HW239790   3.790   0.694   6.070  0.4379  0.4863 -2.3756
44824SOL     OW39791   2.828   7.010   2.283 -0.2774 -0.4060 -0.2957
44824SOL    HW139792   2.911   6.964   2.297 -0.3195 -0.5962 -0.6752
44824SOL    HW239793   2.839   7.093   2.329 -0.7969 -1.4358  1.8589
44825SOL     OW39794   9.741  10.892  10.893  0.6116  0.0245  0.0966
44825SOL    HW139795   9.753  10.985  10.913 -0.1646  0.0480  0.5087
44825SOL    HW239796   9.679  10.891  10.820 -0.6874 -0.1860  1.1522
44826SOL     OW39797   6.786   4.925   2.587  0.1169  0.3185 -0.5740
44826SOL    HW139798   6.814   4.835   2.568 -0.4569 -0.2941  1.3033
44826SOL    HW239799   6.822   4.943   2.674 -1.4116  1.1919 -0.0970
44827SOL     OW39800   0.295   3.224   7.522 -0.3003 -0.3731 -0.1160
44827SOL    HW139801   0.372   3.249   7.471 -0.6781  1.1359 -0.0213
44827SOL    HW239802   0.330   3.187   7.603  0.3583  1.0999  0.3043
44828SOL     OW39803   3.894   2.510   0.141 -0.5102 -0.1582 -0.0138
44828SOL    HW139804   3.819   2.493   0.198  0.5796  1.7791  2.2045
44828SOL    HW239805   3.970   2.497   0.199  0.6536  2.1836 -0.8944
44829SOL     OW39806  11.814   2.343  11.215  0.2237  0.3506  0.1233
44829SOL    HW139807  11.745   2.372  11.154  0.4408  0.6710  0.0274
44829SOL    HW239808  11.892   2.335  11.160  0.3458  0.3276  0.3018
44830SOL     OW39809   5.461  11.304   6.542 -0.5723  0.1617 -0.2646
44830SOL    HW139810   5.516  11.378   6.566 -1.0283 -0.3755  2.9124
44830SOL    HW239811   5.372  11.335   6.557 -0.7534 -1.0566  1.4425
44831SOL     OW39812   4.445   2.179  10.734 -0.3026  0.0673 -0.7122
44831SOL    HW139813   4.503   2.254  10.714 -0.0428 -0.2628 -1.2125
44831SOL    HW239814   4.502   2.116  10.777 -0.8130  0.6834  0.9084
44832SOL     OW39815   3.212   4.885   9.100  0.4472  0.5450 -0.5598
44832SOL    HW139816   3.152   4.835   9.044  0.6627 -1.2346  0.6979
44832SOL    HW239817   3.255   4.945   9.040 -0.0071 -0.6219 -2.1533
44833SOL     OW39818   7.930   6.349   8.236 -0.4561  0.6202 -0.5576
44833SOL    HW139819   8.018   6.329   8.267 -0.9677 -2.0351 -0.6358
44833SOL    HW239820   7.927   6.317   8.146 -1.4835  0.7230 -0.5809
44834SOL     OW39821   6.261   2.223   6.799 -0.2434 -0.4117 -0.3679
44834SOL    HW139822   6.191   2.159   6.787  1.1198 -2.1422  0.3310
44834SOL    HW239823   6.230   2.280   6.869 -1.3988 -0.4555 -0.8296
44835SOL     OW39824   6.029   2.921   8.634 -0.3472 -0.6499 -0.0737
44835SOL    HW139825   5.990   2.834   8.626 -0.4605 -1.0667  3.4451
44835SOL    HW239826   5.961   2.975   8.675  0.6007  0.3571  0.2447
44836SOL     OW39827  11.451   0.376   8.767  0.2649  0.0088 -0.0862
44836SOL    HW139828  11.468   0.311   8.834  1.6271  1.5349  1.1266
44836SOL    HW239829  11.479   0.459   8.806  2.1448  0.8299 -2.9112
44837SOL     OW39830  11.539   3.206   8.673  0.1172  0.0006  0.0779
44837SOL    HW139831  11.631   3.201   8.700  0.2891 -1.5261 -0.6956
44837SOL    HW239832  11.507   3.116   8.677 -1.2126  0.4378 -0.1354
44838SOL     OW39833   3.706   1.399   7.978 -0.0381  0.2311  0.4321
44838SOL    HW139834   3.781   1.430   7.927  0.7310 -0.3623  1.1778
44838SOL    HW239835   3.668   1.479   8.014 -1.6245  0.8802 -2.3386
44839SOL     OW39836  10.952   8.713   5.023  0.3562 -0.2389  0.4642
44839SOL    HW139837  11.022   8.774   5.045  1.1439 -0.6288 -0.8281
44839SOL    HW239838  10.891   8.718   5.097  1.7010  0.1742  1.5889
44840SOL     OW39839   3.951   9.853   5.022 -0.2020 -0.4561 -0.0132
44840SOL    HW139840   3.863   9.838   5.056  0.0440 -0.3395  0.6993
44840SOL    HW239841   3.999   9.890   5.096  0.3352 -0.1323 -0.5147
44841SOL     OW39842   9.631  10.034   5.433 -0.3004  0.3072  0.4281
44841SOL    HW139843   9.610  10.010   5.343  0.9791 -0.1025  0.2256
44841SOL    HW239844   9.713  10.083   5.427  0.9720 -1.5570  1.5563
44842SOL     OW39845  10.435   5.006   9.311  0.2105 -0.3329  0.2689
44842SOL    HW139846  10.524   4.972   9.321 -0.2964 -1.1798  2.1589
44842SOL    HW239847  10.430   5.079   9.373 -0.3600 -0.1602  0.0300
44843SOL     OW39848   4.898  11.307   4.683  0.0565  0.2016  0.4931
44843SOL    HW139849   4.934  11.396   4.672  1.4943 -0.2187  1.4271
44843SOL    HW239850   4.873  11.280   4.595  0.0031  1.3689  0.1304
44844SOL     OW39851   7.051   2.593   4.429  0.2020  0.3982  0.4341
44844SOL    HW139852   6.978   2.618   4.485  1.3850  4.0063  0.5954
44844SOL    HW239853   7.084   2.675   4.392  2.9511 -1.2503 -1.2155
44845SOL     OW39854   9.194   7.799  11.139  0.3446  0.1337 -0.2681
44845SOL    HW139855   9.176   7.718  11.186  1.5404  0.8413  1.4937
44845SOL    HW239856   9.129   7.800  11.068 -1.1853 -1.2425  1.0229
44846SOL     OW39857   5.825   5.457   1.881 -0.0594 -0.1035 -0.8107
44846SOL    HW139858   5.853   5.540   1.843 -0.3308  0.1215 -0.5228
44846SOL    HW239859   5.903   5.402   1.879  0.6608  0.8000  0.7707
44847SOL     OW39860   7.535  11.470   7.966  0.3889 -0.0073 -0.1274
44847SOL    HW139861   7.449  11.434   7.988 -0.2171  0.4949 -1.5555
44847SOL    HW239862   7.566  11.509   8.047 -0.2726 -1.0768  0.6720
44848SOL     OW39863   6.032   0.553   4.213  0.4519  0.2131  0.0118
44848SOL    HW139864   5.990   0.503   4.143 -0.5215 -1.0558  1.4083
44848SOL    HW239865   5.962   0.609   4.248 -0.1433 -1.6616  2.1292
44849SOL     OW39866   4.514   8.324   4.141  0.3798  0.3479  0.2349
44849SOL    HW139867   4.554   8.374   4.069  1.2242  0.1268  0.5347
44849SOL    HW239868   4.587   8.274   4.178 -0.2008 -0.1165  0.7653
44850SOL     OW39869   6.556   1.451   7.728 -0.5042  0.3293  0.5023
44850SOL    HW139870   6.515   1.366   7.745 -1.6366  0.7413 -0.0578
44850SOL    HW239871   6.567   1.490   7.815 -0.2616 -0.2488  0.7412
44851SOL     OW39872  11.209   6.927   3.427  0.5650  0.2620 -0.2366
44851SOL    HW139873  11.210   6.895   3.517  0.7670 -1.8165 -0.9396
44851SOL    HW239874  11.134   6.987   3.424  0.4083  0.1781  1.2285
44852SOL     OW39875   1.363   1.071   9.778  0.0154  0.2304  0.5444
44852SOL    HW139876   1.286   1.068   9.720 -0.7228 -0.0645  1.5081
44852SOL    HW239877   1.344   1.144   9.838  0.5320  0.2157  0.7255
44853SOL     OW39878   3.803  10.859   6.983  0.2790  0.2812 -0.0878
44853SOL    HW139879   3.816  10.774   7.026 -2.1693  0.7407  1.7737
44853SOL    HW239880   3.844  10.922   7.042  1.6250  0.5091 -1.2070
44854SOL     OW39881  11.373   0.219   1.874 -0.6796 -0.2480  0.1547
44854SOL    HW139882  11.450   0.180   1.832 -0.3308  2.3438 -1.9001
44854SOL    HW239883  11.298   0.175   1.833 -0.3230 -1.1220  0.4174
44855SOL     OW39884   0.284   4.039   7.754  0.2292  0.0883 -0.1053
44855SOL    HW139885   0.269   3.946   7.738  0.3150  0.1632 -0.6378
44855SOL    HW239886   0.348   4.065   7.687 -1.3824  1.0207 -1.3360
44856SOL     OW39887   5.552   3.032  11.277 -0.1013 -0.2725  0.3369
44856SOL    HW139888   5.542   3.126  11.263  0.0706 -0.2444  0.3991
44856SOL    HW239889   5.537   3.020  11.370  1.3213 -0.1022  0.6205
44857SOL     OW39890   4.695  10.452   3.143  0.4944  0.0270 -0.2076
44857SOL    HW139891   4.742  10.494   3.070 -1.3650 -0.0747 -1.5404
44857SOL    HW239892   4.702  10.515   3.215  1.9744  0.3539 -0.6151
44858SOL     OW39893   3.435  10.216   6.090 -0.5930  0.7129  0.1193
44858SOL    HW139894   3.448  10.208   5.995  0.0899  0.7101  0.2107
44858SOL    HW239895   3.466  10.133   6.126 -0.2388  0.9666  0.4055
44859SOL     OW39896   2.961  10.298   2.676  0.5611 -0.5482  0.0998
44859SOL    HW139897   2.987  10.354   2.749 -0.8674  0.6259 -0.2418
44859SOL    HW239898   3.003  10.337   2.599 -1.6905  1.1343 -0.3954
44860SOL     OW39899  10.276   8.578   9.160  0.3515  0.4842 -0.4545
44860SOL    HW139900  10.218   8.505   9.182 -1.0371  1.2017 -1.5697
44860SOL    HW239901  10.352   8.566   9.218  0.3690 -2.0453 -0.8526
44861SOL     OW39902   1.423   1.040   5.941 -0.0300  0.5300 -0.3945
44861SOL    HW139903   1.414   1.102   5.869 -0.8051  0.3383 -0.4677
44861SOL    HW239904   1.368   0.965   5.916 -0.6229  0.6269  0.5719
44862SOL     OW39905   8.368   5.554   3.398 -0.4183  0.1535 -0.2159
44862SOL    HW139906   8.400   5.622   3.340 -0.8726 -0.4524 -1.2008
44862SOL    HW239907   8.330   5.488   3.340  0.5079 -1.2168  0.6439
44863SOL     OW39908   8.504   0.686   7.816  0.6744  0.0745 -0.3347
44863SOL    HW139909   8.510   0.747   7.888  1.1931  0.5522 -0.7713
44863SOL    HW239910   8.499   0.600   7.857 -0.2814  0.4100  0.2860
44864SOL     OW39911   1.099   8.216   1.838  0.1399  0.1455  0.2874
44864SOL    HW139912   1.021   8.227   1.892  1.0540  0.6719  1.5402
44864SOL    HW239913   1.124   8.305   1.813 -1.0815 -0.1386 -2.2854
44865SOL     OW39914   5.110  10.645   9.864 -0.1564 -0.8669  0.5133
44865SOL    HW139915   5.077  10.706   9.798  1.9926 -0.6137 -0.4171
44865SOL    HW239916   5.060  10.564   9.848  0.8468 -1.0781 -2.0503
44866SOL     OW39917   0.765   1.465  10.107 -0.1609  0.0657  0.0950
44866SOL    HW139918   0.796   1.548  10.071  0.5116 -0.7334 -1.2155
44866SOL    HW239919   0.837   1.435  10.162 -0.1876  0.0799  0.1380
44867SOL     OW39920   5.671   0.728   6.083 -0.0561 -0.0219  0.7656
44867SOL    HW139921   5.712   0.700   6.164  2.1054 -2.1461 -0.9351
44867SOL    HW239922   5.714   0.811   6.061 -0.9906  0.8073  1.9694
44868SOL     OW39923   9.717  10.135   1.480  0.3759  0.5361  0.4344
44868SOL    HW139924   9.742  10.119   1.389 -1.1601  1.1879 -0.1345
44868SOL    HW239925   9.798  10.126   1.530  1.3499  0.7581 -1.0754
44869SOL     OW39926   9.037   7.301   6.420  0.6333  0.2003 -0.3780
44869SOL    HW139927   9.119   7.340   6.389  1.3067  0.2826  1.3368
44869SOL    HW239928   8.981   7.376   6.441  1.2909  0.2777  1.2986
44870SOL     OW39929   7.385   8.908   0.557  0.0169  0.3567  0.8288
44870SOL    HW139930   7.459   8.910   0.496  0.2825  0.4181  1.1537
44870SOL    HW239931   7.309   8.923   0.501  0.2137 -0.0645  0.4414
44871SOL     OW39932   5.630   9.838   5.445 -0.5498  0.3554  0.0617
44871SOL    HW139933   5.591   9.750   5.448 -0.5114  0.3086 -0.7045
44871SOL    HW239934   5.723   9.822   5.426 -0.3746  0.5289  0.7315
44872SOL     OW39935   3.657   9.925   2.853 -0.6699  0.4986  0.2788
44872SOL    HW139936   3.577   9.875   2.865 -0.6718 -0.0701 -1.7174
44872SOL    HW239937   3.637   9.986   2.782 -0.7758  3.6774  2.8172
44873SOL     OW39938   3.313   1.591   6.106  0.0028 -0.6886 -0.5330
44873SOL    HW139939   3.254   1.625   6.173 -2.3636  0.6311 -3.0811
44873SOL    HW239940   3.268   1.513   6.072  1.2016 -1.3963 -0.5584
44874SOL     OW39941   5.760   5.744   6.390  0.3870 -0.4116 -0.3501
44874SOL    HW139942   5.839   5.764   6.439 -0.5608  1.1292  0.6236
44874SOL    HW239943   5.731   5.659   6.424 -0.5455  0.8581  2.2236
44875SOL     OW39944   0.069   6.181   7.863 -0.0693  0.1390  0.2258
44875SOL    HW139945   0.078   6.090   7.835  2.5982  0.3168  0.2785
44875SOL    HW239946   0.129   6.190   7.937 -0.4991  1.8777  0.4143
44876SOL     OW39947   4.069  11.006  10.578  0.0259 -0.3442  0.2639
44876SOL    HW139948   3.976  11.011  10.602  0.1505 -1.0523  0.9320
44876SOL    HW239949   4.094  11.097  10.559 -0.2942  0.1642  2.0885
44877SOL     OW39950   8.452   2.339   4.353 -0.1259  0.2474  0.3224
44877SOL    HW139951   8.421   2.249   4.366  1.8095 -0.4984  0.0902
44877SOL    HW239952   8.460   2.375   4.441 -1.6738  0.4917  0.3805
44878SOL     OW39953   7.953   6.933  10.890  0.3100  0.9686 -0.0421
44878SOL    HW139954   7.946   6.972  10.803 -0.6060  1.3591  0.1892
44878SOL    HW239955   7.962   7.007  10.949  1.2205  0.6931  0.1812
44879SOL     OW39956   5.145   9.086   0.353  0.0556 -0.3489 -0.0498
44879SOL    HW139957   5.059   9.127   0.338  0.1231 -0.4949 -0.8696
44879SOL    HW239958   5.202   9.160   0.374  0.2498  0.0585 -1.8417
44880SOL     OW39959   0.558   2.398   8.693 -0.0477 -0.6702 -0.1799
44880SOL    HW139960   0.491   2.330   8.682 -2.5846  1.3877  1.1661
44880SOL    HW239961   0.594   2.381   8.780 -0.6879 -0.3512  0.1607
44881SOL     OW39962   7.281   9.581   7.509  0.3474  0.1275  0.5084
44881SOL    HW139963   7.296   9.656   7.452  2.4501  1.4329  2.6255
44881SOL    HW239964   7.362   9.570   7.558 -0.9716 -1.5765  2.5160
44882SOL     OW39965   9.145  10.855   0.569 -0.3340  0.0225 -0.3918
44882SOL    HW139966   9.097  10.936   0.586  0.1140  0.4852 -1.2202
44882SOL    HW239967   9.228  10.866   0.615 -0.4871 -0.2063 -0.0555
44883SOL     OW39968   8.173   4.075   3.002  0.0090 -0.3246  0.3980
44883SOL    HW139969   8.253   4.121   3.027  0.0454  0.2929 -0.8008
44883SOL    HW239970   8.183   3.987   3.040  1.5402 -0.4707 -0.2681
44884SOL     OW39971   2.128   9.952   2.863 -0.4947 -0.2636  0.6000
44884SOL    HW139972   2.219   9.960   2.837 -0.7098  1.3619  0.2065
44884SOL    HW239973   2.085   9.907   2.790 -0.2942  0.3900  0.0776
44885SOL     OW39974   8.332   4.409   9.406 -0.6882  0.4370  0.1242
44885SOL    HW139975   8.340   4.496   9.446  0.9732 -0.5576  2.1802
44885SOL    HW239976   8.349   4.424   9.313  1.9203  2.0725  0.7440
44886SOL     OW39977   2.426  10.157   5.957  0.0740 -0.2079  0.4400
44886SOL    HW139978   2.433  10.066   5.987 -2.0510 -0.1899  1.1529
44886SOL    HW239979   2.425  10.208   6.038  1.0580  0.4569  0.0460
44887SOL     OW39980  10.267   6.803  11.219 -0.3050 -0.0520  0.3117
44887SOL    HW139981  10.242   6.711  11.219 -1.0218  0.1324  0.6282
44887SOL    HW239982  10.189   6.849  11.187  0.7407  0.2901 -1.9619
44888SOL     OW39983  11.225  10.047  10.055  0.6919 -0.4582 -0.0267
44888SOL    HW139984  11.181  10.130  10.073  0.5727 -0.6309  0.4769
44888SOL    HW239985  11.316  10.071  10.039  0.8248 -0.3152  0.9214
44889SOL     OW39986   8.944   6.968   2.306 -0.1255 -0.1009 -0.0731
44889SOL    HW139987   9.000   6.906   2.352 -0.7039 -0.1080  0.6522
44889SOL    HW239988   8.974   6.965   2.215  0.6422 -0.5431  0.1859
44890SOL     OW39989  11.726   8.269  11.724 -0.6456  0.1547  0.3089
44890SOL    HW139990  11.721   8.240  11.633 -0.1331  0.4995  0.1717
44890SOL    HW239991  11.804   8.324  11.728 -1.3403  1.1432  0.6734
44891SOL     OW39992   8.446   1.834   8.758 -0.4684  0.0894 -0.2273
44891SOL    HW139993   8.507   1.800   8.823 -1.9966 -1.5019  0.4712
44891SOL    HW239994   8.451   1.929   8.767  0.5563 -0.0608  1.0805
44892SOL     OW39995   5.931  10.710  10.963  0.3101 -0.5010 -0.0984
44892SOL    HW139996   5.997  10.694  11.031 -1.1212  1.5173  1.9300
44892SOL    HW239997   5.848  10.687  11.005 -0.7315  1.8911 -0.6707
44893SOL     OW39998   7.826   2.879   2.458  0.7824  0.0253 -0.8243
44893SOL    HW139999   7.809   2.820   2.385 -2.3145 -1.5433  0.9136
44893SOL    HW240000   7.901   2.842   2.504  0.6473 -0.9172 -1.3616
44894SOL     OW40001   9.643  10.128   1.012 -0.2783  0.1961  0.1048
44894SOL    HW140002   9.719  10.164   1.057 -0.0826 -0.7035  0.5261
44894SOL    HW240003   9.676  10.047   0.972 -1.4724 -1.3670  2.0648
44895SOL     OW40004   8.995   4.611   4.524  0.4351  0.2182  0.4768
44895SOL    HW140005   8.933   4.602   4.451 -0.3717  1.5609  0.9417
44895SOL    HW240006   9.002   4.523   4.561  1.6258 -0.7114 -1.7832
44896SOL     OW40007  10.706   1.615  11.198  0.3031  0.1553 -0.5791
44896SOL    HW140008  10.660   1.614  11.114  2.0817 -0.3568 -1.6031
44896SOL    HW240009  10.769   1.544  11.191  1.5940  1.1387  0.5456
44897SOL     OW40010   9.982  10.813   4.029 -0.1295  0.1354  0.3096
44897SOL    HW140011   9.953  10.722   4.015  0.1985  0.2419 -1.3026
44897SOL    HW240012   9.919  10.865   3.979  0.0119  0.7588  0.7814
44898SOL     OW40013   6.956   4.064   0.392  0.4239 -0.0120 -0.0184
44898SOL    HW140014   6.990   4.154   0.396  0.3894 -0.0264  0.6727
44898SOL    HW240015   6.878   4.070   0.337  0.6979  0.2942 -0.3737
44899SOL     OW40016  10.156   1.367   6.062 -0.5876  0.1316  1.0473
44899SOL    HW140017  10.157   1.427   5.987 -1.4419 -1.6454 -0.4943
44899SOL    HW240018  10.107   1.291   6.030  1.3499 -1.8564  2.4937
44900SOL     OW40019   6.444   4.973   8.665  0.5748 -0.2344  0.7204
44900SOL    HW140020   6.349   4.971   8.669  0.4773 -0.4266 -1.0151
44900SOL    HW240021   6.472   4.924   8.742 -0.7787 -2.3023 -0.0230
44901SOL     OW40022  10.763   0.361  11.452  0.2597 -0.6612 -0.0735
44901SOL    HW140023  10.724   0.430  11.505  1.2494  0.1850 -0.4180
44901SOL    HW240024  10.724   0.280  11.486 -0.2222 -0.0162  0.9517
44902SOL     OW40025   4.870   0.912   1.012  0.3147 -0.0873 -0.6671
44902SOL    HW140026   4.939   0.860   0.971 -0.2894 -1.0669 -0.4718
44902SOL    HW240027   4.799   0.914   0.948  0.1883  0.1734 -0.5212
44903SOL     OW40028   2.568   9.190   1.988  0.2050 -0.4775  0.2314
44903SOL    HW140029   2.561   9.284   2.002  0.8147 -0.3346 -0.3938
44903SOL    HW240030   2.636   9.161   2.049 -0.7352 -0.7025  1.2011
44904SOL     OW40031   9.335   6.812  11.675 -0.4898  0.0081 -0.2733
44904SOL    HW140032   9.302   6.898  11.651  0.5760 -0.4696 -4.0039
44904SOL    HW240033   9.260   6.766  11.711 -1.2952  2.1241  0.9209
44905SOL     OW40034   3.130   5.081   7.421 -0.0247  0.2443 -0.2255
44905SOL    HW140035   3.079   5.037   7.353 -1.5962 -0.2476  1.2045
44905SOL    HW240036   3.119   5.175   7.402 -1.8865  0.1777  0.2765
44906SOL     OW40037   4.533   3.913  10.547 -0.1797  0.3295  0.4216
44906SOL    HW140038   4.474   3.885  10.477 -0.8663  1.9877  0.2955
44906SOL    HW240039   4.602   3.847  10.548  0.0923  0.4673 -2.1333
44907SOL     OW40040  11.230   3.734   7.328 -0.7299  0.1036 -0.2769
44907SOL    HW140041  11.307   3.714   7.274 -0.7079  0.1566 -0.2644
44907SOL    HW240042  11.166   3.770   7.267 -0.8526 -0.2192 -0.3389
44908SOL     OW40043   5.525   1.344   8.219  0.1037  0.7283  0.5057
44908SOL    HW140044   5.591   1.325   8.151 -0.8986  1.5775 -0.7499
44908SOL    HW240045   5.462   1.273   8.211 -0.4703  1.2891 -0.0654
44909SOL     OW40046   3.810   8.570   5.311  0.2541 -0.0547  0.0969
44909SOL    HW140047   3.837   8.500   5.370  2.0484 -0.0392 -0.6538
44909SOL    HW240048   3.870   8.642   5.329 -0.3094  0.5944 -0.5232
44910SOL     OW40049   8.646   5.364   7.022 -0.2458  0.3864  0.1282
44910SOL    HW140050   8.627   5.372   6.929  1.7054 -0.1589 -0.3589
44910SOL    HW240051   8.616   5.276   7.046 -1.6973  0.8980  0.3002
44911SOL     OW40052   2.000   4.429   6.614 -0.1921  0.0323  0.3374
44911SOL    HW140053   1.984   4.495   6.546 -0.8328 -1.2992 -0.8678
44911SOL    HW240054   1.978   4.473   6.696  1.1307  1.8672 -0.2420
44912SOL     OW40055   0.061  11.245   7.056 -0.1530 -0.0440  0.1794
44912SOL    HW140056   0.120  11.312   7.089 -0.9323 -0.3189  2.2497
44912SOL    HW240057   0.106  11.162   7.073 -1.0291 -0.2470  1.6391
44913SOL     OW40058   7.043   1.568   2.241 -0.1461 -0.3032 -0.3780
44913SOL    HW140059   7.068   1.572   2.149 -0.4909  1.3737 -0.4260
44913SOL    HW240060   7.097   1.498   2.278  1.9419  0.7539 -1.2707
44914SOL     OW40061   9.560   5.727   1.589 -0.1836 -0.2207  0.4030
44914SOL    HW140062   9.508   5.770   1.657  1.6142  0.4997  1.3923
44914SOL    HW240063   9.600   5.652   1.633  1.7191  0.7615  0.4674
44915SOL     OW40064   8.251   0.967   1.005 -0.2671 -0.0066  0.2713
44915SOL    HW140065   8.165   0.997   0.976 -0.4688 -1.0601 -0.2828
44915SOL    HW240066   8.313   1.020   0.955 -0.6149 -1.1826 -1.5019
44916SOL     OW40067   5.216   2.235   5.510  0.1433  0.5135  0.0424
44916SOL    HW140068   5.229   2.141   5.516 -0.1361  0.5011  0.4600
44916SOL    HW240069   5.191   2.262   5.598  0.1023  0.9591 -0.1027
44917SOL     OW40070   2.485   5.859   1.928  0.1707  0.0486 -0.0998
44917SOL    HW140071   2.540   5.877   2.004  0.3653  0.0093 -0.2291
44917SOL    HW240072   2.407   5.815   1.964 -0.3741  1.2495  0.2289
44918SOL     OW40073   9.058  11.012  10.578  0.0869 -0.0128  0.4116
44918SOL    HW140074   9.081  11.029  10.487 -0.6943  0.7272  0.3429
44918SOL    HW240075   9.123  10.947  10.607  2.3250  1.9823  0.2319
44919SOL     OW40076   4.011   0.783   4.712 -0.8205  0.4953 -0.1701
44919SOL    HW140077   3.946   0.788   4.783 -0.5656  3.0435 -0.0226
44919SOL    HW240078   4.072   0.716   4.741 -1.5945  0.3617  1.2829
44920SOL     OW40079  10.799   7.360   8.750 -0.0646  0.0382 -0.2494
44920SOL    HW140080  10.766   7.335   8.837 -0.6460  0.2459 -0.4093
44920SOL    HW240081  10.773   7.287   8.694  0.1029  0.0162 -0.2986
44921SOL     OW40082   6.964   8.002   2.862  0.1485  0.3049  0.0608
44921SOL    HW140083   6.956   7.945   2.786 -0.5799  1.4261 -0.7372
44921SOL    HW240084   6.973   7.943   2.936  2.4890 -0.8391 -1.0211
44922SOL     OW40085   4.679   0.806  11.157 -0.1994 -0.0946 -0.5554
44922SOL    HW140086   4.699   0.896  11.132 -1.6654  0.4115 -0.0021
44922SOL    HW240087   4.764   0.769  11.182  0.0747  2.2570  2.7688
44923SOL     OW40088   1.560   0.233   8.420 -0.0390  0.3941 -0.0866
44923SOL    HW140089   1.512   0.316   8.417 -2.0923 -0.6642  1.1137
44923SOL    HW240090   1.493   0.167   8.441  1.8694 -1.2476  1.2985
44924SOL     OW40091   2.438   2.469   8.146  0.5168  0.1450  0.1726
44924SOL    HW140092   2.346   2.450   8.160  1.0635 -2.7944  0.3963
44924SOL    HW240093   2.480   2.383   8.142  3.0630  1.3450 -1.2953
44925SOL     OW40094  11.580   2.279   0.232 -0.0828  0.2101 -0.0980
44925SOL    HW140095  11.582   2.192   0.193  0.5021 -0.7886  2.0535
44925SOL    HW240096  11.520   2.329   0.176 -2.1946 -2.1923 -0.1294
44926SOL     OW40097   8.460   4.776   4.626 -0.1815 -0.1013 -0.2934
44926SOL    HW140098   8.552   4.756   4.608 -0.6234 -1.9794 -0.6837
44926SOL    HW240099   8.462   4.821   4.710  1.0591 -0.5503 -0.0501
44927SOL     OW40100  11.349   2.296   5.307  0.4607 -0.0774  0.7127
44927SOL    HW140101  11.288   2.283   5.235 -0.2007  1.0347  1.0370
44927SOL    HW240102  11.431   2.322   5.265  0.2732 -0.0982  0.3297
44928SOL     OW40103   3.593   4.060   1.797  0.1956  0.5844 -0.4568
44928SOL    HW140104   3.543   4.140   1.782  0.8430  1.1337  0.1879
44928SOL    HW240105   3.539   3.990   1.761  0.0126  1.4002 -1.8356
44929SOL     OW40106  11.208   5.630   3.191 -0.5464 -0.1592 -0.3571
44929SOL    HW140107  11.303   5.638   3.181 -0.4513  0.6310  0.9978
44929SOL    HW240108  11.187   5.682   3.268 -1.7669 -2.1978  0.7976
44930SOL     OW40109  10.429   3.185   8.384  0.5866 -0.5154 -0.6179
44930SOL    HW140110  10.387   3.180   8.298  1.3285 -0.4355 -0.9940
44930SOL    HW240111  10.522   3.175   8.365  0.8766  0.7800  0.0394
44931SOL     OW40112   7.008   2.975   9.250 -0.2958  0.5614 -0.0295
44931SOL    HW140113   7.003   3.030   9.172  1.7638  0.3481 -0.3615
44931SOL    HW240114   7.095   2.992   9.286 -0.2243 -1.2622  0.7639
44932SOL     OW40115   3.909  10.192   9.128  0.1145  0.3743 -0.1917
44932SOL    HW140116   3.940  10.256   9.191  1.5027  1.0264 -1.4564
44932SOL    HW240117   3.828  10.157   9.165  0.5501  1.1989  1.5974
44933SOL     OW40118   5.264   9.007   9.189 -0.4235  0.0715 -0.3551
44933SOL    HW140119   5.304   9.061   9.120  0.0065 -0.2427 -0.3571
44933SOL    HW240120   5.282   9.055   9.270 -0.1755  0.0152 -0.3733
44934SOL     OW40121   2.186   6.345   8.554  0.5787 -0.6360  0.4443
44934SOL    HW140122   2.095   6.317   8.557  0.7759 -1.3439  0.1315
44934SOL    HW240123   2.228   6.299   8.627  0.7321 -0.4998  0.4424
44935SOL     OW40124  10.255   8.582   7.765  0.2099  0.2164 -1.3081
44935SOL    HW140125  10.256   8.669   7.726  0.1188  0.7973 -0.0656
44935SOL    HW240126  10.165   8.551   7.750 -0.7616  1.6409  0.8887
44936SOL     OW40127   9.707   0.734   1.101  0.5900  0.1281 -0.3746
44936SOL    HW140128   9.777   0.718   1.038  1.4292  0.1754  0.5132
44936SOL    HW240129   9.640   0.782   1.052  0.4516 -1.3111 -1.6589
44937SOL     OW40130   7.462   1.893   6.590 -0.4800  0.3249 -0.5464
44937SOL    HW140131   7.557   1.879   6.591 -0.7043 -1.4127 -0.2708
44937SOL    HW240132   7.452   1.987   6.601  1.2289  0.6473 -1.3219
44938SOL     OW40133   4.456   7.137   6.280  0.1207  0.0753 -0.4784
44938SOL    HW140134   4.400   7.205   6.243 -0.2550  0.2439  0.3835
44938SOL    HW240135   4.423   7.124   6.369  0.0502 -1.3735 -0.6871
44939SOL     OW40136   1.949   5.611   8.958  0.0893 -0.1520 -0.1789
44939SOL    HW140137   1.923   5.593   8.868 -1.4140  1.5076 -0.1223
44939SOL    HW240138   2.036   5.650   8.950 -0.2989  0.5772 -0.9761
44940SOL     OW40139   3.986   7.060   8.660  0.2524  0.4398  0.1829
44940SOL    HW140140   4.076   7.077   8.630  0.3511 -1.8049 -0.9920
44940SOL    HW240141   3.958   7.143   8.698  3.3821  0.7673  2.1146
44941SOL     OW40142   9.025   1.246   8.649  0.4429 -0.6053  0.2032
44941SOL    HW140143   8.975   1.165   8.655  0.3698 -0.7218 -1.5164
44941SOL    HW240144   9.071   1.252   8.732 -1.9300 -0.7948  1.6457
44942SOL     OW40145   1.326   0.587  11.424 -0.2341 -0.1528 -0.0544
44942SOL    HW140146   1.414   0.587  11.386 -0.0874 -0.9772  0.2616
44942SOL    HW240147   1.338   0.552  11.512 -0.8465 -0.0391  0.0791
44943SOL     OW40148  10.019   8.560   1.469  0.0198 -0.4647  0.0134
44943SOL    HW140149  10.095   8.605   1.507  0.1422 -0.0887 -0.6635
44943SOL    HW240150   9.944   8.616   1.492 -0.1380 -1.1034  1.1320
44944SOL     OW40151   2.096  11.497   5.216 -0.4752  0.0774 -0.0907
44944SOL    HW140152   2.010  11.528   5.244 -0.7517 -0.1401 -0.6825
44944SOL    HW240153   2.091  11.402   5.223  0.6487  0.1095  2.5482
44945SOL     OW40154   3.503   5.991   6.819  0.8104 -0.4336 -0.2476
44945SOL    HW140155   3.585   5.942   6.832  0.1001 -1.5318  0.2175
44945SOL    HW240156   3.501   6.052   6.893  1.9656  0.7352 -1.1225
44946SOL     OW40157  11.750   8.007  10.675  0.5384 -0.3870 -0.6922
44946SOL    HW140158  11.716   8.094  10.697  1.4112 -0.0304 -0.6841
44946SOL    HW240159  11.821   7.993  10.738  0.0712 -1.3358 -0.3678
44947SOL     OW40160   2.930   9.086   8.278  0.2129  0.4139  0.2952
44947SOL    HW140161   2.904   9.168   8.320  2.1264  1.9354 -1.3052
44947SOL    HW240162   2.981   9.040   8.344 -0.1011  0.9341  0.9107
44948SOL     OW40163   0.122   3.017   5.070 -0.3922  0.0355  0.2878
44948SOL    HW140164   0.185   2.990   5.003 -0.1367  0.4707  0.3478
44948SOL    HW240165   0.042   2.970   5.048 -0.2471  0.0084 -0.2008
44949SOL     OW40166   7.398   5.766   9.319 -0.3506 -0.4786 -0.4130
44949SOL    HW140167   7.473   5.751   9.376  0.4143  1.9790 -0.6711
44949SOL    HW240168   7.429   5.743   9.231 -0.4085 -0.9307 -0.3171
44950SOL     OW40169   7.530   1.395   4.219 -0.5665  0.4963 -0.1985
44950SOL    HW140170   7.466   1.466   4.224  0.6663  1.7010 -1.1474
44950SOL    HW240171   7.597   1.418   4.283 -1.8787 -1.7102  2.1926
44951SOL     OW40172   0.406   1.822   6.674 -0.1296  0.8043  0.0095
44951SOL    HW140173   0.486   1.874   6.677  0.3281  0.1836 -0.9227
44951SOL    HW240174   0.423   1.749   6.734 -0.3768  1.1684  0.5342
44952SOL     OW40175   8.656   6.386   0.431 -0.3013  0.0493 -0.4870
44952SOL    HW140176   8.625   6.299   0.455  1.1694 -0.8992 -1.8268
44952SOL    HW240177   8.582   6.444   0.449 -1.5158 -1.5453 -0.1290
44953SOL     OW40178   1.440  11.084   8.257  0.3579  0.1055  0.0559
44953SOL    HW140179   1.488  11.011   8.294  2.0033  0.2791 -1.5819
44953SOL    HW240180   1.470  11.160   8.307 -0.8682 -0.1917  1.3214
44954SOL     OW40181   7.565  11.168   6.652  0.5737 -0.1055  0.6622
44954SOL    HW140182   7.657  11.192   6.640  0.1087  0.7435 -1.6860
44954SOL    HW240183   7.517  11.224   6.592 -1.4487 -0.9820  1.3633
44955SOL     OW40184   2.385   2.079   7.418  0.1465 -0.0225  0.3268
44955SOL    HW140185   2.422   2.096   7.332 -0.9489  3.0673  0.3533
44955SOL    HW240186   2.316   2.144   7.428  0.4788  0.0033  3.6833
44956SOL     OW40187   2.229   9.098   3.877  0.5543  0.6538 -0.6650
44956SOL    HW140188   2.294   9.034   3.907  0.7997  1.7861  1.4230
44956SOL    HW240189   2.156   9.044   3.846  1.2437 -0.6470 -0.1466
44957SOL     OW40190   0.986   0.192   7.314 -0.0260 -0.1518 -0.1586
44957SOL    HW140191   0.948   0.178   7.401 -0.6525 -1.6766 -0.6455
44957SOL    HW240192   1.079   0.207   7.330 -0.4692  1.7310  0.9239
44958SOL     OW40193   7.252   9.295   2.949 -0.4518  0.0738  0.4036
44958SOL    HW140194   7.248   9.232   2.877 -0.9543 -0.0147  0.5063
44958SOL    HW240195   7.237   9.380   2.907  0.4244  0.1586  0.2350
44959SOL     OW40196   1.353   1.891   3.382  0.5359  0.3711  0.2233
44959SOL    HW140197   1.347   1.945   3.461 -0.4420  0.5169  0.0677
44959SOL    HW240198   1.351   1.953   3.310  1.9343  0.2680  0.0808
44960SOL     OW40199   3.683   4.074   3.688  0.4143  0.4183 -0.5956
44960SOL    HW140200   3.635   3.994   3.665  0.7996  0.3913 -1.3421
44960SOL    HW240201   3.680   4.078   3.783 -0.5050  0.0675 -0.6025
44961SOL     OW40202   1.876   4.986   2.473 -0.0585  0.1117  0.0667
44961SOL    HW140203   1.957   4.959   2.429  0.6355  1.0060  0.7446
44961SOL    HW240204   1.806   4.949   2.420  0.7965 -0.5030 -0.6574
44962SOL     OW40205   5.885   7.975  10.882  0.0579 -0.0564  0.0473
44962SOL    HW140206   5.827   7.906  10.848  0.3577 -0.4230  0.2769
44962SOL    HW240207   5.970   7.933  10.891  0.6394  0.7644 -1.3122
44963SOL     OW40208  11.343   5.598   4.706 -0.5652  0.2858  0.2384
44963SOL    HW140209  11.345   5.561   4.617 -1.4164  1.2774 -0.2071
44963SOL    HW240210  11.409   5.548   4.754  0.7035  0.4559 -1.2467
44964SOL     OW40211   9.790   9.941   6.465 -0.3031  0.4718 -0.2252
44964SOL    HW140212   9.789   9.849   6.494 -0.6509  1.1872  2.2813
44964SOL    HW240213   9.757   9.938   6.376  1.1170 -1.9884 -0.7767
44965SOL     OW40214   6.250  11.104   0.379  0.4156 -0.5423 -0.2394
44965SOL    HW140215   6.180  11.117   0.443 -0.4855  0.8050 -1.4427
44965SOL    HW240216   6.326  11.148   0.418 -0.2256  0.6168 -0.2332
44966SOL     OW40217   3.141   7.357   9.772  0.0901 -0.2250 -0.6480
44966SOL    HW140218   3.139   7.449   9.799 -0.1403  0.2223 -2.1129
44966SOL    HW240219   3.228   7.327   9.799 -0.2827  0.0392  0.9674
44967SOL     OW40220   8.317   5.643  10.936 -0.4767  0.4503  0.1031
44967SOL    HW140221   8.286   5.653  11.026  2.4970  1.5424  1.1156
44967SOL    HW240222   8.410   5.624  10.944 -0.4560 -1.2669 -2.7476
44968SOL     OW40223   7.521   0.614   6.941 -0.2714 -0.2669  0.0040
44968SOL    HW140224   7.484   0.692   6.981 -1.5917 -1.5155  1.3352
44968SOL    HW240225   7.450   0.549   6.943  0.1275 -0.9339 -2.8865
44969SOL     OW40226   4.807   5.878   0.383  0.4640  0.8092  0.2340
44969SOL    HW140227   4.815   5.826   0.463  0.4261  0.0643 -0.2457
44969SOL    HW240228   4.718   5.913   0.386 -0.0330 -0.3837 -0.1834
44970SOL     OW40229  11.328   9.019   9.354  0.4929 -0.1864  0.3922
44970SOL    HW140230  11.282   9.071   9.289  0.0403 -1.9799 -0.8029
44970SOL    HW240231  11.265   9.009   9.425  0.0997 -0.2109  0.0451
44971SOL     OW40232   5.609   3.799  10.483  0.6480  0.0488 -0.3211
44971SOL    HW140233   5.564   3.721  10.449  0.0628 -0.0599  0.6670
44971SOL    HW240234   5.614   3.784  10.578  1.3999  0.7750 -0.2388
44972SOL     OW40235   5.749   8.618   4.349  0.2801 -0.1182  0.0282
44972SOL    HW140236   5.711   8.546   4.400  1.0196  0.8735  2.1374
44972SOL    HW240237   5.674   8.668   4.319 -0.2015  0.0080  1.3489
44973SOL     OW40238  10.658   2.207   6.218  0.1465 -0.3334  0.1992
44973SOL    HW140239  10.584   2.268   6.214 -0.2775 -0.5936  2.8307
44973SOL    HW240240  10.713   2.232   6.143 -0.5003  2.6416  0.5921
44974SOL     OW40241   6.766   4.388   2.826  0.0001 -0.4295 -0.2587
44974SOL    HW140242   6.740   4.420   2.739 -0.5775 -0.7356 -0.2025
44974SOL    HW240243   6.749   4.462   2.884  1.0896  0.0349 -0.5091
44975SOL     OW40244   9.426   1.921   1.412  0.1025  0.6038 -0.4355
44975SOL    HW140245   9.516   1.888   1.419 -0.9219 -2.7394 -1.3201
44975SOL    HW240246   9.408   1.921   1.318 -0.9663  0.8329 -0.2397
44976SOL     OW40247   4.478  11.250   3.580 -0.4342 -0.3425  0.1202
44976SOL    HW140248   4.440  11.303   3.510  0.6812  0.6398  0.2436
44976SOL    HW240249   4.403  11.204   3.618 -1.4135  1.0798 -0.0463
44977SOL     OW40250  11.105   1.063   8.007 -0.0864  0.5919  0.3955
44977SOL    HW140251  11.047   1.068   8.083 -0.8285 -0.3729 -0.0962
44977SOL    HW240252  11.166   0.992   8.028  2.5023  3.0488  1.9423
44978SOL     OW40253   1.980   3.169   4.788  0.3058  0.6752 -0.0568
44978SOL    HW140254   1.929   3.193   4.711  0.2277 -1.2142 -0.6541
44978SOL    HW240255   1.915   3.151   4.856 -0.0075 -2.3075 -0.9842
44979SOL     OW40256   9.515  10.457   4.287 -0.0951  0.3619 -0.7276
44979SOL    HW140257   9.535  10.532   4.342 -1.5521 -0.3707  0.9002
44979SOL    HW240258   9.454  10.405   4.339  0.6006 -1.7779 -1.9462
44980SOL     OW40259   0.739   1.260   9.299  0.4111  0.8012 -0.2511
44980SOL    HW140260   0.762   1.284   9.209 -1.8361  2.1578 -0.5615
44980SOL    HW240261   0.685   1.182   9.289  1.4729  0.0012  0.1014
44981SOL     OW40262   7.541   8.486   7.957 -0.2726 -0.4503  0.0636
44981SOL    HW140263   7.636   8.477   7.962 -0.3392 -0.6336  1.5837
44981SOL    HW240264   7.518   8.455   7.869  0.9340 -1.6996  0.1547
44982SOL     OW40265  10.896  10.965   7.482  0.1261  0.1831  0.2864
44982SOL    HW140266  10.944  10.948   7.401 -2.5516 -2.8690 -0.9091
44982SOL    HW240267  10.824  11.023   7.457 -0.6064 -0.6182  0.4719
44983SOL     OW40268   9.555   7.720  10.537  0.4015 -0.2624 -0.0484
44983SOL    HW140269   9.493   7.785  10.569 -1.0104 -0.0860 -2.8186
44983SOL    HW240270   9.527   7.637  10.576 -0.7206  0.0609 -0.1441
44984SOL     OW40271   5.571   5.581   2.892 -0.5360  0.3987  0.0835
44984SOL    HW140272   5.512   5.642   2.936 -0.2980  1.6315 -1.2268
44984SOL    HW240273   5.546   5.495   2.925 -0.8138  1.1931  2.0663
44985SOL     OW40274   8.267   1.452   5.714  0.6862 -0.0042 -0.0675
44985SOL    HW140275   8.255   1.544   5.690 -0.4188  0.3825  1.7786
44985SOL    HW240276   8.197   1.406   5.668 -1.3452  0.7151  2.0744
44986SOL     OW40277  10.908   9.799   6.828 -0.0527  0.1459 -0.0813
44986SOL    HW140278  10.916   9.863   6.757 -0.8813  1.4831  0.9681
44986SOL    HW240279  10.926   9.715   6.787  1.0603  1.0440 -1.5223
44987SOL     OW40280   5.497   9.927   3.921 -0.1743 -0.2220  0.1526
44987SOL    HW140281   5.491  10.019   3.948 -0.7441  0.2991 -1.5704
44987SOL    HW240282   5.530   9.881   3.998  0.5805  1.4975  0.9090
44988SOL     OW40283   5.703   1.388  11.117 -0.1611 -0.5176  0.2089
44988SOL    HW140284   5.651   1.461  11.151 -0.3946 -0.2525 -0.6911
44988SOL    HW240285   5.778   1.430  11.074 -0.5124 -0.7689 -0.6818
44989SOL     OW40286   1.900   2.934   6.315  0.1197 -0.0460 -0.3416
44989SOL    HW140287   1.993   2.912   6.304  0.3640  0.3583  0.7374
44989SOL    HW240288   1.869   2.872   6.382 -0.2723  0.1370 -0.3512
44990SOL     OW40289   4.742   6.827   4.600  0.1921 -0.2879  0.1479
44990SOL    HW140290   4.746   6.827   4.505 -0.7690 -0.8112  0.0953
44990SOL    HW240291   4.732   6.919   4.624  0.8746 -0.1115 -0.2222
44991SOL     OW40292  11.551   4.015   8.695 -0.4420 -0.6181  0.5075
44991SOL    HW140293  11.541   3.956   8.770  0.3728 -1.7371 -0.2375
44991SOL    HW240294  11.632   3.987   8.652 -0.5291  0.4457 -0.4073
44992SOL     OW40295   7.671   6.442  10.953  0.1989 -0.0440 -0.0696
44992SOL    HW140296   7.621   6.364  10.926  1.3227 -1.5223  1.8270
44992SOL    HW240297   7.740   6.450  10.888 -1.5250  1.1365 -1.8745
44993SOL     OW40298   3.428  11.593   6.450 -0.3331 -0.0273  0.5091
44993SOL    HW140299   3.511  11.622   6.489  0.5696 -0.2360 -1.1365
44993SOL    HW240300   3.376  11.673   6.444  0.7857  0.6527 -0.8027
44994SOL     OW40301   5.047   3.741   8.310 -0.3621 -0.3162  0.7271
44994SOL    HW140302   4.983   3.770   8.375 -1.5724 -0.4349 -0.3754
44994SOL    HW240303   5.128   3.785   8.335 -1.6203  2.4785  0.2917
44995SOL     OW40304   8.226   4.893   4.729  0.2820  0.0023 -0.0379
44995SOL    HW140305   8.156   4.938   4.681  0.2308 -0.0550 -0.0177
44995SOL    HW240306   8.287   4.864   4.662  0.5287  0.4734 -0.0125
44996SOL     OW40307  10.421   6.040   7.671 -0.3427 -0.0437  0.1689
44996SOL    HW140308  10.413   6.108   7.604  1.0094 -2.7800 -3.1090
44996SOL    HW240309  10.359   5.973   7.644  0.7969 -1.5935  1.2076
44997SOL     OW40310   6.471  11.166   7.439 -0.2450 -0.0766  0.1700
44997SOL    HW140311   6.561  11.133   7.436  1.2534  3.4247  1.8800
44997SOL    HW240312   6.425  11.104   7.496  0.5494 -2.7634 -1.8888
44998SOL     OW40313   6.132   9.048   3.089 -0.1682  0.4674 -0.0305
44998SOL    HW140314   6.110   9.094   3.008  1.9691  0.6137 -0.5941
44998SOL    HW240315   6.220   9.078   3.110 -0.4949  0.0828  2.1337
44999SOL     OW40316   4.373  10.107   8.198 -0.8254 -0.4015 -0.6832
44999SOL    HW140317   4.301  10.133   8.255 -0.4241  1.5384 -1.0075
44999SOL    HW240318   4.447  10.095   8.257 -0.6063  0.8353 -0.6958
45000SOL     OW40319   7.494   2.679   3.308  0.4059  0.3212 -0.5557
45000SOL    HW140320   7.483   2.586   3.287 -0.9185  0.4899 -0.7138
45000SOL    HW240321   7.569   2.707   3.255  1.1436 -0.7661 -0.1133
45001SOL     OW40322   5.080   1.743   9.270 -0.2066  0.3564 -0.4527
45001SOL    HW140323   5.163   1.696   9.279 -0.9021 -1.0360 -1.1598
45001SOL    HW240324   5.028   1.716   9.344 -0.4623  0.3378 -0.6380
45002SOL     OW40325   3.472   1.347  11.589  0.6353 -0.2314 -0.0890
45002SOL    HW140326   3.424   1.265  11.602  0.9071 -0.2175  1.0646
45002SOL    HW240327   3.510   1.367  11.674  1.9828  0.2196 -0.7713
45003SOL     OW40328  11.137   2.678   1.959 -0.0055 -0.3498 -0.2160
45003SOL    HW140329  11.217   2.646   2.000  0.3083  0.7619  0.0656
45003SOL    HW240330  11.090   2.599   1.933  0.1345 -1.0847  1.6281
45004SOL     OW40331   6.937   5.368   2.760  0.5881  0.1965  0.0652
45004SOL    HW140332   6.974   5.377   2.672  0.2745  1.1265  0.0126
45004SOL    HW240333   7.007   5.399   2.818 -0.6899  4.0959 -0.1478
45005SOL     OW40334   1.688   0.500  10.937 -0.0334 -0.3820  0.1560
45005SOL    HW140335   1.639   0.545  10.868 -0.4987 -3.3477 -1.6452
45005SOL    HW240336   1.650   0.412  10.939  1.8857 -1.2551  2.2684
45006SOL     OW40337   6.285   5.744   7.188  0.3173  0.1473  0.4608
45006SOL    HW140338   6.376   5.746   7.160  1.0821  1.1656  2.7825
45006SOL    HW240339   6.251   5.831   7.168  0.2086  0.1452  0.6291
45007SOL     OW40340   4.852   7.304   3.333  0.0234  0.3544 -0.1733
45007SOL    HW140341   4.852   7.267   3.245  0.6184  1.4477 -0.6483
45007SOL    HW240342   4.787   7.373   3.330 -1.7682 -1.1993  0.9793
45008SOL     OW40343  11.173  10.023   3.068  0.7189  0.0909 -0.0757
45008SOL    HW140344  11.146   9.931   3.077  0.9460 -0.0528 -0.8464
45008SOL    HW240345  11.186  10.052   3.159 -0.5551 -0.2720  0.2413
45009SOL     OW40346   2.902   4.532   4.933 -0.0750  0.6418  0.3904
45009SOL    HW140347   2.988   4.493   4.919 -0.4159  0.1985 -0.4948
45009SOL    HW240348   2.853   4.513   4.854 -1.3059  0.0585  1.2660
45010SOL     OW40349  10.384   9.582   0.804 -0.3701  0.1061 -0.5623
45010SOL    HW140350  10.311   9.538   0.848  0.3362 -0.9787 -0.4162
45010SOL    HW240351  10.379   9.672   0.835 -0.3729 -0.4343  1.1653
45011SOL     OW40352   6.429   5.111   4.997  0.1780 -1.1333 -0.0272
45011SOL    HW140353   6.339   5.087   4.979 -0.1826  0.0647  0.0837
45011SOL    HW240354   6.435   5.114   5.092 -0.1645  0.4672 -0.0264
45012SOL     OW40355  10.962   4.262   9.813  0.4427 -0.0760 -0.5172
45012SOL    HW140356  11.004   4.231   9.893 -1.4406 -1.7731 -0.1207
45012SOL    HW240357  10.978   4.357   9.813 -1.2623  0.3828  3.0302
45013SOL     OW40358  11.727   6.329  11.188  0.0184 -0.1291  0.0229
45013SOL    HW140359  11.791   6.392  11.223 -1.3461  0.4657  1.6191
45013SOL    HW240360  11.686   6.375  11.114 -0.1874  0.4321  0.4777
45014SOL     OW40361   5.885   6.573   4.024  0.0172 -1.0292  0.1672
45014SOL    HW140362   5.820   6.508   3.995 -1.2663  0.1550  0.2817
45014SOL    HW240363   5.954   6.569   3.957 -0.6386 -1.6410 -0.4973
45015SOL     OW40364   6.041   7.239   4.317  0.2516 -0.0415  0.4920
45015SOL    HW140365   5.966   7.284   4.279 -0.0809 -0.5325  0.5605
45015SOL    HW240366   6.010   7.207   4.401  0.3244 -0.8394  0.2224
45016SOL     OW40367   8.828   8.559   6.803 -0.2670  0.1047  0.1217
45016SOL    HW140368   8.794   8.575   6.715 -0.5082 -2.4193 -0.3296
45016SOL    HW240369   8.875   8.639   6.826 -3.9444  2.6337 -0.4058
45017SOL     OW40370   4.020   0.864   1.128  0.2922 -0.2203 -0.5940
45017SOL    HW140371   4.067   0.787   1.099 -1.9289 -1.2872 -1.6694
45017SOL    HW240372   3.956   0.831   1.191 -2.5457  0.1221 -3.0648
45018SOL     OW40373  11.231  11.447   4.908 -0.5078  0.9940  0.2812
45018SOL    HW140374  11.251  11.538   4.885 -1.1882  0.5031 -2.6440
45018SOL    HW240375  11.250  11.398   4.828 -0.3263 -1.4391  1.7394
45019SOL     OW40376   1.492   7.048   1.710  0.2239  0.6181  0.7701
45019SOL    HW140377   1.444   7.128   1.690  0.7551  0.6683 -0.4453
45019SOL    HW240378   1.584   7.073   1.700  0.4333  0.1190  1.4186
45020SOL     OW40379   2.432   3.541   8.598 -0.1241  0.2404  0.3149
45020SOL    HW140380   2.353   3.576   8.639  1.3758  2.4159  1.5958
45020SOL    HW240381   2.432   3.577   8.510 -2.3817 -2.8913 -1.1603
45021SOL     OW40382   9.222   6.787   2.018  0.3083 -0.2018  0.2402
45021SOL    HW140383   9.277   6.815   2.092  0.3375  1.9889 -0.5437
45021SOL    HW240384   9.270   6.815   1.940 -0.4335 -1.1422 -0.5878
45022SOL     OW40385   2.825   4.497   1.512  0.4661 -0.3657  0.3491
45022SOL    HW140386   2.896   4.556   1.537  0.4660 -0.9632  1.8894
45022SOL    HW240387   2.746   4.551   1.519  0.5307 -0.3548  1.1527
45023SOL     OW40388   7.248   5.419   0.644  0.7471  0.1034 -0.0399
45023SOL    HW140389   7.312   5.451   0.580 -0.3500  0.7969 -0.8130
45023SOL    HW240390   7.167   5.464   0.622 -0.1401 -1.0929  0.6446
45024SOL     OW40391   8.315   1.873   7.891  0.5011  0.2910 -0.0471
45024SOL    HW140392   8.248   1.933   7.857  0.4959  0.7203  0.7179
45024SOL    HW240393   8.358   1.922   7.961  1.2113 -0.2113 -0.1270
45025SOL     OW40394   9.517   1.065   8.398 -0.1128 -0.4475 -0.0697
45025SOL    HW140395   9.426   1.049   8.373  0.1957 -1.3043 -0.6718
45025SOL    HW240396   9.563   0.985   8.375  0.8385  0.0543  0.0351
45026SOL     OW40397   5.734   9.019   9.859  0.0038  0.2781  0.6794
45026SOL    HW140398   5.687   8.996   9.778 -1.4755 -1.8511  2.0328
45026SOL    HW240399   5.814   8.966   9.856 -0.8375 -1.1113  1.2887
45027SOL     OW40400   2.831   0.509   2.563  0.5046  0.0648 -0.2045
45027SOL    HW140401   2.891   0.491   2.635 -0.2887 -3.1771 -0.2026
45027SOL    HW240402   2.753   0.546   2.605 -0.1560 -2.2857  0.7825
45028SOL     OW40403   3.461   6.188   6.971 -0.1369 -0.6716  0.1205
45028SOL    HW140404   3.472   6.189   7.066  0.8341 -1.0565  0.0307
45028SOL    HW240405   3.488   6.275   6.943  0.5739 -0.8834  0.1172
45029SOL     OW40406   3.224   9.767  10.513  0.3061 -0.0311  0.2676
45029SOL    HW140407   3.177   9.712  10.450  0.1226  0.0467  0.3341
45029SOL    HW240408   3.155   9.803  10.569  0.4216  0.2977  0.1989
45030SOL     OW40409   5.737   3.527   5.346  0.0510  0.2726  0.1523
45030SOL    HW140410   5.768   3.588   5.413 -0.0160  1.5667 -0.9644
45030SOL    HW240411   5.654   3.564   5.316  0.0672 -0.3014 -0.6284
45031SOL     OW40412   0.780   0.329  10.544  0.3731  0.0232  0.7744
45031SOL    HW140413   0.844   0.393  10.512 -2.4704  2.8019  0.2039
45031SOL    HW240414   0.773   0.265  10.473  0.5604  1.1733 -0.3087
45032SOL     OW40415   3.988   5.280   7.898 -0.3984  0.3389  0.2459
45032SOL    HW140416   4.014   5.189   7.884  1.3933  0.6923  0.9896
45032SOL    HW240417   3.930   5.300   7.825  0.3261 -0.9851 -0.7355
45033SOL     OW40418   7.836   8.082  10.480 -0.0400 -0.2480  0.4255
45033SOL    HW140419   7.824   8.007  10.538 -0.2454 -0.1420  0.5226
45033SOL    HW240420   7.833   8.158  10.539 -1.4247 -0.0594  0.1483
45034SOL     OW40421   1.313   4.120   8.965  0.0675  0.1673 -0.3334
45034SOL    HW140422   1.258   4.099   8.890  0.7089 -3.0261 -0.0410
45034SOL    HW240423   1.397   4.144   8.928 -0.0146 -0.0654 -0.6686
45035SOL     OW40424   2.535   6.420  10.185  0.3128  0.0611  0.2692
45035SOL    HW140425   2.498   6.427  10.097 -0.3994 -0.6516  0.4980
45035SOL    HW240426   2.464   6.449  10.243  0.8536  0.7563  0.6093
45036SOL     OW40427   8.649   3.831  11.752  0.2153  0.3143  0.0653
45036SOL    HW140428   8.692   3.753  11.718  0.9576  1.5015 -1.8370
45036SOL    HW240429   8.561   3.828  11.715  0.2816  0.4405 -0.1012
45037SOL     OW40430   7.322   0.957   5.100  0.0671  0.3163 -0.6302
45037SOL    HW140431   7.417   0.966   5.089  0.4589 -1.9569  0.3301
45037SOL    HW240432   7.301   1.008   5.178  0.4313  1.1173 -1.0523
45038SOL     OW40433   2.150   1.157   0.207  0.2458 -0.0472 -0.0477
45038SOL    HW140434   2.242   1.176   0.221  0.5174 -1.2940 -0.0584
45038SOL    HW240435   2.129   1.199   0.123  0.9897 -0.3764 -0.4007
45039SOL     OW40436  10.744   6.816  10.011 -0.0161  0.4119  0.0667
45039SOL    HW140437  10.663   6.843   9.968 -0.6132 -2.1219 -0.5360
45039SOL    HW240438  10.717   6.788  10.099 -0.4236 -3.1299 -1.0247
45040SOL     OW40439   9.322   7.785   1.058  0.0369  0.4976  0.5342
45040SOL    HW140440   9.401   7.810   1.106  0.0203  0.4647  0.5786
45040SOL    HW240441   9.334   7.821   0.971  1.6252 -2.3599 -0.5459
45041SOL     OW40442   3.952  11.376   9.991  0.1565  0.0932 -0.1503
45041SOL    HW140443   3.913  11.434  10.057 -2.7608 -1.7769 -0.0385
45041SOL    HW240444   4.012  11.432   9.942 -2.4769  3.2652 -0.0877
45042SOL     OW40445   2.827   1.452   1.086 -0.1559  0.4839  0.4128
45042SOL    HW140446   2.908   1.451   1.034  0.0623  2.3109  0.6483
45042SOL    HW240447   2.849   1.402   1.165  0.3373 -0.0824 -0.0640
45043SOL     OW40448  11.821   7.894  11.769  0.0115 -0.8766 -0.4054
45043SOL    HW140449  11.888   7.907  11.836 -0.7159 -0.8523  0.3363
45043SOL    HW240450  11.841   7.959  11.702  0.4218 -0.5255  0.0507
45044SOL     OW40451   0.918   6.384   5.600  0.8504 -0.0471  0.3164
45044SOL    HW140452   0.843   6.442   5.613 -0.2493 -1.7179  1.9832
45044SOL    HW240453   0.972   6.397   5.677  2.2930  1.0407 -0.8094
45045SOL     OW40454   9.377   2.266   7.309 -0.2001  0.2499 -0.2118
45045SOL    HW140455   9.391   2.208   7.384 -1.7192  0.2135  0.0844
45045SOL    HW240456   9.458   2.316   7.301  1.0122 -1.6321 -0.2402
45046SOL     OW40457   8.054   0.071   4.466  0.2261  0.1013  0.0973
45046SOL    HW140458   7.961   0.054   4.454 -0.2024  1.1797  1.5981
45046SOL    HW240459   8.065   0.075   4.561  2.1876 -1.8827  0.0442
45047SOL     OW40460   0.117   5.158  11.720 -0.3801 -0.0831 -0.5506
45047SOL    HW140461   0.107   5.197  11.807 -0.7212  2.1869 -1.5292
45047SOL    HW240462   0.046   5.094  11.714 -1.8391  1.3926  0.0296
45048SOL     OW40463   7.712   7.851   2.826 -0.1812  0.5052  0.1008
45048SOL    HW140464   7.731   7.943   2.841  1.2844  0.4083 -0.9190
45048SOL    HW240465   7.790   7.817   2.783 -1.6420 -0.6604 -1.7710
45049SOL     OW40466   6.741   8.908   4.541 -0.0181  0.0837 -0.8045
45049SOL    HW140467   6.807   8.978   4.542  0.1729 -0.0917 -1.2895
45049SOL    HW240468   6.737   8.880   4.450  1.1783 -1.7450 -0.3483
45050SOL     OW40469   1.812   6.256   1.550  0.1467  0.0601  0.3479
45050SOL    HW140470   1.742   6.222   1.605 -1.7256  0.0591 -1.8464
45050SOL    HW240471   1.840   6.180   1.498  0.3613  0.4900 -0.1727
45051SOL     OW40472   5.162   5.196   2.570 -0.0914 -0.3902 -0.5316
45051SOL    HW140473   5.208   5.156   2.644  0.8605  0.2561 -0.7635
45051SOL    HW240474   5.163   5.128   2.502 -1.2709 -1.1167  0.1271
45052SOL     OW40475   2.374   1.295   7.370 -0.1463  1.0869 -0.1546
45052SOL    HW140476   2.432   1.250   7.308 -0.5906  0.3326 -0.0414
45052SOL    HW240477   2.286   1.280   7.335 -0.3762  0.9183  0.4820
45053SOL     OW40478   0.233   2.227   6.534  0.4051  0.7482  0.3420
45053SOL    HW140479   0.141   2.242   6.552 -0.0765  1.2724 -2.1791
45053SOL    HW240480   0.238   2.136   6.506  0.8609  0.3989  1.5123
45054SOL     OW40481   6.785   4.340   3.978 -0.1911  0.3012  0.2689
45054SOL    HW140482   6.774   4.313   3.887 -1.5373  1.3797  0.0711
45054SOL    HW240483   6.825   4.265   4.022 -1.5512 -1.0460 -0.7427
45055SOL     OW40484   9.471   5.936   0.561  0.6561 -0.5023  0.7347
45055SOL    HW140485   9.434   5.988   0.490  0.4848 -0.5510  0.7875
45055SOL    HW240486   9.419   5.856   0.562  2.0886 -1.5090 -0.5534
45056SOL     OW40487   4.061   4.990  10.452 -0.3100  0.2012  0.6509
45056SOL    HW140488   4.016   5.073  10.439 -0.0993 -0.0646 -2.6050
45056SOL    HW240489   4.150   5.014  10.477 -0.7736  0.8333  1.7951
45057SOL     OW40490   0.749   6.128   4.243 -0.6460  0.0447 -0.3033
45057SOL    HW140491   0.745   6.118   4.148 -1.9289 -2.2532 -0.0795
45057SOL    HW240492   0.843   6.137   4.262 -0.4149  1.2522 -1.7903
45058SOL     OW40493  11.239   0.159   1.603  0.7181  0.6137  0.1451
45058SOL    HW140494  11.314   0.119   1.559  0.7341 -0.6988  1.2790
45058SOL    HW240495  11.198   0.214   1.537  2.2504  0.7782 -0.7066
45059SOL     OW40496   8.905   2.797   4.243 -0.3071 -0.5771 -0.1094
45059SOL    HW140497   8.814   2.801   4.212 -0.2584  0.6047 -0.1575
45059SOL    HW240498   8.903   2.838   4.329  0.6657  2.6763 -1.4552
45060SOL     OW40499   0.584   1.519   0.526 -0.1566  1.2760 -0.0040
45060SOL    HW140500   0.539   1.438   0.504 -0.2540  2.0803 -3.2113
45060SOL    HW240501   0.533   1.557   0.597 -0.0739 -1.4306  1.6159
45061SOL     OW40502   3.254   2.272   8.047 -0.0769 -0.3617  0.1409
45061SOL    HW140503   3.349   2.280   8.039  0.0053 -0.3079  1.0372
45061SOL    HW240504   3.230   2.204   7.984  0.5670 -0.4484 -0.0203
45062SOL     OW40505   8.711   8.840   4.829  0.8362  0.0533  0.1602
45062SOL    HW140506   8.666   8.923   4.813 -2.8235 -1.6929  0.6111
45062SOL    HW240507   8.743   8.848   4.920 -1.1588  0.3228  0.8809
45063SOL     OW40508   7.339   0.591   9.306  0.0880 -0.0192 -0.4362
45063SOL    HW140509   7.247   0.565   9.309  0.5288 -1.7105 -0.4967
45063SOL    HW240510   7.382   0.520   9.259  1.5675  0.3683  0.2838
45064SOL     OW40511   1.473   6.648  10.344 -0.1673  0.7455 -0.5328
45064SOL    HW140512   1.488   6.580  10.280  0.1414 -0.2039  0.5184
45064SOL    HW240513   1.542   6.713  10.328 -0.6165  0.9536 -1.6963
45065SOL     OW40514   7.454  10.094   8.304  0.4779 -0.4574  0.3151
45065SOL    HW140515   7.506  10.174   8.307 -0.5893  0.2094  1.4103
45065SOL    HW240516   7.413  10.095   8.218 -0.4272  0.7592  0.7445
45066SOL     OW40517   0.219   4.462   2.631  0.1803 -1.0075  1.0322
45066SOL    HW140518   0.124   4.473   2.627  0.2770 -0.6498 -1.0893
45066SOL    HW240519   0.235   4.380   2.584  1.1362  0.5931 -1.6126
45067SOL     OW40520   6.939   3.684  10.617  0.2283  0.0720  0.4136
45067SOL    HW140521   6.920   3.759  10.674 -0.9761 -1.2367  1.8211
45067SOL    HW240522   6.858   3.669  10.569  0.1448 -0.9082  0.8450
45068SOL     OW40523   8.589  11.411   7.069 -0.2222  0.0614 -0.1031
45068SOL    HW140524   8.515  11.350   7.074  0.0881 -0.3277 -0.1994
45068SOL    HW240525   8.658  11.369   7.121  0.4503 -0.3373 -1.2848
45069SOL     OW40526   8.961   7.629   9.766 -0.1639 -0.4673  0.0894
45069SOL    HW140527   8.976   7.665   9.678 -1.4836  0.1923  0.1037
45069SOL    HW240528   9.001   7.693   9.825 -1.5404  0.4557  0.0636
45070SOL     OW40529  10.354   3.203   1.794  0.0473  0.0621 -0.0032
45070SOL    HW140530  10.321   3.199   1.884  0.4424  2.3226  0.3011
45070SOL    HW240531  10.388   3.115   1.777 -0.6527 -0.6023  1.8035
45071SOL     OW40532   4.628  11.186   4.922 -0.0203 -0.9132  0.1863
45071SOL    HW140533   4.692  11.131   4.877  1.3546  0.8282 -0.1053
45071SOL    HW240534   4.616  11.261   4.865  1.4043  1.1460  2.3910
45072SOL     OW40535   7.847   8.324   1.166  0.4978 -0.2382  0.0679
45072SOL    HW140536   7.876   8.415   1.155 -1.2009  0.2155 -1.0242
45072SOL    HW240537   7.796   8.305   1.087 -1.9552 -1.0353  1.7176
45073SOL     OW40538   9.007  11.266   5.116  0.0069  0.1973 -0.3565
45073SOL    HW140539   9.088  11.225   5.087  1.0603  0.5967  1.7926
45073SOL    HW240540   8.938  11.204   5.092  1.2737 -1.5839  0.3837
45074SOL     OW40541   0.600   3.297   8.008  0.1854 -0.5356  0.1115
45074SOL    HW140542   0.667   3.353   8.046 -0.8706  1.8641 -1.3286
45074SOL    HW240543   0.555   3.259   8.083  0.6263  0.9667  1.1830
45075SOL     OW40544   5.182   7.404  10.207  0.1577  0.3776  0.7177
45075SOL    HW140545   5.145   7.318  10.230  1.4608 -0.6595 -0.8674
45075SOL    HW240546   5.180   7.453  10.289 -0.4801 -1.2161  1.7051
45076SOL     OW40547  10.011   3.294   9.599  0.2792 -0.4144 -0.0236
45076SOL    HW140548  10.103   3.322   9.599 -0.1932  1.2465  0.9079
45076SOL    HW240549  10.006   3.230   9.670  0.6310 -0.1983  0.1980
45077SOL     OW40550  11.063   9.325   3.056 -0.4836  0.1667 -0.4886
45077SOL    HW140551  11.025   9.381   3.123 -1.0878 -0.9002  0.0924
45077SOL    HW240552  11.032   9.237   3.078 -1.1625 -0.1383 -2.5103
45078SOL     OW40553   2.474   4.462   9.726  0.6634 -0.3456  0.3841
45078SOL    HW140554   2.555   4.504   9.755  1.8699 -2.9463  1.0790
45078SOL    HW240555   2.427   4.441   9.807 -2.2487  3.6144 -0.0034
45079SOL     OW40556   0.876   8.493   0.055 -0.1235  0.1050 -0.0557
45079SOL    HW140557   0.796   8.541   0.037 -0.5757 -0.1536  1.1565
45079SOL    HW240558   0.899   8.517   0.145  0.4479 -0.8108  0.0631
45080SOL     OW40559   8.415  11.005   3.126  0.5568 -0.5031  0.2221
45080SOL    HW140560   8.358  10.948   3.177  0.2841 -0.2739  0.1746
45080SOL    HW240561   8.425  10.960   3.042  1.0467 -0.9039  0.4924
45081SOL     OW40562   9.428   4.840   4.921  0.4430  0.2620 -0.3420
45081SOL    HW140563   9.379   4.839   5.003 -0.0504  0.2680 -0.6320
45081SOL    HW240564   9.474   4.924   4.920  0.2474  0.3703 -0.1889
45082SOL     OW40565   1.490   5.076   7.374  0.1955  0.2071  0.7530
45082SOL    HW140566   1.525   5.161   7.399 -1.8312  1.1131  0.6916
45082SOL    HW240567   1.415   5.062   7.432 -0.3400 -0.8878 -0.1608
45083SOL     OW40568   1.913  11.065   7.674 -0.7268 -0.1786  0.3577
45083SOL    HW140569   1.947  11.011   7.603 -0.5295  0.8578 -0.3604
45083SOL    HW240570   1.989  11.081   7.731 -0.2094  1.2031 -0.6500
45084SOL     OW40571   9.607   8.482   3.800 -0.9066  0.3848  0.4906
45084SOL    HW140572   9.604   8.465   3.894 -1.5082 -0.5493  0.3071
45084SOL    HW240573   9.700   8.497   3.782 -0.7119  0.0189  1.1370
45085SOL     OW40574  11.740   6.097   7.548 -0.0954  0.0012  0.1666
45085SOL    HW140575  11.829   6.074   7.522  0.2801 -0.8584  2.0731
45085SOL    HW240576  11.748   6.179   7.597 -0.4971  0.4209 -0.4481
45086SOL     OW40577   6.451   3.817   2.540 -0.4766  0.3013  0.3670
45086SOL    HW140578   6.417   3.792   2.626 -0.2132  0.1825  0.4402
45086SOL    HW240579   6.545   3.830   2.554 -0.4616  0.4540  0.1347
45087SOL     OW40580   7.775  10.366  10.114 -0.1858 -0.5973  0.0052
45087SOL    HW140581   7.714  10.314  10.166 -1.5558  0.1570 -0.8026
45087SOL    HW240582   7.861  10.344  10.149 -1.0039 -0.7151  2.0287
45088SOL     OW40583   4.598  11.004   0.228  0.1854 -0.2505  0.4575
45088SOL    HW140584   4.571  10.918   0.262 -1.6280  0.1967  0.2488
45088SOL    HW240585   4.544  11.066   0.276  0.4167  0.6671 -0.4463
45089SOL     OW40586   2.592   0.595   2.165 -0.1294  0.5283 -0.2069
45089SOL    HW140587   2.500   0.598   2.190 -0.3731 -0.7950 -0.8311
45089SOL    HW240588   2.638   0.637   2.238 -1.2737  1.9597 -0.2684
45090SOL     OW40589   4.779   7.547  11.225  0.1774 -0.2229  0.3278
45090SOL    HW140590   4.774   7.572  11.133 -2.8758  0.2360  0.4941
45090SOL    HW240591   4.750   7.456  11.227  0.1302 -0.2022  0.8115
45091SOL     OW40592   1.639   8.212   9.973  0.4036 -0.2220  0.4751
45091SOL    HW140593   1.574   8.162  10.024 -0.8578 -0.3635 -1.1875
45091SOL    HW240594   1.606   8.302   9.974  0.5965 -0.1479  0.2462
45092SOL     OW40595   4.165   5.822   8.469  0.0501  0.5425  0.5722
45092SOL    HW140596   4.238   5.772   8.433 -0.0975  0.7840 -0.0666
45092SOL    HW240597   4.182   5.824   8.564 -0.0680 -0.9303  0.6521
45093SOL     OW40598   2.408  10.024   6.627  0.2967  0.2226 -0.0521
45093SOL    HW140599   2.352  10.091   6.587 -0.4621 -0.9851 -1.1213
45093SOL    HW240600   2.481  10.073   6.666  0.5936  1.5513 -2.1354
45094SOL     OW40601   0.557  11.798   2.489 -0.3287 -1.1061 -0.8458
45094SOL    HW140602   0.464  11.819   2.485  0.0390  0.5704 -1.2735
45094SOL    HW240603   0.578  11.765   2.401 -0.4308 -1.1132 -0.8676
45095SOL     OW40604   2.912   1.021   1.014  0.6527 -0.1285  0.3774
45095SOL    HW140605   2.883   1.045   0.926  2.2595  0.6646  0.0412
45095SOL    HW240606   3.007   1.027   1.011  0.7057  0.7797  2.4192
45096SOL     OW40607   1.001   9.526   5.946  0.3200  0.1079  0.1968
45096SOL    HW140608   1.054   9.446   5.944  0.4112  0.1751 -0.3874
45096SOL    HW240609   0.964   9.532   5.857  0.9548  1.1363 -0.0115
45097SOL     OW40610   5.752   6.793  10.052  0.4236  0.4374  0.1532
45097SOL    HW140611   5.794   6.737   9.986 -1.3187 -0.1131 -0.5510
45097SOL    HW240612   5.822   6.851  10.082  1.7535 -0.6632 -0.6966
45098SOL     OW40613  11.558   6.769   4.279  0.4560  0.7179 -0.0347
45098SOL    HW140614  11.620   6.841   4.280 -0.9633  1.9680  0.9131
45098SOL    HW240615  11.525   6.763   4.368 -0.9327  0.2303 -0.5449
45099SOL     OW40616   9.870   6.547  10.091 -0.3199 -0.1424 -0.1602
45099SOL    HW140617   9.791   6.496  10.110  0.4039 -0.6859  1.5516
45099SOL    HW240618   9.839   6.618  10.035 -2.0642 -0.2206  0.6316
45100SOL     OW40619   5.329   1.893  10.668  0.3858  0.0732 -0.2114
45100SOL    HW140620   5.273   1.826  10.708 -0.1499  0.0778 -0.9414
45100SOL    HW240621   5.291   1.976  10.698  0.7953  0.0660  0.3483
45101SOL     OW40622   1.387   6.772  10.596  0.1980  0.3699  0.6036
45101SOL    HW140623   1.310   6.719  10.616 -0.6774  1.3864  0.0816
45101SOL    HW240624   1.424   6.732  10.517  0.3684 -0.2900  1.0163
45102SOL     OW40625   7.978   6.113   4.089  0.3138  0.2636  0.3151
45102SOL    HW140626   7.888   6.082   4.087  0.5415 -0.6982  2.3376
45102SOL    HW240627   8.016   6.072   4.166  3.4142 -1.8945 -2.0654
45103SOL     OW40628   0.972  10.825   9.588  0.4354 -0.5228  0.1601
45103SOL    HW140629   0.937  10.828   9.499  2.6383 -0.5970 -0.7593
45103SOL    HW240630   1.025  10.745   9.591  1.8997  0.4283  0.9141
45104SOL     OW40631   6.957  11.761   6.116 -0.7302 -0.8475  0.1393
45104SOL    HW140632   6.964  11.846   6.072 -2.0196  0.3362  2.0401
45104SOL    HW240633   6.902  11.708   6.059 -0.7891 -0.0479 -0.5669
45105SOL     OW40634   3.569   3.005   3.339 -0.1273  0.4316  0.6098
45105SOL    HW140635   3.623   3.080   3.314 -0.3703 -0.1149 -1.8519
45105SOL    HW240636   3.597   2.983   3.427  1.4175  2.1209  0.6030
45106SOL     OW40637   9.701   7.100   8.189 -0.2419  0.1931  0.1722
45106SOL    HW140638   9.762   7.104   8.115 -0.5040 -1.0229 -0.1170
45106SOL    HW240639   9.615   7.115   8.150 -0.3653 -0.3001  0.2552
45107SOL     OW40640   1.369   3.742   6.772  0.0685  0.1182  0.3690
45107SOL    HW140641   1.374   3.835   6.793 -0.5040  0.2284  0.0359
45107SOL    HW240642   1.289   3.733   6.720 -1.6833 -1.0261  3.0152
45108SOL     OW40643   5.335  11.674   1.034  0.6226  0.0130  0.5623
45108SOL    HW140644   5.322  11.673   1.129  0.9805  0.7614  0.6309
45108SOL    HW240645   5.248  11.693   0.998  0.0965 -2.0077  0.6234
45109SOL     OW40646  10.540   8.814   2.165  1.0201  0.2525  0.4131
45109SOL    HW140647  10.469   8.758   2.196  0.9303  0.0550 -0.1384
45109SOL    HW240648  10.542   8.888   2.226  0.3035  0.2933  0.3859
45110SOL     OW40649   0.980   8.441   0.796 -0.0645  0.0477 -0.2822
45110SOL    HW140650   1.003   8.348   0.796  1.9377  0.4377  2.4900
45110SOL    HW240651   1.056   8.484   0.757 -0.5015  0.6356 -0.4977
45111SOL     OW40652  10.113   2.001  10.834 -0.0604 -0.0469  0.0933
45111SOL    HW140653  10.145   1.982  10.746 -1.1508  0.1309 -0.3496
45111SOL    HW240654  10.086   2.092  10.831  3.4399  1.2322  1.7124
45112SOL     OW40655  10.941   6.147   3.529 -0.2214 -0.1207 -0.8025
45112SOL    HW140656  11.005   6.199   3.481 -0.1097  0.4351 -0.0628
45112SOL    HW240657  10.990   6.070   3.559 -0.1535 -0.1901 -1.0859
45113SOL     OW40658   4.326   4.915   9.365  0.2654  0.0595  0.7322
45113SOL    HW140659   4.402   4.940   9.312  0.5134 -0.5656  0.7776
45113SOL    HW240660   4.266   4.988   9.357  1.8995  1.7824  2.7825
45114SOL     OW40661   2.489   2.564   7.118 -0.0381  0.1723  0.0674
45114SOL    HW140662   2.407   2.517   7.134  0.3823 -0.2849  0.9372
45114SOL    HW240663   2.538   2.508   7.058 -0.3326  0.4256 -0.4198
45115SOL     OW40664   4.245   5.262   3.627 -0.2587 -0.0318  0.0813
45115SOL    HW140665   4.151   5.248   3.636 -0.2648 -0.3524 -0.4481
45115SOL    HW240666   4.258   5.284   3.535  0.2421 -0.4755  0.0392
45116SOL     OW40667   3.330   0.038   8.805 -0.4204 -0.2085  0.2520
45116SOL    HW140668   3.277   0.107   8.845 -1.4988 -0.2681 -1.0174
45116SOL    HW240669   3.268  -0.034   8.791  0.4111 -0.9625  0.3778
45117SOL     OW40670   0.000   9.864  10.076  0.0116 -0.2720 -0.0196
45117SOL    HW140671   0.082   9.824  10.046 -0.2898  0.3360 -1.7874
45117SOL    HW240672  -0.053   9.872   9.996 -1.8657 -0.8238  1.1178
45118SOL     OW40673   3.308   3.966   3.738  0.5418 -0.0343  0.2196
45118SOL    HW140674   3.298   4.041   3.679 -0.2721  0.5691  1.0870
45118SOL    HW240675   3.329   3.892   3.680 -0.1596  0.5454 -0.8139
45119SOL     OW40676   5.775   6.188   5.424 -0.1017  0.5210  0.1204
45119SOL    HW140677   5.862   6.170   5.459 -1.1943 -0.6613  2.4184
45119SOL    HW240678   5.729   6.105   5.430 -1.2127  0.9383 -1.7550
45120SOL     OW40679   5.449   0.751   8.195 -0.2620  0.1581 -0.2431
45120SOL    HW140680   5.410   0.788   8.115  0.3436  1.5565  0.0727
45120SOL    HW240681   5.537   0.725   8.168  0.4151  1.8514  0.2484
45121SOL     OW40682   5.708   6.377   8.708  0.1602  0.1201  0.1820
45121SOL    HW140683   5.783   6.318   8.714  0.5593  0.4562 -1.1832
45121SOL    HW240684   5.678   6.368   8.618 -0.7295  0.8648  0.3913
45122SOL     OW40685   1.246   2.777   3.615  0.3979 -0.0528 -0.3101
45122SOL    HW140686   1.286   2.857   3.581  0.2122 -0.0292 -0.4814
45122SOL    HW240687   1.198   2.805   3.693  1.6546 -0.2825  0.5773
45123SOL     OW40688   4.705   2.513   6.485 -0.3321 -0.4473 -0.3445
45123SOL    HW140689   4.640   2.540   6.549  1.3044 -0.6016  1.4558
45123SOL    HW240690   4.681   2.423   6.462  0.5518 -1.4215  2.1859
45124SOL     OW40691   7.100   5.042   7.803  0.1476  0.6490 -0.1437
45124SOL    HW140692   7.115   5.136   7.815  3.4222  0.1678  0.5400
45124SOL    HW240693   7.151   5.000   7.873 -1.3193 -1.6663 -0.3457
45125SOL     OW40694   9.435   2.529   7.839  0.5636  0.3758  0.0596
45125SOL    HW140695   9.370   2.465   7.864  1.4602 -0.5302  0.1331
45125SOL    HW240696   9.460   2.571   7.921  1.3760 -0.5548  0.3119
45126SOL     OW40697   8.683   7.548   2.154 -0.0470  0.0180  0.3000
45126SOL    HW140698   8.768   7.512   2.178  0.2611  0.5136 -0.0359
45126SOL    HW240699   8.674   7.529   2.061 -0.3181 -0.0568  0.3398
45127SOL     OW40700   8.142  10.534   4.103 -0.1749 -0.1929 -0.4479
45127SOL    HW140701   8.155  10.479   4.026 -0.5229 -0.7339 -0.1271
45127SOL    HW240702   8.219  10.592   4.104  0.2884 -0.7883 -0.6960
45128SOL     OW40703   9.531   1.975   7.334  0.0143  0.3871  0.5302
45128SOL    HW140704   9.509   1.893   7.290 -0.0825 -0.5732  2.2689
45128SOL    HW240705   9.605   2.010   7.284  0.2811 -0.9369 -0.0574
45129SOL     OW40706   1.575   2.348   0.111 -0.3665  0.1319  0.3373
45129SOL    HW140707   1.613   2.260   0.119 -2.1378 -0.7421 -0.3152
45129SOL    HW240708   1.622   2.387   0.037  0.3746 -0.2927  0.5730
45130SOL     OW40709   1.832   3.505   5.330  0.2665 -0.2256 -0.7054
45130SOL    HW140710   1.823   3.509   5.234 -1.5620 -2.0423 -0.6860
45130SOL    HW240711   1.775   3.432   5.356  1.9896 -0.8542  1.6264
45131SOL     OW40712   3.954   9.797  10.075  0.6961 -0.0322 -0.6017
45131SOL    HW140713   3.966   9.791   9.980  1.8310  0.2445 -0.4891
45131SOL    HW240714   3.864   9.827  10.086  1.0321  1.4547 -1.6407
45132SOL     OW40715   8.417   8.557   5.943 -0.0286 -0.6398 -0.1277
45132SOL    HW140716   8.404   8.462   5.950 -0.9995 -0.4742  0.4861
45132SOL    HW240717   8.512   8.567   5.934  0.3838 -1.5476  2.3294
45133SOL     OW40718   8.832   2.401   0.064 -0.1801  0.2182  0.3393
45133SOL    HW140719   8.887   2.323   0.055 -0.1833  0.2398  0.1390
45133SOL    HW240720   8.761   2.389   0.001 -0.4921  0.1193  0.7039
45134SOL     OW40721   9.922   2.553   0.078  0.0434 -0.2659 -0.5347
45134SOL    HW140722   9.915   2.638   0.122  0.6501 -0.5075  0.0562
45134SOL    HW240723   9.954   2.494   0.146  0.3867 -0.7949 -1.1437
45135SOL     OW40724   9.415   4.789   7.089 -0.2860  0.1297 -0.3704
45135SOL    HW140725   9.473   4.855   7.051 -2.3501  1.8284 -0.7673
45135SOL    HW240726   9.457   4.765   7.171  1.5809  0.3680 -1.2172
45136SOL     OW40727  11.561  11.365   9.423  0.0642 -0.8763 -0.3395
45136SOL    HW140728  11.580  11.407   9.339  0.3461 -0.1075  0.0933
45136SOL    HW240729  11.569  11.271   9.405 -1.7690 -0.8403 -1.6361
45137SOL     OW40730   9.016  10.549   1.393 -0.0685  0.3911  0.2432
45137SOL    HW140731   8.962  10.557   1.314  0.7097  1.4302 -0.2128
45137SOL    HW240732   8.992  10.464   1.430  0.2625 -0.5724 -1.6408
45138SOL     OW40733  10.603   6.456   8.747 -0.2870 -0.0070  0.1990
45138SOL    HW140734  10.569   6.527   8.693 -1.7103 -0.1685  0.8613
45138SOL    HW240735  10.595   6.378   8.692 -0.3903  0.0570  0.1224
45139SOL     OW40736   9.111   2.616   1.476  0.4955  0.2483 -0.4218
45139SOL    HW140737   9.096   2.532   1.434  1.8009  0.0466 -0.5369
45139SOL    HW240738   9.186   2.601   1.534 -0.2805  0.9215  0.8072
45140SOL     OW40739   8.279   0.369  10.632  0.2362 -0.2742 -0.3945
45140SOL    HW140740   8.194   0.410  10.618  0.0248 -0.4807  0.2618
45140SOL    HW240741   8.328   0.433  10.685 -0.2949 -1.0888  1.1255
45141SOL     OW40742  10.800   2.888   8.706 -0.5883  0.3511  0.1558
45141SOL    HW140743  10.843   2.806   8.681 -0.2650  0.4887  0.2596
45141SOL    HW240744  10.740   2.907   8.634 -0.6256  0.0496  0.1066
45142SOL     OW40745  10.097   6.035   5.133  0.0365  0.4141 -0.1648
45142SOL    HW140746  10.082   5.945   5.162  2.6245  0.0572  0.3142
45142SOL    HW240747  10.052   6.089   5.198 -1.2741 -0.5049 -0.2809
45143SOL     OW40748   8.216   8.248  10.363 -0.4279  0.6600 -0.5328
45143SOL    HW140749   8.153   8.292  10.420 -1.5590 -0.7641 -0.6274
45143SOL    HW240750   8.203   8.289  10.277 -2.7049 -0.9039 -1.0395
45144SOL     OW40751  11.568   2.912  10.436  0.2982  0.3534 -0.3842
45144SOL    HW140752  11.473   2.907  10.443  0.4099 -1.3430  0.3059
45144SOL    HW240753  11.598   2.911  10.527  0.9804  1.2879 -0.5837
45145SOL     OW40754   2.244   9.048   2.843  0.2186  0.2123 -0.2308
45145SOL    HW140755   2.313   9.038   2.777  1.1683 -0.6022  0.8422
45145SOL    HW240756   2.283   9.014   2.923 -1.5286 -0.4996  0.3560
45146SOL     OW40757   0.637   2.664   2.545  0.5592 -0.1778 -0.2395
45146SOL    HW140758   0.591   2.740   2.510  1.2499 -0.8211 -2.7365
45146SOL    HW240759   0.709   2.702   2.597  0.8097  0.8867 -1.3181
45147SOL     OW40760   5.245   7.630   8.837  0.4044  0.1730  0.4075
45147SOL    HW140761   5.235   7.538   8.861 -0.2500  0.2686  0.5048
45147SOL    HW240762   5.293   7.669   8.910 -0.6548  0.2348  1.0790
45148SOL     OW40763   0.062   5.110   9.728  0.2050 -0.2006 -0.6532
45148SOL    HW140764  -0.009   5.137   9.670  1.2186  0.3707 -1.6727
45148SOL    HW240765   0.039   5.021   9.755 -0.9164 -0.0004 -0.8938
45149SOL     OW40766  11.371   0.178   5.195  0.0722  0.5458 -0.0024
45149SOL    HW140767  11.357   0.087   5.220  1.0664 -0.0188 -1.3729
45149SOL    HW240768  11.381   0.175   5.100 -1.4223  2.2923 -0.2724
45150SOL     OW40769   8.841   1.669   2.069  0.0811 -0.1182  0.0100
45150SOL    HW140770   8.810   1.662   2.159  1.0746  0.0327  0.3755
45150SOL    HW240771   8.822   1.759   2.043 -0.3896 -0.2209 -0.0067
45151SOL     OW40772   3.845  10.088   4.917  0.4912  0.3208 -0.0590
45151SOL    HW140773   3.892  10.013   4.953 -0.8729 -0.9901 -0.8866
45151SOL    HW240774   3.760  10.088   4.962  0.7784  1.9063  0.5461
45152SOL     OW40775  11.172   3.949   8.367 -0.1465 -0.0058 -0.2477
45152SOL    HW140776  11.189   4.042   8.350 -0.5159  0.2492  0.7117
45152SOL    HW240777  11.104   3.949   8.434 -0.9177 -0.9881 -0.9991
45153SOL     OW40778   6.843   4.253   8.157 -0.1333  0.1151 -0.4194
45153SOL    HW140779   6.751   4.247   8.132  0.0682  2.0888 -1.9137
45153SOL    HW240780   6.847   4.213   8.243 -2.4831  0.4252 -0.0925
45154SOL     OW40781   9.653   2.236   0.752  0.5838  0.7974  0.1206
45154SOL    HW140782   9.571   2.242   0.801  0.5918 -0.8823  0.4018
45154SOL    HW240783   9.721   2.262   0.815  0.4272  0.3956  0.4603
45155SOL     OW40784   1.508   3.495  10.029 -0.1025  0.0481  0.3992
45155SOL    HW140785   1.551   3.428   9.977 -0.4732  0.7801 -0.8742
45155SOL    HW240786   1.418   3.496   9.998 -1.3549 -1.9013  3.4472
45156SOL     OW40787   6.282   9.106   9.955  0.1734 -0.0242 -0.4846
45156SOL    HW140788   6.367   9.122   9.913  0.6785 -0.8534  0.1851
45156SOL    HW240789   6.305   9.074  10.043 -0.8545  1.3317  0.3103
45157SOL     OW40790   5.076   8.808  10.549  0.1008 -0.4848  0.2777
45157SOL    HW140791   5.146   8.776  10.606 -0.2225  1.0246  1.5723
45157SOL    HW240792   5.106   8.894  10.520 -0.4788 -0.5451 -0.5580
45158SOL     OW40793   3.876   1.550   0.208 -0.0465  0.4382 -0.3634
45158SOL    HW140794   3.846   1.470   0.249  2.0907 -0.6903 -0.8227
45158SOL    HW240795   3.814   1.565   0.136  1.3417 -2.8622 -2.5210
45159SOL     OW40796   0.628   6.936   1.830  0.4249  0.0651  0.3718
45159SOL    HW140797   0.605   6.880   1.756  2.9642 -2.2368  1.1310
45159SOL    HW240798   0.559   6.921   1.895 -0.7914  0.6263 -0.7439
45160SOL     OW40799  10.261   1.661  11.219  0.0281 -0.1001  0.3181
45160SOL    HW140800  10.177   1.625  11.246  0.1529 -0.2923  0.4493
45160SOL    HW240801  10.239   1.743  11.175 -0.0703  1.0619  2.4164
45161SOL     OW40802   2.053   8.549  11.144  0.0491  0.7714 -0.0868
45161SOL    HW140803   2.128   8.594  11.182  0.1051  0.8793 -0.3259
45161SOL    HW240804   2.019   8.494  11.215  1.4197 -0.6465 -0.4568
45162SOL     OW40805   1.455  11.729  11.401 -0.4201 -0.3287  0.1795
45162SOL    HW140806   1.497  11.746  11.316  0.2520 -1.2636  0.3084
45162SOL    HW240807   1.522  11.750  11.466  0.4546 -3.1789  0.3488
45163SOL     OW40808   8.883   1.281  11.474 -0.2809 -0.0670 -0.3751
45163SOL    HW140809   8.841   1.287  11.560 -0.9114  1.1041 -0.7401
45163SOL    HW240810   8.965   1.329  11.485 -0.0503 -0.4841 -0.2546
45164SOL     OW40811   9.251  11.577   7.017  0.2544  0.4242 -0.3212
45164SOL    HW140812   9.275  11.667   6.994  0.5651  0.4779  0.2091
45164SOL    HW240813   9.326  11.544   7.067  0.8120 -0.6197 -1.7463
45165SOL     OW40814  11.792   8.892   8.584 -0.1036  0.3079  0.2866
45165SOL    HW140815  11.813   8.801   8.563  0.7846  0.4102  0.7105
45165SOL    HW240816  11.724   8.887   8.650  1.6374 -0.1151  2.1487
45166SOL     OW40817   3.846   5.137  11.180 -0.2453  0.4047 -0.2933
45166SOL    HW140818   3.766   5.152  11.130 -0.2037 -0.0459 -0.5031
45166SOL    HW240819   3.913   5.188  11.134 -0.3118  0.3908 -0.4047
45167SOL     OW40820   8.698  10.778   6.884  0.1227 -0.3046  0.0057
45167SOL    HW140821   8.674  10.849   6.944  0.8203 -0.5531  0.6026
45167SOL    HW240822   8.635  10.785   6.813  1.7432  2.6300 -1.3529
45168SOL     OW40823   3.890   7.221   1.332 -0.5502 -0.3561  0.7753
45168SOL    HW140824   3.927   7.205   1.245 -0.3440 -0.1926  0.8330
45168SOL    HW240825   3.858   7.311   1.328  0.3494 -0.0081  1.1808
45169SOL     OW40826   0.577   0.334   4.298 -0.3662  0.2531 -0.0258
45169SOL    HW140827   0.608   0.370   4.215  0.8214 -0.3121  0.1584
45169SOL    HW240828   0.507   0.273   4.272 -0.4754  0.5897 -0.5504
45170SOL     OW40829   4.017   8.796   9.877  0.3227 -0.2861 -0.1596
45170SOL    HW140830   3.923   8.786   9.863  0.0560  1.3259  0.3443
45170SOL    HW240831   4.042   8.719   9.928 -0.9012 -0.2618  0.5072
45171SOL     OW40832   6.541   8.508   8.399 -0.5306  0.2753 -0.2370
45171SOL    HW140833   6.595   8.571   8.445  0.3424 -0.9982  0.5312
45171SOL    HW240834   6.479   8.477   8.465 -1.6614  1.0825 -0.8865
45172SOL     OW40835  10.467   0.245   2.006  0.0503 -0.7750 -0.0407
45172SOL    HW140836  10.523   0.316   2.038 -0.4807  0.0150 -0.8011
45172SOL    HW240837  10.503   0.223   1.921  0.0548 -1.2483  0.0824
45173SOL     OW40838   0.566   5.495   5.160 -0.3000 -0.2032  0.3011
45173SOL    HW140839   0.552   5.447   5.079  1.8955  0.2023 -0.3962
45173SOL    HW240840   0.491   5.555   5.166 -0.9342 -0.8336 -0.9749
45174SOL     OW40841   6.291   0.888   1.318  0.6177  0.1841 -0.0414
45174SOL    HW140842   6.295   0.800   1.354  1.1137 -0.0803 -0.7235
45174SOL    HW240843   6.367   0.933   1.357 -0.1961  0.6304  1.0905
45175SOL     OW40844   4.818   4.544  11.179 -0.4777 -0.3405 -0.0978
45175SOL    HW140845   4.827   4.541  11.083 -2.2929  0.6173 -0.3593
45175SOL    HW240846   4.847   4.632  11.202 -0.5924 -0.3705  0.1590
45176SOL     OW40847   0.601   7.053  10.476 -0.0475  0.2211  0.0781
45176SOL    HW140848   0.627   7.077  10.387 -0.2120 -1.8853 -0.6009
45176SOL    HW240849   0.518   7.098  10.490  1.1379  2.5268  0.1378
45177SOL     OW40850  10.199  11.034  10.465 -0.5047 -0.1693  0.3957
45177SOL    HW140851  10.226  11.106  10.407 -1.9506  0.8796  0.9681
45177SOL    HW240852  10.142  10.980  10.410  0.4334 -0.8156  0.0215
45178SOL     OW40853   4.155   0.085   7.784  0.0662 -0.0191  0.3921
45178SOL    HW140854   4.139   0.039   7.867  0.3158 -1.4150 -0.3055
45178SOL    HW240855   4.110   0.168   7.795 -2.7326 -1.4508  0.7465
45179SOL     OW40856   4.886   6.186  10.599 -0.1778  0.2237 -0.6580
45179SOL    HW140857   4.839   6.226  10.672 -0.4796 -1.0868 -0.0948
45179SOL    HW240858   4.979   6.204  10.617 -0.2901  0.4366 -0.2801
45180SOL     OW40859   0.688   6.044   1.145 -0.1146  0.5133  0.3634
45180SOL    HW140860   0.619   6.107   1.125  1.4382  1.9742 -0.7242
45180SOL    HW240861   0.716   6.011   1.059 -0.4167 -1.1516  0.8783
45181SOL     OW40862   9.206   1.595   2.124 -0.3889 -0.5229 -0.0428
45181SOL    HW140863   9.159   1.579   2.206 -1.0691  0.9274 -0.1126
45181SOL    HW240864   9.198   1.690   2.110  1.1080 -0.4964 -0.9516
45182SOL     OW40865   5.632  11.306   4.602  0.1900 -0.0395  0.1355
45182SOL    HW140866   5.547  11.268   4.581 -0.1152  0.4921  0.3859
45182SOL    HW240867   5.680  11.235   4.644  0.8984 -1.2140 -2.4645
45183SOL     OW40868   8.171   7.343   7.969 -0.0109 -0.0967  0.2989
45183SOL    HW140869   8.155   7.249   7.973  0.9425 -0.2559  0.7247
45183SOL    HW240870   8.216   7.356   7.885  1.5395 -0.3242  1.0491
45184SOL     OW40871   0.131  10.733   4.021 -0.1370 -0.1281 -0.1300
45184SOL    HW140872   0.159  10.747   4.112 -0.4210 -0.5701  0.0263
45184SOL    HW240873   0.042  10.699   4.028 -0.3388  0.2963 -0.5945
45185SOL     OW40874  11.322   7.042  10.549 -0.1089 -0.2740  0.0450
45185SOL    HW140875  11.347   6.951  10.541  1.4548  0.0396  0.9283
45185SOL    HW240876  11.405   7.090  10.548 -0.8314  1.0469  0.5136
45186SOL     OW40877   0.382   5.504   2.770  0.2004 -0.1505  0.0076
45186SOL    HW140878   0.422   5.491   2.684  2.0997 -0.1332  0.8271
45186SOL    HW240879   0.435   5.572   2.811  0.6151 -1.5290  1.9073
45187SOL     OW40880   6.713   4.823   0.807  0.1527  0.1121  0.1804
45187SOL    HW140881   6.637   4.850   0.859  0.3673  0.0078  0.5481
45187SOL    HW240882   6.785   4.817   0.870  0.9106  1.9755 -0.4340
45188SOL     OW40883   7.896  10.500  10.389 -0.1576  0.2803 -0.0540
45188SOL    HW140884   7.831  10.528  10.324 -0.4759 -1.4307 -0.5223
45188SOL    HW240885   7.951  10.437  10.343 -0.3942 -0.9931  1.3211
45189SOL     OW40886   1.602   3.908   0.464  0.6929 -0.3529  0.2946
45189SOL    HW140887   1.612   3.826   0.416  2.1476 -0.4644  0.7533
45189SOL    HW240888   1.652   3.972   0.414 -2.3823  0.9085 -1.4229
45190SOL     OW40889   8.985  10.362   5.323  0.2673 -0.7889  0.6415
45190SOL    HW140890   9.057  10.421   5.342 -0.0317 -0.4820  0.8296
45190SOL    HW240891   8.976  10.308   5.401  0.1821 -0.7090  0.6880
45191SOL     OW40892   6.283  10.494   8.623  0.0605  0.2253 -0.0338
45191SOL    HW140893   6.194  10.461   8.609  0.1091 -0.3222  0.8469
45191SOL    HW240894   6.287  10.575   8.574 -1.1016  0.5196  0.3278
45192SOL     OW40895   0.756   1.244   5.594  0.3866 -0.8559 -0.8338
45192SOL    HW140896   0.682   1.193   5.628  1.1031 -1.8151 -0.6926
45192SOL    HW240897   0.755   1.324   5.647 -1.5878 -0.0570 -1.9783
45193SOL     OW40898   6.201   5.697   4.074 -0.1300 -0.4559  0.0176
45193SOL    HW140899   6.209   5.780   4.120 -1.2722 -0.0967 -0.4035
45193SOL    HW240900   6.283   5.688   4.025 -0.8159  1.4826 -1.6356
45194SOL     OW40901   6.144   4.884  10.582  0.4803 -1.0273 -0.5022
45194SOL    HW140902   6.102   4.970  10.578  1.9389 -0.2895 -1.0749
45194SOL    HW240903   6.119   4.841  10.500  1.7395 -0.1226 -1.3950
45195SOL     OW40904   5.252   8.184   1.008 -0.0370  0.4210 -0.0900
45195SOL    HW140905   5.265   8.261   0.952 -1.6845  1.8414  1.3313
45195SOL    HW240906   5.159   8.186   1.030 -0.5482 -2.9931 -1.3042
45196SOL     OW40907   1.064   3.575   8.220  0.2493 -0.7619 -0.4892
45196SOL    HW140908   1.097   3.648   8.273 -0.1518  0.7218 -2.1610
45196SOL    HW240909   1.142   3.532   8.187  0.5362  0.0549 -0.9196
45197SOL     OW40910   3.473   6.724   3.286 -0.0521  0.0383  0.5822
45197SOL    HW140911   3.379   6.729   3.265 -0.1013  0.4034  0.8796
45197SOL    HW240912   3.481   6.769   3.370  0.1833 -1.1688  1.2234
45198SOL     OW40913   6.926   3.261   3.082 -0.4498  0.5079  0.6887
45198SOL    HW140914   6.868   3.185   3.081 -0.5361  0.4888  2.5201
45198SOL    HW240915   7.011   3.226   3.109  0.4337  0.5628 -1.7876
45199SOL     OW40916  10.303   8.204   9.221 -0.3420 -0.2119  0.3727
45199SOL    HW140917  10.379   8.244   9.261 -0.0090  0.5950 -0.9991
45199SOL    HW240918  10.252   8.277   9.186 -1.2055 -0.8021  0.3510
45200SOL     OW40919   0.610   3.684   2.762  0.0269  0.1453  0.0190
45200SOL    HW140920   0.656   3.759   2.800 -0.5380  0.7530 -0.4536
45200SOL    HW240921   0.580   3.716   2.677  2.0349 -1.4620 -1.3893
45201SOL     OW40922   0.529   5.688   2.903  0.1840 -0.0863  0.4792
45201SOL    HW140923   0.457   5.705   2.963  0.6179 -0.0184  0.9791
45201SOL    HW240924   0.608   5.704   2.954  0.5516  0.6894 -0.3141
45202SOL     OW40925  10.769   4.835  10.047 -0.2826  0.2030  0.0598
45202SOL    HW140926  10.691   4.882  10.077 -0.1133  1.2025 -0.9968
45202SOL    HW240927  10.816   4.898   9.992  0.8213 -0.6697 -0.0480
45203SOL     OW40928   7.675  11.322   9.912 -0.1004 -0.8156 -0.2069
45203SOL    HW140929   7.625  11.290   9.837  0.4231 -1.2105 -0.3945
45203SOL    HW240930   7.743  11.256   9.925 -0.2644 -0.8143  0.7023
45204SOL     OW40931  11.575   3.125  11.190 -0.3235  0.7636  0.1967
45204SOL    HW140932  11.481   3.110  11.199 -0.3994  1.4897  0.6496
45204SOL    HW240933  11.608   3.129  11.279  0.6651 -2.4390  0.1221
45205SOL     OW40934  10.494   0.591  11.288 -0.0064 -0.0680  0.0603
45205SOL    HW140935  10.458   0.510  11.324  0.2789 -0.1521  0.1596
45205SOL    HW240936  10.540   0.631  11.361 -0.5632  0.4298  0.1400
45206SOL     OW40937   0.815   9.264   2.424  0.3963 -0.6822 -0.2391
45206SOL    HW140938   0.851   9.287   2.338  0.9192  0.5489  0.2726
45206SOL    HW240939   0.720   9.263   2.412  0.5054 -1.6177 -1.0732
45207SOL     OW40940  11.074   7.707   4.196 -0.2927  0.6042  0.1566
45207SOL    HW140941  11.137   7.678   4.261  0.5822 -0.0728 -0.9631
45207SOL    HW240942  11.126   7.725   4.118 -1.4346  0.3621 -0.6907
45208SOL     OW40943  10.047   0.490   2.150 -0.0373  0.0383 -0.2572
45208SOL    HW140944  10.124   0.440   2.122 -0.0762 -0.8750  1.1482
45208SOL    HW240945  10.084   0.563   2.200 -0.0711 -0.8823  1.1621
45209SOL     OW40946   7.880   0.335   4.956  0.1077 -0.4053 -0.1339
45209SOL    HW140947   7.887   0.372   4.868 -2.1061 -1.6952 -0.9452
45209SOL    HW240948   7.961   0.284   4.967 -0.2209 -1.4691 -2.0966
45210SOL     OW40949   4.970   4.054   6.601  0.3516 -0.1902 -0.2981
45210SOL    HW140950   4.903   4.018   6.659 -1.3237  0.9908 -1.4515
45210SOL    HW240951   4.975   4.146   6.623  2.2685 -0.4015  0.3610
45211SOL     OW40952   3.207   9.150   7.872 -0.2696 -0.0373 -0.1040
45211SOL    HW140953   3.205   9.180   7.962  1.7751  1.2105 -0.4239
45211SOL    HW240954   3.187   9.056   7.878  0.9142 -0.2181  1.7617
45212SOL     OW40955   9.767   3.185  11.130 -0.1136 -0.3301 -0.2329
45212SOL    HW140956   9.835   3.162  11.067 -0.2692  0.6036 -0.7605
45212SOL    HW240957   9.685   3.167  11.084 -0.2561 -1.4709  0.4053
45213SOL     OW40958   0.141   3.054   9.957  0.2062  0.1706 -0.2523
45213SOL    HW140959   0.122   3.083   9.868 -0.2711 -2.4189 -1.0763
45213SOL    HW240960   0.086   3.109  10.013  0.9446  2.2449 -1.4527
45214SOL     OW40961  10.410   2.110   5.532 -0.0601 -0.2113  0.4758
45214SOL    HW140962  10.365   2.056   5.467 -0.8583  2.6671 -1.5620
45214SOL    HW240963  10.341   2.138   5.591  0.3261 -1.1975  1.4302
45215SOL     OW40964   3.985   7.925   9.787 -0.0007 -0.4246 -0.0345
45215SOL    HW140965   3.943   7.879   9.715  0.2504 -0.6129 -0.0625
45215SOL    HW240966   3.917   7.982   9.822 -0.5747 -1.4479  0.5566
45216SOL     OW40967   5.355   1.889   7.356 -0.1414 -0.2129  0.0134
45216SOL    HW140968   5.333   1.977   7.324  2.5986  0.5083 -0.1487
45216SOL    HW240969   5.289   1.871   7.423 -1.7824  1.2259 -1.0945
45217SOL     OW40970   1.065   8.143  10.468  0.4672 -0.3938  0.1887
45217SOL    HW140971   1.090   8.141  10.376  1.7670 -1.7769  0.5414
45217SOL    HW240972   1.020   8.227  10.478  2.3584  0.8801 -1.1795
45218SOL     OW40973  11.600   2.169   6.607 -0.8447 -0.6559  0.0533
45218SOL    HW140974  11.684   2.206   6.632 -0.0384 -2.1663 -0.2905
45218SOL    HW240975  11.575   2.113   6.681 -0.5890 -1.7077 -0.6341
45219SOL     OW40976   0.115   0.871   8.491  0.2579 -0.3311 -0.1101
45219SOL    HW140977   0.030   0.873   8.446 -0.8421 -0.1096  1.8707
45219SOL    HW240978   0.178   0.852   8.421 -1.3571 -0.1648 -1.7049
45220SOL     OW40979   0.412   8.066   5.688  0.6030 -0.2352  0.0946
45220SOL    HW140980   0.446   8.049   5.776  1.2273 -0.3060 -0.1520
45220SOL    HW240981   0.359   8.145   5.698  1.9500  0.6914  0.2519
45221SOL     OW40982   3.932  10.625   4.372 -0.6448 -0.1166  0.4860
45221SOL    HW140983   3.943  10.539   4.331  2.5117  0.2959  0.2334
45221SOL    HW240984   3.952  10.688   4.302  0.2161  0.7169  1.4400
45222SOL     OW40985  10.602   8.760   9.990 -0.1181  0.1716 -0.1072
45222SOL    HW140986  10.567   8.849   9.987  0.5262  0.5670  2.1545
45222SOL    HW240987  10.645   8.753  10.076  1.2656 -1.7985 -0.8600
45223SOL     OW40988   5.068   9.956   9.547 -0.4783  0.1424 -0.1673
45223SOL    HW140989   5.053   9.952   9.452  0.8771 -0.7106 -0.3725
45223SOL    HW240990   5.157   9.991   9.555 -0.3053 -0.4986  0.7737
45224SOL     OW40991  10.487  11.001   3.808  0.5177  0.1790  0.0262
45224SOL    HW140992  10.561  10.943   3.824 -1.0348 -1.3716  2.1240
45224SOL    HW240993  10.418  10.968   3.865 -1.9318  1.3404 -2.0529
45225SOL     OW40994  11.071  10.398   8.012 -0.2193 -0.1734 -0.5379
45225SOL    HW140995  11.059  10.329   7.947  0.3465  0.6227 -1.5025
45225SOL    HW240996  11.052  10.355   8.096  0.6195 -1.6274 -1.0590
45226SOL     OW40997   1.471   2.545   6.831 -0.1728  0.1087 -0.4453
45226SOL    HW140998   1.413   2.520   6.903 -0.4313 -0.2687 -0.7802
45226SOL    HW240999   1.424   2.518   6.752 -0.3102  1.3275 -0.8083
45227SOL     OW41000  10.860   4.468   5.344 -0.0004 -0.1171 -0.1243
45227SOL    HW141001  10.855   4.411   5.420 -0.6371  0.0779 -0.0069
45227SOL    HW241002  10.812   4.421   5.275 -0.2561  0.1319 -0.1180
45228SOL     OW41003   0.943   1.123   0.959  0.0500 -0.3268  0.3266
45228SOL    HW141004   1.005   1.148   0.890  0.2137 -2.6583 -0.4718
45228SOL    HW241005   0.990   1.057   1.011 -0.9888 -0.4966  1.0854
45229SOL     OW41006  11.346   3.567   2.207 -0.9546  0.1638  0.1266
45229SOL    HW141007  11.421   3.519   2.172 -0.7697 -0.6566  1.5551
45229SOL    HW241008  11.272   3.507   2.196 -1.0064  0.1441  0.5761
45230SOL     OW41009  11.266   5.394   5.793  0.2745  0.3444 -0.1320
45230SOL    HW141010  11.318   5.406   5.714 -1.0550  0.2335 -1.0467
45230SOL    HW241011  11.208   5.320   5.773 -0.4295  0.6387  0.7572
45231SOL     OW41012   7.893   1.891   3.355  0.2942 -0.3247  0.3115
45231SOL    HW141013   7.979   1.850   3.368  0.1025 -0.7322  0.3088
45231SOL    HW241014   7.856   1.846   3.279  1.0403  1.4438 -1.1672
45232SOL     OW41015   3.990  11.579   1.690  0.4228 -0.0952  0.9929
45232SOL    HW141016   3.945  11.655   1.729  0.8269  0.4820  0.3584
45232SOL    HW241017   4.071  11.615   1.654  0.3389 -0.7222  0.1460
45233SOL     OW41018   0.222   4.349   6.843 -0.3746 -0.4321  0.4814
45233SOL    HW141019   0.132   4.323   6.822 -0.1970  0.0299 -1.0426
45233SOL    HW241020   0.212   4.432   6.889 -0.7276  0.0935 -0.4973
45234SOL     OW41021   5.966  11.605   4.845  0.3576 -0.6552 -0.0846
45234SOL    HW141022   5.998  11.696   4.841  2.2815 -1.2660  0.3689
45234SOL    HW241023   5.955  11.588   4.939  0.1837 -0.9658 -0.1619
45235SOL     OW41024   9.147   3.474   9.068 -0.7597  0.1675 -0.2446
45235SOL    HW141025   9.130   3.382   9.085  1.8486 -0.5739 -1.2586
45235SOL    HW241026   9.191   3.505   9.147 -0.0992  0.0758 -0.5705
45236SOL     OW41027  10.056   5.375   3.876 -0.1689  0.5208 -0.3491
45236SOL    HW141028  10.126   5.406   3.933  1.1775 -0.1567 -1.5641
45236SOL    HW241029  10.077   5.413   3.790 -2.3973  1.9147 -0.3648
45237SOL     OW41030   8.960  10.112  11.499 -0.5788  0.6999 -0.0753
45237SOL    HW141031   8.889  10.110  11.563  0.3219 -2.0415  0.9735
45237SOL    HW241032   9.040  10.112  11.551  0.1930  0.0631 -1.2129
45238SOL     OW41033   7.678   1.157   6.748  0.4225  0.5395  0.9395
45238SOL    HW141034   7.683   1.225   6.681 -0.1079 -0.2608  0.0620
45238SOL    HW241035   7.640   1.200   6.824  0.9495  1.4408  0.7101
45239SOL     OW41036  10.820   3.145   5.044  0.1662  0.0031 -0.1575
45239SOL    HW141037  10.902   3.119   5.001 -0.3050  1.6997 -2.2487
45239SOL    HW241038  10.830   3.239   5.059 -0.3724 -0.2415  2.0709
45240SOL     OW41039   8.512   6.792   7.514  0.0314  0.0309  0.2410
45240SOL    HW141040   8.607   6.795   7.501 -0.0136 -0.1332 -0.1458
45240SOL    HW241041   8.489   6.879   7.545  0.0845  0.6137 -1.2518
45241SOL     OW41042   1.800   4.260   2.762 -0.2211 -0.3375  0.1885
45241SOL    HW141043   1.830   4.251   2.853  0.7251  0.1394 -0.0586
45241SOL    HW241044   1.792   4.355   2.749  0.3855 -0.3630 -0.4395
45242SOL     OW41045   4.154  11.389   2.937 -0.0504 -0.0046  0.3227
45242SOL    HW141046   4.152  11.293   2.928  0.0032 -0.1710  1.8250
45242SOL    HW241047   4.246  11.412   2.924 -0.1759 -0.0707 -0.7321
45243SOL     OW41048   6.421   3.364   3.820  0.4898  0.1349 -0.2479
45243SOL    HW141049   6.411   3.316   3.902  2.5272 -0.6768 -0.4228
45243SOL    HW241050   6.406   3.456   3.844 -0.4592 -0.2441  0.6890
45244SOL     OW41051   7.744   8.656  10.700  0.1146  0.8455  0.0520
45244SOL    HW141052   7.820   8.663  10.642 -0.1904  0.6164 -0.3794
45244SOL    HW241053   7.675   8.706  10.655  0.0076  1.0459  0.4369
45245SOL     OW41054   7.751   9.082  11.034 -0.1353  0.0165  0.0374
45245SOL    HW141055   7.673   9.038  10.999  0.2908 -0.7446  0.0208
45245SOL    HW241056   7.817   9.070  10.966 -0.2174  1.3705 -0.3172
45246SOL     OW41057   3.466   2.957   0.649  0.0820 -0.2268 -0.3788
45246SOL    HW141058   3.452   2.863   0.638 -0.1382 -0.0629 -1.6771
45246SOL    HW241059   3.404   2.998   0.588 -0.5954  0.7970  0.9336
45247SOL     OW41060  10.948   2.233  11.811  0.2252  0.3454 -0.1515
45247SOL    HW141061  10.874   2.292  11.826 -0.5581 -0.7712  0.5112
45247SOL    HW241062  10.930   2.192  11.726 -1.8787 -2.5930  1.5302
45248SOL     OW41063   6.139   8.550   2.212 -0.2687  0.1639 -0.1743
45248SOL    HW141064   6.207   8.557   2.145 -0.1591  0.3598 -0.0422
45248SOL    HW241065   6.058   8.568   2.165 -0.2978 -0.6656 -0.4627
45249SOL     OW41066   7.863   0.838  10.904 -0.0065 -0.0467  0.2512
45249SOL    HW141067   7.918   0.799  10.836 -1.4387 -1.2251 -0.2862
45249SOL    HW241068   7.776   0.803  10.887 -0.2200 -1.2672  3.3552
45250SOL     OW41069   6.651  10.260   0.391  0.4308 -0.4373  0.3477
45250SOL    HW141070   6.594  10.184   0.387 -1.4282  0.8963  0.1288
45250SOL    HW241071   6.686  10.268   0.302 -0.6424 -0.1390 -0.0653
45251SOL     OW41072   8.072   9.058   0.269 -1.0374 -0.2166 -0.3549
45251SOL    HW141073   8.024   9.079   0.189 -1.5366  0.4968  0.1151
45251SOL    HW241074   8.141   8.999   0.240 -0.3370  1.1203 -1.5604
45252SOL     OW41075  11.530   7.544  11.802  0.1969 -0.5633  0.5075
45252SOL    HW141076  11.513   7.637  11.819 -0.5167 -1.0049  2.4183
45252SOL    HW241077  11.445   7.508  11.778  0.5177 -0.6934 -0.4602
45253SOL     OW41078  11.085   7.609  10.903 -0.0647 -0.4611  0.5203
45253SOL    HW141079  11.171   7.595  10.942  0.2742  1.6985  0.6627
45253SOL    HW241080  11.052   7.521  10.884  1.6201 -1.3733  1.6346
45254SOL     OW41081  11.111   0.208   0.903 -0.9224 -0.6196 -0.1605
45254SOL    HW141082  11.083   0.300   0.901 -1.0153 -0.6522 -0.5398
45254SOL    HW241083  11.076   0.174   0.985 -0.4747 -0.1890  0.2165
45255SOL     OW41084   4.307  10.692   0.754 -0.0648 -0.2872  0.1805
45255SOL    HW141085   4.306  10.788   0.755 -0.5911 -0.2164 -1.8934
45255SOL    HW241086   4.221  10.667   0.789 -0.4717  0.0662 -0.5350
45256SOL     OW41087   7.912   9.645   4.292  0.3485 -0.0834 -0.1594
45256SOL    HW141088   7.922   9.686   4.378  0.5745 -0.5664  0.0459
45256SOL    HW241089   7.981   9.579   4.288 -0.4182 -0.8936 -0.2344
45257SOL     OW41090   1.021  10.265   6.875  0.3374  0.0967 -0.1429
45257SOL    HW141091   0.994  10.197   6.813  0.7218  0.5252 -0.7984
45257SOL    HW241092   1.101  10.231   6.914  0.2896 -0.0175 -0.1423
45258SOL     OW41093   9.951   0.402   9.247 -0.6717  0.3059  0.7249
45258SOL    HW141094   9.995   0.486   9.260 -2.0060  0.9600  1.1862
45258SOL    HW241095   9.968   0.380   9.155 -1.7394  1.9692  0.0728
45259SOL     OW41096   5.158   7.154   0.770  0.2635 -0.0524 -0.1628
45259SOL    HW141097   5.215   7.169   0.695  0.3049  0.8215  0.0309
45259SOL    HW241098   5.124   7.241   0.792 -0.0934 -0.3641  0.5589
45260SOL     OW41099  11.086   7.109  11.412  0.2918  0.0536 -0.3472
45260SOL    HW141100  11.148   7.040  11.436 -0.3519 -0.4314 -0.0408
45260SOL    HW241101  11.133   7.191  11.429  1.1806 -0.3000 -1.0217
45261SOL     OW41102   1.008   4.780   7.867  0.5177  0.4068 -0.1360
45261SOL    HW141103   1.031   4.850   7.929  0.2529  0.9257 -0.6096
45261SOL    HW241104   1.072   4.788   7.797  0.3952  0.2653 -0.2651
45262SOL     OW41105   4.399   7.954   8.464 -0.0086  0.5157 -0.0511
45262SOL    HW141106   4.318   8.003   8.479 -0.0628  0.0953  1.1509
45262SOL    HW241107   4.378   7.865   8.491  0.2537 -0.0754 -1.7184
45263SOL     OW41108   9.588   4.193   0.004  0.2970 -0.2370 -0.6263
45263SOL    HW141109   9.656   4.175   0.069  0.0944  0.1767 -0.2904
45263SOL    HW241110   9.635   4.221  -0.074  0.4875  3.1327  0.5550
45264SOL     OW41111   9.784  11.746   3.801 -0.2111  0.2107 -0.5629
45264SOL    HW141112   9.877  11.757   3.820 -0.1898  2.3062 -1.6796
45264SOL    HW241113   9.774  11.651   3.787  1.8209 -0.0093 -0.8182
45265SOL     OW41114  10.248  11.414   8.049 -0.3750  0.2276 -0.5095
45265SOL    HW141115  10.291  11.442   8.130  0.4153  2.9371 -1.7310
45265SOL    HW241116  10.157  11.401   8.074 -0.0100  0.2516  0.9576
45266SOL     OW41117   5.692   6.412   5.264  0.0143  0.1570 -0.1167
45266SOL    HW141118   5.725   6.341   5.320  0.0312  0.4546  0.2525
45266SOL    HW241119   5.732   6.491   5.299 -0.0910  0.3642 -0.4619
45267SOL     OW41120   4.970   4.302   9.177  0.0142  0.2425 -0.5399
45267SOL    HW141121   5.015   4.356   9.112  0.9343  1.6597  1.1993
45267SOL    HW241122   5.036   4.285   9.244 -0.5469 -2.2669 -0.5356
45268SOL     OW41123   8.752   7.648  10.187  0.0832 -0.0519  0.9336
45268SOL    HW141124   8.733   7.685  10.101  0.3263  0.3914  1.0720
45268SOL    HW241125   8.801   7.716  10.233  1.4595 -0.9192  0.8204
45269SOL     OW41126   5.686   8.994   7.777 -0.1593  0.0208  0.1342
45269SOL    HW141127   5.671   9.088   7.767 -2.3442 -0.2312  0.5317
45269SOL    HW241128   5.752   8.973   7.711  0.3504  1.8002  0.0138
45270SOL     OW41129   4.469   9.134   5.306 -0.0372  0.0046 -0.2495
45270SOL    HW141130   4.557   9.106   5.280 -0.3037 -0.5545 -0.5663
45270SOL    HW241131   4.437   9.063   5.363  0.3414  0.9697  1.2070
45271SOL     OW41132   3.779  11.763   5.269  0.0698 -0.3956  0.2643
45271SOL    HW141133   3.862  11.730   5.235  0.1433 -0.9989  0.9740
45271SOL    HW241134   3.765  11.847   5.226 -0.6690 -1.8227 -2.4954
45272SOL     OW41135   6.055   9.358   5.151  0.5553 -0.2736  0.5095
45272SOL    HW141136   6.001   9.341   5.073  1.9697 -1.2032 -0.3081
45272SOL    HW241137   6.084   9.448   5.141  0.0148 -0.1062  0.4176
45273SOL     OW41138   4.481  11.061   5.128  0.1038 -0.3608  1.2163
45273SOL    HW141139   4.464  11.132   5.190  1.2578 -0.5954  1.8260
45273SOL    HW241140   4.500  11.105   5.046 -0.2520 -0.0039  1.3182
45274SOL     OW41141   4.661   5.233  10.053  0.1864 -0.1453 -0.1729
45274SOL    HW141142   4.659   5.159  10.113 -1.2725  0.9886  1.2594
45274SOL    HW241143   4.637   5.308  10.107 -0.1380  1.0961 -1.9713
45275SOL     OW41144   8.025   9.930   5.423 -0.0675 -0.2686  0.0266
45275SOL    HW141145   8.019   9.845   5.467  0.9726 -0.4938 -0.2428
45275SOL    HW241146   8.070   9.986   5.486  1.9557 -0.7480 -0.9228
45276SOL     OW41147   1.200   5.971   9.059  0.2908  0.5871  0.2325
45276SOL    HW141148   1.266   5.906   9.035  1.6926  2.0848 -0.1660
45276SOL    HW241149   1.153   5.931   9.132 -1.1262 -2.2188 -1.9970
45277SOL     OW41150   6.809   7.573  11.082 -0.6169  0.0266  0.0761
45277SOL    HW141151   6.793   7.640  11.148  1.0750 -1.3433  2.0105
45277SOL    HW241152   6.903   7.579  11.065 -0.7720 -0.6419 -1.1353
45278SOL     OW41153   2.249   8.444   8.211 -0.5405  0.3267 -0.4454
45278SOL    HW141154   2.307   8.457   8.136 -1.7531 -1.0319 -1.6904
45278SOL    HW241155   2.161   8.445   8.173 -1.2314  0.4153  1.0977
45279SOL     OW41156   9.897  10.647  10.823 -0.1275  0.2754 -0.1898
45279SOL    HW141157   9.851  10.721  10.863  0.0496  0.9306 -1.1736
45279SOL    HW241158   9.986  10.651  10.861 -0.3974 -0.0344  0.4959
45280SOL     OW41159  11.697  11.399   9.645  0.2225 -0.3651  0.0220
45280SOL    HW141160  11.638  11.394   9.569 -0.0251 -2.2098  0.2938
45280SOL    HW241161  11.782  11.369   9.611  0.3230 -0.3518  0.2621
45281SOL     OW41162   6.263  10.901   2.457 -0.1473  0.5817 -0.7162
45281SOL    HW141163   6.357  10.914   2.465 -0.3535  1.5627  0.6599
45281SOL    HW241164   6.241  10.929   2.368  1.0125 -0.9150 -1.5107
45282SOL     OW41165  11.106   1.376   8.313 -0.3495  0.8404 -0.4425
45282SOL    HW141166  11.142   1.320   8.381  1.9984  1.1545 -1.3308
45282SOL    HW241167  11.150   1.460   8.325 -1.4502  1.5462 -1.0989
45283SOL     OW41168  10.277   6.698   5.602 -0.3645 -0.8542 -0.0436
45283SOL    HW141169  10.357   6.740   5.570 -0.3752 -0.4745  0.4160
45283SOL    HW241170  10.205   6.750   5.568 -0.4209 -1.2292 -0.5046
45284SOL     OW41171   5.225   7.394   9.725  0.0822 -0.8584 -0.3521
45284SOL    HW141172   5.299   7.395   9.786 -0.7789 -0.2447  0.7075
45284SOL    HW241173   5.155   7.350   9.773 -1.3070  1.5710 -0.0277
45285SOL     OW41174   8.545   3.099   7.514  0.0032  0.0831  0.4923
45285SOL    HW141175   8.556   3.145   7.431  1.9139  1.4842  1.4437
45285SOL    HW241176   8.580   3.011   7.497 -0.5763  0.0208 -0.4489
45286SOL     OW41177   1.214   9.511   1.664 -0.0731 -0.0032 -0.6957
45286SOL    HW141178   1.123   9.495   1.639 -0.3123  2.0295 -1.2804
45286SOL    HW241179   1.259   9.527   1.582  0.3732  1.0044 -0.2687
45287SOL     OW41180   8.491   2.747   3.196  0.7559 -0.1399 -0.2217
45287SOL    HW141181   8.467   2.657   3.172 -0.7735  0.0139  0.5872
45287SOL    HW241182   8.529   2.738   3.284  1.0976 -0.0568 -0.3620
45288SOL     OW41183   1.670   7.439   2.288 -0.9441 -0.1022 -0.2577
45288SOL    HW141184   1.717   7.362   2.256 -0.8156  0.9390 -2.8526
45288SOL    HW241185   1.582   7.407   2.308  0.0006 -1.5247  1.9866
45289SOL     OW41186   9.222   6.886   4.529  0.1502  0.0480  0.2949
45289SOL    HW141187   9.191   6.917   4.614  1.3822 -0.7801  1.0735
45289SOL    HW241188   9.196   6.954   4.468 -0.3010  0.9133  1.4193
45290SOL     OW41189  11.710   4.793   0.530  0.0574  0.5311 -0.3870
45290SOL    HW141190  11.759   4.807   0.611  0.3297 -0.4962 -0.3501
45290SOL    HW241191  11.734   4.866   0.473  2.0561 -0.2032 -0.5602
45291SOL     OW41192   4.225   0.327   5.765 -0.2767  0.8591  0.5483
45291SOL    HW141193   4.160   0.266   5.801 -0.3125 -0.7800 -1.9708
45291SOL    HW241194   4.268   0.365   5.841 -1.7970 -0.6645  2.2701
45292SOL     OW41195   7.985   2.347   9.640 -0.3468  0.2332 -0.1398
45292SOL    HW141196   7.949   2.349   9.728  1.0479  0.5127  0.4420
45292SOL    HW241197   7.987   2.255   9.616 -2.8143  0.2607 -0.8147
45293SOL     OW41198   6.897   0.617   8.128  0.5956 -0.1148 -0.0447
45293SOL    HW141199   6.855   0.679   8.187 -0.4235  1.1273 -1.9926
45293SOL    HW241200   6.838   0.542   8.127  0.7569 -0.2627  0.6801
45294SOL     OW41201   8.942   5.673   1.350  0.0210 -0.5233  0.4146
45294SOL    HW141202   8.883   5.598   1.357 -0.5490 -0.0475  0.8192
45294SOL    HW241203   9.028   5.635   1.334 -0.6569 -1.1831 -2.0877
45295SOL     OW41204   0.888   3.063   0.325  0.2407 -0.2930  0.1098
45295SOL    HW141205   0.937   3.043   0.245  0.0081  1.5303 -0.5205
45295SOL    HW241206   0.798   3.042   0.303  0.2845 -0.5436  0.1657
45296SOL     OW41207  11.227   1.182   7.754  0.0996 -0.2266 -0.0490
45296SOL    HW141208  11.204   1.116   7.820  1.7222  0.4144  1.2345
45296SOL    HW241209  11.297   1.142   7.703  0.0617 -0.0648 -0.2282
45297SOL     OW41210  11.453   4.446   9.392  0.3523 -0.0197  0.1106
45297SOL    HW141211  11.423   4.458   9.482 -1.2035 -1.3445 -0.1969
45297SOL    HW241212  11.478   4.354   9.387  0.8883  0.1599 -0.6998
45298SOL     OW41213   7.820   7.874  10.211  0.9959 -0.5959 -0.0915
45298SOL    HW141214   7.847   7.782  10.204  0.7504 -1.0376  3.0317
45298SOL    HW241215   7.895   7.918  10.251  0.2137 -0.0116  0.7825
45299SOL     OW41216   4.972  10.800   3.647 -0.0419 -0.2162  0.1101
45299SOL    HW141217   4.895  10.791   3.592  1.6877  0.9596 -2.7494
45299SOL    HW241218   5.028  10.726   3.623 -0.0705 -0.8278  1.8292
45300SOL     OW41219   1.809   5.700   6.226  0.1658 -0.2577  0.0138
45300SOL    HW141220   1.758   5.633   6.271  0.4297  0.5971  1.6172
45300SOL    HW241221   1.744   5.763   6.194  0.1279  0.3897  1.3211
45301SOL     OW41222   4.633   0.515   2.133 -0.0005 -0.6967  0.5286
45301SOL    HW141223   4.538   0.521   2.128 -0.0871 -0.4716  1.9725
45301SOL    HW241224   4.663   0.527   2.043 -1.4093 -2.4895 -0.2329
45302SOL     OW41225   1.107  11.052   5.605 -0.0855 -0.5049 -0.1809
45302SOL    HW141226   1.202  11.053   5.612 -0.0476  0.7981 -0.7249
45302SOL    HW241227   1.085  11.128   5.551 -1.3833 -1.2372 -0.7558
45303SOL     OW41228   2.882   3.484   5.908  0.0816  0.4556  0.4788
45303SOL    HW141229   2.950   3.455   5.847 -0.9521 -1.6236  0.2209
45303SOL    HW241230   2.925   3.482   5.994  0.9775  1.4550  0.0777
45304SOL     OW41231   1.231   2.269   2.600  0.2105  0.8499  0.4367
45304SOL    HW141232   1.200   2.266   2.509 -2.3191  0.2171  1.2364
45304SOL    HW241233   1.321   2.239   2.596 -0.2600 -0.4585 -1.7171
45305SOL     OW41234   4.651  11.564   8.867  0.1799 -0.5131 -0.0548
45305SOL    HW141235   4.560  11.570   8.841  0.8590  0.0246 -2.5162
45305SOL    HW241236   4.648  11.543   8.961 -2.4496 -2.5141 -0.4797
45306SOL     OW41237   8.313   0.635   2.321 -0.6573  0.1365  0.1738
45306SOL    HW141238   8.388   0.695   2.324 -1.9584  1.8088  1.9260
45306SOL    HW241239   8.237   0.692   2.306 -1.7742 -1.3161  0.0341
45307SOL     OW41240   8.807   1.044   8.660  0.2610  0.1792  0.1461
45307SOL    HW141241   8.785   0.988   8.585  1.8944  0.4451 -0.5724
45307SOL    HW241242   8.810   0.984   8.735 -2.3354  0.0564  0.2613
45308SOL     OW41243   7.615   9.847   8.089  0.3597 -0.0656  0.8731
45308SOL    HW141244   7.595   9.940   8.082  1.6617  0.2047  0.3321
45308SOL    HW241245   7.606   9.814   8.000  0.3139 -0.3615  0.9864
45309SOL     OW41246   0.637   7.961   8.655  0.1490 -0.0210 -0.0316
45309SOL    HW141247   0.573   8.020   8.614  2.6124  2.4957 -0.5594
45309SOL    HW241248   0.677   7.914   8.581 -0.7833 -1.3617  0.2741
45310SOL     OW41249   0.697  10.635  11.790 -0.0385 -0.0558  0.1214
45310SOL    HW141250   0.786  10.667  11.804 -0.3995  1.3258 -0.5834
45310SOL    HW241251   0.673  10.593  11.872  1.8898 -2.0670 -0.2382
45311SOL     OW41252   2.186   8.598   5.043  0.1928  0.3104  0.7729
45311SOL    HW141253   2.167   8.671   5.102 -0.0262 -0.2892  1.4603
45311SOL    HW241254   2.122   8.531   5.067  2.2126 -1.2182  2.1526
45312SOL     OW41255   5.286   7.578  11.067 -0.1791  0.2996 -0.0958
45312SOL    HW141256   5.223   7.560  11.136 -0.5466 -0.1443 -0.5444
45312SOL    HW241257   5.370   7.551  11.104 -0.2030  1.1433  0.6012
45313SOL     OW41258   7.790   9.078   9.636 -0.4138  0.2578 -0.0012
45313SOL    HW141259   7.749   9.032   9.563  1.1336 -0.4541 -0.4542
45313SOL    HW241260   7.762   9.169   9.626 -0.5092  0.1063 -1.2888
45314SOL     OW41261  11.033   8.226   4.829 -0.4034 -0.1993 -0.0207
45314SOL    HW141262  11.101   8.162   4.850 -0.2791  0.1801  0.7753
45314SOL    HW241263  10.990   8.191   4.752 -3.3367 -3.5997  2.8195
45315SOL     OW41264   6.116   3.923   1.594  1.0267  0.0111  0.6307
45315SOL    HW141265   6.209   3.924   1.617  0.9996  4.1113  1.3771
45315SOL    HW241266   6.073   3.879   1.667  2.2459 -0.3786  1.1320
45316SOL     OW41267   3.427   6.155   4.303  0.0676 -0.5121  0.0446
45316SOL    HW141268   3.431   6.239   4.257 -0.7212  0.0748  1.0088
45316SOL    HW241269   3.486   6.165   4.377  0.6736 -1.1439 -0.3466
45317SOL     OW41270   3.352  10.911   1.378 -0.0391  0.2883 -0.0833
45317SOL    HW141271   3.396  10.964   1.445  0.5443 -1.0461  0.6141
45317SOL    HW241272   3.381  10.822   1.395 -1.1689 -0.2988 -1.1142
45318SOL     OW41273   4.322   0.868   2.559 -0.3002  0.1102 -0.2233
45318SOL    HW141274   4.358   0.857   2.647 -0.9416 -0.6849 -0.0490
45318SOL    HW241275   4.250   0.804   2.554  0.4338 -0.6413 -1.7086
45319SOL     OW41276   5.196  10.004   4.253  0.1394  0.3568 -0.5651
45319SOL    HW141277   5.185  10.051   4.170 -0.7212  0.5251 -0.3566
45319SOL    HW241278   5.146  10.054   4.317  1.2816  0.5677  0.2052
45320SOL     OW41279  11.022   8.184  10.727 -0.2865 -0.7195 -0.3254
45320SOL    HW141280  10.951   8.134  10.767  0.2940 -1.5115 -0.2488
45320SOL    HW241281  11.102   8.146  10.765  0.2073 -0.3612 -0.9863
45321SOL     OW41282  10.770   2.085  11.163 -0.6629  0.3191 -0.2545
45321SOL    HW141283  10.733   2.171  11.182  1.1534  0.8190  1.3316
45321SOL    HW241284  10.705   2.023  11.197 -0.7931  1.1309  1.0401
45322SOL     OW41285  10.916   4.753   3.636 -0.8056 -0.4464 -0.3777
45322SOL    HW141286  10.855   4.781   3.568 -1.9891  0.2042  0.8969
45322SOL    HW241287  10.865   4.693   3.691  0.3186 -1.4713 -0.3985
45323SOL     OW41288   6.279   2.495   2.355 -0.4188  0.2553 -0.4762
45323SOL    HW141289   6.233   2.413   2.335 -2.4387  1.8414 -2.7757
45323SOL    HW241290   6.289   2.493   2.451  1.1980 -3.4114 -0.5554
45324SOL     OW41291  11.291  10.376   1.879 -0.6401  0.2336 -0.1465
45324SOL    HW141292  11.299  10.436   1.953 -1.1034  0.2929 -0.1439
45324SOL    HW241293  11.270  10.291   1.919 -2.0159  0.5010 -0.2721
45325SOL     OW41294   1.513   6.078   9.098  0.1745 -0.0581  0.4369
45325SOL    HW141295   1.480   6.008   9.155 -1.4662  0.1366 -0.2221
45325SOL    HW241296   1.608   6.073   9.106  0.0261 -1.1718  1.8187
45326SOL     OW41297   7.354   8.846   9.668  0.8677 -0.4004  0.2911
45326SOL    HW141298   7.343   8.939   9.690 -0.6449 -0.9407  2.0871
45326SOL    HW241299   7.366   8.845   9.573  0.3191  1.5909  0.1533
45327SOL     OW41300   3.173   4.365   9.954  0.1712 -0.5290  0.2520
45327SOL    HW141301   3.179   4.460   9.965 -1.6037 -0.4309  0.7830
45327SOL    HW241302   3.178   4.351   9.860  3.2787 -0.2160  0.2650
45328SOL     OW41303   6.757   8.993   5.899 -0.2120  0.0985 -0.9270
45328SOL    HW141304   6.747   9.069   5.956 -0.1420  0.8671 -1.9032
45328SOL    HW241305   6.772   8.919   5.958  1.0585  1.0596  0.0062
45329SOL     OW41306  10.771   3.426   0.545  0.1087 -0.0471  0.2111
45329SOL    HW141307  10.721   3.446   0.466 -0.4416 -2.4156 -0.1165
45329SOL    HW241308  10.857   3.466   0.530 -0.1261 -0.0882 -1.4187
45330SOL     OW41309  11.368   8.582   8.855 -0.0209  0.6266 -0.0588
45330SOL    HW141310  11.323   8.619   8.779 -1.8194  1.4849  1.3595
45330SOL    HW241311  11.400   8.497   8.825 -0.2419  1.1541 -1.9091
45331SOL     OW41312   7.803   0.047   7.146  0.7859 -0.0085 -0.4306
45331SOL    HW141313   7.887   0.011   7.119  1.1407  0.0175  0.5931
45331SOL    HW241314   7.791   0.015   7.236  0.2745  0.9506 -0.1392
45332SOL     OW41315   3.630  10.806   4.098 -0.4182  0.2459 -0.0269
45332SOL    HW141316   3.619  10.864   4.173 -0.0904 -0.6243  0.7151
45332SOL    HW241317   3.545  10.807   4.054 -1.8802 -2.0771  2.4599
45333SOL     OW41318   9.542  10.292  11.002 -0.0670  0.5825 -0.2339
45333SOL    HW141319   9.485  10.360  11.038 -1.3810  0.2039 -1.4865
45333SOL    HW241320   9.481  10.225  10.970  1.1580 -0.6285 -0.0980
45334SOL     OW41321  11.626   1.467   5.928  0.1736 -0.1864 -0.3147
45334SOL    HW141322  11.660   1.391   5.974 -1.3097 -1.0229 -0.5472
45334SOL    HW241323  11.668   1.542   5.971  2.8471 -1.1375 -1.0773
45335SOL     OW41324   3.946   0.108   8.566 -0.0323  0.0239 -0.4046
45335SOL    HW141325   3.968   0.193   8.527  0.5270  0.8886  1.6773
45335SOL    HW241326   3.993   0.107   8.649 -0.1538 -2.2885 -0.3132
45336SOL     OW41327   4.340   5.357   6.202 -0.2111 -0.0459  0.0160
45336SOL    HW141328   4.303   5.269   6.194  0.8057 -0.5930  0.9594
45336SOL    HW241329   4.286   5.400   6.268 -1.4508  0.4885 -1.2821
45337SOL     OW41330   2.619   7.683   7.746 -0.1216  0.3669 -0.3875
45337SOL    HW141331   2.594   7.719   7.831 -1.7637  2.2649 -1.5834
45337SOL    HW241332   2.573   7.599   7.741  1.0527 -0.4098  1.0850
45338SOL     OW41333   9.795   3.364  10.482  0.4924  0.3932 -0.3552
45338SOL    HW141334   9.735   3.394  10.414  0.0163 -0.2257 -0.2228
45338SOL    HW241335   9.746   3.374  10.564 -0.5511 -2.6122 -0.4573
45339SOL     OW41336   4.701   1.958   0.958 -0.4214 -0.0668  0.1268
45339SOL    HW141337   4.652   1.940   0.878 -0.0294  1.4544 -0.4709
45339SOL    HW241338   4.652   2.027   1.002  0.2122  0.2062  0.4234
45340SOL     OW41339   7.538   9.235  11.542  0.0926  0.7527 -0.2145
45340SOL    HW141340   7.531   9.292  11.465  1.1320  2.2829  0.7694
45340SOL    HW241341   7.523   9.293  11.616 -0.4158 -0.5986  0.7858
45341SOL     OW41342   4.550   7.027   4.948  0.1946 -0.7098  0.0426
45341SOL    HW141343   4.513   6.997   5.031  0.5171  1.1235  0.9138
45341SOL    HW241344   4.551   7.122   4.956  0.5591 -0.5033 -1.9478
45342SOL     OW41345   3.768   0.612  10.022 -0.0951 -0.8072  0.0536
45342SOL    HW141346   3.689   0.603   9.969  0.0958  0.6374 -0.5218
45342SOL    HW241347   3.813   0.528  10.012 -2.0076 -2.0526  1.2310
45343SOL     OW41348   4.108   6.823   0.923  0.0388  0.0157 -0.0444
45343SOL    HW141349   4.035   6.879   0.950  0.8741  0.7012  0.8567
45343SOL    HW241350   4.167   6.823   0.998 -0.0519 -2.3329  0.0780
45344SOL     OW41351   3.235   9.998   5.974 -0.2438  0.5779 -0.4628
45344SOL    HW141352   3.201  10.079   5.936 -1.3576  1.0319  1.3954
45344SOL    HW241353   3.297  10.027   6.041  0.4372 -0.1622 -0.7545
45345SOL     OW41354   5.226  10.717   0.461  0.0372 -0.4069  0.2347
45345SOL    HW141355   5.155  10.779   0.480  0.0590 -0.8898  2.0578
45345SOL    HW241356   5.305  10.771   0.457 -0.1565 -0.1237  0.1834
45346SOL     OW41357   9.272  10.099  11.490  0.1889 -0.1879  0.1117
45346SOL    HW141358   9.254  10.184  11.530  2.9975  0.9017 -0.6757
45346SOL    HW241359   9.365  10.103  11.466 -0.0245 -2.8192 -1.5842
45347SOL     OW41360  11.618   5.743   1.849  0.3050 -0.1862  0.3404
45347SOL    HW141361  11.706   5.754   1.885 -0.4081 -1.0843  2.5170
45347SOL    HW241362  11.586   5.832   1.835  1.6642  0.1554 -0.8797
45348SOL     OW41363   5.313   5.360  11.403  0.0901 -0.3416 -0.1200
45348SOL    HW141364   5.308   5.309  11.323  0.1170 -0.9499  0.2556
45348SOL    HW241365   5.262   5.309  11.467 -1.1398  0.8355 -0.1140
45349SOL     OW41366   8.247   2.655   1.154 -1.2472 -0.0848  0.3234
45349SOL    HW141367   8.199   2.732   1.186 -0.4925  0.4914  0.0970
45349SOL    HW241368   8.337   2.686   1.142 -1.1157 -0.7831 -0.5813
45350SOL     OW41369   9.346  10.438   0.512 -0.1834  0.9178  0.2314
45350SOL    HW141370   9.326  10.345   0.524  1.7815  0.2692 -1.0828
45350SOL    HW241371   9.266  10.483   0.540 -1.3614 -1.1711  0.4624
45351SOL     OW41372   2.951   1.442   0.569  0.4676 -0.0648 -0.0542
45351SOL    HW141373   2.950   1.383   0.645  0.6391 -0.8166 -0.6250
45351SOL    HW241374   3.030   1.417   0.520  1.0371  1.2333  0.1404
45352SOL     OW41375  10.614   8.762  11.389  0.1413  0.4675 -0.1478
45352SOL    HW141376  10.536   8.718  11.424  0.8725  0.0848  1.0609
45352SOL    HW241377  10.617   8.845  11.436 -0.2255  1.0407 -1.1153
45353SOL     OW41378   6.651   2.054   3.138  0.9355  0.2359 -0.2897
45353SOL    HW141379   6.722   1.990   3.134 -0.0583 -0.8631 -0.6300
45353SOL    HW241380   6.651   2.096   3.052  0.3261 -0.6996 -0.7531
45354SOL     OW41381  10.091   8.953  11.475 -0.5678  0.3669 -0.2461
45354SOL    HW141382  10.161   8.922  11.533 -1.7391 -1.4016  0.3035
45354SOL    HW241383  10.136   9.009  11.411  1.1759  0.1260  0.6983
45355SOL     OW41384  11.497   3.757   8.673 -0.5161 -0.0196 -0.1541
45355SOL    HW141385  11.434   3.821   8.706 -0.8282  1.0878 -2.6927
45355SOL    HW241386  11.565   3.753   8.741 -1.3558  1.6757  0.8611
45356SOL     OW41387   2.497  11.648   5.084 -0.0826 -0.1799 -0.0900
45356SOL    HW141388   2.419  11.699   5.108 -0.0058 -0.7198  1.4191
45356SOL    HW241389   2.466  11.589   5.015 -0.3317  1.4099 -1.3987
45357SOL     OW41390   8.267   5.721  10.286  0.2219  0.4925 -0.1606
45357SOL    HW141391   8.316   5.643  10.312 -0.1550  0.7755  1.5102
45357SOL    HW241392   8.194   5.686  10.233  0.5294 -0.1994 -0.1412
45358SOL     OW41393   6.546   3.715   8.936  0.3151 -0.1755 -0.0761
45358SOL    HW141394   6.556   3.625   8.905  1.1543  0.5125 -1.9860
45358SOL    HW241395   6.634   3.753   8.926  0.4478  0.3667  2.4899
45359SOL     OW41396  10.546   9.473   0.994 -0.1738  0.3323  0.2380
45359SOL    HW141397  10.491   9.519   0.931  0.3603  0.7730  0.0939
45359SOL    HW241398  10.587   9.542   1.046 -0.6449 -0.0184  1.1147
45360SOL     OW41399   4.769   3.867   6.968 -0.1145 -0.5771 -0.1043
45360SOL    HW141400   4.826   3.940   6.943 -0.4753 -0.1685  0.2204
45360SOL    HW241401   4.681   3.907   6.972 -0.3734 -1.1238 -0.3096
45361SOL     OW41402   7.475   7.854   2.971 -0.0765 -0.4222  0.7823
45361SOL    HW141403   7.558   7.862   2.923 -0.9998  2.8402 -0.4717
45361SOL    HW241404   7.483   7.770   3.017  3.0746 -1.1769 -0.8449
45362SOL     OW41405   7.951   4.031   5.219 -0.1535 -0.1965 -0.2609
45362SOL    HW141406   7.889   3.966   5.186 -0.9993 -0.5399  1.8707
45362SOL    HW241407   7.906   4.114   5.211 -0.2970 -0.2603 -0.1236
45363SOL     OW41408  11.570   8.006   3.023  1.2819  0.2456  0.6451
45363SOL    HW141409  11.489   7.961   2.996  1.3577  0.3964  0.1590
45363SOL    HW241410  11.629   7.935   3.047  1.2929  0.0911  0.1797
45364SOL     OW41411   4.520  10.967   4.479  0.3035  0.6867  0.0618
45364SOL    HW141412   4.465  11.045   4.484  1.0797  1.1967  1.1117
45364SOL    HW241413   4.525  10.935   4.569 -0.9668 -1.2930 -0.5106
45365SOL     OW41414   8.884   4.564   1.444 -0.3649  0.1715  0.1064
45365SOL    HW141415   8.962   4.619   1.436 -0.6701  0.4074 -1.9228
45365SOL    HW241416   8.812   4.622   1.420 -1.0379 -0.3545  0.8180
45366SOL     OW41417   8.923  11.047   2.193  0.3206  0.0584  0.1641
45366SOL    HW141418   8.870  11.111   2.241 -1.5119 -2.1436  1.2929
45366SOL    HW241419   8.997  11.029   2.251 -0.6459 -0.8400  1.1797
45367SOL     OW41420  11.715  10.290   6.556 -0.0939 -0.6153  0.5989
45367SOL    HW141421  11.798  10.311   6.514 -0.1658 -3.1444 -0.9833
45367SOL    HW241422  11.728  10.315   6.648  2.4652 -1.0513  0.4284
45368SOL     OW41423   4.496   0.786   0.581 -0.0932  0.1194  0.0086
45368SOL    HW141424   4.479   0.702   0.623  0.2653 -0.3593 -0.8013
45368SOL    HW241425   4.441   0.848   0.629 -0.3641 -0.5718  0.6029
45369SOL     OW41426   1.292   0.751   5.818  0.9006  0.5832  0.2967
45369SOL    HW141427   1.379   0.735   5.855  1.7630  0.1402 -1.8071
45369SOL    HW241428   1.243   0.671   5.838  1.1190  0.6193  1.0325
45370SOL     OW41429   1.845   7.321  11.193 -0.6207 -0.6453 -0.4955
45370SOL    HW141430   1.935   7.339  11.166 -1.1221  0.7918 -1.3350
45370SOL    HW241431   1.816   7.249  11.136 -0.0588 -1.0128 -0.3205
45371SOL     OW41432  10.787   6.561   9.547  0.2876  0.0412  0.1268
45371SOL    HW141433  10.750   6.601   9.626  0.1514  0.8008 -0.3100
45371SOL    HW241434  10.728   6.489   9.527  0.9570 -0.8706  1.3564
45372SOL     OW41435   1.932   4.101   4.517  0.1959 -0.2724 -0.0869
45372SOL    HW141436   1.932   4.140   4.604 -0.1544  0.6373 -0.4904
45372SOL    HW241437   1.963   4.011   4.532 -0.5855 -0.3697  1.0716
45373SOL     OW41438   3.377   8.940   1.437  0.0652 -0.1343  0.2436
45373SOL    HW141439   3.354   9.020   1.485 -0.8162  0.3652 -0.9652
45373SOL    HW241440   3.374   8.965   1.345 -0.9338 -1.7357 -0.1990
45374SOL     OW41441   1.116   7.891   4.468  0.1201 -0.2665 -0.0593
45374SOL    HW141442   1.065   7.827   4.419 -0.0931 -1.2917  1.4507
45374SOL    HW241443   1.151   7.843   4.542  3.4826  0.3245 -1.0810
45375SOL     OW41444   7.644   6.301  10.620 -0.0415  0.1195  0.1473
45375SOL    HW141445   7.674   6.367  10.682  0.0761  0.1764  0.0295
45375SOL    HW241446   7.644   6.219  10.670  1.6503 -0.1369 -0.2272
45376SOL     OW41447   4.020   6.289  11.749  0.2980  0.1311  0.2996
45376SOL    HW141448   3.954   6.276  11.818  0.2437  0.0716  0.2369
45376SOL    HW241449   4.024   6.205  11.704 -0.4357  0.4672 -0.4363
45377SOL     OW41450   0.040   5.375   3.465 -0.1083 -0.2334  0.0979
45377SOL    HW141451   0.060   5.423   3.546 -0.1192 -2.5864  1.5712
45377SOL    HW241452   0.093   5.296   3.471  0.2786 -0.2427 -2.4997
45378SOL     OW41453   3.892   2.729   9.075 -0.0686  0.1946 -0.4955
45378SOL    HW141454   3.973   2.779   9.086  1.3257 -1.8428 -0.9763
45378SOL    HW241455   3.859   2.717   9.165  0.8929 -0.0710 -0.1653
45379SOL     OW41456   4.562  11.319   4.140 -0.6699 -0.0555  0.9429
45379SOL    HW141457   4.558  11.251   4.206  0.5500  0.3558  1.4648
45379SOL    HW241458   4.592  11.397   4.188 -0.1187  0.3359 -0.0122
45380SOL     OW41459   0.212   9.197   7.951 -0.0095  1.1151  0.4214
45380SOL    HW141460   0.226   9.108   7.919 -0.2366  0.6386  1.5707
45380SOL    HW241461   0.168   9.184   8.036 -0.9283  2.3478  0.1533
45381SOL     OW41462  11.131   0.668   0.261 -0.2702  0.0055  0.8020
45381SOL    HW141463  11.051   0.623   0.236 -0.7926  1.5618 -0.5553
45381SOL    HW241464  11.198   0.600   0.261 -0.9386 -0.7566 -1.5966
45382SOL     OW41465   1.456   9.523   8.106 -0.2375  0.5122 -0.2628
45382SOL    HW141466   1.504   9.452   8.063  1.9267 -0.1988  2.9429
45382SOL    HW241467   1.492   9.603   8.068  0.4472 -0.0688 -0.8779
45383SOL     OW41468   1.983   8.291   9.244  0.2415  0.4022 -0.1595
45383SOL    HW141469   1.892   8.319   9.233  0.7409  2.4926  0.4518
45383SOL    HW241470   2.027   8.319   9.164  0.4001 -0.4272 -0.3710
45384SOL     OW41471   1.253   0.291   2.264  0.0388  0.4051 -0.1069
45384SOL    HW141472   1.279   0.319   2.353 -0.0995  0.8667 -0.2087
45384SOL    HW241473   1.195   0.360   2.234  0.3318  0.4048 -0.6794
45385SOL     OW41474   7.138   5.755   2.185  0.3825 -0.0329 -0.7125
45385SOL    HW141475   7.186   5.817   2.129  2.3339 -1.8743 -1.1991
45385SOL    HW241476   7.204   5.693   2.214 -1.2453 -1.0877  0.9287
45386SOL     OW41477  11.255  10.088   1.953 -1.0265 -0.6849 -0.4513
45386SOL    HW141478  11.309  10.099   2.031 -0.7502  0.3453 -0.7699
45386SOL    HW241479  11.260   9.995   1.933 -0.7611 -0.8861  0.5133
45387SOL     OW41480   7.618   1.416   8.456 -0.2938  0.0073  0.1439
45387SOL    HW141481   7.672   1.433   8.378 -0.3437 -0.2095  0.0642
45387SOL    HW241482   7.660   1.469   8.525  0.7649 -1.1139  0.3895
45388SOL     OW41483   8.649   0.502   5.275 -0.5501  0.1680  0.0072
45388SOL    HW141484   8.574   0.561   5.284 -1.2070 -0.7094  0.4485
45388SOL    HW241485   8.613   0.415   5.294  0.5568 -0.2794  0.1128
45389SOL     OW41486   4.730   9.901  11.097 -0.1982 -0.6488 -0.2410
45389SOL    HW141487   4.758   9.819  11.054  2.1065 -1.2216  2.1055
45389SOL    HW241488   4.659   9.874  11.155 -0.3740 -0.7256 -0.4907
45390SOL     OW41489   6.877   6.777   4.049  0.1311  0.0022  0.0677
45390SOL    HW141490   6.861   6.861   4.091 -0.3190 -0.4697  0.8645
45390SOL    HW241491   6.790   6.744   4.026 -0.2424 -2.3290  3.9483
45391SOL     OW41492   1.312   0.489   8.741  0.7966  0.4346  0.2032
45391SOL    HW141493   1.365   0.510   8.819 -2.3953  2.9141  1.9732
45391SOL    HW241494   1.331   0.560   8.680 -0.2990  1.3038  0.8236
45392SOL     OW41495   5.314   7.747   8.555  0.0754 -0.0281  0.5953
45392SOL    HW141496   5.389   7.703   8.515  0.7883  0.5674  1.2557
45392SOL    HW241497   5.302   7.703   8.639 -0.2607 -0.0648  0.5278
45393SOL     OW41498   2.665   8.570   1.042 -0.1719  0.4485  0.2469
45393SOL    HW141499   2.572   8.585   1.060 -0.3613 -0.1288 -0.2236
45393SOL    HW241500   2.675   8.475   1.047 -0.3108  0.1670 -2.9728
45394SOL     OW41501   8.393   1.446   6.325 -0.6215  0.5690  0.0631
45394SOL    HW141502   8.330   1.378   6.304  1.3433 -0.9456 -1.2904
45394SOL    HW241503   8.439   1.414   6.403  1.6917 -0.8080 -1.7230
45395SOL     OW41504   3.519   2.068   4.202  0.2757  0.2121 -0.2630
45395SOL    HW141505   3.555   2.096   4.118  0.2999 -0.4736 -0.4858
45395SOL    HW241506   3.514   1.973   4.196 -2.4961  0.2974 -0.6116
45396SOL     OW41507  10.373   3.564   1.850  0.6108 -0.0502 -0.1414
45396SOL    HW141508  10.301   3.503   1.833  0.9754  0.1364 -2.7537
45396SOL    HW241509  10.360   3.592   1.941 -2.5083 -0.1833 -0.4324
45397SOL     OW41510   2.056   6.486   9.061  0.7904 -0.4624  0.2094
45397SOL    HW141511   1.990   6.473   8.992  0.7943 -0.0695  0.1303
45397SOL    HW241512   2.023   6.560   9.111  0.2347 -1.3982  1.2944
45398SOL     OW41513   3.199   4.861   6.790 -0.6546  0.1966  0.0362
45398SOL    HW141514   3.280   4.877   6.742 -1.2051  0.4530 -0.8212
45398SOL    HW241515   3.129   4.877   6.727 -1.3572 -1.1712  0.4218
45399SOL     OW41516   7.596   3.783   1.538 -0.3228  0.3297 -0.0638
45399SOL    HW141517   7.644   3.708   1.574 -0.5384 -0.1983 -0.8451
45399SOL    HW241518   7.620   3.856   1.595 -0.5354 -0.4440  1.0483
45400SOL     OW41519   4.949  11.811   1.426  0.2201 -0.3612 -0.1282
45400SOL    HW141520   5.023  11.790   1.368 -0.4553  0.4497 -1.3117
45400SOL    HW241521   4.984  11.876   1.486  0.0602  1.3125 -1.7597
45401SOL     OW41522   7.232   3.471   0.455 -0.3318  0.0158  0.0157
45401SOL    HW141523   7.214   3.547   0.511 -0.6617 -0.5996  0.7709
45401SOL    HW241524   7.170   3.479   0.383 -0.3912  0.4484  0.1130
45402SOL     OW41525   7.422   3.007  11.191 -0.3726 -0.3056  0.0377
45402SOL    HW141526   7.379   2.965  11.266 -0.3359  0.7794  0.6782
45402SOL    HW241527   7.352   3.016  11.126 -0.1437 -2.3576 -0.5835
45403SOL     OW41528   0.715   1.203   0.469 -0.5363 -0.0050 -0.4006
45403SOL    HW141529   0.621   1.211   0.452 -0.5110 -0.7496 -0.9427
45403SOL    HW241530   0.756   1.207   0.383 -0.0105  0.9136 -0.1211
45404SOL     OW41531   3.905   4.801   8.760 -0.1427  0.6019 -0.0306
45404SOL    HW141532   3.944   4.767   8.840 -0.1394 -0.5789 -0.5037
45404SOL    HW241533   3.974   4.794   8.694 -0.5715  0.1968 -0.4533
45405SOL     OW41534   0.208   5.044   6.660  0.0136  0.4439 -0.3630
45405SOL    HW141535   0.184   4.978   6.725  2.3475 -2.0622 -1.8211
45405SOL    HW241536   0.127   5.093   6.645 -1.5332 -1.2797  1.7036
45406SOL     OW41537   6.005  10.376   4.217  0.3309  0.0033 -1.0218
45406SOL    HW141538   5.981  10.313   4.149  3.7933 -0.5811 -1.8783
45406SOL    HW241539   6.100  10.382   4.212  0.4942  2.0910  1.9522
45407SOL     OW41540   7.409   4.122   1.442  1.0336  0.1248  0.7907
45407SOL    HW141541   7.377   4.040   1.480 -0.3898  1.6640  3.1781
45407SOL    HW241542   7.420   4.103   1.349  0.6918 -2.7358  1.2510
45408SOL     OW41543   5.460   6.449   4.625  0.1465  0.0466  0.0268
45408SOL    HW141544   5.502   6.426   4.542 -0.6407 -1.1982 -0.0460
45408SOL    HW241545   5.379   6.398   4.626  0.1876 -0.0310  1.6021
45409SOL     OW41546   3.911   4.318   0.766  0.6495 -0.2590 -0.0102
45409SOL    HW141547   3.843   4.316   0.834  0.1766  2.4311 -0.3057
45409SOL    HW241548   3.993   4.306   0.814  0.2478  0.6330  0.9418
45410SOL     OW41549   3.971   3.488   6.860  0.7294  0.0753 -0.9230
45410SOL    HW141550   4.024   3.567   6.855  0.6077  0.2586  0.2509
45410SOL    HW241551   4.030   3.421   6.893  0.2888  0.2596  0.3082
45411SOL     OW41552   2.328   2.830   0.943  0.4030 -0.5011 -0.0449
45411SOL    HW141553   2.292   2.741   0.933  0.7385 -0.5011 -1.5137
45411SOL    HW241554   2.396   2.836   0.876 -0.6205  1.3533 -1.0033
45412SOL     OW41555   2.208   4.101  11.518  0.0919  0.4899  0.2664
45412SOL    HW141556   2.264   4.174  11.491  1.2900 -0.7933 -0.8553
45412SOL    HW241557   2.268   4.028  11.531 -1.1594 -0.5093  0.6223
45413SOL     OW41558   6.769   2.247   7.497 -0.0235  0.1428  0.5955
45413SOL    HW141559   6.777   2.342   7.505  1.1843  0.1197 -0.0357
45413SOL    HW241560   6.840   2.222   7.437  0.0375 -1.2241  1.1946
45414SOL     OW41561   7.819   2.515   7.793 -0.0256 -0.4973  0.3071
45414SOL    HW141562   7.813   2.424   7.764 -0.8649  0.2972 -2.3321
45414SOL    HW241563   7.881   2.556   7.733 -1.7507  1.2458 -0.4126
45415SOL     OW41564   9.942   4.675   6.101 -0.0285  0.1862  0.2422
45415SOL    HW141565  10.016   4.614   6.096 -0.1626  0.0317  0.1613
45415SOL    HW241566   9.983   4.762   6.094 -0.0079  0.0697 -1.6129
45416SOL     OW41567   6.074  11.027   0.824  0.7053  0.1511  0.1731
45416SOL    HW141568   6.052  11.006   0.915 -0.7476  0.1961 -0.1450
45416SOL    HW241569   6.054  11.120   0.816 -0.8793 -0.2349 -0.6482
45417SOL     OW41570   6.531   9.172   0.911  0.0454  0.3201  0.1942
45417SOL    HW141571   6.479   9.099   0.877 -0.2235 -0.2001  1.6406
45417SOL    HW241572   6.469   9.223   0.963  0.3520  1.3221 -0.3888
45418SOL     OW41573   9.299   9.387   0.072  0.4064 -0.6384 -0.5912
45418SOL    HW141574   9.318   9.304   0.115  1.0133 -0.2715 -0.1344
45418SOL    HW241575   9.366   9.447   0.105 -0.2252  0.1175 -0.6601
45419SOL     OW41576   3.984  11.004  10.986  0.1808 -0.0703 -0.5472
45419SOL    HW141577   4.050  11.073  10.976  2.2759 -1.8873 -0.0601
45419SOL    HW241578   3.975  10.992  11.080 -1.2708  0.4989 -0.5966
45420SOL     OW41579   2.922   9.278   5.445 -0.3029  0.2274 -0.5465
45420SOL    HW141580   2.887   9.277   5.357 -1.3905  0.1961 -0.1225
45420SOL    HW241581   2.896   9.194   5.482 -0.3930  0.5000  0.0151
45421SOL     OW41582   1.184   0.167   6.539 -0.0170 -0.1216  0.1181
45421SOL    HW141583   1.279   0.156   6.551  0.2787  1.1620 -0.7446
45421SOL    HW241584   1.153   0.200   6.624  0.3529 -0.2755  0.3166
45422SOL     OW41585   6.944   4.670   3.521  0.2970  0.0540  0.2361
45422SOL    HW141586   6.912   4.760   3.514 -0.2203 -0.2221 -1.4259
45422SOL    HW241587   6.941   4.651   3.615 -0.1871  1.5502  0.5552
45423SOL     OW41588   5.403   8.957  11.248 -0.0665 -0.1255  0.2669
45423SOL    HW141589   5.410   9.031  11.308 -3.1703 -0.5803  1.3492
45423SOL    HW241590   5.403   8.880  11.305  1.2197 -0.8822 -0.7053
45424SOL     OW41591   9.782   9.936   6.189  0.0244 -0.2042 -0.2292
45424SOL    HW141592   9.750   9.869   6.128 -2.0775 -0.5194  1.1078
45424SOL    HW241593   9.759  10.019   6.148 -0.0653 -0.3767 -0.5353
45425SOL     OW41594   3.704   3.868   3.159  0.1933 -0.1166 -0.2022
45425SOL    HW141595   3.786   3.822   3.178 -0.4403 -1.1480  0.1211
45425SOL    HW241596   3.719   3.958   3.189  1.0616 -0.4003  0.2453
45426SOL     OW41597   9.943  11.267   9.255 -0.4720  0.0411  0.6357
45426SOL    HW141598  10.007  11.336   9.272  2.0932 -1.9915 -0.0959
45426SOL    HW241599   9.918  11.279   9.164 -1.2486  0.8780  0.9407
45427SOL     OW41600   1.523   8.595   2.567  0.0430  0.1788 -0.3370
45427SOL    HW141601   1.476   8.544   2.502 -0.2503 -1.0544  0.7990
45427SOL    HW241602   1.615   8.568   2.557 -0.1964 -1.1758  0.7168
45428SOL     OW41603   9.646  10.192   8.255  0.3065  0.4670  0.5692
45428SOL    HW141604   9.721  10.134   8.265 -0.2656 -0.2158  1.0308
45428SOL    HW241605   9.589  10.171   8.329 -0.3050  1.0219  0.2719
45429SOL     OW41606   6.885   9.142   7.907 -0.5233 -0.3206 -0.5247
45429SOL    HW141607   6.870   9.084   7.983 -0.9961 -0.3445 -0.6379
45429SOL    HW241608   6.980   9.156   7.907 -0.5243 -0.2953  0.0915
45430SOL     OW41609   7.150   9.110   3.837 -0.1314  0.0506 -0.3212
45430SOL    HW141610   7.144   9.087   3.930  0.6684 -3.1207 -0.9482
45430SOL    HW241611   7.060   9.131   3.813 -0.7328 -1.2156  0.6979
45431SOL     OW41612   3.873  11.306   9.226 -0.3638  0.0663  0.0823
45431SOL    HW141613   3.935  11.234   9.238 -1.0148 -0.5772 -0.2725
45431SOL    HW241614   3.923  11.385   9.245  1.1006 -0.2747 -2.0102
45432SOL     OW41615   4.311   9.378   4.978  0.3111  0.6700  0.2344
45432SOL    HW141616   4.281   9.292   4.950  1.6946  0.3396 -0.3248
45432SOL    HW241617   4.235   9.435   4.967  0.1299  0.0923 -2.0624
45433SOL     OW41618   4.829  10.086   6.613  0.0630 -0.2267 -0.1731
45433SOL    HW141619   4.904  10.079   6.554 -0.0985 -0.4302 -0.3500
45433SOL    HW241620   4.773  10.153   6.574 -0.8521 -1.4992 -1.1351
45434SOL     OW41621  10.871   0.837   6.686  0.4908  0.2918  0.3403
45434SOL    HW141622  10.925   0.830   6.765  2.7398  1.7370 -0.9546
45434SOL    HW241623  10.889   0.925   6.653 -1.5325  0.2454 -1.0122
45435SOL     OW41624   8.804   1.247   6.139  0.1218  0.5600  0.5762
45435SOL    HW141625   8.730   1.304   6.161 -1.1130 -0.9856  0.6086
45435SOL    HW241626   8.776   1.160   6.167  0.4551 -0.7187 -2.5914
45436SOL     OW41627   0.348   2.975   7.109 -0.0731 -0.7582 -0.0667
45436SOL    HW141628   0.333   3.069   7.107 -0.1516 -0.7789 -0.6428
45436SOL    HW241629   0.441   2.966   7.130  0.6632 -0.4634 -2.8154
45437SOL     OW41630   8.803   3.551  10.656  0.0754 -0.0325  0.2780
45437SOL    HW141631   8.747   3.480  10.688 -1.2529 -0.2619 -2.2987
45437SOL    HW241632   8.742   3.616  10.622  1.3378  0.2839 -1.4943
45438SOL     OW41633  10.667   7.763   7.396  0.1960 -0.3312  0.6139
45438SOL    HW141634  10.606   7.689   7.394  0.8998 -0.9417 -1.8966
45438SOL    HW241635  10.752   7.723   7.418  0.7203 -0.4755 -1.4576
45439SOL     OW41636   3.737  11.245   1.484  0.5539 -0.2173  0.6506
45439SOL    HW141637   3.797  11.217   1.415  0.5516 -0.0922  0.5966
45439SOL    HW241638   3.691  11.320   1.445  0.1707 -0.4833  0.5899
45440SOL     OW41639   9.324   7.963   0.784 -0.5878  0.8268  0.2589
45440SOL    HW141640   9.384   8.028   0.748 -1.4977  0.5270 -1.9323
45440SOL    HW241641   9.315   7.898   0.715 -2.1561  0.0041  1.1920
45441SOL     OW41642   0.320   9.648   0.904 -0.1488  0.1213  0.2208
45441SOL    HW141643   0.313   9.606   0.818 -0.2414  0.1730  0.2033
45441SOL    HW241644   0.264   9.597   0.961 -1.5424  1.1677 -0.1623
45442SOL     OW41645   6.135   6.659   5.694  0.3665  0.0700 -0.6190
45442SOL    HW141646   6.095   6.576   5.669 -2.2690  1.5286 -1.6541
45442SOL    HW241647   6.098   6.679   5.781  1.5509 -0.1599 -0.0492
45443SOL     OW41648  11.207   2.002   1.167 -0.0448 -0.5134 -0.0841
45443SOL    HW141649  11.237   1.922   1.123 -1.1367 -1.1867  0.3432
45443SOL    HW241650  11.255   2.003   1.250 -0.5164 -1.1022  0.2044
45444SOL     OW41651   3.920   3.150   3.525 -0.5311  0.9331 -0.1846
45444SOL    HW141652   3.892   3.237   3.496 -0.7403  1.0608  0.3875
45444SOL    HW241653   3.876   3.089   3.466 -2.3546  1.1060  0.9306
45445SOL     OW41654   7.452   1.904  10.140  0.8786 -0.5138 -0.1682
45445SOL    HW141655   7.416   1.840  10.079  0.4485 -1.2771  0.8562
45445SOL    HW241656   7.472   1.854  10.219  2.6013  0.2283 -0.1057
45446SOL     OW41657   0.717   1.543   3.600 -0.7241  0.6102  0.0894
45446SOL    HW141658   0.710   1.632   3.565  0.8817 -0.5182 -3.5918
45446SOL    HW241659   0.627   1.510   3.598 -0.8816  1.0368 -1.9775
45447SOL     OW41660   7.438   0.518   4.614 -0.1429  0.6016 -0.4924
45447SOL    HW141661   7.373   0.550   4.676  0.3235 -0.6067  0.6571
45447SOL    HW241662   7.451   0.591   4.554 -1.9644  1.1545 -0.2882
45448SOL     OW41663   8.632   4.630  10.472  0.3672  0.6227 -0.1842
45448SOL    HW141664   8.637   4.675  10.556  0.8880 -0.9853  0.7005
45448SOL    HW241665   8.698   4.561  10.478 -1.3657 -1.2017 -0.8305
45449SOL     OW41666   8.112  11.444   3.308 -0.6251  0.1529  0.2723
45449SOL    HW141667   8.034  11.495   3.332 -0.9483 -0.2862  0.1799
45449SOL    HW241668   8.177  11.466   3.374 -0.5542  1.1538 -0.1171
45450SOL     OW41669   5.922  10.301   4.530 -0.4521 -0.1392 -0.5692
45450SOL    HW141670   5.979  10.325   4.456  0.1065  0.0654 -0.0861
45450SOL    HW241671   5.903  10.209   4.516 -0.5379 -0.0441 -1.0948
45451SOL     OW41672   8.663   8.041   9.391 -0.0565 -0.1865  0.1985
45451SOL    HW141673   8.599   8.020   9.459 -1.2324 -1.6852 -1.2761
45451SOL    HW241674   8.656   8.135   9.379 -1.9738 -0.3049  0.1254
45452SOL     OW41675   0.515   4.546   6.882  0.6973 -0.2142 -0.0009
45452SOL    HW141676   0.554   4.459   6.867  1.9110  0.3566 -0.2919
45452SOL    HW241677   0.531   4.564   6.974 -1.3102 -1.1022  0.5825
45453SOL     OW41678  10.760   0.325   7.427 -0.0323 -0.0382 -0.1674
45453SOL    HW141679  10.849   0.325   7.394  0.0904 -0.5977  0.1391
45453SOL    HW241680  10.733   0.233   7.424  0.4091 -0.3377  2.3630
45454SOL     OW41681   9.253   3.497   6.384 -0.1472 -0.0604 -0.1893
45454SOL    HW141682   9.245   3.499   6.479 -0.6219  1.3497 -0.2382
45454SOL    HW241683   9.345   3.475   6.369  0.0533  0.2077  0.5974
45455SOL     OW41684   2.886   8.121   7.105  0.6295 -0.1156  0.0230
45455SOL    HW141685   2.822   8.090   7.169 -0.3651  0.1006 -0.8231
45455SOL    HW241686   2.899   8.047   7.046  3.5735 -1.2645  1.8817
45456SOL     OW41687   6.105   9.421   4.707 -0.0356  0.4422  0.0406
45456SOL    HW141688   6.146   9.403   4.623  0.9276  1.5403  0.2643
45456SOL    HW241689   6.053   9.501   4.692 -1.8719 -0.7184 -0.1466
45457SOL     OW41690   3.314   1.167   9.789  0.3904  0.3742 -0.0392
45457SOL    HW141691   3.327   1.261   9.771  0.1893  0.7632  1.6563
45457SOL    HW241692   3.363   1.152   9.870  0.4043 -1.0022 -0.2879
45458SOL     OW41693   8.141   2.908   3.745 -0.1426  0.8745  0.5780
45458SOL    HW141694   8.108   2.892   3.834 -1.2037 -0.8671 -0.0697
45458SOL    HW241695   8.228   2.868   3.745  0.0181  1.2118  0.9237
45459SOL     OW41696   8.716   9.627  10.079 -0.7168 -0.1624  0.0883
45459SOL    HW141697   8.774   9.696  10.048 -1.2096 -0.0973 -0.7250
45459SOL    HW241698   8.722   9.632  10.175  0.2053  0.1801  0.0224
45460SOL     OW41699   8.669   4.354   5.192 -0.2879  0.4276  0.0741
45460SOL    HW141700   8.738   4.310   5.144  0.5439  0.8256  0.8581
45460SOL    HW241701   8.642   4.426   5.135 -0.6479 -0.2205 -0.5874
45461SOL     OW41702  10.806   6.839  11.678 -0.1316  0.0137  0.5248
45461SOL    HW141703  10.761   6.919  11.653  0.6197  0.0707 -0.7235
45461SOL    HW241704  10.886   6.868  11.722 -0.9013 -0.0883  2.0825
45462SOL     OW41705   6.018   1.793  11.769  0.1105  0.4558  0.2814
45462SOL    HW141706   5.932   1.763  11.798  0.5035  0.8759  1.9737
45462SOL    HW241707   6.064   1.713  11.744 -0.1212  0.0274  1.2039
45463SOL     OW41708   4.066  11.276   7.425  0.3203 -0.5838 -0.0773
45463SOL    HW141709   4.009  11.346   7.391  0.3310 -0.7581 -0.4589
45463SOL    HW241710   4.005  11.210   7.458  0.3108 -0.3517  0.3751
45464SOL     OW41711  11.814   1.562   0.156  0.3478 -0.1024  0.0566
45464SOL    HW141712  11.902   1.524   0.148  0.0421 -0.8688  0.2219
45464SOL    HW241713  11.820   1.647   0.112  1.5943  0.5723  1.4379
45465SOL     OW41714   0.874   4.967   6.849 -0.4461  0.5785 -0.7252
45465SOL    HW141715   0.956   5.013   6.867  0.0002 -0.2107 -0.6982
45465SOL    HW241716   0.878   4.888   6.904 -1.4116  0.7390 -0.4075
45466SOL     OW41717   0.238   1.834   2.114 -0.0902  0.3533 -0.2131
45466SOL    HW141718   0.177   1.877   2.174  0.4716  0.2447  0.4501
45466SOL    HW241719   0.184   1.770   2.067 -0.5189  0.3541  0.2657
45467SOL     OW41720   1.981   5.082   4.892 -0.1245 -0.0159  0.3690
45467SOL    HW141721   2.030   5.060   4.812  1.3114  1.3625  0.8117
45467SOL    HW241722   2.017   5.167   4.919 -1.3469  0.0533  1.8891
45468SOL     OW41723   9.682   3.068   0.054  0.0213  0.0643 -0.4227
45468SOL    HW141724   9.694   3.126  -0.022  1.2656 -0.5166 -0.7046
45468SOL    HW241725   9.621   3.115   0.110 -1.9514 -0.0562 -2.3398
45469SOL     OW41726   2.783   1.624   9.643 -0.4970 -0.2428  0.5907
45469SOL    HW141727   2.844   1.635   9.717  0.3933  1.0172 -0.2816
45469SOL    HW241728   2.697   1.638   9.681 -0.1105 -0.3396  1.5419
45470SOL     OW41729  10.746  11.509   8.871  0.3974 -0.2505  0.0401
45470SOL    HW141730  10.801  11.443   8.912 -1.3829 -1.0645  1.2362
45470SOL    HW241731  10.763  11.589   8.921  0.5676 -0.4723  0.3388
45471SOL     OW41732   4.120   3.401   9.010 -0.0136 -0.3747  0.3082
45471SOL    HW141733   4.129   3.345   9.088 -0.3115 -0.5681  0.2072
45471SOL    HW241734   4.027   3.423   9.008 -0.1738 -1.0852 -0.4791
45472SOL     OW41735   9.763   2.917   4.580  0.1139  0.1522  0.0811
45472SOL    HW141736   9.827   2.975   4.537  1.8946 -1.3290  0.5958
45472SOL    HW241737   9.816   2.861   4.637 -1.8911  0.2555  2.1866
45473SOL     OW41738   1.589   0.249  10.565  0.0969  0.1726  0.1444
45473SOL    HW141739   1.627   0.166  10.534 -0.4661  0.3534 -1.0986
45473SOL    HW241740   1.534   0.224  10.639  0.1516 -0.5230 -0.0421
45474SOL     OW41741   3.329   4.544   6.316 -0.0042 -0.1826  0.1283
45474SOL    HW141742   3.250   4.519   6.365 -0.0014  1.7733  1.2318
45474SOL    HW241743   3.308   4.523   6.225 -1.9191  0.5067  0.3594
45475SOL     OW41744   6.074   4.398   1.247  0.1363  0.0220  0.0849
45475SOL    HW141745   6.168   4.391   1.232  0.2601 -1.0395  1.2429
45475SOL    HW241746   6.063   4.384   1.341 -1.1369  0.6428  0.0515
45476SOL     OW41747   2.130   1.097   0.543  0.2245 -0.1590  0.1120
45476SOL    HW141748   2.222   1.108   0.563  0.4344 -1.9603  0.3165
45476SOL    HW241749   2.086   1.096   0.628  0.3273 -1.5384  0.1740
45477SOL     OW41750   9.574  10.966  10.078  0.9380  0.0827 -0.3487
45477SOL    HW141751   9.653  10.920  10.108  2.3573  1.7392 -1.3318
45477SOL    HW241752   9.565  11.039  10.139  0.3961  0.1357 -0.4907
45478SOL     OW41753   3.722   1.402  11.040  0.3115 -0.0532 -0.5228
45478SOL    HW141754   3.740   1.413  11.133  0.1987  2.1859 -0.7001
45478SOL    HW241755   3.636   1.359  11.037 -0.0424  0.5391  0.4369
45479SOL     OW41756   1.947   3.582   8.848  0.1044  0.2308 -0.3044
45479SOL    HW141757   2.023   3.525   8.842  0.6824  0.7643  1.3819
45479SOL    HW241758   1.941   3.605   8.941 -2.2921 -0.0097 -0.3370
45480SOL     OW41759   1.717   9.979   9.724  0.0397  0.3672  0.3938
45480SOL    HW141760   1.750  10.030   9.798  1.4082  0.4317 -0.2155
45480SOL    HW241761   1.688   9.896   9.762  1.1021  0.2453  0.9728
45481SOL     OW41762   2.025   3.175   0.865  0.1987  0.4147  0.6500
45481SOL    HW141763   2.049   3.259   0.826  1.9511 -0.2311  0.2297
45481SOL    HW241764   2.103   3.149   0.914 -0.0853 -1.2293  0.2808
45482SOL     OW41765   5.885  11.015  11.602  0.5952  0.0106 -0.1239
45482SOL    HW141766   5.887  11.036  11.509  2.0133  0.7255  0.0406
45482SOL    HW241767   5.802  11.052  11.633  0.3276  0.1758 -0.9992
45483SOL     OW41768   6.472   9.924   7.159  0.0361  0.5450  0.3852
45483SOL    HW141769   6.427   9.873   7.227  0.4355 -1.0012 -0.4816
45483SOL    HW241770   6.563   9.896   7.164  0.0935  0.5226 -0.7013
45484SOL     OW41771   7.738   1.226  10.903  0.0102 -0.5160  0.4708
45484SOL    HW141772   7.643   1.240  10.910  0.1399  0.9765 -0.3984
45484SOL    HW241773   7.748   1.179  10.819  0.0458 -0.7289  0.5930
45485SOL     OW41774   1.408  10.423   5.963  0.2903  0.1872 -0.1584
45485SOL    HW141775   1.457  10.341   5.967  1.2753  0.7476 -0.3171
45485SOL    HW241776   1.400  10.441   5.869 -2.0952 -0.9574 -0.2378
45486SOL     OW41777   7.925   1.639   3.658  0.0582  0.0447  0.1634
45486SOL    HW141778   7.943   1.733   3.654  0.7785  0.0216  1.9734
45486SOL    HW241779   7.831   1.632   3.644 -0.1218  1.1133  0.7141
45487SOL     OW41780   4.486   3.913   6.967  0.1216 -0.1748 -0.1197
45487SOL    HW141781   4.453   3.933   6.879 -0.5585  0.6138  0.3035
45487SOL    HW241782   4.408   3.911   7.022  0.5968 -0.1303  0.5636
45488SOL     OW41783   0.882   5.513   7.870 -0.1745 -0.0229  0.0085
45488SOL    HW141784   0.898   5.419   7.860  0.4855 -0.2966  2.9251
45488SOL    HW241785   0.946   5.555   7.812 -0.0905 -1.3242 -0.8796
45489SOL     OW41786   5.130   7.639   4.920 -0.3015  0.1256  0.1723
45489SOL    HW141787   5.118   7.682   5.004  1.0309 -0.7661  0.8431
45489SOL    HW241788   5.041   7.621   4.890 -0.8214  1.4813  0.8283
45490SOL     OW41789   6.483   8.067   0.141  0.2738  0.4370  0.1708
45490SOL    HW141790   6.422   8.106   0.080  1.3881  0.3171 -1.0697
45490SOL    HW241791   6.498   7.979   0.107  0.0549 -0.0337  1.2572
45491SOL     OW41792  10.937   7.015   8.563 -0.4322 -0.1143  0.0035
45491SOL    HW141793  10.978   7.089   8.608 -0.8357  0.6379 -0.8269
45491SOL    HW241794  10.884   6.972   8.630 -1.1964  1.1151  0.2077
45492SOL     OW41795   2.235   0.175  10.079 -0.2670 -0.0451  0.4005
45492SOL    HW141796   2.324   0.148  10.103 -0.7609 -0.1809  2.2386
45492SOL    HW241797   2.233   0.268  10.098 -0.2209  0.1924 -0.6825
45493SOL     OW41798   9.627   7.525   1.349 -0.1231  0.1030 -0.3547
45493SOL    HW141799   9.675   7.524   1.432 -0.4970  2.3937 -0.0333
45493SOL    HW241800   9.686   7.482   1.287  1.4262  0.9028  0.4910
45494SOL     OW41801   9.487   1.316   7.506 -0.3689 -0.2047 -0.0276
45494SOL    HW141802   9.424   1.293   7.574 -1.3928  0.2420 -0.8060
45494SOL    HW241803   9.451   1.278   7.426 -0.2762  1.0975 -0.7052
45495SOL     OW41804   9.915   3.376   0.491 -0.1295  0.1637  0.4797
45495SOL    HW141805   9.847   3.437   0.520 -0.9322 -0.3575 -0.2633
45495SOL    HW241806   9.878   3.333   0.414  1.0498 -0.1371  0.0610
45496SOL     OW41807   6.125   4.638   5.456 -0.2669  0.1312 -0.3296
45496SOL    HW141808   6.083   4.716   5.495 -1.2566  0.1234 -1.3159
45496SOL    HW241809   6.180   4.603   5.526 -0.3788  1.2964  0.3768
45497SOL     OW41810   3.288  10.440   1.627  0.0830  0.4908 -0.2264
45497SOL    HW141811   3.225  10.493   1.676  1.0860  0.6013  0.9713
45497SOL    HW241812   3.367  10.439   1.681  0.3870 -1.5172 -0.6196
45498SOL     OW41813   3.887   3.352  10.504  0.1875  0.0907  0.0052
45498SOL    HW141814   3.958   3.300  10.541  0.2148 -1.1505 -1.6467
45498SOL    HW241815   3.922   3.441  10.501  1.4608 -0.3873 -0.2073
45499SOL     OW41816   8.175  11.507  10.221  0.0321  0.4814 -0.4219
45499SOL    HW141817   8.218  11.592  10.210  0.5767  0.0789 -1.4350
45499SOL    HW241818   8.086  11.529  10.248  0.2919  1.3651 -0.2549
45500SOL     OW41819   5.064   9.604   4.706 -0.3248 -0.0264  0.3636
45500SOL    HW141820   5.020   9.572   4.785 -2.0876  1.5231  0.0732
45500SOL    HW241821   5.036   9.544   4.637  1.8920 -1.9118  0.9398
45501SOL     OW41822  11.512   9.011   7.239 -0.4327 -0.0107 -0.0354
45501SOL    HW141823  11.555   8.993   7.323 -1.8656 -0.2242  0.6755
45501SOL    HW241824  11.554   8.950   7.178 -1.0448 -1.5851  1.0539
45502SOL     OW41825   9.827  10.536   6.145  0.2899 -0.2397  0.3058
45502SOL    HW141826   9.790  10.546   6.233 -0.5948  1.2294 -0.1891
45502SOL    HW241827   9.763  10.485   6.097  0.1175  0.1161  0.1522
45503SOL     OW41828   7.251   1.400  10.104  0.4946  0.5416 -0.0119
45503SOL    HW141829   7.162   1.375  10.131  0.7851  2.0473  2.6800
45503SOL    HW241830   7.249   1.496  10.099  1.6899  0.5384 -1.1172
45504SOL     OW41831   3.564   1.190   9.006  0.6281 -0.0502 -0.3347
45504SOL    HW141832   3.614   1.117   9.043  0.6071  0.5290  0.8713
45504SOL    HW241833   3.475   1.178   9.040  0.7914  0.9319  0.4836
45505SOL     OW41834  11.011   6.406   7.409  0.1612  0.3173  0.2973
45505SOL    HW141835  11.046   6.474   7.467 -0.5911  3.4405 -2.6010
45505SOL    HW241836  10.921   6.394   7.438  0.8127 -0.8949  1.9676
45506SOL     OW41837   1.558  11.537   0.618  0.1650  0.4551  0.0820
45506SOL    HW141838   1.620  11.521   0.547 -0.0685  1.8347 -0.4816
45506SOL    HW241839   1.551  11.454   0.664  1.6433  0.0050 -0.4638
45507SOL     OW41840  11.394   8.727  10.599 -0.9782 -0.1822 -0.0379
45507SOL    HW141841  11.389   8.762  10.509  0.0566  0.5721  0.1875
45507SOL    HW241842  11.481   8.750  10.629 -0.8900 -1.4721  0.7635
45508SOL     OW41843   9.718   8.041   7.975 -0.5399 -0.3897 -0.0372
45508SOL    HW141844   9.733   7.953   8.009 -1.5131 -1.3512 -1.9357
45508SOL    HW241845   9.756   8.039   7.887  1.8511  1.9689  0.8083
45509SOL     OW41846   4.154   0.734  10.010  0.0574  0.1296  0.0132
45509SOL    HW141847   4.228   0.776  10.054  0.8853  0.0279 -1.2160
45509SOL    HW241848   4.163   0.760   9.918  0.0637 -1.9377 -0.6305
45510SOL     OW41849   5.968  11.167   6.594 -0.7499 -0.1817 -0.0323
45510SOL    HW141850   5.887  11.201   6.633  0.1237  1.7519  0.1898
45510SOL    HW241851   5.995  11.235   6.531  0.1168 -1.3113 -0.9301
45511SOL     OW41852   1.814  10.554   5.831  0.3084  0.3063  0.3238
45511SOL    HW141853   1.812  10.458   5.835 -1.4632  0.2856 -0.5036
45511SOL    HW241854   1.844  10.574   5.743 -1.1157  0.4840 -0.1358
45512SOL     OW41855   2.167   4.685   1.794 -0.5796  0.1609  0.2199
45512SOL    HW141856   2.116   4.605   1.808  0.2641 -0.1373  1.8491
45512SOL    HW241857   2.162   4.732   1.878  1.0443  0.5589  0.1288
45513SOL     OW41858   3.008   9.544   1.880  0.5856  0.3506  0.1002
45513SOL    HW141859   2.972   9.478   1.821  1.7346 -0.8436  0.6585
45513SOL    HW241860   2.941   9.556   1.947  0.7535 -1.0818  0.5743
45514SOL     OW41861   5.238   9.021   4.126 -0.6849 -0.3904  0.3338
45514SOL    HW141862   5.243   8.977   4.211  0.9595  0.7456  0.8815
45514SOL    HW241863   5.235   9.114   4.148  0.3705 -0.0520 -0.8405
45515SOL     OW41864   3.688   0.561   3.118  0.0177 -0.0156  0.1112
45515SOL    HW141865   3.668   0.503   3.192  0.2066  0.0638  0.2270
45515SOL    HW241866   3.675   0.507   3.040 -2.4545  0.5444  0.0685
45516SOL     OW41867   7.432   3.084   9.080  0.1428  0.0716  0.0990
45516SOL    HW141868   7.367   3.076   9.150  0.4315  0.9988  0.4895
45516SOL    HW241869   7.517   3.077   9.125  0.3367 -1.7074 -0.4737
45517SOL     OW41870   2.678   8.694   5.578 -0.0104  1.0762 -0.1084
45517SOL    HW141871   2.729   8.775   5.571  1.2322  0.3275  0.0612
45517SOL    HW241872   2.732   8.636   5.632 -0.0571 -0.4920 -1.6499
45518SOL     OW41873   2.404   1.429   1.847 -0.0447  0.0947 -0.8841
45518SOL    HW141874   2.365   1.454   1.931 -0.3287  0.4911 -1.1325
45518SOL    HW241875   2.486   1.386   1.871  0.8519  1.9486 -0.4741
45519SOL     OW41876  10.233   0.570   8.855 -0.1069 -0.0524  0.2365
45519SOL    HW141877  10.299   0.501   8.865  0.0159  0.1890  1.2017
45519SOL    HW241878  10.150   0.527   8.877 -0.2087 -0.2069 -0.4150
45520SOL     OW41879   4.341   9.979   0.829  0.0656 -0.0826 -0.2933
45520SOL    HW141880   4.286   9.909   0.864  0.1651 -0.7427 -1.3808
45520SOL    HW241881   4.292  10.012   0.753  0.6005  0.1605 -0.5364
45521SOL     OW41882  11.143  11.345  11.365 -0.3263 -0.3277 -0.5792
45521SOL    HW141883  11.111  11.255  11.353 -0.1847 -0.2814 -1.3978
45521SOL    HW241884  11.065  11.398  11.377 -0.4473 -0.4777 -0.7018
45522SOL     OW41885   4.651  10.090   3.803 -0.3495  0.6158 -0.5180
45522SOL    HW141886   4.645  10.071   3.897 -1.5830 -3.4852 -1.2118
45522SOL    HW241887   4.577  10.148   3.786 -2.3214 -1.3975  0.6133
45523SOL     OW41888  10.263   9.753   3.462  0.1281 -0.2335  0.0118
45523SOL    HW141889  10.337   9.694   3.479 -0.1191 -0.4986  0.1854
45523SOL    HW241890  10.248   9.797   3.545 -1.9631 -2.5299  0.9835
45524SOL     OW41891   7.237   9.032   4.602  0.0497 -0.0316 -0.2452
45524SOL    HW141892   7.253   9.112   4.551  0.2482  0.2376  0.2395
45524SOL    HW241893   7.141   9.022   4.601  0.0630 -0.1230 -0.8143
45525SOL     OW41894   7.823   7.665  10.444  0.4139  0.2282  0.3344
45525SOL    HW141895   7.811   7.724  10.519 -0.2778 -1.0626  1.2729
45525SOL    HW241896   7.743   7.676  10.393  0.6206  0.6549  0.0924
45526SOL     OW41897   4.604   0.092   7.489 -0.1419  0.4128 -0.0677
45526SOL    HW141898   4.584   0.045   7.408  0.6566  1.1338 -0.7045
45526SOL    HW241899   4.532   0.069   7.548 -0.4463 -0.5703 -0.7855
45527SOL     OW41900   1.768   2.211   4.152 -0.3280  0.5683 -0.2698
45527SOL    HW141901   1.717   2.150   4.205  0.0241 -0.7384 -1.3681
45527SOL    HW241902   1.706   2.279   4.127 -0.4800  1.2842  1.8617
45528SOL     OW41903   9.136   5.381   1.399  0.2455  0.0910  0.3907
45528SOL    HW141904   9.043   5.363   1.412  0.1391  1.4152  1.6708
45528SOL    HW241905   9.181   5.309   1.444 -0.1828  1.1648  2.6784
45529SOL     OW41906   5.900   8.250  11.746  0.0467 -0.0871  0.1469
45529SOL    HW141907   5.827   8.230  11.686 -0.1365 -0.2262  0.4147
45529SOL    HW241908   5.974   8.269  11.688 -0.0098 -0.6703 -0.1298
45530SOL     OW41909   7.629   7.036   4.501  0.3795  0.4560  0.0288
45530SOL    HW141910   7.677   7.043   4.584 -0.8942  1.2354  0.7244
45530SOL    HW241911   7.547   6.994   4.525  0.6057 -0.7132 -1.1217
45531SOL     OW41912   6.217  10.146  10.354  0.0049  0.2943 -0.3264
45531SOL    HW141913   6.143  10.098  10.392  0.1243  0.5025  0.1797
45531SOL    HW241914   6.239  10.211  10.420  0.9465 -0.0755 -0.2651
45532SOL     OW41915  10.202   1.640   1.812  0.1165 -0.5375 -0.5011
45532SOL    HW141916  10.178   1.732   1.822 -1.0052 -0.6817 -1.6138
45532SOL    HW241917  10.291   1.642   1.779  0.4842  0.1099  0.4812
45533SOL     OW41918   4.880   9.083   6.274  0.1819  0.2323  0.2129
45533SOL    HW141919   4.914   9.080   6.364 -0.5339 -0.3906  0.4719
45533SOL    HW241920   4.801   9.138   6.280  0.4718  0.7005 -0.1601
45534SOL     OW41921  10.967   8.298   0.908  0.6325  0.5536  0.3191
45534SOL    HW141922  11.020   8.240   0.963 -3.0816 -2.8736  0.6831
45534SOL    HW241923  11.022   8.314   0.831  3.2323 -0.3928  1.8582
45535SOL     OW41924   9.751   9.118   6.830  0.7414  0.1415 -0.5596
45535SOL    HW141925   9.834   9.162   6.810  0.4702 -0.4125 -3.2330
45535SOL    HW241926   9.774   9.053   6.897  1.4444  3.1321  2.3347
45536SOL     OW41927   3.451   2.306   3.257  0.5232  0.3318 -0.2974
45536SOL    HW141928   3.366   2.269   3.282  0.1082  1.2285 -0.3310
45536SOL    HW241929   3.447   2.396   3.288  0.8846  0.8069 -1.5841
45537SOL     OW41930   2.450  10.869  11.150 -0.2683 -0.5700  0.2603
45537SOL    HW141931   2.417  10.782  11.127 -1.0263 -0.0869 -0.5766
45537SOL    HW241932   2.476  10.862  11.242  0.1542 -1.8060  0.0638
45538SOL     OW41933   1.545  10.633   3.457 -0.1943 -0.4289  0.0237
45538SOL    HW141934   1.469  10.576   3.451 -0.7903  0.5080 -2.3688
45538SOL    HW241935   1.613  10.589   3.405  0.3209 -0.3967  0.6570
45539SOL     OW41936   3.880   9.201   6.125  0.4209 -0.0749 -0.0322
45539SOL    HW141937   3.793   9.220   6.161  0.9641 -0.3719  1.5087
45539SOL    HW241938   3.872   9.113   6.088 -0.3757  0.5657 -1.4518
45540SOL     OW41939  10.836   9.852   7.717  1.3026  0.3284  0.0251
45540SOL    HW141940  10.764   9.849   7.780  1.5570  1.5654  0.4062
45540SOL    HW241941  10.814   9.786   7.652  0.0876  0.3265  0.4169
45541SOL     OW41942   8.189   1.037   5.614 -0.1134  0.1940 -0.2327
45541SOL    HW141943   8.167   0.944   5.605  0.0322  0.3039 -2.2661
45541SOL    HW241944   8.105   1.080   5.627 -0.1417 -0.2300  1.1955
45542SOL     OW41945   4.441  11.619   4.863 -0.2017  0.6371 -0.7382
45542SOL    HW141946   4.368  11.680   4.872 -0.8086 -0.1506 -0.2804
45542SOL    HW241947   4.512  11.658   4.914 -0.3251  1.3473 -1.0961
45543SOL     OW41948   1.883   9.867   8.360 -0.2242 -0.2828  0.5820
45543SOL    HW141949   1.918   9.903   8.278 -1.6829 -0.9293 -0.3470
45543SOL    HW241950   1.903   9.935   8.425  1.7214 -0.1305 -0.0993
45544SOL     OW41951   0.641   4.731   2.191 -0.7077 -0.1212 -0.3653
45544SOL    HW141952   0.652   4.646   2.150  1.0271 -0.3961  0.5469
45544SOL    HW241953   0.727   4.750   2.229 -2.1156  0.1122  3.0801
45545SOL     OW41954   8.967   5.908   3.911  0.1039 -0.0716 -0.0537
45545SOL    HW141955   8.972   5.812   3.912 -0.4603 -0.1065 -0.0212
45545SOL    HW241956   8.899   5.927   3.846  0.0978  0.3007  0.0609
45546SOL     OW41957   4.498   5.421   1.786  0.7651 -0.0388  0.1280
45546SOL    HW141958   4.419   5.366   1.783  0.6131  0.2125 -0.9633
45546SOL    HW241959   4.553   5.387   1.715  1.9785 -0.6735  1.3126
45547SOL     OW41960   5.452   0.628   1.485 -0.0994 -0.1293  0.0875
45547SOL    HW141961   5.536   0.629   1.531  0.2812  2.4613 -0.5001
45547SOL    HW241962   5.389   0.599   1.551  0.8867  0.4567  1.3504
45548SOL     OW41963   2.010   7.890  11.311  0.6968 -0.2950 -0.0779
45548SOL    HW141964   1.978   7.847  11.389  2.0281 -1.5592 -0.1892
45548SOL    HW241965   1.933   7.934  11.274 -0.0709 -0.1696  1.5860
45549SOL     OW41966  10.357   0.095   3.639 -0.0519  0.2614  0.1418
45549SOL    HW141967  10.295   0.025   3.617  0.5503  0.0527 -1.0016
45549SOL    HW241968  10.391   0.124   3.554  2.6167 -0.7551  0.7571
45550SOL     OW41969   3.490   5.341   9.260 -0.3561  0.4675 -0.2297
45550SOL    HW141970   3.560   5.319   9.199 -0.4011 -0.8800  0.1778
45550SOL    HW241971   3.448   5.418   9.222  1.3646  1.3276 -0.4566
45551SOL     OW41972   4.495   2.438  10.054 -0.4977  0.2450 -0.3307
45551SOL    HW141973   4.558   2.502  10.086 -0.0412 -0.4013  0.0844
45551SOL    HW241974   4.504   2.363  10.113 -0.3227 -0.5911 -1.3815
45552SOL     OW41975   8.000   8.362   4.443  0.5038 -0.2739  0.2439
45552SOL    HW141976   7.936   8.313   4.391  0.3237 -0.5528  0.7137
45552SOL    HW241977   7.947   8.424   4.493  0.8413  1.3884 -1.3588
45553SOL     OW41978   0.342   9.908   1.071 -0.5785 -0.2420  0.3895
45553SOL    HW141979   0.312   9.881   1.158 -1.6321 -1.9037 -0.4371
45553SOL    HW241980   0.319   9.834   1.014  0.6855  0.5278 -1.1901
45554SOL     OW41981  10.100   0.247   5.373  0.4644  0.1590 -0.0357
45554SOL    HW141982  10.073   0.333   5.403  0.3281 -0.7575  2.7742
45554SOL    HW241983  10.183   0.231   5.419  0.9455 -0.8546 -1.2087
45555SOL     OW41984   8.009   7.764  10.973  0.3324  0.3671 -0.3019
45555SOL    HW141985   8.063   7.689  10.947  1.0972  0.4193  1.0063
45555SOL    HW241986   8.046   7.838  10.927 -0.4641 -0.0390 -1.6528
45556SOL     OW41987  10.587   3.379  10.032 -0.5178 -0.5102 -0.0669
45556SOL    HW141988  10.669   3.337  10.005 -0.8058 -0.7749 -0.5436
45556SOL    HW241989  10.590   3.466   9.992  0.2973  0.1324  1.3132
45557SOL     OW41990   3.000   5.161   1.612  0.7171  0.0054 -0.1666
45557SOL    HW141991   3.058   5.210   1.553  1.4821 -2.2768 -1.4532
45557SOL    HW241992   3.058   5.130   1.682  0.1326  1.3173  0.9346
45558SOL     OW41993   4.832  10.510   3.907  0.2674 -0.3644 -0.2669
45558SOL    HW141994   4.765  10.507   3.839  1.1346 -1.1399 -1.1334
45558SOL    HW241995   4.911  10.475   3.864  1.4864  1.3693  0.4394
45559SOL     OW41996   8.019  10.670   3.049 -0.4327 -0.0103  0.2136
45559SOL    HW141997   7.984  10.622   3.124 -1.0347  1.5957  1.0140
45559SOL    HW241998   8.029  10.760   3.081  2.6975  0.0206 -0.5536
45560SOL     OW41999   6.450   6.397   3.417 -0.0411 -0.3890  0.0992
45560SOL    HW142000   6.532   6.358   3.386  1.3396  0.6659  2.1352
45560SOL    HW242001   6.428   6.463   3.351  2.2677  1.1504  0.7398
45561SOL     OW42002   7.792  10.384   6.130  0.3070  0.6489 -0.5006
45561SOL    HW142003   7.709  10.337   6.142 -0.2913  2.0208  1.3308
45561SOL    HW242004   7.797  10.399   6.036 -1.3415  0.1904 -0.7033
45562SOL     OW42005   3.733   9.972   6.770  0.3138 -0.3993  0.4543
45562SOL    HW142006   3.663  10.006   6.826 -0.2792 -0.1539 -0.4089
45562SOL    HW242007   3.727   9.877   6.779  1.1296 -0.3347  1.8733
45563SOL     OW42008   4.226   2.898   6.542  0.2966 -0.4185  0.2888
45563SOL    HW142009   4.319   2.922   6.544  0.4225 -0.6898 -1.0903
45563SOL    HW242010   4.193   2.936   6.460 -0.8371 -0.2528  0.8071
45564SOL     OW42011   5.035   3.824   3.908  0.2468  0.0459  0.5300
45564SOL    HW142012   5.072   3.851   3.992  0.7352  1.6166 -0.1508
45564SOL    HW242013   5.082   3.876   3.843 -2.4551  1.4598 -0.4716
45565SOL     OW42014   4.790   0.252   2.230 -0.5634 -0.2205  0.3493
45565SOL    HW142015   4.701   0.216   2.235 -0.7069  0.2244  1.1178
45565SOL    HW242016   4.778   0.347   2.228 -0.0848 -0.1185  1.4265
45566SOL     OW42017   5.797   8.675   0.670  0.6021  0.3417  0.0362
45566SOL    HW142018   5.733   8.746   0.675 -0.7372 -0.7612 -0.8041
45566SOL    HW242019   5.863   8.697   0.736 -0.4352  1.7174  0.6495
45567SOL     OW42020   4.513   5.962  11.375 -0.0146 -0.3681  0.1978
45567SOL    HW142021   4.474   5.915  11.449  1.6939 -2.4200 -0.1246
45567SOL    HW242022   4.444   6.023  11.348 -1.4291 -0.9345  2.1997
45568SOL     OW42023   6.489   5.773   8.536 -0.2785  0.7868 -0.0996
45568SOL    HW142024   6.495   5.816   8.451  1.0781  1.3651  0.2624
45568SOL    HW242025   6.577   5.778   8.572 -0.4108 -1.0095  0.5975
45569SOL     OW42026   1.011  10.192   6.070 -0.3833 -0.2411  0.9949
45569SOL    HW142027   1.054  10.273   6.099 -0.3928 -0.1485  0.7522
45569SOL    HW242028   1.041  10.126   6.133  1.5099 -0.5634 -0.1749
45570SOL     OW42029   7.044   7.151   8.229  0.2541  0.1273 -0.2536
45570SOL    HW142030   6.971   7.091   8.247  0.6146 -0.2229  0.0666
45570SOL    HW242031   7.102   7.140   8.304 -0.1531  1.6161  0.2980
45571SOL     OW42032   1.504   0.084   4.926  0.9513 -0.2967  0.1370
45571SOL    HW142033   1.413   0.058   4.918  0.3828  1.5087  0.4056
45571SOL    HW242034   1.526   0.123   4.842  0.8300  1.1040  0.7240
45572SOL     OW42035   5.162  10.167   2.691  0.0724  0.3244  0.2056
45572SOL    HW142036   5.069  10.176   2.672  0.4456  2.1230 -0.9348
45572SOL    HW242037   5.165  10.128   2.778 -1.7219 -1.4344 -0.4418
45573SOL     OW42038   3.980   5.609   0.803  0.2918 -0.7699  0.2303
45573SOL    HW142039   4.019   5.622   0.716 -1.1180 -0.9383 -0.4712
45573SOL    HW242040   4.044   5.557   0.851  1.6930  0.4467 -0.2409
45574SOL     OW42041   4.351   4.126   2.758 -0.0076 -0.0175  0.2940
45574SOL    HW142042   4.358   4.211   2.714  0.7831 -0.4759 -0.4932
45574SOL    HW242043   4.332   4.148   2.849 -0.9674  0.9727 -0.1163
45575SOL     OW42044   6.904   6.357  10.145 -0.9268  0.4216  0.1852
45575SOL    HW142045   6.874   6.448  10.138 -1.5458  0.2312  0.3180
45575SOL    HW242046   6.974   6.361  10.211  0.9768  1.2452 -1.7725
45576SOL     OW42047   1.989   4.055  10.716  0.1990  0.0740 -0.3868
45576SOL    HW142048   1.994   3.987  10.783 -1.0937  0.0164 -0.3275
45576SOL    HW242049   2.019   4.134  10.761 -0.1147 -0.0814  0.1112
45577SOL     OW42050   3.137   2.180   9.270  0.0340  0.0596 -0.5194
45577SOL    HW142051   3.129   2.158   9.178  1.5265  0.1241 -0.6848
45577SOL    HW242052   3.214   2.133   9.300 -0.3533  0.1332  0.6793
45578SOL     OW42053  11.769   8.666   1.909  0.5418  0.2713 -0.0364
45578SOL    HW142054  11.760   8.733   1.841 -0.5318 -0.5463 -0.7347
45578SOL    HW242055  11.684   8.665   1.953 -0.1806 -1.9667 -1.3469
45579SOL     OW42056   6.337   1.210   2.454 -0.2662 -0.0881  0.2543
45579SOL    HW142057   6.290   1.230   2.534  0.2226  0.3137  0.4493
45579SOL    HW242058   6.352   1.296   2.413 -0.0829 -0.2475 -0.0188
45580SOL     OW42059  10.984   2.618   0.557 -0.2536 -0.0673 -0.5475
45580SOL    HW142060  10.889   2.624   0.543 -0.6371 -1.3005  1.0772
45580SOL    HW242061  10.992   2.575   0.643  1.7833 -0.3194 -0.8168
45581SOL     OW42062   4.304   9.994   8.743  0.0138 -0.3195 -0.1640
45581SOL    HW142063   4.250  10.024   8.670  1.8056 -0.4272 -1.6017
45581SOL    HW242064   4.241   9.968   8.810 -1.6683  1.9279 -0.7682
45582SOL     OW42065   2.657  10.725   1.353  0.4294  0.4914 -0.4152
45582SOL    HW142066   2.587  10.790   1.364 -3.1939 -2.9751 -0.9316
45582SOL    HW242067   2.649  10.696   1.263  1.6865 -0.9161 -0.1157
45583SOL     OW42068   2.769   9.505  10.451  0.9534  0.1489  0.0846
45583SOL    HW142069   2.697   9.569  10.458 -0.0033 -0.8823 -0.0289
45583SOL    HW242070   2.830   9.529  10.520  2.0100  2.8774 -1.6396
45584SOL     OW42071  10.381   4.874   9.838  0.3219  0.3526  0.3533
45584SOL    HW142072  10.313   4.878   9.905 -1.5835  0.7800 -1.4881
45584SOL    HW242073  10.412   4.964   9.829  1.5078  0.0920  1.4839
45585SOL     OW42074   6.837   6.234   3.131 -0.1408 -0.2605 -0.4673
45585SOL    HW142075   6.803   6.145   3.137 -0.8586  0.0894  1.2520
45585SOL    HW242076   6.788   6.275   3.060 -2.1487 -0.2980  0.8248
45586SOL     OW42077   2.696   6.052   5.568  0.1200  0.5930  0.2548
45586SOL    HW142078   2.720   5.977   5.623  1.3714  1.3064  0.7027
45586SOL    HW242079   2.602   6.064   5.586  0.3249  0.3213  1.6492
45587SOL     OW42080   3.547   8.539   5.976 -0.1712  0.1080  0.4764
45587SOL    HW142081   3.627   8.580   6.010 -0.0704  0.3390 -0.0369
45587SOL    HW242082   3.477   8.599   6.000 -0.3499 -0.6142  1.8919
45588SOL     OW42083   0.614  10.987   4.313  0.6219 -0.1576  0.2077
45588SOL    HW142084   0.615  11.075   4.275 -0.0711  0.2319  1.0411
45588SOL    HW242085   0.654  10.932   4.247 -1.6811  0.2785 -1.6715
45589SOL     OW42086   9.913   0.716   9.442  0.4259 -0.1660  0.6125
45589SOL    HW142087   9.960   0.744   9.520  1.6569  0.2608 -0.2572
45589SOL    HW242088   9.876   0.797   9.406  0.3415 -0.2794  0.4384
45590SOL     OW42089   4.751   7.393   6.199  0.2286 -0.2562  0.4927
45590SOL    HW142090   4.808   7.441   6.139 -0.5796 -0.7983 -0.7516
45590SOL    HW242091   4.760   7.439   6.283  1.3731  0.5289 -0.0387
45591SOL     OW42092   1.926   2.434   0.421 -0.0971  0.0007 -0.7387
45591SOL    HW142093   1.844   2.467   0.384  0.0415  0.3844 -0.7007
45591SOL    HW242094   1.937   2.482   0.503 -0.5068 -0.9798 -0.0840
45592SOL     OW42095   1.704   6.475   0.028 -0.3013  0.4418  0.0771
45592SOL    HW142096   1.670   6.476  -0.061 -1.4238 -0.2841  0.4720
45592SOL    HW242097   1.782   6.421   0.025  0.4936  1.5904 -0.7278
45593SOL     OW42098   2.697   3.887   0.287  0.4465 -0.4965  0.4373
45593SOL    HW142099   2.775   3.869   0.234  0.8983  0.8286  0.5994
45593SOL    HW242100   2.633   3.821   0.260  0.2246  0.7922 -2.6744
45594SOL     OW42101  11.577  11.266   6.309 -0.0349  0.2439 -1.3708
45594SOL    HW142102  11.537  11.180   6.309  1.1706 -0.3614  0.3516
45594SOL    HW242103  11.539  11.310   6.233 -0.5567 -1.8394 -2.3833
45595SOL     OW42104   7.960   4.487   0.121  0.0148  0.5290  0.2169
45595SOL    HW142105   7.886   4.428   0.135  2.3066 -2.4133  0.9984
45595SOL    HW242106   7.944   4.526   0.035 -0.6491 -3.0323 -1.4722
45596SOL     OW42107   5.033  11.387   5.281  0.1262 -0.0713  0.0952
45596SOL    HW142108   4.985  11.431   5.351  0.6290 -0.1633  0.5088
45596SOL    HW242109   4.992  11.301   5.274  0.6072 -0.3667  0.8532
45597SOL     OW42110  10.676   5.557  10.691 -0.1855 -0.3773 -0.1113
45597SOL    HW142111  10.656   5.560  10.784  0.7739 -0.7707  0.1110
45597SOL    HW242112  10.715   5.642  10.672 -2.5586  0.6892 -0.7033
45598SOL     OW42113   3.769   2.962   8.729  0.3663 -0.9475 -0.1768
45598SOL    HW142114   3.754   2.988   8.638 -0.4292 -2.1739 -0.4227
45598SOL    HW242115   3.798   2.870   8.723  1.2029 -0.7659  0.7627
45599SOL     OW42116   4.848   4.738   4.528  0.2266  0.8930 -0.0430
45599SOL    HW142117   4.780   4.799   4.556  1.1919  2.7188 -1.4515
45599SOL    HW242118   4.930   4.783   4.549  0.9740 -0.2011 -0.5637
45600SOL     OW42119   7.257  10.945   8.015  0.4404 -0.3136 -0.0394
45600SOL    HW142120   7.227  10.905   7.933  2.6489 -1.1775 -0.4967
45600SOL    HW242121   7.283  10.871   8.070 -1.1826  0.2462  1.5772
45601SOL     OW42122   1.656   7.316   6.257 -0.1535  0.6656 -0.1687
45601SOL    HW142123   1.650   7.327   6.352 -1.6018  0.7865 -0.2586
45601SOL    HW242124   1.740   7.272   6.243  0.7847  1.9650  1.0481
45602SOL     OW42125   7.860   3.163   9.417  0.4840 -0.0835 -0.4769
45602SOL    HW142126   7.920   3.088   9.413  0.4422 -0.2106  0.7264
45602SOL    HW242127   7.800   3.141   9.489  1.4478  1.7985  0.9858
45603SOL     OW42128   1.963   7.746   2.949 -0.0531 -0.1289  0.2731
45603SOL    HW142129   1.917   7.725   3.030 -1.1296  2.4552  0.4247
45603SOL    HW242130   1.934   7.678   2.887 -3.0982  0.6076  0.7367
45604SOL     OW42131   5.918  11.215   8.930  0.7403 -0.5489 -0.4750
45604SOL    HW142132   6.013  11.215   8.943  0.9998 -0.6385 -2.1417
45604SOL    HW242133   5.896  11.305   8.908  0.5151 -0.6204 -0.5475
45605SOL     OW42134  10.308   3.139   0.250  0.2801 -0.0104 -0.4381
45605SOL    HW142135  10.295   3.045   0.266  1.0136 -0.2064 -0.9771
45605SOL    HW242136  10.219   3.173   0.238 -0.3920  0.0672  3.3857
45606SOL     OW42137   5.393   9.418   7.907 -0.0513  0.0085 -0.1946
45606SOL    HW142138   5.349   9.494   7.944  3.5750  2.5464 -0.6017
45606SOL    HW242139   5.337   9.392   7.833 -3.1882 -0.0885  2.0318
45607SOL     OW42140   1.581   1.088   3.679 -0.9988  0.1679 -0.0867
45607SOL    HW142141   1.653   1.111   3.621 -0.4288  1.9277  1.2545
45607SOL    HW242142   1.549   1.171   3.714 -2.5113 -0.6998  0.7395
45608SOL     OW42143   5.977   2.639   9.192 -0.5660 -0.0300  0.7050
45608SOL    HW142144   5.957   2.669   9.280 -0.9162  0.3211  0.5103
45608SOL    HW242145   6.025   2.712   9.152 -0.9423  0.0557  0.4055
45609SOL     OW42146  10.731  11.701  10.570 -0.5012 -0.4561  0.5483
45609SOL    HW142147  10.792  11.774  10.583  1.0074 -1.7272  0.8553
45609SOL    HW242148  10.696  11.683  10.657 -1.0295  0.0252  0.4383
45610SOL     OW42149   7.646   6.779   8.463 -0.5507  0.3770 -0.2482
45610SOL    HW142150   7.633   6.697   8.415 -0.9058  0.1044  0.3178
45610SOL    HW242151   7.730   6.812   8.430 -0.2760 -0.3438 -0.2927
45611SOL     OW42152   6.518  10.422   2.558  0.0136  0.5841  0.1018
45611SOL    HW142153   6.431  10.463   2.565  0.2529  1.1046  0.0250
45611SOL    HW242154   6.574  10.491   2.523  0.0930 -0.2664 -1.5344
45612SOL     OW42155   7.614  10.221   6.423 -0.3283  0.1446  0.2437
45612SOL    HW142156   7.524  10.191   6.424 -0.2825 -0.3227 -2.6016
45612SOL    HW242157   7.634  10.236   6.331  2.7333 -0.4706  0.7028
45613SOL     OW42158  10.423   7.051   5.266 -0.2487 -0.6109 -0.7750
45613SOL    HW142159  10.334   7.060   5.299  0.0811  1.1508 -0.2693
45613SOL    HW242160  10.429   7.112   5.193  0.4334 -1.0206 -1.0772
45614SOL     OW42161   6.108   9.634   0.793  0.2828 -0.1934  0.6412
45614SOL    HW142162   6.013   9.623   0.787  0.2904 -0.3089  0.7438
45614SOL    HW242163   6.144   9.553   0.759  0.3419 -0.2582  0.8584
45615SOL     OW42164   0.983   8.458   6.508  0.0102  0.3006 -0.1570
45615SOL    HW142165   0.943   8.400   6.572 -1.0351  0.2401 -0.8408
45615SOL    HW242166   1.075   8.463   6.534  0.0660 -1.4108  0.0878
45616SOL     OW42167   2.344   4.373   9.951  0.1178 -0.3989 -0.4781
45616SOL    HW142168   2.259   4.417   9.944  1.3096  1.9652 -1.1962
45616SOL    HW242169   2.358   4.364  10.046 -0.0068  1.2225 -0.2694
45617SOL     OW42170   8.375  10.700   4.867 -0.2744  0.3978 -0.7722
45617SOL    HW142171   8.325  10.746   4.935 -0.9699  0.7703 -1.5166
45617SOL    HW242172   8.442  10.763   4.840  0.5275 -0.0524  0.1317
45618SOL     OW42173  11.783  10.594   7.947  0.0723 -0.1853  0.0913
45618SOL    HW142174  11.724  10.520   7.933 -0.6604  0.4691 -0.3694
45618SOL    HW242175  11.733  10.654   8.002 -0.0816  0.8103 -1.0853
45619SOL     OW42176   3.906   5.239   0.243  0.5077 -0.8812 -0.8456
45619SOL    HW142177   3.843   5.221   0.173  0.9452 -3.1697 -0.7334
45619SOL    HW242178   3.982   5.276   0.197  0.1513 -0.7668 -1.3583
45620SOL     OW42179   0.570  10.358   7.605 -0.5977  0.2850 -0.5657
45620SOL    HW142180   0.487  10.333   7.564 -1.5406  0.9712  0.8085
45620SOL    HW242181   0.597  10.280   7.655 -1.9216  0.8990  1.2283
45621SOL     OW42182   9.959   5.723  10.262  0.3214  0.2155 -0.1563
45621SOL    HW142183   9.985   5.638  10.228  1.4032  0.8476 -0.9961
45621SOL    HW242184   9.905   5.761  10.192 -1.1695 -0.2408  0.7120
45622SOL     OW42185   7.065   5.190   9.136 -0.1472  0.1410 -0.6334
45622SOL    HW142186   7.058   5.123   9.068 -1.4644 -1.0775  0.6243
45622SOL    HW242187   7.094   5.269   9.090  4.1164 -1.8133 -1.8072
45623SOL     OW42188   5.845   5.609  11.051 -0.1697 -0.3630 -0.5316
45623SOL    HW142189   5.816   5.529  11.095  1.1494 -0.2538  0.6197
45623SOL    HW242190   5.912   5.645  11.109  0.3168  0.7977 -1.7572
45624SOL     OW42191   2.558   4.712   2.938 -0.2515  0.4958  0.7630
45624SOL    HW142192   2.502   4.750   3.006  0.2718 -1.9237  2.6828
45624SOL    HW242193   2.497   4.664   2.881 -0.3674 -0.4684  1.6779
45625SOL     OW42194   6.486   3.217   3.175  0.1451  0.6263  0.0223
45625SOL    HW142195   6.464   3.154   3.106  1.6402 -0.0602  0.1511
45625SOL    HW242196   6.483   3.167   3.256  1.3264  0.7212  0.1284
45626SOL     OW42197   1.259   2.194  10.717 -0.3149 -0.2168 -0.5564
45626SOL    HW142198   1.354   2.188  10.701 -0.5401 -1.4106 -1.6631
45626SOL    HW242199   1.248   2.275  10.767  1.2398  0.1936 -0.8142
45627SOL     OW42200   7.008   4.357  10.872 -0.1512  0.5194  0.1526
45627SOL    HW142201   7.073   4.398  10.929  0.8024 -0.1080 -0.4507
45627SOL    HW242202   7.059   4.325  10.798 -1.3487  1.2616 -1.0395
45628SOL     OW42203   5.831   4.853   6.159 -0.2066 -0.1901  0.0317
45628SOL    HW142204   5.848   4.776   6.103 -0.5944  0.0517 -0.4241
45628SOL    HW242205   5.736   4.861   6.160 -0.1311  1.7110 -1.9107
45629SOL     OW42206   5.172   1.935   6.164  1.3323  0.5129  0.0824
45629SOL    HW142207   5.227   2.010   6.144  0.2336  0.8385 -1.9378
45629SOL    HW242208   5.211   1.862   6.116  1.0447  0.3311  0.1234
45630SOL     OW42209   9.327   5.773   6.421 -0.1190  0.2240  0.6951
45630SOL    HW142210   9.351   5.681   6.410 -1.7542 -0.0013 -1.7615
45630SOL    HW242211   9.410   5.820   6.415  0.4645 -0.9215 -1.0322
45631SOL     OW42212   3.246  11.508   5.177  0.3821  0.4864 -0.5656
45631SOL    HW142213   3.288  11.473   5.099  1.2033 -0.1213  0.1202
45631SOL    HW242214   3.159  11.469   5.177  0.9365 -0.8241 -0.3474
45632SOL     OW42215   5.343   5.422   5.810  0.5367 -0.2932 -0.0247
45632SOL    HW142216   5.352   5.422   5.715 -0.4460  1.6703 -0.1676
45632SOL    HW242217   5.251   5.447   5.825  0.2081 -2.1120  1.4499
45633SOL     OW42218   7.525   0.575   1.122  0.2095 -0.3291  0.3820
45633SOL    HW142219   7.476   0.511   1.070  0.5521 -0.5315  0.3061
45633SOL    HW242220   7.568   0.523   1.190 -0.0619 -0.0915  0.7335
45634SOL     OW42221   3.329   9.782   2.212 -0.1212  0.5247  0.3702
45634SOL    HW142222   3.237   9.808   2.214 -0.0301  0.9781 -0.8361
45634SOL    HW242223   3.338   9.719   2.284 -0.9928  1.6839  1.5332
45635SOL     OW42224   5.689   3.417   8.776  0.7369  0.1205 -0.4237
45635SOL    HW142225   5.618   3.376   8.827  0.2587  1.4451  0.0347
45635SOL    HW242226   5.763   3.419   8.837 -0.2233  2.9338  0.8129
45636SOL     OW42227   3.563   1.263   3.361  0.0230 -0.1721  0.1041
45636SOL    HW142228   3.606   1.200   3.303  0.9520 -0.9672  1.5865
45636SOL    HW242229   3.514   1.209   3.423 -0.5166  0.6385  0.4023
45637SOL     OW42230   5.635   7.438   1.465 -0.0158  0.6512 -0.1231
45637SOL    HW142231   5.566   7.493   1.500  0.4550  1.0389  0.2176
45637SOL    HW242232   5.644   7.367   1.529 -1.6620 -0.7011 -1.3169
45638SOL     OW42233   3.685   3.599   8.859 -0.2797  0.4304 -0.3054
45638SOL    HW142234   3.663   3.633   8.773  0.1708  0.5119 -0.3871
45638SOL    HW242235   3.718   3.510   8.842 -1.0356  0.1024 -0.1342
45639SOL     OW42236   0.052   5.704  11.661  0.1690  0.1919 -0.6031
45639SOL    HW142237   0.022   5.794  11.651 -0.7638  0.0360  0.5444
45639SOL    HW242238   0.005   5.655  11.593 -1.2743  0.1709  0.3614
45640SOL     OW42239   4.341   9.138   5.621 -0.2200 -0.6047  0.4283
45640SOL    HW142240   4.377   9.087   5.549  1.0256 -1.1538  1.4084
45640SOL    HW242241   4.364   9.229   5.601  1.1069 -0.8750  0.6848
45641SOL     OW42242   0.818   4.649   8.280  0.2791  0.2907 -0.1780
45641SOL    HW142243   0.907   4.620   8.262  0.1126 -0.2049 -0.2037
45641SOL    HW242244   0.808   4.729   8.228  0.4935 -0.0018 -0.6735
45642SOL     OW42245   5.238   3.426   6.757  0.4137  0.2980  0.2402
45642SOL    HW142246   5.204   3.428   6.667  0.5158  1.2995  0.2161
45642SOL    HW242247   5.330   3.451   6.749  0.4002  0.4815  0.6295
45643SOL     OW42248   6.419   8.080   0.432 -0.1746  0.4062 -0.6125
45643SOL    HW142249   6.482   8.071   0.360  0.0418  2.6376 -0.7818
45643SOL    HW242250   6.353   8.013   0.415  2.4869 -2.5776  0.0193
45644SOL     OW42251   2.801   6.126  11.139 -0.4141 -0.2793 -0.7829
45644SOL    HW142252   2.819   6.178  11.061  0.4436  1.6255  0.6288
45644SOL    HW242253   2.711   6.149  11.163 -0.7096 -0.9323 -1.2268
45645SOL     OW42254   3.383   8.338   8.423 -0.2779 -0.4602  0.4826
45645SOL    HW142255   3.406   8.426   8.392 -0.4123 -1.6089 -3.5263
45645SOL    HW242256   3.315   8.352   8.489 -1.1449  2.4414 -0.8685
45646SOL     OW42257   8.620   3.052   6.275 -0.1160  0.4403  0.1573
45646SOL    HW142258   8.708   3.044   6.238 -0.0765  0.4140  0.2563
45646SOL    HW242259   8.622   2.997   6.353 -0.4148 -0.0798 -0.1919
45647SOL     OW42260   0.859  11.453   0.160  0.2412  0.2324 -0.4216
45647SOL    HW142261   0.902  11.420   0.081 -0.2797  1.4372 -1.2302
45647SOL    HW242262   0.846  11.546   0.144 -1.2375  0.2116  0.4563
45648SOL     OW42263   4.641   3.395   4.385 -0.6157 -0.3436  0.4481
45648SOL    HW142264   4.592   3.345   4.320  0.6095  0.5323 -1.2231
45648SOL    HW242265   4.707   3.442   4.334  0.2623  0.5449  2.3193
45649SOL     OW42266   0.120   5.967   3.716  0.6952 -0.1146 -0.5181
45649SOL    HW142267   0.180   5.898   3.688  0.8731 -0.0071 -0.4031
45649SOL    HW242268   0.129   5.970   3.811  0.5230 -0.0842 -0.5028
45650SOL     OW42269   7.940   4.559  10.225  0.6290 -0.3755  0.0293
45650SOL    HW142270   7.848   4.586  10.223  0.5973 -0.4703  0.1399
45650SOL    HW242271   7.956   4.521  10.139  0.4694 -0.6578  0.1200
45651SOL     OW42272   0.590   3.499   9.930  0.5670  0.4368 -0.0337
45651SOL    HW142273   0.593   3.487  10.025 -2.4597  0.7837  0.2190
45651SOL    HW242274   0.647   3.574   9.913  1.0010  0.5040  1.5528
45652SOL     OW42275   0.803   0.334   0.497  0.4188  0.2596 -0.2865
45652SOL    HW142276   0.861   0.267   0.534  0.3509  0.2439 -0.2099
45652SOL    HW242277   0.791   0.307   0.406  1.0823  0.6341 -0.4926
45653SOL     OW42278   6.905   2.812   4.547  0.5475  0.3869  0.7763
45653SOL    HW142279   6.835   2.783   4.606 -0.5628  1.4013  0.0016
45653SOL    HW242280   6.979   2.831   4.605 -0.1768  0.3433  1.7325
45654SOL     OW42281   6.789   8.572   5.877 -0.5651 -0.0032 -0.0564
45654SOL    HW142282   6.791   8.476   5.872  1.8505  0.0133 -1.2633
45654SOL    HW242283   6.880   8.598   5.859 -1.1618  2.5309  0.2381
45655SOL     OW42284   7.694   8.270   7.404 -0.2607  1.1796 -0.1652
45655SOL    HW142285   7.634   8.199   7.425 -0.1630  0.6735 -1.5578
45655SOL    HW242286   7.714   8.310   7.489  0.2835 -0.9223  0.7624
45656SOL     OW42287  11.218   0.758   8.035  0.5578 -0.5523 -0.3138
45656SOL    HW142288  11.166   0.678   8.034  1.1108 -0.9101 -1.2268
45656SOL    HW242289  11.283   0.744   8.104  0.2295 -0.6064 -0.0122
45657SOL     OW42290   9.688   4.480   2.689 -0.5071 -0.0158  0.7206
45657SOL    HW142291   9.640   4.545   2.638  0.7471  0.3760 -0.0184
45657SOL    HW242292   9.634   4.464   2.765 -2.2215 -0.2628 -0.4968
45658SOL     OW42293   3.254   8.429   6.177  0.1945 -0.1721 -0.2342
45658SOL    HW142294   3.232   8.520   6.156  1.9591  0.2269 -0.5453
45658SOL    HW242295   3.272   8.388   6.093  1.8207 -0.0949  0.0302
45659SOL     OW42296   4.168   5.361  10.200  0.1598  0.3553 -0.0157
45659SOL    HW142297   4.109   5.423  10.156 -0.2662 -0.0600 -0.0325
45659SOL    HW242298   4.175   5.394  10.289 -3.3763 -1.7909  1.2292
45660SOL     OW42299   3.351  10.709   0.322  0.3687 -0.2805 -0.2868
45660SOL    HW142300   3.341  10.738   0.413  0.8866 -2.0930  0.3931
45660SOL    HW242301   3.298  10.771   0.272 -1.8690 -0.5994  1.4994
45661SOL     OW42302   7.446   6.583  11.332  0.0931 -0.4260 -0.3355
45661SOL    HW142303   7.516   6.601  11.270  0.5985 -0.8497  0.1014
45661SOL    HW242304   7.389   6.660  11.328  0.1045 -0.4622 -1.3392
45662SOL     OW42305   7.014   5.608   7.430  0.1505  0.0022 -0.0879
45662SOL    HW142306   6.973   5.653   7.505 -2.0063  0.2169 -1.3073
45662SOL    HW242307   6.998   5.667   7.356  2.7741  0.0816 -0.6768
45663SOL     OW42308   0.247   5.994   1.212 -0.2955 -0.1703 -0.0720
45663SOL    HW142309   0.293   5.939   1.275  1.0703 -0.2913 -1.1174
45663SOL    HW242310   0.204   5.932   1.153 -3.5523 -0.1025  1.9584
45664SOL     OW42311   3.048   2.897   3.115  0.2194 -0.0711 -0.5776
45664SOL    HW142312   2.974   2.948   3.147 -0.5531 -0.6880 -1.3510
45664SOL    HW242313   3.125   2.944   3.148 -0.4479 -1.5314  3.6718
45665SOL     OW42314   7.918   6.822   3.222 -0.6255  0.3304 -0.3526
45665SOL    HW142315   7.855   6.843   3.153  0.1457  0.9636 -0.8712
45665SOL    HW242316   7.981   6.893   3.220 -1.3812  1.1685  1.9967
45666SOL     OW42317   9.354   2.739   9.282  0.2302 -0.1061 -0.5558
45666SOL    HW142318   9.311   2.675   9.226 -1.0653  0.8981 -0.7801
45666SOL    HW242319   9.430   2.694   9.318 -0.9100 -1.9059 -0.3018
45667SOL     OW42320   6.276   5.151   3.609  0.0027  0.2456  0.0359
45667SOL    HW142321   6.185   5.154   3.579 -0.5306  0.4045  1.5739
45667SOL    HW242322   6.325   5.196   3.540 -1.1168  0.4150 -0.6838
45668SOL     OW42323   4.420   9.098   3.566 -0.3077  0.0943 -0.3603
45668SOL    HW142324   4.419   9.002   3.565  0.4495  0.0790 -0.1135
45668SOL    HW242325   4.409   9.121   3.658  1.5849  0.1941 -0.1289
45669SOL     OW42326  10.143   4.631  11.347  0.0700  0.4491  0.0694
45669SOL    HW142327  10.162   4.712  11.395  1.6715 -0.5075  1.1469
45669SOL    HW242328  10.052   4.611  11.369  0.0249  1.3355  0.7366
45670SOL     OW42329   7.685  10.974   0.906  0.4885  0.6687  0.1984
45670SOL    HW142330   7.763  11.004   0.952 -0.2448  0.1034  1.8739
45670SOL    HW242331   7.706  10.884   0.881  0.2030  0.3500  1.0839
45671SOL     OW42332   4.907   8.419   4.073 -0.9443 -0.5749 -0.3036
45671SOL    HW142333   4.984   8.444   4.125 -1.7551 -0.2645  0.7891
45671SOL    HW242334   4.894   8.326   4.092  0.2032 -1.1126 -1.9109
45672SOL     OW42335   9.407   4.348   6.029 -0.6069 -0.1987  0.2172
45672SOL    HW142336   9.405   4.435   5.989 -2.7235  0.4689  1.5660
45672SOL    HW242337   9.319   4.312   6.013 -1.1270 -0.4241  2.9659
45673SOL     OW42338   3.561   5.245   9.524 -1.2409  0.0995  0.4556
45673SOL    HW142339   3.552   5.261   9.430  1.2488 -1.0301 -0.0651
45673SOL    HW242340   3.488   5.292   9.564 -2.8906 -0.1075 -2.0950
45674SOL     OW42341   7.532   4.179   8.051  0.0642  0.4547  0.3705
45674SOL    HW142342   7.446   4.185   8.010 -1.2321  0.2348  2.8556
45674SOL    HW242343   7.553   4.085   8.050  1.3478  0.6862 -2.1189
45675SOL     OW42344  10.122   5.699   9.222  0.4700  0.0217 -0.2245
45675SOL    HW142345  10.101   5.792   9.212  0.2116 -0.1420 -1.2058
45675SOL    HW242346  10.106   5.660   9.136 -0.8069 -1.2147  0.5332
45676SOL     OW42347  11.104   5.841   3.974  0.0351  0.0968 -0.5400
45676SOL    HW142348  11.186   5.876   4.007 -0.1276 -0.1291  0.1092
45676SOL    HW242349  11.094   5.757   4.017 -0.7336  0.2941 -0.3113
45677SOL     OW42350   5.748   0.643   2.377 -0.3744 -0.1655  0.3945
45677SOL    HW142351   5.814   0.592   2.331 -1.4236 -0.2967 -1.0188
45677SOL    HW242352   5.798   0.709   2.426  0.8135 -0.5911 -0.2240
45678SOL     OW42353   4.031   3.317   6.113  0.0684 -0.1779 -0.0644
45678SOL    HW142354   4.009   3.224   6.123 -0.5449 -0.0083  0.2316
45678SOL    HW242355   4.105   3.331   6.172 -0.3191 -0.3193  0.4683
45679SOL     OW42356   5.420   2.530   4.662  0.6837 -0.0223 -0.3411
45679SOL    HW142357   5.363   2.476   4.608  2.2516 -1.7243 -0.4087
45679SOL    HW242358   5.497   2.475   4.678  0.5161  0.5006  3.2680
45680SOL     OW42359   6.042   9.922   1.801  0.4091 -0.0653 -0.5445
45680SOL    HW142360   6.106   9.853   1.820 -0.1088 -0.1021  1.1762
45680SOL    HW242361   6.072   9.959   1.717  0.5976 -2.4637 -1.6130
45681SOL     OW42362   6.055   4.075   4.657 -0.8379 -0.3909  0.3009
45681SOL    HW142363   6.055   4.135   4.731 -0.6120  0.5277 -0.4243
45681SOL    HW242364   5.966   4.081   4.621 -0.6605 -0.0767 -0.0924
45682SOL     OW42365   6.371   6.091   2.335 -0.1337 -0.0516  0.1355
45682SOL    HW142366   6.279   6.118   2.324  0.2449  1.1613 -0.3317
45682SOL    HW242367   6.421   6.168   2.306  1.0777 -1.7463 -2.7574
45683SOL     OW42368   7.169  11.125   2.473 -0.3198 -0.0647  0.2790
45683SOL    HW142369   7.149  11.047   2.524  0.1311 -0.9859 -0.8987
45683SOL    HW242370   7.189  11.092   2.385 -1.5513  1.5037 -0.6376
45684SOL     OW42371  10.613  10.326   9.609 -0.1462  0.1700  0.1365
45684SOL    HW142372  10.666  10.262   9.657 -0.1305 -0.9477 -1.3299
45684SOL    HW242373  10.541  10.346   9.669 -0.5289 -1.7590  0.3865
45685SOL     OW42374   8.887   4.359   9.146  0.0314  0.1867  0.1906
45685SOL    HW142375   8.880   4.414   9.225 -0.6147 -0.1226  0.3532
45685SOL    HW242376   8.911   4.420   9.077  0.2992  0.5136  0.5631
45686SOL     OW42377   9.213  11.095   3.091  0.3262 -0.6074 -0.0307
45686SOL    HW142378   9.214  11.001   3.107 -2.9555 -1.0006 -1.3876
45686SOL    HW242379   9.228  11.134   3.177  0.8801 -2.3749  0.7087
45687SOL     OW42380   8.947   9.433   6.961 -0.6642 -0.1312 -0.5098
45687SOL    HW142381   8.960   9.528   6.966  0.1924 -0.2120 -0.8982
45687SOL    HW242382   8.867   9.416   7.010 -0.2685  0.6737  0.4415
45688SOL     OW42383   3.803   9.042   4.977  0.0834  0.3857  0.0062
45688SOL    HW142384   3.756   9.090   5.045  0.8680  0.7153  0.3343
45688SOL    HW242385   3.759   9.065   4.896 -0.4621  0.5006  0.3300
45689SOL     OW42386   8.298   6.238   5.457 -0.2006 -0.1588  0.9029
45689SOL    HW142387   8.309   6.142   5.459 -0.1299 -0.1526  0.8000
45689SOL    HW242388   8.356   6.269   5.527  1.1168 -0.0606 -0.1955
45690SOL     OW42389  11.773  11.270  10.809 -0.3849  0.2213  0.3453
45690SOL    HW142390  11.737  11.266  10.897 -0.9765 -0.0374  0.0969
45690SOL    HW242391  11.751  11.186  10.769  0.2073  0.1877  0.0699
45691SOL     OW42392   6.281   2.347   8.181 -0.2293  0.5868 -0.2614
45691SOL    HW142393   6.241   2.434   8.178 -1.4807  0.0240 -1.1640
45691SOL    HW242394   6.206   2.288   8.191  0.7355 -0.2781  5.6234
45692SOL     OW42395   5.737   1.514   3.096  0.1828 -0.0235  0.1438
45692SOL    HW142396   5.734   1.605   3.125 -1.7574  0.1762 -0.4952
45692SOL    HW242397   5.682   1.467   3.160  0.2550 -0.5314 -0.1568
45693SOL     OW42398   0.363   2.041   1.349 -0.0266 -0.2105 -0.0057
45693SOL    HW142399   0.452   2.019   1.322  0.3843  0.0058  1.1416
45693SOL    HW242400   0.313   1.961   1.332  0.4943 -0.5025 -0.1789
45694SOL     OW42401   2.875   8.397   9.320 -0.1967 -0.3076  0.3655
45694SOL    HW142402   2.941   8.328   9.332 -1.4019 -0.9996  4.7526
45694SOL    HW242403   2.919   8.477   9.348  0.3354  0.3007 -2.0223
45695SOL     OW42404  11.308   4.156   7.964 -0.0553 -0.4304 -0.2887
45695SOL    HW142405  11.317   4.159   7.869 -0.0369 -1.8341 -0.3429
45695SOL    HW242406  11.395   4.178   7.998 -0.6038  2.5101 -0.5069
45696SOL     OW42407   4.353   7.885   3.979  0.7697  0.1545 -0.5525
45696SOL    HW142408   4.435   7.837   3.970  0.5023  0.0103 -2.8913
45696SOL    HW242409   4.298   7.852   3.908 -1.0382  0.8088  0.4754
45697SOL     OW42410   9.174   2.900   9.917  0.0033  0.0135 -0.6397
45697SOL    HW142411   9.246   2.847   9.953 -1.1613 -1.3265 -0.2044
45697SOL    HW242412   9.154   2.964   9.985 -0.2211 -0.6038 -0.1166
45698SOL     OW42413   9.910   3.408  11.272 -0.3983  0.0754 -0.1538
45698SOL    HW142414   9.888   3.318  11.248  0.4698  0.1600 -1.3385
45698SOL    HW242415   9.831   3.440  11.316 -1.7536 -0.4206 -2.0682
45699SOL     OW42416  10.919   1.412   7.371 -0.6107 -0.2814 -0.2446
45699SOL    HW142417  10.950   1.413   7.462 -0.5920  0.5519 -0.2477
45699SOL    HW242418  10.984   1.359   7.325  0.6717  1.1645 -0.1878
45700SOL     OW42419  10.478   5.453  11.422 -0.1324  0.2285 -0.1236
45700SOL    HW142420  10.457   5.508  11.497  1.7227 -0.0209  0.6172
45700SOL    HW242421  10.535   5.507  11.367  1.1216 -0.6724  0.2594
45701SOL     OW42422   3.227   9.770   7.305 -0.4932  0.3106  0.0950
45701SOL    HW142423   3.299   9.832   7.308  0.2994 -0.5316 -0.8251
45701SOL    HW242424   3.256   9.696   7.359  0.0309 -0.7090 -1.5101
45702SOL     OW42425   0.366   5.682   3.911  0.2863  0.2086 -0.1138
45702SOL    HW142426   0.283   5.697   3.957  0.3257 -0.8820  0.3300
45702SOL    HW242427   0.345   5.699   3.819 -0.8896 -1.6760 -0.2388
45703SOL     OW42428   0.371  11.488  10.245  0.3717  0.0902  0.3453
45703SOL    HW142429   0.449  11.450  10.286 -0.3811 -0.6967  1.0951
45703SOL    HW242430   0.304  11.483  10.313 -0.2164  1.1908 -0.1315
45704SOL     OW42431   2.005   2.907   1.605  0.0519 -0.0562 -0.2373
45704SOL    HW142432   1.928   2.895   1.660 -1.0300  3.0310 -0.8883
45704SOL    HW242433   1.984   2.858   1.524 -0.5828 -0.3906  0.1221
45705SOL     OW42434  10.281   3.455   4.141 -0.0843 -0.0092 -0.1485
45705SOL    HW142435  10.196   3.476   4.103 -1.0571 -1.5959  1.0512
45705SOL    HW242436  10.342   3.461   4.067 -1.2783  0.7924 -1.1029
45706SOL     OW42437   5.426   5.076   0.495 -0.4692  1.0514  0.0011
45706SOL    HW142438   5.391   5.148   0.548 -1.3057  0.0990  0.7802
45706SOL    HW242439   5.364   5.004   0.507  0.3704  0.1697 -0.7217
45707SOL     OW42440   0.971   0.000   7.814 -1.0395  0.1722 -0.3580
45707SOL    HW142441   1.064  -0.021   7.813 -0.6494  1.7201  0.1456
45707SOL    HW242442   0.939  -0.036   7.897  0.0983  3.2240  1.5725
45708SOL     OW42443   4.685   7.844   7.841  0.2155  0.0485  0.0388
45708SOL    HW142444   4.747   7.885   7.901  0.0787  0.4023 -0.0577
45708SOL    HW242445   4.677   7.754   7.873  0.9990 -0.0848 -0.1281
45709SOL     OW42446   1.777   1.612   0.146  0.0895  0.4095 -0.1405
45709SOL    HW142447   1.719   1.592   0.072 -0.7366  1.2780  0.2525
45709SOL    HW242448   1.857   1.564   0.126 -0.8516 -1.1007 -0.5417
45710SOL     OW42449  10.758   8.804   6.501  0.2715  0.1862  0.4951
45710SOL    HW142450  10.683   8.760   6.462  1.3299 -0.7944 -0.5355
45710SOL    HW242451  10.834   8.752   6.473  1.3842  1.4068  1.0975
45711SOL     OW42452   5.021   3.803   0.443 -0.6680  0.4448 -0.8457
45711SOL    HW142453   5.058   3.721   0.412 -0.2724  0.9921 -1.8680
45711SOL    HW242454   5.088   3.840   0.501 -0.4235  0.5112 -1.1674
45712SOL     OW42455  11.058   4.654   0.419 -0.3284  0.3297 -0.0312
45712SOL    HW142456  11.064   4.747   0.399 -0.1315  0.3136 -0.0521
45712SOL    HW242457  11.069   4.610   0.335 -0.0987  0.2801  0.0223
45713SOL     OW42458   1.462  11.495   8.894  0.3921 -0.1073 -0.4391
45713SOL    HW142459   1.546  11.448   8.894  0.7366  0.4588 -1.4462
45713SOL    HW242460   1.485  11.585   8.918 -0.3800 -0.5742  2.3506
45714SOL     OW42461   5.742  10.678   5.135  0.5936 -0.2921  0.1011
45714SOL    HW142462   5.819  10.623   5.125 -0.5453 -1.8281 -0.6017
45714SOL    HW242463   5.728  10.682   5.230  1.4604 -0.0573  0.2329
45715SOL     OW42464   9.795   8.564   4.789  0.0674  0.1663 -0.5060
45715SOL    HW142465   9.735   8.623   4.834  0.2335  0.5692 -0.8047
45715SOL    HW242466   9.784   8.479   4.833 -0.2657  0.3882 -0.1606
45716SOL     OW42467   9.066   3.171   3.678 -0.2595  0.5217 -0.5391
45716SOL    HW142468   9.154   3.171   3.718 -0.6554 -1.9530  0.5319
45716SOL    HW242469   9.071   3.238   3.610  1.9428  1.6147  0.5632
45717SOL     OW42470   4.013   7.738  11.044 -0.1312  0.0687  0.2186
45717SOL    HW142471   4.083   7.673  11.050  0.8155  1.1201  0.8023
45717SOL    HW242472   4.014   7.767  10.953 -1.5774 -1.7818 -0.4682
45718SOL     OW42473   9.164   6.817   6.616  0.5217  0.1855  0.4021
45718SOL    HW142474   9.130   6.739   6.572  1.4084 -0.8119  1.4168
45718SOL    HW242475   9.136   6.890   6.561  2.1169 -1.0211 -2.2200
45719SOL     OW42476  11.665   8.174   6.373 -0.0748  0.8801  0.5720
45719SOL    HW142477  11.600   8.241   6.350 -2.7605 -1.3584  1.0526
45719SOL    HW242478  11.625   8.092   6.345  4.0415 -0.4863 -2.0972
45720SOL     OW42479  10.635   6.118   5.108 -0.5349  0.1758  0.1713
45720SOL    HW142480  10.634   6.159   5.194 -0.0168 -0.1831  0.3476
45720SOL    HW242481  10.551   6.143   5.069  0.8942  3.9435 -0.9435
45721SOL     OW42482   4.828   4.591   4.299  0.6915 -0.5924  0.5314
45721SOL    HW142483   4.850   4.620   4.387  0.8237  0.3546  0.2014
45721SOL    HW242484   4.907   4.547   4.268  1.2755  0.5859  0.2720
45722SOL     OW42485   4.708   1.706   8.035  0.0332  0.5232  0.1935
45722SOL    HW142486   4.773   1.721   8.103  1.3969  0.3075 -1.0244
45722SOL    HW242487   4.643   1.775   8.048  0.9535  1.2780  0.9036
45723SOL     OW42488   5.389   5.462   7.072  0.1055 -0.1115 -0.4000
45723SOL    HW142489   5.481   5.461   7.043  0.1915 -1.7175 -0.1933
45723SOL    HW242490   5.351   5.384   7.030 -0.5804 -0.6967  1.2615
45724SOL     OW42491   1.944  10.281   6.960 -0.0068 -0.3756  0.0427
45724SOL    HW142492   1.918  10.364   6.999 -0.5554 -0.2996 -0.4724
45724SOL    HW242493   1.879  10.265   6.892 -0.5280 -1.7406  0.8173
45725SOL     OW42494   0.987   3.746  10.661 -0.3634 -0.3944 -0.7765
45725SOL    HW142495   1.026   3.832  10.675 -0.8085 -0.1677 -0.9056
45725SOL    HW242496   1.044   3.703  10.598 -0.3023 -0.0800 -0.9358
45726SOL     OW42497   0.348   3.869   1.801  0.0546 -0.1045 -0.3299
45726SOL    HW142498   0.429   3.839   1.841  0.2851 -0.1958 -0.8480
45726SOL    HW242499   0.306   3.923   1.867 -0.2708 -1.4048  0.5618
45727SOL     OW42500  10.217   6.468  11.242  0.3088  0.4306 -0.1604
45727SOL    HW142501  10.307   6.437  11.248  0.6071  1.2550 -0.2869
45727SOL    HW242502  10.188   6.440  11.155 -0.8089 -3.0284  1.1544
45728SOL     OW42503  11.703  10.230  10.552 -0.1140 -0.4472  0.0102
45728SOL    HW142504  11.619  10.186  10.540  0.0219 -0.4982 -0.8376
45728SOL    HW242505  11.760  10.191  10.484  0.1157  0.7744 -0.5228
45729SOL     OW42506   6.648   0.907   3.694  0.0447 -0.8176  0.3056
45729SOL    HW142507   6.723   0.911   3.753 -0.1231 -2.5700  0.6965
45729SOL    HW242508   6.617   0.816   3.700 -3.3849  0.2910  1.7266
45730SOL     OW42509   4.409   7.375   8.810 -0.4300 -0.1063  0.0596
45730SOL    HW142510   4.481   7.411   8.759 -1.0011  1.2186  0.1435
45730SOL    HW242511   4.415   7.420   8.895 -2.2145  1.1921 -0.4310
45731SOL     OW42512   8.546   2.595   7.438 -0.2041  0.5199  0.0040
45731SOL    HW142513   8.604   2.543   7.381  0.1324  1.1399 -0.2253
45731SOL    HW242514   8.571   2.569   7.527 -0.3273 -0.0167 -0.1100
45732SOL     OW42515  10.053   4.185   6.058 -0.8891  0.3354  0.3781
45732SOL    HW142516  10.076   4.165   6.149  1.1968  3.2222  0.6345
45732SOL    HW242517  10.136   4.176   6.010 -1.5743  0.5646 -0.9008
45733SOL     OW42518   6.716  11.004   2.658 -0.6108 -0.9294  0.2595
45733SOL    HW142519   6.774  11.001   2.582 -1.7437  2.6232 -0.9554
45733SOL    HW242520   6.774  11.020   2.732  0.3800 -2.9088 -0.0410
45734SOL     OW42521  10.325   1.575  10.516 -0.1810 -0.3802 -0.0623
45734SOL    HW142522  10.295   1.490  10.548  1.4053 -0.8897  0.1724
45734SOL    HW242523  10.312   1.571  10.421 -2.5106  0.1462  0.1793
45735SOL     OW42524   0.201   4.178   6.465  0.0522  0.0613  0.4940
45735SOL    HW142525   0.112   4.167   6.498  0.4516  1.4237  2.2028
45735SOL    HW242526   0.255   4.123   6.522  0.2359 -1.7330 -1.2945
45736SOL     OW42527   9.708   1.311   9.304  0.7429 -0.2919  0.4530
45736SOL    HW142528   9.793   1.273   9.329  0.9227  0.0383  0.3548
45736SOL    HW242529   9.658   1.237   9.270  0.5091 -0.7478  1.7342
45737SOL     OW42530  11.109   0.205   6.201 -0.2470  0.0225  0.3334
45737SOL    HW142531  11.120   0.297   6.180  1.6980 -0.3015 -0.3099
45737SOL    HW242532  11.053   0.170   6.131  0.9546  0.2615 -0.7892
45738SOL     OW42533   6.588   8.676   6.758  0.2667  0.0164 -0.2560
45738SOL    HW142534   6.595   8.758   6.806 -0.6300 -0.9088  1.5688
45738SOL    HW242535   6.539   8.699   6.679 -0.4668  1.1395  0.4913
45739SOL     OW42536   3.346   9.860   3.272  0.2476 -0.3078 -0.1422
45739SOL    HW142537   3.413   9.806   3.232 -1.4636 -2.0008 -0.8429
45739SOL    HW242538   3.272   9.857   3.211 -0.9229  0.4824  1.1744
45740SOL     OW42539  10.356   7.052   3.602  0.4220  0.1739  0.3628
45740SOL    HW142540  10.369   7.122   3.665 -0.3308  1.4260 -0.8109
45740SOL    HW242541  10.299   6.990   3.646  0.2586  0.8153  1.0682
45741SOL     OW42542   2.203   2.088   6.519  0.2540 -0.1882  0.2301
45741SOL    HW142543   2.111   2.062   6.508  0.9638 -2.7092 -0.3987
45741SOL    HW242544   2.236   2.099   6.430  1.4208 -2.8885  0.2351
45742SOL     OW42545  10.154   7.644   8.713 -0.4463  0.1263  0.3448
45742SOL    HW142546  10.166   7.601   8.629  1.4600  0.4398  0.4191
45742SOL    HW242547  10.218   7.715   8.714  1.3530 -1.3490  2.9923
45743SOL     OW42548  10.864   0.377   8.685 -0.6490 -0.1436  0.2421
45743SOL    HW142549  10.773   0.395   8.659 -0.5039  0.4628  0.1521
45743SOL    HW242550  10.899   0.323   8.615 -0.9180 -0.3300  0.2466
45744SOL     OW42551   0.079   7.339  10.113  0.4560 -0.2404 -0.6462
45744SOL    HW142552  -0.015   7.357  10.105  0.4685 -0.5193 -1.4412
45744SOL    HW242553   0.109   7.401  10.181 -0.8923 -2.3468  2.0573
45745SOL     OW42554   8.291   9.172  10.387  0.0221  0.1427 -0.3626
45745SOL    HW142555   8.296   9.166  10.482  0.1503  2.4584 -0.1699
45745SOL    HW242556   8.382   9.168  10.357 -0.0811 -1.9317 -0.5549
45746SOL     OW42557   7.346   6.042   2.233 -0.5860  0.1114 -0.5921
45746SOL    HW142558   7.369   6.015   2.321 -0.7268  0.3818 -0.4700
45746SOL    HW242559   7.275   6.105   2.245 -1.6366 -0.9726 -0.9793
45747SOL     OW42560   2.083   3.709   7.130  0.1021  0.1283 -0.2628
45747SOL    HW142561   2.105   3.744   7.216 -1.5194  0.0341  0.2232
45747SOL    HW242562   1.987   3.706   7.129  0.1000 -3.0270 -0.7642
45748SOL     OW42563   2.191   1.042   2.860 -0.2390  0.1226  0.8167
45748SOL    HW142564   2.115   1.039   2.803 -0.2099 -1.1593  0.8119
45748SOL    HW242565   2.266   1.054   2.801 -0.2702 -0.5239  0.6432
45749SOL     OW42566   0.153   4.425   8.621  0.2797 -0.0095  0.8018
45749SOL    HW142567   0.083   4.361   8.604  1.2404 -1.0659  0.6918
45749SOL    HW242568   0.138   4.494   8.557 -1.9625  0.8997  2.2029
45750SOL     OW42569   2.565   2.182   2.233 -0.1879 -0.3910 -0.0618
45750SOL    HW142570   2.541   2.136   2.153 -0.4367 -0.6658  0.1681
45750SOL    HW242571   2.616   2.118   2.283  0.5830  0.0137 -0.3114
45751SOL     OW42572   8.644   9.599   2.236  0.2185 -0.8756 -0.6563
45751SOL    HW142573   8.632   9.542   2.313 -0.1706  0.1750  0.0821
45751SOL    HW242574   8.715   9.658   2.260 -1.9619  1.5935  0.2655
45752SOL     OW42575   9.245   2.185   5.958  0.5633 -0.2208 -0.0829
45752SOL    HW142576   9.195   2.107   5.937 -2.5909  0.8174  2.6783
45752SOL    HW242577   9.266   2.177   6.051  0.0301  2.1666  0.3266
45753SOL     OW42578   7.360   9.547   7.933 -0.9432  0.2308  0.1545
45753SOL    HW142579   7.311   9.503   7.864 -2.0641  0.7338  0.6118
45753SOL    HW242580   7.294   9.596   7.982  0.1604  1.8596  0.0851
45754SOL     OW42581   1.932   8.505   3.107 -0.2249  0.5758 -0.2504
45754SOL    HW142582   1.899   8.500   3.197  0.1665 -0.9999 -0.1652
45754SOL    HW242583   2.024   8.479   3.113 -0.2378  0.2940 -1.1167
45755SOL     OW42584  11.240   9.654   5.321  0.3273 -0.5692  0.1147
45755SOL    HW142585  11.186   9.723   5.282 -0.1974 -0.9517  0.1648
45755SOL    HW242586  11.180   9.601   5.373  0.7850 -0.8733  0.3463
45756SOL     OW42587   9.028   9.559   2.113  0.5272  0.3147  0.0667
45756SOL    HW142588   9.050   9.605   2.032 -1.9313  1.7871  0.1399
45756SOL    HW242589   9.064   9.613   2.182  3.0524 -1.1896  0.0493
45757SOL     OW42590   5.769  11.059   4.722  0.0461 -0.0816  0.4141
45757SOL    HW142591   5.851  11.052   4.673 -1.0169 -0.3122 -1.4289
45757SOL    HW242592   5.718  10.983   4.693 -0.5612 -0.3523  2.0850
45758SOL     OW42593   1.769   1.228   2.512  0.3863 -0.3297 -0.2446
45758SOL    HW142594   1.682   1.206   2.545 -0.3446  0.4550 -1.5655
45758SOL    HW242595   1.822   1.239   2.590 -1.4390  2.1596  0.7781
45759SOL     OW42596   5.382   3.504  11.308  0.0686 -0.1767 -0.0228
45759SOL    HW142597   5.434   3.433  11.344 -0.0001 -0.1815  0.0684
45759SOL    HW242598   5.441   3.551  11.250  0.5214  0.5227  0.9661
45760SOL     OW42599   3.257   5.400   3.893  0.3143 -0.2795 -0.1173
45760SOL    HW142600   3.248   5.305   3.882 -1.8680 -0.2438  0.7223
45760SOL    HW242601   3.228   5.436   3.810  0.9684 -0.3292 -0.3727
45761SOL     OW42602   7.019   1.738   6.352  0.0287 -0.1076  0.9836
45761SOL    HW142603   7.052   1.823   6.321 -1.9337  0.1325 -0.7130
45761SOL    HW242604   6.956   1.712   6.285 -0.2788 -2.3660  2.0798
45762SOL     OW42605  11.362   9.858  11.104 -0.3289  0.0535  0.2172
45762SOL    HW142606  11.374   9.797  11.176  2.2392  0.1218 -0.0731
45762SOL    HW242607  11.392   9.942  11.138 -3.4410  1.2079  0.4822
45763SOL     OW42608   1.503   2.419   8.659 -0.2011 -0.1285 -0.5769
45763SOL    HW142609   1.441   2.426   8.732  1.7882 -1.8393  1.3992
45763SOL    HW242610   1.490   2.330   8.626  1.0561 -0.4374 -0.2580
45764SOL     OW42611   4.750  10.072  11.441 -0.6627  0.0433  0.1464
45764SOL    HW142612   4.776   9.999  11.496  0.0229 -0.6147 -1.0042
45764SOL    HW242613   4.829  10.095  11.392 -0.6765  2.0075  0.9437
45765SOL     OW42614   4.724  11.186   1.897  0.1785 -0.0850  0.3619
45765SOL    HW142615   4.719  11.260   1.957  0.3673 -0.6695  1.1154
45765SOL    HW242616   4.662  11.207   1.828 -0.3636  0.4118  0.9829
45766SOL     OW42617   8.395   5.829   9.553 -0.0580 -0.7063 -0.7218
45766SOL    HW142618   8.419   5.921   9.556 -2.2091 -0.1199  0.3142
45766SOL    HW242619   8.314   5.826   9.501  0.7225 -2.2116 -1.9350
45767SOL     OW42620   6.004  11.410   5.787 -0.4620  0.2032 -0.1459
45767SOL    HW142621   6.072  11.377   5.845 -0.9207 -1.6150 -0.5936
45767SOL    HW242622   5.922  11.376   5.824 -0.9247  0.5459 -0.8325
45768SOL     OW42623   1.356   8.968   0.790  0.5362 -0.5102  0.6909
45768SOL    HW142624   1.411   9.034   0.832  1.1739 -0.0085 -0.8763
45768SOL    HW242625   1.409   8.934   0.718 -0.5654 -1.2449  0.2003
45769SOL     OW42626   1.914  10.690   2.842 -0.3151 -0.2982  0.1508
45769SOL    HW142627   1.961  10.606   2.848  0.1126  0.0451  2.3505
45769SOL    HW242628   1.903  10.718   2.933 -3.8432  0.2158 -0.3150
45770SOL     OW42629   9.887   6.976   5.727  0.6443 -0.2630  0.4626
45770SOL    HW142630   9.807   6.938   5.690  0.8737 -0.4645  0.1640
45770SOL    HW242631   9.877   6.963   5.822 -0.5384  1.4131  0.6111
45771SOL     OW42632  10.227   3.409   2.064 -0.1997  0.3848  0.1535
45771SOL    HW142633  10.201   3.317   2.064 -0.2684  0.2890 -3.2411
45771SOL    HW242634  10.157   3.454   2.015  0.6261  1.9795  0.3611
45772SOL     OW42635   5.559   8.374   4.090  0.4904  0.3412  0.5820
45772SOL    HW142636   5.548   8.467   4.073  1.6278  0.2880 -0.6412
45772SOL    HW242637   5.554   8.333   4.003  3.1611 -0.3605  0.6574
45773SOL     OW42638  11.302  11.493   7.506 -0.0279  0.3875  0.7604
45773SOL    HW142639  11.388  11.457   7.531  0.3896  1.5437  1.0551
45773SOL    HW242640  11.271  11.537   7.585  0.7916  3.1124 -0.2885
45774SOL     OW42641   1.259   4.391   7.583 -0.4443  0.2387 -0.3246
45774SOL    HW142642   1.341   4.437   7.599  0.1955 -1.4198  1.5639
45774SOL    HW242643   1.193   4.445   7.626 -0.0117  0.4360  0.1070
45775SOL     OW42644   5.957  11.220   5.420  0.2090 -0.2260 -0.1738
45775SOL    HW142645   5.974  11.314   5.417  0.6586 -0.2922  0.2418
45775SOL    HW242646   5.879  11.212   5.475 -1.6983  0.1319 -2.6284
45776SOL     OW42647  10.912   4.834   3.080  0.0562  0.3129 -0.4057
45776SOL    HW142648  10.956   4.896   3.138  0.1105  1.1041 -1.2608
45776SOL    HW242649  10.983   4.797   3.027 -0.3543  2.8308 -2.9603
45777SOL     OW42650  10.538   2.237   0.383  0.2066 -0.1438  0.0422
45777SOL    HW142651  10.562   2.316   0.335 -1.0197 -0.3296 -0.9287
45777SOL    HW242652  10.494   2.269   0.462  1.2784  0.1412  0.5520
45778SOL     OW42653   2.842   1.373   6.968 -0.1589  0.2404 -0.1259
45778SOL    HW142654   2.931   1.339   6.956 -0.0979  0.3387  0.0482
45778SOL    HW242655   2.799   1.354   6.885 -0.0722 -0.0966 -0.0962
45779SOL     OW42656   6.839   2.138   3.581  0.7283  0.1597 -0.0397
45779SOL    HW142657   6.843   2.128   3.486 -0.1500  1.8657 -0.2871
45779SOL    HW242658   6.836   2.048   3.614  2.0738 -0.4936 -1.5492
45780SOL     OW42659   1.874   5.647   8.408 -0.0717  0.0357 -0.4815
45780SOL    HW142660   1.840   5.568   8.451  0.3358 -0.1102 -0.4239
45780SOL    HW242661   1.801   5.678   8.354 -0.1019 -0.6197 -0.8300
45781SOL     OW42662   0.029  10.135   5.097 -0.0771 -0.5659  0.1628
45781SOL    HW142663  -0.009  10.215   5.133  1.2192  0.5140 -0.7563
45781SOL    HW242664   0.003  10.066   5.158 -3.0614  0.1479 -0.1513
45782SOL     OW42665   3.984   3.016   7.470  0.1946 -0.0257 -0.1431
45782SOL    HW142666   4.037   3.092   7.494  1.3984 -1.2228  1.1778
45782SOL    HW242667   3.936   2.994   7.550 -1.5776  0.4054 -1.0305
45783SOL     OW42668   3.416   7.030   9.450 -0.2992  0.1253  0.1841
45783SOL    HW142669   3.364   7.089   9.396  0.8646 -0.2066 -1.3531
45783SOL    HW242670   3.392   6.942   9.420 -0.8070 -0.1394  1.3195
45784SOL     OW42671   6.579   6.566  11.186  0.3250 -0.2138 -0.4869
45784SOL    HW142672   6.551   6.626  11.255  0.1294 -1.2176  0.3266
45784SOL    HW242673   6.629   6.621  11.126 -0.5674  0.9348 -0.2127
45785SOL     OW42674   2.198  10.229   3.887  0.4608  0.0428 -0.1048
45785SOL    HW142675   2.184  10.294   3.956  0.2059  1.1669 -1.1784
45785SOL    HW242676   2.128  10.164   3.900  1.4304 -0.6819  1.6972
45786SOL     OW42677   7.464   6.269   1.380  0.3746 -0.3520 -0.5540
45786SOL    HW142678   7.469   6.210   1.305  1.5099 -0.1534 -0.6418
45786SOL    HW242679   7.544   6.321   1.376 -1.4851  2.6942 -1.6608
45787SOL     OW42680   7.407   0.938   9.767 -0.2507 -0.1446 -0.2633
45787SOL    HW142681   7.474   0.970   9.707  0.2318  0.8625  0.7708
45787SOL    HW242682   7.352   1.015   9.784 -0.6632 -0.5371  0.2157
45788SOL     OW42683   3.453   7.814   8.339 -0.3781  0.4037  0.0251
45788SOL    HW142684   3.505   7.893   8.323 -0.6077  0.9523  1.7613
45788SOL    HW242685   3.477   7.788   8.428  0.3910 -2.0534 -0.8296
45789SOL     OW42686   6.260  11.771   9.932  0.1667  0.4095 -0.1794
45789SOL    HW142687   6.280  11.840   9.995  1.6612  0.2617 -0.4642
45789SOL    HW242688   6.345  11.734   9.909 -0.3027  0.7518 -2.6408
45790SOL     OW42689   9.808   2.631   1.986 -0.1986 -1.2555  0.1888
45790SOL    HW142690   9.848   2.630   2.074  0.8732 -2.8206 -0.2665
45790SOL    HW242691   9.865   2.574   1.934 -1.5904 -1.4437 -1.1781
45791SOL     OW42692   9.834   1.403   1.835 -0.1009  0.3780 -0.1224
45791SOL    HW142693   9.885   1.339   1.786  0.2836  0.6591 -0.1008
45791SOL    HW242694   9.746   1.399   1.798 -0.3126 -0.7718  0.4538
45792SOL     OW42695   9.768   3.051   7.584  0.7536  0.8415  0.6007
45792SOL    HW142696   9.679   3.015   7.577  0.9456  0.5542 -0.5570
45792SOL    HW242697   9.802   3.048   7.495  2.2622  0.1223  1.1643
45793SOL     OW42698   6.120   3.693   5.333  0.2873 -0.4649  0.7508
45793SOL    HW142699   6.051   3.743   5.290 -0.5780 -2.6784 -0.6108
45793SOL    HW242700   6.199   3.745   5.319 -0.8288  1.3983  1.0531
45794SOL     OW42701   1.963   9.873   5.040  0.1530  0.1872  0.1706
45794SOL    HW142702   2.045   9.892   5.087 -0.0641 -1.9285  1.5302
45794SOL    HW242703   1.895   9.911   5.095  0.0815  0.0930  0.1460
45795SOL     OW42704   1.757   1.928   6.152 -0.7694 -0.2743  0.6894
45795SOL    HW142705   1.821   1.992   6.183  0.5726 -1.5690  0.7438
45795SOL    HW242706   1.708   1.974   6.084  1.1674  0.3960 -0.3375
45796SOL     OW42707  11.594   0.488   4.664  0.0803 -0.2620 -0.2908
45796SOL    HW142708  11.588   0.551   4.592  0.2437  0.4121  0.2671
45796SOL    HW242709  11.510   0.443   4.664 -0.3699  0.5709 -0.1541
45797SOL     OW42710  11.198   1.134   5.182  0.4446 -0.0435 -0.8195
45797SOL    HW142711  11.252   1.073   5.131  1.3054 -0.4342  0.5101
45797SOL    HW242712  11.252   1.213   5.189  0.1655  0.1497 -0.8470
45798SOL     OW42713   9.809   4.086   7.105 -0.2001 -0.1260 -0.0125
45798SOL    HW142714   9.852   4.148   7.047  0.5100 -0.5942  0.0026
45798SOL    HW242715   9.732   4.133   7.137  0.3074  0.7353 -0.0216
45799SOL     OW42716   7.157   1.193   7.247 -0.1219  0.1124  0.1501
45799SOL    HW142717   7.152   1.138   7.325  0.2255  0.4180  0.3957
45799SOL    HW242718   7.248   1.185   7.218 -0.0032  0.7329  0.3239
45800SOL     OW42719   5.042  10.424  10.377  0.2937 -0.3579 -0.1907
45800SOL    HW142720   5.009  10.473  10.302 -0.9971 -1.4163 -0.3526
45800SOL    HW242721   5.118  10.376  10.344  2.3664  2.3589  0.2589
45801SOL     OW42722   0.966   2.663   5.732 -0.3183  0.4654 -0.2791
45801SOL    HW142723   0.890   2.612   5.704  0.2016 -0.6391  0.2669
45801SOL    HW242724   0.999   2.616   5.808 -0.0574  1.8565  0.4974
45802SOL     OW42725  11.394   7.918   9.759  0.0237  0.1442  0.7100
45802SOL    HW142726  11.483   7.884   9.752  0.7014  1.5089  2.0405
45802SOL    HW242727  11.358   7.909   9.671  1.1450 -1.2839  0.3692
45803SOL     OW42728   4.399   9.682   0.146 -0.0949  0.4875 -0.0134
45803SOL    HW142729   4.423   9.670   0.238  0.7430 -2.0128 -0.4765
45803SOL    HW242730   4.425   9.772   0.126  1.2640  0.5466  1.7525
45804SOL     OW42731  11.242   5.580   0.567 -0.1721  0.0121 -0.3516
45804SOL    HW142732  11.323   5.576   0.616  0.3790  0.9098 -1.1407
45804SOL    HW242733  11.210   5.670   0.579 -1.4308 -0.5222  0.5214
45805SOL     OW42734   1.302   6.295  11.577  0.2097 -0.5059 -0.5845
45805SOL    HW142735   1.323   6.345  11.498 -0.9032 -1.2696 -1.4082
45805SOL    HW242736   1.323   6.204  11.553 -1.0069 -0.8633 -0.3512
45806SOL     OW42737   5.915   9.479   7.722  0.3810 -0.4577  0.0091
45806SOL    HW142738   5.998   9.455   7.762  0.6751 -1.7345 -1.2615
45806SOL    HW242739   5.883   9.553   7.773  2.1264 -0.1707  0.7309
45807SOL     OW42740   1.674   7.455   9.373  0.0675 -0.5747  0.4602
45807SOL    HW142741   1.737   7.487   9.308 -1.2108  2.1157  0.4339
45807SOL    HW242742   1.727   7.429   9.448  1.3588 -0.7715 -0.4971
45808SOL     OW42743   4.628   2.349   7.142  0.3284 -0.2523 -0.3991
45808SOL    HW142744   4.723   2.355   7.156  0.5096 -0.6668 -1.3605
45808SOL    HW242745   4.614   2.392   7.058 -0.3433 -0.1593 -0.2404
45809SOL     OW42746   0.469  11.170   9.521  0.1506 -0.4083  0.5501
45809SOL    HW142747   0.433  11.103   9.463  0.7249 -0.4926  0.2806
45809SOL    HW242748   0.547  11.202   9.475 -0.5947  1.0767  0.2694
45810SOL     OW42749  10.136   8.811   9.279  0.5997 -0.2493 -0.7228
45810SOL    HW142750  10.148   8.719   9.301 -0.1359 -0.8507 -2.5902
45810SOL    HW242751  10.211   8.855   9.319  1.0041 -1.6481  0.1620
45811SOL     OW42752   3.583   3.491   3.315 -0.5988 -0.0623  0.4782
45811SOL    HW142753   3.593   3.485   3.220 -0.6526  0.6983  0.4235
45811SOL    HW242754   3.643   3.561   3.342 -2.6435  1.7196  0.6464
45812SOL     OW42755   7.547  10.989   3.055 -0.1931 -0.0496 -0.4366
45812SOL    HW142756   7.605  10.917   3.030 -0.6070  0.0209 -1.6699
45812SOL    HW242757   7.573  11.061   2.999 -0.9804  0.2057 -0.4910
45813SOL     OW42758   7.593   9.843   4.510  0.3276 -0.0083  0.2043
45813SOL    HW142759   7.558   9.770   4.561  0.4239 -1.3683 -1.5957
45813SOL    HW242760   7.516   9.896   4.488 -0.3042 -1.4906 -1.3907
45814SOL     OW42761   1.707   4.285   0.771 -0.6899 -0.1319 -0.6175
45814SOL    HW142762   1.787   4.303   0.720 -0.8961  0.8424 -0.5985
45814SOL    HW242763   1.692   4.191   0.757  0.8974 -0.5193  0.0218
45815SOL     OW42764   8.720   4.518   2.570 -0.0794  0.8698  0.0568
45815SOL    HW142765   8.631   4.485   2.582  0.0671  0.1215 -0.8140
45815SOL    HW242766   8.771   4.442   2.543  1.0047  1.1265  1.2846
45816SOL     OW42767  10.858   9.787   5.069 -0.6134 -0.5579  0.1768
45816SOL    HW142768  10.797   9.714   5.086  2.2602 -3.1288  0.2968
45816SOL    HW242769  10.877   9.780   4.976  0.5854 -0.7422  0.4272
45817SOL     OW42770   3.242  10.825   1.067 -0.0719  0.2990  0.2573
45817SOL    HW142771   3.225  10.879   1.145  0.3537  1.4168 -0.3992
45817SOL    HW242772   3.207  10.739   1.090  0.8601  0.3347  2.0458
45818SOL     OW42773   4.869   6.603   8.392  0.1662  0.3992  0.0548
45818SOL    HW142774   4.837   6.605   8.301  0.0539 -0.6074  0.0660
45818SOL    HW242775   4.869   6.695   8.419 -0.0466  0.6852 -0.8791
45819SOL     OW42776   8.236   1.303   1.314 -0.3171  0.7265  0.1291
45819SOL    HW142777   8.262   1.386   1.354  1.4804  0.2443  0.0353
45819SOL    HW242778   8.318   1.262   1.286 -1.2547 -0.5528 -0.9029
45820SOL     OW42779   6.588   0.645  10.774  0.1365 -0.1461  0.1157
45820SOL    HW142780   6.596   0.695  10.693  1.5593 -2.0043 -0.9732
45820SOL    HW242781   6.607   0.708  10.843 -0.9799  1.4476 -0.9806
45821SOL     OW42782   5.821   5.069   7.112 -0.8641 -0.4928  0.3128
45821SOL    HW142783   5.850   4.978   7.119 -0.8628 -0.6642 -1.5745
45821SOL    HW242784   5.899   5.118   7.087 -1.0552 -0.0950  0.4796
45822SOL     OW42785   9.644   6.224   5.727 -0.4630 -0.5961 -0.0394
45822SOL    HW142786   9.622   6.283   5.799 -0.4600  1.0434 -1.3260
45822SOL    HW242787   9.726   6.183   5.755  0.1305  0.8388  0.4403
45823SOL     OW42788   0.816  11.798   4.378  0.0115  0.3814 -0.0722
45823SOL    HW142789   0.791  11.858   4.448  0.1064 -0.1399  0.4217
45823SOL    HW242790   0.835  11.715   4.423  2.4324  0.6764 -0.4328
45824SOL     OW42791   9.059   9.843   5.261  0.2914  0.3313  0.3097
45824SOL    HW142792   8.969   9.828   5.290  0.3843 -0.3309  0.2731
45824SOL    HW242793   9.105   9.870   5.341  0.1255  0.4013  0.3827
45825SOL     OW42794   0.464   3.096   9.310 -0.2441 -0.3702 -0.3809
45825SOL    HW142795   0.555   3.105   9.337 -0.2767 -0.8786 -0.0857
45825SOL    HW242796   0.426   3.035   9.374 -0.9190  0.2291 -0.1905
45826SOL     OW42797   2.660   2.457   1.397 -0.3621  0.3090  0.1410
45826SOL    HW142798   2.675   2.363   1.401  0.0544  0.4064  1.2067
45826SOL    HW242799   2.668   2.486   1.488  0.7174  1.5458 -0.3209
45827SOL     OW42800   7.735   3.539   0.703  0.2755 -0.0584  0.3044
45827SOL    HW142801   7.657   3.584   0.737 -1.1434 -0.4017 -2.1992
45827SOL    HW242802   7.754   3.585   0.621  1.5640 -1.2036 -0.0714
45828SOL     OW42803   6.242   9.071   9.215  0.0903 -0.0633 -0.2013
45828SOL    HW142804   6.146   9.068   9.211  0.0455 -0.1598  0.7571
45828SOL    HW242805   6.267   8.987   9.251  0.3490  0.9456  2.1631
45829SOL     OW42806  11.353   9.506  11.604 -0.8137  0.3786 -1.0280
45829SOL    HW142807  11.264   9.488  11.633 -0.4989  1.3741  0.6669
45829SOL    HW242808  11.364   9.600  11.619  0.5392  0.2561 -1.1860
45830SOL     OW42809   6.314   7.059   0.601 -0.3936  0.7581  0.2489
45830SOL    HW142810   6.402   7.081   0.570 -0.0500  1.8314  1.8257
45830SOL    HW242811   6.297   7.123   0.671 -1.3572 -1.0675  1.7649
45831SOL     OW42812  10.576   9.871  11.598  0.0367 -0.2482  0.8525
45831SOL    HW142813  10.649   9.927  11.626  0.1813 -0.6233  1.2278
45831SOL    HW242814  10.537   9.918  11.524  0.0997  0.4000  1.2243
45832SOL     OW42815   1.034   2.483  11.716 -0.0672  0.0737 -0.5002
45832SOL    HW142816   0.991   2.398  11.727  0.5611 -0.2521 -0.5135
45832SOL    HW242817   1.082   2.495  11.798  0.3352  0.1303 -0.7444
45833SOL     OW42818  10.028   0.319   3.715 -0.3459 -0.5065 -0.0928
45833SOL    HW142819  10.089   0.363   3.656 -0.4657 -0.1745  0.0297
45833SOL    HW242820   9.997   0.243   3.666 -0.4509 -0.2291 -0.4581
45834SOL     OW42821   9.477   4.827   8.557  0.5563 -0.3869 -0.3586
45834SOL    HW142822   9.461   4.921   8.556 -0.8161 -0.5845 -2.2205
45834SOL    HW242823   9.560   4.816   8.510  0.1987 -0.1586 -1.0586
45835SOL     OW42824  11.381  10.307   3.297  0.2706 -0.0497  0.9829
45835SOL    HW142825  11.327  10.353   3.233 -0.2346  0.4302  1.7274
45835SOL    HW242826  11.379  10.363   3.375  1.1812 -0.4273  1.3001
45836SOL     OW42827   8.530   1.693   8.533  0.2697 -0.3317 -0.0381
45836SOL    HW142828   8.481   1.758   8.584  0.0206 -0.0151 -0.6732
45836SOL    HW242829   8.594   1.658   8.595 -0.4502 -0.4176  0.6739
45837SOL     OW42830   2.722   9.736   4.347 -0.2024  0.1207  0.7230
45837SOL    HW142831   2.669   9.809   4.315 -0.0154 -0.1702 -0.2742
45837SOL    HW242832   2.660   9.665   4.362 -0.0637 -0.3656 -0.8758
45838SOL     OW42833   1.136   7.598   7.038 -0.0502  0.7043 -0.6828
45838SOL    HW142834   1.162   7.661   7.104 -2.6321  0.6090  0.5635
45838SOL    HW242835   1.040   7.606   7.033 -0.5134 -2.9323 -0.5907
45839SOL     OW42836   9.281  10.002   2.724 -0.1180 -0.4017  0.7582
45839SOL    HW142837   9.290  10.087   2.767 -1.5505 -0.1875  0.6826
45839SOL    HW242838   9.364   9.958   2.740  1.5548  1.8395 -1.0467
45840SOL     OW42839   6.648   5.827   5.431 -0.1143 -0.5256  0.0611
45840SOL    HW142840   6.743   5.813   5.437 -0.2045 -1.5108 -0.5882
45840SOL    HW242841   6.616   5.752   5.382 -1.1704  0.0723 -0.1956
45841SOL     OW42842   6.701   3.992   3.859 -0.2423  0.5976  0.1717
45841SOL    HW142843   6.704   4.052   3.785 -2.1280 -0.7951 -1.1206
45841SOL    HW242844   6.634   4.029   3.917 -1.6162 -0.3101 -0.7630
45842SOL     OW42845  11.147  11.590   7.289 -0.0575  0.1176  0.0205
45842SOL    HW142846  11.173  11.527   7.221  0.1898  0.4044 -0.1567
45842SOL    HW242847  11.221  11.592   7.350 -1.1215 -1.6823  1.4491
45843SOL     OW42848   9.592   9.406   4.618 -0.0714 -0.2355 -0.3100
45843SOL    HW142849   9.579   9.394   4.524  1.6083 -1.1184 -0.4692
45843SOL    HW242850   9.631   9.323   4.647  0.7375  0.5435  0.8956
45844SOL     OW42851   0.907   8.224   9.243 -0.0273  0.5919  0.1374
45844SOL    HW142852   0.959   8.304   9.237 -0.6608  0.9129 -1.2975
45844SOL    HW242853   0.836   8.236   9.181 -0.0926 -1.1325 -0.1732
45845SOL     OW42854   6.296   0.739   2.631 -0.5496 -0.2596 -0.0962
45845SOL    HW142855   6.201   0.729   2.631 -0.5372 -0.4473 -0.9329
45845SOL    HW242856   6.315   0.787   2.550  0.0249  0.2280  0.3179
45846SOL     OW42857   3.692   7.592   7.848 -0.3439 -0.0175 -0.4493
45846SOL    HW142858   3.616   7.595   7.790  1.2102  0.4149 -2.5625
45846SOL    HW242859   3.668   7.650   7.921 -1.9549  0.2213 -1.1211
45847SOL     OW42860   8.929   9.325   3.465  0.1276  0.3735 -0.1643
45847SOL    HW142861   8.852   9.371   3.497 -0.4624 -0.0898 -0.8930
45847SOL    HW242862   8.988   9.396   3.436 -1.4989  0.7471 -2.9594
45848SOL     OW42863   7.949   4.641   3.673  0.8341  0.2947  0.0101
45848SOL    HW142864   7.958   4.567   3.614  1.1430 -1.9432  2.6418
45848SOL    HW242865   8.036   4.681   3.676  0.3197  1.7831 -2.5249
45849SOL     OW42866   8.684  11.208   7.369 -0.1484 -0.1611 -0.5213
45849SOL    HW142867   8.710  11.265   7.442  0.1263 -2.8352  1.6527
45849SOL    HW242868   8.745  11.229   7.299 -0.1661  2.2768  0.0881
45850SOL     OW42869   7.861   4.446   6.817  0.4023 -0.3760 -0.3947
45850SOL    HW142870   7.931   4.380   6.811  0.2811 -0.8858  2.5829
45850SOL    HW242871   7.907   4.530   6.819  0.5799 -0.2488 -3.6163
45851SOL     OW42872   1.837   7.288   2.836 -0.0842 -0.0388  0.4976
45851SOL    HW142873   1.749   7.274   2.803  0.0690 -0.8218  0.4085
45851SOL    HW242874   1.827   7.354   2.905 -0.5932  0.6105 -0.1876
45852SOL     OW42875   5.097   2.864   4.354 -0.0002 -0.5891 -0.0480
45852SOL    HW142876   5.177   2.824   4.389 -1.6250 -1.9806  2.2599
45852SOL    HW242877   5.068   2.924   4.423 -0.8574  0.0898 -0.9713
45853SOL     OW42878   7.876   2.004   9.308 -0.4409  0.3610  0.3832
45853SOL    HW142879   7.798   2.004   9.365 -1.3846  0.8804 -0.8686
45853SOL    HW242880   7.925   1.927   9.336 -0.5225  0.9657  2.3557
45854SOL     OW42881   1.991   5.258   4.119 -0.4255  0.4166 -0.0764
45854SOL    HW142882   1.978   5.350   4.139  0.1872  0.6160 -0.5484
45854SOL    HW242883   1.971   5.251   4.025  1.0210  0.3890 -0.4042
45855SOL     OW42884  11.541   4.965   9.093 -0.0724  0.1024  0.0594
45855SOL    HW142885  11.491   5.017   9.155 -1.9992 -0.2377 -1.1286
45855SOL    HW242886  11.605   4.919   9.147  0.1284  1.8474  1.4244
45856SOL     OW42887  11.387   5.282   8.790 -0.4619  0.4102 -0.4115
45856SOL    HW142888  11.395   5.199   8.837  2.5651  1.0041  0.3983
45856SOL    HW242889  11.386   5.348   8.859  1.7443  1.1939 -1.0436
45857SOL     OW42890   0.582   5.088  10.296  0.0832  0.0298  0.2684
45857SOL    HW142891   0.538   5.153  10.350  0.0635  0.8933 -0.7451
45857SOL    HW242892   0.673   5.118  10.292 -0.1494  0.6336 -1.0869
45858SOL     OW42893   1.865   4.416   0.426 -0.2185 -0.3289 -0.1291
45858SOL    HW142894   1.883   4.326   0.451  0.3504  0.1463  1.2710
45858SOL    HW242895   1.855   4.463   0.509 -0.1637  0.9587 -0.8227
45859SOL     OW42896   7.833   4.315   6.017  0.4357  0.6967 -0.5280
45859SOL    HW142897   7.847   4.404   5.983  1.8842  0.2234 -1.2827
45859SOL    HW242898   7.809   4.328   6.109  2.0450  1.8534 -0.2165
45860SOL     OW42899   8.239   9.438   4.952 -0.1745 -1.1255  0.1814
45860SOL    HW142900   8.241   9.343   4.938 -0.3369 -1.3316  1.4601
45860SOL    HW242901   8.159   9.453   5.001  1.8802 -0.9424  3.8383
45861SOL     OW42902   0.811   2.209   8.682 -0.4199 -0.3973  0.3897
45861SOL    HW142903   0.868   2.161   8.621  1.0845  3.2956 -1.4266
45861SOL    HW242904   0.727   2.215   8.636 -1.1877 -2.5356  1.3759
45862SOL     OW42905   6.821   0.113   4.952  0.0606 -0.0847 -0.7225
45862SOL    HW142906   6.762   0.188   4.946  0.3055  0.0717 -1.2628
45862SOL    HW242907   6.805   0.076   5.039 -0.2886  0.4034 -0.5780
45863SOL     OW42908   5.541   7.283   0.353 -0.9530 -0.5687 -0.7331
45863SOL    HW142909   5.602   7.293   0.280 -0.5106  1.5314 -0.1498
45863SOL    HW242910   5.462   7.329   0.325 -1.0586 -0.4139 -0.1920
45864SOL     OW42911   0.709   9.518   5.830 -0.2920  0.0323  0.2636
45864SOL    HW142912   0.702   9.588   5.765 -0.1214 -1.8642 -1.9326
45864SOL    HW242913   0.631   9.527   5.883 -0.6454  1.4365 -0.4478
45865SOL     OW42914   1.271  11.580   0.135 -0.2263 -0.0563 -0.3362
45865SOL    HW142915   1.217  11.609   0.062  0.6202  0.8312 -0.6407
45865SOL    HW242916   1.287  11.659   0.186  0.2811 -0.4130  0.0748
45866SOL     OW42917   1.658   9.821   2.366 -0.0337 -0.5805  0.0135
45866SOL    HW142918   1.623   9.828   2.277 -2.9410  0.2125  1.0891
45866SOL    HW242919   1.640   9.731   2.392  0.9153 -0.8441 -0.2119
45867SOL     OW42920   8.897   2.013   3.142 -0.6245 -0.0427 -0.3702
45867SOL    HW142921   8.884   2.083   3.078 -1.7136 -0.0197 -0.1389
45867SOL    HW242922   8.897   1.932   3.090 -1.1459  0.0026 -0.4461
45868SOL     OW42923   1.451   5.820  10.441 -0.2008  0.2313 -0.0845
45868SOL    HW142924   1.514   5.756  10.410 -0.9184 -0.6860  0.3094
45868SOL    HW242925   1.370   5.800  10.393 -0.5682  0.5274  0.3993
45869SOL     OW42926   8.704   8.128  11.260  0.3045 -0.1417 -0.4973
45869SOL    HW142927   8.623   8.137  11.311  0.3783 -0.9293 -0.2168
45869SOL    HW242928   8.767   8.185  11.305 -1.1165  3.9165 -3.1461
45870SOL     OW42929   7.695   7.541   8.724 -0.2787  0.1550  0.3178
45870SOL    HW142930   7.606   7.562   8.694  0.7317  1.8114 -1.7447
45870SOL    HW242931   7.721   7.466   8.670  0.2425  0.8564 -0.4141
45871SOL     OW42932   3.535   8.614  10.176 -0.8317 -0.5242  0.0464
45871SOL    HW142933   3.478   8.542  10.147 -0.3426 -1.4156  1.2674
45871SOL    HW242934   3.618   8.573  10.197 -0.2041  0.5596 -0.2107
45872SOL     OW42935   7.077   6.112   2.326  0.8963 -0.0879  0.4992
45872SOL    HW142936   7.109   6.087   2.413  0.1500  0.5999  0.9868
45872SOL    HW242937   7.004   6.171   2.343 -0.7234 -1.6542 -0.5628
45873SOL     OW42938   7.998   6.013  11.570  0.6432  0.3348 -0.5788
45873SOL    HW142939   7.990   6.055  11.485  0.1218  0.4573 -0.4696
45873SOL    HW242940   8.033   5.926  11.551  0.9070  0.5075 -0.8811
45874SOL     OW42941   2.753   6.958   7.741  0.3073  0.0345 -0.4943
45874SOL    HW142942   2.708   6.998   7.667  1.3911 -0.4114 -1.4399
45874SOL    HW242943   2.690   6.959   7.812 -0.9312  0.0463 -1.5668
45875SOL     OW42944   1.039   0.407  11.543 -0.1806 -0.2187  0.1705
45875SOL    HW142945   1.064   0.492  11.580  0.4388  0.1722 -1.0736
45875SOL    HW242946   1.000   0.429  11.458 -3.4897 -0.9331  1.3822
45876SOL     OW42947   4.774   0.215  10.094 -0.6732 -0.0557 -0.2448
45876SOL    HW142948   4.793   0.307  10.113 -0.3958 -0.2003  0.1764
45876SOL    HW242949   4.778   0.171  10.179  1.0440 -0.8008 -0.6803
45877SOL     OW42950   7.993   6.080   5.675  0.4737 -0.1591  0.8255
45877SOL    HW142951   7.972   6.068   5.583 -1.8776  1.0378  1.1413
45877SOL    HW242952   8.055   6.009   5.695 -0.0465 -1.2910 -1.2951
45878SOL     OW42953   8.681   5.719   7.838  0.2171 -0.3327 -0.1021
45878SOL    HW142954   8.625   5.716   7.761  0.6948 -1.2609 -0.4257
45878SOL    HW242955   8.624   5.691   7.910  0.4870 -2.3387 -0.5959
45879SOL     OW42956   3.895   4.049   1.739 -0.1862 -0.1326  0.4355
45879SOL    HW142957   3.885   3.962   1.776  0.0469 -0.4969 -0.3344
45879SOL    HW242958   3.806   4.083   1.732 -0.2239  0.0141  1.4602
45880SOL     OW42959   6.181  11.492  11.224 -0.2530  0.0003  0.1319
45880SOL    HW142960   6.192  11.572  11.276  0.5918 -0.4032  0.5922
45880SOL    HW242961   6.132  11.433  11.281  0.8301 -0.5071  0.5458
45881SOL     OW42962   0.008   6.808  10.747  0.1923  0.3321  0.2165
45881SOL    HW142963  -0.023   6.834  10.834 -0.1532  0.5613  0.0292
45881SOL    HW242964  -0.053   6.739  10.719  0.3230  0.2342  0.1734
45882SOL     OW42965   5.621   9.673   6.992  0.0691 -0.1638  0.4980
45882SOL    HW142966   5.625   9.687   7.086 -0.7156  0.7761  0.4151
45882SOL    HW242967   5.639   9.580   6.980  0.7059 -0.1916  1.5252
45883SOL     OW42968  11.387   9.281   3.142 -0.5462 -0.4096  0.1408
45883SOL    HW142969  11.470   9.274   3.095 -0.6704 -0.2660 -0.1005
45883SOL    HW242970  11.321   9.289   3.073 -0.6470  0.6870  0.3528
45884SOL     OW42971   3.804   2.561   0.984  0.7666  0.3022  0.3016
45884SOL    HW142972   3.890   2.532   0.955  0.2627  0.2363 -1.2319
45884SOL    HW242973   3.747   2.485   0.971  0.4950  0.2920  1.4540
45885SOL     OW42974   7.966   4.556   6.309  0.2375  0.2706 -0.7792
45885SOL    HW142975   7.901   4.555   6.239  0.3131 -1.5008 -0.8508
45885SOL    HW242976   7.918   4.589   6.385 -0.2145  0.8328 -1.2896
45886SOL     OW42977   5.336   2.993   0.076  0.2733  0.3136 -0.3536
45886SOL    HW142978   5.332   3.057   0.147  1.0814 -0.4620  0.4231
45886SOL    HW242979   5.423   3.003   0.038 -0.8915  2.2248 -2.7377
45887SOL     OW42980   2.047   3.324   0.508  0.0742 -0.0542 -0.5957
45887SOL    HW142981   2.101   3.358   0.437  0.0462 -0.5742 -0.8757
45887SOL    HW242982   2.109   3.300   0.576  0.1038  0.4163 -0.4530
45888SOL     OW42983   6.026   3.237   8.462  0.3306 -0.3074 -0.7909
45888SOL    HW142984   5.977   3.311   8.497  2.2990 -0.3024  2.2437
45888SOL    HW242985   5.959   3.170   8.445 -1.2066  1.2875 -1.4276
45889SOL     OW42986   4.219   3.719   8.194  0.2727 -0.0709 -0.2634
45889SOL    HW142987   4.155   3.719   8.266  0.3255  1.2523 -0.1935
45889SOL    HW242988   4.304   3.727   8.238  0.3996 -0.5052 -0.4239
45890SOL     OW42989  10.082   9.469   0.618 -0.2239  0.0566 -0.4558
45890SOL    HW142990  10.046   9.462   0.529 -1.5187  1.0442 -0.0350
45890SOL    HW242991  10.135   9.548   0.616  2.1138 -1.4177 -1.0871
45891SOL     OW42992   5.082   2.744   9.436 -0.0788  0.0685  0.0321
45891SOL    HW142993   5.058   2.836   9.420  2.2856  0.6046 -0.7952
45891SOL    HW242994   5.157   2.749   9.495  0.7789 -1.2679 -0.9045
45892SOL     OW42995   5.635   2.920   0.372  0.1550 -0.1421 -0.4048
45892SOL    HW142996   5.729   2.932   0.366  0.0525  0.7200 -0.3338
45892SOL    HW242997   5.612   2.870   0.293  0.6569 -0.2767 -0.4641
45893SOL     OW42998   7.359   4.171   9.760 -0.4450 -0.4724 -0.4448
45893SOL    HW142999   7.305   4.128   9.827  0.0587 -0.3383  0.0652
45893SOL    HW243000   7.443   4.185   9.804  0.0818 -0.8949 -1.2946
45894SOL     OW43001   3.822   8.919   3.590  0.1850 -0.1100 -0.1550
45894SOL    HW143002   3.871   8.840   3.565 -1.4236 -1.1411 -0.2350
45894SOL    HW243003   3.865   8.990   3.542  1.5820 -0.9505 -0.2082
45895SOL     OW43004   9.638   3.115   1.388 -0.0064 -0.1772 -0.6717
45895SOL    HW143005   9.686   3.168   1.324 -0.1147  1.9490  0.9060
45895SOL    HW243006   9.594   3.179   1.445 -0.8726 -1.9853  0.8067
45896SOL     OW43007   4.918   5.161   4.635  0.1101  0.2200 -0.1109
45896SOL    HW143008   4.978   5.206   4.695  0.3430 -0.3302  0.0802
45896SOL    HW243009   4.900   5.225   4.567 -0.8375  1.1586  0.9793
45897SOL     OW43010   2.161   0.048   5.714  0.2033  0.4043 -0.5158
45897SOL    HW143011   2.196   0.114   5.774  0.0537  0.4977 -0.5311
45897SOL    HW243012   2.083   0.014   5.758  0.9997 -0.7005  0.1007
45898SOL     OW43013   1.694   2.426   3.304 -0.1136 -0.6154  0.1863
45898SOL    HW143014   1.622   2.486   3.283  0.7867  0.4015 -0.0722
45898SOL    HW243015   1.650   2.346   3.333 -1.3455  0.2936  0.9300
45899SOL     OW43016   6.565   7.606   5.951  0.4102 -0.2981 -0.3338
45899SOL    HW143017   6.650   7.561   5.952  0.6868  0.2115 -0.4648
45899SOL    HW243018   6.586   7.697   5.930 -0.0054  0.1842  1.2159
45900SOL     OW43019   7.956  10.469   3.298 -0.6651  0.1909 -0.2966
45900SOL    HW143020   7.933  10.464   3.391 -0.4584  0.0840 -0.2515
45900SOL    HW243021   7.873  10.456   3.252 -0.6175 -0.7213 -0.1407
45901SOL     OW43022   4.286   2.614   2.958  0.4162 -0.2615 -0.1238
45901SOL    HW143023   4.279   2.598   2.864  0.5428  0.1954 -0.2125
45901SOL    HW243024   4.358   2.677   2.966 -0.0177  0.2008  0.2226
45902SOL     OW43025   9.409   3.958  10.252  0.5763  0.4858 -0.5978
45902SOL    HW143026   9.377   4.025  10.312  0.1345 -0.3928  0.1748
45902SOL    HW243027   9.335   3.944  10.192  0.1403 -0.2961  0.1066
45903SOL     OW43028  10.265   1.351   5.713 -0.2121  0.3489  0.2276
45903SOL    HW143029  10.345   1.374   5.664 -0.6478  1.7214  0.1269
45903SOL    HW243030  10.249   1.426   5.770 -1.3994  0.0652  0.2950
45904SOL     OW43031   9.671   3.185   3.173 -0.3417 -0.1990 -0.2561
45904SOL    HW143032   9.609   3.190   3.100 -0.9832  1.0111  0.3393
45904SOL    HW243033   9.630   3.126   3.235 -1.3223  1.2113  0.4868
45905SOL     OW43034   8.213   5.294   0.911  0.1314 -0.3429 -0.3904
45905SOL    HW143035   8.124   5.265   0.931  0.0751 -0.3016 -0.5802
45905SOL    HW243036   8.249   5.226   0.854  0.4283 -0.6586  0.1589
45906SOL     OW43037   3.429   4.264   3.793  0.0505 -0.5127  0.5088
45906SOL    HW143038   3.455   4.174   3.772  1.5108 -0.0226  0.1427
45906SOL    HW243039   3.478   4.318   3.731 -1.8952  0.4895 -0.2795
45907SOL     OW43040   2.646   5.759   8.900  0.3727 -0.0923 -0.2357
45907SOL    HW143041   2.741   5.770   8.891  0.6335 -1.5951  0.2932
45907SOL    HW243042   2.624   5.691   8.837 -0.1039 -0.7135  0.5741
45908SOL     OW43043  10.832   9.933  10.752  0.9339 -0.4658  0.2694
45908SOL    HW143044  10.788   9.854  10.719  1.1492 -0.6320  0.3742
45908SOL    HW243045  10.925   9.910  10.751  1.0363 -0.0464 -0.1356
45909SOL     OW43046   4.674   8.139  10.623 -0.1738 -0.1151 -0.2335
45909SOL    HW143047   4.744   8.198  10.651 -0.6759  0.4479 -0.1485
45909SOL    HW243048   4.704   8.052  10.650  0.9703 -0.0200 -1.1195
45910SOL     OW43049   4.419   5.266   1.338 -0.0696  0.0760 -0.1460
45910SOL    HW143050   4.387   5.342   1.387  1.2596  0.5353  0.0362
45910SOL    HW243051   4.514   5.274   1.340  0.1469 -2.0586  0.6011
45911SOL     OW43052   0.867   6.485  10.005 -0.3693  0.6913  0.0848
45911SOL    HW143053   0.797   6.458   9.945 -0.8693  2.0716  0.0183
45911SOL    HW243054   0.939   6.511   9.947 -0.6217  1.4123  0.0869
45912SOL     OW43055   7.842   4.129   2.842  0.1990 -0.1579 -0.4857
45912SOL    HW143056   7.857   4.111   2.935 -1.3084 -1.7942 -0.5010
45912SOL    HW243057   7.841   4.042   2.801  1.8523  0.5895 -2.2318
45913SOL     OW43058   3.490   0.560   4.490 -0.2137 -0.2011  1.1647
45913SOL    HW143059   3.578   0.586   4.515  0.3462 -0.0726 -0.8021
45913SOL    HW243060   3.443   0.643   4.477 -0.2744 -0.2539  1.0467
45914SOL     OW43061   6.201   5.000   1.943  0.2396 -0.5624  0.6027
45914SOL    HW143062   6.107   4.980   1.935  0.2542 -0.0785 -1.2003
45914SOL    HW243063   6.214   5.076   1.887  1.7931 -0.8592  0.5181
45915SOL     OW43064   8.692   7.317  10.606  0.0879 -0.0136  0.5379
45915SOL    HW143065   8.680   7.407  10.576  0.9238 -0.1459 -0.2219
45915SOL    HW243066   8.786   7.305  10.611  0.0747 -1.5661 -1.6355
45916SOL     OW43067   2.071   5.077   8.262  0.0194 -0.1617 -0.3378
45916SOL    HW143068   2.105   4.989   8.275 -0.7617 -0.3722  0.3889
45916SOL    HW243069   1.976   5.066   8.257 -0.0428  0.5696 -0.8789
45917SOL     OW43070   7.410   4.705   3.774 -0.4830  0.2296  0.0127
45917SOL    HW143071   7.329   4.743   3.741 -0.9642  0.2709  1.1797
45917SOL    HW243072   7.424   4.748   3.858 -0.6258 -1.5567  1.0100
45918SOL     OW43073   9.369   8.932   6.537  0.1982 -0.6887 -0.5521
45918SOL    HW143074   9.384   8.922   6.443 -0.4082  0.6827 -0.8169
45918SOL    HW243075   9.457   8.931   6.575  0.5862  0.6752 -1.3553
45919SOL     OW43076   5.666   5.310  10.977  0.3871 -0.0793 -0.6036
45919SOL    HW143077   5.716   5.347  11.050 -0.7092 -0.4024  0.3481
45919SOL    HW243078   5.632   5.227  11.011  0.8932 -0.8688 -1.9256
45920SOL     OW43079   2.743   9.561   1.662 -0.1686 -0.2082 -0.8483
45920SOL    HW143080   2.664   9.507   1.661  0.0171 -0.5774  0.7547
45920SOL    HW243081   2.805   9.514   1.606 -0.9882 -0.0319 -1.9362
45921SOL     OW43082   1.224   5.361  11.718 -0.5442 -0.5396  0.2269
45921SOL    HW143083   1.146   5.337  11.668 -0.4909 -0.1162 -0.0622
45921SOL    HW243084   1.249   5.447  11.684  1.0761 -1.4142 -0.9109
45922SOL     OW43085   3.810  10.670   3.820 -0.0967 -0.3763 -0.0704
45922SOL    HW143086   3.887  10.706   3.863  0.6377 -2.7473  0.7606
45922SOL    HW243087   3.820  10.696   3.728  0.0922  1.8481  0.5272
45923SOL     OW43088  11.660   9.954   3.638  0.1901  0.0985 -0.1364
45923SOL    HW143089  11.675  10.047   3.621 -0.0521  0.1083 -0.3003
45923SOL    HW243090  11.574   9.936   3.600  0.7961 -0.4832 -1.2822
45924SOL     OW43091   9.072  11.754   8.634  0.0974 -0.3913 -0.1788
45924SOL    HW143092   9.081  11.848   8.616  0.2550 -0.4011 -0.1548
45924SOL    HW243093   9.156  11.729   8.673  0.9702 -1.0370 -2.3299
45925SOL     OW43094  11.661   2.874   4.161 -0.2775  0.6043  0.2478
45925SOL    HW143095  11.630   2.797   4.114  1.3764 -0.1699  0.3903
45925SOL    HW243096  11.600   2.882   4.235 -1.0034 -0.0199 -0.2622
45926SOL     OW43097   4.510   8.451   5.607  0.3046  0.5890 -0.6504
45926SOL    HW143098   4.513   8.355   5.607 -0.2576  0.4933  1.8878
45926SOL    HW243099   4.581   8.477   5.667 -1.1866  1.5818  0.7696
45927SOL     OW43100   3.065   6.471   9.457 -0.3718 -0.7478  0.0254
45927SOL    HW143101   2.995   6.489   9.519 -0.2491  1.6419 -0.4230
45927SOL    HW243102   3.143   6.459   9.512 -0.4616  0.2908  0.3934
45928SOL     OW43103   4.784  10.122   7.450  0.2838  0.6178  0.3765
45928SOL    HW143104   4.824  10.186   7.508 -0.0175 -0.9646  2.4580
45928SOL    HW243105   4.852  10.057   7.435 -0.6139 -0.7173  1.7760
45929SOL     OW43106   4.251  10.260   6.380  0.8699  0.0272 -0.4155
45929SOL    HW143107   4.183  10.315   6.416  0.5847 -0.8184  0.3789
45929SOL    HW243108   4.232  10.172   6.414  2.2120 -0.2677 -0.3536
45930SOL     OW43109   0.071  10.782   2.564 -0.0640  0.2966  0.7546
45930SOL    HW143110   0.056  10.698   2.521 -0.6751  1.2786 -1.1015
45930SOL    HW243111  -0.011  10.799   2.611 -1.7575  1.7112 -2.3675
45931SOL     OW43112  10.321   3.330   4.556  0.1538  0.6167  0.1244
45931SOL    HW143113  10.348   3.410   4.600  0.5484  0.2264  0.6047
45931SOL    HW243114  10.299   3.270   4.627 -0.4360  0.3942 -0.2342
45932SOL     OW43115   0.204   6.217   9.368  0.0377  0.3630  0.1349
45932SOL    HW143116   0.268   6.287   9.357 -0.1162  0.7134  1.3762
45932SOL    HW243117   0.179   6.221   9.460 -0.4668 -0.9063  0.0730
45933SOL     OW43118   7.875   7.970   4.608 -0.5087 -0.1384 -0.2240
45933SOL    HW143119   7.969   7.983   4.593 -0.3481 -0.0201  0.8021
45933SOL    HW243120   7.845   8.053   4.644 -0.7926 -0.5119  0.4140
45934SOL     OW43121  10.715   7.119   6.207  0.3416  0.1927  0.7257
45934SOL    HW143122  10.644   7.061   6.180  0.2481  0.9531 -0.7551
45934SOL    HW243123  10.685   7.158   6.288 -1.8244  1.9157 -0.7878
45935SOL     OW43124  11.452   7.628   3.821 -0.7163  0.1789 -0.2365
45935SOL    HW143125  11.467   7.557   3.883  0.5968 -0.6878 -1.4877
45935SOL    HW243126  11.479   7.708   3.868  2.0014 -0.6470 -0.2548
45936SOL     OW43127   4.688  10.670   2.284 -0.7058 -0.3880 -0.7597
45936SOL    HW143128   4.782  10.659   2.268 -0.8030  0.9713 -2.6235
45936SOL    HW243129   4.655  10.710   2.204 -2.5428  0.9922  0.6022
45937SOL     OW43130  11.179   8.502   4.717 -0.2325 -0.4132  0.1339
45937SOL    HW143131  11.173   8.577   4.776 -0.9343  1.3184 -2.0114
45937SOL    HW243132  11.093   8.497   4.675  0.3397 -1.3890 -0.9794
45938SOL     OW43133   0.744  11.481   2.566  0.2984  0.3532 -0.4221
45938SOL    HW143134   0.722  11.444   2.480  2.1052 -1.9286 -0.0125
45938SOL    HW243135   0.662  11.520   2.597 -0.8232 -0.2191 -2.4815
45939SOL     OW43136   4.796   6.362   6.790 -0.0274  0.3418  0.3313
45939SOL    HW143137   4.890   6.342   6.791  0.5050  2.5486  2.5017
45939SOL    HW243138   4.755   6.278   6.771  2.3356 -0.8192 -0.1166
45940SOL     OW43139   1.427   8.688   3.001 -0.5757 -0.3909 -0.2794
45940SOL    HW143140   1.376   8.769   2.995  1.3944  0.9837  0.4622
45940SOL    HW243141   1.410   8.644   2.918  0.0057  1.8772 -1.6922
45941SOL     OW43142   6.936   1.661   0.676  0.5896  0.7625 -0.3881
45941SOL    HW143143   6.957   1.754   0.687 -2.0638  1.3208  0.9185
45941SOL    HW243144   6.843   1.655   0.698  0.7941 -2.3263  0.1155
45942SOL     OW43145   1.093   2.486   8.101  0.3693  0.2089  0.1086
45942SOL    HW143146   1.150   2.560   8.079 -0.2468  0.2640 -1.4115
45942SOL    HW243147   1.005   2.523   8.101  0.0985 -0.4249 -0.1677
45943SOL     OW43148   8.358   2.523   2.301 -0.5563 -0.1335 -0.5450
45943SOL    HW143149   8.435   2.578   2.313 -0.2951 -0.0229 -2.4032
45943SOL    HW243150   8.320   2.552   2.218 -1.0226 -2.0287 -1.0504
45944SOL     OW43151   9.837   3.343   7.215 -0.4330 -0.2967 -0.6923
45944SOL    HW143152   9.857   3.298   7.133 -0.3982 -1.3908 -0.0979
45944SOL    HW243153   9.916   3.393   7.234 -0.6882  0.5152 -1.6609
45945SOL     OW43154  11.682   4.764   6.686 -0.7188  0.0841  0.0342
45945SOL    HW143155  11.603   4.726   6.726 -0.0877 -1.7269 -0.3325
45945SOL    HW243156  11.701   4.842   6.738 -0.6584 -1.4728  2.4732
45946SOL     OW43157   5.502  10.830   7.718  0.1041  0.1759  0.7017
45946SOL    HW143158   5.484  10.812   7.626  1.0216  0.2303  0.5030
45946SOL    HW243159   5.419  10.812   7.763 -0.4345  0.4393 -0.1682
45947SOL     OW43160  11.355   9.512   9.608 -0.3897  0.1056  0.6343
45947SOL    HW143161  11.339   9.570   9.683 -1.6472 -1.2029  1.4130
45947SOL    HW243162  11.279   9.454   9.606  0.7115 -1.3515 -0.2931
45948SOL     OW43163   4.504   2.307   4.947 -0.3424 -0.1025 -0.0467
45948SOL    HW143164   4.589   2.264   4.948  0.1063  0.7632  0.4292
45948SOL    HW243165   4.474   2.303   5.038  0.3664  1.8068  0.3260
45949SOL     OW43166  10.232   1.917   5.405  0.7003 -0.3497  0.5570
45949SOL    HW143167  10.175   1.993   5.416  0.8487 -0.1320 -0.1215
45949SOL    HW243168  10.217   1.864   5.483  0.6560  0.4164  1.0822
45950SOL     OW43169   6.338  11.139   7.097  0.1469 -0.1249  0.4395
45950SOL    HW143170   6.247  11.113   7.105 -0.2356  0.4475 -1.5477
45950SOL    HW243171   6.384  11.059   7.071 -0.1979  0.0786 -0.8374
45951SOL     OW43172   5.824   6.269  10.620 -0.1071 -0.7816 -0.3591
45951SOL    HW143173   5.843   6.307  10.534 -1.2649 -0.7099 -0.5918
45951SOL    HW243174   5.884   6.315  10.680  1.6768 -1.7737 -1.2976
45952SOL     OW43175   0.996   0.051  10.316  0.0352  0.2752  0.4337
45952SOL    HW143176   1.010   0.083  10.227  0.4553 -0.3638  0.2668
45952SOL    HW243177   0.954   0.124  10.361 -0.1706  0.6078 -0.2857
45953SOL     OW43178   5.481   0.768   1.124 -0.5305 -0.3403 -0.6735
45953SOL    HW143179   5.574   0.784   1.112 -0.0705 -1.9966  0.3226
45953SOL    HW243180   5.448   0.846   1.169  0.5256 -0.0424 -0.4083
45954SOL     OW43181   9.328  10.044   6.749 -0.2718 -0.6693 -0.0702
45954SOL    HW143182   9.269  10.106   6.706 -0.1064 -0.3597  0.1454
45954SOL    HW243183   9.365   9.992   6.678 -1.2843 -1.2952 -0.1591
45955SOL     OW43184   7.011   1.596   8.266  0.0889  0.3862  0.1184
45955SOL    HW143185   6.946   1.594   8.336 -1.3133 -0.7776 -1.1397
45955SOL    HW243186   7.064   1.673   8.284 -0.2440  0.1424  2.4177
45956SOL     OW43187   1.857   2.695   2.576  0.1267  0.6304  0.3476
45956SOL    HW143188   1.854   2.698   2.480 -0.1736 -1.0564  0.2801
45956SOL    HW243189   1.931   2.751   2.599 -1.0548  2.7793 -0.7183
45957SOL     OW43190   1.834   3.038   4.409  0.2912 -0.0206  0.0146
45957SOL    HW143191   1.787   2.957   4.428  2.0746 -0.9528  0.6942
45957SOL    HW243192   1.800   3.101   4.472  0.4348 -0.8630  0.9587
45958SOL     OW43193   9.498   7.174   0.748  0.1678  0.2370 -0.0072
45958SOL    HW143194   9.572   7.230   0.770  0.4464  0.2483 -0.9435
45958SOL    HW243195   9.529   7.120   0.675 -0.5176 -0.2463  0.0444
45959SOL     OW43196   7.461   0.037   0.462  1.0005 -0.5110 -0.3658
45959SOL    HW143197   7.454   0.062   0.370 -1.3520 -1.0693 -0.3916
45959SOL    HW243198   7.502  -0.049   0.461  2.7666  0.2851 -0.7117
45960SOL     OW43199  11.439   9.598   8.959  0.6880  0.0705 -0.3264
45960SOL    HW143200  11.392   9.636   8.885  0.8841  1.6025  0.2920
45960SOL    HW243201  11.452   9.506   8.935 -3.7629 -0.8667  0.0125
45961SOL     OW43202   7.440   0.273   9.642 -0.3962  0.3226  0.2190
45961SOL    HW143203   7.345   0.263   9.635 -0.1597 -1.1148 -1.5902
45961SOL    HW243204   7.463   0.222   9.719 -1.0048 -0.0935  0.1399
45962SOL     OW43205   7.802  10.263   4.947  0.2664 -0.1721  0.1056
45962SOL    HW143206   7.855  10.341   4.932  0.6837 -0.5593 -0.5099
45962SOL    HW243207   7.712  10.293   4.944  0.4076  0.1995 -0.7007
45963SOL     OW43208   1.335   7.997   6.454 -0.3893 -0.4013  0.1580
45963SOL    HW143209   1.366   7.908   6.470  0.1912 -0.3097 -0.4319
45963SOL    HW243210   1.254   8.004   6.505 -1.4104 -1.8543 -1.1823
45964SOL     OW43211   5.086   5.458   0.361 -0.0998 -0.5691  0.4204
45964SOL    HW143212   5.182   5.457   0.370 -0.1917 -1.3389  1.5569
45964SOL    HW243213   5.070   5.431   0.271  0.7562 -0.5868  0.2653
45965SOL     OW43214   1.547   4.353   5.474 -0.4750  0.1152  0.0865
45965SOL    HW143215   1.542   4.281   5.411 -2.1156  0.4500 -0.2330
45965SOL    HW243216   1.586   4.426   5.425  0.2243 -0.2495  0.1003
45966SOL     OW43217   8.859   5.274   0.419  0.0099 -0.1460 -0.1627
45966SOL    HW143218   8.823   5.271   0.507 -0.9406 -3.0686 -0.5200
45966SOL    HW243219   8.942   5.226   0.425  0.2463  0.1728 -0.7486
45967SOL     OW43220   6.389  10.388  10.043  0.0171  0.0558  0.3174
45967SOL    HW143221   6.459  10.398   9.978 -1.8045  0.2555 -1.7492
45967SOL    HW243222   6.385  10.473  10.087  1.5284 -0.2013  0.9990
45968SOL     OW43223   2.094  11.742   9.177  0.1563 -0.2661 -0.0606
45968SOL    HW143224   2.187  11.746   9.202  0.8870  0.5060 -2.6228
45968SOL    HW243225   2.081  11.817   9.120 -2.0635 -0.4194  0.1707
45969SOL     OW43226   3.406   4.001   4.437  0.0761 -0.3412 -0.2177
45969SOL    HW143227   3.412   4.090   4.402 -0.1192 -1.2758 -2.8243
45969SOL    HW243228   3.458   3.948   4.378 -0.5522 -2.1317  0.7523
45970SOL     OW43229   7.243   0.864   4.332 -0.2596  0.8870  0.1024
45970SOL    HW143230   7.181   0.873   4.404 -1.1599 -0.3813 -0.4726
45970SOL    HW243231   7.300   0.792   4.357  0.3140  1.3574  0.1608
45971SOL     OW43232   6.148   0.867   2.221 -0.1907 -0.1664 -0.1242
45971SOL    HW143233   6.201   0.943   2.244 -0.2412 -0.0870 -0.2648
45971SOL    HW243234   6.085   0.859   2.292  0.2218 -0.4659  0.2125
45972SOL     OW43235   3.190   1.326   8.618  0.1578 -0.1420  0.6965
45972SOL    HW143236   3.206   1.232   8.627  0.9974  0.0957  1.8199
45972SOL    HW243237   3.130   1.333   8.543 -0.4963 -1.6172  1.0545
45973SOL     OW43238   6.919   7.888   5.010  0.4816 -0.0764 -0.3721
45973SOL    HW143239   6.861   7.960   4.986  1.5372  0.0323 -2.8954
45973SOL    HW243240   7.005   7.928   5.021  0.6926 -0.6748  0.2327
45974SOL     OW43241   9.941   7.140   0.338 -0.2710 -0.5263 -0.5328
45974SOL    HW143242   9.966   7.048   0.338 -0.5345 -0.6110  0.5056
45974SOL    HW243243   9.994   7.180   0.268 -0.5510 -1.5578 -1.3515
45975SOL     OW43244   3.747   8.858   9.511  0.0062 -0.1375  0.1636
45975SOL    HW143245   3.671   8.914   9.495  0.4868  0.0146 -1.7907
45975SOL    HW243246   3.793   8.900   9.584 -1.2231  0.3153  0.7090
45976SOL     OW43247   5.699  10.453   1.861  0.1624 -0.2500 -0.0560
45976SOL    HW143248   5.738  10.376   1.901  0.6433  0.2191  0.4006
45976SOL    HW243249   5.719  10.524   1.922 -0.4743  0.1921 -0.3575
45977SOL     OW43250   2.768   2.846   6.572 -0.1185  0.7427 -0.0066
45977SOL    HW143251   2.730   2.852   6.484 -0.6112  0.5730  0.1943
45977SOL    HW243252   2.724   2.915   6.622  0.4781  1.1344 -0.0015
45978SOL     OW43253   4.777   7.916   6.544 -0.0926  0.1576  0.7518
45978SOL    HW143254   4.866   7.950   6.540 -0.1628  0.3749  1.0373
45978SOL    HW243255   4.759   7.887   6.455 -0.1284  1.1205  0.4284
45979SOL     OW43256   0.012  11.789   8.606  0.1897  0.0411  0.6175
45979SOL    HW143257   0.032  11.867   8.658  0.5605  0.1240  0.3542
45979SOL    HW243258   0.097  11.759   8.575 -0.0820  0.4822 -0.6381
45980SOL     OW43259   9.979   2.383   5.215 -0.2617 -0.0009  0.2899
45980SOL    HW143260   9.886   2.398   5.197  0.2466  1.8192 -1.0526
45980SOL    HW243261  10.022   2.394   5.130  1.3116  0.3313  1.1033
45981SOL     OW43262   1.236   5.182  10.641 -0.1864 -0.0190  0.0473
45981SOL    HW143263   1.265   5.270  10.667 -2.3151  0.5832  0.5835
45981SOL    HW243264   1.199   5.194  10.553  0.5376 -0.6178 -0.3420
45982SOL     OW43265   1.223   2.485   5.113 -0.0601  0.0675  0.1714
45982SOL    HW143266   1.237   2.493   5.208  0.9434  1.0022 -0.0276
45982SOL    HW243267   1.300   2.438   5.082 -0.8432 -1.0721 -0.0727
45983SOL     OW43268   0.599   2.130   6.408 -0.1728  0.1840  0.2655
45983SOL    HW143269   0.549   2.202   6.446 -0.2667  0.6107 -0.6349
45983SOL    HW243270   0.598   2.062   6.475 -0.0821  1.0130  1.1294
45984SOL     OW43271   4.059  10.396   6.528 -0.1938 -0.0352  0.3182
45984SOL    HW143272   4.041  10.465   6.592 -0.0027  0.0634  0.2644
45984SOL    HW243273   3.974  10.381   6.486  0.2421  1.9137 -1.4073
45985SOL     OW43274   0.525  11.043   6.227  0.7984  0.3002 -0.0877
45985SOL    HW143275   0.436  11.063   6.196  0.9128 -0.8983 -1.2644
45985SOL    HW243276   0.513  10.971   6.289  0.4846  3.1044  3.4951
45986SOL     OW43277   3.704   7.168   8.901  0.4631 -0.3074 -0.0637
45986SOL    HW143278   3.792   7.206   8.908  0.3768 -0.0838 -0.1932
45986SOL    HW243279   3.645   7.239   8.925  0.3451 -0.6918  0.8232
45987SOL     OW43280  10.458   0.905   4.219 -0.4377 -0.1403 -0.9854
45987SOL    HW143281  10.475   0.906   4.125 -2.4733  0.5898 -1.3963
45987SOL    HW243282  10.409   0.824   4.234 -0.4392 -0.0762 -0.6321
45988SOL     OW43283   8.662  10.025   8.153 -0.4664  0.1297  0.2581
45988SOL    HW143284   8.683   9.997   8.242  2.1040 -1.2950 -0.6777
45988SOL    HW243285   8.647   9.944   8.105  1.9794  0.4979 -1.3679
45989SOL     OW43286  11.165   7.079   5.119  0.4121  0.9126  0.4618
45989SOL    HW143287  11.083   7.065   5.071  0.3520 -0.1487  0.8521
45989SOL    HW243288  11.142   7.065   5.211  0.4825  3.1438  0.8746
45990SOL     OW43289  11.519   0.819   7.161  0.3468  0.3036  0.4364
45990SOL    HW143290  11.540   0.844   7.071 -2.3846 -2.4999 -1.1829
45990SOL    HW243291  11.432   0.856   7.176  1.3906  2.0912  2.6476
45991SOL     OW43292   3.785   3.860   9.812  0.0959  0.0803 -0.1436
45991SOL    HW143293   3.743   3.820   9.889 -0.2968 -0.6695 -0.7331
45991SOL    HW243294   3.873   3.883   9.842  0.2435 -0.9938  0.3005
45992SOL     OW43295   5.061   7.219   2.973 -0.0541  0.1842 -0.1151
45992SOL    HW143296   5.006   7.200   3.049  0.2908 -0.5419 -0.0479
45992SOL    HW243297   5.025   7.166   2.903  1.8631 -2.0257  0.4606
45993SOL     OW43298   4.732   1.478   2.545 -0.1982 -0.2492 -0.5522
45993SOL    HW143299   4.699   1.565   2.564 -2.4000 -1.4036  1.4800
45993SOL    HW243300   4.808   1.467   2.603 -0.3110  0.0758 -0.3466
45994SOL     OW43301  10.482   4.783   8.472  0.3942  0.8872  0.1411
45994SOL    HW143302  10.548   4.756   8.408  1.7667  1.2809  1.3213
45994SOL    HW243303  10.516   4.751   8.556 -2.0908 -0.9722  0.5554
45995SOL     OW43304   8.685   6.094   6.088 -0.0626  0.3459  0.1345
45995SOL    HW143305   8.665   6.035   6.016 -0.8405  2.3810 -1.3975
45995SOL    HW243306   8.740   6.042   6.147 -1.0008 -1.9867 -0.9342
45996SOL     OW43307   7.085  11.091  11.408  0.5374  0.7198  0.2819
45996SOL    HW143308   7.015  11.026  11.411  0.4611  0.7235 -0.8639
45996SOL    HW243309   7.141  11.068  11.482 -0.0573  0.0146  0.5402
45997SOL     OW43310   9.054   7.715  10.904 -0.7584  0.3235  0.3730
45997SOL    HW143311   9.123   7.741  10.843  1.1806 -2.3841  1.2334
45997SOL    HW243312   8.999   7.656  10.853 -1.0099  0.5446  0.3866
45998SOL     OW43313   7.804   3.383  10.004  0.3407 -0.4121 -0.0246
45998SOL    HW143314   7.853   3.457  10.040 -0.3344 -0.1713  0.4282
45998SOL    HW243315   7.871   3.325   9.969  0.9225  0.1050  0.2001
45999SOL     OW43316   1.494   4.553   8.661  0.3022 -0.1587 -0.2825
45999SOL    HW143317   1.571   4.502   8.638 -0.2931  0.2723 -3.6364
45999SOL    HW243318   1.526   4.643   8.669  0.4446 -0.2504  0.1964
46000SOL     OW43319   9.192   9.768   3.882  0.1414 -0.3788 -0.6511
46000SOL    HW143320   9.216   9.728   3.798  1.1217  0.7122 -0.9237
46000SOL    HW243321   9.138   9.843   3.859  2.0471  1.1107 -0.4838
46001SOL     OW43322  10.253   5.949   5.686  0.8444 -0.2414 -0.2582
46001SOL    HW143323  10.311   5.991   5.622 -0.7490 -0.0653 -1.6728
46001SOL    HW243324  10.177   5.921   5.634 -0.7246  0.2965  1.6322
46002SOL     OW43325   5.651  10.660   3.949  0.3614 -0.4239 -0.2096
46002SOL    HW143326   5.735  10.626   3.981  0.3071  0.2224  0.6668
46002SOL    HW243327   5.589  10.590   3.968  0.4147 -0.2396  0.7211
46003SOL     OW43328   6.472   7.972   8.924  0.2389 -0.0707  0.1079
46003SOL    HW143329   6.393   7.933   8.888  0.2904  1.7944 -2.2388
46003SOL    HW243330   6.544   7.925   8.882  0.3049  1.2738 -1.3586
46004SOL     OW43331   4.996   1.190   3.906  0.2831 -0.2694 -0.0263
46004SOL    HW143332   4.987   1.112   3.852  0.6833 -1.4546  1.5521
46004SOL    HW243333   4.935   1.176   3.979 -0.2430  1.2781 -0.1215
46005SOL     OW43334   9.926   8.436   4.049 -0.0530 -0.6583  0.7145
46005SOL    HW143335   9.839   8.462   4.080  0.5158  0.1673  1.7103
46005SOL    HW243336   9.984   8.506   4.080  0.5052  0.7963 -3.0480
46006SOL     OW43337   6.024   3.298   0.436 -0.0999  0.0573  0.1338
46006SOL    HW143338   5.934   3.324   0.455 -0.2974 -0.4732 -0.0498
46006SOL    HW243339   6.062   3.373   0.391  0.6805  1.7380  3.3680
46007SOL     OW43340  10.014  10.032   1.351  0.2807 -0.3098  0.2471
46007SOL    HW143341  10.017  10.058   1.259 -1.7669 -0.0277  0.2175
46007SOL    HW243342   9.995   9.939   1.349  0.8597 -0.4403  0.4100
46008SOL     OW43343   5.839   9.612   0.768 -0.2169 -0.3923  0.0879
46008SOL    HW143344   5.799   9.525   0.764  0.4103 -0.6300 -1.9404
46008SOL    HW243345   5.836   9.644   0.678  0.4303  1.3009  0.6400
46009SOL     OW43346   3.425   5.862   5.333  0.3469  0.0267 -0.5270
46009SOL    HW143347   3.394   5.771   5.330  0.2033  0.1111 -1.7334
46009SOL    HW243348   3.364   5.910   5.278  1.2485  0.6127 -1.0233
46010SOL     OW43349   9.296   4.115  10.458 -1.3129 -0.4077 -0.1301
46010SOL    HW143350   9.337   4.056  10.521  3.1876  1.5447 -0.8063
46010SOL    HW243351   9.242   4.174  10.512  0.5714 -0.2244  1.6976
46011SOL     OW43352   9.474   4.744   7.602  0.2509  0.5339  0.2415
46011SOL    HW143353   9.458   4.765   7.694  0.6080  1.1538  0.1709
46011SOL    HW243354   9.517   4.658   7.604  1.0253  0.9212  0.7141
46012SOL     OW43355   8.554   2.409   1.579 -0.9687  0.1138 -0.6924
46012SOL    HW143356   8.566   2.348   1.652  1.2598  0.7561 -0.4560
46012SOL    HW243357   8.518   2.488   1.619  0.8693  0.7050 -0.1087
46013SOL     OW43358   7.762   6.742   6.014  0.1582 -0.4699 -0.4746
46013SOL    HW143359   7.726   6.765   5.928 -0.7624 -1.8611 -0.4969
46013SOL    HW243360   7.739   6.650   6.026  0.6423 -0.4211  1.0935
46014SOL     OW43361   2.865  10.817   7.075 -0.0393  0.5925 -0.1656
46014SOL    HW143362   2.924  10.844   7.146 -0.3635  0.5139  0.1384
46014SOL    HW243363   2.810  10.749   7.115  0.6895 -0.4585 -0.8775
46015SOL     OW43364   8.189   0.239   1.906  0.3152  0.1885 -0.2047
46015SOL    HW143365   8.256   0.194   1.958  1.0291  3.0290  1.5828
46015SOL    HW243366   8.181   0.325   1.948 -1.9199  1.2398 -2.5476
46016SOL     OW43367   3.241   0.626   7.984 -0.5800 -0.4941  0.4402
46016SOL    HW143368   3.186   0.553   8.011  0.1472 -0.4489  2.1958
46016SOL    HW243369   3.284   0.655   8.065  2.1644 -0.6562 -0.8547
46017SOL     OW43370   5.365   9.977   9.238 -0.5604 -0.5001  0.2693
46017SOL    HW143371   5.454   9.942   9.239 -0.6732 -0.7832  0.2665
46017SOL    HW243372   5.311   9.906   9.271 -0.9514 -0.7801 -0.9281
46018SOL     OW43373  10.643   6.552   0.336 -0.5137  0.3799 -0.3320
46018SOL    HW143374  10.700   6.589   0.268 -1.1106 -1.3201 -1.8676
46018SOL    HW243375  10.688   6.471   0.362 -0.8502  0.4572  0.4868
46019SOL     OW43376   1.717   9.083   1.378 -0.0806  0.0256  0.5051
46019SOL    HW143377   1.708   9.075   1.283  2.3562 -3.9819  0.3884
46019SOL    HW243378   1.715   9.177   1.395  2.0525  1.0943 -3.8706
46020SOL     OW43379  10.977   5.517   3.775  0.4289 -0.3410  0.4387
46020SOL    HW143380  11.071   5.529   3.788  0.2751 -1.1950  2.6987
46020SOL    HW243381  10.938   5.598   3.809  0.2078 -1.3934  2.9441
46021SOL     OW43382   9.932   6.520   6.201  0.2474 -0.3743  0.3693
46021SOL    HW143383  10.018   6.483   6.184 -0.6953 -1.9795 -1.3867
46021SOL    HW243384   9.919   6.509   6.295  2.5039  1.2787  0.9333
46022SOL     OW43385   1.374  10.011   0.908 -0.3816  0.1614  0.0900
46022SOL    HW143386   1.411   9.925   0.889 -0.1012  0.4631 -0.7753
46022SOL    HW243387   1.439  10.053   0.964  0.3244  0.4582 -0.9214
46023SOL     OW43388   5.127   3.026  10.543 -0.1404 -0.4431 -0.0552
46023SOL    HW143389   5.181   3.047  10.619  0.3363 -1.8389  0.0226
46023SOL    HW243390   5.043   3.069  10.560  0.7696  1.3806  0.0373
46024SOL     OW43391   0.598   0.650   0.758 -0.4309  0.0726 -0.1207
46024SOL    HW143392   0.548   0.670   0.679  1.4824  2.1728 -0.8912
46024SOL    HW243393   0.623   0.558   0.748 -1.3857 -0.0761 -1.2843
46025SOL     OW43394   7.911  11.131   8.643 -0.2303  0.2533 -0.3488
46025SOL    HW143395   8.006  11.117   8.640  0.0172  1.2395  1.6004
46025SOL    HW243396   7.897  11.209   8.590  0.0249  0.0275 -0.7556
46026SOL     OW43397   4.321   4.775   5.930 -0.0448  0.5334 -0.0528
46026SOL    HW143398   4.412   4.745   5.932  0.1965  1.3058  1.1482
46026SOL    HW243399   4.310   4.812   5.842  0.4113 -0.6712 -0.6516
46027SOL     OW43400   5.404   8.500   2.889  0.4992 -0.3572  0.1013
46027SOL    HW143401   5.341   8.545   2.832  0.8446 -1.0699 -0.8631
46027SOL    HW243402   5.350   8.442   2.943  0.2942 -0.7040 -0.4710
46028SOL     OW43403   3.936   2.872   0.403  0.6078  0.5612 -0.6540
46028SOL    HW143404   3.993   2.801   0.433  1.3779  0.8123 -1.4895
46028SOL    HW243405   3.874   2.885   0.475 -0.2343 -1.6657 -0.9186
46029SOL     OW43406   2.781   6.801   1.825  0.1435 -0.0458 -0.1464
46029SOL    HW143407   2.850   6.824   1.888 -0.8250 -1.6019  1.5823
46029SOL    HW243408   2.700   6.807   1.876 -0.5760 -2.3824 -0.8958
46030SOL     OW43409   4.426   6.229   6.648  0.8401 -0.6247 -0.4507
46030SOL    HW143410   4.505   6.216   6.700  0.8251  2.2412  0.4237
46030SOL    HW243411   4.354   6.209   6.709  0.8652  0.1263 -0.1645
46031SOL     OW43412   9.532   9.866   2.791 -0.0102  0.6756  0.3618
46031SOL    HW143413   9.598   9.856   2.860  0.6922  0.5469 -0.3093
46031SOL    HW243414   9.583   9.877   2.711 -0.8097  0.3697 -0.2038
46032SOL     OW43415   4.592   7.207   8.215  0.3461  0.6448 -0.4134
46032SOL    HW143416   4.551   7.132   8.172  0.8314  0.4823 -0.5944
46032SOL    HW243417   4.678   7.215   8.174 -0.1787  2.0769 -1.3015
46033SOL     OW43418   0.377   5.721   5.496  0.4562 -0.0380  0.2969
46033SOL    HW143419   0.437   5.656   5.533 -1.3233 -2.1641 -0.2728
46033SOL    HW243420   0.341   5.766   5.573  1.2338 -0.2084  0.7681
46034SOL     OW43421   7.672   9.773  10.889 -0.2703 -0.6667  0.3808
46034SOL    HW143422   7.603   9.714  10.920  0.6163 -1.7671  0.3277
46034SOL    HW243423   7.713   9.726  10.816  0.4592  0.0106  0.3375
46035SOL     OW43424   1.287   3.806   8.099 -0.3498 -0.3050  0.0210
46035SOL    HW143425   1.275   3.846   8.014 -0.7124  1.2792  0.7930
46035SOL    HW243426   1.306   3.714   8.080  1.6568  0.4212 -1.8601
46036SOL     OW43427   1.287   5.979   7.767 -0.0894 -0.2219 -0.0284
46036SOL    HW143428   1.209   6.006   7.816  1.4970  1.8905  1.5089
46036SOL    HW243429   1.280   6.026   7.683 -0.1825  0.4531  0.3522
46037SOL     OW43430   1.215   9.941   9.793  0.1520  1.3106  0.6649
46037SOL    HW143431   1.238   9.849   9.781 -0.0179  1.5708 -3.1609
46037SOL    HW243432   1.296   9.982   9.823  1.5025  0.4160 -1.4457
46038SOL     OW43433   8.029   4.353   3.542 -0.4640 -0.3179  0.7092
46038SOL    HW143434   7.940   4.365   3.577 -0.7241  0.1180 -0.0849
46038SOL    HW243435   8.032   4.262   3.514 -0.7016 -0.2965  0.6149
46039SOL     OW43436   7.846   1.586   8.357  0.0463  0.0467  0.1244
46039SOL    HW143437   7.807   1.647   8.419 -0.8574 -0.4575  0.0703
46039SOL    HW243438   7.938   1.582   8.382  0.1450  1.4750  0.0801
46040SOL     OW43439   5.019   4.326   6.622  0.0979 -0.1405 -0.6991
46040SOL    HW143440   5.023   4.406   6.674 -0.4700  0.9560 -2.2534
46040SOL    HW243441   5.110   4.305   6.602  0.5359 -1.9266  2.5782
46041SOL     OW43442   3.954   1.330   9.091 -0.3407 -1.1754  0.6265
46041SOL    HW143443   3.961   1.253   9.034  2.0829 -1.1114  0.7651
46041SOL    HW243444   3.995   1.303   9.173  2.3537  0.7751  0.0587
46042SOL     OW43445   3.468  11.657   7.509  0.0954  0.1095  0.1509
46042SOL    HW143446   3.497  11.592   7.573  1.8727 -0.0531 -0.7375
46042SOL    HW243447   3.482  11.741   7.551 -0.8493 -0.0315  0.7732
46043SOL     OW43448   1.599  11.700   2.828 -0.2870 -0.3569  0.3029
46043SOL    HW143449   1.644  11.624   2.792  0.2841 -0.1871  0.6470
46043SOL    HW243450   1.620  11.699   2.921 -2.5706 -1.3749  0.8848
46044SOL     OW43451   2.462  10.783   2.411 -0.0358 -0.0946  0.0505
46044SOL    HW143452   2.474  10.750   2.500 -1.0486  0.3414  0.3641
46044SOL    HW243453   2.383  10.740   2.380 -1.4833  2.0791  0.5247
46045SOL     OW43454   1.944   0.881   8.537  0.4282  0.0257  0.2363
46045SOL    HW143455   1.998   0.802   8.529 -0.1056 -0.3187 -0.1221
46045SOL    HW243456   1.957   0.911   8.627  1.4680  0.1469  0.0604
46046SOL     OW43457   3.021   5.894   3.304 -0.1444  0.3452  0.3366
46046SOL    HW143458   3.111   5.914   3.279  0.1999  1.2330  2.1494
46046SOL    HW243459   3.024   5.804   3.337 -0.6091 -0.8576 -2.5377
46047SOL     OW43460   2.605   9.281  10.461  0.2701 -0.3058 -0.2372
46047SOL    HW143461   2.643   9.216  10.401  0.3122  0.0843 -0.6392
46047SOL    HW243462   2.658   9.359  10.447  0.3886 -0.2650  0.4419
46048SOL     OW43463   5.525   1.346   4.469  0.3342  0.5474 -0.1461
46048SOL    HW143464   5.437   1.383   4.472 -0.4755 -0.9459 -2.7121
46048SOL    HW243465   5.530   1.301   4.385  2.7375 -1.4383  0.9265
46049SOL     OW43466   8.661   4.708  10.981  0.0257  0.3881 -0.4427
46049SOL    HW143467   8.718   4.782  10.999 -0.2580  0.5271 -0.1026
46049SOL    HW243468   8.601   4.705  11.055 -0.0095 -0.1400 -0.4839
46050SOL     OW43469   0.793   3.807  11.044 -0.1342 -0.8439 -0.3727
46050SOL    HW143470   0.874   3.776  11.003 -0.2923 -1.2595 -0.3753
46050SOL    HW243471   0.727   3.798  10.975  0.1337  1.1573 -0.9685
46051SOL     OW43472   3.766   9.278   8.823 -0.3666  0.0215  0.3019
46051SOL    HW143473   3.799   9.290   8.912 -2.9656  1.4491  1.1897
46051SOL    HW243474   3.715   9.197   8.826 -0.5371  0.1208  0.1534
46052SOL     OW43475   2.654  11.361   8.637  0.3991 -0.0039 -0.0648
46052SOL    HW143476   2.708  11.290   8.601  2.3211  1.1228  0.4081
46052SOL    HW243477   2.583  11.372   8.575  1.2200 -0.9883 -1.2129
46053SOL     OW43478   7.363  10.633  11.281  0.1861 -0.1911 -0.2394
46053SOL    HW143479   7.344  10.721  11.250  0.0935  0.6720  2.0700
46053SOL    HW243480   7.459  10.628  11.282  0.1961 -0.7404 -1.9193
46054SOL     OW43481   8.501   4.838   5.263  0.4725  0.3789  0.3067
46054SOL    HW143482   8.562   4.859   5.193  1.4465  0.9666  1.2992
46054SOL    HW243483   8.446   4.916   5.272 -1.3948 -0.6298 -1.4849
46055SOL     OW43484   6.329   1.209   8.284 -0.2326  0.0582  0.0606
46055SOL    HW143485   6.359   1.155   8.211 -0.6098  0.5797 -0.4918
46055SOL    HW243486   6.397   1.277   8.293 -0.6604  0.5592 -0.4382
46056SOL     OW43487   4.650   7.076   9.881 -0.1579  0.3315  0.3780
46056SOL    HW143488   4.738   7.047   9.858 -0.5067  0.7995 -1.7091
46056SOL    HW243489   4.661   7.120   9.966  1.0156 -2.3896  1.7527
46057SOL     OW43490   7.950   9.747   6.108 -0.4409  0.2861  0.3016
46057SOL    HW143491   7.896   9.818   6.142  0.7316 -0.2005  3.5092
46057SOL    HW243492   7.900   9.667   6.127 -0.4847  0.0691 -0.6750
46058SOL     OW43493   0.169   9.150   9.339  0.3073  0.2209  0.1900
46058SOL    HW143494   0.149   9.167   9.247 -1.0403 -0.6667  0.2978
46058SOL    HW243495   0.167   9.237   9.380  0.1073  0.5335 -0.4618
46059SOL     OW43496   3.250   1.432   9.429  0.0618 -0.2084 -0.1858
46059SOL    HW143497   3.219   1.518   9.403  0.4111 -0.2298 -0.6843
46059SOL    HW243498   3.171   1.385   9.458  0.0059  0.6171  1.0809
46060SOL     OW43499   5.432   9.024   1.320  0.0706  0.1364  0.1753
46060SOL    HW143500   5.505   8.966   1.342  1.1579  2.1717  2.5126
46060SOL    HW243501   5.471   9.112   1.319 -1.4828  0.9466 -3.2166
46061SOL     OW43502   8.049   7.378  10.567  0.2054  0.6401  0.6564
46061SOL    HW143503   7.953   7.375  10.569  0.1860 -0.8237 -0.6227
46061SOL    HW243504   8.069   7.464  10.530 -0.7389 -0.0603 -1.6972
46062SOL     OW43505   8.898   4.641   9.836 -0.3307 -0.5586 -0.9739
46062SOL    HW143506   8.867   4.615   9.923  0.8386 -1.5532 -0.8395
46062SOL    HW243507   8.892   4.736   9.836  0.4707 -0.4836  0.5210
46063SOL     OW43508  11.251   6.162   4.810 -0.2729 -0.0070 -0.1895
46063SOL    HW143509  11.263   6.161   4.905 -3.4194 -1.8431  0.3168
46063SOL    HW243510  11.320   6.105   4.777  2.4629  2.5905  0.5835
46064SOL     OW43511   0.212   7.313   1.575 -0.2827 -0.0217  0.0070
46064SOL    HW143512   0.149   7.350   1.513 -0.9939  0.4975  1.0167
46064SOL    HW243513   0.254   7.389   1.616  1.1261 -0.3565 -0.7439
46065SOL     OW43514   5.350   1.574   7.451  0.4793 -0.5954  0.8903
46065SOL    HW143515   5.287   1.592   7.381  1.6935 -0.2954 -0.1500
46065SOL    HW243516   5.316   1.622   7.527  0.1408  0.6273 -0.0200
46066SOL     OW43517  10.831  11.549   2.778 -0.5775  0.0380  0.0749
46066SOL    HW143518  10.764  11.501   2.827 -1.3716  0.1011 -0.9134
46066SOL    HW243519  10.782  11.616   2.730  0.2880  0.5606 -0.1075
46067SOL     OW43520   9.164   8.047   5.521 -0.6859  0.2048  0.4999
46067SOL    HW143521   9.210   8.124   5.488  0.8359 -0.1744  1.6716
46067SOL    HW243522   9.181   8.046   5.615 -0.9020 -1.4098  0.5538
46068SOL     OW43523   8.930   6.380   9.545  0.3300  0.4027  0.4815
46068SOL    HW143524   9.015   6.406   9.581  1.2042 -2.0541  0.3915
46068SOL    HW243525   8.914   6.441   9.473  3.2080 -0.4663 -1.0393
46069SOL     OW43526   4.842   6.245   2.058 -0.1411  0.3160  0.1184
46069SOL    HW143527   4.815   6.212   1.972  1.6810  0.0349 -0.3835
46069SOL    HW243528   4.785   6.200   2.120  0.7198 -2.0568 -0.7196
46070SOL     OW43529   0.869   7.571  10.147 -0.4193 -0.2304  0.5452
46070SOL    HW143530   0.923   7.602  10.220 -0.3536 -1.0197  0.8428
46070SOL    HW243531   0.924   7.507  10.102 -0.3039  0.5546 -0.4641
46071SOL     OW43532  10.881   5.012   5.822  0.2249  0.1195 -0.5110
46071SOL    HW143533  10.924   4.954   5.758  2.4876  0.1044  0.9130
46071SOL    HW243534  10.952   5.043   5.878 -1.7259 -0.7474  2.7188
46072SOL     OW43535   2.126   4.389   0.774 -0.2278 -0.4851 -0.4352
46072SOL    HW143536   2.208   4.406   0.728 -1.1712  1.5089 -1.4956
46072SOL    HW243537   2.106   4.472   0.819 -2.3916 -0.4049 -1.4305
46073SOL     OW43538   6.937   5.106   9.373 -0.4549 -0.5120  0.0408
46073SOL    HW143539   6.893   5.190   9.388  0.5594  0.2385 -1.0172
46073SOL    HW243540   6.987   5.119   9.293  0.5325 -1.8114  0.4152
46074SOL     OW43541   3.855   7.736   2.583  0.2187  0.4269 -0.0798
46074SOL    HW143542   3.817   7.713   2.668  0.0566  0.3411 -0.1747
46074SOL    HW243543   3.782   7.732   2.522  0.3680  0.3195 -0.2548
46075SOL     OW43544   4.823   8.961   8.161 -0.5088 -0.0967 -0.0779
46075SOL    HW143545   4.917   8.951   8.170 -0.4945 -1.3242 -1.3182
46075SOL    HW243546   4.792   8.980   8.250  0.6838 -1.6077  0.6976
46076SOL     OW43547  11.079   1.099   6.807  0.4099  0.2149  0.1060
46076SOL    HW143548  11.029   1.160   6.754  0.9233  0.8294  0.3234
46076SOL    HW243549  11.063   1.126   6.897  0.9843  0.2998  0.1844
46077SOL     OW43550   0.709  10.204   1.595 -0.1918  0.4251  0.2868
46077SOL    HW143551   0.714  10.208   1.499 -1.3060 -0.9436  0.1402
46077SOL    HW243552   0.797  10.178   1.622  0.1607  0.9201 -0.3482
46078SOL     OW43553   0.635   9.410   7.587 -0.1171  0.5244  0.4070
46078SOL    HW143554   0.564   9.396   7.526  0.2974  1.5884 -0.3611
46078SOL    HW243555   0.714   9.408   7.534  0.2401  1.6258  0.8512
46079SOL     OW43556   5.279   7.042   9.070 -0.6002  0.4884 -0.5349
46079SOL    HW143557   5.214   7.108   9.046  0.5614  2.2291  0.7463
46079SOL    HW243558   5.331   7.085   9.139  0.1872 -1.8198  0.4028
46080SOL     OW43559   4.566   1.046   8.644 -0.1603 -0.7063 -0.2308
46080SOL    HW143560   4.637   1.109   8.634  1.0715 -2.0320 -0.1632
46080SOL    HW243561   4.487   1.096   8.627  0.7685  0.8657 -0.1179
46081SOL     OW43562   6.257   2.999   3.666 -0.0132 -0.0547  0.2220
46081SOL    HW143563   6.300   3.051   3.734 -0.6563  0.7477  0.0374
46081SOL    HW243564   6.266   2.908   3.695  2.6760 -0.0266 -0.3308
46082SOL     OW43565   2.645   5.015   9.021  0.3544 -0.2285 -0.4769
46082SOL    HW143566   2.732   5.009   9.059 -0.2200 -1.3819  0.7417
46082SOL    HW243567   2.586   4.984   9.090 -1.0213  0.4801 -1.2876
46083SOL     OW43568   0.953   2.169   1.168 -0.2149  0.5585  0.2841
46083SOL    HW143569   1.049   2.174   1.165 -0.2463  0.9091 -0.1776
46083SOL    HW243570   0.934   2.131   1.253  0.3900 -0.7471 -0.1293
46084SOL     OW43571   0.566   0.947  11.370 -0.0724  0.3765 -0.8415
46084SOL    HW143572   0.491   1.007  11.364 -1.8814 -1.7839 -1.3459
46084SOL    HW243573   0.622   0.986  11.438 -2.2505  1.4962  0.4454
46085SOL     OW43574  11.386   2.247   3.527  0.8370 -0.4038 -0.0747
46085SOL    HW143575  11.441   2.325   3.540  0.7985 -0.6741  2.1898
46085SOL    HW243576  11.317   2.257   3.592  0.4068 -1.9607 -0.2763
46086SOL     OW43577   4.505   0.899  10.617 -0.6851  0.5967 -0.1955
46086SOL    HW143578   4.534   0.890  10.708  1.0555  0.3488 -0.7415
46086SOL    HW243579   4.428   0.842  10.611 -0.7890  0.5557  1.0898
46087SOL     OW43580   1.949   0.095   2.378 -0.7214 -0.3409  0.5791
46087SOL    HW143581   1.856   0.077   2.373 -0.5300 -1.1364 -0.6426
46087SOL    HW243582   1.968   0.147   2.299  0.1845 -1.8735 -0.2669
46088SOL     OW43583   9.535   2.908   5.568  0.3970  0.1073  0.0863
46088SOL    HW143584   9.506   2.999   5.569  0.8463  0.2507  0.9775
46088SOL    HW243585   9.630   2.913   5.582  0.6516 -0.4305 -1.3423
46089SOL     OW43586   6.340   3.350  11.146  0.8352  0.3412  0.0918
46089SOL    HW143587   6.290   3.292  11.089 -0.1146  0.2166  1.0277
46089SOL    HW243588   6.414   3.298  11.176 -0.4236 -0.6791  1.5432
46090SOL     OW43589   2.158   0.542  11.180 -0.1009 -0.3978  0.7788
46090SOL    HW143590   2.090   0.546  11.113  0.6542 -0.9490 -0.0479
46090SOL    HW243591   2.229   0.492  11.139  1.0111  0.5858  1.4306
46091SOL     OW43592   0.286   7.983   7.302 -0.4338 -0.0503 -0.1225
46091SOL    HW143593   0.367   7.994   7.253 -0.6800  1.7259 -0.1974
46091SOL    HW243594   0.222   7.952   7.238  0.0811 -1.1164 -0.1374
46092SOL     OW43595  10.440   1.080   5.928  0.1441  0.0021  0.0490
46092SOL    HW143596  10.361   1.030   5.947  0.4619  0.0113  1.5545
46092SOL    HW243597  10.480   1.096   6.014  2.3546 -0.9435 -0.7275
46093SOL     OW43598   4.783  10.144   7.912  0.3871 -0.1429 -0.6550
46093SOL    HW143599   4.731  10.214   7.873  2.0253  1.4664 -0.1062
46093SOL    HW243600   4.747  10.133   8.000  1.6699  1.8381  0.1784
46094SOL     OW43601   6.595   4.780   5.863  0.8575  0.0252 -0.2029
46094SOL    HW143602   6.500   4.776   5.858  0.7871  1.8689 -1.1661
46094SOL    HW243603   6.615   4.784   5.956 -0.1846  1.9826 -0.0220
46095SOL     OW43604  11.547  11.206   7.822 -0.5483 -0.4747  0.6352
46095SOL    HW143605  11.527  11.115   7.842  2.0453 -1.0680  0.8631
46095SOL    HW243606  11.538  11.252   7.905 -2.3176 -0.3857  0.4280
46096SOL     OW43607  11.784   0.964   5.266 -0.5789 -0.2045 -0.3262
46096SOL    HW143608  11.730   0.930   5.194 -1.8357 -1.1705  1.0132
46096SOL    HW243609  11.729   0.955   5.343  0.7057  0.8920  0.7640
46097SOL     OW43610   0.738   3.534   6.080 -0.2261 -0.2968  0.3681
46097SOL    HW143611   0.834   3.535   6.073 -0.2093  1.0431  0.5006
46097SOL    HW243612   0.711   3.622   6.053 -1.4606 -0.7939 -0.0789
46098SOL     OW43613   5.107   6.952   3.260 -0.4193  0.4353  0.1441
46098SOL    HW143614   5.090   6.915   3.347  0.4310  0.4459  0.3235
46098SOL    HW243615   5.044   6.909   3.203  0.3261 -1.0539  0.4031
46099SOL     OW43616   1.609   2.698   0.931  0.7576  0.2842  0.3459
46099SOL    HW143617   1.587   2.654   1.013  1.2143 -2.5736 -0.9679
46099SOL    HW243618   1.527   2.701   0.883  1.0530 -0.7478 -0.2526
46100SOL     OW43619   8.988   9.391   8.503  0.0512  0.0333  0.3943
46100SOL    HW143620   9.046   9.400   8.579  1.4672 -2.9770 -0.1855
46100SOL    HW243621   8.919   9.332   8.532  0.0436 -0.3253 -0.3142
46101SOL     OW43622   8.755  11.548   8.204  0.2568 -0.8168 -0.3161
46101SOL    HW143623   8.721  11.507   8.124  1.2181 -0.5358 -0.8924
46101SOL    HW243624   8.701  11.626   8.216  0.6341 -0.4137 -1.1685
46102SOL     OW43625   3.449  10.790   5.402  0.0926  0.0246 -0.0200
46102SOL    HW143626   3.487  10.860   5.455 -3.1331  1.5382  0.5137
46102SOL    HW243627   3.460  10.819   5.312 -2.2133  1.8887  0.2302
46103SOL     OW43628   2.274   8.170   6.437 -0.3864  0.1121  0.4548
46103SOL    HW143629   2.325   8.193   6.360  0.4467  0.8251  1.1873
46103SOL    HW243630   2.213   8.243   6.449  0.8160  0.9949  1.5592
46104SOL     OW43631   7.351   0.325   6.248 -0.0167  0.6141 -0.4375
46104SOL    HW143632   7.359   0.273   6.168  1.2313  0.4912 -0.2585
46104SOL    HW243633   7.260   0.314   6.276 -0.2041 -0.1263 -1.3082
46105SOL     OW43634   5.180   6.201   8.647  0.6729 -0.4128 -0.4075
46105SOL    HW143635   5.154   6.278   8.699  1.0804 -1.3402  1.2531
46105SOL    HW243636   5.261   6.228   8.604  0.8255  0.0906  0.1754
46106SOL     OW43637   5.392  11.483   5.884  0.3280 -0.6307 -0.3017
46106SOL    HW143638   5.315  11.431   5.905  0.4873 -0.3814  0.9966
46106SOL    HW243639   5.412  11.530   5.965  0.5500  0.9862 -1.2461
46107SOL     OW43640   5.306   0.525   5.515 -0.7153  0.3047  0.5675
46107SOL    HW143641   5.319   0.619   5.508  0.0277  0.1227 -0.8828
46107SOL    HW243642   5.324   0.491   5.427 -0.5369 -1.2352  1.1563
46108SOL     OW43643   0.025   4.544   2.103 -0.1704  0.0683 -0.1457
46108SOL    HW143644  -0.022   4.533   2.186 -1.4359 -0.7324 -0.9357
46108SOL    HW243645   0.080   4.621   2.117 -0.4156  0.0000  1.4033
46109SOL     OW43646   2.452  10.484   6.824 -0.4292 -0.1475  0.3551
46109SOL    HW143647   2.528  10.530   6.788  0.4656 -1.5154  0.3819
46109SOL    HW243648   2.490  10.410   6.871 -1.7062  0.1327  1.9032
46110SOL     OW43649   4.190   2.334   7.390 -0.0129  0.1504 -0.0335
46110SOL    HW143650   4.175   2.399   7.459  0.2240  0.2656 -0.0880
46110SOL    HW243651   4.254   2.376   7.332  0.4393 -0.2801  0.1408
46111SOL     OW43652   9.646   3.217   9.881 -0.3892 -0.1035 -0.1592
46111SOL    HW143653   9.663   3.294   9.826  0.3190  0.1979  0.4519
46111SOL    HW243654   9.657   3.142   9.823  0.2003  0.2167 -0.4706
46112SOL     OW43655   3.388   8.176  11.141 -0.1619 -0.4830  0.0969
46112SOL    HW143656   3.470   8.189  11.189 -0.4665  0.5774  0.3431
46112SOL    HW243657   3.400   8.224  11.059 -0.9771  0.7008  0.6453
46113SOL     OW43658  11.357   5.948   3.937 -0.0731  0.0632  0.5589
46113SOL    HW143659  11.307   6.012   3.988  0.0699  1.3524 -0.8430
46113SOL    HW243660  11.430   5.999   3.900  0.5834 -1.1281  0.1573
46114SOL     OW43661   2.052   6.750   6.630  0.6104  0.7867  0.9400
46114SOL    HW143662   2.074   6.756   6.722  1.3891 -0.7282  0.8781
46114SOL    HW243663   2.022   6.660   6.618  0.6427  0.9247 -0.3143
46115SOL     OW43664   6.886   4.899   7.967  0.1311  0.5346  0.0022
46115SOL    HW143665   6.929   4.960   7.907  0.1439 -0.3345 -0.9006
46115SOL    HW243666   6.921   4.921   8.053 -0.7845  2.6131 -0.0885
46116SOL     OW43667   8.989   8.941   5.799  0.5961  0.0339 -0.0239
46116SOL    HW143668   9.078   8.975   5.807  1.6023 -2.2055 -0.9552
46116SOL    HW243669   8.952   8.950   5.887  1.2582  2.1129  0.1006
46117SOL     OW43670   4.119  10.914   9.567  0.3032  0.0446 -0.3048
46117SOL    HW143671   4.206  10.932   9.601  0.7030 -1.9927 -0.1122
46117SOL    HW243672   4.074  10.869   9.639 -1.0951  1.4619 -0.2314
46118SOL     OW43673   2.066   8.458   9.713 -0.0383  0.2085 -0.4760
46118SOL    HW143674   2.040   8.529   9.654 -2.9420  1.2803  1.8383
46118SOL    HW243675   2.060   8.379   9.660 -1.1490  1.2505 -1.9729
46119SOL     OW43676   0.056   9.053   6.528 -0.5468  0.2169 -0.2813
46119SOL    HW143677   0.110   9.121   6.567 -0.4060 -0.6034  1.0263
46119SOL    HW243678  -0.022   9.099   6.496 -0.1768  1.0700  0.0224
46120SOL     OW43679   3.617   0.015   8.822 -0.1946  0.0524 -0.1861
46120SOL    HW143680   3.660   0.093   8.857 -1.6120 -0.3345  2.7492
46120SOL    HW243681   3.523   0.031   8.834 -0.6277 -1.2831 -1.4534
46121SOL     OW43682  11.206   0.048  10.357  0.4816 -0.2868 -0.2730
46121SOL    HW143683  11.242  -0.024  10.409 -0.6026  0.3481  1.4490
46121SOL    HW243684  11.257   0.125  10.384  1.7064 -0.3683 -2.1839
46122SOL     OW43685   1.726   1.344   1.846  0.5009 -0.0367  0.0581
46122SOL    HW143686   1.684   1.417   1.800  1.3770  1.3551  1.3865
46122SOL    HW243687   1.814   1.339   1.808  0.3287 -0.6593 -0.2767
46123SOL     OW43688   6.789  11.136   7.105  0.6497 -0.4844  0.1279
46123SOL    HW143689   6.797  11.100   7.017  1.5420 -0.6244  0.2559
46123SOL    HW243690   6.704  11.178   7.107  1.0302  0.3834 -1.1186
46124SOL     OW43691   9.705   1.116   5.509  0.4057 -0.1422  0.1211
46124SOL    HW143692   9.648   1.105   5.433  0.2223 -0.3093  0.2809
46124SOL    HW243693   9.709   1.210   5.523  1.5128 -0.0147 -0.9054
46125SOL     OW43694   1.119   7.330   3.484  0.3387 -0.3549  0.4542
46125SOL    HW143695   1.189   7.264   3.482 -1.0730 -1.8959 -0.8741
46125SOL    HW243696   1.125   7.373   3.399 -0.1509 -0.3145  0.4385
46126SOL     OW43697   5.062   7.588   1.636  0.3154  0.0531  0.0494
46126SOL    HW143698   4.972   7.613   1.656  0.4259  0.4880  0.0132
46126SOL    HW243699   5.054   7.517   1.572 -0.0093 -0.2949  0.4705
46127SOL     OW43700  11.710   6.326   9.639 -0.6425 -0.0716  0.0481
46127SOL    HW143701  11.712   6.256   9.704 -0.8440 -0.2646 -0.1482
46127SOL    HW243702  11.798   6.363   9.640 -1.3108  1.6388  2.2401
46128SOL     OW43703  10.949   4.261   3.308  0.3366 -0.6423  0.0494
46128SOL    HW143704  10.855   4.264   3.330  0.5893  0.1832  1.0940
46128SOL    HW243705  10.993   4.289   3.388  1.4718 -0.7296 -0.5279
46129SOL     OW43706   4.239  11.363   9.943 -0.2914  0.1165  0.2485
46129SOL    HW143707   4.283  11.427   9.888  1.9838 -0.8989  0.7215
46129SOL    HW243708   4.279  11.279   9.918 -0.7331 -0.6390  1.9273
46130SOL     OW43709   2.785   1.132   9.589 -0.2306 -0.2944  0.9458
46130SOL    HW143710   2.837   1.069   9.537 -1.6089 -2.1122  1.6618
46130SOL    HW243711   2.818   1.122   9.678 -1.3435 -1.0056  1.2948
46131SOL     OW43712   8.073   1.182   0.914 -0.2784 -0.5560  0.6476
46131SOL    HW143713   8.121   1.259   0.884  0.2659 -0.9912  0.3644
46131SOL    HW243714   8.069   1.191   1.009 -0.9780  0.2455  0.5513
46132SOL     OW43715   8.553   0.374  10.631 -0.4502 -0.1245  0.2928
46132SOL    HW143716   8.545   0.420  10.715  1.8675 -0.9474  1.0552
46132SOL    HW243717   8.471   0.324  10.624 -0.2835 -0.8972  2.6654
46133SOL     OW43718   4.984   1.532   7.126  0.0851  0.1099 -0.3829
46133SOL    HW143719   4.920   1.475   7.167 -0.5143  1.0185 -0.0245
46133SOL    HW243720   4.974   1.616   7.171  3.0836 -0.2896  1.2825
46134SOL     OW43721  10.232   7.955   7.260 -0.6217 -0.9170  0.3443
46134SOL    HW143722  10.226   7.944   7.355  1.0658  1.0057  0.7482
46134SOL    HW243723  10.143   7.980   7.233 -1.2238 -1.9265  1.3327
46135SOL     OW43724   1.419   7.472   4.617  0.3169 -0.0679 -0.4819
46135SOL    HW143725   1.370   7.406   4.666  0.7671  0.2014  0.3665
46135SOL    HW243726   1.498   7.486   4.670  0.0161  1.4764 -0.3867
46136SOL     OW43727   5.961   8.327   0.380 -0.0774  0.0250 -0.1167
46136SOL    HW143728   5.995   8.241   0.407  0.5921  0.2166 -0.3192
46136SOL    HW243729   6.012   8.348   0.301  1.2165  1.5234  1.0586
46137SOL     OW43730   4.470   1.274  11.019  0.7053  0.4058  0.7059
46137SOL    HW143731   4.519   1.336  10.965 -1.3110  1.6012  0.1319
46137SOL    HW243732   4.393   1.252  10.966 -0.7739  0.7564  2.5871
46138SOL     OW43733   2.978   8.712   3.423 -0.5489  0.3595 -0.3443
46138SOL    HW143734   2.974   8.807   3.416  3.4501  0.9012  1.8290
46138SOL    HW243735   3.060   8.689   3.378 -0.5786 -1.8528  0.6251
46139SOL     OW43736   2.590  11.140  11.340  0.1863  0.1561  0.1727
46139SOL    HW143737   2.665  11.102  11.293  0.7918  1.1732  0.2898
46139SOL    HW243738   2.570  11.076  11.408  1.2884  0.0907  0.4605
46140SOL     OW43739   1.125  10.862   8.292  0.0310 -0.2010 -0.3043
46140SOL    HW143740   1.199  10.812   8.258 -0.2188  0.2034 -1.5139
46140SOL    HW243741   1.095  10.813   8.368  1.6199 -0.2967  0.2888
46141SOL     OW43742   5.009   7.334  11.814 -0.4033 -0.1744  0.0476
46141SOL    HW143743   4.968   7.418  11.792  1.1750 -0.0412 -2.8852
46141SOL    HW243744   4.991   7.322  11.907 -3.3445  1.8905 -0.1102
46142SOL     OW43745   5.299   9.966   0.504 -0.0735 -0.1988 -0.5000
46142SOL    HW143746   5.363  10.004   0.563  0.5877  0.6008 -1.6797
46142SOL    HW243747   5.221   9.953   0.558  0.9597 -0.9057  0.8857
46143SOL     OW43748  10.431   7.837   4.277  0.0498 -0.3576 -0.6221
46143SOL    HW143749  10.374   7.893   4.330 -0.6168 -0.2877 -1.3952
46143SOL    HW243750  10.472   7.897   4.215  3.0205  0.0703  1.5306
46144SOL     OW43751   9.530   6.706  11.197 -0.5182  0.6264  0.1412
46144SOL    HW143752   9.531   6.634  11.260 -0.6673 -0.3790 -0.9795
46144SOL    HW243753   9.577   6.673  11.121  1.7207  2.6262  0.5370
46145SOL     OW43754   0.438   2.462   0.824  0.0886 -0.0140 -0.2916
46145SOL    HW143755   0.381   2.401   0.777  0.0197 -0.6598  0.6078
46145SOL    HW243756   0.414   2.548   0.790 -1.4519 -0.2705  0.1020
46146SOL     OW43757   8.681   1.190   5.526  0.0603 -0.0358 -0.4046
46146SOL    HW143758   8.704   1.098   5.536 -2.4359 -0.7898 -0.6764
46146SOL    HW243759   8.591   1.195   5.560  0.6455  2.6305  0.9782
46147SOL     OW43760   5.968   6.580   6.597  0.3511  0.4054 -0.8379
46147SOL    HW143761   5.949   6.673   6.588  1.2501  0.4969 -1.9808
46147SOL    HW243762   5.957   6.562   6.691  0.8060  1.8026 -0.4930
46148SOL     OW43763  10.078   9.467   5.475 -0.7347  0.1031 -0.1553
46148SOL    HW143764  10.086   9.440   5.384 -1.3224 -0.4968 -0.0438
46148SOL    HW243765  10.130   9.547   5.482 -0.9447  0.3298 -1.0870
46149SOL     OW43766  10.782   8.462  10.735 -0.7325 -0.0775  0.2238
46149SOL    HW143767  10.828   8.544  10.755 -1.0762  0.2589 -0.3236
46149SOL    HW243768  10.788   8.411  10.816  3.0749 -1.2882 -0.6084
46150SOL     OW43769   3.081   9.328  10.063  0.1547 -0.3143 -0.2821
46150SOL    HW143770   3.050   9.287   9.983 -0.6521  1.7837 -1.1313
46150SOL    HW243771   3.001   9.358  10.107  0.6705 -0.1285  0.5425
46151SOL     OW43772  11.636  10.961   0.948 -0.5219 -0.2731  0.0771
46151SOL    HW143773  11.609  10.962   1.039 -1.3045 -0.9807 -0.1405
46151SOL    HW243774  11.580  10.896   0.906  0.4723 -0.6560 -0.7105
46152SOL     OW43775   2.802   7.078   8.435  0.1724 -0.3985  0.0906
46152SOL    HW143776   2.733   7.036   8.384  1.5890 -1.6721 -0.8622
46152SOL    HW243777   2.803   7.169   8.406 -2.3048  0.1686  1.4792
46153SOL     OW43778   4.220   4.696   2.318  0.4793  0.0382  0.2235
46153SOL    HW143779   4.205   4.790   2.325  0.3737  0.1501 -1.0953
46153SOL    HW243780   4.231   4.666   2.408 -1.1894  1.0360  0.8048
46154SOL     OW43781   2.778   9.796  11.583 -0.3696  0.4558  0.1340
46154SOL    HW143782   2.704   9.747  11.620  0.8476 -1.8042 -0.2598
46154SOL    HW243783   2.836   9.811  11.658  0.1527 -0.4759 -0.0593
46155SOL     OW43784   8.688   4.111   7.550  0.3353 -0.0865 -0.4679
46155SOL    HW143785   8.645   4.027   7.534  0.7408 -0.4692  0.4028
46155SOL    HW243786   8.737   4.098   7.631  2.6762  0.1012 -1.7494
46156SOL     OW43787   4.593   9.558   5.789 -0.1722 -0.6055  0.8822
46156SOL    HW143788   4.638   9.499   5.729 -1.3624 -0.7188  0.0834
46156SOL    HW243789   4.591   9.510   5.872  0.8188 -0.7569  0.8355
46157SOL     OW43790   4.098  11.253   5.118  0.1770  0.3756  0.1198
46157SOL    HW143791   4.150  11.175   5.099 -0.7092 -0.4956  1.1700
46157SOL    HW243792   4.156  11.309   5.169  0.3132 -0.2856  0.6981
46158SOL     OW43793   6.720   5.982   3.149 -0.0044  0.2068  0.2671
46158SOL    HW143794   6.731   5.936   3.066 -0.4342  1.3898 -0.4792
46158SOL    HW243795   6.774   5.933   3.212 -0.9356 -1.6488 -0.3206
46159SOL     OW43796   0.886   6.567   4.471  0.4463 -0.3204  0.4549
46159SOL    HW143797   0.821   6.525   4.415 -1.2928  0.2651  1.9172
46159SOL    HW243798   0.929   6.495   4.517  0.9516 -0.7223 -0.6251
46160SOL     OW43799   8.474  10.247   3.676  0.0370 -0.2302  0.1790
46160SOL    HW143800   8.474  10.323   3.617 -1.2619  0.7251  1.3343
46160SOL    HW243801   8.531  10.272   3.748 -0.9136 -0.0407  0.8915
46161SOL     OW43802   2.628   7.084   4.855  0.4917  0.1393 -0.0010
46161SOL    HW143803   2.722   7.082   4.872  0.5129 -0.6226 -0.1577
46161SOL    HW243804   2.614   7.158   4.796  1.1095 -0.2512 -0.6451
46162SOL     OW43805  11.660   3.485   0.343 -0.2003  0.7596 -0.0919
46162SOL    HW143806  11.683   3.408   0.291 -1.5206 -0.6824  1.3539
46162SOL    HW243807  11.694   3.466   0.430 -0.6483  1.7605  0.3159
46163SOL     OW43808   0.013   3.754   4.200  0.1105 -0.0927 -0.1352
46163SOL    HW143809  -0.073   3.711   4.201  0.1638 -0.2130  1.2339
46163SOL    HW243810  -0.006   3.846   4.214  0.2947 -0.4310  3.0811
46164SOL     OW43811  10.078   7.477   5.885 -0.0607 -0.0769  0.1829
46164SOL    HW143812  10.051   7.486   5.976  0.4505 -2.0795  0.5959
46164SOL    HW243813  10.173   7.475   5.888  0.1245  2.7680 -0.7949
46165SOL     OW43814   2.392   4.808   3.480 -0.0327 -0.0741 -0.3746
46165SOL    HW143815   2.327   4.740   3.497  1.1675 -1.3328 -0.7133
46165SOL    HW243816   2.420   4.837   3.566 -2.4080  1.8962 -0.1579
46166SOL     OW43817   8.185   3.348   0.549 -0.6988 -0.0779  0.3970
46166SOL    HW143818   8.205   3.260   0.517 -0.6996 -0.2590  0.8937
46166SOL    HW243819   8.099   3.368   0.512 -0.7657 -0.3475  0.4062
46167SOL     OW43820   0.256  10.981   1.000 -0.2594  0.2603 -0.2302
46167SOL    HW143821   0.236  10.998   1.092 -1.6209  1.0675 -0.6475
46167SOL    HW243822   0.341  10.938   1.002 -1.5356 -2.5394  1.6432
46168SOL     OW43823   5.223  10.678   5.541  0.2702  0.7023 -0.0867
46168SOL    HW143824   5.167  10.701   5.467 -0.1370 -2.3500 -0.8793
46168SOL    HW243825   5.312  10.677   5.505  0.1698  0.0843 -0.3331
46169SOL     OW43826   9.204   0.310   8.876  0.6612 -0.1902 -0.5955
46169SOL    HW143827   9.221   0.220   8.906 -1.6405 -0.5184 -0.0323
46169SOL    HW243828   9.159   0.351   8.950 -0.0797  0.7844 -1.5601
46170SOL     OW43829  10.422   4.394  10.624  0.0941 -0.1145 -0.0700
46170SOL    HW143830  10.488   4.330  10.651  0.2647 -1.2562 -2.8157
46170SOL    HW243831  10.456   4.478  10.655  1.9206 -0.9010  0.1818
46171SOL     OW43832   8.886   4.285  10.993 -0.1948  0.4571 -0.3073
46171SOL    HW143833   8.940   4.319  11.065 -1.4067 -2.6958  2.3739
46171SOL    HW243834   8.812   4.345  10.988  1.3271  2.3662 -1.0215
46172SOL     OW43835  11.129   7.300   0.443  0.1181 -0.3143 -0.4754
46172SOL    HW143836  11.051   7.309   0.387 -1.4679 -0.6669  1.5626
46172SOL    HW243837  11.199   7.341   0.392 -0.9008 -1.7584 -3.2723
46173SOL     OW43838   0.560   3.285   7.407  0.0894 -0.1123 -0.3052
46173SOL    HW143839   0.603   3.200   7.413 -0.2421 -0.1905  1.4616
46173SOL    HW243840   0.561   3.306   7.314 -0.7675 -2.5336 -0.9386
46174SOL     OW43841   5.660   5.409   2.097 -0.6808  0.7520 -0.3279
46174SOL    HW143842   5.714   5.428   2.174 -0.3528  0.5099 -0.4934
46174SOL    HW243843   5.720   5.419   2.023 -1.3182  2.3105 -0.6644
46175SOL     OW43844   5.173   6.126   0.023 -0.2776 -0.4187  0.0355
46175SOL    HW143845   5.179   6.065   0.097  0.5438  0.4971  0.7496
46175SOL    HW243846   5.080   6.146   0.016 -0.3429 -0.3573  0.9583
46176SOL     OW43847   2.610   9.797   2.952 -0.8901  0.5178 -0.0995
46176SOL    HW143848   2.544   9.741   2.993 -0.6695  0.1448 -0.2483
46176SOL    HW243849   2.612   9.767   2.861 -0.0866  0.1241  0.0427
46177SOL     OW43850   2.767  10.287   4.911 -0.1839 -0.1554 -0.2341
46177SOL    HW143851   2.707  10.214   4.892 -0.1301 -0.5192  0.8803
46177SOL    HW243852   2.835  10.248   4.966  0.8393  0.3590 -1.1126
46178SOL     OW43853   0.586  11.003   2.225  0.5482  0.3019 -0.5444
46178SOL    HW143854   0.669  11.023   2.181  0.5712  0.0560 -0.6152
46178SOL    HW243855   0.598  10.915   2.261  0.3697  0.3229 -0.4305
46179SOL     OW43856  10.677   2.717  10.579 -0.0108  0.0304 -0.6076
46179SOL    HW143857  10.591   2.740  10.544  0.1934  1.4722 -0.2291
46179SOL    HW243858  10.737   2.730  10.505  0.2236  1.6999 -0.1771
46180SOL     OW43859   9.903  11.605   9.806 -0.0713 -0.1123 -0.2536
46180SOL    HW143860   9.921  11.594   9.900 -0.8816  1.0410  0.0643
46180SOL    HW243861   9.898  11.700   9.795 -1.7764 -0.2710 -1.1103
46181SOL     OW43862  10.621   1.582  10.521  0.6249  0.3708  0.2597
46181SOL    HW143863  10.623   1.567  10.615  0.6146 -2.0256 -0.0449
46181SOL    HW243864  10.563   1.513  10.487 -2.0736  3.1258 -1.2260
46182SOL     OW43865  11.059   7.810   7.157  0.4502 -0.3751  0.4521
46182SOL    HW143866  11.140   7.762   7.142  0.8124  0.2624  0.3185
46182SOL    HW243867  11.073   7.856   7.240  0.3692  0.0189  0.2516
46183SOL     OW43868  11.282   9.336   2.414  0.3960  0.0290  0.1764
46183SOL    HW143869  11.302   9.249   2.378  2.1979  0.6446 -0.4095
46183SOL    HW243870  11.337   9.396   2.364 -1.6352  1.6905 -0.2016
46184SOL     OW43871   2.171   6.024   9.075  0.2380  0.1998 -0.2094
46184SOL    HW143872   2.205   5.988   9.157 -0.2512  3.6326  1.7089
46184SOL    HW243873   2.242   6.012   9.012  1.1145 -1.4354  0.9982
46185SOL     OW43874   2.799   8.971   5.521  0.4846  0.6674  0.2371
46185SOL    HW143875   2.881   8.928   5.546 -0.6766 -1.9419 -0.1367
46185SOL    HW243876   2.755   8.990   5.604  0.5136  0.0553  0.3961
46186SOL     OW43877   4.375   7.578   9.571  0.0359  0.0255 -0.3602
46186SOL    HW143878   4.281   7.571   9.553 -0.0446 -0.8337  0.3126
46186SOL    HW243879   4.399   7.492   9.606  1.0001  0.3603 -0.1676
46187SOL     OW43880  11.434  10.530  11.156  0.6430 -0.2088  0.1949
46187SOL    HW143881  11.480  10.601  11.199  0.5051  0.0966 -0.1617
46187SOL    HW243882  11.503  10.474  11.120  0.8167 -1.2292  1.9948
46188SOL     OW43883   6.792   0.919   7.343 -0.5086 -0.1321 -0.0956
46188SOL    HW143884   6.782   0.994   7.285  0.3245 -0.0703 -0.1718
46188SOL    HW243885   6.827   0.956   7.424  0.7004 -0.5312 -0.4152
46189SOL     OW43886   1.739   9.275   1.999  0.7703  0.0848 -0.1730
46189SOL    HW143887   1.787   9.266   1.917  1.6522  2.0680  0.0867
46189SOL    HW243888   1.666   9.332   1.979  0.9993  0.5984  0.4156
46190SOL     OW43889   8.606  10.201  10.816 -0.3227  0.0442  0.8015
46190SOL    HW143890   8.688  10.164  10.783 -0.9576  1.1196 -2.2548
46190SOL    HW243891   8.544  10.129  10.811 -0.7511  0.5095 -1.9354
46191SOL     OW43892   5.701   5.250   7.290  0.9927 -0.5112 -0.3284
46191SOL    HW143893   5.736   5.178   7.238  0.1056 -0.5189 -0.9359
46191SOL    HW243894   5.652   5.303   7.227  0.4989 -0.1307  0.3681
46192SOL     OW43895   8.612   0.259   3.052 -0.0743  0.6634 -0.3375
46192SOL    HW143896   8.530   0.293   3.016 -0.9610 -0.8016  0.1929
46192SOL    HW243897   8.665   0.239   2.975 -0.4958  0.9823 -0.7180
46193SOL     OW43898   4.427   4.454   8.691 -0.5965 -0.3188  0.4068
46193SOL    HW143899   4.463   4.526   8.639 -0.9340 -0.2918  0.2092
46193SOL    HW243900   4.354   4.421   8.640 -1.1684 -0.0531  1.0376
46194SOL     OW43901  10.142   1.827   2.296  0.5586 -0.1382  0.7649
46194SOL    HW143902  10.106   1.832   2.207 -0.2144 -1.2905  0.9911
46194SOL    HW243903  10.219   1.771   2.287 -0.5246 -1.7527  1.0816
46195SOL     OW43904   8.296   6.993   9.710 -0.0181 -0.1423  0.2198
46195SOL    HW143905   8.347   7.007   9.630  0.7371 -0.6882  0.5919
46195SOL    HW243906   8.305   6.899   9.728 -0.7288 -0.1459  0.5868
46196SOL     OW43907   9.079   1.333   4.812  0.1983  0.0362 -0.6105
46196SOL    HW143908   9.073   1.343   4.907  0.8435 -0.5312 -0.4999
46196SOL    HW243909   9.168   1.361   4.790  0.5425 -1.1565 -0.8456
46197SOL     OW43910   7.102   0.168   5.415  0.0166  0.1612 -0.0601
46197SOL    HW143911   7.114   0.083   5.373 -1.8720  0.2008 -0.7555
46197SOL    HW243912   7.135   0.231   5.351  0.5028  0.0288  0.0508
46198SOL     OW43913   9.521   6.174   3.439 -0.3389  0.0858 -0.1899
46198SOL    HW143914   9.568   6.212   3.513  0.7053  0.5152 -1.0471
46198SOL    HW243915   9.566   6.090   3.423 -0.0364  0.3662 -0.8345
46199SOL     OW43916   6.573  11.131   1.116  0.5287 -0.5869  0.2424
46199SOL    HW143917   6.606  11.096   1.033  0.7457 -0.4626  0.2726
46199SOL    HW243918   6.641  11.193   1.143 -0.0424  0.1624 -0.0204
46200SOL     OW43919   5.338   3.863   2.093 -0.9040 -0.3573  0.3276
46200SOL    HW143920   5.382   3.864   2.178 -0.5410  0.8782  0.1490
46200SOL    HW243921   5.272   3.795   2.101 -0.0450 -1.1315  1.1647
46201SOL     OW43922   0.903   4.703  10.874  0.3938 -0.1778 -0.1760
46201SOL    HW143923   0.984   4.752  10.862  0.6272 -0.1524  1.3076
46201SOL    HW243924   0.908   4.670  10.964 -0.8507 -0.9064 -0.3496
46202SOL     OW43925   9.528   4.273   4.421 -0.3959 -0.7231 -0.5196
46202SOL    HW143926   9.551   4.324   4.343  1.5927 -2.4496 -1.1846
46202SOL    HW243927   9.522   4.337   4.492 -2.5830  0.9432 -2.0738
46203SOL     OW43928   3.480  11.707   3.153 -0.5974 -1.0256 -0.3683
46203SOL    HW143929   3.567  11.706   3.193 -0.2150 -0.3259 -1.1594
46203SOL    HW243930   3.495  11.720   3.060 -1.5093 -2.1655 -0.7018
46204SOL     OW43931   4.448   9.457   0.615  1.1665 -0.1975  0.5440
46204SOL    HW143932   4.432   9.551   0.623 -0.1066 -0.4293  1.0120
46204SOL    HW243933   4.419   9.421   0.699  0.1686 -1.1761 -0.1941
46205SOL     OW43934  10.972   0.976   8.859 -0.2169  0.6289  0.1630
46205SOL    HW143935  11.035   1.026   8.807  0.3362 -1.0419 -0.8365
46205SOL    HW243936  10.960   0.895   8.811 -1.4925 -0.0025  1.4691
46206SOL     OW43937   5.279   8.140   1.848  0.1815 -0.8922  0.1726
46206SOL    HW143938   5.204   8.186   1.811  1.1525 -0.4705 -1.3648
46206SOL    HW243939   5.269   8.050   1.816  0.7245 -0.6545 -0.7062
46207SOL     OW43940   9.643   0.345  11.689 -0.1760 -0.0180  0.5248
46207SOL    HW143941   9.636   0.307  11.776  0.9214  0.6338  0.9180
46207SOL    HW243942   9.730   0.383  11.686 -0.2784  0.1753 -0.7858
46208SOL     OW43943   2.988   5.861   5.134 -0.2588 -0.1601  0.4485
46208SOL    HW143944   3.007   5.867   5.228 -1.6077 -0.7037  0.7863
46208SOL    HW243945   3.072   5.878   5.091 -0.2778  3.9187  1.6092
46209SOL     OW43946   6.301   5.929   3.376 -0.3320  0.0315  0.1536
46209SOL    HW143947   6.245   5.865   3.332 -0.0843 -0.7399  0.9348
46209SOL    HW243948   6.364   5.876   3.424  0.5061  0.8825  0.0198
46210SOL     OW43949   1.172   8.701   6.432  0.2913 -0.0985 -0.6449
46210SOL    HW143950   1.131   8.729   6.514 -1.9231 -1.7042 -1.0931
46210SOL    HW243951   1.182   8.782   6.382 -1.8767  0.5133 -0.2336
46211SOL     OW43952   1.348   2.027   1.751 -0.1743  0.7649  0.5882
46211SOL    HW143953   1.296   2.102   1.721  1.5962  0.8746 -2.6498
46211SOL    HW243954   1.356   1.971   1.674  1.9428 -0.7500  1.7957
46212SOL     OW43955   7.685   2.594   3.628 -0.1881 -0.8822  0.2016
46212SOL    HW143956   7.737   2.531   3.676 -2.0714 -2.4031  0.3652
46212SOL    HW243957   7.711   2.582   3.537  0.7576 -0.5854  0.4214
46213SOL     OW43958   9.761   0.717   9.899 -0.2268 -0.0248  0.4103
46213SOL    HW143959   9.812   0.650   9.853 -0.0979 -0.1138  0.6833
46213SOL    HW243960   9.784   0.706   9.991 -0.7473 -0.0739  0.5365
46214SOL     OW43961   0.682   3.128   8.782  0.0687  0.6750  0.6528
46214SOL    HW143962   0.604   3.162   8.827  0.0125  0.9063  0.3794
46214SOL    HW243963   0.649   3.096   8.698  0.4106  1.6024  0.1546
46215SOL     OW43964   8.116  10.627   4.723  0.3726  0.2558  0.3016
46215SOL    HW143965   8.166  10.620   4.642  0.6677  2.2396  0.2478
46215SOL    HW243966   8.179  10.659   4.787 -0.2142  0.2362  0.9034
46216SOL     OW43967   4.950   5.194  10.111 -0.8295  0.6539  0.3950
46216SOL    HW143968   4.857   5.188  10.088 -0.8551  3.3255 -0.4909
46216SOL    HW243969   4.985   5.262  10.054  1.5887  0.0937  1.0898
46217SOL     OW43970   3.449   0.711   6.455  0.1071 -0.5285 -0.6356
46217SOL    HW143971   3.441   0.778   6.522 -0.4602  0.8240 -1.9924
46217SOL    HW243972   3.382   0.646   6.477  1.2528 -1.1569  1.1977
46218SOL     OW43973  10.332   7.514   3.135 -0.3820  0.5897  0.1751
46218SOL    HW143974  10.409   7.458   3.147 -0.8068 -0.0679 -0.1068
46218SOL    HW243975  10.260   7.452   3.121 -0.5893  1.2114 -1.7816
46219SOL     OW43976   6.868   4.305   3.230  0.3434 -0.2719 -0.2631
46219SOL    HW143977   6.851   4.397   3.253 -1.0544 -0.4392 -0.5196
46219SOL    HW243978   6.940   4.309   3.168 -0.8310  0.8396 -1.6483
46220SOL     OW43979   9.431   1.020   3.292  0.4432 -0.3740 -0.6682
46220SOL    HW143980   9.387   1.093   3.335  0.8178 -0.2805 -0.4405
46220SOL    HW243981   9.518   1.053   3.271  1.8825 -1.7460  2.4864
46221SOL     OW43982   0.453   4.024   9.897 -0.4689  0.2296  0.3586
46221SOL    HW143983   0.358   4.027   9.889 -0.6152 -1.5062  0.9609
46221SOL    HW243984   0.469   3.965   9.971  1.0817  0.0877 -0.0544
46222SOL     OW43985   6.270   9.922   8.234  0.5693  0.5107  0.3145
46222SOL    HW143986   6.301   9.946   8.321 -0.2909  1.0447  0.4773
46222SOL    HW243987   6.181   9.956   8.229  1.0577  1.6594 -1.2666
46223SOL     OW43988   0.758  10.380   2.092 -0.1701  0.2192  0.8833
46223SOL    HW143989   0.830  10.416   2.040  0.1359  1.4284  2.0994
46223SOL    HW243990   0.752  10.289   2.065  1.7386  0.1355  0.6508
46224SOL     OW43991   0.554   9.648   8.585 -0.4518 -0.3941 -0.4967
46224SOL    HW143992   0.613   9.581   8.620 -1.0060  0.0219  1.3698
46224SOL    HW243993   0.543   9.625   8.493  2.5754 -0.5171 -0.9466
46225SOL     OW43994   2.697   0.583   6.433  0.2014 -0.8592 -0.6784
46225SOL    HW143995   2.741   0.665   6.453 -1.2855 -0.5991  2.2155
46225SOL    HW243996   2.722   0.525   6.505 -1.0274 -1.9596 -1.1019
46226SOL     OW43997   2.299   5.931   8.853  0.7814  0.3726  0.2280
46226SOL    HW143998   2.362   5.937   8.782  2.1071 -0.9790  1.2308
46226SOL    HW243999   2.262   5.843   8.846 -0.1604  0.7446  0.3479
46227SOL     OW44000   3.093   4.451   4.202 -0.0113  0.1324  0.1904
46227SOL    HW144001   3.146   4.491   4.271  2.4309 -1.3384 -0.6630
46227SOL    HW244002   3.156   4.396   4.154 -2.6049 -2.8241 -0.1388
46228SOL     OW44003   3.446   6.511   7.711 -0.2508  0.3632 -0.4734
46228SOL    HW144004   3.500   6.464   7.775 -0.3957  2.3633  1.2042
46228SOL    HW244005   3.359   6.516   7.752 -0.0653  2.6442 -0.2688
46229SOL     OW44006   2.513   4.644   7.695  0.3446  0.6021 -0.1175
46229SOL    HW144007   2.432   4.664   7.648  0.2276  1.0745  0.2766
46229SOL    HW244008   2.544   4.729   7.726 -0.6892  0.1421  2.4595
46230SOL     OW44009   6.964   2.570  10.284  0.9725  0.1372  0.0231
46230SOL    HW144010   6.942   2.577  10.192  0.3371 -0.3599  0.1229
46230SOL    HW244011   6.985   2.477  10.296 -1.3254 -0.3412  0.8498
46231SOL     OW44012   6.497   1.221   7.837 -0.4483  0.0100 -0.0698
46231SOL    HW144013   6.522   1.150   7.779  2.1168  0.8278 -0.1060
46231SOL    HW244014   6.447   1.179   7.907  1.6988 -2.0268  0.3639
46232SOL     OW44015   4.689   3.681   4.248 -0.6088  0.2811 -0.0806
46232SOL    HW144016   4.726   3.751   4.302  0.1644 -0.1678 -0.0008
46232SOL    HW244017   4.765   3.642   4.205 -0.9374 -1.0203  0.4918
46233SOL     OW44018   1.022   9.118   1.724  0.0626  0.0710 -0.0122
46233SOL    HW144019   1.101   9.167   1.746 -0.8483  0.9717  1.4375
46233SOL    HW244020   0.989   9.159   1.644  1.0741 -0.3521 -0.6595
46234SOL     OW44021  10.751   7.946   8.657  0.6055 -0.2499  0.3814
46234SOL    HW144022  10.812   7.892   8.606 -0.8278 -1.5326 -0.0511
46234SOL    HW244023  10.694   7.986   8.591 -0.8935 -1.4517  0.8740
46235SOL     OW44024   7.246   7.540   3.158 -0.3099  0.0997  0.3659
46235SOL    HW144025   7.238   7.548   3.253 -2.8184 -1.4442  0.3504
46235SOL    HW244026   7.169   7.585   3.124  1.0166  1.4320 -1.0521
46236SOL     OW44027  10.009   4.313  11.111  0.2835  0.0275  0.4899
46236SOL    HW144028   9.960   4.321  11.193  0.0175 -1.9678  0.5839
46236SOL    HW244029  10.032   4.403  11.088 -1.9075  0.9004  1.3710
46237SOL     OW44030   1.165  10.421   0.587 -0.1791 -0.0085 -0.0011
46237SOL    HW144031   1.247  10.405   0.540  0.5596  0.1546  1.1792
46237SOL    HW244032   1.108  10.465   0.524  1.2195  1.3361 -0.3755
46238SOL     OW44033  11.245   3.859   3.624 -0.2060 -0.5549  0.0267
46238SOL    HW144034  11.170   3.908   3.590  0.4388 -1.0716 -2.3117
46238SOL    HW244035  11.314   3.925   3.634  0.3451 -0.7283 -2.1349
46239SOL     OW44036   0.272   4.205   4.629  0.4486 -0.3033 -0.2551
46239SOL    HW144037   0.187   4.236   4.600  1.4863  1.7043 -1.3979
46239SOL    HW244038   0.335   4.249   4.572  2.2668 -1.9477  0.3347
46240SOL     OW44039  10.317   4.860   2.072  0.5586  0.0638 -0.2879
46240SOL    HW144040  10.372   4.800   2.123  1.6391  0.5612 -0.8385
46240SOL    HW244041  10.333   4.946   2.111 -0.4614  0.1094  0.0613
46241SOL     OW44042   2.701  10.980   8.954 -0.4123  0.1682  0.3514
46241SOL    HW144043   2.644  10.953   9.026 -2.0475  0.7928 -0.6414
46241SOL    HW244044   2.657  10.948   8.875  1.9433 -1.5823 -0.3628
46242SOL     OW44045   7.028   8.651   7.414 -0.0961 -0.0071  0.1811
46242SOL    HW144046   7.091   8.698   7.359 -0.3856 -0.6093 -0.6693
46242SOL    HW244047   7.070   8.649   7.500  1.6935 -1.5705 -0.6708
46243SOL     OW44048   2.589   9.575   2.289 -0.4116  0.3615 -0.1924
46243SOL    HW144049   2.587   9.498   2.346  1.6065  0.2290 -0.2290
46243SOL    HW244050   2.575   9.649   2.348  1.7318  0.2332  0.5545
46244SOL     OW44051   4.304   8.065   7.980  0.5054 -0.4505  0.3655
46244SOL    HW144052   4.367   8.056   8.052 -1.0028 -1.2422  1.6459
46244SOL    HW244053   4.320   8.152   7.945  2.0247 -0.4718  0.9274
46245SOL     OW44054   9.749   0.220   0.098  1.0656 -0.1382 -0.4328
46245SOL    HW144055   9.656   0.198   0.101  0.6299  1.1116 -2.5827
46245SOL    HW244056   9.761   0.283   0.169  0.5395 -1.0874  0.5310
46246SOL     OW44057  11.026   9.288   1.708 -0.3408  0.1769  0.1190
46246SOL    HW144058  10.981   9.289   1.624 -1.8268  1.0211  0.8875
46246SOL    HW244059  11.104   9.342   1.695 -0.2959 -0.1043 -0.8340
46247SOL     OW44060   5.678   3.099   7.846  0.5018  0.0448 -0.0173
46247SOL    HW144061   5.749   3.105   7.782  0.9300 -0.4196  0.4090
46247SOL    HW244062   5.619   3.032   7.809  0.8424 -0.3564  0.1640
46248SOL     OW44063  10.343   0.352   7.602  0.2149  0.7559  0.5656
46248SOL    HW144064  10.372   0.444   7.604  2.4908  0.1584 -0.8478
46248SOL    HW244065  10.343   0.330   7.508  2.3727 -1.3950  0.9618
46249SOL     OW44066  11.820  11.422   7.772  0.3214 -0.0697  0.1357
46249SOL    HW144067  11.881  11.351   7.750 -2.0445 -1.6499 -1.8730
46249SOL    HW244068  11.845  11.493   7.713  0.5661 -0.4849 -0.2701
46250SOL     OW44069   8.273   6.670  10.974 -0.0126  0.2681  0.2341
46250SOL    HW144070   8.293   6.664  11.067  2.2526 -0.9539 -0.2508
46250SOL    HW244071   8.335   6.735  10.940 -0.8714  0.7664 -0.4340
46251SOL     OW44072   8.759   9.361   6.082  0.3450  0.1203 -0.1537
46251SOL    HW144073   8.722   9.279   6.049 -0.5996  0.8270 -0.9066
46251SOL    HW244074   8.721   9.371   6.170 -0.5982  0.3985 -0.5782
46252SOL     OW44075   5.184   6.279   7.527  0.1766 -0.2017 -0.0563
46252SOL    HW144076   5.093   6.277   7.556  0.8058  1.3310  2.2785
46252SOL    HW244077   5.235   6.273   7.607  2.1828 -1.0391 -1.3101
46253SOL     OW44078   3.314  10.777   9.739  1.0273  0.1922  0.1540
46253SOL    HW144079   3.334  10.691   9.776 -0.6051  0.4779  1.8026
46253SOL    HW244080   3.307  10.761   9.645  2.4926 -1.1003  0.2178
46254SOL     OW44081  11.603   7.518   2.761  0.5798 -0.2066 -0.5443
46254SOL    HW144082  11.558   7.487   2.682  0.2776 -0.6282 -0.2091
46254SOL    HW244083  11.684   7.466   2.764 -0.1953 -1.4225  0.3335
46255SOL     OW44084   3.984  11.163  10.186  0.2196  0.3263 -0.2088
46255SOL    HW144085   3.962  11.219  10.112 -1.0521  1.3739  0.9122
46255SOL    HW244086   3.904  11.113  10.203  0.5364  0.0055  0.3768
46256SOL     OW44087   3.195  10.465   3.105 -0.7955  0.2071  0.2767
46256SOL    HW144088   3.171  10.379   3.073 -2.0247 -0.1108  1.9266
46256SOL    HW244089   3.257  10.499   3.040 -0.5683 -1.7494 -0.5768
46257SOL     OW44090   1.176   4.677   9.577  0.3221  0.8415 -0.1123
46257SOL    HW144091   1.244   4.640   9.634  1.7743  0.3703 -2.0495
46257SOL    HW244092   1.097   4.628   9.600  1.1366 -0.1371  0.7009
46258SOL     OW44093   6.784   7.319   0.169 -0.1858  0.0006 -0.4846
46258SOL    HW144094   6.767   7.368   0.249  0.1790 -1.7154  0.7123
46258SOL    HW244095   6.719   7.248   0.171 -0.9054  0.5622 -2.3016
46259SOL     OW44096   1.121   1.937   5.851 -0.1114  0.2695  0.3165
46259SOL    HW144097   1.153   1.877   5.919  0.6571 -0.4138 -0.6203
46259SOL    HW244098   1.201   1.970   5.809 -0.5679  0.8503 -0.1196
46260SOL     OW44099   6.679   9.951   2.059  0.2814  0.3110 -0.2253
46260SOL    HW144100   6.679  10.017   1.990 -0.2222  2.1498  1.4447
46260SOL    HW244101   6.669  10.001   2.141  0.6099 -1.7767  1.1817
46261SOL     OW44102   6.485   6.406   9.885 -0.0391  0.4040 -0.0687
46261SOL    HW144103   6.477   6.466   9.811  0.8140  0.7753  0.1370
46261SOL    HW244104   6.395   6.393   9.914 -0.1098  3.6413  1.5155
46262SOL     OW44105   6.061   8.952   6.655 -0.0774  0.0227  0.2218
46262SOL    HW144106   6.046   8.910   6.570 -0.0118  0.0825  0.1804
46262SOL    HW244107   6.107   8.886   6.707  1.7416  0.6843 -0.4748
46263SOL     OW44108  10.216  10.383   8.054  0.5058  0.0988  0.2014
46263SOL    HW144109  10.214  10.389   7.958  1.4819 -0.0270  0.1626
46263SOL    HW244110  10.302  10.417   8.078  1.3180 -2.2188  0.8539
46264SOL     OW44111   5.036   2.473   1.515  0.0542  0.5367 -0.4065
46264SOL    HW144112   5.064   2.540   1.577  1.0164  2.0691 -2.3890
46264SOL    HW244113   5.096   2.400   1.529 -0.5789  0.2938  1.3155
46265SOL     OW44114   6.324   6.203  11.699  0.5756 -0.1680 -0.3995
46265SOL    HW144115   6.300   6.112  11.719  2.8358 -0.9578 -0.9513
46265SOL    HW244116   6.310   6.211  11.605 -0.1765  0.2578 -0.2573
46266SOL     OW44117   3.612   7.310   4.191  0.2221 -0.0622 -0.3551
46266SOL    HW144118   3.675   7.362   4.141  0.3698 -1.3933 -1.6092
46266SOL    HW244119   3.527   7.334   4.154  0.1673  0.2073 -0.0633
46267SOL     OW44120   7.792   7.355   1.625  0.8157 -0.2648 -0.4555
46267SOL    HW144121   7.773   7.445   1.600  0.9751  0.0852  0.6176
46267SOL    HW244122   7.710   7.322   1.662  0.7813 -0.5343 -0.7706
46268SOL     OW44123   7.711   9.072   0.340  0.0555  0.3969  0.6386
46268SOL    HW144124   7.799   9.037   0.325 -0.1079 -0.3569  1.3575
46268SOL    HW244125   7.653   9.008   0.300 -0.1482  1.7089 -1.3193
46269SOL     OW44126   9.906   4.035  11.489 -0.0379 -0.1585 -0.4308
46269SOL    HW144127   9.915   3.956  11.436  0.0630 -1.4356  1.3998
46269SOL    HW244128   9.934   4.106  11.432  1.1051 -1.5907 -1.7263
46270SOL     OW44129   1.222   1.889   0.711  0.2864  0.7046 -0.0226
46270SOL    HW144130   1.196   1.801   0.684 -0.8579  1.2750 -0.8401
46270SOL    HW244131   1.140   1.934   0.729  0.8808  1.4759  0.8589
46271SOL     OW44132   8.433   6.510   4.755 -0.4057 -0.5648 -0.7468
46271SOL    HW144133   8.367   6.572   4.725  0.6574  0.5020 -0.9523
46271SOL    HW244134   8.504   6.518   4.692  1.2647  0.6741  1.1533
46272SOL     OW44135   0.885   3.512   1.246 -0.2081 -0.2179 -0.0935
46272SOL    HW144136   0.806   3.544   1.288  1.2743  1.1524  1.8618
46272SOL    HW244137   0.855   3.473   1.163 -2.8019  0.7792  0.2943
46273SOL     OW44138   4.225  11.808  11.823  0.1442 -0.0203  0.0829
46273SOL    HW144139   4.300  11.860  11.794  1.2963 -2.3566 -1.4749
46273SOL    HW244140   4.242  11.790  11.915  1.5440 -0.5081 -0.2492
46274SOL     OW44141   0.198   8.770   8.832 -0.1763  0.0081 -0.3702
46274SOL    HW144142   0.245   8.697   8.792 -0.6067 -0.2495 -0.4069
46274SOL    HW244143   0.120   8.731   8.871 -0.7780  0.5384 -1.0085
46275SOL     OW44144   2.977   3.251   0.230  0.3753  0.2720 -0.1281
46275SOL    HW144145   2.951   3.208   0.312  0.2289  1.2400  0.3502
46275SOL    HW244146   2.921   3.212   0.163  1.5328 -1.6575 -0.0631
46276SOL     OW44147   9.610   1.224   4.872 -0.5368  0.1447  0.9738
46276SOL    HW144148   9.666   1.299   4.853 -0.1906 -0.4272 -0.3096
46276SOL    HW244149   9.663   1.148   4.851 -2.1806 -0.3988 -1.5249
46277SOL     OW44150   7.683   2.976   4.037 -0.7291 -0.0041 -0.2199
46277SOL    HW144151   7.696   3.037   4.110  2.2266 -0.8771  0.1282
46277SOL    HW244152   7.594   2.944   4.048 -0.8701  0.9702  2.1730
46278SOL     OW44153   0.519  11.459   5.831  0.4891 -0.3019 -0.1038
46278SOL    HW144154   0.574  11.519   5.881  0.5849 -0.8295  0.4364
46278SOL    HW244155   0.448  11.514   5.797  0.4633  0.0764  0.5457
46279SOL     OW44156   6.438   3.855  11.001 -0.0946  0.2681 -0.1360
46279SOL    HW144157   6.378   3.822  11.069  1.3649 -0.1505  1.0047
46279SOL    HW244158   6.428   3.950  11.005 -0.8759  0.1966 -0.1609
46280SOL     OW44159   4.945  10.124  11.674 -0.0483 -0.4678  0.1275
46280SOL    HW144160   5.040  10.133  11.666 -0.1060  1.2344  0.8768
46280SOL    HW244161   4.910  10.201  11.629 -1.0211 -0.4562  0.8738
46281SOL     OW44162   1.438   0.911   7.671 -0.7214  0.1003 -0.1959
46281SOL    HW144163   1.473   0.823   7.654 -0.2637  0.2599 -0.0943
46281SOL    HW244164   1.354   0.895   7.713 -0.8607 -0.2918 -0.6142
46282SOL     OW44165   7.235   5.293   3.604 -0.1927 -0.1464 -0.2411
46282SOL    HW144166   7.142   5.304   3.583  0.4213  0.0228 -3.2913
46282SOL    HW244167   7.271   5.382   3.598  0.6662 -0.5668 -2.2546
46283SOL     OW44168   7.229   1.280   2.961  0.2822 -0.0446 -0.3691
46283SOL    HW144169   7.298   1.256   2.899  1.4091 -0.9790  1.1573
46283SOL    HW244170   7.250   1.370   2.986  0.6415 -0.1355 -0.3308
46284SOL     OW44171   9.589   8.635   6.590 -0.3721  0.1056  0.3234
46284SOL    HW144172   9.545   8.646   6.674  0.8849  2.5140  0.7528
46284SOL    HW244173   9.683   8.633   6.612 -0.0663 -2.3928 -0.7894
46285SOL     OW44174   7.732   5.038   4.142  0.9143  0.2432  0.2855
46285SOL    HW144175   7.640   5.058   4.154  0.6363 -1.1887  0.7141
46285SOL    HW244176   7.776   5.123   4.148 -0.3160  0.8780  0.6075
46286SOL     OW44177   1.112   2.478   7.435 -0.0586  0.2358 -0.0828
46286SOL    HW144178   1.190   2.427   7.412 -0.8879 -1.4155  0.6208
46286SOL    HW244179   1.092   2.452   7.525 -0.8207  1.4294  0.1141
46287SOL     OW44180  11.243   5.803   2.238 -0.2366 -0.3757 -0.2158
46287SOL    HW144181  11.182   5.868   2.202  1.4286  0.6420 -1.3415
46287SOL    HW244182  11.313   5.798   2.173  1.8656 -0.0556  1.9033
46288SOL     OW44183   9.521  11.659   5.521 -0.2631 -0.7003 -0.5436
46288SOL    HW144184   9.602  11.623   5.482  1.0355  1.1972  0.2861
46288SOL    HW244185   9.523  11.628   5.611 -0.4311 -0.5828 -0.5013
46289SOL     OW44186  10.348   8.252   5.331 -0.1084 -0.7012 -0.8893
46289SOL    HW144187  10.289   8.185   5.295  0.0343 -0.1388 -2.1965
46289SOL    HW244188  10.425   8.250   5.275 -0.2884  0.8674 -1.2422
46290SOL     OW44189   4.625   4.433   2.024  0.6110  0.1802 -0.3122
46290SOL    HW144190   4.610   4.519   1.984 -0.1493  0.5928  0.7963
46290SOL    HW244191   4.540   4.409   2.062  1.0638 -0.6091  0.2306
46291SOL     OW44192   7.231   3.950   1.136  0.7125  0.5085  0.1773
46291SOL    HW144193   7.290   4.025   1.146 -0.0893  1.1236  0.3873
46291SOL    HW244194   7.145   3.983   1.163  0.3581 -0.5091  0.3412
46292SOL     OW44195   3.407  10.540   7.145  0.3805 -0.1123  0.5422
46292SOL    HW144196   3.438  10.583   7.225  2.1297 -1.6224  0.7424
46292SOL    HW244197   3.481  10.545   7.084  0.1756 -1.6625  0.1238
46293SOL     OW44198   9.089   3.272   8.568 -0.3100 -0.4736 -0.1669
46293SOL    HW144199   9.143   3.193   8.577  1.2376  0.6330  0.6424
46293SOL    HW244200   9.135   3.338   8.619 -1.6638  0.9281 -0.7092
46294SOL     OW44201  10.117  10.083   7.710 -0.0438  0.5675 -0.2181
46294SOL    HW144202  10.022  10.093   7.707 -0.0061  1.4040  0.7810
46294SOL    HW244203  10.131   9.988   7.712 -0.9081  0.4474  0.6903
46295SOL     OW44204   8.443   5.166   1.748  0.1075 -0.1826 -0.2647
46295SOL    HW144205   8.373   5.221   1.784  1.0780  0.3338  0.8924
46295SOL    HW244206   8.441   5.183   1.654 -1.0150  0.1700 -0.1884
46296SOL     OW44207   1.911   7.171   8.857  0.0141  0.1755 -0.2138
46296SOL    HW144208   1.845   7.240   8.857 -0.6491 -0.3685  2.0317
46296SOL    HW244209   1.918   7.144   8.766 -1.2635  1.7571 -0.8189
46297SOL     OW44210   4.801   9.639  10.212 -0.0894 -0.4335 -0.1208
46297SOL    HW144211   4.776   9.563  10.264  0.0446 -0.2282  0.2457
46297SOL    HW244212   4.897   9.635  10.208 -0.0132  0.2543  0.7313
46298SOL     OW44213   3.865   7.283   7.454  0.1648 -0.0584  0.8645
46298SOL    HW144214   3.893   7.352   7.514 -2.4790  0.0668  2.0880
46298SOL    HW244215   3.872   7.202   7.505  0.1219 -0.2674  0.5449
46299SOL     OW44216   7.398   7.057   2.663 -0.0035 -0.3920  0.1662
46299SOL    HW144217   7.385   7.136   2.715 -1.7422 -1.2439  1.1013
46299SOL    HW244218   7.363   7.080   2.577 -0.8567 -0.2461  0.5395
46300SOL     OW44219   0.523   0.658  11.339  0.3538 -0.2037  0.3022
46300SOL    HW144220   0.591   0.677  11.275 -0.0226 -0.3704 -0.1518
46300SOL    HW244221   0.458   0.727  11.325  0.4510 -0.0160  0.7662
46301SOL     OW44222   5.115   7.133   1.847 -0.2084  0.0674  0.7320
46301SOL    HW144223   5.097   7.061   1.907  0.0067  0.0568  0.7864
46301SOL    HW244224   5.205   7.118   1.818 -0.3762 -0.0353  0.2555
46302SOL     OW44225   2.644   5.597  10.981 -0.3046 -0.1190 -0.2229
46302SOL    HW144226   2.621   5.619  10.891 -1.7999  0.9369  0.3676
46302SOL    HW244227   2.639   5.501  10.985 -0.1450 -0.1748 -1.2749
46303SOL     OW44228   6.016   4.453   2.712  0.0491  0.1704 -0.1985
46303SOL    HW144229   5.992   4.370   2.753 -0.2129  0.8505  1.0943
46303SOL    HW244230   6.106   4.469   2.741 -0.2845  0.8656  0.4804
46304SOL     OW44231   2.529  10.542   7.782  0.1541 -0.1872 -0.3145
46304SOL    HW144232   2.508  10.461   7.736  0.4738 -0.0769 -0.6655
46304SOL    HW244233   2.454  10.557   7.840  0.7683 -1.5098  0.8611
46305SOL     OW44234  10.554   0.161   7.695  0.0669 -0.1443  0.3717
46305SOL    HW144235  10.620   0.132   7.633  1.9203  1.3399  1.5633
46305SOL    HW244236  10.499   0.222   7.645 -0.3030 -1.2060 -0.5592
46306SOL     OW44237   7.911   5.005  10.332  0.0715  0.0510  0.3471
46306SOL    HW144238   7.985   5.023  10.274 -0.2078 -0.5323 -0.1938
46306SOL    HW244239   7.922   4.914  10.359  0.6036  0.5133  1.8209
46307SOL     OW44240   7.253  10.303   1.688  0.1484  0.3646 -0.0944
46307SOL    HW144241   7.347  10.320   1.682  0.4085 -1.0567 -0.2118
46307SOL    HW244242   7.217  10.385   1.722  1.7498  0.1268  2.4350
46308SOL     OW44243   9.215   2.781   1.047  0.1915  0.1317  0.4434
46308SOL    HW144244   9.208   2.698   0.999 -2.1420  0.2099  0.5265
46308SOL    HW244245   9.216   2.756   1.139  0.6658  0.1603  0.4491
46309SOL     OW44246   0.841   9.993   2.216  0.3848 -0.2499  0.5348
46309SOL    HW144247   0.841   9.974   2.122 -0.0016  0.5692  0.3648
46309SOL    HW244248   0.752   9.970   2.245  0.4132 -0.2260  0.6405
46310SOL     OW44249   6.826   1.636   1.033 -0.2471  0.2528 -0.1135
46310SOL    HW144250   6.793   1.718   1.070 -1.8588  0.6582 -2.2075
46310SOL    HW244251   6.757   1.572   1.052  0.7468 -0.5364  1.0173
46311SOL     OW44252   1.989   0.472   9.963 -0.0115  0.5534 -0.1415
46311SOL    HW144253   1.935   0.424  10.025  0.5879  0.6147  0.4307
46311SOL    HW244254   1.948   0.455   9.878 -0.3949 -0.1372  0.1737
46312SOL     OW44255   6.585   3.369   5.966 -0.5921 -0.2715  0.0996
46312SOL    HW144256   6.650   3.433   5.938 -1.4688  0.8671  0.5674
46312SOL    HW244257   6.577   3.381   6.060  0.5172 -2.3479  0.5163
46313SOL     OW44258   8.124   3.016   6.591 -0.0651 -0.5369  0.6943
46313SOL    HW144259   8.162   2.929   6.582 -0.4076 -0.5586 -0.6298
46313SOL    HW244260   8.187   3.074   6.549  0.2579 -0.1073  1.7425
46314SOL     OW44261   6.538   3.827   6.800 -0.8068 -0.4521  0.4291
46314SOL    HW144262   6.544   3.867   6.887 -1.6523 -0.3800  0.4578
46314SOL    HW244263   6.567   3.737   6.814 -0.4533 -0.3059  0.6796
46315SOL     OW44264   7.760   4.594   3.399  0.2610 -0.0956  0.6396
46315SOL    HW144265   7.804   4.543   3.330  0.9587  1.0817  0.1875
46315SOL    HW244266   7.693   4.535   3.433  0.5519 -1.0484 -0.3776
46316SOL     OW44267   9.024  10.560  11.703  0.0492  0.4204 -0.9987
46316SOL    HW144268   8.976  10.604  11.773 -1.3385  0.5552 -1.9895
46316SOL    HW244269   8.965  10.490  11.674  1.8117 -1.5533 -0.1012
46317SOL     OW44270   4.346   9.698   3.361  0.8080 -0.1900  0.7672
46317SOL    HW144271   4.395   9.679   3.441  1.3103  0.0329  0.5115
46317SOL    HW244272   4.344   9.793   3.355 -0.0243 -0.1849  1.0000
46318SOL     OW44273   1.315   4.073   7.329 -0.2702 -0.3237  0.1858
46318SOL    HW144274   1.372   4.121   7.389  0.4587 -1.9649  0.8516
46318SOL    HW244275   1.227   4.084   7.366 -0.0731  0.2422  0.4946
46319SOL     OW44276   3.493   2.112   5.349  0.1260 -0.2336  0.5336
46319SOL    HW144277   3.494   2.086   5.257  0.9006 -0.0236  0.4772
46319SOL    HW244278   3.577   2.080   5.384  0.7210  1.3865  0.6750
46320SOL     OW44279  11.586   0.008   7.155  0.0116  0.2669 -0.0825
46320SOL    HW144280  11.576  -0.087   7.152  0.2270  0.2622 -0.6385
46320SOL    HW244281  11.656   0.028   7.094  1.2112  0.6288  1.3567
46321SOL     OW44282   3.709   1.065   1.881 -0.4106 -0.3915  0.1977
46321SOL    HW144283   3.741   0.989   1.833 -3.0925  1.2540 -4.9390
46321SOL    HW244284   3.652   1.028   1.949  0.1224 -2.9073 -0.6116
46322SOL     OW44285   3.515   4.288   6.172 -0.2620  0.4868  0.6877
46322SOL    HW144286   3.607   4.282   6.197 -0.0898  0.3490  0.0456
46322SOL    HW244287   3.467   4.275   6.253  0.2105 -2.4960  0.6068
46323SOL     OW44288  11.012   4.219   0.280  0.1870 -0.8115  0.6660
46323SOL    HW144289  10.962   4.139   0.298 -1.3293  0.1186  0.7852
46323SOL    HW244290  10.964   4.261   0.209  1.6355 -0.5553 -0.2040
46324SOL     OW44291   0.128   6.839   6.350  0.7485 -0.2336 -0.5053
46324SOL    HW144292   0.175   6.781   6.290  1.8686  0.5423 -0.4010
46324SOL    HW244293   0.123   6.790   6.432  1.1799 -0.4060 -0.5814
46325SOL     OW44294   7.440   1.632   9.520 -0.3823  0.0131 -0.4583
46325SOL    HW144295   7.371   1.683   9.561  0.3196  2.4263 -2.0672
46325SOL    HW244296   7.454   1.674   9.435  1.8351 -1.4948 -0.9285
46326SOL     OW44297   5.498   0.963   9.038 -0.6019 -0.5217 -0.0578
46326SOL    HW144298   5.482   1.042   8.986 -0.2147 -1.5963 -1.9223
46326SOL    HW244299   5.581   0.980   9.083 -1.2400  0.6677  0.7296
46327SOL     OW44300   6.643   5.796   9.728  0.1572 -0.5092  0.5770
46327SOL    HW144301   6.555   5.765   9.749 -0.0073 -0.4667 -0.0402
46327SOL    HW244302   6.692   5.716   9.706 -0.3192 -0.3430 -1.2053
46328SOL     OW44303  11.486   9.210   6.566  0.0443  0.0052 -0.1891
46328SOL    HW144304  11.461   9.189   6.656  1.1299 -0.0434  0.1084
46328SOL    HW244305  11.451   9.298   6.551  0.9179  0.5083  0.6977
46329SOL     OW44306   1.213  11.664   0.594  0.2224 -0.0131 -0.7049
46329SOL    HW144307   1.219  11.619   0.678  0.5985 -2.3425 -1.8846
46329SOL    HW244308   1.297  11.709   0.584 -1.2258  3.6820  1.8119
46330SOL     OW44309   6.913   5.827   3.810  0.1326 -0.1447 -0.1802
46330SOL    HW144310   6.855   5.887   3.858 -1.4214 -1.4641 -0.3149
46330SOL    HW244311   6.950   5.771   3.878  0.6713  0.2136 -0.1749
46331SOL     OW44312   9.371  10.239   5.094  0.7345  0.3079 -0.5066
46331SOL    HW144313   9.433  10.181   5.049  1.7049  2.0453 -1.5136
46331SOL    HW244314   9.328  10.183   5.159  0.8382 -1.7732 -2.1530
46332SOL     OW44315   7.965   0.614   2.264  0.4016 -0.1596  0.0835
46332SOL    HW144316   8.016   0.534   2.249  0.2358 -0.3975  0.7676
46332SOL    HW244317   7.932   0.637   2.177 -0.8774 -1.7346  0.1053
46333SOL     OW44318   6.609   8.451   7.114 -0.1548  0.0585  0.3889
46333SOL    HW144319   6.683   8.512   7.116 -0.3377  0.3976 -1.3590
46333SOL    HW244320   6.640   8.374   7.161  0.8385  0.6968  0.8128
46334SOL     OW44321  11.725   0.333   5.889  0.2145  0.0852 -0.2696
46334SOL    HW144322  11.759   0.422   5.886  1.3316 -0.3360 -1.0784
46334SOL    HW244323  11.802   0.278   5.875 -0.3064 -1.0549  1.0953
46335SOL     OW44324   9.478  10.654  10.791 -0.3152 -0.5198  0.0438
46335SOL    HW144325   9.427  10.719  10.743 -0.4137  0.5469  1.5390
46335SOL    HW244326   9.558  10.644  10.739  0.3970  1.9683  0.5326
46336SOL     OW44327   8.051   4.692   2.964  0.4558  0.2079  0.0476
46336SOL    HW144328   8.128   4.648   2.998 -0.7209 -1.6740  0.4458
46336SOL    HW244329   8.016   4.741   3.039  0.3291 -0.3192  0.3345
46337SOL     OW44330  10.680   0.878   5.095  0.4278  0.2178  0.3271
46337SOL    HW144331  10.761   0.828   5.085 -1.7659 -3.4597 -1.5530
46337SOL    HW244332  10.642   0.846   5.177 -0.5869 -0.7212 -0.4606
46338SOL     OW44333   6.559   6.382   4.965 -0.2939 -0.1815  0.4529
46338SOL    HW144334   6.616   6.442   5.014 -2.2075  1.1965  1.0922
46338SOL    HW244335   6.549   6.307   5.023  0.6516 -0.3390  0.4359
46339SOL     OW44336   3.518   8.673   8.766  0.1004 -0.0737 -0.7025
46339SOL    HW144337   3.461   8.719   8.828  0.0170  0.1823 -0.9710
46339SOL    HW244338   3.576   8.740   8.731 -2.0621  0.5081 -3.4621
46340SOL     OW44339   7.957   2.172   5.861 -0.2348 -0.1128 -0.0418
46340SOL    HW144340   8.045   2.144   5.836  0.2035 -0.1652  1.4414
46340SOL    HW244341   7.909   2.179   5.779  1.6076  1.4840 -1.0448
46341SOL     OW44342   5.513   3.822   0.010  0.5319 -0.0827 -0.3149
46341SOL    HW144343   5.497   3.916   0.014  1.1472 -0.0276  1.7635
46341SOL    HW244344   5.603   3.815  -0.024  0.7936  0.1234  0.3223
46342SOL     OW44345   2.908   3.105   8.578 -0.2070 -0.2885 -0.2365
46342SOL    HW144346   2.835   3.093   8.639 -0.0780  0.5149  0.0915
46342SOL    HW244347   2.903   3.197   8.554 -0.0271 -0.5177 -1.1584
46343SOL     OW44348   7.440   5.311   3.241  0.2492 -0.1617 -0.2993
46343SOL    HW144349   7.504   5.253   3.200  0.4509 -0.0745 -0.1037
46343SOL    HW244350   7.427   5.275   3.328 -1.5417 -1.4338 -1.0375
46344SOL     OW44351   5.187   7.679   6.338  0.1017  0.0519 -0.1608
46344SOL    HW144352   5.114   7.628   6.303  1.2651 -0.7733 -1.4990
46344SOL    HW244353   5.243   7.697   6.262  0.9826  1.2038  0.7121
46345SOL     OW44354   6.853   3.631   0.550 -0.0495 -0.0872 -0.1672
46345SOL    HW144355   6.777   3.684   0.575 -0.6570 -0.7659 -0.5396
46345SOL    HW244356   6.886   3.673   0.471 -0.6864 -0.4048 -0.6090
46346SOL     OW44357   4.477   6.929   7.394  0.2021 -0.1742 -0.2608
46346SOL    HW144358   4.476   7.011   7.443  0.6728 -0.6760  0.6042
46346SOL    HW244359   4.427   6.949   7.315  0.8888  1.1412 -0.3995
46347SOL     OW44360   6.125  10.725   4.376 -0.2179  0.1718 -0.2645
46347SOL    HW144361   6.076  10.682   4.445  0.5712 -0.7525 -0.2487
46347SOL    HW244362   6.068  10.721   4.299 -0.3754 -0.4161 -0.1185
46348SOL     OW44363   7.744   5.030   6.172 -0.0327  0.2143 -0.2411
46348SOL    HW144364   7.706   5.084   6.102 -1.8344  1.3121  1.4683
46348SOL    HW244365   7.831   5.068   6.187 -0.0155  0.5950 -1.2066
46349SOL     OW44366   3.761  10.205   1.990 -0.5236  0.4827  0.1041
46349SOL    HW144367   3.686  10.252   2.025 -0.7754 -0.4494  0.8537
46349SOL    HW244368   3.778  10.245   1.904 -2.0684  0.4871 -0.2147
46350SOL     OW44369   0.807   1.320   3.756 -0.2056  0.4363  0.4032
46350SOL    HW144370   0.823   1.398   3.702 -1.7185  1.0948  0.8514
46350SOL    HW244371   0.846   1.341   3.841  1.4289 -0.2631 -0.1270
46351SOL     OW44372  10.730   9.966   8.542 -0.2505  0.1387  0.6274
46351SOL    HW144373  10.763   9.924   8.621 -1.4278  0.3326  1.2418
46351SOL    HW244374  10.636   9.976   8.557 -0.0858  2.7083  0.4081
46352SOL     OW44375   4.059  10.139   1.469  0.2447 -0.6034  0.1400
46352SOL    HW144376   4.107  10.194   1.532  0.0720 -0.2849 -0.0058
46352SOL    HW244377   4.006  10.081   1.524 -2.0599  1.5126  0.3598
46353SOL     OW44378   5.764   6.758   0.731  0.1764 -0.1117  0.5636
46353SOL    HW144379   5.807   6.822   0.788  0.8923  0.1628 -0.2605
46353SOL    HW244380   5.763   6.677   0.782 -1.8107  0.7971  2.0924
46354SOL     OW44381   1.836   3.916   6.653  0.2263  0.2144  0.5337
46354SOL    HW144382   1.910   3.876   6.608  0.8188  2.0225 -0.1356
46354SOL    HW244383   1.770   3.928   6.585  0.5273  1.4999  0.4569
46355SOL     OW44384   9.530  11.125   7.809 -0.0495 -0.6488 -0.5843
46355SOL    HW144385   9.624  11.117   7.796  0.1361 -0.6243  0.6018
46355SOL    HW244386   9.519  11.127   7.904 -1.3160 -1.4746 -0.6779
46356SOL     OW44387   6.367   1.666   3.844 -0.7502 -0.1835  0.0665
46356SOL    HW144388   6.312   1.745   3.848 -1.0893 -0.4106 -0.0542
46356SOL    HW244389   6.439   1.691   3.787 -0.2535  0.4006  0.9255
46357SOL     OW44390   8.706  10.430   5.395 -0.5210  0.0633  0.0120
46357SOL    HW144391   8.798  10.437   5.368 -0.1533 -2.3067  0.4618
46357SOL    HW244392   8.706  10.362   5.461 -2.5570  0.4055  0.4020
46358SOL     OW44393   4.499   6.311  11.638  0.0280  0.1860  0.3042
46358SOL    HW144394   4.449   6.298  11.719 -1.5210  0.5121 -0.5626
46358SOL    HW244395   4.555   6.387  11.656  0.3291 -0.2646  1.3386
46359SOL     OW44396   7.706   6.110   4.537  0.5433 -0.0410 -0.8455
46359SOL    HW144397   7.722   6.024   4.499 -1.6377 -0.3694 -1.1802
46359SOL    HW244398   7.751   6.108   4.621 -0.7861 -2.1861 -0.0960
46360SOL     OW44399   8.365  10.009  10.869 -0.5678  0.3255  0.0045
46360SOL    HW144400   8.387   9.938  10.809  0.5843  0.5294  0.1507
46360SOL    HW244401   8.376   9.971  10.956 -1.3579  0.2829  0.0888
46361SOL     OW44402   4.382  11.640   8.804 -0.3315 -0.1544  0.0318
46361SOL    HW144403   4.368  11.714   8.863 -1.2993  0.5034 -0.9898
46361SOL    HW244404   4.354  11.671   8.719  0.4374 -1.3023 -0.6707
46362SOL     OW44405   8.412   1.179   0.953  0.5398  0.0954  0.2134
46362SOL    HW144406   8.408   1.254   1.012  0.5694  1.6669 -1.6984
46362SOL    HW244407   8.485   1.127   0.985  0.8071  1.1062  1.3174
46363SOL     OW44408   8.854   6.825   6.777  0.2424  0.1816 -0.4498
46363SOL    HW144409   8.882   6.889   6.713 -0.5353  0.9253 -0.0693
46363SOL    HW244410   8.802   6.875   6.840  1.3703 -0.4303  1.0249
46364SOL     OW44411   5.641   3.982   8.592 -0.2697  0.6106  0.7510
46364SOL    HW144412   5.623   3.908   8.651  2.4703  0.1126  1.1006
46364SOL    HW244413   5.609   3.952   8.507  1.1839 -1.2588  0.7859
46365SOL     OW44414   7.126   1.731   9.093 -0.5282 -0.0705 -0.6824
46365SOL    HW144415   7.114   1.790   9.018 -1.5198  1.8237  0.8691
46365SOL    HW244416   7.046   1.741   9.144  0.7097 -0.1459  1.3794
46366SOL     OW44417   1.334   7.951   7.065 -0.2975  0.1043  0.9446
46366SOL    HW144418   1.275   8.021   7.093 -0.1446  0.2896  0.8073
46366SOL    HW244419   1.310   7.933   6.975  0.9258  1.3254  0.3338
46367SOL     OW44420   0.124   5.385   1.169  0.0038  0.1644 -0.1352
46367SOL    HW144421   0.183   5.378   1.244 -0.2342 -1.1519 -0.0607
46367SOL    HW244422   0.077   5.302   1.166  0.2668  0.0333 -1.9711
46368SOL     OW44423  10.421   2.205   5.195 -0.7678  0.3542 -0.3247
46368SOL    HW144424  10.359   2.277   5.185 -0.7075  0.1791 -2.2244
46368SOL    HW244425  10.478   2.233   5.267 -0.0208  2.7692 -1.7534
46369SOL     OW44426   1.175   3.235   7.992  0.2697  0.5809  0.4745
46369SOL    HW144427   1.153   3.259   8.082  1.2492  0.3078  0.7989
46369SOL    HW244428   1.174   3.140   7.992 -0.8307  0.5813 -0.0982
46370SOL     OW44429   6.265   4.440   8.825  0.2845 -0.2441  0.1350
46370SOL    HW144430   6.277   4.449   8.920 -0.4095  1.2173  0.1044
46370SOL    HW244431   6.197   4.373   8.816  0.6696 -0.7166  0.6402
46371SOL     OW44432  10.291   0.170   4.143 -0.2849  0.1397 -0.0895
46371SOL    HW144433  10.220   0.208   4.091  1.1392  0.1142 -2.1323
46371SOL    HW244434  10.339   0.245   4.177  0.2815  0.1797 -0.9565
46372SOL     OW44435  10.422   5.007  10.470 -0.0873  0.3392 -0.8417
46372SOL    HW144436  10.365   4.934  10.496  0.5417  0.5199  1.2248
46372SOL    HW244437  10.363   5.067  10.424 -1.6224  0.4511  1.0994
46373SOL     OW44438   1.047   9.351   1.966  0.0895 -0.4426  0.2605
46373SOL    HW144439   1.046   9.447   1.965 -3.0002 -0.3679 -1.1135
46373SOL    HW244440   1.108   9.327   1.897  1.8181  0.4318  1.3982
46374SOL     OW44441   9.500  10.071   8.959  0.1963 -0.0723 -0.2701
46374SOL    HW144442   9.487  10.110   8.873 -0.0575  0.7759  0.1474
46374SOL    HW244443   9.582  10.109   8.991 -1.1329  1.8307  1.0472
46375SOL     OW44444   1.308   6.652   4.318  0.3014  0.4494  0.1224
46375SOL    HW144445   1.242   6.688   4.260  0.4317  0.8585  0.2262
46375SOL    HW244446   1.260   6.591   4.374 -0.1805  1.5095  0.8897
46376SOL     OW44447   3.661   3.223  10.520  0.3688  0.0442  0.2191
46376SOL    HW144448   3.615   3.296  10.478 -0.2460  0.7729  2.0426
46376SOL    HW244449   3.752   3.254  10.528  0.1135  0.6517  0.9726
46377SOL     OW44450  10.260   4.154   1.675 -0.4828 -0.6237 -0.3105
46377SOL    HW144451  10.252   4.059   1.677 -3.1510 -0.4858 -1.1475
46377SOL    HW244452  10.293   4.173   1.587  0.3598 -0.7627 -0.0339
46378SOL     OW44453   8.899  10.978   2.497  0.4015  0.0380 -0.6848
46378SOL    HW144454   8.804  10.985   2.485  0.1102 -1.0515  0.7388
46378SOL    HW244455   8.935  11.049   2.444 -1.2594  1.0329 -0.5582
46379SOL     OW44456   7.042   1.945   0.432 -0.5767  0.1009 -0.2193
46379SOL    HW144457   6.953   1.910   0.433 -0.4276 -0.3200 -1.1448
46379SOL    HW244458   7.035   2.028   0.385 -0.4073 -0.1318 -0.6551
46380SOL     OW44459   8.755   7.872   8.629 -0.5150 -0.0421 -0.9090
46380SOL    HW144460   8.832   7.926   8.612 -0.9038  0.0725 -2.5718
46380SOL    HW244461   8.682   7.934   8.628 -0.6388 -0.1294  0.7786
46381SOL     OW44462  10.431   6.036   3.663  0.1974 -0.2124  0.3197
46381SOL    HW144463  10.415   5.942   3.651  0.8022 -0.3819  0.7518
46381SOL    HW244464  10.512   6.052   3.614  0.3575 -0.0216  0.6446
46382SOL     OW44465   2.493   3.688   0.299 -0.3322  0.0172 -0.7211
46382SOL    HW144466   2.410   3.666   0.256 -1.2446  0.3975  0.7556
46382SOL    HW244467   2.512   3.613   0.355 -1.2328  1.0910  1.1197
46383SOL     OW44468   0.055   3.563   6.975  0.0945 -0.6066 -0.1573
46383SOL    HW144469   0.145   3.577   6.948 -0.3891  1.2857 -0.9157
46383SOL    HW244470   0.060   3.559   7.071  0.8527  0.6836 -0.1178
46384SOL     OW44471   2.077   7.185   7.790 -0.0680  0.4726  0.1170
46384SOL    HW144472   2.051   7.207   7.879  0.5279  0.3316  0.3345
46384SOL    HW244473   1.995   7.176   7.742 -0.5288 -1.5536  1.1498
46385SOL     OW44474   7.898   1.521  10.684 -0.0141 -0.2198  0.1006
46385SOL    HW144475   7.940   1.606  10.667 -0.0881  0.3732  2.4234
46385SOL    HW244476   7.915   1.469  10.606  0.9746  1.5843 -0.9492
46386SOL     OW44477   4.250   1.175  10.876 -0.2189 -0.2616 -0.6143
46386SOL    HW144478   4.180   1.158  10.813 -0.2968 -1.3658 -0.2571
46386SOL    HW244479   4.253   1.096  10.930  0.0687  0.5324  0.5613
46387SOL     OW44480  10.654  10.604   9.371  0.5334  0.1936  0.1102
46387SOL    HW144481  10.683  10.538   9.309  2.5401  1.3941 -0.3056
46387SOL    HW244482  10.587  10.653   9.323 -0.3548 -0.9583  0.1262
46388SOL     OW44483  10.871   4.545  10.455  0.1588  0.0879 -0.0652
46388SOL    HW144484  10.863   4.638  10.434 -0.1590  0.0482 -0.1314
46388SOL    HW244485  10.867   4.501  10.370 -0.4023 -0.0281  0.0168
46389SOL     OW44486   8.899   2.396   0.940 -0.1017  0.1641  0.1928
46389SOL    HW144487   8.839   2.325   0.916  0.1189  0.2616 -0.6507
46389SOL    HW244488   8.843   2.473   0.948 -0.2923 -0.0267  0.7952
46390SOL     OW44489  10.802   3.776   8.258 -0.3677  0.4505 -0.1145
46390SOL    HW144490  10.874   3.786   8.197 -0.2274  1.2871  0.1686
46390SOL    HW244491  10.787   3.682   8.263  0.4108  0.2990 -0.5115
46391SOL     OW44492   9.974   4.220   2.542  0.0943  0.6919  0.2907
46391SOL    HW144493   9.922   4.243   2.465 -0.6002  0.7987  0.7814
46391SOL    HW244494  10.045   4.165   2.508 -0.6671  0.0691 -0.3028
46392SOL     OW44495   1.606   2.699   7.534 -0.1003 -0.8133 -0.2286
46392SOL    HW144496   1.670   2.654   7.480  0.9619 -0.6886  0.8733
46392SOL    HW244497   1.649   2.781   7.559  0.5687 -1.9452  2.8658
46393SOL     OW44498   4.095   5.046   5.284 -0.0365  0.3593 -0.3084
46393SOL    HW144499   4.171   5.081   5.331  0.2349 -1.2724  0.5495
46393SOL    HW244500   4.099   4.951   5.299 -1.3042  0.0564 -1.6650
46394SOL     OW44501  10.950   9.482   8.347 -0.4462  0.2274  0.0672
46394SOL    HW144502  11.002   9.550   8.392 -0.4366 -0.1614  0.6572
46394SOL    HW244503  10.993   9.400   8.371 -0.2662  0.0244 -0.9030
46395SOL     OW44504   5.243   0.331   8.488  0.1943 -0.0104  0.4386
46395SOL    HW144505   5.176   0.393   8.460  1.2074  0.6567 -0.6421
46395SOL    HW244506   5.212   0.246   8.457  0.3770  0.4570 -1.1274
46396SOL     OW44507   8.685   3.249  10.079  0.1021 -0.2406  0.2674
46396SOL    HW144508   8.773   3.286  10.085  0.5749 -1.4757  1.6193
46396SOL    HW244509   8.628   3.324  10.061  1.3409  0.6827  0.0611
46397SOL     OW44510   2.753   6.531  11.209  0.3904 -0.4285  0.3690
46397SOL    HW144511   2.737   6.619  11.244  2.1271 -0.0272  0.2274
46397SOL    HW244512   2.807   6.488  11.276 -0.3809 -1.3810  0.4040
46398SOL     OW44513  11.181  11.011   6.977 -0.1996 -0.0874  0.3534
46398SOL    HW144514  11.232  10.930   6.967 -0.7834 -0.2700 -1.3803
46398SOL    HW244515  11.151  11.032   6.889 -0.4971  1.7572  0.8538
46399SOL     OW44516   8.109   6.282   3.875  0.3811 -0.0759 -0.1974
46399SOL    HW144517   8.053   6.212   3.907 -0.7500  0.8089 -0.1737
46399SOL    HW244518   8.068   6.310   3.793  0.5253  0.8817  0.0484
46400SOL     OW44519   8.414   4.878   5.805  0.1191  0.7608 -0.4842
46400SOL    HW144520   8.338   4.921   5.844 -0.3459  1.3947 -2.0175
46400SOL    HW244521   8.380   4.795   5.771  0.8281 -0.4884  1.6625
46401SOL     OW44522   1.895  11.162   1.955 -0.5814 -0.3567 -0.8499
46401SOL    HW144523   1.961  11.121   1.899  0.6343 -1.2812  1.1483
46401SOL    HW244524   1.925  11.253   1.965 -0.8745 -0.1532 -1.7691
46402SOL     OW44525   9.941   1.866   8.438 -0.0383  0.1949  0.3231
46402SOL    HW144526   9.880   1.844   8.368 -0.6983  0.0684  0.9232
46402SOL    HW244527  10.027   1.836   8.406 -0.4640 -0.6478 -0.0642
46403SOL     OW44528   7.272   7.725  10.507  0.4964  0.4459  0.0437
46403SOL    HW144529   7.225   7.658  10.458 -4.2544  1.0329  3.2093
46403SOL    HW244530   7.348   7.679  10.544  0.7331 -1.5081 -2.5967
46404SOL     OW44531   9.069   6.781   4.220 -0.3005 -0.5238  0.1154
46404SOL    HW144532   9.080   6.719   4.292 -1.7875 -0.5058  0.3853
46404SOL    HW244533   9.143   6.764   4.162  0.0600 -1.6088  0.8658
46405SOL     OW44534   2.149   3.874   4.926 -0.5606  0.3595  0.1921
46405SOL    HW144535   2.195   3.938   4.979 -0.9132  0.8590 -0.1006
46405SOL    HW244536   2.059   3.906   4.921 -0.7429 -0.1567  0.0448
46406SOL     OW44537   8.430   9.233   3.998  0.2411  0.5882 -0.1717
46406SOL    HW144538   8.351   9.225   3.945  0.1522  1.4804 -0.1862
46406SOL    HW244539   8.502   9.234   3.935  0.2123  0.5886 -0.2045
46407SOL     OW44540   0.953   5.801  10.543  0.6827 -0.3882  0.3150
46407SOL    HW144541   0.974   5.877  10.489  0.1196 -0.9843 -0.7771
46407SOL    HW244542   0.869   5.821  10.583  0.5315 -0.4486  0.0225
46408SOL     OW44543  10.705   1.782   8.141  0.2192 -0.1344  0.0961
46408SOL    HW144544  10.614   1.809   8.126  0.4631  1.1303  0.8206
46408SOL    HW244545  10.710   1.763   8.235  1.3075  2.3232  0.6016
46409SOL     OW44546   0.408   3.011   0.183  0.1978  0.0051  0.5850
46409SOL    HW144547   0.335   3.036   0.240  0.5563  1.8733  0.2943
46409SOL    HW244548   0.480   2.992   0.243 -0.6373 -2.5150  0.9099
46410SOL     OW44549   8.424   6.178   4.140  0.4352 -0.1311  0.4934
46410SOL    HW144550   8.495   6.240   4.153 -0.5308  1.5707 -1.6823
46410SOL    HW244551   8.458   6.113   4.078 -0.0587  1.0993 -1.1301
46411SOL     OW44552   5.921   9.108   0.754 -0.0569  0.8359 -0.5297
46411SOL    HW144553   6.005   9.074   0.724 -0.2335 -2.1738  1.8795
46411SOL    HW244554   5.865   9.106   0.676  1.2141 -0.3127 -1.4593
46412SOL     OW44555   1.960   7.499   3.383 -0.2546  0.1215 -0.6395
46412SOL    HW144556   1.947   7.566   3.316 -0.5823  1.4061  0.6434
46412SOL    HW244557   2.054   7.498   3.399 -0.2777  0.5349 -0.4443
46413SOL     OW44558   0.454   8.809  11.617  0.2210  0.4407 -0.1013
46413SOL    HW144559   0.404   8.851  11.548  1.5196  0.7259 -0.8984
46413SOL    HW244560   0.408   8.726  11.633 -0.9402  1.0334 -0.2368
46414SOL     OW44561  11.191   7.200  10.136 -0.0745  0.1977 -0.2374
46414SOL    HW144562  11.182   7.246  10.219  2.0554  0.7334 -0.2371
46414SOL    HW244563  11.251   7.255  10.085  0.8355 -1.5049 -1.0687
46415SOL     OW44564  11.604  11.205  10.131 -0.5987 -0.2732 -0.4934
46415SOL    HW144565  11.606  11.116  10.165  2.6358  1.0248  3.5652
46415SOL    HW244566  11.677  11.210  10.070  0.5092 -0.0522  0.7888
46416SOL     OW44567  11.364   9.976   8.559  0.1532  0.4984 -0.0718
46416SOL    HW144568  11.351   9.896   8.611 -0.1677  0.9749  0.5926
46416SOL    HW244569  11.424  10.029   8.610  3.7077 -0.9508 -2.3336
46417SOL     OW44570   0.019   1.205   9.447  1.1221 -0.0912  0.4416
46417SOL    HW144571  -0.014   1.288   9.411  1.7428  0.1330  0.3779
46417SOL    HW244572   0.087   1.178   9.386 -0.4841 -1.7641 -0.7268
46418SOL     OW44573  10.691   9.948   2.635 -0.2308 -0.0614 -0.7120
46418SOL    HW144574  10.678   9.993   2.551 -0.6000  0.2586 -0.4899
46418SOL    HW244575  10.701   9.856   2.611 -0.3520  0.0237 -1.1081
46419SOL     OW44576   1.560   6.681   2.222 -0.0038  0.1415 -0.0450
46419SOL    HW144577   1.520   6.749   2.167 -3.7755 -1.0965  0.8840
46419SOL    HW244578   1.584   6.612   2.160 -0.0223  0.5902 -0.5674
46420SOL     OW44579   6.600  10.309   3.765  0.4623 -0.0470  0.4350
46420SOL    HW144580   6.655  10.236   3.796  0.5797  0.1690  0.7450
46420SOL    HW244581   6.521  10.267   3.731  0.4385 -0.3080  0.8081
46421SOL     OW44582   5.875   7.889   2.433  0.0540 -0.5129  0.0432
46421SOL    HW144583   5.896   7.800   2.405  2.0948  0.1785 -0.8161
46421SOL    HW244584   5.838   7.931   2.356  1.3553  0.0481 -0.3051
46422SOL     OW44585  10.001   0.089   8.302 -0.4802  0.3708  0.1091
46422SOL    HW144586  10.008  -0.002   8.272 -0.1109  0.7252 -0.9382
46422SOL    HW244587   9.918   0.119   8.266 -0.9965  0.2155  1.1432
46423SOL     OW44588   1.143  10.335   3.677  1.0771  0.0012  0.3011
46423SOL    HW144589   1.055  10.308   3.703  0.3739 -0.5221 -2.3037
46423SOL    HW244590   1.201  10.295   3.741 -0.4297 -2.0098  0.4918
46424SOL     OW44591   1.229  11.122   0.208 -0.3466  0.2183  0.3669
46424SOL    HW144592   1.303  11.180   0.228 -0.9660  1.4758 -0.8241
46424SOL    HW244593   1.226  11.061   0.281  2.9783 -1.0287 -0.3409
46425SOL     OW44594  10.492  10.064   3.679  0.1677  0.2720 -0.0284
46425SOL    HW144595  10.494  10.032   3.769 -1.0808 -1.6132 -0.6113
46425SOL    HW244596  10.567  10.122   3.672  0.5117  0.1428  2.1118
46426SOL     OW44597   3.344   0.739  10.408 -0.5771  0.5331 -0.8312
46426SOL    HW144598   3.283   0.788  10.354 -3.1554 -0.0658  1.3219
46426SOL    HW244599   3.291   0.705  10.480  2.0452 -1.2667  0.4369
46427SOL     OW44600   7.403   6.295   8.092  0.5961 -0.1975 -0.0558
46427SOL    HW144601   7.488   6.253   8.078 -1.2061 -3.5179 -2.7711
46427SOL    HW244602   7.353   6.231   8.144 -1.5194 -0.4806 -2.2494
46428SOL     OW44603   9.119   6.583  10.375  0.4047  0.2684  0.3052
46428SOL    HW144604   9.165   6.664  10.395 -0.5009  0.3297  2.3323
46428SOL    HW244605   9.054   6.607  10.309 -0.2878  1.3634  1.3450
46429SOL     OW44606   3.314   5.721   9.834  0.4551 -0.4019 -0.3057
46429SOL    HW144607   3.333   5.808   9.870 -1.1420 -0.1188 -0.0821
46429SOL    HW244608   3.398   5.691   9.800  1.4262  0.4714  1.2149
46430SOL     OW44609   1.178   3.164   8.739  0.0578 -0.1054 -0.5829
46430SOL    HW144610   1.187   3.131   8.829 -0.4274  2.0780  0.3199
46430SOL    HW244611   1.265   3.151   8.700  1.3305  1.8941  1.3276
46431SOL     OW44612  10.111   8.509  11.091 -0.0204  0.2390 -0.3409
46431SOL    HW144613  10.148   8.561  11.161 -0.4578  0.1370 -0.0295
46431SOL    HW244614  10.040   8.564  11.056  0.9321  0.7873 -1.4779
46432SOL     OW44615  10.140   2.447   0.542 -0.3676  0.3797  0.5187
46432SOL    HW144616  10.139   2.517   0.607 -0.4171  0.1823  0.7323
46432SOL    HW244617  10.112   2.369   0.590 -1.8949  0.5263 -0.0760
46433SOL     OW44618   1.688   1.832   8.396  0.3704 -0.5835 -0.3141
46433SOL    HW144619   1.654   1.773   8.328  0.8587 -2.2018  0.8140
46433SOL    HW244620   1.780   1.845   8.373  0.5124 -1.0563 -0.0094
46434SOL     OW44621   2.454   4.974   0.576 -0.1226  0.2002 -0.3962
46434SOL    HW144622   2.466   5.047   0.516 -0.9601 -0.6395 -1.6484
46434SOL    HW244623   2.374   4.931   0.545  0.5891 -1.4975  0.0181
46435SOL     OW44624  10.079   2.539   1.108 -0.5481 -0.7020 -0.3261
46435SOL    HW144625  10.081   2.448   1.139 -0.4315 -0.1737  1.2847
46435SOL    HW244626   9.986   2.559   1.100 -0.5924 -0.7182  0.1070
46436SOL     OW44627   0.623  10.401   0.831  0.1247 -0.3688 -0.1276
46436SOL    HW144628   0.536  10.438   0.814  0.8100  1.8485  0.8574
46436SOL    HW244629   0.619  10.313   0.794 -2.0734  0.1789 -1.3715
46437SOL     OW44630   6.557   4.411   7.244  0.1815 -0.3253  0.0475
46437SOL    HW144631   6.609   4.377   7.171 -0.4685 -0.0128 -0.5817
46437SOL    HW244632   6.608   4.484   7.279 -0.4666  0.9170 -1.4913
46438SOL     OW44633   5.523   9.272   0.297 -0.1939  0.0281  0.5670
46438SOL    HW144634   5.479   9.221   0.229 -0.8290 -0.0403  1.0208
46438SOL    HW244635   5.456   9.286   0.363  1.0627 -2.0781  2.4106
46439SOL     OW44636   9.068   5.409   0.637  0.2549 -0.8429  0.0516
46439SOL    HW144637   9.004   5.434   0.704 -0.1517 -0.2296 -0.5582
46439SOL    HW244638   9.113   5.333   0.674  0.5613 -0.0596  1.3555
46440SOL     OW44639   6.142   0.841   4.934 -0.7642  0.0521 -0.5321
46440SOL    HW144640   6.234   0.857   4.955 -0.4509 -0.9022 -1.1030
46440SOL    HW244641   6.098   0.923   4.954 -0.1571 -0.1137  1.8460
46441SOL     OW44642   0.246   5.382   1.763 -0.2158 -0.3903 -0.2290
46441SOL    HW144643   0.186   5.444   1.723 -0.5077 -0.3595  0.2543
46441SOL    HW244644   0.194   5.303   1.776 -0.0930 -0.4331  0.0043
46442SOL     OW44645  10.480   6.321   6.516  0.2131 -1.3479 -0.4208
46442SOL    HW144646  10.404   6.271   6.487 -1.6905  0.1438  1.5883
46442SOL    HW244647  10.474   6.320   6.612  1.9105 -0.0166 -0.2533
46443SOL     OW44648   1.236   2.158   1.166 -0.0301 -0.0139  0.7612
46443SOL    HW144649   1.263   2.071   1.194  2.3500  1.0858  2.1756
46443SOL    HW244650   1.244   2.156   1.070  1.7152 -0.8574  0.8899
46444SOL     OW44651  11.137  10.808  10.200  0.3839  0.4129 -0.2102
46444SOL    HW144652  11.215  10.761  10.232 -0.6696 -1.9326 -0.8601
46444SOL    HW244653  11.128  10.780  10.109  0.2968  2.8328 -1.0088
46445SOL     OW44654   9.381   9.455   1.845  0.2465 -0.4075  0.3790
46445SOL    HW144655   9.408   9.366   1.824  0.3144 -0.1383 -0.6940
46445SOL    HW244656   9.287   9.455   1.832 -0.0729 -0.8230  2.2696
46446SOL     OW44657   1.013   8.062  11.396  0.1781  0.3450 -0.5304
46446SOL    HW144658   1.076   8.109  11.340 -0.2095  0.0892 -1.1965
46446SOL    HW244659   1.023   7.971  11.370  0.0334  0.2197 -0.1361
46447SOL     OW44660   2.166   5.943   0.484 -0.2490  0.3088  0.3099
46447SOL    HW144661   2.254   5.981   0.486  0.0211 -0.3156  0.7835
46447SOL    HW244662   2.175   5.863   0.432 -0.5389  0.2404  0.3593
46448SOL     OW44663   3.992   5.581   6.196 -0.4302  0.0266 -0.3948
46448SOL    HW144664   4.041   5.607   6.118  0.1882  0.5281  0.1462
46448SOL    HW244665   3.967   5.664   6.237 -2.4658 -0.1950 -1.0830
46449SOL     OW44666  11.459   5.110   7.355  0.0264  0.6657 -0.2525
46449SOL    HW144667  11.401   5.187   7.361 -2.2216 -0.8248 -1.2762
46449SOL    HW244668  11.425   5.061   7.280  2.1286 -0.7692 -0.3482
46450SOL     OW44669   3.669   6.975   3.166  0.1289 -0.1200 -0.1486
46450SOL    HW144670   3.635   7.037   3.231  2.0448  0.3650  0.4770
46450SOL    HW244671   3.631   7.003   3.083 -0.5953  0.6687  0.4285
46451SOL     OW44672   7.774   7.212   1.208  0.6285  0.4708  0.2404
46451SOL    HW144673   7.759   7.159   1.130 -0.1126  0.1809  0.5714
46451SOL    HW244674   7.781   7.149   1.279 -2.6619  0.8059  1.0453
46452SOL     OW44675  11.650   3.136   8.105  0.6233  0.2876  0.0186
46452SOL    HW144676  11.643   3.226   8.138  0.5925 -0.0549  0.9820
46452SOL    HW244677  11.617   3.141   8.016  1.8955  1.4934 -0.4278
46453SOL     OW44678   7.191   1.036   0.208  0.0624  0.6125 -0.0062
46453SOL    HW144679   7.131   1.105   0.238  1.3245  1.8625 -0.2541
46453SOL    HW244680   7.272   1.053   0.255  0.8988  0.2959 -1.2798
46454SOL     OW44681   0.316   1.169   1.768 -0.3112  0.7853  0.5170
46454SOL    HW144682   0.352   1.213   1.692  0.6912  0.3628  0.7309
46454SOL    HW244683   0.228   1.206   1.778 -0.2207  1.2933 -0.4623
46455SOL     OW44684   4.045   8.199   1.650  0.8909 -0.7312  0.2086
46455SOL    HW144685   3.970   8.169   1.599  0.6661 -0.9131  0.6399
46455SOL    HW244686   4.110   8.225   1.584 -0.5322  2.0531 -0.2780
46456SOL     OW44687   9.490  11.724  10.949  0.5154  0.1292 -0.3285
46456SOL    HW144688   9.511  11.635  10.978  1.1285  0.2121 -0.4941
46456SOL    HW244689   9.473  11.716  10.855  0.5481  0.1783 -0.3385
46457SOL     OW44690   6.737   9.508   3.160  0.7716  0.6130  0.3354
46457SOL    HW144691   6.829   9.493   3.139  0.7642 -1.1080  1.3388
46457SOL    HW244692   6.698   9.421   3.160 -0.3530  1.0679  2.1789
46458SOL     OW44693   4.039   1.706   5.219  0.2098 -0.1607  0.6312
46458SOL    HW144694   3.951   1.676   5.238  0.4336 -0.1352  1.7822
46458SOL    HW244695   4.049   1.787   5.270  0.0222  1.2642 -1.4954
46459SOL     OW44696   8.746   2.862   4.493  0.3920  0.2340  0.0250
46459SOL    HW144697   8.821   2.833   4.545  1.7244  1.0144 -1.4180
46459SOL    HW244698   8.705   2.781   4.464  1.8411 -0.2337 -0.7992
46460SOL     OW44699   1.823   4.624   9.630 -0.2849 -0.3168 -0.2472
46460SOL    HW144700   1.784   4.692   9.685  1.0653  0.3965 -0.1521
46460SOL    HW244701   1.863   4.563   9.692 -2.7955 -2.1033 -0.2374
46461SOL     OW44702  11.107   3.405   2.547 -0.1832  0.5785  0.0508
46461SOL    HW144703  11.175   3.341   2.529 -0.5434  0.1799  0.0907
46461SOL    HW244704  11.154   3.488   2.561  0.4207 -0.0021  1.6707
46462SOL     OW44705   8.655   2.634   1.133 -0.6781 -0.3324  0.5866
46462SOL    HW144706   8.707   2.564   1.172 -2.1976 -1.7112  0.2335
46462SOL    HW244707   8.640   2.696   1.205 -0.0926 -0.8350  1.1475
46463SOL     OW44708   7.770   0.088   6.460 -0.3550  0.1006 -0.3531
46463SOL    HW144709   7.705   0.098   6.529  0.2828 -1.6854  0.5833
46463SOL    HW244710   7.720   0.092   6.378 -1.7718 -1.6525  0.3486
46464SOL     OW44711   4.885   2.896   1.454  0.1312  0.3924 -1.4980
46464SOL    HW144712   4.977   2.903   1.479 -0.2190 -0.9925  0.4604
46464SOL    HW244713   4.879   2.813   1.408 -0.4317 -0.6163  0.2706
46465SOL     OW44714   5.759   0.738   7.664 -0.1079 -0.4485  0.3228
46465SOL    HW144715   5.754   0.694   7.749 -2.2553  1.7227  1.4407
46465SOL    HW244716   5.677   0.787   7.657  0.5898  0.5406 -2.4289
46466SOL     OW44717  10.323   3.720   8.030 -0.7064 -0.5268  0.1814
46466SOL    HW144718  10.280   3.748   8.110 -1.1918  1.1218 -0.6193
46466SOL    HW244719  10.255   3.675   7.980 -0.4903 -1.2555  0.5285
46467SOL     OW44720   1.430  11.503   8.466 -0.8598 -0.4204  0.0349
46467SOL    HW144721   1.449  11.540   8.380  1.4070 -0.0636  0.6273
46467SOL    HW244722   1.437  11.409   8.454 -1.9453 -0.4596 -0.4396
46468SOL     OW44723  11.165   9.303   7.081  0.1440  0.1557 -0.6428
46468SOL    HW144724  11.235   9.321   7.144  0.0956 -0.7990 -0.2986
46468SOL    HW244725  11.181   9.213   7.053 -1.9792 -0.7451  0.8265
46469SOL     OW44726   6.642  11.086   0.646 -0.0271 -0.3697 -0.0939
46469SOL    HW144727   6.686  11.170   0.633 -0.6579  0.1323  0.9535
46469SOL    HW244728   6.661  11.062   0.736  0.1568 -1.3722 -0.3869
46470SOL     OW44729   9.351   0.009   8.024  0.1927  0.0280  0.2907
46470SOL    HW144730   9.384  -0.040   7.948 -1.1089  0.4583 -0.5791
46470SOL    HW244731   9.298   0.079   7.987  0.6530  1.0996  1.5751
46471SOL     OW44732   4.818  10.524  10.567 -0.0126  0.5344 -0.4253
46471SOL    HW144733   4.820  10.521  10.663  0.9171 -0.4288 -0.4556
46471SOL    HW244734   4.910  10.527  10.541 -0.2405  0.3388 -1.3009
46472SOL     OW44735   6.986   6.167   6.168  0.9222 -0.0238  0.4567
46472SOL    HW144736   7.072   6.151   6.206  1.6152  1.9148 -0.2083
46472SOL    HW244737   7.003   6.187   6.076 -0.1344  1.1514  0.4817
46473SOL     OW44738   6.918   8.661   4.109  0.4548  0.6461  0.7063
46473SOL    HW144739   6.885   8.577   4.079 -0.1258  0.8963  0.6172
46473SOL    HW244740   6.946   8.706   4.029  2.0745  0.0098  0.8830
46474SOL     OW44741   3.220   0.311   2.448 -0.6861  0.2384 -0.2461
46474SOL    HW144742   3.286   0.318   2.517 -1.4533  0.6230  0.4661
46474SOL    HW244743   3.266   0.270   2.374  0.1056 -0.3310  0.5485
46475SOL     OW44744   6.172   2.302   7.213 -0.3594 -0.1838 -0.8824
46475SOL    HW144745   6.160   2.386   7.257 -0.1162 -0.7343  0.2883
46475SOL    HW244746   6.181   2.239   7.284 -0.3281 -1.1792 -1.7372
46476SOL     OW44747   7.414   7.358   9.224  0.1376  0.0603 -0.1462
46476SOL    HW144748   7.320   7.379   9.220  0.2838  0.7922  0.1790
46476SOL    HW244749   7.432   7.313   9.141 -0.5497 -0.3064 -0.1048
46477SOL     OW44750  11.603   2.710  10.665 -0.5430 -0.2363  0.0468
46477SOL    HW144751  11.537   2.667  10.719 -1.2235  0.4857 -0.1913
46477SOL    HW244752  11.620   2.794  10.709  0.8396 -0.7614  0.5609
46478SOL     OW44753  10.314   5.486   4.519  0.0862 -0.1802 -0.5161
46478SOL    HW144754  10.306   5.575   4.484  1.5972 -0.2424 -1.0825
46478SOL    HW244755  10.330   5.499   4.613 -1.2819  0.0712 -0.2933
46479SOL     OW44756   1.449   6.804  11.651  0.1674 -0.1028  0.5543
46479SOL    HW144757   1.415   6.715  11.659  0.8688 -0.5884 -1.4540
46479SOL    HW244758   1.373   6.860  11.672 -0.4081 -1.1329  1.3523
46480SOL     OW44759   2.363   4.312   8.002 -0.0541  0.1422 -0.0044
46480SOL    HW144760   2.444   4.279   7.963  0.4447  2.1136 -0.7732
46480SOL    HW244761   2.366   4.407   7.988 -1.6679  0.4857  1.5350
46481SOL     OW44762  10.936   6.757   8.437  0.4334  0.3292  0.6378
46481SOL    HW144763  10.964   6.846   8.458 -1.5775  1.0420  0.5690
46481SOL    HW244764  10.908   6.720   8.520  3.2551 -1.0955  1.0623
46482SOL     OW44765  11.333   8.903   8.513  0.3108  0.0761 -0.3980
46482SOL    HW144766  11.353   8.870   8.425 -1.9488  0.5538 -1.1599
46482SOL    HW244767  11.277   8.836   8.552  1.8232 -0.4543  0.9993
46483SOL     OW44768   2.701   4.907  10.409  0.1160  0.0451  0.0244
46483SOL    HW144769   2.773   4.932  10.466 -0.1393 -2.4886  1.6028
46483SOL    HW244770   2.632   4.876  10.468 -0.7254 -1.3449 -1.5775
46484SOL     OW44771   5.688   6.450   7.790 -0.5026  0.4084 -0.1575
46484SOL    HW144772   5.601   6.479   7.817  0.1419 -1.3519  4.6816
46484SOL    HW244773   5.748   6.514   7.829  0.4748 -0.6271  0.0883
46485SOL     OW44774   8.311   0.831   3.201 -0.4999 -0.4149 -0.6619
46485SOL    HW144775   8.305   0.875   3.286 -0.1442 -0.3562 -0.6650
46485SOL    HW244776   8.221   0.827   3.170 -1.0301 -2.9167  0.9611
46486SOL     OW44777   1.300   3.003   0.644  0.2894 -0.1924  0.8969
46486SOL    HW144778   1.355   3.068   0.601 -1.1166  1.2887  1.2154
46486SOL    HW244779   1.258   2.955   0.573 -0.0466  0.5053  0.6092
46487SOL     OW44780   7.083   4.123   8.035  0.0953  0.1068 -0.2015
46487SOL    HW144781   7.001   4.103   8.081 -0.2504  1.3144 -0.2505
46487SOL    HW244782   7.095   4.217   8.048  0.2395  0.3988 -2.1928
46488SOL     OW44783   7.115   0.340  10.378  0.5714  0.6177 -0.5558
46488SOL    HW144784   7.049   0.324  10.446 -0.5260  0.5458 -1.6007
46488SOL    HW244785   7.199   0.336  10.424  0.0246 -1.9266  0.3489
46489SOL     OW44786   2.034   4.959   3.347  1.0240  0.1692 -0.3385
46489SOL    HW144787   2.030   4.896   3.276 -0.3595  1.3221 -1.3386
46489SOL    HW244788   2.089   4.917   3.413  0.7813 -1.7375 -1.2759
46490SOL     OW44789   5.655   3.084   2.353 -0.6045 -0.5356 -0.6594
46490SOL    HW144790   5.569   3.062   2.317  0.0263 -1.4987 -1.6408
46490SOL    HW244791   5.715   3.020   2.314  0.6873  0.5752 -0.6052
46491SOL     OW44792   3.304  11.316   2.884 -0.3071  0.8986 -0.4889
46491SOL    HW144793   3.292  11.404   2.918 -0.5917  0.9243 -0.6566
46491SOL    HW244794   3.220  11.293   2.845 -0.2374  0.5490 -0.4380
46492SOL     OW44795   7.908   7.644   6.746  0.0069  0.1918 -0.0192
46492SOL    HW144796   7.903   7.594   6.827 -0.2254  1.0130  0.4823
46492SOL    HW244797   7.817   7.647   6.714 -0.1433  1.0682  0.4449
46493SOL     OW44798  10.773   9.052   3.557 -0.4085 -0.0763  0.0370
46493SOL    HW144799  10.752   9.059   3.464  0.5193  0.1127 -0.1715
46493SOL    HW244800  10.697   9.009   3.596 -0.5462 -0.7327 -0.9144
46494SOL     OW44801   8.591  11.759   3.226  0.1265 -0.7578  0.4755
46494SOL    HW144802   8.621  11.734   3.313  0.1811 -0.1675  0.6278
46494SOL    HW244803   8.609  11.682   3.171  0.0838 -1.1320  0.9825
46495SOL     OW44804   7.678   1.421   6.649  0.5997  0.1285 -0.4228
46495SOL    HW144805   7.620   1.487   6.612  2.3956  2.7971  1.1709
46495SOL    HW244806   7.758   1.427   6.596  0.7276 -0.9373 -0.3763
46496SOL     OW44807  11.029   6.022   5.192  0.2020 -0.0338  0.2029
46496SOL    HW144808  10.980   6.045   5.113  1.1124 -0.6292 -0.5559
46496SOL    HW244809  11.017   5.928   5.202  2.7584 -0.6079 -1.1731
46497SOL     OW44810   2.244  11.499   7.878 -0.1919 -0.4027 -0.0161
46497SOL    HW144811   2.177  11.554   7.919 -1.3468 -0.9443 -1.0661
46497SOL    HW244812   2.215  11.410   7.897  0.5705 -0.6433  0.0140
46498SOL     OW44813   7.705   3.974  10.297  0.3783  0.1960 -0.6936
46498SOL    HW144814   7.644   4.026  10.245 -3.4102 -1.6846  1.3829
46498SOL    HW244815   7.731   3.902  10.240 -2.5904 -1.0669 -0.6219
46499SOL     OW44816   5.034   8.361   3.195  0.3509 -0.0737 -0.1690
46499SOL    HW144817   5.003   8.300   3.263  0.6458  0.6627  0.6326
46499SOL    HW244818   4.975   8.436   3.203 -0.3786 -0.4721 -1.5441
46500SOL     OW44819   5.461   3.202   6.418 -0.0854  0.3646  0.2193
46500SOL    HW144820   5.474   3.225   6.326  0.5854  0.9855  0.4604
46500SOL    HW244821   5.366   3.190   6.427 -0.2594  1.2719 -0.3304
46501SOL     OW44822  11.373   4.539   4.720 -0.2892 -0.2689 -0.0467
46501SOL    HW144823  11.467   4.537   4.705 -0.0288  1.6703  0.9000
46501SOL    HW244824  11.354   4.460   4.771  0.8459 -0.6300 -0.1773
46502SOL     OW44825   2.750   4.228  10.282  0.1388 -0.1088  0.1014
46502SOL    HW144826   2.795   4.268  10.207  0.7547 -1.0270 -0.0397
46502SOL    HW244827   2.707   4.151  10.244  0.5666 -0.6549  0.7034
46503SOL     OW44828   5.506   8.883  11.729 -0.3609  0.0040 -0.3130
46503SOL    HW144829   5.462   8.799  11.745  1.5585 -0.8841  0.6522
46503SOL    HW244830   5.590   8.859  11.691  0.1159  1.5225 -0.2866
46504SOL     OW44831  10.806   9.390  10.710 -0.3079  0.1383  0.4325
46504SOL    HW144832  10.847   9.343  10.782  0.2616 -1.4612 -0.8709
46504SOL    HW244833  10.718   9.352  10.704 -0.2566  0.0600  0.1315
46505SOL     OW44834   9.928   4.921   5.577 -0.4557 -0.3110  0.4792
46505SOL    HW144835   9.943   5.013   5.557  1.4533 -0.6094  0.2976
46505SOL    HW244836   9.968   4.874   5.504  0.2048 -1.2977  1.4298
46506SOL     OW44837   9.546   4.724   2.682 -0.2225  0.2038  0.3113
46506SOL    HW144838   9.611   4.793   2.665 -2.2723  1.9648 -0.8042
46506SOL    HW244839   9.504   4.750   2.764 -1.3826  0.6294 -0.3976
46507SOL     OW44840   7.639  10.002   9.713 -0.0539 -0.2437  0.5643
46507SOL    HW144841   7.688  10.052   9.779 -0.7184  0.2966  0.6490
46507SOL    HW244842   7.586  10.066   9.667 -1.4624 -0.9421  1.1492
46508SOL     OW44843   3.330   5.529   4.485 -0.0654  0.2232 -0.2260
46508SOL    HW144844   3.284   5.604   4.448  1.1560  0.9007 -0.4175
46508SOL    HW244845   3.422   5.544   4.464  0.2588 -1.1223  0.0983
46509SOL     OW44846   0.569   2.046   7.272 -0.2787 -0.2417 -0.2068
46509SOL    HW144847   0.551   1.992   7.349 -2.3873 -1.1990 -1.2705
46509SOL    HW244848   0.664   2.042   7.261 -0.0742 -1.1431  1.5740
46510SOL     OW44849   6.681   8.985   1.051  0.1684 -0.0732 -0.3347
46510SOL    HW144850   6.711   9.047   1.118 -2.2625  1.3553 -0.4144
46510SOL    HW244851   6.629   9.039   0.991 -0.6778 -1.9256 -1.3482
46511SOL     OW44852   6.257   2.499  10.900 -0.4261  0.4280 -0.1978
46511SOL    HW144853   6.304   2.536  10.975 -1.6345  1.4295  0.1092
46511SOL    HW244854   6.251   2.570  10.837 -0.3657 -0.0841 -0.7917
46512SOL     OW44855  10.335  10.637   0.124 -0.3215  0.2180  0.2624
46512SOL    HW144856  10.320  10.600   0.037 -1.1936  0.4273  0.3112
46512SOL    HW244857  10.390  10.713   0.109  0.8382 -0.6306  0.0763
46513SOL     OW44858   5.802   8.306  10.463  0.0095 -0.0647 -0.0985
46513SOL    HW144859   5.815   8.228  10.517 -0.1157 -0.2620 -0.3488
46513SOL    HW244860   5.748   8.276  10.390 -3.0629  0.9826  1.5524
46514SOL     OW44861   9.809   3.838   3.276  0.2558  0.1229  0.3220
46514SOL    HW144862   9.743   3.783   3.320  0.3210  0.1349  0.4353
46514SOL    HW244863   9.792   3.825   3.183  1.2069 -1.2289  0.3117
46515SOL     OW44864  11.698   5.306   5.375  0.4266  0.1197  0.2196
46515SOL    HW144865  11.613   5.286   5.336  0.7601  0.2797 -0.6059
46515SOL    HW244866  11.741   5.221   5.385  0.2608  0.0605  0.4220
46516SOL     OW44867   0.339  11.698  11.433 -0.4175 -0.4488  0.1272
46516SOL    HW144868   0.301  11.667  11.351 -0.6249 -0.0179  0.0569
46516SOL    HW244869   0.340  11.793  11.425 -1.4190 -0.3333  1.0495
46517SOL     OW44870   4.995  11.161  10.476 -0.8822  0.6264  0.0543
46517SOL    HW144871   5.037  11.153  10.562 -0.8902  0.2230  0.0211
46517SOL    HW244872   4.941  11.082  10.468 -0.3892  0.3469 -0.5908
46518SOL     OW44873   6.812   5.326   7.665 -0.1708  0.2282 -0.0525
46518SOL    HW144874   6.773   5.353   7.582  0.7010 -0.1957 -0.6104
46518SOL    HW244875   6.855   5.406   7.698 -0.3201  0.3384 -0.1245
46519SOL     OW44876   0.341  10.293   6.752 -0.4603 -0.0261 -0.1355
46519SOL    HW144877   0.394  10.223   6.715  1.5243  1.1169  0.3997
46519SOL    HW244878   0.259  10.250   6.777  0.2310 -1.8892 -0.8850
46520SOL     OW44879   1.546  11.478  10.235  0.2885  0.6912  0.6270
46520SOL    HW144880   1.519  11.415  10.302  0.6262  3.3060  3.4147
46520SOL    HW244881   1.464  11.506  10.194  0.1752 -1.9046 -1.1707
46521SOL     OW44882   0.542  10.345   4.188 -0.2105 -0.4351 -0.3013
46521SOL    HW144883   0.557  10.279   4.256 -0.1533 -0.7311 -0.5997
46521SOL    HW244884   0.463  10.391   4.216 -0.2206 -0.5952 -0.0658
46522SOL     OW44885   8.265   8.478   7.323  0.1266  0.0484  0.1212
46522SOL    HW144886   8.321   8.549   7.293  0.9140 -0.4954  0.2775
46522SOL    HW244887   8.318   8.431   7.387 -0.2395 -0.9003 -0.2512
46523SOL     OW44888   8.965   5.037   0.090  0.2787  0.1268 -0.1622
46523SOL    HW144889   8.870   5.025   0.086  0.2368 -0.2340  1.1896
46523SOL    HW244890   8.989   5.073   0.005 -0.9038 -0.8695 -0.9515
46524SOL     OW44891  10.011   7.091   7.187  0.5009 -0.6768 -0.1267
46524SOL    HW144892   9.938   7.114   7.129  0.7774  1.0116  0.1513
46524SOL    HW244893   9.970   7.067   7.270  0.1170 -2.8563 -0.8775
46525SOL     OW44894   1.438  11.361  11.735  0.0532 -0.3064  0.7308
46525SOL    HW144895   1.502  11.421  11.774  2.4083 -2.3333  0.2209
46525SOL    HW244896   1.384  11.332  11.809  1.5832 -0.7111  1.7142
46526SOL     OW44897   1.525   7.215   9.076  0.1322  0.6693 -0.2591
46526SOL    HW144898   1.615   7.192   9.100 -0.2776  0.1993  0.8812
46526SOL    HW244899   1.502   7.285   9.136 -0.7600 -0.2216  0.4729
46527SOL     OW44900   7.892   7.712   3.702  0.3922  0.0213  0.0708
46527SOL    HW144901   7.905   7.688   3.794 -0.3439  0.8574  0.4130
46527SOL    HW244902   7.822   7.777   3.705 -0.2899 -0.6176 -1.1705
46528SOL     OW44903   9.487   9.883   0.603 -0.0103  0.1832  0.0186
46528SOL    HW144904   9.512   9.822   0.672  0.3806 -1.8582 -1.8200
46528SOL    HW244905   9.519   9.968   0.633  0.9685 -0.7947  1.8927
46529SOL     OW44906  10.884   4.910   6.550  0.6730 -0.4564  0.5863
46529SOL    HW144907  10.809   4.956   6.514  0.4768 -0.4034  1.0582
46529SOL    HW244908  10.948   4.910   6.478  1.4040  2.1670  1.1224
46530SOL     OW44909   2.042   7.868   9.054  0.0820  0.2511  0.2623
46530SOL    HW144910   2.054   7.836   8.965 -1.6779 -0.8341  0.3553
46530SOL    HW244911   2.124   7.846   9.099  0.5382 -0.2523 -0.7936
46531SOL     OW44912   2.350  10.173   0.667  0.1679  0.1290 -0.3342
46531SOL    HW144913   2.328  10.164   0.574 -1.2977  1.2936 -0.1318
46531SOL    HW244914   2.437  10.134   0.675 -0.0076 -0.6982 -2.0396
46532SOL     OW44915   6.010   8.253  10.105 -0.0525 -0.4024 -0.5563
46532SOL    HW144916   5.945   8.320  10.084 -1.9762 -2.1373 -0.5220
46532SOL    HW244917   6.002   8.241  10.200  0.5506 -0.4217 -0.5064
46533SOL     OW44918   4.179   7.597   5.389  0.6000  0.0653 -0.9086
46533SOL    HW144919   4.189   7.542   5.466 -0.5221  0.2438 -0.6098
46533SOL    HW244920   4.152   7.682   5.423 -0.4710 -0.0126 -1.4975
46534SOL     OW44921   4.514   0.395   7.392 -0.1598 -0.1718 -0.5094
46534SOL    HW144922   4.440   0.396   7.452  2.0082 -2.0944  2.4868
46534SOL    HW244923   4.478   0.365   7.309 -2.8426 -0.3041  0.6125
46535SOL     OW44924   3.211   0.359   6.752 -0.1085  0.1258 -0.3255
46535SOL    HW144925   3.153   0.284   6.745 -0.7319  0.6947 -1.5848
46535SOL    HW244926   3.299   0.323   6.738 -0.4053 -0.3679 -0.9238
46536SOL     OW44927   7.748   8.395   5.033  0.1974 -0.6142  0.3505
46536SOL    HW144928   7.681   8.327   5.037  1.1688 -1.7595 -1.4943
46536SOL    HW244929   7.828   8.348   5.007  0.9690  1.1872 -0.7006
46537SOL     OW44930   7.802   3.053   9.930  0.0084  0.0329 -0.1248
46537SOL    HW144931   7.869   3.117   9.908  0.0744 -0.4661 -1.4450
46537SOL    HW244932   7.823   3.027  10.020  2.2195 -0.8583 -0.8308
46538SOL     OW44933   6.114  10.388   5.683 -0.0789  0.4324 -0.0658
46538SOL    HW144934   6.104  10.294   5.699  0.7882  0.5174  1.0845
46538SOL    HW244935   6.029  10.426   5.705 -0.2839 -0.0184 -0.0669
46539SOL     OW44936   6.872   2.348   1.671  0.2998 -0.4465  0.6678
46539SOL    HW144937   6.926   2.376   1.597 -0.1894 -0.3458  0.3434
46539SOL    HW244938   6.934   2.305   1.731  1.0057  0.9638  1.0038
46540SOL     OW44939   0.778  11.781   9.908  0.1117  0.3518  0.6065
46540SOL    HW144940   0.783  11.870   9.942 -0.0875  0.8360 -0.5617
46540SOL    HW244941   0.795  11.791   9.814  3.2722 -1.2339  0.8896
46541SOL     OW44942   1.782   8.870   5.685 -0.0584  0.0475  0.4914
46541SOL    HW144943   1.743   8.957   5.678  0.4480  0.2545  0.1702
46541SOL    HW244944   1.876   8.886   5.691  0.3287 -0.5173 -2.3607
46542SOL     OW44945   8.754   3.885   1.091 -0.2545  0.1704  0.1135
46542SOL    HW144946   8.778   3.846   1.175  0.8974  1.4310  0.3999
46542SOL    HW244947   8.673   3.933   1.109  0.1788  0.7356  0.6182
46543SOL     OW44948   9.579   3.739   9.859  0.2209  0.8339  0.3901
46543SOL    HW144949   9.509   3.705   9.804  0.8851 -0.0165  0.0555
46543SOL    HW244950   9.639   3.666   9.870  2.9586  2.4339 -2.3044
46544SOL     OW44951   1.203   6.608   9.914  1.4099 -0.3509  0.1219
46544SOL    HW144952   1.147   6.561   9.852 -0.1631  0.4711  0.8691
46544SOL    HW244953   1.248   6.539   9.963 -2.5353 -1.3239  2.7636
46545SOL     OW44954   2.421  10.084  11.008 -0.4164  0.3011  0.0419
46545SOL    HW144955   2.456  10.151  10.949  0.0819  0.6005  0.6664
46545SOL    HW244956   2.472  10.006  10.988 -0.5719  0.2736 -0.2519
46546SOL     OW44957   9.613   3.897   1.059  0.2012 -0.1789  0.2296
46546SOL    HW144958   9.518   3.898   1.066  0.2204 -1.6193  1.3072
46546SOL    HW244959   9.631   3.834   0.989  0.3540  0.9506 -0.7626
46547SOL     OW44960   1.612   3.891   3.406 -0.7164  0.6631 -0.3339
46547SOL    HW144961   1.637   3.937   3.326 -0.2232  0.0730 -0.5264
46547SOL    HW244962   1.559   3.817   3.376 -0.1573  0.1826 -0.1580
46548SOL     OW44963   0.727   2.632   8.151 -0.5760 -0.0030  0.0821
46548SOL    HW144964   0.811   2.624   8.106 -1.1138  0.0949 -0.9641
46548SOL    HW244965   0.697   2.541   8.162  0.4087 -0.1528  1.9524
46549SOL     OW44966   5.009   0.348   7.103  0.4655  0.0678 -0.1992
46549SOL    HW144967   5.008   0.434   7.144  2.7014 -0.9105  2.1473
46549SOL    HW244968   5.098   0.339   7.069  0.5684 -1.6741  0.4543
46550SOL     OW44969   7.460  11.158   7.921  0.5698  0.1427 -0.1551
46550SOL    HW144970   7.391  11.095   7.900  0.2711  0.9200 -1.6468
46550SOL    HW244971   7.429  11.240   7.884  1.3552  0.9824  0.9942
46551SOL     OW44972   6.622   2.641   9.407 -0.3070 -0.7184  0.5415
46551SOL    HW144973   6.711   2.664   9.380 -0.5714 -0.1670  0.1174
46551SOL    HW244974   6.630   2.616   9.499  0.1811 -0.0472  0.6835
46552SOL     OW44975   8.957  11.103   0.643  0.2788 -0.2113  0.9168
46552SOL    HW144976   8.925  11.105   0.733 -0.9010  0.9036  0.5058
46552SOL    HW244977   9.048  11.132   0.649  0.8284 -2.0419  1.9521
46553SOL     OW44978   4.853   6.045   2.656  0.2360 -0.3699  0.0358
46553SOL    HW144979   4.930   6.032   2.600  1.6454 -2.4849  2.2477
46553SOL    HW244980   4.792   6.095   2.601  1.8792 -1.3727 -2.9671
46554SOL     OW44981  10.665   4.694   3.510 -0.7480  0.5936 -0.4826
46554SOL    HW144982  10.631   4.763   3.452  1.3366  2.5995  0.4974
46554SOL    HW244983  10.623   4.710   3.594  1.2014  2.0459  0.2877
46555SOL     OW44984   5.712   0.719   8.079 -0.1268 -0.3202  0.4815
46555SOL    HW144985   5.660   0.654   8.032 -2.0354  0.6055  1.1938
46555SOL    HW244986   5.794   0.674   8.100 -1.1700 -2.3290  0.4960
46556SOL     OW44987   2.556   0.484   8.255  0.3400 -0.3011  0.5329
46556SOL    HW144988   2.545   0.448   8.167 -0.2967 -1.0773  0.9061
46556SOL    HW244989   2.640   0.528   8.253 -0.5287  1.4299 -1.0424
46557SOL     OW44990   0.489   6.689   9.652  0.0602  0.1584  0.1603
46557SOL    HW144991   0.481   6.599   9.621 -0.1790 -0.1786  1.1738
46557SOL    HW244992   0.584   6.704   9.657  0.1157  0.4317 -1.2873
46558SOL     OW44993   5.677  11.686   2.817 -0.1304 -0.6373 -0.0379
46558SOL    HW144994   5.748  11.622   2.814  0.1643 -0.3484  0.5642
46558SOL    HW244995   5.696  11.746   2.745 -0.5062 -1.3215 -0.7165
46559SOL     OW44996   2.229   2.694   5.234  0.0509  0.4043  0.5557
46559SOL    HW144997   2.178   2.652   5.303  0.8741 -0.1274  0.8642
46559SOL    HW244998   2.292   2.748   5.281 -0.0503  0.8473  0.1878
46560SOL     OW44999   1.282   4.224   3.381  0.7317 -0.2633 -0.3524
46560SOL    HW145000   1.256   4.275   3.457  1.3039  0.4918 -0.6525
46560SOL    HW245001   1.346   4.279   3.336 -0.5319 -0.1006 -2.0843
46561SOL     OW45002   6.044   0.883   4.601 -0.6026 -0.2368  0.1744
46561SOL    HW145003   6.089   0.967   4.616  0.2507 -0.9715  2.0112
46561SOL    HW245004   5.968   0.887   4.658  0.2393 -1.2739  1.4232
46562SOL     OW45005   6.482  10.751   3.104  0.5132  0.2342 -0.1107
46562SOL    HW145006   6.537  10.674   3.089  0.2192  0.1639 -0.8727
46562SOL    HW245007   6.524  10.796   3.178 -0.9432 -2.1699  2.3564
46563SOL     OW45008   2.800   7.511   5.760 -0.4634 -0.1748 -0.1007
46563SOL    HW145009   2.738   7.439   5.765 -1.7533  0.9016  0.1428
46563SOL    HW245010   2.885   7.473   5.783 -1.1929 -1.4995  0.4623
46564SOL     OW45011   7.578   2.477   4.788  0.2941  0.5037 -0.6343
46564SOL    HW145012   7.610   2.387   4.790  0.1754  0.4584 -0.7798
46564SOL    HW245013   7.575   2.500   4.695  0.7638  0.8148 -0.5766
46565SOL     OW45014   2.374   5.463   4.451  0.0793  0.0250 -0.0085
46565SOL    HW145015   2.391   5.444   4.359 -2.3077 -1.4025 -0.2295
46565SOL    HW245016   2.415   5.392   4.499 -0.0027 -0.0815 -0.0958
46566SOL     OW45017  11.189   3.811   9.512  0.1304 -0.2170  0.0874
46566SOL    HW145018  11.130   3.885   9.495 -1.4680 -1.2366  0.9271
46566SOL    HW245019  11.136   3.750   9.564  1.8667 -1.3078  0.6607
46567SOL     OW45020   1.194   7.223   2.787 -0.1263  0.5451  0.1444
46567SOL    HW145021   1.111   7.210   2.742  0.8794 -0.7786 -1.4660
46567SOL    HW245022   1.225   7.308   2.757  0.6274 -0.4088 -1.9215
46568SOL     OW45023   2.346   5.975   9.682  0.5464 -0.1767 -0.5122
46568SOL    HW145024   2.376   5.885   9.672  0.6327 -0.3385  1.0187
46568SOL    HW245025   2.402   6.025   9.622  2.0620 -0.8474  0.2785
46569SOL     OW45026   9.415   0.098   3.216  0.2846 -0.0501 -0.3650
46569SOL    HW145027   9.481   0.131   3.277 -0.6902 -1.2161  1.3887
46569SOL    HW245028   9.335   0.143   3.240  0.3481  1.2708 -2.4152
46570SOL     OW45029  11.197   8.022   5.024 -0.4374  0.4764  0.8663
46570SOL    HW145030  11.255   8.048   4.952 -2.9834  0.1366 -1.5000
46570SOL    HW245031  11.200   8.095   5.085  2.1880  0.5815  0.7444
46571SOL     OW45032  10.066  11.176   7.821 -0.5201  0.0011  0.3490
46571SOL    HW145033  10.146  11.166   7.872  0.8648  1.8021 -1.3048
46571SOL    HW245034  10.097  11.194   7.732 -2.7329  1.6376 -0.1765
46572SOL     OW45035   8.924   4.558   9.351  0.2878  0.1350 -0.1562
46572SOL    HW145036   8.865   4.581   9.423 -0.3018 -0.0569 -0.5675
46572SOL    HW245037   9.007   4.599   9.374  0.1019  0.0913  0.6262
46573SOL     OW45038   8.518   4.452   9.693 -0.0800  0.5722 -0.3904
46573SOL    HW145039   8.452   4.510   9.656 -0.1090  0.2308 -0.8780
46573SOL    HW245040   8.585   4.444   9.625 -0.3179 -0.3608 -0.5327
46574SOL     OW45041   1.679   4.904   7.538  0.6329 -0.4958 -1.1696
46574SOL    HW145042   1.650   4.955   7.613  2.8463 -0.4774 -0.2307
46574SOL    HW245043   1.609   4.913   7.473 -1.4742 -0.7014  0.9309
46575SOL     OW45044   5.566   0.044   0.664  0.4778 -0.1752  0.0405
46575SOL    HW145045   5.547   0.056   0.757  1.5554 -0.6308  0.3342
46575SOL    HW245046   5.597  -0.047   0.658  0.6409 -0.0738 -0.7172
46576SOL     OW45047   7.603  11.260   0.936 -0.6135  0.1496 -0.4713
46576SOL    HW145048   7.565  11.250   1.023  1.2851  2.2783  0.7100
46576SOL    HW245049   7.653  11.180   0.923 -0.7250 -0.0951  0.4932
46577SOL     OW45050   5.520   4.376   7.319 -0.1503 -0.5842  0.3081
46577SOL    HW145051   5.487   4.444   7.260 -0.6547  2.6240  3.9006
46577SOL    HW245052   5.615   4.376   7.304 -0.4286 -1.3389 -1.7924
46578SOL     OW45053   0.688   7.903   3.225  0.0529 -0.2546  0.2008
46578SOL    HW145054   0.666   7.996   3.228  0.5436 -0.1585  0.8149
46578SOL    HW245055   0.759   7.897   3.160 -0.2638 -0.2627 -0.1482
46579SOL     OW45056   9.882   4.638  11.257  0.2479 -0.0670 -0.0044
46579SOL    HW145057   9.861   4.552  11.293 -0.4187  0.7234  1.5913
46579SOL    HW245058   9.819   4.650  11.186 -1.4033  0.1376  1.4190
46580SOL     OW45059   6.918   9.142   0.959 -0.3170  0.3780 -0.0253
46580SOL    HW145060   6.916   9.057   0.915 -1.1986 -0.8044  2.1161
46580SOL    HW245061   6.836   9.185   0.933 -0.2466  0.2279 -0.4963
46581SOL     OW45062   8.747   2.140   7.381 -1.2750 -0.0929  0.3789
46581SOL    HW145063   8.836   2.158   7.411 -1.1172 -0.7634  0.3222
46581SOL    HW245064   8.693   2.149   7.459 -1.8458  4.5720 -0.2623
46582SOL     OW45065   6.607   3.525   9.205  0.1998  0.5541  0.4967
46582SOL    HW145066   6.585   3.483   9.288 -1.3920  0.6080  0.1374
46582SOL    HW245067   6.635   3.613   9.229 -0.6562  0.7080  0.9601
46583SOL     OW45068   4.213   8.974   4.408 -0.1800 -0.5894 -0.1177
46583SOL    HW145069   4.118   8.978   4.401 -0.3797 -1.5656  1.5219
46583SOL    HW245070   4.237   9.054   4.454 -0.5753 -1.6769  2.1285
46584SOL     OW45071   8.261   8.084   7.357 -0.3927  0.3543  0.0066
46584SOL    HW145072   8.196   8.030   7.311  0.1905 -0.5554  0.2241
46584SOL    HW245073   8.345   8.042   7.338  0.0393  0.9652  0.5069
46585SOL     OW45074   7.697   6.323   5.956 -0.4312 -0.3785 -0.1218
46585SOL    HW145075   7.735   6.265   6.021  0.5321 -0.3315 -0.6363
46585SOL    HW245076   7.639   6.381   6.007  2.3274  1.4551  1.1573
46586SOL     OW45077   9.740   3.513   6.517 -0.0332  0.2210 -0.6370
46586SOL    HW145078   9.822   3.542   6.558  0.0699 -0.0306 -0.6628
46586SOL    HW245079   9.714   3.436   6.568  0.0543 -0.0478 -0.9929
46587SOL     OW45080   3.288   8.881   0.306  0.4911  0.0959 -0.3458
46587SOL    HW145081   3.267   8.914   0.219 -0.1710 -0.7590 -0.5165
46587SOL    HW245082   3.268   8.954   0.365 -1.6488 -0.1953 -0.6358
46588SOL     OW45083   5.902   6.576  10.910  0.6270  0.3382 -0.0035
46588SOL    HW145084   5.975   6.639  10.910  0.0793  1.0127 -1.4806
46588SOL    HW245085   5.840   6.612  10.973 -0.1846  1.9479 -1.6261
46589SOL     OW45086  10.229  11.611   6.818  0.1829 -0.4863  0.1429
46589SOL    HW145087  10.244  11.700   6.786  0.2428  0.0486  1.5785
46589SOL    HW245088  10.135  11.609   6.838 -0.4121 -1.6244 -2.3413
46590SOL     OW45089   9.325   6.191   6.219 -0.3360  0.2892 -0.7781
46590SOL    HW145090   9.274   6.123   6.175 -1.1256  1.0095 -1.0037
46590SOL    HW245091   9.259   6.249   6.258  0.3269  0.7516 -0.3219
46591SOL     OW45092   2.210   4.155   0.890 -0.3343 -0.4427  0.0785
46591SOL    HW145093   2.194   4.235   0.839  1.6767  1.1028  1.7147
46591SOL    HW245094   2.244   4.186   0.974 -1.5622 -2.9745  1.6294
46592SOL     OW45095   8.733   9.810   5.063 -0.1912  0.0289 -0.0042
46592SOL    HW145096   8.639   9.826   5.073 -0.2341  0.5116 -1.0621
46592SOL    HW245097   8.747   9.810   4.969  0.2847 -3.6340 -0.0715
46593SOL     OW45098   6.537   8.284  10.938  0.7291  0.5081  0.2908
46593SOL    HW145099   6.543   8.201  10.985  0.3316 -0.1184 -0.7232
46593SOL    HW245100   6.620   8.291  10.891  0.3751  0.1978 -0.3897
46594SOL     OW45101   8.445   2.760   0.322  0.1700  0.6545  0.1300
46594SOL    HW145102   8.454   2.670   0.352 -0.8248  0.7128  0.6331
46594SOL    HW245103   8.361   2.762   0.277 -0.8385  1.8068  1.9614
46595SOL     OW45104   9.657   1.268   8.174 -0.1536  0.7003  0.0206
46595SOL    HW145105   9.691   1.345   8.129  0.4376 -0.9876 -2.6677
46595SOL    HW245106   9.589   1.234   8.116 -1.0928 -0.2863  1.6208
46596SOL     OW45107   2.523   8.037   4.188  0.0337 -0.0382 -0.3543
46596SOL    HW145108   2.555   8.091   4.261  0.0228 -0.0294 -0.3561
46596SOL    HW245109   2.442   8.080   4.160 -1.4500 -1.5790  1.3988
46597SOL     OW45110   5.704   2.929   9.790  0.0209  0.3192  0.6526
46597SOL    HW145111   5.793   2.902   9.768  0.2766  0.7539  1.1501
46597SOL    HW245112   5.693   3.012   9.744 -1.1686 -1.1031 -1.8408
46598SOL     OW45113  10.212   1.703   0.474  0.0370 -0.2158  1.0292
46598SOL    HW145114  10.135   1.653   0.449  0.6671 -1.7984  2.1217
46598SOL    HW245115  10.264   1.707   0.394 -1.2779  1.1507  0.1937
46599SOL     OW45116  10.726   4.834   7.989  0.1762 -0.3734 -0.3869
46599SOL    HW145117  10.775   4.893   8.046 -0.4803 -0.2489  0.0576
46599SOL    HW245118  10.659   4.889   7.949 -0.4318 -0.8151  0.0169
46600SOL     OW45119   4.129   4.187   6.490  0.1945  0.0524 -0.0467
46600SOL    HW145120   4.065   4.257   6.482  1.2460  1.0592  0.1235
46600SOL    HW245121   4.200   4.224   6.543  0.5666 -1.2861  0.4495
46601SOL     OW45122   9.441   8.825  10.228 -0.2492  0.0634  0.4288
46601SOL    HW145123   9.477   8.840  10.315  1.6058 -0.1253 -0.2768
46601SOL    HW245124   9.409   8.735  10.230 -0.2878  0.0845  0.9214
46602SOL     OW45125   0.377   5.148   1.162 -0.2962 -0.2634  0.6639
46602SOL    HW145126   0.382   5.217   1.228 -1.1158 -0.4882  0.9734
46602SOL    HW245127   0.302   5.094   1.189  0.6752 -1.6130  0.7468
46603SOL     OW45128   8.096   2.864   1.205 -0.3770 -0.3583 -0.0090
46603SOL    HW145129   8.124   2.952   1.181 -1.1088 -0.4157 -1.1384
46603SOL    HW245130   8.039   2.876   1.282 -0.1640  0.1067  0.0767
46604SOL     OW45131  10.765   5.746   8.397  0.4739  0.3396  0.2591
46604SOL    HW145132  10.686   5.750   8.344  0.4387 -1.5004  0.1110
46604SOL    HW245133  10.737   5.708   8.480  1.2124 -0.5963  0.1094
46605SOL     OW45134  10.054  10.879  10.696  0.0083 -0.1465  0.0294
46605SOL    HW145135  10.133  10.830  10.673  0.7643 -0.2714  2.6127
46605SOL    HW245136   9.982  10.820  10.671  0.6415 -0.0532 -2.2946
46606SOL     OW45137   9.462   6.682   2.741  0.7837 -0.1873  0.4078
46606SOL    HW145138   9.388   6.650   2.690  0.7363 -0.6230  0.7388
46606SOL    HW245139   9.467   6.622   2.816 -0.5354  1.7039  2.1125
46607SOL     OW45140   4.217   6.927   7.862 -0.3200  0.5325  0.0665
46607SOL    HW145141   4.305   6.890   7.860 -0.4860  0.1210  0.2490
46607SOL    HW245142   4.221   6.993   7.932 -0.3056  0.1228  0.4616
46608SOL     OW45143  11.625   5.211   2.936  0.1790  0.1478 -0.1603
46608SOL    HW145144  11.643   5.236   3.026 -0.1407 -1.2872  0.3388
46608SOL    HW245145  11.710   5.214   2.892  0.0209  2.9085 -0.4023
46609SOL     OW45146   2.369   2.069  10.352  0.0331  0.3206  0.0024
46609SOL    HW145147   2.359   2.120  10.432  3.4789  0.4432  0.5041
46609SOL    HW245148   2.440   2.008  10.371  1.7055  1.0107 -3.2134
46610SOL     OW45149   3.152  10.462   7.129 -0.2108  0.6906 -0.2207
46610SOL    HW145150   3.235  10.510   7.122 -0.3107  0.7241 -1.4016
46610SOL    HW245151   3.147  10.412   7.047 -1.2084  0.4309 -0.0099
46611SOL     OW45152   0.661   3.498   0.822  0.1708 -0.6184 -0.6117
46611SOL    HW145153   0.652   3.581   0.868 -0.7626 -0.6725 -0.6800
46611SOL    HW245154   0.572   3.472   0.802  0.5655  0.0572 -3.6767
46612SOL     OW45155   8.804   1.267   9.974  0.0287 -0.6302  0.1327
46612SOL    HW145156   8.895   1.238   9.983 -0.1361 -1.2308 -0.0867
46612SOL    HW245157   8.788   1.265   9.880  0.2299  0.8697  0.0531
46613SOL     OW45158   9.343   9.806   5.778 -0.3862 -0.1940 -0.1724
46613SOL    HW145159   9.399   9.730   5.789 -0.5825  0.0053  3.7007
46613SOL    HW245160   9.403   9.880   5.771 -0.1961 -0.4002 -0.7478
46614SOL     OW45161   9.797   9.829   9.302 -0.3400 -0.2727 -0.2408
46614SOL    HW145162   9.860   9.885   9.255  0.9454 -1.7880 -0.4130
46614SOL    HW245163   9.712   9.850   9.262  0.3088  0.5567 -1.2371
46615SOL     OW45164   4.429   4.846   3.313  0.5753  0.6930  0.0801
46615SOL    HW145165   4.491   4.899   3.363  0.0309  0.5842  0.8839
46615SOL    HW245166   4.458   4.854   3.222  1.4508  1.0694  0.3844
46616SOL     OW45167   9.218   6.570   4.351  0.0362 -0.0824 -0.0210
46616SOL    HW145168   9.255   6.573   4.439 -0.6807  2.1477  0.2513
46616SOL    HW245169   9.148   6.505   4.357  0.8349 -0.9111  0.6747
46617SOL     OW45170   0.447   1.678   8.575  0.1133  0.4586 -0.4978
46617SOL    HW145171   0.433   1.763   8.534 -0.1092  0.3259 -0.7053
46617SOL    HW245172   0.451   1.617   8.502  1.5591  0.4486 -0.4255
46618SOL     OW45173   7.847   2.372  10.170  0.2936  0.7939 -0.4710
46618SOL    HW145174   7.900   2.304  10.212  2.6931  2.2369 -0.9819
46618SOL    HW245175   7.815   2.425  10.242  1.0089  0.9159 -0.2397
46619SOL     OW45176   8.744   2.526  10.814  0.0343 -0.1812 -0.0120
46619SOL    HW145177   8.664   2.533  10.763  0.1667 -1.3838 -0.4137
46619SOL    HW245178   8.734   2.445  10.864  1.5184 -1.0346 -1.0312
46620SOL     OW45179   0.312   6.849   4.188 -0.0955  0.6506 -0.0759
46620SOL    HW145180   0.406   6.867   4.177 -0.8843  3.7893 -4.0778
46620SOL    HW245181   0.299   6.765   4.145  0.9745 -0.3994  1.5597
46621SOL     OW45182  11.182   7.935   7.871 -0.0580 -0.0658 -0.0024
46621SOL    HW145183  11.130   7.865   7.831  1.0726 -0.4139 -0.8913
46621SOL    HW245184  11.260   7.942   7.816 -0.2892  2.1244 -0.1413
46622SOL     OW45185   5.698   3.021   9.365 -0.0539 -0.3354  0.0861
46622SOL    HW145186   5.703   3.084   9.293 -0.9497 -0.2898  0.0544
46622SOL    HW245187   5.605   3.019   9.388  0.0557 -1.2189  0.4642
46623SOL     OW45188   1.789   0.416   5.218  0.2292 -0.2519  0.0383
46623SOL    HW145189   1.715   0.380   5.169 -0.5325  2.0866 -0.6917
46623SOL    HW245190   1.764   0.406   5.309  0.1423 -1.6677 -0.1176
46624SOL     OW45191   5.992   4.752   4.229 -0.3882 -0.5761  0.4098
46624SOL    HW145192   6.065   4.798   4.188 -0.6107  0.0493  0.7000
46624SOL    HW245193   5.921   4.758   4.165  0.2165 -2.4680 -0.5224
46625SOL     OW45194   2.692   6.322   1.853 -0.0149 -0.0949  0.0948
46625SOL    HW145195   2.702   6.397   1.793 -0.8244 -0.4066 -0.4561
46625SOL    HW245196   2.614   6.344   1.904  0.3748 -0.0736  0.6921
46626SOL     OW45197   0.409  10.626   1.042 -0.4519  0.1458  0.2339
46626SOL    HW145198   0.396  10.577   0.961  1.6268  0.3512 -0.2961
46626SOL    HW245199   0.454  10.706   1.015 -0.5370  0.6482  1.4980
46627SOL     OW45200   3.494   4.475   4.893 -0.4296  0.1119  0.0579
46627SOL    HW145201   3.538   4.411   4.836 -1.5340 -2.1630  1.5761
46627SOL    HW245202   3.520   4.449   4.981 -2.2694  0.6807  0.8113
46628SOL     OW45203  11.410   7.906   2.576  0.2832  0.0609  0.1754
46628SOL    HW145204  11.495   7.932   2.610 -0.3478  1.8739  0.4516
46628SOL    HW245205  11.408   7.938   2.486  0.7443 -2.0250 -0.6489
46629SOL     OW45206   1.105   3.653   1.319 -0.6223  0.4967  0.6020
46629SOL    HW145207   1.034   3.593   1.298 -0.8549  0.4146  1.6107
46629SOL    HW245208   1.063   3.726   1.365  0.0274  0.0960  1.8811
46630SOL     OW45209   4.574   9.122   5.780  0.1604  0.4291 -0.3536
46630SOL    HW145210   4.619   9.206   5.763 -0.1636  1.0179  1.5165
46630SOL    HW245211   4.482   9.140   5.762  0.1950  0.2020 -0.7899
46631SOL     OW45212   3.194   4.624   8.761  0.3969  0.6696  0.5041
46631SOL    HW145213   3.170   4.533   8.778  1.3212  0.8129  3.0841
46631SOL    HW245214   3.139   4.651   8.688 -0.2317 -1.8111 -0.0155
46632SOL     OW45215  10.115   7.760   1.697  0.1805  1.0433 -0.1408
46632SOL    HW145216  10.109   7.716   1.781  1.6348  1.9352  0.4645
46632SOL    HW245217  10.026   7.791   1.680 -1.1275 -2.6188 -0.9544
46633SOL     OW45218   9.715   4.382   6.738  0.2384 -0.0376 -0.2483
46633SOL    HW145219   9.715   4.465   6.787  0.9627 -1.1018  1.6813
46633SOL    HW245220   9.798   4.382   6.690  1.0621 -0.3398  1.1053
46634SOL     OW45221  11.745   7.773   7.921 -0.3430 -0.0639  0.1759
46634SOL    HW145222  11.750   7.677   7.927  1.8455 -0.0064  0.0157
46634SOL    HW245223  11.832   7.800   7.892 -0.4694  2.0994  1.5890
46635SOL     OW45224  11.040   6.313   4.245  0.6087  0.1451 -0.0723
46635SOL    HW145225  10.970   6.333   4.182  0.2837 -1.5369 -0.2764
46635SOL    HW245226  11.009   6.351   4.328  0.1727  0.7223 -0.4881
46636SOL     OW45227  10.200   1.315  11.098  0.0882  0.5810  0.4154
46636SOL    HW145228  10.158   1.282  11.178  0.0595  0.8617  0.5169
46636SOL    HW245229  10.210   1.237  11.043  3.3156 -0.3603  2.0587
46637SOL     OW45230   6.239   4.036   9.261 -0.0731  0.3153  0.0815
46637SOL    HW145231   6.150   4.004   9.249  0.3472 -0.9307  0.1297
46637SOL    HW245232   6.265   4.068   9.174 -0.3418  0.0572 -0.0958
46638SOL     OW45233   7.627   3.574   2.404 -0.0327  0.2806  0.0055
46638SOL    HW145234   7.549   3.519   2.419  0.2975 -0.0883  0.4146
46638SOL    HW245235   7.696   3.512   2.381  0.2265  0.5724 -0.0077
46639SOL     OW45236   8.089   4.302   8.059  0.2247 -0.6740  0.2491
46639SOL    HW145237   8.013   4.349   8.024  0.8818  1.5564  1.5715
46639SOL    HW245238   8.161   4.327   8.001  0.1636 -2.0001 -0.4287
46640SOL     OW45239   9.004   3.926   4.402 -0.1233 -0.3102  0.0717
46640SOL    HW145240   8.935   3.888   4.456 -0.8782 -0.1462 -0.7687
46640SOL    HW245241   9.000   3.878   4.319  0.9331 -0.4639  0.0869
46641SOL     OW45242   1.736   3.932  11.819 -0.4067  0.1225 -0.3648
46641SOL    HW145243   1.696   3.888  11.744 -0.5176  1.6846 -1.2615
46641SOL    HW245244   1.698   4.020  11.818  0.4445  0.5228  0.8571
46642SOL     OW45245   7.101  10.513   7.174 -0.1331 -0.0925  0.4856
46642SOL    HW145246   7.078  10.578   7.108  0.3289 -0.3898  0.0271
46642SOL    HW245247   7.196  10.520   7.183 -0.2767  0.6127  1.8263
46643SOL     OW45248   3.302   6.323   8.791  0.4112  0.2824 -0.4437
46643SOL    HW145249   3.210   6.296   8.787  0.0462  1.5582 -1.4167
46643SOL    HW245250   3.299   6.418   8.780  1.6855  0.7134  2.0841
46644SOL     OW45251   2.851   3.684   3.285 -0.4229  0.1292  0.0607
46644SOL    HW145252   2.880   3.640   3.206 -1.2413 -1.0422  0.3856
46644SOL    HW245253   2.787   3.749   3.255 -0.1311  0.2398 -0.3151
46645SOL     OW45254   6.965   4.202   8.587 -0.0800  0.5926  0.1130
46645SOL    HW145255   6.874   4.218   8.613 -1.4359 -2.5341 -2.0299
46645SOL    HW245256   6.978   4.258   8.511 -0.3159  0.7962  0.2198
46646SOL     OW45257   6.426   6.589   0.664 -0.2484  0.1997  0.6436
46646SOL    HW145258   6.378   6.637   0.731 -0.0544  1.1126  0.1469
46646SOL    HW245259   6.512   6.629   0.662 -0.7347  1.2785 -1.2155
46647SOL     OW45260  11.287   6.923   8.159  0.5938  0.2059 -0.2504
46647SOL    HW145261  11.263   6.966   8.077  1.5129  2.7117  0.6882
46647SOL    HW245262  11.226   6.960   8.223 -0.4530 -2.1036  0.1604
46648SOL     OW45263   9.487   8.277   4.168 -0.1815 -0.0600  0.0529
46648SOL    HW145264   9.500   8.206   4.104 -0.1141  0.0422 -0.0473
46648SOL    HW245265   9.446   8.234   4.243 -0.6135 -0.1100 -0.2077
46649SOL     OW45266   3.909  11.759   2.414  0.3062  0.7459  0.5745
46649SOL    HW145267   3.889  11.830   2.353  2.6196  1.0981  0.1464
46649SOL    HW245268   3.928  11.804   2.497 -2.0891  0.3130  1.4427
46650SOL     OW45269   0.917   9.611   0.379  0.0428 -0.7969 -0.5884
46650SOL    HW145270   0.863   9.608   0.300 -1.2458 -0.0363  0.2251
46650SOL    HW245271   0.863   9.570   0.446  0.5007 -0.0442  0.2533
46651SOL     OW45272   2.055   6.117  11.405  0.0273 -0.0532  0.6195
46651SOL    HW145273   2.064   6.036  11.356  2.0710  0.2913  0.3439
46651SOL    HW245274   1.966   6.114  11.440 -1.2513 -0.7402 -2.3223
46652SOL     OW45275   7.204   4.381   9.644  0.4064 -0.0314 -0.2998
46652SOL    HW145276   7.133   4.369   9.706 -0.1037  0.6573 -0.7415
46652SOL    HW245277   7.267   4.312   9.666 -0.2916 -0.5114  0.2325
46653SOL     OW45278   3.290   2.007   6.117 -0.1324 -0.5082  0.4287
46653SOL    HW145279   3.243   1.970   6.192 -1.0937 -1.3431 -0.5395
46653SOL    HW245280   3.285   1.938   6.050 -0.9334  0.9043 -1.0407
46654SOL     OW45281   2.383   3.847   9.378 -0.4022 -0.2798  0.2261
46654SOL    HW145282   2.359   3.776   9.318  0.3665 -0.6355  0.3219
46654SOL    HW245283   2.339   3.924   9.344  0.2568 -0.4189 -0.9702
46655SOL     OW45284   0.424   3.440   0.729 -0.3326  0.2871  0.4399
46655SOL    HW145285   0.384   3.368   0.679  0.3047 -0.5896  1.1585
46655SOL    HW245286   0.351   3.499   0.747 -0.9952 -0.4869  0.3580
46656SOL     OW45287   6.907  10.552   3.921 -0.3105 -0.7975 -0.2375
46656SOL    HW145288   6.922  10.461   3.899 -2.0258 -1.2966  0.4949
46656SOL    HW245289   6.957  10.566   4.002 -0.4262 -1.2042 -0.0978
46657SOL     OW45290  10.644   0.680   6.716  0.4411  0.3126 -0.0320
46657SOL    HW145291  10.620   0.718   6.800  0.2177 -0.7422  0.4009
46657SOL    HW245292  10.720   0.731   6.686  1.2054  0.0007  1.3258
46658SOL     OW45293   3.070   5.832   9.822  0.0153 -0.2046 -0.4048
46658SOL    HW145294   3.150   5.783   9.839  0.2430  0.2160 -0.2511
46658SOL    HW245295   3.040   5.859   9.909 -0.2231 -0.2470 -0.4731
46659SOL     OW45296  11.610   8.052  11.248  0.2722  0.2639 -0.0262
46659SOL    HW145297  11.680   7.987  11.258 -0.6959 -0.8987 -0.5856
46659SOL    HW245298  11.589   8.049  11.155 -1.5261 -0.4910  0.3712
46660SOL     OW45299  11.309   7.847   3.615 -0.2796  0.0921  0.1114
46660SOL    HW145300  11.269   7.771   3.657  0.1660 -0.6250 -0.7404
46660SOL    HW245301  11.287   7.838   3.522  1.4891 -0.1045 -0.3195
46661SOL     OW45302   1.221   8.684   6.865  0.0218  0.1546  0.5474
46661SOL    HW145303   1.294   8.676   6.926 -0.5644  0.2729  1.2833
46661SOL    HW245304   1.216   8.777   6.844  0.2895  0.0990  0.2337
46662SOL     OW45305   2.368   8.405   9.878  0.2901  0.7564  0.2862
46662SOL    HW145306   2.289   8.390   9.930  0.0493 -0.8442 -0.4976
46662SOL    HW245307   2.339   8.398   9.787  1.4693 -0.7151 -0.0167
46663SOL     OW45308   8.800   4.207   5.576  0.0366 -0.6059 -0.4713
46663SOL    HW145309   8.769   4.284   5.527 -0.5837  0.6749  1.7595
46663SOL    HW245310   8.896   4.214   5.573  0.0917 -1.4283 -2.6821
46664SOL     OW45311   4.906   9.311  10.371  0.2494  0.2665  0.7391
46664SOL    HW145312   4.828   9.256  10.365  0.1156  0.1405  2.7476
46664SOL    HW245313   4.977   9.258  10.336 -0.2927 -0.2442  0.4057
46665SOL     OW45314  10.773   8.718   5.221 -0.0369 -0.2695  0.3729
46665SOL    HW145315  10.708   8.650   5.240 -0.0699 -0.0205  1.1948
46665SOL    HW245316  10.726   8.782   5.168 -0.3953 -0.2171  0.7508
46666SOL     OW45317  10.052   2.792   7.274  0.2621 -0.3306  0.4143
46666SOL    HW145318  10.144   2.772   7.293  0.7551  0.7390 -0.7677
46666SOL    HW245319  10.029   2.860   7.338  0.3399 -0.4752  0.5975
46667SOL     OW45320   2.330   1.772   9.520  0.3523 -0.1735 -0.1759
46667SOL    HW145321   2.279   1.770   9.600  0.7201 -0.1837  0.0633
46667SOL    HW245322   2.333   1.865   9.496 -0.6213 -0.2835 -0.7453
46668SOL     OW45323   6.176  10.082   0.535  0.0828 -0.6795 -0.0753
46668SOL    HW145324   6.264  10.071   0.569 -0.3351  0.0075  1.3240
46668SOL    HW245325   6.173  10.173   0.505  0.0240 -0.8762 -0.6754
46669SOL     OW45326   5.381   4.806  11.058  0.0562 -0.4032  0.4167
46669SOL    HW145327   5.359   4.801  10.965 -0.6995  0.2178  0.5445
46669SOL    HW245328   5.305   4.769  11.103  0.2822 -0.4181  0.7934
46670SOL     OW45329   3.811   0.843   8.107  0.3270  0.1754  0.5537
46670SOL    HW145330   3.778   0.892   8.032 -1.4867 -0.4521  0.8900
46670SOL    HW245331   3.836   0.911   8.170 -0.9232  0.6927  0.5199
46671SOL     OW45332  11.781   3.222  10.064 -0.4598  0.2675  0.0511
46671SOL    HW145333  11.701   3.236  10.115  0.3324 -0.1422  1.4622
46671SOL    HW245334  11.806   3.309  10.033  0.4160  0.9894  2.5354
46672SOL     OW45335   7.926  11.700   0.899  0.1064  0.8236 -0.4284
46672SOL    HW145336   7.964  11.652   0.973  2.1023 -0.0138 -1.8980
46672SOL    HW245337   7.917  11.790   0.930 -2.7946 -0.1575  2.0674
46673SOL     OW45338   2.113   5.888  11.255 -0.3652  0.4431 -0.1741
46673SOL    HW145339   2.177   5.901  11.325  0.1260  1.0754 -0.7254
46673SOL    HW245340   2.148   5.815  11.204 -1.8905 -1.5876  1.5254
46674SOL     OW45341   8.712  11.102   5.337 -0.4352 -0.3864 -0.0682
46674SOL    HW145342   8.750  11.017   5.318 -0.7370 -0.7121  0.7911
46674SOL    HW245343   8.657  11.089   5.414 -0.6970  0.5234 -0.0788
46675SOL     OW45344   3.949   0.954   4.504  0.0992 -0.1689 -0.4362
46675SOL    HW145345   3.952   0.889   4.574  0.9449 -0.7314 -0.9748
46675SOL    HW245346   3.873   0.929   4.452 -1.5238  1.1965  1.1213
46676SOL     OW45347   9.228   3.694  11.278  0.4237 -0.2672  0.2151
46676SOL    HW145348   9.174   3.709  11.200 -2.0813 -0.7203  1.7438
46676SOL    HW245349   9.310   3.740  11.260 -0.4722  0.5406 -2.2199
46677SOL     OW45350   4.162   5.480   1.248 -1.0403  1.0048  0.4652
46677SOL    HW145351   4.169   5.459   1.341  0.1417  0.0873  0.1982
46677SOL    HW245352   4.230   5.547   1.233 -1.1450  1.0619  0.2406
46678SOL     OW45353   1.901  10.323   7.538  0.2017  0.3749  0.1117
46678SOL    HW145354   1.952  10.392   7.580  1.9513 -1.5994  1.4818
46678SOL    HW245355   1.937  10.317   7.449  0.4326  0.8308  0.1723
46679SOL     OW45356   5.834   0.734  10.847  0.3997 -0.1581 -0.1661
46679SOL    HW145357   5.874   0.710  10.931  1.0064 -0.4858 -0.5417
46679SOL    HW245358   5.744   0.759  10.869  1.1476  1.8703  0.8961
46680SOL     OW45359   5.844  10.515  11.527  0.1639  0.2610 -0.0194
46680SOL    HW145360   5.904  10.440  11.525  0.5165  0.5256  0.3983
46680SOL    HW245361   5.758  10.477  11.546 -0.1925 -0.3496 -2.4349
46681SOL     OW45362   1.466   3.869   9.206  0.9442 -0.6839 -0.0428
46681SOL    HW145363   1.379   3.865   9.166  0.7091  1.5388  0.1155
46681SOL    HW245364   1.509   3.789   9.177  0.7650  0.6170 -4.7631
46682SOL     OW45365   1.421   8.206   0.497 -0.0545  0.3049  0.3032
46682SOL    HW145366   1.433   8.252   0.580 -0.6964  0.1063  0.5118
46682SOL    HW245367   1.506   8.215   0.453 -0.5783  2.9667 -0.3343
46683SOL     OW45368   5.397   3.987   5.318  0.0151  0.0461  0.3443
46683SOL    HW145369   5.445   3.995   5.235  0.7380  1.7231  0.8970
46683SOL    HW245370   5.360   4.073   5.333 -1.2373 -0.5998  1.1341
46684SOL     OW45371   0.803   3.530   2.485 -0.0624 -0.0745 -0.9683
46684SOL    HW145372   0.867   3.570   2.426  0.0926  0.5124 -0.4177
46684SOL    HW245373   0.845   3.534   2.572  0.0481 -1.6286 -0.9191
46685SOL     OW45374   6.839  10.966  10.693  0.2283  0.5184  0.4917
46685SOL    HW145375   6.886  10.890  10.727  1.0474  1.5124  1.6680
46685SOL    HW245376   6.785  10.931  10.622  0.0785 -1.2691  1.4371
46686SOL     OW45377  11.536   4.363   3.460  0.0891  0.1631  0.1962
46686SOL    HW145378  11.529   4.378   3.366  2.1192  0.9632  0.1315
46686SOL    HW245379  11.615   4.311   3.471 -1.3795 -1.9965  1.3288
46687SOL     OW45380  10.938  10.105   4.399  0.1026  0.1105  0.4489
46687SOL    HW145381  10.932  10.130   4.491 -0.1287 -0.4744  0.5924
46687SOL    HW245382  10.871  10.158   4.355 -2.0647 -1.9204  1.1056
46688SOL     OW45383   0.379   0.476   7.733 -0.3580  0.0341  0.2424
46688SOL    HW145384   0.380   0.536   7.807  0.8507  0.2398  0.0754
46688SOL    HW245385   0.329   0.401   7.764 -0.7270  0.5413  0.9116
46689SOL     OW45386   9.868   5.665   0.755  0.9069  0.2058  0.0859
46689SOL    HW145387   9.801   5.626   0.812  1.8860  0.3894  1.4183
46689SOL    HW245388   9.819   5.720   0.695 -0.0862  1.8038  2.2123
46690SOL     OW45389   1.588   6.603   5.733  0.5304  0.1321 -0.0422
46690SOL    HW145390   1.599   6.641   5.820  0.5851  0.8735 -0.3736
46690SOL    HW245391   1.582   6.677   5.674  0.9979 -0.3784 -0.7439
46691SOL     OW45392   0.126   8.195   2.346  0.1876  0.3471  0.1009
46691SOL    HW145393   0.191   8.146   2.296  0.6536  1.8111 -0.8189
46691SOL    HW245394   0.150   8.181   2.437  0.7053 -0.5767 -0.1669
46692SOL     OW45395   7.120  11.444  11.382 -0.0133 -0.8334 -0.1274
46692SOL    HW145396   7.159  11.356  11.383  0.7643 -0.4925  0.6199
46692SOL    HW245397   7.195  11.502  11.367 -0.2096 -0.1566  1.4253
46693SOL     OW45398   2.018   7.108   2.809  0.0193  0.3693  0.2801
46693SOL    HW145399   2.092   7.136   2.755  1.0068  0.7392  1.7499
46693SOL    HW245400   1.966   7.188   2.820 -1.3212 -0.1518 -1.7506
46694SOL     OW45401   0.118   0.534  11.181  0.5364 -0.4324  0.1917
46694SOL    HW145402   0.128   0.496  11.269 -0.1717  0.7297  0.7951
46694SOL    HW245403   0.166   0.617  11.185 -1.8480  1.0280  0.4271
46695SOL     OW45404   6.287   2.234   4.777  0.0872 -0.4517  0.5987
46695SOL    HW145405   6.214   2.217   4.716  0.3967 -2.5335  0.7614
46695SOL    HW245406   6.265   2.319   4.815 -0.8755  0.2409 -1.3178
46696SOL     OW45407   4.549  10.390   1.170  0.3865  0.2865  0.1445
46696SOL    HW145408   4.507  10.459   1.118 -1.1871  0.2451  1.2873
46696SOL    HW245409   4.522  10.309   1.127 -1.1562  0.2390  1.1409
46697SOL     OW45410  11.258   8.609   4.484  0.4220 -0.0631 -0.0187
46697SOL    HW145411  11.233   8.590   4.574  1.8418  0.5533  0.5336
46697SOL    HW245412  11.353   8.614   4.486  0.4508  0.4872 -1.4531
46698SOL     OW45413   2.704  10.500   1.485 -0.3945 -0.2828 -0.4622
46698SOL    HW145414   2.734  10.427   1.430 -0.3260 -0.8285  0.2912
46698SOL    HW245415   2.657  10.557   1.425 -0.4857 -0.9676 -1.0530
46699SOL     OW45416   3.863   5.730   2.317 -0.3136  0.6456 -0.7557
46699SOL    HW145417   3.936   5.670   2.331  0.8333  1.7195 -1.8251
46699SOL    HW245418   3.794   5.676   2.279  0.4993 -0.1179 -1.1953
46700SOL     OW45419  10.407   5.008   5.298 -0.4244  0.2100  0.0852
46700SOL    HW145420  10.499   4.983   5.302 -0.6019 -0.2721  2.1642
46700SOL    HW245421  10.371   4.956   5.226  1.0160  0.8443 -1.1515
46701SOL     OW45422   4.600   3.410   4.995  0.4394 -0.0587 -0.0886
46701SOL    HW145423   4.616   3.358   5.074 -0.9158 -1.7036 -0.8198
46701SOL    HW245424   4.666   3.380   4.932 -1.3220 -2.2166 -1.0435
46702SOL     OW45425   7.714   8.232   0.958 -0.8100  0.2353 -0.4510
46702SOL    HW145426   7.647   8.298   0.977 -0.6761  0.8056 -1.8249
46702SOL    HW245427   7.668   8.163   0.912 -0.7261 -0.0755 -0.0715
46703SOL     OW45428   2.618   1.227   4.316 -0.0332  0.3972  0.2699
46703SOL    HW145429   2.707   1.261   4.319  0.8050 -1.6328 -0.1511
46703SOL    HW245430   2.580   1.267   4.237  0.7767  0.6419 -0.0056
46704SOL     OW45431   6.779   1.915   1.685 -0.1393 -0.2702  0.0073
46704SOL    HW145432   6.800   1.860   1.609  0.3565 -0.7583  0.4895
46704SOL    HW245433   6.707   1.970   1.655 -0.0586 -0.5720 -0.7684
46705SOL     OW45434   1.151   1.434   4.599  0.4430  0.5962 -0.6300
46705SOL    HW145435   1.243   1.445   4.573 -0.2613  1.5655 -2.8873
46705SOL    HW245436   1.103   1.424   4.517 -1.2184 -2.5273  0.5535
46706SOL     OW45437   7.078   1.849   7.906 -0.2129 -0.4917 -0.4853
46706SOL    HW145438   7.125   1.920   7.862  0.9993 -0.0853  1.3229
46706SOL    HW245439   7.028   1.893   7.975  1.4248 -1.3896  1.3939
46707SOL     OW45440   2.354   8.903   0.576 -0.3858 -0.3559 -0.1633
46707SOL    HW145441   2.270   8.868   0.546 -0.4280 -0.2875 -0.1260
46707SOL    HW245442   2.360   8.877   0.668 -0.4240 -0.2546 -0.1314
46708SOL     OW45443   9.090   9.540   3.665  0.7327 -0.1002  0.1943
46708SOL    HW145444   9.175   9.580   3.646  0.6054  0.4905  0.8335
46708SOL    HW245445   9.026   9.606   3.640  0.4340 -0.6732 -0.6119
46709SOL     OW45446  11.752   9.353   2.714  0.2603 -0.2368 -0.1295
46709SOL    HW145447  11.661   9.351   2.743  0.3988 -1.6895  0.2612
46709SOL    HW245448  11.784   9.264   2.727  1.1967 -0.2428 -2.0482
46710SOL     OW45449   9.220   4.601   2.019 -0.3512  0.1262 -0.5074
46710SOL    HW145450   9.195   4.660   1.947  0.8518  0.3944 -0.7192
46710SOL    HW245451   9.223   4.657   2.096 -0.5381  0.0604 -0.4509
46711SOL     OW45452  11.343   5.951  11.122 -0.8311  0.0530 -0.3220
46711SOL    HW145453  11.322   5.885  11.056  0.0684  0.0135 -0.5818
46711SOL    HW245454  11.409   6.006  11.081 -0.8140  0.4892  0.2771
46712SOL     OW45455   7.933   4.626   2.706  0.4943  0.4803  0.2719
46712SOL    HW145456   7.971   4.682   2.773  0.8731  1.1671 -0.5022
46712SOL    HW245457   8.007   4.574   2.674  0.3021  0.1055  0.4388
46713SOL     OW45458   3.570   4.733  10.882  0.0452  1.0193  0.6454
46713SOL    HW145459   3.518   4.724  10.802  2.6859 -1.5794 -1.0265
46713SOL    HW245460   3.597   4.825  10.883  0.3418  1.0262 -1.7904
46714SOL     OW45461   4.183   9.055   3.013 -0.4257  0.0366 -0.0148
46714SOL    HW145462   4.155   9.133   3.061  0.4959 -0.3619  1.2157
46714SOL    HW245463   4.215   9.090   2.929 -0.8593  0.8863  0.1602
46715SOL     OW45464   3.230   6.964  10.287  0.1678 -0.0073 -0.2212
46715SOL    HW145465   3.155   6.911  10.314  0.1902  0.7490  1.4388
46715SOL    HW245466   3.194   7.028  10.226 -1.0687  1.8472  2.3103
46716SOL     OW45467  10.932   8.885   9.994 -0.1177  0.1847 -0.0210
46716SOL    HW145468  10.865   8.880  10.062 -0.0246  1.6124  0.2177
46716SOL    HW245469  10.899   8.830   9.923 -1.1771  0.2594  0.3991
46717SOL     OW45470   2.845   7.395   1.512  0.0683  0.3835  0.2352
46717SOL    HW145471   2.937   7.367   1.511  0.8679  2.6741 -1.9553
46717SOL    HW245472   2.837   7.449   1.590 -0.0457 -1.4959  1.5800
46718SOL     OW45473   1.743   8.429   0.940 -0.4851 -0.4848  0.7143
46718SOL    HW145474   1.833   8.432   0.907 -1.0504  0.9821 -0.7952
46718SOL    HW245475   1.738   8.345   0.987  1.4565 -0.9105  0.2493
46719SOL     OW45476   5.548   5.743   7.749  0.3528 -0.3974 -0.7401
46719SOL    HW145477   5.557   5.649   7.764 -0.3704 -0.2435  0.7941
46719SOL    HW245478   5.603   5.784   7.816 -2.0669  0.3069  0.9203
46720SOL     OW45479   1.921   5.696  10.531  0.4616 -0.5297 -0.3031
46720SOL    HW145480   1.941   5.789  10.526 -3.1724  0.4222  0.2059
46720SOL    HW245481   1.997   5.653  10.491  1.9134  2.6455 -1.2773
46721SOL     OW45482   8.953   4.921   0.350  0.1117  0.7541 -0.1325
46721SOL    HW145483   8.990   4.992   0.403 -1.0167  0.7933  0.6575
46721SOL    HW245484   8.955   4.954   0.260  1.9606  0.7395 -0.1411
46722SOL     OW45485   9.061   2.343   1.429 -0.0947 -0.0804  0.1041
46722SOL    HW145486   9.136   2.286   1.449 -0.3993 -0.8076 -0.7601
46722SOL    HW245487   8.990   2.282   1.408 -1.8104  0.4570  3.6192
46723SOL     OW45488   7.196   6.982   5.083 -0.5759 -0.2716 -0.2041
46723SOL    HW145489   7.257   6.983   5.009  0.4110 -0.9577  0.5634
46723SOL    HW245490   7.247   7.018   5.156 -0.8187 -1.5948  0.6431
46724SOL     OW45491   5.523   2.788   5.134  0.0103 -0.4138 -0.5019
46724SOL    HW145492   5.464   2.816   5.204 -1.5524  0.3015 -2.0166
46724SOL    HW245493   5.470   2.727   5.081  1.0848 -0.7998 -1.1637
46725SOL     OW45494   1.778   6.167   0.486 -0.3786  0.3349  0.1899
46725SOL    HW145495   1.847   6.188   0.549  1.1903 -0.8330 -1.0221
46725SOL    HW245496   1.709   6.231   0.502  2.0884  3.3582 -0.2565
46726SOL     OW45497   9.726   6.146   4.286 -0.6005  0.2800  0.0735
46726SOL    HW145498   9.681   6.210   4.231 -1.2482  0.6803  1.0423
46726SOL    HW245499   9.657   6.089   4.319 -0.1826 -0.1518  0.2080
46727SOL     OW45500  11.582   6.547   6.624 -0.1153  0.8621  0.2879
46727SOL    HW145501  11.501   6.596   6.610 -1.5671 -1.7739 -1.4230
46727SOL    HW245502  11.630   6.555   6.542 -0.1049 -0.0528  0.1912
46728SOL     OW45503   0.832   9.144   5.164 -0.4502  0.5870 -0.3166
46728SOL    HW145504   0.799   9.109   5.081  0.3490 -1.7551  0.2692
46728SOL    HW245505   0.922   9.170   5.146 -0.8044  1.7339 -0.5572
46729SOL     OW45506   0.076   3.427   4.809  0.0119  0.1053 -0.2853
46729SOL    HW145507   0.078   3.404   4.902  0.9890 -0.1598 -0.3534
46729SOL    HW245508   0.012   3.367   4.771 -0.3477  0.1752  0.2046
46730SOL     OW45509   0.476   9.471   5.622 -0.9332  0.1204  0.1112
46730SOL    HW145510   0.428   9.400   5.580 -4.3379 -0.5904  4.4404
46730SOL    HW245511   0.439   9.551   5.583 -0.3287 -0.4039 -1.6269
46731SOL     OW45512   1.978   1.886   5.249 -0.0937 -0.5687  0.0522
46731SOL    HW145513   1.928   1.840   5.317  1.2712 -1.9865  0.1668
46731SOL    HW245514   2.053   1.922   5.296 -0.8148  1.3252 -0.1559
46732SOL     OW45515   2.147   6.617   2.281 -0.5355 -0.0113 -0.3540
46732SOL    HW145516   2.201   6.617   2.202 -1.0998 -2.2979 -0.8094
46732SOL    HW245517   2.206   6.588   2.351 -0.1129  1.7236  0.0461
46733SOL     OW45518   9.461   2.049   0.688 -0.6445 -0.1948 -0.1441
46733SOL    HW145519   9.456   1.963   0.647  0.5635 -0.2145 -0.2784
46733SOL    HW245520   9.402   2.043   0.763 -0.5422 -1.1609 -0.1263
46734SOL     OW45521   4.241  10.407  11.705  0.1811  0.0549 -0.1832
46734SOL    HW145522   4.251  10.348  11.780  0.4439 -0.4004 -0.5731
46734SOL    HW245523   4.330  10.432  11.683  0.3371 -1.6731 -1.8039
46735SOL     OW45524   1.880   0.772   4.920 -0.1732  0.5235 -0.0632
46735SOL    HW145525   1.956   0.792   4.975 -0.5902 -1.2331  1.2483
46735SOL    HW245526   1.814   0.742   4.982 -1.5731  0.9694 -1.3053
46736SOL     OW45527   1.883   4.282   3.031  0.2444 -0.0253 -0.2439
46736SOL    HW145528   1.902   4.235   3.112 -0.3316  0.2331  0.0486
46736SOL    HW245529   1.964   4.277   2.981  0.3852 -0.7927  0.0465
46737SOL     OW45530   0.298   5.015  10.451 -0.0950  0.1094  0.0406
46737SOL    HW145531   0.323   4.943  10.393 -0.3814 -0.4396  0.5875
46737SOL    HW245532   0.377   5.032  10.503 -0.6107 -1.1807  1.3092
46738SOL     OW45533   2.727   4.021   4.291 -0.5662  0.5108 -0.1959
46738SOL    HW145534   2.797   4.085   4.280 -0.2847 -0.0423 -2.0842
46738SOL    HW245535   2.648   4.073   4.299 -0.3941  1.1533 -2.1029
46739SOL     OW45536  10.067   9.283  11.658  0.6577  0.2408  0.4112
46739SOL    HW145537   9.973   9.300  11.648  0.5999 -0.5319 -0.4947
46739SOL    HW245538  10.104   9.368  11.684 -0.3230  0.4828  1.0785
46740SOL     OW45539   9.365  10.421   5.544 -0.2363 -0.5414 -0.1296
46740SOL    HW145540   9.458  10.440   5.527 -0.3006 -1.4134 -1.6119
46740SOL    HW245541   9.354  10.438   5.637  1.8739 -2.2317  0.5105
46741SOL     OW45542   1.174   6.846   1.313  0.9123 -0.6674  0.0056
46741SOL    HW145543   1.097   6.800   1.278  0.3741 -0.8178  1.3070
46741SOL    HW245544   1.136   6.919   1.363  1.7021  0.3231 -0.8097
46742SOL     OW45545   1.190  10.483  11.157  0.2832  0.1125 -0.2248
46742SOL    HW145546   1.255  10.458  11.223  0.5488 -1.3459 -0.9938
46742SOL    HW245547   1.131  10.408  11.152  0.0285  0.3730 -1.3316
46743SOL     OW45548   8.906   6.939   5.274 -0.1875  0.1922  0.2689
46743SOL    HW145549   8.909   6.864   5.333  0.1529  1.1766  1.5480
46743SOL    HW245550   8.930   7.013   5.329 -1.0510  1.3273 -0.8329
46744SOL     OW45551   7.186   3.286   9.434 -0.4748 -0.3787 -0.3572
46744SOL    HW145552   7.240   3.361   9.459 -2.2465  0.8017  0.0972
46744SOL    HW245553   7.111   3.290   9.493 -1.0570 -1.9987 -0.9359
46745SOL     OW45554   3.827   1.311   6.664  0.0646  0.6204  0.4693
46745SOL    HW145555   3.772   1.291   6.739 -0.4062  0.9273  0.2114
46745SOL    HW245556   3.916   1.314   6.699 -0.1016  0.2869  0.9192
46746SOL     OW45557   9.474   3.467  11.723  0.3523  0.3509 -0.4541
46746SOL    HW145558   9.547   3.461  11.662  0.5353 -0.2949 -0.1820
46746SOL    HW245559   9.415   3.396  11.698  0.8501 -0.4889  0.6522
46747SOL     OW45560   4.640   3.267  10.825  0.1878  0.3162  0.5216
46747SOL    HW145561   4.689   3.341  10.860  0.6184 -0.7563  2.3177
46747SOL    HW245562   4.701   3.223  10.766  0.5591  0.3916  0.8422
46748SOL     OW45563   8.639   1.050   1.043 -0.6348  0.0458  0.3686
46748SOL    HW145564   8.643   0.981   0.977  0.2573  0.3543  0.0910
46748SOL    HW245565   8.608   1.006   1.122 -0.2756 -0.6293  0.1363
46749SOL     OW45566  10.253   9.826   2.106 -0.0944 -0.1522 -0.7931
46749SOL    HW145567  10.335   9.848   2.150 -0.1884  1.0856 -1.2143
46749SOL    HW245568  10.278   9.761   2.040  0.1965 -1.3204  0.4367
46750SOL     OW45569   2.621   2.195   6.791 -0.4627 -0.0842 -0.5128
46750SOL    HW145570   2.701   2.232   6.754 -1.5728 -0.5315 -3.6770
46750SOL    HW245571   2.649   2.157   6.875  2.0885  1.7893 -0.3876
46751SOL     OW45572   0.181   9.009  11.678  0.9597  0.2340  0.1220
46751SOL    HW145573   0.199   9.098  11.650 -1.7418  0.6790 -0.5308
46751SOL    HW245574   0.258   8.959  11.651  2.0027  2.1242 -0.6208
46752SOL     OW45575  11.525   4.547   7.860 -0.0938  0.0055 -0.5053
46752SOL    HW145576  11.587   4.591   7.918 -0.8774  2.1190 -1.1779
46752SOL    HW245577  11.558   4.564   7.772  0.7901 -2.7176 -0.8011
46753SOL     OW45578   5.389  10.828   1.491 -0.6127  0.2662  0.0365
46753SOL    HW145579   5.370  10.868   1.406 -1.0118 -0.3980 -0.1976
46753SOL    HW245580   5.318  10.858   1.548  0.0799  1.3357  0.3488
46754SOL     OW45581   0.429   9.257   7.383  0.0144  0.2246  0.1681
46754SOL    HW145582   0.440   9.237   7.290  0.1414  0.9269  0.0279
46754SOL    HW245583   0.497   9.206   7.426 -0.0732 -0.1405 -0.1209
46755SOL     OW45584   7.489   5.626   8.135 -0.2035 -0.0384 -0.3168
46755SOL    HW145585   7.580   5.608   8.159  0.1326  0.9586 -0.7730
46755SOL    HW245586   7.496   5.676   8.053 -1.1981 -0.6366 -0.7835
46756SOL     OW45587   1.802   7.108   5.940  0.2396  0.4339  0.0930
46756SOL    HW145588   1.795   7.203   5.933  0.8952  0.5175  0.5181
46756SOL    HW245589   1.826   7.080   5.851  1.8770  0.8545  0.3654
46757SOL     OW45590  11.583   2.469  11.561  0.1500  0.2421  0.0976
46757SOL    HW145591  11.534   2.399  11.605 -0.5053 -0.2588 -1.3589
46757SOL    HW245592  11.674   2.440  11.565 -0.1283 -0.7820 -0.6050
46758SOL     OW45593   7.333   3.160   5.597 -0.3578  0.0466 -0.2917
46758SOL    HW145594   7.254   3.143   5.650  0.6197 -0.1794  1.1440
46758SOL    HW245595   7.349   3.253   5.608 -0.2817  0.0432 -0.3795
46759SOL     OW45596   8.864  11.734   3.102 -0.1764  0.5409 -0.6268
46759SOL    HW145597   8.934  11.686   3.146 -1.3462 -1.1673 -0.5517
46759SOL    HW245598   8.815  11.667   3.055 -2.0019  1.6340 -0.3710
46760SOL     OW45599  11.278   7.446   0.256  0.4062 -0.8235  0.6846
46760SOL    HW145600  11.211   7.502   0.215  0.4779 -0.9762  0.3562
46760SOL    HW245601  11.290   7.374   0.194  3.1458  0.7710 -0.8286
46761SOL     OW45602   6.639   0.888   4.681  0.5283  0.4563  0.4630
46761SOL    HW145603   6.603   0.900   4.593  0.5481 -0.4707  0.3152
46761SOL    HW245604   6.591   0.949   4.736  1.0530  1.6240 -0.3244
46762SOL     OW45605   5.524   3.942   5.578 -0.3080 -0.0192  0.2084
46762SOL    HW145606   5.495   3.984   5.497 -0.3832 -0.8265 -0.1897
46762SOL    HW245607   5.452   3.885   5.604 -0.8942  1.2839  1.6424
46763SOL     OW45608  10.274  11.174   4.863  0.5831  0.4287  0.1180
46763SOL    HW145609  10.179  11.183   4.867  0.4297 -1.2661  1.9759
46763SOL    HW245610  10.297  11.200   4.774 -1.7313 -0.0713 -0.6952
46764SOL     OW45611   6.869   6.451   8.841 -0.3495 -0.3543 -0.3403
46764SOL    HW145612   6.832   6.431   8.755  2.1875  0.4187 -1.7426
46764SOL    HW245613   6.960   6.476   8.822  0.0502  0.7204  2.4914
46765SOL     OW45614  11.779   7.338   6.961 -0.2900  0.0438  0.2076
46765SOL    HW145615  11.851   7.312   7.018  0.5296 -1.5558 -1.4676
46765SOL    HW245616  11.720   7.387   7.018  1.8137  0.9187  1.7634
46766SOL     OW45617   4.936   0.533  10.797 -0.2953  0.3394  0.3865
46766SOL    HW145618   4.860   0.475  10.796 -0.3577  0.4214  0.3941
46766SOL    HW245619   4.947   0.559  10.705 -0.3224  0.3895  0.3982
46767SOL     OW45620   7.075   5.029   8.911  0.0254  0.4089  0.1492
46767SOL    HW145621   7.136   5.021   8.838  0.5391  1.9300  0.3872
46767SOL    HW245622   7.020   5.104   8.889  1.0422  1.7552  1.8890
46768SOL     OW45623   2.520   6.391   8.683 -0.1209 -0.7436  0.0088
46768SOL    HW145624   2.522   6.343   8.600 -0.6409 -0.7560  0.0048
46768SOL    HW245625   2.529   6.324   8.751 -0.2149 -0.7814 -0.0173
46769SOL     OW45626   1.423   9.635   2.795 -0.4002  0.1419 -0.2137
46769SOL    HW145627   1.400   9.593   2.713  1.0636 -0.0940 -0.5313
46769SOL    HW245628   1.519   9.638   2.795 -0.3880  0.7774  1.1583
46770SOL     OW45629  11.461   7.834   1.251 -0.0063 -0.2285 -0.1868
46770SOL    HW145630  11.482   7.886   1.174  0.7401 -0.1921  0.0367
46770SOL    HW245631  11.415   7.757   1.217  0.7351 -0.4422 -0.7069
46771SOL     OW45632   9.244   8.664   5.014 -0.2633 -0.5343 -0.0975
46771SOL    HW145633   9.256   8.713   5.095  0.7474  0.1260 -0.6193
46771SOL    HW245634   9.158   8.624   5.022 -0.0527 -0.7373  1.4276
46772SOL     OW45635   7.393   7.431   3.429  0.2453 -0.3338 -0.5799
46772SOL    HW145636   7.312   7.470   3.462  0.5994  0.4259 -0.5905
46772SOL    HW245637   7.442   7.408   3.508  1.6430  2.6126 -0.4337
46773SOL     OW45638   7.281   1.409   0.354  0.2243  0.1790  0.2916
46773SOL    HW145639   7.206   1.351   0.340 -1.3349  2.2507 -0.3708
46773SOL    HW245640   7.260   1.456   0.435  1.3877 -0.0308  0.7307
46774SOL     OW45641   4.812   8.186   1.596  0.4660 -0.5679 -0.3252
46774SOL    HW145642   4.800   8.271   1.638  1.6132  0.0862 -1.2377
46774SOL    HW245643   4.752   8.128   1.642  0.0219  0.6154  0.6643
46775SOL     OW45644   3.127   3.297   9.642 -0.1797  0.6320 -0.4479
46775SOL    HW145645   3.154   3.252   9.562  1.1652  0.0437  0.2938
46775SOL    HW245646   3.071   3.234   9.687 -0.4057  0.7095 -0.6200
46776SOL     OW45647  10.896   1.540   2.867  0.0907 -0.0023 -0.2269
46776SOL    HW145648  10.808   1.509   2.848  0.5688 -2.0343  0.6233
46776SOL    HW245649  10.890   1.635   2.862 -2.0846 -0.1150 -0.4108
46777SOL     OW45650   8.964   9.506  11.282 -0.1421  0.4793 -0.0235
46777SOL    HW145651   9.011   9.562  11.219  1.9140  0.1827  1.1698
46777SOL    HW245652   8.952   9.424  11.235  1.2323  0.3118 -0.1462
46778SOL     OW45653   3.561   2.184   3.971 -0.8232 -0.4668  0.0631
46778SOL    HW145654   3.619   2.158   3.899  0.4983 -0.7784  1.2026
46778SOL    HW245655   3.480   2.211   3.928 -1.0634 -3.1660 -1.4104
46779SOL     OW45656   5.015  10.467   2.711  0.4411  0.0630  0.0822
46779SOL    HW145657   5.083  10.533   2.695 -0.8364  1.6962  1.1410
46779SOL    HW245658   4.943  10.491   2.653 -0.1367 -0.2613  0.6508
46780SOL     OW45659   5.890   4.599   2.534 -0.0900 -0.0906 -0.0372
46780SOL    HW145660   5.936   4.537   2.591  0.9551  0.5375 -0.1755
46780SOL    HW245661   5.946   4.607   2.457 -0.2194  0.9729 -0.0429
46781SOL     OW45662   4.662   1.733   8.427 -0.3151  0.3211 -0.5667
46781SOL    HW145663   4.641   1.795   8.497  2.2547 -0.2513  0.8680
46781SOL    HW245664   4.727   1.780   8.373  0.7591 -0.6380 -0.1496
46782SOL     OW45665   8.172   9.685   8.744 -0.2795  0.3883 -0.7489
46782SOL    HW145666   8.215   9.765   8.715 -0.8916  1.4489  1.1098
46782SOL    HW245667   8.144   9.703   8.834  1.5425 -2.6713  0.6121
46783SOL     OW45668  11.454   8.140   9.520 -0.1835 -0.0625 -0.5820
46783SOL    HW145669  11.416   8.227   9.530 -0.7684 -0.3273 -0.4408
46783SOL    HW245670  11.541   8.156   9.485 -0.0637  0.6124 -0.0162
46784SOL     OW45671  10.588   7.303   5.517  0.2486 -0.2522  0.1644
46784SOL    HW145672  10.603   7.384   5.468 -0.4317 -0.7162 -0.8403
46784SOL    HW245673  10.649   7.241   5.479  0.4508 -0.3486  0.6321
46785SOL     OW45674  10.187   9.566   6.755 -0.0374 -0.2414 -0.2298
46785SOL    HW145675  10.111   9.588   6.702 -1.5038 -2.2677  0.8645
46785SOL    HW245676  10.154   9.566   6.845  0.8353 -2.5468  0.1630
46786SOL     OW45677   8.664   6.166   3.377 -0.3917 -0.1558 -0.3431
46786SOL    HW145678   8.712   6.084   3.392 -1.1304 -0.6520 -0.6155
46786SOL    HW245679   8.674   6.182   3.283 -0.7455 -0.2632 -0.4024
46787SOL     OW45680   0.610   7.426  11.432 -0.1185  0.1451 -0.3953
46787SOL    HW145681   0.522   7.463  11.424 -1.2478 -1.3409  2.9344
46787SOL    HW245682   0.623   7.377  11.351 -2.1427  0.8571 -1.2185
46788SOL     OW45683   9.731  11.486   3.782 -0.0685  0.1824 -0.3068
46788SOL    HW145684   9.756  11.407   3.830 -1.1047 -1.3127 -2.0806
46788SOL    HW245685   9.635  11.487   3.787 -0.0332  1.6851  0.2208
46789SOL     OW45686   4.928   9.205   3.395  0.1108  0.4393  0.0448
46789SOL    HW145687   4.910   9.137   3.460  2.3050  0.5628  0.8635
46789SOL    HW245688   4.976   9.272   3.444 -1.3268  2.2464 -0.9205
46790SOL     OW45689   8.248   8.050   8.720 -0.2109 -0.7089 -0.3300
46790SOL    HW145690   8.172   7.996   8.698 -1.6612  0.9749  0.2764
46790SOL    HW245691   8.322   8.005   8.680 -1.2248 -3.4002  0.5669
46791SOL     OW45692   6.212  11.144   5.568  0.2958  0.0904 -0.0804
46791SOL    HW145693   6.216  11.239   5.580  0.2476 -0.0511  1.1277
46791SOL    HW245694   6.255  11.108   5.645 -0.4780 -0.8841 -0.0862
46792SOL     OW45695   6.119   3.895   0.102 -0.8289 -0.1143 -0.0726
46792SOL    HW145696   6.182   3.959   0.071  1.1636 -0.5693  2.6890
46792SOL    HW245697   6.102   3.919   0.193  0.1827 -3.5042  1.1712
46793SOL     OW45698   3.431   9.846   5.228  0.7395 -0.3469  0.4985
46793SOL    HW145699   3.341   9.876   5.241  0.9928  1.0704 -0.6920
46793SOL    HW245700   3.438   9.767   5.281 -0.9339  0.0055  1.3133
46794SOL     OW45701   7.797   5.219   8.848  0.6414  0.3326  0.3178
46794SOL    HW145702   7.820   5.127   8.843 -1.2880 -0.2696  1.4489
46794SOL    HW245703   7.876   5.262   8.881  0.9262 -1.2480  1.8526
46795SOL     OW45704   0.330   3.336   9.201  0.5238 -0.1620 -0.3470
46795SOL    HW145705   0.300   3.418   9.240  0.1132 -0.4187 -0.1200
46795SOL    HW245706   0.412   3.360   9.158  0.7193  0.2407  0.2243
46796SOL     OW45707   9.519   0.896   7.016  0.1898 -0.3689 -0.6866
46796SOL    HW145708   9.541   0.986   6.992 -0.0565 -0.6217 -1.9248
46796SOL    HW245709   9.431   0.900   7.051  0.6750  0.0588  0.5234
46797SOL     OW45710   6.553   8.295   6.577  0.0984  0.2720  0.6579
46797SOL    HW145711   6.574   8.205   6.603 -0.2345  0.7273  2.6532
46797SOL    HW245712   6.527   8.338   6.658  0.2205  2.1814 -0.2621
46798SOL     OW45713   2.783  11.056   1.538 -0.3694 -0.8264 -0.0319
46798SOL    HW145714   2.837  10.980   1.513  0.7033 -0.0136 -0.2363
46798SOL    HW245715   2.693  11.027   1.522 -0.0082 -2.1968  0.2601
46799SOL     OW45716   3.749   6.327   8.437  0.2706  0.3979  0.4091
46799SOL    HW145717   3.654   6.319   8.422 -0.2164  2.1349  2.1155
46799SOL    HW245718   3.764   6.279   8.519  0.9392 -0.1758 -0.0462
46800SOL     OW45719   0.363   2.824   1.716  0.0124 -0.3101  0.1430
46800SOL    HW145720   0.357   2.831   1.811  0.6902 -0.1750  0.1799
46800SOL    HW245721   0.409   2.741   1.701  2.2363  0.8619  0.0229
46801SOL     OW45722  11.472  11.036   6.735  0.1142  0.0644 -0.1188
46801SOL    HW145723  11.464  10.983   6.656 -2.5383 -0.4211  0.3641
46801SOL    HW245724  11.545  10.998   6.783  0.1130 -1.2973 -1.1300
46802SOL     OW45725  10.608   9.067   2.014  0.0539  0.4086  0.2172
46802SOL    HW145726  10.525   9.112   2.026  0.6112  1.3238  0.7997
46802SOL    HW245727  10.625   9.071   1.920 -0.0511  1.1762  0.2214
46803SOL     OW45728   4.814   7.414   9.312  0.5458 -0.2764 -0.3103
46803SOL    HW145729   4.846   7.401   9.223  0.0465 -1.7220 -0.2905
46803SOL    HW245730   4.739   7.473   9.301  0.8256  0.0123 -0.7657
46804SOL     OW45731   8.853   5.248   9.135 -0.0116  0.2198 -0.1039
46804SOL    HW145732   8.834   5.333   9.174  2.1404  0.2803  0.9716
46804SOL    HW245733   8.872   5.191   9.210 -0.0597 -0.8287 -0.8743
46805SOL     OW45734   9.070   2.160   8.590  0.1484 -0.0875  0.4815
46805SOL    HW145735   9.005   2.143   8.658 -0.5813  2.6186  0.5711
46805SOL    HW245736   9.154   2.143   8.632 -0.2547  1.8903  2.2823
46806SOL     OW45737   4.578   1.207   3.613  0.4427 -0.0503 -0.0020
46806SOL    HW145738   4.549   1.159   3.690 -1.0775  0.6726 -0.0870
46806SOL    HW245739   4.662   1.246   3.639  1.2582 -1.9732  0.3550
46807SOL     OW45740   8.338   9.676   7.323 -0.8107 -0.4357  0.4412
46807SOL    HW145741   8.329   9.582   7.337 -0.4674 -0.3492  1.3401
46807SOL    HW245742   8.422   9.686   7.280 -0.1526 -0.4480  1.6690
46808SOL     OW45743   1.057   2.096   8.582 -0.1826  0.0776 -0.5079
46808SOL    HW145744   1.119   2.085   8.654 -0.7754 -1.0212 -0.1369
46808SOL    HW245745   1.077   2.182   8.546  1.7717 -0.3716 -0.6039
46809SOL     OW45746   6.006   3.977   2.159 -0.2614 -0.2728  0.0874
46809SOL    HW145747   6.092   3.936   2.161 -0.2728 -0.3184 -0.4296
46809SOL    HW245748   5.961   3.941   2.236 -0.2331 -1.1366 -0.2908
46810SOL     OW45749   4.093  11.585   1.130 -0.4227 -0.2453  0.2365
46810SOL    HW145750   4.139  11.610   1.050 -1.6081  0.3760 -0.2873
46810SOL    HW245751   4.132  11.639   1.198  1.4752 -1.6871  0.3657
46811SOL     OW45752   7.186   9.276   6.453 -0.0889 -0.0541 -0.5152
46811SOL    HW145753   7.137   9.301   6.531  2.6786 -1.0621  1.7086
46811SOL    HW245754   7.152   9.190   6.429 -0.3073 -0.1599  0.1689
46812SOL     OW45755   4.357  11.048   1.316 -0.2719 -0.6455  0.0270
46812SOL    HW145756   4.418  11.122   1.316 -1.1994  0.1387  0.4100
46812SOL    HW245757   4.409  10.974   1.284  2.0365 -0.9475  3.8567
46813SOL     OW45758   3.687   6.475   0.866 -0.0221 -0.1008 -0.0030
46813SOL    HW145759   3.666   6.568   0.873 -0.4318 -0.2057  0.1788
46813SOL    HW245760   3.612   6.437   0.821 -0.7836 -0.6820  1.6839
46814SOL     OW45761  11.019   9.012   9.117 -0.0747  0.2251  0.1038
46814SOL    HW145762  11.088   9.079   9.124 -1.4526  1.9420 -1.5149
46814SOL    HW245763  11.046   8.957   9.044 -0.8477  1.5319 -1.2172
46815SOL     OW45764   9.346   2.006   3.220 -0.3765  0.1155 -0.1818
46815SOL    HW145765   9.323   2.045   3.136 -1.9822  0.3128  0.3137
46815SOL    HW245766   9.385   1.921   3.197 -0.1445  0.4690 -1.1332
46816SOL     OW45767   1.054   7.489   6.442  0.2768 -0.2432  0.1277
46816SOL    HW145768   1.019   7.440   6.516 -2.8962 -0.4072 -1.3026
46816SOL    HW245769   1.090   7.569   6.480  1.8551 -1.8154  2.0974
46817SOL     OW45770   3.889   4.846   7.398  0.4709 -0.3139 -0.0089
46817SOL    HW145771   3.845   4.886   7.473  1.2718  2.0607 -0.7293
46817SOL    HW245772   3.817   4.823   7.339 -0.0650 -0.7735  0.7913
46818SOL     OW45773  11.172   3.362   8.507 -0.4338  0.4227 -0.3766
46818SOL    HW145774  11.257   3.346   8.467 -0.6322 -1.6876 -0.0522
46818SOL    HW245775  11.111   3.367   8.433 -0.5010 -1.4365 -0.4782
46819SOL     OW45776   9.943   9.870   9.555  0.1478 -0.2725 -0.5266
46819SOL    HW145777   9.932   9.931   9.482 -0.3361  0.2745 -0.0164
46819SOL    HW245778  10.025   9.897   9.596 -0.4422  0.5548  0.1527
46820SOL     OW45779  10.033   6.065  11.575  0.1213  0.3615  0.5269
46820SOL    HW145780   9.969   6.136  11.571  1.4746  1.6640  0.8301
46820SOL    HW245781  10.083   6.074  11.494 -1.1118 -1.7077 -0.5185
46821SOL     OW45782   9.545   9.313   6.815 -0.0575 -0.5856  0.2061
46821SOL    HW145783   9.509   9.300   6.727 -1.1645 -2.2926  0.8472
46821SOL    HW245784   9.585   9.228   6.837 -2.1232 -1.1116  2.3162
46822SOL     OW45785   3.891   3.447   9.579  0.2958  0.1081 -0.2167
46822SOL    HW145786   3.838   3.419   9.654  2.4926  1.5310  2.0320
46822SOL    HW245787   3.957   3.378   9.570  0.5612  0.3618 -0.2343
46823SOL     OW45788   2.648  11.646   9.531 -0.3228  0.6073 -0.5323
46823SOL    HW145789   2.672  11.554   9.519  1.0282  0.7952  0.3800
46823SOL    HW245790   2.644  11.682   9.443 -0.7220 -0.2964 -0.8911
46824SOL     OW45791   0.749  11.585  10.105  0.3841  0.0483  0.0554
46824SOL    HW145792   0.655  11.567  10.103  0.5681 -0.9446  0.0192
46824SOL    HW245793   0.764  11.641  10.029  0.2424 -1.9980 -1.5686
46825SOL     OW45794   2.025   8.994   3.302  0.1706 -0.1614 -0.2261
46825SOL    HW145795   2.048   9.021   3.391 -1.0999 -0.6288  0.2785
46825SOL    HW245796   2.099   9.021   3.248  0.7022  0.6683  0.8818
46826SOL     OW45797   3.016  10.590   1.056 -0.4368  0.1551 -0.7314
46826SOL    HW145798   3.087  10.568   0.996  1.5885  1.6279  0.9518
46826SOL    HW245799   3.014  10.519   1.119  0.3445  0.6344 -0.1467
46827SOL     OW45800   9.661  10.674   1.410  0.6765 -0.0258  0.1975
46827SOL    HW145801   9.701  10.629   1.485  0.1247  1.7016  1.5880
46827SOL    HW245802   9.593  10.614   1.380  0.8793 -0.7375  1.1133
46828SOL     OW45803   7.254   2.438   1.817  0.5585  0.4071 -1.0198
46828SOL    HW145804   7.252   2.534   1.809  0.4000  0.5499  0.4126
46828SOL    HW245805   7.167   2.410   1.787 -0.1538  0.9204  0.4283
46829SOL     OW45806   1.497  10.723   5.816  1.0536  0.3183 -0.0648
46829SOL    HW145807   1.561  10.673   5.765  1.6707  1.2907 -0.2573
46829SOL    HW245808   1.418  10.724   5.761  0.3518 -2.0349  0.7368
46830SOL     OW45809  10.111   1.831  11.048  0.5315  0.1653  0.3544
46830SOL    HW145810  10.063   1.748  11.041  0.1352  0.3024  1.3232
46830SOL    HW245811  10.102   1.871  10.962  0.8950 -0.8774 -0.1995
46831SOL     OW45812   2.295   6.271   7.605  0.2235 -0.0321 -0.1003
46831SOL    HW145813   2.331   6.308   7.686  1.6047  0.8466 -1.0665
46831SOL    HW245814   2.346   6.192   7.589  1.1464  0.7250 -0.9971
46832SOL     OW45815  11.607   0.938   5.458  0.2055 -0.5056  0.4684
46832SOL    HW145816  11.655   0.986   5.526  0.4272  1.1009 -0.7594
46832SOL    HW245817  11.521   0.980   5.456 -0.0533 -1.0416  0.2585
46833SOL     OW45818  10.376   8.973   7.276  0.6651 -0.5370 -0.5871
46833SOL    HW145819  10.467   8.967   7.304 -0.1447 -1.8625  2.0126
46833SOL    HW245820  10.375   8.930   7.190  2.4269 -0.7450 -0.5457
46834SOL     OW45821   6.209   4.891   4.103  0.1888  0.1327 -0.4848
46834SOL    HW145822   6.268   4.935   4.164  0.6544  0.1587 -0.9492
46834SOL    HW245823   6.225   4.933   4.018 -0.1281 -0.2059 -0.7171
46835SOL     OW45824  11.333   4.211   9.273  0.2539  1.1882  0.2346
46835SOL    HW145825  11.244   4.190   9.244 -0.2449  1.5428  1.4593
46835SOL    HW245826  11.377   4.241   9.194 -0.1916 -0.6062 -0.7539
46836SOL     OW45827   1.179   2.081   5.189  0.4556  0.2908 -0.1095
46836SOL    HW145828   1.127   2.008   5.222  0.1786  0.8329  0.6857
46836SOL    HW245829   1.198   2.133   5.267 -0.8590  2.0252 -0.8755
46837SOL     OW45830   7.425   8.749   6.171 -0.1822  0.5346  0.1577
46837SOL    HW145831   7.397   8.750   6.262 -1.5004 -0.3534 -0.2132
46837SOL    HW245832   7.514   8.783   6.173  0.4854 -1.1048  2.0122
46838SOL     OW45833   1.964   3.803   4.534 -0.2394  0.4935 -0.2868
46838SOL    HW145834   2.029   3.774   4.599 -1.4410  0.2292  0.8380
46838SOL    HW245835   1.967   3.735   4.466  1.3046  0.9726 -0.7426
46839SOL     OW45836  10.632   1.081   5.681 -0.7047  0.0502  0.0756
46839SOL    HW145837  10.586   1.083   5.765 -0.5670 -0.6611  0.1750
46839SOL    HW245838  10.648   0.988   5.665 -1.3670  0.1144 -1.0899
46840SOL     OW45839  11.804   3.876   5.428  0.3256 -0.1870 -0.0239
46840SOL    HW145840  11.808   3.790   5.387 -0.4251  0.1401 -0.8142
46840SOL    HW245841  11.895   3.905   5.434  0.4341 -0.0329 -1.9212
46841SOL     OW45842   2.464   1.184   0.710  0.0970 -0.2600 -0.0519
46841SOL    HW145843   2.426   1.103   0.677 -0.6645  0.6540 -1.5352
46841SOL    HW245844   2.395   1.223   0.764  0.6715 -0.8532  1.1446
46842SOL     OW45845   5.143  11.258   9.052 -0.5431  0.2816 -0.2597
46842SOL    HW145846   5.102  11.183   9.009  1.9157 -1.4894  0.2343
46842SOL    HW245847   5.181  11.309   8.981 -1.2676  0.4757 -0.5197
46843SOL     OW45848   2.742   8.539   7.797  0.2654 -0.2042  0.6468
46843SOL    HW145849   2.659   8.582   7.777  1.4070  2.2014  0.7848
46843SOL    HW245850   2.750   8.470   7.731 -0.0713  2.0271 -1.8859
46844SOL     OW45851  10.518   9.641   7.255  0.1929 -0.2319  0.3404
46844SOL    HW145852  10.533   9.695   7.332  0.7675  0.5514 -0.2999
46844SOL    HW245853  10.605   9.634   7.214 -0.0051 -1.0730  0.0477
46845SOL     OW45854   9.626   7.755   1.020 -0.1232  0.0577  0.3655
46845SOL    HW145855   9.591   7.814   1.087 -2.3143  0.4426 -1.0193
46845SOL    HW245856   9.659   7.813   0.951 -0.4902 -0.3154 -0.1343
46846SOL     OW45857   2.885   5.943   0.680  0.0373  0.0490  0.3844
46846SOL    HW145858   2.950   5.877   0.706 -0.6328 -0.3268  1.1774
46846SOL    HW245859   2.844   5.969   0.763 -2.2020 -1.2029 -0.2232
46847SOL     OW45860   7.551   4.264   6.572  0.6005 -0.1572 -0.1769
46847SOL    HW145861   7.569   4.355   6.594  0.2630 -0.2385  0.4388
46847SOL    HW245862   7.483   4.268   6.504  1.5035  0.0849 -1.0983
46848SOL     OW45863   0.541   8.220   4.533 -0.8125 -0.1145  0.4993
46848SOL    HW145864   0.636   8.217   4.521 -1.0361 -0.3638 -1.7236
46848SOL    HW245865   0.518   8.312   4.518 -0.7630  0.3962  3.1204
46849SOL     OW45866   6.020   5.903   5.097  0.2324  0.0564 -0.3957
46849SOL    HW145867   5.980   5.839   5.157 -0.4514  1.9342  1.2460
46849SOL    HW245868   5.962   5.904   5.021  0.3803 -1.3994 -0.5719
46850SOL     OW45869   9.336   7.226   3.957  0.0278 -0.1629 -0.1009
46850SOL    HW145870   9.350   7.173   3.879 -0.9093  0.4773 -0.7198
46850SOL    HW245871   9.241   7.226   3.970  0.1891 -0.7138  1.3770
46851SOL     OW45872   7.151   5.551  10.909 -0.1425  0.0634  0.2328
46851SOL    HW145873   7.239   5.579  10.933  0.2786  0.2120 -1.3617
46851SOL    HW245874   7.163   5.488  10.839 -1.2796 -0.7339  0.7191
46852SOL     OW45875  10.624   6.566  11.528 -0.3937  0.5543 -0.3613
46852SOL    HW145876  10.669   6.619  11.593 -0.4335  2.4037 -1.7672
46852SOL    HW245877  10.541   6.610  11.512 -0.4900  0.0196 -1.4863
46853SOL     OW45878   7.913  11.283   5.300  0.3738 -0.1797 -0.8955
46853SOL    HW145879   7.821  11.291   5.275 -0.2863 -3.7079 -0.0476
46853SOL    HW245880   7.928  11.355   5.361 -1.9835  0.1183 -0.5971
46854SOL     OW45881  11.463  10.434   4.107 -0.5199  0.0378  0.3129
46854SOL    HW145882  11.513  10.368   4.060  2.0109  1.5186  0.7558
46854SOL    HW245883  11.458  10.400   4.197 -1.5904 -0.7709 -0.0372
46855SOL     OW45884   2.649   4.333   2.678 -0.2999  0.0536  0.6276
46855SOL    HW145885   2.654   4.329   2.582 -2.3706  0.0742  0.4719
46855SOL    HW245886   2.668   4.424   2.700 -0.1688  0.1324  0.1986
46856SOL     OW45887  11.030   0.139   8.654 -0.4146  0.0955  0.4340
46856SOL    HW145888  11.109   0.107   8.696  0.6650  3.2359  1.0901
46856SOL    HW245889  11.003   0.213   8.708 -1.6560  1.4098 -1.8314
46857SOL     OW45890   8.035  11.456   9.615  0.2799  0.0414 -0.3562
46857SOL    HW145891   7.949  11.424   9.588  0.1088  0.3815 -0.2130
46857SOL    HW245892   8.079  11.379   9.651  0.2039 -0.2336 -0.8412
46858SOL     OW45893   7.278   6.274   0.631  0.6254 -0.0918  0.0161
46858SOL    HW145894   7.360   6.234   0.603 -0.0009 -2.1789  0.9744
46858SOL    HW245895   7.294   6.301   0.722  0.4913  0.2593 -0.0611
46859SOL     OW45896   3.962   4.030  10.903 -0.1770  0.1471 -0.1023
46859SOL    HW145897   4.043   3.986  10.877  0.6443  1.6643 -0.2023
46859SOL    HW245898   3.901   4.012  10.831  0.6599  0.5332 -0.9180
46860SOL     OW45899   4.926   0.456   0.868  0.1662  0.1856 -0.2671
46860SOL    HW145900   4.920   0.501   0.784  0.3775  1.0467  0.1629
46860SOL    HW245901   5.014   0.418   0.869  0.1322  0.1020 -0.4735
46861SOL     OW45902   2.568   1.505   8.367 -0.3453  0.2466  0.2603
46861SOL    HW145903   2.616   1.523   8.287 -0.8227  1.4587  0.2309
46861SOL    HW245904   2.549   1.411   8.363 -0.7464  0.3672 -1.2723
46862SOL     OW45905   7.453   2.071   2.429  0.0889  0.2708 -0.0288
46862SOL    HW145906   7.454   2.166   2.438 -1.6481  0.2217  1.5228
46862SOL    HW245907   7.543   2.044   2.445  0.1961  1.5367  1.8299
46863SOL     OW45908  11.268  10.593   8.017  0.2209  0.2026  0.7150
46863SOL    HW145909  11.186  10.547   7.998 -0.2074  0.8452  0.9950
46863SOL    HW245910  11.324  10.574   7.942  0.4025 -1.5711  1.2523
46864SOL     OW45911   8.170  10.111   0.312 -0.0484  0.9651 -0.1579
46864SOL    HW145912   8.125  10.192   0.335 -1.3575 -0.2758  1.9404
46864SOL    HW245913   8.244  10.106   0.373  0.5725  0.9879 -0.8868
46865SOL     OW45914   2.867   6.896   5.889 -0.2283  0.1058 -0.9995
46865SOL    HW145915   2.894   6.904   5.981  0.8990  2.6272 -1.4530
46865SOL    HW245916   2.932   6.839   5.849  0.3905  0.5412 -0.6198
46866SOL     OW45917   4.753   5.916   9.397  0.4319  0.4880  0.6253
46866SOL    HW145918   4.717   5.830   9.422 -0.9585  0.9563  0.3050
46866SOL    HW245919   4.729   5.973   9.470  1.2514  0.6527  0.7782
46867SOL     OW45920   2.826   5.947   0.990  0.3476  0.2980  0.1045
46867SOL    HW145921   2.793   5.858   1.001  0.2637 -0.1355 -3.0020
46867SOL    HW245922   2.753   5.996   0.952  0.9122  1.2901  0.2581
46868SOL     OW45923  11.278   4.192   0.181  0.3060  0.5794  0.5980
46868SOL    HW145924  11.189   4.222   0.199 -0.2168  0.7133 -1.8536
46868SOL    HW245925  11.292   4.121   0.243 -1.7049  0.2320  0.7292
46869SOL     OW45926   2.375   4.618   7.047  0.4580 -0.1140  0.2644
46869SOL    HW145927   2.343   4.533   7.075  0.6647  0.3014  1.8275
46869SOL    HW245928   2.330   4.634   6.964 -0.9992 -0.9303  0.8614
46870SOL     OW45929   9.264  10.808  10.969  0.6010 -0.9086 -0.0194
46870SOL    HW145930   9.202  10.735  10.967  0.8696 -1.1237 -1.3478
46870SOL    HW245931   9.256  10.844  11.057  0.7968 -2.8219  0.8126
46871SOL     OW45932   0.593   2.211   5.443  0.2064  0.2721  0.8792
46871SOL    HW145933   0.590   2.250   5.530 -0.5574 -0.1547  1.0511
46871SOL    HW245934   0.684   2.181   5.434  0.2158  0.0532  1.6426
46872SOL     OW45935   0.587   0.084   8.730 -0.4111  0.2513  0.4365
46872SOL    HW145936   0.682   0.087   8.729 -0.3407 -1.1757  0.6614
46872SOL    HW245937   0.565   0.009   8.785 -1.6675  0.5874  0.4429
46873SOL     OW45938   2.113   8.175   3.455  0.3560 -0.2575  0.4491
46873SOL    HW145939   2.102   8.172   3.550 -0.1864  0.7496  0.4341
46873SOL    HW245940   2.114   8.269   3.434 -2.9710 -0.3683 -0.8835
46874SOL     OW45941   4.132   2.596   4.695 -0.6360 -0.8622  0.1320
46874SOL    HW145942   4.196   2.574   4.762 -0.6028 -0.3003  0.2892
46874SOL    HW245943   4.048   2.594   4.740 -0.6535 -0.8755  0.0985
46875SOL     OW45944  11.648   5.543  11.226  0.2976  0.2660 -0.3719
46875SOL    HW145945  11.694   5.486  11.164  3.0527  2.6407 -0.7186
46875SOL    HW245946  11.653   5.630  11.187  0.0086  1.4613  2.0616
46876SOL     OW45947   5.067   0.911   2.756  0.0909 -0.0173 -0.0924
46876SOL    HW145948   5.124   0.838   2.733  0.5044  0.6783 -1.3288
46876SOL    HW245949   4.986   0.895   2.707 -0.4872 -0.5345  0.9777
46877SOL     OW45950   5.971   7.324  11.733 -0.1158  0.0750 -0.1713
46877SOL    HW145951   5.986   7.388  11.664 -0.0155 -0.2951 -0.4912
46877SOL    HW245952   5.888   7.283  11.710  0.6961 -1.1947 -0.9719
46878SOL     OW45953   1.617   2.671   2.753  0.7346 -0.2271  0.2602
46878SOL    HW145954   1.634   2.741   2.815 -0.8890  0.9657 -0.5376
46878SOL    HW245955   1.693   2.670   2.695  1.8313 -0.7353  1.6739
46879SOL     OW45956   5.465   5.462   1.871  0.5361 -0.0688 -0.2918
46879SOL    HW145957   5.374   5.484   1.894  1.3362  4.5184 -0.6676
46879SOL    HW245958   5.514   5.475   1.952  1.2438  0.7621 -0.8352
46880SOL     OW45959   2.658   9.102   0.616  0.6821 -0.3299  0.1330
46880SOL    HW145960   2.723   9.123   0.549  1.8244  0.3583  1.4035
46880SOL    HW245961   2.664   9.007   0.627  3.6015 -0.0414  2.2074
46881SOL     OW45962   5.184   5.811   5.805 -0.3856  0.2036  0.3449
46881SOL    HW145963   5.195   5.903   5.782  1.4911  0.2140  1.0978
46881SOL    HW245964   5.271   5.772   5.790 -1.1981 -1.5104 -0.1919
46882SOL     OW45965   9.202   7.149   5.218  0.0109  0.4588  0.8738
46882SOL    HW145966   9.255   7.174   5.294  1.1301  0.3530  0.1581
46882SOL    HW245967   9.251   7.077   5.178  0.9728  2.2691 -1.5038
46883SOL     OW45968   9.219   2.406   2.282  0.3774  0.0164  0.1176
46883SOL    HW145969   9.236   2.491   2.242 -1.0664 -0.6957 -2.1830
46883SOL    HW245970   9.306   2.368   2.294  0.9798 -0.0387 -3.2869
46884SOL     OW45971   4.562   8.872   9.736 -0.4429  0.1465  0.0071
46884SOL    HW145972   4.497   8.912   9.677 -0.4331 -0.2365 -0.2654
46884SOL    HW245973   4.630   8.839   9.678  0.4378  1.2978  0.3396
46885SOL     OW45974   3.224   5.808   6.792 -0.1318 -0.2479 -0.3292
46885SOL    HW145975   3.273   5.822   6.711  0.0114  1.2051 -0.0187
46885SOL    HW245976   3.221   5.713   6.802  1.3527 -0.4111 -1.1217
46886SOL     OW45977   0.963   4.501   9.633  0.5866 -0.1686  0.1660
46886SOL    HW145978   0.963   4.413   9.672 -2.2386 -0.0294  0.6759
46886SOL    HW245979   0.902   4.495   9.559 -0.3695  1.5635  0.7616
46887SOL     OW45980  10.126  10.435   7.070 -0.6248  0.6838  0.6050
46887SOL    HW145981  10.087  10.518   7.096 -2.1437  0.3543 -0.5069
46887SOL    HW245982  10.055  10.387   7.027  0.1747 -1.2733  1.3824
46888SOL     OW45983   3.383   4.346   5.278  0.5983 -0.0236  0.3281
46888SOL    HW145984   3.323   4.324   5.349 -1.4625 -0.1900 -1.3909
46888SOL    HW245985   3.470   4.336   5.317 -0.4411 -0.5101  2.6934
46889SOL     OW45986   8.405   0.988   5.843  0.1239  0.4913  0.8637
46889SOL    HW145987   8.410   0.894   5.857  2.0783  0.3934 -0.2007
46889SOL    HW245988   8.366   0.998   5.756 -0.4057  0.6977  1.1167
46890SOL     OW45989   7.922   2.003  10.547 -0.0579 -0.9236  0.3374
46890SOL    HW145990   7.950   2.036  10.633 -0.9119 -1.4287  0.8220
46890SOL    HW245991   7.900   1.911  10.563 -1.5477 -0.6669 -0.1093
46891SOL     OW45992   2.219   6.685   9.701 -0.0005 -0.3503 -0.2917
46891SOL    HW145993   2.212   6.591   9.713  0.2930 -0.1841  1.5113
46891SOL    HW245994   2.246   6.696   9.610  1.5522 -2.0962 -0.1107
46892SOL     OW45995   1.312  10.720   3.878 -0.3842 -0.5186 -0.1767
46892SOL    HW145996   1.230  10.702   3.833 -0.4493 -0.0082 -0.2729
46892SOL    HW245997   1.302  10.678   3.964 -0.1656 -1.6863 -0.7029
46893SOL     OW45998   4.208   5.078  10.934  0.0973  0.1090  0.0208
46893SOL    HW145999   4.203   5.172  10.915 -1.8478 -0.0695 -0.5218
46893SOL    HW246000   4.181   5.071  11.026 -1.2044 -0.0156 -0.3458
46894SOL     OW46001   6.259   8.038   2.828  0.3312  0.0528 -0.5751
46894SOL    HW146002   6.276   7.964   2.887  0.2690 -0.8334 -1.6398
46894SOL    HW246003   6.336   8.042   2.771  0.8944  1.5902  0.2272
46895SOL     OW46004  10.703  10.367   8.272  0.0573 -0.0575  0.0595
46895SOL    HW146005  10.774  10.427   8.254 -0.1436  0.1133 -0.1645
46895SOL    HW246006  10.746  10.288   8.305  0.2754  0.4921  1.1194
46896SOL     OW46007   7.614  10.162  11.576  0.0399 -0.4016 -0.3658
46896SOL    HW146008   7.668  10.087  11.554 -0.5467 -0.6699 -0.9355
46896SOL    HW246009   7.556  10.131  11.646  0.4614 -0.1838  0.0824
46897SOL     OW46010   5.922   7.222   2.565 -0.1351  0.1014  0.4282
46897SOL    HW146011   5.995   7.278   2.593 -0.3806  0.3106  0.6575
46897SOL    HW246012   5.848   7.251   2.618 -0.2504 -0.4814  0.5952
46898SOL     OW46013   7.421  10.782   2.690  0.4344  0.1038  0.4265
46898SOL    HW146014   7.418  10.735   2.774  0.2299 -1.2835 -0.3225
46898SOL    HW246015   7.332  10.816   2.678 -0.1377 -1.5097 -0.1837
46899SOL     OW46016   0.616   6.564   5.209 -0.0532  0.0220  0.2044
46899SOL    HW146017   0.537   6.521   5.177 -0.2069  0.7577 -0.4364
46899SOL    HW246018   0.614   6.551   5.304 -0.6574 -0.4305  0.1329
46900SOL     OW46019   5.446   6.833   3.541  0.0903 -0.2031 -0.2664
46900SOL    HW146020   5.452   6.761   3.479 -1.3096 -0.5105 -0.0812
46900SOL    HW246021   5.481   6.798   3.623  1.0048 -0.1157 -0.6171
46901SOL     OW46022   0.252   5.410   7.334  0.2836 -0.6009  0.4089
46901SOL    HW146023   0.251   5.479   7.268  1.7090 -0.6041  0.3605
46901SOL    HW246024   0.246   5.329   7.284  0.6248 -0.5761  0.3257
46902SOL     OW46025   7.445   0.909   5.860  0.2621  0.2442  0.6003
46902SOL    HW146026   7.495   0.961   5.798 -0.0787 -0.5759 -0.3847
46902SOL    HW246027   7.356   0.907   5.825  0.3372 -1.2577  0.4179
46903SOL     OW46028   9.104   7.477  11.035  0.1932 -0.4097  0.2186
46903SOL    HW146029   9.086   7.400  10.981  0.0156  0.2199 -0.6437
46903SOL    HW246030   9.105   7.550  10.973  0.0632  0.3268  1.0622
46904SOL     OW46031   5.601   1.786   7.325 -0.4578 -0.5188  0.2988
46904SOL    HW146032   5.512   1.816   7.346  0.1113  1.5787 -0.0680
46904SOL    HW246033   5.593   1.752   7.236 -1.3749 -2.7092  1.1614
46905SOL     OW46034   1.539   8.693   1.723  0.3543 -0.2411 -0.2571
46905SOL    HW146035   1.595   8.751   1.775  0.0372 -1.8438  2.0382
46905SOL    HW246036   1.600   8.633   1.681  0.5027 -0.8395  0.7716
46906SOL     OW46037  11.798   5.022   4.300  0.6817 -0.0896  0.2755
46906SOL    HW146038  11.882   5.041   4.340  1.1720 -0.3595 -0.5986
46906SOL    HW246039  11.799   5.069   4.217 -1.1976  2.2408  1.4450
46907SOL     OW46040   5.677   9.243   3.079  0.3328 -0.0207  0.5330
46907SOL    HW146041   5.653   9.320   3.130  0.5456  1.3327 -1.2895
46907SOL    HW246042   5.625   9.250   2.999  0.3528 -1.8000  0.3266
46908SOL     OW46043   9.723   1.423   4.454  0.1036  0.4139  0.5234
46908SOL    HW146044   9.639   1.451   4.418  0.5520 -0.8479 -1.6088
46908SOL    HW246045   9.788   1.476   4.409  0.6014 -0.1833  0.5273
46909SOL     OW46046   4.999   4.220   2.376  0.4846 -0.0686  0.4090
46909SOL    HW146047   5.027   4.310   2.360 -1.8598  0.6496 -0.0118
46909SOL    HW246048   4.905   4.220   2.356  0.0480 -2.1927  2.0943
46910SOL     OW46049   7.600   1.667   8.900 -0.2961  0.2413  0.8143
46910SOL    HW146050   7.637   1.594   8.951  0.3833 -0.9191 -1.2315
46910SOL    HW246051   7.510   1.641   8.882 -0.2990  0.2966  0.7498
46911SOL     OW46052   7.547   3.251   7.708  0.0029 -0.1671  0.2345
46911SOL    HW146053   7.606   3.262   7.783  0.3861  0.4045 -0.1436
46911SOL    HW246054   7.605   3.229   7.636 -0.4517 -1.6544  0.2902
46912SOL     OW46055   7.140   8.453  11.690 -0.4589 -0.0401 -0.4057
46912SOL    HW146056   7.090   8.507  11.751 -0.1675 -0.9421  0.6632
46912SOL    HW246057   7.223   8.436  11.735  0.2417  0.2279 -1.5424
46913SOL     OW46058   1.189   6.713   2.570  0.5546  0.4371  0.0520
46913SOL    HW146059   1.124   6.784   2.574  1.6659  1.5675 -1.1567
46913SOL    HW246060   1.271   6.753   2.597  1.4026 -0.1197 -1.5656
46914SOL     OW46061  10.112   6.674  11.626 -0.3046  0.0250 -0.2498
46914SOL    HW146062  10.033   6.711  11.586 -0.4607  0.5052  0.4732
46914SOL    HW246063  10.115   6.714  11.713  0.5734 -0.2243 -0.1585
46915SOL     OW46064   7.497   3.247   1.854  0.8846 -0.1448  0.8435
46915SOL    HW146065   7.418   3.216   1.898 -0.4767 -1.9698 -2.5354
46915SOL    HW246066   7.567   3.190   1.887 -0.3825 -2.5672 -0.4072
46916SOL     OW46067  10.134   0.684   2.632 -0.5861  0.0019  0.1854
46916SOL    HW146068  10.120   0.597   2.596  0.7577 -0.6245  1.0721
46916SOL    HW246069  10.057   0.735   2.606 -0.3904 -0.8216 -2.1884
46917SOL     OW46070   2.889   3.599   2.678  0.4300  0.2905  0.5301
46917SOL    HW146071   2.947   3.603   2.754  1.5115 -0.0124 -0.2756
46917SOL    HW246072   2.859   3.508   2.676 -1.4869  0.8064  1.9450
46918SOL     OW46073   9.868   3.482  11.800 -0.7138 -0.0461 -0.2552
46918SOL    HW146074   9.886   3.559  11.745 -0.8909  0.7484  0.7690
46918SOL    HW246075   9.855   3.518  11.888  0.8184 -1.4033  0.5675
46919SOL     OW46076  10.752   2.278   1.385 -0.2287  0.0777  0.0547
46919SOL    HW146077  10.689   2.305   1.453  1.2315  1.5456  0.9050
46919SOL    HW246078  10.745   2.346   1.318  1.5598  1.2204  0.9420
46920SOL     OW46079   8.108  11.092  11.262 -0.0275  0.1851 -0.1476
46920SOL    HW146080   8.146  11.005  11.273  0.9468  0.5614 -0.4951
46920SOL    HW246081   8.177  11.153  11.288 -0.9315  0.8612  0.8143
46921SOL     OW46082  11.419   2.015  10.548  0.7177  0.3947  0.1264
46921SOL    HW146083  11.419   1.977  10.636  0.8501 -0.7830 -0.3581
46921SOL    HW246084  11.366   2.094  10.556 -1.2981 -0.9522  0.7465
46922SOL     OW46085   4.058   1.904   9.234 -0.1307 -0.5789  0.0391
46922SOL    HW146086   3.980   1.890   9.181  0.3151  2.1939 -1.5480
46922SOL    HW246087   4.105   1.821   9.230 -1.5746 -1.3755 -1.4216
46923SOL     OW46088  11.641   7.823   9.672 -0.1090  0.4607 -0.1822
46923SOL    HW146089  11.709   7.852   9.732  0.7197 -0.6169 -0.5603
46923SOL    HW246090  11.669   7.735   9.645 -0.6767  0.7290 -1.7872
46924SOL     OW46091   0.633  10.867  10.861 -0.3412  0.1306  0.5930
46924SOL    HW146092   0.603  10.777  10.849 -0.2198  0.2823 -1.0728
46924SOL    HW246093   0.725  10.859  10.887 -0.5483 -0.2340  1.2153
46925SOL     OW46094   1.434   8.385   8.977  0.0853 -0.6454  0.1284
46925SOL    HW146095   1.482   8.391   8.894 -0.6089  1.0307 -0.1950
46925SOL    HW246096   1.344   8.363   8.950 -0.0838 -0.3538  0.4529
46926SOL     OW46097   7.468   2.289   5.941  0.1965  0.0745  0.4770
46926SOL    HW146098   7.491   2.371   5.985 -0.9590  0.5887  0.1489
46926SOL    HW246099   7.400   2.313   5.878  0.1302 -1.0634  0.0907
46927SOL     OW46100   9.897   8.919   8.654 -0.0457 -0.1029 -0.0578
46927SOL    HW146101   9.887   8.830   8.620  1.2512 -0.4349  0.3665
46927SOL    HW246102   9.879   8.975   8.578 -1.2783 -0.7006 -0.2242
46928SOL     OW46103   5.811   5.510   3.253  0.2811 -0.3730  0.0560
46928SOL    HW146104   5.794   5.590   3.202  1.0935  0.7432  1.4491
46928SOL    HW246105   5.746   5.448   3.222 -1.2189  1.2335 -0.1849
46929SOL     OW46106   0.802   0.893   9.442 -0.0434  0.0399 -0.3953
46929SOL    HW146107   0.834   0.934   9.362  0.9094 -2.0381 -1.1542
46929SOL    HW246108   0.714   0.862   9.420 -0.4658  0.9602 -0.0587
46930SOL     OW46109   3.529   2.508   5.497  0.3898  0.4550  0.5083
46930SOL    HW146110   3.595   2.483   5.433  1.0115  1.5497  0.6860
46930SOL    HW246111   3.511   2.428   5.547  0.9045 -0.0721 -0.1360
46931SOL     OW46112  10.746   8.222   4.364  0.3128 -0.2238  0.2188
46931SOL    HW146113  10.673   8.283   4.349 -0.0292 -1.0237 -1.6796
46931SOL    HW246114  10.792   8.258   4.440 -1.4684  0.8566  0.8411
46932SOL     OW46115  11.054   5.340   5.394  0.2096 -0.0331 -0.6439
46932SOL    HW146116  10.960   5.357   5.399  0.0029 -1.0720 -0.7667
46932SOL    HW246117  11.063   5.276   5.324  1.0129  0.0673 -0.6401
46933SOL     OW46118   3.987  10.044   2.425  0.1525 -0.3255 -0.2488
46933SOL    HW146119   3.951   9.957   2.409 -2.1718  0.0645  2.1700
46933SOL    HW246120   3.913  10.096   2.457  1.4550  2.5702 -1.4939
46934SOL     OW46121   4.528   1.637   9.827  0.3534 -0.1703  0.2346
46934SOL    HW146122   4.485   1.706   9.776  0.4186 -0.1494  0.2079
46934SOL    HW246123   4.621   1.646   9.806  0.3616 -0.2702  0.2277
46935SOL     OW46124   7.993   1.911   4.473 -0.1257 -0.2344 -0.4017
46935SOL    HW146125   7.953   1.960   4.545  1.6781  0.6124  0.0771
46935SOL    HW246126   8.030   1.978   4.417 -0.7474 -0.9375 -1.6944
46936SOL     OW46127   3.843   7.516  10.552 -0.2003 -0.1190  0.5139
46936SOL    HW146128   3.856   7.436  10.502 -2.4684  0.9004 -1.9380
46936SOL    HW246129   3.831   7.486  10.642 -0.0922 -2.4501 -0.1937
46937SOL     OW46130   8.282   8.528   1.134 -0.2486  0.0840  0.0163
46937SOL    HW146131   8.339   8.506   1.061  0.0959  0.7303  0.0811
46937SOL    HW246132   8.298   8.621   1.150  0.7623 -0.3518  1.8364
46938SOL     OW46133   7.845   5.490  10.687 -0.1144 -0.1880 -0.0268
46938SOL    HW146134   7.803   5.477  10.772 -0.3608 -0.4187 -0.1826
46938SOL    HW246135   7.938   5.498  10.707 -0.2731  0.7470  0.3664
46939SOL     OW46136   3.692   0.603   7.999 -0.5712 -0.4868 -0.1303
46939SOL    HW146137   3.656   0.581   8.085 -1.4410  0.0870 -0.3348
46939SOL    HW246138   3.730   0.690   8.009 -0.3974 -0.5487 -0.2448
46940SOL     OW46139   6.601   7.883   7.167  0.2592 -0.0678 -0.2965
46940SOL    HW146140   6.548   7.803   7.170  0.0717  0.0860  0.8020
46940SOL    HW246141   6.687   7.856   7.201 -0.5639  0.7243  2.7461
46941SOL     OW46142   4.550   3.117   7.944 -0.3772  0.1328 -0.1235
46941SOL    HW146143   4.460   3.115   7.976 -0.2084  1.2798  0.5109
46941SOL    HW246144   4.597   3.057   8.001 -0.4429  0.7659  0.6199
46942SOL     OW46145   1.038   0.029   9.840 -0.2209  0.4888 -0.3815
46942SOL    HW146146   1.034   0.098   9.906  0.5638  0.1091  0.0860
46942SOL    HW246147   0.972  -0.035   9.869 -1.2682  1.2353 -1.0670
46943SOL     OW46148   1.963   6.074   7.272 -0.0255  0.2706  0.1623
46943SOL    HW146149   1.923   6.154   7.304  2.4345  1.7847 -0.2829
46943SOL    HW246150   1.896   6.007   7.284 -1.9755  2.2640  1.0572
46944SOL     OW46151   6.878   6.073   4.332  0.1600 -0.2801  0.2632
46944SOL    HW146152   6.913   6.051   4.418 -0.1917  0.5949  0.6369
46944SOL    HW246153   6.804   6.013   4.320  0.2554 -0.4520  0.5364
46945SOL     OW46154   4.099  10.221   9.733  0.4753 -0.4107 -0.3064
46945SOL    HW146155   4.040  10.294   9.715  1.1384 -0.0377 -1.0102
46945SOL    HW246156   4.180  10.262   9.763  0.7177 -0.8696 -0.3141
46946SOL     OW46157  11.803   1.215   9.043  0.3870  0.6271 -0.1864
46946SOL    HW146158  11.782   1.275   9.115 -0.2785  0.6969 -0.4317
46946SOL    HW246159  11.722   1.167   9.027  1.0630 -0.7490  0.3713
46947SOL     OW46160   3.260   6.932   8.303 -0.6697  0.3677 -0.3389
46947SOL    HW146161   3.264   7.000   8.370 -1.1924  2.1023 -1.9662
46947SOL    HW246162   3.346   6.889   8.307 -1.2248 -0.6147  2.4006
46948SOL     OW46163   7.149  11.580   0.660  0.3909  0.1020 -0.3716
46948SOL    HW146164   7.240  11.596   0.636  0.9867 -0.9510  1.0953
46948SOL    HW246165   7.138  11.485   0.652  0.1177 -0.0807  1.7234
46949SOL     OW46166   0.326   6.761  11.058 -0.2966 -0.0477  0.4289
46949SOL    HW146167   0.272   6.821  11.109  0.1878  0.3042  0.5302
46949SOL    HW246168   0.413   6.802  11.056 -0.2781 -0.1105 -0.5684
46950SOL     OW46169   1.252   7.108   4.600 -0.2899 -0.0792 -0.5019
46950SOL    HW146170   1.256   7.027   4.651  0.1926  0.4647  0.3509
46950SOL    HW246171   1.322   7.099   4.535 -0.2246 -0.3284 -0.3970
46951SOL     OW46172   6.891   6.988   9.612 -0.2745 -0.6935  0.2334
46951SOL    HW146173   6.951   7.006   9.684 -0.0472  2.6030 -0.6166
46951SOL    HW246174   6.949   6.959   9.540  0.2580  1.3100 -0.2122
46952SOL     OW46175   6.916  10.205   2.673 -0.2598  0.2974 -0.5642
46952SOL    HW146176   6.885  10.258   2.747  0.1863  0.8111 -0.7432
46952SOL    HW246177   7.007  10.230   2.662 -0.3918  0.4074 -1.4533
46953SOL     OW46178  10.511  10.519   5.764 -0.5163  0.0919  0.1150
46953SOL    HW146179  10.417  10.531   5.752 -0.4366 -0.3636 -1.0538
46953SOL    HW246180  10.518  10.465   5.843 -1.2706 -0.4230 -0.1566
46954SOL     OW46181   2.561  11.375   1.208 -0.0063 -0.5695 -0.3301
46954SOL    HW146182   2.564  11.394   1.114 -0.6449 -0.7323 -0.3926
46954SOL    HW246183   2.647  11.338   1.228 -0.2671 -1.6841 -1.1179
46955SOL     OW46184   3.671   1.641   8.358 -0.1005  0.0810 -0.2485
46955SOL    HW146185   3.614   1.691   8.417 -0.3058 -0.1084 -0.2834
46955SOL    HW246186   3.707   1.572   8.414  0.1571  0.2483 -0.2077
46956SOL     OW46187   9.466   5.132   2.880 -0.1089  0.0133 -0.1683
46956SOL    HW146188   9.474   5.225   2.900  1.1034 -0.2810  0.8483
46956SOL    HW246189   9.482   5.088   2.963 -1.0025 -1.1053 -0.5659
46957SOL     OW46190   0.868   3.964  10.369  0.1214  0.5037  0.4097
46957SOL    HW146191   0.911   4.020  10.435 -0.3505  1.2353  0.1128
46957SOL    HW246192   0.785   4.008  10.351  0.4270  0.5541 -0.9928
46958SOL     OW46193  10.207   0.100  10.636 -0.3575 -0.3302 -0.1310
46958SOL    HW146194  10.152   0.040  10.586  1.3261 -1.5834 -0.5576
46958SOL    HW246195  10.289   0.105  10.586  0.2987  0.7119  0.9864
46959SOL     OW46196   7.707   5.004   6.872 -0.4360 -0.1392  0.0361
46959SOL    HW146197   7.770   4.977   6.938 -2.0675 -0.9623  1.3105
46959SOL    HW246198   7.657   5.074   6.914 -0.7658  0.0962 -0.7330
46960SOL     OW46199   1.640   6.090  11.314  0.2863 -0.0247 -0.0553
46960SOL    HW146200   1.550   6.109  11.339  0.9412  2.2442  0.9272
46960SOL    HW246201   1.663   6.160  11.252  0.7983 -1.7299 -1.9050
46961SOL     OW46202   9.316   9.846   2.224  0.3055  0.5953 -0.4823
46961SOL    HW146203   9.354   9.931   2.204  0.3485  0.2327 -2.1393
46961SOL    HW246204   9.349   9.788   2.155 -2.3759  0.0251 -1.4425
46962SOL     OW46205   6.721   4.401  10.935  0.0368  0.0740  0.2884
46962SOL    HW146206   6.700   4.339  11.005 -0.3699  1.0233  1.0336
46962SOL    HW246207   6.813   4.384  10.915  0.2030 -0.1106  1.1693
46963SOL     OW46208   6.046   7.274   5.566  0.1819 -0.2365  0.5274
46963SOL    HW146209   6.035   7.352   5.512 -0.7528 -0.7279 -0.0063
46963SOL    HW246210   5.966   7.267   5.617  0.7656 -0.1755  1.4771
46964SOL     OW46211   7.218   1.783   9.566  1.0567 -0.2276 -0.2799
46964SOL    HW146212   7.217   1.840   9.643 -1.5276 -1.3872  0.6351
46964SOL    HW246213   7.185   1.838   9.495 -0.1812 -0.1731  0.3122
46965SOL     OW46214  10.394   4.017   0.011  0.2679 -0.2945  0.5148
46965SOL    HW146215  10.360   4.023  -0.079  0.0450 -2.0516  0.4434
46965SOL    HW246216  10.457   4.088   0.017  0.4844 -0.2980 -1.1373
46966SOL     OW46217   1.490   7.809   5.945  0.0294 -0.0105  0.3898
46966SOL    HW146218   1.514   7.784   6.034  0.0050  1.0452  0.7050
46966SOL    HW246219   1.398   7.784   5.937 -0.5697  1.7056  1.3795
46967SOL     OW46220   1.788  11.077   5.201 -0.6348  0.0386  0.2384
46967SOL    HW146221   1.762  11.036   5.118 -0.0191  0.0559  0.0340
46967SOL    HW246222   1.744  11.025   5.268 -0.4560 -0.4964 -0.0568
46968SOL     OW46223   5.988   9.151   7.443  0.2481  0.5701 -0.2874
46968SOL    HW146224   5.893   9.139   7.440  0.4576 -1.2999 -0.7693
46968SOL    HW246225   6.023   9.072   7.403  2.0002  1.7669 -1.2146
46969SOL     OW46226   3.483   1.493   4.658 -0.0283 -0.2475 -0.4318
46969SOL    HW146227   3.486   1.401   4.686 -0.3162 -0.9414 -2.5497
46969SOL    HW246228   3.575   1.518   4.648  0.0342 -0.9814 -1.8719
46970SOL     OW46229  10.497   5.802   0.951  0.1697  0.6657 -0.3872
46970SOL    HW146230  10.450   5.752   1.018  1.4129  0.6370  0.4999
46970SOL    HW246231  10.511   5.888   0.991 -0.8520  1.3412 -1.4199
46971SOL     OW46232  11.232   5.747  10.533  0.2219 -0.1896 -0.2208
46971SOL    HW146233  11.319   5.761  10.571  0.0881  0.2917 -0.0836
46971SOL    HW246234  11.206   5.660  10.565  0.1763  0.1387  0.6839
46972SOL     OW46235   8.853   0.995   6.559  0.6471 -0.1156  0.0927
46972SOL    HW146236   8.882   1.026   6.645 -0.8116 -0.6242  0.8075
46972SOL    HW246237   8.766   0.959   6.575 -0.4078  1.3204 -1.9098
46973SOL     OW46238   2.085   0.952   4.112 -0.7135 -0.2195  0.0789
46973SOL    HW146239   2.136   1.033   4.111 -0.0678 -0.5746  1.7985
46973SOL    HW246240   1.996   0.978   4.135 -0.9877  0.2036 -1.3385
46974SOL     OW46241  10.603   2.414  10.679  0.3474 -0.3698 -0.3960
46974SOL    HW146242  10.666   2.477  10.713  0.4967 -0.8460  0.2207
46974SOL    HW246243  10.553   2.387  10.756  0.1757 -0.8780 -0.6858
46975SOL     OW46244   9.249   0.302  10.382 -0.4675  0.3800 -0.4444
46975SOL    HW146245   9.331   0.337  10.347 -1.0752  1.6972 -0.5776
46975SOL    HW246246   9.200   0.274  10.305 -0.3062 -0.0818 -0.3857
46976SOL     OW46247   2.692   8.938   1.191  0.2987 -0.2353 -0.2079
46976SOL    HW146248   2.714   9.006   1.127 -0.4110  0.8913  0.7167
46976SOL    HW246249   2.697   8.857   1.142  0.4666  0.5412 -1.5205
46977SOL     OW46250  10.397   1.101   9.543 -0.1374 -0.6339 -0.0662
46977SOL    HW146251  10.338   1.083   9.617  0.5841 -0.1427  0.6404
46977SOL    HW246252  10.452   1.023   9.537  0.9052  0.0038  0.9875
46978SOL     OW46253   5.811  10.803  10.610  0.4767  0.1549  0.2486
46978SOL    HW146254   5.904  10.798  10.631  0.9242 -1.6061 -1.8170
46978SOL    HW246255   5.782  10.712  10.610 -0.6039  0.4510 -1.7079
46979SOL     OW46256   6.947  10.200   4.254 -0.5114  0.2551 -0.0658
46979SOL    HW146257   6.980  10.136   4.316 -2.1081  1.0250  1.6904
46979SOL    HW246258   6.996  10.280   4.274 -0.5891  0.3419 -0.2150
46980SOL     OW46259   2.827   5.803   3.791 -0.4813 -0.0653 -0.1842
46980SOL    HW146260   2.773   5.751   3.850 -0.9825  1.2784  0.5913
46980SOL    HW246261   2.785   5.795   3.705 -0.7949 -0.5715  0.0175
46981SOL     OW46262   1.042   4.688   4.440  0.3723  0.1322  0.0719
46981SOL    HW146263   1.106   4.714   4.373  1.2754 -0.5971  0.6326
46981SOL    HW246264   1.088   4.699   4.523  1.0479 -3.6147  0.3650
46982SOL     OW46265   6.269   8.298   3.684  0.0479  0.0799 -0.5371
46982SOL    HW146266   6.222   8.313   3.602 -1.4451  0.4455  0.3488
46982SOL    HW246267   6.226   8.355   3.747  0.5362 -0.9048  0.7348
46983SOL     OW46268   7.228   4.440   2.783 -0.0194  0.0206  0.6079
46983SOL    HW146269   7.241   4.391   2.702 -1.4678  0.6100 -0.0215
46983SOL    HW246270   7.273   4.523   2.769  2.0444 -0.8834  1.4983
46984SOL     OW46271   2.162   2.193   3.422  0.3899  0.3642  0.2861
46984SOL    HW146272   2.095   2.235   3.367  1.1319  0.0317 -0.8978
46984SOL    HW246273   2.157   2.100   3.400  0.8134  0.2497  0.6551
46985SOL     OW46274   8.777   1.225   7.098 -0.0631  0.2795 -0.2849
46985SOL    HW146275   8.798   1.293   7.163  0.3497  0.3348 -0.4743
46985SOL    HW246276   8.706   1.264   7.046 -0.9955 -0.0983  0.6589
46986SOL     OW46277  11.362   8.257   1.621 -0.1721 -0.1227  0.4116
46986SOL    HW146278  11.372   8.239   1.527 -1.9927 -1.1896  0.3589
46986SOL    HW246279  11.424   8.198   1.664  1.1193  0.8126 -0.1172
46987SOL     OW46280   0.780   1.920   3.692 -0.2557 -0.1190 -0.5766
46987SOL    HW146281   0.725   1.868   3.635 -1.1769  1.5964 -1.2984
46987SOL    HW246282   0.722   1.986   3.729  1.1061  1.1561 -0.6213
46988SOL     OW46283   1.021   5.729   7.666 -0.7704  0.0736 -0.1069
46988SOL    HW146284   0.985   5.779   7.739  0.3248  1.2625 -0.3445
46988SOL    HW246285   1.044   5.795   7.601  0.9311 -0.6978 -0.3453
46989SOL     OW46286   0.003   9.482   2.466 -0.1812  0.0294  0.1405
46989SOL    HW146287  -0.066   9.548   2.468  0.8333  1.1042  1.0041
46989SOL    HW246288   0.001   9.443   2.553 -1.0649 -1.4471 -0.4934
46990SOL     OW46289   2.215  11.095   3.567  0.2758 -0.5287 -0.2208
46990SOL    HW146290   2.126  11.101   3.602 -0.2001  1.9000 -1.5463
46990SOL    HW246291   2.266  11.155   3.622  0.9331 -1.3293  0.0573
46991SOL     OW46292   2.017   6.681   1.600 -0.0828 -0.2951 -0.4842
46991SOL    HW146293   1.981   6.662   1.513 -1.2184  3.9962 -1.1974
46991SOL    HW246294   2.108   6.704   1.583 -0.0647 -0.3114 -0.4080
46992SOL     OW46295   2.147  11.072   7.755  0.0401 -0.1429 -0.1365
46992SOL    HW146296   2.208  11.082   7.682  0.9255 -1.1968  0.4197
46992SOL    HW246297   2.186  11.003   7.809 -0.7196  0.4278  1.1955
46993SOL     OW46298  11.404   8.080   4.284  0.6402  0.1963  0.4132
46993SOL    HW146299  11.433   8.170   4.302 -0.3767  0.9249 -1.3503
46993SOL    HW246300  11.312   8.080   4.309  0.0745  0.2877 -1.5442
46994SOL     OW46301   5.514   0.242   4.245 -0.3396 -0.0910 -0.0891
46994SOL    HW146302   5.590   0.284   4.204 -0.5181  2.2708  1.7842
46994SOL    HW246303   5.454   0.225   4.173  0.6534  0.9766 -1.2125
46995SOL     OW46304   8.431   6.948   6.740  0.2755  0.1334  0.0723
46995SOL    HW146305   8.513   6.957   6.788 -0.2567  0.8051  0.8755
46995SOL    HW246306   8.409   7.038   6.713 -1.6971  0.4635  2.4239
46996SOL     OW46307   0.740   7.455   8.648 -0.6704 -0.4926  0.2995
46996SOL    HW146308   0.681   7.386   8.618 -0.8261 -0.2109 -0.0587
46996SOL    HW246309   0.723   7.463   8.742 -2.8104  1.0891 -0.1390
46997SOL     OW46310   2.282   6.055   2.945  0.4316  0.3278 -0.3596
46997SOL    HW146311   2.197   6.099   2.944  0.4150  0.3187  0.2649
46997SOL    HW246312   2.273   5.987   3.011  0.9958  0.4730 -0.1254
46998SOL     OW46313   1.070   8.378  11.699  0.0732  0.5546 -0.2201
46998SOL    HW146314   1.022   8.295  11.703 -2.1142  1.5956 -2.2172
46998SOL    HW246315   1.026   8.434  11.764  0.0964  0.8258 -0.4368
46999SOL     OW46316  10.357   4.347   9.225  0.2550  0.0283 -0.1378
46999SOL    HW146317  10.378   4.434   9.190  4.6400 -1.3085 -1.5038
46999SOL    HW246318  10.389   4.349   9.315  0.0324 -0.0734 -0.0557
47000SOL     OW46319   8.924   7.288   4.617  0.4901 -0.1872 -0.2553
47000SOL    HW146320   8.894   7.269   4.528 -0.9646  0.7237  0.0082
47000SOL    HW246321   8.885   7.218   4.670  0.5363 -0.1719 -0.2019
47001SOL     OW46322   7.570   1.518   2.942 -0.2296 -0.2570 -0.1394
47001SOL    HW146323   7.493   1.505   2.887  2.4062 -1.7247 -3.8769
47001SOL    HW246324   7.594   1.610   2.929 -0.8470 -0.0094  0.4077
47002SOL     OW46325   0.873   2.601   9.022 -0.2702  0.0620 -0.0987
47002SOL    HW146326   0.869   2.512   8.988 -1.6986  0.2850 -0.5744
47002SOL    HW246327   0.790   2.641   8.995  1.0404  2.0763 -1.4230
47003SOL     OW46328   4.206   4.457   3.757  0.1304  0.1601  0.2890
47003SOL    HW146329   4.265   4.418   3.821  0.2930  0.7571  0.5065
47003SOL    HW246330   4.152   4.517   3.808  0.1313  0.4935 -0.0967
47004SOL     OW46331   2.304  10.685   0.715  0.0838 -0.6554  0.2134
47004SOL    HW146332   2.382  10.641   0.748  0.0951 -1.0190 -0.2849
47004SOL    HW246333   2.261  10.620   0.660 -0.2895 -0.2816  0.0519
47005SOL     OW46334   2.068   6.744   0.483 -0.0221 -0.2288 -0.2437
47005SOL    HW146335   2.134   6.731   0.415  0.3054  0.8115 -0.1322
47005SOL    HW246336   1.991   6.697   0.450 -0.2299  1.1333 -1.8746
47006SOL     OW46337   8.603   2.413   6.757  0.4107 -0.1201  0.2352
47006SOL    HW146338   8.564   2.329   6.780 -0.6130  0.2867  0.0695
47006SOL    HW246339   8.560   2.477   6.814 -1.2729  0.7278 -1.8282
47007SOL     OW46340   1.552   1.122   3.307  0.3048  0.0759  0.2387
47007SOL    HW146341   1.513   1.039   3.334  0.9804 -0.5956 -0.7706
47007SOL    HW246342   1.596   1.155   3.386 -0.8607  0.0264  0.9334
47008SOL     OW46343   1.928   6.390   1.180 -0.3222 -0.8175  0.2420
47008SOL    HW146344   1.958   6.307   1.144  2.4669 -0.8427  2.3264
47008SOL    HW246345   2.008   6.437   1.203 -1.8536  1.2777  1.6646
47009SOL     OW46346   9.104   9.282   5.267  0.1161  0.0445 -0.0391
47009SOL    HW146347   9.068   9.194   5.261 -1.9480  0.8053  0.2944
47009SOL    HW246348   9.159   9.291   5.189  1.3446 -1.8886  0.5159
47010SOL     OW46349   6.935   4.988   3.625 -0.1259  0.0232  0.3569
47010SOL    HW146350   6.846   5.022   3.615 -0.4097 -0.4496  1.1455
47010SOL    HW246351   6.961   5.015   3.713  0.4201 -0.0559  0.2216
47011SOL     OW46352   5.121   2.898  10.863  0.2565 -0.7292  0.4735
47011SOL    HW146353   5.190   2.952  10.823  0.7308  0.6808  2.9916
47011SOL    HW246354   5.041   2.950  10.851  0.3162 -0.5299  0.9446
47012SOL     OW46355   0.377   8.149   6.851  0.1165 -0.0059 -0.2243
47012SOL    HW146356   0.461   8.193   6.864  0.7147 -0.7361 -1.4409
47012SOL    HW246357   0.393   8.058   6.876 -0.7692  0.1781  1.0812
47013SOL     OW46358   2.532   2.000   6.411 -0.0726  0.3953  0.2050
47013SOL    HW146359   2.499   2.032   6.327  0.6939  1.0883  0.1608
47013SOL    HW246360   2.538   1.905   6.399  0.0300  0.4883 -0.5258
47014SOL     OW46361  10.069   3.554   7.225 -0.6044 -0.3085 -0.4016
47014SOL    HW146362  10.126   3.612   7.276 -0.7511  0.3806 -1.0085
47014SOL    HW246363   9.986   3.602   7.218 -0.4922 -0.2508 -1.5325
47015SOL     OW46364   3.326   9.115   1.645 -0.0751 -0.6784  0.0322
47015SOL    HW146365   3.312   9.202   1.680 -0.7970  0.8866 -3.6376
47015SOL    HW246366   3.249   9.066   1.671 -1.3697  0.8891 -0.6812
47016SOL     OW46367   3.577  10.368   2.506  0.4560 -0.0542  0.2205
47016SOL    HW146368   3.658  10.351   2.458  0.0159 -1.0775 -0.1970
47016SOL    HW246369   3.589  10.455   2.543  0.9138  0.6931 -1.5506
47017SOL     OW46370  10.212   5.822   3.893 -0.2918 -0.1261  0.0453
47017SOL    HW146371  10.223   5.737   3.935 -0.3718 -0.2553 -0.1950
47017SOL    HW246372  10.200   5.802   3.800 -4.5713 -0.1911  0.4234
47018SOL     OW46373  10.250   1.220   9.976  0.6461  0.1913 -0.2976
47018SOL    HW146374  10.244   1.128   9.949  0.8165  0.4420 -1.1915
47018SOL    HW246375  10.343   1.237   9.984  0.7343  0.9047 -2.3364
47019SOL     OW46376   6.038   0.317   1.983  0.0591 -0.3938  0.4886
47019SOL    HW146377   6.005   0.227   1.978  1.2643 -0.8512  0.4257
47019SOL    HW246378   6.000   0.361   1.907 -1.3822 -0.5434  1.0923
47020SOL     OW46379  10.838  11.380  10.323  0.4729  0.3554 -0.4916
47020SOL    HW146380  10.814  11.321  10.395  1.7477  0.7086  0.2588
47020SOL    HW246381  10.919  11.422  10.352  1.2711  0.2015 -2.3045
47021SOL     OW46382   3.331   2.335   1.775 -0.1004 -0.5328  0.5475
47021SOL    HW146383   3.255   2.368   1.822 -1.0857  0.2962 -1.5075
47021SOL    HW246384   3.301   2.252   1.736 -0.8631  0.9497 -2.2747
47022SOL     OW46385   1.802   7.459   5.514  0.1955 -0.0624 -0.0627
47022SOL    HW146386   1.760   7.510   5.445 -0.6353 -1.4088 -0.5940
47022SOL    HW246387   1.749   7.477   5.592  0.1488  0.2097 -0.1567
47023SOL     OW46388   7.240   7.806  10.862 -0.1811  0.2148  0.0552
47023SOL    HW146389   7.287   7.735  10.817  1.9986  0.9484  1.0522
47023SOL    HW246390   7.188   7.847  10.793  0.8235 -0.4944 -1.1685
47024SOL     OW46391   4.733   1.138  11.714  0.1564 -0.4852 -0.0285
47024SOL    HW146392   4.737   1.216  11.659  0.3862 -0.0599  0.5713
47024SOL    HW246393   4.821   1.102  11.712 -0.4046 -1.9054 -1.9177
47025SOL     OW46394   4.155   4.260   8.183 -0.2951  0.0067 -0.5765
47025SOL    HW146395   4.073   4.308   8.192  1.6288  3.6471 -0.6374
47025SOL    HW246396   4.153   4.195   8.254 -2.3292  1.3175  0.6710
47026SOL     OW46397   0.891  11.581   6.755 -0.1936 -0.2619  0.0171
47026SOL    HW146398   0.871  11.644   6.824  0.0001 -2.0824  1.8309
47026SOL    HW246399   0.815  11.522   6.753 -0.2989 -0.0992 -1.5134
47027SOL     OW46400   9.939   3.581   8.535  0.2247 -0.4447  0.2269
47027SOL    HW146401  10.008   3.535   8.488  0.6088 -0.7328  1.0552
47027SOL    HW246402   9.886   3.512   8.575 -0.4763 -0.2229 -0.2990
47028SOL     OW46403   9.537   9.790  11.409  0.1807  0.3003 -0.2801
47028SOL    HW146404   9.545   9.838  11.327 -1.1942 -0.3858 -0.8451
47028SOL    HW246405   9.621   9.744  11.418  0.4321  0.5755 -1.1716
47029SOL     OW46406   5.930   7.104   0.756  0.7161  0.5382 -0.6568
47029SOL    HW146407   5.886   7.089   0.672  0.8989  1.7494 -0.9958
47029SOL    HW246408   5.936   7.018   0.796 -0.1059  0.0557 -1.5298
47030SOL     OW46409   0.017  10.229  10.808 -0.1587  0.0622 -0.0682
47030SOL    HW146410   0.046  10.319  10.823  2.3692 -0.4468 -1.3608
47030SOL    HW246411  -0.041  10.235  10.732  0.4702  0.5523 -0.5236
47031SOL     OW46412   5.989   3.472   0.681 -0.2094 -0.6390 -0.1434
47031SOL    HW146413   5.972   3.518   0.764 -0.5307 -1.4810  0.2780
47031SOL    HW246414   6.083   3.457   0.681  0.5231  2.8855 -1.8599
47032SOL     OW46415   6.706   3.832   1.547 -0.3419  0.3042  0.4033
47032SOL    HW146416   6.772   3.765   1.563 -1.5880 -1.2850 -0.8143
47032SOL    HW246417   6.735   3.876   1.467 -0.2758  0.2687  0.4076
47033SOL     OW46418   3.845   6.377   2.648 -0.0994 -0.1282  0.2430
47033SOL    HW146419   3.814   6.289   2.626  1.7448 -0.4478 -1.3504
47033SOL    HW246420   3.765   6.427   2.668 -1.3447 -1.6443 -0.7444
47034SOL     OW46421   4.906   3.161   0.014 -0.1333 -0.1268 -0.3884
47034SOL    HW146422   4.910   3.091   0.078  1.6819 -0.6964 -1.0713
47034SOL    HW246423   4.965   3.228   0.048 -1.0851  0.6563 -0.2392
47035SOL     OW46424   7.996  10.685  10.562 -0.0467 -0.1391 -0.4018
47035SOL    HW146425   8.068  10.725  10.514  1.4027 -1.5687  0.4800
47035SOL    HW246426   7.970  10.610  10.508  1.1702 -1.3803  0.6534
47036SOL     OW46427   0.683   6.336   2.692 -0.3035 -0.1009  0.4799
47036SOL    HW146428   0.619   6.292   2.636 -1.2868  1.0035  0.6939
47036SOL    HW246429   0.739   6.266   2.725 -1.2721 -1.0657  0.1088
47037SOL     OW46430   8.816   9.206   8.599 -0.6438  0.7627 -0.0306
47037SOL    HW146431   8.825   9.134   8.536 -1.9129  0.9528 -0.4463
47037SOL    HW246432   8.824   9.163   8.685  0.1282  0.3659 -0.2889
47038SOL     OW46433   5.041  10.293   4.027 -0.0263  0.1850  0.6180
47038SOL    HW146434   5.131  10.279   4.054  0.1901  1.5843  0.7333
47038SOL    HW246435   4.998  10.330   4.105  0.0416  2.1850 -0.2372
47039SOL     OW46436   5.944   9.822   8.235  0.2480 -0.1141 -0.1975
47039SOL    HW146437   5.855   9.834   8.268 -0.6020  1.4585 -2.7820
47039SOL    HW246438   5.988   9.771   8.303 -1.8446  1.2857  2.3890
47040SOL     OW46439   5.025   5.259   0.935  0.0525  0.4733 -0.0485
47040SOL    HW146440   5.035   5.354   0.944  0.0312  0.4006  0.8532
47040SOL    HW246441   5.101   5.232   0.885  0.5619  0.8520  0.5004
47041SOL     OW46442   1.780   7.541   3.580  0.0811 -0.0015 -0.0991
47041SOL    HW146443   1.691   7.510   3.564  0.0090  0.6507 -1.1204
47041SOL    HW246444   1.829   7.516   3.501  0.9929 -0.9725  0.7404
47042SOL     OW46445  10.049   2.952  10.127 -0.6881 -0.2420  0.3851
47042SOL    HW146446  10.014   2.972  10.214 -0.0992 -2.6780  1.2593
47042SOL    HW246447  10.112   2.882  10.142  0.5308  0.2676 -1.8537
47043SOL     OW46448   2.818   6.120  10.588  0.7317  0.1363  0.3269
47043SOL    HW146449   2.822   6.025  10.598 -1.2548 -0.1581 -0.9219
47043SOL    HW246450   2.852   6.136  10.500  2.7607  0.8347  1.1791
47044SOL     OW46451   4.120   7.338   4.271  0.3412  0.6543 -0.1228
47044SOL    HW146452   4.152   7.397   4.339  1.5243  0.1902 -0.2473
47044SOL    HW246453   4.106   7.255   4.317 -2.1530  1.2072  0.2355
47045SOL     OW46454   8.685   9.465   3.532 -1.0730  0.0197  0.3465
47045SOL    HW146455   8.636   9.441   3.454 -0.1044  0.8188 -0.5297
47045SOL    HW246456   8.671   9.559   3.542  2.0186  0.7828 -1.2668
47046SOL     OW46457   8.710   8.638  11.378  0.6156  0.1631 -0.2679
47046SOL    HW146458   8.667   8.704  11.431  0.3918 -1.0796  1.1660
47046SOL    HW246459   8.647   8.618  11.308  0.5247  1.1542 -0.4795
47047SOL     OW46460   2.154   6.111   7.820  0.4392  0.5615  0.6682
47047SOL    HW146461   2.132   6.101   7.913  0.8973 -1.3467  0.6068
47047SOL    HW246462   2.134   6.203   7.801  0.8394  1.1628  2.7908
47048SOL     OW46463   7.893   8.702  11.196  0.3024  0.6143 -0.6975
47048SOL    HW146464   7.975   8.724  11.240 -0.1159 -2.0746  1.7809
47048SOL    HW246465   7.897   8.607  11.184 -2.2231  0.4471 -0.8989
47049SOL     OW46466   8.350   9.006  10.612 -0.0606  0.5200  0.3160
47049SOL    HW146467   8.375   8.935  10.553 -2.1958 -0.1261  0.0981
47049SOL    HW246468   8.399   8.988  10.692 -0.3188 -1.0527  0.1651
47050SOL     OW46469   8.255   6.220   3.137  0.5391 -0.6993  0.0192
47050SOL    HW146470   8.284   6.159   3.068 -0.7749 -1.0653 -0.2313
47050SOL    HW246471   8.332   6.274   3.154  1.1839 -1.2297 -1.0612
47051SOL     OW46472   6.088   0.036   9.721 -0.4579 -0.1087 -0.1659
47051SOL    HW146473   5.997   0.007   9.716 -2.0386  3.1079  3.7522
47051SOL    HW246474   6.122  -0.004   9.801  1.0830 -0.0922 -0.7875
47052SOL     OW46475   0.961  10.120   1.693 -0.6180 -0.2934  0.0592
47052SOL    HW146476   1.013  10.128   1.773 -2.3973 -0.6879  1.3313
47052SOL    HW246477   0.963  10.026   1.673  0.5562 -0.0816 -0.9141
47053SOL     OW46478   0.553   1.414   9.745  0.1457 -0.0685 -0.6812
47053SOL    HW146479   0.462   1.421   9.775  0.4336 -0.5473  0.3630
47053SOL    HW246480   0.546   1.390   9.653 -0.7884 -0.5255 -0.5038
47054SOL     OW46481   2.194   9.293  11.816  0.0907  0.1138  0.0986
47054SOL    HW146482   2.250   9.219  11.839 -0.0318  0.0812  0.2932
47054SOL    HW246483   2.172   9.333  11.900  0.1776  0.3876 -0.0088
47055SOL     OW46484   5.519  10.646  10.302 -0.0537  0.7415  0.6453
47055SOL    HW146485   5.550  10.711  10.240  0.3787  0.7997  0.9201
47055SOL    HW246486   5.553  10.674  10.386 -2.5197  1.9442  1.3341
47056SOL     OW46487   8.016   5.215   1.562 -0.0271  0.1466  0.3071
47056SOL    HW146488   8.106   5.235   1.535 -0.1259 -1.8662 -1.7471
47056SOL    HW246489   7.961   5.261   1.499 -0.4046 -0.3230  0.2919
47057SOL     OW46490   6.997   1.379   2.788  0.0169 -0.2627 -0.2399
47057SOL    HW146491   6.935   1.340   2.850  0.7995 -0.8470  0.1796
47057SOL    HW246492   7.083   1.365   2.827  0.3649  1.4821 -0.3048
47058SOL     OW46493   9.293   6.181  10.928  0.3456 -0.0753 -0.8899
47058SOL    HW146494   9.315   6.094  10.962 -1.2269  0.1388  0.8499
47058SOL    HW246495   9.306   6.175  10.834  1.1154 -1.9171 -0.6987
47059SOL     OW46496   5.006   6.909   8.870  0.4054  0.2049  0.4390
47059SOL    HW146497   5.035   6.988   8.915 -1.9052  1.4986 -0.1943
47059SOL    HW246498   4.974   6.851   8.940  0.2142  0.6994  0.7627
47060SOL     OW46499   3.885   1.523   7.808 -0.7329  0.1235 -0.0837
47060SOL    HW146500   3.853   1.608   7.837 -1.3534 -0.7754  2.0798
47060SOL    HW246501   3.969   1.512   7.853 -0.4422 -0.2103 -0.7052
47061SOL     OW46502   5.212   0.974  11.679  0.0192 -0.1435  0.0676
47061SOL    HW146503   5.193   1.046  11.620 -1.2789 -1.5670 -1.3644
47061SOL    HW246504   5.308   0.970  11.682  0.1232  0.0712 -1.8679
47062SOL     OW46505   0.467  11.134   7.987 -0.5756  0.5705  0.3565
47062SOL    HW146506   0.540  11.088   7.947  0.9190  0.9129  2.4815
47062SOL    HW246507   0.449  11.085   8.067 -1.7441  1.3078  0.5745
47063SOL     OW46508   8.442   0.315   0.153  0.4136 -0.8938  0.0476
47063SOL    HW146509   8.377   0.358   0.208  0.0436 -0.6003 -0.6232
47063SOL    HW246510   8.456   0.230   0.195  0.8148 -0.3192  1.1211
47064SOL     OW46511   5.756   1.905   8.149  0.3175 -0.2046  0.2152
47064SOL    HW146512   5.788   1.821   8.183  0.9625 -0.1980 -0.3453
47064SOL    HW246513   5.765   1.966   8.222 -0.5720 -0.7067  0.7731
47065SOL     OW46514   8.897   8.851   4.582 -0.2645 -0.0354 -0.4401
47065SOL    HW146515   8.943   8.824   4.661 -1.1145 -1.8293 -0.4970
47065SOL    HW246516   8.808   8.870   4.612 -0.9728 -2.0388 -1.0943
47066SOL     OW46517   6.691   4.528   0.514  0.2594  0.2807 -0.3543
47066SOL    HW146518   6.729   4.482   0.589 -0.8626  0.9075  0.6274
47066SOL    HW246519   6.617   4.473   0.486  0.0513  0.5560 -0.3541
47067SOL     OW46520   5.188   7.043   3.812  0.3474 -0.2491  0.3654
47067SOL    HW146521   5.207   7.118   3.755  0.2862 -0.4490  0.0815
47067SOL    HW246522   5.264   7.037   3.869 -0.3023  0.9583  1.3961
47068SOL     OW46523   8.867   7.833   8.996 -0.1823  0.0271  0.1819
47068SOL    HW146524   8.785   7.874   9.022  0.4194  0.7814  0.9713
47068SOL    HW246525   8.843   7.772   8.926 -1.4868 -0.1797  0.7778
47069SOL     OW46526   2.561   8.099   5.188 -0.4877  0.7412 -0.4049
47069SOL    HW146527   2.630   8.077   5.126 -0.9339 -0.1684 -0.6039
47069SOL    HW246528   2.592   8.068   5.273 -1.7721 -2.3145 -0.9241
47070SOL     OW46529   7.798   0.337   7.793 -0.0240  1.1015  0.5185
47070SOL    HW146530   7.705   0.349   7.773 -0.5180  0.7290  2.4221
47070SOL    HW246531   7.828   0.423   7.821  0.6566  1.6121 -1.5937
47071SOL     OW46532   2.721  10.227   1.437  0.3170 -0.4828  0.0655
47071SOL    HW146533   2.740  10.244   1.529  2.7031 -1.2082 -0.2064
47071SOL    HW246534   2.807  10.214   1.397 -0.6996 -1.1293 -2.0878
47072SOL     OW46535   8.995  10.941  10.956  0.1553  0.2404  0.0053
47072SOL    HW146536   8.914  10.943  10.906  1.1128  0.6448 -1.5947
47072SOL    HW246537   9.056  10.993  10.905  1.6415 -0.6492  0.8051
47073SOL     OW46538   6.163   4.835   4.663  0.5280 -0.5326  0.4679
47073SOL    HW146539   6.103   4.781   4.613  1.7145 -1.0785 -0.3974
47073SOL    HW246540   6.159   4.800   4.752 -0.3511 -0.6040  0.4135
47074SOL     OW46541   4.218   6.287  10.773 -0.4846 -1.0084 -0.7279
47074SOL    HW146542   4.164   6.366  10.776 -0.2272 -0.7956 -1.4801
47074SOL    HW246543   4.193   6.238  10.852  0.1787  0.3505  0.3686
47075SOL     OW46544  10.323   7.309   6.482 -0.0696  0.8001 -0.4516
47075SOL    HW146545  10.408   7.287   6.520 -1.1820  2.0545  3.1919
47075SOL    HW246546  10.336   7.397   6.444  0.3283  0.8484 -0.2087
47076SOL     OW46547   1.598   9.004   9.430 -0.2647 -1.1025 -0.0667
47076SOL    HW146548   1.682   9.032   9.467 -0.4074 -1.3340  0.4434
47076SOL    HW246549   1.544   8.983   9.506 -1.6654  1.4550 -0.2321
47077SOL     OW46550   1.226   5.802   0.274 -0.3112  0.3828  0.2188
47077SOL    HW146551   1.247   5.895   0.268  0.1103  0.2780  0.0325
47077SOL    HW246552   1.292   5.759   0.220 -2.1810  0.1954 -2.1296
47078SOL     OW46553   6.053   9.605   6.964 -0.5929 -0.2334  0.0881
47078SOL    HW146554   6.142   9.638   6.948 -0.6473 -0.4240 -0.6585
47078SOL    HW246555   5.997   9.681   6.950 -0.4837  0.1439  1.5689
47079SOL     OW46556   4.500   3.341   4.734 -0.3844 -0.4402  0.2308
47079SOL    HW146557   4.585   3.299   4.744 -0.1885 -0.1874 -0.3424
47079SOL    HW246558   4.447   3.305   4.805 -0.0147 -1.1254  0.1697
47080SOL     OW46559   0.498   8.393   6.691 -0.1003  0.9498 -0.3312
47080SOL    HW146560   0.408   8.401   6.723 -0.2752 -1.3317 -0.1057
47080SOL    HW246561   0.550   8.377   6.769  0.0451 -0.7020 -0.7413
47081SOL     OW46562   2.200   1.045   6.495 -0.2484  0.2180  0.1438
47081SOL    HW146563   2.236   1.115   6.550  2.7588 -0.5423 -0.6682
47081SOL    HW246564   2.181   1.087   6.411  1.7690  0.0917 -0.4185
47082SOL     OW46565   5.071   0.985   3.014 -0.6165  0.3316  0.4459
47082SOL    HW146566   5.079   0.951   2.925  0.2803  0.0630  0.6174
47082SOL    HW246567   4.985   0.956   3.044 -0.7978  0.1741 -0.2285
47083SOL     OW46568   9.185  11.319  11.158  0.2159  0.3737 -0.2096
47083SOL    HW146569   9.142  11.280  11.233 -0.9699 -0.1837 -1.1498
47083SOL    HW246570   9.222  11.401  11.191  0.7889 -0.4342  1.2528
47084SOL     OW46571  10.111  10.443   2.648 -0.0512  0.2007 -0.3421
47084SOL    HW146572  10.123  10.378   2.717  0.5794  0.6626 -0.0049
47084SOL    HW246573  10.040  10.499   2.679  0.3468  0.5116  0.0188
47085SOL     OW46574   5.967   0.733   2.031 -0.5026 -0.1427 -0.0330
47085SOL    HW146575   5.940   0.661   2.088  0.1232  0.2800  0.8123
47085SOL    HW246576   6.022   0.788   2.086 -0.8089  0.8868 -0.7261
47086SOL     OW46577   5.732   2.159   5.319 -0.5299 -0.1595  0.2924
47086SOL    HW146578   5.744   2.252   5.297 -2.5765 -0.2868 -1.7256
47086SOL    HW246579   5.679   2.124   5.248  1.7411 -3.4011 -0.0373
47087SOL     OW46580   7.140   6.361   9.413  0.0444  0.4125  0.4867
47087SOL    HW146581   7.049   6.382   9.394  0.1921 -0.7324 -1.7563
47087SOL    HW246582   7.155   6.277   9.371  1.7830 -0.0919  1.9927
47088SOL     OW46583   5.254   4.575   2.219  0.0895 -0.2105 -0.2234
47088SOL    HW146584   5.296   4.657   2.193 -1.0706  0.1260 -1.1120
47088SOL    HW246585   5.160   4.592   2.210 -0.2868 -0.9226  1.7173
47089SOL     OW46586   9.665   5.762   3.248 -0.5784  0.7008  0.1137
47089SOL    HW146587   9.648   5.852   3.220 -0.2843  0.5075 -0.6914
47089SOL    HW246588   9.657   5.710   3.169  2.2847  0.3801 -0.0645
47090SOL     OW46589   1.628   9.706   9.577  0.0829 -0.1602 -0.1263
47090SOL    HW146590   1.594   9.730   9.663 -0.4470 -0.9138 -0.1205
47090SOL    HW246591   1.631   9.611   9.577  1.3940 -0.1367 -0.4511
47091SOL     OW46592   9.005   4.877   1.097 -0.1439  0.1219  0.3088
47091SOL    HW146593   8.915   4.909   1.098 -0.5898 -1.0428  1.7222
47091SOL    HW246594   9.043   4.909   1.179  0.9843  1.2166 -0.6047
47092SOL     OW46595   2.822  10.916   0.143  0.8077 -0.1000  0.0546
47092SOL    HW146596   2.740  10.948   0.180  0.4417  1.0764 -1.6579
47092SOL    HW246597   2.856  10.855   0.209 -0.3950  0.9439  1.7233
47093SOL     OW46598   5.391   8.475  10.429  0.2624 -0.7446  0.7040
47093SOL    HW146599   5.308   8.516  10.405  0.3373 -1.5764 -1.1057
47093SOL    HW246600   5.443   8.547  10.467 -0.8775  0.0120  0.8857
47094SOL     OW46601   4.960   7.864  10.946 -0.7579  0.0392  0.1249
47094SOL    HW146602   5.020   7.933  10.972  0.5492 -0.7108 -0.7655
47094SOL    HW246603   4.878   7.885  10.990  0.4360  0.5471  2.1990
47095SOL     OW46604   4.188   1.582   9.794 -0.1504 -0.3835 -0.4176
47095SOL    HW146605   4.236   1.557   9.715  0.7954  1.7014 -0.5609
47095SOL    HW246606   4.169   1.675   9.782  0.4407  0.1086  2.0408
47096SOL     OW46607   8.197   8.024   3.660  0.2907 -0.1417  0.3001
47096SOL    HW146608   8.163   8.082   3.728  1.5379 -0.5333  1.3065
47096SOL    HW246609   8.214   8.082   3.586 -0.6548  0.3723  0.4728
47097SOL     OW46610  11.543  11.260  11.544 -0.1064 -0.2796  0.3231
47097SOL    HW146611  11.569  11.324  11.610  3.3111 -1.2768  0.1540
47097SOL    HW246612  11.604  11.274  11.471  0.8594 -3.6286  0.2966
47098SOL     OW46613   6.473   3.444   0.306 -0.3213  0.3268  0.4713
47098SOL    HW146614   6.490   3.534   0.337 -1.0004 -0.0080  1.9457
47098SOL    HW246615   6.440   3.455   0.217 -0.9519  1.6088  0.8326
47099SOL     OW46616   3.521   3.157  10.853 -0.1717 -0.1821 -0.4559
47099SOL    HW146617   3.543   3.067  10.829  0.0192 -0.4511  0.6689
47099SOL    HW246618   3.600   3.206  10.833  0.2213 -0.5197  0.2252
47100SOL     OW46619   0.716  10.812   6.988 -0.3264 -0.0344 -0.8228
47100SOL    HW146620   0.658  10.807   6.912 -1.4270 -0.0307  0.0110
47100SOL    HW246621   0.699  10.897   7.027  0.0020 -0.1711 -0.3705
47101SOL     OW46622   9.121   6.294   5.292 -0.2196 -0.2793  0.0990
47101SOL    HW146623   9.131   6.388   5.306 -1.8423 -0.2198  1.1344
47101SOL    HW246624   9.045   6.270   5.345  0.1993 -2.1924 -0.0977
47102SOL     OW46625   7.193   7.550   7.468 -0.3307 -0.0769 -0.0797
47102SOL    HW146626   7.245   7.521   7.543  0.3720 -2.1686 -1.3041
47102SOL    HW246627   7.228   7.501   7.394 -1.3882  1.4989 -1.7008
47103SOL     OW46628   7.078   8.379   7.377 -0.4832  0.1253 -0.4620
47103SOL    HW146629   7.038   8.334   7.452 -0.1533  1.6764  0.6973
47103SOL    HW246630   7.033   8.463   7.374  0.7140  0.7583 -0.9365
47104SOL     OW46631  10.497  10.688   7.698 -0.5288 -0.4319  0.5139
47104SOL    HW146632  10.407  10.666   7.675 -1.5980  5.5359 -3.1309
47104SOL    HW246633  10.550  10.643   7.633 -1.2920 -0.7136  0.0716
47105SOL     OW46634   1.810   9.438  11.532  0.3642 -0.4960 -0.1764
47105SOL    HW146635   1.834   9.504  11.597  1.4316  0.6347 -1.6509
47105SOL    HW246636   1.893   9.398  11.506 -0.0641 -1.0731 -0.6923
47106SOL     OW46637   1.537   8.215   2.010  0.2070 -1.0520 -0.0978
47106SOL    HW146638   1.452   8.227   2.051 -0.2933 -1.4571 -0.9642
47106SOL    HW246639   1.529   8.131   1.963  1.0970 -1.1232 -0.1442
47107SOL     OW46640   7.991  10.868   3.736  0.3892 -0.0845 -0.7666
47107SOL    HW146641   7.996  10.961   3.759  0.5088 -0.0334 -0.9985
47107SOL    HW246642   7.902  10.855   3.705  0.0845 -0.2503  0.1354
47108SOL     OW46643   3.456   6.188   4.809 -0.6415  0.5195  0.2138
47108SOL    HW146644   3.509   6.248   4.863  0.5540 -0.2712 -0.0366
47108SOL    HW246645   3.452   6.107   4.860 -0.7266  0.2345 -0.2425
47109SOL     OW46646   2.655   0.145   7.307  0.3281  0.2759 -0.4855
47109SOL    HW146647   2.619   0.117   7.223 -1.3795  1.2932 -0.1386
47109SOL    HW246648   2.737   0.188   7.285  1.1733 -1.6552 -1.3564
47110SOL     OW46649   6.528   7.827   7.574 -0.7342 -0.2194  0.4614
47110SOL    HW146650   6.618   7.794   7.563  0.1335  1.8513  0.8266
47110SOL    HW246651   6.512   7.821   7.668 -0.5521  0.3919  0.5361
47111SOL     OW46652   6.805   7.302  10.996 -0.1342 -0.5098  0.2137
47111SOL    HW146653   6.764   7.275  11.077  0.4245 -0.3056  0.5716
47111SOL    HW246654   6.798   7.398  10.996 -0.2938 -0.5198 -0.0669
47112SOL     OW46655   1.210   8.479   3.569 -0.3333 -0.4125  0.4834
47112SOL    HW146656   1.288   8.499   3.621  0.0312 -0.8513  0.1082
47112SOL    HW246657   1.195   8.558   3.517 -1.5094  0.5910  2.2117
47113SOL     OW46658   0.243   5.034   5.992  0.4522 -0.2902  0.1884
47113SOL    HW146659   0.242   4.949   5.947  1.8731 -0.2133 -0.0572
47113SOL    HW246660   0.180   5.088   5.944  1.6339 -0.3449 -1.5026
47114SOL     OW46661  10.511   9.439   7.645  0.1594  0.0039 -0.3794
47114SOL    HW146662  10.587   9.492   7.671  0.1750  1.5982 -3.2132
47114SOL    HW246663  10.436   9.484   7.684  0.3804  0.7204 -0.7630
47115SOL     OW46664  11.218   9.672   8.138 -0.0098 -0.2113  0.3325
47115SOL    HW146665  11.167   9.713   8.208 -0.7958  0.0653 -0.3915
47115SOL    HW246666  11.198   9.723   8.060  1.0481 -0.3643 -0.0634
47116SOL     OW46667   1.203  11.326   5.744 -0.1032  0.6097 -0.1177
47116SOL    HW146668   1.291  11.346   5.711  0.6142 -1.6166  0.2147
47116SOL    HW246669   1.149  11.319   5.666  0.5543 -0.1681 -0.5305
47117SOL     OW46670   3.254   5.367  11.589 -0.1176  0.2065  0.2888
47117SOL    HW146671   3.166   5.384  11.623  0.3614  0.2656  1.5553
47117SOL    HW246672   3.276   5.446  11.538 -0.1522  0.9204  1.3533
47118SOL     OW46673   1.667   1.290   3.092 -0.7627  0.6731 -0.5729
47118SOL    HW146674   1.585   1.338   3.077  0.0565  1.8646 -1.3981
47118SOL    HW246675   1.641   1.214   3.144 -2.3734  1.0935 -0.7127
47119SOL     OW46676  10.202   3.350   6.911  0.2450 -0.1230 -0.1846
47119SOL    HW146677  10.213   3.353   7.006 -0.3644 -1.6180 -0.0361
47119SOL    HW246678  10.107   3.354   6.898  0.1329 -2.4628 -0.5425
47120SOL     OW46679   9.823   9.497   8.019  0.2328  0.0518 -0.2549
47120SOL    HW146680   9.740   9.502   7.972  0.7315  0.0788 -1.1547
47120SOL    HW246681   9.880   9.445   7.962  1.1727  0.9505 -0.1685
47121SOL     OW46682   7.751   6.586  11.422  0.1692  0.3553 -0.1626
47121SOL    HW146683   7.662   6.609  11.451 -0.3719  0.4552 -1.8112
47121SOL    HW246684   7.752   6.607  11.329  1.5176 -0.8661 -0.4536
47122SOL     OW46685   4.358   5.403   7.948  0.0001  0.2933 -0.3480
47122SOL    HW146686   4.423   5.387   7.880  0.3372  1.6176 -0.3693
47122SOL    HW246687   4.365   5.497   7.967  0.7627 -0.2220  2.3947
47123SOL     OW46688   0.876   8.907   2.443  0.0588 -0.1493 -0.0713
47123SOL    HW146689   0.792   8.862   2.444 -0.6670  1.1485 -0.6499
47123SOL    HW246690   0.878   8.953   2.359  0.4189  1.4981  0.7899
47124SOL     OW46691   4.652   0.538   4.363  0.1218 -0.0507 -0.5308
47124SOL    HW146692   4.571   0.527   4.413 -0.2945 -1.5584 -1.4641
47124SOL    HW246693   4.722   0.528   4.427 -0.4099 -0.9408 -0.0732
47125SOL     OW46694   0.522   3.658   7.252 -0.4696 -0.9125 -0.2371
47125SOL    HW146695   0.467   3.672   7.329  2.0834  0.6207  1.4676
47125SOL    HW246696   0.483   3.715   7.185  0.9099  3.1823  2.0396
47126SOL     OW46697   0.443   5.219   4.278  0.6659 -0.6599 -0.3417
47126SOL    HW146698   0.532   5.184   4.287  0.6227 -0.4523  1.0373
47126SOL    HW246699   0.436   5.242   4.185  0.6171 -4.4933 -1.4742
47127SOL     OW46700   9.207   7.966   3.869 -0.7683  0.1942  0.4023
47127SOL    HW146701   9.250   8.025   3.806 -1.0774  0.7316  0.6893
47127SOL    HW246702   9.186   8.022   3.943 -0.5231 -0.4138  0.9347
47128SOL     OW46703   2.942   8.484   0.291 -0.5176  0.4006 -0.4218
47128SOL    HW146704   2.862   8.483   0.343 -0.4448 -0.3350 -0.3242
47128SOL    HW246705   2.916   8.455   0.204 -0.4340  0.5886 -0.5120
47129SOL     OW46706   9.245   2.725   2.627  0.9787 -0.5713 -1.0219
47129SOL    HW146707   9.286   2.738   2.542 -1.6056  0.3495 -2.2371
47129SOL    HW246708   9.169   2.670   2.609  0.1033  0.0416  0.5648
47130SOL     OW46709   6.710   7.129   3.501 -0.3526  0.0580  0.1919
47130SOL    HW146710   6.714   7.034   3.512 -2.0105  0.0770  1.1620
47130SOL    HW246711   6.619   7.152   3.516  0.2884  1.9935  1.5206
47131SOL     OW46712   4.491   2.975  10.041  0.3089  0.0333  0.4180
47131SOL    HW146713   4.549   2.983   9.965  0.7948 -0.8138  0.6846
47131SOL    HW246714   4.424   2.913  10.013  0.5493 -0.3629  0.7131
47132SOL     OW46715   8.385   9.517   3.954  0.3969  0.0406  0.4140
47132SOL    HW146716   8.402   9.591   3.895  1.6664  0.0206  0.7211
47132SOL    HW246717   8.469   9.471   3.958 -0.6269 -2.0118 -0.5710
47133SOL     OW46718   4.878   3.974   0.605  0.0414  0.7851  0.3906
47133SOL    HW146719   4.908   3.973   0.696  1.5568  0.0898 -0.0931
47133SOL    HW246720   4.933   3.909   0.560 -1.5085  0.2205 -0.7759
47134SOL     OW46721   1.496   3.482   4.461 -0.4609  0.2533 -0.2158
47134SOL    HW146722   1.556   3.410   4.483 -2.7244 -1.6928 -0.0002
47134SOL    HW246723   1.478   3.525   4.544 -2.7127 -1.9942  0.5898
47135SOL     OW46724  11.541   2.385   5.127 -0.4087 -0.5219  0.3397
47135SOL    HW146725  11.490   2.466   5.127 -1.9914 -1.4728  0.6104
47135SOL    HW246726  11.534   2.352   5.038 -0.2326 -0.6368  0.3670
47136SOL     OW46727   5.389   2.112   3.665  0.1067 -0.1639 -0.4900
47136SOL    HW146728   5.391   2.200   3.627  3.6831  0.3526  0.5632
47136SOL    HW246729   5.417   2.124   3.756 -2.0081 -2.1415  0.5361
47137SOL     OW46730   0.255   4.613  10.204 -0.1124  0.2420 -0.3366
47137SOL    HW146731   0.298   4.696  10.223 -2.6545  1.5570 -0.0231
47137SOL    HW246732   0.307   4.548  10.251  1.6455  1.6693 -0.1887
47138SOL     OW46733   0.358   9.192   4.586  0.4634 -0.1412  0.4943
47138SOL    HW146734   0.311   9.198   4.503  0.8597  0.5136  0.3054
47138SOL    HW246735   0.444   9.157   4.562  0.5370 -0.0646  0.6466
47139SOL     OW46736   3.090   6.909   2.296 -0.3293  0.0407  0.4031
47139SOL    HW146737   3.140   6.886   2.375 -0.3069  0.9092  0.6459
47139SOL    HW246738   3.143   6.975   2.253  0.8725 -2.0767 -1.6310
47140SOL     OW46739  11.775   0.142   5.089  0.1584  0.0046 -0.1512
47140SOL    HW146740  11.859   0.127   5.046  0.7225  1.6604  0.2891
47140SOL    HW246741  11.724   0.064   5.069  1.1968 -0.2923 -1.8547
47141SOL     OW46742   6.570   9.665   0.492 -0.3578 -0.1496  0.8543
47141SOL    HW146743   6.541   9.716   0.416 -0.7707 -0.0579  1.0710
47141SOL    HW246744   6.543   9.575   0.471 -1.0946 -0.0175  1.1904
47142SOL     OW46745   2.836   3.325   7.414 -0.2364 -0.9171  0.1503
47142SOL    HW146746   2.892   3.386   7.365  0.4224 -2.0087 -0.5201
47142SOL    HW246747   2.771   3.296   7.349 -0.2359 -1.2988  0.3214
47143SOL     OW46748  11.140  10.908   0.114  0.4506 -0.2032 -0.3675
47143SOL    HW146749  11.090  10.828   0.132 -0.2328  0.2304 -0.3170
47143SOL    HW246750  11.096  10.976   0.164 -0.6380  0.7444 -2.4815
47144SOL     OW46751   0.589   4.095  11.182  0.3537  0.4170 -0.0517
47144SOL    HW146752   0.668   4.092  11.127  0.8780 -0.9105  0.7424
47144SOL    HW246753   0.617   4.138  11.263  0.2456  0.0043  0.2066
47145SOL     OW46754  11.663  10.385   1.969 -0.0508 -0.3875 -0.2148
47145SOL    HW146755  11.700  10.402   1.883 -2.3542  2.9021 -0.7571
47145SOL    HW246756  11.605  10.310   1.957 -2.2868  1.5115 -2.3357
47146SOL     OW46757   3.309   8.442   2.560 -0.3788  0.5908 -0.9338
47146SOL    HW146758   3.247   8.504   2.598 -0.6570  0.4978 -1.2355
47146SOL    HW246759   3.394   8.470   2.594 -0.6869  0.1219  0.2785
47147SOL     OW46760  10.829   6.023   1.451  0.0596 -0.1994  0.3068
47147SOL    HW146761  10.744   6.002   1.490  0.0071 -0.7028 -0.0690
47147SOL    HW246762  10.814   6.019   1.357  0.3206  0.4612  0.2309
47148SOL     OW46763  11.012   5.566  10.817  0.1647  0.6018 -0.3737
47148SOL    HW146764  11.035   5.618  10.894  2.0789 -0.8466  0.1253
47148SOL    HW246765  10.959   5.494  10.852  0.7229  0.1466 -0.4552
47149SOL     OW46766  11.408   0.876   2.530 -0.3377 -0.5279  0.9117
47149SOL    HW146767  11.443   0.866   2.441  0.0683 -0.6293  1.0786
47149SOL    HW246768  11.425   0.968   2.552  0.6886 -0.8021  1.3420
47150SOL     OW46769   9.489   4.689   3.393  0.2696  0.0245 -0.0716
47150SOL    HW146770   9.405   4.676   3.350  0.0834  1.0981 -0.0657
47150SOL    HW246771   9.512   4.781   3.374  1.1086 -0.0541  0.4940
47151SOL     OW46772   6.017   4.693   0.570  0.0005  0.5118 -0.2027
47151SOL    HW146773   5.951   4.747   0.613 -0.0891 -1.2202  2.0602
47151SOL    HW246774   6.101   4.728   0.601 -0.0062  0.3499  0.0035
47152SOL     OW46775   1.522  10.816  10.992 -0.3830 -0.1166  0.2330
47152SOL    HW146776   1.523  10.722  11.013  1.7944 -0.5102 -1.3022
47152SOL    HW246777   1.604  10.850  11.028 -1.1308  1.2262  0.7433
47153SOL     OW46778   7.968  10.525   9.489  0.1402 -0.2380 -0.8672
47153SOL    HW146779   7.894  10.498   9.435 -0.5054  2.1000 -1.2693
47153SOL    HW246780   8.015  10.588   9.435  0.3154  1.0516  0.7191
47154SOL     OW46781   5.708   5.158   9.978 -0.6045 -0.3511  0.1743
47154SOL    HW146782   5.801   5.144   9.958 -0.8034 -0.8843 -0.4015
47154SOL    HW246783   5.709   5.211  10.058  0.1888 -0.6587  0.3814
47155SOL     OW46784  11.527   7.765   7.257  0.2274  0.3003 -0.1038
47155SOL    HW146785  11.537   7.859   7.271 -1.6437  0.5931 -0.5007
47155SOL    HW246786  11.542   7.726   7.344  0.6435  0.9792  0.1377
47156SOL     OW46787   6.852  10.355   2.867 -0.1097 -0.1873 -0.2749
47156SOL    HW146788   6.757  10.359   2.878 -0.1043 -1.2436  0.2709
47156SOL    HW246789   6.879  10.447   2.859 -1.2582  0.0831 -1.3232
47157SOL     OW46790  10.928  10.904   3.495  0.2664 -0.2690 -0.6180
47157SOL    HW146791  10.958  10.836   3.556  1.2789 -0.3230 -1.1467
47157SOL    HW246792  10.915  10.981   3.550  0.5194 -0.4978 -0.2307
47158SOL     OW46793  10.089   8.193   5.651  0.0188 -0.0983 -0.0396
47158SOL    HW146794  10.032   8.118   5.640  0.4260 -0.5148  0.6517
47158SOL    HW246795  10.125   8.184   5.739  1.5011 -0.0951 -0.6173
47159SOL     OW46796   8.756   5.401   5.651  0.2560  0.1549  0.0573
47159SOL    HW146797   8.660   5.409   5.651  0.2444  0.0158 -0.0435
47159SOL    HW246798   8.776   5.359   5.734 -0.0730 -3.3420 -1.4666
47160SOL     OW46799   9.167  11.209   7.190 -0.2724 -0.0315  0.7212
47160SOL    HW146800   9.137  11.122   7.215 -1.5680 -0.0544 -0.8062
47160SOL    HW246801   9.262  11.200   7.179 -0.3506 -1.1601  0.8715
47161SOL     OW46802   4.576  10.687  10.874  0.4553  0.1808 -0.4151
47161SOL    HW146803   4.609  10.773  10.847 -0.4873  0.5185 -0.5599
47161SOL    HW246804   4.649  10.627  10.860  0.8525  0.8154 -1.1419
47162SOL     OW46805  11.659   3.511   2.745  0.0568  0.2833 -0.2566
47162SOL    HW146806  11.716   3.586   2.761 -1.9911  1.6172  1.2557
47162SOL    HW246807  11.625   3.525   2.656  1.0890  0.1241 -0.6907
47163SOL     OW46808   2.724   1.594  10.492 -0.1759  0.4962 -0.4988
47163SOL    HW146809   2.664   1.626  10.560 -0.3328 -0.2785 -0.2687
47163SOL    HW246810   2.812   1.612  10.527 -0.2488 -0.2643  0.0970
47164SOL     OW46811   7.818   6.888   5.425 -0.5015  0.1066  0.6746
47164SOL    HW146812   7.820   6.796   5.449 -1.5913 -0.2618 -0.5215
47164SOL    HW246813   7.900   6.903   5.379 -0.3836 -0.2978  0.7509
47165SOL     OW46814  10.501   5.621   1.433  0.2462 -0.0115 -0.0441
47165SOL    HW146815  10.583   5.579   1.409  0.1488  0.7156 -1.7455
47165SOL    HW246816  10.524   5.679   1.506  0.5796 -2.1149  1.6422
47166SOL     OW46817   3.556  11.289   2.541 -0.7000 -0.5369  0.4093
47166SOL    HW146818   3.634  11.325   2.583 -0.7796  0.6242 -0.3955
47166SOL    HW246819   3.569  11.195   2.543 -0.0373 -0.4414  1.7396
47167SOL     OW46820   2.692   4.226   9.134  0.0246 -0.3164 -0.3211
47167SOL    HW146821   2.777   4.185   9.119  0.2210 -0.5712  1.2974
47167SOL    HW246822   2.629   4.157   9.114  0.2324 -0.4573 -0.5033
47168SOL     OW46823   8.222  11.038   0.126  0.1505 -0.6898  0.4727
47168SOL    HW146824   8.303  10.988   0.117  0.9205  0.3750  1.2767
47168SOL    HW246825   8.245  11.126   0.098 -1.0559 -0.6410 -0.4423
47169SOL     OW46826   4.206   1.508   5.631 -0.0199  0.3568 -0.0266
47169SOL    HW146827   4.238   1.525   5.542  1.1750 -0.7328  0.1471
47169SOL    HW246828   4.111   1.516   5.625  0.0600  0.5606 -1.3405
47170SOL     OW46829   3.595   1.825   4.872  0.2762 -0.3829  0.3054
47170SOL    HW146830   3.649   1.790   4.801  0.6219 -0.6756  0.7043
47170SOL    HW246831   3.575   1.748   4.927 -1.2550 -0.4446 -0.2872
47171SOL     OW46832   1.231   9.889  11.440  0.0640 -0.0635  0.4428
47171SOL    HW146833   1.199   9.947  11.371 -2.6452 -0.2442  1.4235
47171SOL    HW246834   1.187   9.805  11.422  1.7877 -1.0444  0.6253
47172SOL     OW46835   9.789   6.658  11.357  0.0990  0.1456 -0.3491
47172SOL    HW146836   9.700   6.627  11.373  0.2590  0.8898  2.4028
47172SOL    HW246837   9.828   6.589  11.302 -1.4554 -1.3468  0.3144
47173SOL     OW46838   0.485   5.160   5.878  0.1675 -0.1493 -0.1229
47173SOL    HW146839   0.488   5.213   5.957 -0.3417  0.4796 -0.5174
47173SOL    HW246840   0.419   5.092   5.897  0.1973 -0.1266  0.0655
47174SOL     OW46841   5.539   5.139   7.486  0.4656  0.1569 -0.1863
47174SOL    HW146842   5.603   5.194   7.440  1.4773  1.7744  2.8927
47174SOL    HW246843   5.458   5.189   7.482  1.0337  1.3001  1.3359
47175SOL     OW46844   5.225   7.924   3.622 -0.3099 -0.1146  0.2794
47175SOL    HW146845   5.188   7.901   3.536  3.3919 -1.3960 -1.1804
47175SOL    HW246846   5.207   7.848   3.677  0.9969 -1.2188 -0.7479
47176SOL     OW46847   7.796   5.932   9.262 -0.3123 -0.0224 -0.1922
47176SOL    HW146848   7.855   5.970   9.197 -1.2117  1.4135 -0.2193
47176SOL    HW246849   7.838   5.952   9.346 -0.3462  0.2754 -0.2439
47177SOL     OW46850   5.167   5.323   4.116  0.4474 -0.0624 -0.1040
47177SOL    HW146851   5.147   5.369   4.034  0.0853 -2.4646 -1.4451
47177SOL    HW246852   5.125   5.238   4.107  2.3945 -1.2964  1.5723
47178SOL     OW46853   5.328   0.452  11.239 -0.1251 -0.5253 -0.1047
47178SOL    HW146854   5.263   0.404  11.290  0.4267 -1.5952 -0.3822
47178SOL    HW246855   5.315   0.544  11.263 -0.4434 -0.9235  1.3150
47179SOL     OW46856   4.085  11.707   6.828  0.1679  0.6747 -0.0687
47179SOL    HW146857   4.089  11.648   6.752 -0.7406  1.2501 -0.5760
47179SOL    HW246858   4.025  11.665   6.889  0.6779  0.3534  0.2275
47180SOL     OW46859   3.302   9.510   9.917 -0.4416  0.5694 -0.1912
47180SOL    HW146860   3.379   9.523   9.862 -1.2401  0.1473 -1.4730
47180SOL    HW246861   3.335   9.464   9.994  0.2684 -1.8896 -1.8225
47181SOL     OW46862   1.530   8.189   6.547  0.1221 -0.2793  0.0345
47181SOL    HW146863   1.495   8.267   6.503 -2.1071  0.3001  2.6059
47181SOL    HW246864   1.476   8.117   6.515  1.3909 -0.6318 -1.4179
47182SOL     OW46865   6.913   7.494   2.323  0.2265 -0.3626  0.4499
47182SOL    HW146866   6.945   7.442   2.248 -1.3540 -0.8911  0.1160
47182SOL    HW246867   6.830   7.453   2.347 -1.4512  2.4083 -0.2451
47183SOL     OW46868   3.094   4.827   0.347  0.2400 -0.4622 -0.3528
47183SOL    HW146869   3.017   4.845   0.293 -0.1760  1.0507  0.6903
47183SOL    HW246870   3.064   4.762   0.410 -0.6415  1.1352  0.9388
47184SOL     OW46871   5.205  11.801   1.311  0.0873 -0.3278  0.5102
47184SOL    HW146872   5.286  11.780   1.356  1.4960  0.6642 -1.4316
47184SOL    HW246873   5.211  11.895   1.293 -1.9222 -0.0291  1.0772
47185SOL     OW46874   6.542   5.435   5.875  0.0831  0.2325  0.0783
47185SOL    HW146875   6.560   5.495   5.803 -1.4079  2.2524  1.2772
47185SOL    HW246876   6.616   5.374   5.875  1.8797  2.2911 -0.9970
47186SOL     OW46877   9.493   6.129   2.300  0.4231  0.1477 -0.2028
47186SOL    HW146878   9.532   6.214   2.322  0.0449 -0.1449  1.7579
47186SOL    HW246879   9.556   6.088   2.241  0.5612  1.8129 -1.2682
47187SOL     OW46880   8.426   5.038   3.923 -0.0043  0.3131 -0.2951
47187SOL    HW146881   8.508   5.042   3.873  0.5399  0.9893  0.6242
47187SOL    HW246882   8.450   4.993   4.004 -0.8462 -0.6423 -0.5575
47188SOL     OW46883   2.500  10.650   5.115 -0.1826 -0.4361  0.3532
47188SOL    HW146884   2.499  10.655   5.210 -0.3576 -2.8576  0.5403
47188SOL    HW246885   2.544  10.730   5.087  2.8320 -1.1277  2.6108
47189SOL     OW46886   1.312  11.325   9.282  0.0888  0.4653 -0.3370
47189SOL    HW146887   1.238  11.322   9.343  0.4144 -2.2045  0.0818
47189SOL    HW246888   1.285  11.386   9.214 -1.3659  1.5693  1.1479
47190SOL     OW46889   5.562   3.945   4.021 -0.1410 -0.1315  0.5790
47190SOL    HW146890   5.584   4.025   3.974 -1.2323 -0.1187  0.0684
47190SOL    HW246891   5.637   3.887   4.007  0.1368  0.3682 -0.0288
47191SOL     OW46892   4.904   0.278   3.097  0.8515 -0.0004 -0.2504
47191SOL    HW146893   4.826   0.258   3.044 -0.5671  2.4331  0.7645
47191SOL    HW246894   4.910   0.206   3.159 -1.4088  0.3447  0.4684
47192SOL     OW46895   6.329   0.669   2.103  0.3213 -0.0384  0.1603
47192SOL    HW146896   6.269   0.735   2.137 -0.1231  0.1161 -0.8693
47192SOL    HW246897   6.297   0.587   2.141 -1.9230 -0.2782 -1.9840
47193SOL     OW46898  11.078   6.128   5.819  0.6334 -0.2078 -0.0390
47193SOL    HW146899  11.086   6.033   5.831  0.1727 -0.1026  1.3018
47193SOL    HW246900  11.000   6.152   5.868  0.0057  0.7094 -1.4104
47194SOL     OW46901  10.801   8.666   0.512 -0.3228  1.1547 -0.3566
47194SOL    HW146902  10.861   8.716   0.567  0.9905  0.4992 -1.1518
47194SOL    HW246903  10.740   8.731   0.477  1.3472  2.2620 -1.3743
47195SOL     OW46904   6.251   5.851   3.010  0.0053 -0.4939  0.3038
47195SOL    HW146905   6.319   5.844   3.077 -0.2615 -0.7468  0.5508
47195SOL    HW246906   6.169   5.858   3.059 -0.0740  0.7793  0.0239
47196SOL     OW46907   7.115   7.192   6.085 -0.1863  0.3380 -0.4135
47196SOL    HW146908   7.160   7.108   6.078  0.3272  0.6108 -0.3848
47196SOL    HW246909   7.148   7.244   6.011  1.6559  1.5220  1.1478
47197SOL     OW46910   7.680   5.414   0.695 -0.1009  0.8419  0.2085
47197SOL    HW146911   7.690   5.508   0.685  0.1911  0.6090 -2.3727
47197SOL    HW246912   7.763   5.377   0.665 -0.8104 -0.2748 -0.4860
47198SOL     OW46913   8.272   0.683   8.458 -0.2048  0.8092 -0.2238
47198SOL    HW146914   8.244   0.592   8.446 -0.6435  0.8439  0.4791
47198SOL    HW246915   8.192   0.730   8.480  0.2697  1.0276  1.1921
47199SOL     OW46916   5.508  10.993   0.004  0.1288  0.2613  0.2578
47199SOL    HW146917   5.523  11.086   0.022  2.0149 -0.0328  0.4441
47199SOL    HW246918   5.495  10.989  -0.091  0.2632  0.6923  0.2189
47200SOL     OW46919   8.553   2.986   6.821  0.6283 -0.0632 -0.3719
47200SOL    HW146920   8.549   3.062   6.762  2.6511  0.6106  0.2807
47200SOL    HW246921   8.639   2.947   6.804  0.0615 -1.5649  0.1030
47201SOL     OW46922  11.579   5.431   6.898  0.3448 -0.1513  0.0609
47201SOL    HW146923  11.662   5.462   6.933  0.7945 -1.0570 -0.1778
47201SOL    HW246924  11.524   5.415   6.975 -0.2979  2.2250  0.1734
47202SOL     OW46925  10.228   6.477   6.928  0.0056 -0.6915  0.3480
47202SOL    HW146926  10.267   6.483   7.015 -0.5025 -1.1604  0.6146
47202SOL    HW246927  10.225   6.568   6.897 -0.1757 -0.4773  0.9774
47203SOL     OW46928   6.269   6.198   2.021 -0.2138  0.6669  0.0487
47203SOL    HW146929   6.208   6.125   2.011  0.9986 -0.4553  0.5361
47203SOL    HW246930   6.242   6.261   1.954  0.3401 -1.3851 -2.2550
47204SOL     OW46931   0.673   7.511   6.006  0.7227  0.7224 -0.6135
47204SOL    HW146932   0.648   7.430   6.050  0.5876  1.2643  0.3394
47204SOL    HW246933   0.747   7.487   5.951  0.7193 -0.0316 -0.3004
47205SOL     OW46934   4.043   6.817   5.870 -0.0535 -0.5103 -0.3349
47205SOL    HW146935   4.122   6.866   5.890  0.2659 -1.0344 -0.2990
47205SOL    HW246936   3.994   6.815   5.952  0.1223 -0.5900 -0.2301
47206SOL     OW46937   5.976   1.826   0.828 -0.4928 -0.3775  0.7740
47206SOL    HW146938   5.969   1.853   0.919 -0.5747 -1.3778  1.0713
47206SOL    HW246939   6.070   1.823   0.810 -0.3807  4.0583 -0.5020
47207SOL     OW46940   8.741   2.328   7.050  0.1675  0.5039  0.6873
47207SOL    HW146941   8.703   2.320   6.963 -0.2137 -0.5520  0.9290
47207SOL    HW246942   8.832   2.301   7.039 -0.0497 -0.2775  0.7213
47208SOL     OW46943   6.260   4.126   5.852 -0.0303  0.0337  0.5668
47208SOL    HW146944   6.312   4.093   5.925 -1.3773 -0.7942  1.1860
47208SOL    HW246945   6.292   4.077   5.776  1.5530  1.0825  0.5096
47209SOL     OW46946   8.302   0.600   2.700 -0.4540  0.2124 -0.0785
47209SOL    HW146947   8.331   0.567   2.614 -0.3742  0.3166 -0.0914
47209SOL    HW246948   8.262   0.524   2.742  0.4317 -0.1155  0.2082
47210SOL     OW46949   5.091  11.507   6.965 -0.0390  0.1813 -0.5577
47210SOL    HW146950   5.069  11.456   6.887 -1.7208 -1.7778  1.0724
47210SOL    HW246951   5.169  11.463   7.000 -1.1905 -1.0569  0.5687
47211SOL     OW46952  11.498  11.004   6.366 -0.0389 -0.0151  0.7840
47211SOL    HW146953  11.461  10.966   6.445 -2.2693 -0.1551 -0.2557
47211SOL    HW246954  11.575  10.950   6.346 -0.2741 -0.8372  2.0544
47212SOL     OW46955   8.731   2.898   9.752 -0.5178  0.2543  0.3022
47212SOL    HW146956   8.773   2.871   9.834  0.1466 -0.7855 -0.3624
47212SOL    HW246957   8.704   2.989   9.768  1.5313  0.8061  0.9439
47213SOL     OW46958   8.190  10.418   3.662 -0.4213  0.3155  0.3520
47213SOL    HW146959   8.202  10.513   3.657  0.3974  0.1748 -0.6841
47213SOL    HW246960   8.242  10.384   3.590 -1.2361 -0.8844  0.3117
47214SOL     OW46961   3.845   3.538  10.010 -0.4574 -0.6864  0.3368
47214SOL    HW146962   3.799   3.498   9.936  0.6439 -0.7121 -0.3531
47214SOL    HW246963   3.778   3.549  10.077 -1.3107 -1.3765 -0.3843
47215SOL     OW46964  10.633   4.326   2.686  0.3129 -0.3419  0.0092
47215SOL    HW146965  10.617   4.327   2.780  0.0763 -0.7141 -0.0271
47215SOL    HW246966  10.712   4.379   2.674  1.8175 -2.3228  0.6763
47216SOL     OW46967   9.879  11.289   7.093 -0.2125 -0.0739 -0.5325
47216SOL    HW146968   9.792  11.283   7.053 -0.6029  0.2975  0.2155
47216SOL    HW246969   9.903  11.199   7.113 -0.3459 -0.1946 -0.9079
47217SOL     OW46970   4.328   7.297   3.651 -0.1555 -0.5148  0.6577
47217SOL    HW146971   4.374   7.258   3.576  0.0358  1.5138 -0.3392
47217SOL    HW246972   4.235   7.285   3.631 -0.1189  0.6229 -0.2710
47218SOL     OW46973  11.098   9.702   8.481  0.1249 -0.1564  0.5955
47218SOL    HW146974  11.068   9.779   8.434  0.6289 -1.1859 -1.5699
47218SOL    HW246975  11.181   9.729   8.521 -0.5205  0.8673  1.2791
47219SOL     OW46976   9.626   0.578   4.609  0.3762 -0.2394  0.0676
47219SOL    HW146977   9.714   0.606   4.634  0.8662  0.1459 -1.9245
47219SOL    HW246978   9.577   0.579   4.691  1.9284  0.6455  1.0467
47220SOL     OW46979  10.280  11.134   8.007  0.5485 -0.0797 -0.0938
47220SOL    HW146980  10.285  11.226   8.032 -0.1942  0.0858 -0.5304
47220SOL    HW246981  10.230  11.093   8.078 -1.1088  0.2953 -0.9832
47221SOL     OW46982   7.010   7.921  11.064  0.7259 -0.2990  0.4473
47221SOL    HW146983   7.040   7.854  11.125  0.7354  0.1899  0.9946
47221SOL    HW246984   7.090   7.964  11.035  0.7173 -0.5021  0.1247
47222SOL     OW46985   7.496   8.973   3.006 -0.1070 -0.1485 -0.0257
47222SOL    HW146986   7.515   9.052   2.954  1.8064 -0.2765  0.4008
47222SOL    HW246987   7.410   8.944   2.975 -0.6501  1.8375 -0.5123
47223SOL     OW46988   9.578   8.896   4.168 -0.5612  0.5134  0.0105
47223SOL    HW146989   9.633   8.917   4.244 -0.4639 -0.6183  0.2662
47223SOL    HW246990   9.636   8.849   4.109 -1.3795 -1.2512  0.5587
47224SOL     OW46991   9.194  10.873   4.187  0.3442  0.5188  0.0354
47224SOL    HW146992   9.267  10.857   4.247  1.0307 -0.8740 -1.1015
47224SOL    HW246993   9.205  10.808   4.117 -2.9662 -0.9406  0.6814
47225SOL     OW46994   5.056   0.706   5.844  0.0839  0.0627 -0.3976
47225SOL    HW146995   5.003   0.630   5.821  0.1417  0.0013 -0.3271
47225SOL    HW246996   5.048   0.713   5.939  0.1286  0.1070 -0.3971
47226SOL     OW46997   8.141  11.114   3.809  0.3194  0.6424  0.4591
47226SOL    HW146998   8.121  11.081   3.896 -1.7054  1.6599  0.4371
47226SOL    HW246999   8.202  11.050   3.772  0.8960 -0.0117  2.4546
47227SOL     OW47000   3.861   9.092   8.213 -0.5398  0.2726 -0.0313
47227SOL    HW147001   3.931   9.041   8.170  0.1733  2.1972 -1.3270
47227SOL    HW247002   3.885   9.183   8.195 -1.4489  1.1162  2.6697
47228SOL     OW47003   2.337   5.380   3.387  0.5304  0.7751 -0.6632
47228SOL    HW147004   2.243   5.377   3.400  0.3350  0.3913 -2.0019
47228SOL    HW247005   2.366   5.459   3.434 -0.3741  0.6345  0.1431
47229SOL     OW47006   1.737   8.918   4.156  0.0260  0.1137  0.0912
47229SOL    HW147007   1.730   8.855   4.228  3.3739 -0.2308  0.2405
47229SOL    HW247008   1.776   8.868   4.084  0.0777  1.3473 -0.7752
47230SOL     OW47009  10.825   9.213   6.376  0.5061 -0.8921  1.0422
47230SOL    HW147010  10.900   9.270   6.395 -1.4447  3.0256 -1.4896
47230SOL    HW247011  10.852   9.162   6.300  1.2302 -0.9108  1.3059
47231SOL     OW47012   5.743   6.685   5.686 -0.2460  0.4051 -0.1182
47231SOL    HW147013   5.764   6.692   5.780  0.1201 -1.2491 -0.0453
47231SOL    HW247014   5.790   6.758   5.646  1.0727  0.0879  0.7737
47232SOL     OW47015   6.931   7.695  10.734  0.9875 -0.3462  0.3721
47232SOL    HW147016   6.973   7.609  10.731 -0.4389 -1.1021  0.8563
47232SOL    HW247017   6.857   7.686  10.673  1.0589  0.6779  0.1280
47233SOL     OW47018   8.072  10.157   8.841  0.1044 -0.0835  0.4324
47233SOL    HW147019   8.090  10.184   8.931 -0.1219  2.5616 -0.2596
47233SOL    HW247020   8.009  10.220   8.808 -0.0165 -1.1411 -1.5375
47234SOL     OW47021   5.369   2.426   0.539 -0.1627 -0.2263  0.0239
47234SOL    HW147022   5.384   2.374   0.459 -1.5577  1.1483 -1.1942
47234SOL    HW247023   5.322   2.503   0.509  0.8997  1.2537  1.9444
47235SOL     OW47024   5.308   6.803   0.435  0.1332 -0.0830  0.1522
47235SOL    HW147025   5.309   6.709   0.422 -0.3015 -0.2970  1.5377
47235SOL    HW247026   5.226   6.832   0.395  0.6964 -0.1419 -1.0915
47236SOL     OW47027   7.444   2.813   0.016  0.0486 -0.3415 -0.4585
47236SOL    HW147028   7.405   2.891   0.057 -2.6494 -1.5678 -0.4135
47236SOL    HW247029   7.538   2.831   0.014 -0.4184  2.7144 -0.0950
47237SOL     OW47030   7.540  10.673   8.099  0.7154 -0.1305 -0.0654
47237SOL    HW147031   7.632  10.670   8.074  1.0615 -1.8522  1.2325
47237SOL    HW247032   7.538  10.722   8.181  0.5090 -0.2090 -0.0200
47238SOL     OW47033   3.458   0.505   5.144 -0.2598 -0.3827  0.2737
47238SOL    HW147034   3.422   0.458   5.219  0.5352 -0.0151  0.9092
47238SOL    HW247035   3.548   0.473   5.137  0.3639  1.1608  0.8545
47239SOL     OW47036   8.607   1.654   4.589 -0.2915 -0.7250  0.0784
47239SOL    HW147037   8.691   1.692   4.562 -0.1219 -1.9183 -1.1994
47239SOL    HW247038   8.617   1.560   4.573 -0.9129 -1.2893  2.5487
47240SOL     OW47039   0.082   5.116   7.208  0.0740 -0.1139 -0.2072
47240SOL    HW147040   0.022   5.173   7.256  0.7640  0.7421 -0.3391
47240SOL    HW247041   0.029   5.080   7.138 -0.2328  0.8513 -0.4908
47241SOL     OW47042   3.096   2.942   2.843  0.2430  0.0483 -0.3539
47241SOL    HW147043   3.073   2.954   2.936 -0.7403  0.4889 -0.6391
47241SOL    HW247044   3.037   2.874   2.812  0.3533  0.1282 -0.7435
47242SOL     OW47045  10.391   5.893   6.008  0.1394  0.4033 -0.3313
47242SOL    HW147046  10.314   5.866   5.958  0.5239 -1.0731 -0.1825
47242SOL    HW247047  10.357   5.914   6.095 -0.0633 -0.6094 -0.1543
47243SOL     OW47048   9.776   3.588   1.328 -0.4443 -0.3106 -0.0429
47243SOL    HW147049   9.758   3.677   1.358  0.6002 -0.4039  0.9522
47243SOL    HW247050   9.707   3.570   1.264 -0.6368  1.2318 -0.3237
47244SOL     OW47051  11.562   5.315  11.332 -0.5004 -0.1327 -0.0867
47244SOL    HW147052  11.603   5.256  11.269 -1.6259 -0.3911 -0.5977
47244SOL    HW247053  11.584   5.403  11.299 -0.8809 -0.2644 -0.7135
47245SOL     OW47054   9.353   7.930   9.104 -0.1006  0.6624 -0.3214
47245SOL    HW147055   9.382   7.847   9.141 -0.6501  0.7490  0.3262
47245SOL    HW247056   9.258   7.921   9.095 -0.1677  1.2249 -0.2292
47246SOL     OW47057   4.080   2.678   2.203 -0.2356  0.3297 -0.3259
47246SOL    HW147058   4.052   2.755   2.153  1.3539  1.7352  0.8067
47246SOL    HW247059   4.144   2.634   2.146 -0.4392  0.3864 -0.5992
47247SOL     OW47060  11.286   3.840   6.347  0.0965  0.1044  0.0835
47247SOL    HW147061  11.330   3.759   6.321 -0.1784  0.1790 -0.6388
47247SOL    HW247062  11.275   3.888   6.265  1.1891  1.3432  0.6256
47248SOL     OW47063  11.125   3.494   5.549  0.4213 -0.0435  0.3761
47248SOL    HW147064  11.048   3.466   5.500  0.4045 -0.3989  0.6039
47248SOL    HW247065  11.169   3.556   5.491  1.0379 -1.3352 -0.6167
47249SOL     OW47066  11.002  10.647   0.562  0.7166 -0.4447  0.0145
47249SOL    HW147067  10.910  10.630   0.583  0.7151  0.1016  0.4787
47249SOL    HW247068  11.001  10.733   0.521  0.6529 -1.6940 -2.7895
47250SOL     OW47069   4.673   4.710   4.087  0.0442  0.7924 -0.3798
47250SOL    HW147070   4.667   4.803   4.068 -1.7864  0.8451  0.2992
47250SOL    HW247071   4.731   4.704   4.163  0.2417  1.3516 -0.4847
47251SOL     OW47072   6.219   4.065   6.660 -0.3154 -0.0187 -1.0762
47251SOL    HW147073   6.278   3.990   6.649 -0.5854 -0.3397 -0.4256
47251SOL    HW247074   6.132   4.030   6.638 -0.8433 -0.6315  1.5904
47252SOL     OW47075   4.590   0.047   8.566 -0.0643  0.1359  0.1157
47252SOL    HW147076   4.558  -0.026   8.513  0.6872  0.7019 -1.1696
47252SOL    HW247077   4.667   0.078   8.520  1.4362 -0.1730  2.2792
47253SOL     OW47078   6.574   8.382   2.587 -0.3830 -0.5052  0.0797
47253SOL    HW147079   6.511   8.440   2.545  0.1333  0.1206  0.1366
47253SOL    HW247080   6.656   8.432   2.586  0.2557 -1.5373 -0.5275
47254SOL     OW47081   5.252   8.389   4.452  0.2473 -0.4519 -0.1383
47254SOL    HW147082   5.185   8.324   4.473 -0.3823  0.2426  0.0382
47254SOL    HW247083   5.308   8.346   4.387 -0.2914 -1.0870 -0.1903
47255SOL     OW47084   4.109   9.145   5.783  0.0438 -0.2172 -0.1216
47255SOL    HW147085   4.180   9.106   5.733  0.1609  1.9214 -1.8091
47255SOL    HW247086   4.114   9.239   5.762 -1.5978  0.3820  1.8495
47256SOL     OW47087   4.098   8.775   0.283 -0.6307 -0.1550  0.2348
47256SOL    HW147088   4.156   8.810   0.350 -1.6220  0.9252  0.5560
47256SOL    HW247089   4.157   8.738   0.217  0.4036  0.6225  0.7037
47257SOL     OW47090   3.657   2.147   9.588 -0.1621  0.3920  0.0405
47257SOL    HW147091   3.713   2.069   9.582 -1.0577 -0.5804  2.8206
47257SOL    HW247092   3.692   2.206   9.522  1.4995 -1.7807 -1.1620
47258SOL     OW47093   8.738   3.430   2.603  0.3125 -0.0358  0.2495
47258SOL    HW147094   8.708   3.430   2.694  2.2696 -1.1283  0.9486
47258SOL    HW247095   8.833   3.434   2.609  0.4745  0.1841 -1.7786
47259SOL     OW47096   6.775  11.510   8.376 -0.1090  0.4940  0.1824
47259SOL    HW147097   6.683  11.526   8.355 -0.0845  0.5435  0.1101
47259SOL    HW247098   6.819  11.592   8.352  0.0041  0.3560 -0.0947
47260SOL     OW47099   6.174   3.251   7.830  0.3967 -0.0510  0.0801
47260SOL    HW147100   6.223   3.328   7.801 -0.3919 -0.2883 -2.0700
47260SOL    HW247101   6.229   3.212   7.899  1.8466  1.2146 -0.2952
47261SOL     OW47102  10.844   5.247   9.189  0.3371  0.0627 -0.1870
47261SOL    HW147103  10.783   5.308   9.229  0.3891 -0.4585  0.6986
47261SOL    HW247104  10.871   5.189   9.260 -0.7129 -1.8395 -1.2501
47262SOL     OW47105   0.325  11.690   0.382 -0.4300  0.4639 -0.1689
47262SOL    HW147106   0.350  11.622   0.320 -0.3210  0.2910  0.0642
47262SOL    HW247107   0.408  11.727   0.412 -0.4644  0.1641  0.2987
47263SOL     OW47108   4.660   7.812   7.334 -0.0933  0.0615 -0.2606
47263SOL    HW147109   4.698   7.782   7.417 -0.3828  4.1486  1.5860
47263SOL    HW247110   4.726   7.872   7.298 -1.0246  0.2449 -1.7293
47264SOL     OW47111   0.486   2.324  10.165  0.2296 -0.3805  0.4556
47264SOL    HW147112   0.422   2.383  10.125  0.1942 -0.8949 -0.2601
47264SOL    HW247113   0.542   2.296  10.092  1.7125  0.5861  1.1641
47265SOL     OW47114   9.849  10.294  11.388 -0.5765  0.0541  0.0435
47265SOL    HW147115   9.795  10.341  11.324  1.1935  0.0379 -1.5652
47265SOL    HW247116   9.888  10.363  11.442 -0.0774  0.2606 -0.5729
47266SOL     OW47117   6.772   8.475   1.079 -0.2449 -0.1822  0.0603
47266SOL    HW147118   6.863   8.489   1.104 -0.3183 -0.4090  0.4769
47266SOL    HW247119   6.738   8.562   1.060  0.5694 -0.2609 -1.9723
47267SOL     OW47120   8.509   8.169  10.661  0.7851  0.2937 -0.7647
47267SOL    HW147121   8.488   8.259  10.685 -2.5593 -0.2264 -1.2393
47267SOL    HW247122   8.486   8.162  10.569 -3.9796 -2.0492  0.2188
47268SOL     OW47123   9.081  11.069  10.266  0.3557  0.3390  0.0563
47268SOL    HW147124   9.041  10.983  10.257  1.3637 -0.4139  2.2548
47268SOL    HW247125   9.007  11.130  10.264 -0.8550 -0.9027  2.5006
47269SOL     OW47126   4.607   1.993  10.884  0.2755 -0.2533  0.3023
47269SOL    HW147127   4.567   2.068  10.929 -1.4677 -0.3149 -1.0444
47269SOL    HW247128   4.696   1.989  10.920 -0.8795 -0.1732  3.5305
47270SOL     OW47129   2.078  10.302   4.164 -0.7197  0.0263 -0.9200
47270SOL    HW147130   2.065  10.208   4.173  3.5395 -0.7194 -0.3465
47270SOL    HW247131   2.084  10.334   4.254  1.7618 -0.0033 -0.9979
47271SOL     OW47132   5.890   9.707  10.844  0.1071 -0.2572 -0.0752
47271SOL    HW147133   5.822   9.770  10.820 -1.3560 -1.8083 -0.2313
47271SOL    HW247134   5.904   9.721  10.938 -0.0876  0.3821 -0.1367
47272SOL     OW47135  11.784   7.276   4.713 -0.3142  0.4895  0.5743
47272SOL    HW147136  11.760   7.183   4.711 -1.9383  0.8808  0.5264
47272SOL    HW247137  11.701   7.323   4.698  0.5823  1.9375 -0.0955
47273SOL     OW47138  10.502   9.307   6.604 -0.3428 -0.0726  0.3497
47273SOL    HW147139  10.522   9.257   6.683  0.9822  0.1931  0.2104
47273SOL    HW247140  10.516   9.245   6.532 -1.3556 -0.2598  0.3090
47274SOL     OW47141   6.962   6.503   0.755 -0.1381 -0.6147  0.1661
47274SOL    HW147142   6.876   6.535   0.784 -0.0787  2.3648 -2.3438
47274SOL    HW247143   7.012   6.490   0.835 -2.4916 -1.1303  1.6329
47275SOL     OW47144  10.632   1.753   2.840 -0.2769  0.0207  0.6819
47275SOL    HW147145  10.650   1.788   2.753  0.9229 -0.7610  0.5948
47275SOL    HW247146  10.598   1.828   2.889 -0.6509  0.5495 -0.3584
47276SOL     OW47147   9.821   9.675   4.287 -0.0854 -0.2680  0.1232
47276SOL    HW147148   9.844   9.756   4.333 -0.9137 -0.5012  0.9921
47276SOL    HW247149   9.904   9.637   4.260  0.3999  0.0572  1.1328
47277SOL     OW47150   6.690   8.818  10.925 -0.1517 -0.0343 -0.4050
47277SOL    HW147151   6.706   8.836  10.832  0.4373  0.9896 -0.1159
47277SOL    HW247152   6.775   8.831  10.967 -1.0608  2.9334  0.7795
47278SOL     OW47153  10.111  10.989   3.047  0.1647  0.2213  0.0385
47278SOL    HW147154  10.180  10.964   2.986 -0.6295  1.4248 -1.4457
47278SOL    HW247155  10.060  10.909   3.060  0.1224  0.0206 -1.2188
47279SOL     OW47156  11.740   2.174   5.832  0.1036 -0.0451  0.1145
47279SOL    HW147157  11.718   2.228   5.756  0.3970  1.1923  0.8828
47279SOL    HW247158  11.830   2.200   5.855 -0.7066  1.2296  2.1702
47280SOL     OW47159   8.465   8.914  10.823 -0.1042  0.0635  0.4174
47280SOL    HW147160   8.399   8.849  10.848 -1.1843  0.5234 -1.1089
47280SOL    HW247161   8.544   8.862  10.805 -0.2839 -0.5756  1.3744
47281SOL     OW47162  11.111   3.991   0.953  0.4074 -0.3328 -0.2915
47281SOL    HW147163  11.199   3.992   0.989  0.8407 -1.2310 -1.2644
47281SOL    HW247164  11.110   3.915   0.894 -0.7254  0.1852 -0.9795
47282SOL     OW47165  10.413   7.971   9.176 -0.5951 -0.4181 -0.0538
47282SOL    HW147166  10.370   8.057   9.182 -1.5790 -0.9766  1.3919
47282SOL    HW247167  10.473   7.970   9.251 -0.9075 -1.1658  0.1842
47283SOL     OW47168   9.289   9.562   4.601 -0.3843 -0.5644 -0.1134
47283SOL    HW147169   9.379   9.576   4.631 -0.5740  0.0348  0.2021
47283SOL    HW247170   9.295   9.555   4.506 -0.0449 -0.1512 -0.1242
47284SOL     OW47171   2.774  10.201  10.931 -0.6108  0.0186  0.0981
47284SOL    HW147172   2.680  10.183  10.924 -0.7899  0.3895  1.3678
47284SOL    HW247173   2.785  10.239  11.018  0.8776 -0.9544  0.3752
47285SOL     OW47174   2.982   7.469   0.457 -0.6688 -0.3724 -1.1161
47285SOL    HW147175   2.972   7.387   0.506  1.5098 -0.4956 -0.7925
47285SOL    HW247176   2.895   7.484   0.419 -1.6626 -1.7849  0.4119
47286SOL     OW47177  11.776   2.161   9.446 -0.9604 -0.4696  0.5220
47286SOL    HW147178  11.771   2.129   9.356  1.7022 -0.7127  0.3769
47286SOL    HW247179  11.782   2.256   9.438 -0.8620 -0.4817  0.4492
47287SOL     OW47180   9.320   8.659   0.284  0.1849  0.1232  0.8567
47287SOL    HW147181   9.401   8.687   0.242 -0.5853  0.7112 -0.3206
47287SOL    HW247182   9.318   8.564   0.271  0.8087  0.0744  1.1195
47288SOL     OW47183   8.563   4.195  10.341 -0.4329  0.0788 -0.1351
47288SOL    HW147184   8.599   4.158  10.421  1.7961 -0.8025 -1.4467
47288SOL    HW247185   8.548   4.120  10.284 -3.1192  0.5684 -0.2061
47289SOL     OW47186   6.337   1.806   2.139 -0.5615  0.4798 -0.1121
47289SOL    HW147187   6.375   1.723   2.112  0.4420  1.0095 -0.3896
47289SOL    HW247188   6.346   1.807   2.234 -1.9111 -0.3463  0.0469
47290SOL     OW47189  10.964   2.006   0.740 -0.4024 -0.1233 -0.2840
47290SOL    HW147190  10.944   2.053   0.821  0.8216  0.8479 -0.5258
47290SOL    HW247191  10.878   1.984   0.703 -1.0342  2.1029 -0.2634
47291SOL     OW47192  11.160   4.747   4.211  0.2636 -0.0112 -0.2348
47291SOL    HW147193  11.236   4.691   4.229 -0.7249 -0.8556  1.4931
47291SOL    HW247194  11.195   4.815   4.153  2.3102 -0.4881  0.3304
47292SOL     OW47195   4.699   5.595   4.942 -0.0791  0.5052  0.2041
47292SOL    HW147196   4.660   5.612   4.856 -2.1383 -0.3818  0.9004
47292SOL    HW247197   4.741   5.678   4.965 -0.2803  1.0480 -1.2534
47293SOL     OW47198   1.536   3.637   5.199  0.5319 -0.6218 -0.3187
47293SOL    HW147199   1.515   3.620   5.291  0.9954  0.6428  0.0352
47293SOL    HW247200   1.460   3.684   5.165  1.7059  1.9454  0.3641
47294SOL     OW47201   0.109   5.120   3.385 -0.2622 -0.1528 -0.9725
47294SOL    HW147202   0.089   5.062   3.458 -0.2194  0.6685 -0.2914
47294SOL    HW247203   0.142   5.062   3.316 -1.6575 -1.1057 -0.8684
47295SOL     OW47204   0.427   9.640   3.388  0.3462  0.5794  0.6811
47295SOL    HW147205   0.460   9.557   3.354 -0.2423  0.1851  1.0425
47295SOL    HW247206   0.333   9.624   3.402  0.6364  0.5633  2.9322
47296SOL     OW47207   6.783   3.442   9.774  0.1025 -0.3173 -0.1177
47296SOL    HW147208   6.809   3.456   9.865 -0.2088  0.0619 -0.0864
47296SOL    HW247209   6.752   3.528   9.744  1.6405 -0.0584 -1.0507
47297SOL     OW47210   5.639  11.433   2.064  0.0112  0.2310  0.1221
47297SOL    HW147211   5.677  11.521   2.059 -0.0015  0.3204  1.2326
47297SOL    HW247212   5.579  11.428   1.990  0.3338  1.0070 -0.2025
47298SOL     OW47213   6.781   2.160   8.833 -0.7328 -0.5398  0.0149
47298SOL    HW147214   6.703   2.178   8.884 -0.6816 -0.4390  0.0577
47298SOL    HW247215   6.767   2.072   8.798 -1.1794 -0.2349 -0.5669
47299SOL     OW47216   0.629   2.100   3.997 -0.4588  0.1198 -0.2550
47299SOL    HW147217   0.582   2.020   3.973 -2.2625  0.8155  0.8030
47299SOL    HW247218   0.691   2.071   4.064 -0.0248 -0.6372 -0.9604
47300SOL     OW47219   8.481   7.254   9.470 -0.1294 -0.0938 -0.5898
47300SOL    HW147220   8.577   7.251   9.473 -0.1436 -0.8868 -0.5904
47300SOL    HW247221   8.455   7.162   9.467 -0.9750  0.0423  1.5333
47301SOL     OW47222   5.990   6.707  10.302  0.3341  0.2031 -0.4493
47301SOL    HW147223   6.082   6.729  10.312 -0.2691  1.8816  3.1418
47301SOL    HW247224   5.958   6.765  10.233  1.8037 -0.0183 -1.3506
47302SOL     OW47225   6.310   0.734   5.794 -0.3352 -0.3401  0.6287
47302SOL    HW147226   6.252   0.747   5.718  0.0792 -1.4405  0.0946
47302SOL    HW247227   6.357   0.816   5.802  0.2892 -0.4977 -0.9284
47303SOL     OW47228  11.409  11.032   0.136  0.1029 -0.0001 -0.6839
47303SOL    HW147229  11.364  10.994   0.061  0.0196  0.5415 -0.9116
47303SOL    HW247230  11.427  11.122   0.110  0.2604  0.1294 -0.1344
47304SOL     OW47231   0.671   1.410   6.232  0.2085  1.2317 -0.5068
47304SOL    HW147232   0.638   1.367   6.154  1.7106  1.5539 -1.3571
47304SOL    HW247233   0.612   1.483   6.246 -1.1933  0.0887 -0.2026
47305SOL     OW47234   5.898   2.231  11.426  0.1912 -0.2756  0.1378
47305SOL    HW147235   5.934   2.162  11.481  0.2535 -1.3354 -1.1826
47305SOL    HW247236   5.946   2.225  11.343 -0.6810  0.5062 -0.4565
47306SOL     OW47237   2.948   5.255   3.936 -0.5758  0.0381 -0.1417
47306SOL    HW147238   2.970   5.340   3.974  0.6917  0.0557 -0.8744
47306SOL    HW247239   2.944   5.196   4.011  2.4313 -0.0444  0.0781
47307SOL     OW47240  10.952   9.257   5.576 -0.2262  0.2345  0.0755
47307SOL    HW147241  10.937   9.303   5.493  0.9552  1.9023  0.7306
47307SOL    HW247242  10.870   9.267   5.624 -0.3747  0.6532 -0.2567
47308SOL     OW47243   3.790   7.044   8.364  0.0155 -0.5318  0.3797
47308SOL    HW147244   3.707   7.073   8.403  0.1197  0.8749 -0.4115
47308SOL    HW247245   3.836   7.002   8.436 -1.0435 -0.6254  1.0327
47309SOL     OW47246   7.167  11.819   3.290  0.4153 -0.3311  0.7486
47309SOL    HW147247   7.249  11.811   3.242  0.1582  0.4883  0.1541
47309SOL    HW247248   7.134  11.906   3.268 -0.0178 -0.1721  1.9389
47310SOL     OW47249   8.178   9.031  11.245  0.2300 -0.4092  0.0154
47310SOL    HW147250   8.191   8.973  11.320  1.4520 -0.2476 -0.0397
47310SOL    HW247251   8.083   9.037  11.234  0.0730 -1.9434  0.3701
47311SOL     OW47252   6.340   3.720   1.366 -0.2643 -0.1217 -0.5773
47311SOL    HW147253   6.395   3.753   1.436  1.4799 -0.7075 -1.6197
47311SOL    HW247254   6.259   3.772   1.372  0.6478  1.2223  0.5765
47312SOL     OW47255   7.660   3.435   0.229 -0.5109 -0.0329 -0.0849
47312SOL    HW147256   7.613   3.419   0.310 -0.9038  0.1647 -0.2669
47312SOL    HW247257   7.690   3.526   0.236  0.8378 -0.5163  0.5172
47313SOL     OW47258   6.659  11.104   1.888  0.1291  0.4253  0.5933
47313SOL    HW147259   6.683  11.014   1.909 -0.0714  0.7059  2.1799
47313SOL    HW247260   6.608  11.133   1.964 -0.7351  1.5259 -0.3713
47314SOL     OW47261   0.553   7.237   2.547 -0.2854  0.0454  0.1001
47314SOL    HW147262   0.510   7.319   2.524  1.2838  0.5295 -1.3420
47314SOL    HW247263   0.643   7.247   2.514  0.1656 -1.9422  0.5889
47315SOL     OW47264  10.542   6.106  10.404 -0.6152 -0.0639  0.6710
47315SOL    HW147265  10.583   6.020  10.397 -0.8426 -0.1576  0.4373
47315SOL    HW247266  10.588   6.160  10.339  0.7367  0.4949  2.0422
47316SOL     OW47267   9.341  11.472  11.655  0.0026 -0.5947  0.1516
47316SOL    HW147268   9.291  11.391  11.666  1.2194 -1.4267 -0.1670
47316SOL    HW247269   9.300  11.534  11.714 -0.2350 -1.7885  1.2862
47317SOL     OW47270  10.388   6.471   3.587 -0.3634  0.2039  0.5827
47317SOL    HW147271  10.341   6.431   3.660 -0.9720  0.1178  0.1520
47317SOL    HW247272  10.351   6.560   3.581 -0.2090  0.2617  0.4769
47318SOL     OW47273   8.253   9.810   9.987 -0.8023  0.4367  0.3295
47318SOL    HW147274   8.344   9.779   9.980 -0.9631 -0.4347  1.6767
47318SOL    HW247275   8.202   9.743   9.943 -0.9117  0.2002  0.8144
47319SOL     OW47276   5.568   4.988   6.464 -0.3029 -0.3681  0.0616
47319SOL    HW147277   5.473   5.000   6.463 -0.2036  1.9542  3.1773
47319SOL    HW247278   5.603   5.071   6.430  0.6876 -1.3525 -1.4606
47320SOL     OW47279  10.221  10.634   5.252 -0.0725 -0.1051  0.1273
47320SOL    HW147280  10.139  10.594   5.225  1.0931 -1.3203 -1.8242
47320SOL    HW247281  10.225  10.717   5.204  0.5485 -0.7852 -1.0121
47321SOL     OW47282   6.810   9.892  10.964  0.2874 -0.5996  0.2924
47321SOL    HW147283   6.835   9.921  10.876 -2.8433  1.8243  0.0471
47321SOL    HW247284   6.733   9.837  10.951  0.9200 -1.8199  1.4486
47322SOL     OW47285   4.787   8.761  11.350  0.1477 -0.0050 -0.2461
47322SOL    HW147286   4.823   8.828  11.409  0.5545 -0.5545  0.1422
47322SOL    HW247287   4.839   8.683  11.369  0.9474  0.0444 -2.0228
47323SOL     OW47288   2.566   8.358  10.174 -0.3337 -0.5134  0.0799
47323SOL    HW147289   2.636   8.293  10.185 -0.5499 -0.8240 -0.3569
47323SOL    HW247290   2.505   8.339  10.245  0.2594  0.0795  0.7719
47324SOL     OW47291   2.206   0.771   5.852  0.4153  0.1277 -0.1283
47324SOL    HW147292   2.188   0.709   5.780 -1.9362  2.1359 -1.4209
47324SOL    HW247293   2.291   0.809   5.829  0.7640 -0.8777 -0.5911
47325SOL     OW47294  11.658   2.328   6.361 -0.0490  0.0935  0.1060
47325SOL    HW147295  11.575   2.315   6.315  0.0871  0.6048 -0.2993
47325SOL    HW247296  11.640   2.305   6.452 -1.0152  1.5359  0.3127
47326SOL     OW47297  10.495  10.213  10.884  0.4281  0.0835 -0.0520
47326SOL    HW147298  10.486  10.177  10.796 -1.0846 -0.5154  0.3210
47326SOL    HW247299  10.588  10.208  10.903  0.7039 -0.2566 -1.4145
47327SOL     OW47300   2.505   4.859   7.066 -0.6192  0.2526  0.6352
47327SOL    HW147301   2.535   4.837   7.154 -1.1364  2.5447  1.4609
47327SOL    HW247302   2.433   4.797   7.049 -1.9864  1.1304  2.7883
47328SOL     OW47303   3.154   9.688   6.141 -0.1792  0.4121 -0.5748
47328SOL    HW147304   3.103   9.769   6.153 -1.8210 -0.7500  0.7834
47328SOL    HW247305   3.161   9.651   6.229 -1.5776 -2.1324 -1.4369
47329SOL     OW47306   0.106   2.049   7.116  0.2061  0.4823 -0.3682
47329SOL    HW147307   0.034   2.102   7.081  0.1486  0.3382 -0.4700
47329SOL    HW247308   0.068   2.002   7.190 -0.1360 -0.5119 -1.1505
47330SOL     OW47309  10.001   3.762   7.449 -0.5110 -0.3077  0.1960
47330SOL    HW147310   9.943   3.812   7.391 -0.3399 -0.9614 -0.5551
47330SOL    HW247311   9.943   3.697   7.490 -0.0936 -2.1338 -1.8712
47331SOL     OW47312   3.059   7.645   4.705  0.0985 -0.3131 -0.4477
47331SOL    HW147313   3.018   7.719   4.659  0.0631 -0.1284 -0.1247
47331SOL    HW247314   3.147   7.675   4.726 -0.2812  0.0747  0.6827
47332SOL     OW47315   4.033   6.794   4.033  0.5366  1.0810 -0.1862
47332SOL    HW147316   4.098   6.797   4.103 -0.0013  1.6737  0.2987
47332SOL    HW247317   4.042   6.877   3.988  0.2584  1.0781 -0.2496
47333SOL     OW47318   4.157   9.187   3.813  0.2391 -0.3887 -0.4652
47333SOL    HW147319   4.187   9.257   3.871 -1.2638 -0.9138  1.0428
47333SOL    HW247320   4.071   9.163   3.848  1.1577 -3.7445 -0.2035
47334SOL     OW47321   0.495   7.283   6.110 -0.3281  0.3082 -0.1201
47334SOL    HW147322   0.554   7.211   6.089 -1.6411 -1.1963  1.1224
47334SOL    HW247323   0.417   7.266   6.057 -0.3373  1.2990 -0.4415
47335SOL     OW47324   2.710   3.157   7.859 -0.4986 -0.6236 -0.2839
47335SOL    HW147325   2.713   3.238   7.808 -1.6269 -0.6662 -0.4280
47335SOL    HW247326   2.731   3.088   7.796 -0.6892 -0.5558 -0.4221
47336SOL     OW47327   8.894   2.224   9.827  0.2743 -0.5972 -0.0261
47336SOL    HW147328   8.845   2.272   9.760  1.3285  0.3532 -0.1623
47336SOL    HW247329   8.848   2.141   9.836 -1.3101  0.2233 -0.1771
47337SOL     OW47330   3.844   6.891   1.915  0.1834  0.3147 -0.0279
47337SOL    HW147331   3.908   6.957   1.942 -0.4456  1.5930 -1.5328
47337SOL    HW247332   3.760   6.926   1.943 -0.0992 -0.2529 -0.1376
47338SOL     OW47333   7.876   4.196   4.243 -0.4270 -0.0907  0.1601
47338SOL    HW147334   7.860   4.259   4.313  1.4375  0.3984  0.2194
47338SOL    HW247335   7.932   4.243   4.181 -2.5500 -0.2948 -2.0479
47339SOL     OW47336   7.398   7.915   2.520 -0.4000 -0.5443 -0.2897
47339SOL    HW147337   7.418   7.826   2.490 -0.1390 -0.4550 -0.3907
47339SOL    HW247338   7.362   7.903   2.608 -0.1186 -0.7350 -0.1969
47340SOL     OW47339   9.108   5.472   7.250 -0.4350  0.8133 -0.1853
47340SOL    HW147340   9.029   5.498   7.298  0.1443  0.0366  1.2515
47340SOL    HW247341   9.080   5.469   7.158 -1.1553  3.9285 -0.1804
47341SOL     OW47342   8.433   8.845   7.736  0.1178 -0.0226 -0.1042
47341SOL    HW147343   8.528   8.837   7.742  0.1838  1.1717  1.0357
47341SOL    HW247344   8.412   8.819   7.647  1.5130 -0.3255 -0.3696
47342SOL     OW47345   6.274   9.731  10.372 -0.2257 -0.0402 -0.2041
47342SOL    HW147346   6.342   9.772  10.425  0.0661 -0.0605 -0.5551
47342SOL    HW247347   6.206   9.706  10.434 -0.2075  0.5752  0.0626
47343SOL     OW47348   8.710   1.380   1.291  1.1523 -0.5342  0.2695
47343SOL    HW147349   8.741   1.411   1.376 -1.7253 -1.3494  1.7119
47343SOL    HW247350   8.759   1.433   1.228  1.9464  1.5139  2.4478
47344SOL     OW47351   4.825   6.132  10.345 -0.0560 -0.2452  0.3311
47344SOL    HW147352   4.830   6.150  10.439  0.9061  2.4710 -0.1437
47344SOL    HW247353   4.916   6.122  10.317 -0.2960 -0.4861 -0.3997
47345SOL     OW47354   0.207  10.012   3.782  0.7111 -0.7154  0.3410
47345SOL    HW147355   0.275   9.967   3.832  1.2789  0.9643  1.1661
47345SOL    HW247356   0.202  10.099   3.822 -1.4236 -0.5548 -0.1922
47346SOL     OW47357   3.008  11.272  10.943 -0.1847  0.4372  0.2090
47346SOL    HW147358   2.959  11.291  10.862  0.8957  1.0214 -0.3354
47346SOL    HW247359   3.046  11.357  10.967  0.7796 -0.0639  0.4573
47347SOL     OW47360   5.336  10.150   1.110  0.2266 -0.1363  0.0814
47347SOL    HW147361   5.324  10.164   1.016  1.7991  3.5731  0.2376
47347SOL    HW247362   5.420  10.105   1.117  0.9777  1.1218 -0.3548
47348SOL     OW47363   0.323   6.664   2.937  0.3336 -0.3157 -0.1552
47348SOL    HW147364   0.309   6.577   2.975 -0.3693  0.7912  2.2354
47348SOL    HW247365   0.372   6.712   3.003 -1.3205  1.8544 -0.4142
47349SOL     OW47366   6.388  10.252   5.823  0.0414 -0.0004  0.4335
47349SOL    HW147367   6.478  10.223   5.837  0.0552  0.3623  1.2022
47349SOL    HW247368   6.391  10.303   5.742  0.4627 -0.2641  0.2805
47350SOL     OW47369   2.446   5.854   7.891  0.3883  0.0798 -0.0317
47350SOL    HW147370   2.537   5.882   7.878  1.8863 -2.9976  2.3682
47350SOL    HW247371   2.432   5.862   7.985 -1.7347  0.1130 -0.3114
47351SOL     OW47372   9.573  11.198   1.465  0.4248 -0.1597  0.6260
47351SOL    HW147373   9.520  11.228   1.391 -1.3570  0.1031  1.9466
47351SOL    HW247374   9.516  11.138   1.513  1.8796 -1.0656  1.2844
47352SOL     OW47375   5.698   1.024   0.458  0.0329  0.2093  0.3190
47352SOL    HW147376   5.664   0.960   0.521 -0.6169 -0.4224 -0.6427
47352SOL    HW247377   5.635   1.096   0.461 -0.5771 -0.2780 -0.3360
47353SOL     OW47378   2.562   2.415   4.476  0.0587 -0.2736  0.5272
47353SOL    HW147379   2.629   2.388   4.538  0.7434  1.3446  0.5596
47353SOL    HW247380   2.483   2.369   4.504  0.8058 -1.0883  1.3826
47354SOL     OW47381   0.305   2.422  11.548  0.3985  0.1027 -0.1543
47354SOL    HW147382   0.257   2.423  11.630  2.9238  0.6461  1.4388
47354SOL    HW247383   0.242   2.451  11.482 -1.4454  0.6022  1.7335
47355SOL     OW47384   7.580   4.512   8.822 -0.5998 -0.0198  0.1378
47355SOL    HW147385   7.603   4.419   8.825 -0.5212  0.0162  0.7816
47355SOL    HW247386   7.626   4.550   8.896  0.3014  0.7603 -0.8017
47356SOL     OW47387   8.888   1.074   1.840  0.3073 -0.2514  0.3626
47356SOL    HW147388   8.923   1.089   1.752  0.4397  1.1624  0.6352
47356SOL    HW247389   8.831   0.997   1.830  1.3356 -0.9070 -0.6651
47357SOL     OW47390   4.206   1.182   4.816  0.6068  0.0191  0.2924
47357SOL    HW147391   4.204   1.134   4.899 -1.1234 -0.8534 -0.2070
47357SOL    HW247392   4.248   1.122   4.755  1.4666  0.4814  0.4215
47358SOL     OW47393   5.652   8.109   6.093 -0.4399  0.3385 -0.7206
47358SOL    HW147394   5.562   8.138   6.102  0.0071  1.4250  0.6391
47358SOL    HW247395   5.701   8.189   6.072  0.1767 -0.2909 -1.8002
47359SOL     OW47396   6.966   6.893   5.528  0.4361  0.4587 -0.0482
47359SOL    HW147397   6.917   6.866   5.451  1.5369 -0.7486 -0.3640
47359SOL    HW247398   7.038   6.946   5.493  0.9090 -0.0485  0.1380
47360SOL     OW47399   2.717   8.652   3.549 -0.2805  0.0236 -0.5625
47360SOL    HW147400   2.803   8.649   3.508 -0.5448 -0.1578 -1.1037
47360SOL    HW247401   2.709   8.742   3.582 -0.0315  0.1401 -0.8242
47361SOL     OW47402  10.799  11.030   7.960  0.0457  0.3986  0.3676
47361SOL    HW147403  10.705  11.023   7.976 -0.1097 -1.8891 -1.0333
47361SOL    HW247404  10.807  11.033   7.865  1.3958 -0.1929  0.4402
47362SOL     OW47405  10.213  10.500   5.690 -1.1575 -0.4184  0.5453
47362SOL    HW147406  10.184  10.543   5.609 -0.6840 -3.7245 -1.5956
47362SOL    HW247407  10.132  10.476   5.735 -1.4412  0.8712  0.7553
47363SOL     OW47408   9.160   9.911   7.480 -0.6732 -0.1381 -1.4536
47363SOL    HW147409   9.143   9.984   7.539  1.1953 -0.7230 -0.0911
47363SOL    HW247410   9.214   9.949   7.411 -1.1148  0.1130 -1.6630
47364SOL     OW47411   2.017  11.370   4.914  0.4667  0.5823  0.0655
47364SOL    HW147412   2.094  11.357   4.969  0.5313  0.3216 -0.0874
47364SOL    HW247413   1.950  11.403   4.974  0.7371  0.9441  0.1711
47365SOL     OW47414   2.947   6.118   7.382  0.4409  0.0992  0.0381
47365SOL    HW147415   3.039   6.121   7.356  0.5982  0.8870  0.6460
47365SOL    HW247416   2.932   6.026   7.405  0.3582 -0.6036 -2.4882
47366SOL     OW47417   5.676   3.707   9.079  0.0642  0.2573  0.0501
47366SOL    HW147418   5.583   3.686   9.091 -0.0496 -0.0296 -1.1934
47366SOL    HW247419   5.722   3.627   9.104 -0.1373 -0.1579 -0.8442
47367SOL     OW47420   2.295   3.072  11.026 -0.4243  0.0233 -0.3075
47367SOL    HW147421   2.251   3.081  11.110 -1.0848 -0.8223 -0.5451
47367SOL    HW247422   2.388   3.071  11.047 -0.5634  0.4183  0.3491
47368SOL     OW47423   5.931   9.723   9.786  0.3185  0.2770  0.2010
47368SOL    HW147424   5.970   9.638   9.763  1.3632 -0.2900  3.5661
47368SOL    HW247425   5.991   9.760   9.850 -1.1984  2.6697  0.3475
47369SOL     OW47426   1.737   3.514  11.812 -0.4850  0.2307 -0.2216
47369SOL    HW147427   1.696   3.431  11.785 -0.2453  0.3777 -1.0782
47369SOL    HW247428   1.703   3.578  11.750  0.3256  0.5241 -0.3742
47370SOL     OW47429   8.222   4.492   7.069 -0.0702 -0.2344  0.1913
47370SOL    HW147430   8.138   4.471   7.029  0.3331  0.9736 -1.3525
47370SOL    HW247431   8.224   4.438   7.149 -2.3781 -0.1326  0.3874
47371SOL     OW47432   6.742   5.347   4.961  0.4069  0.3619  0.0938
47371SOL    HW147433   6.783   5.261   4.949 -0.4802  0.0267 -0.6080
47371SOL    HW247434   6.696   5.364   4.879  0.9777  1.7452  0.0297
47372SOL     OW47435   5.704   8.131   3.459  0.7227  0.0783 -0.3230
47372SOL    HW147436   5.725   8.059   3.400  0.8605 -1.2676  1.3077
47372SOL    HW247437   5.643   8.093   3.523  1.2287  1.2547  0.8987
47373SOL     OW47438   5.084   4.389   5.499  0.3913  0.1964  0.6910
47373SOL    HW147439   5.122   4.322   5.442 -0.3650 -0.2051  0.6481
47373SOL    HW247440   5.000   4.409   5.459  0.1029  0.3246  1.3618
47374SOL     OW47441   3.703   6.579   3.327 -0.0382 -0.2404 -0.0416
47374SOL    HW147442   3.726   6.525   3.402 -2.8147 -0.9725  0.3862
47374SOL    HW247443   3.609   6.566   3.316  0.0031  1.0859 -2.6882
47375SOL     OW47444   1.673   3.677   9.124 -0.3573  0.1167  0.5945
47375SOL    HW147445   1.664   3.618   9.049  0.4329  0.5502  0.1414
47375SOL    HW247446   1.702   3.760   9.085 -1.3899  0.7946  1.2269
47376SOL     OW47447   8.148   9.673   3.162 -0.3245 -0.3329  0.2030
47376SOL    HW147448   8.095   9.737   3.115 -3.6497 -2.3561  0.8576
47376SOL    HW247449   8.201   9.630   3.095 -0.3724  0.9331 -0.6730
47377SOL     OW47450   8.387  10.458   4.725 -0.7762 -0.3907 -0.4138
47377SOL    HW147451   8.296  10.428   4.722 -1.2119  0.7195  0.7896
47377SOL    HW247452   8.386  10.532   4.785  0.4604  1.3411 -2.4111
47378SOL     OW47453   7.519   2.338   0.566 -0.1184 -0.8263  0.2065
47378SOL    HW147454   7.497   2.251   0.601  0.0107 -0.9596 -0.0371
47378SOL    HW247455   7.478   2.399   0.626  0.1854 -1.0491  0.6477
47379SOL     OW47456   7.911   6.597   7.804  0.3833 -0.0703 -0.1303
47379SOL    HW147457   7.890   6.577   7.895 -0.3732 -1.4209 -0.5682
47379SOL    HW247458   7.915   6.511   7.761 -0.0444  0.5808 -1.5306
47380SOL     OW47459   5.796   7.543   4.463  0.0169  0.6868 -0.4994
47380SOL    HW147460   5.754   7.589   4.390 -1.8356 -0.0441  0.0438
47380SOL    HW247461   5.846   7.472   4.421 -0.1238  0.9500 -1.1212
47381SOL     OW47462   5.236   9.081   0.666 -0.6272  0.1061  0.3221
47381SOL    HW147463   5.168   9.143   0.641 -1.3628 -0.7973  0.0370
47381SOL    HW247464   5.223   9.067   0.760  0.8408  1.9253  0.8515
47382SOL     OW47465   5.248  10.779   6.759 -0.1025  0.2267  0.2525
47382SOL    HW147466   5.189  10.737   6.821  1.0666 -2.0396 -0.0421
47382SOL    HW247467   5.309  10.709   6.734  1.5537  1.9689 -0.8380
47383SOL     OW47468   2.127   9.564   9.406  0.4893 -0.1211 -0.6419
47383SOL    HW147469   2.152   9.529   9.492 -1.3095 -2.8514 -1.0865
47383SOL    HW247470   2.043   9.607   9.422  0.4968 -0.0017 -0.9271
47384SOL     OW47471   1.372   3.970   4.345 -0.2407  0.0579  0.6619
47384SOL    HW147472   1.414   4.055   4.332 -1.5379  0.5771 -0.4264
47384SOL    HW247473   1.411   3.935   4.425  0.7450  1.4081  0.7994
47385SOL     OW47474   6.677   1.276   5.640  0.0953 -0.9412  0.3530
47385SOL    HW147475   6.674   1.369   5.621  0.8801 -1.2743 -1.7291
47385SOL    HW247476   6.638   1.267   5.727 -0.9231  1.1817  0.1620
47386SOL     OW47477   6.683   8.825   3.042 -0.0566 -0.0314  0.2493
47386SOL    HW147478   6.652   8.886   3.110 -2.0481 -0.6937  0.0064
47386SOL    HW247479   6.646   8.860   2.960  2.2986  0.7530 -0.5516
47387SOL     OW47480   6.486   0.465   0.400 -0.2314  0.4448 -0.0116
47387SOL    HW147481   6.569   0.455   0.353 -0.5830  0.2618 -0.6135
47387SOL    HW247482   6.427   0.404   0.356 -1.4083  2.4122 -1.3191
47388SOL     OW47483   7.539   0.144   1.416 -0.7498 -0.5021  0.2252
47388SOL    HW147484   7.525   0.140   1.322 -1.7833  0.1695  0.3373
47388SOL    HW247485   7.619   0.093   1.431 -0.1316  0.0501 -1.0977
47389SOL     OW47486   0.581   9.949   2.318 -0.2044  0.3643  0.2287
47389SOL    HW147487   0.547   9.938   2.407 -1.4758  1.3830 -0.1165
47389SOL    HW247488   0.550  10.035   2.290  1.2623  0.6237 -0.7427
47390SOL     OW47489  11.526   1.425   7.993  0.2134 -0.8298  0.4038
47390SOL    HW147490  11.433   1.427   7.971 -0.1206 -0.0049  1.7751
47390SOL    HW247491  11.559   1.512   7.968  0.6085 -1.0862  0.0075
47391SOL     OW47492   5.336   3.784   5.749  0.1588 -0.4819 -0.3307
47391SOL    HW147493   5.283   3.796   5.827  0.4740 -0.4338 -0.1211
47391SOL    HW247494   5.424   3.766   5.783  0.2204 -0.8231 -0.6676
47392SOL     OW47495   4.051  11.486   6.171  0.0028  0.2039  0.6574
47392SOL    HW147496   4.134  11.535   6.175 -0.0391  0.2107  1.6045
47392SOL    HW247497   4.031  11.481   6.077  0.8112  0.6474  0.4499
47393SOL     OW47498   9.221  11.293   1.768 -0.1479 -0.0234 -0.3899
47393SOL    HW147499   9.253  11.376   1.801  0.6335 -0.4255 -0.1129
47393SOL    HW247500   9.184  11.249   1.845 -4.0204  1.5489 -1.1094
47394SOL     OW47501  11.305  10.661  10.701 -0.0557 -0.0344 -0.0909
47394SOL    HW147502  11.315  10.704  10.786  0.0553  1.8023 -0.9960
47394SOL    HW247503  11.211  10.645  10.694 -0.0851 -0.0446  0.3123
47395SOL     OW47504   7.885   0.261  11.661  0.0116 -0.0270 -0.2220
47395SOL    HW147505   7.980   0.262  11.675  0.1897  1.2260 -1.3912
47395SOL    HW247506   7.853   0.339  11.705 -0.9150 -1.8277  2.5673
47396SOL     OW47507   5.863   5.838   3.270  0.4614 -0.2762 -0.2187
47396SOL    HW147508   5.837   5.818   3.180 -4.1163 -0.1755  0.8422
47396SOL    HW247509   5.862   5.934   3.274 -0.9605 -0.2857  0.2384
47397SOL     OW47510  11.006   2.842   9.363  0.0903  0.5248  0.4354
47397SOL    HW147511  10.989   2.914   9.302  0.4505 -1.4855 -2.2174
47397SOL    HW247512  11.101   2.841   9.373  0.0369  0.8044  1.0263
47398SOL     OW47513   5.643   8.633   3.008  0.0825  0.6152  0.0992
47398SOL    HW147514   5.569   8.586   2.969  1.3478 -1.0447 -0.3988
47398SOL    HW247515   5.605   8.677   3.084 -1.1802 -1.3415  0.6842
47399SOL     OW47516   7.124   7.657   3.739  0.3705  0.1986  0.1060
47399SOL    HW147517   7.029   7.663   3.735  0.4208  1.2629  0.0324
47399SOL    HW247518   7.142   7.577   3.788 -0.5220 -1.8344 -2.6841
47400SOL     OW47519   8.275  11.108   5.248 -0.1779  0.3347 -0.2468
47400SOL    HW147520   8.248  11.154   5.169  0.8514  1.0546 -0.1990
47400SOL    HW247521   8.314  11.176   5.303  3.7398 -0.9197 -1.2188
47401SOL     OW47522   4.054   4.114   1.329  0.1590 -0.0048  0.1898
47401SOL    HW147523   4.110   4.066   1.391  1.0736  0.3277 -0.3502
47401SOL    HW247524   4.092   4.202   1.327  1.3761 -0.4967 -2.2531
47402SOL     OW47525   1.657  10.661   4.941 -0.1351  0.0927  0.8372
47402SOL    HW147526   1.608  10.589   4.901 -1.2079 -0.2531  2.6298
47402SOL    HW247527   1.632  10.657   5.034  2.1703  0.8607  1.5432
47403SOL     OW47528   5.444   8.067   2.286  0.0362 -0.1193 -0.3127
47403SOL    HW147529   5.438   8.063   2.381  0.2197  0.5691 -0.2663
47403SOL    HW247530   5.354   8.084   2.256 -0.5736 -3.1212 -0.4570
47404SOL     OW47531   0.969   5.076  10.682 -0.1935 -0.0434 -0.3058
47404SOL    HW147532   1.053   5.113  10.707 -0.1029  1.3485 -2.4018
47404SOL    HW247533   0.985   5.038  10.595 -1.3175 -1.3358  0.0194
47405SOL     OW47534   2.583   6.723   3.302 -0.2895 -0.0644  0.5780
47405SOL    HW147535   2.614   6.690   3.218 -1.1239 -0.0834  0.2696
47405SOL    HW247536   2.491   6.746   3.287 -0.1811  0.8558  1.2221
47406SOL     OW47537  10.307   6.849  10.004  0.1003 -0.0646  0.0766
47406SOL    HW147538  10.323   6.844  10.098  0.2083 -2.4328 -0.0040
47406SOL    HW247539  10.357   6.776   9.967 -2.1678 -0.9776 -1.4552
47407SOL     OW47540   9.650   4.897   0.125  0.2088 -0.5323  0.1472
47407SOL    HW147541   9.721   4.868   0.182  0.7901  0.5782  0.0023
47407SOL    HW247542   9.630   4.986   0.154  1.3800  0.5551 -2.1515
47408SOL     OW47543   3.144   8.065   6.360 -0.3405  0.2858  0.3746
47408SOL    HW147544   3.103   8.142   6.320 -0.7435  0.4162  1.0215
47408SOL    HW247545   3.076   7.997   6.356 -0.6142  0.4748  1.3652
47409SOL     OW47546  10.617   7.558   7.112 -0.4085 -0.1917  0.0080
47409SOL    HW147547  10.685   7.625   7.113 -0.4349 -0.1684  0.2167
47409SOL    HW247548  10.584   7.556   7.202  0.6006 -1.4966  0.3811
47410SOL     OW47549   7.206  10.219   2.076  0.5333 -0.7946 -0.3617
47410SOL    HW147550   7.224  10.179   1.991  1.5227 -1.3431  0.0829
47410SOL    HW247551   7.285  10.270   2.096  0.5542 -1.1297  0.4718
47411SOL     OW47552   1.926   9.243   2.415 -0.2569 -0.3165  0.1686
47411SOL    HW147553   1.910   9.185   2.488  2.1417 -0.5605  0.5862
47411SOL    HW247554   1.983   9.193   2.356  2.0062  1.5486  0.6074
47412SOL     OW47555   3.878   8.507  10.996  0.3322  0.4245 -0.0937
47412SOL    HW147556   3.786   8.523  11.017  0.2826 -0.8264  0.7270
47412SOL    HW247557   3.917   8.476  11.078  1.7452  1.8937 -0.1448
47413SOL     OW47558   1.315   5.132   5.775 -0.0930  0.1804  0.3824
47413SOL    HW147559   1.350   5.050   5.739  0.7447  0.9040 -0.5109
47413SOL    HW247560   1.299   5.187   5.698  1.0993  1.5246  1.0491
47414SOL     OW47561   6.426   7.031   8.682  0.3038 -0.8884 -0.1969
47414SOL    HW147562   6.437   6.998   8.592  0.3693  0.9836 -0.9160
47414SOL    HW247563   6.500   6.995   8.730  1.1801 -0.6238 -1.2959
47415SOL     OW47564   9.078  11.519   6.827 -0.9378  0.0804  0.2742
47415SOL    HW147565   9.152  11.544   6.881 -0.3820  1.6912 -1.1352
47415SOL    HW247566   9.093  11.564   6.744 -2.1344 -1.6815 -0.9685
47416SOL     OW47567   0.141  10.317   7.237 -0.5708  0.2982  0.2444
47416SOL    HW147568   0.178  10.240   7.196  0.7900  0.2508  1.4883
47416SOL    HW247569   0.213  10.380   7.240 -1.0915  0.8773  1.0535
47417SOL     OW47570   8.933   1.267   9.167 -0.3738  0.6367 -0.4981
47417SOL    HW147571   9.012   1.295   9.213 -0.3384  0.0225 -0.1822
47417SOL    HW247572   8.951   1.177   9.140 -1.2018  0.2694  0.1263
47418SOL     OW47573   0.664   2.892   9.190 -0.3383 -0.0060 -0.4780
47418SOL    HW147574   0.733   2.844   9.236 -2.0263  1.2505  3.8622
47418SOL    HW247575   0.707   2.972   9.159  0.1040  1.6336  3.7319
47419SOL     OW47576   4.987   1.505  11.224 -0.5139  0.1112  0.0843
47419SOL    HW147577   4.985   1.533  11.315  0.2298 -0.2120  0.2110
47419SOL    HW247578   5.037   1.573  11.178  0.6359 -0.5918  0.2550
47420SOL     OW47579   2.193  10.216   0.130 -0.0798 -0.3088 -0.0565
47420SOL    HW147580   2.100  10.197   0.136  0.3711 -2.7207  0.3472
47420SOL    HW247581   2.224  10.163   0.057  1.3543 -1.5295  1.3360
47421SOL     OW47582   4.928  10.965  11.455  0.1095  0.6708  0.4968
47421SOL    HW147583   4.908  11.022  11.529  0.4991  2.1453 -0.4984
47421SOL    HW247584   5.012  10.925  11.477  1.3491  2.8132 -0.0761
47422SOL     OW47585   5.071   6.783   5.847  0.1610  0.2464  0.0878
47422SOL    HW147586   5.117   6.716   5.797 -1.2542 -1.0258  0.4425
47422SOL    HW247587   4.979   6.759   5.842 -0.3922  2.1079  0.3227
47423SOL     OW47588   3.159  10.766   1.635  0.3904 -0.8179  0.2332
47423SOL    HW147589   3.094  10.776   1.566  2.4243 -0.5073 -1.7416
47423SOL    HW247590   3.108  10.751   1.714 -2.0810  0.1106 -1.0898
47424SOL     OW47591   2.173   2.464   7.132  0.2786 -0.2956  0.1963
47424SOL    HW147592   2.082   2.434   7.121 -0.4730  2.0405 -0.7689
47424SOL    HW247593   2.179   2.491   7.223 -0.7477  1.4976 -0.2012
47425SOL     OW47594   7.225   5.965   1.420  0.6157  0.4835  0.5561
47425SOL    HW147595   7.181   6.048   1.400 -1.6218 -0.2788  1.9201
47425SOL    HW247596   7.209   5.952   1.514  1.1776 -1.3590  0.4369
47426SOL     OW47597   7.167   0.958   3.389  0.1654 -0.0026  0.1395
47426SOL    HW147598   7.168   0.930   3.298 -0.5069  2.6586 -0.7729
47426SOL    HW247599   7.079   0.993   3.403  1.0246  1.9761  0.9783
47427SOL     OW47600  10.660   1.254   6.932  0.3678 -0.1994  0.1738
47427SOL    HW147601  10.618   1.314   6.870 -0.5184 -0.5241  0.4533
47427SOL    HW247602  10.617   1.170   6.917 -0.1315 -0.1957  1.5068
47428SOL     OW47603   9.912   5.814   3.848 -0.3839  0.4412 -0.2430
47428SOL    HW147604  10.000   5.806   3.885 -0.7388  0.8759  0.7295
47428SOL    HW247605   9.858   5.844   3.921 -1.4624 -0.3803 -0.6779
47429SOL     OW47606   2.250   6.751   9.440 -0.0385  0.3227 -0.5422
47429SOL    HW147607   2.173   6.774   9.389  1.5202  1.3737 -2.5595
47429SOL    HW247608   2.285   6.673   9.397  0.6590  0.5317 -0.3617
47430SOL     OW47609   2.901   1.284   2.465 -0.1441  0.2949 -0.8498
47430SOL    HW147610   2.853   1.282   2.548  0.5579  0.1042 -0.4392
47430SOL    HW247611   2.838   1.251   2.400  0.0451 -1.9448  0.0039
47431SOL     OW47612   5.374  11.529   1.351 -0.1150  0.7237 -0.0908
47431SOL    HW147613   5.412  11.608   1.388 -1.1984  1.2426 -0.0286
47431SOL    HW247614   5.417  11.519   1.266  0.9046  0.6867  0.4255
47432SOL     OW47615   6.926   4.546   9.563 -0.1087  0.1247  0.3507
47432SOL    HW147616   6.831   4.545   9.557 -0.1163  1.1243  0.1939
47432SOL    HW247617   6.952   4.454   9.552 -0.9427  0.0478 -1.2609
47433SOL     OW47618   9.055   1.627   1.226  0.2484  0.1150 -0.2397
47433SOL    HW147619   9.031   1.711   1.265 -0.3122  0.0421 -0.4287
47433SOL    HW247620   9.084   1.574   1.300 -0.5806  0.0569  0.0547
47434SOL     OW47621   3.728   6.822   1.565 -0.1937 -0.0225  0.3572
47434SOL    HW147622   3.705   6.789   1.479 -1.1148  2.0758 -0.2634
47434SOL    HW247623   3.731   6.917   1.555 -0.6180  0.3111  2.6902
47435SOL     OW47624   9.152   0.053  11.531  0.2515 -0.0872  0.2835
47435SOL    HW147625   9.187   0.124  11.478  0.6811 -0.8529 -0.4698
47435SOL    HW247626   9.059   0.049  11.508  0.5819 -0.8783 -0.9506
47436SOL     OW47627   7.370   4.834   5.823 -0.4955 -0.2110 -0.0618
47436SOL    HW147628   7.408   4.786   5.896  0.8152  0.6345 -0.1431
47436SOL    HW247629   7.434   4.824   5.752 -0.0886  1.7343 -0.0254
47437SOL     OW47630   6.664   4.306   5.731 -0.3402  0.2866  0.0417
47437SOL    HW147631   6.722   4.251   5.783 -0.1383  0.8962  0.4689
47437SOL    HW247632   6.621   4.245   5.671  1.0874 -0.1050 -0.6106
47438SOL     OW47633   9.463   3.291  10.107  0.1749  0.2420 -0.2662
47438SOL    HW147634   9.518   3.292  10.029 -0.3469  0.2271 -0.6415
47438SOL    HW247635   9.384   3.339  10.081 -1.0007 -1.7352 -0.4949
47439SOL     OW47636   4.804   1.828  11.434 -0.0640  0.0133  0.2541
47439SOL    HW147637   4.859   1.863  11.364 -1.8242 -1.6024 -2.1073
47439SOL    HW247638   4.818   1.733  11.430  0.7862 -0.0705  3.0654
47440SOL     OW47639   5.071   9.905  11.425 -0.1690  0.3909 -0.2399
47440SOL    HW147640   5.005   9.867  11.483 -0.7975 -0.8666 -1.7016
47440SOL    HW247641   5.129   9.831  11.404  2.0807  1.5745  1.4291
47441SOL     OW47642  10.157   1.956  11.531  0.5706 -0.1121 -0.2149
47441SOL    HW147643  10.091   1.902  11.488 -0.1160 -1.0009  1.8320
47441SOL    HW247644  10.110   2.034  11.561  1.2180  0.9097 -1.7202
47442SOL     OW47645   9.977   2.027   0.064  0.5992 -0.5190 -0.0486
47442SOL    HW147646   9.971   1.932   0.054  0.0331 -0.5636  0.6429
47442SOL    HW247647   9.904   2.050   0.122  2.1568  0.0259  1.7817
47443SOL     OW47648   1.211   8.792   7.201 -0.3712 -0.1643 -0.0009
47443SOL    HW147649   1.234   8.702   7.224  1.2724  0.8195  2.7646
47443SOL    HW247650   1.186   8.832   7.285  0.8895  2.4740 -0.7808
47444SOL     OW47651  11.312   1.136   4.378 -0.1135 -0.1711  0.0182
47444SOL    HW147652  11.297   1.093   4.294 -0.3219 -1.0793  0.5122
47444SOL    HW247653  11.291   1.070   4.443 -2.1343  1.1702  0.8315
47445SOL     OW47654   6.296  10.865   9.617  0.1527  0.1785 -0.0904
47445SOL    HW147655   6.371  10.866   9.558  0.5256  0.6907  0.3782
47445SOL    HW247656   6.318  10.798   9.682  0.1370  0.2201 -0.0419
47446SOL     OW47657   2.356   8.429   9.519  0.2474  0.0591 -0.1072
47446SOL    HW147658   2.331   8.379   9.442  0.4184 -1.6727  0.9042
47446SOL    HW247659   2.351   8.366   9.591 -2.7841  2.2139  1.8457
47447SOL     OW47660   1.033   6.551   1.624  0.3814 -0.2105 -0.4110
47447SOL    HW147661   0.967   6.586   1.565 -1.0186 -0.6531  0.8182
47447SOL    HW247662   1.054   6.625   1.682 -1.2804 -0.8272  1.0708
47448SOL     OW47663  10.263   0.384   5.037  0.1425 -0.5716 -0.0149
47448SOL    HW147664  10.171   0.408   5.024  0.0244 -1.4251 -0.8299
47448SOL    HW247665  10.282   0.411   5.126 -1.1450 -1.1082  0.4483
47449SOL     OW47666   8.511   0.634   6.516 -0.1396  0.2621 -0.3026
47449SOL    HW147667   8.456   0.622   6.593 -2.0369  0.6977 -1.5266
47449SOL    HW247668   8.464   0.589   6.446  2.1285 -1.1873 -1.0113
47450SOL     OW47669   1.191   9.170   4.160 -0.3656  0.7026 -0.2427
47450SOL    HW147670   1.222   9.204   4.243 -0.5179  1.5209 -0.5113
47450SOL    HW247671   1.262   9.115   4.128  0.2816  1.5034 -0.2269
47451SOL     OW47672   8.411   6.238   0.750  0.3836 -0.0277 -0.6472
47451SOL    HW147673   8.405   6.323   0.794  1.1028 -0.3768  0.1585
47451SOL    HW247674   8.358   6.179   0.803  0.7136 -0.3054 -0.6203
47452SOL     OW47675   2.798   5.375   8.872 -0.0058 -0.3041  0.0103
47452SOL    HW147676   2.739   5.434   8.825  0.6927 -0.5402 -1.1810
47452SOL    HW247677   2.834   5.429   8.943  1.1578  0.9741 -1.4692
47453SOL     OW47678  10.693   8.581  11.212  0.8367  0.3130  0.0354
47453SOL    HW147679  10.663   8.622  11.294 -2.4834  1.7636 -1.6861
47453SOL    HW247680  10.613   8.544  11.173  2.2290 -0.1274 -2.6612
47454SOL     OW47681   5.339   6.460   2.395 -0.0015 -0.0171 -0.7197
47454SOL    HW147682   5.406   6.439   2.330  0.0157  1.4818 -1.2305
47454SOL    HW247683   5.266   6.494   2.343 -0.1569  0.7813  0.0176
47455SOL     OW47684   0.009   9.917  10.480  0.1064 -0.0620 -0.3664
47455SOL    HW147685  -0.048   9.916  10.558 -0.7405  3.9031 -0.7277
47455SOL    HW247686   0.094   9.946  10.513 -0.2685  1.6812 -0.8565
47456SOL     OW47687  10.184   2.171   3.109  0.6251 -0.3200  0.2811
47456SOL    HW147688  10.091   2.162   3.125  0.5806 -0.5193 -0.0630
47456SOL    HW247689  10.192   2.164   3.013  0.8251  1.1696  0.1578
47457SOL     OW47690   6.456   1.527   5.338 -0.1262 -0.0707  0.1944
47457SOL    HW147691   6.370   1.568   5.324  0.0120 -0.0629 -0.7322
47457SOL    HW247692   6.440   1.457   5.401 -0.7646  0.1029  0.2292
47458SOL     OW47693   8.420   2.153   9.328 -0.4309  0.1926 -0.3405
47458SOL    HW147694   8.407   2.112   9.413  0.4567  1.4563  0.4401
47458SOL    HW247695   8.513   2.143   9.311 -0.6141 -0.1124 -1.2160
47459SOL     OW47696   0.128  11.072   2.514 -0.3681  0.4121 -0.0244
47459SOL    HW147697   0.064  11.033   2.574  0.6478  0.4977  1.1728
47459SOL    HW247698   0.173  10.997   2.476 -1.4467  0.3386 -1.2121
47460SOL     OW47699   8.604  11.122   9.969 -0.0546  0.3309 -0.3168
47460SOL    HW147700   8.608  11.066  10.047  1.4756  0.0898 -0.5386
47460SOL    HW247701   8.642  11.205   9.997 -1.4233  0.9668 -0.2628
47461SOL     OW47702   2.923   2.782  10.877  0.0095 -0.1217 -0.2418
47461SOL    HW147703   2.988   2.834  10.924 -1.0497 -0.5040  1.7967
47461SOL    HW247704   2.974   2.723  10.822  1.3230  0.6708  0.0986
47462SOL     OW47705   1.806   8.240   4.568  0.6212  0.1534 -0.0370
47462SOL    HW147706   1.891   8.260   4.607 -0.2431  3.1292  0.5727
47462SOL    HW247707   1.744   8.252   4.640 -0.4170 -1.5862 -0.5678
47463SOL     OW47708   8.398   0.402   2.245 -0.5192  0.0039 -0.2629
47463SOL    HW147709   8.488   0.395   2.276 -1.1698 -1.1140  1.5231
47463SOL    HW247710   8.375   0.494   2.257  0.6303  0.4844 -1.5424
47464SOL     OW47711   6.162   1.566   2.760  0.3587 -0.6747 -0.0923
47464SOL    HW147712   6.104   1.566   2.836 -0.2304  0.7662 -0.5078
47464SOL    HW247713   6.106   1.590   2.687  1.2742 -0.2213 -0.6674
47465SOL     OW47714   8.962   0.599   9.233 -0.3169  0.6365 -0.2150
47465SOL    HW147715   8.885   0.619   9.180  0.6119  2.2959 -1.0284
47465SOL    HW247716   9.036   0.616   9.175  0.7023  0.9955  1.1413
47466SOL     OW47717   4.112  10.007   6.461 -0.1445  0.2183 -0.0402
47466SOL    HW147718   4.027   9.977   6.493  0.3839 -1.3465  0.0119
47466SOL    HW247719   4.172   9.988   6.533  0.2935  1.0950 -0.1651
47467SOL     OW47720   3.728   8.754  10.010 -0.1177 -0.2488 -0.2274
47467SOL    HW147721   3.662   8.700  10.053  1.1464 -1.0892  0.6904
47467SOL    HW247722   3.684   8.786   9.931 -1.5677 -0.9170  0.2797
47468SOL     OW47723   8.842  10.413  11.534  0.2147  0.0229 -0.0890
47468SOL    HW147724   8.894  10.461  11.469  1.4673 -0.9376  0.1673
47468SOL    HW247725   8.774  10.370  11.483  0.8367 -0.2516 -0.7049
47469SOL     OW47726   1.555   6.866   9.734  0.1790 -0.2754 -0.2230
47469SOL    HW147727   1.541   6.797   9.798  0.4802  0.0527  0.2039
47469SOL    HW247728   1.609   6.826   9.666  1.1526 -0.2027  0.4899
47470SOL     OW47729   7.677  10.782   4.945 -0.0162 -0.0398  0.5536
47470SOL    HW147730   7.590  10.785   4.904  1.2699 -0.8045 -2.5117
47470SOL    HW247731   7.668  10.715   5.014 -1.6562 -0.6688 -0.2037
47471SOL     OW47732   3.172   3.474   2.193  0.0602 -0.4309 -0.9840
47471SOL    HW147733   3.213   3.448   2.275  1.2490 -1.7645 -1.9331
47471SOL    HW247734   3.116   3.400   2.169 -0.5089  0.0715 -1.2369
47472SOL     OW47735   6.263   5.294  11.060  0.2566 -0.0210  0.5707
47472SOL    HW147736   6.244   5.361  10.994 -1.3179 -0.9201  0.0755
47472SOL    HW247737   6.210   5.219  11.034  1.7453 -1.3776  1.2874
47473SOL     OW47738   3.751   7.815  11.138  0.9106  0.0411 -0.6506
47473SOL    HW147739   3.826   7.784  11.087  1.6935  0.0057  0.4903
47473SOL    HW247740   3.785   7.824  11.227 -0.4495  0.0104 -0.1094
47474SOL     OW47741   9.992   0.951   6.394 -0.5600  0.8724 -0.2724
47474SOL    HW147742  10.004   0.903   6.476 -0.3689  0.9494 -0.2548
47474SOL    HW247743  10.081   0.977   6.368 -0.2726 -1.4205 -1.8878
47475SOL     OW47744   0.831   8.869   9.628  0.3174 -0.1767  0.0867
47475SOL    HW147745   0.768   8.899   9.562 -0.4376 -0.2713  0.7435
47475SOL    HW247746   0.892   8.942   9.637 -1.2025  1.0187  1.2899
47476SOL     OW47747   0.389   3.604  10.135 -0.0699 -0.1914  0.5031
47476SOL    HW147748   0.462   3.552  10.168  0.6808  0.2617 -0.3917
47476SOL    HW247749   0.311   3.566  10.176  0.3065 -2.7420 -0.9139
47477SOL     OW47750   3.502   8.990   9.470  0.1818 -0.2002 -0.3705
47477SOL    HW147751   3.491   8.898   9.444 -0.0143 -0.1861 -0.3422
47477SOL    HW247752   3.501   9.039   9.388 -0.9763 -0.1025 -0.3169
47478SOL     OW47753   4.433   0.511   6.694  0.8315  0.2732  0.2508
47478SOL    HW147754   4.441   0.548   6.606  0.3801 -2.4624 -1.0339
47478SOL    HW247755   4.516   0.464   6.708  0.9939  0.8664  1.4118
47479SOL     OW47756   7.924  11.101   0.079  0.2299 -0.2414 -0.0728
47479SOL    HW147757   7.871  11.024   0.060  0.9958 -0.7050 -0.3965
47479SOL    HW247758   8.014  11.068   0.081  0.6528  0.7918 -1.0840
47480SOL     OW47759   8.886   9.319   2.195  0.3029 -0.0900 -0.3949
47480SOL    HW147760   8.934   9.401   2.208  1.1898 -0.5813 -0.4881
47480SOL    HW247761   8.849   9.327   2.108 -0.8723  0.8221  0.1512
47481SOL     OW47762   9.403  11.340   6.757  0.3236  0.3727  0.1170
47481SOL    HW147763   9.339  11.279   6.795  1.3965 -1.6545 -1.1520
47481SOL    HW247764   9.349  11.408   6.716 -0.9061  0.7240  2.1380
47482SOL     OW47765   5.444   7.097  10.752  0.5092  0.1756  0.2135
47482SOL    HW147766   5.396   7.015  10.738  0.9670 -0.2208  0.9032
47482SOL    HW247767   5.393   7.163  10.706  0.3540 -0.5661 -0.7126
47483SOL     OW47768   5.329   5.852  10.430 -0.3042  0.3133  0.1755
47483SOL    HW147769   5.408   5.817  10.391  0.5993  1.0702  1.2480
47483SOL    HW247770   5.338   5.834  10.524 -1.7741 -0.2684  0.2390
47484SOL     OW47771   8.342   7.576   6.731  0.1196  0.1916 -0.5087
47484SOL    HW147772   8.389   7.536   6.804  0.7958  1.7840 -0.0215
47484SOL    HW247773   8.254   7.539   6.736  0.5762 -0.8354  0.2005
47485SOL     OW47774   1.201  10.094   3.208  0.3202 -0.1621  0.6023
47485SOL    HW147775   1.149  10.157   3.259 -1.2047 -1.7139  1.0638
47485SOL    HW247776   1.268  10.064   3.268  1.1509  1.0837  0.3362
47486SOL     OW47777   6.189   7.811   4.496 -0.3361 -0.0372 -0.1553
47486SOL    HW147778   6.122   7.754   4.534  0.0990 -0.8533 -0.5899
47486SOL    HW247779   6.141   7.868   4.436 -0.6339 -0.7195 -0.5795
47487SOL     OW47780   2.863   6.566   0.541  0.2337  0.0414 -0.0515
47487SOL    HW147781   2.864   6.635   0.608 -2.3998  0.4006 -0.2609
47487SOL    HW247782   2.810   6.496   0.580  1.1433 -1.0051 -0.6471
47488SOL     OW47783   2.421   6.244   0.239 -0.6431 -0.2195 -0.1325
47488SOL    HW147784   2.417   6.243   0.143 -0.4592 -0.0948 -0.1414
47488SOL    HW247785   2.366   6.319   0.263 -1.8325 -1.0871 -0.0817
47489SOL     OW47786   9.673   2.481   9.820 -0.2102  0.5456 -0.0323
47489SOL    HW147787   9.594   2.531   9.798 -0.6418 -0.4252 -0.7950
47489SOL    HW247788   9.725   2.483   9.740  0.5650  1.1943  0.4739
47490SOL     OW47789  10.514   7.776   5.088  0.3842  0.1502  0.1627
47490SOL    HW147790  10.537   7.739   5.002  0.1136 -0.5761  0.3962
47490SOL    HW247791  10.432   7.733   5.111 -0.4622  1.6416  0.0030
47491SOL     OW47792  10.273   7.287   5.565 -0.2606 -0.3323  0.4364
47491SOL    HW147793  10.284   7.226   5.637 -1.1025 -1.2508 -0.1899
47491SOL    HW247794  10.188   7.329   5.581 -0.2100 -0.1579  0.2581
47492SOL     OW47795   6.172   1.729   4.824  0.1408 -0.2950 -0.8130
47492SOL    HW147796   6.107   1.738   4.894  1.2661  1.0358  0.1062
47492SOL    HW247797   6.241   1.675   4.862  1.5130  1.7459 -0.2825
47493SOL     OW47798   2.529   7.613   8.235 -0.4978  0.4228 -0.1975
47493SOL    HW147799   2.598   7.583   8.176  0.2399  0.9819  0.3544
47493SOL    HW247800   2.546   7.706   8.245 -1.4363  0.5966 -0.1647
47494SOL     OW47801   6.321   7.117   9.571  0.1305  0.3059 -0.4023
47494SOL    HW147802   6.402   7.112   9.520  0.7290  0.6177  0.4919
47494SOL    HW247803   6.289   7.206   9.555 -0.5666 -0.1314 -1.5245
47495SOL     OW47804   9.699   0.597  10.894  0.1542  0.0167 -0.6983
47495SOL    HW147805   9.789   0.564  10.900  0.3243  0.7130  1.0628
47495SOL    HW247806   9.704   0.664  10.825  1.1060  0.3917 -0.2905
47496SOL     OW47807   4.201   3.888   3.626  0.3130  0.3007 -0.0416
47496SOL    HW147808   4.109   3.904   3.646  0.4351 -0.7675  1.5941
47496SOL    HW247809   4.234   3.972   3.594 -1.2398  0.6668 -0.7543
47497SOL     OW47810   6.959   8.065   7.263  0.5746  1.0355  0.2408
47497SOL    HW147811   7.016   8.009   7.316  0.5764 -0.2301 -1.0517
47497SOL    HW247812   6.992   8.055   7.174 -1.9670 -0.1681 -0.6525
47498SOL     OW47813   1.034   0.973   0.096 -0.1883  0.5502 -1.1712
47498SOL    HW147814   0.988   0.928   0.024  0.1332  0.4697 -1.3270
47498SOL    HW247815   1.008   0.925   0.174  1.8089 -1.2851 -1.5499
47499SOL     OW47816   9.681   9.498   4.137  0.2729  0.3885  0.6284
47499SOL    HW147817   9.619   9.548   4.083  2.3301  0.7866 -1.5587
47499SOL    HW247818   9.731   9.564   4.183  1.6080  0.3268 -0.6562
47500SOL     OW47819   7.585   0.437   7.277 -0.7052 -0.1186  0.2629
47500SOL    HW147820   7.680   0.438   7.270 -0.7856 -0.7894 -1.1183
47500SOL    HW247821   7.559   0.527   7.257 -0.3520  0.1809  1.0951
47501SOL     OW47822   4.862  11.527   2.815 -0.1483  0.8396  0.5455
47501SOL    HW147823   4.809  11.573   2.750 -1.8947 -1.5884  0.1291
47501SOL    HW247824   4.840  11.570   2.898 -2.4701  0.2498  0.3177
47502SOL     OW47825   4.989  10.314   3.749 -0.0791  0.4371 -0.4911
47502SOL    HW147826   5.065  10.303   3.690 -0.7450 -0.1397 -1.2678
47502SOL    HW247827   5.022  10.286   3.834  0.5290 -0.0381 -0.8636
47503SOL     OW47828   5.710   5.279   0.268 -0.2343 -0.0514  0.0563
47503SOL    HW147829   5.760   5.273   0.187 -1.2265  0.8457 -0.6468
47503SOL    HW247830   5.678   5.369   0.270 -1.8388 -0.6067  0.4607
47504SOL     OW47831   1.920   0.589   5.687 -0.2161 -0.0260 -0.4804
47504SOL    HW147832   1.918   0.497   5.714 -1.2292 -0.0246 -0.5320
47504SOL    HW247833   1.953   0.587   5.597 -0.0084 -0.3123 -0.4002
47505SOL     OW47834   5.290   1.816   7.041  0.7566 -0.0842 -0.2995
47505SOL    HW147835   5.366   1.873   7.033  0.7748 -0.1301 -0.4472
47505SOL    HW247836   5.229   1.866   7.096  0.7202  0.1297 -0.5338
47506SOL     OW47837   3.430   8.779   7.114  0.3176  0.0483 -0.2509
47506SOL    HW147838   3.521   8.748   7.113  0.0732 -0.6992  0.0797
47506SOL    HW247839   3.384   8.721   7.054 -0.2290 -0.5170  0.6921
47507SOL     OW47840   6.795   2.478   9.630  0.0352 -0.0103 -0.4554
47507SOL    HW147841   6.762   2.393   9.603  0.9657 -0.4237 -0.3124
47507SOL    HW247842   6.882   2.484   9.591 -0.6315  1.5597 -1.8258
47508SOL     OW47843   7.369   9.364   9.148 -0.6233  0.0504 -0.5039
47508SOL    HW147844   7.376   9.289   9.089  2.7156  0.4025 -0.7162
47508SOL    HW247845   7.316   9.427   9.100 -0.3275 -0.7467 -1.9375
47509SOL     OW47846   1.565   7.694   4.954 -0.0547 -0.5422 -0.6577
47509SOL    HW147847   1.476   7.676   4.924  0.1622  0.2132 -1.8197
47509SOL    HW247848   1.561   7.782   4.991  0.1176 -0.6875 -0.2837
47510SOL     OW47849   6.302  10.859   0.920  0.6892  0.1915  0.0357
47510SOL    HW147850   6.378  10.829   0.871  0.5655  0.5882 -0.4008
47510SOL    HW247851   6.252  10.912   0.857  0.1939  0.1573  0.3940
47511SOL     OW47852   9.149  10.961   2.648 -0.3859 -1.3079 -0.0243
47511SOL    HW147853   9.198  11.039   2.621 -0.9660 -0.8935  0.1043
47511SOL    HW247854   9.080  10.953   2.582 -0.4812 -1.5688  0.1069
47512SOL     OW47855   7.649   4.185   4.075 -0.0308 -0.2771 -0.1981
47512SOL    HW147856   7.710   4.191   4.148  3.8529 -1.8023 -2.9736
47512SOL    HW247857   7.598   4.106   4.092  0.0332 -0.0203  1.3056
47513SOL     OW47858   7.643   5.987  10.386 -0.9126  0.2605 -0.7234
47513SOL    HW147859   7.633   6.047  10.312 -0.7897 -0.0186 -0.9703
47513SOL    HW247860   7.570   5.926  10.377 -1.3964  0.7334 -0.1213
47514SOL     OW47861  11.438  11.716   6.113  0.3443 -0.3537 -0.1076
47514SOL    HW147862  11.532  11.727   6.126  0.5836  0.9604 -2.3319
47514SOL    HW247863  11.424  11.738   6.021 -2.4575  1.7001  0.6596
47515SOL     OW47864   2.689   0.970   5.835  0.4684 -0.1220  0.4519
47515SOL    HW147865   2.715   1.054   5.873 -0.1647  0.6913 -0.8486
47515SOL    HW247866   2.652   0.921   5.909  0.8633  0.7264  1.2306
47516SOL     OW47867   9.263   4.553   3.310  0.0231  0.5201  0.2804
47516SOL    HW147868   9.170   4.574   3.312  0.3975  2.2627  0.7971
47516SOL    HW247869   9.266   4.457   3.305 -1.7847  0.4748 -0.4933
47517SOL     OW47870   9.502   0.063   7.494 -0.1363 -0.0730 -0.3769
47517SOL    HW147871   9.550   0.139   7.526  1.6898 -1.5941  0.6752
47517SOL    HW247872   9.523  -0.007   7.556 -0.1628 -1.9641 -2.3782
47518SOL     OW47873  11.111   6.099   9.607  0.3630  0.1851 -0.6603
47518SOL    HW147874  11.058   6.178   9.619  0.3182  0.1243 -0.4380
47518SOL    HW247875  11.052   6.027   9.628  0.1896  0.0479 -1.5918
47519SOL     OW47876   4.793   2.937   9.073 -0.3808 -0.2462  0.2266
47519SOL    HW147877   4.754   2.851   9.088  1.1605 -0.7484  1.5594
47519SOL    HW247878   4.861   2.922   9.007 -0.5039  0.0714  0.0242
47520SOL     OW47879  11.532   9.013   7.877  0.3791 -0.3271 -0.0652
47520SOL    HW147880  11.521   8.965   7.960  1.6802 -3.1289 -1.3762
47520SOL    HW247881  11.449   9.001   7.831  0.3402 -0.4395  0.0319
47521SOL     OW47882   3.458   5.017   6.831  0.2163 -0.0374  0.3348
47521SOL    HW147883   3.463   5.000   6.925  1.7541  0.1015  0.3015
47521SOL    HW247884   3.474   5.111   6.823  0.1252 -0.0549 -0.0749
47522SOL     OW47885   5.371   8.986   5.611 -0.2706 -0.0467  0.0930
47522SOL    HW147886   5.429   8.953   5.679 -0.2311  2.3874  1.3804
47522SOL    HW247887   5.393   8.936   5.533  0.9918 -1.6595  1.4200
47523SOL     OW47888   6.200   0.339   8.847 -0.2914 -0.4380  0.1965
47523SOL    HW147889   6.113   0.363   8.881 -0.9708  0.0800 -1.7680
47523SOL    HW247890   6.214   0.250   8.879 -1.4824 -0.4587  0.7081
47524SOL     OW47891   9.629   1.966  10.104 -0.0287  0.6607  0.0444
47524SOL    HW147892   9.554   2.022  10.124  0.3222  1.4978 -0.8796
47524SOL    HW247893   9.641   1.974  10.009  0.2555 -0.7154 -0.0655
47525SOL     OW47894   5.900   0.058   3.376 -0.2210 -0.0307  0.8764
47525SOL    HW147895   5.830   0.027   3.433 -1.6951  0.2543 -0.7263
47525SOL    HW247896   5.924  -0.019   3.324 -0.2756  0.2146  0.4876
47526SOL     OW47897  11.533   6.620   1.108 -0.2211 -0.3228 -0.2440
47526SOL    HW147898  11.441   6.642   1.121  0.0707  2.5443 -2.2405
47526SOL    HW247899  11.580   6.675   1.170  0.2292 -1.6201  0.6159
47527SOL     OW47900   5.795   1.944   7.477 -0.3008 -0.8057  0.3553
47527SOL    HW147901   5.889   1.933   7.491  0.3797 -0.3675 -3.0840
47527SOL    HW247902   5.770   2.015   7.537  1.7661 -0.2705  0.6404
47528SOL     OW47903   9.039   8.420   6.928  0.4934  0.0038  0.9769
47528SOL    HW147904   8.964   8.446   6.875  1.3909  1.5498  0.4091
47528SOL    HW247905   9.022   8.328   6.950 -1.1419  0.0799  0.1690
47529SOL     OW47906  10.448   0.547   4.874 -0.0220  0.6258 -0.1035
47529SOL    HW147907  10.401   0.512   4.949  0.7915 -0.7384 -0.1832
47529SOL    HW247908  10.450   0.642   4.888  0.1018  0.4105  1.5934
47530SOL     OW47909   5.516   9.823   4.782 -0.4460  0.1021  0.3036
47530SOL    HW147910   5.423   9.818   4.802 -1.0153  2.7641 -1.1386
47530SOL    HW247911   5.523   9.802   4.689  0.0805  1.6257 -0.0407
47531SOL     OW47912   2.948   1.734   8.876  0.4966 -0.0789 -0.4972
47531SOL    HW147913   2.987   1.696   8.798  0.3648  0.1703 -0.6866
47531SOL    HW247914   2.993   1.693   8.949  0.0294 -0.9580 -0.6921
47532SOL     OW47915   3.632  10.902   2.117 -0.1596 -0.3004 -0.0311
47532SOL    HW147916   3.691  10.968   2.080 -1.9615  0.4087 -1.8488
47532SOL    HW247917   3.689  10.829   2.141  1.4664  0.3764 -1.6231
47533SOL     OW47918  11.016   3.600  10.346  0.2924  0.5621  0.2897
47533SOL    HW147919  11.038   3.651  10.268 -1.8296  0.3845 -0.4943
47533SOL    HW247920  10.932   3.637  10.375 -0.2555 -1.1042  0.9278
47534SOL     OW47921   4.583   0.441  10.286 -0.0836  0.1698 -0.0346
47534SOL    HW147922   4.559   0.516  10.341 -3.0076 -0.3444 -0.4627
47534SOL    HW247923   4.529   0.369  10.320  0.5602 -1.0124 -1.4376
47535SOL     OW47924   0.002   3.591   3.050 -0.8782  0.1686 -0.0862
47535SOL    HW147925  -0.035   3.512   3.090 -0.7405 -0.6189 -1.4846
47535SOL    HW247926   0.096   3.581   3.060 -0.8277 -0.1829 -0.8699
47536SOL     OW47927   5.787  10.788   8.142 -0.0542  0.0079  0.7245
47536SOL    HW147928   5.874  10.748   8.138 -0.2184 -0.2487 -0.6739
47536SOL    HW247929   5.802  10.881   8.125 -0.1276 -0.1655 -0.3367
47537SOL     OW47930   1.011   1.515   9.855 -0.3171  0.5370  0.0935
47537SOL    HW147931   1.103   1.507   9.830 -0.5368 -1.2079 -0.2556
47537SOL    HW247932   0.979   1.591   9.807  1.1069  1.6234  0.7937
47538SOL     OW47933   2.260   5.022   0.140 -0.3307 -0.0537 -0.4836
47538SOL    HW147934   2.291   4.995   0.054 -1.8611  0.9157 -1.3888
47538SOL    HW247935   2.203   4.951   0.169 -0.4633 -0.0133 -0.6459
47539SOL     OW47936   4.180   5.810   2.409  1.1258  0.2141  0.1718
47539SOL    HW147937   4.157   5.725   2.447 -1.5797  0.5827 -0.3761
47539SOL    HW247938   4.162   5.872   2.479 -1.1498  0.6403 -0.6897
47540SOL     OW47939   9.092   9.420  10.580 -0.0860  0.5703  0.5262
47540SOL    HW147940   9.040   9.436  10.659  1.9258 -0.8652  2.2711
47540SOL    HW247941   9.129   9.332  10.593 -0.2872 -0.0402 -2.4089
47541SOL     OW47942   1.801   3.151   6.648 -0.3687  0.9098 -0.6362
47541SOL    HW147943   1.873   3.153   6.586 -1.7192 -0.1522 -2.3283
47541SOL    HW247944   1.725   3.181   6.598 -2.1011 -2.7196 -0.4765
47542SOL     OW47945   1.222   1.235  11.116  0.2378  0.0461  0.1258
47542SOL    HW147946   1.269   1.278  11.188  0.3858 -0.6741  0.4743
47542SOL    HW247947   1.269   1.152  11.104  0.4244  0.3098 -1.0438
47543SOL     OW47948   3.476  11.805   2.903  0.3314 -0.0410 -0.2071
47543SOL    HW147949   3.489  11.887   2.951  0.9196  1.7244 -3.1066
47543SOL    HW247950   3.458  11.833   2.813 -2.0108 -3.0754 -0.8250
47544SOL     OW47951   2.686  10.078   7.658  0.6120  0.3782  0.2604
47544SOL    HW147952   2.777  10.066   7.632  0.7353  0.0300  0.8288
47544SOL    HW247953   2.675  10.022   7.735 -0.0206  0.5892  0.3345
47545SOL     OW47954  11.821  10.715   0.508  0.1636 -0.2337  0.0620
47545SOL    HW147955  11.775  10.749   0.431 -3.5158  0.2417  2.2560
47545SOL    HW247956  11.881  10.786   0.533  2.2586 -0.8165 -2.8077
47546SOL     OW47957  11.603   5.744   4.816 -0.2194  0.1528  0.2016
47546SOL    HW147958  11.682   5.698   4.842 -0.0308  0.6805  0.5840
47546SOL    HW247959  11.571   5.785   4.897 -0.3829  0.6800 -0.1263
47547SOL     OW47960   3.143   1.776   0.351  0.0087  0.2083 -0.2252
47547SOL    HW147961   3.159   1.842   0.418  2.2604  1.5574 -1.9493
47547SOL    HW247962   3.204   1.705   0.372 -0.6940 -0.2769  0.2366
47548SOL     OW47963   0.010   0.798   3.126  0.4572  0.0624 -0.5755
47548SOL    HW147964   0.027   0.892   3.128 -0.0233  0.1533 -0.6494
47548SOL    HW247965  -0.081   0.790   3.155  0.5074 -0.3810 -0.5422
47549SOL     OW47966   6.436   4.159   7.286 -0.1170 -0.2181 -0.3004
47549SOL    HW147967   6.427   4.247   7.251  3.2326  1.6072  2.8079
47549SOL    HW247968   6.478   4.109   7.216  0.9561  1.6186 -1.0348
47550SOL     OW47969   4.139   3.033   6.318  0.5120 -0.0019  0.0393
47550SOL    HW147970   4.208   3.087   6.281  0.1829  0.3388 -0.0808
47550SOL    HW247971   4.062   3.051   6.264  0.6504 -1.3546 -0.6439
47551SOL     OW47972   3.690   1.266   1.410 -0.1617  0.6218 -0.1617
47551SOL    HW147973   3.630   1.269   1.335 -0.8480  1.1385  0.3861
47551SOL    HW247974   3.675   1.349   1.456 -1.5658 -0.6729  1.8902
47552SOL     OW47975   9.074   7.238   3.973  0.1449  0.2701 -0.0666
47552SOL    HW147976   9.041   7.312   3.921  2.5032  1.5994  0.1927
47552SOL    HW247977   9.045   7.258   4.062  1.8357  1.6521  0.2328
47553SOL     OW47978   0.147   8.590  10.033 -0.2106  0.8595  0.0229
47553SOL    HW147979   0.228   8.546  10.009  1.5881  2.4614  2.6160
47553SOL    HW247980   0.154   8.677   9.993 -1.0998  0.7411 -0.4323
47554SOL     OW47981  11.158   5.689  11.114  0.0225 -0.0311  0.1169
47554SOL    HW147982  11.221   5.642  11.168  1.3561 -0.5123 -1.7886
47554SOL    HW247983  11.211   5.739  11.052 -1.4428  0.5189 -0.7445
47555SOL     OW47984   5.726  10.392   2.541  0.8135  0.2231  0.1027
47555SOL    HW147985   5.684  10.327   2.484 -2.1124  0.2200  2.0406
47555SOL    HW247986   5.820  10.380   2.526  0.2748 -2.2437 -1.9763
47556SOL     OW47987   6.900   8.931   5.385  0.4590  0.1382  0.3467
47556SOL    HW147988   6.885   8.867   5.316 -0.5167  0.7512 -0.0316
47556SOL    HW247989   6.883   8.884   5.466 -1.3633  0.1850  0.0297
47557SOL     OW47990   8.604   8.922   4.008 -0.0591 -0.2853  0.6044
47557SOL    HW147991   8.611   8.981   4.083  0.1308  0.1537  0.2462
47557SOL    HW247992   8.683   8.940   3.956 -0.3175 -0.3980  0.1688
47558SOL     OW47993   6.992   2.890   3.890  0.2232 -0.2889  0.1433
47558SOL    HW147994   6.999   2.985   3.904 -0.6714 -0.0062 -1.0769
47558SOL    HW247995   7.007   2.852   3.976  0.2669  0.9857  0.7317
47559SOL     OW47996  10.902   9.406   2.612  0.0494  0.2033 -0.3928
47559SOL    HW147997  10.918   9.451   2.695  0.3259 -1.1320  0.2936
47559SOL    HW247998  10.807   9.402   2.605 -0.0516 -2.3230  1.3800
47560SOL     OW47999  10.528   3.875   4.085 -0.2502  0.4186  0.0553
47560SOL    HW148000  10.435   3.894   4.083  0.0803  2.3050 -2.8249
47560SOL    HW248001  10.570   3.960   4.075  1.7999 -0.4034  1.1176
47561SOL     OW48002   4.459   1.314  11.571  0.3769 -0.1308  0.1666
47561SOL    HW148003   4.386   1.253  11.563  0.7755 -0.6795  0.6243
47561SOL    HW248004   4.418   1.398  11.594 -0.0442 -0.6574  1.4130
47562SOL     OW48005   3.452   9.460   1.308 -0.1829  0.4318  0.5391
47562SOL    HW148006   3.397   9.477   1.384 -0.2319 -0.9234  0.8283
47562SOL    HW248007   3.396   9.409   1.249  1.1479 -2.2653  1.4694
47563SOL     OW48008   0.102   2.447  10.186  0.2249 -0.3326 -0.2858
47563SOL    HW148009   0.172   2.477  10.129  0.0130 -1.8081 -1.3834
47563SOL    HW248010   0.118   2.353  10.197  0.1146 -0.1639  1.9182
47564SOL     OW48011   4.473   4.490   6.001  0.3120  0.3305 -0.0687
47564SOL    HW148012   4.419   4.415   6.027  1.1555 -0.8920 -1.6739
47564SOL    HW248013   4.562   4.467   6.029  0.5550  0.8169 -0.4181
47565SOL     OW48014   1.233  11.061   4.864  0.0846  0.3505 -0.2188
47565SOL    HW148015   1.316  11.020   4.840  0.0039 -1.2628  1.9321
47565SOL    HW248016   1.184  11.066   4.782  1.8674  0.3182 -1.3377
47566SOL     OW48017  10.016   8.003   1.346 -0.0294  0.2920 -0.0806
47566SOL    HW148018  10.079   7.944   1.388  1.0905  1.1382 -0.5204
47566SOL    HW248019  10.069   8.077   1.316 -1.1981  0.8880 -0.7394
47567SOL     OW48020   9.419   5.813   7.970 -0.2077 -0.2709 -0.2900
47567SOL    HW148021   9.494   5.759   7.996 -1.0783 -0.7039  1.4782
47567SOL    HW248022   9.415   5.803   7.875  3.5563  1.9326 -0.8766
47568SOL     OW48023   3.551   3.409   8.633  0.4798 -0.0661 -0.2799
47568SOL    HW148024   3.590   3.481   8.584  0.2183  0.9666  0.9762
47568SOL    HW248025   3.625   3.370   8.681  0.4486  0.0259 -0.1573
47569SOL     OW48026   4.026   9.746   1.896 -0.0821  0.1236  0.3938
47569SOL    HW148027   3.944   9.785   1.927 -0.0493  0.5506 -0.0453
47569SOL    HW248028   4.068   9.712   1.975 -1.1472 -0.9972  0.5151
47570SOL     OW48029   4.526   3.718   0.737 -0.1746  0.6498 -0.1203
47570SOL    HW148030   4.584   3.756   0.803 -1.8213  0.4975  1.4732
47570SOL    HW248031   4.584   3.664   0.683  1.4369  1.8088  0.3620
47571SOL     OW48032   6.633   7.133  10.831 -0.1989  0.3871 -0.6299
47571SOL    HW148033   6.720   7.148  10.868 -1.3844  3.3548  1.3177
47571SOL    HW248034   6.592   7.068  10.888  0.3307 -0.2313 -0.9369
47572SOL     OW48035   0.900   4.058   0.301 -0.2918  0.1738  0.2377
47572SOL    HW148036   0.878   3.987   0.361 -0.4029  1.3710  1.6564
47572SOL    HW248037   0.992   4.044   0.279 -0.9645 -1.8961 -1.6388
47573SOL     OW48038   9.563   4.773  10.246  0.1909  0.2847  1.0591
47573SOL    HW148039   9.487   4.830  10.255 -0.3767 -0.0524 -1.1321
47573SOL    HW248040   9.637   4.832  10.232 -0.2231  0.5267 -0.1441
47574SOL     OW48041   1.510   4.481   7.572  0.0706  0.0731 -0.3518
47574SOL    HW148042   1.508   4.520   7.484 -0.1794  1.2907  0.1749
47574SOL    HW248043   1.519   4.556   7.631 -0.7068 -0.6519  0.7146
47575SOL     OW48044   7.059   3.402   2.333  0.0210 -0.4394 -0.3657
47575SOL    HW148045   7.081   3.455   2.410  1.9998  0.1613 -1.2793
47575SOL    HW248046   7.088   3.313   2.356 -0.4696 -0.5064  0.0070
47576SOL     OW48047   9.135  10.822   9.113  0.1246  0.2686 -0.7004
47576SOL    HW148048   9.124  10.831   9.207  0.0616 -0.8230 -0.5878
47576SOL    HW248049   9.192  10.895   9.088 -0.2813  0.8692  0.0932
47577SOL     OW48050   3.862   0.847   1.789 -0.5046 -0.3432 -0.7616
47577SOL    HW148051   3.857   0.866   1.695  0.6098 -0.3950 -0.8387
47577SOL    HW248052   3.859   0.752   1.795  1.4970 -0.4602 -0.9176
47578SOL     OW48053   6.000   2.607  10.568  0.1445 -0.9026 -0.6618
47578SOL    HW148054   6.075   2.649  10.609  0.8680  0.2537 -3.0273
47578SOL    HW248055   6.036   2.557  10.495 -1.2837 -1.0077 -1.3441
47579SOL     OW48056   2.744   1.369  10.314  0.4117 -0.0652 -0.3704
47579SOL    HW148057   2.769   1.444  10.369  1.0363  0.1040 -0.8621
47579SOL    HW248058   2.660   1.341  10.349  1.5869 -1.1003  1.8608
47580SOL     OW48059   2.107   9.307   3.169 -0.2477 -0.5733  0.4385
47580SOL    HW148060   2.181   9.278   3.223 -0.0709 -0.3781  0.3081
47580SOL    HW248061   2.064   9.374   3.223  0.7174  0.5932 -0.1759
47581SOL     OW48062   2.056   9.038   4.659 -0.5722  0.3015  0.2006
47581SOL    HW148063   2.132   9.070   4.609 -0.1916  0.2786  0.7624
47581SOL    HW248064   2.093   8.976   4.721 -1.2306 -0.8117 -0.4846
47582SOL     OW48065   8.254   1.104  11.115  0.9973 -0.1464  0.3784
47582SOL    HW148066   8.249   1.053  11.196 -1.9021  1.8179  1.6157
47582SOL    HW248067   8.184   1.068  11.060  1.4491  0.0221 -0.3123
47583SOL     OW48068   4.183   7.162   7.475  0.0301  0.0440 -0.2943
47583SOL    HW148069   4.215   7.111   7.400 -1.0494  0.0694 -0.8007
47583SOL    HW248070   4.123   7.102   7.521 -0.8775  0.6666 -0.6244
47584SOL     OW48071   1.754   7.064  11.102  0.0439 -0.7613  0.0511
47584SOL    HW148072   1.680   7.122  11.114  0.2479 -0.1682 -1.3220
47584SOL    HW248073   1.716   6.981  11.074 -0.1042 -0.3516 -1.0036
47585SOL     OW48074  11.117   2.152   5.947  0.6893 -0.0710  0.2004
47585SOL    HW148075  11.160   2.081   5.995  2.0576 -0.1243 -1.0323
47585SOL    HW248076  11.169   2.229   5.968  3.0379 -0.5161 -3.0985
47586SOL     OW48077   3.350   8.948   8.441  0.4004 -0.0881 -0.3911
47586SOL    HW148078   3.431   8.962   8.393  0.6588 -2.6831 -0.8179
47586SOL    HW248079   3.352   9.014   8.510  3.0180 -0.2607 -0.2036
47587SOL     OW48080   3.845  11.449   7.999  0.1654 -0.7150  0.8421
47587SOL    HW148081   3.838  11.534   7.955  3.5268 -1.0820 -0.6530
47587SOL    HW248082   3.870  11.470   8.089  0.9868 -0.0983  0.4772
47588SOL     OW48083  11.327   6.411   2.350  0.0323  0.0057  0.2667
47588SOL    HW148084  11.332   6.407   2.446 -0.0788 -0.6370  0.2509
47588SOL    HW248085  11.239   6.444   2.332  0.4108  1.1460  0.3913
47589SOL     OW48086   9.620   2.065   8.840 -0.0015 -0.8422  0.0737
47589SOL    HW148087   9.574   1.986   8.815  2.9721 -2.5857 -0.4056
47589SOL    HW248088   9.684   2.036   8.906  0.4593  1.3683  0.6865
47590SOL     OW48089   4.579   6.628   3.206  0.0702  0.2046  0.0212
47590SOL    HW148090   4.675   6.633   3.212  0.1167 -1.3300  1.0697
47590SOL    HW248091   4.563   6.599   3.116  0.7668 -1.9778  0.5240
47591SOL     OW48092   2.171  10.058   4.375 -0.0214 -0.1548  0.1452
47591SOL    HW148093   2.130   9.972   4.365  0.0246 -0.0195 -1.4290
47591SOL    HW248094   2.155  10.082   4.466 -0.5664 -1.5603  0.4355
47592SOL     OW48095  10.291   0.851   4.925  0.7331 -0.1984  0.1476
47592SOL    HW148096  10.269   0.935   4.967  2.6026  0.6530 -0.4380
47592SOL    HW248097  10.297   0.789   4.998 -1.7308 -0.1398  0.4871
47593SOL     OW48098   6.446   0.068  11.595  0.2026 -0.0012  0.1624
47593SOL    HW148099   6.495   0.148  11.575 -0.0426  0.1571  0.1915
47593SOL    HW248100   6.511  -0.002  11.587  0.5346  0.2478  0.6093
47594SOL     OW48101   3.535   3.959   3.923 -0.2356  0.2148 -0.3208
47594SOL    HW148102   3.442   3.958   3.899 -0.4762  0.4253  0.5403
47594SOL    HW248103   3.560   3.867   3.929 -0.4997  0.1488 -0.1850
47595SOL     OW48104   5.003   5.916   3.719 -0.4567  0.3756 -0.4407
47595SOL    HW148105   5.034   5.896   3.807 -1.2907  0.0918 -0.2093
47595SOL    HW248106   5.058   5.990   3.691 -0.9245  1.2183  0.7561
47596SOL     OW48107   5.033   4.565   1.406  0.3638 -0.0100 -0.3167
47596SOL    HW148108   4.980   4.644   1.411  0.3771 -0.0756  1.1035
47596SOL    HW248109   5.115   4.593   1.366  0.4244  0.7330  0.3083
47597SOL     OW48110   1.575  11.149  10.131 -0.7998  0.0407 -0.2597
47597SOL    HW148111   1.664  11.181  10.115 -0.7261 -0.6934 -1.4510
47597SOL    HW248112   1.587  11.064  10.173 -0.8955 -0.5681 -1.4219
47598SOL     OW48113   4.177   2.588   4.207  0.2807  0.0233  0.3619
47598SOL    HW148114   4.138   2.504   4.231  0.8191 -0.4195 -0.2927
47598SOL    HW248115   4.255   2.565   4.158  0.2410  0.9119 -0.1361
47599SOL     OW48116   3.406   0.919   1.463  0.3438  0.4134  0.4328
47599SOL    HW148117   3.377   0.947   1.376 -0.1808  0.6346  0.6767
47599SOL    HW248118   3.452   0.995   1.499  2.4322 -0.3367 -0.4591
47600SOL     OW48119   5.936   4.572   7.652  0.3411 -0.2625 -0.5079
47600SOL    HW148120   5.842   4.584   7.637  0.0107 -0.7501  0.9739
47600SOL    HW248121   5.942   4.542   7.743  1.7191 -3.1103 -1.4167
47601SOL     OW48122  11.445   3.611   6.586 -0.1923  0.4855  0.3433
47601SOL    HW148123  11.392   3.642   6.660 -0.0518  0.1021  0.6064
47601SOL    HW248124  11.529   3.656   6.596  0.4713 -0.9252  1.4690
47602SOL     OW48125   5.146   7.430   3.315  0.6589  0.3518 -0.3108
47602SOL    HW148126   5.120   7.444   3.224  0.2763  1.0920 -0.0968
47602SOL    HW248127   5.162   7.336   3.321  1.1253  0.3594 -1.2480
47603SOL     OW48128   7.346   6.225   8.837  0.6203 -0.8721 -0.8708
47603SOL    HW148129   7.304   6.288   8.895  0.0244 -0.6174 -1.5714
47603SOL    HW248130   7.278   6.199   8.775  0.3449 -3.4718  0.3833
47604SOL     OW48131  11.286   5.987   4.506 -0.0721 -0.6425  0.1838
47604SOL    HW148132  11.191   5.995   4.505  0.0215  0.5485  0.1489
47604SOL    HW248133  11.307   5.961   4.596 -0.3721 -0.1070  0.4122
47605SOL     OW48134   4.583  10.728   1.964  0.2312 -0.5159  0.6769
47605SOL    HW148135   4.604  10.814   2.000  1.2886 -0.1212 -0.8392
47605SOL    HW248136   4.491  10.714   1.989 -0.5927  1.9166 -0.6696
47606SOL     OW48137  10.929   9.480   6.289  0.6912  0.1215  0.0328
47606SOL    HW148138  10.956   9.431   6.367  0.8911  0.6177  0.2789
47606SOL    HW248139  11.009   9.488   6.237  0.4854 -0.4974 -0.3865
47607SOL     OW48140  10.802  10.024   1.374 -0.8108 -0.1425 -0.0389
47607SOL    HW148141  10.883   9.989   1.336 -0.6352  0.0873  0.1195
47607SOL    HW248142  10.749   9.947   1.394 -2.4158 -0.2911 -3.9179
47608SOL     OW48143   2.614   3.862   7.547  0.2778  0.0771  0.3307
47608SOL    HW148144   2.621   3.954   7.572  0.2963  0.3662 -0.7000
47608SOL    HW248145   2.670   3.853   7.470 -0.4454 -0.5827 -0.1374
47609SOL     OW48146   4.808   5.470   6.326  0.0609  0.2249  0.0491
47609SOL    HW148147   4.778   5.465   6.416  2.0193 -0.9696  0.6838
47609SOL    HW248148   4.802   5.381   6.293  1.5500  0.2081 -0.2301
47610SOL     OW48149   3.612  10.714   0.619  0.0490 -0.0641 -0.3413
47610SOL    HW148150   3.678  10.720   0.550  0.6747  0.2746  0.2719
47610SOL    HW248151   3.565  10.633   0.600 -0.8077  0.7710 -2.0439
47611SOL     OW48152   7.331   4.005   2.563  0.7237 -0.1079  0.5776
47611SOL    HW148153   7.401   3.960   2.515  1.1451  1.0176  0.1063
47611SOL    HW248154   7.270   4.033   2.494 -0.4806 -1.4975  1.0142
47612SOL     OW48155   9.916   8.313   3.355  0.1960 -0.1615  0.0885
47612SOL    HW148156   9.883   8.403   3.356 -0.4087 -0.3773  0.0161
47612SOL    HW248157   9.952   8.302   3.267 -0.9590 -0.4152 -0.3706
47613SOL     OW48158   4.045   6.382   0.675  0.5754  0.1698  0.0475
47613SOL    HW148159   4.089   6.452   0.723 -0.8523  1.1090  0.0416
47613SOL    HW248160   3.983   6.345   0.739  2.3365 -2.1341  0.5353
47614SOL     OW48161   3.159   9.256   6.444  0.2607 -0.2319 -0.2283
47614SOL    HW148162   3.082   9.205   6.419 -0.6289 -0.4010  2.5566
47614SOL    HW248163   3.143   9.282   6.535  2.9550  0.7748  0.0597
47615SOL     OW48164   0.570   9.420   4.162 -0.4625  0.0873  0.8635
47615SOL    HW148165   0.601   9.330   4.152 -0.2245  0.2423  0.1922
47615SOL    HW248166   0.596   9.445   4.251  1.7246  0.3497  0.2030
47616SOL     OW48167   9.993   6.641   9.453 -0.1687  0.1953 -0.2556
47616SOL    HW148168  10.009   6.596   9.370 -0.4652  0.2589 -0.3497
47616SOL    HW248169   9.904   6.615   9.477  0.3116 -0.7348  0.6142
47617SOL     OW48170   9.080   6.394   7.859  0.0086 -0.2563  0.3042
47617SOL    HW148171   9.136   6.361   7.929  1.5694  2.0806  0.2708
47617SOL    HW248172   9.088   6.489   7.864 -3.1169  0.1575 -0.4615
47618SOL     OW48173  10.672   4.241   5.923  0.0413  0.2846 -0.4386
47618SOL    HW148174  10.684   4.328   5.887  0.0762 -0.4388 -2.2745
47618SOL    HW248175  10.628   4.192   5.854  0.6374 -1.3413  0.2799
47619SOL     OW48176  10.783  10.949   5.883  0.5237  0.4671 -0.1160
47619SOL    HW148177  10.871  10.985   5.892  0.5938 -0.1058  1.8905
47619SOL    HW248178  10.798  10.856   5.865  0.4614 -0.4369  3.6803
47620SOL     OW48179   2.207   7.217  10.332 -0.4739  0.3908 -0.1659
47620SOL    HW148180   2.112   7.219  10.325 -0.4961  1.2897  0.1707
47620SOL    HW248181   2.238   7.234  10.243 -0.6096 -0.8683 -0.4641
47621SOL     OW48182   0.426   2.645   8.864 -0.0967  0.5868  0.2123
47621SOL    HW148183   0.499   2.695   8.902  0.0924  0.6006 -0.1708
47621SOL    HW248184   0.429   2.561   8.910 -0.1501  0.7673  0.5534
47622SOL     OW48185   7.844  11.309   0.233  0.6759  0.1295  0.5992
47622SOL    HW148186   7.909  11.366   0.191  1.5935 -1.1979  0.1754
47622SOL    HW248187   7.843  11.230   0.180  0.1777 -0.6746  1.7727
47623SOL     OW48188   7.557  10.070   0.785  0.0429 -0.4006  0.6478
47623SOL    HW148189   7.615  10.110   0.720 -0.4854 -1.7101 -0.7097
47623SOL    HW248190   7.478  10.124   0.782 -0.1490 -0.7061 -0.1606
47624SOL     OW48191   2.942   6.899   2.037 -0.2542  0.2118 -0.1070
47624SOL    HW148192   2.888   6.961   2.085 -0.8571 -1.2385  1.1886
47624SOL    HW248193   3.003   6.864   2.102 -0.5602 -1.2183 -0.5410
47625SOL     OW48194  11.478   1.942   5.597  0.8060  0.1186 -0.3859
47625SOL    HW148195  11.507   1.930   5.687 -1.5644  1.6090  0.6901
47625SOL    HW248196  11.477   2.037   5.585 -0.3414 -0.0050 -1.4458
47626SOL     OW48197   1.913  11.379   3.699 -0.7216 -0.4663  0.2462
47626SOL    HW148198   1.936  11.287   3.681 -0.8019 -0.0491 -2.5048
47626SOL    HW248199   1.965  11.429   3.636 -1.3876  1.3291  1.0652
47627SOL     OW48200  10.014   9.003   7.983 -0.0821 -0.1845  0.0938
47627SOL    HW148201   9.923   9.012   7.955  0.4058  1.6243 -1.1128
47627SOL    HW248202  10.011   9.006   8.078 -1.3531 -1.1219  0.1052
47628SOL     OW48203   8.166   2.309   8.466 -0.3487  0.4950  0.1700
47628SOL    HW148204   8.108   2.268   8.402  0.3794 -0.9550  0.4164
47628SOL    HW248205   8.239   2.344   8.413  0.0513 -0.3460  0.1582
47629SOL     OW48206   3.807   4.555   9.689 -0.2779  0.0620  0.8460
47629SOL    HW148207   3.900   4.573   9.703  0.3036 -0.5413 -1.7274
47629SOL    HW248208   3.800   4.460   9.695 -0.7632  0.1100  1.1257
47630SOL     OW48209   4.416   6.047   1.538  0.4827 -0.1071  0.5582
47630SOL    HW148210   4.470   6.124   1.521  1.0499 -0.7839 -0.9086
47630SOL    HW248211   4.458   5.977   1.487 -0.1164 -1.3465  1.7154
47631SOL     OW48212   0.676  11.726   3.455  0.1517  0.4515 -0.0122
47631SOL    HW148213   0.723  11.809   3.461  1.9286 -0.5188  0.0794
47631SOL    HW248214   0.634  11.716   3.541  1.7001  0.2629  0.7466
47632SOL     OW48215  10.022   9.455   8.435  0.2078 -0.1370  0.3574
47632SOL    HW148216   9.988   9.464   8.524 -0.8992 -1.7591  0.1579
47632SOL    HW248217  10.048   9.363   8.429  2.7190  0.5325 -0.2169
47633SOL     OW48218   7.772   0.017   5.128 -0.7306 -0.0880  0.2832
47633SOL    HW148219   7.688   0.052   5.099 -0.8213  1.0316  1.7574
47633SOL    HW248220   7.807   0.085   5.186  0.9404 -0.7741  0.1225
47634SOL     OW48221   9.705   1.464   0.665 -0.0039 -0.0710 -0.6288
47634SOL    HW148222   9.762   1.386   0.661 -0.3944 -0.4130  0.2528
47634SOL    HW248223   9.657   1.454   0.747 -0.5832  0.7481 -0.8613
47635SOL     OW48224   8.823   4.006   1.962  0.1927 -0.1359  0.4803
47635SOL    HW148225   8.894   3.951   1.994  0.4800  0.1129  0.2756
47635SOL    HW248226   8.819   3.987   1.868  2.6716  2.7668 -0.3703
47636SOL     OW48227   2.727   8.181   8.466 -0.1827  0.0497  0.1017
47636SOL    HW148228   2.651   8.184   8.524  1.1678  1.7431  1.9132
47636SOL    HW248229   2.770   8.098   8.487  0.4655  0.7875  1.8198
47637SOL     OW48230  10.597   8.509   4.099  0.7309  0.0972  0.0242
47637SOL    HW148231  10.662   8.485   4.033  0.0804  1.0305 -0.9671
47637SOL    HW248232  10.534   8.437   4.096 -0.4223  1.1109 -1.8994
47638SOL     OW48233   1.163   9.322   2.467 -0.4409  0.0585  0.1449
47638SOL    HW148234   1.105   9.260   2.512 -1.2560 -0.2628 -1.2914
47638SOL    HW248235   1.237   9.333   2.527 -0.2878 -2.2660  0.4924
47639SOL     OW48236   1.999   1.926   1.557  0.2369  0.0941 -0.0184
47639SOL    HW148237   1.971   2.017   1.555  0.1521  0.0723 -2.2713
47639SOL    HW248238   1.951   1.888   1.631 -0.3820  1.6562  0.4276
47640SOL     OW48239   3.971   5.567  11.337  0.0440  0.3745 -0.5179
47640SOL    HW148240   3.911   5.494  11.348 -1.7665  1.6446 -1.4840
47640SOL    HW248241   3.932   5.620  11.268  1.9823  1.5833 -0.7560
47641SOL     OW48242   6.842   0.428   2.064  0.2320  0.0115  0.0557
47641SOL    HW148243   6.912   0.365   2.082 -0.5544 -1.0541 -0.5020
47641SOL    HW248244   6.850   0.447   1.971 -0.4758 -0.4510 -0.1076
47642SOL     OW48245  10.855   4.000   6.038 -0.3897 -0.2081  0.0372
47642SOL    HW148246  10.852   4.066   5.969  0.5840  0.5156  0.6500
47642SOL    HW248247  10.771   4.007   6.082 -0.7079 -0.1239 -0.5707
47643SOL     OW48248   2.296  10.271   9.077 -0.1122  0.2586 -0.2508
47643SOL    HW148249   2.304  10.363   9.053 -2.7253  0.2797 -1.4288
47643SOL    HW248250   2.220  10.268   9.135 -0.2116 -1.1726 -0.4134
47644SOL     OW48251   2.677   9.427   8.116  0.2588  0.3554  0.2259
47644SOL    HW148252   2.626   9.377   8.181 -0.6962 -0.1013 -0.8435
47644SOL    HW248253   2.683   9.515   8.153 -0.1810  0.0814  0.9805
47645SOL     OW48254   9.915   1.952   7.091 -1.3130  0.2883  0.1345
47645SOL    HW148255   9.973   2.020   7.126 -0.3955  0.4007 -1.4714
47645SOL    HW248256   9.974   1.892   7.046 -2.3972  0.1811 -1.2087
47646SOL     OW48257  11.608  10.207  11.799  0.2153  0.2169 -0.6598
47646SOL    HW148258  11.594  10.301  11.785 -0.3185  0.1402 -0.6416
47646SOL    HW248259  11.703  10.198  11.803  0.3567  0.5074 -2.4410
47647SOL     OW48260  10.252   8.413   3.916 -0.5791  0.1010 -0.0340
47647SOL    HW148261  10.291   8.362   3.987 -1.2613  0.6515  0.7430
47647SOL    HW248262  10.200   8.349   3.867 -0.5192 -0.1797  0.2636
47648SOL     OW48263   8.349  11.054   0.974 -0.7554 -0.0130 -0.4575
47648SOL    HW148264   8.420  10.996   0.998 -1.6319 -0.5897  0.8356
47648SOL    HW248265   8.289  10.999   0.924 -0.0841  0.6008 -2.0181
47649SOL     OW48266   0.889  10.297   6.366  0.0952  0.2475  0.1277
47649SOL    HW148267   0.840  10.348   6.430  0.9160  0.5809  0.5122
47649SOL    HW248268   0.950  10.360   6.327 -0.0211 -0.0733 -0.6007
47650SOL     OW48269   6.070   0.962  11.703 -0.9168  0.2566 -0.2395
47650SOL    HW148270   6.159   0.935  11.723 -0.8280 -1.1755 -2.2472
47650SOL    HW248271   6.075   1.057  11.693  0.2131  0.2766  0.4542
47651SOL     OW48272   0.427   8.902  10.644 -0.0772  0.0628  0.0939
47651SOL    HW148273   0.359   8.926  10.708  0.3585  1.6790 -0.0144
47651SOL    HW248274   0.506   8.893  10.696  0.4068  1.9593 -0.2298
47652SOL     OW48275   3.571   1.497   4.247 -0.2816 -0.9489 -0.4291
47652SOL    HW148276   3.624   1.546   4.310 -0.0737 -0.0584 -1.2748
47652SOL    HW248277   3.499   1.461   4.299  1.1679 -2.2553  0.7656
47653SOL     OW48278   5.832   6.857   4.404 -0.0373  0.5317 -0.3674
47653SOL    HW148279   5.800   6.798   4.473 -1.9786 -0.8288 -2.3026
47653SOL    HW248280   5.902   6.907   4.446 -1.4960  0.1985  2.7617
47654SOL     OW48281   0.527   8.643   0.733  0.1875  0.3439 -0.3627
47654SOL    HW148282   0.549   8.717   0.790  0.7743 -2.3079  3.1787
47654SOL    HW248283   0.431   8.647   0.725  0.0613  0.6789  1.0481
47655SOL     OW48284   1.141   2.540   0.154  0.6886  0.0373 -0.0313
47655SOL    HW148285   1.099   2.606   0.209 -0.8818 -1.3408  0.5465
47655SOL    HW248286   1.194   2.489   0.215  1.7714  0.6483 -0.4451
47656SOL     OW48287   1.364   9.357   9.054  0.7377 -0.2985 -0.0906
47656SOL    HW148288   1.454   9.388   9.048  0.8290 -0.7008 -0.8902
47656SOL    HW248289   1.311   9.432   9.030  0.8645 -0.1118  0.2117
47657SOL     OW48290   2.298   3.974   4.053  1.0766 -0.0863  0.3533
47657SOL    HW148291   2.392   3.958   4.068  1.0674 -0.4540  0.0281
47657SOL    HW248292   2.288   3.969   3.958  1.3166  3.1726  0.0465
47658SOL     OW48293   0.263   1.131   5.960  0.1294  0.0645  0.1676
47658SOL    HW148294   0.196   1.079   6.003 -0.1498 -0.2336 -0.6106
47658SOL    HW248295   0.260   1.103   5.868  1.1138  0.2541  0.0663
47659SOL     OW48296   5.058   4.107   5.054  0.3150  0.0713 -0.5450
47659SOL    HW148297   5.083   4.152   4.973 -0.8321  1.7381 -0.0235
47659SOL    HW248298   4.984   4.158   5.088 -0.7699 -1.9916  0.3354
47660SOL     OW48299   5.039   0.462  11.047  0.1823  0.3579  0.6730
47660SOL    HW148300   5.007   0.503  10.966  2.2551  1.6545  0.4349
47660SOL    HW248301   5.102   0.397  11.017 -1.3800 -1.4822  1.1739
47661SOL     OW48302   9.441   4.692  10.865 -0.5445  0.1615 -0.5270
47661SOL    HW148303   9.410   4.671  10.953  1.6343 -0.4133  0.1745
47661SOL    HW248304   9.507   4.759  10.878 -0.5594  0.4581 -1.7913
47662SOL     OW48305   9.763  10.145   6.038  0.2687  0.0557  0.1012
47662SOL    HW148306   9.840  10.132   5.982 -1.8169 -0.1932 -2.9353
47662SOL    HW248307   9.729  10.230   6.011  0.8934  1.4870  3.3797
47663SOL     OW48308   9.564   2.258   5.614 -0.2596 -0.5716  0.6313
47663SOL    HW148309   9.577   2.183   5.671  1.3929 -0.6707  0.1674
47663SOL    HW248310   9.537   2.220   5.530  1.1262 -0.7097  0.2319
47664SOL     OW48311   6.188   2.277   3.535  0.0142 -0.4258 -0.2658
47664SOL    HW148312   6.145   2.199   3.499 -1.7430  0.0270  0.7583
47664SOL    HW248313   6.175   2.344   3.468 -1.5266 -0.1201  0.2837
47665SOL     OW48314   4.712   2.386   0.180  0.1113  0.0588 -0.3125
47665SOL    HW148315   4.718   2.304   0.228 -0.7154 -0.3232 -0.8505
47665SOL    HW248316   4.799   2.397   0.142  0.1682 -0.6741 -0.4084
47666SOL     OW48317  11.236  10.649   4.289 -0.3964  0.4371  0.7411
47666SOL    HW148318  11.329  10.657   4.265 -0.2037  0.2072  1.4009
47666SOL    HW248319  11.191  10.711   4.231 -0.0188 -0.5302 -0.6517
47667SOL     OW48320   7.851   5.508  10.393  0.2706 -1.1028 -0.2997
47667SOL    HW148321   7.876   5.419  10.420  0.8082 -0.9371 -0.2473
47667SOL    HW248322   7.861   5.561  10.471 -0.1182 -0.9998 -0.3140
47668SOL     OW48323   5.630   9.498   0.070 -0.3167 -0.3375 -0.0478
47668SOL    HW148324   5.678   9.432   0.020  1.7936  0.3610  0.9320
47668SOL    HW248325   5.593   9.556   0.003  0.1276 -0.9644 -0.8645
47669SOL     OW48326   9.304   2.121   1.982  0.1580 -0.0636 -1.1207
47669SOL    HW148327   9.344   2.133   2.068 -1.1281 -2.0473 -0.1617
47669SOL    HW248328   9.256   2.202   1.965 -0.2046  0.0583  0.4091
47670SOL     OW48329   0.134   6.492   2.505 -0.3099 -0.5172  0.1540
47670SOL    HW148330   0.062   6.485   2.568 -0.5474 -1.3289 -0.1979
47670SOL    HW248331   0.206   6.531   2.555 -0.8150 -0.2150  0.6565
47671SOL     OW48332   0.511   2.820   0.037  0.3344  0.1856 -0.2256
47671SOL    HW148333   0.445   2.873   0.082  1.0048 -0.6472  1.9083
47671SOL    HW248334   0.503   2.733   0.078  2.2419 -0.1327 -0.4362
47672SOL     OW48335  10.700   8.790   4.778 -0.3344 -0.0758 -0.2153
47672SOL    HW148336  10.758   8.772   4.852 -0.8938  1.6270  0.7150
47672SOL    HW248337  10.645   8.713   4.771  0.0651 -0.4759  0.8200
47673SOL     OW48338   8.795   4.758  10.298 -0.4077 -0.5562  0.0923
47673SOL    HW148339   8.731   4.759  10.226 -1.3609  1.6405  0.8678
47673SOL    HW248340   8.750   4.713  10.369 -0.4790 -0.4477  0.1167
47674SOL     OW48341  11.686  10.522   9.991 -0.3445  0.0581 -0.7301
47674SOL    HW148342  11.704  10.607  10.030 -0.3774  0.5902 -1.8182
47674SOL    HW248343  11.641  10.472  10.059 -0.4727  0.9728 -0.1396
47675SOL     OW48344   5.105   1.623   8.206 -0.1495 -0.3108 -0.1134
47675SOL    HW148345   5.188   1.576   8.210  0.0350  0.0117 -0.0764
47675SOL    HW248346   5.054   1.578   8.140  0.0102 -0.5853 -0.0494
47676SOL     OW48347   2.918   8.301   7.835  0.6993 -0.0328  0.2329
47676SOL    HW148348   2.973   8.222   7.843  0.6825 -0.2535 -1.5273
47676SOL    HW248349   2.948   8.343   7.755  0.6199  1.7194  1.0843
47677SOL     OW48350   0.533  10.564   1.444 -0.5508  0.2133  0.4025
47677SOL    HW148351   0.503  10.578   1.533 -0.1099 -0.6361  0.6874
47677SOL    HW248352   0.494  10.636   1.394 -0.0681  1.2278  1.4395
47678SOL     OW48353   3.643   5.179  10.058 -0.4156  0.3587  0.4876
47678SOL    HW148354   3.550   5.191  10.040 -0.5158 -1.6397 -0.5857
47678SOL    HW248355   3.688   5.206   9.978 -0.0768  0.9026  0.8478
47679SOL     OW48356   9.527   3.130   6.255  0.8805  0.7727 -0.6547
47679SOL    HW148357   9.449   3.176   6.227  1.4101  1.0129 -1.7796
47679SOL    HW248358   9.503   3.091   6.340  0.5744  3.4705  0.5952
47680SOL     OW48359   0.408   9.394   7.946  0.5507  0.1610 -0.3542
47680SOL    HW148360   0.504   9.392   7.943  0.5663  0.0317  0.1480
47680SOL    HW248361   0.386   9.375   8.038  0.0853  1.7783 -0.1044
47681SOL     OW48362   2.789   8.984   8.048 -0.1177  0.0464 -0.1904
47681SOL    HW148363   2.824   9.017   8.131 -1.2932  1.9048 -0.3910
47681SOL    HW248364   2.739   8.907   8.072 -0.0192  0.2659  0.7545
47682SOL     OW48365   3.488   9.341   5.953 -0.2678  0.4200  0.7311
47682SOL    HW148366   3.408   9.391   5.969 -1.5924 -1.3225 -0.1086
47682SOL    HW248367   3.531   9.338   6.039 -1.6474  0.4947  1.4638
47683SOL     OW48368   5.935   7.556   7.818  0.5534 -0.1771  0.4976
47683SOL    HW148369   5.878   7.627   7.788 -0.8278 -0.5758  2.0059
47683SOL    HW248370   5.992   7.538   7.743 -2.6594 -1.1362 -1.9729
47684SOL     OW48371   8.901   7.889  10.237  0.0542  0.0661  0.3544
47684SOL    HW148372   8.835   7.929  10.294 -0.1144 -0.8199  0.8067
47684SOL    HW248373   8.882   7.923  10.150 -3.4591 -2.9376 -0.3080
47685SOL     OW48374   6.864   2.062  10.526 -0.0131 -0.2434  0.0614
47685SOL    HW148375   6.858   2.024  10.614  4.1344 -0.7262  0.3324
47685SOL    HW248376   6.797   2.129  10.525 -1.9635 -1.9261  2.6198
47686SOL     OW48377   6.313  11.449   2.705  0.1534 -0.1394 -0.0361
47686SOL    HW148378   6.309  11.368   2.654 -1.3457  1.3539 -2.5116
47686SOL    HW248379   6.391  11.439   2.760  1.1882 -2.4087 -1.7357
47687SOL     OW48380   3.592   6.515   5.435  0.6128  0.4945 -0.0662
47687SOL    HW148381   3.623   6.583   5.375 -0.2507  1.3938  0.4788
47687SOL    HW248382   3.669   6.460   5.451  0.7846  0.0248 -2.2415
47688SOL     OW48383   1.511   6.122   9.909 -0.8609 -0.4478 -0.1497
47688SOL    HW148384   1.573   6.170   9.853 -0.6636 -1.5498 -0.9113
47688SOL    HW248385   1.429   6.170   9.901 -0.0185  1.3713  1.3069
47689SOL     OW48386   7.950   6.249   4.409 -0.3514 -0.1913  0.3081
47689SOL    HW148387   7.943   6.341   4.386  0.0228  0.1360  1.4286
47689SOL    HW248388   7.861   6.223   4.432 -0.0463  0.7328  2.8972
47690SOL     OW48389   1.539   7.007   8.535 -0.1319  0.9146  0.1970
47690SOL    HW148390   1.550   7.087   8.586  0.1858  0.7770  0.3511
47690SOL    HW248391   1.498   6.945   8.596  0.3292  0.7218  0.3192
47691SOL     OW48392   5.057   2.363   2.387  0.0359 -0.0772 -0.4307
47691SOL    HW148393   5.133   2.325   2.431 -0.6162 -0.9847 -0.0560
47691SOL    HW248394   5.024   2.430   2.447  0.6852  0.5062 -0.7120
47692SOL     OW48395  11.577  10.134   1.916 -0.1982 -0.2750  0.2338
47692SOL    HW148396  11.662  10.091   1.904 -1.2665 -2.2759 -0.6593
47692SOL    HW248397  11.523  10.068   1.958 -1.6393  0.5524 -0.2568
47693SOL     OW48398  10.282   3.992  11.585 -0.3989 -0.7070  0.1511
47693SOL    HW148399  10.288   3.897  11.574 -0.5422 -0.6094 -0.9575
47693SOL    HW248400  10.277   4.025  11.495  0.0268  0.3770  0.5181
47694SOL     OW48401   0.395   5.508   9.668 -0.0474  0.2081  0.3757
47694SOL    HW148402   0.446   5.539   9.594  1.2376 -0.5877  0.9048
47694SOL    HW248403   0.305   5.502   9.634  0.3548  0.7351 -0.8369
47695SOL     OW48404   4.660   9.779   6.966 -0.1577 -0.0980  0.0265
47695SOL    HW148405   4.711   9.708   6.925  2.2451  1.4835  0.1131
47695SOL    HW248406   4.699   9.859   6.932 -3.1652  1.2770 -0.5095
47696SOL     OW48407   3.219   6.532   4.895  0.9313 -0.2478  0.0951
47696SOL    HW148408   3.136   6.563   4.860  0.4012  0.6037  1.9547
47696SOL    HW248409   3.285   6.583   4.850  0.2708  0.8961  0.3890
47697SOL     OW48410   5.456   7.970   7.905  0.6298 -0.5186  0.2519
47697SOL    HW148411   5.422   8.059   7.909  1.6320 -0.0228 -1.3672
47697SOL    HW248412   5.504   7.959   7.987  1.4633  0.8568 -0.0163
47698SOL     OW48413   5.577   9.519   9.692 -0.8553  0.7005 -0.5166
47698SOL    HW148414   5.625   9.437   9.682 -0.4025  0.7056  1.2741
47698SOL    HW248415   5.625   9.567   9.759 -1.2889  2.3180 -1.3105
47699SOL     OW48416  11.089  10.278   8.625 -0.0420  0.3045  0.0066
47699SOL    HW148417  11.132  10.356   8.659 -0.6903  0.5438  0.2966
47699SOL    HW248418  11.054  10.234   8.703  0.4037 -0.3333 -0.1422
47700SOL     OW48419   7.984   8.936   4.119 -0.1050 -0.0201  0.5317
47700SOL    HW148420   8.018   9.021   4.091  0.2841 -0.5968 -0.8229
47700SOL    HW248421   8.061   8.887   4.147 -0.2529 -0.1395  0.7329
47701SOL     OW48422   9.420   0.772   0.304 -0.3512  0.1318 -0.8706
47701SOL    HW148423   9.464   0.846   0.345 -0.5819 -0.7183  1.0021
47701SOL    HW248424   9.327   0.788   0.318 -0.5004  0.2808 -1.9200
47702SOL     OW48425   7.641   2.961   2.665 -0.3063 -0.1773  0.6725
47702SOL    HW148426   7.692   2.972   2.585  1.2348  2.7847  1.9244
47702SOL    HW248427   7.695   2.904   2.720 -0.6572 -0.9712  0.2111
47703SOL     OW48428   4.348   0.536   2.986  0.2418 -0.3708 -0.1238
47703SOL    HW148429   4.373   0.614   2.935 -0.2710  0.2931  0.6185
47703SOL    HW248430   4.424   0.478   2.980  0.5133  0.0588 -0.9398
47704SOL     OW48431   8.637   2.878   4.793  0.1269 -0.0301 -0.2270
47704SOL    HW148432   8.613   2.786   4.795 -1.8507  0.4316 -0.2933
47704SOL    HW248433   8.732   2.879   4.790  0.1524 -2.0717 -1.2360
47705SOL     OW48434   7.712  10.530   0.915  0.1013  0.1960 -0.1262
47705SOL    HW148435   7.753  10.444   0.903 -1.2122 -0.4579 -0.0625
47705SOL    HW248436   7.620  10.511   0.933 -0.6078  1.6902 -1.8901
47706SOL     OW48437   5.901  11.583  11.019 -0.1307  0.7456 -0.1285
47706SOL    HW148438   5.823  11.559  10.970 -0.2782 -1.6533  1.1528
47706SOL    HW248439   5.959  11.507  11.013  0.9853  1.4347  1.1303
47707SOL     OW48440   1.443   9.489  10.547 -0.0640 -0.4333 -0.2529
47707SOL    HW148441   1.523   9.498  10.598 -0.7329  1.7497  0.5270
47707SOL    HW248442   1.471   9.495  10.456  0.7251 -0.2558 -0.0037
47708SOL     OW48443   5.365   8.066   6.385  0.3175 -0.0587 -0.1626
47708SOL    HW148444   5.357   8.142   6.443  1.0679 -1.4316  1.8647
47708SOL    HW248445   5.275   8.047   6.359  0.1120  1.4855 -0.7078
47709SOL     OW48446  10.249   7.931   6.758 -0.1265 -0.0681  0.1847
47709SOL    HW148447  10.210   7.890   6.836 -1.3951  0.0846 -0.3372
47709SOL    HW248448  10.339   7.951   6.784 -0.1919 -1.0095  1.2437
47710SOL     OW48449   7.505   2.748   6.872 -0.0398 -0.3878  0.0807
47710SOL    HW148450   7.600   2.741   6.868 -0.0898 -1.3459  0.3374
47710SOL    HW248451   7.482   2.706   6.955 -0.7664 -1.1196 -0.4830
47711SOL     OW48452   6.500   5.821   4.615 -0.2087  0.0304  0.1105
47711SOL    HW148453   6.545   5.752   4.664 -0.2876 -0.1634 -0.0877
47711SOL    HW248454   6.514   5.900   4.667  0.7597  0.0655 -0.1880
47712SOL     OW48455   7.004   2.178   6.194 -0.4312  0.2582  0.1648
47712SOL    HW148456   7.068   2.245   6.173 -0.6584  0.2923 -0.4441
47712SOL    HW248457   7.054   2.097   6.197 -0.2599  0.3685  0.2936
47713SOL     OW48458   0.717   4.273  11.663 -0.5955  0.1191  0.2085
47713SOL    HW148459   0.778   4.204  11.636 -2.1548 -0.8466 -1.0484
47713SOL    HW248460   0.689   4.248  11.751  0.9414  0.7032  0.9025
47714SOL     OW48461   3.552   6.287   2.523 -0.0686  0.0916 -0.4029
47714SOL    HW148462   3.578   6.301   2.431 -0.5954  2.8324 -0.2067
47714SOL    HW248463   3.473   6.233   2.517 -0.0223  0.1177 -1.5554
47715SOL     OW48464   8.049   5.575   1.881  0.4901  0.4306  0.0526
47715SOL    HW148465   7.957   5.581   1.858  0.6129  3.4135 -0.0845
47715SOL    HW248466   8.073   5.484   1.863 -2.1687 -0.1894 -0.7544
47716SOL     OW48467  11.114   1.627   1.319 -0.3301 -0.1370 -0.3922
47716SOL    HW148468  11.026   1.648   1.287 -1.5563 -1.2701  1.9315
47716SOL    HW248469  11.129   1.688   1.391  0.8591  0.1046 -0.8222
47717SOL     OW48470  10.740   3.800   7.396 -0.1725  0.0429 -0.0079
47717SOL    HW148471  10.760   3.868   7.460  1.6592  1.2023 -1.7032
47717SOL    HW248472  10.756   3.718   7.443  0.9950  0.8539  1.0864
47718SOL     OW48473   1.355   2.344   0.538  0.4989  0.4357 -0.4649
47718SOL    HW148474   1.290   2.274   0.547 -0.7799  1.6833  0.3049
47718SOL    HW248475   1.434   2.308   0.580 -0.9351  0.4134  2.4367
47719SOL     OW48476   1.457  11.141   6.622  0.2417 -0.1501  0.1080
47719SOL    HW148477   1.552  11.155   6.626  0.0791  1.7281 -1.1082
47719SOL    HW248478   1.427  11.150   6.712  1.2471 -1.3370  0.5995
47720SOL     OW48479   7.930   9.842  10.976  0.1015 -0.6280 -0.5329
47720SOL    HW148480   7.950   9.752  11.000 -1.6920 -1.6346 -2.4880
47720SOL    HW248481   7.839   9.840  10.947 -0.4552  2.1246  0.6788
47721SOL     OW48482   7.903   7.656   8.844  0.1297 -0.5249  0.3283
47721SOL    HW148483   7.976   7.630   8.789  0.0862 -0.5384  0.2768
47721SOL    HW248484   7.825   7.628   8.796  0.0668  0.0875  0.0789
47722SOL     OW48485   5.532   8.496   5.938  1.0095 -0.3658 -0.2623
47722SOL    HW148486   5.498   8.560   5.876 -0.2822 -0.9124 -0.1476
47722SOL    HW248487   5.577   8.548   6.004  0.6374  0.3676 -0.5810
47723SOL     OW48488   9.798   2.852   9.311 -0.2296  0.0915 -0.5812
47723SOL    HW148489   9.891   2.852   9.336 -0.6142 -2.0743  1.1231
47723SOL    HW248490   9.783   2.940   9.278  2.0785  0.9876  0.4972
47724SOL     OW48491  11.767   9.834   2.135  0.3307  0.8122  0.1280
47724SOL    HW148492  11.804   9.808   2.219 -0.3726 -0.2276  0.1320
47724SOL    HW248493  11.739   9.925   2.147  2.6187  1.5690  0.1986
47725SOL     OW48494   1.555   9.712   9.843  0.4645  0.7716 -0.3239
47725SOL    HW148495   1.485   9.728   9.906 -1.1770 -0.0631 -1.8194
47725SOL    HW248496   1.593   9.628   9.870  2.1898  2.0778  1.5531
47726SOL     OW48497   3.851  11.238  11.406 -0.1169  0.4044 -0.0508
47726SOL    HW148498   3.844  11.249  11.501 -0.6116 -0.6081  0.0450
47726SOL    HW248499   3.763  11.214  11.378  0.1903 -0.0339 -0.6621
47727SOL     OW48500   4.205  10.415   9.259 -0.2147 -0.2264 -0.2165
47727SOL    HW148501   4.265  10.456   9.322  0.3680 -1.9944  0.4284
47727SOL    HW248502   4.119  10.450   9.283  0.4333  1.9617 -0.8311
47728SOL     OW48503  10.972   3.385   8.297 -0.2049  0.5358  0.3455
47728SOL    HW148504  11.011   3.423   8.219  0.4050  0.1436  0.4475
47728SOL    HW248505  10.882   3.417   8.298  0.3623  2.2299  0.5990
47729SOL     OW48506  10.262  10.766   6.635  0.3336 -0.1862 -0.2181
47729SOL    HW148507  10.356  10.749   6.642 -0.0646 -2.0621  1.1215
47729SOL    HW248508  10.252  10.858   6.661  1.6275 -0.4089  1.1575
47730SOL     OW48509   5.868   6.360   4.531  0.5404  0.8072 -0.2457
47730SOL    HW148510   5.827   6.328   4.612  0.4128  2.2339  0.2729
47730SOL    HW248511   5.900   6.280   4.488 -1.7937 -0.2796 -0.1430
47731SOL     OW48512   9.891  11.450   8.753  0.8720 -0.0587 -0.0364
47731SOL    HW148513   9.830  11.523   8.754  1.8106  0.7390  1.4087
47731SOL    HW248514   9.963  11.480   8.698  0.0343 -0.9906 -1.7223
47732SOL     OW48515   8.037   1.810   8.083  0.1392  0.3818 -0.2105
47732SOL    HW148516   8.127   1.780   8.095  0.8118  1.5355 -1.8763
47732SOL    HW248517   7.986   1.730   8.069  0.7346 -0.3400  1.5104
47733SOL     OW48518  11.720   1.914   1.197 -0.1156 -0.0436  0.2161
47733SOL    HW148519  11.653   1.889   1.133 -0.7401  1.6554  0.1675
47733SOL    HW248520  11.767   1.833   1.215 -1.4017 -1.0208 -0.6686
47734SOL     OW48521   7.776   0.068   9.470  0.1801  0.6883  0.0688
47734SOL    HW148522   7.834   0.103   9.402  0.2063 -1.3821 -1.0591
47734SOL    HW248523   7.832   0.058   9.547  0.6213  1.3263 -0.1641
47735SOL     OW48524   0.539   7.264   8.636 -0.0453 -0.0221  0.0380
47735SOL    HW148525   0.512   7.276   8.544 -1.1927  0.2869  0.3894
47735SOL    HW248526   0.583   7.179   8.637 -1.6412 -0.9021 -0.4890
47736SOL     OW48527   2.348   4.961   9.041 -0.2569 -0.0670 -0.1966
47736SOL    HW148528   2.382   5.027   9.102 -0.4499 -0.7674  0.6725
47736SOL    HW248529   2.253   4.976   9.040 -0.0259  2.3567 -3.1565
47737SOL     OW48530   5.127   0.030  10.067 -0.1683 -0.1355  0.4008
47737SOL    HW148531   5.054  -0.021  10.101 -2.2672  2.0200 -0.6028
47737SOL    HW248532   5.178  -0.033  10.016 -1.5499 -1.6353  0.7897
47738SOL     OW48533   2.104   6.019   5.700 -0.0064 -0.4012 -0.0488
47738SOL    HW148534   2.161   5.964   5.753  1.2490 -0.8743 -1.7983
47738SOL    HW248535   2.031   5.961   5.675 -0.4088 -0.2813  0.8152
47739SOL     OW48536   5.482   1.777   4.908  0.1464 -0.3062 -0.1437
47739SOL    HW148537   5.429   1.814   4.978  0.9690 -0.6764  0.6936
47739SOL    HW248538   5.528   1.703   4.948  1.8522  0.4387 -0.6138
47740SOL     OW48539   5.985  10.206   8.927 -0.1998  0.0385  0.1189
47740SOL    HW148540   6.048  10.254   8.873 -0.0337  1.2129  1.3000
47740SOL    HW248541   6.036  10.176   9.002 -0.2026 -2.4414 -0.7661
47741SOL     OW48542  10.241   0.570   2.885 -0.3518 -0.5382 -0.3379
47741SOL    HW148543  10.214   0.622   2.809 -0.2169  0.5469  0.3368
47741SOL    HW248544  10.325   0.609   2.912 -1.2844  0.3215  1.4742
47742SOL     OW48545  10.327   2.899   1.152 -0.1763 -0.0382  0.2117
47742SOL    HW148546  10.293   2.814   1.180 -0.4188  0.3873  1.2459
47742SOL    HW248547  10.282   2.963   1.208  0.5431  0.7169 -0.0499
47743SOL     OW48548   0.199   9.536   9.708  0.3739 -0.0844 -0.0245
47743SOL    HW148549   0.227   9.627   9.696  0.3308  0.1157  1.2559
47743SOL    HW248550   0.148   9.537   9.790 -3.0249 -0.5245 -1.9436
47744SOL     OW48551   6.277   9.971  11.221  0.1526  0.0806  0.3325
47744SOL    HW148552   6.317   9.975  11.307 -2.4247 -0.1955  1.6193
47744SOL    HW248553   6.256  10.062  11.199  0.7514  0.1444  0.0021
47745SOL     OW48554   3.711   8.004   6.805 -0.1511 -0.6345  0.2454
47745SOL    HW148555   3.783   8.017   6.743 -0.2456 -0.3323  0.2008
47745SOL    HW248556   3.752   7.957   6.878  1.1216  2.9997  2.1431
47746SOL     OW48557   4.907  10.768   8.645  0.4669  0.3741  0.1783
47746SOL    HW148558   4.958  10.802   8.572  0.3116 -0.8653 -0.5211
47746SOL    HW248559   4.973  10.739   8.709  0.6062  2.0379  0.8539
47747SOL     OW48560  10.132   7.423  11.221 -0.4887 -0.4526  0.1039
47747SOL    HW148561  10.086   7.449  11.302  1.4109  1.0262  0.7753
47747SOL    HW248562  10.096   7.337  11.200 -0.2379 -1.4187  3.1887
47748SOL     OW48563   5.848   4.484   6.334 -0.3363 -0.2366  0.4025
47748SOL    HW148564   5.932   4.519   6.364 -0.2662 -1.2385  1.4587
47748SOL    HW248565   5.783   4.543   6.371 -0.2009 -0.9576  1.8697
47749SOL     OW48566  10.923   2.525   7.312  0.2731  0.2289 -0.0464
47749SOL    HW148567  10.886   2.604   7.351 -1.5192 -0.2740 -0.6232
47749SOL    HW248568  10.991   2.497   7.374 -1.3040  0.3932  1.8541
47750SOL     OW48569   0.083   8.834   4.808  0.5632 -0.1832  0.7320
47750SOL    HW148570   0.011   8.896   4.816  0.0112 -0.9403  1.8151
47750SOL    HW248571   0.144   8.876   4.747 -2.1671 -0.8349 -2.7904
47751SOL     OW48572   5.348   6.968   1.750  0.3495 -0.1844  0.7855
47751SOL    HW148573   5.330   7.003   1.662  0.0280 -1.3760  0.3638
47751SOL    HW248574   5.441   6.986   1.764  0.2992  0.4164  0.3913
47752SOL     OW48575   5.073   7.179   7.992  0.2848 -0.0088  0.6953
47752SOL    HW148576   5.153   7.228   7.972  1.0415 -1.0161  1.1709
47752SOL    HW248577   5.045   7.143   7.908 -0.6680  1.7291  0.2020
47753SOL     OW48578   1.834   5.992  11.459 -0.4210  0.7998 -0.6735
47753SOL    HW148579   1.811   5.924  11.523 -1.2378  0.2909 -1.4741
47753SOL    HW248580   1.751   6.010  11.414 -0.1424  2.1188 -0.6830
47754SOL     OW48581   1.620  10.495   8.323  0.0938 -0.0744  0.2710
47754SOL    HW148582   1.639  10.495   8.230 -0.9199 -1.5732  0.0221
47754SOL    HW248583   1.532  10.532   8.330 -0.5311 -1.5162  0.4182
47755SOL     OW48584  10.488   6.861   7.415 -0.2971 -0.0125 -0.0401
47755SOL    HW148585  10.562   6.826   7.464 -1.4372 -2.1419  0.2740
47755SOL    HW248586  10.458   6.935   7.467 -0.2584 -1.0191  1.4646
47756SOL     OW48587   8.624   9.732   3.512  0.2740 -0.2120  0.4739
47756SOL    HW148588   8.601   9.817   3.550  1.9127  0.0139  1.0452
47756SOL    HW248589   8.577   9.729   3.429  0.8876  1.6574  0.0161
47757SOL     OW48590   3.334   6.144  11.485 -0.3275 -0.1230 -0.3982
47757SOL    HW148591   3.361   6.092  11.409  0.8202 -0.3382  0.1359
47757SOL    HW248592   3.375   6.229  11.471 -1.7845  0.5236 -1.0159
47758SOL     OW48593   5.033   2.074  10.613 -0.9534  0.3277 -0.5538
47758SOL    HW148594   5.023   2.071  10.518  0.5913  0.0446 -0.7384
47758SOL    HW248595   5.079   2.156  10.629  2.0974 -1.2476 -0.4696
47759SOL     OW48596   2.026  11.075   5.023 -0.3033 -0.8323  0.4668
47759SOL    HW148597   2.003  11.129   4.948 -0.4819 -0.8678  0.4943
47759SOL    HW248598   1.950  11.082   5.082 -0.3330 -1.1177  0.4648
47760SOL     OW48599   8.528   7.613   8.844 -0.0924  0.2983 -0.4808
47760SOL    HW148600   8.485   7.676   8.787  0.5119 -0.0899 -1.3827
47760SOL    HW248601   8.528   7.655   8.930  0.1225  1.4395 -1.0234
47761SOL     OW48602   6.476   5.990   1.870 -0.2595 -0.2169 -0.5053
47761SOL    HW148603   6.447   5.923   1.932  0.3708  0.5807  0.6968
47761SOL    HW248604   6.424   6.067   1.892  0.9398  0.4767 -0.0261
47762SOL     OW48605   9.013  10.529  11.348  0.6672  0.0840  0.1416
47762SOL    HW148606   9.069  10.598  11.382 -0.0594  1.1967 -0.8441
47762SOL    HW248607   8.936  10.575  11.313 -0.0443 -1.2523 -0.1287
47763SOL     OW48608   9.711  10.204   8.679  0.5580  0.4868  0.1409
47763SOL    HW148609   9.788  10.147   8.674 -0.3829 -0.9747  1.3265
47763SOL    HW248610   9.704  10.243   8.592  0.8525 -1.8009 -0.9874
47764SOL     OW48611   0.840   2.271   1.987  0.2393 -0.2196  0.5875
47764SOL    HW148612   0.772   2.247   2.050  0.2339  1.1394  1.1411
47764SOL    HW248613   0.803   2.346   1.940 -0.6933 -2.4986 -2.6684
47765SOL     OW48614   6.404   3.854   1.583 -0.1595 -0.4097  0.4458
47765SOL    HW148615   6.481   3.810   1.618 -0.0175  0.3783  1.1716
47765SOL    HW248616   6.438   3.935   1.545 -0.7531  0.6423  2.0507
47766SOL     OW48617   4.261   3.600   4.887 -0.0680  0.2410  0.3476
47766SOL    HW148618   4.329   3.598   4.954 -0.1786 -1.2755  0.4510
47766SOL    HW248619   4.270   3.686   4.846 -2.0676  2.6639  4.3707
47767SOL     OW48620   0.151   3.706   2.540  0.0019  0.4900  0.2896
47767SOL    HW148621   0.122   3.683   2.628  0.4732  0.0442  0.3294
47767SOL    HW248622   0.205   3.633   2.512  2.4610  1.9850  0.8480
47768SOL     OW48623   6.415   1.971   9.600  0.4395  0.0049 -0.1312
47768SOL    HW148624   6.428   1.955   9.507  0.7227 -0.0497 -0.0837
47768SOL    HW248625   6.364   2.052   9.604 -1.1248 -0.9317 -0.3731
47769SOL     OW48626   8.549   0.209   5.763 -0.6225 -0.0438  0.8427
47769SOL    HW148627   8.533   0.125   5.721  1.9191  0.8385 -2.2857
47769SOL    HW248628   8.640   0.204   5.791 -0.2674  1.7852  0.1377
47770SOL     OW48629   3.786   3.076  11.675  0.0924  0.1493 -0.3860
47770SOL    HW148630   3.800   3.114  11.762  0.8583 -0.0697 -0.4097
47770SOL    HW248631   3.705   3.025  11.684 -1.4961  2.4632 -0.5925
47771SOL     OW48632   4.718   0.555   9.632 -0.1897 -0.1815 -0.0014
47771SOL    HW148633   4.738   0.635   9.680  3.2841 -0.8984  0.0262
47771SOL    HW248634   4.737   0.484   9.694  0.1049 -1.0481 -1.0462
47772SOL     OW48635  10.757   5.643   1.016 -0.2240  0.6955 -0.5746
47772SOL    HW148636  10.699   5.710   0.982  1.0163  2.3257  0.3478
47772SOL    HW248637  10.842   5.661   0.976  0.5930  0.9269  1.1346
47773SOL     OW48638   7.890   3.121   6.447 -0.5660 -0.3661 -0.3507
47773SOL    HW148639   7.953   3.061   6.489 -0.1990 -0.1684 -0.6141
47773SOL    HW248640   7.848   3.166   6.520  0.8198  0.7425 -0.2024
47774SOL     OW48641  10.632   3.518   5.232 -0.1712 -0.2161  0.2009
47774SOL    HW148642  10.723   3.537   5.254  0.0242 -2.1562  1.3328
47774SOL    HW248643  10.586   3.601   5.248  1.4104  0.8956 -0.7150
47775SOL     OW48644  11.431  10.448   7.695  0.1696 -0.5494  0.0326
47775SOL    HW148645  11.502  10.424   7.756 -1.9995 -2.0047  2.1826
47775SOL    HW248646  11.458  10.409   7.612  1.4961 -1.8901  1.0068
47776SOL     OW48647   4.368   0.517   9.117  0.1973  0.0136 -0.0659
47776SOL    HW148648   4.445   0.573   9.130  0.2464 -0.4856  2.1219
47776SOL    HW248649   4.401   0.428   9.128 -0.1748 -0.4104 -2.0130
47777SOL     OW48650   2.579   1.539   2.182  0.5334 -0.0669  0.0738
47777SOL    HW148651   2.487   1.516   2.176  0.3662  0.0692  1.6566
47777SOL    HW248652   2.623   1.457   2.206  1.0402 -0.4410 -1.9601
47778SOL     OW48653   0.859   6.584  11.519  0.8054  0.1648  0.0134
47778SOL    HW148654   0.919   6.538  11.577  2.8258  1.7682 -0.6875
47778SOL    HW248655   0.778   6.532  11.521  2.0223 -1.7834  1.3904
47779SOL     OW48656   2.513   1.253  10.393 -0.2160  0.2330  0.1601
47779SOL    HW148657   2.514   1.162  10.364 -2.2555 -0.2292  1.3528
47779SOL    HW248658   2.424   1.283  10.376  0.5494  2.1929 -0.6621
47780SOL     OW48659   5.006   9.410   0.860 -0.0681 -0.2971  0.2750
47780SOL    HW148660   4.910   9.415   0.857 -0.1893 -1.4971  1.2782
47780SOL    HW248661   5.025   9.368   0.944  1.3785  0.6120  0.4292
47781SOL     OW48662   4.426   2.477   7.233  0.1289  0.4169  0.1862
47781SOL    HW148663   4.364   2.491   7.161  0.4355  0.2708 -0.1052
47781SOL    HW248664   4.504   2.440   7.192  0.3866  0.5303  0.5627
47782SOL     OW48665   1.169   8.904   8.234 -0.3879  0.0159 -0.4848
47782SOL    HW148666   1.183   8.856   8.152 -3.5855 -0.4647 -0.8830
47782SOL    HW248667   1.254   8.944   8.253  1.0560 -1.6628 -2.8344
47783SOL     OW48668   2.009   4.746  11.300  0.1804 -0.7115 -0.2299
47783SOL    HW148669   1.958   4.766  11.378  0.1646  0.8473 -0.6127
47783SOL    HW248670   2.031   4.831  11.263  1.7433 -1.3775 -0.9288
47784SOL     OW48671  10.335   9.953   4.029 -0.0385 -0.4046  0.3924
47784SOL    HW148672  10.314   9.924   4.118 -0.7505 -2.3115 -0.3343
47784SOL    HW248673  10.285  10.034   4.017 -0.2403 -0.3446  1.5829
47785SOL     OW48674   3.014   8.861   2.339  0.1872  0.3951 -0.1760
47785SOL    HW148675   2.986   8.785   2.389 -0.4440  1.0363  0.4779
47785SOL    HW248676   3.093   8.833   2.294 -1.0678 -1.2403 -1.4654
47786SOL     OW48677   6.051   2.753   7.032  0.5582  0.2515  0.2873
47786SOL    HW148678   6.017   2.694   6.965  3.6935 -0.5104 -0.8133
47786SOL    HW248679   6.063   2.697   7.109  0.7987  0.1457  0.1733
47787SOL     OW48680   5.991   0.839   2.455 -0.3037 -0.2832  0.4367
47787SOL    HW148681   5.920   0.905   2.454  0.9841  1.2202  1.8880
47787SOL    HW248682   5.999   0.814   2.547  2.8956  1.7790  0.8708
47788SOL     OW48683   4.232   3.016   1.520 -0.1746 -0.1176  0.0969
47788SOL    HW148684   4.225   2.950   1.451 -0.5611  0.9813 -0.9536
47788SOL    HW248685   4.144   3.020   1.558  0.3324 -1.6545  1.6211
47789SOL     OW48686   7.910   0.920   8.299 -0.5326  0.4901 -0.1043
47789SOL    HW148687   7.944   0.832   8.313 -0.1463  0.8097  1.0967
47789SOL    HW248688   7.816   0.912   8.314 -0.7221  0.0124 -1.4172
47790SOL     OW48689   9.907   3.230   5.137 -0.1724  0.8070  0.2822
47790SOL    HW148690   9.921   3.293   5.207  0.1732  1.1613 -0.0971
47790SOL    HW248691   9.979   3.168   5.146 -1.7733 -0.9018  2.0844
47791SOL     OW48692   8.099   6.621   8.664  0.0604 -0.2171  0.0558
47791SOL    HW148693   8.132   6.659   8.583 -0.1012  1.3349  0.6826
47791SOL    HW248694   8.171   6.630   8.726 -0.1883 -0.4199  0.3763
47792SOL     OW48695  11.325   6.292   3.466  0.1752 -0.2301 -0.0227
47792SOL    HW148696  11.243   6.273   3.422  0.5009 -2.4015  0.2053
47792SOL    HW248697  11.318   6.246   3.550  0.7824  1.3335  0.9291
47793SOL     OW48698   5.144  10.648   8.019 -0.3992 -0.1538 -0.1500
47793SOL    HW148699   5.054  10.616   8.025 -0.2946 -0.3679  0.3876
47793SOL    HW248700   5.167  10.672   8.109 -0.7791  2.3289 -0.6542
47794SOL     OW48701   8.599  11.451   6.776 -0.8488 -0.1281 -0.5771
47794SOL    HW148702   8.586  11.405   6.860 -0.9754  0.2515 -0.3856
47794SOL    HW248703   8.694  11.452   6.764 -0.5703  2.5086  1.1052
47795SOL     OW48704   3.360   0.357   1.706 -0.1670 -0.3239 -0.5969
47795SOL    HW148705   3.354   0.321   1.794  1.6064 -1.5405 -0.8998
47795SOL    HW248706   3.453   0.376   1.694 -0.9082  5.3136 -0.2263
47796SOL     OW48707   3.915   6.122   9.390 -0.3620 -0.1492  0.2038
47796SOL    HW148708   3.928   6.190   9.324  2.6489 -0.8829 -0.0993
47796SOL    HW248709   3.915   6.169   9.473  1.6843  0.3159 -0.0026
47797SOL     OW48710   8.085   0.629  10.399  0.0540 -0.2643 -0.1485
47797SOL    HW148711   8.082   0.616  10.494 -0.0123  0.7900  0.0052
47797SOL    HW248712   8.025   0.702  10.383  1.5605  0.8883 -0.7575
47798SOL     OW48713   6.215   9.152  10.853  0.1337 -0.2919 -0.1827
47798SOL    HW148714   6.191   9.153  10.946 -0.2520 -0.6333 -0.2754
47798SOL    HW248715   6.303   9.116  10.851 -0.1045 -0.9058  0.0050
47799SOL     OW48716   3.451   8.597   8.336  0.3777  0.0264 -0.4415
47799SOL    HW148717   3.521   8.659   8.356 -1.3647  1.9256  0.1492
47799SOL    HW248718   3.464   8.573   8.245  0.3304  2.4012 -1.1287
47800SOL     OW48719   5.655   3.103   8.648  0.1751  0.1673  0.3284
47800SOL    HW148720   5.684   3.153   8.725  1.2609  1.4128 -0.8464
47800SOL    HW248721   5.626   3.169   8.585 -1.6410 -0.8748 -0.0189
47801SOL     OW48722   0.518   4.307   9.733  0.2252  0.3438 -0.3410
47801SOL    HW148723   0.608   4.289   9.710  0.3115 -0.3822  0.5329
47801SOL    HW248724   0.477   4.335   9.650  0.9824 -0.3154 -0.9512
47802SOL     OW48725   2.371  11.168   1.209 -0.3143 -0.6950  0.4858
47802SOL    HW148726   2.430  11.240   1.232  0.5132 -1.3521  0.4511
47802SOL    HW248727   2.352  11.182   1.116  0.6692 -1.0904  0.2174
47803SOL     OW48728   5.136   5.668   7.263  0.2617 -0.1975 -0.2875
47803SOL    HW148729   5.100   5.603   7.323  0.7261 -0.0960  0.1044
47803SOL    HW248730   5.223   5.687   7.297  1.7110 -2.1654 -2.5147
47804SOL     OW48731  10.304  10.641   8.807  0.2270 -0.0868 -0.3361
47804SOL    HW148732  10.227  10.592   8.836  0.5728  0.3706  1.4462
47804SOL    HW248733  10.280  10.733   8.818  0.2298  0.1306 -1.9554
47805SOL     OW48734   3.638   3.275   1.837  0.0420  0.2192  0.0578
47805SOL    HW148735   3.649   3.195   1.889  2.3946  0.3723 -0.1123
47805SOL    HW248736   3.586   3.332   1.893  0.1436 -0.6451  1.0798
47806SOL     OW48737   8.182   7.736   3.913 -0.1765 -0.4555  0.1144
47806SOL    HW148738   8.234   7.657   3.926 -0.4881 -0.9193 -1.2145
47806SOL    HW248739   8.092   7.709   3.932 -0.1438 -0.1076  0.7736
47807SOL     OW48740   8.832   7.453   4.012  0.6709  0.3005 -0.8172
47807SOL    HW148741   8.865   7.387   4.073  0.8968 -0.0188 -1.2809
47807SOL    HW248742   8.787   7.516   4.067  1.4012  0.3384 -0.2501
47808SOL     OW48743   3.818   2.727   9.541  0.3730  0.4868 -0.0649
47808SOL    HW148744   3.885   2.704   9.606  0.5509  1.4098  0.0847
47808SOL    HW248745   3.738   2.686   9.575  0.3967  1.2135  0.9155
47809SOL     OW48746   2.627   8.813   9.990  0.1679 -0.3624  0.6742
47809SOL    HW148747   2.552   8.803   9.931  0.4923 -1.6428  0.4601
47809SOL    HW248748   2.605   8.759  10.066  0.6047 -0.2417  0.8854
47810SOL     OW48749   6.393  10.949   8.849 -0.1725 -0.2484 -0.0537
47810SOL    HW148750   6.477  10.986   8.821 -0.0683  0.8832  1.6275
47810SOL    HW248751   6.350  11.020   8.896 -1.9215 -0.9411 -0.5350
47811SOL     OW48752   5.413  11.470   1.900  0.3238 -0.0202  0.2213
47811SOL    HW148753   5.326  11.459   1.938  0.1948  0.6083  0.1204
47811SOL    HW248754   5.404  11.437   1.810  0.0023  0.6744 -0.0088
47812SOL     OW48755   5.126  10.366   4.482 -0.4393 -0.1268  0.5098
47812SOL    HW148756   5.216  10.369   4.449 -0.8273 -1.2856 -0.7374
47812SOL    HW248757   5.098  10.276   4.465 -2.5706  0.7759 -1.1714
47813SOL     OW48758   7.762   1.306   9.311 -0.6615  0.7773  0.0450
47813SOL    HW148759   7.730   1.356   9.386 -1.1497  3.0899 -1.5850
47813SOL    HW248760   7.848   1.343   9.292  0.9493 -1.9850  1.3228
47814SOL     OW48761  10.776   2.340   7.637  0.3382 -0.7189  0.1506
47814SOL    HW148762  10.786   2.292   7.555 -0.7710 -1.6690  0.5448
47814SOL    HW248763  10.682   2.350   7.648  0.4809 -0.3836  1.1897
47815SOL     OW48764   2.124   5.531   0.464 -0.4333  0.0345 -0.3488
47815SOL    HW148765   2.149   5.613   0.420 -0.6194  0.0423 -0.4423
47815SOL    HW248766   2.119   5.467   0.394  2.3513 -0.7295  0.0206
47816SOL     OW48767   5.052   5.858   6.030 -0.7219  0.0591 -0.8016
47816SOL    HW148768   5.076   5.820   5.946 -1.0714 -2.4003  0.1352
47816SOL    HW248769   5.129   5.847   6.085 -1.3907 -0.8514 -0.0220
47817SOL     OW48770   3.415  10.508   8.588 -0.5146  0.1960  0.8032
47817SOL    HW148771   3.467  10.479   8.512 -1.3417 -1.0466  0.6737
47817SOL    HW248772   3.478  10.509   8.661 -0.0649 -0.2131  0.4276
47818SOL     OW48773   8.595   3.540   0.895  0.0201 -0.1494 -0.1847
47818SOL    HW148774   8.543   3.482   0.839  2.2633 -2.8068  0.2438
47818SOL    HW248775   8.657   3.582   0.836 -0.7415  0.8743 -0.2953
47819SOL     OW48776   2.543   5.867   7.182 -0.4577  0.5431 -0.0844
47819SOL    HW148777   2.497   5.951   7.178 -0.3133  0.6790  0.9256
47819SOL    HW248778   2.491   5.808   7.128 -2.6618  0.2948  2.1497
47820SOL     OW48779   8.254   3.591   5.512  0.4907 -0.0614  0.4469
47820SOL    HW148780   8.175   3.541   5.530  0.0467  0.5162  0.1245
47820SOL    HW248781   8.319   3.555   5.573 -0.2353 -0.0015  1.2771
47821SOL     OW48782  10.759  11.425   8.217 -0.1270  0.0169 -0.0572
47821SOL    HW148783  10.710  11.441   8.137  1.2236 -1.6560 -1.2796
47821SOL    HW248784  10.805  11.507   8.235  0.8665 -0.0688 -1.9779
47822SOL     OW48785  10.119   5.925   3.202 -0.1041  1.0249  0.0076
47822SOL    HW148786  10.155   5.878   3.127 -0.9351  0.5094 -0.0874
47822SOL    HW248787  10.062   5.992   3.163  0.5016  1.6363  0.1590
47823SOL     OW48788   7.526   8.205   4.393  0.3514 -0.1537 -0.6183
47823SOL    HW148789   7.483   8.268   4.335  0.4123 -0.5437 -1.0893
47823SOL    HW248790   7.610   8.186   4.351  0.4318 -0.3722 -0.3613
47824SOL     OW48791   5.651   4.864   5.446 -0.1493  0.0732 -0.0396
47824SOL    HW148792   5.588   4.822   5.504  0.9014  0.3632  1.3703
47824SOL    HW248793   5.699   4.925   5.502  0.8221  0.4754 -1.2423
47825SOL     OW48794   6.820   1.794  11.364  0.1722 -0.7684  0.3791
47825SOL    HW148795   6.871   1.826  11.290 -0.7772  1.7838  0.7124
47825SOL    HW248796   6.844   1.853  11.436 -0.6291 -1.7514  1.4864
47826SOL     OW48797   3.304   8.621   5.750 -0.0866  0.3267 -0.8050
47826SOL    HW148798   3.395   8.644   5.736  0.1142  0.0989  0.0463
47826SOL    HW248799   3.292   8.627   5.845 -0.3747 -1.7983 -0.6634
47827SOL     OW48800   1.096   4.244  11.796 -0.3065 -0.2535 -0.3905
47827SOL    HW148801   1.175   4.251  11.742 -0.0354  0.5604  0.0937
47827SOL    HW248802   1.039   4.184  11.747  1.1655 -2.0093 -0.0632
47828SOL     OW48803   5.239   6.581   2.153 -0.2809  0.3243 -0.3267
47828SOL    HW148804   5.162   6.550   2.105 -1.1884 -1.3116  2.0259
47828SOL    HW248805   5.312   6.537   2.110 -0.9167 -0.0968 -1.0193
47829SOL     OW48806   2.535   4.816   9.883  0.2083 -0.0679  0.3174
47829SOL    HW148807   2.577   4.857   9.808 -1.0722  0.6572 -0.0364
47829SOL    HW248808   2.446   4.796   9.853  0.0449 -0.8570  1.2643
47830SOL     OW48809   1.570   7.348  10.876 -0.3138  0.0870 -0.4685
47830SOL    HW148810   1.653   7.332  10.830 -0.8018 -0.7257 -1.1021
47830SOL    HW248811   1.577   7.438  10.908  1.1337 -0.2270  0.1727
47831SOL     OW48812   3.866  10.593   0.815 -0.3309  0.8689 -0.1908
47831SOL    HW148813   3.863  10.593   0.720 -0.1713 -0.6824 -0.2263
47831SOL    HW248814   3.822  10.674   0.841  0.1752  1.6175 -1.5801
47832SOL     OW48815   4.945   8.453   5.829 -0.0359  0.7453  0.9176
47832SOL    HW148816   4.851   8.470   5.831 -0.2068 -0.1605  0.9260
47832SOL    HW248817   4.959   8.384   5.893  0.3503 -0.4115 -0.3665
47833SOL     OW48818   5.357   6.438   6.557 -0.1734 -0.0477  0.0662
47833SOL    HW148819   5.440   6.391   6.570 -0.1827 -0.6091 -1.6769
47833SOL    HW248820   5.311   6.387   6.491 -2.8513 -0.9017  2.3999
47834SOL     OW48821   1.556   2.056   7.939  0.0326  0.5165 -0.2751
47834SOL    HW148822   1.612   2.061   8.017 -1.5110  1.2520  0.8527
47834SOL    HW248823   1.605   2.102   7.871  1.5377 -0.3617  0.1483
47835SOL     OW48824  11.249   8.531   4.054  0.3351 -0.6458  0.0791
47835SOL    HW148825  11.180   8.597   4.050  1.2612  0.4011  0.5006
47835SOL    HW248826  11.276   8.518   3.963 -0.8635 -1.5882 -0.1622
47836SOL     OW48827   3.710   9.829   5.113  0.1248 -0.5155 -0.0425
47836SOL    HW148828   3.697   9.780   5.194  0.5834 -1.3215 -0.4457
47836SOL    HW248829   3.621   9.850   5.083 -0.0478  0.6160  1.1315
47837SOL     OW48830   0.946   5.837   8.853  0.6302  0.1563 -0.3250
47837SOL    HW148831   1.028   5.864   8.812  0.7440  1.3446  0.6246
47837SOL    HW248832   0.972   5.801   8.938  0.2752 -0.9291 -0.6493
47838SOL     OW48833  11.598   6.163   7.311 -0.1085  0.5108  0.1727
47838SOL    HW148834  11.664   6.210   7.261  1.1277 -1.3702 -0.0910
47838SOL    HW248835  11.639   6.148   7.396  0.2188 -1.4015 -0.2665
47839SOL     OW48836   5.341   1.183  10.450 -0.1691 -0.6326  0.5681
47839SOL    HW148837   5.296   1.179  10.534 -0.1536  1.7165  0.7792
47839SOL    HW248838   5.433   1.171  10.471 -0.0583  0.8422  1.0827
47840SOL     OW48839   7.484   5.107   4.181  0.5309  0.0008  0.1144
47840SOL    HW148840   7.468   5.177   4.244 -1.5497 -1.5053  1.3941
47840SOL    HW248841   7.397   5.070   4.165  1.4179 -1.5404 -1.4315
47841SOL     OW48842   9.342  10.451   4.030  0.1913  0.5457  0.6624
47841SOL    HW148843   9.376  10.422   4.115  0.5260 -2.0249 -0.2592
47841SOL    HW248844   9.414  10.433   3.969 -0.7780  0.4123 -0.4607
47842SOL     OW48845   8.953   5.384  11.630  0.4284  0.0389  0.3751
47842SOL    HW148846   8.870   5.388  11.678  1.7579  0.1643  2.8595
47842SOL    HW248847   9.007   5.323  11.681  2.4809  1.3563 -0.1156
47843SOL     OW48848   9.673   7.078   0.560 -0.3308 -0.2704 -0.0040
47843SOL    HW148849   9.721   7.000   0.588 -0.1291 -0.3482 -0.5530
47843SOL    HW248850   9.733   7.150   0.576  0.1885 -0.4158 -1.1476
47844SOL     OW48851   6.525   0.102   1.452 -0.4604 -1.0335 -0.1938
47844SOL    HW148852   6.487   0.190   1.455  1.4520 -0.1679  0.2991
47844SOL    HW248853   6.549   0.090   1.360  2.7133  0.6214  0.2658
47845SOL     OW48854   3.675   9.340   5.608 -0.0531 -0.4134  0.1258
47845SOL    HW148855   3.700   9.379   5.692 -0.5060  0.2987 -0.0613
47845SOL    HW248856   3.580   9.344   5.608 -0.0385 -0.0176 -0.6045
47846SOL     OW48857   5.173   1.304  10.261  0.0876 -0.2650 -0.3065
47846SOL    HW148858   5.237   1.261  10.318  0.4316  0.7781  0.1180
47846SOL    HW248859   5.175   1.396  10.287 -0.7634 -0.0111 -1.0671
47847SOL     OW48860  10.583  11.374   7.593 -0.0022 -0.5909 -0.6623
47847SOL    HW148861  10.658  11.423   7.628 -0.1035 -0.5842 -0.4557
47847SOL    HW248862  10.578  11.296   7.648  0.2653 -0.9230 -1.0980
47848SOL     OW48863   1.590   5.603   9.220 -0.0887  0.0519 -0.5260
47848SOL    HW148864   1.527   5.538   9.251  0.1090  0.5924  1.0839
47848SOL    HW248865   1.672   5.555   9.213  0.1907  0.2044  1.2171
47849SOL     OW48866   0.516  10.812   3.260  0.5402  0.0759 -0.6282
47849SOL    HW148867   0.455  10.770   3.321  0.9107  1.2153  0.5939
47849SOL    HW248868   0.554  10.884   3.311  0.2305  1.6262 -2.4848
47850SOL     OW48869   9.360   5.923   3.162  0.6048 -0.3473 -0.0039
47850SOL    HW148870   9.362   5.848   3.102 -1.8335  0.1675 -0.8315
47850SOL    HW248871   9.346   5.883   3.248  0.7056 -0.9187 -0.2442
47851SOL     OW48872   8.971   2.076   3.650  0.6504  0.4643 -0.0124
47851SOL    HW148873   8.896   2.132   3.629  0.1450 -0.5348 -1.0072
47851SOL    HW248874   8.955   2.048   3.740 -0.4998 -0.2018 -0.4071
47852SOL     OW48875   7.664   3.477   9.792 -0.0334 -0.1683  0.0563
47852SOL    HW148876   7.577   3.445   9.815  0.1381 -1.4074 -0.9001
47852SOL    HW248877   7.720   3.450   9.865  0.0212 -1.7692 -0.5210
47853SOL     OW48878   8.636   2.076   6.869  0.0519  0.6028 -0.0623
47853SOL    HW148879   8.559   2.132   6.870 -0.2649  0.1744 -0.2301
47853SOL    HW248880   8.603   1.989   6.892  0.5515  0.5004  0.2769
47854SOL     OW48881   5.266  10.629   4.954  0.0906 -0.4336  0.0367
47854SOL    HW148882   5.230  10.624   4.866  2.7581  0.3713 -1.1937
47854SOL    HW248883   5.252  10.719   4.981  2.2612  0.2759 -1.0166
47855SOL     OW48884   0.717   9.271   8.966  0.2255 -0.4304  0.0690
47855SOL    HW148885   0.739   9.331   9.038  0.2843 -2.5404  1.9413
47855SOL    HW248886   0.658   9.207   9.006  0.9069 -2.1718 -1.5592
47856SOL     OW48887   5.972   5.562  11.588 -0.9894 -0.5401 -0.0753
47856SOL    HW148888   5.939   5.480  11.552 -3.5231  0.7660 -0.9407
47856SOL    HW248889   6.064   5.544  11.607 -1.0767 -3.1081 -1.6180
47857SOL     OW48890   5.658   2.845   6.214  0.0423 -0.2312 -0.1023
47857SOL    HW148891   5.637   2.917   6.154  0.1216  0.6266  0.8716
47857SOL    HW248892   5.575   2.802   6.231 -0.2542  0.5272  0.4227
47858SOL     OW48893   5.612   8.800   7.209  0.4783  0.0210  0.1690
47858SOL    HW148894   5.586   8.727   7.265 -0.8570  0.2875 -0.0809
47858SOL    HW248895   5.696   8.772   7.171  1.4239 -0.1521  2.2655
47859SOL     OW48896   3.322  10.999   8.985  0.5887 -0.6833 -0.3813
47859SOL    HW148897   3.270  10.926   8.954 -0.5217 -0.3420  0.6104
47859SOL    HW248898   3.271  11.037   9.056  1.9056  0.0455  0.2265
47860SOL     OW48899  10.847   2.269   7.923 -0.7351  0.1750 -0.7248
47860SOL    HW148900  10.812   2.278   7.834 -1.6703 -0.1163 -0.4023
47860SOL    HW248901  10.786   2.319   7.978 -0.5152 -0.1531 -0.1758
47861SOL     OW48902   0.471   1.495   7.640 -0.4095 -0.2133  0.1751
47861SOL    HW148903   0.496   1.581   7.673  1.8838 -0.9819  0.6626
47861SOL    HW248904   0.518   1.433   7.696 -0.4577 -1.7165 -1.3342
47862SOL     OW48905   5.613  10.411  11.226  0.2030 -0.0364 -0.4611
47862SOL    HW148906   5.657  10.375  11.303 -1.4794 -0.8004  0.1997
47862SOL    HW248907   5.525  10.433  11.257 -0.2918  0.2878 -2.0003
47863SOL     OW48908   0.963   5.111   8.336 -0.0933 -0.1388  0.7561
47863SOL    HW148909   1.029   5.178   8.353  1.6500 -1.8807  1.2655
47863SOL    HW248910   0.916   5.142   8.259  0.8539  1.5077  0.8011
47864SOL     OW48911   6.302  10.561   1.486 -0.3222  0.0797 -0.2557
47864SOL    HW148912   6.298  10.640   1.539 -1.4411 -0.4433  0.4901
47864SOL    HW248913   6.218  10.517   1.503  0.2605 -1.2373 -0.6787
47865SOL     OW48914  10.321  11.590   6.083  0.5721 -0.1432  0.1259
47865SOL    HW148915  10.409  11.617   6.058  0.9950 -0.1222  1.5424
47865SOL    HW248916  10.266  11.615   6.009  1.6652  0.4222 -0.5125
47866SOL     OW48917   8.186   2.368  11.313  0.8628 -0.3818 -0.5705
47866SOL    HW148918   8.202   2.314  11.390  0.2865  0.6613  0.3007
47866SOL    HW248919   8.234   2.324  11.243  2.6821 -0.5363  0.6980
47867SOL     OW48920   3.740   7.580   7.552  0.1394 -0.0861 -0.3953
47867SOL    HW148921   3.797   7.524   7.606 -0.2751 -1.8322 -1.6791
47867SOL    HW248922   3.652   7.547   7.570  0.0745 -1.7729 -3.1490
47868SOL     OW48923  10.226   8.675   5.067  0.0919  0.0845  0.2535
47868SOL    HW148924  10.180   8.759   5.057  1.6182  0.7465 -1.7249
47868SOL    HW248925  10.229   8.662   5.162 -2.9764  0.6170  0.5383
47869SOL     OW48926  10.123   9.780   5.210  0.3427  0.2808 -0.3481
47869SOL    HW148927  10.123   9.870   5.242  0.1323  0.4594 -0.8438
47869SOL    HW248928  10.149   9.728   5.286 -1.4182  0.5559  0.5160
47870SOL     OW48929  10.444  11.326   1.014 -0.6664  0.1101 -0.0762
47870SOL    HW148930  10.368  11.352   1.066 -0.7023  0.8208 -0.4736
47870SOL    HW248931  10.483  11.254   1.063 -1.3891 -0.0230  0.3168
47871SOL     OW48932   2.106   1.390   8.356 -0.2635 -0.3033 -0.1108
47871SOL    HW148933   2.017   1.355   8.354 -1.1184  1.7611 -0.6150
47871SOL    HW248934   2.118   1.430   8.270  0.5007  0.9687  0.5547
47872SOL     OW48935   4.906   5.516   1.168  0.5409 -0.2755  0.5563
47872SOL    HW148936   4.986   5.511   1.220  2.3730  0.2740 -2.0107
47872SOL    HW248937   4.936   5.511   1.077 -2.2662  0.8701 -0.5495
47873SOL     OW48938   1.136   8.495   9.221 -0.0898  0.4224 -0.3037
47873SOL    HW148939   1.127   8.579   9.265  2.5372  0.9675 -0.6440
47873SOL    HW248940   1.086   8.504   9.140  0.5147  1.8158 -0.5384
47874SOL     OW48941   0.192   2.498   7.098 -0.6462  0.3378  0.5459
47874SOL    HW148942   0.201   2.588   7.066  1.0314 -0.0285 -0.0943
47874SOL    HW248943   0.265   2.486   7.158 -1.7914 -0.1151  1.9055
47875SOL     OW48944   4.254   8.569   1.811 -0.0675  0.1546  0.1709
47875SOL    HW148945   4.291   8.591   1.896  3.8900 -1.1824 -1.0033
47875SOL    HW248946   4.281   8.640   1.753 -0.5958 -0.1550 -0.4688
47876SOL     OW48947   9.838   9.501   4.878  0.4066 -0.4136  0.3578
47876SOL    HW148948   9.760   9.551   4.853 -1.1528 -1.8249  2.1087
47876SOL    HW248949   9.858   9.530   4.967 -1.0379 -3.3418  1.7464
47877SOL     OW48950   3.934   6.865   0.178  0.2717 -0.1038 -0.1140
47877SOL    HW148951   3.893   6.790   0.222  2.0867 -1.3545 -0.4014
47877SOL    HW248952   3.873   6.889   0.109 -0.9737 -0.4409  0.8320
47878SOL     OW48953   3.900   5.840   6.293  0.1125 -0.3933  0.1477
47878SOL    HW148954   3.848   5.882   6.225 -1.2989 -0.9900  0.8019
47878SOL    HW248955   3.955   5.910   6.328  1.2765 -0.1986 -1.9239
47879SOL     OW48956   2.342   3.115   3.727 -0.3144  0.5523 -0.1017
47879SOL    HW148957   2.435   3.095   3.738 -0.3615  0.4086  0.0367
47879SOL    HW248958   2.335   3.147   3.638 -0.4957 -1.6065 -0.9333
47880SOL     OW48959   8.521   0.323   4.744 -0.3949  0.2108  1.0547
47880SOL    HW148960   8.523   0.252   4.808  0.1160  0.0900  0.9081
47880SOL    HW248961   8.482   0.397   4.791 -1.4368 -0.3242  1.0437
47881SOL     OW48962   7.972   7.689   0.483 -0.0666  0.0117  0.3240
47881SOL    HW148963   8.049   7.744   0.467 -0.1009 -0.3187 -1.1111
47881SOL    HW248964   7.970   7.628   0.409 -0.8491 -0.9863  1.1338
47882SOL     OW48965   9.952   7.950   1.956 -0.5763 -0.2539  0.5202
47882SOL    HW148966   9.952   8.045   1.948 -1.9794 -0.1684  1.2411
47882SOL    HW248967   9.962   7.918   1.866 -0.3920  0.5742  0.2413
47883SOL     OW48968   0.940  11.650   3.329  0.2874  0.2890 -0.7210
47883SOL    HW148969   0.957  11.558   3.311  0.1861  0.1864 -0.3040
47883SOL    HW248970   0.845  11.660   3.317  0.1217  0.0856  0.2965
47884SOL     OW48971   5.312   8.046   8.840 -0.1587 -0.1982 -0.1758
47884SOL    HW148972   5.315   8.142   8.839 -2.5010 -0.0220  0.9834
47884SOL    HW248973   5.339   8.022   8.928 -3.8331 -0.1850  1.1366
47885SOL     OW48974   1.022   4.121   0.938 -0.1452 -0.0907 -0.2149
47885SOL    HW148975   1.106   4.094   0.899  0.1320  1.6838 -0.9553
47885SOL    HW248976   1.035   4.213   0.962 -2.0353  0.3912 -0.8415
47886SOL     OW48977  11.559   3.163   7.296 -0.1465 -0.3080  0.3125
47886SOL    HW148978  11.484   3.223   7.299  0.1881  0.1764 -0.6389
47886SOL    HW248979  11.544   3.103   7.370 -2.1965 -1.0757 -0.6315
47887SOL     OW48980  11.262   2.565   9.488 -0.0182  0.4303  0.4537
47887SOL    HW148981  11.239   2.656   9.469 -0.3536  0.3430  0.4198
47887SOL    HW248982  11.178   2.523   9.506  0.0329 -0.0674 -0.3837
47888SOL     OW48983   7.553   7.483   9.729  0.0649  0.1069 -0.6974
47888SOL    HW148984   7.575   7.395   9.697  0.8708  0.6491 -1.6869
47888SOL    HW248985   7.545   7.536   9.649  0.1113  1.0534 -0.0883
47889SOL     OW48986   6.308   9.978   0.090 -0.7776  0.4171 -0.8706
47889SOL    HW148987   6.229  10.020   0.123 -0.1095  1.9638 -1.1470
47889SOL    HW248988   6.295   9.975  -0.005 -0.2152  1.3323 -0.9848
47890SOL     OW48989   6.914   8.197  11.034  0.3492 -0.1305  0.2915
47890SOL    HW148990   6.968   8.119  11.023  0.8993  0.4338 -1.3743
47890SOL    HW248991   6.969   8.257  11.084  1.3119  0.4035 -1.3100
47891SOL     OW48992   5.395   5.022   4.533 -0.2560  0.2653  0.2228
47891SOL    HW148993   5.345   5.058   4.606  0.1904  0.4539  0.4391
47891SOL    HW248994   5.474   4.985   4.573 -0.7054 -0.9753  0.0031
47892SOL     OW48995   2.750   7.507   0.306 -0.4680 -0.0336 -0.2258
47892SOL    HW148996   2.677   7.444   0.300 -0.1746 -0.6743  1.8759
47892SOL    HW248997   2.781   7.517   0.216 -3.2336  0.3946 -1.2295
47893SOL     OW48998   3.174   7.620   0.335 -0.1097  0.2003  0.4247
47893SOL    HW148999   3.122   7.699   0.317 -1.4155 -0.5135  0.9487
47893SOL    HW249000   3.121   7.570   0.398  0.5136 -1.2821 -0.1912
47894SOL     OW49001   5.946   3.823   7.980 -0.3927  0.1018 -0.0256
47894SOL    HW149002   5.889   3.899   7.993  0.0021  0.2994  0.5653
47894SOL    HW249003   5.916   3.759   8.045 -1.4255 -0.6813 -1.2086
47895SOL     OW49004   7.327   3.226   6.622 -1.1376 -0.3839  0.4793
47895SOL    HW149005   7.419   3.239   6.644 -0.6680  0.5901 -1.7908
47895SOL    HW249006   7.329   3.172   6.543 -2.4142  1.0352 -0.5746
47896SOL     OW49007   5.671   8.246   9.294  0.1672  0.5027 -0.0527
47896SOL    HW149008   5.616   8.181   9.338 -1.1635  1.2085 -0.6255
47896SOL    HW249009   5.689   8.207   9.208  3.2647 -1.1472  1.1854
47897SOL     OW49010   3.401  10.789   6.826 -0.4342 -0.2269  0.5310
47897SOL    HW149011   3.324  10.840   6.851 -0.7600 -1.0828  1.3562
47897SOL    HW249012   3.372  10.738   6.750  0.3133  1.7821 -1.1997
47898SOL     OW49013  10.533   8.974   3.694  0.0111  0.0486  0.2664
47898SOL    HW149014  10.496   8.892   3.727 -1.1858  0.1109 -0.8413
47898SOL    HW249015  10.506   9.040   3.757  1.1671 -0.4078  1.2853
47899SOL     OW49016   3.950   9.330   8.181 -0.3809  0.4341 -0.6830
47899SOL    HW149017   4.029   9.349   8.232 -1.4506 -1.3261  1.9032
47899SOL    HW249018   3.879   9.372   8.231 -1.3549 -0.2444 -1.4597
47900SOL     OW49019  10.536   6.202   9.751 -0.4695  0.2653 -0.4212
47900SOL    HW149020  10.572   6.144   9.818 -0.9547  1.1450  0.6213
47900SOL    HW249021  10.457   6.238   9.790 -0.6422  0.9672 -1.3877
47901SOL     OW49022   0.363   6.155   5.378 -0.0185  0.1093  0.3375
47901SOL    HW149023   0.285   6.126   5.331  0.5559 -1.7085  0.4248
47901SOL    HW249024   0.433   6.152   5.313  0.5843 -1.4532  1.0094
47902SOL     OW49025   1.085   5.121   6.910 -0.8691  0.2626  0.3072
47902SOL    HW149026   1.093   5.216   6.924  0.5816 -0.0040  1.5667
47902SOL    HW249027   1.155   5.100   6.849  1.0452 -0.4251  2.5824
47903SOL     OW49028   8.004   2.443   4.961 -0.1459  0.4285  0.5734
47903SOL    HW149029   8.017   2.398   5.044  0.9488 -0.4519 -0.0405
47903SOL    HW249030   8.010   2.374   4.895  3.1962  1.5700 -0.5386
47904SOL     OW49031   3.637   1.621   6.163  0.0250 -0.3729 -0.1587
47904SOL    HW149032   3.555   1.622   6.113  2.0279 -0.4060 -3.8058
47904SOL    HW249033   3.666   1.530   6.158  0.4719 -0.2911  0.7900
47905SOL     OW49034   0.486   7.683   5.891 -0.3211  0.0802  0.4318
47905SOL    HW149035   0.543   7.760   5.882  2.5272 -1.9818 -1.0686
47905SOL    HW249036   0.539   7.621   5.941 -1.5449 -1.7269 -0.4238
47906SOL     OW49037   8.680  10.244   6.643 -0.5205 -0.3232  0.2319
47906SOL    HW149038   8.671  10.315   6.579 -0.4598  0.3009  0.8904
47906SOL    HW249039   8.739  10.280   6.710 -1.9681 -0.2736  1.5432
47907SOL     OW49040   5.631   5.898   9.710  0.4567  0.3253  0.6129
47907SOL    HW149041   5.663   5.830   9.769  2.1421  0.1994 -0.3747
47907SOL    HW249042   5.653   5.981   9.754 -0.0010  0.2489  0.9991
47908SOL     OW49043   1.726   1.256   0.722 -0.1680 -0.0006 -0.4451
47908SOL    HW149044   1.652   1.203   0.691  0.4377 -2.0104  1.2885
47908SOL    HW249045   1.797   1.194   0.733  1.7101  1.8187 -1.6180
47909SOL     OW49046   3.073   5.102  11.117  0.3398  0.0767  0.2001
47909SOL    HW149047   3.134   5.049  11.167  1.9111  0.3537 -1.2999
47909SOL    HW249048   3.128   5.145  11.051 -1.5581 -0.1320 -1.6169
47910SOL     OW49049   3.664   9.239   2.894 -0.1913  0.1486  0.1182
47910SOL    HW149050   3.662   9.192   2.810  0.9751  2.3383 -1.2288
47910SOL    HW249051   3.738   9.299   2.886 -0.7873  1.2674  2.2764
47911SOL     OW49052  11.031   2.818   5.362 -0.1263  0.0957  0.2716
47911SOL    HW149053  11.077   2.879   5.419 -0.5057 -0.4134  1.1426
47911SOL    HW249054  11.090   2.807   5.287  0.1035  1.2427  0.2587
47912SOL     OW49055   8.739  10.406   5.989 -0.0472  0.1276 -0.6918
47912SOL    HW149056   8.766  10.328   5.940  0.2595 -0.8125  0.8913
47912SOL    HW249057   8.705  10.372   6.071 -2.0658  1.5628 -0.8670
47913SOL     OW49058   4.684   8.261   3.264 -0.1383  0.0980  0.1989
47913SOL    HW149059   4.771   8.300   3.250 -0.2016 -0.0052 -0.4993
47913SOL    HW249060   4.658   8.294   3.350  0.7671 -0.2060  0.6105
47914SOL     OW49061   4.916   7.611  10.964 -0.4713  0.3899 -0.7074
47914SOL    HW149062   4.924   7.706  10.951 -1.5172  0.5292 -0.4204
47914SOL    HW249063   4.979   7.591  11.033 -1.5215  1.2070  0.5476
47915SOL     OW49064   9.083  10.356   1.026 -0.3171 -0.3761  0.1548
47915SOL    HW149065   9.018  10.384   0.962 -0.5366 -1.6906 -0.2245
47915SOL    HW249066   9.107  10.267   0.999  1.2470 -0.1191  0.5963
47916SOL     OW49067  11.363   2.913   2.125  0.7563 -0.1014  0.2885
47916SOL    HW149068  11.432   2.898   2.060  0.6497  0.5252  0.0273
47916SOL    HW249069  11.377   2.844   2.190  2.7881  1.0788  1.2251
47917SOL     OW49070   3.507   4.810   1.614 -0.1587 -0.3769  0.2141
47917SOL    HW149071   3.531   4.877   1.679  2.2451 -1.2217  0.2723
47917SOL    HW249072   3.523   4.852   1.529  1.4112 -0.8449  0.2508
47918SOL     OW49073   6.071   2.288  11.195 -0.0782  0.3445 -0.0633
47918SOL    HW149074   6.043   2.312  11.107 -1.1020 -0.6192 -0.0256
47918SOL    HW249075   6.102   2.370  11.233 -3.9730  1.8835  0.2864
47919SOL     OW49076   1.997   7.002   9.756  0.2152  0.1234 -0.1529
47919SOL    HW149077   1.916   7.038   9.792 -1.0541 -1.6197 -1.1081
47919SOL    HW249078   2.054   6.990   9.832 -0.5651  0.9967  0.5908
47920SOL     OW49079   1.141   4.631  10.266 -0.1441 -0.7836  0.0853
47920SOL    HW149080   1.116   4.707  10.319 -0.6620 -0.3393 -0.7821
47920SOL    HW249081   1.086   4.560  10.298 -1.1101 -0.2943 -0.4740
47921SOL     OW49082   7.694   8.839   6.220  0.3843  0.3352 -0.1303
47921SOL    HW149083   7.751   8.912   6.245 -1.4352  1.7205  0.1512
47921SOL    HW249084   7.709   8.772   6.288  1.4391  0.7766  0.0877
47922SOL     OW49085  10.545   4.267   0.495  0.0580  0.3495  0.6323
47922SOL    HW149086  10.585   4.352   0.510  0.3278  0.1101  1.2726
47922SOL    HW249087  10.568   4.215   0.572  1.1097 -0.7561 -0.3730
47923SOL     OW49088   5.301   4.390  11.154  0.1782 -0.1037 -0.6984
47923SOL    HW149089   5.222   4.339  11.135 -0.9052  1.8471 -1.7485
47923SOL    HW249090   5.323   4.433  11.072  1.7585  0.2226 -0.1501
47924SOL     OW49091  11.626   0.261  11.526  0.5001 -0.4882  0.2193
47924SOL    HW149092  11.668   0.241  11.443  0.7087 -1.0925  0.4612
47924SOL    HW249093  11.647   0.353  11.543 -1.4621  0.3648 -1.4990
47925SOL     OW49094   3.117  10.741  10.201 -0.2300  0.3170 -0.5628
47925SOL    HW149095   3.070  10.774  10.124  1.4413  0.6334 -1.4766
47925SOL    HW249096   3.119  10.815  10.262 -0.7245  0.3541 -0.5816
47926SOL     OW49097   7.393  10.481   0.844  0.1713  0.0450 -0.3478
47926SOL    HW149098   7.322  10.463   0.905 -2.0047 -1.2986 -3.0831
47926SOL    HW249099   7.366  10.560   0.798  0.0055 -0.9171 -1.9639
47927SOL     OW49100   1.998   1.395  10.935  0.8146  0.6361 -0.0992
47927SOL    HW149101   1.906   1.402  10.909  1.2095 -0.7171 -2.1297
47927SOL    HW249102   2.001   1.321  10.996  0.6095  0.3897 -0.3860
47928SOL     OW49103   0.359   8.159   5.304 -0.4658 -0.3130 -0.3410
47928SOL    HW149104   0.311   8.181   5.224  0.7623  1.4251 -0.6656
47928SOL    HW249105   0.403   8.076   5.284 -0.2522  0.0546 -1.4488
47929SOL     OW49106   6.413   1.132   6.164 -0.4538  0.1896 -0.0744
47929SOL    HW149107   6.437   1.044   6.190 -0.7355  0.3990  0.9176
47929SOL    HW249108   6.330   1.122   6.117  0.1747 -0.2158 -1.1183
47930SOL     OW49109   6.611   5.604   0.491 -0.4008  0.2219 -0.0462
47930SOL    HW149110   6.574   5.683   0.450  0.4102  0.3229 -0.6305
47930SOL    HW249111   6.630   5.630   0.581  0.6925  1.0015 -0.4744
47931SOL     OW49112   5.395   8.823   4.018 -0.1082  0.3758  0.0353
47931SOL    HW149113   5.341   8.761   4.067  0.0996  0.4116  0.3159
47931SOL    HW249114   5.338   8.897   4.001 -0.2350  0.2849  0.0657
47932SOL     OW49115   7.334   7.588   8.973 -0.1938 -0.3167 -0.0665
47932SOL    HW149116   7.255   7.541   9.000 -0.0191 -1.8390 -1.9559
47932SOL    HW249117   7.389   7.521   8.932  0.9582  1.1796 -1.0842
47933SOL     OW49118   6.205  10.008   2.798 -0.0001  0.2278 -0.3513
47933SOL    HW149119   6.160  10.093   2.795 -0.3457  0.0297 -1.0229
47933SOL    HW249120   6.173   9.962   2.721 -0.1685 -0.6949  0.2529
47934SOL     OW49121  10.790   0.680   7.058  0.6764 -0.3159  0.0002
47934SOL    HW149122  10.798   0.598   7.010 -1.1549 -0.7470  0.3403
47934SOL    HW249123  10.707   0.718   7.028  0.9794  0.8981  0.6100
47935SOL     OW49124   4.040   9.168   1.925  0.0842  0.1833  0.0209
47935SOL    HW149125   4.037   9.111   1.848 -1.4910 -1.5422  1.2515
47935SOL    HW249126   3.969   9.231   1.910  1.4301  1.5033 -1.0586
47936SOL     OW49127   7.831   2.265   3.842  0.5360  0.1217  0.0469
47936SOL    HW149128   7.751   2.225   3.807  0.0553  0.3568  0.8290
47936SOL    HW249129   7.883   2.289   3.765  0.4147 -1.1604 -0.4418
47937SOL     OW49130   9.838   9.805   7.594  0.0555 -0.0226  0.3609
47937SOL    HW149131   9.803   9.840   7.513 -0.0592  0.3099  0.5513
47937SOL    HW249132   9.898   9.736   7.567  0.8723  0.8285 -0.0618
47938SOL     OW49133   9.668   4.961   5.634 -0.6289 -0.1359  0.3482
47938SOL    HW149134   9.752   4.941   5.593 -0.4354  0.4800  0.4368
47938SOL    HW249135   9.656   5.055   5.619 -1.9402 -0.4537 -0.8426
47939SOL     OW49136  11.098   2.305   6.275 -0.2196 -0.7235  0.2843
47939SOL    HW149137  11.084   2.375   6.339 -0.9433  0.0929 -0.7327
47939SOL    HW249138  11.014   2.259   6.273 -0.6654  0.0987 -1.0412
47940SOL     OW49139   7.096   0.125   1.917 -0.0330  0.2716  0.0417
47940SOL    HW149140   7.137   0.171   1.990  2.4070 -1.7226  0.0619
47940SOL    HW249141   7.099   0.188   1.845  0.9315  1.0299  0.7086
47941SOL     OW49142  11.591   8.175   6.030 -0.5498 -0.1708 -0.1320
47941SOL    HW149143  11.644   8.096   6.019 -0.0229  0.1904 -0.2247
47941SOL    HW249144  11.521   8.166   5.966 -1.2089 -1.1420  0.6945
47942SOL     OW49145   5.577   1.912   3.304  0.2272  0.0926 -0.1240
47942SOL    HW149146   5.583   2.007   3.317 -0.1964  0.1910 -0.6259
47942SOL    HW249147   5.540   1.902   3.216 -1.0805 -0.5196  0.4703
47943SOL     OW49148  10.303  11.554  10.809  0.1816 -0.2129 -0.4302
47943SOL    HW149149  10.290  11.582  10.899  1.3781 -1.6543  0.2254
47943SOL    HW249150  10.220  11.513  10.784 -0.1460  0.1811  0.0115
47944SOL     OW49151   4.763   0.134   5.851 -0.0609  0.3678  0.3623
47944SOL    HW149152   4.857   0.121   5.836  0.2127 -0.7183  2.6466
47944SOL    HW249153   4.722   0.080   5.783  1.0251 -1.4933  1.1085
47945SOL     OW49154   1.280   4.367   3.615  0.6488 -0.2062  0.6311
47945SOL    HW149155   1.288   4.438   3.551  1.9871  0.6479  1.6707
47945SOL    HW249156   1.292   4.410   3.700  2.5635 -1.7820  1.2454
47946SOL     OW49157   1.337   0.688   8.537 -0.0813  0.1692  0.6066
47946SOL    HW149158   1.347   0.778   8.566  0.0432  0.2493  0.3174
47946SOL    HW249159   1.249   0.684   8.500  0.4684  0.5850 -0.8226
47947SOL     OW49160   0.257   9.009   4.126  0.0005 -0.3845 -0.4827
47947SOL    HW149161   0.336   8.972   4.086 -0.2212  0.3541 -1.6650
47947SOL    HW249162   0.189   8.999   4.058 -1.4217 -2.5832  1.0954
47948SOL     OW49163   0.999   5.847   3.708 -0.0158  0.6660  0.2427
47948SOL    HW149164   0.929   5.794   3.746  1.1724 -0.9586  0.2612
47948SOL    HW249165   0.989   5.835   3.613  0.6980 -0.2115  0.2704
47949SOL     OW49166   4.721   7.166   9.569  0.6474 -0.6816  0.0977
47949SOL    HW149167   4.733   7.092   9.628  1.2019 -0.9589 -0.3598
47949SOL    HW249168   4.717   7.242   9.627 -0.3221 -1.0957  0.5953
47950SOL     OW49169   6.689   6.798   8.455 -0.0364 -0.0856  0.5218
47950SOL    HW149170   6.688   6.795   8.551 -0.8054 -0.1404  0.5186
47950SOL    HW249171   6.607   6.842   8.432  0.7351  1.0967 -0.0783
47951SOL     OW49172  11.007   5.457   5.104 -0.2315  0.2282  0.5147
47951SOL    HW149173  10.941   5.450   5.034 -0.0985 -0.7625  0.4843
47951SOL    HW249174  11.089   5.433   5.062 -0.0278  0.3633  0.8337
47952SOL     OW49175   3.574   2.393   8.092  0.7967  0.7064 -0.4699
47952SOL    HW149176   3.583   2.386   7.997  0.1551 -0.1412 -0.4796
47952SOL    HW249177   3.656   2.431   8.122  1.1384  0.6513 -1.3321
47953SOL     OW49178   6.609   7.608  10.850 -0.4388 -0.0664  0.7452
47953SOL    HW149179   6.562   7.525  10.843  0.1875 -0.4565  1.0303
47953SOL    HW249180   6.685   7.587  10.904 -0.8708  0.9631  1.7685
47954SOL     OW49181   3.507   4.186  10.857 -0.4418 -0.5511  0.2222
47954SOL    HW149182   3.501   4.135  10.776  0.3812 -0.9756  0.4143
47954SOL    HW249183   3.566   4.258  10.835 -0.9515 -0.1403  0.1880
47955SOL     OW49184   3.648   1.693   0.561 -0.1509  0.3509 -0.1686
47955SOL    HW149185   3.647   1.598   0.557 -1.5945  0.3500 -0.3714
47955SOL    HW249186   3.631   1.721   0.471  0.0590  0.7895 -0.0714
47956SOL     OW49187   0.690   2.755   8.397 -0.0487  0.1063 -0.0607
47956SOL    HW149188   0.700   2.707   8.315 -0.9567 -1.5872  0.7634
47956SOL    HW249189   0.610   2.719   8.436 -0.3513  1.7923  0.9677
47957SOL     OW49190   4.202   7.316   6.576 -0.2912 -0.6287  0.0020
47957SOL    HW149191   4.288   7.345   6.546 -0.6936  0.8794  0.2331
47957SOL    HW249192   4.199   7.223   6.553  1.4226 -0.7396  0.0584
47958SOL     OW49193   1.376   4.358   1.159  0.7340  0.5993  0.7602
47958SOL    HW149194   1.436   4.412   1.210  0.3252  1.3257  0.4918
47958SOL    HW249195   1.387   4.388   1.069  0.9876 -0.2324  0.5021
47959SOL     OW49196   5.889   1.637   8.233  0.2892 -0.1639  0.0461
47959SOL    HW149197   5.985   1.639   8.228  0.2577 -0.3116 -0.6929
47959SOL    HW249198   5.869   1.556   8.280  0.4657 -1.5327 -2.1013
47960SOL     OW49199   9.977   4.559   5.323  0.2074  0.0477 -0.4411
47960SOL    HW149200  10.032   4.549   5.246  2.1332  0.9733  0.7261
47960SOL    HW249201   9.959   4.470   5.352  0.7662 -0.2834 -1.0817
47961SOL     OW49202   0.985   6.039   0.808 -0.1829 -0.5988  0.2768
47961SOL    HW149203   1.062   6.016   0.860 -0.6938 -0.5860  1.0526
47961SOL    HW249204   0.911   6.002   0.857 -0.8219  0.7667  0.3809
47962SOL     OW49205   7.124   3.057   4.509  0.0822  0.2147 -0.3188
47962SOL    HW149206   7.123   2.979   4.564 -0.2752  0.0633 -0.5337
47962SOL    HW249207   7.041   3.101   4.528  0.8547  1.2673  0.8127
47963SOL     OW49208   0.243  11.534   9.143  0.6068  0.9692 -0.2158
47963SOL    HW149209   0.274  11.560   9.229 -1.2773  0.6727  0.6160
47963SOL    HW249210   0.301  11.462   9.117 -0.0572 -0.4088  1.8103
47964SOL     OW49211   2.591  10.523   0.284  1.0777 -0.1229 -0.7365
47964SOL    HW149212   2.508  10.477   0.279  0.3089  1.0485  0.4449
47964SOL    HW249213   2.593  10.579   0.207 -0.8547  2.3234  0.8369
47965SOL     OW49214  10.665   3.508   7.669  0.3499 -0.0529 -0.4716
47965SOL    HW149215  10.666   3.502   7.573  2.3016  1.4652 -0.6269
47965SOL    HW249216  10.587   3.559   7.689  0.4243  0.4271 -1.3557
47966SOL     OW49217   7.507   8.200   4.078  0.2995  0.3998  0.4409
47966SOL    HW149218   7.494   8.250   3.997  3.2066  0.3585 -0.1748
47966SOL    HW249219   7.562   8.126   4.052  2.1843  0.9254  2.5296
47967SOL     OW49220   1.420   8.828   2.204  0.6013  0.1088  0.2267
47967SOL    HW149221   1.330   8.844   2.233  0.2584 -1.6344  0.2383
47967SOL    HW249222   1.450   8.912   2.168 -0.9681  0.7511  0.3726
47968SOL     OW49223   5.749   3.284  11.343 -0.0626  0.6682 -0.4978
47968SOL    HW149224   5.754   3.247  11.432 -1.5401  0.5668 -0.4283
47968SOL    HW249225   5.759   3.379  11.356 -2.6326  0.9202  0.1029
47969SOL     OW49226   8.778  10.825   7.278 -1.0337  0.2710  0.0240
47969SOL    HW149227   8.806  10.737   7.305  0.1673  0.7790  0.5036
47969SOL    HW249228   8.717  10.852   7.347  0.3655  0.7041  1.1242
47970SOL     OW49229   3.260  10.397   5.706 -0.8266 -0.0870  0.1736
47970SOL    HW149230   3.330  10.372   5.766 -1.0999  0.3662  0.6969
47970SOL    HW249231   3.305  10.435   5.631 -0.5212  1.7749  1.2259
47971SOL     OW49232  10.289   9.714  10.096 -0.1787  0.4107 -0.2534
47971SOL    HW149233  10.291   9.652  10.023  2.1366 -0.2720  0.2920
47971SOL    HW249234  10.245   9.666  10.167 -0.2716  0.1743 -0.4681
47972SOL     OW49235   7.628   1.737   2.801 -0.0236  0.0258 -0.2903
47972SOL    HW149236   7.575   1.782   2.735 -0.7283  0.8944  0.8299
47972SOL    HW249237   7.718   1.756   2.776 -0.2952  1.1640 -0.4671
47973SOL     OW49238  10.731   9.040   2.244 -0.6253 -0.3531  0.2997
47973SOL    HW149239  10.820   9.064   2.220 -1.1601  2.2864  0.7271
47973SOL    HW249240  10.681   9.049   2.162 -0.7746 -0.4230  0.3820
47974SOL     OW49241   5.785   6.294  11.366  0.1019 -0.7486 -0.0900
47974SOL    HW149242   5.722   6.228  11.395 -1.5162  0.2254 -1.1835
47974SOL    HW249243   5.849   6.245  11.315 -0.1192 -1.7015  0.5329
47975SOL     OW49244   6.341   3.657   6.112  0.2347 -0.2034  0.4690
47975SOL    HW149245   6.303   3.735   6.072  1.1278  0.9561  1.8139
47975SOL    HW249246   6.278   3.632   6.180  0.1637 -0.4058  0.3312
47976SOL     OW49247   6.651   5.900   9.477  0.1889 -0.2469 -0.0974
47976SOL    HW149248   6.724   5.857   9.434 -0.8180 -1.8352 -0.3063
47976SOL    HW249249   6.658   5.875   9.569  1.2349  1.5567  0.3453
47977SOL     OW49250   5.503   7.455  11.199  0.1778  0.0585  0.1734
47977SOL    HW149251   5.576   7.406  11.236 -0.9323  0.4395  3.1464
47977SOL    HW249252   5.435   7.389  11.184  1.2367 -0.4280 -3.3246
47978SOL     OW49253   0.896   6.442   2.373 -0.2714  0.0366  0.2300
47978SOL    HW149254   0.941   6.462   2.291 -0.4574 -0.2661  0.0516
47978SOL    HW249255   0.880   6.527   2.413  0.2052  0.1625  0.1596
47979SOL     OW49256   6.679   0.357  11.511  0.4892 -0.1309 -0.5852
47979SOL    HW149257   6.676   0.344  11.416  0.2007 -0.7898 -0.4865
47979SOL    HW249258   6.601   0.409  11.530  1.1180  0.9403 -0.8435
47980SOL     OW49259   6.737  10.534   5.172  0.5121 -0.0799  0.1807
47980SOL    HW149260   6.726  10.627   5.152 -0.7859 -0.3287 -0.3239
47980SOL    HW249261   6.803  10.503   5.109 -0.0424  0.2030 -0.5471
47981SOL     OW49262   0.249   6.737   4.944  0.1355 -0.1150 -0.4203
47981SOL    HW149263   0.266   6.743   4.850  1.3656  0.0104 -0.2074
47981SOL    HW249264   0.269   6.646   4.966 -1.2253 -0.4434 -0.4620
47982SOL     OW49265   3.205   7.743  10.668 -0.3899 -0.5617 -0.4688
47982SOL    HW149266   3.285   7.794  10.658 -0.8614  0.5974  1.1441
47982SOL    HW249267   3.216   7.697  10.751 -1.2413 -0.6641 -0.4036
47983SOL     OW49268   0.167  10.994   0.559  0.9859  0.1546  0.2086
47983SOL    HW149269   0.095  11.032   0.610  0.8550 -0.5143  0.5379
47983SOL    HW249270   0.236  10.977   0.624 -0.3209 -3.6310  0.8498
47984SOL     OW49271   9.520   0.374  10.839  0.0050 -0.0224 -0.0627
47984SOL    HW149272   9.449   0.393  10.899 -0.6416 -0.6775 -0.6020
47984SOL    HW249273   9.588   0.439  10.860  0.1319 -0.7143  1.8811
47985SOL     OW49274   5.191   4.670  10.074 -0.2363 -0.2635 -0.1004
47985SOL    HW149275   5.162   4.696   9.987  0.7730  1.6037  0.0706
47985SOL    HW249276   5.241   4.745  10.106  0.5030 -1.4108  1.5784
47986SOL     OW49277   2.095  10.237   7.326 -0.1536 -0.0103 -0.2397
47986SOL    HW149278   2.078  10.146   7.353 -1.0857  0.0321 -0.6665
47986SOL    HW249279   2.169  10.230   7.266 -0.2615 -0.4914 -0.3237
47987SOL     OW49280   9.877  11.648  11.081 -0.1045 -0.1291  0.0838
47987SOL    HW149281   9.805  11.596  11.045 -0.0621 -0.0876 -0.0615
47987SOL    HW249282   9.903  11.601  11.160 -0.3835 -0.0688  0.2116
47988SOL     OW49283   6.641   5.289   0.640  0.0921  0.2814  0.5044
47988SOL    HW149284   6.657   5.330   0.725 -0.5171  1.1796  0.2043
47988SOL    HW249285   6.729   5.280   0.602  0.4783 -1.1025  1.6378
47989SOL     OW49286   7.639   6.623   3.032  0.7804 -0.1034  0.1648
47989SOL    HW149287   7.707   6.599   2.970  0.1029  1.5624 -1.2981
47989SOL    HW249288   7.651   6.717   3.046 -1.3766  0.3096 -0.4138
47990SOL     OW49289   9.070   4.010   6.967  0.1704 -0.4459  0.2955
47990SOL    HW149290   9.139   4.069   6.937 -0.3879  0.4443  0.7178
47990SOL    HW249291   9.116   3.945   7.020  0.7182  0.0260  0.4167
47991SOL     OW49292   3.403  11.146   3.069 -0.0409 -0.4421 -0.0814
47991SOL    HW149293   3.425  11.213   3.134  0.5830 -1.5417  0.8963
47991SOL    HW249294   3.390  11.194   2.987  0.9429  0.8010  0.4622
47992SOL     OW49295   6.923   2.048   3.948 -0.4349 -0.4353 -0.1731
47992SOL    HW149296   6.867   1.995   3.892  0.4590 -0.6816 -0.8687
47992SOL    HW249297   6.909   2.014   4.036  0.7291 -2.4330 -0.6902
47993SOL     OW49298   6.235   8.547   0.968  0.2257  0.0418  0.4634
47993SOL    HW149299   6.304   8.497   0.925  1.4307  0.5862  1.6762
47993SOL    HW249300   6.171   8.481   0.996  0.5781 -0.5467 -0.0904
47994SOL     OW49301   4.534   8.448   5.930 -0.5670 -0.1275  0.6173
47994SOL    HW149302   4.540   8.355   5.954 -3.9447 -0.4016  0.8865
47994SOL    HW249303   4.475   8.449   5.854  1.1281  1.6704 -0.7557
47995SOL     OW49304   2.894   1.443   3.693  0.1658  0.1351  0.0986
47995SOL    HW149305   2.945   1.367   3.665 -0.8601 -1.7675  3.0164
47995SOL    HW249306   2.959   1.503   3.729  0.9733  0.7271 -2.1502
47996SOL     OW49307   0.600  10.550   6.135  0.1771  0.0136  0.1645
47996SOL    HW149308   0.649  10.504   6.068  0.4742  0.0438  0.3595
47996SOL    HW249309   0.640  10.636   6.141 -0.4082  0.3182 -0.2311
47997SOL     OW49310   2.131   5.432   9.353  0.1914 -0.1891 -0.0099
47997SOL    HW149311   2.142   5.488   9.276  1.1840 -0.3888 -0.0293
47997SOL    HW249312   2.219   5.398   9.370  0.0924  0.2582  1.5301
47998SOL     OW49313   6.951   4.184  11.096 -0.1867 -0.3582 -0.0143
47998SOL    HW149314   6.908   4.115  11.046 -0.8450  0.6556 -0.8939
47998SOL    HW249315   6.969   4.253  11.032  1.4541 -0.1492  0.6218
47999SOL     OW49316  10.036   6.973   2.266  0.0059 -0.3531  0.0151
47999SOL    HW149317   9.974   6.979   2.338  0.0779 -0.6850  0.1075
47999SOL    HW249318  10.059   6.880   2.261 -0.0382 -0.3417 -0.4680
48000SOL     OW49319   5.669   1.655   4.601  0.2366  0.0808 -0.3015
48000SOL    HW149320   5.733   1.717   4.633 -0.7369  0.6829  0.5341
48000SOL    HW249321   5.597   1.709   4.568 -0.2981 -0.5888 -0.2566
48001SOL     OW49322   7.901  10.634  11.104 -0.4941 -0.0746  0.1056
48001SOL    HW149323   7.854  10.552  11.089 -0.9643  0.1748  0.1893
48001SOL    HW249324   7.921  10.666  11.016 -0.1888 -0.3466  0.0761
48002SOL     OW49325   7.967   9.621   8.565  0.0300 -0.1626 -0.2422
48002SOL    HW149326   8.045   9.617   8.619 -0.7873 -2.0537  0.9025
48002SOL    HW249327   7.997   9.597   8.477  0.7645 -0.7638  0.1645
48003SOL     OW49328   8.909   5.255   7.579 -0.4756  0.2244  0.7507
48003SOL    HW149329   8.913   5.160   7.568 -0.8823  0.1734  0.9940
48003SOL    HW249330   8.885   5.288   7.492 -1.3341  0.0180  0.8949
48004SOL     OW49331   0.998   0.260   8.592 -0.2422  0.3302  0.1573
48004SOL    HW149332   0.926   0.314   8.560 -0.0738 -0.3435 -1.4843
48004SOL    HW249333   1.053   0.246   8.515  2.0070  1.3347  1.4690
48005SOL     OW49334  10.517  11.021   2.601  0.0561  0.2829  0.4218
48005SOL    HW149335  10.511  10.939   2.651 -3.5341 -0.4784 -0.9724
48005SOL    HW249336  10.430  11.060   2.609  0.6227  2.2075 -1.8286
48006SOL     OW49337   8.168   7.969   2.751  0.8439  0.1334  0.1135
48006SOL    HW149338   8.130   7.951   2.837  2.2768  2.0995  1.2412
48006SOL    HW249339   8.095   7.958   2.690 -1.1930  2.1256  1.9788
48007SOL     OW49340  10.290   4.820   0.328  0.1291 -0.5295 -0.5966
48007SOL    HW149341  10.331   4.735   0.314 -1.8255 -1.6482  0.0148
48007SOL    HW249342  10.359   4.875   0.364  1.5915 -1.6660 -1.5699
48008SOL     OW49343   8.770   2.911   2.610  0.0563  0.0160  0.3387
48008SOL    HW149344   8.818   2.892   2.530  0.4860  0.1887  0.5452
48008SOL    HW249345   8.757   3.006   2.608  0.1361  0.0320  0.5057
48009SOL     OW49346   1.902   7.661   0.666 -0.1756 -0.3224  0.1411
48009SOL    HW149347   1.908   7.566   0.667 -0.7005 -0.3553  0.5549
48009SOL    HW249348   1.985   7.690   0.629  0.8153 -0.8529  1.8874
48010SOL     OW49349   5.711   2.144   2.375 -0.4829 -0.5313  0.5866
48010SOL    HW149350   5.623   2.108   2.385 -0.9867 -0.1035 -1.7441
48010SOL    HW249351   5.709   2.190   2.291  1.9445 -0.3987  0.5248
48011SOL     OW49352  10.009   2.443   4.949 -0.3116  0.3186 -0.0290
48011SOL    HW149353   9.938   2.460   4.887  1.8198 -0.0127 -2.7565
48011SOL    HW249354  10.075   2.508   4.927  1.7877 -1.7676 -0.2833
48012SOL     OW49355   7.022   6.547   0.021 -0.0937 -0.5889  0.4193
48012SOL    HW149356   6.940   6.595   0.006 -0.8627 -2.1548 -0.7036
48012SOL    HW249357   7.052   6.524  -0.067  1.5987 -0.0084  0.8181
48013SOL     OW49358   7.450  10.828   6.317 -0.2534 -0.2055  0.3129
48013SOL    HW149359   7.452  10.732   6.318  1.8079 -0.2488 -1.0759
48013SOL    HW249360   7.360  10.850   6.292 -0.2484 -1.8752 -1.4689
48014SOL     OW49361   2.478   5.335   3.166 -0.4530  0.6863  0.1207
48014SOL    HW149362   2.500   5.242   3.167 -0.1705  0.7530  0.2009
48014SOL    HW249363   2.428   5.349   3.246  1.4544  1.0639  1.3126
48015SOL     OW49364   1.319   5.450   2.959 -0.5169  0.1400  0.0413
48015SOL    HW149365   1.260   5.432   2.885  0.1503 -1.8729 -0.0639
48015SOL    HW249366   1.374   5.372   2.964  1.2003  1.3732  1.0376
48016SOL     OW49367  11.245   1.903   9.393  0.6603 -0.1742  0.3069
48016SOL    HW149368  11.309   1.949   9.338  0.3358  0.8230  0.7491
48016SOL    HW249369  11.194   1.852   9.331  0.2663  0.9827 -0.3480
48017SOL     OW49370   6.523   2.961   0.348 -0.5444  0.2004 -0.0773
48017SOL    HW149371   6.594   3.017   0.381 -1.9543  0.9965  1.8004
48017SOL    HW249372   6.559   2.921   0.269  1.1846  2.3350 -0.4724
48018SOL     OW49373  10.678   3.620   9.897 -0.1147 -0.4348  0.1265
48018SOL    HW149374  10.659   3.712   9.880  0.5720  0.1409  2.1951
48018SOL    HW249375  10.735   3.594   9.825 -2.4444 -0.0899 -2.0148
48019SOL     OW49376  11.776   4.557   7.990  0.1242 -0.8490 -0.3502
48019SOL    HW149377  11.860   4.586   7.954  0.2422  0.4139  0.8711
48019SOL    HW249378  11.800   4.485   8.049  0.0985 -1.8400 -1.5017
48020SOL     OW49379   3.499   4.775   5.093 -0.2358  0.7843 -0.2397
48020SOL    HW149380   3.472   4.865   5.075 -1.3758  0.5536  0.2741
48020SOL    HW249381   3.564   4.756   5.025 -0.7251  1.6543 -0.9700
48021SOL     OW49382   8.227   5.313   4.356  0.0518 -0.5107  0.5799
48021SOL    HW149383   8.322   5.304   4.350  0.1933 -1.8502  3.1402
48021SOL    HW249384   8.201   5.359   4.276  2.8023 -0.3407 -0.3027
48022SOL     OW49385   5.605   6.994   0.367 -0.7323  0.3987  0.7346
48022SOL    HW149386   5.589   6.969   0.276 -0.3792 -0.0892  0.8017
48022SOL    HW249387   5.547   7.068   0.382 -0.8973  0.3928  0.1537
48023SOL     OW49388  10.037   9.732  10.943  0.1618 -0.0456  0.2076
48023SOL    HW149389  10.110   9.746  11.002  0.6097 -1.0878 -0.0670
48023SOL    HW249390  10.023   9.637  10.945 -0.7977  0.0780 -0.1936
48024SOL     OW49391   5.440   5.621  10.219  0.7119  0.4796 -0.2363
48024SOL    HW149392   5.476   5.605  10.306  1.9748  0.1997 -0.7778
48024SOL    HW249393   5.381   5.547  10.203  0.3427  0.6267  0.4502
48025SOL     OW49394   1.532   9.504   0.447 -0.4312 -0.1353 -0.4238
48025SOL    HW149395   1.531   9.502   0.352  2.4233 -1.4880 -0.5179
48025SOL    HW249396   1.476   9.430   0.473 -0.4280 -0.3608 -1.0572
48026SOL     OW49397   9.643  10.866   9.755 -0.0124  0.1190 -0.3485
48026SOL    HW149398   9.575  10.827   9.809  1.8655  0.0527  2.1764
48026SOL    HW249399   9.722  10.815   9.774  1.4619  2.1392 -0.5924
48027SOL     OW49400   1.690   0.380   8.062  0.0751  0.0266  0.0483
48027SOL    HW149401   1.769   0.402   8.013 -1.5614  1.3134 -2.2380
48027SOL    HW249402   1.650   0.465   8.082 -0.7831 -0.5851  1.0546
48028SOL     OW49403   8.235   7.592   9.733  0.1886  0.2102 -0.8073
48028SOL    HW149404   8.257   7.649   9.659  1.9183 -0.3819 -0.8153
48028SOL    HW249405   8.319   7.552   9.757 -0.8879 -2.1121 -0.6373
48029SOL     OW49406   4.468   9.516   4.795  0.0643 -0.5396 -0.3020
48029SOL    HW149407   4.418   9.464   4.858  0.8560 -1.2386 -0.2335
48029SOL    HW249408   4.497   9.593   4.844 -1.2212  0.0485 -0.4364
48030SOL     OW49409   6.300   1.361   6.249  0.2903  0.5137  0.0369
48030SOL    HW149410   6.371   1.420   6.271  1.3374 -0.9609  0.7705
48030SOL    HW249411   6.342   1.291   6.200 -0.1909 -1.5110  2.3271
48031SOL     OW49412   0.811   3.980   5.848  0.0423  1.1781  0.5611
48031SOL    HW149413   0.843   3.892   5.864 -0.8260  0.8996  0.7778
48031SOL    HW249414   0.890   4.031   5.831  0.5055  0.2073 -0.3476
48032SOL     OW49415   8.319   9.106   2.377 -0.6056  0.2420  0.3772
48032SOL    HW149416   8.322   9.160   2.299  2.4813 -2.1937 -1.4364
48032SOL    HW249417   8.408   9.110   2.412 -0.8152 -1.9266  1.3518
48033SOL     OW49418   8.901   3.837   3.814  0.1120  0.1119 -0.3310
48033SOL    HW149419   8.872   3.782   3.887  0.1664  1.5482  0.8164
48033SOL    HW249420   8.839   3.909   3.812 -0.1552 -0.1270 -2.0383
48034SOL     OW49421  10.024   3.069   7.908 -0.3826  0.3255 -0.7507
48034SOL    HW149422  10.052   2.993   7.858 -0.2257  0.0560 -0.2646
48034SOL    HW249423  10.104   3.101   7.951 -0.5410  0.4562 -0.5476
48035SOL     OW49424   6.955  11.375   7.804 -0.2332  0.0183 -0.1621
48035SOL    HW149425   6.935  11.393   7.712 -1.0505  0.4477  0.0908
48035SOL    HW249426   6.943  11.281   7.813  0.3623 -0.1102 -0.6067
48036SOL     OW49427   5.133   7.260  10.931  0.1585 -0.5438 -0.1066
48036SOL    HW149428   5.161   7.294  10.846  3.1532 -3.0447 -0.2854
48036SOL    HW249429   5.043   7.231  10.917 -0.0580  0.7795 -1.8469
48037SOL     OW49430   4.633   0.975   7.819  0.1919  0.2062 -0.3860
48037SOL    HW149431   4.556   1.025   7.845  0.1971  0.6830 -1.2505
48037SOL    HW249432   4.705   1.016   7.867  0.1038  0.6244 -0.6032
48038SOL     OW49433   7.737   9.794   5.197 -0.0914  0.1496  0.0950
48038SOL    HW149434   7.665   9.808   5.258  0.7409 -1.7139  1.5984
48038SOL    HW249435   7.701   9.733   5.132  0.0187 -0.5661  0.6919
48039SOL     OW49436   5.848   2.395   1.543  0.0875  0.1412 -0.6074
48039SOL    HW149437   5.780   2.335   1.513  0.8451 -0.4368 -1.2043
48039SOL    HW249438   5.864   2.453   1.468  1.3256 -0.7093 -1.0266
48040SOL     OW49439   2.344   4.266   1.096 -0.0038 -0.4164 -0.5347
48040SOL    HW149440   2.288   4.343   1.105 -0.1320 -0.5151 -0.4808
48040SOL    HW249441   2.378   4.250   1.185 -0.8575 -1.0811 -0.3137
48041SOL     OW49442   6.452   6.002   0.277  0.0726  0.5643  0.3057
48041SOL    HW149443   6.430   6.088   0.243  1.1632  0.7855  0.1374
48041SOL    HW249444   6.519   5.968   0.218 -1.6140 -1.1874 -0.7127
48042SOL     OW49445   0.840   0.661   2.213 -0.5144  0.0762  0.5006
48042SOL    HW149446   0.839   0.696   2.123 -1.6895  0.5285  0.6656
48042SOL    HW249447   0.780   0.718   2.261  1.6991  1.1884  2.1420
48043SOL     OW49448   4.401  11.733   2.897  0.6028 -0.2755  0.7291
48043SOL    HW149449   4.406  11.645   2.935  1.0432  0.5591  2.7144
48043SOL    HW249450   4.470  11.782   2.941  1.5627  0.6486 -1.6453
48044SOL     OW49451  10.068   0.927   0.850  0.0490  0.1163  0.5133
48044SOL    HW149452  10.117   0.959   0.775 -1.4229 -1.8055 -1.3831
48044SOL    HW249453  10.132   0.881   0.904  1.1529  1.6551  0.5707
48045SOL     OW49454   4.143   9.615   3.069 -0.1801 -0.7096 -0.3397
48045SOL    HW149455   4.140   9.550   2.999 -1.5024  0.1947 -1.1751
48045SOL    HW249456   4.076   9.679   3.045 -1.2192 -0.7566  2.1382
48046SOL     OW49457   6.758   2.243   9.468  0.2702  0.6089  0.3318
48046SOL    HW149458   6.841   2.196   9.475  1.6915  2.9939  0.5434
48046SOL    HW249459   6.748   2.260   9.374  0.8835  1.7271  0.4579
48047SOL     OW49460   4.693   6.260   7.188  0.3023 -0.0222 -0.1156
48047SOL    HW149461   4.704   6.165   7.186  3.4857  0.2579 -0.7450
48047SOL    HW249462   4.690   6.286   7.096 -1.8068  0.4540  0.0347
48048SOL     OW49463   6.658   7.497  10.301  0.3730 -0.0717 -0.1799
48048SOL    HW149464   6.571   7.532  10.283  0.2860 -0.1885  0.0160
48048SOL    HW249465   6.681   7.448  10.223  1.4819  2.3282 -1.4942
48049SOL     OW49466   4.266   3.678   0.750 -0.3256 -0.2338 -0.1753
48049SOL    HW149467   4.360   3.671   0.762 -0.5730 -0.4825  1.9504
48049SOL    HW249468   4.252   3.769   0.723  0.4708 -0.0754 -0.0721
48050SOL     OW49469   6.971   3.175   9.060 -0.6961  0.1798  0.1758
48050SOL    HW149470   6.965   3.126   8.979  0.7861  1.5000 -0.7914
48050SOL    HW249471   6.920   3.255   9.044  0.0783  0.7099  0.3127
48051SOL     OW49472   7.335   9.918   1.158 -0.7575  0.6169  0.2884
48051SOL    HW149473   7.382   9.858   1.216  1.3555  2.4764  0.6606
48051SOL    HW249474   7.275   9.965   1.215  1.1043  2.2294  1.0471
48052SOL     OW49475   2.353   6.074   1.786  0.6155  0.3806 -0.2013
48052SOL    HW149476   2.298   6.088   1.864  0.3085 -0.9783 -0.1424
48052SOL    HW249477   2.419   6.011   1.815  0.4818 -0.1573 -1.0372
48053SOL     OW49478   3.266   3.305   9.981  0.3519 -0.3516  0.0207
48053SOL    HW149479   3.257   3.371   9.911  0.0085 -0.7232 -0.2895
48053SOL    HW249480   3.280   3.223   9.934 -0.3754 -0.6839  0.3826
48054SOL     OW49481   8.291   5.777   1.474 -0.2502 -0.2279  0.8268
48054SOL    HW149482   8.278   5.777   1.569 -0.2663 -0.4712  0.8241
48054SOL    HW249483   8.231   5.845   1.442  0.5464  0.6266  1.0929
48055SOL     OW49484   7.649   3.626   1.991  0.2708 -0.5782  0.3968
48055SOL    HW149485   7.717   3.689   1.968 -0.6703  0.4425  0.2938
48055SOL    HW249486   7.602   3.611   1.909 -0.7280  0.1296  0.8147
48056SOL     OW49487   5.040   7.205   6.015  0.2171  0.1706 -0.1849
48056SOL    HW149488   4.997   7.198   5.930  1.1896 -0.8663 -0.6016
48056SOL    HW249489   5.124   7.246   5.996  0.0789  0.7542  0.4188
48057SOL     OW49490   2.819   7.671   8.841 -0.4114  0.0242 -0.3311
48057SOL    HW149491   2.899   7.636   8.881 -0.0991 -0.2639 -1.1787
48057SOL    HW249492   2.817   7.763   8.869 -0.0061 -0.0717  0.0298
48058SOL     OW49493   3.052   4.716   8.963  0.2540  0.9590 -0.6011
48058SOL    HW149494   2.967   4.729   8.920  0.4467  0.1015 -1.2769
48058SOL    HW249495   3.109   4.683   8.894  0.8881  0.6427  0.0607
48059SOL     OW49496  11.128   7.756   1.381 -0.2681 -0.2300 -0.4535
48059SOL    HW149497  11.209   7.744   1.331 -1.6283 -1.9800 -2.3784
48059SOL    HW249498  11.103   7.847   1.366  0.6805 -0.0285 -0.8505
48060SOL     OW49499  10.088   8.399   9.263 -0.5236  0.3368  0.2451
48060SOL    HW149500  10.089   8.467   9.331 -1.5979 -0.4169  1.0409
48060SOL    HW249501  10.000   8.362   9.267 -0.5144  0.0670 -1.3782
48061SOL     OW49502   8.176   7.744   6.447  0.3110  0.3809 -0.2682
48061SOL    HW149503   8.144   7.668   6.496 -1.2037  0.3905 -1.1596
48061SOL    HW249504   8.264   7.760   6.480  0.2099 -1.0525  0.7489
48062SOL     OW49505   7.405   4.651   8.353 -0.0467  0.0441 -0.2516
48062SOL    HW149506   7.492   4.678   8.326  0.3439 -1.7894 -0.9722
48062SOL    HW249507   7.415   4.621   8.443 -0.0461  0.2380 -0.1853
48063SOL     OW49508   2.305   3.029   6.972 -0.4918  0.1584 -0.4479
48063SOL    HW149509   2.343   2.972   7.038  0.0222  0.5258 -0.4239
48063SOL    HW249510   2.219   3.053   7.006 -0.3302  0.1395 -0.0313
48064SOL     OW49511  10.501   1.517   2.891  0.4710 -0.2343  0.2407
48064SOL    HW149512  10.546   1.600   2.875 -0.5763  0.4643  0.7685
48064SOL    HW249513  10.497   1.510   2.987 -1.2694  0.1692  0.2308
48065SOL     OW49514   9.551   1.262   1.886  0.0079 -0.5399 -0.5768
48065SOL    HW149515   9.498   1.199   1.837 -1.4011  0.8072 -0.8773
48065SOL    HW249516   9.490   1.333   1.907  1.3206  0.3044  0.5311
48066SOL     OW49517   9.951   8.196   9.798  0.0317 -0.5152  0.3012
48066SOL    HW149518  10.004   8.157   9.867  0.6706  1.1570  0.7884
48066SOL    HW249519   9.916   8.276   9.837  0.1315  0.2878 -1.1933
48067SOL     OW49520   1.088   2.871   1.661 -0.1526  0.0184 -0.1747
48067SOL    HW149521   1.181   2.860   1.679 -0.5023 -2.1433  0.6670
48067SOL    HW249522   1.076   2.836   1.573 -0.1312  0.5578 -0.3934
48068SOL     OW49523   6.192   2.931   2.751 -0.3922 -0.1741  0.0694
48068SOL    HW149524   6.149   2.909   2.668  0.2454  0.3056 -0.3924
48068SOL    HW249525   6.228   2.848   2.782  0.6099 -0.1110 -0.8610
48069SOL     OW49526   5.468   6.688  11.034 -0.0355  0.0479 -0.3810
48069SOL    HW149527   5.541   6.636  11.001  1.5970  2.0800 -0.1449
48069SOL    HW249528   5.406   6.691  10.962  1.2140  0.2688 -1.4818
48070SOL     OW49529  11.022   3.351   9.047 -0.1630  0.2554  0.0834
48070SOL    HW149530  10.981   3.337   8.962 -1.0790 -0.9085  0.6771
48070SOL    HW249531  11.115   3.360   9.029  0.0117 -2.5527 -0.8412
48071SOL     OW49532   8.471   2.502   3.147 -0.5340 -0.1384  0.4126
48071SOL    HW149533   8.482   2.441   3.220 -0.7318  1.1788  1.6028
48071SOL    HW249534   8.455   2.446   3.071 -0.6842 -1.5547  1.4400
48072SOL     OW49535   3.974   5.761   1.066  0.3360  0.2241  0.2336
48072SOL    HW149536   3.968   5.782   0.972  1.3247  0.2723  0.1766
48072SOL    HW249537   4.037   5.824   1.101 -1.7131  1.7636  1.4171
48073SOL     OW49538  11.305   9.635   9.833 -0.2656 -0.1883 -0.3393
48073SOL    HW149539  11.298   9.696   9.907  0.0491 -1.1162  0.4825
48073SOL    HW249540  11.235   9.571   9.848 -1.6811  0.8697 -2.0915
48074SOL     OW49541   8.389   8.786  11.232  0.4304  0.1969  0.3145
48074SOL    HW149542   8.375   8.696  11.261 -2.1089  0.5575  0.4132
48074SOL    HW249543   8.477   8.785  11.193  0.0248 -2.5752 -0.7506
48075SOL     OW49544   9.505   7.097  10.253 -0.1740  0.1951  0.3897
48075SOL    HW149545   9.461   7.088  10.338  1.6086 -2.3828  1.1488
48075SOL    HW249546   9.525   7.008  10.226 -0.8792  0.8880 -2.9537
48076SOL     OW49547   0.324   3.767   5.890  0.2736 -0.4332 -0.4613
48076SOL    HW149548   0.244   3.728   5.926  0.3407 -0.7690 -0.6739
48076SOL    HW249549   0.343   3.840   5.948  0.7404 -1.3541  0.5730
48077SOL     OW49550   7.145   0.432   0.988  0.0694  0.0303 -0.1404
48077SOL    HW149551   7.221   0.423   1.046 -0.8749 -0.2554  1.1052
48077SOL    HW249552   7.115   0.342   0.973  0.5960  0.0620 -1.5211
48078SOL     OW49553   6.663  10.428  10.566 -0.5340 -0.3982  0.2387
48078SOL    HW149554   6.591  10.444  10.505 -2.2491 -0.0208  2.2438
48078SOL    HW249555   6.631  10.359  10.624  0.8655 -0.4536  0.9840
48079SOL     OW49556  10.751  11.406   2.129 -0.1206  0.1004 -0.3839
48079SOL    HW149557  10.697  11.447   2.197  1.7043 -0.0618  1.2378
48079SOL    HW249558  10.837  11.395   2.169  0.8667 -0.6118 -2.5259
48080SOL     OW49559   4.519  10.339  11.238  0.9547 -0.4146  0.3147
48080SOL    HW149560   4.435  10.313  11.201  1.3227 -0.6708 -0.3561
48080SOL    HW249561   4.584  10.298  11.182  1.5606  1.6650 -0.6129
48081SOL     OW49562   3.015   7.790   1.631 -0.6610 -0.2455 -0.2017
48081SOL    HW149563   2.994   7.817   1.542  0.9447  0.2054 -0.4561
48081SOL    HW249564   3.065   7.709   1.621 -1.0776 -0.5812  0.3334
48082SOL     OW49565   1.605   4.629  11.487  0.3206 -0.5884  0.4628
48082SOL    HW149566   1.666   4.569  11.530  0.0984 -1.4600 -0.4239
48082SOL    HW249567   1.649   4.657  11.407  0.1456 -0.0794  0.5329
48083SOL     OW49568   4.042   0.968   7.584 -0.5441 -0.6019 -0.3697
48083SOL    HW149569   4.099   1.041   7.559 -1.0527  0.0097  0.2131
48083SOL    HW249570   4.103   0.897   7.606 -0.0653 -0.6439 -1.7645
48084SOL     OW49571   6.173   7.900  11.665  0.5987  0.1252  0.4608
48084SOL    HW149572   6.125   7.824  11.634  1.6031 -1.3799  2.3719
48084SOL    HW249573   6.259   7.894  11.623  0.5353  0.4413  0.2862
48085SOL     OW49574   0.119   1.503   3.390  0.6659 -0.4853  0.0194
48085SOL    HW149575   0.125   1.590   3.351  2.4285 -0.3504  0.4939
48085SOL    HW249576   0.209   1.483   3.418  0.5723 -2.9848 -1.2084
48086SOL     OW49577   3.405   0.644   5.798 -0.7401  0.2955  0.1406
48086SOL    HW149578   3.467   0.716   5.783 -1.1761  0.5158 -0.6305
48086SOL    HW249579   3.330   0.686   5.840 -1.2335  0.4052 -0.8255
48087SOL     OW49580   0.865   8.772   2.821 -0.1502  0.1780 -0.0815
48087SOL    HW149581   0.907   8.821   2.750 -1.7252  0.3467 -0.9572
48087SOL    HW249582   0.886   8.680   2.802  2.1069  0.3774  1.0941
48088SOL     OW49583   3.999   7.494   2.679  0.2122 -0.4631 -0.3697
48088SOL    HW149584   3.936   7.522   2.613 -0.7113 -2.0022 -0.1897
48088SOL    HW249585   3.959   7.416   2.719  1.2837 -0.2609  1.1849
48089SOL     OW49586   9.369   1.666   8.267  0.0686  0.4070  0.1182
48089SOL    HW149587   9.402   1.576   8.261  0.0146  0.4553 -1.2865
48089SOL    HW249588   9.282   1.657   8.305 -0.5754 -0.3334 -1.4352
48090SOL     OW49589   8.506  10.363  10.189 -0.3451 -0.8952 -0.0099
48090SOL    HW149590   8.448  10.287  10.186  0.2447 -1.3677  0.1786
48090SOL    HW249591   8.455  10.435  10.151 -0.2265 -1.8401 -2.0895
48091SOL     OW49592   8.135   8.118   9.881 -0.0465  0.1393  0.1177
48091SOL    HW149593   8.143   8.158   9.968  0.6746 -0.8361  0.5177
48091SOL    HW249594   8.049   8.078   9.882  0.0220 -0.0074  0.4458
48092SOL     OW49595   1.143   9.930  10.721  0.5702  0.2576 -0.0833
48092SOL    HW149596   1.189   9.877  10.656  2.0640 -0.0064  1.1273
48092SOL    HW249597   1.133   9.872  10.796  1.7353  1.4666  1.0612
48093SOL     OW49598   7.426   8.040  10.429  0.2908  0.2584 -0.5049
48093SOL    HW149599   7.445   7.961  10.380  0.0438  0.0225 -0.2253
48093SOL    HW249600   7.497   8.100  10.407  0.5681 -0.1003 -0.5876
48094SOL     OW49601   1.446   1.064   5.435 -0.3442  0.3232  0.5208
48094SOL    HW149602   1.401   1.017   5.364 -0.8467  0.1113  0.9700
48094SOL    HW249603   1.539   1.051   5.417 -0.4659  0.2986 -0.1203
48095SOL     OW49604   3.224   4.668   2.883  0.0865  0.0521  0.0697
48095SOL    HW149605   3.302   4.707   2.922 -0.6113  1.0033  0.5388
48095SOL    HW249606   3.195   4.602   2.947  0.9880 -0.9385 -0.5068
48096SOL     OW49607   0.136   8.798   8.203 -0.5178  0.6931 -0.3437
48096SOL    HW149608   0.125   8.797   8.298 -0.8188  0.7481 -0.3779
48096SOL    HW249609   0.231   8.799   8.190 -0.4749  1.5884 -0.0284
48097SOL     OW49610   5.704   4.470   2.695 -0.1083  0.0907  0.6162
48097SOL    HW149611   5.747   4.490   2.778 -0.1945 -1.3822  1.0485
48097SOL    HW249612   5.737   4.537   2.634  0.8175  0.5213  1.5538
48098SOL     OW49613   8.540   7.544   3.184  0.3522  0.1681 -1.0165
48098SOL    HW149614   8.536   7.546   3.088 -0.4529  0.8983 -0.9807
48098SOL    HW249615   8.485   7.470   3.208  0.1450  0.2961 -1.0973
48099SOL     OW49616   2.864   8.576   9.947  0.1395  0.1978  0.0684
48099SOL    HW149617   2.871   8.636   9.873  0.3159  0.5720  0.3846
48099SOL    HW249618   2.771   8.555   9.953  0.1015  0.3023 -0.1496
48100SOL     OW49619   8.674   2.129   5.285  0.0511 -0.3505  0.1714
48100SOL    HW149620   8.726   2.184   5.226  0.4631 -0.6605  0.2397
48100SOL    HW249621   8.738   2.069   5.323 -0.1847 -0.0512  1.0498
48101SOL     OW49622   6.554   3.079  10.636 -0.2664 -0.0942  0.1498
48101SOL    HW149623   6.576   3.149  10.575 -0.8790  1.9715  2.1803
48101SOL    HW249624   6.538   3.123  10.719  0.8788 -2.7990  1.9557
48102SOL     OW49625   6.304  11.579   9.438 -0.2654 -0.5003 -0.1977
48102SOL    HW149626   6.345  11.519   9.501 -0.0127 -0.1769 -0.0545
48102SOL    HW249627   6.359  11.657   9.440 -1.2932  0.2201  0.5334
48103SOL     OW49628   1.053   8.480   2.544 -0.0687  0.0212  0.5115
48103SOL    HW149629   1.042   8.542   2.472 -0.2402  0.0087  0.5243
48103SOL    HW249630   1.145   8.456   2.542 -0.4670 -1.5612 -1.0161
48104SOL     OW49631   6.009   7.548   8.332 -0.3276 -0.1682  0.2779
48104SOL    HW149632   6.057   7.626   8.362 -1.2082  0.7704 -0.6441
48104SOL    HW249633   6.028   7.544   8.238  0.2194 -1.4723  0.4184
48105SOL     OW49634   1.596   5.068   7.735  0.0187  0.1365 -0.5540
48105SOL    HW149635   1.625   5.152   7.773 -1.5597 -0.1679  1.4894
48105SOL    HW249636   1.622   5.003   7.800 -1.8251 -0.5432 -0.4638
48106SOL     OW49637   3.701   4.984   7.550 -0.1280 -0.3293 -0.0417
48106SOL    HW149638   3.626   5.035   7.520 -0.2910 -0.7998 -0.4450
48106SOL    HW249639   3.662   4.913   7.601  0.0959 -0.0751  0.4908
48107SOL     OW49640   6.650   8.960   8.940 -0.4113  0.5432  0.3961
48107SOL    HW149641   6.563   8.999   8.936 -0.6972 -0.1562 -0.6397
48107SOL    HW249642   6.637   8.876   8.985 -0.1409  0.7544  0.8759
48108SOL     OW49643   1.860   5.675   0.374  0.0369 -0.3088 -0.1766
48108SOL    HW149644   1.916   5.639   0.305 -0.3386 -3.9325  1.1795
48108SOL    HW249645   1.779   5.625   0.369 -0.3626 -0.0394  2.2747
48109SOL     OW49646   7.973  10.928  11.547  0.0812 -0.2412  0.2584
48109SOL    HW149647   8.052  10.890  11.587  0.3091  0.1642  0.2002
48109SOL    HW249648   7.970  10.890  11.459  1.3912  1.3234 -0.5130
48110SOL     OW49649   5.231   9.658   6.005 -0.2673 -0.2714 -0.3448
48110SOL    HW149650   5.285   9.583   5.982 -0.5945  0.5548 -4.7019
48110SOL    HW249651   5.141   9.628   5.991 -0.5587  0.1866  0.4832
48111SOL     OW49652   4.770   0.467   9.007  0.1214 -0.1875 -0.2697
48111SOL    HW149653   4.760   0.481   9.101  0.5376  1.1113 -0.4017
48111SOL    HW249654   4.852   0.418   9.000 -0.3335 -1.0162  0.0872
48112SOL     OW49655   7.768  11.508   7.500 -0.4224  0.8030  0.2345
48112SOL    HW149656   7.744  11.422   7.466  2.1049  0.4208 -0.7915
48112SOL    HW249657   7.708  11.522   7.573 -0.9451 -1.8061  0.4062
48113SOL     OW49658   0.991   4.239   5.095  0.5073 -0.2194  0.3296
48113SOL    HW149659   1.022   4.149   5.088 -0.6117 -0.8649  2.4624
48113SOL    HW249660   1.011   4.264   5.186  1.6856  2.0797 -0.4759
48114SOL     OW49661   7.674   4.565   1.220 -0.2250 -0.6207 -0.8132
48114SOL    HW149662   7.633   4.568   1.307  0.0618 -3.1736 -0.5147
48114SOL    HW249663   7.761   4.601   1.234 -0.6359  0.2287 -0.3511
48115SOL     OW49664   2.894   0.765   6.479  0.1734  0.3210 -0.4153
48115SOL    HW149665   2.971   0.821   6.470  0.3551  0.1059 -0.2091
48115SOL    HW249666   2.913   0.710   6.555 -0.1783  0.2570 -0.3694
48116SOL     OW49667   3.531   2.608  11.141  0.1480 -0.3177 -0.3544
48116SOL    HW149668   3.487   2.575  11.220 -0.2372 -0.9791 -0.8290
48116SOL    HW249669   3.588   2.536  11.115  0.3273 -0.0712 -0.6404
48117SOL     OW49670  11.019  10.361   3.707 -0.2854  0.0355  0.1322
48117SOL    HW149671  11.019  10.327   3.617 -1.6212 -0.1209  0.1639
48117SOL    HW249672  11.055  10.291   3.760 -0.3039 -0.2104 -0.1764
48118SOL     OW49673   3.386   0.943   9.675 -0.2786  0.0095 -0.8988
48118SOL    HW149674   3.464   0.995   9.657  0.4319 -0.0166  1.6736
48118SOL    HW249675   3.329   1.003   9.724  0.8110 -1.6293  2.6766
48119SOL     OW49676  11.425   7.524   1.450 -0.2710 -0.1334 -0.0297
48119SOL    HW149677  11.511   7.560   1.471  0.2223 -0.3298 -1.5751
48119SOL    HW249678  11.406   7.557   1.362 -1.7815 -0.0984  0.2771
48120SOL     OW49679   2.880   0.108   6.681  0.6036 -0.6197 -0.4878
48120SOL    HW149680   2.902   0.093   6.773 -2.5942 -0.8420  0.3608
48120SOL    HW249681   2.872   0.203   6.673  2.0039 -0.5114 -0.8898
48121SOL     OW49682   9.649  11.210   6.274 -0.7633  0.1285  0.0010
48121SOL    HW149683   9.617  11.292   6.313 -0.4541  1.0621 -1.6056
48121SOL    HW249684   9.691  11.238   6.192 -0.3464 -1.6173 -0.4115
48122SOL     OW49685   9.696   9.210   5.589  0.5945  0.3514 -0.0332
48122SOL    HW149686   9.790   9.209   5.608  0.3297 -1.2333  1.4473
48122SOL    HW249687   9.658   9.261   5.660  0.1957 -0.3042  0.2307
48123SOL     OW49688   9.082   5.926   1.222 -0.4950  0.0780  0.4946
48123SOL    HW149689   8.996   5.886   1.207  0.6371 -2.1379 -0.6730
48123SOL    HW249690   9.085   5.999   1.160 -1.0017 -0.7426 -0.5440
48124SOL     OW49691   4.003   3.613   7.592 -0.1395  0.1590  0.0839
48124SOL    HW149692   3.989   3.691   7.538  1.3156  0.5429  0.2051
48124SOL    HW249693   4.001   3.645   7.682  1.3554  0.2495  0.1094
48125SOL     OW49694   8.422   5.721  10.689 -0.4205 -0.0074 -0.3532
48125SOL    HW149695   8.512   5.741  10.715 -0.5495  0.4267 -0.2500
48125SOL    HW249696   8.376   5.704  10.770 -0.5981  0.4382 -0.3633
48126SOL     OW49697   7.074   5.706   8.612 -0.3154  0.1689  0.5294
48126SOL    HW149698   7.152   5.675   8.658 -0.4688  0.9613  1.3677
48126SOL    HW249699   7.020   5.745   8.681 -2.1382 -1.6360  0.2071
48127SOL     OW49700  11.471   1.969   8.238 -0.2363  0.0797 -0.2028
48127SOL    HW149701  11.518   1.943   8.159 -1.3526 -0.4233 -0.7205
48127SOL    HW249702  11.530   2.032   8.281  0.4895  0.1817 -1.2976
48128SOL     OW49703   5.094   3.564   3.824  0.4749 -0.3222  0.2051
48128SOL    HW149704   5.071   3.650   3.859 -0.3152 -0.7086  0.6398
48128SOL    HW249705   5.190   3.561   3.830  0.5515  0.6825 -0.1942
48129SOL     OW49706   0.514   9.584   9.216  0.2646 -0.8969  0.6292
48129SOL    HW149707   0.498   9.591   9.122 -0.3376 -0.2801  0.7701
48129SOL    HW249708   0.608   9.569   9.223  0.6850  1.0804 -0.0151
48130SOL     OW49709  11.283   2.840   9.417  0.6667  0.1660 -0.2209
48130SOL    HW149710  11.345   2.810   9.351 -0.5031  0.3078 -1.4486
48130SOL    HW249711  11.313   2.928   9.441  1.4383 -0.1236 -0.1291
48131SOL     OW49712   9.932   6.558   6.465  0.1157 -0.4943  0.1785
48131SOL    HW149713   9.984   6.496   6.516 -0.8819 -0.9051  0.7356
48131SOL    HW249714   9.842   6.543   6.495 -0.3847 -0.1333 -1.0902
48132SOL     OW49715   5.265   1.726   4.341 -0.3606  0.0244 -0.6145
48132SOL    HW149716   5.305   1.781   4.274  0.7935  1.3750  1.0847
48132SOL    HW249717   5.241   1.787   4.411  0.3080 -1.5259  1.0407
48133SOL     OW49718   5.928   7.159   7.557  0.4199  0.3233  0.5521
48133SOL    HW149719   6.000   7.182   7.499  1.8247  0.2132  2.1829
48133SOL    HW249720   5.911   7.066   7.540 -0.7623  0.8203 -1.2764
48134SOL     OW49721   2.573   2.626   4.676  0.7604 -0.4947 -0.1234
48134SOL    HW149722   2.558   2.582   4.592 -1.2035 -0.8076  0.3366
48134SOL    HW249723   2.488   2.624   4.720  1.3741  1.0067  1.2546
48135SOL     OW49724   9.223   5.516   7.772  0.4576 -0.0592 -0.2049
48135SOL    HW149725   9.180   5.484   7.693 -0.1279 -2.3351  0.9600
48135SOL    HW249726   9.203   5.450   7.839  1.8601  1.2189  1.5729
48136SOL     OW49727  10.099   2.412   7.309  0.0866 -0.4511 -0.2924
48136SOL    HW149728  10.084   2.471   7.382 -0.1580 -0.9405  0.0563
48136SOL    HW249729  10.190   2.429   7.282 -0.7025  1.8717 -1.8215
48137SOL     OW49730   2.295   2.572   8.891 -0.8254 -0.7119 -0.4801
48137SOL    HW149731   2.291   2.633   8.965 -0.4954 -1.1745 -0.0809
48137SOL    HW249732   2.370   2.602   8.840  0.3844 -1.7819  0.6130
48138SOL     OW49733   5.627   9.335   8.640 -0.8156  0.0447 -0.1852
48138SOL    HW149734   5.609   9.283   8.562  4.5981 -0.2431 -1.6473
48138SOL    HW249735   5.644   9.271   8.708 -0.8292  0.1514 -0.0818
48139SOL     OW49736   6.190   6.386   5.142  0.0383 -0.6755  0.3129
48139SOL    HW149737   6.155   6.299   5.164 -1.7022 -0.3755 -0.9925
48139SOL    HW249738   6.250   6.370   5.069 -1.1205 -0.7208 -0.6733
48140SOL     OW49739   0.153   8.790  10.525 -0.0828 -0.0885 -0.4009
48140SOL    HW149740   0.094   8.822  10.456 -0.0377  1.1882  0.1425
48140SOL    HW249741   0.115   8.705  10.550 -0.5494 -0.2045 -1.4416
48141SOL     OW49742   4.292   0.410   6.901  0.0536 -0.2317  0.2595
48141SOL    HW149743   4.323   0.450   6.820  0.3949 -0.8496  0.0753
48141SOL    HW249744   4.277   0.484   6.960  3.5461  0.1029  0.9662
48142SOL     OW49745   9.780   5.020   5.960 -0.1043 -0.4071  0.5273
48142SOL    HW149746   9.713   4.965   5.921  0.2396  0.6234 -1.6997
48142SOL    HW249747   9.778   5.101   5.908  1.9139  0.1802  1.2636
48143SOL     OW49748   7.604  11.790  10.172 -0.0766  0.5197 -0.2348
48143SOL    HW149749   7.554  11.713  10.195  1.1286 -0.6479 -1.3457
48143SOL    HW249750   7.553  11.864  10.206 -1.8627 -0.6815 -0.2254
48144SOL     OW49751   8.064   7.958   4.347 -0.4822 -0.1437 -0.0469
48144SOL    HW149752   8.117   7.883   4.319 -0.8096 -0.7694  0.9560
48144SOL    HW249753   8.040   8.001   4.265 -2.6980 -2.7584 -0.9215
48145SOL     OW49754   8.768   5.065  11.262  1.0471  0.4680 -0.2478
48145SOL    HW149755   8.805   5.153  11.254  0.3437  0.7981  0.0165
48145SOL    HW249756   8.784   5.042  11.354  2.2880 -0.1751 -0.6085
48146SOL     OW49757   4.909   5.089   5.441  0.0677  0.7335  0.2553
48146SOL    HW149758   5.003   5.073   5.430 -0.3585 -0.9797 -1.7055
48146SOL    HW249759   4.893   5.168   5.391  0.3291  0.4528 -0.2919
48147SOL     OW49760  10.064   5.736   0.936  0.2099  0.6279  0.0185
48147SOL    HW149761  10.012   5.701   0.864 -0.7622  0.3936  0.8077
48147SOL    HW249762  10.031   5.690   1.014  1.0513  1.0587  0.6511
48148SOL     OW49763   7.627   1.033   2.903  0.1456 -0.4808  0.0540
48148SOL    HW149764   7.648   1.083   2.982  1.4219 -1.2508  0.2308
48148SOL    HW249765   7.618   0.942   2.934 -0.1458 -0.6681 -0.5662
48149SOL     OW49766  11.050   2.704   8.900 -0.1516  0.1776  0.2319
48149SOL    HW149767  10.964   2.670   8.926 -0.3302 -0.0799 -0.6758
48149SOL    HW249768  11.034   2.796   8.880 -0.4760 -0.1419 -1.0741
48150SOL     OW49769  11.695  10.035   6.381  0.0725 -0.7767 -0.1209
48150SOL    HW149770  11.643  10.034   6.461  0.9504 -0.1325  0.4853
48150SOL    HW249771  11.738  10.121   6.382  0.9298 -1.1826 -0.7276
48151SOL     OW49772   8.524   4.323   2.580  0.2638 -0.0623  0.5105
48151SOL    HW149773   8.478   4.267   2.517  0.6816 -0.4734  0.5641
48151SOL    HW249774   8.456   4.351   2.641  0.0053 -0.3105  0.3400
48152SOL     OW49775   7.184  10.238   2.639  0.0679  0.5318 -1.0149
48152SOL    HW149776   7.175  10.264   2.548 -0.6501  0.5946 -0.9309
48152SOL    HW249777   7.260  10.286   2.671 -0.4915  1.5586 -1.2071
48153SOL     OW49778  11.242   3.359   5.221  0.2823 -0.5519 -0.3372
48153SOL    HW149779  11.225   3.444   5.262  1.2333 -0.2084 -0.6083
48153SOL    HW249780  11.198   3.364   5.136  1.4385  0.2270 -0.9305
48154SOL     OW49781   2.710   0.159   9.220  0.4121  0.1776  0.2486
48154SOL    HW149782   2.722   0.242   9.266 -0.0623 -0.0579  0.8112
48154SOL    HW249783   2.621   0.163   9.185  0.8383  0.4383 -0.8456
48155SOL     OW49784   5.454  10.369  10.054  0.5232  0.5206  0.4172
48155SOL    HW149785   5.531  10.422  10.032  1.5113 -0.8926  0.3663
48155SOL    HW249786   5.475  10.281  10.022 -1.9975  0.5290 -1.5585
48156SOL     OW49787  10.753   7.759  10.720  0.1049 -0.1607 -0.3447
48156SOL    HW149788  10.697   7.721  10.652  0.5753 -0.4173 -0.5908
48156SOL    HW249789  10.712   7.731  10.803 -0.4752  0.1659 -0.5165
48157SOL     OW49790   2.401   8.354  10.391 -0.0690 -0.0172 -0.5583
48157SOL    HW149791   2.419   8.325  10.480  0.5856 -0.7854 -0.9206
48157SOL    HW249792   2.358   8.439  10.401 -2.2687 -1.1772  0.5608
48158SOL     OW49793   3.222   4.044   6.204  0.1825  0.2655 -0.1218
48158SOL    HW149794   3.294   4.036   6.142  0.5864 -0.4987  0.4287
48158SOL    HW249795   3.204   3.954   6.232 -0.3128  0.5498  0.5039
48159SOL     OW49796   2.409   6.453   8.050  0.6557 -0.5924  0.0847
48159SOL    HW149797   2.337   6.430   8.109 -0.3735  1.9783 -0.0509
48159SOL    HW249798   2.487   6.417   8.092 -0.2701 -0.3631  2.1048
48160SOL     OW49799   7.963   3.182   3.008 -0.2146 -0.1078  0.3868
48160SOL    HW149800   7.990   3.105   2.959 -0.8045  0.9675 -1.7869
48160SOL    HW249801   7.969   3.157   3.100  0.2378 -2.4938 -0.2462
48161SOL     OW49802  11.047   8.101   8.368  0.4046 -0.2109 -0.1644
48161SOL    HW149803  11.092   8.065   8.291  1.4981 -0.3606  0.5122
48161SOL    HW249804  11.050   8.196   8.356 -1.0993 -0.2639 -1.1977
48162SOL     OW49805   1.316   8.028   3.296  0.0869  0.1036  0.7745
48162SOL    HW149806   1.290   8.104   3.348 -0.4934  0.9607 -0.6953
48162SOL    HW249807   1.409   8.041   3.279  0.4852 -0.6294  2.2827
48163SOL     OW49808   8.071  10.018   1.413  0.2518  0.5485  0.1386
48163SOL    HW149809   8.098  10.048   1.326  3.0382 -0.9391  0.3721
48163SOL    HW249810   8.122  10.072   1.474 -0.3623  0.3830  0.8178
48164SOL     OW49811   9.367   5.442   8.941  0.1562 -0.0800  0.4234
48164SOL    HW149812   9.275   5.415   8.943  0.6779 -1.9392  0.9583
48164SOL    HW249813   9.381   5.486   9.026 -0.0196 -0.5546  0.6997
48165SOL     OW49814   7.368   0.563  10.657 -0.2673  0.3804  0.0424
48165SOL    HW149815   7.301   0.503  10.690  2.8102 -1.9258  2.8218
48165SOL    HW249816   7.429   0.506  10.610 -0.2085  2.4098 -2.4959
48166SOL     OW49817   4.664  10.363   7.795  0.2352 -0.1258  0.3225
48166SOL    HW149818   4.644  10.450   7.828 -0.4877  0.4435 -1.4977
48166SOL    HW249819   4.710  10.377   7.713 -0.4783 -1.4272 -0.3477
48167SOL     OW49820   8.973   6.054   3.139 -0.0388 -0.0004 -0.0525
48167SOL    HW149821   8.933   5.984   3.087  0.3270  0.0792 -0.4442
48167SOL    HW249822   9.015   6.009   3.212  0.6682 -0.2462 -0.6000
48168SOL     OW49823   0.844   8.102   4.028 -0.0466  0.0844  0.2496
48168SOL    HW149824   0.920   8.144   3.986  0.7832  0.6860  2.2612
48168SOL    HW249825   0.770   8.130   3.975  0.7566  2.2707  0.1805
48169SOL     OW49826   2.043   0.460   3.989  0.4268 -0.1716 -0.0152
48169SOL    HW149827   2.112   0.409   4.031  1.4864  0.6496 -0.7042
48169SOL    HW249828   2.085   0.542   3.964 -0.9098  0.5277 -0.0909
48170SOL     OW49829   9.477   5.436   7.336 -0.1099  0.6593  0.0447
48170SOL    HW149830   9.557   5.446   7.389 -0.2287  2.7678 -0.0684
48170SOL    HW249831   9.504   5.461   7.248 -1.0770  2.4117  0.2036
48171SOL     OW49832   8.456   5.095   2.686  0.0458  0.5535  0.9661
48171SOL    HW149833   8.488   5.100   2.776  1.3284  1.4273  0.4922
48171SOL    HW249834   8.529   5.057   2.637 -0.8233 -0.3928  0.3579
48172SOL     OW49835   4.876   4.757   5.037  0.0691 -0.4098 -0.5729
48172SOL    HW149836   4.945   4.711   5.083 -0.8460 -0.3550  0.9117
48172SOL    HW249837   4.917   4.839   5.007  0.6528 -0.3892  0.2689
48173SOL     OW49838   0.338   1.512   7.956  0.4034  0.2409 -0.3554
48173SOL    HW149839   0.389   1.436   7.986  1.4583  0.9158 -0.4089
48173SOL    HW249840   0.394   1.587   7.975 -1.0118  1.1014  0.5470
48174SOL     OW49841   8.192  11.693   0.096  0.0018  0.5837  0.7239
48174SOL    HW149842   8.166  11.756   0.163 -2.0015 -0.2941  0.8478
48174SOL    HW249843   8.183  11.740   0.014  0.9995  1.2013  0.9508
48175SOL     OW49844   3.391   5.027   7.232  0.3376  0.5847 -0.2677
48175SOL    HW149845   3.338   4.949   7.249  3.8454 -2.1269 -0.5253
48175SOL    HW249846   3.361   5.058   7.146 -0.1079 -1.4996 -0.9309
48176SOL     OW49847   2.636   4.078  11.651  0.2372 -0.0231  0.2176
48176SOL    HW149848   2.715   4.033  11.681 -0.3680 -0.2553  1.5152
48176SOL    HW249849   2.579   4.081  11.728 -1.0527  0.0749 -0.7088
48177SOL     OW49850   6.545   5.004   4.457  0.4087  0.1246 -0.1666
48177SOL    HW149851   6.563   5.080   4.402  2.0833 -0.2490 -0.1937
48177SOL    HW249852   6.533   5.040   4.545 -0.6203  0.5650 -0.4716
48178SOL     OW49853  11.591   9.191   5.287 -0.2062 -0.0699 -0.0024
48178SOL    HW149854  11.578   9.282   5.313  0.1729 -0.0291  0.0552
48178SOL    HW249855  11.589   9.192   5.191 -3.3485 -0.4770 -0.0529
48179SOL     OW49856   9.372   5.631   0.540 -0.2406 -0.1915 -0.2844
48179SOL    HW149857   9.332   5.595   0.461 -1.6617  1.1990 -0.2621
48179SOL    HW249858   9.318   5.597   0.611  0.8614 -1.2105  0.0969
48180SOL     OW49859   9.946   3.705   9.887  0.4352  0.1916  0.2992
48180SOL    HW149860   9.948   3.743   9.975  1.8492 -0.8490  0.7563
48180SOL    HW249861   9.972   3.614   9.900 -1.7166 -0.6587 -0.9035
48181SOL     OW49862   7.907   9.553   5.312  0.5100  0.1555  0.0150
48181SOL    HW149863   7.821   9.579   5.278  0.9357  0.4255 -0.8931
48181SOL    HW249864   7.947   9.503   5.241 -0.5390 -3.7527  1.9008
48182SOL     OW49865   5.450   3.713   8.001 -0.1728  1.0467 -0.5459
48182SOL    HW149866   5.453   3.666   7.918  3.2894 -0.5486  0.3186
48182SOL    HW249867   5.474   3.803   7.979 -0.1255  0.8426 -1.3467
48183SOL     OW49868   8.311  11.758  10.271 -0.1341  0.3948 -0.1441
48183SOL    HW149869   8.330  11.812  10.194 -1.4179  0.3514 -0.5236
48183SOL    HW249870   8.290  11.821  10.340  1.2397  0.4396  0.2514
48184SOL     OW49871   6.837   9.835   4.636  0.4581 -0.1261  0.3308
48184SOL    HW149872   6.777   9.824   4.562  1.0951 -0.7220 -0.1100
48184SOL    HW249873   6.845   9.747   4.672  0.8782 -0.0007  0.5377
48185SOL     OW49874   2.758   2.582   5.786  0.2733 -0.0565 -0.3490
48185SOL    HW149875   2.799   2.652   5.836 -0.0385  0.7187 -1.1452
48185SOL    HW249876   2.800   2.586   5.700 -2.7865  2.2247 -1.9899
48186SOL     OW49877   8.031   7.334   8.915  0.0559  0.1331 -0.3758
48186SOL    HW149878   7.937   7.313   8.912  0.3017 -1.3900  1.1637
48186SOL    HW249879   8.033   7.423   8.950 -0.8204  0.1734 -0.3891
48187SOL     OW49880   9.571   8.948   1.831 -0.4576 -0.0890  0.1854
48187SOL    HW149881   9.511   8.943   1.905 -0.1084 -1.4546  0.4071
48187SOL    HW249882   9.533   8.890   1.765 -0.5975  0.8601 -0.5981
48188SOL     OW49883   2.012   8.272   4.167 -0.8597  0.2578 -0.3562
48188SOL    HW149884   2.056   8.229   4.240 -1.0003 -0.7212 -0.8384
48188SOL    HW249885   1.919   8.267   4.188 -0.9160 -0.2522 -0.7204
48189SOL     OW49886   4.553   3.319   1.802 -0.3000  0.1885 -0.1611
48189SOL    HW149887   4.508   3.240   1.773 -0.3716  0.3571 -0.5064
48189SOL    HW249888   4.484   3.374   1.838 -0.4080  0.5393 -0.8902
48190SOL     OW49889  10.552  10.474   7.541  0.6855  0.5435 -0.1934
48190SOL    HW149890  10.456  10.484   7.539  0.4709 -0.5659  1.7722
48190SOL    HW249891  10.571  10.414   7.468 -0.2132  0.2215 -0.1817
48191SOL     OW49892   8.369   5.630   1.971  0.7986 -0.1103  0.0223
48191SOL    HW149893   8.298   5.567   1.959  0.1936  0.8006 -1.4520
48191SOL    HW249894   8.354   5.666   2.059  0.0539 -0.6896  0.1379
48192SOL     OW49895   7.230   8.588   5.131 -0.0499 -0.2033  0.3240
48192SOL    HW149896   7.139   8.598   5.105  0.1790  0.1108 -0.3972
48192SOL    HW249897   7.273   8.548   5.055  0.3481 -0.6550  0.7786
48193SOL     OW49898   7.268   7.573  11.242  0.5296 -0.8088  0.0172
48193SOL    HW149899   7.356   7.595  11.273 -0.1496 -0.1288  1.5788
48193SOL    HW249900   7.214   7.647  11.269 -0.4932 -1.1035 -1.1422
48194SOL     OW49901   8.751   0.415  11.401  0.6141 -0.1496  0.3136
48194SOL    HW149902   8.735   0.384  11.313 -0.0390 -1.4702  0.8720
48194SOL    HW249903   8.672   0.465  11.424  1.0793  0.7957 -0.0803
48195SOL     OW49904   8.723   4.750   5.774 -0.0982 -0.0349  0.0618
48195SOL    HW149905   8.752   4.833   5.811 -0.9716  0.5348 -0.5079
48195SOL    HW249906   8.634   4.738   5.809 -0.0877 -0.5801 -0.0959
48196SOL     OW49907   1.939   5.075   5.305  0.0658 -0.0400  0.1246
48196SOL    HW149908   1.906   5.162   5.284  0.1284 -0.2092 -0.6969
48196SOL    HW249909   1.994   5.089   5.382 -0.3082  0.5621  0.2975
48197SOL     OW49910   4.487   2.419  11.470 -0.1234 -0.3864  0.4573
48197SOL    HW149911   4.531   2.337  11.490 -1.1136 -1.1474 -0.3760
48197SOL    HW249912   4.482   2.465  11.553 -0.4897 -1.6450  1.1596
48198SOL     OW49913   6.882  10.659   9.609 -0.2794  0.2550  0.0443
48198SOL    HW149914   6.858  10.724   9.543 -0.5360  0.8887  0.7554
48198SOL    HW249915   6.834  10.685   9.688 -0.1209 -0.5991  0.4362
48199SOL     OW49916   6.234  10.647  10.905  0.0916  0.6849 -0.2926
48199SOL    HW149917   6.248  10.740  10.921 -1.9377  0.8979  0.5467
48199SOL    HW249918   6.209  10.611  10.990 -0.9510 -0.2402 -0.9594
48200SOL     OW49919  11.272   0.420   0.177 -0.7774  0.1376  0.4403
48200SOL    HW149920  11.364   0.396   0.163 -1.1109 -0.7617 -0.3957
48200SOL    HW249921  11.223   0.347   0.138 -1.8750  1.8462 -1.6056
48201SOL     OW49922   7.257   3.839   4.555 -0.0600  0.0263  0.7505
48201SOL    HW149923   7.347   3.808   4.562  0.1684  0.0950 -1.2023
48201SOL    HW249924   7.214   3.776   4.498 -1.2067  0.1246  1.4627
48202SOL     OW49925   2.461   3.424   2.838  0.1901 -0.1099  0.0402
48202SOL    HW149926   2.469   3.429   2.933  0.0694 -0.1452  0.0527
48202SOL    HW249927   2.496   3.507   2.806  1.3824 -0.5942  0.0424
48203SOL     OW49928   1.952   8.339   5.650  0.1602 -0.3043 -0.4689
48203SOL    HW149929   1.901   8.375   5.577 -0.2731 -0.7947 -0.4186
48203SOL    HW249930   1.979   8.415   5.701  1.3057  0.1313 -1.6713
48204SOL     OW49931   5.796   0.076   1.029 -0.0720  0.8767  0.3730
48204SOL    HW149932   5.702   0.067   1.011 -0.3261 -1.3390  2.1976
48204SOL    HW249933   5.817   0.166   1.007 -2.8819  1.7522  0.8911
48205SOL     OW49934   4.475  10.725   8.591  0.8521  0.2033  0.3978
48205SOL    HW149935   4.424  10.730   8.510 -1.0083 -0.4728  1.4554
48205SOL    HW249936   4.530  10.803   8.590  0.8088  0.2576 -1.4601
48206SOL     OW49937   3.950   3.083   0.223  0.7695 -0.2435 -0.3997
48206SOL    HW149938   3.948   3.025   0.299  2.2665 -0.4483 -0.4884
48206SOL    HW249939   3.860   3.082   0.191  0.7026 -2.4798 -0.3612
48207SOL     OW49940  11.568   2.024   1.737  0.2505  0.1614  0.4913
48207SOL    HW149941  11.564   2.018   1.641 -1.0982  2.9088  0.2804
48207SOL    HW249942  11.521   2.105   1.758  0.0588 -0.6208  3.5396
48208SOL     OW49943   4.095   3.764   5.290 -0.3926 -0.0922 -0.1534
48208SOL    HW149944   4.049   3.687   5.257 -0.0292 -0.7721  0.8621
48208SOL    HW249945   4.093   3.826   5.218 -0.3368 -1.2017 -1.1400
48209SOL     OW49946  11.015   3.051   1.676 -0.6792 -0.1884  0.3265
48209SOL    HW149947  11.062   2.994   1.738  1.6778  0.6332 -0.5916
48209SOL    HW249948  11.046   3.139   1.697  0.0808  0.1255 -1.9010
48210SOL     OW49949   6.514   0.639   7.690 -0.1703 -0.0402  0.0637
48210SOL    HW149950   6.495   0.729   7.664 -0.1678  0.0465  0.3550
48210SOL    HW249951   6.541   0.596   7.609  0.5455  0.4113  0.0522
48211SOL     OW49952   9.838  10.576   8.680  0.3029  0.8483  0.0659
48211SOL    HW149953   9.757  10.541   8.717  1.0506  0.1532  1.0819
48211SOL    HW249954   9.853  10.658   8.727  0.4553  0.7331  0.2146
48212SOL     OW49955   2.895   3.252   9.866  0.5636 -0.1142 -0.3703
48212SOL    HW149956   2.862   3.284   9.782  1.8602  2.6869  0.0771
48212SOL    HW249957   2.971   3.199   9.843  0.9769  0.7200 -0.9977
48213SOL     OW49958   9.723  11.052   4.155 -0.1079  0.4862  0.4838
48213SOL    HW149959   9.720  11.146   4.172  1.3047  0.3669  1.5479
48213SOL    HW249960   9.763  11.044   4.069 -1.4512  0.8814 -0.2047
48214SOL     OW49961  10.118   4.812   7.788 -0.0026  0.1763  0.7499
48214SOL    HW149962  10.142   4.811   7.881  0.2916 -0.7796  0.6777
48214SOL    HW249963  10.103   4.719   7.767  0.7420  0.3009 -0.3623
48215SOL     OW49964   9.264   4.323   4.471  0.1799  0.4844  0.2084
48215SOL    HW149965   9.334   4.278   4.423 -0.3387 -0.4191  0.2947
48215SOL    HW249966   9.309   4.363   4.546  0.4576 -0.9519  0.8390
48216SOL     OW49967   1.244   2.165  11.257 -0.0667 -0.2727  0.2530
48216SOL    HW149968   1.321   2.155  11.202  0.2090 -2.4719  0.9382
48216SOL    HW249969   1.208   2.251  11.234  0.6880 -0.6120 -2.4819
48217SOL     OW49970   2.893   8.373   5.026  0.4052 -0.4115  0.1914
48217SOL    HW149971   2.869   8.465   5.013 -1.1383 -1.0368 -1.8722
48217SOL    HW249972   2.976   8.377   5.074  0.2039  2.0344  0.4804
48218SOL     OW49973   1.628   6.238   4.376 -0.2800  0.1191 -0.5986
48218SOL    HW149974   1.719   6.244   4.346 -0.5141  1.2056 -1.1453
48218SOL    HW249975   1.595   6.328   4.370 -1.4142 -0.2752 -0.4855
48219SOL     OW49976   5.936   6.180   1.198 -0.0197  0.0434  0.5265
48219SOL    HW149977   5.868   6.150   1.258 -0.3244 -1.0998 -0.3622
48219SOL    HW249978   6.014   6.189   1.254 -0.2620 -1.1143  1.0912
48220SOL     OW49979   1.374   4.106   9.554  0.0379 -0.2192 -0.2622
48220SOL    HW149980   1.296   4.161   9.555 -0.3057 -0.7007 -0.5265
48220SOL    HW249981   1.420   4.130   9.634  0.2343  0.9325 -0.6924
48221SOL     OW49982   9.874   1.610   6.400  0.1541 -0.3975 -0.2140
48221SOL    HW149983   9.955   1.558   6.400  1.1896  1.1199 -0.7884
48221SOL    HW249984   9.843   1.606   6.491  3.2609  2.3835  1.2052
48222SOL     OW49985   4.767   6.575   8.130 -0.1652 -0.4289 -0.0144
48222SOL    HW149986   4.789   6.495   8.083 -2.1311 -0.0689 -1.7109
48222SOL    HW249987   4.815   6.644   8.083 -0.5673 -0.3051 -0.2467
48223SOL     OW49988   0.773   7.616  11.515  0.1282 -0.0371 -0.2635
48223SOL    HW149989   0.714   7.544  11.493  1.4169 -1.3098  0.2070
48223SOL    HW249990   0.726   7.668  11.580 -1.0164 -0.1689 -0.9745
48224SOL     OW49991   8.782  10.320  10.128 -0.2769 -0.2154  0.2134
48224SOL    HW149992   8.828  10.363  10.201  1.3867 -0.6908 -0.5254
48224SOL    HW249993   8.689  10.328  10.151  0.1657  0.4814  1.9169
48225SOL     OW49994   5.354   8.686   1.309  0.0220  0.1568 -0.1244
48225SOL    HW149995   5.289   8.684   1.239  1.4078 -1.3261 -1.4384
48225SOL    HW249996   5.434   8.716   1.267  0.5832  0.5054  1.1327
48226SOL     OW49997  10.518   8.151   0.781 -0.2074 -0.6362 -0.3436
48226SOL    HW149998  10.496   8.215   0.714 -0.9801 -1.1530 -0.5980
48226SOL    HW249999  10.555   8.077   0.732  0.7246 -0.3876 -0.0494
48227SOL     OW50000   0.922   2.552   5.375  0.3015  0.3673  0.4403
48227SOL    HW150001   0.871   2.527   5.452 -1.0630 -0.1520 -0.5796
48227SOL    HW250002   1.012   2.526   5.395 -0.3034 -1.2546  1.2148
48228SOL     OW50003   5.782   4.649   9.788 -0.1631 -0.1069  0.0750
48228SOL    HW150004   5.835   4.570   9.787  0.5417  0.2130  2.9556
48228SOL    HW250005   5.846   4.721   9.785 -0.7656  0.4090 -1.9779
48229SOL     OW50006   2.437   8.331  10.661 -0.0004  0.2091 -0.5387
48229SOL    HW150007   2.456   8.424  10.658 -0.5379  0.3586  0.2515
48229SOL    HW250008   2.480   8.300  10.741 -0.5143 -0.0448 -0.3551
48230SOL     OW50009   5.253   4.150  11.566 -0.0998 -0.0155  0.0346
48230SOL    HW150010   5.335   4.192  11.540 -0.4357  0.0690 -0.9156
48230SOL    HW250011   5.227   4.197  11.646  0.6512  0.1083  0.2122
48231SOL     OW50012   5.010   6.412   0.360 -0.0435 -0.3762  0.0744
48231SOL    HW150013   4.950   6.338   0.366  0.5874 -0.9006  0.0322
48231SOL    HW250014   4.955   6.486   0.335 -0.6709 -0.8411  0.0664
48232SOL     OW50015   8.319   4.777   0.145  0.2666 -0.5337  0.1479
48232SOL    HW150016   8.346   4.834   0.216  0.6196 -0.4796 -0.0229
48232SOL    HW250017   8.348   4.689   0.172 -0.4363 -0.6682  0.4922
48233SOL     OW50018   2.254   4.627   4.320  0.4517 -0.7307 -0.8359
48233SOL    HW150019   2.214   4.549   4.281  0.4052 -1.1010 -0.0511
48233SOL    HW250020   2.258   4.690   4.248 -1.4421 -0.7123 -0.9679
48234SOL     OW50021   2.390  11.242   0.932 -0.0730 -0.3190 -0.7734
48234SOL    HW150022   2.479  11.269   0.957  0.2469 -2.5319  0.8404
48234SOL    HW250023   2.377  11.278   0.844  1.0843  2.9166  0.2691
48235SOL     OW50024   1.475  10.680   6.123 -0.1334  0.2689 -0.3622
48235SOL    HW150025   1.517  10.728   6.051  1.2510 -0.5356 -0.1308
48235SOL    HW250026   1.465  10.591   6.089  1.8998 -0.5125  0.8924
48236SOL     OW50027   0.288  10.385   2.484  0.4252  0.0955  0.2224
48236SOL    HW150028   0.296  10.293   2.458 -0.5382  0.1488 -0.3394
48236SOL    HW250029   0.326  10.434   2.411  0.9325  0.1508  0.5188
48237SOL     OW50030  11.640   8.847   2.407 -0.1229 -0.3698 -0.1388
48237SOL    HW150031  11.674   8.782   2.469  0.9992  0.5041  0.1966
48237SOL    HW250032  11.545   8.838   2.412 -0.0042 -1.5175  0.3965
48238SOL     OW50033   0.161   8.483   1.365  0.4345  0.1660 -0.1271
48238SOL    HW150034   0.122   8.535   1.435  0.9926  0.0028  0.3163
48238SOL    HW250035   0.222   8.543   1.322 -1.0969  0.7607 -1.5419
48239SOL     OW50036   5.643   1.330   2.235  0.2367 -0.6941  0.4162
48239SOL    HW150037   5.611   1.397   2.295  0.8463  1.6488 -1.6731
48239SOL    HW250038   5.738   1.339   2.238  0.3057 -1.1377 -0.2266
48240SOL     OW50039   3.760   6.487  10.060 -0.1632 -0.7058 -0.2083
48240SOL    HW150040   3.832   6.520  10.006 -1.1334  2.2210  0.0885
48240SOL    HW250041   3.727   6.411  10.013  0.9795 -0.0833 -2.1283
48241SOL     OW50042   0.806  10.432   5.525 -0.0962 -0.1708  0.6184
48241SOL    HW150043   0.845  10.384   5.599  1.4802  1.3467  0.8339
48241SOL    HW250044   0.851  10.398   5.448 -0.4266 -0.4534  0.5478
48242SOL     OW50045   2.916   1.096   9.834 -0.7232 -0.0201  0.3449
48242SOL    HW150046   2.986   1.033   9.822 -1.2124 -0.2549 -1.5284
48242SOL    HW250047   2.867   1.064   9.910 -0.8223 -1.7542 -0.4305
48243SOL     OW50048  11.637   3.185   9.611 -0.1752 -0.4159 -0.0967
48243SOL    HW150049  11.565   3.134   9.650 -1.4711  0.4011 -1.3107
48243SOL    HW250050  11.595   3.267   9.583  0.7452 -0.7441 -2.7307
48244SOL     OW50051   4.033   3.993   6.695  0.2185  0.0200  0.0110
48244SOL    HW150052   4.065   4.036   6.775  0.3020 -0.1907  0.0911
48244SOL    HW250053   4.080   4.038   6.624  0.3745  0.0006  0.1004
48245SOL     OW50054   4.486   6.221   3.674 -0.2221 -0.3264  0.5011
48245SOL    HW150055   4.532   6.159   3.730 -1.6768 -0.5084  1.5552
48245SOL    HW250056   4.514   6.307   3.705  0.9717 -0.4285 -0.2483
48246SOL     OW50057   7.806   8.466   8.031 -0.2575 -0.8431 -0.6285
48246SOL    HW150058   7.820   8.371   8.038 -0.0599 -0.7352  0.6422
48246SOL    HW250059   7.860   8.492   7.956 -0.9158 -1.8320 -1.4886
48247SOL     OW50060  11.817   5.403   5.975 -0.2485 -0.2627 -0.0747
48247SOL    HW150061  11.732   5.447   5.976 -0.7113 -1.0192  3.1051
48247SOL    HW250062  11.827   5.368   6.063  3.0121 -0.9432 -0.5986
48248SOL     OW50063   7.900   0.822  10.331  0.1455  0.7022  0.3652
48248SOL    HW150064   7.806   0.830  10.317  0.2779 -1.4366 -2.7473
48248SOL    HW250065   7.939   0.875  10.262  1.0782 -1.8820 -1.2486
48249SOL     OW50066  11.274   7.894   0.696 -0.7280  0.1258 -0.1057
48249SOL    HW150067  11.227   7.978   0.695  0.2645  0.6968  0.3852
48249SOL    HW250068  11.251   7.855   0.780  0.9307  1.1623  0.8892
48250SOL     OW50069   3.467   5.028   3.388 -0.1122 -0.2288  0.4106
48250SOL    HW150070   3.390   4.976   3.365  0.2421 -1.3696  1.6236
48250SOL    HW250071   3.464   5.033   3.484  1.8553 -1.2034  0.5746
48251SOL     OW50072   9.892   2.452   8.582 -0.7471  0.4045  0.1791
48251SOL    HW150073   9.889   2.446   8.678  0.6449  0.7436  0.2743
48251SOL    HW250074   9.822   2.395   8.552 -1.0206  0.0595  1.3966
48252SOL     OW50075  11.041  11.135   5.788  0.5528 -0.2974  0.1073
48252SOL    HW150076  11.064  11.093   5.705  0.9026  0.4416 -0.1732
48252SOL    HW250077  11.123  11.138   5.836  1.2136  2.5876 -0.9992
48253SOL     OW50078   2.903   9.615   9.667  0.5912  0.1671  0.4019
48253SOL    HW150079   2.827   9.564   9.639  0.5465  0.3519  0.1815
48253SOL    HW250080   2.867   9.682   9.725  0.5704  0.3095  0.2284
48254SOL     OW50081  11.434   5.374  10.458 -0.0100 -0.2098  0.0638
48254SOL    HW150082  11.451   5.317  10.533  0.0555  0.1291  0.3047
48254SOL    HW250083  11.503   5.440  10.461  0.3815 -0.5733 -0.6696
48255SOL     OW50084   5.262   5.076   9.540  0.0268 -0.3083 -0.1778
48255SOL    HW150085   5.329   5.008   9.533  1.5221  1.2304 -1.6374
48255SOL    HW250086   5.179   5.029   9.537  1.0144 -2.1223 -0.1738
48256SOL     OW50087   1.314   0.181   7.638 -0.0626  0.1982  0.5844
48256SOL    HW150088   1.250   0.135   7.583  1.6856  0.0542 -1.4659
48256SOL    HW250089   1.261   0.237   7.695 -2.0002  1.0113 -1.8279
48257SOL     OW50090   4.414   2.948   9.445 -0.4116 -0.0639  0.3323
48257SOL    HW150091   4.360   2.872   9.422  1.5166 -1.5503  0.4242
48257SOL    HW250092   4.351   3.015   9.471 -2.2298 -1.4074 -0.3505
48258SOL     OW50093   9.282   0.285   2.487  0.1145 -0.0080 -0.5995
48258SOL    HW150094   9.280   0.380   2.472  1.4549  0.1351 -0.0746
48258SOL    HW250095   9.231   0.272   2.567 -0.2047  0.2505 -0.7602
48259SOL     OW50096   4.322   7.151   0.545 -0.2994  0.1659 -0.0251
48259SOL    HW150097   4.410   7.186   0.558  0.7857 -2.3021 -0.1620
48259SOL    HW250098   4.305   7.100   0.625 -3.0116  3.1369  1.4940
48260SOL     OW50099   2.279   9.623   0.988  0.7745 -0.3212 -0.3925
48260SOL    HW150100   2.265   9.545   1.040  0.8504  0.5931  1.0502
48260SOL    HW250101   2.356   9.603   0.934  2.8841 -0.0994  2.3441
48261SOL     OW50102   3.515   1.201   2.896 -0.0067  0.0355 -0.3277
48261SOL    HW150103   3.514   1.115   2.856  0.2573  0.1143 -0.5091
48261SOL    HW250104   3.444   1.249   2.854 -1.3250 -0.6466  1.0323
48262SOL     OW50105  10.128   0.517   6.698  0.0145 -0.3223 -0.3052
48262SOL    HW150106  10.169   0.445   6.745  1.2051  0.9868  0.7338
48262SOL    HW250107  10.038   0.519   6.731  0.6540  0.1738  1.5068
48263SOL     OW50108   3.021   0.608   9.095 -0.0588 -0.4061 -0.3499
48263SOL    HW150109   3.051   0.610   9.004  1.4370  0.6963  0.1170
48263SOL    HW250110   3.102   0.607   9.147 -0.8698  0.0112  0.9795
48264SOL     OW50111   7.607  11.714  11.359  0.5394 -0.3646 -0.2706
48264SOL    HW150112   7.652  11.733  11.277  1.8083 -1.4468  0.1511
48264SOL    HW250113   7.639  11.780  11.420  1.3299 -0.9219 -0.0648
48265SOL     OW50114  10.472   5.274   5.347  0.0524  0.2631 -0.2900
48265SOL    HW150115  10.433   5.302   5.430  0.0509  2.4990 -0.9697
48265SOL    HW250116  10.428   5.192   5.326 -1.7954  0.9440  0.6678
48266SOL     OW50117   0.320   8.775   0.537 -0.1105  0.1508 -0.3923
48266SOL    HW150118   0.304   8.776   0.631  1.3979  0.5466 -0.1257
48266SOL    HW250119   0.363   8.858   0.519  1.1586 -0.6418 -1.1428
48267SOL     OW50120   6.284   5.319   8.069 -0.6119  0.4381  0.3726
48267SOL    HW150121   6.365   5.364   8.044 -1.6363  1.4883 -1.2197
48267SOL    HW250122   6.295   5.230   8.035 -0.8518  1.0866 -1.4899
48268SOL     OW50123   3.824   0.716  11.184  0.1576 -0.0659 -0.0241
48268SOL    HW150124   3.755   0.769  11.224  0.8273  1.4386 -0.7847
48268SOL    HW250125   3.901   0.731  11.240  0.4760  0.1679 -0.5119
48269SOL     OW50126   4.325   4.892   4.991  0.2145  0.4254  0.1194
48269SOL    HW150127   4.234   4.901   4.964  0.5442  1.0362 -0.8518
48269SOL    HW250128   4.365   4.976   4.970  0.9179  0.2857  0.8721
48270SOL     OW50129  11.470  11.469  11.171 -0.0026  0.2157 -0.7178
48270SOL    HW150130  11.490  11.384  11.132 -0.4869  0.3411 -1.2674
48270SOL    HW250131  11.427  11.449  11.254 -1.9745 -0.1402 -1.7586
48271SOL     OW50132   8.615   6.500   2.108  0.0326 -0.1732 -0.4042
48271SOL    HW150133   8.690   6.444   2.092  0.3049  0.2083 -0.4761
48271SOL    HW250134   8.648   6.589   2.096 -0.0963  0.0705  0.8803
48272SOL     OW50135   7.764   4.583   8.144  0.3547  0.3305  0.0237
48272SOL    HW150136   7.720   4.644   8.202 -0.6581 -0.6424  0.3237
48272SOL    HW250137   7.740   4.496   8.177 -0.8179 -0.2948 -2.2080
48273SOL     OW50138   7.097   0.010   3.624  0.3213 -0.6243 -0.2744
48273SOL    HW150139   7.027   0.071   3.599  0.6140  0.1230  0.6596
48273SOL    HW250140   7.136  -0.018   3.541  0.0042  0.2581 -0.7339
48274SOL     OW50141   9.063   7.997   9.595  0.5307 -0.1718  0.5411
48274SOL    HW150142   9.008   7.983   9.518 -1.8614  1.6544  1.7647
48274SOL    HW250143   9.090   7.909   9.622  0.7244 -0.9111 -1.8146
48275SOL     OW50144   4.272   3.180   1.928  0.2104  0.2435  0.0088
48275SOL    HW150145   4.249   3.270   1.903 -0.5067  0.3215  0.8855
48275SOL    HW250146   4.330   3.149   1.858  0.2132  1.2799 -0.4595
48276SOL     OW50147  10.368   2.444   2.241 -0.1159 -0.0798  0.5170
48276SOL    HW150148  10.356   2.367   2.185 -2.2544 -0.0286  0.8295
48276SOL    HW250149  10.334   2.418   2.326 -1.7307  1.4524  0.4042
48277SOL     OW50150   2.556   7.719  10.454 -0.3124 -0.5018  0.1766
48277SOL    HW150151   2.499   7.788  10.487  0.7312  1.2188 -1.3924
48277SOL    HW250152   2.507   7.680  10.382 -0.2420 -0.2499 -0.0100
48278SOL     OW50153   7.764   4.467   7.068 -0.5536  0.6657 -0.1289
48278SOL    HW150154   7.855   4.439   7.080 -1.0092 -0.3943  1.0675
48278SOL    HW250155   7.739   4.433   6.982 -0.2297 -0.2432  0.1277
48279SOL     OW50156   7.578   1.655   3.341 -0.2588 -0.3084  0.1419
48279SOL    HW150157   7.567   1.563   3.318 -2.7055  0.0237 -0.3026
48279SOL    HW250158   7.624   1.693   3.266 -0.2279 -0.9324 -0.1627
48280SOL     OW50159   4.549  10.820   2.601  0.6583  0.7114  0.3172
48280SOL    HW150160   4.641  10.812   2.577  0.6662  1.2075  0.1689
48280SOL    HW250161   4.504  10.754   2.549  0.6834  1.7275 -1.0501
48281SOL     OW50162   1.677  10.480   8.037 -0.0094  0.1614  0.3113
48281SOL    HW150163   1.609  10.523   7.984 -0.4284 -0.1828  0.5620
48281SOL    HW250164   1.698  10.400   7.988 -0.5455 -0.2625  0.7518
48282SOL     OW50165   8.527   8.351   4.702 -0.3475 -0.2339 -0.2694
48282SOL    HW150166   8.439   8.379   4.675 -0.5426 -0.1924  0.3906
48282SOL    HW250167   8.571   8.432   4.727 -0.2847 -0.3082 -0.1375
48283SOL     OW50168   9.352   2.230   4.825  0.5506 -0.4959 -0.0808
48283SOL    HW150169   9.365   2.201   4.735 -0.5921 -0.4697 -0.2739
48283SOL    HW250170   9.261   2.259   4.827  0.6760 -0.1620  0.9934
48284SOL     OW50171   7.806   5.509   4.785 -0.8618  0.3975  0.1216
48284SOL    HW150172   7.787   5.553   4.868 -1.7506 -0.4218  0.3698
48284SOL    HW250173   7.763   5.563   4.719 -0.8601  0.5985  0.2832
48285SOL     OW50174  11.032   4.963   6.301 -0.7916 -0.2979 -0.5485
48285SOL    HW150175  11.012   4.883   6.252 -0.3627 -1.3148  0.8760
48285SOL    HW250176  10.980   5.031   6.258 -0.8100 -1.2335 -2.0871
48286SOL     OW50177   0.168   7.513   0.484 -0.2481  0.7467  0.1751
48286SOL    HW150178   0.111   7.436   0.481  1.7719 -0.8511 -3.3204
48286SOL    HW250179   0.245   7.482   0.532  0.2758  0.7764 -0.6298
48287SOL     OW50180   1.649   9.576   4.053  0.8227  0.6180 -0.1817
48287SOL    HW150181   1.606   9.538   4.130  1.2023  1.0205  0.2343
48287SOL    HW250182   1.593   9.552   3.980  0.3733  0.3623  0.2431
48288SOL     OW50183   2.782  11.280   8.159 -0.2725 -0.1839 -0.1661
48288SOL    HW150184   2.796  11.374   8.153  0.8437 -0.3068  0.2436
48288SOL    HW250185   2.699  11.265   8.114 -0.9215  1.0978  0.5591
48289SOL     OW50186   1.544   4.871   2.615  0.2369 -0.0839 -0.8728
48289SOL    HW150187   1.623   4.861   2.669  0.6313  1.7182 -1.0429
48289SOL    HW250188   1.512   4.782   2.602  1.1860 -0.7155  0.7696
48290SOL     OW50189   3.862  11.726   0.824  0.2737  0.0540  0.5337
48290SOL    HW150190   3.886  11.695   0.911 -0.9759 -1.3976  0.4025
48290SOL    HW250191   3.802  11.798   0.840  1.0965  0.6805  0.8529
48291SOL     OW50192   9.283   5.873   8.834  0.0785  0.2495  0.2452
48291SOL    HW150193   9.213   5.822   8.875 -0.1282 -0.1812 -0.6166
48291SOL    HW250194   9.285   5.842   8.743  1.2454  0.4213  0.2031
48292SOL     OW50195   2.239   7.034   0.485  0.1755 -0.9473  0.0627
48292SOL    HW150196   2.319   7.004   0.528  0.8408  0.1762 -0.3551
48292SOL    HW250197   2.172   7.027   0.554  1.0456  0.0031  1.0460
48293SOL     OW50198   8.011   9.399   2.585  0.2692  0.5979 -0.7054
48293SOL    HW150199   8.072   9.330   2.559  0.2951  0.0990  0.6064
48293SOL    HW250200   7.961   9.418   2.506 -1.3880 -2.6068 -0.6074
48294SOL     OW50201   7.609   1.583   7.871  0.3334  0.6757 -0.5467
48294SOL    HW150202   7.700   1.555   7.862  0.8780  1.5682  1.6037
48294SOL    HW250203   7.593   1.583   7.965 -1.7329  1.0756 -0.8576
48295SOL     OW50204   7.926   0.642   0.557  0.1074 -0.0766 -0.1275
48295SOL    HW150205   7.929   0.712   0.622 -0.3087 -0.5390  0.4082
48295SOL    HW250206   7.907   0.686   0.474  0.7474  0.5299  0.0475
48296SOL     OW50207   1.994   9.010   8.795  0.0057 -0.1200 -0.1065
48296SOL    HW150208   2.083   8.977   8.812  0.3383 -0.1192 -1.7121
48296SOL    HW250209   1.999   9.049   8.708 -1.5652 -0.0373 -0.1873
48297SOL     OW50210   0.740   4.897   8.121 -0.1941 -0.3542 -0.4193
48297SOL    HW150211   0.678   4.831   8.092 -0.3303 -0.1828 -0.5201
48297SOL    HW250212   0.696   4.942   8.193 -0.1085 -0.3631 -0.3610
48298SOL     OW50213  11.434   7.088   5.170 -0.7136  0.4854 -0.4021
48298SOL    HW150214  11.468   7.067   5.083 -0.9143 -3.4170  0.3112
48298SOL    HW250215  11.340   7.098   5.157 -0.9719 -1.6027 -0.5223
48299SOL     OW50216   0.120   4.313   9.088 -0.1919 -0.0639 -0.2567
48299SOL    HW150217   0.101   4.393   9.039  1.4161 -0.0879 -0.9915
48299SOL    HW250218   0.111   4.338   9.180  0.3544  1.0048 -0.4755
48300SOL     OW50219  10.303   1.002  10.765  0.1295  0.1798 -0.3216
48300SOL    HW150220  10.370   1.070  10.758 -0.1622  0.4836 -0.1879
48300SOL    HW250221  10.352   0.920  10.771  0.4742  0.2381 -1.9057
48301SOL     OW50222   4.471   6.067   1.795 -1.0007 -0.3250 -0.0358
48301SOL    HW150223   4.565   6.079   1.780 -0.7993 -1.7169 -0.0256
48301SOL    HW250224   4.436   6.041   1.709 -0.7219 -3.2781  0.6209
48302SOL     OW50225   1.184   1.315  11.363  0.4641  0.3724  0.2493
48302SOL    HW150226   1.139   1.387  11.407 -0.4575  0.2137 -0.3874
48302SOL    HW250227   1.172   1.240  11.421 -0.0970  0.3390  0.1017
48303SOL     OW50228   1.268   9.888  11.774  0.1442 -1.5386 -0.3862
48303SOL    HW150229   1.215   9.822  11.731  0.2728 -1.2263 -1.0411
48303SOL    HW250230   1.280   9.855  11.863 -1.8456 -1.2135  0.0534
48304SOL     OW50231  11.725   1.535   4.289 -0.6663 -0.0629  0.2763
48304SOL    HW150232  11.736   1.488   4.372 -1.2947 -1.8012 -0.5825
48304SOL    HW250233  11.803   1.512   4.238 -0.1812  1.1621  0.4205
48305SOL     OW50234   4.779   8.352  11.767  0.3595 -0.5594  0.3234
48305SOL    HW150235   4.783   8.442  11.735  0.3811 -1.1089 -1.2989
48305SOL    HW250236   4.846   8.349  11.836 -0.6764  1.0342  1.4747
48306SOL     OW50237   8.820   5.882   1.184  0.4462 -0.8576  0.0525
48306SOL    HW150238   8.745   5.930   1.220  0.1515  0.0271 -1.6421
48306SOL    HW250239   8.823   5.801   1.235 -0.9905 -0.4269  0.8782
48307SOL     OW50240  10.505   1.807   7.423  0.5660 -0.0574 -0.1026
48307SOL    HW150241  10.464   1.853   7.496  1.3614 -0.4063  0.5787
48307SOL    HW250242  10.489   1.863   7.347  0.2760  0.6215  0.4504
48308SOL     OW50243   9.181  11.695  10.984  0.0543  0.1121  0.2703
48308SOL    HW150244   9.236  11.764  10.947  0.0671 -0.8853 -1.6915
48308SOL    HW250245   9.191  11.622  10.924 -1.5185 -0.9351  1.2213
48309SOL     OW50246   7.842   1.084   5.883  0.0705 -0.3298 -0.2911
48309SOL    HW150247   7.924   1.099   5.929  0.9794  1.4689 -2.2933
48309SOL    HW250248   7.862   1.015   5.819 -0.2369 -0.5410 -0.1608
48310SOL     OW50249   0.484   1.326   5.920  0.2762 -0.6986 -0.1473
48310SOL    HW150250   0.405   1.273   5.917  0.7297 -1.3852 -0.1369
48310SOL    HW250251   0.551   1.268   5.956  2.6229 -2.6478 -6.3560
48311SOL     OW50252   1.997   9.471   8.761  0.3787 -0.5627 -0.1957
48311SOL    HW150253   1.995   9.544   8.822 -0.1297 -1.0270  0.3602
48311SOL    HW250254   1.916   9.423   8.777  0.3661 -0.8542 -1.0470
48312SOL     OW50255   7.434   4.809   4.052  0.2673  0.2588  0.4310
48312SOL    HW150256   7.383   4.890   4.047  1.6062  1.1652  0.9401
48312SOL    HW250257   7.408   4.770   4.136  0.1578  0.5482  0.5332
48313SOL     OW50258   2.826   8.296   1.851 -0.2835 -0.2338 -0.4651
48313SOL    HW150259   2.804   8.357   1.922  0.9773 -0.4582  0.1629
48313SOL    HW250260   2.911   8.328   1.818  0.2627 -1.4717 -0.3164
48314SOL     OW50261   9.830   5.427  10.310 -0.2885 -0.8735 -0.2403
48314SOL    HW150262   9.903   5.456  10.257 -1.3406  1.4149 -0.5824
48314SOL    HW250263   9.761   5.406  10.247 -1.0588  0.4591  0.1035
48315SOL     OW50264   3.156   0.394   4.154 -0.0490  0.1806 -0.6839
48315SOL    HW150265   3.095   0.323   4.134 -0.6607  0.5941 -0.3477
48315SOL    HW250266   3.141   0.412   4.247  0.0905  0.7520 -0.7697
48316SOL     OW50267  11.253   7.589   9.887 -0.1695 -0.3703  0.0930
48316SOL    HW150268  11.253   7.587   9.791  1.3768  0.7867  0.0515
48316SOL    HW250269  11.239   7.681   9.910  0.9333 -0.3908  0.9444
48317SOL     OW50270   1.692  10.916   6.832  0.4200 -0.2105 -0.0945
48317SOL    HW150271   1.765  10.929   6.892  0.7900 -0.4059 -0.4914
48317SOL    HW250272   1.732  10.921   6.745  0.0590 -0.9043 -0.3054
48318SOL     OW50273   7.490  10.684   3.850  0.5098  0.4977  0.1801
48318SOL    HW150274   7.485  10.593   3.820  0.7043  0.9163 -1.1711
48318SOL    HW250275   7.566  10.686   3.907 -0.0652 -0.3953  1.0242
48319SOL     OW50276   6.515   5.709   6.506  0.0300  0.3402  0.2157
48319SOL    HW150277   6.508   5.671   6.419 -0.2789 -0.3449  0.5340
48319SOL    HW250278   6.429   5.748   6.523 -1.4123 -3.1383  1.8460
48320SOL     OW50279   0.146   4.156   1.008  0.1129  0.3526 -0.2437
48320SOL    HW150280   0.217   4.194   0.956  0.8536  0.3245  0.6988
48320SOL    HW250281   0.068   4.205   0.982  0.7986  1.5807 -0.0699
48321SOL     OW50282   6.853   7.352   1.605  0.5448 -0.0983  0.3349
48321SOL    HW150283   6.789   7.405   1.652  1.3456  1.6832 -0.4499
48321SOL    HW250284   6.900   7.304   1.673 -0.2540  0.1461  1.0775
48322SOL     OW50285  11.446   9.275   5.929 -0.5101 -0.7626 -0.1267
48322SOL    HW150286  11.539   9.293   5.913 -0.3155 -1.3825  0.2443
48322SOL    HW250287  11.400   9.332   5.868  0.1269 -0.7400 -0.6088
48323SOL     OW50288   7.229  11.498   4.306 -0.1863  0.0640 -0.4233
48323SOL    HW150289   7.252  11.406   4.314 -0.2331 -0.1418 -2.3342
48323SOL    HW250290   7.253  11.522   4.217 -0.9997  1.6652 -0.2591
48324SOL     OW50291   8.016   4.081   6.042 -0.0502  0.2662  0.2029
48324SOL    HW150292   7.967   4.158   6.072  1.1370  0.4914  1.6799
48324SOL    HW250293   7.952   4.010   6.043 -0.9917  1.0769 -0.5267
48325SOL     OW50294   9.440   1.309   2.978 -0.2147  0.2893  0.6407
48325SOL    HW150295   9.483   1.299   2.893  1.0015 -0.0312  1.2733
48325SOL    HW250296   9.368   1.245   2.976  1.0171 -1.1497  0.5900
48326SOL     OW50297   7.889   3.726   1.540 -0.0876 -0.4563 -0.1772
48326SOL    HW150298   7.861   3.783   1.468  0.1539  0.5585  0.5120
48326SOL    HW250299   7.975   3.759   1.565  1.3418 -2.8706 -1.5685
48327SOL     OW50300   8.863   4.270   6.568 -0.0568  0.2199 -0.0889
48327SOL    HW150301   8.959   4.264   6.574 -0.1824 -0.4663  2.3744
48327SOL    HW250302   8.836   4.304   6.653 -1.9456  1.8302 -1.2721
48328SOL     OW50303  11.573   2.481   6.883 -1.0919 -0.3255 -0.0264
48328SOL    HW150304  11.647   2.449   6.934 -0.8370 -0.4908 -0.4972
48328SOL    HW250305  11.606   2.489   6.794 -1.2811  0.8053 -0.0119
48329SOL     OW50306   4.600   7.152   7.078  0.9009 -0.1626  0.3420
48329SOL    HW150307   4.693   7.171   7.086  0.7477  0.5945  0.3802
48329SOL    HW250308   4.582   7.090   7.149  1.5263 -0.9069 -0.1375
48330SOL     OW50309   1.956   0.752   8.844 -0.1461  0.5226  0.4141
48330SOL    HW150310   2.008   0.704   8.779 -0.1784  0.3487  0.5183
48330SOL    HW250311   1.909   0.685   8.893 -0.0879  0.6515  0.6488
48331SOL     OW50312   7.549  10.340   0.677 -0.9318 -0.0490 -0.2336
48331SOL    HW150313   7.484  10.391   0.726 -2.2878 -1.3184 -0.6476
48331SOL    HW250314   7.498  10.292   0.612  0.0351 -3.0980  1.0903
48332SOL     OW50315   0.223   4.273   8.239  0.3983 -0.0891  0.6244
48332SOL    HW150316   0.150   4.318   8.197 -0.3718 -1.3468  0.5612
48332SOL    HW250317   0.182   4.208   8.296  1.4577  0.1239  1.6896
48333SOL     OW50318   0.924   8.097   2.427 -0.0942  0.2440 -0.3553
48333SOL    HW150319   0.932   8.003   2.407 -1.8756  0.0229 -0.1615
48333SOL    HW250320   0.910   8.138   2.342  1.0429  0.4068 -0.4830
48334SOL     OW50321  10.381   3.422   3.783 -0.1629 -0.3642  0.3951
48334SOL    HW150322  10.307   3.483   3.793 -0.6048 -0.8554  0.1483
48334SOL    HW250323  10.457   3.479   3.769 -0.7042  0.1263 -0.7157
48335SOL     OW50324   3.015   5.899   6.454  0.4473 -0.2595 -0.0706
48335SOL    HW150325   2.929   5.864   6.477 -0.7874  0.4437 -3.1674
48335SOL    HW250326   3.018   5.984   6.498 -0.1904 -0.5303  0.5196
48336SOL     OW50327  10.130  10.603   9.435  0.3655 -0.2112 -0.4302
48336SOL    HW150328  10.167  10.636   9.517  0.5797 -0.1476 -0.5507
48336SOL    HW250329  10.104  10.681   9.387  1.3694 -0.1825 -0.9460
48337SOL     OW50330   2.460   8.426   3.162 -0.0805 -0.2371  0.4294
48337SOL    HW150331   2.515   8.363   3.115  0.8310  0.3183  0.7437
48337SOL    HW250332   2.517   8.463   3.229 -1.3108 -0.8969  1.8969
48338SOL     OW50333   7.862   6.318   8.611  0.2720 -0.7287  0.0014
48338SOL    HW150334   7.782   6.284   8.652 -1.3260  4.2163  1.7362
48338SOL    HW250335   7.835   6.348   8.525  1.0647 -1.6267 -0.5853
48339SOL     OW50336   8.604   5.809   6.694  0.8725  0.0017 -0.3451
48339SOL    HW150337   8.553   5.796   6.773 -0.4071  0.0638 -1.1342
48339SOL    HW250338   8.685   5.759   6.709  0.6218 -0.0387  0.9493
48340SOL     OW50339   3.643   8.303  11.768 -0.1179  0.0053  0.5573
48340SOL    HW150340   3.591   8.297  11.688 -1.9148  0.1113  1.6636
48340SOL    HW250341   3.633   8.217  11.809  1.2851 -0.2554  0.4094
48341SOL     OW50342   9.500   1.466   3.806  0.0932 -0.1048 -0.2466
48341SOL    HW150343   9.500   1.533   3.874  1.9824 -0.6279  0.3353
48341SOL    HW250344   9.568   1.493   3.744 -1.5488  0.3309 -1.9569
48342SOL     OW50345  10.726   9.351   2.250  0.1106 -0.6165  0.0255
48342SOL    HW150346  10.800   9.294   2.227  0.0611 -1.3870  1.6631
48342SOL    HW250347  10.683   9.307   2.323 -1.0931  0.5785  0.0854
48343SOL     OW50348   6.038   3.656   6.437 -0.4333  0.2508 -0.3796
48343SOL    HW150349   6.006   3.606   6.512  2.6213 -0.8110  0.3565
48343SOL    HW250350   6.131   3.632   6.430 -0.2787  1.3307 -3.7012
48344SOL     OW50351   3.990   2.745   6.894 -0.1562 -0.0572 -0.2931
48344SOL    HW150352   3.972   2.832   6.930 -1.8777  0.1361 -1.5387
48344SOL    HW250353   3.926   2.688   6.936  1.5132 -0.9459  1.1699
48345SOL     OW50354   4.618   3.520   9.449 -0.1026 -0.5826 -0.5806
48345SOL    HW150355   4.575   3.601   9.420  0.1164 -0.7129 -1.2859
48345SOL    HW250356   4.686   3.504   9.384  1.7161  0.1519  1.0597
48346SOL     OW50357   4.009   8.903  10.537 -0.1285 -0.1251 -0.1859
48346SOL    HW150358   4.047   8.906  10.625 -0.6866  2.4670  0.0574
48346SOL    HW250359   3.921   8.939  10.548  0.4092  1.9275 -2.0430
48347SOL     OW50360  10.354   5.438  10.011  0.2670 -0.2299 -1.0254
48347SOL    HW150361  10.340   5.369   9.945  2.8545 -2.7208  0.7899
48347SOL    HW250362  10.384   5.391  10.088 -1.7673  2.6454  1.7525
48348SOL     OW50363  11.702  10.946   6.890  0.6561 -0.1879 -0.2720
48348SOL    HW150364  11.758  10.939   6.967  0.8522 -1.6151 -0.5167
48348SOL    HW250365  11.623  10.897   6.913 -0.2202  1.2157 -0.1903
48349SOL     OW50366   1.253   3.845   7.157  0.1815 -0.3713  0.0658
48349SOL    HW150367   1.169   3.881   7.125  0.3031 -0.8913 -0.8645
48349SOL    HW250368   1.284   3.911   7.220 -0.5201  0.2303 -0.1959
48350SOL     OW50369   4.442   4.709   5.498  0.4265 -0.4432 -0.1267
48350SOL    HW150370   4.395   4.760   5.432  0.6297 -0.0075  0.0586
48350SOL    HW250371   4.530   4.747   5.499  0.2689 -0.0873  0.7776
48351SOL     OW50372  10.422   2.660   4.036  0.2299  0.0765 -0.6894
48351SOL    HW150373  10.412   2.661   4.131  2.0723  2.1883 -0.4040
48351SOL    HW250374  10.341   2.698   4.002 -0.4864 -0.8035  0.0017
48352SOL     OW50375   0.235   6.137   8.101  0.4989 -0.1160  0.2714
48352SOL    HW150376   0.297   6.064   8.102  0.1013 -0.4940 -0.9085
48352SOL    HW250377   0.197   6.138   8.189  2.9064  0.7824  1.3726
48353SOL     OW50378   3.605   8.727   4.927  0.0461 -0.3479  0.1858
48353SOL    HW150379   3.674   8.669   4.959  0.6160 -0.3392 -0.9713
48353SOL    HW250380   3.638   8.758   4.842 -1.3836 -0.3674 -0.4005
48354SOL     OW50381   1.552   5.397   4.132  0.2741 -0.5811  0.2223
48354SOL    HW150382   1.466   5.384   4.173  0.5170 -0.8833  0.6410
48354SOL    HW250383   1.557   5.491   4.115  0.0471 -0.4988  0.6090
48355SOL     OW50384   2.767   6.445  10.944  0.0111 -0.0414 -0.6036
48355SOL    HW150385   2.772   6.476  11.034 -0.6855 -2.0320  0.1798
48355SOL    HW250386   2.682   6.477  10.912 -0.1457 -0.0885 -0.2346
48356SOL     OW50387   9.294   5.454   5.350  0.2551  0.1617 -0.1496
48356SOL    HW150388   9.348   5.520   5.393  1.7099 -0.8815 -0.2913
48356SOL    HW250389   9.338   5.437   5.267 -0.0755 -0.9975 -0.1065
48357SOL     OW50390   4.542   8.027   9.478  0.1654  0.1020 -0.4420
48357SOL    HW150391   4.497   8.083   9.541 -1.0013 -1.0305 -0.2091
48357SOL    HW250392   4.524   8.066   9.392 -0.3553  0.2647 -0.2582
48358SOL     OW50393   2.340   9.398   0.349  0.4175 -0.1098  0.1083
48358SOL    HW150394   2.296   9.375   0.268 -1.3299  0.9469  0.6842
48358SOL    HW250395   2.342   9.317   0.399  0.2149 -0.4550 -0.4365
48359SOL     OW50396   5.272   2.150  10.767 -0.3873 -0.6567  0.1322
48359SOL    HW150397   5.345   2.192  10.812 -0.7273 -0.3216  0.3718
48359SOL    HW250398   5.201   2.213  10.772 -1.3710 -1.8280  1.7872
48360SOL     OW50399   2.735   3.307   0.904  0.5328 -0.4865  0.3058
48360SOL    HW150400   2.801   3.251   0.945  1.0441  1.3768  2.1903
48360SOL    HW250401   2.656   3.292   0.956  0.1508 -0.7904 -0.3451
48361SOL     OW50402   9.249   7.163   2.138  0.4003 -0.0672  0.0749
48361SOL    HW150403   9.266   7.073   2.168 -0.6247  0.7626  3.6409
48361SOL    HW250404   9.332   7.208   2.150  0.3472 -0.0539  0.4057
48362SOL     OW50405   7.284   0.618   1.834 -0.0483  0.5733  0.2138
48362SOL    HW150406   7.354   0.553   1.827 -0.4066  0.2842 -0.7611
48362SOL    HW250407   7.282   0.661   1.749 -1.3679  0.2595  0.0653
48363SOL     OW50408  10.071   6.328   6.558  0.1193  0.0481  0.0579
48363SOL    HW150409   9.979   6.323   6.535  0.1427  0.3410 -0.0963
48363SOL    HW250410  10.074   6.299   6.650  0.0782 -1.4405 -0.3838
48364SOL     OW50411   5.757   7.275   6.628 -0.4621 -0.3897  0.3408
48364SOL    HW150412   5.817   7.325   6.683 -1.8226  1.0790  0.5681
48364SOL    HW250413   5.756   7.323   6.545  0.4736 -1.7755 -0.5196
48365SOL     OW50414   3.732   6.297   6.513 -0.0712 -0.0196  0.3477
48365SOL    HW150415   3.710   6.203   6.513 -1.5096  0.2573  2.1473
48365SOL    HW250416   3.648   6.341   6.529  0.0022  1.8119 -3.3750
48366SOL     OW50417   6.431   0.360   1.555  0.1037  0.0240  0.3480
48366SOL    HW150418   6.353   0.332   1.602 -0.4407  2.0713  0.7310
48366SOL    HW250419   6.399   0.396   1.473  0.7674 -0.3260 -0.0776
48367SOL     OW50420  10.760   1.655   0.167 -0.1028 -0.3425  0.1903
48367SOL    HW150421  10.759   1.751   0.169  2.2658 -0.2239 -0.6326
48367SOL    HW250422  10.792   1.634   0.079  1.1678 -1.8238  0.9611
48368SOL     OW50423   7.225   4.880   3.061 -0.0315  0.3720  0.8262
48368SOL    HW150424   7.313   4.843   3.054  0.3071  1.4243 -1.0763
48368SOL    HW250425   7.217   4.905   3.153  1.4225 -0.2848  1.1594
48369SOL     OW50426  10.434   1.753   7.002 -0.3632 -0.6164 -0.2375
48369SOL    HW150427  10.520   1.737   7.042  0.5183  0.3611 -1.6532
48369SOL    HW250428  10.373   1.706   7.058  1.2483 -2.5832 -0.0088
48370SOL     OW50429   7.534   6.373  10.151  0.2318  0.1649  0.0532
48370SOL    HW150430   7.490   6.392  10.233 -1.3555 -0.8258 -0.5142
48370SOL    HW250431   7.575   6.456  10.125 -1.1416  1.0907  0.7270
48371SOL     OW50432   9.775   0.744  10.694  0.2383  0.1219 -0.0438
48371SOL    HW150433   9.709   0.754  10.626 -0.8369 -0.2373  0.9191
48371SOL    HW250434   9.846   0.802  10.667 -1.5057  2.4882  0.1680
48372SOL     OW50435  10.459   2.282   4.316  0.0420  0.1523 -0.5063
48372SOL    HW150436  10.367   2.296   4.296 -0.2920 -1.2340 -0.0280
48372SOL    HW250437  10.493   2.233   4.241  0.0106 -0.6673  0.0088
48373SOL     OW50438  11.750   6.209   6.357  0.0091 -0.4135 -0.1123
48373SOL    HW150439  11.713   6.261   6.285 -0.0735 -0.4244 -0.0770
48373SOL    HW250440  11.804   6.271   6.406 -0.5664 -0.2161  0.2824
48374SOL     OW50441   5.066  10.097   0.257  0.0282 -0.2575  0.1325
48374SOL    HW150442   5.100  10.008   0.247 -0.0931 -0.1479 -1.6326
48374SOL    HW250443   5.128  10.153   0.211 -0.5105  0.4233  0.2005
48375SOL     OW50444   7.537   7.908   4.114  0.4622  0.2675  0.2300
48375SOL    HW150445   7.594   7.922   4.038 -0.9496 -2.7509 -1.5449
48375SOL    HW250446   7.579   7.836   4.162 -0.4591 -0.1737  0.3868
48376SOL     OW50447   7.953   0.155  10.925  0.6748 -0.0654  0.1839
48376SOL    HW150448   7.983   0.162  11.016 -1.4366  2.2532  0.8002
48376SOL    HW250449   7.942   0.245  10.896  0.0769 -0.7712 -1.9800
48377SOL     OW50450   0.706  11.248   9.055  0.1034 -0.3003 -0.2345
48377SOL    HW150451   0.716  11.190   9.130 -0.0818 -1.8951 -1.4085
48377SOL    HW250452   0.795  11.261   9.022 -0.1002 -2.7872 -2.0243
48378SOL     OW50453   3.801   9.596   3.420  0.3532  0.1652  0.2716
48378SOL    HW150454   3.779   9.605   3.513 -2.5540 -1.3846 -0.1498
48378SOL    HW250455   3.894   9.616   3.415  0.6089  0.2484  3.5128
48379SOL     OW50456   0.336  10.043  10.439 -0.2357  0.4284 -0.4720
48379SOL    HW150457   0.369  10.094  10.365  2.3924 -0.7901 -0.2764
48379SOL    HW250458   0.299  10.108  10.498  2.7327  2.1994 -0.3489
48380SOL     OW50459   9.296   0.114   3.720 -0.1437 -0.0593 -0.3517
48380SOL    HW150460   9.367   0.173   3.745 -0.4907  0.8400 -1.4001
48380SOL    HW250461   9.244   0.165   3.658 -1.9368 -0.5329  0.6805
48381SOL     OW50462   8.496   8.134   7.969  0.3727 -0.6554 -0.3739
48381SOL    HW150463   8.498   8.210   8.028 -0.2453 -1.4234  0.6866
48381SOL    HW250464   8.504   8.171   7.881 -1.5202  0.7963 -0.0009
48382SOL     OW50465   0.619   3.806  11.580  0.3127 -0.3630  0.0135
48382SOL    HW150466   0.661   3.853  11.508 -0.8261  1.2348  0.3203
48382SOL    HW250467   0.686   3.801  11.648  0.3374  1.3520  0.1647
48383SOL     OW50468   6.432   3.008   0.786  0.2034  0.3811 -0.0078
48383SOL    HW150469   6.409   2.929   0.737  0.1450  1.3214 -1.5560
48383SOL    HW250470   6.517   3.034   0.751  0.8513  0.2881  1.4230
48384SOL     OW50471   1.617   6.656   4.702  0.2925 -0.1238  0.4119
48384SOL    HW150472   1.626   6.570   4.743 -0.0234 -0.6128 -0.5320
48384SOL    HW250473   1.527   6.658   4.671  0.7116 -0.0140 -0.8311
48385SOL     OW50474  10.244  10.916   9.573  0.3342  0.4417  0.6840
48385SOL    HW150475  10.226  10.830   9.611  0.0291  0.5924  0.8856
48385SOL    HW250476  10.226  10.978   9.643 -0.0099  0.7100  0.3675
48386SOL     OW50477   4.395   7.443   5.558  0.2054 -0.3916  0.0603
48386SOL    HW150478   4.383   7.450   5.463 -0.8022  2.6311  0.3109
48386SOL    HW250479   4.308   7.454   5.595  0.8566  0.6656  1.3783
48387SOL     OW50480   7.029   4.655   4.685 -0.2250 -0.6338  0.0572
48387SOL    HW150481   7.010   4.619   4.598  2.8645 -0.2238 -0.9244
48387SOL    HW250482   7.019   4.580   4.744 -0.9708 -1.2885 -0.8643
48388SOL     OW50483   7.505   2.370   8.025 -0.4006  0.1631  0.1240
48388SOL    HW150484   7.497   2.311   7.950  0.2023  0.8846 -0.5285
48388SOL    HW250485   7.442   2.440   8.007 -1.6400 -0.6166  1.2507
48389SOL     OW50486   8.160   3.282  10.266 -0.1492 -0.1167  0.0074
48389SOL    HW150487   8.172   3.326  10.182  1.0442  1.9658  1.1530
48389SOL    HW250488   8.080   3.321  10.302  0.7362  0.9926  0.8869
48390SOL     OW50489   2.030   5.198   7.756  0.2623 -0.0023  0.3968
48390SOL    HW150490   1.994   5.233   7.837 -0.7892  1.4666 -0.6493
48390SOL    HW250491   2.101   5.141   7.784  0.8595  1.5685  2.2862
48391SOL     OW50492   9.325  11.498  10.301  0.1241  0.1483 -0.7289
48391SOL    HW150493   9.302  11.588  10.323  1.3231  0.4392 -0.5907
48391SOL    HW250494   9.320  11.495  10.205 -1.1317 -0.0023 -0.6785
48392SOL     OW50495   4.612  11.552   1.860 -0.6090  0.3670  0.1610
48392SOL    HW150496   4.559  11.537   1.938 -2.1784 -1.6137 -1.1894
48392SOL    HW250497   4.563  11.618   1.811 -0.4099  0.4946  0.1322
48393SOL     OW50498  10.592   4.434  10.079  0.1036  0.2669  0.2171
48393SOL    HW150499  10.635   4.501  10.027 -0.9472 -1.8193 -3.7160
48393SOL    HW250500  10.503   4.467  10.093  0.1003  0.4434 -0.2138
48394SOL     OW50501   9.517   1.913   9.072  0.2712 -0.0351 -0.0133
48394SOL    HW150502   9.556   1.864   9.144 -0.6410 -0.4064  0.2527
48394SOL    HW250503   9.423   1.908   9.089  0.1427  1.6279 -0.1117
48395SOL     OW50504   6.029   6.210   6.025  0.2099 -0.5859 -0.0903
48395SOL    HW150505   5.969   6.209   6.099  0.9612 -0.3278  0.5294
48395SOL    HW250506   5.976   6.179   5.951 -0.2359 -1.9455  0.7752
48396SOL     OW50507   1.617   9.556   2.463  0.4970  0.4820  0.1412
48396SOL    HW150508   1.695   9.545   2.518  0.1408  1.2956  0.8274
48396SOL    HW250509   1.636   9.504   2.385  1.5377  0.2963  0.4968
48397SOL     OW50510   6.613   0.238  10.734 -0.4122 -0.4218  0.6772
48397SOL    HW150511   6.584   0.295  10.663  3.6213  1.0653 -0.0652
48397SOL    HW250512   6.647   0.160  10.689  0.6112 -0.2137  1.0580
48398SOL     OW50513   7.540   1.608   0.728  0.6723  0.0557  0.1450
48398SOL    HW150514   7.620   1.631   0.776 -0.4372  0.4468  1.8821
48398SOL    HW250515   7.478   1.581   0.796 -0.2517 -1.6029 -1.2792
48399SOL     OW50516   0.434   7.132   9.790  0.1889  0.1109  0.0346
48399SOL    HW150517   0.502   7.197   9.803 -0.3522  0.5112  1.0082
48399SOL    HW250518   0.363   7.159   9.849 -0.4114 -0.8442 -0.2156
48400SOL     OW50519  10.984   7.913   0.414 -0.0637 -0.2093  0.3549
48400SOL    HW150520  11.019   7.831   0.449  1.2370 -0.4303 -1.3531
48400SOL    HW250521  11.043   7.980   0.447  0.7665 -0.3443 -0.8013
48401SOL     OW50522   8.116   7.008   5.681  0.2678  0.3673  0.1716
48401SOL    HW150523   8.188   7.008   5.617 -0.8671  2.0692 -1.1838
48401SOL    HW250524   8.124   6.924   5.725  2.2547 -0.0749 -0.9032
48402SOL     OW50525   4.508   9.813   3.834  0.0990  0.1364  0.2492
48402SOL    HW150526   4.529   9.767   3.915 -0.4142 -0.4306  0.0579
48402SOL    HW250527   4.573   9.883   3.830  1.3204 -0.9669  0.1940
48403SOL     OW50528   6.105   0.604   4.837 -0.0339  0.1260  0.1178
48403SOL    HW150529   6.190   0.570   4.810 -0.2095  0.9973 -1.6939
48403SOL    HW250530   6.124   0.693   4.866 -0.3742  0.5524 -0.9031
48404SOL     OW50531   9.651   1.034  11.365 -0.1538 -0.0967  0.4949
48404SOL    HW150532   9.597   1.081  11.301 -0.8684  0.1627  1.2665
48404SOL    HW250533   9.685   0.959  11.317  0.6326  0.9437 -0.6323
48405SOL     OW50534   5.361   8.637  11.760  0.2884 -0.6405  0.6140
48405SOL    HW150535   5.297   8.611  11.826 -1.1600  1.5949  0.1837
48405SOL    HW250536   5.355   8.570  11.692 -0.9313 -0.9382  0.9973
48406SOL     OW50537   8.922   6.029   3.484 -0.3271  0.3887  0.3376
48406SOL    HW150538   8.980   5.973   3.432  1.6142 -0.1714  2.9231
48406SOL    HW250539   8.968   6.113   3.487 -0.5364  0.4836  0.9365
48407SOL     OW50540   1.161   8.469   1.843  0.0056  0.1540  0.0485
48407SOL    HW150541   1.247   8.500   1.869 -0.0666  0.6628 -0.2813
48407SOL    HW250542   1.147   8.508   1.756 -0.6135  0.2045  0.1635
48408SOL     OW50543   9.512   9.886   1.199 -0.6467  0.1355 -0.3073
48408SOL    HW150544   9.556   9.945   1.139 -0.0776 -0.3380 -0.3675
48408SOL    HW250545   9.489   9.810   1.146 -0.5520 -0.0866 -0.0397
48409SOL     OW50546  11.161   8.680   8.590 -0.2447 -0.3913  0.2883
48409SOL    HW150547  11.213   8.603   8.568 -0.4015 -0.7520  1.1611
48409SOL    HW250548  11.070   8.651   8.583 -0.3094 -0.7077  1.9781
48410SOL     OW50549   0.332   4.675  11.650 -0.3513 -0.0263  0.1664
48410SOL    HW150550   0.354   4.726  11.572 -0.7445 -1.0259 -0.6094
48410SOL    HW250551   0.414   4.632  11.674 -0.3847 -0.2151 -0.0615
48411SOL     OW50552   0.946   1.434   1.713 -0.1485 -0.4730  0.8506
48411SOL    HW150553   0.931   1.422   1.806  2.9114 -1.9864  1.2540
48411SOL    HW250554   1.007   1.507   1.707  2.2092 -2.3645  0.3716
48412SOL     OW50555   4.215  10.724   0.268 -0.0831 -0.0506 -0.0463
48412SOL    HW150556   4.142  10.752   0.214 -0.3609  0.1646  0.4344
48412SOL    HW250557   4.235  10.800   0.322  0.7777  0.0369 -0.4723
48413SOL     OW50558  10.459   5.877  11.699  0.2250  0.0289 -0.3131
48413SOL    HW150559  10.369   5.893  11.726  0.2716  0.9478 -0.6552
48413SOL    HW250560  10.469   5.928  11.619  0.2303 -2.1977 -1.8402
48414SOL     OW50561   0.800   9.612   2.144  0.0634 -0.2531  0.4557
48414SOL    HW150562   0.875   9.671   2.156 -0.3584 -0.1634  3.4639
48414SOL    HW250563   0.840   9.526   2.133  0.7130 -0.2522  2.3051
48415SOL     OW50564   8.383   4.859   8.475 -0.1696  0.0407  0.4912
48415SOL    HW150565   8.421   4.924   8.534 -1.2691  1.4539 -0.2940
48415SOL    HW250566   8.368   4.783   8.531 -0.6843  1.1467  1.9362
48416SOL     OW50567   6.522   5.351   1.166  0.2145 -0.1705 -0.0298
48416SOL    HW150568   6.433   5.316   1.162  0.0209  0.2391  0.5327
48416SOL    HW250569   6.570   5.303   1.099 -0.1183 -1.2988  0.5213
48417SOL     OW50570   5.019   5.056   8.711 -0.0122 -0.0300 -0.0592
48417SOL    HW150571   5.075   4.983   8.688 -0.4136 -0.2033 -0.5072
48417SOL    HW250572   5.042   5.078   8.801  0.6963 -0.1601 -0.2094
48418SOL     OW50573   8.880   6.294   7.214  0.0754 -0.0640 -0.5058
48418SOL    HW150574   8.845   6.318   7.128 -0.7473  2.0356  0.3618
48418SOL    HW250575   8.803   6.273   7.267  0.4203  0.6675  0.2962
48419SOL     OW50576  10.642   6.416   8.170  0.1029 -0.0284 -0.4118
48419SOL    HW150577  10.609   6.481   8.107 -0.2517 -0.6865 -0.9182
48419SOL    HW250578  10.662   6.467   8.249 -0.3779  0.6625 -0.7245
48420SOL     OW50579   9.004   5.370   3.176  0.1907 -0.0093 -0.9640
48420SOL    HW150580   9.006   5.422   3.096  0.1936 -2.3406 -2.5652
48420SOL    HW250581   9.084   5.394   3.222  0.1590  1.4151 -1.5794
48421SOL     OW50582   2.256   3.297   5.644 -0.3520 -0.1084 -0.1802
48421SOL    HW150583   2.203   3.334   5.715 -0.9281 -2.1246  0.5234
48421SOL    HW250584   2.213   3.214   5.624  2.0345 -1.4071 -0.2120
48422SOL     OW50585   0.509   4.688   9.534  0.1513  0.2103 -0.2504
48422SOL    HW150586   0.448   4.615   9.517  0.6645 -0.3720  0.3723
48422SOL    HW250587   0.473   4.732   9.611 -0.1040  0.5614 -0.5668
48423SOL     OW50588   4.647   3.818   6.585  0.1844 -0.0255 -0.0686
48423SOL    HW150589   4.577   3.863   6.633  0.7449  1.5128 -0.6215
48423SOL    HW250590   4.726   3.870   6.604  1.1128 -1.4831  0.2092
48424SOL     OW50591   0.284   7.679   2.238 -0.0120 -0.6451  0.0479
48424SOL    HW150592   0.362   7.722   2.201 -1.0217  1.4089  0.1339
48424SOL    HW250593   0.214   7.701   2.176 -1.2447  0.7784  1.8399
48425SOL     OW50594   1.441   1.181   5.692 -0.9356 -0.4386  0.4474
48425SOL    HW150595   1.420   1.153   5.603  0.2327  0.2109 -0.0540
48425SOL    HW250596   1.536   1.169   5.699 -1.1082 -1.1088  1.8367
48426SOL     OW50597   2.920   7.222   5.383  0.0468  0.0114 -0.7106
48426SOL    HW150598   2.920   7.180   5.297 -1.2756  1.9942 -1.7600
48426SOL    HW250599   2.911   7.316   5.363 -1.5000  0.4251  1.6161
48427SOL     OW50600  11.412   6.969   2.436 -0.2405  0.9117 -0.7211
48427SOL    HW150601  11.372   6.886   2.411  2.3600 -0.7383  0.1228
48427SOL    HW250602  11.477   6.945   2.502  1.2222  3.5216 -1.0623
48428SOL     OW50603   2.744   8.248   6.744  0.5635 -0.1586  0.0885
48428SOL    HW150604   2.696   8.198   6.810 -1.6928 -0.1162 -1.4227
48428SOL    HW250605   2.775   8.326   6.791  0.3180 -0.8380  1.4291
48429SOL     OW50606   5.387   2.319   5.889 -0.2715 -0.1355  0.0572
48429SOL    HW150607   5.452   2.332   5.820  0.3618 -1.0489  0.4704
48429SOL    HW250608   5.303   2.316   5.842  0.0342  0.3679 -0.5483
48430SOL     OW50609   2.654   4.483   5.480  1.0232 -0.3398 -0.1995
48430SOL    HW150610   2.698   4.400   5.501 -0.0247 -1.2631 -1.5097
48430SOL    HW250611   2.685   4.506   5.393  0.1587 -0.1646 -0.4737
48431SOL     OW50612   6.472  11.751   1.683 -0.1208  0.2679  0.0366
48431SOL    HW150613   6.492  11.798   1.602 -0.7350 -0.8952 -0.8119
48431SOL    HW250614   6.550  11.699   1.701  0.1337  0.7582  0.3700
48432SOL     OW50615   6.589  10.581   5.956  0.3296  0.1558 -0.1039
48432SOL    HW150616   6.513  10.619   5.911  0.1622  1.2814  1.0590
48432SOL    HW250617   6.634  10.656   5.994  1.8633 -0.5374 -0.4956
48433SOL     OW50618   4.952   1.543   4.537 -0.1920 -0.2803 -0.4120
48433SOL    HW150619   4.960   1.611   4.470  2.1390 -0.7594 -0.7037
48433SOL    HW250620   4.927   1.589   4.616 -0.0128  0.7273 -0.9279
48434SOL     OW50621   3.818   4.247   6.668  0.2519 -0.1034 -0.3001
48434SOL    HW150622   3.836   4.153   6.670  0.4186 -0.1573 -2.1758
48434SOL    HW250623   3.723   4.253   6.676  0.3110 -0.3639  0.7193
48435SOL     OW50624   3.788  11.104   2.044  0.6243  0.1389  0.2370
48435SOL    HW150625   3.780  11.146   2.130  0.7299 -0.1775  0.4044
48435SOL    HW250626   3.824  11.172   1.987 -1.4548  1.0566 -0.1082
48436SOL     OW50627   6.499   3.213   3.599 -0.4175 -0.1273  0.2260
48436SOL    HW150628   6.468   3.277   3.663 -1.4614  2.3735 -2.5672
48436SOL    HW250629   6.588   3.240   3.578 -0.2772 -0.6016  0.1803
48437SOL     OW50630   2.390   8.151   6.182 -0.0398 -0.4923 -0.2960
48437SOL    HW150631   2.422   8.062   6.167 -0.7426 -0.4531 -2.4276
48437SOL    HW250632   2.434   8.203   6.116 -2.0676  0.1088 -1.2711
48438SOL     OW50633   5.965   9.146   2.380 -0.0926 -0.2967  0.6992
48438SOL    HW150634   6.010   9.100   2.451  0.0368 -1.5452 -0.1509
48438SOL    HW250635   5.986   9.095   2.302  1.5401  2.2467 -0.6422
48439SOL     OW50636   6.230   3.907   1.940  0.2132  0.4638  0.5867
48439SOL    HW150637   6.149   3.862   1.916  0.6413 -0.4324  0.7661
48439SOL    HW250638   6.213   3.999   1.920 -0.9428  0.3321  0.8981
48440SOL     OW50639   5.890   4.501   7.957 -0.0547 -0.0306  0.2299
48440SOL    HW150640   5.795   4.504   7.968 -0.6077 -0.1860 -3.2670
48440SOL    HW250641   5.922   4.579   8.001 -1.6767 -0.3942  2.1776
48441SOL     OW50642   1.408  11.717  10.953  0.0998  0.1351  0.5841
48441SOL    HW150643   1.456  11.742  11.033  1.0790 -0.9443  0.3683
48441SOL    HW250644   1.326  11.680  10.985 -0.9940  2.6936  0.9359
48442SOL     OW50645   2.513  11.349   8.864  0.4859  0.7007  0.2409
48442SOL    HW150646   2.568  11.371   8.789 -0.1777 -1.2270 -0.8916
48442SOL    HW250647   2.425  11.338   8.827 -0.6687  3.2491  1.9199
48443SOL     OW50648   9.015  11.610   3.490  0.0072  0.1275 -0.5894
48443SOL    HW150649   8.961  11.678   3.530  0.0977  0.4136 -0.9429
48443SOL    HW250650   9.095  11.656   3.464 -0.3265  0.1142 -1.7267
48444SOL     OW50651   6.500   9.985   1.252  0.3724  0.0631 -0.5492
48444SOL    HW150652   6.589   9.951   1.256  1.0397  1.7673  0.4961
48444SOL    HW250653   6.464   9.951   1.170  1.8781 -0.8731 -0.8587
48445SOL     OW50654   7.399   3.866   4.892  0.0978  0.1171 -0.2656
48445SOL    HW150655   7.473   3.927   4.893  0.9523 -0.8951  0.2324
48445SOL    HW250656   7.425   3.798   4.830 -1.5135  0.9992 -2.0229
48446SOL     OW50657   9.100  10.143   0.698 -0.2598 -0.2084  0.3187
48446SOL    HW150658   9.150  10.168   0.776  0.9306 -1.6798  0.0650
48446SOL    HW250659   9.042  10.073   0.728 -0.8957  0.2508  0.1960
48447SOL     OW50660   1.581   5.205   3.921  0.4510 -0.2754 -0.0866
48447SOL    HW150661   1.491   5.217   3.889 -0.2115 -2.4101  0.7666
48447SOL    HW250662   1.584   5.255   4.003 -0.3533 -1.1133  0.4717
48448SOL     OW50663   7.774  11.405   7.032 -0.0575 -0.2009 -0.1637
48448SOL    HW150664   7.796  11.406   6.938  0.1710  2.7508 -0.1721
48448SOL    HW250665   7.855  11.432   7.075 -0.3908 -0.7608  0.8352
48449SOL     OW50666   2.468   1.828   2.221  0.3726 -0.3260  0.4344
48449SOL    HW150667   2.427   1.763   2.278  3.2485 -1.9916  0.7550
48449SOL    HW250668   2.557   1.836   2.254  0.6946  2.3820 -0.8426
48450SOL     OW50669   7.554   0.544   3.676 -0.0740 -0.1573 -0.1513
48450SOL    HW150670   7.552   0.544   3.772 -0.4654  1.4022 -0.1321
48450SOL    HW250671   7.559   0.636   3.652 -2.4873 -0.3199 -1.6639
48451SOL     OW50672   0.282   7.224  10.019 -0.2764  0.0233  0.4902
48451SOL    HW150673   0.353   7.288  10.010 -1.3012  1.0919 -0.3030
48451SOL    HW250674   0.213   7.270  10.066 -1.4243 -0.1348 -0.9719
48452SOL     OW50675   9.738   7.074   3.824 -0.1050 -0.0370  0.1759
48452SOL    HW150676   9.704   7.159   3.853  1.6441  0.8448 -0.2382
48452SOL    HW250677   9.737   7.078   3.729 -0.5225 -0.7134  0.1441
48453SOL     OW50678   8.495  10.916   4.673 -0.0956  0.4608 -0.0756
48453SOL    HW150679   8.460  10.958   4.594  1.5780 -0.1995 -1.2371
48453SOL    HW250680   8.582  10.885   4.646 -0.4334 -1.9126  1.3355
48454SOL     OW50681   0.617   4.018   5.024 -0.1968 -0.7855  0.1893
48454SOL    HW150682   0.683   4.033   5.091 -0.4609  0.6804  0.1474
48454SOL    HW250683   0.660   3.962   4.960  0.4317 -1.2563  1.0061
48455SOL     OW50684  11.744   6.347   3.767 -0.5590  0.0136 -0.0309
48455SOL    HW150685  11.801   6.325   3.841 -0.9776 -1.7091 -0.1994
48455SOL    HW250686  11.707   6.432   3.791  1.1947  0.6583  0.5919
48456SOL     OW50687   9.203   0.388   9.991 -0.4303 -0.3764 -0.0638
48456SOL    HW150688   9.145   0.444  10.042 -0.6945  0.6677 -1.4429
48456SOL    HW250689   9.279   0.443   9.972  2.0873 -2.2915  3.3532
48457SOL     OW50690   7.202   4.191   6.989 -0.1966  0.2028 -0.4975
48457SOL    HW150691   7.122   4.240   6.971 -1.5624 -1.2044  1.3173
48457SOL    HW250692   7.269   4.258   7.004 -1.1417  1.4078 -1.4733
48458SOL     OW50693   4.107   4.025   2.684 -0.1818  0.2194 -0.1465
48458SOL    HW150694   4.120   3.935   2.712 -0.3886 -0.1093 -1.0617
48458SOL    HW250695   4.193   4.066   2.693 -0.1921  0.0667  0.7156
48459SOL     OW50696   8.287  11.751   8.583 -0.4420 -0.1876 -0.4071
48459SOL    HW150697   8.270  11.702   8.664 -0.1342 -2.1373 -1.4671
48459SOL    HW250698   8.339  11.826   8.611  2.1205 -2.2992  0.9082
48460SOL     OW50699   7.147   6.480  11.305 -0.3047 -0.8083 -0.1631
48460SOL    HW150700   7.078   6.526  11.257 -1.0569 -0.6582  1.0010
48460SOL    HW250701   7.183   6.417  11.243 -0.1111  0.4896 -1.4042
48461SOL     OW50702   0.814   1.367   9.719 -0.0832  0.9490 -0.4550
48461SOL    HW150703   0.854   1.432   9.777  0.8498  0.3941 -0.4461
48461SOL    HW250704   0.720   1.384   9.724  0.1633  2.5336 -0.7488
48462SOL     OW50705   8.404   9.922   4.801  0.6021 -1.4666 -0.5201
48462SOL    HW150706   8.337   9.957   4.742 -1.3065 -0.3779  2.0904
48462SOL    HW250707   8.389   9.827   4.798 -0.3484 -1.3279 -0.8016
48463SOL     OW50708   0.333   6.401   3.929  0.3938  0.4530  0.3725
48463SOL    HW150709   0.407   6.356   3.969  0.9429  0.9197 -0.0914
48463SOL    HW250710   0.266   6.334   3.919  0.1933  0.3348  2.1534
48464SOL     OW50711  10.533   3.081   1.409  0.1977  0.2080  0.8456
48464SOL    HW150712  10.576   3.149   1.356  0.3457  0.5654  1.4156
48464SOL    HW250713  10.480   3.129   1.472 -0.8121 -0.2316  0.3575
48465SOL     OW50714   1.974  10.849   9.165 -0.2474 -0.2742 -0.0541
48465SOL    HW150715   1.926  10.833   9.084 -0.4497 -0.9929  0.1970
48465SOL    HW250716   1.914  10.823   9.235  0.9562 -2.6601  0.2281
48466SOL     OW50717   6.977   9.863   6.094 -0.2496  0.4470 -0.4245
48466SOL    HW150718   7.049   9.801   6.099 -1.3103 -0.8012 -0.0691
48466SOL    HW250719   6.995   9.915   6.015  0.5523 -0.4494 -0.8443
48467SOL     OW50720   5.844  10.852   4.940 -0.4220 -0.6335  0.2039
48467SOL    HW150721   5.854  10.943   4.966  2.5489 -0.6848 -0.4521
48467SOL    HW250722   5.805  10.810   5.016  0.7827  0.6884  1.6250
48468SOL     OW50723   8.848   6.770   4.760 -0.2992 -0.0260  0.0161
48468SOL    HW150724   8.884   6.736   4.678 -0.3600 -0.0226 -0.0120
48468SOL    HW250725   8.755   6.746   4.757 -0.4604  0.6221 -0.2505
48469SOL     OW50726   1.758  11.525   5.564  0.1906 -0.2151 -0.2719
48469SOL    HW150727   1.692  11.459   5.587 -0.1346 -0.1534 -0.9979
48469SOL    HW250728   1.812  11.533   5.643 -0.1105 -0.9334  0.0188
48470SOL     OW50729   8.575   0.128   4.905  0.3565  0.2318 -0.3054
48470SOL    HW150730   8.641   0.058   4.914  1.6706  1.6401  2.0909
48470SOL    HW250731   8.495   0.090   4.941  0.5888 -0.6324 -0.6838
48471SOL     OW50732   3.933   3.012   2.773 -0.3647 -0.0741 -0.1109
48471SOL    HW150733   3.925   3.010   2.678 -1.4516  0.6325 -0.0575
48471SOL    HW250734   3.870   2.947   2.803 -1.4250  1.0364  0.1612
48472SOL     OW50735   5.489   1.796   8.241  0.1493  0.4323 -0.4059
48472SOL    HW150736   5.511   1.713   8.200 -0.1323  0.7960 -1.3279
48472SOL    HW250737   5.567   1.850   8.230  0.5095  0.1368  0.6301
48473SOL     OW50738   4.174   7.235   7.090  0.1810 -0.0012  0.6312
48473SOL    HW150739   4.162   7.224   6.996  0.5495 -0.3583  0.6254
48473SOL    HW250740   4.206   7.325   7.099  0.3649 -0.0406  0.3927
48474SOL     OW50741   9.579   0.229   3.771  0.6741  0.1771 -0.1465
48474SOL    HW150742   9.623   0.314   3.780  1.0928  0.3824 -3.2883
48474SOL    HW250743   9.651   0.166   3.771  0.6934  0.1791 -1.4681
48475SOL     OW50744   7.388   0.440   7.806 -0.0220 -0.3722  0.0632
48475SOL    HW150745   7.468   0.447   7.858 -0.8188  2.9324  1.1650
48475SOL    HW250746   7.417   0.451   7.716  0.9473 -1.5975  0.1949
48476SOL     OW50747   1.936   1.083   6.854  0.1966 -0.0575  0.2364
48476SOL    HW150748   1.897   1.058   6.938 -0.3217 -0.0020  0.0176
48476SOL    HW250749   1.910   1.175   6.843 -4.1025 -1.3152 -2.3183
48477SOL     OW50750   8.083   1.587   7.532 -0.8278  0.5378  0.2420
48477SOL    HW150751   8.016   1.627   7.588 -1.5944  0.0589 -0.3103
48477SOL    HW250752   8.162   1.589   7.585 -1.6727 -0.4833  1.6381
48478SOL     OW50753   3.372   2.590  11.390  0.2352  0.1231  0.0582
48478SOL    HW150754   3.310   2.585  11.317  1.9443  0.7772 -1.5310
48478SOL    HW250755   3.387   2.499  11.415 -0.6377 -0.0897 -0.1658
48479SOL     OW50756   1.857   4.232   6.322  0.2863 -0.0486  0.6155
48479SOL    HW150757   1.874   4.326   6.313  1.3502 -0.3942 -1.9096
48479SOL    HW250758   1.933   4.199   6.369  1.4456 -0.0095 -1.1266
48480SOL     OW50759   5.740   9.694   7.270 -0.0130  0.6365  0.2646
48480SOL    HW150760   5.729   9.788   7.285 -0.4481  0.4190  1.4608
48480SOL    HW250761   5.828   9.685   7.235 -0.8621  1.7285 -2.3788
48481SOL     OW50762   1.906   1.440   9.202  0.4842 -0.6593 -0.1308
48481SOL    HW150763   1.922   1.348   9.181  1.1123 -0.7857  0.8309
48481SOL    HW250764   1.991   1.472   9.233 -0.2925 -0.4210  1.8720
48482SOL     OW50765   8.612   3.846   3.522 -0.1565  0.4039  0.0875
48482SOL    HW150766   8.591   3.936   3.548  1.8719  1.1696 -0.7183
48482SOL    HW250767   8.706   3.838   3.539 -0.3450 -1.6623  0.3569
48483SOL     OW50768   5.483   4.089   4.548 -0.2075  0.0992  0.0854
48483SOL    HW150769   5.444   4.177   4.548 -0.6639 -0.0901 -0.8100
48483SOL    HW250770   5.502   4.072   4.456 -0.8015 -1.0429  0.1680
48484SOL     OW50771   8.401   0.148   8.714  0.5295 -0.4995 -0.6630
48484SOL    HW150772   8.350   0.135   8.794  2.2854 -2.1482  0.2720
48484SOL    HW250773   8.403   0.243   8.701 -2.0602 -0.3430 -0.3282
48485SOL     OW50774   2.045   5.822  10.186 -0.4777  0.3460 -0.5642
48485SOL    HW150775   1.996   5.875  10.249 -1.0358 -0.3634 -0.3745
48485SOL    HW250776   2.003   5.838  10.102 -1.9816 -1.3066 -0.1864
48486SOL     OW50777   9.813   9.567   0.201 -0.7285 -0.1651  0.3670
48486SOL    HW150778   9.832   9.640   0.261 -1.0063 -0.0961  0.3715
48486SOL    HW250779   9.775   9.500   0.256 -0.0896 -0.4801  0.4366
48487SOL     OW50780   2.752   5.572   2.933 -0.0078  0.2199  0.3011
48487SOL    HW150781   2.770   5.567   2.839 -0.9587 -1.7991  0.1771
48487SOL    HW250782   2.838   5.573   2.974  0.4284  1.7988 -0.5864
48488SOL     OW50783  10.443   4.517   3.372  0.1305 -0.2471 -0.3497
48488SOL    HW150784  10.392   4.530   3.452  1.9834 -0.5999  0.9691
48488SOL    HW250785  10.517   4.577   3.381  0.0942  0.1122 -2.0982
48489SOL     OW50786   3.550   4.683   5.400  0.2347 -0.0910  0.2041
48489SOL    HW150787   3.526   4.594   5.376  1.7750 -0.1718 -1.2473
48489SOL    HW250788   3.521   4.736   5.326 -0.4537  0.5920  0.9517
48490SOL     OW50789   3.974   8.794   9.005 -0.0092  0.1933 -0.4234
48490SOL    HW150790   3.907   8.789   8.937 -0.5599  0.5595  0.0843
48490SOL    HW250791   4.014   8.707   9.005  0.5320  0.4144 -1.7358
48491SOL     OW50792   8.080   3.438  10.627 -0.2462 -0.9516 -0.2306
48491SOL    HW150793   8.072   3.379  10.702  0.2020 -0.7576 -0.0281
48491SOL    HW250794   8.098   3.523  10.667  0.3122 -0.9092 -0.5792
48492SOL     OW50795   5.683   4.214  10.041  0.4537  0.2444  0.3677
48492SOL    HW150796   5.696   4.223  10.136  0.1564  0.7714  0.3620
48492SOL    HW250797   5.593   4.244  10.026  0.7809  0.9813 -0.1891
48493SOL     OW50798   3.779   4.728   0.687  0.1075 -0.2449 -0.4187
48493SOL    HW150799   3.690   4.760   0.677 -0.2807 -0.9899  0.4459
48493SOL    HW250800   3.823   4.750   0.605 -1.1544 -0.7511 -1.2458
48494SOL     OW50801   3.570   8.060   9.015  0.3345  0.6329  0.0891
48494SOL    HW150802   3.588   8.045   9.108 -1.0333 -1.2276  0.1057
48494SOL    HW250803   3.490   8.010   8.998  1.4254 -0.3892 -2.4657
48495SOL     OW50804   4.752   3.184   5.998 -0.2205 -0.2269  0.1799
48495SOL    HW150805   4.769   3.196   5.904 -0.6446 -0.8931  0.0108
48495SOL    HW250806   4.708   3.099   6.003 -0.7998  0.1109  0.9163
48496SOL     OW50807   3.274   7.902  11.720  0.2638  0.5675 -0.0986
48496SOL    HW150808   3.252   7.931  11.808 -1.7919 -0.1969 -0.3158
48496SOL    HW250809   3.272   7.983  11.667  0.9519  0.9415  0.4361
48497SOL     OW50810   9.986   5.618   1.753 -0.5078 -0.2827  0.4061
48497SOL    HW150811  10.002   5.704   1.792 -2.7016  0.1222  0.5413
48497SOL    HW250812  10.052   5.561   1.792  2.0492  1.6116 -0.8856
48498SOL     OW50813   4.069   3.208   7.677  0.6253 -0.0435 -0.8633
48498SOL    HW150814   4.088   3.298   7.707 -0.0678  0.2206 -1.2117
48498SOL    HW250815   4.156   3.168   7.667  0.9102  0.2280  0.3780
48499SOL     OW50816   6.356   9.315  11.096  0.0237 -0.0185  0.0462
48499SOL    HW150817   6.415   9.384  11.069  0.6061 -0.5787 -0.1266
48499SOL    HW250818   6.320   9.346  11.180 -0.0455  0.6733 -0.2316
48500SOL     OW50819   6.154  10.115   5.245 -0.0232  0.4690 -0.1795
48500SOL    HW150820   6.108  10.093   5.327  0.9581  2.7040  1.0658
48500SOL    HW250821   6.085  10.145   5.186 -0.6546 -0.4470  0.0620
48501SOL     OW50822   4.531   0.187   2.233  0.0149  0.3646  0.5127
48501SOL    HW150823   4.462   0.178   2.167 -0.5392  0.9120  1.0056
48501SOL    HW250824   4.507   0.265   2.283  0.8210  0.3765  0.8997
48502SOL     OW50825  10.967   9.612   1.802  0.1647  0.6137  0.3913
48502SOL    HW150826  10.973   9.679   1.870 -0.1862  0.4133  0.6242
48502SOL    HW250827  10.887   9.565   1.822  0.5833 -0.1007  0.4425
48503SOL     OW50828   8.411   3.501   3.359 -0.0406  0.2474  0.5759
48503SOL    HW150829   8.418   3.413   3.322 -0.4292  0.4957 -0.0949
48503SOL    HW250830   8.492   3.545   3.332  1.0222 -0.4346  2.4150
48504SOL     OW50831   0.394   8.174  10.934  0.4157 -0.3637  0.5611
48504SOL    HW150832   0.453   8.218  10.873  1.6240 -1.9806  0.5114
48504SOL    HW250833   0.447   8.104  10.973 -1.6309 -2.3570 -0.0244
48505SOL     OW50834   9.838  10.273   7.656 -0.0215  0.3495  0.2978
48505SOL    HW150835   9.763  10.214   7.652 -1.0187  1.5177  0.8916
48505SOL    HW250836   9.887  10.255   7.576 -0.9650 -0.4203 -0.1279
48506SOL     OW50837   8.265  11.400   5.349 -0.2098  0.2662  0.4906
48506SOL    HW150838   8.242  11.485   5.387  0.7683  0.7421  0.0682
48506SOL    HW250839   8.313  11.354   5.418  1.6398  1.1625 -0.1127
48507SOL     OW50840   0.767   7.608   9.379  0.3922  0.1068 -0.2871
48507SOL    HW150841   0.854   7.646   9.383  0.6008 -0.3471 -0.4695
48507SOL    HW250842   0.727   7.630   9.463  0.0748  1.7541 -0.8385
48508SOL     OW50843   0.623   3.965   9.661  0.4521  0.6448 -0.1038
48508SOL    HW150844   0.592   3.979   9.750  1.8147 -1.0010  0.6841
48508SOL    HW250845   0.686   4.036   9.646  0.6988  0.5526  0.4804
48509SOL     OW50846   1.457   9.902   8.435 -0.0725  0.7487 -0.3818
48509SOL    HW150847   1.413   9.832   8.387 -1.0059  1.2853 -0.3317
48509SOL    HW250848   1.446   9.980   8.380  1.0916  0.8445 -0.5160
48510SOL     OW50849   7.516   5.662   5.970 -0.1746 -0.2641 -0.3223
48510SOL    HW150850   7.583   5.601   5.940  0.1242 -0.2985  0.4055
48510SOL    HW250851   7.482   5.702   5.890 -0.5310 -1.5397 -0.8238
48511SOL     OW50852   5.707   4.342   1.080  0.3983  0.3406  0.1929
48511SOL    HW150853   5.647   4.268   1.073  0.2306  0.5125 -0.1852
48511SOL    HW250854   5.759   4.339   1.000 -0.9920  1.8301 -0.8362
48512SOL     OW50855   9.582  10.799   2.166 -0.0009 -0.3076  0.3415
48512SOL    HW150856   9.627  10.882   2.179 -0.1598  0.0961 -1.4655
48512SOL    HW250857   9.550  10.775   2.253  1.1707  0.8541  1.1174
48513SOL     OW50858   0.667   0.530   2.762 -0.1792  0.0576  0.2801
48513SOL    HW150859   0.632   0.444   2.736  1.4835 -0.8381  0.8213
48513SOL    HW250860   0.700   0.568   2.681  0.6706 -0.6054  0.3060
48514SOL     OW50861   6.770   4.428   5.490 -0.8245 -0.6600 -0.0143
48514SOL    HW150862   6.752   4.390   5.576 -1.5057 -1.1714 -0.3704
48514SOL    HW250863   6.831   4.368   5.449  0.2556  0.0797  0.4596
48515SOL     OW50864   5.672   0.724   3.091  0.3917 -0.4019 -0.6052
48515SOL    HW150865   5.681   0.629   3.086  0.1999 -0.3670 -2.4985
48515SOL    HW250866   5.583   0.742   3.061 -0.3097  0.2983  1.6803
48516SOL     OW50867   8.669   3.570   0.502 -0.6058 -0.0455  0.2753
48516SOL    HW150868   8.580   3.587   0.472 -1.3009 -1.4711  1.3908
48516SOL    HW250869   8.680   3.627   0.578  0.7227  2.6593 -1.7597
48517SOL     OW50870   7.536   8.868   2.367 -0.2406 -0.5407 -0.1936
48517SOL    HW150871   7.546   8.796   2.304 -0.5273 -0.3684 -0.4439
48517SOL    HW250872   7.474   8.928   2.324  0.4361  0.1376 -0.2392
48518SOL     OW50873   4.618   7.586   3.025  0.4115  0.1674 -0.5796
48518SOL    HW150874   4.600   7.577   2.932  0.4212  1.4229 -0.7219
48518SOL    HW250875   4.542   7.635   3.059 -0.5957 -1.9802  0.4750
48519SOL     OW50876   9.001   9.025   5.323 -0.4968  0.2723 -0.4459
48519SOL    HW150877   9.091   8.995   5.312 -0.3911  1.3335 -3.5353
48519SOL    HW250878   8.949   8.944   5.322  0.2225 -0.2420 -2.4239
48520SOL     OW50879  10.528  10.027  11.299  0.1739  0.4128 -0.4378
48520SOL    HW150880  10.618  10.058  11.290  0.5052 -0.5474 -0.5081
48520SOL    HW250881  10.504   9.998  11.211  0.2827 -0.6034 -0.1445
48521SOL     OW50882   6.167  11.617   0.198 -0.2240  0.3366  0.3013
48521SOL    HW150883   6.130  11.617   0.286 -1.7928  1.0292 -0.3362
48521SOL    HW250884   6.233  11.548   0.200 -0.5018  0.0814  1.8987
48522SOL     OW50885   3.978   7.952  11.651  0.4524 -0.6983 -0.1840
48522SOL    HW150886   4.026   7.940  11.733  0.1882 -0.9324 -0.0623
48522SOL    HW250887   4.043   7.938  11.582 -0.0746 -4.4453 -0.1471
48523SOL     OW50888   5.556   0.012  11.031  0.0081 -0.5240 -0.1259
48523SOL    HW150889   5.609   0.039  10.956 -0.5595 -0.4216 -0.5070
48523SOL    HW250890   5.467   0.042  11.008 -0.3767 -1.4606  0.0835
48524SOL     OW50891   0.792  11.107   3.875 -0.1897 -0.4429 -0.1795
48524SOL    HW150892   0.886  11.125   3.875 -0.2433 -0.0247 -1.6994
48524SOL    HW250893   0.761  11.146   3.956  0.8259  0.1517 -0.0508
48525SOL     OW50894   2.736  11.426   1.717  0.0568  0.3274 -0.0821
48525SOL    HW150895   2.799  11.354   1.724 -1.6507 -1.2491 -0.1577
48525SOL    HW250896   2.757  11.468   1.634  0.7160 -0.4800 -0.3383
48526SOL     OW50897   9.655   0.066   6.072 -0.6508  0.0254 -0.2630
48526SOL    HW150898   9.584   0.128   6.056 -1.5321 -1.1384 -1.0237
48526SOL    HW250899   9.620  -0.019   6.045  0.6465 -0.7616  0.4094
48527SOL     OW50900   5.327   4.411   4.368  0.4300  0.3626 -0.1918
48527SOL    HW150901   5.284   4.398   4.283  2.0011 -4.5302 -0.5067
48527SOL    HW250902   5.420   4.417   4.347  0.7481  0.2827  1.1352
48528SOL     OW50903   8.761   0.445   3.641  0.3801  0.2114  0.2338
48528SOL    HW150904   8.758   0.507   3.714  1.6742 -1.0598  1.4067
48528SOL    HW250905   8.689   0.384   3.659  0.5408  0.0466  0.3221
48529SOL     OW50906   4.951   4.115   3.290 -0.3939 -0.8814 -0.3500
48529SOL    HW150907   4.884   4.052   3.316  0.9908 -2.1253  0.3035
48529SOL    HW250908   4.972   4.091   3.199 -0.6861 -0.6123 -0.4910
48530SOL     OW50909  10.900   0.469   5.908  0.0266 -0.1351  0.0058
48530SOL    HW150910  10.839   0.395   5.913 -1.0837  0.8298  1.2420
48530SOL    HW250911  10.952   0.451   5.829 -2.4777 -0.4985 -1.6617
48531SOL     OW50912   4.162   0.198   3.446  0.0856 -0.5040  0.6524
48531SOL    HW150913   4.183   0.127   3.506 -1.5788 -0.2437  1.5948
48531SOL    HW250914   4.236   0.259   3.454  2.1775 -2.6147 -1.0968
48532SOL     OW50915   5.473   1.502  10.562  0.8388 -0.7042 -0.1957
48532SOL    HW150916   5.438   1.431  10.615 -2.5024 -0.0622 -1.3110
48532SOL    HW250917   5.482   1.465  10.474  1.9666 -0.5118 -0.1836
48533SOL     OW50918  11.381   7.257   1.420  0.3964 -0.2925  0.0973
48533SOL    HW150919  11.375   7.211   1.504  0.1669 -0.2812  0.0884
48533SOL    HW250920  11.366   7.349   1.443 -0.2285 -0.3592 -0.0306
48534SOL     OW50921   9.009  10.699   7.683 -0.1597  0.1477  0.4080
48534SOL    HW150922   9.077  10.633   7.699 -0.6093 -0.4785 -0.2535
48534SOL    HW250923   8.933  10.649   7.655  0.2887  1.0874 -2.8616
48535SOL     OW50924   0.216   9.378   6.399  0.0650 -0.2645  0.3371
48535SOL    HW150925   0.311   9.391   6.392  0.2163 -1.8807 -1.9529
48535SOL    HW250926   0.204   9.334   6.484  1.1917  1.0082  1.1867
48536SOL     OW50927   8.199   6.029   0.440  0.2523  0.8054 -0.0806
48536SOL    HW150928   8.267   6.072   0.387  0.6317  0.6136  0.2411
48536SOL    HW250929   8.124   6.021   0.381  1.4242 -1.5506 -1.3977
48537SOL     OW50930   2.901   2.752   8.768 -0.2058  0.1677  0.1273
48537SOL    HW150931   2.927   2.700   8.844  1.4946  1.1343  0.2548
48537SOL    HW250932   2.913   2.843   8.796 -2.1682  0.6348 -0.4183
48538SOL     OW50933   8.742  11.384   4.807 -0.1970  0.6222 -0.2140
48538SOL    HW150934   8.759  11.332   4.885 -0.8216 -0.6667 -0.9005
48538SOL    HW250935   8.657  11.426   4.824 -1.4172 -1.3736 -1.0093
48539SOL     OW50936   8.601   4.610   5.079 -0.2956 -0.4448 -0.8566
48539SOL    HW150937   8.609   4.678   5.146  0.7810  1.6923 -3.0473
48539SOL    HW250938   8.509   4.584   5.084 -0.5666  0.6264  0.5190
48540SOL     OW50939   6.807   0.540   4.926 -0.1740  0.1827 -0.1607
48540SOL    HW150940   6.820   0.615   4.868  0.7605  0.0705 -0.1091
48540SOL    HW250941   6.806   0.464   4.868  1.6865 -0.0196  0.0252
48541SOL     OW50942   2.147   0.991   7.470 -0.4432 -0.2590  0.5643
48541SOL    HW150943   2.224   0.949   7.508 -1.1904 -1.8446  0.3838
48541SOL    HW250944   2.074   0.936   7.498 -1.3026  0.1039 -0.8959
48542SOL     OW50945   8.633   5.893  10.737 -1.1218  0.5143 -0.7255
48542SOL    HW150946   8.663   5.983  10.725 -0.0903  0.0849 -1.5057
48542SOL    HW250947   8.604   5.890  10.828  2.2472  0.7214  0.5129
48543SOL     OW50948  11.674   2.402  10.382  0.4496 -0.1300 -0.1505
48543SOL    HW150949  11.743   2.438  10.326  1.7432  0.1565  1.5280
48543SOL    HW250950  11.605   2.468  10.380  1.6152  1.2086  0.6555
48544SOL     OW50951   2.338   0.093   4.027  0.4125 -0.4680 -0.2745
48544SOL    HW150952   2.332   0.176   4.075  1.1065 -0.1776 -0.6814
48544SOL    HW250953   2.415   0.103   3.972 -1.0277 -0.2906 -2.4087
48545SOL     OW50954  11.077   9.563   0.282 -0.2386 -0.3492 -0.2168
48545SOL    HW150955  11.017   9.634   0.303 -1.2169 -1.6839  1.8651
48545SOL    HW250956  11.070   9.503   0.356  3.5526 -0.7033  0.0883
48546SOL     OW50957   7.708   0.550   9.910  0.2903 -0.0759 -0.2241
48546SOL    HW150958   7.709   0.464   9.953 -0.8111  0.1198  0.2209
48546SOL    HW250959   7.744   0.533   9.823  0.4803 -0.9043  0.0041
48547SOL     OW50960   0.692   1.546   7.978  0.1769 -0.3622  0.1249
48547SOL    HW150961   0.632   1.592   8.038 -0.1184  0.4336 -0.7621
48547SOL    HW250962   0.653   1.459   7.968 -0.4292 -0.1004  0.1485
48548SOL     OW50963   4.215   2.067   6.615  0.4871  0.0481 -0.1087
48548SOL    HW150964   4.217   1.972   6.629  2.0628  0.3207  2.0846
48548SOL    HW250965   4.128   2.083   6.579  0.5445 -2.3183 -1.5382
48549SOL     OW50966  11.555   8.460   2.337  0.2590  0.6175 -0.3822
48549SOL    HW150967  11.597   8.457   2.423 -0.5206  1.1781  0.0302
48549SOL    HW250968  11.602   8.395   2.285  0.8780  0.4231  0.4044
48550SOL     OW50969   3.447  10.239   5.819 -0.2698  0.5500 -0.0506
48550SOL    HW150970   3.403  10.189   5.751 -0.9209 -1.0071  1.4363
48550SOL    HW250971   3.540  10.220   5.807 -0.5976 -2.9340  1.7560
48551SOL     OW50972   0.376   6.042   6.982  0.7238  0.2809 -0.3032
48551SOL    HW150973   0.378   5.969   6.920 -1.2398  0.8625 -1.1354
48551SOL    HW250974   0.290   6.036   7.024  1.4603  0.7468  1.3671
48552SOL     OW50975   0.483   2.540   0.065  0.3409  0.2792 -0.2596
48552SOL    HW150976   0.475   2.448   0.041 -1.5905  0.3896 -0.2458
48552SOL    HW250977   0.425   2.551   0.140  3.1504  0.8319  2.0115
48553SOL     OW50978   8.415   8.814   5.254 -0.1333  0.1700 -0.3471
48553SOL    HW150979   8.452   8.833   5.340 -0.4343  1.6470 -0.5256
48553SOL    HW250980   8.460   8.873   5.195  0.1670 -0.9275 -1.2569
48554SOL     OW50981   2.089   8.392   3.921 -0.3217  0.0695 -0.3738
48554SOL    HW150982   2.178   8.358   3.914 -0.5787 -0.6165 -0.3380
48554SOL    HW250983   2.048   8.339   3.989  0.0165  2.0636  1.4968
48555SOL     OW50984   4.472  11.813  10.760  0.5142  0.0474  0.4034
48555SOL    HW150985   4.404  11.775  10.703 -0.1234 -1.0289  1.8169
48555SOL    HW250986   4.550  11.761  10.743 -0.1184 -1.4050  1.6661
48556SOL     OW50987   8.140   3.396   3.571  0.7262 -0.3409 -0.2192
48556SOL    HW150988   8.212   3.344   3.535 -0.2593 -0.7994 -1.6355
48556SOL    HW250989   8.095   3.336   3.631  0.0151 -0.9165 -1.3069
48557SOL     OW50990   7.882   0.752   0.282 -0.1615  0.2769 -0.7045
48557SOL    HW150991   7.908   0.728   0.193 -1.7405  0.9238 -1.3835
48557SOL    HW250992   7.894   0.847   0.286  1.1200  0.0998  0.2292
48558SOL     OW50993   5.509  10.177   7.975 -0.0591 -0.2504 -0.0463
48558SOL    HW150994   5.434  10.202   7.920  1.4782  0.1650 -2.0920
48558SOL    HW250995   5.521  10.084   7.959  0.2208 -0.1883 -0.2138
48559SOL     OW50996   6.490   2.963   7.650 -0.1930  0.2608  0.3363
48559SOL    HW150997   6.401   2.989   7.677 -0.2863 -0.5808  0.8728
48559SOL    HW250998   6.537   3.046   7.641 -0.6746  0.6682  1.3490
48560SOL     OW50999   8.501   5.444   0.517  0.3120 -0.2950 -0.2749
48560SOL    HW151000   8.564   5.385   0.558  0.3061 -0.4009 -0.4185
48560SOL    HW251001   8.459   5.489   0.591  0.8100  0.0427 -0.1876
48561SOL     OW51002   0.965   7.025   5.306  0.1198 -0.0223 -0.0226
48561SOL    HW151003   0.890   7.039   5.248  1.2112  0.9291 -1.2637
48561SOL    HW251004   0.988   7.113   5.336  0.0361 -0.4320  1.2804
48562SOL     OW51005   8.416   6.202   8.432  0.2106 -0.3030 -0.7308
48562SOL    HW151006   8.341   6.144   8.418 -0.8579 -0.4908  4.1419
48562SOL    HW251007   8.387   6.287   8.399 -2.4444 -0.2820  1.3318
48563SOL     OW51008   3.529  10.135  11.427  0.8131  0.5968 -0.7076
48563SOL    HW151009   3.449  10.100  11.466 -0.6472  3.4713 -0.8827
48563SOL    HW251010   3.558  10.066  11.368 -1.3764 -0.6862 -0.4123
48564SOL     OW51011   6.725   8.265  11.215 -1.0381 -0.6027  0.3444
48564SOL    HW151012   6.775   8.239  11.137 -2.4823 -0.1499 -0.7625
48564SOL    HW251013   6.686   8.184  11.246 -0.5480 -0.7661  0.5536
48565SOL     OW51014  10.171   2.948   5.022  0.2378 -0.3207 -0.2453
48565SOL    HW151015  10.089   2.918   4.982 -0.8582  0.2945  1.4495
48565SOL    HW251016  10.180   3.038   4.991 -0.3654 -0.0020  0.4577
48566SOL     OW51017  11.777   8.000   6.586  0.0607 -0.5088 -0.7427
48566SOL    HW151018  11.731   8.048   6.517 -1.2138  0.6416  0.8322
48566SOL    HW251019  11.775   7.909   6.557 -1.4889 -0.2119 -1.6663
48567SOL     OW51020   6.421   1.224   3.046  0.6712  0.4144 -0.4321
48567SOL    HW151021   6.339   1.199   3.089  0.6461  1.3593  0.1032
48567SOL    HW251022   6.451   1.301   3.095  0.8001  1.3511 -1.9327
48568SOL     OW51023   5.082   7.407   4.368 -0.1598 -0.3243  0.3898
48568SOL    HW151024   5.140   7.466   4.416 -2.1572  1.6188  0.5932
48568SOL    HW251025   5.117   7.406   4.279 -0.4657  1.8336  0.1952
48569SOL     OW51026   3.019   6.817   6.370  0.2097  0.2349  0.9071
48569SOL    HW151027   3.073   6.852   6.441 -0.6421  1.1309  1.1330
48569SOL    HW251028   2.997   6.729   6.399  0.4579  0.3357  1.4209
48570SOL     OW51029   3.875   7.824   7.589 -0.2672 -0.5038  0.4426
48570SOL    HW151030   3.916   7.838   7.674 -1.0958  0.1365  0.7518
48570SOL    HW251031   3.867   7.729   7.582  1.2625 -0.6506  0.3537
48571SOL     OW51032   1.492   6.147   8.521 -0.1083 -0.1822 -0.2074
48571SOL    HW151033   1.543   6.151   8.602  1.7271 -2.2965 -1.1454
48571SOL    HW251034   1.552   6.108   8.457 -2.5737 -1.7950 -1.6885
48572SOL     OW51035   6.890   9.557   0.184  0.0581  0.0493 -0.1544
48572SOL    HW151036   6.879   9.649   0.206  1.2552  0.1813 -0.0608
48572SOL    HW251037   6.884   9.554   0.088 -0.3367  0.1749 -0.1325
48573SOL     OW51038   4.379   3.844   0.155  0.2441 -0.3396  0.3508
48573SOL    HW151039   4.346   3.860   0.244  0.7209 -2.9795  1.1041
48573SOL    HW251040   4.389   3.749   0.151 -1.8617 -0.5856 -3.3120
48574SOL     OW51041   7.928   8.464   2.532 -0.0353 -0.4607  0.1464
48574SOL    HW151042   7.875   8.396   2.572 -0.5082  0.4872  1.1976
48574SOL    HW251043   7.881   8.486   2.451 -1.0345  0.0403  0.8307
48575SOL     OW51044   5.287   5.341   0.844  0.1940  0.3620 -0.2778
48575SOL    HW151045   5.321   5.272   0.901 -0.3940  0.2438 -0.0579
48575SOL    HW251046   5.288   5.420   0.898 -1.4100  0.0297  0.2956
48576SOL     OW51047   9.751   5.176   0.057 -0.3252  0.1423 -0.3301
48576SOL    HW151048   9.788   5.208   0.139 -2.9288 -0.0692  1.0268
48576SOL    HW251049   9.699   5.250   0.024 -0.6606 -0.3416 -0.9028
48577SOL     OW51050   1.015   9.126   3.708  0.2974 -0.2862 -0.3894
48577SOL    HW151051   0.931   9.080   3.705 -0.3185  0.6677  1.0564
48577SOL    HW251052   1.056   9.096   3.790  0.2215  1.0938  0.1892
48578SOL     OW51053   8.715   2.248   9.211 -0.1490 -0.0239 -0.5721
48578SOL    HW151054   8.723   2.331   9.258  0.1854  0.6317 -1.7509
48578SOL    HW251055   8.801   2.233   9.173 -0.1782 -0.9751 -0.2803
48579SOL     OW51056   7.178   2.344   7.867  0.2684  0.0361  0.2685
48579SOL    HW151057   7.092   2.360   7.906  1.2231 -0.4617  2.7192
48579SOL    HW251058   7.231   2.420   7.893  0.2045  1.2099 -2.6606
48580SOL     OW51059   3.144  10.657   0.567  0.8592 -0.1450  0.7868
48580SOL    HW151060   3.052  10.637   0.584  0.6619  0.2279  0.1902
48580SOL    HW251061   3.169  10.719   0.636  0.6776 -0.2678  0.9641
48581SOL     OW51062   1.364   2.302   1.372  0.0062 -0.3195  0.2544
48581SOL    HW151063   1.324   2.277   1.455  1.0958  0.8801  1.1932
48581SOL    HW251064   1.301   2.275   1.305 -1.0250 -1.0567  1.4862
48582SOL     OW51065   7.450   7.693  11.618  0.1373  0.1180 -0.3278
48582SOL    HW151066   7.486   7.617  11.663  1.3989 -0.7830 -2.7001
48582SOL    HW251067   7.488   7.768  11.664 -0.0564 -0.6790  1.1988
48583SOL     OW51068   6.151  10.893   5.465  1.0109 -0.5861  0.0477
48583SOL    HW151069   6.190  10.976   5.492 -1.1527  0.0644  1.4640
48583SOL    HW251070   6.139  10.844   5.546 -0.0403 -1.2047 -0.4529
48584SOL     OW51071   9.274   6.155   4.263 -0.4614  0.2028  0.1268
48584SOL    HW151072   9.273   6.098   4.340 -0.4513 -0.3901 -0.3014
48584SOL    HW251073   9.206   6.120   4.206  0.0692  0.1334 -0.4833
48585SOL     OW51074   7.080   8.738   4.352  0.1007 -0.0394  0.0596
48585SOL    HW151075   7.020   8.665   4.368  0.1857  0.1281  1.1952
48585SOL    HW251076   7.064   8.763   4.261 -0.6763 -0.7953 -0.0168
48586SOL     OW51077   6.906   8.958   2.512  0.1240 -0.7144 -0.6464
48586SOL    HW151078   6.919   8.885   2.451  0.1623 -1.2247 -0.0373
48586SOL    HW251079   6.933   8.923   2.597 -3.5845 -1.3608  0.4499
48587SOL     OW51080   7.627   2.072   1.563  0.0696 -0.7842  0.2363
48587SOL    HW151081   7.566   2.056   1.635 -0.9231 -1.4139 -0.7029
48587SOL    HW251082   7.605   2.160   1.532 -1.4881 -1.5926 -1.0984
48588SOL     OW51083   8.324   6.187   4.392 -0.0850  0.2809 -0.3382
48588SOL    HW151084   8.349   6.179   4.300  1.4479  1.2591 -0.0347
48588SOL    HW251085   8.300   6.279   4.402 -0.0090  0.2322  0.3058
48589SOL     OW51086   6.674   6.918   4.345 -0.4006 -0.2895  0.1913
48589SOL    HW151087   6.661   6.988   4.409 -0.7078 -0.1139 -0.0614
48589SOL    HW251088   6.768   6.917   4.329 -0.2568 -0.6631  1.0168
48590SOL     OW51089   6.715   8.368   4.442 -0.6947  0.3267  0.3071
48590SOL    HW151090   6.725   8.336   4.353 -0.6926  1.2336 -0.0339
48590SOL    HW251091   6.660   8.303   4.486  0.8096 -1.0587  0.1844
48591SOL     OW51092   2.347   2.743   0.503  0.0178  0.1246  0.2156
48591SOL    HW151093   2.386   2.662   0.471  0.4744  0.7613 -0.8791
48591SOL    HW251094   2.268   2.754   0.450 -1.1707 -0.6381  1.7419
48592SOL     OW51095   7.571   2.226   3.146  0.2605  0.0328 -0.0662
48592SOL    HW151096   7.572   2.133   3.125 -2.3187 -0.0372 -0.2270
48592SOL    HW251097   7.616   2.268   3.072  1.8479 -1.0516  0.2219
48593SOL     OW51098   8.739   4.997   6.609  1.0148  0.3293 -0.7067
48593SOL    HW151099   8.780   5.050   6.677  0.6314  0.4705 -0.5771
48593SOL    HW251100   8.810   4.946   6.571  1.2858  0.4871 -0.4156
48594SOL     OW51101   2.192   3.485   1.233  0.0862 -0.5500 -0.2588
48594SOL    HW151102   2.271   3.510   1.279 -0.4258 -0.3641  0.5416
48594SOL    HW251103   2.125   3.479   1.301 -0.2030 -2.4790 -0.6467
48595SOL     OW51104  10.620   9.839   1.811 -0.4769 -0.2732  0.1563
48595SOL    HW151105  10.605   9.763   1.755 -0.5463 -1.0519  1.2175
48595SOL    HW251106  10.548   9.898   1.791  0.1059 -0.0255 -1.3885
48596SOL     OW51107   2.943   8.920   9.439  0.4846 -0.3453 -0.1254
48596SOL    HW151108   2.864   8.927   9.494 -0.4464 -0.3587 -1.4130
48596SOL    HW251109   3.010   8.969   9.487 -1.2014  2.6315 -0.5931
48597SOL     OW51110   5.214   7.597   4.541  0.0571  0.1349 -0.2224
48597SOL    HW151111   5.304   7.617   4.517 -0.1901  0.5148 -0.8333
48597SOL    HW251112   5.184   7.675   4.588  0.2097 -0.2015  0.4529
48598SOL     OW51113   0.008   8.451  11.085  0.1696 -0.1161 -0.6772
48598SOL    HW151114   0.031   8.415  11.000  1.7096 -0.0259 -0.3243
48598SOL    HW251115  -0.082   8.421  11.100  0.8665 -2.5763 -1.0363
48599SOL     OW51116   1.895   5.852   9.965  0.0153 -0.6736  0.4827
48599SOL    HW151117   1.826   5.830   9.903 -1.0856 -0.8104  1.7068
48599SOL    HW251118   1.956   5.906   9.915 -2.2643  1.6118 -0.0173
48600SOL     OW51119   5.402   2.822   1.833  0.2929 -0.4620  0.1646
48600SOL    HW151120   5.478   2.878   1.853 -1.0159  1.8726 -0.9449
48600SOL    HW251121   5.334   2.851   1.894 -0.2063 -1.3794  0.0597
48601SOL     OW51122   5.595  11.068   6.424  0.2386  0.8316 -0.3932
48601SOL    HW151123   5.586  11.078   6.330 -1.8436  0.6880 -0.2647
48601SOL    HW251124   5.538  11.136   6.461 -1.8956 -1.3708  0.6632
48602SOL     OW51125  11.381   3.702   1.349 -0.6085  0.1546  0.2408
48602SOL    HW151126  11.353   3.621   1.392  0.6034 -0.2657  0.2671
48602SOL    HW251127  11.320   3.712   1.276 -0.7779 -0.7775  0.2422
48603SOL     OW51128   1.514   8.848   4.375 -0.7549  0.3740  0.5980
48603SOL    HW151129   1.450   8.781   4.352 -0.3275 -0.2767  1.2662
48603SOL    HW251130   1.599   8.806   4.361 -0.4845  0.5484  1.6366
48604SOL     OW51131   6.070  11.641   3.266  0.4622 -0.2086  0.2944
48604SOL    HW151132   6.100  11.643   3.357  0.6313  0.1531  0.2349
48604SOL    HW251133   6.066  11.548   3.244  0.6172 -0.2919  0.6062
48605SOL     OW51134  10.398   8.695   2.686  0.5721 -0.1046 -0.0788
48605SOL    HW151135  10.416   8.651   2.769  0.0202  2.0085  1.2510
48605SOL    HW251136  10.475   8.750   2.671  0.3726  0.0363 -0.5999
48606SOL     OW51137   5.919   1.010   6.560 -0.2394  0.0261  0.0456
48606SOL    HW151138   5.887   1.072   6.626  0.6901  0.3994  0.1613
48606SOL    HW251139   6.000   0.975   6.597  0.6657  0.7574 -1.1796
48607SOL     OW51140   6.538   1.020  10.006  0.6279 -0.2749 -0.1295
48607SOL    HW151141   6.550   0.940  10.058 -0.6235 -0.0884  0.4737
48607SOL    HW251142   6.443   1.028   9.995  0.7132  1.3088  0.1004
48608SOL     OW51143  10.964   3.624   1.056  0.0719  0.4023  0.0323
48608SOL    HW151144  10.965   3.671   0.973  1.2482 -0.1206 -0.2673
48608SOL    HW251145  10.896   3.557   1.044  1.9045 -1.3228 -1.5106
48609SOL     OW51146  10.723   7.122   2.692  0.2902  0.2104 -0.0563
48609SOL    HW151147  10.728   7.064   2.616 -0.5766 -1.4271  1.0466
48609SOL    HW251148  10.812   7.155   2.704  1.1963 -2.0823  0.0888
48610SOL     OW51149   0.057   2.032  11.736  0.2228  0.1614 -0.3846
48610SOL    HW151150  -0.036   2.030  11.762  0.1936  3.0679  0.0817
48610SOL    HW251151   0.099   1.969  11.794 -1.1468  0.4375  0.9918
48611SOL     OW51152   8.090   3.868  10.954 -0.1569 -0.5144 -0.0071
48611SOL    HW151153   8.074   3.947  10.902  1.5736 -0.1607 -0.0698
48611SOL    HW251154   8.025   3.805  10.923 -1.0927  0.6485 -0.4738
48612SOL     OW51155   5.279   5.125   3.119 -0.0227 -0.4377 -0.4939
48612SOL    HW151156   5.304   5.131   3.027  0.8333  1.4392 -0.1993
48612SOL    HW251157   5.211   5.058   3.122  2.7811 -3.5605 -1.8242
48613SOL     OW51158   3.661   8.886   5.507 -0.3928  0.1753  0.3659
48613SOL    HW151159   3.624   8.923   5.427  2.2157  2.9199  0.2718
48613SOL    HW251160   3.698   8.961   5.553  1.3489 -1.7985  2.4072
48614SOL     OW51161   0.967   7.084   6.503  0.0685  0.1645  0.4468
48614SOL    HW151162   1.056   7.079   6.470  0.4743 -1.0290  1.6508
48614SOL    HW251163   0.962   7.170   6.546  0.2625  0.7127 -0.5968
48615SOL     OW51164   0.480   4.793   4.892  0.5115  0.3148  0.6852
48615SOL    HW151165   0.462   4.698   4.894 -1.7396  0.6618  2.9173
48615SOL    HW251166   0.523   4.810   4.976 -0.8662  1.4949  1.1907
48616SOL     OW51167   9.715   4.489   3.257  0.9408 -0.1120  0.6616
48616SOL    HW151168   9.641   4.517   3.312  0.9268 -0.2274  0.7040
48616SOL    HW251169   9.703   4.536   3.175  1.0407  0.1715  0.8079
48617SOL     OW51170   3.609   2.604   5.966 -0.5386 -0.8280  0.0200
48617SOL    HW151171   3.614   2.510   5.947 -0.4022 -0.9302  0.5508
48617SOL    HW251172   3.592   2.645   5.881 -0.4676 -1.3221 -0.2330
48618SOL     OW51173   9.614   8.804  11.094  0.3565 -0.0904 -0.5623
48618SOL    HW151174   9.550   8.847  11.151  1.1841  0.3907  0.0166
48618SOL    HW251175   9.576   8.810  11.007 -1.6443 -2.1312  0.0747
48619SOL     OW51176   3.513   9.175   9.253 -0.3517  0.3543 -0.3563
48619SOL    HW151177   3.603   9.179   9.287 -1.0091 -0.0496  1.5331
48619SOL    HW251178   3.492   9.265   9.230  0.0168  0.7087  0.6511
48620SOL     OW51179   6.163   6.618   5.279  0.6821  0.2726  0.3596
48620SOL    HW151180   6.170   6.529   5.244  1.4857  0.9422 -1.3305
48620SOL    HW251181   6.254   6.645   5.293  0.5385  1.2802 -0.4557
48621SOL     OW51182   0.429   2.121  10.799 -0.6807  0.0599 -0.0722
48621SOL    HW151183   0.434   2.072  10.882  0.2564  1.1131  0.5256
48621SOL    HW251184   0.521   2.132  10.773 -0.9919 -1.9809 -2.3316
48622SOL     OW51185   1.641   6.539   6.243 -0.7874  1.0865 -0.5314
48622SOL    HW151186   1.671   6.545   6.334 -1.3409 -0.6556 -0.1886
48622SOL    HW251187   1.708   6.586   6.193  0.7036  0.2564  0.5614
48623SOL     OW51188   3.204   1.784   4.338  0.4029 -0.0535  0.1479
48623SOL    HW151189   3.171   1.695   4.325  1.9582 -0.5785 -0.4002
48623SOL    HW251190   3.296   1.773   4.362 -0.2610  1.2319  4.0275
48624SOL     OW51191   7.471   2.825   6.451  0.5084  0.2813  0.0284
48624SOL    HW151192   7.385   2.784   6.460  0.5099  0.5262  1.4078
48624SOL    HW251193   7.495   2.812   6.359 -0.9493  0.1269 -0.3477
48625SOL     OW51194   7.821  11.777   5.562 -0.5676  0.6073 -0.5551
48625SOL    HW151195   7.807  11.697   5.513 -1.8898  0.1624  0.4662
48625SOL    HW251196   7.885  11.754   5.629 -0.7588  0.4590 -0.4210
48626SOL     OW51197   9.189   6.019   7.013 -0.2039 -0.1824 -0.5579
48626SOL    HW151198   9.175   6.095   7.070 -1.8687 -0.4520 -0.5569
48626SOL    HW251199   9.187   5.944   7.072  3.2346 -0.2039 -0.2941
48627SOL     OW51200   0.378  10.590   7.373  0.0775 -0.1295 -0.2275
48627SOL    HW151201   0.392  10.522   7.306  0.5331 -0.6919  0.4202
48627SOL    HW251202   0.445  10.656   7.354  0.0980 -0.2067 -0.4276
48628SOL     OW51203  10.718   1.815  11.538 -0.0737  0.1869 -0.3470
48628SOL    HW151204  10.647   1.880  11.532 -0.1295  0.2815  1.0090
48628SOL    HW251205  10.682   1.736  11.498 -1.0843  0.1368  0.6113
48629SOL     OW51206   0.113   9.504   1.327  0.6281 -0.0201  0.2952
48629SOL    HW151207   0.197   9.524   1.284  1.1133 -0.1648  1.1443
48629SOL    HW251208   0.047   9.530   1.263  1.3099  0.6585 -0.1587
48630SOL     OW51209   6.969  11.638   1.725 -0.3742  0.3106  0.2919
48630SOL    HW151210   7.022  11.703   1.680 -0.2820  0.2297  0.2838
48630SOL    HW251211   6.960  11.672   1.814  0.6947 -0.2581  0.6325
48631SOL     OW51212   7.403   2.675   9.848  0.1454  0.2989 -0.2142
48631SOL    HW151213   7.463   2.601   9.857  2.3991  1.9337 -0.8632
48631SOL    HW251214   7.460   2.752   9.851 -2.1814  2.0779  1.1721
48632SOL     OW51215   6.791  10.508   7.335  0.1623 -0.3537  0.1458
48632SOL    HW151216   6.740  10.564   7.276  1.2284 -0.5656 -1.0046
48632SOL    HW251217   6.879  10.544   7.334  0.2372 -0.4260  1.5640
48633SOL     OW51218  10.993   1.485   1.658 -0.0964 -0.4342 -0.1721
48633SOL    HW151219  10.900   1.467   1.643 -0.2636 -0.4337  0.7852
48633SOL    HW251220  11.009   1.567   1.611 -1.3492  1.2057  2.0733
48634SOL     OW51221   4.466   8.873   4.801  0.0233 -0.1452  0.2671
48634SOL    HW151222   4.418   8.794   4.778 -0.6246 -0.3447  2.1407
48634SOL    HW251223   4.502   8.904   4.718 -0.1609 -2.0876 -0.6001
48635SOL     OW51224   6.352  10.558   6.509  0.1475  0.6278  0.3421
48635SOL    HW151225   6.300  10.563   6.588  1.9053 -0.7536  1.6833
48635SOL    HW251226   6.347  10.466   6.483  2.9910  0.0821  1.3839
48636SOL     OW51227   8.242   6.468  10.775  0.3824 -0.0379 -0.2347
48636SOL    HW151228   8.279   6.530  10.838  1.5857 -2.6871  1.9035
48636SOL    HW251229   8.150   6.461  10.801  0.5735 -0.1607  0.4444
48637SOL     OW51230   8.864   7.478   9.282  0.0529 -0.3443  0.0399
48637SOL    HW151231   8.888   7.569   9.267 -0.3257 -0.1574  0.5226
48637SOL    HW251232   8.932   7.427   9.238 -0.1762  0.1677 -0.9163
48638SOL     OW51233   2.114   9.446   9.145  0.1520 -0.1219 -0.3279
48638SOL    HW151234   2.111   9.351   9.139  0.8808 -0.1280 -0.7196
48638SOL    HW251235   2.131   9.463   9.238  1.0771 -0.4193 -0.4259
48639SOL     OW51236   4.715   5.305   5.812 -0.0970 -0.5968 -0.0135
48639SOL    HW151237   4.687   5.311   5.721  0.5376  0.2935 -0.1713
48639SOL    HW251238   4.635   5.292   5.862 -0.4100 -1.5303 -0.7262
48640SOL     OW51239   4.846   1.518   5.927 -0.4337 -0.0807 -0.4903
48640SOL    HW151240   4.925   1.544   5.973 -0.6493  1.3066 -0.8657
48640SOL    HW251241   4.816   1.439   5.973  0.3294  0.2514  0.6069
48641SOL     OW51242   9.661   9.289   4.941 -0.4930 -0.0737 -0.0936
48641SOL    HW151243   9.711   9.363   4.907 -1.0330  0.9770  1.3024
48641SOL    HW251244   9.617   9.324   5.019 -0.9328 -1.8082  0.4741
48642SOL     OW51245   9.812   3.794   2.987 -0.1771 -0.3282  0.3331
48642SOL    HW151246   9.748   3.805   2.917  0.0439 -1.0394  0.0053
48642SOL    HW251247   9.853   3.710   2.968 -0.1134 -0.5286  1.3200
48643SOL     OW51248   0.723   1.644   4.058  0.1029 -0.2965  0.2245
48643SOL    HW151249   0.671   1.580   4.106 -1.0091 -0.8854 -1.6287
48643SOL    HW251250   0.788   1.592   4.011  0.3848  0.1322  0.1335
48644SOL     OW51251   4.965   7.652   0.093  0.4059 -0.0473  0.2339
48644SOL    HW151252   5.040   7.630   0.037 -0.3005 -0.5789 -0.5203
48644SOL    HW251253   4.998   7.722   0.150  1.4887 -0.2979 -0.0539
48645SOL     OW51254   1.095   3.851   8.561  0.2056  0.6059 -0.7021
48645SOL    HW151255   1.172   3.795   8.555  0.2506  0.7388 -1.4131
48645SOL    HW251256   1.037   3.805   8.623  0.3121 -0.1361 -1.1395
48646SOL     OW51257  10.187   9.166  11.294  0.0718  0.0363 -0.0022
48646SOL    HW151258  10.142   9.245  11.324  1.2868 -0.0785  2.2961
48646SOL    HW251259  10.280   9.188  11.300  0.4184 -1.4288  0.2171
48647SOL     OW51260   4.286   7.011   6.903 -0.2054 -0.0753  0.2483
48647SOL    HW151261   4.362   7.051   6.860 -0.6609  2.9784  1.9942
48647SOL    HW251262   4.213   7.026   6.842  0.0184 -0.1295 -0.0337
48648SOL     OW51263  11.119   4.775   6.101  0.0311  0.2471 -0.3827
48648SOL    HW151264  11.164   4.756   6.019 -0.2724  1.4487 -0.8530
48648SOL    HW251265  11.067   4.696   6.119 -1.5137  0.6995 -2.4601
48649SOL     OW51266  10.967   5.046   0.252  0.0143  0.3304  0.3552
48649SOL    HW151267  10.981   4.995   0.331  2.9025 -0.7104 -0.6788
48649SOL    HW251268  11.007   5.131   0.270  1.2037 -0.1073 -0.1352
48650SOL     OW51269   1.951   8.610   2.349 -0.3919  0.2018 -0.6134
48650SOL    HW151270   1.871   8.663   2.352  0.1408  1.0101 -0.2712
48650SOL    HW251271   1.985   8.613   2.438 -0.5702 -1.0882 -0.4845
48651SOL     OW51272   3.698   7.031   6.348 -0.2075  0.6598  0.0631
48651SOL    HW151273   3.629   7.083   6.389 -1.6606 -0.2358 -1.1750
48651SOL    HW251274   3.721   6.965   6.414 -2.1599 -0.4449 -0.2954
48652SOL     OW51275   0.416   6.912   8.486  0.7946 -0.3638 -0.4304
48652SOL    HW151276   0.422   6.845   8.419  0.7667  1.9055 -2.8896
48652SOL    HW251277   0.506   6.928   8.514  1.0729  0.2090 -1.6126
48653SOL     OW51278   7.359   7.255   5.242 -0.4335  0.2318 -0.0939
48653SOL    HW151279   7.297   7.266   5.170  0.7957  0.1360 -1.2100
48653SOL    HW251280   7.403   7.340   5.249  1.7978 -0.6988 -1.7549
48654SOL     OW51281   9.654   3.698   1.879  0.0195 -0.1921  0.1468
48654SOL    HW151282   9.659   3.792   1.860 -0.3190  0.0741  1.2994
48654SOL    HW251283   9.710   3.657   1.813  1.8852  0.9993  0.9108
48655SOL     OW51284   9.809   2.336   7.067  0.4647 -0.2020  0.1783
48655SOL    HW151285   9.886   2.305   7.114  0.6486 -0.0625 -0.0299
48655SOL    HW251286   9.842   2.365   6.981  0.1317 -0.4682 -0.0430
48656SOL     OW51287  11.647   4.295  10.825  0.1712  0.7374 -0.2517
48656SOL    HW151288  11.634   4.341  10.742  0.5282  0.8511 -0.2447
48656SOL    HW251289  11.558   4.285  10.861  0.0629  1.1403 -0.4007
48657SOL     OW51290   8.608   1.830   5.123 -0.0641 -0.1668 -0.4239
48657SOL    HW151291   8.516   1.813   5.102 -0.1489  1.8287 -1.9778
48657SOL    HW251292   8.620   1.793   5.210 -1.8316 -2.0757 -0.9096
48658SOL     OW51293  11.326   3.022  11.274 -0.1276  0.1065  0.0699
48658SOL    HW151294  11.232   3.013  11.261  0.0747  0.4143 -1.8004
48658SOL    HW251295  11.347   2.954  11.338 -1.5851 -0.0341  0.4445
48659SOL     OW51296   2.647   7.338   9.561 -0.2099 -0.1996  0.4840
48659SOL    HW151297   2.600   7.352   9.479  0.1764  0.1600  0.3220
48659SOL    HW251298   2.615   7.253   9.592  0.0270 -0.5881 -0.3059
48660SOL     OW51299   7.936  10.868   9.633 -0.2724  0.3562 -0.0259
48660SOL    HW151300   7.841  10.878   9.636 -0.2888  0.1072  0.8112
48660SOL    HW251301   7.951  10.781   9.672  0.2202 -0.1670 -1.3500
48661SOL     OW51302   1.036  11.299  10.180  0.3394 -0.0723 -0.1303
48661SOL    HW151303   1.036  11.310  10.275 -3.0795 -1.1456  0.1257
48661SOL    HW251304   1.076  11.213  10.166  2.4590  0.8034  0.0929
48662SOL     OW51305   6.882   0.947   3.487  0.0724  0.0529 -0.1099
48662SOL    HW151306   6.787   0.936   3.478 -0.2394  0.4025  2.1385
48662SOL    HW251307   6.911   0.870   3.536  0.5911  0.9114  0.9790
48663SOL     OW51308   6.320   9.512   3.015 -0.3096  0.4008 -0.0426
48663SOL    HW151309   6.368   9.446   2.965 -1.4426 -0.5843  0.1452
48663SOL    HW251310   6.299   9.580   2.951  2.3951  1.5106  0.1150
48664SOL     OW51311   6.934   4.332   1.648  0.0146  0.1929 -0.7824
48664SOL    HW151312   6.972   4.410   1.608  0.2593  0.0754 -0.7858
48664SOL    HW251313   6.921   4.356   1.739 -0.0206  0.2764 -0.8091
48665SOL     OW51314   1.494   8.838   3.475  0.0865 -0.3636 -0.0538
48665SOL    HW151315   1.424   8.851   3.539  0.2924 -0.1233  0.1229
48665SOL    HW251316   1.456   8.864   3.391 -0.0004 -0.1325  0.0590
48666SOL     OW51317   1.387   4.533   5.554  0.6583  0.2184 -0.5353
48666SOL    HW151318   1.455   4.579   5.604 -0.2812 -0.0748  1.0722
48666SOL    HW251319   1.424   4.447   5.536  1.3791  0.6511 -1.2494
48667SOL     OW51320   9.478   4.719  11.665  0.3195 -0.5172 -0.3917
48667SOL    HW151321   9.460   4.682  11.752 -3.0598 -0.2565 -0.8500
48667SOL    HW251322   9.536   4.793  11.682  2.0884 -2.1767  1.2597
48668SOL     OW51323   8.447   6.254  10.702  0.0903 -0.2084  0.1757
48668SOL    HW151324   8.385   6.326  10.716  1.2651  0.7700  0.5404
48668SOL    HW251325   8.397   6.188  10.656 -1.2349  0.5391  0.4948
48669SOL     OW51326   8.586   7.274   8.098  0.1638  0.1300  0.8072
48669SOL    HW151327   8.653   7.326   8.142 -0.4394 -0.0367  1.9613
48669SOL    HW251328   8.547   7.221   8.167  0.0553 -1.1039 -0.1669
48670SOL     OW51329   8.525   9.555   0.149  0.1699 -0.3136 -0.0951
48670SOL    HW151330   8.587   9.510   0.205 -2.1411 -1.3355  1.7824
48670SOL    HW251331   8.456   9.491   0.132 -0.3937  0.7410 -2.1684
48671SOL     OW51332   2.157   4.949   5.131  0.3677 -0.6497  0.0203
48671SOL    HW151333   2.114   4.990   5.056  0.3236  0.8603  0.8410
48671SOL    HW251334   2.119   4.992   5.208  1.3865 -1.1982  0.8609
48672SOL     OW51335   2.868   8.010   6.635 -0.2316 -0.4192  0.0379
48672SOL    HW151336   2.946   7.979   6.679 -0.2296  0.3795  0.6311
48672SOL    HW251337   2.854   8.098   6.671 -0.1854  0.2931 -1.6023
48673SOL     OW51338   4.416   9.227   7.863  0.3137  0.1644 -0.1898
48673SOL    HW151339   4.493   9.175   7.887 -0.0740 -1.5753 -2.3809
48673SOL    HW251340   4.451   9.314   7.847  2.3157 -1.0355 -3.1600
48674SOL     OW51341   8.726   7.052   5.031  0.1647  0.2236  0.9184
48674SOL    HW151342   8.775   6.987   5.081  0.9152  0.6836  0.7997
48674SOL    HW251343   8.772   7.135   5.048 -0.6572  0.6943  0.9176
48675SOL     OW51344   0.665   7.439  11.150 -0.4529 -0.1439  0.7604
48675SOL    HW151345   0.681   7.455  11.057 -1.1053 -1.8247  0.3189
48675SOL    HW251346   0.737   7.382  11.177 -1.0162 -0.8058  0.9039
48676SOL     OW51347   2.047   0.118   4.034  0.3847  0.3558  0.2311
48676SOL    HW151348   2.044   0.140   4.127 -0.6198  0.5265  0.1657
48676SOL    HW251349   2.139   0.097   4.017  0.0904 -2.9179  2.0030
48677SOL     OW51350  10.562   2.827   1.400 -0.3965  0.4234 -0.0692
48677SOL    HW151351  10.529   2.917   1.408  2.7427  1.6402  0.7385
48677SOL    HW251352  10.621   2.830   1.324  1.8074 -0.1693  1.5191
48678SOL     OW51353   1.844   5.363  10.463 -0.0052 -0.7197  0.5985
48678SOL    HW151354   1.763   5.406  10.491 -0.0868 -0.9849  0.7686
48678SOL    HW251355   1.892   5.346  10.545 -0.9221 -2.8800  0.7487
48679SOL     OW51356   2.401   5.815  10.689  0.4790  0.0305 -0.2056
48679SOL    HW151357   2.377   5.771  10.608  0.1887 -0.7723  0.2994
48679SOL    HW251358   2.395   5.908  10.669  0.3626 -0.1637 -1.0855
48680SOL     OW51359   6.337   5.150   5.303 -0.4614 -0.4512 -0.3078
48680SOL    HW151360   6.251   5.193   5.309 -1.1301 -1.8751  0.8595
48680SOL    HW251361   6.382   5.175   5.383  1.2218  2.1597 -1.8954
48681SOL     OW51362   1.487   9.223   4.656  0.4174  0.4465  0.0158
48681SOL    HW151363   1.425   9.151   4.658  1.9635 -1.0030 -1.2768
48681SOL    HW251364   1.471   9.272   4.737 -2.7377  0.4940 -0.5240
48682SOL     OW51365  10.832   0.109   6.061 -0.3749 -0.0569 -0.0196
48682SOL    HW151366  10.853   0.031   6.010 -0.6139  0.5963 -1.1570
48682SOL    HW251367  10.808   0.076   6.147  0.3821 -1.1705 -0.2205
48683SOL     OW51368   1.159   3.600   3.398 -0.0408 -0.1944 -1.1105
48683SOL    HW151369   1.239   3.635   3.438 -1.0859  1.8429 -0.6555
48683SOL    HW251370   1.172   3.613   3.304  0.5623 -0.8157 -1.1234
48684SOL     OW51371  10.328   2.203  11.573  0.6836 -0.1876  0.2536
48684SOL    HW151372  10.263   2.272  11.585 -0.1195 -0.7464 -0.7923
48684SOL    HW251373  10.383   2.234  11.501  0.6053 -0.4358  0.0868
48685SOL     OW51374  11.170   1.362   5.798  0.1964  0.5094  0.2215
48685SOL    HW151375  11.085   1.385   5.761 -0.0452  0.3185  0.6495
48685SOL    HW251376  11.179   1.268   5.782  0.0306  0.4004  0.7602
48686SOL     OW51377  10.108   0.774   8.707  0.0143  0.1114  0.3940
48686SOL    HW151378  10.067   0.820   8.781  0.1422  0.5623  0.1904
48686SOL    HW251379  10.140   0.692   8.744  1.2882  0.9175  1.1550
48687SOL     OW51380   1.657   9.162   9.755  0.4039 -0.2804 -0.1140
48687SOL    HW151381   1.584   9.108   9.726 -0.3051  0.9283 -0.6511
48687SOL    HW251382   1.635   9.187   9.845 -0.2335  0.6727 -0.5124
48688SOL     OW51383   4.525   4.688   1.261 -0.0474 -0.3832 -0.2155
48688SOL    HW151384   4.552   4.635   1.185 -1.4105 -0.7953 -0.4385
48688SOL    HW251385   4.453   4.742   1.228 -0.0522  0.0929  0.5579
48689SOL     OW51386   5.449   1.876   9.835  1.1690  0.4215  0.2454
48689SOL    HW151387   5.448   1.896   9.928 -0.7433  1.5063  0.0493
48689SOL    HW251388   5.392   1.942   9.796  0.8939 -0.7827 -1.5201
48690SOL     OW51389   9.049   3.735   4.761 -0.2308  0.5917 -0.1912
48690SOL    HW151390   9.091   3.774   4.838  1.9942 -4.1410  1.3969
48690SOL    HW251391   8.995   3.665   4.797 -0.5429 -0.6510 -2.8521
48691SOL     OW51392   4.875  11.495   4.276 -0.3360  0.6978 -0.6099
48691SOL    HW151393   4.912  11.583   4.274 -0.5578  0.7877 -0.7789
48691SOL    HW251394   4.783  11.509   4.298 -0.2504  0.4691 -0.0831
48692SOL     OW51395   2.480   4.808   2.489 -0.1653 -0.3438  0.4853
48692SOL    HW151396   2.454   4.824   2.580 -0.7374  2.3263 -0.0689
48692SOL    HW251397   2.398   4.781   2.446 -0.6868  1.6878  0.1106
48693SOL     OW51398   1.003   3.910   7.078  0.1322  0.1455  0.5849
48693SOL    HW151399   0.936   3.845   7.059  0.1812  0.2396  0.0619
48693SOL    HW251400   0.955   3.992   7.092  0.1359  0.2443  0.0681
48694SOL     OW51401   8.069   9.682   9.017 -0.4801 -0.5321  0.0425
48694SOL    HW151402   8.065   9.648   9.106 -1.9802  1.9549  1.0446
48694SOL    HW251403   8.099   9.772   9.027 -0.0952 -0.3647 -2.0511
48695SOL     OW51404   5.633   5.331   5.126 -0.5152 -0.1566 -0.3001
48695SOL    HW151405   5.709   5.334   5.183 -0.7727  0.2428  0.0249
48695SOL    HW251406   5.658   5.271   5.056  1.2652  2.1764 -1.8302
48696SOL     OW51407   6.261   9.490   9.539 -0.2480  0.1508 -0.4943
48696SOL    HW151408   6.298   9.441   9.466  0.9075 -3.2183  2.0664
48696SOL    HW251409   6.336   9.532   9.581 -0.3110 -0.9053  0.7276
48697SOL     OW51410   3.877   9.682   2.147  0.2744 -0.9521  0.1215
48697SOL    HW151411   3.843   9.763   2.108  1.0269 -0.1683  1.0430
48697SOL    HW251412   3.855   9.614   2.084 -0.7993 -0.1059 -0.4540
48698SOL     OW51413   5.958   9.049   6.893  1.1354 -0.3467  0.6779
48698SOL    HW151414   5.979   9.138   6.863 -0.0749 -0.4290 -0.5051
48698SOL    HW251415   6.014   8.992   6.840  2.1394 -0.3176  1.6508
48699SOL     OW51416   5.607   6.182   0.444  0.0168 -0.1504 -0.0174
48699SOL    HW151417   5.576   6.217   0.527  0.2004  0.8244 -0.3470
48699SOL    HW251418   5.551   6.221   0.378  0.1022 -0.6392 -0.3904
48700SOL     OW51419   4.089   6.886   3.312  0.4882  0.0339 -0.5873
48700SOL    HW151420   4.130   6.849   3.234 -0.1585 -0.9004 -0.5077
48700SOL    HW251421   3.997   6.894   3.289  0.2631 -0.4107  0.1269
48701SOL     OW51422   8.362  11.582   7.405  0.3229  0.5399  0.4808
48701SOL    HW151423   8.329  11.492   7.402  1.8678 -0.0309 -1.1524
48701SOL    HW251424   8.456  11.573   7.394  0.2801  2.4660 -2.4619
48702SOL     OW51425   5.645   9.311  11.295  0.1310 -0.0652  0.2267
48702SOL    HW151426   5.661   9.334  11.203  0.4157  3.3676  0.9962
48702SOL    HW251427   5.729   9.326  11.338 -0.1182 -1.2076  1.1625
48703SOL     OW51428   5.463   6.143   6.659 -0.1816  0.7021  0.3749
48703SOL    HW151429   5.548   6.186   6.649  1.0173 -1.4805  0.6168
48703SOL    HW251430   5.417   6.196   6.724  1.8032  0.8116  1.7588
48704SOL     OW51431   0.506  10.335   6.295  0.2547  0.2105  0.3099
48704SOL    HW151432   0.519  10.424   6.263 -3.4148  0.5958 -0.5529
48704SOL    HW251433   0.481  10.285   6.218 -3.1153 -0.1819  1.4879
48705SOL     OW51434   9.556  11.241   0.341  0.8121  0.7264 -0.0529
48705SOL    HW151435   9.522  11.216   0.255 -2.3019  0.6268  1.0838
48705SOL    HW251436   9.646  11.210   0.341  0.2303 -1.2830 -2.4673
48706SOL     OW51437   8.484   0.372   0.804  0.2580 -0.6717  0.4153
48706SOL    HW151438   8.539   0.304   0.842  1.1895 -0.2254 -0.1102
48706SOL    HW251439   8.408   0.325   0.768  1.3805 -1.5578 -0.8629
48707SOL     OW51440   8.239  10.916   6.445  0.3130 -0.0144  0.3419
48707SOL    HW151441   8.173  10.917   6.375 -1.2505  1.7613  1.7360
48707SOL    HW251442   8.248  10.823   6.467 -2.6298 -0.3015  0.8456
48708SOL     OW51443   3.015   5.706   0.752  0.4366  0.1136  0.1274
48708SOL    HW151444   3.001   5.715   0.846 -2.5370  0.2566 -0.2495
48708SOL    HW251445   3.029   5.612   0.739  1.3439  0.1521  0.7224
48709SOL     OW51446   4.319   9.301   1.297 -0.1106  0.6217  0.1385
48709SOL    HW151447   4.371   9.239   1.348  0.3873 -0.9627 -2.1198
48709SOL    HW251448   4.242   9.319   1.352  0.0106 -1.5774  1.1401
48710SOL     OW51449   8.744   5.869   0.937  0.5652 -0.6983  0.4650
48710SOL    HW151450   8.650   5.853   0.942  0.1970  1.3023  0.5501
48710SOL    HW251451   8.772   5.877   1.028  1.0492 -2.3283  0.4910
48711SOL     OW51452   3.234   3.261   9.388 -0.6380  0.3389  0.1989
48711SOL    HW151453   3.235   3.216   9.303 -1.3033  2.4331 -0.9842
48711SOL    HW251454   3.285   3.341   9.373  0.5908  0.0128  2.2599
48712SOL     OW51455   3.551   5.816   1.170 -0.5040 -0.0212  0.3565
48712SOL    HW151456   3.556   5.893   1.113  1.2791 -0.8519 -0.6936
48712SOL    HW251457   3.471   5.770   1.143 -0.1115  0.0215 -0.9379
48713SOL     OW51458   3.154   5.438   8.639  0.4655  0.6445  0.1924
48713SOL    HW151459   3.143   5.410   8.548 -1.5228 -0.0741  0.5980
48713SOL    HW251460   3.075   5.489   8.658  0.9489  0.9612  1.4550
48714SOL     OW51461   4.148   0.569   1.282 -0.5648 -0.5181  0.0903
48714SOL    HW151462   4.094   0.499   1.248 -0.8102  0.0750 -0.7863
48714SOL    HW251463   4.092   0.616   1.344 -0.4076 -1.0657  0.6578
48715SOL     OW51464   7.476   5.748  11.164  0.6299 -0.4092 -0.0796
48715SOL    HW151465   7.434   5.812  11.222 -0.0510 -1.5080  0.6725
48715SOL    HW251466   7.518   5.685  11.223 -1.6490 -2.6159 -0.6470
48716SOL     OW51467   8.750   2.773   6.568  0.1008  0.2359  0.1085
48716SOL    HW151468   8.763   2.710   6.638 -1.5812 -1.5362 -1.0626
48716SOL    HW251469   8.832   2.772   6.519  0.8058  0.5020  1.2613
48717SOL     OW51470   5.424   3.812   0.773 -0.2418  0.4060  0.5331
48717SOL    HW151471   5.434   3.731   0.822  2.1782  1.4020  1.8785
48717SOL    HW251472   5.462   3.794   0.687  1.3718  0.3926  1.2193
48718SOL     OW51473   1.010   2.088   9.072 -0.2662  0.0545 -0.0367
48718SOL    HW151474   0.974   2.160   9.020 -1.7279 -1.1498 -0.7701
48718SOL    HW251475   1.016   2.015   9.011 -0.9257 -1.0816  1.1958
48719SOL     OW51476   0.385   8.656   3.607 -0.1680  0.4254 -0.2005
48719SOL    HW151477   0.448   8.686   3.673 -1.4926 -0.0735  1.3590
48719SOL    HW251478   0.378   8.562   3.622 -0.6130  0.3388 -0.9362
48720SOL     OW51479  11.139   8.416   3.155 -0.0926 -0.3379 -0.5116
48720SOL    HW151480  11.211   8.478   3.144 -1.4361  1.1008 -1.6586
48720SOL    HW251481  11.146   8.357   3.080  1.3585 -1.8482  0.7307
48721SOL     OW51482   1.261  10.573   1.762 -0.0245  0.0760 -0.1496
48721SOL    HW151483   1.267  10.528   1.678 -0.2065  1.6792 -1.0703
48721SOL    HW251484   1.173  10.552   1.794  0.3761 -1.2877  0.1116
48722SOL     OW51485  11.472  10.591   1.097  0.6678  0.4427  0.0330
48722SOL    HW151486  11.512  10.575   1.011 -0.6035  0.1654 -0.5409
48722SOL    HW251487  11.378  10.600   1.078  0.6250  3.1389  1.0312
48723SOL     OW51488  10.547   6.648   4.185  0.1069  0.2354  0.0416
48723SOL    HW151489  10.519   6.585   4.251 -0.7943  0.3144 -0.2441
48723SOL    HW251490  10.623   6.692   4.224  1.4339 -1.7290 -0.1747
48724SOL     OW51491   5.031   8.115   0.355 -0.1311  0.4232 -0.0565
48724SOL    HW151492   5.025   8.183   0.421 -1.2521 -0.0011  0.3015
48724SOL    HW251493   4.953   8.060   0.369  1.0540 -1.3152  0.0995
48725SOL     OW51494   1.831   8.617   9.956  0.1060  0.8597  0.2527
48725SOL    HW151495   1.775   8.695   9.956 -0.8295  0.2062  0.1612
48725SOL    HW251496   1.862   8.610   9.866 -0.1144  0.9141  0.1718
48726SOL     OW51497   8.434  10.891   2.800 -0.0902  0.0190  0.1880
48726SOL    HW151498   8.416  10.941   2.720  1.7177 -0.7788 -0.7701
48726SOL    HW251499   8.360  10.831   2.808  0.5195 -1.0959 -1.8979
48727SOL     OW51500   7.575   6.736   0.488 -0.3206 -0.1133  0.2876
48727SOL    HW151501   7.648   6.728   0.426  2.0892 -1.8264  3.0469
48727SOL    HW251502   7.570   6.830   0.507  2.7250 -0.0937  1.5557
48728SOL     OW51503   8.744   8.492   4.958 -0.2720 -0.9154  0.2535
48728SOL    HW151504   8.683   8.418   4.954 -1.0772 -0.2846  0.5667
48728SOL    HW251505   8.689   8.567   4.980  0.4174 -0.0766 -0.7985
48729SOL     OW51506   5.599   0.738   8.858  0.3950 -0.4182 -0.1907
48729SOL    HW151507   5.594   0.795   8.935  1.6541  1.9275 -1.7387
48729SOL    HW251508   5.512   0.742   8.819  0.5703  0.8775 -0.5102
48730SOL     OW51509  11.239   1.697   9.823 -0.1483 -0.3121  1.0291
48730SOL    HW151510  11.222   1.604   9.812 -0.0933 -0.2566  0.4394
48730SOL    HW251511  11.334   1.705   9.813  0.1535 -0.4988  3.3839
48731SOL     OW51512  10.854   7.598   6.524  0.3020  0.1873 -0.2809
48731SOL    HW151513  10.806   7.559   6.451  0.2454  1.4881 -0.9680
48731SOL    HW251514  10.880   7.684   6.492  1.7608  0.1121  0.6339
48732SOL     OW51515   4.176   7.752   4.412  0.0091 -0.1595 -0.0591
48732SOL    HW151516   4.226   7.675   4.439  1.1051 -0.1265 -1.8662
48732SOL    HW251517   4.196   7.763   4.319  0.5269  2.7895  0.3075
48733SOL     OW51518   7.794   7.455   4.185 -0.4397  0.3170 -0.0733
48733SOL    HW151519   7.862   7.387   4.182 -1.6988 -1.0684  1.4995
48733SOL    HW251520   7.721   7.417   4.137 -0.8852  0.8917  0.1498
48734SOL     OW51521   4.339   0.553   2.074 -0.1422 -0.6189  0.5678
48734SOL    HW151522   4.282   0.567   1.999 -0.1632 -1.4740  0.4071
48734SOL    HW251523   4.342   0.458   2.085  1.3722 -0.6150  0.4635
48735SOL     OW51524   7.593   2.917   7.759 -0.3020 -0.5204 -0.2849
48735SOL    HW151525   7.597   2.998   7.810 -4.2824 -0.0543 -0.4079
48735SOL    HW251526   7.598   2.946   7.667 -0.0195 -0.6073 -0.2973
48736SOL     OW51527   6.948   3.749   8.175  0.1077 -0.5227  0.0042
48736SOL    HW151528   6.902   3.806   8.237  0.4465 -0.5070  0.2453
48736SOL    HW251529   7.021   3.802   8.144 -0.6856 -0.1373 -1.2508
48737SOL     OW51530   3.193   1.910   0.607 -0.2241  0.0271  0.3886
48737SOL    HW151531   3.188   1.892   0.701 -1.0794  1.5108  0.6504
48737SOL    HW251532   3.286   1.925   0.591 -0.2104  0.8896  1.2257
48738SOL     OW51533   3.490   1.363   0.325  0.3312  0.3125 -0.4403
48738SOL    HW151534   3.572   1.322   0.354  0.2798  0.1256 -0.5553
48738SOL    HW251535   3.433   1.289   0.306 -0.0032  0.4469  0.0310
48739SOL     OW51536   0.555   4.995  10.598 -0.4942  0.1070 -0.1653
48739SOL    HW151537   0.580   4.997  10.691 -1.3341  2.1798  0.0458
48739SOL    HW251538   0.639   4.996  10.552 -0.0869  0.3023  0.5566
48740SOL     OW51539  10.726   0.097  10.161  0.1609  0.1191 -0.5446
48740SOL    HW151540  10.651   0.152  10.136 -1.4234 -1.2996  0.7828
48740SOL    HW251541  10.695   0.008  10.146  0.4857 -0.6461  2.7150
48741SOL     OW51542   1.243  10.132   8.854  0.0927 -0.3912 -0.3711
48741SOL    HW151543   1.243  10.079   8.775  3.9501 -0.6517 -0.3978
48741SOL    HW251544   1.254  10.069   8.925  0.3544  0.0637  0.0021
48742SOL     OW51545   9.819   7.554   1.039 -0.4867 -0.9013  0.5231
48742SOL    HW151546   9.730   7.584   1.025 -0.6679 -2.1253 -1.2102
48742SOL    HW251547   9.855   7.615   1.103 -2.5182 -0.3206  1.1908
48743SOL     OW51548  10.166   7.935   0.099 -0.1797  0.0033  0.2138
48743SOL    HW151549  10.137   7.852   0.136 -1.3953  1.1790  2.0451
48743SOL    HW251550  10.117   7.943   0.017 -2.0765  0.0756  1.2900
48744SOL     OW51551   6.432  11.188   2.874 -0.7999 -0.0878 -0.3138
48744SOL    HW151552   6.379  11.261   2.906  0.3599  0.0624  1.4012
48744SOL    HW251553   6.519  11.225   2.859  0.3969 -1.4130  2.5821
48745SOL     OW51554   3.253   2.761   4.718 -0.0453  0.0115  0.1352
48745SOL    HW151555   3.337   2.797   4.688 -0.0952  0.1941  0.2131
48745SOL    HW251556   3.252   2.778   4.812  0.3359 -1.0203  0.3364
48746SOL     OW51557   2.065   5.858   8.324 -0.0874 -0.3227  0.4450
48746SOL    HW151558   2.045   5.765   8.329  0.2194 -0.3378  1.5808
48746SOL    HW251559   2.009   5.891   8.254  0.8450 -1.6167 -0.9770
48747SOL     OW51560   1.858   6.575   3.205 -0.4437 -0.2073 -0.5206
48747SOL    HW151561   1.817   6.628   3.274 -0.7797 -0.2473 -0.6861
48747SOL    HW251562   1.854   6.486   3.238 -0.9843 -0.2798 -0.7684
48748SOL     OW51563   6.609   9.120  11.347 -0.1497  0.3172  0.0058
48748SOL    HW151564   6.701   9.099  11.364 -0.9970 -2.8498  1.3700
48748SOL    HW251565   6.577   9.047  11.293 -2.0624  0.9291  0.2280
48749SOL     OW51566  10.502   2.504   8.614  0.0577  0.2446 -0.1268
48749SOL    HW151567  10.427   2.552   8.577 -1.1742 -0.2193  1.6304
48749SOL    HW251568  10.466   2.419   8.639  1.4002 -0.3270 -0.0668
48750SOL     OW51569   5.778   5.808   2.178 -0.3457  0.4536  0.1998
48750SOL    HW151570   5.699   5.766   2.211 -0.0086  0.2722  0.7933
48750SOL    HW251571   5.747   5.887   2.134 -0.8279  0.5529  0.7159
48751SOL     OW51572   5.708   9.068  11.521 -0.1232 -0.0291 -0.1941
48751SOL    HW151573   5.695   8.983  11.481  1.7139  0.3285 -1.7152
48751SOL    HW251574   5.750   9.121  11.453 -0.3666  1.8134  0.9952
48752SOL     OW51575   3.069   9.890   5.494 -0.4123  0.1887  0.1836
48752SOL    HW151576   3.053   9.796   5.497  0.6926 -0.0297 -0.1095
48752SOL    HW251577   3.038   9.923   5.578  0.1407 -0.6135  0.7216
48753SOL     OW51578   8.779  10.182   4.973  0.4681 -0.3130  0.0077
48753SOL    HW151579   8.754  10.094   4.945 -0.2296 -0.4661  1.0476
48753SOL    HW251580   8.751  10.187   5.064 -3.5577  2.4125 -1.0875
48754SOL     OW51581   8.016  10.913   2.688 -0.6518  0.4965  0.8901
48754SOL    HW151582   7.984  10.931   2.599 -1.4350 -1.3324  0.7541
48754SOL    HW251583   7.959  10.965   2.744 -1.6300 -0.0484  0.4284
48755SOL     OW51584   8.551   6.084   1.669 -0.2283 -0.0189  0.1293
48755SOL    HW151585   8.474   6.038   1.637  0.1016 -1.3723  1.2378
48755SOL    HW251586   8.532   6.104   1.760  1.0453 -1.1120  0.6626
48756SOL     OW51587   3.263   5.491  10.970  0.2314  0.1853  0.3351
48756SOL    HW151588   3.178   5.497  10.926  0.1514 -1.2169  0.2572
48756SOL    HW251589   3.327   5.512  10.903  0.0390 -0.6537 -0.1196
48757SOL     OW51590   8.781  10.531   4.104 -0.0257  0.0911  0.0433
48757SOL    HW151591   8.871  10.545   4.077 -0.1791  0.6572 -0.1990
48757SOL    HW251592   8.783  10.535   4.199  0.2367 -0.0960  0.0457
48758SOL     OW51593  11.395   9.707   5.522 -0.3173 -0.1056 -0.4761
48758SOL    HW151594  11.350   9.658   5.453  0.8671 -0.4081 -1.0560
48758SOL    HW251595  11.340   9.783   5.537 -1.0134 -0.4563 -1.1749
48759SOL     OW51596   7.820   7.196  10.926 -0.4935 -0.5448 -0.1518
48759SOL    HW151597   7.750   7.242  10.973 -0.3247  1.3305 -1.6188
48759SOL    HW251598   7.858   7.263  10.869  1.1373 -2.0494 -0.9126
48760SOL     OW51599   5.425   2.995   9.447 -0.0041 -0.0388 -0.0468
48760SOL    HW151600   5.347   3.050   9.458 -0.2129  0.0486 -1.6230
48760SOL    HW251601   5.389   2.906   9.440  0.2130 -0.2245  1.1240
48761SOL     OW51602   7.707   3.732   4.476  0.4119  0.1617  0.4142
48761SOL    HW151603   7.708   3.799   4.408  1.6077 -1.3552 -1.1219
48761SOL    HW251604   7.794   3.736   4.516  1.1717 -1.6417 -0.9393
48762SOL     OW51605   9.054   7.582   3.716 -0.5918  0.3437 -0.1383
48762SOL    HW151606   9.115   7.601   3.787 -1.2614  0.7926  0.3321
48762SOL    HW251607   9.107   7.585   3.637  0.5611 -1.9311  0.4499
48763SOL     OW51608   4.406   1.539   9.203 -0.0964  0.2903  0.1385
48763SOL    HW151609   4.463   1.604   9.162 -0.8183  0.8190 -0.0613
48763SOL    HW251610   4.465   1.472   9.237  0.6362  0.8515 -0.0117
48764SOL     OW51611   4.263   8.963   9.214 -0.4581  0.2061 -0.4542
48764SOL    HW151612   4.256   8.921   9.300  0.2641  1.4215  0.2254
48764SOL    HW251613   4.318   8.904   9.163 -0.1455 -0.0859  0.2124
48765SOL     OW51614   9.380   7.422   7.432 -0.1089 -0.3257  0.3327
48765SOL    HW151615   9.444   7.465   7.490  1.3493  0.6568 -1.8715
48765SOL    HW251616   9.355   7.491   7.370 -1.8397 -1.2631 -0.0608
48766SOL     OW51617  11.229  11.305   5.495  0.1744  0.8604  0.0094
48766SOL    HW151618  11.294  11.304   5.566 -0.6888 -0.1283  0.8268
48766SOL    HW251619  11.270  11.253   5.425  0.8371  1.4394 -0.0469
48767SOL     OW51620   1.845   6.539   8.624  0.4769  0.6639  0.3246
48767SOL    HW151621   1.792   6.608   8.585  0.0465  0.0903 -0.1248
48767SOL    HW251622   1.933   6.576   8.631  0.4435  0.9536 -0.7203
48768SOL     OW51623   4.253   7.614   2.581  0.2453 -0.4177 -0.2224
48768SOL    HW151624   4.209   7.629   2.497  2.1491 -1.4078 -1.4875
48768SOL    HW251625   4.225   7.527   2.608 -0.7464  0.0949  0.4524
48769SOL     OW51626   5.901   4.695   2.824  0.4198 -0.3800  0.0274
48769SOL    HW151627   5.969   4.651   2.774  0.7796 -0.6244  0.7157
48769SOL    HW251628   5.906   4.786   2.797  0.6714 -0.4924 -0.3052
48770SOL     OW51629   7.221   5.040   1.787 -0.5600 -0.1552  0.5734
48770SOL    HW151630   7.315   5.058   1.786 -0.6676  0.4030 -0.2115
48770SOL    HW251631   7.180   5.127   1.792 -1.0633 -0.2403 -1.2752
48771SOL     OW51632   6.888   1.975  10.264  0.4484 -0.0007 -0.0181
48771SOL    HW151633   6.798   1.991  10.236 -0.5895 -3.0593  1.1361
48771SOL    HW251634   6.888   1.992  10.358  0.8691 -0.6953  0.1164
48772SOL     OW51635   9.109   5.253   3.835 -0.7816  0.0735  0.0860
48772SOL    HW151636   9.134   5.160   3.835  0.4508  0.3591 -1.6509
48772SOL    HW251637   9.182   5.298   3.793 -1.3118  1.8726  0.9811
48773SOL     OW51638   3.270   6.244   7.719  0.1390  0.2188 -0.8670
48773SOL    HW151639   3.250   6.336   7.704 -2.8978 -0.3345 -0.9389
48773SOL    HW251640   3.354   6.244   7.765 -0.2896  3.0753  0.0764
48774SOL     OW51641   2.479   9.310   9.480  0.0756  0.0540  0.1682
48774SOL    HW151642   2.414   9.350   9.423  0.2926  0.1387 -0.0209
48774SOL    HW251643   2.431   9.241   9.527 -0.2298  0.3423  0.2837
48775SOL     OW51644   9.885   4.608   9.540 -0.0087 -0.3256 -0.3830
48775SOL    HW151645   9.954   4.546   9.517 -0.3638 -0.4513 -1.1334
48775SOL    HW251646   9.926   4.666   9.604  0.3168 -1.3518  0.3760
48776SOL     OW51647   7.043  11.527  10.992  0.2600  0.0593 -0.1781
48776SOL    HW151648   7.063  11.607  11.042  1.4611  0.3883 -1.1301
48776SOL    HW251649   6.951  11.509  11.011 -0.4802  2.5065 -1.0833
48777SOL     OW51650   4.946   6.387   5.673  0.6440  0.0333  0.4035
48777SOL    HW151651   5.012   6.455   5.683  0.1133  0.5908  0.1889
48777SOL    HW251652   4.963   6.326   5.745  0.1382  1.2265  1.5784
48778SOL     OW51653   6.432   7.455   0.339 -0.3973 -0.3042  0.0765
48778SOL    HW151654   6.425   7.456   0.435  0.9087 -0.9571  0.1975
48778SOL    HW251655   6.409   7.366   0.314 -1.9439  0.1766 -0.3611
48779SOL     OW51656   0.023  10.641   5.136  0.2618 -0.3133 -0.6680
48779SOL    HW151657   0.042  10.583   5.063  0.9321 -0.3877 -0.4361
48779SOL    HW251658   0.105  10.648   5.184 -0.7823 -2.4014  1.6401
48780SOL     OW51659   4.247  11.431  10.214 -0.3910 -0.0305  0.8686
48780SOL    HW151660   4.162  11.411  10.255 -1.8961  1.1368 -1.4367
48780SOL    HW251661   4.253  11.368  10.142  0.0731  0.7314  0.2394
48781SOL     OW51662   6.238   6.171   6.216 -0.3998  0.2964 -0.1388
48781SOL    HW151663   6.315   6.146   6.166 -0.7587 -0.6150 -0.2490
48781SOL    HW251664   6.166   6.166   6.153 -0.9156 -1.2237  0.5298
48782SOL     OW51665   0.891   6.178   9.092 -0.4104 -0.5432 -0.1940
48782SOL    HW151666   0.951   6.196   9.020  2.4316 -2.2640  1.5463
48782SOL    HW251667   0.916   6.240   9.160 -2.0482  0.0798 -0.1294
48783SOL     OW51668   8.892   3.810  11.216 -0.0401 -0.0416  0.2680
48783SOL    HW151669   8.915   3.847  11.131  2.1274 -1.9544 -0.0786
48783SOL    HW251670   8.864   3.885  11.268 -0.8080  1.2708 -1.8952
48784SOL     OW51671   4.989   9.125   3.142 -0.1589  0.0815  0.0112
48784SOL    HW151672   5.072   9.170   3.125 -1.5137  1.9462 -2.1894
48784SOL    HW251673   4.964   9.154   3.230  0.2171  1.7300 -0.3886
48785SOL     OW51674   9.395   1.433  11.679  0.4740 -0.4637  0.3482
48785SOL    HW151675   9.427   1.433  11.588  2.2829  0.3722  0.9372
48785SOL    HW251676   9.300   1.426  11.670  0.5322  0.3123 -1.6542
48786SOL     OW51677  10.608   4.589  10.660 -0.0377 -0.1154 -0.0087
48786SOL    HW151678  10.592   4.586  10.566 -1.8819  1.0675  0.2101
48786SOL    HW251679  10.615   4.683  10.680  1.3994 -0.3790  0.9020
48787SOL     OW51680   8.966   6.768   6.411 -0.1122  0.0246  0.2589
48787SOL    HW151681   8.974   6.862   6.394  2.4503 -0.1677  0.0003
48787SOL    HW251682   9.032   6.728   6.354  0.9917 -1.6545  2.5821
48788SOL     OW51683  10.565   0.027   7.196 -0.1607 -0.1668 -0.6025
48788SOL    HW151684  10.621   0.042   7.120  2.0033 -1.8695  0.5586
48788SOL    HW251685  10.545  -0.067   7.193 -0.0614 -0.2576  0.8754
48789SOL     OW51686   9.309   4.441  10.777  0.5563 -0.1236  0.7215
48789SOL    HW151687   9.254   4.451  10.855 -2.1926  0.6452 -1.1529
48789SOL    HW251688   9.352   4.526  10.767  0.7105 -0.1371  1.2151
48790SOL     OW51689  10.934   2.552   0.001 -0.0621 -0.3693  0.0459
48790SOL    HW151690  10.860   2.582  -0.054 -0.5072  1.0110  1.3167
48790SOL    HW251691  11.007   2.545  -0.060 -0.1927  2.4497 -0.5717
48791SOL     OW51692  10.851   5.407   4.889  0.7120  0.0357 -0.4316
48791SOL    HW151693  10.848   5.493   4.847  1.1487  0.0750 -0.3902
48791SOL    HW251694  10.759   5.383   4.902  0.5955  0.9710  0.5355
48792SOL     OW51695   2.312   7.861   4.917 -0.6529  0.4153  0.1322
48792SOL    HW151696   2.315   7.957   4.924 -1.1652  0.3297  1.7769
48792SOL    HW251697   2.223   7.838   4.941 -0.0280 -0.5840  1.6510
48793SOL     OW51698  11.449  11.010  11.600 -0.4468  0.0748 -0.0001
48793SOL    HW151699  11.354  11.016  11.613 -0.3040  0.4891  0.9218
48793SOL    HW251700  11.477  11.101  11.589 -0.3816 -0.1512 -2.1409
48794SOL     OW51701   4.007   7.475   4.861  0.0578  0.5261 -0.0853
48794SOL    HW151702   4.096   7.498   4.834 -0.6374  0.2994 -2.7883
48794SOL    HW251703   4.011   7.380   4.877  0.7611  0.8530  2.0620
48795SOL     OW51704  10.742   1.729   7.734  0.1047  0.0209  0.4058
48795SOL    HW151705  10.668   1.789   7.740 -0.2548 -0.4279  0.4810
48795SOL    HW251706  10.816   1.780   7.768  0.0888  0.8811 -0.7894
48796SOL     OW51707   3.896   6.878  10.073  0.0534 -0.0530 -0.5369
48796SOL    HW151708   3.925   6.795  10.036  2.7750  0.4252  0.2540
48796SOL    HW251709   3.915   6.942  10.004 -0.6225  0.0912 -0.5883
48797SOL     OW51710  10.641   5.127   1.681 -0.2252 -0.1122  0.2503
48797SOL    HW151711  10.613   5.203   1.630 -1.5576 -0.5801  0.2268
48797SOL    HW251712  10.567   5.110   1.740 -0.7717 -2.4317 -0.9796
48798SOL     OW51713   5.255  10.867  10.872 -0.0882 -0.5791  0.0113
48798SOL    HW151714   5.316  10.800  10.841  0.6465  0.4190 -0.7789
48798SOL    HW251715   5.233  10.918  10.793  0.9314  1.3418  0.8892
48799SOL     OW51716   1.434   5.017  10.296  0.9840 -0.2672 -0.1610
48799SOL    HW151717   1.487   5.096  10.296  0.9374 -0.1972  1.3799
48799SOL    HW251718   1.473   4.962  10.364  0.0237 -0.8705 -0.0783
48800SOL     OW51719   9.093   0.111   0.077 -0.7147  0.0632 -0.5846
48800SOL    HW151720   9.168   0.052   0.072 -0.4812  0.1360  1.2720
48800SOL    HW251721   9.128   0.196   0.049 -0.7145 -0.3770 -1.9654
48801SOL     OW51722  11.372  10.849   4.495  0.2577 -0.9347 -0.3647
48801SOL    HW151723  11.428  10.852   4.418  0.0512  1.5927 -0.4828
48801SOL    HW251724  11.427  10.882   4.566 -0.7659  0.7754 -0.3165
48802SOL     OW51725   4.393   5.465   9.035 -0.2619 -0.5578 -0.4412
48802SOL    HW151726   4.365   5.410   8.963 -1.4012 -1.0037  0.3149
48802SOL    HW251727   4.332   5.445   9.106 -0.2909  1.1816  0.0717
48803SOL     OW51728   5.784   5.275   5.766 -0.4878 -0.2141 -0.2036
48803SOL    HW151729   5.871   5.305   5.793 -0.6026  0.2539 -0.3497
48803SOL    HW251730   5.736   5.355   5.745 -0.7666 -0.5009 -0.6902
48804SOL     OW51731   9.327   3.855   0.099 -0.4676  0.3428  0.0787
48804SOL    HW151732   9.342   3.848   0.004  3.2411 -0.2757  0.5516
48804SOL    HW251733   9.265   3.785   0.118 -0.9469  0.1862 -1.8119
48805SOL     OW51734   4.586   5.100   8.073 -0.2910  0.3423  0.0430
48805SOL    HW151735   4.585   5.190   8.106  0.2710  0.6360 -0.7271
48805SOL    HW251736   4.646   5.054   8.132 -0.1753  0.5973  0.1288
48806SOL     OW51737   3.152   3.807   2.010 -0.1587 -0.3280  0.1427
48806SOL    HW151738   3.199   3.796   2.093  1.8341 -1.4978 -1.0639
48806SOL    HW251739   3.085   3.873   2.029  0.7502  0.0194  2.4599
48807SOL     OW51740   3.371   1.481   7.865 -0.2880  0.1474 -0.2049
48807SOL    HW151741   3.375   1.386   7.878  1.7553  0.1113 -0.8927
48807SOL    HW251742   3.331   1.513   7.946 -0.8819 -1.2743  0.1056
48808SOL     OW51743  10.569   0.390   6.679 -0.6394 -0.2413 -0.4447
48808SOL    HW151744  10.582   0.484   6.684  0.5024 -0.3156 -1.5125
48808SOL    HW251745  10.532   0.376   6.591  0.4896 -0.8994 -0.8304
48809SOL     OW51746   6.117   9.218   9.645 -0.0515 -0.0993  0.3134
48809SOL    HW151747   6.185   9.153   9.659  0.2290  0.1906  0.2950
48809SOL    HW251748   6.058   9.208   9.720  0.8917  0.7570  1.1914
48810SOL     OW51749   8.636   5.815   5.502 -0.1243 -0.2604  0.0853
48810SOL    HW151750   8.712   5.872   5.514  0.1122 -0.8258  1.4797
48810SOL    HW251751   8.650   5.772   5.418  0.1089  1.0875 -0.5939
48811SOL     OW51752  10.177  11.824   3.835 -0.2563 -0.0547  0.2855
48811SOL    HW151753  10.172  11.787   3.746  1.7439  0.4808 -0.0953
48811SOL    HW251754  10.181  11.919   3.821 -1.0054  0.1010  1.0321
48812SOL     OW51755   4.135   8.339   1.913  0.4166  0.2225 -0.6866
48812SOL    HW151756   4.188   8.391   1.853  1.0778 -1.4793 -1.6553
48812SOL    HW251757   4.093   8.273   1.857  1.3451 -1.6495  0.6985
48813SOL     OW51758   2.008  10.220  11.085 -0.0558 -0.0415 -0.1672
48813SOL    HW151759   2.064  10.179  11.019  0.4329  2.4618 -1.4274
48813SOL    HW251760   1.931  10.163  11.090  1.2468 -1.9292 -0.6106
48814SOL     OW51761   9.463   5.866   4.439  0.2431 -0.5769  0.3897
48814SOL    HW151762   9.373   5.872   4.470  0.5126 -0.7339  1.2542
48814SOL    HW251763   9.516   5.884   4.517  0.9555 -1.6424  0.1762
48815SOL     OW51764   9.211   0.396   5.999  0.1418 -0.1900  0.1436
48815SOL    HW151765   9.200   0.420   6.091  0.7097  0.8467 -0.0366
48815SOL    HW251766   9.122   0.396   5.963 -0.0284  0.0115  0.5557
48816SOL     OW51767   5.987   6.697   7.670 -0.1009 -0.3228  0.3557
48816SOL    HW151768   5.948   6.668   7.587 -0.3614 -0.1125  0.4023
48816SOL    HW251769   6.079   6.712   7.649 -0.1421 -0.3722  0.1296
48817SOL     OW51770   2.813   3.913   5.870  0.1441 -0.4377 -0.0987
48817SOL    HW151771   2.814   3.841   5.932  0.0916 -0.5448 -0.2218
48817SOL    HW251772   2.891   3.964   5.891 -0.4558  0.1385  0.7706
48818SOL     OW51773   9.899   3.644   0.798  0.5037 -0.0514 -0.4308
48818SOL    HW151774   9.891   3.737   0.820 -0.6281 -0.2317  0.0292
48818SOL    HW251775   9.816   3.624   0.754  1.3218 -0.5204 -1.8268
48819SOL     OW51776  10.340   7.314   2.600 -0.0570 -0.0942  0.7478
48819SOL    HW151777  10.369   7.405   2.591 -0.4465  0.1056  1.4910
48819SOL    HW251778  10.292   7.297   2.518  3.1977 -0.8790 -1.1901
48820SOL     OW51779   8.664   8.946   0.744 -0.2403  0.0415 -0.3602
48820SOL    HW151780   8.744   8.895   0.734  0.1813  0.7578 -0.7612
48820SOL    HW251781   8.611   8.897   0.807  1.8320  1.1120  2.4083
48821SOL     OW51782   0.449   8.258   4.779  0.3899 -0.5228 -0.2074
48821SOL    HW151783   0.505   8.260   4.702 -0.4350  1.3326 -0.7975
48821SOL    HW251784   0.403   8.174   4.773 -0.0481 -0.1822 -2.0139
48822SOL     OW51785  10.486   3.358   6.281  0.2440  0.5447  0.0840
48822SOL    HW151786  10.537   3.415   6.339  1.8150 -1.9148  1.2787
48822SOL    HW251787  10.440   3.299   6.341  2.4441 -2.5256 -1.0129
48823SOL     OW51788   3.992   3.887   9.966 -0.0391  0.4030  0.1340
48823SOL    HW151789   3.945   3.939  10.031 -1.9648  0.1169 -0.9589
48823SOL    HW251790   4.079   3.927   9.962 -1.2976  3.3996 -0.4037
48824SOL     OW51791   2.795   9.755   5.181  0.2279  0.0761  0.8608
48824SOL    HW151792   2.731   9.785   5.116  0.6120  0.9984  0.8856
48824SOL    HW251793   2.879   9.758   5.135  0.0091 -4.3577 -0.2880
48825SOL     OW51794   9.473   8.271   6.151  0.2815  0.0299  0.5743
48825SOL    HW151795   9.503   8.240   6.236  2.0985 -0.2423 -0.1152
48825SOL    HW251796   9.492   8.199   6.091 -3.1000 -0.7397  0.2104
48826SOL     OW51797   7.360   3.772   9.490 -0.3921  0.1627 -0.2302
48826SOL    HW151798   7.439   3.739   9.534 -1.2651 -0.7080  0.7338
48826SOL    HW251799   7.367   3.867   9.497  0.6730  0.1132 -0.3576
48827SOL     OW51800   5.022   7.960   9.727 -0.1259 -0.2506  0.1984
48827SOL    HW151801   4.978   7.977   9.644  0.4012 -0.1841 -0.0688
48827SOL    HW251802   4.980   7.881   9.761 -0.9041  0.1865  0.2666
48828SOL     OW51803   9.678   8.932   6.150  0.1992  0.9023 -0.3541
48828SOL    HW151804   9.770   8.911   6.163  0.3742  1.5000 -0.6114
48828SOL    HW251805   9.632   8.849   6.167  0.6132  1.0144  1.6206
48829SOL     OW51806  10.290   9.053   0.496 -0.0756 -0.1618  1.0865
48829SOL    HW151807  10.210   9.014   0.533  0.4901 -1.0940  1.3791
48829SOL    HW251808  10.309   8.999   0.419 -0.4035  0.8373  0.2835
48830SOL     OW51809   9.816   7.596   3.794 -0.1354 -0.0152  0.0299
48830SOL    HW151810   9.813   7.616   3.700  1.4801  0.5794  0.0817
48830SOL    HW251811   9.769   7.668   3.836  0.1837  0.3559 -0.2435
48831SOL     OW51812   5.473   1.485  11.558  0.4681 -0.3921  0.4543
48831SOL    HW151813   5.550   1.513  11.607  0.5836  1.2753 -0.5899
48831SOL    HW251814   5.399   1.518  11.608  0.5184 -0.1334  0.3581
48832SOL     OW51815   6.098   0.556   7.900  0.3120 -0.3446  0.5885
48832SOL    HW151816   6.120   0.610   7.976  1.8915 -0.3482  0.1825
48832SOL    HW251817   6.016   0.513   7.924 -1.7113  3.0657  0.4794
48833SOL     OW51818   4.869   7.118   1.035 -0.2819  0.0572  0.5523
48833SOL    HW151819   4.948   7.152   1.078  0.3577  1.7360 -1.7359
48833SOL    HW251820   4.901   7.054   0.972 -0.9128 -0.3740  0.6592
48834SOL     OW51821   2.641   9.767   6.882  0.4030 -0.2798 -0.3933
48834SOL    HW151822   2.593   9.743   6.961  0.1720 -0.7423 -0.6663
48834SOL    HW251823   2.573   9.791   6.819  0.5751 -0.1410 -0.5263
48835SOL     OW51824   5.754  10.682   4.753 -0.3046  0.0723 -0.4391
48835SOL    HW151825   5.787  10.732   4.828  0.7894  0.8021 -1.3753
48835SOL    HW251826   5.685  10.737   4.716 -0.6201 -0.1396 -0.1772
48836SOL     OW51827   3.900   6.293   0.207 -0.1042  0.0487  0.4246
48836SOL    HW151828   3.955   6.287   0.285 -1.5618 -1.1387  1.4231
48836SOL    HW251829   3.843   6.369   0.223  0.8407  0.9450 -0.3596
48837SOL     OW51830   7.103   0.319   4.456 -0.1542 -0.0138 -0.3183
48837SOL    HW151831   7.084   0.305   4.549 -1.9249 -1.5936 -0.8590
48837SOL    HW251832   7.154   0.243   4.430 -0.6211 -0.1507 -0.8636
48838SOL     OW51833   8.908   3.787   5.799  0.3097  0.5238  0.2989
48838SOL    HW151834   8.896   3.845   5.873 -0.9668  0.4394  0.1752
48838SOL    HW251835   8.827   3.795   5.748  1.2218  0.7269 -1.1903
48839SOL     OW51836   4.562   7.625   2.755  0.0518  0.0993 -0.0058
48839SOL    HW151837   4.585   7.638   2.663 -1.4010 -1.1521 -0.5995
48839SOL    HW251838   4.466   7.619   2.754  0.0926 -3.9977  0.9034
48840SOL     OW51839   1.201   0.283   1.550  0.4945  0.6288  0.4892
48840SOL    HW151840   1.195   0.224   1.625  0.9857  0.1044  0.1219
48840SOL    HW251841   1.162   0.234   1.477 -0.8289  1.4845  0.5858
48841SOL     OW51842   9.105   2.053   5.634  0.3187  0.0993 -0.1370
48841SOL    HW151843   9.148   1.975   5.670  1.0252  0.4328 -0.2290
48841SOL    HW251844   9.128   2.052   5.541 -1.2932 -0.6254 -0.5592
48842SOL     OW51845   3.318   1.190   1.920  0.5246 -0.1117  0.4058
48842SOL    HW151846   3.231   1.223   1.940  0.4938  0.1801 -0.1842
48842SOL    HW251847   3.303   1.102   1.885  0.3294  0.4934 -1.1005
48843SOL     OW51848   3.573  10.956   4.312 -0.2671 -0.1899  0.1912
48843SOL    HW151849   3.657  10.995   4.337  0.8244 -1.6474 -1.0224
48843SOL    HW251850   3.507  11.010   4.356  1.2641  1.4464  0.5761
48844SOL     OW51851  11.734   9.702   0.045 -0.3480  0.0678 -0.0662
48844SOL    HW151852  11.807   9.644   0.026 -1.4207 -0.9792 -1.1703
48844SOL    HW251853  11.657   9.645   0.047 -1.2041  1.1798  0.7294
48845SOL     OW51854   8.647  10.642   7.910  0.0837 -0.0105 -0.0273
48845SOL    HW151855   8.710  10.697   7.958 -0.2948  0.4440 -0.0480
48845SOL    HW251856   8.562  10.681   7.929 -0.1649 -0.4308 -0.2660
48846SOL     OW51857   1.848   9.189   0.189  0.1889 -0.2532 -0.5032
48846SOL    HW151858   1.875   9.104   0.155 -1.0570 -0.8582 -0.0376
48846SOL    HW251859   1.909   9.207   0.261  2.8801  1.0496 -2.8464
48847SOL     OW51860   3.161   7.371   8.297  0.1083  0.6483 -0.5766
48847SOL    HW151861   3.113   7.451   8.321 -0.7848  0.6802 -2.3285
48847SOL    HW251862   3.120   7.342   8.216  0.6982 -1.3748 -0.2099
48848SOL     OW51863   7.194   4.910   5.507  0.4418  0.2982 -0.0928
48848SOL    HW151864   7.149   4.935   5.425 -0.0871  1.2925  0.4720
48848SOL    HW251865   7.186   4.815   5.511  1.6132  0.0783 -1.8342
48849SOL     OW51866   7.457   3.820   8.190  0.0590  0.1359 -0.2994
48849SOL    HW151867   7.379   3.857   8.149 -1.8764 -0.9378  2.0990
48849SOL    HW251868   7.483   3.747   8.133 -0.2974  0.8733 -1.4313
48850SOL     OW51869   7.926  11.135   6.159  0.5359  1.0974 -0.1320
48850SOL    HW151870   7.918  11.220   6.203  0.6454  0.4542  1.1980
48850SOL    HW251871   7.837  11.100   6.157  0.4210  1.4372 -1.0957
48851SOL     OW51872   3.488   2.678   8.420 -0.4724 -0.7426  1.1509
48851SOL    HW151873   3.544   2.746   8.381 -3.4979  0.4508 -1.6078
48851SOL    HW251874   3.449   2.719   8.497 -1.3888  0.3445  0.1531
48852SOL     OW51875   8.593   6.653  11.363 -0.1472  0.3821 -0.2453
48852SOL    HW151876   8.614   6.591  11.294 -0.5513  0.8833 -0.8271
48852SOL    HW251877   8.678   6.676  11.402 -0.0170 -0.7427  0.1765
48853SOL     OW51878   1.939   7.356   6.937  0.0604  0.1351  0.3963
48853SOL    HW151879   2.008   7.311   6.888 -0.1728 -0.7226  0.8361
48853SOL    HW251880   1.973   7.445   6.950 -0.7229  1.0682 -3.0324
48854SOL     OW51881   4.555   6.276   9.960 -0.3704  0.2840  0.1923
48854SOL    HW151882   4.546   6.365   9.927 -1.1875 -0.1933 -0.9249
48854SOL    HW251883   4.475   6.232   9.932  0.7021 -1.2282 -0.6079
48855SOL     OW51884   1.442  10.117   5.474  0.0690 -0.3540 -0.1249
48855SOL    HW151885   1.495  10.038   5.467 -0.0716 -0.6339  1.5918
48855SOL    HW251886   1.404  10.113   5.562  0.5729  1.9418  0.2540
48856SOL     OW51887   3.527   1.826   1.423  0.3925  0.0734  0.4827
48856SOL    HW151888   3.481   1.745   1.444  1.1696 -0.4565  0.1646
48856SOL    HW251889   3.466   1.896   1.450  0.4227 -0.5790  2.3839
48857SOL     OW51890   8.000   3.227   9.874 -0.1041 -0.5279 -0.2982
48857SOL    HW151891   8.079   3.180   9.899  0.8674  1.5017  0.6458
48857SOL    HW251892   8.015   3.253   9.783  0.3225 -0.1689 -0.1286
48858SOL     OW51893   9.063   3.951   6.431 -0.3792  0.8185 -0.2283
48858SOL    HW151894   8.985   4.006   6.429  0.3221  1.8305 -0.3017
48858SOL    HW251895   9.066   3.918   6.521  0.2049  2.4285  0.3816
48859SOL     OW51896   4.216   6.360  11.425 -0.0049 -0.1953 -0.1723
48859SOL    HW151897   4.234   6.337  11.516  0.7107  0.8013 -0.0469
48859SOL    HW251898   4.214   6.455  11.424 -3.3119 -0.1469 -0.6007
48860SOL     OW51899  10.558  10.443  11.148  0.8377 -0.1251  0.2261
48860SOL    HW151900  10.515  10.364  11.114 -0.1340  0.6136 -0.2932
48860SOL    HW251901  10.490  10.510  11.148  1.0546  0.1998  2.6588
48861SOL     OW51902   0.370   1.113  11.628 -0.0816  0.9472 -0.6592
48861SOL    HW151903   0.375   1.140  11.537  1.3025  1.8778 -0.3401
48861SOL    HW251904   0.459   1.085  11.650 -0.1471  1.6740  0.6566
48862SOL     OW51905   9.527   0.887   8.151 -0.2285 -0.1693 -0.4860
48862SOL    HW151906   9.565   0.840   8.226 -0.9347 -2.0006 -1.2087
48862SOL    HW251907   9.538   0.827   8.078 -0.2485  1.2724 -1.7203
48863SOL     OW51908  10.695  10.539   3.728  0.5578 -0.8475  0.1190
48863SOL    HW151909  10.642  10.471   3.685  0.1322 -1.0655  0.9627
48863SOL    HW251910  10.657  10.622   3.697  1.2874 -0.9620 -1.1749
48864SOL     OW51911  10.929   3.006   6.075 -0.3268 -0.3337  0.2192
48864SOL    HW151912  10.942   3.099   6.054 -0.7263 -0.3349 -0.0555
48864SOL    HW251913  10.959   2.997   6.165 -0.8822  0.1997  0.4643
48865SOL     OW51914   4.725   0.041   0.006  0.2795  0.2143  0.4760
48865SOL    HW151915   4.672   0.046   0.086  1.5500  0.0525  1.3553
48865SOL    HW251916   4.803  -0.006   0.032 -0.4309 -2.3067 -1.5259
48866SOL     OW51917   0.291   6.694   6.861  0.2904  0.1936 -0.2811
48866SOL    HW151918   0.343   6.642   6.799 -0.6613 -1.8773  0.5693
48866SOL    HW251919   0.202   6.692   6.825  0.1002  0.6179  0.1525
48867SOL     OW51920   3.030   2.293   6.200  0.1581  0.6951 -0.2376
48867SOL    HW151921   2.970   2.233   6.244 -0.6482  1.6354 -0.0285
48867SOL    HW251922   3.029   2.266   6.109  1.8088 -1.2463  0.2275
48868SOL     OW51923  11.778  10.156   4.020  0.1443  0.0178 -0.2004
48868SOL    HW151924  11.799  10.079   3.967  0.4326  0.6548 -1.0235
48868SOL    HW251925  11.740  10.119   4.101 -0.4431 -0.9661 -0.8930
48869SOL     OW51926   0.565   3.969  10.539 -0.1653  0.0630 -0.3769
48869SOL    HW151927   0.614   3.892  10.567 -0.6219 -0.2392 -0.3969
48869SOL    HW251928   0.607   4.042  10.584  0.8058 -0.0849 -1.0084
48870SOL     OW51929   6.260   6.195   9.377  0.4770 -0.3779  0.2568
48870SOL    HW151930   6.264   6.161   9.287 -2.0566  1.0980 -0.5074
48870SOL    HW251931   6.327   6.145   9.424  1.2827 -1.8276 -2.2269
48871SOL     OW51932   6.665   5.698  11.543  0.1575  0.8261 -0.6399
48871SOL    HW151933   6.719   5.743  11.478  0.7945  0.2949 -0.4911
48871SOL    HW251934   6.598   5.762  11.567  0.5927  1.4243 -0.9864
48872SOL     OW51935   6.780   8.874   6.377  0.1187  0.2766 -0.3074
48872SOL    HW151936   6.794   8.785   6.345 -0.1088 -0.0398  0.4415
48872SOL    HW251937   6.690   8.894   6.352  0.6860  0.9261 -1.9113
48873SOL     OW51938   0.513   5.761   9.812  0.0730  0.7013  0.7826
48873SOL    HW151939   0.461   5.693   9.768  0.1502  0.2883  1.3152
48873SOL    HW251940   0.547   5.717   9.890  1.0849  1.0133  0.5350
48874SOL     OW51941   1.969   3.762   6.023 -0.1378 -0.1665  0.3233
48874SOL    HW151942   1.881   3.795   6.010  0.1288  0.9554  1.2120
48874SOL    HW251943   2.001   3.741   5.935 -1.1574 -0.2754 -0.0267
48875SOL     OW51944   1.387   2.277   3.941  0.4571  0.6343  0.0290
48875SOL    HW151945   1.390   2.195   3.893 -1.2561  0.6673 -0.2099
48875SOL    HW251946   1.347   2.254   4.025 -1.4426  1.3953 -0.5920
48876SOL     OW51947  10.904  10.057   2.202 -0.4472 -0.6220  0.6488
48876SOL    HW151948  10.885  10.134   2.149 -0.1894 -0.6791  0.4690
48876SOL    HW251949  10.842   9.991   2.171  0.7730 -1.1845 -0.7809
48877SOL     OW51950   8.083   1.364   8.404 -0.2816  0.3325 -0.1988
48877SOL    HW151951   8.001   1.388   8.447  0.5442 -0.9537  2.3470
48877SOL    HW251952   8.133   1.445   8.399 -0.7419  0.6742  0.6085
48878SOL     OW51953  10.071   1.422   6.403  0.3034 -0.2599 -0.2627
48878SOL    HW151954  10.030   1.338   6.427 -0.0204 -0.5694 -1.8145
48878SOL    HW251955  10.157   1.419   6.446  0.4895 -1.6078 -0.6660
48879SOL     OW51956   2.368   2.444  10.029 -0.2410 -0.5483  0.0852
48879SOL    HW151957   2.349   2.357  10.064 -2.5758 -0.3435 -0.5312
48879SOL    HW251958   2.406   2.427   9.943 -1.8620 -1.0145 -0.5875
48880SOL     OW51959   6.820   0.027   6.589  0.0836  0.1571 -0.2241
48880SOL    HW151960   6.749  -0.015   6.540  0.3603 -0.4846 -0.0890
48880SOL    HW251961   6.895   0.023   6.529  0.4436 -0.6953  0.2712
48881SOL     OW51962   7.003   1.498   7.451  0.1585 -0.2479 -0.6370
48881SOL    HW151963   7.037   1.444   7.523 -1.6509  1.0332  1.3008
48881SOL    HW251964   7.077   1.552   7.424  1.2032 -1.6036 -0.5937
48882SOL     OW51965  11.308   6.731   9.577 -0.8176  0.2658  0.1596
48882SOL    HW151966  11.334   6.656   9.522 -0.7177 -1.0808  1.9672
48882SOL    HW251967  11.221   6.708   9.610  0.2348 -0.3234  2.7701
48883SOL     OW51968   9.421   6.611   1.198 -0.0270 -0.3026  0.0837
48883SOL    HW151969   9.355   6.541   1.195 -0.3931 -0.0959  1.9878
48883SOL    HW251970   9.397   6.663   1.275  0.7824  1.3982 -0.7621
48884SOL     OW51971   1.839   5.944  11.152  0.3406 -0.0466 -0.5494
48884SOL    HW151972   1.916   5.934  11.207  1.1522 -0.1280 -1.6490
48884SOL    HW251973   1.774   5.985  11.208  1.0028 -0.4822  0.5647
48885SOL     OW51974   2.703   7.002  11.592  0.2123 -0.1533  0.3881
48885SOL    HW151975   2.643   6.950  11.538  0.0237  0.6316 -0.1824
48885SOL    HW251976   2.646   7.064  11.637  0.7058  1.6134 -1.3098
48886SOL     OW51977   5.478  10.158   8.429  0.2316 -0.2735  0.3935
48886SOL    HW151978   5.403  10.113   8.468 -3.1339  3.4013 -1.1959
48886SOL    HW251979   5.490  10.117   8.344 -0.0617 -0.7979  0.6048
48887SOL     OW51980   6.375   5.293   2.990 -0.3207 -0.1920 -0.1307
48887SOL    HW151981   6.377   5.364   3.054 -0.3942 -0.5690  0.2945
48887SOL    HW251982   6.285   5.260   2.993 -0.5827  0.3686 -1.0855
48888SOL     OW51983   5.934   4.230   3.794  0.3278 -0.1754  0.0461
48888SOL    HW151984   5.902   4.173   3.725  1.3355  0.0708 -0.6422
48888SOL    HW251985   5.983   4.173   3.853  0.5648 -0.1775 -0.1508
48889SOL     OW51986   8.833   1.432   2.525 -0.3487  0.0507  0.0808
48889SOL    HW151987   8.852   1.490   2.452 -1.1575 -1.9402 -1.8333
48889SOL    HW251988   8.907   1.371   2.527 -0.9451 -0.6800  0.1001
48890SOL     OW51989   3.057   9.340   4.647 -0.2657 -0.0806 -0.3706
48890SOL    HW151990   3.152   9.346   4.650 -0.2506 -0.4420 -0.0105
48890SOL    HW251991   3.033   9.369   4.559  0.3583 -2.2800 -1.3306
48891SOL     OW51992   1.400   6.831   1.859 -0.0199 -0.0159 -0.4932
48891SOL    HW151993   1.458   6.854   1.931 -2.4463  0.6739  1.3519
48891SOL    HW251994   1.415   6.899   1.794  1.6596 -0.2200 -0.3799
48892SOL     OW51995  11.254   8.081   3.080  0.1452  0.4082  0.2047
48892SOL    HW151996  11.259   8.043   3.167 -2.7159  0.2003  0.3490
48892SOL    HW251997  11.267   8.007   3.021  1.1604  0.4000  0.4118
48893SOL     OW51998   3.544   8.728   5.695  0.3026 -0.1619  0.1930
48893SOL    HW151999   3.574   8.784   5.623  0.3487  0.1678  0.4674
48893SOL    HW252000   3.624   8.701   5.739  0.3071 -0.7470 -0.1555
48894SOL     OW52001   2.257   2.953   5.835  0.1239 -0.5880  0.0069
48894SOL    HW152002   2.220   2.865   5.840  1.2706 -1.0769  0.1238
48894SOL    HW252003   2.254   2.985   5.925 -0.0222 -0.6155  0.0131
48895SOL     OW52004   0.029   9.477   3.402 -0.2263  0.2139 -0.4672
48895SOL    HW152005  -0.034   9.500   3.471  0.8689 -0.0257  0.6514
48895SOL    HW252006   0.039   9.558   3.352 -1.1584  0.3478 -0.4683
48896SOL     OW52007   9.717  10.985   6.656  0.2354  0.3015  0.0125
48896SOL    HW152008   9.725  10.987   6.561  0.1364  1.7478  0.0114
48896SOL    HW252009   9.657  10.913   6.674 -3.0579  2.5148 -1.2877
48897SOL     OW52010  11.324   2.223   9.440 -0.2071 -0.4311 -0.8072
48897SOL    HW152011  11.353   2.159   9.375 -0.3135  0.1048 -1.3847
48897SOL    HW252012  11.254   2.179   9.488  2.0958 -2.1372  1.2662
48898SOL     OW52013   2.970   6.277   9.265 -0.1191 -0.5046 -0.0238
48898SOL    HW152014   2.995   6.345   9.328 -1.4534  0.3302 -0.3758
48898SOL    HW252015   2.986   6.317   9.179  1.2682 -1.4791 -0.2498
48899SOL     OW52016   0.245   9.524   9.136 -0.2100 -0.2256 -0.2593
48899SOL    HW152017   0.265   9.442   9.092 -0.4563 -0.4112 -0.0261
48899SOL    HW252018   0.327   9.547   9.181 -0.7742 -1.4971  1.5105
48900SOL     OW52019   0.271   5.472   5.948  0.3538  0.1350  0.4038
48900SOL    HW152020   0.267   5.545   5.886 -0.5811  0.9554  1.3887
48900SOL    HW252021   0.179   5.448   5.963  0.5789 -0.2703  1.1975
48901SOL     OW52022   0.715   3.744   7.448  0.1676  0.8790 -0.0795
48901SOL    HW152023   0.646   3.715   7.389  0.4922  0.3727 -0.2139
48901SOL    HW252024   0.736   3.667   7.501 -1.1793  1.7039  1.7726
48902SOL     OW52025   1.038   3.405   6.079  0.1031  0.2691 -0.1456
48902SOL    HW152026   0.984   3.405   6.158  0.9203 -1.2000  0.4381
48902SOL    HW252027   1.093   3.484   6.088  0.9276 -0.4235  1.2934
48903SOL     OW52028  10.152   0.252   9.417 -0.4860  0.1185 -0.4453
48903SOL    HW152029  10.093   0.309   9.368 -1.4641 -0.5522 -0.0980
48903SOL    HW252030  10.200   0.203   9.350 -2.4855 -1.4789 -0.7969
48904SOL     OW52031   5.188   4.259   4.533  0.6124  0.4029  0.4106
48904SOL    HW152032   5.102   4.299   4.544  1.3229  1.9185  0.6445
48904SOL    HW252033   5.231   4.312   4.467  1.1893 -0.6737 -0.1051
48905SOL     OW52034   6.522   9.523  11.057 -0.1298  0.1153  0.8629
48905SOL    HW152035   6.560   9.535  10.970  0.1995 -0.3082  0.9475
48905SOL    HW252036   6.488   9.610  11.080  0.8311  0.5222  0.8145
48906SOL     OW52037   5.975   2.390   2.571  0.0472  0.2424  0.2783
48906SOL    HW152038   5.985   2.295   2.564 -1.0038 -0.1266  2.9237
48906SOL    HW252039   5.881   2.406   2.562  0.0425  0.8578  1.2504
48907SOL     OW52040   5.082  11.453   0.964  0.0177  0.0243 -0.7046
48907SOL    HW152041   5.141  11.403   1.020 -1.0379 -1.1108 -0.5659
48907SOL    HW252042   5.041  11.387   0.907  0.6414  1.0725 -2.4507
48908SOL     OW52043   4.100   5.450   8.754 -0.0396 -0.6423  0.2351
48908SOL    HW152044   4.102   5.527   8.812  1.0060 -1.6639  1.6197
48908SOL    HW252045   4.172   5.463   8.693 -0.7425  0.1247 -0.4654
48909SOL     OW52046   1.833   9.827   3.430  0.4259 -0.2885 -0.3004
48909SOL    HW152047   1.826   9.892   3.359  1.9909 -0.8737 -1.0231
48909SOL    HW252048   1.799   9.746   3.392 -1.1127 -0.0388  0.4635
48910SOL     OW52049   9.263   0.682   6.629 -0.4775  0.3467  0.0352
48910SOL    HW152050   9.254   0.626   6.552 -0.8834  0.4464  0.0065
48910SOL    HW252051   9.175   0.685   6.667 -0.5334  1.1808 -0.1221
48911SOL     OW52052   0.594   2.212   0.355  0.1062  0.6421 -0.5471
48911SOL    HW152053   0.671   2.159   0.337  0.0913  0.3830  0.1221
48911SOL    HW252054   0.531   2.151   0.394  0.1666  1.1807  0.4311
48912SOL     OW52055   2.959   5.124   0.368 -0.2087  0.1774  0.3326
48912SOL    HW152056   2.871   5.162   0.371  0.3428  1.4769  0.8581
48912SOL    HW252057   2.947   5.035   0.400 -1.0369  0.9774  2.4925
48913SOL     OW52058  10.087   4.190   8.892 -0.4106 -0.6603 -0.6424
48913SOL    HW152059  10.090   4.228   8.804 -0.1231  0.3203 -0.2193
48913SOL    HW252060  10.059   4.262   8.949 -0.9815 -1.3853  0.0234
48914SOL     OW52061   0.056   8.057  11.565  0.2986  0.0424 -0.1135
48914SOL    HW152062   0.043   8.032  11.474  0.9489 -1.1367  0.0973
48914SOL    HW252063   0.151   8.071  11.573 -0.0214  2.7208 -0.2243
48915SOL     OW52064   3.668   1.010  10.852  0.0812  0.4435  0.1513
48915SOL    HW152065   3.711   1.035  10.770  1.4392 -0.0769  0.6766
48915SOL    HW252066   3.669   0.914  10.851  0.9887  0.4182  1.1941
48916SOL     OW52067   0.224   7.584  11.660 -0.2757  0.5916  0.2893
48916SOL    HW152068   0.158   7.613  11.723 -0.0522 -1.0063  1.3048
48916SOL    HW252069   0.293   7.545  11.713  0.1653 -0.3074 -0.9007
48917SOL     OW52070   9.699   0.475  10.301  0.1810 -0.6780 -0.3383
48917SOL    HW152071   9.704   0.567  10.274 -2.3751 -0.2101  0.4604
48917SOL    HW252072   9.762   0.468  10.373  0.0521  0.5938 -0.0721
48918SOL     OW52073  11.816   8.828  11.542  0.3573  0.0724  0.4672
48918SOL    HW152074  11.826   8.882  11.620  1.3503 -0.8337  1.0052
48918SOL    HW252075  11.801   8.740  11.576  0.3419 -0.2576 -0.3700
48919SOL     OW52076   4.972   4.663   3.674  0.1198 -0.3651  0.2250
48919SOL    HW152077   5.062   4.695   3.671  0.1189 -0.4024 -1.9187
48919SOL    HW252078   4.970   4.592   3.609 -1.1749 -1.1652  1.0950
48920SOL     OW52079   3.908   7.713   4.239 -0.4806  0.3893 -0.1717
48920SOL    HW152080   3.924   7.797   4.280  1.8543  0.5317 -1.2224
48920SOL    HW252081   3.941   7.723   4.150 -0.7900 -1.4290 -0.5315
48921SOL     OW52082   3.111  11.184   3.763  0.4169 -0.0503 -0.0915
48921SOL    HW152083   3.118  11.101   3.717  0.1208 -1.0526  1.5707
48921SOL    HW252084   3.117  11.160   3.856 -3.0872  1.3498  0.6370
48922SOL     OW52085   1.312   7.923   7.477 -0.6151 -0.5242  0.2877
48922SOL    HW152086   1.294   7.920   7.571  1.6962  1.2969  0.8666
48922SOL    HW252087   1.299   8.014   7.453 -0.1407 -0.7651 -0.9275
48923SOL     OW52088   4.951  11.763   0.151  0.2661  0.4696 -0.3555
48923SOL    HW152089   4.992  11.677   0.160  3.2052  1.5424 -2.2891
48923SOL    HW252090   4.962  11.804   0.236  0.4545 -0.3864  0.0454
48924SOL     OW52091   7.989   5.637   7.744 -0.0761 -0.4979 -1.0385
48924SOL    HW152092   7.977   5.546   7.770  0.8657  0.2508  2.5575
48924SOL    HW252093   7.926   5.686   7.797  1.8725  1.2062 -0.1475
48925SOL     OW52094   1.297   5.608  11.581 -0.4468 -0.7662  0.2201
48925SOL    HW152095   1.260   5.662  11.511  0.5206 -2.0604 -1.3778
48925SOL    HW252096   1.282   5.658  11.661  1.2231  2.3074 -1.2259
48926SOL     OW52097   9.268   5.548   6.193 -0.3773 -0.5301  0.7743
48926SOL    HW152098   9.253   5.527   6.101 -0.7635  0.4622  0.6096
48926SOL    HW252099   9.184   5.531   6.235 -1.0608  1.7482  0.4346
48927SOL     OW52100  10.475   0.949  10.033 -0.2048 -0.1744 -0.0555
48927SOL    HW152101  10.407   0.933   9.968 -2.5211  1.0656  1.8766
48927SOL    HW252102  10.535   1.010   9.990 -1.7871  0.7976 -0.9827
48928SOL     OW52103  11.643   8.458   2.958 -0.7046 -0.4347 -0.0624
48928SOL    HW152104  11.636   8.450   3.053  0.0623  0.0790  0.0447
48928SOL    HW252105  11.721   8.512   2.944 -0.4991 -0.9489 -0.9967
48929SOL     OW52106  11.597   0.085   1.770  0.0968 -0.4945  0.3693
48929SOL    HW152107  11.689   0.058   1.771  1.8566  4.4098 -1.6090
48929SOL    HW252108  11.565   0.057   1.684 -0.0289 -1.4394  0.7133
48930SOL     OW52109   6.580   5.372   3.481 -0.1503  0.3762 -0.1636
48930SOL    HW152110   6.514   5.399   3.544  0.9240 -1.3454  1.8066
48930SOL    HW252111   6.640   5.446   3.474 -0.1644  0.5041  1.0228
48931SOL     OW52112   8.605  11.138   8.536 -0.1335 -0.0040  0.1296
48931SOL    HW152113   8.534  11.201   8.528  0.2027  0.4894  0.8473
48931SOL    HW252114   8.685  11.192   8.534  0.2179 -0.5420 -0.6358
48932SOL     OW52115   9.792   8.112   2.572 -0.1388 -0.3458  0.5855
48932SOL    HW152116   9.798   8.085   2.664  0.4724 -0.6268  0.4683
48932SOL    HW252117   9.704   8.148   2.563 -0.7665 -1.7344  0.9138
48933SOL     OW52118   4.888   2.402   3.427  0.3429  0.6392  0.8667
48933SOL    HW152119   4.979   2.374   3.429  0.1181 -0.3686 -0.7156
48933SOL    HW252120   4.838   2.320   3.431 -0.4016  0.9814 -0.6624
48934SOL     OW52121   4.831   1.916   3.788 -0.1632  0.1619  0.3155
48934SOL    HW152122   4.909   1.886   3.741 -0.9119  0.3855 -1.1441
48934SOL    HW252123   4.864   1.973   3.857  1.0566 -1.1560  0.8511
48935SOL     OW52124   8.131   7.197  10.761 -0.3892 -0.3712 -0.1630
48935SOL    HW152125   8.096   7.109  10.742  1.7373 -1.2722 -0.1954
48935SOL    HW252126   8.089   7.253  10.696 -0.7087 -1.6440 -1.1035
48936SOL     OW52127   1.645   3.757   5.770  0.1918 -0.1894  0.1929
48936SOL    HW152128   1.663   3.702   5.694  1.1033  2.8907 -1.9570
48936SOL    HW252129   1.722   3.814   5.778 -0.7665  0.9400  2.1951
48937SOL     OW52130   9.638  10.268   5.721 -0.3077 -0.1311  0.0575
48937SOL    HW152131   9.604  10.309   5.801  0.3205 -0.3323  0.4349
48937SOL    HW252132   9.627  10.334   5.653  0.5971  0.6241  0.6331
48938SOL     OW52133   5.825   1.048   7.732  0.1049  0.6035  0.1750
48938SOL    HW152134   5.866   1.034   7.818 -1.0498 -1.0144  0.5142
48938SOL    HW252135   5.744   0.997   7.736  0.5883 -0.4920 -2.3087
48939SOL     OW52136   6.419   3.962   4.604  0.0525  0.0784 -0.0919
48939SOL    HW152137   6.405   4.002   4.690  4.1510  0.3257  0.6989
48939SOL    HW252138   6.332   3.935   4.574 -2.0472  3.4456  2.3632
48940SOL     OW52139   6.757   3.396   5.233  0.2665  0.5700 -0.1874
48940SOL    HW152140   6.678   3.375   5.184 -0.3888 -0.9762  1.4223
48940SOL    HW252141   6.803   3.313   5.241  0.3770  0.7625  1.6791
48941SOL     OW52142   0.971   5.525   4.614  0.4325  0.4911 -0.0746
48941SOL    HW152143   0.959   5.528   4.709  1.0601 -1.4494  0.1157
48941SOL    HW252144   0.896   5.475   4.582 -0.8107  2.7370 -0.8815
48942SOL     OW52145   5.554   2.608   8.724 -0.3532 -0.4261 -0.4739
48942SOL    HW152146   5.562   2.542   8.655 -2.8077 -1.4661  0.1560
48942SOL    HW252147   5.469   2.649   8.709  0.1690  1.1060  0.4760
48943SOL     OW52148   8.030   6.136  11.332 -0.0451  0.1623  0.4940
48943SOL    HW152149   8.022   6.224  11.368 -2.8983  0.5374 -0.8236
48943SOL    HW252150   8.015   6.146  11.238 -2.4109 -1.8821  0.5461
48944SOL     OW52151   0.717   9.210   9.582 -0.2311  0.3379 -0.3184
48944SOL    HW152152   0.638   9.214   9.527 -0.9702  1.8942  0.7866
48944SOL    HW252153   0.763   9.292   9.563  0.6350 -0.1207 -0.2276
48945SOL     OW52154  11.324   3.026  10.735 -0.2181 -0.1522 -0.1022
48945SOL    HW152155  11.259   3.077  10.688 -1.9444 -2.2062 -0.1084
48945SOL    HW252156  11.406   3.042  10.689 -1.2623  0.2840 -1.8807
48946SOL     OW52157   2.717   9.012   9.568 -0.1130  0.2892  0.3024
48946SOL    HW152158   2.661   9.021   9.645 -1.7018 -0.8319 -0.6693
48946SOL    HW252159   2.735   9.102   9.541 -1.1431  0.6867  0.8812
48947SOL     OW52160   4.790   9.910   8.713  0.5017 -0.2218 -0.7200
48947SOL    HW152161   4.708   9.951   8.685  0.7914  0.0419 -1.1746
48947SOL    HW252162   4.813   9.956   8.794 -0.3953 -1.0665  0.0516
48948SOL     OW52163   8.651   5.893   5.846 -0.0162  0.5098  0.1394
48948SOL    HW152164   8.692   5.953   5.784 -0.6905  1.7783  0.8919
48948SOL    HW252165   8.563   5.880   5.813  0.1159 -0.0612 -0.0025
48949SOL     OW52166  10.218   1.319   4.564 -0.3668  0.0272  0.5970
48949SOL    HW152167  10.239   1.243   4.618 -0.4332  0.8453  1.8351
48949SOL    HW252168  10.131   1.302   4.530  0.3514 -1.2682 -0.6692
48950SOL     OW52169   0.626   7.538   3.657  0.6790 -0.0033 -0.5502
48950SOL    HW152170   0.575   7.492   3.590  0.3741  0.7344 -0.8306
48950SOL    HW252171   0.603   7.493   3.739 -0.5340  0.3866 -0.6557
48951SOL     OW52172   4.084   8.927   8.172  0.7299 -0.1114 -0.0804
48951SOL    HW152173   4.139   8.910   8.248  0.8521 -3.3094 -0.7088
48951SOL    HW252174   4.146   8.946   8.101  0.6638  1.7864  0.3171
48952SOL     OW52175   9.961   4.683   0.854 -0.0839  0.2081  0.0765
48952SOL    HW152176  10.047   4.689   0.895  0.5695 -1.7312 -0.8590
48952SOL    HW252177   9.903   4.649   0.923  0.4983 -0.8857  0.0487
48953SOL     OW52178   0.361   7.115   3.542  0.0499 -0.4034  0.2630
48953SOL    HW152179   0.379   7.034   3.591  1.0810 -0.0911  0.4229
48953SOL    HW252180   0.392   7.097   3.454  0.0823 -0.2504  0.2437
48954SOL     OW52181   5.588   6.773   6.771  0.2125 -0.7296  0.4124
48954SOL    HW152182   5.571   6.838   6.703  1.8764 -0.2208  0.4482
48954SOL    HW252183   5.683   6.772   6.781  0.3704 -3.8004 -0.2178
48955SOL     OW52184   2.702  11.476   6.722 -0.1458  0.0189 -0.2074
48955SOL    HW152185   2.797  11.478   6.733  0.1732  0.2036 -2.5224
48955SOL    HW252186   2.687  11.417   6.648 -1.7272  1.0258 -0.7560
48956SOL     OW52187   7.831   5.146  11.820  0.5796  0.2478  0.2129
48956SOL    HW152188   7.879   5.119  11.742 -1.5580  0.4145 -1.2718
48956SOL    HW252189   7.766   5.076  11.833  0.4122  0.6031  1.3810
48957SOL     OW52190   5.322   9.405   2.364 -0.2484  0.2457 -0.6221
48957SOL    HW152191   5.240   9.454   2.374  0.2891  1.5081 -1.9239
48957SOL    HW252192   5.341   9.409   2.271  0.4343 -1.5210 -0.5982
48958SOL     OW52193  10.124   7.737   6.294  0.0896  0.6503  0.4472
48958SOL    HW152194  10.185   7.773   6.358  0.0714  0.3341  0.6457
48958SOL    HW252195  10.079   7.813   6.257  0.9766  0.9219 -0.0846
48959SOL     OW52196   3.554   6.241   8.835  0.7246 -0.4181  0.4170
48959SOL    HW152197   3.563   6.148   8.814 -2.2281 -1.2990  2.4647
48959SOL    HW252198   3.465   6.264   8.809  1.3754  1.9210 -0.0666
48960SOL     OW52199   6.596   7.874   2.964  0.6173 -0.0562  0.4702
48960SOL    HW152200   6.504   7.877   2.989  1.0370 -1.5372  2.4685
48960SOL    HW252201   6.632   7.957   2.993  0.2281 -0.1110  1.1232
48961SOL     OW52202   7.990   3.619   0.791  0.3164  0.1664  0.4095
48961SOL    HW152203   8.044   3.540   0.795  0.7089  0.3258 -1.1084
48961SOL    HW252204   7.900   3.587   0.786  0.4667 -0.1901 -0.0883
48962SOL     OW52205  10.674   4.724   1.434 -0.0644  1.2465 -0.7948
48962SOL    HW152206  10.600   4.758   1.484 -0.0571  0.4581 -0.2304
48962SOL    HW252207  10.688   4.636   1.469  0.2856  0.8829 -1.8201
48963SOL     OW52208  11.086   8.620   5.492  0.1115 -0.0717  0.1557
48963SOL    HW152209  11.161   8.638   5.436 -0.0027 -1.2827 -0.4153
48963SOL    HW252210  11.045   8.542   5.453  0.5935 -1.5705  2.4488
48964SOL     OW52211   4.419   4.626   3.949  0.1151  0.2834 -0.1531
48964SOL    HW152212   4.354   4.571   3.993  0.0712  0.3106 -0.1834
48964SOL    HW252213   4.489   4.636   4.013  1.1688 -1.6669 -0.9369
48965SOL     OW52214   2.577   8.279  11.514  0.5434 -0.4655 -0.4443
48965SOL    HW152215   2.669   8.300  11.499  0.7537 -1.5748 -0.8692
48965SOL    HW252216   2.554   8.223  11.439 -0.9790  1.1991 -1.2933
48966SOL     OW52217   2.636  11.639  11.468 -0.0348  0.6631 -0.0908
48966SOL    HW152218   2.648  11.567  11.530  0.2464  1.3103  0.6191
48966SOL    HW252219   2.692  11.616  11.394  1.6735  1.1306  0.9972
48967SOL     OW52220   3.688  11.015  11.727 -0.4144  0.4379  0.3495
48967SOL    HW152221   3.773  11.057  11.736 -1.0282  1.6642  0.6368
48967SOL    HW252222   3.641  11.037  11.807 -1.7908  1.6843 -0.7413
48968SOL     OW52223   1.524   6.655   3.953  0.0071  0.4110 -0.6161
48968SOL    HW152224   1.592   6.645   3.886 -0.4076 -0.5313 -0.9059
48968SOL    HW252225   1.491   6.567   3.966  0.2587  0.5383  1.0268
48969SOL     OW52226   5.069   3.219   3.222  0.1003 -0.0694  0.3812
48969SOL    HW152227   5.145   3.222   3.281  0.0718  0.8202  0.3826
48969SOL    HW252228   5.052   3.311   3.201 -2.1479 -0.0816  1.8554
48970SOL     OW52229   9.253   8.226   7.329 -0.1657  0.3004 -0.0313
48970SOL    HW152230   9.163   8.246   7.304 -0.0172  2.0728  0.6749
48970SOL    HW252231   9.268   8.137   7.297 -1.7503  0.4279 -1.2557
48971SOL     OW52232   7.238   0.285   2.780  0.4947 -0.1740  0.6657
48971SOL    HW152233   7.257   0.274   2.873 -0.1673  0.3394  0.8656
48971SOL    HW252234   7.284   0.365   2.756  2.2564 -1.3065  0.0807
48972SOL     OW52235  10.475   0.630   7.599 -0.5163  0.0333  0.3081
48972SOL    HW152236  10.450   0.657   7.687 -2.6617  0.8373 -0.4859
48972SOL    HW252237  10.469   0.710   7.547 -0.0633 -0.5955 -0.7338
48973SOL     OW52238   4.900  10.864   4.350  0.5251  0.0804  0.2980
48973SOL    HW152239   4.987  10.871   4.310  0.2264  0.7528 -0.2469
48973SOL    HW252240   4.899  10.930   4.419  0.4770  0.0027  0.3727
48974SOL     OW52241   4.327   2.694  11.118  0.9364  0.1629  0.5301
48974SOL    HW152242   4.386   2.733  11.183  1.4893 -0.4426  0.4035
48974SOL    HW252243   4.300   2.611  11.158  0.5166  0.2259  0.3889
48975SOL     OW52244   6.113  11.809  10.474  0.1911  0.5278  0.3943
48975SOL    HW152245   6.169  11.855  10.411 -0.9679  0.4529 -0.7236
48975SOL    HW252246   6.061  11.749  10.420  0.4389 -0.8494  1.6362
48976SOL     OW52247   3.895   9.979  10.638 -0.3954  0.3822 -0.0967
48976SOL    HW152248   3.836   9.915  10.597  0.2133  0.2079 -0.7249
48976SOL    HW252249   3.837  10.034  10.691 -0.9901 -0.3848  0.0737
48977SOL     OW52250  10.730   1.927   8.799  0.0188 -0.6075 -0.0813
48977SOL    HW152251  10.805   1.984   8.820 -0.2778  0.1057 -0.9288
48977SOL    HW252252  10.766   1.839   8.807  0.6806 -0.3031  0.5393
48978SOL     OW52253   3.713   2.042   2.421 -0.4975  0.5396 -0.0154
48978SOL    HW152254   3.628   2.032   2.465  0.1184 -0.1148  1.0440
48978SOL    HW252255   3.733   2.135   2.430 -1.1404  0.7251 -0.3744
48979SOL     OW52256   1.628   5.411  11.769 -0.3866 -0.1195  0.9818
48979SOL    HW152257   1.582   5.495  11.769  2.7353  1.7337  0.3524
48979SOL    HW252258   1.613   5.376  11.681 -1.5801 -0.2124  1.2025
48980SOL     OW52259   7.769   2.494   0.590 -0.2119 -0.1589  0.1589
48980SOL    HW152260   7.698   2.551   0.618  0.6295  0.7765  0.4571
48980SOL    HW252261   7.772   2.504   0.495 -2.0108 -2.0827 -0.1901
48981SOL     OW52262   7.118   6.532   1.591  0.5949  0.4921 -0.1010
48981SOL    HW152263   7.023   6.531   1.582  0.5910 -1.3329 -0.2805
48981SOL    HW252264   7.134   6.543   1.684  0.1368 -0.8790  0.1647
48982SOL     OW52265   3.958   5.850   5.893 -0.6184  0.2167 -0.5141
48982SOL    HW152266   3.878   5.841   5.944  0.1321 -1.8413  0.4360
48982SOL    HW252267   3.975   5.762   5.859  1.8731  0.2340  0.4335
48983SOL     OW52268   7.339   8.001   4.322  0.3038 -0.3410  0.3762
48983SOL    HW152269   7.388   8.001   4.240  0.0823  0.7075  0.2246
48983SOL    HW252270   7.370   8.079   4.369 -0.5592 -0.1633  0.6707
48984SOL     OW52271   0.458   0.487  11.539 -0.0712  0.4112 -0.0414
48984SOL    HW152272   0.471   0.539  11.619  0.6633  0.5047 -0.2115
48984SOL    HW252273   0.506   0.535  11.472  1.3340 -0.8976 -0.0327
48985SOL     OW52274   4.729   9.048   8.431  0.0765  0.0272  0.2092
48985SOL    HW152275   4.681   9.063   8.512  1.6208  0.0141  1.1819
48985SOL    HW252276   4.721   9.129   8.381  0.5228  0.6737  1.1675
48986SOL     OW52277   4.675   9.813  11.807  0.1154 -0.1722 -0.4744
48986SOL    HW152278   4.594   9.862  11.798  0.2063  0.1599  0.4248
48986SOL    HW252279   4.729   9.866  11.866 -0.1112 -1.7067  1.2169
48987SOL     OW52280   9.047   6.107   9.506  0.5619 -0.1652 -0.3251
48987SOL    HW152281   9.110   6.113   9.577 -0.0912 -0.4163  0.2891
48987SOL    HW252282   8.985   6.178   9.523 -1.1916 -1.9244  0.9786
48988SOL     OW52283   9.709   3.334   5.491 -0.6208 -0.5010 -0.4555
48988SOL    HW152284   9.660   3.357   5.570  0.6775 -0.0349  0.2399
48988SOL    HW252285   9.710   3.239   5.491 -0.2943 -0.5063  0.3131
48989SOL     OW52286   6.553   6.746   7.435  0.3428 -0.3374  0.1373
48989SOL    HW152287   6.491   6.818   7.424 -0.5954 -1.2485 -0.8570
48989SOL    HW252288   6.636   6.788   7.454 -0.5894  0.9247  1.5974
48990SOL     OW52289   4.025   6.733   5.537  0.3131  0.3963 -0.0054
48990SOL    HW152290   3.970   6.662   5.572 -2.0363  2.7262  1.4601
48990SOL    HW252291   3.979   6.813   5.563  3.9568  2.5821  0.4282
48991SOL     OW52292   5.307   0.989   6.522  0.5610 -0.0838  0.4612
48991SOL    HW152293   5.334   1.051   6.454 -1.8775 -0.1158 -0.6530
48991SOL    HW252294   5.254   1.041   6.582 -2.6332 -1.1508 -1.1908
48992SOL     OW52295  10.569   2.686   0.859  0.0505 -0.2631  0.0992
48992SOL    HW152296  10.546   2.671   0.768  1.9785  2.7931 -1.0434
48992SOL    HW252297  10.499   2.744   0.892 -0.6410 -1.3582  0.6294
48993SOL     OW52298   3.501   6.072  11.704  0.4336  0.0447 -0.0224
48993SOL    HW152299   3.441   6.097  11.634  1.6688  0.5786 -0.9300
48993SOL    HW252300   3.535   6.155  11.737  0.2021 -0.2239  0.9300
48994SOL     OW52301  10.270   6.440   8.006 -0.8941  0.4591  0.4569
48994SOL    HW152302  10.258   6.415   8.098  1.3884 -1.5077  0.3237
48994SOL    HW252303  10.203   6.391   7.959  0.4192 -1.7572  0.7443
48995SOL     OW52304   7.014   4.251   6.323  0.3723 -0.5002  0.2093
48995SOL    HW152305   7.056   4.167   6.304 -0.0465 -0.8493  0.7927
48995SOL    HW252306   7.086   4.314   6.327  0.7096 -0.8700 -0.0165
48996SOL     OW52307   7.442   6.919  11.043 -0.3347 -0.2646  0.0759
48996SOL    HW152308   7.535   6.910  11.021 -0.7467 -0.6599 -1.7333
48996SOL    HW252309   7.429   7.013  11.057  0.5685 -0.3445  1.6846
48997SOL     OW52310   7.812  10.812   3.224 -0.4337  0.1176  0.0695
48997SOL    HW152311   7.778  10.828   3.136  0.7914  0.3464 -0.3755
48997SOL    HW252312   7.779  10.725   3.247  1.1105 -0.9623 -1.5507
48998SOL     OW52313   0.974   5.323   5.450 -0.4038 -0.1796  0.3055
48998SOL    HW152314   0.929   5.239   5.446  0.3832 -0.5892 -1.1762
48998SOL    HW252315   0.928   5.378   5.386  0.6038 -0.3233 -0.5751
48999SOL     OW52316   2.950   8.869   8.846  0.0340 -0.1617  0.0989
48999SOL    HW152317   2.939   8.774   8.855  0.9481 -0.1491  2.0150
48999SOL    HW252318   3.038   8.880   8.809 -0.2825 -0.0587 -0.6347
49000SOL     OW52319   9.844   4.843   4.604 -0.5778  0.6879  0.5402
49000SOL    HW152320   9.830   4.912   4.539  0.8862 -0.1049 -0.6745
49000SOL    HW252321   9.872   4.767   4.553 -2.2571 -0.8682  1.8417
49001SOL     OW52322   9.706   1.064   3.578 -0.6037 -0.7586 -0.0786
49001SOL    HW152323   9.673   1.145   3.540 -1.8511 -1.1133  0.1837
49001SOL    HW252324   9.694   0.999   3.509 -2.3148 -1.2813  0.6548
49002SOL     OW52325   9.590   2.819   4.398  0.3525  0.2495 -0.2650
49002SOL    HW152326   9.656   2.848   4.461 -0.2382  0.1947  0.3885
49002SOL    HW252327   9.520   2.781   4.451  1.1407 -2.5715 -1.0780
49003SOL     OW52328  10.713   6.735   9.057  0.3913  0.3708 -0.0178
49003SOL    HW152329  10.802   6.737   9.093  1.0037 -0.6084 -1.4071
49003SOL    HW252330  10.661   6.782   9.122  1.9927  1.3945  0.6080
49004SOL     OW52331  11.074  10.542   3.451 -0.0074  0.2053  0.5910
49004SOL    HW152332  11.021  10.575   3.523 -0.2251  0.8628  0.1398
49004SOL    HW252333  11.036  10.457   3.430 -0.3068  0.2681  0.8720
49005SOL     OW52334  10.639   1.528   2.052 -0.1742  0.0313 -0.2040
49005SOL    HW152335  10.567   1.566   2.102 -0.3424  0.0351 -0.4464
49005SOL    HW252336  10.602   1.510   1.966  0.3136  0.7326 -0.5712
49006SOL     OW52337   1.354  11.017  10.007  0.0576 -0.0802 -0.1812
49006SOL    HW152338   1.356  10.941  10.066  0.3626 -1.7930 -2.2549
49006SOL    HW252339   1.421  11.076  10.041  0.9910 -1.5185  0.5705
49007SOL     OW52340   5.894  11.603   9.354  0.6879  0.6862 -0.0734
49007SOL    HW152341   5.935  11.550   9.422  1.5938  0.4836 -0.7678
49007SOL    HW252342   5.807  11.623   9.389  1.2085  0.7679  1.2427
49008SOL     OW52343  10.430   9.202   7.109  0.1977  0.3744  0.0464
49008SOL    HW152344  10.387   9.196   7.194  0.6819  0.4713  0.2970
49008SOL    HW252345  10.492   9.274   7.117  2.0578 -1.1817  0.4356
49009SOL     OW52346   9.360   2.595   1.626  0.5935 -0.1448  0.3120
49009SOL    HW152347   9.426   2.658   1.655  0.1687  1.4702 -1.8841
49009SOL    HW252348   9.398   2.509   1.642  3.4689  0.7150 -1.2601
49010SOL     OW52349   0.509   4.652   1.781  0.1294  0.2864  0.9619
49010SOL    HW152350   0.521   4.576   1.838 -0.5284 -0.4883  0.0965
49010SOL    HW252351   0.439   4.626   1.721  1.7774  0.4851 -1.1659
49011SOL     OW52352   6.963   5.003   1.161 -0.1533  0.6105 -0.0849
49011SOL    HW152353   6.990   5.066   1.229  0.8354 -0.1343  0.2393
49011SOL    HW252354   6.936   5.057   1.087  1.9011  1.4470 -0.2887
49012SOL     OW52355   9.501   9.884   4.554  0.3328  0.4993  0.0437
49012SOL    HW152356   9.514   9.796   4.519  0.6047  0.6526 -0.2453
49012SOL    HW252357   9.573   9.897   4.615 -0.7748 -0.2031  1.5558
49013SOL     OW52358   6.746   0.331   4.743 -0.2112 -0.0849  0.2939
49013SOL    HW152359   6.681   0.270   4.707  2.0996 -1.7528 -1.3612
49013SOL    HW252360   6.753   0.399   4.676 -1.5424  1.1722  1.3587
49014SOL     OW52361   7.771  11.492  11.462  0.1709 -0.0441 -0.1815
49014SOL    HW152362   7.715  11.568  11.444  0.0809 -0.3475 -1.3026
49014SOL    HW252363   7.718  11.436  11.518 -0.0513  0.3775  0.0329
49015SOL     OW52364   3.804   6.545  11.801 -0.0357  0.4627 -0.3751
49015SOL    HW152365   3.812   6.577  11.891  0.5226 -0.9920  0.1140
49015SOL    HW252366   3.886   6.569  11.759  0.9162 -1.3630  0.3549
49016SOL     OW52367   1.288   8.490   6.103 -0.6223  0.2963 -0.2229
49016SOL    HW152368   1.196   8.516   6.099 -0.5456  0.5302 -0.4842
49016SOL    HW252369   1.337   8.569   6.081 -0.3947 -0.0974 -1.1983
49017SOL     OW52370   4.300   1.578   7.061 -0.1218 -0.2889 -0.3851
49017SOL    HW152371   4.296   1.659   7.112 -1.3265  0.5282 -1.7038
49017SOL    HW252372   4.255   1.599   6.979 -0.5242 -2.3282 -0.7315
49018SOL     OW52373   6.926   1.346   2.083 -0.6309  0.2329  0.0063
49018SOL    HW152374   6.910   1.285   2.011  0.4313 -0.8006  0.5989
49018SOL    HW252375   6.986   1.411   2.047 -0.2869 -0.1485 -0.1184
49019SOL     OW52376   2.587   4.610   5.725 -0.2408 -0.0299 -0.2306
49019SOL    HW152377   2.537   4.548   5.672  0.8923 -2.2534  1.1575
49019SOL    HW252378   2.613   4.679   5.664 -1.8002 -0.7417 -1.7744
49020SOL     OW52379   1.601   4.872  11.038  0.0712 -0.3238 -0.2167
49020SOL    HW152380   1.542   4.923  10.983  0.6718  2.0966  1.2185
49020SOL    HW252381   1.674   4.850  10.981 -1.3415 -1.8303 -1.5315
49021SOL     OW52382   8.335   1.716   3.840 -0.2575  0.2405 -0.4400
49021SOL    HW152383   8.416   1.700   3.889  0.6759 -0.3771 -2.0827
49021SOL    HW252384   8.342   1.807   3.812 -0.5448  0.4364  0.1037
49022SOL     OW52385   2.897   6.779  11.681 -0.1005 -1.2656 -0.4004
49022SOL    HW152386   2.938   6.848  11.630 -1.2417  0.8692  1.3962
49022SOL    HW252387   2.804   6.784  11.658 -0.6555 -0.2151  1.7813
49023SOL     OW52388   8.897   2.765   2.084 -0.5333  0.3408 -0.5256
49023SOL    HW152389   8.857   2.825   2.022 -0.5423 -0.3684 -1.2185
49023SOL    HW252390   8.975   2.810   2.115 -0.1774  0.4419 -1.5393
49024SOL     OW52391  11.299   5.143  10.951 -0.2682 -0.5580 -0.3356
49024SOL    HW152392  11.375   5.192  10.920 -0.3601 -1.2073 -1.6650
49024SOL    HW252393  11.224   5.197  10.925 -0.2935  0.8308  2.2911
49025SOL     OW52394   2.115   4.397   3.335  0.0172 -0.4031 -0.0153
49025SOL    HW152395   2.057   4.396   3.411 -1.1431 -1.9125 -0.8502
49025SOL    HW252396   2.100   4.312   3.292  1.2530  0.0562 -1.4606
49026SOL     OW52397   8.854   8.761   0.002 -0.2752 -0.4064 -0.4705
49026SOL    HW152398   8.905   8.836   0.033 -1.6286 -0.1298  1.2490
49026SOL    HW252399   8.888   8.744  -0.086  0.6493  1.6773 -0.5854
49027SOL     OW52400   6.458  10.210   7.326 -0.1261  0.6188 -0.6518
49027SOL    HW152401   6.424  10.128   7.362 -0.6552  1.2773  0.3668
49027SOL    HW252402   6.446  10.200   7.231 -0.7828 -0.2201 -0.4965
49028SOL     OW52403   1.682   3.603   6.675  0.0998 -0.1297  0.2504
49028SOL    HW152404   1.725   3.643   6.751  0.1431  1.8925 -0.7535
49028SOL    HW252405   1.749   3.604   6.607 -0.6756  0.4769 -0.5321
49029SOL     OW52406   5.802   5.853   7.879 -0.0378  0.1232 -0.3869
49029SOL    HW152407   5.891   5.842   7.845  1.0924  0.5836  2.1802
49029SOL    HW252408   5.783   5.946   7.863  0.0730  0.1017 -0.6532
49030SOL     OW52409  11.567   6.646   9.141  0.7910  0.0643  0.2223
49030SOL    HW152410  11.639   6.603   9.187  0.7375  1.1229  1.3393
49030SOL    HW252411  11.492   6.638   9.199  0.1204 -0.5258 -0.6875
49031SOL     OW52412   5.781   8.064   0.865  0.0004 -0.5763  0.2134
49031SOL    HW152413   5.840   8.062   0.940 -0.0907 -1.3466  0.2702
49031SOL    HW252414   5.838   8.046   0.790  0.0513 -0.0391  0.1177
49032SOL     OW52415  10.403   2.133   9.814 -0.1039 -0.1726 -0.2044
49032SOL    HW152416  10.424   2.113   9.905 -0.3865  0.6107  0.0446
49032SOL    HW252417  10.336   2.201   9.819 -1.4052 -1.3431 -0.9908
49033SOL     OW52418   0.153   2.184  10.193 -0.4572  0.1860  0.2597
49033SOL    HW152419   0.169   2.094  10.219  1.0429  0.4254  0.2215
49033SOL    HW252420   0.088   2.177  10.122 -1.0437 -0.7725  0.8703
49034SOL     OW52421   7.399   1.740   0.535  1.0013  0.1724  0.5874
49034SOL    HW152422   7.337   1.760   0.606  0.5705  0.1458  0.2180
49034SOL    HW252423   7.455   1.671   0.571 -0.0182 -0.7377  0.4564
49035SOL     OW52424   5.661   9.251   7.474 -0.0795 -0.2594 -0.1300
49035SOL    HW152425   5.598   9.193   7.432  1.2276 -1.7561 -0.1263
49035SOL    HW252426   5.613   9.294   7.544 -1.4444 -0.2468 -1.0481
49036SOL     OW52427   7.940   1.330  11.722  0.0842 -0.0004  0.2204
49036SOL    HW152428   7.957   1.422  11.702  3.6831 -0.3872  0.7329
49036SOL    HW252429   7.898   1.331  11.807  0.9927  1.1760  0.6858
49037SOL     OW52430   8.346   0.028   0.772 -0.0106 -0.2139  0.0920
49037SOL    HW152431   8.320  -0.048   0.825  0.0339  0.6190  1.3581
49037SOL    HW252432   8.426  -0.000   0.727 -0.2566 -1.0729  0.1731
49038SOL     OW52433   6.513   5.524   8.712  0.4359  0.0368 -0.1877
49038SOL    HW152434   6.465   5.526   8.629 -0.0662 -0.4592  0.0861
49038SOL    HW252435   6.455   5.478   8.773  1.2653 -0.6109  0.1423
49039SOL     OW52436   7.174   8.658  10.339 -0.5022  0.0676 -0.0489
49039SOL    HW152437   7.122   8.577  10.333 -0.1890 -0.0252 -2.7622
49039SOL    HW252438   7.108   8.728  10.344 -0.9666 -0.1244 -2.3228
49040SOL     OW52439   3.553   8.249   6.912 -0.3554 -0.0206  0.3677
49040SOL    HW152440   3.613   8.238   6.838 -1.0114 -2.6264  0.1093
49040SOL    HW252441   3.466   8.256   6.871 -0.6242 -0.4507  0.8521
49041SOL     OW52442   7.866   0.958   6.528 -0.0921  0.0760 -0.3251
49041SOL    HW152443   7.816   0.892   6.577  0.1671  0.5603  0.6271
49041SOL    HW252444   7.867   0.926   6.438 -2.4115  0.1917 -0.4612
49042SOL     OW52445   1.426   7.577   1.909  0.1172  0.1925  0.1868
49042SOL    HW152446   1.380   7.654   1.876  0.1241  0.0688 -0.1142
49042SOL    HW252447   1.505   7.612   1.951 -0.9825  0.5506  2.0818
49043SOL     OW52448   2.580   6.065   1.475 -0.1311 -0.0689 -0.4636
49043SOL    HW152449   2.584   6.030   1.563 -1.0279 -0.4973 -0.5853
49043SOL    HW252450   2.592   6.159   1.486 -2.2365  0.1469  0.3386
49044SOL     OW52451   7.909   7.722   9.110  0.0622 -0.1438 -0.2333
49044SOL    HW152452   7.867   7.656   9.165  1.6204  0.4191  1.8027
49044SOL    HW252453   7.912   7.684   9.023 -3.7366 -0.5680 -0.3384
49045SOL     OW52454   0.810   4.660   0.919 -0.4085  0.4911 -0.2531
49045SOL    HW152455   0.760   4.619   0.849 -0.8712  0.3803  0.1323
49045SOL    HW252456   0.900   4.663   0.887 -0.2853 -1.1838 -0.1520
49046SOL     OW52457   1.315   7.497   1.052  0.3427  0.1561  0.4877
49046SOL    HW152458   1.372   7.474   1.125 -0.2386 -0.3965  0.7756
49046SOL    HW252459   1.291   7.588   1.068  1.9063  0.7236 -0.1570
49047SOL     OW52460   4.606   4.844   3.664  0.2431 -0.3939 -0.4542
49047SOL    HW152461   4.515   4.814   3.662  0.5623 -1.4232 -2.4005
49047SOL    HW252462   4.654   4.775   3.711  0.1535 -0.2662 -0.1744
49048SOL     OW52463   5.807   4.252   7.482  0.1230 -0.0392 -0.2614
49048SOL    HW152464   5.814   4.309   7.406 -0.3067 -0.5472 -0.6929
49048SOL    HW252465   5.897   4.231   7.505  0.2733 -2.0518 -2.3151
49049SOL     OW52466   0.003   9.835   1.475  0.2123  0.0523  0.6966
49049SOL    HW152467  -0.018   9.917   1.432  0.2391 -0.2323  0.1354
49049SOL    HW252468  -0.082   9.792   1.487  0.3768 -0.8613 -1.0925
49050SOL     OW52469  11.810   7.059   2.846 -0.2503 -0.7682  0.0298
49050SOL    HW152470  11.840   7.052   2.936  1.0906 -0.7503 -0.3877
49050SOL    HW252471  11.837   6.976   2.805 -1.9394 -1.3043 -0.0735
49051SOL     OW52472   6.740   2.256   1.115  0.4146 -0.5888  0.0166
49051SOL    HW152473   6.713   2.338   1.074  0.0939 -0.1821  1.0166
49051SOL    HW252474   6.659   2.218   1.148  0.7386 -0.6161  0.7952
49052SOL     OW52475  10.474   0.565  10.924  0.1941  0.5678  0.0714
49052SOL    HW152476  10.548   0.507  10.906 -0.7716 -0.2332 -1.3998
49052SOL    HW252477  10.403   0.507  10.951  0.3257  1.4057  2.4815
49053SOL     OW52478   9.379   1.474   2.701  0.1469 -0.5832  0.2129
49053SOL    HW152479   9.356   1.429   2.620  1.7535 -2.6523  0.8142
49053SOL    HW252480   9.298   1.518   2.728 -0.3421  0.5133 -2.6454
49054SOL     OW52481   4.134  10.813   8.762 -0.8396 -0.1751 -0.1993
49054SOL    HW152482   4.216  10.848   8.796 -0.1429 -2.9681  1.2912
49054SOL    HW252483   4.153  10.792   8.671 -0.1757  0.1055 -0.1319
49055SOL     OW52484   2.167   5.708   5.937 -0.1675  0.4643 -0.8766
49055SOL    HW152485   2.247   5.681   5.891  1.5927  0.7811  1.7982
49055SOL    HW252486   2.191   5.787   5.984 -1.8609  0.2165  0.5319
49056SOL     OW52487   6.398   2.354   1.029  0.0041 -0.4870 -0.2754
49056SOL    HW152488   6.431   2.328   1.115  0.4007 -1.0537 -0.5909
49056SOL    HW252489   6.461   2.316   0.967 -1.5339 -2.1396 -0.9271
49057SOL     OW52490   0.853  11.218   4.913 -0.1256  0.1096  0.1854
49057SOL    HW152491   0.902  11.288   4.957  1.8599 -0.2024 -1.4052
49057SOL    HW252492   0.890  11.137   4.948  0.2444 -0.1268 -0.7302
49058SOL     OW52493   3.105  11.387   0.562 -0.2397 -0.3409  0.7304
49058SOL    HW152494   3.088  11.479   0.577  1.4117 -0.0549  1.0342
49058SOL    HW252495   3.020  11.344   0.573 -1.0991  1.1671  0.2124
49059SOL     OW52496   6.345  10.410   6.930 -0.5378  0.3560  0.3510
49059SOL    HW152497   6.366  10.479   6.993 -2.3388  1.2583  0.0238
49059SOL    HW252498   6.399  10.335   6.957  0.0515  1.2884  1.8561
49060SOL     OW52499  11.782   1.702   8.170 -0.7469 -0.0089 -0.6079
49060SOL    HW152500  11.699   1.660   8.148  0.3544 -2.2703 -0.7460
49060SOL    HW252501  11.783   1.704   8.266 -1.4645  1.1919 -0.6023
49061SOL     OW52502  10.849   6.341   6.882  0.4672  0.6896  0.8195
49061SOL    HW152503  10.833   6.367   6.792  0.4025  1.6756  1.1085
49061SOL    HW252504  10.787   6.269   6.897  1.7022 -0.7101 -0.4566
49062SOL     OW52505   2.412   2.308   8.606  0.9040  0.2197  0.2273
49062SOL    HW152506   2.489   2.360   8.581  0.3981  0.4897 -0.7958
49062SOL    HW252507   2.338   2.365   8.587  0.4189 -0.2519  0.6880
49063SOL     OW52508   6.306   9.926   5.820 -0.0944 -1.0922  0.0912
49063SOL    HW152509   6.301  10.006   5.872  1.2720 -2.0288  1.7602
49063SOL    HW252510   6.331   9.956   5.732 -1.5350  0.4365  0.1490
49064SOL     OW52511   6.946   8.157   1.116  0.5516  0.0075  0.1417
49064SOL    HW152512   6.950   8.205   1.198  0.4914  1.7665 -0.8274
49064SOL    HW252513   7.037   8.149   1.088  0.6034 -0.9671  0.5847
49065SOL     OW52514  10.749   9.783   5.950  0.1914 -0.5141 -0.2178
49065SOL    HW152515  10.717   9.838   6.021 -0.9917 -0.9230 -0.4172
49065SOL    HW252516  10.838   9.760   5.976  0.6641  1.3167 -0.0449
49066SOL     OW52517   7.365  10.767   8.748 -0.0650  0.5773  0.0572
49066SOL    HW152518   7.410  10.697   8.700  0.0147  1.0024 -0.4985
49066SOL    HW252519   7.365  10.737   8.839  0.9640  0.3659  0.0015
49067SOL     OW52520   3.883   0.507   7.783 -0.1760 -0.3082 -0.0746
49067SOL    HW152521   3.869   0.591   7.827  1.2183 -0.0920  0.0086
49067SOL    HW252522   3.817   0.449   7.820 -0.3773  0.4395  0.7694
49068SOL     OW52523   8.459   9.181   5.409  0.6344 -0.0879  1.0611
49068SOL    HW152524   8.515   9.257   5.392  0.0575 -0.2059 -1.7830
49068SOL    HW252525   8.378   9.218   5.442  0.2719  0.5994 -0.5228
49069SOL     OW52526  11.674   6.821   8.180 -0.7693  0.1503  0.4393
49069SOL    HW152527  11.607   6.811   8.112 -0.5849 -0.7930  0.3917
49069SOL    HW252528  11.753   6.785   8.141 -0.3065  0.9304  0.6341
49070SOL     OW52529  11.796   6.447   4.075 -0.0720  0.4273  0.3739
49070SOL    HW152530  11.719   6.504   4.085  0.3679  1.1279 -0.1353
49070SOL    HW252531  11.760   6.361   4.053 -0.6861  1.1411 -1.6192
49071SOL     OW52532   4.828   2.664   4.522 -0.3968  0.0915 -0.0048
49071SOL    HW152533   4.894   2.598   4.540 -0.1525 -0.0895 -1.4291
49071SOL    HW252534   4.784   2.633   4.443 -1.2944  0.8714  0.1722
49072SOL     OW52535   9.363   4.757   2.876  0.2477  0.1459 -0.4646
49072SOL    HW152536   9.318   4.801   2.948  2.3419  0.5846  0.6713
49072SOL    HW252537   9.362   4.664   2.901  0.2623  0.1963 -0.2758
49073SOL     OW52538  10.273  10.041   6.470  0.5967 -1.0134 -0.2034
49073SOL    HW152539  10.297   9.997   6.552  1.3313  2.9231  2.0056
49073SOL    HW252540  10.178  10.041   6.470  0.5765 -2.3528 -0.1967
49074SOL     OW52541   2.120   5.102  10.430 -0.5352 -0.2138  0.2732
49074SOL    HW152542   2.190   5.039  10.413  0.6627  0.9152  0.8443
49074SOL    HW252543   2.058   5.055  10.485  0.7130 -0.6911  1.3399
49075SOL     OW52544   0.585   8.541   0.344 -0.0500  0.2801 -0.2842
49075SOL    HW152545   0.493   8.529   0.365  0.1655 -0.2581  0.3804
49075SOL    HW252546   0.630   8.471   0.391  0.7459  0.8198 -0.2231
49076SOL     OW52547  10.047  11.774   5.423 -0.3357 -0.1198 -0.5309
49076SOL    HW152548   9.981  11.817   5.368 -0.7704  0.5092  0.4423
49076SOL    HW252549   9.996  11.723   5.486  0.1324 -0.3768 -0.3537
49077SOL     OW52550   4.269   7.726  11.714 -0.1943  0.1137  0.4307
49077SOL    HW152551   4.327   7.650  11.715 -0.6165 -0.2373 -0.3339
49077SOL    HW252552   4.196   7.702  11.771 -0.0082  0.1979  0.6995
49078SOL     OW52553   5.474   0.034   2.431  0.2042  0.2783 -0.3161
49078SOL    HW152554   5.409   0.039   2.362 -0.1249 -0.0166 -0.0291
49078SOL    HW252555   5.504  -0.057   2.430  0.8330  0.4845 -0.6481
49079SOL     OW52556   4.006   6.608   3.829 -0.2203 -0.0059  0.1052
49079SOL    HW152557   4.031   6.658   3.907  0.1125  0.1810 -0.1212
49079SOL    HW252558   3.921   6.644   3.804 -0.3267 -0.0620  0.3788
49080SOL     OW52559   5.233   8.256   4.139  0.2414 -0.0383  0.0778
49080SOL    HW152560   5.280   8.317   4.082  0.8133 -0.3205  0.2333
49080SOL    HW252561   5.226   8.176   4.087 -0.4456  0.1342 -0.1000
49081SOL     OW52562   8.280  10.867   5.041  0.2387  0.0948 -0.2338
49081SOL    HW152563   8.282  10.951   4.995 -0.4572  0.7696  0.9283
49081SOL    HW252564   8.197  10.867   5.088  0.3316 -1.1520 -0.0268
49082SOL     OW52565   5.248   3.596   9.595  0.2399  0.2501 -0.8012
49082SOL    HW152566   5.181   3.663   9.611  0.4456  0.0936  0.9295
49082SOL    HW252567   5.324   3.627   9.645  0.1783 -1.4835  0.4476
49083SOL     OW52568   7.591   8.001   5.763 -0.1507  0.4105 -0.1210
49083SOL    HW152569   7.614   8.061   5.692 -0.5051 -0.0668 -0.6548
49083SOL    HW252570   7.600   8.053   5.842  0.9730  0.7564 -0.4487
49084SOL     OW52571   4.595   5.811  11.102  0.1144 -0.0930  0.4745
49084SOL    HW152572   4.599   5.895  11.056 -1.2325 -0.4631 -0.3739
49084SOL    HW252573   4.557   5.832  11.187  0.1379  0.2165  0.4100
49085SOL     OW52574   4.259   9.595  10.116 -0.4022  0.4436  0.1577
49085SOL    HW152575   4.185   9.545  10.082 -0.9820  1.7726 -0.5941
49085SOL    HW252576   4.331   9.574  10.056 -0.2920 -0.4139  0.5664
49086SOL     OW52577  10.228   4.997  11.655  1.0670  0.3340 -0.0585
49086SOL    HW152578  10.212   4.966  11.744  4.2418 -3.1325 -0.4433
49086SOL    HW252579  10.294   5.066  11.664 -0.8326  2.2021  0.3387
49087SOL     OW52580   0.209  10.168   8.963 -0.2459  0.5584  0.0459
49087SOL    HW152581   0.152  10.230   8.917 -0.5577  1.2171  1.2760
49087SOL    HW252582   0.296  10.185   8.927 -0.6004  0.4357 -0.9248
49088SOL     OW52583   9.682  11.262   0.835 -0.1061 -0.1590 -0.1770
49088SOL    HW152584   9.728  11.330   0.786  1.2325 -0.4995  0.5710
49088SOL    HW252585   9.718  11.179   0.802  0.1920 -0.4167  0.7641
49089SOL     OW52586  11.386  10.475  11.595 -0.0556  0.2926 -0.0667
49089SOL    HW152587  11.370  10.544  11.531  0.7283  0.4257 -0.1244
49089SOL    HW252588  11.444  10.515  11.660  1.0563 -0.5435 -0.5172
49090SOL     OW52589   9.915   1.194   6.519 -0.4477  0.3862  0.0089
49090SOL    HW152590   9.820   1.194   6.516 -0.6583 -1.1098  2.9604
49090SOL    HW252591   9.941   1.108   6.485 -0.3092  0.0719  0.8721
49091SOL     OW52592   3.661  11.726   6.555 -0.0093  0.2965  0.2521
49091SOL    HW152593   3.744  11.680   6.547 -0.1272 -0.0903  1.1266
49091SOL    HW252594   3.674  11.808   6.508  0.8225  0.1774  0.2646
49092SOL     OW52595  10.288   4.089   4.435 -0.0908 -0.1484  0.2552
49092SOL    HW152596  10.216   4.052   4.384  0.7766 -1.7995  0.1631
49092SOL    HW252597  10.361   4.094   4.373  0.3606 -0.1245  0.7846
49093SOL     OW52598   5.628   4.721   6.430 -0.3972 -0.3169 -0.8458
49093SOL    HW152599   5.605   4.813   6.420 -2.4813 -0.7493 -0.3918
49093SOL    HW252600   5.597   4.698   6.518  0.9366 -1.2457 -0.5803
49094SOL     OW52601   9.719  10.430   4.625  0.1933 -0.1919 -0.7554
49094SOL    HW152602   9.626  10.411   4.636  0.1356  0.6715  0.4392
49094SOL    HW252603   9.756  10.350   4.587 -0.9206 -0.7836 -0.6198
49095SOL     OW52604   7.669   4.770   2.383 -0.4943 -0.4020 -0.7372
49095SOL    HW152605   7.757   4.807   2.378 -1.0274  1.0543 -0.0512
49095SOL    HW252606   7.611   4.846   2.373 -1.6778 -1.3126 -1.0407
49096SOL     OW52607   4.880   9.555  10.718 -0.5417 -0.4586 -0.0250
49096SOL    HW152608   4.923   9.470  10.703 -1.4654 -0.8644 -0.4840
49096SOL    HW252609   4.793   9.532  10.751 -0.8349  0.3040 -0.2516
49097SOL     OW52610   3.351   5.721  10.751  0.3412 -0.0540 -0.2225
49097SOL    HW152611   3.412   5.661  10.794 -0.3001 -1.3651 -1.0748
49097SOL    HW252612   3.300   5.759  10.823  0.4659 -0.8664  0.3070
49098SOL     OW52613   7.499   2.509   4.528  0.1807 -0.3988 -0.2033
49098SOL    HW152614   7.413   2.467   4.520 -1.7785  2.8800  1.3806
49098SOL    HW252615   7.504   2.567   4.452  0.6649 -0.0623  0.0838
49099SOL     OW52616  11.377   8.544   3.131 -0.1555  0.8184 -0.1812
49099SOL    HW152617  11.393   8.505   3.045  0.7667 -0.6220  0.5795
49099SOL    HW252618  11.381   8.638   3.116 -1.2198  0.6310 -1.9087
49100SOL     OW52619   3.461   9.760  10.403  0.4728  0.0448 -0.5602
49100SOL    HW152620   3.471   9.676  10.358  0.3407 -2.1224  3.0249
49100SOL    HW252621   3.385   9.747  10.460  0.6912  2.4943  0.3997
49101SOL     OW52622   4.813   2.146  11.704 -0.4018 -0.4076  0.2980
49101SOL    HW152623   4.871   2.194  11.764  1.8367  0.6340 -2.4860
49101SOL    HW252624   4.849   2.057  11.702  0.8213  0.0697 -0.9172
49102SOL     OW52625   0.514   8.935   8.519  0.0730  0.4355  0.1566
49102SOL    HW152626   0.557   8.866   8.570 -1.3033 -1.1023 -0.6597
49102SOL    HW252627   0.420   8.915   8.527 -0.2860  1.5361 -1.0358
49103SOL     OW52628   7.915   1.464   0.908 -0.6334 -0.2362 -0.1045
49103SOL    HW152629   7.926   1.410   0.830 -0.9900  0.9369 -0.9963
49103SOL    HW252630   7.821   1.458   0.928 -0.6749  0.0336 -0.2074
49104SOL     OW52631   3.031   4.768   1.898 -0.0461 -0.6977 -0.6321
49104SOL    HW152632   3.068   4.847   1.937 -1.0230 -0.3453 -0.3858
49104SOL    HW252633   3.012   4.710   1.972 -0.3468 -0.7124 -0.7187
49105SOL     OW52634   7.528  11.822   3.576 -0.0029  0.7112 -0.7247
49105SOL    HW152635   7.570  11.825   3.490  0.3413  1.9768 -0.5260
49105SOL    HW252636   7.549  11.735   3.610  1.5647  0.9256 -1.0823
49106SOL     OW52637   6.228   8.817  10.721  0.1785  0.7598 -0.0393
49106SOL    HW152638   6.133   8.821  10.710  0.2081 -1.9322 -2.2364
49106SOL    HW252639   6.258   8.906  10.702 -1.8158  1.4437 -0.2416
49107SOL     OW52640   5.463   2.510   6.047 -0.7002  0.0939 -0.1173
49107SOL    HW152641   5.535   2.550   5.999 -0.1244 -0.0312  0.6308
49107SOL    HW252642   5.428   2.445   5.986 -2.4690  2.4852 -1.8601
49108SOL     OW52643   3.978   3.048   3.804 -0.0140  0.1417  0.1322
49108SOL    HW152644   4.040   2.981   3.777  0.0504 -0.4623  1.6838
49108SOL    HW252645   3.949   3.088   3.722  2.0472  0.1298 -0.6729
49109SOL     OW52646   0.546   2.003   5.637 -0.5960  0.0758  0.5232
49109SOL    HW152647   0.508   2.058   5.569  0.4154  1.7825  1.2897
49109SOL    HW252648   0.538   1.914   5.602  0.3136  0.9098 -2.0387
49110SOL     OW52649   3.261   7.253  10.058  0.4166 -0.3749 -0.0501
49110SOL    HW152650   3.176   7.298  10.058 -0.2185 -1.5407  0.4156
49110SOL    HW252651   3.297   7.269  10.145  0.3618 -0.4716 -0.0104
49111SOL     OW52652   9.069   0.615   8.564  0.5677 -0.5546  0.0563
49111SOL    HW152653   9.120   0.622   8.484 -1.5703 -0.6196 -1.3987
49111SOL    HW252654   9.042   0.705   8.583 -0.8014 -0.7894 -0.6373
49112SOL     OW52655   6.989   0.906   8.821  0.4557 -0.2263  0.3753
49112SOL    HW152656   6.946   0.884   8.739  0.9499  1.1798 -0.2943
49112SOL    HW252657   6.938   0.861   8.888  0.0928 -1.4727 -0.6952
49113SOL     OW52658   4.962   1.239  11.168 -0.2886 -0.8000 -0.1130
49113SOL    HW152659   4.972   1.333  11.181 -0.9756 -0.8804  1.1859
49113SOL    HW252660   5.046   1.210  11.132 -0.5139  0.4970 -1.7516
49114SOL     OW52661   6.795   1.687   8.946 -0.5017 -0.6389 -0.3524
49114SOL    HW152662   6.731   1.748   8.981 -0.9266 -1.8183  1.0245
49114SOL    HW252663   6.829   1.640   9.023  0.0363 -1.9050 -1.3140
49115SOL     OW52664   3.872  10.990   8.473 -0.2716 -0.7573 -0.0711
49115SOL    HW152665   3.951  11.045   8.479 -0.8801  0.0590  0.7250
49115SOL    HW252666   3.817  11.020   8.545 -2.2344  0.1806 -1.8678
49116SOL     OW52667   4.820   5.779   3.176  0.0404 -0.0430  0.2771
49116SOL    HW152668   4.732   5.745   3.160 -0.8029  0.7384  2.7843
49116SOL    HW252669   4.854   5.724   3.247  0.4464  1.3688  1.2295
49117SOL     OW52670   1.337   8.922   7.942 -0.0291  0.2524 -0.2188
49117SOL    HW152671   1.411   8.936   7.882  0.1835 -0.3670 -0.1125
49117SOL    HW252672   1.330   9.003   7.991  1.4889 -0.1678  0.7513
49118SOL     OW52673   7.126   4.528   3.288 -0.5478  0.0777  0.5598
49118SOL    HW152674   7.060   4.592   3.315 -0.9118 -0.4355  0.8993
49118SOL    HW252675   7.113   4.519   3.193 -0.9557 -0.0024  0.6214
49119SOL     OW52676   8.042   6.517   9.208 -0.8318 -0.6324 -0.0765
49119SOL    HW152677   8.044   6.472   9.292 -1.5973 -0.8003 -0.1383
49119SOL    HW252678   8.110   6.584   9.214  0.4562 -1.9212 -0.0616
49120SOL     OW52679  11.351  11.060   9.929 -0.1627  0.1736  0.8210
49120SOL    HW152680  11.280  11.036   9.870  0.1879  0.2944  0.3488
49120SOL    HW252681  11.422  11.088   9.872 -0.3627  1.8406  1.3403
49121SOL     OW52682  11.323  10.488   5.375 -0.3007 -0.9108  0.2647
49121SOL    HW152683  11.251  10.551   5.383  1.4014  1.3152 -0.7615
49121SOL    HW252684  11.334  10.477   5.280  1.1298 -0.6663  0.3827
49122SOL     OW52685   8.722   7.674   0.631 -0.2509 -0.1677 -0.3083
49122SOL    HW152686   8.680   7.589   0.645  2.0743 -1.1998  0.9916
49122SOL    HW252687   8.760   7.668   0.543 -1.1400  0.0237 -0.7110
49123SOL     OW52688  11.271   5.592   0.925  0.1395  0.1231  0.0811
49123SOL    HW152689  11.221   5.541   0.862  0.5763  0.5007 -0.5813
49123SOL    HW252690  11.275   5.536   1.003 -0.1713 -0.4638 -0.3154
49124SOL     OW52691   3.333   5.052   2.329  0.4982  0.0741 -0.0589
49124SOL    HW152692   3.420   5.013   2.339  0.0250 -1.5124 -1.5616
49124SOL    HW252693   3.275   4.989   2.372 -0.1803 -0.3740 -1.5953
49125SOL     OW52694   7.780   7.107   9.817  0.3748  0.1202  0.4561
49125SOL    HW152695   7.730   7.048   9.872  1.6203 -0.5033  0.9649
49125SOL    HW252696   7.865   7.064   9.807 -0.1765 -0.4486 -3.0008
49126SOL     OW52697   0.180   7.816   2.490  0.2819 -0.0320 -0.1677
49126SOL    HW152698   0.211   7.753   2.425  0.7712  1.0412 -1.0111
49126SOL    HW252699   0.260   7.860   2.520 -0.0724  0.3418  0.2323
49127SOL     OW52700   8.601  11.649   8.506 -0.1015 -0.1368  0.7622
49127SOL    HW152701   8.507  11.666   8.505 -0.5468 -2.2986  1.2101
49127SOL    HW252702   8.640  11.730   8.472 -2.0658  0.9918  1.0256
49128SOL     OW52703   9.260   2.272   8.927 -0.0642  0.5769 -0.1635
49128SOL    HW152704   9.324   2.289   8.996  0.6654  1.2757 -0.9741
49128SOL    HW252705   9.308   2.221   8.862 -0.7821 -0.1933 -0.1150
49129SOL     OW52706   8.187   8.995   4.364  0.1253  0.3917 -0.1078
49129SOL    HW152707   8.240   9.039   4.297 -0.8503  0.2041 -1.0373
49129SOL    HW252708   8.198   8.902   4.345 -0.4586  0.3501 -0.2518
49130SOL     OW52709   6.028   5.839   2.084 -0.0868  0.1402 -0.4669
49130SOL    HW152710   6.071   5.860   2.168 -1.8896 -0.5640  0.6848
49130SOL    HW252711   5.940   5.812   2.109 -0.9623  0.7767 -2.6929
49131SOL     OW52712   1.716   8.071   0.001  0.0633 -0.2841 -0.4531
49131SOL    HW152713   1.631   8.026   0.004 -0.1542  0.0743 -1.0516
49131SOL    HW252714   1.773   8.012  -0.047 -0.2841  0.1680 -1.4380
49132SOL     OW52715   4.895   2.654   6.601 -0.4679  0.1368  0.5498
49132SOL    HW152716   4.835   2.587   6.571 -1.1322 -0.1166  2.3246
49132SOL    HW252717   4.864   2.735   6.560 -0.9671 -0.2834  0.0955
49133SOL     OW52718  10.857   0.250  11.122 -0.3145  0.2959  0.2046
49133SOL    HW152719  10.790   0.183  11.129 -0.8005  0.6838 -0.5765
49133SOL    HW252720  10.930   0.217  11.174 -0.3239 -1.1124 -0.6312
49134SOL     OW52721   9.874   2.265   9.866 -0.1714 -0.1050  0.0903
49134SOL    HW152722   9.931   2.195   9.833  1.4255  0.6742  1.0545
49134SOL    HW252723   9.884   2.335   9.801 -0.3090 -0.1011  0.0745
49135SOL     OW52724  10.906   8.886   3.330  0.3257 -0.1426  0.3019
49135SOL    HW152725  10.866   8.865   3.415  1.3572  1.8389  1.3482
49135SOL    HW252726  10.970   8.816   3.316 -0.6825 -1.1467  0.5432
49136SOL     OW52727   0.935   0.623   9.200  0.5762  0.1912  0.4932
49136SOL    HW152728   0.844   0.638   9.177  0.1947 -2.4534 -0.0775
49136SOL    HW252729   0.934   0.614   9.296  0.7756  2.8422  0.8277
49137SOL     OW52730   6.119   6.523   4.827  0.0547  0.3168 -0.0044
49137SOL    HW152731   6.165   6.592   4.875  0.0864  0.8313 -0.7476
49137SOL    HW252732   6.188   6.479   4.777  0.0346 -0.2590  0.4669
49138SOL     OW52733  11.402   9.776   3.389 -0.1000 -0.1806  0.0879
49138SOL    HW152734  11.377   9.848   3.447  0.5970  1.5473 -1.6469
49138SOL    HW252735  11.409   9.700   3.447 -0.4621  1.2092  2.0661
49139SOL     OW52736  11.221   4.802   3.040 -0.3118  0.1492 -0.0366
49139SOL    HW152737  11.272   4.738   2.991 -0.2492  0.0203  0.1962
49139SOL    HW252738  11.252   4.887   3.008  0.3843  0.0815  0.4383
49140SOL     OW52739   7.406   9.180   3.713  0.2309 -0.5287 -0.6727
49140SOL    HW152740   7.468   9.174   3.785 -0.1509  2.6353  0.0353
49140SOL    HW252741   7.326   9.140   3.748 -0.3136  1.9979  1.1919
49141SOL     OW52742   9.121   0.624   8.873 -0.0347 -0.2411 -0.1152
49141SOL    HW152743   9.170   0.585   8.800  0.9527 -0.3308  0.5769
49141SOL    HW252744   9.104   0.550   8.932  0.3521  0.0616  0.3841
49142SOL     OW52745   8.116  11.166  11.634 -0.1836 -0.2690  0.3673
49142SOL    HW152746   8.081  11.244  11.591  1.4965 -0.3923 -1.3528
49142SOL    HW252747   8.058  11.095  11.607 -2.2994  0.4109  2.7061
49143SOL     OW52748   4.862   9.287   7.928  0.3600  0.0159  0.5309
49143SOL    HW152749   4.781   9.237   7.927  0.8203 -0.8023  1.7713
49143SOL    HW252750   4.838   9.372   7.964 -0.2813  0.4738 -0.8923
49144SOL     OW52751   4.928   1.293   4.635 -0.0873 -0.1334 -0.0576
49144SOL    HW152752   4.919   1.376   4.587 -1.4719  0.4667  1.1542
49144SOL    HW252753   4.967   1.318   4.719 -1.3697 -0.5282  0.6920
49145SOL     OW52754   6.507   2.983   9.538 -0.8934  0.2548  0.2648
49145SOL    HW152755   6.503   3.056   9.600 -0.5210  1.6689 -1.2987
49145SOL    HW252756   6.418   2.948   9.538 -0.8218 -0.0084  1.8212
49146SOL     OW52757   2.103   8.122   8.682 -0.5435  0.7584  0.2403
49146SOL    HW152758   2.041   8.067   8.635  0.0408 -0.6081  1.0121
49146SOL    HW252759   2.113   8.200   8.627 -1.3973  0.0982 -0.8806
49147SOL     OW52760  10.452   8.282   0.529 -0.4602  0.1588  0.3914
49147SOL    HW152761  10.544   8.309   0.540 -0.7393  2.3746 -1.8281
49147SOL    HW252762  10.444   8.262   0.436 -2.1749 -0.2790  0.6071
49148SOL     OW52763   1.015   4.256   9.225 -0.2665 -0.7183 -0.2211
49148SOL    HW152764   0.971   4.341   9.229 -0.4410 -0.8559  1.0507
49148SOL    HW252765   0.955   4.200   9.176 -0.4228 -0.2750 -0.5432
49149SOL     OW52766   4.392   7.664   3.356 -0.0052  0.1645  0.3135
49149SOL    HW152767   4.355   7.576   3.350  1.4718 -0.4475 -0.5612
49149SOL    HW252768   4.409   7.689   3.265  2.0605  0.2061  0.6563
49150SOL     OW52769  11.639   6.503   4.327 -0.0139 -0.6841  0.4351
49150SOL    HW152770  11.734   6.510   4.331  0.0499 -1.8833  1.5574
49150SOL    HW252771  11.611   6.586   4.288  1.5979 -1.1565 -1.9218
49151SOL     OW52772   6.675   5.318   4.687  0.2406 -0.1688  0.2743
49151SOL    HW152773   6.617   5.243   4.701  0.3173 -0.0392  1.3347
49151SOL    HW252774   6.693   5.317   4.593  0.0272 -1.3169  0.2329
49152SOL     OW52775   1.211   0.507   3.511  0.6362  0.0991  0.2643
49152SOL    HW152776   1.251   0.532   3.428 -1.7619  0.0681 -0.9853
49152SOL    HW252777   1.251   0.423   3.533  2.8096  1.0891  0.2659
49153SOL     OW52778   7.688   5.478   4.468  0.5957 -0.1851 -0.1062
49153SOL    HW152779   7.652   5.486   4.380 -0.3021 -0.2548  0.2403
49153SOL    HW252780   7.769   5.530   4.466 -1.4217  3.2760  0.1161
49154SOL     OW52781   9.643   9.571   6.880  0.3020  0.0683 -0.5599
49154SOL    HW152782   9.733   9.547   6.899  0.5414 -0.5535 -2.2511
49154SOL    HW252783   9.598   9.488   6.864  0.3806  0.4757 -3.4174
49155SOL     OW52784  10.983  10.521   4.404 -0.0534  0.1537 -0.0995
49155SOL    HW152785  10.909  10.523   4.343 -0.5124 -0.2344  0.4288
49155SOL    HW252786  11.049  10.579   4.365 -0.3183 -0.1334 -0.9801
49156SOL     OW52787   6.396   8.316   7.482  0.1538  0.2717  0.3829
49156SOL    HW152788   6.418   8.291   7.392 -0.3873  0.1314  0.2830
49156SOL    HW252789   6.464   8.378   7.507  0.5072  0.0464 -0.0013
49157SOL     OW52790  10.741   5.256  10.238  0.1825  0.1189 -0.2522
49157SOL    HW152791  10.802   5.221  10.173  0.5140 -0.3459  0.2954
49157SOL    HW252792  10.673   5.189  10.244 -2.1122  1.9774 -3.1156
49158SOL     OW52793  10.968   7.679   5.547  0.1315  0.0119 -0.8113
49158SOL    HW152794  11.026   7.754   5.562  1.0253 -0.7430 -0.4044
49158SOL    HW252795  10.884   7.706   5.584  0.8397  0.2681  0.6786
49159SOL     OW52796   1.136   1.308   1.498  0.1323 -0.7275  0.2574
49159SOL    HW152797   1.208   1.293   1.558  0.0085 -1.5599  0.2037
49159SOL    HW252798   1.100   1.393   1.524 -0.3620 -1.3840  1.8192
49160SOL     OW52799   3.445   3.403   5.592 -0.0741 -0.2542 -0.0325
49160SOL    HW152800   3.455   3.471   5.525 -1.4572  0.5837  0.5555
49160SOL    HW252801   3.515   3.422   5.655  0.6026 -0.4328 -0.7107
49161SOL     OW52802   0.871   2.162   5.430  0.3968  0.2221 -0.0428
49161SOL    HW152803   0.943   2.099   5.428  0.7645  0.5475  1.6962
49161SOL    HW252804   0.880   2.206   5.514 -0.4643  1.9004 -0.7791
49162SOL     OW52805  10.595   8.766   4.239 -0.1117 -0.3285 -0.3504
49162SOL    HW152806  10.583   8.699   4.172 -3.2999  0.8065 -1.0838
49162SOL    HW252807  10.550   8.731   4.316  1.7761 -0.7389  0.6166
49163SOL     OW52808   0.709   4.694   7.405 -0.6463 -0.2285  0.1260
49163SOL    HW152809   0.763   4.755   7.455 -0.8124 -0.0343  0.0709
49163SOL    HW252810   0.655   4.750   7.349  0.1697 -0.4851 -0.9280
49164SOL     OW52811   5.703   0.609   0.093  0.0696  0.0563 -0.0771
49164SOL    HW152812   5.778   0.578   0.043  0.0556 -0.5546  0.2651
49164SOL    HW252813   5.659   0.671   0.035  1.1707  0.8739 -0.0467
49165SOL     OW52814  11.182  11.039   6.710  0.2289 -0.3839  0.1351
49165SOL    HW152815  11.276  11.035   6.692 -0.1040 -1.0027 -1.6766
49165SOL    HW252816  11.141  11.005   6.630 -1.5290 -0.4390  1.0167
49166SOL     OW52817  11.331   1.634   8.375 -0.4362 -0.7564 -0.1452
49166SOL    HW152818  11.276   1.658   8.449  0.1678  1.2233 -0.2907
49166SOL    HW252819  11.288   1.674   8.299  0.2478 -0.6797 -0.5047
49167SOL     OW52820  10.456   4.720   3.153 -0.1942  0.1730 -0.4091
49167SOL    HW152821  10.430   4.783   3.086 -0.4917  0.4862 -0.0041
49167SOL    HW252822  10.374   4.678   3.180 -0.1660  0.5145  0.2238
49168SOL     OW52823   3.599   0.801  11.295  0.4346  0.7756 -0.0910
49168SOL    HW152824   3.620   0.874  11.354  0.5446  0.1533  0.6609
49168SOL    HW252825   3.559   0.843  11.219  0.9972  1.6691  0.0792
49169SOL     OW52826   0.741   6.629   7.119  0.5762 -0.1788  0.3291
49169SOL    HW152827   0.684   6.554   7.100  1.8802 -1.3372  0.8224
49169SOL    HW252828   0.688   6.705   7.095 -0.2384 -1.2844 -1.6626
49170SOL     OW52829   9.161  10.059   1.261 -0.6334  0.3697 -0.5006
49170SOL    HW152830   9.193   9.969   1.257 -0.5569  0.3878 -0.3143
49170SOL    HW252831   9.199  10.094   1.342 -3.9133 -0.6978  1.7110
49171SOL     OW52832   1.630   5.229  10.301 -0.0758 -0.1485 -0.1782
49171SOL    HW152833   1.698   5.288  10.334 -0.4842  1.2914 -1.7668
49171SOL    HW252834   1.556   5.287  10.279  0.0459 -0.9411 -3.2239
49172SOL     OW52835   5.821   6.982   8.088 -0.6069 -0.1890  0.0898
49172SOL    HW152836   5.820   7.077   8.078 -0.0838 -0.1766  0.1563
49172SOL    HW252837   5.740   6.953   8.045 -1.1970  0.3506  0.8099
49173SOL     OW52838   5.512  10.978   3.820  0.6991  0.5974 -0.1154
49173SOL    HW152839   5.526  10.947   3.730 -1.3289  0.5572 -0.4649
49173SOL    HW252840   5.599  10.978   3.859  1.6188  0.4686 -2.0333
49174SOL     OW52841   6.625  10.792   9.767  0.2996  0.0632 -0.4199
49174SOL    HW152842   6.542  10.753   9.796  1.0132 -0.5878  0.8261
49174SOL    HW252843   6.617  10.794   9.672 -0.9440 -0.4623 -0.3596
49175SOL     OW52844   5.343  10.224   1.534  0.5169 -0.3675  0.1433
49175SOL    HW152845   5.331  10.299   1.476  0.4859 -0.0533  0.5535
49175SOL    HW252846   5.319  10.257   1.621  0.4815 -0.8574  0.3199
49176SOL     OW52847   7.145   3.679   7.036  0.4685 -0.1836  0.6959
49176SOL    HW152848   7.056   3.709   7.017 -0.4508 -2.5398  0.8759
49176SOL    HW252849   7.182   3.657   6.950 -0.6328 -2.9039  0.8176
49177SOL     OW52850   1.818   5.630   6.675  0.5584 -0.4866  0.1041
49177SOL    HW152851   1.890   5.621   6.613  0.6531  0.8320  0.0089
49177SOL    HW252852   1.778   5.715   6.655 -0.5140 -0.8210  0.6977
49178SOL     OW52853   0.627   6.117   6.961  0.0154  0.2770 -0.1362
49178SOL    HW152854   0.534   6.101   6.973  0.0285 -0.9038 -1.3826
49178SOL    HW252855   0.668   6.031   6.969  1.3623  1.0758  2.9670
49179SOL     OW52856   5.255   7.348   8.876  0.0316 -0.2957 -0.1240
49179SOL    HW152857   5.294   7.343   8.788  0.6709  1.7776 -0.0077
49179SOL    HW252858   5.328   7.367   8.934 -0.5816 -0.2942  0.6636
49180SOL     OW52859   1.343   5.243   8.741  0.4857 -0.4148  0.1186
49180SOL    HW152860   1.375   5.207   8.824  0.4902 -1.1463 -0.1940
49180SOL    HW252861   1.289   5.174   8.704  0.8679 -0.2789 -0.7205
49181SOL     OW52862   3.923   1.344  10.365  0.1615 -0.9241  0.1133
49181SOL    HW152863   3.982   1.361  10.291 -0.0842  0.4076  0.2098
49181SOL    HW252864   3.924   1.425  10.416 -1.0289 -1.2114  0.6212
49182SOL     OW52865   5.422   4.904   1.056  0.3780 -0.6436 -0.0944
49182SOL    HW152866   5.504   4.857   1.041  1.4842  1.7190 -2.1884
49182SOL    HW252867   5.357   4.858   1.003  0.9271 -1.0977 -0.3736
49183SOL     OW52868  11.272   2.092   8.780 -0.6133 -0.3154  0.1652
49183SOL    HW152869  11.278   2.148   8.857 -0.0589  0.3875 -0.3750
49183SOL    HW252870  11.350   2.114   8.728 -0.7107 -1.1436 -0.3492
49184SOL     OW52871   6.196   7.512   9.801  0.0222  0.3428  0.0870
49184SOL    HW152872   6.287   7.532   9.779  0.0926 -0.4936 -0.4006
49184SOL    HW252873   6.183   7.553   9.887  0.5334  1.3750 -0.3019
49185SOL     OW52874  10.491   6.878   9.508  0.0045 -0.3750 -0.0663
49185SOL    HW152875  10.479   6.815   9.580 -0.8701  1.0991  1.1305
49185SOL    HW252876  10.574   6.921   9.528  0.1396 -0.4881 -0.3764
49186SOL     OW52877  11.821   7.760   6.363 -0.1369  0.2952 -0.3073
49186SOL    HW152878  11.853   7.696   6.300 -2.2974  0.6249 -1.8454
49186SOL    HW252879  11.864   7.842   6.338 -0.9754  0.4212 -1.3798
49187SOL     OW52880   7.282  10.733  11.545  0.1926  0.2629  0.4430
49187SOL    HW152881   7.274  10.662  11.481  1.5356  0.0462  0.4842
49187SOL    HW252882   7.247  10.696  11.626  1.3636 -0.5472  0.5947
49188SOL     OW52883  10.591   2.124  11.702 -0.8430 -0.2416 -0.1469
49188SOL    HW152884  10.521   2.103  11.640  1.6672 -0.7847 -3.0427
49188SOL    HW252885  10.603   2.045  11.753 -1.6820 -0.4520 -0.2568
49189SOL     OW52886   7.583   9.900  10.097 -0.4450 -0.2493 -0.1326
49189SOL    HW152887   7.489   9.906  10.111 -0.4865 -1.2526  0.0637
49189SOL    HW252888   7.609   9.819  10.140  0.8255  0.9360  1.4913
49190SOL     OW52889  11.782   0.451   5.586 -0.0172  0.3585  0.6997
49190SOL    HW152890  11.761   0.539   5.617 -1.6997 -0.0940  0.9354
49190SOL    HW252891  11.713   0.430   5.523  0.6693 -0.5890  0.2392
49191SOL     OW52892   6.449   9.014   5.490  0.0303 -0.1343 -0.2936
49191SOL    HW152893   6.469   8.937   5.436  0.8132  0.6976 -1.2349
49191SOL    HW252894   6.387   9.064   5.438 -0.5952 -0.2019  0.3833
49192SOL     OW52895  10.746  11.485   5.335 -0.0493  0.0884 -0.2770
49192SOL    HW152896  10.824  11.443   5.300  0.4937  0.0113  0.9428
49192SOL    HW252897  10.714  11.424   5.401 -0.5615  0.5672 -0.0792
49193SOL     OW52898   8.974   4.513  10.793  0.2925  0.1203  0.4931
49193SOL    HW152899   9.025   4.588  10.761 -0.6959  1.9334  2.8621
49193SOL    HW252900   9.021   4.485  10.872 -0.3681 -0.6114  0.6356
49194SOL     OW52901   6.237   0.285  10.592  0.1096  0.7217 -0.6639
49194SOL    HW152902   6.276   0.202  10.564  0.4405  0.3137  0.8845
49194SOL    HW252903   6.302   0.352  10.567  0.7303  0.2997 -0.2026
49195SOL     OW52904   0.844  11.379   8.348 -0.6820 -0.1831  0.0384
49195SOL    HW152905   0.849  11.429   8.429  0.1601  0.2906 -0.2954
49195SOL    HW252906   0.824  11.445   8.281 -0.7237 -0.4725 -0.2349
49196SOL     OW52907   0.650   1.697   2.682 -0.0387 -0.2961 -0.3989
49196SOL    HW152908   0.727   1.696   2.739 -0.8612 -1.3131  0.7344
49196SOL    HW252909   0.686   1.709   2.594  1.4950 -1.6012  0.0075
49197SOL     OW52910   1.864   7.657  11.449  0.2379  0.1377 -0.1049
49197SOL    HW152911   1.787   7.641  11.503  0.4372 -2.3152 -0.4120
49197SOL    HW252912   1.936   7.665  11.513 -0.0254  0.8177  0.1143
49198SOL     OW52913  10.891   7.224   2.419 -0.4039 -0.6421 -0.5551
49198SOL    HW152914  10.851   7.303   2.457  0.3009 -1.2177  1.5135
49198SOL    HW252915  10.985   7.243   2.417 -0.3900 -0.7599 -1.7765
49199SOL     OW52916   5.580   0.033   6.155 -0.0052  0.0201  0.2167
49199SOL    HW152917   5.639   0.107   6.139 -0.3623 -0.1921 -2.4821
49199SOL    HW252918   5.555   0.003   6.068 -1.8871 -1.6934  1.2697
49200SOL     OW52919   5.203   8.832   7.851  0.2213 -0.0368  0.1241
49200SOL    HW152920   5.131   8.893   7.864  1.3820  1.2563  0.8253
49200SOL    HW252921   5.269   8.881   7.802 -0.3186 -1.9855 -2.8214
49201SOL     OW52922   4.954   4.006   9.055 -0.2642 -0.0976 -0.0353
49201SOL    HW152923   4.945   3.997   9.150 -0.4901 -0.6869 -0.1059
49201SOL    HW252924   5.010   4.082   9.043 -0.8074  0.4081  0.5579
49202SOL     OW52925  10.640   2.964   0.681 -0.0720  0.4238 -0.2775
49202SOL    HW152926  10.562   2.954   0.735  1.2543 -1.4799  1.4303
49202SOL    HW252927  10.713   2.958   0.743  1.4889  0.8423 -1.9796
49203SOL     OW52928   4.446   4.190   7.299 -0.0811  0.1272  0.6631
49203SOL    HW152929   4.533   4.168   7.268 -0.4267  0.0345 -0.2781
49203SOL    HW252930   4.460   4.240   7.379  0.8007 -0.8586  1.1441
49204SOL     OW52931   2.059  11.241   7.955  0.5064 -0.2424  0.1732
49204SOL    HW152932   1.973  11.207   7.932 -0.1250 -0.4133  2.5986
49204SOL    HW252933   2.118  11.200   7.891 -0.9115 -1.8701 -0.1731
49205SOL     OW52934   5.950   7.537   0.434  0.0224 -0.2201  0.1126
49205SOL    HW152935   5.949   7.445   0.462  1.9037  0.5052  3.0342
49205SOL    HW252936   5.980   7.534   0.343 -0.0699 -2.4878  0.0950
49206SOL     OW52937   7.612   9.798   0.981 -0.3448  0.2133  0.1948
49206SOL    HW152938   7.683   9.818   0.920 -0.5025  1.8359  0.4811
49206SOL    HW252939   7.593   9.706   0.967  2.1470 -0.4134  0.4747
49207SOL     OW52940   0.348   6.744   5.204 -0.1348 -0.0126  0.0589
49207SOL    HW152941   0.333   6.768   5.113 -1.5890 -1.0553 -0.0075
49207SOL    HW252942   0.349   6.648   5.205  0.7595 -0.0250  1.0265
49208SOL     OW52943   8.705   8.234   8.124 -0.2744 -0.0159 -0.2110
49208SOL    HW152944   8.779   8.236   8.063 -1.3622 -0.7846 -1.6149
49208SOL    HW252945   8.668   8.147   8.114 -2.5100  0.9413 -0.9998
49209SOL     OW52946   4.635   3.413   3.933  0.2323 -0.5898 -0.0622
49209SOL    HW152947   4.572   3.486   3.934  1.4712  0.5837  2.7499
49209SOL    HW252948   4.704   3.443   3.874 -0.4775 -0.6804 -0.9739
49210SOL     OW52949   2.943   9.107   7.688 -0.1708  0.1743  0.2741
49210SOL    HW152950   2.903   9.167   7.626  0.2588  0.2009  0.0134
49210SOL    HW252951   2.926   9.145   7.774 -2.4599 -0.8419  0.3527
49211SOL     OW52952   8.345   2.772   9.408  0.7029 -0.1434 -0.1595
49211SOL    HW152953   8.417   2.809   9.357  0.3205  0.6352 -0.1503
49211SOL    HW252954   8.268   2.782   9.353  0.4074  0.0741  0.2794
49212SOL     OW52955   6.908   1.446   2.542  0.1515  0.0048 -0.2848
49212SOL    HW152956   6.933   1.395   2.619  1.4131  0.3859 -0.4252
49212SOL    HW252957   6.990   1.466   2.498 -0.5452 -0.3491 -1.8361
49213SOL     OW52958   0.848   5.497   4.871 -1.0998 -0.7799 -0.2719
49213SOL    HW152959   0.759   5.521   4.894 -0.7737 -0.2473  0.4819
49213SOL    HW252960   0.899   5.517   4.949 -0.3857 -1.4789 -0.5454
49214SOL     OW52961   8.598  10.271   0.467 -0.1881  0.0298 -0.3538
49214SOL    HW152962   8.657  10.211   0.421  1.2665  0.9679  0.2197
49214SOL    HW252963   8.584  10.230   0.552 -0.2103 -0.1059 -0.4230
49215SOL     OW52964   0.655   4.270   4.095 -0.0169 -0.4812  0.3933
49215SOL    HW152965   0.592   4.326   4.141  0.9307 -0.5841  1.8943
49215SOL    HW252966   0.737   4.319   4.099 -0.0308 -0.2079 -1.8131
49216SOL     OW52967   2.076  10.790   6.695 -0.5771 -0.1493  0.1711
49216SOL    HW152968   2.051  10.698   6.693 -0.1097 -0.2730 -0.0633
49216SOL    HW252969   2.162  10.793   6.654 -1.4225  0.6674 -1.6309
49217SOL     OW52970   5.586   9.872   6.407 -0.2605  0.1504  0.1887
49217SOL    HW152971   5.676   9.848   6.387 -0.6807 -0.6127 -0.9645
49217SOL    HW252972   5.589   9.912   6.494  0.9085 -1.6910  1.0505
49218SOL     OW52973   3.989   9.042   9.152 -0.9455  0.2535  0.4346
49218SOL    HW152974   4.076   9.022   9.185 -0.4361  0.4391 -0.7401
49218SOL    HW252975   3.973   8.975   9.085 -1.1350  1.0148 -0.2969
49219SOL     OW52976   8.728  11.584  10.929 -0.4281  0.3017  0.1564
49219SOL    HW152977   8.691  11.515  10.874  1.5550 -1.0364  0.4138
49219SOL    HW252978   8.743  11.657  10.869 -0.5775 -0.2482 -0.5643
49220SOL     OW52979   8.509  11.487   5.649  0.7180 -0.0564 -0.1046
49220SOL    HW152980   8.547  11.403   5.621 -0.1208 -0.1539 -1.0073
49220SOL    HW252981   8.494  11.477   5.743  3.7551  0.3246  0.5479
49221SOL     OW52982   5.186   8.831   5.156  0.0176  0.0390 -0.4610
49221SOL    HW152983   5.263   8.886   5.157  0.5501 -0.6898  0.7164
49221SOL    HW252984   5.122   8.877   5.211 -0.3947  0.6233 -1.4052
49222SOL     OW52985   6.818   9.722   0.989 -0.6759  0.0377  0.2106
49222SOL    HW152986   6.808   9.653   0.924  2.2483 -0.6335  0.3209
49222SOL    HW252987   6.821   9.675   1.073  4.3332 -0.2902  0.1065
49223SOL     OW52988   4.633   2.627   6.256  0.1597 -0.1506 -0.0434
49223SOL    HW152989   4.601   2.575   6.330 -0.2945 -0.4072 -0.4146
49223SOL    HW252990   4.556   2.675   6.226  0.4414  0.2831 -0.0849
49224SOL     OW52991  10.448   6.680   1.053  0.2018  0.7065 -0.3357
49224SOL    HW152992  10.389   6.610   1.080  0.7500 -0.2213 -1.4921
49224SOL    HW252993  10.477   6.720   1.136 -0.4296 -0.1498  0.3133
49225SOL     OW52994  10.403   0.654   7.180  0.7328 -0.2001  0.7701
49225SOL    HW152995  10.384   0.725   7.242 -0.2830 -0.7263  1.0900
49225SOL    HW252996  10.459   0.594   7.229  1.2177  0.1575  0.6522
49226SOL     OW52997  11.740   3.893   9.631  0.9317 -0.1448 -0.6810
49226SOL    HW152998  11.788   3.822   9.588  2.0990  0.1156  0.1648
49226SOL    HW252999  11.776   3.897   9.719 -0.2990  0.4081 -0.1888
49227SOL     OW53000   1.902   1.874   6.854 -0.6556  0.8067 -0.4641
49227SOL    HW153001   1.995   1.891   6.869 -0.3734 -0.8463 -0.1331
49227SOL    HW253002   1.900   1.802   6.791 -1.6757 -0.1035  0.5674
49228SOL     OW53003  11.636   0.420  10.245 -0.4753  0.0466 -0.1482
49228SOL    HW153004  11.706   0.361  10.272 -1.3105  0.7508  4.3770
49228SOL    HW253005  11.680   0.492  10.201  1.0597 -1.5913 -1.4110
49229SOL     OW53006   5.320   2.418   0.121 -0.2419 -0.7704 -0.0988
49229SOL    HW153007   5.334   2.510   0.095 -0.7564 -0.4937  0.5739
49229SOL    HW253008   5.225   2.409   0.124 -0.1902 -1.2881 -0.0020
49230SOL     OW53009   3.519   6.289   0.241 -0.4316 -0.0019  0.5523
49230SOL    HW153010   3.439   6.251   0.205  0.2037 -0.1456 -0.7681
49230SOL    HW253011   3.583   6.218   0.239  0.4229  0.7585 -0.7966
49231SOL     OW53012   9.343   9.953   9.908  0.3988 -1.0096  0.2755
49231SOL    HW153013   9.434   9.975   9.887  0.2957 -1.7949 -1.1208
49231SOL    HW253014   9.320   9.884   9.845 -1.9056  0.7681 -0.9995
49232SOL     OW53015   2.760   5.396   2.681 -0.2427  0.1301 -0.2208
49232SOL    HW153016   2.669   5.370   2.686 -0.4793  1.1293  1.9823
49232SOL    HW253017   2.773   5.423   2.590 -2.3017  0.5146 -0.4461
49233SOL     OW53018   5.325   1.219   0.539 -0.3859 -0.3389  0.8044
49233SOL    HW153019   5.412   1.242   0.571  0.3332  1.0320 -1.8047
49233SOL    HW253020   5.264   1.261   0.599  0.7746 -0.3392  2.0117
49234SOL     OW53021   6.233   7.718  11.331  0.1868 -0.2571 -0.0488
49234SOL    HW153022   6.280   7.698  11.250  1.3138  0.6979  0.3439
49234SOL    HW253023   6.145   7.743  11.303  0.5242 -0.0747 -0.9631
49235SOL     OW53024   0.298   9.242  11.160 -0.5820  0.0250 -0.0104
49235SOL    HW153025   0.252   9.163  11.188 -0.1470 -0.5180 -0.7879
49235SOL    HW253026   0.348   9.269  11.237 -0.4558 -0.6639  0.1573
49236SOL     OW53027   5.146   6.568   8.599 -0.0333  0.4055 -0.0912
49236SOL    HW153028   5.093   6.517   8.538  0.8730 -0.8159  0.1215
49236SOL    HW253029   5.150   6.514   8.678 -1.2103  1.9605  1.1033
49237SOL     OW53030   8.771   2.638   8.488 -0.0548  0.3140  0.1560
49237SOL    HW153031   8.849   2.603   8.447 -0.2376 -0.6636  0.6167
49237SOL    HW253032   8.801   2.714   8.537  0.5452  0.1422  0.0558
49238SOL     OW53033   2.855  11.082   9.237  0.0941 -0.0276  0.4003
49238SOL    HW153034   2.888  11.167   9.269 -0.6308  0.5606 -0.3691
49238SOL    HW253035   2.784  11.105   9.178 -0.6243 -1.2228  0.7792
49239SOL     OW53036   4.613  10.779   5.211 -0.1885  0.3338 -0.5861
49239SOL    HW153037   4.576  10.700   5.250  0.3041  0.4916  0.2350
49239SOL    HW253038   4.539  10.840   5.204 -0.3481  0.1877 -0.1788
49240SOL     OW53039   6.636  11.422   6.886 -0.2138 -0.0943 -0.3350
49240SOL    HW153040   6.599  11.391   6.969 -0.6342  0.0271 -0.4781
49240SOL    HW253041   6.731  11.410   6.897 -0.3334 -1.0329 -0.2210
49241SOL     OW53042   4.215   5.101  10.104  0.2156  0.0567 -0.2513
49241SOL    HW153043   4.143   5.111  10.041 -1.1330 -1.1571  0.9988
49241SOL    HW253044   4.234   5.190  10.133  0.3016  0.5474 -1.7595
49242SOL     OW53045   1.574   3.238   7.901  0.2414  0.4381 -0.1174
49242SOL    HW153046   1.575   3.295   7.824 -2.2545  0.4006 -0.2421
49242SOL    HW253047   1.518   3.165   7.877 -0.0758  0.1075  1.5096
49243SOL     OW53048   0.442   5.103   9.082 -0.1503  0.1735  0.3453
49243SOL    HW153049   0.526   5.069   9.050  0.2133 -0.3165  1.7747
49243SOL    HW253050   0.466   5.175   9.140 -0.6316 -0.8377  1.8375
49244SOL     OW53051   8.832  11.252   7.148 -0.0165  0.6404 -0.4378
49244SOL    HW153052   8.887  11.176   7.129 -1.6269 -0.5922 -0.3354
49244SOL    HW253053   8.884  11.327   7.118  1.7129 -0.4571 -0.3142
49245SOL     OW53054   3.725  11.814   8.453 -0.1231  0.0672 -0.0063
49245SOL    HW153055   3.683  11.752   8.513 -0.1483  0.1159  0.0262
49245SOL    HW253056   3.785  11.865   8.509  2.6911 -2.3386 -0.5591
49246SOL     OW53057   0.224   1.178   4.597  0.1706 -0.0725  0.2206
49246SOL    HW153058   0.164   1.135   4.536 -0.7182 -1.8495  2.2145
49246SOL    HW253059   0.311   1.155   4.566 -0.1541  1.1086 -1.7316
49247SOL     OW53060   6.241  10.372   2.252  0.0467 -0.0189  0.8938
49247SOL    HW153061   6.266  10.284   2.222 -0.2622 -0.7600  2.7324
49247SOL    HW253062   6.176  10.357   2.320  1.9863  1.4712  3.2305
49248SOL     OW53063   2.818   6.764   8.286  0.0220  0.0934  0.2358
49248SOL    HW153064   2.834   6.858   8.275 -0.2395 -0.1001 -2.8012
49248SOL    HW253065   2.739   6.747   8.235  0.7153 -1.9445 -0.2477
49249SOL     OW53066   0.386   5.050   3.327 -0.3336 -0.4741  0.3193
49249SOL    HW153067   0.476   5.082   3.338 -0.9983  1.4207  0.5039
49249SOL    HW253068   0.380   4.976   3.388  1.1253 -0.6958  0.2344
49250SOL     OW53069   9.314   4.859  10.310 -0.1523 -0.0917  0.2461
49250SOL    HW153070   9.316   4.852  10.406 -0.6310  0.1639  0.2754
49250SOL    HW253071   9.228   4.827  10.285 -0.3823  0.7311 -0.0262
49251SOL     OW53072   0.301   2.541   2.187  0.0413  0.7467  0.3030
49251SOL    HW153073   0.287   2.490   2.267  1.5589 -0.1827  0.0057
49251SOL    HW253074   0.235   2.507   2.126  0.2121  0.0196  0.5135
49252SOL     OW53075  10.539   8.243   8.027  0.7657 -0.4631  0.1671
49252SOL    HW153076  10.538   8.336   8.005  0.0947 -0.0577  1.7702
49252SOL    HW253077  10.447   8.219   8.034  0.9272 -1.2946 -0.3228
49253SOL     OW53078  10.912   3.013   9.621 -0.3355 -0.1219 -0.2819
49253SOL    HW153079  10.832   3.014   9.568 -0.4399  1.1135 -0.1431
49253SOL    HW253080  10.983   3.008   9.557 -0.4974 -0.0964 -0.4659
49254SOL     OW53081   5.708   4.105   7.272 -0.0082  0.0917  0.2716
49254SOL    HW153082   5.742   4.169   7.335 -0.6002  0.3007  0.3817
49254SOL    HW253083   5.647   4.155   7.217  1.0085  0.0691 -0.9219
49255SOL     OW53084   4.511   7.738  10.114  0.3171  0.2939  0.1500
49255SOL    HW153085   4.481   7.826  10.136 -1.0208 -0.1712  0.3060
49255SOL    HW253086   4.464   7.716  10.034  0.4720 -0.3513  0.2332
49256SOL     OW53087   9.371   2.090   3.771  0.3649  0.3373 -0.6902
49256SOL    HW153088   9.463   2.107   3.788  0.2578  1.1193 -0.8364
49256SOL    HW253089   9.369   2.052   3.683  0.6486 -0.9074 -0.1856
49257SOL     OW53090   7.662   4.749   2.092 -0.7023  0.4052 -0.0616
49257SOL    HW153091   7.681   4.755   2.185 -0.0271  0.7937 -0.2140
49257SOL    HW253092   7.624   4.661   2.080 -1.8484  0.7700  0.7414
49258SOL     OW53093  11.818   4.818  10.171  0.0002 -0.3699 -0.2635
49258SOL    HW153094  11.876   4.891  10.188 -0.1687 -0.0458 -1.0837
49258SOL    HW253095  11.735   4.858  10.143  0.1066 -0.8759 -1.3502
49259SOL     OW53096   8.607   9.896   9.498  0.2667 -0.1672  0.1223
49259SOL    HW153097   8.587   9.803   9.486  1.6079 -0.1555 -3.1431
49259SOL    HW253098   8.628   9.904   9.591 -2.0036 -2.6373  0.9691
49260SOL     OW53099  11.761   1.913  10.278 -0.1904  0.2962  0.1494
49260SOL    HW153100  11.737   1.981  10.341  0.6123 -0.4792  1.3353
49260SOL    HW253101  11.706   1.838  10.302  0.5578 -0.2028  0.3439
49261SOL     OW53102   8.082  10.247   0.666  0.6948 -0.3257 -0.2266
49261SOL    HW153103   8.101  10.341   0.668  0.8297 -0.3580  1.0109
49261SOL    HW253104   8.042  10.232   0.581 -1.9854  1.3792  0.6151
49262SOL     OW53105   4.323   4.873   1.578  0.5591 -0.0066 -0.2084
49262SOL    HW153106   4.364   4.810   1.638  0.8396  0.9401  0.6299
49262SOL    HW253107   4.396   4.912   1.531  0.5252  0.6529  0.2594
49263SOL     OW53108  10.035   3.244   0.241  0.1882 -0.4113 -0.5740
49263SOL    HW153109  10.054   3.252   0.147  0.5015 -1.5760 -0.6324
49263SOL    HW253110  10.050   3.331   0.277 -2.1964  0.6871 -1.9944
49264SOL     OW53111   4.828   6.309   7.971 -0.3631  0.0870  0.1421
49264SOL    HW153112   4.831   6.251   8.047 -0.1420  0.6635  0.5759
49264SOL    HW253113   4.916   6.303   7.933 -0.7985 -1.1071 -0.7728
49265SOL     OW53114   4.063   6.051   7.019  0.3585 -0.4762  0.3588
49265SOL    HW153115   3.985   6.106   7.026  0.0800 -0.6588 -0.9503
49265SOL    HW253116   4.055   5.987   7.089 -0.9488 -0.8237 -0.0888
49266SOL     OW53117   2.153   2.442   8.201  0.1180 -0.1869 -0.2643
49266SOL    HW153118   2.108   2.509   8.252  2.1868 -0.5546  2.2638
49266SOL    HW253119   2.130   2.360   8.244 -1.5308 -1.1027 -2.6786
49267SOL     OW53120  10.523   4.190  10.212 -0.5914  0.3881 -0.1198
49267SOL    HW153121  10.559   4.250  10.148 -1.4526  0.2164 -0.7767
49267SOL    HW253122  10.598   4.163  10.265  0.0516  0.8542 -0.7855
49268SOL     OW53123  11.673   0.257   4.789  0.1989 -0.4084 -0.5503
49268SOL    HW153124  11.650   0.188   4.726 -0.7542 -0.6874  0.0929
49268SOL    HW253125  11.663   0.338   4.739  0.3470 -0.6725 -1.0225
49269SOL     OW53126  10.398  10.287   6.463 -0.4214 -0.1107 -0.9295
49269SOL    HW153127  10.349  10.305   6.543 -0.7696  1.0250 -1.3806
49269SOL    HW253128  10.363  10.203   6.432 -2.0251  0.6251 -1.1850
49270SOL     OW53129   5.677   7.172  10.501 -0.5520 -0.3894  0.2216
49270SOL    HW153130   5.641   7.084  10.514 -1.4593  0.0536  0.8152
49270SOL    HW253131   5.706   7.199  10.588 -1.9163  0.5838  0.4135
49271SOL     OW53132  11.673   5.456   7.855  0.1634  0.6155  0.4717
49271SOL    HW153133  11.752   5.475   7.907  0.5163 -0.5027  0.3688
49271SOL    HW253134  11.626   5.391   7.907 -0.4934  0.9738  0.3316
49272SOL     OW53135   8.583  11.203   3.633  0.1803 -0.6363  0.1958
49272SOL    HW153136   8.647  11.269   3.609 -1.7081  1.0274 -0.4555
49272SOL    HW253137   8.636  11.127   3.658  2.3592  0.2076 -1.5563
49273SOL     OW53138   7.851   9.882   3.549 -0.1476 -0.2064 -0.5291
49273SOL    HW153139   7.903   9.865   3.470 -0.5332  0.8649 -1.0436
49273SOL    HW253140   7.890   9.960   3.587  2.4208 -2.6965  2.5149
49274SOL     OW53141   8.864   7.827   2.194  0.1453 -0.1114 -0.0999
49274SOL    HW153142   8.925   7.830   2.120  0.5420 -0.9361  0.1858
49274SOL    HW253143   8.788   7.779   2.160 -0.5633  1.3025 -0.5946
49275SOL     OW53144   8.443   3.099   4.226  1.0608 -0.3409 -0.0831
49275SOL    HW153145   8.448   3.188   4.260 -1.6394  0.7496 -2.1904
49275SOL    HW253146   8.385   3.053   4.287  1.1842 -0.2275  0.1213
49276SOL     OW53147   1.779   2.943   9.132 -0.3955  0.7502 -0.0836
49276SOL    HW153148   1.738   2.909   9.211 -2.0856 -1.4651 -1.7625
49276SOL    HW253149   1.737   3.027   9.116 -0.6426  0.8150  0.8904
49277SOL     OW53150   8.612   6.654   4.546 -0.0053 -0.2175  0.1268
49277SOL    HW153151   8.557   6.723   4.583  0.6728  1.5905 -2.0186
49277SOL    HW253152   8.580   6.643   4.457  0.5050 -2.0562  0.1401
49278SOL     OW53153  10.258  11.108   9.804 -0.3168 -0.0027 -0.1754
49278SOL    HW153154  10.313  11.171   9.758  1.3390 -2.6331 -2.0597
49278SOL    HW253155  10.169  11.127   9.774  0.3307  0.5189 -1.8431
49279SOL     OW53156   8.429   9.959   7.915  0.4868  0.8337  0.6542
49279SOL    HW153157   8.437   9.864   7.911  0.3900  0.5728  3.9486
49279SOL    HW253158   8.341   9.975   7.949  0.4357  2.1155 -0.0129
49280SOL     OW53159   8.341  10.561   2.990 -0.3261  0.6649  0.0760
49280SOL    HW153160   8.319  10.626   2.924  0.0309  0.2319 -0.4805
49280SOL    HW253161   8.323  10.477   2.947 -1.7289  0.4115  1.1176
49281SOL     OW53162   2.145   2.223   8.400 -0.6888  0.1586  0.0034
49281SOL    HW153163   2.127   2.291   8.466 -1.6106 -0.7316  0.6938
49281SOL    HW253164   2.225   2.181   8.430  0.3839  1.4675 -0.8910
49282SOL     OW53165   8.580  11.051  11.439  0.5776  0.1370  0.1781
49282SOL    HW153166   8.514  10.982  11.444 -0.0114  0.6712 -0.1780
49282SOL    HW253167   8.539  11.128  11.479  0.5304  0.8041 -1.0887
49283SOL     OW53168   8.334   4.252  10.476 -0.2770 -0.3521 -0.0205
49283SOL    HW153169   8.397   4.239  10.405 -1.6431 -0.2191 -1.3074
49283SOL    HW253170   8.357   4.337  10.513  0.0913 -0.1505 -0.6911
49284SOL     OW53171  10.098   6.984   8.848 -0.2064  0.7754 -0.2855
49284SOL    HW153172  10.064   7.002   8.761 -0.9770 -0.0923 -0.1855
49284SOL    HW253173  10.065   7.055   8.903 -0.2157  0.9982 -0.5783
49285SOL     OW53174   6.339   5.925   0.979 -0.2940 -0.0117  0.4334
49285SOL    HW153175   6.250   5.915   1.014 -0.6629  0.4685 -0.3471
49285SOL    HW253176   6.364   6.014   1.003 -1.5512  1.2981 -2.6516
49286SOL     OW53177   7.434   0.483   2.806 -0.4150  0.7841  0.3996
49286SOL    HW153178   7.501   0.526   2.754  0.0693  2.0228  1.9654
49286SOL    HW253179   7.458   0.501   2.897 -3.0345  1.5953  1.0301
49287SOL     OW53180   7.352   0.620   8.793  0.0318 -0.4626  0.6307
49287SOL    HW153181   7.270   0.571   8.798  0.4199 -1.0953  0.9441
49287SOL    HW253182   7.407   0.569   8.734  0.2347 -0.0896  0.4924
49288SOL     OW53183   9.617   4.969  11.117 -0.1527  0.0834  0.0680
49288SOL    HW153184   9.533   4.996  11.081 -1.0677 -0.9595  1.3340
49288SOL    HW253185   9.666   4.935  11.042 -1.0531  0.2473 -0.6046
49289SOL     OW53186   5.584   4.889   9.951 -0.2355 -0.9688  0.3579
49289SOL    HW153187   5.493   4.891   9.982 -1.5343 -0.6988 -3.0502
49289SOL    HW253188   5.610   4.981   9.950 -0.3285 -0.9445  0.2265
49290SOL     OW53189   0.928   3.399   0.777  0.0113  0.6994 -0.2254
49290SOL    HW153190   0.840   3.421   0.805  0.0405  1.0874 -0.4281
49290SOL    HW253191   0.921   3.309   0.746 -0.2262  0.5960  0.1235
49291SOL     OW53192   4.942   6.367   4.276  0.5164 -0.2327 -0.7629
49291SOL    HW153193   5.015   6.407   4.227  0.0565  0.1423 -1.1496
49291SOL    HW253194   4.875   6.352   4.210  0.4461 -1.0860 -0.5006
49292SOL     OW53195   8.297   3.058   0.489  0.1573 -0.0330 -0.5858
49292SOL    HW153196   8.238   2.984   0.478  0.9188 -0.9140  0.9063
49292SOL    HW253197   8.383   3.024   0.464  0.6820  0.0098  1.0296
49293SOL     OW53198   5.749   9.730  11.394 -0.6338 -0.3618  0.0255
49293SOL    HW153199   5.772   9.660  11.456  0.3864  0.0906  0.1834
49293SOL    HW253200   5.668   9.700  11.353 -2.0024 -0.1750  2.3748
49294SOL     OW53201   3.341   6.562   6.990  0.0690  1.6162 -0.0592
49294SOL    HW153202   3.340   6.658   6.998 -0.3366  1.5098  1.7058
49294SOL    HW253203   3.250   6.536   7.000  0.2878  1.0009  0.3768
49295SOL     OW53204   8.954   4.945   5.948  0.0518 -0.4765 -0.0860
49295SOL    HW153205   8.953   4.850   5.934  1.3755 -0.4899 -0.2428
49295SOL    HW253206   9.014   4.958   6.021  1.0848  0.3200 -1.0319
49296SOL     OW53207   1.267   3.548   9.934 -0.1937  0.3854 -0.2105
49296SOL    HW153208   1.276   3.509   9.847 -1.3159 -2.2958  0.7397
49296SOL    HW253209   1.193   3.608   9.927 -1.4325 -1.1276 -0.7759
49297SOL     OW53210   4.382   4.673   3.690 -0.0740 -0.2100 -0.3562
49297SOL    HW153211   4.356   4.584   3.665  0.8874 -1.0960  1.5635
49297SOL    HW253212   4.382   4.672   3.785  1.6390  1.3472 -0.2824
49298SOL     OW53213   8.257   6.341   9.087  0.3224 -0.7073 -0.2419
49298SOL    HW153214   8.332   6.400   9.098  0.0893  0.1852 -2.6866
49298SOL    HW253215   8.181   6.399   9.089 -0.2568 -1.4870  1.2419
49299SOL     OW53216  10.501   2.726   6.687  0.1778 -0.1848  0.3162
49299SOL    HW153217  10.448   2.680   6.621 -3.6975  0.1369  2.8771
49299SOL    HW253218  10.518   2.659   6.753 -0.4907  0.6695  1.3692
49300SOL     OW53219   4.132   3.052   2.955  0.3933  0.2213  0.0059
49300SOL    HW153220   4.076   3.014   2.887  1.7823 -1.8204 -0.0513
49300SOL    HW253221   4.088   3.031   3.037 -0.2272  0.9029 -0.1383
49301SOL     OW53222   4.407   8.878   3.027  0.0697  0.6207  0.0679
49301SOL    HW153223   4.388   8.827   3.106 -0.5049 -2.0128 -1.6418
49301SOL    HW253224   4.323   8.917   3.004  0.1839  1.1996  0.6132
49302SOL     OW53225   7.320   5.949   6.656  0.0774 -0.5223  0.0047
49302SOL    HW153226   7.234   5.988   6.640 -0.5832 -1.9735 -0.1045
49302SOL    HW253227   7.357   5.936   6.569  0.0131 -0.7399  0.0089
49303SOL     OW53228  10.884   6.862   7.004 -0.3004 -0.8010  0.7203
49303SOL    HW153229  10.809   6.803   7.014 -0.3640 -1.2237 -1.5093
49303SOL    HW253230  10.956   6.804   6.978  0.4625 -0.2339  1.5190
49304SOL     OW53231   4.273   1.270  10.555  0.0483  0.0015  0.0698
49304SOL    HW153232   4.222   1.232  10.626 -2.5588  2.5810 -0.2469
49304SOL    HW253233   4.237   1.231  10.475  0.3029 -0.0062 -0.0428
49305SOL     OW53234   0.060   4.158   1.286 -0.0307 -0.4092 -0.0148
49305SOL    HW153235   0.091   4.175   1.198  1.3197  2.3688  0.8875
49305SOL    HW253236   0.127   4.195   1.344 -2.2154  0.5463  2.1111
49306SOL     OW53237   3.218   6.516   7.835  0.1595  0.0188  0.4262
49306SOL    HW153238   3.161   6.453   7.880  3.3223 -1.5565  2.5805
49306SOL    HW253239   3.243   6.579   7.903  0.2634  1.2532 -0.7136
49307SOL     OW53240   8.160   3.842   4.658 -0.3585  0.3032 -0.1536
49307SOL    HW153241   8.219   3.904   4.615  0.3550 -0.0617  0.2843
49307SOL    HW253242   8.136   3.884   4.740  0.1780 -0.0264  0.1730
49308SOL     OW53243   8.739   6.200   6.430 -0.0521 -0.3114  0.3736
49308SOL    HW153244   8.669   6.250   6.472  0.1822  1.6649 -1.4092
49308SOL    HW253245   8.800   6.267   6.398  2.3712 -1.9392  1.3264
49309SOL     OW53246   0.951   6.147   0.501  0.4189 -0.0889  0.1499
49309SOL    HW153247   0.957   6.186   0.414 -1.4292 -1.9415 -0.8661
49309SOL    HW253248   0.908   6.215   0.554  0.8393  0.7389 -0.5329
49310SOL     OW53249   2.055   6.923   7.450 -0.3991 -1.0331  0.3352
49310SOL    HW153250   1.966   6.891   7.433 -0.6726 -1.4709  2.2861
49310SOL    HW253251   2.112   6.850   7.425 -0.3021  0.0501 -3.1367
49311SOL     OW53252   4.908   1.217  11.433 -0.1948 -0.5236 -0.1675
49311SOL    HW153253   4.855   1.286  11.473  0.1114  0.2644 -1.0897
49311SOL    HW253254   4.888   1.222  11.340 -0.9903 -2.4178 -0.1338
49312SOL     OW53255  10.993  10.252   0.248 -0.1142  0.6442 -0.2462
49312SOL    HW153256  10.921  10.244   0.311  1.4421  0.1192  1.5373
49312SOL    HW253257  11.042  10.329   0.276  0.3064  0.7221 -1.1570
49313SOL     OW53258  10.567   5.436   2.141  0.2378  0.1729  0.1234
49313SOL    HW153259  10.495   5.498   2.124  0.9215  0.9835  0.1008
49313SOL    HW253260  10.541   5.356   2.096 -0.8941  0.2855  0.5488
49314SOL     OW53261   6.167   1.348   5.759 -0.3996  0.2322 -0.3783
49314SOL    HW153262   6.078   1.359   5.791 -1.3833 -1.5449 -2.2538
49314SOL    HW253263   6.173   1.255   5.738  1.9343  0.3045 -0.2493
49315SOL     OW53264  10.608   7.587   2.784  0.0682 -0.4856  0.2987
49315SOL    HW153265  10.594   7.495   2.807 -0.4593 -1.3043 -2.7915
49315SOL    HW253266  10.704   7.597   2.782  0.1263 -0.9040  0.7933
49316SOL     OW53267   4.929   2.809  11.099  0.1598 -0.5436  0.5642
49316SOL    HW153268   5.022   2.815  11.122  0.2038 -0.9794  0.5141
49316SOL    HW253269   4.929   2.791  11.005 -0.0359  1.9571  0.0228
49317SOL     OW53270   4.634  10.506   3.674  0.1566  0.0977 -0.5129
49317SOL    HW153271   4.567  10.485   3.739 -0.9304  1.6385 -1.0914
49317SOL    HW253272   4.647  10.600   3.682 -0.2226  0.3895 -2.7031
49318SOL     OW53273   8.624   6.640   3.015 -0.1085 -0.2793  0.3256
49318SOL    HW153274   8.623   6.707   2.947 -0.2971 -0.4312  0.1774
49318SOL    HW253275   8.635   6.689   3.097  1.0401 -0.1616  0.1187
49319SOL     OW53276   4.963  11.282   7.110 -0.0726  0.3553 -0.1344
49319SOL    HW153277   4.999  11.276   7.199  2.4089  1.4598 -0.9696
49319SOL    HW253278   4.986  11.370   7.082  2.4457 -1.0433 -3.0840
49320SOL     OW53279   8.917   8.410   6.446 -0.0990  0.1961  0.5644
49320SOL    HW153280   8.909   8.439   6.355 -0.6119  1.3903  0.9841
49320SOL    HW253281   8.886   8.483   6.498  1.4778  0.0507  1.7758
49321SOL     OW53282  11.079   0.588   9.694 -0.2156  0.3679  0.7172
49321SOL    HW153283  11.115   0.514   9.743  1.8616  0.8087 -0.0605
49321SOL    HW253284  11.154   0.625   9.647 -1.6875  1.3512 -1.0022
49322SOL     OW53285   3.016   7.998   8.784  0.0877  0.1902 -0.0974
49322SOL    HW153286   2.975   8.012   8.698  0.1563 -0.7129 -0.2889
49322SOL    HW253287   2.945   7.963   8.838 -0.2195  1.7091  0.5216
49323SOL     OW53288   0.615   4.994   7.725 -0.0049 -0.1804 -0.5180
49323SOL    HW153289   0.542   5.023   7.780  0.7226  0.0341  0.3518
49323SOL    HW253290   0.691   4.997   7.782  1.4477  3.2139 -2.2865
49324SOL     OW53291   2.846   4.338   6.736 -0.6192 -0.1130  0.1047
49324SOL    HW153292   2.884   4.252   6.757 -1.6755 -0.7265 -0.4043
49324SOL    HW253293   2.753   4.320   6.720 -0.6064  0.8981 -1.3317
49325SOL     OW53294   4.197   4.269   4.200 -0.4938  0.1806  0.5469
49325SOL    HW153295   4.176   4.227   4.283 -0.1195 -0.9589  0.0784
49325SOL    HW253296   4.133   4.234   4.138  0.2013 -0.1847  0.0204
49326SOL     OW53297   9.780   4.953   2.334 -0.2602 -1.1826  0.0647
49326SOL    HW153298   9.692   4.916   2.327 -1.4133  1.4197 -0.1459
49326SOL    HW253299   9.832   4.902   2.272 -2.2566 -1.0811 -1.8195
49327SOL     OW53300   4.908   0.852  11.510  0.2598  0.0629  0.0528
49327SOL    HW153301   4.966   0.908  11.458  1.5137 -2.1247 -1.0347
49327SOL    HW253302   4.820   0.883  11.488  0.8916  1.4486 -0.6584
49328SOL     OW53303   6.115   2.674   3.019 -0.5406  0.0373 -0.2081
49328SOL    HW153304   6.050   2.621   2.972 -0.1809 -0.3307 -0.3005
49328SOL    HW253305   6.063   2.730   3.076 -0.9574  0.0458 -0.5872
49329SOL     OW53306   1.556   7.616   4.421  0.4097  0.2106 -0.2288
49329SOL    HW153307   1.568   7.678   4.493 -0.9063  0.3953 -0.1599
49329SOL    HW253308   1.508   7.543   4.459  1.5460 -0.6762 -0.4272
49330SOL     OW53309   0.306   5.497   8.830  0.2455 -0.0725  0.0981
49330SOL    HW153310   0.362   5.448   8.891  1.1188  0.2929 -0.3921
49330SOL    HW253311   0.307   5.445   8.749 -1.5159 -0.9523  0.5857
49331SOL     OW53312   4.124   2.494   3.603 -0.2763  0.7496 -0.3620
49331SOL    HW153313   4.178   2.417   3.583  0.2608  1.2631 -0.9388
49331SOL    HW253314   4.154   2.522   3.689 -0.8922 -0.0265  0.1230
49332SOL     OW53315   6.071   1.754   7.216 -0.1216 -0.8607 -0.1314
49332SOL    HW153316   6.127   1.691   7.261 -3.1059 -2.7526  1.2780
49332SOL    HW253317   6.049   1.819   7.284  2.4492  1.5546 -1.4112
49333SOL     OW53318   0.085   3.507  10.495 -0.1191  0.0268  0.2268
49333SOL    HW153319   0.086   3.413  10.474  1.1339  0.1811 -0.5044
49333SOL    HW253320   0.042   3.512  10.580 -2.0377 -1.0020 -0.6188
49334SOL     OW53321  11.618   9.605  11.052  0.0621 -0.0073 -0.5667
49334SOL    HW153322  11.657   9.603  10.964 -2.0908  2.8797 -1.7758
49334SOL    HW253323  11.524   9.596  11.036 -0.3295 -0.1435  1.5516
49335SOL     OW53324   8.566   7.278   2.807  0.4161  0.1958 -0.1979
49335SOL    HW153325   8.494   7.316   2.858 -0.2195 -1.0203 -0.1506
49335SOL    HW253326   8.539   7.188   2.791  2.5335 -0.7161  0.9514
49336SOL     OW53327   5.331   8.269   6.550 -0.0837  0.3227  0.2006
49336SOL    HW153328   5.372   8.247   6.634 -1.2658 -0.7424  0.5179
49336SOL    HW253329   5.262   8.332   6.572 -3.2048 -2.9824  0.7356
49337SOL     OW53330   1.929   2.650   5.385 -0.2714 -0.2610  0.3057
49337SOL    HW153331   1.929   2.710   5.311  0.1830 -0.2856  0.2833
49337SOL    HW253332   1.918   2.563   5.346 -1.3106 -0.1779  0.3636
49338SOL     OW53333  10.573  10.213   4.955 -0.1647  0.5061 -0.0696
49338SOL    HW153334  10.649  10.185   5.006  0.8674  0.9125 -1.3182
49338SOL    HW253335  10.543  10.134   4.910 -0.4384  0.3646  0.3543
49339SOL     OW53336   5.456   5.708   0.463 -0.0653  0.5302 -0.5280
49339SOL    HW153337   5.537   5.754   0.440  1.1724 -1.8559 -1.2524
49339SOL    HW253338   5.481   5.653   0.538 -0.6862 -1.0828 -1.4736
49340SOL     OW53339   7.538  10.824  11.485  0.3183 -0.0214  0.7133
49340SOL    HW153340   7.444  10.820  11.499  0.1898 -0.1874 -0.1507
49340SOL    HW253341   7.558  10.749  11.429  0.9673 -0.0007  0.9017
49341SOL     OW53342   1.052   6.775   4.472  0.0948 -0.0612  0.2353
49341SOL    HW153343   1.009   6.692   4.454  0.5537  0.1303 -2.0659
49341SOL    HW253344   1.030   6.830   4.397  3.0969  0.4977 -0.3733
49342SOL     OW53345  10.688   4.843   9.302  0.6577 -0.1944 -0.2468
49342SOL    HW153346  10.729   4.898   9.368  0.5063 -0.0149 -0.3009
49342SOL    HW253347  10.726   4.756   9.316 -1.2941 -0.8094  1.8233
49343SOL     OW53348   9.125   3.646   5.715 -0.5851 -0.4325  0.5474
49343SOL    HW153349   9.058   3.709   5.742  0.3043 -0.3292  2.6838
49343SOL    HW253350   9.086   3.560   5.733 -2.3234 -0.7569 -3.5623
49344SOL     OW53351   2.657   2.675   0.418 -0.6430  0.0834 -0.3263
49344SOL    HW153352   2.614   2.752   0.381 -0.7604  0.1485 -0.0568
49344SOL    HW253353   2.741   2.707   0.449 -0.6534  0.0827 -0.2980
49345SOL     OW53354   0.754   8.080   2.657  0.2918  0.2356 -0.5994
49345SOL    HW153355   0.707   8.158   2.687  1.7857  0.6028  1.0021
49345SOL    HW253356   0.797   8.108   2.576 -2.1911 -0.1281 -2.1126
49346SOL     OW53357   3.863   6.693   4.885  0.0458  0.3459 -0.0560
49346SOL    HW153358   3.827   6.671   4.799 -0.5210 -0.3367  0.3473
49346SOL    HW253359   3.809   6.644   4.947  1.4485 -0.4330  0.5994
49347SOL     OW53360   6.236   8.082   1.116 -0.0001  0.2642 -0.0098
49347SOL    HW153361   6.309   8.144   1.117  0.1240  0.1204 -0.1248
49347SOL    HW253362   6.276   7.997   1.096 -0.4770  0.5428 -2.4819
49348SOL     OW53363   8.788   6.606   6.247  0.0477 -0.3785 -0.8951
49348SOL    HW153364   8.826   6.634   6.330 -0.5308  0.0114 -0.7542
49348SOL    HW253365   8.748   6.521   6.265 -3.2891  1.2578  0.2382
49349SOL     OW53366   7.544   4.214   9.380 -0.4871 -0.8499  0.2290
49349SOL    HW153367   7.512   4.303   9.367 -0.3545 -0.8190  0.1178
49349SOL    HW253368   7.513   4.165   9.304 -0.4896 -0.8793  0.2489
49350SOL     OW53369   3.572  11.389   7.954 -0.2558 -0.4493 -0.1842
49350SOL    HW153370   3.532  11.313   7.996  1.4254 -1.7069 -0.7655
49350SOL    HW253371   3.666  11.379   7.971  0.3685 -0.3121 -3.0811
49351SOL     OW53372   8.525   9.047   5.121 -0.0270 -0.9325  0.4279
49351SOL    HW153373   8.618   9.072   5.122  0.4224 -2.3568 -1.0021
49351SOL    HW253374   8.487   9.095   5.194  1.5819  0.6443  0.3176
49352SOL     OW53375   0.687   0.597   5.750 -0.1932  0.0659 -0.0016
49352SOL    HW153376   0.727   0.602   5.837  1.7023  0.3848 -0.8450
49352SOL    HW253377   0.593   0.606   5.767  0.1285  0.2041  1.9978
49353SOL     OW53378  11.465  11.273  10.710 -0.4395  0.0140  0.9995
49353SOL    HW153379  11.439  11.182  10.696  0.4959  0.1247 -1.9094
49353SOL    HW253380  11.560  11.270  10.718 -0.2586  0.8619 -0.5996
49354SOL     OW53381   6.482   0.138   2.598  0.5065 -0.1385  0.4649
49354SOL    HW153382   6.511   0.150   2.508 -0.1780 -1.6327  0.0228
49354SOL    HW253383   6.562   0.118   2.646  0.7774 -0.0129  0.0729
49355SOL     OW53384   5.577   8.985   5.787  0.1104 -0.4714  0.5128
49355SOL    HW153385   5.672   8.972   5.791  0.3034  0.4618 -0.5302
49355SOL    HW253386   5.542   8.925   5.853  1.3345 -1.7934  0.0217
49356SOL     OW53387  11.753   1.808   9.141 -0.1731 -0.1657 -0.1198
49356SOL    HW153388  11.695   1.748   9.188 -2.5217  0.8397 -1.5492
49356SOL    HW253389  11.820   1.752   9.102 -0.6680 -1.4948  0.8810
49357SOL     OW53390   2.496   3.745  10.404 -0.3272 -0.7236 -0.1363
49357SOL    HW153391   2.468   3.823  10.358  0.9245 -0.5852 -0.6776
49357SOL    HW253392   2.472   3.762  10.496 -2.6358 -0.9208 -0.6199
49358SOL     OW53393   5.177   2.766   9.887 -0.0097 -0.0565  0.6921
49358SOL    HW153394   5.146   2.848   9.925  0.5970 -0.3813  1.9378
49358SOL    HW253395   5.098   2.713   9.877 -0.2310  0.1750  1.1826
49359SOL     OW53396   9.692   5.828   2.878 -0.1017 -0.1872 -0.3729
49359SOL    HW153397   9.676   5.734   2.871  0.5284 -0.3816  0.6189
49359SOL    HW253398   9.770   5.842   2.823  0.7166 -0.5247  0.6612
49360SOL     OW53399   2.949  10.845   3.040 -0.1242  0.2987  0.8377
49360SOL    HW153400   3.024  10.901   3.023  0.0691 -0.4785 -1.0521
49360SOL    HW253401   2.873  10.897   3.014 -0.0891  0.3498  0.8380
49361SOL     OW53402   5.848   4.466  11.065  0.2368  0.7355 -0.5379
49361SOL    HW153403   5.877   4.524  11.136 -2.0569  2.2718 -0.7356
49361SOL    HW253404   5.755   4.451  11.083  0.1506 -0.7041 -1.9978
49362SOL     OW53405   7.709   0.504  11.223 -0.4829  0.5617  0.5654
49362SOL    HW153406   7.619   0.479  11.203 -0.8599  1.7022  0.7861
49362SOL    HW253407   7.710   0.519  11.317  0.6019 -2.0055  1.0401
49363SOL     OW53408  10.240   1.013   6.269 -0.0034 -0.4308 -0.4386
49363SOL    HW153409  10.300   1.080   6.302 -1.4699  1.2400 -0.9629
49363SOL    HW253410  10.244   1.021   6.174 -1.1154 -0.2072 -0.4807
49364SOL     OW53411   7.503   7.739   6.475 -0.5029  0.3135 -0.1733
49364SOL    HW153412   7.521   7.822   6.432  4.4312  0.0629  0.8728
49364SOL    HW253413   7.556   7.675   6.427  0.7573 -0.9776  2.7009
49365SOL     OW53414   6.088  10.434   9.217  0.3128  0.1473  0.5190
49365SOL    HW153415   6.134  10.420   9.299 -0.6816 -0.7444  0.9567
49365SOL    HW253416   6.018  10.368   9.217  0.6513 -0.2700 -1.3162
49366SOL     OW53417   6.104   6.219   9.046 -0.1754  0.2430 -0.3603
49366SOL    HW153418   6.134   6.307   9.022  0.1614  0.4555  0.7518
49366SOL    HW253419   6.184   6.172   9.068 -0.2504 -0.7027 -1.9826
49367SOL     OW53420   3.098   1.653   0.736  0.4310 -0.5226  0.0351
49367SOL    HW153421   3.086   1.701   0.654  1.7689  0.1033  0.1730
49367SOL    HW253422   3.161   1.584   0.714  0.2750 -0.7821  0.3849
49368SOL     OW53423   2.600   6.823   9.161 -0.0485 -0.4668  0.0057
49368SOL    HW153424   2.601   6.869   9.244  0.9763  0.0710 -0.2921
49368SOL    HW253425   2.692   6.818   9.135 -0.2279 -1.7915 -0.4585
49369SOL     OW53426  10.099   0.080   7.299  0.0668 -0.4153 -0.1207
49369SOL    HW153427  10.153   0.078   7.378 -0.3824 -1.1163  0.1751
49369SOL    HW253428  10.084  -0.012   7.277  0.5655 -0.2378 -1.2957
49370SOL     OW53429   2.761   0.375   9.682 -0.3520 -0.0832 -0.1355
49370SOL    HW153430   2.854   0.390   9.695 -0.1678  0.8369 -2.2147
49370SOL    HW253431   2.718   0.438   9.741  0.2210 -1.8383  2.3390
49371SOL     OW53432   2.858   9.914   3.308  0.5058  0.1805 -0.3963
49371SOL    HW153433   2.828   9.825   3.292 -2.8181  0.9309  0.8627
49371SOL    HW253434   2.952   9.905   3.327  0.7573 -2.6913 -2.4768
49372SOL     OW53435   3.681   6.297   0.543 -0.0738 -0.1367 -0.5897
49372SOL    HW153436   3.682   6.202   0.549 -1.1188 -0.1447 -0.2488
49372SOL    HW253437   3.656   6.326   0.631  0.8040  0.4761 -0.5349
49373SOL     OW53438  11.292   5.156  11.251  0.2399  0.0244  0.1566
49373SOL    HW153439  11.386   5.170  11.253  0.1443  0.5681  0.9872
49373SOL    HW253440  11.267   5.178  11.161  1.2997 -2.8814 -0.9700
49374SOL     OW53441   9.788  10.825   1.233 -0.2850  0.0548 -0.2811
49374SOL    HW153442   9.743  10.768   1.296  0.4801 -1.9604 -1.4435
49374SOL    HW253443   9.727  10.832   1.160 -0.3836  0.7801 -0.1333
49375SOL     OW53444   9.856  10.575   5.341 -0.0861  0.0345  0.0912
49375SOL    HW153445   9.795  10.639   5.305 -2.6170 -2.3529 -0.1842
49375SOL    HW253446   9.904  10.541   5.265 -0.5425 -0.1577 -0.1140
49376SOL     OW53447   6.824   6.214   4.677  0.4482 -0.0217  0.5188
49376SOL    HW153448   6.755   6.159   4.641  0.2657  0.4159  0.1945
49376SOL    HW253449   6.860   6.162   4.749  0.3027 -0.5772  0.2014
49377SOL     OW53450  11.069   4.034   2.288  0.0390 -0.4206  0.1577
49377SOL    HW153451  11.057   3.966   2.221  0.1151  1.3407 -1.7358
49377SOL    HW253452  11.101   3.986   2.364 -0.4956 -2.5902 -0.8810
49378SOL     OW53453   8.255   1.664   0.343  0.2616 -0.0049 -0.2617
49378SOL    HW153454   8.265   1.752   0.381 -2.9477  0.0193  0.7834
49378SOL    HW253455   8.162   1.645   0.350  0.2250 -2.0226 -3.8919
49379SOL     OW53456   9.043   5.553   4.525  0.4055  0.5610  0.1216
49379SOL    HW153457   9.006   5.529   4.440 -0.0065  2.9711 -0.4697
49379SOL    HW253458   9.097   5.478   4.550  0.0360 -0.4805 -1.9553
49380SOL     OW53459   8.584   6.192   4.703 -0.0132 -0.0069  0.3311
49380SOL    HW153460   8.499   6.209   4.744  0.1000  3.0420 -0.4790
49380SOL    HW253461   8.647   6.199   4.775 -0.2314  0.4133  0.4854
49381SOL     OW53462   0.678   0.033   3.992 -0.0419 -0.3214 -0.4865
49381SOL    HW153463   0.746   0.059   4.053 -0.2627 -1.8998  0.4971
49381SOL    HW253464   0.714  -0.045   3.949 -0.3412  0.1287 -1.5949
49382SOL     OW53465   2.930   9.885   1.122 -0.1338 -0.4336 -0.3287
49382SOL    HW153466   2.900   9.802   1.159 -1.6816  0.8740  1.5860
49382SOL    HW253467   2.865   9.949   1.151  1.2180  1.5376 -1.3811
49383SOL     OW53468  10.096   5.062   8.123  0.1334  0.1638  0.3141
49383SOL    HW153469  10.073   5.061   8.215 -1.8843 -3.6925 -0.0509
49383SOL    HW253470  10.017   5.094   8.079  0.8223  1.2588 -0.1775
49384SOL     OW53471   4.050   7.415   5.969  0.1886  1.0090  0.4710
49384SOL    HW153472   3.963   7.455   5.964  0.3383  1.2239 -1.7790
49384SOL    HW253473   4.042   7.336   5.916  1.3248  0.9455  0.3789
49385SOL     OW53474  10.973   4.748   6.852  0.0558 -0.1233 -0.0616
49385SOL    HW153475  11.016   4.707   6.928 -1.2826 -0.4072  0.5699
49385SOL    HW253476  11.002   4.695   6.778  2.1827  0.7577  0.0620
49386SOL     OW53477   9.285   3.233   6.216 -0.1628  1.0994 -0.6888
49386SOL    HW153478   9.245   3.228   6.303 -0.1946  0.2875 -0.7370
49386SOL    HW253479   9.226   3.288   6.165 -0.7403  0.6698 -0.4959
49387SOL     OW53480   4.511   7.957   6.643  0.5067 -0.2035 -0.3371
49387SOL    HW153481   4.590   8.010   6.636  0.0909  0.4530 -0.1656
49387SOL    HW253482   4.529   7.880   6.589  1.3852 -0.2203 -0.0320
49388SOL     OW53483  10.933   2.345   9.896  0.1478  0.0369 -0.1462
49388SOL    HW153484  11.009   2.398   9.920 -1.7932  2.9606  0.0661
49388SOL    HW253485  10.924   2.357   9.801  1.1344 -2.1182 -0.5829
49389SOL     OW53486   2.255   9.467   5.427  0.4822  0.0716  0.6095
49389SOL    HW153487   2.284   9.558   5.422 -0.5998  0.3904 -0.8073
49389SOL    HW253488   2.318   9.418   5.374 -0.0243  0.3326 -0.2544
49390SOL     OW53489   4.293   9.848   5.200  0.2695  0.5575 -0.3644
49390SOL    HW153490   4.299   9.883   5.288  1.2492  1.5224 -0.7934
49390SOL    HW253491   4.342   9.765   5.203 -0.0623  0.3754  0.0902
49391SOL     OW53492   2.045   3.578   5.493 -0.4587  0.9079  0.6673
49391SOL    HW153493   2.115   3.560   5.430  0.5241 -0.8872  2.1715
49391SOL    HW253494   1.967   3.540   5.454 -0.2356  1.3647 -0.2415
49392SOL     OW53495   4.487  10.534   9.400 -0.1669 -0.2952  0.5475
49392SOL    HW153496   4.580  10.550   9.385 -0.1368 -0.2699  0.7585
49392SOL    HW253497   4.443  10.570   9.323  0.0941 -1.3894 -0.1408
49393SOL     OW53498   9.996   5.549   4.515 -0.5155 -0.1142  0.3700
49393SOL    HW153499  10.058   5.526   4.445 -0.7860  0.0319  0.0750
49393SOL    HW253500   9.935   5.610   4.473  0.4157  1.4587  1.2402
49394SOL     OW53501  11.527   9.726   6.599  0.0807  0.3415  0.2751
49394SOL    HW153502  11.551   9.818   6.595  0.1870  0.3521  1.0805
49394SOL    HW253503  11.431   9.725   6.595  0.0829  0.4749  0.1841
49395SOL     OW53504  10.377   3.222  10.675  0.2211  0.2154  0.3188
49395SOL    HW153505  10.445   3.254  10.615 -1.3094  5.1146  0.7678
49395SOL    HW253506  10.408   3.247  10.762 -0.8851 -0.0960  0.8207
49396SOL     OW53507  10.552  10.380   2.901  0.6653 -0.8270 -0.5193
49396SOL    HW153508  10.547  10.309   2.836  1.9056  0.1041 -1.6839
49396SOL    HW253509  10.645  10.389   2.920  0.2969 -1.7473  2.2335
49397SOL     OW53510   3.984   9.417   7.411 -0.3039 -0.1819 -0.1727
49397SOL    HW153511   4.062   9.444   7.460  1.9696 -0.7565 -3.1853
49397SOL    HW253512   3.965   9.490   7.353 -2.0761 -0.0652  0.4790
49398SOL     OW53513   0.401   8.590   9.931  0.1720 -0.5306 -1.1253
49398SOL    HW153514   0.462   8.603  10.004 -1.0770  0.1790 -0.1663
49398SOL    HW253515   0.420   8.662   9.870 -1.5427  1.4489  0.5182
49399SOL     OW53516  10.386   5.926   5.196  0.1570  0.3887 -0.1281
49399SOL    HW153517  10.353   6.001   5.147 -2.1099  0.8753  1.9547
49399SOL    HW253518  10.467   5.903   5.152 -0.6390  2.0980 -2.7406
49400SOL     OW53519   5.888   8.428   9.052  0.3984  0.6597  0.6904
49400SOL    HW153520   5.804   8.391   9.025  0.2860  0.7019  0.9770
49400SOL    HW253521   5.954   8.366   9.021  0.2731  0.7325  0.2790
49401SOL     OW53522   8.373   6.917  10.619  0.3413 -0.2562  0.5836
49401SOL    HW153523   8.394   7.000  10.576  1.0084  0.2185  1.7650
49401SOL    HW253524   8.389   6.850  10.553  0.4010  0.5136 -0.1937
49402SOL     OW53525   0.792   3.501  11.407 -0.0689  0.1187 -0.0043
49402SOL    HW153526   0.805   3.577  11.350 -0.3214  0.8533  0.8861
49402SOL    HW253527   0.856   3.513  11.477  1.3053 -1.5757 -0.8991
49403SOL     OW53528   3.239   8.193   2.005  0.1197  0.4946 -0.2513
49403SOL    HW153529   3.172   8.241   1.957 -0.1577  0.5000  0.1377
49403SOL    HW253530   3.199   8.173   2.089  0.6671  0.6620  0.0593
49404SOL     OW53531  11.712   6.834   6.941 -0.3943 -0.3064 -0.2294
49404SOL    HW153532  11.648   6.897   6.907 -1.0206 -0.5434  0.4697
49404SOL    HW253533  11.664   6.786   7.009  0.9898  0.6090  1.4898
49405SOL     OW53534   5.322  11.113  11.129  0.2504 -0.4236 -0.7354
49405SOL    HW153535   5.243  11.112  11.183  1.1518 -0.6854  0.6040
49405SOL    HW253536   5.305  11.044  11.063 -0.0557 -1.4801  0.4096
49406SOL     OW53537   6.245   8.675   6.353  0.0828 -0.3171  0.3860
49406SOL    HW153538   6.218   8.586   6.377 -1.0172 -0.4857 -1.3334
49406SOL    HW253539   6.169   8.730   6.375  0.5686  0.1505  0.9646
49407SOL     OW53540   3.609   4.569   8.071 -0.2774  0.2250  0.0754
49407SOL    HW153541   3.531   4.611   8.106 -2.2608 -3.4458  0.5542
49407SOL    HW253542   3.665   4.556   8.147 -0.9641 -0.5357  0.4648
49408SOL     OW53543   6.995   7.959   1.379  0.4193 -0.6010  0.1139
49408SOL    HW153544   7.011   8.046   1.342 -0.7316 -0.8154 -0.9471
49408SOL    HW253545   7.082   7.921   1.388  0.8000 -0.4885 -2.3314
49409SOL     OW53546   1.168   4.952   1.575 -0.3318  0.6736  0.8298
49409SOL    HW153547   1.168   4.866   1.618  0.7756 -0.5177 -1.3415
49409SOL    HW253548   1.077   4.967   1.551 -0.2787 -1.0148 -0.6828
49410SOL     OW53549   8.335   4.135   8.670  0.4708 -0.3234 -0.7441
49410SOL    HW153550   8.386   4.213   8.693  0.4036 -0.3991 -0.3344
49410SOL    HW253551   8.401   4.067   8.656  0.5693 -0.0404 -1.7366
49411SOL     OW53552  11.278   1.687   6.345  0.2202  0.6325  0.3228
49411SOL    HW153553  11.191   1.724   6.329  0.2578  0.2149 -0.9471
49411SOL    HW253554  11.261   1.596   6.368  0.2708  0.8227  1.1562
49412SOL     OW53555   0.406   8.540   2.842 -0.0422 -0.6060 -0.1233
49412SOL    HW153556   0.372   8.626   2.819 -0.8594 -0.8556  0.1413
49412SOL    HW253557   0.382   8.527   2.934  0.4568 -0.9380 -0.0295
49413SOL     OW53558   4.290   6.894  11.002  0.0670 -0.0616  0.1201
49413SOL    HW153559   4.376   6.875  10.966  0.1152 -1.7805  1.0285
49413SOL    HW253560   4.234   6.825  10.966 -0.1329 -1.1073  2.3049
49414SOL     OW53561   6.945  10.752   1.070 -0.6133  0.2434 -0.1513
49414SOL    HW153562   6.954  10.845   1.052  2.1337  0.7649  2.9717
49414SOL    HW253563   6.878  10.747   1.138  0.5436  0.1923  1.0075
49415SOL     OW53564  11.669   7.373  10.376 -0.2212  0.1981 -0.7883
49415SOL    HW153565  11.697   7.455  10.335  0.7415  0.3252  0.0840
49415SOL    HW253566  11.634   7.321  10.303  1.2882  0.4742 -1.7649
49416SOL     OW53567   4.954   9.881   9.307 -0.6753 -0.0584  0.0892
49416SOL    HW153568   4.960   9.914   9.217 -0.9337 -1.1444 -0.3383
49416SOL    HW253569   4.904   9.800   9.300  1.4369 -1.4981  0.8411
49417SOL     OW53570   0.095   2.808   1.748  0.5601 -0.1320  0.1707
49417SOL    HW153571   0.057   2.723   1.728 -0.0133  0.0111  0.6516
49417SOL    HW253572   0.189   2.791   1.754  0.6370 -0.4090 -1.4214
49418SOL     OW53573   2.468   4.443   2.159  0.1103 -0.3918  0.3372
49418SOL    HW153574   2.394   4.390   2.129  0.1662 -1.3106  1.7436
49418SOL    HW253575   2.544   4.404   2.116  0.2192 -1.8532  1.7266
49419SOL     OW53576   8.824  10.816   8.052 -0.0860 -0.4180  0.2586
49419SOL    HW153577   8.855  10.846   7.967  0.7551  2.8346  1.5259
49419SOL    HW253578   8.894  10.760   8.085  0.8464  0.4512 -0.1672
49420SOL     OW53579   5.670  11.587   1.266  0.5333  0.3161  0.0234
49420SOL    HW153580   5.747  11.535   1.293 -0.2526 -0.5282  0.7270
49420SOL    HW253581   5.697  11.678   1.279  1.4582  0.0459  0.1231
49421SOL     OW53582   3.290   6.998   2.013  0.8639  0.2027 -0.0374
49421SOL    HW153583   3.286   6.907   2.043  1.5762 -0.2883 -1.3230
49421SOL    HW253584   3.252   7.049   2.084  4.3958 -0.5977  2.7252
49422SOL     OW53585   1.338   1.943  10.624 -0.2514 -0.3209 -0.2604
49422SOL    HW153586   1.411   1.924  10.684 -0.4436 -0.9539 -0.2157
49422SOL    HW253587   1.304   2.027  10.653  1.2476  0.6124 -1.0523
49423SOL     OW53588   4.662   2.617   0.035 -0.0272  0.4375 -0.1374
49423SOL    HW153589   4.572   2.612   0.004 -0.7218 -0.8577  1.9243
49423SOL    HW253590   4.679   2.531   0.074  1.6550  1.1060  0.7070
49424SOL     OW53591   8.259  10.543   0.358 -0.2828 -0.2159  0.4780
49424SOL    HW153592   8.320  10.540   0.432  2.0694  4.0533 -0.9284
49424SOL    HW253593   8.297  10.484   0.293  1.2367  0.7365  0.4488
49425SOL     OW53594   0.076   7.451   9.336 -0.2570  0.3828  0.1439
49425SOL    HW153595   0.110   7.412   9.255 -2.7844 -0.1561 -0.7597
49425SOL    HW253596   0.073   7.545   9.317  0.4552  0.4108  0.1484
49426SOL     OW53597   0.712   4.164  10.665 -0.0093  0.0820 -0.4288
49426SOL    HW153598   0.731   4.257  10.677  1.9559 -0.5537  2.1896
49426SOL    HW253599   0.792   4.127  10.628  0.1410 -0.9611  0.8935
49427SOL     OW53600   3.763   8.328   4.502 -0.2906  0.3644  0.3325
49427SOL    HW153601   3.783   8.313   4.410  0.1112  0.8000  0.3417
49427SOL    HW253602   3.712   8.252   4.529 -0.1054  0.0646 -0.1551
49428SOL     OW53603   9.748   4.233  11.254 -0.0135 -0.2272  0.5052
49428SOL    HW153604   9.723   4.164  11.192 -1.4831  0.1508  0.6269
49428SOL    HW253605   9.815   4.193  11.310  0.8452 -0.7866 -0.8869
49429SOL     OW53606   6.590  10.283   1.507 -0.3061 -1.1253 -1.0042
49429SOL    HW153607   6.567  10.326   1.425  0.1759 -0.8422 -0.9968
49429SOL    HW253608   6.526  10.213   1.516 -2.1896  0.6074 -0.1642
49430SOL     OW53609  10.765   8.504   5.808 -0.0667 -0.4573  0.3149
49430SOL    HW153610  10.710   8.557   5.751 -0.8973  0.0437  1.5605
49430SOL    HW253611  10.849   8.550   5.809 -0.5950  0.5256  0.9092
49431SOL     OW53612   6.890   2.349   3.127  0.0464  0.1034  0.1893
49431SOL    HW153613   6.978   2.321   3.101  0.1458  0.1906  0.4227
49431SOL    HW253614   6.846   2.370   3.045 -0.0318 -0.7405  0.0038
49432SOL     OW53615   8.341   8.647   1.943  0.1560 -1.1810  0.3865
49432SOL    HW153616   8.275   8.583   1.917  0.2029 -0.7736 -0.7952
49432SOL    HW253617   8.421   8.595   1.955 -0.4846 -1.7731  2.4536
49433SOL     OW53618   0.882   1.956   9.284 -0.1749  0.9714  0.7015
49433SOL    HW153619   0.840   2.036   9.313 -1.1196  0.8862 -0.3516
49433SOL    HW253620   0.949   1.985   9.222 -0.4813  0.9561  0.3602
49434SOL     OW53621   6.083   3.199   6.569 -0.1553  0.0070  0.2034
49434SOL    HW153622   6.069   3.224   6.660 -1.5512  2.6341 -0.6273
49434SOL    HW253623   6.059   3.107   6.566  0.3894 -0.2857  2.5655
49435SOL     OW53624   9.023   9.161   7.043 -0.5860 -0.3132 -0.7865
49435SOL    HW153625   8.945   9.138   7.093  0.2787 -1.0420  0.2741
49435SOL    HW253626   8.993   9.226   6.979 -2.2117 -1.1875 -0.9538
49436SOL     OW53627   7.635   7.681   2.547  0.0640  0.5570 -0.4387
49436SOL    HW153628   7.694   7.716   2.614  0.0945  2.5877 -1.4482
49436SOL    HW253629   7.554   7.661   2.595  0.3826  1.1334  0.3626
49437SOL     OW53630   0.099   6.355   2.870 -0.1107 -0.0519 -0.1782
49437SOL    HW153631   0.078   6.277   2.818 -0.1859  0.1578 -0.4639
49437SOL    HW253632   0.194   6.364   2.862  0.1797 -1.1970  1.3923
49438SOL     OW53633   1.734   4.755   6.851  1.0193  0.3840 -0.2618
49438SOL    HW153634   1.677   4.696   6.901  1.7151  0.5547  0.7554
49438SOL    HW253635   1.675   4.799   6.790  0.3866 -0.9138 -0.6217
49439SOL     OW53636  10.441  10.767   7.960 -0.2562  0.9437 -0.1757
49439SOL    HW153637  10.451  10.686   8.011 -1.3366  0.6975 -0.3331
49439SOL    HW253638  10.485  10.749   7.878  1.3216  1.2653  0.5716
49440SOL     OW53639   0.728   7.541  10.529  0.1932 -0.1553 -0.0070
49440SOL    HW153640   0.648   7.551  10.580  0.3763  0.0005  0.2501
49440SOL    HW253641   0.698   7.506  10.445 -0.0510 -1.0044  0.4162
49441SOL     OW53642  10.301  10.055   5.237  0.4075 -0.3050  0.7200
49441SOL    HW153643  10.393  10.079   5.248  0.4119  0.2822 -0.5287
49441SOL    HW253644  10.263  10.070   5.324  1.4855 -0.6221  1.2777
49442SOL     OW53645  11.580   3.989   7.814 -0.4922  0.0637  0.4841
49442SOL    HW153646  11.513   4.025   7.756 -1.0325 -0.2888  0.8844
49442SOL    HW253647  11.650   3.961   7.756 -0.1734  1.5164  0.1416
49443SOL     OW53648   3.940   3.017   1.639 -0.2820 -0.2815  0.4861
49443SOL    HW153649   3.997   2.960   1.692 -0.1564  0.1494  0.8185
49443SOL    HW253650   3.851   2.990   1.663 -0.2354 -1.2020 -0.2986
49444SOL     OW53651   8.745  10.718   7.596 -0.0682  0.3850  0.5854
49444SOL    HW153652   8.651  10.700   7.603  0.3951 -1.4271  3.9060
49444SOL    HW253653   8.756  10.804   7.637 -0.1289  0.0453  1.3126
49445SOL     OW53654   2.982   3.469   3.102 -0.4425  0.0337 -0.2972
49445SOL    HW153655   2.930   3.393   3.128 -0.7533  1.2100  3.0251
49445SOL    HW253656   3.053   3.433   3.049 -1.1782 -2.4111  0.2762
49446SOL     OW53657   0.744   8.778   8.237  0.3492 -0.9597 -0.2447
49446SOL    HW153658   0.786   8.732   8.165 -0.2211 -0.6681 -0.7812
49446SOL    HW253659   0.808   8.844   8.265  1.0649 -1.8865  0.3589
49447SOL     OW53660   2.544   5.957   3.604 -0.8546 -0.1973 -0.0760
49447SOL    HW153661   2.506   5.891   3.545 -0.6413  0.3271 -0.8130
49447SOL    HW253662   2.594   6.014   3.546 -0.9244  0.5327  0.5772
49448SOL     OW53663   6.500   9.121   7.872  0.3814 -0.3513 -0.4808
49448SOL    HW153664   6.532   9.043   7.916 -0.2484 -0.9840 -1.1202
49448SOL    HW253665   6.544   9.121   7.787 -0.4670 -0.6442 -0.9365
49449SOL     OW53666   2.588   1.543   1.161 -0.1019 -0.0498  0.3024
49449SOL    HW153667   2.667   1.494   1.137 -0.8950 -0.5745 -1.3572
49449SOL    HW253668   2.530   1.477   1.200 -0.2066  0.0967  0.3976
49450SOL     OW53669   2.804  11.015   7.691  0.3294  0.3004 -0.0170
49450SOL    HW153670   2.779  10.943   7.634  0.4315  1.2355 -1.2752
49450SOL    HW253671   2.896  11.031   7.669  0.6312  0.0950  1.0545
49451SOL     OW53672   3.228   0.929   6.202 -0.0916  0.2449 -0.0446
49451SOL    HW153673   3.194   0.852   6.157 -0.9160  0.6357 -0.1170
49451SOL    HW253674   3.309   0.951   6.155  0.3994 -0.8316  0.2678
49452SOL     OW53675   2.677   1.638   1.854  0.0191  0.0203  0.3613
49452SOL    HW153676   2.605   1.625   1.917 -1.6280 -0.4539 -1.5245
49452SOL    HW253677   2.688   1.552   1.814  0.6074  0.4697 -0.4494
49453SOL     OW53678   2.666  10.136   4.326 -0.4401  0.2451  0.6039
49453SOL    HW153679   2.574  10.164   4.328  0.0632  2.0928 -0.2086
49453SOL    HW253680   2.666  10.056   4.274 -1.5494  0.3632  0.4028
49454SOL     OW53681   0.128   3.712   6.283 -0.0455 -0.4953 -0.5769
49454SOL    HW153682   0.141   3.622   6.252  1.3873 -0.6326  0.3462
49454SOL    HW253683   0.169   3.714   6.369  0.7117  1.2718 -0.9409
49455SOL     OW53684  11.545   8.031   7.342  0.0086 -0.0260  0.7116
49455SOL    HW153685  11.593   8.077   7.410 -2.3311  1.5050  1.4706
49455SOL    HW253686  11.556   8.086   7.264  2.1079 -1.4164 -0.0698
49456SOL     OW53687   5.630   1.270  10.120  0.4313 -0.0384 -0.7402
49456SOL    HW153688   5.623   1.312  10.034 -0.6454  0.3067 -0.5026
49456SOL    HW253689   5.684   1.193  10.105  0.4500  0.1461 -1.6822
49457SOL     OW53690   6.481  10.941  11.557 -0.5386  0.8074 -0.4277
49457SOL    HW153691   6.400  10.977  11.593 -0.6996  0.7906 -0.7614
49457SOL    HW253692   6.477  10.847  11.578 -0.7416  0.7553 -0.6769
49458SOL     OW53693   7.379   0.864   3.948  0.4641  0.4906  0.7060
49458SOL    HW153694   7.401   0.776   3.916  2.8195  1.2276  0.0819
49458SOL    HW253695   7.434   0.876   4.025 -0.7532  0.9968  1.5335
49459SOL     OW53696   1.327   0.990   3.685 -0.1232 -0.1621 -0.0056
49459SOL    HW153697   1.352   0.899   3.701 -0.4631 -0.1170  0.8412
49459SOL    HW253698   1.406   1.032   3.650  0.4679 -0.4315  0.9804
49460SOL     OW53699   5.422  11.639   5.405 -0.1685  0.1728  0.6344
49460SOL    HW153700   5.385  11.552   5.387 -0.2115  0.1901  0.6384
49460SOL    HW253701   5.359  11.700   5.367  0.0448  0.1899  0.3039
49461SOL     OW53702   3.460   0.152   6.933 -0.7538  0.1912 -0.1826
49461SOL    HW153703   3.479   0.184   6.845  0.2139  0.4337  0.1039
49461SOL    HW253704   3.501   0.217   6.991  0.8936 -1.3019  0.4191
49462SOL     OW53705   8.211   5.342   6.171  0.6962 -0.0276  0.4309
49462SOL    HW153706   8.297   5.355   6.132  0.4541  1.7088  0.3792
49462SOL    HW253707   8.221   5.373   6.261 -0.1246  1.2402  0.1081
49463SOL     OW53708   4.342  10.325   9.836 -0.0160  0.0972  0.1910
49463SOL    HW153709   4.429  10.284   9.834  0.5486  1.1346  1.7458
49463SOL    HW253710   4.305  10.298   9.920 -2.4023 -2.5636 -1.5243
49464SOL     OW53711   4.720   7.226   4.503 -1.1714 -0.2403  0.0441
49464SOL    HW153712   4.659   7.289   4.541  0.2336  0.2511  1.6296
49464SOL    HW253713   4.712   7.148   4.557 -0.7697 -0.3349 -0.0268
49465SOL     OW53714   6.359   7.515   3.592  0.0679 -0.0642  0.2667
49465SOL    HW153715   6.314   7.466   3.661  1.2922 -1.2255  0.2680
49465SOL    HW253716   6.433   7.556   3.636  0.6848 -0.5632 -0.2887
49466SOL     OW53717  11.069   1.510  10.435  0.1739 -0.2226  0.3857
49466SOL    HW153718  11.043   1.591  10.392  1.1803  0.5216  1.1222
49466SOL    HW253719  11.000   1.448  10.413  1.4417 -0.4811 -3.8524
49467SOL     OW53720   5.038   1.768   5.109  0.3925 -0.1625  0.1494
49467SOL    HW153721   4.985   1.747   5.032 -2.5677  2.2070  1.2963
49467SOL    HW253722   5.011   1.857   5.132  3.4560  0.3875  2.1390
49468SOL     OW53723   1.881  11.442   3.007  0.3844 -0.3007  0.1505
49468SOL    HW153724   1.876  11.484   3.092 -1.5806 -0.0774 -0.0295
49468SOL    HW253725   1.952  11.379   3.015  0.4539 -0.0323  1.8404
49469SOL     OW53726   5.434   6.095   2.835 -0.2228  0.5821  0.1113
49469SOL    HW153727   5.363   6.040   2.867 -0.1305 -0.4193 -1.3547
49469SOL    HW253728   5.496   6.099   2.908 -0.3842 -1.0016  0.3644
49470SOL     OW53729   8.966   7.795   6.222 -0.4549  0.6179  0.1493
49470SOL    HW153730   9.020   7.821   6.296 -0.3224  0.3764  0.1372
49470SOL    HW253731   9.027   7.758   6.159 -0.7172 -0.3372  0.4346
49471SOL     OW53732   3.847   4.091   6.974 -0.1080  0.0150 -0.6808
49471SOL    HW153733   3.903   4.014   6.969  0.7041  0.2646  2.3291
49471SOL    HW253734   3.759   4.056   6.989  0.2901 -0.4059  0.9010
49472SOL     OW53735   5.709   5.970  11.133 -0.4002 -0.6032 -0.4816
49472SOL    HW153736   5.797   5.983  11.169 -0.4602 -1.3140 -0.0641
49472SOL    HW253737   5.692   6.050  11.083 -0.0134  0.0740  0.4448
49473SOL     OW53738   0.684   9.890   2.970 -0.5730  0.1464 -0.2554
49473SOL    HW153739   0.756   9.936   3.014  0.5697 -1.6041 -0.1901
49473SOL    HW253740   0.707   9.893   2.877 -0.9145  0.4121 -0.3311
49474SOL     OW53741   5.475   6.314   0.233  0.2495 -0.5921  0.7283
49474SOL    HW153742   5.393   6.288   0.275 -0.8557 -1.4020 -1.7408
49474SOL    HW253743   5.459   6.405   0.205 -1.6449 -1.9741 -3.4953
49475SOL     OW53744   9.565   1.008   9.080  0.3517  0.0713 -0.7312
49475SOL    HW153745   9.612   0.958   9.013  0.2044 -0.5648 -0.3631
49475SOL    HW253746   9.577   0.958   9.161 -0.7967 -0.0067 -0.5871
49476SOL     OW53747   3.204  11.258   6.142 -0.0241  0.3290  0.4158
49476SOL    HW153748   3.126  11.204   6.158 -0.7789  1.4597  0.7081
49476SOL    HW253749   3.204  11.321   6.215  0.1379  1.4863 -0.5607
49477SOL     OW53750   7.199   5.793   6.220  0.1530  0.7805  0.2336
49477SOL    HW153751   7.135   5.818   6.286  0.0637  0.5875  0.2198
49477SOL    HW253752   7.149   5.786   6.139 -0.2360 -1.4664  0.6058
49478SOL     OW53753  10.910  10.375   2.408  0.2863  0.1871 -0.4377
49478SOL    HW153754  10.835  10.370   2.467  0.2015  2.4426 -0.2755
49478SOL    HW253755  10.873  10.404   2.324  0.9354  1.2854 -0.3670
49479SOL     OW53756   4.012   6.681   7.876 -0.0742 -0.0497  0.0621
49479SOL    HW153757   4.072   6.751   7.900 -2.5051  2.4211 -0.4984
49479SOL    HW253758   4.061   6.626   7.816  1.9279  1.1967  0.4736
49480SOL     OW53759   7.247   6.529   9.871 -0.5657  0.2281  0.4202
49480SOL    HW153760   7.206   6.546   9.955 -0.7163  0.3258  0.3267
49480SOL    HW253761   7.196   6.458   9.833 -1.2902  1.0369 -0.1439
49481SOL     OW53762   5.535  11.238  11.367  0.1605 -0.4139  0.2511
49481SOL    HW153763   5.493  11.322  11.348 -1.4733 -1.0003  1.0849
49481SOL    HW253764   5.515  11.183  11.291  0.4557 -0.3281  0.1106
49482SOL     OW53765   3.791   8.752   3.304  0.3851  0.7391  0.0996
49482SOL    HW153766   3.826   8.727   3.389 -0.1807  1.5229  0.5789
49482SOL    HW253767   3.843   8.828   3.278  0.7726  0.3066 -0.4154
49483SOL     OW53768   7.653   6.270   6.378  0.2866 -0.4767  0.0894
49483SOL    HW153769   7.669   6.179   6.351  0.9044 -0.4302  0.2737
49483SOL    HW253770   7.731   6.294   6.429 -0.5239 -0.3266  1.3153
49484SOL     OW53771  11.772  11.823   6.922 -0.1398  0.0240  0.3850
49484SOL    HW153772  11.785  11.917   6.922  1.4841 -0.1829  1.0190
49484SOL    HW253773  11.859  11.786   6.932 -0.5859 -1.5827 -1.0715
49485SOL     OW53774   1.427   8.926   6.393  0.4778  0.0822 -0.3468
49485SOL    HW153775   1.409   8.973   6.312  0.5566  1.4242  0.3700
49485SOL    HW253776   1.359   8.956   6.454  0.4275 -0.8817  0.0863
49486SOL     OW53777   2.397   1.986   5.092 -0.0566  0.5069 -0.5386
49486SOL    HW153778   2.473   1.929   5.106  1.3615  1.4583 -3.5673
49486SOL    HW253779   2.427   2.073   5.116 -0.8263  0.6425 -0.0278
49487SOL     OW53780   8.628   1.425   0.378  0.0768  0.0393 -1.0671
49487SOL    HW153781   8.535   1.449   0.378 -0.1450 -0.7984 -0.5086
49487SOL    HW253782   8.673   1.509   0.373 -0.6926  0.6252  0.8948
49488SOL     OW53783   0.868   0.020   9.258  0.3408 -0.7181 -0.0107
49488SOL    HW153784   0.871   0.096   9.317 -0.3135 -0.4266 -0.3467
49488SOL    HW253785   0.826   0.053   9.179  0.3781 -1.3456 -0.2937
49489SOL     OW53786   2.712   4.563   9.552 -0.4574  0.6772 -0.1150
49489SOL    HW153787   2.779   4.611   9.503  1.0679 -1.6600 -0.4951
49489SOL    HW253788   2.692   4.487   9.497 -1.2348 -0.2314  1.3459
49490SOL     OW53789   2.202   1.457   6.238 -0.7028 -0.0065 -0.0393
49490SOL    HW153790   2.200   1.484   6.330  0.4220 -2.0126  0.6408
49490SOL    HW253791   2.267   1.514   6.198  0.4603 -0.5869  0.9675
49491SOL     OW53792   9.698   2.018   6.238 -0.4106 -0.4852 -0.2326
49491SOL    HW153793   9.673   1.971   6.318  0.7298 -0.6352  0.0570
49491SOL    HW253794   9.641   2.094   6.236 -0.9971 -0.8995  0.2972
49492SOL     OW53795   3.670   6.899  10.474  0.4277  0.1643 -0.1865
49492SOL    HW153796   3.587   6.874  10.433 -0.0021  1.2318  0.0032
49492SOL    HW253797   3.649   6.906  10.567  0.8729 -0.1234 -0.0643
49493SOL     OW53798   3.018   4.842  11.778 -0.3766 -0.4050 -0.2371
49493SOL    HW153799   2.977   4.925  11.753  1.1302  0.1228 -1.1119
49493SOL    HW253800   2.987   4.825  11.867 -0.7912  1.0630 -0.0834
49494SOL     OW53801   7.758   5.407   1.654 -0.0327  0.1470 -0.1250
49494SOL    HW153802   7.772   5.427   1.747 -2.3393 -3.0724  1.1185
49494SOL    HW253803   7.663   5.409   1.643  0.1776  0.0422 -2.3514
49495SOL     OW53804   7.999   9.158   4.916  0.0248  0.5330 -0.0069
49495SOL    HW153805   7.961   9.159   5.004 -0.9134  0.1702 -0.4045
49495SOL    HW253806   8.075   9.099   4.924 -1.0553 -0.8930  0.1617
49496SOL     OW53807   9.713   7.742   9.087 -0.1094 -0.4156 -0.2192
49496SOL    HW153808   9.741   7.777   9.172  1.4959 -1.9811 -0.0515
49496SOL    HW253809   9.646   7.678   9.109  0.7317 -1.2569 -0.0560
49497SOL     OW53810   9.129   8.068   5.775 -0.8211 -0.0502  0.1632
49497SOL    HW153811   9.187   8.050   5.848 -0.3515  0.3853 -0.0962
49497SOL    HW253812   9.044   8.034   5.802 -0.8838  0.9490  1.3064
49498SOL     OW53813   6.792   2.500   7.578 -0.5827  0.2899 -0.1439
49498SOL    HW153814   6.869   2.543   7.617 -0.8996 -0.3318  1.2150
49498SOL    HW253815   6.719   2.557   7.601 -0.5258  1.0114 -1.6498
49499SOL     OW53816   3.716  11.498   5.456  0.1921 -0.5649 -0.0570
49499SOL    HW153817   3.672  11.468   5.376  1.4357 -1.2653 -0.5182
49499SOL    HW253818   3.804  11.461   5.449 -0.2667 -2.4397  2.6789
49500SOL     OW53819   5.043   9.251   4.078  0.2293 -0.3152  0.4253
49500SOL    HW153820   4.973   9.316   4.080  1.1028  0.6230  2.1001
49500SOL    HW253821   5.117   9.296   4.038  0.6118 -0.5289  0.8961
49501SOL     OW53822   2.543   9.448   2.035 -0.1569 -0.5037 -0.0613
49501SOL    HW153823   2.602   9.497   2.093  2.2717 -2.0689 -1.0401
49501SOL    HW253824   2.487   9.515   1.997  0.7719  1.0566  1.1664
49502SOL     OW53825   7.732   5.171  10.809  0.2216  0.2323  0.3176
49502SOL    HW153826   7.703   5.255  10.774  1.4052  0.5585  0.0686
49502SOL    HW253827   7.654   5.132  10.848 -0.3334  1.4481  0.4363
49503SOL     OW53828  11.388   5.342   1.999 -0.4479 -0.1711 -0.6363
49503SOL    HW153829  11.483   5.345   2.003 -0.4455  0.6229 -1.0648
49503SOL    HW253830  11.362   5.297   2.079  0.1433  2.7947  1.3406
49504SOL     OW53831   1.264   2.017  10.361  0.1147  0.6528  0.3141
49504SOL    HW153832   1.242   2.109  10.377 -1.0976 -0.0321  3.2138
49504SOL    HW253833   1.315   1.991  10.437 -1.3764 -1.5847  0.6399
49505SOL     OW53834   7.845   3.891   6.130 -0.2942  0.1908 -0.8189
49505SOL    HW153835   7.766   3.920   6.175 -0.6788 -1.1389 -0.5993
49505SOL    HW253836   7.815   3.865   6.043 -0.2697 -1.0879 -0.4673
49506SOL     OW53837  10.435   4.469   6.820  0.0616  0.1512 -0.0083
49506SOL    HW153838  10.488   4.483   6.742  0.6768 -1.1142  0.1655
49506SOL    HW253839  10.475   4.394   6.864  0.4630  1.5433  2.1644
49507SOL     OW53840   3.538   9.988   8.046 -0.2310 -0.2476 -0.3364
49507SOL    HW153841   3.629   9.986   8.016  0.2847 -0.6103  1.1846
49507SOL    HW253842   3.498   9.913   8.002  0.4626 -0.6861 -0.2458
49508SOL     OW53843   3.621   0.466  10.540 -0.0988 -0.1685  0.0951
49508SOL    HW153844   3.551   0.477  10.476  0.9104 -3.1005 -1.6855
49508SOL    HW253845   3.580   0.419  10.613  0.0110 -2.2877 -1.1386
49509SOL     OW53846   8.232   7.831   0.680 -0.0325 -0.3336  0.4321
49509SOL    HW153847   8.175   7.833   0.758  0.2308  0.3562  0.6180
49509SOL    HW253848   8.321   7.827   0.716  0.0746 -4.3968  0.1709
49510SOL     OW53849   5.464   2.103  11.279  0.0403  0.0518  0.1255
49510SOL    HW153850   5.437   2.120  11.369 -0.5798 -0.6208  0.0710
49510SOL    HW253851   5.517   2.180  11.256  0.9521 -0.1746  1.3447
49511SOL     OW53852   1.695   5.454   8.515 -0.0417  0.3230 -0.8636
49511SOL    HW153853   1.666   5.371   8.553 -0.0879 -0.2922 -2.1902
49511SOL    HW253854   1.614   5.498   8.490 -0.2072  1.9405  2.0210
49512SOL     OW53855   4.157  11.729   5.585 -0.2111 -0.1002 -0.3563
49512SOL    HW153856   4.202  11.734   5.501 -2.1249  1.3598 -1.3707
49512SOL    HW253857   4.187  11.807   5.632 -0.4030 -0.0187 -0.3683
49513SOL     OW53858   9.167   9.978   6.510  0.1112 -0.4038  0.4730
49513SOL    HW153859   9.187  10.020   6.426  0.7945  0.1115  0.8882
49513SOL    HW253860   9.085  10.018   6.539 -1.7055 -2.5539 -1.2603
49514SOL     OW53861   5.811  10.144   2.798 -0.4438 -0.1077  0.4905
49514SOL    HW153862   5.882  10.200   2.765 -1.6785  0.5340 -1.1853
49514SOL    HW253863   5.814  10.066   2.743  0.1952 -0.9732  1.7213
49515SOL     OW53864   9.941  10.581   2.403 -0.1588  0.7839  0.1386
49515SOL    HW153865   9.895  10.524   2.342 -0.0493 -0.8423  1.5055
49515SOL    HW253866   9.915  10.549   2.489  1.6142  1.3995  0.9426
49516SOL     OW53867   4.595   1.655   6.319  0.3685  0.5829  0.0531
49516SOL    HW153868   4.544   1.625   6.394 -0.9700 -0.0754 -1.0745
49516SOL    HW253869   4.533   1.656   6.246  1.8323  0.2840 -1.2666
49517SOL     OW53870   8.778   5.403   7.757  0.0117  0.0104  0.6324
49517SOL    HW153871   8.782   5.341   7.684  0.1090  0.2065  0.4674
49517SOL    HW253872   8.863   5.448   7.754 -0.1593  0.3371  0.5817
49518SOL     OW53873   2.099   4.880   7.404  0.6892 -0.7752  0.3735
49518SOL    HW153874   2.127   4.897   7.315  1.7592 -2.2418  0.3824
49518SOL    HW253875   2.084   4.785   7.406 -1.3587 -0.4862  1.2136
49519SOL     OW53876   2.421   3.479  10.399 -0.5597  0.0017 -0.5683
49519SOL    HW153877   2.458   3.558  10.360 -4.0912  1.6855 -0.9358
49519SOL    HW253878   2.329   3.501  10.414 -1.2368 -3.3882  1.2479
49520SOL     OW53879   2.966  11.670   6.876 -0.4353  0.1212  0.3811
49520SOL    HW153880   3.010  11.686   6.960  0.6571  0.2814 -0.2029
49520SOL    HW253881   2.874  11.693   6.893  0.0488  1.6684  1.1112
49521SOL     OW53882   0.395   1.807   3.475 -0.1565  0.3708 -0.1309
49521SOL    HW153883   0.352   1.755   3.408  2.6580 -0.9542 -1.0785
49521SOL    HW253884   0.396   1.896   3.440 -2.2776  0.5420  0.0999
49522SOL     OW53885  11.753   9.404   8.890  0.6986 -0.1392 -0.6776
49522SOL    HW153886  11.671   9.398   8.841 -0.2926 -2.4990  1.0840
49522SOL    HW253887  11.725   9.411   8.981  2.4745 -0.2854 -0.0967
49523SOL     OW53888   6.229   2.823   5.510  0.3334  0.2187  0.5089
49523SOL    HW153889   6.193   2.909   5.533 -0.5498 -0.2257  0.8265
49523SOL    HW253890   6.298   2.842   5.447 -0.9787  1.0568 -0.7288
49524SOL     OW53891  10.081   2.942   0.567  0.0580  0.1143  0.0575
49524SOL    HW153892  10.099   3.033   0.591 -2.2032  0.6593 -0.0781
49524SOL    HW253893  10.014   2.914   0.630 -0.2334 -1.0252 -0.7383
49525SOL     OW53894   5.539  10.608   3.075  0.0757 -0.2162  0.6131
49525SOL    HW153895   5.475  10.663   3.120 -0.1871 -0.6079  0.7332
49525SOL    HW253896   5.614  10.604   3.135  0.4149  0.6399  0.2535
49526SOL     OW53897   7.173   2.258  11.320  0.0095  0.9311 -0.4534
49526SOL    HW153898   7.240   2.198  11.287 -0.5007 -0.9783  1.7680
49526SOL    HW253899   7.106   2.260  11.251 -0.0295 -1.2232 -0.5427
49527SOL     OW53900   3.444   3.835   8.641  0.0462  0.0865 -0.3234
49527SOL    HW153901   3.369   3.894   8.638 -0.3457 -0.4390 -2.8352
49527SOL    HW253902   3.460   3.822   8.735 -2.0291  1.3971  0.2854
49528SOL     OW53903   2.175   7.291   6.274  0.4011  0.0501  0.0240
49528SOL    HW153904   2.174   7.356   6.203 -0.5311  1.2339  1.0708
49528SOL    HW253905   2.141   7.338   6.350 -1.0489 -1.8870  0.6560
49529SOL     OW53906   3.216   4.691   1.182  0.1820  0.0907  0.1915
49529SOL    HW153907   3.223   4.664   1.274  1.8147  2.1464  0.7371
49529SOL    HW253908   3.275   4.631   1.135 -0.3498 -0.7036  0.5065
49530SOL     OW53909  10.695   1.779   6.160  0.2298 -0.4182 -0.2726
49530SOL    HW153910  10.774   1.766   6.109 -0.0128  1.1937 -1.1261
49530SOL    HW253911  10.629   1.808   6.096 -0.4805  0.2416  0.7138
49531SOL     OW53912   7.437   0.396   1.733  0.2892  0.5975  0.1151
49531SOL    HW153913   7.531   0.412   1.719  0.0532  2.9082  0.8966
49531SOL    HW253914   7.435   0.326   1.798  1.5179  1.6046  1.2997
49532SOL     OW53915   7.158   8.101   3.718  0.3370  0.4546 -0.0468
49532SOL    HW153916   7.122   8.043   3.650  0.1424  1.3411 -0.7127
49532SOL    HW253917   7.218   8.045   3.767 -1.8616 -1.0835  1.0758
49533SOL     OW53918  11.220   7.672   6.030  0.2047 -0.3188  0.2837
49533SOL    HW153919  11.126   7.686   6.031  0.0645 -1.2196  0.5834
49533SOL    HW253920  11.236   7.617   5.953  0.4594 -0.3100  0.3290
49534SOL     OW53921   1.980   8.561   5.804  0.1405 -0.7712  0.2246
49534SOL    HW153922   1.902   8.613   5.783 -0.0587 -1.6820 -1.5071
49534SOL    HW253923   1.951   8.501   5.873 -0.6521 -0.9481 -0.2445
49535SOL     OW53924   1.139   2.053   7.219  0.1791 -0.3766  0.1496
49535SOL    HW153925   1.049   2.056   7.252 -0.0611 -1.9658 -0.2803
49535SOL    HW253926   1.172   2.142   7.232 -0.4261 -0.4842  3.1793
49536SOL     OW53927   2.091   1.176   4.623  0.6323  0.0210  0.1766
49536SOL    HW153928   2.050   1.099   4.664  0.9695  0.0483  0.5846
49536SOL    HW253929   2.182   1.174   4.656  0.5308  0.8296  0.5367
49537SOL     OW53930   6.572   1.120   5.320 -0.1993  0.1818  0.4734
49537SOL    HW153931   6.636   1.191   5.318  0.7597 -0.6692 -0.4646
49537SOL    HW253932   6.572   1.089   5.410  0.1774  0.6634  0.6393
49538SOL     OW53933   5.153   1.228   3.468  0.3419  0.6679 -0.1783
49538SOL    HW153934   5.086   1.274   3.417  0.8424  0.8570 -0.6733
49538SOL    HW253935   5.187   1.295   3.528  1.0208  0.9437 -0.8504
49539SOL     OW53936  11.373   0.757  11.622 -0.0083  0.1838 -0.7909
49539SOL    HW153937  11.371   0.718  11.535  0.5504  1.6282 -1.4873
49539SOL    HW253938  11.425   0.696  11.674 -0.6589 -0.8858 -1.3395
49540SOL     OW53939   2.327   8.248   9.302 -0.0053  0.6135  0.4433
49540SOL    HW153940   2.378   8.191   9.359  0.9280  2.0049  1.0508
49540SOL    HW253941   2.244   8.202   9.290  0.4978 -0.5925  1.3710
49541SOL     OW53942   1.194   8.770   3.460 -0.2489  0.5954 -0.1198
49541SOL    HW153943   1.186   8.812   3.546  0.8381  0.7442 -0.0729
49541SOL    HW253944   1.115   8.797   3.413  0.6094  3.1333 -0.2714
49542SOL     OW53945   9.009   2.282  10.424  0.5576 -0.0707  0.0991
49542SOL    HW153946   8.927   2.233  10.417  0.7051 -0.1146 -1.9366
49542SOL    HW253947   9.056   2.239  10.496 -1.4752  0.4488  1.8271
49543SOL     OW53948  11.506   3.613   5.386  0.1737 -0.2231 -0.3312
49543SOL    HW153949  11.593   3.630   5.350 -0.0017  2.2085  0.2655
49543SOL    HW253950  11.516   3.628   5.480 -0.9011  0.1863 -0.2680
49544SOL     OW53951   0.880   9.523   3.740  0.4434  0.2461 -0.4372
49544SOL    HW153952   0.905   9.615   3.750  0.5855  0.4480 -2.2562
49544SOL    HW253953   0.956   9.482   3.700 -0.5727 -0.0189 -2.2253
49545SOL     OW53954   5.994  11.122   7.844 -0.0592  0.0858 -0.4496
49545SOL    HW153955   5.960  11.038   7.813  1.2088 -0.3087 -0.8367
49545SOL    HW253956   6.078  11.132   7.800 -0.2635  1.6568 -0.5363
49546SOL     OW53957   3.361   5.927   8.359  0.6993  0.4594 -0.1516
49546SOL    HW153958   3.301   5.912   8.286  1.6687  3.8577 -1.8042
49546SOL    HW253959   3.404   5.842   8.371 -2.2825 -1.3074 -0.7765
49547SOL     OW53960   7.898   5.241  10.473  0.2707 -0.2664  0.2099
49547SOL    HW153961   7.966   5.245  10.540 -0.9923  2.6869  1.4795
49547SOL    HW253962   7.902   5.151  10.440  3.0859 -0.8953  1.9436
49548SOL     OW53963   7.582   3.275   3.548  0.0207 -0.4047  0.8225
49548SOL    HW153964   7.564   3.183   3.563  1.0602 -0.5325  1.3257
49548SOL    HW253965   7.496   3.316   3.542 -0.4676 -1.0643  2.7101
49549SOL     OW53966  11.543   0.834   2.292 -0.1324  0.0436 -0.0672
49549SOL    HW153967  11.567   0.742   2.303  1.5380  0.4171 -0.3043
49549SOL    HW253968  11.607   0.868   2.230  0.3333  1.7587  1.2776
49550SOL     OW53969   6.478   6.029   2.636 -0.0829 -0.0729 -0.3100
49550SOL    HW153970   6.462   5.980   2.555  1.2557 -1.4779  0.2293
49550SOL    HW253971   6.536   6.100   2.610 -2.0209  1.3257 -1.0960
49551SOL     OW53972  10.319   8.317   5.582 -0.3866  0.0725 -0.2826
49551SOL    HW153973  10.258   8.249   5.610  0.0398 -0.3617 -0.3979
49551SOL    HW253974  10.343   8.292   5.493  0.6950 -0.2842  0.1005
49552SOL     OW53975   4.688  10.179  11.064 -0.2048  0.2663  0.0872
49552SOL    HW153976   4.682  10.086  11.085 -2.0993  0.0786 -1.1113
49552SOL    HW253977   4.751  10.184  10.992  0.9491  0.1112  1.0502
49553SOL     OW53978   5.145  10.832   9.299  0.3244 -0.2373 -0.1601
49553SOL    HW153979   5.178  10.784   9.223  0.8174  1.5033 -1.0925
49553SOL    HW253980   5.221  10.844   9.356  0.0536 -1.1283  0.4150
49554SOL     OW53981   7.241   4.993   4.087 -0.1940 -0.0498 -0.1248
49554SOL    HW153982   7.214   5.027   4.002 -0.4851  0.1114  0.0286
49554SOL    HW253983   7.161   4.994   4.140 -0.9574 -3.7000 -0.9448
49555SOL     OW53984   4.370   9.850  10.109  0.5034 -0.2503  0.1593
49555SOL    HW153985   4.285   9.887  10.086 -0.0190 -0.3586  1.7824
49555SOL    HW253986   4.351   9.759  10.130  1.5111 -1.0718 -2.1988
49556SOL     OW53987   3.805   1.318   7.335  0.0438 -0.1068  0.2756
49556SOL    HW153988   3.807   1.324   7.430  0.2244 -0.0942  0.2712
49556SOL    HW253989   3.752   1.393   7.307 -0.8935 -0.7019  0.4177
49557SOL     OW53990   6.684   4.282   1.570  1.0935 -0.5275 -0.2038
49557SOL    HW153991   6.775   4.262   1.592  0.7040 -2.1497  0.1156
49557SOL    HW253992   6.679   4.271   1.475  1.3213 -0.0162 -0.2760
49558SOL     OW53993   8.049   4.561   8.722  0.1543  0.1692  0.0255
49558SOL    HW153994   8.034   4.517   8.638 -1.6858 -2.2483  1.4976
49558SOL    HW253995   8.137   4.536   8.748 -0.3008 -1.4375  0.0992
49559SOL     OW53996   0.501  10.365   5.905 -0.3382  0.2272  0.2919
49559SOL    HW153997   0.477  10.298   5.841 -0.5820 -1.6560  2.2438
49559SOL    HW253998   0.426  10.425   5.906 -1.1421 -0.7462  0.0950
49560SOL     OW53999   9.681   0.062   8.258  0.1240 -0.5825  0.3544
49560SOL    HW154000   9.590   0.037   8.247  0.4439 -1.3416 -0.8318
49560SOL    HW254001   9.698   0.124   8.187  0.2208  0.5283  1.3118
49561SOL     OW54002   8.081   2.199   7.082  0.0343  0.8214  0.5959
49561SOL    HW154003   8.103   2.154   7.001  1.7611  1.5503  0.6213
49561SOL    HW254004   8.126   2.284   7.077 -0.4804  1.2175  1.9520
49562SOL     OW54005   1.628   0.456  11.381 -0.3529 -0.4322  0.1633
49562SOL    HW154006   1.609   0.486  11.470  0.6118  0.1165  0.1921
49562SOL    HW254007   1.688   0.382  11.393 -0.2539 -0.3823 -0.0326
49563SOL     OW54008  10.286   9.203  10.547  0.0824 -0.3402  0.2319
49563SOL    HW154009  10.254   9.207  10.456  1.5943  1.2053 -0.2985
49563SOL    HW254010  10.326   9.117  10.555  0.8550 -0.1126 -0.9339
49564SOL     OW54011  10.204   5.251   2.238 -0.3398  0.1443 -0.0185
49564SOL    HW154012  10.125   5.239   2.186 -0.6424 -2.1776  0.8462
49564SOL    HW254013  10.177   5.231   2.327  0.8387  1.1005  0.5782
49565SOL     OW54014   7.368  11.249   5.109  0.2174 -0.2131  0.3244
49565SOL    HW154015   7.336  11.338   5.097  0.5048 -0.0170  0.9483
49565SOL    HW254016   7.393  11.220   5.022 -0.9555 -0.1021 -0.0704
49566SOL     OW54017   9.798   5.435   3.885  0.2742  0.2629  0.1896
49566SOL    HW154018   9.741   5.365   3.854 -0.3145  0.0676  1.6455
49566SOL    HW254019   9.883   5.393   3.900  0.3240  0.1819 -0.2997
49567SOL     OW54020  10.337   8.971   3.049  0.3977 -0.0870 -0.1752
49567SOL    HW154021  10.284   9.009   3.119  1.6509  0.8602  0.2989
49567SOL    HW254022  10.421   9.018   3.054  1.5077 -1.9232 -0.4980
49568SOL     OW54023   9.526   1.634   2.898  0.2374 -0.1865 -0.2235
49568SOL    HW154024   9.529   1.702   2.830 -0.2462 -0.6065 -0.6702
49568SOL    HW254025   9.502   1.554   2.851  1.8115 -0.9009  0.1142
49569SOL     OW54026  11.210  10.768   3.337 -0.1236  0.5714 -0.2799
49569SOL    HW154027  11.147  10.701   3.359 -1.7626  2.0112 -0.3730
49569SOL    HW254028  11.218  10.821   3.416 -0.9733  1.8641 -1.0226
49570SOL     OW54029   1.690  11.097   5.484  0.4142 -0.2912  0.3757
49570SOL    HW154030   1.676  11.015   5.436  1.3998 -0.5688  0.5440
49570SOL    HW254031   1.655  11.164   5.426 -0.9167 -0.8647  0.4723
49571SOL     OW54032   8.495  11.502   4.254 -0.1709  0.2901  0.2608
49571SOL    HW154033   8.566  11.515   4.317  0.0957  2.0634 -0.3371
49571SOL    HW254034   8.424  11.558   4.287 -0.7906 -0.4028  0.1128
49572SOL     OW54035   2.350   6.912   9.801  0.1236 -0.4496 -0.0141
49572SOL    HW154036   2.287   6.951   9.861 -0.4779 -1.1451 -0.1729
49572SOL    HW254037   2.303   6.837   9.763  0.5058 -0.0511 -1.3115
49573SOL     OW54038  10.502   8.496   2.386  0.7738  0.1303 -0.4019
49573SOL    HW154039  10.540   8.418   2.426 -0.2297  0.8698  2.2083
49573SOL    HW254040  10.578   8.546   2.355  1.5651 -0.8143 -0.0614
49574SOL     OW54041   8.396   7.760   4.617 -0.3612  0.1012 -0.5509
49574SOL    HW154042   8.462   7.729   4.679 -0.3016 -1.4859 -1.3517
49574SOL    HW254043   8.446   7.794   4.543 -0.3947 -1.1522 -1.1822
49575SOL     OW54044   3.976   4.130   9.475 -0.0533  0.1002  0.0511
49575SOL    HW154045   4.034   4.193   9.519 -1.5918  1.5461  0.1357
49575SOL    HW254046   4.032   4.054   9.458  1.0214  0.0573  3.1102
49576SOL     OW54047  10.315   2.740   7.276 -0.0415  0.6335  0.3204
49576SOL    HW154048  10.316   2.833   7.298  0.3258  0.3885  1.3929
49576SOL    HW254049  10.399   2.707   7.306 -0.4485 -0.1852  0.5932
49577SOL     OW54050   8.278   6.302   1.014  0.1350 -0.3051  0.0713
49577SOL    HW154051   8.322   6.376   1.056 -0.4343 -0.1594  0.4186
49577SOL    HW254052   8.187   6.330   1.006 -0.6042 -1.8037  2.2425
49578SOL     OW54053   5.299   9.111   1.697 -0.2274 -0.4462  0.2738
49578SOL    HW154054   5.345   9.179   1.646  1.3278 -0.5502  1.4716
49578SOL    HW254055   5.359   9.090   1.768 -1.2751 -2.1228  0.7115
49579SOL     OW54056   9.337   1.430   1.898 -0.3374  0.3466 -0.5781
49579SOL    HW154057   9.261   1.396   1.945 -0.1371  0.5558 -0.0896
49579SOL    HW254058   9.340   1.523   1.920 -0.4723  0.5360 -1.3427
49580SOL     OW54059  11.273  11.779   1.784  0.3831 -0.9318 -0.6789
49580SOL    HW154060  11.239  11.846   1.723  1.5377 -0.1325 -0.4651
49580SOL    HW254061  11.345  11.738   1.736  1.2958 -0.3020  0.1312
49581SOL     OW54062   7.649   5.038   3.330 -0.5374  0.1301  0.1975
49581SOL    HW154063   7.597   4.961   3.310 -1.1529  0.2508  1.2243
49581SOL    HW254064   7.637   5.051   3.424  0.6485  0.6824  0.2921
49582SOL     OW54065   4.137   9.056   1.344  0.2516 -0.0739 -0.1457
49582SOL    HW154066   4.129   9.105   1.262  0.7248  0.9947  0.4344
49582SOL    HW254067   4.135   8.964   1.317 -0.0835  0.2571 -1.3070
49583SOL     OW54068   8.557   5.613   9.326  0.5521 -0.0967  0.1781
49583SOL    HW154069   8.478   5.583   9.371  0.0577  0.7430 -0.1247
49583SOL    HW254070   8.571   5.702   9.358  0.2983  0.4487 -1.1630
49584SOL     OW54071   8.393   5.808   9.816 -0.4101 -0.7608  0.2327
49584SOL    HW154072   8.419   5.815   9.724 -0.5880 -1.1754  0.1472
49584SOL    HW254073   8.409   5.716   9.839 -0.5561 -0.7088  0.5568
49585SOL     OW54074   7.107  10.095   0.644  0.2918 -0.0231 -0.0672
49585SOL    HW154075   7.047  10.153   0.690  1.4859 -0.0362  1.5693
49585SOL    HW254076   7.106  10.013   0.694  3.3642  0.7163  1.4874
49586SOL     OW54077   4.809   0.188  11.622 -0.3574  0.3666  0.4894
49586SOL    HW154078   4.863   0.257  11.660  2.1016 -0.2642 -1.5474
49586SOL    HW254079   4.800   0.123  11.692  2.7134 -0.0704  0.6141
49587SOL     OW54080  11.768   0.279   6.911  0.0830 -0.2409  0.2524
49587SOL    HW154081  11.772   0.323   6.996 -0.3751  0.8993 -0.2954
49587SOL    HW254082  11.726   0.342   6.853  2.1173 -0.2227 -1.3065
49588SOL     OW54083  11.187   5.041   4.755  0.1222 -0.1987  0.7877
49588SOL    HW154084  11.150   5.002   4.676 -1.3699  0.1284  1.2928
49588SOL    HW254085  11.232   4.968   4.799  0.3349 -0.5435  0.0195
49589SOL     OW54086   3.018  10.239  11.658  0.6432 -0.3356 -0.6657
49589SOL    HW154087   3.101  10.286  11.652 -0.3742  1.3270 -2.7993
49589SOL    HW254088   3.033  10.159  11.608  0.9437 -0.0217 -1.0841
49590SOL     OW54089   0.094   7.246  10.472  0.7472  0.0827  0.2900
49590SOL    HW154090   0.044   7.203  10.541 -0.6727  1.2026  0.0140
49590SOL    HW254091   0.033   7.253  10.398  1.8569 -0.0214 -0.6624
49591SOL     OW54092   1.489   9.854  11.001  0.0195 -0.0860 -0.1526
49591SOL    HW154093   1.559   9.831  11.062 -0.3586  0.5392  0.5279
49591SOL    HW254094   1.451   9.934  11.036 -0.4579  0.0805 -1.0050
49592SOL     OW54095   8.321   2.694   9.694 -0.1844 -0.1243 -0.1287
49592SOL    HW154096   8.235   2.662   9.667 -0.8374  0.9343  0.6121
49592SOL    HW254097   8.365   2.717   9.612 -0.7844 -0.2413 -0.4900
49593SOL     OW54098   1.532   1.523   9.979  0.3716  0.3351  0.2173
49593SOL    HW154099   1.611   1.532  10.032  0.2447  2.2930  0.1569
49593SOL    HW254100   1.562   1.481   9.899  1.4906  1.4868 -0.0153
49594SOL     OW54101   8.047   2.707   0.945 -0.1826  0.0367  0.1343
49594SOL    HW154102   8.135   2.670   0.950 -0.6761 -1.0662  1.2749
49594SOL    HW254103   8.049   2.782   1.005 -0.0705 -0.1147  0.3207
49595SOL     OW54104   5.819   0.871  11.774 -0.0320 -0.0461  0.4082
49595SOL    HW154105   5.808   0.930  11.848  1.7612 -0.1214  0.7898
49595SOL    HW254106   5.902   0.897  11.734 -0.4894 -0.6304 -1.0078
49596SOL     OW54107   2.917   9.179  11.550  0.1370  0.7213 -0.5205
49596SOL    HW154108   2.910   9.187  11.645  0.1285 -1.5560 -0.2685
49596SOL    HW254109   3.011   9.183  11.534  0.0965  1.8666 -0.5168
49597SOL     OW54110   2.488   0.310   0.124  0.2060  0.1307  0.0162
49597SOL    HW154111   2.507   0.275   0.211  1.3294  1.9701  0.5558
49597SOL    HW254112   2.433   0.387   0.140 -0.9460 -0.4275 -1.0417
49598SOL     OW54113   5.134   9.659   1.894  0.2307 -0.0453 -0.1878
49598SOL    HW154114   5.170   9.663   1.983 -0.9896 -0.2722  0.3452
49598SOL    HW254115   5.150   9.569   1.866  1.9524  0.4170 -0.8135
49599SOL     OW54116   3.167   6.424   2.027  0.0792 -0.1754  0.0207
49599SOL    HW154117   3.082   6.454   2.058 -0.3349 -1.1218 -0.1742
49599SOL    HW254118   3.147   6.358   1.962  0.9678 -0.3953 -0.0385
49600SOL     OW54119  10.233   6.306   8.919 -0.1989 -0.0524  0.1536
49600SOL    HW154120  10.253   6.299   8.826 -0.2634  0.0314  0.1336
49600SOL    HW254121  10.318   6.316   8.961 -0.2859  2.6284 -0.1164
49601SOL     OW54122  10.163   5.406   3.359  0.6839 -0.4757  0.0781
49601SOL    HW154123  10.095   5.465   3.327  1.0250  0.1455  0.4741
49601SOL    HW254124  10.121   5.358   3.431  0.7814  0.2311  0.6252
49602SOL     OW54125   1.711   1.478  10.159 -0.3918  0.5493 -0.3063
49602SOL    HW154126   1.670   1.508  10.240  0.7559  0.1670  0.4454
49602SOL    HW254127   1.691   1.384  10.156  1.1593  0.1492  0.5696
49603SOL     OW54128  11.126   6.033   5.474  0.3728  0.2455  0.1462
49603SOL    HW154129  11.118   6.073   5.388 -0.9916 -1.6046 -0.6461
49603SOL    HW254130  11.039   6.042   5.513  1.0272  1.2538  1.4658
49604SOL     OW54131   8.586  11.781   1.818  0.4778  0.6602 -0.1807
49604SOL    HW154132   8.496  11.814   1.827 -0.6733 -1.8330 -1.4688
49604SOL    HW254133   8.597  11.723   1.893  0.3257 -0.4054 -0.9690
49605SOL     OW54134   9.872   5.591   4.097 -0.2095 -0.0972 -0.2078
49605SOL    HW154135   9.837   5.523   4.039 -0.6263 -0.7789  0.8211
49605SOL    HW254136   9.965   5.593   4.077 -0.1956 -0.9527 -0.2903
49606SOL     OW54137   6.641   4.784   3.698  0.0743 -0.2057 -0.0237
49606SOL    HW154138   6.619   4.849   3.764 -0.2478  0.0578 -0.3826
49606SOL    HW254139   6.736   4.788   3.690  0.0247  0.5267 -0.3451
49607SOL     OW54140   8.145   7.200   8.383 -0.5969 -0.6128  0.1598
49607SOL    HW154141   8.172   7.263   8.316  1.4176 -2.5840 -1.0352
49607SOL    HW254142   8.202   7.218   8.457  1.4786 -2.1860 -0.9204
49608SOL     OW54143   7.756   8.065   1.279 -0.1441  0.6555  0.1686
49608SOL    HW154144   7.759   8.159   1.263  0.0629  0.5213 -0.6156
49608SOL    HW254145   7.765   8.025   1.193  0.6404 -0.1055  0.5877
49609SOL     OW54146   0.307   5.946   5.679 -0.6565 -0.5047 -0.1583
49609SOL    HW154147   0.260   5.911   5.755 -0.1017  1.8025  1.3385
49609SOL    HW254148   0.399   5.924   5.695 -0.6275 -0.6994 -0.5763
49610SOL     OW54149   5.215   9.851   0.933 -0.2600 -0.6473 -0.8213
49610SOL    HW154150   5.247   9.813   1.014 -0.7750 -1.5183 -1.0214
49610SOL    HW254151   5.161   9.925   0.961  1.1015  0.2546 -0.4520
49611SOL     OW54152   3.022  11.818   2.571 -0.4223  0.7364 -0.1472
49611SOL    HW154153   3.033  11.838   2.664 -1.5338  1.2144 -0.1052
49611SOL    HW254154   2.980  11.732   2.569 -0.5555  0.8028 -0.2024
49612SOL     OW54155  11.634   2.768   1.560  0.1325 -0.0715  0.4403
49612SOL    HW154156  11.671   2.682   1.546 -0.0287 -0.0275 -0.2598
49612SOL    HW254157  11.570   2.755   1.630  0.0995 -0.5177  0.3284
49613SOL     OW54158   9.017   4.003   7.860 -0.3798 -0.5886  0.0981
49613SOL    HW154159   8.942   4.049   7.822  2.0315  3.3886 -0.5102
49613SOL    HW254160   9.059   3.960   7.785 -0.7432 -0.7895  0.0070
49614SOL     OW54161   6.051   7.434   3.497  0.1480 -0.3719  0.4105
49614SOL    HW154162   6.124   7.490   3.523  0.6524 -0.8976  0.1488
49614SOL    HW254163   6.003   7.417   3.578  1.3268 -1.4649  0.9157
49615SOL     OW54164  11.040  11.075   1.054 -0.1514  0.8865  0.2245
49615SOL    HW154165  11.078  11.139   0.994 -0.2208  1.2310  0.5468
49615SOL    HW254166  10.986  11.019   0.998 -0.0813  1.1023 -0.0591
49616SOL     OW54167   8.816   0.996   7.580  0.4008  0.0291  0.0403
49616SOL    HW154168   8.765   0.923   7.616  0.4403 -0.2870 -0.5273
49616SOL    HW254169   8.768   1.075   7.608  1.4935 -0.0919  2.4334
49617SOL     OW54170   4.595   2.227   8.770  0.2232  0.5916  0.0451
49617SOL    HW154171   4.585   2.316   8.802  1.1902  0.3880  0.9603
49617SOL    HW254172   4.670   2.230   8.710 -0.6920  0.6820 -1.1327
49618SOL     OW54173   4.572   4.934   0.096  0.3654  0.0814  0.0556
49618SOL    HW154174   4.549   4.996   0.027 -1.7191  0.9231  1.3801
49618SOL    HW254175   4.573   4.986   0.176  0.9676 -1.1706  0.9079
49619SOL     OW54176   8.271   8.806  10.992  0.0221  0.3130 -0.3751
49619SOL    HW154177   8.180   8.796  11.019  0.2175 -0.7953 -0.0853
49619SOL    HW254178   8.321   8.802  11.073  0.3781  0.1946 -0.5964
49620SOL     OW54179   9.116  11.587   2.408 -0.0244 -0.4115 -0.6067
49620SOL    HW154180   9.145  11.507   2.452 -0.0238 -0.4168 -0.6165
49620SOL    HW254181   9.158  11.658   2.456 -1.7837 -0.2503  0.8363
49621SOL     OW54182  10.821   2.495   6.825 -0.0965  0.4573 -0.2194
49621SOL    HW154183  10.808   2.466   6.735 -0.4139 -0.5524  0.1355
49621SOL    HW254184  10.910   2.468   6.847 -0.5615 -0.7902  0.2767
49622SOL     OW54185   4.592   6.091  11.010  0.7470  0.3516  0.2220
49622SOL    HW154186   4.679   6.112  10.975  1.1794  0.2942  1.2132
49622SOL    HW254187   4.551   6.176  11.024  1.0579  0.4228  0.7334
49623SOL     OW54188   1.435   7.680  10.731  0.6270  0.3204 -0.0668
49623SOL    HW154189   1.416   7.770  10.706 -1.9709 -0.7749 -2.5292
49623SOL    HW254190   1.366   7.658  10.794  2.1302  0.4076  1.7068
49624SOL     OW54191   2.410   7.312   3.321 -0.0421  0.4986  0.0437
49624SOL    HW154192   2.382   7.289   3.232  1.0540 -0.5102 -0.0614
49624SOL    HW254193   2.505   7.304   3.320 -0.1188 -1.8469  1.8941
49625SOL     OW54194   0.506   9.731   7.754 -0.1779 -0.4576 -0.1239
49625SOL    HW154195   0.600   9.740   7.764 -0.3220  1.1722 -0.0201
49625SOL    HW254196   0.469   9.760   7.837 -0.7671 -1.8774  0.1483
49626SOL     OW54197   9.973  11.096   6.083  0.1047 -0.1704  0.7920
49626SOL    HW154198   9.959  11.155   6.157  0.1181 -0.5361  1.0892
49626SOL    HW254199  10.050  11.044   6.108  1.5275  1.2427 -0.4612
49627SOL     OW54200   9.732   8.343   1.566  0.7960 -0.2667 -0.0609
49627SOL    HW154201   9.706   8.399   1.639  2.5667 -1.2590  1.4422
49627SOL    HW254202   9.673   8.268   1.571  0.5981 -0.1037  0.0592
49628SOL     OW54203   7.426   1.227   6.889  0.0640  0.5047  0.2913
49628SOL    HW154204   7.384   1.212   6.804  1.6941 -1.1601 -0.2756
49628SOL    HW254205   7.394   1.155   6.944  0.9744  0.0878  0.2937
49629SOL     OW54206   7.260   0.379   4.097 -0.7232 -0.1058  0.0201
49629SOL    HW154207   7.189   0.367   4.033 -0.8225 -1.4945  0.3492
49629SOL    HW254208   7.308   0.296   4.094  0.3734  0.4919  0.4436
49630SOL     OW54209   7.237   8.483   2.026  0.0810  0.2786 -0.3380
49630SOL    HW154210   7.151   8.511   2.057  0.2710  0.4151  0.0774
49630SOL    HW254211   7.298   8.515   2.093  0.7894  2.7707 -2.0361
49631SOL     OW54212   6.819   2.003  10.835  0.2266  0.2626  0.1282
49631SOL    HW154213   6.799   2.096  10.844 -2.0150 -0.0854 -0.5104
49631SOL    HW254214   6.804   1.966  10.922 -0.3132  0.2909  0.0532
49632SOL     OW54215   2.029  11.296   8.511  0.4544 -0.1277 -0.4130
49632SOL    HW154216   2.115  11.306   8.470 -0.2385 -0.3015 -1.9496
49632SOL    HW254217   1.979  11.241   8.451 -1.0739  0.8271 -0.0712
49633SOL     OW54218  11.200   2.540   0.107 -0.2458 -0.3794  0.2415
49633SOL    HW154219  11.106   2.551   0.124 -0.3868  0.5460 -1.0729
49633SOL    HW254220  11.221   2.603   0.039  1.7003  0.5851  1.6329
49634SOL     OW54221   3.202   5.505   1.935  0.4094  0.5759 -0.5940
49634SOL    HW154222   3.152   5.443   1.987  0.4880  1.0363  0.0542
49634SOL    HW254223   3.212   5.464   1.850 -1.2601  0.5674 -0.8140
49635SOL     OW54224  10.432   6.874   5.471  0.0175  0.7567  0.4506
49635SOL    HW154225  10.451   6.919   5.388 -0.6262  0.8941  0.3756
49635SOL    HW254226  10.491   6.914   5.534  2.3872 -1.0597 -0.4325
49636SOL     OW54227   4.786  10.985  10.401  0.5883  0.6098  0.2083
49636SOL    HW154228   4.695  10.960  10.383  0.4430  0.2448  1.3488
49636SOL    HW254229   4.822  10.910  10.450  1.7901  0.3420 -1.0260
49637SOL     OW54230   4.227  10.434   7.250 -0.2182  0.1265 -0.0540
49637SOL    HW154231   4.172  10.357   7.261 -0.4072  0.1516 -0.7635
49637SOL    HW254232   4.263  10.425   7.162  2.1353 -0.6579  0.9212
49638SOL     OW54233  11.239  11.826   8.824 -0.1080  0.5780 -0.3602
49638SOL    HW154234  11.264  11.838   8.916 -1.4538  1.2370 -0.0659
49638SOL    HW254235  11.322  11.809   8.779  1.0273  3.5789  0.4097
49639SOL     OW54236   6.089   2.262   3.206 -0.1295  0.0656  0.6261
49639SOL    HW154237   6.057   2.281   3.118  0.1449  0.3466  0.5862
49639SOL    HW254238   6.176   2.302   3.209  1.1511 -2.4513  0.0094
49640SOL     OW54239   8.841   9.672   4.850  0.5250  1.0767  0.0473
49640SOL    HW154240   8.821   9.583   4.879 -0.3180  1.1433 -0.3248
49640SOL    HW254241   8.927   9.664   4.807  1.4009  0.8204  1.7572
49641SOL     OW54242  11.349  10.525   3.517  0.0333 -0.0671  0.2623
49641SOL    HW154243  11.325  10.484   3.600 -0.4260  0.9181  0.6227
49641SOL    HW254244  11.269  10.565   3.486  0.1514 -0.6104 -0.7750
49642SOL     OW54245   3.418   9.172   3.403  0.1378  0.4162 -0.2459
49642SOL    HW154246   3.481   9.136   3.340 -0.6996 -0.1771 -0.7682
49642SOL    HW254247   3.420   9.111   3.476  0.7513  0.8384  0.0985
49643SOL     OW54248   7.215   4.840  11.010  0.0125 -0.0443  0.2577
49643SOL    HW154249   7.201   4.935  11.002 -0.0540 -0.1296 -0.7555
49643SOL    HW254250   7.202   4.807  10.921 -1.6918 -1.2360  0.8951
49644SOL     OW54251  10.463   8.236   9.714 -0.4378 -0.4552 -0.4079
49644SOL    HW154252  10.376   8.208   9.686 -0.2605 -1.3257 -0.1136
49644SOL    HW254253  10.462   8.227   9.810 -0.6529  1.3834 -0.1960
49645SOL     OW54254   8.202   1.413   0.142  0.1709  0.0918  0.1641
49645SOL    HW154255   8.108   1.404   0.158 -0.1896  0.0296 -1.8335
49645SOL    HW254256   8.236   1.452   0.223 -1.6464  0.6254  0.7208
49646SOL     OW54257   7.260   5.463   7.961 -0.2809 -0.1893 -0.3219
49646SOL    HW154258   7.309   5.440   8.040 -1.6537 -0.2061  0.5559
49646SOL    HW254259   7.327   5.496   7.900  0.6432  1.3023  1.3893
49647SOL     OW54260   1.303   1.561   6.402 -0.4293  0.0317  0.7592
49647SOL    HW154261   1.276   1.610   6.480 -0.5848 -0.2704  0.8985
49647SOL    HW254262   1.389   1.597   6.379 -0.3340  0.0487  1.1346
49648SOL     OW54263  11.210   8.746   1.778 -0.6394  0.3089 -0.0451
49648SOL    HW154264  11.222   8.786   1.864 -3.1790 -0.0088  0.5463
49648SOL    HW254265  11.139   8.796   1.738 -0.2199 -0.2335 -1.5334
49649SOL     OW54266   7.501   9.472  11.364 -0.4065  0.6005 -0.1859
49649SOL    HW154267   7.500   9.566  11.379  0.3031  0.6412 -0.3822
49649SOL    HW254268   7.413   9.452  11.331 -0.9385  1.0082  0.9368
49650SOL     OW54269   7.097   9.866   1.052 -0.2957 -0.1821  0.0778
49650SOL    HW154270   7.057   9.787   1.089 -0.8495 -0.5865 -1.3054
49650SOL    HW254271   7.183   9.871   1.093 -0.7941 -0.7191  1.2299
49651SOL     OW54272   6.183   7.775   9.540  0.0946  0.0129  0.5098
49651SOL    HW154273   6.251   7.827   9.583  1.3122 -1.0884 -0.0497
49651SOL    HW254274   6.226   7.694   9.515 -1.0674 -0.1508 -1.1058
49652SOL     OW54275   5.991   9.431   8.337  0.2481 -1.0060  0.0867
49652SOL    HW154276   6.066   9.425   8.396  1.8883  1.6707 -1.5039
49652SOL    HW254277   6.030   9.424   8.249 -1.4886 -0.4836 -0.7579
49653SOL     OW54278   4.880   7.886   2.562 -0.0456  0.7839 -0.1380
49653SOL    HW154279   4.917   7.959   2.610 -0.1797  0.9381 -0.2706
49653SOL    HW254280   4.910   7.898   2.472 -0.3541  0.8669 -0.2301
49654SOL     OW54281   7.571   5.007   3.890 -0.4729  0.3297  0.0010
49654SOL    HW154282   7.543   4.925   3.931 -0.9160  0.8239  0.7068
49654SOL    HW254283   7.641   5.039   3.948 -1.0606  1.0014  0.3504
49655SOL     OW54284   1.705   0.874   9.021  0.5932  0.4421  0.0631
49655SOL    HW154285   1.767   0.946   9.038  2.3498 -1.4227  2.3445
49655SOL    HW254286   1.637   0.885   9.087  0.8278  0.0752  0.3707
49656SOL     OW54287   0.344   2.940   7.664 -0.1311 -0.0775 -0.5104
49656SOL    HW154288   0.249   2.926   7.672 -0.1866  0.9372  1.2075
49656SOL    HW254289   0.379   2.905   7.746  0.4990  2.9706  0.6552
49657SOL     OW54290   3.197   9.563   1.052 -0.3378 -0.3185 -0.0552
49657SOL    HW154291   3.159   9.592   1.135 -1.4176  1.9857 -1.2728
49657SOL    HW254292   3.128   9.576   0.988  1.0567 -0.3359 -1.6328
49658SOL     OW54293   1.302   6.569   3.128 -0.4256  0.0779 -0.3733
49658SOL    HW154294   1.371   6.592   3.190  0.0631  0.5677 -1.0891
49658SOL    HW254295   1.341   6.501   3.073 -0.6127  0.1480 -0.5947
49659SOL     OW54296   5.422   2.360  10.190  0.4097  0.7296  0.1389
49659SOL    HW154297   5.504   2.403  10.212  0.7817 -0.3577  1.0273
49659SOL    HW254298   5.356   2.407  10.240  0.7612  0.5071  0.8282
49660SOL     OW54299   0.640   9.882   1.818  0.3020 -0.3844  0.2126
49660SOL    HW154300   0.637   9.916   1.729  1.1158 -2.5538 -0.6939
49660SOL    HW254301   0.732   9.861   1.833  0.5615  1.7588  2.3651
49661SOL     OW54302   3.956   7.958   4.346  0.6680  0.0168 -0.3500
49661SOL    HW154303   4.043   7.921   4.362  0.3529 -1.8331 -2.4540
49661SOL    HW254304   3.968   8.019   4.273  0.3194  0.3592 -0.1273
49662SOL     OW54305   2.177   1.724   7.054  0.4031  0.6224  0.3140
49662SOL    HW154306   2.188   1.781   7.130  1.7694  1.3149 -0.3742
49662SOL    HW254307   2.249   1.662   7.060 -0.7681 -0.7641  0.7721
49663SOL     OW54308   5.023   4.309   3.930 -0.0453 -0.9258 -0.6972
49663SOL    HW154309   5.089   4.253   3.889 -0.4605 -1.7294 -0.2955
49663SOL    HW254310   4.958   4.248   3.966 -0.5431 -0.1851 -0.3005
49664SOL     OW54311   0.191   1.681   6.499  0.2488  0.1167  0.0226
49664SOL    HW154312   0.216   1.654   6.587 -0.1429 -0.6804 -0.1040
49664SOL    HW254313   0.236   1.619   6.441  0.9932  1.0055 -0.3783
49665SOL     OW54314   8.648   8.081   5.747  0.4598  0.0635  0.1884
49665SOL    HW154315   8.736   8.058   5.778  0.4885 -0.7213 -0.4300
49665SOL    HW254316   8.591   8.063   5.822  0.4212 -2.5776 -0.3751
49666SOL     OW54317   3.834   5.716   4.123 -0.3159 -0.1545  0.0938
49666SOL    HW154318   3.870   5.663   4.194 -1.4765 -1.6111 -0.3713
49666SOL    HW254319   3.884   5.691   4.046 -0.7307 -0.4266 -0.0887
49667SOL     OW54320   7.189   0.291   2.111  0.3130  0.4989  0.2745
49667SOL    HW154321   7.179   0.380   2.143  2.4254  0.8963 -0.0396
49667SOL    HW254322   7.176   0.236   2.188 -0.6780  1.0665  0.5371
49668SOL     OW54323   6.738   5.060   5.122  1.0032 -0.6870  0.2993
49668SOL    HW154324   6.714   5.122   5.191 -0.4831  0.3236 -1.0498
49668SOL    HW254325   6.715   4.974   5.159 -0.7023 -0.0897  0.7300
49669SOL     OW54326   0.702  10.110   1.954 -0.2880  0.1047 -0.5340
49669SOL    HW154327   0.753  10.154   1.886 -0.7600 -0.5147 -1.2984
49669SOL    HW254328   0.635  10.061   1.906 -3.6169  3.1995  0.4321
49670SOL     OW54329   6.853  11.215   4.457  0.4764  0.5159 -0.0811
49670SOL    HW154330   6.924  11.257   4.506 -0.6399  1.2624  0.9516
49670SOL    HW254331   6.779  11.214   4.518 -0.2721 -0.6935 -0.9568
49671SOL     OW54332   6.119   1.820   4.569 -0.9767  0.0445  0.3251
49671SOL    HW154333   6.168   1.796   4.648 -2.6329 -0.8849  1.0997
49671SOL    HW254334   6.110   1.739   4.520 -0.7858  0.4361 -0.3822
49672SOL     OW54335   9.685   1.358   2.561  0.8094 -0.5955  0.3116
49672SOL    HW154336   9.747   1.358   2.487 -0.2569 -0.5072 -0.6077
49672SOL    HW254337   9.659   1.449   2.570  1.4165 -0.4959  1.2452
49673SOL     OW54338   8.940  11.099   5.676  0.8288  0.0713  0.6294
49673SOL    HW154339   8.914  11.156   5.748  2.2854  1.5352  0.0547
49673SOL    HW254340   8.915  11.147   5.597 -1.5253 -1.8763  0.0481
49674SOL     OW54341   7.656   0.930   5.435  0.4384  0.0007  0.2859
49674SOL    HW154342   7.643   1.021   5.406  0.0252 -0.2003 -0.1707
49674SOL    HW254343   7.750   0.923   5.449  0.6706  0.1120 -1.0335
49675SOL     OW54344  10.939   4.543   2.949  0.2325  0.6154 -0.0509
49675SOL    HW154345  10.862   4.556   3.004 -0.2731  0.4629 -0.7044
49675SOL    HW254346  11.002   4.498   3.005 -0.4465  0.0447  0.2654
49676SOL     OW54347  10.569   9.295   0.214 -0.4010 -0.2870  0.2004
49676SOL    HW154348  10.551   9.358   0.144 -0.7737  1.7267  2.0306
49676SOL    HW254349  10.557   9.209   0.172 -1.3509  0.8463 -1.9957
49677SOL     OW54350   5.974  10.687   6.417  0.1815 -0.0644 -0.0952
49677SOL    HW154351   5.942  10.608   6.460  1.7760 -0.5799  0.2078
49677SOL    HW254352   5.906  10.753   6.434 -0.9528 -1.2268  0.0405
49678SOL     OW54353   6.001   7.247   3.298 -0.3638  0.4918 -0.8305
49678SOL    HW154354   5.919   7.264   3.252 -1.1480 -0.3223  0.2196
49678SOL    HW254355   6.000   7.309   3.371 -1.5809 -1.5792  1.0020
49679SOL     OW54356   5.845   1.837   6.465 -0.5882  0.3610 -0.3855
49679SOL    HW154357   5.881   1.923   6.447 -0.9750  0.6726  0.2817
49679SOL    HW254358   5.910   1.794   6.520 -0.5698  0.3693 -0.4009
49680SOL     OW54359   8.959   8.171   6.299 -0.3323  0.4005  0.5554
49680SOL    HW154360   8.886   8.113   6.280 -0.2974  0.1158  1.2558
49680SOL    HW254361   8.920   8.241   6.352 -0.1837  0.4912  0.5444
49681SOL     OW54362   8.799   0.603   7.318  0.0453 -0.1150  0.0321
49681SOL    HW154363   8.761   0.636   7.236  0.6540  0.2880 -0.1015
49681SOL    HW254364   8.884   0.648   7.324 -0.4325  0.6756  1.4191
49682SOL     OW54365   4.366   3.451   9.197  0.3145 -0.1685 -0.4292
49682SOL    HW154366   4.452   3.421   9.164  1.4990  1.1348  1.3028
49682SOL    HW254367   4.342   3.523   9.139 -0.2019 -1.2516 -1.6143
49683SOL     OW54368  10.310   0.607   4.608 -0.3284 -0.6324 -0.3479
49683SOL    HW154369  10.260   0.689   4.604  1.9876  0.7928 -1.9561
49683SOL    HW254370  10.317   0.588   4.702 -1.0634  0.9082  0.0532
49684SOL     OW54371   3.406   6.600   0.907 -0.4520  0.0942  0.1642
49684SOL    HW154372   3.439   6.685   0.877  0.7978 -0.5826 -0.4311
49684SOL    HW254373   3.316   6.597   0.874  0.2412  0.2152 -1.8946
49685SOL     OW54374   3.197   7.384   5.425  0.3065 -0.2324 -0.1366
49685SOL    HW154375   3.214   7.448   5.356  1.4663  1.5632  1.6803
49685SOL    HW254376   3.108   7.354   5.410 -0.0334  1.3365 -1.4522
49686SOL     OW54377   5.535   8.029   4.096 -0.3033 -0.3427  0.6527
49686SOL    HW154378   5.512   8.120   4.079  0.9555 -0.3320 -1.4035
49686SOL    HW254379   5.571   8.029   4.184  0.4281  1.3319  0.4049
49687SOL     OW54380   0.315   8.053   8.265  0.1180 -0.0225 -0.4760
49687SOL    HW154381   0.404   8.020   8.251  1.0643  1.6573  1.0820
49687SOL    HW254382   0.307   8.128   8.206  0.3893  0.8150  0.5000
49688SOL     OW54383   2.927   7.817   2.184 -0.3321 -0.2050 -0.1806
49688SOL    HW154384   2.896   7.770   2.261  0.3266 -1.7918 -0.8329
49688SOL    HW254385   2.858   7.880   2.164 -2.3889 -2.4788 -0.6360
49689SOL     OW54386   9.184   6.817   1.528  0.2620 -0.0524 -0.1069
49689SOL    HW154387   9.145   6.730   1.517  1.0951 -0.2938 -1.4642
49689SOL    HW254388   9.113   6.871   1.563 -1.1532 -0.6060 -1.9220
49690SOL     OW54389   5.232   4.259   8.954 -0.1910 -0.1438 -0.0637
49690SOL    HW154390   5.270   4.289   8.871 -1.9746  0.8887 -0.5657
49690SOL    HW254391   5.272   4.316   9.020 -0.5904  0.7184 -0.5369
49691SOL     OW54392   9.086   9.070  11.616 -0.9632  0.0639  0.2889
49691SOL    HW154393   9.108   9.076  11.523 -0.1697  1.1535  0.5262
49691SOL    HW254394   9.123   8.987  11.644 -1.5154 -0.4401 -0.4362
49692SOL     OW54395   9.619   2.759   6.687  0.2129  0.2844  0.6939
49692SOL    HW154396   9.634   2.755   6.781  0.6345 -0.6874  0.5997
49692SOL    HW254397   9.589   2.671   6.664 -1.9851  1.0971  0.2552
49693SOL     OW54398   7.535   7.377   2.821  0.4232 -0.2044  0.2724
49693SOL    HW154399   7.441   7.362   2.816  0.6569 -2.0093  0.6566
49693SOL    HW254400   7.565   7.372   2.731  0.4544 -2.2023  0.3372
49694SOL     OW54401   2.289   8.706   7.165  0.0923  0.4412  0.2491
49694SOL    HW154402   2.229   8.757   7.112 -1.5620 -1.3211  0.3284
49694SOL    HW254403   2.314   8.764   7.237 -1.5755  1.1998  0.2394
49695SOL     OW54404   0.410   7.160   8.908 -0.2142  0.4523 -0.2516
49695SOL    HW154405   0.490   7.118   8.939 -0.4378 -0.0918 -0.4048
49695SOL    HW254406   0.432   7.191   8.820 -0.3790 -0.3013 -0.5630
49696SOL     OW54407   6.079   8.492   0.567  0.0414  0.2454 -0.0425
49696SOL    HW154408   6.036   8.418   0.523 -0.6026 -0.0700  1.0882
49696SOL    HW254409   6.171   8.466   0.570  0.0054  0.0148 -0.6926
49697SOL     OW54410  10.419   7.048   4.469  0.0311 -0.8331 -0.1385
49697SOL    HW154411  10.403   6.961   4.433 -0.8616 -1.9519  2.7285
49697SOL    HW254412  10.485   7.034   4.536 -0.0056  0.7564  0.2529
49698SOL     OW54413   9.586   2.469   3.869  0.6898  0.2841 -0.1175
49698SOL    HW154414   9.546   2.502   3.789  0.2399 -0.4736 -0.2106
49698SOL    HW254415   9.605   2.548   3.920 -1.5042  0.6755  0.2109
49699SOL     OW54416   9.087   6.820   9.363  0.0159 -0.2154 -0.8002
49699SOL    HW154417   9.023   6.856   9.302  0.3256  2.1949  0.1416
49699SOL    HW254418   9.041   6.816   9.447  0.2938 -1.1698 -0.6828
49700SOL     OW54419  11.785   2.355  10.937  0.0379 -0.2013 -0.2693
49700SOL    HW154420  11.879   2.345  10.955  0.0271  0.7045  0.3519
49700SOL    HW254421  11.781   2.369  10.843  0.5102 -0.4701 -0.3361
49701SOL     OW54422   8.128   7.082  11.055  0.4857  0.5081  0.4748
49701SOL    HW154423   8.094   7.137  10.984  0.4685 -2.0797 -1.6992
49701SOL    HW254424   8.214   7.052  11.023  0.6392 -0.4557  1.6947
49702SOL     OW54425   2.706   8.477   2.880 -0.1253 -0.5890 -0.1974
49702SOL    HW154426   2.736   8.549   2.935  0.6362 -1.2767  0.3022
49702SOL    HW254427   2.782   8.454   2.827  0.1395 -2.0734  0.7844
49703SOL     OW54428   5.909   4.571   2.235 -1.0145  0.1527  0.3467
49703SOL    HW154429   6.003   4.568   2.216 -0.7874 -0.1831  1.4656
49703SOL    HW254430   5.868   4.586   2.150  0.0109 -0.3441 -0.2544
49704SOL     OW54431  11.340   4.345  10.117 -0.2828 -0.0917  0.4446
49704SOL    HW154432  11.323   4.276  10.052 -2.2394 -0.1614  0.9659
49704SOL    HW254433  11.424   4.320  10.157  1.1360  0.0954 -2.1798
49705SOL     OW54434   8.164   1.782   3.435 -0.1380 -0.0496  0.0266
49705SOL    HW154435   8.123   1.813   3.516  0.9114  1.1015  0.1493
49705SOL    HW254436   8.158   1.687   3.440 -0.2942  0.0099  1.3565
49706SOL     OW54437   8.552  11.401  10.501 -0.5323  0.6054  0.0336
49706SOL    HW154438   8.644  11.376  10.511 -0.5012  0.6061 -0.2556
49706SOL    HW254439   8.551  11.461  10.427 -1.0084 -0.7469 -1.1004
49707SOL     OW54440   0.083  11.504  10.849  0.3341  0.8785 -0.2554
49707SOL    HW154441   0.029  11.551  10.913  0.7653  0.0547  0.7240
49707SOL    HW254442   0.039  11.420  10.838  1.4278  0.1675  0.6038
49708SOL     OW54443   0.283   8.910   3.573 -0.0584 -0.0985  0.1104
49708SOL    HW154444   0.350   8.968   3.537  0.8399 -0.6306  0.8831
49708SOL    HW254445   0.331   8.834   3.605 -0.7693  0.3369  2.4236
49709SOL     OW54446   0.499  10.891  10.621 -0.1197  0.1880  0.3356
49709SOL    HW154447   0.548  10.858  10.696 -1.3117 -0.8222  0.6893
49709SOL    HW254448   0.431  10.946  10.660 -0.4422  0.0555 -0.0469
49710SOL     OW54449  10.612   9.979   7.864  0.0584 -0.1196  0.4391
49710SOL    HW154450  10.629  10.042   7.934 -0.0320 -0.6630  0.9571
49710SOL    HW254451  10.519   9.956   7.874  0.2573 -0.8515  0.6913
49711SOL     OW54452   5.037   0.241   1.913  0.1865 -0.1599  0.5886
49711SOL    HW154453   5.116   0.227   1.860 -0.3135  1.2204 -0.5800
49711SOL    HW254454   5.068   0.236   2.003  1.8490  1.3200  0.1613
49712SOL     OW54455   4.033   9.075   2.781 -0.2245 -0.5470  0.5867
49712SOL    HW154456   3.988   9.159   2.782 -2.5273 -1.4983 -3.0411
49712SOL    HW254457   3.962   9.010   2.792  0.6776 -2.0433 -1.7885
49713SOL     OW54458  10.671  10.442   1.585 -0.1599 -0.3340 -0.6430
49713SOL    HW154459  10.642  10.415   1.498  1.1955 -1.4949 -0.7700
49713SOL    HW254460  10.644  10.370   1.643 -1.1359  0.4704 -0.0550
49714SOL     OW54461   3.399   1.041   3.219  0.2722  0.4172 -0.4414
49714SOL    HW154462   3.493   1.054   3.211  0.3974 -0.5908 -0.7126
49714SOL    HW254463   3.368   1.035   3.129  0.1386 -0.4723 -0.3478
49715SOL     OW54464   6.745   8.415   9.116  0.4193 -0.2937  0.2309
49715SOL    HW154465   6.718   8.365   9.039  0.9049 -0.5585  0.2293
49715SOL    HW254466   6.708   8.367   9.190 -0.9726  0.5583  0.1165
49716SOL     OW54467  10.315   9.945   1.421  0.0197  0.4601  0.0101
49716SOL    HW154468  10.368   9.944   1.501  0.4343  0.5866 -0.2573
49716SOL    HW254469  10.304  10.038   1.401 -0.1088  0.4291 -0.0598
49717SOL     OW54470  11.595   5.223   9.723  0.2312 -0.0890 -0.1727
49717SOL    HW154471  11.669   5.264   9.767  1.5646 -1.5394 -0.9745
49717SOL    HW254472  11.588   5.136   9.762 -1.3727  0.1670  0.2072
49718SOL     OW54473  10.739   0.508   7.642  0.2059  0.6207 -0.4197
49718SOL    HW154474  10.717   0.447   7.572 -0.3352 -0.5932  0.7756
49718SOL    HW254475  10.679   0.582   7.629 -0.9741 -0.2974 -0.3235
49719SOL     OW54476   3.941   7.031   0.622 -0.6304 -0.1195  0.4605
49719SOL    HW154477   4.027   7.035   0.580 -0.6757  0.0087  0.3779
49719SOL    HW254478   3.891   7.100   0.579 -0.7907 -0.2291  0.4718
49720SOL     OW54479   6.857   2.698  10.494  0.1323  0.0313 -0.1588
49720SOL    HW154480   6.795   2.759  10.453  0.2135  1.3259  1.5641
49720SOL    HW254481   6.875   2.634  10.425  0.2757  2.1032 -2.1659
49721SOL     OW54482  11.484   4.434   3.199  0.1506  0.4327 -1.1849
49721SOL    HW154483  11.423   4.380   3.148 -0.0056 -0.8803  0.3080
49721SOL    HW254484  11.432   4.509   3.226 -0.5780 -0.2251 -0.6951
49722SOL     OW54485   2.364   7.545   9.521 -0.4969 -0.0518 -0.3910
49722SOL    HW154486   2.269   7.549   9.505 -0.6063 -0.7047  0.0580
49722SOL    HW254487   2.379   7.605   9.594 -0.6642 -0.4243 -0.0464
49723SOL     OW54488   2.067   3.146   6.975 -0.3534  0.0981  0.3783
49723SOL    HW154489   2.077   3.240   6.957 -0.9754  0.0324 -0.3610
49723SOL    HW254490   2.000   3.141   7.042  0.0835  0.2047  0.8312
49724SOL     OW54491   6.011  11.462   9.587 -0.2304 -0.3033  0.7140
49724SOL    HW154492   5.952  11.404   9.635  1.3920 -1.6660  1.1380
49724SOL    HW254493   6.044  11.522   9.653 -1.0951  0.4676  0.4734
49725SOL     OW54494   0.923   0.170   2.185 -0.3634  0.1314 -0.0291
49725SOL    HW154495   0.922   0.138   2.274  0.7158 -2.7699 -0.9644
49725SOL    HW254496   0.982   0.246   2.187 -0.9167  0.5574  1.7874
49726SOL     OW54497   3.847   7.917   7.014 -0.1123 -0.3897  0.0977
49726SOL    HW154498   3.904   7.884   7.084 -1.0331 -2.0312  0.1364
49726SOL    HW254499   3.858   8.012   7.017  2.0806 -0.6180  0.5288
49727SOL     OW54500  11.780   5.480   7.141 -0.5861  0.4387 -0.4157
49727SOL    HW154501  11.712   5.547   7.153  1.4442  2.5699  0.0374
49727SOL    HW254502  11.775   5.427   7.220 -2.8998 -0.6752 -1.2275
49728SOL     OW54503  10.493  11.209   6.314 -0.1568  0.6150  0.2293
49728SOL    HW154504  10.504  11.286   6.260  2.1523 -0.2114 -0.6065
49728SOL    HW254505  10.574  11.204   6.366 -1.2659  0.0398  2.0210
49729SOL     OW54506  10.248   6.234   4.259 -0.2867 -0.1105 -0.1297
49729SOL    HW154507  10.307   6.160   4.247  0.4235  0.6978 -2.1520
49729SOL    HW254508  10.205   6.245   4.174 -3.8425 -0.9707  1.3515
49730SOL     OW54509   3.328   7.829   1.971 -0.2072  0.5774 -0.0914
49730SOL    HW154510   3.388   7.903   1.976 -0.6946  0.9246  1.0276
49730SOL    HW254511   3.267   7.852   1.901  1.7878 -0.4575 -2.3251
49731SOL     OW54512   1.090   0.571  10.051 -0.3601 -0.3385 -0.2114
49731SOL    HW154513   1.004   0.545  10.084 -0.2360  0.3982  0.7497
49731SOL    HW254514   1.074   0.606   9.964 -1.0729  0.0483  0.0712
49732SOL     OW54515   0.318   7.946   1.185 -0.1210 -0.3692  0.0958
49732SOL    HW154516   0.405   7.962   1.148 -0.3842 -1.0599 -0.8570
49732SOL    HW254517   0.330   7.871   1.244 -0.1703 -0.8209 -0.4600
49733SOL     OW54518   5.013   6.100   5.555  0.0504 -0.6181 -0.2012
49733SOL    HW154519   5.018   6.193   5.532  1.1545 -1.3592 -3.6458
49733SOL    HW254520   5.059   6.093   5.638 -0.8822  1.9963  0.6303
49734SOL     OW54521   6.008   9.415   7.452  0.0670 -0.1806  0.1792
49734SOL    HW154522   5.996   9.321   7.434  1.3256 -0.1199 -1.1479
49734SOL    HW254523   5.963   9.429   7.536  1.6435 -2.4191  1.5011
49735SOL     OW54524   5.240   4.653   1.216  0.0504 -0.1453 -0.3707
49735SOL    HW154525   5.283   4.667   1.132 -0.7365  0.4263 -0.6912
49735SOL    HW254526   5.192   4.735   1.233 -0.2436 -0.4559  0.3677
49736SOL     OW54527  11.515   7.745  11.271 -0.4706  0.4715 -0.6619
49736SOL    HW154528  11.453   7.816  11.253  0.1752  1.3891  0.6080
49736SOL    HW254529  11.562   7.772  11.349  0.4500 -0.9440 -0.6711
49737SOL     OW54530   0.507   4.353   0.751 -0.5563  0.2669  0.2072
49737SOL    HW154531   0.570   4.360   0.680 -1.1126 -1.0026 -0.4523
49737SOL    HW254532   0.422   4.365   0.709 -0.8731 -0.2132  0.6974
49738SOL     OW54533   7.537   6.530   6.098 -0.3332  0.7090  0.0250
49738SOL    HW154534   7.495   6.536   6.184  1.7696  1.1968  1.0782
49738SOL    HW254535   7.472   6.567   6.038 -3.0303 -2.1702  0.8705
49739SOL     OW54536   7.600   2.908   4.395 -0.5227 -0.5841 -0.0451
49739SOL    HW154537   7.684   2.894   4.438 -0.7856 -1.8432  0.0925
49739SOL    HW254538   7.535   2.885   4.462 -0.9696 -0.0561 -0.2927
49740SOL     OW54539   0.166   0.521   7.069  0.0579 -0.1056  0.4972
49740SOL    HW154540   0.182   0.430   7.096  0.9877  0.1104  0.6970
49740SOL    HW254541   0.159   0.569   7.152  0.5073  0.1616  0.3781
49741SOL     OW54542   9.456   9.694   4.219 -0.6975  0.2229 -0.1806
49741SOL    HW154543   9.451   9.789   4.211 -0.7827  0.1297 -1.2971
49741SOL    HW254544   9.365   9.666   4.225 -0.7436  0.1046 -1.2768
49742SOL     OW54545  10.805   1.278   2.091  0.3113 -0.4640  0.2777
49742SOL    HW154546  10.885   1.275   2.038  0.0074 -1.4310 -0.1449
49742SOL    HW254547  10.754   1.350   2.053  0.9604  0.1548  0.5434
49743SOL     OW54548   5.881   4.907   7.569  0.1303 -0.1210  0.6983
49743SOL    HW154549   5.950   4.967   7.596  0.7285  0.0112 -1.0494
49743SOL    HW254550   5.888   4.833   7.630  0.7184  0.6350  1.5645
49744SOL     OW54551   1.768  11.215   6.993 -0.4585  0.8278  0.3275
49744SOL    HW154552   1.813  11.132   7.007 -2.3284 -0.4244 -0.6183
49744SOL    HW254553   1.835  11.272   6.955  1.0936  0.0556  1.7895
49745SOL     OW54554   1.489   5.339   1.043 -0.2419 -0.3102 -0.4826
49745SOL    HW154555   1.500   5.399   0.969  0.2350  0.3121  0.0876
49745SOL    HW254556   1.397   5.346   1.066 -0.4942 -0.8348 -1.2866
49746SOL     OW54557  10.628   5.791   7.739  0.3935 -0.3715 -0.2221
49746SOL    HW154558  10.691   5.829   7.677  0.5826  0.9706  0.7272
49746SOL    HW254559  10.543   5.816   7.705  0.4750 -0.1424 -0.2610
49747SOL     OW54560   6.662  10.578   8.394 -0.0087 -0.1782  0.2304
49747SOL    HW154561   6.707  10.533   8.466  1.2996 -0.3895 -0.6785
49747SOL    HW254562   6.653  10.512   8.326  2.2201  0.9070 -1.2472
49748SOL     OW54563  10.026   4.777   9.714 -0.0869 -0.0794 -0.1226
49748SOL    HW154564  10.103   4.759   9.660 -0.2001  1.2211 -0.7395
49748SOL    HW254565  10.040   4.724   9.793  1.1881 -0.2580 -0.4432
49749SOL     OW54566  10.039   1.467   8.364 -0.7804 -0.0621  0.1463
49749SOL    HW154567  10.038   1.484   8.458 -0.8226 -2.4830  0.6451
49749SOL    HW254568  10.124   1.427   8.347 -1.7016 -1.9139 -0.3520
49750SOL     OW54569   5.089   9.532   2.399 -0.8242 -0.8736 -0.3858
49750SOL    HW154570   5.025   9.465   2.423 -1.5188 -0.6802 -1.6466
49750SOL    HW254571   5.045   9.615   2.414  0.3185 -0.6009  1.9717
49751SOL     OW54572   6.513   3.410   5.430  0.2228 -0.3190 -0.6033
49751SOL    HW154573   6.541   3.501   5.440  1.3346 -0.8023  1.1358
49751SOL    HW254574   6.418   3.413   5.433  0.2680  0.7116  0.4033
49752SOL     OW54575   4.965   4.638   9.193 -0.7380  0.4553 -0.0803
49752SOL    HW154576   5.057   4.625   9.217 -0.7788  0.5931  0.1628
49752SOL    HW254577   4.961   4.619   9.100 -0.8839 -1.7827  0.3181
49753SOL     OW54578   4.548   3.226  11.590  0.2357  0.0754 -0.5573
49753SOL    HW154579   4.531   3.136  11.562 -0.2843 -0.1912  0.5501
49753SOL    HW254580   4.643   3.230  11.602  0.0182 -2.1041  4.7535
49754SOL     OW54581  10.172   4.842   1.081  0.0633 -0.4701  0.0104
49754SOL    HW154582  10.250   4.792   1.054 -0.8488 -1.2903 -1.2315
49754SOL    HW254583  10.141   4.797   1.159 -1.1667 -2.4170 -1.4882
49755SOL     OW54584   7.037   2.134   4.258 -0.4954 -0.2903 -0.2550
49755SOL    HW154585   7.107   2.181   4.214 -1.1450 -0.2361 -1.2593
49755SOL    HW254586   7.079   2.093   4.334  0.3175  0.9189 -0.0218
49756SOL     OW54587   4.591   6.393   2.202 -0.0845  0.5234 -0.5153
49756SOL    HW154588   4.678   6.428   2.223 -0.6845  1.6151  0.2380
49756SOL    HW254589   4.530   6.452   2.246 -1.1751 -1.1232  0.3030
49757SOL     OW54590   2.629   8.448   9.259  0.0774 -0.4288  0.5003
49757SOL    HW154591   2.610   8.409   9.344  0.4819 -1.2811  0.2043
49757SOL    HW254592   2.720   8.426   9.242 -0.5295 -2.0116 -1.0477
49758SOL     OW54593   4.669  10.897   9.567  0.3965  0.1032  0.3740
49758SOL    HW154594   4.706  10.986   9.572  1.2312 -0.2859  1.4222
49758SOL    HW254595   4.689  10.858   9.652  0.3222 -1.2073 -0.1896
49759SOL     OW54596   0.242   3.324   0.102  0.1451  0.3698  0.0547
49759SOL    HW154597   0.147   3.332   0.108  0.3098  1.5625  1.7850
49759SOL    HW254598   0.266   3.272   0.179  1.1880  3.5609  2.0376
49760SOL     OW54599   7.117   3.910   5.957  0.8085  0.4128  0.1841
49760SOL    HW154600   7.127   3.940   5.866 -0.1784  0.6475  0.1399
49760SOL    HW254601   7.103   3.816   5.948 -1.4785  0.7264 -0.1075
49761SOL     OW54602   0.080   5.650  10.158 -0.9372  0.3115  0.5013
49761SOL    HW154603   0.075   5.736  10.200  0.6556 -0.6829  2.8990
49761SOL    HW254604   0.053   5.588  10.226  4.4274 -1.6459  1.2927
49762SOL     OW54605   6.921   6.982   8.822 -0.0475 -0.7591  0.0953
49762SOL    HW154606   6.930   6.987   8.918  0.3264 -1.1308  0.0805
49762SOL    HW254607   6.835   7.022   8.805  0.3596  0.3425  0.4780
49763SOL     OW54608   9.874   0.733   3.623  0.1849  0.5612 -0.1852
49763SOL    HW154609   9.835   0.646   3.625 -1.7429  1.3948 -0.0375
49763SOL    HW254610   9.853   0.771   3.709  0.2057  1.5115 -0.5869
49764SOL     OW54611  11.717   7.049   6.701  0.5666  0.6142  0.7036
49764SOL    HW154612  11.720   7.143   6.720  0.5326  1.4511 -2.7052
49764SOL    HW254613  11.624   7.027   6.702  0.4028  1.1615 -0.4429
49765SOL     OW54614   9.569   6.677   0.417 -0.2952 -0.3445 -0.1904
49765SOL    HW154615   9.531   6.763   0.400 -1.7928 -1.1283 -0.9621
49765SOL    HW254616   9.519   6.616   0.362  0.9069 -1.6837  0.1193
49766SOL     OW54617   6.757   8.683   4.683 -0.3453 -0.2451 -0.6534
49766SOL    HW154618   6.752   8.776   4.659 -0.7161 -0.7651 -2.8545
49766SOL    HW254619   6.833   8.650   4.636  0.2363 -0.9247  0.7124
49767SOL     OW54620   7.144   1.242   9.134  0.1568  0.6401 -0.5431
49767SOL    HW154621   7.144   1.181   9.060 -0.3684 -0.1815  0.1232
49767SOL    HW254622   7.108   1.323   9.098 -0.9282 -0.0146 -0.9894
49768SOL     OW54623   2.300   1.482   2.099 -0.0912 -0.1234  0.4800
49768SOL    HW154624   2.214   1.498   2.138  0.3361  0.8321  1.0804
49768SOL    HW254625   2.328   1.398   2.135 -1.5129 -1.3617 -1.1116
49769SOL     OW54626   5.434  11.726  10.677  0.0217  0.3733  0.0667
49769SOL    HW154627   5.451  11.819  10.661 -1.9845  0.5133 -1.6785
49769SOL    HW254628   5.520  11.688  10.694  0.8955  2.4995  0.6131
49770SOL     OW54629   1.403   2.657   8.521  0.1056  1.0165  0.3056
49770SOL    HW154630   1.330   2.596   8.531 -1.1667  2.1968 -1.3428
49770SOL    HW254631   1.481   2.604   8.541 -1.0737 -0.6028  0.8504
49771SOL     OW54632   5.512   2.990   5.818 -0.1684  0.0602  0.1069
49771SOL    HW154633   5.438   3.045   5.794 -1.0504 -1.8175 -1.7657
49771SOL    HW254634   5.481   2.901   5.806  1.2980 -0.9100  2.8002
49772SOL     OW54635   6.330   6.710  11.802 -0.2802 -0.6050  0.3658
49772SOL    HW154636   6.278   6.783  11.769 -0.2044 -0.3143  0.8766
49772SOL    HW254637   6.316   6.712  11.897  1.3275 -0.0003  0.6133
49773SOL     OW54638   2.609  10.063   0.646  0.1618 -0.0971 -0.6289
49773SOL    HW154639   2.675  10.029   0.707 -0.6181 -0.9580 -0.2413
49773SOL    HW254640   2.603   9.997   0.578  1.1625  0.9454 -1.7867
49774SOL     OW54641   6.473   9.951   2.451 -0.3567  0.1916  0.0543
49774SOL    HW154642   6.517   9.987   2.375 -0.1682 -0.7525 -0.3020
49774SOL    HW254643   6.403  10.013   2.470 -0.6780  0.2296 -1.1626
49775SOL     OW54644   1.002   2.016   9.721  0.4678 -0.0221  0.2575
49775SOL    HW154645   1.071   2.072   9.755 -0.0511 -0.3112  1.8740
49775SOL    HW254646   1.029   1.927   9.746 -0.9881 -0.0433  1.8768
49776SOL     OW54647   5.214   1.345   9.465 -0.1545  0.3739  0.4517
49776SOL    HW154648   5.192   1.276   9.402  0.0609  1.2653 -0.6251
49776SOL    HW254649   5.308   1.357   9.456 -0.2387  1.0425  0.3724
49777SOL     OW54650  11.619   7.582   5.172 -0.0681  0.0847 -0.1900
49777SOL    HW154651  11.635   7.548   5.260  1.8790  1.7487  0.1907
49777SOL    HW254652  11.677   7.658   5.166 -1.4123  1.0192 -2.3190
49778SOL     OW54653   4.269   8.988   8.879 -0.2069  0.4917  0.3326
49778SOL    HW154654   4.262   8.898   8.848  0.2789  0.3894  0.5184
49778SOL    HW254655   4.362   9.010   8.871 -0.3118  0.9565  0.3403
49779SOL     OW54656   3.447   3.054   7.708  0.0869 -0.6733  0.4522
49779SOL    HW154657   3.384   3.125   7.704 -0.3148 -1.0541 -3.0791
49779SOL    HW254658   3.408   2.989   7.768 -2.5713 -0.5913 -1.0586
49780SOL     OW54659  10.696   9.186  11.671  0.0734 -0.2831  0.6311
49780SOL    HW154660  10.769   9.130  11.643  1.4284  1.5332  0.3583
49780SOL    HW254661  10.723   9.275  11.647 -1.0180  0.7734  2.9701
49781SOL     OW54662  11.006   9.551   3.224 -0.0334 -0.0042 -0.0715
49781SOL    HW154663  11.085   9.515   3.265 -0.2916 -2.7774 -1.7622
49781SOL    HW254664  10.935   9.524   3.282  0.0242  0.6402  0.3188
49782SOL     OW54665   7.051   7.151   9.956 -0.6756  0.5325  0.5728
49782SOL    HW154666   7.015   7.163  10.044  1.5320  0.8948  1.4807
49782SOL    HW254667   7.055   7.056   9.945 -2.6256  0.4505  0.0734
49783SOL     OW54668   2.738   3.490   7.637 -0.5968  0.2761 -0.3997
49783SOL    HW154669   2.789   3.440   7.574 -1.5214 -1.1226 -0.0859
49783SOL    HW254670   2.666   3.527   7.586 -0.4601  0.4723 -0.4514
49784SOL     OW54671   7.804   5.973   5.865  0.1519  0.0137 -0.3509
49784SOL    HW154672   7.846   5.888   5.857 -0.1899  0.0041 -3.1477
49784SOL    HW254673   7.856   6.031   5.810 -1.2717  0.8982 -0.8455
49785SOL     OW54674   2.520   7.508   1.570 -0.0242  0.1286 -0.7424
49785SOL    HW154675   2.529   7.596   1.533  0.9769 -0.3862 -1.8173
49785SOL    HW254676   2.443   7.512   1.626 -1.0760  1.2211 -2.1900
49786SOL     OW54677  11.137   6.817   2.591  0.3972 -0.3519  0.6879
49786SOL    HW154678  11.050   6.801   2.630 -0.6129  1.5632 -0.6157
49786SOL    HW254679  11.198   6.779   2.654 -1.3687 -1.7576  1.6710
49787SOL     OW54680   4.673   2.175  10.425  0.2117 -0.0620  0.0435
49787SOL    HW154681   4.746   2.142  10.372  0.7597  2.7176 -1.1447
49787SOL    HW254682   4.709   2.185  10.513  0.5889 -0.7648 -0.0266
49788SOL     OW54683   3.036   6.705   5.724 -0.2142  0.1764  0.1287
49788SOL    HW154684   3.129   6.721   5.740  0.1240 -2.0297  0.6820
49788SOL    HW254685   3.030   6.688   5.630 -0.0630  0.2490  0.1052
49789SOL     OW54686   7.185   0.453   5.705 -0.1751  0.2572 -0.4478
49789SOL    HW154687   7.266   0.503   5.711 -0.2768  0.5114 -1.0902
49789SOL    HW254688   7.210   0.363   5.726  0.8385 -0.2206 -3.3207
49790SOL     OW54689   7.616   3.901   3.933  0.2954  0.4275  0.5607
49790SOL    HW154690   7.560   3.830   3.900  2.2847 -0.3837 -1.2515
49790SOL    HW254691   7.575   3.981   3.899 -0.9320  0.0629  1.0915
49791SOL     OW54692   2.117   6.738  11.687 -0.3959 -0.0676  0.2612
49791SOL    HW154693   2.047   6.682  11.653 -0.5879  0.1989  0.2142
49791SOL    HW254694   2.104   6.823  11.644 -0.7085  0.3106  1.0763
49792SOL     OW54695   2.398   1.669   8.533  0.1391 -0.9399 -0.2177
49792SOL    HW154696   2.369   1.587   8.572  1.7343 -1.2683  0.3444
49792SOL    HW254697   2.439   1.643   8.451 -0.2909 -0.5825 -0.5521
49793SOL     OW54698   4.690   0.854   2.067  0.0698  0.5272 -0.2290
49793SOL    HW154699   4.776   0.827   2.034  0.1150  1.0875 -0.5817
49793SOL    HW254700   4.627   0.809   2.010  0.1490  1.8146 -1.3886
49794SOL     OW54701   7.292   0.114   6.060 -0.1090 -0.2053 -0.1463
49794SOL    HW154702   7.218   0.167   6.030 -1.2116 -1.9730 -0.6729
49794SOL    HW254703   7.321   0.066   5.983 -1.1088 -2.6260  0.8754
49795SOL     OW54704   9.442   7.636   3.182 -0.5687  0.2660  0.0151
49795SOL    HW154705   9.519   7.677   3.143  1.1156 -1.0758  1.7554
49795SOL    HW254706   9.408   7.701   3.244 -1.7301  1.3846 -1.6862
49796SOL     OW54707   8.229   3.768   6.155 -0.2836  0.0926 -0.0182
49796SOL    HW154708   8.259   3.685   6.192 -1.6261  0.2937  1.6859
49796SOL    HW254709   8.171   3.743   6.084 -1.6948 -0.5266  1.2890
49797SOL     OW54710   2.231   5.689   3.229  0.1558 -0.2417 -0.1205
49797SOL    HW154711   2.140   5.666   3.210  0.1840  0.1674 -0.8124
49797SOL    HW254712   2.282   5.640   3.165  0.2715  1.0116 -1.0278
49798SOL     OW54713   3.372   9.550   6.760  0.5886 -0.0697  0.1744
49798SOL    HW154714   3.460   9.522   6.788  1.1979  1.4756 -0.0982
49798SOL    HW254715   3.367   9.520   6.669 -0.0001 -1.9371  0.7623
49799SOL     OW54716  11.764   5.267   7.628  0.2938 -0.1354  0.2980
49799SOL    HW154717  11.724   5.321   7.697 -0.8331 -1.4456  0.7123
49799SOL    HW254718  11.807   5.195   7.675 -0.2393 -0.8832 -0.3358
49800SOL     OW54719   0.383   0.054   9.119 -0.2247 -0.1699 -0.2862
49800SOL    HW154720   0.471   0.021   9.139 -0.2119 -1.5961 -2.3334
49800SOL    HW254721   0.398   0.133   9.067 -0.1950  0.1612  0.2134
49801SOL     OW54722  10.642  11.405   2.385  0.3212  0.8055 -0.1209
49801SOL    HW154723  10.648  11.315   2.355  0.1504  0.3838  1.0688
49801SOL    HW254724  10.714  11.414   2.448  0.9837  1.8148 -0.9606
49802SOL     OW54725   6.902   0.838   1.394 -0.4986  0.4460  0.1862
49802SOL    HW154726   6.973   0.899   1.375 -0.0579 -0.3841 -0.9928
49802SOL    HW254727   6.881   0.852   1.486  0.6949  1.2237  0.3570
49803SOL     OW54728   3.576  11.238   6.158 -0.3755 -0.0004 -0.2678
49803SOL    HW154729   3.519  11.306   6.122 -0.9906  0.4803  1.5345
49803SOL    HW254730   3.623  11.204   6.081 -4.3117 -1.7027 -2.2545
49804SOL     OW54731   1.636   9.852   0.208 -0.0174  0.2861  0.4992
49804SOL    HW154732   1.615   9.873   0.117  1.3817 -0.9779 -0.1515
49804SOL    HW254733   1.687   9.926   0.239  1.7276 -0.3930 -0.6034
49805SOL     OW54734   8.364   1.961   2.372  0.2759 -0.0922 -0.4704
49805SOL    HW154735   8.411   1.887   2.408  0.9979  0.2612 -0.6712
49805SOL    HW254736   8.422   2.036   2.387 -0.6780  0.5300  0.2294
49806SOL     OW54737   0.636   7.698   4.282 -0.0773  0.1905  0.1915
49806SOL    HW154738   0.635   7.709   4.187  1.5016 -2.0734 -0.1575
49806SOL    HW254739   0.549   7.725   4.310  0.1293  3.0639 -1.5682
49807SOL     OW54740   9.658   6.773   5.545  1.0585  0.5385  0.0948
49807SOL    HW154741   9.735   6.730   5.508  0.5397 -0.2750 -0.0485
49807SOL    HW254742   9.624   6.711   5.610  0.0163  0.4920 -0.4637
49808SOL     OW54743   0.201   3.122   0.307 -0.1721  0.1361 -0.4266
49808SOL    HW154744   0.122   3.160   0.268 -1.1802 -0.9282  0.4845
49808SOL    HW254745   0.210   3.167   0.391  0.5617  0.6936 -0.7994
49809SOL     OW54746  10.077   7.598   9.259 -0.3378  0.1718 -0.1030
49809SOL    HW154747  10.082   7.659   9.186  0.6875  1.1984  0.7901
49809SOL    HW254748  10.042   7.649   9.332 -0.9709 -0.7280  0.2396
49810SOL     OW54749   6.216  11.746  10.787 -0.4429  0.3542 -0.1690
49810SOL    HW154750   6.279  11.806  10.828  1.1149 -0.3777 -1.4207
49810SOL    HW254751   6.204  11.780  10.699 -2.1307  0.6901  0.1600
49811SOL     OW54752   7.498   0.652   0.759  0.5039 -0.0416 -0.1330
49811SOL    HW154753   7.410   0.675   0.730  0.3779  0.7909  0.8138
49811SOL    HW254754   7.493   0.656   0.855  1.1957 -1.4694 -0.0128
49812SOL     OW54755   7.571   1.142   6.005  0.0607 -0.0039 -0.5934
49812SOL    HW154756   7.623   1.179   5.934 -0.3001 -0.8832 -1.3426
49812SOL    HW254757   7.481   1.148   5.974 -0.1154 -0.2264 -0.1295
49813SOL     OW54758   2.434   4.675   5.432 -0.1084  0.2054 -0.1770
49813SOL    HW154759   2.526   4.701   5.435 -0.5866  2.0177 -0.0158
49813SOL    HW254760   2.434   4.590   5.388  1.5506  0.6364 -1.0829
49814SOL     OW54761   9.126   2.264   7.753  0.0448  0.0292 -0.0494
49814SOL    HW154762   9.185   2.255   7.828  0.9867  0.7030 -0.6943
49814SOL    HW254763   9.051   2.313   7.789  0.2414 -0.1152  0.5821
49815SOL     OW54764   3.205   5.876   4.727  0.6681 -0.1402  0.7646
49815SOL    HW154765   3.249   5.843   4.648 -1.3811 -0.4624 -0.3120
49815SOL    HW254766   3.207   5.971   4.717  1.3598 -0.1299  0.9005
49816SOL     OW54767  10.169  10.741   4.773 -0.4542 -0.4149  0.4192
49816SOL    HW154768  10.091  10.794   4.756 -0.3450 -0.7322 -1.1616
49816SOL    HW254769  10.161  10.666   4.716  0.1571 -1.3656  1.5374
49817SOL     OW54770   0.954   5.107   5.748  0.2853 -0.0832 -0.2017
49817SOL    HW154771   0.875   5.158   5.732  0.5301  0.2611 -0.3193
49817SOL    HW254772   0.943   5.028   5.696  1.2063  1.1528 -2.4004
49818SOL     OW54773   8.332  10.830   3.321  0.0825 -0.5208  0.3285
49818SOL    HW154774   8.342  10.848   3.415 -1.7130  2.2330  0.1297
49818SOL    HW254775   8.248  10.784   3.315  0.5123 -1.2958  0.0794
49819SOL     OW54776  10.463   5.865   3.177  0.7774 -0.5389 -0.3105
49819SOL    HW154777  10.476   5.954   3.144 -1.3248 -0.2401 -0.4569
49819SOL    HW254778  10.396   5.828   3.120  0.0686 -1.4656  1.0716
49820SOL     OW54779   8.732   4.602   4.840  0.0123  0.2425  0.5097
49820SOL    HW154780   8.702   4.598   4.930 -0.2461  0.6037  0.4391
49820SOL    HW254781   8.764   4.513   4.821 -0.1848  0.0965  0.8652
49821SOL     OW54782   1.704   7.092   4.147  0.6748 -0.1621 -0.1982
49821SOL    HW154783   1.787   7.045   4.156  0.2069 -1.5227 -2.1523
49821SOL    HW254784   1.639   7.022   4.136 -0.7090  0.8817  0.9079
49822SOL     OW54785   1.198   1.323   6.177 -0.6460 -0.3538 -0.2149
49822SOL    HW154786   1.181   1.313   6.083 -0.6595 -0.2528 -0.2234
49822SOL    HW254787   1.117   1.294   6.219 -1.8730  2.5906 -0.3443
49823SOL     OW54788   0.487  10.068   3.637  0.0626 -0.3824 -0.2479
49823SOL    HW154789   0.441  10.024   3.709  0.0830 -1.6720 -0.9839
49823SOL    HW254790   0.551  10.003   3.607 -0.2882 -0.0789 -1.7525
49824SOL     OW54791  10.755   9.342  10.324  0.2121  0.3287  0.1278
49824SOL    HW154792  10.769   9.252  10.296 -0.2681 -0.0677  1.1085
49824SOL    HW254793  10.838   9.387  10.305  0.3029 -0.1990 -0.7658
49825SOL     OW54794   1.170   8.262   7.542 -0.0672 -0.2245  0.5108
49825SOL    HW154795   1.178   8.357   7.552 -1.3725 -0.0089 -0.3100
49825SOL    HW254796   1.221   8.242   7.463  1.4075 -0.4487  1.4640
49826SOL     OW54797   3.560   5.535   5.229  0.1055  0.0001  0.3855
49826SOL    HW154798   3.582   5.587   5.306  0.1661 -0.8959  0.9963
49826SOL    HW254799   3.558   5.598   5.157 -1.7753  1.1846  1.3932
49827SOL     OW54800   9.958   4.193   7.985 -0.7959 -0.0531 -0.0981
49827SOL    HW154801   9.988   4.136   8.055 -2.2211 -2.2524 -1.1551
49827SOL    HW254802  10.007   4.274   7.997  1.2989 -1.4526  1.5395
49828SOL     OW54803   2.631  11.563   3.727 -0.3558 -0.3553  0.0837
49828SOL    HW154804   2.670  11.532   3.645  0.5030 -0.0675  0.3634
49828SOL    HW254805   2.561  11.622   3.699 -1.3517 -1.7218 -0.4435
49829SOL     OW54806   0.813   6.490   7.899 -0.1978  0.4876  0.4585
49829SOL    HW154807   0.724   6.477   7.867  0.2637 -0.1469 -0.6586
49829SOL    HW254808   0.868   6.473   7.822  0.8411  2.0519  0.8128
49830SOL     OW54809   5.101   4.636   7.757 -0.2482 -0.2143  0.0083
49830SOL    HW154810   5.130   4.727   7.758 -0.0432 -0.2509  1.9960
49830SOL    HW254811   5.161   4.592   7.697 -0.1314  0.8776 -0.6975
49831SOL     OW54812   0.451   6.555   6.655  0.0039 -0.7292  0.0691
49831SOL    HW154813   0.521   6.510   6.702 -0.9049 -0.1673  2.0847
49831SOL    HW254814   0.493   6.632   6.617  0.4766 -0.2551  1.4817
49832SOL     OW54815  10.649   7.962   7.238 -0.2787  0.5617  0.1658
49832SOL    HW154816  10.650   7.887   7.298 -2.6604 -0.7855 -1.2998
49832SOL    HW254817  10.590   8.025   7.279 -0.5415  0.3775  0.0775
49833SOL     OW54818  11.639   6.126  11.320  0.1657  0.1603 -0.0427
49833SOL    HW154819  11.720   6.084  11.347 -1.0095 -0.5166  2.7905
49833SOL    HW254820  11.667   6.208  11.278  2.2960 -0.5256 -0.0692
49834SOL     OW54821   0.960   0.651  10.955 -0.0182 -0.2797  0.6303
49834SOL    HW154822   0.950   0.567  10.911  0.1659  0.0745 -0.1053
49834SOL    HW254823   1.054   0.657  10.975  0.1732  0.2197 -0.3186
49835SOL     OW54824  11.431   6.348   6.003 -0.0121  0.5095 -0.1993
49835SOL    HW154825  11.430   6.442   5.989  1.0811  0.3654 -1.3945
49835SOL    HW254826  11.420   6.310   5.916 -0.9317 -0.4841  0.3140
49836SOL     OW54827   9.473   0.761   3.422 -0.1244  0.4132 -0.0805
49836SOL    HW154828   9.432   0.829   3.370 -1.0296 -0.3525 -0.3906
49836SOL    HW254829   9.567   0.774   3.410 -0.2221  2.4994  1.0289
49837SOL     OW54830   9.537   8.537   6.865 -0.0839 -0.5268  0.5708
49837SOL    HW154831   9.575   8.469   6.920 -0.3666 -1.3499 -0.2374
49837SOL    HW254832   9.443   8.533   6.883 -0.4113 -1.9498 -1.1634
49838SOL     OW54833   8.796   0.629   9.986 -0.1391  0.0872 -0.4740
49838SOL    HW154834   8.854   0.594  10.054 -0.6584  0.5238  0.2027
49838SOL    HW254835   8.708   0.603  10.014 -0.5209  1.7148 -0.0842
49839SOL     OW54836   3.792   1.592   7.426  0.1057  0.6159  0.0481
49839SOL    HW154837   3.804   1.542   7.506  0.7313 -1.0726 -1.0582
49839SOL    HW254838   3.755   1.675   7.455  0.7425  0.2231  2.1181
49840SOL     OW54839  11.606   6.191   8.909 -0.0367  0.5981 -0.0120
49840SOL    HW154840  11.656   6.192   8.827  1.6660  2.8032  0.9380
49840SOL    HW254841  11.564   6.277   8.913 -2.1714 -0.4058  0.2852
49841SOL     OW54842   4.012   0.359   2.258 -0.3314 -0.1344  0.6247
49841SOL    HW154843   3.957   0.289   2.222 -1.1429  0.9773 -0.3919
49841SOL    HW254844   3.963   0.439   2.239  1.5098  0.8745 -0.0183
49842SOL     OW54845   8.254   4.920   9.705 -0.3124 -0.3167  0.5219
49842SOL    HW154846   8.340   4.928   9.662 -0.5232  0.4364  0.2394
49842SOL    HW254847   8.275   4.884   9.791  0.1518 -1.5105 -0.0553
49843SOL     OW54848  10.966   7.322   0.013  0.2476  0.3414  0.3256
49843SOL    HW154849  10.969   7.333   0.108  1.3183  0.6943  0.2676
49843SOL    HW254850  11.028   7.388  -0.020  1.1278 -0.8630 -0.5077
49844SOL     OW54851   6.617   3.216   6.418  0.6112 -0.1287 -0.0283
49844SOL    HW154852   6.537   3.246   6.374  0.4479 -2.7127 -1.7253
49844SOL    HW254853   6.687   3.234   6.355  1.0637  0.1913  0.5587
49845SOL     OW54854   4.889  10.219   2.640 -0.0814 -0.2173 -0.1410
49845SOL    HW154855   4.867  10.182   2.725  0.0066  0.3449  0.1307
49845SOL    HW254856   4.917  10.309   2.659 -0.2752 -0.0135 -0.7813
49846SOL     OW54857   1.335   5.958   1.918 -0.4689  0.7439 -0.3278
49846SOL    HW154858   1.385   6.028   1.960  0.0730  0.6348 -0.7830
49846SOL    HW254859   1.281   5.922   1.989  1.1403 -0.0656  0.5309
49847SOL     OW54860  10.440   4.930   3.698  0.1057 -0.6278 -0.0905
49847SOL    HW154861  10.438   5.025   3.685  0.8024 -0.5646  0.2544
49847SOL    HW254862  10.348   4.906   3.708  0.0190  0.4528  2.8719
49848SOL     OW54863   6.503   9.455   3.342 -0.1061  0.1097 -0.4191
49848SOL    HW154864   6.556   9.381   3.312 -1.1421 -0.1124 -1.8299
49848SOL    HW254865   6.564   9.528   3.347  0.7807 -0.6474  0.2529
49849SOL     OW54866   7.508  11.268   9.663  0.6347 -0.0907  0.2146
49849SOL    HW154867   7.450  11.309   9.727  1.0704  1.8631 -0.5646
49849SOL    HW254868   7.525  11.337   9.598  0.5937 -1.8318 -1.7620
49850SOL     OW54869  11.747   9.394   8.407  0.2802  0.1351 -0.2165
49850SOL    HW154870  11.733   9.320   8.466  1.4525 -1.4575 -1.8104
49850SOL    HW254871  11.668   9.447   8.415 -0.0059 -0.5442  1.9862
49851SOL     OW54872  11.345   2.616   6.828  0.7187  0.3132  0.0977
49851SOL    HW154873  11.397   2.548   6.869 -0.8092 -0.1865  1.2852
49851SOL    HW254874  11.408   2.686   6.808  1.9534 -0.5849  0.7585
49852SOL     OW54875   0.253  10.284  10.019  0.1177 -0.0186 -0.5176
49852SOL    HW154876   0.217  10.315   9.935  0.0951  0.3079 -0.3900
49852SOL    HW254877   0.177  10.277  10.076  0.1962  0.2271 -0.3824
49853SOL     OW54878  11.049   4.389   3.517  0.4134 -0.0608  0.0024
49853SOL    HW154879  11.091   4.376   3.602  0.6312  0.6146  0.0012
49853SOL    HW254880  11.068   4.480   3.494 -0.5891  0.0958 -0.2475
49854SOL     OW54881  10.399   6.735   6.667  0.0116 -0.0323  0.4090
49854SOL    HW154882  10.350   6.678   6.608  1.2823 -0.9042  0.1642
49854SOL    HW254883  10.350   6.733   6.749 -0.2756 -0.9994  0.2195
49855SOL     OW54884   3.424   3.702   6.575 -0.3319 -0.8923 -0.2451
49855SOL    HW154885   3.362   3.672   6.642 -0.3316 -1.9312 -0.6926
49855SOL    HW254886   3.402   3.651   6.497  0.3602 -0.4636 -0.7333
49856SOL     OW54887   7.891   7.107   0.841  0.1761  0.0802 -0.2265
49856SOL    HW154888   7.817   7.148   0.795  1.1497  1.4570 -0.6138
49856SOL    HW254889   7.927   7.177   0.894  0.9789 -0.6920  0.2644
49857SOL     OW54890   5.336  11.246   6.112 -0.6349  0.4787 -0.1203
49857SOL    HW154891   5.430  11.262   6.114 -0.7281  1.0335 -0.2078
49857SOL    HW254892   5.324  11.164   6.161 -0.4610  2.0269  2.7142
49858SOL     OW54893   5.708   0.255   3.740 -0.0123 -0.2340  0.5513
49858SOL    HW154894   5.801   0.257   3.764  0.7403  0.1803 -2.0441
49858SOL    HW254895   5.664   0.219   3.817  2.5601 -2.4281  1.1625
49859SOL     OW54896   9.340  10.625   9.502 -0.0822 -0.2290  0.2109
49859SOL    HW154897   9.336  10.717   9.528 -1.1404  0.2682 -1.5356
49859SOL    HW254898   9.252  10.591   9.521 -0.6028 -0.0820 -1.6770
49860SOL     OW54899   9.561   9.485  11.183 -0.0280 -0.7322 -0.1027
49860SOL    HW154900   9.621   9.443  11.121 -1.1140 -1.9250 -0.4035
49860SOL    HW254901   9.524   9.558  11.134  1.0516 -0.0743  0.0394
49861SOL     OW54902  10.478   8.527   1.665  0.1225 -0.8620  0.0887
49861SOL    HW154903  10.402   8.562   1.617  0.2402 -0.5829  0.1025
49861SOL    HW254904  10.504   8.598   1.723  0.8796 -0.6701 -0.4723
49862SOL     OW54905   9.321  11.377   2.393  0.0540  0.3375  0.2196
49862SOL    HW154906   9.293  11.410   2.308  0.7223  0.1087 -0.0912
49862SOL    HW254907   9.411  11.407   2.403  0.3957 -0.6638  0.2978
49863SOL     OW54908   4.845   7.200   3.827 -0.1583 -0.2987  0.2486
49863SOL    HW154909   4.754   7.188   3.798  0.1880 -1.3730 -0.4332
49863SOL    HW254910   4.898   7.169   3.753  0.8620  3.5136 -0.8510
49864SOL     OW54911   5.258  10.545   7.073  0.0602  0.5231  0.4506
49864SOL    HW154912   5.172  10.587   7.065  0.0981  0.4959 -0.1322
49864SOL    HW254913   5.316  10.599   7.019 -0.0121 -0.6192 -0.8236
49865SOL     OW54914  10.098  10.422   1.333 -0.2815 -0.1836  0.3510
49865SOL    HW154915  10.161  10.493   1.346  1.1004 -1.3129  0.0004
49865SOL    HW254916  10.049  10.448   1.255  0.8205 -0.0219 -0.3042
49866SOL     OW54917   9.352   8.281   4.504  0.4024  0.0366 -0.1957
49866SOL    HW154918   9.289   8.282   4.576  1.0056  1.3197  0.3304
49866SOL    HW254919   9.314   8.220   4.441 -2.3897  2.1818 -0.7737
49867SOL     OW54920   1.345   9.765   0.182 -0.3230  0.0590 -0.0810
49867SOL    HW154921   1.308   9.705   0.246  0.0607 -0.1621 -0.0598
49867SOL    HW254922   1.440   9.752   0.190 -0.2618  0.2462 -0.4849
49868SOL     OW54923  10.857   7.442   1.974  0.1823 -0.2926  0.6555
49868SOL    HW154924  10.936   7.405   2.013 -0.2356 -0.3586  1.4716
49868SOL    HW254925  10.868   7.537   1.981  1.1450 -0.2230 -1.2138
49869SOL     OW54926   5.304   7.536   0.629 -0.5506 -0.0683 -0.1724
49869SOL    HW154927   5.323   7.577   0.713  1.1702 -0.4876 -0.3177
49869SOL    HW254928   5.352   7.588   0.565 -2.5453  0.7887 -1.0738
49870SOL     OW54929   9.454   4.200  11.281 -0.3048  0.4039  0.4019
49870SOL    HW154930   9.413   4.207  11.368 -1.6805  2.6441 -0.3344
49870SOL    HW254931   9.525   4.264  11.283  0.7062 -0.6798  0.3536
49871SOL     OW54932  10.209   1.697   4.168 -0.3738 -0.5537  0.2379
49871SOL    HW154933  10.217   1.703   4.073  1.1007 -0.5713  0.3346
49871SOL    HW254934  10.129   1.746   4.188 -0.1315  0.3779 -0.9174
49872SOL     OW54935   8.592   6.264  11.795  0.2709  0.7454 -0.1971
49872SOL    HW154936   8.519   6.293  11.741  0.1149  0.0832 -0.3506
49872SOL    HW254937   8.597   6.329  11.865 -1.4969 -0.0309  0.7297
49873SOL     OW54938   6.280   4.149   0.056 -0.5858 -0.2129  0.0217
49873SOL    HW154939   6.352   4.109   0.007  1.1692  0.2078  2.0973
49873SOL    HW254940   6.252   4.222   0.001  2.6010  1.4464  0.3353
49874SOL     OW54941  10.710   8.940   0.766  0.2307  0.1536  0.0081
49874SOL    HW154942  10.622   8.924   0.732 -0.2856 -1.0646  1.8167
49874SOL    HW254943  10.696   8.972   0.855  1.5619  2.6556 -0.5915
49875SOL     OW54944   2.224   9.782   9.772  0.6526 -0.3124 -0.0540
49875SOL    HW154945   2.130   9.766   9.769  0.7518 -0.7503 -1.0590
49875SOL    HW254946   2.245   9.825   9.689  1.4841 -1.1296 -0.2974
49876SOL     OW54947  11.070   4.522   3.924  0.1777  0.0592 -0.0251
49876SOL    HW154948  11.049   4.608   3.960  0.0265 -0.7269  1.8922
49876SOL    HW254949  10.984   4.484   3.903  0.0377 -0.6260  1.6558
49877SOL     OW54950   7.437   5.366   1.705 -0.8056  0.0340 -0.6175
49877SOL    HW154951   7.343   5.355   1.714 -0.8265  0.8193  0.3247
49877SOL    HW254952   7.475   5.291   1.751 -0.9718  0.8017  0.8219
49878SOL     OW54953   8.350   3.961   7.462  0.3380 -0.4531  0.0096
49878SOL    HW154954   8.422   3.959   7.398  1.6478  0.5944  1.3657
49878SOL    HW254955   8.386   3.918   7.540 -0.1704  0.8734  1.0187
49879SOL     OW54956   8.091   9.308  11.574 -0.1765  0.4684 -0.6362
49879SOL    HW154957   8.018   9.330  11.632  0.1819 -0.1022  0.0546
49879SOL    HW254958   8.054   9.309  11.486 -1.1975 -0.5248 -0.2410
49880SOL     OW54959   1.393   6.626   6.087 -0.0879  0.2593  0.0365
49880SOL    HW154960   1.417   6.686   6.017 -0.9111  0.1003 -0.3913
49880SOL    HW254961   1.476   6.594   6.121  0.3176 -0.1024 -1.2418
49881SOL     OW54962   6.259  10.508   1.130  0.3224 -0.3483 -0.2387
49881SOL    HW154963   6.190  10.449   1.160  1.4778 -1.7842 -0.2758
49881SOL    HW254964   6.255  10.504   1.035 -0.9625  1.3493 -0.3114
49882SOL     OW54965   4.520   6.870  10.836 -0.5127  0.1492  0.3116
49882SOL    HW154966   4.598   6.825  10.804 -0.5828 -0.9139  1.5365
49882SOL    HW254967   4.462   6.877  10.760  1.1052  1.7816 -0.8467
49883SOL     OW54968   3.231   9.360   7.719 -0.2013  0.4162  0.2059
49883SOL    HW154969   3.217   9.266   7.734 -1.0961  0.1544 -1.9399
49883SOL    HW254970   3.252   9.366   7.625  0.5805  2.3058  0.4645
49884SOL     OW54971   6.633   2.867  10.490 -0.9870 -0.2841  0.1847
49884SOL    HW154972   6.608   2.946  10.538 -1.1074  0.1855 -0.6271
49884SOL    HW254973   6.585   2.874  10.407 -1.1067 -1.2815  0.1564
49885SOL     OW54974   8.881   8.847   9.100  0.3858  0.3472  0.3543
49885SOL    HW154975   8.925   8.887   9.175  0.1068  1.5688 -0.1164
49885SOL    HW254976   8.791   8.834   9.130  0.4818  0.0490  0.5135
49886SOL     OW54977  11.790   2.232   4.993  0.1427  0.1349  0.7442
49886SOL    HW154978  11.801   2.138   4.979  0.5881  0.1901  0.7097
49886SOL    HW254979  11.798   2.270   4.906 -0.2624  0.1885  0.7263
49887SOL     OW54980  11.207  10.571   6.765  0.3059  0.2268 -0.4104
49887SOL    HW154981  11.129  10.607   6.807 -1.2880 -2.5672 -0.7080
49887SOL    HW254982  11.243  10.510   6.830  1.4548  0.4526 -0.8135
49888SOL     OW54983   0.070   9.599   9.321  0.9499 -0.1882  0.0700
49888SOL    HW154984   0.129   9.579   9.249 -0.5703 -0.1537 -1.2657
49888SOL    HW254985   0.109   9.676   9.363  1.3719  0.4315 -1.3748
49889SOL     OW54986   6.314   7.157   1.005 -0.0735  0.4013 -0.1825
49889SOL    HW154987   6.382   7.112   0.955 -0.2573 -1.3277  1.0460
49889SOL    HW254988   6.355   7.238   1.034  0.6171  0.5794 -1.5710
49890SOL     OW54989   9.904   7.672   5.195  0.7286  0.0372 -0.1048
49890SOL    HW154990   9.959   7.622   5.135  2.2435  0.0118  1.2316
49890SOL    HW254991   9.894   7.616   5.271  0.9570  1.0383  0.6876
49891SOL     OW54992  10.730   0.420   4.421  0.0421  0.0325 -0.2731
49891SOL    HW154993  10.791   0.346   4.418  1.4403  0.8827  3.0185
49891SOL    HW254994  10.648   0.381   4.450  0.0102 -0.5569 -1.0933
49892SOL     OW54995  10.567   0.220   0.778 -0.2320  0.3835  0.0549
49892SOL    HW154996  10.645   0.165   0.777 -0.0851  0.5767  0.4638
49892SOL    HW254997  10.595   0.303   0.739 -0.2545  0.4214  0.1184
49893SOL     OW54998   9.955   3.032  10.991  0.0466 -0.3409  0.4347
49893SOL    HW154999   9.911   2.948  10.980  0.4956 -0.5650  0.3484
49893SOL    HW255000  10.011   3.020  11.068 -0.7724  0.2545  1.1471
49894SOL     OW55001  11.282   1.539   5.474  0.4162 -0.2501 -0.2595
49894SOL    HW155002  11.301   1.612   5.534 -0.1450 -2.0368  2.2660
49894SOL    HW255003  11.350   1.475   5.492 -0.5128 -1.3699 -0.6199
49895SOL     OW55004   5.917   8.543  10.361  0.3261 -0.1167 -0.1227
49895SOL    HW155005   5.857   8.471  10.381 -0.3935  0.4589 -0.1586
49895SOL    HW255006   5.889   8.614  10.420  1.0877  0.1043 -0.0211
49896SOL     OW55007   3.122   7.430   0.040  0.3663 -0.3771  0.4419
49896SOL    HW155008   3.132   7.520   0.008  0.9367 -0.3117  0.7965
49896SOL    HW255009   3.067   7.387  -0.026  0.8245 -0.0112 -0.1837
49897SOL     OW55010   8.340   5.528   0.722 -0.9917 -0.2685  0.4117
49897SOL    HW155011   8.291   5.446   0.711  1.1916 -1.7187  0.7827
49897SOL    HW255012   8.296   5.590   0.664 -1.8020 -2.1317 -1.0894
49898SOL     OW55013  10.358   0.150   0.614  0.3963 -0.2985  0.1791
49898SOL    HW155014  10.272   0.157   0.657 -0.3255  1.5801 -1.4302
49898SOL    HW255015  10.421   0.159   0.686 -0.7317 -0.8068  1.2770
49899SOL     OW55016   4.277   1.147   7.124 -0.1635 -0.5016 -0.5236
49899SOL    HW155017   4.319   1.064   7.144 -0.6078 -1.2908 -2.6126
49899SOL    HW255018   4.188   1.138   7.158  0.6034  0.2831  1.8332
49900SOL     OW55019   6.473   3.209   8.913  0.0982 -0.3070 -0.2925
49900SOL    HW155020   6.529   3.136   8.942 -2.1899 -1.7842  0.6634
49900SOL    HW255021   6.429   3.175   8.835  0.2172  0.6758 -0.7959
49901SOL     OW55022   6.906   0.999   5.033 -0.3966  0.0036  0.4807
49901SOL    HW155023   6.970   0.928   5.039 -0.3811 -0.0452 -0.1900
49901SOL    HW255024   6.907   1.039   5.119  1.2849  0.6452  0.1976
49902SOL     OW55025   3.946   4.356   6.986 -0.7825 -0.0844  0.2375
49902SOL    HW155026   3.875   4.397   6.938  0.4007 -2.1491 -3.7135
49902SOL    HW255027   3.929   4.262   6.978  2.2147 -0.6412 -0.7251
49903SOL     OW55028   6.302   0.353   2.569 -0.0621 -0.0696  0.3238
49903SOL    HW155029   6.345   0.270   2.553  0.4981  0.1299  0.7450
49903SOL    HW255030   6.372   0.418   2.561 -0.3762  0.3024  0.5678
49904SOL     OW55031  11.712  11.197   5.184  0.2584  0.0675  0.3118
49904SOL    HW155032  11.785  11.177   5.243  1.0867  0.1522 -0.6613
49904SOL    HW255033  11.736  11.280   5.143 -0.4596  0.1687  0.0818
49905SOL     OW55034   6.037   6.673   1.928 -0.1214 -0.1597 -0.7019
49905SOL    HW155035   5.984   6.621   1.988  1.0917 -0.3100  0.2885
49905SOL    HW255036   6.113   6.700   1.981  1.2293 -0.6814 -2.2785
49906SOL     OW55037  10.883   3.408   5.053  0.1537 -0.2178  0.2545
49906SOL    HW155038  10.940   3.462   5.000 -0.0440  0.9201  1.1535
49906SOL    HW255039  10.919   3.415   5.142 -1.2897  0.4482  0.8209
49907SOL     OW55040   6.080   2.553   5.890  0.4076 -0.2176 -0.1314
49907SOL    HW155041   6.168   2.591   5.888 -0.2899  1.5051  0.2289
49907SOL    HW255042   6.078   2.501   5.971  0.1258  2.3617  1.6350
49908SOL     OW55043   8.386   8.111   0.786  0.5398  0.0401  0.0816
49908SOL    HW155044   8.410   8.070   0.869 -0.3514  2.8132  1.8312
49908SOL    HW255045   8.459   8.090   0.727  1.7392 -1.0930  1.8601
49909SOL     OW55046   5.524  10.328   9.233  0.1159  0.2764  0.2199
49909SOL    HW155047   5.471  10.394   9.277 -1.0423 -0.5799  0.1510
49909SOL    HW255048   5.545  10.265   9.302 -0.5556 -0.3610 -0.1492
49910SOL     OW55049  10.628   5.761   0.713  0.2041  0.5322  0.7169
49910SOL    HW155050  10.588   5.699   0.651  1.2413  0.2847  0.2767
49910SOL    HW255051  10.565   5.767   0.784 -0.2078 -0.5440  0.4650
49911SOL     OW55052  10.663   3.519   6.446 -0.0964 -0.2788 -0.1442
49911SOL    HW155053  10.608   3.582   6.493 -1.1381 -1.7898  0.7423
49911SOL    HW255054  10.733   3.573   6.408 -1.0530  1.4299  0.3866
49912SOL     OW55055   6.694   8.780  10.622  0.0727  0.0152 -0.1126
49912SOL    HW155056   6.668   8.776  10.530  1.1672  1.3890 -0.5204
49912SOL    HW255057   6.674   8.694  10.657 -4.5575  0.7153 -0.4495
49913SOL     OW55058   4.822  10.483   1.233  0.2147 -0.1145 -0.2794
49913SOL    HW155059   4.732  10.467   1.264  0.0771  1.0916 -0.0164
49913SOL    HW255060   4.839  10.410   1.173 -1.3387  0.1713 -1.1536
49914SOL     OW55061   1.661   6.270   3.386  0.5038  0.2835  0.0637
49914SOL    HW155062   1.712   6.264   3.305 -1.6871 -1.3612 -1.3069
49914SOL    HW255063   1.616   6.185   3.393  0.4563  0.4462  2.9223
49915SOL     OW55064   7.543   1.039   3.458  0.4211 -0.2839  0.2977
49915SOL    HW155065   7.588   1.057   3.375  1.1028  1.2243  0.9569
49915SOL    HW255066   7.473   1.104   3.461  1.3652  0.7091  1.6019
49916SOL     OW55067  10.933  11.100   6.123  0.0448 -0.2960 -0.2721
49916SOL    HW155068  10.866  11.083   6.189  0.3543  0.7438  0.3312
49916SOL    HW255069  10.937  11.196   6.117  2.0168 -0.3016  0.2978
49917SOL     OW55070   2.021   8.761   3.586 -0.4919 -0.2944 -0.0535
49917SOL    HW155071   2.073   8.727   3.513 -1.9676 -2.9065  0.0018
49917SOL    HW255072   2.067   8.730   3.664 -0.7971 -0.4891  0.0485
49918SOL     OW55073   0.753   5.397   4.535  0.0379 -0.6215 -0.1646
49918SOL    HW155074   0.658   5.385   4.542  0.3148 -3.4297 -0.3654
49918SOL    HW255075   0.770   5.396   4.441  0.4167 -1.5988 -0.0895
49919SOL     OW55076   6.095   2.517   1.658  0.0052  0.5641  0.0342
49919SOL    HW155077   6.038   2.445   1.630  1.7172 -1.5091  1.5256
49919SOL    HW255078   6.176   2.503   1.611  0.7833  0.7577  1.2712
49920SOL     OW55079   5.828   3.964  10.411  0.3634 -0.6135  0.0727
49920SOL    HW155080   5.763   3.897  10.434 -0.8941  0.4561 -0.2150
49920SOL    HW255081   5.851   3.945  10.320 -0.7274 -0.1269 -0.3333
49921SOL     OW55082   3.676   4.992   2.122  0.0545 -0.0760  0.0212
49921SOL    HW155083   3.682   4.959   2.211 -1.9054  0.2370  0.3171
49921SOL    HW255084   3.669   4.914   2.067  3.1870 -0.3810 -0.1590
49922SOL     OW55085   7.850   8.162   2.892  0.0277 -0.3316 -0.3933
49922SOL    HW155086   7.926   8.199   2.937  1.1911 -2.1332 -0.7529
49922SOL    HW255087   7.870   8.171   2.799  1.1153 -3.1325 -0.5269
49923SOL     OW55088   4.864   6.605   6.717 -0.0259  0.4425 -0.8674
49923SOL    HW155089   4.851   6.593   6.622 -2.8292 -1.2409 -0.3810
49923SOL    HW255090   4.826   6.527   6.756  0.4141  1.4389  1.7189
49924SOL     OW55091   8.685   1.590   7.634  0.9075  0.1466 -0.4360
49924SOL    HW155092   8.680   1.646   7.556  1.0399 -0.7502 -1.1046
49924SOL    HW255093   8.596   1.557   7.645  1.1692 -0.8116 -1.0422
49925SOL     OW55094  11.638  10.463   0.321 -0.3164 -0.0902 -0.0280
49925SOL    HW155095  11.685  10.463   0.237 -2.6823  1.1236 -1.4469
49925SOL    HW255096  11.582  10.386   0.317 -1.6271  0.8568 -0.3082
49926SOL     OW55097   0.841   6.932   7.306 -0.5877 -0.6473  0.5073
49926SOL    HW155098   0.937   6.935   7.312 -0.5591  1.5010 -0.2586
49926SOL    HW255099   0.814   6.885   7.385  1.0800 -1.2507  0.7681
49927SOL     OW55100   2.247   9.629  11.766 -0.0492 -0.2581 -0.1733
49927SOL    HW155101   2.203   9.544  11.773  2.4226 -1.5098  1.6393
49927SOL    HW255102   2.208   9.681  11.836  0.4690 -0.9389  0.6402
49928SOL     OW55103   4.153   6.008   0.357  0.6713 -0.2556  0.0321
49928SOL    HW155104   4.225   6.010   0.294 -0.6026  1.6417 -1.4971
49928SOL    HW255105   4.190   6.043   0.437  0.8726  3.8784 -1.6122
49929SOL     OW55106   7.518   0.053   2.277  0.2319 -0.5856 -0.0878
49929SOL    HW155107   7.490   0.051   2.368  0.8236  0.8860  0.1445
49929SOL    HW255108   7.562  -0.030   2.263  1.2528 -0.3072  1.3388
49930SOL     OW55109   0.859  11.408   7.298  0.1213 -0.2836 -0.4432
49930SOL    HW155110   0.876  11.415   7.204  1.4274 -2.5290 -0.4243
49930SOL    HW255111   0.926  11.349   7.331 -0.9243 -0.3494  1.7512
49931SOL     OW55112   9.849   7.282   9.818  0.3746  0.4310  0.3688
49931SOL    HW155113   9.904   7.204   9.824  0.2774  0.2822 -0.5097
49931SOL    HW255114   9.876   7.325   9.736 -0.4597  0.6187  0.1762
49932SOL     OW55115   7.556   0.257   7.080  0.4496  0.4161 -0.3047
49932SOL    HW155116   7.582   0.303   7.000  1.1289  0.6857  0.0648
49932SOL    HW255117   7.568   0.322   7.150 -1.9168  0.7993 -0.1845
49933SOL     OW55118   0.545   2.141   9.587 -0.0967  0.6670  0.2292
49933SOL    HW155119   0.620   2.164   9.642  0.6657 -0.7760 -0.1507
49933SOL    HW255120   0.575   2.158   9.497 -0.8029  1.5935  0.1551
49934SOL     OW55121  11.582  11.468  11.706 -0.2478  0.1647 -0.2835
49934SOL    HW155122  11.567  11.563  11.714  0.5851  0.2065  0.9993
49934SOL    HW255123  11.651  11.449  11.769 -0.4069 -1.3186 -0.5201
49935SOL     OW55124   5.788   7.721   0.650 -0.5567 -0.1686 -0.0499
49935SOL    HW155125   5.776   7.662   0.724 -1.1490 -2.0612 -1.5660
49935SOL    HW255126   5.883   7.732   0.645 -0.4294 -1.0048  0.2723
49936SOL     OW55127   3.195  10.958   3.539 -0.7712 -0.0023 -0.5177
49936SOL    HW155128   3.274  11.011   3.526 -0.7473  0.5431  1.5454
49936SOL    HW255129   3.228  10.870   3.554 -0.6638 -0.0846 -1.1752
49937SOL     OW55130   0.645   5.465   2.367 -0.3636  0.3468  0.1639
49937SOL    HW155131   0.670   5.522   2.294 -0.4021 -0.1043 -0.2081
49937SOL    HW255132   0.717   5.473   2.429 -0.6379  1.2461  0.3776
49938SOL     OW55133   6.188   0.101  11.645  0.0728 -0.3906  0.1060
49938SOL    HW155134   6.283   0.100  11.631  0.1252  0.6983  0.2852
49938SOL    HW255135   6.178   0.129  11.736 -0.4310  0.3931 -0.1811
49939SOL     OW55136   9.852   5.303   7.718  0.2598  0.1326 -0.3570
49939SOL    HW155137   9.861   5.228   7.660 -0.7678 -0.3892  0.1118
49939SOL    HW255138   9.885   5.272   7.803  0.2463  0.3546 -0.2695
49940SOL     OW55139  11.645   8.662   7.345 -0.3392 -0.4402  0.3410
49940SOL    HW155140  11.594   8.625   7.417 -2.2002  2.1992  0.5544
49940SOL    HW255141  11.605   8.626   7.266  0.4497 -1.8342  0.5430
49941SOL     OW55142   9.730   8.961   4.389  0.1986 -0.0778 -0.2805
49941SOL    HW155143   9.775   9.035   4.430 -0.8338 -0.0641  0.8956
49941SOL    HW255144   9.799   8.897   4.373  0.8042  0.3717  0.4680
49942SOL     OW55145  10.018   2.215   0.651 -0.0960  0.0478  0.2208
49942SOL    HW155146  10.029   2.206   0.556 -0.6784  0.1352  0.1397
49942SOL    HW255147   9.943   2.160   0.672  0.7433 -0.8959  0.8220
49943SOL     OW55148   4.039   6.286   0.432  0.3534  0.3787 -0.2862
49943SOL    HW155149   4.073   6.196   0.433 -0.4869  0.0463  0.9359
49943SOL    HW255150   4.017   6.304   0.524 -3.0707  0.4011 -0.9628
49944SOL     OW55151   3.334   6.488   4.507 -0.8345 -0.0556  0.6150
49944SOL    HW155152   3.428   6.466   4.509 -1.1582 -1.9790 -1.3746
49944SOL    HW255153   3.327   6.557   4.441 -0.9733 -1.2291 -0.6557
49945SOL     OW55154   9.871   0.440   8.367 -0.3566  0.3638  0.2237
49945SOL    HW155155   9.895   0.420   8.457  0.8898  0.2702 -0.1130
49945SOL    HW255156   9.928   0.514   8.344 -0.5883  0.3135 -0.5171
49946SOL     OW55157   7.934  10.449   6.668 -0.1835  0.7480 -0.0587
49946SOL    HW155158   7.863  10.444   6.732  0.1748 -0.0337  0.2885
49946SOL    HW255159   7.970  10.537   6.679  1.1263  0.0251  2.2095
49947SOL     OW55160   8.197   8.210   5.928 -0.2373  0.2223  0.1836
49947SOL    HW155161   8.160   8.233   6.014 -1.8671 -2.2749  0.2498
49947SOL    HW255162   8.150   8.265   5.866  0.9273  2.0265  0.8208
49948SOL     OW55163   1.590  10.260   5.749  0.1525 -0.3118  0.7117
49948SOL    HW155164   1.676  10.247   5.789  0.1069 -0.6057  0.7192
49948SOL    HW255165   1.545  10.176   5.763 -0.0934 -0.1960  0.6092
49949SOL     OW55166   3.527   4.319   7.187  0.0245  0.3101  0.2436
49949SOL    HW155167   3.452   4.304   7.245  0.2876 -0.3030  0.4361
49949SOL    HW255168   3.501   4.278   7.104 -1.1487  2.8349 -0.7407
49950SOL     OW55169   0.397   1.272   2.844 -0.5235  0.2317  0.4215
49950SOL    HW155170   0.446   1.317   2.775  2.6984 -2.7634  0.4448
49950SOL    HW255171   0.367   1.191   2.802  0.7209 -1.2278  2.1685
49951SOL     OW55172  11.743   3.741   7.354 -0.1078  0.4431  0.1047
49951SOL    HW155173  11.657   3.759   7.392 -0.7371  0.6563 -1.3425
49951SOL    HW255174  11.784   3.827   7.344  0.0813  0.3823  0.3406
49952SOL     OW55175   6.087   1.242   0.706 -0.0792  0.1183 -0.0117
49952SOL    HW155176   6.025   1.248   0.634 -0.1924  0.9508  0.1526
49952SOL    HW255177   6.172   1.231   0.663 -0.1994  0.1636 -0.2621
49953SOL     OW55178   5.449   8.707   9.109  0.3534  0.0682  0.6115
49953SOL    HW155179   5.530   8.708   9.056  0.7616  0.6314  1.2329
49953SOL    HW255180   5.465   8.772   9.178 -0.9393  0.7474  0.2935
49954SOL     OW55181   2.606   5.543   6.982  0.0399 -0.3532  0.5461
49954SOL    HW155182   2.669   5.540   6.910  1.4800  1.1940  1.6609
49954SOL    HW255183   2.569   5.631   6.978 -3.7203 -1.8051 -1.3242
49955SOL     OW55184   7.824   5.642   5.062 -0.0104 -0.2798  0.1979
49955SOL    HW155185   7.906   5.679   5.030 -1.0847  1.2844 -0.9070
49955SOL    HW255186   7.824   5.661   5.156  0.6205  0.2719  0.0910
49956SOL     OW55187   7.686   6.773   4.288  0.2276  0.0921 -0.5357
49956SOL    HW155188   7.649   6.724   4.215 -2.7605  0.2906  0.7133
49956SOL    HW255189   7.627   6.756   4.362  0.6253  3.2725  0.6993
49957SOL     OW55190   5.366   2.375   3.580  0.2680 -0.3037  0.0289
49957SOL    HW155191   5.454   2.411   3.570 -0.3789  0.8612 -2.1675
49957SOL    HW255192   5.319   2.442   3.629  0.1791 -0.1322 -0.2872
49958SOL     OW55193   7.209   3.474   3.382 -0.2312 -0.1109 -0.4583
49958SOL    HW155194   7.233   3.450   3.292 -1.6135 -0.5479 -0.7426
49958SOL    HW255195   7.150   3.549   3.372 -1.0986 -0.7019 -0.0071
49959SOL     OW55196   2.312   4.890   8.119  0.0275  0.3606  0.4495
49959SOL    HW155197   2.328   4.968   8.066  3.0583 -1.2294 -1.2463
49959SOL    HW255198   2.358   4.907   8.201  0.0783  0.6157  0.3697
49960SOL     OW55199   1.604   5.839   3.564  0.4289 -0.1042  0.2997
49960SOL    HW155200   1.530   5.823   3.624  0.7962  0.2075  0.8470
49960SOL    HW255201   1.641   5.752   3.548  1.3523 -0.0381  1.8728
49961SOL     OW55202   9.443   0.113   4.681 -0.2007 -0.1006  0.0115
49961SOL    HW155203   9.368   0.092   4.625 -0.4683 -0.1297  0.3763
49961SOL    HW255204   9.507   0.044   4.662 -0.2371 -0.0414 -0.3447
49962SOL     OW55205   8.075   4.106   9.989 -0.5234 -0.3857  0.1318
49962SOL    HW155206   7.988   4.143  10.002 -1.2883 -2.2494  0.6902
49962SOL    HW255207   8.081   4.034  10.052  0.5432 -1.7078 -1.3756
49963SOL     OW55208   3.382   4.499   2.725 -0.3750  0.4074  0.0461
49963SOL    HW155209   3.334   4.573   2.762 -0.4149 -0.1307  1.1139
49963SOL    HW255210   3.426   4.460   2.800 -0.0815 -0.4485 -0.5637
49964SOL     OW55211  11.507   2.469   9.464  0.0469  0.0638  0.0773
49964SOL    HW155212  11.505   2.374   9.457  1.8581 -0.1907  2.0766
49964SOL    HW255213  11.416   2.495   9.451 -0.5080 -1.9400 -0.4205
49965SOL     OW55214   9.638   9.198  11.260  0.0254 -0.0801 -0.8218
49965SOL    HW155215   9.719   9.180  11.211 -0.0924  0.2233 -1.1291
49965SOL    HW255216   9.632   9.293  11.261  0.1559 -0.0758 -0.0022
49966SOL     OW55217   6.065   5.825   1.561 -0.2730  0.4721 -0.3610
49966SOL    HW155218   6.079   5.734   1.586 -2.3923  0.0138 -0.6384
49966SOL    HW255219   6.048   5.871   1.643 -0.3118  0.3947 -0.3261
49967SOL     OW55220   3.885   7.285   9.758 -0.3576 -0.4980 -0.5339
49967SOL    HW155221   3.959   7.286   9.697 -1.4255 -0.6553 -1.8861
49967SOL    HW255222   3.808   7.280   9.702 -1.4299  0.1156  0.8152
49968SOL     OW55223   3.016   4.457   6.309  0.3017  0.7645  0.6406
49968SOL    HW155224   2.943   4.442   6.249  1.4682 -0.7283 -0.5013
49968SOL    HW255225   3.043   4.369   6.335  0.7719  1.3504  2.2120
49969SOL     OW55226   3.161  11.514   6.244  0.1330 -0.6284  0.1497
49969SOL    HW155227   3.189  11.595   6.200 -0.7818 -0.7701 -0.7375
49969SOL    HW255228   3.095  11.543   6.307  0.3444 -0.6033  0.3612
49970SOL     OW55229   5.991   4.496   9.029 -0.3203 -0.7364  0.0610
49970SOL    HW155230   6.018   4.427   8.968 -1.6677 -1.8045  0.6237
49970SOL    HW255231   5.898   4.480   9.043 -0.7709  1.4633 -0.1080
49971SOL     OW55232   6.846   7.046   7.999  0.1684  0.4713 -0.8960
49971SOL    HW155233   6.904   7.081   7.932  3.2914 -1.1160  0.7311
49971SOL    HW255234   6.860   7.103   8.075  2.1879 -1.6328  0.4777
49972SOL     OW55235   0.691  10.540   4.033  0.2366  0.5961  0.4331
49972SOL    HW155236   0.638  10.490   4.095 -0.4371  0.4783 -0.2192
49972SOL    HW255237   0.628  10.574   3.970  0.7036  2.0818  0.7234
49973SOL     OW55238   7.790  10.330   4.333  0.2706  0.3500  0.5678
49973SOL    HW155239   7.715  10.304   4.387  0.7347 -1.7961  0.2903
49973SOL    HW255240   7.852  10.257   4.342  2.6587  2.3545  1.3385
49974SOL     OW55241   3.543   2.483  10.202 -1.0663 -0.4481 -0.6314
49974SOL    HW155242   3.467   2.489  10.260  0.1796 -0.3917  1.0624
49974SOL    HW255243   3.594   2.410  10.237  0.3336  0.3708 -0.8904
49975SOL     OW55244   0.979   2.399   6.996  0.1378 -0.4358  0.0315
49975SOL    HW155245   1.032   2.343   6.940 -0.0154 -0.9806  0.4233
49975SOL    HW255246   0.965   2.348   7.075 -0.5300 -0.0939  0.1439
49976SOL     OW55247   9.678   2.436  10.578  0.9109  0.5774 -0.0178
49976SOL    HW155248   9.610   2.422  10.645  0.5241 -1.8651 -0.8047
49976SOL    HW255249   9.629   2.457  10.499  1.1202 -0.2614 -0.3739
49977SOL     OW55250  11.533   7.202   4.410 -0.4144  0.0502 -0.5229
49977SOL    HW155251  11.598   7.135   4.387  0.2946  0.8786 -1.0140
49977SOL    HW255252  11.560   7.279   4.360  0.2341  1.4629  1.8687
49978SOL     OW55253   9.071   6.654   7.342  0.3385 -0.6948  0.0236
49978SOL    HW155254   9.065   6.716   7.415  2.0287 -0.2832 -0.1331
49978SOL    HW255255   9.077   6.568   7.385 -0.7750 -0.6570  0.2815
49979SOL     OW55256   4.712   5.943   5.564 -0.7059 -0.4689  0.3486
49979SOL    HW155257   4.713   6.034   5.534  1.8530 -0.2153  0.9978
49979SOL    HW255258   4.715   5.948   5.659  3.5224 -1.0427  0.4427
49980SOL     OW55259   5.674   0.372   4.057  0.1473  0.2538 -0.2926
49980SOL    HW155260   5.648   0.439   4.120 -0.3776  0.3334 -0.5807
49980SOL    HW255261   5.744   0.412   4.005  1.8689 -0.4413  1.3867
49981SOL     OW55262   9.911  11.305   4.250  0.0162  0.5502  0.5339
49981SOL    HW155263   9.983  11.319   4.189 -0.2094  3.0458  0.7453
49981SOL    HW255264   9.883  11.393   4.275 -3.5538 -0.2659 -0.0267
49982SOL     OW55265   2.460  10.292  10.824  0.6562  0.6499 -0.2760
49982SOL    HW155266   2.371  10.309  10.794  0.6579  0.6345 -0.2894
49982SOL    HW255267   2.516  10.332  10.757  0.6600  1.5052  0.2137
49983SOL     OW55268   4.390   2.184   7.846 -0.2526 -0.0486 -0.0157
49983SOL    HW155269   4.417   2.206   7.756 -1.3908 -0.9724 -0.5997
49983SOL    HW255270   4.339   2.104   7.837 -1.0944  0.3047  1.3641
49984SOL     OW55271   1.802   5.479   0.589 -0.1080 -0.1930  0.4748
49984SOL    HW155272   1.803   5.533   0.510  0.9398 -1.2926 -0.3007
49984SOL    HW255273   1.828   5.538   0.659  2.3567  0.0512 -0.5611
49985SOL     OW55274   6.156   7.889   7.821  0.2900  0.1619  0.1591
49985SOL    HW155275   6.125   7.824   7.758 -0.7717 -0.6245  1.4488
49985SOL    HW255276   6.183   7.963   7.767 -2.9446  0.5412 -1.1663
49986SOL     OW55277   4.366  11.291   2.620 -0.4394  0.6996  0.0502
49986SOL    HW155278   4.391  11.228   2.688  0.2172 -0.7993 -1.4815
49986SOL    HW255279   4.282  11.259   2.587 -0.3394  0.9058 -0.4169
49987SOL     OW55280   6.166   1.644   6.251  0.2155 -0.2124 -0.9176
49987SOL    HW155281   6.217   1.676   6.326  1.0969 -0.1562 -1.5320
49987SOL    HW255282   6.231   1.624   6.184 -0.5174 -0.8678 -1.4563
49988SOL     OW55283   2.938   0.730   6.924  0.1033 -0.5021 -0.3625
49988SOL    HW155284   2.954   0.639   6.948 -0.2974 -0.3136  0.6778
49988SOL    HW255285   2.961   0.780   7.003 -1.3704  0.1361 -0.2957
49989SOL     OW55286   9.833   7.903   6.513 -0.4655 -0.3253 -0.3160
49989SOL    HW155287   9.857   7.932   6.426 -0.0736  0.9200  0.1854
49989SOL    HW255288   9.911   7.920   6.566 -0.5375 -1.4848  0.1933
49990SOL     OW55289   4.372   1.869   9.718  0.1583 -0.7495  0.3362
49990SOL    HW155290   4.299   1.862   9.657  0.9071 -0.2460 -0.6451
49990SOL    HW255291   4.443   1.907   9.666  0.6688  0.1506  1.6552
49991SOL     OW55292   2.836  11.605   3.048  0.4158  0.4396 -0.0182
49991SOL    HW155293   2.815  11.637   3.135 -0.8602 -0.3817 -0.0031
49991SOL    HW255294   2.786  11.661   2.989 -0.2429 -0.2188 -0.1007
49992SOL     OW55295   4.489   4.100   2.183 -0.0769 -0.1206  0.0667
49992SOL    HW155296   4.460   4.189   2.164 -1.3040 -0.6585 -0.7037
49992SOL    HW255297   4.462   4.049   2.107 -0.5229 -1.3901  1.0262
49993SOL     OW55298   6.073  10.011  11.744 -0.4690 -0.0736 -0.1049
49993SOL    HW155299   6.072  10.071  11.669  0.6971 -0.4063 -0.4072
49993SOL    HW255300   6.056   9.925  11.706  0.1177 -0.2424  0.0088
49994SOL     OW55301  10.687   9.638   3.160 -0.0782  0.2415  0.0364
49994SOL    HW155302  10.716   9.557   3.117  0.5811 -0.6478  2.0242
49994SOL    HW255303  10.607   9.613   3.206  0.1518  0.6926  0.7004
49995SOL     OW55304   6.982   8.986   2.868  0.0993  0.5323 -0.0326
49995SOL    HW155305   6.963   8.901   2.828 -0.0955  0.1270  0.9102
49995SOL    HW255306   7.069   9.009   2.834  1.6516 -1.5798  2.1466
49996SOL     OW55307  10.754   4.323   4.260  0.1944 -0.2914  0.5360
49996SOL    HW155308  10.691   4.336   4.189  1.1238 -0.7350 -0.4043
49996SOL    HW255309  10.819   4.393   4.248 -1.6320  2.1089  3.3311
49997SOL     OW55310   7.773   5.197   1.901 -0.4632  0.0969  0.1845
49997SOL    HW155311   7.757   5.176   1.809  0.5624 -0.5052  0.1237
49997SOL    HW255312   7.687   5.219   1.936 -0.8622  0.3824 -0.9305
49998SOL     OW55313   6.005  10.452   3.468 -0.4045  0.0193  0.4609
49998SOL    HW155314   6.078  10.453   3.530  0.0111 -0.8700  0.0151
49998SOL    HW255315   6.041  10.493   3.389 -0.0108 -1.4357 -0.1386
49999SOL     OW55316   3.423  10.012   6.450  0.2732 -0.2347  0.1559
49999SOL    HW155317   3.430   9.964   6.532 -1.3278 -0.4387  0.1952
49999SOL    HW255318   3.341  10.060   6.457 -0.5906 -1.3133 -1.8722
50000SOL     OW55319   3.625   7.848   7.497 -0.7640  0.2070 -0.2112
50000SOL    HW155320   3.705   7.847   7.550 -0.2195  0.7925 -0.9875
50000SOL    HW255321   3.644   7.788   7.425 -1.4853 -0.5579  0.2198
50001SOL     OW55322   3.830  10.324   5.078 -0.2851  0.0661 -0.0911
50001SOL    HW155323   3.839  10.298   4.987  0.8253  1.3220 -0.3719
50001SOL    HW255324   3.890  10.267   5.125 -1.5153 -1.1985  0.0197
50002SOL     OW55325   2.433   6.607   8.369 -0.3014 -0.6004 -0.3044
50002SOL    HW155326   2.391   6.689   8.396  1.4674  0.0420  0.6039
50002SOL    HW255327   2.360   6.550   8.346 -1.6044  1.1049 -0.6481
50003SOL     OW55328   5.826   0.676  10.308  0.0881 -0.1278  0.4095
50003SOL    HW155329   5.818   0.768  10.285 -0.1133  0.0346  1.0954
50003SOL    HW255330   5.816   0.629  10.225 -0.3395  0.4428  0.1317
50004SOL     OW55331   9.079   6.208   5.774  0.1166  0.0195  0.0991
50004SOL    HW155332   9.002   6.263   5.793  0.0108 -0.2018  0.3277
50004SOL    HW255333   9.153   6.258   5.808  0.0571  0.1714  0.0041
50005SOL     OW55334  11.586   7.916   5.608  0.1484 -0.0498 -0.3440
50005SOL    HW155335  11.602   8.001   5.567  2.5825 -0.7592 -1.0395
50005SOL    HW255336  11.553   7.861   5.536 -3.1708  0.6532  0.4761
50006SOL     OW55337   5.917   6.881   0.953 -0.0386  0.0102 -0.4188
50006SOL    HW155338   6.006   6.914   0.964 -0.4682  0.9917  0.2815
50006SOL    HW255339   5.909   6.811   1.018  0.4587 -0.6360 -1.0296
50007SOL     OW55340   3.434   6.727  10.883 -0.1813  0.2575  0.3180
50007SOL    HW155341   3.361   6.680  10.923  0.3923 -0.4101  0.5931
50007SOL    HW255342   3.490   6.658  10.848  0.1657  0.7799 -0.1635
50008SOL     OW55343   1.718   6.285  10.309 -0.1055  0.1077  0.6988
50008SOL    HW155344   1.664   6.213  10.341 -0.1124  0.4585  1.4976
50008SOL    HW255345   1.781   6.244  10.250 -0.0745 -0.5674  1.1942
50009SOL     OW55346   1.892   6.625  11.620 -0.6035 -0.3909  0.0291
50009SOL    HW155347   1.810   6.672  11.605 -0.3594 -0.3083 -1.1128
50009SOL    HW255348   1.895   6.559  11.551  1.3997  1.1434 -1.4846
50010SOL     OW55349  10.353   3.356   9.878 -0.1367 -0.0547  0.2689
50010SOL    HW155350  10.441   3.326   9.903 -0.4477 -1.4499 -0.2311
50010SOL    HW255351  10.295   3.285   9.905 -0.9745  0.3163 -0.5051
50011SOL     OW55352   2.840  10.767   4.356 -0.3565 -0.2476  0.2748
50011SOL    HW155353   2.746  10.754   4.367 -0.3147  0.6438  2.1631
50011SOL    HW255354   2.850  10.796   4.265 -1.7910 -1.1339 -0.1990
50012SOL     OW55355   8.033   4.010   4.374 -0.0273 -0.1034 -0.3547
50012SOL    HW155356   7.986   4.051   4.301  0.1762  1.7175  0.4856
50012SOL    HW255357   8.125   4.008   4.346  0.2022  1.5142  0.2130
50013SOL     OW55358   7.624  10.836   2.248 -0.5471  0.1260  0.2029
50013SOL    HW155359   7.540  10.835   2.202 -0.5786  1.2251  0.1996
50013SOL    HW255360   7.681  10.889   2.192 -0.4301  1.0173  1.1415
50014SOL     OW55361   0.330  10.054   5.140 -0.4585  0.1435  0.0493
50014SOL    HW155362   0.372  10.070   5.056  0.9664  1.0634  0.9028
50014SOL    HW255363   0.245  10.099   5.132 -1.6255 -2.1573 -1.8589
50015SOL     OW55364   6.506   2.248   5.896 -0.4143 -0.2037 -0.3868
50015SOL    HW155365   6.422   2.288   5.873 -0.9498  0.4099  2.2363
50015SOL    HW255366   6.499   2.233   5.991  2.5874  0.2226 -0.0196
50016SOL     OW55367   8.116   5.902   3.018 -0.2591 -0.1930 -0.2147
50016SOL    HW155368   8.058   5.943   2.954 -0.5118 -1.7843 -1.0573
50016SOL    HW255369   8.204   5.916   2.983 -0.2454  0.6405  0.1266
50017SOL     OW55370   9.419   7.304   9.073  0.1768  0.2809 -0.2223
50017SOL    HW155371   9.337   7.342   9.040 -0.1492 -0.3542 -0.1416
50017SOL    HW255372   9.424   7.217   9.033  1.0568  0.4928 -0.6122
50018SOL     OW55373   0.860   4.094   3.157 -0.2921  0.4288  0.1934
50018SOL    HW155374   0.913   4.077   3.080 -2.2466  3.3834 -2.0388
50018SOL    HW255375   0.822   4.009   3.180 -0.6094 -0.3787 -2.9160
50019SOL     OW55376   3.245  11.824   1.029  0.4696  0.1879  0.4329
50019SOL    HW155377   3.277  11.739   0.999 -0.0639  0.0185  0.3270
50019SOL    HW255378   3.285  11.887   0.969  0.6093 -0.0155  0.3108
50020SOL     OW55379   4.789  11.526   6.233 -0.1458  0.5628  0.7015
50020SOL    HW155380   4.754  11.506   6.146  1.7815 -0.3321  0.0692
50020SOL    HW255381   4.872  11.571   6.215 -0.2499  1.3726  2.1032
50021SOL     OW55382   0.778   5.642   7.426 -0.2723 -0.1658  0.1932
50021SOL    HW155383   0.867   5.606   7.430 -0.6888 -1.2359  0.0603
50021SOL    HW255384   0.779   5.714   7.488  0.6137 -0.3492  0.4064
50022SOL     OW55385   1.595   5.840   7.314  0.3459  0.0491 -0.2192
50022SOL    HW155386   1.513   5.824   7.267  0.2514 -2.2222  0.6165
50022SOL    HW255387   1.646   5.894   7.254  0.2034 -2.5954 -2.9904
50023SOL     OW55388   9.082   7.930   9.118 -0.2852  0.2733 -0.5755
50023SOL    HW155389   9.036   7.976   9.188  0.1433 -0.1853  0.0214
50023SOL    HW255390   9.014   7.908   9.054 -0.9510 -0.6428  0.4176
50024SOL     OW55391   6.970   7.499   7.839  0.6421  0.2786  0.0146
50024SOL    HW155392   6.921   7.557   7.897  0.5817 -0.3381  0.5869
50024SOL    HW255393   7.029   7.451   7.896  1.4925  0.5731 -0.5950
50025SOL     OW55394   3.416   7.813   6.492  0.2527 -0.2747  0.0421
50025SOL    HW155395   3.475   7.759   6.438 -0.3842  1.5124 -2.5990
50025SOL    HW255396   3.330   7.774   6.479  0.2498 -0.5200  0.7472
50026SOL     OW55397   7.139   4.619   6.799 -0.2228  0.0840 -0.2893
50026SOL    HW155398   7.055   4.574   6.801 -0.6088  0.7949 -0.2937
50026SOL    HW255399   7.124   4.699   6.849  0.2003  0.6549 -1.0616
50027SOL     OW55400   6.953   5.269   8.162  0.4409  0.5621  0.3287
50027SOL    HW155401   6.883   5.306   8.216  0.6015  0.2784  0.7369
50027SOL    HW255402   6.981   5.342   8.107 -1.0477  0.3630 -0.7667
50028SOL     OW55403   5.335   7.399   2.479  0.1970 -0.3026 -0.8600
50028SOL    HW155404   5.242   7.418   2.476  0.5121  1.2798 -1.5269
50028SOL    HW255405   5.341   7.311   2.517 -1.4565  0.1875  0.6043
50029SOL     OW55406   8.016  11.422   7.152  0.1041  0.0979  0.2368
50029SOL    HW155407   8.045  11.410   7.243  0.5969 -0.0038  0.0695
50029SOL    HW255408   8.035  11.339   7.109 -0.9519 -0.1640  0.2491
50030SOL     OW55409   0.177   1.710   9.646 -0.0276  0.4282  0.0289
50030SOL    HW155410   0.138   1.785   9.601  0.8246  0.9498  0.1398
50030SOL    HW255411   0.216   1.658   9.575 -1.6627 -0.5693 -0.1824
50031SOL     OW55412   7.765   2.686   6.863  0.6910 -0.6812 -0.6652
50031SOL    HW155413   7.779   2.654   6.774  0.1611 -1.1490 -0.5845
50031SOL    HW255414   7.838   2.747   6.878  2.5294 -2.8458 -0.3194
50032SOL     OW55415   4.925   2.017   5.199 -0.2519 -0.2904 -0.4212
50032SOL    HW155416   4.957   2.107   5.196 -2.2507  0.4748 -2.6701
50032SOL    HW255417   4.856   2.018   5.266  0.7698 -0.5883  0.6611
50033SOL     OW55418   1.955   8.958   1.978 -0.0567  0.4200 -0.1692
50033SOL    HW155419   2.045   8.988   1.984 -0.1021  0.2167  2.8025
50033SOL    HW255420   1.918   8.973   2.065 -2.7197 -0.1150 -1.0949
50034SOL     OW55421   6.188  11.114  10.234 -0.0542 -0.3957  0.0664
50034SOL    HW155422   6.264  11.127  10.290  0.4880  1.5309 -1.0352
50034SOL    HW255423   6.128  11.062  10.287  1.6111 -1.1220  1.3179
50035SOL     OW55424   1.346   2.684   2.662  0.0818  0.4032  0.5265
50035SOL    HW155425   1.344   2.777   2.638  0.4351  0.4456  0.6554
50035SOL    HW255426   1.438   2.666   2.682  0.0521 -0.0304  0.2950
50036SOL     OW55427   2.662  11.013   7.017 -0.3849  0.2271  0.1098
50036SOL    HW155428   2.576  10.973   7.030 -0.5792  0.1701 -1.1671
50036SOL    HW255429   2.723  10.941   7.026 -0.6105 -0.0611 -0.5722
50037SOL     OW55430   1.267   4.637  11.435  0.1884 -0.2919 -0.2893
50037SOL    HW155431   1.322   4.704  11.394 -1.4449 -0.0110 -2.1618
50037SOL    HW255432   1.196   4.623  11.373 -0.3643 -2.6693  0.7701
50038SOL     OW55433   2.267   9.399   1.710  0.1694  0.2401  0.5272
50038SOL    HW155434   2.307   9.317   1.680  3.0243  1.0094  1.9570
50038SOL    HW255435   2.272   9.395   1.805 -1.3471  1.3238  0.6896
50039SOL     OW55436   6.164  11.461   7.185 -0.1400  0.1176 -0.1244
50039SOL    HW155437   6.233  11.428   7.243  1.4953  1.4012 -1.2505
50039SOL    HW255438   6.198  11.544   7.153 -1.4979 -0.0155 -2.0448
50040SOL     OW55439   7.182   3.647   4.372 -0.6619  0.3739 -0.4525
50040SOL    HW155440   7.258   3.642   4.314 -1.3745  1.6447 -1.5447
50040SOL    HW255441   7.151   3.556   4.379  1.8136 -0.4593  1.2991
50041SOL     OW55442   3.413   6.109   1.963 -0.3896  0.0158 -0.1800
50041SOL    HW155443   3.474   6.121   1.890 -0.5379  1.9384 -0.0345
50041SOL    HW255444   3.425   6.017   1.989  1.6568  0.0416 -0.8467
50042SOL     OW55445   5.072   9.591   1.256  0.0179 -0.1842  0.3946
50042SOL    HW155446   4.977   9.588   1.248 -0.0007 -1.3939  0.8938
50042SOL    HW255447   5.088   9.629   1.342  0.0185  1.0400 -0.1297
50043SOL     OW55448   1.620   6.678   0.547  0.2488  0.1473  0.3382
50043SOL    HW155449   1.637   6.713   0.634 -0.5718 -0.6893  0.8466
50043SOL    HW255450   1.549   6.732   0.512 -0.1485 -0.1844  0.6196
50044SOL     OW55451  10.928  10.049   6.682  0.0216  0.2656  0.0939
50044SOL    HW155452  10.993  10.087   6.740 -0.4326 -0.8131  1.3474
50044SOL    HW255453  10.935  10.101   6.601  1.2780  1.2126  0.7754
50045SOL     OW55454   1.350  10.588   2.423 -0.2570  0.0416  0.7367
50045SOL    HW155455   1.278  10.605   2.482 -1.2368 -0.2474 -0.3402
50045SOL    HW255456   1.323  10.627   2.340  0.9982  0.2707  0.4080
50046SOL     OW55457   4.388   4.463   8.976 -0.2052 -0.0209 -0.2045
50046SOL    HW155458   4.368   4.371   8.960 -1.1536  0.4643 -2.0162
50046SOL    HW255459   4.397   4.502   8.889  0.1495  1.6056  0.5174
50047SOL     OW55460   6.547   1.740   3.630  0.1061 -0.0815  0.8124
50047SOL    HW155461   6.611   1.701   3.571  0.2469  1.8554 -0.4247
50047SOL    HW255462   6.496   1.799   3.574  1.6185  3.5167  2.8838
50048SOL     OW55463   3.424   0.655  11.556  0.1671  0.1231  0.3755
50048SOL    HW155464   3.503   0.696  11.521 -0.4391  1.9364  0.9971
50048SOL    HW255465   3.456   0.580  11.606  1.5121  0.8539  0.6691
50049SOL     OW55466   5.116   4.836   9.047  0.1856 -0.0058 -0.2652
50049SOL    HW155467   5.092   4.924   9.018 -0.1199 -0.2043 -0.6313
50049SOL    HW255468   5.136   4.846   9.140  2.2614  0.8478 -0.7615
50050SOL     OW55469   2.545   7.759   6.526  0.2811 -0.6178 -0.5985
50050SOL    HW155470   2.514   7.762   6.617 -1.2048 -1.6684 -1.0311
50050SOL    HW255471   2.555   7.851   6.501 -2.6758 -0.1462 -0.4404
50051SOL     OW55472   2.953  10.783  10.636 -0.0578 -0.2348  0.4110
50051SOL    HW155473   2.971  10.872  10.668  0.5294  0.2237 -1.0901
50051SOL    HW255474   2.863  10.787  10.604 -0.1135 -0.2488  0.5662
50052SOL     OW55475   9.639  10.598  10.146 -0.0400  0.2091 -0.0208
50052SOL    HW155476   9.603  10.570  10.230  1.4388 -1.0375  0.2414
50052SOL    HW255477   9.565  10.594  10.085 -0.2777 -3.0214  0.3126
50053SOL     OW55478   7.181  11.506   9.410 -0.2778  0.0775 -1.0040
50053SOL    HW155479   7.239  11.525   9.336  0.8630 -1.5650 -0.6094
50053SOL    HW255480   7.223  11.550   9.484 -0.3727  0.1394 -0.9875
50054SOL     OW55481  11.001  10.206  11.179  0.0509 -0.2659 -0.1773
50054SOL    HW155482  11.057  10.244  11.247 -2.1103  1.9198  0.4898
50054SOL    HW255483  10.998  10.272  11.110 -4.1610  1.3333  1.2055
50055SOL     OW55484   9.118   3.686  11.525  0.1777  0.2494  0.2978
50055SOL    HW155485   9.167   3.704  11.444  2.3606  2.1512  1.8817
50055SOL    HW255486   9.128   3.592  11.539  1.7343  0.2510 -0.5330
50056SOL     OW55487   7.197   6.579  10.746  0.1660 -0.4532  0.1768
50056SOL    HW155488   7.138   6.513  10.709 -1.4880  1.2424 -0.3748
50056SOL    HW255489   7.259   6.599  10.676 -0.1209 -0.5118 -0.0952
50057SOL     OW55490   3.743   0.288   8.264  0.1850 -0.0116  0.3006
50057SOL    HW155491   3.753   0.204   8.307  1.4341 -0.2352 -0.3781
50057SOL    HW255492   3.747   0.268   8.170 -0.6579  0.6762  0.0999
50058SOL     OW55493  10.441   1.330   6.524  0.2289  0.5987  0.0368
50058SOL    HW155494  10.402   1.343   6.437  0.5710  1.3210 -0.0182
50058SOL    HW255495  10.463   1.419   6.553  1.0905  0.2685  0.4047
50059SOL     OW55496   2.357   1.639   4.589 -0.3820 -0.0376 -0.8187
50059SOL    HW155497   2.360   1.583   4.511  0.2621  0.1670 -0.9549
50059SOL    HW255498   2.398   1.721   4.560  0.7528 -0.2890 -0.0140
50060SOL     OW55499   9.843   2.087   7.600 -0.0108 -0.0525  0.3394
50060SOL    HW155500   9.760   2.132   7.618  0.0252 -0.2630  1.0596
50060SOL    HW255501   9.852   2.090   7.505 -1.0967 -0.4579  0.2092
50061SOL     OW55502   5.911   4.604   6.045  0.2030 -0.4872  0.6688
50061SOL    HW155503   5.935   4.561   6.128 -0.6359 -0.7514  0.7876
50061SOL    HW255504   5.830   4.561   6.019 -0.0544  0.2674  0.2023
50062SOL     OW55505   1.743   7.130   4.810 -0.0874  0.9253 -0.0982
50062SOL    HW155506   1.780   7.196   4.752 -2.5666  0.1703 -2.7697
50062SOL    HW255507   1.655   7.163   4.831 -1.1015 -1.0654 -0.8950
50063SOL     OW55508   2.304  10.280   3.131 -0.0822  0.7973  0.0798
50063SOL    HW155509   2.379  10.221   3.136 -1.0841 -0.6025 -0.6219
50063SOL    HW255510   2.230  10.223   3.107 -1.6077  1.9100  1.8501
50064SOL     OW55511  10.122   0.225   3.274 -0.1610 -0.1507  0.4370
50064SOL    HW155512  10.124   0.129   3.276  3.8403 -0.2502 -0.8429
50064SOL    HW255513  10.068   0.247   3.198  0.7046 -1.4981 -0.6026
50065SOL     OW55514   5.288  11.679   9.951 -0.9479  0.3291  0.3826
50065SOL    HW155515   5.378  11.647   9.960 -1.9171 -3.1307 -0.6122
50065SOL    HW255516   5.274  11.684   9.857 -2.0904 -0.1872  0.5098
50066SOL     OW55517   8.679   1.621   6.100  0.5544 -0.2286 -0.0619
50066SOL    HW155518   8.770   1.649   6.111  0.6530 -0.6642  0.2177
50066SOL    HW255519   8.673   1.537   6.144 -0.3996  0.5505  1.4176
50067SOL     OW55520   5.806   8.460  10.666 -0.0643 -0.1670 -0.5987
50067SOL    HW155521   5.788   8.409  10.587  0.5407 -0.7658 -0.3625
50067SOL    HW255522   5.881   8.415  10.706 -0.6141 -0.1104  0.5214
50068SOL     OW55523  11.404   0.559   9.911  0.1681  0.0450  0.1356
50068SOL    HW155524  11.449   0.625   9.859  0.5508 -0.5168 -0.2700
50068SOL    HW255525  11.413   0.478   9.860 -1.2363 -0.1109  0.0805
50069SOL     OW55526   0.481  11.473   4.640 -0.1452 -0.0236 -0.3139
50069SOL    HW155527   0.550  11.425   4.687  0.9847  0.6692 -1.2139
50069SOL    HW255528   0.403  11.418   4.649  0.3257 -0.4776  1.3515
50070SOL     OW55529   3.535   2.996  11.601 -0.2566 -0.9861  0.3186
50070SOL    HW155530   3.502   3.059  11.536 -1.9603 -1.2069  0.9061
50070SOL    HW255531   3.462   2.935  11.613 -0.2847 -0.5459  2.9251
50071SOL     OW55532  11.798   9.747   5.573 -0.0702 -0.3248  0.2994
50071SOL    HW155533  11.735   9.775   5.638 -1.1351 -3.4641  0.8020
50071SOL    HW255534  11.745   9.725   5.496  1.0547  2.2569 -1.3510
50072SOL     OW55535   7.289   5.836   8.959 -0.1248  0.1552 -0.0657
50072SOL    HW155536   7.341   5.854   8.881  1.2642 -0.0358  0.7863
50072SOL    HW255537   7.348   5.787   9.016 -1.1030  0.3343  1.1302
50073SOL     OW55538   5.639   4.348   2.253  0.0807 -0.0241 -0.9848
50073SOL    HW155539   5.657   4.370   2.162  2.2739  0.9190 -0.3630
50073SOL    HW255540   5.659   4.427   2.303 -0.1966 -0.7990  0.4357
50074SOL     OW55541   1.331   6.232   1.253  0.0076  0.0257  0.7364
50074SOL    HW155542   1.290   6.263   1.172 -0.6901 -2.3732  0.0853
50074SOL    HW255543   1.275   6.265   1.323 -0.3547  0.7038  0.1422
50075SOL     OW55544   7.063   1.363   7.874  0.0072 -0.2574  0.3240
50075SOL    HW155545   7.064   1.446   7.922 -2.7812 -0.3801  0.7746
50075SOL    HW255546   7.000   1.377   7.803 -1.5272 -2.3088  1.1619
50076SOL     OW55547   9.170   0.914   2.600 -0.5082  0.0828 -0.3252
50076SOL    HW155548   9.264   0.894   2.596 -1.0104 -2.2905 -2.6499
50076SOL    HW255549   9.154   0.969   2.523 -0.8702  1.5445  0.7492
50077SOL     OW55550   0.490   3.463   3.488  0.1401  0.1755  0.0394
50077SOL    HW155551   0.405   3.502   3.467  0.1328 -0.3791 -1.0761
50077SOL    HW255552   0.472   3.405   3.563 -0.5205 -0.0865 -0.3113
50078SOL     OW55553  10.338   9.889   6.677  0.0928 -0.7816  0.3119
50078SOL    HW155554  10.390   9.819   6.717  1.4016  0.4093  0.7654
50078SOL    HW255555  10.299   9.935   6.752  0.4377 -0.1421  0.1082
50079SOL     OW55556   6.733   0.059   2.091  0.1313  0.0443 -0.0966
50079SOL    HW155557   6.773   0.118   2.156 -0.5942  0.4852 -0.0334
50079SOL    HW255558   6.807   0.013   2.051  0.6018 -0.1962  1.0026
50080SOL     OW55559   8.479  10.582   7.495  0.5416  0.3512  0.3281
50080SOL    HW155560   8.472  10.560   7.402 -0.6910  1.2102  0.1915
50080SOL    HW255561   8.455  10.501   7.541  2.6423 -0.5461 -0.0385
50081SOL     OW55562   1.728   9.610   2.749  0.1146  0.2831 -0.3692
50081SOL    HW155563   1.771   9.593   2.833  1.1154 -0.0191 -0.9220
50081SOL    HW255564   1.792   9.580   2.683 -0.2887  1.3103 -1.2547
50082SOL     OW55565   7.440  11.616   0.132 -0.7863 -0.4421  0.3522
50082SOL    HW155566   7.355  11.659   0.126 -0.4563  0.0624 -4.6589
50082SOL    HW255567   7.427  11.529   0.096  0.9560  0.1646 -2.0164
50083SOL     OW55568   9.617   6.791   1.141  0.6883  0.4622  0.3336
50083SOL    HW155569   9.596   6.699   1.157  1.0683  0.1577 -0.8747
50083SOL    HW255570   9.544   6.839   1.181 -0.3648 -0.4276 -0.4720
50084SOL     OW55571   4.246   0.701   4.355  0.4196  0.1273  0.4636
50084SOL    HW155572   4.242   0.682   4.262  0.4204 -2.8522  0.9788
50084SOL    HW255573   4.258   0.796   4.360  0.4285  0.3618 -2.5288
50085SOL     OW55574   7.090   0.558   2.182 -0.2035 -0.2200 -0.2904
50085SOL    HW155575   7.084   0.513   2.266  0.8030  0.7871  0.3613
50085SOL    HW255576   7.000   0.562   2.150 -0.7276  0.0578  1.1258
50086SOL     OW55577  10.292   0.717  10.134 -0.1879  0.9736 -0.2337
50086SOL    HW155578  10.247   0.712  10.219  0.8853 -0.7797  0.2890
50086SOL    HW255579  10.375   0.759  10.153  0.5693 -0.4935 -0.1252
50087SOL     OW55580   6.841   7.884  10.060 -0.2839  0.5055  0.1449
50087SOL    HW155581   6.880   7.846  10.139 -0.0361 -0.2976 -0.3448
50087SOL    HW255582   6.782   7.951  10.092 -1.1782 -0.6897  1.1041
50088SOL     OW55583   5.851   1.912   3.278 -0.3684  0.6580 -0.0624
50088SOL    HW155584   5.758   1.932   3.281 -0.7652 -0.4588 -2.5254
50088SOL    HW255585   5.859   1.827   3.320 -0.6729  0.2351 -0.8318
50089SOL     OW55586   3.862   9.900   8.417 -0.0582 -0.0917  0.1516
50089SOL    HW155587   3.785   9.944   8.380  0.5423  1.0077  0.1707
50089SOL    HW255588   3.923   9.894   8.344  0.7245  1.1338  0.6732
50090SOL     OW55589   2.840   9.197   4.402  0.4592 -0.5839  0.2251
50090SOL    HW155590   2.830   9.157   4.488  3.3195 -0.5863  0.6548
50090SOL    HW255591   2.850   9.291   4.420  0.4932 -0.5106 -0.1557
50091SOL     OW55592   9.540   4.441   5.672 -0.4234 -0.2608 -0.4904
50091SOL    HW155593   9.497   4.359   5.648 -0.1562 -0.6151  0.2130
50091SOL    HW255594   9.633   4.419   5.677 -0.2692  0.2549 -0.9759
50092SOL     OW55595   4.179   0.547   5.640 -0.0232 -0.0076 -0.3993
50092SOL    HW155596   4.207   0.461   5.672 -0.5552  0.0583  0.2587
50092SOL    HW255597   4.214   0.552   5.551  1.3657 -0.2563  0.1055
50093SOL     OW55598   7.776   0.475   0.011  0.3479  0.1879  0.2210
50093SOL    HW155599   7.695   0.525   0.009 -0.1260 -0.5938 -0.4665
50093SOL    HW255600   7.845   0.542   0.016 -0.2726  0.9099 -0.6230
50094SOL     OW55601   9.430   3.233   0.179 -0.7623 -0.3048  0.3064
50094SOL    HW155602   9.390   3.193   0.102  0.1356  1.4543 -1.1567
50094SOL    HW255603   9.360   3.285   0.218 -1.1867 -1.1051  0.6394
50095SOL     OW55604   2.624   6.094  11.459 -0.2345  0.3147  0.3500
50095SOL    HW155605   2.547   6.129  11.503 -0.3931 -1.2502  1.4047
50095SOL    HW255606   2.591   6.063  11.374 -0.4563  0.9600  0.1922
50096SOL     OW55607   7.900   2.375   1.662  0.4889  0.0625  0.4829
50096SOL    HW155608   7.854   2.399   1.743  1.5723 -0.2004  1.2069
50096SOL    HW255609   7.988   2.412   1.673  0.9020 -0.6910 -0.2037
50097SOL     OW55610   3.113   3.280   0.797  0.4993  0.0414 -0.1058
50097SOL    HW155611   3.042   3.334   0.760  1.2410 -0.1193 -1.8646
50097SOL    HW255612   3.113   3.201   0.742  0.7058 -0.8998  1.2073
50098SOL     OW55613  10.227   5.427  11.737 -0.5201 -0.4422  0.3486
50098SOL    HW155614  10.243   5.405  11.829 -0.3260  0.1467  0.4588
50098SOL    HW255615  10.139   5.393  11.719 -1.1376  0.6669  1.1494
50099SOL     OW55616   7.755   9.553   9.868  0.2922 -0.2860  0.8164
50099SOL    HW155617   7.761   9.524   9.959 -3.5300 -0.2494  1.2333
50099SOL    HW255618   7.707   9.483   9.823 -0.3863  0.9505 -0.4805
50100SOL     OW55619   9.985   2.155  11.612  0.2542 -0.8497 -0.0152
50100SOL    HW155620   9.965   2.125  11.701 -0.6042 -0.5233 -0.0835
50100SOL    HW255621   9.983   2.251  11.618 -0.4894 -0.8210 -0.5114
50101SOL     OW55622  11.715   5.223   4.932  0.3126 -0.1294  0.6425
50101SOL    HW155623  11.734   5.138   4.972  2.7948  0.3934  0.7546
50101SOL    HW255624  11.793   5.276   4.951 -0.2153  1.4568 -1.3083
50102SOL     OW55625   4.828   4.672   7.688  0.1620 -0.0735 -0.2487
50102SOL    HW155626   4.826   4.685   7.593 -0.4832  0.7966 -0.1327
50102SOL    HW255627   4.914   4.634   7.705  0.3038 -0.1927 -1.1778
50103SOL     OW55628   8.728   4.128   8.120 -0.3106  0.0480  0.0708
50103SOL    HW155629   8.819   4.139   8.147 -0.3998  0.7721  0.0737
50103SOL    HW255630   8.677   4.138   8.200 -0.5062  1.2708 -0.1891
50104SOL     OW55631   5.779   2.145   3.862  0.2185  0.2966 -0.4379
50104SOL    HW155632   5.815   2.124   3.948  1.2225  0.1555 -0.8800
50104SOL    HW255633   5.809   2.074   3.805  1.1454  1.3404 -1.3017
50105SOL     OW55634   4.083   8.422   9.701  0.8023 -0.2579 -0.2189
50105SOL    HW155635   4.019   8.481   9.660  2.3499  0.8372 -1.1639
50105SOL    HW255636   4.133   8.387   9.628  1.6620 -0.6423  0.5389
50106SOL     OW55637   8.541   2.687   8.664  0.4614 -0.4806 -0.0778
50106SOL    HW155638   8.588   2.768   8.645  1.6228 -1.2120 -0.4041
50106SOL    HW255639   8.495   2.704   8.746  3.1811 -0.4798  1.5553
50107SOL     OW55640  11.293   7.567   3.052  0.3134 -0.4134  0.2665
50107SOL    HW155641  11.261   7.621   3.124  0.5344 -0.9630  0.7829
50107SOL    HW255642  11.379   7.602   3.032 -0.5335  1.0200 -1.0749
50108SOL     OW55643   5.774   5.206   4.228  0.4359 -0.9128  0.3419
50108SOL    HW155644   5.838   5.232   4.161 -0.0147 -0.4908  0.0634
50108SOL    HW255645   5.733   5.128   4.192  1.3553 -1.6749  0.8951
50109SOL     OW55646  10.431   2.062   4.967 -0.0369  0.0269  0.6158
50109SOL    HW155647  10.351   2.098   4.928 -0.0944 -0.7419 -0.0143
50109SOL    HW255648  10.441   2.109   5.050  0.6343  2.4037 -0.7572
50110SOL     OW55649   7.951   0.938   4.083  0.4377  0.2385 -0.9757
50110SOL    HW155650   8.023   0.966   4.027 -0.1746  0.5916 -1.6039
50110SOL    HW255651   7.975   0.970   4.170  0.7756  0.8561 -1.2871
50111SOL     OW55652   6.889  11.099   9.195  0.1310 -0.1384  0.1934
50111SOL    HW155653   6.855  11.153   9.123 -0.5019 -1.9088 -0.9129
50111SOL    HW255654   6.973  11.138   9.216  0.0778  0.7813 -1.1500
50112SOL     OW55655   4.019   9.992   6.201 -0.5023  0.1273 -0.0626
50112SOL    HW155656   4.080   9.967   6.270 -1.6979 -1.9951  0.3143
50112SOL    HW255657   3.987  10.079   6.228  0.6320  0.2693  0.9108
50113SOL     OW55658   3.403   5.892   0.819  0.7135  0.4085 -0.0018
50113SOL    HW155659   3.353   5.842   0.883  3.3964 -1.7484  0.6024
50113SOL    HW255660   3.471   5.937   0.870  2.5601 -0.9128 -1.1287
50114SOL     OW55661   3.407  11.081   7.356  0.4677  0.1359  0.2763
50114SOL    HW155662   3.370  11.054   7.272  0.6114 -1.4105  0.6873
50114SOL    HW255663   3.500  11.093   7.340  0.5431 -0.4338  0.2616
50115SOL     OW55664   3.795   4.587   0.226  0.7098  0.3948  0.1652
50115SOL    HW155665   3.817   4.582   0.133  1.2545 -0.7527  0.3312
50115SOL    HW255666   3.877   4.568   0.271  0.1096 -0.6694  0.8507
50116SOL     OW55667   8.131   9.937   9.107  0.3940 -0.0117  0.4057
50116SOL    HW155668   8.039   9.936   9.080 -0.4586 -0.7740  3.0111
50116SOL    HW255669   8.150  10.030   9.122 -1.1264 -0.0260  3.1256
50117SOL     OW55670   1.707  10.196   6.816 -0.6548  0.2079 -0.0643
50117SOL    HW155671   1.664  10.126   6.866 -0.6666  1.0022  1.0736
50117SOL    HW255672   1.771  10.150   6.762  1.0790 -0.5679  2.4365
50118SOL     OW55673   5.286   5.595   8.023 -0.2068 -0.1366 -0.2113
50118SOL    HW155674   5.309   5.688   8.026  4.1289 -1.0424  2.2349
50118SOL    HW255675   5.237   5.580   8.104 -2.6791  0.2400 -1.5411
50119SOL     OW55676   7.376   5.783   3.239  0.2736  0.4987  0.4017
50119SOL    HW155677   7.457   5.820   3.274  1.4201 -1.3241 -0.1956
50119SOL    HW255678   7.310   5.803   3.305  1.7146 -0.0569  2.0704
50120SOL     OW55679   1.890   6.228   8.363 -0.3363  0.0382 -0.4173
50120SOL    HW155680   1.809   6.194   8.327 -1.0627  0.4646  0.7309
50120SOL    HW255681   1.903   6.178   8.444 -0.0794  0.7542 -0.0039
50121SOL     OW55682   9.142   9.593   1.503  0.0598  0.1320 -0.9959
50121SOL    HW155683   9.154   9.510   1.456  0.5860 -0.7942  0.7158
50121SOL    HW255684   9.069   9.577   1.562  0.2740  0.8321 -0.5295
50122SOL     OW55685   9.165   8.817   3.494  0.7437  0.2231 -0.9101
50122SOL    HW155686   9.131   8.906   3.503  1.0831  0.2993 -0.2808
50122SOL    HW255687   9.167   8.783   3.584  1.5348 -0.0692 -1.0243
50123SOL     OW55688   1.951   3.091   5.804 -1.2228  0.1367 -0.1281
50123SOL    HW155689   1.932   3.014   5.750  2.2271 -0.4189 -0.8160
50123SOL    HW255690   2.035   3.123   5.772  2.2290 -1.3474  5.8274
50124SOL     OW55691   0.025   4.273   3.884 -0.3492 -0.4610 -0.7564
50124SOL    HW155692   0.011   4.319   3.801 -0.7628  1.0856  0.1332
50124SOL    HW255693  -0.046   4.304   3.941 -0.3594 -1.8576  0.0410
50125SOL     OW55694   2.760   6.085   8.467 -0.0988 -0.0006  0.2392
50125SOL    HW155695   2.686   6.115   8.414 -0.3765 -0.6806  0.2293
50125SOL    HW255696   2.837   6.099   8.411 -0.3881 -0.7022 -0.3577
50126SOL     OW55697   0.167   0.612   7.305 -0.6452 -0.3553  0.2924
50126SOL    HW155698   0.133   0.693   7.342  2.1531  2.2490 -2.2042
50126SOL    HW255699   0.251   0.599   7.349  1.1129  0.8915 -2.3951
50127SOL     OW55700   2.773   4.656   1.196  0.2355 -0.0406 -0.0515
50127SOL    HW155701   2.820   4.610   1.126  1.0146 -1.3313  1.2611
50127SOL    HW255702   2.837   4.719   1.230  0.4310 -0.5741  0.5801
50128SOL     OW55703   4.799  11.590   9.147 -0.3514 -0.0225 -0.5099
50128SOL    HW155704   4.807  11.681   9.116 -0.0302  0.5244  1.1086
50128SOL    HW255705   4.888  11.555   9.143 -0.0245  0.5417  1.1755
50129SOL     OW55706   6.336   6.475   7.248  0.4359  0.0601  0.1433
50129SOL    HW155707   6.361   6.522   7.169  1.4416 -0.9958 -0.1986
50129SOL    HW255708   6.343   6.541   7.318 -0.2245  0.9351 -0.5900
50130SOL     OW55709   6.189   0.041   4.551  0.5093  0.2128  0.2117
50130SOL    HW155710   6.124   0.027   4.620  0.2101 -0.6647 -0.2292
50130SOL    HW255711   6.139   0.075   4.477  0.6444  0.0673  0.0522
50131SOL     OW55712   7.155   0.156  11.314 -0.1479  0.2295  0.2281
50131SOL    HW155713   7.214   0.198  11.377  1.5910 -0.6077 -0.7695
50131SOL    HW255714   7.125   0.077  11.357  2.7958 -1.5347 -0.6489
50132SOL     OW55715   4.108   3.518   9.910  0.0390 -0.0270 -0.4552
50132SOL    HW155716   4.088   3.576   9.983 -0.6988  0.9804 -1.4214
50132SOL    HW255717   4.025   3.507   9.865  0.3286 -1.2399 -0.7299
50133SOL     OW55718   4.025   0.440   7.569 -0.0529 -0.6910 -0.0049
50133SOL    HW155719   3.982   0.447   7.484  0.5426  1.0633 -0.1944
50133SOL    HW255720   3.963   0.476   7.631  0.9554  1.6577 -0.2531
50134SOL     OW55721   1.534   8.706   7.240 -0.2210  0.0202 -0.6200
50134SOL    HW155722   1.473   8.720   7.313 -1.5880 -0.6137 -1.6048
50134SOL    HW255723   1.620   8.700   7.282 -0.6983  1.7483  0.7255
50135SOL     OW55724   6.465   6.499   9.193  0.5909 -0.0772  0.1349
50135SOL    HW155725   6.457   6.535   9.281  2.8295  1.6702 -0.2927
50135SOL    HW255726   6.515   6.418   9.205  0.6479  0.0081  0.4876
50136SOL     OW55727   8.909   9.700   7.612 -0.4949 -0.2412  0.3129
50136SOL    HW155728   8.923   9.660   7.698  0.0920 -1.6090 -0.3776
50136SOL    HW255729   8.996   9.703   7.572 -0.5697  1.5127  0.2023
50137SOL     OW55730   0.239  11.077   5.867 -0.6373 -0.0936  0.5424
50137SOL    HW155731   0.150  11.074   5.833 -0.8368 -2.3487  1.0685
50137SOL    HW255732   0.286  11.012   5.816  0.8920  1.4457 -0.0859
50138SOL     OW55733   1.073   8.900   8.670 -0.8626 -0.0224  0.4266
50138SOL    HW155734   0.995   8.956   8.676 -0.9867 -0.2818  1.4192
50138SOL    HW255735   1.041   8.821   8.626 -0.7538  0.5356 -0.7095
50139SOL     OW55736   2.856   2.791   0.584  0.5578 -0.3478  0.5422
50139SOL    HW155737   2.811   2.852   0.643 -0.7220 -2.3587  1.7901
50139SOL    HW255738   2.878   2.716   0.640  2.5665 -0.8294 -0.8005
50140SOL     OW55739   6.951  10.398   9.569 -0.5832  0.9214 -0.3478
50140SOL    HW155740   6.952  10.378   9.663 -1.8973 -1.2020 -0.7094
50140SOL    HW255741   6.910  10.484   9.564 -1.2248  0.7328  0.9963
50141SOL     OW55742   1.542   9.973   9.984 -0.1973  0.3446  0.0561
50141SOL    HW155743   1.613   9.939   9.929 -1.2884 -0.0923 -1.1378
50141SOL    HW255744   1.577   9.970  10.073  1.0288 -0.5068 -0.4243
50142SOL     OW55745   5.263   9.712  11.469  0.0943 -0.1718  0.0225
50142SOL    HW155746   5.263   9.748  11.557  0.6376 -0.0418 -0.0235
50142SOL    HW255747   5.237   9.621  11.480 -1.0239  0.1563  0.1726
50143SOL     OW55748   6.011   3.465   1.869  0.2246 -0.3135  0.3830
50143SOL    HW155749   6.039   3.453   1.959  1.3101 -0.0984  0.0903
50143SOL    HW255750   6.041   3.386   1.824 -0.2193 -0.3732  0.1888
50144SOL     OW55751  11.711   9.015   6.776  0.0091  0.2424  0.4760
50144SOL    HW155752  11.783   9.048   6.830  1.4595 -1.1736 -0.4958
50144SOL    HW255753  11.749   8.943   6.726 -1.4761  0.9528 -1.8685
50145SOL     OW55754   2.683   1.859   9.165  0.3428  0.5365 -0.0076
50145SOL    HW155755   2.705   1.771   9.196 -0.2726 -0.2354 -1.6385
50145SOL    HW255756   2.678   1.850   9.070  0.1306  2.3173 -0.1925
50146SOL     OW55757   5.000   2.530   9.575 -0.1311  0.6117  0.5434
50146SOL    HW155758   4.905   2.543   9.566 -0.3845 -1.0313  0.5058
50146SOL    HW255759   5.039   2.590   9.512 -1.3347 -1.4933 -2.4261
50147SOL     OW55760   2.304   9.890   9.526 -0.1697 -0.0470 -0.0549
50147SOL    HW155761   2.314   9.858   9.436 -2.2177  0.8022 -0.6399
50147SOL    HW255762   2.268   9.978   9.516  1.6266  0.9461  1.5965
50148SOL     OW55763   2.582   7.215  11.054  0.3709 -0.0781  0.2177
50148SOL    HW155764   2.564   7.279  11.122 -1.3237 -0.1138 -0.1364
50148SOL    HW255765   2.499   7.207  11.006  1.2143 -0.8125 -1.1985
50149SOL     OW55766   2.696   1.964   2.341 -0.2434 -0.0068  0.1745
50149SOL    HW155767   2.743   1.900   2.287  0.1262  0.9494 -0.6616
50149SOL    HW255768   2.648   1.910   2.404 -1.7350 -1.2814 -1.8857
50150SOL     OW55769   9.860   0.833   2.137  0.0234 -0.0854 -0.3015
50150SOL    HW155770   9.815   0.911   2.167 -0.0396 -0.2939  0.1499
50150SOL    HW255771   9.953   0.854   2.145  0.0059 -0.0295 -0.2477
50151SOL     OW55772   6.917   6.850   6.469  0.5250 -0.2285 -0.2397
50151SOL    HW155773   6.906   6.759   6.496 -2.6546  0.4166  1.0169
50151SOL    HW255774   6.965   6.891   6.541  0.8663 -0.6108 -0.2432
50152SOL     OW55775   8.521  11.296   7.637  0.1410  0.3780 -0.2864
50152SOL    HW155776   8.600  11.349   7.643 -1.7812  3.4143  0.2564
50152SOL    HW255777   8.478  11.325   7.556 -1.3073  0.1905  0.3761
50153SOL     OW55778   1.281   2.617   0.551 -0.4206 -0.2231  0.0849
50153SOL    HW155779   1.196   2.633   0.511 -1.7211 -0.4892  2.6073
50153SOL    HW255780   1.289   2.522   0.553  0.5455 -0.2029 -1.2535
50154SOL     OW55781   6.594   1.614  11.066  0.4592 -0.0039  0.2286
50154SOL    HW155782   6.510   1.657  11.085 -0.6166 -1.5248 -0.8377
50154SOL    HW255783   6.612   1.562  11.144  0.3278  0.1980  0.3955
50155SOL     OW55784   3.847   5.377   6.287  0.3152 -0.4450  0.2460
50155SOL    HW155785   3.915   5.437   6.256 -1.9879  0.8614 -2.7591
50155SOL    HW255786   3.837   5.399   6.380  0.9161  2.5061 -0.2857
50156SOL     OW55787  11.779   5.140   0.203  0.3088  0.0608 -0.4417
50156SOL    HW155788  11.731   5.161   0.123 -2.3484 -0.3726  0.9176
50156SOL    HW255789  11.767   5.217   0.259  0.2563 -0.5022  0.3426
50157SOL     OW55790   4.906  10.480   2.962  0.2314  0.3458 -0.3210
50157SOL    HW155791   4.944  10.462   2.876 -0.5900  0.2879 -0.6756
50157SOL    HW255792   4.932  10.405   3.016 -1.4708 -0.9718 -1.2387
50158SOL     OW55793   9.380  10.877   4.800 -0.2548 -0.6542  0.2603
50158SOL    HW155794   9.326  10.953   4.774  0.1936 -0.4793 -0.1842
50158SOL    HW255795   9.336  10.802   4.760 -0.1053 -0.4966 -0.2063
50159SOL     OW55796   2.659   0.020   5.920 -0.5724 -0.5162 -0.1219
50159SOL    HW155797   2.671   0.062   5.834 -1.5647 -0.4377 -0.2268
50159SOL    HW255798   2.720  -0.054   5.918 -0.7365 -0.6431 -0.9782
50160SOL     OW55799   7.362   2.105   0.071  0.3280  0.0184  0.1374
50160SOL    HW155800   7.405   2.058  -0.001  1.0416 -2.0233  1.7714
50160SOL    HW255801   7.272   2.118   0.041  0.6737 -0.5424 -1.2331
50161SOL     OW55802   9.520   7.515   8.865 -0.3684  0.0096 -0.3239
50161SOL    HW155803   9.459   7.478   8.802 -1.2350 -1.8598  1.4998
50161SOL    HW255804   9.466   7.542   8.939  0.5046  3.0638 -0.6658
50162SOL     OW55805   3.182   4.691   8.127  0.1767 -0.1602 -0.0057
50162SOL    HW155806   3.259   4.725   8.079 -0.2772  0.5059 -0.2853
50162SOL    HW255807   3.131   4.769   8.147 -2.1376 -0.7775 -2.7578
50163SOL     OW55808  10.223   9.107   3.833 -0.2480 -0.3932  0.0203
50163SOL    HW155809  10.236   9.080   3.924 -2.0774  0.2990  0.5208
50163SOL    HW255810  10.223   9.024   3.784  4.4062 -0.6512 -0.0055
50164SOL     OW55811   7.739   6.071   3.104 -0.1419  0.3210  0.3828
50164SOL    HW155812   7.804   6.079   3.034 -1.0968  0.6032 -0.4899
50164SOL    HW255813   7.713   6.161   3.123 -1.3897  0.1302 -0.3487
50165SOL     OW55814   2.094   8.295   7.035  0.0834 -0.0017 -0.0980
50165SOL    HW155815   2.002   8.268   7.038  0.6448 -2.1493  3.0557
50165SOL    HW255816   2.093   8.388   7.054 -1.4658  0.4438 -2.0316
50166SOL     OW55817   0.088   3.857  10.738  0.2456 -0.4064  0.4139
50166SOL    HW155818   0.156   3.921  10.761  1.2578 -1.6154  0.9060
50166SOL    HW255819   0.083   3.861  10.643  0.3669  0.3326  0.4318
50167SOL     OW55820  11.810   1.252   8.641  0.4239 -0.5003 -0.1555
50167SOL    HW155821  11.862   1.256   8.560 -1.6126 -0.0123 -1.5353
50167SOL    HW255822  11.763   1.169   8.635 -2.1722  0.8920 -1.2073
50168SOL     OW55823   7.737   9.334   0.255 -0.1945  0.1339  0.0224
50168SOL    HW155824   7.694   9.293   0.331 -1.7673 -0.5966 -1.2051
50168SOL    HW255825   7.675   9.402   0.227  0.4374  0.4900 -0.5306
50169SOL     OW55826   1.797   9.009   2.218 -0.5200 -0.2988  0.1703
50169SOL    HW155827   1.887   9.039   2.227  0.2074 -1.3847 -2.4386
50169SOL    HW255828   1.744   9.078   2.258  1.3815  1.0317  0.5024
50170SOL     OW55829   3.034   6.860  10.135 -0.0911 -0.0475 -0.4447
50170SOL    HW155830   3.025   6.785  10.194  0.9741 -0.0659 -0.2856
50170SOL    HW255831   3.107   6.837  10.077  1.5035  1.5748  0.7944
50171SOL     OW55832   3.215   2.109   1.160  0.1320 -0.1238 -0.1886
50171SOL    HW155833   3.290   2.099   1.102  0.4563 -0.5250  0.2881
50171SOL    HW255834   3.140   2.079   1.108  0.5189 -1.1794 -0.1702
50172SOL     OW55835  10.425   0.072  11.693 -0.2240  0.6340  0.0469
50172SOL    HW155836  10.467   0.023  11.623 -0.6844 -0.2691  0.3862
50172SOL    HW255837  10.332   0.046  11.688 -0.2910  0.6788  0.8786
50173SOL     OW55838   6.360   2.674   6.822  0.1747  0.1120  0.1807
50173SOL    HW155839   6.377   2.702   6.912 -2.8500 -1.4704  1.4094
50173SOL    HW255840   6.436   2.622   6.798  0.6274 -0.2852  2.2470
50174SOL     OW55841   3.047   4.768   5.056  0.6697 -0.3575  0.8981
50174SOL    HW155842   2.981   4.705   5.025  0.2958  0.7107 -0.5922
50174SOL    HW255843   3.129   4.720   5.053  0.4358 -0.7147 -0.5120
50175SOL     OW55844   0.152   3.408   2.793  0.1808  0.1047 -0.8398
50175SOL    HW155845   0.246   3.412   2.810  0.2424 -3.0678  0.2658
50175SOL    HW255846   0.115   3.364   2.869 -2.1901  0.9342 -1.4063
50176SOL     OW55847  11.602   6.546   7.968 -0.3510  0.7764 -0.3679
50176SOL    HW155848  11.556   6.473   7.927  1.3559  0.0269 -1.0612
50176SOL    HW255849  11.544   6.621   7.956 -0.7483  0.2010 -2.5735
50177SOL     OW55850   2.688   6.933  11.058 -0.3782 -0.7208  0.0425
50177SOL    HW155851   2.622   6.879  11.102 -0.4759 -0.6545 -0.0253
50177SOL    HW255852   2.656   7.023  11.067  0.5627 -0.4935  1.5668
50178SOL     OW55853   4.361   7.064   3.805  0.5713 -0.5990  0.0793
50178SOL    HW155854   4.457   7.069   3.813  0.4752  3.8604  1.1172
50178SOL    HW255855   4.338   7.142   3.755 -2.6290 -0.7596  1.1232
50179SOL     OW55856   8.444   1.017   4.866  0.1135 -0.0744 -0.5045
50179SOL    HW155857   8.497   1.091   4.897  0.5215  0.8946 -3.2671
50179SOL    HW255858   8.353   1.048   4.873  0.0584 -0.4880  1.0939
50180SOL     OW55859   9.892   9.861   5.446  0.3880  0.2709  0.1793
50180SOL    HW155860   9.935   9.781   5.476  1.2513  1.6061  2.7682
50180SOL    HW255861   9.908   9.925   5.516 -1.5719  2.2787 -1.0769
50181SOL     OW55862   7.981   4.147   2.430  0.5443 -0.4721  0.5640
50181SOL    HW155863   8.007   4.230   2.392 -1.6661  0.9852  1.9875
50181SOL    HW255864   8.039   4.135   2.506 -0.0242  0.5357  1.1836
50182SOL     OW55865   0.948   7.618   4.797 -0.0983  0.3838 -0.4518
50182SOL    HW155866   0.958   7.535   4.749 -1.6361  0.2927 -0.6546
50182SOL    HW255867   0.999   7.681   4.746  1.0439 -0.3962 -0.3311
50183SOL     OW55868  10.730   9.970   6.133  0.0800 -0.1493  0.4779
50183SOL    HW155869  10.718  10.060   6.102  0.1281 -0.4161 -0.3250
50183SOL    HW255870  10.676   9.965   6.212  0.3645  0.6878  0.7332
50184SOL     OW55871   2.520  10.707   2.658  0.0574 -0.5429 -0.1662
50184SOL    HW155872   2.471  10.646   2.713  1.4175  0.8445  2.8521
50184SOL    HW255873   2.606  10.666   2.647 -0.4108 -1.1147 -1.9273
50185SOL     OW55874   8.910   6.575   3.325 -0.0738 -0.3990  0.2197
50185SOL    HW155875   8.900   6.486   3.290 -0.0592 -0.6317  0.7906
50185SOL    HW255876   8.925   6.562   3.418  0.5714  0.1761  0.2036
50186SOL     OW55877   7.062   0.899   4.532 -0.3111 -0.8401 -0.2499
50186SOL    HW155878   6.975   0.891   4.492  0.4260  0.3669 -2.2543
50186SOL    HW255879   7.044   0.911   4.625 -2.2299 -1.7440 -0.4487
50187SOL     OW55880   4.184   1.411   4.685 -0.2823 -0.2098  0.1197
50187SOL    HW155881   4.142   1.324   4.689  0.1269 -0.3831  0.7260
50187SOL    HW255882   4.277   1.392   4.673 -0.1071  0.1239  0.9010
50188SOL     OW55883   4.056   3.272   9.469 -0.4725 -0.1384 -0.4494
50188SOL    HW155884   4.109   3.213   9.523  0.3764  1.1715  0.2251
50188SOL    HW255885   4.066   3.238   9.380 -0.4601 -1.3166 -0.0205
50189SOL     OW55886   8.686   8.284   4.201  0.0822 -0.5946  0.2693
50189SOL    HW155887   8.663   8.311   4.290 -0.6594  1.1566 -0.4078
50189SOL    HW255888   8.605   8.250   4.165  0.4063 -1.3902  0.2713
50190SOL     OW55889   9.385   2.815   3.295 -0.1374 -0.4957 -0.0277
50190SOL    HW155890   9.328   2.891   3.297 -0.0102 -0.3904 -0.4277
50190SOL    HW255891   9.328   2.742   3.271  0.0455 -0.2484 -1.2994
50191SOL     OW55892   3.202   7.188   5.608 -0.3069  0.2285  0.3235
50191SOL    HW155893   3.218   7.255   5.542  0.8282 -0.0915  0.2456
50191SOL    HW255894   3.232   7.106   5.568 -0.0496 -0.0436  1.0406
50192SOL     OW55895  11.318   7.528   5.215 -0.2112 -0.1445 -0.1382
50192SOL    HW155896  11.412   7.548   5.218  0.1337 -1.3747 -1.4840
50192SOL    HW255897  11.307   7.480   5.133 -2.0802  0.2085 -0.1183
50193SOL     OW55898   3.557   6.664  11.696  0.5046  0.4846 -0.4224
50193SOL    HW155899   3.639   6.632  11.732  0.7151  0.5020 -0.8799
50193SOL    HW255900   3.527   6.593  11.639 -0.2677  0.0862  0.4393
50194SOL     OW55901   6.202   6.404   1.868 -0.0934 -0.4112  0.0595
50194SOL    HW155902   6.247   6.463   1.929 -0.5489 -0.5272  0.5155
50194SOL    HW255903   6.136   6.459   1.826 -0.2019 -0.4873  0.1325
50195SOL     OW55904   4.544   4.871  10.700  0.1195 -0.3387  0.2807
50195SOL    HW155905   4.512   4.880  10.790  0.2583  0.7684  0.2392
50195SOL    HW255906   4.630   4.914  10.702 -0.0812  0.1047 -0.4860
50196SOL     OW55907   8.761  11.797   5.643 -0.3584  0.3909  0.0309
50196SOL    HW155908   8.817  11.829   5.714 -1.4746  0.7435  0.7865
50196SOL    HW255909   8.805  11.826   5.563  1.4188 -0.8260  0.5101
50197SOL     OW55910  11.804   6.976  10.957 -0.6548  0.4570 -0.2525
50197SOL    HW155911  11.823   6.925  11.035  2.1408  0.1206 -1.0533
50197SOL    HW255912  11.849   7.059  10.971  0.3047  0.2096 -1.6597
50198SOL     OW55913   8.111   5.905   0.897 -0.4061 -0.0882  0.0535
50198SOL    HW155914   8.174   5.833   0.902 -0.8264 -0.4411  0.3816
50198SOL    HW255915   8.027   5.862   0.881 -0.7364  0.2887  0.7269
50199SOL     OW55916   1.595   9.456   3.160  0.0323  0.1673  0.3755
50199SOL    HW155917   1.540   9.402   3.216 -4.4717  0.4543 -3.1686
50199SOL    HW255918   1.656   9.395   3.119 -0.5674 -1.0295  1.2195
50200SOL     OW55919   9.768   1.425  11.465  0.0973 -0.0509 -0.4313
50200SOL    HW155920   9.682   1.383  11.465 -0.2157  0.5832 -0.2322
50200SOL    HW255921   9.772   1.470  11.549  0.9740 -0.7782 -0.0645
50201SOL     OW55922   1.244   0.584   6.163 -0.5262 -0.1310  0.2840
50201SOL    HW155923   1.153   0.613   6.160 -0.4207  0.4614  2.0265
50201SOL    HW255924   1.245   0.515   6.229  0.3448  0.0151  0.4292
50202SOL     OW55925   0.336  10.818   2.611  0.3305  0.1142 -0.1792
50202SOL    HW155926   0.381  10.750   2.663  0.7367  0.8929  0.5092
50202SOL    HW255927   0.245  10.789   2.609  0.4456 -0.3159  0.3530
50203SOL     OW55928   6.826   8.975   8.732 -0.0102  0.2651 -0.3344
50203SOL    HW155929   6.859   8.886   8.736  1.0381  0.6108 -0.8662
50203SOL    HW255930   6.745   8.974   8.783  0.1107 -0.9287 -0.1562
50204SOL     OW55931  10.266   3.827   5.878 -0.7785  0.3784  0.4129
50204SOL    HW155932  10.291   3.819   5.970 -4.7062 -1.1167  1.5774
50204SOL    HW255933  10.187   3.882   5.879 -0.1344  1.5265 -2.3126
50205SOL     OW55934   8.540  11.815   2.308  0.1597 -0.0530  0.1355
50205SOL    HW155935   8.511  11.741   2.361 -0.2907 -0.9077 -1.2319
50205SOL    HW255936   8.574  11.878   2.371  0.5708 -1.4221  1.3429
50206SOL     OW55937   9.022   4.658   2.831 -0.3351  0.7453  0.0642
50206SOL    HW155938   9.048   4.583   2.884 -1.6791  2.1516  2.9335
50206SOL    HW255939   9.072   4.732   2.868 -2.1095  1.9734  0.1166
50207SOL     OW55940   8.402   6.931   5.056 -0.8221  0.4435 -0.1526
50207SOL    HW155941   8.446   6.854   5.021 -1.0095  0.9968 -1.7056
50207SOL    HW255942   8.329   6.946   4.995 -0.6754  1.9397  0.0128
50208SOL     OW55943   5.186   5.412   7.863  0.6126  0.1631  0.5526
50208SOL    HW155944   5.217   5.487   7.914  2.7321  1.4330 -2.3581
50208SOL    HW255945   5.202   5.337   7.921  1.5298  1.6193  2.3169
50209SOL     OW55946   1.655   5.902   6.177 -0.5604 -0.5261 -0.1060
50209SOL    HW155947   1.695   5.985   6.150 -1.0639 -0.0469  0.5765
50209SOL    HW255948   1.568   5.903   6.137 -1.0921 -0.0755  0.9994
50210SOL     OW55949   6.540   8.006  11.338  0.5733 -1.2262  0.2089
50210SOL    HW155950   6.590   7.974  11.413  0.8129  0.2579  0.7158
50210SOL    HW255951   6.453   8.024  11.372  0.7410 -0.3444  0.2083
50211SOL     OW55952   2.222   9.919   8.804 -0.3665  0.2207 -0.1315
50211SOL    HW155953   2.246   9.915   8.897 -2.3085 -2.0062  0.3827
50211SOL    HW255954   2.223   9.828   8.775 -0.2998  0.8284 -2.1890
50212SOL     OW55955   5.982   1.853   1.977  0.5499  0.0797  0.3521
50212SOL    HW155956   6.013   1.892   2.059  1.8562 -0.7198  0.2666
50212SOL    HW255957   5.963   1.762   1.999 -1.7436  0.4984  0.3715
50213SOL     OW55958   6.418   7.782  11.552  0.0482  0.0500  0.1561
50213SOL    HW155959   6.368   7.748  11.477  1.2185  0.4941 -0.8657
50213SOL    HW255960   6.501   7.734  11.548  0.4517  0.7031  0.6475
50214SOL     OW55961  10.421   4.693   9.354 -0.0629  0.0003 -0.1068
50214SOL    HW155962  10.451   4.608   9.387 -0.0929  0.0936  0.1662
50214SOL    HW255963  10.501   4.744   9.342 -0.0522 -0.0327 -0.1664
50215SOL     OW55964   9.980  11.146   8.447  0.0542 -0.5753 -0.3127
50215SOL    HW155965   9.966  11.146   8.542  2.1458  0.3798  0.0542
50215SOL    HW255966  10.006  11.236   8.427  2.6827 -1.4668 -1.2479
50216SOL     OW55967   9.755   8.731   1.548 -0.9479  0.3754  0.3397
50216SOL    HW155968   9.665   8.762   1.545 -0.8436  0.6342 -0.8244
50216SOL    HW255969   9.786   8.755   1.635 -1.5271  1.6828  0.2139
50217SOL     OW55970  10.541   3.874   9.521 -0.0173  0.2321  0.4917
50217SOL    HW155971  10.513   3.958   9.558  3.2380  1.0711  1.3809
50217SOL    HW255972  10.637   3.877   9.525  0.3455 -2.1274 -2.7004
50218SOL     OW55973   4.178   2.490   7.648 -0.0627  0.1687 -0.2561
50218SOL    HW155974   4.210   2.573   7.684 -0.4725  1.0509 -1.7933
50218SOL    HW255975   4.178   2.430   7.722 -0.9212  1.8730  1.2230
50219SOL     OW55976   5.788   7.069   6.851  0.3099  0.2053 -0.2437
50219SOL    HW155977   5.763   7.138   6.790 -0.8431 -0.7369 -0.8863
50219SOL    HW255978   5.707   7.045   6.895  0.4984 -1.3095 -0.6584
50220SOL     OW55979   9.613   5.605   0.126  0.2254 -0.0830 -0.4188
50220SOL    HW155980   9.668   5.634   0.199 -2.2484  0.9858  1.1960
50220SOL    HW255981   9.621   5.674   0.061  0.5623  0.2151 -0.0695
50221SOL     OW55982  10.576   4.292   3.558  0.1530  0.7936 -0.0851
50221SOL    HW155983  10.581   4.198   3.541  0.0692  0.4367  1.6417
50221SOL    HW255984  10.572   4.332   3.471  0.2676 -0.7828 -0.8583
50222SOL     OW55985   4.294   8.468  11.628 -0.4385  0.9731  0.1007
50222SOL    HW155986   4.265   8.381  11.653 -1.2764  1.1899 -0.0686
50222SOL    HW255987   4.214   8.521  11.626 -0.1569  1.4093 -1.1522
50223SOL     OW55988  11.351   2.934   8.359 -0.2506  0.3301  0.0413
50223SOL    HW155989  11.361   2.886   8.277 -1.7601  0.8482 -0.4809
50223SOL    HW255990  11.419   3.001   8.356  0.4736 -0.4086 -0.2269
50224SOL     OW55991   9.116  10.834   7.998 -0.1484  0.0995  0.5065
50224SOL    HW155992   9.099  10.796   7.912  1.2158 -2.1161  1.1461
50224SOL    HW255993   9.152  10.921   7.979 -0.1247 -0.2434 -1.1421
50225SOL     OW55994   7.189   4.260   3.774  0.0327 -0.1562  0.3013
50225SOL    HW155995   7.273   4.304   3.763 -0.4813  0.7060 -0.3760
50225SOL    HW255996   7.192   4.224   3.862  1.9012 -1.9416 -0.4136
50226SOL     OW55997   9.005   7.361   8.055 -0.3511 -0.2606 -0.2048
50226SOL    HW155998   8.922   7.332   8.017 -0.2310 -0.6175 -0.1942
50226SOL    HW255999   9.043   7.417   7.987 -1.1724  0.9246  0.2833
50227SOL     OW56000   6.287  10.994  11.320 -0.1186  0.4793 -0.5986
50227SOL    HW156001   6.195  10.989  11.296  0.0883 -1.0779 -1.1682
50227SOL    HW256002   6.288  10.987  11.416 -0.5217 -1.2401 -0.6943
50228SOL     OW56003  10.710   4.920   1.914  0.5140 -0.1155 -0.1534
50228SOL    HW156004  10.722   4.929   1.820 -1.2740  1.8238 -0.2926
50228SOL    HW256005  10.728   5.008   1.949  0.4448 -0.6130  1.2121
50229SOL     OW56006   9.053   8.445   4.620  0.5698  0.0903  0.0286
50229SOL    HW156007   9.043   8.448   4.525  1.2435  0.1820 -0.0408
50229SOL    HW256008   8.970   8.479   4.654  0.2055 -0.2402 -0.5172
50230SOL     OW56009  10.398   8.639  11.522 -0.0663  0.7106  0.3463
50230SOL    HW156010  10.399   8.577  11.594  1.1651 -0.3949 -0.5717
50230SOL    HW256011  10.305   8.657  11.506 -0.6057 -2.2824 -0.4839
50231SOL     OW56012  11.227  11.240  10.960  0.2767 -0.0554 -0.6097
50231SOL    HW156013  11.158  11.190  11.004 -0.6890  0.0955 -1.8985
50231SOL    HW256014  11.293  11.175  10.936  0.7667 -0.1530  0.9262
50232SOL     OW56015   8.525   1.142   8.788  0.0154  0.2586  0.1239
50232SOL    HW156016   8.523   1.238   8.788  0.5411  0.2778 -0.0068
50232SOL    HW256017   8.616   1.121   8.764 -0.0523 -0.2701  0.3278
50233SOL     OW56018   5.485  10.149   3.091  0.0372  0.3364 -0.5225
50233SOL    HW156019   5.402  10.183   3.124  1.1305  0.8179  2.0222
50233SOL    HW256020   5.475  10.148   2.996 -3.7321 -1.8863 -0.3115
50234SOL     OW56021  10.515   8.132   7.768 -0.0657  0.3039 -0.1573
50234SOL    HW156022  10.429   8.171   7.756  0.2123  1.1330  0.4967
50234SOL    HW256023  10.519   8.110   7.861 -0.1510 -1.1592 -0.4733
50235SOL     OW56024  11.554   6.513   2.197  0.2112  0.3133  0.0791
50235SOL    HW156025  11.486   6.480   2.255  0.6818  0.0261  0.4803
50235SOL    HW256026  11.509   6.535   2.116 -0.3880  0.3163  0.4104
50236SOL     OW56027   5.440  11.817   0.090 -0.1860 -0.4428 -0.1166
50236SOL    HW156028   5.459  11.904   0.053 -1.5882  0.3813  1.0044
50236SOL    HW256029   5.524  11.771   0.087 -0.0233 -0.1914 -3.5562
50237SOL     OW56030   4.664   5.990   7.364  0.1252 -0.4743 -0.2375
50237SOL    HW156031   4.740   5.992   7.305  0.7769  0.9015  0.5737
50237SOL    HW256032   4.605   5.926   7.326  1.3215 -0.9426 -1.3810
50238SOL     OW56033  11.450   5.175   9.242  0.1438  0.3702  0.0607
50238SOL    HW156034  11.452   5.192   9.336  1.8502  0.1817  0.0847
50238SOL    HW256035  11.517   5.233   9.206  0.6793 -0.7434 -0.8156
50239SOL     OW56036  10.866   5.741  10.624  0.0586  0.7023  0.9670
50239SOL    HW156037  10.884   5.658  10.668 -0.2119  0.8138  1.2938
50239SOL    HW256038  10.944   5.794  10.640  0.5995  0.2151  0.0269
50240SOL     OW56039   7.582   6.561   8.311  0.5074  0.2471 -0.2370
50240SOL    HW156040   7.569   6.574   8.217  1.7504 -0.6716 -0.5550
50240SOL    HW256041   7.601   6.468   8.321 -0.1709  0.2213  1.0051
50241SOL     OW56042   7.967  10.832   1.957 -0.1417 -0.4622 -0.6887
50241SOL    HW156043   8.044  10.784   1.987  0.0333 -0.7099 -1.5164
50241SOL    HW256044   8.003  10.902   1.903 -0.4286  0.2807  0.0569
50242SOL     OW56045   4.988  11.087   2.929 -0.2306  0.2425  0.6716
50242SOL    HW156046   4.896  11.080   2.903  0.0763  0.6475 -0.5678
50242SOL    HW256047   4.984  11.123   3.018 -1.2380  1.7665  0.0575
50243SOL     OW56048   4.856   2.170   2.457  0.2862  0.2295  0.8228
50243SOL    HW156049   4.905   2.102   2.503  1.1581  1.4410  1.7366
50243SOL    HW256050   4.921   2.237   2.435 -0.3075  0.2234 -1.1972
50244SOL     OW56051   0.388  11.174   8.692 -0.1748 -0.1686 -0.3808
50244SOL    HW156052   0.303  11.135   8.710 -0.3681 -0.2067 -1.3160
50244SOL    HW256053   0.451  11.119   8.739 -0.6989  0.1138  0.6668
50245SOL     OW56054   9.117   4.364   2.143 -0.1013 -0.4411 -0.0416
50245SOL    HW156055   9.147   4.431   2.082 -1.0724  1.5031  1.5068
50245SOL    HW256056   9.047   4.318   2.097 -0.2075  0.3900 -0.7122
50246SOL     OW56057   8.024  10.737   8.253 -0.2748  0.3880 -0.3910
50246SOL    HW156058   7.969  10.813   8.272  0.6612  1.2645 -1.0569
50246SOL    HW256059   8.098  10.744   8.314 -0.1706  0.0250 -0.4693
50247SOL     OW56060   8.571  11.740   9.089 -0.4723 -0.0093 -0.4120
50247SOL    HW156061   8.509  11.669   9.104  1.0493 -1.6572 -1.4468
50247SOL    HW256062   8.617  11.750   9.173 -0.2003 -0.7880 -0.4583
50248SOL     OW56063   6.654   4.692   5.592  0.0436 -0.3995 -1.1248
50248SOL    HW156064   6.644   4.709   5.686 -0.5765 -1.4057 -0.9993
50248SOL    HW256065   6.745   4.713   5.573 -0.3624  1.9499 -0.7695
50249SOL     OW56066   0.326   4.006   2.597  0.6079  0.6265  0.3382
50249SOL    HW156067   0.266   3.962   2.656  1.1368  0.5989  0.8602
50249SOL    HW256068   0.401   4.031   2.651  1.7234 -0.5854 -0.5541
50250SOL     OW56069   4.916   6.665   9.432  0.1323  0.3938 -0.2848
50250SOL    HW156070   4.867   6.606   9.489 -1.1684  0.9509 -0.7832
50250SOL    HW256071   4.898   6.634   9.344  0.5276  0.7191 -0.4842
50251SOL     OW56072   9.327   8.402  11.344 -0.4079  0.1110 -0.2005
50251SOL    HW156073   9.419   8.374  11.342 -0.9697 -2.0098  0.9614
50251SOL    HW256074   9.291   8.373  11.260 -0.2227  0.1821 -0.3056
50252SOL     OW56075  10.973  11.004  10.768  0.4861 -0.1159  0.4313
50252SOL    HW156076  10.908  10.934  10.767 -1.8484  1.8359  1.8205
50252SOL    HW256077  10.997  11.016  10.676 -0.2905 -1.6313 -0.0010
50253SOL     OW56078   6.453   7.137   1.730  0.3437  0.1661 -0.6712
50253SOL    HW156079   6.522   7.162   1.791 -1.3975  2.0648  0.6851
50253SOL    HW256080   6.429   7.048   1.755  0.4584  0.4966  0.6961
50254SOL     OW56081   1.245   4.653   4.657  0.5852 -0.1831 -0.5008
50254SOL    HW156082   1.190   4.668   4.733 -0.7995  1.1384 -1.6812
50254SOL    HW256083   1.298   4.577   4.680 -0.7444 -0.6573  1.2392
50255SOL     OW56084   1.020  11.687   8.531 -0.4274 -0.1455  0.1644
50255SOL    HW156085   1.060  11.742   8.599 -0.2896 -0.9380  0.7470
50255SOL    HW256086   0.989  11.610   8.579  0.6541 -1.2330 -0.8220
50256SOL     OW56087   2.185   9.477   7.858 -0.6472  0.5738  0.0687
50256SOL    HW156088   2.274   9.503   7.881  0.0631  0.5130 -2.2938
50256SOL    HW256089   2.186   9.381   7.866 -0.3492  0.5362 -0.3789
50257SOL     OW56090   3.838   6.381   5.876  0.3584  0.2090 -0.0123
50257SOL    HW156091   3.839   6.427   5.960  1.3095  0.6631 -0.2545
50257SOL    HW256092   3.759   6.327   5.879  1.1814 -0.9855  1.8108
50258SOL     OW56093   0.526   1.385   9.458  0.3023 -0.7305  0.5929
50258SOL    HW156094   0.449   1.376   9.403 -0.1154 -1.2671  1.2444
50258SOL    HW256095   0.600   1.372   9.398 -0.0942  0.0293 -0.0777
50259SOL     OW56096   5.203   0.612   4.994 -0.6604 -0.0335 -0.2364
50259SOL    HW156097   5.172   0.636   4.906  0.0829 -0.7143 -0.6970
50259SOL    HW256098   5.291   0.648   4.998 -0.8321  0.3311  0.3908
50260SOL     OW56099   4.266   7.898   3.501  0.6890 -0.2800  0.4675
50260SOL    HW156100   4.287   7.981   3.459  0.7589 -0.0032  1.0418
50260SOL    HW256101   4.320   7.833   3.455  1.6739  0.1948  0.9186
50261SOL     OW56102   5.913  10.975   8.422  0.2119  0.2897 -0.0469
50261SOL    HW156103   5.828  10.989   8.381 -0.5084 -1.7148  0.6362
50261SOL    HW256104   5.916  11.036   8.495 -0.6331  0.3951 -0.0967
50262SOL     OW56105   6.731   5.373   6.506 -0.3832 -0.5607  0.0398
50262SOL    HW156106   6.742   5.456   6.460  0.9061  0.9419  2.8447
50262SOL    HW256107   6.645   5.379   6.547 -0.4661 -0.7980 -0.0980
50263SOL     OW56108   4.624   9.846   7.625 -0.1379 -0.2472  0.1646
50263SOL    HW156109   4.707   9.825   7.668 -0.5214 -0.3483  0.8672
50263SOL    HW256110   4.615   9.941   7.637 -0.8290 -0.4418  1.4044
50264SOL     OW56111   3.269   3.897   5.433 -0.5447 -0.2165  0.3212
50264SOL    HW156112   3.296   3.862   5.518  0.4315 -0.6669 -0.1530
50264SOL    HW256113   3.344   3.881   5.376 -0.4789  1.7180 -0.1896
50265SOL     OW56114   3.938   5.448   6.641  0.2648 -0.1218  0.5631
50265SOL    HW156115   3.843   5.431   6.639  0.4206 -1.0402  0.3452
50265SOL    HW256116   3.946   5.535   6.679 -0.6377 -0.3460  1.3209
50266SOL     OW56117   7.717   4.542   7.781  0.3841 -0.3541  0.6507
50266SOL    HW156118   7.783   4.488   7.825 -0.3959 -1.4944  0.4560
50266SOL    HW256119   7.750   4.632   7.790  1.8278 -0.8697  0.7842
50267SOL     OW56120   6.695   5.612   3.227  0.3202 -0.5357 -0.3473
50267SOL    HW156121   6.762   5.565   3.179 -0.3939 -2.3408  0.3567
50267SOL    HW256122   6.613   5.590   3.183 -0.2109 -1.3378  0.9812
50268SOL     OW56123   9.718   6.311   2.438 -0.3500  0.6226 -0.0972
50268SOL    HW156124   9.671   6.394   2.431  1.1048  1.4949 -0.0003
50268SOL    HW256125   9.719   6.292   2.532  1.0845  1.6152  0.1303
50269SOL     OW56126   3.959   6.146   5.995  0.0424 -0.0079  0.2212
50269SOL    HW156127   3.909   6.166   6.074 -0.6764  1.1683 -0.4997
50269SOL    HW256128   4.018   6.221   5.986 -1.5029  1.0578 -1.6091
50270SOL     OW56129  10.493   0.224   4.728 -0.0783  0.0260 -0.2450
50270SOL    HW156130  10.584   0.221   4.758  0.5876 -0.0772 -2.1491
50270SOL    HW256131  10.442   0.225   4.809  1.5312 -1.6706  0.8804
50271SOL     OW56132   9.345  10.084  10.192  0.1236  0.4072  0.4249
50271SOL    HW156133   9.287  10.103  10.119  1.3973  0.5588 -0.5646
50271SOL    HW256134   9.313  10.001  10.227 -1.7660  1.3366  1.0251
50272SOL     OW56135   5.207   9.351   0.382 -0.0702  0.4307  0.0968
50272SOL    HW156136   5.161   9.345   0.465  0.1554  0.5033  0.2276
50272SOL    HW256137   5.160   9.419   0.333 -1.1452 -0.6691 -0.4437
50273SOL     OW56138   5.068  10.838   6.560 -0.2362  0.3689  0.0309
50273SOL    HW156139   5.117  10.919   6.545  1.7899 -0.3115  2.3438
50273SOL    HW256140   5.101  10.805   6.644 -2.2862 -1.9386  0.0412
50274SOL     OW56141   4.387   5.779   5.709  0.0631  0.0589 -0.0672
50274SOL    HW156142   4.466   5.755   5.660  0.2841  0.4478  0.0899
50274SOL    HW256143   4.420   5.815   5.792 -0.3304 -1.8939  0.9920
50275SOL     OW56144   7.957   5.568   5.562 -0.1692 -0.4312 -0.6207
50275SOL    HW156145   7.969   5.557   5.468 -0.6766 -1.6507 -0.5549
50275SOL    HW256146   8.010   5.499   5.601  0.6320  0.5277  0.0376
50276SOL     OW56147   8.809   1.237   0.389 -0.1852  0.2035  0.0442
50276SOL    HW156148   8.766   1.152   0.396 -1.0143  0.5998 -0.0184
50276SOL    HW256149   8.737   1.300   0.396  0.3685  0.8869 -0.3078
50277SOL     OW56150   1.115   8.164   4.488  0.1018  0.5236 -0.3803
50277SOL    HW156151   1.110   8.072   4.460  0.6469  0.6728 -0.9925
50277SOL    HW256152   1.183   8.202   4.433  1.3482  0.8110  1.2813
50278SOL     OW56153   0.506   6.838   3.129 -0.9404  0.1289  0.2945
50278SOL    HW156154   0.569   6.909   3.116 -1.4438  0.3597 -1.0729
50278SOL    HW256155   0.559   6.762   3.152 -0.2236  0.4836 -0.1642
50279SOL     OW56156   9.718   6.421   1.837  0.2480 -0.0030 -0.2066
50279SOL    HW156157   9.768   6.437   1.757  1.2652  1.6816  0.6917
50279SOL    HW256158   9.627   6.413   1.808  0.3034  2.5515 -1.4197
50280SOL     OW56159  11.009   1.619   6.836 -0.0854  0.5353 -0.2263
50280SOL    HW156160  10.927   1.664   6.854  0.3812  1.3212 -0.0136
50280SOL    HW256161  11.051   1.612   6.921  0.7730  1.5641 -0.5402
50281SOL     OW56162   4.271   5.410  10.455 -0.4410  0.3111 -0.1012
50281SOL    HW156163   4.217   5.446  10.525  1.9780 -0.8217  2.5729
50281SOL    HW256164   4.341   5.474  10.444  0.0453 -0.2495 -0.3316
50282SOL     OW56165   4.406  11.472  10.609 -0.2453 -0.0587  0.3975
50282SOL    HW156166   4.333  11.534  10.611  0.1739  0.4668  3.1217
50282SOL    HW256167   4.437  11.468  10.699  1.3489 -2.3851 -0.1530
50283SOL     OW56168   7.095   3.299  10.367  0.1684 -0.3065  0.2390
50283SOL    HW156169   7.027   3.279  10.304  0.8693  0.2070 -0.7040
50283SOL    HW256170   7.119   3.390  10.348  0.9333 -0.3988  0.7288
50284SOL     OW56171  10.073   4.775  11.582 -0.1582  0.3662 -0.6673
50284SOL    HW156172  10.131   4.851  11.588  1.9369 -1.2073  0.3981
50284SOL    HW256173   9.987   4.811  11.561  0.4768  3.1531  1.0483
50285SOL     OW56174   3.242   6.075   9.480 -0.1242  0.3313  0.0339
50285SOL    HW156175   3.155   6.037   9.466 -0.1106  0.4553 -0.4011
50285SOL    HW256176   3.279   6.084   9.393  0.7472 -0.6904  0.2776
50286SOL     OW56177   3.369  10.321  10.512 -0.4730 -0.4043 -0.0516
50286SOL    HW156178   3.437  10.388  10.514 -0.0801 -0.7806 -0.4844
50286SOL    HW256179   3.403  10.254  10.452 -1.1103 -0.7186 -0.0699
50287SOL     OW56180  11.415   2.266   5.579 -0.2047 -0.5174 -0.4782
50287SOL    HW156181  11.500   2.292   5.544 -0.4977 -0.2909 -1.0324
50287SOL    HW256182  11.352   2.296   5.514 -0.6370 -1.5712 -0.5724
50288SOL     OW56183   7.637  11.030   6.381  0.3038  0.5698 -0.1757
50288SOL    HW156184   7.637  11.077   6.297 -0.5812  0.6339 -0.1404
50288SOL    HW256185   7.564  10.969   6.375  1.4498 -0.8469 -0.2247
50289SOL     OW56186   1.051   6.170   2.180  0.2037 -0.0013  0.3215
50289SOL    HW156187   1.061   6.204   2.269 -1.3477  0.4012  0.3788
50289SOL    HW256188   1.035   6.248   2.126  1.0135 -0.2513 -0.3063
50290SOL     OW56189   4.599   6.570   0.124 -0.3967 -0.4397  0.0482
50290SOL    HW156190   4.622   6.562   0.031 -0.8624 -2.7255  0.0603
50290SOL    HW256191   4.537   6.643   0.127  0.9545  0.8226 -1.1331
50291SOL     OW56192   6.748   1.505   8.744  0.5715 -0.2611  0.0985
50291SOL    HW156193   6.757   1.572   8.811  2.1405  0.4697 -0.7855
50291SOL    HW256194   6.723   1.426   8.792  4.0233 -0.4154  1.9588
50292SOL     OW56195   8.861   4.522   5.700 -0.2404  0.0345  0.2174
50292SOL    HW156196   8.811   4.465   5.641  0.8784 -0.2748 -0.4516
50292SOL    HW256197   8.805   4.599   5.711 -0.6094 -0.0271 -1.0132
50293SOL     OW56198   4.416   1.816   2.916  0.3145  0.6733 -0.0256
50293SOL    HW156199   4.473   1.876   2.964 -0.8263  0.7155  1.3484
50293SOL    HW256200   4.469   1.737   2.904  1.4021  1.4905 -0.7489
50294SOL     OW56201   5.925   6.299   3.795  0.7751  0.1676 -0.1913
50294SOL    HW156202   5.995   6.354   3.762  0.5279  1.5359  1.4507
50294SOL    HW256203   5.949   6.280   3.885  0.1746 -1.3097 -0.3065
50295SOL     OW56204   8.025   0.521   5.296 -0.2029 -0.1838  0.3550
50295SOL    HW156205   8.102   0.548   5.245 -0.6610  1.3611  0.4249
50295SOL    HW256206   7.972   0.601   5.303 -1.7337 -1.1797  0.4621
50296SOL     OW56207   8.252   9.097   3.504  0.1258 -0.0999  0.1645
50296SOL    HW156208   8.277   9.158   3.434 -1.8013 -0.5379 -0.9744
50296SOL    HW256209   8.302   9.017   3.485  1.0556  0.3891  0.4445
50297SOL     OW56210   1.296   9.736   8.272  0.2276 -0.4005 -0.0818
50297SOL    HW156211   1.223   9.775   8.225 -0.2479  1.1134  1.8076
50297SOL    HW256212   1.357   9.709   8.204 -1.6155 -0.7766 -1.6563
50298SOL     OW56213   8.375   3.251   5.350 -0.0530 -0.6661 -0.0359
50298SOL    HW156214   8.368   3.257   5.254 -2.0445  0.3094  0.1340
50298SOL    HW256215   8.453   3.302   5.371  0.1632 -0.5297 -1.0932
50299SOL     OW56216   9.536   1.950   1.815 -0.3435  0.6093  0.2432
50299SOL    HW156217   9.582   2.014   1.760  1.2024  0.3666  1.1708
50299SOL    HW256218   9.449   1.943   1.776 -0.5193  3.1192 -0.0141
50300SOL     OW56219   5.181   2.940   9.112  0.1350  0.5666  0.0751
50300SOL    HW156220   5.122   2.919   9.039 -1.8003  1.0445  1.4281
50300SOL    HW256221   5.138   3.012   9.158  1.6852  0.7822  1.2698
50301SOL     OW56222   0.954   9.794   3.767  0.0258 -0.1898  0.0489
50301SOL    HW156223   0.990   9.857   3.705 -0.3280  1.1730  1.1776
50301SOL    HW256224   1.005   9.808   3.847 -0.5077 -0.8823  0.5145
50302SOL     OW56225  10.687   0.570   9.007 -0.1485 -0.0980 -0.4660
50302SOL    HW156226  10.739   0.489   9.005 -0.2711 -0.1679 -0.9810
50302SOL    HW256227  10.641   0.567   9.091 -1.9087 -1.7008 -1.3947
50303SOL     OW56228   0.952   7.153   4.936  0.1784  0.6286  0.5364
50303SOL    HW156229   1.045   7.128   4.937  0.2846  0.9575 -0.3057
50303SOL    HW256230   0.915   7.106   4.861 -0.8559 -1.2118  2.1038
50304SOL     OW56231   8.999   7.465   1.704 -0.1561  0.2922 -0.3665
50304SOL    HW156232   8.934   7.445   1.771  1.9040  0.5052  1.8161
50304SOL    HW256233   8.996   7.390   1.644  1.9125 -3.0432  3.2358
50305SOL     OW56234   3.531   7.446   6.576 -0.4156 -0.3214  0.0225
50305SOL    HW156235   3.592   7.500   6.626  0.0494 -2.0942  1.4798
50305SOL    HW256236   3.539   7.478   6.486  0.2917  1.5792  0.7097
50306SOL     OW56237  11.511   5.577   3.754  0.8223 -0.5422  0.0553
50306SOL    HW156238  11.555   5.502   3.714  0.4582 -0.2061 -1.0370
50306SOL    HW256239  11.574   5.649   3.747  0.3693 -0.2115 -0.9588
50307SOL     OW56240   0.367   4.271   9.198  0.0442  0.1809  0.2614
50307SOL    HW156241   0.327   4.338   9.144 -0.8549 -1.5009 -1.2833
50307SOL    HW256242   0.345   4.295   9.288 -2.5282  0.5423 -0.4124
50308SOL     OW56243  10.492   4.026  10.553  0.5207 -0.2248  0.2917
50308SOL    HW156244  10.460   4.008  10.642  1.3942 -0.1425  0.6403
50308SOL    HW256245  10.431   4.091  10.519  1.9625  2.2364  2.0556
50309SOL     OW56246   5.259   0.020   0.348  0.3221 -0.0402 -0.2911
50309SOL    HW156247   5.311  -0.025   0.282  1.2600  1.0368 -0.3266
50309SOL    HW256248   5.289   0.111   0.345 -1.8981  0.7480 -0.6121
50310SOL     OW56249   5.400   7.335   3.922  0.5901 -0.1872  0.2509
50310SOL    HW156250   5.410   7.250   3.965  1.0557 -0.2617 -0.0057
50310SOL    HW256251   5.448   7.396   3.977  1.8147 -0.4083 -0.5482
50311SOL     OW56252   4.538  11.315   7.934  0.1833  0.2037  0.3726
50311SOL    HW156253   4.612  11.266   7.898 -0.1417 -0.2756  0.3425
50311SOL    HW256254   4.461  11.262   7.910 -0.1365  0.5186  0.6993
50312SOL     OW56255  10.189   4.203   6.994 -0.1492  0.1960 -0.4790
50312SOL    HW156256  10.147   4.256   7.062 -0.1064 -1.0527  0.5444
50312SOL    HW256257  10.227   4.129   7.040  0.4058 -0.3772 -1.7957
50313SOL     OW56258   9.532   5.005   9.886  0.4711  0.3959  0.2496
50313SOL    HW156259   9.576   4.930   9.926  1.4385  2.0863  2.6033
50313SOL    HW256260   9.596   5.039   9.823  1.2217  0.8535  1.2212
50314SOL     OW56261   2.450   5.032   4.926  0.1905 -0.1344 -0.2501
50314SOL    HW156262   2.400   5.043   4.845  0.5295 -1.7484 -0.7077
50314SOL    HW256263   2.533   5.075   4.909  0.2751 -0.4994 -0.7929
50315SOL     OW56264   9.363   1.785  11.718 -0.1364 -0.6012  0.4034
50315SOL    HW156265   9.312   1.714  11.679 -2.3828  0.7573  0.6971
50315SOL    HW256266   9.414   1.821  11.645 -1.1894 -0.6832 -0.3838
50316SOL     OW56267   5.988   5.539   8.285 -0.2989  0.5443  0.7432
50316SOL    HW156268   5.927   5.467   8.298 -0.7981  0.3090 -2.2735
50316SOL    HW256269   5.939   5.605   8.236  1.6958  0.4196 -1.6400
50317SOL     OW56270   7.095   3.148   8.156 -0.5070  0.5789 -0.4343
50317SOL    HW156271   7.185   3.180   8.148 -0.5451  0.6804 -0.4703
50317SOL    HW256272   7.104   3.054   8.170 -0.3192  0.8855  1.8570
50318SOL     OW56273   8.594   7.454   0.542  0.5636 -0.0646  0.1948
50318SOL    HW156274   8.635   7.372   0.515 -1.2719 -1.3842  1.1837
50318SOL    HW256275   8.500   7.439   0.531  0.1774  1.9545  0.2997
50319SOL     OW56276   7.597   7.381   1.084 -0.7212  0.4109 -0.1424
50319SOL    HW156277   7.530   7.313   1.078  0.3315 -0.5400 -1.5664
50319SOL    HW256278   7.653   7.353   1.157 -0.2525 -0.2970 -0.7665
50320SOL     OW56279  11.425   7.931   6.963  0.4359  0.4680  0.1381
50320SOL    HW156280  11.492   7.988   7.000 -0.6926  2.2758 -0.5079
50320SOL    HW256281  11.394   7.878   7.037  0.9965  1.2000  0.9039
50321SOL     OW56282   9.599   0.314   7.669 -0.2638  1.0135 -0.2439
50321SOL    HW156283   9.630   0.376   7.735 -1.3277 -1.2867  2.7186
50321SOL    HW256284   9.678   0.279   7.629  0.4364  2.4622 -0.1877
50322SOL     OW56285   9.611   9.845   7.999 -0.2194 -0.2683 -0.3258
50322SOL    HW156286   9.634   9.848   8.092 -0.3817 -1.1875 -0.2484
50322SOL    HW256287   9.531   9.896   7.993 -0.4002 -0.4931  0.1052
50323SOL     OW56288   8.944   0.917   7.813 -0.1511  0.0372 -0.1255
50323SOL    HW156289   8.889   0.839   7.822 -0.2965  0.0636 -0.7412
50323SOL    HW256290   8.926   0.949   7.725  0.9861 -0.0521 -0.3988
50324SOL     OW56291   7.639   5.736   6.966  0.0142 -0.4190 -0.1385
50324SOL    HW156292   7.660   5.650   7.000 -0.1213 -0.5333 -0.3416
50324SOL    HW256293   7.654   5.730   6.872  1.3568  0.1836  0.0103
50325SOL     OW56294   7.134   3.373   5.074 -0.8972 -0.1736  0.0588
50325SOL    HW156295   7.052   3.327   5.054  1.0801 -2.9879 -2.4645
50325SOL    HW256296   7.147   3.432   5.001  0.6880 -1.9620 -1.1953
50326SOL     OW56297   3.500   2.242   2.966 -0.4322  0.0347 -0.0227
50326SOL    HW156298   3.552   2.318   2.941 -0.9620  0.6087  0.5588
50326SOL    HW256299   3.506   2.240   3.062 -1.5320  0.1612  0.0598
50327SOL     OW56300   5.844   6.148   9.633  0.7218 -0.7273  0.1675
50327SOL    HW156301   5.819   6.227   9.681  1.8075 -0.4942  0.3836
50327SOL    HW256302   5.763   6.117   9.593  0.2178  0.3056  0.3644
50328SOL     OW56303   0.935   0.356   6.210  0.2695  0.0499 -0.1281
50328SOL    HW156304   1.021   0.332   6.243  0.7454  1.7648  0.0051
50328SOL    HW256305   0.874   0.331   6.280  0.8041 -0.0526  0.3028
50329SOL     OW56306   4.532  10.786   0.403  0.0396 -0.3025  0.6709
50329SOL    HW156307   4.447  10.813   0.437  0.4322  1.4640  0.3596
50329SOL    HW256308   4.512  10.738   0.323 -0.6364  1.1459 -0.0568
50330SOL     OW56309   5.403   1.305   3.729  0.0953  0.0574  0.5295
50330SOL    HW156310   5.421   1.224   3.681 -1.4915 -0.9804  1.5649
50330SOL    HW256311   5.424   1.375   3.668  0.6981 -1.1668 -0.7015
50331SOL     OW56312   7.127   7.383   9.346 -0.3860  0.3097  0.4227
50331SOL    HW156313   7.091   7.304   9.305 -0.4135  0.2942  0.4785
50331SOL    HW256314   7.060   7.450   9.331 -0.9252  0.0230  1.4627
50332SOL     OW56315   6.023   2.492   9.932  0.1921 -0.7487 -0.2520
50332SOL    HW156316   5.946   2.479   9.987  0.1358  0.2950 -0.0717
50332SOL    HW256317   5.987   2.506   9.844  0.3158 -3.8668 -0.9388
50333SOL     OW56318   5.555   4.720   7.273  0.0863  0.2779  0.2238
50333SOL    HW156319   5.621   4.655   7.294 -0.2323  0.1369  0.8260
50333SOL    HW256320   5.594   4.803   7.299  0.5341  0.3500 -0.6427
50334SOL     OW56321   6.336  10.002   3.889  0.2874 -0.0078  0.3087
50334SOL    HW156322   6.289   9.996   3.972 -1.6160 -0.7734 -0.7497
50334SOL    HW256323   6.285   9.948   3.829  0.7357  1.7133 -1.7450
50335SOL     OW56324   7.527   2.404   2.159  0.3070 -0.2617  0.0177
50335SOL    HW156325   7.491   2.318   2.137  2.0321 -1.1202  0.4214
50335SOL    HW256326   7.563   2.436   2.077  0.1383 -0.1578 -0.0161
50336SOL     OW56327   9.581   2.410   1.407  0.2530 -0.0586 -0.1210
50336SOL    HW156328   9.657   2.428   1.463 -0.0843 -0.6976  0.5511
50336SOL    HW256329   9.573   2.489   1.352  0.1516  0.8996  1.2114
50337SOL     OW56330   4.406   8.367  11.401  0.3049  0.0903 -0.3959
50337SOL    HW156331   4.429   8.279  11.431  2.4939  0.2044 -1.4910
50337SOL    HW256332   4.386   8.415  11.481  0.6707 -0.9989  0.3730
50338SOL     OW56333  11.690   4.718   2.566 -0.4512 -0.0890 -0.5211
50338SOL    HW156334  11.750   4.653   2.602  0.7401  1.2250 -0.0085
50338SOL    HW256335  11.611   4.669   2.545  1.0211 -2.0165 -1.8830
50339SOL     OW56336   0.463  10.095  10.828  0.1750  0.1236 -0.4944
50339SOL    HW156337   0.506  10.031  10.885 -0.3311 -0.8266 -1.1316
50339SOL    HW256338   0.530  10.161  10.811  0.8536 -0.4574 -0.1418
50340SOL     OW56339   8.059   4.787   4.910  0.0145  0.5469  0.2535
50340SOL    HW156340   8.138   4.778   4.857 -0.0009  1.6574  0.0255
50340SOL    HW256341   8.091   4.802   4.999  0.1612  3.6935 -0.2401
50341SOL     OW56342   7.990   7.901   5.078 -0.2626  0.1717  0.2535
50341SOL    HW156343   8.060   7.922   5.016  1.2224 -2.7569  0.7649
50341SOL    HW256344   7.910   7.904   5.025  0.0892  3.6762 -0.3196
50342SOL     OW56345  11.591  10.367   7.914 -0.2508  0.2551  0.1595
50342SOL    HW156346  11.566  10.368   8.007  1.2451  0.0477  0.5792
50342SOL    HW256347  11.623  10.278   7.899  1.9738  1.0079  0.1503
50343SOL     OW56348   2.593   2.985   4.077  0.4455  0.3718 -0.5004
50343SOL    HW156349   2.621   3.004   4.166  0.8420  0.8175 -0.7190
50343SOL    HW256350   2.559   2.896   4.081  1.4074  0.0138 -0.1211
50344SOL     OW56351   9.344   3.490  11.435  0.0201 -0.0145  0.1368
50344SOL    HW156352   9.311   3.567  11.390 -1.8103  0.9255  2.8496
50344SOL    HW256353   9.276   3.424  11.423  0.7348 -0.6527 -0.6002
50345SOL     OW56354   3.183   1.696   9.367  0.6516  0.4537  0.0045
50345SOL    HW156355   3.103   1.698   9.420  1.4991  1.2773  1.3340
50345SOL    HW256356   3.167   1.758   9.296  0.4917  1.4826  0.9047
50346SOL     OW56357   9.069   9.809   5.706 -0.5203 -0.3908 -0.1050
50346SOL    HW156358   9.155   9.815   5.747 -1.3902 -2.2393  2.2216
50346SOL    HW256359   9.047   9.899   5.684  2.4236  0.0322 -1.8495
50347SOL     OW56360  11.425   0.057   7.655 -0.2099 -0.1379 -0.0189
50347SOL    HW156361  11.419   0.147   7.689  2.1807 -0.2906  0.9769
50347SOL    HW256362  11.453   0.068   7.564 -0.8229  0.1452 -0.1754
50348SOL     OW56363   3.103   8.415   1.847  0.2686  0.2991 -0.1647
50348SOL    HW156364   3.188   8.453   1.826 -0.3866  0.6291 -2.5324
50348SOL    HW256365   3.083   8.448   1.935  2.6369  0.0450  0.5182
50349SOL     OW56366  11.151   0.169   0.127  0.0721 -0.3422  0.3342
50349SOL    HW156367  11.218   0.137   0.188  1.0602 -0.6291 -0.8434
50349SOL    HW256368  11.179   0.136   0.042  0.3890  2.4490 -0.7687
50350SOL     OW56369   5.034   1.896   4.127 -0.9009  0.1631 -0.8073
50350SOL    HW156370   5.122   1.922   4.154 -1.0891  0.1002 -0.1099
50350SOL    HW256371   5.012   1.958   4.057 -1.0781  1.4877  0.3622
50351SOL     OW56372   9.176   1.318   3.238  0.1936 -0.2345  0.5487
50351SOL    HW156373   9.084   1.341   3.251 -0.0591 -0.3385 -0.8717
50351SOL    HW256374   9.209   1.383   3.176  0.7352 -0.8890  0.1237
50352SOL     OW56375   3.988   9.227  11.578  0.2083 -0.2678 -0.2925
50352SOL    HW156376   3.918   9.288  11.557 -1.6562 -1.2233  2.5917
50352SOL    HW256377   3.978   9.156  11.514 -2.4971 -1.0754  0.8777
50353SOL     OW56378   5.266   9.791   2.607 -0.2031 -0.2992  1.3493
50353SOL    HW156379   5.201   9.860   2.618  0.3194  0.2965  0.8310
50353SOL    HW256380   5.296   9.801   2.516  0.8818 -0.3135  1.6916
50354SOL     OW56381   9.351   2.783   2.362  0.3873  0.2495 -0.2746
50354SOL    HW156382   9.440   2.750   2.369  0.1875 -0.6577 -1.5529
50354SOL    HW256383   9.317   2.742   2.283 -1.0159  0.9394 -0.0590
50355SOL     OW56384   8.981   9.626   4.063 -0.1288 -0.0447 -0.0028
50355SOL    HW156385   8.896   9.669   4.074  0.3258  1.2471 -1.2083
50355SOL    HW256386   9.029   9.683   4.002  3.2105  1.6630  3.7585
50356SOL     OW56387   9.660   5.950   2.168 -0.1933  0.4745  0.1336
50356SOL    HW156388   9.619   5.909   2.244  1.4681  0.2804  0.9723
50356SOL    HW256389   9.673   5.878   2.106  0.5304  0.1730  0.6208
50357SOL     OW56390  10.008  10.093   0.024  0.3725 -0.0468  0.2339
50357SOL    HW156391  10.028   9.999   0.019 -1.4381 -0.4470 -0.0296
50357SOL    HW256392   9.939  10.106  -0.040  0.8260  1.5530  0.0430
50358SOL     OW56393   2.824   4.178   3.211  0.0636 -0.1808 -0.1377
50358SOL    HW156394   2.764   4.148   3.280  1.3406 -2.0185  0.2557
50358SOL    HW256395   2.773   4.171   3.130 -0.5969 -0.6441  0.3039
50359SOL     OW56396   3.422   5.310   2.496 -0.3802  0.0911  0.1850
50359SOL    HW156397   3.343   5.274   2.456  0.0740  2.4918 -3.3172
50359SOL    HW256398   3.411   5.405   2.491  1.8071  0.5116  1.6857
50360SOL     OW56399   7.197   9.869   7.884 -0.2192  0.0684 -0.1332
50360SOL    HW156400   7.150   9.850   7.803 -2.2506  0.0622  0.9862
50360SOL    HW256401   7.171   9.958   7.907  0.4030  0.0990  0.4984
50361SOL     OW56402   6.102   0.566   5.945 -0.5601 -0.4029 -0.0988
50361SOL    HW156403   6.037   0.501   5.919  0.1018 -0.7207 -1.0076
50361SOL    HW256404   6.172   0.558   5.880  0.4676 -0.1770  0.9412
50362SOL     OW56405  11.673   7.137   8.878  0.3391 -0.0164  0.1008
50362SOL    HW156406  11.620   7.094   8.811  0.1709  1.1205 -0.5163
50362SOL    HW256407  11.745   7.179   8.829  1.4783 -1.0074  0.8600
50363SOL     OW56408   4.598   5.159   3.374  0.5138 -0.3801  0.1334
50363SOL    HW156409   4.600   5.190   3.465 -0.6614 -0.8443  0.3230
50363SOL    HW256410   4.520   5.200   3.337  1.1252  0.0022 -0.7449
50364SOL     OW56411  11.737   1.488   1.010 -0.0615 -0.2483  0.2403
50364SOL    HW156412  11.780   1.508   0.926 -0.2574 -0.3716  0.1101
50364SOL    HW256413  11.736   1.393   1.014  2.3250 -0.2947  1.5975
50365SOL     OW56414   4.108   7.440   1.397  0.9508 -0.4371  0.6667
50365SOL    HW156415   4.093   7.532   1.419 -1.8018 -0.4761 -0.6598
50365SOL    HW256416   4.089   7.434   1.303  2.4551 -2.1263  0.4165
50366SOL     OW56417  11.757   7.274   9.490  0.3034 -0.5054  0.0063
50366SOL    HW156418  11.817   7.200   9.502 -0.3971 -1.5797 -2.5917
50366SOL    HW256419  11.805   7.335   9.434  0.1146  0.0983  0.4893
50367SOL     OW56420   0.399   4.074   6.624 -0.2776  0.3888 -0.0056
50367SOL    HW156421   0.439   3.987   6.623 -0.3599  0.3144  1.4504
50367SOL    HW256422   0.469   4.132   6.595  0.0159 -0.0590 -0.2182
50368SOL     OW56423   6.704  11.823  10.179  0.0412  0.4257  0.4145
50368SOL    HW156424   6.718  11.764  10.106 -0.5413 -0.7537  1.2077
50368SOL    HW256425   6.789  11.829  10.223  0.1339  0.2677  0.2550
50369SOL     OW56426   9.214   7.149   1.629  0.4294  0.0914 -0.5005
50369SOL    HW156427   9.129   7.132   1.590 -0.3751  2.0346  0.2623
50369SOL    HW256428   9.271   7.171   1.556  0.2315 -1.0089 -0.9953
50370SOL     OW56429   0.474   2.794   6.546  0.7784 -0.0693 -0.1033
50370SOL    HW156430   0.386   2.757   6.552  0.1166  1.4014 -0.2992
50370SOL    HW256431   0.505   2.798   6.636  0.4879 -0.2152  0.0048
50371SOL     OW56432   4.798   9.624   7.193 -0.6460  0.6989 -0.2421
50371SOL    HW156433   4.810   9.719   7.197 -0.8257  0.6964  0.4896
50371SOL    HW256434   4.780   9.606   7.101 -1.5406  1.4898 -0.2296
50372SOL     OW56435   9.057   3.474   5.331 -0.1794 -0.3050 -0.0641
50372SOL    HW156436   9.047   3.521   5.248 -1.6074  0.9736  0.7553
50372SOL    HW256437   8.973   3.488   5.376  0.4459 -1.1962  1.4638
50373SOL     OW56438   1.851   9.584   9.102 -0.2982 -0.2667 -0.2809
50373SOL    HW156439   1.921   9.548   9.156 -0.2950  2.1081  1.4384
50373SOL    HW256440   1.894   9.606   9.019  0.4971 -0.7601 -0.0159
50374SOL     OW56441   4.882   8.933  10.282 -0.0366  0.2826  0.1718
50374SOL    HW156442   4.861   8.891  10.365  0.2690  0.0626  0.1387
50374SOL    HW256443   4.873   8.864  10.217  1.6640 -0.0570  0.2593
50375SOL     OW56444   4.094   1.335   1.441 -0.0092 -0.3120  0.6087
50375SOL    HW156445   4.075   1.428   1.456 -0.8696  0.1197 -2.4388
50375SOL    HW256446   4.188   1.332   1.422  0.4171 -0.4086  2.5483
50376SOL     OW56447  10.276   5.155   7.938  0.1916 -0.2666  0.2061
50376SOL    HW156448  10.206   5.138   8.002 -0.1809  0.1556 -0.0849
50376SOL    HW256449  10.237   5.132   7.853  0.5402 -0.4071  0.0819
50377SOL     OW56450   0.000   4.211   8.546  0.0667  0.0156  0.3381
50377SOL    HW156451  -0.024   4.122   8.570 -0.1325  0.2882  1.1851
50377SOL    HW256452  -0.056   4.232   8.471 -0.8186 -0.1130  0.9550
50378SOL     OW56453  10.635   8.826   2.522 -0.3860  0.2521  0.3283
50378SOL    HW156454  10.640   8.791   2.433 -0.7607 -0.6113  0.6313
50378SOL    HW256455  10.721   8.809   2.559 -0.4716 -0.0846  0.3756
50379SOL     OW56456   4.079   9.967   5.677 -0.4308  0.8523  0.3632
50379SOL    HW156457   4.060   9.981   5.770  0.0439  0.9528  0.4449
50379SOL    HW256458   4.171   9.943   5.674 -0.9168 -1.2513  0.1287
50380SOL     OW56459   7.880   3.893   0.327 -0.5559  0.5781 -0.3963
50380SOL    HW156460   7.970   3.914   0.353 -0.0416  0.1263 -1.7198
50380SOL    HW256461   7.855   3.963   0.267 -0.9798  0.5474 -0.2561
50381SOL     OW56462   6.465   2.930   4.021 -0.0439  0.5923 -0.8621
50381SOL    HW156463   6.554   2.955   3.997  0.2096  0.0714 -0.4718
50381SOL    HW256464   6.473   2.842   4.056 -0.6539  0.7052 -0.4150
50382SOL     OW56465   1.247   2.012   1.455 -0.2595 -0.3976 -0.1294
50382SOL    HW156466   1.193   1.946   1.412 -1.8525 -0.9795  2.5360
50382SOL    HW256467   1.184   2.070   1.498  1.1742  1.5858 -0.5798
50383SOL     OW56468   4.650   1.323   2.962 -0.4533  0.2547 -0.1879
50383SOL    HW156469   4.683   1.275   3.038  0.9793  0.5055 -0.6147
50383SOL    HW256470   4.643   1.257   2.893 -0.6952  0.2331 -0.1431
50384SOL     OW56471   7.252  11.055  11.113  0.0636  0.1938 -0.2721
50384SOL    HW156472   7.213  11.079  11.197  0.9907 -0.0632  0.2386
50384SOL    HW256473   7.241  11.133  11.059 -2.1995 -0.2406 -0.5418
50385SOL     OW56474  11.415   7.888   8.731 -0.6018 -0.5405  0.2910
50385SOL    HW156475  11.499   7.865   8.691 -1.0444  1.3167 -2.0098
50385SOL    HW256476  11.354   7.823   8.696 -0.6672  0.0550 -0.7630
50386SOL     OW56477   8.062   8.377   6.685  0.9730  0.2638  0.1175
50386SOL    HW156478   8.062   8.312   6.755  0.1219 -1.8976 -1.7528
50386SOL    HW256479   8.049   8.326   6.605  2.2721  2.5615 -1.6826
50387SOL     OW56480   1.663   5.616  11.264  0.0315 -0.8111  0.1992
50387SOL    HW156481   1.572   5.641  11.282  1.0726  2.6536  1.3782
50387SOL    HW256482   1.694   5.682  11.202  2.0115 -1.2843  0.6240
50388SOL     OW56483   8.575  11.767   5.172 -0.4470 -0.2266  0.2232
50388SOL    HW156484   8.622  11.698   5.125  1.6383  0.1310  1.6263
50388SOL    HW256485   8.509  11.720   5.223  0.3457 -1.1300  0.4630
50389SOL     OW56486   8.252  11.803   2.633  0.4588 -0.2289 -0.0407
50389SOL    HW156487   8.341  11.831   2.655 -0.4403  0.5780  2.9708
50389SOL    HW256488   8.245  11.714   2.667  0.1473 -0.3599 -0.4380
50390SOL     OW56489   1.294   1.533   5.968  0.2247  0.0082 -0.2578
50390SOL    HW156490   1.248   1.452   5.947 -0.0131  0.3739 -1.2015
50390SOL    HW256491   1.371   1.505   6.018 -0.3211 -0.7141  0.1936
50391SOL     OW56492   8.509   5.302   9.197  0.6720  0.6140  0.4937
50391SOL    HW156493   8.514   5.207   9.191  0.3414  0.5239  1.3974
50391SOL    HW256494   8.549   5.334   9.116 -0.7298 -0.3164 -0.6212
50392SOL     OW56495  11.220   7.338   7.366  0.0654 -0.2835 -0.4450
50392SOL    HW156496  11.280   7.360   7.294  0.7938  0.2195  0.2950
50392SOL    HW256497  11.133   7.360   7.332  0.6665  5.6447  0.6937
50393SOL     OW56498   0.402  11.491   7.393 -0.1882 -0.6332  0.4273
50393SOL    HW156499   0.428  11.427   7.460  0.1454 -1.9464 -0.9035
50393SOL    HW256500   0.484  11.515   7.350 -0.1890  1.3538  1.4059
50394SOL     OW56501   2.841   8.571  11.273 -0.5596 -0.1870  0.1050
50394SOL    HW156502   2.871   8.591  11.185 -0.2506  0.3683  0.3341
50394SOL    HW256503   2.912   8.520  11.312 -0.2189  0.5049  0.4005
50395SOL     OW56504   1.877   3.883   7.021 -0.1981  0.0270  0.2164
50395SOL    HW156505   1.839   3.818   6.962  0.7442  0.0327 -0.4147
50395SOL    HW256506   1.948   3.923   6.971 -0.0059  0.7209  1.0140
50396SOL     OW56507   0.558   6.728  10.265  0.5396 -0.0585 -0.0360
50396SOL    HW156508   0.600   6.810  10.240  4.0271 -1.9099 -0.8390
50396SOL    HW256509   0.510   6.701  10.187  0.5809  0.4708 -0.2502
50397SOL     OW56510   2.281   1.475   0.552 -0.2969 -0.3910  0.1908
50397SOL    HW156511   2.223   1.443   0.622 -1.8181 -1.1867 -1.3652
50397SOL    HW256512   2.223   1.524   0.494  1.2671  1.7672  0.3412
50398SOL     OW56513   8.144   3.104   1.998  0.0933  0.2322  0.1522
50398SOL    HW156514   8.096   3.022   1.983  1.8802 -0.9317  0.4904
50398SOL    HW256515   8.137   3.151   1.915  0.3908 -1.0075 -0.6018
50399SOL     OW56516   4.910   4.287   8.801 -0.1981 -0.0924  0.3585
50399SOL    HW156517   4.836   4.342   8.829  0.2662  1.2862 -0.9731
50399SOL    HW256518   4.919   4.304   8.707  1.8365 -0.1510  0.4833
50400SOL     OW56519   2.598   3.527   2.465  0.1968 -0.1480 -0.2417
50400SOL    HW156520   2.633   3.591   2.404  2.4433 -0.8853  0.1675
50400SOL    HW256521   2.604   3.570   2.551 -1.3180  0.2343 -0.2905
50401SOL     OW56522   4.420   5.045   3.951  0.1126  0.1016 -0.1744
50401SOL    HW156523   4.354   4.977   3.961  1.0358 -0.4624  3.4712
50401SOL    HW256524   4.502   4.998   3.937  0.3997  0.5824 -0.1445
50402SOL     OW56525   8.420   3.970   2.325  0.7961  0.7221  0.1759
50402SOL    HW156526   8.478   3.903   2.288  2.1195  2.3110 -0.7526
50402SOL    HW256527   8.340   3.962   2.274  0.5740 -0.7419  0.6997
50403SOL     OW56528   9.987   3.482   1.012 -0.3911  0.1575  0.5397
50403SOL    HW156529   9.987   3.556   0.950  0.2718  0.5308  0.9697
50403SOL    HW256530  10.002   3.405   0.957 -1.2978  0.3154  0.0611
50404SOL     OW56531   9.229   6.775  11.172  0.1964 -0.3070 -0.1305
50404SOL    HW156532   9.216   6.761  11.078 -0.5055 -1.8732  0.1700
50404SOL    HW256533   9.323   6.763  11.185  0.7984  2.6974 -1.0208
50405SOL     OW56534   7.310   9.905   2.796 -0.0483  0.4798  0.0590
50405SOL    HW156535   7.393   9.936   2.832 -0.4041  0.7849  0.6293
50405SOL    HW256536   7.259   9.879   2.872 -0.7662  1.0165 -0.2275
50406SOL     OW56537   3.100   3.743   4.595  0.1265  0.4321 -0.1463
50406SOL    HW156538   3.138   3.819   4.638  1.4494  0.0438 -0.5471
50406SOL    HW256539   3.045   3.779   4.526  2.4923  1.1103 -1.8211
50407SOL     OW56540  11.463   4.436   0.881  0.0155  0.1098 -0.0738
50407SOL    HW156541  11.374   4.427   0.849  0.4851 -0.5586 -1.2546
50407SOL    HW256542  11.467   4.378   0.957 -0.6756  0.4968  0.2648
50408SOL     OW56543  10.016   8.535   7.156 -0.1634  0.2683  0.4038
50408SOL    HW156544  10.058   8.571   7.078 -1.5156  0.1578 -0.3919
50408SOL    HW256545   9.989   8.447   7.131 -0.0246 -0.0216  1.2165
50409SOL     OW56546   6.512   2.173   7.430 -0.4309 -0.1416 -0.6496
50409SOL    HW156547   6.486   2.263   7.450  2.3259  0.6004 -0.0136
50409SOL    HW256548   6.597   2.162   7.472 -1.7825 -3.9783  1.5528
50410SOL     OW56549   7.841   2.934   6.242 -1.1338  0.2333  0.1234
50410SOL    HW156550   7.856   3.017   6.287  0.6071  0.9489 -1.6030
50410SOL    HW256551   7.845   2.867   6.311  1.5702  1.2383  1.0581
50411SOL     OW56552   8.534   5.861   3.630  0.0137 -0.4643  0.0237
50411SOL    HW156553   8.463   5.837   3.690 -0.0124  1.7737  0.9901
50411SOL    HW256554   8.493   5.863   3.543 -0.7689 -0.5747  0.3845
50412SOL     OW56555   2.508   5.205  10.146 -0.6592  0.3134  0.1112
50412SOL    HW156556   2.504   5.186  10.240  2.0983 -2.1426 -0.1284
50412SOL    HW256557   2.473   5.127  10.104  2.4966 -0.6995 -0.8696
50413SOL     OW56558  11.644   2.597   9.097  0.5188 -0.4759  0.0104
50413SOL    HW156559  11.650   2.502   9.106  2.1533 -0.5493 -1.3722
50413SOL    HW256560  11.719   2.631   9.145  1.2840 -0.0598 -1.4260
50414SOL     OW56561   2.577   2.711   9.028  0.0642 -0.3714 -0.1829
50414SOL    HW156562   2.665   2.682   9.053  0.4297 -0.7566 -1.8470
50414SOL    HW256563   2.558   2.665   8.947 -1.6361 -0.1772  0.0628
50415SOL     OW56564   8.821  10.805   5.330 -0.1064  0.6637  0.3987
50415SOL    HW156565   8.873  10.815   5.410  0.5432  0.0148  0.0768
50415SOL    HW256566   8.856  10.725   5.290 -1.2924  0.2768  0.1160
50416SOL     OW56567   1.125   5.606   9.382  0.1837 -0.0433  0.3554
50416SOL    HW156568   1.085   5.520   9.368  0.2682 -0.0901  0.3972
50416SOL    HW256569   1.103   5.655   9.303 -0.7613  0.2482  0.7865
50417SOL     OW56570   8.025   5.356   7.827 -0.1618 -0.7329 -0.5816
50417SOL    HW156571   7.996   5.369   7.917 -1.0800  0.9285 -1.0772
50417SOL    HW256572   8.111   5.314   7.835  0.0354 -0.0825  1.0809
50418SOL     OW56573   6.556   6.860  10.651 -0.2019  0.4523  0.4835
50418SOL    HW156574   6.584   6.821  10.568  0.9490 -0.2352  1.1714
50418SOL    HW256575   6.550   6.954  10.633 -1.9871  0.1304 -0.9157
50419SOL     OW56576   6.019   8.180   8.529 -0.2408 -0.4394  0.4560
50419SOL    HW156577   5.941   8.149   8.483  0.6716 -1.5312 -0.4096
50419SOL    HW256578   6.006   8.152   8.620 -1.2151  0.1164  0.5040
50420SOL     OW56579   1.930   5.847   5.572  0.0943 -0.2360  0.4571
50420SOL    HW156580   1.903   5.779   5.511 -1.0021  1.7907 -1.4561
50420SOL    HW256581   1.851   5.897   5.590  0.8136  0.4285  1.9645
50421SOL     OW56582   8.319   5.121   0.754  0.1530  0.4829  0.0454
50421SOL    HW156583   8.399   5.118   0.701  0.3042  2.7797  0.0357
50421SOL    HW256584   8.283   5.032   0.749  2.1610 -0.3395 -0.7708
50422SOL     OW56585   8.557   6.777   1.829  0.1937  0.0710  0.0888
50422SOL    HW156586   8.543   6.699   1.774 -1.2851 -0.8693  1.6950
50422SOL    HW256587   8.645   6.765   1.865  1.9589  1.5830 -3.2824
50423SOL     OW56588   7.110   3.604  10.329 -0.3643  0.5123 -0.1312
50423SOL    HW156589   7.085   3.624  10.239  2.0629  1.0826 -0.7509
50423SOL    HW256590   7.058   3.664  10.382 -1.9783  0.0341 -1.0881
50424SOL     OW56591   4.798   1.081   9.373  0.4188 -0.3769  0.1419
50424SOL    HW156592   4.715   1.082   9.421  0.4788 -2.7682  0.4247
50424SOL    HW256593   4.864   1.094   9.441  0.4889 -3.4922  0.7948
50425SOL     OW56594   2.278   7.092   6.406  0.1266 -0.2745 -0.6473
50425SOL    HW156595   2.237   7.165   6.359  1.0131  0.9190  0.3636
50425SOL    HW256596   2.209   7.057   6.462  0.5646  2.3174  1.7567
50426SOL     OW56597   1.739   7.221   2.076 -0.1743  0.6226  0.3115
50426SOL    HW156598   1.745   7.311   2.046  0.5681  0.4477 -0.0982
50426SOL    HW256599   1.647   7.198   2.063  0.0339  0.6648 -1.5917
50427SOL     OW56600   2.481   6.388   9.106 -0.5134 -0.3493  0.3073
50427SOL    HW156601   2.554   6.362   9.049 -0.5884  2.8497 -1.4929
50427SOL    HW256602   2.411   6.412   9.045 -2.9556 -2.6777  1.9721
50428SOL     OW56603   3.890  11.699   6.294 -0.1901 -0.6417 -0.1080
50428SOL    HW156604   3.930  11.778   6.333  0.3181 -0.4785 -0.9351
50428SOL    HW256605   3.960  11.662   6.240 -0.4874 -1.5684  0.1320
50429SOL     OW56606  11.440  10.153   5.164  0.2198  0.6017 -0.1485
50429SOL    HW156607  11.399  10.236   5.188  1.7233  1.7171 -1.2528
50429SOL    HW256608  11.473  10.117   5.246  1.4294  2.1699  0.0966
50430SOL     OW56609   7.329   9.611   5.820  0.5098 -0.1663  0.3161
50430SOL    HW156610   7.306   9.683   5.879  0.5260 -1.1572  1.5907
50430SOL    HW256611   7.246   9.584   5.781  0.0305 -1.1704  1.9025
50431SOL     OW56612   9.268   4.720   4.370 -0.0822 -0.2914  0.0615
50431SOL    HW156613   9.238   4.726   4.279 -0.6943  2.9519  0.3777
50431SOL    HW256614   9.212   4.652   4.409 -1.9236  0.3849 -1.2427
50432SOL     OW56615   8.769   9.113   7.722  0.1290  0.6009 -0.2660
50432SOL    HW156616   8.734   9.142   7.806  0.6990  1.1002 -0.1882
50432SOL    HW256617   8.817   9.189   7.688  0.4023  0.2166 -0.7645
50433SOL     OW56618   9.112   3.628   4.140 -0.1497 -0.4662 -0.1361
50433SOL    HW156619   9.176   3.580   4.194 -0.2402  0.6522  1.0172
50433SOL    HW256620   9.122   3.591   4.052  1.9718 -0.4294  0.0419
50434SOL     OW56621   5.176   1.386   5.609 -0.2612  0.2695  0.1913
50434SOL    HW156622   5.169   1.480   5.625  0.7152  0.2617  0.7225
50434SOL    HW256623   5.100   1.348   5.652 -0.3632  0.7606  0.4453
50435SOL     OW56624   4.139   1.625   4.503  0.0769  0.0466  0.1979
50435SOL    HW156625   4.154   1.695   4.567 -1.7081  0.3534  0.3374
50435SOL    HW256626   4.149   1.544   4.553  1.8606  0.1675  0.1028
50436SOL     OW56627   6.757   6.322   6.187 -0.8125 -0.2022 -0.3965
50436SOL    HW156628   6.755   6.361   6.100 -2.0556  1.8903  0.5062
50436SOL    HW256629   6.843   6.281   6.193  0.3770  1.9386 -1.6389
50437SOL     OW56630   7.136   6.789   4.841  0.1589  0.0607 -0.1158
50437SOL    HW156631   7.208   6.774   4.903 -1.0455  1.0736  1.6033
50437SOL    HW256632   7.096   6.703   4.830  0.9294 -0.2966 -0.1877
50438SOL     OW56633   4.979   6.118   8.506  0.4615  0.7600 -0.4353
50438SOL    HW156634   5.057   6.154   8.549  0.5677 -0.6485  0.6434
50438SOL    HW256635   5.013   6.073   8.429  0.6633  0.5626 -0.2327
50439SOL     OW56636   1.883   6.603   7.632 -0.1371  0.9371  0.3111
50439SOL    HW156637   1.842   6.552   7.702 -2.1955  0.1692 -1.3682
50439SOL    HW256638   1.953   6.651   7.676 -0.4744 -0.5412  2.6342
50440SOL     OW56639   4.950   8.746   3.457 -0.1693  0.1571  0.1621
50440SOL    HW156640   4.921   8.697   3.534 -1.8949  0.7686 -0.0565
50440SOL    HW256641   4.930   8.837   3.477  3.3153  0.9330  0.6997
50441SOL     OW56642   1.988  10.683   9.791 -0.2308  0.1719 -0.5278
50441SOL    HW156643   1.972  10.624   9.864 -1.4397  0.9832 -0.1054
50441SOL    HW256644   1.983  10.628   9.713 -0.4396 -0.4260 -0.0954
50442SOL     OW56645   5.581   9.934   2.501 -0.4608  0.4534 -0.5082
50442SOL    HW156646   5.628   9.891   2.429  0.3561  1.9191 -0.8773
50442SOL    HW256647   5.490   9.906   2.489  0.1489 -1.8366 -0.2227
50443SOL     OW56648   4.756   5.535   8.494 -0.5937 -0.5463 -0.1286
50443SOL    HW156649   4.717   5.601   8.438  0.3552  1.1313  1.1105
50443SOL    HW256650   4.824   5.581   8.544 -0.0362 -2.3918  0.9591
50444SOL     OW56651   8.499   1.512   7.209  0.3145 -0.3089 -0.6047
50444SOL    HW156652   8.567   1.575   7.234  0.0957  0.0145 -0.8269
50444SOL    HW256653   8.472   1.472   7.292  3.0630 -2.8330 -0.7461
50445SOL     OW56654   7.951   5.344   6.807  0.0863 -0.3480  0.0270
50445SOL    HW156655   7.994   5.376   6.728  0.6524  0.9169  0.8087
50445SOL    HW256656   7.904   5.266   6.779  2.9813 -1.9421 -0.8758
50446SOL     OW56657   7.484   2.578   2.550 -0.4551 -0.4877  0.1434
50446SOL    HW156658   7.478   2.659   2.601 -0.1985 -0.4177  0.0633
50446SOL    HW256659   7.461   2.604   2.461 -0.5200 -0.5313  0.1481
50447SOL     OW56660  11.174   2.571   8.429  0.5224  0.5352  0.0645
50447SOL    HW156661  11.155   2.532   8.343 -0.5452 -0.8069  0.8722
50447SOL    HW256662  11.241   2.637   8.411  1.5791 -0.9151 -1.5386
50448SOL     OW56663   9.865   7.216  10.164  0.0208  0.2084 -0.0670
50448SOL    HW156664   9.920   7.157  10.112  1.5990  2.1277 -0.7315
50448SOL    HW256665   9.806   7.256  10.100  0.0806  0.5550  0.0972
50449SOL     OW56666  10.657   5.086   2.288 -0.2494  0.2879 -0.1004
50449SOL    HW156667  10.721   5.125   2.228 -0.2540  1.2078  0.4614
50449SOL    HW256668  10.684   5.117   2.374  0.7925 -2.4023  0.6416
50450SOL     OW56669   5.041  10.093   4.465  0.0223 -0.2226 -0.1574
50450SOL    HW156670   5.042  10.010   4.513  0.7029 -1.9040 -2.8630
50450SOL    HW256671   4.958  10.134   4.490  0.8841 -0.3127  3.3348
50451SOL     OW56672   6.005   5.121   1.100  0.3096 -0.4388  0.8798
50451SOL    HW156673   5.951   5.053   1.140 -0.4797 -0.3288  0.0404
50451SOL    HW256674   5.971   5.129   1.011  0.1188  1.3409  1.0878
50452SOL     OW56675   8.984   1.364   8.266  0.0280  0.5757 -0.1557
50452SOL    HW156676   9.017   1.447   8.300 -0.5495  0.1199  1.6395
50452SOL    HW256677   9.048   1.299   8.295  0.2429  0.3228 -1.1602
50453SOL     OW56678   2.701  10.046   1.220 -0.0518 -0.0735  0.4664
50453SOL    HW156679   2.674  10.100   1.294  1.8213  1.2449  0.2456
50453SOL    HW256680   2.644   9.969   1.225  0.0081 -0.0436  3.2790
50454SOL     OW56681   1.192   5.687  11.818 -0.6059  0.0730 -0.2447
50454SOL    HW156682   1.109   5.668  11.775 -1.7129  1.4548  1.1458
50454SOL    HW256683   1.169   5.703  11.909  1.3420 -0.5106  0.3983
50455SOL     OW56684   8.728   8.381  11.550  0.0108  0.0548  0.1136
50455SOL    HW156685   8.816   8.407  11.578  0.2502  0.6912 -1.1988
50455SOL    HW256686   8.681   8.463  11.537 -0.6257 -0.2710  0.2766
50456SOL     OW56687   2.667   3.370   0.196 -0.6422 -0.0373  0.3631
50456SOL    HW156688   2.607   3.348   0.268 -0.6482  0.3750  0.4889
50456SOL    HW256689   2.613   3.366   0.117 -0.6983 -0.2317  0.4104
50457SOL     OW56690   2.112  10.566   7.779 -0.0884  0.0118 -0.5316
50457SOL    HW156691   2.126  10.471   7.779 -0.4808 -0.0785  1.2972
50457SOL    HW256692   2.190  10.603   7.820 -0.0855  0.4688 -0.9324
50458SOL     OW56693   8.494   9.749   5.336  0.0734  0.2715 -0.7549
50458SOL    HW156694   8.419   9.744   5.396  0.2854 -0.2124 -0.5198
50458SOL    HW256695   8.455   9.750   5.249 -0.1964 -0.9946 -0.6776
50459SOL     OW56696  10.204   5.145  10.081  0.3216 -0.2389 -0.1094
50459SOL    HW156697  10.156   5.080  10.030  0.5802  0.1771 -0.9056
50459SOL    HW256698  10.254   5.194  10.016  1.2403 -0.1689  0.6230
50460SOL     OW56699   3.996   8.681  10.373 -0.3658  0.2356  0.7888
50460SOL    HW156700   3.940   8.611  10.406 -0.8247  0.9612  1.6129
50460SOL    HW256701   4.007   8.740  10.448 -1.6744  2.1117 -0.4072
50461SOL     OW56702   5.811   1.554  10.536  0.1185 -0.7585  0.1878
50461SOL    HW156703   5.785   1.474  10.490 -0.0900 -1.1192  0.9062
50461SOL    HW256704   5.905   1.543  10.552  0.1761 -0.6659 -0.0830
50462SOL     OW56705   1.364   4.274  11.170  0.0516 -0.3444  0.1234
50462SOL    HW156706   1.418   4.330  11.114 -1.3158  0.5948 -0.3289
50462SOL    HW256707   1.364   4.317  11.255 -0.0190 -0.3179  0.1101
50463SOL     OW56708   5.664  10.698   9.655  0.0597 -0.4185 -0.1060
50463SOL    HW156709   5.669  10.767   9.590 -0.3604  0.7489  1.0593
50463SOL    HW256710   5.573  10.670   9.654 -0.0856  0.0191  0.3801
50464SOL     OW56711   4.792   8.141   5.407 -0.7953  0.0594 -0.1440
50464SOL    HW156712   4.796   8.046   5.415  0.3232  0.1181  0.1661
50464SOL    HW256713   4.809   8.159   5.315  1.9972  0.0558  0.2859
50465SOL     OW56714   6.984   0.556   5.425  0.2784  0.2358 -0.0996
50465SOL    HW156715   7.040   0.620   5.381  0.6842 -0.5754 -0.7905
50465SOL    HW256716   6.899   0.601   5.435  1.0175  1.4748  0.9703
50466SOL     OW56717  10.870   7.244  11.596  0.0463 -0.0341  0.0088
50466SOL    HW156718  10.961   7.235  11.566 -0.1997  0.1551 -0.8037
50466SOL    HW256719  10.877   7.246  11.692  0.7381 -1.9114  0.0507
50467SOL     OW56720   5.891   9.916   7.983 -0.0894 -0.5849 -0.1212
50467SOL    HW156721   5.798   9.905   8.003 -0.0856 -0.0713  0.1970
50467SOL    HW256722   5.934   9.843   8.027 -0.1460  0.2082  1.3051
50468SOL     OW56723  11.617   1.546   4.582 -0.3312  0.3186 -0.5723
50468SOL    HW156724  11.590   1.463   4.542  0.6971 -0.4893  0.3764
50468SOL    HW256725  11.652   1.522   4.667  1.2507  1.5821 -0.8226
50469SOL     OW56726   1.040   7.766   9.343 -0.1556 -0.0997 -0.1066
50469SOL    HW156727   1.092   7.836   9.383  0.2947 -0.2732 -0.3846
50469SOL    HW256728   1.095   7.688   9.350 -2.0838 -1.3815  3.6130
50470SOL     OW56729   7.746   8.781   3.385 -0.5992 -0.2380  0.0727
50470SOL    HW156730   7.820   8.734   3.348 -0.1171  0.2020  0.4523
50470SOL    HW256731   7.683   8.789   3.314 -0.3886 -0.8419 -0.1795
50471SOL     OW56732   5.072   0.590   8.155 -0.4272  0.2570  0.4778
50471SOL    HW156733   4.986   0.604   8.195 -1.0820 -1.7750 -0.1288
50471SOL    HW256734   5.096   0.501   8.179 -0.3866 -0.7117 -2.7494
50472SOL     OW56735   6.732   8.925  10.131 -0.0289  0.4173  0.1372
50472SOL    HW156736   6.676   8.876  10.071 -0.2205 -0.0861  0.7070
50472SOL    HW256737   6.686   9.009  10.143 -0.5850  0.0762  0.4665
50473SOL     OW56738  10.711   6.217  10.234 -0.0364  0.9509 -0.3356
50473SOL    HW156739  10.767   6.291  10.260 -0.6676  1.4042 -0.2415
50473SOL    HW256740  10.771   6.144  10.225  0.3930  1.0707  1.2034
50474SOL     OW56741   9.958   5.755   6.229 -0.5381  0.2945  0.1811
50474SOL    HW156742   9.991   5.794   6.310  0.6823 -1.8457  0.8027
50474SOL    HW256743   9.893   5.691   6.258 -0.9096  0.2805 -0.6401
50475SOL     OW56744   3.355   5.668   3.924  0.4375  0.0032 -0.3292
50475SOL    HW156745   3.447   5.691   3.916  1.2869 -1.9328  2.3654
50475SOL    HW256746   3.352   5.574   3.909 -0.9319 -0.1102  0.4805
50476SOL     OW56747   2.987   2.824   5.660 -0.1922  0.1643  0.3118
50476SOL    HW156748   2.933   2.822   5.581  0.6719  0.8830 -0.3184
50476SOL    HW256749   2.928   2.853   5.729 -1.4454 -2.2206  0.3737
50477SOL     OW56750   5.377   9.901   8.845  0.3319  0.3966 -0.1397
50477SOL    HW156751   5.465   9.932   8.863  1.0200 -0.8707 -1.1303
50477SOL    HW256752   5.371   9.817   8.890 -0.6232  0.7701  0.4720
50478SOL     OW56753  10.525   6.919   6.241 -0.0059 -0.4193 -0.2722
50478SOL    HW156754  10.539   6.941   6.334 -0.2754  2.8117 -0.8870
50478SOL    HW256755  10.444   6.867   6.241 -0.1359 -0.2785  1.2856
50479SOL     OW56756   1.253   2.189   5.462  0.0494 -0.0642  0.2594
50479SOL    HW156757   1.292   2.119   5.516 -0.4061  1.2073  2.3616
50479SOL    HW256758   1.214   2.249   5.526 -0.3313  1.6743 -1.5223
50480SOL     OW56759   4.098   0.699   1.575  0.3148 -0.4632  0.2077
50480SOL    HW156760   4.047   0.641   1.632 -0.9865 -0.9635 -1.3683
50480SOL    HW256761   4.161   0.741   1.633 -0.4926 -1.4481  1.8732
50481SOL     OW56762   0.001   2.894   6.955 -0.0041  0.2227 -0.3973
50481SOL    HW156763  -0.054   2.970   6.939 -1.5041 -0.6483  0.4194
50481SOL    HW256764  -0.006   2.841   6.876 -1.8002 -0.7078  0.3119
50482SOL     OW56765  10.306  10.314   3.046 -0.1463  0.5740  0.6378
50482SOL    HW156766  10.249  10.280   2.977 -1.8403 -0.2194  2.3050
50482SOL    HW256767  10.392  10.322   3.006 -0.4148 -2.4873 -0.8286
50483SOL     OW56768   6.647  10.181   0.777  0.1921 -0.0199  0.3805
50483SOL    HW156769   6.613  10.229   0.853  0.8613 -2.2482  2.2075
50483SOL    HW256770   6.693  10.106   0.815  0.4329 -1.3182 -2.2691
50484SOL     OW56771  11.586   6.495   7.163 -0.4206 -0.1355  0.2538
50484SOL    HW156772  11.653   6.443   7.118  1.0412  1.1680  0.8809
50484SOL    HW256773  11.533   6.531   7.092 -0.4049 -1.0587 -0.2491
50485SOL     OW56774  10.039  11.532   5.300 -0.0349 -0.0305  0.2973
50485SOL    HW156775  10.131  11.509   5.308 -0.1435  0.1474  2.5733
50485SOL    HW256776  10.035  11.624   5.327 -0.7856  0.2313 -0.6321
50486SOL     OW56777   6.007   6.076  11.487 -0.3222 -0.3208  0.8011
50486SOL    HW156778   6.087   6.105  11.443 -1.2488  1.8715  0.3977
50486SOL    HW256779   5.953   6.038  11.416 -0.0917 -0.7838  0.8700
50487SOL     OW56780   1.817   1.751   7.172  1.0851 -0.0975 -0.0921
50487SOL    HW156781   1.755   1.770   7.102 -0.8426 -0.6379  1.3823
50487SOL    HW256782   1.900   1.735   7.126  0.1964  0.7455 -2.1327
50488SOL     OW56783   3.943   3.017   6.088  0.2530 -0.4533 -0.0070
50488SOL    HW156784   3.847   3.021   6.090  0.2676 -0.1939  0.2927
50488SOL    HW256785   3.963   2.935   6.044 -0.1127  0.0773 -1.1967
50489SOL     OW56786  10.667  11.398   7.323 -0.4843 -0.3350  0.1814
50489SOL    HW156787  10.631  11.388   7.412 -1.7778  1.4411 -0.0802
50489SOL    HW256788  10.750  11.350   7.325 -0.0360  0.3902  2.6379
50490SOL     OW56789   4.588   8.889   0.690  0.2369  0.0374 -0.0550
50490SOL    HW156790   4.681   8.912   0.694 -0.1280  1.7068 -0.2292
50490SOL    HW256791   4.585   8.813   0.632  1.4940 -0.0934  0.0132
50491SOL     OW56792   7.147   1.226   1.578  0.0186  0.1735 -0.2404
50491SOL    HW156793   7.199   1.273   1.643 -0.4122 -0.2873  0.4520
50491SOL    HW256794   7.143   1.136   1.610 -0.3365 -0.0272 -0.8208
50492SOL     OW56795   3.571  11.222   7.645  0.3645  0.0050 -0.4089
50492SOL    HW156796   3.476  11.215   7.632  0.0170  0.7820  1.4748
50492SOL    HW256797   3.588  11.174   7.726  1.8757 -1.6023 -1.6067
50493SOL     OW56798   9.101   2.962   2.137 -0.4661 -0.0467  0.1748
50493SOL    HW156799   9.128   3.049   2.168  0.0548  0.0836 -0.6155
50493SOL    HW256800   9.182   2.921   2.107 -1.0259  0.0815 -1.6116
50494SOL     OW56801   3.058   0.841   3.884  0.4977  0.6601 -0.4744
50494SOL    HW156802   3.145   0.863   3.853  0.4647  1.6770  0.1290
50494SOL    HW256803   3.005   0.918   3.864  0.0412  0.5711  0.3500
50495SOL     OW56804   0.045   2.871   8.106 -0.2123 -0.2028  0.5741
50495SOL    HW156805   0.066   2.787   8.146  0.0056 -0.1644  0.5426
50495SOL    HW256806  -0.049   2.866   8.088 -0.1232 -0.5917  0.2081
50496SOL     OW56807   3.333  10.634   1.895 -0.1426  0.6412 -0.3678
50496SOL    HW156808   3.245  10.608   1.867  0.1318 -1.0689  0.2861
50496SOL    HW256809   3.325  10.651   1.988  0.0565  1.2792 -0.4629
50497SOL     OW56810   1.666  11.308   3.528 -0.0720  0.0363  0.2856
50497SOL    HW156811   1.736  11.371   3.543  0.5176  0.3446 -3.0549
50497SOL    HW256812   1.692  11.230   3.577  1.4058  0.9267  0.9647
50498SOL     OW56813   1.446   7.500   7.708  0.0512 -0.3356 -0.4773
50498SOL    HW156814   1.479   7.569   7.651 -1.3141  1.2091  0.5053
50498SOL    HW256815   1.520   7.477   7.764  0.3720  0.7904 -0.4140
50499SOL     OW56816   0.502   0.909   7.401  0.3544 -0.2700 -0.4527
50499SOL    HW156817   0.450   0.924   7.321 -1.3360 -1.4659  0.3652
50499SOL    HW256818   0.452   0.844   7.450  1.1895  0.6826  1.7613
50500SOL     OW56819  11.326   9.663   3.078 -0.5124  0.8466  0.2706
50500SOL    HW156820  11.248   9.620   3.114 -0.6605  0.1467 -0.8224
50500SOL    HW256821  11.373   9.696   3.154 -0.6891 -0.7718  1.1400
50501SOL     OW56822   7.676   8.197   3.170 -0.4193  0.4988  0.5810
50501SOL    HW156823   7.630   8.269   3.213 -2.7094 -0.4425 -0.1393
50501SOL    HW256824   7.685   8.226   3.079  2.5096  1.5903  1.1117
50502SOL     OW56825   8.759   7.763   3.026  0.9959  0.0237 -0.1584
50502SOL    HW156826   8.777   7.671   3.045  3.4072  0.6231  0.8278
50502SOL    HW256827   8.826   7.811   3.074 -0.6557  2.3727 -0.0451
50503SOL     OW56828   7.926   6.391   6.947 -0.2557  0.1357 -0.5581
50503SOL    HW156829   7.889   6.448   6.880 -2.5728  0.2971  0.7363
50503SOL    HW256830   7.922   6.443   7.027 -0.0189 -0.9408  0.1813
50504SOL     OW56831   8.454   9.342   1.108 -0.5095  0.3107  0.0665
50504SOL    HW156832   8.374   9.290   1.111 -0.8734  0.7972 -0.9381
50504SOL    HW256833   8.522   9.280   1.081 -0.1085 -0.5742  2.7496
50505SOL     OW56834  10.335   7.288   8.242 -0.4708 -0.2745 -0.1761
50505SOL    HW156835  10.420   7.245   8.250 -0.4207 -0.0402  0.6632
50505SOL    HW256836  10.349   7.358   8.179 -0.3138 -0.8915 -0.8374
50506SOL     OW56837   3.520   1.041   3.824 -0.2911 -0.0824 -0.1669
50506SOL    HW156838   3.581   1.109   3.850 -0.1493  0.5360 -1.9928
50506SOL    HW256839   3.512   0.985   3.901  1.1966  0.8193  0.6776
50507SOL     OW56840   8.796  11.491   1.116  0.2827 -0.3395 -0.3664
50507SOL    HW156841   8.859  11.427   1.147 -0.1313 -0.7756 -0.4034
50507SOL    HW256842   8.731  11.440   1.068  0.3085  0.1888 -0.9891
50508SOL     OW56843  10.851  10.957   0.854 -0.0975 -0.1316 -0.3019
50508SOL    HW156844  10.771  11.009   0.860 -1.9038 -2.7119 -0.2547
50508SOL    HW256845  10.828  10.883   0.798  2.3763 -0.8209 -0.5369
50509SOL     OW56846   8.853  11.342   6.779 -0.1305 -0.1893 -0.3044
50509SOL    HW156847   8.928  11.401   6.783 -0.5332  0.4224 -1.4263
50509SOL    HW256848   8.885  11.259   6.815  0.7878  0.3522  0.1388
50510SOL     OW56849   3.270   2.811   5.715 -0.4917  0.2983 -0.6383
50510SOL    HW156850   3.307   2.870   5.650  0.1262 -1.1078 -1.6210
50510SOL    HW256851   3.179   2.801   5.690 -0.2458 -0.2733 -1.3602
50511SOL     OW56852   2.703  10.590   6.621 -0.2874  0.1325 -0.0741
50511SOL    HW156853   2.781  10.602   6.676 -1.0998 -1.4307  1.5458
50511SOL    HW256854   2.646  10.663   6.645  0.2581  0.7057 -0.5022
50512SOL     OW56855   2.971  11.614   6.432 -0.3382 -0.4042 -0.2671
50512SOL    HW156856   2.984  11.568   6.515 -1.1295 -2.9979 -1.4736
50512SOL    HW256857   2.917  11.689   6.455  0.2284 -0.5296  1.6924
50513SOL     OW56858   5.260   1.838   8.622  0.3506 -0.1538 -0.1677
50513SOL    HW156859   5.198   1.837   8.695  0.0202  0.3754 -0.4345
50513SOL    HW256860   5.206   1.833   8.544  0.7493 -1.8343 -0.3858
50514SOL     OW56861   7.827   0.339   4.370 -0.6081  0.1183  0.1850
50514SOL    HW156862   7.906   0.348   4.316 -1.5925 -0.7567 -1.4783
50514SOL    HW256863   7.807   0.246   4.368 -1.7255  0.3415  0.5291
50515SOL     OW56864  11.773   5.768   5.726  0.5086 -0.0170  0.0535
50515SOL    HW156865  11.704   5.775   5.791  1.4391  1.0554  0.9541
50515SOL    HW256866  11.739   5.814   5.649 -1.0988 -2.3267 -0.7337
50516SOL     OW56867   2.013  11.221   0.668 -0.3668  0.8999 -0.1396
50516SOL    HW156868   2.049  11.258   0.588  0.3056  0.7379  0.0782
50516SOL    HW256869   2.076  11.246   0.736 -2.1937  3.2251  0.8119
50517SOL     OW56870   7.203   7.742   9.843  0.3281 -0.0636  0.4887
50517SOL    HW156871   7.223   7.807   9.910  0.1336  0.7603 -0.2363
50517SOL    HW256872   7.239   7.660   9.877 -0.4701  0.1653  1.9647
50518SOL     OW56873   8.784   5.833   0.482 -0.2597 -0.7698  0.1347
50518SOL    HW156874   8.747   5.862   0.565  0.6277  0.8516  0.0062
50518SOL    HW256875   8.854   5.772   0.507  0.3130  0.0661  0.6251
50519SOL     OW56876   5.742  10.392   3.015  0.3760  0.0070  0.1410
50519SOL    HW156877   5.707  10.480   2.998 -0.4054 -0.4252 -0.5260
50519SOL    HW256878   5.701  10.336   2.949 -0.7344 -1.2518  1.8118
50520SOL     OW56879   4.961   8.428  10.046  0.0987 -0.2943 -0.1951
50520SOL    HW156880   4.991   8.377  10.121 -1.3651 -0.7817  0.0908
50520SOL    HW256881   4.921   8.363   9.988 -0.6041  0.3544 -0.4430
50521SOL     OW56882   1.621  10.863   7.426 -0.4451  0.1843 -0.1420
50521SOL    HW156883   1.686  10.919   7.384 -1.1559  0.0192 -1.5222
50521SOL    HW256884   1.555  10.849   7.358 -0.8760 -1.3364  0.5642
50522SOL     OW56885   8.169   9.874   5.967  0.3546 -0.1330  0.3290
50522SOL    HW156886   8.086   9.839   5.998  0.4951 -0.6142  0.1687
50522SOL    HW256887   8.156   9.969   5.965 -0.6310 -0.2609 -0.8990
50523SOL     OW56888   0.452   8.141   8.558  0.0208 -0.4058 -0.9609
50523SOL    HW156889   0.432   8.174   8.646 -1.0415 -1.4671 -0.7823
50523SOL    HW256890   0.494   8.215   8.514 -1.0526  0.7258 -0.1432
50524SOL     OW56891   0.131  10.448   8.885 -0.4675 -0.4365 -0.1012
50524SOL    HW156892   0.224  10.457   8.866 -0.0389  0.1710  2.0507
50524SOL    HW256893   0.116  10.505   8.960 -1.9090 -2.7245  1.4945
50525SOL     OW56894  10.128   4.403   2.688 -0.0723 -0.0526 -0.1540
50525SOL    HW156895  10.221   4.412   2.669  0.1409 -0.4308  0.6591
50525SOL    HW256896  10.097   4.335   2.628 -0.0238  0.6856 -1.0333
50526SOL     OW56897   1.282   9.198   1.293 -0.0224 -0.7513  0.2285
50526SOL    HW156898   1.318   9.275   1.337  1.5135 -0.8326 -0.8228
50526SOL    HW256899   1.319   9.124   1.341  1.5089 -0.8371 -1.0171
50527SOL     OW56900   3.726   0.815   5.321 -0.1030  0.0526 -0.1085
50527SOL    HW156901   3.791   0.854   5.264  0.4873 -1.1539 -0.2893
50527SOL    HW256902   3.644   0.859   5.298  0.7588  2.2526  0.7640
50528SOL     OW56903   2.510   3.041   8.449 -0.2796 -0.2472  0.1196
50528SOL    HW156904   2.515   2.996   8.365 -0.0333  0.5207 -0.2835
50528SOL    HW256905   2.494   3.132   8.427 -2.2881 -0.3339  0.9690
50529SOL     OW56906   2.594   6.818   1.404 -0.0932 -0.2532 -0.0437
50529SOL    HW156907   2.633   6.800   1.319  1.1426 -2.2591  0.8952
50529SOL    HW256908   2.647   6.889   1.440 -1.6219  1.7843 -1.5149
50530SOL     OW56909   9.781   0.925  11.591  0.5724 -0.6895  0.0684
50530SOL    HW156910   9.722   0.942  11.519  0.9138  0.2650  0.0078
50530SOL    HW256911   9.785   0.829  11.597 -0.8304 -0.7636 -0.0306
50531SOL     OW56912   7.647   1.241   0.684 -0.3390 -0.0824 -0.3420
50531SOL    HW156913   7.714   1.211   0.745  2.2589  2.6651 -1.5453
50531SOL    HW256914   7.652   1.181   0.610 -0.2227 -0.7197  0.1806
50532SOL     OW56915   2.573   0.998   9.286  0.3096 -0.4204 -0.4129
50532SOL    HW156916   2.626   0.923   9.313  0.0931 -1.0002 -1.5479
50532SOL    HW256917   2.592   1.009   9.193  0.0729  0.7246 -0.3405
50533SOL     OW56918   6.551   1.498   4.784 -0.3186 -0.3821 -0.6126
50533SOL    HW156919   6.550   1.484   4.689  0.5817  0.8405 -0.8289
50533SOL    HW256920   6.588   1.586   4.795 -0.3999 -0.5086  0.8759
50534SOL     OW56921   8.122   8.633   4.819 -0.1559 -0.1948  0.2108
50534SOL    HW156922   8.127   8.538   4.830  0.5623 -0.2239 -0.3107
50534SOL    HW256923   8.061   8.662   4.887 -2.1900 -1.2927 -1.0356
50535SOL     OW56924   3.394   3.441   4.138 -0.2234  0.1740 -0.1276
50535SOL    HW156925   3.467   3.465   4.195 -0.1268  1.8746 -0.9276
50535SOL    HW256926   3.355   3.524   4.111 -0.7095 -0.5964 -1.9782
50536SOL     OW56927   1.133   9.925   7.572  0.4475 -0.1985 -0.4932
50536SOL    HW156928   1.068   9.984   7.533  0.9498  0.7247  0.0083
50536SOL    HW256929   1.137   9.850   7.513 -0.2171  0.2726 -1.1558
50537SOL     OW56930   5.815   6.479   1.351  0.0821  0.2472  0.2621
50537SOL    HW156931   5.890   6.461   1.408 -0.1534  1.3926  0.9675
50537SOL    HW256932   5.738   6.470   1.408 -0.2650 -0.0689 -0.2463
50538SOL     OW56933   5.712  10.406   5.299 -0.6369  0.0712  0.2034
50538SOL    HW156934   5.643  10.381   5.238  0.3363 -1.2315 -0.4165
50538SOL    HW256935   5.776  10.451   5.245 -0.5338  0.3814  0.5848
50539SOL     OW56936   9.830   6.235  10.501  0.2310 -0.1876 -0.4988
50539SOL    HW156937   9.858   6.172  10.568  1.6362  1.4120  0.4960
50539SOL    HW256938   9.853   6.194  10.418  2.0962 -0.5736  0.1623
50540SOL     OW56939   0.223   8.150   7.779  0.0274 -0.0436  0.5374
50540SOL    HW156940   0.291   8.215   7.763 -0.1497  0.0457  0.1394
50540SOL    HW256941   0.235   8.085   7.710 -1.0700  0.6080 -0.2880
50541SOL     OW56942   1.013   2.909  10.263  0.0785  0.1669  0.2265
50541SOL    HW156943   0.957   2.954  10.326 -1.4010 -0.1820 -0.7930
50541SOL    HW256944   0.960   2.836  10.232  0.1437  1.1917 -2.5269
50542SOL     OW56945   7.112   6.511   1.890  0.4222 -0.3677  0.1492
50542SOL    HW156946   7.104   6.418   1.866  1.6367 -0.2367 -0.8681
50542SOL    HW256947   7.032   6.530   1.939 -0.4872 -1.6069 -0.7887
50543SOL     OW56948  11.218   9.392   1.420 -0.2367  0.7507  0.4039
50543SOL    HW156949  11.267   9.465   1.457  1.9966 -1.5507  2.4012
50543SOL    HW256950  11.210   9.330   1.492 -2.4639 -0.8091 -1.0656
50544SOL     OW56951   8.253   9.121   6.574  0.2414 -0.3868  0.5379
50544SOL    HW156952   8.279   9.154   6.488 -0.4977 -0.5265  0.2531
50544SOL    HW256953   8.228   9.199   6.623 -0.8865 -0.4318  0.0772
50545SOL     OW56954   1.220  10.707   0.727  0.0271  0.0759 -0.2133
50545SOL    HW156955   1.160  10.686   0.798 -1.3855 -1.9265 -1.8502
50545SOL    HW256956   1.242  10.622   0.688  1.5854  1.0060 -1.5114
50546SOL     OW56957   7.581   6.358   2.306  0.6960  0.5927  0.3957
50546SOL    HW156958   7.610   6.312   2.228  1.5211  0.3677  0.8194
50546SOL    HW256959   7.603   6.450   2.290 -0.7994  0.8463 -0.3794
50547SOL     OW56960   0.865   4.869   7.515 -0.3019 -0.2387  0.4926
50547SOL    HW156961   0.936   4.929   7.494 -1.2774  0.1099 -2.2083
50547SOL    HW256962   0.854   4.877   7.610  2.3651  0.6321  0.8054
50548SOL     OW56963   0.656   7.100   3.586  0.0912 -0.6232 -0.4208
50548SOL    HW156964   0.709   7.179   3.598  1.5868 -1.4180 -1.5407
50548SOL    HW256965   0.689   7.060   3.506 -1.4739 -1.7585 -0.5537
50549SOL     OW56966   4.138   3.390  10.816 -0.6758  0.2619  0.1928
50549SOL    HW156967   4.166   3.405  10.726  0.4451  0.5476  0.5783
50549SOL    HW256968   4.159   3.298  10.833 -1.4953  0.0220 -0.0372
50550SOL     OW56969   6.356   3.094   6.719 -1.2721 -0.7783 -0.3154
50550SOL    HW156970   6.414   3.025   6.686 -1.0776 -0.3577 -0.8706
50550SOL    HW256971   6.289   3.048   6.770 -0.2207 -1.2541  0.6962
50551SOL     OW56972  11.339   7.860   2.926  0.2876  0.0258  0.0706
50551SOL    HW156973  11.406   7.800   2.891 -0.0482 -0.4701  0.2584
50551SOL    HW256974  11.257   7.810   2.919  0.0224  0.4179  0.3590
50552SOL     OW56975   0.895   9.332   0.719  0.2304  0.6135 -0.6918
50552SOL    HW156976   0.840   9.310   0.794 -0.8423  0.1187 -1.5882
50552SOL    HW256977   0.980   9.295   0.740  0.4625  2.0371  1.0515
50553SOL     OW56978   9.939   6.391   4.333 -0.4999 -0.0175  0.0897
50553SOL    HW156979   9.994   6.417   4.258 -1.3796 -2.8956 -1.7237
50553SOL    HW256980   9.954   6.297   4.341 -2.7959 -0.3189  1.5676
50554SOL     OW56981   0.663   2.604   0.961 -0.1784 -0.0321 -1.0936
50554SOL    HW156982   0.596   2.552   0.917  1.1660 -2.0226 -0.9394
50554SOL    HW256983   0.648   2.588   1.055 -0.3160  0.5968 -1.0086
50555SOL     OW56984   7.179   8.577   8.399  0.3290 -0.1811  0.0744
50555SOL    HW156985   7.224   8.619   8.326  1.5938 -1.7089 -0.0905
50555SOL    HW256986   7.179   8.643   8.469  3.6939 -0.3539  0.3839
50556SOL     OW56987   6.157   3.119   3.157  0.1405 -0.4274  0.2666
50556SOL    HW156988   6.132   3.145   3.246  1.5330  0.7533  0.3386
50556SOL    HW256989   6.198   3.033   3.168  2.3828  0.6922  1.1292
50557SOL     OW56990   5.129   9.012   9.689  0.6742  0.0385  0.0151
50557SOL    HW156991   5.050   8.960   9.676  0.6480 -0.1878  1.0067
50557SOL    HW256992   5.196   8.966   9.638 -0.1499  1.1224 -2.1406
50558SOL     OW56993   6.317   4.793   5.893 -0.3217  0.6496 -0.2975
50558SOL    HW156994   6.249   4.740   5.851  0.1118 -0.2986  0.1873
50558SOL    HW256995   6.284   4.809   5.982  0.5164 -0.6626  0.2752
50559SOL     OW56996   6.440   8.225   3.335  0.5738  0.3271 -0.5190
50559SOL    HW156997   6.444   8.139   3.378 -1.2514  0.4469 -0.0262
50559SOL    HW256998   6.351   8.256   3.352  1.2299  2.3819 -0.5945
50560SOL     OW56999   3.484   2.315   9.375 -0.2849 -0.3077 -0.6662
50560SOL    HW157000   3.578   2.297   9.371 -0.0425  0.9159 -0.8316
50560SOL    HW257001   3.473   2.396   9.326 -1.0697  0.8989  1.3731
50561SOL     OW57002  10.844   8.857   3.903 -0.9665  0.3552  0.2431
50561SOL    HW157003  10.816   8.792   3.838 -1.0779  0.8982 -0.2599
50561SOL    HW257004  10.905   8.913   3.856  0.0172 -0.0669  0.9988
50562SOL     OW57005   7.463   0.859  11.304  0.0468 -0.3728 -0.1608
50562SOL    HW157006   7.375   0.862  11.267  0.0029  1.9735 -0.0504
50562SOL    HW257007   7.521   0.878  11.231  0.2382  0.5360  0.2040
50563SOL     OW57008   0.923   0.138   5.278 -0.2166 -0.4953 -0.2268
50563SOL    HW157009   0.892   0.180   5.358 -2.0682 -0.7484 -0.7650
50563SOL    HW257010   0.939   0.211   5.218 -2.6415 -0.4194 -0.8881
50564SOL     OW57011   3.691  11.122   6.602  0.2895 -0.2183  0.4459
50564SOL    HW157012   3.778  11.090   6.626  1.5285  1.5585 -1.3569
50564SOL    HW257013   3.680  11.202   6.654  0.9341  1.0032 -1.1963
50565SOL     OW57014   9.927   9.936   4.562 -0.2353  0.1472 -0.6314
50565SOL    HW157015  10.016   9.924   4.527 -0.1214 -1.6328  0.1359
50565SOL    HW257016   9.902   9.849   4.593 -2.0783  0.7220 -0.3908
50566SOL     OW57017   3.893   9.838   1.242  0.1418  0.0182  0.3454
50566SOL    HW157018   3.916   9.931   1.235 -0.0584  0.2981  2.5000
50566SOL    HW257019   3.976   9.792   1.227  0.6794  0.6761  1.1448
50567SOL     OW57020   9.212   0.010   3.412 -0.2600 -0.0716  0.4449
50567SOL    HW157021   9.153   0.028   3.486  0.4142  1.2193  0.6972
50567SOL    HW257022   9.179   0.066   3.342 -0.0039 -0.1871  0.2330
50568SOL     OW57023   2.593   4.907   2.100 -0.0411 -0.3194  0.0407
50568SOL    HW157024   2.638   4.822   2.109 -0.3331 -0.3490  1.3945
50568SOL    HW257025   2.553   4.903   2.013  3.3756  0.1238 -1.7248
50569SOL     OW57026   8.152  11.754   7.381 -0.0874  0.0522 -0.1675
50569SOL    HW157027   8.176  11.813   7.453  0.7914 -0.7111  0.1813
50569SOL    HW257028   8.217  11.683   7.385 -0.5587 -0.4553 -1.1650
50570SOL     OW57029   9.522   1.017   4.492 -0.2534  0.3191 -0.1027
50570SOL    HW157030   9.474   0.969   4.559  0.9816 -1.5605 -0.5071
50570SOL    HW257031   9.462   1.088   4.466 -3.3301 -2.4880 -1.3482
50571SOL     OW57032   0.716   8.309  10.115 -0.1383 -0.8559 -0.0733
50571SOL    HW157033   0.757   8.299  10.201  0.6566 -1.2381 -0.4811
50571SOL    HW257034   0.779   8.270  10.054 -1.3842 -2.0532 -0.6632
50572SOL     OW57035   6.197   4.199  10.972  0.1069  0.2851 -0.2876
50572SOL    HW157036   6.195   4.188  10.877 -0.5059 -0.7185 -0.1675
50572SOL    HW257037   6.290   4.193  10.994  0.1011 -1.6091 -0.6081
50573SOL     OW57038  10.452   3.188   3.164 -0.0575 -0.2841  0.3545
50573SOL    HW157039  10.365   3.226   3.182 -0.5294 -1.2325  0.1197
50573SOL    HW257040  10.445   3.155   3.075  0.3472 -0.9282  0.5619
50574SOL     OW57041  10.519   8.338   7.149  0.1688  0.5701 -0.7978
50574SOL    HW157042  10.541   8.416   7.099  1.1368 -0.4373 -2.0160
50574SOL    HW257043  10.432   8.313   7.119 -0.4631  1.5676  0.1401
50575SOL     OW57044   2.198   1.276   9.197  0.6079 -0.1514 -0.0784
50575SOL    HW157045   2.289   1.305   9.192  0.3024  0.7327 -0.7046
50575SOL    HW257046   2.182   1.235   9.112 -0.2680  1.8180 -0.9098
50576SOL     OW57047   6.913  11.180  10.827  0.5616 -0.5360 -0.4272
50576SOL    HW157048   6.956  11.144  10.905 -1.2701 -0.2382  0.7922
50576SOL    HW257049   6.877  11.104  10.782 -1.7374 -0.4971  1.1740
50577SOL     OW57050   5.010   1.189   0.555  0.7362 -0.2784 -0.2638
50577SOL    HW157051   5.001   1.094   0.562  0.0441 -0.1651  0.5904
50577SOL    HW257052   4.931   1.217   0.510  0.4001 -0.0105  0.4759
50578SOL     OW57053   8.817  11.069   0.865  0.3648 -0.2367 -0.5227
50578SOL    HW157054   8.871  11.009   0.916 -1.1150 -1.4920 -0.3451
50578SOL    HW257055   8.739  11.082   0.919  0.3169  1.2828 -0.8981
50579SOL     OW57056   0.514  10.367   6.946  0.4867  0.6006  0.1305
50579SOL    HW157057   0.601  10.405   6.934  0.4378  0.2071 -1.8642
50579SOL    HW257058   0.478  10.363   6.858 -0.6493 -1.3722  0.6260
50580SOL     OW57059   9.033   6.670   7.910  0.0119 -0.3919 -0.6843
50580SOL    HW157060   9.034   6.665   8.005 -0.3943 -0.6301 -0.6920
50580SOL    HW257061   9.076   6.753   7.890 -0.4050 -0.0758 -0.2782
50581SOL     OW57062   3.531   0.324   2.638 -0.1974 -0.0011 -0.7409
50581SOL    HW157063   3.496   0.237   2.658 -0.4615  0.0082 -1.1625
50581SOL    HW257064   3.565   0.317   2.549  0.7693  0.0271 -0.3824
50582SOL     OW57065   0.975   7.854   8.661  0.0230 -0.0932 -0.1595
50582SOL    HW157066   0.962   7.771   8.708  2.8282 -1.0670 -0.8812
50582SOL    HW257067   0.906   7.856   8.595 -1.0263 -1.0779  0.8739
50583SOL     OW57068  11.078   2.055  10.248 -0.3513  0.1053 -0.3097
50583SOL    HW157069  11.057   1.997  10.321 -0.7889 -1.0123 -1.2978
50583SOL    HW257070  11.143   2.008  10.197  0.8936  1.4204  0.0098
50584SOL     OW57071   7.764   5.979   7.521  0.0431 -0.3433 -0.3833
50584SOL    HW157072   7.854   5.984   7.489  0.9492  1.8451  2.1518
50584SOL    HW257073   7.718   6.050   7.477  0.4995  0.7106  0.7764
50585SOL     OW57074   3.691   9.222   2.102 -0.5422  0.0967  0.1525
50585SOL    HW157075   3.768   9.268   2.134 -0.2039 -1.0886  1.1168
50585SOL    HW257076   3.668   9.268   2.021  1.0593  0.5974 -0.0639
50586SOL     OW57077   5.239   3.433   5.430  0.6414 -0.0534 -0.1783
50586SOL    HW157078   5.211   3.487   5.356 -0.9181  1.0613  1.1583
50586SOL    HW257079   5.209   3.345   5.408  0.6763  0.1530 -1.1000
50587SOL     OW57080   2.168   7.505   1.186 -0.0798 -0.5700  0.5790
50587SOL    HW157081   2.261   7.502   1.165  0.2949 -0.7402  2.1295
50587SOL    HW257082   2.132   7.426   1.146  0.5028 -0.6669  0.2398
50588SOL     OW57083   7.552   6.852   6.538  0.0102 -0.1216  0.1863
50588SOL    HW157084   7.593   6.775   6.497  2.7713  1.3364 -0.0359
50588SOL    HW257085   7.518   6.903   6.464 -3.1304 -1.6485  0.3993
50589SOL     OW57086   4.923   7.166   3.536 -0.8598  0.5539  0.2990
50589SOL    HW157087   4.924   7.078   3.500  0.6667  0.9783 -0.7837
50589SOL    HW257088   4.899   7.222   3.463 -4.5904  0.8900  1.5684
50590SOL     OW57089   1.205   5.584   4.827 -0.0479  0.3029 -0.2268
50590SOL    HW157090   1.252   5.545   4.753  1.3844 -0.5785  1.0631
50590SOL    HW257091   1.216   5.520   4.897  0.5558  2.0720  1.3750
50591SOL     OW57092  11.284   4.974   0.139  0.9566 -0.1430  0.0669
50591SOL    HW157093  11.378   4.957   0.149  1.1107  1.1538  1.1886
50591SOL    HW257094  11.261   5.025   0.217 -0.5423  0.1261 -0.5245
50592SOL     OW57095   2.618   4.026  10.786  0.1672  0.2032  0.0658
50592SOL    HW157096   2.669   4.053  10.709 -0.9663 -3.1941 -2.1516
50592SOL    HW257097   2.612   4.104  10.840  2.9659  2.2139 -2.1940
50593SOL     OW57098   2.260   1.992   1.667 -0.5666  0.6883  0.1297
50593SOL    HW157099   2.288   1.901   1.681 -0.4961  0.3063 -2.0582
50593SOL    HW257100   2.175   1.984   1.623 -1.1125  1.7362  0.9354
50594SOL     OW57101   3.627   5.181   4.580  0.4733 -0.0452  0.6651
50594SOL    HW157102   3.674   5.226   4.650  2.6020 -1.0788 -0.0266
50594SOL    HW257103   3.662   5.218   4.499 -0.7583 -0.0439  0.0986
50595SOL     OW57104   1.259   7.350   7.062  0.2426 -0.6124  0.4201
50595SOL    HW157105   1.208   7.292   7.006  0.1134 -0.1970  0.1054
50595SOL    HW257106   1.219   7.437   7.050  0.3363 -0.4844  0.9993
50596SOL     OW57107   5.549   7.644   6.560 -0.1815  0.2282  0.5370
50596SOL    HW157108   5.515   7.694   6.486  1.8685  0.3236 -0.3990
50596SOL    HW257109   5.627   7.691   6.588  0.0211 -0.7354  1.6978
50597SOL     OW57110   6.775   1.578   3.817 -0.1681 -0.1316  0.5529
50597SOL    HW157111   6.738   1.516   3.753  0.0381 -0.9822  1.2311
50597SOL    HW257112   6.752   1.664   3.783  1.9245 -0.4285 -1.9172
50598SOL     OW57113  11.542   3.395   5.765  0.0217  0.0946  0.0820
50598SOL    HW157114  11.451   3.376   5.745  0.1864 -0.8190  0.1678
50598SOL    HW257115  11.589   3.313   5.747  0.5924  0.0858  1.4944
50599SOL     OW57116   9.869  11.588   8.239  0.2853 -0.1726  0.4788
50599SOL    HW157117   9.810  11.645   8.287  0.7453 -0.4424  1.3927
50599SOL    HW257118   9.827  11.574   8.154  0.3806  1.8987  0.0367
50600SOL     OW57119   7.512   9.010   4.527 -0.3035  0.2138  0.0320
50600SOL    HW157120   7.434   9.012   4.582 -1.6441  0.9009 -1.8051
50600SOL    HW257121   7.481   9.030   4.439  1.6119 -1.6943 -1.1964
50601SOL     OW57122   2.104   2.028   9.173 -0.2019  0.5022  0.7264
50601SOL    HW157123   2.121   2.003   9.264 -1.3852 -1.4582  0.4827
50601SOL    HW257124   2.149   1.961   9.122  1.3681  2.1872 -0.2281
50602SOL     OW57125   7.188   4.852   1.025  0.3272 -0.7053 -0.3689
50602SOL    HW157126   7.114   4.908   1.049 -0.1127 -1.1852 -0.5816
50602SOL    HW257127   7.264   4.894   1.064 -0.1578 -0.5924  0.4680
50603SOL     OW57128   1.267   7.595   5.590 -0.4048  0.3818  0.5746
50603SOL    HW157129   1.254   7.686   5.618 -1.5137  1.2091 -2.2258
50603SOL    HW257130   1.270   7.545   5.671  0.3549  2.9113  2.2324
50604SOL     OW57131  10.361   2.347   1.858  0.8494  0.0076  0.2416
50604SOL    HW157132  10.417   2.372   1.932  0.3762 -1.6666  1.2232
50604SOL    HW257133  10.382   2.255   1.842 -1.1176 -0.4879  0.2270
50605SOL     OW57134   2.568   1.033  10.265  0.4054  0.3218  0.2913
50605SOL    HW157135   2.600   1.101  10.206  0.0991  1.8334  1.7864
50605SOL    HW257136   2.647   0.991  10.298  0.5889 -0.3247 -0.8883
50606SOL     OW57137   3.757   0.935   4.744  0.0857  0.5256 -0.3702
50606SOL    HW157138   3.752   1.000   4.673 -2.1755  1.7610  0.7920
50606SOL    HW257139   3.668   0.901   4.751  0.7222 -1.0108  0.5981
50607SOL     OW57140   4.554   8.382   2.470  0.5930  0.2928  0.9783
50607SOL    HW157141   4.522   8.303   2.428 -0.3675  1.5087 -0.6873
50607SOL    HW257142   4.627   8.352   2.525 -0.3591 -1.8562  1.1665
50608SOL     OW57143   8.943   6.193  10.278 -0.4716  0.6309  0.2893
50608SOL    HW157144   8.947   6.098  10.285  1.1620  0.7408  1.2272
50608SOL    HW257145   8.892   6.221  10.354  1.7783  0.6622  1.8726
50609SOL     OW57146   4.827   5.838  11.564 -0.0956  0.4296  0.0370
50609SOL    HW157147   4.814   5.755  11.517  1.1987  0.5167 -0.5013
50609SOL    HW257148   4.869   5.896  11.500 -0.3694  1.2864  0.6200
50610SOL     OW57149  10.072   4.612   9.926 -0.2638 -0.0778  0.3952
50610SOL    HW157150  10.001   4.617   9.990  1.4653 -0.7106  2.4695
50610SOL    HW257151  10.092   4.518   9.919 -1.5691 -0.2520 -2.5184
50611SOL     OW57152  10.183  10.009   4.505 -0.2047  0.3357  0.3018
50611SOL    HW157153  10.250   9.941   4.515 -2.3554 -2.0723 -0.3532
50611SOL    HW257154  10.203  10.073   4.574  3.5483  0.5788 -0.8032
50612SOL     OW57155   0.503   1.507   4.235  0.0519 -0.2361 -0.1155
50612SOL    HW157156   0.495   1.412   4.232  1.1698 -0.3171 -1.1790
50612SOL    HW257157   0.539   1.525   4.322 -0.6625 -0.7205  0.2976
50613SOL     OW57158   6.261  10.084   4.354  1.2195  0.5903 -0.9462
50613SOL    HW157159   6.261  10.129   4.438 -0.6308  0.2546 -0.7227
50613SOL    HW257160   6.286   9.994   4.374 -0.8596  0.0783 -0.4431
50614SOL     OW57161   0.723   9.820   6.004  0.0197  0.2501 -0.3371
50614SOL    HW157162   0.739   9.908   5.969  0.4485 -0.1236 -1.1174
50614SOL    HW257163   0.746   9.762   5.932  0.0597 -0.5169  0.2876
50615SOL     OW57164   9.730   4.001   9.854 -0.1150 -0.1649  0.5593
50615SOL    HW157165   9.715   3.910   9.880 -0.1272 -0.5146 -0.6245
50615SOL    HW257166   9.642   4.035   9.836 -0.2601  0.5444  2.3829
50616SOL     OW57167   4.589   4.144   3.069  0.8588 -0.1739 -0.3421
50616SOL    HW157168   4.557   4.216   3.123  3.1920  1.2081 -0.6754
50616SOL    HW257169   4.553   4.066   3.109  0.1695  1.0129  1.4711
50617SOL     OW57170  11.761   7.795   6.894 -0.5302  0.3151 -0.3196
50617SOL    HW157171  11.675   7.793   6.851 -0.0239 -0.6524 -1.3107
50617SOL    HW257172  11.788   7.703   6.898  0.9206  0.6916 -0.9544
50618SOL     OW57173   1.733   1.576   5.448 -0.3442  0.0808  0.2861
50618SOL    HW157174   1.788   1.566   5.370  1.2115  1.8968  1.0752
50618SOL    HW257175   1.774   1.647   5.498 -0.2042 -2.1083  3.6512
50619SOL     OW57176   2.846   6.146  11.633 -0.3093  0.2235  0.3732
50619SOL    HW157177   2.910   6.075  11.640 -1.6311 -0.8627  2.6281
50619SOL    HW257178   2.804   6.132  11.549 -0.2067 -1.4018  0.5520
50620SOL     OW57179  11.284   3.323   5.687 -0.7769 -0.1926  0.0508
50620SOL    HW157180  11.248   3.391   5.630  0.3359  2.1533  1.9424
50620SOL    HW257181  11.210   3.294   5.740 -1.1484 -0.0325 -0.3737
50621SOL     OW57182   7.602   2.046   8.496 -0.3978 -0.2308  0.5183
50621SOL    HW157183   7.607   2.068   8.403 -0.6188 -0.9555  0.3303
50621SOL    HW257184   7.549   1.966   8.499 -1.1163  0.2615  1.3431
50622SOL     OW57185   8.192   4.410   4.865 -0.0278  0.2001 -0.1078
50622SOL    HW157186   8.236   4.328   4.844  0.0137  0.4947 -1.1909
50622SOL    HW257187   8.262   4.467   4.898 -0.2037 -0.4740  1.5427
50623SOL     OW57188   3.740   9.764   1.759 -0.4653  0.2304  0.4217
50623SOL    HW157189   3.713   9.765   1.667  1.8937 -0.9605 -0.3721
50623SOL    HW257190   3.767   9.674   1.775 -1.3335  0.2865  2.4836
50624SOL     OW57191   3.742   6.216  10.506 -0.2865 -0.5935  0.1739
50624SOL    HW157192   3.676   6.282  10.486 -0.0857 -0.4407  0.0131
50624SOL    HW257193   3.751   6.220  10.601  0.4097  0.2818  0.0851
50625SOL     OW57194   8.432  10.652   2.395  0.9795  0.2539  0.1236
50625SOL    HW157195   8.445  10.571   2.444  2.6953  0.7892  0.6277
50625SOL    HW257196   8.351  10.688   2.431 -0.6680 -1.9096 -1.1611
50626SOL     OW57197   8.035   8.284   3.201 -0.0496  0.7163 -0.5456
50626SOL    HW157198   8.084   8.267   3.121  1.7965 -0.0694  0.6659
50626SOL    HW257199   7.989   8.202   3.219  0.0528  0.6788 -0.4552
50627SOL     OW57200   4.568   5.446   4.513  0.5571 -0.1332 -0.2038
50627SOL    HW157201   4.480   5.483   4.514  0.5759 -0.0161 -1.3945
50627SOL    HW257202   4.622   5.512   4.557 -0.0134 -0.4188  0.9505
50628SOL     OW57203   4.601   8.523   6.951  0.4204  0.6251  0.4840
50628SOL    HW157204   4.673   8.488   6.899 -1.2759 -2.3985 -0.0728
50628SOL    HW257205   4.641   8.550   7.034  2.5921  2.0586 -0.9331
50629SOL     OW57206   1.772   5.495   9.441  0.1812 -1.0437  0.1512
50629SOL    HW157207   1.797   5.488   9.349 -1.5210 -2.8575 -0.2451
50629SOL    HW257208   1.731   5.411   9.461 -1.3360  0.0606  1.9938
50630SOL     OW57209   3.684  10.767   1.531 -0.2937 -0.0584  0.0007
50630SOL    HW157210   3.727  10.686   1.559 -0.0230 -0.2055 -0.7965
50630SOL    HW257211   3.599  10.765   1.575  0.7351  0.5511  2.0985
50631SOL     OW57212   8.897   7.725   9.244  0.1915  0.1755 -0.0578
50631SOL    HW157213   8.917   7.774   9.163  0.1539  1.1640  0.5099
50631SOL    HW257214   8.905   7.791   9.313  0.3301 -0.6886  0.7605
50632SOL     OW57215   4.908   0.610   7.217 -0.0775 -0.2165 -0.1810
50632SOL    HW157216   4.959   0.681   7.180  0.4954 -0.4551  0.1377
50632SOL    HW257217   4.935   0.606   7.309 -0.9577 -0.0903  0.0980
50633SOL     OW57218   4.289   7.208   2.266 -0.3370  0.4000  0.6163
50633SOL    HW157219   4.276   7.302   2.280 -3.7578 -0.2060  2.4435
50633SOL    HW257220   4.230   7.185   2.194  1.3245 -0.2595 -0.6209
50634SOL     OW57221   3.184   2.727   6.891 -0.4413  0.5103  0.4679
50634SOL    HW157222   3.279   2.720   6.882 -0.5616 -2.1327  0.6309
50634SOL    HW257223   3.150   2.710   6.803 -0.8114  0.2823  0.6527
50635SOL     OW57224   7.798   6.852   6.276 -0.0605 -0.4050  0.4790
50635SOL    HW157225   7.802   6.851   6.181  1.3468  1.3789  0.4729
50635SOL    HW257226   7.730   6.915   6.298  1.0861  0.8463  0.6032
50636SOL     OW57227  11.302  11.803   8.097  0.2820 -0.5739  0.3945
50636SOL    HW157228  11.367  11.843   8.039  0.1602  1.4712  1.5731
50636SOL    HW257229  11.354  11.758   8.164  0.4773 -0.2061  0.4930
50637SOL     OW57230  11.092   6.643   2.251 -0.2725 -0.4426  0.4553
50637SOL    HW157231  11.067   6.553   2.276  1.6857 -1.6118 -1.4319
50637SOL    HW257232  11.062   6.651   2.160  3.0438 -0.7626 -0.7906
50638SOL     OW57233   1.237   6.441   1.502  0.3591  0.0599  0.2526
50638SOL    HW157234   1.162   6.493   1.531  1.1079  1.7592 -0.7444
50638SOL    HW257235   1.209   6.350   1.516 -1.3096  0.6761  1.2572
50639SOL     OW57236   9.479   9.545   8.705  0.1719 -0.1112 -0.1885
50639SOL    HW157237   9.548   9.580   8.649  1.2454 -2.0834 -0.1820
50639SOL    HW257238   9.525   9.496   8.773 -1.2040 -0.6036  0.4300
50640SOL     OW57239  11.434   9.196   1.380  0.4078 -0.4664 -0.8197
50640SOL    HW157240  11.413   9.289   1.374  2.0442 -0.1455 -2.7938
50640SOL    HW257241  11.362   9.151   1.335 -0.0740 -0.1341 -0.3942
50641SOL     OW57242   7.107   3.485   8.268  0.2940  0.1087  0.4096
50641SOL    HW157243   7.162   3.444   8.202 -0.9510  0.0682 -0.6484
50641SOL    HW257244   7.114   3.579   8.252 -0.0052  0.0990  0.2042
50642SOL     OW57245   2.356   6.452  11.756 -0.4839 -0.2742  0.6999
50642SOL    HW157246   2.308   6.436  11.675 -0.4604  1.0750  0.4081
50642SOL    HW257247   2.411   6.374  11.767 -1.7009 -1.2242  0.3173
50643SOL     OW57248   3.362   8.441   3.399 -0.1668 -0.3106 -0.2529
50643SOL    HW157249   3.419   8.446   3.322  0.2337  0.1081  0.0708
50643SOL    HW257250   3.304   8.517   3.392  0.0358 -0.1334 -0.0077
50644SOL     OW57251   0.691   2.152  10.762 -0.4607  0.8447  0.2552
50644SOL    HW157252   0.761   2.216  10.747 -0.6571  1.2916  1.1679
50644SOL    HW257253   0.731   2.067  10.742  0.2719  1.1154  0.5503
50645SOL     OW57254   7.034  10.440   2.032  1.1427 -0.0185 -0.1899
50645SOL    HW157255   7.053  10.348   2.052  0.6002 -0.2888 -0.8731
50645SOL    HW257256   7.100  10.464   1.967  1.0548 -0.0376 -0.2866
50646SOL     OW57257   3.744   5.117   6.809 -0.0738  0.0707 -0.6134
50646SOL    HW157258   3.718   5.208   6.796  1.2076  0.1632 -2.8874
50646SOL    HW257259   3.679   5.067   6.760  0.2463 -0.1136 -0.8513
50647SOL     OW57260   9.067  11.547   3.215 -0.2933 -0.3722  0.1493
50647SOL    HW157261   9.026  11.503   3.290 -0.8126  0.2655  0.2588
50647SOL    HW257262   9.029  11.504   3.138 -0.0956 -0.7297  0.2486
50648SOL     OW57263   6.427   7.647   4.428 -0.2994  0.3217 -0.1843
50648SOL    HW157264   6.472   7.732   4.430  0.0375  0.2475 -2.1628
50648SOL    HW257265   6.338   7.667   4.456  0.1373  1.0508  0.7548
50649SOL     OW57266   0.959   6.723   8.671 -0.4609  0.2547 -0.0421
50649SOL    HW157267   0.952   6.651   8.733 -1.4429  0.3672 -0.0027
50649SOL    HW257268   1.017   6.786   8.715 -1.2809  0.4134  0.8647
50650SOL     OW57269  11.718  11.359   8.517 -0.2065 -0.0381  0.5688
50650SOL    HW157270  11.675  11.380   8.434 -0.3827 -1.5844  0.2458
50650SOL    HW257271  11.708  11.264   8.526  1.3796 -0.1505  1.4879
50651SOL     OW57272   0.532   5.380   8.963  0.4772  0.4285 -0.0706
50651SOL    HW157273   0.555   5.331   8.884  0.1825  1.6535 -0.9528
50651SOL    HW257274   0.611   5.428   8.985  0.2558  0.8831 -0.2439
50652SOL     OW57275   3.897  10.194   3.298  0.7025 -0.3558  0.0468
50652SOL    HW157276   3.915  10.160   3.210  2.3634  0.7531 -0.0889
50652SOL    HW257277   3.909  10.119   3.356 -0.7323 -1.1811 -0.6704
50653SOL     OW57278   4.362  11.032   1.980 -0.1356  0.1680  0.1959
50653SOL    HW157279   4.451  11.001   1.999  0.1377  1.1440  0.5825
50653SOL    HW257280   4.318  11.033   2.065 -0.1453  0.7833  0.1916
50654SOL     OW57281   6.150  10.553   2.838 -0.0998  0.3980  0.1324
50654SOL    HW157282   6.194  10.628   2.798  0.9241 -0.3562 -0.1900
50654SOL    HW257283   6.202  10.534   2.916 -0.9453  0.6375  0.7701
50655SOL     OW57284   7.930  10.050   6.661  0.2989  0.2452 -0.3952
50655SOL    HW157285   7.837  10.071   6.650  0.2777 -0.9380 -3.6155
50655SOL    HW257286   7.975  10.111   6.601  1.3958 -0.4551 -0.3011
50656SOL     OW57287  11.504   6.443   8.959 -0.1831  0.2844  0.1020
50656SOL    HW157288  11.546   6.486   8.885 -0.5866 -0.2686 -0.4633
50656SOL    HW257289  11.514   6.504   9.031  1.1516  0.3817 -0.1354
50657SOL     OW57290   9.754  10.554   3.569  0.2887  0.2346 -0.1350
50657SOL    HW157291   9.768  10.632   3.515  0.4538 -1.3322 -2.4999
50657SOL    HW257292   9.822  10.560   3.636  1.8087  1.0047 -1.6484
50658SOL     OW57293   9.994  11.680   4.922 -0.0239  0.7241 -0.3134
50658SOL    HW157294   9.918  11.626   4.946  0.8127  0.6249  2.4585
50658SOL    HW257295   9.962  11.770   4.929 -0.6668  0.6984 -2.2481
50659SOL     OW57296   8.125   7.197   3.495 -0.0276  0.3361 -0.2796
50659SOL    HW157297   8.191   7.178   3.561  1.1151  0.2051 -1.4236
50659SOL    HW257298   8.158   7.274   3.449  1.0964 -1.6381 -3.0604
50660SOL     OW57299   9.538   7.867   4.951  0.7403  0.1968  0.5770
50660SOL    HW157300   9.479   7.839   4.881  1.5072  0.7739 -0.3162
50660SOL    HW257301   9.523   7.804   5.022 -0.5161 -0.0121  0.1510
50661SOL     OW57302   2.518   1.784   1.271 -0.4358  0.3006 -0.4611
50661SOL    HW157303   2.530   1.719   1.202 -0.9831 -0.4295  0.1181
50661SOL    HW257304   2.487   1.734   1.346  1.2638  0.8995  0.6872
50662SOL     OW57305   5.181   4.997   7.451 -0.9868  0.4902  0.3850
50662SOL    HW157306   5.094   5.036   7.440 -1.6584 -1.0595 -0.0202
50662SOL    HW257307   5.185   4.928   7.386  0.7526  0.8139  0.0875
50663SOL     OW57308   0.747   3.114   3.227 -0.1724 -0.0389  0.6150
50663SOL    HW157309   0.678   3.164   3.184  0.3879 -0.9248 -1.4210
50663SOL    HW257310   0.784   3.175   3.291 -1.3183  1.1950  0.1607
50664SOL     OW57311   4.354   8.895   5.776 -0.4758  0.0820 -0.3043
50664SOL    HW157312   4.425   8.954   5.751 -1.4469  1.0267 -0.9473
50664SOL    HW257313   4.360   8.821   5.716 -0.2302  0.3170 -0.5680
50665SOL     OW57314   2.126   5.792   1.023 -0.1372  0.6799 -0.3957
50665SOL    HW157315   2.210   5.769   1.061 -0.9687 -0.4581  0.8692
50665SOL    HW257316   2.103   5.875   1.063  0.0844  0.6621 -0.2291
50666SOL     OW57317   1.415   7.073  11.190  0.4174 -0.3733 -0.6118
50666SOL    HW157318   1.428   7.079  11.285  1.4489  0.8079 -0.7990
50666SOL    HW257319   1.333   7.026  11.180  0.7978 -1.4314  0.8498
50667SOL     OW57320   7.036   9.666   2.105  0.4606  0.6926 -0.1538
50667SOL    HW157321   7.060   9.716   2.182 -1.0274  1.5732 -0.2291
50667SOL    HW257322   6.995   9.586   2.139 -1.2312  1.5859  0.0352
50668SOL     OW57323   9.060   4.257   0.684 -0.8741  0.2007 -0.8562
50668SOL    HW157324   9.016   4.268   0.599  1.0153  0.5516 -1.8366
50668SOL    HW257325   9.149   4.229   0.662 -0.7079 -0.9377  1.0816
50669SOL     OW57326  11.697   9.119   1.905  0.2308  0.4162 -0.2384
50669SOL    HW157327  11.676   9.040   1.955  0.5603 -0.6424 -1.7052
50669SOL    HW257328  11.615   9.166   1.899 -0.6906 -1.2811 -1.7990
50670SOL     OW57329   7.997   8.520   5.312  0.0295  1.2504  0.5396
50670SOL    HW157330   7.984   8.450   5.248 -0.6889  0.4222  1.5620
50670SOL    HW257331   8.077   8.564   5.283  0.2584  0.2805 -0.3708
50671SOL     OW57332  11.373  11.813   9.368 -0.1186  0.1132  0.0330
50671SOL    HW157333  11.411  11.786   9.452 -0.7109 -1.2266 -0.0925
50671SOL    HW257334  11.445  11.807   9.306 -0.0915 -0.6841  0.1241
50672SOL     OW57335   3.428   1.031   6.037  0.5033 -0.1753  0.0688
50672SOL    HW157336   3.459   1.063   6.122  0.3168  0.6266 -0.1508
50672SOL    HW257337   3.496   1.057   5.975 -0.3896  1.2566 -0.3559
50673SOL     OW57338   3.474   7.562   7.681  0.0723  0.4371  0.0430
50673SOL    HW157339   3.390   7.535   7.717  0.2517 -0.7848 -0.4193
50673SOL    HW257340   3.454   7.641   7.631 -1.2595 -1.0492 -1.9327
50674SOL     OW57341  11.527  10.885   5.211  0.2692 -0.1258 -0.3609
50674SOL    HW157342  11.475  10.946   5.159 -3.1397 -2.6266 -0.2077
50674SOL    HW257343  11.517  10.916   5.302 -0.0302 -0.0115 -0.4336
50675SOL     OW57344  11.266   9.092   5.303 -0.8942 -0.2407 -0.0330
50675SOL    HW157345  11.299   9.109   5.391 -1.6779  2.1513 -0.1283
50675SOL    HW257346  11.269   9.177   5.260 -0.2290 -1.4172 -2.4526
50676SOL     OW57347   0.421  10.238  10.268  0.3679  0.2819 -0.3687
50676SOL    HW157348   0.354  10.274  10.210  0.4406 -0.1405 -0.7224
50676SOL    HW257349   0.449  10.312  10.321 -0.1049  0.5483 -0.4839
50677SOL     OW57350   3.747   5.014  11.422 -0.8659 -0.1894  0.2169
50677SOL    HW157351   3.789   5.073  11.359 -3.5933  0.8427 -0.7790
50677SOL    HW257352   3.710   4.944  11.368 -2.2529  0.0902  0.7486
50678SOL     OW57353   9.370   1.645   9.366 -0.5013 -0.2148 -0.0720
50678SOL    HW157354   9.351   1.604   9.282  2.9583  0.5237 -1.3939
50678SOL    HW257355   9.422   1.580   9.414 -2.6508 -0.7372  1.7203
50679SOL     OW57356   8.147   2.155   0.991 -0.1823  0.3357  0.1043
50679SOL    HW157357   8.135   2.240   1.033 -3.0794  0.7595 -1.3135
50679SOL    HW257358   8.173   2.176   0.901  1.2285 -0.3957  0.3157
50680SOL     OW57359   6.508   0.231   2.331 -0.6864 -0.2915  0.6481
50680SOL    HW157360   6.582   0.171   2.321  0.2548  0.7468  1.2286
50680SOL    HW257361   6.540   0.315   2.297 -1.6928  0.1097  0.6569
50681SOL     OW57362   9.865   3.612   6.998  0.4757  0.0416  0.0320
50681SOL    HW157363   9.912   3.681   7.046  1.2985 -0.7234  0.3300
50681SOL    HW257364   9.783   3.655   6.971  0.6273  0.9136  0.8800
50682SOL     OW57365   7.098   4.697   0.532 -0.2179  0.4324 -0.1680
50682SOL    HW157366   7.068   4.669   0.446  1.0477  0.9697 -0.8178
50682SOL    HW257367   7.181   4.651   0.545  0.7482  2.0292 -0.2628
50683SOL     OW57368   5.743   6.973  11.480 -0.4979 -0.3020 -0.4208
50683SOL    HW157369   5.701   6.887  11.477 -0.7965 -0.1783  0.0952
50683SOL    HW257370   5.736   7.007  11.391 -2.6052  0.2381 -0.1052
50684SOL     OW57371   0.434   7.071   3.855  0.4615 -0.4063  0.6600
50684SOL    HW157372   0.440   7.066   3.950 -0.7021  0.0184  0.7769
50684SOL    HW257373   0.426   7.165   3.837 -1.7041 -0.5881  0.3571
50685SOL     OW57374   2.811   2.924   7.760  0.5634 -0.1167 -0.0140
50685SOL    HW157375   2.877   2.872   7.715 -1.0514 -1.2627 -1.1806
50685SOL    HW257376   2.778   2.867   7.830  0.4762  0.2835  0.2803
50686SOL     OW57377   8.669   9.959   4.826 -0.1043  0.4417 -0.1070
50686SOL    HW157378   8.714   9.942   4.743  0.1223 -2.2665  0.4872
50686SOL    HW257379   8.577   9.944   4.807 -0.3546  2.1878 -0.3992
50687SOL     OW57380   0.014   0.978   9.972 -0.1997  0.2732 -0.0236
50687SOL    HW157381   0.021   0.945   9.882  1.4816 -1.8550  0.7998
50687SOL    HW257382  -0.027   0.907  10.020  0.5693  0.6741  1.2524
50688SOL     OW57383   0.264   3.679   1.601 -0.0104  0.0561 -0.0912
50688SOL    HW157384   0.297   3.739   1.669 -1.3520  0.5281  0.1763
50688SOL    HW257385   0.199   3.626   1.646 -1.5093  0.9169 -1.1566
50689SOL     OW57386   5.194   8.899   8.800  0.4422 -0.7013  0.2321
50689SOL    HW157387   5.252   8.962   8.843  0.1821 -0.5954  0.4373
50689SOL    HW257388   5.234   8.883   8.715  0.6944 -0.5219  0.3155
50690SOL     OW57389   9.680   7.728   9.707 -0.2076 -0.4757 -0.4409
50690SOL    HW157390   9.655   7.818   9.687 -0.8945  0.2212  3.0186
50690SOL    HW257391   9.774   7.733   9.725 -0.7928  0.3593  3.0110
50691SOL     OW57392   4.507   4.473   9.983  0.2834 -0.0936  0.2273
50691SOL    HW157393   4.460   4.542  10.029  0.2447 -0.6394  1.0435
50691SOL    HW257394   4.507   4.399  10.045 -0.1569 -1.0094 -0.8346
50692SOL     OW57395   4.580   5.068   0.347 -0.7909  1.1239 -0.4695
50692SOL    HW157396   4.551   5.022   0.426 -0.7153  0.3019 -0.9005
50692SOL    HW257397   4.675   5.055   0.345 -0.7419  1.4851 -0.4815
50693SOL     OW57398   6.795   2.100   5.545 -0.5259 -0.5278 -1.2041
50693SOL    HW157399   6.741   2.173   5.574  1.4628  1.0500 -1.2155
50693SOL    HW257400   6.877   2.141   5.517  0.3304 -2.6979 -2.0974
50694SOL     OW57401   5.837   6.190   2.257  0.2966 -0.4255  0.2346
50694SOL    HW157402   5.788   6.111   2.281 -0.0267 -0.8585 -1.6825
50694SOL    HW257403   5.834   6.245   2.335 -1.2421 -1.4449  0.9338
50695SOL     OW57404  11.272   3.914  10.683  0.2014 -0.3422  0.0650
50695SOL    HW157405  11.274   3.826  10.646  1.0682  0.5730 -2.2545
50695SOL    HW257406  11.179   3.939  10.680  0.1468 -0.5920 -0.8229
50696SOL     OW57407   4.769   5.073   3.199  0.2461  0.7830  0.0615
50696SOL    HW157408   4.811   5.014   3.262  0.7856  0.5402 -0.5126
50696SOL    HW257409   4.693   5.108   3.245  0.3145  0.1715  0.6475
50697SOL     OW57410   5.982   3.113  10.801 -0.5676 -0.1127  0.0570
50697SOL    HW157411   5.978   3.062  10.721 -1.0742  0.5826 -0.3806
50697SOL    HW257412   5.963   3.051  10.871  1.3437 -1.0388 -0.1904
50698SOL     OW57413   2.116   3.564   6.723  0.2485  0.0878 -0.2332
50698SOL    HW157414   2.051   3.634   6.725  0.7046  0.5338  1.7594
50698SOL    HW257415   2.087   3.506   6.653 -2.2500  0.3288  0.4993
50699SOL     OW57416   4.865  10.845   1.818  0.3429  0.2617 -0.3301
50699SOL    HW157417   4.817  10.867   1.738  0.9209  0.8513 -0.5263
50699SOL    HW257418   4.952  10.884   1.805  0.9820 -1.0610 -0.1221
50700SOL     OW57419   0.427   1.291   5.024 -0.2509 -0.4219 -0.3504
50700SOL    HW157420   0.387   1.371   5.058 -1.4207 -1.4831  0.8941
50700SOL    HW257421   0.428   1.303   4.929  0.3561  1.3978 -0.1437
50701SOL     OW57422   2.691   0.447   4.178  0.6173 -0.3177  0.1269
50701SOL    HW157423   2.729   0.380   4.235 -0.9647 -0.6316  0.8725
50701SOL    HW257424   2.636   0.398   4.116 -0.5456  0.2623  0.6736
50702SOL     OW57425   3.106   6.638   4.622 -0.5233  0.2113 -0.2597
50702SOL    HW157426   3.042   6.568   4.634  0.3487 -0.8490 -1.4978
50702SOL    HW257427   3.187   6.593   4.601  0.1629  1.5906 -0.6808
50703SOL     OW57428   7.847   5.805  10.086 -0.6777  0.0240  0.3723
50703SOL    HW157429   7.786   5.776  10.019  0.3703  0.4920 -0.8274
50703SOL    HW257430   7.804   5.879  10.128 -0.8071  0.5396 -0.6596
50704SOL     OW57431   7.460   0.653   9.901 -0.1742  0.0813 -0.1443
50704SOL    HW157432   7.433   0.665   9.992  1.5579  1.3513  0.2565
50704SOL    HW257433   7.538   0.598   9.905  0.0071  0.2705 -0.8508
50705SOL     OW57434   6.614   8.296  10.321  0.6489  0.1441 -0.4113
50705SOL    HW157435   6.536   8.262  10.366  0.6806  2.3373  1.4820
50705SOL    HW257436   6.681   8.298  10.388  0.7164  3.5161 -0.4408
50706SOL     OW57437   1.479   3.510   0.437 -0.0183  0.3802 -0.3052
50706SOL    HW157438   1.451   3.426   0.473 -0.2926  0.9207  0.7755
50706SOL    HW257439   1.573   3.514   0.455  0.0598  0.1663 -0.6551
50707SOL     OW57440   8.322  11.510   0.685 -0.1733  0.3442 -0.1017
50707SOL    HW157441   8.330  11.415   0.671 -1.3925  0.2958 -0.5940
50707SOL    HW257442   8.306  11.546   0.598  0.2277  1.0069  0.0909
50708SOL     OW57443   8.390   3.339   1.046 -0.0573 -0.2156 -0.2417
50708SOL    HW157444   8.313   3.381   1.007  0.0103 -0.0198 -0.1681
50708SOL    HW257445   8.406   3.263   0.991 -2.7563 -2.6741  2.0457
50709SOL     OW57446   5.356   5.169   1.036 -0.2902 -0.1046 -0.2656
50709SOL    HW157447   5.393   5.081   1.033  0.2891  0.1296 -0.2451
50709SOL    HW257448   5.292   5.166   1.107 -0.1449 -0.4627 -0.1465
50710SOL     OW57449  11.804  11.279   2.399 -0.1968  0.2133  0.2966
50710SOL    HW157450  11.774  11.328   2.476 -0.7492 -1.0599  0.9300
50710SOL    HW257451  11.872  11.220   2.433  0.1953  0.2740 -0.3689
50711SOL     OW57452   8.562   0.752  11.183  0.1322  0.1909  0.0334
50711SOL    HW157453   8.559   0.779  11.091  0.0989  0.1588  0.0255
50711SOL    HW257454   8.655   0.759  11.207  0.3665 -1.1220 -0.3964
50712SOL     OW57455   6.530   8.404   6.817 -0.5140 -0.0485  0.0114
50712SOL    HW157456   6.545   8.498   6.805  1.1121 -0.4803 -1.8207
50712SOL    HW257457   6.564   8.386   6.905  1.2774  0.7326 -0.4727
50713SOL     OW57458   2.811   2.174  10.856  0.1304 -0.0601  0.3836
50713SOL    HW157459   2.797   2.269  10.854  1.9880  0.2723  1.3783
50713SOL    HW257460   2.723   2.137  10.843 -0.5873  1.7693 -0.3141
50714SOL     OW57461  11.029   3.313  10.111 -0.1768 -0.6690  0.8854
50714SOL    HW157462  11.010   3.231  10.066 -1.1614  0.1320 -0.2083
50714SOL    HW257463  10.944   3.357  10.118  0.7490  1.9458 -1.9322
50715SOL     OW57464   7.872   6.198   9.938  0.4906  0.5797 -0.2436
50715SOL    HW157465   7.956   6.223   9.976  2.2850  0.4408 -3.6964
50715SOL    HW257466   7.839   6.277   9.896 -1.3300  0.7079  1.3188
50716SOL     OW57467  10.171   3.493  11.291 -0.3947  0.1434  0.1426
50716SOL    HW157468  10.091   3.450  11.260  1.6376 -2.3363 -2.2282
50716SOL    HW257469  10.192   3.557  11.223 -1.3175  2.2538  1.7461
50717SOL     OW57470   1.371   6.021   1.667  0.1470  0.1295 -0.0263
50717SOL    HW157471   1.300   6.056   1.613 -0.7469 -4.6287 -2.4467
50717SOL    HW257472   1.334   6.015   1.755 -0.5880  2.2251 -0.1205
50718SOL     OW57473  10.650   6.775   4.596  0.4750  1.0107 -0.2306
50718SOL    HW157474  10.592   6.833   4.646  0.1887 -0.1263  0.8160
50718SOL    HW257475  10.618   6.687   4.615  0.7385  0.5052 -1.9918
50719SOL     OW57476  11.456   8.912   9.668  0.5397 -0.7300  0.1669
50719SOL    HW157477  11.445   9.005   9.687  0.8580 -0.9394  1.4377
50719SOL    HW257478  11.371   8.873   9.689  0.0387 -0.5727 -1.4680
50720SOL     OW57479   9.411   3.477   8.417  0.2271  0.0582 -0.2613
50720SOL    HW157480   9.337   3.536   8.403 -1.0631 -1.4755 -0.2130
50720SOL    HW257481   9.483   3.534   8.444 -1.5323  1.3947  1.9270
50721SOL     OW57482  11.190   7.704   6.338  0.0570 -0.2851  0.4269
50721SOL    HW157483  11.251   7.631   6.343  0.7848  0.3445  1.1456
50721SOL    HW257484  11.136   7.686   6.261  1.4192 -0.6623 -0.4736
50722SOL     OW57485   8.244  11.656   8.330  0.3832 -0.1185 -0.3578
50722SOL    HW157486   8.337  11.667   8.306 -0.0539  1.4039 -1.5582
50722SOL    HW257487   8.240  11.678   8.422  1.1310  0.4268 -0.4465
50723SOL     OW57488   9.531   0.218   9.257  0.3768 -0.3087  0.8527
50723SOL    HW157489   9.509   0.130   9.224  0.0674 -0.5702  1.7205
50723SOL    HW257490   9.622   0.210   9.286  0.5484 -0.1632  0.3722
50724SOL     OW57491  11.632   6.243   0.485  0.0273 -0.3031  0.2970
50724SOL    HW157492  11.574   6.298   0.431  0.7492 -0.3797 -0.5895
50724SOL    HW257493  11.693   6.305   0.524 -0.0653 -0.3197  0.4669
50725SOL     OW57494   1.781   7.916  11.119 -0.1896  0.2469 -0.3336
50725SOL    HW157495   1.691   7.921  11.085 -0.1294 -0.2008 -0.5560
50725SOL    HW257496   1.787   7.829  11.158 -0.1493  0.6298  0.5327
50726SOL     OW57497   4.820   8.133   5.777 -0.1526  0.0480  0.2423
50726SOL    HW157498   4.894   8.160   5.723 -1.8949  0.3585 -2.1273
50726SOL    HW257499   4.843   8.044   5.806  1.1944  0.1920 -0.3208
50727SOL     OW57500   9.641  11.749   1.999  0.3432 -0.3726 -0.0852
50727SOL    HW157501   9.632  11.684   2.069  1.4989 -1.4130 -0.8794
50727SOL    HW257502   9.554  11.789   1.993  0.0836 -0.6167  1.5905
50728SOL     OW57503   8.057  11.121   2.448  0.0859 -0.1413  0.6828
50728SOL    HW157504   8.051  11.126   2.353 -1.4969 -1.2708  0.6691
50728SOL    HW257505   8.029  11.208   2.478 -0.3827 -0.0877  0.1216
50729SOL     OW57506   9.579   4.330  10.825  0.1970 -0.6458 -0.3365
50729SOL    HW157507   9.487   4.321  10.852 -0.2614 -1.3301 -2.0458
50729SOL    HW257508   9.590   4.268  10.753  2.1025 -0.7956  0.0298
50730SOL     OW57509   1.577  11.316   9.328  0.0427  0.1119  0.3986
50730SOL    HW157510   1.581  11.250   9.397 -1.6234 -0.1571  0.2642
50730SOL    HW257511   1.484  11.323   9.306  0.0813  2.8660  0.7548
50731SOL     OW57512  11.172   5.337   8.573 -0.1756 -0.5373  0.0419
50731SOL    HW157513  11.133   5.424   8.580 -1.1406 -0.8591 -1.0148
50731SOL    HW257514  11.126   5.296   8.499  2.2715 -0.8768 -1.4115
50732SOL     OW57515   2.336   2.832   3.015 -0.4166 -0.5631  0.3712
50732SOL    HW157516   2.254   2.784   3.025 -1.4073  0.9363 -0.2091
50732SOL    HW257517   2.326   2.910   3.069  1.7967 -1.6607  2.5831
50733SOL     OW57518   6.217   9.951   9.477  0.0693  0.1227  0.8231
50733SOL    HW157519   6.304   9.940   9.440 -0.8972 -0.2118 -1.5155
50733SOL    HW257520   6.179   9.863   9.475 -0.3232  0.2449  1.9249
50734SOL     OW57521   7.039   4.587   1.581 -0.5358  1.1585  0.3856
50734SOL    HW157522   7.107   4.641   1.619  1.6616 -1.1168 -0.0281
50734SOL    HW257523   7.034   4.615   1.490 -0.7821  1.8940  0.6182
50735SOL     OW57524  10.099   3.494   3.543  0.2791 -0.6437 -0.9282
50735SOL    HW157525  10.030   3.550   3.507  1.6891  2.4509  0.7962
50735SOL    HW257526  10.170   3.554   3.564  1.5167 -2.8951  2.1561
50736SOL     OW57527   9.806   9.454   0.675 -0.0995 -0.3575  0.3644
50736SOL    HW157528   9.786   9.443   0.768  0.4881  1.4393  0.7300
50736SOL    HW257529   9.901   9.448   0.670 -0.0128  1.0032  0.1144
50737SOL     OW57530   2.542   0.416   3.052 -0.3972  0.0991 -0.1016
50737SOL    HW157531   2.486   0.353   3.007 -0.4905 -0.1417  0.3398
50737SOL    HW257532   2.491   0.497   3.054 -1.4399 -0.5429  1.7238
50738SOL     OW57533   7.253   9.287   9.374 -0.1413 -0.4967 -0.5125
50738SOL    HW157534   7.310   9.311   9.300 -0.1929 -0.2740 -0.4816
50738SOL    HW257535   7.177   9.344   9.364 -0.8126 -1.4804 -1.1121
50739SOL     OW57536   1.376   6.244   0.964 -0.5907 -0.2397 -0.0827
50739SOL    HW157537   1.385   6.322   0.909  0.1133  1.0187  1.7323
50739SOL    HW257538   1.464   6.231   1.000 -0.5301 -2.2922 -0.8265
50740SOL     OW57539   9.656   1.069   2.049 -0.1820  0.1450  0.1550
50740SOL    HW157540   9.579   1.017   2.028  0.4746 -0.0588 -2.0776
50740SOL    HW257541   9.642   1.152   2.004 -0.1256  1.0239  1.6835
50741SOL     OW57542   6.352   7.165   7.184  0.2135 -0.2022  0.1283
50741SOL    HW157543   6.292   7.163   7.109  1.2294  0.5932 -0.7350
50741SOL    HW257544   6.434   7.199   7.148  0.6235  0.5121  1.6768
50742SOL     OW57545   2.332   4.444   0.593 -0.0324  0.1331  0.3683
50742SOL    HW157546   2.397   4.514   0.591  0.1996 -0.0923 -1.0940
50742SOL    HW257547   2.374   4.371   0.549 -0.5941 -0.6634  1.1193
50743SOL     OW57548   5.559   7.148   9.797  0.3392  0.0287 -0.2255
50743SOL    HW157549   5.591   7.102   9.875  1.4821  0.3423 -0.5015
50743SOL    HW257550   5.531   7.078   9.738 -2.2515 -0.1997  1.1200
50744SOL     OW57551   3.366  10.903   2.084 -0.8938  0.1341 -0.4643
50744SOL    HW157552   3.365  10.869   2.174  0.7379  0.9045 -0.1124
50744SOL    HW257553   3.459  10.914   2.064 -1.2882  1.8079 -1.5618
50745SOL     OW57554   0.684  11.499   7.912 -0.1600  0.2228 -0.1644
50745SOL    HW157555   0.687  11.413   7.869  0.0584  0.2206 -0.1462
50745SOL    HW257556   0.716  11.560   7.846 -0.5892  0.3341 -0.2757
50746SOL     OW57557   5.888   2.991   5.052  0.1179 -0.0532  0.1034
50746SOL    HW157558   5.840   2.960   4.975  0.8136  0.0530 -0.3874
50746SOL    HW257559   5.881   3.086   5.048  0.0106 -0.0544  0.2669
50747SOL     OW57560   1.121   4.385   1.546  0.6417  0.9075  0.0557
50747SOL    HW157561   1.049   4.400   1.607 -1.2471 -2.8352 -0.9633
50747SOL    HW257562   1.099   4.438   1.470  0.2793  1.6018  0.6243
50748SOL     OW57563  10.111   9.194   8.444 -0.2152  0.3135  0.6203
50748SOL    HW157564  10.100   9.105   8.479 -0.3151 -0.0784 -0.3572
50748SOL    HW257565  10.202   9.195   8.413 -0.4441  0.2799 -0.0744
50749SOL     OW57566   8.339   1.475  10.567  0.1027 -0.1789 -0.0493
50749SOL    HW157567   8.294   1.412  10.509  0.7345 -0.4868 -0.2129
50749SOL    HW257568   8.370   1.421  10.640 -0.2332  0.1228  0.3206
50750SOL     OW57569   0.008   0.865   7.790 -0.1821 -0.3454  0.1808
50750SOL    HW157570   0.006   0.770   7.797 -0.5342 -0.2877  1.1036
50750SOL    HW257571  -0.071   0.887   7.741  0.2048 -0.5577 -0.5431
50751SOL     OW57572  10.260   5.528   6.140 -0.1505  0.3133  0.2468
50751SOL    HW157573  10.350   5.555   6.122 -0.5396  0.5694 -1.4218
50751SOL    HW257574  10.248   5.546   6.234  0.4607  3.5160 -0.1675
50752SOL     OW57575   0.935   8.643   9.558 -0.0156 -0.1753  0.0226
50752SOL    HW157576   0.890   8.654   9.474  0.9056  1.4571 -0.2936
50752SOL    HW257577   0.905   8.716   9.612  1.0350  0.0363  0.3419
50753SOL     OW57578   7.636  11.099   6.118 -0.2929 -1.0261  0.0485
50753SOL    HW157579   7.594  11.182   6.140  0.7137 -0.7944  1.2430
50753SOL    HW257580   7.652  11.104   6.024  0.3186  0.4360  0.1901
50754SOL     OW57581   0.356   7.305   4.237 -0.1578 -0.0198 -0.1265
50754SOL    HW157582   0.317   7.344   4.315  0.6182  0.1534  0.1871
50754SOL    HW257583   0.299   7.231   4.216 -0.5738  0.1446  0.3934
50755SOL     OW57584   4.346  10.450   2.270 -0.1823 -0.5065  0.0969
50755SOL    HW157585   4.271  10.422   2.322  1.9181 -2.1445  2.5362
50755SOL    HW257586   4.310  10.466   2.183 -3.2063 -1.9246  0.9331
50756SOL     OW57587   4.205   8.276   8.986  0.0292  0.6424  0.0620
50756SOL    HW157588   4.140   8.316   9.043  1.2141  0.8912  1.3104
50756SOL    HW257589   4.236   8.200   9.035 -0.0042 -0.0338 -0.9374
50757SOL     OW57590   7.602   1.333   5.707  0.4136  0.1426 -0.3436
50757SOL    HW157591   7.615   1.238   5.704 -0.9476 -0.0391 -1.5311
50757SOL    HW257592   7.650   1.361   5.785 -0.9121 -1.8104  1.2766
50758SOL     OW57593   4.729   3.769   8.223 -0.2197  0.1041 -0.7331
50758SOL    HW157594   4.754   3.690   8.175 -1.2260 -0.6365 -0.0884
50758SOL    HW257595   4.772   3.840   8.176 -0.1927 -0.7150 -2.0035
50759SOL     OW57596   7.341   6.449  11.082  0.4600 -0.1582  0.1647
50759SOL    HW157597   7.278   6.506  11.037  0.2399 -0.1055  0.5315
50759SOL    HW257598   7.371   6.502  11.157  0.8828 -0.2125  0.0401
50760SOL     OW57599   9.625   7.387   4.285  0.3169  0.3346  0.1796
50760SOL    HW157600   9.602   7.480   4.285  0.3180  0.3544 -1.1392
50760SOL    HW257601   9.704   7.382   4.231 -0.2225 -0.5390 -0.5682
50761SOL     OW57602   4.728   9.735   0.632  0.1156 -0.6525  0.5827
50761SOL    HW157603   4.770   9.745   0.717 -2.3409 -0.2476  1.8632
50761SOL    HW257604   4.791   9.687   0.578  1.7312 -0.9400  2.6417
50762SOL     OW57605   1.488   8.005  10.344 -0.6381  0.0444  0.0280
50762SOL    HW157606   1.485   7.939  10.275 -0.0460 -0.3693  0.3969
50762SOL    HW257607   1.486   8.089  10.298  0.5353 -0.2274 -0.5242
50763SOL     OW57608   8.329   1.526  10.975 -0.3225 -0.4896 -0.5727
50763SOL    HW157609   8.330   1.488  11.063 -1.1425  1.3101  0.2456
50763SOL    HW257610   8.237   1.527  10.950 -0.2259  0.2385 -0.9073
50764SOL     OW57611   2.166   6.584   0.097 -0.0047  0.5120  0.2175
50764SOL    HW157612   2.231   6.556   0.033 -0.4339  0.5378 -0.2347
50764SOL    HW257613   2.119   6.656   0.055  0.1540  0.9817  0.8253
50765SOL     OW57614  10.473   6.077   4.215  0.0272  0.2859  0.1290
50765SOL    HW157615  10.561   6.109   4.197 -0.0684  1.0468  0.9549
50765SOL    HW257616  10.462   6.003   4.155  1.1608  0.2783 -0.0953
50766SOL     OW57617   0.237   6.504   8.138 -0.4519 -0.3419  0.0841
50766SOL    HW157618   0.207   6.545   8.219  0.5151 -0.3590  0.4635
50766SOL    HW257619   0.157   6.485   8.090 -0.9800  0.8870  0.4361
50767SOL     OW57620   4.360   6.552   2.750 -0.0088 -0.3635 -0.3599
50767SOL    HW157621   4.326   6.640   2.736 -2.2264 -1.0388  0.4121
50767SOL    HW257622   4.332   6.529   2.838  0.3181 -1.9341 -0.6389
50768SOL     OW57623   4.157   4.312   9.568 -0.0389 -0.0152 -0.1266
50768SOL    HW157624   4.164   4.394   9.520 -0.8611  0.3229  0.3025
50768SOL    HW257625   4.163   4.338   9.660 -0.1685 -0.4476  0.0084
50769SOL     OW57626  10.561  10.536   8.778 -0.0244 -0.0701 -0.5083
50769SOL    HW157627  10.622  10.608   8.795 -0.1901  0.0427 -0.3947
50769SOL    HW257628  10.474  10.574   8.794 -0.3132  0.4708 -2.9227
50770SOL     OW57629   0.185  11.526   7.552  1.2624 -0.2631  0.2453
50770SOL    HW157630   0.255  11.526   7.487  1.0562 -0.7348  0.0184
50770SOL    HW257631   0.138  11.608   7.536  1.7473  0.0397  0.3828
50771SOL     OW57632   1.531   7.612   4.143 -0.9525  0.1432  0.0724
50771SOL    HW157633   1.560   7.532   4.098  0.7120  1.3069 -1.0568
50771SOL    HW257634   1.597   7.626   4.211 -1.9290 -0.0901  1.0949
50772SOL     OW57635   5.613   8.401   7.616 -0.1357 -0.4768  0.1709
50772SOL    HW157636   5.520   8.390   7.634 -0.5970 -0.7765 -2.1361
50772SOL    HW257637   5.629   8.351   7.536  1.8662  0.1341  0.1128
50773SOL     OW57638   1.490   0.633   6.000  0.1015  0.6264  0.3250
50773SOL    HW157639   1.426   0.643   6.071  0.3223  1.1310  0.4548
50773SOL    HW257640   1.525   0.545   6.012  0.4828  0.8778  1.1353
50774SOL     OW57641   1.479  11.694   5.412 -0.0398 -0.6988  0.2077
50774SOL    HW157642   1.399  11.743   5.393  0.9864  1.2791  0.7708
50774SOL    HW257643   1.457  11.641   5.489 -0.5520  0.5097  0.9239
50775SOL     OW57644   5.654   4.507   5.984  0.2309  0.3140 -0.1826
50775SOL    HW157645   5.574   4.557   5.997  0.7539  0.7935  1.4724
50775SOL    HW257646   5.629   4.416   5.999 -0.1910  0.3606 -0.6049
50776SOL     OW57647   3.745   2.811   2.823 -0.2202 -0.2544  0.3209
50776SOL    HW157648   3.767   2.721   2.799 -1.3928 -0.5630  0.3118
50776SOL    HW257649   3.664   2.829   2.776 -1.2842 -0.0357  2.1181
50777SOL     OW57650   7.172   0.781  11.527  0.4593  0.1808 -0.1023
50777SOL    HW157651   7.136   0.759  11.613 -1.1117  3.0750  0.1110
50777SOL    HW257652   7.153   0.704  11.473 -0.1903 -0.9644  1.6641
50778SOL     OW57653   2.100   8.358   2.331 -0.0139 -0.3567 -0.2077
50778SOL    HW157654   2.148   8.372   2.413 -0.0606 -0.7357 -0.1133
50778SOL    HW257655   2.009   8.381   2.351  0.2298  1.0169 -0.5689
50779SOL     OW57656  11.634   0.315   8.043  0.1205 -0.4247 -0.1034
50779SOL    HW157657  11.618   0.282   8.131  1.1448 -0.0994  0.2186
50779SOL    HW257658  11.566   0.275   7.990 -1.5001  0.6073  1.1029
50780SOL     OW57659   8.705   2.403   9.652 -0.3942  0.0713  0.4101
50780SOL    HW157660   8.612   2.421   9.638 -0.7481 -0.9144  1.2831
50780SOL    HW257661   8.750   2.484   9.628 -1.4939  0.6241  0.1566
50781SOL     OW57662   3.706   9.718   4.147 -0.5877 -0.0062 -0.1989
50781SOL    HW157663   3.634   9.696   4.088 -1.3246 -2.3736  1.4095
50781SOL    HW257664   3.682   9.677   4.230  1.8691  0.5007  0.8577
50782SOL     OW57665   9.315   5.257  10.024 -0.0917 -0.6472 -0.4457
50782SOL    HW157666   9.310   5.260   9.928 -1.0641  0.9834 -0.3818
50782SOL    HW257667   9.382   5.322  10.046 -1.7634  0.9990  0.0452
50783SOL     OW57668   3.759   0.983   7.345 -0.4330  0.5183  0.2744
50783SOL    HW157669   3.712   0.982   7.261  1.9555  0.9212 -1.1542
50783SOL    HW257670   3.783   0.891   7.359  0.2531  0.6303 -0.1447
50784SOL     OW57671   5.853  10.125  10.540  0.0028  0.3651 -0.2321
50784SOL    HW157672   5.790  10.165  10.599 -1.4399  0.0521 -1.4982
50784SOL    HW257673   5.811  10.127  10.454  0.7812 -1.8256 -0.7446
50785SOL     OW57674   6.847   4.985  10.866  0.2375 -0.0053 -0.0544
50785SOL    HW157675   6.868   4.963  10.776  1.4913  0.0471  0.2127
50785SOL    HW257676   6.932   4.994  10.910 -0.2978  1.5494  0.7532
50786SOL     OW57677  10.438   9.555   3.573  1.2480 -0.3079 -0.4221
50786SOL    HW157678  10.381   9.483   3.600  0.0580  0.8634  0.3318
50786SOL    HW257679  10.487   9.577   3.651 -0.5639  1.6075  0.2694
50787SOL     OW57680   0.941   7.786   1.426 -0.3708 -0.3341 -0.0884
50787SOL    HW157681   0.883   7.841   1.373  2.4126  2.4483 -0.6101
50787SOL    HW257682   0.984   7.728   1.363  0.4503  0.6058 -0.4300
50788SOL     OW57683   9.943  10.168   7.404  0.1692  0.2905 -0.3172
50788SOL    HW157684   9.985  10.219   7.334  0.4311  1.3689  0.5878
50788SOL    HW257685   9.988  10.084   7.403 -0.4824 -0.0692 -2.0657
50789SOL     OW57686   6.958   9.554   7.947  0.0043 -0.0253  0.5038
50789SOL    HW157687   6.880   9.548   7.892  0.2719  2.6295 -0.2958
50789SOL    HW257688   6.929   9.603   8.024  0.8383  0.9449  0.2225
50790SOL     OW57689   0.976  10.674  11.775 -0.3609 -0.4114  0.2776
50790SOL    HW157690   1.007  10.680  11.684  0.5558  2.2603  0.6607
50790SOL    HW257691   1.056  10.683  11.828 -1.1752  1.1916  1.3067
50791SOL     OW57692   4.234   2.466   0.714  0.1953  0.1779 -0.3209
50791SOL    HW157693   4.305   2.411   0.746  0.9161 -0.4832 -2.7868
50791SOL    HW257694   4.159   2.406   0.708  0.6542 -0.3033 -1.8339
50792SOL     OW57695   0.429  11.014   5.535 -0.0570  0.2867  0.3320
50792SOL    HW157696   0.476  10.982   5.612 -0.3584 -1.5097 -0.1854
50792SOL    HW257697   0.410  10.935   5.484 -0.9591  1.3045 -0.9710
50793SOL     OW57698   7.280  10.410   9.660  0.2877  0.0460 -0.1813
50793SOL    HW157699   7.315  10.495   9.686  0.3974  0.1997 -0.8051
50793SOL    HW257700   7.191  10.408   9.697  0.2884  0.4279 -0.1570
50794SOL     OW57701   2.516   6.846   4.791 -0.1500 -0.7019 -0.3387
50794SOL    HW157702   2.560   6.932   4.788 -0.6578 -0.2868  2.0703
50794SOL    HW257703   2.584   6.786   4.820 -1.1169  0.1181  4.4377
50795SOL     OW57704   3.937   8.284   9.972 -0.2193 -0.2823 -0.3155
50795SOL    HW157705   3.849   8.263  10.006 -0.7498 -1.6762 -2.3447
50795SOL    HW257706   3.927   8.279   9.877  1.4404  2.3241 -0.7168
50796SOL     OW57707   3.862   4.409   2.175 -0.5500 -0.4526  0.6925
50796SOL    HW157708   3.777   4.367   2.175 -0.4890 -0.6399 -0.9039
50796SOL    HW257709   3.863   4.463   2.096  0.4763  0.2616  1.1538
50797SOL     OW57710   3.299   6.378   5.094  0.1796  0.0820 -0.5626
50797SOL    HW157711   3.394   6.390   5.089  0.1817  0.2648 -0.1652
50797SOL    HW257712   3.267   6.398   5.006  0.5875 -0.7435 -0.9092
50798SOL     OW57713   0.742   0.634  11.576  0.4837 -0.3354 -0.5355
50798SOL    HW157714   0.710   0.643  11.486 -0.6295 -0.4046 -0.1624
50798SOL    HW257715   0.714   0.546  11.603 -2.3929  0.9252  1.0557
50799SOL     OW57716  10.610   9.321   3.137 -0.2548  0.3630 -0.4751
50799SOL    HW157717  10.567   9.302   3.220  1.0035  0.2657  0.1781
50799SOL    HW257718  10.590   9.246   3.081  1.3081 -1.0417  0.7356
50800SOL     OW57719   4.390   6.312   8.155  0.7514  0.1743 -0.8749
50800SOL    HW157720   4.457   6.302   8.222  0.8099  2.0585 -0.5957
50800SOL    HW257721   4.437   6.295   8.073  0.9362 -1.0668 -0.5307
50801SOL     OW57722   2.866   3.944   7.706 -0.2295 -0.2645 -0.0486
50801SOL    HW157723   2.781   3.966   7.666  0.6256  1.0314 -1.2403
50801SOL    HW257724   2.883   4.016   7.766  1.2939  1.0111 -1.9002
50802SOL     OW57725   2.608  10.770  10.809  0.0702 -0.1910 -0.0818
50802SOL    HW157726   2.617  10.852  10.857  0.1877  0.2440 -0.8321
50802SOL    HW257727   2.587  10.705  10.876  0.6812  0.3130  0.6097
50803SOL     OW57728   8.313  11.005   6.887 -0.8424  0.1110  0.1306
50803SOL    HW157729   8.283  11.093   6.911 -0.9179  1.0999 -3.1365
50803SOL    HW257730   8.309  11.003   6.791  2.2268 -2.3619 -0.1258
50804SOL     OW57731   9.735   2.637   8.378 -0.2433 -0.4678  0.1944
50804SOL    HW157732   9.770   2.695   8.445  0.7052 -0.7479 -0.0504
50804SOL    HW257733   9.666   2.588   8.423 -0.4313  0.1848  0.6390
50805SOL     OW57734   7.045  10.889   1.350  0.3251 -0.1439  0.4313
50805SOL    HW157735   7.015  10.955   1.288  1.1054 -1.0776 -0.9967
50805SOL    HW257736   6.976  10.822   1.349 -0.0995  0.2659  1.2952
50806SOL     OW57737   9.726   6.063   8.984  0.6507  0.1997 -0.3768
50806SOL    HW157738   9.681   5.981   9.006  0.6958  0.5779  1.2919
50806SOL    HW257739   9.798   6.036   8.928  0.5133 -0.8807 -0.0745
50807SOL     OW57740  10.188   1.525   2.045 -0.0219  0.1191  0.0055
50807SOL    HW157741  10.208   1.557   1.957 -0.7658  0.3841 -0.0703
50807SOL    HW257742  10.243   1.579   2.102  1.0732 -0.5916 -0.3302
50808SOL     OW57743   0.307   0.591   3.661 -0.7852 -0.7552  0.0713
50808SOL    HW157744   0.395   0.608   3.694 -0.6974  0.3134 -0.6634
50808SOL    HW257745   0.280   0.510   3.705  0.2221 -0.6337  0.9506
50809SOL     OW57746   6.368  10.373  11.048 -0.1291  0.1067  0.3863
50809SOL    HW157747   6.326  10.314  10.985  0.0239  0.7483 -0.3377
50809SOL    HW257748   6.426  10.427  10.995 -0.4433  1.0691  1.0025
50810SOL     OW57749  11.649  11.818   2.858  0.1801 -0.0205  0.4313
50810SOL    HW157750  11.600  11.850   2.782  0.8977  0.8020  0.2946
50810SOL    HW257751  11.707  11.751   2.823 -0.1983 -0.3512  0.4345
50811SOL     OW57752   1.119   3.925   6.749 -0.1277  1.4054 -0.3043
50811SOL    HW157753   1.066   3.897   6.824  0.5760  1.4374  0.2080
50811SOL    HW257754   1.088   3.871   6.677  1.5413 -1.1384  0.7584
50812SOL     OW57755   8.020   0.425   9.664  0.0819  0.3317  0.0948
50812SOL    HW157756   8.066   0.479   9.600  0.2341  0.2101  0.1013
50812SOL    HW257757   8.088   0.397   9.725 -0.0947  0.5953  0.4142
50813SOL     OW57758  11.821  10.055   1.342 -0.4130 -0.0320  0.6422
50813SOL    HW157759  11.745  10.095   1.301 -0.5825  0.1884  1.1721
50813SOL    HW257760  11.889  10.123   1.340 -0.4754  0.0393  0.8783
50814SOL     OW57761   3.751   4.332   3.892  0.1080 -0.3250 -0.5537
50814SOL    HW157762   3.683   4.353   3.828 -1.4170 -1.0356  0.7698
50814SOL    HW257763   3.781   4.416   3.925 -2.8786  0.0409  1.5785
50815SOL     OW57764   7.454   7.669   4.623 -0.1484  0.1612  0.1416
50815SOL    HW157765   7.439   7.575   4.625  0.2859  0.0809 -0.1817
50815SOL    HW257766   7.394   7.702   4.556  0.7165 -0.0821 -0.7571
50816SOL     OW57767   5.573  10.900   2.896 -0.1761  0.0097  0.1363
50816SOL    HW157768   5.540  10.903   2.806 -0.4592 -0.3782  0.2268
50816SOL    HW257769   5.604  10.809   2.907 -1.0817 -0.2321  0.7666
50817SOL     OW57770   4.194   6.620  10.548 -0.7534  0.2262  0.3313
50817SOL    HW157771   4.178   6.648  10.638 -1.9065  0.6268  0.0156
50817SOL    HW257772   4.109   6.628  10.505 -0.9581 -2.7660 -0.0749
50818SOL     OW57773   6.836   0.347   2.550  0.6037 -0.1294 -0.6808
50818SOL    HW157774   6.922   0.363   2.589  0.1589  1.6189 -0.2955
50818SOL    HW257775   6.793   0.433   2.553 -1.8106 -1.2912  0.6998
50819SOL     OW57776   2.935  10.806   0.759 -0.2354  0.3033 -0.3785
50819SOL    HW157777   3.022  10.839   0.783  0.3393 -1.0273 -0.5026
50819SOL    HW257778   2.878  10.831   0.832  0.7765 -0.8302  0.8676
50820SOL     OW57779   4.867   0.965   0.509  0.2021 -0.2760 -0.3647
50820SOL    HW157780   4.868   0.870   0.503  0.6128 -0.4887  1.9847
50820SOL    HW257781   4.776   0.987   0.526  0.2246 -0.3144 -0.1956
50821SOL     OW57782  10.671   9.936   2.100 -0.4114  0.8607  0.3544
50821SOL    HW157783  10.649   9.896   2.016 -0.7648  2.5741 -0.4107
50821SOL    HW257784  10.614   9.892   2.163 -1.5236  0.8618 -0.6060
50822SOL     OW57785   1.541   5.191  10.947  0.3906 -0.2297 -0.1725
50822SOL    HW157786   1.513   5.261  10.888  2.2690 -0.2588 -1.1934
50822SOL    HW257787   1.621   5.157  10.907  0.5066 -1.7680  1.2523
50823SOL     OW57788   6.198   6.891   1.038  0.0498 -0.2260 -0.1070
50823SOL    HW157789   6.221   6.984   1.038  2.2994 -0.7313 -0.6093
50823SOL    HW257790   6.169   6.873   1.127 -0.4314  0.9510 -0.0151
50824SOL     OW57791   7.834   1.748   3.096  0.4236 -0.5007  0.5434
50824SOL    HW157792   7.757   1.806   3.095  0.5563 -0.3075  1.0113
50824SOL    HW257793   7.831   1.703   3.012 -0.2494 -0.5542  0.5902
50825SOL     OW57794   9.367   2.534   6.187  0.5330 -0.2780  0.3103
50825SOL    HW157795   9.328   2.524   6.275 -0.3288 -0.7860 -0.1111
50825SOL    HW257796   9.405   2.621   6.188 -0.9806  0.4224  0.6404
50826SOL     OW57797   9.908   4.299   3.040 -0.1107 -0.5351  0.6362
50826SOL    HW157798   9.939   4.209   3.034 -0.6727 -0.9349  2.7597
50826SOL    HW257799   9.870   4.317   2.954  0.4265 -2.1612  0.0198
50827SOL     OW57800   6.965   2.627   0.793  0.6706 -0.8023 -0.3996
50827SOL    HW157801   7.044   2.594   0.749  1.2601 -0.1471  0.1401
50827SOL    HW257802   6.986   2.620   0.886 -0.0228 -0.8764 -0.2496
50828SOL     OW57803   7.775   2.378   1.909  0.3923 -0.1863  0.6888
50828SOL    HW157804   7.704   2.422   1.861  0.7508 -0.8856 -0.5382
50828SOL    HW257805   7.736   2.295   1.938  0.1335  0.2985  1.7697
50829SOL     OW57806   7.066   9.558  11.648 -0.4539  0.1620 -0.0353
50829SOL    HW157807   7.026   9.641  11.673 -0.2404  0.1118  0.4824
50829SOL    HW257808   7.050   9.551  11.554  2.0146  2.1622 -0.7159
50830SOL     OW57809  11.266   8.846   0.948 -0.1591 -0.1217 -0.1922
50830SOL    HW157810  11.318   8.915   0.989 -1.4913  0.5014  0.5584
50830SOL    HW257811  11.177   8.882   0.945 -0.4892 -0.9724 -1.8004
50831SOL     OW57812   1.588   9.816   7.204  0.1310 -0.7154 -0.8687
50831SOL    HW157813   1.610   9.728   7.172  2.0106 -0.7401  0.3494
50831SOL    HW257814   1.672   9.860   7.215 -0.5645  0.2492  1.2554
50832SOL     OW57815   5.606   9.404   4.271  0.8444  0.1284  0.2836
50832SOL    HW157816   5.642   9.493   4.275  1.9539 -0.3505  2.3966
50832SOL    HW257817   5.515   9.414   4.299  1.1884  0.5332  1.3239
50833SOL     OW57818   5.826   1.094   9.922  0.7269 -0.7479 -0.3248
50833SOL    HW157819   5.828   1.022   9.859  0.7196  0.3106 -1.5736
50833SOL    HW257820   5.817   1.051  10.007 -0.8133 -2.1841 -1.1487
50834SOL     OW57821   0.201   0.366   4.246  0.0173 -0.2452  0.0560
50834SOL    HW157822   0.269   0.434   4.245  1.0651 -1.2594  0.3672
50834SOL    HW257823   0.123   0.411   4.278  0.1791  1.2628 -1.5391
50835SOL     OW57824   3.798   4.451   4.625 -0.0585 -0.2187 -0.6036
50835SOL    HW157825   3.837   4.515   4.565  1.7971 -0.9817 -0.2998
50835SOL    HW257826   3.783   4.373   4.570 -1.5604  0.1774 -0.7955
50836SOL     OW57827   2.425   9.531   6.482  0.0585 -0.2233 -0.2602
50836SOL    HW157828   2.421   9.462   6.548  0.2424 -0.5911 -0.6270
50836SOL    HW257829   2.503   9.510   6.430  1.3638  1.4780  0.9274
50837SOL     OW57830   0.931   2.634   4.516 -0.1955 -0.0045 -0.0894
50837SOL    HW157831   0.952   2.652   4.608 -0.2362  1.2606 -0.3058
50837SOL    HW257832   0.854   2.577   4.520 -0.7312  0.7409  0.6708
50838SOL     OW57833   8.476   5.650   7.647  0.3518  0.0405  0.6124
50838SOL    HW157834   8.411   5.637   7.717  0.6319 -2.3561  0.5159
50838SOL    HW257835   8.440   5.722   7.595 -1.1409  0.2089  1.7797
50839SOL     OW57836   0.445   5.334   6.105  0.5941 -0.0725  0.1597
50839SOL    HW157837   0.413   5.321   6.195  0.7479  0.9505  0.3761
50839SOL    HW257838   0.371   5.372   6.058  0.8545  0.3949  0.1307
50840SOL     OW57839  10.151   5.414   1.825  0.0757  0.2480 -0.2070
50840SOL    HW157840  10.099   5.363   1.887 -0.8784  0.5154 -0.7712
50840SOL    HW257841  10.208   5.350   1.783 -0.2999 -0.1701 -0.0865
50841SOL     OW57842  10.059   1.054   4.970 -0.1919  0.2091 -0.0941
50841SOL    HW157843  10.011   1.132   4.944  0.2545  1.6695  2.9938
50841SOL    HW257844   9.997   1.004   5.024  0.4665  0.0290  0.5148
50842SOL     OW57845   4.337   1.540   1.286 -0.0872 -0.1824  0.3353
50842SOL    HW157846   4.422   1.581   1.274  0.2216 -0.5989  0.9996
50842SOL    HW257847   4.353   1.447   1.271  0.0274 -0.5427  2.4046
50843SOL     OW57848   5.559   3.864   1.102 -0.2507 -0.3270 -0.4877
50843SOL    HW157849   5.642   3.863   1.054 -1.0997 -0.5197 -2.0149
50843SOL    HW257850   5.585   3.857   1.194  1.5199  1.6886 -0.7601
50844SOL     OW57851   6.527   9.571   3.882  0.4025  0.3855  0.2819
50844SOL    HW157852   6.543   9.634   3.812 -0.4167  0.3916  0.0926
50844SOL    HW257853   6.434   9.580   3.902  0.4423 -0.2297  0.7769
50845SOL     OW57854   7.068   3.295   7.436 -0.0348 -0.5983 -0.5271
50845SOL    HW157855   7.125   3.265   7.507  0.5258 -1.4307 -1.3042
50845SOL    HW257856   7.058   3.219   7.379  0.4177  0.3301 -1.9123
50846SOL     OW57857   5.390   1.132   5.997  0.2412  0.3295 -0.2359
50846SOL    HW157858   5.348   1.062   6.047 -0.3939  0.7280 -0.1968
50846SOL    HW257859   5.483   1.126   6.020  0.0409  0.1575  0.5669
50847SOL     OW57860  11.026   9.904   1.571 -0.7975  0.5876 -0.0095
50847SOL    HW157861  10.949   9.873   1.523 -0.5335 -1.2396  0.6938
50847SOL    HW257862  10.996   9.912   1.662  0.2183 -1.7823  0.6008
50848SOL     OW57863  10.804   2.271   3.327  0.6729 -0.1464  0.3067
50848SOL    HW157864  10.852   2.198   3.368 -0.7284 -0.4915  1.3937
50848SOL    HW257865  10.797   2.336   3.396  0.2047  0.2014 -0.0655
50849SOL     OW57866   1.070   1.080   5.704  0.8119 -0.5829 -0.0989
50849SOL    HW157867   0.998   1.080   5.641  0.2465 -0.8578  0.5345
50849SOL    HW257868   1.129   1.010   5.674  0.8200 -0.3551 -0.6187
50850SOL     OW57869   7.151   5.896   9.425 -0.4653 -0.6103  0.4919
50850SOL    HW157870   7.173   5.900   9.518 -0.9271 -1.6750  0.6664
50850SOL    HW257871   7.234   5.879   9.381 -0.3834 -1.0511  0.8085
50851SOL     OW57872   4.086   2.862   4.264 -0.3733  0.3091  0.4940
50851SOL    HW157873   4.135   2.781   4.249  0.5124  0.8541  0.3862
50851SOL    HW257874   3.999   2.843   4.230  0.3997  0.0998 -1.4930
50852SOL     OW57875   5.601   5.757   6.970 -0.6104 -0.1366 -0.6166
50852SOL    HW157876   5.686   5.723   6.944 -0.0215  0.2104  0.7668
50852SOL    HW257877   5.556   5.776   6.887  1.5101  1.8282 -1.4110
50853SOL     OW57878   0.022   7.075   6.450  0.5504  0.0785  0.7241
50853SOL    HW157879   0.057   6.988   6.432 -0.6044 -0.3678  0.5288
50853SOL    HW257880  -0.026   7.064   6.532 -0.7158  0.1877  0.0142
50854SOL     OW57881   8.742   6.790   3.226 -0.0109  0.0976 -0.8449
50854SOL    HW157882   8.682   6.844   3.276 -1.3838 -1.4376 -0.7454
50854SOL    HW257883   8.793   6.743   3.293 -0.0081  0.0152 -0.9040
50855SOL     OW57884   5.937   9.891   3.202  0.2428 -0.1542  0.0248
50855SOL    HW157885   6.011   9.885   3.141  0.4812  2.5869 -0.0478
50855SOL    HW257886   5.862   9.913   3.146  0.0844  0.5312  0.4975
50856SOL     OW57887   8.176   7.399   9.169  0.3287  0.2368 -0.4358
50856SOL    HW157888   8.226   7.325   9.137 -1.4742 -1.0207 -0.4861
50856SOL    HW257889   8.172   7.386   9.264 -1.5073 -0.7917 -0.6102
50857SOL     OW57890   1.535   9.658   4.619 -1.0325  0.2028 -0.4174
50857SOL    HW157891   1.570   9.611   4.544 -2.2033 -0.5365 -0.5351
50857SOL    HW257892   1.477   9.724   4.580 -1.0786  0.2923 -0.1954
50858SOL     OW57893   1.145   2.194  10.120  0.0364  1.4829 -0.4545
50858SOL    HW157894   1.158   2.180  10.026  2.6964  0.0587  0.0296
50858SOL    HW257895   1.233   2.205  10.155 -0.6971 -0.1354  2.1674
50859SOL     OW57896  10.254  11.582   9.493  0.1457  0.4112  0.0032
50859SOL    HW157897  10.334  11.616   9.534  0.5779  0.4977 -0.8875
50859SOL    HW257898  10.192  11.654   9.498  0.4214  0.6596 -0.1085
50860SOL     OW57899   6.426   8.504   4.194  0.1658 -0.0887 -0.1828
50860SOL    HW157900   6.471   8.511   4.110 -0.1279  0.5768 -0.2922
50860SOL    HW257901   6.343   8.549   4.181  0.8724  1.6733  0.9695
50861SOL     OW57902   0.464   2.982   4.650  0.2485  0.4693 -0.2744
50861SOL    HW157903   0.552   2.992   4.614  1.0008  1.4509  1.6861
50861SOL    HW257904   0.407   3.020   4.584  1.1256 -1.1784 -2.0883
50862SOL     OW57905   7.428   0.356   6.527  0.0929 -0.0607 -0.0109
50862SOL    HW157906   7.395   0.358   6.437  0.9195 -0.4654 -0.3315
50862SOL    HW257907   7.445   0.448   6.548 -0.3754  0.0614 -0.1680
50863SOL     OW57908   7.456   5.087   0.088 -0.0769  0.0230 -0.1653
50863SOL    HW157909   7.539   5.130   0.069  0.0123  0.3870  0.9615
50863SOL    HW257910   7.422   5.133   0.164  0.2425 -2.1615  1.4128
50864SOL     OW57911  10.697   7.746   2.325 -0.0587 -0.0676 -0.2230
50864SOL    HW157912  10.679   7.669   2.379 -0.7909  0.5744  0.4739
50864SOL    HW257913  10.772   7.789   2.367  0.3213 -0.3641 -0.5863
50865SOL     OW57914   9.605   1.042   5.238 -0.3234  0.1585 -0.2970
50865SOL    HW157915   9.681   1.085   5.200 -1.0414  0.6749 -1.1940
50865SOL    HW257916   9.595   0.961   5.188 -1.1070  0.7069 -1.0556
50866SOL     OW57917  10.175   3.222  10.048  0.6405  0.3767 -0.7872
50866SOL    HW157918  10.123   3.141  10.057  0.5142  0.3689 -1.5672
50866SOL    HW257919  10.244   3.213  10.114 -0.3622  0.4011  0.3016
50867SOL     OW57920   6.826   1.434   8.063  0.1022 -0.4328  0.3125
50867SOL    HW157921   6.916   1.462   8.075 -0.9966  2.2055  4.1890
50867SOL    HW257922   6.782   1.510   8.025 -1.4594  0.6752  3.9201
50868SOL     OW57923   3.841   5.914  10.793 -0.5174 -0.6097 -0.5429
50868SOL    HW157924   3.756   5.939  10.758  0.6211  1.0583 -2.3389
50868SOL    HW257925   3.886   5.997  10.809  0.3265 -1.4053  1.6450
50869SOL     OW57926   7.928  10.451   3.572  0.1189  0.1700 -0.2196
50869SOL    HW157927   8.010  10.407   3.596 -1.1787 -1.9051  0.8037
50869SOL    HW257928   7.908  10.506   3.648 -0.3541 -0.8135  0.3966
50870SOL     OW57929   9.696   9.662  10.871  0.3242  0.9324 -0.8912
50870SOL    HW157930   9.646   9.580  10.864 -0.5114  1.5459 -2.2853
50870SOL    HW257931   9.751   9.649  10.949 -0.3229 -0.6633 -0.6624
50871SOL     OW57932  10.405   3.027   6.696 -0.1731 -0.0670 -0.2410
50871SOL    HW157933  10.432   2.950   6.645  0.8289  0.7508 -0.9918
50871SOL    HW257934  10.345   2.992   6.762 -0.0987 -1.4221 -0.8544
50872SOL     OW57935   1.430   9.291   1.059 -0.4295 -0.2483  0.2705
50872SOL    HW157936   1.393   9.242   1.133  2.3719 -2.4734  0.3747
50872SOL    HW257937   1.490   9.353   1.098  0.2143 -0.6502 -0.0592
50873SOL     OW57938   7.830   0.961   8.625 -0.0727  0.0442  0.4106
50873SOL    HW157939   7.805   0.874   8.657  0.0179 -0.2616 -0.3222
50873SOL    HW257940   7.751   1.013   8.634 -0.2393 -0.2191  0.4973
50874SOL     OW57941   7.745   1.907   6.601  0.2504  0.0619  0.0330
50874SOL    HW157942   7.825   1.934   6.556 -0.1663  0.4962 -0.4416
50874SOL    HW257943   7.741   1.963   6.679  1.7425 -1.6462  1.4591
50875SOL     OW57944   3.741   5.319   0.622  0.1263  0.3402  0.4057
50875SOL    HW157945   3.735   5.378   0.697  0.2346  0.8836 -0.0089
50875SOL    HW257946   3.651   5.305   0.595  0.1127  0.5014  0.3643
50876SOL     OW57947   4.137   3.179   9.196 -0.2442 -0.1807 -0.2688
50876SOL    HW157948   4.208   3.117   9.209 -1.9041 -1.5190  3.9693
50876SOL    HW257949   4.071   3.130   9.147  0.0925 -0.3018 -0.6112
50877SOL     OW57950   8.644   1.260   3.452  0.4127 -0.1423  0.5953
50877SOL    HW157951   8.641   1.265   3.548 -1.1800 -0.4425  0.5866
50877SOL    HW257952   8.554   1.239   3.426  0.2369  2.3153 -1.1182
50878SOL     OW57953  10.498   6.949   3.113  0.0713 -0.4229 -0.8688
50878SOL    HW157954  10.580   6.984   3.078  0.9448 -2.3764 -0.9382
50878SOL    HW257955  10.502   6.855   3.094 -1.2724 -0.8998  0.9051
50879SOL     OW57956   6.065   1.034   7.940  0.7147 -0.4924 -0.5774
50879SOL    HW157957   6.100   0.949   7.913  0.5229 -0.9381  0.5391
50879SOL    HW257958   5.985   1.013   7.988  0.8392  0.2916 -0.0034
50880SOL     OW57959   8.172   7.872   1.348  0.0409  0.1113 -0.2028
50880SOL    HW157960   8.251   7.837   1.308 -0.7266 -0.0645 -1.5951
50880SOL    HW257961   8.104   7.808   1.329 -0.6964  0.8185 -0.0121
50881SOL     OW57962  11.798   9.764   3.487 -0.2549 -0.0779  0.5028
50881SOL    HW157963  11.890   9.751   3.507 -0.0508  1.2273  0.5046
50881SOL    HW257964  11.769   9.830   3.549 -0.6929  0.9463 -0.7454
50882SOL     OW57965   3.815   6.321  11.014 -0.1204 -0.1829 -0.1357
50882SOL    HW157966   3.845   6.261  11.082  0.5237  0.0297 -0.2280
50882SOL    HW257967   3.725   6.342  11.039  0.3516  0.4935  1.0789
50883SOL     OW57968   9.025   7.778   7.118 -0.3334 -0.5703  0.3466
50883SOL    HW157969   9.103   7.724   7.103 -1.5161 -1.9680 -1.1794
50883SOL    HW257970   8.993   7.750   7.204  0.2667 -0.7210  0.5261
50884SOL     OW57971   2.025   3.231   2.502 -0.7742  0.7376 -0.2524
50884SOL    HW157972   1.956   3.170   2.476 -1.8398  1.3656  0.9703
50884SOL    HW257973   1.979   3.297   2.554  0.2994  2.6817 -1.6376
50885SOL     OW57974   9.851   5.487   9.207 -0.0508 -0.3791  0.0526
50885SOL    HW157975   9.871   5.442   9.289  0.1163 -1.1361 -0.3900
50885SOL    HW257976   9.931   5.476   9.154 -1.1088 -2.3501 -1.2642
50886SOL     OW57977   5.723   1.335   8.035 -0.6140  0.4206 -0.0982
50886SOL    HW157978   5.796   1.391   8.009 -0.9640  0.3007 -1.4409
50886SOL    HW257979   5.668   1.330   7.957 -0.6482 -1.7140  0.0088
50887SOL     OW57980   9.516   1.652   3.999 -0.4632  0.1088 -0.4456
50887SOL    HW157981   9.513   1.725   3.938  0.4474  2.0967  1.7241
50887SOL    HW257982   9.450   1.672   4.065  0.8728 -0.1522  1.0528
50888SOL     OW57983   4.286  10.953   9.178  0.5661  0.2619  0.1820
50888SOL    HW157984   4.326  11.017   9.120 -0.1572  0.9427  0.4217
50888SOL    HW257985   4.359  10.900   9.210  1.1395  0.8192 -0.1916
50889SOL     OW57986   8.831  11.486   5.652 -0.1686 -0.0998 -0.6559
50889SOL    HW157987   8.855  11.436   5.574 -0.4839  1.3793 -1.7509
50889SOL    HW257988   8.791  11.566   5.618 -0.3289  0.5903  1.0383
50890SOL     OW57989   7.964   3.638   9.994  0.0506  0.3971  0.0458
50890SOL    HW157990   7.885   3.668   9.950  0.8720  1.0953 -1.0185
50890SOL    HW257991   7.963   3.683  10.078 -1.4910 -0.8693  0.7552
50891SOL     OW57992   0.110   8.267   3.828 -0.0795 -0.1029  0.2307
50891SOL    HW157993   0.042   8.293   3.890  0.5680  0.1564  0.8482
50891SOL    HW257994   0.136   8.180   3.857 -0.8189 -0.6178 -0.6007
50892SOL     OW57995   1.741  10.012   3.215  0.1191 -0.3586 -0.0585
50892SOL    HW157996   1.719  10.105   3.219 -1.2164 -0.6989  1.7320
50892SOL    HW257997   1.668   9.968   3.259  1.0630 -2.1907 -0.2307
50893SOL     OW57998   8.808   7.924   0.717  0.5583 -0.5897  0.2958
50893SOL    HW157999   8.767   7.843   0.686  0.5866 -0.8007  0.7888
50893SOL    HW258000   8.902   7.905   0.714  0.5467 -0.8638  1.1292
50894SOL     OW58001  10.238   8.740  10.683  0.1303  1.3941 -0.2745
50894SOL    HW158002  10.180   8.791  10.738 -1.8183 -0.3986 -0.5620
50894SOL    HW258003  10.213   8.649  10.699  2.4388  0.5745 -0.9135
50895SOL     OW58004   2.239   2.772   8.059 -0.3536 -0.1284 -0.4366
50895SOL    HW158005   2.239   2.768   8.155  2.3462 -0.1963 -0.3891
50895SOL    HW258006   2.258   2.682   8.032  1.0997  0.3085 -0.9404
50896SOL     OW58007   1.086   1.565   3.705 -0.3956 -0.2330 -0.3348
50896SOL    HW158008   1.039   1.589   3.785 -1.6198 -2.3062 -0.3779
50896SOL    HW258009   1.120   1.478   3.721 -2.7064 -1.7695 -2.8374
50897SOL     OW58010  10.842   7.457   2.562  0.0771  0.2823 -0.1266
50897SOL    HW158011  10.911   7.490   2.505  0.7683 -1.7477 -0.5237
50897SOL    HW258012  10.876   7.471   2.651  1.8461 -2.1974 -0.3064
50898SOL     OW58013   7.760   5.698   3.296 -0.2174  0.0881 -0.0092
50898SOL    HW158014   7.715   5.781   3.309 -1.3598 -0.7320  1.6338
50898SOL    HW258015   7.703   5.648   3.237 -1.4462 -0.8692  1.9021
50899SOL     OW58016   6.366   1.264   1.150 -0.2634 -0.1389 -0.3757
50899SOL    HW158017   6.379   1.212   1.070 -0.5499 -0.6251 -0.1162
50899SOL    HW258018   6.279   1.301   1.140  0.2803  1.0304 -0.9596
50900SOL     OW58019  11.759   8.918  10.347 -0.0564 -0.3259  0.0599
50900SOL    HW158020  11.775   8.836  10.301 -0.9645  0.3979 -1.6335
50900SOL    HW258021  11.704   8.895  10.422  0.4910 -1.3763  0.1448
50901SOL     OW58022   4.292   3.681   6.649  0.2027 -0.1382  0.0968
50901SOL    HW158023   4.251   3.717   6.728  1.4685 -1.3320  1.3634
50901SOL    HW258024   4.252   3.595   6.639  0.1566 -0.0508 -0.4749
50902SOL     OW58025   4.488  11.075   7.300  0.5623 -0.2873 -0.6803
50902SOL    HW158026   4.560  11.133   7.276 -0.1265  0.3839 -1.1971
50902SOL    HW258027   4.526  11.012   7.360  1.2903  0.8417  0.0669
50903SOL     OW58028   1.141   4.752   2.757  0.5188 -0.2875 -0.3971
50903SOL    HW158029   1.228   4.724   2.730  0.5648 -0.9677  0.4184
50903SOL    HW258030   1.102   4.790   2.678  1.0542 -1.2020 -1.1194
50904SOL     OW58031   7.784   7.744   4.466 -0.4601  0.3046 -0.6704
50904SOL    HW158032   7.718   7.717   4.529  2.8686 -0.4545  2.8056
50904SOL    HW258033   7.826   7.820   4.506  1.0243  0.5822 -2.5864
50905SOL     OW58034   0.117   2.003   8.458  0.2017 -0.0331 -0.2249
50905SOL    HW158035   0.074   1.919   8.443 -0.6046  0.2607  0.4151
50905SOL    HW258036   0.083   2.060   8.389 -1.6957  0.6463  1.1912
50906SOL     OW58037  10.246   8.607   6.075  0.1485 -0.6243  0.5436
50906SOL    HW158038  10.242   8.590   6.169  1.0999 -0.9404  0.5342
50906SOL    HW258039  10.339   8.623   6.057 -0.2702  1.5180  0.0205
50907SOL     OW58040   3.741   5.651   6.430 -0.2225 -0.5452  0.4048
50907SOL    HW158041   3.821   5.698   6.406 -0.3039 -0.6219 -0.0103
50907SOL    HW258042   3.718   5.687   6.516 -0.0592 -0.1114  0.2698
50908SOL     OW58043   2.717   5.912   4.437  0.1890 -1.1359  0.1597
50908SOL    HW158044   2.751   5.999   4.458  0.2917 -0.6586 -1.8403
50908SOL    HW258045   2.782   5.851   4.473  0.6248 -0.3724  0.6805
50909SOL     OW58046  11.534   9.635   4.802 -0.4124  0.5662  0.5111
50909SOL    HW158047  11.598   9.565   4.787 -0.6453  0.4259  0.1600
50909SOL    HW258048  11.531   9.645   4.897 -0.5057 -0.0209  0.5743
50910SOL     OW58049   3.292   0.463   5.397 -0.0951 -0.7050  0.1932
50910SOL    HW158050   3.221   0.524   5.419 -0.8692 -0.8570 -1.7377
50910SOL    HW258051   3.346   0.460   5.476 -0.5468  1.7697  0.6730
50911SOL     OW58052   5.009   1.161   1.456 -0.0383 -0.1225  0.2392
50911SOL    HW158053   4.965   1.094   1.404  0.1954  0.0343 -0.1597
50911SOL    HW258054   5.102   1.149   1.437  0.0596 -0.1486  0.7205
50912SOL     OW58055   6.964   6.572   2.392  0.1457  0.2325 -0.0459
50912SOL    HW158056   7.016   6.640   2.347  1.1365  0.9942  2.1247
50912SOL    HW258057   6.913   6.620   2.457 -0.2796 -0.9561  0.5243
50913SOL     OW58058   1.599   4.342   6.914  0.0036  0.1500 -0.3237
50913SOL    HW158059   1.663   4.344   6.843 -0.7110 -0.4202 -1.0028
50913SOL    HW258060   1.591   4.434   6.942  0.0262  0.4382 -1.2282
50914SOL     OW58061   3.502  10.937   9.294 -0.1744 -0.3938  0.6853
50914SOL    HW158062   3.595  10.941   9.318 -0.0783 -0.7035  0.3666
50914SOL    HW258063   3.461  11.003   9.349  0.7579  2.3572 -1.7259
50915SOL     OW58064   9.639   8.701   5.103  0.1599  0.6318  0.0541
50915SOL    HW158065   9.587   8.739   5.032  1.9407  0.6077 -1.3338
50915SOL    HW258066   9.668   8.777   5.154 -1.3050  0.6343  0.9533
50916SOL     OW58067   0.211   2.983  10.192 -0.4438 -0.2088  0.0976
50916SOL    HW158068   0.197   2.999  10.099  0.0979  0.8420  0.1830
50916SOL    HW258069   0.298   2.942  10.197  1.4297  3.4161  0.3906
50917SOL     OW58070   5.978   7.269   6.413 -0.6353  0.3566 -0.4951
50917SOL    HW158071   6.018   7.184   6.432  0.7248  1.0106 -0.3259
50917SOL    HW258072   6.035   7.308   6.347 -0.8141  1.4503 -0.0229
50918SOL     OW58073   4.337   2.235  11.139  0.1462 -0.3114 -0.1956
50918SOL    HW158074   4.419   2.241  11.089  0.2917 -0.5810  0.0072
50918SOL    HW258075   4.321   2.140  11.147 -0.1627 -0.2607 -0.1961
50919SOL     OW58076   4.367   7.122   4.759 -0.1223 -0.0498  0.1328
50919SOL    HW158077   4.448   7.077   4.785  1.3129  1.5793 -1.1894
50919SOL    HW258078   4.354   7.095   4.668 -0.7901  0.0892  0.1864
50920SOL     OW58079   0.512   2.190   1.628 -0.2183  0.5239  0.2107
50920SOL    HW158080   0.523   2.129   1.701  0.6158  0.8116  0.3344
50920SOL    HW258081   0.421   2.177   1.600 -0.2366 -0.3428  0.6169
50921SOL     OW58082  10.586   7.548   2.504  0.3842  0.8092  0.0647
50921SOL    HW158083  10.562   7.594   2.585  0.9050  0.4715  0.4174
50921SOL    HW258084  10.660   7.493   2.529 -0.5532 -0.6487 -0.1944
50922SOL     OW58085   7.906   9.955  11.226  0.3554 -0.4221 -0.0279
50922SOL    HW158086   7.934  10.043  11.202  0.1362 -0.3192  0.1021
50922SOL    HW258087   7.927   9.902  11.148 -0.2869 -0.0972 -0.4261
50923SOL     OW58088   0.632   0.680   4.882  0.6114  0.2662  0.0149
50923SOL    HW158089   0.545   0.709   4.853 -0.8861 -1.9645  1.8456
50923SOL    HW258090   0.671   0.640   4.804 -1.1650 -1.0232 -0.2920
50924SOL     OW58091  11.293   5.365  11.445  0.0102 -0.2824  0.3655
50924SOL    HW158092  11.283   5.277  11.407  1.2154 -1.1072  1.7945
50924SOL    HW258093  11.329   5.348  11.532  1.6113  1.7001  0.1495
50925SOL     OW58094   5.141   0.835   6.234  0.0170 -0.1029  0.1776
50925SOL    HW158095   5.093   0.758   6.202 -1.7829 -0.1732  2.7358
50925SOL    HW258096   5.233   0.816   6.214 -0.5376 -2.2125 -0.6495
50926SOL     OW58097   8.963   7.735   2.460  0.1932 -0.3251  0.0445
50926SOL    HW158098   8.944   7.823   2.492 -1.3172 -0.3729 -0.6405
50926SOL    HW258099   8.917   7.730   2.376 -0.0233 -1.8761  0.2301
50927SOL     OW58100   6.096  10.726   3.423 -0.5485 -0.4320  0.1367
50927SOL    HW158101   6.011  10.719   3.465 -0.0154 -1.0717  1.1485
50927SOL    HW258102   6.078  10.767   3.339 -1.6693  0.8371  0.9517
50928SOL     OW58103   5.276   4.935   5.001 -0.0034 -0.1213 -0.6748
50928SOL    HW158104   5.332   5.009   5.022  0.5166 -0.5196 -0.6222
50928SOL    HW258105   5.244   4.904   5.086 -0.3711  0.1538 -0.7101
50929SOL     OW58106   5.503   8.449   5.018  0.3212 -0.6489  0.2665
50929SOL    HW158107   5.513   8.543   5.005  0.7488 -0.6708  0.4331
50929SOL    HW258108   5.410   8.436   5.033 -0.1826 -0.5516 -2.3329
50930SOL     OW58109   0.190   2.258  11.056 -0.1392  0.2375 -0.3060
50930SOL    HW158110   0.197   2.193  11.126 -1.2985  0.4321  0.0005
50930SOL    HW258111   0.193   2.207  10.975  0.7711 -0.0252 -0.1218
50931SOL     OW58112  11.132   5.499   3.504  0.0098 -0.1948  0.1490
50931SOL    HW158113  11.052   5.496   3.451  0.8573 -0.2220 -1.1581
50931SOL    HW258114  11.101   5.517   3.593 -1.3387  1.4246 -0.6036
50932SOL     OW58115   7.715   9.357  11.241 -0.4259  0.1501  0.0818
50932SOL    HW158116   7.695   9.283  11.183 -0.3021  0.5747 -0.5070
50932SOL    HW258117   7.636   9.370  11.292  0.0115 -1.3042  1.2127
50933SOL     OW58118   1.551   8.510   1.301 -0.7954 -0.3591  0.3796
50933SOL    HW158119   1.612   8.580   1.324 -0.2473 -0.6581 -0.1444
50933SOL    HW258120   1.539   8.461   1.382 -0.8096  0.0585  0.6317
50934SOL     OW58121   7.930  11.392   2.814  0.4400  0.3079 -0.6789
50934SOL    HW158122   7.871  11.449   2.863 -0.6070 -0.3777 -1.0868
50934SOL    HW258123   8.001  11.372   2.875  0.8577  2.0643 -0.5556
50935SOL     OW58124  10.127  10.998   8.193  0.0004  0.0296 -0.1048
50935SOL    HW158125  10.156  10.907   8.186 -0.8864 -0.5739  2.8689
50935SOL    HW258126  10.055  11.005   8.131 -0.1193 -1.4058 -0.1709
50936SOL     OW58127   2.394   8.488   7.711 -0.6050  0.4292 -0.5357
50936SOL    HW158128   2.427   8.427   7.777  1.0553  1.3552 -0.4374
50936SOL    HW258129   2.415   8.447   7.627  0.6909  0.8936 -0.4711
50937SOL     OW58130   6.989   0.604   6.704  0.0569 -0.1530  0.2476
50937SOL    HW158131   6.912   0.658   6.721 -0.9655 -1.0459 -1.3172
50937SOL    HW258132   6.955   0.527   6.658  1.7347 -1.1543  0.5897
50938SOL     OW58133   3.135   6.781   6.717  0.0275 -0.5170  0.5481
50938SOL    HW158134   3.049   6.790   6.757 -0.2084 -0.6782  0.0917
50938SOL    HW258135   3.196   6.821   6.779 -0.7268  2.7399 -0.6230
50939SOL     OW58136   0.230  10.143   3.149 -0.1789  0.1272  0.3772
50939SOL    HW158137   0.203  10.122   3.059  0.9511  0.6069 -0.0889
50939SOL    HW258138   0.246  10.058   3.190 -4.3458 -0.3901  1.3860
50940SOL     OW58139   7.736   8.908   1.720  0.8445 -0.0924 -0.4170
50940SOL    HW158140   7.808   8.845   1.726  0.6649 -0.4090 -1.5061
50940SOL    HW258141   7.674   8.880   1.787  0.8770 -0.9353 -0.7334
50941SOL     OW58142   3.160   6.280   3.726  0.0393  0.2312  0.9817
50941SOL    HW158143   3.240   6.252   3.682 -0.3789 -0.5060  0.6890
50941SOL    HW258144   3.102   6.204   3.723 -1.1817  1.1489  0.0282
50942SOL     OW58145   4.236  10.364   4.978  0.1073 -0.1223 -0.2333
50942SOL    HW158146   4.168  10.422   5.012 -0.7104  0.5222 -2.7475
50942SOL    HW258147   4.318  10.410   4.996  0.0717 -1.1162  3.2429
50943SOL     OW58148   5.494   6.028   8.102 -0.1748 -0.4748 -0.1704
50943SOL    HW158149   5.466   5.998   8.189  1.7723 -0.3240  0.5783
50943SOL    HW258150   5.579   6.070   8.118 -0.1891  0.3592 -2.0344
50944SOL     OW58151   5.549   0.535  10.321 -0.5555 -0.1130  0.5483
50944SOL    HW158152   5.579   0.541  10.230  1.4038 -0.7865  1.1194
50944SOL    HW258153   5.536   0.627  10.347  1.0475  0.2122  0.2701
50945SOL     OW58154   3.441   9.933   6.194  0.1876  0.1683 -0.2224
50945SOL    HW158155   3.454   9.838   6.204  0.3779  0.0416 -1.4982
50945SOL    HW258156   3.414   9.963   6.281 -1.3056 -1.2880 -0.1396
50946SOL     OW58157   4.837   5.807   0.648 -0.1308 -0.5349  0.4764
50946SOL    HW158158   4.806   5.871   0.711 -0.5870 -1.0253  0.7515
50946SOL    HW258159   4.914   5.767   0.690  0.6821  0.4172 -0.0513
50947SOL     OW58160   5.480   4.574  11.436 -0.1246 -0.1245  0.2402
50947SOL    HW158161   5.467   4.602  11.527  0.1437  1.5086 -0.1823
50947SOL    HW258162   5.392   4.561  11.401 -0.3548  1.7796  0.0245
50948SOL     OW58163   1.307   5.308   4.713  0.1695 -0.0364 -0.8960
50948SOL    HW158164   1.361   5.282   4.787  0.6232 -2.3240 -1.9265
50948SOL    HW258165   1.245   5.235   4.703 -2.5156  2.0100 -0.3890
50949SOL     OW58166   4.404  10.899  11.225  0.2662 -0.4256 -0.2692
50949SOL    HW158167   4.477  10.924  11.282  1.9671  0.9052 -2.8106
50949SOL    HW258168   4.406  10.803  11.226 -0.6428 -0.5156  2.8125
50950SOL     OW58169   6.781  11.584   2.742  0.1883 -0.5395 -0.0505
50950SOL    HW158170   6.846  11.611   2.807  2.1015 -0.7030 -1.7758
50950SOL    HW258171   6.751  11.667   2.703 -0.7706 -0.4574  0.8134
50951SOL     OW58172   4.037   5.063  11.799  0.0873 -0.2175 -0.0509
50951SOL    HW158173   4.106   5.125  11.822  1.2475 -1.1100 -1.0221
50951SOL    HW258174   3.997   5.040  11.883  2.7905 -1.7541  0.9294
50952SOL     OW58175  10.298   7.885  10.870  0.6434 -0.5020  0.1521
50952SOL    HW158176  10.222   7.931  10.832  0.9247 -0.6740 -0.6328
50952SOL    HW258177  10.324   7.939  10.945 -1.3059 -1.3283  1.5113
50953SOL     OW58178   1.887   4.003   6.126 -0.0584  0.3181  0.0911
50953SOL    HW158179   1.866   4.089   6.161  2.6218  1.6340 -1.1794
50953SOL    HW258180   1.848   4.002   6.038 -2.1829 -0.8324  0.9761
50954SOL     OW58181  10.362  10.841   3.188 -0.2350  0.0279 -0.0290
50954SOL    HW158182  10.376  10.762   3.239  1.6304 -0.5463 -1.3310
50954SOL    HW258183  10.395  10.912   3.243  2.0743 -0.6119 -0.4790
50955SOL     OW58184   3.747   4.773   1.105 -0.3511  0.9651 -0.4582
50955SOL    HW158185   3.799   4.841   1.061  0.6345 -0.2853 -1.2882
50955SOL    HW258186   3.740   4.702   1.041  0.5438 -0.6464  1.1328
50956SOL     OW58187   5.708   3.736   7.132  0.1566 -0.1938  0.0092
50956SOL    HW158188   5.790   3.758   7.177 -0.1431  0.3770  0.2824
50956SOL    HW258189   5.660   3.682   7.196  0.7507 -1.4119 -0.5380
50957SOL     OW58190   2.001   3.738   4.154  0.0057 -0.3638  0.1529
50957SOL    HW158191   1.915   3.696   4.148  0.4092 -1.2638  0.3898
50957SOL    HW258192   1.998   3.810   4.092 -1.5144  0.6920  1.3831
50958SOL     OW58193   3.037   6.020   8.320 -0.1859 -0.2865 -0.3728
50958SOL    HW158194   3.083   6.048   8.399 -1.8501 -1.9475  1.3017
50958SOL    HW258195   2.997   6.099   8.285  1.1955  0.5976 -0.0264
50959SOL     OW58196   6.392  11.012   4.470  0.0824  0.5504  0.1487
50959SOL    HW158197   6.392  10.920   4.443  2.5902  0.4755  0.1576
50959SOL    HW258198   6.485  11.034   4.481 -0.4348  3.1199  0.0770
50960SOL     OW58199   2.429   1.019  10.560  0.3282 -0.6000  0.2415
50960SOL    HW158200   2.374   0.973  10.496  0.0702  1.7117 -1.3439
50960SOL    HW258201   2.518   0.992  10.538  0.2210 -0.0679 -0.9634
50961SOL     OW58202   8.071   1.987   7.865 -0.6657  0.1846 -0.9563
50961SOL    HW158203   8.001   2.050   7.853 -1.4009 -0.0804  1.4133
50961SOL    HW258204   8.029   1.912   7.907  0.7416 -0.6406 -0.9534
50962SOL     OW58205   7.489   9.665   3.466 -0.0266  0.5453  0.0059
50962SOL    HW158206   7.551   9.713   3.522  0.7049  1.0810 -1.2232
50962SOL    HW258207   7.485   9.577   3.505  0.9807  0.7043  0.5136
50963SOL     OW58208   7.526   5.009   2.346 -0.5071  0.2189  0.4974
50963SOL    HW158209   7.535   5.006   2.251 -0.8401 -0.5688  0.4793
50963SOL    HW258210   7.572   5.089   2.373  1.2647 -0.5677 -0.1213
50964SOL     OW58211   6.886   1.201   3.603  0.5637  0.6148  0.6101
50964SOL    HW158212   6.882   1.111   3.571  1.5429  1.3648 -1.8683
50964SOL    HW258213   6.948   1.198   3.675 -0.1448 -0.8366  1.1933
50965SOL     OW58214   2.630  10.694   0.537 -0.4625  0.4351  0.1370
50965SOL    HW158215   2.540  10.723   0.525 -0.8632 -0.4756  0.7939
50965SOL    HW258216   2.649  10.642   0.459  0.0579  1.9097 -0.7604
50966SOL     OW58217   5.857   1.776   3.013 -0.7413  0.4066  0.1541
50966SOL    HW158218   5.794   1.833   2.968 -0.1142  1.1998  0.2639
50966SOL    HW258219   5.880   1.823   3.093 -0.1244  0.0579  0.1918
50967SOL     OW58220  11.398   3.622   6.240 -0.2192 -0.0519  0.1605
50967SOL    HW158221  11.448   3.549   6.276 -0.1861  0.2959  0.8368
50967SOL    HW258222  11.333   3.581   6.183 -0.2877 -0.6166  0.6399
50968SOL     OW58223   3.416  10.875   8.716  0.8343  1.0503  0.4973
50968SOL    HW158224   3.406  10.959   8.672 -0.8221 -0.0796 -1.4678
50968SOL    HW258225   3.333  10.862   8.762  0.4735 -0.1032 -0.4209
50969SOL     OW58226   2.497   5.339   5.378  0.6773  0.3301  0.2177
50969SOL    HW158227   2.448   5.278   5.321 -0.2571  0.1237  1.2075
50969SOL    HW258228   2.558   5.383   5.319 -0.1213 -0.0270 -0.9159
50970SOL     OW58229   7.003   4.579   9.214 -0.0432  0.0881  0.0001
50970SOL    HW158230   7.029   4.665   9.182 -1.8397  0.4706 -0.5805
50970SOL    HW258231   6.908   4.587   9.228 -0.0294 -1.4007  1.2244
50971SOL     OW58232   3.000   4.592   0.475  1.2382  0.1797 -0.6993
50971SOL    HW158233   3.043   4.548   0.401  0.6025 -0.6052 -0.6165
50971SOL    HW258234   2.912   4.555   0.477  1.1758  0.3572  0.3144
50972SOL     OW58235   0.859   9.594   6.733 -0.1932  0.0407 -0.0296
50972SOL    HW158236   0.845   9.601   6.828 -0.4736  1.2798 -0.1419
50972SOL    HW258237   0.771   9.596   6.696 -0.0408  1.2116 -0.3829
50973SOL     OW58238   2.855   7.077   3.657 -0.1310  0.0536 -0.6052
50973SOL    HW158239   2.855   6.988   3.691  0.8135  0.7109  1.2353
50973SOL    HW258240   2.762   7.102   3.654 -0.3467 -0.7054 -0.3648
50974SOL     OW58241   0.059  10.331   6.293 -0.3970  0.6740 -0.4709
50974SOL    HW158242  -0.004  10.340   6.222  0.7132  1.2755 -1.4168
50974SOL    HW258243   0.138  10.296   6.251  0.4916  1.6384  0.3216
50975SOL     OW58244   6.073  10.266   2.774  0.1947  0.7591 -0.2954
50975SOL    HW158245   6.096  10.349   2.815  1.5109  1.0000 -1.4516
50975SOL    HW258246   6.055  10.289   2.683  0.3812 -0.1940 -0.5815
50976SOL     OW58247   3.012   9.462   2.469 -0.1857 -0.0240  0.7376
50976SOL    HW158248   3.068   9.417   2.532  1.3350  1.0114  0.1914
50976SOL    HW258249   3.006   9.551   2.502 -0.1286  0.2975 -0.0905
50977SOL     OW58250   8.410  10.634   5.813 -0.2572  0.0692  0.0779
50977SOL    HW158251   8.410  10.594   5.727  0.1633  1.6414 -0.6869
50977SOL    HW258252   8.502  10.634   5.840 -0.1069  1.3674 -0.3688
50978SOL     OW58253   5.652   5.261   0.984 -0.5291  0.2509  0.2902
50978SOL    HW158254   5.575   5.207   0.970 -0.9990  1.2177 -1.1137
50978SOL    HW258255   5.682   5.238   1.072 -2.5950  0.0717  1.0109
50979SOL     OW58256  10.452  10.671   7.345  0.1668  0.3685  0.2340
50979SOL    HW158257  10.414  10.600   7.293  0.8267  0.9039 -1.0398
50979SOL    HW258258  10.413  10.750   7.308 -0.2067  0.7093  1.3328
50980SOL     OW58259   6.587   4.356   6.956  0.0096 -0.0268 -0.1047
50980SOL    HW158260   6.606   4.305   6.877 -1.4794 -0.0577 -0.4837
50980SOL    HW258261   6.556   4.441   6.923  0.7624  0.4834  0.4815
50981SOL     OW58262   4.426   6.205   5.617  0.1035  0.2147 -0.0135
50981SOL    HW158263   4.435   6.149   5.539 -0.3010 -1.5675  1.1452
50981SOL    HW258264   4.479   6.162   5.683 -0.0181  1.3817  0.8709
50982SOL     OW58265   9.527   0.645  11.537 -0.9571  0.1711  0.0457
50982SOL    HW158266   9.433   0.629  11.538 -0.8784 -0.3498 -0.2304
50982SOL    HW258267   9.545   0.682  11.451 -0.9624  0.6155  0.2354
50983SOL     OW58268   6.916   9.909   9.512  0.6863 -0.0600  0.7916
50983SOL    HW158269   6.946   9.950   9.593 -2.0065  3.3169  0.3347
50983SOL    HW258270   6.926   9.978   9.446 -0.6409 -1.4280 -0.9208
50984SOL     OW58271  11.573   6.334   9.403  0.5574  0.3881  0.2805
50984SOL    HW158272  11.609   6.254   9.365  0.0101 -0.1699  0.9315
50984SOL    HW258273  11.623   6.347   9.484  0.8599  0.8861  0.0224
50985SOL     OW58274   6.309   1.195   5.236 -0.5372  0.5758 -0.2563
50985SOL    HW158275   6.398   1.181   5.204 -0.8074 -0.3274 -0.6515
50985SOL    HW258276   6.266   1.110   5.224 -1.3435  0.8990  0.2783
50986SOL     OW58277  10.071   2.205   7.736 -0.3136 -0.0409 -0.1068
50986SOL    HW158278  10.000   2.151   7.702 -1.1950 -0.6167  2.3799
50986SOL    HW258279  10.131   2.143   7.778  2.0170  0.3752 -2.5466
50987SOL     OW58280   4.884   0.912   6.643  0.5888  0.6856 -0.3473
50987SOL    HW158281   4.824   0.973   6.686 -0.1919 -0.1679 -0.2051
50987SOL    HW258282   4.972   0.946   6.664  0.1815  1.3708  0.2904
50988SOL     OW58283   5.345   4.938  11.383  0.1873 -0.1102  0.2708
50988SOL    HW158284   5.250   4.947  11.391 -0.2154 -2.1452 -1.4646
50988SOL    HW258285   5.370   5.005  11.320 -0.3233 -0.4692 -0.3251
50989SOL     OW58286   0.488   1.529  11.036  0.1097  0.1008  0.0298
50989SOL    HW158287   0.455   1.615  11.059 -0.2545 -0.0927  0.2466
50989SOL    HW258288   0.416   1.488  10.987  0.3052 -0.0536 -0.1339
50990SOL     OW58289   0.851   8.231   8.086  0.8439  0.6952  0.0562
50990SOL    HW158290   0.938   8.193   8.077  0.0315 -1.3316  0.2062
50990SOL    HW258291   0.862   8.302   8.150  2.1195 -0.4797  1.2003
50991SOL     OW58292   7.314   6.591   2.057  0.6681  0.0865 -0.0812
50991SOL    HW158293   7.241   6.612   1.999  1.1793  0.9469 -0.4317
50991SOL    HW258294   7.297   6.501   2.086 -0.2767  0.1106 -0.5264
50992SOL     OW58295   5.193   2.823   7.701  0.3862  0.0981  0.1624
50992SOL    HW158296   5.161   2.913   7.710  1.3172  0.5370 -0.7680
50992SOL    HW258297   5.226   2.800   7.788 -2.3883 -0.3928  1.2082
50993SOL     OW58298   4.535   6.251   7.929  0.0949  0.0089 -0.3315
50993SOL    HW158299   4.624   6.285   7.924 -0.2984  0.9185 -2.3767
50993SOL    HW258300   4.516   6.221   7.840 -1.2965 -1.1155  0.3068
50994SOL     OW58301   0.541   1.391   5.459  0.3180  0.2567  0.0516
50994SOL    HW158302   0.605   1.345   5.512  1.2249  1.6881  0.2532
50994SOL    HW258303   0.456   1.362   5.493  0.7452 -2.7177 -1.1150
50995SOL     OW58304   3.722   9.118   0.515 -0.4480  0.1109 -0.2576
50995SOL    HW158305   3.781   9.133   0.442 -0.1540  0.8103  0.1153
50995SOL    HW258306   3.745   9.030   0.546 -1.3925 -0.7012 -1.7378
50996SOL     OW58307   7.126   5.361   8.541 -0.5268  0.6251 -0.7179
50996SOL    HW158308   7.071   5.284   8.524 -0.2938 -0.3862  2.5139
50996SOL    HW258309   7.201   5.351   8.482 -1.7441 -0.1952 -2.1881
50997SOL     OW58310   2.065   4.346  10.593  0.5769  0.5365  0.6361
50997SOL    HW158311   2.113   4.345  10.675  1.7502 -0.9980 -0.0174
50997SOL    HW258312   2.123   4.391  10.532  1.6012 -1.9649 -0.3447
50998SOL     OW58313   7.920   8.130   2.330 -0.3209  0.1621  0.7312
50998SOL    HW158314   7.826   8.145   2.325 -0.4074 -0.7534 -1.7380
50998SOL    HW258315   7.958   8.190   2.265  0.5551 -0.9829  0.1368
50999SOL     OW58316   5.594   6.206  10.723 -0.1017 -1.2454  0.1977
50999SOL    HW158317   5.681   6.219  10.685 -1.2191 -1.1677 -2.5629
50999SOL    HW258318   5.533   6.235  10.655 -2.3237  0.0498  2.5528
51000SOL     OW58319   1.822   5.226  11.809 -0.2429 -0.3132 -0.2544
51000SOL    HW158320   1.746   5.283  11.794 -0.8313 -0.7671  0.8953
51000SOL    HW258321   1.819   5.206  11.902  2.6548  1.5639  0.3795
51001SOL     OW58322   0.283   8.392   6.011 -0.1882 -0.0956 -0.1469
51001SOL    HW158323   0.197   8.392   6.051  0.1394 -1.3788  0.5947
51001SOL    HW258324   0.266   8.401   5.917 -1.2722 -2.1983 -0.2081
51002SOL     OW58325   4.872   8.605   8.790  0.8157  0.0154  0.1551
51002SOL    HW158326   4.892   8.598   8.884  0.8331 -1.9466  0.0510
51002SOL    HW258327   4.800   8.543   8.777  0.6143  0.4869 -1.0973
51003SOL     OW58328   7.022   8.716   9.016  0.9914  0.4882  0.1117
51003SOL    HW158329   7.044   8.634   9.060  0.1777 -0.3632 -1.0126
51003SOL    HW258330   7.105   8.750   8.985  1.1655 -0.8053 -0.9074
51004SOL     OW58331   9.559   4.368   1.523 -0.1878 -0.3805 -0.1233
51004SOL    HW158332   9.572   4.347   1.430  0.7070 -1.6749  0.2670
51004SOL    HW258333   9.627   4.319   1.568 -1.9829 -1.5569  1.4164
51005SOL     OW58334   1.014   0.387   4.391  0.1344  0.0986 -0.1703
51005SOL    HW158335   1.067   0.352   4.320  2.8380  1.2544  1.1155
51005SOL    HW258336   1.008   0.315   4.454  2.1483  0.5385  0.6234
51006SOL     OW58337   4.094   8.837   7.722 -0.8959  0.4783 -0.1393
51006SOL    HW158338   4.002   8.860   7.707 -0.9258  0.6558  0.3003
51006SOL    HW258339   4.104   8.752   7.679 -1.0286  0.8733 -0.9701
51007SOL     OW58340   5.623   5.807   7.239  0.4714 -0.2622  0.3867
51007SOL    HW158341   5.603   5.751   7.163  1.2368  0.6649 -0.5204
51007SOL    HW258342   5.669   5.749   7.299  0.4553 -0.8487 -0.1468
51008SOL     OW58343  10.014   0.916   8.477  0.1531 -0.0108  0.4273
51008SOL    HW158344  10.051   0.862   8.547 -0.9671  0.1311  1.1497
51008SOL    HW258345  10.088   0.967   8.444  0.9999 -1.1327  0.5040
51009SOL     OW58346   5.231   1.141   4.583  0.3076 -0.9137 -0.0880
51009SOL    HW158347   5.312   1.091   4.572 -0.5329 -1.8782 -2.7173
51009SOL    HW258348   5.256   1.232   4.567  1.0540 -1.0770  0.1256
51010SOL     OW58349   0.947   2.216   3.996  0.4813 -0.1456 -0.3247
51010SOL    HW158350   0.935   2.221   3.902 -0.4344 -0.9761 -0.2729
51010SOL    HW258351   0.955   2.122   4.015  1.5416  0.0630  0.3239
51011SOL     OW58352  11.583   7.449   6.466  0.2633 -0.0392  0.3567
51011SOL    HW158353  11.656   7.416   6.413  0.4012 -0.0273  0.5385
51011SOL    HW258354  11.623   7.472   6.549  0.3184  1.3975 -0.0499
51012SOL     OW58355   7.277  11.222   1.306 -0.5846 -0.0137  0.0588
51012SOL    HW158356   7.205  11.285   1.310 -1.7416 -1.2822  0.2395
51012SOL    HW258357   7.251  11.153   1.368  0.6408 -0.6558 -0.1195
51013SOL     OW58358   3.764   7.836   2.868 -0.0625  0.2534  0.1602
51013SOL    HW158359   3.790   7.910   2.813  0.8572 -0.2716 -0.1336
51013SOL    HW258360   3.772   7.868   2.957  1.7529  0.1141  0.0997
51014SOL     OW58361  10.376   1.768   0.258 -0.1717  0.1307 -0.8342
51014SOL    HW158362  10.412   1.841   0.308 -0.7582 -0.2107  0.1123
51014SOL    HW258363  10.364   1.803   0.170 -2.9659  2.0807  0.1533
51015SOL     OW58364   4.151  11.214   6.900 -0.2140 -0.3954 -0.0512
51015SOL    HW158365   4.094  11.250   6.968  1.0052  1.7878 -0.0905
51015SOL    HW258366   4.162  11.122   6.924  1.1134  0.5210  3.4368
51016SOL     OW58367   7.432   8.737   4.779 -0.2233  0.5165 -0.1551
51016SOL    HW158368   7.370   8.749   4.707  0.1788  0.2799 -0.5435
51016SOL    HW258369   7.377   8.718   4.855 -0.5607 -1.1893 -0.7915
51017SOL     OW58370   4.485   6.151   7.675  0.3861  0.2010  0.1533
51017SOL    HW158371   4.541   6.102   7.615  0.4356 -0.1588  0.4882
51017SOL    HW258372   4.397   6.146   7.635 -0.2331 -2.6699  1.6002
51018SOL     OW58373   9.167   4.527   1.277 -0.2802 -0.0719 -0.8177
51018SOL    HW158374   9.084   4.502   1.235 -1.3434 -0.4432  1.3782
51018SOL    HW258375   9.148   4.613   1.316  0.0344 -0.6048  0.5475
51019SOL     OW58376   7.795   9.416  10.083  0.1586 -0.1326 -0.0697
51019SOL    HW158377   7.715   9.387  10.128 -0.3702 -2.1949 -2.1866
51019SOL    HW258378   7.847   9.336  10.071  0.7415  0.4983 -2.1620
51020SOL     OW58379   7.616   6.318   7.529 -0.1345  0.3386 -0.1056
51020SOL    HW158380   7.572   6.246   7.484  1.7063 -2.1729  1.8151
51020SOL    HW258381   7.701   6.324   7.487  0.8354 -0.6908  1.6006
51021SOL     OW58382   4.789   8.966   0.192 -0.3348 -0.6576  0.3605
51021SOL    HW158383   4.859   8.966   0.259 -0.0664 -0.5338  0.0817
51021SOL    HW258384   4.835   8.951   0.110 -0.3899  1.3498 -0.0820
51022SOL     OW58385   2.644   5.622   3.906  0.3496 -0.1225  0.3455
51022SOL    HW158386   2.564   5.635   3.855  0.5798 -0.5564 -0.1289
51022SOL    HW258387   2.682   5.542   3.871  1.7503  0.8443 -0.4098
51023SOL     OW58388   2.187   2.349   5.279 -0.6868  0.2378 -0.4457
51023SOL    HW158389   2.234   2.389   5.205 -0.3658  2.2395  0.7531
51023SOL    HW258390   2.096   2.377   5.268 -1.0495 -1.1586 -1.1537
51024SOL     OW58391   9.887   9.549   9.329 -0.2715  0.2994 -0.4938
51024SOL    HW158392   9.847   9.634   9.311 -0.4662  0.8078  1.9451
51024SOL    HW258393   9.974   9.571   9.362 -0.5779 -0.3536  0.8216
51025SOL     OW58394   3.445   1.088  10.006 -0.3073 -0.0137 -0.1746
51025SOL    HW158395   3.496   1.007  10.013 -0.4195  0.0432  1.5977
51025SOL    HW258396   3.498   1.154  10.051 -0.2755  0.9200 -1.4932
51026SOL     OW58397   8.540   0.873   3.964  0.3569  0.1331  0.0105
51026SOL    HW158398   8.470   0.911   4.017  0.8326  0.2281  0.5868
51026SOL    HW258399   8.514   0.781   3.953  1.7099 -0.7650  3.0672
51027SOL     OW58400  11.521   1.426   2.495  0.2083 -0.0689 -0.6587
51027SOL    HW158401  11.592   1.445   2.556 -0.3582 -1.2041  0.3961
51027SOL    HW258402  11.561   1.437   2.408  1.2041  0.9275 -0.1072
51028SOL     OW58403   3.826   8.404   7.342  0.1513  0.0363 -0.8914
51028SOL    HW158404   3.817   8.355   7.423  0.8783 -0.3457 -1.0272
51028SOL    HW258405   3.782   8.350   7.276 -0.9730  0.6363 -0.6612
51029SOL     OW58406   6.034   7.688   6.816  0.5268 -0.2339  0.6056
51029SOL    HW158407   5.993   7.768   6.782  2.0767 -0.0037 -0.8541
51029SOL    HW258408   6.119   7.717   6.850  0.2428 -0.9642  2.0095
51030SOL     OW58409   6.790   1.794   9.633 -0.0112  0.0014  0.0112
51030SOL    HW158410   6.837   1.712   9.621 -0.1727  0.0173 -0.8149
51030SOL    HW258411   6.787   1.807   9.728  2.0827  0.2641  0.0788
51031SOL     OW58412   7.736  10.207   1.402 -0.2645 -0.2642  0.0652
51031SOL    HW158413   7.644  10.189   1.385 -0.6094 -1.9886  3.0495
51031SOL    HW258414   7.783  10.147   1.344 -1.1890 -2.3692  1.3947
51032SOL     OW58415  10.054  10.163   2.262 -0.4803  0.0025  0.2673
51032SOL    HW158416  10.094  10.223   2.200 -1.2290 -0.7003 -0.9446
51032SOL    HW258417  10.056  10.078   2.218 -0.1184 -0.7272  1.6286
51033SOL     OW58418  10.769  10.570   4.684  0.4708  0.3070  0.3340
51033SOL    HW158419  10.705  10.614   4.628 -1.0317 -1.7333  0.3023
51033SOL    HW258420  10.849  10.567   4.633 -0.0170  1.0779 -0.4936
51034SOL     OW58421  11.195   7.702   3.943 -0.6006  0.3773 -0.0352
51034SOL    HW158422  11.243   7.785   3.942 -0.0185  0.1130  1.9186
51034SOL    HW258423  11.255   7.639   3.903 -0.3858  0.5850 -0.0425
51035SOL     OW58424   0.329   5.656  10.634 -0.0193 -0.0922  0.2103
51035SOL    HW158425   0.269   5.582  10.626 -1.6491  1.2660 -1.0199
51035SOL    HW258426   0.382   5.653  10.555  0.0337 -0.0601  0.2445
51036SOL     OW58427   1.072   8.111   8.698 -0.7949  0.0029 -0.0768
51036SOL    HW158428   1.144   8.074   8.646  0.8541 -1.6976  3.1615
51036SOL    HW258429   1.017   8.037   8.719 -1.5314  0.6958  0.4788
51037SOL     OW58430   1.797   3.963   5.852 -0.1383  0.9477  0.0184
51037SOL    HW158431   1.867   4.015   5.814 -0.2273  1.8820  1.0917
51037SOL    HW258432   1.719   4.016   5.843 -0.2063  1.0926  1.2466
51038SOL     OW58433   8.433   3.987   3.844 -0.1823 -0.0402  0.8160
51038SOL    HW158434   8.420   3.955   3.934 -1.7672 -1.2371  0.1956
51038SOL    HW258435   8.420   3.910   3.789  1.3462  0.5585 -0.4464
51039SOL     OW58436   4.788   2.512   8.922  0.4711 -0.4297 -0.0542
51039SOL    HW158437   4.713   2.566   8.948  2.6261  1.9967  1.7143
51039SOL    HW258438   4.861   2.573   8.919  2.6642 -2.8996 -0.3851
51040SOL     OW58439   4.438   9.365   1.705  0.1301 -0.5171 -0.6623
51040SOL    HW158440   4.527   9.381   1.672 -0.6432  1.1517 -2.1247
51040SOL    HW258441   4.447   9.361   1.800  1.7963 -0.6257 -0.8035
51041SOL     OW58442   9.940   4.732   3.553  0.1483  0.3490  0.3033
51041SOL    HW158443   9.853   4.694   3.553  0.4938 -0.6046 -1.8350
51041SOL    HW258444   9.981   4.699   3.633 -0.8312 -0.7455  0.3788
51042SOL     OW58445   2.539   0.016   9.669  0.5859 -0.1964  0.5079
51042SOL    HW158446   2.575  -0.066   9.636 -0.1520 -0.0983 -0.5932
51042SOL    HW258447   2.455  -0.009   9.708  0.3661  0.0273  0.1845
51043SOL     OW58448   3.018   9.842   8.929  0.4936  0.0697  0.1842
51043SOL    HW158449   2.989   9.919   8.880 -0.2598 -0.7460 -0.7041
51043SOL    HW258450   3.036   9.875   9.017  0.5140  1.3184 -0.2659
51044SOL     OW58451   6.737   5.124  10.403 -0.1651 -0.0984 -0.5051
51044SOL    HW158452   6.707   5.075  10.480  0.8474 -1.6557 -1.0533
51044SOL    HW258453   6.825   5.091  10.387  0.1505  1.1920 -1.5334
51045SOL     OW58454   4.647   3.224   2.600 -0.2306  0.6229  0.0342
51045SOL    HW158455   4.741   3.210   2.600 -0.3598 -0.3171  0.5134
51045SOL    HW258456   4.630   3.272   2.682 -0.3101 -0.3024  0.5702
51046SOL     OW58457   8.448   3.730  10.112 -0.7969  0.0209 -0.3527
51046SOL    HW158458   8.479   3.727  10.022  1.8464  0.3559  0.4428
51046SOL    HW258459   8.460   3.641  10.145  3.8953  0.9110  1.1855
51047SOL     OW58460   4.577   8.011  10.196 -0.0097 -0.1794 -0.4823
51047SOL    HW158461   4.663   8.038  10.165  0.8856 -0.5369  1.5674
51047SOL    HW258462   4.594   7.961  10.276 -2.1974  0.8867  0.7450
51048SOL     OW58463   4.107   2.950   4.724  0.0291 -0.1534  0.0107
51048SOL    HW158464   4.060   2.886   4.777  1.5792  0.0165  1.7157
51048SOL    HW258465   4.143   3.012   4.787  0.6994  0.9523 -1.3866
51049SOL     OW58466   1.624   1.557   0.618 -0.2412 -0.4530  0.0705
51049SOL    HW158467   1.605   1.580   0.709  1.1302  0.5284  0.1427
51049SOL    HW258468   1.606   1.463   0.613  0.8471 -0.7897  1.7064
51050SOL     OW58469  10.094   9.519   4.295  0.4205  0.1224  0.0191
51050SOL    HW158470  10.058   9.474   4.219  0.2150  1.9019 -0.9847
51050SOL    HW258471  10.153   9.584   4.258  3.3791 -1.4663  1.5320
51051SOL     OW58472   0.692   9.793   9.082  0.1223  0.1561 -0.1727
51051SOL    HW158473   0.623   9.833   9.136  0.3257 -0.3210  0.4480
51051SOL    HW258474   0.647   9.722   9.035  0.6270 -1.7425  2.0305
51052SOL     OW58475   3.220   5.028   7.009  0.2325 -0.3929  0.1617
51052SOL    HW158476   3.136   4.998   7.043  1.2693 -2.1003  1.4283
51052SOL    HW258477   3.227   4.989   6.922  0.3150 -1.5585  0.6584
51053SOL     OW58478   8.303   5.892   8.642 -0.3014  0.1350 -0.6478
51053SOL    HW158479   8.363   5.854   8.578  1.3792 -1.7011  1.7923
51053SOL    HW258480   8.240   5.822   8.660  1.0517 -0.5857  1.7571
51054SOL     OW58481   6.783   7.929   7.779  0.7100  0.3473 -0.1030
51054SOL    HW158482   6.692   7.960   7.784  0.7798  0.4369  0.8440
51054SOL    HW258483   6.783   7.866   7.707 -0.2551 -0.1641  0.3246
51055SOL     OW58484   5.544   2.727   9.689 -0.0419 -0.2211  0.0035
51055SOL    HW158485   5.592   2.696   9.612  0.1466 -0.2358  0.1276
51055SOL    HW258486   5.597   2.799   9.723  0.8064 -1.3582  1.1627
51056SOL     OW58487   6.414   5.637   2.946 -0.2435 -0.1537 -0.1072
51056SOL    HW158488   6.435   5.607   2.858 -0.8349 -0.4866 -0.1460
51056SOL    HW258489   6.370   5.721   2.932 -2.9909 -1.5111 -0.3939
51057SOL     OW58490   4.012   5.226   6.810  0.0504  0.4610  0.0169
51057SOL    HW158491   3.945   5.158   6.805  1.1011 -0.4939 -1.8202
51057SOL    HW258492   3.985   5.291   6.745  1.0470 -0.0916 -0.9772
51058SOL     OW58493   1.337   4.404   0.357 -0.0530 -0.4541  0.0717
51058SOL    HW158494   1.338   4.448   0.273 -0.3479  0.4818  0.5507
51058SOL    HW258495   1.382   4.320   0.341  0.0918 -0.1871 -0.9487
51059SOL     OW58496   5.937   3.820   9.496 -0.1552  0.3215 -0.0139
51059SOL    HW158497   5.980   3.869   9.565 -1.5408  1.3717  0.1400
51059SOL    HW258498   5.877   3.760   9.542  0.4091 -0.4461 -0.2520
51060SOL     OW58499  10.780   8.191   5.680  0.2995  0.0501 -0.3808
51060SOL    HW158500  10.705   8.235   5.721 -0.2649 -1.4775  0.3160
51060SOL    HW258501  10.853   8.211   5.738  0.5003  1.6507 -1.1281
51061SOL     OW58502   0.120   6.040   5.240  0.8794 -0.4083  0.0687
51061SOL    HW158503   0.045   6.031   5.299 -0.4724  0.1385 -1.4763
51061SOL    HW258504   0.144   5.949   5.219  1.0570 -0.5958  1.0419
51062SOL     OW58505   9.334   0.460   5.356  0.5105 -0.0624 -0.4522
51062SOL    HW158506   9.252   0.413   5.372 -0.3643  1.1574 -1.1721
51062SOL    HW258507   9.333   0.478   5.262  2.7928 -2.0966 -0.9787
51063SOL     OW58508  10.405   7.764  11.410  0.3473  0.3110 -0.0273
51063SOL    HW158509  10.313   7.771  11.438  0.0771  1.5878 -1.1457
51063SOL    HW258510  10.401   7.709  11.331  0.5728  0.2417  0.0094
51064SOL     OW58511   3.623   4.577   6.060 -0.6299 -0.0059 -0.0095
51064SOL    HW158512   3.639   4.671   6.047  2.3013 -0.8012 -3.6574
51064SOL    HW258513   3.704   4.544   6.097 -0.5349 -1.4799 -1.4312
51065SOL     OW58514  11.113   8.976  11.074  0.7059  0.7155 -0.0468
51065SOL    HW158515  11.083   8.993  10.985  0.1130  1.6750  0.3226
51065SOL    HW258516  11.140   8.884  11.073  2.4905  1.1947 -1.6872
51066SOL     OW58517   1.342   1.619   2.366  0.3407  0.0989 -0.6422
51066SOL    HW158518   1.258   1.573   2.376  0.1333  0.7799  1.0844
51066SOL    HW258519   1.323   1.692   2.308 -0.7894  1.3764  1.2380
51067SOL     OW58520   2.462   1.913   5.540  0.8467 -0.4062 -0.0950
51067SOL    HW158521   2.525   1.982   5.520 -1.9327  2.4360 -0.0507
51067SOL    HW258522   2.436   1.930   5.630 -0.2398 -1.2012 -0.2382
51068SOL     OW58523   5.096   7.798   6.580  0.2343 -0.3024  0.4521
51068SOL    HW158524   5.129   7.791   6.491  0.3717  0.2096  0.4584
51068SOL    HW258525   5.087   7.707   6.610  0.5100 -0.4671  0.0386
51069SOL     OW58526  10.176   7.301   1.437 -0.2592  0.5038  0.1362
51069SOL    HW158527  10.127   7.363   1.382 -0.8297  0.9984  1.1815
51069SOL    HW258528  10.183   7.344   1.522 -1.3673 -1.1825  1.1424
51070SOL     OW58529   7.614   2.713  11.352  0.2277  0.4685 -0.2980
51070SOL    HW158530   7.658   2.707  11.437  0.1817 -0.1417 -0.3150
51070SOL    HW258531   7.528   2.750  11.373  0.3190  0.5834 -0.1183
51071SOL     OW58532   7.571   9.195   6.655 -0.2334  0.6459  0.3092
51071SOL    HW158533   7.532   9.117   6.615  0.5118 -0.0798  0.9869
51071SOL    HW258534   7.497   9.256   6.664 -0.3320  1.2229 -2.9686
51072SOL     OW58535   2.216  10.418  10.751 -0.4994 -0.2419  0.8979
51072SOL    HW158536   2.182  10.498  10.711 -0.5052  0.6743  2.6091
51072SOL    HW258537   2.180  10.347  10.698  0.8931  0.8928 -1.7029
51073SOL     OW58538   0.452   6.061   2.953 -0.2322  0.4048  0.0701
51073SOL    HW158539   0.487   6.111   3.027 -0.4267 -0.9206  1.1093
51073SOL    HW258540   0.411   5.985   2.994  1.5654 -1.5146 -1.5102
51074SOL     OW58541   6.534  11.234   0.196  0.3386 -0.0787  0.3783
51074SOL    HW158542   6.624  11.209   0.212 -0.3033 -2.1899  0.9933
51074SOL    HW258543   6.486  11.206   0.274 -1.0793 -0.4244 -0.5717
51075SOL     OW58544   4.020   6.455   4.152  0.0129  0.2346  0.3724
51075SOL    HW158545   4.095   6.401   4.177 -0.9265 -1.5004 -0.3347
51075SOL    HW258546   3.971   6.400   4.090 -2.0348  1.1452  1.0876
51076SOL     OW58547  10.819   2.499   6.356 -0.1097 -0.0126  0.3090
51076SOL    HW158548  10.909   2.526   6.370 -0.2124  0.1040  0.7635
51076SOL    HW258549  10.798   2.445   6.432 -1.3922  2.4409  1.8265
51077SOL     OW58550   0.718   4.850   5.155  0.0924  0.3816  0.6468
51077SOL    HW158551   0.798   4.867   5.106  1.1269 -0.3050  2.0444
51077SOL    HW258552   0.711   4.755   5.158  0.0911  0.4086  1.8738
51078SOL     OW58553  11.206   3.192   3.419 -0.1912 -0.4467 -0.2733
51078SOL    HW158554  11.284   3.188   3.365  0.7237  1.3232  0.8332
51078SOL    HW258555  11.181   3.284   3.419 -0.6447 -0.5293  1.6003
51079SOL     OW58556   6.928   7.572   9.187 -0.3896 -0.0484 -0.2361
51079SOL    HW158557   6.973   7.655   9.205 -0.4289  0.2829 -1.5550
51079SOL    HW258558   6.835   7.596   9.185 -0.5132 -0.3977  0.7078
51080SOL     OW58559   6.380  10.985   8.074  0.6285 -0.6967 -0.5266
51080SOL    HW158560   6.296  10.941   8.063 -0.0070  0.5224 -0.7979
51080SOL    HW258561   6.441  10.936   8.019 -0.1473 -0.9886 -1.1411
51081SOL     OW58562   3.539   6.523  10.221  0.2725  0.2860 -0.0399
51081SOL    HW158563   3.468   6.486  10.167 -0.4199 -0.8466  1.5730
51081SOL    HW258564   3.619   6.490  10.180 -0.1589  0.5757 -1.1656
51082SOL     OW58565   4.747   1.237  10.420  0.0863  0.3612  0.6243
51082SOL    HW158566   4.752   1.303  10.351 -2.0233 -1.2842 -1.3021
51082SOL    HW258567   4.684   1.272  10.482  0.2127  0.8565  0.4788
51083SOL     OW58568   7.268   5.224   4.505  0.7895 -0.0707 -0.3531
51083SOL    HW158569   7.215   5.242   4.583  1.1488 -0.6009  0.0255
51083SOL    HW258570   7.298   5.134   4.517  0.4535 -0.3302 -1.3424
51084SOL     OW58571   9.612  10.037  10.522 -0.1326  0.1476 -0.0605
51084SOL    HW158572   9.649   9.994  10.599 -0.4087 -0.0652 -0.0406
51084SOL    HW258573   9.687  10.055  10.465  0.3009  1.8291  0.9729
51085SOL     OW58574   1.348   6.402   1.803  0.3433  0.2399  0.4381
51085SOL    HW158575   1.330   6.440   1.717  0.0344 -1.0834 -0.1017
51085SOL    HW258576   1.424   6.451   1.835 -0.1251  1.4037 -0.1521
51086SOL     OW58577   8.311  11.802   9.313  0.0756 -0.1197  0.3573
51086SOL    HW158578   8.329  11.710   9.294  0.7453  0.1552 -0.3921
51086SOL    HW258579   8.252  11.829   9.243 -0.8950 -0.2196  1.1145
51087SOL     OW58580   7.985   5.417   6.549 -0.4372 -0.1363 -0.6353
51087SOL    HW158581   8.006   5.503   6.512 -1.6203  0.2718 -0.4155
51087SOL    HW258582   7.891   5.405   6.531 -0.2769 -1.4262 -0.7345
51088SOL     OW58583   0.285  11.110   6.129  0.0530 -0.0036 -0.6243
51088SOL    HW158584   0.275  11.085   6.037  0.3979 -0.0260 -0.6542
51088SOL    HW258585   0.195  11.111   6.162 -0.1511  0.8022 -1.1724
51089SOL     OW58586   5.472   4.698   5.123 -0.3849  0.1757 -0.3142
51089SOL    HW158587   5.404   4.741   5.072  0.4330  0.2383 -1.3815
51089SOL    HW258588   5.554   4.738   5.094  0.1335  0.0982  0.9367
51090SOL     OW58589   5.285   9.686   1.127 -0.3627  0.5776  0.5081
51090SOL    HW158590   5.355   9.715   1.185 -1.5781  2.3077  1.1867
51090SOL    HW258591   5.220   9.645   1.185  0.6555 -2.4405 -0.2742
51091SOL     OW58592   5.208   3.947   4.711  0.2625  0.6655  0.0917
51091SOL    HW158593   5.123   3.916   4.679  1.1735 -1.5596 -0.3521
51091SOL    HW258594   5.269   3.877   4.689  1.6011  0.5421  3.5196
51092SOL     OW58595   7.374   7.908   9.536 -0.0465 -0.0846  0.3844
51092SOL    HW158596   7.376   7.933   9.628 -3.5351  0.6623  0.4110
51092SOL    HW258597   7.321   7.976   9.494 -1.0518 -1.9337 -1.5594
51093SOL     OW58598  11.544   1.307   4.483 -0.2595 -0.0511 -0.1644
51093SOL    HW158599  11.605   1.248   4.439  0.0284 -0.0443  0.2279
51093SOL    HW258600  11.457   1.273   4.460 -0.1172  0.1401 -1.0011
51094SOL     OW58601   9.578   7.619   7.168 -0.2472  0.3357  0.2732
51094SOL    HW158602   9.635   7.594   7.095 -1.3813 -1.6864 -0.0082
51094SOL    HW258603   9.612   7.703   7.198  0.5935  0.9610 -2.2199
51095SOL     OW58604   8.271   4.921   1.631  0.2269 -0.4087 -0.4702
51095SOL    HW158605   8.237   4.947   1.716 -0.4946  1.5516 -1.2924
51095SOL    HW258606   8.366   4.920   1.642  0.1040 -1.5072  0.6795
51096SOL     OW58607   0.794  10.045   5.384  0.3863  0.4215  0.2093
51096SOL    HW158608   0.882  10.040   5.348 -0.4038  0.4794 -1.8471
51096SOL    HW258609   0.748  10.108   5.329 -1.4132 -0.8788  0.1059
51097SOL     OW58610   9.077   8.331   2.739  1.0736 -0.5004  0.6594
51097SOL    HW158611   9.124   8.329   2.655 -1.8521 -0.1180 -1.1213
51097SOL    HW258612   9.036   8.417   2.742 -0.3969 -1.1885  1.5381
51098SOL     OW58613   9.356   9.810   3.004  0.1430  0.0520 -0.0527
51098SOL    HW158614   9.377   9.895   3.041  1.6801 -0.8284  1.2207
51098SOL    HW258615   9.400   9.810   2.919 -1.6501  1.2816 -1.0518
51099SOL     OW58616  11.574   6.782   2.535 -0.2276 -0.3270  0.4416
51099SOL    HW158617  11.646   6.844   2.540  1.6688 -2.2194 -1.3562
51099SOL    HW258618  11.589   6.721   2.606 -0.4030 -0.4025  0.4158
51100SOL     OW58619   3.867   5.733   4.772 -0.4949  0.4277 -0.4226
51100SOL    HW158620   3.892   5.825   4.786  0.5672  0.2653 -1.0926
51100SOL    HW258621   3.949   5.685   4.784 -0.4733 -0.1612 -2.5291
51101SOL     OW58622   3.972  10.808   5.478 -0.4611  0.2566 -0.4119
51101SOL    HW158623   4.042  10.759   5.522 -0.8537  0.0527 -0.0016
51101SOL    HW258624   3.917  10.839   5.550 -0.5252  0.8277 -0.7061
51102SOL     OW58625   6.185   0.550   6.924 -0.0045 -0.4390 -0.6343
51102SOL    HW158626   6.224   0.523   6.841  0.9887  0.4976 -0.4875
51102SOL    HW258627   6.097   0.580   6.900 -0.3572 -1.7570 -1.0886
51103SOL     OW58628   1.988   6.120   3.679  0.1653  0.4027  0.1430
51103SOL    HW158629   1.923   6.075   3.625 -0.4023 -0.0463  1.1717
51103SOL    HW258630   2.019   6.054   3.740 -1.0754  1.5015  2.0452
51104SOL     OW58631  11.248   4.369   2.899 -0.5284  0.7095 -0.0949
51104SOL    HW158632  11.181   4.409   2.953 -0.7465  1.4880 -0.9128
51104SOL    HW258633  11.247   4.276   2.923 -0.6566  1.0159  1.1633
51105SOL     OW58634   2.650   4.495   4.364  0.3231  0.5857 -0.0706
51105SOL    HW158635   2.591   4.565   4.391  0.1472  0.4757 -0.1658
51105SOL    HW258636   2.716   4.490   4.434 -0.5830 -0.2365  0.7623
51106SOL     OW58637   1.663   6.692   9.513 -0.0906  0.4373 -0.3108
51106SOL    HW158638   1.747   6.734   9.531 -0.1013  0.8009 -1.0430
51106SOL    HW258639   1.674   6.653   9.426 -0.7771  0.7550 -0.5481
51107SOL     OW58640   6.097   2.841  11.513  0.1536  0.4243 -0.1207
51107SOL    HW158641   6.126   2.750  11.517 -0.4402  0.1305 -1.6393
51107SOL    HW258642   6.066   2.861  11.601 -0.1013 -0.9833  0.1284
51108SOL     OW58643   8.579   2.091   3.336 -0.1823 -0.2231  0.8134
51108SOL    HW158644   8.597   2.123   3.248 -1.0753  0.5750  0.9036
51108SOL    HW258645   8.494   2.046   3.329  0.4091 -1.4083  0.9783
51109SOL     OW58646   9.122   9.003   6.462  0.0003  0.1735 -0.1562
51109SOL    HW158647   9.214   9.000   6.489  0.1527 -1.0658 -0.7535
51109SOL    HW258648   9.076   9.039   6.538  1.2866  3.6563 -0.8050
51110SOL     OW58649   6.610   3.265   6.680  0.0682 -0.3889 -0.3722
51110SOL    HW158650   6.532   3.212   6.691 -0.0123 -0.7915 -2.4850
51110SOL    HW258651   6.621   3.273   6.585  1.5489  1.2076 -0.1276
51111SOL     OW58652   4.918   8.491   2.649 -0.3643 -0.7157  0.2577
51111SOL    HW158653   4.926   8.400   2.619  1.4112 -0.5200  0.0720
51111SOL    HW258654   4.827   8.498   2.679 -1.4621 -1.6899 -2.5098
51112SOL     OW58655   8.737   4.748   4.582  0.3200 -0.1577  0.6257
51112SOL    HW158656   8.822   4.729   4.623  0.9575  0.8907 -0.1558
51112SOL    HW258657   8.746   4.836   4.548 -1.8827  0.8990  2.4786
51113SOL     OW58658   5.859   0.257   4.858 -0.1830  0.1156 -0.0062
51113SOL    HW158659   5.767   0.253   4.834 -0.3447 -0.6222  0.6957
51113SOL    HW258660   5.874   0.349   4.882 -0.8153  0.1783  0.1715
51114SOL     OW58661   6.029   6.902  11.115 -0.0025 -0.9072 -0.2269
51114SOL    HW158662   6.091   6.907  11.042 -0.8208 -2.3019 -1.0598
51114SOL    HW258663   6.066   6.838  11.175 -0.2758 -1.2289 -0.3933
51115SOL     OW58664   4.547  11.618   8.359 -0.4073 -0.8057 -0.5143
51115SOL    HW158665   4.549  11.684   8.289  0.2036 -0.7342 -0.4361
51115SOL    HW258666   4.608  11.550   8.330  0.9522 -0.1123  0.5767
51116SOL     OW58667   7.226   7.860   4.683  0.1211  0.1306 -0.4112
51116SOL    HW158668   7.245   7.952   4.702 -0.2564 -0.2474  2.0926
51116SOL    HW258669   7.221   7.818   4.769  2.2009 -2.6553 -1.5086
51117SOL     OW58670   2.461   8.499   3.850 -0.1004  0.3491 -0.1757
51117SOL    HW158671   2.420   8.586   3.857  1.9583  1.3307  0.4185
51117SOL    HW258672   2.554   8.517   3.840  0.3393 -1.8170 -0.4212
51118SOL     OW58673   4.217   3.008   9.824 -0.1333  0.2415 -0.2573
51118SOL    HW158674   4.177   3.048   9.901  1.6470  0.7746  0.4562
51118SOL    HW258675   4.266   2.934   9.859 -1.7681 -1.4262 -1.3157
51119SOL     OW58676  11.153   1.584  11.768  0.0363  0.1278  0.2176
51119SOL    HW158677  11.079   1.632  11.733 -0.5445 -0.0977  1.0943
51119SOL    HW258678  11.165   1.620  11.856  0.6409 -0.1968  0.2743
51120SOL     OW58679  11.556   1.032  10.063 -0.0252 -0.5987 -0.0330
51120SOL    HW158680  11.586   1.061   9.977 -0.9870  1.5867  0.3207
51120SOL    HW258681  11.484   0.971  10.044 -0.1402 -0.2313 -0.7907
51121SOL     OW58682   2.995   1.791   1.590 -0.0204 -0.0029 -0.4530
51121SOL    HW158683   3.018   1.703   1.619  0.8314  0.0658 -0.8549
51121SOL    HW258684   2.900   1.796   1.599 -0.1809 -1.2368 -1.1569
51122SOL     OW58685   4.164   5.047   2.056  0.4333 -0.0557 -0.4904
51122SOL    HW158686   4.114   5.079   1.981  0.1064  1.7751  0.4577
51122SOL    HW258687   4.236   5.110   2.065  1.5878 -1.3255 -0.3936
51123SOL     OW58688   8.935   5.502   2.052  0.3002  0.2766  0.2916
51123SOL    HW158689   8.960   5.468   2.138  2.2317  2.3143  0.6024
51123SOL    HW258690   8.849   5.543   2.067  0.4114  0.2261  1.1382
51124SOL     OW58691   6.442   0.749   3.917 -0.1247  0.1460  0.5531
51124SOL    HW158692   6.476   0.704   3.839 -0.2980 -0.2672  0.7133
51124SOL    HW258693   6.364   0.795   3.886 -0.0374  0.2093  0.4238
51125SOL     OW58694  11.814  11.296   7.456  0.0891 -0.4362 -0.2700
51125SOL    HW158695  11.906  11.272   7.466  0.0921 -0.4934 -0.4397
51125SOL    HW258696  11.780  11.235   7.391 -0.1135 -0.5326 -0.0736
51126SOL     OW58697  10.696   5.909   4.480 -0.4363  0.0283  0.4044
51126SOL    HW158698  10.694   5.834   4.421  1.1868  0.1053  0.2178
51126SOL    HW258699  10.717   5.873   4.566  0.0303  0.2257  0.3765
51127SOL     OW58700   0.526   2.256   7.093 -0.1040 -0.0924  0.5951
51127SOL    HW158701   0.543   2.181   7.151 -1.8859 -1.3632 -0.4341
51127SOL    HW258702   0.508   2.329   7.153  1.0377 -0.6078  1.6190
51128SOL     OW58703  11.659   6.931   5.501 -0.4402  0.4268 -0.3809
51128SOL    HW158704  11.700   6.971   5.577 -0.5670  0.2343 -0.2106
51128SOL    HW258705  11.732   6.910   5.442 -0.2653 -0.1453  0.0303
51129SOL     OW58706   7.874   9.461   1.498  0.8475 -0.0589 -0.1020
51129SOL    HW158707   7.808   9.428   1.437  0.3849  1.3625 -0.4195
51129SOL    HW258708   7.825   9.498   1.570  1.3527 -0.3136  0.3823
51130SOL     OW58709   7.404   8.778   8.161 -0.1427  1.0563 -0.0950
51130SOL    HW158710   7.436   8.717   8.228  1.5928  1.0554 -0.8787
51130SOL    HW258711   7.313   8.794   8.185 -0.1314 -0.4881  1.1253
51131SOL     OW58712   2.596   0.037  11.608  0.5025 -0.2082  0.1008
51131SOL    HW158713   2.610  -0.039  11.552  1.2651 -1.4321  1.8517
51131SOL    HW258714   2.515   0.017  11.655 -1.4562  1.8632 -2.0950
51132SOL     OW58715   6.730   1.962   4.646  0.3482 -0.3947 -0.0364
51132SOL    HW158716   6.725   2.046   4.693 -2.6842 -1.4464  1.7513
51132SOL    HW258717   6.686   1.978   4.563  0.6965  0.0233 -0.1452
51133SOL     OW58718  10.683   7.131   5.338 -0.0913  0.3729 -0.3191
51133SOL    HW158719  10.594   7.136   5.303  0.7528  3.0337 -2.3406
51133SOL    HW258720  10.740   7.142   5.262  1.9448  0.5819  1.1563
51134SOL     OW58721   5.390   6.670   6.966  0.2838 -0.3054  0.0877
51134SOL    HW158722   5.449   6.701   6.897  0.8233  0.3115  0.8067
51134SOL    HW258723   5.311   6.642   6.919  0.5991  0.2006 -0.7724
51135SOL     OW58724   3.839   6.339   2.011 -0.5049 -0.4422  0.0663
51135SOL    HW158725   3.926   6.355   1.973  0.8250 -1.8863  2.2653
51135SOL    HW258726   3.822   6.416   2.065 -0.2159 -0.4926  0.2347
51136SOL     OW58727   8.032  11.302  11.052  0.5369 -0.4407  0.1622
51136SOL    HW158728   8.019  11.219  11.098  0.7473 -0.4155  0.2724
51136SOL    HW258729   8.127  11.308  11.041  0.5188 -0.2354  0.1191
51137SOL     OW58730   7.630   1.785   4.030 -0.4909 -0.2830  0.2460
51137SOL    HW158731   7.650   1.750   3.943 -1.5416 -0.5796  0.1084
51137SOL    HW258732   7.594   1.872   4.013 -0.9192 -0.4340  0.3609
51138SOL     OW58733   5.489   9.780   1.780  0.3385 -0.5786 -0.2735
51138SOL    HW158734   5.558   9.839   1.813  1.5468 -1.2482 -1.5079
51138SOL    HW258735   5.410   9.835   1.779  0.5649 -0.0764  2.1500
51139SOL     OW58736   1.065   5.942   7.529 -0.3634  0.1732  0.2564
51139SOL    HW158737   1.142   5.966   7.478 -0.1904 -0.6729  0.1038
51139SOL    HW258738   0.998   6.005   7.502 -0.9834 -1.5744 -2.7522
51140SOL     OW58739   1.308  11.566   7.830 -0.3830  0.3920 -0.4577
51140SOL    HW158740   1.314  11.660   7.815  0.4244  0.2644 -1.0413
51140SOL    HW258741   1.248  11.534   7.763  0.6014  0.2841 -1.3141
51141SOL     OW58742   2.697   7.064   1.500 -0.4383 -0.0374  0.1597
51141SOL    HW158743   2.765   7.002   1.524  0.1875  0.7832  0.5647
51141SOL    HW258744   2.672   7.106   1.583 -2.4872 -1.3166  0.2812
51142SOL     OW58745   2.158   9.588  11.515 -0.2493 -0.2175  0.1007
51142SOL    HW158746   2.121   9.501  11.531 -1.0274  0.2166  0.7648
51142SOL    HW258747   2.209   9.607  11.593 -0.2714  0.0119  0.0615
51143SOL     OW58748   7.920   5.884   1.930  0.0864  0.5785  0.2388
51143SOL    HW158749   7.924   5.890   1.834  2.3899 -0.7898  0.1946
51143SOL    HW258750   7.937   5.792   1.949 -0.9457  0.7039  1.9840
51144SOL     OW58751  11.588   5.839   1.359  0.0543 -0.0723 -0.4216
51144SOL    HW158752  11.664   5.840   1.417 -0.9888 -0.6736  1.0146
51144SOL    HW258753  11.519   5.795   1.410 -1.9103  2.3209 -0.8138
51145SOL     OW58754   4.934   0.013   5.047  0.0317 -0.0796  0.0893
51145SOL    HW158755   4.900   0.087   4.996  0.2714  0.4295  0.6608
51145SOL    HW258756   5.029   0.018   5.036 -0.0054 -0.9501 -0.7465
51146SOL     OW58757   1.849   4.774   4.454 -0.4526 -0.0264 -0.7017
51146SOL    HW158758   1.917   4.711   4.474 -0.7692 -0.3328 -0.5771
51146SOL    HW258759   1.768   4.724   4.457 -0.8420  0.6184  0.6303
51147SOL     OW58760   6.826  11.729   7.649 -0.0375 -0.0570  0.3571
51147SOL    HW158761   6.748  11.679   7.624 -0.4833  0.2309  1.0967
51147SOL    HW258762   6.801  11.820   7.634  0.8820 -0.0453 -1.2817
51148SOL     OW58763   7.518   9.903   6.261 -0.1695 -0.3931  0.5484
51148SOL    HW158764   7.446   9.959   6.231  1.9503  1.4332 -1.5118
51148SOL    HW258765   7.503   9.819   6.217 -1.4462 -0.3252  0.8112
51149SOL     OW58766   9.338   4.848   6.043  0.0385  0.3381 -0.0048
51149SOL    HW158767   9.348   4.849   6.139  2.1729  1.1688 -0.1759
51149SOL    HW258768   9.287   4.770   6.025 -0.1852  0.0184  1.8077
51150SOL     OW58769   0.069   5.573   8.974 -0.0678 -0.5259 -0.0754
51150SOL    HW158770   0.157   5.555   8.941 -0.1291 -1.8307  0.3730
51150SOL    HW258771   0.081   5.642   9.039  0.6364 -0.6989 -0.0114
51151SOL     OW58772   5.576   5.129   7.039  0.1590 -0.3396 -0.1580
51151SOL    HW158773   5.523   5.056   7.008  0.6470 -0.7112 -0.1162
51151SOL    HW258774   5.665   5.094   7.046  0.2941  0.0969  0.4124
51152SOL     OW58775   9.978   7.082   9.673 -0.7141  0.2073 -0.1728
51152SOL    HW158776  10.001   7.105   9.582  2.9491  3.6446  1.3191
51152SOL    HW258777  10.058   7.042   9.708 -2.3188 -1.7815  1.4064
51153SOL     OW58778   0.828   7.054  11.353 -0.3686  0.2158  0.0014
51153SOL    HW158779   0.878   7.079  11.431  2.6713  0.8048 -1.9502
51153SOL    HW258780   0.810   6.961  11.364  0.7767  0.0987  1.0391
51154SOL     OW58781   9.964   5.613   1.197 -1.1413 -0.2789  0.0163
51154SOL    HW158782  10.015   5.694   1.199  0.3788 -1.1901  0.3914
51154SOL    HW258783   9.973   5.577   1.285  0.2669 -2.0319 -0.7832
51155SOL     OW58784  10.044   5.204   1.995  0.4050  0.0321 -0.1652
51155SOL    HW158785  10.076   5.125   1.952  0.0191 -2.2090  3.3074
51155SOL    HW258786   9.953   5.184   2.017  0.5161  1.1123  1.4546
51156SOL     OW58787   7.881   5.273   4.974  0.1335 -0.6423 -0.5099
51156SOL    HW158788   7.842   5.315   4.897 -1.2311  0.6077  0.8066
51156SOL    HW258789   7.853   5.182   4.968  0.1993 -0.5990 -1.5912
51157SOL     OW58790   2.668   2.324   3.864  0.2736  0.0473  0.4550
51157SOL    HW158791   2.727   2.270   3.813 -0.6301  0.1942 -0.7825
51157SOL    HW258792   2.606   2.263   3.903  0.6029 -0.0049  0.9119
51158SOL     OW58793   9.952   3.062   5.504 -0.1634 -0.0627  0.0335
51158SOL    HW158794   9.975   3.062   5.411  3.2231  1.0676  0.7224
51158SOL    HW258795  10.003   3.133   5.542 -0.9576 -0.8491  2.8809
51159SOL     OW58796   2.463   8.436   1.472 -0.1667 -0.0702 -0.2466
51159SOL    HW158797   2.487   8.516   1.519  0.9941 -0.6170  0.1263
51159SOL    HW258798   2.409   8.387   1.534  0.1811 -0.1459 -0.0020
51160SOL     OW58799   8.984  11.046   8.337 -0.2672 -0.5917  0.0993
51160SOL    HW158800   8.898  11.079   8.311 -0.3099 -0.4061  0.4696
51160SOL    HW258801   9.041  11.123   8.336 -0.5305 -0.3500  1.6743
51161SOL     OW58802   7.597   7.366   5.463 -0.1144 -0.1084 -0.2427
51161SOL    HW158803   7.575   7.431   5.397  0.3323 -0.3562 -0.6434
51161SOL    HW258804   7.516   7.355   5.514 -1.5614 -2.2513 -2.7136
51162SOL     OW58805   7.309   1.553  10.367 -0.0630 -0.0156 -0.5720
51162SOL    HW158806   7.386   1.506  10.401  0.4334 -0.6280 -2.4576
51162SOL    HW258807   7.289   1.510  10.284 -1.6612  0.9906 -0.7465
51163SOL     OW58808   1.941  11.080   3.630 -0.7524 -0.4418 -0.4605
51163SOL    HW158809   1.917  11.017   3.562 -0.2758 -1.1151 -0.0192
51163SOL    HW258810   1.915  11.038   3.712  1.2282 -0.9016 -0.0162
51164SOL     OW58811   6.646   5.980   0.744  0.5095 -0.1913 -0.3969
51164SOL    HW158812   6.717   5.990   0.680  1.2161  1.7499  0.5927
51164SOL    HW258813   6.583   6.049   0.720  0.0207 -0.4817  0.0528
51165SOL     OW58814   4.095   3.232   2.551 -0.0745 -0.0012 -0.1093
51165SOL    HW158815   4.169   3.204   2.604 -0.8422 -0.2268  0.8924
51165SOL    HW258816   4.050   3.150   2.529  0.2123  0.0974 -1.0818
51166SOL     OW58817   7.717   7.316   3.369 -0.4786  0.1908 -0.1443
51166SOL    HW158818   7.734   7.409   3.385 -0.2518 -0.1638  2.0337
51166SOL    HW258819   7.798   7.283   3.331 -1.0419  1.1149 -2.2908
51167SOL     OW58820   4.073   1.253   6.412 -0.8211  0.1395 -0.3194
51167SOL    HW158821   4.168   1.247   6.401 -0.7680  3.0633 -2.7606
51167SOL    HW258822   4.061   1.272   6.505  0.9222 -0.6458  0.1103
51168SOL     OW58823   8.869   1.152   4.761 -0.0262 -0.4162  0.4367
51168SOL    HW158824   8.945   1.210   4.766 -0.2901  0.3564 -2.5366
51168SOL    HW258825   8.794   1.210   4.755 -0.3523 -0.9790 -1.8765
51169SOL     OW58826   9.125   2.541  11.557 -0.3328  0.8403 -0.2021
51169SOL    HW158827   9.044   2.505  11.592 -0.2598  1.9917  1.2619
51169SOL    HW258828   9.097   2.611  11.499 -0.4085  0.4745 -0.6080
51170SOL     OW58829   1.904   2.152   6.223  0.0628  0.7038  0.1908
51170SOL    HW158830   1.919   2.246   6.214 -0.8858  0.9405  0.8684
51170SOL    HW258831   1.991   2.115   6.236  0.6326  1.2579 -1.8141
51171SOL     OW58832   8.073   9.654   1.885 -0.2635 -0.4141  0.1530
51171SOL    HW158833   8.080   9.603   1.966  2.3042  1.1617  1.0383
51171SOL    HW258834   8.126   9.607   1.821 -1.8823 -1.3840 -0.5412
51172SOL     OW58835   1.705   1.124   5.683 -0.6567  0.4543 -0.1767
51172SOL    HW158836   1.766   1.196   5.667  1.1209 -1.2791 -1.7065
51172SOL    HW258837   1.759   1.046   5.681 -2.4895 -0.9695  1.6619
51173SOL     OW58838   8.347   9.080   0.456  0.0674 -0.3684 -0.4040
51173SOL    HW158839   8.410   9.058   0.387  0.6447 -0.2282  0.0710
51173SOL    HW258840   8.280   9.131   0.412 -0.4260 -1.6412 -1.2001
51174SOL     OW58841   4.164   1.594   3.899  0.3235 -0.7401 -0.0114
51174SOL    HW158842   4.218   1.664   3.936  0.6782  0.5467 -2.7084
51174SOL    HW258843   4.223   1.521   3.886  0.6057 -0.5592  0.2513
51175SOL     OW58844   0.529  10.463   2.651  0.2238 -0.3143 -0.3820
51175SOL    HW158845   0.437  10.437   2.643  0.0280  0.1248  0.3290
51175SOL    HW258846   0.578  10.394   2.606 -0.2687 -1.9948  1.4926
51176SOL     OW58847   7.863   4.831   5.222  0.2080  0.3157 -0.2259
51176SOL    HW158848   7.793   4.800   5.279 -0.0455 -0.4141 -0.9228
51176SOL    HW258849   7.941   4.787   5.255  0.2172  0.5412  0.0682
51177SOL     OW58850  10.622   1.466   6.233 -0.2505 -0.6423  0.3868
51177SOL    HW158851  10.621   1.560   6.212 -0.6897 -0.9082 -0.9115
51177SOL    HW258852  10.715   1.443   6.235 -0.1675 -0.5265 -1.0720
51178SOL     OW58853   7.696   8.710   5.931  0.2985  0.0226 -0.0590
51178SOL    HW158854   7.642   8.780   5.968  1.3470  0.7088  0.2173
51178SOL    HW258855   7.712   8.650   6.003 -1.8483 -1.3689 -0.6318
51179SOL     OW58856  10.980   4.794   8.104  0.2345 -0.7529  0.3141
51179SOL    HW158857  10.985   4.813   8.010  0.8422 -1.7417  0.1314
51179SOL    HW258858  11.056   4.839   8.141  0.1812 -0.6362  0.2824
51180SOL     OW58859   0.717   3.520   7.586 -0.0604  0.2888 -0.9502
51180SOL    HW158860   0.755   3.452   7.642 -0.6294  0.0970 -0.7891
51180SOL    HW258861   0.663   3.472   7.524  1.1053  0.4374 -2.1266
51181SOL     OW58862   6.594   4.817   7.607 -0.0757 -0.5024 -0.0254
51181SOL    HW158863   6.524   4.815   7.542  1.3588 -2.3299 -1.6743
51181SOL    HW258864   6.562   4.761   7.678  0.1226 -2.3782 -1.3298
51182SOL     OW58865   3.933   3.635   3.813 -0.0971 -0.2813  0.2790
51182SOL    HW158866   3.940   3.644   3.908 -1.5871 -0.5991  0.4305
51182SOL    HW258867   4.014   3.591   3.788 -0.1638 -1.1792  1.5430
51183SOL     OW58868   3.130   8.195   2.710  0.3281  0.7474 -0.1488
51183SOL    HW158869   3.130   8.099   2.709 -1.0667  0.7186 -0.6542
51183SOL    HW258870   3.190   8.219   2.780  1.0129 -0.4840 -0.2837
51184SOL     OW58871   4.501   0.615   7.135 -0.0943 -0.5802 -0.0218
51184SOL    HW158872   4.563   0.604   7.207  0.0072 -1.4456 -0.2307
51184SOL    HW258873   4.418   0.635   7.178 -0.3147 -2.2811  0.4274
51185SOL     OW58874   6.345   7.015   2.191  0.4936  0.0306 -0.4019
51185SOL    HW158875   6.410   6.945   2.188  0.7561  0.2946 -1.5881
51185SOL    HW258876   6.374   7.073   2.261  0.2626 -1.0380  0.6041
51186SOL     OW58877   1.542   7.213   1.470 -0.4766  0.0707 -0.5705
51186SOL    HW158878   1.524   7.148   1.402 -0.4491 -0.3417 -0.1925
51186SOL    HW258879   1.612   7.173   1.522  1.1385  1.3801 -1.6622
51187SOL     OW58880   3.088   8.583  10.659  0.0056 -0.1821 -0.0360
51187SOL    HW158881   3.070   8.545  10.746  3.0518  0.0147  0.7796
51187SOL    HW258882   3.180   8.608  10.662  0.7068 -1.6353 -3.9083
51188SOL     OW58883   1.557   3.801   7.958 -0.1240 -0.3493 -0.3530
51188SOL    HW158884   1.477   3.850   7.937  0.3266  0.7810  0.4882
51188SOL    HW258885   1.586   3.837   8.041  1.3405 -0.6588 -0.7066
51189SOL     OW58886   8.427   0.095   0.347 -0.2986  0.4206  0.3806
51189SOL    HW158887   8.449   0.004   0.367  1.2531  0.7119  0.1482
51189SOL    HW258888   8.341   0.090   0.306 -0.7658 -0.8111  1.4234
51190SOL     OW58889   8.500   3.600   4.597  0.8972  0.4402  0.3807
51190SOL    HW158890   8.520   3.508   4.613  1.4317  0.4126 -0.3893
51190SOL    HW258891   8.440   3.624   4.667  1.0193 -0.4021  0.7861
51191SOL     OW58892   3.189   9.190  11.552 -0.1790 -0.2364  0.5343
51191SOL    HW158893   3.214   9.110  11.507  2.1771  0.6720  0.0949
51191SOL    HW258894   3.214   9.175  11.643 -0.3413 -0.2395  0.5789
51192SOL     OW58895   9.170   1.791   2.642  0.3700  0.1743 -0.0198
51192SOL    HW158896   9.194   1.868   2.592 -0.6960  1.0529  0.7810
51192SOL    HW258897   9.238   1.727   2.621  1.8330  1.6388  0.0609
51193SOL     OW58898   6.230   8.710   4.820 -0.1579  0.1064  0.4379
51193SOL    HW158899   6.166   8.695   4.750 -1.0112 -2.0406  1.5852
51193SOL    HW258900   6.315   8.702   4.778 -0.5327  3.0936 -1.1435
51194SOL     OW58901   9.547  10.939   5.449  0.0910  0.3461  0.5170
51194SOL    HW158902   9.622  10.993   5.474 -0.2773  0.4677  1.4241
51194SOL    HW258903   9.544  10.869   5.515 -0.2562  0.0182  0.1613
51195SOL     OW58904   1.420   1.879   7.081  0.0361  0.0594 -0.8306
51195SOL    HW158905   1.397   1.898   7.172  1.2398  1.9109 -0.8697
51195SOL    HW258906   1.338   1.889   7.032 -0.5935 -0.8477  0.0013
51196SOL     OW58907   7.279   1.109   5.331  0.5088 -0.0187 -0.4067
51196SOL    HW158908   7.319   1.196   5.330  1.2348 -0.3225 -2.4692
51196SOL    HW258909   7.311   1.069   5.413 -0.6783  1.9647  1.1198
51197SOL     OW58910   3.253   0.255  10.483  0.2949  0.1805  0.3179
51197SOL    HW158911   3.182   0.222  10.539 -1.9701  0.3936 -2.2153
51197SOL    HW258912   3.273   0.183  10.423  0.7078  0.8416 -0.3666
51198SOL     OW58913   9.695   0.044   3.545 -0.0713 -0.7209  0.3590
51198SOL    HW158914   9.718  -0.002   3.626 -0.9871 -1.3360  0.2929
51198SOL    HW258915   9.665  -0.025   3.486  0.1223 -0.2204 -0.3431
51199SOL     OW58916   4.795   3.405   7.592 -0.5292 -0.1024  0.1846
51199SOL    HW158917   4.812   3.380   7.502  0.4610  0.3943  0.2158
51199SOL    HW258918   4.737   3.337   7.626 -1.1052 -0.1687 -0.8874
51200SOL     OW58919   2.827  11.323   0.315 -0.2159  0.6094  0.7122
51200SOL    HW158920   2.837  11.325   0.411 -0.0971 -1.1370  0.7723
51200SOL    HW258921   2.895  11.262   0.286 -1.1595  0.0479 -0.3509
51201SOL     OW58922   7.650   4.181   1.052  0.5332 -0.3462  0.3239
51201SOL    HW158923   7.595   4.113   1.014 -1.5312  1.5257 -0.2026
51201SOL    HW258924   7.736   4.168   1.012 -0.2477 -1.6029 -1.0235
51202SOL     OW58925   6.031   2.237   1.169 -0.1042 -0.1440  0.4002
51202SOL    HW158926   6.082   2.262   1.092  1.5174 -1.6137  0.9317
51202SOL    HW258927   5.942   2.268   1.150  0.5738  0.8669 -1.3731
51203SOL     OW58928   8.999   1.099   5.426  0.2023 -0.6843  0.1953
51203SOL    HW158929   8.947   1.172   5.392  0.5267 -0.2144  0.6873
51203SOL    HW258930   8.968   1.022   5.377  0.4825 -0.0783 -0.9697
51204SOL     OW58931   8.604   7.844   3.660  0.5738  0.2311  0.2835
51204SOL    HW158932   8.638   7.755   3.668 -1.6997 -1.0241 -2.2002
51204SOL    HW258933   8.544   7.853   3.734  0.6846 -0.3788  0.4529
51205SOL     OW58934   8.726  11.302   0.008  0.4528 -0.5731  0.4784
51205SOL    HW158935   8.806  11.266   0.045  1.3885  0.7346 -0.2336
51205SOL    HW258936   8.733  11.397   0.020 -0.3850 -0.3276 -0.7579
51206SOL     OW58937  11.611  11.487   4.427  0.2560  0.4644  0.0596
51206SOL    HW158938  11.593  11.493   4.333  0.5365  0.2877 -0.0059
51206SOL    HW258939  11.527  11.510   4.469 -1.5935 -4.5293 -0.2431
51207SOL     OW58940   3.849   8.324   9.199 -0.0170 -0.1042 -0.0375
51207SOL    HW158941   3.839   8.230   9.214 -0.4287  0.0512  0.6715
51207SOL    HW258942   3.781   8.365   9.252 -0.3424  0.5629 -0.9444
51208SOL     OW58943   0.624   7.794   9.243  0.5960  0.1488  0.1886
51208SOL    HW158944   0.691   7.862   9.256  1.2851 -0.5449  0.3921
51208SOL    HW258945   0.654   7.722   9.299  0.0776 -0.4560 -0.3107
51209SOL     OW58946   0.019   3.733   0.912  0.1351 -0.0887 -0.0082
51209SOL    HW158947   0.055   3.778   0.988  0.5650  1.2682 -0.9723
51209SOL    HW258948  -0.049   3.793   0.879  2.5008  1.2701 -2.8725
51210SOL     OW58949   6.914   9.333  11.141 -0.0545 -0.3445  0.2892
51210SOL    HW158950   6.919   9.416  11.094 -0.5207 -1.0165 -0.9806
51210SOL    HW258951   6.991   9.284  11.114  0.9018  0.1253  2.0053
51211SOL     OW58952   6.558   5.443   7.925  0.2407  0.1379 -0.0077
51211SOL    HW158953   6.607   5.360   7.924  0.9954  0.5797 -0.2549
51211SOL    HW258954   6.580   5.482   8.010 -1.6996 -0.8229  0.9997
51212SOL     OW58955   2.439   0.804   2.001  0.3220 -0.1434 -0.1170
51212SOL    HW158956   2.500   0.733   1.980  0.7534 -0.3152  1.5563
51212SOL    HW258957   2.444   0.813   2.097  2.1455  3.7983 -0.3907
51213SOL     OW58958   1.516   7.277   4.931  0.1017 -0.5673 -0.0332
51213SOL    HW158959   1.509   7.345   4.999 -0.9501 -0.2431 -0.4458
51213SOL    HW258960   1.436   7.287   4.879  1.0501 -0.5770 -1.5488
51214SOL     OW58961   8.545   3.571   1.524  0.2026 -0.6004  0.2051
51214SOL    HW158962   8.545   3.556   1.429 -1.8201  1.2683 -0.2043
51214SOL    HW258963   8.605   3.645   1.536 -0.8854  0.3437  0.0647
51215SOL     OW58964   0.536   8.039   2.010 -0.3921 -0.7746  0.6638
51215SOL    HW158965   0.459   8.024   1.955 -0.5039  2.0039 -0.1102
51215SOL    HW258966   0.520   8.124   2.051  1.9527 -0.4354  1.0213
51216SOL     OW58967   1.485   7.200   8.745  0.2491  0.1262 -0.1446
51216SOL    HW158968   1.402   7.196   8.698  0.9794 -1.1233 -1.4008
51216SOL    HW258969   1.465   7.169   8.834 -0.5034 -0.7942 -0.6275
51217SOL     OW58970   1.266   8.368   9.986  0.0515  0.6163 -0.3539
51217SOL    HW158971   1.193   8.370  10.049  0.7084 -0.1932  0.4579
51217SOL    HW258972   1.235   8.310   9.916 -0.5831  1.3117 -0.6596
51218SOL     OW58973   2.953   1.066   8.752 -0.2439  0.7586 -0.1129
51218SOL    HW158974   2.877   1.116   8.781 -1.7506 -0.3259 -1.9785
51218SOL    HW258975   2.946   1.064   8.656 -1.1226 -4.0520 -0.2050
51219SOL     OW58976   9.611   3.571  11.298  0.0998 -0.9661 -0.2288
51219SOL    HW158977   9.598   3.666  11.294  0.6622 -0.9312 -2.2990
51219SOL    HW258978   9.523   3.535  11.292 -0.0947 -0.5821  0.2456
51220SOL     OW58979   9.212  10.613   1.599 -0.1038 -0.9771 -0.3171
51220SOL    HW158980   9.283  10.612   1.535  0.4657  2.0593  0.1196
51220SOL    HW258981   9.132  10.616   1.547  0.2186 -1.5816 -0.8487
51221SOL     OW58982  11.250   5.600   7.395  0.0638  1.0484 -0.2355
51221SOL    HW158983  11.170   5.606   7.446 -0.3373  1.3769 -0.8900
51221SOL    HW258984  11.311   5.659   7.438  0.8341 -1.0390  1.7853
51222SOL     OW58985  10.947  11.665   0.839  0.7100  0.0512 -0.5499
51222SOL    HW158986  11.042  11.661   0.838  0.7288  0.1835  0.2370
51222SOL    HW258987  10.920  11.598   0.902  0.2632 -0.2475 -1.0502
51223SOL     OW58988   7.940   6.461   8.837  0.4586  0.8277 -0.1306
51223SOL    HW158989   7.938   6.390   8.773  1.2853  0.9684 -0.3367
51223SOL    HW258990   8.004   6.523   8.801  2.4572 -0.0023  1.7663
51224SOL     OW58991   0.397   5.208   8.340  0.0766  0.1731  0.8948
51224SOL    HW158992   0.430   5.272   8.277 -0.7557 -1.9349 -1.8502
51224SOL    HW258993   0.388   5.258   8.421 -0.0611  3.4208 -0.9324
51225SOL     OW58994  11.768   5.844   1.590  0.0173  0.2005  0.0897
51225SOL    HW158995  11.707   5.896   1.643  0.1386  0.1273  0.3023
51225SOL    HW258996  11.842   5.828   1.648  0.3974  0.5907 -0.2837
51226SOL     OW58997   4.962   9.565  10.453 -0.2220  0.6555  0.4332
51226SOL    HW158998   4.951   9.476  10.418  3.3832 -0.5281  1.8361
51226SOL    HW258999   4.925   9.559  10.541 -1.7767  1.1955 -0.1545
51227SOL     OW59000   5.168   3.468   6.295  0.3483 -0.4642 -0.1018
51227SOL    HW159001   5.205   3.508   6.216  0.9752 -0.7871  0.0260
51227SOL    HW259002   5.182   3.374   6.284 -1.1479 -0.6786 -0.4139
51228SOL     OW59003  11.306   8.700   0.706 -0.4731 -0.1589 -0.2100
51228SOL    HW159004  11.308   8.725   0.798 -2.1397  1.3246 -0.5395
51228SOL    HW259005  11.227   8.648   0.697  0.5496 -1.7375 -0.5081
51229SOL     OW59006   8.617  11.320   5.201  0.2325  0.0090 -0.1878
51229SOL    HW159007   8.648  11.241   5.247 -1.0867  0.0334  0.7935
51229SOL    HW259008   8.544  11.290   5.148  0.5654  0.3398 -0.8454
51230SOL     OW59009  10.814   6.230   5.936 -0.5756 -0.1654  0.4834
51230SOL    HW159010  10.786   6.295   5.873  0.0060 -1.1285 -0.8117
51230SOL    HW259011  10.739   6.172   5.947 -0.1048 -1.0559 -0.7616
51231SOL     OW59012   7.766   2.447   8.580  0.1673  0.5078  0.0573
51231SOL    HW159013   7.672   2.463   8.582 -0.0073 -0.3449 -0.6771
51231SOL    HW259014   7.794   2.478   8.494  0.6269  1.0646  0.3992
51232SOL     OW59015   4.982   7.737   8.767 -0.3552 -0.2489  0.3750
51232SOL    HW159016   5.006   7.824   8.737 -0.9285  0.1835  1.1362
51232SOL    HW259017   5.065   7.692   8.781 -0.0584  0.2293  0.1393
51233SOL     OW59018   2.344   4.575   4.014  0.2150 -0.4637  0.4846
51233SOL    HW159019   2.268   4.549   3.961  1.3815  0.3492 -1.7389
51233SOL    HW259020   2.321   4.661   4.047  1.1593  1.1452 -2.6310
51234SOL     OW59021   7.828   5.813   8.628  0.0865  0.6643  0.5364
51234SOL    HW159022   7.781   5.772   8.700 -1.6630  2.4055  0.4880
51234SOL    HW259023   7.836   5.745   8.562 -0.8701 -0.1592  1.2454
51235SOL     OW59024   4.665   9.074  11.601  0.0582  0.6611  0.0570
51235SOL    HW159025   4.704   8.995  11.639 -2.1467  0.4499  2.0674
51235SOL    HW259026   4.638   9.126  11.677 -1.5558  1.7967 -1.2392
51236SOL     OW59027   8.194   5.022   8.356 -0.5001 -0.0762  0.3230
51236SOL    HW159028   8.236   5.029   8.270  1.3554  1.4104  1.2705
51236SOL    HW259029   8.248   4.959   8.404 -0.8950 -0.0917  0.7549
51237SOL     OW59030   4.043   0.310   2.535  0.0180 -0.2366  0.1238
51237SOL    HW159031   4.027   0.310   2.441  1.1936 -2.2910 -0.1280
51237SOL    HW259032   4.030   0.219   2.562  2.7557 -0.3638  1.3426
51238SOL     OW59033   9.208   8.954   2.790  0.2310 -0.3137 -0.2786
51238SOL    HW159034   9.256   9.037   2.783  0.6903 -0.4836  0.6859
51238SOL    HW259035   9.204   8.937   2.884  0.9218 -1.8397 -0.4961
51239SOL     OW59036   5.076   8.858   8.256 -0.7592 -0.2574  0.3739
51239SOL    HW159037   5.125   8.813   8.324 -0.6588  0.7710  1.0104
51239SOL    HW259038   5.127   8.937   8.238 -1.7373  0.4045  0.4427
51240SOL     OW59039   1.167   9.409   4.003 -0.5370 -0.0281 -0.2514
51240SOL    HW159040   1.079   9.441   4.020 -0.1146  0.9447  0.1424
51240SOL    HW259041   1.173   9.327   4.054 -1.1924 -0.0811 -0.2538
51241SOL     OW59042   7.200   6.626  10.118  0.3753  0.1376 -0.2175
51241SOL    HW159043   7.173   6.538  10.144  1.2568 -0.1925 -0.3756
51241SOL    HW259044   7.157   6.684  10.181  1.1412 -0.5362  0.9659
51242SOL     OW59045  10.802   4.436   6.960 -0.1441  0.0132  0.5086
51242SOL    HW159046  10.739   4.373   6.926  0.4426 -0.6938  0.7147
51242SOL    HW259047  10.810   4.502   6.891  1.0771 -1.4241 -0.8123
51243SOL     OW59048  10.058   1.037   2.225 -0.1720 -0.3680  0.0067
51243SOL    HW159049   9.989   1.066   2.284 -1.7079 -1.6614 -1.0833
51243SOL    HW259050  10.094   1.119   2.189  0.2465  0.4057  2.0279
51244SOL     OW59051   1.530   1.190   7.131  0.0434  0.4662 -0.1458
51244SOL    HW159052   1.604   1.251   7.125 -1.3258  2.3006  0.5669
51244SOL    HW259053   1.511   1.168   7.040  0.4277  1.3414 -0.4568
51245SOL     OW59054   6.255   9.232   4.182 -0.0088  0.3253 -0.4052
51245SOL    HW159055   6.283   9.272   4.100 -2.0339  1.3802 -0.6647
51245SOL    HW259056   6.161   9.217   4.170 -0.9225  2.7044  2.4985
51246SOL     OW59057  10.104   4.394   6.452 -0.0755  0.7751 -0.1420
51246SOL    HW159058  10.111   4.478   6.407 -1.6039  1.9254  1.6162
51246SOL    HW259059  10.135   4.412   6.541 -1.7268 -0.1270  0.6653
51247SOL     OW59060   7.342   5.849   4.786  0.0265 -0.2781  0.0018
51247SOL    HW159061   7.372   5.901   4.712  0.7469 -0.2005  0.3419
51247SOL    HW259062   7.421   5.833   4.838 -0.5868  0.2464  1.1173
51248SOL     OW59063   5.390   7.816   4.416  0.3571 -0.0008  0.0045
51248SOL    HW159064   5.404   7.846   4.506  0.4861  1.3314 -0.4225
51248SOL    HW259065   5.353   7.893   4.371 -2.0064 -1.3564 -0.5317
51249SOL     OW59066   3.582   3.127   4.241  0.2890 -0.2261 -0.3556
51249SOL    HW159067   3.615   3.206   4.197  2.9950 -0.9339  0.2026
51249SOL    HW259068   3.566   3.065   4.170  0.5411  0.0228 -0.6329
51250SOL     OW59069   6.436   1.857  11.602 -0.3796  0.1699  0.1797
51250SOL    HW159070   6.517   1.826  11.561  0.0869  1.8165 -0.2084
51250SOL    HW259071   6.399   1.779  11.643  0.3540 -1.0447 -1.3649
51251SOL     OW59072   8.176   3.323  11.698 -0.2474 -0.1250 -0.5379
51251SOL    HW159073   8.187   3.270  11.777 -0.5679  1.4045  0.5885
51251SOL    HW259074   8.082   3.321  11.681 -0.1662 -0.5287 -0.9277
51252SOL     OW59075  10.060   1.188   9.711 -0.1245  0.6445 -0.0666
51252SOL    HW159076  10.096   1.273   9.737 -0.1725  0.7769 -0.4211
51252SOL    HW259077  10.118   1.124   9.751 -0.0561  0.8450  0.1615
51253SOL     OW59078   1.957   2.918   6.723  0.1186 -0.1836 -0.0737
51253SOL    HW159079   1.905   2.862   6.665  2.0360 -1.0409 -1.0531
51253SOL    HW259080   1.927   3.007   6.705 -0.7215 -0.6230 -0.8839
51254SOL     OW59081   6.164   0.459   7.660  0.5652 -0.5347 -0.0264
51254SOL    HW159082   6.241   0.421   7.617  0.9598  1.8684 -1.6652
51254SOL    HW259083   6.194   0.479   7.749  1.2115 -1.3399 -0.0485
51255SOL     OW59084   8.223   6.943   0.812  0.3270 -0.1426  0.0820
51255SOL    HW159085   8.192   6.867   0.764 -0.2971 -0.9578  1.7259
51255SOL    HW259086   8.291   6.909   0.870 -2.8141 -0.4193  3.9580
51256SOL     OW59087  10.101   9.815   7.776  0.4233 -0.0602 -0.2662
51256SOL    HW159088  10.024   9.830   7.831  0.1556 -0.2899 -0.5719
51256SOL    HW259089  10.080   9.734   7.728  0.2735  0.5992 -1.3556
51257SOL     OW59090  10.842   3.590  10.831  0.6507 -0.6303  0.2705
51257SOL    HW159091  10.885   3.674  10.846 -0.5018  0.0305 -0.0022
51257SOL    HW259092  10.799   3.570  10.914 -1.7901  0.6994 -0.5841
51258SOL     OW59093  10.721   5.786   7.194  0.8431 -0.4809  0.4616
51258SOL    HW159094  10.755   5.719   7.253  2.3559 -0.4043 -0.2725
51258SOL    HW259095  10.796   5.810   7.139 -0.1287  0.5320 -0.4774
51259SOL     OW59096   5.891   3.632  11.578 -0.1267 -0.1042 -0.0398
51259SOL    HW159097   5.827   3.574  11.536 -0.3525  0.3667 -0.3559
51259SOL    HW259098   5.838   3.690  11.633  0.0119  0.3394 -0.3615
51260SOL     OW59099   6.527   9.981   8.693 -0.2460  0.0033  0.2821
51260SOL    HW159100   6.457  10.025   8.742  0.7461  1.1721  0.7000
51260SOL    HW259101   6.483   9.945   8.616 -1.2752  0.9077  0.4242
51261SOL     OW59102   4.057   8.158   5.367 -0.1653  0.4745 -0.3841
51261SOL    HW159103   4.002   8.127   5.438 -0.2607  0.4384 -0.4737
51261SOL    HW259104   4.007   8.141   5.288 -0.6753  1.8153 -0.3779
51262SOL     OW59105   6.520   6.517   5.271 -0.4876 -0.0558 -0.1178
51262SOL    HW159106   6.463   6.476   5.336 -0.7425  0.8834  0.2730
51262SOL    HW259107   6.607   6.481   5.289 -0.8628 -1.1427 -0.4122
51263SOL     OW59108   7.132   0.373   1.821 -0.3720 -0.7182  0.8664
51263SOL    HW159109   7.190   0.448   1.832  0.5006 -1.1145 -0.6904
51263SOL    HW259110   7.044   0.409   1.830 -0.0207  0.7290 -0.9115
51264SOL     OW59111   4.923   1.729   4.864  0.3510 -0.3661 -0.0349
51264SOL    HW159112   4.918   1.754   4.771  0.6218  0.5160  0.1729
51264SOL    HW259113   4.833   1.736   4.895  0.2875 -0.4903 -0.1918
51265SOL     OW59114  11.212   8.660   6.257  0.1264  0.6040 -0.2622
51265SOL    HW159115  11.283   8.632   6.199 -0.9468 -1.4542 -0.6423
51265SOL    HW259116  11.137   8.673   6.199 -0.8773 -1.1891  0.5730
51266SOL     OW59117   1.417   2.540   8.888 -0.6614 -0.8067 -0.5218
51266SOL    HW159118   1.455   2.533   8.975 -1.8338 -0.0484  0.0893
51266SOL    HW259119   1.339   2.485   8.892 -1.9001  0.8561 -0.3550
51267SOL     OW59120   4.967   9.593   9.157 -0.0132 -0.1226  0.5312
51267SOL    HW159121   4.962   9.561   9.068 -0.4667  1.6125 -0.1207
51267SOL    HW259122   4.895   9.549   9.203 -1.0399  0.4378 -0.4858
51268SOL     OW59123   2.246   3.992   1.368 -0.1932  0.1576 -0.0056
51268SOL    HW159124   2.249   3.947   1.452 -1.4129  0.5515  0.2663
51268SOL    HW259125   2.252   4.085   1.391 -2.5835  0.4064 -0.1451
51269SOL     OW59126   5.893   5.087   8.487  0.1619 -0.5390  0.0411
51269SOL    HW159127   5.875   5.009   8.540 -1.1072 -0.0584  0.3538
51269SOL    HW259128   5.854   5.067   8.402  0.1369 -0.3848  0.0163
51270SOL     OW59129   0.925   4.287   8.371 -0.4146  0.1365 -0.7063
51270SOL    HW159130   0.871   4.225   8.421  0.0801 -0.7480 -1.2373
51270SOL    HW259131   0.923   4.253   8.282  1.2967 -0.1310 -0.6727
51271SOL     OW59132  10.711   7.267   7.269  0.2715 -0.6462 -0.1239
51271SOL    HW159133  10.784   7.327   7.281  1.4486 -2.0960  0.2846
51271SOL    HW259134  10.750   7.180   7.276 -1.8636 -1.5433  2.9277
51272SOL     OW59135   0.179   6.042   8.348 -0.1178  0.1999 -0.5856
51272SOL    HW159136   0.097   6.013   8.388  0.8604 -0.0436  1.3920
51272SOL    HW259137   0.211   6.112   8.406  1.1943  0.1131 -1.1556
51273SOL     OW59138   0.736   0.224  10.303 -0.1174 -0.4734 -0.3897
51273SOL    HW159139   0.773   0.306  10.270 -1.4583  0.7841  1.0589
51273SOL    HW259140   0.649   0.219  10.263 -0.9700  0.0587  1.2979
51274SOL     OW59141   7.142   0.780   0.316  0.1604 -0.5747  0.3395
51274SOL    HW159142   7.153   0.836   0.239  0.6720 -0.1865  0.6828
51274SOL    HW259143   7.141   0.841   0.390  2.3658 -1.0878  0.8666
51275SOL     OW59144   1.876   2.482   9.601 -0.4245 -0.3350 -0.7354
51275SOL    HW159145   1.955   2.495   9.549 -1.2159 -0.4897 -2.0182
51275SOL    HW259146   1.898   2.410   9.661  1.6855  2.1139  1.6979
51276SOL     OW59147   8.076   0.872   6.780 -0.0485 -0.1476  0.2623
51276SOL    HW159148   8.023   0.942   6.818  1.7743  0.8804  1.0372
51276SOL    HW259149   8.048   0.793   6.827  0.4288  0.6959  2.0590
51277SOL     OW59150  11.291   8.086  11.784  0.4841  0.0157 -0.2698
51277SOL    HW159151  11.381   8.102  11.756  0.9222  0.3256  1.2028
51277SOL    HW259152  11.278   7.992  11.770  0.1972  0.3713 -2.7013
51278SOL     OW59153   5.466   1.609   5.772  0.1096  0.0548 -0.5674
51278SOL    HW159154   5.449   1.518   5.795  1.4611 -0.6401 -2.0639
51278SOL    HW259155   5.386   1.639   5.729 -0.6873 -0.1034  0.7765
51279SOL     OW59156   9.661   1.090  10.337  0.3107  0.1409  0.1035
51279SOL    HW159157   9.741   1.063  10.293 -0.1328 -0.1323 -0.5501
51279SOL    HW259158   9.669   1.185  10.347  0.1457  0.2964 -1.1327
51280SOL     OW59159   2.119   6.674   5.350  0.1970  0.7483  0.8019
51280SOL    HW159160   2.194   6.615   5.347  0.6884  1.4211 -0.6632
51280SOL    HW259161   2.113   6.711   5.262 -2.7749 -0.4275  0.4054
51281SOL     OW59162   9.846   0.614   0.067 -0.7249  0.0293  0.2051
51281SOL    HW159163   9.754   0.640   0.073 -0.5228  0.9065 -0.2972
51281SOL    HW259164   9.887   0.683   0.014  0.3051 -0.1141  0.7832
51282SOL     OW59165   6.401   3.664   4.270  0.1991  0.0223 -0.5109
51282SOL    HW159166   6.492   3.650   4.295 -0.4223 -0.5836  1.6949
51282SOL    HW259167   6.383   3.755   4.293  0.3350  0.2629 -1.3226
51283SOL     OW59168   6.189   7.249   5.186 -0.1711  0.6623  0.4073
51283SOL    HW159169   6.108   7.292   5.159 -0.3971 -0.3903 -0.7158
51283SOL    HW259170   6.195   7.172   5.129  1.6316  0.7330  0.4411
51284SOL     OW59171  11.116   4.427   3.125 -0.2003  0.5360 -0.0382
51284SOL    HW159172  11.056   4.395   3.192  0.3950 -1.3599 -0.3612
51284SOL    HW259173  11.183   4.475   3.173 -0.0225 -0.4303  0.7091
51285SOL     OW59174   2.635  11.365   0.941  0.6780 -0.7009  0.3966
51285SOL    HW159175   2.665  11.449   0.906  1.5120 -1.1258  0.0543
51285SOL    HW259176   2.709  11.307   0.928 -0.5391 -1.9927 -1.1037
51286SOL     OW59177  10.629   3.506   1.104  0.1512  0.3381  0.3390
51286SOL    HW159178  10.572   3.485   1.030 -0.2552  0.5697  0.5830
51286SOL    HW259179  10.585   3.579   1.148 -1.5994 -2.0627  2.9639
51287SOL     OW59180   7.484   4.353   7.296  0.2056  0.1058  0.2423
51287SOL    HW159181   7.420   4.329   7.363 -0.2427 -0.5010 -0.3958
51287SOL    HW259182   7.548   4.282   7.297  0.3833  0.2659  0.2588
51288SOL     OW59183   1.995   8.580   8.115 -0.4638 -0.6865 -0.0041
51288SOL    HW159184   2.043   8.650   8.070  1.8218 -2.1482 -0.0312
51288SOL    HW259185   1.974   8.616   8.201 -0.9157  0.6206 -0.6421
51289SOL     OW59186   1.774   0.037   8.980 -0.3879 -0.1451  0.0832
51289SOL    HW159187   1.772   0.132   8.965 -0.7046  0.2453  2.2431
51289SOL    HW259188   1.862   0.011   8.953  0.6454  1.2702  1.8500
51290SOL     OW59189   0.866  10.883  10.090  0.2694  0.0055 -0.7450
51290SOL    HW159190   0.861  10.839  10.005  0.3499  0.6420 -1.0957
51290SOL    HW259191   0.910  10.821  10.147 -2.0472 -1.4750 -0.4549
51291SOL     OW59192   4.724   0.264   7.668  0.5429  0.4491  0.1902
51291SOL    HW159193   4.687   0.348   7.640 -2.1185  0.3723  2.9378
51291SOL    HW259194   4.674   0.198   7.619 -0.1641  0.4262  0.9257
51292SOL     OW59195   1.706   0.996   5.422 -0.1863 -0.1531  0.1297
51292SOL    HW159196   1.767   0.955   5.483 -0.7756 -0.9003  0.2310
51292SOL    HW259197   1.758   1.061   5.375  1.0164 -1.6642 -0.7173
51293SOL     OW59198   1.513   4.560   2.147 -0.3400 -0.2702 -0.0677
51293SOL    HW159199   1.508   4.555   2.243 -1.8280  1.2449 -0.0226
51293SOL    HW259200   1.555   4.477   2.121  2.0598  0.1728  1.9791
51294SOL     OW59201   4.024   6.844   3.573 -0.0228 -0.2438 -0.0936
51294SOL    HW159202   4.056   6.868   3.486 -0.0798  1.3147  0.2858
51294SOL    HW259203   4.100   6.857   3.630  0.0817 -1.4853  0.0866
51295SOL     OW59204   3.932   2.725   4.874  0.7695 -0.4402  0.5562
51295SOL    HW159205   3.837   2.729   4.878  0.7968 -0.1575  1.1017
51295SOL    HW259206   3.960   2.729   4.966  1.2810 -1.1970  0.4429
51296SOL     OW59207   4.306   8.473   7.159  0.1018 -0.4496 -0.6780
51296SOL    HW159208   4.226   8.517   7.190  0.8382  0.7019 -0.3436
51296SOL    HW259209   4.305   8.485   7.064 -0.1488 -0.4985 -0.6836
51297SOL     OW59210   6.905   6.250   1.600  0.3305  0.4123  0.5135
51297SOL    HW159211   6.901   6.345   1.614  0.6263  0.5659 -0.3545
51297SOL    HW259212   6.813   6.224   1.589  0.2640  0.6497  0.4903
51298SOL     OW59213   6.014  10.628   9.800  0.3514 -0.0251  0.1156
51298SOL    HW159214   6.029  10.673   9.717  1.6798  1.5490  1.1523
51298SOL    HW259215   6.070  10.550   9.796 -0.4802 -0.6028 -0.8985
51299SOL     OW59216   8.526   7.662   9.126  0.1286 -0.0524 -0.0719
51299SOL    HW159217   8.545   7.571   9.149  0.5365 -0.0392 -0.3340
51299SOL    HW259218   8.441   7.680   9.166 -0.1674 -0.6921 -0.3948
51300SOL     OW59219   9.273   7.540   8.612  0.1498 -0.2740 -0.2618
51300SOL    HW159220   9.231   7.555   8.528 -0.4477 -1.8555 -0.2866
51300SOL    HW259221   9.207   7.564   8.677  0.2755  0.0499 -0.2506
51301SOL     OW59222  10.303   6.708   7.548  0.2671  0.1650  0.4028
51301SOL    HW159223  10.354   6.769   7.493 -1.0324 -0.2367 -1.3382
51301SOL    HW259224  10.213   6.719   7.517 -0.3916 -0.6965  1.9437
51302SOL     OW59225   3.918   2.700   5.172  0.4381 -0.3260 -0.1417
51302SOL    HW159226   3.824   2.713   5.156  0.4114  0.4562  0.5842
51302SOL    HW259227   3.922   2.652   5.255  0.6949  0.2322  0.1704
51303SOL     OW59228   1.013  10.281   5.782  0.0359  0.3814  0.2565
51303SOL    HW159229   1.048  10.228   5.854 -1.0503 -0.8825 -0.1130
51303SOL    HW259230   1.029  10.371   5.809  2.4813 -0.0841  0.6420
51304SOL     OW59231   3.701   0.775   5.778 -0.0524  0.6414  0.6104
51304SOL    HW159232   3.794   0.768   5.759  0.3151 -0.3779  2.5261
51304SOL    HW259233   3.658   0.741   5.699  1.2274  0.0083  0.1570
51305SOL     OW59234   8.172   7.858   8.409 -0.2833  0.4424  0.4042
51305SOL    HW159235   8.177   7.939   8.359 -2.5791  0.4329  0.0696
51305SOL    HW259236   8.092   7.865   8.460  0.4766 -0.8192  1.8713
51306SOL     OW59237   3.414  11.806  10.136  0.0162 -0.1159  0.5283
51306SOL    HW159238   3.337  11.814  10.080 -0.3829  0.8312  1.1798
51306SOL    HW259239   3.430  11.712  10.142  0.0176 -0.2375 -1.0814
51307SOL     OW59240   8.991   8.557   5.024  0.0270 -0.3140 -0.4101
51307SOL    HW159241   8.903   8.577   4.993 -0.0430  1.6310  0.8820
51307SOL    HW259242   8.978   8.492   5.093  0.0252 -3.1505 -2.9143
51308SOL     OW59243   3.758  11.379   8.480  0.1426 -0.3017 -0.5783
51308SOL    HW159244   3.749  11.430   8.561  1.9847  0.0377 -0.5543
51308SOL    HW259245   3.753  11.288   8.508  2.9649 -0.2684  0.3046
51309SOL     OW59246   0.805   9.728   9.750  0.2401  0.0059  0.7545
51309SOL    HW159247   0.871   9.794   9.727  0.7615 -0.8204 -0.1785
51309SOL    HW259248   0.812   9.662   9.681 -0.8186 -0.6388  1.2463
51310SOL     OW59249   8.672   0.157   2.481 -0.1424  0.0506 -0.2069
51310SOL    HW159250   8.759   0.182   2.512  0.0151 -0.7035 -0.0326
51310SOL    HW259251   8.642   0.232   2.429  0.1642  0.7660  0.6238
51311SOL     OW59252   5.792   1.621   6.801 -0.4638  0.0944 -0.9113
51311SOL    HW159253   5.701   1.627   6.773 -0.5621 -0.1128 -0.6444
51311SOL    HW259254   5.799   1.682   6.874 -0.6086 -0.5080 -0.3829
51312SOL     OW59255   1.894  11.540   3.278  0.1017 -0.0352 -0.3789
51312SOL    HW159256   1.955  11.501   3.341  1.1615  0.1575 -1.2622
51312SOL    HW259257   1.937  11.621   3.250 -1.0924  0.6881 -0.1718
51313SOL     OW59258   8.622   4.633   9.447 -0.3010  0.0439 -0.2066
51313SOL    HW159259   8.603   4.583   9.368  0.9255  0.6328 -0.9071
51313SOL    HW259260   8.584   4.719   9.432  2.0685  1.0008 -1.3206
51314SOL     OW59261   5.089   0.190   1.539 -0.2931  0.5191 -0.7785
51314SOL    HW159262   5.063   0.281   1.551  3.4254  1.9930 -2.3830
51314SOL    HW259263   5.140   0.169   1.618  0.1203  0.3712 -1.0804
51315SOL     OW59264   0.272   4.376   3.934 -0.0916 -0.7454  0.0949
51315SOL    HW159265   0.256   4.435   4.008  1.5071 -0.7358  0.4763
51315SOL    HW259266   0.187   4.336   3.917 -0.8562  0.4558  0.8820
51316SOL     OW59267  10.046   7.245   6.101  0.7031  0.1202  0.0930
51316SOL    HW159268   9.951   7.232   6.094  0.3264  1.5749  1.7029
51316SOL    HW259269  10.082   7.199   6.025 -1.1614 -1.6374  0.1583
51317SOL     OW59270   2.566   1.275   0.447 -0.0479  0.1235 -0.3946
51317SOL    HW159271   2.513   1.204   0.485 -0.8180  0.7306 -0.3178
51317SOL    HW259272   2.530   1.355   0.485 -0.4617  0.7123 -1.9649
51318SOL     OW59273   1.473   6.079   4.031  0.3978  0.3852  0.4414
51318SOL    HW159274   1.441   6.075   4.122  0.3672 -1.7030  0.3840
51318SOL    HW259275   1.566   6.101   4.040  0.4393  0.0111  0.9913
51319SOL     OW59276   2.137   7.758   8.502 -0.5721 -0.3608 -0.6940
51319SOL    HW159277   2.073   7.813   8.546 -2.6185 -1.8499 -1.6905
51319SOL    HW259278   2.198   7.821   8.462 -1.4935  1.1008  0.1076
51320SOL     OW59279   7.931   5.708   2.209  0.3566  0.2994 -0.3330
51320SOL    HW159280   7.875   5.638   2.175  0.6137  1.0388 -2.4227
51320SOL    HW259281   7.991   5.664   2.269 -1.3316 -0.7734  0.6315
51321SOL     OW59282   8.501   4.641   7.652 -0.3015  0.2645  0.1547
51321SOL    HW159283   8.437   4.575   7.676 -0.1049  0.2723  0.7030
51321SOL    HW259284   8.520   4.624   7.560 -1.6598  0.7347 -0.2417
51322SOL     OW59285   3.335   2.721   9.512  0.1881  0.0844  0.1329
51322SOL    HW159286   3.318   2.633   9.478  1.9211  0.0463 -0.7595
51322SOL    HW259287   3.339   2.776   9.434 -0.9817  0.9961  0.6932
51323SOL     OW59288   1.201   9.232  11.339  0.2419 -0.1791 -0.1783
51323SOL    HW159289   1.188   9.186  11.422 -1.2655 -1.5509 -1.1152
51323SOL    HW259290   1.261   9.176  11.290  0.6960  0.3519 -0.2420
51324SOL     OW59291   5.413   8.003   9.077  0.2361  0.3549 -0.2445
51324SOL    HW159292   5.431   8.027   9.168 -0.1368 -0.3692  0.0242
51324SOL    HW259293   5.494   7.961   9.047 -0.4097 -1.5539  0.5070
51325SOL     OW59294   7.447   0.449   1.432 -0.2294 -0.2227  0.0496
51325SOL    HW159295   7.405   0.442   1.518 -2.3929 -2.2074 -1.0325
51325SOL    HW259296   7.525   0.393   1.439 -0.9150 -1.1602  0.4897
51326SOL     OW59297  11.030  10.967   5.142 -0.6651  0.1535 -0.3896
51326SOL    HW159298  10.987  11.047   5.172 -1.1697 -0.7295  1.4254
51326SOL    HW259299  10.963  10.899   5.150 -0.0075 -0.6006 -1.0916
51327SOL     OW59300   8.801   4.919   9.685 -0.0084  0.4321 -0.4486
51327SOL    HW159301   8.734   4.892   9.747  2.4450 -1.1560  1.6925
51327SOL    HW259302   8.788   5.014   9.677 -1.7792  0.3501  0.7175
51328SOL     OW59303   6.549   7.221   6.409  0.0155  0.9803  0.1317
51328SOL    HW159304   6.480   7.180   6.461  0.7603 -0.4899 -0.0000
51328SOL    HW259305   6.613   7.251   6.473  1.5632 -1.9712  0.1218
51329SOL     OW59306  11.370  10.118   6.301 -0.0833  0.3246  0.6196
51329SOL    HW159307  11.324  10.034   6.295  0.9276 -0.2493  0.6623
51329SOL    HW259308  11.438  10.113   6.234 -1.1549  1.8743 -0.6619
51330SOL     OW59309   8.054   2.192  10.869 -0.1035 -0.0921 -0.3679
51330SOL    HW159310   8.072   2.184  10.963  0.6988 -1.0163 -0.5735
51330SOL    HW259311   7.965   2.227  10.864  0.7277  2.4291  0.7266
51331SOL     OW59312   6.408   1.745   1.830 -0.1776 -0.2226 -0.2426
51331SOL    HW159313   6.378   1.659   1.860  0.7799 -0.8732 -1.1155
51331SOL    HW259314   6.498   1.751   1.861 -0.0978  0.2902 -0.5695
51332SOL     OW59315   9.898  10.660   0.004 -0.5556  0.0459 -0.7011
51332SOL    HW159316   9.842  10.737   0.004  0.6356  0.9623 -1.7386
51332SOL    HW259317   9.938  10.658   0.091 -2.6693 -1.0463  0.3279
51333SOL     OW59318   1.589   4.836   1.582 -0.8013  0.1191 -0.1847
51333SOL    HW159319   1.570   4.883   1.663 -1.0231  0.0076 -0.1697
51333SOL    HW259320   1.656   4.772   1.606 -0.3173  0.5948 -0.2632
51334SOL     OW59321   5.786   2.899   3.554  0.0465  0.0157 -0.3181
51334SOL    HW159322   5.807   2.976   3.607  0.7640  0.6209 -1.4371
51334SOL    HW259323   5.836   2.828   3.594  0.0248  0.3091  0.2395
51335SOL     OW59324   1.149   0.777   0.602 -0.2335  0.2082  0.3881
51335SOL    HW159325   1.156   0.775   0.697 -0.9625  0.6635  0.4589
51335SOL    HW259326   1.113   0.691   0.579 -2.8777  1.1022  0.8064
51336SOL     OW59327  10.233   7.690   4.100 -0.3863  0.0665  0.6369
51336SOL    HW159328  10.325   7.712   4.114 -0.2598  0.8666 -1.2295
51336SOL    HW259329  10.209   7.639   4.177  2.1080 -1.7431  0.3224
51337SOL     OW59330   2.247   3.663   8.753  0.2642  0.2220 -0.2964
51337SOL    HW159331   2.182   3.730   8.730  0.0119  0.5665  1.2956
51337SOL    HW259332   2.305   3.707   8.815 -0.8550 -1.4442  2.0840
51338SOL     OW59333   9.486   5.400   2.843  0.2414  0.2034 -0.5865
51338SOL    HW159334   9.418   5.445   2.793 -0.4750 -1.2337 -0.9492
51338SOL    HW259335   9.567   5.422   2.798 -0.3418 -0.7045 -2.1429
51339SOL     OW59336  11.738   9.659   3.977  0.3898  0.2082 -0.1822
51339SOL    HW159337  11.814   9.615   4.016  1.0686  0.0899 -1.5432
51339SOL    HW259338  11.776   9.734   3.930 -0.4240  0.5575 -0.2872
51340SOL     OW59339   3.288   3.698   5.119 -0.1657 -0.4114 -0.3146
51340SOL    HW159340   3.212   3.728   5.170  0.1445 -0.3407  0.1112
51340SOL    HW259341   3.362   3.746   5.156 -0.0749  0.4172 -1.5263
51341SOL     OW59342   3.836   3.374   6.639  0.2888  0.9515  0.4024
51341SOL    HW159343   3.823   3.469   6.645 -1.1843  0.7630  0.5605
51341SOL    HW259344   3.925   3.360   6.671  0.0215  2.1467  1.7809
51342SOL     OW59345  10.207   5.530  10.456 -0.0455  0.1783  0.7662
51342SOL    HW159346  10.172   5.617  10.475  0.4492  0.6369 -0.3440
51342SOL    HW259347  10.222   5.530  10.362 -1.9271 -1.8238  0.3844
51343SOL     OW59348  10.832  11.743   5.298  0.9807  0.8418 -0.4806
51343SOL    HW159349  10.792  11.656   5.301 -0.0239  1.3091  0.0158
51343SOL    HW259350  10.884  11.742   5.217  1.8819 -0.5883  0.0622
51344SOL     OW59351   5.427   3.645   0.992 -0.5864  0.1525  0.4746
51344SOL    HW159352   5.452   3.580   1.058 -1.1599 -1.4696 -0.8132
51344SOL    HW259353   5.475   3.724   1.015  0.7196 -0.9591  1.6968
51345SOL     OW59354   3.467   1.988  10.879 -0.1720  0.8844 -0.3835
51345SOL    HW159355   3.475   2.068  10.931 -2.1870  0.1259  1.2521
51345SOL    HW259356   3.399   2.009  10.815 -0.2240  0.7049 -0.3865
51346SOL     OW59357   8.329   8.153   1.805  0.0834  0.2301 -0.4487
51346SOL    HW159358   8.301   8.233   1.760 -0.1613  0.7974  0.6761
51346SOL    HW259359   8.373   8.184   1.884  0.0871 -0.7474 -0.0540
51347SOL     OW59360   3.252   6.651   0.654  0.4957  0.1396 -0.0994
51347SOL    HW159361   3.190   6.656   0.582  0.6763 -2.1058 -0.4794
51347SOL    HW259362   3.337   6.672   0.615  0.3076  0.9876 -0.0647
51348SOL     OW59363   5.931   0.633   6.910 -0.2299 -0.6144  0.4032
51348SOL    HW159364   5.874   0.694   6.956 -1.7404 -2.4304  1.0813
51348SOL    HW259365   5.919   0.654   6.817 -0.0198  0.6569  0.6413
51349SOL     OW59366   3.783   0.338   5.858 -0.3455  0.1275 -0.5875
51349SOL    HW159367   3.820   0.379   5.780 -1.9681 -0.8183 -1.9440
51349SOL    HW259368   3.781   0.244   5.837 -0.5629 -0.1751  0.7065
51350SOL     OW59369   4.149   8.254   8.598  0.0395 -0.1179  0.3952
51350SOL    HW159370   4.156   8.178   8.539 -1.3617  0.2989 -0.3468
51350SOL    HW259371   4.057   8.278   8.595  0.4267  1.5277  0.7509
51351SOL     OW59372   3.728   6.037   8.283 -0.2540  0.5444  0.0473
51351SOL    HW159373   3.812   6.017   8.325 -0.2694 -1.8109 -0.8981
51351SOL    HW259374   3.667   6.045   8.355  0.6133  1.4945  0.7069
51352SOL     OW59375   7.856  11.027   5.621 -0.4237 -0.4573 -0.1820
51352SOL    HW159376   7.788  11.059   5.680 -0.1168  0.1648 -0.1590
51352SOL    HW259377   7.892  10.951   5.666 -1.4571 -1.1217 -0.4424
51353SOL     OW59378   1.879   9.211   7.740 -0.0402  0.1344  0.8657
51353SOL    HW159379   1.796   9.233   7.782 -1.5972  0.7972 -2.2285
51353SOL    HW259380   1.890   9.280   7.673  0.6727 -2.2876 -1.6948
51354SOL     OW59381   1.320   5.179   6.751 -0.2952 -0.2451 -0.0221
51354SOL    HW159382   1.314   5.268   6.784 -1.6598  0.3931 -1.7967
51354SOL    HW259383   1.413   5.157   6.757  0.1683  1.5304 -0.1233
51355SOL     OW59384   7.005   6.862   1.912 -0.0736  0.1882  0.5470
51355SOL    HW159385   6.954   6.787   1.943 -1.4675  0.5000 -0.8256
51355SOL    HW259386   7.050   6.830   1.834 -1.3864  0.9593 -0.5744
51356SOL     OW59387   9.185   7.830   6.385 -0.2098 -0.2903  0.0716
51356SOL    HW159388   9.233   7.899   6.433  0.9484  0.0739 -1.5323
51356SOL    HW259389   9.247   7.757   6.381 -0.4290 -0.4431 -0.5443
51357SOL     OW59390  11.650   1.491   6.909  0.1565 -0.2003  0.0787
51357SOL    HW159391  11.723   1.429   6.906  1.4700  1.2977 -0.7342
51357SOL    HW259392  11.683   1.563   6.962 -1.0230  0.1791  0.3057
51358SOL     OW59393  10.339   2.958   3.548 -0.3267 -0.2138 -0.4957
51358SOL    HW159394  10.303   2.923   3.467  0.5447 -0.4128 -0.8125
51358SOL    HW259395  10.337   2.883   3.608  0.2581 -0.4379 -0.7486
51359SOL     OW59396   7.891   1.886   2.509 -0.0186 -0.3942  0.1116
51359SOL    HW159397   7.953   1.945   2.464 -0.5804  0.0971 -0.0258
51359SOL    HW259398   7.844   1.842   2.437 -0.7146  0.1765  0.2097
51360SOL     OW59399  10.199   4.999   0.111  0.4186 -0.7370 -0.3859
51360SOL    HW159400  10.106   4.982   0.129  0.9145 -0.1277  4.0145
51360SOL    HW259401  10.245   4.930   0.158  2.1464  0.9361  0.5354
51361SOL     OW59402   4.268   6.134   0.604  0.3363  0.6922  0.8697
51361SOL    HW159403   4.306   6.215   0.568  2.0125 -1.1824 -1.9701
51361SOL    HW259404   4.344   6.080   0.627 -0.6750 -0.9565  0.4833
51362SOL     OW59405  10.941   3.769  11.557 -0.4451 -0.0110  0.0214
51362SOL    HW159406  11.028   3.755  11.519 -0.0120 -0.4021  1.1047
51362SOL    HW259407  10.932   3.864  11.562  0.3841  0.0439  0.8742
51363SOL     OW59408   4.150   0.143   6.790 -0.5978 -0.0898  0.9578
51363SOL    HW159409   4.088   0.071   6.795 -0.8768 -0.0369 -1.0385
51363SOL    HW259410   4.235   0.101   6.776 -0.7804 -0.0455 -0.3451
51364SOL     OW59411   4.360   7.458   9.943 -0.6158 -0.1430 -0.0171
51364SOL    HW159412   4.343   7.550   9.923 -1.3473 -0.1283  0.6170
51364SOL    HW259413   4.321   7.445  10.030  0.7671 -0.6754  0.5554
51365SOL     OW59414   7.309   6.374   0.125 -0.3065  0.2427  0.5539
51365SOL    HW159415   7.356   6.451   0.092  0.9001 -0.0380  1.5648
51365SOL    HW259416   7.321   6.308   0.056  0.4671  0.2919  0.6364
51366SOL     OW59417   9.879  11.823   3.184 -0.0988  0.5856 -0.3653
51366SOL    HW159418   9.935  11.880   3.132  0.1914  0.5232 -0.1274
51366SOL    HW259419   9.811  11.880   3.219  1.1030  1.1341  1.1985
51367SOL     OW59420   1.123   4.022   3.448 -0.0133  0.1272 -0.6240
51367SOL    HW159421   1.187   4.002   3.517 -1.7610  2.0806  1.7560
51367SOL    HW259422   1.155   4.103   3.410  0.7982 -0.8072 -2.0344
51368SOL     OW59423   5.352   3.476   2.974 -0.0218 -0.0602 -0.1765
51368SOL    HW159424   5.421   3.542   2.984  0.5741 -0.6535 -0.3198
51368SOL    HW259425   5.398   3.397   2.946 -1.1364  0.5043 -4.1066
51369SOL     OW59426   9.210  11.015   1.182  0.3042  0.5565  0.5243
51369SOL    HW159427   9.182  10.952   1.249  1.7835 -0.4685  0.2305
51369SOL    HW259428   9.288  11.056   1.220  0.7927  0.4140 -0.3081
51370SOL     OW59429  10.970   3.017   6.390  0.1280  0.1725 -0.0559
51370SOL    HW159430  10.952   3.058   6.474 -1.4541 -1.8458  0.6827
51370SOL    HW259431  10.885   2.982   6.362  0.7713  0.1430 -2.1546
51371SOL     OW59432   6.690   5.995   2.294  0.4134 -0.0988  0.2323
51371SOL    HW159433   6.672   6.069   2.351  0.3344  0.5798 -0.6603
51371SOL    HW259434   6.754   5.942   2.342  0.9276  0.8575  0.6135
51372SOL     OW59435   4.444   7.999   8.198 -0.4772  0.4361 -0.0265
51372SOL    HW159436   4.404   7.914   8.180  0.3038  0.3945 -1.8599
51372SOL    HW259437   4.434   8.011   8.292  1.8003 -2.9867  0.8604
51373SOL     OW59438   0.246   9.856   6.061 -0.3766  0.1799 -0.0611
51373SOL    HW159439   0.250   9.764   6.087 -0.0452 -0.3505 -1.8980
51373SOL    HW259440   0.270   9.856   5.969 -0.1276  2.1544 -0.0238
51374SOL     OW59441   4.482   4.934   2.289  0.1174  0.1634  0.2429
51374SOL    HW159442   4.388   4.916   2.290  0.2520 -0.7775 -0.9899
51374SOL    HW259443   4.495   4.989   2.212  0.9510 -2.4055 -1.5931
51375SOL     OW59444   3.647   7.037   6.864 -0.3625  0.1189  0.5354
51375SOL    HW159445   3.721   7.086   6.899 -0.2206 -0.0840  0.5233
51375SOL    HW259446   3.571   7.093   6.880 -0.0993  0.6894 -0.2092
51376SOL     OW59447   2.882   0.355   8.890  0.2225  0.1303 -0.3826
51376SOL    HW159448   2.921   0.417   8.951  1.5698  0.1767 -1.2562
51376SOL    HW259449   2.797   0.394   8.867  0.4249  0.9205  0.1842
51377SOL     OW59450   7.620   1.702   7.054  0.5730  0.3668 -0.1472
51377SOL    HW159451   7.626   1.625   6.998 -1.4781  1.1115 -1.5129
51377SOL    HW259452   7.699   1.752   7.034  1.5053 -0.9619  0.1265
51378SOL     OW59453   8.963   3.069   6.736  0.1584 -0.2405  0.1708
51378SOL    HW159454   8.890   3.059   6.675  0.3111 -2.4102  0.2748
51378SOL    HW259455   8.935   3.022   6.815  2.0748 -2.1403 -0.2016
51379SOL     OW59456   6.279   2.428   7.822  0.2351  0.7031 -0.4806
51379SOL    HW159457   6.326   2.469   7.750  0.1644  0.7078 -0.5237
51379SOL    HW259458   6.250   2.501   7.877 -0.2468  0.7419 -0.7735
51380SOL     OW59459   8.656  10.358  11.302 -0.1590  0.2394 -0.1820
51380SOL    HW159460   8.642  10.452  11.298  0.2698  0.3163  0.1201
51380SOL    HW259461   8.680  10.333  11.212 -0.4579  0.3849 -0.3027
51381SOL     OW59462  10.357   9.373   2.744 -0.2605  0.0168 -0.1786
51381SOL    HW159463  10.335   9.299   2.687  2.0092 -0.7613 -0.1439
51381SOL    HW259464  10.281   9.382   2.801 -1.7108 -0.5443 -1.9263
51382SOL     OW59465   7.635   0.351   6.830 -0.7769 -0.0151 -0.8173
51382SOL    HW159466   7.611   0.268   6.789 -3.4676  0.8000 -1.0417
51382SOL    HW259467   7.560   0.408   6.816 -0.5682  1.3042  2.5501
51383SOL     OW59468  10.934   8.288   7.487  0.3204  0.5031  0.1300
51383SOL    HW159469  10.922   8.193   7.485 -2.4197  0.7682 -0.1007
51383SOL    HW259470  10.862   8.320   7.543  1.4422  2.4216  0.5811
51384SOL     OW59471   8.305   7.313   5.415  0.0946  0.7151 -0.0620
51384SOL    HW159472   8.233   7.377   5.415 -0.0282  0.5810 -0.6061
51384SOL    HW259473   8.376   7.356   5.368 -0.0663  0.3712 -0.6308
51385SOL     OW59474   6.562   4.870   3.961  0.2637 -0.4644  0.2040
51385SOL    HW159475   6.571   4.956   4.001  0.4636 -0.4272  0.0764
51385SOL    HW259476   6.510   4.820   4.024  0.1374 -0.2475  0.2714
51386SOL     OW59477   1.704   2.276  11.508  0.5578 -0.0802 -0.0647
51386SOL    HW159478   1.757   2.252  11.431  0.3951  0.3251 -0.3101
51386SOL    HW259479   1.676   2.192  11.545 -0.2121 -0.2820 -1.0482
51387SOL     OW59480   5.318   9.418   1.616  0.1426  0.0644  0.2643
51387SOL    HW159481   5.268   9.472   1.555 -0.1750 -1.3677 -0.7755
51387SOL    HW259482   5.252   9.382   1.675  0.1627 -0.3890  0.0127
51388SOL     OW59483   5.406   0.367   9.456 -0.0031 -0.4223  0.0008
51388SOL    HW159484   5.462   0.437   9.421  0.4822  0.9395  3.2136
51388SOL    HW259485   5.467   0.307   9.499 -0.8348  0.6688  2.8634
51389SOL     OW59486   2.747   3.004   9.734  0.2984  0.2182  0.0001
51389SOL    HW159487   2.759   2.948   9.657  0.0471 -0.4791  0.4583
51389SOL    HW259488   2.831   3.048   9.744  0.7572 -0.6450  0.0646
51390SOL     OW59489   3.672   7.092  10.960  0.2744 -0.0061 -0.3671
51390SOL    HW159490   3.633   7.027  11.019  1.0464  0.0852  0.2578
51390SOL    HW259491   3.729   7.145  11.016  2.5251 -1.1143 -1.4651
51391SOL     OW59492   6.411   1.620   6.111 -0.1562 -0.4878 -0.1433
51391SOL    HW159493   6.380   1.593   6.025 -0.8646  0.8847 -0.3406
51391SOL    HW259494   6.482   1.682   6.093 -2.0940  1.9497  0.1462
51392SOL     OW59495   0.417   6.971   2.818 -0.3094  0.5340  0.1074
51392SOL    HW159496   0.436   6.982   2.911 -0.1320  1.5048 -0.0374
51392SOL    HW259497   0.490   6.918   2.785  0.7750  1.9588  0.1091
51393SOL     OW59498   1.880   8.648  10.725 -0.4413 -0.4549 -0.0503
51393SOL    HW159499   1.950   8.602  10.772 -0.5414  0.3065  0.8648
51393SOL    HW259500   1.872   8.732  10.769  0.8216  1.1519 -2.6695
51394SOL     OW59501   4.636   6.149   2.513  0.3645 -0.7569  0.6609
51394SOL    HW159502   4.564   6.093   2.485  0.1069 -0.1821  0.1482
51394SOL    HW259503   4.594   6.218   2.565  0.5672 -0.5410  0.5397
51395SOL     OW59504   2.414  10.085   6.229  0.8807 -0.4020  0.0127
51395SOL    HW159505   2.324  10.086   6.196  1.2765 -0.2715 -1.1263
51395SOL    HW259506   2.405  10.081   6.324 -0.3263 -0.1852 -0.0741
51396SOL     OW59507   5.516   8.323   6.297 -0.6381 -0.7238 -0.3377
51396SOL    HW159508   5.468   8.242   6.312 -0.4187 -0.7433  0.2841
51396SOL    HW259509   5.467   8.390   6.346 -0.2104 -0.6914  0.0602
51397SOL     OW59510   7.084  10.331  10.769  0.2724 -0.2621  0.6843
51397SOL    HW159511   7.104  10.276  10.845  1.2513 -0.5252  0.2481
51397SOL    HW259512   7.050  10.412  10.807  4.2066  1.1666  1.6945
51398SOL     OW59513   3.562   6.641   1.974 -0.4419  0.2121  0.2412
51398SOL    HW159514   3.569   6.667   1.882 -2.9518  1.0339  0.1997
51398SOL    HW259515   3.541   6.548   1.971  3.3030 -0.7900  0.2147
51399SOL     OW59516   6.801   2.001   6.424 -0.5336 -0.3725  0.7375
51399SOL    HW159517   6.727   1.941   6.430 -0.4054 -0.7080 -0.6740
51399SOL    HW259518   6.761   2.086   6.407 -0.6233 -0.4451  0.5850
51400SOL     OW59519   6.622   6.431   0.369  0.0390  0.1626  0.5868
51400SOL    HW159520   6.663   6.518   0.371  0.4119 -0.0153  0.8348
51400SOL    HW259521   6.540   6.444   0.323  1.7175 -0.0259 -2.7439
51401SOL     OW59522  10.765   7.079   7.720 -0.3397  0.5157 -0.2310
51401SOL    HW159523  10.698   7.038   7.775 -0.7935  0.1224 -1.0670
51401SOL    HW259524  10.727   7.163   7.693  0.4611  1.3812  1.2151
51402SOL     OW59525  11.521   7.170   2.277  0.0528  0.6139 -0.7921
51402SOL    HW159526  11.443   7.120   2.302 -0.7080  0.7307 -2.7480
51402SOL    HW259527  11.577   7.167   2.354 -2.0041  0.7953  0.8048
51403SOL     OW59528   8.012   4.940   7.720 -0.4757  0.2104 -0.7010
51403SOL    HW159529   8.068   4.879   7.671 -1.9256 -0.9008 -1.0391
51403SOL    HW259530   7.986   5.005   7.655  0.8510  1.0805 -0.4045
51404SOL     OW59531   5.794   7.213   8.379 -0.4866  0.2939  0.0042
51404SOL    HW159532   5.726   7.272   8.413  0.6917  2.5205 -1.2888
51404SOL    HW259533   5.870   7.228   8.436 -0.6529 -1.3561  0.7450
51405SOL     OW59534   0.077  10.050   5.913  0.4810  0.0402 -0.3761
51405SOL    HW159535   0.084  10.022   6.004  0.8237  0.3904 -0.2956
51405SOL    HW259536   0.167  10.060   5.884  0.4197  2.5085  0.0400
51406SOL     OW59537  11.340   8.815   5.642  0.2684  0.1314  0.1201
51406SOL    HW159538  11.280   8.853   5.579  1.2132  0.1649 -0.7990
51406SOL    HW259539  11.357   8.885   5.705  0.9919  0.8558 -0.8328
51407SOL     OW59540  10.651   2.638  10.848  0.2817 -0.4248  0.5452
51407SOL    HW159541  10.723   2.697  10.871  1.1394 -1.2449  0.0455
51407SOL    HW259542  10.614   2.675  10.768  0.6061 -0.3860  0.4121
51408SOL     OW59543   6.572   0.668   0.843  0.0790 -0.2068  0.0710
51408SOL    HW159544   6.666   0.651   0.848  0.3792  1.2840 -0.0344
51408SOL    HW259545   6.543   0.617   0.767  0.4600 -1.9721  1.0496
51409SOL     OW59546   1.231   7.074   3.491  0.2031  0.2736  0.4254
51409SOL    HW159547   1.184   7.008   3.439  1.7004 -0.8956  0.4935
51409SOL    HW259548   1.184   7.077   3.574 -0.1782 -0.3318  0.2358
51410SOL     OW59549   8.221   7.107   2.139  0.8312  0.1169 -0.3785
51410SOL    HW159550   8.138   7.156   2.139 -0.2713 -1.6381  0.9106
51410SOL    HW259551   8.228   7.073   2.049  0.5001  0.8127 -0.6751
51411SOL     OW59552  11.144   9.916   5.573  0.4865  0.7204 -0.3308
51411SOL    HW159553  11.064   9.920   5.625  0.6389  1.0622 -0.1200
51411SOL    HW259554  11.122   9.959   5.491  1.2832  3.6025  0.8312
51412SOL     OW59555  11.734  10.722   9.366  0.7003 -0.4294  0.2274
51412SOL    HW159556  11.687  10.706   9.449 -1.1011  2.7321 -0.0172
51412SOL    HW259557  11.689  10.666   9.303 -0.2841 -0.2730  0.7543
51413SOL     OW59558   8.578  11.171   1.933  0.7601 -0.3528 -0.2309
51413SOL    HW159559   8.668  11.189   1.964  0.2538  1.4205  0.3614
51413SOL    HW259560   8.540  11.258   1.921 -0.6636 -1.0806 -1.1723
51414SOL     OW59561   8.283   5.512   6.408 -0.0576 -0.1205  0.3507
51414SOL    HW159562   8.347   5.560   6.460  0.6136 -1.8110  1.1611
51414SOL    HW259563   8.266   5.432   6.458 -1.3006 -0.6382 -0.8255
51415SOL     OW59564   5.439   8.588   5.516  0.1150 -0.3491  0.7226
51415SOL    HW159565   5.390   8.632   5.586 -1.4109 -0.4098 -0.2569
51415SOL    HW259566   5.490   8.657   5.475 -1.1026  0.2346  0.1609
51416SOL     OW59567   7.024  11.384  10.252 -0.1078 -0.1977  0.5846
51416SOL    HW159568   6.983  11.338  10.178  0.0656  2.4158 -1.2741
51416SOL    HW259569   7.097  11.328  10.277 -0.0026 -1.0640 -1.4357
51417SOL     OW59570   4.841   4.453   5.424 -0.1713  0.0360 -0.3180
51417SOL    HW159571   4.792   4.371   5.419  1.6928 -1.0847 -1.1504
51417SOL    HW259572   4.823   4.497   5.341 -0.3318 -0.0184 -0.3134
51418SOL     OW59573  11.551   7.969   3.584  0.0712 -0.4562 -0.2260
51418SOL    HW159574  11.588   7.921   3.510  1.0626 -1.9883  1.1896
51418SOL    HW259575  11.473   7.918   3.608 -0.4570  0.2444 -0.4441
51419SOL     OW59576   2.533  11.282  10.901 -0.0205 -0.0209 -0.0222
51419SOL    HW159577   2.449  11.263  10.943 -0.6396 -0.3280 -1.3348
51419SOL    HW259578   2.586  11.323  10.970 -1.5940  1.1199  0.5852
51420SOL     OW59579   1.239   3.699   5.859 -0.2025  0.1124 -0.2160
51420SOL    HW159580   1.241   3.661   5.946 -2.0398 -0.0506 -0.2023
51420SOL    HW259581   1.319   3.667   5.817 -0.6879 -2.1810  0.4468
51421SOL     OW59582   5.928   5.169   3.976  0.6029 -0.4977 -1.0828
51421SOL    HW159583   5.979   5.239   3.934  2.4454 -1.1165 -0.0076
51421SOL    HW259584   5.991   5.124   4.032 -1.3733 -0.6807  1.1544
51422SOL     OW59585   8.544  11.158  11.042 -0.2496  0.8093 -0.1165
51422SOL    HW159586   8.595  11.232  11.009  1.1679  0.0092  0.1814
51422SOL    HW259587   8.609  11.102  11.085 -1.5877  0.3898  1.4606
51423SOL     OW59588   2.219   9.796   7.735  0.1108 -0.4287  0.1671
51423SOL    HW159589   2.215   9.825   7.826 -0.3811  0.5894 -0.1640
51423SOL    HW259590   2.176   9.710   7.736 -0.3710 -0.1909  0.8067
51424SOL     OW59591  11.344  10.059   9.352 -0.3140 -0.2220 -0.5226
51424SOL    HW159592  11.395   9.982   9.376 -2.3959 -1.4446  0.2738
51424SOL    HW259593  11.350  10.064   9.256  0.1356 -1.1519 -0.5469
51425SOL     OW59594   3.495   0.044   7.674  0.0571  0.4103 -0.3546
51425SOL    HW159595   3.524   0.128   7.637  1.3936  0.2050  0.1856
51425SOL    HW259596   3.432   0.068   7.742 -2.2144  0.8107 -2.4480
51426SOL     OW59597   9.318   5.464   8.122  0.4359  0.5714  0.0513
51426SOL    HW159598   9.266   5.545   8.124  1.8398  1.5266 -0.1651
51426SOL    HW259599   9.256   5.396   8.097 -0.6096  1.7337 -0.6396
51427SOL     OW59600   0.774   0.915   8.741  0.5338 -0.3387  0.2534
51427SOL    HW159601   0.723   0.901   8.820 -1.2186  0.7929 -0.6306
51427SOL    HW259602   0.825   0.834   8.731 -2.2830 -2.2335  0.3156
51428SOL     OW59603   8.409   8.864   3.538  0.5769  0.1822  0.0920
51428SOL    HW159604   8.453   8.913   3.607  3.2535 -0.3287 -1.1029
51428SOL    HW259605   8.431   8.773   3.556 -2.5872 -0.4827  1.1081
51429SOL     OW59606   9.278   5.022   5.838 -0.1368 -0.1081 -0.4216
51429SOL    HW159607   9.291   4.980   5.922  1.4874  0.8525 -0.1570
51429SOL    HW259608   9.194   5.067   5.846  0.2863  0.4806  0.9216
51430SOL     OW59609   9.709   4.984  10.215 -0.2260 -0.0949 -0.0528
51430SOL    HW159610   9.626   5.030  10.227  0.3284  1.2654 -1.1084
51430SOL    HW259611   9.764   5.047  10.169  1.6102 -0.7269  1.1774
51431SOL     OW59612   5.690   3.360   7.470  0.6296  0.9088  1.0295
51431SOL    HW159613   5.765   3.394   7.422  0.4273  2.2952  1.6608
51431SOL    HW259614   5.716   3.362   7.561  0.9516 -1.5652  1.0733
51432SOL     OW59615   1.227   7.135   0.878 -0.4946 -0.6858  0.3355
51432SOL    HW159616   1.188   7.056   0.917  1.0059 -1.0294  1.2010
51432SOL    HW259617   1.260   7.185   0.952  1.2472 -0.7194 -0.3810
51433SOL     OW59618   9.803   7.461   5.359 -0.4337 -0.3418 -0.1472
51433SOL    HW159619   9.804   7.469   5.455  2.4423 -0.4553 -0.0863
51433SOL    HW259620   9.725   7.409   5.340 -1.5721  0.4224  2.0267
51434SOL     OW59621   1.530   8.723   0.437  0.0258  0.1205  0.3787
51434SOL    HW159622   1.515   8.635   0.403 -1.8820 -0.0820  1.5956
51434SOL    HW259623   1.546   8.710   0.530 -0.8375  1.0870  0.6770
51435SOL     OW59624  10.066   3.572   0.604  0.2726  0.0926 -0.6412
51435SOL    HW159625  10.024   3.499   0.558 -1.0293  0.4349 -0.0408
51435SOL    HW259626  10.021   3.576   0.688  0.7308  1.2225 -0.4325
51436SOL     OW59627   1.653   7.527   5.756 -0.0316 -0.8240  0.5675
51436SOL    HW159628   1.735   7.538   5.804  1.4218  1.4997 -2.1564
51436SOL    HW259629   1.599   7.473   5.813  2.8699 -1.3269  3.0889
51437SOL     OW59630   3.196   7.562   9.992  0.6361 -0.0771  0.0757
51437SOL    HW159631   3.124   7.499  10.001 -0.2724  1.0200  0.8174
51437SOL    HW259632   3.261   7.534  10.057 -0.4538  0.6160  1.5295
51438SOL     OW59633   5.044  10.936   8.456 -0.1321 -0.5017 -0.2781
51438SOL    HW159634   5.001  10.925   8.371  0.7866 -0.3716 -0.7746
51438SOL    HW259635   5.031  11.028   8.477  0.7959 -0.2036 -0.9402
51439SOL     OW59636   3.457   2.137   6.558 -0.2305  0.7356 -0.2542
51439SOL    HW159637   3.516   2.138   6.483  0.3305  1.3480  0.1757
51439SOL    HW259638   3.432   2.229   6.571  0.9921  0.9198  1.2670
51440SOL     OW59639   5.480   5.759   5.767 -0.3688 -0.5886  0.1059
51440SOL    HW159640   5.555   5.814   5.789 -1.0318  0.0658  0.7835
51440SOL    HW259641   5.514   5.669   5.772  0.0743 -0.3693  1.6692
51441SOL     OW59642  11.323   9.017  10.439 -0.0556 -0.0247  0.3244
51441SOL    HW159643  11.410   9.052  10.420 -0.2383 -0.4701 -1.5612
51441SOL    HW259644  11.317   8.937  10.386 -1.0661 -0.8165  1.5827
51442SOL     OW59645   4.790   7.639   1.386 -0.5303 -0.0220  0.4873
51442SOL    HW159646   4.757   7.617   1.473 -0.3591  1.2253  0.8892
51442SOL    HW259647   4.778   7.734   1.379  2.7965  0.4958  0.6026
51443SOL     OW59648   0.151  10.767  10.376  0.8980 -0.1309  0.0049
51443SOL    HW159649   0.122  10.823  10.303 -1.2304 -1.8380 -0.5573
51443SOL    HW259650   0.246  10.765  10.367  0.6876 -1.1520 -3.4890
51444SOL     OW59651   7.365  10.083   4.258  0.0158 -0.6200  0.1589
51444SOL    HW159652   7.310  10.153   4.222 -1.7842 -1.5419  0.9479
51444SOL    HW259653   7.362  10.097   4.353  0.4123 -1.2096  0.2593
51445SOL     OW59654   2.391   4.180  10.622  0.2115  0.3050  0.4294
51445SOL    HW159655   2.406   4.155  10.713  1.6049 -1.4138 -0.2135
51445SOL    HW259656   2.433   4.265  10.613 -1.0773  1.1029  1.6887
51446SOL     OW59657   6.221  10.453   0.873  0.6186  0.2136 -0.0775
51446SOL    HW159658   6.282  10.469   0.801 -1.1763  0.8531 -1.5657
51446SOL    HW259659   6.137  10.438   0.829 -0.3449 -0.4106  1.8740
51447SOL     OW59660   6.356   4.774   3.711 -0.6183 -0.2007  0.0522
51447SOL    HW159661   6.451   4.787   3.717 -0.6714  0.2361 -0.0839
51447SOL    HW259662   6.347   4.679   3.698 -0.1019 -0.0011 -2.1149
51448SOL     OW59663   8.496  10.203   4.619  0.2501 -0.0790  0.4974
51448SOL    HW159664   8.416  10.152   4.606  0.0811 -0.4634  2.7212
51448SOL    HW259665   8.552  10.176   4.546 -1.4030 -0.1975 -0.8103
51449SOL     OW59666   8.359   5.750   1.175 -0.6581  0.1469  0.7637
51449SOL    HW159667   8.334   5.663   1.143 -2.3243  0.6780  0.4791
51449SOL    HW259668   8.322   5.755   1.263 -1.1153  0.7791  0.5438
51450SOL     OW59669   5.531   4.102  11.804 -0.1826 -0.3014 -0.0313
51450SOL    HW159670   5.529   4.144  11.718 -0.3107 -2.0688 -0.9442
51450SOL    HW259671   5.507   4.171  11.865 -0.9035  0.8064 -1.5064
51451SOL     OW59672   3.551   9.729  11.624  0.2434 -0.0395  0.3791
51451SOL    HW159673   3.571   9.652  11.677 -0.9858 -0.8274 -0.2453
51451SOL    HW259674   3.503   9.788  11.683  2.1496  0.7749  1.1737
51452SOL     OW59675   4.693   6.688   4.042 -0.1474  0.5133  0.3122
51452SOL    HW159676   4.724   6.766   4.090 -0.9942  2.0291 -1.4695
51452SOL    HW259677   4.620   6.720   3.990 -0.3671 -1.4678 -0.6773
51453SOL     OW59678  11.458   5.850   8.695  0.7289  0.1335 -0.0610
51453SOL    HW159679  11.375   5.882   8.729  0.4880  0.6323 -1.0894
51453SOL    HW259680  11.504   5.928   8.664  1.6515 -0.1188  0.6273
51454SOL     OW59681   7.113   2.454   9.177 -0.0149  0.3903 -0.1566
51454SOL    HW159682   7.149   2.542   9.189  1.0768 -0.1057  0.2902
51454SOL    HW259683   7.164   2.417   9.105 -0.7594  0.2627 -0.6338
51455SOL     OW59684   3.406   4.362  10.556 -0.7788  0.4331 -0.9715
51455SOL    HW159685   3.466   4.294  10.524 -0.7289  0.0085 -0.0135
51455SOL    HW259686   3.450   4.398  10.633 -1.9709 -0.2397  0.0532
51456SOL     OW59687  11.431   1.373   8.469  0.0097 -0.2777 -0.0597
51456SOL    HW159688  11.461   1.320   8.395 -0.3804  1.0321 -1.2019
51456SOL    HW259689  11.434   1.463   8.436 -0.0855  0.3480  1.5648
51457SOL     OW59690  10.801  10.539   6.940 -0.5623  0.4901  0.3418
51457SOL    HW159691  10.792  10.597   7.016 -1.2126 -0.1939  0.8037
51457SOL    HW259692  10.729  10.562   6.883 -0.5807  0.4154  0.3346
51458SOL     OW59693   5.849   4.971   2.082 -0.1840  0.2671  0.0292
51458SOL    HW159694   5.905   5.047   2.098 -0.5540  0.6208 -0.3006
51458SOL    HW259695   5.846   4.925   2.165 -0.2911  0.8493  0.3564
51459SOL     OW59696   2.135   3.681   1.931  0.0777  0.2550 -0.1046
51459SOL    HW159697   2.136   3.591   1.964 -2.5194  0.1528 -0.0712
51459SOL    HW259698   2.199   3.682   1.860  0.4922 -1.4935  0.2002
51460SOL     OW59699   0.206  10.018   9.848 -0.0852 -0.5362 -0.4333
51460SOL    HW159700   0.246   9.956   9.787  0.2711  0.0713 -0.8186
51460SOL    HW259701   0.119  10.035   9.812 -0.1274 -0.6917 -0.4070
51461SOL     OW59702   4.429  11.007   6.598  0.7874  0.4613 -0.0974
51461SOL    HW159703   4.406  11.100   6.599  0.4778  0.4002  1.2353
51461SOL    HW259704   4.465  10.991   6.511 -0.5343  1.4940 -0.8642
51462SOL     OW59705   0.070   3.284   5.941 -0.3911 -0.8723  0.0196
51462SOL    HW159706   0.043   3.259   5.853 -0.0905 -1.4796  0.0946
51462SOL    HW259707   0.027   3.219   5.998 -0.3926 -0.6250  0.2997
51463SOL     OW59708   1.838   0.429   9.725 -0.1418  0.0236 -0.5166
51463SOL    HW159709   1.754   0.459   9.759 -0.2423 -0.2244 -0.5431
51463SOL    HW259710   1.816   0.351   9.673  0.3787 -1.4678  1.3824
51464SOL     OW59711   9.393   3.774   2.245 -0.1369 -0.6630  0.4668
51464SOL    HW159712   9.481   3.770   2.208  0.1138  1.4817  0.7026
51464SOL    HW259713   9.388   3.860   2.287 -2.0747 -1.0622  1.1750
51465SOL     OW59714   1.584   9.289   7.717 -0.0037 -0.5011 -0.1555
51465SOL    HW159715   1.609   9.357   7.653  2.4643 -0.9883  0.1849
51465SOL    HW259716   1.494   9.310   7.740 -0.1577  1.1386 -1.9719
51466SOL     OW59717   9.343   0.571  11.317  0.2287  0.5918 -0.8013
51466SOL    HW159718   9.326   0.664  11.305 -0.7707  0.4702 -0.4995
51466SOL    HW259719   9.293   0.528  11.248 -0.8143  0.2014  0.1484
51467SOL     OW59720   8.949   0.081   2.912  0.5322 -0.6452  0.3306
51467SOL    HW159721   9.036   0.114   2.936 -0.2362 -0.6003  3.5450
51467SOL    HW259722   8.921   0.032   2.989 -1.7295 -1.8935 -1.2048
51468SOL     OW59723   1.152   9.792   9.068 -0.1323 -0.3317  0.1752
51468SOL    HW159724   1.099   9.808   8.990  1.0540 -1.4750 -0.9049
51468SOL    HW259725   1.236   9.835   9.050 -0.1443  0.1641  1.2208
51469SOL     OW59726   5.531   6.723   4.573 -0.4970 -0.1453 -0.2454
51469SOL    HW159727   5.478   6.650   4.602  0.0738 -0.1258  0.8757
51469SOL    HW259728   5.619   6.706   4.608  0.3459 -0.3233 -2.2873
51470SOL     OW59729   4.078   7.868  10.805  0.0476 -0.1160  0.1167
51470SOL    HW159730   4.156   7.922  10.818 -0.2303  0.4571 -0.5410
51470SOL    HW259731   4.097   7.817  10.726 -0.2840  0.1041 -0.1074
51471SOL     OW59732   7.865   6.768   8.715  0.2885  0.2188 -0.5724
51471SOL    HW159733   7.955   6.736   8.711 -0.0325 -0.7089 -0.6743
51471SOL    HW259734   7.830   6.752   8.627  0.6798  2.6325 -1.2272
51472SOL     OW59735   5.386   7.041   1.375 -0.2945  0.1629  0.0847
51472SOL    HW159736   5.416   6.950   1.370  1.1339  0.5503  0.9325
51472SOL    HW259737   5.290   7.035   1.373 -0.2657 -1.4409  1.1818
51473SOL     OW59738   6.926   1.613   2.958 -0.4026 -0.0409  0.1617
51473SOL    HW159739   6.927   1.599   2.863  0.1691 -2.0054  0.4194
51473SOL    HW259740   7.005   1.570   2.990  0.4429  2.2467  1.3626
51474SOL     OW59741  10.794   5.147   3.456  0.0073  0.1147  0.4321
51474SOL    HW159742  10.800   5.125   3.549 -0.0792 -1.0350  0.1903
51474SOL    HW259743  10.724   5.091   3.423  1.3335 -0.9665 -0.7015
51475SOL     OW59744   5.756   2.891   8.103  0.1651  0.1212  0.0939
51475SOL    HW159745   5.794   2.873   8.017  0.4602 -0.3227  0.3122
51475SOL    HW259746   5.703   2.970   8.090  1.2324  0.8103 -0.1932
51476SOL     OW59747   6.816   1.853   9.913 -0.3532  0.3766 -0.0308
51476SOL    HW159748   6.882   1.906   9.958  0.1871 -1.4576  1.5312
51476SOL    HW259749   6.737   1.906   9.915  0.1371  1.1214  1.5007
51477SOL     OW59750   9.914   0.021   0.070 -0.0432 -1.0422 -0.6529
51477SOL    HW159751   9.975   0.028  -0.003  1.1607 -1.5933  0.2653
51477SOL    HW259752   9.873   0.107   0.076  0.7556 -0.6224 -1.1822
51478SOL     OW59753   5.158   5.555   8.295 -0.0352  0.0314 -0.1827
51478SOL    HW159754   5.180   5.648   8.281  0.7294 -0.3507 -1.8287
51478SOL    HW259755   5.150   5.546   8.389 -1.8831  2.1640 -0.0562
51479SOL     OW59756   9.993   9.126   0.367  0.5811  0.5268 -0.3697
51479SOL    HW159757  10.033   9.118   0.281 -2.3906 -0.1940 -1.8039
51479SOL    HW259758   9.919   9.064   0.366 -0.4665  1.5736  2.1371
51480SOL     OW59759   1.895   0.103   6.120 -0.0736 -0.1297 -0.1172
51480SOL    HW159760   1.900   0.198   6.130  2.3625 -0.2624  0.5184
51480SOL    HW259761   1.815   0.089   6.069  0.2558  2.3704 -1.5228
51481SOL     OW59762   8.910  11.202   8.578  0.1947  0.2508  0.1545
51481SOL    HW159763   8.911  11.295   8.558 -0.4504  0.3470  0.5539
51481SOL    HW259764   8.986  11.167   8.531  1.1439  1.1723  0.9666
51482SOL     OW59765   6.896   8.183   0.313  0.4774 -0.4699 -0.1160
51482SOL    HW159766   6.880   8.113   0.250  2.3574 -0.0902 -1.0742
51482SOL    HW259767   6.979   8.222   0.286  1.2290 -0.0913  2.4297
51483SOL     OW59768   9.848   0.343   6.388 -0.3440 -0.7697  0.2158
51483SOL    HW159769   9.939   0.328   6.414  0.1225  0.7371 -0.4660
51483SOL    HW259770   9.799   0.335   6.469  0.4746 -0.9881  0.7029
51484SOL     OW59771  10.579  10.033   7.165  0.0692  0.0876 -0.1555
51484SOL    HW159772  10.603   9.967   7.230  0.5520  0.7471  0.3509
51484SOL    HW259773  10.645  10.023   7.096  0.5850  0.5128  0.2633
51485SOL     OW59774   7.047   5.054  11.040 -0.9772 -0.5809 -0.4775
51485SOL    HW159775   7.035   5.149  11.036 -0.4723 -0.5257 -0.7750
51485SOL    HW259776   6.976   5.023  11.096 -0.8330  0.0295  0.0492
51486SOL     OW59777   0.166   4.985   1.165 -0.6240  0.4062 -0.6312
51486SOL    HW159778   0.146   4.916   1.101 -2.3437  0.2846 -0.0060
51486SOL    HW259779   0.091   5.044   1.160 -0.2843  0.9514  0.5434
51487SOL     OW59780   0.320   9.082  10.068 -0.0402  0.0091 -0.4020
51487SOL    HW159781   0.390   9.070  10.004  2.3172  0.6668  1.8462
51487SOL    HW259782   0.289   9.171  10.054  0.5669  0.2023 -0.5473
51488SOL     OW59783   3.514   2.943   8.839  0.5933 -0.0142  0.2967
51488SOL    HW159784   3.466   2.899   8.768 -0.4439  1.0880  0.2775
51488SOL    HW259785   3.596   2.971   8.799 -0.3438  1.3753 -0.7572
51489SOL     OW59786   6.809  11.277   1.132 -0.3320 -0.6374  0.2002
51489SOL    HW159787   6.868  11.342   1.092  1.9203 -3.2087 -0.9385
51489SOL    HW259788   6.851  11.255   1.215 -1.1913 -0.4886  0.6747
51490SOL     OW59789   0.271   2.017   8.129  0.1088  0.0788  0.0791
51490SOL    HW159790   0.351   1.965   8.131  0.7393  0.9908 -0.3682
51490SOL    HW259791   0.207   1.962   8.084  1.1203  0.1666 -1.5429
51491SOL     OW59792   3.200   2.205   3.298 -0.4032  0.0595 -0.2342
51491SOL    HW159793   3.200   2.178   3.389 -0.2952  1.2694  0.1365
51491SOL    HW259794   3.112   2.238   3.282 -1.4878 -3.0419 -1.5085
51492SOL     OW59795   5.622   3.388  11.795 -0.1700  0.5452 -0.1346
51492SOL    HW159796   5.554   3.454  11.806  1.0034  1.8399 -0.3145
51492SOL    HW259797   5.650   3.397  11.704  2.2257  2.1340  0.6511
51493SOL     OW59798   0.903   3.713  11.759 -0.0056 -0.3730 -0.1080
51493SOL    HW159799   0.933   3.798  11.728 -1.5205  0.2456  0.0189
51493SOL    HW259800   0.940   3.650  11.698 -1.2284  0.6286 -1.9902
51494SOL     OW59801   1.571   4.588  10.765  0.2199  0.5612 -0.0727
51494SOL    HW159802   1.604   4.664  10.717 -1.3615  1.1113 -0.3407
51494SOL    HW259803   1.574   4.517  10.701 -2.1850  1.3604 -1.1877
51495SOL     OW59804   2.389  11.642   2.152  1.0193  0.2895  0.2839
51495SOL    HW159805   2.391  11.558   2.199  0.7384  0.6292  0.9140
51495SOL    HW259806   2.345  11.702   2.212 -0.6470  0.3901 -0.9863
51496SOL     OW59807   9.261   3.997   8.358  0.2875  0.0945 -0.2346
51496SOL    HW159808   9.238   3.954   8.440 -0.5849  1.2393  0.1422
51496SOL    HW259809   9.258   4.091   8.378  2.9312  0.3781 -0.8132
51497SOL     OW59810   8.784  10.128   1.989 -0.2320  0.0188  0.4507
51497SOL    HW159811   8.767  10.158   1.900 -0.1525 -2.2037 -0.3545
51497SOL    HW259812   8.697  10.111   2.026 -0.2107 -0.5907  0.2290
51498SOL     OW59813   4.753   0.958   3.607 -0.0108 -0.7752  0.3372
51498SOL    HW159814   4.757   0.882   3.548  1.7408 -1.6825  1.5230
51498SOL    HW259815   4.721   0.921   3.690 -1.0898  0.2004  0.3666
51499SOL     OW59816   4.707   1.419   5.708 -0.6577 -0.0979  0.2732
51499SOL    HW159817   4.630   1.394   5.759 -0.8033  0.2507  0.2269
51499SOL    HW259818   4.768   1.455   5.773 -0.3713 -0.7288  0.3681
51500SOL     OW59819   0.993  10.753   7.399  0.2350 -0.5431 -0.3899
51500SOL    HW159820   0.934  10.797   7.460  2.1378  0.3707  0.8659
51500SOL    HW259821   0.951  10.669   7.382 -0.2523 -0.9678  2.4133
51501SOL     OW59822   8.633   1.321   2.833 -0.3398  0.2172 -0.1718
51501SOL    HW159823   8.557   1.263   2.831 -0.1050 -0.2427  1.8440
51501SOL    HW259824   8.706   1.267   2.800 -0.7685  0.5633 -1.8007
51502SOL     OW59825   0.199   8.175   6.586  0.0890  0.2161  0.4836
51502SOL    HW159826   0.256   8.140   6.654 -0.1884 -1.2377  0.0055
51502SOL    HW259827   0.122   8.119   6.588 -0.7180  1.2676  0.1578
51503SOL     OW59828   1.427   9.024   0.117  0.6039 -0.2089 -0.5058
51503SOL    HW159829   1.448   8.931   0.107 -0.4783 -0.5737  0.3721
51503SOL    HW259830   1.493   9.069   0.066  0.5716 -1.5096 -1.7582
51504SOL     OW59831   3.337  10.899   5.041  0.6428 -0.2334  0.0589
51504SOL    HW159832   3.268  10.909   5.107 -0.0195  0.6425 -0.7463
51504SOL    HW259833   3.418  10.893   5.093  0.2701  1.5818  0.9461
51505SOL     OW59834  10.612   9.745   5.722 -0.5968 -0.6343 -0.1306
51505SOL    HW159835  10.668   9.733   5.799  0.2493 -2.0939 -0.9391
51505SOL    HW259836  10.550   9.813   5.749  0.5746 -0.0756  1.3331
51506SOL     OW59837   8.306   9.199   2.741 -0.1279  0.0287 -0.8081
51506SOL    HW159838   8.229   9.213   2.795 -0.2955  0.5540 -1.1728
51506SOL    HW259839   8.300   9.108   2.713  1.1359 -0.9642  1.8534
51507SOL     OW59840   7.461  10.254   0.028 -0.2980  0.2070 -0.1933
51507SOL    HW159841   7.544  10.259   0.075 -1.4362  0.7944  1.8854
51507SOL    HW259842   7.440  10.161   0.025  0.0328  0.1237  0.0383
51508SOL     OW59843  10.208   0.411   5.782  0.5464 -0.1540  0.2510
51508SOL    HW159844  10.143   0.349   5.814 -0.5407  0.5555 -0.4992
51508SOL    HW259845  10.188   0.493   5.827 -1.4486  1.0507 -2.5341
51509SOL     OW59846   5.090   8.400   7.760 -1.3874 -0.0329 -0.2969
51509SOL    HW159847   5.017   8.364   7.710 -1.9846 -0.1456  0.6453
51509SOL    HW259848   5.060   8.402   7.850 -0.1147 -0.3812  0.1669
51510SOL     OW59849   1.112   0.691   1.936 -0.2318 -0.0896 -0.3561
51510SOL    HW159850   1.199   0.730   1.926  0.6362 -1.1956  2.2023
51510SOL    HW259851   1.112   0.617   1.874 -0.0792  0.9725 -1.6745
51511SOL     OW59852   5.806   3.488   7.885  0.5914 -0.2298 -0.3135
51511SOL    HW159853   5.790   3.408   7.935 -1.8689  0.9710  0.9876
51511SOL    HW259854   5.891   3.519   7.916 -0.0831 -0.4591  1.9505
51512SOL     OW59855   7.150   1.129  10.806 -0.3450  0.0374 -0.3323
51512SOL    HW159856   7.095   1.153  10.880 -0.7016  0.9163 -0.8702
51512SOL    HW259857   7.190   1.046  10.832  1.2406  1.3366  1.7726
51513SOL     OW59858   5.194   2.011   9.753  0.2143  0.3361  0.3477
51513SOL    HW159859   5.136   1.938   9.774 -0.0909 -0.1423 -1.9424
51513SOL    HW259860   5.136   2.087   9.748  0.2767  0.4375  1.0827
51514SOL     OW59861  10.928   4.791  11.028 -0.1071 -0.0823  0.2390
51514SOL    HW159862  10.959   4.839  10.951 -0.6508 -2.3687 -1.4965
51514SOL    HW259863  11.000   4.730  11.048 -0.3344 -0.1069  1.0042
51515SOL     OW59864  10.573   2.179   2.553 -0.1743  0.5971 -0.2831
51515SOL    HW159865  10.586   2.106   2.492 -0.2310  0.1227  0.2639
51515SOL    HW259866  10.601   2.257   2.504  2.3922 -0.0597 -0.0016
51516SOL     OW59867   2.420   6.065   5.269 -0.2302  0.3730 -0.0201
51516SOL    HW159868   2.395   6.111   5.349 -1.7818 -1.0352  0.3549
51516SOL    HW259869   2.354   6.091   5.205 -1.3404 -1.5231  0.2935
51517SOL     OW59870   5.161  10.486   2.275  0.9760  0.3981  0.5350
51517SOL    HW159871   5.233  10.528   2.227  1.2568 -0.4267  0.2236
51517SOL    HW259872   5.204  10.445   2.350  0.5057  1.9241  1.7032
51518SOL     OW59873   2.175   9.318   2.912 -0.3513 -0.6818 -0.2763
51518SOL    HW159874   2.202   9.230   2.885 -1.4187 -0.9297 -0.6065
51518SOL    HW259875   2.141   9.308   3.001  1.0588 -0.2835  0.3228
51519SOL     OW59876   4.703   2.635  10.991 -0.1483  0.2873  0.2293
51519SOL    HW159877   4.702   2.726  11.022 -0.5526  0.3921 -0.0872
51519SOL    HW259878   4.700   2.583  11.071  1.2371  0.5385  0.4641
51520SOL     OW59879   0.503   9.101   1.954  0.0195  0.1011 -0.1950
51520SOL    HW159880   0.462   9.023   1.918  0.4693 -0.8578  1.2918
51520SOL    HW259881   0.567   9.127   1.888 -0.1516 -0.7661 -0.7206
51521SOL     OW59882  10.373   9.304   7.361 -0.2197  0.1400 -0.3736
51521SOL    HW159883  10.299   9.243   7.369 -0.2506  0.2039 -0.1577
51521SOL    HW259884  10.401   9.320   7.451 -0.3350  0.5922 -0.4130
51522SOL     OW59885   3.674   9.930   5.762  0.5679 -0.3365  0.0333
51522SOL    HW159886   3.692   9.921   5.855  1.8397 -0.6341 -0.2193
51522SOL    HW259887   3.691   9.843   5.726  2.3979  0.3237 -0.8125
51523SOL     OW59888   4.401   8.087   3.765  0.1233  0.7942 -0.6825
51523SOL    HW159889   4.394   8.040   3.848 -0.0265  0.3986 -0.9144
51523SOL    HW259890   4.451   8.028   3.709  1.4168  1.6475 -0.4521
51524SOL     OW59891   9.711   5.207   9.769 -0.6408 -0.9702  0.3119
51524SOL    HW159892   9.648   5.278   9.780  0.7492  0.1553  1.3274
51524SOL    HW259893   9.725   5.173   9.857  2.0273  0.5154  0.5769
51525SOL     OW59894   5.446   7.927   5.766 -0.0661 -0.3384 -0.5214
51525SOL    HW159895   5.477   7.838   5.755  1.7900  0.2762 -0.4896
51525SOL    HW259896   5.468   7.971   5.685 -1.2255  0.0409 -0.6475
51526SOL     OW59897   6.280   8.085   9.714  0.0059 -0.4747 -0.3330
51526SOL    HW159898   6.359   8.140   9.717  1.0067 -1.8510 -0.5185
51526SOL    HW259899   6.235   8.114   9.634  0.6292 -0.0861 -0.5547
51527SOL     OW59900  10.639   5.696   0.028 -0.1116 -0.0428 -0.1704
51527SOL    HW159901  10.668   5.653  -0.052  0.1783 -0.5172  0.1868
51527SOL    HW259902  10.594   5.775  -0.002 -0.0021 -0.2171 -0.7980
51528SOL     OW59903   6.430   4.350  10.664 -0.1838  0.4678 -0.6241
51528SOL    HW159904   6.408   4.258  10.682 -1.0900  0.4608 -1.6525
51528SOL    HW259905   6.525   4.355  10.680  0.3473 -1.2172 -2.6724
51529SOL     OW59906   5.564  10.857   9.252  0.1436 -0.1524 -0.3926
51529SOL    HW159907   5.580  10.910   9.174  0.2405  0.6811  0.1722
51529SOL    HW259908   5.623  10.782   9.243  1.0794  0.5769 -0.5246
51530SOL     OW59909   6.649   7.501   8.029 -0.3548 -0.2561 -0.1209
51530SOL    HW159910   6.636   7.494   7.935 -0.6720 -0.2946 -0.0767
51530SOL    HW259911   6.713   7.572   8.040 -1.3011  0.6496 -0.3072
51531SOL     OW59912   3.174   8.861  11.443 -0.1038  0.0355 -0.2311
51531SOL    HW159913   3.195   8.876  11.535  0.1726 -0.0762 -0.2733
51531SOL    HW259914   3.094   8.809  11.444 -0.9031  1.2380 -0.0797
51532SOL     OW59915   6.042   4.680   6.448  0.0057  0.3358 -0.3301
51532SOL    HW159916   6.081   4.666   6.361  1.7986 -0.7330  0.5867
51532SOL    HW259917   6.036   4.775   6.456 -0.0544  0.4602 -1.5468
51533SOL     OW59918   0.228   6.147   1.469  0.2234 -0.3770  0.1595
51533SOL    HW159919   0.257   6.129   1.380  0.9671 -0.8808  0.4892
51533SOL    HW259920   0.305   6.127   1.523 -0.7476 -1.7582  1.0790
51534SOL     OW59921   0.243   1.211  10.424 -0.5367 -0.2152  0.1975
51534SOL    HW159922   0.282   1.248  10.503 -0.2433 -1.6680  0.7616
51534SOL    HW259923   0.299   1.241  10.353 -0.3254  0.4417  0.6326
51535SOL     OW59924   1.842   8.700  11.026 -0.3068 -0.4063 -0.0155
51535SOL    HW159925   1.875   8.785  10.998 -2.5194  1.0118  1.3236
51535SOL    HW259926   1.914   8.663  11.078 -0.0337  1.6781  1.2334
51536SOL     OW59927   9.217   0.828   3.053  0.0735 -0.4223  0.1081
51536SOL    HW159928   9.277   0.861   3.120  1.1647  0.5934 -1.2908
51536SOL    HW259929   9.139   0.801   3.101  0.8211  0.2496  1.7731
51537SOL     OW59930  10.225   8.682   3.942  0.4901 -0.0937 -1.4153
51537SOL    HW159931  10.158   8.702   4.008  0.0009  0.8543 -2.1747
51537SOL    HW259932  10.226   8.587   3.938 -1.4074 -0.1462 -1.9459
51538SOL     OW59933   4.404  10.605   9.666 -0.4127  0.0189 -0.1836
51538SOL    HW159934   4.456  10.565   9.595 -0.6415 -0.0300 -0.3245
51538SOL    HW259935   4.435  10.562   9.745  0.1217  0.3528 -0.2096
51539SOL     OW59936   1.972   5.616   5.161 -0.2420 -0.0963  0.0498
51539SOL    HW159937   2.065   5.613   5.137 -0.0836  1.2736  0.4115
51539SOL    HW259938   1.926   5.617   5.077  0.2044  2.0141 -0.2296
51540SOL     OW59939   2.683   1.531   7.777 -0.5933 -0.3833 -0.6250
51540SOL    HW159940   2.637   1.464   7.727 -1.9816 -1.0059  1.3682
51540SOL    HW259941   2.774   1.500   7.781 -0.6810 -0.8306 -1.8440
51541SOL     OW59942   9.285   0.675   6.106  0.2268  0.1170  0.0018
51541SOL    HW159943   9.228   0.702   6.178  0.1553  3.5311 -1.1210
51541SOL    HW259944   9.359   0.633   6.149 -1.0783 -0.4229  1.8258
51542SOL     OW59945   9.471   4.468   8.472 -0.0808  0.3731 -0.1129
51542SOL    HW159946   9.456   4.448   8.564  1.0573  1.1191  0.2471
51542SOL    HW259947   9.414   4.407   8.425 -1.4993  0.7217  1.0862
51543SOL     OW59948   8.292  10.128   9.812  0.1236 -0.4405  0.7424
51543SOL    HW159949   8.230  10.059   9.788 -0.2841  0.1779 -0.0101
51543SOL    HW259950   8.361  10.082   9.861 -0.8067 -1.1704  1.4099
51544SOL     OW59951   8.348  11.797  11.352 -0.2004  0.3622  0.1230
51544SOL    HW159952   8.320  11.746  11.276 -1.7002  1.2105  0.0774
51544SOL    HW259953   8.378  11.880  11.315  2.2026 -0.3803  0.1999
51545SOL     OW59954   9.873   7.683   4.134  0.0027 -0.2264  0.3117
51545SOL    HW159955   9.866   7.593   4.101 -0.1738  0.1119 -0.5912
51545SOL    HW259956   9.829   7.737   4.068  0.8314  0.6191  0.4268
51546SOL     OW59957   4.377  10.011   6.609 -0.2968  0.3793 -0.4290
51546SOL    HW159958   4.400  10.039   6.520  0.7436  0.6695 -0.0797
51546SOL    HW259959   4.319  10.080   6.641  0.8510  1.2568 -0.2070
51547SOL     OW59960   7.224   3.628   1.956 -0.2981  0.0799 -0.0631
51547SOL    HW159961   7.167   3.704   1.953  0.2546  0.4805 -1.2442
51547SOL    HW259962   7.229   3.598   1.865  0.0064 -0.9795  0.2820
51548SOL     OW59963   7.975   8.914   0.802  0.1955 -0.3680  0.1761
51548SOL    HW159964   7.998   9.003   0.776  0.2432 -0.7696 -1.2070
51548SOL    HW259965   8.054   8.862   0.785  0.2339 -0.6495  1.1583
51549SOL     OW59966   5.770  11.476   2.462 -0.1780 -0.3147 -0.2067
51549SOL    HW159967   5.833  11.494   2.392  1.0295 -2.3484  0.2851
51549SOL    HW259968   5.823  11.477   2.542 -1.2530  0.3704  0.5319
51550SOL     OW59969   9.796   0.639   8.721  0.1823  0.3602  0.4654
51550SOL    HW159970   9.855   0.569   8.694 -1.3071 -0.0676 -2.0279
51550SOL    HW259971   9.708   0.602   8.710 -0.6049  1.8216  1.4771
51551SOL     OW59972   2.036   3.395   4.376 -0.2291 -0.3428  0.2615
51551SOL    HW159973   1.970   3.446   4.423  1.0248  1.2715  0.3294
51551SOL    HW259974   2.053   3.320   4.434 -3.4085 -1.9371 -0.6734
51552SOL     OW59975   3.317   7.635   3.417  0.1137 -0.3400  0.8868
51552SOL    HW159976   3.309   7.725   3.387  1.1679 -0.3571  0.5166
51552SOL    HW259977   3.229   7.612   3.447 -0.3113  0.5972  0.4032
51553SOL     OW59978   2.899   6.565   6.394 -0.0924  0.5854  0.0561
51553SOL    HW159979   2.890   6.539   6.302 -1.7797 -1.0613  0.6080
51553SOL    HW259980   2.811   6.553   6.431 -0.0566  3.5175  1.3655
51554SOL     OW59981   4.460   3.921   5.028 -1.0333  0.1595 -0.3323
51554SOL    HW159982   4.523   3.936   4.957  0.1975  0.3898  0.7684
51554SOL    HW259983   4.470   3.829   5.050  0.7539  0.7108  1.4650
51555SOL     OW59984   9.419   3.271   5.930  0.4108  0.0227  0.5259
51555SOL    HW159985   9.385   3.348   5.976 -0.8618 -0.4121  0.3529
51555SOL    HW259986   9.495   3.244   5.981 -0.7541 -0.2280  2.1831
51556SOL     OW59987   6.400   7.012   0.014  0.2619  0.3732 -0.5255
51556SOL    HW159988   6.329   6.975  -0.039  0.0637  1.3019 -0.9226
51556SOL    HW259989   6.463   7.047  -0.049  0.7996  0.0630 -0.1657
51557SOL     OW59990   0.655   6.298  10.850 -0.3298  0.4242  0.2710
51557SOL    HW159991   0.704   6.225  10.813  0.6232  0.5812  1.1562
51557SOL    HW259992   0.681   6.374  10.798  0.9018  0.6215  1.1194
51558SOL     OW59993   5.570   0.737   3.918  0.2665 -0.2479  0.0213
51558SOL    HW159994   5.605   0.706   4.003  1.7245  0.4327 -0.2960
51558SOL    HW259995   5.566   0.832   3.927  3.0864  0.1343 -1.5373
51559SOL     OW59996   7.156   9.227  10.502 -0.3681  0.1378 -0.8528
51559SOL    HW159997   7.118   9.142  10.480  0.9180 -0.2062 -1.9037
51559SOL    HW259998   7.092   9.291  10.473 -1.9209 -0.4403  1.0572
51560SOL     OW59999   9.844  10.130  11.633 -0.1248 -0.0405  0.3916
51560SOL    HW160000   9.840  10.177  11.549 -0.0396 -0.1587  0.3220
51560SOL    HW260001   9.864  10.040  11.609  1.5908  0.2450  0.6381
51561SOL     OW60002   8.095  11.708   6.871 -0.5940 -0.3537 -0.1570
51561SOL    HW160003   8.176  11.658   6.865 -1.3829 -1.5646 -1.2977
51561SOL    HW260004   8.076  11.712   6.964  0.3722 -0.7141  0.0656
51562SOL     OW60005  10.942   7.877   4.699 -0.3989  0.1168 -0.4642
51562SOL    HW160006  10.915   7.909   4.613  0.8888 -0.2340 -1.0349
51562SOL    HW260007  10.993   7.798   4.680 -1.5694 -0.9777  0.7582
51563SOL     OW60008   0.308   8.914   1.829  0.2571  0.1107 -0.7881
51563SOL    HW160009   0.264   8.870   1.756 -2.7744  0.3496  0.7320
51563SOL    HW260010   0.241   8.972   1.865  2.4449  1.8515  0.6827
51564SOL     OW60011   0.874   4.645   0.318  0.3933 -0.1597  0.1883
51564SOL    HW160012   0.963   4.617   0.298  0.7509  0.1258  1.2750
51564SOL    HW260013   0.860   4.723   0.263  0.6359 -0.4760 -0.3242
51565SOL     OW60014   8.838  10.340   9.699  0.1392  0.1939 -0.4763
51565SOL    HW160015   8.786  10.261   9.715  0.0619  0.2751 -0.3224
51565SOL    HW260016   8.929  10.311   9.711  0.0623  0.3970  0.8044
51566SOL     OW60017  10.724   5.067  10.855  0.4267 -0.6268 -0.2665
51566SOL    HW160018  10.722   5.133  10.786  0.4646  0.3059  0.6021
51566SOL    HW260019  10.645   5.083  10.905  0.0424 -1.7529 -0.4886
51567SOL     OW60020   6.954   3.881   9.967 -0.0654  0.4709  0.5531
51567SOL    HW160021   6.881   3.932   9.934 -0.4297 -0.4259 -0.0560
51567SOL    HW260022   6.999   3.848   9.889 -1.2846 -2.1722  0.8451
51568SOL     OW60023   7.266   0.519   5.343  1.0460 -0.4936 -0.0318
51568SOL    HW160024   7.239   0.593   5.289  0.3631 -0.4607  0.3335
51568SOL    HW260025   7.190   0.503   5.400 -0.3221 -3.7046 -2.4504
51569SOL     OW60026   5.250  10.278  11.163  0.5476  0.0621 -0.9766
51569SOL    HW160027   5.290  10.347  11.216  0.7871  0.4532 -1.6631
51569SOL    HW260028   5.285  10.197  11.201  1.6256  0.3817 -1.2397
51570SOL     OW60029   2.879   4.257   4.339 -0.1675 -0.5678 -0.3612
51570SOL    HW160030   2.924   4.289   4.261  0.4676  0.4302  0.3801
51570SOL    HW260031   2.867   4.335   4.393 -1.6373 -1.0504  0.0402
51571SOL     OW60032   1.448   0.540   2.812  0.1994  0.0841 -0.0398
51571SOL    HW160033   1.475   0.478   2.880 -1.1422  0.8563  1.2604
51571SOL    HW260034   1.406   0.611   2.860 -1.1713  0.4548 -1.6999
51572SOL     OW60035   0.603   4.977   8.396 -0.2036 -0.3928 -0.3593
51572SOL    HW160036   0.573   4.915   8.330 -0.9315 -1.0439  0.5464
51572SOL    HW260037   0.539   5.048   8.394  1.2295  0.9462 -2.1656
51573SOL     OW60038   0.094   6.750   8.046 -0.2562 -0.1526 -1.0476
51573SOL    HW160039   0.187   6.774   8.052 -0.4544  0.3379  0.3641
51573SOL    HW260040   0.096   6.658   8.019  0.7081 -0.6987  0.7429
51574SOL     OW60041  10.738  10.162   9.027 -0.2981 -0.0771 -0.6829
51574SOL    HW160042  10.670  10.141   9.092  0.6130 -0.1202  0.2875
51574SOL    HW260043  10.692  10.213   8.960 -1.3779 -0.4773 -0.2735
51575SOL     OW60044   8.150   9.843   7.637 -0.3529 -0.3417 -0.0611
51575SOL    HW160045   8.159   9.881   7.549  2.0956 -0.5492  0.0583
51575SOL    HW260046   8.210   9.769   7.638 -2.0980 -1.8394  1.0569
51576SOL     OW60047   5.507  11.282   1.657  0.2678 -0.3768  0.3175
51576SOL    HW160048   5.447  11.256   1.587 -0.1382 -0.2734  0.6276
51576SOL    HW260049   5.477  11.235   1.734  0.1484  0.2229  0.6428
51577SOL     OW60050   1.171   2.464   9.795 -0.2447 -0.2078 -0.0284
51577SOL    HW160051   1.228   2.420   9.858 -1.9719 -0.7466  1.2338
51577SOL    HW260052   1.228   2.483   9.720  1.1003 -2.5977  0.2833
51578SOL     OW60053   0.964   5.649   3.125  0.1319  0.2031 -0.1894
51578SOL    HW160054   0.950   5.641   3.219 -0.2091  2.7743  0.0572
51578SOL    HW260055   1.053   5.686   3.117  0.6573 -1.1647 -0.9602
51579SOL     OW60056  10.900   3.878   8.518  0.1138  0.1376  0.1548
51579SOL    HW160057  10.856   3.830   8.449  2.6375  0.4532 -1.8253
51579SOL    HW260058  10.893   3.822   8.595  1.0581 -2.4040 -1.4975
51580SOL     OW60059   0.832   5.382  10.815 -0.4092  0.6760  0.3575
51580SOL    HW160060   0.803   5.389  10.725  1.2446  1.2021 -0.1788
51580SOL    HW260061   0.926   5.402  10.812 -0.0989 -0.2671  2.0441
51581SOL     OW60062   0.948   9.234   0.093  0.5383  0.1606  0.3531
51581SOL    HW160063   0.974   9.214   0.182  0.0809 -0.5914  0.3273
51581SOL    HW260064   0.858   9.266   0.100  0.0563 -1.0784  0.0537
51582SOL     OW60065   3.678   3.303   8.368  0.2179 -0.1968 -0.2604
51582SOL    HW160066   3.715   3.391   8.380  2.1574 -0.7171 -1.7918
51582SOL    HW260067   3.616   3.313   8.296 -2.1571  0.5015  1.7402
51583SOL     OW60068   7.414   2.785   2.043 -0.2756  0.4803 -0.4596
51583SOL    HW160069   7.353   2.783   1.970 -0.9618  0.8492  0.0888
51583SOL    HW260070   7.391   2.865   2.092  0.3931  0.4268 -0.0335
51584SOL     OW60071   3.566   3.095   7.480 -0.3750  0.0757  0.6377
51584SOL    HW160072   3.508   3.144   7.421  1.3816 -1.5107 -2.7196
51584SOL    HW260073   3.511   3.075   7.556 -3.5016  0.5936 -1.2709
51585SOL     OW60074   5.283   5.910   6.230 -0.2619 -0.0569  0.1470
51585SOL    HW160075   5.320   5.912   6.318 -2.2114  2.9249  1.0657
51585SOL    HW260076   5.275   5.817   6.209  2.2000 -0.8370  2.1937
51586SOL     OW60077   3.992   4.428   6.595  0.2204 -0.0691  0.2597
51586SOL    HW160078   3.945   4.476   6.526 -0.3879 -0.3681  0.4599
51586SOL    HW260079   3.928   4.364   6.627  0.9779 -0.9255  0.0887
51587SOL     OW60080  10.594   6.825   9.783  0.1112  0.4575 -0.0818
51587SOL    HW160081  10.652   6.753   9.810 -0.4312  0.6228  1.6164
51587SOL    HW260082  10.653   6.897   9.763  0.5514  0.5963  1.5514
51588SOL     OW60083   1.934   3.729   0.420  0.0989  0.2406  0.5221
51588SOL    HW160084   1.862   3.669   0.402 -0.7354  1.3465  0.0988
51588SOL    HW260085   1.905   3.780   0.495 -0.0190  1.3889 -0.2810
51589SOL     OW60086   4.945   4.984   3.411  0.0291  0.0118 -0.3484
51589SOL    HW160087   5.015   4.925   3.383  1.1619  1.0526  0.2121
51589SOL    HW260088   4.990   5.065   3.436 -1.2697  0.3100  1.1416
51590SOL     OW60089   7.503   0.312   8.853 -0.5313 -0.1238  0.3936
51590SOL    HW160090   7.414   0.287   8.828 -0.7762  1.6617 -0.7253
51590SOL    HW260091   7.536   0.361   8.778  1.0413  0.1133  1.1947
51591SOL     OW60092   5.245   7.713   3.785  0.3047  0.3566  0.6541
51591SOL    HW160093   5.335   7.746   3.783  0.5015 -0.0935  1.8446
51591SOL    HW260094   5.251   7.626   3.747 -0.0058  1.1161 -1.2706
51592SOL     OW60095   2.182   9.269   8.715 -0.1076 -0.1026 -0.3933
51592SOL    HW160096   2.105   9.324   8.728 -0.2840 -0.5191  0.3604
51592SOL    HW260097   2.161   9.215   8.638 -1.2407 -1.3381  0.7275
51593SOL     OW60098   4.222   3.407   6.633  0.0497  0.1072 -0.3773
51593SOL    HW160099   4.281   3.362   6.694 -1.1016 -0.2575  0.5103
51593SOL    HW260100   4.141   3.356   6.636 -0.3763  0.6875 -1.4465
51594SOL     OW60101   7.142   2.035   3.405  0.3374  0.2570 -0.7037
51594SOL    HW160102   7.071   2.080   3.449  0.5781 -0.1033  0.0681
51594SOL    HW260103   7.104   2.005   3.322 -2.1012 -4.3667  1.6631
51595SOL     OW60104   0.563   8.867   2.823  0.0425  0.0723  0.1196
51595SOL    HW160105   0.635   8.917   2.784 -0.0652  0.0718 -0.0829
51595SOL    HW260106   0.587   8.858   2.915  0.0496  0.5165  0.1621
51596SOL     OW60107   8.187   9.225   1.048  0.7518  0.3441 -0.0169
51596SOL    HW160108   8.149   9.313   1.038  1.1019  0.5334  0.2830
51596SOL    HW260109   8.165   9.199   1.137  0.5609  0.0845 -0.1408
51597SOL     OW60110   8.520   9.632   2.611 -0.2236  0.1586  0.5945
51597SOL    HW160111   8.597   9.652   2.664  1.6639 -1.1302 -1.4980
51597SOL    HW260112   8.517   9.701   2.545 -0.9970  0.3175  0.7901
51598SOL     OW60113   0.246  10.015   2.284  0.4779  0.3422 -0.1210
51598SOL    HW160114   0.236   9.947   2.350  1.5638 -0.1521 -0.4387
51598SOL    HW260115   0.245   9.967   2.201 -1.9444  1.0561 -0.5729
51599SOL     OW60116  10.633   8.240  11.817 -0.1302 -0.4790 -0.3987
51599SOL    HW160117  10.555   8.194  11.786 -0.2680  0.5032 -1.5964
51599SOL    HW260118  10.599   8.311  11.872 -0.3655  1.6483 -3.0623
51600SOL     OW60119   9.413  10.462   9.813 -0.1973  0.2087 -0.1497
51600SOL    HW160120   9.345  10.405   9.850 -1.3126  0.4421 -1.7438
51600SOL    HW260121   9.397  10.548   9.852  0.1428 -0.0752  0.6271
51601SOL     OW60122  11.646   0.885   5.038 -0.6802 -0.3511 -0.4418
51601SOL    HW160123  11.580   0.816   5.027  0.7510 -1.7715 -0.4840
51601SOL    HW260124  11.650   0.929   4.953 -0.1696 -1.5748 -1.0682
51602SOL     OW60125  10.877   6.750   5.090 -0.6860 -0.2031  0.4993
51602SOL    HW160126  10.900   6.670   5.136  0.3771 -0.4323 -0.4069
51602SOL    HW260127  10.796   6.729   5.043  0.6321 -1.4119 -1.3326
51603SOL     OW60128  10.108  10.385  10.123  0.1254  0.7968 -0.0501
51603SOL    HW160129  10.196  10.358  10.147  0.5295  1.8711 -0.2895
51603SOL    HW260130  10.104  10.478  10.144 -0.4597  1.1023 -1.3861
51604SOL     OW60131   9.952  11.550   3.539  0.2853  0.4245 -0.1076
51604SOL    HW160132   9.872  11.539   3.590 -0.6495  1.2750 -1.3600
51604SOL    HW260133   9.943  11.490   3.466  1.9682 -1.3541  1.0504
51605SOL     OW60134   2.157   1.417   4.084 -0.1900 -0.4731 -0.7921
51605SOL    HW160135   2.153   1.354   4.156 -1.3002  1.0197  0.5123
51605SOL    HW260136   2.251   1.430   4.069  0.0728 -0.6675  0.5377
51606SOL     OW60137   7.213   7.744   1.439 -0.1475  0.5210  0.6741
51606SOL    HW160138   7.307   7.762   1.442 -0.1822  0.8461 -0.0603
51606SOL    HW260139   7.207   7.655   1.403 -0.1198  0.5340  0.6379
51607SOL     OW60140   5.714  10.768   5.709  0.1814  0.0647  0.2910
51607SOL    HW160141   5.793  10.813   5.682 -0.3823 -0.3142 -2.2476
51607SOL    HW260142   5.721  10.681   5.669 -0.7195 -0.6011  1.5051
51608SOL     OW60143   1.844  10.128  10.643  0.0879  0.6431  0.5283
51608SOL    HW160144   1.834  10.216  10.681  0.5431  0.9347 -0.0042
51608SOL    HW260145   1.775  10.076  10.684 -0.7750  1.4753  0.1869
51609SOL     OW60146   0.182   9.217  10.780 -0.2198 -0.3716 -0.0783
51609SOL    HW160147   0.143   9.130  10.793 -0.3350 -0.4745 -1.0742
51609SOL    HW260148   0.253   9.221  10.845  0.6666 -1.7476 -0.9040
51610SOL     OW60149   1.909   9.444   2.916  0.3153 -0.1525  0.9055
51610SOL    HW160150   1.986   9.398   2.884 -0.1657  0.4094 -1.2305
51610SOL    HW260151   1.864   9.380   2.972  0.3125 -1.8944 -0.9673
51611SOL     OW60152   3.170   2.634   3.433 -0.1028 -0.3750  0.4495
51611SOL    HW160153   3.220   2.715   3.440  0.7935 -0.9057  0.3493
51611SOL    HW260154   3.236   2.565   3.426 -0.8199 -0.9506 -1.6111
51612SOL     OW60155   3.771   8.348   6.233  0.6145 -0.5250 -0.2317
51612SOL    HW160156   3.731   8.373   6.316  0.1339 -0.0110 -0.6139
51612SOL    HW260157   3.803   8.259   6.248 -0.6384 -0.9491  0.1086
51613SOL     OW60158  10.371   8.957   4.523 -0.4062  0.3985 -0.1738
51613SOL    HW160159  10.402   9.038   4.565 -1.7804  0.9046 -0.0863
51613SOL    HW260160  10.284   8.979   4.491 -1.5535 -1.5267  1.3744
51614SOL     OW60161   7.344   9.043   7.870 -0.0143 -0.4442 -0.0963
51614SOL    HW160162   7.416   9.089   7.913 -0.1084 -0.0682 -0.3365
51614SOL    HW260163   7.369   8.950   7.874  0.9973 -0.2386 -1.1010
51615SOL     OW60164   3.858   9.508   1.922  0.1755 -0.3119 -0.0606
51615SOL    HW160165   3.932   9.568   1.913  0.8503 -1.1739 -0.3130
51615SOL    HW260166   3.883   9.450   1.995  0.3702 -1.4821 -1.0331
51616SOL     OW60167   4.008   4.826  11.687 -0.3519 -0.1271 -0.1454
51616SOL    HW160168   4.073   4.840  11.618  1.4912 -0.7724  1.3522
51616SOL    HW260169   3.996   4.913  11.726 -0.0234 -0.0815 -0.1388
51617SOL     OW60170   2.966   5.364   6.483  0.3808 -0.0895  0.3543
51617SOL    HW160171   2.945   5.271   6.486 -4.4412  0.7477  0.6607
51617SOL    HW260172   2.923   5.396   6.403  0.8618  2.0715  0.8819
51618SOL     OW60173   3.474  10.290   9.211  0.0563  0.8006 -0.3351
51618SOL    HW160174   3.462  10.349   9.285 -0.0972 -0.1279  0.3955
51618SOL    HW260175   3.397  10.233   9.214 -0.7033  1.6461 -2.0712
51619SOL     OW60176   0.715   5.482   4.270  0.1386 -0.2625 -0.1356
51619SOL    HW160177   0.647   5.506   4.208 -1.9585 -0.8070  1.7946
51619SOL    HW260178   0.783   5.548   4.258 -2.4001  2.6827  0.3780
51620SOL     OW60179   9.519   1.433   0.074 -0.2960 -0.0239  0.1236
51620SOL    HW160180   9.455   1.481   0.127  0.8654  0.6469  0.9563
51620SOL    HW260181   9.478   1.425  -0.012 -1.0887  1.2634  0.3565
51621SOL     OW60182   3.168   3.823   3.942  0.1627 -0.1061  0.0271
51621SOL    HW160183   3.217   3.842   3.862  0.9813  0.3873  0.6306
51621SOL    HW260184   3.110   3.898   3.952 -0.1559 -0.3106 -0.2581
51622SOL     OW60185   5.278   3.871   6.831 -0.4392 -0.1314  0.3056
51622SOL    HW160186   5.229   3.789   6.837  1.1761 -1.1491  0.2953
51622SOL    HW260187   5.325   3.877   6.914  2.0245 -0.9756 -0.9274
51623SOL     OW60188   4.437   7.874   2.893  0.3330 -0.1888  0.1998
51623SOL    HW160189   4.357   7.903   2.849  0.3793 -0.6516 -0.1860
51623SOL    HW260190   4.508   7.908   2.838  0.4820  1.9232  1.5482
51624SOL     OW60191   7.055   7.611   5.441 -0.0597  0.2458 -0.0994
51624SOL    HW160192   7.021   7.631   5.353  0.0194  0.4990 -0.0743
51624SOL    HW260193   7.092   7.694   5.471 -1.4843  0.5736  0.8244
51625SOL     OW60194   6.879   4.266   2.155  0.4774  0.0076 -0.1329
51625SOL    HW160195   6.939   4.192   2.155 -0.2916 -0.6531  1.4455
51625SOL    HW260196   6.802   4.235   2.202  0.0309  1.7187  0.3345
51626SOL     OW60197   8.673   0.291   9.273 -0.5183  0.1824  0.2874
51626SOL    HW160198   8.758   0.324   9.302 -1.8633  2.4836  2.0524
51626SOL    HW260199   8.676   0.197   9.289  1.3488  0.3605  1.2413
51627SOL     OW60200   8.381   1.728  10.665  0.7226  0.2523  0.1545
51627SOL    HW160201   8.294   1.742  10.704  1.6652 -2.3569  3.6105
51627SOL    HW260202   8.374   1.644  10.619  1.0674  0.7815 -0.9069
51628SOL     OW60203   9.911   0.016   6.051 -0.6339  0.0152  0.1896
51628SOL    HW160204   9.818   0.036   6.064 -1.1680 -2.0818 -0.0565
51628SOL    HW260205   9.923  -0.070   6.090  0.6715 -0.7414 -1.7077
51629SOL     OW60206  11.421   7.737  10.268  0.2910 -0.2603  0.0869
51629SOL    HW160207  11.494   7.735  10.331  1.0193  0.8600 -0.6952
51629SOL    HW260208  11.462   7.721  10.183 -0.2808  0.9874 -0.4392
51630SOL     OW60209   7.470   2.157   7.107  0.1101 -0.3188  0.3252
51630SOL    HW160210   7.557   2.193   7.121  0.0493 -0.2903  0.6409
51630SOL    HW260211   7.479   2.102   7.029 -0.2539  1.8948 -1.3793
51631SOL     OW60212   2.741   8.073  10.323 -0.2147 -0.2564 -0.1025
51631SOL    HW160213   2.672   8.032  10.375 -0.0895  1.8353  1.8593
51631SOL    HW260214   2.751   8.161  10.361  1.8653  0.3645 -1.8818
51632SOL     OW60215   1.352   2.245   4.695  0.2913 -0.0155 -0.2464
51632SOL    HW160216   1.436   2.223   4.735  0.9676 -1.4531 -2.3088
51632SOL    HW260217   1.288   2.195   4.746  0.7898  0.1848  0.6082
51633SOL     OW60218   7.932   3.045   8.728  0.5849 -0.2745  0.2289
51633SOL    HW160219   7.964   3.056   8.639  0.8247  0.8462  0.4367
51633SOL    HW260220   7.871   2.971   8.723  0.8936 -0.4694 -0.7779
51634SOL     OW60221   2.187   2.242   7.518  0.4550 -0.0595  0.7739
51634SOL    HW160222   2.173   2.231   7.612  0.7002  1.8685  1.0685
51634SOL    HW260223   2.103   2.219   7.478  0.1579 -0.2726  1.5107
51635SOL     OW60224   7.781   2.981   3.339  0.0383 -0.1581  0.0001
51635SOL    HW160225   7.846   3.045   3.310  0.1792 -1.0389 -1.7809
51635SOL    HW260226   7.823   2.935   3.411  0.3621  0.9890  0.5709
51636SOL     OW60227   1.971   6.853   8.520  0.0308  0.1970  0.6691
51636SOL    HW160228   2.063   6.824   8.522  0.2144  0.7095  0.0597
51636SOL    HW260229   1.969   6.933   8.572 -0.2281 -0.2320  1.3226
51637SOL     OW60230  11.020   6.542  11.197 -0.2959  0.3430 -0.1330
51637SOL    HW160231  11.058   6.628  11.178  3.0008 -0.1978  2.8286
51637SOL    HW260232  10.946   6.561  11.255 -2.4119  1.2546 -2.9338
51638SOL     OW60233   0.227   4.067   1.970  0.2578 -0.4220  0.6788
51638SOL    HW160234   0.191   4.133   1.910 -0.5821 -0.8517  0.6912
51638SOL    HW260235   0.209   4.102   2.057 -0.2768 -0.6928  0.6869
51639SOL     OW60236   1.817   0.237  11.423 -0.1626  0.0901 -0.0247
51639SOL    HW160237   1.831   0.167  11.359  0.1676  1.5601 -1.6239
51639SOL    HW260238   1.894   0.293  11.414 -0.6793  0.9653  0.8375
51640SOL     OW60239   4.657  10.409   7.309  0.4103  0.1269 -0.1481
51640SOL    HW160240   4.650  10.329   7.256 -1.8468  0.7925 -0.9738
51640SOL    HW260241   4.677  10.477   7.245  1.1786  0.4133  0.3923
51641SOL     OW60242  11.758   2.570   0.727  0.3531 -0.3594 -0.0784
51641SOL    HW160243  11.818   2.509   0.769  0.4220 -0.2754 -0.0529
51641SOL    HW260244  11.691   2.515   0.687 -0.0720 -0.4153  0.6918
51642SOL     OW60245   7.837   5.617   0.604  0.1543 -0.1085 -0.3198
51642SOL    HW160246   7.893   5.620   0.527 -4.4306 -1.3455 -4.1303
51642SOL    HW260247   7.810   5.708   0.619 -1.6308 -0.1921 -2.5831
51643SOL     OW60248   5.286   4.915  10.374 -0.0950  0.3104  0.0764
51643SOL    HW160249   5.203   4.962  10.377  0.9893  2.6583 -2.4391
51643SOL    HW260250   5.352   4.982  10.394  1.3530 -0.7723 -0.9101
51644SOL     OW60251   8.474   7.115   6.273  0.3362 -0.2798  0.9572
51644SOL    HW160252   8.405   7.049   6.282  0.7946 -0.7093  1.3348
51644SOL    HW260253   8.432   7.196   6.305 -0.6325 -0.0799 -0.6809
51645SOL     OW60254   7.896   6.501   7.196  0.2168  0.6335 -0.6651
51645SOL    HW160255   7.807   6.534   7.207  0.3999  1.3917 -1.3353
51645SOL    HW260256   7.953   6.573   7.224  0.6403 -0.3653  1.1823
51646SOL     OW60257   5.142   0.905   8.729 -0.0073 -0.0169 -1.0364
51646SOL    HW160258   5.061   0.876   8.770  0.0525 -1.7627 -2.0482
51646SOL    HW260259   5.164   0.987   8.773 -0.1795 -1.5323  2.1403
51647SOL     OW60260   0.385   9.915   1.811  0.8074  0.0797  0.1400
51647SOL    HW160261   0.338   9.925   1.894  0.0831  2.1219 -0.4498
51647SOL    HW260262   0.471   9.880   1.836  0.7421  0.9952  1.8217
51648SOL     OW60263   9.398  11.724   9.557 -0.2949  0.1551  0.4422
51648SOL    HW160264   9.322  11.735   9.614  0.0811 -1.8090  1.4213
51648SOL    HW260265   9.437  11.641   9.586  1.7806  0.7322 -0.5389
51649SOL     OW60266  11.709   8.268   2.540 -0.1308  0.5047  0.2479
51649SOL    HW160267  11.799   8.236   2.546 -0.8738 -1.8502  0.0268
51649SOL    HW260268  11.669   8.241   2.622 -0.9887  0.2851 -0.2314
51650SOL     OW60269   7.375   9.250   7.071 -0.0344 -0.9755  0.0710
51650SOL    HW160270   7.438   9.208   7.012 -1.1558 -1.3587 -0.9035
51650SOL    HW260271   7.379   9.197   7.151  2.0049 -0.0372  0.6426
51651SOL     OW60272   9.046  10.253  11.252 -0.0147  0.0579 -0.2353
51651SOL    HW160273   9.039  10.343  11.285 -0.3440 -0.0808  0.0918
51651SOL    HW260274   9.017  10.199  11.326  0.6687 -0.3457 -0.2602
51652SOL     OW60275   8.704   6.162   2.686  0.6598  0.0447 -0.1047
51652SOL    HW160276   8.687   6.191   2.775 -2.0941  1.3005 -0.9297
51652SOL    HW260277   8.800   6.163   2.678  0.9218  2.9923  1.8613
51653SOL     OW60278  10.294   0.876  10.440  0.0777 -0.2678 -0.2582
51653SOL    HW160279  10.313   0.890  10.532  0.1026  0.2724 -0.3441
51653SOL    HW260280  10.205   0.907  10.428 -0.3408 -1.3894 -0.1831
51654SOL     OW60281   8.943   3.510   0.327  0.2658  0.0285 -0.5780
51654SOL    HW160282   8.906   3.459   0.255  2.3839  0.6536 -2.2133
51654SOL    HW260283   8.905   3.471   0.406 -0.4456 -2.1521 -1.8973
51655SOL     OW60284   5.802  10.661   2.856 -0.2002  0.2482 -0.4253
51655SOL    HW160285   5.866  10.731   2.864  0.5209 -0.6206  2.4673
51655SOL    HW260286   5.826  10.616   2.775  1.7884  0.9725 -0.2937
51656SOL     OW60287   5.907   9.468   3.943 -0.2613  0.3924  0.4333
51656SOL    HW160288   5.936   9.490   3.855 -2.3397  1.6691 -0.0179
51656SOL    HW260289   5.831   9.411   3.929 -0.1408 -0.0280  1.4249
51657SOL     OW60290   4.609   6.721   0.430  0.6738 -0.2593 -0.1840
51657SOL    HW160291   4.630   6.698   0.521 -1.3484  1.7928  0.8940
51657SOL    HW260292   4.518   6.695   0.419 -0.1098  2.3728 -0.5234
51658SOL     OW60293   9.577   0.987   1.299 -0.0365  0.4642 -0.3454
51658SOL    HW160294   9.568   0.892   1.307  1.0565  0.2542 -1.3448
51658SOL    HW260295   9.492   1.016   1.266 -0.0707 -0.3042 -0.9596
51659SOL     OW60296   6.729   3.674   9.650 -0.6220  0.0709 -0.1915
51659SOL    HW160297   6.663   3.643   9.589 -1.2395  0.3261  0.3335
51659SOL    HW260298   6.723   3.770   9.646  0.3018  0.1102 -0.7664
51660SOL     OW60299   1.414   8.565   5.384  0.0569 -0.5146 -0.3296
51660SOL    HW160300   1.394   8.642   5.436 -2.5175 -0.7099 -0.8971
51660SOL    HW260301   1.489   8.591   5.330  2.6688 -0.2339  3.1079
51661SOL     OW60302   6.585  11.632   2.111 -0.3820 -0.4659  0.2078
51661SOL    HW160303   6.552  11.702   2.055 -1.1601 -0.6744  0.3871
51661SOL    HW260304   6.638  11.676   2.177 -0.2361 -0.1266 -0.1382
51662SOL     OW60305   5.602   1.444   5.379 -0.2275  0.1251 -0.6254
51662SOL    HW160306   5.579   1.355   5.407 -1.9271 -0.0716 -2.4446
51662SOL    HW260307   5.681   1.432   5.326 -0.2839 -0.2673 -0.6222
51663SOL     OW60308   8.261  11.055   7.823  0.2519 -0.0731  0.0138
51663SOL    HW160309   8.332  11.114   7.846  1.9228 -1.7273 -0.7103
51663SOL    HW260310   8.182  11.100   7.854  1.4080  2.5779 -0.6433
51664SOL     OW60311   2.714   5.013   5.827 -0.1926  0.4985 -0.0416
51664SOL    HW160312   2.674   5.027   5.741 -0.0652 -1.3050 -0.4235
51664SOL    HW260313   2.645   5.033   5.889 -1.7359 -2.3738 -0.6877
51665SOL     OW60314   2.535   2.590   8.780 -0.2100  0.5046 -0.8307
51665SOL    HW160315   2.576   2.524   8.723 -0.9725 -0.8546  0.1436
51665SOL    HW260316   2.549   2.673   8.734  0.6240 -0.3477 -2.1880
51666SOL     OW60317   9.070   2.164   3.328  0.5175  0.2366  0.1562
51666SOL    HW160318   9.100   2.109   3.400  0.8927 -0.4306 -0.5014
51666SOL    HW260319   9.006   2.111   3.281  2.7215 -0.7158 -2.0093
51667SOL     OW60320  11.689  10.575   7.165  0.2040  0.5908 -0.1421
51667SOL    HW160321  11.620  10.588   7.100 -1.8108 -1.7017  1.3803
51667SOL    HW260322  11.651  10.515   7.229  2.7599  1.2281  2.1568
51668SOL     OW60323   4.322   0.434  11.396  0.8043 -0.0671  0.5785
51668SOL    HW160324   4.265   0.493  11.445 -1.6226 -1.0327 -0.8888
51668SOL    HW260325   4.371   0.490  11.338 -0.0082  0.6862  0.5991
51669SOL     OW60326   5.085  10.461   0.560 -0.3911  0.2118 -0.6850
51669SOL    HW160327   5.111  10.404   0.487  1.5359  0.9682 -0.6306
51669SOL    HW260328   5.096  10.550   0.526 -3.1382  0.6573 -0.6927
51670SOL     OW60329   5.697   0.116   2.984  0.0858 -0.1474 -0.1758
51670SOL    HW160330   5.746   0.038   3.011  0.4400  0.0830 -0.1411
51670SOL    HW260331   5.710   0.179   3.055  0.8669  0.3961 -0.7751
51671SOL     OW60332   9.762   7.753   2.048  0.2372  0.7551 -0.7499
51671SOL    HW160333   9.689   7.813   2.032  1.0320  1.6869 -1.0121
51671SOL    HW260334   9.840   7.806   2.031  1.0547  0.4554  1.7653
51672SOL     OW60335   0.376   0.796   5.722 -0.0383  0.4855 -0.1235
51672SOL    HW160336   0.366   0.771   5.630 -1.2060  0.1372  0.0889
51672SOL    HW260337   0.374   0.713   5.769  0.8526  0.6410  0.2030
51673SOL     OW60338   8.726   6.882  10.670 -0.0181 -0.0385 -0.4168
51673SOL    HW160339   8.734   6.954  10.607 -2.7807  1.0152  0.2964
51673SOL    HW260340   8.704   6.806  10.617  1.2355 -0.0184 -1.0088
51674SOL     OW60341   0.270   6.795   1.974 -0.0765 -0.1857 -0.4341
51674SOL    HW160342   0.233   6.847   1.902  0.4576 -0.2672 -0.7803
51674SOL    HW260343   0.315   6.723   1.930  1.5040  0.5497 -0.1125
51675SOL     OW60344   0.085   7.087   4.569 -0.1665  0.2167 -0.3253
51675SOL    HW160345   0.067   7.176   4.598 -3.2032 -0.6641  0.9021
51675SOL    HW260346   0.038   7.078   4.486 -1.4666 -0.7040  0.4633
51676SOL     OW60347   5.330  11.385   9.373  0.3312  0.0686  0.1711
51676SOL    HW160348   5.359  11.375   9.282  1.4936  0.7087  0.4523
51676SOL    HW260349   5.386  11.326   9.423 -0.8366 -0.8895  0.4148
51677SOL     OW60350   2.031  10.793   3.945  0.1733 -0.5475 -0.0342
51677SOL    HW160351   2.000  10.703   3.957  0.3753 -0.6022  0.0759
51677SOL    HW260352   2.094  10.787   3.874  0.6253 -0.5934  0.3665
51678SOL     OW60353   6.270   7.261   0.773  0.0383 -0.1098 -0.0251
51678SOL    HW160354   6.177   7.275   0.754  0.0635 -1.1980 -1.0284
51678SOL    HW260355   6.271   7.226   0.862 -0.4675  0.3508  0.1708
51679SOL     OW60356   5.438   6.797   3.810  0.6656 -0.2471 -0.2556
51679SOL    HW160357   5.490   6.821   3.886  1.5319 -0.1243 -0.8810
51679SOL    HW260358   5.384   6.724   3.840  1.2401 -0.4138  0.3841
51680SOL     OW60359   1.757   8.770   3.188  0.2772  0.3441  0.0809
51680SOL    HW160360   1.769   8.748   3.280 -1.6311 -0.3628  0.2096
51680SOL    HW260361   1.723   8.690   3.148 -0.4118  1.0863 -0.8827
51681SOL     OW60362   7.981   7.945   8.583  0.0441  0.4236 -0.2578
51681SOL    HW160363   7.989   8.018   8.644  0.3693 -0.4044  0.7259
51681SOL    HW260364   7.895   7.956   8.543 -0.5826  0.4773  1.0543
51682SOL     OW60365   6.867   6.225  10.556  0.3636  0.3001  0.0834
51682SOL    HW160366   6.932   6.158  10.579 -0.4937 -0.7213 -0.4328
51682SOL    HW260367   6.785   6.177  10.545 -0.3830  1.5106  0.2234
51683SOL     OW60368   3.271  11.132   7.741  0.1853 -0.2139 -0.6865
51683SOL    HW160369   3.256  11.226   7.733 -1.2449 -0.3788 -0.1969
51683SOL    HW260370   3.327  11.123   7.819  1.2577  0.2880 -1.3815
51684SOL     OW60371   0.675   2.762   8.918  0.6155 -0.2625 -0.0807
51684SOL    HW160372   0.696   2.818   8.993 -1.2463  2.7121 -1.5949
51684SOL    HW260373   0.708   2.810   8.842  0.2928 -1.9983 -1.3854
51685SOL     OW60374  10.908   7.015   6.514 -0.1220  0.0377  0.5511
51685SOL    HW160375  10.998   7.040   6.537 -0.3405  1.2594  0.1528
51685SOL    HW260376  10.855   7.089   6.543 -0.8308 -0.0474 -0.5036
51686SOL     OW60377   8.984   9.595   6.603 -0.4593  0.2662 -0.9032
51686SOL    HW160378   8.976   9.500   6.593  0.2391  0.1734 -0.6285
51686SOL    HW260379   9.040   9.622   6.530  2.3898 -0.0488  0.9891
51687SOL     OW60380   2.431   3.690   1.323  0.2640  0.2955 -0.0655
51687SOL    HW160381   2.466   3.700   1.234 -0.3955  0.3221 -0.3299
51687SOL    HW260382   2.393   3.776   1.342  1.3510  0.6368  0.6752
51688SOL     OW60383   8.627   7.999   2.274 -0.0361  0.1356  0.4958
51688SOL    HW160384   8.563   8.056   2.317  3.1352  3.8962  0.8029
51688SOL    HW260385   8.674   7.957   2.347 -0.3656 -0.5456  0.3316
51689SOL     OW60386   4.999   6.759   0.184 -0.0666  0.2510  0.0352
51689SOL    HW160387   4.954   6.697   0.242 -1.1185  0.6402 -0.3300
51689SOL    HW260388   4.989   6.844   0.227  3.7083 -0.0786  1.9324
51690SOL     OW60389  11.088   7.933   5.577  0.0767  0.7509  0.0058
51690SOL    HW160390  11.137   7.919   5.496 -1.1723  1.4207 -0.8967
51690SOL    HW260391  11.134   8.006   5.620 -0.0927  1.3633 -0.8206
51691SOL     OW60392   4.676   7.199   8.499  0.1180  0.4526 -0.8354
51691SOL    HW160393   4.681   7.158   8.412 -0.4916  1.6936 -1.4803
51691SOL    HW260394   4.615   7.272   8.487  0.4553  0.9727  0.5135
51692SOL     OW60395  11.766   8.069   6.838 -0.0762  0.5535 -0.4914
51692SOL    HW160396  11.783   7.988   6.885  0.8659  1.0437  0.0538
51692SOL    HW260397  11.750   8.042   6.748 -0.8972 -0.3199 -0.1037
51693SOL     OW60398   6.252  10.020   6.610 -0.0557 -0.3745  0.1313
51693SOL    HW160399   6.256  10.094   6.670  1.4648 -0.7818  0.5781
51693SOL    HW260400   6.159   9.997   6.605 -0.2577 -0.0320  1.9497
51694SOL     OW60401   0.524   2.352   7.933  0.3736 -0.2163  0.4187
51694SOL    HW160402   0.612   2.316   7.927  0.5952  0.4783 -0.9273
51694SOL    HW260403   0.501   2.376   7.843 -1.1069 -0.1780  0.7737
51695SOL     OW60404   2.674   6.772   6.997 -0.0694 -0.1320 -0.5388
51695SOL    HW160405   2.597   6.758   6.943 -0.6603 -2.6955  0.7894
51695SOL    HW260406   2.699   6.863   6.981 -2.7960  0.5085 -1.7143
51696SOL     OW60407   4.221   6.878   2.271 -0.1081 -0.1733 -0.2694
51696SOL    HW160408   4.299   6.872   2.216  1.0045 -3.2468  1.3712
51696SOL    HW260409   4.156   6.824   2.227 -1.0051  1.4744 -1.0537
51697SOL     OW60410   6.920   5.198   4.147  0.4380  0.3216 -0.3257
51697SOL    HW160411   6.990   5.240   4.099 -1.1152  1.8586 -1.3626
51697SOL    HW260412   6.857   5.268   4.164 -0.7468 -0.9436  0.7664
51698SOL     OW60413   7.610   5.928   3.311  0.4857 -0.1000  0.4559
51698SOL    HW160414   7.636   5.986   3.383  1.8536 -1.1413  0.8650
51698SOL    HW260415   7.624   5.980   3.232 -2.2173  1.4883  0.9209
51699SOL     OW60416   4.097   7.521   9.454 -0.0354  0.0933  0.0942
51699SOL    HW160417   4.006   7.499   9.433  0.1399  0.2130 -0.8327
51699SOL    HW260418   4.146   7.442   9.432  0.5873  1.2594 -3.1859
51700SOL     OW60419   9.452   8.096   3.618 -0.5312  0.3759 -0.4657
51700SOL    HW160420   9.495   8.179   3.600  0.8046 -0.0761  0.5214
51700SOL    HW260421   9.362   8.108   3.586  0.7341  0.7104 -4.3924
51701SOL     OW60422   6.524   2.030   9.865  0.2563  0.0959 -0.5130
51701SOL    HW160423   6.466   1.987   9.928  1.1028 -0.3600 -0.0210
51701SOL    HW260424   6.480   2.019   9.781 -0.9597  0.8246 -0.0082
51702SOL     OW60425   0.696   3.546   3.713 -0.2345 -0.5477  0.2662
51702SOL    HW160426   0.646   3.574   3.636 -0.8979 -0.9066  0.5499
51702SOL    HW260427   0.639   3.482   3.756 -0.4868  0.6541  1.8111
51703SOL     OW60428   4.073   5.326   7.064  0.1951  0.2308  0.1515
51703SOL    HW160429   4.052   5.317   6.971 -0.6157  1.4640  0.1859
51703SOL    HW260430   4.064   5.238   7.100  0.7469 -0.3038 -0.9773
51704SOL     OW60431   1.641   3.768   0.200 -0.2162  0.3299  0.4170
51704SOL    HW160432   1.673   3.830   0.135 -2.3945  1.8109  0.6853
51704SOL    HW260433   1.565   3.726   0.159 -0.2644 -0.3568  1.1745
51705SOL     OW60434   7.511   6.909   7.676 -0.1066  0.2443  0.4161
51705SOL    HW160435   7.513   6.944   7.587  0.0579 -0.3878  0.1641
51705SOL    HW260436   7.478   6.819   7.665  0.9482 -0.2133  0.8606
51706SOL     OW60437   9.631   5.139   2.665  0.1519  0.0920 -0.0339
51706SOL    HW160438   9.663   5.050   2.684 -1.7408 -0.5828  0.1968
51706SOL    HW260439   9.564   5.155   2.732  1.3349  2.2307  0.7321
51707SOL     OW60440  11.266   3.475   7.721  0.5792  0.3984 -0.4196
51707SOL    HW160441  11.251   3.561   7.758 -1.0339 -0.3143  0.6883
51707SOL    HW260442  11.204   3.468   7.649 -1.0130 -0.6459  0.9594
51708SOL     OW60443   5.276   0.389   9.096 -0.1238 -0.9263 -0.1653
51708SOL    HW160444   5.317   0.405   9.011 -0.9304 -1.2406 -0.6224
51708SOL    HW260445   5.314   0.455   9.154  2.5174 -2.3978 -0.0639
51709SOL     OW60446   7.413   5.718  10.283 -0.6126  0.3272 -0.3038
51709SOL    HW160447   7.398   5.797  10.231 -0.2066  1.1545  0.7926
51709SOL    HW260448   7.330   5.704  10.329 -0.2208  1.0072  0.6436
51710SOL     OW60449   5.938  11.642   0.664 -0.3365  0.2427 -0.1513
51710SOL    HW160450   5.918  11.549   0.652  0.2998 -0.1916  1.7631
51710SOL    HW260451   5.898  11.664   0.749  1.8295  0.9573  0.7554
51711SOL     OW60452  10.458   2.891   4.324 -0.3947  0.6105  0.5309
51711SOL    HW160453  10.385   2.921   4.270 -1.6491  1.2154  2.4601
51711SOL    HW260454  10.459   2.796   4.311 -0.1499  0.8094 -1.1191
51712SOL     OW60455  10.277   5.475   4.997  0.0444 -0.1878  0.3220
51712SOL    HW160456  10.202   5.526   5.025 -0.7280 -1.0367 -0.1518
51712SOL    HW260457  10.340   5.484   5.069 -0.9346 -0.3500  1.2356
51713SOL     OW60458   5.139   7.618   7.449  0.0721  0.5506 -0.2104
51713SOL    HW160459   5.189   7.616   7.530  1.1165  1.8780 -0.7897
51713SOL    HW260460   5.049   7.599   7.475  0.6445 -0.6235  1.0206
51714SOL     OW60461   7.654   3.042   3.111 -0.6218  0.1087 -0.4518
51714SOL    HW160462   7.640   3.133   3.138  0.1488  0.1501 -0.1548
51714SOL    HW260463   7.709   3.005   3.180  0.2446 -0.1687 -1.2666
51715SOL     OW60464   2.828   0.443   7.408  0.4575  0.8481 -0.1047
51715SOL    HW160465   2.917   0.411   7.391 -0.4763 -0.9581 -2.0473
51715SOL    HW260466   2.816   0.515   7.346  0.7173  1.4546  0.5339
51716SOL     OW60467   5.350   8.821   0.561 -0.4979  0.3866  0.0715
51716SOL    HW160468   5.303   8.901   0.584  0.9497  0.7239  2.1202
51716SOL    HW260469   5.438   8.834   0.596 -0.2048 -2.1040  0.4310
51717SOL     OW60470   4.492   0.612   0.987  0.6618  0.3800 -0.4490
51717SOL    HW160471   4.551   0.622   0.912  1.8554  2.1053  0.6460
51717SOL    HW260472   4.533   0.547   1.043  1.9954  2.0811  0.6513
51718SOL     OW60473   2.806   8.126   1.648 -0.8000  0.1581  0.3717
51718SOL    HW160474   2.798   8.046   1.701 -1.2265  0.8177  1.3319
51718SOL    HW260475   2.820   8.196   1.712  0.4285  0.7601 -0.5018
51719SOL     OW60476   2.794   2.045   2.026  0.1693 -0.2435 -0.2275
51719SOL    HW160477   2.888   2.055   2.007  0.1631 -0.0769 -0.1709
51719SOL    HW260478   2.783   1.952   2.042  0.4336 -0.1811  0.3510
51720SOL     OW60479   3.823   7.335   2.425 -0.0120  0.1530  0.1419
51720SOL    HW160480   3.753   7.309   2.366  0.7521 -0.8565 -0.3598
51720SOL    HW260481   3.778   7.366   2.503 -1.0927  2.5309 -1.2941
51721SOL     OW60482   5.710   7.310   2.710  0.0138 -0.1836  0.9114
51721SOL    HW160483   5.739   7.349   2.793 -0.1198  2.0312 -0.0073
51721SOL    HW260484   5.618   7.288   2.724 -1.0768  3.4484  0.3894
51722SOL     OW60485   7.237   8.680   3.153 -0.8488  0.3126  0.3709
51722SOL    HW160486   7.226   8.751   3.091 -1.4346 -0.1403 -0.0532
51722SOL    HW260487   7.152   8.673   3.197 -1.3761 -1.2599 -0.8227
51723SOL     OW60488   8.417   4.161   5.107 -0.3807  0.1181 -0.1665
51723SOL    HW160489   8.439   4.131   5.195  0.8204  1.1209 -0.0911
51723SOL    HW260490   8.356   4.096   5.073  0.4746 -1.2132  0.7640
51724SOL     OW60491   4.975   7.229   9.480  0.1257  0.0193  0.3721
51724SOL    HW160492   4.921   7.190   9.548  0.4715 -0.2553  0.4962
51724SOL    HW260493   4.916   7.287   9.432 -0.3410 -0.4610  0.3462
51725SOL     OW60494  11.111   0.332   1.442  0.0873 -0.4768 -0.4699
51725SOL    HW160495  11.041   0.396   1.453  0.0280 -0.7989  1.2718
51725SOL    HW260496  11.186   0.383   1.413  0.3384  0.6086  1.9080
51726SOL     OW60497   5.043  11.107   0.948  0.1288 -0.1126 -0.5270
51726SOL    HW160498   5.030  11.166   0.874  1.7540 -0.0527 -0.8030
51726SOL    HW260499   5.120  11.142   0.993 -0.0454 -0.9173  0.4352
51727SOL     OW60500   4.149   6.637   5.133  0.7096  0.0510 -0.1896
51727SOL    HW160501   4.134   6.560   5.078 -2.4820  0.9512 -0.7882
51727SOL    HW260502   4.146   6.711   5.073 -0.0285  0.8627  0.7946
51728SOL     OW60503   8.257   7.663   9.216 -0.7093  0.0895  0.1477
51728SOL    HW160504   8.222   7.573   9.210 -1.2968  0.3709 -1.0744
51728SOL    HW260505   8.189   7.717   9.175 -0.2483  1.0614  0.6528
51729SOL     OW60506   0.571   4.644   4.402  0.2394 -0.5804  0.0206
51729SOL    HW160507   0.619   4.724   4.423 -0.6937  0.5111 -1.7435
51729SOL    HW260508   0.496   4.644   4.463 -0.6482  0.7879 -1.0295
51730SOL     OW60509   5.899   8.549   6.385  0.4487 -0.3665 -0.0117
51730SOL    HW160510   5.976   8.510   6.426 -0.5759 -0.2871  2.1469
51730SOL    HW260511   5.841   8.571   6.458 -0.4771  2.0962 -1.3531
51731SOL     OW60512   4.821   7.641  10.588  0.5161 -0.0633 -0.4532
51731SOL    HW160513   4.888   7.587  10.631  0.2095 -0.1127 -0.0391
51731SOL    HW260514   4.818   7.721  10.641 -0.5077 -0.4945  0.1707
51732SOL     OW60515  11.064   0.695   3.275 -0.0693  0.0260 -0.2806
51732SOL    HW160516  11.022   0.610   3.264  0.9611 -0.3426 -1.4921
51732SOL    HW260517  11.085   0.700   3.368 -1.2469 -0.5017  0.0289
51733SOL     OW60518   1.697   1.734   5.139  0.1875  0.6290 -0.0405
51733SOL    HW160519   1.710   1.753   5.045  2.0719  0.3223  0.1167
51733SOL    HW260520   1.734   1.647   5.151 -1.5961 -0.0582  0.6939
51734SOL     OW60521   0.955   8.796   4.663 -0.4656 -0.4573 -0.4515
51734SOL    HW160522   0.918   8.824   4.746 -1.6572  0.7282 -1.3380
51734SOL    HW260523   1.044   8.768   4.684  0.0232  1.8777  0.8861
51735SOL     OW60524   0.594   1.837  11.638 -0.2059  0.0502 -0.1998
51735SOL    HW160525   0.608   1.928  11.610 -0.0404  0.4436  1.1006
51735SOL    HW260526   0.522   1.842  11.700  0.3783 -0.5789  0.5418
51736SOL     OW60527   2.133   9.102   6.480  0.3238 -0.7398  0.3390
51736SOL    HW160528   2.097   9.076   6.564  1.0792  2.3684  1.7666
51736SOL    HW260529   2.224   9.127   6.499  0.2597  0.8490 -1.1792
51737SOL     OW60530   4.339   3.681   7.611 -0.5026 -0.8813  0.0405
51737SOL    HW160531   4.370   3.665   7.700  0.3714 -0.9608 -0.2700
51737SOL    HW260532   4.307   3.771   7.613  0.5274 -0.5068  0.1630
51738SOL     OW60533   1.048  10.961   6.602  0.3057  0.0893  0.0673
51738SOL    HW160534   1.123  10.976   6.544  2.0480  1.0666  2.4313
51738SOL    HW260535   1.063  10.873   6.638 -0.8416 -0.5709 -0.9705
51739SOL     OW60536   3.743   5.858   0.138 -0.0397  0.4881 -0.2205
51739SOL    HW160537   3.745   5.940   0.088 -0.7717 -0.1470 -1.3283
51739SOL    HW260538   3.722   5.791   0.073 -0.2468 -0.4776  0.8157
51740SOL     OW60539   0.278   4.976   4.950  0.3105  0.1824 -0.2934
51740SOL    HW160540   0.332   5.054   4.958  0.8268 -0.0592 -1.2428
51740SOL    HW260541   0.335   4.912   4.907  0.1986 -1.0107  1.2125
51741SOL     OW60542  11.707   8.545   6.374 -0.2267 -0.3949  0.1102
51741SOL    HW160543  11.716   8.597   6.294 -0.4327 -0.7920 -0.1721
51741SOL    HW260544  11.773   8.581   6.433 -1.6105  1.4762  0.6206
51742SOL     OW60545   3.252   8.566  11.531  0.1006 -0.7285  0.0020
51742SOL    HW160546   3.193   8.635  11.559  0.4664 -0.2377 -0.4353
51742SOL    HW260547   3.288   8.531  11.613  0.6888  0.2834  0.1792
51743SOL     OW60548   7.762   9.969   0.081  0.6606 -0.0424 -0.7329
51743SOL    HW160549   7.827   9.904   0.055  0.2417 -1.2054  0.9531
51743SOL    HW260550   7.680   9.939   0.042  0.2944 -1.0604  0.7400
51744SOL     OW60551   2.603   4.409   2.405 -0.3539 -0.1374  0.5175
51744SOL    HW160552   2.554   4.368   2.334  0.4075 -0.6597  0.2745
51744SOL    HW260553   2.636   4.491   2.369 -1.1447  0.2788  0.7237
51745SOL     OW60554  10.129   0.806   5.603 -0.5440  0.2520  0.1448
51745SOL    HW160555  10.131   0.756   5.685  0.0807  0.7236  0.4197
51745SOL    HW260556  10.139   0.897   5.630  1.3866  0.2937 -0.5602
51746SOL     OW60557   9.183   0.911   8.589  0.0994 -0.0045 -0.6369
51746SOL    HW160558   9.218   0.944   8.672  1.6799 -2.6843 -0.1141
51746SOL    HW260559   9.259   0.909   8.530 -0.0405 -2.0116 -0.8032
51747SOL     OW60560   8.714   4.462  11.554 -0.4843  0.5544  0.0225
51747SOL    HW160561   8.665   4.529  11.507 -1.9108 -0.4043  0.0991
51747SOL    HW260562   8.662   4.383  11.546  0.1831 -0.0973  1.5860
51748SOL     OW60563   4.374   9.731   5.835  0.5456  0.0462  0.1184
51748SOL    HW160564   4.461   9.692   5.822 -0.1389 -1.3705 -0.4227
51748SOL    HW260565   4.335   9.732   5.747 -1.0699 -2.0568  0.7383
51749SOL     OW60566   4.805   9.197   1.796 -0.1647  0.1356  0.0682
51749SOL    HW160567   4.872   9.128   1.789  1.0402  1.4011 -1.9228
51749SOL    HW260568   4.722   9.150   1.793  0.6203 -1.2854 -0.7109
51750SOL     OW60569   4.292   6.325   0.835 -0.2685  0.4674  0.0070
51750SOL    HW160570   4.231   6.260   0.869 -0.6371 -0.7721 -2.7993
51750SOL    HW260571   4.253   6.356   0.753  0.7673  2.9758  0.3438
51751SOL     OW60572   6.054  10.939  10.397 -0.6260  0.3809 -0.6728
51751SOL    HW160573   5.978  10.903  10.350 -0.3078 -1.2369  0.0077
51751SOL    HW260574   6.046  10.904  10.486  1.7895 -1.2077 -1.0073
51752SOL     OW60575   7.022   8.422   9.150  0.4465  0.4578  0.1016
51752SOL    HW160576   6.935   8.403   9.115  0.8225  1.0576 -1.2514
51752SOL    HW260577   7.008   8.443   9.242 -0.8707  0.7574 -0.1490
51753SOL     OW60578   6.755   5.603   8.762  0.0655  0.1356  0.4132
51753SOL    HW160579   6.667   5.565   8.754  1.1046 -2.1585 -1.2264
51753SOL    HW260580   6.800   5.575   8.683  2.1633  1.6670  0.9862
51754SOL     OW60581   2.573   3.224   5.944 -0.1423  0.0554 -0.0740
51754SOL    HW160582   2.620   3.294   5.900 -0.8501  2.6845  2.9775
51754SOL    HW260583   2.497   3.207   5.889 -0.0078  1.7827 -0.8556
51755SOL     OW60584   8.602   0.888   5.210 -0.2426  0.0056 -0.6110
51755SOL    HW160585   8.571   0.962   5.261  1.3483 -1.6181  3.0645
51755SOL    HW260586   8.698   0.895   5.214 -0.0620 -0.8015 -2.5391
51756SOL     OW60587   2.562   6.941   7.902  0.7245  0.5671 -0.0477
51756SOL    HW160588   2.467   6.957   7.895  0.4171 -0.6429  0.9747
51756SOL    HW260589   2.575   6.916   7.994  1.7140 -1.2571 -0.6470
51757SOL     OW60590   3.696   8.829   3.053 -0.5792 -0.5256 -0.3135
51757SOL    HW160591   3.717   8.797   3.141  0.2810 -0.5354 -0.5164
51757SOL    HW260592   3.695   8.751   2.999 -0.5929 -0.4572 -0.4114
51758SOL     OW60593   3.121   4.589  10.859 -0.4480 -0.2176 -0.3075
51758SOL    HW160594   3.140   4.514  10.914 -0.6181  0.1955  0.3250
51758SOL    HW260595   3.091   4.552  10.776  1.1336 -0.8716 -0.6291
51759SOL     OW60596  11.468   4.984   8.283  0.0023  0.5547 -0.5205
51759SOL    HW160597  11.420   5.038   8.345  0.1420  0.4097 -0.2850
51759SOL    HW260598  11.559   5.013   8.290 -0.1972  1.5981 -1.7658
51760SOL     OW60599   8.554   9.893   6.935 -0.0653 -0.0926  0.2798
51760SOL    HW160600   8.564   9.915   6.842  2.6100 -0.0662  0.4740
51760SOL    HW260601   8.501   9.963   6.971 -0.7528  0.1523 -1.1352
51761SOL     OW60602   6.426   7.554   0.045  0.0233  0.6761  0.7429
51761SOL    HW160603   6.436   7.514   0.131 -1.8447 -0.4771  0.4887
51761SOL    HW260604   6.359   7.621   0.056 -0.6586  0.1233  0.0938
51762SOL     OW60605   8.830   1.986   7.971  0.5900  0.1236  0.0154
51762SOL    HW160606   8.903   1.948   7.921  0.1135 -0.6152 -0.1425
51762SOL    HW260607   8.775   1.911   7.992 -0.9747  0.8613 -1.2612
51763SOL     OW60608   5.779   8.953   2.673 -0.0523 -0.2184  0.0924
51763SOL    HW160609   5.859   8.981   2.628  1.2165 -0.5459  2.0537
51763SOL    HW260610   5.809   8.901   2.747 -2.2056 -3.6997 -1.2157
51764SOL     OW60611   8.831   7.405   1.261  0.1350  0.2875  0.3526
51764SOL    HW160612   8.784   7.458   1.196  0.5403  0.7741  0.4437
51764SOL    HW260613   8.774   7.330   1.277  0.0358  0.1558 -0.5713
51765SOL     OW60614   6.101   7.674  10.225 -0.0621 -0.4272 -1.0185
51765SOL    HW160615   6.087   7.731  10.149  2.0721 -1.0667 -1.9459
51765SOL    HW260616   6.061   7.591  10.200 -2.0692  0.1989 -0.1538
51766SOL     OW60617   8.152   9.419   6.217 -0.0780  0.0628 -0.0437
51766SOL    HW160618   8.064   9.422   6.255  0.3452  1.4320  0.8908
51766SOL    HW260619   8.138   9.403   6.124 -1.2495 -0.8778  0.2699
51767SOL     OW60620   3.606   1.345  10.370 -0.0551 -0.1407  0.6059
51767SOL    HW160621   3.696   1.348  10.339 -0.3998  0.0699 -0.4306
51767SOL    HW260622   3.606   1.397  10.450  0.4720  1.0624 -0.1438
51768SOL     OW60623   0.744   3.728   9.227  0.4511  0.1980  0.1344
51768SOL    HW160624   0.815   3.746   9.166  1.1694 -0.2535  0.8288
51768SOL    HW260625   0.781   3.747   9.313 -0.1101 -0.5138  0.5408
51769SOL     OW60626   7.212   4.506   2.166  0.6641  0.1877  0.2274
51769SOL    HW160627   7.282   4.443   2.152  0.6276  0.2728 -0.3565
51769SOL    HW260628   7.182   4.529   2.078  1.0648  1.4460  0.4005
51770SOL     OW60629  10.656   3.318   6.622 -0.4143  0.4914 -0.7828
51770SOL    HW160630  10.585   3.270   6.580 -1.1255  0.3651  0.4940
51770SOL    HW260631  10.676   3.389   6.562 -3.1240  1.8354 -0.2739
51771SOL     OW60632   8.509   0.034   2.664 -0.0348  0.1152  0.8187
51771SOL    HW160633   8.559   0.063   2.588 -0.5466  0.2128  0.5116
51771SOL    HW260634   8.548   0.079   2.738  0.0859  0.4839  0.5321
51772SOL     OW60635   1.784   8.206  11.048  0.0667 -0.0741 -0.4423
51772SOL    HW160636   1.847   8.241  11.111  1.5243 -0.9568 -1.3483
51772SOL    HW260637   1.780   8.112  11.068 -0.8305 -0.0566 -0.5211
51773SOL     OW60638   2.898   5.287   9.242  0.0916 -0.5489 -0.1436
51773SOL    HW160639   2.807   5.273   9.267 -0.6226  1.5486 -1.3409
51773SOL    HW260640   2.900   5.377   9.209  2.2025 -1.1893 -1.9529
51774SOL     OW60641   2.793   6.115   2.264  0.0166  0.3108  0.1626
51774SOL    HW160642   2.841   6.156   2.192  0.5098  0.1199  0.3814
51774SOL    HW260643   2.830   6.027   2.271  0.3782  0.5215  1.0247
51775SOL     OW60644   7.951   8.078   5.583 -0.2216 -0.0393 -0.1085
51775SOL    HW160645   7.976   8.005   5.640 -0.5629 -0.6339 -0.7001
51775SOL    HW260646   7.974   8.048   5.495 -2.0464 -0.2143 -0.5706
51776SOL     OW60647   8.333  10.714   4.093 -0.5698  0.0001  0.2094
51776SOL    HW160648   8.314  10.807   4.097  0.8194  0.2590  2.0858
51776SOL    HW260649   8.415  10.707   4.046  0.3147 -0.0524  1.6885
51777SOL     OW60650   7.435   0.580  11.367 -0.3182  0.0790 -0.2318
51777SOL    HW160651   7.348   0.559  11.334 -0.4123  0.1979 -0.0612
51777SOL    HW260652   7.436   0.676  11.373 -1.0268  0.0025  2.0128
51778SOL     OW60653   2.766   6.800   7.440  0.6180  0.4502 -0.3204
51778SOL    HW160654   2.755   6.878   7.385 -0.7657 -0.9395 -2.1774
51778SOL    HW260655   2.677   6.770   7.457  1.1175 -1.0969 -0.2615
51779SOL     OW60656   7.427  10.029   2.122  0.0655  0.1655 -0.2235
51779SOL    HW160657   7.344  10.005   2.163  0.6002 -0.7071  0.3922
51779SOL    HW260658   7.431  10.124   2.129 -0.5543  0.1551  0.3852
51780SOL     OW60659   3.686   6.316   1.175  0.2256 -0.1974 -0.6266
51780SOL    HW160660   3.637   6.398   1.167  1.0669  0.4972  0.8093
51780SOL    HW260661   3.637   6.253   1.122 -1.8505  0.6215  0.2147
51781SOL     OW60662   5.956  10.009   6.595 -0.2517 -0.6285  0.2467
51781SOL    HW160663   5.902  10.064   6.538  0.5824 -0.1918 -0.1393
51781SOL    HW260664   5.950  10.050   6.681  1.2740  0.7835 -0.2650
51782SOL     OW60665   2.587   7.261   2.328  0.3663  0.3236 -0.6698
51782SOL    HW160666   2.550   7.253   2.416 -0.0538 -1.4661 -0.9571
51782SOL    HW260667   2.671   7.304   2.340  0.5933 -0.4512  0.6920
51783SOL     OW60668   9.268   9.356   4.789  0.3237 -0.1073  0.5816
51783SOL    HW160669   9.241   9.439   4.750 -1.1058  0.1934  2.0658
51783SOL    HW260670   9.318   9.312   4.721  0.4183  1.6181 -0.5208
51784SOL     OW60671   8.136   2.332   2.354 -0.4375 -0.0798  0.3213
51784SOL    HW160672   8.216   2.384   2.347 -0.2024 -0.3343  1.0426
51784SOL    HW260673   8.082   2.379   2.419 -0.5194 -0.3534  0.4542
51785SOL     OW60674   9.414   0.849   4.666  0.0404 -0.3845 -0.0438
51785SOL    HW160675   9.366   0.905   4.727  1.0071  0.4614 -0.0307
51785SOL    HW260676   9.439   0.773   4.719  1.2351  0.5378  0.7762
51786SOL     OW60677   3.369   4.752   0.218  0.1169  0.4522  0.1106
51786SOL    HW160678   3.384   4.664   0.252  0.1658  0.8797  1.2052
51786SOL    HW260679   3.285   4.779   0.255 -0.1176  0.7072 -0.5737
51787SOL     OW60680   2.980   7.679   9.737 -0.2873 -0.1576  0.3678
51787SOL    HW160681   2.938   7.622   9.673  0.0721  1.4971 -1.4031
51787SOL    HW260682   2.952   7.767   9.713  0.2993  0.5626  2.1703
51788SOL     OW60683   4.659   2.192   2.697  0.1437  0.5811  0.0570
51788SOL    HW160684   4.630   2.282   2.711 -1.2420  0.0154  1.0997
51788SOL    HW260685   4.753   2.200   2.679 -0.2875  2.3670 -1.8420
51789SOL     OW60686   3.615   8.448  10.726  0.3919  0.0908 -0.4189
51789SOL    HW160687   3.601   8.356  10.705  1.3481  0.4977 -3.3603
51789SOL    HW260688   3.545   8.494  10.679  0.1118  0.9117  0.7585
51790SOL     OW60689   0.182   6.257   9.659 -0.3496  0.0776 -0.1007
51790SOL    HW160690   0.213   6.170   9.685 -0.4891 -0.6780 -2.2425
51790SOL    HW260691   0.241   6.318   9.703 -0.1294 -1.0881  1.2956
51791SOL     OW60692  11.157   1.392   1.846 -0.6861 -0.6332  0.0791
51791SOL    HW160693  11.230   1.376   1.787  1.0653  1.6767  1.4327
51791SOL    HW260694  11.096   1.446   1.795  0.4179  0.6484  0.0456
51792SOL     OW60695   4.411   7.513   6.791  0.1601  0.3369  0.2310
51792SOL    HW160696   4.478   7.445   6.782 -1.7154 -1.6089  0.1378
51792SOL    HW260697   4.423   7.568   6.714  1.4163 -0.1834  0.0261
51793SOL     OW60698   6.482  11.526   4.336  0.3370  0.0651 -0.1313
51793SOL    HW160699   6.574  11.549   4.348  0.7286 -1.7696  0.6929
51793SOL    HW260700   6.454  11.492   4.421 -0.7379 -0.5996 -0.7225
51794SOL     OW60701   1.839   0.081   7.947 -0.4854  0.8803  0.3779
51794SOL    HW160702   1.895   0.153   7.976  0.9776 -0.2502  0.4940
51794SOL    HW260703   1.776   0.122   7.888  0.4224  2.2308  0.2951
51795SOL     OW60704   2.108   7.224   5.024 -0.4804  0.2390 -0.3322
51795SOL    HW160705   2.148   7.301   4.983  1.1013  0.6473  1.7753
51795SOL    HW260706   2.114   7.155   4.957 -1.2473  1.7018 -1.9864
51796SOL     OW60707   7.795   0.164   0.803  0.6814  0.8222  0.2614
51796SOL    HW160708   7.721   0.211   0.765  0.7827 -0.0982 -1.1359
51796SOL    HW260709   7.815   0.212   0.884  1.2883  3.6391 -1.4251
51797SOL     OW60710   5.285   1.838  11.404  0.2144 -1.0442 -0.7918
51797SOL    HW160711   5.380   1.838  11.416  0.1261 -0.6659 -0.0412
51797SOL    HW260712   5.273   1.864  11.312  0.8256 -0.7306 -0.7891
51798SOL     OW60713   9.388   3.279   0.803  0.1839 -0.1469 -0.6795
51798SOL    HW160714   9.341   3.207   0.846  2.6600 -1.3639  0.1992
51798SOL    HW260715   9.376   3.262   0.709 -1.4352 -0.1396 -0.5097
51799SOL     OW60716   0.267   7.772   0.823  0.2080  0.5515  0.4562
51799SOL    HW160717   0.201   7.702   0.821  2.2099 -1.4517  0.1391
51799SOL    HW260718   0.221   7.850   0.794 -1.9342 -0.8162 -0.0323
51800SOL     OW60719  10.573   6.966  10.759 -0.3897  0.5263 -0.4186
51800SOL    HW160720  10.620   6.926  10.833 -1.7803 -0.4262 -0.0150
51800SOL    HW260721  10.642   6.995  10.700  0.7179 -1.1666 -0.0299
51801SOL     OW60722  11.485   6.519   8.231  0.0065  0.1994 -0.7061
51801SOL    HW160723  11.429   6.595   8.246 -1.3477 -0.5152 -1.8852
51801SOL    HW260724  11.549   6.548   8.167  0.0233  0.5918 -0.5107
51802SOL     OW60725   6.118   5.562   7.013 -0.1874  0.1392  0.1203
51802SOL    HW160726   6.125   5.471   7.043 -0.8236  0.1398  0.2759
51802SOL    HW260727   6.141   5.614   7.090 -1.0009  0.1274  0.3751
51803SOL     OW60728   3.652   6.719   1.337 -0.0222 -0.1461  0.2170
51803SOL    HW160729   3.638   6.797   1.284  0.1392  0.2194  0.7070
51803SOL    HW260730   3.599   6.651   1.294 -0.9653  0.4795  0.3653
51804SOL     OW60731   1.997   5.457  11.733 -0.4560 -0.5894  0.5198
51804SOL    HW160732   1.947   5.489  11.658 -0.4919  0.1792  0.8700
51804SOL    HW260733   1.961   5.369  11.749 -0.8437 -0.5336  0.0046
51805SOL     OW60734   2.373   9.115   7.687 -0.1967 -0.2134  0.1571
51805SOL    HW160735   2.417   9.117   7.602 -2.4298 -1.0418 -1.0752
51805SOL    HW260736   2.445   9.111   7.750  1.5882  2.0542 -1.5587
51806SOL     OW60737   9.240   0.612   7.895  0.2265  0.4369  0.2757
51806SOL    HW160738   9.275   0.593   7.982  2.7473  1.0793 -0.4975
51806SOL    HW260739   9.275   0.699   7.874  2.3222 -0.9211 -2.5368
51807SOL     OW60740   9.753   4.501   9.115 -0.1403 -0.2418  0.5222
51807SOL    HW160741   9.718   4.444   9.183  0.1877 -1.1624 -0.0710
51807SOL    HW260742   9.848   4.495   9.125 -0.1019  0.4294  0.6297
51808SOL     OW60743   3.118   2.392   6.477  0.0259  0.6646  0.0817
51808SOL    HW160744   3.096   2.485   6.488  0.7819  0.7558  0.9195
51808SOL    HW260745   3.095   2.373   6.386  1.0951  2.0281 -0.5169
51809SOL     OW60746  10.273   0.040   1.264  0.0707  1.3975 -0.2819
51809SOL    HW160747  10.218   0.101   1.315  1.1977  1.7724  0.5325
51809SOL    HW260748  10.337   0.097   1.221  0.4340  0.8809 -0.4240
51810SOL     OW60749   3.960   9.429   6.773 -0.0372 -0.5970 -0.2069
51810SOL    HW160750   3.995   9.504   6.726 -1.5501  0.0698 -0.3387
51810SOL    HW260751   4.023   9.412   6.843  0.2593  0.8799 -0.0933
51811SOL     OW60752  10.810   9.563   1.370  0.0065  0.0236 -0.2381
51811SOL    HW160753  10.869   9.553   1.295 -0.0560 -1.4379 -0.1160
51811SOL    HW260754  10.814   9.478   1.415  1.5063  1.4019  2.4885
51812SOL     OW60755  10.058   1.222   5.396 -0.2655  0.3904 -0.6857
51812SOL    HW160756  10.124   1.248   5.460 -1.6266  2.0816  0.1089
51812SOL    HW260757  10.068   1.283   5.324  0.5559 -0.8421 -1.6556
51813SOL     OW60758   4.368   5.853   7.760  0.2917  0.4281 -0.2135
51813SOL    HW160759   4.442   5.793   7.762 -0.3349 -0.4262 -1.3808
51813SOL    HW260760   4.408   5.940   7.757  1.2539 -0.0097 -0.6920
51814SOL     OW60761   1.837   6.369   3.569 -0.1835 -0.3359  0.1673
51814SOL    HW160762   1.786   6.298   3.528  0.8958 -0.9934 -0.0952
51814SOL    HW260763   1.913   6.379   3.511 -1.2045  2.3569 -0.8659
51815SOL     OW60764   4.812   9.688   8.549  0.5739 -0.0342 -0.0727
51815SOL    HW160765   4.772   9.750   8.609 -1.6323 -0.8882 -0.5745
51815SOL    HW260766   4.898   9.670   8.588 -0.6659 -0.4308  2.7657
51816SOL     OW60767   6.928   9.836  10.351 -0.5521 -0.6733  0.3098
51816SOL    HW160768   6.899   9.921  10.318  0.1645 -0.9460 -1.0644
51816SOL    HW260769   6.862   9.775  10.319  0.1945 -0.9515 -0.7202
51817SOL     OW60770   3.919   6.999   1.003  0.4233  0.1021  0.3162
51817SOL    HW160771   3.981   7.056   1.048 -0.2099  0.8529  0.2519
51817SOL    HW260772   3.884   7.053   0.932  0.3015 -0.5841 -0.1608
51818SOL     OW60773  11.795   3.501   3.413  0.2247 -0.2793  0.4858
51818SOL    HW160774  11.796   3.492   3.508  0.1645 -1.6284  0.3830
51818SOL    HW260775  11.704   3.521   3.391 -0.5570 -3.3332  0.5037
51819SOL     OW60776   0.832   3.818   3.225  0.1109 -0.1751 -0.2843
51819SOL    HW160777   0.888   3.819   3.302 -0.7029  4.6899  0.6081
51819SOL    HW260778   0.746   3.791   3.258 -0.0721  1.2286  0.4886
51820SOL     OW60779   3.122   7.311   3.369  0.2488  0.3947 -0.3652
51820SOL    HW160780   3.166   7.268   3.443  0.5046  2.8391  0.9961
51820SOL    HW260781   3.039   7.265   3.361  2.0779 -3.1357 -1.8145
51821SOL     OW60782   2.603   5.666   7.707  0.1862 -0.4527  0.3113
51821SOL    HW160783   2.693   5.675   7.739  0.6727 -0.6823 -0.9412
51821SOL    HW260784   2.571   5.757   7.701  0.2101 -0.3854  1.0407
51822SOL     OW60785   3.596   5.850   5.718  0.4201 -0.2269 -0.3568
51822SOL    HW160786   3.669   5.912   5.712 -0.0272  0.2510 -0.8362
51822SOL    HW260787   3.517   5.903   5.708  0.0162 -0.8172 -0.3734
51823SOL     OW60788   7.632   5.021   8.275  0.0786  0.5522  0.1802
51823SOL    HW160789   7.682   5.102   8.268  0.2267  0.4338 -0.1505
51823SOL    HW260790   7.646   4.977   8.192  0.4465 -0.0716  0.5628
51824SOL     OW60791   0.386   5.124   7.844  0.6186 -0.5665  0.4785
51824SOL    HW160792   0.371   5.198   7.784  1.1026 -1.0645 -0.2813
51824SOL    HW260793   0.303   5.078   7.847 -0.3216  1.1004  2.5497
51825SOL     OW60794   0.455   1.100   4.449 -0.0068 -0.1818 -0.3216
51825SOL    HW160795   0.433   1.141   4.366  2.0498 -0.0383 -0.8417
51825SOL    HW260796   0.550   1.104   4.454  0.0254 -1.6375  1.3077
51826SOL     OW60797   1.132   9.649   3.455 -0.4349  0.3730 -0.0813
51826SOL    HW160798   1.185   9.585   3.407 -0.7296 -0.2421  0.3955
51826SOL    HW260799   1.059   9.597   3.490 -2.3033  1.4631 -2.1254
51827SOL     OW60800   5.576   3.333  10.587  0.2754 -0.7290  0.7681
51827SOL    HW160801   5.519   3.257  10.601  1.6436 -1.7841  0.7694
51827SOL    HW260802   5.641   3.329  10.657  0.7501  0.0862  0.3974
51828SOL     OW60803  10.857   1.607   9.257 -0.0958  0.3589 -0.0812
51828SOL    HW160804  10.784   1.596   9.318  0.6583 -1.3875  0.5472
51828SOL    HW260805  10.872   1.521   9.220  1.9775  0.5338  0.1928
51829SOL     OW60806   4.119   6.003   3.202  0.6840 -0.2674  0.3588
51829SOL    HW160807   4.106   6.070   3.135  1.7531 -0.0782  0.3234
51829SOL    HW260808   4.208   6.016   3.233  0.3409 -0.5904  1.5704
51830SOL     OW60809   7.286  10.972   6.596 -0.1022 -0.2016  0.1041
51830SOL    HW160810   7.223  10.909   6.560  0.1787 -1.0546  1.0602
51830SOL    HW260811   7.368  10.924   6.599  0.2369  0.3873  0.3659
51831SOL     OW60812   7.453   9.062   8.194 -1.1672 -0.5087  0.0452
51831SOL    HW160813   7.392   9.108   8.252 -0.8243 -0.6587  0.5341
51831SOL    HW260814   7.439   8.969   8.212 -0.2982 -0.5298  0.6979
51832SOL     OW60815   1.053   1.786   0.069  0.0041 -0.5246 -0.5482
51832SOL    HW160816   0.964   1.822   0.068  0.0958 -0.3036 -0.5971
51832SOL    HW260817   1.064   1.749  -0.019  0.6133  1.0259 -1.1588
51833SOL     OW60818  11.667   5.884   7.727 -0.9167 -0.1765 -0.2611
51833SOL    HW160819  11.733   5.905   7.793  0.3507 -1.3130 -1.1166
51833SOL    HW260820  11.692   5.938   7.651 -0.8901 -0.7047 -0.6306
51834SOL     OW60821   5.452   9.299   1.334 -0.2212  0.1006 -0.4065
51834SOL    HW160822   5.407   9.359   1.394 -0.1745  1.0927 -1.3213
51834SOL    HW260823   5.509   9.356   1.282 -1.9930 -0.3105 -3.0093
51835SOL     OW60824   4.213   4.277   2.358  0.1800  0.1311  0.0299
51835SOL    HW160825   4.285   4.336   2.376 -0.5843  0.9405  0.5385
51835SOL    HW260826   4.163   4.321   2.289 -0.4981  0.1888  0.5422
51836SOL     OW60827   8.463   1.161  10.665  0.7531  0.0693 -0.1239
51836SOL    HW160828   8.436   1.167  10.574 -0.8763 -1.2243  0.2300
51836SOL    HW260829   8.526   1.089  10.667 -0.5050 -1.0561  0.0168
51837SOL     OW60830   4.631   4.255   5.408 -0.3227  0.1214  0.4406
51837SOL    HW160831   4.586   4.271   5.491  0.4469 -2.1268  1.3705
51837SOL    HW260832   4.568   4.207   5.355  0.5016 -2.1348  1.3668
51838SOL     OW60833   3.546   0.307   7.149  0.2573 -0.5878 -0.4205
51838SOL    HW160834   3.487   0.251   7.199  0.1541 -1.4219 -1.4427
51838SOL    HW260835   3.613   0.333   7.212 -0.9237 -0.0060  0.6327
51839SOL     OW60836   1.123   5.872   4.072 -0.1550  0.5209  0.0532
51839SOL    HW160837   1.183   5.907   4.006  0.3699 -1.3305 -0.5153
51839SOL    HW260838   1.039   5.914   4.052  0.1268  0.4527 -1.4607
51840SOL     OW60839  10.138   8.577   0.181  0.0411  0.8886 -0.1349
51840SOL    HW160840  10.097   8.499   0.143 -0.6137 -0.5953  3.2471
51840SOL    HW260841  10.079   8.649   0.158  0.1835  0.3372 -2.5498
51841SOL     OW60842   4.408   3.934  10.258 -0.6190  0.6375 -0.3612
51841SOL    HW160843   4.368   3.859  10.214  1.1238 -1.1396  0.9015
51841SOL    HW260844   4.489   3.950  10.210 -0.9508  1.7012 -0.5883
51842SOL     OW60845   4.293   3.980   7.626 -0.4271 -0.2999 -0.4967
51842SOL    HW160846   4.378   3.962   7.665  0.0529 -1.5759 -1.9958
51842SOL    HW260847   4.241   4.016   7.697  1.5049  1.0277  0.3264
51843SOL     OW60848   0.724   5.520   9.039  0.0822  0.0309  0.2204
51843SOL    HW160849   0.705   5.603   8.995 -0.0654 -0.1686 -0.0975
51843SOL    HW260850   0.738   5.544   9.131  0.5793  0.4755  0.0356
51844SOL     OW60851   5.492   4.148   3.733 -0.1788  0.0128  0.0756
51844SOL    HW160852   5.586   4.156   3.714 -0.2825  2.1403  0.1946
51844SOL    HW260853   5.449   4.184   3.655 -0.7971  1.2577  0.9498
51845SOL     OW60854   2.779   8.874   4.852 -0.2975  0.3410 -0.0193
51845SOL    HW160855   2.873   8.856   4.852 -0.0042  1.6295  1.4956
51845SOL    HW260856   2.762   8.910   4.939 -2.1474  0.4331 -0.3812
51846SOL     OW60857   8.006   8.931   1.213 -0.1614  0.3110 -0.3378
51846SOL    HW160858   7.947   8.989   1.164 -1.7972 -1.4387 -0.5312
51846SOL    HW260859   7.950   8.859   1.242  1.4874 -0.3895  1.2538
51847SOL     OW60860   8.883   6.016   6.682  0.2855  0.1016  0.0371
51847SOL    HW160861   8.964   6.001   6.633  0.7853  1.4998  0.3876
51847SOL    HW260862   8.877   5.942   6.742  2.6834  1.1830  1.7924
51848SOL     OW60863   2.259   0.560   6.396  0.0079  0.3236 -0.1016
51848SOL    HW160864   2.343   0.593   6.427 -0.6494  1.8004  0.1985
51848SOL    HW260865   2.281   0.502   6.323  1.3020  0.3206  0.2701
51849SOL     OW60866  11.608   5.083   6.315 -0.1186 -0.0236  0.3710
51849SOL    HW160867  11.597   5.030   6.394 -1.7385 -0.7158 -0.2705
51849SOL    HW260868  11.641   5.022   6.249  0.0886  0.2707  0.2008
51850SOL     OW60869   0.110   9.281   0.263 -0.3955 -0.3009  0.4415
51850SOL    HW160870   0.089   9.273   0.356  0.4450  0.1513  0.6778
51850SOL    HW260871   0.123   9.191   0.233  1.9250 -0.3400  1.3954
51851SOL     OW60872   9.981   7.144   8.649  0.1675  0.0942 -0.0702
51851SOL    HW160873  10.046   7.146   8.579  0.3689 -2.7320 -0.0433
51851SOL    HW260874   9.929   7.066   8.632 -1.7352  1.0073  1.2587
51852SOL     OW60875   9.593  11.515  10.393 -0.7850  0.0030  0.0436
51852SOL    HW160876   9.498  11.514  10.405 -0.8105  1.8186  0.3274
51852SOL    HW260877   9.607  11.574  10.319  0.2008  1.6870  1.4881
51853SOL     OW60878   1.896   1.971   2.133 -0.6618  0.3070  0.5165
51853SOL    HW160879   1.859   2.011   2.212 -0.6139 -0.0673  0.7338
51853SOL    HW260880   1.975   2.021   2.116 -0.2232 -0.1318  1.1991
51854SOL     OW60881   6.566   3.552   7.734 -0.8190 -0.2753  0.0402
51854SOL    HW160882   6.509   3.584   7.663  0.5796 -1.0041 -1.4818
51854SOL    HW260883   6.596   3.632   7.777 -0.1246  0.3375 -1.4846
51855SOL     OW60884  11.372   5.003   8.893 -0.3474 -0.4805  0.7691
51855SOL    HW160885  11.329   4.920   8.872 -0.5077 -0.5068  1.1957
51855SOL    HW260886  11.433   4.981   8.963 -1.3083 -0.0028  1.7880
51856SOL     OW60887   0.997   3.952   6.134  0.2690 -0.1646 -0.1161
51856SOL    HW160888   0.956   3.876   6.092 -0.0905 -1.0370  1.6825
51856SOL    HW260889   1.007   3.925   6.226  0.4591  1.8411  0.4939
51857SOL     OW60890  10.281   5.085   2.800 -0.0223  0.1062 -0.5297
51857SOL    HW160891  10.280   5.169   2.753  0.7639  0.7776  0.5869
51857SOL    HW260892  10.222   5.099   2.875  1.0882  0.1319  0.3742
51858SOL     OW60893   0.368   1.937   7.102 -0.3102 -0.0253 -0.4583
51858SOL    HW160894   0.448   1.988   7.117 -0.5593 -0.1574  1.6285
51858SOL    HW260895   0.297   2.001   7.109 -0.4259  0.1048 -2.3825
51859SOL     OW60896   4.489   4.469   4.536 -0.3763  0.0329  0.2592
51859SOL    HW160897   4.439   4.550   4.528 -1.2190 -0.5118 -0.1527
51859SOL    HW260898   4.477   4.425   4.452  0.7078 -0.1663  0.1996
51860SOL     OW60899  10.468   1.679   3.886 -0.0779  0.0140  0.0721
51860SOL    HW160900  10.378   1.668   3.918  0.0334  0.6394  0.6184
51860SOL    HW260901  10.462   1.750   3.822 -0.3189 -1.3022 -1.4378
51861SOL     OW60902   0.272   8.209   1.894 -0.1414  0.2802  0.2198
51861SOL    HW160903   0.217   8.221   1.817 -0.2294  0.6735  0.3415
51861SOL    HW260904   0.278   8.114   1.905  1.8307  0.1093 -1.6773
51862SOL     OW60905   2.330   7.442   5.453  0.0560  0.2224 -0.0332
51862SOL    HW160906   2.372   7.366   5.494  1.9181  1.5902  0.7269
51862SOL    HW260907   2.237   7.421   5.453  0.6137 -2.9540 -1.7249
51863SOL     OW60908   8.617   2.986   0.436 -0.0123  0.6112  0.0755
51863SOL    HW160909   8.597   2.913   0.377  3.8963  0.6617 -1.5613
51863SOL    HW260910   8.684   2.951   0.495  1.1572  2.5244 -0.0395
51864SOL     OW60911   6.291   4.078   5.538  0.0117 -0.0810 -0.4706
51864SOL    HW160912   6.206   4.036   5.546 -0.1164  0.2173 -0.2367
51864SOL    HW260913   6.273   4.165   5.502  0.3080 -0.3418 -1.2563
51865SOL     OW60914   4.003  10.525  10.130  0.2946  0.0630 -0.2738
51865SOL    HW160915   3.999  10.617  10.107  0.3517  0.1186 -0.0632
51865SOL    HW260916   3.911  10.498  10.139  0.2881  0.2184  0.1338
51866SOL     OW60917  11.748   3.739   0.460  0.0007  0.0728  0.3165
51866SOL    HW160918  11.702   3.681   0.400 -1.8444 -1.2599  2.8325
51866SOL    HW260919  11.811   3.682   0.505  1.7583  1.1574 -0.6549
51867SOL     OW60920  11.430   4.821   5.762  0.3423  0.0384  0.0913
51867SOL    HW160921  11.503   4.810   5.700 -0.6188  1.1088 -1.2961
51867SOL    HW260922  11.413   4.916   5.762 -0.5019 -0.0940  1.0531
51868SOL     OW60923   7.122   2.759   3.238 -0.0290  0.2069  0.2108
51868SOL    HW160924   7.121   2.670   3.274  1.4735  0.1524  0.1809
51868SOL    HW260925   7.213   2.786   3.246 -0.2217  1.2568 -0.9999
51869SOL     OW60926   1.261   1.314   5.434  0.0599  0.7961  0.1017
51869SOL    HW160927   1.342   1.264   5.424  0.0251  0.6563  0.4745
51869SOL    HW260928   1.203   1.256   5.484 -1.3074 -0.2419 -2.5013
51870SOL     OW60929   8.268   6.735   9.774 -0.2685 -0.5012 -0.1269
51870SOL    HW160930   8.298   6.647   9.751 -0.9936 -0.3176 -2.0050
51870SOL    HW260931   8.176   6.724   9.795  0.0180 -0.4068  1.2669
51871SOL     OW60932   0.264   2.044   8.848 -0.0957  0.2748  0.0814
51871SOL    HW160933   0.326   1.972   8.860 -1.5664 -0.9772  0.4639
51871SOL    HW260934   0.243   2.073   8.936 -0.1758  0.5849 -0.0376
51872SOL     OW60935   1.977   3.391   2.274  0.1011 -0.4538  0.0581
51872SOL    HW160936   1.892   3.421   2.307  0.1229 -1.3469  1.0125
51872SOL    HW260937   1.997   3.314   2.328  1.2016 -0.6574 -0.6094
51873SOL     OW60938   8.476   8.471   7.844 -0.8184  0.1717 -0.3404
51873SOL    HW160939   8.477   8.455   7.749 -0.2332 -0.1524 -0.2834
51873SOL    HW260940   8.566   8.494   7.866 -0.8908 -0.0253  0.1818
51874SOL     OW60941   9.067   9.118   7.863 -0.5766 -0.0699  0.1268
51874SOL    HW160942   9.130   9.110   7.792 -1.1859 -0.9683 -0.3405
51874SOL    HW260943   9.005   9.046   7.848 -1.3707  0.4279  0.9054
51875SOL     OW60944   2.809   5.595   5.042 -0.1150  0.0332 -0.0249
51875SOL    HW160945   2.836   5.504   5.042  0.3936  0.1799 -0.4775
51875SOL    HW260946   2.871   5.639   4.983  1.2826  1.1450  2.1235
51876SOL     OW60947  10.828   9.778   3.674  0.3360  0.0993 -0.1046
51876SOL    HW160948  10.805   9.686   3.687 -0.2144  0.3994  1.1847
51876SOL    HW260949  10.788   9.800   3.590 -1.1503 -0.3514  0.4476
51877SOL     OW60950   0.019   9.681   8.801  0.2016  0.0637  0.2715
51877SOL    HW160951  -0.065   9.711   8.766 -0.3853 -3.2918 -1.5811
51877SOL    HW260952   0.003   9.591   8.828  2.8061 -0.0828  1.6444
51878SOL     OW60953   8.319   3.546   5.892 -0.2008  0.6162  0.0042
51878SOL    HW160954   8.271   3.501   5.961  0.5551  1.3049  1.0226
51878SOL    HW260955   8.411   3.525   5.909 -0.0400  0.4072 -1.0894
51879SOL     OW60956   8.398   8.132   0.301  0.6089 -0.3912 -0.2238
51879SOL    HW160957   8.361   8.211   0.262 -0.1686 -1.5407 -1.8881
51879SOL    HW260958   8.331   8.065   0.291  1.1027 -1.2181  1.4952
51880SOL     OW60959   5.948   6.239   2.773 -0.7157  0.1319 -0.2499
51880SOL    HW160960   5.950   6.254   2.868  1.4199 -0.8426 -0.0688
51880SOL    HW260961   5.961   6.325   2.735  2.4796  0.1446  0.5285
51881SOL     OW60962   6.433   7.266   6.726 -0.8067  0.3736 -0.3788
51881SOL    HW160963   6.517   7.279   6.682 -1.1940 -0.5370 -1.4315
51881SOL    HW260964   6.448   7.193   6.787 -0.7062  0.5517 -0.1881
51882SOL     OW60965   2.547   0.589   9.342 -0.4272 -0.5075  0.6346
51882SOL    HW160966   2.469   0.596   9.287 -0.5595 -1.2850  0.7190
51882SOL    HW260967   2.525   0.640   9.421  0.0382  1.2381 -0.3072
51883SOL     OW60968   3.157   6.158   1.900 -0.4180  0.3519 -0.1817
51883SOL    HW160969   3.246   6.128   1.913 -0.4981  1.0669  2.5177
51883SOL    HW260970   3.117   6.091   1.844  0.9533 -1.5602  1.0399
51884SOL     OW60971   5.838  10.070   4.446 -0.2842 -0.3851 -0.1875
51884SOL    HW160972   5.871   9.998   4.392  0.1597  0.8133 -1.5602
51884SOL    HW260973   5.809  10.027   4.527 -3.2009 -2.6143 -2.1844
51885SOL     OW60974   5.313   7.765   7.313 -0.4271 -0.4263  0.0515
51885SOL    HW160975   5.241   7.727   7.364 -0.7618 -1.6566 -1.2626
51885SOL    HW260976   5.353   7.690   7.270  0.9862  0.3797 -0.0756
51886SOL     OW60977   4.944   2.409   4.666  0.0336  0.0797  0.2907
51886SOL    HW160978   4.976   2.319   4.675  0.0580  0.0494 -0.0951
51886SOL    HW260979   4.929   2.438   4.756  0.2327 -0.2357  0.4273
51887SOL     OW60980   9.299   3.551   7.425  0.1847  0.2676  0.4522
51887SOL    HW160981   9.264   3.639   7.417 -1.3314 -0.2088  1.2628
51887SOL    HW260982   9.322   3.525   7.336 -1.6880  0.5992 -0.1813
51888SOL     OW60983   6.431   0.651   0.107  0.2386 -0.0291  0.1858
51888SOL    HW160984   6.336   0.637   0.104  0.1896  0.4262 -2.1567
51888SOL    HW260985   6.446   0.696   0.190 -1.1982 -2.4906  1.9476
51889SOL     OW60986   5.769  11.651   8.342 -0.2452  0.2960 -0.5602
51889SOL    HW160987   5.728  11.716   8.399  2.5230  1.6744  0.0341
51889SOL    HW260988   5.863  11.663   8.356  0.4304 -3.9263 -0.4009
51890SOL     OW60989   8.161   0.771   5.177 -0.0459 -0.1536  0.0083
51890SOL    HW160990   8.087   0.779   5.118  1.0051  0.3625 -1.3011
51890SOL    HW260991   8.237   0.759   5.120  0.9715 -0.0316  1.2668
51891SOL     OW60992   2.986   4.635   1.654 -0.4097  0.0078  0.5478
51891SOL    HW160993   2.979   4.669   1.743  1.0064  0.7570  0.3946
51891SOL    HW260994   3.068   4.671   1.620 -0.9067 -0.2761 -1.0590
51892SOL     OW60995   8.159   8.270  10.114 -0.3129  0.2376  0.3448
51892SOL    HW160996   8.075   8.300  10.080  0.6452  1.5710 -1.0083
51892SOL    HW260997   8.224   8.311  10.056  1.2135 -2.7846 -0.2715
51893SOL     OW60998   4.267  10.201   7.568  0.0388 -0.3397 -0.1739
51893SOL    HW160999   4.285  10.150   7.646  0.0474 -0.2803 -0.1365
51893SOL    HW261000   4.312  10.284   7.583 -1.6128  0.4476  0.6506
51894SOL     OW61001   7.028   9.073  10.992 -0.4151  0.2581 -0.3416
51894SOL    HW161002   7.012   8.979  10.990  0.5306  0.0815  0.0521
51894SOL    HW261003   7.061   9.095  10.905  0.2617  0.0513 -0.1430
51895SOL     OW61004   4.741   1.137   0.803 -0.0542  0.1957  0.0501
51895SOL    HW161005   4.652   1.144   0.838  1.1282  1.1443  3.2373
51895SOL    HW261006   4.777   1.226   0.809  1.7884 -0.5451  1.0052
51896SOL     OW61007   0.971   4.404   8.036  0.1023  0.1130 -0.5416
51896SOL    HW161008   1.015   4.453   8.105 -1.3598  0.2243  0.3405
51896SOL    HW261009   0.951   4.319   8.075 -0.4595  0.0580 -0.9421
51897SOL     OW61010   9.578  10.457   7.196 -0.6422  0.4099  0.5131
51897SOL    HW161011   9.602  10.377   7.150  0.4492  0.0352  1.6652
51897SOL    HW261012   9.484  10.448   7.212 -0.8031  0.0039 -0.5410
51898SOL     OW61013   7.266   5.408   5.332 -0.4979 -0.4853 -0.1779
51898SOL    HW161014   7.256   5.317   5.360 -0.1922 -0.0836  1.3419
51898SOL    HW261015   7.360   5.426   5.341 -0.4038 -0.3037 -1.4189
51899SOL     OW61016   0.894  10.943   0.412 -0.2838 -0.4499  0.5212
51899SOL    HW161017   0.983  10.923   0.384 -0.3465 -0.1219  0.0718
51899SOL    HW261018   0.852  10.857   0.423 -1.0318 -0.6891 -2.9416
51900SOL     OW61019   9.481  11.278   0.990  0.8010  0.3363  0.0337
51900SOL    HW161020   9.447  11.363   0.961  0.8766 -0.4346 -2.5495
51900SOL    HW261021   9.568  11.273   0.952  1.5517 -0.1740  1.7168
51901SOL     OW61022   6.767   6.363   8.597 -0.3637 -0.1620  0.0037
51901SOL    HW161023   6.740   6.273   8.612 -0.0130 -0.3683 -0.5873
51901SOL    HW261024   6.694   6.403   8.550 -0.5029 -0.1478  0.2327
51902SOL     OW61025  11.096   9.049   8.572 -0.5396  0.0604  0.5266
51902SOL    HW161026  11.182   9.008   8.562 -1.6467 -2.0007 -1.2090
51902SOL    HW261027  11.038   8.998   8.517 -3.0773  0.9625  2.1850
51903SOL     OW61028   5.180  10.062   2.935  0.0090 -0.2270 -0.0648
51903SOL    HW161029   5.226   9.982   2.958 -1.8077 -1.3788 -0.2555
51903SOL    HW261030   5.170  10.109   3.018  2.7665  0.8271 -0.2152
51904SOL     OW61031   7.744   5.112   1.035  0.3610  0.1991 -0.6666
51904SOL    HW161032   7.734   5.022   1.066  1.1030  0.9043  1.8476
51904SOL    HW261033   7.673   5.123   0.971 -0.0606 -1.9755 -0.6563
51905SOL     OW61034   6.472   5.680   1.024  0.3134  0.5105  0.3026
51905SOL    HW161035   6.560   5.716   1.038 -0.5527  2.2783  1.5589
51905SOL    HW261036   6.416   5.756   1.015 -0.9685 -0.5827 -1.8025
51906SOL     OW61037  11.385   1.156   5.617 -0.3562 -0.0066 -0.5488
51906SOL    HW161038  11.405   1.076   5.567  0.9884 -1.6813  2.3829
51906SOL    HW261039  11.316   1.129   5.678  0.2865  0.9500  0.6501
51907SOL     OW61040   8.374   9.656   1.742 -0.3975  0.1889 -0.1662
51907SOL    HW161041   8.368   9.719   1.670  1.9926 -0.1012 -0.6899
51907SOL    HW261042   8.468   9.646   1.758 -0.7467 -2.3148  0.7514
51908SOL     OW61043   8.417   5.838   0.163  0.0033 -0.0186  0.2831
51908SOL    HW161044   8.406   5.927   0.195 -0.9518  0.1770 -0.5151
51908SOL    HW261045   8.511   5.829   0.148  0.0286  1.1342 -0.3892
51909SOL     OW61046   2.923   0.381   3.945 -0.3318  0.2589 -0.1690
51909SOL    HW161047   3.013   0.412   3.947 -0.2335 -0.0577  0.6798
51909SOL    HW261048   2.874   0.446   3.995 -0.6242  0.5521 -0.8212
51910SOL     OW61049   1.621   0.870   0.229 -0.4717  0.2345 -0.1892
51910SOL    HW161050   1.533   0.850   0.259  0.1276  0.0099  1.5031
51910SOL    HW261051   1.670   0.891   0.308  0.7528  1.3591 -1.1846
51911SOL     OW61052   1.683   6.560   3.714 -0.4634 -0.2145 -0.4658
51911SOL    HW161053   1.749   6.627   3.695  0.0907  0.3111  2.7079
51911SOL    HW261054   1.705   6.487   3.657  0.1602  1.5463 -2.5847
51912SOL     OW61055   9.380  10.211   9.603  0.3848  0.3009 -0.1866
51912SOL    HW161056   9.361  10.262   9.524 -0.0779  1.8250  0.8573
51912SOL    HW261057   9.463  10.246   9.635  0.4374 -0.1202  0.1494
51913SOL     OW61058   5.312   2.558   1.942  0.4392  0.0303 -0.0753
51913SOL    HW161059   5.333   2.646   1.909  2.3830  0.0417  1.0584
51913SOL    HW261060   5.252   2.573   2.015  2.7130  0.6860  1.7624
51914SOL     OW61061   0.964  10.779   2.739  0.2748 -0.0533 -0.3381
51914SOL    HW161062   1.024  10.847   2.770  2.2451 -0.4814 -2.9044
51914SOL    HW261063   0.878  10.821   2.741  0.7301  0.9103  2.5277
51915SOL     OW61064   7.891   4.123   4.618  0.0367  0.0524  0.1641
51915SOL    HW161065   7.945   4.112   4.540  0.6202 -0.2925  0.6087
51915SOL    HW261066   7.879   4.034   4.652 -0.8848  0.1137  0.0312
51916SOL     OW61067   4.372   8.079   1.128  0.3306 -0.2590 -0.0136
51916SOL    HW161068   4.357   8.168   1.095 -1.6033 -0.8703 -0.8830
51916SOL    HW261069   4.425   8.038   1.061 -1.1824 -0.6091 -1.0360
51917SOL     OW61070   9.472   1.086   6.341 -0.1970 -0.2202  0.1907
51917SOL    HW161071   9.415   1.043   6.277  0.0037  0.1127 -0.2229
51917SOL    HW261072   9.483   1.022   6.411 -0.4383 -0.5856 -0.1035
51918SOL     OW61073  10.277  11.133   2.694  0.2482  0.1332  0.4595
51918SOL    HW161074  10.217  11.207   2.700  0.8450  0.6885 -0.4219
51918SOL    HW261075  10.219  11.056   2.689 -0.4051  0.6927 -0.8509
51919SOL     OW61076   2.728   2.847   9.966 -0.1188  0.3968  0.0084
51919SOL    HW161077   2.720   2.904   9.889  0.8715  0.2727 -0.2012
51919SOL    HW261078   2.647   2.797   9.967 -0.1531  0.4064 -0.9596
51920SOL     OW61079   6.635  11.082   8.759 -0.6894 -0.5005  0.3568
51920SOL    HW161080   6.709  11.092   8.818  0.2264 -0.0323 -0.8226
51920SOL    HW261081   6.661  11.012   8.699 -1.5144 -0.8336  0.3712
51921SOL     OW61082   1.087   1.411   6.737 -0.2293 -0.0976  0.5055
51921SOL    HW161083   1.006   1.361   6.732  0.0445 -0.5465  0.4366
51921SOL    HW261084   1.093   1.456   6.653  1.7871 -3.5642 -1.5005
51922SOL     OW61085   7.522  10.336   5.072 -0.7943  0.6136  0.0055
51922SOL    HW161086   7.469  10.330   5.151  0.2268  0.9881  0.7369
51922SOL    HW261087   7.466  10.381   5.008 -1.8820 -0.3330  0.2719
51923SOL     OW61088   1.734   4.603   0.585 -0.5161 -0.1789  0.2358
51923SOL    HW161089   1.724   4.654   0.665 -0.8938 -0.8809  0.6416
51923SOL    HW261090   1.661   4.541   0.586 -0.2116 -0.5612 -0.3749
51924SOL     OW61091   4.445   7.520   7.573  0.4540 -0.3726 -0.6478
51924SOL    HW161092   4.411   7.545   7.487  0.5410 -0.4076 -0.6918
51924SOL    HW261093   4.537   7.498   7.558  0.4391 -0.4917 -0.5659
51925SOL     OW61094  11.422   9.174   9.695  0.2745 -0.5509  0.4280
51925SOL    HW161095  11.421   9.209   9.784  1.1123 -1.1974  0.7073
51925SOL    HW261096  11.479   9.232   9.646 -0.3339 -0.0870  0.2562
51926SOL     OW61097   6.815  11.798   9.605 -0.1583  0.2829  0.1778
51926SOL    HW161098   6.781  11.827   9.690  1.6913 -0.0280  1.0753
51926SOL    HW261099   6.891  11.744   9.627  0.6011  0.5202 -1.6992
51927SOL     OW61100   9.554  10.475   6.866 -0.9568  0.4826  0.3619
51927SOL    HW161101   9.490  10.485   6.795 -0.4019  0.8471 -0.1030
51927SOL    HW261102   9.509  10.424   6.933 -0.7802 -1.8627 -1.1866
51928SOL     OW61103   6.487   0.539   5.489 -0.2381  0.0565 -0.1105
51928SOL    HW161104   6.408   0.485   5.484  0.3246 -0.8421  0.3574
51928SOL    HW261105   6.507   0.544   5.582  0.4138  0.0273 -0.2402
51929SOL     OW61106   4.304   2.644  10.686 -0.0616 -0.2563 -0.4670
51929SOL    HW161107   4.334   2.686  10.767 -2.2179 -3.1717  2.0792
51929SOL    HW261108   4.223   2.689  10.664  1.0095  1.1750 -1.6696
51930SOL     OW61109   6.558   1.577   7.248  0.9137  0.3657 -0.7796
51930SOL    HW161110   6.651   1.596   7.257  0.8609  0.4918 -0.4621
51930SOL    HW261111   6.520   1.605   7.332  0.7373 -0.5715 -0.5375
51931SOL     OW61112   9.376   3.196  11.261 -0.4561 -0.1730 -0.4391
51931SOL    HW161113   9.420   3.121  11.221 -1.0525 -0.4183 -0.6370
51931SOL    HW261114   9.301   3.159  11.307 -0.3639  0.2251  0.0558
51932SOL     OW61115   1.540   6.846   1.206 -0.2849 -0.2329 -0.3694
51932SOL    HW161116   1.601   6.830   1.279 -0.3267 -0.5476 -0.4045
51932SOL    HW261117   1.570   6.787   1.137 -0.6785 -0.4462 -0.3594
51933SOL     OW61118   7.047   5.610   0.564 -0.4254 -0.3585 -0.3194
51933SOL    HW161119   6.991   5.685   0.584 -1.2632 -0.8360 -0.7901
51933SOL    HW261120   7.112   5.644   0.503 -0.2793  0.1781  0.1314
51934SOL     OW61121   9.115   8.654   5.905 -0.7211 -0.4299  0.3803
51934SOL    HW161122   9.061   8.583   5.870 -0.2384 -0.5456 -0.1436
51934SOL    HW261123   9.165   8.686   5.830 -0.6349  0.1998  0.6956
51935SOL     OW61124   4.210   0.639   1.028 -0.0648  0.2671  0.0870
51935SOL    HW161125   4.207   0.599   1.115  0.8232 -1.5642 -0.6542
51935SOL    HW261126   4.304   0.640   1.006 -0.2840  0.6161 -0.8687
51936SOL     OW61127   5.168   3.090   6.003 -0.1853  0.1452 -0.1006
51936SOL    HW161128   5.094   3.122   6.054  0.3102  0.2451  0.5623
51936SOL    HW261129   5.131   3.071   5.916 -0.6354  1.8938 -0.3371
51937SOL     OW61130   4.948  10.813   2.854  0.0080  0.4825 -0.0491
51937SOL    HW161131   4.950  10.752   2.928 -0.5136  1.2385  0.6034
51937SOL    HW261132   4.937  10.899   2.894 -0.3187  0.8967 -1.0091
51938SOL     OW61133   8.102   1.797   6.764 -0.0687 -0.4644 -1.0101
51938SOL    HW161134   8.091   1.702   6.767 -2.2909 -0.3030 -2.0593
51938SOL    HW261135   8.178   1.811   6.707  0.9318 -1.5858 -0.0100
51939SOL     OW61136  10.904   4.807   0.014 -0.2508  0.2599 -0.3709
51939SOL    HW161137  10.951   4.891   0.009 -0.2581  0.2656 -0.3473
51939SOL    HW261138  10.878   4.801   0.106  0.8518 -0.3611 -0.0831
51940SOL     OW61139   5.486  10.543   4.718  0.0215  0.5411 -0.7746
51940SOL    HW161140   5.574  10.564   4.686  1.1091  0.4341  1.9008
51940SOL    HW261141   5.484  10.578   4.807 -1.2174 -2.7870  0.6769
51941SOL     OW61142   2.015   2.136   5.878  0.1349  0.0061  0.9532
51941SOL    HW161143   1.974   2.204   5.825 -1.0698 -0.2269  1.5568
51941SOL    HW261144   1.992   2.158   5.968 -1.0728 -1.6850  1.1094
51942SOL     OW61145   2.383   5.255   7.608  0.2127 -0.1851  0.0100
51942SOL    HW161146   2.420   5.262   7.520 -0.6961  1.8857 -0.2811
51942SOL    HW261147   2.362   5.346   7.631 -0.0868 -0.7569  2.1451
51943SOL     OW61148   6.066   7.486   6.241 -0.5012 -0.4648  0.1783
51943SOL    HW161149   6.055   7.447   6.154  0.2227 -2.2997  0.8618
51943SOL    HW261150   6.159   7.478   6.259 -0.8559 -1.6552  1.7616
51944SOL     OW61151   3.988   7.838   7.840 -0.2942  0.3036  0.5167
51944SOL    HW161152   3.958   7.925   7.868  0.3200  0.6178  0.2070
51944SOL    HW261153   4.055   7.815   7.903 -1.1723 -0.4087  1.2165
51945SOL     OW61154   9.339  10.560   4.521  0.3940 -0.1979  0.2677
51945SOL    HW161155   9.279  10.555   4.446  2.0170 -0.2667 -1.0918
51945SOL    HW261156   9.410  10.617   4.491  0.8362  0.1889  1.9662
51946SOL     OW61157  11.422   1.622   9.544 -0.8954  0.2599  0.1961
51946SOL    HW161158  11.327   1.632   9.540 -0.8456  0.4402 -0.9919
51946SOL    HW261159  11.451   1.691   9.604 -1.4575  0.6438  0.0385
51947SOL     OW61160   4.861   7.845   9.467  0.3962 -0.3698  0.6029
51947SOL    HW161161   4.918   7.771   9.449  0.2361 -0.2516 -0.4954
51947SOL    HW261162   4.773   7.807   9.469  0.4629 -0.5085  2.0242
51948SOL     OW61163   6.271   8.190  11.825 -0.1029 -0.2673  0.1753
51948SOL    HW161164   6.198   8.163  11.881  0.6835  0.5126  1.6106
51948SOL    HW261165   6.229   8.214  11.742 -1.4988  0.3099  1.0216
51949SOL     OW61166   3.344   9.707   5.697 -0.5197 -0.2498 -0.4228
51949SOL    HW161167   3.370   9.654   5.771  0.2996  1.7049  0.7679
51949SOL    HW261168   3.252   9.728   5.713 -0.0820  1.0015  0.6397
51950SOL     OW61169   6.291   2.478   8.986 -0.0337 -0.0579 -0.1718
51950SOL    HW161170   6.364   2.521   9.031 -0.2026 -0.4521  0.4926
51950SOL    HW261171   6.252   2.421   9.053 -0.5415 -0.3464 -0.7087
51951SOL     OW61172  11.798   9.902   3.885  0.1718  0.1772 -0.0001
51951SOL    HW161173  11.733   9.903   3.814 -0.4402  1.2720  0.5584
51951SOL    HW261174  11.882   9.915   3.840 -0.0740 -0.3649 -0.6388
51952SOL     OW61175  11.712   3.466  11.709 -1.2346  0.0097 -0.5815
51952SOL    HW161176  11.775   3.397  11.733 -0.6506  0.3972 -0.9907
51952SOL    HW261177  11.674   3.493  11.793 -0.6703 -0.0517 -0.2972
51953SOL     OW61178  10.063   3.221   3.940  0.9585 -0.0134  0.1344
51953SOL    HW161179  10.107   3.142   3.971  0.0319  0.0598  1.7701
51953SOL    HW261180  10.129   3.290   3.950  0.9022 -0.1179  1.3587
51954SOL     OW61181   7.736   3.094   3.785 -0.2137  0.0405 -0.4249
51954SOL    HW161182   7.811   3.153   3.781 -0.2056 -0.0403 -1.6936
51954SOL    HW261183   7.719   3.083   3.879  0.4740  1.1735 -0.1528
51955SOL     OW61184   8.798  11.761   5.362 -0.4984 -0.0241  0.2151
51955SOL    HW161185   8.721  11.744   5.308  0.2579 -0.1298 -0.8645
51955SOL    HW261186   8.837  11.840   5.325 -0.4069  0.3633  1.1173
51956SOL     OW61187  10.716   0.103   7.909 -0.4084  0.0023 -0.0847
51956SOL    HW161188  10.677   0.139   7.829  0.0316  1.4394  0.3045
51956SOL    HW261189  10.683   0.160   7.979 -0.0642 -0.6674  0.6337
51957SOL     OW61190   3.100  11.089   4.046  0.1594  0.0483  0.1677
51957SOL    HW161191   3.094  11.134   4.130 -2.2922 -0.5196  0.3764
51957SOL    HW261192   3.132  11.001   4.068 -2.0940 -0.6793  0.8321
51958SOL     OW61193   2.227   7.088   7.198  0.5868  0.4971  0.1241
51958SOL    HW161194   2.186   7.082   7.112  0.7447 -0.0210  0.0781
51958SOL    HW261195   2.167   7.042   7.257  0.3309  1.1097  0.3523
51959SOL     OW61196   9.915  10.788   9.560  0.4962 -0.5385 -0.3647
51959SOL    HW161197   9.901  10.698   9.587  0.0690 -0.0181  1.2842
51959SOL    HW261198   9.961  10.828   9.635 -0.5598  0.9396 -0.4726
51960SOL     OW61199   0.075   0.998   6.093 -0.1532  0.2592  0.5734
51960SOL    HW161200   0.001   0.949   6.057  0.3037 -2.0482  2.4972
51960SOL    HW261201   0.044   1.031   6.177  0.4126  0.8682  0.5501
51961SOL     OW61202   9.819   1.179   1.608 -0.0248 -0.9997 -0.4987
51961SOL    HW161203   9.792   1.089   1.593 -0.0338 -1.0565 -0.1446
51961SOL    HW261204   9.747   1.232   1.575 -1.1672 -1.1671  1.5907
51962SOL     OW61205   9.856   6.680   2.536 -0.2773  0.4063 -0.1984
51962SOL    HW161206   9.845   6.775   2.543 -1.9013  0.2164  0.2245
51962SOL    HW261207   9.779   6.644   2.580  0.9463 -1.1345  0.7535
51963SOL     OW61208  11.813   9.971   6.688  0.6270  0.0339 -0.2203
51963SOL    HW161209  11.825   9.912   6.762  0.8091  1.1636  0.6768
51963SOL    HW261210  11.885   9.949   6.628  0.2870 -1.1101 -0.2400
51964SOL     OW61211   7.186   5.620   4.623  0.3105  0.3514 -0.7070
51964SOL    HW161212   7.240   5.678   4.676  0.8151 -0.4683 -0.3059
51964SOL    HW261213   7.156   5.552   4.684  0.5875 -0.3941 -1.3763
51965SOL     OW61214   2.829   3.201   8.331 -0.0676 -0.0337 -0.2437
51965SOL    HW161215   2.822   3.138   8.403  2.4153 -0.8098 -0.5908
51965SOL    HW261216   2.852   3.147   8.255  0.9173  1.1430 -0.8162
51966SOL     OW61217   0.840   5.912   3.498 -0.4636  0.3834  0.3571
51966SOL    HW161218   0.869   5.957   3.419  1.2077 -0.2154  0.5871
51966SOL    HW261219   0.809   5.983   3.555 -0.5175  0.9469 -0.3557
51967SOL     OW61220   6.600  10.675   7.627  0.1488 -0.1161  0.5133
51967SOL    HW161221   6.599  10.644   7.536 -0.8890  1.1000  0.0746
51967SOL    HW261222   6.641  10.761   7.622  1.1719 -0.5388  1.3973
51968SOL     OW61223   5.127   7.840  10.416  0.2741  0.0588  0.4085
51968SOL    HW161224   5.039   7.876  10.412  0.7655  1.2203 -0.5722
51968SOL    HW261225   5.181   7.902  10.367  1.4461 -1.2046  0.0261
51969SOL     OW61226   1.766   9.030   3.266  0.2913  0.1484 -0.2779
51969SOL    HW161227   1.850   9.008   3.306 -1.5467 -1.5327  3.0082
51969SOL    HW261228   1.741   8.951   3.218 -0.6101 -0.4043  1.0581
51970SOL     OW61229   2.970   3.397  11.616  0.5523  0.5873  0.6992
51970SOL    HW161230   2.964   3.427  11.525  0.5472  0.5805  0.6969
51970SOL    HW261231   2.887   3.424  11.656  0.6351  0.7691  0.7536
51971SOL     OW61232   7.462   8.709  10.967 -0.2449  0.4285  0.6795
51971SOL    HW161233   7.448   8.647  10.895 -0.6040  1.6467 -0.3340
51971SOL    HW261234   7.556   8.727  10.965 -0.0298 -0.5333  1.3820
51972SOL     OW61235   6.767   8.603   0.484  0.4019 -0.0513 -0.4356
51972SOL    HW161236   6.717   8.671   0.438 -1.9128  0.5737  2.6342
51972SOL    HW261237   6.713   8.524   0.474  0.0161  0.0279  0.8424
51973SOL     OW61238   5.167   7.179   5.513 -0.5236  0.3463  0.3813
51973SOL    HW161239   5.083   7.187   5.467  0.3111 -2.7562 -2.0496
51973SOL    HW261240   5.154   7.105   5.573  0.2379  0.3331  0.5347
51974SOL     OW61241   6.730   3.267   4.741 -0.3640 -0.1628  0.0205
51974SOL    HW161242   6.715   3.362   4.745  0.4056 -0.0828  1.4045
51974SOL    HW261243   6.775   3.254   4.657  0.8696  0.9187  0.4774
51975SOL     OW61244   3.035  11.493   5.977  0.3229 -0.3432  0.2909
51975SOL    HW161245   3.076  11.422   6.026 -1.4376 -2.6053 -1.3237
51975SOL    HW261246   2.960  11.518   6.030  0.5536 -0.1435  0.5286
51976SOL     OW61247   7.811   7.654   7.565 -0.4372  0.0194  0.5298
51976SOL    HW161248   7.760   7.646   7.484  0.0111 -3.4152  0.4057
51976SOL    HW261249   7.901   7.671   7.535 -0.1319 -1.9650  0.1297
51977SOL     OW61250  11.057   7.422   7.953 -0.7495 -0.1788 -0.3155
51977SOL    HW161251  10.972   7.409   7.995 -1.4777 -0.1322 -1.7081
51977SOL    HW261252  11.111   7.463   8.020 -2.2391  1.0706  0.1922
51978SOL     OW61253   9.560   3.296   7.858 -0.3553  1.0471  0.4639
51978SOL    HW161254   9.576   3.267   7.948 -1.5311 -1.5935 -0.0785
51978SOL    HW261255   9.635   3.351   7.836  0.9364  0.1584  2.4221
51979SOL     OW61256   7.386   4.603  11.579  0.1252 -0.2768 -0.1843
51979SOL    HW161257   7.412   4.511  11.581  0.1498 -0.3037 -1.3432
51979SOL    HW261258   7.300   4.603  11.537 -1.5771 -0.1171  3.0032
51980SOL     OW61259   8.859   4.241   0.478  0.3591 -0.1599  0.4256
51980SOL    HW161260   8.824   4.261   0.391 -0.1526 -0.2508  0.6135
51980SOL    HW261261   8.830   4.152   0.497  0.2973 -0.0644  0.7809
51981SOL     OW61262   2.431   1.729   8.210  0.2785 -0.2351 -0.1807
51981SOL    HW161263   2.520   1.728   8.245  0.0760 -1.1732  0.3362
51981SOL    HW261264   2.438   1.693   8.122  0.3370 -0.8439  0.0681
51982SOL     OW61265  11.138   9.646  11.470 -0.2535 -0.3460 -0.0607
51982SOL    HW161266  11.129   9.695  11.552 -0.1186 -0.9757  0.3423
51982SOL    HW261267  11.049   9.619  11.448 -0.1856 -0.9392  0.3677
51983SOL     OW61268   2.555  11.793   6.417 -0.0111  0.2308 -0.2327
51983SOL    HW161269   2.545  11.826   6.328 -0.7550  1.0425  0.1407
51983SOL    HW261270   2.648  11.803   6.436 -0.3853  3.4411  0.3487
51984SOL     OW61271   5.804   1.682   0.072  0.4354  0.1128 -0.2438
51984SOL    HW161272   5.759   1.692   0.156  0.5718  0.8283 -0.2460
51984SOL    HW261273   5.766   1.604   0.033 -0.5884  0.5293 -0.1141
51985SOL     OW61274   9.197   4.063   2.151 -0.3765 -0.0112  0.0375
51985SOL    HW161275   9.180   4.103   2.236  0.3121 -0.2214  0.2801
51985SOL    HW261276   9.133   3.992   2.145 -1.2149  0.7390 -0.1439
51986SOL     OW61277   1.030   4.327   0.661  0.2240  0.2579 -0.1472
51986SOL    HW161278   1.068   4.290   0.582  0.4138 -1.8939  0.8651
51986SOL    HW261279   1.096   4.309   0.729 -1.4871 -1.4166  1.1834
51987SOL     OW61280   9.734  10.278   4.301  0.1120 -0.1929  0.3613
51987SOL    HW161281   9.765  10.297   4.212  0.5938 -0.6536  0.4212
51987SOL    HW261282   9.655  10.331   4.311  1.2749  1.6189  0.4643
51988SOL     OW61283  10.026   1.452  10.462  0.5519 -0.1590  0.2829
51988SOL    HW161284   9.947   1.405  10.488 -0.7229  0.7014 -1.7648
51988SOL    HW261285  10.073   1.391  10.405  0.1108  0.1579 -0.4389
51989SOL     OW61286  10.222   7.072   1.086 -0.4544 -0.0223  0.1374
51989SOL    HW161287  10.283   7.091   1.158 -2.1455  0.8850  1.3972
51989SOL    HW261288  10.143   7.041   1.130 -0.3538 -2.9411 -1.5406
51990SOL     OW61289   1.701   1.114   2.007  0.6905  0.4457 -0.3230
51990SOL    HW161290   1.743   1.115   2.093  0.9409  2.1020 -0.4421
51990SOL    HW261291   1.730   1.195   1.965 -0.6024  0.3781 -1.3978
51991SOL     OW61292   6.269   3.337   2.745  0.2875  0.0613  0.1098
51991SOL    HW161293   6.226   3.330   2.830  2.6593  2.8228  1.7432
51991SOL    HW261294   6.359   3.308   2.762  0.7155  0.3132 -1.5857
51992SOL     OW61295  11.535  11.752   9.888  0.7747 -0.1875  0.1492
51992SOL    HW161296  11.487  11.832   9.908  1.6669 -0.1687  2.6659
51992SOL    HW261297  11.466  11.687   9.870 -0.0268  0.7425 -0.2124
51993SOL     OW61298   0.261   8.728   0.810 -0.4105 -0.2715  0.0134
51993SOL    HW161299   0.234   8.637   0.819  0.2756 -0.3911  0.9038
51993SOL    HW261300   0.191   8.778   0.852 -1.2640 -0.3007 -1.3027
51994SOL     OW61301   8.853   9.366   7.704 -0.0948  0.0581 -0.2122
51994SOL    HW161302   8.866   9.417   7.784  0.7482  0.2562 -0.4622
51994SOL    HW261303   8.793   9.418   7.652 -0.4080  0.0748  0.1589
51995SOL     OW61304   8.823   2.913   6.915 -0.1090  0.2989 -0.3712
51995SOL    HW161305   8.914   2.914   6.945 -0.3710  0.2477  0.4610
51995SOL    HW261306   8.779   2.975   6.972 -0.3703  1.2462 -1.5695
51996SOL     OW61307   2.162  10.053   0.829  0.3001 -0.2437  0.6826
51996SOL    HW161308   2.167   9.960   0.804 -0.3501 -0.2540  0.5689
51996SOL    HW261309   2.240  10.092   0.789  1.0114 -0.8828  1.3897
51997SOL     OW61310  10.549   6.497   1.384  0.3865  0.0283  0.2738
51997SOL    HW161311  10.494   6.560   1.339 -2.4591 -2.8317 -0.6257
51997SOL    HW261312  10.512   6.491   1.472  0.0151 -1.0034  0.0627
51998SOL     OW61313   7.855   0.321   7.210  0.2537  0.0178  0.3743
51998SOL    HW161314   7.814   0.238   7.184  1.6578 -0.2360 -1.2701
51998SOL    HW261315   7.934   0.294   7.257 -0.9454  0.4849  2.7811
51999SOL     OW61316   7.199   9.353  11.787 -0.6118 -0.9422  0.5120
51999SOL    HW161317   7.146   9.419  11.741 -2.0715 -1.4924  1.3210
51999SOL    HW261318   7.175   9.363  11.879  2.0972 -0.0052  1.1943
52000SOL     OW61319   8.439   5.060   9.113  0.3536  0.0168 -0.2363
52000SOL    HW161320   8.432   4.999   9.040 -2.0554 -1.1235  0.8359
52000SOL    HW261321   8.368   5.123   9.098 -1.9201 -1.6925  2.2468
52001SOL     OW61322   0.235   3.616   0.792  0.2712 -0.4333  0.2670
52001SOL    HW161323   0.160   3.638   0.848 -0.1219 -3.8943  1.3446
52001SOL    HW261324   0.310   3.655   0.836 -0.6056  1.1960  0.3851
52002SOL     OW61325   7.231   1.414   7.588  0.4291 -0.1548  0.3188
52002SOL    HW161326   7.263   1.465   7.662  0.2377  1.4567 -0.6545
52002SOL    HW261327   7.302   1.415   7.524 -0.1285  0.1941 -0.3161
52003SOL     OW61328   0.949   3.434   7.083 -0.2623  0.4198  0.3557
52003SOL    HW161329   0.935   3.416   6.990 -1.0288  0.1241  0.5117
52003SOL    HW261330   1.031   3.481   7.087  0.0518 -0.0405 -0.4244
52004SOL     OW61331  10.607   5.589  10.216 -0.3543 -0.0889 -0.3538
52004SOL    HW161332  10.682   5.545  10.254 -0.0470 -1.1178 -2.0645
52004SOL    HW261333  10.542   5.520  10.203 -0.4674  0.2336 -1.6051
52005SOL     OW61334  11.749   1.018   5.701 -0.3510  0.1240  0.4426
52005SOL    HW161335  11.841   1.037   5.721 -0.4477 -1.1713  2.3314
52005SOL    HW261336  11.700   1.081   5.753 -0.5516 -0.3414  0.8223
52006SOL     OW61337   0.327   2.526   4.563 -0.5797 -0.1877  0.0593
52006SOL    HW161338   0.332   2.449   4.620  0.7201 -0.8411 -0.8987
52006SOL    HW261339   0.388   2.588   4.602 -0.2095 -0.3673 -0.2386
52007SOL     OW61340   0.730   0.846   7.010  0.2596 -0.4415  0.2493
52007SOL    HW161341   0.820   0.853   6.979 -0.1029 -1.3323 -1.1180
52007SOL    HW261342   0.693   0.773   6.959 -1.9731  1.4986 -1.1177
52008SOL     OW61343   9.882   0.091   5.026  0.6648  0.1588  1.0151
52008SOL    HW161344   9.815   0.092   5.095  0.0447 -4.1831  0.7584
52008SOL    HW261345   9.850   0.153   4.961 -1.7800  0.1408  2.0671
52009SOL     OW61346   1.656   6.997  11.643 -0.2154  0.0015  0.3717
52009SOL    HW161347   1.712   6.953  11.578  1.8334 -0.8141  2.5665
52009SOL    HW261348   1.596   6.929  11.673 -0.1979 -0.0108  0.3783
52010SOL     OW61349   8.141  11.121   0.410 -0.6200  0.3847  0.6325
52010SOL    HW161350   8.150  11.083   0.322  0.6744  0.5282  0.6742
52010SOL    HW261351   8.174  11.211   0.401 -0.6575  0.4607  1.2133
52011SOL     OW61352   3.678   3.992   6.377 -0.3426 -0.0820  0.2674
52011SOL    HW161353   3.713   4.077   6.350  0.3540 -0.5709 -0.3922
52011SOL    HW261354   3.701   3.933   6.306 -0.4417 -0.9255  0.9214
52012SOL     OW61355   4.863   1.632   9.899 -0.0739 -0.8843  0.3670
52012SOL    HW161356   4.928   1.634   9.969 -1.5037 -0.0284  1.7487
52012SOL    HW261357   4.850   1.538   9.881  1.3725 -1.0724  0.1739
52013SOL     OW61358   7.368   7.076   1.441  0.1438  0.2647  0.3701
52013SOL    HW161359   7.417   7.156   1.457 -1.3202  0.9472  1.7118
52013SOL    HW261360   7.314   7.096   1.365  0.2315  0.3201  0.3219
52014SOL     OW61361   4.397   5.200   2.190 -0.1487  0.7248  0.2705
52014SOL    HW161362   4.438   5.178   2.274 -1.7130 -0.2934  0.8154
52014SOL    HW261363   4.456   5.265   2.151 -0.1083  2.3961  2.8206
52015SOL     OW61364   1.391   2.562   2.973 -0.4899  0.5593  0.3055
52015SOL    HW161365   1.446   2.493   2.936 -1.5342 -0.3261  0.3290
52015SOL    HW261366   1.412   2.562   3.067  2.3714  3.0014 -0.1829
52016SOL     OW61367   5.551   3.440   8.111  0.0084  0.0757  0.0782
52016SOL    HW161368   5.535   3.521   8.159  0.1328 -1.2568  2.5556
52016SOL    HW261369   5.646   3.426   8.119 -0.3753 -1.8443  2.5284
52017SOL     OW61370   7.596   3.464  11.073  0.3626  0.4676 -0.6769
52017SOL    HW161371   7.527   3.402  11.096 -0.4552  0.6853 -2.4275
52017SOL    HW261372   7.558   3.550  11.091  0.6122  0.5573 -0.5646
52018SOL     OW61373   0.573   8.087   0.676 -0.2134  0.1460 -0.1799
52018SOL    HW161374   0.546   8.157   0.616 -1.4595  0.5962  0.8777
52018SOL    HW261375   0.579   8.009   0.620 -1.2070  0.5833 -0.9342
52019SOL     OW61376   8.211   8.501   8.293 -0.9362 -0.1735  0.1592
52019SOL    HW161377   8.188   8.520   8.384 -0.0852 -1.4123  0.6488
52019SOL    HW261378   8.288   8.554   8.276 -1.2330  0.2379  0.0705
52020SOL     OW61379   5.865   9.841   0.125 -0.0219 -0.0009  0.3233
52020SOL    HW161380   5.825   9.879   0.203 -2.2895 -1.7746  0.1401
52020SOL    HW261381   5.814   9.877   0.052  0.2782 -0.4641 -0.1246
52021SOL     OW61382   9.135   6.432   1.667 -0.3383  0.3572  0.3639
52021SOL    HW161383   9.150   6.446   1.760  0.6264  0.1191  0.2621
52021SOL    HW261384   9.097   6.344   1.662 -2.6364  1.2749  0.6915
52022SOL     OW61385   6.568   0.629   3.693  0.3352  0.2181  0.7406
52022SOL    HW161386   6.574   0.588   3.607  1.0693  1.7958 -0.0102
52022SOL    HW261387   6.639   0.589   3.744  1.0163  0.5236  0.0415
52023SOL     OW61388   6.814  10.454   2.315 -0.2193  0.0282 -0.1315
52023SOL    HW161389   6.791  10.371   2.357  0.9548  0.3112  1.1676
52023SOL    HW261390   6.885  10.432   2.254 -0.0100  0.0463  0.1038
52024SOL     OW61391   2.301   8.753   1.287 -0.0983 -0.3070 -0.4557
52024SOL    HW161392   2.221   8.772   1.336 -1.3435  0.0149 -2.5000
52024SOL    HW261393   2.372   8.775   1.347 -1.5325  1.7297  0.5996
52025SOL     OW61394   8.504   2.653   3.467 -0.2840  0.1848 -0.5767
52025SOL    HW161395   8.598   2.671   3.474 -0.3028 -0.2813  2.0188
52025SOL    HW261396   8.497   2.558   3.483 -1.1154 -0.0357 -2.0869
52026SOL     OW61397   1.332   7.273  11.600 -0.4101 -0.1189 -0.1777
52026SOL    HW161398   1.317   7.360  11.563 -0.2287 -0.2125 -0.4640
52026SOL    HW261399   1.386   7.289  11.677 -1.0444  0.1062  0.2355
52027SOL     OW61400  11.377   0.273  10.981 -0.4609  0.4447  0.1413
52027SOL    HW161401  11.304   0.225  11.018 -0.0241  0.8134  1.5460
52027SOL    HW261402  11.416   0.319  11.056  0.5934  1.0438 -0.7444
52028SOL     OW61403   5.613   2.724   8.288 -0.1715 -0.1420 -0.0247
52028SOL    HW161404   5.600   2.776   8.367 -0.6909 -2.5957  1.6333
52028SOL    HW261405   5.681   2.771   8.239  0.6439  1.1521  2.2027
52029SOL     OW61406   9.367   5.727   2.932 -0.0709  0.0384  0.1005
52029SOL    HW161407   9.295   5.665   2.942 -0.4622  0.4749  0.0340
52029SOL    HW261408   9.334   5.793   2.871 -0.1329  0.9882  1.1146
52030SOL     OW61409  11.409   9.159   3.393  0.0517 -0.0207  0.5089
52030SOL    HW161410  11.408   9.210   3.312  0.6275  1.1349  1.1875
52030SOL    HW261411  11.493   9.113   3.392  0.8733  1.3809  1.2224
52031SOL     OW61412   7.717   4.830   9.174 -0.6062  0.3317 -0.8933
52031SOL    HW161413   7.698   4.923   9.180 -0.3474  0.2896  1.8553
52031SOL    HW261414   7.811   4.823   9.190 -0.5188 -0.3854 -1.6205
52032SOL     OW61415   1.963   2.694   2.011 -0.0108  0.3108  0.6522
52032SOL    HW161416   2.028   2.744   2.060  2.3736  0.6387 -2.4860
52032SOL    HW261417   1.997   2.604   2.011  0.2400  0.3775 -0.5431
52033SOL     OW61418   8.429   7.594  11.362 -0.4967  0.1505  0.1879
52033SOL    HW161419   8.392   7.557  11.442  0.3846  0.2467  0.6493
52033SOL    HW261420   8.442   7.518  11.305 -2.0638  0.1967 -0.2722
52034SOL     OW61421   4.665   9.501   0.875 -0.4467 -0.2339  0.3020
52034SOL    HW161422   4.691   9.495   0.967  2.1587  2.7440 -0.0717
52034SOL    HW261423   4.626   9.587   0.867 -1.1581 -0.6720 -1.3139
52035SOL     OW61424   9.434   6.015  11.224  0.0130 -0.5115  0.2720
52035SOL    HW161425   9.379   6.071  11.278  0.4594  0.5223 -0.3205
52035SOL    HW261426   9.523   6.031  11.257  0.2631 -0.0290 -0.6220
52036SOL     OW61427  10.730   2.063   6.624  0.2973 -0.5139  0.0227
52036SOL    HW161428  10.681   2.017   6.692  0.8759  0.2856  1.0067
52036SOL    HW261429  10.681   2.046   6.544  0.2296 -2.4136  0.4245
52037SOL     OW61430   7.574   0.524   1.998  0.4637 -0.8160 -0.6826
52037SOL    HW161431   7.552   0.455   2.062  3.6962  0.1135  1.7113
52037SOL    HW261432   7.663   0.502   1.969  1.1572  1.6846 -0.6881
52038SOL     OW61433  11.430   2.475   6.519 -0.3706  0.1561 -0.0052
52038SOL    HW161434  11.520   2.506   6.510 -0.5734  0.3129 -1.9510
52038SOL    HW261435  11.433   2.411   6.589  1.2911  0.0467 -0.1429
52039SOL     OW61436   8.714   4.501  11.198  0.3618  0.4169 -0.3718
52039SOL    HW161437   8.666   4.536  11.273 -0.3736 -0.7554 -0.2691
52039SOL    HW261438   8.648   4.454  11.147  0.8565  1.1564 -1.7471
52040SOL     OW61439   7.803   0.332   5.860 -0.3991  0.3210 -0.0268
52040SOL    HW161440   7.832   0.341   5.770  0.1407  0.5275  0.1601
52040SOL    HW261441   7.791   0.422   5.891 -1.4678  0.2331 -0.1669
52041SOL     OW61442   1.703  10.469  10.382 -0.4313  0.0725  0.5202
52041SOL    HW161443   1.759  10.547  10.373  2.0384 -1.5175  1.2112
52041SOL    HW261444   1.630  10.499  10.436  0.3973  1.9510  0.6876
52042SOL     OW61445   2.844   1.330   3.411  0.1879 -0.6152 -0.0851
52042SOL    HW161446   2.859   1.423   3.426  2.8642 -0.5596 -2.2838
52042SOL    HW261447   2.789   1.302   3.485  0.5760  2.3320  1.4710
52043SOL     OW61448   1.016  11.340  10.469 -0.2828  0.1636  0.3112
52043SOL    HW161449   1.071  11.418  10.480  1.0268 -0.7814  0.7123
52043SOL    HW261450   0.928  11.375  10.454  0.5261  1.7339 -1.0740
52044SOL     OW61451   1.651   3.808   2.769  0.7994  0.1431  0.0320
52044SOL    HW161452   1.709   3.859   2.712  1.0034 -0.1397 -0.0148
52044SOL    HW261453   1.693   3.722   2.776 -0.4754 -0.6461 -1.3893
52045SOL     OW61454   5.640   4.984   4.109 -0.0195 -0.6109  0.0549
52045SOL    HW161455   5.551   4.999   4.139 -0.0791  0.0528 -0.4322
52045SOL    HW261456   5.632   4.966   4.016  0.4067  0.1981 -0.1526
52046SOL     OW61457  11.115   1.739  10.636 -0.0030 -0.1164 -0.2924
52046SOL    HW161458  11.082   1.828  10.640  1.1244  0.4313 -2.1526
52046SOL    HW261459  11.210   1.748  10.642  0.0851 -1.3385  0.8883
52047SOL     OW61460   6.030   3.233   7.608 -0.1383  0.3148  0.2348
52047SOL    HW161461   6.053   3.318   7.571  1.8860 -0.5481 -0.6268
52047SOL    HW261462   6.056   3.240   7.700  0.4091  0.5001  0.0709
52048SOL     OW61463   7.572   2.118   4.206  0.2964  0.2318 -0.0034
52048SOL    HW161464   7.498   2.126   4.266  1.1495 -0.6364  1.2121
52048SOL    HW261465   7.533   2.124   4.119 -1.3737 -1.2964  0.5796
52049SOL     OW61466   9.080  10.613  11.024 -0.1947  0.1335  0.2372
52049SOL    HW161467   8.990  10.605  10.994 -0.0430 -0.8799  0.0487
52049SOL    HW261468   9.072  10.652  11.112 -0.8033  0.1098  0.1957
52050SOL     OW61469   8.500  10.209   2.755 -0.4435  0.4666 -0.0825
52050SOL    HW161470   8.436  10.154   2.710  0.0447  0.1029 -0.3364
52050SOL    HW261471   8.553  10.147   2.805  0.1272  0.7058 -0.3888
52051SOL     OW61472   9.787   4.874   2.628 -0.5573 -0.3188  0.5114
52051SOL    HW161473   9.785   4.893   2.534 -1.7516 -0.9373  0.3956
52051SOL    HW261474   9.880   4.876   2.651 -0.3545  2.4931 -0.1238
52052SOL     OW61475   1.338   2.758   7.487  0.7064 -0.0846 -0.7198
52052SOL    HW161476   1.431   2.757   7.512  0.5428  0.9269  0.0067
52052SOL    HW261477   1.293   2.723   7.563  0.4777 -0.4904 -1.0403
52053SOL     OW61478   7.170   6.884  10.775  0.5600  0.9033 -0.1565
52053SOL    HW161479   7.156   6.790  10.774 -1.0268  1.0996 -2.2475
52053SOL    HW261480   7.172   6.907  10.868  1.3611 -1.2003  0.4079
52054SOL     OW61481   3.996   8.633   4.433 -0.6821 -0.2601 -0.3010
52054SOL    HW161482   3.940   8.622   4.356 -0.2273 -1.5082 -0.4841
52054SOL    HW261483   3.965   8.714   4.474  0.5807  1.7255 -3.0174
52055SOL     OW61484   0.572   0.288  10.746  0.3174 -0.0459 -0.6953
52055SOL    HW161485   0.640   0.287  10.679  1.8743  0.8804  0.7855
52055SOL    HW261486   0.585   0.371  10.792 -1.4286 -0.1400  0.0510
52056SOL     OW61487   6.005   7.421  10.131 -0.0546 -0.4292  0.4189
52056SOL    HW161488   5.950   7.395  10.057 -0.4496 -1.0548  0.9213
52056SOL    HW261489   5.947   7.414  10.207 -0.0498  1.4695  0.6454
52057SOL     OW61490  10.595   8.820   5.857  0.7180  0.2528  0.0339
52057SOL    HW161491  10.542   8.876   5.800  0.1392  1.6697  1.8788
52057SOL    HW261492  10.686   8.841   5.833  0.4930 -0.1268 -1.2235
52058SOL     OW61493   6.628   5.800   7.313  0.2084  0.1060 -0.3795
52058SOL    HW161494   6.593   5.882   7.346  2.2401  1.2980 -1.0142
52058SOL    HW261495   6.578   5.784   7.232 -1.0440  0.0251  0.3819
52059SOL     OW61496   5.741   4.150   4.266  0.2700  0.2466  0.5514
52059SOL    HW161497   5.775   4.239   4.273 -1.0885  0.7062  1.7569
52059SOL    HW261498   5.647   4.161   4.257 -0.0455 -1.0903  1.8565
52060SOL     OW61499  11.456   2.211   8.024 -0.1618 -0.1034 -0.1578
52060SOL    HW161500  11.518   2.141   8.006 -0.1437 -0.3603  0.8231
52060SOL    HW261501  11.460   2.268   7.948  1.2204 -0.1594 -0.1383
52061SOL     OW61502   8.607   7.795  11.307 -0.3006 -0.7774  0.4849
52061SOL    HW161503   8.548   7.724  11.331 -1.5020 -0.3552 -1.0530
52061SOL    HW261504   8.563   7.840  11.235 -0.6213  2.8293  2.6865
52062SOL     OW61505   9.823   0.838   7.931 -0.0088  1.2091 -0.1693
52062SOL    HW161506   9.861   0.920   7.960  1.3301  1.4782 -2.4791
52062SOL    HW261507   9.891   0.773   7.948 -0.2684  0.9158 -0.2422
52063SOL     OW61508   9.743   3.382   8.689  0.5241 -0.0501 -0.2975
52063SOL    HW161509   9.733   3.427   8.772 -0.8091  0.2023 -0.5697
52063SOL    HW261510   9.665   3.405   8.639  0.5430 -1.4302 -1.0306
52064SOL     OW61511   5.725   6.490   2.265 -0.2675  0.0909 -0.1858
52064SOL    HW161512   5.771   6.475   2.183 -1.2978  0.5973 -0.8740
52064SOL    HW261513   5.774   6.438   2.329  1.1061  0.4224 -0.9157
52065SOL     OW61514   3.240   4.916   3.240 -0.1990  0.2408  0.1235
52065SOL    HW161515   3.150   4.889   3.221 -0.0755  0.3089 -0.5855
52065SOL    HW261516   3.293   4.837   3.226 -0.0265  0.4548 -0.4349
52066SOL     OW61517   9.780   8.039   3.197  0.2419 -0.1915 -0.7381
52066SOL    HW161518   9.820   8.079   3.120  0.4667  0.9006 -0.0761
52066SOL    HW261519   9.850   7.989   3.238  0.0839 -0.9051 -1.2971
52067SOL     OW61520   1.936   8.029   6.725  0.3391  0.2411  0.1140
52067SOL    HW161521   1.913   8.103   6.670  0.9794 -0.9882 -1.9311
52067SOL    HW261522   2.019   8.054   6.765  0.6148  0.5933 -0.6593
52068SOL     OW61523   2.878   6.258   8.245 -0.1367  0.1070  0.7364
52068SOL    HW161524   2.810   6.235   8.181  0.5554  1.6689 -0.6337
52068SOL    HW261525   2.856   6.346   8.274  2.1530  1.3883 -1.0491
52069SOL     OW61526   5.441   8.142  10.860  0.6027 -0.3402 -0.0298
52069SOL    HW161527   5.469   8.057  10.824  1.3051 -0.1188 -0.0382
52069SOL    HW261528   5.450   8.202  10.786  2.3466  0.1808  0.5434
52070SOL     OW61529   2.483   7.585   1.880 -0.6949  0.0167 -0.4296
52070SOL    HW161530   2.482   7.493   1.856 -0.3828 -0.3129  0.7809
52070SOL    HW261531   2.390   7.609   1.887 -0.7748 -0.3578 -0.1747
52071SOL     OW61532  11.561   1.538  10.558  0.4542 -0.1827  0.1157
52071SOL    HW161533  11.468   1.527  10.578  0.8414 -0.0437  2.2951
52071SOL    HW261534  11.591   1.451  10.532 -0.2870 -0.1982 -0.7240
52072SOL     OW61535   6.105   6.357   2.360 -0.0054  0.3039  0.0466
52072SOL    HW161536   6.012   6.364   2.382 -0.3431 -0.7309 -0.9163
52072SOL    HW261537   6.122   6.433   2.304 -1.1645 -1.1718 -2.5031
52073SOL     OW61538   2.372   4.006   7.359 -0.0345  0.1916 -0.0989
52073SOL    HW161539   2.438   3.944   7.328  0.0748  0.1850  0.1417
52073SOL    HW261540   2.326   4.033   7.280  0.6900  0.7018 -0.3591
52074SOL     OW61541   0.384   0.454   8.706  0.3613 -1.0117  0.0361
52074SOL    HW161542   0.362   0.524   8.645  0.7518 -1.3221 -0.4720
52074SOL    HW261543   0.402   0.378   8.650  0.0249 -1.4993  0.5695
52075SOL     OW61544  11.193   4.681   5.848  0.2018 -0.5973 -0.2464
52075SOL    HW161545  11.149   4.745   5.792  1.2082 -0.8684 -1.3995
52075SOL    HW261546  11.286   4.692   5.828  0.8386  0.7143  2.9121
52076SOL     OW61547   2.858  10.240   6.465  0.2317 -0.2497  0.1145
52076SOL    HW161548   2.870  10.314   6.406  0.7794 -0.4245 -0.0024
52076SOL    HW261549   2.798  10.182   6.419  0.7303 -0.4292 -0.3187
52077SOL     OW61550  10.572   7.014  11.653  0.8080  0.0195  0.0868
52077SOL    HW161551  10.488   7.061  11.651 -2.0861 -4.5696 -1.1462
52077SOL    HW261552  10.591   7.005  11.746 -0.8860 -0.0726  0.4612
52078SOL     OW61553   9.765   6.625   6.003 -0.0423  0.4041  0.0243
52078SOL    HW161554   9.719   6.702   6.037 -0.3509 -0.5416  1.8462
52078SOL    HW261555   9.798   6.580   6.081  1.2912 -0.6176 -1.0724
52079SOL     OW61556  11.544   6.998  10.886  0.5075 -0.0807 -0.0180
52079SOL    HW161557  11.549   7.011  10.791  0.3099 -1.9465 -0.3251
52079SOL    HW261558  11.636   6.993  10.914  0.5656  0.0671 -0.1829
52080SOL     OW61559  10.213   0.909   6.572  0.1133  0.3004  0.1815
52080SOL    HW161560  10.171   0.904   6.657 -1.4251  2.9045 -0.3290
52080SOL    HW261561  10.252   0.996   6.569  0.1782  0.2543 -1.7494
52081SOL     OW61562   0.501   3.256   0.416 -0.0350 -0.1789 -0.5082
52081SOL    HW161563   0.475   3.289   0.329 -1.1164 -2.1470 -0.9898
52081SOL    HW261564   0.418   3.251   0.464  0.3232 -0.7534  0.0513
52082SOL     OW61565   7.824   1.680   5.228 -0.1564  0.5316 -0.4023
52082SOL    HW161566   7.881   1.701   5.154  2.5031 -1.9612  0.7322
52082SOL    HW261567   7.868   1.607   5.272 -2.7168  0.4911  2.4105
52083SOL     OW61568   1.549   2.125  10.351  0.4821 -0.1476 -0.0729
52083SOL    HW161569   1.529   2.142  10.443 -0.6107  0.2759 -0.3650
52083SOL    HW261570   1.589   2.038  10.350 -0.0302 -0.4035  0.7427
52084SOL     OW61571   4.071   4.053   8.827  0.4529 -0.0881 -0.5174
52084SOL    HW161572   4.063   4.031   8.734 -4.2556 -1.4438 -0.1039
52084SOL    HW261573   3.998   4.113   8.843  0.6672 -0.4661  2.4068
52085SOL     OW61574   2.563   9.353   7.620 -0.0300 -0.7506 -0.2435
52085SOL    HW161575   2.638   9.330   7.675  0.0863 -0.4312 -0.2635
52085SOL    HW261576   2.578   9.305   7.539  0.8806  0.3555 -0.7652
52086SOL     OW61577   3.446   1.758   9.452 -0.3935 -0.3173  0.0303
52086SOL    HW161578   3.369   1.729   9.402 -0.5667 -0.9389  0.6421
52086SOL    HW261579   3.489   1.822   9.395  0.0330 -1.8267 -1.4212
52087SOL     OW61580   9.679  10.411   9.930  0.3525  0.1887  0.1007
52087SOL    HW161581   9.594  10.421   9.887 -0.7070 -1.0652  1.7601
52087SOL    HW261582   9.666  10.445  10.018  1.4774 -0.3465  0.4960
52088SOL     OW61583   9.156   2.612  11.086  0.1327 -0.2919  0.1512
52088SOL    HW161584   9.170   2.527  11.129  2.2118 -0.2848 -0.4024
52088SOL    HW261585   9.102   2.662  11.148  2.1854 -0.6226  2.3630
52089SOL     OW61586   6.810  10.822   3.446  0.2921  0.2643  0.2717
52089SOL    HW161587   6.770  10.735   3.459  0.3259 -0.3574 -2.8030
52089SOL    HW261588   6.750  10.866   3.385  0.9993  1.8692  0.6939
52090SOL     OW61589   6.007   6.790   9.540 -0.0700 -0.4534 -0.2867
52090SOL    HW161590   6.069   6.835   9.598 -2.2301  0.6954  1.2540
52090SOL    HW261591   6.042   6.701   9.533 -0.2543 -1.0230  3.7777
52091SOL     OW61592   6.693   9.419  11.267 -0.1714  0.0792 -0.4549
52091SOL    HW161593   6.763   9.368  11.226 -0.8803 -2.5108  1.2745
52091SOL    HW261594   6.639   9.448  11.194  1.1956 -0.2059 -1.6359
52092SOL     OW61595   6.811  11.445  11.573  0.5423  0.0200 -0.1572
52092SOL    HW161596   6.741  11.491  11.618  0.3166 -0.5512  0.0871
52092SOL    HW261597   6.800  11.353  11.599  1.1473 -0.1304 -0.4155
52093SOL     OW61598   8.028  11.571   1.433  0.3548  0.2834 -0.2112
52093SOL    HW161599   8.067  11.485   1.452  0.3931 -0.4309 -3.1080
52093SOL    HW261600   7.936  11.552   1.418  0.2768  0.8213 -0.4184
52094SOL     OW61601   3.710   7.444   3.304  0.0341  0.2666  0.1381
52094SOL    HW161602   3.787   7.396   3.335  0.5876  0.9592 -0.1623
52094SOL    HW261603   3.651   7.445   3.379 -0.1457 -1.1933  0.0522
52095SOL     OW61604  10.183   0.211   8.101  0.2381  0.2921  0.9155
52095SOL    HW161605  10.190   0.118   8.125  0.2390  0.5477  1.9746
52095SOL    HW261606  10.265   0.250   8.132  0.0536  0.7286  0.8568
52096SOL     OW61607   3.442  10.955  10.876 -0.0068  0.3465  0.5773
52096SOL    HW161608   3.481  10.948  10.963  2.7437  2.3183 -0.3897
52096SOL    HW261609   3.419  11.048  10.867  2.4847  0.8636 -1.7707
52097SOL     OW61610  11.033   2.351   3.908  0.2006 -0.0428 -0.3997
52097SOL    HW161611  10.997   2.372   3.995  2.0876 -0.4132  0.5331
52097SOL    HW261612  11.011   2.259   3.894 -1.0820  0.3101 -0.8567
52098SOL     OW61613   1.285   6.015   2.906  0.2325  0.1352 -0.2077
52098SOL    HW161614   1.228   6.077   2.861 -0.3294  1.8553  2.6555
52098SOL    HW261615   1.338   6.068   2.965  0.9352 -1.9531  1.1699
52099SOL     OW61616   2.852   9.395   9.212 -0.3141  0.1058  0.3620
52099SOL    HW161617   2.841   9.488   9.234  0.0816  0.1855  0.2298
52099SOL    HW261618   2.767   9.368   9.179 -0.6524  0.2234  1.1254
52100SOL     OW61619   3.279   6.717   2.079 -0.0991  0.9369  0.2589
52100SOL    HW161620   3.358   6.714   2.026  0.9024 -2.2242  1.6683
52100SOL    HW261621   3.231   6.637   2.055 -1.0286  0.9142  2.0187
52101SOL     OW61622   8.192   9.897   3.407 -0.1672  0.3489 -0.4592
52101SOL    HW161623   8.156   9.831   3.347 -0.5485  0.6584 -0.5783
52101SOL    HW261624   8.285   9.902   3.386  0.1854 -1.2246  0.5519
52102SOL     OW61625   1.509  10.161   6.030  0.5425 -0.0955  0.3591
52102SOL    HW161626   1.485  10.090   6.090 -0.1283 -0.1188  0.0642
52102SOL    HW261627   1.587  10.128   5.984 -0.6990 -1.3353 -0.9504
52103SOL     OW61628   5.813   8.630   1.532  0.3356  0.1232  0.0242
52103SOL    HW161629   5.790   8.693   1.600 -0.2440 -0.8038  0.7018
52103SOL    HW261630   5.729   8.594   1.503  0.6518 -0.2167 -0.4852
52104SOL     OW61631   7.947   5.653   7.111 -0.3165  0.1316  0.2391
52104SOL    HW161632   8.018   5.674   7.172 -0.9349 -0.5603  1.2286
52104SOL    HW261633   7.873   5.632   7.168 -1.4193  1.1417 -0.7733
52105SOL     OW61634   5.406  11.129   7.759 -0.2759 -0.0915 -0.0917
52105SOL    HW161635   5.459  11.051   7.743 -1.7359 -0.5828 -3.2950
52105SOL    HW261636   5.469  11.197   7.782  1.6048 -1.0648 -2.0629
52106SOL     OW61637   9.841   8.717  10.402  0.4504 -0.1628 -0.5088
52106SOL    HW161638   9.819   8.696  10.493  2.1266 -0.5015 -0.1453
52106SOL    HW261639   9.897   8.794  10.408  0.7368 -0.3084 -1.2357
52107SOL     OW61640  10.106   9.456   6.385 -0.1513  0.2841  0.3849
52107SOL    HW161641  10.189   9.409   6.375 -0.5997 -0.2694 -0.9566
52107SOL    HW261642  10.091   9.496   6.299 -0.4911  1.7178  1.0867
52108SOL     OW61643   2.543   5.557   4.889 -0.0747 -0.4209 -0.0863
52108SOL    HW161644   2.566   5.624   4.825 -1.3757  1.3818  1.2328
52108SOL    HW261645   2.614   5.558   4.952  0.3261 -0.9297 -0.5165
52109SOL     OW61646   1.452   7.816   3.853  0.4818 -0.0847 -0.3646
52109SOL    HW161647   1.511   7.822   3.928  0.0824  0.4769 -0.0818
52109SOL    HW261648   1.509   7.811   3.777  0.9549 -3.1495  0.0734
52110SOL     OW61649   3.006  10.680   0.312  0.2005  0.2719 -0.3491
52110SOL    HW161650   2.980  10.592   0.285 -0.2842  0.4062 -0.3310
52110SOL    HW261651   3.046  10.668   0.398 -2.0608  0.3376  0.7951
52111SOL     OW61652   3.874  11.731   1.416  0.3388  0.2324 -0.5044
52111SOL    HW161653   3.916  11.645   1.411  1.4827  0.7363  0.0880
52111SOL    HW261654   3.942  11.789   1.449 -1.0345  0.9423  1.2686
52112SOL     OW61655   8.164   0.427   4.952  0.0759  0.3651 -0.0105
52112SOL    HW161656   8.129   0.514   4.932 -0.3136  0.2218  0.0284
52112SOL    HW261657   8.254   0.443   4.979 -0.4103  0.9236  1.3949
52113SOL     OW61658   2.928   7.077   5.135  0.2189 -0.2284 -0.1887
52113SOL    HW161659   2.898   7.113   5.052  1.3376 -0.2558 -0.6291
52113SOL    HW261660   2.925   6.982   5.122  1.4370 -0.2280 -0.6159
52114SOL     OW61661   0.879   3.398   9.801  0.3285  0.1762  0.4201
52114SOL    HW161662   0.797   3.435   9.767  0.0980 -0.1500  0.6177
52114SOL    HW261663   0.884   3.432   9.891 -0.1525 -0.6941  0.7832
52115SOL     OW61664   3.036   2.298   7.666 -0.0471  0.4651 -0.6048
52115SOL    HW161665   2.978   2.223   7.679 -0.3261  0.3863 -2.1294
52115SOL    HW261666   2.991   2.353   7.602  1.3052  0.6650 -1.4236
52116SOL     OW61667   6.899   7.077  10.172  0.6707  0.0830  0.2513
52116SOL    HW161668   6.809   7.088  10.141  0.4506  1.1723  1.2238
52116SOL    HW261669   6.894   7.093  10.266  1.6491 -1.2885  0.5535
52117SOL     OW61670   3.683  10.203   3.956  0.1134  0.3080 -1.2660
52117SOL    HW161671   3.599  10.187   3.998  1.6185 -1.6355  1.2886
52117SOL    HW261672   3.707  10.119   3.917  0.9572  0.7987 -1.8336
52118SOL     OW61673   6.054  10.840   8.679  0.0447  0.3802 -0.5519
52118SOL    HW161674   6.024  10.831   8.770 -0.9945  0.2048 -0.8990
52118SOL    HW261675   6.024  10.926   8.652  1.6112  1.0382 -0.2932
52119SOL     OW61676   1.075   1.235   0.746 -0.2903 -0.0820 -0.0794
52119SOL    HW161677   1.147   1.291   0.778 -2.1576  2.0707  0.6966
52119SOL    HW261678   1.083   1.237   0.651  0.7702 -0.0236  0.0005
52120SOL     OW61679  10.733   6.406   6.627 -0.1111 -0.7787 -0.0207
52120SOL    HW161680  10.674   6.438   6.559 -1.6640 -1.0654  1.1233
52120SOL    HW261681  10.816   6.392   6.582 -1.0280 -0.8214 -1.8238
52121SOL     OW61682  11.578   1.684   7.929 -0.9857 -0.1415  0.2658
52121SOL    HW161683  11.547   1.764   7.973 -2.0427 -0.8496  0.8587
52121SOL    HW261684  11.619   1.715   7.849  0.6159  1.1692  1.5357
52122SOL     OW61685   6.042   1.870  11.009 -0.2975 -0.1033  0.3958
52122SOL    HW161686   6.088   1.900  10.930  2.2691 -1.9399  1.0446
52122SOL    HW261687   6.088   1.915  11.080 -0.7981 -0.5068  0.9751
52123SOL     OW61688   0.141   3.099   8.236  0.0789  0.1444  0.0054
52123SOL    HW161689   0.135   3.017   8.187  1.0929 -0.5279  0.9462
52123SOL    HW261690   0.054   3.138   8.229 -0.4498 -1.0541 -0.3979
52124SOL     OW61691  11.322   4.787   5.438 -0.7475 -0.6055  0.2571
52124SOL    HW161692  11.319   4.782   5.534  1.6941  1.7366  0.5870
52124SOL    HW261693  11.317   4.880   5.419  1.7312 -0.7418 -1.6349
52125SOL     OW61694   1.488   8.746   0.110 -0.2811  0.0764  0.1671
52125SOL    HW161695   1.577   8.720   0.086 -0.2190 -0.9506  1.4102
52125SOL    HW261696   1.470   8.699   0.192 -1.7872  0.6466  0.2002
52126SOL     OW61697   1.396   5.057   8.023  0.5615  0.0939 -0.0142
52126SOL    HW161698   1.410   5.142   7.982 -0.0372  1.2556  2.0457
52126SOL    HW261699   1.474   5.006   7.999  0.0106  0.4737 -2.9374
52127SOL     OW61700   6.120  10.747   5.098 -0.1031  0.1444 -0.0907
52127SOL    HW161701   6.114  10.681   5.030  0.5674 -0.9113  0.8434
52127SOL    HW261702   6.033  10.786   5.102 -0.3800 -0.3701 -0.9593
52128SOL     OW61703   3.378   2.705   7.645  0.7337  0.8495  0.1432
52128SOL    HW161704   3.374   2.753   7.728  1.9829  0.9811  0.1497
52128SOL    HW261705   3.467   2.669   7.643  0.4964  0.2936 -0.8387
52129SOL     OW61706   3.205   2.845  10.843  0.4379 -0.3501 -0.5411
52129SOL    HW161707   3.249   2.886  10.769  1.0367  0.3041  0.1654
52129SOL    HW261708   3.188   2.755  10.814 -0.6162  0.2835 -1.9881
52130SOL     OW61709  11.740   2.862  11.595 -0.4182 -0.5372  0.0790
52130SOL    HW161710  11.680   2.820  11.655  0.5039 -1.6266  0.2788
52130SOL    HW261711  11.824   2.863  11.641  0.0780 -0.4814 -0.7948
52131SOL     OW61712   5.053   8.476   5.562 -0.1525 -0.9953 -0.0339
52131SOL    HW161713   5.061   8.383   5.584 -2.1510 -1.2257 -0.1290
52131SOL    HW261714   5.023   8.517   5.644 -0.8803 -0.7176 -0.4324
52132SOL     OW61715   1.695   0.007   2.159  0.5502 -0.5327 -0.5128
52132SOL    HW161716   1.680   0.054   2.241 -0.5221  0.2327 -1.1092
52132SOL    HW261717   1.743   0.069   2.105 -0.3047 -0.3386 -1.0751
52133SOL     OW61718  10.728   8.250   8.217 -0.0217  0.2265  0.6349
52133SOL    HW161719  10.682   8.262   8.134 -0.2274 -1.6773  0.4217
52133SOL    HW261720  10.739   8.155   8.225  3.1364  0.5284  1.0980
52134SOL     OW61721  11.511   5.253   7.970 -0.2017  0.3985 -0.4921
52134SOL    HW161722  11.504   5.161   7.993 -1.9459  0.5458 -0.2685
52134SOL    HW261723  11.544   5.296   8.049 -0.8152  0.1483 -0.0919
52135SOL     OW61724   9.904  11.660   1.724  0.0216 -0.2252 -0.2552
52135SOL    HW161725   9.959  11.718   1.776 -1.5555  0.4200  0.7716
52135SOL    HW261726   9.830  11.715   1.697 -2.1000 -1.9365  1.6751
52136SOL     OW61727  10.322   5.858   4.789  0.2673  0.1483 -0.7542
52136SOL    HW161728  10.407   5.876   4.830  0.7111  0.0377 -1.5808
52136SOL    HW261729  10.262   5.921   4.828  0.8515  0.5647 -0.5136
52137SOL     OW61730   7.188   0.410   2.420  0.0349  0.6909 -0.1094
52137SOL    HW161731   7.167   0.463   2.497  1.3377  1.5798 -0.3356
52137SOL    HW261732   7.237   0.336   2.455 -1.5387 -0.2737  0.1728
52138SOL     OW61733   7.674   1.180   5.284  0.2377 -0.4001 -0.0789
52138SOL    HW161734   7.674   1.263   5.332  0.7113 -1.3203  1.6032
52138SOL    HW261735   7.667   1.205   5.192 -0.1006  1.4734  0.4180
52139SOL     OW61736   7.593  11.618   8.248 -0.0679  0.2373  0.0739
52139SOL    HW161737   7.498  11.626   8.241 -0.3280 -2.3047 -0.5448
52139SOL    HW261738   7.607  11.570   8.329  0.4382 -1.7029 -1.0951
52140SOL     OW61739   1.887  10.631  11.197  0.3620  0.1687 -0.1538
52140SOL    HW161740   1.972  10.664  11.227 -0.3083  0.2137  1.9007
52140SOL    HW261741   1.859  10.572  11.267 -0.7894 -0.7535 -1.3473
52141SOL     OW61742  11.275   8.345   1.872  0.3990 -0.3028  0.1636
52141SOL    HW161743  11.305   8.331   1.782  0.2507  2.6533 -0.4573
52141SOL    HW261744  11.200   8.404   1.863  0.3459  0.0159  2.2160
52142SOL     OW61745   3.973  11.333   4.573  0.4680 -0.4889 -0.0623
52142SOL    HW161746   3.894  11.278   4.577 -0.1424  0.4620  2.2778
52142SOL    HW261747   3.969  11.372   4.485 -1.4391 -0.7964 -0.1732
52143SOL     OW61748  10.001   2.926   8.326  0.4105  0.7310  0.1221
52143SOL    HW161749   9.937   2.924   8.398  0.1682 -0.5442 -0.0965
52143SOL    HW261750   9.948   2.942   8.248 -0.0135 -2.4298 -0.3479
52144SOL     OW61751   5.396   8.258   6.031 -0.2094  0.2211  0.0960
52144SOL    HW161752   5.428   8.339   5.992  0.4965  0.1677  0.5592
52144SOL    HW261753   5.343   8.287   6.105 -2.8095  0.3985 -1.6870
52145SOL     OW61754   1.452   2.210   3.609  0.3564 -0.3221  0.2278
52145SOL    HW161755   1.509   2.143   3.647  0.1864 -1.6510 -1.7036
52145SOL    HW261756   1.365   2.169   3.607  0.3930 -0.3853 -1.6632
52146SOL     OW61757   4.290  10.645   7.979 -0.4199 -0.1208  0.3928
52146SOL    HW161758   4.256  10.572   8.030 -1.0000 -1.9100 -2.3218
52146SOL    HW261759   4.239  10.644   7.898  1.4702  1.5194 -0.9311
52147SOL     OW61760   3.865   5.991   9.668  0.6634  0.0801 -0.2916
52147SOL    HW161761   3.903   5.945   9.744  0.9409 -0.4920 -0.7681
52147SOL    HW261762   3.815   5.923   9.623 -0.1392  0.6004 -0.2073
52148SOL     OW61763   7.480   5.684   9.835 -0.0837  0.1281 -0.1759
52148SOL    HW161764   7.473   5.737   9.914  2.5014  0.8294 -0.3483
52148SOL    HW261765   7.480   5.593   9.867  0.7664  0.3963  0.6078
52149SOL     OW61766   5.419   1.734   1.394  0.1428 -0.4248 -0.0347
52149SOL    HW161767   5.485   1.672   1.426  0.0874 -2.3911 -3.2305
52149SOL    HW261768   5.340   1.680   1.382 -1.2685  1.2804  1.0744
52150SOL     OW61769  11.004   9.229   0.171 -0.3857 -0.1392 -0.1101
52150SOL    HW161770  10.960   9.290   0.230  0.9016 -0.3934  1.1626
52150SOL    HW261771  10.945   9.153   0.167 -0.7239  0.0898  0.4188
52151SOL     OW61772   3.221   5.073   1.774  0.4770  0.6833  0.7254
52151SOL    HW161773   3.298   5.060   1.830  0.9417 -1.7181 -0.3464
52151SOL    HW261774   3.255   5.119   1.697  1.2041 -1.3720 -0.2773
52152SOL     OW61775   9.397   0.317   6.709  0.2182  0.9272  0.4022
52152SOL    HW161776   9.427   0.266   6.784 -0.7151 -0.5345 -0.1863
52152SOL    HW261777   9.302   0.310   6.711  0.1690 -1.7502 -2.5625
52153SOL     OW61778   5.919   0.747   9.187  0.0229 -0.0783 -0.0207
52153SOL    HW161779   5.892   0.702   9.267  0.6572  1.1152  0.9055
52153SOL    HW261780   5.973   0.683   9.141  1.6300 -0.0438  1.6747
52154SOL     OW61781   5.859   7.925   7.996 -0.3157  0.1979 -0.0293
52154SOL    HW161782   5.947   7.927   8.035 -0.6476 -0.1602  0.7538
52154SOL    HW261783   5.809   7.866   8.053 -1.0663  0.3995 -0.4712
52155SOL     OW61784   1.191  11.058  11.443 -0.1901 -0.2811 -0.5966
52155SOL    HW161785   1.228  11.005  11.373  1.3534  0.6148 -0.5053
52155SOL    HW261786   1.267  11.094  11.490 -1.1583  1.1781 -0.0419
52156SOL     OW61787   7.622   5.977   3.861  0.2816  0.0601  0.4780
52156SOL    HW161788   7.592   5.925   3.786  0.9191 -1.5401  1.2907
52156SOL    HW261789   7.559   6.049   3.866  1.3438  1.4460 -2.8127
52157SOL     OW61790   9.390   2.787   6.400 -0.0631 -0.1049  0.3099
52157SOL    HW161791   9.308   2.826   6.432  0.3075 -1.1230  2.7367
52157SOL    HW261792   9.370   2.694   6.393  0.2620 -0.0655 -1.3256
52158SOL     OW61793   9.033   5.368   5.338 -0.0107 -0.1489 -0.4176
52158SOL    HW161794   9.120   5.401   5.313 -0.5540  1.0805 -0.7842
52158SOL    HW261795   9.000   5.434   5.400  0.8159 -2.5108  2.7986
52159SOL     OW61796   6.030   3.429  10.565  0.0026  0.2838 -0.0350
52159SOL    HW161797   6.034   3.524  10.556  0.7832  0.2711  0.1334
52159SOL    HW261798   6.035   3.396  10.475 -1.6477  0.4292 -0.2071
52160SOL     OW61799   6.780   8.477  11.373 -0.3279 -0.1210  0.2120
52160SOL    HW161800   6.872   8.499  11.391 -0.4135  0.2679  0.1594
52160SOL    HW261801   6.785   8.392  11.329  0.1081  0.5722 -1.1200
52161SOL     OW61802   7.229   1.695   4.680 -0.0597 -0.4140 -0.4119
52161SOL    HW161803   7.268   1.677   4.595  0.9213 -1.0932  0.1625
52161SOL    HW261804   7.139   1.662   4.672 -0.3382  0.5570 -1.5297
52162SOL     OW61805  10.644   3.112   6.210 -0.1446 -0.0758  0.5812
52162SOL    HW161806  10.603   3.193   6.241 -0.1667 -0.6578  2.1795
52162SOL    HW261807  10.695   3.139   6.134 -0.3925  1.3826  0.8922
52163SOL     OW61808   5.411   9.923   9.578 -0.1514 -0.1341 -0.4463
52163SOL    HW161809   5.456   9.860   9.522  0.1614  1.9400 -2.7135
52163SOL    HW261810   5.447   9.908   9.665  1.8594 -1.3036 -1.3997
52164SOL     OW61811   8.545   7.340   7.135  0.4439 -0.1040 -0.0686
52164SOL    HW161812   8.536   7.249   7.166  1.5786  0.0744  0.8288
52164SOL    HW261813   8.624   7.372   7.177  0.9639  0.7957 -1.6722
52165SOL     OW61814   8.156   9.983   5.660 -0.1810  0.0077 -0.4320
52165SOL    HW161815   8.249   9.970   5.642 -0.6289 -1.6571 -1.7526
52165SOL    HW261816   8.135   9.917   5.726 -0.1013  1.5556  1.2529
52166SOL     OW61817   3.980   9.438   9.499 -0.4555 -0.3946  0.1182
52166SOL    HW161818   3.907   9.413   9.554  0.1256  0.7356  1.4676
52166SOL    HW261819   4.052   9.380   9.525 -0.7051 -1.1755 -0.8599
52167SOL     OW61820   9.859   4.591  10.086 -0.2010 -0.2344  0.3837
52167SOL    HW161821   9.900   4.616  10.169 -0.1274 -0.1713  0.3277
52167SOL    HW261822   9.793   4.526  10.111  1.8378 -2.5062  0.2047
52168SOL     OW61823   5.518   6.111   7.597  0.1449 -0.6333  0.3465
52168SOL    HW161824   5.468   6.029   7.589  0.9725 -1.0431 -1.0721
52168SOL    HW261825   5.532   6.139   7.506  0.9003  0.4498  0.7819
52169SOL     OW61826   2.704   3.171   4.876 -0.2832  0.1027  0.0035
52169SOL    HW161827   2.687   3.248   4.821  0.8066 -1.3259 -2.5146
52169SOL    HW261828   2.617   3.134   4.892 -0.6149  0.2554 -1.3090
52170SOL     OW61829   1.177   6.767   0.046 -0.1883 -0.0950  0.3507
52170SOL    HW161830   1.243   6.729   0.104 -0.3587  0.6068  1.0203
52170SOL    HW261831   1.215   6.850   0.017 -0.5191  0.0217  0.2442
52171SOL     OW61832  10.562   5.238   4.419  0.1616  0.5718 -0.7752
52171SOL    HW161833  10.599   5.160   4.460 -0.4315  0.9742  0.5996
52171SOL    HW261834  10.479   5.252   4.464 -0.4205  1.1891 -1.9891
52172SOL     OW61835   3.213   0.505   1.984  0.2123 -0.0617 -0.2163
52172SOL    HW161836   3.151   0.479   2.052  0.4317  1.4866  0.6333
52172SOL    HW261837   3.251   0.423   1.953 -1.8467 -0.9969 -0.3855
52173SOL     OW61838   3.090   5.850   5.417  0.1960  0.0196 -0.3046
52173SOL    HW161839   3.078   5.944   5.410 -0.3764 -0.1431 -1.8501
52173SOL    HW261840   3.051   5.827   5.502 -1.0304  0.9698 -0.5797
52174SOL     OW61841   4.440   6.730   7.823  0.3968 -0.1366  0.1352
52174SOL    HW161842   4.451   6.648   7.775  0.2084 -0.5801  0.8409
52174SOL    HW261843   4.485   6.795   7.769  1.8548 -0.9613  0.3005
52175SOL     OW61844   5.540   9.176   1.844 -0.2136  0.2077  0.3242
52175SOL    HW161845   5.582   9.120   1.780  1.0349  0.2517  1.0733
52175SOL    HW261846   5.561   9.136   1.929 -0.9259  0.7399  0.7643
52176SOL     OW61847   7.991   0.391  10.659 -0.2226 -0.1635 -0.7047
52176SOL    HW161848   7.969   0.345  10.578 -1.0977  1.0324 -1.1782
52176SOL    HW261849   7.920   0.454  10.671  1.2019  1.4709 -0.3949
52177SOL     OW61850   5.349   0.090   5.324  0.3304  0.8306 -0.1684
52177SOL    HW161851   5.275   0.061   5.271  1.6149  2.1513 -2.8279
52177SOL    HW261852   5.413   0.124   5.262  1.8424  2.8076  2.2466
52178SOL     OW61853   6.866   7.509   8.757 -0.2912  0.0644  0.1585
52178SOL    HW161854   6.866   7.416   8.731  1.4198 -0.6031  2.2304
52178SOL    HW261855   6.788   7.519   8.810  0.2851 -0.6386  1.1821
52179SOL     OW61856   3.552  10.291   1.737  0.1921  0.4481  0.2464
52179SOL    HW161857   3.644  10.264   1.730 -0.1542 -0.6403 -0.3495
52179SOL    HW261858   3.508  10.216   1.778 -0.3576  1.1546  0.9943
52180SOL     OW61859   7.095   0.929   0.540 -0.2582  0.1734  0.7198
52180SOL    HW161860   7.147   0.993   0.590 -1.8022  0.7341  1.6828
52180SOL    HW261861   7.016   0.918   0.592 -1.1770 -0.5407 -0.7812
52181SOL     OW61862   5.700   8.486   1.142 -0.6133 -0.5191  0.0250
52181SOL    HW161863   5.717   8.419   1.077 -0.7828 -1.6787  1.1302
52181SOL    HW261864   5.716   8.443   1.226  0.9220  1.3001  0.7436
52182SOL     OW61865   1.035   6.010  10.393  0.0364 -0.0471  0.7742
52182SOL    HW161866   1.022   6.100  10.362 -2.4108 -0.7663 -0.4851
52182SOL    HW261867   1.108   5.978  10.340 -2.5754 -0.4916 -2.9322
52183SOL     OW61868   5.373   3.145   4.032  0.4942 -0.4480 -0.2065
52183SOL    HW161869   5.299   3.153   4.092  0.6457  0.0143 -0.0783
52183SOL    HW261870   5.437   3.093   4.080  1.2491  1.2115  0.6706
52184SOL     OW61871   5.245  11.600   4.488 -0.5009 -0.0731 -0.3130
52184SOL    HW161872   5.206  11.553   4.561 -1.3321  0.2047 -0.5653
52184SOL    HW261873   5.173  11.652   4.451 -0.4627 -1.2131 -2.1456
52185SOL     OW61874   3.053   1.510   0.958  0.5743 -0.5674 -0.0369
52185SOL    HW161875   3.059   1.555   0.874  0.2306 -0.8549 -0.2176
52185SOL    HW261876   3.096   1.569   1.020  0.0948  0.0265 -0.2606
52186SOL     OW61877   6.225   3.154   2.083  0.0355 -0.3591  0.5951
52186SOL    HW161878   6.203   3.074   2.131 -0.3524  0.3035  1.5715
52186SOL    HW261879   6.191   3.224   2.139 -1.8955  0.4050 -1.4153
52187SOL     OW61880   8.260   0.131   9.839  0.4887  0.0868 -0.0932
52187SOL    HW161881   8.169   0.146   9.864 -0.1633 -1.1814 -1.5720
52187SOL    HW261882   8.287   0.212   9.796 -1.5979 -1.1047 -4.1080
52188SOL     OW61883   3.444   7.936   6.839 -0.0638  0.2326  0.1722
52188SOL    HW161884   3.533   7.964   6.817 -0.9390  1.6563 -1.9101
52188SOL    HW261885   3.434   7.850   6.796  0.5579 -0.3293  1.1324
52189SOL     OW61886   0.970  11.660   3.701 -0.2636 -0.2684 -0.1399
52189SOL    HW161887   0.997  11.677   3.611 -1.4873 -0.2235 -0.5041
52189SOL    HW261888   1.033  11.710   3.754 -0.2861  0.7009 -1.0020
52190SOL     OW61889   4.473  11.635   1.576 -0.0711 -0.4454  0.0656
52190SOL    HW161890   4.557  11.681   1.578 -0.9606  1.2505  0.4007
52190SOL    HW261891   4.462  11.610   1.485  0.0376  0.8392 -0.3292
52191SOL     OW61892  10.676   7.688   9.427  0.4176  0.2350  0.0743
52191SOL    HW161893  10.724   7.687   9.509  1.7120  3.1233 -0.5280
52191SOL    HW261894  10.711   7.614   9.377  1.5662  0.0737  1.0952
52192SOL     OW61895   5.431   0.790   8.474 -0.1073  0.2455  0.1941
52192SOL    HW161896   5.352   0.843   8.477 -1.1467 -1.2572  0.2108
52192SOL    HW261897   5.451   0.782   8.380 -0.0657  0.4793  0.1819
52193SOL     OW61898   3.202   5.525   8.956 -0.1137  0.2552 -0.0325
52193SOL    HW161899   3.225   5.592   8.891 -1.3675  0.1577 -0.6104
52193SOL    HW261900   3.273   5.461   8.951  0.9610  1.3770  0.3230
52194SOL     OW61901   3.942   7.738   8.292 -0.0752 -0.6301 -0.3573
52194SOL    HW161902   3.972   7.812   8.239  1.5811 -1.2744 -0.4014
52194SOL    HW261903   3.891   7.777   8.363 -0.5699  0.4091 -1.2759
52195SOL     OW61904   0.105   2.944   2.381 -0.1236  0.4986  0.0417
52195SOL    HW161905   0.125   3.034   2.406  1.6172 -0.0077  0.6108
52195SOL    HW261906   0.146   2.891   2.448 -3.1999 -0.7421  1.1402
52196SOL     OW61907   6.704   3.029   3.913 -0.1459 -0.1375 -0.3132
52196SOL    HW161908   6.755   3.027   3.832 -1.6882  2.1868 -1.4463
52196SOL    HW261909   6.700   3.122   3.936 -1.0713 -0.6081  1.5797
52197SOL     OW61910   8.745  10.548   9.528 -0.5486 -0.6068  0.0358
52197SOL    HW161911   8.743  10.481   9.596 -2.7919 -0.5811  0.0711
52197SOL    HW261912   8.819  10.523   9.472  0.2598 -1.6173  1.4779
52198SOL     OW61913   0.742   7.066   8.117 -0.4512 -0.6728  0.2644
52198SOL    HW161914   0.775   7.141   8.166 -0.1865 -0.3274 -0.4334
52198SOL    HW261915   0.816   7.006   8.113  0.3565  0.3407 -1.7867
52199SOL     OW61916  10.798   2.585   8.907  0.0216 -0.0701  0.6965
52199SOL    HW161917  10.706   2.572   8.932 -0.0104  0.1352  0.6903
52199SOL    HW261918  10.806   2.541   8.822 -0.2679  0.5517  0.3377
52200SOL     OW61919   7.304  11.720   0.996 -0.0985 -0.0637 -0.0916
52200SOL    HW161920   7.376  11.772   0.961  0.7497 -1.3176 -0.2781
52200SOL    HW261921   7.282  11.762   1.079  1.1677  0.0881  0.1930
52201SOL     OW61922   9.102  10.884   9.394 -0.1528  0.0843  0.4549
52201SOL    HW161923   9.037  10.828   9.436  1.0819 -1.3341  0.5615
52201SOL    HW261924   9.067  10.973   9.403 -2.6713 -0.7181 -0.5987
52202SOL     OW61925   0.983   6.742   5.999 -1.3574  0.0102  0.2767
52202SOL    HW161926   1.037   6.723   6.076 -2.3214 -2.4233  0.4423
52202SOL    HW261927   1.025   6.694   5.927 -2.9320 -1.5131  0.3015
52203SOL     OW61928   5.826   2.092   4.657  0.4767 -0.0155  0.3373
52203SOL    HW161929   5.872   2.138   4.727  1.6161 -0.3051 -0.2115
52203SOL    HW261930   5.769   2.030   4.702 -1.4824  2.1801  1.1406
52204SOL     OW61931  11.003   5.539   7.154  0.3805 -0.4990  0.0698
52204SOL    HW161932  11.052   5.463   7.186  0.7283  0.4047  1.8295
52204SOL    HW261933  10.946   5.564   7.227  2.7559  2.9929  1.0174
52205SOL     OW61934  10.290  11.432   5.324  0.5676  0.3460  0.7849
52205SOL    HW161935  10.295  11.385   5.408 -0.6939  0.3742  0.8846
52205SOL    HW261936  10.303  11.363   5.258  1.2028  0.2653  0.9873
52206SOL     OW61937   1.816   4.130  10.987  0.5716 -0.5571  0.0316
52206SOL    HW161938   1.754   4.108  11.056 -1.1390  0.1379 -1.2091
52206SOL    HW261939   1.824   4.225  10.990  0.2455 -0.4922 -0.9055
52207SOL     OW61940  10.038   4.236  10.668  0.0276 -0.2451  0.5094
52207SOL    HW161941  10.074   4.317  10.633  0.3458 -0.7884 -0.4644
52207SOL    HW261942  10.079   4.226  10.754  0.0729  0.5588  0.5846
52208SOL     OW61943   7.027   9.565   8.366  0.6016 -0.0592  0.5092
52208SOL    HW161944   7.083   9.643   8.374 -0.7360  1.0015 -0.1101
52208SOL    HW261945   7.087   9.495   8.341  1.6109  1.1187 -0.4933
52209SOL     OW61946   8.294  11.734   1.799  0.0156  0.3969  0.1358
52209SOL    HW161947   8.257  11.797   1.736  1.3532 -1.1103 -2.2947
52209SOL    HW261948   8.334  11.667   1.744  0.6889 -1.3661  2.6610
52210SOL     OW61949   7.533  10.335   1.144 -1.0534 -0.0585  0.0492
52210SOL    HW161950   7.444  10.349   1.109 -0.2734  1.6142 -1.4131
52210SOL    HW261951   7.542  10.400   1.213 -1.4431 -1.2079  1.2197
52211SOL     OW61952   1.429   9.314   6.539 -0.3247  0.5218  0.0533
52211SOL    HW161953   1.520   9.343   6.531 -0.4701  1.0748  0.3918
52211SOL    HW261954   1.393   9.322   6.451  0.0786 -0.1393 -0.1822
52212SOL     OW61955   6.130   6.386   8.539  0.5074  0.0339 -0.0529
52212SOL    HW161956   6.142   6.418   8.450 -0.8100  0.5309 -0.0758
52212SOL    HW261957   6.069   6.448   8.579  1.0553 -0.1933  1.1950
52213SOL     OW61958   9.636  11.525   2.153 -0.2730 -0.0739 -0.1447
52213SOL    HW161959   9.568  11.461   2.129  0.3409 -1.2540  1.1088
52213SOL    HW261960   9.678  11.487   2.230  0.0223  1.9404  0.7452
52214SOL     OW61961   0.938   8.516   0.314  0.1395  0.1620  0.2787
52214SOL    HW161962   0.909   8.436   0.358 -0.5929 -0.5082 -1.3228
52214SOL    HW261963   0.964   8.575   0.385  1.3961 -1.7258  1.4903
52215SOL     OW61964   0.381   0.748   4.770  0.0679  0.2432 -0.3719
52215SOL    HW161965   0.410   0.759   4.679  1.7705 -1.1201 -0.0439
52215SOL    HW261966   0.344   0.660   4.773  0.9295 -0.1114  0.4516
52216SOL     OW61967  11.616   2.768   8.075  0.7544 -0.1423  0.0611
52216SOL    HW161968  11.528   2.807   8.070  1.2362  1.0540  0.4566
52216SOL    HW261969  11.625   2.719   7.994 -0.0529  0.2502 -0.2802
52217SOL     OW61970   4.053   3.688   9.578  0.0722  0.1980  0.0449
52217SOL    HW161971   4.100   3.630   9.518 -2.0403  0.2619 -1.8235
52217SOL    HW261972   3.968   3.646   9.590  0.0134  0.8037  2.1270
52218SOL     OW61973   5.572  11.531   3.278 -0.4264  0.3150  0.3814
52218SOL    HW161974   5.556  11.613   3.232 -1.9419 -0.7640 -1.1183
52218SOL    HW261975   5.539  11.546   3.367 -1.0263  1.1904  0.0231
52219SOL     OW61976   2.754   8.208   8.762  0.4540  0.5637 -0.5645
52219SOL    HW161977   2.797   8.204   8.847 -0.8579 -1.9053  0.0819
52219SOL    HW261978   2.758   8.301   8.737  0.0283  1.5350  2.6082
52220SOL     OW61979   4.022   6.437   2.430  0.0081 -0.2130  0.0547
52220SOL    HW161980   3.977   6.381   2.367  0.7427 -0.7031 -0.0474
52220SOL    HW261981   3.961   6.444   2.503 -0.4152 -0.5043 -0.2616
52221SOL     OW61982   3.767   6.034   6.469  0.4658 -0.0368  0.0309
52221SOL    HW161983   3.721   6.025   6.385  1.6209  1.0510 -0.7615
52221SOL    HW261984   3.706   5.999   6.534 -0.8523 -0.0129 -1.1474
52222SOL     OW61985   8.523   1.003   6.273 -0.3217  0.1759  0.3964
52222SOL    HW161986   8.501   1.082   6.224 -0.0044 -0.2454 -0.4391
52222SOL    HW261987   8.457   0.939   6.245  0.3768 -0.3182 -0.1389
52223SOL     OW61988   0.774   7.694   0.652  0.0111  0.1385 -0.3853
52223SOL    HW161989   0.815   7.612   0.678  0.4233  0.6433  0.6146
52223SOL    HW261990   0.685   7.689   0.688  0.3048  0.4697  0.4131
52224SOL     OW61991   4.297   6.244   9.872 -0.2837 -0.5575 -0.5415
52224SOL    HW161992   4.246   6.205   9.801 -0.7982 -1.0307  0.0783
52224SOL    HW261993   4.291   6.181   9.944 -0.1574  0.1293  0.0835
52225SOL     OW61994  10.432   6.313   6.777 -0.0098 -0.3787  0.0079
52225SOL    HW161995  10.369   6.372   6.817 -1.5376 -0.7313 -1.7398
52225SOL    HW261996  10.475   6.269   6.850 -1.7241 -0.0464  1.2558
52226SOL     OW61997   5.776   6.728   4.662  0.5262 -0.3496 -0.2343
52226SOL    HW161998   5.825   6.754   4.740  0.2182 -0.4343 -0.0085
52226SOL    HW261999   5.794   6.634   4.653  0.9443 -0.2385 -0.5433
52227SOL     OW62000   2.411   1.441   2.729 -0.3671 -0.2416  0.3362
52227SOL    HW162001   2.432   1.403   2.644  0.4113  0.7215  0.0758
52227SOL    HW262002   2.465   1.393   2.792  1.4121  1.0710 -0.1155
52228SOL     OW62003   5.188   5.493   1.219 -0.0620  0.5839  0.3614
52228SOL    HW162004   5.248   5.501   1.145  1.6723 -0.0557  1.6204
52228SOL    HW262005   5.192   5.401   1.243 -0.4975  0.8018  1.3155
52229SOL     OW62006   2.782   0.793   9.214  0.2370  0.0383 -0.4012
52229SOL    HW162007   2.757   0.773   9.304  2.0671  0.4221  0.2490
52229SOL    HW262008   2.809   0.709   9.177 -0.1848 -0.0623 -0.4823
52230SOL     OW62009   8.450   8.186   2.658  0.1552 -0.1185  0.4814
52230SOL    HW162010   8.464   8.280   2.660  3.0770 -0.4617  1.9321
52230SOL    HW262011   8.461   8.162   2.566 -1.0563  0.9693  0.0318
52231SOL     OW62012   8.841  10.443   8.427 -0.3541  0.4710 -0.5322
52231SOL    HW162013   8.760  10.393   8.434  0.3183 -0.6037 -0.2888
52231SOL    HW262014   8.829  10.517   8.487 -0.8829 -0.0466  0.0066
52232SOL     OW62015   3.197   6.470   9.688  0.0880 -0.2744  0.6687
52232SOL    HW162016   3.118   6.504   9.730 -0.6935 -1.6565  0.3627
52232SOL    HW262017   3.269   6.518   9.730 -0.9946  3.1025 -0.9922
52233SOL     OW62018   5.881   8.568   8.336 -0.1785  0.3571 -0.0482
52233SOL    HW162019   5.911   8.507   8.403  0.1864 -0.6680 -1.1119
52233SOL    HW262020   5.953   8.570   8.272 -0.9827  0.4356 -0.9757
52234SOL     OW62021   7.096   8.838   6.227  0.6278 -0.7506  0.0889
52234SOL    HW162022   7.093   8.749   6.264  0.5185 -0.0862  1.7675
52234SOL    HW262023   7.158   8.884   6.283 -1.3834  0.9850  1.0121
52235SOL     OW62024   9.519   2.559   8.095  0.3470  1.3198 -0.4123
52235SOL    HW162025   9.465   2.614   8.152  0.2022 -0.0409  0.8386
52235SOL    HW262026   9.596   2.614   8.075  0.7106  1.6565  1.6459
52236SOL     OW62027   3.970   0.950   8.293  0.0824  0.6106  0.1222
52236SOL    HW162028   4.002   0.886   8.356  0.9534  1.6064  0.7136
52236SOL    HW262029   4.048   0.982   8.249 -0.3457  1.2491 -0.1886
52237SOL     OW62030  10.459   5.127  11.720  0.0180 -0.1029  0.5589
52237SOL    HW162031  10.493   5.076  11.793 -0.5929  0.7682  1.4868
52237SOL    HW262032  10.510   5.208  11.721  0.5572 -0.4113 -0.5044
52238SOL     OW62033   2.948   8.150   5.542 -0.2284  0.4564  0.1492
52238SOL    HW162034   2.977   8.125   5.454  0.2658  1.8108 -0.1078
52238SOL    HW262035   2.918   8.241   5.532 -1.1826  0.2691  1.1646
52239SOL     OW62036   8.264  11.281  11.825 -0.4238 -0.5460 -1.0638
52239SOL    HW162037   8.226  11.235  11.751 -1.4220 -1.0741 -0.2618
52239SOL    HW262038   8.193  11.338  11.856 -0.2439 -0.7967 -0.1480
52240SOL     OW62039   9.644   1.352   3.161 -0.0601 -0.2045 -0.0236
52240SOL    HW162040   9.664   1.446   3.160 -0.5075 -0.1102 -1.0603
52240SOL    HW262041   9.578   1.340   3.093 -0.5215 -1.1695  0.5655
52241SOL     OW62042   3.000   4.545  11.436 -0.2104  0.0020  0.0484
52241SOL    HW162043   2.952   4.524  11.516  0.3092 -0.2283  0.3014
52241SOL    HW262044   2.979   4.637  11.419  1.5920  0.7995  1.7954
52242SOL     OW62045  11.398   5.372   7.412  0.1986  0.1528 -0.0887
52242SOL    HW162046  11.450   5.379   7.492 -2.3673  0.0594  1.7382
52242SOL    HW262047  11.341   5.449   7.415 -1.9990 -1.3728 -0.1789
52243SOL     OW62048   7.610   7.260   0.239 -0.0837 -0.0907  0.6714
52243SOL    HW162049   7.534   7.203   0.232 -0.1760  0.1625 -0.7528
52243SOL    HW262050   7.622   7.295   0.150  0.6467  1.2176  1.2543
52244SOL     OW62051   4.258   1.936   6.213  0.5330  0.5470  0.3164
52244SOL    HW162052   4.166   1.945   6.235  0.5374  0.6904  0.2726
52244SOL    HW262053   4.260   1.929   6.118  0.5936  0.8522  0.2953
52245SOL     OW62054   3.678   5.080   0.351  0.0044 -0.9971 -0.5790
52245SOL    HW162055   3.758   5.132   0.356 -0.4500 -0.2029 -1.2494
52245SOL    HW262056   3.642   5.099   0.265 -0.7606 -1.5648 -0.4019
52246SOL     OW62057   1.330  10.990   9.162  0.0825 -0.1150  0.2716
52246SOL    HW162058   1.303  10.899   9.171  0.8491 -0.3101  0.6543
52246SOL    HW262059   1.390  11.005   9.234 -0.3881  0.8381  0.4872
52247SOL     OW62060  11.564   5.100   1.813  0.4246  0.4768  0.0329
52247SOL    HW162061  11.545   5.193   1.827 -0.8611  0.4122 -1.0101
52247SOL    HW262062  11.657   5.096   1.795  0.6094  1.4866  0.7114
52248SOL     OW62063   8.341  11.539   1.587  0.9323  0.0679  0.1688
52248SOL    HW162064   8.365  11.561   1.497  1.4850 -1.7737 -0.1782
52248SOL    HW262065   8.275  11.470   1.578  0.4600  0.3743  1.1798
52249SOL     OW62066   9.154   2.772   7.935 -0.8606 -0.0507  0.0284
52249SOL    HW162067   9.135   2.740   7.847  0.6358  1.0970 -0.7687
52249SOL    HW262068   9.202   2.702   7.977 -0.4353 -0.1084 -0.5469
52250SOL     OW62069   5.594   5.618   8.321  0.3088 -0.0312  0.4026
52250SOL    HW162070   5.571   5.589   8.409 -0.0633  1.7841  0.9429
52250SOL    HW262071   5.606   5.713   8.329  0.7579  0.1040 -1.4022
52251SOL     OW62072   0.908   0.515   3.979 -0.1832  0.0248  0.0362
52251SOL    HW162073   0.900   0.429   3.939  0.1530  0.3849 -0.8357
52251SOL    HW262074   0.853   0.572   3.925 -0.3453  0.3680  0.5605
52252SOL     OW62075  10.148  10.344   2.094 -0.7314 -0.6041  0.0297
52252SOL    HW162076  10.175  10.396   2.170 -1.8614 -0.8515  0.6130
52252SOL    HW262077  10.124  10.408   2.028  1.6918 -0.3515 -0.7107
52253SOL     OW62078  11.125   1.471   9.462  0.3550  0.5313 -0.0502
52253SOL    HW162079  11.138   1.548   9.407  0.4125  1.0065  0.6157
52253SOL    HW262080  11.093   1.404   9.402 -0.0313  1.1778 -0.5790
52254SOL     OW62081   7.780   2.112   3.456  0.3855  0.0416  0.4273
52254SOL    HW162082   7.793   2.182   3.392 -2.7032 -0.5925 -1.1040
52254SOL    HW262083   7.792   2.031   3.406 -0.5492 -0.4640  0.9873
52255SOL     OW62084  10.036   6.597   8.262  0.2203 -0.5648  0.0500
52255SOL    HW162085  10.002   6.511   8.237 -1.1088  0.4125 -1.8121
52255SOL    HW262086   9.970   6.632   8.322 -0.5527  0.0815 -1.1207
52256SOL     OW62087   2.030   9.040   7.146  0.0282 -0.0487  0.3344
52256SOL    HW162088   2.036   8.953   7.107  0.3725  0.5029 -0.8918
52256SOL    HW262089   1.936   9.052   7.162 -0.0726 -0.4577  0.0651
52257SOL     OW62090   9.578   9.629  10.300 -0.2085 -0.3563  0.2099
52257SOL    HW162091   9.543   9.713  10.330 -0.3022  0.1703 -1.3073
52257SOL    HW262092   9.599   9.581  10.381 -0.4326  0.9986  1.0938
52258SOL     OW62093   8.390  11.358   9.375  0.6396  0.0549 -0.1708
52258SOL    HW162094   8.483  11.338   9.379  0.4278 -1.3102 -1.3698
52258SOL    HW262095   8.353  11.321   9.455  0.6385 -2.5034 -1.2492
52259SOL     OW62096   4.583  11.543   6.411 -0.0054  0.2587  0.0486
52259SOL    HW162097   4.506  11.576   6.365 -1.2305 -1.3874  0.8103
52259SOL    HW262098   4.657  11.571   6.357 -1.1846  1.0046 -1.2539
52260SOL     OW62099   3.665   5.780   3.447  0.1938  0.0796  0.1177
52260SOL    HW162100   3.632   5.728   3.373  0.8652  1.0540 -0.8941
52260SOL    HW262101   3.752   5.809   3.420  0.4065  0.5525  1.2474
52261SOL     OW62102  11.146  10.326   4.114  0.3855  0.5074  0.2440
52261SOL    HW162103  11.058  10.336   4.079  0.7236 -0.5799 -1.0040
52261SOL    HW262104  11.189  10.409   4.096 -0.1109  0.7230  0.0433
52262SOL     OW62105   7.377   0.264   4.870 -0.6271 -0.2330  0.0855
52262SOL    HW162106   7.393   0.358   4.868  2.1184 -0.6283  0.5460
52262SOL    HW262107   7.293   0.256   4.916  0.0821  1.9027  1.9327
52263SOL     OW62108   2.191   1.622   9.039 -0.0627  0.4462  0.0107
52263SOL    HW162109   2.097   1.636   9.027  0.0287  0.3581 -0.8558
52263SOL    HW262110   2.198   1.585   9.127 -0.7864  0.9379  0.2875
52264SOL     OW62111   0.849   1.590   0.713 -0.1198 -0.2219  0.3610
52264SOL    HW162112   0.768   1.637   0.730  0.1889  1.9361 -3.1244
52264SOL    HW262113   0.824   1.518   0.655  0.4373  1.1481 -1.7119
52265SOL     OW62114   1.348   3.153   0.253  0.4847  0.2628  0.3524
52265SOL    HW162115   1.305   3.205   0.185 -0.7229 -0.8855  0.1902
52265SOL    HW262116   1.367   3.069   0.210  0.1038 -0.3204  1.2927
52266SOL     OW62117   2.080   2.041   8.166  0.3075  0.5321 -0.1046
52266SOL    HW162118   2.162   2.002   8.136 -0.4776 -0.6268 -0.8226
52266SOL    HW262119   2.106   2.099   8.237  1.6476 -0.5604  0.3456
52267SOL     OW62120   8.777  11.622  11.361 -0.0304 -0.4869  0.5920
52267SOL    HW162121   8.762  11.537  11.320 -1.9131  0.4365 -0.7985
52267SOL    HW262122   8.720  11.682  11.312  0.5703  1.4045  2.1125
52268SOL     OW62123   5.745   4.934   3.255 -0.0033  0.4287 -0.3028
52268SOL    HW162124   5.830   4.938   3.213  1.7599  0.0840  2.9096
52268SOL    HW262125   5.742   5.011   3.312 -0.9497 -0.5990  1.1112
52269SOL     OW62126   5.763   0.987   0.183  0.3840 -0.5189 -0.0440
52269SOL    HW162127   5.851   1.025   0.180  0.4896 -0.7978 -0.6526
52269SOL    HW262128   5.735   1.000   0.273 -0.5287  3.1298 -0.6711
52270SOL     OW62129   5.980   4.048   1.893 -0.2464  0.5253  0.1398
52270SOL    HW162130   6.050   4.113   1.887  0.4783 -0.1047  1.2465
52270SOL    HW262131   5.984   4.017   1.983 -0.9616 -0.6226 -0.1955
52271SOL     OW62132   1.473   8.225   8.220  0.4946 -0.6065 -0.5339
52271SOL    HW162133   1.542   8.164   8.192  0.8954 -0.6055  0.4165
52271SOL    HW262134   1.394   8.172   8.221  1.1834 -1.7877  2.3927
52272SOL     OW62135   8.696   1.911  10.858 -0.7461 -0.5173  0.2884
52272SOL    HW162136   8.663   1.949  10.777 -0.4853 -0.3974  0.2369
52272SOL    HW262137   8.641   1.834  10.873 -2.8909  1.1540  1.6454
52273SOL     OW62138   3.452   8.080   4.959 -0.2738  0.1968 -0.0440
52273SOL    HW162139   3.429   8.052   4.871 -1.3502  1.3088 -0.1445
52273SOL    HW262140   3.485   8.001   5.002  1.3225 -0.1246 -1.7546
52274SOL     OW62141   0.953   9.396   2.226  0.0056 -0.1660  0.2658
52274SOL    HW162142   0.987   9.351   2.149 -0.0725  4.1752 -2.6579
52274SOL    HW262143   1.031   9.418   2.277  0.2778 -1.2054  0.3181
52275SOL     OW62144   6.822   4.548   1.296  0.1269  0.0833 -0.4876
52275SOL    HW162145   6.849   4.640   1.301  0.3354 -0.0410  2.3262
52275SOL    HW262146   6.904   4.499   1.302 -0.1524 -0.2577  0.8629
52276SOL     OW62147   1.212   9.873   6.134 -0.4532  0.0332  0.4269
52276SOL    HW162148   1.157   9.898   6.208  0.2139 -0.2105  1.0164
52276SOL    HW262149   1.292   9.924   6.145  0.3176 -1.1952  0.8152
52277SOL     OW62150   3.828   5.863  11.390  0.0770  0.6659 -0.2508
52277SOL    HW162151   3.823   5.788  11.331  0.4221  0.2220  0.2763
52277SOL    HW262152   3.918   5.863  11.422 -0.0802  0.9591  0.2029
52278SOL     OW62153   3.561  11.400   4.466 -0.1822 -1.0098  0.1642
52278SOL    HW162154   3.639  11.396   4.411 -0.4974  0.4936 -0.4546
52278SOL    HW262155   3.488  11.390   4.405 -0.5052 -0.4479  0.4435
52279SOL     OW62156   8.263   9.120   6.080  0.6772 -0.1484  0.0900
52279SOL    HW162157   8.353   9.099   6.056  0.9562  1.2185 -0.1529
52279SOL    HW262158   8.230   9.172   6.007 -0.2405 -0.4293  0.2835
52280SOL     OW62159   3.519  11.231   9.544  0.0682 -0.0850  0.0712
52280SOL    HW162160   3.445  11.197   9.493 -0.6874  1.8922 -0.2289
52280SOL    HW262161   3.490  11.227   9.635 -0.2437  0.2850 -0.0107
52281SOL     OW62162   4.998   3.502   8.204  0.0462 -0.5189  0.9631
52281SOL    HW162163   5.011   3.587   8.248 -0.8838  0.4705 -0.5794
52281SOL    HW262164   5.072   3.494   8.145  0.9770 -1.5711  2.2073
52282SOL     OW62165   3.121  11.057   2.920  0.2043  0.2795  0.0598
52282SOL    HW162166   3.196  11.104   2.957 -0.2165 -0.8189  2.5586
52282SOL    HW262167   3.045  11.098   2.961 -0.3353 -0.6358  0.0016
52283SOL     OW62168   6.924  11.117   3.391  0.0407  0.2120 -0.7895
52283SOL    HW162169   6.991  11.085   3.331 -0.5619 -2.0834 -0.3244
52283SOL    HW262170   6.898  11.040   3.441 -0.9881  1.6145  0.9611
52284SOL     OW62171  10.558   9.121   3.927 -0.4196  0.1612 -0.2564
52284SOL    HW162172  10.520   9.187   3.985 -3.0133 -0.6468 -0.8849
52284SOL    HW262173  10.590   9.052   3.985  0.1211  0.8951  0.3163
52285SOL     OW62174   6.096   0.093   7.573 -0.9281  0.1547 -0.0356
52285SOL    HW162175   6.028   0.152   7.605 -1.1521  0.5558 -1.2212
52285SOL    HW262176   6.175   0.120   7.620 -1.4378  0.0945  0.8837
52286SOL     OW62177   6.832   7.699   0.675 -0.4212 -0.3895  0.9324
52286SOL    HW162178   6.842   7.728   0.584 -4.0345  1.4894  0.9878
52286SOL    HW262179   6.877   7.766   0.727  1.0542 -1.1128  0.6736
52287SOL     OW62180   9.108   5.890  10.667  0.4282  0.1592  0.1321
52287SOL    HW162181   9.033   5.833  10.683  0.9489 -0.2717  1.1245
52287SOL    HW262182   9.159   5.887  10.748  0.7016  1.7104  0.0547
52288SOL     OW62183   2.533   5.067   2.312 -0.0045  0.1604  0.6381
52288SOL    HW162184   2.601   5.027   2.366 -0.9051 -1.1216  0.8479
52288SOL    HW262185   2.538   5.020   2.228  0.1793  0.9131  0.2135
52289SOL     OW62186   7.432   2.946   0.654 -0.7710 -0.7295  0.1530
52289SOL    HW162187   7.524   2.956   0.631 -0.3627 -0.2736  1.9058
52289SOL    HW262188   7.406   2.863   0.613  0.2896 -0.6695 -0.6724
52290SOL     OW62189   6.319   8.873  11.013 -0.0638  0.4531  0.3701
52290SOL    HW162190   6.411   8.901  11.014  0.0320  0.1330  0.5684
52290SOL    HW262191   6.273   8.940  11.064 -0.3988  2.1530 -1.9998
52291SOL     OW62192   3.524   2.800   2.008  0.7446  0.4819  0.5236
52291SOL    HW162193   3.596   2.863   2.001  0.1877  1.0123 -0.5869
52291SOL    HW262194   3.559   2.730   2.063  1.6694  1.3422  1.0721
52292SOL     OW62195   6.331   9.132   6.914  0.0324 -0.6762  0.8614
52292SOL    HW162196   6.292   9.149   6.828 -3.2695 -1.4924  2.0554
52292SOL    HW262197   6.330   9.218   6.957 -1.7318 -0.8647  1.2891
52293SOL     OW62198   7.810  11.351   2.139  0.3857 -0.2527  0.1372
52293SOL    HW162199   7.887  11.294   2.138  0.0316 -0.7457  0.3564
52293SOL    HW262200   7.772  11.340   2.052 -0.2128 -1.1028  0.4896
52294SOL     OW62201   5.154   6.869   7.831 -0.2082  0.3770  0.7201
52294SOL    HW162202   5.163   6.951   7.782 -1.8461  0.1604 -0.0149
52294SOL    HW262203   5.117   6.808   7.768  0.2668 -0.7151  1.4767
52295SOL     OW62204   6.617   4.557   3.530 -0.1728 -0.4375  0.1354
52295SOL    HW162205   6.617   4.478   3.584 -0.2049 -0.1936  0.4894
52295SOL    HW262206   6.628   4.629   3.592  5.0649 -0.3429 -0.4484
52296SOL     OW62207   2.510   5.916   0.159  0.4165  0.6931 -0.6312
52296SOL    HW162208   2.539   5.985   0.219  3.5035  0.5718 -1.8107
52296SOL    HW262209   2.574   5.917   0.088  0.1935 -2.8908 -1.0880
52297SOL     OW62210   6.770   8.436   7.768 -0.0278 -0.8301  0.0990
52297SOL    HW162211   6.685   8.452   7.808  1.3985  0.0820  3.1246
52297SOL    HW262212   6.791   8.345   7.792 -0.5206 -1.3955 -1.5075
52298SOL     OW62213   9.958   3.897   4.850  0.2561 -0.3913  0.0314
52298SOL    HW162214  10.048   3.881   4.879  0.4719  1.0156  0.2003
52298SOL    HW262215   9.964   3.900   4.755  0.4919  0.2913  0.0671
52299SOL     OW62216   6.221   8.385  10.018  0.8314 -0.0215 -0.0828
52299SOL    HW162217   6.242   8.427  10.101 -0.0376  0.7036 -0.2156
52299SOL    HW262218   6.140   8.337  10.036 -0.5138  1.7870 -1.0007
52300SOL     OW62219   9.021   6.959   2.834  0.0164 -0.1504  0.1792
52300SOL    HW162220   9.040   6.865   2.826  1.0023  0.0609  0.0025
52300SOL    HW262221   9.106   7.000   2.845 -0.3202  0.8262 -0.7474
52301SOL     OW62222   6.508   5.864   2.138 -0.0581  0.4403 -0.5978
52301SOL    HW162223   6.464   5.815   2.208 -1.1397  1.4648 -0.5239
52301SOL    HW262224   6.565   5.925   2.184 -1.3111  1.6232 -0.5256
52302SOL     OW62225   5.228   9.907   6.499 -0.4044 -0.0211 -0.3505
52302SOL    HW162226   5.195   9.817   6.509  0.4196 -0.5004 -1.6425
52302SOL    HW262227   5.260   9.931   6.585 -0.7622 -0.9157  0.0461
52303SOL     OW62228   6.202   1.419  10.882 -0.3718  0.0909 -0.4078
52303SOL    HW162229   6.257   1.347  10.849  0.1358 -0.1366  0.8864
52303SOL    HW262230   6.232   1.496  10.832  0.4302 -0.2235 -0.4325
52304SOL     OW62231   9.751   2.974   9.770  0.3806 -0.1599 -0.2779
52304SOL    HW162232   9.716   2.912   9.834 -0.9763  0.8141 -0.0337
52304SOL    HW262233   9.843   2.982   9.793 -0.1317  0.4208  1.8176
52305SOL     OW62234   5.862  11.759   4.491  0.0229 -0.4203 -0.1869
52305SOL    HW162235   5.809  11.699   4.544  1.3173 -0.6684  0.8856
52305SOL    HW262236   5.821  11.845   4.503  0.0093 -0.5600  0.8675
52306SOL     OW62237   0.714  10.263   0.016 -0.1780 -0.4017  0.3426
52306SOL    HW162238   0.728  10.281   0.109 -0.9186  0.3693  0.3205
52306SOL    HW262239   0.671  10.177   0.014  1.9324 -1.5205  0.5530
52307SOL     OW62240  11.151   2.086  10.960  0.2147 -0.1388 -0.1540
52307SOL    HW162241  11.148   2.145  11.036 -0.0714 -2.7097  1.9975
52307SOL    HW262242  11.232   2.037  10.971  0.3856 -0.2895 -1.7973
52308SOL     OW62243  10.950   0.924  10.438 -0.1190 -0.1716 -0.1216
52308SOL    HW162244  10.963   0.962  10.525 -0.4154 -0.0948 -0.1098
52308SOL    HW262245  10.973   0.995  10.378  0.9328 -0.4906 -0.1250
52309SOL     OW62246  11.097   8.609  10.369 -0.0980 -0.4936  0.0792
52309SOL    HW162247  11.069   8.534  10.318 -2.0885  0.2729 -0.0373
52309SOL    HW262248  11.175   8.641  10.324 -0.6455 -1.0330 -1.2913
52310SOL     OW62249  10.154   1.880  10.591  0.2588  0.2138 -0.3121
52310SOL    HW162250  10.246   1.882  10.565 -0.2669  0.3627 -2.2999
52310SOL    HW262251  10.107   1.850  10.513 -1.2894 -0.9593  0.9872
52311SOL     OW62252  11.057   9.792  10.824  0.4409  0.2526  0.5090
52311SOL    HW162253  11.146   9.815  10.797  0.4388 -0.5853 -0.2305
52311SOL    HW262254  11.050   9.698  10.809 -0.6950  0.3686  0.2091
52312SOL     OW62255   9.615   7.428   2.643 -0.1562 -0.0220  0.7211
52312SOL    HW162256   9.704   7.394   2.635 -0.4478 -1.0853  1.6581
52312SOL    HW262257   9.560   7.350   2.643 -1.1901  0.6595 -0.7972
52313SOL     OW62258   3.592  10.127   2.664 -0.1277  0.0161 -0.4350
52313SOL    HW162259   3.581  10.139   2.569 -0.2203  0.2113 -0.3999
52313SOL    HW262260   3.510  10.086   2.692  0.6207 -1.7884 -0.7358
52314SOL     OW62261   4.540   3.700  10.065  0.5465  0.0977  0.0403
52314SOL    HW162262   4.578   3.784  10.090 -1.3548  1.0485 -0.0163
52314SOL    HW262263   4.455   3.698  10.109  0.6310 -1.9170  0.2143
52315SOL     OW62264  10.663   6.849   8.394 -0.0287  0.1879  0.4202
52315SOL    HW162265  10.689   6.895   8.314  1.0591 -1.9948 -0.5553
52315SOL    HW262266  10.743   6.807   8.424 -0.8465 -0.5726  1.6192
52316SOL     OW62267   4.355  10.102   7.166  0.3130 -0.2329  0.1529
52316SOL    HW162268   4.384  10.080   7.077  0.1246 -1.4883  0.3748
52316SOL    HW262269   4.431  10.145   7.206  1.0775 -1.3514 -0.0305
52317SOL     OW62270   3.471   3.293   7.238  0.1466  0.3766  0.1554
52317SOL    HW162271   3.559   3.256   7.230 -0.8322 -1.8328 -1.7472
52317SOL    HW262272   3.413   3.217   7.228 -2.0459  1.2457  4.1692
52318SOL     OW62273   3.361   8.044   1.166 -0.3773  0.0326  0.6751
52318SOL    HW162274   3.287   8.072   1.219 -0.0877  1.5944  0.2950
52318SOL    HW262275   3.417   8.121   1.159  0.9407 -0.9107  0.3572
52319SOL     OW62276   7.031   6.288   5.164 -0.1392 -0.5010 -0.6580
52319SOL    HW162277   7.064   6.347   5.096 -1.5829 -0.6456 -1.5015
52319SOL    HW262278   7.026   6.344   5.242 -0.5103  0.2383 -1.1963
52320SOL     OW62279   9.790  10.270   2.351  0.4274  0.6970  0.4785
52320SOL    HW162280   9.879  10.236   2.344  0.1185 -0.0484  0.1400
52320SOL    HW262281   9.788  10.344   2.290  0.4309 -0.1122 -0.5263
52321SOL     OW62282  11.128   5.416  10.228 -0.3344  0.0017  0.1753
52321SOL    HW162283  11.148   5.385  10.139  1.0886  1.3168  0.0004
52321SOL    HW262284  11.192   5.484  10.245 -1.3204  0.5864  1.7988
52322SOL     OW62285   4.971   3.260   9.909  0.3006  0.7345 -0.5279
52322SOL    HW162286   4.879   3.275   9.887 -0.1175  0.7893  1.1214
52322SOL    HW262287   5.019   3.285   9.830 -1.1173  0.2024 -1.6032
52323SOL     OW62288  11.616   2.173   8.357 -0.1042 -0.2693  0.3085
52323SOL    HW162289  11.706   2.200   8.336  0.0944  2.0697  3.5023
52323SOL    HW262290  11.572   2.253   8.385 -2.6522 -1.6765  0.6242
52324SOL     OW62291   7.536  10.818   9.122  0.2088 -0.0210  0.3599
52324SOL    HW162292   7.444  10.837   9.105  0.9397  3.7975 -0.2857
52324SOL    HW262293   7.567  10.775   9.042 -0.7003 -0.0610  0.0265
52325SOL     OW62294   0.078   5.203   5.844 -0.0226  0.3746 -0.5059
52325SOL    HW162295   0.023   5.178   5.770 -1.7173  1.3881  0.3404
52325SOL    HW262296   0.029   5.273   5.888  2.3438  1.9668 -0.1730
52326SOL     OW62297   5.919   4.912   2.646 -0.1270  0.0819 -0.3940
52326SOL    HW162298   5.997   4.860   2.623 -0.7676 -1.8011  1.3672
52326SOL    HW262299   5.932   4.995   2.601  2.8163 -0.2239 -0.3516
52327SOL     OW62300   4.123  10.290   0.760 -0.2784  0.0508 -0.1568
52327SOL    HW162301   4.072  10.209   0.768 -0.6434  0.4367  1.9045
52327SOL    HW262302   4.206  10.263   0.721 -1.1183 -0.9831 -1.2929
52328SOL     OW62303   8.802   7.593   1.452  0.2296  0.5850 -0.4309
52328SOL    HW162304   8.820   7.530   1.383  2.7400 -1.0685  1.5295
52328SOL    HW262305   8.881   7.647   1.456  0.9811 -0.5273  2.1955
52329SOL     OW62306   9.301   2.161  11.671 -0.3344 -0.1943  0.1510
52329SOL    HW162307   9.392   2.182  11.652 -0.3188 -0.0568  0.3698
52329SOL    HW262308   9.305   2.085  11.728 -0.3678 -0.3904 -0.1071
52330SOL     OW62309   5.460  10.805  11.602 -0.7190  0.1559 -0.3508
52330SOL    HW162310   5.406  10.727  11.607  0.4145 -0.6415  3.7249
52330SOL    HW262311   5.548  10.774  11.626  1.1845  1.7791 -4.4217
52331SOL     OW62312   7.577  10.245   5.441 -0.1538 -0.0619  0.2188
52331SOL    HW162313   7.573  10.168   5.385  1.6197  0.0205 -0.0724
52331SOL    HW262314   7.516  10.307   5.401  1.0309 -0.0235 -1.6454
52332SOL     OW62315  10.097   4.501   8.369  0.0673  0.0565 -0.2968
52332SOL    HW162316  10.089   4.423   8.314 -1.1204  1.5904 -2.4852
52332SOL    HW262317  10.097   4.468   8.459 -1.1218 -2.4026 -1.1166
52333SOL     OW62318   6.306   3.411   3.372  0.3947 -0.1949 -0.0228
52333SOL    HW162319   6.228   3.356   3.380  1.1017 -0.9771  2.1251
52333SOL    HW262320   6.373   3.352   3.338  0.3765  0.1577 -0.6776
52334SOL     OW62321   9.446   5.495  10.320 -0.2280 -0.0379 -0.1458
52334SOL    HW162322   9.531   5.481  10.363 -0.4160  1.6284  0.8547
52334SOL    HW262323   9.384   5.443  10.372 -0.1476  0.4857  0.4997
52335SOL     OW62324   8.651  11.365   2.210 -0.0548 -0.0111  0.1785
52335SOL    HW162325   8.696  11.348   2.293 -0.9209  0.0986  0.6766
52335SOL    HW262326   8.703  11.318   2.144  0.1402 -0.8178  0.8977
52336SOL     OW62327   3.340  11.448   2.637 -0.3367 -0.2385 -0.3808
52336SOL    HW162328   3.422  11.408   2.608  1.5511  3.0760 -0.2015
52336SOL    HW262329   3.348  11.452   2.732 -0.2544  0.8853 -0.4241
52337SOL     OW62330   1.630   1.654   5.740 -0.3645  0.1357  0.2299
52337SOL    HW162331   1.652   1.607   5.659  0.0583  0.8573 -0.0832
52337SOL    HW262332   1.598   1.586   5.799  0.7499 -0.6316 -0.0261
52338SOL     OW62333   6.661   1.706  10.710 -0.6794 -0.8948  0.1185
52338SOL    HW162334   6.638   1.695  10.617  0.4020  0.5119 -0.3513
52338SOL    HW262335   6.676   1.800  10.720 -0.8709 -1.0110  1.7602
52339SOL     OW62336   5.892   3.988   5.954  0.5554  0.4449 -0.2784
52339SOL    HW162337   5.942   4.042   6.015  3.4472 -2.2842  0.0062
52339SOL    HW262338   5.893   3.900   5.991 -2.5636 -0.2660 -1.5109
52340SOL     OW62339   9.460   5.162   6.005 -0.1603  0.0699  0.1601
52340SOL    HW162340   9.438   5.136   5.916 -0.1140 -1.8614  0.6587
52340SOL    HW262341   9.376   5.167   6.050 -0.2286  1.5689 -0.0949
52341SOL     OW62342   4.799   9.829  10.602  0.1758 -0.1546 -0.2940
52341SOL    HW162343   4.755   9.883  10.667  2.2597  0.9246  0.3155
52341SOL    HW262344   4.849   9.766  10.653 -1.7877 -2.4199 -0.9947
52342SOL     OW62345   0.872   9.589   2.998  0.2430  0.7949  0.1350
52342SOL    HW162346   0.930   9.647   3.048 -0.3984  1.6939 -0.1404
52342SOL    HW262347   0.787   9.599   3.040 -0.1546  1.0486 -0.7110
52343SOL     OW62348   5.896   9.317   9.814 -0.0857  0.1763  0.2109
52343SOL    HW162349   5.889   9.302   9.908  1.4429  0.7518  0.4417
52343SOL    HW262350   5.810   9.290   9.779 -1.2036  1.3375  1.9234
52344SOL     OW62351  10.502   8.861  10.769 -0.9142 -0.2489  0.5497
52344SOL    HW162352  10.463   8.905  10.693 -1.7332 -3.0020 -0.7178
52344SOL    HW262353  10.596   8.857  10.748 -0.7923  0.9335  0.7617
52345SOL     OW62354   2.701   0.373   9.376  0.2297  0.0343  0.1224
52345SOL    HW162355   2.641   0.446   9.359 -0.5363 -0.2593  1.4282
52345SOL    HW262356   2.758   0.405   9.445 -0.3634 -0.7205  0.9852
52346SOL     OW62357   8.196   6.180   1.392  0.5509  0.1473  0.3545
52346SOL    HW162358   8.261   6.200   1.460  0.4955 -3.4163  1.6689
52346SOL    HW262359   8.177   6.265   1.352  2.1730  2.1288  3.3462
52347SOL     OW62360   1.668   1.093   8.229  0.2786  0.4739  0.0269
52347SOL    HW162361   1.672   1.009   8.274 -0.9322 -0.0960 -0.8629
52347SOL    HW262362   1.728   1.084   8.155 -0.2495  0.1846 -0.3730
52348SOL     OW62363  11.224   2.516   6.091 -0.2116 -0.6822 -0.2899
52348SOL    HW162364  11.169   2.449   6.132 -1.2338  0.3819  0.1227
52348SOL    HW262365  11.182   2.599   6.113  1.6965  0.2038  0.2464
52349SOL     OW62366   8.955   0.592   9.765 -0.5215  0.2167  0.4440
52349SOL    HW162367   9.029   0.652   9.777  0.6081 -1.0482 -0.0013
52349SOL    HW262368   8.891   0.620   9.831  0.0038  1.8372  0.3100
52350SOL     OW62369   8.608   4.439   9.948 -0.0305  0.0014  0.0832
52350SOL    HW162370   8.661   4.362   9.929  0.6558  0.4303  0.2425
52350SOL    HW262371   8.569   4.463   9.864 -0.8861 -0.9821  0.1833
52351SOL     OW62372   7.073   7.398  10.110  0.5743  0.0088 -0.3464
52351SOL    HW162373   7.020   7.469  10.073 -0.3516 -0.5705 -0.1667
52351SOL    HW262374   7.056   7.324  10.052  2.1439  0.1173 -0.9942
52352SOL     OW62375  11.367   0.314   6.293  0.3285 -0.1212 -0.2296
52352SOL    HW162376  11.361   0.335   6.199  0.3899 -0.1806 -0.2471
52352SOL    HW262377  11.291   0.356   6.332  1.0384  1.0738 -0.0870
52353SOL     OW62378  11.124   1.465   6.082 -0.0154 -0.0035  0.1976
52353SOL    HW162379  11.209   1.507   6.094 -0.1646  0.0349  1.2048
52353SOL    HW262380  11.135   1.409   6.005  0.1868  1.8503 -1.1889
52354SOL     OW62381   8.595   3.865   9.610  1.2422  0.2411 -0.2122
52354SOL    HW162382   8.596   3.791   9.671  2.0147  1.3408  1.1864
52354SOL    HW262383   8.644   3.834   9.534 -0.2544 -1.3728 -0.5804
52355SOL     OW62384  10.997   0.649   2.558 -0.5082  0.2944  0.3092
52355SOL    HW162385  10.957   0.736   2.570 -1.4281 -0.2933  1.6318
52355SOL    HW262386  10.978   0.602   2.639  0.7086 -0.8818 -0.0555
52356SOL     OW62387   1.693   6.220   4.982  0.2969 -0.5070 -0.4548
52356SOL    HW162388   1.671   6.127   4.983 -0.3733 -0.3674 -1.0985
52356SOL    HW262389   1.659   6.254   5.065 -1.0820 -0.4927 -1.0072
52357SOL     OW62390   8.682  10.672   1.661  0.3906  0.3350 -0.4166
52357SOL    HW162391   8.656  10.687   1.752  1.1316  0.2888 -0.1885
52357SOL    HW262392   8.769  10.712   1.654 -0.1174  1.3384 -1.4142
52358SOL     OW62393  11.588   8.621   4.898 -0.3109  0.3153 -0.3899
52358SOL    HW162394  11.660   8.595   4.840 -0.1093 -0.1918  0.0805
52358SOL    HW262395  11.622   8.606   4.986 -0.6110  1.0999 -0.1320
52359SOL     OW62396   7.319   0.181   7.676 -0.1856  0.0367  0.3250
52359SOL    HW162397   7.404   0.167   7.636 -1.0357  0.8244 -1.9458
52359SOL    HW262398   7.325   0.268   7.716 -0.0782  0.3205 -0.2989
52360SOL     OW62399  11.351   8.372  11.227 -0.5237  0.8242  0.2061
52360SOL    HW162400  11.446   8.381  11.219  0.0703 -1.6809  2.7878
52360SOL    HW262401  11.323   8.343  11.141  0.8817  2.3071 -0.8265
52361SOL     OW62402   9.285   9.668  11.451  0.4736 -0.1734 -0.3174
52361SOL    HW162403   9.289   9.573  11.441  1.8993 -0.2037  0.2266
52361SOL    HW262404   9.374   9.698  11.430  0.1658  0.9838 -0.0447
52362SOL     OW62405   2.210   8.918   7.586  0.6632  0.4887 -0.2764
52362SOL    HW162406   2.275   8.982   7.615  0.2264  2.0696 -2.5309
52362SOL    HW262407   2.149   8.910   7.660  2.0311  0.8383  0.9287
52363SOL     OW62408   7.557  11.585   5.604 -0.5073  0.1080  0.4197
52363SOL    HW162409   7.509  11.650   5.553 -0.4694  0.5637  0.9585
52363SOL    HW262410   7.506  11.576   5.684 -0.1021  0.0322  0.6714
52364SOL     OW62411   1.164   9.621   5.658 -0.7253  0.5318 -0.7309
52364SOL    HW162412   1.205   9.601   5.574  0.0884 -0.6079 -0.0924
52364SOL    HW262413   1.074   9.591   5.648 -0.3452 -0.5951 -0.8418
52365SOL     OW62414   8.037   0.393   8.620  0.6863  0.4423 -0.8658
52365SOL    HW162415   8.111   0.382   8.560  0.4850  4.3316 -2.0863
52365SOL    HW262416   8.068   0.456   8.685 -0.4882 -0.5637  0.7729
52366SOL     OW62417   2.748   5.399   3.801  0.2453 -0.4015  0.2178
52366SOL    HW162418   2.820   5.344   3.833  0.4071 -0.6915 -0.6213
52366SOL    HW262419   2.786   5.445   3.726  0.0145  0.6180  0.7165
52367SOL     OW62420   0.471   3.731   2.538  0.4425  0.0740  0.1905
52367SOL    HW162421   0.389   3.780   2.539  0.1108 -0.4094 -1.0301
52367SOL    HW262422   0.446   3.643   2.510  1.3558 -0.1230 -0.0458
52368SOL     OW62423  11.697   6.959   4.018 -0.9100 -0.3002 -0.3764
52368SOL    HW162424  11.778   6.939   3.971 -1.3800  0.2684 -1.4753
52368SOL    HW262425  11.717   6.940   4.110  0.0540 -1.3847 -0.7936
52369SOL     OW62426   0.750  11.225   6.665 -0.4110  0.1325 -0.4104
52369SOL    HW162427   0.829  11.229   6.611 -0.3214 -1.2149 -0.4110
52369SOL    HW262428   0.686  11.277   6.617 -0.6601 -1.8962 -2.4595
52370SOL     OW62429  10.429   7.269   3.175  0.3319  0.2682  0.7026
52370SOL    HW162430  10.427   7.182   3.133 -0.9361  0.6287 -0.0455
52370SOL    HW262431  10.389   7.255   3.260  2.1654 -0.3034  1.5171
52371SOL     OW62432   0.667   3.471   9.633  0.5735 -0.4274  0.1357
52371SOL    HW162433   0.602   3.431   9.576  2.5298 -0.6553 -2.1268
52371SOL    HW262434   0.663   3.565   9.612  0.4142 -0.3289  0.6021
52372SOL     OW62435   7.167   3.581   0.936 -0.2514  0.4218  0.0355
52372SOL    HW162436   7.203   3.495   0.918 -0.7162  0.6430 -2.2265
52372SOL    HW262437   7.087   3.585   0.884 -1.0008  1.7176  1.2035
52373SOL     OW62438   9.005  10.087   3.268 -0.0640 -0.5484 -0.2596
52373SOL    HW162439   8.974  10.172   3.298 -2.3843 -1.6368  0.6630
52373SOL    HW262440   8.992  10.087   3.174 -0.7955 -0.1662 -0.1592
52374SOL     OW62441   0.550   0.342   5.986 -0.2114 -0.3627 -0.4505
52374SOL    HW162442   0.588   0.255   5.996 -0.9742 -0.6735 -0.2354
52374SOL    HW262443   0.562   0.363   5.893 -1.2325 -1.2657 -0.8005
52375SOL     OW62444   6.496   0.829   9.066 -0.0379 -0.1857 -0.2688
52375SOL    HW162445   6.492   0.734   9.070  0.3060 -0.1979 -0.2041
52375SOL    HW262446   6.427   0.858   9.126  0.4446 -0.3947  0.4029
52376SOL     OW62447  11.450   3.844   6.948  0.1043  0.0407 -0.4516
52376SOL    HW162448  11.423   3.924   6.903 -1.4107 -0.6094 -0.7543
52376SOL    HW262449  11.527   3.814   6.899 -1.0921 -0.2831 -2.2290
52377SOL     OW62450   0.555   6.701   2.011  0.1165  0.8032  0.1167
52377SOL    HW162451   0.575   6.692   1.917  0.9341  0.4537  0.3152
52377SOL    HW262452   0.545   6.611   2.041  0.2729  0.9015  0.4574
52378SOL     OW62453   6.488   5.580   0.159  0.1769 -0.5538  0.4183
52378SOL    HW162454   6.571   5.558   0.203  0.4954  1.5462  0.9690
52378SOL    HW262455   6.436   5.623   0.227 -0.8515 -0.6569 -0.2851
52379SOL     OW62456   0.078  10.636   9.088 -0.0455  0.0755 -0.4710
52379SOL    HW162457   0.048  10.708   9.145 -0.8482 -1.2603  0.8620
52379SOL    HW262458  -0.002  10.589   9.066  0.3874  0.0214 -1.9833
52380SOL     OW62459   0.520   4.812   8.893 -0.1123 -0.3606  0.6761
52380SOL    HW162460   0.534   4.730   8.846  1.1291 -0.0166  0.4252
52380SOL    HW262461   0.436   4.799   8.938  0.7805 -2.3933  1.9381
52381SOL     OW62462   3.509   9.598   0.082 -0.3005  0.0305 -0.0638
52381SOL    HW162463   3.554   9.538   0.023 -0.8821  0.0036 -0.4858
52381SOL    HW262464   3.502   9.550   0.164 -2.2602 -1.1674 -0.8706
52382SOL     OW62465  10.642   7.681  11.212 -0.5906 -0.1049 -0.5855
52382SOL    HW162466  10.716   7.620  11.206 -0.8069 -0.3873 -0.4170
52382SOL    HW262467  10.565   7.625  11.202 -0.8137  0.0538  0.1995
52383SOL     OW62468   9.449   6.798  10.584  0.0145 -0.0860 -0.2763
52383SOL    HW162469   9.499   6.859  10.638  0.3059 -0.6403  0.0878
52383SOL    HW262470   9.444   6.718  10.636  1.2411 -1.0043 -1.4826
52384SOL     OW62471   9.338   9.407  11.458 -0.2535 -0.2574  0.4480
52384SOL    HW162472   9.420   9.398  11.506 -0.7557  0.5258  1.5117
52384SOL    HW262473   9.271   9.378  11.520 -0.7462 -1.5731 -0.6467
52385SOL     OW62474   9.652   2.662   6.154  0.1157  0.4420  0.1270
52385SOL    HW162475   9.659   2.714   6.235 -1.1694  1.4227 -0.3471
52385SOL    HW262476   9.569   2.689   6.116  0.3882 -0.4959 -1.2019
52386SOL     OW62477   4.057   7.001   2.501  0.2470 -0.2265 -0.1056
52386SOL    HW162478   4.044   7.094   2.521  0.5529  0.0142 -0.9722
52386SOL    HW262479   3.979   6.976   2.452 -1.6514 -1.4259  3.1969
52387SOL     OW62480   3.126   4.089   6.605  0.1321  0.0851 -0.1337
52387SOL    HW162481   3.157   4.130   6.686  1.4035  0.4302 -0.7711
52387SOL    HW262482   3.118   3.996   6.627 -0.3478  0.2931  0.6146
52388SOL     OW62483   0.144  11.547  10.582 -0.4619  0.2966  0.3932
52388SOL    HW162484   0.222  11.492  10.570 -1.9689 -2.3080  1.7275
52388SOL    HW262485   0.123  11.540  10.675 -2.5763  0.5077 -0.0206
52389SOL     OW62486  10.170  10.921   0.504 -0.2375 -0.0456  0.2147
52389SOL    HW162487  10.112  10.861   0.457 -0.4001 -0.3094  0.7534
52389SOL    HW262488  10.256  10.907   0.462 -0.4814  0.0844 -0.3374
52390SOL     OW62489   8.602   5.207   6.775  0.3041 -0.4082  0.2348
52390SOL    HW162490   8.579   5.152   6.851 -1.3373 -0.6147 -0.3848
52390SOL    HW262491   8.536   5.186   6.709  0.2071  1.6096 -0.3678
52391SOL     OW62492   8.317  10.933  11.173 -0.1373 -0.2225  0.2851
52391SOL    HW162493   8.390  10.913  11.114  0.8393  1.7021  0.7391
52391SOL    HW262494   8.341  10.893  11.256 -0.4360 -1.0431 -0.0180
52392SOL     OW62495   4.639   0.338   4.152 -0.5604  0.0630  0.2328
52392SOL    HW162496   4.597   0.391   4.084 -0.5802 -0.1977  0.0420
52392SOL    HW262497   4.628   0.389   4.232  0.0048  0.6689 -0.0653
52393SOL     OW62498   0.625   8.867   1.502 -0.2565  0.2981 -0.1840
52393SOL    HW162499   0.598   8.797   1.561 -0.4601  1.1583  0.7660
52393SOL    HW262500   0.711   8.894   1.534  0.4562 -0.4232 -1.3927
52394SOL     OW62501   3.076   1.534   8.331 -0.7983 -0.2310  0.4473
52394SOL    HW162502   3.157   1.573   8.365 -2.1256  0.4960  3.0130
52394SOL    HW262503   3.091   1.440   8.337 -0.4849 -0.1132  1.9054
52395SOL     OW62504  11.269   1.720   4.961 -0.4402 -0.1113 -0.4631
52395SOL    HW162505  11.285   1.681   5.047  1.2466 -0.7113 -1.0145
52395SOL    HW262506  11.178   1.751   4.966 -0.6445 -0.8389  1.2445
52396SOL     OW62507   5.010   5.610   4.529  0.2399  0.1440  0.4211
52396SOL    HW162508   5.063   5.593   4.451  2.2849  0.6415  1.6450
52396SOL    HW262509   4.932   5.555   4.517  1.7337 -1.8423 -0.6875
52397SOL     OW62510   8.290   9.104   6.861 -0.2198 -0.0118  0.6063
52397SOL    HW162511   8.330   9.163   6.797  3.2347 -0.4936  2.1275
52397SOL    HW262512   8.221   9.157   6.902  0.4168  1.7485 -0.4677
52398SOL     OW62513   7.996   2.068   5.427  0.4592 -0.5311  0.2139
52398SOL    HW162514   8.067   2.129   5.406  0.5697 -0.2416  1.3326
52398SOL    HW262515   7.949   2.056   5.345 -0.1850  1.8855  0.1651
52399SOL     OW62516   4.258   8.199  11.689 -0.3407 -0.4858  0.4215
52399SOL    HW162517   4.266   8.110  11.654  0.6925  0.6746 -2.6310
52399SOL    HW262518   4.324   8.204  11.758 -1.6013 -2.5315  1.9004
52400SOL     OW62519   5.348   9.752   4.230  0.1894  0.1411  0.7517
52400SOL    HW162520   5.302   9.737   4.147 -1.0594 -1.3054  1.6380
52400SOL    HW262521   5.309   9.833   4.264 -0.3548 -0.0516  0.6038
52401SOL     OW62522   2.893   2.382   2.750 -0.2831 -0.7255  0.1349
52401SOL    HW162523   2.907   2.437   2.673  0.1446 -0.2618  0.5345
52401SOL    HW262524   2.835   2.312   2.719 -0.2425 -0.4625 -0.5657
52402SOL     OW62525   8.407   8.832  10.426  0.0576  0.8063  0.2373
52402SOL    HW162526   8.415   8.855  10.333  0.2380  0.3480  0.1354
52402SOL    HW262527   8.497   8.813  10.453 -0.2603 -1.4682 -0.1353
52403SOL     OW62528   6.980   5.978   3.584 -1.0588  0.5638 -0.4259
52403SOL    HW162529   6.980   5.890   3.621  1.2829  0.5795 -0.2610
52403SOL    HW262530   6.979   6.036   3.660 -1.3849  0.6734 -0.5127
52404SOL     OW62531   5.524   5.118  10.643  0.5554 -0.0418 -0.0594
52404SOL    HW162532   5.594   5.143  10.704 -1.2026 -0.7779  2.4235
52404SOL    HW262533   5.548   5.031  10.613  0.6473 -0.3735  0.9357
52405SOL     OW62534   1.216   8.795   0.433  0.3214  0.5737  0.1491
52405SOL    HW162535   1.295   8.749   0.461  0.3045  0.5725  0.1956
52405SOL    HW262536   1.144   8.744   0.469  0.1895 -0.9276 -2.0353
52406SOL     OW62537   5.954   8.330   9.584 -0.1384 -0.1839  0.0230
52406SOL    HW162538   6.019   8.292   9.525 -0.0192 -0.2108  0.1729
52406SOL    HW262539   5.963   8.280   9.665 -0.9708 -0.8024 -0.2549
52407SOL     OW62540  10.972   2.799   1.375  0.0360  0.5942  0.2079
52407SOL    HW162541  10.933   2.874   1.418  1.0697  0.6039  1.1829
52407SOL    HW262542  10.949   2.725   1.431  0.8940  0.5196  0.4715
52408SOL     OW62543   5.785   5.552   5.609 -0.1171 -0.4587 -0.1819
52408SOL    HW162544   5.852   5.600   5.657  1.3481 -2.2049 -0.3872
52408SOL    HW262545   5.711   5.547   5.669  0.3557  0.4785  0.4968
52409SOL     OW62546   4.493   6.000   2.950 -0.2758 -0.2759  0.4575
52409SOL    HW162547   4.449   6.077   2.916  1.7244  0.2656 -1.1195
52409SOL    HW262548   4.448   5.926   2.909 -1.9247  0.0477  1.6373
52410SOL     OW62549   7.587   2.760   6.194 -0.0528  0.0085  1.0837
52410SOL    HW162550   7.581   2.680   6.141  0.7766  0.5253  0.1795
52410SOL    HW262551   7.679   2.784   6.189 -0.5408  1.8357  0.1067
52411SOL     OW62552  10.691  10.711   2.543 -0.0671 -0.0511  0.2752
52411SOL    HW162553  10.644  10.696   2.461 -1.3306 -2.0528  1.2829
52411SOL    HW262554  10.628  10.751   2.601  0.6952  0.9569  0.4343
52412SOL     OW62555   2.749   5.326  11.502 -0.5912 -0.0343  0.2643
52412SOL    HW162556   2.707   5.242  11.483  0.2321 -0.9136  2.1061
52412SOL    HW262557   2.685   5.392  11.475 -1.9197 -1.2710  0.2713
52413SOL     OW62558   3.257   4.841  10.845  0.3774  0.0165  0.6808
52413SOL    HW162559   3.307   4.835  10.763 -1.2371  0.3979 -0.3651
52413SOL    HW262560   3.219   4.754  10.855  0.2448  0.0913  0.8173
52414SOL     OW62561   5.296  10.081   7.134 -0.4069 -0.2029  0.1979
52414SOL    HW162562   5.221  10.126   7.173 -0.8761  0.5948 -1.5372
52414SOL    HW262563   5.314  10.009   7.194 -1.8820  0.2165  1.2077
52415SOL     OW62564   0.920   8.215  10.829 -0.2433  0.0824  0.2666
52415SOL    HW162565   0.967   8.269  10.766 -1.1227  0.5169 -0.0488
52415SOL    HW262566   0.956   8.240  10.914 -0.9180  1.5116  0.1691
52416SOL     OW62567   0.666   6.511   0.016 -0.0923 -0.1063 -0.2763
52416SOL    HW162568   0.692   6.594  -0.024  0.0518  1.5225  2.9043
52416SOL    HW262569   0.704   6.514   0.104 -0.3703 -3.4348  0.0757
52417SOL     OW62570   4.128   2.839  10.531 -0.4186 -0.0861 -0.4512
52417SOL    HW162571   4.165   2.923  10.505 -2.3648  0.8451 -0.4258
52417SOL    HW262572   4.152   2.779  10.460  1.7716  0.1970 -0.0309
52418SOL     OW62573   0.564   4.093   9.239  0.1243  0.4963 -0.4219
52418SOL    HW162574   0.484   4.145   9.234 -0.9006 -0.6245  2.1879
52418SOL    HW262575   0.630   4.152   9.275 -0.0193  0.9481 -0.9005
52419SOL     OW62576   2.618   5.033   1.345 -0.0409 -0.2430  0.0800
52419SOL    HW162577   2.665   5.015   1.427  1.3869 -1.8024 -1.0121
52419SOL    HW262578   2.679   5.087   1.294  0.2574 -1.5318 -0.9898
52420SOL     OW62579   7.493   2.329   2.412 -0.0999  0.1964 -0.1498
52420SOL    HW162580   7.531   2.356   2.329 -0.0503  0.2320 -0.1154
52420SOL    HW262581   7.512   2.400   2.472  0.7852 -0.2856  0.1618
52421SOL     OW62582   0.939   8.480   2.818  0.3199  0.1612  0.0837
52421SOL    HW162583   1.004   8.444   2.880 -0.4905 -3.6683 -1.0041
52421SOL    HW262584   0.976   8.462   2.732 -0.9562  0.4400 -0.5424
52422SOL     OW62585   4.488   5.886   8.203  0.2425 -0.3441  0.1384
52422SOL    HW162586   4.411   5.932   8.168  0.9359  0.1612 -0.7673
52422SOL    HW262587   4.529   5.950   8.262  0.1382 -0.5020  0.3824
52423SOL     OW62588   0.249   7.047   0.675 -0.4763  0.0039 -0.7715
52423SOL    HW162589   0.327   7.016   0.720  0.1595 -0.0133 -1.8316
52423SOL    HW262590   0.220   6.972   0.623 -2.6222 -0.7774  1.3708
52424SOL     OW62591  10.390   6.019   5.476  0.1780  0.8692 -0.3876
52424SOL    HW162592  10.384   5.953   5.406 -0.0294  0.8645 -0.3677
52424SOL    HW262593  10.413   6.100   5.430  1.5586  0.5601 -0.2830
52425SOL     OW62594   9.735   9.032   7.514 -0.5298 -0.6393 -0.5968
52425SOL    HW162595   9.683   9.018   7.594 -1.7226 -2.4408 -1.6118
52425SOL    HW262596   9.669   9.048   7.446  0.4788  5.1486 -0.6972
52426SOL     OW62597   9.664   5.569   6.661  0.2399  0.0393 -0.4056
52426SOL    HW162598   9.680   5.658   6.627  0.4110  0.5236  0.8784
52426SOL    HW262599   9.570   5.556   6.649  0.0281  0.8102  0.3086
52427SOL     OW62600   6.198  10.999  11.599 -0.8751  0.1949 -0.3714
52427SOL    HW162601   6.220  10.920  11.649 -0.2294  0.2482 -0.5642
52427SOL    HW262602   6.104  10.992  11.583 -1.1337  0.2792  1.0294
52428SOL     OW62603  11.761   8.823   5.212 -0.1343  0.0320 -0.4197
52428SOL    HW162604  11.835   8.869   5.253  0.6900 -0.3021 -1.4978
52428SOL    HW262605  11.711   8.892   5.169  0.8320  0.0152 -1.6218
52429SOL     OW62606   6.945   1.713   9.293  0.0959 -0.3110  0.1593
52429SOL    HW162607   6.870   1.762   9.327 -1.4652 -1.4656 -1.4619
52429SOL    HW262608   6.922   1.621   9.306  2.0755 -0.6889  1.2950
52430SOL     OW62609   9.358   9.132   3.486  0.4277  0.3214 -0.1530
52430SOL    HW162610   9.402   9.200   3.537 -0.7318 -0.9214  2.7057
52430SOL    HW262611   9.310   9.181   3.419  1.5843  2.0922  0.2078
52431SOL     OW62612   8.572   8.025   6.843 -0.2514 -0.5881  0.1901
52431SOL    HW162613   8.642   7.986   6.791 -0.7978 -2.3925  0.7344
52431SOL    HW262614   8.538   7.953   6.896 -4.3339 -0.5439 -1.9683
52432SOL     OW62615   9.329   4.311  10.262 -0.1260  0.2681  0.2388
52432SOL    HW162616   9.368   4.274  10.341  0.1228  0.2963  0.1283
52432SOL    HW262617   9.346   4.405  10.270  0.0939  0.2449  0.0427
52433SOL     OW62618  10.264   8.468  10.723 -0.1013  0.7944  0.0274
52433SOL    HW162619  10.192   8.425  10.677  0.5164 -0.6556  0.3803
52433SOL    HW262620  10.333   8.403  10.727  0.7624  1.7188  0.8640
52434SOL     OW62621   9.715   3.912   5.742  0.2726 -0.5625 -0.5538
52434SOL    HW162622   9.625   3.918   5.708  0.2070  0.8641 -0.2091
52434SOL    HW262623   9.728   3.819   5.759 -1.4945 -0.7000  0.2833
52435SOL     OW62624   0.817   1.764   8.617 -0.1814 -0.3228 -0.1256
52435SOL    HW162625   0.868   1.692   8.653  1.3443  0.8109  0.0462
52435SOL    HW262626   0.727   1.746   8.645  0.4908 -1.0503  1.6961
52436SOL     OW62627   8.724   8.289   2.193  0.1454 -0.2188  0.0052
52436SOL    HW162628   8.731   8.215   2.133  1.0466 -0.0452 -0.1323
52436SOL    HW262629   8.708   8.364   2.136 -0.2506 -0.2351  0.0959
52437SOL     OW62630   1.123   2.389   9.467  0.0969 -0.0739  0.1807
52437SOL    HW162631   1.198   2.438   9.501 -0.6685  0.9856  0.4154
52437SOL    HW262632   1.161   2.311   9.426  2.2568  3.4697 -6.0177
52438SOL     OW62633   5.505   7.467   9.591 -0.0412 -1.1364  0.0250
52438SOL    HW162634   5.572   7.530   9.567  0.3051 -1.2126  0.7864
52438SOL    HW262635   5.496   7.411   9.513 -1.1138  0.4676 -1.0750
52439SOL     OW62636   7.001   3.788   4.225  0.0229 -0.7331 -0.1611
52439SOL    HW162637   7.015   3.700   4.191  0.1802 -0.4120 -0.9402
52439SOL    HW262638   7.027   3.782   4.317  1.6417 -1.0927 -0.6093
52440SOL     OW62639  11.813   3.943   8.606  0.0674  0.5022 -0.2769
52440SOL    HW162640  11.884   3.949   8.670 -0.2781  0.7439  0.0965
52440SOL    HW262641  11.819   3.854   8.571 -0.8939 -0.3168  1.4855
52441SOL     OW62642   9.783   1.485   5.223  0.1875  0.5188  0.2683
52441SOL    HW162643   9.878   1.493   5.207  0.4022  2.5454  2.0184
52441SOL    HW262644   9.743   1.530   5.148  0.7827  2.1703  0.8822
52442SOL     OW62645   6.369   8.272   1.740 -0.3640 -0.5988 -0.5297
52442SOL    HW162646   6.304   8.215   1.781 -0.4223 -0.1923 -0.0501
52442SOL    HW262647   6.327   8.358   1.737  1.2559  0.4776  2.7502
52443SOL     OW62648   3.379  10.647  10.295  0.1221 -0.3320  0.1743
52443SOL    HW162649   3.427  10.654  10.213 -1.4057 -0.5057 -0.7706
52443SOL    HW262650   3.288  10.663  10.272 -0.5506 -1.7640  1.5823
52444SOL     OW62651  10.689   3.151   8.332  0.3195  0.0458 -0.7664
52444SOL    HW162652  10.671   3.202   8.253  1.4159  1.5843 -0.0671
52444SOL    HW262653  10.777   3.115   8.319  0.7155  0.7291 -0.0562
52445SOL     OW62654   6.259   0.263   0.688 -0.3121  0.3865  0.4953
52445SOL    HW162655   6.201   0.200   0.731  0.4358  0.1691  1.2019
52445SOL    HW262656   6.347   0.233   0.709  0.0566  1.2098  0.1636
52446SOL     OW62657   1.347   7.041  10.620 -0.2978  0.2672 -0.2148
52446SOL    HW162658   1.366   6.948  10.633 -0.4002  0.5519  2.4254
52446SOL    HW262659   1.368   7.083  10.704 -0.5232  2.6001 -1.2322
52447SOL     OW62660  10.123   4.652   7.422  0.0468 -0.0782  0.2533
52447SOL    HW162661  10.189   4.682   7.360 -1.1374  0.9682 -0.5434
52447SOL    HW262662  10.169   4.587   7.476  1.4181 -0.1539 -0.9447
52448SOL     OW62663   8.230   5.650   0.228 -0.1228 -0.8932 -0.4356
52448SOL    HW162664   8.262   5.568   0.191  0.5403 -0.0018 -1.9271
52448SOL    HW262665   8.295   5.715   0.202 -2.1762  0.6595 -1.9751
52449SOL     OW62666   0.085  11.160   8.142  1.1152 -0.2471  0.4312
52449SOL    HW162667   0.119  11.239   8.098  0.6835  0.1385  0.7843
52449SOL    HW262668   0.002  11.187   8.179  1.2360 -0.7194  1.0570
52450SOL     OW62669  10.742   2.902   6.643 -0.3191 -0.2827  0.2446
52450SOL    HW162670  10.756   2.876   6.552 -0.1260 -1.5505  0.6098
52450SOL    HW262671  10.650   2.881   6.661 -0.6464  0.9143  0.0640
52451SOL     OW62672   6.913  10.720   7.016  0.2111 -0.4818  0.5663
52451SOL    HW162673   6.866  10.646   6.977  0.0309  0.0967 -0.3669
52451SOL    HW262674   6.860  10.745   7.092 -1.1445  0.2699 -0.5685
52452SOL     OW62675   8.646   2.923   4.192  0.4840  0.6086  0.2145
52452SOL    HW162676   8.601   2.844   4.224 -0.6088  0.1075 -2.2682
52452SOL    HW262677   8.579   2.991   4.195  0.7752  0.8905  0.3118
52453SOL     OW62678   7.553   6.090   7.400  0.2832  0.2350 -0.6533
52453SOL    HW162679   7.520   6.129   7.319  0.9558  0.0777 -1.0114
52453SOL    HW262680   7.523   5.999   7.397  0.7893  0.0748 -1.0084
52454SOL     OW62681   4.736   8.561   8.310 -0.2002 -0.2016  0.7281
52454SOL    HW162682   4.777   8.476   8.326  0.5766 -0.0052 -0.1331
52454SOL    HW262683   4.799   8.607   8.254 -1.2074  0.4457  0.1173
52455SOL     OW62684   5.901   1.755   4.335 -0.2888 -0.4326  0.3734
52455SOL    HW162685   5.892   1.670   4.379 -1.9368 -0.1411  0.6648
52455SOL    HW262686   5.842   1.750   4.260 -0.1887  0.3554  0.2331
52456SOL     OW62687   2.367   8.076   8.320  0.1242  0.1410  0.2591
52456SOL    HW162688   2.272   8.080   8.330  0.0532 -0.3691 -0.2051
52456SOL    HW262689   2.401   8.106   8.405 -0.4255  1.9557 -0.1128
52457SOL     OW62690   7.267   8.419   9.557 -0.2474 -0.1013 -0.3749
52457SOL    HW162691   7.294   8.486   9.620  0.9097 -0.1767 -0.7641
52457SOL    HW262692   7.219   8.354   9.609  0.5301 -0.0714  0.3974
52458SOL     OW62693   4.053   7.265   3.683 -0.2983  0.5874  0.2500
52458SOL    HW162694   4.018   7.352   3.664 -0.4513  0.5870  0.5256
52458SOL    HW262695   3.988   7.225   3.742 -0.4329  0.1379 -0.1919
52459SOL     OW62696   8.899  11.737   3.979 -0.1979 -0.1436 -0.4219
52459SOL    HW162697   8.940  11.819   3.949 -1.1279 -0.3641 -2.5163
52459SOL    HW262698   8.913  11.736   4.073  2.0481  1.1975 -0.6539
52460SOL     OW62699   5.600   0.612  11.428 -0.6361 -0.0490  0.0000
52460SOL    HW162700   5.527   0.576  11.479  0.5387 -0.6268  1.3335
52460SOL    HW262701   5.594   0.706  11.441 -1.9043  0.0324 -0.9855
52461SOL     OW62702   8.271   7.342   6.944 -0.3503  0.3277  0.1731
52461SOL    HW162703   8.302   7.285   7.014 -0.6588 -1.0438 -0.7675
52461SOL    HW262704   8.212   7.404   6.987 -0.9788 -0.8485  1.0646
52462SOL     OW62705   1.502   5.559   8.724 -0.5127 -0.5671  0.7518
52462SOL    HW162706   1.418   5.528   8.757  0.0226 -0.7500  2.0206
52462SOL    HW262707   1.566   5.495   8.758  0.3876  0.8081  1.7789
52463SOL     OW62708   9.650   7.851   1.567  0.2707  0.3139  0.1744
52463SOL    HW162709   9.584   7.782   1.574 -1.5358  2.0259  0.9817
52463SOL    HW262710   9.637   7.888   1.480  0.0508  0.7662  0.3987
52464SOL     OW62711   3.733  10.158  10.797 -0.3893 -0.2374  0.2659
52464SOL    HW162712   3.814  10.182  10.841  0.4657 -1.4040 -0.6168
52464SOL    HW262713   3.677  10.235  10.806  0.7366  0.5126  1.0490
52465SOL     OW62714   7.615   7.992   9.179 -0.4061 -0.6392 -0.2093
52465SOL    HW162715   7.586   7.902   9.165 -0.6566 -0.3891 -1.4107
52465SOL    HW262716   7.675   8.010   9.106 -0.5173  0.2301 -0.0995
52466SOL     OW62717  11.350   6.796   1.238 -0.2871  0.3755  0.0750
52466SOL    HW162718  11.324   6.879   1.279 -0.0088 -0.5046  2.1738
52466SOL    HW262719  11.299   6.730   1.285  0.9967 -0.8044 -0.1558
52467SOL     OW62720   4.033   2.238   3.917  0.1268 -0.1085 -0.4174
52467SOL    HW162721   4.048   2.193   4.000 -0.7970 -0.1790 -0.2848
52467SOL    HW262722   4.117   2.231   3.870  0.7204  0.1006  0.5832
52468SOL     OW62723   2.005   9.703   8.907  0.0551 -0.0320  0.0434
52468SOL    HW162724   1.951   9.778   8.880 -0.7540 -0.1730  1.1754
52468SOL    HW262725   2.069   9.740   8.968  0.8168  0.0155 -0.7623
52469SOL     OW62726   3.927   0.021  10.637 -0.8285  0.4165 -0.2560
52469SOL    HW162727   3.995   0.088  10.627  1.3149 -1.5095  0.5587
52469SOL    HW262728   3.871   0.054  10.706 -0.2099  1.6695 -0.3266
52470SOL     OW62729   0.005  11.612   1.981 -0.3963  0.4182 -0.2356
52470SOL    HW162730   0.010  11.569   2.067 -0.0546  0.9613  0.0225
52470SOL    HW262731  -0.063  11.563   1.934 -1.8129  1.1472  0.9439
52471SOL     OW62732   6.853   4.948   1.553 -0.1096 -0.3568  0.6400
52471SOL    HW162733   6.769   4.966   1.510 -0.0660 -0.1751  0.6303
52471SOL    HW262734   6.831   4.944   1.646 -0.1978 -0.7165  0.6071
52472SOL     OW62735  10.966   7.817   3.576  0.5082 -1.0406 -0.0166
52472SOL    HW162736  10.927   7.829   3.663  1.8539  2.3964  0.3067
52472SOL    HW262737  10.898   7.842   3.515  1.3996  3.5204  0.4906
52473SOL     OW62738   3.736   4.180   7.306 -0.2056 -0.4486 -0.7544
52473SOL    HW162739   3.673   4.239   7.266 -2.0239 -1.5609  0.3408
52473SOL    HW262740   3.759   4.119   7.236  0.9595  0.9273 -1.6166
52474SOL     OW62741   3.281   8.980   6.866  0.0476 -0.0874 -0.6020
52474SOL    HW162742   3.279   8.988   6.962  0.0472  0.6978 -0.6617
52474SOL    HW262743   3.375   8.977   6.845  0.0434 -1.6979 -0.4775
52475SOL     OW62744   1.322   8.376  11.619 -0.2066 -0.3456  0.2491
52475SOL    HW162745   1.236   8.367  11.660  0.0308 -0.8817  0.6418
52475SOL    HW262746   1.350   8.286  11.602  0.7316 -0.2226  1.0882
52476SOL     OW62747  11.300   3.752   4.498  0.0385  0.4143 -0.2309
52476SOL    HW162748  11.340   3.668   4.520  0.1820  0.9442  1.7110
52476SOL    HW262749  11.285   3.794   4.583 -0.1227  2.3098 -1.1568
52477SOL     OW62750   0.682  11.262   0.772 -0.0754  0.3400  0.2845
52477SOL    HW162751   0.738  11.292   0.844 -2.0146  0.7171  1.7303
52477SOL    HW262752   0.702  11.169   0.764  1.7156  0.7342 -0.1854
52478SOL     OW62753  11.719   7.160   0.019  0.1454 -0.1516 -0.2864
52478SOL    HW162754  11.630   7.148  -0.014 -0.6883  1.8467  1.0328
52478SOL    HW262755  11.749   7.242  -0.021  0.3457  0.5753  1.2653
52479SOL     OW62756   4.405   6.203   2.102  0.3453 -0.0924  0.2690
52479SOL    HW162757   4.482   6.260   2.100  0.4055 -0.1784  0.1227
52479SOL    HW262758   4.345   6.246   2.163  1.0848 -0.7507  1.5207
52480SOL     OW62759   8.984   6.875   3.547 -0.2808  0.1295  0.6055
52480SOL    HW162760   8.938   6.945   3.593 -0.7245  0.0008  0.3597
52480SOL    HW262761   8.920   6.805   3.538 -0.0669 -0.0196  0.1840
52481SOL     OW62762   2.594   8.018   6.549  0.5024 -0.3744  0.2090
52481SOL    HW162763   2.672   8.032   6.603 -0.6746 -0.5073  2.0535
52481SOL    HW262764   2.607   8.075   6.473  1.9770  0.2916  0.9107
52482SOL     OW62765  10.070   6.310   7.227  0.0429 -0.0132 -0.3864
52482SOL    HW162766  10.139   6.249   7.202  0.9094  0.5834  0.4685
52482SOL    HW262767   9.998   6.290   7.168  0.6855 -1.1401 -0.8227
52483SOL     OW62768  11.572   8.633   3.808  0.5496  0.2110 -0.2765
52483SOL    HW162769  11.634   8.628   3.880 -0.8582 -2.5636  0.8924
52483SOL    HW262770  11.614   8.587   3.736  0.5489 -0.1754 -0.0334
52484SOL     OW62771   3.612  10.256   5.442  0.2188 -0.3654 -0.3341
52484SOL    HW162772   3.606  10.312   5.365 -1.0142 -0.0758 -0.0502
52484SOL    HW262773   3.595  10.168   5.410 -2.3095 -0.0110 -0.1368
52485SOL     OW62774  11.826   7.767   5.169  0.2204 -0.1552  0.1768
52485SOL    HW162775  11.856   7.778   5.259 -1.6380  3.3455  0.5841
52485SOL    HW262776  11.879   7.829   5.118 -0.4121 -0.2805 -0.6642
52486SOL     OW62777   4.464   9.728   3.090 -0.0341  0.6866  0.5351
52486SOL    HW162778   4.551   9.719   3.052  0.2089  3.1610  0.3321
52486SOL    HW262779   4.447   9.823   3.089 -2.4836  0.3249  1.1079
52487SOL     OW62780   9.283   7.353   1.808  0.1556 -0.2710 -0.2985
52487SOL    HW162781   9.273   7.278   1.750 -0.8623 -0.3392 -0.0442
52487SOL    HW262782   9.363   7.334   1.857  1.0746 -0.1769 -1.7075
52488SOL     OW62783   0.175   5.541   4.634  0.0341 -0.2476  0.7369
52488SOL    HW162784   0.256   5.541   4.582  0.2125 -2.5169  0.9065
52488SOL    HW262785   0.167   5.631   4.665  1.4637  0.4998 -0.8463
52489SOL     OW62786  10.937   4.345   5.816 -0.5599  0.1938 -0.2478
52489SOL    HW162787  10.927   4.252   5.795  0.1542  0.5903 -2.7138
52489SOL    HW262788  10.850   4.382   5.801 -0.7493  0.0146  0.3640
52490SOL     OW62789   2.960   4.501  10.641 -0.6447 -0.8079  0.5682
52490SOL    HW162790   2.916   4.473  10.561  0.1473 -2.1348  0.5513
52490SOL    HW262791   2.956   4.596  10.640 -0.9913 -0.8218 -0.8535
52491SOL     OW62792   3.807  11.589  11.329 -0.7030 -0.0442 -0.3657
52491SOL    HW162793   3.848  11.648  11.266 -0.7768  0.1858 -0.1981
52491SOL    HW262794   3.876  11.529  11.354 -0.4450  0.3863 -0.0303
52492SOL     OW62795   7.802  10.945   4.745  0.4849  0.1895  0.0437
52492SOL    HW162796   7.755  10.872   4.784  0.0908  0.4034 -0.0188
52492SOL    HW262797   7.796  11.015   4.811 -1.7114  1.1393 -1.0778
52493SOL     OW62798  11.679   8.744   0.419  0.5152 -0.2755 -0.2494
52493SOL    HW162799  11.772   8.763   0.402  0.4756 -0.0465 -0.2169
52493SOL    HW262800  11.644   8.720   0.334  0.8726 -1.5341 -0.0606
52494SOL     OW62801   6.872   9.096   3.764  0.3129 -0.5229  0.1735
52494SOL    HW162802   6.824   9.125   3.842 -0.5226  0.9212 -0.8179
52494SOL    HW262803   6.807   9.051   3.712  0.5757 -0.4635 -0.2085
52495SOL     OW62804   0.857   0.328   4.802 -0.0930 -0.1964  0.0991
52495SOL    HW162805   0.906   0.280   4.735 -0.9399 -1.1127  0.1136
52495SOL    HW262806   0.851   0.268   4.876 -1.6534 -0.3197 -0.0847
52496SOL     OW62807   7.147   1.455  11.721 -0.3103 -0.4235 -0.7017
52496SOL    HW162808   7.140   1.446  11.816  2.1844 -0.9978 -0.5147
52496SOL    HW262809   7.168   1.367  11.690  0.3529  0.0383 -1.6089
52497SOL     OW62810   4.633   5.345   1.547  0.1547  0.1640 -0.2616
52497SOL    HW162811   4.666   5.259   1.574 -0.1794 -0.2796 -1.2027
52497SOL    HW262812   4.661   5.354   1.456  1.3758  1.6702  0.2313
52498SOL     OW62813   6.851   9.085  10.493 -0.1576 -0.2277  0.0278
52498SOL    HW162814   6.852   9.156  10.428 -0.9111 -0.2621 -0.0223
52498SOL    HW262815   6.840   9.130  10.577 -0.5165 -0.2766  0.0069
52499SOL     OW62816   4.041   2.368   4.908 -0.2346 -0.0867  0.3943
52499SOL    HW162817   4.023   2.442   4.966 -0.0737  0.2306  0.0455
52499SOL    HW262818   4.093   2.308   4.962 -0.2918  0.0928  0.6539
52500SOL     OW62819  10.979   9.398   8.008 -0.1300 -0.2438 -0.0716
52500SOL    HW162820  10.986   9.462   8.079  0.3820 -1.0778  0.6505
52500SOL    HW262821  10.888   9.369   8.012  0.0460 -0.7230  0.6471
52501SOL     OW62822   6.546  11.664   0.321  0.2909  0.1152 -0.3033
52501SOL    HW162823   6.544  11.702   0.234  0.2352  0.4263 -0.1681
52501SOL    HW262824   6.582  11.733   0.377 -2.2594  0.9874  0.4131
52502SOL     OW62825   1.958  10.071   1.043 -0.3990  0.4482 -0.5977
52502SOL    HW162826   1.972  10.116   0.959  1.1018  0.5331 -0.3307
52502SOL    HW262827   2.022  10.000   1.042 -0.7995  0.0685  0.2250
52503SOL     OW62828  11.468  11.709   4.733  0.0406  0.0943  0.4602
52503SOL    HW162829  11.518  11.650   4.790  0.0866 -0.8130 -0.4758
52503SOL    HW262830  11.535  11.759   4.686  0.0519 -0.2214  0.1310
52504SOL     OW62831  10.743   6.320   9.138  0.3110  0.0664  0.1260
52504SOL    HW162832  10.810   6.333   9.206  0.1460 -1.4955  0.6293
52504SOL    HW262833  10.667   6.286   9.185  0.8297 -2.9284 -0.9980
52505SOL     OW62834   7.855   0.499   1.187  0.1761  0.2271 -0.6270
52505SOL    HW162835   7.844   0.565   1.118  1.2606 -1.2907 -2.3351
52505SOL    HW262836   7.943   0.515   1.221 -0.8802  1.9637  1.6342
52506SOL     OW62837   8.185   1.045   7.365 -0.7568  0.2888  0.2670
52506SOL    HW162838   8.257   1.103   7.341  0.2614 -1.0412  0.0016
52506SOL    HW262839   8.125   1.048   7.291  0.5911 -1.0114 -0.9143
52507SOL     OW62840   7.581   5.825  10.922  0.1174  0.4540  0.2620
52507SOL    HW162841   7.669   5.808  10.888  0.5502 -0.1016  1.6096
52507SOL    HW262842   7.588   5.812  11.016 -1.7669 -1.1468  0.2534
52508SOL     OW62843   3.171   4.409   9.651 -0.7485 -0.4463 -0.6705
52508SOL    HW162844   3.090   4.390   9.604 -0.8010  0.3719 -0.9323
52508SOL    HW262845   3.191   4.500   9.628  1.2104 -1.1477 -2.0503
52509SOL     OW62846   0.672   9.335   0.153 -0.0479 -0.1292  0.3189
52509SOL    HW162847   0.689   9.422   0.118 -0.1322 -0.9237 -1.8883
52509SOL    HW262848   0.620   9.350   0.232 -0.0853  1.8063 -0.0299
52510SOL     OW62849   7.281   5.297   9.516  0.0023 -0.2227 -0.5618
52510SOL    HW162850   7.343   5.362   9.550  1.0845 -0.0773 -2.6811
52510SOL    HW262851   7.195   5.337   9.529  0.4664  0.4721  0.5561
52511SOL     OW62852   6.188   8.213   5.343  0.1271  0.2461  0.4323
52511SOL    HW162853   6.122   8.207   5.275  0.8420 -2.1772 -0.1191
52511SOL    HW262854   6.195   8.125   5.379  1.5242  0.9171  1.9773
52512SOL     OW62855   3.179   9.033   9.529  0.2820  0.1683  0.4063
52512SOL    HW162856   3.264   8.988   9.535  0.6756  0.9333  0.7260
52512SOL    HW262857   3.202   9.125   9.517 -0.5139  0.3890  0.5379
52513SOL     OW62858   5.030  10.124   2.387  0.4618  0.1344 -0.2006
52513SOL    HW162859   5.026  10.156   2.477  2.7674 -1.8588  0.7282
52513SOL    HW262860   4.943  10.140   2.351 -0.1266  2.1859  1.9268
52514SOL     OW62861  11.722   3.453   6.411  0.2026 -0.4695 -0.1693
52514SOL    HW162862  11.673   3.518   6.461 -1.1745 -1.2050 -0.5120
52514SOL    HW262863  11.805   3.496   6.391 -0.3955  0.9269  0.2118
52515SOL     OW62864   3.548   7.615   9.393 -0.1959 -0.6899  0.2847
52515SOL    HW162865   3.589   7.634   9.308  1.8242  0.4286  1.4454
52515SOL    HW262866   3.485   7.686   9.406  1.2912  0.5608  0.8209
52516SOL     OW62867   8.128   4.809  11.713 -0.3288  0.2761  0.3975
52516SOL    HW162868   8.069   4.786  11.784  0.1928  0.9758  1.0656
52516SOL    HW262869   8.216   4.796  11.749 -0.0617  0.0190 -0.3271
52517SOL     OW62870   0.181   4.879   9.261 -0.1728 -0.4762  0.0353
52517SOL    HW162871   0.171   4.962   9.214 -0.6442 -1.4929 -1.7876
52517SOL    HW262872   0.271   4.880   9.292 -0.1621  0.6975  0.0234
52518SOL     OW62873   0.290   9.960  10.114  0.1651 -0.3602 -0.4793
52518SOL    HW162874   0.229   9.992  10.181  0.3510  0.1887 -0.5658
52518SOL    HW262875   0.277  10.019  10.040 -2.3176 -2.8035 -2.1794
52519SOL     OW62876  11.241   4.850   1.259 -0.1440 -0.3909  0.1444
52519SOL    HW162877  11.198   4.824   1.178  0.1542  0.0089 -0.1485
52519SOL    HW262878  11.307   4.914   1.232 -0.1788 -0.0984  0.7234
52520SOL     OW62879   3.868   0.797   9.830 -0.5082 -0.2334  0.1386
52520SOL    HW162880   3.833   0.751   9.906  1.9744 -1.2467  0.7695
52520SOL    HW262881   3.963   0.792   9.840 -0.0844  0.2390 -2.6520
52521SOL     OW62882   4.142  10.450   8.109  0.1756  0.3363  0.6305
52521SOL    HW162883   4.139  10.398   8.189  2.2434 -0.2055  0.4166
52521SOL    HW262884   4.068  10.419   8.057 -0.4102 -0.2296  1.7601
52522SOL     OW62885   5.584   9.149   7.043  0.1192 -0.0550  0.6483
52522SOL    HW162886   5.658   9.112   7.092  0.0809 -0.1468  0.6374
52522SOL    HW262887   5.599   9.122   6.953 -1.0303 -1.9007  0.9477
52523SOL     OW62888   8.622   1.391   7.945  0.1690  0.4025  0.2805
52523SOL    HW162889   8.665   1.310   7.971  1.3460  0.7478 -0.5419
52523SOL    HW262890   8.636   1.450   8.019 -0.7586 -0.1418  0.9151
52524SOL     OW62891   4.294   7.983   0.439  0.5765 -0.4451  0.1219
52524SOL    HW162892   4.367   7.925   0.418 -0.6292 -1.5900 -0.9965
52524SOL    HW262893   4.266   8.018   0.355 -0.2543 -0.1114  0.5252
52525SOL     OW62894   9.851   3.011   8.108  0.2709 -0.5853 -0.2628
52525SOL    HW162895   9.771   3.064   8.105 -0.0490 -1.0488 -0.0454
52525SOL    HW262896   9.907   3.048   8.040 -0.2835 -0.5001 -0.6799
52526SOL     OW62897   8.739   6.045   1.469 -0.1769 -0.2324 -0.2206
52526SOL    HW162898   8.672   6.062   1.536 -1.2553 -0.3711 -1.2411
52526SOL    HW262899   8.693   5.997   1.401  0.2983  1.8956 -2.1427
52527SOL     OW62900   2.954   5.926  11.220  0.2634  0.5551  0.2018
52527SOL    HW162901   2.896   6.003  11.210  0.1321  0.5472  0.8690
52527SOL    HW262902   2.900   5.853  11.190  1.2030  0.9761 -2.8627
52528SOL     OW62903   4.578   5.649   9.103  0.0344  0.2256  0.7978
52528SOL    HW162904   4.513   5.586   9.069  0.6805 -0.7359  1.3154
52528SOL    HW262905   4.626   5.601   9.169 -0.4394  1.7282  2.3027
52529SOL     OW62906   1.642   5.728   0.677  0.4014  0.2882  0.1835
52529SOL    HW162907   1.703   5.797   0.651  0.8365 -0.6021 -1.2598
52529SOL    HW262908   1.568   5.737   0.616  0.4795 -0.5388 -0.0492
52530SOL     OW62909   7.355  10.700   3.192  0.2599  0.0004 -0.5867
52530SOL    HW162910   7.302  10.662   3.262  0.2973 -1.0697 -1.1180
52530SOL    HW262911   7.416  10.759   3.237  0.3794 -0.7793  0.3023
52531SOL     OW62912   9.465   1.796   1.109 -0.1654 -0.1072 -0.0462
52531SOL    HW162913   9.401   1.739   1.067  0.4596 -1.6962  1.0590
52531SOL    HW262914   9.490   1.749   1.189  1.8032  0.8390 -0.0584
52532SOL     OW62915   4.407  10.762   2.264 -0.1769  0.0724  0.4136
52532SOL    HW162916   4.367  10.828   2.320 -1.0272 -0.4580  0.4474
52532SOL    HW262917   4.424  10.688   2.322  1.7005  0.6101  0.5918
52533SOL     OW62918  11.514   3.441   1.584 -0.3281 -0.0141 -0.4992
52533SOL    HW162919  11.435   3.448   1.532 -0.2533  0.1597 -0.5908
52533SOL    HW262920  11.488   3.391   1.662 -0.2939 -0.8112 -0.9904
52534SOL     OW62921   8.326   5.528   7.414  0.6322  0.3960  0.1209
52534SOL    HW162922   8.409   5.513   7.369  0.2317 -0.4279 -0.3852
52534SOL    HW262923   8.349   5.542   7.505  1.5649  3.1201 -0.4574
52535SOL     OW62924   2.073   0.446   8.369 -0.7269 -0.0915 -0.0754
52535SOL    HW162925   2.055   0.399   8.451 -1.5646  2.3429  1.2298
52535SOL    HW262926   2.012   0.408   8.306 -0.1175 -1.9719  0.4157
52536SOL     OW62927   6.478  10.306   0.023 -0.3344  0.0155  0.1753
52536SOL    HW162928   6.554  10.277   0.073 -1.0154  0.1235  1.3009
52536SOL    HW262929   6.494  10.273  -0.065  1.0503  0.0996  0.3612
52537SOL     OW62930   1.486   3.278   5.872  0.3226 -0.0438  0.4411
52537SOL    HW162931   1.402   3.317   5.848  0.3085 -0.4991 -0.2987
52537SOL    HW262932   1.463   3.190   5.902  0.4467  0.1630  1.1519
52538SOL     OW62933   9.897  11.570   6.154  0.0695 -0.3237  0.0521
52538SOL    HW162934   9.930  11.618   6.230 -2.0750 -0.0451  0.8874
52538SOL    HW262935   9.807  11.548   6.177  0.0777 -2.2668 -1.4948
52539SOL     OW62936   2.452   8.542   5.232 -0.0504 -0.7437  0.1970
52539SOL    HW162937   2.456   8.491   5.151  1.0812  1.3971 -1.1880
52539SOL    HW262938   2.524   8.507   5.286  2.0160  0.5791 -1.5512
52540SOL     OW62939   3.576   4.598   4.008  0.4777 -0.2197  0.1891
52540SOL    HW162940   3.612   4.594   3.920  1.5997 -0.4325  0.6402
52540SOL    HW262941   3.492   4.642   3.998  0.5284 -0.3708 -1.0001
52541SOL     OW62942   3.906  11.124   2.880  0.2120  0.0825 -0.2624
52541SOL    HW162943   3.986  11.162   2.913 -0.3968  0.3264  0.9849
52541SOL    HW262944   3.839  11.147   2.945 -0.7391 -0.6507 -0.9422
52542SOL     OW62945   2.939   9.439   3.556 -0.5143 -0.0379  0.0788
52542SOL    HW162946   3.034   9.448   3.543 -0.7719  1.4044 -1.1113
52542SOL    HW262947   2.930   9.396   3.641  1.1872  0.5241  0.5808
52543SOL     OW62948   6.355  10.021  11.474  0.1347 -0.0377 -0.7138
52543SOL    HW162949   6.362  10.113  11.502  0.7134  0.3169 -1.9335
52543SOL    HW262950   6.445   9.988  11.481 -0.2238 -0.8045  0.5920
52544SOL     OW62951   6.276  10.021   8.840  0.0070 -0.4569 -0.2456
52544SOL    HW162952   6.295  10.110   8.871  0.5367  0.0935 -2.0225
52544SOL    HW262953   6.318   9.964   8.904  1.2899  0.6257 -0.0614
52545SOL     OW62954   1.173  10.318   7.258 -0.0587  0.2655  0.4724
52545SOL    HW162955   1.225  10.297   7.336 -0.6979  1.1732  1.1686
52545SOL    HW262956   1.120  10.239   7.243  0.8090 -0.2998  0.3308
52546SOL     OW62957  11.144   1.765  11.163 -0.4353 -0.0683  0.4822
52546SOL    HW162958  11.231   1.804  11.161 -0.7883  0.6988 -0.8729
52546SOL    HW262959  11.093   1.822  11.221 -0.5252  0.5914 -0.2295
52547SOL     OW62960   7.452   5.988   0.853 -0.6121  0.2386 -0.2619
52547SOL    HW162961   7.360   5.969   0.832 -0.3233 -2.6196  0.5458
52547SOL    HW262962   7.448   6.037   0.935 -1.4351 -1.1364  0.5634
52548SOL     OW62963   6.749  10.539   5.688 -0.3111  0.3786  0.4421
52548SOL    HW162964   6.783  10.497   5.768  0.7535  1.3271  0.5208
52548SOL    HW262965   6.820  10.529   5.624  0.4550  2.8879  0.7729
52549SOL     OW62966   0.111   7.578  11.162  0.1323  0.0898  0.2004
52549SOL    HW162967   0.074   7.581  11.250 -0.6028 -0.4897 -0.0738
52549SOL    HW262968   0.049   7.524  11.112  0.5104  0.4440 -0.6795
52550SOL     OW62969   0.383   7.387  11.103  0.1769 -0.3423 -0.5985
52550SOL    HW162970   0.458   7.437  11.135  0.8121 -0.7512 -1.3911
52550SOL    HW262971   0.307   7.430  11.141  0.5760  2.0909 -2.2975
52551SOL     OW62972   0.203   5.837   2.552 -0.2108 -0.3516  0.0654
52551SOL    HW162973   0.251   5.833   2.635  0.8431 -1.3171 -0.5680
52551SOL    HW262974   0.135   5.770   2.561 -0.9408  0.4452  0.6392
52552SOL     OW62975  11.109   9.336   6.779 -0.5584 -0.0058 -0.5125
52552SOL    HW162976  11.112   9.326   6.874 -0.3553  0.5449 -0.4569
52552SOL    HW262977  11.116   9.247   6.745 -2.6470 -0.4266  0.0193
52553SOL     OW62978  11.371   1.133   2.975 -0.1856  0.4005 -0.0257
52553SOL    HW162979  11.335   1.144   3.063  0.1741 -0.3244  0.2152
52553SOL    HW262980  11.360   1.040   2.956 -0.6772  0.6264 -0.9320
52554SOL     OW62981   8.504  11.267   9.762  0.2373 -0.0530  0.9807
52554SOL    HW162982   8.411  11.278   9.779  0.0496 -0.9687  0.6011
52554SOL    HW262983   8.536  11.215   9.836  0.6837  1.1662  1.6755
52555SOL     OW62984   4.290   3.155   2.719  0.9073  0.1583  0.6141
52555SOL    HW162985   4.353   3.088   2.693 -0.6142 -0.8104 -0.8014
52555SOL    HW262986   4.243   3.117   2.793  0.5221 -0.0533  0.2648
52556SOL     OW62987   7.133   6.752   9.115  0.7189  0.9717  0.4675
52556SOL    HW162988   7.193   6.809   9.067  0.8182  0.6286  0.1713
52556SOL    HW262989   7.191   6.690   9.160  0.6002 -1.1935 -2.0807
52557SOL     OW62990   4.693   7.892   2.333  0.2627  0.2206  0.6830
52557SOL    HW162991   4.686   7.853   2.246 -0.2959  0.4367  0.6250
52557SOL    HW262992   4.783   7.922   2.339  1.3396 -2.7953  1.4680
52558SOL     OW62993   9.632   3.405   5.175 -0.4494 -0.2561  0.0503
52558SOL    HW162994   9.636   3.496   5.148 -0.3560  0.4116  2.1426
52558SOL    HW262995   9.709   3.393   5.232 -1.3398 -1.1456  1.1236
52559SOL     OW62996   1.656   9.139   2.422 -0.5722  0.4822  0.1928
52559SOL    HW162997   1.613   9.187   2.492 -0.1481  0.2024  0.6541
52559SOL    HW262998   1.627   9.048   2.434 -2.2018  0.7456 -1.2996
52560SOL     OW62999   5.939   9.891   5.842  0.0064 -0.1605  0.1661
52560SOL    HW163000   5.945   9.870   5.935 -0.2809 -0.7613  0.0511
52560SOL    HW263001   5.848   9.873   5.818  0.0149  0.2199 -0.1780
52561SOL     OW63002   8.647   3.166   2.558  0.3074 -0.1064  0.0654
52561SOL    HW163003   8.672   3.258   2.564 -1.5878  0.4167  0.6801
52561SOL    HW263004   8.613   3.156   2.469 -1.1983  0.2957  0.5657
52562SOL     OW63005   5.681   9.128   4.922 -0.7060  0.4274  0.6663
52562SOL    HW163006   5.745   9.197   4.941  0.8981 -0.8225  0.0608
52562SOL    HW263007   5.673   9.129   4.826 -0.0060 -0.7378  0.5702
52563SOL     OW63008   1.813   7.883   2.414 -1.0582  0.3556  0.4108
52563SOL    HW163009   1.809   7.840   2.500 -1.8579 -0.2694  0.0785
52563SOL    HW263010   1.723   7.915   2.400 -1.0181  0.1459 -0.3442
52564SOL     OW63011   9.323  10.557   3.079  0.6547 -0.6435  0.3052
52564SOL    HW163012   9.332  10.506   2.998  0.2454  0.7749 -0.6905
52564SOL    HW263013   9.412  10.562   3.114  1.1152 -0.0824 -0.8661
52565SOL     OW63014   8.617   1.262  10.271 -0.5576  0.2825  0.2038
52565SOL    HW163015   8.695   1.251  10.324 -0.9221  0.5477  0.8126
52565SOL    HW263016   8.592   1.353  10.283  0.2880  0.8336 -1.7597
52566SOL     OW63017   1.813   3.144   8.535  0.2955 -0.0748 -0.3119
52566SOL    HW163018   1.722   3.123   8.513 -0.2910  2.5191 -0.7157
52566SOL    HW263019   1.862   3.123   8.456  0.5688 -3.6418  0.6075
52567SOL     OW63020   2.759   4.821   3.445 -0.0071 -0.1612 -0.9098
52567SOL    HW163021   2.711   4.870   3.512  0.8941  1.4592 -1.4235
52567SOL    HW263022   2.733   4.730   3.460 -0.1165  0.1928  1.4019
52568SOL     OW63023   6.706   8.903   9.406  0.4278  0.1726 -0.2104
52568SOL    HW163024   6.792   8.901   9.448  0.8681  0.4463 -1.0909
52568SOL    HW263025   6.716   8.964   9.333 -0.6277  0.5215 -0.0894
52569SOL     OW63026   4.429  10.260   4.715 -0.0304 -0.2064 -0.0202
52569SOL    HW163027   4.340  10.234   4.688  0.9721 -1.9965 -1.8982
52569SOL    HW263028   4.430  10.246   4.810 -1.7800 -0.0110  0.0642
52570SOL     OW63029   8.127  11.220   4.714 -0.0122  0.4052  0.5091
52570SOL    HW163030   8.075  11.300   4.701 -0.6651  0.1527  1.5089
52570SOL    HW263031   8.099  11.161   4.644 -0.3806  0.6202  0.4756
52571SOL     OW63032   7.251   0.729   2.069 -0.6682  0.0418  0.3531
52571SOL    HW163033   7.197   0.670   2.120  0.2216 -2.0761 -1.0137
52571SOL    HW263034   7.266   0.683   1.986  3.0210  0.5179  0.5642
52572SOL     OW63035   6.339  11.451   2.146 -0.4571  0.0507  0.0816
52572SOL    HW163036   6.343  11.397   2.225  0.3510 -0.6602 -0.4263
52572SOL    HW263037   6.426  11.488   2.136 -0.9070  1.1971  0.2261
52573SOL     OW63038   4.599   2.976   9.765 -0.0196  0.3043  0.0177
52573SOL    HW163039   4.551   3.010   9.690 -0.8073  0.7290  0.6975
52573SOL    HW263040   4.690   3.003   9.750 -0.3050  1.0579 -0.3989
52574SOL     OW63041   5.751   0.479   5.594  0.2163  0.2875 -0.4526
52574SOL    HW163042   5.708   0.411   5.541 -0.2972  0.1206  0.1624
52574SOL    HW263043   5.688   0.497   5.664  1.3184 -0.2350  0.6945
52575SOL     OW63044   7.689   5.411   6.706  0.3317 -0.5780 -0.8430
52575SOL    HW163045   7.677   5.337   6.647 -2.1806  0.8387 -2.2687
52575SOL    HW263046   7.666   5.377   6.792 -2.4888 -1.1751 -1.7202
52576SOL     OW63047   3.275   1.040   8.814  0.2745  0.2575 -0.1124
52576SOL    HW163048   3.333   0.993   8.874 -1.1837 -1.9424 -0.2895
52576SOL    HW263049   3.187   1.010   8.837 -0.6802  2.2271 -0.9292
52577SOL     OW63050   4.435  11.232   0.714 -0.7505  0.8084  0.0873
52577SOL    HW163051   4.371  11.303   0.709  0.5162  1.9774 -0.2288
52577SOL    HW263052   4.518  11.276   0.734  0.2441 -0.4716 -1.0392
52578SOL     OW63053   7.936   3.075  10.442 -0.1888 -0.3182  0.3687
52578SOL    HW163054   8.025   3.043  10.431 -0.1815 -1.4632  2.8982
52578SOL    HW263055   7.945   3.170  10.451  0.7297 -0.3873  0.2484
52579SOL     OW63056   7.569   6.001   7.761  0.9551 -0.4552  0.4107
52579SOL    HW163057   7.519   6.082   7.753  0.8758 -0.5714 -0.3757
52579SOL    HW263058   7.629   6.002   7.687 -2.3917 -3.3986 -2.7473
52580SOL     OW63059   9.281   4.577   5.156  0.4826 -0.4704 -0.2781
52580SOL    HW163060   9.367   4.596   5.194  0.3313 -0.4195  0.0430
52580SOL    HW263061   9.219   4.606   5.222  0.2339 -1.9514  0.1884
52581SOL     OW63062   5.579   0.517  10.807 -0.5512 -0.0490 -0.4798
52581SOL    HW163063   5.558   0.577  10.879 -1.7883  0.5934 -1.3533
52581SOL    HW263064   5.494   0.484  10.777 -0.0271 -0.5641 -1.4400
52582SOL     OW63065   8.900   8.868   9.757 -0.5604  0.1106 -0.4733
52582SOL    HW163066   8.827   8.816   9.791 -0.0294 -0.8988 -0.8497
52582SOL    HW263067   8.977   8.833   9.800 -0.2716  1.1724 -0.0805
52583SOL     OW63068  11.589   4.294   3.991 -0.2844 -0.0077  0.3548
52583SOL    HW163069  11.535   4.253   4.059 -0.1148  0.1555  0.5868
52583SOL    HW263070  11.528   4.310   3.919 -0.8565  1.4144  1.1218
52584SOL     OW63071   4.447   2.149   4.024  0.0488  0.4778  0.1016
52584SOL    HW163072   4.478   2.155   4.115 -1.2339  1.8248  0.4772
52584SOL    HW263073   4.381   2.080   4.026  0.1509  0.3805  0.1495
52585SOL     OW63074   5.874   9.495   3.378 -0.0489  0.0064 -0.1654
52585SOL    HW163075   5.917   9.511   3.294 -1.5173  0.5977 -0.8485
52585SOL    HW263076   5.876   9.579   3.423  0.3168 -0.1911  0.1905
52586SOL     OW63077  11.161   1.629  10.895 -0.3759 -0.2984 -0.3807
52586SOL    HW163078  11.141   1.697  10.959  0.9149  1.9593 -2.2279
52586SOL    HW263079  11.121   1.660  10.814  0.4012 -1.6577 -1.3207
52587SOL     OW63080   1.073   2.084  10.866 -0.1068 -0.2662 -0.3730
52587SOL    HW163081   1.152   2.124  10.830  0.2444 -0.4617  0.1804
52587SOL    HW263082   1.102   2.039  10.945 -0.7725 -0.3298 -0.1587
52588SOL     OW63083   1.389   9.058   5.599 -0.1596  0.0478  0.0649
52588SOL    HW163084   1.381   9.097   5.686  1.6869 -1.9519  1.2332
52588SOL    HW263085   1.467   9.100   5.561  0.4177 -0.7302  0.3593
52589SOL     OW63086   6.276   0.063   9.439  0.1666  0.5800  0.8598
52589SOL    HW163087   6.205   0.043   9.500 -1.3713 -0.3920 -1.1333
52589SOL    HW263088   6.238   0.125   9.377  1.5059  1.1174  0.5378
52590SOL     OW63089   5.857   8.997   8.192 -0.0029  0.4253  0.6699
52590SOL    HW163090   5.776   8.947   8.190 -1.1142  2.0436  1.8796
52590SOL    HW263091   5.919   8.945   8.142 -0.9784 -2.2628  2.0311
52591SOL     OW63092  11.446  10.624   4.973  0.4433 -0.0057  0.2707
52591SOL    HW163093  11.481  10.538   4.995  1.2433 -0.0952 -1.1978
52591SOL    HW263094  11.521  10.683   4.979  0.5831  0.0580 -1.4963
52592SOL     OW63095   5.735   1.001   9.196 -0.1417 -0.3248  0.0201
52592SOL    HW163096   5.779   1.082   9.220 -0.2720  0.3120 -1.7589
52592SOL    HW263097   5.806   0.940   9.175 -0.0611  0.0292 -0.7639
52593SOL     OW63098   6.351   2.066   3.865 -0.3787 -0.6578  0.2097
52593SOL    HW163099   6.400   2.025   3.793 -0.0308  0.2005 -0.0463
52593SOL    HW263100   6.277   2.007   3.878  0.7438 -2.0214  0.6670
52594SOL     OW63101   8.099   3.941   2.587 -0.0427  0.4788 -0.0489
52594SOL    HW163102   8.138   3.865   2.545  0.3148  0.2157  0.7514
52594SOL    HW263103   8.061   3.907   2.668  0.2174  1.1679  0.3690
52595SOL     OW63104   4.372   4.044   4.462  0.5237 -0.1546  0.2166
52595SOL    HW163105   4.353   3.996   4.381 -0.8194  0.3155  0.2369
52595SOL    HW263106   4.388   3.976   4.527 -0.2697 -0.5655 -0.0081
52596SOL     OW63107   1.143  10.317   4.572  0.4036 -0.1299  0.4343
52596SOL    HW163108   1.120  10.301   4.480  0.0127  3.0755 -0.1188
52596SOL    HW263109   1.061  10.310   4.619 -0.1537  1.9780 -0.1163
52597SOL     OW63110   8.472   6.844   9.899 -0.2470  0.1940  0.2746
52597SOL    HW163111   8.399   6.798   9.860 -1.5396  1.4981  1.0309
52597SOL    HW263112   8.434   6.889   9.975  1.5148  0.2399  1.1811
52598SOL     OW63113   9.465   2.501   3.136  0.5192 -0.5378  0.1035
52598SOL    HW163114   9.406   2.426   3.134 -1.8221  1.2027  0.6060
52598SOL    HW263115   9.415   2.572   3.098  2.0475  1.2041  1.1981
52599SOL     OW63116   8.546   5.981   8.210  0.6692 -0.1551 -0.4862
52599SOL    HW163117   8.453   5.998   8.200  0.9511  1.0294 -1.4004
52599SOL    HW263118   8.584   6.065   8.235  1.3507 -0.8933  1.0841
52600SOL     OW63119   3.931   7.916   1.321  0.7113 -0.3344 -0.4008
52600SOL    HW163120   3.942   7.953   1.233  0.8752 -1.8378 -1.0579
52600SOL    HW263121   3.853   7.958   1.356  0.3650 -0.0574 -1.4738
52601SOL     OW63122   7.024   0.278   8.287 -0.2972  0.0348 -0.2388
52601SOL    HW163123   7.018   0.276   8.191  0.1755 -3.4506 -0.3141
52601SOL    HW263124   6.961   0.345   8.313 -0.1514  1.3846 -2.9703
52602SOL     OW63125   6.632   0.396   9.883 -0.0298 -0.0788 -0.8919
52602SOL    HW163126   6.684   0.317   9.869 -0.2903 -0.3917 -0.1741
52602SOL    HW263127   6.605   0.390   9.975  0.5220  1.1869 -0.6269
52603SOL     OW63128  11.205   8.369   7.451  0.0397  0.1990 -0.0147
52603SOL    HW163129  11.116   8.356   7.483  0.4606 -0.9962  0.7732
52603SOL    HW263130  11.216   8.303   7.383  1.2694 -1.8856  2.0264
52604SOL     OW63131   8.046   3.955   8.803  0.8049  0.2963 -0.0058
52604SOL    HW163132   7.959   3.957   8.764  1.1555  0.1223 -0.8207
52604SOL    HW263133   8.071   4.048   8.808  1.4712  0.2599 -1.8874
52605SOL     OW63134   4.925   5.135   5.855  0.4418  0.0657 -0.4344
52605SOL    HW163135   4.864   5.209   5.857  1.2853  0.8846 -2.4811
52605SOL    HW263136   4.909   5.093   5.770  1.8730 -0.4383 -0.4712
52606SOL     OW63137  11.457   8.716   7.973 -0.5468 -0.3962 -0.2104
52606SOL    HW163138  11.386   8.660   8.001 -0.8444  0.0586 -0.0435
52606SOL    HW263139  11.519   8.657   7.929 -1.0277 -0.7876 -0.3684
52607SOL     OW63140   0.514  10.219   4.634 -0.1719  0.3725  0.0258
52607SOL    HW163141   0.575  10.190   4.702  1.7117  1.0023 -1.3200
52607SOL    HW263142   0.554  10.190   4.552 -1.8916  0.4919 -0.9044
52608SOL     OW63143   1.007   7.722   5.752 -0.0835 -1.0017  0.4623
52608SOL    HW163144   0.942   7.752   5.689 -0.3489  0.6153  1.4470
52608SOL    HW263145   1.089   7.763   5.724 -0.6932  1.9474  2.5495
52609SOL     OW63146   6.385  11.708   4.122 -0.3834  0.1024  0.1830
52609SOL    HW163147   6.384  11.792   4.168 -0.5464 -0.4259  1.1619
52609SOL    HW263148   6.436  11.725   4.043  0.3220  0.9185  0.7902
52610SOL     OW63149   2.876  10.979   6.752  0.3188 -0.4292 -0.5135
52610SOL    HW163150   2.934  11.003   6.680  2.2119  3.1175  1.9210
52610SOL    HW263151   2.933  10.937   6.816 -0.5915 -0.3171  0.3865
52611SOL     OW63152   4.655  10.972   2.026  0.2271 -0.2071 -0.0749
52611SOL    HW163153   4.685  10.978   2.117  1.9811 -1.5149 -0.5233
52611SOL    HW263154   4.681  11.056   1.987 -0.8538  0.5074  0.6869
52612SOL     OW63155   8.204   1.786   4.608  0.3543  0.4055  1.0327
52612SOL    HW163156   8.125   1.820   4.566  1.1369 -0.4548 -1.2982
52612SOL    HW263157   8.172   1.723   4.672 -0.8657  0.8847  0.9255
52613SOL     OW63158   3.589   9.001   0.921 -0.1558 -0.2204  0.5693
52613SOL    HW163159   3.495   8.984   0.924 -0.1077 -0.6244  0.0025
52613SOL    HW263160   3.627   8.918   0.894  0.5683 -0.6553  2.7547
52614SOL     OW63161   2.207   9.720   7.288 -0.0426  0.4164 -0.5871
52614SOL    HW163162   2.225   9.804   7.246 -0.3615  0.5183 -0.5228
52614SOL    HW263163   2.255   9.723   7.371  0.9965  0.0151 -1.1577
52615SOL     OW63164  11.394   3.878   4.247  0.2878  0.4881 -0.1722
52615SOL    HW163165  11.464   3.820   4.217  2.6378  1.9845  2.0524
52615SOL    HW263166  11.375   3.848   4.336 -0.6918  1.2349 -0.1106
52616SOL     OW63167   1.446  11.138   5.072  0.6664 -0.5302  0.0853
52616SOL    HW163168   1.412  11.137   5.161 -0.7509  1.6761 -0.3563
52616SOL    HW263169   1.368  11.143   5.016  1.5752 -0.0749 -1.1898
52617SOL     OW63170   8.226   1.995   1.834 -0.2549  0.3264 -0.1685
52617SOL    HW163171   8.289   2.063   1.854  1.1619  0.1735 -3.4215
52617SOL    HW263172   8.275   1.913   1.843 -1.1275 -0.1012  0.9460
52618SOL     OW63173   4.871   6.064   0.116  0.0654  0.0774 -0.4490
52618SOL    HW163174   4.781   6.056   0.085  0.7778  0.1032 -2.6851
52618SOL    HW263175   4.905   5.975   0.115  0.1556  0.1008  0.1551
52619SOL     OW63176  11.787  10.829   1.329  0.1038 -0.0748 -1.1876
52619SOL    HW163177  11.698  10.816   1.295 -0.3951  0.7432 -0.2375
52619SOL    HW263178  11.782  10.910   1.380  1.5800  0.3685 -1.7089
52620SOL     OW63179   8.363   1.986   9.523  0.6429 -0.4538  0.0007
52620SOL    HW163180   8.393   1.948   9.605  0.9751  1.4065  0.8040
52620SOL    HW263181   8.270   2.004   9.538  0.4784 -0.9724 -0.3838
52621SOL     OW63182   2.114   9.702  10.840 -0.5256  0.0874 -0.7475
52621SOL    HW163183   2.160   9.747  10.769  2.0935  4.0473  2.9035
52621SOL    HW263184   2.168   9.625  10.858 -0.8766 -0.6218 -2.5113
52622SOL     OW63185   5.705   1.108   0.796  0.0033  0.4194 -0.1914
52622SOL    HW163186   5.770   1.050   0.755  1.2576  2.3054 -1.0115
52622SOL    HW263187   5.729   1.108   0.889  0.2266 -0.0712 -0.2424
52623SOL     OW63188   4.557   2.225   3.380  0.1068 -0.5614 -0.1334
52623SOL    HW163189   4.580   2.248   3.290 -0.5406 -0.4717 -0.2778
52623SOL    HW263190   4.632   2.173   3.411  0.0986 -1.0452 -0.8962
52624SOL     OW63191   1.579   5.438   5.374  0.3006  0.1277  0.0709
52624SOL    HW163192   1.609   5.355   5.412 -1.1406 -0.5109 -0.1213
52624SOL    HW263193   1.539   5.485   5.447  0.6497  0.4320  0.0692
52625SOL     OW63194   9.953   6.333   3.825  0.0856  0.1288  0.3990
52625SOL    HW163195   9.900   6.402   3.864  0.4309  1.6039 -1.5823
52625SOL    HW263196   9.891   6.261   3.812 -1.2050  1.3674 -0.7541
52626SOL     OW63197   2.779   0.912  10.008  0.4061 -0.3969  0.1799
52626SOL    HW163198   2.784   0.820  10.034  2.0319 -0.6744 -0.9450
52626SOL    HW263199   2.687   0.926   9.986 -0.0028 -1.5378  1.0620
52627SOL     OW63200   0.248   2.830  11.379  0.2403  0.9115 -0.3278
52627SOL    HW163201   0.233   2.922  11.397  0.1017  1.0964 -1.3645
52627SOL    HW263202   0.288   2.796  11.460 -1.0923  1.5290  0.6233
52628SOL     OW63203  11.613   2.076   7.733 -0.2260  0.1451  0.0389
52628SOL    HW163204  11.624   1.988   7.698  1.2906 -0.2341  1.3549
52628SOL    HW263205  11.703   2.108   7.745 -0.7442  1.4449  0.6141
52629SOL     OW63206   1.181  11.658   9.304 -0.7997 -0.2362  0.5526
52629SOL    HW163207   1.228  11.723   9.253  0.5866 -1.8457 -0.3144
52629SOL    HW263208   1.181  11.580   9.249 -3.9419 -0.5296  0.8027
52630SOL     OW63209   7.149   3.797   4.800 -0.4241  0.6070 -0.1571
52630SOL    HW163210   7.212   3.847   4.852 -0.8328  1.0605 -0.0930
52630SOL    HW263211   7.171   3.819   4.709  0.1870 -0.0618 -0.1803
52631SOL     OW63212   5.655   4.629   8.924  0.0921  0.0165 -0.5172
52631SOL    HW163213   5.734   4.683   8.932 -0.4826  0.6798  1.3723
52631SOL    HW263214   5.686   4.540   8.937  0.4561  0.3507  1.2560
52632SOL     OW63215  10.549   9.942   4.778  0.3203  0.9849  0.3879
52632SOL    HW163216  10.560   9.971   4.687 -1.7253  0.7534  0.0000
52632SOL    HW263217  10.609   9.869   4.789 -0.8291 -0.3246 -1.4729
52633SOL     OW63218   2.805   7.614   8.169 -0.2804  0.3111 -0.1528
52633SOL    HW163219   2.808   7.709   8.157  0.2308  0.1649 -1.3066
52633SOL    HW263220   2.881   7.595   8.223 -0.5666  0.5853  0.3573
52634SOL     OW63221   1.144   7.179   9.591  1.0211 -0.1864  0.6188
52634SOL    HW163222   1.115   7.098   9.549  0.9458  0.2979 -0.2829
52634SOL    HW263223   1.184   7.229   9.521 -0.2916  1.2013  0.8047
52635SOL     OW63224  10.098   2.073   4.403  0.1757  0.1976  0.5198
52635SOL    HW163225  10.122   2.097   4.493 -1.9788  0.0866  1.1750
52635SOL    HW263226  10.035   2.140   4.376  0.9092  0.3238 -1.0119
52636SOL     OW63227   8.637   6.782   2.773 -0.0449 -0.2742  0.7409
52636SOL    HW163228   8.582   6.733   2.711 -0.3911 -0.6777  1.3558
52636SOL    HW263229   8.716   6.803   2.724 -0.2683 -0.6858  0.1958
52637SOL     OW63230   9.836   8.960   1.708 -0.1070 -0.1422  0.0939
52637SOL    HW163231   9.880   9.022   1.767 -0.6667 -0.0422  0.4108
52637SOL    HW263232   9.744   8.965   1.733 -0.1803 -0.9735 -0.0052
52638SOL     OW63233   4.662   3.836   0.945  0.1397 -0.3675  0.1785
52638SOL    HW163234   4.595   3.896   0.979 -0.2771 -0.6051 -0.2149
52638SOL    HW263235   4.744   3.884   0.955 -0.2933  0.6993 -1.0580
52639SOL     OW63236   9.857   0.151  10.758 -0.5740  0.0111  0.0635
52639SOL    HW163237   9.933   0.154  10.816 -0.8680  2.3731  0.4302
52639SOL    HW263238   9.782   0.140  10.816 -0.7501  0.9013  0.0177
52640SOL     OW63239   6.150   8.643   7.207 -0.3882  0.4585  0.0175
52640SOL    HW163240   6.212   8.608   7.142 -2.0610  0.6174 -1.7323
52640SOL    HW263241   6.174   8.598   7.288  1.1689 -0.4712 -0.9018
52641SOL     OW63242   1.814  11.066   7.339 -0.3085 -0.0448  0.3523
52641SOL    HW163243   1.813  11.157   7.370 -1.0740  0.6402 -1.5403
52641SOL    HW263244   1.903  11.053   7.306 -0.7456  0.7260 -1.2178
52642SOL     OW63245   9.308   8.849  11.647  0.2220  0.0698  0.8286
52642SOL    HW163246   9.246   8.809  11.708 -0.1680 -0.8628 -0.1233
52642SOL    HW263247   9.286   8.809  11.562  1.9618 -0.1145  0.4197
52643SOL     OW63248   2.262   2.561   6.163  0.3156 -0.4786 -0.4125
52643SOL    HW163249   2.286   2.479   6.120  0.0417 -0.5327 -0.4633
52643SOL    HW263250   2.340   2.616   6.155  1.9091 -1.9733  2.7455
52644SOL     OW63251   0.265   2.564   1.511  0.0709  0.3987 -0.1185
52644SOL    HW163252   0.172   2.556   1.533  0.1986 -0.1659  0.2205
52644SOL    HW263253   0.282   2.491   1.452  0.0296  1.1823 -1.1328
52645SOL     OW63254  10.712   7.049   9.582 -0.0891 -0.3926 -0.0397
52645SOL    HW163255  10.801   7.040   9.616 -0.3824 -0.1737  0.8071
52645SOL    HW263256  10.696   7.143   9.582 -1.1634 -0.5242  2.0998
52646SOL     OW63257   9.724   6.554   9.694  0.2543  0.5821 -0.1078
52646SOL    HW163258   9.781   6.621   9.732 -0.4759  0.6248  0.9463
52646SOL    HW263259   9.635   6.583   9.714 -0.0812 -0.5988  0.2396
52647SOL     OW63260   1.195   6.172   6.035 -0.3611 -0.1343  0.7849
52647SOL    HW163261   1.258   6.212   5.976 -0.9369  1.9722  1.5209
52647SOL    HW263262   1.158   6.099   5.985 -0.0350  0.8932 -1.0447
52648SOL     OW63263   4.701   9.239   8.255  0.4220 -0.3432  0.2516
52648SOL    HW163264   4.699   9.314   8.195  0.7723 -0.4908  0.0527
52648SOL    HW263265   4.729   9.166   8.200  0.5139 -0.5285  0.5449
52649SOL     OW63266   8.440   0.543   3.586  0.0008  0.1552 -0.1462
52649SOL    HW163267   8.420   0.461   3.540 -1.9647  0.3182  0.3235
52649SOL    HW263268   8.433   0.521   3.679  1.5279  0.4015  0.0561
52650SOL     OW63269   0.856   9.923  10.999 -0.0185  0.1467 -0.5267
52650SOL    HW163270   0.903   9.864  10.939  1.8136 -0.5388  1.4313
52650SOL    HW263271   0.832   9.867  11.073  0.6506  1.5674  0.8206
52651SOL     OW63272   2.629   8.491   4.188  0.0169 -0.1359 -0.1632
52651SOL    HW163273   2.540   8.458   4.198  0.9464 -2.7881  0.1277
52651SOL    HW263274   2.629   8.573   4.238 -1.9350 -0.6702  0.8250
52652SOL     OW63275   3.932  10.800  10.161  0.2967  0.7143 -0.3846
52652SOL    HW163276   3.848  10.811  10.205 -1.3140 -1.2026 -2.7018
52652SOL    HW263277   3.918  10.837  10.074  1.0621 -1.5887 -1.5595
52653SOL     OW63278   1.495   9.463   0.175  0.6138 -0.1990 -0.1822
52653SOL    HW163279   1.401   9.457   0.191  0.8187 -0.5219  1.0385
52653SOL    HW263280   1.518   9.382   0.129  0.0676  0.5599 -1.8624
52654SOL     OW63281   9.859   7.368   8.257 -0.3049 -0.3134 -0.4752
52654SOL    HW163282   9.941   7.343   8.213  0.7938  0.2116  1.2064
52654SOL    HW263283   9.809   7.286   8.260  0.7168 -0.9568 -0.3523
52655SOL     OW63284   3.510   1.703   9.883  0.1909  0.4594  0.2989
52655SOL    HW163285   3.450   1.741   9.818  0.6144  0.8930  0.1580
52655SOL    HW263286   3.587   1.678   9.833  0.1630 -0.0391  0.4936
52656SOL     OW63287   9.828   7.733   0.074  0.6484  0.1539 -0.1979
52656SOL    HW163288   9.774   7.660   0.047 -1.8030  1.8459 -0.2394
52656SOL    HW263289   9.826   7.731   0.170 -0.9372  1.1228 -0.1749
52657SOL     OW63290   5.600   8.983   0.139 -0.5121 -0.2107 -0.2561
52657SOL    HW163291   5.544   8.992   0.061 -3.1159 -1.1625  1.3835
52657SOL    HW263292   5.686   9.015   0.110 -1.2532 -0.8200 -3.5934
52658SOL     OW63293   9.710   9.083   3.966  1.1181 -0.2999 -0.0891
52658SOL    HW163294   9.641   9.126   3.916  1.8773  1.8790  0.6321
52658SOL    HW263295   9.718   8.996   3.926 -0.0868  0.4023 -1.9992
52659SOL     OW63296   0.327  11.673   7.742 -0.1860  0.1646  0.4556
52659SOL    HW163297   0.286  11.694   7.826 -2.1496 -0.9387 -0.1811
52659SOL    HW263298   0.338  11.578   7.744  1.9258  0.3478  0.3568
52660SOL     OW63299   9.251  11.779   6.764 -0.9028  0.2163  0.3916
52660SOL    HW163300   9.191  11.839   6.808 -0.6346  0.8204 -0.0560
52660SOL    HW263301   9.330  11.830   6.751 -0.0083 -0.7900  1.6210
52661SOL     OW63302   1.884   1.455   2.389 -0.2180  0.1540  0.6688
52661SOL    HW163303   1.821   1.411   2.445  0.7317 -1.2664  0.6579
52661SOL    HW263304   1.921   1.524   2.444 -0.9295  0.2597  1.0327
52662SOL     OW63305   4.899  11.570   4.598 -0.0467  0.1037 -0.0471
52662SOL    HW163306   4.899  11.565   4.502 -0.4740 -0.5788 -0.0140
52662SOL    HW263307   4.813  11.606   4.620 -0.0134  0.1002  0.0894
52663SOL     OW63308   8.592   6.233  10.351  0.4809 -0.3362 -0.0254
52663SOL    HW163309   8.535   6.179  10.296 -1.6182  1.1284  0.5880
52663SOL    HW263310   8.600   6.184  10.433  1.0608 -1.0637 -0.5011
52664SOL     OW63311   7.252   0.779   1.598 -0.4487  0.3564  0.1552
52664SOL    HW163312   7.190   0.713   1.569 -0.3829  0.7826 -1.0084
52664SOL    HW263313   7.199   0.840   1.650 -0.5348 -0.5046  1.1121
52665SOL     OW63314   5.203   0.696   1.103 -0.4036 -0.1037 -0.0500
52665SOL    HW163315   5.179   0.758   1.034 -1.4279  2.5420  2.4629
52665SOL    HW263316   5.299   0.695   1.101 -0.3048  2.3157  0.3155
52666SOL     OW63317   7.037  10.786   6.254 -0.2955  0.3737 -0.2832
52666SOL    HW163318   7.121  10.820   6.224  0.2477  0.7960  1.6060
52666SOL    HW263319   6.973  10.850   6.223  0.0140 -0.0607 -1.9250
52667SOL     OW63320  11.255   1.739   4.184  0.5485 -0.4485 -0.5203
52667SOL    HW163321  11.341   1.715   4.216  0.2671 -0.4586  0.2461
52667SOL    HW263322  11.229   1.666   4.127  1.0525 -0.4292 -0.7735
52668SOL     OW63323   7.265   2.540   1.547  0.0144  0.0718  0.1475
52668SOL    HW163324   7.331   2.545   1.478  0.7918 -1.4757  0.7393
52668SOL    HW263325   7.312   2.564   1.627 -0.0483 -1.2732  0.6079
52669SOL     OW63326   0.775   4.474  10.775  0.6048  0.0678 -0.4839
52669SOL    HW163327   0.796   4.566  10.788  0.5532 -0.2856  3.1346
52669SOL    HW263328   0.693   4.461  10.823 -0.2523 -1.5780 -2.2419
52670SOL     OW63329   2.499   9.162   9.222 -0.6371  0.1973 -0.0924
52670SOL    HW163330   2.527   9.253   9.224  1.7046 -0.4291  1.8915
52670SOL    HW263331   2.458   9.148   9.308 -2.1220 -0.3459 -0.8572
52671SOL     OW63332  10.035   6.106   6.199  0.1507 -0.1090  0.0243
52671SOL    HW163333  10.032   6.022   6.244  0.2165 -0.3862 -0.4916
52671SOL    HW263334  10.071   6.087   6.112 -0.5681  0.3261 -0.3780
52672SOL     OW63335   2.391   0.078   3.502  0.0732  0.4099 -0.0804
52672SOL    HW163336   2.307   0.060   3.460  0.1529  0.6793 -0.3544
52672SOL    HW263337   2.442   0.125   3.436  0.8187 -0.6398 -0.2801
52673SOL     OW63338   3.421  10.559   2.934 -0.0929  0.1846 -0.4774
52673SOL    HW163339   3.510  10.560   2.969 -0.3508  1.1882  0.2009
52673SOL    HW263340   3.393  10.650   2.938 -1.2487 -0.1597 -0.4309
52674SOL     OW63341   2.262   1.880  11.062  0.3432  0.0448 -0.7448
52674SOL    HW163342   2.240   1.961  11.017  2.3603  0.8914 -0.3011
52674SOL    HW263343   2.201   1.875  11.135  0.6486  1.5360 -0.3630
52675SOL     OW63344   2.559   9.754  10.453 -0.0199  0.1306  0.0564
52675SOL    HW163345   2.481   9.731  10.504 -0.7959  0.9646 -0.7325
52675SOL    HW263346   2.542   9.717  10.366  1.4748 -1.6420  0.4546
52676SOL     OW63347   6.504   5.509   6.310 -0.0885 -0.2246 -0.0263
52676SOL    HW163348   6.500   5.570   6.236  1.7478 -0.5315 -0.4234
52676SOL    HW263349   6.423   5.459   6.303 -0.6176  0.7195 -0.9825
52677SOL     OW63350   5.304  11.102   9.770 -0.1832 -0.1479 -0.6036
52677SOL    HW163351   5.329  11.191   9.798 -0.0208 -0.1618 -0.6972
52677SOL    HW263352   5.236  11.116   9.705 -0.7889 -0.1257  0.0215
52678SOL     OW63353   2.099   4.146   7.788  0.4225  0.0560 -0.1251
52678SOL    HW163354   2.085   4.155   7.694 -1.6851 -1.1340  0.0248
52678SOL    HW263355   2.113   4.052   7.802 -0.3538  0.0723  0.8665
52679SOL     OW63356   8.223   2.634   0.529 -0.4142 -0.1753 -0.2414
52679SOL    HW163357   8.158   2.568   0.507 -1.9403  0.9798  0.6257
52679SOL    HW263358   8.253   2.609   0.617  0.6743 -0.9365 -0.7976
52680SOL     OW63359   2.215   8.743   6.099 -0.3269  0.1212 -0.1029
52680SOL    HW163360   2.245   8.672   6.043 -1.6958  0.7589 -1.7307
52680SOL    HW263361   2.221   8.821   6.044 -0.2516  1.0504  1.1637
52681SOL     OW63362  11.058   8.284   9.279  0.1274 -0.6773  0.0107
52681SOL    HW163363  11.056   8.343   9.203  0.6972 -1.9856 -1.0721
52681SOL    HW263364  11.032   8.198   9.243  1.2522 -1.5065  1.1074
52682SOL     OW63365   6.422   3.020   2.362  0.2998 -0.1597  0.2090
52682SOL    HW163366   6.375   3.085   2.414 -0.3929 -0.4759 -0.0158
52682SOL    HW263367   6.444   3.065   2.281  0.1390 -0.0973  0.1999
52683SOL     OW63368   8.876  10.682   8.586 -0.2827  0.4610 -0.1421
52683SOL    HW163369   8.827  10.748   8.538 -0.2993  0.0647 -0.6721
52683SOL    HW263370   8.937  10.733   8.641 -0.1093  0.9097 -0.7448
52684SOL     OW63371   7.135  10.005   4.724 -0.3652 -0.2754 -0.4180
52684SOL    HW163372   7.092  10.070   4.779  0.3574  0.1902 -0.3933
52684SOL    HW263373   7.192   9.956   4.783 -0.2613 -0.3693 -0.5925
52685SOL     OW63374   9.517   8.148   2.293 -0.0358 -0.5560  0.2865
52685SOL    HW163375   9.548   8.208   2.360  1.1627  2.0681 -2.4060
52685SOL    HW263376   9.430   8.180   2.270  1.1702  1.3273 -2.1883
52686SOL     OW63377  11.766   5.283   6.232  0.5198  0.0425  0.1144
52686SOL    HW163378  11.761   5.360   6.289  0.4646 -1.7457  2.6996
52686SOL    HW263379  11.714   5.216   6.277  0.3307 -1.4654 -2.1613
52687SOL     OW63380   8.909   0.880   6.993 -0.1549 -0.0313  0.2096
52687SOL    HW163381   8.873   0.926   7.068  0.0143 -0.5221  0.5980
52687SOL    HW263382   8.974   0.940   6.957  0.4834 -0.1955  1.0642
52688SOL     OW63383   3.991   8.864   0.924 -0.2210  0.4864  0.4008
52688SOL    HW163384   4.013   8.909   0.843 -1.4476  1.2098  0.4409
52688SOL    HW263385   4.072   8.821   0.951  1.0011  2.5839  0.2854
52689SOL     OW63386   4.698   5.540   3.726 -0.3555  1.1968  0.2466
52689SOL    HW163387   4.629   5.607   3.729  0.6422  2.3210 -0.7576
52689SOL    HW263388   4.776   5.584   3.760 -0.3323 -0.3927  2.4645
52690SOL     OW63389   1.247   3.128   6.564 -0.2296  0.5950 -0.0277
52690SOL    HW163390   1.158   3.150   6.540 -0.2595  0.5037 -0.0011
52690SOL    HW263391   1.280   3.075   6.492 -1.0167 -1.4668  1.0463
52691SOL     OW63392   7.442   2.052   3.335 -0.6736 -0.1850 -0.2521
52691SOL    HW163393   7.350   2.050   3.362 -0.2198  0.2085  1.4882
52691SOL    HW263394   7.458   2.143   3.310 -1.1753 -0.6134 -2.3077
52692SOL     OW63395   0.033   8.492   9.451 -0.0149  0.0219  0.2298
52692SOL    HW163396  -0.020   8.531   9.381 -3.2290  0.5661  2.7466
52692SOL    HW263397   0.010   8.399   9.450  3.1949 -0.9260 -1.9746
52693SOL     OW63398  11.590   8.175   5.513  0.2995  0.2066  0.4653
52693SOL    HW163399  11.644   8.254   5.507  0.0210  0.3938  0.4286
52693SOL    HW263400  11.555   8.164   5.425  0.0805  0.2240  0.5517
52694SOL     OW63401   8.639   0.287   6.437 -0.4966  0.1558 -0.3173
52694SOL    HW163402   8.582   0.330   6.500  1.2700  0.0091  1.4816
52694SOL    HW263403   8.705   0.242   6.490  1.6381  0.7730 -2.2616
52695SOL     OW63404   6.533   0.852   8.402  0.0480  0.5719 -0.3286
52695SOL    HW163405   6.538   0.947   8.398 -1.7151  0.6989 -0.4978
52695SOL    HW263406   6.496   0.833   8.488 -2.3903  0.2725 -1.3446
52696SOL     OW63407   0.390   5.865   5.031 -0.0853  0.3322  0.1134
52696SOL    HW163408   0.388   5.955   4.998  1.6810  0.9109  1.4597
52696SOL    HW263409   0.456   5.822   4.978 -0.3720  0.0351 -0.0051
52697SOL     OW63410   2.186   6.856  11.304 -0.8124 -0.4317  0.2508
52697SOL    HW163411   2.163   6.901  11.385  0.1957  0.1103  0.2543
52697SOL    HW263412   2.123   6.888  11.240 -1.4102 -0.6170  0.7378
52698SOL     OW63413   3.539   5.632   4.753 -0.1135 -0.1886 -0.0382
52698SOL    HW163414   3.612   5.635   4.814 -0.0587 -1.1234 -0.0333
52698SOL    HW263415   3.579   5.636   4.666 -0.0510 -0.6005 -0.0331
52699SOL     OW63416   5.567  10.281   3.349 -0.5032  0.6539  0.4284
52699SOL    HW163417   5.644  10.245   3.394  0.6044  2.6653  0.3172
52699SOL    HW263418   5.568  10.239   3.263  2.0917  2.4260 -0.5617
52700SOL     OW63419   2.332   7.626   9.860  0.0246  0.3830  0.5824
52700SOL    HW163420   2.401   7.562   9.839  0.6814  0.5840  2.0077
52700SOL    HW263421   2.370   7.710   9.834 -0.7897  0.2610 -1.1724
52701SOL     OW63422   8.378   1.878  11.745  0.3133  0.1044 -0.0005
52701SOL    HW163423   8.470   1.894  11.763  0.4489 -0.3598 -0.2815
52701SOL    HW263424   8.369   1.887  11.650 -0.0471  0.7145  0.0802
52702SOL     OW63425   3.757  11.347  10.448 -0.3707  0.2000 -0.7037
52702SOL    HW163426   3.688  11.413  10.436  0.1648  0.7287 -0.9034
52702SOL    HW263427   3.743  11.314  10.537 -0.1166  1.2114 -0.2742
52703SOL     OW63428   3.245  10.579   4.203 -0.0211  0.0555 -0.3087
52703SOL    HW163429   3.318  10.525   4.174  0.0367 -0.0348 -0.0027
52703SOL    HW263430   3.277  10.621   4.283 -0.1169  0.4273 -0.4657
52704SOL     OW63431   0.691  10.836   5.392 -0.4621  0.4079 -0.4426
52704SOL    HW163432   0.599  10.820   5.411 -0.3365 -0.1891 -0.3062
52704SOL    HW263433   0.694  10.925   5.358 -0.8798  1.0326  1.0663
52705SOL     OW63434   1.981   7.494  10.301 -0.3407  0.2082 -0.4875
52705SOL    HW163435   2.061   7.542  10.277  0.7985 -1.1752  0.4483
52705SOL    HW263436   1.983   7.415  10.247  0.7450 -1.5075  1.8909
52706SOL     OW63437   5.835  10.471   9.918  0.1586  0.7089 -0.9949
52706SOL    HW163438   5.748  10.511   9.916  0.0680  0.6469 -4.7783
52706SOL    HW263439   5.890  10.530   9.866  2.3660  0.5253  0.9478
52707SOL     OW63440   7.347   3.182  10.415 -0.1291 -0.1214  0.2242
52707SOL    HW163441   7.260   3.196  10.376  0.1913  2.5740  0.2945
52707SOL    HW263442   7.344   3.229  10.498  1.1881 -0.6091  0.5647
52708SOL     OW63443  10.254  10.957  11.165 -0.3712  0.4171  0.8495
52708SOL    HW163444  10.171  10.955  11.117  0.4913 -0.6867 -0.7067
52708SOL    HW263445  10.281  11.049  11.163 -0.6007  0.4742 -0.4211
52709SOL     OW63446  11.078   2.390   3.375 -0.3226  0.0256 -0.2842
52709SOL    HW163447  11.118   2.324   3.431 -0.1484 -0.2100 -0.6777
52709SOL    HW263448  11.023   2.442   3.433 -1.6243 -1.3850 -0.2175
52710SOL     OW63449   5.975   4.252   0.076 -0.0189  0.3927 -0.0660
52710SOL    HW163450   6.011   4.279  -0.009  1.4152 -0.8384  0.1158
52710SOL    HW263451   5.883   4.280   0.073 -0.9734 -2.4390 -3.3569
52711SOL     OW63452   8.364   9.116   0.742  0.1579  0.2710  0.1801
52711SOL    HW163453   8.294   9.177   0.719  1.2799  1.2442 -0.8947
52711SOL    HW263454   8.391   9.078   0.658 -0.3218 -1.5227  0.7984
52712SOL     OW63455   8.754   4.269   4.009 -0.0943 -0.5262  1.1017
52712SOL    HW163456   8.839   4.226   4.018  0.0640 -0.4958 -0.0617
52712SOL    HW263457   8.773   4.347   3.957 -1.0997 -1.4432 -0.7473
52713SOL     OW63458  10.811   2.387   9.618  0.1111 -0.0323  1.0160
52713SOL    HW163459  10.750   2.329   9.572 -1.0047  0.0129  2.3580
52713SOL    HW263460  10.780   2.475   9.597  1.8904  0.1672 -1.1378
52714SOL     OW63461   4.081   0.100   1.418  0.3364 -0.0799 -0.2746
52714SOL    HW163462   4.136   0.047   1.475 -0.7406 -0.8090  0.1293
52714SOL    HW263463   4.086   0.189   1.454  1.6585 -0.0096 -0.5768
52715SOL     OW63464   0.625   1.025  11.701  0.2038 -0.2198 -0.2720
52715SOL    HW163465   0.659   0.960  11.762 -0.7362 -1.8518 -1.4172
52715SOL    HW263466   0.694   1.037  11.637 -0.0945 -1.1036 -0.7818
52716SOL     OW63467   6.860   3.541   0.068  0.0567 -0.7591 -0.0489
52716SOL    HW163468   6.797   3.469   0.066 -1.5789  0.6119 -0.0693
52716SOL    HW263469   6.850   3.583  -0.017  0.8516 -0.3642  0.0446
52717SOL     OW63470   0.597  11.270   5.641 -0.2299 -0.3070  0.1982
52717SOL    HW163471   0.575  11.349   5.690 -0.6946 -1.4150  1.8390
52717SOL    HW263472   0.538  11.271   5.566  1.2881  2.0202 -1.1133
52718SOL     OW63473   3.370   2.445   9.793  0.0618 -0.5003 -0.5094
52718SOL    HW163474   3.345   2.537   9.787  1.8166 -0.0592 -2.0237
52718SOL    HW263475   3.362   2.424   9.886 -0.3680  1.1773 -0.1425
52719SOL     OW63476   4.642   6.097   4.601 -0.6441  0.2343  0.7155
52719SOL    HW163477   4.710   6.130   4.542 -0.0997 -1.2784  0.4423
52719SOL    HW263478   4.569   6.158   4.590  0.4286  1.5541  0.5561
52720SOL     OW63479   2.656   2.458   8.565 -0.6118  0.0961 -0.4661
52720SOL    HW163480   2.748   2.457   8.589 -0.4425  0.5962 -1.0637
52720SOL    HW263481   2.656   2.471   8.470 -1.2932  0.0745 -0.4746
52721SOL     OW63482   5.388  10.814   7.417 -0.3148 -0.2050  0.2400
52721SOL    HW163483   5.474  10.849   7.394  0.4748 -2.1573  0.0847
52721SOL    HW263484   5.328  10.889   7.405  1.1092  0.7766 -1.1425
52722SOL     OW63485   2.374   4.610   7.413 -0.0413  0.2761  0.0913
52722SOL    HW163486   2.301   4.623   7.352  2.6636  0.3038 -3.4100
52722SOL    HW263487   2.398   4.518   7.403  0.7581  0.4003  0.7708
52723SOL     OW63488  11.150   0.052   8.426 -0.8040 -0.3401  0.4641
52723SOL    HW163489  11.094   0.082   8.498 -0.2900  1.1953  0.2590
52723SOL    HW263490  11.136  -0.042   8.423 -3.6121  0.0115  0.2333
52724SOL     OW63491   3.717   0.491   6.532 -0.8007  0.4982 -0.7206
52724SOL    HW163492   3.803   0.531   6.518 -1.0913  1.1363 -0.7099
52724SOL    HW263493   3.669   0.508   6.450 -0.7220 -0.3698 -0.9542
52725SOL     OW63494   0.809   8.571   9.145  0.3786 -0.3229  0.5867
52725SOL    HW163495   0.776   8.620   9.069 -1.5405  2.3529  2.9366
52725SOL    HW263496   0.873   8.631   9.185  1.6601 -1.8593  0.9219
52726SOL     OW63497  10.225  11.233  10.295 -0.7102  0.5201 -0.2506
52726SOL    HW163498  10.282  11.278  10.357 -0.8793  0.3663  0.0199
52726SOL    HW263499  10.272  11.238  10.211 -0.9381  1.5828 -0.3225
52727SOL     OW63500   7.498   1.397   2.552 -0.4421  0.0179  0.1875
52727SOL    HW163501   7.560   1.469   2.537 -2.2907  2.0742  1.7155
52727SOL    HW263502   7.512   1.338   2.478  1.9509  1.3387 -0.5478
52728SOL     OW63503   6.707   3.976   7.501  0.2088 -0.0548  0.2127
52728SOL    HW163504   6.639   3.908   7.501 -0.8268  0.9395 -0.6700
52728SOL    HW263505   6.785   3.931   7.470 -0.8137 -0.5754 -1.8359
52729SOL     OW63506   3.028  10.368   2.388  0.1656 -0.2390  0.7565
52729SOL    HW163507   3.111  10.333   2.418 -0.6967 -1.5319  1.7377
52729SOL    HW263508   3.052  10.440   2.329  2.0409 -2.8320 -1.9205
52730SOL     OW63509   4.079   2.716   7.379 -0.7993  0.0232  0.2436
52730SOL    HW163510   4.082   2.717   7.474 -0.4214 -2.1587  0.3108
52730SOL    HW263511   4.144   2.781   7.352 -1.4876  1.2632  1.4260
52731SOL     OW63512   5.112   1.399   2.952 -0.0677 -0.1955 -0.2819
52731SOL    HW163513   5.176   1.341   2.993  0.6796  2.4664  2.7672
52731SOL    HW263514   5.035   1.393   3.008 -0.9116 -0.1356 -1.4053
52732SOL     OW63515   3.345   7.413   6.150 -0.5616 -0.6234  0.1732
52732SOL    HW163516   3.306   7.483   6.097  0.8565  0.1107  0.0494
52732SOL    HW263517   3.341   7.336   6.093 -0.4773 -0.2061 -0.4141
52733SOL     OW63518  10.138   0.776   3.468 -0.4575 -0.3999  0.0167
52733SOL    HW163519  10.159   0.859   3.511 -1.5911 -0.4712  0.7685
52733SOL    HW263520  10.056   0.749   3.509 -2.0214 -0.1321 -2.7409
52734SOL     OW63521   4.235   8.523  10.437 -0.5128 -0.0049  0.3640
52734SOL    HW163522   4.157   8.573  10.415 -1.1113 -0.0314  2.2922
52734SOL    HW263523   4.257   8.477  10.356  0.2399  3.4901 -1.6252
52735SOL     OW63524   4.756   6.434   2.608  0.3167  0.2220 -0.1046
52735SOL    HW163525   4.797   6.438   2.694  0.2281  2.0421 -0.1138
52735SOL    HW263526   4.813   6.376   2.557  0.1833 -1.1486  1.2347
52736SOL     OW63527   2.202   1.109   1.718  0.3975 -0.3430 -0.6632
52736SOL    HW163528   2.269   1.167   1.682  0.3435  0.4234  0.3987
52736SOL    HW263529   2.208   1.029   1.666  0.4690  0.6151 -2.1686
52737SOL     OW63530   9.728   6.938  11.344  0.3133 -0.0858  0.0285
52737SOL    HW163531   9.773   6.857  11.319  0.5332  0.3222 -0.9263
52737SOL    HW263532   9.661   6.909  11.407 -0.8670 -1.2883 -1.6842
52738SOL     OW63533   7.794   8.505   7.144  0.1869  0.4555  0.1838
52738SOL    HW163534   7.864   8.485   7.206 -1.0171 -0.1871  1.4070
52738SOL    HW263535   7.713   8.497   7.196 -1.0073 -1.8032 -1.8034
52739SOL     OW63536   5.519   9.659  11.683 -0.3271  0.1677  0.3118
52739SOL    HW163537   5.551   9.734  11.633 -2.3497 -0.1440 -1.5835
52739SOL    HW263538   5.444   9.693  11.732 -0.4767 -0.3425  0.4396
52740SOL     OW63539   2.312   6.472   7.790 -0.0195  0.3966  0.0959
52740SOL    HW163540   2.359   6.481   7.873  1.6499 -0.3566 -0.7273
52740SOL    HW263541   2.344   6.544   7.736  0.1237 -0.0610 -0.4364
52741SOL     OW63542   5.720   6.290   5.738 -0.4275 -0.7761  0.6785
52741SOL    HW163543   5.653   6.285   5.669 -1.2703 -1.8515  1.5525
52741SOL    HW263544   5.734   6.384   5.750 -1.9006 -0.5283  0.5933
52742SOL     OW63545   1.157   3.838   2.889 -0.0665 -0.1828 -0.3994
52742SOL    HW163546   1.248   3.831   2.861  0.3192  1.4059  0.2993
52742SOL    HW263547   1.155   3.799   2.976  0.7026  2.4382  0.9052
52743SOL     OW63548   7.106  11.087   8.819 -0.0342 -0.0133  0.0911
52743SOL    HW163549   7.039  11.026   8.788 -0.0562  0.3602 -0.6287
52743SOL    HW263550   7.177  11.078   8.755  1.4312 -1.7654  1.8242
52744SOL     OW63551   6.798   9.866   8.593 -0.1133 -0.6938  0.1573
52744SOL    HW163552   6.852   9.886   8.517  0.0812  1.1095  0.7356
52744SOL    HW263553   6.833   9.920   8.664 -1.4964 -0.8728  1.0293
52745SOL     OW63554  11.735   7.638   5.673 -0.3613 -0.0046  0.1263
52745SOL    HW163555  11.795   7.564   5.678 -0.0635  0.1025 -1.3076
52745SOL    HW263556  11.728   7.670   5.763  1.3099 -0.3447  0.4077
52746SOL     OW63557   2.490   9.889   1.802  0.1564 -0.0659  0.3934
52746SOL    HW163558   2.397   9.904   1.818  0.0708 -0.5580  0.3778
52746SOL    HW263559   2.495   9.855   1.713  0.0243 -2.8197  1.3403
52747SOL     OW63560   4.179   5.342   2.264 -0.5388  0.4581  0.2330
52747SOL    HW163561   4.251   5.284   2.239 -0.2051  0.5067  1.0508
52747SOL    HW263562   4.118   5.337   2.190 -0.6854 -1.2185  0.4104
52748SOL     OW63563   6.132   5.664   3.570 -0.1630 -0.1569  0.1488
52748SOL    HW163564   6.049   5.694   3.608 -0.0143  0.1219  0.2516
52748SOL    HW263565   6.164   5.739   3.520 -1.0634 -0.9557 -1.7499
52749SOL     OW63566   3.615   1.789   6.499 -0.4482 -0.1534 -0.1925
52749SOL    HW163567   3.651   1.701   6.500 -0.2411 -0.0814  1.7067
52749SOL    HW263568   3.655   1.833   6.574  0.3045  1.9364 -1.6944
52750SOL     OW63569   3.747   6.410   3.552 -0.3847  0.3347 -0.3639
52750SOL    HW163570   3.687   6.423   3.625 -0.7340 -1.0233 -0.3738
52750SOL    HW263571   3.823   6.366   3.591 -1.0531 -1.4504 -0.9547
52751SOL     OW63572   2.297   7.930   2.481  0.0894  0.2202 -0.1364
52751SOL    HW163573   2.231   7.992   2.512  0.4805 -0.1957  1.6460
52751SOL    HW263574   2.284   7.926   2.386 -0.3321  2.5715 -0.2440
52752SOL     OW63575   2.703   7.518  10.219  0.3682  0.4752 -0.1520
52752SOL    HW163576   2.637   7.585  10.198 -0.1213 -0.1905 -0.7786
52752SOL    HW263577   2.679   7.443  10.165  1.3958  0.0685 -0.0539
52753SOL     OW63578   1.716   1.703   4.185  0.3634  0.3851  0.5760
52753SOL    HW163579   1.770   1.647   4.129 -1.5948 -3.0455  1.7914
52753SOL    HW263580   1.636   1.717   4.135  0.7426  2.0687  0.3757
52754SOL     OW63581   8.807   1.033  11.813  0.3030  0.5725 -0.0650
52754SOL    HW163582   8.733   1.092  11.807 -1.0447 -1.0093  0.2411
52754SOL    HW263583   8.829   1.031  11.906 -0.6884 -0.5694  0.1706
52755SOL     OW63584   4.248   1.438   0.755  0.2076 -0.4917 -0.3004
52755SOL    HW163585   4.272   1.484   0.675 -0.5733 -0.6785 -0.6590
52755SOL    HW263586   4.290   1.487   0.826  1.4424 -0.7030 -0.8657
52756SOL     OW63587   4.615  10.367   1.855 -0.0476  0.1480 -0.5632
52756SOL    HW163588   4.520  10.377   1.862  0.0920  0.4634  1.4605
52756SOL    HW263589   4.632  10.282   1.896  0.6228  0.6188  0.1692
52757SOL     OW63590   5.178  11.119   2.710 -0.1422 -0.3527 -0.2915
52757SOL    HW163591   5.115  11.076   2.768 -0.2307 -0.5203 -0.5127
52757SOL    HW263592   5.142  11.207   2.698  0.5093  0.0944  0.8995
52758SOL     OW63593  10.228   9.783   6.367  0.2467  0.0270 -0.1489
52758SOL    HW163594  10.290   9.726   6.413  0.5542 -0.8897 -1.6244
52758SOL    HW263595  10.265   9.871   6.375  1.2706 -0.3784 -0.2291
52759SOL     OW63596   7.836   9.878   1.449  0.2035  1.1429  0.2534
52759SOL    HW163597   7.912   9.934   1.437  0.6533  0.1662 -2.0140
52759SOL    HW263598   7.840   9.816   1.376 -1.0120 -0.9908  1.8679
52760SOL     OW63599   2.820   6.778   8.605 -0.4726 -0.0152  0.3120
52760SOL    HW163600   2.772   6.815   8.531 -1.0465 -0.4907  0.4380
52760SOL    HW263601   2.904   6.823   8.604 -0.5735  0.1654 -0.4730
52761SOL     OW63602   4.186   3.664   1.472  0.0926 -0.4154  0.3052
52761SOL    HW163603   4.164   3.585   1.521 -0.9102 -0.5880 -0.3848
52761SOL    HW263604   4.140   3.654   1.388 -0.2271  0.9850  0.2827
52762SOL     OW63605   8.199   1.755   3.033 -0.0632 -0.0246  0.3817
52762SOL    HW163606   8.171   1.787   2.947 -0.6074 -0.2209  0.4751
52762SOL    HW263607   8.144   1.677   3.048 -0.9069  0.7390  1.4685
52763SOL     OW63608   1.491   6.447   6.630 -0.1698 -0.0376  0.1302
52763SOL    HW163609   1.544   6.367   6.625 -0.2702 -0.0266 -1.7902
52763SOL    HW263610   1.402   6.416   6.647 -1.2202 -0.9472 -5.2489
52764SOL     OW63611   3.431  11.546  10.167 -0.5608  0.5794 -0.0716
52764SOL    HW163612   3.339  11.532  10.144 -0.5745  1.0832 -0.3481
52764SOL    HW263613   3.479  11.484  10.113 -0.7300  0.3661  0.0189
52765SOL     OW63614   8.616   1.461   9.917  0.3088  0.0012 -0.2272
52765SOL    HW163615   8.674   1.419   9.981  0.0693 -0.4721 -0.3161
52765SOL    HW263616   8.673   1.485   9.845  0.4251 -0.3027 -0.2381
52766SOL     OW63617  11.425   5.271   6.478  0.4365 -0.3824  0.4442
52766SOL    HW163618  11.428   5.191   6.426  0.6879  0.4844 -0.9375
52766SOL    HW263619  11.427   5.241   6.569 -0.7294 -1.9921 -0.0093
52767SOL     OW63620   5.707  11.511   7.911 -0.0514  0.6052 -0.0926
52767SOL    HW163621   5.691  11.430   7.862  0.3696  0.0597  0.6293
52767SOL    HW263622   5.749  11.569   7.849  0.4608 -0.0671 -0.3905
52768SOL     OW63623   5.993   2.621   6.384  0.0582  0.3428  0.4863
52768SOL    HW163624   6.052   2.633   6.309 -0.2715 -0.5923  0.0586
52768SOL    HW263625   5.906   2.615   6.345 -0.1506  0.2167  0.9739
52769SOL     OW63626   5.632   6.009   1.126  0.4245 -0.5515 -0.4951
52769SOL    HW163627   5.653   6.081   1.067 -2.3985  0.2041 -0.7162
52769SOL    HW263628   5.677   6.030   1.207 -0.4486  1.6084 -0.4998
52770SOL     OW63629   5.878   5.756   0.273  0.1320 -0.6970  0.1392
52770SOL    HW163630   5.955   5.752   0.329 -0.7417  2.0148  1.7225
52770SOL    HW263631   5.834   5.672   0.286  1.3885 -1.2008  1.3724
52771SOL     OW63632   6.418   4.526  11.110  0.4052 -0.2965 -0.4685
52771SOL    HW163633   6.460   4.594  11.163 -1.3207  1.1418 -0.8294
52771SOL    HW263634   6.476   4.515  11.034  1.1052  0.2044 -0.0108
52772SOL     OW63635  10.062  11.796   8.756  0.1332  0.4048  0.1417
52772SOL    HW163636  10.105  11.724   8.802  0.0216  0.3116  0.0992
52772SOL    HW263637   9.986  11.817   8.811 -0.3845 -0.1619 -0.3543
52773SOL     OW63638   0.599  10.581   3.064  0.5211  0.7260 -0.3948
52773SOL    HW163639   0.636  10.658   3.108  1.1377 -0.8550  2.0940
52773SOL    HW263640   0.569  10.525   3.136 -1.7450 -0.5293 -2.1582
52774SOL     OW63641   3.227   1.661   2.328  0.4016  0.1342  0.1676
52774SOL    HW163642   3.184   1.673   2.412 -0.2891 -0.1752 -0.1376
52774SOL    HW263643   3.174   1.710   2.266  0.4108 -0.3530 -0.2309
52775SOL     OW63644  11.209   2.929   1.874  0.6654  0.2348 -0.4033
52775SOL    HW163645  11.191   2.960   1.963 -0.8911  1.0507 -0.9682
52775SOL    HW263646  11.156   2.850   1.865  1.5778 -0.3956 -0.2862
52776SOL     OW63647   6.138   1.927   9.449  0.2506  0.3883 -0.3316
52776SOL    HW163648   6.062   1.966   9.406 -0.9922 -0.3921  1.0604
52776SOL    HW263649   6.160   1.989   9.518  1.5636  1.1171 -1.3692
52777SOL     OW63650   5.155   8.699  11.460  0.2704  0.3040  0.1258
52777SOL    HW163651   5.156   8.761  11.387  0.5642  0.1124 -0.0388
52777SOL    HW263652   5.139   8.752  11.537 -0.4881  0.4567 -0.1305
52778SOL     OW63653   6.848   9.954   6.846 -0.4420  0.0782  0.0665
52778SOL    HW163654   6.913  10.021   6.824  0.8704 -0.8002  1.0455
52778SOL    HW263655   6.836   9.963   6.941 -1.2294 -0.2272  0.0009
52779SOL     OW63656   5.471   9.830   9.848 -0.2532 -0.2579 -0.2925
52779SOL    HW163657   5.542   9.785   9.893 -0.6362 -0.4802  0.0914
52779SOL    HW263658   5.401   9.765   9.841 -0.7770  0.2442  0.1899
52780SOL     OW63659   6.613   5.375   9.621  0.1234 -0.0527  0.4661
52780SOL    HW163660   6.567   5.291   9.624  0.2091 -0.0840  0.8809
52780SOL    HW263661   6.595   5.415   9.706  0.0623  0.3616  0.2615
52781SOL     OW63662   4.521  10.173   4.971 -0.2896  0.2594 -0.2074
52781SOL    HW163663   4.604  10.173   4.923 -0.2962 -0.4494 -0.2331
52781SOL    HW263664   4.491  10.082   4.966 -1.5759  0.7153 -1.0528
52782SOL     OW63665  10.401  10.665   6.091 -0.0856 -0.3665  0.0933
52782SOL    HW163666  10.380  10.683   6.183  1.2132 -0.3706  0.4041
52782SOL    HW263667  10.344  10.592   6.068 -1.2740  0.3818  0.5264
52783SOL     OW63668   9.691   8.263   0.220  0.0742 -0.7161 -0.4041
52783SOL    HW163669   9.629   8.258   0.292  0.9720 -0.3629  0.4204
52783SOL    HW263670   9.677   8.350   0.182  0.8227 -0.1510  0.5297
52784SOL     OW63671   8.302   6.014   4.624 -0.1083 -0.0120 -0.1248
52784SOL    HW163672   8.274   6.049   4.708 -0.4768 -1.5039  0.3981
52784SOL    HW263673   8.305   6.090   4.566  0.2929  1.0611  1.2592
52785SOL     OW63674   4.009   5.237   4.518 -0.1670  0.0112  0.3140
52785SOL    HW163675   4.031   5.327   4.544  1.0010 -0.2409  0.2555
52785SOL    HW263676   3.978   5.195   4.598 -0.2718  0.3346  0.4435
52786SOL     OW63677  10.923   8.602   4.761  1.0506  0.4714  0.1946
52786SOL    HW163678  10.917   8.635   4.851 -0.2981  0.4819  0.1140
52786SOL    HW263679  10.951   8.678   4.710  0.2987  0.8838  0.3778
52787SOL     OW63680   0.659   9.012   9.784  0.6737  0.0440 -0.3227
52787SOL    HW163681   0.723   8.975   9.723  1.4157  0.4156  0.2199
52787SOL    HW263682   0.649   9.103   9.757 -0.5404 -0.2973 -1.1458
52788SOL     OW63683   5.312  11.066   8.002  0.2682 -0.3384  0.2650
52788SOL    HW163684   5.302  10.971   7.996  0.8551 -0.4389  0.8009
52788SOL    HW263685   5.337  11.093   7.913 -0.6363 -0.5796 -0.0753
52789SOL     OW63686   2.796   8.056   2.889  0.1361 -0.3716 -0.1313
52789SOL    HW163687   2.765   7.969   2.864  3.3594 -0.6822 -4.3132
52789SOL    HW263688   2.885   8.041   2.921 -0.3292  1.2209  2.1320
52790SOL     OW63689   7.023   9.233   7.539 -0.4711 -0.4315 -0.5342
52790SOL    HW163690   7.117   9.247   7.528 -0.4157 -0.9301 -0.7080
52790SOL    HW263691   6.991   9.215   7.451 -0.9145  0.7762 -0.6361
52791SOL     OW63692   2.775  10.533   4.820  0.5346  0.1890 -0.0624
52791SOL    HW163693   2.822  10.526   4.737  0.2920 -1.5937 -0.0815
52791SOL    HW263694   2.772  10.444   4.854 -0.8754  0.6113  1.0303
52792SOL     OW63695   8.247   1.506   1.029 -0.0021  0.0637  0.2548
52792SOL    HW163696   8.222   1.451   0.955  3.3402 -0.7272 -0.4592
52792SOL    HW263697   8.181   1.575   1.031 -2.2442 -1.9077 -1.1300
52793SOL     OW63698   5.819   8.440  10.080  0.7223 -0.3985 -0.1699
52793SOL    HW163699   5.776   8.510  10.031 -1.0333 -1.2073  0.1041
52793SOL    HW263700   5.752   8.412  10.143  1.4311 -2.1987 -0.1756
52794SOL     OW63701  10.762   3.864   4.757 -0.3338 -0.0188 -0.0869
52794SOL    HW163702  10.771   3.902   4.844  1.8873  1.6036 -0.9411
52794SOL    HW263703  10.833   3.801   4.751 -0.1980  0.2061 -0.8836
52795SOL     OW63704   0.299  11.340   6.515 -0.1894  0.2846  0.0161
52795SOL    HW163705   0.263  11.412   6.567  3.3622  3.1783 -1.1181
52795SOL    HW263706   0.268  11.356   6.427  0.7343  0.5357 -0.2714
52796SOL     OW63707  11.353   7.504   6.737 -0.0955 -0.3197  0.1295
52796SOL    HW163708  11.345   7.425   6.685  0.8938 -0.2188 -0.1874
52796SOL    HW263709  11.426   7.487   6.796 -1.6071 -0.6972  2.0028
52797SOL     OW63710   3.177   4.947   0.592  0.4879  0.4993  0.5075
52797SOL    HW163711   3.177   4.930   0.498  1.5707 -0.3073  0.6301
52797SOL    HW263712   3.207   5.037   0.600  1.4933  0.2206  0.1071
52798SOL     OW63713   3.917  10.507   2.060  0.2583 -0.0196 -0.1479
52798SOL    HW163714   3.888  10.565   1.989 -0.2480 -0.1367 -0.0435
52798SOL    HW263715   3.850  10.517   2.127  0.9924  0.4738  0.5314
52799SOL     OW63716  10.782   3.136   2.690 -0.8679 -0.0755 -0.0904
52799SOL    HW163717  10.800   3.049   2.655  0.1654  0.2293 -0.3648
52799SOL    HW263718  10.793   3.194   2.614 -0.3540  0.4055  0.3423
52800SOL     OW63719   0.270   1.008  10.050 -0.1671  0.1656  0.2649
52800SOL    HW163720   0.269   0.936  10.113 -0.4848  0.3661  0.4966
52800SOL    HW263721   0.182   1.008  10.012  0.7531 -1.5846 -2.0900
52801SOL     OW63722   6.626   6.087  10.458  0.3519  0.5308  0.3623
52801SOL    HW163723   6.651   5.997  10.441  1.2809  0.8891 -0.2830
52801SOL    HW263724   6.579   6.114  10.379 -0.8007  0.3164  0.9625
52802SOL     OW63725   4.119  10.901   2.894  0.5444  0.5611  0.0523
52802SOL    HW163726   4.045  10.932   2.842 -0.1028 -0.1691  0.5126
52802SOL    HW263727   4.167  10.980   2.918 -1.6449  1.3739  2.1100
52803SOL     OW63728   6.943  10.994   2.902  0.0657 -0.0872 -0.1921
52803SOL    HW163729   6.996  10.995   2.982 -0.9444 -1.8147  0.5618
52803SOL    HW263730   6.871  11.053   2.920  1.1500  1.5206 -0.8561
52804SOL     OW63731   3.343   1.784   6.613  0.1104 -0.6141  0.5195
52804SOL    HW163732   3.348   1.801   6.707  0.5802 -0.8970  0.5519
52804SOL    HW263733   3.435   1.783   6.584 -0.0557  2.6269 -0.5450
52805SOL     OW63734   5.765   3.814   1.783 -0.3491  0.2888  0.3963
52805SOL    HW163735   5.694   3.783   1.839  0.3737  0.5044  1.4656
52805SOL    HW263736   5.778   3.905   1.809 -0.2236  0.5001 -0.3760
52806SOL     OW63737   7.897   4.594   6.048 -0.2856  0.3093  0.5604
52806SOL    HW163738   7.961   4.560   5.986 -2.4460 -1.9569 -0.6075
52806SOL    HW263739   7.860   4.671   6.005 -0.2941 -0.0253 -0.0444
52807SOL     OW63740   8.111   5.848   5.009  0.1738 -0.2030  0.0116
52807SOL    HW163741   8.131   5.905   4.935  2.0794 -0.4427  0.2892
52807SOL    HW263742   8.097   5.761   4.969  3.8243 -0.9566 -0.0148
52808SOL     OW63743   4.663   5.622   6.854  0.2420 -0.0721 -0.4566
52808SOL    HW163744   4.577   5.587   6.879  0.4267  1.3285  2.5135
52808SOL    HW263745   4.724   5.578   6.913  1.3578  0.2698 -1.3361
52809SOL     OW63746   3.297   6.103   5.286  0.0521  0.0498  0.3654
52809SOL    HW163747   3.337   6.187   5.305 -3.1685  2.3656 -1.9711
52809SOL    HW263748   3.221   6.099   5.344 -1.7931  0.5532 -1.8526
52810SOL     OW63749   5.551   0.585   9.438 -0.5583  0.4427 -0.4059
52810SOL    HW163750   5.617   0.652   9.452 -0.1819  0.1050 -0.5551
52810SOL    HW263751   5.478   0.611   9.495  0.7735 -0.7004  2.0052
52811SOL     OW63752   1.429   8.582   3.760 -0.4476  0.7328 -0.4612
52811SOL    HW163753   1.416   8.622   3.846  4.3871 -2.1942  2.0767
52811SOL    HW263754   1.506   8.626   3.724 -0.5872 -0.1076 -1.8616
52812SOL     OW63755   8.055   2.221   4.807  0.7140  0.0270  0.1933
52812SOL    HW163756   8.059   2.209   4.712  1.1617  0.3646  0.1632
52812SOL    HW263757   8.144   2.206   4.836  0.6184  0.1257  0.5358
52813SOL     OW63758   5.907  10.596   4.536 -0.4784 -0.1435  0.1538
52813SOL    HW163759   5.908  10.501   4.528 -1.8297 -0.1202 -0.6023
52813SOL    HW263760   5.873  10.612   4.624  0.0031 -0.3523  0.3826
52814SOL     OW63761   0.737   0.649   2.521 -0.4583  0.6669  0.0868
52814SOL    HW163762   0.794   0.666   2.446 -0.6338  2.2606  0.2921
52814SOL    HW263763   0.665   0.710   2.512 -1.2479 -0.1241  0.7849
52815SOL     OW63764  10.742   0.533  10.424  0.3629  0.3127  0.0942
52815SOL    HW163765  10.829   0.561  10.396  1.5460 -0.1252  2.9683
52815SOL    HW263766  10.738   0.441  10.398  1.1126  0.1093  0.6571
52816SOL     OW63767   1.634   8.272   6.779  0.4062 -0.3421  0.0411
52816SOL    HW163768   1.705   8.334   6.767 -0.1657  0.6618  1.5755
52816SOL    HW263769   1.602   8.253   6.691  1.4403  0.5228 -0.5280
52817SOL     OW63770   2.843   0.120   3.835  0.0551  0.1284 -0.5184
52817SOL    HW163771   2.887   0.204   3.821  1.5761 -0.4640  0.3995
52817SOL    HW263772   2.831   0.084   3.747  2.7730 -0.2985 -0.7954
52818SOL     OW63773   6.912   1.641   4.672 -0.3600 -0.0726 -0.0337
52818SOL    HW163774   6.830   1.650   4.721 -0.4939  0.9444 -0.4334
52818SOL    HW263775   6.891   1.581   4.601 -0.7498  0.1548 -0.1135
52819SOL     OW63776   6.217   2.996  10.303  0.0043  0.0479 -0.0050
52819SOL    HW163777   6.195   3.039  10.386  1.3466 -0.8145  0.8237
52819SOL    HW263778   6.307   2.966  10.314  0.1821 -0.1788 -1.7526
52820SOL     OW63779   1.038   7.344   8.002 -0.1709  0.0448 -0.4365
52820SOL    HW163780   0.974   7.344   8.073 -0.4488  0.6237 -0.6772
52820SOL    HW263781   1.020   7.264   7.953 -1.7673  0.9557 -1.4262
52821SOL     OW63782   7.444   1.899   6.958  0.5243  0.0837 -0.3773
52821SOL    HW163783   7.480   1.822   7.003  1.6630  1.3693  1.0299
52821SOL    HW263784   7.356   1.873   6.933  1.2115 -2.0034 -0.8344
52822SOL     OW63785   7.110   3.579   1.243  0.2057  0.4708 -0.4887
52822SOL    HW163786   7.070   3.664   1.254 -1.3538 -0.1671 -1.0111
52822SOL    HW263787   7.145   3.580   1.154 -2.0605 -0.2770 -1.4592
52823SOL     OW63788   2.091   1.819   2.854  0.0203 -0.0871  0.2607
52823SOL    HW163789   2.016   1.854   2.806 -0.4533  0.3711  1.3034
52823SOL    HW263790   2.133   1.760   2.792 -1.3205 -0.5126 -0.2818
52824SOL     OW63791   4.043   7.362   6.817  0.4416  0.8309 -0.1475
52824SOL    HW163792   4.059   7.450   6.853  1.3237  0.0485  1.4632
52824SOL    HW263793   4.097   7.359   6.738  0.7259  1.5942  0.0025
52825SOL     OW63794   5.905   9.334   5.368  1.0524 -0.8744  0.1899
52825SOL    HW163795   5.923   9.374   5.453  0.3112  2.0166 -0.8824
52825SOL    HW263796   5.973   9.368   5.310  0.9314 -1.9433 -0.6079
52826SOL     OW63797   3.834   0.454   0.847  0.6022  0.8574 -0.2645
52826SOL    HW163798   3.799   0.462   0.935  2.0491  1.0071  0.3204
52826SOL    HW263799   3.814   0.364   0.821  1.7051  0.2425  0.9138
52827SOL     OW63800   9.602   8.455  10.965 -0.0652 -0.0352 -0.2755
52827SOL    HW163801   9.593   8.438  11.059 -0.2819  0.5377 -0.1842
52827SOL    HW263802   9.560   8.541  10.953 -0.2612 -0.2212 -0.9369
52828SOL     OW63803   0.216   2.546   7.836 -0.1596  0.7802 -0.4984
52828SOL    HW163804   0.276   2.535   7.762 -0.9289  0.1077 -1.0442
52828SOL    HW263805   0.268   2.590   7.904  0.8105  0.6027 -1.1173
52829SOL     OW63806  11.704   1.991  11.061  0.1207  0.3196  0.8294
52829SOL    HW163807  11.733   2.014  11.149  0.3058  1.6213  0.4509
52829SOL    HW263808  11.610   1.974  11.071  0.6049 -2.2379  1.7433
52830SOL     OW63809   2.857   4.138   9.538  0.5084 -0.3419 -0.0376
52830SOL    HW163810   2.861   4.230   9.512  1.3098 -0.2716  0.3312
52830SOL    HW263811   2.789   4.100   9.481  0.0121  0.5231 -0.0300
52831SOL     OW63812  11.048   6.957   8.970  0.2202  0.2443 -0.6391
52831SOL    HW163813  11.071   7.037   8.921 -1.5234  2.0375  1.2576
52831SOL    HW263814  11.101   6.961   9.049 -0.2173 -0.2314 -0.3154
52832SOL     OW63815   9.868   3.988   4.587 -0.4027 -0.4880 -0.5366
52832SOL    HW163816   9.913   4.063   4.548  0.1129 -0.8419 -0.6468
52832SOL    HW263817   9.795   3.970   4.527 -0.8469  0.2481 -0.2220
52833SOL     OW63818   4.058   8.632   3.166  0.0337  0.4480  0.1981
52833SOL    HW163819   4.087   8.690   3.236 -0.9966  0.7618  0.3763
52833SOL    HW263820   3.994   8.684   3.117 -1.9517 -0.9741  1.1745
52834SOL     OW63821   8.716   3.280   1.175 -0.3809  0.3747 -0.2863
52834SOL    HW163822   8.784   3.345   1.160 -0.0432 -0.1290 -0.9888
52834SOL    HW263823   8.754   3.197   1.144 -1.4678  0.1690 -1.1435
52835SOL     OW63824   2.911   5.273   8.650  0.1149 -0.2770  0.1770
52835SOL    HW163825   2.832   5.238   8.608 -0.7859 -1.2311  2.4590
52835SOL    HW263826   2.878   5.319   8.727  1.6005  2.3165 -0.6221
52836SOL     OW63827   5.843   9.510   8.560 -0.1657 -0.6695  0.1994
52836SOL    HW163828   5.782   9.438   8.570 -2.1483  0.7323 -0.9339
52836SOL    HW263829   5.884   9.496   8.474  1.4324 -1.7782  1.0933
52837SOL     OW63830   9.830   1.376   3.871 -0.1403 -0.0065  0.4064
52837SOL    HW163831   9.808   1.391   3.779  1.0628  1.0297  0.2611
52837SOL    HW263832   9.761   1.318   3.903  0.0839 -1.3712 -1.4598
52838SOL     OW63833   3.696   4.758   2.013 -0.0043  0.0000 -0.3465
52838SOL    HW163834   3.721   4.724   1.927 -1.0779 -0.5124 -0.4794
52838SOL    HW263835   3.678   4.679   2.064  2.4996  0.1968  0.9925
52839SOL     OW63836   2.509   8.688   9.573  0.9525 -0.5782 -0.0950
52839SOL    HW163837   2.498   8.751   9.502  0.5848 -0.2885  0.2080
52839SOL    HW263838   2.445   8.619   9.554  1.5075 -0.9773 -0.5447
52840SOL     OW63839   1.161   5.314   4.997  0.1380  0.1298  0.3979
52840SOL    HW163840   1.169   5.233   5.047 -0.1790 -0.9725 -1.2592
52840SOL    HW263841   1.184   5.383   5.059  2.2027 -1.3432  1.3806
52841SOL     OW63842  11.005   6.612   4.099 -0.1608  0.3912  0.0863
52841SOL    HW163843  11.031   6.669   4.172  0.4679 -0.0541  0.2112
52841SOL    HW263844  10.942   6.551   4.138 -0.8130  0.9596 -0.0402
52842SOL     OW63845   7.528   4.854   1.582  0.1724 -0.2402 -0.3580
52842SOL    HW163846   7.463   4.784   1.572 -0.1491  0.1335 -0.9831
52842SOL    HW263847   7.609   4.809   1.605 -0.0423 -0.8191 -0.7067
52843SOL     OW63848   5.945   0.619   4.611  0.1115 -0.6050 -0.0047
52843SOL    HW163849   5.978   0.708   4.612 -2.3954  0.4513 -1.1422
52843SOL    HW263850   5.954   0.588   4.701 -1.1128  1.7140  1.0000
52844SOL     OW63851   4.122   4.838  11.259 -0.2827  0.0091 -0.2831
52844SOL    HW163852   4.102   4.874  11.346 -3.3434 -2.1873  0.0762
52844SOL    HW263853   4.064   4.885  11.199  1.4750  1.1739 -1.1594
52845SOL     OW63854   7.443   4.362   0.127 -0.3172  0.0252 -0.1451
52845SOL    HW163855   7.408   4.312   0.054  1.8261 -0.4798 -0.9117
52845SOL    HW263856   7.413   4.315   0.205 -0.7550 -0.7574 -0.7729
52846SOL     OW63857   1.817   8.877   7.252  0.1619  0.0229 -0.1203
52846SOL    HW163858   1.824   8.856   7.159 -1.7485 -0.1117 -0.2752
52846SOL    HW263859   1.806   8.792   7.295  1.0057  0.0865  0.2355
52847SOL     OW63860   6.393  10.196   9.452  0.3247  0.0210 -0.0305
52847SOL    HW163861   6.380  10.227   9.363 -2.2846 -2.4618 -0.6813
52847SOL    HW263862   6.414  10.103   9.442  3.7004  0.4115  1.9117
52848SOL     OW63863   3.741   7.951   6.513 -0.5636 -0.1617 -0.1133
52848SOL    HW163864   3.833   7.939   6.539 -0.2988  1.4971 -0.2195
52848SOL    HW263865   3.695   7.880   6.559  0.7343 -0.9559  0.0357
52849SOL     OW63866   2.663   3.030   2.161 -0.0053 -0.2706 -0.3835
52849SOL    HW163867   2.667   2.936   2.178  1.2683 -0.2428 -0.4725
52849SOL    HW263868   2.640   3.036   2.068  0.7825 -0.5093 -0.5995
52850SOL     OW63869   1.669   8.838   5.409 -0.3640 -0.4316 -0.3427
52850SOL    HW163870   1.608   8.811   5.478 -0.2511  2.4841  1.0375
52850SOL    HW263871   1.750   8.790   5.428 -1.3479 -2.2975 -0.6067
52851SOL     OW63872   5.282   6.937  10.571  0.4206  0.2416  0.4113
52851SOL    HW163873   5.233   6.855  10.573  2.1920 -0.8441  0.9422
52851SOL    HW263874   5.360   6.918  10.519 -0.0455  2.1625 -1.1088
52852SOL     OW63875   6.581   4.275   9.149 -0.2400 -0.2458 -0.1140
52852SOL    HW163876   6.505   4.330   9.133 -1.2377 -1.1540  1.1729
52852SOL    HW263877   6.573   4.203   9.086  0.1131  0.1748 -0.6435
52853SOL     OW63878   2.020   4.096   9.423 -0.1509 -0.0946 -0.6657
52853SOL    HW163879   2.086   4.146   9.471 -0.5209  0.7951 -1.0459
52853SOL    HW263880   1.950   4.160   9.405 -0.8006 -0.8420 -0.8654
52854SOL     OW63881   0.846   2.497   6.467 -0.1348 -0.2675 -0.4628
52854SOL    HW163882   0.824   2.405   6.453 -0.2385 -0.1974 -0.7946
52854SOL    HW263883   0.761   2.541   6.470 -0.1787 -0.4261  1.6271
52855SOL     OW63884   0.909  10.707   2.264  0.3853 -0.2308  0.4186
52855SOL    HW163885   0.913  10.789   2.215  0.2545  0.4533  1.5257
52855SOL    HW263886   0.818  10.701   2.294  0.5025 -0.5560  0.7139
52856SOL     OW63887   6.686   4.395   9.823  0.2928  0.3030  0.4294
52856SOL    HW163888   6.613   4.457   9.822  0.7205  0.8067 -0.3068
52856SOL    HW263889   6.670   4.338   9.748 -2.0745 -2.8823  3.1038
52857SOL     OW63890   9.179   1.195  10.624  0.4386 -0.0077 -0.3042
52857SOL    HW163891   9.128   1.246  10.687 -1.6567 -0.3614 -1.6373
52857SOL    HW263892   9.161   1.104  10.646  3.4377 -0.3044  1.4749
52858SOL     OW63893   7.185   1.487  10.741  0.0930 -0.0587 -0.2839
52858SOL    HW163894   7.111   1.490  10.802 -0.7060  1.5118 -1.2678
52858SOL    HW263895   7.145   1.496  10.655  1.4346  0.6716 -0.8526
52859SOL     OW63896   1.637   3.555   8.894  0.5330  0.5000 -0.3559
52859SOL    HW163897   1.632   3.470   8.852 -1.9076  0.3585  0.0788
52859SOL    HW263898   1.683   3.611   8.832 -1.8641 -0.0067 -2.7435
52860SOL     OW63899   5.415   1.545   9.029  0.2849  0.2377 -0.7467
52860SOL    HW163900   5.407   1.594   9.111  0.2864 -1.9051  0.6221
52860SOL    HW263901   5.503   1.566   8.997  1.6035 -1.2816  1.5566
52861SOL     OW63902   0.353   3.560  10.403 -0.0443 -0.1606  0.2295
52861SOL    HW163903   0.258   3.555  10.393 -0.3646  0.7866  2.3934
52861SOL    HW263904   0.367   3.579  10.495  2.1876  1.7130 -0.4015
52862SOL     OW63905   4.959   6.796   3.482 -0.0268 -0.1418 -0.2126
52862SOL    HW163906   5.038   6.778   3.533 -1.1046 -0.2508  1.4818
52862SOL    HW263907   4.941   6.713   3.437 -0.1247 -0.6691  0.7633
52863SOL     OW63908   1.171   5.047   6.003 -0.0628 -0.2010  0.2538
52863SOL    HW163909   1.117   4.980   5.962 -0.9829  1.0033 -0.5610
52863SOL    HW263910   1.214   5.092   5.931  2.3767 -1.3281  0.8809
52864SOL     OW63911   0.384   8.370   5.479  0.1035 -0.0269  0.1918
52864SOL    HW163912   0.386   8.299   5.416  1.3280 -0.7800  1.0215
52864SOL    HW263913   0.475   8.400   5.484 -0.1503  0.6789  0.8674
52865SOL     OW63914   9.837   1.036   0.817 -0.8501  0.4401  0.6275
52865SOL    HW163915   9.925   1.004   0.839 -1.4322 -1.7453 -0.0193
52865SOL    HW263916   9.846   1.074   0.730 -0.3861  1.0469  0.9300
52866SOL     OW63917   0.376   5.443   2.475  0.4611 -0.1282  0.1218
52866SOL    HW163918   0.463   5.470   2.446  0.3784  1.6166  1.3247
52866SOL    HW263919   0.319   5.460   2.400  0.8830  0.4151 -0.0826
52867SOL     OW63920   0.894   7.660   3.679 -0.3019 -0.4137 -0.0349
52867SOL    HW163921   0.836   7.586   3.669  0.3356 -0.9662  0.2670
52867SOL    HW263922   0.888   7.684   3.772 -1.5674  0.8199 -0.3980
52868SOL     OW63923   7.127   7.971   7.826 -0.1700 -0.6550 -0.1646
52868SOL    HW163924   7.151   7.921   7.904 -1.3168 -1.1939 -0.1328
52868SOL    HW263925   7.036   7.946   7.809 -0.5776  0.9432 -0.5257
52869SOL     OW63926   3.511   4.960   1.367 -0.1339 -0.2983 -0.3434
52869SOL    HW163927   3.582   4.994   1.312 -0.2928  0.5819 -0.0115
52869SOL    HW263928   3.431   4.991   1.325 -0.4222 -2.1894 -1.3416
52870SOL     OW63929   0.094   4.682   5.601 -0.3424 -0.2525  0.0378
52870SOL    HW163930   0.139   4.703   5.683  0.4995 -1.4847 -0.0858
52870SOL    HW263931   0.156   4.708   5.533 -0.7047  0.0101 -0.1930
52871SOL     OW63932   3.716  11.755   8.149 -0.0723 -0.6949  0.0340
52871SOL    HW163933   3.664  11.771   8.071  0.4865  0.1472 -0.1765
52871SOL    HW263934   3.759  11.838   8.167  0.9380 -1.2741  0.3979
52872SOL     OW63935   7.739   2.635  11.578  0.2827 -0.2213  0.0450
52872SOL    HW163936   7.770   2.654  11.666  0.4122 -1.2242  0.2325
52872SOL    HW263937   7.810   2.584  11.538 -0.4329 -1.1525 -0.0789
52873SOL     OW63938   8.863   9.195  10.251  0.0637  0.4768  0.3184
52873SOL    HW163939   8.807   9.158  10.182 -0.4120  0.6537  0.5999
52873SOL    HW263940   8.803   9.249  10.303  0.3822  0.1851  0.9888
52874SOL     OW63941   1.244   8.672   2.457 -0.2590 -0.5075 -0.3447
52874SOL    HW163942   1.315   8.634   2.406  0.6154 -1.4976  1.5138
52874SOL    HW263943   1.213   8.745   2.404  0.6346 -1.4359 -2.2260
52875SOL     OW63944  10.176  11.602   7.691 -0.4276  0.2680  0.3254
52875SOL    HW163945  10.196  11.586   7.598  1.5967  0.7000  0.6445
52875SOL    HW263946  10.241  11.551   7.739 -0.8469  0.8045  1.5012
52876SOL     OW63947  11.334   0.672   8.466  0.3654 -0.1744  0.1141
52876SOL    HW163948  11.308   0.649   8.376  1.4247 -3.3991  0.5270
52876SOL    HW263949  11.263   0.638   8.521  1.0422 -0.7184  0.6601
52877SOL     OW63950   4.484   2.973   6.473 -0.1843  0.3033 -0.7824
52877SOL    HW163951   4.505   3.064   6.449 -1.6960  0.7713 -0.4470
52877SOL    HW263952   4.470   2.929   6.390  0.7119  0.3337 -0.9539
52878SOL     OW63953   6.567  10.898   4.208  0.2236 -0.1967 -0.2853
52878SOL    HW163954   6.518  10.828   4.250 -0.8670  0.3786 -0.5703
52878SOL    HW263955   6.604  10.858   4.129  1.1191 -0.9105  0.4773
52879SOL     OW63956  11.591  10.635   3.471 -0.2642  0.4748  0.2502
52879SOL    HW163957  11.612  10.601   3.384 -1.2450  3.8436 -1.4997
52879SOL    HW263958  11.497  10.617   3.481 -0.0368 -0.4142  0.9256
52880SOL     OW63959  11.116   9.418   3.808 -0.2376 -0.6422 -0.4726
52880SOL    HW163960  11.170   9.395   3.732  0.1041 -1.7124  0.0860
52880SOL    HW263961  11.151   9.503   3.837 -0.6052 -0.0397 -1.7122
52881SOL     OW63962   6.438   5.338   7.570  0.2292 -0.0669 -0.4833
52881SOL    HW163963   6.426   5.408   7.635 -0.5668  0.1873 -0.8912
52881SOL    HW263964   6.532   5.322   7.569  0.2211 -0.2973  0.9581
52882SOL     OW63965   1.420   1.467   5.686  0.0937  0.4023 -0.4731
52882SOL    HW163966   1.331   1.496   5.707 -0.4739 -0.2114 -1.8885
52882SOL    HW263967   1.426   1.379   5.723 -0.5873 -0.3188 -2.0044
52883SOL     OW63968   7.700   3.588   9.519 -0.3988  0.4094  0.4521
52883SOL    HW163969   7.672   3.519   9.459 -0.7320 -0.4869  1.6052
52883SOL    HW263970   7.690   3.550   9.606  0.4493  1.5400  1.0728
52884SOL     OW63971   3.908  10.215   7.830  0.2574 -0.4938  0.4892
52884SOL    HW163972   3.892  10.280   7.898 -0.2064  0.1991 -0.2557
52884SOL    HW263973   3.970  10.259   7.770  0.5965 -1.0561  0.4232
52885SOL     OW63974   8.208   7.781   0.030 -0.0136 -0.0724  0.0712
52885SOL    HW163975   8.288   7.777  -0.023  0.0293 -0.1155  0.1398
52885SOL    HW263976   8.195   7.691   0.060  0.6721  0.1786  1.1938
52886SOL     OW63977  10.092   0.762  11.567  0.3549 -0.2417 -0.0845
52886SOL    HW163978  10.064   0.724  11.484  1.8253 -0.1111 -0.6770
52886SOL    HW263979  10.132   0.689  11.615 -1.3456 -0.5409  0.9570
52887SOL     OW63980   0.106  11.624   0.143 -0.1587 -0.0988  0.2083
52887SOL    HW163981   0.079  11.693   0.203  1.0257  0.9755 -0.4339
52887SOL    HW263982   0.155  11.670   0.075 -0.8712 -1.3580 -1.2244
52888SOL     OW63983   9.822   0.190   2.335 -0.0352  0.4479 -0.2745
52888SOL    HW163984   9.914   0.178   2.310 -0.7952 -2.9914 -1.9305
52888SOL    HW263985   9.818   0.157   2.425  0.4167  1.1732  0.0244
52889SOL     OW63986   7.857  11.328   1.483  0.1190 -0.1651 -0.1971
52889SOL    HW163987   7.804  11.268   1.535 -0.3139  0.7145  0.4110
52889SOL    HW263988   7.825  11.318   1.394  0.5610 -1.3693 -0.2309
52890SOL     OW63989  10.648   8.724   7.992 -0.2358 -0.1486  0.2576
52890SOL    HW163990  10.570   8.670   8.001 -0.2243 -0.3374 -0.7158
52890SOL    HW263991  10.617   8.813   8.004 -0.2589 -0.3455  1.8566
52891SOL     OW63992   6.225   9.467   8.524  0.0596  0.1891  0.0539
52891SOL    HW163993   6.204   9.504   8.610 -1.1376 -0.3404  0.0075
52891SOL    HW263994   6.283   9.393   8.543 -2.0638 -1.4434  0.6886
52892SOL     OW63995   8.206   3.164   9.406 -0.3055  0.1341  0.0839
52892SOL    HW163996   8.294   3.135   9.431  0.5476  0.7602 -1.9276
52892SOL    HW263997   8.157   3.082   9.393 -0.0422 -0.2201  1.2267
52893SOL     OW63998   2.153   8.193   5.721 -0.1081 -0.3331 -0.2348
52893SOL    HW163999   2.119   8.126   5.780  0.7442  0.3710  1.0840
52893SOL    HW264000   2.075   8.238   5.689 -0.5919 -0.8443  0.2070
52894SOL     OW64001   0.364   2.572   1.134 -0.0073 -0.4311 -0.1656
52894SOL    HW164002   0.356   2.485   1.173  1.7032 -0.2683  0.6648
52894SOL    HW264003   0.455   2.597   1.150 -0.0616  0.9113 -1.6848
52895SOL     OW64004   1.888   6.231   3.244 -0.0459 -0.0442 -0.0853
52895SOL    HW164005   1.965   6.280   3.213  1.4149 -1.8398  0.4994
52895SOL    HW264006   1.923   6.174   3.313 -2.0944 -0.3175  0.7850
52896SOL     OW64007   2.367   5.889   6.462  0.3106 -0.3271 -0.4087
52896SOL    HW164008   2.382   5.808   6.510 -0.0708 -0.4602 -0.5156
52896SOL    HW264009   2.284   5.875   6.415 -0.1359  0.3873  0.1465
52897SOL     OW64010   0.587  11.538   6.855 -0.1074  0.6068 -0.4418
52897SOL    HW164011   0.581  11.634   6.853 -0.3378  0.5855 -0.8931
52897SOL    HW264012   0.553  11.511   6.770  0.4447  0.1484 -0.5141
52898SOL     OW64013   0.070  10.103   8.327 -0.4679 -0.0296  0.1769
52898SOL    HW164014   0.029  10.016   8.325 -0.3008 -0.1255  0.7737
52898SOL    HW264015   0.093  10.120   8.236 -2.0837  0.1558 -0.2248
52899SOL     OW64016   5.799  10.416   3.634 -0.3196  0.1158 -0.3356
52899SOL    HW164017   5.848  10.424   3.552 -0.9480  0.2470 -0.6995
52899SOL    HW264018   5.798  10.505   3.670  1.1294 -0.1639  0.5183
52900SOL     OW64019   8.976   8.790   6.839 -0.0444  0.0223 -0.3740
52900SOL    HW164020   9.032   8.841   6.897  0.3703 -1.2387  0.3462
52900SOL    HW264021   8.900   8.847   6.825  0.7348  1.1511 -0.2015
52901SOL     OW64022   7.627   7.443   6.103  0.4862  0.3209  1.0441
52901SOL    HW164023   7.569   7.399   6.164  0.2684 -2.5028 -0.9578
52901SOL    HW264024   7.572   7.465   6.028  1.5612 -0.7232 -0.1154
52902SOL     OW64025   4.444   7.191   9.516  0.4446 -0.2119  0.0832
52902SOL    HW164026   4.446   7.202   9.611  0.6373 -0.2245  0.0817
52902SOL    HW264027   4.534   7.166   9.493  0.3575 -0.3757 -0.0821
52903SOL     OW64028  11.061   0.984   6.361  0.0875 -0.1609  0.0946
52903SOL    HW164029  10.997   0.924   6.399 -0.8335  0.0994 -0.9647
52903SOL    HW264030  11.035   1.070   6.393  1.8887 -0.3504  2.2601
52904SOL     OW64031   6.727   6.775  11.045 -0.2447 -0.0403 -0.1043
52904SOL    HW164032   6.802   6.790  10.987  0.0774 -1.9152 -0.2290
52904SOL    HW264033   6.759   6.797  11.132  0.1959 -0.0242 -0.2691
52905SOL     OW64034   6.932  10.286   4.802  0.0588 -0.3467  0.3449
52905SOL    HW164035   6.957  10.327   4.885  2.0091 -1.5249  0.4147
52905SOL    HW264036   6.847  10.246   4.820  0.6672 -1.0225  1.9765
52906SOL     OW64037   3.232   6.219   9.865 -0.4555 -0.0128  0.1726
52906SOL    HW164038   3.265   6.137   9.827 -0.5933  0.1453 -0.2981
52906SOL    HW264039   3.138   6.217   9.848 -0.6875 -0.4025  1.3996
52907SOL     OW64040   2.287   7.473   4.188 -0.3046  0.3755 -0.8852
52907SOL    HW164041   2.218   7.416   4.153 -0.3616 -2.4167  3.0944
52907SOL    HW264042   2.239   7.544   4.230 -0.8537 -1.0438  1.0351
52908SOL     OW64043  10.689   5.162   6.992  0.1697  0.4602  0.4122
52908SOL    HW164044  10.686   5.255   6.967 -2.0645  0.6282  1.0713
52908SOL    HW264045  10.713   5.117   6.911  1.8863  1.6247  0.2156
52909SOL     OW64046   9.270   2.645   2.137 -0.4974 -0.5168  0.2937
52909SOL    HW164047   9.200   2.672   2.079  0.8343 -0.7490 -1.5198
52909SOL    HW264048   9.334   2.602   2.080  2.6158  2.3670  1.2341
52910SOL     OW64049  10.383   3.369   3.509 -0.2270 -0.1567  1.0275
52910SOL    HW164050  10.304   3.321   3.535  0.3545 -1.1024  1.1152
52910SOL    HW264051  10.358   3.461   3.512 -1.3514 -0.4482  0.9566
52911SOL     OW64052  11.632   6.266   8.333 -0.6152  0.3854 -0.2197
52911SOL    HW164053  11.573   6.330   8.293 -0.7086  1.0030  0.8648
52911SOL    HW264054  11.698   6.319   8.377 -1.3099 -0.2099  1.6325
52912SOL     OW64055   7.432   3.060   6.865  0.8270 -0.0050  0.3429
52912SOL    HW164056   7.470   2.972   6.874 -0.8563 -0.9597 -1.1257
52912SOL    HW264057   7.482   3.100   6.794 -0.2192 -0.9164 -0.9652
52913SOL     OW64058  10.779   5.359   5.464 -0.1883 -0.2709 -0.6801
52913SOL    HW164059  10.728   5.432   5.499  1.4368  0.5002  0.1801
52913SOL    HW264060  10.727   5.327   5.391 -0.5156  2.3602 -1.7008
52914SOL     OW64061   4.538   1.690   5.341 -0.1671  0.1480 -0.4293
52914SOL    HW164062   4.603   1.730   5.283  1.5105  0.3583  1.4929
52914SOL    HW264063   4.584   1.619   5.384 -0.8090  1.0515  1.8984
52915SOL     OW64064   1.368   8.533   2.799  0.0171 -0.0490  0.3039
52915SOL    HW164065   1.446   8.561   2.751  0.3093 -0.2439  0.6480
52915SOL    HW264066   1.352   8.443   2.769 -0.8438  0.4297 -0.7071
52916SOL     OW64067  10.826   3.573  11.096  0.2347 -0.1809 -0.0640
52916SOL    HW164068  10.904   3.603  11.143  0.6938 -0.9898 -0.2965
52916SOL    HW264069  10.768   3.649  11.096  1.7323  1.0323 -1.4119
52917SOL     OW64070   6.183   3.154   7.234  0.1346  0.4201  0.5774
52917SOL    HW164071   6.127   3.077   7.220  1.1270 -0.0190 -1.4004
52917SOL    HW264072   6.123   3.228   7.227 -0.6342 -0.1244  1.2291
52918SOL     OW64073   2.157   8.630   0.914 -0.2123  0.2192 -0.4155
52918SOL    HW164074   2.125   8.626   1.004 -1.1580 -3.0273 -0.7757
52918SOL    HW264075   2.252   8.638   0.923 -0.1846 -1.0821  0.9380
52919SOL     OW64076   5.386   5.271   3.352  0.3074 -0.0021  0.1831
52919SOL    HW164077   5.419   5.212   3.420 -1.6479 -0.7106  0.6018
52919SOL    HW264078   5.387   5.219   3.272 -2.2552 -1.0375  0.7163
52920SOL     OW64079   9.352   0.868   7.832 -0.1430 -0.0815  0.3948
52920SOL    HW164080   9.300   0.852   7.753 -0.4330  0.5896  0.4417
52920SOL    HW264081   9.442   0.871   7.802 -0.0634 -1.7707  0.3878
52921SOL     OW64082   4.545   0.929   1.194 -0.1370 -0.0614  0.2929
52921SOL    HW164083   4.463   0.884   1.215  0.5919 -1.7376 -0.3269
52921SOL    HW264084   4.610   0.859   1.186  0.8847  1.0241 -1.4827
52922SOL     OW64085   7.588   1.560   4.595  0.2375 -0.2914 -0.7330
52922SOL    HW164086   7.571   1.500   4.667  1.4013  0.6132  0.3440
52922SOL    HW264087   7.510   1.554   4.540 -0.8690 -0.7369  0.8028
52923SOL     OW64088  10.218   9.283   6.683 -0.1237  0.3719 -0.6215
52923SOL    HW164089  10.202   9.376   6.700  0.0144  0.7377 -2.2785
52923SOL    HW264090  10.312   9.277   6.668  0.2910 -0.5104  1.9223
52924SOL     OW64091   6.141   8.233   3.156  0.4219 -0.1241 -0.4005
52924SOL    HW164092   6.182   8.231   3.242 -1.1500  0.0195  0.3758
52924SOL    HW264093   6.125   8.141   3.135 -1.3028 -0.0777  0.5366
52925SOL     OW64094  11.496   1.815   9.761 -0.5396  0.2120  0.3824
52925SOL    HW164095  11.544   1.888   9.722 -2.2427  1.1600 -0.0296
52925SOL    HW264096  11.547   1.792   9.839  1.3097  0.2392 -0.7584
52926SOL     OW64097   8.381  10.910   1.850 -0.4421 -0.2418  0.1447
52926SOL    HW164098   8.457  10.853   1.861 -0.3737  0.0258  1.1441
52926SOL    HW264099   8.413  10.983   1.796  0.2376  0.2599  1.1956
52927SOL     OW64100   0.112   8.247   1.688  0.2116  0.0023  0.3244
52927SOL    HW164101   0.140   8.339   1.686 -0.3866  0.1959  0.3286
52927SOL    HW264102   0.030   8.249   1.737  1.8827 -1.0485  3.4032
52928SOL     OW64103   8.550   7.711   5.671  0.2142  0.1728  0.1435
52928SOL    HW164104   8.545   7.656   5.749  1.4691  0.2513  0.3078
52928SOL    HW264105   8.459   7.730   5.648 -0.1815 -0.3676  1.2194
52929SOL     OW64106   4.925  10.407   9.537 -0.7007 -0.4470  0.7161
52929SOL    HW164107   4.921  10.330   9.480 -1.5988  0.3808 -0.3949
52929SOL    HW264108   5.010  10.446   9.518 -0.4334 -0.9129  0.9459
52930SOL     OW64109  11.403   4.593   1.131 -0.5131  0.1226 -0.0229
52930SOL    HW164110  11.433   4.570   1.043 -0.3305 -1.5202  0.4379
52930SOL    HW264111  11.389   4.509   1.174  2.7060  0.7558  2.6798
52931SOL     OW64112   5.457   1.225   8.942 -0.0485 -0.3719  0.1441
52931SOL    HW164113   5.503   1.264   8.867  0.0977 -0.2154  0.3128
52931SOL    HW264114   5.474   1.286   9.014  1.4030 -1.4670  0.7698
52932SOL     OW64115  11.070   8.459   3.657  0.0930 -0.1792  0.0855
52932SOL    HW164116  11.147   8.483   3.606 -0.1942  1.5771  0.4043
52932SOL    HW264117  11.105   8.430   3.741  0.4264  1.2894  0.4850
52933SOL     OW64118   7.124  11.143   9.299  0.3706  0.2380  0.5608
52933SOL    HW164119   7.165  11.143   9.213 -0.5739  0.6541  0.0896
52933SOL    HW264120   7.197  11.147   9.361  1.1770 -2.2429 -0.1324
52934SOL     OW64121   7.985   4.627   7.946  0.6808 -0.0593 -0.3271
52934SOL    HW164122   8.003   4.546   7.898  1.4009  0.0096 -0.1856
52934SOL    HW264123   7.913   4.605   8.005  1.3326 -0.7974  0.2047
52935SOL     OW64124   0.317   8.553   6.832  0.4515 -0.1050 -0.3004
52935SOL    HW164125   0.324   8.599   6.748 -0.3552  0.1050 -0.2572
52935SOL    HW264126   0.392   8.585   6.883  0.3491  0.5688 -0.5621
52936NA      NA64127  11.263   6.843   3.887  0.1041 -0.2585 -0.2696
52937NA      NA64128   9.656   1.249   8.420 -0.4018  0.0031 -0.2160
52938NA      NA64129  11.135   8.936   7.035 -0.2424  0.0923 -0.0181
52939NA      NA64130   1.106   8.581  11.320  0.0652  0.6307  0.2378
52940NA      NA64131   7.988   8.843   2.828  0.1108  0.0083  0.2533
52941NA      NA64132   7.640   2.457   8.188 -0.2789  0.5089  0.1339
52942NA      NA64133   5.532  10.364   8.427 -0.1353 -0.2867 -0.1326
52943NA      NA64134   6.697  11.432   5.248  0.6101  0.0174  0.7264
52944NA      NA64135   9.137   1.086   5.854  0.1172  0.6562 -0.0234
52945NA      NA64136   8.324   7.431   6.270 -0.1747  0.3057  0.4605
52946NA      NA64137   7.369   3.112   8.602 -0.0961 -0.3900 -0.2129
52947NA      NA64138   6.850   1.890   1.867  0.0062 -0.4408 -0.3590
52948NA      NA64139   9.638   1.867   1.977 -0.0460 -0.1657 -0.4025
52949NA      NA64140   2.626   0.196   9.676 -0.6266 -0.3406  0.4260
52950NA      NA64141  10.448  11.116   6.096 -0.1961  0.1039 -0.6355
52951NA      NA64142   6.917  11.511  11.396 -0.2626 -0.1349  0.2536
52952NA      NA64143   7.394   0.737   9.685  0.0567 -0.4240  0.7334
52953NA      NA64144   7.909   6.506   9.054 -0.2339 -0.1365 -0.4871
52954NA      NA64145   2.220   9.268   4.008 -0.5879 -0.0135  0.0375
52955NA      NA64146   4.390  11.044   5.822 -0.4764  0.4510 -0.4063
52956NA      NA64147   6.229   2.528   8.798 -0.5870 -0.2488 -0.4169
52957NA      NA64148   6.909   4.912   9.468  0.1124 -0.0323  0.2925
52958NA      NA64149   0.234   9.370   7.840 -0.1503  0.0932  0.3835
52959NA      NA64150  10.436   5.381   1.441  0.1377 -0.0020 -0.1970
52960NA      NA64151   7.231   1.021   3.938  0.8528 -0.1409  0.4795
52961NA      NA64152  10.707   1.440   7.356  0.4445  0.7292  0.4509
52962NA      NA64153   4.236   4.727   9.238 -0.2994 -0.4021  0.0225
52963NA      NA64154   4.974   1.959   6.241 -0.3052 -0.0362 -0.3852
52964NA      NA64155   1.764   5.941  10.936  0.0905  0.4987 -0.2434
52965NA      NA64156   9.882   8.363   8.321 -0.4683 -0.2704  0.6322
52966NA      NA64157   6.673   8.923   7.538  0.3433 -0.1718  0.6681
52967NA      NA64158   3.835  10.310   4.059  0.0379  0.3476  0.3600
52968NA      NA64159   9.787   6.500   7.831  0.2181  0.1252  0.0802
52969NA      NA64160   9.218   7.601   1.112  0.0325 -0.6356  0.3611
52970NA      NA64161   8.426   7.083   2.220  0.0468 -0.0217 -0.6507
52971NA      NA64162   6.620   6.208   6.752 -0.0495 -0.1650  0.0813
52972NA      NA64163   4.320   9.577   3.183  0.1934  0.7152  0.3494
52973NA      NA64164   1.927   7.214   5.156 -0.6752 -0.0884  0.1722
52974NA      NA64165  10.988   2.010   1.183  0.4303 -0.4005  0.3326
52975NA      NA64166  10.638   5.279   4.229 -0.0626 -0.3275 -0.0830
52976NA      NA64167   8.819   9.650  11.612  0.5539  0.1215 -0.3836
52977NA      NA64168   2.289   1.051   7.024  0.5363 -0.2630  0.1198
52978NA      NA64169   0.443   4.306   8.237  0.0245 -0.0352  0.2204
52979NA      NA64170   4.112   6.035   5.858 -0.6710 -0.0048  0.1020
52980NA      NA64171  10.650  10.404   8.644  0.4306  0.7622 -0.1066
52981NA      NA64172  10.324  10.375   7.077  0.2633 -0.2774  0.0047
52982NA      NA64173   1.155   5.598   6.373  0.6429 -0.4839 -0.0831
52983NA      NA64174   9.341   3.922   8.167 -0.7947  0.5393 -0.7511
52984NA      NA64175   6.534   4.881   2.210  0.0993  0.0064  0.6318
52985NA      NA64176   7.279   9.846   2.608 -0.0475  0.0753  0.3178
52986NA      NA64177   2.416   4.607   4.931  0.2401  0.3547  0.2099
52987NA      NA64178   5.883   0.505  10.452  0.5120  0.0995 -0.2787
52988NA      NA64179   7.023   6.867   2.679  0.2213  0.2537 -0.3767
52989NA      NA64180   9.973   7.568   8.801 -0.3001  0.0086  0.1568
52990NA      NA64181   6.977   9.764   1.912 -0.1947 -0.4482  0.6140
52991NA      NA64182   0.503   6.632  10.472 -0.4771  0.0330 -0.1486
52992NA      NA64183  10.661   7.951   7.036 -0.0784 -0.2691  0.1504
52993NA      NA64184   6.193   0.421   1.182 -0.3719  0.2297 -0.1325
52994NA      NA64185   4.247   6.889   2.497  0.3152 -0.2970  0.4281
52995NA      NA64186   4.664   5.232   9.842 -0.0146 -0.2823 -0.4978
52996NA      NA64187   2.773   7.309  10.536 -0.4959  0.3699  0.0743
52997NA      NA64188   9.827   5.193   9.570  0.2611  0.5435 -0.0084
52998NA      NA64189  11.780   3.182   7.277 -0.4157  0.1423  0.1542
52999NA      NA64190   0.103   6.696   9.670  0.0811  0.3469  0.2212
53000NA      NA64191   1.233  11.699   9.515 -0.5421  0.1022  0.1750
53001NA      NA64192   7.461   9.963   0.975 -0.2268 -0.1075 -0.0211
53002NA      NA64193   7.965   0.886   9.756  0.4911 -0.1564  0.0062
53003NA      NA64194   8.556   7.518   7.465 -0.5741  0.1173 -0.0160
53004NA      NA64195   9.461   0.520   7.074  0.1455 -0.3814  0.2778
53005NA      NA64196   8.140   8.040   1.451 -0.2931 -0.2945 -0.4479
53006NA      NA64197   1.449   3.991   9.381 -0.1218  0.2437 -0.4135
53007NA      NA64198   2.556   5.881   5.288 -0.2188 -0.0568  0.4212
53008NA      NA64199   1.734   1.472   8.196 -0.0323  0.2569  0.7721
53009NA      NA64200   3.879   7.474   7.890  0.3702  0.2825 -0.0413
53010NA      NA64201   8.635   1.103   2.548  0.0519 -0.4769  0.0068
53011NA      NA64202   7.312   6.396   1.488 -0.6394 -0.4521  0.0499
53012NA      NA64203  11.387   5.277   8.574 -0.3612 -0.0746  0.3322
53013NA      NA64204   2.980  10.699   5.720  0.2718 -0.3888 -0.3960
53014NA      NA64205  10.661   3.916   8.170 -0.3047 -0.1184  0.1181
53015NA      NA64206   5.915   8.311   4.785 -0.1036 -0.2159  0.0009
53016NA      NA64207   5.877   8.048   2.581  0.4665  0.6339 -0.1864
53017NA      NA64208   4.854   0.219   7.073 -0.7265 -0.2033 -0.4642
53018NA      NA64209   8.691  11.740   3.909 -0.1086 -0.3748  0.1121
53019NA      NA64210   0.127  10.125  11.298 -0.2014 -0.2311 -0.2913
53020NA      NA64211  10.727   7.400   1.797 -0.0132 -0.0260 -0.2838
53021NA      NA64212   3.132   6.619   3.433  0.3539 -0.3724  0.4917
53022NA      NA64213   0.594  10.818   4.982 -0.2790 -0.3168 -0.3018
53023NA      NA64214   8.341   4.416   6.326  0.2689  0.4176  0.4857
53024NA      NA64215   7.886   1.755   4.384 -0.4580 -0.0891 -0.3653
53025NA      NA64216   3.667  11.635   5.627 -0.1142 -0.2490 -0.1655
53026NA      NA64217   2.274   8.760   9.175 -0.4503 -0.2308  0.1526
53027NA      NA64218   7.880   9.926   5.263  0.2279 -0.1631  0.7379
53028NA      NA64219   9.272   8.340   6.148 -0.1826 -0.6754  0.5791
53029NA      NA64220   3.165  10.153  10.102  0.0509 -0.1503 -0.6435
53030NA      NA64221   5.311   3.276   4.773 -0.3055 -0.1090 -0.0406
53031NA      NA64222   0.666  11.213   6.170  0.6715 -0.0325  0.0418
53032NA      NA64223   7.527  11.574   7.034 -0.0901  0.5212  0.0227
53033NA      NA64224   3.508   8.038   6.141  0.3516 -0.0159 -0.1300
53034NA      NA64225   0.193   4.611   6.529 -0.6040  0.3169  0.5059
53035NA      NA64226   9.436   2.460   5.669  0.0456  0.3379  0.1653
53036NA      NA64227   9.834   8.448   5.358  0.0251 -0.3841  0.1184
53037NA      NA64228   9.221   8.679   3.060 -0.5725  0.0396 -0.4072
53038NA      NA64229   7.222   2.575   3.835 -0.1812 -0.1955 -0.1544
53039NA      NA64230   4.527   9.979  10.188  0.2063  0.2707  0.4153
53040NA      NA64231  11.294   6.153   1.195  0.1985 -0.1732  0.2995
53041NA      NA64232   4.079   4.415   7.150  0.2452  0.0663 -0.7722
53042NA      NA64233   9.516   0.014   0.258  0.7523  0.0950 -0.0602
53043NA      NA64234   3.766  11.176   9.530  0.4369 -0.5269  0.0245
53044NA      NA64235   0.452   9.640  10.636  0.0790  0.4107 -0.0954
53045NA      NA64236   1.410  11.141   7.054 -0.3216  0.0190 -0.0426
53046NA      NA64237   7.316   4.028   6.781 -0.2829  0.3706 -0.0643
53047NA      NA64238   6.103   1.635  10.103 -0.1980 -0.0531  0.0044
53048NA      NA64239   4.496  11.439  11.349  0.2333  0.2334  0.0057
53049NA      NA64240  10.553   7.900  11.499  0.3764  0.1120 -0.4798
53050NA      NA64241   2.253  11.775   5.565 -0.2563  0.6231 -0.0744
53051NA      NA64242   4.007   9.017   4.992 -0.3083 -0.2179  0.2674
53052NA      NA64243   1.959   5.271   7.575 -0.2266 -0.2703  0.2831
53053NA      NA64244   4.325   8.352  10.105 -0.3997 -0.2206 -0.5227
53054NA      NA64245   6.212  10.540   2.128  0.0356 -0.2208 -0.3973
53055NA      NA64246   4.342   6.048   1.974  0.1227 -0.5765 -0.3289
53056NA      NA64247   6.296  11.526   4.237  0.0781  0.0374  0.0929
53057NA      NA64248   8.768   0.039   8.934  0.1364  0.2517  0.1574
53058NA      NA64249   5.829  10.387   8.932  0.1164  0.6946  0.5774
53059NA      NA64250   6.665   1.562   8.560  0.3519  0.5336 -0.3336
53060NA      NA64251   5.608   9.476   0.298 -0.1899  0.3329 -0.3935
53061NA      NA64252   6.452   7.464   4.519 -0.1103  0.3463 -0.3808
53062NA      NA64253   7.949   1.571   1.690 -0.0742 -0.2518 -0.2292
53063NA      NA64254   3.223   5.826   4.014  0.5804 -0.2586  0.3937
53064NA      NA64255   6.044   3.667   2.536  0.2035 -0.2311 -0.1569
53065NA      NA64256   0.136  10.034   8.528 -0.1716  0.1053 -0.3606
53066NA      NA64257  10.058   2.381  10.361 -0.4346  0.1428 -0.1158
53067NA      NA64258   0.291   6.171   5.577  0.0815 -0.1914 -0.1561
53068NA      NA64259   1.394   8.528   1.126 -0.1253 -0.0527 -0.4643
53069NA      NA64260   8.896   9.742   6.721  0.0549  0.4957  0.7151
53070NA      NA64261   4.008   9.863   9.339 -0.0104 -0.1896 -0.9902
53071NA      NA64262   5.155   3.070  11.272  0.3995 -0.3308  0.1974
53072NA      NA64263   5.755   8.357   0.335 -0.2694  0.0284  0.0192
53073NA      NA64264   6.260   8.708  10.892  0.0545  0.3128 -0.1461
53074NA      NA64265   5.276   4.532   2.462  0.5995  0.4606 -0.3124
53075NA      NA64266   5.732   1.713   7.467  0.5131 -0.1331 -0.0273
53076NA      NA64267   4.491   8.125   4.556 -0.0509 -0.5362 -0.1429
53077NA      NA64268  11.117   7.213   6.019 -0.2975 -0.2978 -0.1429
53078NA      NA64269   6.334   8.870   3.458 -0.5580 -0.6499 -0.2438
53079NA      NA64270  11.048   5.339   7.823  0.0942 -0.0809  0.1895
53080NA      NA64271   5.572   9.367   2.702  0.0817 -0.2024 -0.2629
53081NA      NA64272   6.894   1.992   6.634  0.3452 -0.1573 -0.2719
53082NA      NA64273   8.553  10.318   4.774 -0.4430 -0.0072 -0.1195
53083NA      NA64274   4.287   4.668   4.293 -0.1182 -0.0697  0.3396
53084NA      NA64275   7.545   2.391   0.355 -0.2688 -0.0326  0.1418
53085NA      NA64276   0.529   8.142   9.760  0.4942  0.1806  0.2060
53086NA      NA64277   4.392   4.512   5.599  0.1919 -0.2922  0.1331
53087NA      NA64278   8.961   0.831   4.056  0.2009  0.2890  0.2007
53088CL      CL64279   2.034   6.006   2.493 -0.4416 -0.0393 -0.0648
53089CL      CL64280  11.347  11.364   1.636 -0.3988 -0.0856  0.2070
53090CL      CL64281  11.110   3.721   0.778 -0.0020 -0.0679 -0.0266
53091CL      CL64282   1.062  10.609   0.388 -0.1529  0.3406  0.3800
53092CL      CL64283   1.588   1.557  10.519 -0.4002  0.0191 -0.0383
53093CL      CL64284   4.396   2.609  11.742 -0.2440  0.0595 -0.1070
53094CL      CL64285   0.404   1.406   3.485 -0.1231 -0.1189  0.6584
53095CL      CL64286   7.282  10.565   1.273 -0.0637  0.1003  0.0033
53096CL      CL64287  11.285  11.565   3.999 -0.2385 -0.1526 -0.3077
53097CL      CL64288   8.755   7.426   7.377 -0.5647 -0.1020  0.1078
53098CL      CL64289   3.888   4.829   5.998 -0.2941  0.2792  0.4604
53099CL      CL64290  10.122   1.912   1.954 -0.0467  0.0176  0.2277
53100CL      CL64291   1.433   3.318   1.957  0.0356 -0.3037  0.4660
53101CL      CL64292   2.118   9.815   0.164  0.1897  0.0738  0.2451
53102CL      CL64293   5.029   3.205   0.370 -0.1623  0.6206  0.0111
53103CL      CL64294   2.478   2.363   1.695 -0.1160  0.2747 -0.5462
53104CL      CL64295   1.409   0.462   0.228  0.1062  0.0135  0.4286
53105CL      CL64296   5.206  10.289  11.634  0.1430 -0.1724  0.2151
53106CL      CL64297   1.544  10.749   0.996 -0.1366 -0.9604  0.1500
53107CL      CL64298   6.832   7.041   2.267 -0.1065 -0.4053  0.6049
53108CL      CL64299   2.205   0.291   2.297  0.2272 -0.3348 -0.0862
53109CL      CL64300   1.284   8.601  10.289 -0.1968 -0.0900 -0.2891
53110CL      CL64301   1.270   2.422   5.722  0.1599 -0.1201  0.1743
53111CL      CL64302   5.238   4.777   0.850  0.0740 -0.1752  0.1508
53112CL      CL64303   1.905  10.599   5.524 -0.5066  0.1853 -0.0252
53113CL      CL64304  11.502   3.641   3.325 -0.0547 -0.1648  0.5740
53114CL      CL64305  11.765   3.253   0.153  0.1171 -0.2778  0.7570
53115CL      CL64306   5.147   5.190  11.608  0.1676  0.1590  0.3765
53116CL      CL64307  10.343   3.170   8.053 -0.4096  0.2785  0.2111
53117CL      CL64308  11.748  11.190   3.904 -0.2709 -0.0382  0.2136
53118CL      CL64309   6.312   5.946   9.801 -0.3181  0.0575 -0.3498
53119CL      CL64310   9.950   2.690   4.689  0.1523  0.0923  0.1892
53120CL      CL64311   0.035  11.698   2.405  0.5156  0.3160  0.0185
53121CL      CL64312  10.415   0.860   2.888  0.5289 -0.2462 -0.3065
53122CL      CL64313   2.490   0.104   0.382 -0.2860 -0.1903 -0.5690
53123CL      CL64314   2.681   1.210   2.265  0.2056  0.1924  0.0620
53124CL      CL64315   8.510   8.430   7.506 -0.1449 -0.1187 -0.0599
53125CL      CL64316   8.644   3.663   9.862 -0.1098 -0.2026 -0.2271
53126CL      CL64317  11.568   3.620   4.149  0.2262 -0.1354 -0.2519
53127CL      CL64318  11.573  10.691   9.640  0.5478 -0.3789 -0.2098
53128CL      CL64319   3.539   6.081   1.022 -0.1059  0.1192 -0.1123
53129CL      CL64320   2.290   0.025   3.095  0.5267  0.1395  0.2345
53130CL      CL64321  11.746   7.006   4.307 -0.1156 -0.0739  0.1408
53131CL      CL64322   5.935   1.572   2.525  0.0719  0.1697  0.3267
53132CL      CL64323   2.581   3.023  11.176 -0.0550  0.1939  0.4448
53133CL      CL64324   3.397   7.922   5.356  0.0096 -0.3149  0.3341
53134CL      CL64325   2.540   9.087   3.269 -0.3842  0.0747  0.0824
53135CL      CL64326   9.981   4.651   1.808  0.0229 -0.1551  0.2356
53136CL      CL64327   4.855   3.166  10.598  0.3052 -0.1208  0.0995
53137CL      CL64328   6.409   6.916   8.394 -0.0212 -0.2754 -0.6325
53138CL      CL64329   3.020   1.409  11.481  0.3125  0.2303 -0.3935
53139CL      CL64330   1.772   3.422   2.580  0.1042  0.0605  0.7097
53140CL      CL64331   8.426   0.567   3.921 -0.2040  0.2467  0.5264
53141CL      CL64332   3.330   5.903   3.177 -0.1658  0.1259 -0.0430
53142CL      CL64333   2.794   9.649   1.275 -0.1197 -0.3458  0.3315
53143CL      CL64334   1.151   3.524   5.550 -0.3565 -0.1913 -0.1282
53144CL      CL64335   0.793   5.955   9.433 -0.4692 -0.3381  0.4379
53145CL      CL64336  10.645  11.253  11.370  0.5319  0.1062 -0.1664
53146CL      CL64337   9.976   0.377   8.660 -0.2818 -0.1046 -0.1032
53147CL      CL64338   4.191   4.000   0.767  0.1014  0.3415 -0.2318
53148CL      CL64339  10.536   5.383   7.635  0.2027 -0.1701 -0.1638
53149CL      CL64340   9.042   9.254   0.325  0.2865 -0.1957 -0.3924
53150CL      CL64341   3.498   6.461  11.461  0.2199 -0.1478  0.0641
53151CL      CL64342   3.986   4.571   3.939 -0.0457 -0.1228 -0.4851
53152CL      CL64343   6.272   2.721  10.689 -0.2788 -0.2129 -0.3544
53153CL      CL64344  11.416   2.274   1.777 -0.3833 -0.0885  0.0867
53154CL      CL64345   1.243  11.449   1.973  0.1690  0.0748 -0.2694
53155CL      CL64346   5.336   1.967   4.138 -0.3902  0.3465 -0.3629
53156CL      CL64347   9.753   1.518   3.581 -0.1396  0.1305 -0.1273
53157CL      CL64348   3.148  11.197   9.645 -0.0864  0.1119 -0.0038
53158CL      CL64349   6.753   7.910   9.242  0.1650  0.2859 -0.5529
53159CL      CL64350   1.648   3.743  11.549  0.3260  0.5298 -0.1984
53160CL      CL64351   1.323   3.985   0.844 -0.4526  0.3961 -0.3304
53161CL      CL64352   2.467   1.143   2.749 -0.1890 -0.0679  0.0585
53162CL      CL64353   5.821   0.357   0.894 -0.2192  0.2306  0.2006
53163CL      CL64354  10.736   5.160   1.207 -0.5279 -0.1030 -0.2267
53164CL      CL64355   8.698   0.463   8.854  0.1268 -0.1225  0.3193
53165CL      CL64356   2.979   5.471   7.950  0.7759 -0.2322  0.3045
53166CL      CL64357   1.574   3.340   9.538  0.2661 -0.4337  0.0230
53167CL      CL64358  10.881   2.130   1.011 -0.2240  0.4986  0.0336
53168CL      CL64359   8.544   3.233   6.639 -0.6403  0.4866  0.2600
53169CL      CL64360  10.829   0.529   3.641 -0.2014 -0.2515 -0.1309
53170CL      CL64361   2.285   3.142   3.435  0.4825 -0.4542  0.0145
53171CL      CL64362   2.398   0.389   6.162 -0.1733  0.3419 -0.2345
53172CL      CL64363  11.794   2.503   1.582  0.3723 -0.0861 -0.4448
53173CL      CL64364   1.095   1.001  11.502  0.3454  0.2397  0.5040
53174CL      CL64365   1.914   2.198  11.306  0.2715 -0.1182 -0.1334
53175CL      CL64366   8.970   6.997  10.189 -0.2179 -0.0292 -0.0797
53176CL      CL64367   9.402   0.885   0.711  0.5641  0.0144  0.3246
53177CL      CL64368   1.585  10.159   3.714 -0.1059  0.0475  0.3211
53178CL      CL64369   3.809   0.411   7.335 -0.1133 -0.2057  0.5277
53179CL      CL64370   2.377  11.125   1.829 -0.5450  0.4885 -0.3575
53180CL      CL64371   9.236   1.586   7.594  0.4302  0.0534 -0.2079
53181CL      CL64372   2.502   3.422   3.137 -0.2680 -0.3319  0.0540
53182CL      CL64373   4.359   4.094   3.410 -0.5501 -0.1060 -0.1860
53183CL      CL64374   6.939   2.235   6.657  0.1422  0.2116  0.0105
53184CL      CL64375   3.898   0.544   1.786 -0.5690 -0.2273 -0.0218
53185CL      CL64376   0.616   3.593   6.718 -0.2538 -0.3057  0.2422
53186CL      CL64377   4.278   2.178   1.077  0.3483 -0.4012  0.0717
53187CL      CL64378   1.984   8.283  11.265 -0.1469 -0.2973  0.1102
53188CL      CL64379   2.283   0.501   0.858 -0.4112  0.1371  0.3410
53189CL      CL64380   4.491   8.033  11.468  0.2872 -0.4852  0.0014
53190CL      CL64381   3.698   3.052   2.037  0.1126  0.0472 -0.7799
53191CL      CL64382   8.807   1.109   2.697 -0.4538 -0.6164 -0.2607
53192CL      CL64383   6.252  11.279   5.982 -0.1269  0.3298 -0.0999
53193CL      CL64384   1.274   6.001   6.905 -0.0681 -0.4476 -0.5930
53194CL      CL64385   9.869   6.710   7.751 -0.3414 -0.3283 -0.3934
53195CL      CL64386   2.328   4.300   1.452  0.0144  0.0039  0.6916
53196CL      CL64387   3.729   0.159   0.760  0.0853 -0.4984  0.3132
53197CL      CL64388   8.842  10.578   4.412 -0.2524  0.3842 -0.2619
53198CL      CL64389  11.694   2.826   5.005 -0.1860  0.2864  0.7428
53199CL      CL64390   4.529   7.730  10.880 -0.0738 -0.3743  0.1867
53200CL      CL64391  11.210   7.788  11.767 -0.0664  0.2081  0.2408
53201CL      CL64392   9.076   3.566   3.459  0.1303 -0.4338 -0.0066
53202CL      CL64393   1.985   1.106   0.822 -0.2011  0.1444  0.2992
53203CL      CL64394   9.686   0.014   0.429 -0.1179  0.1773 -0.2308
53204CL      CL64395   4.218   8.686   9.380  0.0248  0.0192  0.2699
53205CL      CL64396   3.859  11.011   5.664  0.2880  0.3074  0.0646
53206CL      CL64397   1.031   0.138   4.638  0.1503  0.5019  0.1667
53207CL      CL64398  10.661  10.859   1.254 -0.2840  0.0029  0.6526
53208CL      CL64399  10.126   0.054  11.682 -0.0312  0.1314 -0.2156
53209CL      CL64400   0.556  10.893   0.962 -0.1385 -0.1600 -0.2356
53210CL      CL64401   0.749   6.639   0.348  0.1247  0.0681  0.1067
53211CL      CL64402   4.230   0.561   4.796 -0.4718  0.5791  0.1084
53212CL      CL64403   2.404   0.452  10.968 -0.2255  0.1344  0.4682
53213CL      CL64404   0.575   3.640  10.890  0.1059  0.0323  0.1737
53214CL      CL64405   0.674   0.113  11.793 -0.3289 -0.0107  0.2295
53215CL      CL64406  10.785   9.217   1.501 -0.2769 -0.2786  0.4917
53216CL      CL64407   5.066   0.769   7.718 -0.1794 -0.4199 -0.0221
53217CL      CL64408   0.248   3.252   0.585 -0.4827 -0.1187 -0.0286
53218CL      CL64409   6.225   6.607   2.196  0.7195 -0.3475 -0.0446
53219CL      CL64410   5.802   1.000  10.210 -0.0676  0.0876  0.0271
53220CL      CL64411   9.343   8.862   2.012 -0.0653  0.0229  0.0212
53221CL      CL64412   0.318   6.332   8.522  0.2056 -0.1024 -0.2253
53222CL      CL64413   0.478   1.734   8.167  0.0591 -0.0424 -0.0118
53223CL      CL64414   3.251   3.050   7.232 -0.1770 -0.5799  0.4544
53224CL      CL64415   5.550   1.250   4.117 -0.5275 -0.3803 -0.3167
53225CL      CL64416   0.812   4.488   2.026 -0.0822  0.2755  0.2064
53226CL      CL64417   1.032  10.462   1.963  0.0061  0.1525  0.2979
53227CL      CL64418   2.475   0.030   5.505  0.1092 -0.0154 -0.1324
53228CL      CL64419   3.697   2.542   2.691  0.1279 -0.0929  0.4217
53229CL      CL64420   7.624   3.211   6.652 -0.1844 -0.0990  0.2511
53230CL      CL64421   1.709   1.184  10.219 -0.1778 -0.0048 -0.3441
53231CL      CL64422   3.459   5.827   2.042  0.2047  0.1933  0.0980
53232CL      CL64423  11.568   7.173   0.658  0.1150  0.0507 -0.4513
53233CL      CL64424   8.450  11.478   6.272 -0.0522  0.2068  0.1953
53234CL      CL64425   1.666   7.742   2.040 -0.4786 -0.0514  0.0823
53235CL      CL64426   7.103   1.544   1.928 -0.5623  0.1507  0.2058
53236CL      CL64427  10.565   4.596   0.495  0.0161  0.1584  0.0998
53237CL      CL64428  10.095   4.363   8.644  0.0167  0.3314 -0.1442
53238CL      CL64429  11.739   0.723  10.138  0.1954  0.1731  0.0241
53239CL      CL64430   3.770   7.897   3.497 -0.4534  0.1350  0.0738
53240CL      CL64431   0.670   6.459  10.533 -0.6285 -0.4465 -0.1053
53241CL      CL64432   4.187   5.759  10.556 -0.6400 -0.2161 -0.0467
53242CL      CL64433   0.956   4.037  11.625 -0.0431  0.2306  0.1642
53243CL      CL64434   4.554   2.798   1.788  0.2479 -0.0637  0.2082
53244CL      CL64435   7.659   7.166   2.092 -0.3307 -0.4345 -0.1886
53245CL      CL64436   2.107  11.506   3.503 -0.0148  0.0240 -0.3436
53246CL      CL64437   4.356   5.619   9.731 -0.0008 -0.1368 -0.1601
53247CL      CL64438   4.310   0.071   8.992  0.2875  0.0796 -0.0648
53248CL      CL64439   3.751   1.747   4.378  0.0309  0.1620  0.3343
53249CL      CL64440   2.617   3.306   1.614  0.1801  0.4857 -0.1790
53250CL      CL64441   8.158   1.618   4.842 -0.4838 -0.1460  0.0011
53251CL      CL64442   9.091   5.493   2.894  0.1308 -0.0250  0.7375
53252CL      CL64443   7.795   1.551   2.081  0.1963 -0.2620 -0.0213
53253CL      CL64444   3.618   2.423   0.536 -0.1348  0.2429  0.1392
53254CL      CL64445   0.697  11.248   4.126  0.1883 -0.1465  0.3276
53255CL      CL64446  10.237   5.521   4.058 -0.0218  0.4777 -0.0611
53256CL      CL64447   0.052   5.153   1.831 -0.1479 -0.1471  0.0636
53257CL      CL64448   5.016   2.336   0.091  0.2867  0.0422 -0.0939
53258CL      CL64449   0.614   6.657   1.670  0.0145  0.4733 -0.3078
53259CL      CL64450   6.845   6.618   2.007  0.3057  0.5113  0.0906
53260CL      CL64451   1.706   3.287   4.556 -0.0522  0.0965  0.1352
53261CL      CL64452   4.131  10.264   8.376  0.1271 -0.0390 -0.3734
53262CL      CL64453   6.767   1.034   1.648  0.1242  0.0446  0.1926
53263CL      CL64454   6.971  10.336   9.867 -0.0595  0.2704  0.3408
53264CL      CL64455   4.943   2.465   5.523  0.0580 -0.1896  0.1738
53265CL      CL64456   0.731   5.530  11.518  0.2185  0.0451 -0.1404
53266CL      CL64457   4.644   7.943   6.152  0.2396 -0.1921  0.0805
53267CL      CL64458  11.268   3.268   4.413  0.2601 -0.1713 -0.3199
53268CL      CL64459   8.422   7.687   7.353  0.4208 -0.6540 -0.3720
53269CL      CL64460   1.417   9.429   1.439  0.0803 -0.0130 -0.1124
53270CL      CL64461   1.813   4.337   1.765 -0.2776 -0.2377 -0.2580
53271CL      CL64462  10.408   1.629   2.255  0.8122 -0.2228 -0.7390
53272CL      CL64463   2.831   0.235   4.353 -0.2010  0.1451  0.0765
53273CL      CL64464   3.289   8.691   6.058 -0.0571  0.2575  0.0151
53274CL      CL64465  10.867   1.806   1.238 -0.7270  0.3849 -0.2870
53275CL      CL64466  10.252   0.965   9.785  0.2878 -0.1201  0.1427
53276CL      CL64467   1.413   1.747   4.064 -0.6707 -0.2689 -0.4603
53277CL      CL64468   9.375   9.127   1.512  0.0831 -0.3555  0.1079
53278CL      CL64469   4.535  11.098   3.143 -0.0751 -0.1046  0.0277
53279CL      CL64470   0.040   1.061   2.181  0.1688  0.1227  0.0764
53280CL      CL64471   3.259   1.160   0.630 -0.1480 -0.2425  0.0106
53281CL      CL64472   0.137   2.034   2.535 -0.1307 -0.0035 -0.1991
53282CL      CL64473   2.906   0.245  10.589 -0.0160 -0.1600  0.1969
53283CL      CL64474   3.803   0.139   2.211 -0.5218 -0.3822  0.2870
53284CL      CL64475   2.504   2.996  11.672  0.1163  0.1349 -0.0078
53285CL      CL64476   1.223   2.275   1.642  0.0466  0.1214  0.2140
53286CL      CL64477   4.281   3.488   1.881 -0.3191 -0.0319  0.2193
53287CL      CL64478   1.575   0.316   3.936 -0.2296 -0.2514 -0.1509
53288CL      CL64479   1.816   1.201   3.496  0.0583  0.2250  0.5903
53289CL      CL64480  10.344   5.221   9.803 -0.3831  0.5810 -0.3182
53290CL      CL64481   4.676   5.015   1.128 -0.0840  0.0895  0.3112
53291CL      CL64482   4.555   8.741   3.797  0.1481  0.4185 -0.1560
53292CL      CL64483   5.764   8.066   4.403 -0.3057  0.2522 -0.0805
53293CL      CL64484   0.737   1.219   4.476  0.2937  0.0559 -0.0004
53294CL      CL64485   2.715   1.301   6.642 -0.0822  0.4089  0.1492
53295CL      CL64486   5.782  10.453   6.547  0.0017  0.3700  0.0809
53296CL      CL64487  11.284   7.024   5.962 -0.0032 -0.6404  0.3740
53297CL      CL64488   7.053   1.174   3.862  0.2735 -0.0777 -0.0900
53298CL      CL64489  10.101   8.351   6.745 -0.5162 -0.4536  0.0175
53299CL      CL64490   0.706   9.669   6.992 -0.2426  0.0923  0.4418
53300CL      CL64491   1.038   4.795   3.501 -0.5767  0.1722 -0.1373
53301CL      CL64492   2.610  11.163   5.228 -0.1828 -0.0186  0.1593
53302CL      CL64493   0.824   7.344   8.240  0.0376  0.1768 -0.3723
53303CL      CL64494   2.138   3.844   8.406  0.0248  0.2495  0.1100
53304CL      CL64495   7.119   3.887   5.633 -0.0466  0.1184  0.0073
53305CL      CL64496   3.699   0.855   4.340 -0.0578 -0.0351  0.1680
53306CL      CL64497   9.579  10.411   5.983  0.3470 -0.1645  0.0523
53307CL      CL64498  11.400   6.968   6.837  0.1928  0.3031  0.1270
53308CL      CL64499   6.608   1.069   2.099 -0.1410 -0.1068  0.2815
53309CL      CL64500   9.296   1.993   2.430  0.2734 -0.3947 -0.5082
53310CL      CL64501   2.070   3.310  11.825  0.8207 -0.4057  0.3296
53311CL      CL64502  11.189   2.317   2.345 -0.0870  0.1041 -0.0192
53312CL      CL64503   1.403   5.394  10.777  0.0102 -0.0813 -0.5683
53313CL      CL64504   4.362   1.514   6.501 -0.0177 -0.0385 -0.1055
53314CL      CL64505   2.252   4.560  10.422  0.0888 -0.4410  0.1791
53315CL      CL64506   0.424   7.330   6.993 -0.1037 -0.2498 -0.0919
53316CL      CL64507  10.218   5.724   9.582 -0.0950  0.0666 -0.2954
53317CL      CL64508   5.617   5.529   6.551 -0.2300  0.2609  0.0318
53318CL      CL64509   7.084   0.188   9.914  0.1728  0.2904  0.1521
53319CL      CL64510   3.117   4.435   0.223  0.3014 -0.1732 -0.0293
53320CL      CL64511   8.139   1.042   4.386 -0.1592  0.4066 -0.0324
53321CL      CL64512  11.122   3.575   4.962  0.0937  0.0866  0.1581
53322CL      CL64513   2.481   5.643   0.617  0.1598 -0.2713  0.4886
53323CL      CL64514   2.882   1.347   4.330 -0.1286  0.4593 -0.2427
53324CL      CL64515   3.627   9.583   4.410  0.0232 -0.0305  0.1788
53325CL      CL64516   5.311   5.093   2.811 -0.0501 -0.1043 -0.2234
53326CL      CL64517  11.586   2.013   0.015 -0.3289  0.0505 -0.0070
53327CL      CL64518  11.271   7.627   4.404 -0.0312  0.4490 -0.2161
53328CL      CL64519   2.268   5.987   6.017  0.3806 -0.0489 -0.3539
53329CL      CL64520   1.332   0.630   3.267  0.1207 -0.0492  0.2841
53330CL      CL64521  11.681   1.175   1.043  0.3311 -0.0491 -0.3981
53331CL      CL64522   2.568   1.766  10.726 -0.1101 -0.3034 -0.1476
53332CL      CL64523   2.081   0.629   7.852  0.3064  0.0151  0.4655
53333CL      CL64524   0.160   3.637   6.602  0.1390 -0.0915 -0.5597
53334CL      CL64525   0.291   2.987   3.022 -0.3676  0.0382  0.3451
53335CL      CL64526   4.449   2.868   8.772  0.5508 -0.1363 -0.1253
53336CL      CL64527   5.996   1.871  10.066  0.1323 -0.0976 -0.0878
53337CL      CL64528  11.089   3.819   2.513  0.3586  0.5279  0.4335
53338CL      CL64529  11.745   5.551  10.446  0.0012 -0.1172  0.1462
53339CL      CL64530   6.019  10.353   2.476  0.6993  0.3519  0.1880
53340CL      CL64531   2.980   4.075   2.042  0.1725  0.1507 -0.1628
53341CL      CL64532   4.185   5.562   4.814 -0.4265 -0.0346 -0.3483
53342CL      CL64533   4.436  11.323   5.263 -0.2386  0.0695  0.1217
53343CL      CL64534   3.524   0.610   9.357  0.1430 -0.0957  0.1498
53344CL      CL64535   1.918   1.122   9.069  0.2426 -0.0780 -0.1082
53345CL      CL64536   3.226   2.106  10.729 -0.3171  0.3385 -0.3982
53346CL      CL64537  10.626   0.163   1.760 -0.3234 -0.1339 -0.4327
53347CL      CL64538  10.148   1.729  10.136  0.0574  0.0700  0.2018
53348CL      CL64539   6.074   3.480   2.402  0.2372  0.5269 -0.2353
53349CL      CL64540   2.152   7.025  10.035  0.0487  0.1775  0.2368
53350CL      CL64541   0.423  10.693   5.445 -0.2354 -0.3250  0.1402
53351CL      CL64542   9.341   8.728   5.721  0.0773 -0.3543 -0.0505
53352CL      CL64543   0.349   2.072   0.477  0.1696 -0.2710 -0.4468
53353CL      CL64544   2.958  10.323   1.978  0.1058 -0.3202 -0.4798
53354CL      CL64545   9.818  10.553   2.942 -0.0538  0.7220 -0.3418
53355CL      CL64546   0.090   5.023   7.742  0.0149 -0.3050 -0.0828
53356CL      CL64547   2.291   5.215   6.408 -0.4514  0.0759  0.1202
53357CL      CL64548  11.416   1.953  11.101 -0.0919  0.0196  0.0176
53358CL      CL64549   7.498   3.095   8.401  0.1650  0.3435 -0.1783
53359CL      CL64550   7.559   3.831   7.862 -0.1021 -0.4671 -0.2838
53360CL      CL64551  11.324   9.720   8.697 -0.4661  0.2577 -0.0668
53361CL      CL64552   3.637   9.020   2.666  0.1753  0.2422 -0.0489
53362CL      CL64553  11.656   1.447   2.224 -0.0703 -0.0735  0.1521
53363CL      CL64554   1.838   2.564   4.998  0.1715  0.3518 -0.0131
53364CL      CL64555   0.472   3.340   3.777  0.4731  0.1131  0.5237
53365CL      CL64556  10.628   7.188   8.208  0.1261  0.1387  0.0559
53366CL      CL64557   1.130   2.439  11.196 -0.3414  0.1301 -0.0575
53367CL      CL64558   3.192   9.044   0.045 -0.2540  0.0311  0.2712
53368CL      CL64559  10.502  10.557  11.641 -0.2912  0.1489  0.4466
53369CL      CL64560   1.418   4.570   2.660  0.0851  0.1670 -0.0373
53370CL      CL64561   4.153   2.122   0.416 -0.1671 -0.2586  0.1909
53371CL      CL64562   1.422   0.751   1.912 -0.0796  0.2305 -0.2181
53372CL      CL64563   3.186   1.773   2.766  0.0306  0.6712  0.0037
53373CL      CL64564  11.506  11.238   5.642 -0.3373 -0.1513  0.2208
53374CL      CL64565   9.811   9.365  11.036  0.5210 -0.2378 -0.1062
53375CL      CL64566  10.108  11.724   2.254  0.0573 -0.4153  0.3981
53376CL      CL64567   7.800   3.944  11.741 -0.0287  0.0108  0.2347
53377CL      CL64568   9.948   3.707   2.244  0.0462  0.0288 -0.0085
53378CL      CL64569   1.297   3.783   5.100  0.2320  0.2228 -0.2881
53379CL      CL64570   8.063   1.827   0.742 -0.0001 -0.2109  0.1402
53380CL      CL64571   6.062   4.012   3.441 -0.2340  0.1824 -0.1434
53381CL      CL64572  11.251   0.719   5.233 -0.4380 -0.0935 -0.2033
53382CL      CL64573   2.854   3.654   7.086 -0.0112 -0.3641 -0.3942
53383CL      CL64574   6.001   8.126   8.895  0.3790 -0.2768 -0.5706
53384CL      CL64575   1.439   2.643   4.324 -0.2546  0.2654 -0.4796
53385CL      CL64576   8.582   8.496   2.029 -0.0455  0.0207 -0.4740
53386CL      CL64577   0.308   3.148  10.676 -0.1415 -0.0474 -0.3299
53387CL      CL64578   9.877   1.200   0.550 -0.1527 -0.0473  0.1372
53388CL      CL64579   0.882   8.397  10.435  0.2279  0.1702 -0.5239
53389CL      CL64580   5.916  10.420   0.767 -0.4977 -0.4427 -0.0574
53390CL      CL64581   4.833   2.698   2.155  0.2164 -0.3719  0.0612
53391CL      CL64582   7.540   7.450  11.776 -0.4759 -0.1764 -0.0732
53392CL      CL64583   7.700   1.145   3.186  0.4990  0.2468 -0.3736
53393CL      CL64584   7.203   1.692  10.061 -0.1954  0.2047  0.0057
53394CL      CL64585   4.456   0.802   2.835  0.0943 -0.5578 -0.4607
53395CL      CL64586   0.956   1.435   4.034  0.2558 -0.0534 -0.4103
53396CL      CL64587   0.353   5.767   3.604  0.0135  0.3862 -0.0250
53397CL      CL64588   4.437   2.350   5.535 -0.2349  0.0789  0.4962
53398CL      CL64589   0.840  10.266   4.714 -0.7011  0.2894  0.4530
53399CL      CL64590   9.546   2.651   5.236 -0.7304  0.0366  0.4982
53400CL      CL64591   2.853   3.728   0.001  0.1060 -0.1919 -0.2642
53401CL      CL64592   4.504   7.388   4.981 -0.0410  0.0693  0.1026
53402CL      CL64593  10.983   2.063   3.534 -0.0254 -0.0273  0.0044
53403CL      CL64594   0.368  11.316   1.493 -0.1130 -0.0913 -0.0748
53404CL      CL64595   7.678   8.589   1.884 -0.1537  0.3001  0.1676
53405CL      CL64596   3.351   3.602  11.603  0.0525  0.0438 -0.1829
53406CL      CL64597   4.933   8.195   1.034 -0.2029 -0.3015 -0.0495
53407CL      CL64598   3.767  11.709   3.259  0.3856 -0.3925 -0.0926
53408CL      CL64599   2.453   1.378   4.096 -0.1935 -0.5237  0.3891
53409CL      CL64600   7.110  11.035   3.173  0.3839  0.0993 -0.1398
53410CL      CL64601   6.657   5.286   4.367 -0.0136  0.0631  0.5819
53411CL      CL64602   9.889   2.045   1.106  0.6025  0.3906  0.2924
53412CL      CL64603   0.352   1.183  11.334 -0.3513 -0.0243 -0.0183
53413CL      CL64604  10.941  10.665   3.025 -0.2998 -0.0205  0.1359
53414CL      CL64605   4.419   2.396   1.629  0.6884 -0.0780 -0.5781
53415CL      CL64606   9.146   3.814   7.372  0.1977  0.1114  0.1155
53416CL      CL64607   5.708   1.572   8.896 -0.3134  0.2621 -0.1387
53417CL      CL64608   9.343   6.983   6.253  0.0333  0.2398  0.0157
53418CL      CL64609   4.133   3.838  10.716  0.0881  0.0404 -0.0433
53419CL      CL64610   3.102   0.160   3.349 -0.2708  0.1488 -0.2113
53420CL      CL64611   5.815   0.847   9.755  0.2735 -0.2418 -0.2258
53421CL      CL64612   5.985   6.735   5.944  0.3535 -0.2466 -0.5337
53422CL      CL64613   3.104   2.568  10.727 -0.3986  0.3352  0.5787
53423CL      CL64614   0.714   1.509   1.254  0.2616 -0.0515 -0.0248
53424CL      CL64615   0.243   4.037   3.475 -0.1243 -0.6729  0.1764
53425CL      CL64616   6.927  11.752  11.417  0.3116  0.2336  0.5791
53426CL      CL64617   0.207   1.819   0.085  0.2292  0.0586  0.1799
53427CL      CL64618   0.574  11.789   1.296  0.5698  0.1907 -0.2906
53428CL      CL64619   0.454   5.999   1.654  0.2916  0.1732 -0.7131
53429CL      CL64620   0.794   4.223   9.641 -0.9057  0.0437  0.1808
  11.82635  11.82635  11.82635
